ITEM: TIMESTEP
1800000
ITEM: NUMBER OF ATOMS
296
ITEM: BOX BOUNDS ff ff ff
-0.02 0.43
-0.02 0.06
-0.02 0.07
ITEM: ATOMS id type x y z vx vy vz fx fy fz radius mass 
1 1 0.0210272 0.0233033 0.0149422 -0.00051814 -0.00194503 0.00906227 0 0 -1.43822e-06 0.0005 1.46608e-07 
2 1 0.0182979 0.0238345 0.0131119 -0.00253601 0.00328267 -0.00837483 2.92739e-07 -4.07904e-07 5.05984e-07 0.0005 1.46608e-07 
3 1 0.0239861 0.0221756 0.0160255 -0.0419435 -0.0366377 -0.0155841 0 0 -1.43822e-06 0.0005 1.46608e-07 
4 1 0.014259 0.0211517 0.0157843 0.00294399 0.0106121 -0.00577829 9.14859e-06 2.41912e-05 1.10578e-06 0.0005 1.46608e-07 
5 1 0.0232351 0.0148819 0.0146783 0.000300868 0.000436752 0.000117372 -2.8932e-07 -1.47453e-07 -7.82914e-07 0.0005 1.46608e-07 
6 1 0.0149043 0.015189 0.0182252 0.0894938 0.0801902 -0.201191 0 0 -1.43822e-06 0.0005 1.46608e-07 
7 1 0.0190582 0.022178 0.0148449 0.00470866 0.00227401 -0.00490534 -1.0771e-06 -1.1134e-05 -3.41407e-07 0.0005 1.46608e-07 
8 1 0.0202132 0.0215359 0.015916 0.0110934 0.00424658 -0.00351127 0 0 -1.43822e-06 0.0005 1.46608e-07 
9 1 0.0209136 0.0239899 0.0130378 -0.000324816 0.000307535 0.000275679 -6.88621e-07 -1.84914e-08 -5.11066e-07 0.0005 1.46608e-07 
10 1 0.0198155 0.0210061 0.0166682 0.00540952 0.0168215 -0.0158185 0 0 -1.43822e-06 0.0005 1.46608e-07 
11 1 0.0180261 0.0232362 0.0108281 0.00114855 -0.000165344 -0.00816864 -2.48274e-07 -3.79106e-07 5.48732e-07 0.0005 1.46608e-07 
12 1 0.0209126 0.0141554 0.0131535 -0.000250394 -0.000422489 0.000309357 -4.30672e-08 1.34717e-06 -3.14743e-06 0.0005 1.46608e-07 
13 1 0.0160312 0.0236184 0.0141028 0.000980223 0.000393967 0.000149462 -1.86643e-06 -9.62478e-07 6.27408e-07 0.0005 1.46608e-07 
14 1 0.0190315 0.0240335 0.0133529 -0.00176174 0.00190213 -0.0022839 7.96136e-08 -1.01327e-07 1.4676e-06 0.0005 1.46608e-07 
15 1 0.0252639 0.0211114 0.0160646 0.00285873 0.00992573 0.00129976 -0.000103664 6.60587e-05 -0.000126906 0.0005 1.46608e-07 
16 1 0.019778 0.0227957 0.0138877 0.00265133 0.00363113 -0.00485682 -1.7066e-06 -2.67208e-06 8.47687e-06 0.0005 1.46608e-07 
17 1 0.0217925 0.023865 0.0133629 0.000109945 0.00324026 -0.000910931 3.95325e-07 3.11006e-07 -1.03466e-06 0.0005 1.46608e-07 
18 1 0.0217013 0.0152428 0.00945498 -0.00437974 -0.0110532 0.0222825 -0.000130808 -0.000119022 0.000282326 0.0005 1.46608e-07 
19 1 0.0195476 0.0245137 0.0136732 -0.00085821 0.00014992 4.06423e-05 -8.22253e-09 -1.72636e-07 4.51594e-07 0.0005 1.46608e-07 
20 1 0.0402891 0.0167947 0.00659266 8.9953e-16 -8.53528e-15 -2.18721e-14 1.13324e-19 -2.79521e-20 1.60936e-20 0.0005 1.46608e-07 
21 1 0.0194236 0.0205547 0.0158652 0.00377681 0.00572293 0.000974401 -1.33203e-06 4.60865e-06 1.54846e-05 0.0005 1.46608e-07 
22 1 0.0190598 0.0219681 0.0167842 0.0858385 0.0160081 -0.0212309 0 0 -1.43822e-06 0.0005 1.46608e-07 
23 1 0.0174912 0.024079 0.0128137 -0.000399698 0.00364158 -0.00432223 6.47088e-09 -5.00472e-08 2.86266e-07 0.0005 1.46608e-07 
24 1 0.0233944 0.0219092 0.00850348 0.000957752 -0.0143832 -0.0128201 3.8238e-08 7.26851e-07 4.16205e-07 0.0005 1.46608e-07 
25 1 0.0198013 0.014482 0.014802 0.000359991 0.00234276 -0.00110629 -2.25675e-07 4.72238e-07 7.17203e-07 0.0005 1.46608e-07 
26 1 0.0190651 0.0231164 0.013255 0.00046569 0.00300298 -0.00145209 2.31927e-07 -8.67416e-07 4.84205e-06 0.0005 1.46608e-07 
27 1 0.0217795 0.0148337 0.0130013 0.00719217 -0.00200115 -0.000483977 0 0 -1.43822e-06 0.0005 1.46608e-07 
28 1 0.0220562 0.0165876 0.0079553 0.000467255 -0.0172653 0.0116814 -3.47166e-10 -2.42778e-10 1.29541e-08 0.0005 1.46608e-07 
29 1 0.015401 0.0236184 0.0148792 0.00178081 0.0015747 0.000381462 3.73128e-07 2.56899e-07 -7.88286e-07 0.0005 1.46608e-07 
30 1 0.0203631 0.024022 0.0162657 -0.000396466 0.00109926 0.000330831 -1.01327e-06 1.83191e-07 -2.56162e-06 0.0005 1.46608e-07 
31 1 0.0158135 0.0230794 0.0169212 0.00736666 0.00551908 -0.00352037 -8.55833e-09 -5.84263e-07 4.88054e-07 0.0005 1.46608e-07 
32 1 0.0203315 0.0165077 0.0151571 -0.00144378 0.0148347 0.0110244 5.40848e-08 -1.27643e-08 -7.63466e-07 0.0005 1.46608e-07 
33 1 0.0216068 0.0193047 0.0159335 0.00256145 0.00845051 -0.000550157 2.11803e-06 6.86814e-07 6.52881e-07 0.0005 1.46608e-07 
34 1 0.0192165 0.0214622 0.0155165 0.00402486 0.00427283 -0.00332252 2.24859e-06 -4.39884e-06 2.4607e-06 0.0005 1.46608e-07 
35 1 0.0247584 0.0219653 0.0151407 -0.000415815 -0.00745763 0.00590281 -2.10011e-06 1.63792e-05 -1.24255e-05 0.0005 1.46608e-07 
36 1 0.0204025 0.0244149 0.0137637 -0.000216796 -0.000152552 0.000299399 -3.98031e-07 -1.49845e-07 4.53297e-07 0.0005 1.46608e-07 
37 1 0.0212326 0.0147408 0.0112397 9.64903e-06 -0.00282294 0.023479 5.36633e-10 1.07543e-08 6.38079e-09 0.0005 1.46608e-07 
38 1 0.0210714 0.0146716 0.0123119 0.0045228 0.00168022 0.00296845 -5.11824e-06 3.37298e-06 2.14325e-05 0.0005 1.46608e-07 
39 1 0.0211749 0.0235345 0.0159047 -0.000766109 0.0126014 0.0150415 0 0 -1.43822e-06 0.0005 1.46608e-07 
40 1 0.0229227 0.0238103 0.0149286 -0.000396239 -0.000992742 -0.000510728 3.71735e-08 -2.53269e-08 -1.96022e-08 0.0005 1.46608e-07 
41 1 0.0175699 0.0237227 0.0137654 0.00024707 0.00594303 -0.0106508 -1.16885e-07 -6.33616e-08 2.63361e-07 0.0005 1.46608e-07 
42 1 0.0225723 0.0184957 0.00728217 0.00118015 -0.0119887 0.00138982 -1.60556e-10 8.89622e-09 7.98755e-09 0.0005 1.46608e-07 
43 1 0.0185965 0.0233482 0.0108471 0.00195474 0.000913863 -0.00337344 1.30562e-06 2.69019e-07 -3.29759e-07 0.0005 1.46608e-07 
44 1 0.0190738 0.0231682 0.0149952 -0.00193094 -0.0132058 -0.00558946 0 0 -1.43822e-06 0.0005 1.46608e-07 
45 1 0.0219022 0.0238558 0.0147622 0.000509463 2.19268e-05 6.98058e-05 -6.86794e-07 -3.89025e-06 4.18427e-06 0.0005 1.46608e-07 
46 1 0.0240324 0.0223801 0.00889377 0.00119309 -0.0030358 -0.00323813 2.55697e-06 -5.34604e-07 -2.46374e-07 0.0005 1.46608e-07 
47 1 0.0230188 0.0233217 0.0143671 0.0002537 -0.00324051 -0.00413322 6.05992e-08 1.2461e-08 -1.80193e-07 0.0005 1.46608e-07 
48 1 0.0215376 0.0141596 0.0139339 0.000161168 0.000445016 -0.000692366 -1.30549e-08 2.29262e-07 2.66097e-07 0.0005 1.46608e-07 
49 1 0.0241539 0.0174605 0.0165166 -1.13126e-07 0.0235706 0.0076186 -5.5598e-10 4.26279e-09 -1.63099e-08 0.0005 1.46608e-07 
50 1 0.0218993 0.0158332 0.00862637 0.000559658 -0.00984203 0.0121022 -2.77344e-08 1.54421e-07 -1.17309e-07 0.0005 1.46608e-07 
51 1 0.0190285 0.0234858 0.0116996 0.000855306 0.000100702 -0.000919769 -4.02184e-07 -4.5898e-07 -4.54286e-07 0.0005 1.46608e-07 
52 1 0.020011 0.0240205 0.0126773 -0.000119404 0.000875352 0.000337033 -3.47439e-08 -3.67458e-07 6.10649e-07 0.0005 1.46608e-07 
53 1 0.02552 0.0202576 0.0158562 0.0687987 0.00572031 0.045244 -0.000622305 0.000126362 -0.00026504 0.0005 1.46608e-07 
54 1 0.0179257 0.0244558 0.0137785 0.000131529 0.00120653 -0.00133555 -1.95227e-07 -7.55822e-08 2.75903e-07 0.0005 1.46608e-07 
55 1 0.0148806 0.0227612 0.0154944 0.000374851 0.0034128 -0.000124005 1.12697e-06 7.75048e-07 -1.06489e-06 0.0005 1.46608e-07 
56 1 0.017766 0.0169763 0.016326 -2.23126e-10 0.0227658 0.00963363 -2.94544e-12 6.79868e-09 -1.54057e-08 0.0005 1.46608e-07 
57 1 0.0167622 0.0239544 0.0135017 0.000193497 0.00293274 -0.0010173 -1.54916e-07 2.61522e-07 8.73733e-07 0.0005 1.46608e-07 
58 1 0.0188157 0.0240218 0.0124834 -0.000518924 0.00152728 -0.00159001 -4.24973e-07 -2.85688e-07 1.16405e-06 0.0005 1.46608e-07 
59 1 0.0230592 0.0200796 0.00739489 -5.38139e-05 -0.00956238 -0.00504996 -3.29667e-09 -2.65772e-08 1.22109e-08 0.0005 1.46608e-07 
60 1 0.0213777 0.0157284 0.0144713 0.00325348 0.00680647 0.00647467 2.21899e-07 -4.08736e-07 1.22695e-06 0.0005 1.46608e-07 
61 1 0.0170259 0.0240657 0.0144833 -0.00127237 -0.00166211 -0.00167539 3.39741e-07 7.56513e-08 4.40542e-07 0.0005 1.46608e-07 
62 1 0.0212667 0.0243535 0.0139662 2.58936e-05 0.00056049 -0.000485678 -7.15095e-08 6.44698e-07 -1.46028e-06 0.0005 1.46608e-07 
63 1 0.0224279 0.0236726 0.0139626 -0.000380359 -6.80651e-05 -0.00105213 -2.96516e-07 -2.37328e-07 6.26615e-07 0.0005 1.46608e-07 
64 1 0.0204173 0.0205466 0.0158673 0.003705 0.00698208 0.00189556 -9.46572e-07 -4.51944e-06 1.36108e-05 0.0005 1.46608e-07 
65 1 0.0209821 0.0172028 0.015558 0.00322494 0.0113177 0.00579788 -9.65504e-08 8.65761e-08 -5.26877e-07 0.0005 1.46608e-07 
66 1 0.0192871 0.0238804 0.0157825 -0.0152232 -0.00801593 -0.0144793 3.02717e-07 -3.81481e-07 -9.07413e-07 0.0005 1.46608e-07 
67 1 0.0187651 0.0203757 0.0166114 -0.000413957 0.0167487 -0.0048523 -2.38197e-08 7.90024e-07 -1.729e-07 0.0005 1.46608e-07 
68 1 0.0212962 0.0235574 0.014012 0.000301439 0.00136593 -0.00245388 -2.26886e-06 2.58637e-06 -5.59085e-06 0.0005 1.46608e-07 
69 1 0.0164173 0.0230866 0.0148561 0.000107134 0.000537311 -0.000418036 -3.26425e-06 -2.72627e-06 9.55958e-07 0.0005 1.46608e-07 
70 1 0.0219553 0.0229055 0.0150379 0.00168519 0.00154188 -0.000153742 -4.11581e-06 -1.5485e-05 2.50091e-05 0.0005 1.46608e-07 
71 1 0.0182607 0.0226898 0.0153405 0.000542105 0.00165178 -0.000428384 1.97714e-07 -8.52859e-09 -7.73177e-08 0.0005 1.46608e-07 
72 1 0.0167914 0.014742 0.014296 -0.00551608 0.00786624 -0.000216453 -2.89431e-06 9.67595e-07 2.58309e-07 0.0005 1.46608e-07 
73 1 0.0250029 0.0219216 0.0164927 -0.0169511 0.0162464 -0.0123954 -6.65998e-05 0.000283478 -0.000166932 0.0005 1.46608e-07 
74 1 0.0207941 0.015085 0.0135086 0.00461185 0.00120549 0.00204985 7.38769e-08 -3.95762e-07 -3.40118e-07 0.0005 1.46608e-07 
75 1 0.0258913 0.0197038 0.0168463 -0.000494486 0.000350723 -0.000930702 1.43924e-07 7.31252e-08 2.85196e-08 0.0005 1.46608e-07 
76 1 0.0183337 0.0233472 0.0123089 0.00068693 0.00271874 -0.0101643 -1.83878e-06 -1.13217e-07 -5.87784e-06 0.0005 1.46608e-07 
77 1 0.0173397 0.0217944 0.0159822 0.00133916 0.001482 -0.000959194 -2.57661e-07 -8.37465e-08 -2.11219e-07 0.0005 1.46608e-07 
78 1 0.0175676 0.0202437 0.0166313 -0.0040752 0.00539141 -0.00304608 -1.35382e-06 6.20156e-07 6.30657e-07 0.0005 1.46608e-07 
79 1 0.0258016 0.0184717 0.0159282 0.00243667 0.00140665 -0.00258928 2.80411e-05 -5.71359e-05 -6.97438e-05 0.0005 1.46608e-07 
80 1 0.0153987 0.0223679 0.0163291 0.00192369 0.000513417 -6.04933e-05 2.35217e-06 2.01668e-06 3.1473e-06 0.0005 1.46608e-07 
81 1 0.020162 0.0153534 0.0168511 -0.0545614 0.0360291 -0.185075 0 0 -1.43822e-06 0.0005 1.46608e-07 
82 1 0.0144301 0.0201764 0.015808 0.00170751 0.00798453 -0.00369234 -2.49823e-05 1.38249e-05 3.78393e-06 0.0005 1.46608e-07 
83 1 0.0195088 0.0223958 0.0157152 0.00142373 0.00530059 -0.00470407 -1.53536e-06 -3.20165e-06 2.73356e-06 0.0005 1.46608e-07 
84 1 0.0179578 0.0142431 0.0135919 0.000436852 0.00977691 0.0224531 2.03718e-07 -5.2581e-08 -1.42029e-07 0.0005 1.46608e-07 
85 1 0.0135658 0.019862 0.0161806 0.00686221 -0.00398723 -0.00280064 -2.40345e-06 -1.0755e-05 2.65706e-06 0.0005 1.46608e-07 
86 1 0.0218704 0.0166262 0.0152257 0.000446136 0.0159938 0.0106502 1.59268e-07 2.76888e-07 1.82692e-07 0.0005 1.46608e-07 
87 1 0.0199819 0.0218095 0.0149816 0.00457103 0.00323045 -0.00404893 -1.63981e-07 6.71933e-06 -5.18239e-06 0.0005 1.46608e-07 
88 1 0.0139515 0.0224058 0.0155953 0.000323233 0.00167759 0.000907956 2.06458e-06 4.98198e-06 -9.7536e-07 0.0005 1.46608e-07 
89 1 0.0151323 0.0166877 0.0159276 -0.00195003 0.012424 0.00916834 -9.15698e-08 2.2518e-09 -7.2567e-07 0.0005 1.46608e-07 
90 1 0.0181569 0.0234442 0.0115452 0.00223699 0.00143385 -0.00723028 2.82854e-07 -7.44547e-07 -1.37913e-06 0.0005 1.46608e-07 
91 1 0.0178384 0.0149731 0.0148114 0.000426101 0.0050191 0.00742175 7.32413e-08 -1.05438e-07 -1.35699e-06 0.0005 1.46608e-07 
92 1 0.0209774 0.0220601 0.0149937 0.00730533 0.00181057 -0.00130895 -3.50388e-06 2.65335e-06 -3.78527e-08 0.0005 1.46608e-07 
93 1 0.0174607 0.0140028 0.0143689 -0.010291 0.00589114 0.0129321 -1.4326e-08 -1.1925e-07 -2.87745e-07 0.0005 1.46608e-07 
95 1 0.0195735 0.0243529 0.0167823 0.000722897 -0.000598578 -0.000716738 -7.60859e-07 -5.37751e-07 2.09995e-06 0.0005 1.46608e-07 
96 1 0.0184192 0.0219017 0.0159428 0.00830675 0.0112035 -0.00589367 -5.36025e-07 1.22797e-06 -8.66324e-07 0.0005 1.46608e-07 
97 1 0.0256758 0.0193577 0.0159197 0.00685076 -0.000245238 0.000582168 -2.59038e-05 -0.000166713 2.86945e-06 0.0005 1.46608e-07 
98 1 0.0205358 0.016379 0.0161306 -0.0205094 0.0197882 0.0165369 0 0 -1.43822e-06 0.0005 1.46608e-07 
99 1 0.0174848 0.0191375 0.0167612 0.000400719 0.026122 -0.00111614 1.22343e-06 -2.21882e-07 -7.03354e-07 0.0005 1.46608e-07 
100 1 0.0183975 0.0238328 0.0144734 -0.00354427 0.00433779 -0.02875 0 0 -1.43822e-06 0.0005 1.46608e-07 
101 1 0.0205314 0.0225407 0.0157484 0.0080675 0.00747916 -0.0001777 -5.48477e-06 3.11919e-06 7.96185e-06 0.0005 1.46608e-07 
102 1 0.0185256 0.0139972 0.0161786 0.00792522 0.010645 -0.0192375 0 0 -1.43822e-06 0.0005 1.46608e-07 
103 1 0.020108 0.0237452 0.0152123 0.00306552 0.000484842 -0.0018409 3.88662e-06 1.70045e-06 3.86887e-06 0.0005 1.46608e-07 
104 1 0.015513 0.0154925 0.0152517 -0.0044936 0.0030435 0.00625632 7.3009e-07 -5.79296e-07 -3.76319e-07 0.0005 1.46608e-07 
105 1 0.0148058 0.022906 0.0145078 0.00175988 0.001551 0.000366554 3.32709e-07 5.13664e-07 -6.18339e-07 0.0005 1.46608e-07 
106 1 0.0193852 0.0239887 0.0145099 -0.000198326 -0.00312307 -0.00266424 0 0 -1.43822e-06 0.0005 1.46608e-07 
108 1 0.0237709 0.0230616 0.00987146 0.00022278 -0.00505082 -0.0150162 -5.23775e-06 -7.17975e-06 -1.39121e-05 0.0005 1.46608e-07 
109 1 0.01667 0.0152174 0.0160744 -0.00795184 0.0167489 -0.0335684 0 0 -1.43822e-06 0.0005 1.46608e-07 
110 1 0.0228293 0.0173947 0.0173915 0.00435171 0.0217836 0.00778776 -8.69531e-09 -1.87695e-08 2.51167e-08 0.0005 1.46608e-07 
111 1 0.0203311 0.0231873 0.013124 -0.000781075 0.000855082 -0.000205318 1.147e-07 -3.77249e-07 -1.15357e-06 0.0005 1.46608e-07 
112 1 0.0183682 0.0230707 0.0101637 0.001565 0.00419284 -0.000357465 -1.54395e-06 -4.87146e-07 3.5055e-07 0.0005 1.46608e-07 
113 1 0.0224926 0.0190363 0.0167475 -4.67499e-09 0.0247053 0.000353381 -1.28427e-14 4.80442e-10 -1.68565e-08 0.0005 1.46608e-07 
114 1 0.0193281 0.0232841 0.0106698 0.00108519 0.000495181 -0.00748427 5.28091e-07 4.03491e-07 4.10597e-07 0.0005 1.46608e-07 
115 1 0.0226425 0.015061 0.0134543 0.00288498 0.00103501 0.00123228 -1.26597e-06 -4.44012e-07 -3.22094e-07 0.0005 1.46608e-07 
116 1 0.0150096 0.021448 0.0163744 0.00179886 0.000932656 0.00109595 -8.3499e-07 -2.42819e-07 -2.00782e-06 0.0005 1.46608e-07 
117 1 0.0259598 0.0183154 0.0169104 0.00124612 0.00777613 0.000983737 1.24356e-09 1.36528e-08 -5.52868e-10 0.0005 1.46608e-07 
118 1 0.021589 0.0221593 0.0157846 0.00397796 0.00331173 0.00643578 0 0 -1.43822e-06 0.0005 1.46608e-07 
119 1 0.0236402 0.0228677 0.0152294 -0.00358203 0.0381577 -0.0267543 0 0 -1.43822e-06 0.0005 1.46608e-07 
120 1 0.0204997 0.0154451 0.0148568 0.00310068 0.00871448 0.00816909 -3.11257e-07 -6.71417e-07 4.67773e-06 0.0005 1.46608e-07 
121 1 0.020308 0.0235538 0.0142417 0.00396248 -0.00103935 0.00316058 -1.33727e-06 -3.06582e-06 8.4344e-06 0.0005 1.46608e-07 
122 1 0.0175897 0.023261 0.0146573 0.00466648 0.00562839 -0.00809138 8.70934e-07 1.31783e-06 -1.98231e-06 0.0005 1.46608e-07 
123 1 0.0239214 0.0153449 0.0152407 0.00239079 -0.000176194 0.000524562 -5.55852e-08 -1.64004e-07 -3.53919e-07 0.0005 1.46608e-07 
124 1 0.0234724 0.0226086 0.00911451 0.000537563 -0.00948852 -0.0135199 6.79834e-07 -3.99653e-07 -7.50626e-07 0.0005 1.46608e-07 
125 1 0.0242525 0.02336 0.0119493 0.000355527 0.00265076 -0.0211914 7.04644e-10 -9.45955e-09 -7.76377e-09 0.0005 1.46608e-07 
126 1 0.0147117 0.0192272 0.0159465 0.00116304 0.00524132 -0.00450824 -1.36338e-06 1.76143e-05 -5.68725e-06 0.0005 1.46608e-07 
127 1 0.0210873 0.0156786 0.0166239 0.0271055 -0.0701289 -0.0961895 0 0 -1.43822e-06 0.0005 1.46608e-07 
128 1 0.0194745 0.0233553 0.0124548 1.87861e-07 0.0022439 0.00090656 -9.83867e-07 -2.64966e-07 3.04692e-06 0.0005 1.46608e-07 
129 1 0.0174809 0.0147496 0.0157192 -0.0028273 -0.000382136 0.00651166 5.09067e-07 4.58352e-07 -1.64436e-06 0.0005 1.46608e-07 
130 1 0.0230957 0.0248147 0.021396 -0.0539631 -0.0852362 -0.253918 0 0 -1.43822e-06 0.0005 1.46608e-07 
131 1 0.0218338 0.0236431 0.0169342 -0.00753055 0.00299945 0.00088654 2.05108e-07 -5.94798e-07 -1.17239e-06 0.0005 1.46608e-07 
132 1 0.0161086 0.0217064 0.0160154 -0.00182144 0.0150618 -0.00952605 1.06488e-07 3.39348e-07 -2.08146e-07 0.0005 1.46608e-07 
133 1 0.0219774 0.0179142 0.0167598 -0.000678242 0.0241193 0.00525277 1.61944e-07 7.66969e-08 3.04166e-07 0.0005 1.46608e-07 
135 1 0.0167566 0.0238503 0.016609 0.00089736 0.000257024 0.000122944 -3.56581e-07 -1.10297e-06 -3.55168e-07 0.0005 1.46608e-07 
136 1 0.0166245 0.0147616 0.0126593 0.00083375 -0.000165594 -0.000760778 -5.04071e-08 2.83987e-09 7.0421e-08 0.0005 1.46608e-07 
137 1 0.0228982 0.0155487 0.0153932 0.000868833 0.00057463 0.00103742 -5.75048e-08 2.29299e-07 -1.50031e-06 0.0005 1.46608e-07 
138 1 0.0189239 0.0140028 0.0129659 -0.000380887 -0.00108771 0.0018158 2.47609e-08 -7.65327e-08 1.62634e-07 0.0005 1.46608e-07 
139 1 0.0140432 0.0222631 0.0145775 0.00120528 0.00199223 -0.000375063 7.84419e-07 2.82988e-07 9.40512e-07 0.0005 1.46608e-07 
140 1 0.0242844 0.0229204 0.00947204 0.00083947 -0.000410233 -0.00240855 -1.16118e-06 1.16454e-06 1.97508e-06 0.0005 1.46608e-07 
141 1 0.024584 0.0159215 0.0157218 -9.01205e-05 0.000988312 0.000471336 5.90032e-09 -4.96069e-08 -1.36123e-08 0.0005 1.46608e-07 
142 1 0.0199205 0.0139866 0.0130468 -0.000472433 -0.000612548 0.000804407 3.0327e-07 -6.93094e-08 9.55396e-07 0.0005 1.46608e-07 
143 1 0.0211676 0.0215496 0.0165049 0.0101279 -0.00618196 0.00229354 0 0 -1.43822e-06 0.0005 1.46608e-07 
144 1 0.0227302 0.022458 0.0154888 0.016822 0.000281596 -0.000501754 0 0 -1.43822e-06 0.0005 1.46608e-07 
145 1 0.0137644 0.0189105 0.0159544 0.00461665 -0.000723736 -0.00234942 -3.35978e-06 3.75966e-06 -3.5734e-06 0.0005 1.46608e-07 
146 1 0.0192164 0.0199004 0.0173713 0.00333682 -0.0277772 -0.0335696 0 0 -1.43822e-06 0.0005 1.46608e-07 
147 1 0.0207435 0.0226582 0.0142327 0.00922153 0.000854757 -0.000472586 -1.55155e-05 -7.13928e-06 -7.29367e-06 0.0005 1.46608e-07 
148 1 0.021388 0.020334 0.0158554 0.0042937 0.00524287 0.00374258 7.62289e-07 -1.09662e-05 -1.94459e-07 0.0005 1.46608e-07 
149 1 0.0250832 0.0179133 0.0166464 -0.00535307 0.0200422 0.00421571 2.2685e-08 4.18586e-08 -2.3419e-10 0.0005 1.46608e-07 
150 1 0.0176642 0.0229789 0.016089 0.000906732 0.000989157 0.000198318 3.41473e-07 -1.63504e-07 5.03888e-07 0.0005 1.46608e-07 
151 1 0.0157959 0.0175711 0.0156887 0.0105983 0.00368245 -0.00105437 0 0 -1.43822e-06 0.0005 1.46608e-07 
152 1 0.0133403 0.016967 0.0185989 0.0567429 0.0820942 -0.192707 3.55452e-07 2.45467e-08 -9.2536e-07 0.0005 1.46608e-07 
153 1 0.0153031 0.0197737 0.0172063 -0.000450977 0.00501017 0.00833204 -7.40052e-07 1.50658e-06 4.611e-07 0.0005 1.46608e-07 
154 1 0.0164763 0.0153004 0.0150636 -0.00398551 0.013368 -0.00278821 0 0 -1.43822e-06 0.0005 1.46608e-07 
155 1 0.0180088 0.0180724 0.0166694 7.9634e-11 0.0243544 0.00447982 5.45128e-16 2.95145e-09 -1.66312e-08 0.0005 1.46608e-07 
156 1 0.0170343 0.023557 0.0154866 5.87609e-06 0.000341286 -0.000498624 -3.93218e-06 -7.61859e-07 -2.41257e-07 0.0005 1.46608e-07 
157 1 0.0158489 0.0225163 0.0154488 0.000167084 0.000389449 -0.000942062 -1.11297e-06 -5.95096e-08 6.22114e-07 0.0005 1.46608e-07 
158 1 0.0171614 0.0230005 0.0169531 -0.00592526 -0.00448118 -0.00321588 1.43189e-09 1.47427e-07 -8.93566e-07 0.0005 1.46608e-07 
159 1 0.0213464 0.0145402 0.0174813 0.00443449 -0.00455951 -0.0181181 0 0 -1.43822e-06 0.0005 1.46608e-07 
160 1 0.0164869 0.0190733 0.0167553 0.00096044 0.028083 0.000100446 -1.9303e-06 8.79285e-07 -2.19567e-06 0.0005 1.46608e-07 
161 1 0.0203942 0.013716 0.0138871 -0.00292363 -0.000433959 -0.000365863 4.56408e-07 8.71308e-07 -9.56507e-07 0.0005 1.46608e-07 
162 1 0.018864 0.0153314 0.0152283 0.00255762 -0.000124048 -0.00203757 -7.22763e-08 -2.66457e-07 -2.63909e-07 0.0005 1.46608e-07 
163 1 0.0161957 0.0202636 0.0166033 -3.0283e-09 0.0240296 -0.00562663 -1.37374e-13 -3.77266e-09 -1.63976e-08 0.0005 1.46608e-07 
164 1 0.0199541 0.0180544 0.0158461 -0.00244535 0.0196628 0.00530566 1.05639e-05 9.64094e-06 7.69069e-06 0.0005 1.46608e-07 
165 1 0.0212137 0.014761 0.0146642 -0.00190039 0.00577546 -0.00689363 3.48083e-07 2.63588e-07 -5.28294e-07 0.0005 1.46608e-07 
166 1 0.0200377 0.0150002 0.0156244 -0.00176998 0.00489315 -0.00329633 0 0 -1.43822e-06 0.0005 1.46608e-07 
167 1 0.024149 0.0190422 0.0167697 8.11804e-05 0.0247997 -0.000163013 -2.09587e-07 -1.04729e-08 -6.43928e-08 0.0005 1.46608e-07 
168 1 0.0166125 0.0224075 0.0210165 -0.0838059 -0.032956 0.1029 0 0 -1.43822e-06 0.0005 1.46608e-07 
169 1 0.0150722 0.0148257 0.014631 2.4594e-05 -0.00055992 0.00083078 -4.15683e-07 -3.32304e-08 1.78327e-06 0.0005 1.46608e-07 
170 1 0.0133769 0.0207144 0.015634 0.00111661 0.0141412 -0.0063092 5.48895e-06 -3.48311e-06 -1.19005e-05 0.0005 1.46608e-07 
171 1 0.0140669 0.0179675 0.0158184 0.00253853 -0.00392907 -0.00321465 3.44714e-06 -1.14186e-05 -3.66399e-07 0.0005 1.46608e-07 
172 1 0.0200271 0.0228002 0.014914 0.00768274 0.00167422 -0.00343561 7.81705e-06 6.10281e-06 5.67944e-06 0.0005 1.46608e-07 
173 1 0.0152653 0.0183956 0.0158945 0.010507 0.0089956 -4.05588e-05 0 0 -1.43822e-06 0.0005 1.46608e-07 
174 1 0.018581 0.0242336 0.0167558 0.00127146 -0.00192198 -0.0014943 -8.21392e-07 -4.30614e-07 7.14098e-07 0.0005 1.46608e-07 
175 1 0.0174586 0.0242093 0.0172416 -0.000121279 -0.00169253 -0.00035741 5.88332e-07 -4.47329e-06 -2.4808e-06 0.0005 1.46608e-07 
176 1 0.0188056 0.02277 0.014087 0.0031302 0.0025342 -0.00367172 6.73383e-07 -3.18973e-06 3.9289e-06 0.0005 1.46608e-07 
177 1 0.0228131 0.0225686 0.0164867 0.00854167 -0.0271604 -0.0340982 0 0 -1.43822e-06 0.0005 1.46608e-07 
178 1 0.0233222 0.0222086 0.0173448 0.00788112 -0.0590203 -0.066983 0 0 -1.43822e-06 0.0005 1.46608e-07 
179 1 0.0208104 0.0185825 0.0159201 -9.70371e-07 0.0204181 0.00206704 -6.31177e-10 1.14437e-08 -1.21466e-08 0.0005 1.46608e-07 
180 1 0.022149 0.0200835 0.0166453 -3.6259e-09 0.0242371 -0.00473153 -6.70831e-15 -3.12172e-09 -1.65476e-08 0.0005 1.46608e-07 
181 1 0.0177295 0.0239507 0.0163145 -0.000213418 0.000686609 0.000233095 1.49843e-06 1.24173e-06 -1.28936e-06 0.0005 1.46608e-07 
182 1 0.0147844 0.0220751 0.01712 0.000919323 0.000635906 -3.60129e-05 1.66517e-07 2.12259e-07 1.60229e-06 0.0005 1.46608e-07 
183 1 0.0198384 0.0231729 0.0162482 -0.00389245 0.00466724 -0.00128606 -8.71674e-07 -5.74818e-07 5.19846e-07 0.0005 1.46608e-07 
184 1 0.0154041 0.0232057 0.0185855 0.0649998 0.00971108 -0.0420688 0 0 -1.43822e-06 0.0005 1.46608e-07 
185 1 0.0222858 0.0149823 0.0162705 -0.00353048 0.00425544 -0.010881 -2.01619e-08 2.75012e-07 -9.77811e-07 0.0005 1.46608e-07 
186 1 0.0210648 0.0149852 0.0156272 -0.0127359 0.0108429 -0.00985401 -1.24028e-07 -1.06106e-07 3.62875e-08 0.0005 1.46608e-07 
187 1 0.0232199 0.0212156 0.00803226 0.00150395 -0.0153532 -0.0095275 9.27076e-08 -4.01806e-08 4.87434e-09 0.0005 1.46608e-07 
188 1 0.0185187 0.0143933 0.0152596 0.00634308 0.00152837 -0.00507809 -1.67254e-07 2.99548e-07 -1.05917e-06 0.0005 1.46608e-07 
189 1 0.013994 0.0216841 0.0165796 -0.00117902 0.000904144 -0.000792269 3.33696e-06 -2.48695e-06 -2.05966e-06 0.0005 1.46608e-07 
190 1 0.0250015 0.0212881 0.0152541 0.00173732 0.00527543 -0.00380234 9.75886e-06 -8.88919e-05 5.94631e-05 0.0005 1.46608e-07 
191 1 0.018079 0.0210652 0.0163795 -0.00515649 0.00680203 -0.00360897 1.96365e-06 2.29183e-06 -9.5254e-07 0.0005 1.46608e-07 
192 1 0.0160631 0.0146284 0.0136205 -0.00177688 0.00335246 -0.00310649 -2.02827e-06 4.41079e-07 5.46601e-07 0.0005 1.46608e-07 
193 1 0.0227559 0.0158915 0.0165393 0.00759164 0.00116925 -0.000447 0 0 -1.43822e-06 0.0005 1.46608e-07 
194 1 0.0224089 0.0144272 0.0143454 -1.9855e-05 0.00106099 -0.00183255 -2.52737e-07 2.57159e-07 -8.0042e-07 0.0005 1.46608e-07 
195 1 0.0211736 0.0212567 0.0155483 0.00603246 0.00431352 0.00235627 -4.61021e-07 5.5399e-06 1.2478e-05 0.0005 1.46608e-07 
196 1 0.0143142 0.0169988 0.0154435 -0.00209932 0.00611927 0.00247226 9.58862e-08 1.69988e-07 1.83347e-07 0.0005 1.46608e-07 
197 1 0.0226502 0.0172586 0.0164172 2.12061e-06 0.0231228 0.00844321 4.66429e-08 3.39887e-08 -2.59099e-10 0.0005 1.46608e-07 
198 1 0.0216522 0.0167315 0.0161958 0.000347848 0.013561 0.0112407 -3.10402e-07 4.32633e-08 -3.22796e-08 0.0005 1.46608e-07 
200 1 0.0248959 0.0197068 0.0167513 -0.000194951 0.0248684 -0.00291688 1.80456e-07 -1.19339e-07 4.14177e-07 0.0005 1.46608e-07 
201 1 0.0223421 0.0155026 0.0142996 0.00347312 0.0161973 -0.00666576 -6.18456e-07 -2.09512e-07 2.05975e-07 0.0005 1.46608e-07 
202 1 0.0135935 0.0215698 0.0151798 0.00675599 0.014017 -0.00315286 -5.28602e-06 1.58132e-05 2.59269e-05 0.0005 1.46608e-07 
203 1 0.0196625 0.0194099 0.0159452 0.0012272 0.0168967 -0.000917065 2.13514e-06 -3.43993e-06 -2.37519e-07 0.0005 1.46608e-07 
204 1 0.0226179 0.0150537 0.0172116 -0.0238372 -0.0173528 -0.00220089 0 0 -1.43822e-06 0.0005 1.46608e-07 
205 1 0.0188421 0.0161577 0.0158929 0.000118957 0.00169922 -0.000355876 -1.89503e-10 -9.07032e-08 -4.24696e-08 0.0005 1.46608e-07 
206 1 0.0231944 0.0182709 0.0166985 -2.86353e-09 0.024463 0.0036736 9.31948e-14 2.50908e-09 -1.66811e-08 0.0005 1.46608e-07 
207 1 0.0220762 0.0230811 0.0160178 -0.0102969 0.00640453 -0.00586922 0 0 -1.43822e-06 0.0005 1.46608e-07 
208 1 0.0148281 0.0159007 0.0146482 -0.00363382 0.00801438 0.00893965 3.50147e-07 -2.87409e-08 1.64128e-08 0.0005 1.46608e-07 
209 1 0.0206465 0.019578 0.0159432 0.00286802 0.00967141 -0.000126773 2.82247e-06 2.08053e-06 1.92475e-06 0.0005 1.46608e-07 
210 1 0.0154174 0.020184 0.0157897 0.000965238 0.0200653 -0.00546721 -1.29774e-05 1.28056e-05 -4.38648e-07 0.0005 1.46608e-07 
211 1 0.0234679 0.016358 0.0160123 0.00243344 0.0165179 0.00987097 -2.39763e-07 -3.51775e-08 -1.38383e-08 0.0005 1.46608e-07 
212 1 0.0169686 0.014207 0.0134168 0.00266923 -7.93516e-05 -0.00157322 -1.45478e-07 -5.68619e-09 1.00885e-07 0.0005 1.46608e-07 
213 1 0.0210451 0.0145498 0.0165273 -0.0145018 0.006657 -0.0114876 -3.51082e-08 3.61276e-08 -1.1371e-06 0.0005 1.46608e-07 
214 1 0.0140392 -0.00346224 0.054392 -0.115959 -0.245954 0.190041 0 0 -1.43822e-06 0.0005 1.46608e-07 
215 1 0.0185944 0.0145897 0.0142809 0.00841673 0.00837062 0.0130114 -4.97416e-07 -1.21997e-07 8.33667e-07 0.0005 1.46608e-07 
216 1 0.013855 0.0207032 0.0166179 0.00903942 -0.00305324 -0.00154523 5.96294e-06 -1.39918e-05 4.545e-06 0.0005 1.46608e-07 
217 1 0.0237429 0.0166063 0.0169464 0.00932382 0.01611 0.00877576 0 0 -1.43822e-06 0.0005 1.46608e-07 
218 1 0.0252577 0.0209572 0.0169526 0.0110088 0.0141949 0.000106777 1.22283e-05 -1.1383e-05 -1.91214e-05 0.0005 1.46608e-07 
219 1 0.0160958 0.0154842 0.0141495 -0.00150761 -8.43518e-05 0.000571009 4.54698e-08 -3.25868e-07 -3.98666e-07 0.0005 1.46608e-07 
220 1 0.0152427 0.0151919 0.0137163 -0.00263499 0.00170285 0.00119722 -1.24191e-06 5.17831e-07 1.22589e-06 0.0005 1.46608e-07 
221 1 0.0211443 0.0159656 0.0154165 0.00269859 0.0125694 0.00470065 2.07618e-06 5.1002e-07 2.51988e-06 0.0005 1.46608e-07 
222 1 0.0128626 0.0208923 0.0164734 0.00477805 0.00874036 -0.000396906 0 0 -1.43822e-06 0.0005 1.46608e-07 
223 1 0.0149684 0.0219786 0.0148496 0.00364424 0.00310164 -0.00407207 -3.48144e-07 1.3752e-06 -1.05928e-06 0.0005 1.46608e-07 
224 1 0.0182954 0.0236667 0.0155307 -0.000758704 0.000543925 0.000137474 5.49632e-07 -5.29246e-08 -3.85577e-07 0.0005 1.46608e-07 
225 1 0.0171347 0.0211418 0.0167129 -0.00992497 -0.00120898 -0.003199 0 0 -1.43822e-06 0.0005 1.46608e-07 
226 1 0.0164501 0.0223372 0.016712 0.00451638 0.0010477 0.000248812 4.3423e-07 3.47808e-07 1.66466e-07 0.0005 1.46608e-07 
227 1 0.0215828 0.0175298 0.0204876 0 -0 -0.03 0 0 0 0.0005 1.46608e-07 
228 1 0.0178935 0.0221765 0.0167495 0.0122507 0.0327012 -0.0076998 0 0 -1.43822e-06 0.0005 1.46608e-07 
229 1 0.0148866 0.020496 0.0166543 0.00129251 1.13624e-05 0.0010244 -1.0742e-06 1.38045e-06 -6.80287e-07 0.0005 1.46608e-07 
230 1 0.017829 0.0170462 0.0191005 0 -0 -0.03 0 0 0 0.0005 1.46608e-07 
231 1 0.0216176 0.0179817 0.0158293 4.8277e-05 0.0200757 0.00481272 3.55892e-07 2.67686e-07 7.06278e-08 0.0005 1.46608e-07 
232 1 0.0191783 0.0221719 0.0219709 0 -0 -0.03 0 0 0 0.0005 1.46608e-07 
233 1 0.0191003 0.0176842 0.0166067 -2.40807e-09 0.0240068 0.00661954 -1.74882e-14 4.67501e-09 -1.63495e-08 0.0005 1.46608e-07 
234 1 0.0170721 0.0225619 0.0153997 0.00090983 0.000774435 -0.000399164 -2.54342e-06 -8.26623e-07 -1.71394e-07 0.0005 1.46608e-07 
235 1 0.0193669 0.0231578 0.0207461 0 -0 -0.03 0 0 0 0.0005 1.46608e-07 
236 1 0.0171385 0.0198365 0.023434 0 -0 -0.03 0 0 0 0.0005 1.46608e-07 
237 1 0.0220084 0.019851 0.0193627 0 -0 -0.03 0 0 0 0.0005 1.46608e-07 
238 1 0.0200309 0.0219762 0.0229268 0 -0 -0.03 0 0 0 0.0005 1.46608e-07 
239 1 0.0165547 0.00935499 0.0416756 -0.0267278 -0.0590689 0.00129165 0 0 -1.43822e-06 0.0005 1.46608e-07 
240 1 0.0211471 0.0231398 0.0177414 0.0374779 0.0210088 0.0456461 0 0 -1.43822e-06 0.0005 1.46608e-07 
241 1 0.0206947 0.0232319 0.0199239 0 -0 -0.03 0 0 0 0.0005 1.46608e-07 
242 1 0.0171541 0.0151369 0.0189662 0 -0 -0.03 0 0 0 0.0005 1.46608e-07 
243 1 0.0193139 0.0185347 0.0191922 0 -0 -0.03 0 0 0 0.0005 1.46608e-07 
244 1 0.0229379 0.0181772 0.0224587 0 -0 -0.03 0 0 0 0.0005 1.46608e-07 
245 1 0.0157168 0.0192946 0.0216796 0 -0 -0.03 0 0 0 0.0005 1.46608e-07 
246 1 0.0175587 0.0243872 0.0182203 -0.00558236 -0.0162752 0.00201873 -8.17666e-07 4.57001e-06 3.94346e-06 0.0005 1.46608e-07 
247 1 0.0157582 0.0206978 0.0196347 0 -0 -0.03 0 0 0 0.0005 1.46608e-07 
248 1 0.0196655 0.0162549 0.0193447 0 -0 -0.03 0 0 0 0.0005 1.46608e-07 
249 1 0.0184883 0.0202613 0.0202301 0 -0 -0.03 0 0 0 0.0005 1.46608e-07 
250 1 0.0173648 0.0186375 0.0215452 0 -0 -0.03 0 0 0 0.0005 1.46608e-07 
251 1 0.0163649 0.0231021 0.0160737 0.00147055 -0.000241972 -0.000876734 -2.85067e-06 -7.32827e-07 -7.77752e-07 0.0005 1.46608e-07 
252 1 0.0208702 0.0219483 0.020096 0 -0 -0.03 0 0 0 0.0005 1.46608e-07 
253 1 0.0228691 0.0213843 0.0162017 -0.00127709 0.0102082 0.00475655 0 0 -1.43822e-06 0.0005 1.46608e-07 