ITEM: TIMESTEP
3400000
ITEM: NUMBER OF ATOMS
233
ITEM: BOX BOUNDS ff ff ff
-0.02 0.43
-0.02 0.06
-0.02 0.07
ITEM: ATOMS id type x y z vx vy vz fx fy fz radius mass 
1 1 0.0198206 0.0220947 0.0157839 0.00199034 -4.74119e-05 0.00174043 3.18069e-07 1.76639e-06 -5.42547e-07 0.0005 1.46608e-07 
2 1 0.0182574 0.0240904 0.0126894 0.00025403 -0.000840849 -0.000537705 1.19409e-08 1.14994e-08 -2.89919e-08 0.0005 1.46608e-07 
4 1 0.0197006 0.0214105 0.00782585 0.00134614 -0.0150761 -0.00894764 -9.18849e-08 -3.55003e-07 -1.26721e-07 0.0005 1.46608e-07 
6 1 0.0180475 0.0221079 0.0157663 0.00235662 -0.00162171 0.00134351 2.44836e-07 -1.1613e-06 -3.1663e-06 0.0005 1.46608e-07 
7 1 0.0212564 0.0209788 0.0156956 0.000431324 0.0174168 -0.00628936 3.40514e-07 -4.80071e-07 -4.00102e-06 0.0005 1.46608e-07 
8 1 0.0224368 0.0228989 0.0136728 0.00489203 0.00377266 -0.00710772 1.86554e-07 6.74083e-07 -2.16261e-06 0.0005 1.46608e-07 
9 1 0.0212128 0.02394 0.0130075 0.000413796 0.000935654 -0.0011361 -3.35954e-08 6.8733e-08 2.89359e-07 0.0005 1.46608e-07 
10 1 0.0184093 0.0230658 0.0148965 0.00150127 -0.000998607 -0.00167032 2.10334e-06 9.39087e-07 -8.09382e-07 0.0005 1.46608e-07 
11 1 0.0200105 0.0238955 0.0156414 0.000339247 -0.000211286 -0.000629016 4.00714e-07 -8.30369e-07 1.40209e-06 0.0005 1.46608e-07 
12 1 0.0230042 0.021675 0.0150956 0.00321363 0.0082422 -0.00465203 -2.44686e-06 2.1293e-06 -1.83385e-06 0.0005 1.46608e-07 
13 1 0.020638 0.0239388 0.0146397 -0.000367964 0.000569579 -0.000291235 2.4541e-06 -4.85197e-07 -1.58439e-07 0.0005 1.46608e-07 
14 1 0.018984 0.0242478 0.0131126 4.97153e-05 0.000358633 -0.000409695 -3.5756e-09 1.09128e-08 5.98486e-09 0.0005 1.46608e-07 
15 1 0.0214408 0.0233722 0.0147908 0.0012206 0.00494134 0.000416571 1.0685e-06 -7.22763e-07 6.18223e-06 0.0005 1.46608e-07 
16 1 0.021945 0.0178353 0.0157732 0.000402175 0.0203496 0.00578752 1.81671e-09 9.84098e-09 -1.48315e-08 0.0005 1.46608e-07 
17 1 0.0219754 0.0236725 0.0134607 0.000175313 0.000697027 -0.000853565 5.74659e-07 -4.8975e-08 -5.59194e-07 0.0005 1.46608e-07 
18 1 0.0240865 0.0166826 0.00789009 0.000606261 -0.016678 0.0110056 -2.0716e-09 -3.45561e-09 1.38738e-08 0.0005 1.46608e-07 
19 1 0.0196148 0.0245041 0.013612 -5.11008e-06 7.29129e-05 -6.87892e-05 2.706e-08 3.7513e-09 -2.18316e-08 0.0005 1.46608e-07 
20 1 0.0402891 0.0167947 0.00659266 9.38143e-16 -8.55261e-15 -2.18636e-14 3.14064e-20 6.67038e-21 8.47033e-22 0.0005 1.46608e-07 
21 1 0.0240304 0.0193885 0.0167427 -0.0002278 0.0221424 -0.00183533 -1.14831e-07 -4.36462e-07 -5.43587e-07 0.0005 1.46608e-07 
22 1 0.0164187 0.0228532 0.0138258 0.00306075 0.000176251 0.000542585 -1.35129e-06 2.1872e-07 5.11243e-08 0.0005 1.46608e-07 
23 1 0.0173275 0.0240377 0.0129142 -3.45415e-05 0.000725112 -0.00103151 -5.13125e-08 -2.58049e-08 -1.24629e-07 0.0005 1.46608e-07 
24 1 0.0183876 0.0146257 0.0119316 0.00040481 -0.000619836 0.00102167 2.1531e-07 2.73384e-09 2.64705e-08 0.0005 1.46608e-07 
25 1 0.0199796 0.0212502 0.0162953 0.00601388 -0.00116399 0.000439253 -3.28526e-07 1.16503e-06 -8.33906e-07 0.0005 1.46608e-07 
26 1 0.0210632 0.021717 0.0150534 0.00124859 0.0127166 -0.00973803 -8.20724e-07 1.29862e-06 -7.80576e-07 0.0005 1.46608e-07 
27 1 0.0181584 0.0230932 0.0158976 0.00252384 0.00195132 -0.0074654 0 0 -1.43822e-06 0.0005 1.46608e-07 
28 1 0.0199392 0.0174886 0.0165289 -0.000463591 0.0113175 0.00190888 2.79838e-08 2.31345e-07 -3.84706e-07 0.0005 1.46608e-07 
29 1 0.0156104 0.0236691 0.0147561 -0.00227612 0.00342752 -0.0015491 4.45706e-07 -1.06849e-06 -1.93288e-06 0.0005 1.46608e-07 
30 1 0.0229403 0.0213621 0.0160436 -0.0042211 0.0132729 -0.00354219 5.3935e-07 2.5384e-06 -1.54697e-06 0.0005 1.46608e-07 
31 1 0.0155802 0.0152917 0.015239 0.00104928 0.00123379 -0.00147984 -1.23123e-07 1.74716e-07 -1.45762e-07 0.0005 1.46608e-07 
32 1 0.0234947 0.0151237 0.00970048 0.000440228 -0.00933009 0.0200998 -2.89119e-09 -9.145e-09 -7.40793e-08 0.0005 1.46608e-07 
33 1 0.0250024 0.0180317 0.00737329 -0.000548459 -0.0142558 0.00179167 9.00136e-10 4.19327e-09 -1.01732e-08 0.0005 1.46608e-07 
35 1 0.0296393 0.0184913 0.00583954 2.5161e-14 -2.45823e-16 2.95161e-13 0 -3.72231e-24 0 0.0005 1.46608e-07 
36 1 0.0205059 0.0243814 0.0137534 3.73399e-05 2.97639e-05 -2.03691e-05 5.42487e-08 -2.38065e-09 -1.27558e-07 0.0005 1.46608e-07 
37 1 0.023704 0.0156487 0.00885503 0.000309333 -0.0125811 0.0170096 -2.74894e-09 6.91464e-09 7.02079e-09 0.0005 1.46608e-07 
38 1 0.0204647 0.0144566 0.0140726 9.72407e-05 0.000540929 0.00164462 -6.01502e-07 -4.53645e-07 5.23431e-07 0.0005 1.46608e-07 
39 1 0.0181885 0.0152567 0.0151744 0.000763694 0.00350453 -0.00279727 1.80699e-07 6.96466e-07 3.04666e-07 0.0005 1.46608e-07 
40 1 0.0227433 0.0235386 0.0152361 0.000196148 0.000323324 0.000346199 -2.99804e-08 -1.90873e-07 1.71225e-07 0.0005 1.46608e-07 
41 1 0.0180147 0.0238086 0.0134067 -6.56705e-05 0.000169921 -0.00142821 -4.22364e-08 4.13663e-08 -6.64208e-08 0.0005 1.46608e-07 
43 1 0.0212272 0.0148123 0.0146128 -0.000155253 0.00193177 0.00030391 -3.20507e-07 5.23467e-08 6.29823e-07 0.0005 1.46608e-07 
45 1 0.0227853 0.022386 0.0144426 0.00376733 0.0061322 -0.00555872 5.75841e-07 3.17717e-06 -4.09742e-06 0.0005 1.46608e-07 
47 1 0.0229225 0.023423 0.0142838 -0.000170819 -0.000148072 0.00070077 -2.06182e-07 -5.05059e-07 2.51413e-07 0.0005 1.46608e-07 
48 1 0.023479 0.0195103 0.0159174 -7.09615e-05 0.0209002 -0.00183723 -1.13951e-07 -1.90434e-07 2.893e-07 0.0005 1.46608e-07 
50 1 0.0247224 0.0195477 0.00722346 0.000402152 -0.0188032 -0.00307076 3.16266e-09 1.51939e-08 1.31135e-08 0.0005 1.46608e-07 
51 1 0.0208247 0.0224312 0.0144249 0.00167237 0.0105374 -0.0110921 1.08818e-06 2.96135e-06 2.33593e-06 0.0005 1.46608e-07 
52 1 0.020639 0.0237893 0.0122725 0.000123461 0.00154864 -0.00385907 3.78964e-07 -2.66687e-07 -3.63599e-07 0.0005 1.46608e-07 
53 1 0.027062 0.0213991 0.0150381 0.00177548 0.0124369 -0.00961427 -2.57874e-07 1.25879e-06 -9.23665e-07 0.0005 1.46608e-07 
54 1 0.0182651 0.0244758 0.0137913 2.92867e-05 4.6036e-05 -0.000439223 -8.39092e-08 1.03301e-07 -8.50484e-08 0.0005 1.46608e-07 
55 1 0.0159199 0.0229371 0.015703 0.000938779 -0.00177451 0.000214427 -3.19551e-06 -3.8511e-06 -8.8824e-07 0.0005 1.46608e-07 
56 1 0.0182085 0.0186848 0.0167246 0.00340876 0.0221785 0.00164374 -2.73024e-07 1.79154e-07 1.45437e-08 0.0005 1.46608e-07 
57 1 0.0173 0.0243766 0.0139244 6.69799e-05 -0.000367916 -8.31977e-05 -4.38757e-07 1.80657e-06 -2.41338e-06 0.0005 1.46608e-07 
58 1 0.0201272 0.0234353 0.0115115 0.00287298 -0.00150799 -0.0114554 -3.79968e-08 4.17387e-08 -4.67314e-08 0.0005 1.46608e-07 
59 1 0.0186862 0.0178042 0.0165788 2.04053e-09 0.0238967 0.0058246 8.25016e-15 3.93869e-09 -1.62923e-08 0.0005 1.46608e-07 
61 1 0.0162094 0.0234556 0.0168306 -0.00218882 -0.00576287 -0.00475429 4.18224e-07 -1.14859e-07 -8.41549e-07 0.0005 1.46608e-07 
62 1 0.0213637 0.0242753 0.0140418 0.000165807 0.000268233 -0.000175758 -1.41947e-08 -3.22112e-07 2.27134e-07 0.0005 1.46608e-07 
63 1 0.022154 0.0239249 0.0143893 0.000487256 0.00115793 -0.000521093 -5.5968e-07 -1.43624e-06 6.82415e-07 0.0005 1.46608e-07 
64 1 0.0195752 0.0147166 0.0144479 -0.000628892 0.000552409 -0.000829934 -4.77721e-07 -2.06801e-07 3.4401e-07 0.0005 1.46608e-07 
65 1 0.02364 0.0149486 0.0152604 -0.000257913 0.000377957 -0.00106175 -1.10903e-07 1.84269e-07 -7.58848e-07 0.0005 1.46608e-07 
66 1 0.0145191 0.0158337 0.015659 -0.00100742 0.00320683 0.00214691 -2.95369e-09 -1.24416e-07 -7.91976e-08 0.0005 1.46608e-07 
68 1 0.0231617 0.0204431 0.0157173 -0.000113791 0.0197221 -0.00636312 -5.75805e-07 -2.80784e-06 -6.41054e-07 0.0005 1.46608e-07 
69 1 0.0175073 0.0194445 0.015928 0.00479266 0.00120883 0.000937453 -2.30002e-07 1.11202e-06 -1.98619e-07 0.0005 1.46608e-07 
71 1 0.0194407 0.0192213 0.0167442 0.00497072 0.0126921 -0.000939484 -3.74265e-07 9.27579e-07 3.11868e-09 0.0005 1.46608e-07 
72 1 0.013651 0.0184024 0.0167162 0.00403422 0.00389639 0.00171325 -2.47926e-07 -2.08852e-06 6.4443e-07 0.0005 1.46608e-07 
73 1 0.0246937 0.0221913 0.0162467 -0.000241448 -0.00049304 -0.000209685 4.75169e-09 -1.09155e-09 2.11987e-08 0.0005 1.46608e-07 
75 1 0.0249792 0.0190726 0.0167494 0.000463541 0.0245591 -9.45051e-05 -6.50767e-07 1.78866e-07 8.06628e-08 0.0005 1.46608e-07 
76 1 0.0211666 0.0226313 0.01538 0.00154786 0.00531867 -0.00284703 -7.77596e-07 1.07084e-06 3.99765e-06 0.0005 1.46608e-07 
78 1 0.0173332 0.022637 0.0153085 0.00295669 -0.000870767 0.000258904 1.10901e-06 -2.31083e-06 -4.14062e-07 0.0005 1.46608e-07 
79 1 0.027735 0.0185053 0.0157895 0.000883761 0.017928 0.00266662 -7.62653e-09 -1.25136e-09 -2.49051e-08 0.0005 1.46608e-07 
80 1 0.0165576 0.0231697 0.0149709 0.000833512 -0.000205714 0.000365531 3.25886e-06 4.16632e-06 2.21329e-06 0.0005 1.46608e-07 
84 1 0.017777 0.0225286 0.0166321 0.00123211 0.00160941 -0.000341939 -4.40279e-07 -9.28063e-09 3.61632e-06 0.0005 1.46608e-07 
85 1 0.0166098 0.0237755 0.013534 0.000887508 0.000128756 -0.000315816 -8.57825e-07 1.8144e-07 9.34329e-08 0.0005 1.46608e-07 
86 1 0.022488 0.0196438 0.0159027 -0.000195089 0.0169113 -0.00174092 6.63593e-06 2.7933e-06 1.32612e-06 0.0005 1.46608e-07 
87 1 0.0222277 0.0166305 0.0152441 0.000474924 0.0177761 0.0113051 7.38199e-09 -5.01739e-09 -2.11004e-08 0.0005 1.46608e-07 
88 1 0.0147992 0.0234508 0.0152981 0.000658726 -0.000858679 0.00110616 1.53533e-06 -1.58604e-06 1.06487e-06 0.0005 1.46608e-07 
89 1 0.0163054 0.0189753 0.0167424 0.0061046 0.00408087 0.0012121 1.18227e-06 2.37888e-06 8.17284e-07 0.0005 1.46608e-07 
90 1 0.021954 0.0220924 0.014908 0.00263979 0.00948346 -0.00576912 -1.85883e-06 4.36927e-06 -2.91623e-06 0.0005 1.46608e-07 
91 1 0.0236735 0.018511 0.015912 0.000672633 0.0212911 0.00269325 1.61751e-07 6.83357e-08 -2.08027e-08 0.0005 1.46608e-07 
92 1 0.0165842 0.0182491 0.0158803 -0.00429247 0.00947611 0.00094746 1.94446e-07 3.22005e-07 -7.41514e-08 0.0005 1.46608e-07 
93 1 0.0194613 0.0223275 0.008783 -1.46852e-05 -0.0134846 -0.0180577 6.4845e-09 -1.75195e-08 -2.74294e-09 0.0005 1.46608e-07 
95 1 0.0188162 0.0143838 0.0150074 0.00142531 -0.00113632 0.000555317 -1.02182e-06 2.83116e-07 1.07807e-07 0.0005 1.46608e-07 
97 1 0.0274168 0.0197561 0.0157641 0.000879268 0.0161802 -0.0033988 -1.25916e-08 1.0459e-07 -4.45129e-08 0.0005 1.46608e-07 
98 1 0.0165138 0.0221405 0.0155945 0.00284799 -4.23518e-05 3.06976e-05 9.51903e-07 -9.2891e-07 5.67042e-06 0.0005 1.46608e-07 
101 1 0.0190541 0.0242045 0.0143178 -9.84385e-05 0.000159733 -0.000637989 -1.43849e-08 2.41906e-08 1.38272e-08 0.0005 1.46608e-07 
102 1 0.0198863 0.0160642 0.0158108 0.000678628 0.00418769 0.00308843 -7.07014e-08 1.48634e-08 -1.54305e-08 0.0005 1.46608e-07 
103 1 0.0131063 0.021189 0.0163161 -3.21622e-05 -0.0012001 -0.000727381 -7.751e-08 1.58442e-07 1.36368e-07 0.0005 1.46608e-07 
104 1 0.0168319 0.0223326 0.0145053 0.00468711 -0.000222559 0.00150058 1.69332e-08 -1.20006e-06 -2.83133e-06 0.0005 1.46608e-07 
105 1 0.0164989 0.0240328 0.0144774 -0.000274144 -0.000286373 -0.000557284 8.70158e-07 8.97738e-07 -5.08893e-07 0.0005 1.46608e-07 
106 1 0.0217716 0.0220357 0.0159136 0.00743924 -0.00474436 -0.0071474 0 0 -1.43822e-06 0.0005 1.46608e-07 
108 1 0.0257469 0.0230889 0.00997789 0.00152208 -0.0027443 -0.0101894 3.63607e-08 8.00391e-08 1.2348e-07 0.0005 1.46608e-07 
109 1 0.0192125 0.0216955 0.00814013 -0.000251888 -0.0150692 -0.0121996 -8.91173e-09 -8.74486e-08 -3.93584e-08 0.0005 1.46608e-07 
110 1 0.0216833 0.02262 0.0141251 0.00346215 0.00592281 -0.0085356 5.82278e-07 3.09479e-06 -6.90026e-07 0.0005 1.46608e-07 
111 1 0.0230236 0.0171607 0.0155359 0.000617163 0.0191799 0.0083913 -2.94396e-09 4.7655e-09 -1.96682e-08 0.0005 1.46608e-07 
112 1 0.0205101 0.01406 0.0131559 0.000528863 -0.000968209 0.0023978 1.13255e-07 -5.41709e-09 3.94712e-07 0.0005 1.46608e-07 
114 1 0.0205786 0.0228981 0.0136365 0.000260238 0.00628503 -0.01298 3.84503e-08 -9.12003e-08 -8.07045e-07 0.0005 1.46608e-07 
115 1 0.0153686 0.0217564 0.0156926 0.00535825 -0.00154327 -0.000593923 -1.03461e-06 -2.17055e-06 2.1406e-07 0.0005 1.46608e-07 
116 1 0.0174212 0.023618 0.0152719 0.000949383 -0.000276472 -6.09061e-05 -1.29492e-06 -1.77324e-06 1.07584e-06 0.0005 1.46608e-07 
117 1 0.0191185 0.0163355 0.0163912 -0.00417218 0.0169305 -0.00902189 6.37835e-08 3.64728e-08 -4.41608e-07 0.0005 1.46608e-07 
118 1 0.0242129 0.0157941 0.015231 0.00132581 0.000157235 0.00207972 -2.60956e-07 6.09863e-08 -5.06543e-07 0.0005 1.46608e-07 
119 1 0.0146245 0.0202063 0.0166708 0.00561778 0.00199519 0.00192325 1.70374e-08 -1.05733e-07 -2.21904e-08 0.0005 1.46608e-07 
120 1 0.0157449 0.0187912 0.0159351 0.00106413 0.0181779 0.00100132 7.4379e-07 -5.86369e-07 3.85029e-07 0.0005 1.46608e-07 
121 1 0.0209485 0.0235535 0.015646 0.000560693 0.00127613 0.000226483 2.11398e-07 4.09056e-07 2.3475e-06 0.0005 1.46608e-07 
123 1 0.0239231 0.0175672 0.0156953 0.000350311 0.0201999 0.00724833 -2.1209e-08 1.36735e-08 -2.75993e-08 0.0005 1.46608e-07 
124 1 0.0227916 0.0227366 0.00930021 0.000215592 -0.00244965 -0.00487193 -5.37386e-09 -2.58528e-08 -7.81456e-08 0.0005 1.46608e-07 
125 1 0.0262505 0.0233304 0.0120692 0.000670929 0.0033833 -0.0231267 -1.26932e-08 3.45825e-08 -1.13586e-09 0.0005 1.46608e-07 
126 1 0.017291 0.0234971 0.0142511 -0.000118739 -0.00192634 0.000302898 2.11946e-06 5.67919e-06 -1.00561e-05 0.0005 1.46608e-07 
127 1 0.0243462 0.0207746 0.0164594 0.00460931 0.0052447 -0.00232738 2.78845e-06 -1.19593e-06 -4.36348e-07 0.0005 1.46608e-07 
128 1 0.0236279 0.0157064 0.0144247 0.000240839 0.00250279 0.00252872 -4.16661e-07 -2.6663e-07 -3.64792e-07 0.0005 1.46608e-07 
129 1 0.0189399 0.0157752 0.0155825 0.00115068 -0.000146635 0.000933775 -1.06262e-07 -1.30192e-07 -5.1121e-08 0.0005 1.46608e-07 
131 1 0.0209972 0.0205489 0.0165605 -0.000462261 0.021135 -0.000927556 0 0 -1.43822e-06 0.0005 1.46608e-07 
132 1 0.0168295 0.022701 0.01636 0.00196868 0.000493076 -0.000838692 -1.33995e-07 9.66214e-07 -7.64218e-08 0.0005 1.46608e-07 
133 1 0.0191814 0.0236492 0.0151424 0.000980939 -0.0012244 -0.00183268 9.95023e-07 1.01653e-06 -1.59965e-06 0.0005 1.46608e-07 
135 1 0.0207687 0.0218252 0.0160147 -0.00634864 0.0204351 -0.0293456 0 0 -1.43822e-06 0.0005 1.46608e-07 
136 1 0.0169186 0.0208203 0.0165777 -0.000990927 0.00468248 -0.00426302 0 0 -1.43822e-06 0.0005 1.46608e-07 
138 1 0.0126305 0.018459 0.0167181 0.0013573 0.00172768 0.00136564 9.62013e-08 -5.58412e-07 -1.92247e-07 0.0005 1.46608e-07 
139 1 0.0191031 0.019021 0.00715996 0.00196865 -0.0108616 -0.00110808 -2.82217e-09 7.02043e-09 5.60287e-10 0.0005 1.46608e-07 
140 1 0.0259603 0.0233696 0.0109099 0.00121865 -0.00148647 -0.016421 1.84536e-08 6.54296e-08 5.8368e-07 0.0005 1.46608e-07 
141 1 0.0171952 0.0217081 0.016185 0.00373389 -0.00193029 -0.00279312 9.313e-08 -9.5071e-08 -1.12531e-06 0.0005 1.46608e-07 
142 1 0.0234277 0.0175715 0.0165638 0.000136883 0.0213257 0.00711259 -1.34361e-08 3.14084e-08 -8.63283e-09 0.0005 1.46608e-07 
143 1 0.0252084 0.0213571 0.0161391 -0.00166999 -0.00231356 -0.00170947 2.97239e-08 7.36453e-08 -8.53519e-08 0.0005 1.46608e-07 
144 1 0.019479 0.014464 0.0157518 0.0110576 0.00733504 -0.008921 -4.85266e-07 3.24468e-07 -9.40369e-07 0.0005 1.46608e-07 
145 1 0.0178259 0.0159345 0.00850248 0.000385289 -0.0143776 0.0150325 -3.35787e-09 6.42239e-10 1.32961e-08 0.0005 1.46608e-07 
147 1 0.0224928 0.0157344 0.0144592 0.00121496 0.0113731 0.0122677 1.74513e-06 1.5657e-06 -2.74838e-06 0.0005 1.46608e-07 
148 1 0.0243535 0.0153238 0.00930026 0.000614309 -0.0114287 0.0180908 -8.02644e-09 7.77487e-09 2.39283e-09 0.0005 1.46608e-07 
149 1 0.0253099 0.0175887 0.0165374 -1.86811e-09 0.0236631 0.00702436 -1.3812e-14 4.91388e-09 -1.61002e-08 0.0005 1.46608e-07 
150 1 0.022432 0.0176405 0.0166245 -9.35182e-05 0.0189758 0.00576222 -3.97698e-08 7.16489e-10 1.23071e-08 0.0005 1.46608e-07 
151 1 0.020137 0.0232769 0.0105949 9.21755e-05 -0.00113737 -0.00723442 3.6387e-09 3.42813e-08 4.01929e-08 0.0005 1.46608e-07 
152 1 0.0162483 0.0204623 0.0157119 0.00669921 0.00224343 -0.000519555 9.03212e-07 3.20242e-07 9.30057e-08 0.0005 1.46608e-07 
153 1 0.0203048 0.0151312 0.0149989 0.00311531 -0.00612056 0.00517312 0 0 -1.43822e-06 0.0005 1.46608e-07 
154 1 0.0233898 0.0224389 0.0161259 -0.000213351 -6.17323e-05 0.000382799 -5.12167e-08 1.47903e-06 -1.96378e-06 0.0005 1.46608e-07 
155 1 0.022212 0.0192506 0.01678 0.00210188 0.016392 0.00088165 2.04641e-07 -1.84955e-07 -9.75802e-07 0.0005 1.46608e-07 
156 1 0.0230734 0.0148744 0.0144136 0.00114617 0.00174206 -0.000900388 -5.48532e-07 -2.31468e-08 -5.29781e-07 0.0005 1.46608e-07 
157 1 0.0181053 0.0239675 0.0146335 0.000118231 -0.000211786 -0.000497931 2.76851e-06 2.07724e-07 2.82661e-07 0.0005 1.46608e-07 
158 1 0.0176958 0.0151939 0.0137054 0.00266959 0.00233953 0.00404318 -8.53989e-07 5.46209e-08 -4.03852e-07 0.0005 1.46608e-07 
161 1 0.0222591 0.0205869 0.0161435 -0.00345055 0.0145327 -0.00081693 -3.85901e-08 1.16356e-06 -1.79388e-06 0.0005 1.46608e-07 
162 1 0.0134982 0.0202309 0.0166422 -0.000958321 -0.000937185 0.0008301 -1.99489e-06 1.85465e-06 -2.03334e-08 0.0005 1.46608e-07 
163 1 0.0145583 0.021889 0.0163719 -3.57585e-05 -0.00100704 -0.000279245 1.38744e-06 -1.584e-06 -1.03628e-06 0.0005 1.46608e-07 
166 1 0.0153452 0.0146793 0.0144842 -7.74427e-05 0.000140824 -0.000192771 -1.51075e-07 1.66826e-07 -5.42745e-08 0.0005 1.46608e-07 
167 1 0.0204054 0.0235634 0.0130482 0.00166826 0.00268678 -0.00908574 6.21825e-09 1.70004e-07 -5.29336e-07 0.0005 1.46608e-07 
168 1 0.0147602 0.0226779 0.0140886 0.00396681 0.00147739 -0.00223096 -1.5285e-06 1.10176e-06 -3.24717e-07 0.0005 1.46608e-07 
169 1 0.0166985 0.0151571 0.0136438 0.00145064 0.00828229 0.0145606 2.61346e-07 -3.48713e-08 -1.2349e-06 0.0005 1.46608e-07 
170 1 0.0182879 0.0178092 0.00735087 0.00062532 -0.0178491 0.00575637 -9.26218e-09 -5.08745e-08 3.81185e-08 0.0005 1.46608e-07 
171 1 0.0152649 0.0211894 0.0165103 0.00410469 -0.0035991 0.00012364 0 0 -1.43822e-06 0.0005 1.46608e-07 
172 1 0.0222172 0.0144516 0.0141167 0.0011965 0.000694833 -7.77953e-05 -2.5498e-07 1.48471e-07 -1.70611e-07 0.0005 1.46608e-07 
173 1 0.0189712 0.0216541 0.0160741 0.00639661 -0.000330228 -0.000648065 3.95342e-06 2.88761e-06 -2.47174e-06 0.0005 1.46608e-07 
176 1 0.0206918 0.0195748 0.0167581 -4.25534e-07 0.024754 -0.00251078 2.20983e-08 1.6765e-08 -1.8149e-08 0.0005 1.46608e-07 
179 1 0.0165424 0.0151981 0.0146305 0.00503854 0.0083505 0.0150419 6.01688e-07 1.14848e-07 5.78192e-07 0.0005 1.46608e-07 
180 1 0.0248385 0.016373 0.0160178 -0.000536166 0.00881034 0.00630921 1.52997e-09 6.65913e-08 3.94663e-08 0.0005 1.46608e-07 
182 1 0.0164891 0.019514 0.0159196 0.00710522 0.0010743 0.000360829 -3.18937e-07 1.04593e-06 -2.3567e-07 0.0005 1.46608e-07 
183 1 0.016746 0.0219222 0.0170562 -0.0100849 -0.0219407 -0.00351292 0 0 -1.43822e-06 0.0005 1.46608e-07 
184 1 0.0180801 0.0212481 0.0162759 0.00380362 -0.00088416 0.00099658 -1.43154e-06 1.57359e-05 -8.17635e-07 0.0005 1.46608e-07 
185 1 0.0241423 0.0224687 0.0154895 -0.000218193 9.80416e-05 -7.17244e-05 1.55319e-07 1.31765e-07 -1.64526e-07 0.0005 1.46608e-07 
187 1 0.0254173 0.0222952 0.00879546 0.00187917 -0.0066345 -0.00669554 -8.18483e-09 1.93436e-08 -2.3527e-08 0.0005 1.46608e-07 
188 1 0.0208343 0.0157879 0.0156526 -2.46181e-05 0.00269445 0.000846608 -8.97828e-09 -1.28856e-07 -8.77046e-08 0.0005 1.46608e-07 
189 1 0.0149799 0.0226563 0.0158889 0.000653259 -0.00217359 0.000398871 -1.017e-06 -5.06228e-06 2.82613e-06 0.0005 1.46608e-07 
190 1 0.0267649 0.0221913 0.0141328 -0.000908167 0.0115833 -0.0116824 2.24352e-09 6.70303e-09 -1.21041e-09 0.0005 1.46608e-07 
192 1 0.0182084 0.0148342 0.0129008 -5.58641e-06 -0.000149406 -1.9116e-05 -9.93834e-08 -5.41607e-08 -2.33373e-07 0.0005 1.46608e-07 
193 1 0.0220731 0.0150714 0.0150788 -0.000412922 0.00221143 0.000711365 8.62889e-07 4.08594e-07 1.25407e-06 0.0005 1.46608e-07 
195 1 0.0153004 0.0207627 0.0156065 0.00588237 -0.00259898 -3.3844e-06 -9.68465e-07 -4.09567e-07 -9.62308e-07 0.0005 1.46608e-07 
196 1 0.018758 0.019704 0.00724049 0.000333609 -0.0200467 -0.00348166 -5.97633e-09 -6.16179e-09 9.5191e-09 0.0005 1.46608e-07 
197 1 0.019862 0.0236534 0.0140756 -4.27454e-05 2.76346e-06 -0.000183753 -1.02153e-08 1.11033e-08 1.77403e-08 0.0005 1.46608e-07 
200 1 0.0304879 0.0169274 0.00646272 -1.74851e-14 5.85776e-14 1.44068e-13 2.1962e-19 -1.927e-20 3.51519e-20 0.0005 1.46608e-07 
201 1 0.0201895 0.0230954 0.0148975 -0.0035225 0.00178922 -0.00233791 1.08397e-07 1.0993e-07 -8.87101e-08 0.0005 1.46608e-07 
202 1 0.0163628 0.0161517 0.0148762 0.00214564 0.00965373 0.00901242 -2.6765e-08 -2.44864e-08 -2.46525e-08 0.0005 1.46608e-07 
203 1 0.021689 0.0190449 0.0159529 0.00186094 0.0147666 0.000850239 -1.11543e-06 2.8972e-06 1.54329e-06 0.0005 1.46608e-07 
204 1 0.0259025 0.0228507 0.00935881 0.0018984 -0.00262965 -0.00569501 -1.26636e-07 9.88627e-09 -6.31073e-09 0.0005 1.46608e-07 
205 1 0.0181067 0.0162334 0.0149366 0.00153917 0.00488325 0.00470157 -5.35085e-08 -1.11203e-07 -7.57722e-08 0.0005 1.46608e-07 
206 1 0.01619 0.0141464 0.0145311 -0.000195346 8.57717e-05 0.00027707 5.17572e-08 1.15158e-08 -1.19623e-07 0.0005 1.46608e-07 
209 1 0.0232883 0.0147964 0.01079 3.80701e-05 -0.00508925 0.0183303 -2.82829e-09 4.54715e-08 5.29012e-10 0.0005 1.46608e-07 
211 1 0.0230379 0.020055 0.0166306 -0.00144628 0.0237228 -0.00374449 -1.97141e-07 6.03909e-08 -6.61214e-07 0.0005 1.46608e-07 
215 1 0.0177989 0.0203408 0.0165875 0.00479284 0.00278101 0.000768364 -5.14023e-06 -1.41624e-05 3.47871e-06 0.0005 1.46608e-07 
216 1 0.0187151 0.0140459 0.0139787 0.000224294 -0.000831991 0.000858272 4.57634e-08 -5.09693e-07 -1.31511e-07 0.0005 1.46608e-07 
217 1 0.0176815 0.0180404 0.0158265 -1.21761e-10 0.0199894 0.00458608 -2.9246e-16 2.98665e-09 -1.3317e-08 0.0005 1.46608e-07 
218 1 0.0252333 0.0216147 0.0168115 -0.000413652 -0.000950033 -0.000212397 8.64532e-10 1.37013e-09 -1.75355e-08 0.0005 1.46608e-07 
219 1 0.0219023 0.0232334 0.0156735 0.00025568 0.00186963 0.000135007 1.63677e-06 1.01969e-07 3.80069e-06 0.0005 1.46608e-07 
220 1 0.0158244 0.0222677 0.0164446 0.0113321 -0.00351411 0.0060888 0 0 -1.43822e-06 0.0005 1.46608e-07 
221 1 0.0214724 0.0200165 0.0158599 0.000390964 0.0165566 0.00267393 -3.06546e-06 7.95106e-07 -4.79568e-06 0.0005 1.46608e-07 
222 1 0.0141454 0.022696 0.0153437 0.000246245 -0.000892959 -0.000438799 -1.29572e-06 -1.20894e-06 1.3217e-06 0.0005 1.46608e-07 
223 1 0.0191147 0.0179809 0.00730705 0.000265088 -0.0154285 0.00472045 -1.30217e-09 -2.25757e-07 1.13377e-07 0.0005 1.46608e-07 
224 1 0.0225294 0.0151986 0.0159594 0.000134622 0.000480253 0.000688231 -1.03815e-07 -3.43846e-07 6.73291e-07 0.0005 1.46608e-07 
225 1 0.0167819 0.0141377 0.0137253 -4.42552e-05 -9.79793e-05 0.000577602 1.70824e-07 -1.03738e-08 1.96894e-07 0.0005 1.46608e-07 
226 1 0.0131885 0.0192877 0.0167616 -0.0017159 1.92998e-05 0.00233535 9.44429e-07 -3.78386e-08 -5.11623e-07 0.0005 1.46608e-07 
229 1 0.02021 0.0229871 0.016011 0.000571733 0.00138802 0.000329968 1.10845e-06 -1.33662e-06 -1.66678e-06 0.0005 1.46608e-07 
231 1 0.0242605 0.0178661 0.0073824 0.000180701 -0.0211631 0.00487701 -9.34895e-10 -1.90425e-09 8.39273e-09 0.0005 1.46608e-07 
232 1 0.0191308 0.0207508 0.0164729 0.00536197 0.00080274 0.00234426 -9.67152e-07 4.20829e-06 1.337e-06 0.0005 1.46608e-07 
233 1 0.0177482 0.0138865 0.0137802 0.000106035 4.59043e-05 1.11581e-05 9.00433e-08 -2.13922e-07 3.58188e-07 0.0005 1.46608e-07 
234 1 0.0202319 0.0228903 0.00959018 0.000220985 -0.00948594 -0.0183643 -1.29644e-09 -1.24572e-08 -1.95394e-09 0.0005 1.46608e-07 
235 1 0.0125009 0.0202976 0.0166157 -0.000311557 0.000229651 0.000740714 -9.5366e-07 -7.05782e-07 4.31198e-07 0.0005 1.46608e-07 
236 1 0.0151773 0.017757 0.0166289 -2.02625e-09 0.024187 0.00596408 -1.40879e-14 3.96464e-09 -1.65361e-08 0.0005 1.46608e-07 
237 1 0.0184118 0.0208942 0.0171533 0.0056441 0.00316145 3.42074e-06 0 0 -1.43822e-06 0.0005 1.46608e-07 
240 1 0.0184673 0.0155432 0.0142371 0.00633607 0.00148532 -0.000245933 7.16267e-10 2.11155e-10 -1.43664e-06 0.0005 1.46608e-07 
241 1 0.0222737 0.022718 0.0164464 0.00381737 -0.00151869 -0.0033393 0 0 -1.43822e-06 0.0005 1.46608e-07 
242 1 0.0212594 0.0231276 0.013241 0.00142742 0.00302323 -0.00668751 4.62868e-07 -1.51616e-08 4.34092e-07 0.0005 1.46608e-07 
243 1 0.0172319 0.0186781 0.01651 0.00373522 -0.000641893 -8.36549e-05 -4.09593e-07 6.84073e-07 -6.10564e-07 0.0005 1.46608e-07 
244 1 0.015523 0.0197919 0.0158823 0.0039474 0.00546762 -0.000665298 6.80341e-08 -4.06828e-07 -1.87329e-06 0.0005 1.46608e-07 
245 1 0.0172845 0.0204009 0.015732 0.00756301 0.00280871 -0.000561909 3.20951e-06 -2.73987e-06 2.29813e-08 0.0005 1.46608e-07 
246 1 0.0176693 0.0376552 0.0435188 9.7286e-317 -9.67828e-317 -2.35252e-12 0 0 0 0.0005 1.46608e-07 
247 1 0.0149656 0.0220829 0.0148139 0.00390342 0.00312693 -0.00117478 -2.50168e-07 -7.27241e-06 -1.0695e-05 0.0005 1.46608e-07 
248 1 0.0221602 0.0212613 0.0154116 0.00215503 0.0103905 -0.00575892 -6.61664e-06 5.11654e-06 -1.13513e-05 0.0005 1.46608e-07 
251 1 0.0213533 0.0200481 0.0173496 0.0227168 0.0139082 -0.0141328 0 0 -1.43822e-06 0.0005 1.46608e-07 
253 1 0.0173053 0.0147716 0.0151164 0.00296351 -0.00458717 0.00537584 4.14553e-07 -9.96243e-08 -5.53934e-07 0.0005 1.46608e-07 
256 1 0.0225832 0.0185987 0.0159199 0.00280925 0.0180297 0.00180011 2.04654e-07 -1.27853e-06 -5.06981e-07 0.0005 1.46608e-07 
257 1 0.0189396 0.0224769 0.0155059 0.00307261 0.00217333 0.000849208 -2.38976e-06 1.21519e-06 2.61889e-06 0.0005 1.46608e-07 
258 1 0.0201682 0.0218343 0.00824142 0.000266587 -0.0157718 -0.0128884 -5.19865e-09 -1.48832e-07 -7.60419e-08 0.0005 1.46608e-07 
259 1 0.0140845 0.0210101 0.0164215 0.000117032 -0.00175761 0.000132378 1.51675e-06 1.88176e-07 -1.61278e-06 0.0005 1.46608e-07 
260 1 0.0222475 0.0167157 0.0162402 0.0025121 0.0186979 0.0111839 -1.49606e-08 2.22322e-08 -1.13161e-08 0.0005 1.46608e-07 
261 1 0.0145561 0.0150849 0.0149455 -8.50815e-05 0.000159246 -0.000228562 1.88952e-07 -1.40784e-07 -5.67185e-08 0.0005 1.46608e-07 
263 1 0.0188554 0.023712 0.0136444 0.000236655 0.00131084 -0.00215375 -1.52411e-08 3.46422e-08 -2.37255e-08 0.0005 1.46608e-07 
264 1 0.0239144 0.0215894 0.016073 -0.00211194 0.000673018 -0.00014398 -3.37985e-07 2.64942e-07 1.02845e-06 0.0005 1.46608e-07 
265 1 0.0230856 0.0157808 0.0152631 0.0114589 0.00812179 0.00486628 -2.14906e-08 -1.12615e-07 -1.02131e-06 0.0005 1.46608e-07 
268 1 0.0200201 0.0202997 0.016604 0.00383446 0.00320187 -0.0012383 -1.71992e-07 1.26348e-06 -2.70532e-07 0.0005 1.46608e-07 
269 1 0.0186841 0.0198768 0.0166642 0.0010029 0.00147072 0.000614745 1.49479e-07 1.20867e-06 -4.49548e-07 0.0005 1.46608e-07 
272 1 0.0196149 0.0142104 0.0135751 0.000671616 -0.000681114 0.00235106 2.63229e-07 -6.89308e-07 5.70485e-07 0.0005 1.46608e-07 
273 1 0.0189313 0.0141862 0.0126613 0.00155909 0.00410574 -0.00681887 6.45953e-08 1.07108e-07 -1.70385e-07 0.0005 1.46608e-07 
274 1 0.020098 0.0184602 0.0167304 0.0112055 0.0197728 0.00162595 -7.03399e-07 1.41648e-07 -2.76046e-07 0.0005 1.46608e-07 
275 1 0.0226076 0.0224709 0.0155354 0.000435476 0.00308466 0.000291805 -8.95633e-07 2.32601e-06 -3.05253e-06 0.0005 1.46608e-07 
276 1 0.0252028 0.0202803 0.0166114 0.00843435 0.016125 -0.00428163 -7.67889e-07 9.03617e-07 -1.89186e-07 0.0005 1.46608e-07 
277 1 0.0142264 0.0215486 0.017252 0.000633337 -5.57737e-05 -0.00103998 1.96365e-07 -1.01001e-07 1.55933e-06 0.0005 1.46608e-07 
278 1 0.0178085 0.0239461 0.0162854 0.000261714 -0.00120825 -0.00264765 0 0 -1.43822e-06 0.0005 1.46608e-07 
279 1 0.0189577 0.0206246 0.00752184 0.000162696 -0.0197156 -0.00787606 -1.46309e-09 -1.02598e-08 6.94112e-09 0.0005 1.46608e-07 
280 1 0.0136846 0.0219867 0.0158773 0.0001735 -0.000254614 -0.000794525 6.26992e-07 1.5312e-07 -6.57331e-07 0.0005 1.46608e-07 
281 1 0.0173631 0.0157464 0.0144699 0.00437586 0.00417295 0.00450749 1.13699e-07 -1.50565e-07 -2.89011e-07 0.0005 1.46608e-07 
282 1 0.0168614 0.0236659 0.0160991 -0.000319803 0.000484102 -0.00183137 -9.04227e-08 -1.69516e-07 1.02758e-06 0.0005 1.46608e-07 
284 1 0.0231589 0.018864 0.0166933 0.000777367 0.0236601 0.00168811 1.82612e-07 -8.26708e-08 4.20073e-08 0.0005 1.46608e-07 
285 1 0.0170938 0.0167107 0.0152963 -1.80275e-06 0.0106866 0.0064378 -5.67822e-10 -1.75033e-08 -5.24707e-08 0.0005 1.46608e-07 
286 1 0.0161825 0.0213635 0.0161405 -0.00122902 0.00110937 -0.00108678 0 0 -1.43822e-06 0.0005 1.46608e-07 
287 1 0.012191 0.0193566 0.0167501 -0.00132973 0.000578831 0.00194617 -8.99363e-08 -1.24177e-06 -6.66851e-07 0.0005 1.46608e-07 
289 1 0.016821 0.0212139 0.01538 0.00522667 0.00145952 -0.000648333 -2.21506e-06 2.44018e-06 -1.34673e-06 0.0005 1.46608e-07 
290 1 0.0213837 0.0142193 0.0136155 0.000983913 0.000168185 0.00101629 -3.87916e-08 -2.64613e-07 2.4746e-07 0.0005 1.46608e-07 
292 1 0.0180214 0.0145988 0.0144401 0.00042172 -0.0015502 0.00172324 -1.75556e-07 4.11607e-07 -2.26181e-07 0.0005 1.46608e-07 
294 1 0.0173696 0.0142906 0.012931 0.00015657 -0.000318597 0.00069689 8.33901e-08 -1.06964e-07 -1.05815e-07 0.0005 1.46608e-07 
295 1 0.0235041 0.022988 0.0149487 4.66707e-06 0.0012494 0.000243689 1.60127e-07 -1.52397e-07 5.15902e-09 0.0005 1.46608e-07 
296 1 0.0155099 0.0230121 0.013587 0.00215073 0.000566483 -0.000738495 -1.55124e-06 3.7762e-07 1.485e-06 0.0005 1.46608e-07 
297 1 0.0159169 0.022202 0.0147659 0.00432556 -0.000115895 0.00035143 -1.15611e-06 -8.10241e-06 -1.47097e-05 0.0005 1.46608e-07 
300 1 0.0173895 0.0146327 0.0119919 0.000374309 -0.000343931 0.000709021 3.07257e-08 -3.89994e-09 2.6092e-08 0.0005 1.46608e-07 
