ITEM: TIMESTEP
2400000
ITEM: NUMBER OF ATOMS
279
ITEM: BOX BOUNDS ff ff ff
-0.02 0.43
-0.02 0.06
-0.02 0.07
ITEM: ATOMS id type x y z vx vy vz fx fy fz radius mass 
1 1 0.0159887 0.0214517 0.0166824 0.0012316 -0.00205472 -0.00272743 -1.66126e-07 1.3157e-06 1.3815e-06 0.0005 1.46608e-07 
2 1 0.0182432 0.0240632 0.0127245 0.00152264 0.0001756 0.00271145 2.99027e-07 -4.22135e-08 6.22399e-07 0.0005 1.46608e-07 
3 1 0.0241514 0.0226434 0.0157351 2.01789e-05 0.000843544 0.000306335 1.04033e-06 -3.73982e-07 2.76171e-07 0.0005 1.46608e-07 
4 1 0.0165047 0.0228391 0.0137653 0.00317322 0.00143115 -0.002988 9.67893e-07 2.31429e-06 -4.63315e-06 0.0005 1.46608e-07 
5 1 0.0245461 0.0186914 0.015944 7.51532e-06 0.0204079 0.00150047 -3.31089e-08 2.52013e-07 1.84975e-08 0.0005 1.46608e-07 
6 1 0.0175701 0.0199655 0.0160992 0.00439109 0.00213676 0.00432233 -2.08281e-06 3.80053e-06 7.25604e-08 0.0005 1.46608e-07 
7 1 0.0205043 0.0224965 0.00893256 0.000155224 -0.0117664 -0.0145818 3.58705e-08 -5.49432e-10 9.19157e-08 0.0005 1.46608e-07 
8 1 0.0192298 0.0237677 0.0164618 0.00272163 0.00746579 0.0079161 -2.46071e-06 3.82642e-06 4.44832e-06 0.0005 1.46608e-07 
9 1 0.0208695 0.0240695 0.0129083 -0.000666396 0.000543217 -0.00248531 4.43587e-08 -4.96671e-08 2.53616e-07 0.0005 1.46608e-07 
10 1 0.0159281 0.0227577 0.0162251 0.00306815 0.00176548 -0.00473633 0 0 -1.43822e-06 0.0005 1.46608e-07 
11 1 0.0185186 0.0151116 0.0097592 0.000602341 -0.00787102 0.018409 -3.55569e-09 5.52011e-09 1.46595e-08 0.0005 1.46608e-07 
12 1 0.0208419 0.0145404 0.0142442 0.00474992 0.000607214 0.000105863 6.16627e-07 1.37988e-06 1.35011e-06 0.0005 1.46608e-07 
13 1 0.0200704 0.0240567 0.0160043 0.000746536 0.000553486 0.000708518 -5.10543e-06 -1.54946e-07 -3.12608e-06 0.0005 1.46608e-07 
14 1 0.0189761 0.0239795 0.0131907 0.00330714 0.00136328 -0.00268362 2.25962e-06 7.85903e-07 -1.5304e-06 0.0005 1.46608e-07 
15 1 0.0247158 0.0219359 0.0157701 -0.00014132 0.00132283 -0.000179179 3.16209e-07 -4.73996e-07 4.78302e-07 0.0005 1.46608e-07 
16 1 0.0210009 0.0233284 0.0107392 0.000503059 -0.00310925 -0.0208832 7.78357e-09 -1.24178e-08 9.76248e-10 0.0005 1.46608e-07 
17 1 0.0217065 0.0237901 0.0133484 -0.00028219 0.000813166 -0.000928275 6.32048e-07 -1.69973e-06 -5.46927e-07 0.0005 1.46608e-07 
18 1 0.0224422 0.0203959 0.0157614 0.0114765 -0.00500712 0.0330967 4.77831e-05 -7.14061e-05 2.41819e-05 0.0005 1.46608e-07 
19 1 0.0195396 0.0244868 0.0136399 0.00101575 0.00114739 -0.00179782 1.59947e-06 -2.0057e-07 -4.9233e-07 0.0005 1.46608e-07 
20 1 0.0402891 0.0167947 0.00659266 9.25226e-16 -8.55288e-15 -2.18641e-14 7.40955e-20 2.22346e-21 1.27055e-21 0.0005 1.46608e-07 
21 1 0.0185743 0.0168241 0.0163105 -0.000413247 0.0175625 0.00971031 4.25734e-07 1.04165e-06 2.75417e-07 0.0005 1.46608e-07 
22 1 0.0145803 0.0199384 0.0166849 0.00552307 0.00585775 0.000292415 5.48441e-07 -7.13897e-07 4.33654e-07 0.0005 1.46608e-07 
23 1 0.0173838 0.0240095 0.0128661 0.00073514 0.000414387 0.00042879 2.01397e-07 -6.33057e-07 -4.05064e-07 0.0005 1.46608e-07 
24 1 0.023783 0.014996 0.0130068 -7.88845e-05 0.00713839 0.0212621 1.9573e-09 1.44873e-08 -7.38698e-09 0.0005 1.46608e-07 
25 1 0.0201435 0.0154451 0.0152903 0.000413781 0.00868929 0.00768813 -2.49168e-06 1.73767e-06 2.46805e-06 0.0005 1.46608e-07 
26 1 0.01986 0.0201368 0.0073709 0.000668941 -0.0115063 -0.00285664 6.61851e-07 -4.52422e-07 2.37889e-07 0.0005 1.46608e-07 
27 1 0.0178395 0.0188311 0.0177103 -0.00886286 0.0043513 -0.0332979 0 0 -1.43822e-06 0.0005 1.46608e-07 
28 1 0.0229039 0.0181803 0.0158581 0.00138351 0.0208547 0.00296241 -3.76236e-07 -1.85978e-07 -1.48748e-06 0.0005 1.46608e-07 
29 1 0.0155977 0.0237384 0.0149331 0.000759605 -0.00012931 -0.000232443 -2.13104e-06 1.04805e-06 1.10635e-06 0.0005 1.46608e-07 
30 1 0.0250897 0.0184195 0.0171566 0.00870792 -0.00233517 0.00230533 1.51912e-06 7.86388e-07 6.71e-07 0.0005 1.46608e-07 
31 1 0.0168983 0.0232232 0.0146092 0.00194432 -0.00114949 -0.00219987 1.19431e-06 1.93371e-06 2.89642e-07 0.0005 1.46608e-07 
32 1 0.021981 0.022148 0.0150035 0.00121151 0.00537867 -0.00777632 2.12161e-06 3.18086e-06 -8.10196e-06 0.0005 1.46608e-07 
33 1 0.0227347 0.0222921 0.0145265 0.0021225 5.62287e-05 -0.00161633 3.01316e-06 1.151e-05 -1.17988e-05 0.0005 1.46608e-07 
34 1 0.0200026 0.0143073 0.0147342 0.00522159 0.0010646 0.00154011 -4.2547e-07 -6.04364e-08 -9.15029e-08 0.0005 1.46608e-07 
35 1 0.0296393 0.0184913 0.00583954 2.51603e-14 -2.31872e-16 2.95161e-13 0 -5.16988e-24 0 0.0005 1.46608e-07 
36 1 0.0204283 0.0243805 0.0137829 0.000198422 0.000981367 -0.00105523 1.21891e-06 -8.83158e-07 1.5814e-06 0.0005 1.46608e-07 
37 1 0.0224242 0.0213562 0.015486 0.0292859 -0.023239 0.0307647 -4.77831e-05 7.14061e-05 -2.70583e-05 0.0005 1.46608e-07 
38 1 0.0270392 0.00722622 0.0389068 -0.0406064 0.0157226 -0.0533908 0 0 -1.43822e-06 0.0005 1.46608e-07 
39 1 0.0218871 0.0146087 0.0168047 -0.00121485 0.00269144 -0.00567427 4.00004e-06 2.59282e-07 3.24669e-06 0.0005 1.46608e-07 
40 1 0.0229586 0.0236907 0.0150801 0.000589831 0.000788939 -0.00129913 2.77376e-06 -4.76007e-06 8.78216e-06 0.0005 1.46608e-07 
41 1 0.0177154 0.0236447 0.0136362 0.000451266 0.000899298 -0.00072761 -2.23539e-07 -2.60584e-07 -4.43392e-07 0.0005 1.46608e-07 
42 1 0.0231873 0.0169762 0.0154414 0.00061384 0.0181151 0.00931644 -7.91554e-10 9.21974e-09 -1.00351e-08 0.0005 1.46608e-07 
43 1 0.0189323 0.0160226 0.00841564 0.000179445 -0.0145511 0.0146231 -2.87869e-09 -1.58733e-08 2.04263e-08 0.0005 1.46608e-07 
44 1 0.021408 0.0176346 0.0165595 0.0095581 0.0170513 0.0048036 -7.79305e-07 1.90157e-07 5.72642e-08 0.0005 1.46608e-07 
45 1 0.021989 0.0237764 0.014913 0.000109778 0.000365309 -0.00168721 -7.02308e-06 -2.78164e-06 5.53314e-06 0.0005 1.46608e-07 
46 1 0.0245637 0.0147627 0.0111336 -0.000635063 -0.00199305 0.0198942 9.206e-07 -6.53933e-08 2.01573e-07 0.0005 1.46608e-07 
47 1 0.0230935 0.0231836 0.0142906 0.000567188 -0.000436408 -0.000255279 3.92622e-07 -4.74356e-07 3.70438e-06 0.0005 1.46608e-07 
48 1 0.021833 0.0143618 0.0138864 -0.000140701 -0.000537008 0.00123906 4.54274e-07 9.10747e-08 -6.85307e-07 0.0005 1.46608e-07 
49 1 0.0197624 0.018468 0.0188717 -0.0514941 -0.0283192 -0.333144 0 0 -1.43822e-06 0.0005 1.46608e-07 
50 1 0.0226432 0.0194107 0.0159361 0.0231684 -0.0907501 0.0119908 0 0 -1.43822e-06 0.0005 1.46608e-07 
51 1 0.0197276 0.0193082 0.0071993 0.000566183 -0.00744242 -0.00108404 5.11857e-07 -4.43038e-07 5.54447e-08 0.0005 1.46608e-07 
52 1 0.0200583 0.0240826 0.0125 -0.00014609 -0.00278165 -0.00479375 -6.79974e-08 9.97261e-08 -2.38623e-07 0.0005 1.46608e-07 
53 1 0.0261907 0.0212633 0.00785565 -4.43791e-05 -0.0186399 -0.0123599 -2.45339e-09 -1.21607e-08 5.99193e-09 0.0005 1.46608e-07 
54 1 0.018 0.0244452 0.0138183 -5.02551e-05 0.000142634 7.06274e-06 6.09353e-07 -8.717e-07 5.01449e-07 0.0005 1.46608e-07 
55 1 0.015102 0.023161 0.0155541 0.000235728 -0.000468557 7.13076e-05 1.88078e-06 1.09398e-06 -2.63669e-06 0.0005 1.46608e-07 
56 1 0.0184156 0.015931 0.0158898 0.00129846 0.0146357 0.0145071 -1.77122e-06 6.75926e-08 -2.86732e-07 0.0005 1.46608e-07 
57 1 0.0168188 0.0240065 0.0136353 0.000630604 0.00061065 -7.63915e-05 -4.49939e-08 3.98115e-09 4.47383e-07 0.0005 1.46608e-07 
58 1 0.0190014 0.0240938 0.0122116 0.000237586 0.00385319 -0.00788935 3.64812e-08 -7.41098e-09 -6.41224e-08 0.0005 1.46608e-07 
59 1 0.023462 0.0158789 0.0146844 -0.000288752 0.0200563 0.023821 -5.17487e-07 4.08386e-07 8.10598e-07 0.0005 1.46608e-07 
60 1 0.018367 0.0220701 0.0169554 0.0154678 0.0232626 -0.0229066 1.60204e-06 3.02958e-06 1.35947e-05 0.0005 1.46608e-07 
61 1 0.0245837 0.0233224 0.020751 -0.0562415 -0.0309122 -0.18613 0 0 -1.43822e-06 0.0005 1.46608e-07 
62 1 0.0213133 0.0243055 0.0140123 -0.00038001 0.000597633 -0.000692416 1.62749e-06 -4.3822e-07 4.27775e-07 0.0005 1.46608e-07 
63 1 0.022367 0.0236387 0.0139763 -0.000499429 -0.000119675 -0.000730054 2.91373e-07 -1.88468e-06 1.92096e-06 0.0005 1.46608e-07 
64 1 0.0225073 0.0152246 0.0163188 0.0021431 0.00309305 -0.000616176 1.48524e-07 4.21061e-07 -1.01384e-06 0.0005 1.46608e-07 
65 1 0.0213365 0.0191755 0.0176477 -0.00438461 0.0338973 0.0107334 0 0 -1.43822e-06 0.0005 1.46608e-07 
66 1 0.0149397 0.0215101 0.0172564 -0.000118575 0.00308265 -0.00164828 1.36477e-06 -9.0564e-07 1.32957e-07 0.0005 1.46608e-07 
68 1 0.0214821 0.0234438 0.0141498 -0.00206423 0.00160795 -0.00305682 -1.0116e-07 -8.43331e-07 -1.5906e-07 0.0005 1.46608e-07 
69 1 0.0208758 0.0159616 0.0157463 -0.000888032 0.013649 0.00905181 7.37506e-08 1.01613e-07 -1.77946e-07 0.0005 1.46608e-07 
70 1 0.0208982 0.0235837 0.0157008 0.00347624 -0.00534774 0.0051258 0 0 -1.43822e-06 0.0005 1.46608e-07 
71 1 0.0195317 0.0141323 0.0164689 -0.00383258 0.00365235 -0.00559557 2.91579e-06 -4.19742e-06 2.83722e-06 0.0005 1.46608e-07 
72 1 0.0178645 0.0177699 0.0161743 0.0076135 0.00386342 0.0184513 0 0 -1.43822e-06 0.0005 1.46608e-07 
73 1 0.0249255 0.0220512 0.0165089 -0.000122114 0.000263828 -9.58026e-05 4.17194e-07 -2.57541e-07 2.75473e-07 0.0005 1.46608e-07 
74 1 0.0224463 0.0212766 0.0172959 0.0228118 0.0750325 -0.124419 0 0 -1.43822e-06 0.0005 1.46608e-07 
75 1 0.0257333 0.0190604 0.0167384 -0.000878162 0.00814947 0.00138319 -5.38086e-07 -4.08384e-07 -4.82509e-07 0.0005 1.46608e-07 
76 1 0.0192112 0.0173412 0.00753239 0.00066015 -0.0180345 0.00810418 -8.79897e-09 8.03779e-08 -5.24522e-08 0.0005 1.46608e-07 
77 1 0.0177509 0.0220325 0.0161689 0.0019675 0.00594457 -0.0052538 -1.49917e-06 -3.20525e-06 -1.64406e-05 0.0005 1.46608e-07 
78 1 0.0152577 0.0192074 0.0167667 0.0127878 0.0131535 -0.000187507 -1.13864e-06 1.14279e-06 6.80588e-07 0.0005 1.46608e-07 
79 1 0.0267864 0.0230764 0.00988888 0.000303404 -0.00647772 -0.0159314 -1.18097e-09 -2.46828e-08 1.24317e-08 0.0005 1.46608e-07 
80 1 0.0174026 0.0240478 0.0144906 0.000284145 -9.48894e-05 -0.000351425 6.04507e-07 4.30363e-08 4.2914e-07 0.0005 1.46608e-07 
81 1 0.0209464 0.0205971 0.016537 -0.0016038 0.0406444 -0.0879445 0 0 -1.43822e-06 0.0005 1.46608e-07 
82 1 0.0169218 0.0222475 0.0145903 0.00414804 -0.000809213 -0.00425336 8.4881e-07 8.67934e-07 7.81665e-07 0.0005 1.46608e-07 
83 1 0.0152297 0.022367 0.0168303 0.00176632 4.07092e-05 -0.00342493 -1.99941e-07 1.45085e-06 -6.95062e-07 0.0005 1.46608e-07 
84 1 0.0186942 0.0152836 0.0138636 0.00039514 0.0111883 0.0178998 -1.31648e-07 -4.53777e-08 2.22799e-08 0.0005 1.46608e-07 
85 1 0.0157936 0.0228176 0.0143939 0.00343478 0.00152944 -0.00338833 1.28319e-06 -1.22465e-06 9.88331e-07 0.0005 1.46608e-07 
86 1 0.0219485 0.0209595 0.0164322 -0.00280962 0.0329444 -0.0174122 0 0 -1.43822e-06 0.0005 1.46608e-07 
87 1 0.0211742 0.0234149 0.0115843 0.000915962 0.00146203 -0.0219244 -1.28231e-08 -6.70593e-09 -1.26114e-08 0.0005 1.46608e-07 
88 1 0.0143038 0.0229129 0.015058 4.20006e-06 -0.000206068 -0.000300571 1.77641e-06 3.13405e-06 -2.3736e-06 0.0005 1.46608e-07 
89 1 0.0150013 0.0182435 0.0166932 0.00010308 0.0155185 0.00221021 -4.34553e-08 5.96689e-07 -1.67058e-07 0.0005 1.46608e-07 
90 1 0.0190617 0.0166381 0.00792567 0.000283275 -0.0160924 0.011472 -9.44601e-09 -6.27184e-08 9.95741e-08 0.0005 1.46608e-07 
91 1 0.0182841 0.0162358 0.0149466 0.00172402 0.0177755 0.0142987 -2.31881e-07 -1.66913e-06 -1.02304e-06 0.0005 1.46608e-07 
92 1 0.0150696 0.0149164 0.0195805 -0.00789223 0.0482223 -0.350621 0 0 -1.43822e-06 0.0005 1.46608e-07 
93 1 0.0182193 0.014621 0.0119393 -2.05089e-06 0.00103083 -0.0017114 1.43178e-08 -1.85734e-08 3.08049e-08 0.0005 1.46608e-07 
95 1 0.0196391 0.0237259 0.0151218 -0.000376379 -2.20245e-05 -0.000125102 9.61868e-06 -1.26885e-06 8.39467e-06 0.0005 1.46608e-07 
97 1 0.0265598 0.0226123 0.00905985 0.00322041 -0.00645461 -0.00764326 -7.00518e-09 -5.06797e-09 -2.87505e-08 0.0005 1.46608e-07 
98 1 0.0204851 0.0180207 0.0166647 0.00409196 0.0157562 0.00357204 -2.37777e-07 3.51651e-07 -6.1703e-07 0.0005 1.46608e-07 
100 1 0.0190127 0.0209384 0.0164236 0.0153987 0.00620377 -0.0195185 0 0 -1.43822e-06 0.0005 1.46608e-07 
101 1 0.0187321 0.0237163 0.0155472 -0.00276445 -0.0012748 -0.00458056 0 0 -1.43822e-06 0.0005 1.46608e-07 
102 1 0.0178311 0.014183 0.0130045 0.001832 -0.00228416 0.000346616 -4.75294e-08 -7.91295e-08 5.83781e-08 0.0005 1.46608e-07 
103 1 0.0172918 0.0239677 0.0165769 -0.000470977 0.000475344 0.00174094 5.76163e-07 7.06003e-07 -3.14386e-07 0.0005 1.46608e-07 
104 1 0.0170948 0.0172046 0.0158765 -0.00032482 0.00936608 0.0175582 1.67823e-06 4.56671e-06 -4.22681e-07 0.0005 1.46608e-07 
105 1 0.0161104 0.0236513 0.0141042 0.00205136 0.000833658 -0.00066609 -1.45592e-06 -6.10554e-07 1.8259e-06 0.0005 1.46608e-07 
106 1 0.0213633 0.0229879 0.0150456 -0.0018716 -0.0168872 0.0158436 1.42798e-10 4.51563e-07 -1.35319e-06 0.0005 1.46608e-07 
108 1 0.0243543 0.0149163 0.0103432 0.00135821 -0.00367417 0.0109008 -9.59255e-07 -1.09671e-06 1.19694e-06 0.0005 1.46608e-07 
109 1 0.0181386 0.0187311 0.0162192 0.00159431 0.00295526 0.00283821 -6.77143e-07 -1.3484e-06 4.10214e-07 0.0005 1.46608e-07 
110 1 0.0194693 0.0152582 0.0161826 -0.00701018 0.00410464 -0.00427429 -7.66918e-06 1.36574e-05 9.82643e-06 0.0005 1.46608e-07 
111 1 0.0211111 0.0221982 0.00858611 -9.22269e-05 -0.0138218 -0.0138915 -5.20568e-09 1.53814e-08 1.50438e-08 0.0005 1.46608e-07 
112 1 0.0191513 0.0154861 0.00904714 -4.44323e-05 -0.0133972 0.0173211 2.10512e-10 8.7981e-11 1.35026e-08 0.0005 1.46608e-07 
113 1 0.0215153 0.0166219 0.0161655 -0.000406649 0.0173976 0.00909767 4.58881e-09 7.12853e-08 2.64425e-08 0.0005 1.46608e-07 
114 1 0.0199741 0.01758 0.00741798 0.000165485 -0.00913328 0.00199261 7.64476e-09 -9.55281e-08 5.05892e-08 0.0005 1.46608e-07 
115 1 0.023667 0.0194556 0.0175631 -0.00936654 0.00836909 0.00890076 0 0 -1.43822e-06 0.0005 1.46608e-07 
116 1 0.0189493 0.0232981 0.014559 0.00140515 -0.00209886 -0.0011325 3.84908e-06 -2.02932e-05 2.98587e-05 0.0005 1.46608e-07 
117 1 0.0249542 0.0167129 0.015679 0.0104038 0.0197488 0.0107638 0 0 -1.43822e-06 0.0005 1.46608e-07 
118 1 0.022699 0.0146071 0.0143221 0.000549486 0.00021518 0.00014212 -1.58599e-07 3.11526e-07 -1.30786e-07 0.0005 1.46608e-07 
119 1 0.0235733 0.0230037 0.0151185 0.000129992 0.000507228 -7.24109e-05 3.31738e-06 1.91595e-08 1.23289e-06 0.0005 1.46608e-07 
120 1 0.0165327 0.0167274 0.0165587 -0.054581 -0.0201349 -0.0342457 0 0 -1.43822e-06 0.0005 1.46608e-07 
121 1 0.019826 0.0236371 0.0140607 -0.00064787 0.00340072 -0.00859976 4.28506e-06 -6.62569e-07 -1.72927e-06 0.0005 1.46608e-07 
122 1 0.0207618 0.0224976 0.0162407 -0.00537123 0.0297639 0.0163045 0 0 -1.43822e-06 0.0005 1.46608e-07 
123 1 0.0238705 0.0152067 0.015311 0.00407707 -0.00125731 -0.00792559 0 0 -1.43822e-06 0.0005 1.46608e-07 
124 1 0.0228007 0.0151929 0.00955337 -7.24899e-05 -0.00574111 0.0111459 -1.17416e-09 1.26976e-08 -9.52783e-09 0.0005 1.46608e-07 
125 1 0.0252799 0.0175167 0.00748656 -0.000106378 -0.023422 0.00496625 4.40543e-07 1.86654e-06 -1.00685e-06 0.0005 1.46608e-07 
126 1 0.017126 0.0216396 0.0153449 0.00490585 0.00061907 -0.00387123 -1.49059e-07 -1.35911e-06 2.97516e-06 0.0005 1.46608e-07 
127 1 0.0239906 0.0167225 0.0160059 0.00253548 0.0179444 0.0184034 -3.41626e-07 -1.02043e-06 -2.7741e-06 0.0005 1.46608e-07 
128 1 0.0205237 0.0210625 0.00769799 0.000684841 -0.0169562 -0.00855776 -3.1571e-09 1.46303e-08 1.67361e-08 0.0005 1.46608e-07 
129 1 0.0173067 0.016402 0.0153196 0.000979105 0.0139764 0.0167232 1.65576e-06 -1.10103e-05 3.09449e-06 0.0005 1.46608e-07 
131 1 0.0206727 0.0238757 0.0146416 -0.00390661 0.00381428 -0.00230341 4.16116e-06 3.71831e-06 -2.13886e-06 0.0005 1.46608e-07 
132 1 0.0156893 0.0208809 0.0174615 0.00319904 0.00714747 0.00176406 -2.16884e-07 1.69962e-07 -4.85991e-07 0.0005 1.46608e-07 
133 1 0.0218842 0.0267745 0.0245814 -0.0199567 -0.0405943 -0.140971 0 0 -1.43822e-06 0.0005 1.46608e-07 
135 1 0.0177338 0.0236443 0.0156207 0.000147626 -0.00220528 -0.00515698 5.17099e-08 -4.29386e-07 -7.26146e-07 0.0005 1.46608e-07 
136 1 0.017493 0.0157293 0.0146038 0.000617613 0.0153849 0.0175285 1.77789e-07 -1.65832e-06 1.30918e-06 0.0005 1.46608e-07 
137 1 0.0197043 0.0167117 0.0170652 -0.00822492 -0.0711353 -0.0755073 0 0 -1.43822e-06 0.0005 1.46608e-07 
138 1 0.0193166 0.0146201 0.0119409 0.001306 0.00102003 -0.00166172 -7.32677e-09 -2.83527e-08 4.54786e-08 0.0005 1.46608e-07 
139 1 0.0162771 0.0232624 0.0129244 0.00345795 0.0010016 -0.00336503 1.40887e-06 1.12942e-06 -3.97808e-06 0.0005 1.46608e-07 
140 1 0.0249353 0.0160213 0.00843179 0.000361565 -0.0129119 0.0118587 5.15185e-07 1.02401e-06 -1.42761e-06 0.0005 1.46608e-07 
141 1 0.0242398 0.0191955 0.0167842 -0.00285178 0.0168574 0.0116144 2.54282e-07 -1.38198e-06 6.09191e-07 0.0005 1.46608e-07 
142 1 0.0197868 0.0141142 0.0127808 0.0162081 0.0321501 -0.0533796 -7.99445e-08 3.70848e-07 -6.15727e-07 0.0005 1.46608e-07 
143 1 0.0248965 0.0177454 0.0157572 0.0023836 0.0162337 0.00438449 -4.01279e-07 1.86129e-07 -5.49404e-08 0.0005 1.46608e-07 
144 1 0.0238678 0.0178994 0.0158071 -0.000522495 0.0155332 0.0055337 -2.39318e-06 -1.13333e-06 -2.40265e-06 0.0005 1.46608e-07 
145 1 0.0160186 0.0219752 0.0148533 0.00324022 0.00272061 -0.00417706 7.69703e-07 -9.43299e-07 8.55622e-07 0.0005 1.46608e-07 
147 1 0.0216944 0.0233332 0.0124678 -0.00142106 0.00268551 -0.00201026 -5.873e-07 1.44018e-07 9.39317e-07 0.0005 1.46608e-07 
148 1 0.0224004 0.0231519 0.013127 -0.000566006 0.000510584 -0.0010581 1.09516e-06 -6.06967e-07 -2.86334e-06 0.0005 1.46608e-07 
149 1 0.0259837 0.0199623 0.0170899 0.00131962 0.0058871 0.00594454 1.28003e-07 6.2542e-07 -1.01264e-07 0.0005 1.46608e-07 
150 1 0.0203114 0.0230091 0.0149718 0.000915997 0.00344898 -6.63271e-05 4.46246e-06 7.85021e-06 -1.2854e-05 0.0005 1.46608e-07 
151 1 0.0179037 0.0221747 0.01472 0.00411273 0.000990134 -0.00423506 -6.20043e-07 1.39225e-07 1.05278e-06 0.0005 1.46608e-07 
152 1 0.0144643 0.0151275 0.0150087 0.00283203 -0.000563431 -0.00352735 7.48165e-08 8.00833e-08 -2.92034e-07 0.0005 1.46608e-07 
153 1 0.0160034 0.0180244 0.0166801 -0.00438243 0.0146444 0.00282163 2.23343e-07 3.45955e-07 7.06288e-08 0.0005 1.46608e-07 
154 1 0.0181028 0.0214831 0.0154105 0.00451853 0.00107736 -0.00381073 5.95343e-07 2.01615e-06 3.37674e-06 0.0005 1.46608e-07 
155 1 0.0179493 0.0144779 0.0155193 0.0247421 0.00975246 -0.0654922 0 0 -1.43822e-06 0.0005 1.46608e-07 
156 1 0.0243083 0.0172 0.0173561 -0.0050169 0.0112763 0.00651074 -6.14753e-07 -3.17402e-07 -1.12402e-08 0.0005 1.46608e-07 
157 1 0.0188178 0.0241897 0.0142584 0.000158007 -0.000438983 -0.000680039 1.91e-06 -8.12034e-06 8.11413e-06 0.0005 1.46608e-07 
158 1 0.0139451 0.021317 0.017356 0.000394872 -0.000252012 -0.00188707 -1.5879e-07 6.99514e-07 5.75345e-07 0.0005 1.46608e-07 
159 1 0.022416 0.0175754 0.0165901 0.000110755 0.0237707 0.00744007 -7.88956e-07 1.61623e-07 -5.03174e-08 0.0005 1.46608e-07 
161 1 0.0210209 0.0141248 0.0133533 0.000976105 0.000690482 -0.00054064 3.06356e-07 4.05709e-07 7.40778e-07 0.0005 1.46608e-07 
162 1 0.0193539 0.0160313 0.015559 -1.2219e-05 0.0163834 0.0108575 -1.21198e-06 6.33586e-07 -1.54634e-06 0.0005 1.46608e-07 
163 1 0.0133661 0.019829 0.0167045 0.000750764 0.000633382 0.000414076 3.63645e-08 2.81023e-08 -8.0464e-08 0.0005 1.46608e-07 
164 1 0.0223358 0.018939 0.0167741 -3.60364e-08 0.0248918 0.000667214 6.36494e-14 4.87688e-10 -1.71097e-08 0.0005 1.46608e-07 
165 1 0.0242116 0.0164072 0.0150831 0.00416689 0.0227444 0.0160365 4.20187e-08 1.25327e-07 -2.76316e-06 0.0005 1.46608e-07 
166 1 0.0197177 0.0202451 0.01662 -0.0126082 -0.0228938 -0.00298725 0 0 -1.43822e-06 0.0005 1.46608e-07 
167 1 0.021169 0.0238085 0.0166614 -0.00201769 -0.0126025 -0.038052 -1.59507e-07 -2.88038e-07 -1.00555e-06 0.0005 1.46608e-07 
168 1 0.0131776 0.0213019 0.0162855 1.98683e-05 8.16328e-05 -0.000114394 1.37732e-07 1.69586e-07 -2.41722e-07 0.0005 1.46608e-07 
169 1 0.0160557 0.0144197 0.0140041 -0.000381492 -0.00155451 -0.000779388 -3.47181e-07 4.52064e-08 2.25058e-08 0.0005 1.46608e-07 
170 1 0.0155993 0.023027 0.0134558 0.00394635 0.00107076 -0.00344234 5.57908e-07 1.33858e-07 -7.30383e-07 0.0005 1.46608e-07 
171 1 0.0139049 0.0161406 0.0158659 -0.000892648 -0.00869678 -0.00362648 -2.28284e-09 -2.45786e-09 3.92205e-08 0.0005 1.46608e-07 
172 1 0.0157178 0.0201787 0.0167502 0.00297659 0.00550202 0.00273659 -1.22265e-06 3.42194e-07 -6.70172e-07 0.0005 1.46608e-07 
173 1 0.0198401 0.0187806 0.0167489 4.23883e-05 0.0166092 0.000778205 0 0 -1.43822e-06 0.0005 1.46608e-07 
174 1 0.0179174 0.0230037 0.0163684 -0.0015748 0.00364034 -0.00835379 0 0 -1.43822e-06 0.0005 1.46608e-07 
175 1 0.0169026 0.0225427 0.0163099 -0.00140158 -0.000925115 -0.00151498 4.45136e-06 -2.77053e-06 1.71778e-06 0.0005 1.46608e-07 
176 1 0.0203067 0.0217149 0.00813963 0.000478147 -0.0152497 -0.0113668 8.05203e-09 4.1041e-08 6.8605e-08 0.0005 1.46608e-07 
177 1 0.0226122 0.0231811 0.0170833 0.000489223 -0.0140389 -0.0244318 -3.22948e-07 -1.44681e-07 -9.83404e-07 0.0005 1.46608e-07 
178 1 0.0231651 0.0220288 0.015494 -0.00306284 0.0178946 -0.0137428 0 0 -1.43822e-06 0.0005 1.46608e-07 
179 1 0.0182704 0.0240386 0.0163837 0.000807191 0.000483783 0.00172757 -1.9033e-07 4.92508e-07 -1.51741e-06 0.0005 1.46608e-07 
180 1 0.025505 0.0186814 0.0193607 -0.0206724 -0.0480913 -0.0616382 -2.20339e-06 8.14883e-07 1.40925e-06 0.0005 1.46608e-07 
181 1 0.0179649 0.0232514 0.0147306 0.0029649 0.00409956 -0.00315453 0 0 -1.43822e-06 0.0005 1.46608e-07 
182 1 0.0143307 0.0215553 0.0164646 0.000372218 0.000280794 -0.00161587 -1.34906e-06 7.30252e-07 -3.47229e-07 0.0005 1.46608e-07 
183 1 0.0167896 0.0234429 0.0158898 -0.000335039 0.00066989 0.000105891 2.59607e-06 1.13492e-07 2.7235e-06 0.0005 1.46608e-07 
184 1 0.0162681 0.0228416 0.0152848 0.000477116 0.00110546 -0.00190919 1.12805e-07 1.48708e-06 1.33624e-07 0.0005 1.46608e-07 
185 1 0.0236554 0.0193079 0.0159369 0.00332509 0.0179343 -0.00107947 -4.75605e-07 3.89902e-07 -1.9233e-08 0.0005 1.46608e-07 
186 1 0.0221439 0.0199451 0.0167015 -2.98669e-08 0.0245677 -0.00407497 6.74098e-14 -2.76062e-09 -1.68867e-08 0.0005 1.46608e-07 
187 1 0.0235683 0.0154095 0.013808 -0.00266974 0.0134764 0.0239539 4.5474e-08 -1.13938e-07 -5.66345e-09 0.0005 1.46608e-07 
188 1 0.0189026 0.018414 0.0167973 0.00727065 -0.00499795 0.00743976 -5.70087e-07 1.7301e-06 2.99746e-06 0.0005 1.46608e-07 
189 1 0.0145861 0.0224528 0.0160354 -4.80381e-05 -0.000325776 0.000101566 -4.04503e-07 7.33202e-07 -7.94721e-08 0.0005 1.46608e-07 
190 1 0.025737 0.0195625 0.00720609 0.000419375 -0.0188263 -0.00278775 -4.74883e-09 -1.17567e-07 1.71458e-08 0.0005 1.46608e-07 
192 1 0.0169016 0.0181139 0.0162442 0.00226573 0.00515933 0.0243685 2.15862e-06 2.91805e-06 -1.46567e-06 0.0005 1.46608e-07 
193 1 0.0231707 0.0197087 0.0167321 -0.0048254 0.00265086 -0.000213356 0 0 -1.43822e-06 0.0005 1.46608e-07 
194 1 0.0234414 0.0202824 0.0158033 0.00408047 -0.00365943 -0.0110082 0 0 -1.43822e-06 0.0005 1.46608e-07 
195 1 0.0224033 0.0229492 0.0153326 0.0184253 -0.00827433 -0.00186404 3.5127e-05 -2.34753e-05 2.2167e-05 0.0005 1.46608e-07 
196 1 0.0162305 0.021254 0.0155073 0.00447302 0.00298911 -0.00327399 8.93867e-07 -3.62788e-06 -3.13422e-07 0.0005 1.46608e-07 
197 1 0.0172113 0.0150193 0.0164337 -0.0325855 0.032043 0.0190368 0 0 -1.43822e-06 0.0005 1.46608e-07 
198 1 0.0235589 0.0185051 0.0165403 -0.00163816 0.0142742 0.010263 -3.18173e-06 -1.72455e-06 -4.63536e-07 0.0005 1.46608e-07 
200 1 0.0241976 0.0209026 0.0155371 -1.18747e-05 0.018891 -0.00869058 -3.13189e-07 7.0186e-07 -3.25294e-07 0.0005 1.46608e-07 
201 1 0.0233484 0.0208037 0.0172566 0.0610362 0.00425173 -0.0750495 0 0 -1.43822e-06 0.0005 1.46608e-07 
202 1 0.0145255 0.022619 0.00925001 0.00022295 -0.0114533 -0.0175849 -1.12472e-09 -1.22272e-08 1.36294e-09 0.0005 1.46608e-07 
203 1 0.0207344 0.0229729 0.00973947 0.00167893 -0.00803329 -0.0159517 1.33851e-07 4.74265e-07 8.43164e-07 0.0005 1.46608e-07 
204 1 0.0244339 0.0199667 0.0158457 -2.98931e-09 0.0200647 -0.00419208 1.13366e-10 -2.44972e-09 -1.34256e-08 0.0005 1.46608e-07 
205 1 0.0192767 0.0157705 0.0145152 0.00674691 0.0090612 0.0110169 -2.89766e-07 -2.14425e-07 -2.63141e-07 0.0005 1.46608e-07 
206 1 0.0147148 0.0159984 0.0177382 0.0275698 0.0207154 -0.0589796 0 0 -1.43822e-06 0.0005 1.46608e-07 
208 1 0.0165873 0.020654 0.0166118 0.0035091 -0.00231305 -0.00774041 2.36581e-06 -2.94746e-06 -9.16038e-07 0.0005 1.46608e-07 
209 1 0.021836 0.0225927 0.0141771 0.00331167 0.00483625 -0.00837257 -2.45959e-06 3.64254e-06 -5.69565e-06 0.0005 1.46608e-07 
210 1 0.0183215 0.0226223 0.015515 -0.00318075 0.00428763 -0.0122901 0 0 -1.43822e-06 0.0005 1.46608e-07 
211 1 0.0289722 0.0113795 0.0345635 -0.0324392 -0.00106182 -0.0631322 -2.13793e-07 2.92516e-07 -9.34739e-07 0.0005 1.46608e-07 
212 1 0.0177039 0.0152119 0.0137748 0.000126025 0.0115515 0.0195794 -5.33901e-08 2.05394e-07 4.01152e-07 0.0005 1.46608e-07 
213 1 0.020474 0.0195578 0.016727 0.0202232 0.00504254 0.000136036 -7.70574e-07 8.35117e-07 -9.38668e-08 0.0005 1.46608e-07 
215 1 0.0199792 0.0211948 0.0163109 0.025114 -0.0117934 0.00317048 0 0 -1.43822e-06 0.0005 1.46608e-07 
216 1 0.0173338 0.0227219 0.0153787 -0.00764924 -0.00778147 0.00595588 0 0 -1.43822e-06 0.0005 1.46608e-07 
217 1 0.0240433 0.0201692 0.0168982 -0.00794814 0.0154708 0.00291868 -6.70423e-07 2.96894e-06 -2.95265e-06 0.0005 1.46608e-07 
218 1 0.0255378 0.0210049 0.0165699 -0.00523281 0.00534002 -0.00251415 0 0 -1.43822e-06 0.0005 1.46608e-07 
219 1 0.0173437 0.0209363 0.0160216 0.00775641 0.00306097 -0.00327162 -2.12517e-06 7.44248e-07 7.25221e-07 0.0005 1.46608e-07 
220 1 0.0166009 0.0198553 0.0158759 0.0118287 -0.0138057 0.00461178 -1.97057e-07 8.10479e-07 -1.54105e-07 0.0005 1.46608e-07 
221 1 0.0212905 0.0216443 0.0161029 0.00654328 0.0178838 -0.00153639 0 0 -1.43822e-06 0.0005 1.46608e-07 
222 1 0.0137088 0.0220182 0.0158331 -5.73076e-05 7.62603e-05 -0.000289866 7.92706e-08 4.19545e-08 -7.16936e-07 0.0005 1.46608e-07 
223 1 0.0169339 0.0234146 0.0122578 0.00395657 0.000707642 -0.00405965 3.37871e-06 -4.18802e-07 -8.39329e-06 0.0005 1.46608e-07 
224 1 0.0189713 0.0228236 0.0162588 -0.00257182 0.00893244 0.00290175 -2.1149e-06 3.79926e-06 -1.53721e-06 0.0005 1.46608e-07 
225 1 0.0171223 0.0146239 0.0143935 -0.000988723 -9.34364e-05 -9.82372e-05 -7.83923e-08 7.84992e-08 1.39455e-07 0.0005 1.46608e-07 
226 1 0.0169759 0.0216099 0.0166626 0.00263142 7.15066e-05 -0.00220117 -1.00339e-06 -2.65992e-06 -1.50585e-06 0.0005 1.46608e-07 
227 1 0.030244 0.00410672 0.0529072 0.102308 -0.214192 0.114261 0 0 -1.43822e-06 0.0005 1.46608e-07 
229 1 0.0150918 0.0209054 0.0164673 -0.000714832 -0.00108869 -0.00760706 1.77878e-08 -5.71055e-08 -1.44565e-06 0.0005 1.46608e-07 
230 1 0.0193272 0.0174747 0.0164363 0.0133304 0.00438908 -0.0161821 0 0 -1.43822e-06 0.0005 1.46608e-07 
231 1 0.0236205 0.0223998 0.0143695 0.000998033 -0.000861092 0.000159686 3.75343e-06 -1.12244e-06 2.2478e-06 0.0005 1.46608e-07 
232 1 0.0164353 0.0186309 0.0173729 -0.00980643 0.00862079 0.00216806 0 0 -1.43822e-06 0.0005 1.46608e-07 
233 1 0.0188763 0.0218879 0.0159202 -0.00244004 0.00905988 -0.00339693 -2.05218e-06 4.02498e-07 7.53443e-07 0.0005 1.46608e-07 
234 1 0.0175682 0.0227358 0.0139702 0.00215906 0.00175125 -0.00277811 1.87241e-06 6.86194e-07 -1.00494e-06 0.0005 1.46608e-07 
235 1 0.0126411 0.0204984 0.016543 9.07477e-05 -2.51137e-06 -0.000122333 2.59343e-08 3.45259e-07 1.6798e-07 0.0005 1.46608e-07 
236 1 0.0201412 0.0146057 0.0158334 -0.000128918 0.00252797 -0.00171445 1.17286e-06 8.30584e-06 9.32603e-06 0.0005 1.46608e-07 
237 1 0.0236919 0.0165311 0.0169407 -0.0066641 0.00817409 0.013924 -1.99658e-07 -6.51281e-07 -1.54185e-06 0.0005 1.46608e-07 
238 1 0.0231105 0.02234 0.0164442 -0.0144496 0.0136671 -0.0197568 0 0 -1.43822e-06 0.0005 1.46608e-07 
239 1 0.0180588 0.0170503 0.0154813 6.36778e-05 0.0185599 0.00929838 -7.3985e-08 -5.62367e-07 -6.95199e-07 0.0005 1.46608e-07 
240 1 0.0233257 0.0213807 0.0162539 -0.00544732 0.0143407 -0.039363 0 0 -1.43822e-06 0.0005 1.46608e-07 
241 1 0.0199308 0.0230663 0.0160238 0.0104981 0.0087007 0.0068823 0 0 -1.43822e-06 0.0005 1.46608e-07 
242 1 0.0185149 0.019642 0.0160507 0.00423836 0.000269758 -0.00139767 -1.09829e-06 1.11714e-06 3.0953e-07 0.0005 1.46608e-07 
243 1 0.021031 0.0146299 0.0162887 -0.000174184 0.00320238 -0.00479355 3.20467e-06 -2.94252e-06 1.62128e-06 0.0005 1.46608e-07 
244 1 0.0207246 0.0155185 0.0166298 -0.00445107 -0.000654829 0.00135319 2.58499e-07 9.22236e-07 -1.30774e-07 0.0005 1.46608e-07 
245 1 0.0188942 0.0136632 0.0170798 -0.00578277 0.00310887 -0.0103049 -5.36528e-06 -3.62522e-06 4.6901e-06 0.0005 1.46608e-07 
246 1 0.0176578 0.0376296 0.0435188 9.22843e-125 6.39156e-124 -3.22607e-12 -8.13086e-128 -5.63146e-127 0 0.0005 1.46608e-07 
247 1 0.0123716 0.0195659 0.016303 0.000107064 0.000986104 -0.00233834 -2.05352e-07 1.05052e-07 -2.2851e-07 0.0005 1.46608e-07 
248 1 0.0218229 0.0148971 0.0147312 0.000724455 -0.000736115 0.00103431 -1.16405e-07 -8.84497e-08 -6.48969e-07 0.0005 1.46608e-07 
250 1 0.0231253 0.0157071 0.0169394 0.00225676 0.00296729 -0.000591157 -6.92533e-08 1.93198e-07 5.31452e-08 0.0005 1.46608e-07 
251 1 0.0239281 0.0184671 0.0174705 0.0203376 0.00735573 -0.00515581 0 0 -1.43822e-06 0.0005 1.46608e-07 
252 1 0.0246159 0.0209872 0.0169574 -0.0109394 0.0210514 -0.00791042 0 0 -1.43822e-06 0.0005 1.46608e-07 
253 1 0.0193045 0.0227174 0.015304 0.0109652 -0.0121579 0.021072 0 0 -1.43822e-06 0.0005 1.46608e-07 
254 1 0.0249996 0.0198073 0.0170033 -0.000614737 0.0133593 0.0155605 1.72802e-06 3.89756e-07 -1.70505e-06 0.0005 1.46608e-07 
256 1 0.0224101 0.0161575 0.0159057 -0.00259881 0.0171776 0.0109798 1.10303e-07 -6.77159e-08 -4.88309e-07 0.0005 1.46608e-07 
257 1 0.0174617 0.0154441 0.0155618 -0.00454386 0.0175609 0.0162621 0 0 -1.43822e-06 0.0005 1.46608e-07 
258 1 0.0171605 0.0231287 0.0131548 0.00212022 0.00153236 -0.00220332 1.49735e-07 1.62646e-06 -4.28259e-06 0.0005 1.46608e-07 
259 1 0.0164337 0.0194876 0.0168484 0.0089785 0.0129129 0.0139514 -2.4465e-06 2.81279e-06 9.61826e-07 0.0005 1.46608e-07 