ITEM: TIMESTEP
2000000
ITEM: NUMBER OF ATOMS
293
ITEM: BOX BOUNDS ff ff ff
-0.02 0.43
-0.02 0.06
-0.02 0.07
ITEM: ATOMS id type x y z vx vy vz fx fy fz radius mass 
1 1 0.0211329 0.0234796 0.0151444 -0.00610237 0.0143661 -0.0212656 -0.000109312 -0.000282917 2.22345e-05 0.0005 1.46608e-07 
2 1 0.0182441 0.0240784 0.0127562 0.000572872 0.00151235 0.00281307 -3.16748e-05 1.67999e-05 3.72858e-05 0.0005 1.46608e-07 
3 1 0.0241966 0.0224288 0.0157611 0.0102645 -0.0247649 -0.020488 0 0 -1.43822e-06 0.0005 1.46608e-07 
4 1 0.0151195 0.0219712 0.0154677 0.00594022 0.00652009 -0.00107815 -4.57014e-06 -4.35388e-06 1.17473e-06 0.0005 1.46608e-07 
5 1 0.0237161 0.0152127 0.0150325 -0.00339307 0.00621264 -0.0128916 9.46891e-07 -3.97752e-07 8.29867e-07 0.0005 1.46608e-07 
6 1 0.0163508 0.0168133 0.016393 0.0110884 -0.00884753 -0.0135194 0 0 -1.43822e-06 0.0005 1.46608e-07 
7 1 0.0198247 0.0225936 0.0141775 -0.0152751 0.0444517 -0.0657515 0.000226268 -0.000368403 0.000671595 0.0005 1.46608e-07 
8 1 0.0197571 0.0215368 0.0161686 -0.00164918 0.00893525 -0.00535711 5.7833e-08 4.19372e-07 4.53966e-09 0.0005 1.46608e-07 
9 1 0.0209131 0.0239993 0.0129682 0.0110738 0.0132414 0.0195847 9.08511e-05 0.000392349 0.000236451 0.0005 1.46608e-07 
10 1 0.0188321 0.0231199 0.0162181 -0.00256587 0.000669522 -0.000187862 -5.47166e-06 -4.24363e-06 7.43457e-07 0.0005 1.46608e-07 
11 1 0.0182414 0.0215813 0.00803873 -5.87462e-05 -0.0103356 -0.0100719 1.92955e-09 1.44028e-08 2.67731e-08 0.0005 1.46608e-07 
12 1 0.0208022 0.0146071 0.01438 -0.000264326 -0.000651826 0.000231324 -4.02091e-08 -3.78945e-07 -4.46506e-07 0.0005 1.46608e-07 
13 1 0.0160961 0.0236371 0.0141781 0.00278553 0.00113066 0.00118534 -1.08006e-06 8.29496e-07 -5.25243e-07 0.0005 1.46608e-07 
14 1 0.018905 0.0239914 0.0133072 -0.00081394 -0.00215384 0.00672441 1.00376e-05 4.67e-05 -6.09036e-05 0.0005 1.46608e-07 
15 1 0.0250883 0.0214736 0.0160854 0.000797988 -0.0055091 -0.00246764 -5.42624e-08 2.42893e-07 -1.85008e-07 0.0005 1.46608e-07 
16 1 0.0204901 0.0231987 0.0132962 -0.0465207 0.0160164 -0.120869 -0.000178984 0.000446037 -0.000357151 0.0005 1.46608e-07 
17 1 0.0217325 0.023817 0.0133762 -0.00170108 -0.00253796 -0.00373811 0.000389381 0.000117333 0.000415332 0.0005 1.46608e-07 
18 1 0.0218799 0.0148695 0.0131303 0.000859435 0.00298558 0.0200085 -2.96911e-08 1.20956e-08 -2.83191e-08 0.0005 1.46608e-07 
19 1 0.0195223 0.024486 0.0136592 -0.00184367 0.00197416 -9.36581e-05 -9.1286e-06 -5.14856e-06 9.48804e-05 0.0005 1.46608e-07 
20 1 0.0402891 0.0167947 0.00659266 1.08031e-15 -8.55038e-15 -2.18584e-14 9.13009e-20 2.43522e-21 2.32934e-21 0.0005 1.46608e-07 
21 1 0.0233647 0.0210907 0.0172087 -0.00186036 0.0106764 -0.00924198 0 0 -1.43822e-06 0.0005 1.46608e-07 
22 1 0.0163194 0.0243282 0.0183864 0.00478474 0.00199827 0.00222593 -3.88789e-08 -1.18899e-07 -1.43508e-06 0.0005 1.46608e-07 
23 1 0.0174047 0.0240633 0.0128566 -0.000667655 0.00141141 -0.00144779 -1.44594e-07 1.73213e-06 -3.35342e-05 0.0005 1.46608e-07 
24 1 0.0234983 0.0184157 0.00725498 0.000216042 -0.020831 0.00317198 -1.61964e-09 -6.6187e-09 1.16637e-08 0.0005 1.46608e-07 
25 1 0.0198459 0.0144806 0.0146503 9.5404e-05 0.000133655 -0.00143198 3.8606e-07 6.53673e-07 7.82078e-08 0.0005 1.46608e-07 
26 1 0.0195472 0.0232792 0.0126103 0.0168708 0.0128485 -0.03474 0.000178795 -0.000503242 -6.41502e-05 0.0005 1.46608e-07 
27 1 0.0223677 0.0165771 0.0152079 -0.000615049 0.018707 0.0122005 6.38293e-08 -1.75434e-06 -3.3411e-07 0.0005 1.46608e-07 
28 1 0.0222241 0.0147756 0.0111757 0.000387808 -0.00494674 0.0207137 -3.24589e-08 1.86814e-08 -5.01118e-08 0.0005 1.46608e-07 
29 1 0.0155412 0.0237546 0.0149518 0.00163918 0.000533151 -0.00032551 -2.0205e-06 -7.66189e-07 1.13489e-06 0.0005 1.46608e-07 
30 1 0.0209417 0.0238413 0.0164776 -0.000116523 -0.0014413 0.000176909 5.31434e-07 3.22969e-06 4.43091e-06 0.0005 1.46608e-07 
31 1 0.0158981 0.023137 0.016882 0.00297605 0.00191441 0.00307201 3.85191e-09 1.05391e-06 3.79874e-06 0.0005 1.46608e-07 
32 1 0.0206995 0.0192622 0.0159463 6.0205e-05 0.0205722 -0.000816475 -2.97325e-09 4.76135e-09 -1.4314e-08 0.0005 1.46608e-07 
33 1 0.0220359 0.0217898 0.0150481 0.00432677 -0.00329371 -0.00388803 -0.000183527 -0.00014998 0.000212468 0.0005 1.46608e-07 
34 1 0.0199632 0.0222627 0.0153221 0.0116601 -0.0216778 0.0285585 -0.000119349 -7.5411e-05 0.000225109 0.0005 1.46608e-07 
35 1 0.0296393 0.0184913 0.00583954 2.51606e-14 -2.31868e-16 2.95161e-13 -2.64698e-23 1.44757e-24 0 0.0005 1.46608e-07 
36 1 0.0204088 0.0243822 0.0137753 -0.00720765 6.43716e-05 0.00780518 -5.74048e-05 4.492e-05 5.81127e-05 0.0005 1.46608e-07 
37 1 0.021598 0.0154609 0.0143281 0.000115026 0.0138948 0.0190696 4.83929e-08 -7.26368e-07 2.48824e-07 0.0005 1.46608e-07 
38 1 0.0213871 0.0162291 0.0149325 0.000287852 0.0171139 0.0140076 9.14803e-08 -3.21256e-09 -4.42248e-07 0.0005 1.46608e-07 
39 1 0.0208086 0.0228749 0.0161932 0.00254787 0.00732111 0.00287019 1.20201e-05 4.01114e-05 2.93362e-05 0.0005 1.46608e-07 
40 1 0.0229218 0.0237842 0.0149517 -1.87945e-05 -0.000951824 0.00107866 2.82317e-05 -1.48895e-06 3.06321e-05 0.0005 1.46608e-07 
41 1 0.01762 0.0237503 0.0136822 -0.000365352 0.00294315 -0.00750754 1.53302e-05 1.55593e-06 -4.77711e-06 0.0005 1.46608e-07 
42 1 0.0227177 0.0154322 0.00914798 0.000423239 -0.00708445 0.00980699 -4.22372e-09 6.87996e-09 1.56397e-08 0.0005 1.46608e-07 
43 1 0.018927 0.0224455 0.00901218 -0.00117443 -0.02171 -0.022084 -1.20187e-07 -3.42751e-07 -2.13789e-07 0.0005 1.46608e-07 
44 1 0.0191321 0.0231383 0.0148391 0.00613226 0.00334529 -0.0047142 -1.60578e-07 7.32871e-07 -8.79546e-07 0.0005 1.46608e-07 
45 1 0.0219663 0.0238103 0.0148636 -0.00406156 0.00361609 0.00201981 1.12439e-05 1.85568e-05 -1.99281e-06 0.0005 1.46608e-07 
46 1 0.0242464 0.0193685 0.00720194 -1.12063 -0.631309 -1.77698 0.0666762 0.045608 0.0698258 0.0005 1.46608e-07 
47 1 0.0230253 0.0233471 0.0142702 -7.50975e-05 0.000357222 -0.00228708 2.80814e-05 -1.38402e-05 8.71352e-05 0.0005 1.46608e-07 
48 1 0.0215975 0.0141992 0.0139273 0.00106716 0.000716667 -0.0001894 -1.14056e-07 6.77071e-08 -1.12581e-07 0.0005 1.46608e-07 
49 1 0.023928 0.0195464 0.0167332 0.00111694 0.0210842 -0.00190366 -2.03809e-07 6.82417e-07 -8.80024e-08 0.0005 1.46608e-07 
50 1 0.022008 0.0147778 0.0121428 0.000337988 0.00338389 0.0198982 -2.70071e-09 1.28524e-08 8.13771e-09 0.0005 1.46608e-07 
51 1 0.0196842 0.0232692 0.0106057 0.000250236 -0.00175521 -0.00813109 3.96098e-09 2.41474e-08 2.80369e-08 0.0005 1.46608e-07 
52 1 0.0200453 0.0240033 0.0126206 0.00610113 0.00306987 -0.0355578 0.000212617 -0.000209262 -5.08458e-05 0.0005 1.46608e-07 
53 1 0.0258103 0.0221968 0.0143029 0.000170987 0.0144229 -0.0157245 -1.56526e-09 -4.07219e-09 -1.0155e-08 0.0005 1.46608e-07 
54 1 0.0179382 0.0244626 0.0137904 -0.000337098 0.000549457 -0.00142996 1.31492e-06 6.47348e-07 -7.39063e-06 0.0005 1.46608e-07 
55 1 0.015029 0.023192 0.0155427 0.00157618 0.000875449 -0.000279169 -9.90478e-07 3.81129e-07 6.08455e-07 0.0005 1.46608e-07 
56 1 0.0184114 0.018541 0.0167365 0.000575174 0.0228409 0.0024847 1.96869e-06 -3.58841e-06 -3.32348e-06 0.0005 1.46608e-07 
57 1 0.016744 0.0239312 0.0135386 -9.97742e-05 0.00107105 -0.0016467 4.8565e-06 2.10254e-06 7.32898e-06 0.0005 1.46608e-07 
58 1 0.0190689 0.023973 0.012319 -0.00119038 0.00462439 -0.0132284 5.15472e-05 -0.000116121 -7.95587e-05 0.0005 1.46608e-07 
59 1 0.023132 0.0167805 0.00778156 0.000221188 -0.0177418 0.0111167 -1.01736e-06 1.88113e-07 -3.95439e-07 0.0005 1.46608e-07 
60 1 0.0220395 0.0176858 0.0157285 0.00571207 0.0109196 0.00448545 7.43566e-06 -6.0337e-06 5.4877e-06 0.0005 1.46608e-07 
61 1 0.0170722 0.0240512 0.014473 -0.000614141 -0.000295622 6.90501e-05 -9.12239e-07 -5.083e-07 -7.67654e-08 0.0005 1.46608e-07 
62 1 0.021278 0.0242923 0.0139942 -0.0037527 -0.00543067 0.00465494 0.000148225 7.15126e-05 3.20058e-05 0.0005 1.46608e-07 
63 1 0.0223596 0.0236816 0.0139619 -0.0045143 -0.00322406 0.000291216 0.000126502 2.71276e-05 3.88754e-05 0.0005 1.46608e-07 
64 1 0.0192196 0.0191509 0.0177184 -0.0075474 0.0213531 0.0113386 0 0 -1.43822e-06 0.0005 1.46608e-07 
65 1 0.0214566 0.0199127 0.0158717 -3.83954e-05 0.0209895 -0.00918339 0 0 -1.43822e-06 0.0005 1.46608e-07 
66 1 0.0192697 0.0238259 0.0156618 -0.00150465 -0.00393799 0.00127713 4.95349e-06 -9.94455e-06 1.24545e-05 0.0005 1.46608e-07 
67 1 0.0185824 0.0212071 0.0172016 -0.00100996 0.00930575 0.00749886 4.86568e-06 1.27372e-06 4.02194e-06 0.0005 1.46608e-07 
68 1 0.0214639 0.0233335 0.0141652 -0.020568 0.00138084 0.016631 0.000205436 0.00033135 -0.000285902 0.0005 1.46608e-07 
69 1 0.0167443 0.0231571 0.0147661 0.00140364 -0.000745192 0.00132262 8.83741e-09 6.22697e-07 -8.52716e-07 0.0005 1.46608e-07 
70 1 0.0224092 0.0229324 0.0150315 -0.00116327 -0.000588552 0.00570699 -5.99821e-05 2.43875e-05 -1.75371e-05 0.0005 1.46608e-07 
71 1 0.0183583 0.0226728 0.0153083 0.000513967 0.00177574 -0.000775855 -4.02865e-06 9.33163e-07 -1.97783e-06 0.0005 1.46608e-07 
72 1 0.0168915 0.0151564 0.013639 -0.00107649 -8.42974e-06 0.00087481 9.49319e-07 2.643e-07 4.84033e-07 0.0005 1.46608e-07 
73 1 0.0249752 0.0220189 0.0165585 0.000105572 -0.00186885 -0.000599577 -6.54667e-09 6.36605e-08 -4.14002e-08 0.0005 1.46608e-07 
74 1 0.021118 0.017319 0.015603 0.000495051 0.0179475 0.00790951 3.03978e-06 7.39656e-07 1.37904e-06 0.0005 1.46608e-07 
75 1 0.0257681 0.0202295 0.0166441 0.000321459 -0.000473731 0.000448973 -1.07925e-08 5.81004e-08 -1.71613e-08 0.0005 1.46608e-07 
76 1 0.018905 0.0231872 0.0103856 0.00118269 -0.00428595 -0.0151823 1.92583e-08 -5.5821e-08 4.85539e-08 0.0005 1.46608e-07 
77 1 0.0178966 0.0219552 0.0158676 0.000669925 -0.000459498 0.000195613 -1.892e-06 9.55818e-07 -7.89543e-07 0.0005 1.46608e-07 
78 1 0.0175467 0.0211268 0.016309 -0.000135047 0.0229543 -0.0109802 2.79211e-07 -1.56774e-07 8.49751e-07 0.0005 1.46608e-07 
79 1 0.0262847 0.0208036 0.0154646 0.00238968 0.0087094 -0.00238427 2.92329e-08 -1.46703e-07 7.52614e-08 0.0005 1.46608e-07 
80 1 0.0155907 0.0225301 0.0161492 0.00373468 0.00157099 0.0034893 1.39792e-06 1.29713e-07 -1.16278e-06 0.0005 1.46608e-07 
81 1 0.0203028 0.0164655 0.0161079 -0.0107411 -0.00870402 -0.00529041 2.45764e-07 1.11963e-07 1.11813e-07 0.0005 1.46608e-07 
82 1 0.0152999 0.0209036 0.0156726 0.00412706 0.00638372 0.00129133 -7.80163e-07 -2.64293e-06 -6.78203e-06 0.0005 1.46608e-07 
83 1 0.0198691 0.0230656 0.01591 -0.00239629 -0.00948773 0.0326774 -5.11621e-06 -1.22074e-05 -2.44824e-05 0.0005 1.46608e-07 
84 1 0.0183689 0.0143921 0.0139428 -0.000345429 0.000308269 -0.000682468 2.54576e-07 1.1968e-07 3.94261e-07 0.0005 1.46608e-07 
85 1 0.0143718 0.0206936 0.0158872 0.0028465 0.0116533 0.00109967 -7.1725e-07 1.60115e-06 -8.52753e-07 0.0005 1.46608e-07 
86 1 0.0218219 0.0188495 0.015941 -0.00352908 0.000357714 -0.00093554 1.04623e-07 5.19079e-07 6.2485e-08 0.0005 1.46608e-07 
87 1 0.0207819 0.0226476 0.0141009 -0.0449011 0.0284847 -0.0285779 0.00038951 2.0358e-05 0.00013748 0.0005 1.46608e-07 
88 1 0.014229 0.0228205 0.0152246 0.0024046 0.00364032 -0.00410505 6.56628e-07 2.21685e-07 4.10172e-07 0.0005 1.46608e-07 
89 1 0.0155328 0.0174988 0.0166075 5.09481e-06 -0.00200722 0.00888447 -2.70078e-05 -1.36347e-05 -1.03265e-07 0.0005 1.46608e-07 
90 1 0.0186885 0.0227859 0.00961038 0.00249763 -0.00760497 -0.015057 1.84247e-07 -7.84565e-09 -1.06159e-07 0.0005 1.46608e-07 
91 1 0.0175412 0.014811 0.0143159 -0.000106395 -5.89558e-05 0.000552116 2.25573e-07 -3.82132e-07 -7.72471e-07 0.0005 1.46608e-07 
92 1 0.0212156 0.0224887 0.0153009 -0.00174526 0.00980708 -0.0153812 0 0 -1.43822e-06 0.0005 1.46608e-07 
93 1 0.0175067 0.0138857 0.0139385 -0.000123708 1.27935e-05 0.0001748 2.37257e-07 -9.01627e-08 2.17399e-07 0.0005 1.46608e-07 
95 1 0.020026 0.024155 0.0162266 -0.000175171 -0.00133389 0.000690061 1.06905e-06 -6.31554e-06 2.58045e-06 0.0005 1.46608e-07 
96 1 0.0190983 0.0222395 0.0158231 -0.000202921 -0.00258031 0.00720723 1.74721e-05 1.89704e-05 -1.36447e-05 0.0005 1.46608e-07 
97 1 0.0259806 0.0215422 0.0149752 0.00192565 0.0140483 -0.0113252 4.40827e-09 -1.31105e-08 -1.06294e-08 0.0005 1.46608e-07 
98 1 0.0203587 0.0177251 0.0167174 -0.0414177 0.00286136 -0.0481311 0 0 -1.43822e-06 0.0005 1.46608e-07 
99 1 0.0182843 0.0204968 0.0165635 -8.72784e-05 0.024185 -0.00710494 -5.39366e-08 -3.73441e-08 -1.03645e-08 0.0005 1.46608e-07 
100 1 0.0184967 0.0240119 0.0145361 0.00137621 -0.0239708 -0.0174162 0 0 -1.43822e-06 0.0005 1.46608e-07 
101 1 0.020696 0.0218901 0.0160665 0.00526076 0.0134057 -0.00576432 3.27953e-06 -5.64639e-05 -5.02311e-06 0.0005 1.46608e-07 
102 1 0.0182398 0.0142746 0.0154729 -0.00215945 0.00291905 0.0032941 1.02908e-06 1.96221e-06 2.37975e-06 0.0005 1.46608e-07 
103 1 0.0202031 0.0238004 0.0153052 0.00234934 -0.00361162 -0.0105457 -5.07365e-05 -9.59828e-05 -0.000376505 0.0005 1.46608e-07 
104 1 0.01534 0.0165345 0.0163604 0.0036546 0.000590873 0.00351386 4.46001e-07 6.70937e-07 1.61745e-06 0.0005 1.46608e-07 
105 1 0.0152305 0.0231494 0.0143142 0.00492521 0.0022643 -0.00280901 -3.75277e-06 -1.20191e-06 1.62164e-06 0.0005 1.46608e-07 
106 1 0.0195686 0.0240013 0.014533 -0.00883001 0.00449097 -0.0150659 0 0 -1.43822e-06 0.0005 1.46608e-07 
108 1 0.0240779 0.020796 0.00770309 -1.44185e-05 -0.0197839 -0.0104559 -3.00121e-10 -7.70274e-09 9.64646e-09 0.0005 1.46608e-07 
109 1 0.0172332 0.0160907 0.0148273 0.00330634 -0.0118619 -0.0122597 0 0 -1.43822e-06 0.0005 1.46608e-07 
110 1 0.0232178 0.019241 0.0174588 -0.0108476 0.00825318 0.0158135 0 0 -1.43822e-06 0.0005 1.46608e-07 
111 1 0.020847 0.0234754 0.0119167 -0.0130426 -0.00129004 -0.0185243 7.29924e-05 1.56947e-05 -0.000138606 0.0005 1.46608e-07 
112 1 0.0189375 0.0215277 0.00791577 0.00321932 0.000312612 -0.000828369 -3.8853e-09 9.94363e-08 8.79508e-08 0.0005 1.46608e-07 
113 1 0.022194 0.0206165 0.0167995 -0.017839 -0.0237541 -0.0237747 0 0 -1.43822e-06 0.0005 1.46608e-07 
114 1 0.0197136 0.0224648 0.00893041 0.000244518 -0.0125405 -0.0180407 -3.84157e-08 5.06637e-08 6.06897e-08 0.0005 1.46608e-07 
115 1 0.0232899 0.0162749 0.0149657 7.56031e-05 0.0177306 0.0140417 -8.0694e-08 3.46242e-07 8.50371e-07 0.0005 1.46608e-07 
116 1 0.0156035 0.0217691 0.016798 -0.00147299 0.00882178 0.0160849 1.41551e-06 8.59843e-06 3.05973e-06 0.0005 1.46608e-07 
117 1 0.0258847 0.0191951 0.0167722 -0.00167079 0.0217355 -0.000663905 -8.913e-08 -4.33677e-07 -8.20957e-07 0.0005 1.46608e-07 
118 1 0.0207382 0.0146495 0.0162782 0.0081055 0.0364378 0.00706949 0 0 -1.43822e-06 0.0005 1.46608e-07 
119 1 0.0235303 0.0229898 0.0152279 -0.00980453 -0.0189274 -0.0564419 0 0 -1.43822e-06 0.0005 1.46608e-07 
120 1 0.0209038 0.0182843 0.0158923 0.000493086 0.0206432 0.003716 -3.53148e-11 2.92366e-09 -1.54596e-08 0.0005 1.46608e-07 
121 1 0.0204394 0.0235618 0.0142837 -0.0198662 0.00675912 -0.0314453 -0.000234404 9.46342e-05 -0.00021821 0.0005 1.46608e-07 
122 1 0.0177365 0.0232723 0.0146855 0.000319872 -0.000590582 -0.030902 0 0 -1.43822e-06 0.0005 1.46608e-07 
123 1 0.0243802 0.0157399 0.0155744 -0.00258823 -0.00237511 -0.00202203 1.77181e-08 -1.00837e-07 -5.44115e-08 0.0005 1.46608e-07 
124 1 0.0235002 0.0197309 0.00718975 10.1642 -4.43182 1.33057 -0.478865 0.21219 0.594346 0.0005 1.46608e-07 
125 1 0.0246967 0.022913 0.00957897 0.00153924 -0.00342329 -0.00829349 9.58367e-09 -1.89996e-08 -4.90643e-08 0.0005 1.46608e-07 
126 1 0.0155487 0.0199738 0.0159288 0.00185447 0.00969846 0.0136403 1.07857e-05 7.73372e-06 -1.62414e-05 0.0005 1.46608e-07 
127 1 0.022626 0.0168556 0.0165943 -0.00554565 0.00951021 0.0153732 0 0 -1.43822e-06 0.0005 1.46608e-07 
128 1 0.0198459 0.0234908 0.0117735 0.0234983 0.0037156 -0.0135037 5.34396e-05 -0.000138013 -0.000317823 0.0005 1.46608e-07 
129 1 0.0171962 0.0148917 0.0152509 -0.000366186 0.000335779 -0.000458486 1.01396e-06 -1.64847e-07 -3.08739e-06 0.0005 1.46608e-07 
130 1 0.0222934 0.0234024 0.0167744 -0.000840688 0.000566425 -0.000288143 6.30937e-07 4.39393e-07 9.13777e-07 0.0005 1.46608e-07 
131 1 0.0216611 0.0233531 0.0159837 0.0038129 0.00183817 0.0046207 3.05888e-06 -2.05346e-06 -2.8632e-05 0.0005 1.46608e-07 
132 1 0.0165222 0.0221991 0.0157646 0.0049064 -0.00568273 0.00484001 0 0 -1.43822e-06 0.0005 1.46608e-07 
133 1 0.0220933 0.0196671 0.0172923 0.00518947 -0.00337944 0.0217829 0 0 -1.43822e-06 0.0005 1.46608e-07 
135 1 0.0169211 0.0238803 0.0165806 0.00038237 -0.000192517 -0.000497316 1.06386e-07 2.17747e-06 -3.64424e-06 0.0005 1.46608e-07 
136 1 0.016598 0.0147639 0.0126898 0.00468978 -0.00201727 -0.00262466 -1.45058e-07 2.46613e-08 1.46358e-07 0.0005 1.46608e-07 
137 1 0.0240913 0.0168512 0.0162459 0.0091293 0.00550726 0.000570966 0 0 -1.43822e-06 0.0005 1.46608e-07 
138 1 0.0188548 0.0140119 0.0129507 -0.000259357 -0.0015963 0.00265071 -1.73173e-09 -1.15624e-08 1.91971e-08 0.0005 1.46608e-07 
139 1 0.0145134 0.0225906 0.0141774 0.0051423 0.00323675 -0.00424084 -9.49906e-07 -5.48404e-07 -3.50723e-07 0.0005 1.46608e-07 
140 1 0.0246269 0.0226231 0.00908478 0.00157183 0.000791415 -0.00257348 -4.11486e-09 -1.29866e-07 -1.30047e-07 0.0005 1.46608e-07 
141 1 0.0249946 0.016441 0.0160776 0.00287244 0.00689522 0.00321611 -1.25639e-07 7.54506e-08 -8.06519e-08 0.0005 1.46608e-07 
142 1 0.0198813 0.0139967 0.0130053 0.000241355 0.000461042 -0.00104249 -2.17914e-07 -9.40239e-08 1.37522e-07 0.0005 1.46608e-07 
143 1 0.023443 0.0206243 0.018265 0.15603 -0.00558809 0.0343038 0 0 -1.43822e-06 0.0005 1.46608e-07 
144 1 0.0232267 0.0221168 0.0158064 0.00546236 -0.00128861 -0.0368787 0 0 -1.43822e-06 0.0005 1.46608e-07 
145 1 0.0145828 0.0197218 0.0159458 0.00171515 0.0122149 0.00853067 3.6997e-06 -2.26743e-06 9.44924e-06 0.0005 1.46608e-07 
146 1 0.0188901 0.0202808 0.0174177 -0.00328947 0.00913289 0.00789112 1.04992e-06 -8.03469e-07 1.70686e-06 0.0005 1.46608e-07 
147 1 0.0212788 0.023229 0.0127829 -0.000779398 -0.00266847 -0.0274103 0.000164201 0.000424002 0.000648967 0.0005 1.46608e-07 
148 1 0.0216913 0.0224207 0.0144009 -0.0703685 -0.0193794 0.0692624 -0.000356507 6.04626e-05 -0.000133426 0.0005 1.46608e-07 
149 1 0.0248901 0.019093 0.0167546 -0.00192277 0.0239986 -0.000257594 6.27968e-07 3.36157e-07 -7.63323e-08 0.0005 1.46608e-07 
150 1 0.017823 0.0229779 0.0161374 0.00675899 0.00464513 -0.00859771 0 0 -1.43822e-06 0.0005 1.46608e-07 
151 1 0.0167762 0.0184224 0.0159403 0.000819104 0.0101036 0.0201517 5.93237e-07 1.23576e-05 1.03956e-06 0.0005 1.46608e-07 
152 1 0.0138666 0.0156384 0.0155187 0.001605 -0.00169624 -0.00126842 2.50489e-09 -6.02301e-08 3.11395e-08 0.0005 1.46608e-07 
153 1 0.0159422 0.0200311 0.0172813 -0.00956726 0.00231276 0.019335 0 0 -1.43822e-06 0.0005 1.46608e-07 
154 1 0.0169827 0.0174478 0.015939 0.00147792 0.0128931 0.0090721 -3.28386e-06 2.36802e-06 3.0989e-06 0.0005 1.46608e-07 
155 1 0.0186492 0.0195801 0.0167465 -0.00175211 0.01529 -0.000627821 -2.30876e-07 -3.54465e-06 9.85173e-07 0.0005 1.46608e-07 
156 1 0.0172221 0.0235743 0.0155402 -0.000131186 6.76993e-05 1.78332e-05 7.78991e-07 2.75761e-07 -5.93476e-07 0.0005 1.46608e-07 
157 1 0.0159334 0.0228613 0.0152704 0.00159681 -0.00292783 0.00129684 -9.13525e-07 1.63512e-06 1.81006e-07 0.0005 1.46608e-07 
158 1 0.0177957 0.0233684 0.0171069 0.00361074 -0.00132135 0.00119625 -1.30723e-06 -2.5306e-06 2.32258e-06 0.0005 1.46608e-07 
159 1 0.0218082 0.0154272 0.0153575 0.00313825 -0.00779897 -0.0404674 0 0 -1.43822e-06 0.0005 1.46608e-07 
160 1 0.0173521 0.0201831 0.0167692 0.00499249 0.0167422 0.00651724 -5.35803e-06 3.7691e-06 -2.84083e-06 0.0005 1.46608e-07 
161 1 0.0208367 0.0140677 0.0132918 -0.00034334 -0.000694913 0.00156926 -7.90415e-08 8.55671e-08 -2.63162e-07 0.0005 1.46608e-07 
162 1 0.0193509 0.0167456 0.0162385 -0.00463485 0.00256601 0.00297153 1.3797e-07 2.80092e-07 -1.49625e-07 0.0005 1.46608e-07 
163 1 0.0165509 0.0215028 0.0164856 0.00553624 0.0119191 -0.00027568 0 0 -1.43822e-06 0.0005 1.46608e-07 
164 1 0.020563 0.0203493 0.015749 2.92315e-07 0.019619 -0.00596262 1.10369e-10 -3.54443e-08 -3.0921e-09 0.0005 1.46608e-07 
165 1 0.0223403 0.0147115 0.0143731 0.0326765 0.0151326 -0.0617499 0 0 -1.43822e-06 0.0005 1.46608e-07 
166 1 0.0197615 0.0155107 0.0153874 -0.0111018 0.00712013 0.00600486 0 0 -1.43822e-06 0.0005 1.46608e-07 
167 1 0.0238764 0.0205474 0.016534 -0.000123583 0.0239232 -0.00693634 5.45701e-07 3.79352e-07 -1.3676e-07 0.0005 1.46608e-07 
168 1 0.012923 0.0208598 0.0164638 -0.0047293 0.0110798 -0.00306158 -7.0512e-07 -3.92828e-06 2.30415e-06 0.0005 1.46608e-07 
169 1 0.015484 0.0146578 0.0143242 -0.000338046 0.000120747 0.000386474 -2.82684e-07 -3.89556e-08 3.95777e-07 0.0005 1.46608e-07 
170 1 0.0142533 0.0214926 0.0153312 0.00531998 0.00604279 -0.00877314 1.7194e-06 -4.40864e-06 -8.58104e-06 0.0005 1.46608e-07 
171 1 0.0144943 0.0191944 0.0168453 0.00378473 0.017132 0.0170542 0 0 -1.43822e-06 0.0005 1.46608e-07 
172 1 0.020358 0.0229625 0.0150364 0.0147883 -0.013447 -0.00920304 -2.28572e-05 -0.000218749 -6.50916e-05 0.0005 1.46608e-07 
173 1 0.0162409 0.0192604 0.0159979 0.00152845 0.0101494 0.0211206 1.43242e-06 7.65786e-06 -5.06286e-06 0.0005 1.46608e-07 
174 1 0.0188417 0.0241525 0.0165043 1.068e-05 -0.000236933 1.44397e-05 -1.33911e-06 -1.50473e-06 2.61456e-06 0.0005 1.46608e-07 
175 1 0.0170583 0.0242182 0.0175116 0.000481809 -0.000466915 -0.00096742 -5.11872e-07 6.62467e-09 1.86453e-06 0.0005 1.46608e-07 
176 1 0.0195942 0.0232415 0.0135091 0.0123833 0.0425934 -0.0173931 0.000201801 -0.000223752 -0.000119818 0.0005 1.46608e-07 
177 1 0.0226295 0.0224108 0.0170594 -0.0218473 0.00192626 -0.0122341 0 0 -1.43822e-06 0.0005 1.46608e-07 
178 1 0.0240178 0.021501 0.0161882 0.00240317 0.0196654 -0.0327199 0 0 -1.43822e-06 0.0005 1.46608e-07 
179 1 0.0219526 0.0208435 0.0155828 0.000464345 0.0130203 -0.0052028 -3.63051e-08 8.7968e-07 -4.72181e-07 0.0005 1.46608e-07 
180 1 0.0243537 0.0208421 0.0174917 0.0274594 -0.0574049 -0.0607262 0 0 -1.43822e-06 0.0005 1.46608e-07 
181 1 0.0178796 0.0239638 0.0163082 -0.000404382 -0.000651663 -0.000432049 -3.0701e-06 -4.32849e-07 -8.43055e-07 0.0005 1.46608e-07 
182 1 0.0151549 0.0225568 0.0172196 0.00335954 0.0124103 0.0129156 -6.7674e-07 -5.43902e-07 -2.31811e-06 0.0005 1.46608e-07 
183 1 0.0180995 0.0243643 0.0171976 0.00118634 -0.000325815 -0.00125624 -8.8686e-07 1.66322e-07 2.65721e-06 0.0005 1.46608e-07 
184 1 0.0159275 0.0237354 0.0176826 0.00288696 0.00211561 0.00146107 0 0 -1.43822e-06 0.0005 1.46608e-07 
185 1 0.0228057 0.0153576 0.0154198 0.00388439 -0.000370818 0.0055256 2.65524e-07 -1.10098e-06 3.10482e-07 0.0005 1.46608e-07 
186 1 0.0218111 0.0167341 0.0160241 -0.00232353 0.0153074 0.00884704 2.52774e-06 -2.31735e-06 -3.59958e-07 0.0005 1.46608e-07 
187 1 0.0233262 0.0174565 0.00751383 0.000433029 -0.0207506 0.0068 -1.19613e-07 1.43344e-07 -4.57713e-07 0.0005 1.46608e-07 
188 1 0.0184467 0.0150109 0.0148289 -0.00115375 0.0101127 0.0128059 6.20438e-07 5.14918e-07 1.42684e-06 0.0005 1.46608e-07 
189 1 0.0142497 0.0222193 0.0160233 0.00893619 0.0025109 -0.00151209 1.04458e-06 1.40804e-07 -1.10115e-06 0.0005 1.46608e-07 
190 1 0.0253311 0.0233072 0.0123438 0.00131387 0.00250328 -0.018865 -1.73301e-05 -4.49567e-06 -3.56188e-05 0.0005 1.46608e-07 
191 1 0.0186811 0.0214142 0.0162021 -0.00520526 0.000178278 0.000166938 -2.12931e-05 -2.22304e-05 1.48408e-05 0.0005 1.46608e-07 
192 1 0.0158375 0.0149759 0.0133144 0.00582623 -0.00133246 -0.00528995 7.4627e-08 1.11883e-07 -2.89954e-07 0.0005 1.46608e-07 
193 1 0.0235437 0.0176331 0.0165447 0.00308049 0.0106388 0.00445932 0 0 -1.43822e-06 0.0005 1.46608e-07 
194 1 0.0224972 0.0158079 0.0145821 0.000419583 0.0157901 0.0157065 -2.00077e-07 -1.2842e-06 1.24651e-06 0.0005 1.46608e-07 
195 1 0.0212524 0.0210695 0.016566 -0.0313306 -0.031632 -0.0290815 0 0 -1.43822e-06 0.0005 1.46608e-07 
196 1 0.0147985 0.0187501 0.0159913 0.00143865 0.0133445 0.00918041 8.27326e-07 -3.55101e-06 -9.304e-07 0.0005 1.46608e-07 
197 1 0.0226149 0.0190919 0.016662 0.00433987 0.00937162 0.00698703 -5.06018e-07 6.10776e-07 8.8553e-07 0.0005 1.46608e-07 
198 1 0.0214413 0.0187183 0.017263 -0.0118455 -0.0145982 0.0232604 1.75507e-06 7.56935e-06 7.82921e-06 0.0005 1.46608e-07 
200 1 0.0247745 0.0201098 0.0166471 -0.00182348 0.0204647 -0.00437909 2.17718e-07 7.20733e-07 -1.39243e-07 0.0005 1.46608e-07 
201 1 0.0229511 0.0172928 0.0155919 0.00268363 0.0191907 0.00822023 -5.30587e-08 -5.25519e-08 7.8166e-08 0.0005 1.46608e-07 
202 1 0.01394 0.0221288 0.0146528 0.00247209 0.00712682 -0.0073437 8.34806e-08 -5.32988e-08 -6.98454e-07 0.0005 1.46608e-07 
203 1 0.0201759 0.021377 0.0152623 0.0204287 -0.0349701 0.0260543 3.18284e-05 8.1468e-05 -2.64426e-05 0.0005 1.46608e-07 
204 1 0.0232489 0.0163954 0.0159576 -0.00156789 0.0135939 0.00801881 0 0 -1.43822e-06 0.0005 1.46608e-07 
205 1 0.0191404 0.01772 0.0165953 0.00242864 0.00954785 0.00378479 -1.40255e-07 3.99546e-07 7.57907e-08 0.0005 1.46608e-07 
206 1 0.0229973 0.0200259 0.0167066 0.0112548 0.00709266 -0.00716107 0 0 -1.43822e-06 0.0005 1.46608e-07 
207 1 0.0224776 0.0227766 0.0160165 0.00483007 0.000409291 0.00453605 4.68999e-06 3.68996e-06 1.92302e-05 0.0005 1.46608e-07 
208 1 0.015013 0.0177951 0.0158032 0.000764846 0.0133422 0.00747449 -3.35032e-07 -7.6653e-06 -2.82454e-06 0.0005 1.46608e-07 
209 1 0.021132 0.0214941 0.0152114 0.0297746 -0.0249616 0.00923918 8.37068e-05 0.000464268 -0.000288154 0.0005 1.46608e-07 
210 1 0.0162743 0.0208949 0.0157408 0.00405313 0.00511232 0.00211668 -1.88221e-08 -6.0363e-06 -4.83649e-06 0.0005 1.46608e-07 
211 1 0.0234988 0.0186232 0.0167144 0.000415416 0.0115951 0.00023797 0 0 -1.43822e-06 0.0005 1.46608e-07 
212 1 0.01745 0.0146302 0.0119597 0.000316226 -0.000328048 0.000684806 1.26516e-08 -1.36932e-08 3.03006e-08 0.0005 1.46608e-07 
213 1 0.02053 0.0148665 0.0153126 -0.0137384 0.00307689 -0.00524286 0 0 -1.43822e-06 0.0005 1.46608e-07 
215 1 0.0189238 0.0159436 0.0157302 0.000925288 0.00904234 0.00728144 -2.74544e-08 -6.02317e-08 -3.69075e-08 0.0005 1.46608e-07 
216 1 0.0147456 0.0212999 0.016589 0.00517731 0.0182078 -0.00710573 -3.3063e-06 -2.22523e-06 2.07582e-06 0.0005 1.46608e-07 
217 1 0.0243975 0.0181829 0.0166831 0.000670627 0.0201643 0.00297108 -8.47554e-08 3.56216e-07 7.08527e-08 0.0005 1.46608e-07 
218 1 0.0252167 0.020978 0.0169267 0.000433857 -0.00160721 -0.000129681 -3.54882e-08 5.61006e-08 -4.42668e-08 0.0005 1.46608e-07 
219 1 0.0160302 0.017404 0.0156525 0.00136601 0.0150068 0.0089609 -9.56782e-06 -4.13007e-06 -5.01694e-06 0.0005 1.46608e-07 
220 1 0.0152059 0.016889 0.0154352 0.00200152 0.0128947 0.00805216 9.74977e-08 -9.81733e-06 -2.35079e-06 0.0005 1.46608e-07 
221 1 0.0216113 0.0180211 0.016567 -0.00221269 -0.00265552 0.00970674 -1.11327e-05 5.53572e-06 8.4014e-06 0.0005 1.46608e-07 
222 1 0.0134441 0.0216321 0.016101 0.00401478 0.00683634 -0.00195335 7.33985e-07 3.63429e-07 -4.80458e-08 0.0005 1.46608e-07 
223 1 0.0155102 0.0222583 0.014594 0.00522473 0.00168098 -0.00420746 -3.2963e-06 -1.41784e-06 1.24458e-06 0.0005 1.46608e-07 
224 1 0.0183071 0.0236496 0.0154606 -0.000564862 0.000312317 -0.000228174 -1.27064e-06 -3.20617e-07 -2.12577e-06 0.0005 1.46608e-07 
225 1 0.0173804 0.0220232 0.0167213 -0.00101606 0.00254554 -0.00115014 -9.08856e-07 -9.85721e-08 2.38968e-07 0.0005 1.46608e-07 
226 1 0.0169347 0.0228997 0.0169091 0.00229731 0.0029541 0.000144917 1.8002e-06 -3.79362e-06 2.97608e-06 0.0005 1.46608e-07 
227 1 0.0225735 0.0178435 0.0167746 -0.0111219 0.0208324 -0.0137689 0 0 -1.43822e-06 0.0005 1.46608e-07 
228 1 0.0183992 0.0223276 0.0166475 -0.000793089 0.000500634 5.78907e-06 -1.25071e-06 -1.11281e-06 1.9991e-06 0.0005 1.46608e-07 
229 1 0.0156833 0.0207827 0.0166568 -0.00253341 0.0106247 0.0167682 -3.89208e-06 1.2313e-05 7.43753e-06 0.0005 1.46608e-07 
230 1 0.0185322 0.0150647 0.0160126 -0.000894775 0.00245029 -0.00127778 0 0 -1.43822e-06 0.0005 1.46608e-07 
231 1 0.0224576 0.019888 0.0158752 0.00024684 0.0203238 -0.00384964 -9.08392e-07 -5.75616e-08 5.3197e-07 0.0005 1.46608e-07 
232 1 0.0200463 0.0224368 0.0166692 0.00284355 -0.000911669 -0.001271 -2.34401e-06 7.93042e-06 6.18132e-06 0.0005 1.46608e-07 
233 1 0.0196678 0.0197592 0.0167416 0.0100169 0.00598145 -0.00335576 -4.7617e-07 9.17847e-07 -2.29192e-09 0.0005 1.46608e-07 
234 1 0.0173379 0.0226011 0.0153477 0.00143126 0.000379229 0.000313146 1.3199e-06 8.4205e-07 -1.115e-06 0.0005 1.46608e-07 
235 1 0.0132173 0.0188779 0.0168072 -0.040493 -0.00122477 0.0248655 0 0 -1.43822e-06 0.0005 1.46608e-07 
236 1 0.0172962 0.0201682 0.0181098 0.00181085 0.012557 0.00940552 0 0 -1.43822e-06 0.0005 1.46608e-07 
237 1 0.020341 0.0200806 0.0178465 -0.0021896 -0.0350456 -0.0356621 0 0 -1.43822e-06 0.0005 1.46608e-07 
238 1 0.0202547 0.0216869 0.0172973 0.0137527 -0.0217862 -0.0263472 0 0 -1.43822e-06 0.0005 1.46608e-07 
239 1 0.0169175 0.0149093 0.0162109 -0.000931352 0.00293747 -0.00160455 -1.61437e-06 -3.4356e-07 4.28627e-06 0.0005 1.46608e-07 
240 1 0.0247939 0.0212732 0.0186468 0.00615363 -0.00313183 0.0115206 -3.94554e-07 -1.02254e-07 -1.09325e-06 0.0005 1.46608e-07 
241 1 0.0216315 0.0220683 0.0173854 0.0534906 -0.0094537 -0.0118425 0 0 -1.43822e-06 0.0005 1.46608e-07 
242 1 0.0178983 0.0155839 0.0154392 -0.00369794 0.00976324 0.0095297 3.52747e-07 -1.59312e-07 1.11664e-07 0.0005 1.46608e-07 
243 1 0.0181937 0.0190364 0.0175995 -0.0140303 0.00619199 0.00145939 5.3189e-06 2.88162e-07 1.66351e-06 0.0005 1.46608e-07 
244 1 0.0229537 0.0182734 0.0177379 0.0942624 -0.0457944 -0.00820733 0 0 -1.43822e-06 0.0005 1.46608e-07 
245 1 0.0168447 0.0195973 0.0174239 -0.00130664 0.0102278 0.0113857 0 0 -1.43822e-06 0.0005 1.46608e-07 
246 1 0.019061 0.0245663 0.0173877 0.001225 -0.000226832 -0.000796464 5.18197e-07 2.45343e-07 2.20198e-07 0.0005 1.46608e-07 
247 1 0.015209 0.0211079 0.0174763 -0.0177592 0.00639303 0.00371205 0 0 -1.43822e-06 0.0005 1.46608e-07 
248 1 0.019973 0.0167493 0.0170253 -0.0108762 -0.0147878 0.00591448 0 0 -1.43822e-06 0.0005 1.46608e-07 
249 1 0.0176996 0.0208161 0.0174608 -0.00236316 0.0129444 0.0115168 -5.86345e-06 -2.20794e-06 2.03375e-06 0.0005 1.46608e-07 