ITEM: TIMESTEP
4000000
ITEM: NUMBER OF ATOMS
232
ITEM: BOX BOUNDS ff ff ff
-0.02 0.43
-0.02 0.06
-0.02 0.07
ITEM: ATOMS id type x y z vx vy vz fx fy fz radius mass 
1 1 0.0200626 0.0229497 0.0149823 0.00464962 0.00214582 -0.000611546 7.47954e-07 -4.12835e-07 2.31194e-07 0.0005 1.46608e-07 
2 1 0.0184248 0.0240079 0.012556 -0.000734927 -0.000257272 -0.00204239 -2.92452e-06 2.94465e-07 -3.79012e-06 0.0005 1.46608e-07 
4 1 0.0206613 0.0145376 0.0129586 0.00416529 -0.00111834 0.0148123 2.51922e-07 -3.88378e-08 4.44892e-07 0.0005 1.46608e-07 
6 1 0.0189947 0.0230151 0.0148483 0.001783 0.00259042 0.00140477 -3.15844e-06 -6.15307e-07 5.52388e-06 0.0005 1.46608e-07 
7 1 0.0223045 0.0232681 0.0165551 0.000113373 -0.00743133 -0.0132578 -7.72918e-08 -1.1975e-08 2.83944e-07 0.0005 1.46608e-07 
8 1 0.0239085 0.0228903 0.00944654 0.00811857 0.000848049 0.0011355 8.20396e-06 -9.68755e-06 -1.03296e-05 0.0005 1.46608e-07 
9 1 0.021126 0.0239989 0.0131662 -7.601e-05 -4.41685e-05 0.00126292 6.80713e-07 1.91746e-07 4.48865e-07 0.0005 1.46608e-07 
10 1 0.0162026 0.0229554 0.0159756 0.00119406 0.000797273 -0.000322287 -1.2095e-06 -5.52168e-07 -1.18329e-06 0.0005 1.46608e-07 
11 1 0.0195476 0.0227391 0.0178714 -0.070686 0.00135462 -0.0219713 0 0 -1.43822e-06 0.0005 1.46608e-07 
12 1 0.0237959 0.0223126 0.0145136 0.000655225 0.00262715 -0.00189201 7.74433e-09 -1.64422e-07 -4.25489e-08 0.0005 1.46608e-07 
13 1 0.0207946 0.0238614 0.014815 0.000128299 -6.78791e-05 0.000712511 2.22463e-06 -9.11957e-07 -1.08347e-06 0.0005 1.46608e-07 
14 1 0.0191481 0.0242106 0.0130549 -0.00165519 -0.000525533 -4.11791e-05 3.49645e-06 1.42051e-06 6.78643e-07 0.0005 1.46608e-07 
15 1 0.0215413 0.0233519 0.0144862 6.4031e-05 -0.000992416 -0.000791754 7.23146e-07 3.67101e-06 -5.47121e-06 0.0005 1.46608e-07 
16 1 0.0177938 0.0194918 0.0167669 6.79731e-05 0.0246036 -0.00210516 -1.04874e-07 3.23275e-07 -3.91827e-08 0.0005 1.46608e-07 
17 1 0.0219408 0.0237911 0.0135252 0.000209868 -1.8561e-05 -0.000223275 5.32621e-07 1.6941e-07 -4.69809e-07 0.0005 1.46608e-07 
18 1 0.0245983 0.0192748 0.0159408 -0.00188654 0.0172583 -0.00455684 -5.90633e-07 -4.32279e-06 4.59039e-06 0.0005 1.46608e-07 
19 1 0.0196991 0.0244957 0.0136269 -0.000410407 -0.000269904 9.91629e-05 5.65151e-07 1.38364e-06 1.57399e-07 0.0005 1.46608e-07 
20 1 0.0402891 0.0167947 0.00659266 9.356e-16 -8.5526e-15 -2.18637e-14 8.06667e-21 5.82335e-21 -2.11758e-21 0.0005 1.46608e-07 
21 1 0.0244485 0.0171453 0.0164342 1.41371e-09 0.0232126 0.00902873 5.33552e-12 6.39641e-09 -1.57565e-08 0.0005 1.46608e-07 
22 1 0.0180609 0.023388 0.0120664 0.00313688 0.00291037 -0.0105951 -9.71024e-06 -2.60889e-06 -4.75672e-06 0.0005 1.46608e-07 
23 1 0.0174847 0.0240354 0.0128641 -0.00066803 0.000552379 -0.00239738 -3.9267e-06 -7.69209e-08 -7.50259e-06 0.0005 1.46608e-07 
24 1 0.0194112 0.0200235 0.0161956 -0.0198304 0.0786823 0.0355029 0 0 -1.43822e-06 0.0005 1.46608e-07 
25 1 0.0208345 0.021473 0.0162731 0.00463746 -0.000425997 -0.00702937 0 0 -1.43822e-06 0.0005 1.46608e-07 
26 1 0.0219518 0.0208686 0.0076586 0.0003072 -0.0158045 -0.00864528 7.28959e-09 8.33612e-09 3.09541e-08 0.0005 1.46608e-07 
27 1 0.0197182 0.0237737 0.0154382 0.00111713 -0.00192098 -0.0042459 0 0 -1.43822e-06 0.0005 1.46608e-07 
28 1 0.0218456 0.0213302 0.0162481 0.00902304 0.0109325 -0.00857196 0 0 -1.43822e-06 0.0005 1.46608e-07 
29 1 0.0159786 0.0236429 0.0139458 0.000467595 0.0016723 0.000973645 1.66044e-08 -2.76104e-07 8.38148e-07 0.0005 1.46608e-07 
30 1 0.0226353 0.0230039 0.00975261 0.000780947 -0.00103583 -0.00831476 6.67799e-07 -5.95289e-07 -1.46787e-06 0.0005 1.46608e-07 
31 1 0.0172204 0.0211367 0.0163556 0.00576247 0.0222567 -0.00935349 -4.98253e-07 2.68989e-07 -2.60869e-07 0.0005 1.46608e-07 
32 1 0.0243104 0.0202383 0.0159571 0.000681515 0.0167877 -0.00360505 7.08316e-07 -4.2361e-06 -4.51565e-07 0.0005 1.46608e-07 
33 1 0.0250558 0.0172504 0.0155757 -5.7398e-08 0.0188524 0.00811249 -7.87641e-11 5.61312e-08 1.44444e-08 0.0005 1.46608e-07 
35 1 0.0296393 0.0184913 0.00583954 2.5161e-14 -2.3146e-16 2.95161e-13 0 -1.1442e-21 0 0.0005 1.46608e-07 
36 1 0.0205602 0.0243675 0.0138145 -0.000274106 -0.000400403 0.000543458 1.65318e-06 1.60165e-06 -1.65778e-06 0.0005 1.46608e-07 
37 1 0.0221875 0.0173723 0.0164763 -2.38823e-09 0.0233549 0.00811045 -1.24454e-14 5.71209e-09 -1.58723e-08 0.0005 1.46608e-07 
38 1 0.0201536 0.0183201 0.0158921 0.000141595 0.0217393 0.00384293 1.54092e-06 1.11036e-06 9.14186e-07 0.0005 1.46608e-07 
39 1 0.0202752 0.0144947 0.0142336 -0.000145625 -0.00715369 0.0111526 0 0 -1.43822e-06 0.0005 1.46608e-07 
40 1 0.0228327 0.0234906 0.0152916 -0.000311555 4.78201e-05 -5.18115e-05 -3.61638e-06 -1.425e-06 7.68667e-07 0.0005 1.46608e-07 
41 1 0.0184999 0.0237001 0.0133678 -0.00271152 -0.000403861 0.00393074 5.00838e-08 1.60671e-06 -9.36403e-06 0.0005 1.46608e-07 
43 1 0.0213333 0.0181229 0.0166738 -2.65814e-09 0.0243191 0.00456734 -7.64007e-15 3.28478e-09 -1.65598e-08 0.0005 1.46608e-07 
45 1 0.0233606 0.023178 0.0103003 0.00303272 -0.00216544 -0.0121343 -6.80741e-07 -7.1127e-07 -1.8178e-06 0.0005 1.46608e-07 
47 1 0.0229061 0.0234597 0.0142918 5.01168e-06 0.000422357 -0.000521565 1.49164e-07 -6.77986e-09 4.52853e-07 0.0005 1.46608e-07 
48 1 0.014206 0.0160248 0.014771 -0.00394281 0.00583348 0.00690742 2.29875e-07 -1.07931e-07 -2.24864e-08 0.0005 1.46608e-07 
50 1 0.0251541 0.0164568 0.0149622 0.00017079 0.0117688 0.0102009 1.8782e-09 -1.01939e-08 -1.91006e-08 0.0005 1.46608e-07 
51 1 0.0216695 0.0195555 0.0071864 -0.00131093 -0.0192458 -0.00329184 -3.94602e-05 -0.000100221 -8.3795e-06 0.0005 1.46608e-07 
52 1 0.0214896 0.0187618 0.00718668 0.000463772 -0.0195877 0.00192475 -7.69933e-06 -6.41021e-06 -1.1437e-05 0.0005 1.46608e-07 
53 1 0.0275057 0.0187613 0.0071972 0.000933141 -0.0187952 0.00187978 -5.5983e-09 -1.76309e-08 8.00947e-09 0.0005 1.46608e-07 
54 1 0.0184406 0.0244585 0.0138042 -0.000742201 0.000120742 0.00101862 1.73403e-06 9.1846e-07 -4.29597e-06 0.0005 1.46608e-07 
55 1 0.0165823 0.02298 0.0149919 -0.00343085 0.0197183 -0.022056 2.44181e-07 2.59845e-07 -3.2121e-07 0.0005 1.46608e-07 
56 1 0.0231135 0.0204409 0.0165823 0.00573367 0.0237855 -0.00680867 -1.17022e-06 3.24738e-07 2.11193e-07 0.0005 1.46608e-07 
57 1 0.0173324 0.0244063 0.0139088 -5.22909e-05 0.000587201 0.000243463 4.37887e-07 -1.26992e-07 1.06624e-06 0.0005 1.46608e-07 
58 1 0.0206613 0.015561 0.00896284 0.000572647 -0.0109711 0.0143395 4.65606e-08 2.43003e-07 -2.82564e-07 0.0005 1.46608e-07 
59 1 0.0210183 0.0157788 0.0145145 0.000406055 0.0022719 0.000734247 -1.01449e-08 -3.03434e-07 -3.45284e-07 0.0005 1.46608e-07 
61 1 0.013548 0.0211802 0.0179683 7.71155e-05 -0.00287438 -0.00350054 0 0 -1.43822e-06 0.0005 1.46608e-07 
62 1 0.0214113 0.024254 0.0141112 4.1051e-06 -0.00019128 4.93165e-05 1.00614e-06 5.84648e-07 -3.05662e-07 0.0005 1.46608e-07 
63 1 0.0222424 0.0240062 0.014529 5.45623e-05 -4.46529e-05 -0.000244699 7.28e-07 6.83988e-07 -5.72423e-07 0.0005 1.46608e-07 
64 1 0.0152268 0.0212238 0.0162871 0.0041132 0.00344409 -0.00284208 -1.06648e-07 3.88154e-08 -9.17386e-08 0.0005 1.46608e-07 
65 1 0.0239971 0.0153981 0.0153038 -0.00110653 0.00107392 0.0013133 -5.43586e-08 -2.30428e-07 -2.48305e-07 0.0005 1.46608e-07 
66 1 0.0142718 0.0191294 0.0159582 0.00134004 0.00674896 0.000227454 -3.6592e-08 4.28217e-07 -1.24508e-06 0.0005 1.46608e-07 
68 1 0.0237178 0.0224115 0.0161923 -0.00144273 0.000597952 -0.00112418 1.16849e-06 -3.83529e-07 1.53439e-07 0.0005 1.46608e-07 
69 1 0.0133311 0.0198048 0.0168418 0.0318697 -0.0243775 -0.0216116 0 0 -1.43822e-06 0.0005 1.46608e-07 
71 1 0.0210718 0.0193059 0.0167816 0.00242304 0.0193988 0.000203114 -2.94956e-06 1.8875e-07 -1.63396e-07 0.0005 1.46608e-07 
72 1 0.0158679 0.0220272 0.0158148 -0.000330541 0.000893407 -0.000830601 1.26706e-06 2.05761e-09 1.97166e-08 0.0005 1.46608e-07 
73 1 0.0257392 0.0203703 0.0169817 -0.00459266 -0.0415901 -0.0214093 0 0 -1.43822e-06 0.0005 1.46608e-07 
75 1 0.0256298 0.0193065 0.0159361 -0.00117548 0.00665147 1.02392e-05 2.66885e-07 8.10438e-07 -3.05779e-07 0.0005 1.46608e-07 
76 1 0.0215437 0.0222577 0.0167627 0.0204376 -0.006215 -0.00314411 0 0 -1.43822e-06 0.0005 1.46608e-07 
78 1 0.0198256 0.0247193 0.0175719 0.00852536 -0.047021 -0.12214 -1.65689e-07 -2.84566e-07 -1.00755e-06 0.0005 1.46608e-07 
79 1 0.0281838 0.0216326 0.00802147 0.00129727 -0.0123407 -0.00877195 -5.1703e-09 -1.82809e-08 -2.32714e-09 0.0005 1.46608e-07 
80 1 0.0239342 0.0210344 0.0319976 0.11433 -0.0332298 0.0814957 0 0 -1.43822e-06 0.0005 1.46608e-07 
84 1 0.0208617 0.0228273 0.016286 0.00444455 0.00216652 0.00426351 0 0 -1.43822e-06 0.0005 1.46608e-07 
85 1 0.0167212 0.023912 0.0133986 0.000259091 0.002944 -0.00255089 8.39552e-07 8.39204e-08 -1.78767e-06 0.0005 1.46608e-07 
86 1 0.0234687 0.022078 0.0171156 -0.0554487 0.0400874 -0.107846 0 0 -1.43822e-06 0.0005 1.46608e-07 
87 1 0.0231954 0.0233574 0.0118939 0.000542376 0.00219799 -0.020637 -1.99705e-07 2.07146e-08 -7.34641e-07 0.0005 1.46608e-07 
88 1 0.0152158 0.0232915 0.0146225 -0.000211004 -0.000398562 -0.000118575 -6.84175e-07 -8.94193e-07 1.31517e-08 0.0005 1.46608e-07 
89 1 0.0158802 0.0152484 0.0151147 -0.000290033 0.00293976 -0.0026449 -9.17184e-08 2.15531e-07 -1.86355e-07 0.0005 1.46608e-07 
90 1 0.0232119 0.0228882 0.00954623 0.00251522 -0.00381089 -0.00900512 1.26728e-05 -6.01636e-06 -2.52706e-06 0.0005 1.46608e-07 
91 1 0.0185077 0.0149237 0.0147748 -0.00361459 -0.0243396 -0.0395205 2.15664e-08 -3.90757e-07 -4.13063e-07 0.0005 1.46608e-07 
92 1 0.0195017 0.02191 0.0148996 -0.0155768 -0.00838476 0.00681078 -2.30496e-07 1.36619e-06 -1.0368e-06 0.0005 1.46608e-07 
93 1 0.0200043 0.0146575 0.0122147 0.00144507 0.002927 0.0172925 2.46712e-07 -9.36906e-08 -3.0752e-08 0.0005 1.46608e-07 
95 1 0.0188555 0.0139911 0.0129852 6.64464e-06 0.00174442 -0.00289619 -1.07396e-09 -1.87401e-08 3.11211e-08 0.0005 1.46608e-07 
97 1 0.027966 0.0206604 0.00751233 0.000144589 -0.0194496 -0.00757087 -7.85943e-10 -1.15649e-08 6.71323e-09 0.0005 1.46608e-07 
98 1 0.0240042 0.0208904 0.0168723 -0.0364859 -0.0319407 -0.064359 0 0 -1.43822e-06 0.0005 1.46608e-07 
101 1 0.0192564 0.0240625 0.0144439 -0.000856233 0.000477004 0.00294285 1.38109e-05 -4.25976e-06 -2.07159e-06 0.0005 1.46608e-07 
102 1 0.0210239 0.0204713 0.0165673 0.056538 -0.0135305 0.0170519 0 0 -1.43822e-06 0.0005 1.46608e-07 
103 1 0.0135971 0.0215679 0.015177 -0.000230951 -0.000905071 -0.000848854 -7.63112e-07 -8.93918e-07 -4.05242e-08 0.0005 1.46608e-07 
104 1 0.0186668 0.0234741 0.0115465 0.00629277 0.000174581 -0.0046663 -2.20528e-06 6.00893e-06 4.21029e-05 0.0005 1.46608e-07 
105 1 0.0166052 0.0240544 0.0145008 5.04013e-05 0.000682797 0.000167099 -3.12217e-07 -5.33709e-07 7.64554e-07 0.0005 1.46608e-07 
106 1 0.016641 0.0148187 0.0146286 0.000626157 0.00085032 0.000322481 9.82743e-08 4.16836e-07 -8.16607e-08 0.0005 1.46608e-07 
108 1 0.0264524 0.0150128 0.00996855 0.000126659 -0.00818066 0.0200575 -4.47051e-10 8.00368e-09 1.05433e-08 0.0005 1.46608e-07 
109 1 0.0197638 0.0146448 0.013387 0.00333874 0.00776266 0.00990292 0 0 -1.43822e-06 0.0005 1.46608e-07 
110 1 0.0230119 0.0224039 0.00891534 0.00175556 -0.00854929 -0.00987401 3.54204e-07 -2.26805e-06 -1.1184e-06 0.0005 1.46608e-07 
111 1 0.0200142 0.0210044 0.0166308 0.0392821 0.0252389 0.147054 0 0 -1.43822e-06 0.0005 1.46608e-07 
112 1 0.0208898 0.0176559 0.0157635 9.03091e-05 0.0217215 0.00710841 4.4834e-08 -1.87815e-07 1.25315e-08 0.0005 1.46608e-07 
114 1 0.0212802 0.0178101 0.00742538 -9.41692e-06 -0.0151523 0.00353382 5.30362e-09 -2.60177e-08 -1.15532e-08 0.0005 1.46608e-07 
115 1 0.0175585 0.0230893 0.0148049 -0.000265051 0.00395896 -0.0012265 -3.18829e-06 -3.37873e-06 1.77577e-06 0.0005 1.46608e-07 
116 1 0.0206952 0.0203016 0.0212815 -0.0826181 -0.0807468 0.0991374 0 0 -1.43822e-06 0.0005 1.46608e-07 
117 1 0.0162267 0.0212176 0.0162791 0.00385428 0.00260054 -0.00235317 -2.11203e-07 5.60959e-07 -2.10084e-07 0.0005 1.46608e-07 
118 1 0.0256655 0.0205122 0.0156614 0.00222211 0.00119818 -0.00170541 -1.55032e-06 -1.10206e-06 1.96546e-06 0.0005 1.46608e-07 
119 1 0.0169066 0.0221218 0.0157681 -0.000991247 0.0306525 -0.0224344 -9.48831e-09 9.47166e-08 -1.1892e-07 0.0005 1.46608e-07 
120 1 0.0176423 0.0228208 0.0137545 0.000883302 0.00836821 -0.0119362 1.23862e-06 6.63018e-07 6.98322e-07 0.0005 1.46608e-07 
121 1 0.0211137 0.0238374 0.0166755 -0.000633675 -0.000613496 -0.000607613 0 0 -1.43822e-06 0.0005 1.46608e-07 
123 1 0.0175306 0.0151079 0.0149825 0.00123541 -0.000802564 0.00171888 1.43677e-07 -3.54422e-08 -1.93324e-07 0.0005 1.46608e-07 
124 1 0.0228704 0.0192665 0.00719238 -0.00727624 -0.00773463 -0.0011709 -1.24762e-06 3.8248e-05 -1.07697e-05 0.0005 1.46608e-07 
125 1 0.0269955 0.0165219 0.00801194 0.000492467 -0.0163711 0.0120812 -1.93381e-09 -1.33228e-09 1.44534e-08 0.0005 1.46608e-07 
126 1 0.017705 0.0236387 0.0139825 -0.00169846 0.00226942 0.00240335 5.7269e-07 1.41331e-06 4.58382e-06 0.0005 1.46608e-07 
127 1 0.0132571 0.0190766 0.0159544 0.00167143 0.000159949 -0.00177468 -2.65966e-07 2.59346e-06 2.83159e-06 0.0005 1.46608e-07 
128 1 0.0158899 0.0147795 0.0175594 0.0150215 0.00049408 -0.0179862 1.55677e-07 3.74708e-07 -6.40839e-07 0.0005 1.46608e-07 
129 1 0.0200796 0.0213032 0.0154712 -0.000822073 -0.00489672 0.0203269 0 0 -1.43822e-06 0.0005 1.46608e-07 
131 1 0.0210554 0.0228165 0.0151781 -0.0103876 0.000580645 -0.00589632 0 0 -1.43822e-06 0.0005 1.46608e-07 
132 1 0.0178967 0.0238648 0.0160803 -0.000285188 -0.000426408 -0.00217776 -6.35014e-07 -1.28642e-06 2.17167e-06 0.0005 1.46608e-07 
133 1 0.0206584 0.0236791 0.0157886 -0.00374848 -0.0047839 0.00321548 2.08237e-06 1.57774e-06 5.66615e-06 0.0005 1.46608e-07 
135 1 0.0216085 0.0233259 0.0158394 -0.00684986 0.00109309 -0.00611426 -2.60193e-07 -2.14424e-07 -1.69947e-06 0.0005 1.46608e-07 
136 1 0.0228105 0.0147705 0.0188675 -0.138971 0.163407 -0.43943 0 0 -1.43822e-06 0.0005 1.46608e-07 
138 1 0.0136554 0.0199889 0.0158584 0.00523462 7.55683e-05 -0.00205859 0 0 -1.43822e-06 0.0005 1.46608e-07 
139 1 0.0199786 0.0173233 0.0158094 0.000259921 0.021468 0.00905574 1.70192e-07 -5.73383e-07 -2.07113e-07 0.0005 1.46608e-07 
140 1 0.0267035 0.0156765 0.00875438 0.00109014 -0.010893 0.0142292 -5.35909e-07 -3.80063e-07 1.1394e-07 0.0005 1.46608e-07 
141 1 0.0182412 0.0227442 0.0154576 0.000568079 -0.0243126 -0.00951109 0 0 -1.43822e-06 0.0005 1.46608e-07 
142 1 0.023408 0.0180339 0.0166544 1.06374e-10 0.0242588 0.00476071 -3.61121e-15 3.2274e-09 -1.65445e-08 0.0005 1.46608e-07 
143 1 0.0246311 0.0210316 0.0158152 0.00782321 0.00650671 -0.00728836 5.42303e-06 -1.66275e-05 -3.0807e-05 0.0005 1.46608e-07 
144 1 0.0220646 0.0194194 0.0167472 0.00264634 0.0196419 -0.000763052 6.92469e-07 1.73535e-06 1.28196e-06 0.0005 1.46608e-07 
145 1 0.0183479 0.0204801 0.0158453 -0.00210447 0.0422004 0.0198808 0 0 -1.43822e-06 0.0005 1.46608e-07 
147 1 0.0237656 0.0222844 0.0153563 -0.0029327 0.00370545 -0.00361934 4.07703e-07 -1.2179e-06 4.85184e-08 0.0005 1.46608e-07 
148 1 0.0228464 0.015539 0.0154358 0.0110684 0.0182585 0.0158106 0 0 -1.43822e-06 0.0005 1.46608e-07 
149 1 0.0257111 0.0183435 0.0163535 0.00213326 0.00279016 0.00301307 -1.73014e-08 3.24953e-08 2.90911e-08 0.0005 1.46608e-07 
150 1 0.0174805 0.0145236 0.0141726 0.000645379 -0.000713756 0.00143308 -3.47515e-07 1.25181e-07 -2.67134e-07 0.0005 1.46608e-07 
151 1 0.0204931 0.0151335 0.00966279 0.00099834 -0.00860457 0.0143885 2.23905e-08 8.2648e-08 -1.30795e-07 0.0005 1.46608e-07 
152 1 0.0186212 0.0228348 0.013836 -0.00208016 0.0015702 0.00138051 7.56442e-06 1.63196e-06 -1.06665e-05 0.0005 1.46608e-07 
153 1 0.0199104 0.0137027 0.0136905 0.0014715 0.00125481 -0.00143759 1.02387e-07 2.17286e-07 -9.79886e-07 0.0005 1.46608e-07 
154 1 0.0250555 0.020111 0.0157765 -0.000159574 0.00903787 -0.00196774 1.91136e-06 -8.64255e-06 3.88392e-06 0.0005 1.46608e-07 
155 1 0.0221102 0.0228532 0.015115 0.000219811 -0.00117621 4.92558e-05 -4.14248e-06 1.22375e-06 -1.57773e-06 0.0005 1.46608e-07 
156 1 0.0189752 0.0198372 0.0235342 -0.103901 -0.0192632 -0.082576 0 0 -1.43822e-06 0.0005 1.46608e-07 
157 1 0.0182793 0.023916 0.0147302 0.000685815 -0.000103179 0.000963436 -1.13286e-06 8.34226e-06 -2.35029e-06 0.0005 1.46608e-07 
158 1 0.0284883 0.0265316 0.0342458 -0.0378656 -0.0292918 -0.160005 0 0 -1.43822e-06 0.0005 1.46608e-07 
161 1 0.0228218 0.022377 0.0156753 -0.0131756 -0.00544619 0.0098581 0 0 -1.43822e-06 0.0005 1.46608e-07 
162 1 0.0138136 0.0206918 0.0165524 0.00212167 0.00747552 -0.00583293 0 0 -1.43822e-06 0.0005 1.46608e-07 
163 1 0.0148799 0.0221596 0.0157348 0.000200304 -0.00155227 0.000488687 -2.44441e-07 -2.13158e-06 1.51474e-06 0.0005 1.46608e-07 
166 1 0.0151034 0.0147596 0.0147177 1.8469e-05 -0.000401417 0.000806757 -1.63081e-08 3.99736e-08 5.67826e-09 0.0005 1.46608e-07 
167 1 0.0206824 0.0240126 0.0123672 -0.000478057 -0.00153021 -0.000122804 6.00246e-08 -5.1031e-08 2.88965e-07 0.0005 1.46608e-07 
168 1 0.0171573 0.0235077 0.0118646 0.000408131 0.000764457 -0.00923551 -1.37808e-06 -1.82039e-06 -2.30848e-06 0.0005 1.46608e-07 
169 1 0.0157 0.0227584 0.0168175 -0.00366621 -0.000557411 -0.00261452 0 0 -1.43822e-06 0.0005 1.46608e-07 
170 1 0.018574 0.0194798 0.0160875 0.0031167 0.0280878 -0.00627453 0 0 -1.43822e-06 0.0005 1.46608e-07 
171 1 0.014425 0.0174928 0.0156753 3.13066e-10 0.0192137 0.00739374 1.92343e-15 5.09684e-09 -1.27338e-08 0.0005 1.46608e-07 
172 1 0.0225361 0.0145708 0.014227 0.00278053 -0.000286781 -0.00389595 6.33348e-08 -7.34045e-09 -1.29609e-06 0.0005 1.46608e-07 
173 1 0.0234122 0.0165509 0.0171278 -0.061397 0.0211394 -0.12027 0 0 -1.43822e-06 0.0005 1.46608e-07 
176 1 0.0192289 0.0209539 0.0158674 -0.0314883 0.0876689 0.0445971 -2.20289e-06 -1.27975e-05 -7.20305e-06 0.0005 1.46608e-07 
179 1 0.0164075 0.0235968 0.0167179 0.000644364 -0.00245882 -0.00502358 5.03575e-07 -3.12721e-07 -4.30232e-07 0.0005 1.46608e-07 
180 1 0.0244357 0.0186547 0.0167866 0.00739205 0.0363607 -0.0118139 0 0 -1.43822e-06 0.0005 1.46608e-07 
182 1 0.0192896 0.0142187 0.0142806 0.00203896 0.0024021 -0.00109983 7.02899e-07 -1.28432e-07 -8.34046e-07 0.0005 1.46608e-07 
183 1 0.0155517 0.0200461 0.0166394 -0.000192136 0.0240828 -0.00483851 -2.64814e-07 -2.86762e-07 2.51121e-08 0.0005 1.46608e-07 
184 1 0.0199636 0.0241911 0.0163231 -0.000874969 -0.007193 -0.0160546 7.15427e-08 -3.6186e-07 -8.35352e-07 0.0005 1.46608e-07 
185 1 0.0251646 0.0215885 0.0164975 -0.0143248 -0.00544477 -0.0214245 0 0 -1.43822e-06 0.0005 1.46608e-07 
187 1 0.0258299 0.0148864 0.0125112 0.000232622 0.00508318 0.019877 -7.78021e-10 1.17619e-08 4.64633e-09 0.0005 1.46608e-07 
188 1 0.0228522 0.0215095 0.0161756 0.000674586 0.00567187 -0.00390563 -4.92146e-08 1.38898e-06 -6.49403e-07 0.0005 1.46608e-07 
189 1 0.0152117 0.023081 0.0155984 0.000107004 -0.000539424 1.47015e-05 -4.74207e-07 -1.1072e-06 3.8883e-07 0.0005 1.46608e-07 
190 1 0.0272376 0.0174963 0.00748631 3.85066e-05 -0.0214037 0.00703362 5.26136e-10 -1.13267e-09 1.14019e-08 0.0005 1.46608e-07 
192 1 0.0212034 0.0213585 0.0172042 0.0587479 0.0658575 -0.0184321 0 0 -1.43822e-06 0.0005 1.46608e-07 
193 1 0.0221134 0.0204269 0.0165858 0.00142911 0.0100185 -0.00253424 -1.11928e-07 1.22005e-06 -4.33474e-07 0.0005 1.46608e-07 
195 1 0.017371 0.0231497 0.0129297 0.000570201 0.00520862 -0.0158137 -8.67894e-07 8.79313e-07 -6.59467e-07 0.0005 1.46608e-07 
196 1 0.0190636 0.0171117 0.0155669 3.22299e-05 0.0209269 0.0102838 1.94225e-08 -3.79263e-08 -6.37006e-08 0.0005 1.46608e-07 
197 1 0.0201478 0.0235604 0.0141867 -0.00249209 0.000210748 0.00424341 8.78102e-06 -3.31537e-06 -1.56905e-05 0.0005 1.46608e-07 
200 1 0.0304879 0.0169274 0.00646272 -1.73121e-14 5.86004e-14 1.44079e-13 -1.15144e-19 -6.02452e-20 7.19978e-21 0.0005 1.46608e-07 
201 1 0.0220212 0.0166222 0.0263806 0.0687578 -0.109015 -0.035159 0 0 -1.43822e-06 0.0005 1.46608e-07 
202 1 0.0195791 0.0213322 0.0174744 -0.040706 0.0468607 0.104645 0 0 -1.43822e-06 0.0005 1.46608e-07 
203 1 0.0186781 0.0141821 0.0179715 0.0364484 0.111136 -0.21001 0 0 -1.43822e-06 0.0005 1.46608e-07 
204 1 0.0262285 0.0148032 0.0108881 0.000256866 -0.00348492 0.0211623 -1.12495e-09 9.10838e-09 9.04369e-09 0.0005 1.46608e-07 
205 1 0.0230542 0.0158023 0.0163913 -0.0176011 -0.000485638 0.0296631 -1.9689e-06 1.46827e-06 -4.07129e-06 0.0005 1.46608e-07 
206 1 0.0158282 0.014557 0.0140499 -0.00184979 0.00338801 -0.00345422 2.12882e-07 -1.44525e-07 -3.44634e-08 0.0005 1.46608e-07 
209 1 0.0195262 0.0149393 0.0149323 -0.000168311 0.000800704 0.00174642 -1.4779e-07 7.92486e-09 -1.50359e-06 0.0005 1.46608e-07 
211 1 0.0229527 0.0233784 0.0109892 0.00196042 -0.00154928 -0.0128895 3.11475e-09 -3.46875e-07 -2.75457e-06 0.0005 1.46608e-07 
215 1 0.0198242 0.0220495 0.0164689 -0.00643044 0.0307916 0.00565598 0 0 -1.43822e-06 0.0005 1.46608e-07 
216 1 0.0184009 0.0143133 0.0138322 0.000363938 0.00014846 0.001111 2.09704e-07 -3.30268e-07 1.12885e-06 0.0005 1.46608e-07 
217 1 0.0247057 0.0200631 0.0172156 0.00277078 0.196233 -0.0692843 0 0 -1.43822e-06 0.0005 1.46608e-07 
218 1 0.0260201 0.0193753 0.017074 0.0128428 -0.045036 -0.0568139 0 0 -1.43822e-06 0.0005 1.46608e-07 
219 1 0.0187356 0.0236478 0.0155815 -0.000608359 -0.00256946 -0.00295001 4.99211e-06 -2.33188e-06 -1.89325e-06 0.0005 1.46608e-07 
220 1 0.015735 0.0215004 0.0171026 0.00367618 0.003658 -0.00273638 -2.21549e-08 2.16246e-07 -4.55819e-07 0.0005 1.46608e-07 
221 1 0.0225733 0.0226305 0.00919646 0.000970251 -0.00608585 -0.0101248 8.91961e-07 -2.74219e-07 -4.51188e-07 0.0005 1.46608e-07 
222 1 0.0143778 0.0229353 0.0150345 0.000173117 0.00166715 0.00160037 -3.96696e-07 -2.59134e-07 4.92272e-07 0.0005 1.46608e-07 
223 1 0.019188 0.0180656 0.0158396 -0.0002354 0.0222009 0.00518313 1.81531e-07 4.74516e-07 6.24649e-07 0.0005 1.46608e-07 
224 1 0.0233115 0.0149132 0.01476 0.000594411 -0.00102305 0.00293926 -4.19889e-08 -2.06266e-07 -3.65857e-07 0.0005 1.46608e-07 
225 1 0.0166548 0.0142223 0.0135783 -0.000109842 0.000476078 -0.00125873 6.06019e-08 -5.06894e-08 1.74843e-07 0.0005 1.46608e-07 
226 1 0.014497 0.0199684 0.0164535 0.00707093 0.00899874 -0.001099 2.91041e-08 -3.65026e-07 -1.71801e-06 0.0005 1.46608e-07 
229 1 0.0162918 0.0159567 0.0157123 0.00416053 0.00472051 0.0025233 -8.07725e-08 -1.22875e-07 -1.29085e-07 0.0005 1.46608e-07 
231 1 0.0248279 0.0182945 0.0158882 7.49703e-05 0.0226559 0.00451765 3.10064e-08 4.63696e-08 -6.02399e-08 0.0005 1.46608e-07 
232 1 0.0181936 0.0209711 0.0167147 -0.00780884 -0.0251618 0.0713149 0 0 -1.43822e-06 0.0005 1.46608e-07 
233 1 0.0175994 0.0141105 0.0132698 0.000219794 -0.000386763 0.00120836 -1.2514e-07 -8.71083e-08 2.74088e-07 0.0005 1.46608e-07 
234 1 0.0203512 0.0149125 0.0104338 -0.00037375 -0.00575789 0.0210757 7.64578e-09 -1.4619e-09 -1.07946e-08 0.0005 1.46608e-07 
235 1 0.012867 0.0210205 0.0165421 -0.000114115 0.000150895 -0.000197787 3.56055e-07 -2.57376e-07 -5.9657e-07 0.0005 1.46608e-07 
236 1 0.0211719 0.0147876 0.0145825 0.00189356 0.00653974 -0.0114523 0 0 -1.43822e-06 0.0005 1.46608e-07 
237 1 0.0154437 0.0191883 0.0176327 0.259438 -0.0958107 -0.0404592 0 0 -1.43822e-06 0.0005 1.46608e-07 
240 1 0.0197949 0.0229807 0.0160429 -0.0148065 -0.00901106 -0.0117182 0 0 -1.43822e-06 0.0005 1.46608e-07 
241 1 0.0126299 0.0199665 0.0158603 -0.00175946 -0.000198217 -0.00135277 3.18605e-06 3.76324e-06 4.86457e-07 0.0005 1.46608e-07 
242 1 0.0222907 0.0199358 0.00731363 -0.00828624 -0.0330214 -0.0066923 -3.52727e-05 -0.000171795 -2.6134e-05 0.0005 1.46608e-07 
243 1 0.0216454 0.0139044 0.0144898 -3.05935e-05 -5.40221e-05 2.47122e-05 -2.0424e-07 -3.45709e-08 -5.51678e-08 0.0005 1.46608e-07 
245 1 0.0196 0.0226096 0.0141636 0.00116379 7.97669e-05 0.00144041 -1.69606e-06 -1.17374e-05 1.46437e-05 0.0005 1.46608e-07 
246 1 0.0176693 0.0376552 0.0435188 9.7286e-317 -9.67828e-317 -2.35252e-12 0 0 0 0.0005 1.46608e-07 
247 1 0.0173219 0.0233254 0.0123464 0.00206522 0.00310693 -0.0143552 -7.73245e-07 -2.02853e-06 -7.13433e-07 0.0005 1.46608e-07 
248 1 0.0245263 0.0217587 0.0153421 -0.000192077 0.00277909 -0.00157881 -7.60366e-07 -4.20924e-06 -7.72024e-06 0.0005 1.46608e-07 
251 1 0.0220656 0.0150971 0.0149458 0.00783052 0.00613224 -0.000232054 0 0 -1.43822e-06 0.0005 1.46608e-07 
253 1 0.0190705 0.0219392 0.0158066 -0.0210576 0.0788998 0.00384889 2.20289e-06 1.27975e-05 4.32661e-06 0.0005 1.46608e-07 
256 1 0.0209918 0.0151681 0.0136608 0.00602222 0.00490044 0.00908422 1.04713e-06 2.52713e-07 6.90041e-07 0.0005 1.46608e-07 
257 1 0.0191011 0.0236926 0.0165116 -0.000863429 0.0085694 -0.00377209 0 0 -1.43822e-06 0.0005 1.46608e-07 
258 1 0.0205829 0.0147435 0.0112322 -0.000273255 -0.00464468 0.0227788 1.85989e-07 -5.26826e-09 1.3391e-07 0.0005 1.46608e-07 
259 1 0.0142217 0.0214357 0.0159615 -0.0225472 0.00657921 -0.0208612 0 0 -1.43822e-06 0.0005 1.46608e-07 
260 1 0.017279 0.0162999 0.0159806 0.000482632 0.00452554 0.00196821 -1.33467e-08 -4.34508e-08 -1.24458e-08 0.0005 1.46608e-07 
261 1 0.014691 0.0154433 0.0141159 -0.0023608 0.00514004 0.00878303 1.78223e-08 2.06115e-07 2.31517e-07 0.0005 1.46608e-07 
263 1 0.0193648 0.0234474 0.0136718 -0.00278286 0.000646658 0.00519547 7.16782e-06 -4.37244e-06 -1.78918e-05 0.0005 1.46608e-07 
264 1 0.021603 0.0147801 0.012726 -3.87022e-05 -0.000237176 0.000301361 7.70652e-08 -1.05202e-07 5.27391e-08 0.0005 1.46608e-07 
265 1 0.0169588 0.0133338 0.0207088 0.0366247 0.0820222 -0.270655 0 0 -1.43822e-06 0.0005 1.46608e-07 
268 1 0.0214283 0.0221073 0.0157767 0.00114768 0.00387627 -0.00795974 0 0 -1.43822e-06 0.0005 1.46608e-07 
269 1 0.0642012 -0.015559 0.0289961 0.293873 -0.238257 -0.675441 0 0 -1.43822e-06 0.0005 1.46608e-07 
272 1 0.0208906 0.0139019 0.0136955 0.0032372 -0.00468627 0.012273 -5.35577e-07 -4.43499e-07 6.57935e-09 0.0005 1.46608e-07 
273 1 0.0202847 0.0204013 0.0158778 -0.0139958 0.10556 0.0518308 0 0 -1.43822e-06 0.0005 1.46608e-07 
274 1 0.0205284 0.0192457 0.0159443 0.00141795 0.0229144 -0.000194838 -2.05397e-06 1.42306e-06 6.89414e-07 0.0005 1.46608e-07 
275 1 0.0193965 0.0160337 0.0147733 -0.000566171 0.00697411 0.00143261 0 0 -1.43822e-06 0.0005 1.46608e-07 
276 1 0.0261161 0.0183716 0.0172673 -0.00117508 -0.0329362 0.00562143 -3.69814e-09 9.44776e-07 -2.95486e-07 0.0005 1.46608e-07 
277 1 0.0149789 0.0220663 0.0167648 4.73543e-05 0.000232976 0.000354314 1.53399e-07 1.95337e-08 1.07054e-07 0.0005 1.46608e-07 
278 1 0.0141126 0.0214138 0.0171765 0.00474248 0.0032818 1.85735e-05 -5.37694e-07 1.42751e-07 -1.51505e-06 0.0005 1.46608e-07 
279 1 0.019586 0.0153837 0.0140372 0.00270446 0.00462639 0.00831194 7.78774e-08 -1.67391e-07 -2.9842e-07 0.0005 1.46608e-07 
280 1 0.0139046 0.0223572 0.015703 -5.73941e-05 -0.000721862 -4.74388e-05 -3.38029e-07 -1.11397e-06 9.63884e-07 0.0005 1.46608e-07 
281 1 0.0181091 0.0222815 0.0145714 0.00754903 0.0178878 -0.0191601 -3.01215e-07 3.47155e-07 -4.63733e-07 0.0005 1.46608e-07 
282 1 0.0169506 0.0236119 0.0158784 0.00115956 -0.00176534 -0.00472046 -1.22263e-06 5.92148e-07 2.85987e-07 0.0005 1.46608e-07 
284 1 0.0204448 0.0147646 0.0152866 -7.52037e-05 -0.00438856 -0.00109235 6.31834e-07 2.80088e-07 -9.93137e-07 0.0005 1.46608e-07 
285 1 0.0216422 0.0139573 0.0255817 0.0113756 -0.0694573 -0.150564 0 0 -1.43822e-06 0.0005 1.46608e-07 
286 1 0.025038 0.0193778 0.0189512 -0.0459762 -0.0192953 -0.0565834 0 0 -1.43822e-06 0.0005 1.46608e-07 
287 1 0.013124 0.0207965 0.015602 -0.000722993 -0.000741956 -0.00142657 -2.65245e-06 -1.70787e-06 -2.54499e-06 0.0005 1.46608e-07 
289 1 0.0125087 0.0192867 0.0165833 0.00314923 0.00427516 0.00216742 -6.22644e-07 -2.68362e-06 3.71193e-06 0.0005 1.46608e-07 
290 1 0.0217108 0.0144732 0.0136708 7.68793e-05 -0.000276335 0.000123468 7.73508e-08 1.16717e-07 -7.80789e-08 0.0005 1.46608e-07 
292 1 0.0203539 0.0222509 0.015636 0.00924877 0.00266169 -0.000303964 -2.47164e-06 7.19483e-06 7.63468e-07 0.0005 1.46608e-07 
294 1 0.0192969 0.0227906 0.0169009 -0.0379721 -0.0160226 -0.0362712 0 0 -1.43822e-06 0.0005 1.46608e-07 
295 1 0.0237303 0.0230718 0.0153073 -0.000521038 0.00170784 -1.13052e-05 7.94213e-08 2.10722e-07 5.5166e-07 0.0005 1.46608e-07 
296 1 0.017668 0.0234465 0.0113366 0.00279065 0.00196056 -0.00366124 -2.15561e-06 -1.21402e-06 -3.12311e-06 0.0005 1.46608e-07 
297 1 0.0181513 0.0231833 0.0129008 0.00179419 0.00513896 -0.0143208 -3.31492e-06 1.33551e-06 -3.00392e-06 0.0005 1.46608e-07 
300 1 0.0183352 0.0215146 0.0152133 0.00583792 0.0169368 -0.0114593 -5.30773e-07 4.43832e-07 -2.65724e-07 0.0005 1.46608e-07 
