ITEM: TIMESTEP
1200000
ITEM: NUMBER OF ATOMS
224
ITEM: BOX BOUNDS ff ff ff
-0.02 0.43
-0.02 0.06
-0.02 0.07
ITEM: ATOMS id type x y z vx vy vz fx fy fz radius mass 
1 1 0.0207899 0.0238657 0.014765 0.00169046 0.000426424 -0.000999396 -1.19305e-06 -4.14742e-06 1.78791e-06 0.0005 1.46608e-07 
2 1 0.0175177 0.0234525 0.0140308 0.000176631 5.06753e-05 -0.000467317 2.31114e-06 -7.71435e-07 -2.29009e-07 0.0005 1.46608e-07 
3 1 0.0243839 0.0223545 0.0158462 -0.0018505 -8.53228e-06 -0.00321429 0 0 -1.43822e-06 0.0005 1.46608e-07 
4 1 0.0155711 0.0225099 0.0164672 0.00144808 0.00057456 5.45266e-05 1.6634e-07 1.50471e-06 6.93059e-08 0.0005 1.46608e-07 
5 1 0.021642 0.0142977 0.0137784 0.00123297 -0.000310275 0.00128963 4.79509e-07 -3.16525e-09 -1.87453e-07 0.0005 1.46608e-07 
6 1 0.0176186 0.0155427 0.0141898 0.000852011 0.0118915 0.0176965 -3.76802e-09 6.39185e-08 5.67139e-08 0.0005 1.46608e-07 
7 1 0.0182356 0.0148927 0.0145195 0.00609009 0.00629207 0.00950732 1.82069e-07 1.00719e-07 -3.02301e-07 0.0005 1.46608e-07 
8 1 0.022371 0.0178468 0.0166565 2.08113e-05 0.024386 0.00583689 1.29633e-08 3.30418e-08 -1.10592e-08 0.0005 1.46608e-07 
9 1 0.0209191 0.0240707 0.0130142 5.80758e-05 -0.0046811 0.000218079 8.56126e-09 6.77059e-08 -2.63398e-07 0.0005 1.46608e-07 
10 1 0.0186266 0.0151894 0.00956174 0.00121004 -0.00779886 0.0167832 -5.74834e-09 2.39993e-09 2.04202e-08 0.0005 1.46608e-07 
11 1 0.0156759 0.0230392 0.0134327 0.00380253 0.00177783 -0.0030933 1.64445e-07 5.57004e-08 2.08035e-07 0.0005 1.46608e-07 
12 1 0.0203133 0.0215759 0.00803462 0.000585367 -0.0151039 -0.00968987 -9.80327e-09 -6.2404e-08 -2.32235e-08 0.0005 1.46608e-07 
13 1 0.0159552 0.0235859 0.0142095 0.0013149 -0.00028906 -0.000432215 -2.82151e-07 1.71065e-06 2.29288e-07 0.0005 1.46608e-07 
14 1 0.0185562 0.0239081 0.013447 0.000540634 -0.0010553 0.00104619 2.27919e-07 -1.02373e-08 -4.56619e-07 0.0005 1.46608e-07 
15 1 0.024334 0.0204799 0.0157133 -8.86477e-05 0.0197238 -0.00682793 6.50477e-08 -4.47132e-07 1.07109e-07 0.0005 1.46608e-07 
16 1 0.0172901 0.0206908 0.0156455 -0.00015305 0.0190154 -0.00705719 -7.66401e-07 6.73158e-07 3.46979e-06 0.0005 1.46608e-07 
17 1 0.0220635 0.0237491 0.0134208 0.000408023 0.00236565 -0.000646662 -1.24164e-06 -1.16081e-06 2.02439e-06 0.0005 1.46608e-07 
18 1 0.0213617 0.0227484 0.00922557 0.000195126 -0.00142493 -0.00540404 -1.53339e-08 5.64914e-08 6.03313e-08 0.0005 1.46608e-07 
19 1 0.0192945 0.0244683 0.0136737 0.000229046 -0.000505725 0.00062795 3.30563e-07 -4.94064e-07 8.393e-07 0.0005 1.46608e-07 
20 1 0.0227645 0.0190265 0.0159551 0.000424661 0.0211009 0.000271381 -1.96491e-10 1.27392e-09 -1.45684e-08 0.0005 1.46608e-07 
21 1 0.0190158 0.0163864 0.00808172 2.95812e-05 -0.014307 0.0121809 -6.90473e-10 -7.52313e-09 2.15617e-08 0.0005 1.46608e-07 
22 1 0.0186481 0.0149456 0.0132335 0.000967537 -0.00168159 0.000381257 -2.34678e-07 -5.43345e-08 2.63672e-07 0.0005 1.46608e-07 
23 1 0.0174331 0.0240396 0.0129659 -0.000167093 0.0013844 -0.0011176 -1.37022e-07 6.71475e-08 1.00839e-07 0.0005 1.46608e-07 
24 1 0.0222616 0.0212836 0.015348 0.000276306 0.0189142 -0.0110313 -8.07735e-09 2.39929e-08 -3.02447e-08 0.0005 1.46608e-07 
25 1 0.0235165 0.0197543 0.0159005 -1.04592e-07 0.0202964 -0.00343268 -7.8926e-10 -1.67111e-09 -1.35592e-08 0.0005 1.46608e-07 
26 1 0.0176702 0.0216329 0.0152812 0.00754469 -0.00713741 -0.0192158 0 0 -1.43822e-06 0.0005 1.46608e-07 
27 1 0.0201843 0.0180884 0.00728029 0.00119346 -0.0195704 0.00375048 2.65527e-09 1.85483e-08 2.96389e-09 0.0005 1.46608e-07 
28 1 0.0214491 0.0231658 0.0130212 0.00187715 0.00384298 -0.00928175 2.85793e-08 -7.62463e-08 1.1402e-07 0.0005 1.46608e-07 
29 1 0.0151117 0.0232742 0.0147124 0.00169331 0.000291532 -0.0013558 2.39068e-07 -1.02701e-06 2.0376e-06 0.0005 1.46608e-07 
30 1 0.018934 0.0237551 0.0158065 -0.0106445 0.00697878 0.0286281 3.22771e-05 1.91005e-05 -3.37061e-05 0.0005 1.46608e-07 
31 1 0.0238328 0.0187632 0.0173582 -0.162886 0.0537268 -0.0857581 0 0 -1.43822e-06 0.0005 1.46608e-07 
32 1 0.0194477 0.0180556 0.00729702 0.000588513 -0.0187311 0.00382108 7.24702e-09 8.57186e-08 3.20399e-09 0.0005 1.46608e-07 
33 1 0.0225136 0.022649 0.0154325 0.0282254 0.00537548 -0.0110732 0 0 -1.43822e-06 0.0005 1.46608e-07 
34 1 0.0181612 0.0146296 0.0119725 0.0047845 0.000133455 -0.000129023 -4.2212e-08 -2.4315e-07 -5.70914e-07 0.0005 1.46608e-07 
35 1 0.0241459 0.0213742 0.0153034 0.00229405 0.0116131 -0.0174334 5.09035e-06 -5.32935e-06 -2.54051e-05 0.0005 1.46608e-07 
36 1 0.0202882 0.0244104 0.0137002 5.85385e-05 -0.00187957 0.00121319 1.14822e-06 4.83697e-08 5.55365e-07 0.0005 1.46608e-07 
37 1 0.0207827 0.0230755 0.00985431 0.000936745 -0.00603008 -0.0146996 -4.19873e-10 9.60855e-09 3.15879e-08 0.0005 1.46608e-07 
38 1 0.0205584 0.0225511 0.00899778 0.000963247 -0.0108355 -0.0146003 -8.78794e-09 -1.21138e-07 -9.60162e-08 0.0005 1.46608e-07 
39 1 0.0234212 0.0221297 0.0159986 -0.00890168 0.0131807 -0.0166755 0 0 -1.43822e-06 0.0005 1.46608e-07 
40 1 0.0228498 0.0234957 0.0143781 0.000383001 0.000294586 -0.000319777 -1.30486e-07 -1.13946e-07 1.60186e-07 0.0005 1.46608e-07 
41 1 0.0170644 0.0229497 0.014766 0.00268364 -0.000480024 -0.000881814 1.17579e-06 3.95609e-07 2.22088e-06 0.0005 1.46608e-07 
42 1 0.0217538 0.0227193 0.013877 0.00143305 0.00900982 -0.0126172 3.27874e-06 -6.72834e-06 6.14825e-06 0.0005 1.46608e-07 
43 1 0.0163903 0.0233064 0.0128657 0.00248355 0.00189884 -0.00221101 6.80204e-08 -1.04953e-08 -4.26974e-08 0.0005 1.46608e-07 
44 1 0.0183294 0.0230258 0.0149821 0.00470295 0.00534431 -0.0108314 0 0 -1.43822e-06 0.0005 1.46608e-07 
45 1 0.0219829 0.0239147 0.0146896 0.00115294 0.00237204 -0.00225194 2.3349e-06 -5.50981e-06 2.66394e-06 0.0005 1.46608e-07 
46 1 0.022797 0.0230394 0.0134669 -6.90351e-05 -0.000433735 0.000235477 1.46882e-08 -5.11034e-08 3.55882e-08 0.0005 1.46608e-07 
47 1 0.0231618 0.0216743 0.0151366 0.00125938 0.0148881 -0.0261137 0 0 -1.43822e-06 0.0005 1.46608e-07 
48 1 0.0207716 0.0140859 0.0132196 -8.40349e-05 -0.000106615 0.000202675 7.20442e-10 4.82317e-08 -6.30391e-08 0.0005 1.46608e-07 
49 1 0.0181032 0.0232163 0.0159413 -0.00776523 -0.0122857 0.00229251 -2.49089e-05 -1.88817e-05 2.86308e-05 0.0005 1.46608e-07 
50 1 0.0216384 0.0230841 0.00996984 0.000820218 -0.00427481 -0.0127662 -1.56336e-10 1.35474e-08 5.40528e-08 0.0005 1.46608e-07 
51 1 0.0166443 0.0228904 0.0137388 0.00273386 0.00160534 -0.00200689 2.22333e-07 6.16098e-08 2.70865e-07 0.0005 1.46608e-07 
52 1 0.0199408 0.0240934 0.012677 -0.000507595 0.00175753 -0.00206726 -7.55098e-07 -6.24805e-08 -6.24449e-08 0.0005 1.46608e-07 
53 1 0.0245292 0.0195156 0.0159191 0.000166037 0.0198553 -0.00207682 -1.27122e-07 3.34517e-07 -1.30393e-07 0.0005 1.46608e-07 
54 1 0.017832 0.0243886 0.0138766 7.58606e-05 -0.000145783 -2.08322e-05 1.3269e-07 3.06398e-07 -1.11434e-06 0.0005 1.46608e-07 
55 1 0.013831 0.022207 0.0156963 0.00174291 0.00263212 -0.00106759 2.63987e-07 6.22737e-07 -4.94129e-07 0.0005 1.46608e-07 
56 1 0.0241946 0.0201067 0.016653 -0.00864208 0.0125964 0.000120222 -2.8272e-07 6.32222e-07 -6.93072e-07 0.0005 1.46608e-07 
57 1 0.0167024 0.0238795 0.0136212 0.000558861 0.00110114 -0.000657503 6.82497e-08 -2.49699e-07 -4.35589e-07 0.0005 1.46608e-07 
58 1 0.0184458 0.0240596 0.0125246 9.56532e-05 -0.000768922 -0.00151253 7.74436e-08 1.31481e-07 -3.0824e-07 0.0005 1.46608e-07 
59 1 0.0216208 0.02342 0.0124692 0.000746373 0.000934945 -0.00247161 -5.9829e-08 6.75256e-08 6.09127e-08 0.0005 1.46608e-07 
60 1 0.0198176 0.0165789 0.00793528 0.00019466 -0.0172449 0.012022 -4.21007e-09 -7.88167e-10 1.22988e-08 0.0005 1.46608e-07 
61 1 0.01674 0.0239005 0.0147265 0.00150255 -9.60907e-05 -0.000110143 7.57014e-07 -6.90051e-07 1.46306e-06 0.0005 1.46608e-07 
62 1 0.0213293 0.0242166 0.0139548 0.00493608 -0.0151653 -0.0206075 0 0 -1.43822e-06 0.0005 1.46608e-07 
63 1 0.0219686 0.0233423 0.0139512 0.00231538 0.00571615 -0.00334938 2.24052e-06 -8.81289e-06 5.29406e-06 0.0005 1.46608e-07 
64 1 0.0198689 0.0146275 0.0119285 0.00189368 0.000339483 -0.000594053 -1.35433e-07 -8.06362e-08 1.0687e-07 0.0005 1.46608e-07 
65 1 0.0233224 0.0166146 0.0152246 0.0024134 0.00901309 0.00788363 -1.28871e-08 5.4235e-09 -1.43656e-06 0.0005 1.46608e-07 
66 1 0.0172708 0.0235745 0.0155188 0.000422885 -0.000344037 -0.00103973 -2.79286e-06 -3.93092e-07 1.6878e-07 0.0005 1.46608e-07 
67 1 0.0211289 0.0147944 0.0160034 0.00397292 0.0018825 -0.0016446 -3.0308e-07 3.25059e-07 -8.45051e-07 0.0005 1.46608e-07 
68 1 0.021748 0.0229589 0.0148217 0.00480711 0.00837131 -0.00925668 4.82401e-06 -1.67768e-05 1.71466e-05 0.0005 1.46608e-07 
69 1 0.0161348 0.0231354 0.015084 0.00441524 -0.000774466 -0.00161484 -5.86114e-06 -2.17154e-06 4.21778e-06 0.0005 1.46608e-07 
70 1 0.0234758 0.0231471 0.0151803 -0.00477111 0.00926532 0.00502166 -2.27413e-07 -6.27065e-07 -1.37404e-06 0.0005 1.46608e-07 
71 1 0.0193177 0.0231027 0.0148217 0.000360502 0.0153092 -0.0192367 -1.53361e-07 1.78217e-06 -2.69524e-06 0.0005 1.46608e-07 
72 1 0.0174259 0.0162058 0.014913 0.000527169 0.0161153 0.0134874 1.27699e-07 2.18715e-07 5.66315e-08 0.0005 1.46608e-07 
73 1 0.0249952 0.0216346 0.0161759 -0.0012728 -0.00031641 -0.00112203 2.80479e-07 7.14115e-07 -1.69696e-06 0.0005 1.46608e-07 
74 1 0.0197122 0.0191757 0.00719583 0.00033241 -0.0206404 -0.00248222 -6.88153e-09 -1.2383e-08 -9.84783e-09 0.0005 1.46608e-07 
75 1 0.0255424 0.0208395 0.0164371 -0.000937866 0.000810537 -0.000814508 -2.062e-07 -2.43844e-07 -5.93534e-08 0.0005 1.46608e-07 
76 1 0.0168042 0.022001 0.0149424 0.00409472 -0.000754768 0.000283549 2.11768e-06 -3.56772e-06 7.39782e-07 0.0005 1.46608e-07 
77 1 0.0188962 0.0226854 0.01624 -0.000159296 -0.00898769 -0.0100825 -2.93189e-06 -3.25223e-06 9.02554e-07 0.0005 1.46608e-07 
78 1 0.019738 0.0221167 0.0168949 -0.00644255 0.0505754 -0.0827739 0 0 -1.43822e-06 0.0005 1.46608e-07 
79 1 0.0256046 0.0198711 0.016679 0.00124953 0.00258392 -0.00248183 -2.54954e-08 1.11758e-06 -6.68567e-08 0.0005 1.46608e-07 
80 1 0.0153373 0.0226155 0.0154298 0.00316571 0.000657246 -0.000721001 -6.35317e-07 -2.3785e-06 2.90379e-06 0.0005 1.46608e-07 
81 1 0.021888 0.021162 0.0164904 -0.0184345 0.114635 -0.0252366 0 0 -1.43822e-06 0.0005 1.46608e-07 
82 1 0.0142718 0.0211883 0.0163024 0.00130863 0.00400807 -0.000330095 2.30749e-07 7.10302e-07 -4.61796e-07 0.0005 1.46608e-07 
83 1 0.0200128 0.0212546 0.0162824 0.00326556 -0.00250222 -0.00171348 -1.32368e-07 1.40057e-06 -4.36703e-07 0.0005 1.46608e-07 
84 1 0.0179271 0.0141907 0.0128421 0.00474546 -0.000841198 -0.000977104 -3.00196e-07 6.12827e-08 -3.30498e-07 0.0005 1.46608e-07 
85 1 0.0157096 0.0215698 0.016156 0.0026636 0.000966261 -0.0019421 1.5633e-07 1.5778e-06 -1.44258e-06 0.0005 1.46608e-07 
86 1 0.0208054 0.0145399 0.0142693 0.00380347 -0.000211191 0.00413473 1.12068e-06 9.10967e-07 -1.7607e-07 0.0005 1.46608e-07 
87 1 0.0184379 0.0158907 0.0146455 0.00346076 0.0120991 0.0127265 -1.00527e-07 -7.92388e-08 -3.51639e-08 0.0005 1.46608e-07 
88 1 0.0147719 0.0219835 0.0159596 0.00117643 0.00325972 -0.00160417 -4.94981e-07 -7.01084e-07 1.73187e-07 0.0005 1.46608e-07 
89 1 0.0198823 0.0189915 0.0167535 1.35282e-09 0.0247233 0.00018199 4.64841e-15 4.18531e-11 -1.68601e-08 0.0005 1.46608e-07 
90 1 0.0159097 0.0225373 0.0143149 0.00390105 -0.000138695 -0.00271123 2.45697e-07 2.86875e-07 4.5772e-07 0.0005 1.46608e-07 
91 1 0.0160225 0.0198114 0.0173857 -0.0159502 0.00612291 0.0365305 0 0 -1.43822e-06 0.0005 1.46608e-07 
92 1 0.0190919 0.0149993 0.0150244 0.00799139 0.006447 0.00606745 -5.72239e-07 -4.53374e-07 6.60953e-07 0.0005 1.46608e-07 
93 1 0.0185005 0.0139854 0.0143705 -0.00051202 0.0016896 -0.00151022 1.61108e-07 6.68399e-08 6.02574e-08 0.0005 1.46608e-07 
94 1 0.0207768 0.0230888 0.0160678 -0.00142178 0.00526296 0.0044097 -1.30939e-06 -3.76417e-07 9.51769e-07 0.0005 1.46608e-07 
95 1 0.0164589 0.0232302 0.0161133 0.00973294 -0.0207165 -0.0449954 3.14252e-07 -2.08253e-07 -7.95449e-07 0.0005 1.46608e-07 
96 1 0.018165 0.0220258 0.0160574 -0.00430645 -0.00437288 -0.0107093 0 0 -1.43822e-06 0.0005 1.46608e-07 
97 1 0.0249284 0.0172986 0.0155962 9.76602e-12 0.0188406 0.00828035 2.89752e-16 5.67898e-09 -1.24784e-08 0.0005 1.46608e-07 
98 1 0.0162401 0.0222934 0.0157145 0.0046283 0.00218472 -0.000395665 6.65161e-07 -2.43972e-06 1.66367e-06 0.0005 1.46608e-07 
99 1 0.0229634 0.0234929 0.0184336 -0.0240387 -0.0171984 -0.0848879 -2.53213e-07 -2.23613e-07 -9.71351e-07 0.0005 1.46608e-07 
100 1 0.016266 0.0212663 0.0153542 0.00502293 -0.0011361 0.000138115 -1.74608e-06 -3.57546e-07 8.51875e-07 0.0005 1.46608e-07 
101 1 0.0203503 0.0228381 0.0151562 0.00105454 -0.000533126 -0.000646522 -1.27601e-06 -8.66263e-07 2.51611e-06 0.0005 1.46608e-07 
102 1 0.0172449 0.0200894 0.0166032 0.00448916 -0.000284627 0.000125111 0 0 -1.43822e-06 0.0005 1.46608e-07 
103 1 0.0199364 0.0237405 0.0152649 0.000719603 0.000259936 -0.000158737 -1.70865e-06 1.33863e-06 -2.1723e-06 0.0005 1.46608e-07 
104 1 0.0171848 0.0171762 0.0155363 0.00061934 0.0184983 0.00841847 -4.50324e-10 7.22172e-09 -1.12293e-08 0.0005 1.46608e-07 
105 1 0.0142846 0.0228829 0.0151154 0.00109477 0.00247823 -0.00120593 -1.02293e-06 -1.66682e-06 1.48987e-06 0.0005 1.46608e-07 
106 1 0.0190101 0.0240137 0.0145304 -0.00575964 -0.00398052 -0.0142157 0 0 -1.43822e-06 0.0005 1.46608e-07 
108 1 0.0234367 0.022636 0.014158 0.00566459 0.0102817 0.0175915 -1.82991e-05 3.64471e-05 1.70959e-05 0.0005 1.46608e-07 
109 1 0.0192466 0.0163406 0.0150245 0.0032658 0.0143484 0.0106806 -2.53428e-07 -2.10492e-07 -1.13459e-07 0.0005 1.46608e-07 
110 1 0.0181436 0.0167733 0.0153166 0.00193563 0.0166337 0.00999727 -9.13754e-07 -3.96828e-07 1.35494e-07 0.0005 1.46608e-07 
111 1 0.0182712 0.0208755 0.0155611 0.00716294 -0.0118076 -0.0172167 0 0 -1.43822e-06 0.0005 1.46608e-07 
112 1 0.0170738 0.0234604 0.0121644 9.1394e-05 0.00218701 -0.00219754 -5.25397e-08 -1.0371e-08 -4.90066e-08 0.0005 1.46608e-07 
113 1 0.0214323 0.0234871 0.0154263 -0.00253107 -0.0028131 0.00176501 1.25153e-06 4.07731e-07 -2.24832e-07 0.0005 1.46608e-07 
114 1 0.0173229 0.0231693 0.0130435 0.00285751 0.00373534 -0.00704204 5.80565e-08 -3.78612e-10 -1.56208e-08 0.0005 1.46608e-07 
115 1 0.0188824 0.0142515 0.0125529 0.00471497 -0.000113429 2.41875e-06 -2.15435e-07 7.26996e-08 -8.4009e-08 0.0005 1.46608e-07 
116 1 0.0185661 0.0217171 0.0169359 0.000628595 -0.00674977 -0.00509734 0 0 -1.43822e-06 0.0005 1.46608e-07 
117 1 0.0239253 0.0212169 0.0162655 -0.00488604 -0.00353194 -0.0216726 -4.42029e-06 3.48168e-06 2.41668e-05 0.0005 1.46608e-07 
118 1 0.0178711 0.0240337 0.0164683 0.000201398 -0.00491384 -0.0111991 -2.45121e-06 1.53328e-06 3.19534e-06 0.0005 1.46608e-07 
119 1 0.0239318 0.0222858 0.0149526 0.0067063 0.0202105 4.43148e-05 1.15971e-05 8.53123e-06 3.5342e-05 0.0005 1.46608e-07 
120 1 0.0247241 0.0184713 0.0159777 -0.00842486 -0.00378922 -0.0152878 0 0 -1.43822e-06 0.0005 1.46608e-07 
121 1 0.0200258 0.0235822 0.0141887 -0.000670774 -0.00301514 0.00283791 1.27802e-06 1.00651e-06 -2.55281e-06 0.0005 1.46608e-07 
122 1 0.0190925 0.0216509 0.0160403 0.00571684 0.00701184 -0.00636427 0 0 -1.43822e-06 0.0005 1.46608e-07 
123 1 0.0224996 0.0145483 0.0142277 0.000849604 -0.000727819 0.00204907 -4.70651e-07 -9.70333e-08 -2.532e-08 0.0005 1.46608e-07 
124 1 0.022628 0.0202424 0.015881 5.83387e-05 0.0360243 0.0187692 0 0 -1.43822e-06 0.0005 1.46608e-07 
125 1 0.0230982 0.0175363 0.0156779 0.000530695 0.0194685 0.00711283 -1.33361e-10 5.40906e-09 -1.29211e-08 0.0005 1.46608e-07 
126 1 0.0181738 0.0201341 0.0162267 0.00407524 0.000389114 -0.0040059 0 0 -1.43822e-06 0.0005 1.46608e-07 
127 1 0.0203682 0.0203185 0.0166135 -3.13974e-07 0.0240316 -0.00613887 -4.50183e-11 -4.28431e-09 -1.63691e-08 0.0005 1.46608e-07 
128 1 0.0178273 0.0225113 0.0142863 -0.000996795 0.00549946 -0.00702929 3.04876e-08 7.50224e-07 -9.26793e-07 0.0005 1.46608e-07 
129 1 0.0196594 0.0149909 0.0133192 0.0185316 -0.0365034 -0.0681544 -7.97503e-08 -4.54074e-07 -5.85412e-07 0.0005 1.46608e-07 
130 1 0.0189426 0.0207281 0.0164674 0.00425968 0.00322784 -0.000632587 -1.20592e-06 6.968e-06 4.30827e-06 0.0005 1.46608e-07 
131 1 0.0178025 0.0211122 0.0164179 -0.00580012 -0.00933614 -0.0220877 0 0 -1.43822e-06 0.0005 1.46608e-07 
132 1 0.0197754 0.0231094 0.0160236 0.000561242 -0.00376971 -0.000801767 2.32236e-06 1.74761e-06 -1.41121e-06 0.0005 1.46608e-07 
133 1 0.0227361 0.0155069 0.0154231 -0.0210648 -0.0125263 -0.0128382 1.9867e-07 -2.40001e-07 -1.5614e-07 0.0005 1.46608e-07 
134 1 0.0235823 0.015412 0.0145882 0.00408579 0.0130604 -0.00422448 0 0 -1.43822e-06 0.0005 1.46608e-07 
135 1 0.0195848 0.0245024 0.0171177 -0.000963457 0.00329204 0.00779346 2.8186e-07 -1.90809e-06 -1.8193e-06 0.0005 1.46608e-07 
136 1 0.0170013 0.0141665 0.0135052 0.000586936 -0.000663208 0.00141736 -1.71189e-08 -4.17818e-09 -1.9307e-08 0.0005 1.46608e-07 
137 1 0.0212383 0.0197076 0.0167276 -7.89488e-09 0.0246527 -0.00284301 -1.98082e-14 -1.73227e-09 -1.68552e-08 0.0005 1.46608e-07 
138 1 0.0181462 0.015306 0.0154534 -0.0059508 -0.00225603 0.0234995 0 0 -1.43822e-06 0.0005 1.46608e-07 
139 1 0.0133097 0.0214308 0.0161781 0.000177536 -5.32121e-05 -0.000121748 -9.64538e-08 -3.43535e-07 -2.1631e-07 0.0005 1.46608e-07 
140 1 0.0227303 0.0223577 0.0144675 0.00342414 -0.0152083 -0.0177032 -1.45501e-05 4.66261e-05 6.86922e-05 0.0005 1.46608e-07 
141 1 0.0237012 0.0186186 0.0159227 2.53376e-10 0.0204231 0.00191783 1.38633e-15 1.21046e-09 -1.35972e-08 0.0005 1.46608e-07 
142 1 0.0200601 0.0147915 0.0148864 0.00754934 0.00740543 0.00420644 -3.73913e-07 -2.03641e-07 -3.5138e-07 0.0005 1.46608e-07 
143 1 0.020719 0.0239652 0.0165479 0.0105657 0.00165712 0.01582 0 0 -1.43822e-06 0.0005 1.46608e-07 
144 1 0.0197782 0.0241197 0.016211 0.00697003 0.00103103 0.0051279 0 0 -1.43822e-06 0.0005 1.46608e-07 
145 1 0.0243069 0.0164629 0.0151319 0.00420552 0.00792826 0.00512692 -3.8085e-07 -1.21365e-07 6.35481e-08 0.0005 1.46608e-07 
146 1 0.0199675 0.0221394 0.0157651 0.0078374 0.00935021 -0.00696623 0 0 -1.43822e-06 0.0005 1.46608e-07 
147 1 0.0189559 0.0176042 0.0157 3.43376e-11 0.0193667 0.00673262 3.22777e-16 4.53052e-09 -1.28691e-08 0.0005 1.46608e-07 
148 1 0.019845 0.0141118 0.0127849 0.00515775 0.00033182 -0.000528994 -1.52301e-07 -1.74125e-07 1.22998e-07 0.0005 1.46608e-07 
149 1 0.0249493 0.0174757 0.0168821 0.00915613 -0.0966117 -0.0131118 0 0 -1.43822e-06 0.0005 1.46608e-07 
150 1 0.0174103 0.0225477 0.0156151 -0.00624236 -0.00978512 -0.0104475 0 0 -1.43822e-06 0.0005 1.46608e-07 
151 1 0.016672 0.0214482 0.0199276 0 -0 -0.03 0 0 0 0.0005 1.46608e-07 
152 1 0.0195972 0.0204017 0.0188177 0 -0 -0.03 0 0 0 0.0005 1.46608e-07 
153 1 0.0185279 0.0220241 0.0254428 0 -0 -0.03 0 0 0 0.0005 1.46608e-07 
154 1 0.0151715 0.0207938 0.0164889 0.00490027 0.0102753 -0.00462212 3.3764e-07 3.13659e-08 1.2232e-08 0.0005 1.46608e-07 
155 1 0.0185297 0.0156953 0.0188054 0 -0 -0.03 0 0 0 0.0005 1.46608e-07 
156 1 0.0173123 0.0227205 0.0167051 -0.0490293 -0.028832 0.0264876 0 0 -1.43822e-06 0.0005 1.46608e-07 
157 1 0.0169975 0.0213865 0.0227687 0 -0 -0.03 0 0 0 0.0005 1.46608e-07 
158 1 0.0198378 0.0226428 0.0235278 0 -0 -0.03 0 0 0 0.0005 1.46608e-07 
159 1 0.016973 0.0215693 0.0160022 0.00287967 0.0230155 -0.0108096 -9.92347e-07 2.98965e-06 1.15797e-06 0.0005 1.46608e-07 
160 1 0.0161789 0.0169139 0.0188125 0 -0 -0.03 0 0 0 0.0005 1.46608e-07 
161 1 0.023074 0.0155856 0.0169802 0.0349997 -0.145016 -0.0865799 0 0 -1.43822e-06 0.0005 1.46608e-07 
162 1 0.0160843 0.0173149 0.0164857 8.79388e-10 0.0234821 0.00814332 3.48678e-12 5.5944e-09 -1.60075e-08 0.0005 1.46608e-07 
163 1 0.0165621 0.0169232 0.0225239 0 -0 -0.03 0 0 0 0.0005 1.46608e-07 
164 1 0.018304 0.0167822 0.0204157 0 -0 -0.03 0 0 0 0.0005 1.46608e-07 
165 1 0.0219374 0.0168761 0.0174994 0 0 -0.138553 0 0 -1.43822e-06 0.0005 1.46608e-07 
166 1 0.0218135 0.0196237 0.0215197 0 -0 -0.03 0 0 0 0.0005 1.46608e-07 
167 1 0.0228652 0.0164388 0.0161732 -0.019373 -0.0373521 -0.000963632 0 0 -1.43822e-06 0.0005 1.46608e-07 
168 1 0.0180868 0.0219473 0.0265668 0 -0 -0.03 0 0 0 0.0005 1.46608e-07 
169 1 0.0149529 0.0181665 0.0192146 0 -0 -0.03 0 0 0 0.0005 1.46608e-07 
170 1 0.0154334 0.0179813 0.0208865 0 -0 -0.03 0 0 0 0.0005 1.46608e-07 
171 1 0.0156807 0.0186955 0.0244764 0 -0 -0.03 0 0 0 0.0005 1.46608e-07 
172 1 0.0180479 0.0191824 0.0159465 -0.000624084 -0.00143207 0.00147384 1.05801e-08 4.02872e-07 -9.5674e-07 0.0005 1.46608e-07 
173 1 0.0148256 0.0186676 0.0167423 -2.03221e-09 0.0246836 0.00166789 -1.08783e-14 1.02337e-09 -1.68439e-08 0.0005 1.46608e-07 
174 1 0.0164327 0.0216027 0.016846 0.00822727 0.00624649 -0.00628958 0 0 -1.43822e-06 0.0005 1.46608e-07 
175 1 0.0189893 0.023451 0.0275634 0 -0 -0.03 0 0 0 0.0005 1.46608e-07 
176 1 0.0166145 0.019777 0.0158926 0.000533681 0.0142649 -0.00309407 -3.85905e-08 6.62628e-07 -1.38469e-07 0.0005 1.46608e-07 
177 1 0.0212006 0.0153929 0.0273762 0 -0 -0.03 0 0 0 0.0005 1.46608e-07 
178 1 0.0206018 0.016211 0.0159299 -0.0002829 0.0103353 0.00504213 1.32484e-08 -9.09787e-08 -1.53814e-07 0.0005 1.46608e-07 
179 1 0.0201012 0.0153649 0.0247963 0 -0 -0.03 0 0 0 0.0005 1.46608e-07 
180 1 0.0209741 0.0170833 0.0215582 0 -0 -0.03 0 0 0 0.0005 1.46608e-07 
181 1 0.0177812 0.0228084 0.0187826 0 -0 -0.03 0 0 0 0.0005 1.46608e-07 
182 1 0.0175972 0.0231613 0.0199305 0 -0 -0.03 0 0 0 0.0005 1.46608e-07 
183 1 0.0195545 0.0207922 0.0221417 0 -0 -0.03 0 0 0 0.0005 1.46608e-07 
184 1 0.0211334 0.0222283 0.0157043 0.00155185 0.013942 -0.0117876 5.64282e-07 -1.17335e-06 1.34369e-07 0.0005 1.46608e-07 
185 1 0.0224662 0.0198197 0.0259394 0 -0 -0.03 0 0 0 0.0005 1.46608e-07 
186 1 0.019124 0.0195029 0.0186315 0 -0 -0.03 0 0 0 0.0005 1.46608e-07 
187 1 0.0219694 0.0221283 0.0146753 0.000221629 0.00929708 -0.0119134 7.73276e-07 7.46388e-06 1.21292e-05 0.0005 1.46608e-07 
188 1 0.020999 0.0192753 0.0234542 0 -0 -0.03 0 0 0 0.0005 1.46608e-07 
189 1 0.0176669 0.0206937 0.025981 0 -0 -0.03 0 0 0 0.0005 1.46608e-07 
190 1 0.0241362 0.0155101 0.0154152 0.00544207 0.011169 -0.00200546 2.15561e-07 -5.71513e-07 -1.61845e-06 0.0005 1.46608e-07 
191 1 0.0187637 0.0166168 0.0262633 0 -0 -0.03 0 0 0 0.0005 1.46608e-07 
192 1 0.0170399 0.0157493 0.0187514 0 -0 -0.03 0 0 0 0.0005 1.46608e-07 
193 1 0.0206655 0.0185728 0.0208975 0 -0 -0.03 0 0 0 0.0005 1.46608e-07 
194 1 0.0217171 0.0149821 0.0148395 -0.0278308 -0.00804964 -0.00772449 4.84194e-07 -5.19928e-07 3.80122e-07 0.0005 1.46608e-07 
195 1 0.0208017 0.0153603 0.0152459 0.00304352 0.00937963 0.00795386 -9.76874e-08 -2.69188e-07 -2.98862e-07 0.0005 1.46608e-07 
196 1 0.0206558 0.0194365 0.0189421 0 -0 -0.03 0 0 0 0.0005 1.46608e-07 
197 1 0.0244438 0.0158762 0.01948 -0.0390558 -0.0267789 -0.102027 0 0 -1.43822e-06 0.0005 1.46608e-07 
198 1 0.0194088 0.018073 0.0258568 0 -0 -0.03 0 0 0 0.0005 1.46608e-07 
199 1 0.022004 0.0203373 0.0251503 0 -0 -0.03 0 0 0 0.0005 1.46608e-07 
200 1 0.0202895 0.0175928 0.016526 -0.00373419 0.0104245 0.0033404 1.29078e-07 3.04953e-07 8.85772e-08 0.0005 1.46608e-07 
201 1 0.0233019 0.0203004 0.0196562 0 -0 -0.03 0 0 0 0.0005 1.46608e-07 
202 1 0.0197241 0.0149448 0.0162994 -0.00799541 -0.00366012 0.00421116 0 0 -1.43822e-06 0.0005 1.46608e-07 
203 1 0.0169775 0.018539 0.0220882 0 -0 -0.03 0 0 0 0.0005 1.46608e-07 
204 1 0.019813 0.0156563 0.0154849 0.00369004 0.0142702 0.0117508 0 0 -1.43822e-06 0.0005 1.46608e-07 
205 1 0.0164158 0.0207161 0.0161757 0.00620758 0.00602035 0.00296629 0 0 -1.43822e-06 0.0005 1.46608e-07 
206 1 0.0210973 0.0176849 0.0243827 0 -0 -0.03 0 0 0 0.0005 1.46608e-07 
207 1 0.0212466 0.0191129 0.0199248 0 -0 -0.03 0 0 0 0.0005 1.46608e-07 
208 1 0.0147915 0.015584 0.0154421 -0.00267122 -0.0275664 -0.0226353 8.61632e-09 -1.7122e-07 -4.62859e-08 0.0005 1.46608e-07 
209 1 0.0197633 0.0161608 0.0198955 0 -0 -0.03 0 0 0 0.0005 1.46608e-07 
210 1 0.0206325 0.0219985 0.0188537 0 -0 -0.03 0 0 0 0.0005 1.46608e-07 
211 1 0.0174576 0.018147 0.0158668 -3.0887e-09 0.0201648 0.00417335 -7.89002e-16 3.17968e-09 -1.53638e-08 0.0005 1.46608e-07 
212 1 0.0189468 0.0143219 0.0157456 -0.013186 -0.00266337 -0.00789579 2.40391e-07 -2.89503e-07 -8.47633e-07 0.0005 1.46608e-07 
213 1 0.0213991 0.017205 0.0164327 2.00651e-07 0.0232884 0.00852281 -6.24555e-10 -4.41054e-10 -1.87496e-08 0.0005 1.46608e-07 
214 1 0.0213649 0.0157703 0.0241431 0 -0 -0.03 0 0 0 0.0005 1.46608e-07 
215 1 0.0172001 0.0203088 0.0230848 0 -0 -0.03 0 0 0 0.0005 1.46608e-07 
216 1 0.0154267 0.0216624 0.0275638 0 -0 -0.03 0 0 0 0.0005 1.46608e-07 
217 1 0.0226886 0.0165359 0.0212284 0 -0 -0.03 0 0 0 0.0005 1.46608e-07 
218 1 0.021032 0.0224914 0.0259243 0 -0 -0.03 0 0 0 0.0005 1.46608e-07 
219 1 0.0196544 0.0191834 0.0203329 0 -0 -0.03 0 0 0 0.0005 1.46608e-07 
220 1 0.0161336 0.0143829 0.0139528 -0.000713471 0.00188879 -0.00232835 4.41915e-08 -4.56992e-08 2.32281e-08 0.0005 1.46608e-07 
221 1 0.0216142 0.0189523 0.0272441 0 -0 -0.03 0 0 0 0.0005 1.46608e-07 
222 1 0.0152469 0.0217452 0.0170249 -0.0238639 8.3737e-05 -0.0152532 -4.67154e-07 -4.45759e-07 5.4622e-07 0.0005 1.46608e-07 
223 1 0.0145652 0.0192693 0.0188692 0 -0 -0.03 0 0 0 0.0005 1.46608e-07 
224 1 0.0188383 0.0232335 0.0205672 0 -0 -0.03 0 0 0 0.0005 1.46608e-07 
225 1 0.0180859 0.0184071 0.0271007 0 -0 -0.03 0 0 0 0.0005 1.46608e-07 
