ITEM: TIMESTEP
1000000
ITEM: NUMBER OF ATOMS
149
ITEM: BOX BOUNDS ff ff ff
-0.02 0.43
-0.02 0.06
-0.02 0.07
ITEM: ATOMS id type x y z vx vy vz fx fy fz radius mass 
1 1 0.0207872 0.023862 0.0147732 0.000700061 0.00126609 -0.00154771 1.60831e-05 -8.70988e-06 5.77761e-06 0.0005 1.46608e-07 
2 1 0.0173333 0.0235766 0.014181 0.00576464 -0.0100157 -0.0323901 -2.47085e-05 1.93968e-05 -3.86036e-05 0.0005 1.46608e-07 
3 1 0.0238544 0.0227036 0.0152697 -0.0037903 0.00344582 -0.00254633 -2.76023e-07 2.2533e-07 -2.13936e-07 0.0005 1.46608e-07 
4 1 0.0163246 0.0229471 0.0160822 -0.00446518 -0.00393357 0.0010584 1.02031e-06 7.7725e-07 -5.85373e-07 0.0005 1.46608e-07 
5 1 0.0216085 0.0142778 0.0137777 -0.000401554 -0.000940473 0.00161348 -2.04202e-07 -1.16613e-07 -3.08231e-07 0.0005 1.46608e-07 
6 1 0.017431 0.0146214 0.0119958 0.00123201 0.00140599 -0.00460508 1.64839e-08 -2.78034e-08 8.25754e-08 0.0005 1.46608e-07 
7 1 0.0176349 0.0142386 0.0129004 0.00184698 0.000854397 -0.00355981 -8.29313e-08 -7.40848e-08 3.22648e-07 0.0005 1.46608e-07 
8 1 0.0235392 0.0219321 0.0158679 -0.00263859 -0.00781689 -0.00365184 0 0 -1.43822e-06 0.0005 1.46608e-07 
9 1 0.0209386 0.0240136 0.0130319 -0.00106339 5.61144e-05 -0.000620605 -3.70458e-06 -3.70572e-06 -4.40091e-06 0.0005 1.46608e-07 
10 1 0.0184576 0.01808 0.00730051 0.00128988 -0.0183812 0.0059177 -1.44946e-08 -1.33509e-07 3.65481e-08 0.0005 1.46608e-07 
11 1 0.0148537 0.0227086 0.0140339 0.00290064 0.00373773 -0.00202121 1.02336e-06 -2.81942e-06 1.06844e-05 0.0005 1.46608e-07 
12 1 0.0201288 0.0234093 0.011133 0.00112574 -0.00256081 -0.0159575 -1.47198e-06 -4.36794e-06 -1.61571e-05 0.0005 1.46608e-07 
13 1 0.0157142 0.0234986 0.014333 0.00203789 -0.00121048 -0.00174688 2.70486e-06 -4.05855e-06 4.61754e-06 0.0005 1.46608e-07 
14 1 0.0185431 0.0239306 0.0134232 0.00456239 0.00645707 -0.0196699 -7.24396e-06 5.33476e-06 -9.02513e-07 0.0005 1.46608e-07 
15 1 0.023436 0.0197751 0.0158867 0.0125204 -0.0226083 0.0059815 -2.85051e-07 1.26522e-06 -2.17088e-07 0.0005 1.46608e-07 
16 1 0.0164289 0.0186721 0.0159374 -4.19464e-10 0.0205081 0.00158126 -2.03446e-15 9.09231e-10 -1.36682e-08 0.0005 1.46608e-07 
17 1 0.0218748 0.0236837 0.0133248 -0.000362356 -0.00017479 -0.000809475 -3.86828e-06 4.72651e-07 -3.81024e-07 0.0005 1.46608e-07 
18 1 0.0207252 0.023475 0.0117378 0.00114839 0.000426812 -0.00669033 -3.74404e-07 -2.55818e-06 -9.50457e-06 0.0005 1.46608e-07 
19 1 0.0192673 0.0244779 0.0136594 0.00207559 0.001254 -0.00605133 -9.21984e-07 8.42137e-07 7.67293e-06 0.0005 1.46608e-07 
20 1 0.0224311 0.0162302 0.0149492 0.0009561 0.014772 0.011668 -1.2706e-09 1.08201e-08 -4.86365e-09 0.0005 1.46608e-07 
21 1 0.0188625 0.0199264 0.00729458 0.000770471 -0.0179905 -0.00395173 -1.0297e-09 -8.48618e-09 2.1872e-08 0.0005 1.46608e-07 
22 1 0.0185433 0.0146549 0.0129381 0.00131991 0.00159497 -0.00231197 -1.56977e-07 -7.13958e-08 1.63144e-07 0.0005 1.46608e-07 
23 1 0.0172522 0.0240348 0.0131106 -0.000391745 -0.00201133 0.000401163 -1.74291e-07 -8.39048e-08 1.68011e-07 0.0005 1.46608e-07 
24 1 0.0214699 0.0205052 0.0157117 0.00906131 -0.0139804 0.00759261 -1.32492e-07 8.82463e-07 -8.80778e-07 0.0005 1.46608e-07 
25 1 0.0221983 0.0171128 0.0155102 0.000566474 0.0184423 0.00911074 -1.87138e-10 7.00691e-09 -1.18938e-08 0.0005 1.46608e-07 
26 1 0.0180021 0.022946 0.0149876 0.0114593 0.0332358 -0.0472147 7.98503e-05 9.54603e-05 -0.000127662 0.0005 1.46608e-07 
27 1 0.0196957 0.021458 0.00788193 0.0033049 -0.00926298 -0.00618995 -2.43336e-07 -2.78789e-07 3.48789e-07 0.0005 1.46608e-07 
28 1 0.0208547 0.0225495 0.0142639 0.00110407 0.00829753 -0.0149794 6.83908e-06 -1.46087e-05 3.58106e-06 0.0005 1.46608e-07 
29 1 0.0149183 0.023246 0.014883 -0.00198534 0.000526688 0.000575675 1.02447e-05 2.64122e-06 -4.93233e-06 0.0005 1.46608e-07 
30 1 0.0185336 0.0236817 0.0155135 -0.00533132 -0.00352819 -0.00293455 0 0 -1.43822e-06 0.0005 1.46608e-07 
31 1 0.0221585 0.0231469 0.0160113 0.00122066 -0.00162681 -0.00190415 0 0 -1.43822e-06 0.0005 1.46608e-07 
32 1 0.0193757 0.0218267 0.00823189 0.000776873 -0.00774684 -0.00887886 -3.21446e-08 3.00645e-07 -1.2489e-07 0.0005 1.46608e-07 
33 1 0.022174 0.0229536 0.0149371 -0.0129755 -0.0537126 -0.0112594 0 0 -1.43822e-06 0.0005 1.46608e-07 
34 1 0.0179399 0.0159374 0.00852028 0.000404229 -0.0142076 0.0151459 -1.42769e-09 3.94712e-10 1.21755e-08 0.0005 1.46608e-07 
35 1 0.0231905 0.0209321 0.0155285 0.00877557 0.0205336 -0.00678226 0 0 -1.43822e-06 0.0005 1.46608e-07 
36 1 0.0202065 0.024125 0.0136932 -0.00209939 0.00246328 -0.000902672 -2.03923e-05 5.88194e-06 2.21166e-05 0.0005 1.46608e-07 
37 1 0.0206041 0.0230322 0.0134726 -0.000697839 0.00700106 -0.0144407 1.32538e-07 -1.80736e-06 1.62216e-06 0.0005 1.46608e-07 
38 1 0.0204094 0.0233502 0.0124383 0.000418848 0.00348501 -0.0145846 7.32278e-06 7.50751e-07 1.61772e-05 0.0005 1.46608e-07 
39 1 0.0228819 0.0226228 0.0155616 0.00140629 -0.00319245 0.00302727 0 0 -1.43822e-06 0.0005 1.46608e-07 
40 1 0.022594 0.0235915 0.0141468 0.00156601 -9.36391e-06 -0.00026815 4.55765e-06 2.33407e-06 3.10287e-06 0.0005 1.46608e-07 
41 1 0.0163911 0.0229634 0.0150064 0.0235205 0.012346 0.0302742 0 0 -1.43822e-06 0.0005 1.46608e-07 
42 1 0.0212502 0.0214723 0.0155795 0.0093374 -0.0144286 0.000502504 9.86109e-06 3.63404e-08 1.19015e-05 0.0005 1.46608e-07 
43 1 0.0157108 0.0230597 0.0134384 -0.00146597 0.000194563 -0.00264109 1.4426e-05 8.95098e-06 -2.14589e-06 0.0005 1.46608e-07 
44 1 0.0191866 0.022074 0.0158178 0.000321206 -0.00174885 0.0100888 1.5227e-05 1.75413e-05 -9.13003e-06 0.0005 1.46608e-07 
45 1 0.0218332 0.0239489 0.0146266 0.00212238 0.00150064 -0.00161326 2.12429e-06 1.01154e-06 -2.17534e-06 0.0005 1.46608e-07 
46 1 0.0221368 0.0228791 0.0136944 0.00658519 -4.44284e-05 -0.00215157 5.48355e-06 1.55461e-06 3.90475e-06 0.0005 1.46608e-07 
47 1 0.0214079 0.0220619 0.0164249 0.00350504 -0.0118019 -0.000718834 0 0 -1.43822e-06 0.0005 1.46608e-07 
48 1 0.0207075 0.0140791 0.0132052 -6.70607e-05 0.00094087 -0.0021892 -1.54998e-07 -2.6393e-08 -3.25358e-09 0.0005 1.46608e-07 
49 1 0.0183222 0.0235299 0.0142817 0.00891232 0.0103639 -0.0465368 -3.41887e-05 6.44723e-05 -0.000136942 0.0005 1.46608e-07 
50 1 0.021368 0.0234267 0.0122776 0.000459344 0.00014285 -0.00126158 -5.06924e-06 -1.89914e-06 -1.70407e-06 0.0005 1.46608e-07 
51 1 0.0158186 0.0225112 0.0143051 0.000101901 -0.00316318 0.00137086 -2.3416e-05 1.68492e-05 -1.7076e-05 0.0005 1.46608e-07 
52 1 0.019941 0.0241284 0.0126677 -0.00146517 -0.000116605 -0.000506367 -2.3467e-08 8.49064e-07 1.2494e-07 0.0005 1.46608e-07 
53 1 0.0234071 0.0186335 0.0159373 -1.36542e-05 0.0206447 0.00176198 2.08298e-08 -5.73903e-08 -2.37769e-08 0.0005 1.46608e-07 
54 1 0.0178312 0.0243911 0.0138798 -0.000847674 0.0102492 -0.0254672 -8.81199e-05 0.000137417 -0.000254121 0.0005 1.46608e-07 
55 1 0.0138085 0.0219974 0.0158776 0.000553928 -0.000523534 -0.00068937 -1.71165e-06 -1.31335e-06 -1.56533e-06 0.0005 1.46608e-07 
56 1 0.0241778 0.021261 0.0162609 0.00244961 -0.0124543 -0.00646093 0 0 -1.43822e-06 0.0005 1.46608e-07 
57 1 0.0164796 0.0237587 0.013702 -0.00623891 -0.00555883 0.00247805 2.81541e-05 1.60293e-05 2.89679e-05 0.0005 1.46608e-07 
58 1 0.0184227 0.0241113 0.0125231 0.00144489 0.000836043 -0.0102694 -8.22555e-07 -6.10358e-07 -1.11812e-06 0.0005 1.46608e-07 
59 1 0.0212216 0.0231591 0.0130403 0.00187093 0.00121937 -0.00510522 -1.065e-06 -1.84551e-06 1.06475e-06 0.0005 1.46608e-07 
60 1 0.0192712 0.0193458 0.00714158 0.00332993 -0.0178762 -0.00202956 -1.92172e-08 -3.46546e-08 9.47023e-09 0.0005 1.46608e-07 
61 1 0.0165451 0.0239068 0.0146951 0.00786349 -0.00129597 -0.00643664 -4.39429e-06 -3.73027e-05 5.12636e-05 0.0005 1.46608e-07 
62 1 0.021195 0.0242782 0.0139529 -0.000945429 0.000308439 0.000268827 -1.61939e-05 -3.23905e-06 4.057e-06 0.0005 1.46608e-07 
63 1 0.0214679 0.0231872 0.0142622 0.00404016 0.00504608 -0.00767046 2.33516e-06 -3.6122e-06 2.49909e-06 0.0005 1.46608e-07 
64 1 0.0197438 0.0140147 0.012946 0.000444984 0.00105338 -0.00181083 -7.87277e-08 -5.90213e-08 2.12551e-08 0.0005 1.46608e-07 
65 1 0.0227882 0.0151374 0.0136381 0.00559179 0.000289432 -0.00310167 1.74811e-07 -1.63124e-07 -7.64376e-07 0.0005 1.46608e-07 
66 1 0.0169503 0.0237278 0.016097 -0.00281041 -0.00264254 0.00236298 0 0 -1.43822e-06 0.0005 1.46608e-07 
67 1 0.0225691 0.0224167 0.0165583 0.00721462 -0.0118593 -0.014597 0 0 -1.43822e-06 0.0005 1.46608e-07 
68 1 0.0215115 0.0224323 0.0155001 0.000750817 -0.00897058 0.005402 -1.06386e-05 -8.49829e-06 9.7128e-06 0.0005 1.46608e-07 
69 1 0.0154033 0.0229205 0.0156946 -0.00429082 -0.00172896 0.00176149 -8.89326e-08 -1.36003e-06 -1.03809e-06 0.0005 1.46608e-07 
70 1 0.0231889 0.023379 0.0149393 -0.00362157 0.00676118 0.00333487 -1.63113e-07 -5.57318e-07 -1.28224e-06 0.0005 1.46608e-07 
71 1 0.0190071 0.0230787 0.0148705 0.00717437 0.0126192 -0.00694537 0 0 -1.43822e-06 0.0005 1.46608e-07 
72 1 0.0169149 0.014901 0.0131067 0.00408585 0.000712869 0.00442548 -4.44926e-08 6.44522e-09 -6.53873e-08 0.0005 1.46608e-07 
73 1 0.0245245 0.022097 0.0157627 -0.00311994 0.00401021 -0.00194623 -3.51443e-07 3.79696e-07 -2.91831e-07 0.0005 1.46608e-07 
74 1 0.0196019 0.022428 0.00887807 -0.000103517 -0.0124862 -0.0174035 -2.07232e-08 -4.45765e-08 -4.71867e-08 0.0005 1.46608e-07 
75 1 0.025175 0.0213291 0.0162241 -0.00182137 0.0027367 -0.000684905 -1.34927e-06 -1.46916e-06 1.61021e-06 0.0005 1.46608e-07 
76 1 0.0152646 0.0212887 0.0153599 0.00505444 0.00198738 -0.000420188 0 0 -1.43822e-06 0.0005 1.46608e-07 
77 1 0.0195756 0.0220838 0.0178184 0 0 -0.113743 0 0 -1.43822e-06 0.0005 1.46608e-07 
78 1 0.0203026 0.022443 0.0167364 0.0152636 0.00243272 0.0151528 0 0 -1.43822e-06 0.0005 1.46608e-07 
79 1 0.0243996 0.0198731 0.0170191 -0.0343189 -0.00943847 -0.178262 0 0 -1.43822e-06 0.0005 1.46608e-07 
80 1 0.0159266 0.020927 0.0167097 -0.047046 0.000320657 -0.0334102 0 0 -1.43822e-06 0.0005 1.46608e-07 
81 1 0.0209237 0.0197951 0.0167365 -6.28787e-10 0.0246714 -0.00341454 4.982e-13 -2.25735e-09 -1.68483e-08 0.0005 1.46608e-07 
82 1 0.0176193 0.0229951 0.0163807 -0.00476371 -0.00541222 -0.0168459 0 0 -1.43822e-06 0.0005 1.46608e-07 
83 1 0.019819 0.0204288 0.0165772 -0.016487 -0.0259347 0.010239 4.83726e-07 2.16328e-06 2.62615e-07 0.0005 1.46608e-07 
84 1 0.0188498 0.0137887 0.0133326 1.81156e-05 0.000967656 -0.00314559 -5.76872e-08 -1.8151e-07 -5.82129e-07 0.0005 1.46608e-07 
85 1 0.0163497 0.0195255 0.0183963 0 0 -0.0399817 0 0 -1.43822e-06 0.0005 1.46608e-07 
86 1 0.0208283 0.0146043 0.0143111 -0.00109929 0.00183957 -0.000775263 1.72185e-07 6.27736e-08 -1.1931e-07 0.0005 1.46608e-07 
87 1 0.0177022 0.0151511 0.0136702 0.0044166 0.00140867 0.00370036 1.31152e-07 -1.11866e-07 -2.36906e-07 0.0005 1.46608e-07 
88 1 0.0151751 0.0193252 0.0167883 -2.2555e-09 0.0249013 -0.00144252 -6.8393e-15 -1.11236e-09 -1.69936e-08 0.0005 1.46608e-07 
89 1 0.0199829 0.0164452 0.0160555 -0.00058647 0.0117402 0.00687799 -9.32458e-10 3.39371e-08 1.88884e-08 0.0005 1.46608e-07 
90 1 0.0150623 0.0220719 0.0147716 0.000635914 0.00782332 -0.00428208 -2.0088e-07 -3.626e-06 1.48245e-05 0.0005 1.46608e-07 
91 1 0.0173994 0.0236588 0.0152008 -0.0173399 -0.0280187 0.0525527 -2.2158e-05 -8.33335e-05 0.000150663 0.0005 1.46608e-07 
92 1 0.0177945 0.0191886 0.0179575 0.0217644 -0.153022 0.0546198 0 0 -1.43822e-06 0.0005 1.46608e-07 
93 1 0.0180276 0.0143313 0.0159697 0.0356995 0.173665 -0.549959 0 0 -1.43822e-06 0.0005 1.46608e-07 
94 1 0.0205585 0.0230928 0.0159739 0.0295849 -0.00864134 0.00648958 -7.729e-06 5.53706e-06 3.73827e-06 0.0005 1.46608e-07 
95 1 0.0171522 0.0225287 0.0155649 -0.043386 0.0105926 0.0186926 0 0 -1.43822e-06 0.0005 1.46608e-07 
96 1 0.0158845 0.0221193 0.0153389 0.00285549 0.0013778 0.000588771 -1.28522e-06 1.17391e-06 -1.16897e-06 0.0005 1.46608e-07 
97 1 0.0241434 0.0160627 0.0147901 0.00391816 0.00354658 0.00229737 -1.61874e-07 -2.18264e-07 -1.96816e-07 0.0005 1.46608e-07 
98 1 0.0163065 0.0235812 0.0168557 -8.71459e-05 0.000361525 0.000172873 5.7921e-07 -6.75932e-07 -9.75948e-07 0.0005 1.46608e-07 
99 1 0.0211105 0.0215178 0.0172753 0.00396583 0.00987518 0.0321479 0 0 -1.43822e-06 0.0005 1.46608e-07 
100 1 0.015789 0.0205133 0.0157129 0.00832329 0.00245302 -0.000557215 -4.94981e-07 1.59145e-06 -2.16695e-07 0.0005 1.46608e-07 
101 1 0.0202186 0.0221744 0.0157731 0.0310523 -0.00861574 0.00523806 -4.75226e-06 -5.05036e-06 -2.4866e-06 0.0005 1.46608e-07 
102 1 0.016508 0.0219443 0.0161142 -0.0824554 -0.073172 0.0572827 0 0 -1.43822e-06 0.0005 1.46608e-07 
103 1 0.0200869 0.0238334 0.0154872 0.0140161 0.00393075 0.0139315 0 0 -1.43822e-06 0.0005 1.46608e-07 
104 1 0.0167201 0.0153579 0.0139746 0.00421928 0.00200646 0.00375346 -8.73285e-09 1.1813e-07 -3.26737e-08 0.0005 1.46608e-07 
105 1 0.0141714 0.0227285 0.0152999 -0.00152499 -0.000760823 -0.000185019 -3.25732e-06 -1.58545e-06 2.95076e-06 0.0005 1.46608e-07 
106 1 0.0191399 0.024018 0.0145401 0.00195035 0.00469736 -0.00936941 -9.88477e-06 1.83266e-05 -4.17618e-05 0.0005 1.46608e-07 
108 1 0.0228234 0.0225102 0.0143185 0.00519199 -0.00262061 0.00766613 -6.21215e-06 -3.47293e-06 2.49021e-06 0.0005 1.46608e-07 
109 1 0.0186184 0.0153784 0.0140002 0.00345094 0.00318202 0.00523846 4.27066e-08 -1.18312e-07 -2.64743e-07 0.0005 1.46608e-07 
110 1 0.0175097 0.015723 0.0144676 0.00420849 0.0016817 0.00392001 -1.23929e-07 -1.13522e-07 -2.00854e-07 0.0005 1.46608e-07 
111 1 0.016865 0.0203348 0.0157613 1.73276e-09 0.0196402 -0.00604463 -5.51149e-12 -4.13411e-09 -1.30417e-08 0.0005 1.46608e-07 
112 1 0.0166681 0.0228014 0.0138744 -0.00527797 -0.00230281 -0.00104775 2.22944e-05 -1.22122e-05 3.06671e-06 0.0005 1.46608e-07 
113 1 0.0214026 0.0234153 0.0154138 -0.0048001 -0.00314238 0.00269496 1.46759e-05 -1.68549e-07 3.35685e-05 0.0005 1.46608e-07 
114 1 0.0169357 0.0222001 0.0146355 0.0115889 -0.000819211 0.00186635 -5.47944e-07 1.5248e-06 -1.07631e-06 0.0005 1.46608e-07 
115 1 0.0184426 0.0146182 0.0119439 0.000436303 0.00128126 -0.00210837 -2.4312e-08 7.21182e-08 1.92768e-07 0.0005 1.46608e-07 
116 1 0.0178849 0.0220708 0.0160986 -0.0104651 -0.0114222 -0.002004 0 0 -1.43822e-06 0.0005 1.46608e-07 
117 1 0.0227599 0.0214417 0.0163001 -0.0108871 -0.0245093 -0.0162429 0 0 -1.43822e-06 0.0005 1.46608e-07 
118 1 0.0179199 0.0239483 0.0162632 0.00396516 -0.00707894 -0.0109222 -1.06809e-06 -7.82426e-06 1.085e-05 0.0005 1.46608e-07 
119 1 0.0230548 0.0218154 0.0149974 0.00726086 -0.00276739 0.00343426 -1.12645e-05 2.51555e-05 -2.54616e-05 0.0005 1.46608e-07 
120 1 0.0224786 0.0182099 0.015862 -2.57725e-08 0.0201296 0.00390037 -1.60873e-11 2.28113e-09 -1.34515e-08 0.0005 1.46608e-07 
121 1 0.0199543 0.0234709 0.014396 0.000561787 0.000423163 -0.00133321 -9.80567e-06 -9.99279e-06 -9.48931e-06 0.0005 1.46608e-07 
122 1 0.0185922 0.0213724 0.0162097 -0.00198577 -0.0069267 0.00293727 -1.43593e-05 -4.2897e-06 1.30698e-05 0.0005 1.46608e-07 
123 1 0.0224392 0.0144714 0.0142996 0.00104554 0.00145369 -0.00137106 -4.61641e-08 1.78735e-07 -5.05828e-07 0.0005 1.46608e-07 
124 1 0.0208895 0.0210395 0.016408 -0.00478351 0.00769154 0.00762912 0 0 -1.43822e-06 0.0005 1.46608e-07 
125 1 0.0222363 0.0164006 0.020641 0.0613412 0.142055 -0.117487 0 0 -1.43822e-06 0.0005 1.46608e-07 
126 1 0.0210262 0.0208862 0.0184486 0 -0 -0.03 0 0 0 0.0005 1.46608e-07 
127 1 0.0198454 0.0192322 0.0167644 -4.15452e-09 0.0247947 -0.000656959 -8.75334e-15 -2.83488e-10 -1.69258e-08 0.0005 1.46608e-07 
128 1 0.0166305 0.0214611 0.0152375 0.00335218 0.00153254 0.000279515 7.85864e-07 1.30414e-07 -1.37316e-06 0.0005 1.46608e-07 
129 1 0.0189987 0.0144557 0.0140625 -0.00110878 0.00080682 -0.00333476 6.84648e-08 2.94355e-07 7.22323e-07 0.0005 1.46608e-07 
130 1 0.0196976 0.0194351 0.0185016 0 -0 -0.03 0 0 0 0.0005 1.46608e-07 
131 1 0.0193067 0.0213075 0.0170868 -0.0196932 0.00457009 -0.00941419 0 0 -1.43822e-06 0.0005 1.46608e-07 
132 1 0.0196038 0.022974 0.0156841 -0.00115415 0.00322338 0.0394757 0 0 -1.43822e-06 0.0005 1.46608e-07 
133 1 0.022336 0.0197737 0.015888 -0.00506131 -0.0412258 0.0124567 1.4424e-08 2.05132e-07 -1.24701e-06 0.0005 1.46608e-07 
134 1 0.0236282 0.0204733 0.0165829 -0.0128596 -0.0201829 -0.0256242 0 0 -1.43822e-06 0.0005 1.46608e-07 
135 1 0.0186515 0.022874 0.0160942 -0.0127149 -0.0077408 -0.0207153 0 0 -1.43822e-06 0.0005 1.46608e-07 
136 1 0.0170238 0.014094 0.013687 0.00491724 -0.00155391 0.00103128 -6.99412e-09 4.89612e-08 -1.36178e-07 0.0005 1.46608e-07 
137 1 0.0213313 0.0181362 0.0189002 0 -0 -0.03 0 0 0 0.0005 1.46608e-07 
138 1 0.0183983 0.0201306 0.0166186 -4.93313e-09 0.0241217 -0.00489268 -1.30019e-14 -3.18062e-09 -1.64778e-08 0.0005 1.46608e-07 
139 1 0.0132038 0.0212896 0.0162428 6.76692e-05 -0.000238005 5.65293e-05 6.07309e-07 -1.73499e-07 -4.23541e-07 0.0005 1.46608e-07 
140 1 0.0220592 0.0217498 0.0150308 0.0106211 -0.0138546 0.0119734 7.34737e-08 1.06e-05 -5.29616e-06 0.0005 1.46608e-07 
141 1 0.023349 0.0165557 0.0151761 0.00495102 0.00775066 0.00558035 -1.48904e-08 -1.92816e-09 2.41577e-09 0.0005 1.46608e-07 
142 1 0.019886 0.0165115 0.0183426 0 0 -0.0515084 0 0 -1.43822e-06 0.0005 1.46608e-07 
143 1 0.0208034 0.0239099 0.0164954 0.00176521 -0.00023609 0.00155226 -1.68895e-06 1.80624e-06 -1.2443e-06 0.0005 1.46608e-07 
144 1 0.019293 0.0240126 0.0160801 0.00124821 -0.00777454 -0.0173163 -7.77213e-09 8.68171e-08 -1.4209e-06 0.0005 1.46608e-07 
145 1 0.0234723 0.0155476 0.0142451 0.00323451 0.000912254 -0.000629551 -8.23991e-08 -3.52042e-07 -4.65839e-07 0.0005 1.46608e-07 
146 1 0.0198254 0.0213754 0.0162342 0.00312598 -0.00464759 0.00358956 0 0 -1.43822e-06 0.0005 1.46608e-07 
147 1 0.0171476 0.0193812 0.0159331 8.27916e-11 0.0204579 -0.00163506 9.91005e-15 -1.1843e-09 -1.36087e-08 0.0005 1.46608e-07 
148 1 0.0199724 0.0143558 0.0138577 -0.000497264 0.00129801 -0.00170083 -7.2544e-08 1.26057e-07 1.92141e-07 0.0005 1.46608e-07 
149 1 0.02345 0.0220538 0.0169328 0.00354979 0.00747182 0.0358989 0 0 -1.43822e-06 0.0005 1.46608e-07 
150 1 0.0208805 0.0222565 0.0188749 0 -0 -0.03 0 0 0 0.0005 1.46608e-07 
