ITEM: TIMESTEP
1400000
ITEM: NUMBER OF ATOMS
224
ITEM: BOX BOUNDS ff ff ff
-0.02 0.43
-0.02 0.06
-0.02 0.07
ITEM: ATOMS id type x y z vx vy vz fx fy fz radius mass 
1 1 0.0208391 0.0239097 0.0146785 2.18985e-05 -0.000305051 -0.000169824 -6.37826e-07 1.29609e-06 -2.80732e-07 0.0005 1.46608e-07 
2 1 0.0177496 0.0235688 0.0138966 -0.00134736 0.0005016 -0.0037924 2.42132e-05 5.36644e-06 3.15196e-05 0.0005 1.46608e-07 
3 1 0.0244838 0.0222489 0.0158884 0.00053885 -8.6364e-05 0.00134681 1.56232e-07 -1.39968e-07 -1.85219e-07 0.0005 1.46608e-07 
4 1 0.0158287 0.0227145 0.0163655 0.000350998 -2.11212e-05 -0.000627751 -2.17532e-07 -1.79018e-07 2.80923e-07 0.0005 1.46608e-07 
5 1 0.0219814 0.0144049 0.013966 -0.000944894 -0.000853266 0.000523685 5.57499e-08 1.85851e-08 4.32152e-09 0.0005 1.46608e-07 
6 1 0.0181023 0.0174861 0.0156725 0.0026769 0.0107736 0.0032266 -5.28378e-07 -1.41031e-06 -3.03396e-07 0.0005 1.46608e-07 
7 1 0.0183104 0.0165932 0.0152082 0.00192115 0.0121396 0.00756113 -4.34562e-09 1.79801e-08 8.00308e-09 0.0005 1.46608e-07 
8 1 0.0226967 0.0215815 0.0161408 -0.000784261 0.00381219 -0.00278991 -3.84603e-08 1.44738e-06 -6.71545e-07 0.0005 1.46608e-07 
9 1 0.020927 0.0240298 0.0130226 0.000342307 -0.00339044 -0.00120644 3.28983e-06 -7.67177e-07 9.68845e-07 0.0005 1.46608e-07 
10 1 0.0190058 0.014732 0.0126407 -0.00507884 -0.000215105 0.0573023 0 0 -1.43822e-06 0.0005 1.46608e-07 
11 1 0.0164589 0.0233251 0.012709 0.00469076 0.00207982 -0.00577924 5.54867e-06 -1.54952e-06 -7.04413e-06 0.0005 1.46608e-07 
12 1 0.0204277 0.0178485 0.00734759 0.00121949 -0.0141627 0.00332015 6.58453e-09 8.16303e-08 2.39928e-09 0.0005 1.46608e-07 
13 1 0.0159881 0.0236188 0.0141698 0.00124545 0.0011961 0.000399021 1.40606e-08 1.72664e-08 5.58122e-09 0.0005 1.46608e-07 
14 1 0.0186033 0.0238337 0.013524 -0.00257087 0.00181834 -0.0023147 1.79728e-05 2.57676e-05 3.09615e-05 0.0005 1.46608e-07 
15 1 0.025219 0.020773 0.0156012 0.00123804 -0.000166551 -0.000632125 2.96668e-07 -4.26968e-07 2.67346e-07 0.0005 1.46608e-07 
16 1 0.0182345 0.0212475 0.0154711 0.004829 0.000724018 -0.00215332 -6.80662e-08 1.05146e-06 1.20788e-06 0.0005 1.46608e-07 
17 1 0.0219607 0.0238488 0.0133217 -0.00171514 3.32009e-05 -0.00177986 6.16445e-08 -9.07201e-09 1.31502e-08 0.0005 1.46608e-07 
18 1 0.0216605 0.0202432 0.00738489 0.00201279 -0.0192901 -0.00649747 -8.54466e-09 -1.216e-08 3.92717e-09 0.0005 1.46608e-07 
19 1 0.0193525 0.0244508 0.0136722 -0.000421955 -0.00072151 -0.00214374 1.12931e-05 7.61815e-07 1.39065e-05 0.0005 1.46608e-07 
20 1 0.0231276 0.0217847 0.015028 0.00147671 0.00834913 -0.00450671 -5.31769e-07 -8.35562e-07 -2.5459e-07 0.0005 1.46608e-07 
21 1 0.0191339 0.0147033 0.0116358 0.00388802 -0.00482475 0.0298071 2.64878e-07 -8.54793e-07 3.23246e-06 0.0005 1.46608e-07 
22 1 0.0192517 0.0157504 0.0144759 0.0163113 0.0104284 0.00680071 0 0 -1.43822e-06 0.0005 1.46608e-07 
23 1 0.0175129 0.0240331 0.0129349 -0.000449804 0.00149178 0.000617259 1.39475e-05 3.22415e-06 -1.35993e-06 0.0005 1.46608e-07 
24 1 0.0224796 0.0232033 0.0128087 0.00133454 0.00479024 -0.021109 -2.22634e-09 2.54027e-08 -6.73751e-08 0.0005 1.46608e-07 
25 1 0.0241095 0.021307 0.0161588 0.00090997 0.00519391 0.000816193 -8.62267e-07 -9.85421e-07 -5.29551e-07 0.0005 1.46608e-07 
26 1 0.0184741 0.0222741 0.0145737 0.0021433 0.00121344 -0.00323091 8.09972e-07 -3.11524e-06 1.61072e-06 0.0005 1.46608e-07 
27 1 0.0204776 0.0154747 0.00905241 0.000772242 -0.00725093 0.00891272 -3.54558e-06 -7.64594e-06 1.2554e-05 0.0005 1.46608e-07 
28 1 0.0216288 0.0232162 0.00969985 11.1838 -6.39212 -0.994948 1.97511 -0.703393 0.005436 0.0005 1.46608e-07 
29 1 0.0152193 0.0234418 0.0148291 0.00136995 0.000790122 0.000404517 1.48362e-06 9.27933e-07 1.13694e-07 0.0005 1.46608e-07 
30 1 0.0189966 0.023704 0.0154853 -0.00333409 -0.00130245 -0.00219021 1.21361e-06 4.3593e-08 2.52027e-06 0.0005 1.46608e-07 
31 1 0.0216129 0.0216791 0.0160779 -0.00593014 0.00791711 -0.00632811 -1.74425e-07 -1.60472e-06 2.44112e-07 0.0005 1.46608e-07 
32 1 0.0196709 0.0152361 0.00949986 0.000570425 -0.0101081 0.0173057 -6.42303e-07 -2.0104e-06 3.21782e-06 0.0005 1.46608e-07 
33 1 0.0234478 0.0221906 0.0158838 -6.77582e-05 0.00068116 -0.000348971 -5.91172e-07 -1.5821e-06 4.15896e-06 0.0005 1.46608e-07 
34 1 0.0187487 0.0152352 0.0137803 0.00206722 0.00754942 0.00821644 -1.55476e-07 1.17942e-08 -1.52288e-06 0.0005 1.46608e-07 
35 1 0.024574 0.0214509 0.0152851 0.00036559 0.000169336 -5.70636e-05 1.76298e-07 -3.72781e-09 9.12487e-07 0.0005 1.46608e-07 
36 1 0.0203431 0.0243993 0.0137265 0.000245968 -0.00121876 -0.000215112 6.13799e-06 -9.58197e-07 3.20818e-06 0.0005 1.46608e-07 
37 1 0.0209237 0.0202479 0.00739783 0.000437606 -0.0210845 -0.00674254 -3.02923e-09 -9.81137e-09 9.9054e-09 0.0005 1.46608e-07 
38 1 0.0206966 0.0192711 0.00718042 0.00138851 -0.0172387 -0.00100327 -1.2623e-08 -6.04618e-09 9.11718e-09 0.0005 1.46608e-07 
39 1 0.0193548 0.0244581 0.0170725 -0.000712647 0.000915967 0.00266649 -2.60822e-09 -1.05092e-07 -2.64701e-07 0.0005 1.46608e-07 
40 1 0.0229465 0.02372 0.0149683 0.000102537 0.0017002 -0.000151292 8.5458e-07 -8.3903e-07 1.13999e-07 0.0005 1.46608e-07 
41 1 0.0171897 0.0230192 0.0145156 0.00120874 0.000979132 -0.00169048 -3.06471e-06 -5.37312e-07 -6.10918e-06 0.0005 1.46608e-07 
42 1 0.0219864 0.0232552 0.0105059 -0.990616 0.663714 -1.47472 0.113361 -0.0400867 -0.0422587 0.0005 1.46608e-07 
43 1 0.0170754 0.0234725 0.0122232 0.0053251 -0.000196941 -0.00617824 2.25648e-05 -4.82561e-06 -3.56255e-05 0.0005 1.46608e-07 
44 1 0.0185578 0.0232633 0.014676 0.00173565 0.000227734 -0.000602485 1.32371e-06 -2.49445e-06 -8.27744e-07 0.0005 1.46608e-07 
45 1 0.0219839 0.0239604 0.0146496 -0.000385228 0.000119393 -0.000291218 2.43177e-07 -2.56326e-08 1.11842e-08 0.0005 1.46608e-07 
46 1 0.0229754 0.0234069 0.011339 0.000644092 0.000935152 -0.0113978 7.10448e-08 -3.05936e-08 3.7204e-07 0.0005 1.46608e-07 
47 1 0.0228798 0.022739 0.0150008 0.000860454 0.00573764 -0.00175564 7.74845e-07 -1.12922e-06 -5.61417e-08 0.0005 1.46608e-07 
48 1 0.0211727 0.0141852 0.01342 0.00138694 0.00156167 -0.0019555 -7.55032e-07 -6.04176e-07 1.21766e-06 0.0005 1.46608e-07 
49 1 0.0184738 0.0231662 0.0161784 0.000100987 0.000997707 0.00163891 -7.02956e-07 3.92053e-07 9.00506e-08 0.0005 1.46608e-07 
50 1 0.0216412 0.0226177 0.00911852 -0.0386584 1.14943 0.476116 0.0693874 -0.0201985 -0.0794101 0.0005 1.46608e-07 
51 1 0.0173948 0.0231766 0.0130926 0.00274952 0.00220382 -0.00465616 1.59669e-05 1.29426e-07 2.67134e-06 0.0005 1.46608e-07 
52 1 0.0199467 0.0240916 0.0126612 0.000390836 0.00276117 -0.00233031 -2.43872e-07 1.29944e-08 2.04617e-07 0.0005 1.46608e-07 
53 1 0.0253566 0.0198224 0.0158789 0.000577803 -0.000132631 -0.00117111 1.16499e-07 1.29608e-07 1.44632e-07 0.0005 1.46608e-07 
54 1 0.0178628 0.024432 0.0138624 -0.000430959 0.000117026 -0.000152536 1.85404e-05 -1.91114e-06 9.32476e-06 0.0005 1.46608e-07 
55 1 0.01389 0.0222996 0.015632 0.000406362 0.000958754 0.00110877 3.56794e-07 8.94313e-08 3.05265e-07 0.0005 1.46608e-07 
56 1 0.0182275 0.0143535 0.01529 0.0104506 0.0123672 -0.0677659 0 0 -1.43822e-06 0.0005 1.46608e-07 
57 1 0.0167748 0.0239323 0.0135964 -0.00092038 0.000465851 -0.00174416 -1.28637e-05 -5.70942e-06 -9.60031e-06 0.0005 1.46608e-07 
58 1 0.0184842 0.023993 0.0125782 0.000738866 0.00168351 0.00106714 1.11227e-05 5.626e-06 1.10248e-05 0.0005 1.46608e-07 
59 1 0.0224761 0.0229281 0.00954922 -1.8694 1.49959 -0.480187 0.0674021 0.0294365 -0.0348119 0.0005 1.46608e-07 
60 1 0.0198856 0.0149349 0.0103006 7.42913e-05 -0.0056443 0.0200086 4.32497e-08 -2.98383e-07 4.43458e-07 0.0005 1.46608e-07 
61 1 0.0169576 0.0239887 0.0145779 -0.000150932 0.000386409 -0.000446077 3.38476e-06 -3.33527e-08 1.26009e-06 0.0005 1.46608e-07 
62 1 0.0213215 0.0243149 0.0138974 -0.000218595 0.000345109 -0.000328788 7.87543e-07 -2.34344e-07 8.16845e-07 0.0005 1.46608e-07 
63 1 0.022613 0.0235793 0.0140171 -0.00117426 0.00172676 2.60696e-05 -1.47286e-08 -2.01253e-07 -1.21197e-07 0.0005 1.46608e-07 
64 1 0.0200446 0.0146393 0.0120222 0.00598509 0.00250019 0.0170993 -2.0859e-06 -3.70264e-07 1.62741e-06 0.0005 1.46608e-07 
65 1 0.0235134 0.0200609 0.015867 0.000476358 0.0160339 -0.00302893 -1.42886e-07 -2.52887e-07 -6.40717e-08 0.0005 1.46608e-07 
66 1 0.0177627 0.0237001 0.0150977 0.00111631 0.000169806 0.000242778 4.61768e-07 4.73813e-07 -7.36343e-07 0.0005 1.46608e-07 
67 1 0.0196908 0.0149005 0.0137606 -0.00309212 -0.0076114 -0.00864725 -2.38017e-06 5.35924e-07 -2.08912e-07 0.0005 1.46608e-07 
68 1 0.0215024 0.0235518 0.0140226 -0.00104459 0.000868 -0.00208114 3.692e-07 -1.67954e-07 3.27923e-07 0.0005 1.46608e-07 
69 1 0.0162162 0.0236377 0.0151499 -0.00022933 -0.000309995 -0.000619164 1.98707e-07 3.57014e-07 -2.88766e-07 0.0005 1.46608e-07 
70 1 0.0236694 0.0230908 0.0155095 -0.000473674 0.000444767 -0.000201284 2.51232e-07 -2.75197e-07 9.38117e-07 0.0005 1.46608e-07 
71 1 0.0195205 0.0230679 0.0148831 0.000274892 -0.000240835 0.00109949 -1.80851e-06 -3.80943e-06 4.00119e-07 0.0005 1.46608e-07 
72 1 0.0178956 0.0184338 0.015915 0.00283046 0.0121798 0.00281194 1.7797e-07 2.02371e-06 -1.05221e-06 0.0005 1.46608e-07 
73 1 0.0250842 0.0215306 0.0162398 0.000408348 -0.000846783 7.00153e-06 -2.96857e-07 1.98432e-07 -9.34263e-08 0.0005 1.46608e-07 
74 1 0.0198537 0.0158652 0.00862714 0.000367234 -0.0119781 0.0143714 1.20834e-06 5.25943e-07 -2.70282e-07 0.0005 1.46608e-07 
75 1 0.0256292 0.0206868 0.016509 -0.00010684 1.43184e-05 -0.00010382 2.40978e-07 -2.86611e-08 -2.62355e-07 0.0005 1.46608e-07 
76 1 0.0175047 0.0220973 0.0147348 0.00263398 0.00179306 -0.00260086 -3.45603e-07 5.84404e-06 -2.20058e-06 0.0005 1.46608e-07 
77 1 0.0177777 0.0224037 0.0172331 -0.000223891 0.00156346 0.00101079 -5.22837e-07 -5.24424e-07 -7.8795e-08 0.0005 1.46608e-07 
78 1 0.0191824 0.0234134 0.0169274 -0.000951984 0.00115751 0.00187276 -3.33537e-07 -2.69197e-08 -1.4527e-07 0.0005 1.46608e-07 
79 1 0.0249659 0.017845 0.015775 1.2078e-10 0.0197281 0.00557766 7.1447e-16 3.72404e-09 -1.31228e-08 0.0005 1.46608e-07 
80 1 0.0157828 0.0227468 0.0152747 4.19787e-05 -0.00138571 -0.000331417 5.56501e-07 5.04668e-07 -6.16317e-07 0.0005 1.46608e-07 
81 1 0.0222433 0.0223294 0.0156542 0.00149663 0.00141082 -0.00586774 -1.80348e-06 3.80544e-06 6.53392e-07 0.0005 1.46608e-07 
82 1 0.0144124 0.0215858 0.0160983 0.000212063 0.000685446 0.00100964 2.44713e-07 4.99569e-08 -5.2153e-07 0.0005 1.46608e-07 
83 1 0.0195826 0.0216827 0.0160563 -0.00120025 0.00097654 0.000550785 -2.84799e-07 1.39194e-06 5.66006e-07 0.0005 1.46608e-07 
84 1 0.0184484 0.0139913 0.0130436 -6.73507e-05 -0.000102503 0.000637644 -1.65215e-07 1.79064e-07 -9.29423e-07 0.0005 1.46608e-07 
85 1 0.0163568 0.0220036 0.0159012 0.000452368 0.00161225 -0.00306007 -6.28422e-07 -1.54573e-06 1.49466e-06 0.0005 1.46608e-07 
86 1 0.02105 0.0142812 0.0144077 -0.00234259 0.0019925 -0.00274641 3.04423e-07 1.40471e-07 -8.08564e-07 0.0005 1.46608e-07 
87 1 0.0190712 0.0171623 0.0155208 0.000145866 0.0150531 0.00699033 -1.90415e-08 9.8181e-08 3.88263e-08 0.0005 1.46608e-07 
88 1 0.0149026 0.0223177 0.0156235 0.000691198 0.000517395 9.69026e-05 8.81306e-07 -1.93573e-07 -5.63674e-07 0.0005 1.46608e-07 
89 1 0.0198716 0.0208033 0.0164344 0.00174901 0.00155967 -0.00056969 -1.18911e-07 -2.00085e-07 2.78701e-07 0.0005 1.46608e-07 
90 1 0.0166641 0.0229616 0.0135122 0.0022213 0.00355263 -0.00852537 4.44083e-06 -1.33591e-06 1.03202e-05 0.0005 1.46608e-07 
91 1 0.0159251 0.0208244 0.0164646 -0.00050616 0.000205923 0.00032584 7.53169e-07 -3.23924e-08 2.11368e-07 0.0005 1.46608e-07 
92 1 0.0200674 0.0161696 0.01489 0.0130056 -2.96715e-05 0.00172866 -2.16205e-07 -1.51492e-07 -2.45021e-07 0.0005 1.46608e-07 
93 1 0.0194448 0.0136395 0.0136147 -0.00172508 -0.00112508 0.0013458 -2.46174e-06 -8.73846e-07 -8.5901e-07 0.0005 1.46608e-07 
94 1 0.0191662 0.0248385 0.0179778 -0.001233 0.00100769 0.00272417 4.44046e-07 -5.91319e-07 -1.077e-06 0.0005 1.46608e-07 
95 1 0.016846 0.0234758 0.0159094 0.00285251 -0.00228189 -0.00407605 -3.07639e-07 -3.08531e-07 1.01099e-06 0.0005 1.46608e-07 
96 1 0.0184385 0.021961 0.0161413 -0.00163997 0.00179028 -0.00015528 -2.00918e-06 -2.79294e-06 -8.92034e-07 0.0005 1.46608e-07 
97 1 0.0253088 0.0187972 0.0159344 -3.22958e-06 0.0124297 0.000553202 3.03124e-09 5.39007e-07 3.7479e-08 0.0005 1.46608e-07 
98 1 0.0169708 0.0226167 0.0154043 0.00219303 0.000483265 -0.00157254 -1.88332e-08 4.31394e-07 9.97221e-07 0.0005 1.46608e-07 
99 1 0.0148362 0.0126286 0.0226158 0.0352892 0.0643477 -0.365982 -5.9827e-05 -0.000122853 0.000711322 0.0005 1.46608e-07 
100 1 0.0172482 0.0213477 0.015342 0.00337935 0.00375689 -0.00294438 -1.78958e-06 9.42149e-06 -3.32221e-06 0.0005 1.46608e-07 
101 1 0.0205928 0.0229907 0.014973 -0.000668677 -0.00101112 -0.0010318 5.99159e-07 1.2578e-06 -2.33153e-06 0.0005 1.46608e-07 
102 1 0.0181943 0.0205298 0.0168718 0.00149491 -0.000149292 0.00435444 4.96817e-07 -1.36829e-07 -1.17194e-06 0.0005 1.46608e-07 
103 1 0.0200897 0.0237717 0.0153423 0.000110253 -0.00128664 0.000562297 -2.27434e-06 -1.51043e-06 -1.71276e-06 0.0005 1.46608e-07 
104 1 0.0176769 0.0194094 0.0159362 0.00114485 0.0130825 -0.000757551 4.96813e-07 1.8006e-06 1.18576e-06 0.0005 1.46608e-07 
105 1 0.0143798 0.0229457 0.0150474 0.000437496 0.000591087 0.000259473 6.96577e-07 2.98359e-07 2.94286e-07 0.0005 1.46608e-07 
106 1 0.0192157 0.0240041 0.014557 0.000361738 0.000256949 -4.90531e-05 -1.19803e-06 -7.05696e-07 1.27409e-06 0.0005 1.46608e-07 
108 1 0.0234957 0.0225638 0.0142462 -0.00137948 -0.00169199 0.00205709 1.32146e-07 -7.41245e-08 -2.97673e-07 0.0005 1.46608e-07 
109 1 0.0196706 0.0189349 0.0161432 0.00538089 0.00576978 -0.033205 0 0 -1.43822e-06 0.0005 1.46608e-07 
110 1 0.0187232 0.0191954 0.0159539 0.00173694 0.0178796 -0.00107489 2.3332e-06 -1.9343e-06 -3.54687e-07 0.0005 1.46608e-07 
111 1 0.019065 0.02167 0.0151088 0.0048661 0.00159139 -0.0027556 2.83131e-06 -1.60607e-06 6.42419e-07 0.0005 1.46608e-07 
112 1 0.0175627 0.0234469 0.0115639 0.00554249 -0.00261676 -0.00706177 2.25608e-06 -3.0653e-05 -6.54996e-05 0.0005 1.46608e-07 
113 1 0.0198185 0.0231137 0.0162165 -0.00113644 0.000760912 0.00178707 -8.26146e-09 3.91765e-08 -1.70072e-06 0.0005 1.46608e-07 
114 1 0.0179838 0.0233312 0.0123829 0.00528419 -0.000174666 -0.000211358 1.16407e-05 1.039e-05 -1.30503e-05 0.0005 1.46608e-07 
115 1 0.0197968 0.0141557 0.0128482 0.00356449 0.00181412 0.0110222 -5.38191e-07 1.09888e-06 3.68689e-06 0.0005 1.46608e-07 
116 1 0.0179132 0.0214893 0.016852 0.00380175 0.00120213 0.00205399 -1.54596e-07 -2.8908e-07 -9.69752e-07 0.0005 1.46608e-07 
117 1 0.0258318 0.0195141 0.0167029 -0.000413564 -0.00163863 -0.00101698 -1.46307e-07 6.3341e-08 6.62068e-08 0.0005 1.46608e-07 
118 1 0.0176889 0.0239086 0.0162289 7.08642e-05 0.000132214 -6.30791e-05 6.82046e-07 1.07076e-07 3.84458e-07 0.0005 1.46608e-07 
119 1 0.0240227 0.0222173 0.0150018 0.00104884 0.00151368 0.000857313 -1.86153e-07 -3.18412e-07 -1.91699e-08 0.0005 1.46608e-07 
120 1 0.0237189 0.018908 0.0168161 -0.000355308 0.0277735 -0.00237415 0 0 -1.43822e-06 0.0005 1.46608e-07 
121 1 0.020037 0.0235687 0.0141896 -0.000225753 -3.49424e-05 7.94478e-05 -3.23476e-06 1.89047e-06 1.18341e-06 0.0005 1.46608e-07 
122 1 0.0189437 0.0225689 0.015529 0.000127274 0.000124029 0.00285296 -6.48246e-07 -2.74108e-06 2.39044e-06 0.0005 1.46608e-07 
123 1 0.02285 0.0146613 0.01439 -0.000747708 -0.000808446 8.86723e-05 -6.86023e-08 -6.85104e-08 -4.01874e-09 0.0005 1.46608e-07 
124 1 0.0227281 0.0227546 0.013893 0.00247004 0.006336 -0.0150971 1.83457e-08 -2.6304e-07 3.35194e-07 0.0005 1.46608e-07 
125 1 0.0234196 0.0209776 0.0155141 0.00414088 0.0122408 -0.00547164 -2.32615e-06 -1.42499e-06 4.50389e-07 0.0005 1.46608e-07 
126 1 0.0189029 0.0211745 0.0165851 0.000176895 -0.000728697 0.00028059 -5.94028e-07 -7.67211e-07 -9.01619e-08 0.0005 1.46608e-07 
127 1 0.0206265 0.0218268 0.015958 0.000960866 0.00163399 0.000281565 2.37485e-07 -2.37144e-07 1.59282e-07 0.0005 1.46608e-07 
128 1 0.0182387 0.022877 0.0137008 0.000707202 0.00851626 -0.0155711 1.1385e-05 -9.43516e-06 2.08255e-05 0.0005 1.46608e-07 
129 1 0.0205639 0.0149655 0.0132777 0.000725651 0.000804594 -0.00139472 -2.47061e-07 -2.73973e-07 2.61828e-07 0.0005 1.46608e-07 
130 1 0.0191971 0.0224295 0.0165982 -0.00875511 0.00201645 -0.00786317 -6.34559e-07 -1.5673e-06 6.90225e-07 0.0005 1.46608e-07 
131 1 0.0173788 0.0199759 0.0167042 -0.00105463 0.00244317 0.00579838 1.46985e-07 8.8769e-07 1.75991e-06 0.0005 1.46608e-07 
132 1 0.0151238 0.0227333 0.017521 0.00198189 0.00178232 -0.000725659 2.5447e-07 -3.06647e-08 2.36587e-08 0.0005 1.46608e-07 
133 1 0.0223599 0.0158812 0.0157029 -0.000385016 0.0192614 0.0147738 -6.71046e-08 1.03677e-07 3.60816e-08 0.0005 1.46608e-07 
134 1 0.0238817 0.0184851 0.0159135 0.00486474 0.00118616 -0.00121547 6.41157e-08 6.82783e-08 -1.42389e-06 0.0005 1.46608e-07 
135 1 0.0186407 0.0241112 0.0164589 -0.000483756 0.000772117 0.00173548 8.19259e-07 2.31005e-07 -3.78368e-07 0.0005 1.46608e-07 
136 1 0.0168135 0.0143961 0.0139553 -0.00981791 -0.00203029 -0.00638082 9.4439e-07 -2.0317e-06 1.75618e-06 0.0005 1.46608e-07 
137 1 0.0219193 0.0230139 0.0149625 -0.00111189 0.000520749 -0.000480944 1.0522e-07 1.95696e-07 -1.85966e-07 0.0005 1.46608e-07 
138 1 0.0185532 0.0142279 0.0140103 -0.00699994 0.00654383 0.00339319 1.6338e-06 -6.26988e-07 -5.95693e-07 0.0005 1.46608e-07 
139 1 0.01341 0.0215547 0.0160955 6.28616e-05 -4.04804e-06 -0.000225025 -1.10959e-07 -1.84835e-07 1.22194e-07 0.0005 1.46608e-07 
140 1 0.0232502 0.0231752 0.0127919 0.0016125 0.0058254 -0.0197591 -1.4272e-08 1.30879e-08 -2.64538e-08 0.0005 1.46608e-07 
141 1 0.0244236 0.0202958 0.0157726 0.00120218 0.00432707 -0.00176861 2.78223e-07 -5.3391e-08 2.22784e-06 0.0005 1.46608e-07 
142 1 0.0204075 0.0137262 0.0138713 0.00163722 0.00211787 0.0014055 -1.7287e-07 -8.68242e-08 -1.10684e-06 0.0005 1.46608e-07 
143 1 0.0209926 0.0235485 0.0157094 -0.000165727 -1.71259e-07 0.00657148 -2.98019e-06 -7.81686e-07 -2.19416e-07 0.0005 1.46608e-07 
144 1 0.0196491 0.0240981 0.0161873 -0.000284191 0.00102449 0.00238163 -1.12554e-06 -1.13635e-07 4.79998e-07 0.0005 1.46608e-07 
145 1 0.0244464 0.0193108 0.0159441 0.00640387 0.00560764 0.00103814 -1.46519e-08 4.19301e-08 -1.3883e-06 0.0005 1.46608e-07 
146 1 0.0199648 0.0224255 0.0155069 -0.000907032 0.0012085 0.00144927 8.61411e-07 6.67457e-07 -4.61307e-07 0.0005 1.46608e-07 
147 1 0.019487 0.0198898 0.015874 -0.000120728 0.0226148 0.00354387 0 0 -1.43822e-06 0.0005 1.46608e-07 
148 1 0.0209999 0.0146499 0.012296 0.00157136 0.00460049 0.0209683 -5.59167e-07 -5.45189e-07 1.03578e-07 0.0005 1.46608e-07 
149 1 0.0242305 0.0156522 0.0154177 0.00598693 0.00590497 0.00361046 2.42226e-08 3.1016e-08 6.72877e-09 0.0005 1.46608e-07 
150 1 0.0179834 0.0227511 0.0153197 0.000310123 0.000290044 0.000708971 -6.85692e-07 -1.5614e-06 2.85492e-07 0.0005 1.46608e-07 
151 1 0.0160335 0.0217289 0.016877 0.000508263 0.000424772 6.50606e-05 -2.80701e-08 -2.41317e-07 -1.53311e-07 0.0005 1.46608e-07 
152 1 0.0191465 0.0202289 0.0168146 -0.00208047 -0.00629493 -0.0196334 0 0 -1.43822e-06 0.0005 1.46608e-07 
153 1 0.0185279 0.0220241 0.0194428 0 -0 -0.03 0 0 0 0.0005 1.46608e-07 
154 1 0.0154218 0.0216056 0.0160957 0.000452358 0.000487819 0.000224714 -3.8822e-08 -2.89128e-07 -2.18597e-07 0.0005 1.46608e-07 
155 1 0.018139 0.0155751 0.0154349 0.00517233 0.0113753 0.00921505 9.78848e-08 -1.08834e-07 -1.29866e-07 0.0005 1.46608e-07 
156 1 0.0175318 0.0229411 0.0164265 9.33682e-06 0.00052106 0.000146088 7.04876e-07 4.30573e-07 1.06417e-06 0.0005 1.46608e-07 
157 1 0.0169934 0.0216564 0.0172838 0.000524337 0.000508756 0.000721976 -2.58432e-07 -6.70105e-07 -8.47209e-07 0.0005 1.46608e-07 
158 1 0.0208395 0.0229272 0.0164776 -0.00986214 0.0241064 0.0287983 1.20239e-06 -6.93272e-06 3.12708e-06 0.0005 1.46608e-07 
159 1 0.0174379 0.0219951 0.0161058 -0.00211816 -0.00100275 -0.00640676 1.64919e-07 3.40055e-07 -1.31956e-06 0.0005 1.46608e-07 
160 1 0.0160271 0.0190377 0.0167667 -0.00206325 0.00104556 0.00125909 -2.11567e-07 -2.35559e-07 -2.09856e-07 0.0005 1.46608e-07 
161 1 0.0215187 0.0149117 0.0156982 -0.0293404 -0.0100494 -0.012378 -3.82837e-07 -8.19816e-07 1.01478e-06 0.0005 1.46608e-07 
162 1 0.0163792 0.0199727 0.0167258 -0.00134212 0.000438495 0.00234936 1.1267e-06 2.40676e-07 2.27793e-07 0.0005 1.46608e-07 
163 1 0.0165024 0.0171568 0.0164024 -4.07798e-08 0.0230393 0.00898182 4.65086e-11 9.71551e-09 -1.44407e-08 0.0005 1.46608e-07 
164 1 0.0192302 0.0146163 0.014639 -0.00691377 -0.00101429 -0.0170389 0 0 -1.43822e-06 0.0005 1.46608e-07 
165 1 0.0213696 0.0159997 0.0157753 -0.00405144 -0.00190504 -0.0026793 5.51084e-08 -1.32379e-07 6.81844e-08 0.0005 1.46608e-07 
166 1 0.0220947 0.0223816 0.0166417 -0.00619113 0.00583886 -0.00782588 0 0 -1.43822e-06 0.0005 1.46608e-07 
167 1 0.0224961 0.0191008 0.0167641 -5.01981e-09 0.0247876 -5.28129e-05 4.65291e-14 1.16878e-10 -1.6916e-08 0.0005 1.46608e-07 
168 1 0.0180868 0.0219473 0.0205668 0 -0 -0.03 0 0 0 0.0005 1.46608e-07 
169 1 0.0153808 0.0199768 0.0166708 -0.00151116 -0.000718622 -0.000519407 1.03628e-06 5.57812e-07 1.94243e-07 0.0005 1.46608e-07 
170 1 0.0143264 0.0198342 0.0166809 -0.0031468 0.0017816 -0.000215593 1.50636e-07 -3.74135e-07 -2.19403e-07 0.0005 1.46608e-07 
171 1 0.0156807 0.0186955 0.0184764 0 -0 -0.03 0 0 0 0.0005 1.46608e-07 
172 1 0.0191182 0.0207961 0.015594 0.0112958 0.0107766 -0.00477506 1.20524e-06 -2.29618e-06 -3.47446e-07 0.0005 1.46608e-07 
173 1 0.0147415 0.0207204 0.0164759 -0.000558759 0.000159061 0.000512147 -3.38853e-07 -7.50165e-08 6.73969e-08 0.0005 1.46608e-07 
174 1 0.0167201 0.02244 0.016726 0.000114078 0.000468163 -0.00011864 -5.42477e-07 -3.8646e-07 -8.71584e-07 0.0005 1.46608e-07 
175 1 0.0189893 0.023451 0.0215634 0 -0 -0.03 0 0 0 0.0005 1.46608e-07 
176 1 0.0174505 0.0204443 0.0157195 0.00136683 0.00675115 -0.00233877 7.94579e-06 -5.20879e-06 3.83002e-07 0.0005 1.46608e-07 
177 1 0.0212006 0.0153929 0.0213762 0 -0 -0.03 0 0 0 0.0005 1.46608e-07 
178 1 0.020874 0.0191482 0.0167338 0.0104762 0.00725012 -0.00178 -4.87698e-07 7.88871e-07 5.70418e-08 0.0005 1.46608e-07 
179 1 0.0201012 0.0153649 0.0187963 0 -0 -0.03 0 0 0 0.0005 1.46608e-07 
180 1 0.0209898 0.0180679 0.0166575 7.16299e-10 0.0242686 0.0046168 3.11687e-15 3.14245e-09 -1.65471e-08 0.0005 1.46608e-07 
181 1 0.0177923 0.0235659 0.0171625 0.000923181 0.000357961 4.87852e-05 1.1585e-07 -6.54328e-07 6.50152e-07 0.0005 1.46608e-07 
182 1 0.0166093 0.0238748 0.0167951 0.00157638 0.000674015 -0.00573904 1.17786e-07 8.30163e-07 1.20051e-06 0.0005 1.46608e-07 
183 1 0.0199201 0.0217351 0.016996 0.0145913 0.00289227 -0.00585606 -5.67728e-07 1.4705e-08 9.86543e-07 0.0005 1.46608e-07 
184 1 0.0212654 0.0224789 0.015508 -0.000531643 -0.00146246 -0.00453845 3.17885e-07 4.19331e-06 1.35238e-07 0.0005 1.46608e-07 
185 1 0.0224662 0.0198197 0.0199394 0 -0 -0.03 0 0 0 0.0005 1.46608e-07 
186 1 0.0181802 0.0192661 0.0167906 0.0012827 0.0135453 -0.000382404 5.81531e-08 2.77372e-08 -1.47951e-06 0.0005 1.46608e-07 
187 1 0.0221408 0.0234104 0.0115188 0.000116233 0.00141433 -0.0213096 -3.03877e-07 7.94145e-08 -8.69688e-07 0.0005 1.46608e-07 
188 1 0.0214231 0.0200597 0.0176395 -0.0070543 0.0385482 0.000917342 0 0 -1.43822e-06 0.0005 1.46608e-07 
189 1 0.0176669 0.0206937 0.019981 0 -0 -0.03 0 0 0 0.0005 1.46608e-07 
190 1 0.0241886 0.017103 0.0154935 0.000570426 0.0182817 0.00887271 -2.72894e-10 6.99416e-09 -1.14369e-08 0.0005 1.46608e-07 
191 1 0.0187637 0.0166168 0.0202633 0 -0 -0.03 0 0 0 0.0005 1.46608e-07 
192 1 0.0172057 0.0151031 0.0150094 -0.00238476 -0.00843153 -0.0117723 2.33614e-08 -3.11909e-07 -3.09169e-07 0.0005 1.46608e-07 
193 1 0.0216946 0.0197873 0.0167163 -0.00116187 0.0269971 -0.00105713 0 0 -1.43822e-06 0.0005 1.46608e-07 
194 1 0.021969 0.0149543 0.0148065 -0.0021469 -0.00168958 0.000735704 3.24906e-07 -1.68169e-07 2.56031e-07 0.0005 1.46608e-07 
195 1 0.020133 0.0151095 0.0146632 0.0120293 -0.00269465 -0.00733905 0 0 -1.43822e-06 0.0005 1.46608e-07 
196 1 0.0194049 0.0192888 0.0170405 0.00219893 -0.00832401 -0.0276216 0 0 -1.43822e-06 0.0005 1.46608e-07 
197 1 0.0227072 0.0154902 0.0165552 0.0032919 0.0069666 0.00756581 -1.25366e-07 7.92083e-08 -7.46593e-09 0.0005 1.46608e-07 
198 1 0.0194088 0.018073 0.0198568 0 -0 -0.03 0 0 0 0.0005 1.46608e-07 
199 1 0.022004 0.0203373 0.0191503 0 -0 -0.03 0 0 0 0.0005 1.46608e-07 
200 1 0.020533 0.0200844 0.0166485 0.00646972 0.00588039 -0.00109272 -2.77713e-07 1.12351e-06 -1.9619e-07 0.0005 1.46608e-07 
201 1 0.0231353 0.0152755 0.0174329 0.00143218 -0.00304921 0.00596345 -4.42443e-09 1.02392e-07 -9.31848e-08 0.0005 1.46608e-07 
202 1 0.0133324 0.0184846 0.0159213 -1.60239e-08 0.0204247 0.00255069 -1.59574e-15 1.9428e-09 -1.55561e-08 0.0005 1.46608e-07 
203 1 0.0174697 0.018599 0.0177424 0.0263517 -0.00586664 0.18244 0 0 -1.43822e-06 0.0005 1.46608e-07 
204 1 0.0200747 0.0172196 0.0155473 0.00327988 -0.00318754 -0.00216764 -1.21221e-07 2.50849e-07 1.44266e-07 0.0005 1.46608e-07 
205 1 0.0168376 0.0212293 0.0163361 -0.00970929 0.00693043 -0.00158458 3.06783e-07 1.14425e-06 -7.06626e-07 0.0005 1.46608e-07 
206 1 0.0210973 0.0176849 0.0183694 0 0 -0.0461129 0 0 -1.43822e-06 0.0005 1.46608e-07 
207 1 0.0212312 0.0208315 0.0164465 -0.0119184 0.0121654 -0.0037173 2.34567e-07 3.00755e-07 -8.62902e-07 0.0005 1.46608e-07 
208 1 0.0151029 0.0146714 0.014914 0.011191 -0.00289579 -0.0203664 0 0 -1.43822e-06 0.0005 1.46608e-07 
209 1 0.0197805 0.0179405 0.0161758 0.017017 0.00618849 -0.00979252 0 0 -1.43822e-06 0.0005 1.46608e-07 
210 1 0.0219121 0.0232292 0.0159389 -6.84776e-05 5.29775e-06 -0.000314261 -3.97611e-07 3.96669e-07 -7.96225e-07 0.0005 1.46608e-07 
211 1 0.018394 0.0201309 0.0158266 0.00522176 0.0175287 -0.00464135 -3.44962e-06 6.91578e-07 2.34008e-06 0.0005 1.46608e-07 
212 1 0.017659 0.0139533 0.013657 -0.00440121 0.00283463 -0.0052115 -8.07959e-07 1.8456e-06 -4.76661e-07 0.0005 1.46608e-07 
213 1 0.0222424 0.0207657 0.0164991 -0.00705769 0.00658236 -0.00331298 3.48331e-07 1.26179e-06 -3.51847e-07 0.0005 1.46608e-07 
214 1 0.0213649 0.0157703 0.0176883 0 0 -0.124456 0 0 -1.43822e-06 0.0005 1.46608e-07 
215 1 0.0168882 0.0206629 0.0172402 -0.00527283 0.000635869 0.00403661 1.28656e-07 1.62518e-07 -1.06915e-06 0.0005 1.46608e-07 
216 1 0.0154267 0.0216624 0.0215638 0 -0 -0.03 0 0 0 0.0005 1.46608e-07 
217 1 0.0225197 0.0172496 0.016436 5.6402e-11 0.0232383 0.00844189 9.83097e-14 5.71045e-09 -1.58622e-08 0.0005 1.46608e-07 
218 1 0.021032 0.0224914 0.0199243 0 -0 -0.03 0 0 0 0.0005 1.46608e-07 
219 1 0.0158254 0.0153942 0.0152439 0.00499042 -0.00482573 -0.00447025 -1.00594e-07 -2.0932e-07 -1.66526e-07 0.0005 1.46608e-07 
220 1 0.0158348 0.0145066 0.0141368 -0.00625476 0.00157255 0.00291493 2.41511e-07 -5.41362e-07 -3.27746e-07 0.0005 1.46608e-07 
221 1 0.0216142 0.0189523 0.0212441 0 -0 -0.03 0 0 0 0.0005 1.46608e-07 
222 1 0.0149105 0.02203 0.0168429 0.000771803 0.00088839 0.000454648 6.29741e-08 -6.02223e-08 -4.53063e-07 0.0005 1.46608e-07 
223 1 0.0137424 0.0206846 0.016459 -0.000277611 -0.000143942 -0.000456904 -1.68888e-07 -1.38107e-07 3.08124e-08 0.0005 1.46608e-07 
224 1 0.0158635 0.0233086 0.0171691 0.00192447 0.00102868 -0.00155234 -3.24145e-07 1.0883e-07 -1.9901e-07 0.0005 1.46608e-07 
225 1 0.0180859 0.0184071 0.0211007 0 -0 -0.03 0 0 0 0.0005 1.46608e-07 
