ITEM: TIMESTEP
2800000
ITEM: NUMBER OF ATOMS
273
ITEM: BOX BOUNDS ff ff ff
-0.02 0.43
-0.02 0.06
-0.02 0.07
ITEM: ATOMS id type x y z vx vy vz fx fy fz radius mass 
1 1 0.0192542 0.0165972 0.0167322 -0.12459 -0.11673 -0.00233322 0 0 -1.43822e-06 0.0005 1.46608e-07 
2 1 0.0182931 0.0240508 0.0127947 0.0111108 0.00508748 -0.00542633 0.000139357 -3.16004e-05 0.000171178 0.0005 1.46608e-07 
3 1 0.0238733 0.0226853 0.0160146 -0.000820797 0.0018216 -0.0018893 1.54415e-07 -8.21901e-08 4.27645e-08 0.0005 1.46608e-07 
4 1 0.0179546 0.0232976 0.0125219 0.00607245 0.00611169 -0.00398205 3.25453e-06 6.2542e-05 6.44029e-05 0.0005 1.46608e-07 
5 1 0.0249906 0.020077 0.0171617 0.00122041 0.00178248 -0.0013589 -3.47054e-08 -5.636e-07 -1.55776e-07 0.0005 1.46608e-07 
6 1 0.0184655 0.0227395 0.0155987 8.11546e-05 0.00839493 -0.00315658 -3.88222e-06 -6.23445e-07 -7.83276e-07 0.0005 1.46608e-07 
7 1 0.0207613 0.0157111 0.00875457 0.000410977 -0.0136717 0.0160346 -3.48111e-09 3.61737e-09 1.35275e-08 0.0005 1.46608e-07 
8 1 0.0191134 0.0234299 0.0162282 -0.015665 0.00068042 -0.00289369 2.3065e-06 1.41369e-05 2.2786e-05 0.0005 1.46608e-07 
9 1 0.0208393 0.0240453 0.0129248 0.000722333 0.0021186 0.00167986 3.22372e-06 1.41738e-06 1.98763e-05 0.0005 1.46608e-07 
10 1 0.0169889 0.0226003 0.0154005 0.00844298 -0.0020736 -0.000624967 1.17755e-05 -1.25083e-05 8.48471e-06 0.0005 1.46608e-07 
11 1 0.0186912 0.0190579 0.0160493 -7.33935e-05 0.0238911 0.00389446 7.48227e-06 -7.47881e-06 -1.53054e-05 0.0005 1.46608e-07 
12 1 0.0216973 0.0147 0.0130117 0.00114928 0.00146379 -0.00171978 -5.82946e-08 -1.24547e-08 -8.97232e-07 0.0005 1.46608e-07 
13 1 0.0200836 0.0242342 0.0165257 -0.0323742 0.00928716 0.017144 1.01894e-05 -3.7936e-06 2.195e-07 0.0005 1.46608e-07 
14 1 0.0190132 0.0239285 0.0133237 -0.0100222 0.00182403 -0.00706983 0.000214355 3.76761e-05 3.17157e-05 0.0005 1.46608e-07 
15 1 0.0245578 0.0221652 0.0156635 -0.000228839 0.00255532 -0.00101182 5.05526e-08 -5.73027e-08 4.4268e-08 0.0005 1.46608e-07 
16 1 0.0213013 0.0176759 0.00745525 -0.000485306 -0.0234315 0.00502253 7.10138e-09 1.99885e-08 -2.5932e-08 0.0005 1.46608e-07 
17 1 0.0216724 0.0238707 0.01329 0.00013871 -0.000356732 -0.00139628 -6.50768e-06 7.89734e-07 -7.13446e-06 0.0005 1.46608e-07 
18 1 0.0230393 0.0233751 0.0111036 0.00296823 -0.000587613 -0.0117226 -2.39823e-05 -1.64749e-06 1.34246e-05 0.0005 1.46608e-07 
19 1 0.0195639 0.0244663 0.0137066 -0.0094696 -0.00131858 -0.0023212 5.8138e-05 3.36716e-06 3.03972e-05 0.0005 1.46608e-07 
20 1 0.0402891 0.0167947 0.00659266 8.77785e-16 -8.50613e-15 -2.18845e-14 -1.51824e-19 -2.75286e-21 -5.92923e-21 0.0005 1.46608e-07 
21 1 0.0177668 0.0200184 0.0167084 -0.00229506 0.0259297 -0.00491678 5.17341e-07 -2.09111e-07 3.84617e-08 0.0005 1.46608e-07 
22 1 0.0145496 0.0193634 0.0159484 0.00450124 0.0012212 0.000350554 6.52098e-07 -1.24029e-06 -2.71616e-07 0.0005 1.46608e-07 
23 1 0.0173928 0.0239983 0.0129016 0.0291742 0.0153054 0.0230753 -0.000419957 -0.000444951 -0.000467314 0.0005 1.46608e-07 
24 1 0.0238599 0.0183392 0.0289711 -0.00736679 -0.0125312 0.246313 0 0 -1.43822e-06 0.0005 1.46608e-07 
25 1 0.0196298 0.0155518 0.0156469 0.0103285 -0.0171466 -0.0112504 2.09809e-07 -1.84754e-07 -4.93701e-07 0.0005 1.46608e-07 
26 1 0.0202139 0.0147556 0.0112556 1.31918e-05 -0.00284021 0.0228073 -1.39389e-07 -1.49263e-07 1.83218e-07 0.0005 1.46608e-07 
27 1 0.0177736 0.0249439 0.0196282 -0.0133414 -0.0556124 0.0223064 0 0 -1.43822e-06 0.0005 1.46608e-07 
28 1 0.0199492 0.0145742 0.0152512 0.00973081 0.00321935 0.00335078 0 0 -1.43822e-06 0.0005 1.46608e-07 
29 1 0.0153366 0.0233331 0.014551 0.000995235 0.0010335 0.000359789 2.06699e-08 2.74759e-08 -1.69775e-08 0.0005 1.46608e-07 
30 1 0.0259991 0.0186554 0.0169221 0.00278168 0.00252298 0.00322809 -1.0932e-06 2.40806e-06 3.57599e-06 0.0005 1.46608e-07 
31 1 0.0190267 0.0223168 0.0171218 -0.0226146 0.035613 -0.0103273 0 0 -1.43822e-06 0.0005 1.46608e-07 
32 1 0.0226817 0.0229881 0.00967483 0.00161486 -0.000560029 -0.00225138 1.39517e-05 1.06061e-05 1.77523e-05 0.0005 1.46608e-07 
33 1 0.0234948 0.0230299 0.00973536 0.000970261 0.000720109 -0.00194437 7.91004e-06 7.9701e-06 1.11193e-05 0.0005 1.46608e-07 
34 1 0.020687 0.0173374 0.0156025 -1.47541e-05 0.0163672 0.00656045 1.16425e-10 1.07732e-07 4.06455e-08 0.0005 1.46608e-07 
35 1 0.0296393 0.0184913 0.00583954 2.5161e-14 -2.31866e-16 2.95161e-13 0 2.91581e-23 0 0.0005 1.46608e-07 
36 1 0.0204399 0.0244033 0.01379 -0.00581117 -0.00095022 -0.00437641 -4.69082e-05 3.8996e-06 -2.8148e-05 0.0005 1.46608e-07 
37 1 0.0228609 0.0232426 0.0103439 -8.6288e-05 -6.75324e-05 -0.0063737 -4.22887e-05 -7.2024e-06 -4.4193e-05 0.0005 1.46608e-07 
38 1 0.0203233 0.0145958 0.014243 0.00872313 0.00862502 -0.0138782 -1.99311e-07 7.87167e-08 -7.17026e-07 0.0005 1.46608e-07 
39 1 0.0208103 0.0150264 0.0150028 0.00139997 0.00959633 -0.00970456 7.69915e-07 2.86157e-07 -1.1231e-06 0.0005 1.46608e-07 
40 1 0.0228775 0.0237109 0.0151022 0.000341409 0.000782755 -0.000166428 -6.97768e-07 2.26134e-07 3.42199e-07 0.0005 1.46608e-07 
41 1 0.0183132 0.0234001 0.013774 -0.0164014 0.00184046 0.00794262 -8.47791e-05 -7.07346e-05 3.28424e-05 0.0005 1.46608e-07 
42 1 0.0239522 0.0216674 0.0158066 -0.00362323 0.00840371 -0.00605228 9.82487e-09 -1.02077e-07 5.74037e-09 0.0005 1.46608e-07 
43 1 0.0193997 0.0160985 0.0148419 0.00300657 0.00683966 0.00701842 5.61516e-08 -6.80729e-08 -1.42104e-07 0.0005 1.46608e-07 
44 1 0.0260772 0.0154816 0.0245278 0.132691 -0.522524 1.17428 0 0 -1.43822e-06 0.0005 1.46608e-07 
45 1 0.0221229 0.0231081 0.0148679 0.00199873 -0.0020722 0.00203159 -1.31795e-05 9.75862e-06 5.69313e-06 0.0005 1.46608e-07 
46 1 0.0197689 0.011894 0.0302923 -0.9433 -1.23876 2.641 0 0 -1.43822e-06 0.0005 1.46608e-07 
47 1 0.0229826 0.0234429 0.014276 -0.00143477 0.00132179 -0.00094684 -1.56919e-06 3.89081e-07 -1.1792e-06 0.0005 1.46608e-07 
48 1 0.0220758 0.0144449 0.0139898 0.00226818 0.0016378 0.000102654 5.43848e-06 -4.90518e-06 2.38803e-05 0.0005 1.46608e-07 
50 1 0.0235496 0.02269 0.0140107 0.00158136 0.00256584 -0.00422594 -2.54016e-08 5.57401e-08 -7.53976e-08 0.0005 1.46608e-07 
51 1 0.0200474 0.0146294 0.0122334 -0.000272826 2.22594e-05 0.0253478 9.08667e-08 1.06806e-06 -1.02257e-06 0.0005 1.46608e-07 
52 1 0.0200689 0.0240602 0.0124548 -0.000175651 0.000287191 -0.000183112 2.31613e-05 -2.13449e-06 -2.51779e-05 0.0005 1.46608e-07 
53 1 0.0264618 0.014984 0.0101143 0.000549921 -0.00453894 0.0125439 1.41685e-10 9.88317e-09 -2.29658e-08 0.0005 1.46608e-07 
54 1 0.0182752 0.0244099 0.0137765 -0.00677644 0.00112692 0.00406322 -7.45047e-05 -9.15875e-06 -0.000104788 0.0005 1.46608e-07 
55 1 0.0151273 0.0231569 0.0155536 -7.25245e-05 -0.000933327 -6.24458e-05 -7.08438e-07 2.61912e-07 -7.6898e-07 0.0005 1.46608e-07 
56 1 0.0176297 0.0189004 0.0167839 -0.0521192 0.0319963 0.00144685 2.95404e-06 -1.16699e-06 3.67382e-06 0.0005 1.46608e-07 
57 1 0.0172935 0.0243657 0.0139151 0.00187723 0.000505693 0.00163204 -9.51648e-06 1.15049e-05 3.91621e-05 0.0005 1.46608e-07 
58 1 0.0191094 0.0239359 0.0123984 0.0031987 0.00244043 -0.00651691 0.000105356 -1.29219e-05 -7.7436e-05 0.0005 1.46608e-07 
59 1 0.024133 0.0210115 0.0165164 0.00381179 0.0058333 -0.00645939 -1.40527e-06 -5.69691e-07 6.60233e-07 0.0005 1.46608e-07 
60 1 0.0154515 0.0403213 0.0636358 -0.341907 0.823282 1.77206 0 0 -1.43822e-06 0.0005 1.46608e-07 
61 1 0.0200835 0.0229003 0.0201257 -0.100834 0.0465543 0.0403736 0 0 -1.43822e-06 0.0005 1.46608e-07 
62 1 0.0212931 0.02434 0.014028 -0.000676813 -0.00161693 -0.000769089 -2.93029e-05 -3.25936e-06 -1.507e-05 0.0005 1.46608e-07 
63 1 0.0221628 0.0238077 0.0141547 -0.00137468 0.0104075 -0.000656375 -4.55116e-07 2.44477e-05 -1.73812e-06 0.0005 1.46608e-07 
64 1 0.0221327 0.0166388 0.0161668 -0.0276059 0.0014377 0.000613471 0 0 -1.43822e-06 0.0005 1.46608e-07 
65 1 0.0223569 0.0152666 0.0171976 -0.0518644 -0.0182818 0.112092 0 0 -1.43822e-06 0.0005 1.46608e-07 
66 1 0.0129121 0.0180476 0.0158446 0.00458565 -0.00161927 0.00286316 -8.30717e-07 1.36777e-06 -9.78875e-08 0.0005 1.46608e-07 
68 1 0.0212865 0.0235566 0.0140653 -0.000581409 -0.00536632 -0.00244805 -1.14429e-05 -1.36634e-06 -5.37153e-06 0.0005 1.46608e-07 
69 1 0.0160518 0.017498 0.016527 6.38988e-08 0.0236882 0.00721298 1.154e-14 5.46091e-09 -1.79456e-08 0.0005 1.46608e-07 
70 1 0.0211993 0.0228419 0.0151222 -4.21243e-05 -0.000344228 -0.000151399 -6.42399e-06 -1.77306e-06 6.17407e-06 0.0005 1.46608e-07 
71 1 0.0184964 0.0142885 0.0138052 0.00106836 -0.00319576 0.00646917 2.59125e-08 1.24667e-06 9.16034e-07 0.0005 1.46608e-07 
72 1 0.0166334 0.015569 0.0155603 0.0798121 -0.00188218 -0.0271533 0 0 -1.43822e-06 0.0005 1.46608e-07 
73 1 0.0249048 0.0220914 0.0164249 0.000297867 0.000394212 -0.000195809 1.29775e-07 -6.03615e-08 -1.01273e-07 0.0005 1.46608e-07 
74 1 0.0217787 0.0235079 0.0166159 0.0701921 -0.0723361 0.0402182 0 0 -1.43822e-06 0.0005 1.46608e-07 
75 1 0.0260937 0.0195728 0.0172382 0.000442584 0.00121133 0.000874702 1.09613e-06 -9.78371e-07 1.18613e-06 0.0005 1.46608e-07 
76 1 0.0196619 0.0153017 0.0138893 0.000418216 0.0123133 0.0177482 2.49418e-07 -3.11678e-08 -1.17225e-06 0.0005 1.46608e-07 
77 1 0.0177931 0.0221623 0.0167723 -0.0223451 0.000386033 0.0127824 1.37302e-05 -1.11248e-05 3.93936e-07 0.0005 1.46608e-07 
78 1 0.0167941 0.021822 0.0159976 0.00245635 0.0137538 -0.00849278 9.8678e-07 -2.56925e-07 2.64117e-07 0.0005 1.46608e-07 
79 1 0.0271998 0.0170625 0.00766189 0.000992926 -0.013776 0.00578725 2.1608e-06 4.28041e-06 -3.89831e-06 0.0005 1.46608e-07 
80 1 0.0162178 0.0230284 0.0149269 0.00742488 -0.00820303 -0.0232563 0 0 -1.43822e-06 0.0005 1.46608e-07 
81 1 0.0208583 0.0154073 0.0284484 -0.193597 -0.551755 0.955911 0 0 -1.43822e-06 0.0005 1.46608e-07 
82 1 0.0179902 0.0236181 0.0155438 0.00261853 0.00650224 0.00909267 9.42619e-08 7.13677e-07 -1.79462e-06 0.0005 1.46608e-07 
83 1 0.0150312 0.0220461 0.0166624 -0.000746063 0.00668103 -0.0178123 0 0 -1.43822e-06 0.0005 1.46608e-07 
84 1 0.0188963 0.02088 0.0163834 -0.0266265 0.0437389 0.0024801 0 0 -1.43822e-06 0.0005 1.46608e-07 
85 1 0.016547 0.023866 0.0134999 0.000408826 0.00131206 0.0018241 4.16708e-06 1.69131e-06 -1.0442e-06 0.0005 1.46608e-07 
86 1 0.0199663 0.0238721 0.015601 0.0156993 0.00693716 0.0159937 5.93752e-06 3.041e-06 7.551e-06 0.0005 1.46608e-07 
87 1 0.0215966 0.0189938 0.00716906 0.00103758 -0.0186656 0.000979265 -5.21799e-09 -1.43441e-08 1.04678e-08 0.0005 1.46608e-07 
88 1 0.0143261 0.0229176 0.0150409 -0.00032656 -0.00162923 -0.000156789 -5.42162e-08 2.30838e-07 -7.27938e-08 0.0005 1.46608e-07 
89 1 0.0135161 0.0172936 0.0155873 0.00454793 -0.00244029 0.00335627 -1.60195e-06 9.37555e-07 8.35445e-07 0.0005 1.46608e-07 
90 1 0.021083 0.015163 0.0136572 0.0102403 0.00522334 0.0088945 0 0 -1.43822e-06 0.0005 1.46608e-07 
91 1 0.0192602 0.0210848 0.0154694 0.00343227 0.00917458 -0.00621599 3.01687e-06 -5.47683e-06 4.44047e-06 0.0005 1.46608e-07 
92 1 0.0156858 0.0158119 0.0157768 0.053274 0.0102698 0.0771266 0 0 -1.43822e-06 0.0005 1.46608e-07 
93 1 0.0184949 0.0200182 0.0158578 -0.000648222 0.0261071 0.000995448 2.22285e-05 -1.46775e-05 3.52707e-05 0.0005 1.46608e-07 
95 1 0.0200369 0.0230509 0.0149018 0.00260047 0.00279501 -0.0055277 -1.3845e-05 -6.70477e-06 1.45449e-05 0.0005 1.46608e-07 
97 1 0.026841 0.0159123 0.00854041 0.00138689 -0.011066 0.0123362 -1.07496e-08 -3.97558e-08 6.04322e-08 0.0005 1.46608e-07 
98 1 0.016637 0.0189733 0.0180746 -0.175408 -0.0582135 -0.101693 0 0 -1.43822e-06 0.0005 1.46608e-07 
100 1 0.0208871 0.0149486 0.0163582 -0.188229 0.00190144 0.0359841 0 0 -1.43822e-06 0.0005 1.46608e-07 
101 1 0.0189606 0.0239252 0.0143257 0.00359347 0.00370656 -0.00294845 1.55943e-06 6.90685e-06 7.59796e-06 0.0005 1.46608e-07 
102 1 0.0194968 0.0142647 0.0137878 0.00560443 0.00218324 -0.00319223 4.50591e-07 1.15229e-07 6.24145e-07 0.0005 1.46608e-07 
103 1 0.015654 0.022937 0.016971 4.6527e-05 -0.000428987 -0.000249764 3.95528e-07 -2.64136e-07 -9.88874e-07 0.0005 1.46608e-07 
104 1 0.0148913 0.0176661 0.0157375 0.0099731 0.00377842 0.00259791 -2.46011e-07 2.02089e-07 2.70404e-07 0.0005 1.46608e-07 
105 1 0.0161736 0.0239236 0.0144676 0.00281138 -0.00613368 -0.0118248 2.90066e-07 -2.9764e-07 -5.75669e-07 0.0005 1.46608e-07 
106 1 0.02249 0.0228456 0.0157698 -0.0576542 0.0205167 0.0479256 0 0 -1.43822e-06 0.0005 1.46608e-07 
108 1 0.0249312 0.0179034 0.0157622 0.000697589 0.0171648 0.00456896 -6.37108e-07 5.13182e-06 1.4043e-06 0.0005 1.46608e-07 
109 1 0.0189044 0.0218597 0.0149517 0.00410961 0.00561774 -0.0104525 -1.38911e-05 -6.42832e-06 2.29738e-06 0.0005 1.46608e-07 
110 1 0.0191659 0.0169698 0.0154306 0.000410999 0.0180168 0.00905209 7.63555e-07 -1.77256e-06 -1.09904e-06 0.0005 1.46608e-07 
111 1 0.021768 0.0162592 0.00818674 0.0013347 -0.0163737 0.0123791 1.3447e-09 3.73493e-09 7.44858e-09 0.0005 1.46608e-07 
112 1 0.0204533 0.0139592 0.0133609 -0.00827065 0.00226969 -0.00449504 0 0 -1.43822e-06 0.0005 1.46608e-07 
113 1 0.0205173 0.0195154 0.0170332 -0.0326592 -0.0358804 -0.00669123 0 0 -1.43822e-06 0.0005 1.46608e-07 
114 1 0.0202423 0.0149187 0.0131706 0.000517376 0.0124585 0.0232155 0 0 -1.43822e-06 0.0005 1.46608e-07 
115 1 0.0133839 0.0189222 0.015951 0.00424352 -0.00170592 0.000630799 1.66127e-06 -1.2615e-06 -3.23514e-07 0.0005 1.46608e-07 
116 1 0.0169975 0.0235582 0.0156826 -0.00093226 -0.000886781 0.00122202 7.00174e-06 -7.66892e-06 -7.28995e-06 0.0005 1.46608e-07 
117 1 0.0255045 0.0174884 0.0163717 0.00174834 0.0103492 -0.000850823 3.69279e-06 9.66868e-06 -1.89117e-07 0.0005 1.46608e-07 
118 1 0.0229079 0.0146647 0.014501 0.00369204 -0.00687682 -0.00734738 0 0 -1.43822e-06 0.0005 1.46608e-07 
119 1 0.0235266 0.0231638 0.0152198 0.000741459 0.00433174 -0.00226536 -2.44281e-07 -2.57675e-07 8.54418e-07 0.0005 1.46608e-07 
120 1 0.0147894 0.0150653 0.0145986 0.00215824 -0.0019888 0.000778352 1.0382e-06 -5.63621e-07 2.79131e-07 0.0005 1.46608e-07 
121 1 0.0199123 0.0235932 0.0140452 0.000925587 0.000135499 -0.000506183 -1.59029e-05 -1.116e-06 -9.46759e-06 0.0005 1.46608e-07 
122 1 0.021803 0.0239322 0.0175574 0.0336674 0.0609603 0.162022 -2.6594e-07 -6.61587e-07 -1.5896e-06 0.0005 1.46608e-07 
123 1 0.0236334 0.0150888 0.0150442 0.00688672 -0.00620543 -0.0265241 0 0 -1.43822e-06 0.0005 1.46608e-07 
124 1 0.0227951 0.018886 0.0158942 6.31002e-06 0.0227583 0.000859647 -3.33045e-11 7.49138e-10 -1.72586e-08 0.0005 1.46608e-07 
125 1 0.0256247 0.0154107 0.0138452 0.00207246 0.00403548 0.00857208 -1.45025e-08 3.15038e-08 -3.39767e-08 0.0005 1.46608e-07 
126 1 0.0171782 0.0232982 0.0146663 -0.0182914 0.00826071 -0.0363666 0 0 -1.43822e-06 0.0005 1.46608e-07 
127 1 0.0256903 0.0184424 0.0160282 0.00838727 0.00105694 0.00432804 -1.27138e-05 2.35877e-05 3.10309e-06 0.0005 1.46608e-07 
128 1 0.0207061 0.0149267 0.010171 0.000257215 -0.00588378 0.0201119 -2.61889e-09 1.2374e-08 1.09486e-08 0.0005 1.46608e-07 
129 1 0.0183205 0.0142392 0.0147883 0.00474747 -0.0180235 0.00737252 -8.8666e-07 5.15762e-07 3.08827e-07 0.0005 1.46608e-07 
131 1 0.0207567 0.0237178 0.0150082 0.00168275 0.00083264 -0.000903386 -7.63648e-06 -6.21309e-07 4.3982e-08 0.0005 1.46608e-07 
132 1 0.0157707 0.0218456 0.0159406 -0.00136529 0.00377188 -0.00136209 -1.09192e-05 -8.27316e-07 -1.64899e-06 0.0005 1.46608e-07 
133 1 0.0185979 0.0241849 0.0166487 -0.0116716 -0.0043215 0.0061006 0 0 -1.43822e-06 0.0005 1.46608e-07 
135 1 0.0183467 0.0214252 0.0171589 -0.0201097 -0.00843855 -0.0022166 8.16073e-06 -1.91263e-05 1.4556e-05 0.0005 1.46608e-07 
136 1 0.0157334 0.019647 0.0167248 1.21464e-05 0.0246772 -0.00253862 -1.49832e-09 3.91189e-08 -2.69262e-08 0.0005 1.46608e-07 
138 1 0.0196286 0.0192317 0.01601 0.00127277 0.0242724 0.0156074 -1.30925e-05 1.12408e-05 6.91493e-06 0.0005 1.46608e-07 
139 1 0.0176456 0.0236037 0.0117094 0.00480193 0.00337298 0.00197785 6.37273e-05 4.45416e-05 4.73637e-05 0.0005 1.46608e-07 
140 1 0.0251613 0.0165851 0.0150668 -0.00122612 0.0188773 0.0149229 7.04627e-09 -1.22779e-09 5.87625e-08 0.0005 1.46608e-07 
141 1 0.0173266 0.0179022 0.0166514 5.26849e-08 0.0242101 0.00566865 2.11743e-11 4.29194e-09 -1.83439e-08 0.0005 1.46608e-07 
142 1 0.0205423 0.0194994 0.0159443 0.0017962 0.0180149 -0.000225357 -8.27333e-06 2.88093e-05 2.0008e-05 0.0005 1.46608e-07 
143 1 0.025474 0.0194244 0.0159514 -0.029091 0.0104707 -0.00398074 0 0 -1.43822e-06 0.0005 1.46608e-07 
144 1 0.0249072 0.0213126 0.015858 0.00370109 0.00522834 -0.00060707 1.6253e-06 2.94725e-07 -1.39549e-06 0.0005 1.46608e-07 
145 1 0.0172246 0.0232887 0.0119833 0.00027684 -0.000548146 -0.0301984 1.94219e-05 -6.88443e-05 -8.98867e-05 0.0005 1.46608e-07 
147 1 0.0219488 0.0205351 0.0075271 0.000717465 -0.0193927 -0.00896635 -3.32725e-09 -8.82949e-09 8.21452e-09 0.0005 1.46608e-07 
148 1 0.0231425 0.0226835 0.00915681 0.0017932 0.00141533 0.000374536 -4.96207e-06 3.26538e-06 6.79433e-06 0.0005 1.46608e-07 
149 1 0.0257999 0.0204018 0.0167588 0.000765979 0.000294248 0.000158767 8.34429e-08 -1.56351e-08 2.34631e-08 0.0005 1.46608e-07 
150 1 0.0204632 0.0223758 0.0156143 0.00548944 -0.0026864 0.00169112 0 0 -1.43822e-06 0.0005 1.46608e-07 
151 1 0.0192418 0.0230046 0.0135885 0.00148845 0.00547211 -0.00188204 -0.000118228 -2.71081e-06 -1.80718e-05 0.0005 1.46608e-07 
152 1 0.014919 0.0161429 0.01491 0.0149551 -0.000804078 0.0084309 0 0 -1.43822e-06 0.0005 1.46608e-07 
153 1 0.0142402 0.0184056 0.015908 0.00593371 0.00263369 -0.00545551 -3.7428e-06 3.51056e-05 1.37592e-05 0.0005 1.46608e-07 
154 1 0.0176062 0.0229021 0.016127 -0.00634865 -0.00105733 0.00737852 1.31834e-05 -1.80197e-05 -4.71344e-06 0.0005 1.46608e-07 
155 1 0.0182785 0.0209555 0.0155897 -0.000724029 0.0240081 -0.0114226 6.77009e-06 -7.19946e-06 4.66734e-06 0.0005 1.46608e-07 
156 1 0.0225111 0.0148109 0.0154634 0.0176374 -0.00824341 -0.0218167 0 0 -1.43822e-06 0.0005 1.46608e-07 
157 1 0.0179787 0.0239021 0.0145852 0.00146197 0.00164831 0.00410844 -1.82723e-06 -4.64046e-07 5.32602e-06 0.0005 1.46608e-07 
158 1 0.0144836 0.0202951 0.0164034 0.00296515 -0.000728131 -0.00278971 2.08524e-07 -5.4977e-07 2.58615e-07 0.0005 1.46608e-07 
159 1 0.0265549 0.0147859 0.0492107 0.236006 -0.585794 3.04213 0 0 -1.43822e-06 0.0005 1.46608e-07 
161 1 0.0210464 0.0146696 0.0122532 0.000544095 0.00057364 -0.000498066 -5.25102e-07 3.61727e-07 7.42742e-08 0.0005 1.46608e-07 
162 1 0.0181621 0.0181073 0.0172726 -0.10765 -0.0158652 0.0545935 0 0 -1.43822e-06 0.0005 1.46608e-07 
163 1 0.0125473 0.0198485 0.015871 -0.000445945 -0.000384064 -0.000213796 3.72583e-07 4.55689e-07 4.3278e-08 0.0005 1.46608e-07 
164 1 0.0209481 0.0240175 0.0169792 -0.0415189 0.0471938 0.0814017 -2.38753e-06 7.81759e-08 -4.39343e-06 0.0005 1.46608e-07 
165 1 0.0215258 0.0176259 0.0237035 -0.482132 -0.08544 0.970378 0 0 -1.43822e-06 0.0005 1.46608e-07 
166 1 0.0199993 0.0208087 0.0165833 -0.00458789 0.032798 0.0400268 0 0 -1.43822e-06 0.0005 1.46608e-07 
167 1 0.016665 0.0238019 0.0166023 0.00644323 -0.00302506 -0.014533 2.46769e-07 -2.82438e-07 -7.94317e-07 0.0005 1.46608e-07 
168 1 0.0135559 0.0214975 0.0152087 -0.000558304 -0.000602121 -0.000254803 6.34842e-07 -6.06138e-07 6.55024e-09 0.0005 1.46608e-07 
169 1 0.0158978 0.014515 0.0140321 0.00118108 -0.00066083 0.000483986 -4.56776e-07 -3.11263e-07 2.57684e-07 0.0005 1.46608e-07 
170 1 0.0171465 0.0237212 0.0120728 -1.02245e-05 0.0033262 0.0142459 3.25318e-05 -2.73066e-05 -7.55407e-05 0.0005 1.46608e-07 
171 1 0.0140327 0.0165435 0.015175 0.00380107 -0.0024154 0.00209066 -5.22988e-07 1.13125e-07 6.33798e-07 0.0005 1.46608e-07 
172 1 0.0199813 0.0165495 0.0158283 0.00565757 0.0059838 -0.0167095 2.69377e-06 -1.00705e-06 2.83831e-06 0.0005 1.46608e-07 
173 1 0.017594 0.0144563 0.0159878 0.00146191 0.00416303 -0.00449249 0 0 -1.43822e-06 0.0005 1.46608e-07 
174 1 0.0203685 0.0230799 0.0171685 0.0162248 0.0282636 0.00200842 0 0 -1.43822e-06 0.0005 1.46608e-07 
175 1 0.0034776 0.0199443 0.0471128 -0.209378 -0.0395522 0.146397 0 0 -1.43822e-06 0.0005 1.46608e-07 
176 1 0.02053 0.0152243 0.009545 0.00025655 -0.00950514 0.0184601 -1.50719e-09 -1.48331e-08 -3.17538e-08 0.0005 1.46608e-07 
177 1 0.0195943 0.024593 0.0173202 -0.0579726 0.00159099 0.0160421 -4.88306e-06 1.47008e-06 1.22126e-06 0.0005 1.46608e-07 
178 1 0.0228746 0.0223058 0.0166238 -0.0355401 -0.0599023 0.04785 0 0 -1.43822e-06 0.0005 1.46608e-07 
179 1 0.0163422 0.0187018 0.0259076 -0.0202302 -0.0681038 -0.166965 0 0 -1.43822e-06 0.0005 1.46608e-07 
180 1 0.0241245 0.0156073 0.0157538 -0.00198465 0.0546478 -0.0581966 0 0 -1.43822e-06 0.0005 1.46608e-07 
181 1 0.0185282 0.02023 0.0175609 -0.0476328 0.0280263 -0.0453891 0 0 -1.43822e-06 0.0005 1.46608e-07 
182 1 0.0143148 0.0215346 0.0161796 -0.000915278 -0.0013754 0.001135 1.09257e-07 2.81086e-07 2.59972e-07 0.0005 1.46608e-07 
183 1 0.0182939 0.0232304 0.0167745 -0.0295152 0.0432652 0.011579 4.61627e-08 -1.51589e-08 -1.39736e-06 0.0005 1.46608e-07 
184 1 0.0162241 0.0210536 0.0163523 0.00109594 -0.00678292 0.00433515 -7.9226e-08 1.06821e-06 -8.33754e-07 0.0005 1.46608e-07 
185 1 0.0244045 0.0201024 0.0164223 0.00627934 0.00369307 -0.00552114 -7.4063e-07 4.48535e-08 -7.45564e-08 0.0005 1.46608e-07 
187 1 0.0243096 0.0206597 0.0156123 0.000793104 0.0139198 -0.00563318 5.99508e-07 -3.51192e-07 1.07317e-07 0.0005 1.46608e-07 
188 1 0.0216903 0.0141245 0.0177327 -0.101424 -0.0741235 0.106434 0 0 -1.43822e-06 0.0005 1.46608e-07 
189 1 0.0148705 0.0222039 0.0156876 -4.46315e-05 -0.00253384 -2.66534e-05 1.09279e-06 3.46477e-07 -1.93283e-07 0.0005 1.46608e-07 
190 1 0.0260766 0.0147553 0.011642 0.00166494 0.000605975 0.0114425 -1.59105e-08 -1.27454e-08 -1.02436e-08 0.0005 1.46608e-07 
192 1 0.0178332 0.0153842 0.0162866 -0.00472519 0.00761846 0.014441 0 0 -1.43822e-06 0.0005 1.46608e-07 
193 1 0.0197589 0.0267245 0.0253502 -0.330667 0.670504 0.69849 0 0 -1.43822e-06 0.0005 1.46608e-07 
194 1 0.0234794 0.0223676 0.0154844 -0.00223448 0.0106993 -0.00915049 1.43519e-07 -1.35736e-07 6.5997e-08 0.0005 1.46608e-07 
195 1 0.0141078 0.0155469 0.0151491 0.00213715 -0.00231979 0.000947131 1.18328e-06 -5.60129e-07 -8.81243e-07 0.0005 1.46608e-07 
196 1 0.0175258 0.0231223 0.0132386 0.00537903 0.00313096 -0.000194643 4.62049e-05 -5.81626e-05 -4.79828e-05 0.0005 1.46608e-07 
197 1 0.0165711 0.0187101 0.0167589 6.51522e-08 0.0247576 0.00155171 1.3512e-14 1.16823e-09 -1.87559e-08 0.0005 1.46608e-07 
198 1 0.0212753 0.016582 0.0241021 -0.285009 -0.582748 0.823395 0 0 -1.43822e-06 0.0005 1.46608e-07 
200 1 0.0244263 0.0215894 0.0150553 -0.00133607 0.00399827 -0.0023515 5.39654e-08 1.24984e-07 -2.59627e-08 0.0005 1.46608e-07 
201 1 0.0211006 0.0165033 0.0151403 -0.000731746 0.0127419 0.00810003 0 0 -1.43822e-06 0.0005 1.46608e-07 
202 1 0.0150674 0.0165894 0.00799469 0.000163277 -0.0185146 0.012029 -9.17303e-10 1.4974e-09 1.35105e-08 0.0005 1.46608e-07 
203 1 0.0209874 0.0163627 0.00808732 0.000456561 -0.0173963 0.0129436 -6.9809e-10 2.94816e-09 1.19481e-08 0.0005 1.46608e-07 
204 1 0.0254402 0.0204072 0.01576 0.00911749 -0.0084476 -0.00646571 0 0 -1.43822e-06 0.0005 1.46608e-07 
205 1 0.0202228 0.0208528 0.0155941 0.0029209 0.00527842 5.22678e-05 2.21264e-06 8.50748e-06 -9.30162e-06 0.0005 1.46608e-07 
206 1 0.0198261 0.0162508 0.0199199 -0.191329 0.0214969 0.43785 0 0 -1.43822e-06 0.0005 1.46608e-07 
208 1 0.0115548 0.0408833 0.00920852 -0.0532657 0.0360294 -0.819796 0 0 -1.43822e-06 0.0005 1.46608e-07 
209 1 0.0225577 0.0224392 0.00904552 0.00120123 -0.0061067 -0.00767916 -2.64851e-07 -4.35815e-07 1.48514e-06 0.0005 1.46608e-07 
210 1 0.019056 0.0217662 0.0187081 -0.117067 0.0330729 -0.0617431 0 0 -1.43822e-06 0.0005 1.46608e-07 
211 1 0.0225237 0.0158286 0.0156514 -0.0188233 -0.00894079 0.00309251 0 0 -1.43822e-06 0.0005 1.46608e-07 
212 1 0.0174585 0.0211638 0.0163583 0.000687791 0.0146264 -0.00587955 -1.14325e-07 1.2934e-06 -6.2468e-07 0.0005 1.46608e-07 
213 1 0.0213634 0.0187358 0.022851 -0.259691 -0.0296792 0.65588 0 0 -1.43822e-06 0.0005 1.46608e-07 
215 1 0.0228829 0.017358 0.0165306 -0.0927013 -0.0118965 -0.0182996 0 0 -1.43822e-06 0.0005 1.46608e-07 
216 1 0.0206082 0.0157811 0.0156275 -0.00556248 0.00384813 -0.00416283 0 0 -1.43822e-06 0.0005 1.46608e-07 
217 1 0.0225603 0.0213673 0.0162211 -5.38979e-05 0.0226586 -0.0111833 1.37312e-08 -1.23743e-07 5.149e-08 0.0005 1.46608e-07 
218 1 0.0254525 0.0213105 0.0166729 0.000820677 0.000956395 0.00134627 7.51767e-08 7.85611e-07 2.90652e-06 0.0005 1.46608e-07 
219 1 0.019437 0.0225231 0.0155035 -0.00158947 0.00136388 -0.00180432 4.19524e-06 4.16523e-08 -1.08775e-06 0.0005 1.46608e-07 
220 1 0.0164796 0.0224276 0.0167284 0.0043165 0.00348565 0.00186961 1.00684e-06 6.11819e-07 5.97078e-07 0.0005 1.46608e-07 
221 1 0.0208479 0.0215636 0.0160953 -0.000269262 0.014074 -0.00711177 3.81466e-08 9.6174e-07 -5.26367e-07 0.0005 1.46608e-07 
222 1 0.0138786 0.0223047 0.0157022 -0.000274002 -0.00101176 -0.000130123 -8.916e-09 5.64825e-07 -2.80161e-07 0.0005 1.46608e-07 
223 1 0.0179197 0.0233639 0.0110528 0.00146953 0.0027945 -0.000808923 3.10692e-05 -6.99386e-06 -1.17025e-05 0.0005 1.46608e-07 
224 1 0.0200408 0.0230492 0.016224 -0.0122636 -0.030202 0.0155399 0 0 -1.43822e-06 0.0005 1.46608e-07 
225 1 0.0175351 0.014492 0.0141767 0.0012051 -0.000631782 0.00125219 -3.83609e-07 -1.78765e-07 -1.00194e-06 0.0005 1.46608e-07 
226 1 0.0204874 0.0228937 0.0183855 -0.0595648 0.0107307 -0.0273172 0 0 -1.43822e-06 0.0005 1.46608e-07 
229 1 0.01521 0.0211142 0.0163299 -0.000297465 -0.00441635 0.00121529 0 0 -1.43822e-06 0.0005 1.46608e-07 
231 1 0.0237045 0.0231256 0.0130136 -7.92958e-05 0.000240045 0.00217012 -6.97592e-09 7.19511e-08 -3.3865e-07 0.0005 1.46608e-07 
232 1 0.0192399 0.0142729 0.0160133 0.00315851 0.00165549 -0.00359026 0 0 -1.43822e-06 0.0005 1.46608e-07 
233 1 0.021055 0.0225858 0.0163929 0.0256219 0.00286422 -0.013732 0 0 -1.43822e-06 0.0005 1.46608e-07 
234 1 0.0188178 0.0232521 0.0126538 0.00506057 0.00307714 -0.0151167 0.000149554 -1.6155e-06 5.4369e-06 0.0005 1.46608e-07 
235 1 0.0126704 0.0205823 0.0165523 -0.000491746 -0.00127492 -0.000196177 3.86127e-07 3.11598e-07 -2.87932e-07 0.0005 1.46608e-07 
236 1 0.0195092 0.0197253 0.0168705 -0.0377197 0.0849004 -0.0001666 -9.38613e-06 4.02931e-05 1.91276e-05 0.0005 1.46608e-07 
237 1 0.0197642 0.0174928 0.0167746 -0.114813 -0.110932 -0.0254141 0 0 -1.43822e-06 0.0005 1.46608e-07 
238 1 0.0208772 0.0244008 0.0179062 -0.0162518 0.0635505 0.110765 0 0 -1.43822e-06 0.0005 1.46608e-07 
239 1 0.0179779 0.0218803 0.0158249 -0.00844549 0.013653 -0.0018869 0 0 -1.43822e-06 0.0005 1.46608e-07 
240 1 0.023213 0.0164308 0.016313 -0.0554602 -0.0210204 0.0496757 0 0 -1.43822e-06 0.0005 1.46608e-07 
241 1 0.0216372 0.0209992 0.0163754 0.00335392 0.0180914 -0.00701683 -2.94448e-07 8.08271e-07 -3.56242e-07 0.0005 1.46608e-07 
242 1 0.0194661 0.0224449 0.0143716 0.00366404 0.0060724 -0.00674686 1.7819e-05 1.53618e-05 1.67145e-05 0.0005 1.46608e-07 
243 1 0.0191718 0.0148181 0.0146715 0.000193404 0.0138633 0.01947 1.73446e-08 -4.95995e-08 -1.22135e-06 0.0005 1.46608e-07 
244 1 0.0182124 0.0154467 0.0153587 -0.00225165 0.0118024 0.0110719 8.5183e-08 -1.74883e-07 -1.81648e-07 0.0005 1.46608e-07 
245 1 0.0175338 0.0162854 0.0159692 -0.0165896 0.00119565 0.0014008 5.78616e-07 -1.84951e-08 2.28798e-07 0.0005 1.46608e-07 
246 1 0.0176693 0.0376552 0.0435188 -2.15827e-49 -4.81989e-49 -2.35252e-12 5.39711e-52 1.20565e-51 0 0.0005 1.46608e-07 
247 1 0.0130561 0.0206761 0.0156345 -3.62531e-05 -0.000394531 -0.000228914 -2.21574e-07 2.98499e-07 -3.86215e-07 0.0005 1.46608e-07 
248 1 0.021786 0.0149683 0.0147914 0.00173741 0.00491377 -0.00518798 0 0 -1.43822e-06 0.0005 1.46608e-07 
250 1 0.0208966 0.0173181 0.019786 -0.112474 -0.202711 0.25446 0 0 -1.43822e-06 0.0005 1.46608e-07 
251 1 0.018515 0.0194017 0.0169711 -0.0165666 0.00187875 -0.0124179 2.04538e-05 1.82507e-05 4.35869e-05 0.0005 1.46608e-07 
252 1 0.0238222 0.0219073 0.0166297 -0.000544252 0.00205068 -0.00189468 -5.83772e-07 1.35689e-07 -1.77353e-07 0.0005 1.46608e-07 
253 1 0.0191237 0.0234829 0.01523 0.00462056 0.0110223 0.0143536 1.00587e-05 5.86676e-06 -1.13562e-05 0.0005 1.46608e-07 
254 1 0.023956 0.0190862 0.0428504 -0.016552 -0.172439 2.50367 0 0 -1.43822e-06 0.0005 1.46608e-07 
256 1 0.0218255 0.0168212 0.0173021 -0.040175 -0.117217 0.0536089 0 0 -1.43822e-06 0.0005 1.46608e-07 
257 1 0.01667 0.0202026 0.0166307 0.00588355 -0.00885963 0.00378559 0 0 -1.43822e-06 0.0005 1.46608e-07 
258 1 0.0185777 0.0234769 0.0117705 0.00110324 0.00133171 -0.00758721 2.04947e-05 4.63876e-05 9.7722e-05 0.0005 1.46608e-07 
259 1 0.0174885 0.0208031 0.0172944 -0.0266832 0.00350647 -0.00748535 0 0 -1.43822e-06 0.0005 1.46608e-07 
260 1 0.0192953 0.0210364 0.0172875 -0.0232512 0.0383884 0.0131177 0 0 -1.43822e-06 0.0005 1.46608e-07 
261 1 0.0166276 0.0166563 0.0161899 -0.0171603 0.016013 0.00798495 7.63507e-07 -2.61714e-07 -2.10924e-07 0.0005 1.46608e-07 
263 1 0.0186189 0.0229146 0.0145811 0.00947771 0.013663 0.0021787 -8.01429e-06 3.53457e-06 1.89537e-05 0.0005 1.46608e-07 
264 1 0.0244229 0.017411 0.0169482 0.0252748 0.014463 0.0934897 0 0 -1.43822e-06 0.0005 1.46608e-07 
265 1 0.0192618 0.0178985 0.0157938 -0.00953478 0.0212916 0.0110472 0 0 -1.43822e-06 0.0005 1.46608e-07 
266 1 0.0208892 0.0235765 0.0160703 -0.0562725 0.0114453 0.00777544 0 0 -1.43822e-06 0.0005 1.46608e-07 
268 1 0.020988 0.0159596 0.0167398 -0.0237636 -0.203352 -0.0359949 0 0 -1.43822e-06 0.0005 1.46608e-07 
269 1 0.0188181 0.0151781 0.0161137 0.00191737 0.00522988 0.00858171 0 0 -1.43822e-06 0.0005 1.46608e-07 
270 1 0.0223396 0.017754 0.0173657 -0.205463 -0.02053 -0.0320992 0 0 -1.43822e-06 0.0005 1.46608e-07 
272 1 0.0189756 0.0139952 0.0129782 -0.000118305 7.41522e-05 0.00166389 -8.76052e-07 1.13082e-06 1.00151e-06 0.0005 1.46608e-07 
273 1 0.0176744 0.0140923 0.0132707 0.00211622 -0.00156066 0.00375584 1.29113e-06 7.86061e-08 8.399e-07 0.0005 1.46608e-07 
274 1 0.0198882 0.0218183 0.0162221 -0.00338624 0.00682998 -0.00622747 0 0 -1.43822e-06 0.0005 1.46608e-07 