ITEM: TIMESTEP
3800000
ITEM: NUMBER OF ATOMS
233
ITEM: BOX BOUNDS ff ff ff
-0.02 0.43
-0.02 0.06
-0.02 0.07
ITEM: ATOMS id type x y z vx vy vz fx fy fz radius mass 
1 1 0.0209551 0.0228211 0.0152399 -0.00373353 0.00271396 -0.00182219 0 0 -1.43822e-06 0.0005 1.46608e-07 
2 1 0.0182862 0.0240467 0.0126769 0.00114182 0.000161424 0.000185418 2.85202e-07 2.48547e-07 -6.52261e-08 0.0005 1.46608e-07 
4 1 0.0202609 0.0154387 0.00915065 0.000556842 -0.00799106 0.0104171 -8.7074e-08 -2.48281e-08 7.8567e-08 0.0005 1.46608e-07 
6 1 0.0177942 0.0229635 0.0152519 0.0158965 0.0358897 -0.0453099 0 0 -1.43822e-06 0.0005 1.46608e-07 
7 1 0.0225217 0.0229318 0.0164284 -0.00420854 0.00428335 -8.25789e-06 1.59876e-07 -9.13148e-07 -2.10717e-06 0.0005 1.46608e-07 
8 1 0.0232426 0.0232701 0.0104934 0.00147605 -0.00497556 -0.0188028 2.6402e-06 -1.12222e-06 -5.29898e-06 0.0005 1.46608e-07 
9 1 0.0211394 0.0240124 0.0131415 -0.000392643 0.000123207 -0.00214969 -1.55748e-08 7.00364e-09 -2.72867e-08 0.0005 1.46608e-07 
10 1 0.0189516 0.0233122 0.0144451 0.00249464 0.00135437 -0.00146203 2.47917e-06 1.93978e-06 -2.62653e-06 0.0005 1.46608e-07 
11 1 0.0198744 0.024245 0.0164664 0.00368206 -0.00918788 -0.0216568 8.14374e-10 -3.69536e-07 -8.35759e-07 0.0005 1.46608e-07 
12 1 0.0238189 0.0222055 0.0146318 0.000716957 0.00215956 -0.00130821 -1.68426e-07 6.6345e-07 9.67924e-07 0.0005 1.46608e-07 
13 1 0.0206068 0.0238869 0.0146967 0.00811936 0.00336974 -0.0210102 0 0 -1.43822e-06 0.0005 1.46608e-07 
14 1 0.0189933 0.0242734 0.0130929 -0.00126789 0.000651849 0.000922255 5.69272e-08 2.69274e-08 8.11647e-08 0.0005 1.46608e-07 
15 1 0.0214598 0.0233816 0.0145049 -0.000218831 -0.000778096 0.000680868 -2.20358e-07 1.05492e-07 -5.51131e-07 0.0005 1.46608e-07 
16 1 0.0182579 0.0158636 0.0159263 -9.27335e-05 0.0225011 0.0164084 -2.70372e-07 -2.73929e-07 1.37252e-06 0.0005 1.46608e-07 
17 1 0.0219502 0.0238269 0.0135212 -0.00102175 -0.000227671 -0.000802998 -1.20101e-09 1.64928e-08 -1.95113e-08 0.0005 1.46608e-07 
18 1 0.0243835 0.0157777 0.0142739 0.000700775 0.013206 0.0154932 -9.34107e-09 8.78446e-09 -1.90683e-09 0.0005 1.46608e-07 
19 1 0.0196228 0.0245046 0.0136151 -0.000490925 0.000130441 0.000115415 -1.55113e-07 1.48322e-07 -7.74516e-08 0.0005 1.46608e-07 
20 1 0.0402891 0.0167947 0.00659266 1.00601e-15 -8.57606e-15 -2.18515e-14 -6.59561e-20 -2.11758e-20 5.92923e-21 0.0005 1.46608e-07 
21 1 0.0248722 0.0163654 0.0159383 0.00953051 0.0165599 0.00209186 0 0 -1.43822e-06 0.0005 1.46608e-07 
22 1 0.0172065 0.0232208 0.0129876 0.00508523 0.00225644 -0.00641704 -1.44627e-06 -4.72688e-08 -1.38312e-06 0.0005 1.46608e-07 
23 1 0.0173735 0.0240281 0.0128652 0.00165408 -2.68109e-05 -0.00257381 6.54011e-07 4.50359e-07 4.11077e-07 0.0005 1.46608e-07 
24 1 0.0194684 0.015496 0.0145055 -0.000247098 0.0159468 0.0191814 -1.65507e-07 -3.10926e-07 8.50077e-07 0.0005 1.46608e-07 
25 1 0.0202605 0.0220694 0.0157932 -0.070226 -0.0179116 0.00178179 0 0 -1.43822e-06 0.0005 1.46608e-07 
26 1 0.0216802 0.0230162 0.00985637 0.000758915 -0.00649072 -0.0176956 3.7957e-08 -8.17344e-08 6.15966e-08 0.0005 1.46608e-07 
27 1 0.0187083 0.0226163 0.0158837 0.0257392 0.00980337 -0.068168 0 0 -1.43822e-06 0.0005 1.46608e-07 
28 1 0.0211106 0.0204684 0.016554 0.00187846 0.00652352 -0.00233122 0 0 -1.43822e-06 0.0005 1.46608e-07 
29 1 0.0159394 0.0236308 0.014028 0.00109179 -0.002913 -0.000490864 -9.24749e-08 -4.23757e-07 -1.10845e-08 0.0005 1.46608e-07 
30 1 0.0222889 0.0232974 0.0124426 0.00027591 0.00438608 -0.020264 -2.33799e-09 -7.99208e-09 -1.06936e-08 0.0005 1.46608e-07 
31 1 0.0154516 0.0154424 0.0153196 -0.00854236 -0.00367399 -0.00249419 1.39206e-07 -1.72923e-07 -1.13067e-07 0.0005 1.46608e-07 
32 1 0.0240653 0.0179459 0.0158215 -0.00194644 0.0172639 0.0172939 0 0 -1.43822e-06 0.0005 1.46608e-07 
33 1 0.0251452 0.0148077 0.0123189 0.000150621 0.00512765 0.0188328 9.43167e-09 6.59631e-09 -3.20102e-09 0.0005 1.46608e-07 
35 1 0.0296393 0.0184913 0.00583954 2.5161e-14 -2.45545e-16 2.95161e-13 0 2.99853e-22 0 0.0005 1.46608e-07 
36 1 0.0205236 0.024376 0.0137846 -0.000436729 -8.81548e-05 -0.000593293 -5.72878e-08 2.97498e-08 -7.50464e-08 0.0005 1.46608e-07 
37 1 0.0241241 0.0170083 0.0154624 7.49739e-05 0.0205523 0.0112111 1.05523e-07 -9.47786e-08 -1.1105e-06 0.0005 1.46608e-07 
38 1 0.0202374 0.0149635 0.0132481 -0.00156517 0.00596171 0.0164299 0 0 -1.43822e-06 0.0005 1.46608e-07 
39 1 0.0185582 0.0172357 0.0163897 -0.000290678 0.0237206 0.0090781 -1.29712e-06 1.2736e-06 5.10472e-07 0.0005 1.46608e-07 
40 1 0.0227646 0.0235 0.0152292 0.00272227 0.0142104 -0.0114817 0 0 -1.43822e-06 0.0005 1.46608e-07 
41 1 0.0180343 0.0237006 0.0134613 -0.00277768 -0.00230575 0.00213112 6.67973e-07 7.77727e-07 -8.88878e-07 0.0005 1.46608e-07 
43 1 0.0213815 0.015575 0.0154366 0.0102637 -0.000124643 -0.000525414 -4.97311e-08 -1.84833e-07 -1.16987e-07 0.0005 1.46608e-07 
45 1 0.0231687 0.0232806 0.0124005 0.000224302 0.00426789 -0.0201951 -2.643e-09 -7.80774e-09 -9.10752e-09 0.0005 1.46608e-07 
47 1 0.0230023 0.0233162 0.0142723 0.00153225 0.00279948 -0.00065719 -7.21454e-08 -4.78413e-09 -1.12184e-07 0.0005 1.46608e-07 
48 1 0.0225361 0.01767 0.016587 -9.71031e-06 0.0238992 0.00647761 -1.39618e-08 -9.82746e-08 -4.49542e-08 0.0005 1.46608e-07 
50 1 0.024982 0.0147719 0.0116125 0.000686522 -0.000830405 0.0152486 3.16811e-09 -6.15936e-11 -1.39437e-08 0.0005 1.46608e-07 
51 1 0.0215399 0.0228162 0.00933091 -0.000608717 -0.00986691 -0.015613 -2.93507e-08 9.171e-08 7.1189e-08 0.0005 1.46608e-07 
52 1 0.0213447 0.0223057 0.00869883 0.00118734 -0.0131824 -0.0130944 2.85711e-08 -9.2576e-09 6.48261e-08 0.0005 1.46608e-07 
53 1 0.0273688 0.0221742 0.00851372 0.000987057 -0.0128131 -0.0130279 -5.94275e-09 -2.56025e-08 -7.2962e-09 0.0005 1.46608e-07 
54 1 0.0182749 0.0244624 0.0137985 -0.00140042 -0.000114588 0.000335385 1.04971e-07 1.88361e-07 -9.26844e-08 0.0005 1.46608e-07 
55 1 0.0159177 0.023669 0.0150744 -0.00107883 0.000781465 0.00189636 1.50866e-06 4.15276e-08 -1.06638e-07 0.0005 1.46608e-07 
56 1 0.0201889 0.0203185 0.0178907 0.0338963 -0.07839 0.0202359 0 0 -1.43822e-06 0.0005 1.46608e-07 
57 1 0.0173249 0.0244021 0.0139214 -0.000395935 -0.000322369 0.000643271 1.29312e-07 -3.77864e-08 -3.78292e-08 0.0005 1.46608e-07 
58 1 0.0205093 0.0187828 0.00717718 0.00402871 -0.00101824 -0.00032363 -5.63365e-06 6.40275e-06 -5.33207e-06 0.0005 1.46608e-07 
59 1 0.0205784 0.018016 0.0197771 0.0810901 -0.157562 0.141958 0 0 -1.43822e-06 0.0005 1.46608e-07 
61 1 0.0135355 0.0212733 0.0180669 -0.00018564 -0.00101062 -0.000572504 -1.21563e-07 -8.98953e-08 -1.12193e-07 0.0005 1.46608e-07 
62 1 0.0213973 0.0242685 0.0140921 -0.000363672 -0.000206033 -0.000313951 -1.54771e-08 4.46631e-08 -7.51379e-08 0.0005 1.46608e-07 
63 1 0.0222696 0.0239638 0.0144755 -0.000271299 6.17106e-05 0.000298891 -2.01331e-07 4.11547e-08 -2.11323e-07 0.0005 1.46608e-07 
64 1 0.0144759 0.0199503 0.0166827 0.00398623 0.00132687 0.00206076 5.25199e-06 -2.97709e-06 4.91875e-07 0.0005 1.46608e-07 
65 1 0.0240199 0.0154196 0.0153181 0.000292285 -0.000227328 0.000746767 2.19892e-09 -5.80194e-09 1.01357e-08 0.0005 1.46608e-07 
66 1 0.0138169 0.016662 0.0152486 7.44524e-06 0.0149954 0.00979955 -2.28277e-11 1.59042e-08 -1.93269e-09 0.0005 1.46608e-07 
68 1 0.0234988 0.0220429 0.0158754 -0.000972936 0.00743994 -0.00884674 -4.15368e-07 -7.90285e-08 -1.07718e-06 0.0005 1.46608e-07 
69 1 0.0188396 0.0216272 0.015119 -0.000194216 0.0261889 -0.018853 1.57757e-08 8.62137e-08 -1.03297e-07 0.0005 1.46608e-07 
71 1 0.0209452 0.0213969 0.0161949 -0.0149182 0.00804454 0.00106011 7.55782e-07 1.57837e-06 -4.22592e-07 0.0005 1.46608e-07 
72 1 0.0150235 0.0207625 0.0164813 0.00441451 0.00159467 -0.00274386 -7.53168e-07 -1.19401e-06 -8.62794e-07 0.0005 1.46608e-07 
73 1 0.0250829 0.0217616 0.0164342 7.85029e-05 0.00178105 0.000861446 1.12659e-07 -1.81351e-07 -6.43667e-07 0.0005 1.46608e-07 
75 1 0.0250529 0.0173597 0.0156091 1.98302e-05 0.0189399 0.00788933 -2.41693e-08 8.90172e-08 2.00557e-08 0.0005 1.46608e-07 
76 1 0.0210081 0.0224683 0.0177893 0.0547345 -0.0412069 0.00719211 0 0 -1.43822e-06 0.0005 1.46608e-07 
78 1 0.0168786 0.0234046 0.0157286 0.016015 0.0203779 0.00298265 0 0 -1.43822e-06 0.0005 1.46608e-07 
79 1 0.0280236 0.0233885 0.0112319 0.000454785 -0.000307536 -0.0218856 4.48686e-10 -1.09463e-08 -4.96694e-09 0.0005 1.46608e-07 
80 1 0.0177484 0.0238848 0.016161 0.00318564 -0.00506516 -0.0122159 -2.21682e-08 -3.73134e-07 -8.38389e-07 0.0005 1.46608e-07 
84 1 0.0209416 0.0227075 0.01639 0.00075415 -0.0507793 0.0334277 0 0 -1.43822e-06 0.0005 1.46608e-07 
85 1 0.0167087 0.0238566 0.0134901 0.00130655 0.00014801 -0.00239847 -6.66673e-07 9.32468e-08 -3.55766e-06 0.0005 1.46608e-07 
86 1 0.0228583 0.020175 0.0166671 -0.00415233 0.0350026 -0.0074688 1.99732e-07 -3.55668e-07 3.71528e-08 0.0005 1.46608e-07 
87 1 0.0230305 0.0217709 0.0150204 -0.000522755 0.0111125 -0.00795149 -3.81567e-07 -9.94568e-07 -1.48868e-06 0.0005 1.46608e-07 
88 1 0.0151014 0.0232559 0.0146851 -5.7682e-05 0.00050739 0.000446484 1.02449e-06 6.37132e-07 -1.1074e-06 0.0005 1.46608e-07 
89 1 0.0177096 0.0206486 0.0166102 0.0243044 0.0535616 0.00567892 0 0 -1.43822e-06 0.0005 1.46608e-07 
90 1 0.0226958 0.0233695 0.0110662 0.00128328 -0.00182586 -0.0170673 5.91256e-07 4.45579e-07 7.89513e-07 0.0005 1.46608e-07 
91 1 0.0179897 0.0145284 0.0154852 -0.00941478 0.0164242 0.0210852 -5.68203e-06 4.51547e-06 5.37293e-06 0.0005 1.46608e-07 
92 1 0.0192124 0.0207422 0.0156127 0.00244199 0.0203231 -0.00715357 0 0 -1.43822e-06 0.0005 1.46608e-07 
93 1 0.019825 0.0159942 0.00851966 0.000753654 -0.0124853 0.0139316 1.45448e-08 3.90069e-08 -4.72466e-08 0.0005 1.46608e-07 
95 1 0.0182124 0.0141001 0.0146098 -0.00462833 0.00689472 0.0163763 -2.34504e-06 1.07019e-05 1.50514e-05 0.0005 1.46608e-07 
97 1 0.0277831 0.0231282 0.00997617 0.000193203 -0.00717999 -0.0205311 -2.07421e-09 -1.28718e-08 -1.67422e-09 0.0005 1.46608e-07 
98 1 0.0180644 0.0219185 0.0167155 0.0153993 0.00304027 -0.0104675 0 0 -1.43822e-06 0.0005 1.46608e-07 
101 1 0.0190824 0.0242021 0.0143144 -0.000425346 0.00111956 0.000472199 8.48142e-08 6.13224e-07 1.22375e-08 0.0005 1.46608e-07 
102 1 0.0202769 0.0199297 0.0166854 0.00229472 -0.00540385 0.00550949 3.83298e-08 2.06082e-06 -6.37877e-06 0.0005 1.46608e-07 
103 1 0.0132658 0.0214263 0.0162386 -0.00047695 -0.000824149 0.000385502 1.07518e-06 1.79477e-06 -1.56076e-06 0.0005 1.46608e-07 
104 1 0.0179504 0.0232763 0.0126741 0.00743771 0.00218212 -0.00519593 2.378e-07 7.85499e-09 1.35481e-07 0.0005 1.46608e-07 
105 1 0.016609 0.0240958 0.0144893 -0.000437918 -0.000731673 0.00100158 -3.73176e-07 -1.34495e-07 2.90982e-07 0.0005 1.46608e-07 
106 1 0.0162642 0.0150419 0.0148891 -0.00629244 0.00296938 0.00322079 1.6274e-07 -3.17363e-07 -3.39198e-07 0.0005 1.46608e-07 
108 1 0.0262706 0.0175667 0.00743982 0.00027532 -0.0210337 0.00637366 3.42456e-09 9.9425e-09 1.07588e-08 0.0005 1.46608e-07 
109 1 0.0194905 0.0151098 0.00978896 0.00139954 -0.00527079 0.0139435 4.13435e-09 -1.44751e-08 -6.04093e-09 0.0005 1.46608e-07 
110 1 0.0225318 0.0230464 0.0098486 0.000916309 -0.00546536 -0.0191889 1.29544e-07 1.73771e-07 4.58024e-07 0.0005 1.46608e-07 
111 1 0.0201333 0.0164401 0.015556 -0.00504636 0.0340618 0.0171129 0 0 -1.43822e-06 0.0005 1.46608e-07 
112 1 0.020878 0.014712 0.0125201 0.000127822 0.00455805 0.0219528 3.17406e-07 1.02883e-06 -7.19385e-07 0.0005 1.46608e-07 
114 1 0.021165 0.0215351 0.00801558 0.000110956 -0.0174824 -0.0130298 5.71138e-11 -1.19107e-08 6.42181e-09 0.0005 1.46608e-07 
115 1 0.0167211 0.0232359 0.014686 -0.00441483 -0.000199279 0.00680053 2.46812e-06 5.47707e-07 -1.64845e-06 0.0005 1.46608e-07 
116 1 0.0212244 0.0239828 0.0173774 -0.000459791 0.00857709 0.00459089 0 0 -1.43822e-06 0.0005 1.46608e-07 
117 1 0.0168082 0.0201259 0.0166752 0.0116694 0.0121411 -0.00228681 -3.02755e-07 4.9047e-07 6.69238e-08 0.0005 1.46608e-07 
118 1 0.0255235 0.0192872 0.0159355 0.00965652 0.00954301 -0.00136984 -8.16154e-06 -1.35646e-06 1.60446e-06 0.0005 1.46608e-07 
119 1 0.0155996 0.0215143 0.0161609 0.00382736 0.0032433 -0.00286874 1.93463e-07 4.90392e-07 -8.51864e-07 0.0005 1.46608e-07 
120 1 0.0169726 0.0218747 0.014948 -0.000346121 0.0153195 -0.0125167 -1.17652e-07 -2.49836e-06 -4.73055e-06 0.0005 1.46608e-07 
121 1 0.0206381 0.0236727 0.0159943 -0.02232 0.0330551 0.0759692 0 0 -1.43822e-06 0.0005 1.46608e-07 
123 1 0.0171506 0.0150578 0.0153523 -0.00210652 0.0143566 -0.00775203 0 0 -1.43822e-06 0.0005 1.46608e-07 
124 1 0.0228528 0.0212352 0.00806235 -0.00123616 -0.0174116 -0.0128128 9.34171e-09 -1.12569e-08 6.38769e-09 0.0005 1.46608e-07 
125 1 0.0268628 0.0202604 0.00738169 8.46617e-05 -0.0206388 -0.00660732 7.77735e-11 1.09285e-08 1.66629e-08 0.0005 1.46608e-07 
126 1 0.0174405 0.0235705 0.0141567 -0.00369863 -0.000939604 0.00385592 -1.34748e-07 1.73103e-06 -2.3112e-06 0.0005 1.46608e-07 
127 1 0.0133475 0.0184733 0.0159054 0.0038078 0.00407098 0.000483176 -2.59566e-07 4.14571e-07 -4.0731e-08 0.0005 1.46608e-07 
128 1 0.0245505 0.0193622 0.0161522 0.0102884 0.000389025 0.00957727 2.35233e-06 -2.35608e-06 -1.81368e-06 0.0005 1.46608e-07 
129 1 0.0198624 0.017762 0.015756 8.85328e-06 0.0223219 0.0066909 -8.74099e-07 3.45989e-07 -6.27262e-07 0.0005 1.46608e-07 
131 1 0.0220157 0.0228397 0.0151628 -0.00483455 0.0158908 -0.0171325 0 0 -1.43822e-06 0.0005 1.46608e-07 
132 1 0.0220787 0.0235996 0.0170264 -0.00249123 0.00253358 0.00421047 -3.01865e-07 -1.72636e-06 -9.43559e-07 0.0005 1.46608e-07 
133 1 0.0192958 0.0234387 0.0154557 -0.0195148 -0.00640262 -0.020481 0 0 -1.43822e-06 0.0005 1.46608e-07 
135 1 0.0217038 0.02334 0.0160002 -0.00386303 -0.00219543 -0.0109658 -7.81788e-08 -3.23934e-07 -1.01065e-06 0.0005 1.46608e-07 
136 1 0.0172446 0.0215698 0.0162594 0.00632275 0.018104 -0.00496178 3.48422e-07 -5.50856e-07 -1.48697e-06 0.0005 1.46608e-07 
138 1 0.0134891 0.019463 0.0159244 0.00368678 0.00406692 -0.00306861 1.24008e-08 4.3075e-07 -1.15244e-06 0.0005 1.46608e-07 
139 1 0.0199264 0.014608 0.0123583 0.000932966 0.00163252 0.0198105 3.54262e-07 2.54029e-06 -6.03529e-07 0.0005 1.46608e-07 
140 1 0.026577 0.0190256 0.00718283 0.0011092 -0.0175019 0.000907819 -8.04415e-09 -2.76266e-08 7.92529e-09 0.0005 1.46608e-07 
141 1 0.0167716 0.0225172 0.0167946 0.0109577 0.0121752 -0.00692953 0 0 -1.43822e-06 0.0005 1.46608e-07 
142 1 0.0221978 0.0193717 0.0167743 -1.7617e-08 0.024851 -0.00133934 -3.41837e-12 -1.2712e-09 -1.85439e-08 0.0005 1.46608e-07 
143 1 0.0248915 0.0212008 0.0156285 -0.00031158 0.00164389 0.000845364 -2.00907e-06 6.19108e-06 4.49079e-07 0.0005 1.46608e-07 
144 1 0.0233239 0.0176066 0.0174273 0.0272039 -0.0134106 -0.0423349 0 0 -1.43822e-06 0.0005 1.46608e-07 
145 1 0.0183529 0.0159681 0.0149364 8.28412e-05 0.0176254 0.0158267 9.23292e-08 -2.12759e-08 -6.13139e-07 0.0005 1.46608e-07 
147 1 0.0232758 0.0208405 0.0155662 -0.000282794 0.0134311 -0.00625915 -2.97899e-06 4.72744e-06 -7.53965e-07 0.0005 1.46608e-07 
148 1 0.0246622 0.0163533 0.0149321 -0.00132963 0.0124597 0.0191979 9.93943e-08 -7.77436e-08 -7.818e-08 0.0005 1.46608e-07 
149 1 0.0255634 0.0175998 0.0164347 0.0062635 0.0131217 0.00577559 1.69712e-08 9.40775e-08 -4.39755e-08 0.0005 1.46608e-07 
150 1 0.0171558 0.0146168 0.0143504 0.0147399 -0.00520726 -0.00985811 6.31799e-08 -3.22625e-07 -5.04455e-08 0.0005 1.46608e-07 
151 1 0.0203617 0.017894 0.00734202 0.00138201 -0.00960001 0.00168749 3.25233e-06 1.02805e-06 1.57127e-06 0.0005 1.46608e-07 
152 1 0.0177123 0.0222625 0.0145433 0.00217786 0.00916527 -0.00993032 -3.61071e-06 3.20139e-06 -7.58815e-06 0.0005 1.46608e-07 
153 1 0.0207853 0.0147825 0.0155648 0.009873 -0.00252275 -0.0160154 1.52397e-08 -2.77925e-07 -9.09604e-07 0.0005 1.46608e-07 
154 1 0.0248666 0.0183641 0.0162592 0.0399728 0.0340628 -0.018729 0 0 -1.43822e-06 0.0005 1.46608e-07 
155 1 0.0225106 0.0221778 0.0157716 -0.00587 0.0122088 -0.0096364 1.81042e-07 -4.58782e-07 -1.60362e-06 0.0005 1.46608e-07 
156 1 0.0234939 0.0198726 0.01587 -0.00093326 0.0233589 -0.00443159 3.22644e-07 -3.78713e-07 1.43179e-08 0.0005 1.46608e-07 
157 1 0.0181174 0.0239912 0.0146444 -0.000720394 -0.000406222 0.000674732 -3.23542e-07 -3.4318e-07 -8.82661e-07 0.0005 1.46608e-07 
158 1 0.01771 0.0188409 0.0159542 3.73744e-05 0.0230672 0.000942648 -2.92118e-07 3.89812e-07 4.25882e-07 0.0005 1.46608e-07 
161 1 0.0218961 0.0211007 0.0163505 -0.00519266 0.0214485 -0.00949434 5.90227e-07 4.14993e-07 2.91242e-07 0.0005 1.46608e-07 
162 1 0.0137147 0.0205737 0.0165055 0.00112532 -0.000699757 0.000442823 3.97528e-07 2.02555e-07 -7.78438e-07 0.0005 1.46608e-07 
163 1 0.0148406 0.0221357 0.015967 -0.000439645 2.05955e-07 -1.63307e-05 -8.01717e-07 -6.13713e-07 -6.61482e-07 0.0005 1.46608e-07 
166 1 0.014871 0.0149961 0.0146125 -0.00200429 0.0125889 -0.0242061 0 0 -1.43822e-06 0.0005 1.46608e-07 
167 1 0.0206838 0.0240734 0.0123611 0.000390529 -0.000659226 -0.00632536 -7.11743e-09 -6.36627e-08 -5.23469e-08 0.0005 1.46608e-07 
168 1 0.0163702 0.0233295 0.0127399 0.00424704 0.00198436 -0.0049427 -5.21685e-07 -1.58418e-06 -3.47564e-06 0.0005 1.46608e-07 
169 1 0.0174456 0.0200707 0.0158274 0.00256992 0.0210773 0.00148759 0 0 -1.43822e-06 0.0005 1.46608e-07 
170 1 0.018562 0.0154157 0.0141307 4.15702e-05 0.0130395 0.0190842 -7.93055e-08 -6.85529e-08 3.94475e-07 0.0005 1.46608e-07 
171 1 0.0158157 0.021992 0.0170124 -0.000981936 -0.00324424 0.00233815 -2.19897e-09 1.97094e-07 -1.32385e-06 0.0005 1.46608e-07 
172 1 0.0224136 0.0145323 0.014171 -0.00193367 2.85232e-05 -0.00193044 -2.13496e-08 -6.23542e-09 3.55986e-08 0.0005 1.46608e-07 
173 1 0.0197814 0.0217459 0.0189654 0.0175312 -0.0237304 0.14196 0 0 -1.43822e-06 0.0005 1.46608e-07 
176 1 0.0192812 0.0163279 0.0150254 -0.000161794 0.0187691 0.0143935 3.05844e-07 -5.19116e-07 -1.46383e-06 0.0005 1.46608e-07 
179 1 0.0186254 0.0192004 0.0161353 -0.00081945 0.0241772 -0.0026108 -9.51264e-07 2.12874e-06 1.91263e-06 0.0005 1.46608e-07 
180 1 0.0249255 0.0202154 0.0157915 0.00862883 0.00245075 0.00885459 -2.3363e-06 1.65046e-06 -4.15972e-06 0.0005 1.46608e-07 
182 1 0.017918 0.0219482 0.0154739 -0.00122841 0.0122401 -0.00764277 0 0 -1.43822e-06 0.0005 1.46608e-07 
183 1 0.0152806 0.0165313 0.0160741 0.000394056 0.000292541 0.00161561 -3.99149e-08 9.11406e-08 6.41087e-08 0.0005 1.46608e-07 
184 1 0.0192856 0.0242302 0.0181262 0.0351231 0.0428512 0.0303171 0 0 -1.43822e-06 0.0005 1.46608e-07 
185 1 0.0244826 0.0221626 0.0157423 0.00136717 0.000495835 -0.000101154 1.57036e-06 -1.94399e-06 3.16286e-06 0.0005 1.46608e-07 
187 1 0.0257109 0.0155075 0.00901077 0.000272227 -0.0116838 0.0168323 -1.76914e-09 3.28657e-09 1.41617e-08 0.0005 1.46608e-07 
188 1 0.021196 0.0193597 0.0167428 9.25592e-10 0.02468 -0.00132035 2.98495e-15 -7.89721e-10 -1.68365e-08 0.0005 1.46608e-07 
189 1 0.015218 0.0230036 0.0156448 -0.000334566 0.000140226 0.000143186 -1.39819e-06 1.84742e-07 -2.81286e-07 0.0005 1.46608e-07 
190 1 0.0271544 0.0212858 0.00787358 0.0012823 -0.0182745 -0.00928605 2.28672e-09 -1.32783e-07 -7.87458e-08 0.0005 1.46608e-07 
192 1 0.0190934 0.0171584 0.0155487 -3.81204e-05 0.0213742 0.00975566 -4.73614e-07 1.43645e-06 -1.10092e-06 0.0005 1.46608e-07 
193 1 0.0217168 0.0183677 0.016714 -2.33148e-09 0.0245286 0.00330014 -9.5388e-15 2.3233e-09 -1.67198e-08 0.0005 1.46608e-07 
195 1 0.0167483 0.022482 0.0142286 0.00120066 0.0113924 -0.0145692 -1.93382e-07 9.13207e-07 -5.32302e-07 0.0005 1.46608e-07 
196 1 0.0190354 0.0146484 0.011976 0.000453568 0.00220552 0.0210693 -1.26476e-07 2.36275e-07 -2.25562e-07 0.0005 1.46608e-07 
197 1 0.0198576 0.0236283 0.0140326 -0.00147964 0.000266846 0.000368672 -5.52796e-06 2.62601e-06 -8.01187e-06 0.0005 1.46608e-07 
200 1 0.0304879 0.0169274 0.00646272 -1.73065e-14 5.85669e-14 1.44094e-13 -1.71948e-19 -1.33619e-19 3.38813e-20 0.0005 1.46608e-07 
201 1 0.0200178 0.0230873 0.0148591 0.00376483 0.00114768 -0.000656998 0 0 -1.43822e-06 0.0005 1.46608e-07 
202 1 0.0175449 0.0210067 0.0154894 0.00245575 0.0191402 -0.00959366 -5.65765e-08 -3.93596e-07 -1.04486e-06 0.0005 1.46608e-07 
203 1 0.024195 0.0202515 0.016474 -0.00460502 0.0343539 -0.00711057 4.2477e-07 1.03808e-07 -6.09894e-07 0.0005 1.46608e-07 
204 1 0.026082 0.0168487 0.00776814 9.8147e-05 -0.0193761 0.0100324 2.4751e-08 2.6651e-08 -1.42204e-08 0.0005 1.46608e-07 
205 1 0.0193062 0.0198258 0.0169147 -0.0142778 -0.0227285 -0.027103 0 0 -1.43822e-06 0.0005 1.46608e-07 
206 1 0.0156856 0.0145607 0.0142294 0.0018592 -0.000852645 -0.00246688 -1.32489e-06 -3.8854e-07 2.91641e-07 0.0005 1.46608e-07 
209 1 0.023702 0.0188741 0.0159513 0.00186499 0.014964 0.00511172 3.34162e-07 -1.39614e-07 -2.29657e-06 0.0005 1.46608e-07 
211 1 0.0227929 0.0224496 0.0143246 0.0001718 0.00858737 -0.0123258 1.125e-08 -5.67175e-09 5.36237e-08 0.0005 1.46608e-07 
215 1 0.0183553 0.0194066 0.0170759 -0.0220093 0.00414975 -0.00689078 0 0 -1.43822e-06 0.0005 1.46608e-07 
216 1 0.018436 0.014286 0.0136863 0.000572822 0.0102185 0.0202667 2.94408e-07 2.87779e-06 8.23698e-06 0.0005 1.46608e-07 
217 1 0.0184014 0.0212133 0.0159623 0.00739207 0.016889 -0.018129 1.18435e-06 8.41206e-07 1.29013e-07 0.0005 1.46608e-07 
218 1 0.0255943 0.0207394 0.0164432 -0.00839779 0.0226838 -0.0112425 -3.57939e-08 3.58401e-08 -7.5708e-08 0.0005 1.46608e-07 
219 1 0.0188363 0.0239926 0.0163027 -0.0294857 0.0140202 -0.0445146 0 0 -1.43822e-06 0.0005 1.46608e-07 
220 1 0.0161233 0.0227185 0.0153071 -0.000134965 0.000927253 0.000400392 -5.96125e-07 8.69682e-07 -4.18334e-07 0.0005 1.46608e-07 
221 1 0.0219839 0.0234158 0.0112912 0.000560102 -0.0011415 -0.0196983 -1.04694e-08 -1.29993e-07 1.5276e-07 0.0005 1.46608e-07 
222 1 0.0142808 0.0228734 0.0151094 -0.000304718 -0.00104734 -0.00241058 -3.5426e-07 -3.16438e-07 1.07668e-06 0.0005 1.46608e-07 
223 1 0.0189401 0.0146773 0.012948 0.0043998 0.0059517 0.020799 -3.18433e-07 -4.43318e-07 2.89489e-06 0.0005 1.46608e-07 
224 1 0.0232057 0.0148406 0.0146977 -0.00228375 -0.00219946 -0.000172662 8.01296e-08 1.5035e-07 -1.2513e-07 0.0005 1.46608e-07 
225 1 0.0164815 0.0142667 0.0137002 0.00323377 -0.00277379 0.000815911 7.50266e-07 -5.8124e-07 -5.70008e-07 0.0005 1.46608e-07 
226 1 0.0145748 0.0205686 0.0174738 0.0106699 0.00360938 -0.0107649 0 0 -1.43822e-06 0.0005 1.46608e-07 
229 1 0.01932 0.0231825 0.0167091 -0.0438373 -0.0080427 -0.00621238 0 0 -1.43822e-06 0.0005 1.46608e-07 
231 1 0.024619 0.0152341 0.0135062 0.00101635 0.00811028 0.0159288 3.97737e-09 7.69044e-09 -8.0206e-09 0.0005 1.46608e-07 
232 1 0.0200941 0.0208806 0.0164328 5.3698e-05 0.0118814 0.00661282 0 0 -1.43822e-06 0.0005 1.46608e-07 
233 1 0.017434 0.014127 0.0133433 0.00234892 0.000453086 -0.00928179 0 0 -1.43822e-06 0.0005 1.46608e-07 
234 1 0.0201913 0.0171672 0.00760239 0.00101609 -0.0167107 0.00972629 -1.49963e-06 -1.02238e-06 1.11507e-07 0.0005 1.46608e-07 
235 1 0.0126977 0.0206722 0.0165679 -0.000428054 0.000220693 0.000706912 -6.60466e-07 -1.60601e-06 -1.01203e-06 0.0005 1.46608e-07 
236 1 0.0164278 0.0210108 0.0164068 0.00970345 0.0113315 -0.00379569 -1.89205e-07 5.50445e-07 -5.96069e-07 0.0005 1.46608e-07 
237 1 0.0175414 0.0219499 0.0195088 -0.0401342 0.00161582 -0.0754046 0 0 -1.43822e-06 0.0005 1.46608e-07 
240 1 0.0193986 0.0197866 0.0158934 0.000989565 0.0221232 -0.00350797 -4.43738e-07 -3.56958e-07 5.84971e-08 0.0005 1.46608e-07 
241 1 0.0124643 0.0187882 0.0162544 0.00255293 0.00688551 -0.0105593 2.88499e-07 -7.19013e-08 -1.10834e-06 0.0005 1.46608e-07 
242 1 0.0220786 0.0226919 0.00917057 0.00173338 -0.00473797 -0.0096839 -3.02432e-08 6.41577e-07 3.89608e-07 0.0005 1.46608e-07 
243 1 0.0180849 0.0182161 0.0166389 0.000328661 0.0260911 0.00396301 -3.89923e-07 4.12864e-07 1.66703e-06 0.0005 1.46608e-07 
244 1 0.0169294 0.0224052 0.015809 0.0111399 0.0137217 -0.0112251 5.59392e-07 -9.92397e-07 2.91237e-07 0.0005 1.46608e-07 
245 1 0.0185832 0.0224835 0.0143007 0.00354836 0.00280074 -0.0046282 -8.27704e-07 3.43689e-06 -4.53145e-06 0.0005 1.46608e-07 
246 1 0.0176693 0.0376552 0.0435188 9.7286e-317 -9.67828e-317 -2.35252e-12 0 0 0 0.0005 1.46608e-07 
247 1 0.0165613 0.0229677 0.0134024 0.00295298 0.0035524 -0.00857581 4.52686e-07 -2.34061e-06 2.65353e-06 0.0005 1.46608e-07 
248 1 0.0239992 0.0214443 0.0152497 0.00255652 0.004679 -0.00169064 2.96919e-06 -2.30474e-06 -4.84127e-07 0.0005 1.46608e-07 
251 1 0.0222398 0.0151085 0.0149695 -0.00322031 -0.000223795 -0.00198663 1.23703e-08 1.42189e-08 5.7115e-08 0.0005 1.46608e-07 
253 1 0.0188068 0.0182352 0.0159473 0.000182863 0.0226865 0.00444442 4.68498e-07 -1.43153e-07 1.01283e-06 0.0005 1.46608e-07 
256 1 0.0214006 0.0147485 0.0144825 -0.00310242 -0.00195788 0.000860985 -2.42458e-09 -8.01979e-08 -6.7126e-08 0.0005 1.46608e-07 
257 1 0.019354 0.0215976 0.0161593 -0.00111099 0.011756 0.0232936 0 0 -1.43822e-06 0.0005 1.46608e-07 
258 1 0.0205075 0.0165071 0.00799637 0.000247055 -0.0170892 0.0118546 1.09025e-06 5.47947e-07 -2.99022e-07 0.0005 1.46608e-07 
259 1 0.0142628 0.0213573 0.0162113 -0.000240831 -0.000324054 0.000209416 1.03665e-06 -5.37169e-08 6.58712e-07 0.0005 1.46608e-07 
260 1 0.0228521 0.0213872 0.0162883 -0.00126014 0.0102084 -0.00438359 1.23599e-06 2.46985e-06 1.26732e-07 0.0005 1.46608e-07 
261 1 0.0142155 0.0157368 0.0147643 0.00805101 0.0235187 -0.0371538 4.57418e-07 -8.6705e-09 -8.10558e-07 0.0005 1.46608e-07 
263 1 0.0189005 0.0237546 0.0135522 -0.00380939 0.00267265 0.00269678 -1.55983e-07 -2.10281e-08 6.69873e-07 0.0005 1.46608e-07 
264 1 0.0201757 0.0141539 0.0139428 0.00628902 -0.0271932 0.0121836 0 0 -1.43822e-06 0.0005 1.46608e-07 
265 1 0.0244229 0.0171738 0.0164022 -0.00124454 0.032078 0.00972666 1.12932e-07 1.70855e-07 -1.02565e-06 0.0005 1.46608e-07 
268 1 0.0215066 0.0221415 0.0157824 -0.00373813 -0.0243762 -0.000924942 0 0 -1.43822e-06 0.0005 1.46608e-07 
269 1 0.0187076 0.0209067 0.0168647 0.022562 -0.0201045 -0.0357894 0 0 -1.43822e-06 0.0005 1.46608e-07 
272 1 0.0197084 0.0139375 0.0130775 -0.00168783 -0.0130063 0.013552 0 0 -1.43822e-06 0.0005 1.46608e-07 
273 1 0.0203156 0.015961 0.0146921 -8.02789e-05 0.0168672 0.0163122 -1.90093e-08 -7.29988e-08 2.56092e-07 0.0005 1.46608e-07 
274 1 0.0198961 0.0151895 0.0153557 0.00975696 0.0120086 0.0126835 -1.46175e-08 8.55233e-08 -1.5812e-08 0.0005 1.46608e-07 
275 1 0.0187973 0.0148957 0.0149517 0.00412112 0.00566729 0.0129037 8.504e-08 -1.84684e-08 1.51665e-07 0.0005 1.46608e-07 
276 1 0.0259187 0.0190573 0.0168245 0.00154544 -0.000468065 0.00181704 -1.49556e-06 -4.09545e-06 9.0113e-06 0.0005 1.46608e-07 
277 1 0.014758 0.0218546 0.0169236 0.0019159 -0.000882785 -0.000674738 -1.73632e-08 2.92323e-07 -1.12881e-06 0.0005 1.46608e-07 
278 1 0.0139629 0.0212962 0.0171632 -0.000259201 -0.000102224 -0.000285352 3.21572e-07 1.03329e-08 1.15596e-06 0.0005 1.46608e-07 
279 1 0.0192352 0.0148243 0.0107724 9.43963e-06 -0.00438232 0.0216359 -8.19068e-10 1.04373e-08 8.76523e-09 0.0005 1.46608e-07 
280 1 0.0138273 0.0221985 0.0156924 0.000683026 0.00105324 -0.000583125 7.30009e-07 1.36694e-06 -5.02445e-07 0.0005 1.46608e-07 
281 1 0.0184458 0.0201283 0.015809 -0.000364061 0.0232244 -0.00569961 1.19617e-07 2.78952e-07 -9.7221e-07 0.0005 1.46608e-07 
282 1 0.0167441 0.0238592 0.0166455 0.00712319 0.0104257 0.0266708 1.43204e-08 -4.32813e-07 -1.55755e-06 0.0005 1.46608e-07 
284 1 0.0233011 0.0192626 0.0167811 -0.00823477 0.0360053 -0.0106454 0 0 -1.43822e-06 0.0005 1.46608e-07 
285 1 0.0206477 0.0168928 0.0163795 0.06287 0.0225136 -0.0248512 0 0 -1.43822e-06 0.0005 1.46608e-07 
286 1 0.0202316 0.0189312 0.0167507 0.0098728 0.013301 -0.0107345 0 0 -1.43822e-06 0.0005 1.46608e-07 
287 1 0.0126393 0.0199842 0.0158447 0.000894791 0.00114183 0.000449081 -8.30251e-07 -3.62425e-07 -3.62512e-07 0.0005 1.46608e-07 
289 1 0.0159138 0.0226764 0.0162845 -0.00137283 -0.000385592 -0.00243113 0 0 -1.43822e-06 0.0005 1.46608e-07 
290 1 0.0214369 0.0142516 0.0136155 -0.000670191 -0.000450094 9.65858e-05 -1.20374e-08 -2.55381e-08 -3.02465e-08 0.0005 1.46608e-07 
292 1 0.0196256 0.0188072 0.0159632 -6.04366e-05 0.0232763 0.000682671 1.92957e-07 -6.50951e-07 -1.29971e-06 0.0005 1.46608e-07 
294 1 0.0179578 0.0177399 0.0157689 0.000189257 0.0216868 0.00706667 3.26228e-07 2.16733e-07 8.02545e-07 0.0005 1.46608e-07 
295 1 0.0236219 0.022984 0.0152284 -0.00185075 0.00214953 0.000581738 0 0 -1.43822e-06 0.0005 1.46608e-07 
296 1 0.0170574 0.0234509 0.0121192 0.00413738 0.00100787 -0.00513272 8.06073e-07 1.45178e-06 4.57637e-07 0.0005 1.46608e-07 
297 1 0.0174091 0.0228047 0.0138005 0.00523718 0.00559194 -0.0129483 2.05356e-07 2.62326e-06 6.75143e-07 0.0005 1.46608e-07 
300 1 0.0181607 0.0168476 0.0153689 0.000132387 0.0197478 0.0112838 8.04758e-07 -5.826e-07 -6.0919e-07 0.0005 1.46608e-07 
