ITEM: TIMESTEP
2600000
ITEM: NUMBER OF ATOMS
273
ITEM: BOX BOUNDS ff ff ff
-0.02 0.43
-0.02 0.06
-0.02 0.07
ITEM: ATOMS id type x y z vx vy vz fx fy fz radius mass 
1 1 0.0166923 0.0224157 0.015551 0.00427086 -0.00311653 0.00196228 -1.69608e-06 2.9207e-06 -3.6117e-06 0.0005 1.46608e-07 
2 1 0.0182825 0.0240623 0.0127347 0.00107448 0.000254383 -0.00222966 -8.95245e-07 1.26785e-06 6.65092e-08 0.0005 1.46608e-07 
3 1 0.0238941 0.0226032 0.0159613 -0.000292568 -0.000573869 -9.0829e-05 5.41135e-07 -8.93276e-07 1.57078e-07 0.0005 1.46608e-07 
4 1 0.0172666 0.0232787 0.0131193 0.00453263 0.00209461 0.00276166 1.18972e-06 1.33476e-06 8.38031e-07 0.0005 1.46608e-07 
5 1 0.0249446 0.0198797 0.0169975 0.00251875 0.00513687 0.012092 -1.48021e-06 -6.05461e-07 -9.0804e-07 0.0005 1.46608e-07 
6 1 0.0183224 0.020936 0.0155585 0.0021235 0.00306603 -0.0254015 0 0 -1.43822e-06 0.0005 1.46608e-07 
7 1 0.0205919 0.0191317 0.00716072 -0.0307783 -0.0131903 -0.117958 -0.000812505 0.00941302 -0.00925726 0.0005 1.46608e-07 
8 1 0.0194175 0.0240188 0.0168528 -0.00110682 -0.000819995 2.17871e-05 7.63314e-06 8.88723e-08 2.04662e-06 0.0005 1.46608e-07 
9 1 0.0208358 0.024034 0.0129419 2.07948e-05 0.000735566 -0.00176009 -7.57147e-08 -3.11342e-08 1.07518e-07 0.0005 1.46608e-07 
10 1 0.01619 0.0229927 0.0161962 0.00230582 0.00125937 -0.00122861 4.77061e-08 -3.70558e-07 -1.1906e-06 0.0005 1.46608e-07 
11 1 0.0186773 0.0152362 0.0137632 0.000588882 0.0101232 0.0168929 1.26817e-06 -2.32622e-06 -3.45878e-06 0.0005 1.46608e-07 
12 1 0.0208242 0.0142161 0.0129471 0.00861422 0.00483517 -0.00701528 -5.39746e-06 -4.86806e-06 8.2126e-06 0.0005 1.46608e-07 
13 1 0.020062 0.0240569 0.0159955 -0.000851939 -0.00185043 -0.000925348 5.18526e-06 1.72164e-06 -4.51805e-07 0.0005 1.46608e-07 
14 1 0.019009 0.023989 0.013195 0.00232055 0.00206704 -0.0068874 -4.41361e-06 -3.49111e-07 2.7371e-06 0.0005 1.46608e-07 
15 1 0.0245197 0.0220265 0.0156412 0.000436813 -0.00241504 0.00186108 -1.50398e-08 -8.27618e-07 6.36521e-07 0.0005 1.46608e-07 
16 1 0.0211653 0.021314 0.00787579 0.000421158 -0.0146011 -0.00959312 5.27283e-09 2.77285e-08 4.23008e-08 0.0005 1.46608e-07 
17 1 0.0216716 0.0238894 0.0132943 7.25226e-05 0.000115572 -0.00133201 -4.261e-07 -4.12032e-07 8.08445e-07 0.0005 1.46608e-07 
18 1 0.0227402 0.0225128 0.0142168 0.00156115 0.00447654 -0.00624356 -4.05851e-07 6.19175e-07 -1.51663e-06 0.0005 1.46608e-07 
19 1 0.0195532 0.0244901 0.0136444 0.000630951 0.000487537 -0.00198407 -3.08685e-06 -1.97012e-06 2.69491e-06 0.0005 1.46608e-07 
20 1 0.0402891 0.0167947 0.00659266 8.8432e-16 -8.53307e-15 -2.18736e-14 9.85668e-20 -2.50934e-20 1.35525e-20 0.0005 1.46608e-07 
21 1 0.0185929 0.0190317 0.016738 -0.00198567 0.00119747 0.00722266 4.8197e-06 -2.19782e-06 4.10185e-06 0.0005 1.46608e-07 
22 1 0.0148372 0.0207303 0.0164767 5.55063e-05 -0.000305454 -0.00125423 -2.50089e-06 8.50777e-06 4.05683e-07 0.0005 1.46608e-07 
23 1 0.0174471 0.0240508 0.0128449 0.00110756 0.00055796 0.000685741 -1.90744e-07 8.34596e-07 -1.93055e-07 0.0005 1.46608e-07 
24 1 0.0242794 0.0165326 0.0151802 0.00104532 0.0149018 0.0104293 -2.5446e-08 1.19154e-07 3.49155e-08 0.0005 1.46608e-07 
25 1 0.0213123 0.0144742 0.0167803 -0.055885 0.0554038 -0.147062 0 0 -1.43822e-06 0.0005 1.46608e-07 
26 1 0.0200183 0.0164996 0.00802543 0.000589587 -0.0120089 0.00797425 -4.05551e-10 1.53165e-08 -1.13626e-08 0.0005 1.46608e-07 
27 1 0.0169721 0.021422 0.0173219 0.00294822 -0.0001139 -0.00650503 0 0 -1.43822e-06 0.0005 1.46608e-07 
28 1 0.0228392 0.0139034 0.0203026 -0.0501942 0.0123993 -0.0243365 0 0 -1.43822e-06 0.0005 1.46608e-07 
29 1 0.0156011 0.0237822 0.0148621 0.00164133 0.00146337 -0.00200597 -1.23123e-05 4.79388e-06 -7.84689e-06 0.0005 1.46608e-07 
30 1 0.0258721 0.0185008 0.0166637 0.00132257 0.000764589 -0.00214609 -4.14332e-06 -1.00911e-06 3.39141e-06 0.0005 1.46608e-07 
31 1 0.017061 0.0232649 0.0145682 0.00513003 0.00152928 0.00307795 -3.07777e-05 1.72068e-05 -5.27254e-06 0.0005 1.46608e-07 
32 1 0.0223392 0.0233913 0.0129862 0.00273881 0.00284653 -0.00199898 -1.87012e-07 1.05799e-07 -4.29661e-07 0.0005 1.46608e-07 
33 1 0.0230248 0.0233143 0.0122937 0.000412336 0.0039731 -0.0201876 -1.68152e-06 -2.48713e-09 -8.43253e-09 0.0005 1.46608e-07 
34 1 0.0199302 0.0153015 0.0148247 -0.00427239 0.00790965 0.0148432 1.09437e-05 4.66685e-06 1.40194e-05 0.0005 1.46608e-07 
35 1 0.0296393 0.0184913 0.00583954 2.5161e-14 -2.45753e-16 2.95161e-13 0 1.34417e-23 0 0.0005 1.46608e-07 
36 1 0.0204378 0.0243978 0.0137844 -0.000154855 -0.00126819 0.00105426 -3.04931e-06 -5.75437e-06 7.0066e-06 0.0005 1.46608e-07 
37 1 0.0226329 0.0229572 0.0134761 0.00377163 0.00309593 -0.00195916 8.55759e-08 4.77744e-07 -1.0684e-06 0.0005 1.46608e-07 
38 1 0.0204006 0.0146813 0.0158249 -0.0148997 0.00123218 -0.0100927 0 0 -1.43822e-06 0.0005 1.46608e-07 
39 1 0.0216354 0.0149369 0.0156709 -0.0124052 -0.0184051 -0.0130497 0 0 -1.43822e-06 0.0005 1.46608e-07 
40 1 0.0229263 0.0236774 0.0150709 0.000210274 0.000607178 -0.000926493 -9.43673e-07 -1.91434e-06 4.96939e-06 0.0005 1.46608e-07 
41 1 0.0179741 0.0237336 0.0135206 0.00337839 0.00111852 0.00109067 3.24592e-06 1.50206e-06 -4.02135e-06 0.0005 1.46608e-07 
42 1 0.0235556 0.019696 0.0159256 0.000618838 0.0188646 -0.00228763 -4.78457e-07 1.03207e-06 2.19838e-07 0.0005 1.46608e-07 
43 1 0.0190606 0.0146105 0.012175 -8.30193e-05 -0.00120279 0.0230992 5.01845e-07 -5.316e-09 -4.1401e-07 0.0005 1.46608e-07 
44 1 0.0255806 0.0194925 0.0197707 -0.0206129 -0.002592 -0.139073 0 0 -1.43822e-06 0.0005 1.46608e-07 
45 1 0.0217834 0.0236009 0.0151276 0.00271422 0.00751506 -0.0265605 0 0 -1.43822e-06 0.0005 1.46608e-07 
46 1 0.0247144 0.0158479 0.0143957 9.40788e-05 0.0142096 0.015671 -1.22766e-09 1.10508e-08 8.43296e-10 0.0005 1.46608e-07 
47 1 0.023122 0.0232427 0.0142349 0.00108138 0.00095183 -0.00101037 -3.00814e-07 -1.28661e-06 1.35014e-06 0.0005 1.46608e-07 
48 1 0.0217172 0.0143312 0.0138038 -0.00105757 -0.000652129 0.00057876 -3.79076e-07 -4.88796e-07 -9.97772e-07 0.0005 1.46608e-07 
50 1 0.023013 0.0219535 0.0149795 0.00161017 0.00905259 -0.0067356 2.4284e-07 -9.17488e-08 -4.09864e-08 0.0005 1.46608e-07 
51 1 0.0198454 0.0159104 0.00857445 0.000656223 -0.0122183 0.014404 -8.68068e-09 -1.06206e-10 1.19883e-08 0.0005 1.46608e-07 
52 1 0.0200566 0.0240545 0.0124742 -0.000140936 -0.000143387 -0.00132888 -3.21622e-08 3.03363e-08 -1.6914e-08 0.0005 1.46608e-07 
53 1 0.0262753 0.0173867 0.00752079 0.00123936 -0.0130246 0.00484468 1.57945e-09 2.22081e-08 -2.37257e-09 0.0005 1.46608e-07 
54 1 0.0180445 0.0244654 0.013816 0.000722049 0.00027224 0.000717602 -4.93586e-08 5.53293e-07 -1.82447e-06 0.0005 1.46608e-07 
55 1 0.0151174 0.0231586 0.0155517 -0.000132033 -5.22979e-05 5.90952e-05 -1.65346e-07 -4.86421e-07 6.91801e-07 0.0005 1.46608e-07 
56 1 0.0181017 0.0164067 0.0162432 0.00107159 0.0329904 0.0099374 1.70734e-06 -4.42432e-06 -2.06427e-06 0.0005 1.46608e-07 
57 1 0.0171157 0.0242486 0.0136702 0.00205282 0.00117279 0.00149331 -2.85319e-06 -4.77757e-07 -2.4879e-06 0.0005 1.46608e-07 
58 1 0.0190401 0.0240892 0.0122185 0.000359803 0.00375714 -0.0119438 -1.44236e-07 1.99332e-08 1.78199e-07 0.0005 1.46608e-07 
59 1 0.0237825 0.0187219 0.0159333 0.00119706 0.0184274 0.000447448 -5.13311e-07 -1.88437e-06 8.79247e-07 0.0005 1.46608e-07 
60 1 0.0193641 0.0217583 0.0173877 0.029204 -0.00552017 0.0444469 0 0 -1.43822e-06 0.0005 1.46608e-07 
61 1 0.0225117 0.0226751 0.0168195 0.089367 -0.0241926 0.0393261 0 0 -1.43822e-06 0.0005 1.46608e-07 
62 1 0.0213141 0.0243348 0.014026 7.93797e-05 -0.000628949 -0.000399303 -1.36116e-06 -2.07196e-06 3.71547e-06 0.0005 1.46608e-07 
63 1 0.0223424 0.0236931 0.0139963 8.81109e-05 -0.000190868 -0.00131659 6.69239e-07 -1.25891e-08 5.81258e-07 0.0005 1.46608e-07 
64 1 0.0223885 0.0151796 0.0150589 -0.010244 0.0030121 -0.00654111 0 0 -1.43822e-06 0.0005 1.46608e-07 
65 1 0.0204018 0.0204574 0.0165429 0.00771093 0.00286478 0.00135732 -7.37694e-07 -3.75227e-06 1.23392e-06 0.0005 1.46608e-07 
66 1 0.0150161 0.0215793 0.0170698 0.00074067 -0.000994101 0.000532266 3.93845e-07 -3.99093e-07 6.09141e-07 0.0005 1.46608e-07 
68 1 0.0214018 0.0235391 0.0141156 0.000560279 -0.00174534 -0.0055936 7.69995e-07 -1.68563e-06 1.47782e-06 0.0005 1.46608e-07 
69 1 0.0157669 0.0155973 0.017631 -0.0465622 0.0313881 -0.0997151 0 0 -1.43822e-06 0.0005 1.46608e-07 
70 1 0.0208981 0.0235691 0.0156512 -0.00119253 -0.00375807 -0.0120764 -1.39911e-07 -2.9515e-07 -1.0055e-06 0.0005 1.46608e-07 
71 1 0.0185001 0.0141341 0.0146621 0.000517396 0.000276224 -9.94123e-06 -2.46645e-06 9.86896e-07 3.77544e-06 0.0005 1.46608e-07 
72 1 0.0176324 0.0199144 0.0164403 0.00138137 -0.00339494 0.00631082 2.21246e-06 7.112e-06 -1.25648e-05 0.0005 1.46608e-07 
73 1 0.0248892 0.0220939 0.0164085 0.000202136 0.000284292 0.000587422 -1.24601e-06 -6.28616e-07 1.45019e-06 0.0005 1.46608e-07 
74 1 0.022391 0.0235712 0.0173068 0.0161107 -0.0143849 -0.00274401 0 0 -1.43822e-06 0.0005 1.46608e-07 
75 1 0.0259676 0.0194476 0.0169706 -0.00169356 0.000135255 -0.00350859 7.9783e-07 1.65349e-06 1.02814e-06 0.0005 1.46608e-07 
76 1 0.0194372 0.0149796 0.0101979 -0.000382936 -0.00733968 0.0184184 -6.96496e-09 2.84448e-08 1.73288e-08 0.0005 1.46608e-07 
77 1 0.0182955 0.0224448 0.016493 0.00402986 0.00358693 -0.00121236 -1.95438e-05 -3.52943e-06 2.37593e-05 0.0005 1.46608e-07 
78 1 0.0158366 0.0207239 0.0164975 -0.000350627 -4.12613e-05 -0.00518507 -2.33106e-06 -1.69385e-06 4.18842e-06 0.0005 1.46608e-07 
79 1 0.0270656 0.0208082 0.00759714 0.000686265 -0.0194093 -0.008444 5.66721e-09 8.26312e-08 3.16968e-08 0.0005 1.46608e-07 
80 1 0.0174727 0.0240866 0.0145174 0.00231636 0.000674117 0.000512452 -9.83812e-06 2.52417e-06 -2.67141e-06 0.0005 1.46608e-07 
81 1 0.0194051 0.0207193 0.0170302 0.0454389 -0.0290429 0.00853476 0 0 -1.43822e-06 0.0005 1.46608e-07 
82 1 0.0176394 0.0228137 0.0138627 0.0085159 0.00363803 -0.000578056 -1.26901e-05 -6.79865e-06 1.11964e-05 0.0005 1.46608e-07 
83 1 0.0154358 0.0224936 0.0166902 0.0025944 -0.000476682 -0.00238503 -3.59268e-07 -1.32385e-06 1.44129e-06 0.0005 1.46608e-07 
84 1 0.0190612 0.0172701 0.0155841 -0.00152546 0.0151077 0.00561309 -3.54059e-06 -2.6047e-06 -1.9746e-06 0.0005 1.46608e-07 
85 1 0.0164113 0.023725 0.0135928 0.00404109 0.00110142 0.0035557 -1.43036e-06 -3.2458e-07 -1.74825e-06 0.0005 1.46608e-07 
86 1 0.0194212 0.0246941 0.0175903 -0.000653796 -0.000878283 -0.000123806 1.86862e-06 -5.28822e-06 -1.56093e-05 0.0005 1.46608e-07 
87 1 0.0214475 0.0224081 0.00886326 0.00132207 -0.0117729 -0.0129659 -1.02924e-08 -2.29232e-08 -2.04893e-08 0.0005 1.46608e-07 
88 1 0.0143156 0.0229133 0.0150436 0.00010127 0.000811088 -0.000182314 -6.83026e-08 -6.15165e-08 3.8864e-07 0.0005 1.46608e-07 
89 1 0.0146263 0.0197778 0.0166949 -0.00129177 0.00271993 -0.00174778 1.13171e-06 -9.70554e-06 2.29498e-07 0.0005 1.46608e-07 
90 1 0.0191699 0.0147317 0.0111885 1.26753e-05 -0.00293907 0.0224039 -3.94109e-09 9.76809e-09 1.03529e-08 0.0005 1.46608e-07 
91 1 0.0187187 0.0184379 0.0159021 -7.91918e-07 0.0202849 0.00291849 1.19618e-10 -9.52374e-09 -1.46363e-08 0.0005 1.46608e-07 
92 1 0.0154435 0.0161245 0.01586 -0.00352019 0.0132693 0.00864922 1.93999e-07 -9.75256e-08 -7.48268e-08 0.0005 1.46608e-07 
93 1 0.0186761 0.015599 0.0146952 0.0100389 0.0106254 0.0117144 2.7094e-06 -3.00877e-06 -1.22228e-05 0.0005 1.46608e-07 
95 1 0.0197462 0.0237468 0.0150848 -0.000771692 -0.000797779 0.00193843 -2.12078e-05 -1.34946e-05 2.87999e-05 0.0005 1.46608e-07 
97 1 0.0266672 0.0193284 0.00717462 0.00112743 -0.0155053 -0.00182162 2.38114e-06 -6.13892e-07 4.03248e-07 0.0005 1.46608e-07 
98 1 0.0203088 0.0178746 0.0169398 0.00956332 0.0229367 0.00774855 0 0 -1.43822e-06 0.0005 1.46608e-07 
100 1 0.0198966 0.0212866 0.0163046 0.00481773 -0.0015114 0.0017245 -1.22573e-06 -5.05537e-06 9.50407e-07 0.0005 1.46608e-07 
101 1 0.0188562 0.0237286 0.0155421 0.00171654 0.00190158 0.00362842 3.33056e-06 -2.3767e-07 -8.40159e-06 0.0005 1.46608e-07 
102 1 0.0180843 0.0140283 0.0131765 -0.000305897 0.00105369 -0.00418965 3.5694e-06 6.45831e-07 1.59369e-06 0.0005 1.46608e-07 
103 1 0.0174999 0.0240255 0.0166015 0.000354416 -0.000324486 -0.000624399 -8.80217e-07 3.66304e-07 -2.08851e-07 0.0005 1.46608e-07 
104 1 0.0165678 0.0194338 0.0167552 -0.00489568 0.00240097 -0.00203077 2.58318e-07 1.2607e-06 3.94931e-07 0.0005 1.46608e-07 
105 1 0.0164834 0.0241297 0.0143707 0.000753153 0.000873441 0.000865592 -5.40399e-07 -3.95122e-07 -3.96736e-07 0.0005 1.46608e-07 
106 1 0.022486 0.0228447 0.0154051 0.00235899 0.00933352 -0.0112691 -1.84004e-05 -2.47951e-05 3.09791e-05 0.0005 1.46608e-07 
108 1 0.0245258 0.0154392 0.0138695 0.000666472 0.010814 0.0160636 -3.34585e-09 2.00958e-08 5.25906e-09 0.0005 1.46608e-07 
109 1 0.0184434 0.0199887 0.015856 -0.0053148 0.00886847 -0.00227731 -2.60569e-08 -8.76793e-08 -1.48134e-06 0.0005 1.46608e-07 
110 1 0.019489 0.0144831 0.0151579 -0.00082796 0.00138389 0.00392477 -1.2129e-05 2.68807e-06 4.37509e-06 0.0005 1.46608e-07 
111 1 0.0213989 0.0193173 0.00715284 -0.045892 0.866955 -2.43603 -0.00523337 0.0230787 -0.0121576 0.0005 1.46608e-07 
112 1 0.0198808 0.0142471 0.0126167 0.00834198 -0.00379979 0.00668112 1.25241e-07 -5.79284e-08 -1.20645e-06 0.0005 1.46608e-07 
113 1 0.0208928 0.0172412 0.0164316 0.00532148 0.0184873 0.0070725 -9.56934e-07 2.90826e-07 5.14854e-07 0.0005 1.46608e-07 
114 1 0.0200827 0.0152879 0.00947493 0.00294892 -0.000556574 0.000965782 -1.93511e-05 -1.84851e-05 3.38406e-05 0.0005 1.46608e-07 
115 1 0.0124727 0.0179235 0.0168013 0.010391 -0.0404469 0.0241929 0 0 -1.43822e-06 0.0005 1.46608e-07 
116 1 0.0190467 0.0233052 0.0145656 0.00360876 0.00179027 -0.00477695 -2.93177e-05 -6.8045e-06 2.21133e-05 0.0005 1.46608e-07 
117 1 0.0252828 0.0167684 0.0163788 -0.00259921 -0.0032602 -0.0031333 -4.95187e-07 -1.16766e-06 -3.067e-06 0.0005 1.46608e-07 
118 1 0.0225542 0.0145308 0.0143132 -0.0018338 -0.0031884 0.00415322 1.97873e-07 1.4765e-07 -1.34752e-06 0.0005 1.46608e-07 
119 1 0.023593 0.0229937 0.0151351 -2.18482e-05 -0.000249441 -0.000377558 -6.52361e-07 -1.3999e-06 2.42342e-06 0.0005 1.46608e-07 
120 1 0.0159727 0.0184144 0.0167199 -8.04005e-10 0.024592 0.00282 -3.18894e-15 1.77632e-09 -1.67929e-08 0.0005 1.46608e-07 
121 1 0.019864 0.0236256 0.0140698 -0.01932 -0.00884044 -0.0100608 0 0 -1.43822e-06 0.0005 1.46608e-07 
122 1 0.0201369 0.0233388 0.0170018 0.00400135 0.00205291 0.00150956 0 0 -1.43822e-06 0.0005 1.46608e-07 
123 1 0.0233515 0.0149251 0.0148052 -0.00413991 -0.00156481 -0.00446235 -3.80909e-08 -3.65512e-08 -3.68868e-09 0.0005 1.46608e-07 
124 1 0.0227976 0.0151844 0.0135954 -0.000230743 0.0109786 0.0201991 3.83368e-08 2.09186e-08 6.64638e-09 0.0005 1.46608e-07 
125 1 0.025462 0.0149953 0.010095 0.00108073 -0.00443695 0.0102646 -1.41485e-11 -1.10252e-08 6.74358e-09 0.0005 1.46608e-07 
126 1 0.0172989 0.0222644 0.014626 -0.00537926 0.00487166 -0.00219897 0 0 -1.43822e-06 0.0005 1.46608e-07 
127 1 0.0249214 0.0172029 0.0155539 -0.00108882 0.0101928 0.00363945 -1.82248e-07 1.8406e-07 -2.45344e-07 0.0005 1.46608e-07 
128 1 0.0205812 0.0173889 0.00746962 0.00148219 -0.0185934 0.00762762 -6.10574e-09 -1.20881e-08 1.59346e-08 0.0005 1.46608e-07 
129 1 0.0174772 0.01906 0.0169383 -0.00827945 -0.00565463 0.00914119 0 0 -1.43822e-06 0.0005 1.46608e-07 
131 1 0.0206465 0.0239493 0.0146347 0.00198311 -0.00305084 0.0054354 -4.37139e-06 -1.17271e-05 2.21346e-05 0.0005 1.46608e-07 
132 1 0.0162698 0.0220851 0.0170608 0.00179656 -0.00233896 -0.00642211 -1.61262e-06 1.82521e-06 6.28877e-07 0.0005 1.46608e-07 
133 1 0.019072 0.0250142 0.0184707 0.000660004 -0.00110391 -0.00393023 -1.5349e-06 4.48435e-06 1.3891e-05 0.0005 1.46608e-07 
135 1 0.0178729 0.0237075 0.01573 0.0017835 -0.000240578 -0.000677428 -6.97151e-08 -8.45171e-07 -1.24594e-06 0.0005 1.46608e-07 
136 1 0.0178035 0.0182522 0.0164472 0.00322996 -0.000160209 0.00487586 0 0 -1.43822e-06 0.0005 1.46608e-07 
138 1 0.0196198 0.0153128 0.0138849 0.000834241 0.00983531 0.0142238 -3.30355e-07 1.28241e-06 6.63676e-06 0.0005 1.46608e-07 
139 1 0.0169481 0.0234924 0.0122899 0.00153684 0.000418094 2.90701e-05 -1.92722e-07 1.5079e-07 2.28875e-07 0.0005 1.46608e-07 
140 1 0.0250283 0.0147542 0.0117624 0.000651852 0.000733597 0.0171242 -4.68188e-09 -1.67894e-08 -1.43954e-07 0.0005 1.46608e-07 
141 1 0.0173229 0.0153307 0.0158351 0.0093252 0.0156692 -0.00992466 0 0 -1.43822e-06 0.0005 1.46608e-07 
142 1 0.0205527 0.0154322 0.0140648 3.12936e-06 0.0123135 0.0174201 -1.57241e-07 8.33154e-07 3.59801e-06 0.0005 1.46608e-07 
143 1 0.025519 0.0195307 0.0159167 0.00348018 0.00599167 -0.00154176 8.56804e-07 -1.82581e-06 1.7836e-06 0.0005 1.46608e-07 
144 1 0.0244271 0.0201147 0.015811 0.0036651 0.010771 -0.00272062 -9.86685e-07 3.46154e-07 -6.11191e-08 0.0005 1.46608e-07 
145 1 0.0164998 0.0230796 0.013072 0.00829252 0.000997834 0.0106005 -1.30235e-06 1.20459e-06 -4.33235e-06 0.0005 1.46608e-07 
147 1 0.02182 0.0230813 0.00989891 0.000713798 -0.00682052 -0.0167601 -8.06164e-10 -1.29504e-08 -1.09729e-09 0.0005 1.46608e-07 
148 1 0.0225199 0.0233001 0.0105555 0.000106176 -0.00464736 -0.0197769 -1.55877e-09 -1.13849e-08 3.30412e-09 0.0005 1.46608e-07 
149 1 0.0257502 0.0203795 0.0166799 0.000558357 0.00207571 0.00225298 -8.28158e-07 -1.27542e-06 -1.78523e-06 0.0005 1.46608e-07 
150 1 0.020401 0.0230504 0.0148891 -0.00148294 -0.00739883 0.0162705 -4.34874e-06 -3.67796e-05 7.47749e-05 0.0005 1.46608e-07 
151 1 0.0185641 0.0226505 0.0140751 0.00480908 0.0068675 -0.0119357 -1.7996e-05 -1.00471e-05 2.1721e-05 0.0005 1.46608e-07 
152 1 0.014509 0.0153171 0.0148411 0.0463156 0.0236369 0.0541056 0 0 -1.43822e-06 0.0005 1.46608e-07 
153 1 0.0156263 0.0197691 0.0167115 -0.000300743 0.00364071 -0.00171715 5.64503e-06 -3.31771e-06 -1.66499e-06 0.0005 1.46608e-07 
154 1 0.018253 0.0220242 0.0148067 0.0014935 0.0112773 -0.0105773 6.93738e-07 -5.25901e-06 1.69838e-06 0.0005 1.46608e-07 
155 1 0.0182323 0.0167285 0.0152949 0.00292415 0.00826442 0.00584765 -2.1571e-07 1.43227e-07 9.59387e-09 0.0005 1.46608e-07 
156 1 0.022528 0.0152734 0.0160453 -0.00595378 -0.000130059 -0.010847 0 0 -1.43822e-06 0.0005 1.46608e-07 
157 1 0.0188433 0.0241911 0.0142655 0.000972442 0.000988964 -0.000796373 -1.00857e-05 -2.55104e-06 6.93189e-06 0.0005 1.46608e-07 
158 1 0.0138384 0.0212074 0.0172983 0.000453144 -0.000518755 0.000116957 3.62264e-08 2.53298e-07 -6.8634e-07 0.0005 1.46608e-07 
159 1 0.0224953 0.0211855 0.0163225 -0.0185348 0.0123685 -0.00483477 0 0 -1.43822e-06 0.0005 1.46608e-07 
161 1 0.0208262 0.0146381 0.0120408 -0.00181571 0.00121592 -0.00638169 4.55007e-06 2.85424e-06 -4.26474e-06 0.0005 1.46608e-07 
162 1 0.019387 0.0163562 0.0160468 0.0409762 -0.0097581 -0.000961703 0 0 -1.43822e-06 0.0005 1.46608e-07 
163 1 0.0134146 0.0202476 0.01733 -0.0110209 -0.00975508 -0.00656083 1.86311e-07 -2.13279e-09 -1.57753e-06 0.0005 1.46608e-07 
164 1 0.0212669 0.0222708 0.0253748 -0.0202316 0.0203141 -0.0193666 0 0 -1.43822e-06 0.0005 1.46608e-07 
165 1 0.0252123 0.0185788 0.0159164 -0.00114068 0.0108501 0.00109302 2.68823e-07 1.08932e-06 -5.00372e-08 0.0005 1.46608e-07 
166 1 0.0195163 0.0193207 0.0173826 0.0340506 -0.00178559 -0.013007 0 0 -1.43822e-06 0.0005 1.46608e-07 
167 1 0.0181328 0.0243993 0.01728 -0.00494508 -0.00124322 -0.00151562 -4.61127e-06 2.46649e-06 7.21323e-06 0.0005 1.46608e-07 
168 1 0.0132631 0.0213585 0.0162006 0.00195811 -0.00126415 -0.0011468 -3.35339e-06 -7.82673e-07 4.30741e-06 0.0005 1.46608e-07 
169 1 0.0161353 0.0143898 0.0139387 0.000530272 -0.000441181 -3.58685e-05 -2.57546e-07 2.32872e-07 9.49235e-08 0.0005 1.46608e-07 
170 1 0.0163616 0.0233633 0.0126785 0.00512249 0.00109047 -0.000897469 -5.90232e-07 3.17287e-07 -1.15564e-06 0.0005 1.46608e-07 
171 1 0.0139999 0.0161922 0.0149009 -0.00035861 0.0132525 0.0112961 5.36131e-08 -1.28347e-07 -1.04472e-07 0.0005 1.46608e-07 
172 1 0.0162699 0.0216794 0.0160906 0.00719923 0.00413167 -0.00294641 2.68143e-06 -2.53334e-06 1.17588e-06 0.0005 1.46608e-07 
173 1 0.0144947 0.0134329 0.0232655 -0.116526 -0.14195 -0.0736363 0 0 -1.43822e-06 0.0005 1.46608e-07 
174 1 0.0181209 0.0233216 0.016946 0.00257133 -0.0046501 -0.0130599 8.84178e-07 -9.11707e-07 2.54147e-07 0.0005 1.46608e-07 
175 1 0.0169027 0.0229702 0.0172291 0.000684911 -0.000406099 -0.00374274 -9.91502e-07 6.76235e-07 1.86884e-06 0.0005 1.46608e-07 
176 1 0.0204199 0.0180852 0.00730632 0.000308178 -0.0207916 0.00456934 -4.66244e-09 -8.14518e-09 1.30641e-08 0.0005 1.46608e-07 
177 1 0.0203126 0.0243549 0.0171452 0.00173317 -0.00293556 -0.000692508 3.14567e-06 2.62762e-06 1.32074e-06 0.0005 1.46608e-07 
178 1 0.0247835 0.0258995 0.0255439 -0.00705116 0.000482408 -0.012139 -1.4038e-07 -3.15234e-07 -1.00636e-06 0.0005 1.46608e-07 
179 1 0.0185204 0.0240793 0.0164158 -0.00170641 0.000202327 -0.000188779 -2.11647e-07 -1.18448e-06 1.4407e-06 0.0005 1.46608e-07 
180 1 0.0244579 0.0157172 0.0157309 -0.0029165 0.00207287 -0.00722867 -1.00538e-07 2.13545e-08 -2.78936e-07 0.0005 1.46608e-07 
181 1 0.0180552 0.0232931 0.0146317 0.00731223 0.00103825 -0.00369209 -4.24944e-05 1.06972e-06 2.91976e-05 0.0005 1.46608e-07 
182 1 0.0142319 0.0215247 0.0164337 0.000392358 -0.00264092 0.000688243 -9.78372e-06 1.11419e-05 -5.34995e-06 0.0005 1.46608e-07 
183 1 0.0168865 0.0234655 0.0155564 -0.0102844 0.0122524 0.0363634 0 0 -1.43822e-06 0.0005 1.46608e-07 
184 1 0.016192 0.023034 0.0149444 0.00126581 0.00415898 -0.0051895 -2.04451e-05 2.03094e-05 -3.01305e-05 0.0005 1.46608e-07 
185 1 0.0244396 0.0191325 0.0165655 0.00235418 0.00830962 0.00639991 -1.09455e-06 -8.56742e-07 -1.37718e-06 0.0005 1.46608e-07 
187 1 0.0240136 0.0177004 0.0157326 0.000506232 0.0197799 0.00628934 1.16881e-08 1.28549e-08 -1.16461e-09 0.0005 1.46608e-07 
188 1 0.0181786 0.0197911 0.0172685 -0.0126882 -0.00516976 0.0138946 1.77203e-05 -2.30677e-05 2.12925e-05 0.0005 1.46608e-07 
189 1 0.0146661 0.0224238 0.0160557 0.000200014 -0.000653353 0.00104206 4.54352e-07 2.0751e-06 -1.60841e-06 0.0005 1.46608e-07 
190 1 0.0259311 0.0161813 0.00827634 0.000120137 -0.016788 0.0141026 -6.27534e-10 2.38733e-09 1.24081e-08 0.0005 1.46608e-07 
192 1 0.0167761 0.0204016 0.0166099 0.000365349 -0.00036412 -0.000492666 2.27796e-06 7.27571e-06 -1.29034e-06 0.0005 1.46608e-07 
193 1 0.023227 0.020419 0.0165793 -0.0326254 -0.00643177 -0.0487117 0 0 -1.43822e-06 0.0005 1.46608e-07 
194 1 0.0234081 0.0208438 0.015573 7.77159e-09 0.0188693 -0.00813627 3.0764e-12 -5.0606e-09 -1.27366e-08 0.0005 1.46608e-07 
195 1 0.0205971 0.0222805 0.0200083 -0.126982 -0.0813114 0.351106 0 0 -1.43822e-06 0.0005 1.46608e-07 
196 1 0.0167007 0.0227859 0.0138555 0.0081673 -0.00134009 0.0091596 -5.28978e-06 4.76142e-06 -1.17039e-05 0.0005 1.46608e-07 
197 1 0.0163496 0.0155234 0.0159635 0.0101171 0.0317173 -0.00716482 0 0 -1.43822e-06 0.0005 1.46608e-07 
198 1 0.0238708 0.0175772 0.0167146 8.27338e-05 0.0194109 0.00618551 1.44376e-07 1.20596e-07 5.11202e-08 0.0005 1.46608e-07 
200 1 0.0244171 0.021336 0.0152427 -0.000462029 -0.00800952 0.00730623 -1.7968e-07 -1.04525e-06 7.02278e-07 0.0005 1.46608e-07 
201 1 0.0229295 0.0155567 0.0169464 0.00115178 0.0561842 -0.0195416 0 0 -1.43822e-06 0.0005 1.46608e-07 
202 1 0.0149335 0.0203988 0.00745293 0.00193033 -0.017926 -0.00295891 1.03733e-08 -1.12164e-07 7.37934e-09 0.0005 1.46608e-07 
203 1 0.0208678 0.0201253 0.00733124 -0.0156217 0.00789656 -0.0740864 0.000426921 0.00507277 -0.00196762 0.0005 1.46608e-07 
204 1 0.0253193 0.0204861 0.0156999 0.00440209 0.00634184 -0.00332997 3.40316e-07 -2.60563e-06 6.14791e-07 0.0005 1.46608e-07 
205 1 0.0196077 0.0178365 0.0162007 -0.000773914 0.00433635 0.0110224 5.85625e-06 4.46611e-06 2.48714e-06 0.0005 1.46608e-07 
206 1 0.0242323 0.0200345 0.0176836 -0.0327773 0.00531078 -0.0251808 0 0 -1.43822e-06 0.0005 1.46608e-07 
208 1 0.0171091 0.0222672 0.0165487 0.00221733 -0.00222467 -0.00273751 2.86044e-06 -5.89275e-06 -1.49696e-06 0.0005 1.46608e-07 
209 1 0.0220821 0.0233903 0.0112732 0.000427129 -0.000451749 -0.0191439 3.1237e-09 1.38598e-08 3.52312e-08 0.0005 1.46608e-07 
210 1 0.0185183 0.0228032 0.0153738 0.00473374 0.00352189 -0.00285887 1.15118e-06 -1.99555e-06 -7.45725e-06 0.0005 1.46608e-07 
211 1 0.0234837 0.0156322 0.0155218 -0.00368131 0.000762388 -0.00307251 3.52533e-08 -2.15542e-07 -2.52261e-07 0.0005 1.46608e-07 
212 1 0.018032 0.017619 0.0157076 0.00537287 0.00254064 0.00166144 0 0 -1.43822e-06 0.0005 1.46608e-07 
213 1 0.0211648 0.0219095 0.0158978 0.00911374 0.0156102 -0.00941143 -3.67039e-06 3.26205e-06 -5.75885e-07 0.0005 1.46608e-07 
215 1 0.0201877 0.0220944 0.0157925 0.0028123 -0.00241201 -0.000124813 -1.99102e-06 7.40458e-06 -2.22355e-06 0.0005 1.46608e-07 
216 1 0.0175946 0.0227515 0.0158211 0.00500194 -0.00168568 -0.00146789 -1.5516e-06 -8.75841e-09 -9.79277e-07 0.0005 1.46608e-07 
217 1 0.0221694 0.02202 0.0158767 -0.0078414 -0.00120656 -0.00137658 0 0 -1.43822e-06 0.0005 1.46608e-07 
218 1 0.0253147 0.0212137 0.0163409 1.38024e-05 0.00110318 0.000305682 -6.58478e-07 2.18208e-06 -4.46557e-07 0.0005 1.46608e-07 
219 1 0.0178933 0.0217953 0.0158471 0.00663082 -0.00200476 -0.0146392 0 0 -1.43822e-06 0.0005 1.46608e-07 
220 1 0.0171668 0.0214818 0.0152351 0.00542616 -0.000850964 -0.00321058 0 0 -1.43822e-06 0.0005 1.46608e-07 
221 1 0.0209037 0.0226474 0.0165198 0.0082032 0.00791732 0.000830747 -4.99647e-07 3.08027e-06 2.55439e-06 0.0005 1.46608e-07 
222 1 0.0137648 0.0221094 0.0157705 0.000464613 0.00116955 0.000119792 1.01969e-06 5.35546e-06 -3.62627e-06 0.0005 1.46608e-07 
223 1 0.0174435 0.02351 0.011705 0.000121562 0.000190787 5.62914e-05 1.4494e-07 6.72237e-09 4.4911e-07 0.0005 1.46608e-07 
224 1 0.0191475 0.0232022 0.0163427 -0.0058375 -0.00560367 0.00414464 -2.11427e-07 -1.5858e-07 -1.77125e-06 0.0005 1.46608e-07 
225 1 0.0168544 0.0150883 0.0149685 -0.0236582 0.0088446 0.0119 7.55458e-08 1.06649e-07 -1.49859e-06 0.0005 1.46608e-07 
226 1 0.0177212 0.0224062 0.0173379 0.00377537 -0.00186014 -0.0127273 2.7285e-06 -6.35419e-07 3.00535e-06 0.0005 1.46608e-07 
229 1 0.0152317 0.0216001 0.0160937 0.00291589 -0.000454468 -3.35461e-05 -3.01401e-07 -3.97939e-07 3.13178e-07 0.0005 1.46608e-07 
231 1 0.0235846 0.0224922 0.0142559 0.00139514 -0.00114634 0.000315086 -2.10779e-07 -3.51494e-07 -6.09852e-07 0.0005 1.46608e-07 
232 1 0.0162584 0.0207228 0.0174046 -0.00911203 0.00590835 0.000793891 0 0 -1.43822e-06 0.0005 1.46608e-07 
233 1 0.0191844 0.0222363 0.0160862 0.0241997 -0.0114748 0.0541285 1.95438e-05 3.52943e-06 -2.66357e-05 0.0005 1.46608e-07 
234 1 0.0181967 0.0231156 0.0131282 0.00500256 0.00584065 -0.00924837 -3.21997e-06 -2.91234e-06 7.50161e-06 0.0005 1.46608e-07 
235 1 0.0126805 0.020641 0.0165824 -0.00245073 0.00542729 0.00538374 -5.56991e-07 1.58752e-06 2.25245e-06 0.0005 1.46608e-07 
236 1 0.0200921 0.0161433 0.0153397 0.00545486 0.0103842 0.00209521 0 0 -1.43822e-06 0.0005 1.46608e-07 
237 1 0.0207842 0.01627 0.0160921 0.00879817 0.00845013 -0.00606253 -7.44431e-06 -1.22756e-06 5.69313e-06 0.0005 1.46608e-07 
238 1 0.0187993 0.0237136 0.017577 -0.00809379 -0.00355134 -0.0017975 -6.57113e-07 1.04938e-07 1.24249e-06 0.0005 1.46608e-07 
239 1 0.0179739 0.0191086 0.0159567 0.00197093 -0.00262237 0.00262401 -2.29684e-06 4.05338e-06 -2.0587e-06 0.0005 1.46608e-07 
240 1 0.0207359 0.0215886 0.0167568 0.0194888 0.0010954 -0.0265644 0 0 -1.43822e-06 0.0005 1.46608e-07 
241 1 0.0201293 0.0230607 0.0160409 0.00197361 -0.00356997 -0.00102346 2.91158e-06 6.36304e-06 2.88539e-06 0.0005 1.46608e-07 
242 1 0.0191746 0.0206424 0.0160513 0.00248464 0.000361845 0.000119281 2.60569e-08 8.76793e-08 -1.3951e-06 0.0005 1.46608e-07 
243 1 0.0194025 0.0146188 0.0161613 -0.00205905 -0.00532267 -0.00176686 0 0 -1.43822e-06 0.0005 1.46608e-07 
244 1 0.0183705 0.0143618 0.0158188 -0.00474254 0.000522868 -0.01529 0 0 -1.43822e-06 0.0005 1.46608e-07 
245 1 0.017681 0.0145369 0.0151061 -0.0185078 0.0113141 -0.00191778 0 0 -1.43822e-06 0.0005 1.46608e-07 
246 1 0.0176578 0.0376296 0.0435188 -1.30862e-218 -9.06247e-218 -3.22607e-12 5.02819e-220 3.4825e-219 0 0.0005 1.46608e-07 
247 1 0.0126416 0.0199423 0.0158682 -0.00374157 0.0122923 -0.00245417 2.52814e-06 4.20517e-06 2.54334e-07 0.0005 1.46608e-07 
248 1 0.021525 0.0148483 0.0146378 -0.00446992 -0.00283464 0.000611317 6.9778e-08 -5.46048e-08 3.61674e-07 0.0005 1.46608e-07 
250 1 0.0225973 0.016269 0.0159723 0.00282808 0.00249581 0.00189926 2.58788e-06 -5.21944e-07 2.17826e-07 0.0005 1.46608e-07 
251 1 0.0186136 0.0172524 0.0164781 0.00148841 0.0161839 0.00650165 -2.46091e-06 -1.23447e-06 -3.01753e-08 0.0005 1.46608e-07 
252 1 0.0233624 0.0216822 0.0161992 0.0115364 -0.00488494 -0.0286937 0 0 -1.43822e-06 0.0005 1.46608e-07 
253 1 0.0195203 0.022769 0.0153032 -0.0309971 -0.00536617 0.0229896 0 0 -1.43822e-06 0.0005 1.46608e-07 
254 1 0.0242471 0.020936 0.0168585 -0.00222086 -0.0109802 0.112884 0 0 -1.43822e-06 0.0005 1.46608e-07 
256 1 0.0216716 0.0159663 0.0157459 0.00628166 -0.00569279 -0.00456968 1.09937e-06 7.42564e-07 7.06728e-06 0.0005 1.46608e-07 
257 1 0.0171323 0.0163123 0.0160162 -0.000509441 0.0186525 0.0121083 -8.08096e-08 1.6346e-07 6.6095e-07 0.0005 1.46608e-07 
258 1 0.0178531 0.0233572 0.0123811 0.000596894 0.00206691 -0.000262183 3.66376e-07 7.26234e-08 3.77628e-06 0.0005 1.46608e-07 
259 1 0.0171562 0.0212888 0.0163477 0.00208028 -0.00143602 -0.0072117 1.8934e-07 -1.4937e-06 -8.5608e-07 0.0005 1.46608e-07 
260 1 0.0200466 0.0170639 0.0157301 0.00156848 0.0124891 0.00017548 0 0 -1.43822e-06 0.0005 1.46608e-07 
261 1 0.0156958 0.0223458 0.0156154 0.00165203 0.0011389 -0.00118818 1.40825e-06 -3.14001e-06 2.94813e-06 0.0005 1.46608e-07 
263 1 0.0190588 0.0215301 0.0152157 0.00874973 -0.00276485 -0.0337954 0 0 -1.43822e-06 0.0005 1.46608e-07 
264 1 0.019939 0.0223554 0.0167669 0.018714 0.00322513 0.00340347 0 0 -1.43822e-06 0.0005 1.46608e-07 
265 1 0.019245 0.0154432 0.0156142 -0.0354835 -0.000346194 0.00636525 0 0 -1.43822e-06 0.0005 1.46608e-07 
266 1 0.0212208 0.0238032 0.0168522 0.0219643 -0.00288794 -7.49979e-06 0 0 -1.43822e-06 0.0005 1.46608e-07 