ITEM: TIMESTEP
2200000
ITEM: NUMBER OF ATOMS
284
ITEM: BOX BOUNDS ff ff ff
-0.02 0.43
-0.02 0.06
-0.02 0.07
ITEM: ATOMS id type x y z vx vy vz fx fy fz radius mass 
1 1 0.014913 0.0205861 0.0165667 0.0099268 0.00271281 0.00137481 -2.05633e-06 6.26734e-06 2.39465e-06 0.0005 1.46608e-07 
2 1 0.0182383 0.0240668 0.0127549 0.000397381 0.000322448 0.0037228 2.92313e-08 -1.60547e-07 -6.71716e-08 0.0005 1.46608e-07 
3 1 0.0242038 0.0224528 0.0156266 -0.00390638 -0.0013908 -0.000903116 -9.83239e-06 -1.11257e-05 -1.19316e-06 0.0005 1.46608e-07 
4 1 0.0157994 0.0224854 0.0143457 0.00640833 0.0012677 -0.000599709 1.19954e-06 -4.40351e-07 -4.91983e-07 0.0005 1.46608e-07 
5 1 0.024174 0.0161726 0.0149012 0.004813 0.00886731 0.0099241 0 0 -1.43822e-06 0.0005 1.46608e-07 
6 1 0.0168468 0.0190933 0.0159427 -7.28253e-08 0.0203485 -0.000329382 9.53847e-08 1.96349e-07 -6.67042e-09 0.0005 1.46608e-07 
7 1 0.0202815 0.0233446 0.0120425 0.000583267 0.00320383 -0.017954 5.30648e-10 -6.29346e-09 -6.40088e-08 0.0005 1.46608e-07 
8 1 0.0159042 0.0279146 0.0267653 0.127139 -0.0377607 -0.228265 0 0 -1.43822e-06 0.0005 1.46608e-07 
9 1 0.0209416 0.0239748 0.0129565 0.00115555 0.000372137 -0.00251462 -1.60021e-07 -8.21698e-09 -4.18781e-07 0.0005 1.46608e-07 
10 1 0.0161795 0.0237477 0.017305 -0.0189471 -0.0101745 0.0039152 0 0 -1.43822e-06 0.0005 1.46608e-07 
11 1 0.0183627 0.0178885 0.00732306 0.000867363 -0.0157549 0.00480796 -7.67923e-09 -2.43296e-08 2.37398e-08 0.0005 1.46608e-07 
12 1 0.0207492 0.0145094 0.0141718 -0.000153359 0.00356209 -0.00351841 1.9912e-07 2.94704e-07 -1.70349e-07 0.0005 1.46608e-07 
13 1 0.0205221 0.023916 0.0161658 0.00577674 -0.00176639 0.00207237 0 0 -1.43822e-06 0.0005 1.46608e-07 
14 1 0.0189473 0.0239772 0.0132571 0.000813894 0.000299438 0.0012051 -1.7435e-07 7.03999e-08 -2.34682e-07 0.0005 1.46608e-07 
15 1 0.0248388 0.0217824 0.0158453 -0.000275616 0.00125252 -0.000342591 -3.45979e-07 -9.32862e-07 1.86443e-07 0.0005 1.46608e-07 
16 1 0.0210002 0.0235575 0.0120615 0.00010477 0.000422825 -0.00325311 7.3899e-08 5.92641e-08 2.26928e-08 0.0005 1.46608e-07 
17 1 0.02178 0.0237705 0.0133913 -0.000630669 0.000420103 -6.47707e-05 7.82255e-08 8.73797e-08 2.02645e-07 0.0005 1.46608e-07 
18 1 0.0221265 0.0172271 0.0155513 0.00248381 0.0111411 0.00485467 -1.93607e-07 1.49712e-07 3.04602e-07 0.0005 1.46608e-07 
19 1 0.0195326 0.0244872 0.0136522 0.000469219 0.000104779 0.000198751 -2.81764e-07 -1.46718e-07 -3.61748e-08 0.0005 1.46608e-07 
20 1 0.0402891 0.0167947 0.00659266 9.35845e-16 -8.55416e-15 -2.18631e-14 3.67996e-20 -1.61995e-20 7.19978e-21 0.0005 1.46608e-07 
21 1 0.0199673 0.018084 0.0187343 0.100708 0.11695 0.11933 0 0 -1.43822e-06 0.0005 1.46608e-07 
22 1 0.0138215 0.0185623 0.0169811 -0.0270444 0.0109877 -0.0438476 0 0 -1.43822e-06 0.0005 1.46608e-07 
23 1 0.0173908 0.0240645 0.0128573 -4.72866e-05 0.00187735 -0.00258523 4.07363e-07 -2.23055e-07 4.51123e-07 0.0005 1.46608e-07 
24 1 0.0236421 0.0153437 0.00929259 0.000412096 -0.0110775 0.0178469 -3.33684e-09 2.92213e-09 1.30048e-08 0.0005 1.46608e-07 
25 1 0.0198474 0.0148532 0.0146441 0.00568201 0.00366639 -0.00536508 0 0 -1.43822e-06 0.0005 1.46608e-07 
26 1 0.0197313 0.0228939 0.00965088 0.000754309 -0.00919397 -0.0182124 -7.15136e-09 -1.78372e-08 -1.20771e-08 0.0005 1.46608e-07 
27 1 0.0227394 0.0187878 0.0159355 7.66195e-06 0.0204594 0.00128428 -1.29956e-08 1.54858e-08 -1.31107e-08 0.0005 1.46608e-07 
28 1 0.0226673 0.0153452 0.0139556 0.00091087 0.0109155 0.0165257 6.04829e-07 1.81525e-07 1.94423e-07 0.0005 1.46608e-07 
29 1 0.0156078 0.0237512 0.0149511 -0.000704863 -0.000334913 -0.000218837 9.30068e-07 3.97604e-06 1.44673e-06 0.0005 1.46608e-07 
30 1 0.0245831 0.0210285 0.0180155 0.0120496 -0.0165604 0.0188613 -6.97533e-07 1.37973e-07 -1.47405e-06 0.0005 1.46608e-07 
31 1 0.0163339 0.0230465 0.0149872 0.01206 0.00305949 -0.00919868 0 0 -1.43822e-06 0.0005 1.46608e-07 
32 1 0.021109 0.0217301 0.0150863 0.00355978 0.0028708 -0.0013305 1.82114e-07 4.49411e-07 -3.95129e-06 0.0005 1.46608e-07 
33 1 0.0221163 0.0217822 0.0150259 -0.00808887 -0.000441275 -0.000737462 0 0 -1.43822e-06 0.0005 1.46608e-07 
34 1 0.0191448 0.0145048 0.0153568 -0.00436774 -0.00156311 0.000987374 3.12186e-06 7.24625e-05 -8.353e-06 0.0005 1.46608e-07 
35 1 0.0296393 0.0184913 0.00583954 2.51614e-14 -2.45746e-16 2.95161e-13 7.94093e-23 -4.75629e-24 0 0.0005 1.46608e-07 
36 1 0.0204244 0.0243776 0.0137809 0.000133418 0.000226514 -2.58841e-05 1.93336e-07 -4.15158e-07 3.08956e-07 0.0005 1.46608e-07 
37 1 0.0219043 0.0182311 0.0158692 0.000336794 0.0206463 0.00359441 1.17698e-07 -3.56577e-07 -1.33531e-07 0.0005 1.46608e-07 
38 1 0.0218482 0.0191727 0.0162011 -0.00360664 0.0269621 -0.0166159 -4.47153e-07 1.11622e-06 6.65795e-07 0.0005 1.46608e-07 
39 1 0.0215289 0.011491 0.0367635 0.0412214 -0.236985 0.159476 0 0 -1.43822e-06 0.0005 1.46608e-07 
40 1 0.0229692 0.0236737 0.0151029 -0.000940047 0.00039982 -0.0032076 -2.10069e-06 -7.22131e-07 -3.86797e-07 0.0005 1.46608e-07 
41 1 0.0176498 0.0237592 0.0136132 0.000306055 0.00280363 -0.0104721 -6.11863e-07 -9.86355e-07 2.95478e-06 0.0005 1.46608e-07 
42 1 0.0228189 0.0149729 0.0129005 2.84745e-05 0.00655859 0.0217349 -1.2663e-09 1.28019e-08 2.57551e-09 0.0005 1.46608e-07 
43 1 0.0188969 0.0193828 0.00715872 0.000659341 -0.0208942 -0.00226828 4.01912e-08 -1.31374e-08 7.15467e-09 0.0005 1.46608e-07 
44 1 0.0233708 0.01228 0.0235693 -0.0500822 0.106052 -0.293411 0 0 -1.43822e-06 0.0005 1.46608e-07 
45 1 0.0219469 0.0237415 0.0149685 -0.00124918 -0.000266111 0.000661387 -1.54253e-06 -1.12913e-06 4.4946e-06 0.0005 1.46608e-07 
46 1 0.0244418 0.0165007 0.0079995 1.43129e-05 -0.0170819 0.0124911 -9.99064e-10 6.41416e-10 1.03963e-08 0.0005 1.46608e-07 
47 1 0.0230688 0.0232142 0.014332 0.00321722 -0.000760467 -0.00832892 -8.41152e-07 1.88189e-07 -6.8096e-07 0.0005 1.46608e-07 
48 1 0.0216985 0.0143073 0.0138299 0.000874464 -0.000254854 0.00158615 -4.3207e-07 -1.08051e-06 9.16089e-07 0.0005 1.46608e-07 
49 1 0.0237096 0.0204008 0.0165589 -0.00437417 0.0069427 -0.00569174 -6.62488e-07 1.39179e-06 -7.87753e-07 0.0005 1.46608e-07 
50 1 0.0223948 0.016196 0.01492 0.00161835 0.012713 0.00958832 0 0 -1.43822e-06 0.0005 1.46608e-07 
51 1 0.0197139 0.0219191 0.0082749 -0.000341899 -0.00956135 -0.010023 5.20675e-09 1.29313e-08 4.09974e-08 0.0005 1.46608e-07 
52 1 0.0201182 0.0240637 0.0124941 -0.000806485 -0.00264133 0.00111313 -5.73625e-08 1.4371e-08 -2.35759e-07 0.0005 1.46608e-07 
53 1 0.0259292 0.0232978 0.0105827 0.000691476 -0.00441846 -0.0189567 -2.53649e-09 -1.21661e-08 -9.02593e-09 0.0005 1.46608e-07 
54 1 0.0179694 0.0244633 0.0138017 -9.35102e-05 0.000384049 -0.00233438 1.45741e-07 -1.13263e-07 1.11423e-06 0.0005 1.46608e-07 
55 1 0.0150943 0.0231749 0.0155531 0.000144931 -0.000572303 0.00040436 -7.58145e-07 9.92563e-07 -1.2747e-06 0.0005 1.46608e-07 
56 1 0.017996 0.0150274 0.0163284 0.0629953 -3.1057e-05 -0.046955 0 0 -1.43822e-06 0.0005 1.46608e-07 
57 1 0.0166852 0.0238823 0.0136326 0.00199253 0.00135414 -0.0029704 7.57917e-08 9.83677e-07 -3.08411e-06 0.0005 1.46608e-07 
58 1 0.019012 0.0240417 0.0123073 -6.01907e-05 0.000723867 -0.000826449 1.29355e-08 5.48436e-09 -5.39531e-08 0.0005 1.46608e-07 
59 1 0.0232658 0.0147533 0.0110424 0.000502273 -0.00300535 0.0211475 -8.3145e-10 1.04492e-08 8.00882e-09 0.0005 1.46608e-07 
60 1 0.0225423 0.0199031 0.0158609 -0.00153102 0.0192736 -0.00143073 4.26226e-07 1.39921e-06 1.85618e-06 0.0005 1.46608e-07 
61 1 0.023252 0.020821 0.0174348 0.00810365 0.00291449 0.00919243 0 0 -1.43822e-06 0.0005 1.46608e-07 
62 1 0.0213077 0.0242798 0.0140163 -3.1913e-05 0.000322749 -0.000124168 9.96865e-07 1.40951e-07 1.79927e-07 0.0005 1.46608e-07 
63 1 0.0223588 0.0236761 0.014049 0.0019579 -0.000594309 -0.00386746 9.90134e-08 6.59435e-07 -9.60578e-10 0.0005 1.46608e-07 
64 1 0.0220899 0.0144692 0.0171646 -0.00279211 0.0116721 -0.0235092 -9.01258e-08 3.63284e-07 -7.33211e-07 0.0005 1.46608e-07 
65 1 0.0218048 0.0216724 0.0159703 -0.00565108 0.00831811 0.00308084 0 0 -1.43822e-06 0.0005 1.46608e-07 
66 1 0.0142508 0.0205148 0.0173784 0.00368362 0.000999849 0.00303119 -2.26687e-07 -1.32981e-07 -1.63081e-06 0.0005 1.46608e-07 
68 1 0.0214356 0.0233244 0.0142281 0.00131229 0.00155206 -0.00216954 7.08997e-06 1.13923e-06 -2.19644e-06 0.0005 1.46608e-07 
69 1 0.0203888 0.0157699 0.0163474 -0.00412543 -0.0160591 -0.0365293 0 0 -1.43822e-06 0.0005 1.46608e-07 
70 1 0.0225122 0.0227005 0.0150062 0.00906361 -0.00676053 0.00603374 0 0 -1.43822e-06 0.0005 1.46608e-07 
71 1 0.0198254 0.0137802 0.0173645 0.0333189 0.0281374 -0.0393706 -2.71975e-07 3.26857e-07 -8.31113e-07 0.0005 1.46608e-07 
72 1 0.0171872 0.0166472 0.0152389 -0.00350917 0.0076691 0.00433887 2.13256e-07 -1.64429e-08 -2.47741e-08 0.0005 1.46608e-07 
73 1 0.0249162 0.022069 0.0165188 -0.000125206 0.000290698 -9.30923e-05 -1.84658e-07 -1.60307e-07 2.77065e-09 0.0005 1.46608e-07 
74 1 0.0216176 0.0201468 0.0162008 0.00228608 0.0259846 -0.0193252 0 0 -1.43822e-06 0.0005 1.46608e-07 
75 1 0.0260479 0.0192402 0.0171088 -0.000871459 0.000583099 -0.00170463 -3.9942e-07 -1.40616e-07 -7.22825e-07 0.0005 1.46608e-07 
76 1 0.0190581 0.0209976 0.0076775 0.000292744 -0.0182899 -0.00913141 -3.25119e-10 -1.32695e-08 7.26351e-09 0.0005 1.46608e-07 
77 1 0.0171614 0.0211039 0.0166153 -0.0123224 0.0389365 -0.0492165 0 0 -1.43822e-06 0.0005 1.46608e-07 
78 1 0.0146053 0.0179669 0.0172144 0.0360925 0.0280868 -0.0451566 0 0 -1.43822e-06 0.0005 1.46608e-07 
79 1 0.0266928 0.0226309 0.013651 0.000525589 0.0144988 -0.0167031 1.77918e-09 -1.3853e-08 -5.65852e-09 0.0005 1.46608e-07 
80 1 0.0172804 0.0233682 0.0144695 0.00014524 0.0235443 -0.017975 0 0 -1.43822e-06 0.0005 1.46608e-07 
81 1 0.0202872 0.0185294 0.0167296 0.000101217 0.0246091 0.00235745 -1.22653e-07 -8.30671e-08 -6.66154e-08 0.0005 1.46608e-07 
82 1 0.0160618 0.0217959 0.0150206 0.0053898 0.000228295 0.000151783 6.15075e-07 -6.62258e-07 4.48784e-07 0.0005 1.46608e-07 
83 1 0.0151379 0.0277547 0.0276362 -0.0552289 -0.159212 -0.163833 0 0 -1.43822e-06 0.0005 1.46608e-07 
84 1 0.0186424 0.0149468 0.0132032 0.00481275 0.00117438 0.00275152 -2.04915e-06 4.59001e-07 2.62185e-07 0.0005 1.46608e-07 
85 1 0.0150151 0.0221782 0.0148833 0.00464297 0.00323987 -0.000760303 -3.9685e-08 1.03875e-07 -1.76678e-06 0.0005 1.46608e-07 
86 1 0.0223157 0.0208441 0.0155706 0.00649526 0.00455816 -0.000997434 -2.29457e-05 1.36085e-05 4.18173e-06 0.0005 1.46608e-07 
87 1 0.0212717 0.0230834 0.0132716 -0.00251227 0.000483543 -0.00327725 -3.57793e-07 9.9061e-08 2.69261e-07 0.0005 1.46608e-07 
88 1 0.0142977 0.0229349 0.0150763 0.000117263 -0.00194199 0.00136942 -1.29255e-07 -1.78928e-07 -7.47461e-08 0.0005 1.46608e-07 
89 1 0.0147878 0.0170092 0.0163628 -0.000813215 0.010917 -0.000696039 2.17867e-06 -1.27561e-05 -1.68002e-05 0.0005 1.46608e-07 
90 1 0.0189104 0.0201689 0.00735206 0.000110812 -0.0209187 -0.00624803 -1.29657e-08 -2.51989e-08 4.97224e-09 0.0005 1.46608e-07 
91 1 0.0176785 0.0150402 0.013453 0.00448132 0.00360319 0.0035019 3.66551e-07 4.46977e-06 -6.46354e-06 0.0005 1.46608e-07 
92 1 0.0194085 0.0223036 0.0156273 0.0248253 -0.00103091 0.000612532 -5.68897e-07 1.15179e-06 -8.78784e-07 0.0005 1.46608e-07 
93 1 0.0179705 0.0142171 0.0127413 -0.000271393 -0.000823231 0.00233055 -6.72423e-07 -4.64132e-08 -7.89197e-07 0.0005 1.46608e-07 
95 1 0.0197555 0.0238188 0.0155283 0.000552529 0.00101247 0.000283039 -4.8128e-06 -6.88286e-07 1.05018e-06 0.0005 1.46608e-07 
97 1 0.0262165 0.0233727 0.0116661 0.000399195 0.00115134 -0.0212409 -4.17923e-09 -8.85688e-09 -1.34254e-08 0.0005 1.46608e-07 
98 1 0.021179 0.0162659 0.0159869 -0.00095652 0.0159825 0.0104029 2.80147e-08 1.0656e-07 5.64554e-07 0.0005 1.46608e-07 
99 1 0.0058109 -0.00260116 0.0113682 -0.0394466 -0.0830696 -0.844606 0 0 -1.43822e-06 0.0005 1.46608e-07 
100 1 0.0199553 0.0215193 0.0161629 -0.00219258 0.0254661 -0.0134348 0 0 -1.43822e-06 0.0005 1.46608e-07 
101 1 0.0214449 0.0235806 0.0163591 0.0107606 -0.0143752 -0.0275577 -2.46738e-07 -2.18875e-07 -1.09203e-06 0.0005 1.46608e-07 
102 1 0.0177319 0.0139314 0.0136693 -0.000218799 -0.000736546 0.0021836 4.97838e-07 -1.47239e-08 -4.70405e-07 0.0005 1.46608e-07 
103 1 0.0169986 0.0238737 0.0165042 -0.00919509 -0.00389877 -0.00518622 2.82639e-07 -2.90164e-07 -1.09148e-06 0.0005 1.46608e-07 
104 1 0.0161901 0.0159157 0.0155661 0.0466649 -0.0130463 -0.00834482 0 0 -1.43822e-06 0.0005 1.46608e-07 
105 1 0.0159839 0.0234455 0.0141395 0.00451497 0.00283214 0.000487169 1.63758e-06 -8.22822e-07 3.97401e-06 0.0005 1.46608e-07 
106 1 0.0205669 0.0223499 0.0156581 -0.0026796 0.00325206 0.000635956 0 0 -1.43822e-06 0.0005 1.46608e-07 
108 1 0.0242122 0.0171929 0.00761905 0.000661738 -0.0180727 0.00777159 -9.61423e-09 -2.82897e-09 1.47996e-08 0.0005 1.46608e-07 
109 1 0.0176142 0.0177195 0.0157554 0.00097048 0.0185793 0.00602902 -3.16268e-07 1.28097e-07 -1.82295e-07 0.0005 1.46608e-07 
110 1 0.0236187 0.0192455 0.0176492 0.00121435 0.021805 -0.00144653 -2.27155e-07 4.71019e-07 -7.63856e-08 0.0005 1.46608e-07 
111 1 0.0208618 0.0233516 0.0109388 0.00105384 -0.0024586 -0.0185673 -8.86488e-09 -5.79695e-09 -1.39864e-08 0.0005 1.46608e-07 
112 1 0.019091 0.0184511 0.00722617 0.000156112 -0.0203518 0.00322564 -6.57822e-09 -1.34774e-08 1.283e-08 0.0005 1.46608e-07 
113 1 0.0218336 0.0158233 0.0166106 -7.55638e-05 -0.000271693 0.00317585 -3.63006e-06 4.65917e-06 7.38059e-07 0.0005 1.46608e-07 
114 1 0.0198556 0.0210075 0.00768353 0.000492354 -0.0180829 -0.00857182 -4.1698e-09 -1.23727e-08 4.93026e-09 0.0005 1.46608e-07 
115 1 0.0237382 0.018616 0.015929 0.000294455 0.0193364 0.00213923 -9.90338e-09 6.36132e-07 3.29531e-09 0.0005 1.46608e-07 
116 1 0.0187651 0.0229308 0.0150285 0.0273363 0.0183359 -0.0195201 -3.94597e-07 -4.59355e-07 -1.76662e-06 0.0005 1.46608e-07 
117 1 0.0254591 0.0177212 0.016587 -0.00341621 0.0131336 0.00440951 1.39956e-07 3.91778e-07 7.49078e-08 0.0005 1.46608e-07 
118 1 0.0225113 0.014458 0.0143931 -0.000980763 0.00168652 -0.00364963 0 0 -1.43822e-06 0.0005 1.46608e-07 
119 1 0.0235814 0.0229031 0.0150739 -0.00357732 -0.00181085 -0.00295155 -8.05715e-06 -9.82894e-06 -1.71593e-06 0.0005 1.46608e-07 
120 1 0.0213168 0.0208887 0.0155854 0.00651759 -0.00143995 0.00507785 1.51771e-07 3.18101e-07 -1.78504e-06 0.0005 1.46608e-07 
121 1 0.020116 0.0235703 0.0142816 -0.000977928 0.00189765 -0.00106083 -1.22496e-06 -9.58116e-07 1.8126e-06 0.0005 1.46608e-07 
122 1 0.0207732 0.021019 0.016448 -0.0110033 -0.00633005 -0.03467 0 0 -1.43822e-06 0.0005 1.46608e-07 
123 1 0.0237837 0.0151669 0.0151976 0.00371051 -0.000148122 0.0067188 6.38257e-07 3.38863e-07 9.5858e-07 0.0005 1.46608e-07 
124 1 0.0227007 0.0180182 0.00730555 -3.85043e-05 -0.0217292 0.00479832 9.47839e-10 -7.85009e-10 1.37638e-08 0.0005 1.46608e-07 
125 1 0.0252073 0.0211884 0.00794812 -0.0014484 -0.01741 -0.0121954 2.57376e-09 -4.97749e-09 1.12378e-09 0.0005 1.46608e-07 
126 1 0.0162745 0.020957 0.0155214 0.00572767 -3.77806e-05 -0.00154829 -2.71104e-08 -3.43519e-07 -1.11309e-07 0.0005 1.46608e-07 
127 1 0.0235583 0.0160178 0.0156751 -0.00207283 0.000921615 0.0115059 0 0 -1.43822e-06 0.0005 1.46608e-07 
128 1 0.0205316 0.0231153 0.0100614 0.00165663 -0.00646287 -0.016246 -1.96638e-08 -2.67561e-08 -3.67767e-08 0.0005 1.46608e-07 
129 1 0.0167225 0.0151986 0.0137251 0.00384239 0.00119284 0.00387184 7.87741e-08 -2.75045e-07 -3.73571e-07 0.0005 1.46608e-07 
131 1 0.0210195 0.0234154 0.0154061 -0.0446223 -0.0104329 -0.0414973 0 0 -1.43822e-06 0.0005 1.46608e-07 
132 1 0.0152548 0.019733 0.0171754 0.00169027 0.0116549 -0.00110573 -1.19392e-06 -1.65817e-06 1.83596e-06 0.0005 1.46608e-07 
133 1 0.0227189 0.0203222 0.0167515 0.000512683 0.0166448 0.00282067 -6.51044e-08 2.59536e-07 -1.36657e-06 0.0005 1.46608e-07 
135 1 0.0175395 0.0236087 0.0155273 0.000829384 0.000168129 -0.000300906 -3.2394e-07 1.23054e-06 -9.58997e-07 0.0005 1.46608e-07 
136 1 0.0169334 0.0147992 0.0128317 0.00246836 0.00167803 0.00796061 5.80454e-09 -6.00918e-07 2.21968e-06 0.0005 1.46608e-07 
137 1 0.0242432 0.0179969 0.0166213 -0.00124798 0.0132693 0.00152506 -5.76163e-07 2.18995e-07 1.76414e-07 0.0005 1.46608e-07 
138 1 0.0189422 0.0140423 0.0129002 0.000250939 6.18234e-05 7.51522e-05 -7.64461e-07 4.91387e-07 2.53025e-07 0.0005 1.46608e-07 
139 1 0.015453 0.0229774 0.0135397 0.00465429 0.00314863 -0.00127231 4.08878e-06 -2.02504e-07 -4.8475e-07 0.0005 1.46608e-07 
140 1 0.0247566 0.0194658 0.00719149 0.000746281 -0.0180592 -0.00258998 2.16794e-09 2.74837e-09 1.48295e-08 0.0005 1.46608e-07 
141 1 0.0247606 0.0170151 0.0163326 0.00196923 0.0200146 0.00820404 1.58425e-07 2.81503e-07 1.9171e-07 0.0005 1.46608e-07 
142 1 0.019936 0.0140085 0.0130041 0.000655329 0.000581929 -0.000893163 -9.01003e-08 4.17838e-07 2.42798e-07 0.0005 1.46608e-07 
143 1 0.0250782 0.0176856 0.0186281 -0.0705706 0.00199213 -0.168335 -3.56522e-07 6.34765e-08 -8.67904e-07 0.0005 1.46608e-07 
144 1 0.0240279 0.0170401 0.0170126 0.00165791 0.00925255 0.00792624 -1.12156e-06 6.07671e-08 -1.27978e-07 0.0005 1.46608e-07 
145 1 0.0152261 0.0213096 0.0153317 0.00205921 0.00231211 -0.000902332 -4.60151e-08 -8.41858e-07 -1.17662e-07 0.0005 1.46608e-07 
146 1 0.0109178 -0.0129499 0.0121631 -0.0228141 -0.148296 -0.841358 0 0 -1.43822e-06 0.0005 1.46608e-07 
147 1 0.0217144 0.0233389 0.0125097 0.000381912 7.64936e-05 -2.35848e-05 1.58811e-07 -1.22069e-07 2.90731e-07 0.0005 1.46608e-07 
148 1 0.0222315 0.0227485 0.0139278 0.00137864 0.00432727 -0.012238 1.15797e-06 1.11906e-06 -3.17682e-07 0.0005 1.46608e-07 
149 1 0.0252349 0.020091 0.016644 -0.00415688 0.00708064 -0.000338986 3.03765e-07 6.10376e-07 3.15435e-08 0.0005 1.46608e-07 
150 1 0.0199615 0.0229598 0.0150649 0.00213973 0.0091089 -0.010603 -2.21017e-06 -7.36084e-07 1.22192e-06 0.0005 1.46608e-07 
151 1 0.0170565 0.0215337 0.015184 0.0134221 -0.0270328 0.0199267 0 0 -1.43822e-06 0.0005 1.46608e-07 
152 1 0.0142524 0.015263 0.0151346 0.00418535 -0.00388987 -0.00433777 9.6983e-08 -1.1083e-07 -7.52068e-08 0.0005 1.46608e-07 
153 1 0.0154999 0.0171999 0.0170375 -0.00059827 -0.000524328 -0.00220761 1.37684e-05 1.57348e-05 4.09086e-05 0.0005 1.46608e-07 
154 1 0.0173008 0.0205716 0.0156745 1.59008e-05 0.0193523 -0.00696602 6.01999e-08 -8.97516e-08 2.07344e-08 0.0005 1.46608e-07 
155 1 0.0176804 0.0140507 0.0164369 -0.00353107 0.0166997 -0.029783 0 0 -1.43822e-06 0.0005 1.46608e-07 
156 1 0.0243166 0.016747 0.0179242 0.00303515 0.000690357 0.00481481 -6.46825e-07 1.90887e-07 -1.51491e-06 0.0005 1.46608e-07 
157 1 0.0184725 0.0235707 0.014271 0.0258866 -0.014258 0.0288146 0 0 -1.43822e-06 0.0005 1.46608e-07 
158 1 0.0139393 0.0215577 0.0177419 -0.00170582 0.00084821 -0.00587747 0 0 -1.43822e-06 0.0005 1.46608e-07 
159 1 0.0223525 0.0163164 0.0159125 -0.00508415 0.00933499 0.0114097 3.19948e-06 -1.98743e-07 -4.64776e-06 0.0005 1.46608e-07 
161 1 0.0208947 0.0140857 0.0132778 0.00116269 0.00109242 -0.00209459 -1.81102e-07 1.42779e-07 -3.50689e-07 0.0005 1.46608e-07 
162 1 0.0195654 0.0153569 0.0158552 -0.00787985 0.00565422 -0.0417332 0 0 -1.43822e-06 0.0005 1.46608e-07 
163 1 0.0133584 0.0195912 0.0171367 0.00571094 -0.0123064 -0.0175008 1.92779e-06 3.96353e-07 1.4981e-06 0.0005 1.46608e-07 
164 1 0.0224285 0.0168192 0.0167753 0.00416972 0.0296934 0.00250644 4.93114e-06 1.10907e-06 3.78924e-06 0.0005 1.46608e-07 
165 1 0.0235451 0.0156269 0.0143424 0.00554119 0.00782158 0.0101486 1.28217e-06 7.57576e-07 5.79408e-07 0.0005 1.46608e-07 
166 1 0.0197241 0.0170631 0.0163584 -5.59314e-08 0.0228222 0.0094462 -1.6258e-10 6.74394e-09 -1.54458e-08 0.0005 1.46608e-07 
167 1 0.0231582 0.0212249 0.0164181 -0.0117468 0.0112924 0.00377896 0 0 -1.43822e-06 0.0005 1.46608e-07 
168 1 0.0131391 0.0212362 0.0162992 0.000880068 -0.000415045 -0.00159274 1.61734e-06 5.18073e-07 -1.60833e-06 0.0005 1.46608e-07 
169 1 0.0159215 0.0144537 0.0141068 0.00331861 -0.00156063 -0.00162741 -2.52875e-08 -4.06406e-09 3.9964e-08 0.0005 1.46608e-07 
170 1 0.0147701 0.0226632 0.0140439 0.00404851 0.00202986 -0.00298184 -8.98184e-07 1.96112e-06 -1.47604e-06 0.0005 1.46608e-07 
171 1 0.013959 0.0164315 0.0160721 0.00185382 -0.000529465 -0.00258033 -5.54065e-09 -7.12756e-09 -2.72704e-07 0.0005 1.46608e-07 
172 1 0.0147735 0.0188552 0.0167761 -0.000830364 -0.00141861 -0.000368719 2.21604e-08 1.17753e-06 3.22838e-07 0.0005 1.46608e-07 
173 1 0.0179789 0.0161857 0.016858 0.126728 0.0329674 -0.0231455 0 0 -1.43822e-06 0.0005 1.46608e-07 
174 1 0.0175432 0.0229513 0.0162814 0.00487276 0.00708362 0.0100235 0 0 -1.43822e-06 0.0005 1.46608e-07 
175 1 0.0159153 0.0217858 0.0171627 0.0107555 0.00354019 -0.00283307 0 0 -1.43822e-06 0.0005 1.46608e-07 
176 1 0.0201277 0.0234723 0.0113502 0.000794388 -0.00316149 -0.0188243 -6.17373e-09 1.17289e-08 -2.15249e-08 0.0005 1.46608e-07 
177 1 0.0237592 0.0221565 0.017779 -0.0187019 0.00701162 -0.0289695 -1.93148e-07 -3.08278e-07 -9.91292e-07 0.0005 1.46608e-07 
178 1 0.0231513 0.0222845 0.0157755 -0.00335034 -0.00740715 0.0226495 0 0 -1.43822e-06 0.0005 1.46608e-07 
179 1 0.0215782 0.0225454 0.0154615 0.00624053 0.014079 -0.0108918 0 0 -1.43822e-06 0.0005 1.46608e-07 
180 1 0.0244789 0.02044 0.017199 -0.00304316 0.0121674 0.00158719 0 0 -1.43822e-06 0.0005 1.46608e-07 
181 1 0.0177175 0.0226879 0.0152623 0.00592524 0.00199645 -0.00197796 -4.92901e-06 3.81306e-06 -4.54396e-06 0.0005 1.46608e-07 
182 1 0.014014 0.0212876 0.0167806 0.00276547 -0.00162595 -0.00487215 1.36884e-06 1.65364e-07 1.12484e-06 0.0005 1.46608e-07 
183 1 0.0161159 0.0229324 0.0166945 0.0261717 0.0123525 -0.00886855 0 0 -1.43822e-06 0.0005 1.46608e-07 
184 1 0.0158486 0.0225656 0.0157981 0.00445021 0.00290232 -0.00512815 0 0 -1.43822e-06 0.0005 1.46608e-07 
185 1 0.0230333 0.0168312 0.015368 -0.00135827 0.015139 0.00876911 1.73414e-07 1.36056e-07 -2.58075e-07 0.0005 1.46608e-07 
186 1 0.0223548 0.0181849 0.0167607 0.00159444 0.0193287 0.002915 4.64959e-07 2.15335e-07 -2.90725e-07 0.0005 1.46608e-07 
187 1 0.0234822 0.0149794 0.0100742 0.000387578 -0.00619178 0.0194145 -4.08277e-09 5.23227e-09 1.34916e-08 0.0005 1.46608e-07 
188 1 0.0183264 0.0182387 0.0168468 -0.000128401 0.027325 0.0033223 -2.7439e-09 -4.71155e-07 -3.75345e-07 0.0005 1.46608e-07 
189 1 0.0145478 0.0224635 0.0159949 0.000658401 -3.43538e-06 0.00125872 -4.66983e-08 -8.72326e-07 -1.16166e-06 0.0005 1.46608e-07 
190 1 0.0256035 0.0226281 0.00909602 0.0028376 0.000291768 -0.00260033 8.27834e-06 -1.42137e-06 -5.70278e-06 0.0005 1.46608e-07 
192 1 0.0162093 0.0169146 0.0154158 0.0121372 0.00216424 -0.00370798 -4.21051e-07 -9.66256e-07 -2.314e-06 0.0005 1.46608e-07 
193 1 0.0232705 0.0177855 0.0167158 -0.000889241 0.0130453 0.00540015 4.5181e-07 -2.07807e-07 1.07322e-06 0.0005 1.46608e-07 
194 1 0.022952 0.0177951 0.015768 -0.00116838 0.0191119 0.00569139 1.16744e-06 6.74391e-07 5.1001e-07 0.0005 1.46608e-07 
195 1 0.022928 0.0228202 0.0171316 0.00605107 -0.0127068 -0.00960367 -3.5344e-07 -1.1524e-07 -9.97896e-07 0.0005 1.46608e-07 
196 1 0.0154523 0.0204233 0.0157359 0.00144457 0.0017326 0.000729114 0 0 -1.43822e-06 0.0005 1.46608e-07 
197 1 0.0217468 0.0200853 0.0173818 0.0084856 -0.009995 -0.0430808 0 0 -1.43822e-06 0.0005 1.46608e-07 
198 1 0.0233235 0.0168668 0.0163242 0.0010808 0.0116775 0.00834905 3.43447e-07 -2.53057e-08 -3.21592e-07 0.0005 1.46608e-07 
200 1 0.0244852 0.02101 0.0163748 -0.000281201 0.0190388 -0.00707271 0 0 -1.43822e-06 0.0005 1.46608e-07 
201 1 0.0235151 0.0196061 0.0159095 0.0039161 0.00281435 0.000457763 -2.16047e-07 1.20044e-06 -1.85787e-07 0.0005 1.46608e-07 
202 1 0.0143066 0.0232474 0.0120811 6.08625e-05 0.00385024 -0.0219126 -1.14973e-09 -1.0878e-08 -6.76104e-09 0.0005 1.46608e-07 
203 1 0.0204784 0.0232087 0.0129929 0.000980492 0.00505032 -0.0144773 -6.646e-08 9.45381e-08 -4.9158e-07 0.0005 1.46608e-07 
204 1 0.0239834 0.0171368 0.0155083 -0.000568617 0.000400949 0.000676123 1.13409e-08 1.24343e-07 7.46208e-08 0.0005 1.46608e-07 
205 1 0.0183887 0.0146574 0.0147167 0.0149695 6.09e-06 -0.0154087 1.10843e-05 -4.58477e-05 2.96332e-05 0.0005 1.46608e-07 
206 1 0.0217056 0.021212 0.0168546 -0.0176618 -0.0261052 -0.0142062 0 0 -1.43822e-06 0.0005 1.46608e-07 
207 1 0.00535659 0.0502286 0.000791596 -0.0851531 0.111334 -0.983242 0 0 -1.43822e-06 0.0005 1.46608e-07 
208 1 0.0156636 0.0196057 0.0162718 0.00309262 0.00141503 0.00157939 1.19555e-06 1.67911e-06 -4.6868e-06 0.0005 1.46608e-07 
209 1 0.0215018 0.0223704 0.0144604 0.00349359 0.00290512 -0.0041948 9.07896e-07 2.52833e-06 -3.9303e-06 0.0005 1.46608e-07 
210 1 0.0181429 0.0214935 0.0161558 -9.42649e-09 0.0218607 -0.0115875 -2.89796e-11 -8.58769e-09 -1.45813e-08 0.0005 1.46608e-07 
211 1 0.0233068 0.0190509 0.0167193 -0.0066976 0.00915995 0.00389343 -3.99382e-07 8.60708e-07 -2.32647e-07 0.0005 1.46608e-07 
212 1 0.0174722 0.0146206 0.0119741 -0.00465803 -0.000687209 0.00528879 2.78576e-07 2.1991e-07 -4.8742e-07 0.0005 1.46608e-07 
213 1 0.0206249 0.0175518 0.0165574 -0.00290658 0.0244799 0.00919136 0 0 -1.43822e-06 0.0005 1.46608e-07 
215 1 0.01931 0.0183217 0.0166868 3.25827e-05 0.0243992 0.00338003 8.87098e-08 -2.19594e-07 -3.08185e-08 0.0005 1.46608e-07 
216 1 0.0168176 0.022415 0.0156022 0.00521948 0.00814403 -0.000548284 -1.46454e-06 -1.83809e-06 -7.54359e-07 0.0005 1.46608e-07 
217 1 0.0242414 0.0195698 0.016722 -0.000551884 0.0110017 0.000692577 5.78614e-07 7.19165e-07 -1.51093e-07 0.0005 1.46608e-07 
218 1 0.0254767 0.0210512 0.0165046 -0.00552828 0.00745268 -0.00275157 -2.93401e-07 4.50877e-07 -9.01192e-07 0.0005 1.46608e-07 
219 1 0.0164638 0.0200264 0.015837 0.00686271 0.00225663 -0.00133503 -1.19578e-07 1.90906e-06 2.00545e-07 0.0005 1.46608e-07 
220 1 0.0158205 0.0186765 0.0159372 0.00432314 0.00200728 -0.000310469 -1.0157e-06 2.92181e-06 3.94751e-06 0.0005 1.46608e-07 
221 1 0.0207185 0.0197051 0.0167446 -0.0123648 0.0195167 0.00266622 0 0 -1.43822e-06 0.0005 1.46608e-07 
222 1 0.0136791 0.0219772 0.0158806 0.00162464 0.00292085 -0.00149764 3.87777e-07 5.05538e-07 -2.32356e-07 0.0005 1.46608e-07 
223 1 0.0163402 0.0232741 0.0129063 0.000906657 -2.58833e-05 -0.0013728 -2.1689e-06 -1.23177e-07 1.25022e-06 0.0005 1.46608e-07 
224 1 0.0184686 0.0225112 0.0159026 0.0202905 0.00179077 -0.0208562 0 0 -1.43822e-06 0.0005 1.46608e-07 
225 1 0.0156146 0.0157281 0.0167117 0.0600405 -0.0293265 -0.0210461 0 0 -1.43822e-06 0.0005 1.46608e-07 
226 1 0.0159519 0.0216437 0.0161728 0.0061565 0.00208615 -0.00313186 -7.14045e-08 7.09879e-08 -1.12524e-06 0.0005 1.46608e-07 
227 1 0.0224097 0.0194032 0.0169957 -0.0018076 0.0114932 -0.0130398 1.01927e-06 1.33463e-06 -2.6256e-07 0.0005 1.46608e-07 
229 1 0.0143581 0.0197636 0.0167271 0.0024335 0.000682735 0.000756288 1.01362e-06 -2.35961e-07 2.95596e-07 0.0005 1.46608e-07 
230 1 0.0189008 0.0161076 0.015827 3.77562e-05 0.0195177 0.013245 2.96659e-09 -5.78319e-08 -5.84596e-08 0.0005 1.46608e-07 
231 1 0.0230504 0.0214402 0.015247 0.00182651 0.0124983 -0.00701764 -3.28518e-06 6.47094e-06 -4.14514e-06 0.0005 1.46608e-07 
232 1 0.0163141 0.017978 0.0172324 -0.00145713 0.0057923 0.00425169 2.00187e-06 -3.04966e-08 -1.4439e-06 0.0005 1.46608e-07 
233 1 0.0188584 0.0163379 0.0179369 0.0127338 0.109242 0.0821025 0 0 -1.43822e-06 0.0005 1.46608e-07 
234 1 0.0168326 0.0222871 0.0145582 -0.000700143 0.0109069 0.00739217 0 0 -1.43822e-06 0.0005 1.46608e-07 
235 1 0.012594 0.0204449 0.0165756 0.000936501 -0.000164291 -0.00129625 -1.03421e-06 -6.61102e-08 1.99046e-06 0.0005 1.46608e-07 
236 1 0.0202215 0.0146025 0.0158862 -0.0103299 0.00542885 -0.0173792 8.75524e-08 4.15252e-07 -8.65784e-07 0.0005 1.46608e-07 
237 1 0.0233397 0.0160635 0.0169202 -0.00695828 -0.0029043 -0.0097026 -4.62951e-07 5.32628e-07 -4.09203e-07 0.0005 1.46608e-07 
238 1 0.0224565 0.021544 0.0174707 -0.0218328 -0.00843708 -0.0373522 0 0 -1.43822e-06 0.0005 1.46608e-07 
239 1 0.018087 0.0154669 0.0153055 0.0236911 -0.0195124 -0.0956338 0 0 -1.43822e-06 0.0005 1.46608e-07 
240 1 0.0238342 0.0219641 0.0164419 0.0156612 -0.022864 0.00484412 0 0 -1.43822e-06 0.0005 1.46608e-07 
241 1 0.0223007 0.023002 0.0160539 0.0226538 0.0273789 -0.0125923 0 0 -1.43822e-06 0.0005 1.46608e-07 
242 1 0.0177208 0.0186674 0.0161766 0.000744458 0.0215194 -0.00109113 -9.56949e-08 -1.50247e-07 -3.76243e-07 0.0005 1.46608e-07 
243 1 0.0210256 0.0145295 0.0165127 -0.00639157 0.00139766 0.0105844 0 0 -1.43822e-06 0.0005 1.46608e-07 
244 1 0.024384 0.0186818 0.017336 -0.00216143 0.0127729 0.00194549 -8.36069e-07 1.90266e-07 4.11664e-08 0.0005 1.46608e-07 
245 1 0.0186913 0.0132842 0.0177483 -0.000395409 0.0221424 -0.0460771 -1.33757e-07 3.48719e-07 -7.97994e-07 0.0005 1.46608e-07 
246 1 0.0176578 0.0376296 0.0435188 -2.59241e-32 -1.7955e-31 -3.22607e-12 -4.45895e-35 -3.08823e-34 0 0.0005 1.46608e-07 
247 1 0.012448 0.0194697 0.0167415 -0.00345743 0.00146008 -0.00271236 -5.48873e-07 1.25917e-06 1.72044e-06 0.0005 1.46608e-07 
248 1 0.0216317 0.0148393 0.0146788 -0.0167213 -0.0179547 -0.0184149 0 0 -1.43822e-06 0.0005 1.46608e-07 
249 1 -0.0120189 -0.00661712 0.0467209 -0.129288 -0.150027 -0.629802 0 0 -1.43822e-06 0.0005 1.46608e-07 
250 1 0.0169233 0.0141676 0.0171162 0.0290913 -0.000838793 -0.032625 1.287e-07 4.10667e-07 -6.53843e-07 0.0005 1.46608e-07 
251 1 0.023792 0.0178368 0.017569 0.00511314 0.0136036 0.00226929 0 0 -1.43822e-06 0.0005 1.46608e-07 
252 1 0.0240689 0.0213605 0.0172243 0.023113 -0.0259565 0.0172243 0 0 -1.43822e-06 0.0005 1.46608e-07 
253 1 0.0225462 0.0220143 0.0165487 -0.0164963 -0.015639 0.0285708 0 0 -1.43822e-06 0.0005 1.46608e-07 
254 1 0.0251254 0.0191026 0.0167478 -0.00289593 0.0068546 0.000282078 -1.86813e-07 2.17019e-08 7.71504e-07 0.0005 1.46608e-07 
256 1 0.0221871 0.0153238 0.0153675 0.0163999 -0.0012292 -0.0183255 0 0 -1.43822e-06 0.0005 1.46608e-07 
257 1 0.0173621 0.0147634 0.0153226 -0.0067157 0.00270724 -0.000622429 -3.00504e-07 -1.33884e-06 1.40146e-06 0.0005 1.46608e-07 
258 1 0.0166601 0.0228872 0.0137453 0.00340334 -0.000314266 -0.00272986 3.38969e-07 -1.73723e-06 2.44863e-06 0.0005 1.46608e-07 
259 1 0.0154767 0.0181468 0.0167126 0.00166416 0.000630335 -0.00140195 -1.81219e-06 5.85392e-07 -2.32259e-07 0.0005 1.46608e-07 