ITEM: TIMESTEP
3000000
ITEM: NUMBER OF ATOMS
251
ITEM: BOX BOUNDS ff ff ff
-0.02 0.43
-0.02 0.06
-0.02 0.07
ITEM: ATOMS id type x y z vx vy vz fx fy fz radius mass 
1 1 0.0188526 0.0160027 0.0157907 0.0414731 -0.0339509 -0.0294226 -3.71132e-07 -1.64939e-07 -1.66644e-08 0.0005 1.46608e-07 
2 1 0.0182922 0.0241045 0.0127448 -0.00136003 9.69405e-05 -0.00131844 3.34701e-07 -1.26241e-07 3.29502e-08 0.0005 1.46608e-07 
3 1 0.0237866 0.0225724 0.0160621 -0.000719359 -0.000556693 0.000699553 5.94611e-06 -1.78095e-05 1.71559e-05 0.0005 1.46608e-07 
4 1 0.0187149 0.0234688 0.0114651 0.00240622 0.000541171 -0.0059702 -3.34225e-07 8.20456e-08 8.32904e-08 0.0005 1.46608e-07 
6 1 0.0169604 0.0223894 0.0164328 -0.00442407 -0.00972285 -0.00710346 0 0 -1.43822e-06 0.0005 1.46608e-07 
7 1 0.0210079 0.0146882 0.0124032 0.00277153 -0.00268722 0.0114843 1.66243e-06 8.05161e-07 7.86558e-06 0.0005 1.46608e-07 
8 1 0.0189299 0.0231001 0.016332 0.0508589 -0.00768893 0.0195949 0 0 -1.43822e-06 0.0005 1.46608e-07 
9 1 0.0208568 0.0240286 0.0129819 -0.000120196 -0.000881029 0.00370497 2.10573e-08 -1.58841e-08 -8.06152e-08 0.0005 1.46608e-07 
10 1 0.0177755 0.023063 0.0149337 0.00700472 0.00795601 -0.00755334 0 0 -1.43822e-06 0.0005 1.46608e-07 
11 1 0.0189956 0.0219546 0.0149051 0.000926497 0.013988 -0.00798043 6.57216e-07 1.10348e-06 7.2021e-06 0.0005 1.46608e-07 
12 1 0.0223359 0.0159659 0.0146959 0.00155239 0.000333137 -7.2565e-05 -4.4051e-08 -2.14416e-07 -1.87536e-07 0.0005 1.46608e-07 
13 1 0.0194723 0.0241046 0.0162459 -0.000959118 0.000846046 0.0039456 7.92574e-07 1.63429e-06 -2.49417e-06 0.0005 1.46608e-07 
14 1 0.0189883 0.0240103 0.0133133 -0.00267282 -7.23252e-05 0.000321395 1.4486e-06 5.60325e-08 -8.76202e-07 0.0005 1.46608e-07 
15 1 0.0244622 0.0222432 0.0157124 -0.000497993 -0.000137974 0.000711298 3.40998e-06 -8.41729e-06 7.64771e-06 0.0005 1.46608e-07 
16 1 0.0214516 0.0150566 0.0099085 0.00119114 -0.00609624 0.0183175 -9.51913e-09 5.16633e-10 1.83957e-08 0.0005 1.46608e-07 
17 1 0.021699 0.0238873 0.0132805 0.000125925 -0.00154914 0.00196906 -4.46259e-07 -8.33949e-08 3.12895e-07 0.0005 1.46608e-07 
18 1 0.0234945 0.0227602 0.00928657 0.000832058 -0.00706638 -0.0126732 4.14021e-06 1.23209e-07 -1.7739e-07 0.0005 1.46608e-07 
19 1 0.0195856 0.0244767 0.0136707 -0.00064282 -2.48031e-05 0.000114332 2.58014e-07 -3.31212e-08 5.93418e-09 0.0005 1.46608e-07 
20 1 0.0402891 0.0167947 0.00659266 9.27572e-16 -8.5499e-15 -2.18651e-14 2.46963e-20 -1.79995e-21 1.48231e-21 0.0005 1.46608e-07 
21 1 0.0258897 0.0179396 0.0218933 -0.0558218 -0.0117346 -0.111853 0 0 -1.43822e-06 0.0005 1.46608e-07 
22 1 0.0153024 0.0204632 0.0157294 0.00377915 0.00671896 -0.00152172 6.31913e-07 -1.00386e-05 -1.79523e-06 0.0005 1.46608e-07 
23 1 0.0173702 0.0240462 0.0129361 -0.000462317 0.000668986 -0.00148227 1.14749e-07 -1.18306e-08 3.15521e-07 0.0005 1.46608e-07 
24 1 0.0183527 0.0138635 0.0163622 0.00519784 0.0165873 -0.0474045 -2.87001e-07 -8.80375e-07 -1.17915e-06 0.0005 1.46608e-07 
25 1 0.0198014 0.0152557 0.0159774 -0.0153858 0.015428 -0.0155128 0 0 -1.43822e-06 0.0005 1.46608e-07 
26 1 0.0205848 0.0154737 0.014141 0.00129307 0.0102684 0.0136489 -1.00756e-08 -3.06352e-07 -2.10184e-07 0.0005 1.46608e-07 
27 1 0.015581 0.0226273 0.0166497 0.00167029 -0.00295793 0.00174682 0 0 -1.43822e-06 0.0005 1.46608e-07 
28 1 0.0192699 0.0144646 0.015632 -0.000902263 0.000731773 -0.00202442 1.59108e-08 -2.44919e-08 5.62431e-08 0.0005 1.46608e-07 
29 1 0.0154804 0.0233848 0.0144568 -0.000480133 0.000456619 -0.000362271 -5.53755e-06 -1.11359e-06 -2.57374e-06 0.0005 1.46608e-07 
30 1 0.0260684 0.0186596 0.0170828 -0.000413985 0.000466826 -0.000466422 -3.40017e-08 1.21504e-07 2.15725e-07 0.0005 1.46608e-07 
31 1 0.0213393 0.0240463 0.017454 0.00735597 -0.0222393 -0.0440774 -1.96764e-07 -3.19671e-07 -8.67596e-07 0.0005 1.46608e-07 
32 1 0.0232947 0.021596 0.00821171 0.00432395 -0.00543941 -0.00659381 -5.65934e-08 -4.90722e-08 2.1446e-10 0.0005 1.46608e-07 
33 1 0.0241689 0.0227203 0.00922741 0.00214555 -0.00408782 -0.00793236 -5.60389e-06 2.23751e-06 -1.76222e-06 0.0005 1.46608e-07 
34 1 0.0212442 0.0205741 0.0156781 0.00914653 0.00415011 -0.000460185 -4.55606e-07 1.27266e-06 -5.27457e-07 0.0005 1.46608e-07 
35 1 0.0296393 0.0184913 0.00583954 2.5161e-14 -2.45724e-16 2.95161e-13 0 -2.44018e-23 0 0.0005 1.46608e-07 
36 1 0.0204496 0.024406 0.0137853 -0.000330934 -0.000237731 0.000724654 -1.69241e-07 1.97842e-08 6.44494e-07 0.0005 1.46608e-07 
37 1 0.0234223 0.0222321 0.00871568 0.000817486 -0.0110188 -0.0118405 5.33776e-07 1.99882e-07 3.93692e-07 0.0005 1.46608e-07 
38 1 0.0203837 0.014499 0.0142717 -0.0142321 0.00571218 -0.0141632 0 0 -1.43822e-06 0.0005 1.46608e-07 
39 1 0.0200878 0.0162114 0.0157969 0.00134896 0.0200068 0.0122924 2.46577e-07 -1.06518e-07 -3.08574e-07 0.0005 1.46608e-07 
40 1 0.0227905 0.023697 0.0151015 0.000453074 0.000381619 -5.25772e-05 4.11548e-06 4.24862e-07 2.12714e-07 0.0005 1.46608e-07 
41 1 0.0181952 0.0237847 0.0134359 -0.00516943 0.00207778 0.00111452 1.8102e-06 -6.33803e-07 6.23074e-07 0.0005 1.46608e-07 
43 1 0.0216475 0.0188992 0.0159424 -0.0109706 0.0349802 0.00509816 -4.93701e-05 -8.63661e-05 -2.9378e-05 0.0005 1.46608e-07 
45 1 0.022072 0.0231405 0.0147853 0.00171984 0.000421472 0.00016679 -2.69461e-06 2.46633e-06 9.5941e-07 0.0005 1.46608e-07 
47 1 0.022933 0.0234758 0.0142388 2.37223e-05 0.00134405 0.000469192 -2.39922e-06 3.87553e-07 -1.58148e-06 0.0005 1.46608e-07 
48 1 0.0223931 0.0150143 0.0133536 0.00059593 0.0095684 0.0173281 -4.65841e-06 3.20394e-06 4.94998e-06 0.0005 1.46608e-07 
50 1 0.0239804 0.0232812 0.0107185 0.00136551 -0.00282743 -0.0185793 -6.68134e-06 3.42346e-06 1.72749e-06 0.0005 1.46608e-07 
51 1 0.0204661 0.016147 0.014873 -0.000272292 0.0145294 0.0122758 5.6279e-08 -1.46172e-07 -3.66697e-07 0.0005 1.46608e-07 
52 1 0.0200764 0.0239776 0.0125719 0.00107822 -0.000794241 -0.00127937 4.29021e-07 1.22586e-06 5.66791e-07 0.0005 1.46608e-07 
53 1 0.0266012 0.0152962 0.013602 4.00514e-05 0.00965626 0.0202843 -1.01167e-09 1.10304e-08 -2.27572e-09 0.0005 1.46608e-07 
54 1 0.0182902 0.0244838 0.0137785 -0.00113516 0.000496711 0.000132135 8.37683e-07 -1.75045e-07 3.27946e-07 0.0005 1.46608e-07 
55 1 0.0155023 0.0227461 0.0152293 0.00178944 0.000742004 -0.000594034 4.43592e-06 1.97363e-06 1.06614e-05 0.0005 1.46608e-07 
56 1 0.018838 0.0140885 0.0172071 0.0152279 0.0440914 -0.0581372 0 0 -1.43822e-06 0.0005 1.46608e-07 
57 1 0.0173007 0.0243682 0.0139394 -0.000148753 -0.000129467 -0.0005292 3.59204e-06 -6.02732e-07 2.1273e-06 0.0005 1.46608e-07 
58 1 0.0191779 0.0239515 0.0124493 -0.00103789 -0.000163526 0.000674326 6.04367e-07 3.88794e-07 -6.28538e-07 0.0005 1.46608e-07 
59 1 0.0227066 0.0199681 0.0166751 0.0256851 0.0315433 -0.00254705 -1.77735e-07 -1.14598e-07 -1.70131e-06 0.0005 1.46608e-07 
61 1 0.0188853 0.0245941 0.0174926 0.00153677 0.000406059 0.000644187 3.7982e-06 4.06751e-06 8.82366e-06 0.0005 1.46608e-07 
62 1 0.0213043 0.0243536 0.0140178 -0.000242628 -0.000626148 0.0013263 -4.89195e-07 2.71504e-08 1.20435e-07 0.0005 1.46608e-07 
63 1 0.0221431 0.0239254 0.0141888 0.000226085 9.35961e-05 0.0010268 -1.0011e-07 -7.71534e-07 -3.11278e-06 0.0005 1.46608e-07 
64 1 0.0184885 0.0125999 0.0204075 -0.100352 -0.0702047 -0.162332 0 0 -1.43822e-06 0.0005 1.46608e-07 
65 1 0.0221553 0.0150442 0.0150515 -0.00911021 0.00917891 0.00460604 0 0 -1.43822e-06 0.0005 1.46608e-07 
66 1 0.013713 0.0189376 0.0159665 0.00485865 -0.000449441 0.00380801 -4.25551e-08 -4.7237e-06 1.84771e-06 0.0005 1.46608e-07 
68 1 0.0213085 0.0236043 0.0139557 -0.000245925 -0.00246774 0.0049209 -3.53759e-09 -2.66941e-07 1.0054e-06 0.0005 1.46608e-07 
69 1 0.0150602 0.0189382 0.0167483 0.00519799 -0.00318402 0.00199183 0 0 -1.43822e-06 0.0005 1.46608e-07 
70 1 0.0211814 0.022883 0.0150437 0.0016104 0.000740923 -0.00238068 -7.17205e-06 6.71686e-06 -1.48082e-05 0.0005 1.46608e-07 
71 1 0.0185646 0.0143409 0.0138236 -0.0249778 0.00418696 0.0150887 1.86986e-06 -1.10105e-05 4.04722e-05 0.0005 1.46608e-07 
72 1 0.0137531 0.0161775 0.0159441 -0.00717837 0.00471916 0.000283242 -2.78235e-07 -5.11008e-08 -2.51829e-07 0.0005 1.46608e-07 
73 1 0.0248938 0.0221037 0.0164572 0.000987959 -0.00032386 0.000839131 -4.09679e-06 1.95965e-06 1.75115e-06 0.0005 1.46608e-07 
75 1 0.0261031 0.0196095 0.017257 -0.000101762 0.000346436 -1.53127e-05 -2.68767e-08 5.02062e-08 1.31779e-08 0.0005 1.46608e-07 
76 1 0.0198753 0.018209 0.0158622 -0.00080501 0.0141164 0.00160121 -1.797e-06 2.85916e-06 7.8553e-06 0.0005 1.46608e-07 
78 1 0.0170166 0.0225452 0.0154185 0.00846004 -0.0118392 0.000919907 -1.31994e-05 -7.70817e-06 -9.33386e-06 0.0005 1.46608e-07 
79 1 0.0273374 0.0149029 0.0104261 0.000643426 -0.0043267 0.013296 2.69234e-09 8.35704e-09 -1.45784e-08 0.0005 1.46608e-07 
80 1 0.0163707 0.0230751 0.0148635 0.00107459 0.00173009 0.00451092 -2.87307e-06 -2.01457e-06 1.68749e-06 0.0005 1.46608e-07 
82 1 0.018381 0.02364 0.0156233 0.0170637 -0.00627248 0.0192221 0 0 -1.43822e-06 0.0005 1.46608e-07 
83 1 -0.00254883 0.0118295 0.0505843 -0.164177 -0.0945745 -0.229223 0 0 -1.43822e-06 0.0005 1.46608e-07 
84 1 0.0149758 0.026372 0.0245143 -0.00831625 0.00756271 -0.044032 0 0 -1.43822e-06 0.0005 1.46608e-07 
85 1 0.0166005 0.0238429 0.0135453 0.000587088 -0.00192694 0.00134476 1.68108e-06 6.35371e-07 -3.67048e-07 0.0005 1.46608e-07 
86 1 0.0201909 0.0238595 0.0155956 -0.00120821 0.00169741 0.00150475 6.193e-06 3.90358e-07 -3.90977e-06 0.0005 1.46608e-07 
87 1 0.0217731 0.0156248 0.00886912 0.000729872 -0.0131398 0.0195187 -3.45786e-08 2.01185e-07 -5.0793e-07 0.0005 1.46608e-07 
88 1 0.014639 0.0229194 0.0147277 -0.00144565 0.00297166 -0.00196731 1.67282e-06 1.39067e-06 -3.09989e-06 0.0005 1.46608e-07 
89 1 0.0146463 0.0185515 0.0159213 0.00551999 -0.00110972 -0.00289824 1.6398e-07 9.90456e-08 -9.72596e-07 0.0005 1.46608e-07 
90 1 0.0210942 0.0169843 0.015452 0.00029901 0.0124601 0.00642528 -2.07529e-08 5.54986e-08 -2.53148e-09 0.0005 1.46608e-07 
91 1 0.0197747 0.0223261 0.0145413 0.0014643 0.00890131 -0.00789714 -6.68393e-06 5.05199e-06 3.98923e-07 0.0005 1.46608e-07 
92 1 0.0159986 0.0156161 0.0143377 0.000493814 -0.00367703 -0.00875735 -7.152e-08 -1.11145e-06 -4.08409e-06 0.0005 1.46608e-07 
93 1 0.018789 0.0225684 0.0141646 0.00131612 0.00899998 -0.0124155 9.10203e-07 -1.45395e-06 2.07086e-06 0.0005 1.46608e-07 
95 1 0.0201373 0.0232062 0.0148419 0.00096642 0.0067149 -0.00108718 -1.80593e-06 5.19583e-06 -1.98859e-06 0.0005 1.46608e-07 
97 1 0.0270013 0.0147912 0.0120502 0.000787306 0.00318126 0.0186307 -3.43046e-09 1.372e-08 1.05732e-08 0.0005 1.46608e-07 
98 1 0.0156159 0.0178717 0.0158008 -5.853e-06 -0.00353989 -0.000201046 1.1799e-06 -1.66902e-06 -1.86037e-06 0.0005 1.46608e-07 
100 1 0.011626 0.0329355 0.0443429 0.0156903 -0.0211336 0.0273927 0 0 -1.43822e-06 0.0005 1.46608e-07 
101 1 0.0190097 0.0241745 0.0143535 -0.000827192 0.0013737 -0.000647066 3.2033e-07 -4.86947e-07 2.14519e-06 0.0005 1.46608e-07 
102 1 0.0195585 0.0142471 0.0137181 -0.00746392 -0.00869043 -0.0152086 -9.5835e-08 -9.40205e-08 -1.23875e-06 0.0005 1.46608e-07 
103 1 0.0127938 0.0210476 0.0166573 0.000729253 0.00109085 -0.000647278 -2.26581e-07 7.59883e-07 -8.24296e-07 0.0005 1.46608e-07 
104 1 0.0156549 0.01886 0.0159475 0.00516325 -0.00320114 0.00236808 3.9705e-07 -9.21372e-07 -8.99617e-07 0.0005 1.46608e-07 
105 1 0.0162643 0.0240012 0.0144985 -0.00105871 0.000124841 -6.82885e-05 4.31597e-06 -5.70683e-06 2.58761e-06 0.0005 1.46608e-07 
106 1 0.0220462 0.022958 0.0157712 -0.00526956 0.00647706 0.00592427 0 0 -1.43822e-06 0.0005 1.46608e-07 
108 1 0.0252077 0.0206369 0.0155835 0.00308161 0.0095507 -0.0043529 5.59352e-09 -1.94749e-07 -4.69628e-08 0.0005 1.46608e-07 
109 1 0.0184995 0.0231052 0.0130773 0.000842634 0.00843235 -0.0190809 2.35159e-10 -6.12939e-07 6.23039e-07 0.0005 1.46608e-07 
110 1 0.0200043 0.0190801 0.0163386 0.0354281 0.00825343 0.00223065 0 0 -1.43822e-06 0.0005 1.46608e-07 
111 1 0.0219723 0.0148614 0.010566 -4.94797e-05 -0.00493616 0.0207438 -4.9236e-10 7.09762e-09 8.56058e-09 0.0005 1.46608e-07 
112 1 0.0204673 0.0139194 0.0134599 -0.00263848 0.00386848 -0.0137392 8.37065e-08 -2.65329e-08 -1.40971e-06 0.0005 1.46608e-07 
113 1 0.0210528 0.0214828 0.0152173 0.00250458 0.00906359 -0.00550868 -5.85356e-07 -8.59028e-07 1.44645e-07 0.0005 1.46608e-07 
114 1 0.0200985 0.0172466 0.0155625 0.000640442 0.0184332 0.00828349 -1.7343e-08 9.02805e-08 2.33692e-08 0.0005 1.46608e-07 
115 1 0.013981 0.0198934 0.0158698 0.00383994 -0.000191497 0.00317989 -3.32006e-06 -8.07087e-06 8.13982e-08 0.0005 1.46608e-07 
116 1 0.0170487 0.0235619 0.0154176 0.00551554 -0.00129801 -0.00127694 -1.44428e-06 9.88863e-07 -3.47256e-07 0.0005 1.46608e-07 
117 1 0.0248662 0.0189865 0.0167863 0.000104851 0.0250932 0.000228576 -1.91745e-07 -3.11538e-07 -3.36833e-08 0.0005 1.46608e-07 
118 1 0.0233175 0.0149227 0.0147509 0.00363211 0.00222345 0.00234253 -4.63594e-07 -2.28455e-07 -3.98024e-07 0.0005 1.46608e-07 
119 1 0.0231714 0.0231184 0.0156329 0.000307874 -0.000171543 -0.000157902 -2.40132e-06 -4.88749e-06 1.86057e-06 0.0005 1.46608e-07 
120 1 0.0146857 0.0151826 0.0145253 0.00175927 0.000355008 -0.0060275 -1.28786e-06 -1.66616e-06 -5.376e-07 0.0005 1.46608e-07 
121 1 0.0203687 0.0234017 0.0138903 0.00085539 0.00102297 -0.000339608 -2.46174e-07 8.70748e-06 5.63744e-06 0.0005 1.46608e-07 
122 1 0.021771 0.0235233 0.0166004 0.0083995 -0.00500549 -0.00417329 -3.93623e-07 -2.43056e-07 -1.19104e-06 0.0005 1.46608e-07 
123 1 0.0231659 0.0156235 0.0154647 -0.000763212 0.00567394 0.00318953 3.92454e-08 -2.07276e-07 -1.88674e-07 0.0005 1.46608e-07 
124 1 0.0227887 0.02269 0.0139335 -3.49727e-05 0.0108311 -0.0166812 -2.86281e-07 1.37958e-07 -3.26014e-07 0.0005 1.46608e-07 
125 1 0.0257715 0.0185551 0.01591 0.00186295 0.00381383 -0.00056706 -5.73878e-09 7.81075e-09 -4.0339e-09 0.0005 1.46608e-07 
126 1 0.0171024 0.0234954 0.0143307 0.00151594 -0.00157738 0.00430627 1.1492e-05 3.56857e-06 1.53673e-06 0.0005 1.46608e-07 
127 1 0.0257497 0.0193116 0.0164414 -0.000477414 0.00164376 -0.000155783 -4.64802e-08 6.33842e-09 -1.67952e-08 0.0005 1.46608e-07 
128 1 0.0216291 0.0145531 0.0137879 5.19025e-05 0.0082304 0.00831712 -7.143e-07 -4.80267e-07 5.35123e-06 0.0005 1.46608e-07 
129 1 0.0181984 0.0141851 0.0147416 0.00694528 -0.0211472 -0.049776 0 0 -1.43822e-06 0.0005 1.46608e-07 
131 1 0.0209614 0.0238016 0.0149231 0.000583108 0.000171133 0.000308434 -5.79242e-06 1.84406e-06 -1.48984e-06 0.0005 1.46608e-07 
132 1 0.0157175 0.0219874 0.0158441 0.0018329 -0.000144253 0.00438538 -5.42364e-07 3.99828e-06 -2.48113e-06 0.0005 1.46608e-07 
133 1 0.0176398 0.0239462 0.0163256 0.00055645 -3.86336e-05 -7.8096e-06 1.75246e-07 3.16016e-06 1.83992e-06 0.0005 1.46608e-07 
135 1 0.0133641 0.00965901 0.0313026 -0.119425 -0.193503 0.0488386 0 0 -1.43822e-06 0.0005 1.46608e-07 
136 1 0.0142294 0.0208254 0.0165867 0.00319524 0.00125926 -0.00128005 -3.03507e-06 1.11948e-06 2.24715e-06 0.0005 1.46608e-07 
138 1 0.0202769 0.0209332 0.0155266 -0.000875286 0.0140891 -0.0066932 -3.0387e-07 -7.85824e-07 4.18199e-08 0.0005 1.46608e-07 
139 1 0.0186007 0.0233348 0.0107432 0.004642 -0.00178811 -0.00894807 6.52877e-07 -7.91658e-08 -1.21579e-07 0.0005 1.46608e-07 
140 1 0.0254039 0.0199235 0.015785 0.00487769 0.00886857 -0.00457125 1.27086e-08 4.62008e-07 -3.09039e-07 0.0005 1.46608e-07 
141 1 0.0165396 0.019481 0.0167164 1.81766e-09 0.0245292 -0.00216073 6.06011e-15 -1.58987e-09 -1.6711e-08 0.0005 1.46608e-07 
142 1 0.0207252 0.0221961 0.014598 0.000733762 0.00824591 -0.0099726 -2.15502e-06 5.68525e-06 -8.68791e-06 0.0005 1.46608e-07 
143 1 0.0257066 0.0202911 0.016358 -0.000218219 0.000938932 0.00105452 2.47912e-08 -6.59544e-08 1.0789e-08 0.0005 1.46608e-07 
144 1 0.0251594 0.0216076 0.0158193 0.00138449 0.000748746 0.00262882 6.01788e-07 -1.38457e-06 4.28726e-07 0.0005 1.46608e-07 
145 1 0.0175722 0.0225037 0.00923628 0.000170434 -0.0115938 -0.0182824 -2.27324e-09 -1.07215e-08 2.09365e-09 0.0005 1.46608e-07 
147 1 0.0220563 0.0167492 0.0078489 0.000456677 -0.0172138 0.0108013 -1.48238e-09 -1.94617e-09 1.36886e-08 0.0005 1.46608e-07 
148 1 0.0236067 0.0210451 0.00788675 -0.00133436 -0.0192978 -0.0105887 -4.08584e-09 1.61023e-08 -4.69257e-09 0.0005 1.46608e-07 
149 1 0.0258785 0.0206009 0.0170642 0.00011819 9.41826e-05 0.000322648 2.04556e-08 -1.94482e-07 2.40566e-08 0.0005 1.46608e-07 
150 1 0.0207278 0.0182324 0.0169103 0.0563332 -0.033257 -0.00734565 0 0 -1.43822e-06 0.0005 1.46608e-07 
151 1 0.0199251 0.0232232 0.0130367 0.00333096 0.00187441 -0.00357568 4.56683e-06 5.28179e-06 5.1045e-06 0.0005 1.46608e-07 
152 1 0.0153026 0.016363 0.0150553 0.00148406 0.0160155 0.0163752 0 0 -1.43822e-06 0.0005 1.46608e-07 
153 1 0.014903 0.0195174 0.0159484 0.00516265 -0.0012636 0.00250587 -1.42697e-06 -3.19159e-06 -2.95301e-06 0.0005 1.46608e-07 
154 1 0.0238983 0.030028 0.0332923 -0.0268796 -0.099613 -0.212119 -1.15081e-07 -3.54852e-07 -7.68044e-07 0.0005 1.46608e-07 
155 1 0.0184765 0.0224943 0.0156104 0.0147735 0.00753655 0.00127168 0 0 -1.43822e-06 0.0005 1.46608e-07 
156 1 0.0225249 0.0145814 0.0142454 -0.0024501 0.000758051 0.0121676 0 0 -1.43822e-06 0.0005 1.46608e-07 
157 1 0.0180175 0.0239743 0.0145985 -0.00733563 0.0100446 -0.0188753 0 0 -1.43822e-06 0.0005 1.46608e-07 
158 1 0.0170486 0.0149355 0.0154029 0.00911288 0.00152685 -0.00626914 0 0 -1.43822e-06 0.0005 1.46608e-07 
161 1 0.021621 0.0154852 0.0141587 -0.00256172 0.00460747 0.00486409 1.434e-07 -5.10018e-07 -1.35178e-07 0.0005 1.46608e-07 
162 1 0.0130048 0.0167851 0.0162488 -0.0010333 0.013044 0.00659465 7.67586e-09 1.34765e-07 5.81472e-08 0.0005 1.46608e-07 
163 1 0.0133445 0.0207284 0.0158861 0.00408911 0.00336243 0.00173358 -2.40834e-06 -1.08205e-06 1.24515e-06 0.0005 1.46608e-07 
164 1 0.0204643 0.023839 0.0165611 0.0215175 -0.00600919 -0.0132115 0 0 -1.43822e-06 0.0005 1.46608e-07 
166 1 0.0141208 0.0153118 0.0153402 0.000825523 -0.000207453 -0.0067028 -2.91462e-07 9.91708e-07 1.65342e-07 0.0005 1.46608e-07 
167 1 0.0166867 0.023646 0.0163518 0.00107811 0.000258202 0.00142466 6.51581e-06 1.01484e-07 6.81915e-06 0.0005 1.46608e-07 
168 1 0.013982 0.0221697 0.0146687 0.000270907 0.00199672 -0.00194753 -1.32007e-06 -2.09042e-06 5.31054e-06 0.0005 1.46608e-07 
169 1 0.0160603 0.0145677 0.0137293 0.00375511 -0.00109578 -0.00710637 0 0 -1.43822e-06 0.0005 1.46608e-07 
170 1 0.0178969 0.0232487 0.0107448 0.00237768 -0.00408334 -0.0144029 3.39732e-08 9.38911e-09 7.28282e-08 0.0005 1.46608e-07 
171 1 0.013957 0.0178392 0.01579 0.00590789 -0.00183349 -0.00419805 2.02763e-07 4.53959e-07 -1.36225e-06 0.0005 1.46608e-07 
172 1 0.0213283 0.0130489 0.0201558 -0.0398338 0.0256846 -0.058982 0 0 -1.43822e-06 0.0005 1.46608e-07 
173 1 0.0179453 0.0155314 0.0153874 9.64002e-05 0.0132814 0.0126349 -1.00847e-06 -3.11593e-07 -6.0867e-07 0.0005 1.46608e-07 
174 1 0.0227298 0.022224 0.0156766 -0.00168458 -0.000110638 0.000177912 -1.83186e-06 -6.16772e-06 6.0815e-06 0.0005 1.46608e-07 
176 1 0.0207944 0.0148839 0.0133577 0.00209704 0.012391 0.00814351 -5.96152e-06 -4.49151e-06 1.40875e-05 0.0005 1.46608e-07 
177 1 0.0185579 0.0241831 0.0166421 -0.000344549 0.0012913 0.00388504 -1.2995e-06 9.5187e-07 3.34644e-06 0.0005 1.46608e-07 
178 1 0.0225515 0.0253165 0.0216876 -0.106611 -0.147979 -0.413567 0 0 -1.43822e-06 0.0005 1.46608e-07 
179 1 0.0155369 0.0150736 0.0150394 0.0043369 -0.0140713 -0.0127285 -4.12516e-07 -3.44464e-07 2.68409e-07 0.0005 1.46608e-07 
180 1 0.0237254 0.0168453 0.0162828 6.09944e-08 0.022567 0.0102635 -5.29378e-15 7.76858e-09 -1.70985e-08 0.0005 1.46608e-07 
181 1 0.0197548 0.0127114 0.0539335 0.0134289 -0.172079 0.514432 0 0 -1.43822e-06 0.0005 1.46608e-07 
182 1 0.0155023 0.015998 0.0164712 -0.0174761 0.046201 0.00520613 0 0 -1.43822e-06 0.0005 1.46608e-07 
183 1 0.0177582 0.0242999 0.0172533 0.00347907 -0.00154418 -0.00273709 -3.13413e-06 4.50548e-07 6.14963e-06 0.0005 1.46608e-07 
184 1 0.0156456 0.021144 0.0163763 -0.00160217 0.00273546 0.00584113 1.15626e-06 1.4432e-06 6.48614e-07 0.0005 1.46608e-07 
185 1 0.0249545 0.0213598 0.0155773 0.000183532 0.00932722 -0.00790496 1.58504e-07 -2.89737e-07 1.09186e-07 0.0005 1.46608e-07 
187 1 0.0249356 0.0217916 0.0147101 0.00161429 0.0142035 -0.0139914 7.93304e-08 -4.34535e-08 -3.5378e-07 0.0005 1.46608e-07 
188 1 0.0217383 0.00922175 0.0285237 -0.00131966 0.0167707 -0.034759 -2.05576e-07 3.14182e-07 -8.15708e-07 0.0005 1.46608e-07 
189 1 0.0148564 0.0225511 0.0159648 -0.000196268 0.000344045 -0.00098722 1.14662e-06 9.92678e-07 -4.72239e-06 0.0005 1.46608e-07 
190 1 0.0262362 0.016467 0.0149419 0.000665038 0.0154458 0.0107897 -2.63349e-09 1.85091e-08 -2.11777e-09 0.0005 1.46608e-07 
192 1 0.0165607 0.0154396 0.0161374 -0.0047511 -0.00451187 -0.0111245 0 0 -1.43822e-06 0.0005 1.46608e-07 
193 1 0.0138368 0.0190499 0.0173065 0.0117749 -0.00293261 -0.0468155 0 0 -1.43822e-06 0.0005 1.46608e-07 
195 1 0.0142729 0.0165524 0.0151766 0.000627156 0.0165653 0.0113573 -1.75824e-08 8.18677e-08 4.04316e-08 0.0005 1.46608e-07 
196 1 0.0180589 0.0233336 0.0113812 0.000339829 -0.00186204 -0.0157871 -2.15439e-08 -2.01311e-09 -7.98971e-09 0.0005 1.46608e-07 
197 1 0.016411 0.0205183 0.016542 0.0130827 0.0122197 -0.0036836 -6.98161e-07 1.00767e-06 -2.93657e-07 0.0005 1.46608e-07 
200 1 0.0245535 0.0222051 0.0149186 0.000452724 0.00155836 -0.000416958 4.82341e-07 -1.43954e-06 2.05155e-06 0.0005 1.46608e-07 
201 1 0.021903 0.0176626 0.0157296 0.000485254 0.0146758 0.00424115 -5.05364e-08 1.68214e-07 6.23921e-08 0.0005 1.46608e-07 
202 1 0.0152585 0.0148614 0.0109002 -8.91571e-05 -0.00449397 0.0220538 4.89798e-10 1.2507e-08 -6.23648e-09 0.0005 1.46608e-07 
203 1 0.0211783 0.0147538 0.0114224 0.000611085 -0.00138508 0.0125736 6.83588e-09 -1.68918e-08 7.52495e-08 0.0005 1.46608e-07 
204 1 0.0257392 0.0209863 0.0153532 0.00151946 0.0114089 -0.00705205 9.95902e-08 -2.33122e-07 1.40665e-07 0.0005 1.46608e-07 
205 1 0.0156134 0.017339 0.0166512 -0.0174307 -0.0187401 -0.0155655 0 0 -1.43822e-06 0.0005 1.46608e-07 
206 1 0.0148426 0.0220096 0.0169338 0.00186773 0.00105077 -0.000726421 -6.72347e-08 2.15552e-08 -1.29072e-06 0.0005 1.46608e-07 
209 1 0.0230183 0.02066 0.0076989 -0.000638897 -0.0197978 -0.0115636 3.58989e-09 -7.72415e-09 4.98762e-09 0.0005 1.46608e-07 
211 1 0.0227879 0.0174598 0.0164969 -7.1766e-11 0.0235739 0.0073023 -3.86041e-13 4.83426e-09 -1.61217e-08 0.0005 1.46608e-07 
212 1 0.0216739 0.0259747 0.0335202 0.118768 0.233913 0.600924 0 0 -1.43822e-06 0.0005 1.46608e-07 
215 1 0.0175545 0.0153512 0.0162899 0.00290509 0.00443657 0.0110131 -1.63951e-06 -9.4791e-07 4.64274e-06 0.0005 1.46608e-07 
216 1 0.0195194 0.0107841 0.0242647 -0.0369313 0.0193479 -0.0507954 0 0 -1.43822e-06 0.0005 1.46608e-07 
217 1 0.0159878 0.0104453 0.0269462 -0.00636452 0.0777691 -0.193706 0 0 -1.43822e-06 0.0005 1.46608e-07 
218 1 0.0254673 0.0214062 0.0167762 0.00022533 -1.43285e-05 0.000391668 4.22054e-07 7.41542e-07 3.17168e-07 0.0005 1.46608e-07 
219 1 0.0176758 0.0219085 0.0159241 -0.00476667 0.00370984 -0.00429236 0 0 -1.43822e-06 0.0005 1.46608e-07 
220 1 0.0137339 0.0211376 0.0173974 -0.000751772 -0.00124319 -0.00118174 1.27551e-06 -3.56588e-07 -8.53068e-07 0.0005 1.46608e-07 
221 1 0.0213251 0.0150759 0.0157148 -0.0359697 0.0628757 0.00192882 0 0 -1.43822e-06 0.0005 1.46608e-07 
222 1 0.013927 0.0223774 0.0156469 0.000960649 0.000979855 -0.00159038 -4.59121e-06 -1.46809e-06 -6.94964e-07 0.0005 1.46608e-07 
223 1 0.0184297 0.0229879 0.0100393 0.00150584 -0.00392623 -0.0114364 -1.20296e-07 2.15572e-07 3.2871e-07 0.0005 1.46608e-07 
224 1 0.0201385 0.0229003 0.0161106 0.0420747 -0.00224125 -0.0414423 0 0 -1.43822e-06 0.0005 1.46608e-07 
225 1 0.0174029 0.0147305 0.0144757 0.00300848 -0.0114859 -0.0163426 -6.82009e-08 -3.67467e-07 -4.46734e-07 0.0005 1.46608e-07 
226 1 0.0178871 0.0232394 0.0170551 -0.0284821 -0.0190234 -0.028931 0 0 -1.43822e-06 0.0005 1.46608e-07 
229 1 0.0147824 0.0215603 0.0160424 0.000397643 0.000421134 -0.0010039 8.8162e-06 -4.50025e-06 -7.212e-06 0.0005 1.46608e-07 
231 1 0.0237837 0.0230821 0.00994169 0.000775702 -0.00591414 -0.0162448 3.51424e-06 7.86515e-06 -5.08552e-06 0.0005 1.46608e-07 
232 1 0.0189587 0.014974 0.0148298 -0.00316354 -0.0027516 -0.00336227 2.5352e-08 6.18247e-08 1.16495e-07 0.0005 1.46608e-07 
233 1 0.01728 0.014398 0.0164203 0.00303997 0.000742369 -0.00453347 0 0 -1.43822e-06 0.0005 1.46608e-07 
234 1 0.0192331 0.0233691 0.0119159 0.00516431 0.00297988 -0.00472122 -1.27049e-07 -5.28138e-08 5.8036e-07 0.0005 1.46608e-07 
235 1 0.0124273 0.0199018 0.0167061 -3.78827e-09 0.0245173 -0.00395136 -7.02644e-15 -2.65234e-09 -1.67339e-08 0.0005 1.46608e-07 
236 1 0.0221334 0.0193879 0.0172546 0.0947582 -0.0528248 0.00678697 0 0 -1.43822e-06 0.0005 1.46608e-07 
237 1 0.0166179 0.0171832 0.0163889 0.0214339 0.034694 0.0137384 0 0 -1.43822e-06 0.0005 1.46608e-07 
238 1 0.0198652 0.0245126 0.0170736 0.00144831 -0.00334305 -0.00790588 -4.60035e-09 -3.70377e-07 -8.36195e-07 0.0005 1.46608e-07 
239 1 0.0176863 0.0229959 0.0160082 0.0108807 -0.00789196 -0.00202499 1.31994e-05 7.70817e-06 6.45742e-06 0.0005 1.46608e-07 
240 1 0.022007 0.0181776 0.0165838 -0.000364633 0.00274277 -0.00293019 -4.01409e-07 2.96379e-07 -7.00948e-07 0.0005 1.46608e-07 
241 1 0.0221166 0.0167394 0.0152958 0.00123547 0.002875 0.000894837 -3.47102e-08 -4.60746e-08 -1.45311e-08 0.0005 1.46608e-07 
242 1 0.0195697 0.02287 0.0137864 0.00103079 0.00608557 -0.00713678 1.80531e-06 6.02468e-06 3.23372e-06 0.0005 1.46608e-07 
243 1 0.0171793 0.0162104 0.0159136 0.00113035 0.00584231 0.00379944 -5.23633e-08 6.14176e-08 1.06459e-07 0.0005 1.46608e-07 
244 1 0.0139603 0.0169137 0.0176507 0.00253545 0.0323494 -0.22667 0 0 -1.43822e-06 0.0005 1.46608e-07 
245 1 0.0163097 0.0158508 0.0152585 -0.00178752 -0.0031775 -0.0129805 7.78662e-07 -1.70614e-06 8.60788e-06 0.0005 1.46608e-07 
246 1 0.0176693 0.0376552 0.0435188 -4.28732e-142 -9.5793e-142 -2.35252e-12 -1.48668e-144 -3.3204e-144 0 0.0005 1.46608e-07 
247 1 0.0136998 0.0214645 0.0153158 0.00213287 0.00123696 -0.00169478 -1.39841e-06 -3.04653e-06 8.62059e-06 0.0005 1.46608e-07 
248 1 0.0213979 0.0158454 0.0150751 -0.000265358 0.0126785 0.0100059 8.87023e-08 -4.68871e-08 -1.34286e-06 0.0005 1.46608e-07 
250 1 0.0206954 -0.00461911 0.0582489 0.046501 -0.256756 0.18214 0 0 -1.43822e-06 0.0005 1.46608e-07 
251 1 0.0152966 0.0166008 0.0264826 -0.0804172 0.101495 -0.0656271 0 0 -1.43822e-06 0.0005 1.46608e-07 
253 1 0.0192932 0.023672 0.0151931 0.0246992 0.0116279 0.00941667 0 0 -1.43822e-06 0.0005 1.46608e-07 
256 1 0.0212243 0.0147624 0.0147545 -0.0172496 -0.0060233 0.00488125 0 0 -1.43822e-06 0.0005 1.46608e-07 
257 1 0.0176639 0.016973 0.0163431 0.00406937 0.00359722 0.00311824 0 0 -1.43822e-06 0.0005 1.46608e-07 
258 1 0.0194524 0.0233836 0.0110046 0.00324147 0.00345133 0.000784227 1.09269e-07 7.7863e-08 5.8685e-07 0.0005 1.46608e-07 
259 1 0.0113045 0.0192159 0.0243352 -0.12596 -0.0406175 -0.0891353 0 0 -1.43822e-06 0.0005 1.46608e-07 
260 1 0.0226533 0.0162791 0.0166886 -0.0558023 0.0248516 -0.136976 0 0 -1.43822e-06 0.0005 1.46608e-07 
261 1 0.0145277 0.0174805 0.0165288 0.0140344 -0.00861874 -0.0112112 0 0 -1.43822e-06 0.0005 1.46608e-07 
263 1 0.0187507 0.0233978 0.0140711 -0.000501532 0.00501412 -0.00387441 1.84202e-06 -1.20921e-06 4.33101e-06 0.0005 1.46608e-07 
264 1 0.0241019 0.0183024 0.016707 -2.92281e-09 0.0244963 0.00360537 -1.27397e-14 2.5296e-09 -1.66984e-08 0.0005 1.46608e-07 
265 1 0.0192781 0.0209773 0.0155072 -0.00168749 0.0197636 -0.00962987 2.84482e-07 -5.20535e-07 5.8601e-07 0.0005 1.46608e-07 
266 1 0.0211069 0.0234691 0.0158548 0.00297968 -0.000750817 -0.000282991 1.43689e-06 2.69788e-07 5.41126e-07 0.0005 1.46608e-07 
268 1 0.0202991 0.0149914 0.0151409 -0.000636979 0.0236959 -0.0267139 0 0 -1.43822e-06 0.0005 1.46608e-07 
269 1 0.0180683 0.0145595 0.0156664 0.00200024 0.0123693 -0.0622892 0 0 -1.43822e-06 0.0005 1.46608e-07 
272 1 0.0189312 0.0140087 0.0129552 -0.00485893 0.00508108 0.0126007 -1.08414e-05 -1.33319e-05 2.76465e-05 0.0005 1.46608e-07 
273 1 0.0177753 0.014082 0.0132334 0.000538178 0.000233249 -0.00100403 -7.55417e-09 1.06814e-07 -2.60382e-07 0.0005 1.46608e-07 
274 1 0.0238293 0.00866265 0.032178 -0.045655 -0.0233989 0.0397416 0 0 -1.43822e-06 0.0005 1.46608e-07 
275 1 0.0208249 0.0179013 0.0158024 0.00258729 0.0172127 0.0053054 -7.36252e-07 4.55228e-07 1.81146e-07 0.0005 1.46608e-07 
276 1 0.0259628 0.0177052 0.0171559 -9.58346e-05 4.75596e-05 -0.000167269 1.43096e-09 9.30645e-08 8.7146e-08 0.0005 1.46608e-07 
277 1 0.0194347 0.0227033 0.0154065 0.00217033 -0.000358409 -0.00192397 0 0 -1.43822e-06 0.0005 1.46608e-07 
278 1 0.0165665 0.0240256 0.0172827 -0.000600366 -0.00394196 -0.0115886 1.08248e-07 -3.07131e-07 -1.01601e-06 0.0005 1.46608e-07 
279 1 0.0182925 0.0233669 0.012226 0.00129116 0.00267399 -0.0123744 9.32167e-08 -1.05053e-07 6.09439e-08 0.0005 1.46608e-07 
280 1 0.0133997 0.0217265 0.0162328 0.00240961 -0.00143072 -0.00231165 -3.5529e-06 4.35846e-06 7.46951e-06 0.0005 1.46608e-07 
281 1 0.0152672 0.0151772 0.0137119 0.00265831 -0.00220668 -0.00340826 1.47637e-06 3.7285e-08 -2.53802e-06 0.0005 1.46608e-07 
282 1 0.0162144 0.0228793 0.0159181 0.00224121 0.00128317 0.00225734 -1.4508e-05 3.08102e-06 8.74485e-07 0.0005 1.46608e-07 
284 1 0.0204235 0.0195513 0.0185732 0.0525463 -0.0982507 0.0849869 0 0 -1.43822e-06 0.0005 1.46608e-07 
285 1 0.0172794 0.0138682 0.0172704 0.00653729 -0.00575777 -0.000725439 0 0 -1.43822e-06 0.0005 1.46608e-07 
286 1 0.014836 0.0172818 0.0155785 -6.78777e-07 0.0187882 0.00825601 1.92654e-09 6.66184e-09 -1.20492e-08 0.0005 1.46608e-07 
287 1 0.0118676 0.0187528 0.0224737 0.0567351 0.00230319 -0.0885718 0 0 -1.43822e-06 0.0005 1.46608e-07 
289 1 0.0159748 0.01673 0.015768 0.016257 0.0347856 -0.0145058 0 0 -1.43822e-06 0.0005 1.46608e-07 
290 1 0.02176 0.0139349 0.0145516 -0.00231178 0.000220927 0.000255293 -1.25133e-07 1.27395e-06 1.81092e-06 0.0005 1.46608e-07 
292 1 0.0150014 0.0156418 0.0156813 0.00337986 -0.00793322 0.0090345 0 0 -1.43822e-06 0.0005 1.46608e-07 