ITEM: TIMESTEP
1600000
ITEM: NUMBER OF ATOMS
298
ITEM: BOX BOUNDS ff ff ff
-0.02 0.43
-0.02 0.06
-0.02 0.07
ITEM: ATOMS id type x y z vx vy vz fx fy fz radius mass 
1 1 0.0207835 0.0238474 0.0148149 0.000863984 -0.000293998 -0.000561576 -8.45013e-06 1.78756e-06 -8.63819e-06 0.0005 1.46608e-07 
2 1 0.017894 0.0236031 0.0135255 0.00126916 0.00610885 -0.000637609 0.000177164 0.000155814 0.000211581 0.0005 1.46608e-07 
3 1 0.024325 0.0224974 0.0160577 0.288057 0.144747 -0.0665284 -0.000331495 -5.60172e-05 4.13928e-05 0.0005 1.46608e-07 
4 1 0.014439 0.0216122 0.0160796 0.000503813 0.00471601 0.00155012 1.89186e-07 -2.46774e-06 -4.63276e-07 0.0005 1.46608e-07 
5 1 0.0228787 0.0147041 0.0144203 0.00712803 0.00417289 0.00815651 -8.62231e-07 7.69658e-08 3.96088e-07 0.0005 1.46608e-07 
6 1 0.0182183 0.0204762 0.01729 -0.022153 0.00733087 0.172897 0 0 -1.43822e-06 0.0005 1.46608e-07 
7 1 0.0186832 0.019653 0.0160726 -0.0176888 0.015594 -0.011928 0 0 -1.43822e-06 0.0005 1.46608e-07 
8 1 0.0221582 0.0218744 0.0166754 0.0651106 -0.0327147 -0.00674366 0 0 -1.43822e-06 0.0005 1.46608e-07 
9 1 0.0209263 0.0240186 0.0130223 -7.73332e-06 -0.000458574 -0.000184338 4.77684e-10 1.16042e-08 -6.07904e-09 0.0005 1.46608e-07 
10 1 0.0189053 0.0172618 0.0163568 0.0103395 0.00334532 0.00809427 0 0 -1.43822e-06 0.0005 1.46608e-07 
11 1 0.0172808 0.0235715 0.0119589 0.624131 -0.0874559 0.186683 -0.0218472 0.00913974 0.00102149 0.0005 1.46608e-07 
12 1 0.0205645 0.0151262 0.00969973 0.000731052 -0.00773186 0.0142457 1.21436e-09 2.48755e-08 2.35567e-08 0.0005 1.46608e-07 
13 1 0.01602 0.0236179 0.0141207 0.00205331 0.00130317 -0.000306289 -8.36653e-08 -2.70444e-08 1.8624e-07 0.0005 1.46608e-07 
14 1 0.0187181 0.0239291 0.0134731 -0.000566251 0.00194496 0.00104241 8.17841e-05 5.3699e-06 6.62307e-05 0.0005 1.46608e-07 
15 1 0.0250257 0.0208807 0.015771 -0.248718 -0.0791728 0.391216 0.000402444 0.000226905 0.00152804 0.0005 1.46608e-07 
16 1 0.0189391 0.0223099 0.0145623 0.0013813 -0.000965564 -0.00932559 -1.23726e-05 1.26582e-05 -1.2848e-05 0.0005 1.46608e-07 
17 1 0.0218602 0.0238237 0.0133804 0.000168947 0.00102064 -0.00153528 1.67541e-06 -1.45269e-06 1.5159e-06 0.0005 1.46608e-07 
18 1 0.0217028 0.0177094 0.00739587 6.2143e-06 -0.0216068 0.00571252 2.34147e-10 -1.92037e-09 1.07162e-08 0.0005 1.46608e-07 
19 1 0.0193785 0.0244849 0.0136808 -0.000264841 0.000159556 0.000388811 -2.22449e-06 2.96888e-06 4.67471e-06 0.0005 1.46608e-07 
20 1 0.0236738 0.0226131 0.0141787 0.0025106 0.00551656 -0.00489926 3.57506e-06 -3.39483e-06 1.01629e-05 0.0005 1.46608e-07 
21 1 0.019256 0.0166988 0.0153598 -0.000551814 0.0231911 0.0123944 2.27755e-06 -1.32045e-05 2.49369e-07 0.0005 1.46608e-07 
22 1 0.0196872 0.0191409 0.0161286 0.00762968 0.00986211 0.00558929 3.20862e-06 -6.2274e-06 -8.02148e-06 0.0005 1.46608e-07 
23 1 0.0175361 0.0240705 0.0128941 0.0356274 0.0081006 0.0278398 0.000974657 0.000466056 0.00143853 0.0005 1.46608e-07 
24 1 0.0227125 0.023032 0.00980111 0.00264208 0.000558465 -0.00251662 -4.12196e-07 2.47257e-08 -4.29442e-07 0.0005 1.46608e-07 
25 1 0.0211809 0.0135164 0.0185812 -0.0643497 0.0981241 -0.304316 0 0 -1.43822e-06 0.0005 1.46608e-07 
26 1 0.0188444 0.0228978 0.0137576 0.00023205 0.000480744 0.00209971 3.99542e-06 -3.76836e-06 2.8439e-05 0.0005 1.46608e-07 
27 1 0.0207016 0.0146217 0.012113 0.00744427 -0.000771456 0.0183367 6.44928e-07 7.32857e-07 -1.28227e-06 0.0005 1.46608e-07 
28 1 0.0219447 0.0203726 0.00743337 0.000341279 -0.0202929 -0.00714126 -4.55198e-09 -1.25478e-08 7.77442e-09 0.0005 1.46608e-07 
29 1 0.0152494 0.0233809 0.0147122 -0.00146285 -0.00697914 -0.00807625 -5.3878e-08 -7.09345e-08 7.04845e-08 0.0005 1.46608e-07 
30 1 0.0192629 0.0240584 0.0164328 0.0867116 0.0879516 0.185116 0 0 -1.43822e-06 0.0005 1.46608e-07 
31 1 0.0238683 0.0214552 0.016455 -0.0977303 0.0803371 0.614582 0 0 -1.43822e-06 0.0005 1.46608e-07 
32 1 0.019951 0.0148029 0.0128548 0.00216843 0.00327365 0.0128062 -3.06523e-08 1.93995e-08 -2.46208e-08 0.0005 1.46608e-07 
33 1 0.0212449 0.0157419 0.0150769 -0.0226445 0.0177945 -0.00592619 -1.37348e-07 -1.20398e-07 -5.0038e-07 0.0005 1.46608e-07 
34 1 0.0188317 0.0186456 0.0160303 0.000372824 0.0224904 0.00184623 -2.07709e-08 -1.65319e-06 2.67948e-06 0.0005 1.46608e-07 
35 1 0.0244945 0.0215254 0.0153066 -0.0765468 -0.0149574 0.248369 -0.000342217 -0.000191469 0.00169539 0.0005 1.46608e-07 
36 1 0.0203289 0.024397 0.013743 4.83724e-05 0.000242158 4.92356e-05 -2.4682e-06 3.21209e-06 -7.19853e-06 0.0005 1.46608e-07 
37 1 0.0211132 0.0165338 0.00796804 0.000185979 -0.0173818 0.012201 -1.00437e-09 -1.813e-09 1.42828e-08 0.0005 1.46608e-07 
38 1 0.0208683 0.0158336 0.00860518 0.000618334 -0.0137769 0.0152109 -4.03598e-09 -4.6612e-11 1.54129e-08 0.0005 1.46608e-07 
39 1 0.0208748 0.0240226 0.016988 0.0943373 0.00719605 0.0639855 0 0 -1.43822e-06 0.0005 1.46608e-07 
40 1 0.0229231 0.0238106 0.014943 -0.000329743 -0.00026667 0.00171245 4.03606e-05 -3.70721e-05 4.99975e-05 0.0005 1.46608e-07 
41 1 0.0173906 0.0234635 0.0142404 -0.00114773 -0.00140614 -0.0040193 -8.0178e-07 -1.76989e-06 7.70321e-06 0.0005 1.46608e-07 
42 1 0.0223858 0.021949 0.00845648 0.00201837 -0.00805786 -0.00790237 -4.8591e-09 -4.83961e-09 7.54673e-09 0.0005 1.46608e-07 
43 1 0.0178057 0.023482 0.0116002 0.39148 -0.125119 -0.162478 0.0026899 -0.00249494 0.000990992 0.0005 1.46608e-07 
44 1 0.0184987 0.0233185 0.0150608 -0.0214313 0.0291994 0.07605 0 0 -1.43822e-06 0.0005 1.46608e-07 
45 1 0.0219705 0.0238871 0.014728 0.00011782 0.000104412 -0.00107264 6.31237e-06 -8.76948e-06 1.04786e-05 0.0005 1.46608e-07 
46 1 0.023452 0.0229541 0.00946533 0.00141774 0.000584466 -0.000768269 -7.19985e-08 -6.61e-08 -6.12583e-08 0.0005 1.46608e-07 
47 1 0.0228893 0.0231264 0.0146515 0.00164691 0.00135969 -0.00184671 1.45193e-05 -5.19027e-05 7.42542e-05 0.0005 1.46608e-07 
48 1 0.02145 0.0143018 0.0135641 0.0126578 -0.000376911 0.00746491 -3.18269e-08 2.47472e-07 -4.65464e-07 0.0005 1.46608e-07 
49 1 0.0193957 0.0229969 0.0191629 0.134836 0.0310816 0.547943 0 0 -1.43822e-06 0.0005 1.46608e-07 
50 1 0.0217375 0.019299 0.00716364 0.00141077 -0.0168125 -0.00110758 -6.64354e-07 -2.23747e-06 4.98772e-07 0.0005 1.46608e-07 
51 1 0.0181545 0.0233694 0.012385 0.184707 0.00774137 0.0183925 0.00303627 0.000242693 0.00146461 0.0005 1.46608e-07 
52 1 0.0199513 0.0240897 0.0126694 -0.00017104 0.000865582 -0.00122924 -1.52837e-09 9.03538e-09 -7.90653e-09 0.0005 1.46608e-07 
53 1 0.02554 0.0200901 0.015925 -0.0296214 -0.00566254 0.117683 7.58695e-05 5.12797e-05 0.000633919 0.0005 1.46608e-07 
54 1 0.0178373 0.0244332 0.0137984 -0.000452946 0.000672777 4.67565e-05 2.4803e-05 4.69086e-06 2.43308e-05 0.0005 1.46608e-07 
55 1 0.0138957 0.0222952 0.0155916 0.00124536 0.00357167 -0.0015352 6.09821e-08 -4.08829e-07 -4.31941e-07 0.0005 1.46608e-07 
56 1 0.0180029 0.0150717 0.0149343 0.000481081 0.00017853 -0.000747745 -1.58435e-08 -3.14878e-08 5.37506e-09 0.0005 1.46608e-07 
57 1 0.0167967 0.0239138 0.0135517 -0.0024172 -0.00145264 -0.00600282 2.58704e-06 1.24103e-05 -7.18941e-07 0.0005 1.46608e-07 
58 1 0.0186842 0.0240189 0.012545 0.0197375 0.000453173 0.00466907 0.00106476 3.99456e-05 0.000126753 0.0005 1.46608e-07 
59 1 0.0229307 0.0223619 0.00888358 0.000174585 -0.0041526 -0.00628442 5.32208e-09 1.21365e-09 -2.24078e-08 0.0005 1.46608e-07 
60 1 0.0207745 0.0150159 0.0133805 0.0140737 -0.00228634 -0.00373931 8.29099e-08 3.10564e-07 -6.85758e-07 0.0005 1.46608e-07 
61 1 0.016989 0.0240884 0.0145431 -0.000895044 -0.000426141 -0.000917331 -7.68078e-07 5.27667e-07 -1.57949e-06 0.0005 1.46608e-07 
62 1 0.0212681 0.0243392 0.0139599 0.000411126 0.0001184 -0.000705558 1.29151e-06 6.92873e-07 -7.96945e-07 0.0005 1.46608e-07 
63 1 0.0225394 0.0236174 0.0140164 -2.96099e-05 0.00105943 -0.000930955 9.12822e-06 -1.35307e-05 2.7551e-05 0.0005 1.46608e-07 
64 1 0.0201336 0.0169493 0.0156946 -0.00428373 0.0339488 0.0144708 1.3584e-06 3.39903e-06 -1.02353e-05 0.0005 1.46608e-07 
65 1 0.0214105 0.0146594 0.0165859 -0.0788416 0.108768 -0.219898 0 0 -1.43822e-06 0.0005 1.46608e-07 
66 1 0.0180859 0.0235573 0.0160101 0.0619787 0.0245094 0.13661 0 0 -1.43822e-06 0.0005 1.46608e-07 
67 1 0.0197998 0.0179988 0.0158194 -0.00663801 0.00700508 0.00238398 4.26432e-07 6.00935e-07 1.26274e-07 0.0005 1.46608e-07 
68 1 0.021348 0.0235213 0.0140704 0.00061409 9.97775e-05 -0.00374595 3.66362e-06 2.62384e-06 -3.39887e-06 0.0005 1.46608e-07 
69 1 0.0161382 0.0236597 0.0151296 -0.000771691 0.000978943 0.000692929 -1.12989e-06 -2.87558e-07 8.54697e-07 0.0005 1.46608e-07 
70 1 0.0234907 0.023189 0.0154726 -0.0291199 0.01037 0.0936436 0.00065406 -0.000667598 0.000406458 0.0005 1.46608e-07 
71 1 0.0195636 0.023238 0.0151508 -0.000499639 0.0159369 0.0182101 0 0 -1.43822e-06 0.0005 1.46608e-07 
72 1 0.0171621 0.0201685 0.0170541 -0.0528251 -0.0352254 0.0430496 0 0 -1.43822e-06 0.0005 1.46608e-07 
73 1 0.0250403 0.0218768 0.0164935 0.0120852 -0.056117 -0.0498526 0 0 -1.43822e-06 0.0005 1.46608e-07 
74 1 0.0202408 0.0147216 0.0112314 0.000889445 -0.00276395 0.0213643 9.40409e-09 1.43634e-08 -2.28993e-08 0.0005 1.46608e-07 
75 1 0.025582 0.020982 0.0166398 0.0880109 -0.178148 0.054435 0 0 -1.43822e-06 0.0005 1.46608e-07 
76 1 0.017854 0.0228326 0.013707 8.8726e-05 0.00661579 -0.0124238 -4.73395e-06 4.94043e-06 -1.51778e-06 0.0005 1.46608e-07 
77 1 0.0169465 0.0219088 0.0174751 0.0405595 -0.0431517 0.0608354 0 0 -1.43822e-06 0.0005 1.46608e-07 
78 1 0.0197662 0.0232272 0.0174833 0.0306024 -0.0891882 0.204652 0 0 -1.43822e-06 0.0005 1.46608e-07 
79 1 0.0256296 0.0182293 0.0159442 0.00304778 -0.000963384 -0.00711233 1.98995e-05 1.19982e-05 -6.46142e-05 0.0005 1.46608e-07 
80 1 0.0158412 0.0227168 0.0152818 0.0108149 -0.00552565 0.00305585 0 0 -1.43822e-06 0.0005 1.46608e-07 
81 1 0.0236843 0.0213515 0.0178477 -0.394124 -0.277321 1.81454 0 0 -1.43822e-06 0.0005 1.46608e-07 
82 1 0.0143685 0.0188363 0.0159454 0.00282105 0.00731178 0.00136511 -2.86968e-07 -9.01993e-06 1.27696e-06 0.0005 1.46608e-07 
83 1 0.0191665 0.0221242 0.0178326 0.0149395 0.0598679 0.243133 0 0 -1.43822e-06 0.0005 1.46608e-07 
84 1 0.0181 0.0143768 0.0139125 -0.00114793 -0.00163633 -0.00303592 6.0028e-07 3.32435e-07 2.27298e-07 0.0005 1.46608e-07 
85 1 0.0145012 0.02053 0.0165124 -0.0157147 0.00126752 0.00464005 0 0 -1.43822e-06 0.0005 1.46608e-07 
86 1 0.0212841 0.0154574 0.0141191 0.00538401 0.00144508 0.000203551 -2.18763e-07 -3.0264e-07 -3.02921e-07 0.0005 1.46608e-07 
87 1 0.0195587 0.0201904 0.0160102 -0.0242303 0.0165723 0.01941 0 0 -1.43822e-06 0.0005 1.46608e-07 
88 1 0.0149565 0.0223256 0.0155836 0.00607432 0.00278484 -0.00430508 -4.38088e-08 2.82004e-07 -4.32189e-07 0.0005 1.46608e-07 
89 1 0.0153323 0.0204803 0.0170985 -0.0345505 -0.00443481 0.00382666 0 0 -1.43822e-06 0.0005 1.46608e-07 
90 1 0.0173854 0.0232647 0.0125523 0.17427 0.0592245 0.268714 -0.0041475 -0.000156732 0.00905 0.0005 1.46608e-07 
91 1 0.0176688 0.0148544 0.0158513 0.00018556 -0.000242034 -0.000928771 7.5352e-08 4.82871e-08 6.55794e-08 0.0005 1.46608e-07 
92 1 0.0205442 0.0196091 0.0159463 0.000458133 0.0205043 -0.00298291 4.77642e-08 7.73113e-07 -7.60196e-07 0.0005 1.46608e-07 
93 1 0.0193415 0.0140005 0.0130545 0.00733709 0.000767316 0.00610709 -2.46051e-07 -2.96763e-08 -9.84077e-08 0.0005 1.46608e-07 
94 1 0.0145799 0.0246099 0.0212483 -0.391239 0.0716238 0.819376 0 0 -1.43822e-06 0.0005 1.46608e-07 
95 1 0.0167945 0.0234495 0.0158926 0.0129412 0.00618134 -0.0124738 1.00196e-07 -5.94829e-07 -9.86634e-07 0.0005 1.46608e-07 
96 1 0.0182803 0.0218393 0.0182117 -0.0110903 -0.161047 0.166318 0 0 -1.43822e-06 0.0005 1.46608e-07 
97 1 0.0256857 0.0191493 0.0159401 0.00613176 0.000926339 -0.00285605 -7.31177e-06 7.05931e-05 -9.5697e-05 0.0005 1.46608e-07 
98 1 0.0168395 0.0230015 0.0149994 0.00506652 0.0145458 -0.0172356 -3.30963e-06 -2.07909e-06 2.28905e-06 0.0005 1.46608e-07 
99 1 0.0174826 0.0158928 0.0156997 -0.00622566 0.00958716 0.00591162 -6.43978e-08 -6.02909e-08 -4.71196e-08 0.0005 1.46608e-07 
100 1 0.0179566 0.0224065 0.0145928 0.00162511 0.00719826 -0.0151054 -9.39974e-06 1.42284e-05 -8.15166e-06 0.0005 1.46608e-07 
101 1 0.0205172 0.0229205 0.0150686 0.00782628 -0.00436998 -0.00329306 -1.51364e-06 -5.20131e-06 -6.29489e-06 0.0005 1.46608e-07 
102 1 0.0204041 0.0216804 0.0202601 0.451386 0.401421 -0.250774 0 0 -1.43822e-06 0.0005 1.46608e-07 
103 1 0.0201132 0.0239522 0.0157912 0.0133021 0.0269977 0.0370576 0 0 -1.43822e-06 0.0005 1.46608e-07 
104 1 0.0161667 0.0201836 0.0166277 -0.0300486 -0.0104094 0.00307362 8.36236e-07 8.29054e-07 -1.4908e-07 0.0005 1.46608e-07 
105 1 0.0144032 0.0229689 0.0150546 0.00332214 0.00108871 -0.00238729 -4.8842e-07 3.63798e-07 -8.08254e-09 0.0005 1.46608e-07 
106 1 0.0192456 0.0239809 0.0145377 -0.0111591 -0.00201181 0.000573557 0 0 -1.43822e-06 0.0005 1.46608e-07 
108 1 0.0236138 0.0229484 0.0133593 -0.000374606 0.0102693 -0.0158041 -3.91345e-07 -1.32585e-06 2.08509e-06 0.0005 1.46608e-07 
109 1 0.0186485 0.0207968 0.0160648 -0.0909306 0.00852352 0.0542339 0 0 -1.43822e-06 0.0005 1.46608e-07 
110 1 0.0174581 0.0214068 0.0162445 -1.65491e-05 0.0226605 -0.0111667 -1.12569e-09 -5.19989e-08 7.93774e-09 0.0005 1.46608e-07 
111 1 0.0197414 0.0226467 0.0140971 0.00167427 0.00245846 -0.00441408 -1.11031e-05 7.71449e-06 -7.85742e-06 0.0005 1.46608e-07 
112 1 0.0179856 0.0233426 0.010932 0.0173802 -0.0145816 -0.0433688 5.70082e-05 -0.000647825 -0.000896687 0.0005 1.46608e-07 
113 1 0.0206601 0.0231232 0.0164563 0.0658475 -0.0117767 0.0322195 0 0 -1.43822e-06 0.0005 1.46608e-07 
114 1 0.018755 0.0234572 0.0116689 0.0580938 -0.0109771 -0.0347485 0.00126936 -0.000554446 -0.000975118 0.0005 1.46608e-07 
115 1 0.0215182 0.0147533 0.0126747 0.0131455 0.00349953 0.0092838 -1.1784e-07 9.61677e-08 -5.41754e-07 0.0005 1.46608e-07 
116 1 0.0153023 0.0211323 0.0163183 -0.00125719 0.00360192 -0.00181745 4.12293e-08 1.07961e-06 -7.64854e-07 0.0005 1.46608e-07 
117 1 0.0259214 0.019681 0.0169063 0.173656 -0.156298 0.336463 0 0 -1.43822e-06 0.0005 1.46608e-07 
118 1 0.0175215 0.0246144 0.0185406 -0.0250211 0.133409 0.442874 0 0 -1.43822e-06 0.0005 1.46608e-07 
119 1 0.0241654 0.0224187 0.0152246 -0.023833 -0.00542291 0.0108365 4.13072e-05 -1.17019e-06 4.00133e-05 0.0005 1.46608e-07 
120 1 0.0208554 0.0147995 0.0147382 -0.0109313 -0.00120496 -0.013955 -1.40617e-07 -8.04362e-07 -5.37765e-07 0.0005 1.46608e-07 
121 1 0.020079 0.0235575 0.0141786 0.000402012 0.00119663 -0.00101536 -2.1965e-05 1.00468e-05 -1.58317e-05 0.0005 1.46608e-07 
122 1 0.0197305 0.0225544 0.0163133 0.0412361 -0.0369523 0.0852428 0 0 -1.43822e-06 0.0005 1.46608e-07 
123 1 0.0236094 0.0151001 0.0149762 0.00758805 0.00607847 0.00608029 -3.2747e-07 1.59539e-07 5.59286e-07 0.0005 1.46608e-07 
124 1 0.0229551 0.0232942 0.010675 0.00234612 -0.00204062 -0.0074256 2.11062e-06 -4.77257e-07 2.65255e-06 0.0005 1.46608e-07 
125 1 0.0238763 0.0221501 0.0146321 -0.001039 0.00783302 -0.00844057 1.51126e-05 -2.57688e-05 1.12469e-05 0.0005 1.46608e-07 
126 1 0.0164196 0.0211967 0.0163065 -0.000921615 0.0233609 -0.00952659 5.11887e-07 -6.32279e-07 -1.98833e-06 0.0005 1.46608e-07 
127 1 0.0209019 0.0215986 0.0172977 0.124752 -0.0444 0.0980405 0 0 -1.43822e-06 0.0005 1.46608e-07 
128 1 0.0189554 0.0232501 0.012837 0.0130544 -0.00246513 0.0115086 0.000755542 -0.000129326 0.000413646 0.0005 1.46608e-07 
129 1 0.0198597 0.0177779 0.0179862 0.01348 0.00127775 0.016801 0 0 -1.43822e-06 0.0005 1.46608e-07 
130 1 0.0215818 0.0227229 0.0167859 -0.0516774 -0.0351189 0.0458763 0 0 -1.43822e-06 0.0005 1.46608e-07 
131 1 0.0157993 0.0173089 0.0164503 -2.9703e-11 0.0233326 0.00808378 -4.70527e-15 5.42038e-09 -1.59416e-08 0.0005 1.46608e-07 
132 1 0.0158534 0.0219352 0.0159055 0.00482055 -0.00477225 0.00669182 -9.3293e-09 6.51049e-08 -1.4179e-06 0.0005 1.46608e-07 
133 1 0.0223611 0.0167027 0.0162091 -3.71293e-07 0.0180684 0.0085667 4.80442e-09 2.86604e-08 -1.21388e-08 0.0005 1.46608e-07 
134 1 0.0237721 0.0201139 0.0170576 0.0997067 -1.07245 1.17619 0 0 -1.43822e-06 0.0005 1.46608e-07 
135 1 0.0188395 0.0240031 0.017823 0.0331703 -0.00787771 0.283091 0 0 -1.43822e-06 0.0005 1.46608e-07 
136 1 0.0161781 0.0143794 0.0139007 -0.000966021 0.0014218 -0.0011815 -6.06567e-08 8.1963e-08 -8.70312e-08 0.0005 1.46608e-07 
137 1 0.0231918 0.016015 0.016376 -0.0168038 0.00363171 -0.0890414 0 0 -1.43822e-06 0.0005 1.46608e-07 
138 1 0.0189157 0.0137987 0.013914 -0.000166483 -0.000474782 0.000512747 4.84626e-07 1.83575e-07 2.92458e-07 0.0005 1.46608e-07 
139 1 0.0135155 0.0214345 0.0152526 0.000813803 -0.000417357 -3.85969e-05 3.01703e-06 -4.51295e-06 -1.5677e-06 0.0005 1.46608e-07 
140 1 0.0235425 0.0231645 0.0101456 0.00175523 0.00228046 -0.00231113 -6.76496e-07 2.92275e-08 -6.21267e-07 0.0005 1.46608e-07 
141 1 0.0243405 0.0159333 0.0157651 -0.00225518 -0.0184357 -0.0143161 1.50845e-08 -1.14136e-07 -1.48209e-08 0.0005 1.46608e-07 
142 1 0.0204417 0.014015 0.0132267 0.00534151 0.000188408 0.0020327 -3.43615e-08 -5.96848e-09 3.55442e-08 0.0005 1.46608e-07 
143 1 0.0217101 0.0229629 0.0149905 0.00116378 0.000849912 -0.00102448 -2.15255e-06 2.02034e-06 -2.6749e-06 0.0005 1.46608e-07 
144 1 0.0224404 0.0229621 0.016306 -0.0119679 0.0380352 0.0226259 0 0 -1.43822e-06 0.0005 1.46608e-07 
145 1 0.0153941 0.0183992 0.0171932 0.0397528 0.0885474 -0.0327867 0 0 -1.43822e-06 0.0005 1.46608e-07 
146 1 0.0207529 0.0221752 0.0159733 0.0654559 -0.000839682 0.00974887 0 0 -1.43822e-06 0.0005 1.46608e-07 
147 1 0.0202439 0.0208344 0.0156286 0.0131351 -0.00068749 -0.0250924 0 0 -1.43822e-06 0.0005 1.46608e-07 
148 1 0.0210552 0.017258 0.015723 -0.000285609 0.0231761 0.00955427 -8.14876e-07 6.01905e-06 -1.43683e-08 0.0005 1.46608e-07 
149 1 0.0250133 0.0175697 0.0159381 0.00527429 -0.00526608 0.0033596 -1.15778e-05 7.76354e-05 0.000195213 0.0005 1.46608e-07 
150 1 0.0187669 0.0228442 0.0164383 0.0412189 0.0133391 0.172263 0 0 -1.43822e-06 0.0005 1.46608e-07 
151 1 0.0156055 0.0158184 0.0160706 -0.0156394 0.00390022 -0.069926 0 0 -1.43822e-06 0.0005 1.46608e-07 
152 1 0.0193368 0.0183293 0.0186736 0.0349577 -0.408077 0.265094 0 0 -1.43822e-06 0.0005 1.46608e-07 
153 1 0.0221628 0.0202519 0.0174917 -0.263675 0.00597126 0.128413 0 0 -1.43822e-06 0.0005 1.46608e-07 
154 1 0.0170599 0.0144933 0.0165576 4.76471e-05 0.000494891 -0.000645403 2.95674e-08 -1.76004e-08 2.42891e-08 0.0005 1.46608e-07 
155 1 0.018117 0.0166195 0.0161683 -0.000817281 0.0168672 0.00910171 2.92205e-08 1.02974e-07 4.10343e-08 0.0005 1.46608e-07 
156 1 0.0178042 0.0226716 0.0168669 0.0465183 -0.00218228 0.171819 0 0 -1.43822e-06 0.0005 1.46608e-07 
157 1 0.0164 0.0227975 0.0174946 -0.00229452 -0.018549 0.0831086 0 0 -1.43822e-06 0.0005 1.46608e-07 
158 1 0.021809 0.0222324 0.0156715 0.00499427 0.00805765 -0.00610285 -3.12969e-07 1.29677e-06 -9.77809e-07 0.0005 1.46608e-07 
159 1 0.0168286 0.0221745 0.0159398 0.000518047 0.0263316 -0.00703021 0 0 -1.43822e-06 0.0005 1.46608e-07 
160 1 0.0164875 0.0162913 0.0159463 -0.000877951 0.0146046 0.00940142 2.99741e-08 1.54507e-08 3.54869e-09 0.0005 1.46608e-07 
161 1 0.0208008 0.0139382 0.0142322 0.00169839 -0.00646967 -0.00622415 -5.43719e-07 -8.56152e-07 -3.06782e-07 0.0005 1.46608e-07 
162 1 0.0189465 0.0146505 0.0144366 -0.00420172 0.000750716 -0.000774971 -8.63148e-08 1.37169e-06 1.48959e-06 0.0005 1.46608e-07 
163 1 0.0176603 0.0180758 0.0166943 -1.03386e-09 0.0244832 0.00446622 -6.28752e-15 2.94434e-09 -1.67287e-08 0.0005 1.46608e-07 
164 1 0.0196896 0.0153428 0.0139493 0.00313311 0.00446639 0.00672935 -4.84859e-08 -2.31666e-07 -2.43683e-07 0.0005 1.46608e-07 
165 1 0.0214548 0.0176388 0.0165575 8.52883e-05 0.0239281 0.00743258 -1.99271e-07 -4.97594e-07 -1.60807e-07 0.0005 1.46608e-07 
166 1 0.0244749 0.0153935 0.0197476 -0.104735 0.0515126 -0.296716 0 0 -1.43822e-06 0.0005 1.46608e-07 
167 1 0.0232252 0.017487 0.0165147 -1.08393e-09 0.0236094 0.00732286 -1.34512e-14 4.96608e-09 -1.61082e-08 0.0005 1.46608e-07 
168 1 0.0174204 0.0209721 0.0176631 -0.094056 -0.0573626 0.132184 0 0 -1.43822e-06 0.0005 1.46608e-07 
169 1 0.0145638 0.0150231 0.0150622 -0.000238845 0.00049641 -0.000645761 -1.84837e-08 -6.7279e-08 1.29513e-07 0.0005 1.46608e-07 
170 1 0.0134414 0.0184634 0.0159077 -0.000715685 0.0190182 0.00240495 2.857e-07 3.57854e-07 4.33125e-08 0.0005 1.46608e-07 
171 1 0.0140872 0.0160123 0.0147424 -0.000734256 0.000947998 0.000324751 1.04729e-08 4.00727e-08 4.99513e-09 0.0005 1.46608e-07 
172 1 0.0199732 0.0221016 0.0149011 0.0049549 -0.00275435 -0.00412888 3.68332e-06 1.54263e-06 -4.29235e-06 0.0005 1.46608e-07 
173 1 0.0148139 0.0170283 0.0154744 -0.00284127 0.0125175 0.00667563 3.33822e-07 2.04278e-07 6.04517e-08 0.0005 1.46608e-07 
174 1 0.0192422 0.025006 0.0195505 0.110497 0.111558 0.450321 0 0 -1.43822e-06 0.0005 1.46608e-07 
175 1 0.0179687 0.0233104 0.020603 -0.195169 0.0200768 0.490644 0 0 -1.43822e-06 0.0005 1.46608e-07 
176 1 0.0181739 0.0216012 0.0152586 0.00116466 0.0161219 -0.00783997 -1.33671e-06 3.1564e-06 -9.88669e-06 0.0005 1.46608e-07 
177 1 0.0213766 0.0208676 0.0210661 0.031679 0.158579 0.0366109 0 0 -1.43822e-06 0.0005 1.46608e-07 
178 1 0.0212941 0.020697 0.018207 0.178582 -0.0166033 0.14577 0 0 -1.43822e-06 0.0005 1.46608e-07 
179 1 0.0202451 0.0156755 0.0149668 0.048772 -0.0100259 -0.135881 0 0 -1.43822e-06 0.0005 1.46608e-07 
180 1 0.0218134 0.0197041 0.016719 -0.0329803 -0.017198 0.0116652 2.90702e-05 3.53851e-05 5.7198e-05 0.0005 1.46608e-07 
181 1 0.0177415 0.0224691 0.0192165 0.238644 0.183719 -0.00289938 0 0 -1.43822e-06 0.0005 1.46608e-07 
182 1 0.0154048 0.022842 0.0172312 0.00324367 0.00469486 0.00442888 2.07601e-07 1.04478e-06 -6.13605e-07 0.0005 1.46608e-07 
183 1 0.0214953 0.0233548 0.0158852 0.0118745 -0.00763247 -0.000624282 0 0 -1.43822e-06 0.0005 1.46608e-07 
184 1 0.0213703 0.021407 0.0161933 0.0391687 -0.0197939 0.0127929 0 0 -1.43822e-06 0.0005 1.46608e-07 
185 1 0.0222036 0.0182909 0.0166771 0.0029705 0.0262338 0.00382896 -9.53068e-07 -7.7754e-07 -4.97867e-08 0.0005 1.46608e-07 
186 1 0.0188402 0.0210437 0.018615 -0.0731841 0.00728462 0.25274 0 0 -1.43822e-06 0.0005 1.46608e-07 
187 1 0.0226465 0.0227206 0.00927927 0.00128122 -0.00327035 -0.00618684 3.14443e-08 -3.78594e-08 -6.21127e-08 0.0005 1.46608e-07 
188 1 0.0182201 0.0181896 0.0183387 -0.0189389 -0.213529 0.123682 0 0 -1.43822e-06 0.0005 1.46608e-07 
189 1 0.0158853 0.0216776 0.0170019 -0.00678573 0.0125644 -0.00243664 0 0 -1.43822e-06 0.0005 1.46608e-07 
190 1 0.0245857 0.0198081 0.0158777 -0.00821004 -0.0193208 0.0527796 -4.56157e-05 9.32524e-05 0.000247787 0.0005 1.46608e-07 
191 1 0.0177674 0.019377 0.0167849 0.00751897 -0.00576388 0.00382903 -5.91509e-07 2.54089e-06 1.58133e-06 0.0005 1.46608e-07 
192 1 0.0164448 0.0149454 0.0147572 -0.0074101 -0.0231358 -0.0361202 7.16579e-08 -3.82683e-07 -4.03357e-07 0.0005 1.46608e-07 
193 1 0.0220314 0.0207056 0.0165782 -0.250529 -0.125168 0.0294348 0.000138371 3.11079e-05 -7.2274e-05 0.0005 1.46608e-07 
194 1 0.0218797 0.0146835 0.0143822 0.0065211 -0.000540714 0.0114229 -7.11261e-07 -1.82292e-07 7.14629e-08 0.0005 1.46608e-07 
195 1 0.0208196 0.0182789 0.0158759 -0.0134272 0.0545866 0.010688 -7.05423e-06 -0.000103477 -3.05996e-05 0.0005 1.46608e-07 
196 1 0.0176324 0.0199635 0.0182904 -0.108552 -0.0323239 0.198264 0 0 -1.43822e-06 0.0005 1.46608e-07 
197 1 0.0228087 0.0155373 0.0153988 0.0059747 0.00621018 0.00569604 -2.23177e-07 -1.81213e-07 -1.4641e-07 0.0005 1.46608e-07 
198 1 0.0201234 0.0195435 0.0169897 0.0467796 -0.0673144 0.0331165 0 0 -1.43822e-06 0.0005 1.46608e-07 
200 1 0.0218391 0.0214027 0.0176236 0.138943 -0.0220206 0.0904976 0 0 -1.43822e-06 0.0005 1.46608e-07 
201 1 0.022347 0.0146597 0.015266 0.0112902 0.0034486 0.00954918 -3.62812e-08 -3.2895e-08 -1.02797e-06 0.0005 1.46608e-07 
202 1 0.0130398 0.0206493 0.0156489 0.00141736 0.00296802 -0.000366371 2.86314e-07 8.53079e-07 -2.98954e-07 0.0005 1.46608e-07 
203 1 0.0195384 0.0177206 0.0169895 0.0689375 -0.045074 0.0227719 0 0 -1.43822e-06 0.0005 1.46608e-07 
204 1 0.0206152 0.020379 0.0165891 0.0383303 -0.013309 0.0367175 0 0 -1.43822e-06 0.0005 1.46608e-07 
205 1 0.018754 0.015497 0.0154403 0.00098979 -0.00483881 -0.0053167 -3.07304e-08 -1.29365e-07 -5.44844e-07 0.0005 1.46608e-07 
206 1 0.0210775 0.0187608 0.0167127 -0.0203579 -0.0403874 -0.00844457 7.09399e-06 0.000103534 2.76565e-05 0.0005 1.46608e-07 
207 1 0.0229429 0.0210702 0.0163902 -0.015503 -0.0289645 0.0602702 -0.000138371 -3.11079e-05 6.93976e-05 0.0005 1.46608e-07 
208 1 0.0148533 0.0155696 0.0142765 -0.00112995 0.00121618 -0.000506155 3.80586e-08 -1.41292e-08 5.90707e-08 0.0005 1.46608e-07 
209 1 0.019454 0.0207327 0.0172038 -0.0529434 -0.031269 0.0915389 0 0 -1.43822e-06 0.0005 1.46608e-07 
210 1 0.0146784 0.0221848 0.017549 -0.00233274 -0.0796497 -0.11239 0 0 -1.43822e-06 0.0005 1.46608e-07 
211 1 0.0191649 0.0216865 0.0153091 0.00270072 -0.000258054 -0.00582865 -4.40305e-07 9.07213e-06 -1.56114e-05 0.0005 1.46608e-07 
212 1 0.0171377 0.0145082 0.0141501 -0.000656552 0.000832009 -0.00203215 1.36318e-07 -3.64289e-07 1.38588e-08 0.0005 1.46608e-07 
213 1 0.0241709 0.0190155 0.0167902 -5.26362e-09 0.02492 2.31178e-05 -2.17409e-14 -1.05225e-10 -1.70144e-08 0.0005 1.46608e-07 
214 1 0.0199661 0.0144739 0.0143597 -0.00543648 -0.012857 -0.0241263 -1.62533e-07 -1.96384e-07 -8.52134e-07 0.0005 1.46608e-07 
215 1 0.0184228 0.0143223 0.0154462 0.000227401 0.000261607 -0.000408418 -5.56358e-09 -1.57332e-08 9.56067e-09 0.0005 1.46608e-07 
216 1 0.015128 0.0221566 0.0165577 0.0021996 0.00410194 0.0044098 -3.61281e-07 -8.84288e-07 -2.45842e-06 0.0005 1.46608e-07 
217 1 0.0227797 0.0200046 0.0166991 0.0564201 -0.00663668 0.106546 0 0 -1.43822e-06 0.0005 1.46608e-07 
218 1 0.0227526 0.0225102 0.0154623 -0.0240124 0.0201163 -0.00483315 0 0 -1.43822e-06 0.0005 1.46608e-07 
219 1 0.0154962 0.015507 0.0150398 0.00425433 -0.00179704 -0.00536879 1.00576e-07 -5.14788e-08 6.54637e-09 0.0005 1.46608e-07 
220 1 0.0153658 0.0147168 0.0143763 -0.000909838 0.0013088 -0.000977763 -1.77849e-07 5.15891e-08 9.87279e-08 0.0005 1.46608e-07 
221 1 0.0212384 0.0196026 0.0175316 -0.0246435 -0.0585358 0.0985509 0 0 -1.43822e-06 0.0005 1.46608e-07 
222 1 0.0141819 0.0198162 0.0158784 0.00138115 0.00950262 0.000407461 2.86968e-07 9.01993e-06 -4.15341e-06 0.0005 1.46608e-07 
223 1 0.0141865 0.0207761 0.0155926 0.00518092 0.00189294 0.000425271 5.66068e-06 -6.70423e-06 2.09883e-06 0.0005 1.46608e-07 
224 1 0.0159603 0.0228364 0.0163413 0.0182033 0.00840362 -0.0175841 1.55127e-07 -4.09269e-07 -8.77862e-07 0.0005 1.46608e-07 
225 1 0.0167114 0.019296 0.0167475 0.000125244 -0.00107106 0.00143355 -5.89404e-08 1.15021e-06 -8.93541e-08 0.0005 1.46608e-07 
226 1 0.0183647 0.0213616 0.0199175 0 -0 -0.03 0 0 0 0.0005 1.46608e-07 
227 1 0.0215828 0.0175298 0.0264876 0 -0 -0.03 0 0 0 0.0005 1.46608e-07 
228 1 0.0161867 0.0200783 0.0203785 0 -0 -0.03 0 0 0 0.0005 1.46608e-07 
229 1 0.0157761 0.0197467 0.0184448 0 -0 -0.03 0 0 0 0.0005 1.46608e-07 
230 1 0.017829 0.0170462 0.0251005 0 -0 -0.03 0 0 0 0.0005 1.46608e-07 
231 1 0.0205808 0.0185802 0.0175896 -0.00793839 -0.0803192 -0.0225804 0 0 -1.43822e-06 0.0005 1.46608e-07 
232 1 0.0191783 0.0221719 0.0279709 0 -0 -0.03 0 0 0 0.0005 1.46608e-07 
233 1 0.0179497 0.0158568 0.0195503 0 -0 -0.03 0 0 0 0.0005 1.46608e-07 
234 1 0.0169423 0.0218894 0.0195543 0 -0 -0.03 0 0 0 0.0005 1.46608e-07 
235 1 0.0193669 0.0231578 0.0267461 0 -0 -0.03 0 0 0 0.0005 1.46608e-07 
236 1 0.0171385 0.0198365 0.029434 0 -0 -0.03 0 0 0 0.0005 1.46608e-07 
237 1 0.0220084 0.019851 0.0253627 0 -0 -0.03 0 0 0 0.0005 1.46608e-07 
238 1 0.0200309 0.0219762 0.0289268 0 -0 -0.03 0 0 0 0.0005 1.46608e-07 
239 1 0.0226257 0.0188297 0.0208179 0 -0 -0.03 0 0 0 0.0005 1.46608e-07 
240 1 0.0201646 0.0231648 0.0233098 0 -0 -0.03 0 0 0 0.0005 1.46608e-07 
241 1 0.0206947 0.0232319 0.0259239 0 -0 -0.03 0 0 0 0.0005 1.46608e-07 
242 1 0.0171541 0.0151369 0.0249662 0 -0 -0.03 0 0 0 0.0005 1.46608e-07 
243 1 0.0193139 0.0185347 0.0251922 0 -0 -0.03 0 0 0 0.0005 1.46608e-07 
244 1 0.0229379 0.0181772 0.0284587 0 -0 -0.03 0 0 0 0.0005 1.46608e-07 
245 1 0.0157168 0.0192946 0.0276796 0 -0 -0.03 0 0 0 0.0005 1.46608e-07 
246 1 0.0202576 0.0206309 0.0186326 0.166374 -0.0691154 0.0856376 0 0 -1.43822e-06 0.0005 1.46608e-07 
247 1 0.0157582 0.0206978 0.0256347 0 -0 -0.03 0 0 0 0.0005 1.46608e-07 
248 1 0.0196655 0.0162549 0.0253447 0 -0 -0.03 0 0 0 0.0005 1.46608e-07 
249 1 0.0184883 0.0202613 0.0262301 0 -0 -0.03 0 0 0 0.0005 1.46608e-07 
250 1 0.0173648 0.0186375 0.0275452 0 -0 -0.03 0 0 0 0.0005 1.46608e-07 
251 1 0.0171947 0.0231327 0.0197658 0 -0 -0.03 0 0 0 0.0005 1.46608e-07 
252 1 0.0208702 0.0219483 0.026096 0 -0 -0.03 0 0 0 0.0005 1.46608e-07 
253 1 0.0216681 0.0204391 0.0226073 0 -0 -0.03 0 0 0 0.0005 1.46608e-07 
254 1 0.0221917 0.021245 0.0242425 0 -0 -0.03 0 0 0 0.0005 1.46608e-07 
255 1 0.0174041 0.0230338 0.0270467 0 -0 -0.03 0 0 0 0.0005 1.46608e-07 
256 1 0.01967 0.0186017 0.0271135 0 -0 -0.03 0 0 0 0.0005 1.46608e-07 
257 1 0.0205531 0.0175965 0.024017 0 -0 -0.03 0 0 0 0.0005 1.46608e-07 
258 1 0.0148504 0.0179687 0.0158166 0.00912185 0.00735468 0.00289016 -2.71107e-07 2.44556e-07 -7.28486e-07 0.0005 1.46608e-07 
259 1 0.0160687 0.021633 0.0180163 -0.101273 -0.037948 0.0613461 0 0 -1.43822e-06 0.0005 1.46608e-07 
260 1 0.0195052 0.0145617 0.0152611 0.00682828 -0.0104033 -0.0108307 1.22601e-06 1.61226e-06 1.71705e-06 0.0005 1.46608e-07 
261 1 0.0191913 0.0235991 0.0201802 0 -0 -0.03 0 0 0 0.0005 1.46608e-07 
262 1 0.0229501 0.0190184 0.0167751 0.0186433 -0.192645 0.0270334 -3.13401e-07 9.79159e-06 -1.75433e-05 0.0005 1.46608e-07 
263 1 0.0180764 0.0168487 0.017763 0 0 -0.118422 0 0 -1.43822e-06 0.0005 1.46608e-07 
264 1 0.0200572 0.0153213 0.0184726 0 -0 -0.03 0 0 0 0.0005 1.46608e-07 
265 1 0.0206835 0.017002 0.0260367 0 -0 -0.03 0 0 0 0.0005 1.46608e-07 
266 1 0.0205848 0.0224751 0.017882 0.175681 -0.0496889 0.230482 0 0 -1.43822e-06 0.0005 1.46608e-07 
267 1 0.0164672 0.0161975 0.0197852 0 -0 -0.03 0 0 0 0.0005 1.46608e-07 
268 1 0.0215505 0.0182918 0.0204372 0 -0 -0.03 0 0 0 0.0005 1.46608e-07 