ITEM: TIMESTEP
200000
ITEM: NUMBER OF ATOMS
75
ITEM: BOX BOUNDS ff ff ff
-0.02 0.43
-0.02 0.06
-0.02 0.07
ITEM: ATOMS id type x y z vx vy vz fx fy fz radius mass 
1 1 0.0208086 0.0189243 0.0167333 -4.38163e-09 0.0246194 0.000771612 -1.27534e-14 6.73998e-10 -1.67816e-08 0.0005 1.46608e-07 
2 1 0.0162756 0.0175307 0.0165404 -0.000234807 0.00711405 0.00625813 0 0 -1.43822e-06 0.0005 1.46608e-07 
3 1 0.0230384 0.0201199 0.024368 0 -0 -0.03 0 0 0 0.0005 1.46608e-07 
4 1 0.01626 0.0168583 0.0231503 0 -0 -0.03 0 0 0 0.0005 1.46608e-07 
5 1 0.0201496 0.0151281 0.0154565 0.0215972 -0.05799 -0.0238554 0 0 -1.43822e-06 0.0005 1.46608e-07 
6 1 0.0148222 0.01773 0.0210644 0 -0 -0.03 0 0 0 0.0005 1.46608e-07 
7 1 0.0167192 0.014213 0.013562 0.000423353 -0.000671744 0.00154544 5.55025e-09 -1.00573e-08 2.36394e-08 0.0005 1.46608e-07 
8 1 0.023253 0.0189513 0.0241318 0 -0 -0.03 0 0 0 0.0005 1.46608e-07 
9 1 0.020538 0.0240708 0.0130502 -2.37086e-05 -0.000169474 -2.55864e-05 2.89858e-09 1.11207e-08 4.28489e-09 0.0005 1.46608e-07 
10 1 0.0180782 0.022722 0.0178191 0 0 -0.113684 0 0 -1.43822e-06 0.0005 1.46608e-07 
11 1 0.015043 0.01872 0.0249772 0 -0 -0.03 0 0 0 0.0005 1.46608e-07 
12 1 0.0184314 0.0227145 0.0140128 0.000136549 0.0344923 -0.0506636 -2.90111e-09 3.18193e-07 -6.05003e-07 0.0005 1.46608e-07 
13 1 0.0146247 0.0229477 0.0150321 -0.000157607 0.0503425 -0.052632 -9.08252e-09 2.0022e-07 -3.44488e-07 0.0005 1.46608e-07 
14 1 0.0170254 0.0230763 0.0247019 0 -0 -0.03 0 0 0 0.0005 1.46608e-07 
15 1 0.0205274 0.0170344 0.0256657 0 -0 -0.03 0 0 0 0.0005 1.46608e-07 
16 1 0.0163958 0.0165892 0.0241934 0 -0 -0.03 0 0 0 0.0005 1.46608e-07 
17 1 0.0211227 0.0235314 0.0143026 8.70669e-05 0.0698985 -0.11428 0 0 -1.43822e-06 0.0005 1.46608e-07 
18 1 0.0188433 0.0216971 0.0150757 2.44505e-05 0.0293439 -0.0208194 2.09661e-10 3.40266e-08 -6.68998e-08 0.0005 1.46608e-07 
19 1 0.0171238 0.0224213 0.0196026 0 -0 -0.03 0 0 0 0.0005 1.46608e-07 
20 1 0.020316 0.0146145 0.0119502 5.48185e-06 -0.00147846 0.00245511 3.70757e-11 -1.11379e-08 1.84922e-08 0.0005 1.46608e-07 
21 1 0.017876 0.020676 0.0156348 3.32324e-10 0.019096 -0.00746952 5.51982e-16 -4.94789e-09 -1.27149e-08 0.0005 1.46608e-07 
22 1 0.0186229 0.015221 0.0275093 0 -0 -0.03 0 0 0 0.0005 1.46608e-07 
23 1 0.0172321 0.0195895 0.018685 0 -0 -0.03 0 0 0 0.0005 1.46608e-07 
24 1 0.0192011 0.0146137 0.0119516 0.00457664 -0.00140799 0.00238687 6.23787e-08 1.89155e-07 -2.37864e-07 0.0005 1.46608e-07 
25 1 0.0198104 0.0151807 0.0139082 -0.00540716 -0.050549 -0.0894689 0 0 -1.43822e-06 0.0005 1.46608e-07 
26 1 0.0170528 0.0209794 0.0271698 0 -0 -0.03 0 0 0 0.0005 1.46608e-07 
27 1 0.018436 0.0233815 0.0125001 0.00370592 0.00187286 -0.00602051 -2.22634e-07 -2.87401e-08 -7.40688e-07 0.0005 1.46608e-07 
28 1 0.0194779 0.0164716 0.0221537 0 -0 -0.03 0 0 0 0.0005 1.46608e-07 
29 1 0.0170201 0.0185949 0.0227801 0 -0 -0.03 0 0 0 0.0005 1.46608e-07 
30 1 0.0197057 0.0231833 0.0207186 0 -0 -0.03 0 0 0 0.0005 1.46608e-07 
31 1 0.0176572 0.0201024 0.0227676 0 -0 -0.03 0 0 0 0.0005 1.46608e-07 
32 1 0.0188849 0.0222907 0.0202568 0 -0 -0.03 0 0 0 0.0005 1.46608e-07 
33 1 0.0216962 0.0176871 0.016582 -9.56063e-11 0.0239882 0.00619744 -7.47095e-13 4.04144e-09 -1.64195e-08 0.0005 1.46608e-07 
34 1 0.0169024 0.0234085 0.0123747 1.00346e-05 -3.51608e-05 -8.36829e-06 7.83828e-09 1.12549e-08 -1.69393e-08 0.0005 1.46608e-07 
35 1 0.0186023 0.019719 0.0210395 0 -0 -0.03 0 0 0 0.0005 1.46608e-07 
36 1 0.0209989 0.0216441 0.016076 -2.01682e-09 0.0214451 -0.0123769 1.57613e-14 -8.59253e-09 -1.45473e-08 0.0005 1.46608e-07 
37 1 0.0194373 0.0161727 0.0235451 0 -0 -0.03 0 0 0 0.0005 1.46608e-07 
38 1 0.0187283 0.0173021 0.0218884 0 -0 -0.03 0 0 0 0.0005 1.46608e-07 
39 1 0.021847 0.0181461 0.0187627 0 -0 -0.03 0 0 0 0.0005 1.46608e-07 
40 1 0.021592 0.0208962 0.0164388 2.6546e-07 0.0231652 -0.0089475 -7.80365e-11 -6.6473e-09 -1.56794e-08 0.0005 1.46608e-07 
41 1 0.0165344 0.0186388 0.0209174 0 -0 -0.03 0 0 0 0.0005 1.46608e-07 
42 1 0.0203516 0.0173587 0.0190474 0 -0 -0.03 0 0 0 0.0005 1.46608e-07 
43 1 0.0148134 0.0204065 0.0165765 -2.12771e-09 0.0238533 -0.00652339 -4.12199e-15 -4.57332e-09 -1.62351e-08 0.0005 1.46608e-07 
44 1 0.0186277 0.0172272 0.0256135 0 -0 -0.03 0 0 0 0.0005 1.46608e-07 
45 1 0.0220995 0.0220049 0.0158898 5.96369e-08 0.0205576 -0.0140903 1.07216e-14 -1.06853e-08 -1.5567e-08 0.0005 1.46608e-07 
46 1 0.0199787 0.0216175 0.0258397 0 -0 -0.03 0 0 0 0.0005 1.46608e-07 
47 1 0.0222889 0.0184249 0.0238978 0 -0 -0.03 0 0 0 0.0005 1.46608e-07 
48 1 0.0204544 0.0148469 0.026499 0 -0 -0.03 0 0 0 0.0005 1.46608e-07 
49 1 0.017687 0.0174519 0.0190889 0 -0 -0.03 0 0 0 0.0005 1.46608e-07 
50 1 0.0213116 0.0210464 0.022385 0 -0 -0.03 0 0 0 0.0005 1.46608e-07 
51 1 0.0157658 0.0180083 0.0252645 0 -0 -0.03 0 0 0 0.0005 1.46608e-07 
52 1 0.0193938 0.0241081 0.012914 -6.74243e-06 0.00124521 -0.000425116 8.90708e-09 -5.30263e-08 5.38395e-08 0.0005 1.46608e-07 
53 1 0.0228944 0.0203849 0.0182735 0 0 -0.0633197 0 0 -1.43822e-06 0.0005 1.46608e-07 
54 1 0.0182867 0.0221328 0.0214257 0 -0 -0.03 0 0 0 0.0005 1.46608e-07 
55 1 0.0221414 0.0221204 0.0268569 0 -0 -0.03 0 0 0 0.0005 1.46608e-07 
56 1 0.0234002 0.018439 0.0261411 0 -0 -0.03 0 0 0 0.0005 1.46608e-07 
57 1 0.0155233 0.0198826 0.0195294 0 -0 -0.03 0 0 0 0.0005 1.46608e-07 
58 1 0.0177263 0.0239699 0.0128875 -0.00269196 -0.00403237 -0.00886807 6.98102e-08 -1.99315e-07 -1.70011e-08 0.0005 1.46608e-07 
59 1 0.0206845 0.0179397 0.0239692 0 -0 -0.03 0 0 0 0.0005 1.46608e-07 
60 1 0.0177233 0.0234848 0.0118064 6.27472e-05 0.000989984 -0.00243263 3.92293e-07 1.67826e-07 -6.95521e-07 0.0005 1.46608e-07 
61 1 0.0151624 0.0189745 0.0167549 -4.975e-09 0.0247316 0.000509678 -1.25579e-14 4.73738e-10 -1.6867e-08 0.0005 1.46608e-07 
62 1 0.0215346 0.021448 0.0185716 0 -0 -0.03 0 0 0 0.0005 1.46608e-07 
63 1 0.0220639 0.0204455 0.0278369 0 -0 -0.03 0 0 0 0.0005 1.46608e-07 
64 1 0.0203067 0.0156342 0.0212018 0 -0 -0.03 0 0 0 0.0005 1.46608e-07 
65 1 0.0205328 0.015653 0.0229116 0 -0 -0.03 0 0 0 0.0005 1.46608e-07 
66 1 0.022049 0.0186735 0.0255383 0 -0 -0.03 0 0 0 0.0005 1.46608e-07 
67 1 0.0223433 0.0183719 0.0274114 0 -0 -0.03 0 0 0 0.0005 1.46608e-07 
68 1 0.0222009 0.0210111 0.0234827 0 -0 -0.03 0 0 0 0.0005 1.46608e-07 
69 1 0.0174018 0.0210962 0.0244392 0 -0 -0.03 0 0 0 0.0005 1.46608e-07 
70 1 0.0233506 0.0205377 0.0205734 0 -0 -0.03 0 0 0 0.0005 1.46608e-07 
71 1 0.0169242 0.0194627 0.0277031 0 -0 -0.03 0 0 0 0.0005 1.46608e-07 
72 1 0.015107 0.01696 0.0271215 0 -0 -0.03 0 0 0 0.0005 1.46608e-07 
73 1 0.0183301 0.0220896 0.0262795 0 -0 -0.03 0 0 0 0.0005 1.46608e-07 
74 1 0.0181511 0.0229725 0.020468 0 -0 -0.03 0 0 0 0.0005 1.46608e-07 
75 1 0.0180391 0.0196979 0.0260069 0 -0 -0.03 0 0 0 0.0005 1.46608e-07 
