# vtk DataFile Version 3.0
LIGGGHTS particles timestep 39000000
ASCII
DATASET POLYDATA
POINTS 271 float
0.239887 0.0154992 0.00871531
0.240681 0.0178843 0.0069891
0.234971 0.0183975 0.00690857
0.240757 0.0178179 0.00700111
0.239865 0.0154254 0.00877933
0.246296 0.0170049 0.00756024
0.239974 0.015794 0.00845969
0.239844 0.0153537 0.00884557
0.246408 0.0174591 0.00718605
0.240391 0.0173698 0.00718223
0.240525 0.0175682 0.00706906
0.234035 0.0159204 0.00819119
0.239778 0.0151689 0.00907251
0.234695 0.0187579 0.00683834
0.240736 0.0177216 0.00701824
0.234789 0.0187899 0.0068323
0.240852 0.0178477 0.00699161
0.239822 0.0152887 0.00891839
0.240352 0.0171999 0.00728034
0.240505 0.0174832 0.00711799
0.23426 0.0163965 0.00767978
0.246483 0.0178024 0.00703632
0.240039 0.016018 0.00827097
0.246371 0.0173082 0.00731042
0.235053 0.0187898 0.00683278
0.24064 0.017692 0.00702505
0.239994 0.015868 0.00839537
0.240485 0.0176912 0.00711383
0.240059 0.0160891 0.00820349
0.240494 0.0170201 0.00742658
0.246315 0.0170807 0.00749777
0.239951 0.0157204 0.00852328
0.240656 0.0173702 0.00718499
0.246464 0.0177042 0.00703312
0.24053 0.0180145 0.00697935
0.240696 0.0183456 0.00700766
0.246501 0.0179007 0.00703953
0.240873 0.0179453 0.00698704
0.321436 0.0173475 0.00552525
0.24066 0.0177876 0.00700414
0.246334 0.0171565 0.00743532
0.239908 0.0155729 0.0086513
0.240674 0.0182486 0.00699673
0.240102 0.0162365 0.00807537
0.24008 0.0161627 0.00813939
0.233954 0.015703 0.00851444
0.246454 0.0176092 0.00706245
0.240646 0.0179988 0.00705695
0.233887 0.0155492 0.00876308
0.24055 0.0181123 0.00697267
0.246352 0.0172324 0.00737284
0.240486 0.0173982 0.00716689
0.240362 0.0168413 0.00756648
0.240823 0.0181143 0.006998
0.240831 0.0177512 0.00700985
0.246523 0.0179983 0.00704272
0.234205 0.0165403 0.00760046
0.233865 0.0154979 0.00884597
0.240604 0.0179475 0.0069745
0.240526 0.0171753 0.00730464
0.240595 0.0181211 0.00706145
0.246399 0.0173822 0.00724937
0.23393 0.0156522 0.00859696
0.240488 0.0178201 0.00699916
0.240592 0.0183058 0.00699446
0.240653 0.0181514 0.00698579
0.234939 0.0186593 0.00685785
0.240581 0.0174269 0.00715145
0.234675 0.0186616 0.00685693
0.233994 0.0158065 0.00834811
0.240797 0.0180131 0.00698633
0.234808 0.0188864 0.00681365
0.234063 0.0159799 0.00811575
0.234727 0.0184999 0.00688834
0.246426 0.017535 0.00712358
0.234992 0.0184947 0.00688979
0.240892 0.0180428 0.00699785
0.24077 0.0182788 0.00700834
0.240263 0.0168266 0.0075616
0.240749 0.0181817 0.00699742
0.240544 0.0176586 0.00702911
0.235033 0.0186919 0.00685169
0.240631 0.0180535 0.00697471
0.240147 0.0163838 0.00794778
0.240587 0.0177241 0.00710386
0.240445 0.017407 0.00725776
0.240166 0.0164577 0.00788324
0.234319 0.0166547 0.00753684
0.24062 0.0176021 0.00706436
0.234417 0.0171143 0.00736601
0.240727 0.0180846 0.00698649
0.234025 0.0158557 0.00826677
0.0643568 0.0187248 0.00531097
0.24257 0.0191927 0.00520306
0.234621 0.0180318 0.00702455
0.234979 0.0189826 0.00679596
0.234928 0.0182058 0.00694561
0.234906 0.0181124 0.00697444
0.24062 0.0182615 0.00707971
0.240809 0.0176547 0.0070281
0.240188 0.0165314 0.0078195
0.240466 0.0173131 0.00721581
0.234684 0.0183079 0.00692542
0.234284 0.0169026 0.00745128
0.234653 0.0185658 0.00687545
0.240714 0.017626 0.00703782
0.24052 0.0179867 0.00707494
0.240635 0.0185 0.00701631
0.234484 0.0178213 0.00710949
0.240676 0.0174555 0.00713592
0.240016 0.0159416 0.00833126
0.23993 0.0156467 0.00858731
0.240427 0.0171431 0.00731365
0.234442 0.017638 0.00717781
0.240447 0.0172281 0.00726473
0.240717 0.0184427 0.00701858
0.240378 0.016919 0.00750558
0.234902 0.0189189 0.00680752
0.240408 0.0170628 0.00737054
0.240449 0.0176292 0.00704406
0.234949 0.0183017 0.00692709
0.240564 0.0177551 0.00701102
0.24041 0.0174548 0.00713331
0.240399 0.0169931 0.00744175
0.2398 0.0152285 0.00899519
0.234713 0.0188544 0.00681969
0.240125 0.0163107 0.00801253
0.240629 0.0178392 0.00708379
0.2406 0.0175119 0.00710244
0.234706 0.018404 0.00690687
0.234421 0.0175464 0.00721197
0.233908 0.0156008 0.00867996
0.234547 0.0180963 0.00700694
0.23477 0.0186926 0.00685112
0.234512 0.0171417 0.00734921
0.24028 0.0169004 0.00749622
0.0100679 0.0201683 0.00551526
0.234382 0.0173623 0.0072804
0.234752 0.0190483 0.0068114
0.234505 0.0179129 0.00707532
0.234728 0.0177192 0.00712764
0.234663 0.0182159 0.00695871
0.0219312 0.0187687 0.00551176
0.234918 0.0185608 0.00687687
0.240844 0.0182113 0.00700893
0.234526 0.0180047 0.0070411
0.234826 0.0189832 0.00679712
0.234378 0.0169305 0.00743434
0.234717 0.018059 0.00700759
0.240571 0.0182083 0.0069912
0.234437 0.0172062 0.00733184
0.234884 0.0188225 0.00682616
0.234811 0.0180857 0.00699099
0.240509 0.0177854 0.00709051
0.234696 0.0179674 0.00704174
0.240778 0.0179154 0.00699498
0.234749 0.0178109 0.00709348
0.228372 0.0173518 0.00747153
0.234551 0.0173256 0.00728088
0.234476 0.01739 0.00726351
0.234558 0.0177568 0.00712686
0.234844 0.0186269 0.00686395
0.24043 0.0175398 0.0070844
0.234791 0.0179941 0.00702515
0.240484 0.0175772 0.00715986
0.234362 0.0172703 0.00731461
0.240333 0.0171161 0.00733129
0.240512 0.0170986 0.00736753
0.240584 0.0178513 0.00699269
0.228656 0.0185714 0.00684578
0.240542 0.0172569 0.00724919
0.234675 0.0178757 0.0070759
0.240696 0.0175407 0.00708691
0.161461 0.0182058 0.00533758
0.234897 0.0184638 0.00689561
0.23428 0.0164814 0.00763077
0.228433 0.0176131 0.00733737
0.234732 0.0189509 0.00680105
0.234632 0.0184699 0.00689398
0.234264 0.0168107 0.00748545
0.234758 0.0182426 0.00693917
0.240206 0.0166064 0.00775575
0.233974 0.0157578 0.00843315
0.234854 0.0182721 0.00693265
0.234339 0.0167466 0.00750267
0.234456 0.0172981 0.00729768
0.234642 0.0181237 0.00699132
0.23147 0.0180482 0.00708621
0.240371 0.0172847 0.00723115
0.240396 0.0172629 0.00734393
0.23478 0.0183382 0.00691973
0.240508 0.017917 0.00698489
0.240299 0.0169817 0.0074413
0.228636 0.0184842 0.00689015
0.234737 0.0181509 0.00697416
0.240614 0.0184029 0.00700539
0.234112 0.0160242 0.00804067
0.240244 0.0167588 0.00763246
0.234875 0.0183679 0.00691413
0.29446 0.0176644 0.00702892
0.2407 0.0179814 0.00697444
0.2346 0.0179401 0.00705854
0.0148945 0.0180087 0.00774283
0.240561 0.0173419 0.00720029
0.234401 0.0174545 0.00724614
0.228575 0.0182228 0.00702432
0.228393 0.0174389 0.00742681
0.234823 0.0185299 0.00688269
0.234225 0.0166279 0.00755659
0.228352 0.0172647 0.00751625
0.23461 0.0183758 0.00691995
0.240469 0.0177242 0.00701978
0.234832 0.0181775 0.0069568
0.234185 0.0164541 0.00764702
0.234145 0.0162838 0.00774398
0.228184 0.0165688 0.00787311
0.228208 0.0166552 0.00782902
0.228271 0.0169162 0.00769514
0.234463 0.0177297 0.00714365
0.228231 0.0167419 0.00778473
0.228332 0.0171776 0.00756097
0.234978 0.0188549 0.00682005
0.234245 0.0167188 0.00751966
0.228616 0.0183971 0.00693487
0.234531 0.0172336 0.00731504
0.240228 0.0166791 0.00769054
0.228474 0.0177873 0.00724792
0.228677 0.0186694 0.00684435
0.228311 0.0170904 0.00760569
0.234568 0.0181879 0.00697278
0.234654 0.0177841 0.00711006
0.234612 0.0176008 0.00717839
0.234516 0.0175736 0.00719518
0.228494 0.0178744 0.0072032
0.234323 0.0170865 0.00738295
0.234128 0.0162138 0.00781337
0.228291 0.0170033 0.00765041
0.234772 0.019144 0.0068318
0.228413 0.017526 0.00738209
0.234579 0.0178485 0.0070927
0.2343 0.0165663 0.0075817
0.234303 0.0169946 0.00741712
0.234591 0.0175092 0.00721255
0.240319 0.0170781 0.00742276
0.234864 0.0187249 0.00684502
0.228535 0.0180486 0.00711376
0.234123 0.0160915 0.00796753
0.228514 0.0179615 0.00715848
0.234359 0.0168385 0.0074685
0.234342 0.0171784 0.00734878
0.234537 0.0176653 0.00716102
0.234959 0.0187576 0.00683885
0.228555 0.0181357 0.00706904
0.228164 0.0164816 0.00791788
0.234398 0.0170224 0.00740017
0.23477 0.0179025 0.00705932
0.234801 0.018434 0.00690122
0.234633 0.0176925 0.00714423
0.234571 0.0174174 0.00724671
0.23424 0.0163116 0.00772878
0.234749 0.018596 0.00686978
0.234496 0.0174819 0.00722934
0.234589 0.0182795 0.00693862
0.235013 0.0185932 0.00687076
0.234109 0.0161481 0.00788625
0.228596 0.01831 0.0069796
0.234165 0.0163686 0.00769497
0.240543 0.0178893 0.00707568
0.22825 0.0168291 0.00773986
0.228453 0.0177002 0.00729264
0.240343 0.0171942 0.00739281

VERTICES 271 542
1 0
1 1
1 2
1 3
1 4
1 5
1 6
1 7
1 8
1 9
1 10
1 11
1 12
1 13
1 14
1 15
1 16
1 17
1 18
1 19
1 20
1 21
1 22
1 23
1 24
1 25
1 26
1 27
1 28
1 29
1 30
1 31
1 32
1 33
1 34
1 35
1 36
1 37
1 38
1 39
1 40
1 41
1 42
1 43
1 44
1 45
1 46
1 47
1 48
1 49
1 50
1 51
1 52
1 53
1 54
1 55
1 56
1 57
1 58
1 59
1 60
1 61
1 62
1 63
1 64
1 65
1 66
1 67
1 68
1 69
1 70
1 71
1 72
1 73
1 74
1 75
1 76
1 77
1 78
1 79
1 80
1 81
1 82
1 83
1 84
1 85
1 86
1 87
1 88
1 89
1 90
1 91
1 92
1 93
1 94
1 95
1 96
1 97
1 98
1 99
1 100
1 101
1 102
1 103
1 104
1 105
1 106
1 107
1 108
1 109
1 110
1 111
1 112
1 113
1 114
1 115
1 116
1 117
1 118
1 119
1 120
1 121
1 122
1 123
1 124
1 125
1 126
1 127
1 128
1 129
1 130
1 131
1 132
1 133
1 134
1 135
1 136
1 137
1 138
1 139
1 140
1 141
1 142
1 143
1 144
1 145
1 146
1 147
1 148
1 149
1 150
1 151
1 152
1 153
1 154
1 155
1 156
1 157
1 158
1 159
1 160
1 161
1 162
1 163
1 164
1 165
1 166
1 167
1 168
1 169
1 170
1 171
1 172
1 173
1 174
1 175
1 176
1 177
1 178
1 179
1 180
1 181
1 182
1 183
1 184
1 185
1 186
1 187
1 188
1 189
1 190
1 191
1 192
1 193
1 194
1 195
1 196
1 197
1 198
1 199
1 200
1 201
1 202
1 203
1 204
1 205
1 206
1 207
1 208
1 209
1 210
1 211
1 212
1 213
1 214
1 215
1 216
1 217
1 218
1 219
1 220
1 221
1 222
1 223
1 224
1 225
1 226
1 227
1 228
1 229
1 230
1 231
1 232
1 233
1 234
1 235
1 236
1 237
1 238
1 239
1 240
1 241
1 242
1 243
1 244
1 245
1 246
1 247
1 248
1 249
1 250
1 251
1 252
1 253
1 254
1 255
1 256
1 257
1 258
1 259
1 260
1 261
1 262
1 263
1 264
1 265
1 266
1 267
1 268
1 269
1 270

POINT_DATA 271
SCALARS id int 1
LOOKUP_TABLE default
1
2
3
4
5
6
7
8
9
10
11
12
13
14
15
16
17
19
21
22
23
24
25
26
27
28
29
30
31
32
33
34
35
36
37
38
39
41
42
44
45
47
48
50
51
52
53
54
55
56
57
59
61
62
63
64
65
66
67
68
69
70
71
72
73
74
76
77
78
79
80
81
82
83
84
85
86
87
88
89
90
91
92
93
94
95
96
97
98
99
100
101
102
103
104
105
106
107
108
109
110
111
112
113
114
115
116
117
118
119
120
121
122
123
124
125
126
127
128
129
131
132
133
134
135
136
137
138
140
141
142
143
144
147
148
149
150
151
153
154
155
156
157
158
159
160
162
164
165
166
168
169
170
171
172
173
174
175
177
178
179
181
182
183
184
186
187
188
189
190
191
192
193
194
195
196
197
198
199
201
202
203
204
205
206
207
208
209
210
211
212
213
214
215
216
217
218
219
220
221
222
223
224
225
226
227
228
229
230
231
232
234
235
236
237
239
240
241
242
244
246
247
248
249
250
251
252
253
254
255
256
257
258
259
261
262
263
264
265
266
267
268
269
270
271
272
273
274
275
276
277
278
280
283
284
285
286
287
288
289
290
291
292
293
294
295
296
297
298
299
300

SCALARS type int 1
LOOKUP_TABLE default
1
1
1
1
1
1
1
1
1
1
1
1
1
1
1
1
1
1
1
1
1
1
1
1
1
1
1
1
1
1
1
1
1
1
1
1
1
1
1
1
1
1
1
1
1
1
1
1
1
1
1
1
1
1
1
1
1
1
1
1
1
1
1
1
1
1
1
1
1
1
1
1
1
1
1
1
1
1
1
1
1
1
1
1
1
1
1
1
1
1
1
1
1
1
1
1
1
1
1
1
1
1
1
1
1
1
1
1
1
1
1
1
1
1
1
1
1
1
1
1
1
1
1
1
1
1
1
1
1
1
1
1
1
1
1
1
1
1
1
1
1
1
1
1
1
1
1
1
1
1
1
1
1
1
1
1
1
1
1
1
1
1
1
1
1
1
1
1
1
1
1
1
1
1
1
1
1
1
1
1
1
1
1
1
1
1
1
1
1
1
1
1
1
1
1
1
1
1
1
1
1
1
1
1
1
1
1
1
1
1
1
1
1
1
1
1
1
1
1
1
1
1
1
1
1
1
1
1
1
1
1
1
1
1
1
1
1
1
1
1
1
1
1
1
1
1
1
1
1
1
1
1
1
1
1
1
1
1
1
1
1
1
1
1
1
1
1
1
1
1
1

SCALARS radius float 1
LOOKUP_TABLE default
5e-05
5e-05
5e-05
5e-05
5e-05
5e-05
5e-05
5e-05
5e-05
5e-05
5e-05
5e-05
5e-05
5e-05
5e-05
5e-05
5e-05
5e-05
5e-05
5e-05
5e-05
5e-05
5e-05
5e-05
5e-05
5e-05
5e-05
5e-05
5e-05
5e-05
5e-05
5e-05
5e-05
5e-05
5e-05
5e-05
5e-05
5e-05
5e-05
5e-05
5e-05
5e-05
5e-05
5e-05
5e-05
5e-05
5e-05
5e-05
5e-05
5e-05
5e-05
5e-05
5e-05
5e-05
5e-05
5e-05
5e-05
5e-05
5e-05
5e-05
5e-05
5e-05
5e-05
5e-05
5e-05
5e-05
5e-05
5e-05
5e-05
5e-05
5e-05
5e-05
5e-05
5e-05
5e-05
5e-05
5e-05
5e-05
5e-05
5e-05
5e-05
5e-05
5e-05
5e-05
5e-05
5e-05
5e-05
5e-05
5e-05
5e-05
5e-05
5e-05
5e-05
5e-05
5e-05
5e-05
5e-05
5e-05
5e-05
5e-05
5e-05
5e-05
5e-05
5e-05
5e-05
5e-05
5e-05
5e-05
5e-05
5e-05
5e-05
5e-05
5e-05
5e-05
5e-05
5e-05
5e-05
5e-05
5e-05
5e-05
5e-05
5e-05
5e-05
5e-05
5e-05
5e-05
5e-05
5e-05
5e-05
5e-05
5e-05
5e-05
5e-05
5e-05
5e-05
5e-05
5e-05
5e-05
5e-05
5e-05
5e-05
5e-05
5e-05
5e-05
5e-05
5e-05
5e-05
5e-05
5e-05
5e-05
5e-05
5e-05
5e-05
5e-05
5e-05
5e-05
5e-05
5e-05
5e-05
5e-05
5e-05
5e-05
5e-05
5e-05
5e-05
5e-05
5e-05
5e-05
5e-05
5e-05
5e-05
5e-05
5e-05
5e-05
5e-05
5e-05
5e-05
5e-05
5e-05
5e-05
5e-05
5e-05
5e-05
5e-05
5e-05
5e-05
5e-05
5e-05
5e-05
5e-05
5e-05
5e-05
5e-05
5e-05
5e-05
5e-05
5e-05
5e-05
5e-05
5e-05
5e-05
5e-05
5e-05
5e-05
5e-05
5e-05
5e-05
5e-05
5e-05
5e-05
5e-05
5e-05
5e-05
5e-05
5e-05
5e-05
5e-05
5e-05
5e-05
5e-05
5e-05
5e-05
5e-05
5e-05
5e-05
5e-05
5e-05
5e-05
5e-05
5e-05
5e-05
5e-05
5e-05
5e-05
5e-05
5e-05
5e-05
5e-05
5e-05
5e-05
5e-05
5e-05
5e-05
5e-05
5e-05
5e-05
5e-05
5e-05
5e-05
5e-05
5e-05
5e-05
5e-05
5e-05
5e-05
5e-05
5e-05
5e-05
5e-05
5e-05
5e-05
5e-05
5e-05
5e-05
5e-05
5e-05
5e-05
5e-05
5e-05
5e-05
5e-05

SCALARS mass float 1
LOOKUP_TABLE default
1.46608e-10
1.46608e-10
1.46608e-10
1.46608e-10
1.46608e-10
1.46608e-10
1.46608e-10
1.46608e-10
1.46608e-10
1.46608e-10
1.46608e-10
1.46608e-10
1.46608e-10
1.46608e-10
1.46608e-10
1.46608e-10
1.46608e-10
1.46608e-10
1.46608e-10
1.46608e-10
1.46608e-10
1.46608e-10
1.46608e-10
1.46608e-10
1.46608e-10
1.46608e-10
1.46608e-10
1.46608e-10
1.46608e-10
1.46608e-10
1.46608e-10
1.46608e-10
1.46608e-10
1.46608e-10
1.46608e-10
1.46608e-10
1.46608e-10
1.46608e-10
1.46608e-10
1.46608e-10
1.46608e-10
1.46608e-10
1.46608e-10
1.46608e-10
1.46608e-10
1.46608e-10
1.46608e-10
1.46608e-10
1.46608e-10
1.46608e-10
1.46608e-10
1.46608e-10
1.46608e-10
1.46608e-10
1.46608e-10
1.46608e-10
1.46608e-10
1.46608e-10
1.46608e-10
1.46608e-10
1.46608e-10
1.46608e-10
1.46608e-10
1.46608e-10
1.46608e-10
1.46608e-10
1.46608e-10
1.46608e-10
1.46608e-10
1.46608e-10
1.46608e-10
1.46608e-10
1.46608e-10
1.46608e-10
1.46608e-10
1.46608e-10
1.46608e-10
1.46608e-10
1.46608e-10
1.46608e-10
1.46608e-10
1.46608e-10
1.46608e-10
1.46608e-10
1.46608e-10
1.46608e-10
1.46608e-10
1.46608e-10
1.46608e-10
1.46608e-10
1.46608e-10
1.46608e-10
1.46608e-10
1.46608e-10
1.46608e-10
1.46608e-10
1.46608e-10
1.46608e-10
1.46608e-10
1.46608e-10
1.46608e-10
1.46608e-10
1.46608e-10
1.46608e-10
1.46608e-10
1.46608e-10
1.46608e-10
1.46608e-10
1.46608e-10
1.46608e-10
1.46608e-10
1.46608e-10
1.46608e-10
1.46608e-10
1.46608e-10
1.46608e-10
1.46608e-10
1.46608e-10
1.46608e-10
1.46608e-10
1.46608e-10
1.46608e-10
1.46608e-10
1.46608e-10
1.46608e-10
1.46608e-10
1.46608e-10
1.46608e-10
1.46608e-10
1.46608e-10
1.46608e-10
1.46608e-10
1.46608e-10
1.46608e-10
1.46608e-10
1.46608e-10
1.46608e-10
1.46608e-10
1.46608e-10
1.46608e-10
1.46608e-10
1.46608e-10
1.46608e-10
1.46608e-10
1.46608e-10
1.46608e-10
1.46608e-10
1.46608e-10
1.46608e-10
1.46608e-10
1.46608e-10
1.46608e-10
1.46608e-10
1.46608e-10
1.46608e-10
1.46608e-10
1.46608e-10
1.46608e-10
1.46608e-10
1.46608e-10
1.46608e-10
1.46608e-10
1.46608e-10
1.46608e-10
1.46608e-10
1.46608e-10
1.46608e-10
1.46608e-10
1.46608e-10
1.46608e-10
1.46608e-10
1.46608e-10
1.46608e-10
1.46608e-10
1.46608e-10
1.46608e-10
1.46608e-10
1.46608e-10
1.46608e-10
1.46608e-10
1.46608e-10
1.46608e-10
1.46608e-10
1.46608e-10
1.46608e-10
1.46608e-10
1.46608e-10
1.46608e-10
1.46608e-10
1.46608e-10
1.46608e-10
1.46608e-10
1.46608e-10
1.46608e-10
1.46608e-10
1.46608e-10
1.46608e-10
1.46608e-10
1.46608e-10
1.46608e-10
1.46608e-10
1.46608e-10
1.46608e-10
1.46608e-10
1.46608e-10
1.46608e-10
1.46608e-10
1.46608e-10
1.46608e-10
1.46608e-10
1.46608e-10
1.46608e-10
1.46608e-10
1.46608e-10
1.46608e-10
1.46608e-10
1.46608e-10
1.46608e-10
1.46608e-10
1.46608e-10
1.46608e-10
1.46608e-10
1.46608e-10
1.46608e-10
1.46608e-10
1.46608e-10
1.46608e-10
1.46608e-10
1.46608e-10
1.46608e-10
1.46608e-10
1.46608e-10
1.46608e-10
1.46608e-10
1.46608e-10
1.46608e-10
1.46608e-10
1.46608e-10
1.46608e-10
1.46608e-10
1.46608e-10
1.46608e-10
1.46608e-10
1.46608e-10
1.46608e-10
1.46608e-10
1.46608e-10
1.46608e-10
1.46608e-10
1.46608e-10
1.46608e-10
1.46608e-10
1.46608e-10
1.46608e-10
1.46608e-10
1.46608e-10
1.46608e-10
1.46608e-10
1.46608e-10
1.46608e-10
1.46608e-10
1.46608e-10
1.46608e-10
1.46608e-10
1.46608e-10
1.46608e-10
1.46608e-10
1.46608e-10
1.46608e-10
1.46608e-10
1.46608e-10

VECTORS velocity float
0.00593235 -1.60684e-05 0.00116156
0.00586161 -0.000756897 0.000253096
0.00619414 -0.000545697 0.000116735
0.00569207 -0.000674786 0.000444472
0.00594324 -2.72324e-05 0.00116832
0.00539454 1.61937e-05 -2.77919e-05
0.0058715 1.44562e-06 0.00112455
0.00596391 -0.000177142 0.00102329
0.00562073 -1.9457e-05 8.72306e-07
0.00554602 -0.000524946 0.000367258
0.00555663 -0.000563836 0.00038615
0.00558125 -0.00050297 -3.9995e-05
0.00594144 -0.000538803 0.000728418
0.00556342 -0.000315974 7.15231e-05
0.00559859 -0.000657031 0.000435212
0.00554897 -0.000287445 6.47395e-05
0.00569047 -0.000768097 0.000107489
0.00596889 -0.000436814 0.000800359
0.00551724 -0.00043661 0.000475791
0.00553759 -0.00055424 0.000384355
0.00564857 -0.000235408 0.00019921
0.00564428 -2.29374e-05 1.01148e-05
0.00581524 9.05221e-07 0.00111813
0.00553646 -4.75055e-06 -1.07417e-05
0.00614217 5.99969e-05 -2.09656e-06
0.00554076 -0.000663429 0.000237785
0.00584802 2.09726e-06 0.00112034
0.00563877 -0.000527338 0.000231989
0.00580174 -7.09134e-07 0.00111625
0.00545666 -6.78986e-05 0.00110944
0.00543239 1.06589e-05 -2.32067e-05
0.00587708 -8.93885e-07 0.00112699
0.00552102 -0.000522424 0.000364627
0.00568853 -3.13246e-05 9.85802e-06
0.00592434 -0.000678551 0.000382668
0.00600171 -0.000660829 0.000492137
0.00560013 -1.49619e-05 1.02095e-05
0.00585447 -0.00078687 0.000467299
4.56835e-16 2.2566e-15 8.4636e-14
0.00568262 -0.000733756 0.000104177
0.00547023 4.92328e-06 -1.88323e-05
0.00590204 -9.81473e-06 0.00114486
0.00602346 -0.000672038 0.000493477
0.00575527 2.49652e-06 0.00110384
0.00578228 -6.781e-07 0.00111112
0.00602637 -0.000684192 -7.14372e-05
0.00567509 -2.98382e-05 1.00089e-05
0.00601958 -0.000740889 0.000487153
0.00594446 -0.000674173 -7.08594e-05
0.00605989 -0.00069629 0.000497269
0.00550804 -5.53098e-07 -1.42423e-05
0.00553848 -0.000545369 0.000376115
0.00541888 -5.08877e-05 0.0010879
0.00596333 -0.00074304 0.000480939
0.00561633 -0.000802654 0.000113613
0.0060939 -0.000124221 7.64795e-06
0.00565286 -0.000341734 -8.85127e-06
0.00593004 -0.000675361 -6.71557e-05
0.00589432 -0.000686534 8.98251e-05
0.00546333 -0.000612411 0.000374754
0.00605676 -0.000704108 0.000492064
0.00559188 -1.74505e-05 -6.34671e-07
0.00596493 -0.000672483 -7.86031e-05
0.00555662 -0.000627892 8.67677e-05
0.0060179 -0.000674753 0.000491516
0.00602828 -0.000668151 0.000492226
0.00615476 0.000115798 -1.20243e-05
0.00546906 -0.000580334 0.000400164
0.00622149 -0.00045368 9.70532e-05
0.00605164 -0.000684683 -7.59164e-05
0.00596002 -0.000725106 0.000482522
0.00560504 -0.000294478 6.36916e-05
0.00534478 -0.000314945 2.80418e-05
0.00618383 -0.000447075 9.74043e-05
0.00563928 -2.21585e-05 3.03483e-06
0.00653361 -1.78201e-06 1.18637e-05
0.00590996 -0.000796495 0.00047119
0.00599839 -0.000665338 0.000491468
0.00540031 4.49695e-05 0.000991279
0.0060268 -0.000671796 0.000493498
0.00555273 -0.000650285 8.54808e-05
0.00602649 3.71481e-05 3.53857e-06
0.00604088 -0.000717308 0.000492035
0.00566547 1.25662e-05 0.00107472
0.00561637 -0.000467315 0.000210269
0.00555505 -0.000518014 0.000370447
0.00557333 2.54437e-05 0.00105442
0.00557245 -0.000399644 -0.000272138
0.00549238 -0.000585584 0.000393249
0.00552093 -0.000405382 -0.000266375
0.00602059 -0.000669666 0.000492599
0.00583511 -0.000629054 -0.000121021
4.53002e-15 1.04374e-14 8.29541e-14
-1.23235e-22 4.89458e-22 -5.81428e-22
0.00607664 -0.000509751 -0.00024782
0.00549274 -0.000247675 -8.25136e-05
0.00614249 -0.000479667 9.59249e-05
0.0061253 -0.000593428 -0.000249218
0.00602045 -0.000670198 0.000492773
0.00552819 -0.000783985 0.00011261
0.00548492 3.2408e-05 0.00102387
0.00553316 -0.000532523 0.000370219
0.00619763 -0.000398874 9.43649e-05
0.00546838 -0.000410232 -0.00026136
0.00621897 -0.000421 9.41737e-05
0.00552179 -0.000642051 0.000432428
0.00590438 -0.000823657 0.000344268
0.00597813 -0.000655973 0.000490541
0.00597446 -0.000483372 -0.000272662
0.00554864 -0.000562653 0.000389977
0.00582699 1.12328e-06 0.00111653
0.0058702 -2.91912e-06 0.00112976
0.00550557 -0.000509551 0.000354266
0.00591277 -0.000474307 -0.00027116
0.00552116 -0.000518404 0.000360878
0.00598925 -0.000652041 0.000491881
0.00542028 -4.90645e-05 0.00107574
0.00567124 -0.000413042 9.44718e-05
0.00549802 -3.20817e-05 0.0010843
0.00557499 -0.000578239 0.000325195
0.00614889 -0.000506042 0.000107645
0.00557352 -0.000624388 0.000140854
0.00555363 -0.000537905 0.000374015
0.00544636 -4.45602e-05 0.00107604
0.0059578 -0.000535479 0.000724965
0.00564276 -0.000327954 7.24748e-05
0.00573104 2.31264e-07 0.0010889
0.00600175 -0.000664712 0.000180352
0.00552311 -0.000591987 0.000406573
0.0062088 -0.000397924 8.9708e-05
0.00549272 -0.000368263 -0.000274791
0.00597018 -0.000675478 -7.35916e-05
0.0060894 -0.00046927 -0.000286851
0.00607367 -6.53262e-06 1.18051e-05
0.005525 -0.000413083 -0.000264099
0.0054194 4.09306e-05 0.000996068
8.3853e-15 1.24148e-15 -8.48744e-14
0.00553671 -0.000252574 -0.000322062
0.00573237 -0.000274026 -0.000206769
0.00601399 -0.000491436 -0.000273091
0.0059428 -0.000545662 -0.000247512
0.00617545 -0.000431286 1.6695e-05
-3.83232e-14 8.17151e-14 2.95876e-13
0.00639522 -0.000122222 3.38513e-05
0.0059355 -0.000734541 0.000479408
0.00605278 -0.000486446 -0.00027756
0.00573189 -0.00033717 -4.78349e-05
0.0054095 -0.000376648 -0.000268484
0.00610305 -0.000539198 -0.000232006
0.00602648 -0.000680626 0.000491097
0.00551113 -0.000394785 -0.000269519
0.00555973 -0.000390684 8.56744e-05
0.00611154 -0.000577501 -0.000258338
0.00557156 -0.000535026 0.000129752
0.00605405 -0.000540339 -0.000251623
0.00582654 -0.000700263 0.000466107
0.00598445 -0.000557357 -0.00024609
0.00570281 0.000142935 0.00033171
0.00550395 -0.000413194 -0.000262498
0.00554057 -0.000387773 -0.000274344
0.00596734 -0.000490526 -0.000269022
0.00616054 -0.000170707 4.38473e-05
0.0055621 -0.000548586 0.000375789
0.00608068 -0.00057037 -0.000246383
0.00553745 -0.000534939 0.000381389
0.00551283 -0.000389411 -0.000271793
0.00550545 -0.000303265 0.000688796
0.0055704 -0.000698943 0.000299443
0.00568297 -0.000649347 7.97553e-05
0.00630796 -0.000259381 -0.000227651
0.00547221 -0.000587989 0.000402263
0.0060124 -0.000533554 -0.000258788
0.00545015 -0.000625698 0.000425075
1.54842e-15 -1.10131e-14 8.6668e-14
0.00623832 -0.000481209 0.00010374
0.00565768 -0.00023866 0.000199311
0.00582219 0.000118591 0.000347103
0.00571043 -0.000327037 7.37963e-05
0.00620929 -0.000397102 9.0123e-05
0.00547519 -0.000415992 -0.000258872
0.00616335 -0.000515643 -0.000281117
0.0054207 3.98454e-05 0.00100811
0.00618359 -0.000696423 -4.66791e-05
0.00615168 -0.000468456 0.000107115
0.00548264 -0.000383768 -0.000271031
0.00549411 -0.000383615 -0.000272186
0.00612539 -0.000477886 -0.00013382
0.00551171 -0.000649232 0.00032628
0.00552953 -0.000508082 0.00036774
0.00546755 4.63091e-06 7.97365e-05
0.00618346 -0.000429974 9.74331e-05
0.0056669 -0.000637173 0.000158828
0.00544076 1.19225e-05 0.0009647
0.00631195 7.44803e-05 0.000414418
0.00614968 -0.000524573 -0.000178466
0.0059992 -0.000663082 0.000491508
0.00532438 -0.000174042 0.000107204
0.00535676 4.17135e-05 0.000979813
0.00616626 -0.000471801 0.000101266
0.00581545 0.000583646 -0.00063778
0.00599202 -0.000755812 0.000478901
0.00603734 -0.000510353 -0.000274318
-1.02283e-09 -0.0232141 0.00645606
0.00546345 -0.000582306 0.000398106
0.00549858 -0.000382496 -0.000271941
0.00616485 7.87949e-05 0.000404486
0.00575085 0.000127028 0.000346232
0.00627195 -0.000434218 9.43294e-05
0.00560036 -0.000407003 -0.000158144
0.00565667 0.000153319 0.000326973
0.00620138 -0.000382889 9.2628e-05
0.00557009 -0.000605853 0.000203716
0.00617014 -0.000578952 -0.000236912
0.00564907 -0.000269409 0.000113062
0.0056188 -0.000209894 0.000176007
0.00567416 0.000153378 0.000329579
0.00626815 5.0241e-05 0.000422918
0.00545944 0.000171816 0.000296656
0.00594625 -0.000477497 -0.000272478
0.00531497 0.000211786 0.000268741
0.00561168 0.0001579 0.000317256
0.00579526 -0.000295498 6.86969e-05
0.00551766 -0.000425172 -0.000250383
0.00627436 8.25283e-05 0.000399601
0.00551115 -0.000412695 -0.000263292
0.0053899 4.14265e-05 0.000994467
0.00595088 0.000127868 0.000361706
0.00562046 -0.000106723 -0.000206751
0.00556066 0.000161645 0.000315242
0.00613111 -0.000460628 -0.000292018
0.00597235 -0.000525221 -0.000257166
0.00585782 -0.000497055 -0.000258815
0.00583697 -0.000451832 -0.000273454
0.00598066 0.000106457 0.000368417
0.00551569 -0.000408374 -0.000264803
0.00560047 -0.00019742 0.000162532
0.00550682 0.000162355 0.000308398
0.00573309 -0.000300104 -0.000106677
0.00579024 0.000114653 0.000356879
0.00600111 -0.000500634 -0.000269678
0.00564472 -0.000219512 0.00018513
0.0054928 -0.000409612 -0.000263063
0.0057237 -0.000465808 -0.000260154
0.00544434 -2.66034e-05 0.000790664
0.00605867 3.09384e-05 3.58372e-06
0.00607931 9.36948e-05 0.000387592
0.00542959 -0.000195889 0.000118148
0.00602387 9.60369e-05 0.000382996
0.00539749 -0.000370122 -0.000269922
0.00551614 -0.000384871 -0.000272972
0.00593966 -0.000480013 -0.000271271
0.00606577 0.000105408 -1.02789e-05
0.00613388 8.9212e-05 0.000390912
0.00574086 0.000145852 0.000334752
0.00549069 -0.000396724 -0.000267278
0.00603956 -0.000563837 -0.000247964
0.0061616 -0.000469346 0.000101547
0.00593975 -0.00051659 -0.000258277
0.00558373 -0.000432882 -0.000261403
0.00562559 -0.000232898 0.000191764
0.00626495 -0.000425545 9.23154e-05
0.00567008 -0.000413307 -0.000274745
0.00614765 -0.000531859 -0.000266217
0.0059155 -0.000295061 6.77172e-05
0.00551169 -0.000192026 0.000123487
0.00621145 7.46229e-05 0.000403258
0.00562605 -0.00022 0.000178162
0.0059138 -0.00081779 0.000229625
0.00542711 0.000194322 0.000286032
0.00590743 0.000142622 0.000354329
0.00549745 8.70633e-05 0.000201554

VECTORS force float
-9.9167e-12 -7.94711e-11 9.30215e-11
-4.87905e-12 -2.84777e-11 1.20988e-12
-1.07326e-10 -9.25786e-11 2.31156e-11
-1.98908e-11 2.32006e-11 1.3201e-11
-1.4491e-10 -2.69258e-11 3.28651e-11
4.53103e-13 2.18814e-13 -1.03464e-14
-2.23862e-11 -1.4267e-10 1.24324e-10
5.91683e-11 -1.42537e-10 -1.81462e-10
-6.10133e-14 2.03715e-12 1.09369e-12
6.5743e-12 -4.6837e-11 -5.19424e-12
1.77242e-10 3.83045e-11 1.28355e-11
8.40437e-11 1.41252e-11 -5.89186e-11
3.58989e-11 1.76894e-10 -2.44876e-10
-2.24497e-10 -2.30391e-10 1.82473e-11
3.703e-12 8.63435e-12 -2.31579e-11
-2.22562e-10 -6.16861e-11 2.90951e-11
1.41718e-11 -4.66008e-11 -1.17377e-11
1.37147e-10 -1.02476e-10 -2.67491e-10
-2.91609e-11 -9.85406e-11 -1.48975e-10
2.00083e-10 1.68886e-11 2.31372e-11
-4.86725e-11 -5.91311e-11 4.57563e-11
-5.33085e-13 7.78664e-13 3.2639e-12
-5.4733e-13 -6.2839e-11 1.18462e-11
8.32744e-13 -4.97701e-12 -6.3764e-12
-3.87575e-10 3.55052e-10 -1.00276e-10
4.20771e-11 1.92768e-11 5.40297e-13
-4.55647e-11 -1.08804e-10 9.31352e-11
1.6074e-10 1.61943e-10 1.03537e-10
1.05458e-11 -3.31487e-11 -1.53031e-11
-2.45832e-11 8.71834e-11 -1.87854e-10
2.11746e-12 -2.12946e-14 -3.91889e-13
-1.19872e-10 -1.56638e-10 1.33501e-10
-1.89779e-10 -9.70285e-11 8.80368e-11
-8.81181e-14 -1.03885e-13 -9.54815e-12
1.24528e-10 -1.57015e-10 -1.67282e-10
-1.61962e-11 5.54349e-12 -6.72952e-13
3.16088e-13 5.65689e-13 -8.38963e-13
-9.27447e-12 -2.62777e-11 2.33436e-11
-3.89082e-23 -5.55762e-25 2.06795e-25
5.10186e-11 4.97452e-12 2.98821e-12
-1.04376e-12 -1.06561e-12 -8.24637e-13
-2.51503e-11 -1.14241e-10 1.23231e-10
2.36859e-11 1.79775e-11 6.67751e-12
1.45263e-11 3.4285e-11 -7.7247e-11
-4.21716e-12 2.48216e-11 -1.64254e-11
-1.04217e-10 1.41751e-10 -1.86605e-10
1.89849e-12 4.31014e-12 5.74572e-12
4.30097e-11 -1.1794e-10 -3.77427e-11
-3.77928e-11 1.75569e-10 -2.6742e-10
-3.38831e-11 -1.3297e-10 -1.15455e-11
1.54533e-12 3.40298e-12 3.94428e-12
4.43824e-11 -1.11253e-11 5.78109e-11
-1.28849e-10 3.97556e-11 -1.35301e-10
1.90434e-11 -2.10494e-11 -2.62736e-13
-5.04834e-11 -7.88728e-13 3.18204e-11
1.09235e-12 -2.21299e-13 -2.6939e-13
2.09975e-11 7.06439e-11 1.47994e-10
2.55826e-11 1.78509e-10 -2.67331e-10
3.8178e-11 -9.36004e-11 2.0459e-13
-7.75405e-11 2.2956e-10 1.6887e-11
-2.20007e-10 -2.42014e-12 1.88222e-11
-1.56312e-12 4.16007e-12 3.77296e-12
-1.06002e-10 1.41779e-10 -1.96822e-10
-3.40258e-11 -3.22979e-11 -6.18984e-11
-1.86196e-12 -2.40745e-11 -7.60815e-13
-1.18288e-10 -1.49624e-10 -1.55227e-11
-1.59677e-09 3.06064e-10 -7.52855e-11
-9.96463e-11 -1.40803e-11 8.78616e-12
3.40863e-10 -2.28708e-10 2.30229e-11
8.71264e-12 9.2042e-11 -1.27781e-10
8.06477e-11 2.28803e-11 2.23139e-11
1.88691e-10 -2.5447e-11 5.56533e-11
8.99289e-11 -6.40622e-11 -2.56276e-11
1.97824e-10 2.02202e-10 -4.73823e-11
1.43269e-12 -5.7727e-12 -8.62659e-12
3.28091e-10 -1.26753e-09 2.48795e-10
-5.6592e-11 -4.75321e-11 -8.17026e-12
7.27041e-12 3.08828e-11 1.64355e-12
-8.27938e-11 2.05519e-10 -1.38529e-10
6.13226e-11 1.26884e-11 1.5392e-11
-4.18088e-11 1.15956e-11 -1.89041e-11
1.00593e-09 8.32102e-11 -2.34056e-11
-1.93407e-11 -1.12089e-10 -2.05406e-11
2.57725e-10 1.13265e-10 -4.25535e-11
6.37486e-11 1.34674e-10 -4.99389e-12
-1.9544e-10 -1.88609e-10 1.19531e-10
1.2471e-10 1.18851e-10 -4.55905e-11
4.02543e-11 1.86584e-10 -7.07286e-11
-3.0157e-11 -3.64043e-11 -1.46211e-10
3.52893e-11 -2.20583e-11 6.86208e-12
1.86404e-11 -1.2577e-11 9.99161e-12
-1.1266e-10 8.28208e-11 -9.48276e-11
8.40364e-23 5.55116e-22 -7.17579e-23
0.0 2.58494e-26 0.0
-9.84674e-11 1.73469e-10 4.10233e-10
-1.61784e-10 -7.70759e-11 -3.30727e-11
1.01057e-10 2.01432e-11 2.34198e-10
-2.27731e-10 -3.93813e-11 -1.11781e-10
2.41644e-11 6.64303e-11 1.78753e-11
6.73932e-11 5.10959e-11 -2.19e-11
3.99692e-12 9.13751e-11 -8.15955e-11
-2.52991e-11 -4.21703e-11 7.04748e-12
7.95345e-11 2.08706e-10 -7.72543e-11
-1.51796e-10 3.25582e-11 6.97832e-12
8.62698e-11 -1.47568e-10 9.39775e-11
3.82802e-11 -9.38292e-12 -2.32158e-11
5.54058e-11 -1.009e-11 -5.04303e-11