# vtk DataFile Version 3.0
LIGGGHTS particles timestep 19000000
ASCII
DATASET POLYDATA
POINTS 287 float
0.123632 0.0163565 0.00773473
0.124095 0.0176286 0.00707643
0.11735 0.015833 0.00851339
0.123944 0.0177582 0.00705495
0.123516 0.0162439 0.00779802
0.129577 0.0165461 0.00777553
0.123695 0.0170053 0.00735298
0.123418 0.0159091 0.00815447
0.129824 0.0176159 0.00715721
0.123637 0.0167513 0.00750148
0.124156 0.017817 0.00703841
0.117567 0.0165396 0.0078402
0.123497 0.0161671 0.00785903
0.117263 0.0155507 0.00878226
0.123829 0.0172036 0.00723953
0.117242 0.01548 0.00884959
0.123617 0.0166667 0.00755097
0.129707 0.0170554 0.00732859
0.123478 0.0161011 0.00793162
0.123612 0.0162719 0.00778412
0.123733 0.0171748 0.00725388
0.117759 0.0169161 0.00747499
0.129765 0.0173346 0.00724321
0.123676 0.0169206 0.00740252
0.129652 0.0168216 0.00749561
0.117646 0.0168239 0.00757013
0.123926 0.0176618 0.00707398
0.123459 0.016037 0.00800596
0.123981 0.0175004 0.00710433
0.123714 0.01709 0.00730343
0.123809 0.0171189 0.00728903
0.129596 0.0166148 0.00770546
0.123597 0.016582 0.00760045
0.12379 0.0170342 0.00733855
0.129863 0.0178064 0.00711234
0.123751 0.0168647 0.00743762
0.123923 0.0172326 0.00722503
0.129785 0.0174284 0.00721453
0.123557 0.0164129 0.00769931
0.123753 0.0172663 0.00721878
0.123942 0.0173173 0.00717542
0.129615 0.0166835 0.00763539
0.129687 0.0169617 0.00735724
0.123578 0.0164974 0.00764993
0.123791 0.0174395 0.00712627
0.12967 0.0168915 0.0074264
0.12385 0.0177261 0.00706329
0.123831 0.0176324 0.00709261
0.117546 0.0164689 0.00790753
0.129728 0.0171522 0.00731476
0.123592 0.0161873 0.00783356
0.117307 0.0156921 0.0086476
0.123771 0.0169495 0.00738808
0.129634 0.0167523 0.00756529
0.123846 0.0168937 0.00742313
0.123865 0.0169785 0.00737359
0.123537 0.01633 0.00775149
0.12396 0.0174042 0.00712697
0.123886 0.0174707 0.00711749
0.129745 0.0172408 0.00727189
0.117685 0.0166304 0.00774596
0.11762 0.0164171 0.00794913
0.124114 0.0177281 0.00705666
0.12402 0.0176938 0.00706553
0.123692 0.0166107 0.00758611
0.129804 0.0175222 0.00718587
0.117285 0.0156214 0.00871493
0.124001 0.0175966 0.00708488
0.123656 0.0168359 0.007452
0.123847 0.0172885 0.00718983
0.117871 0.0174084 0.00717597
0.123955 0.0182356 0.00696185
0.117373 0.0159035 0.00844613
0.117589 0.0166103 0.00777285
0.123888 0.0179134 0.00711305
0.117524 0.0163983 0.00797485
0.117664 0.016896 0.00750328
0.117722 0.0164406 0.00791859
0.129843 0.0177097 0.00712854
0.117489 0.0159925 0.00835368
0.123906 0.017566 0.00709475
0.123826 0.0168089 0.00747271
0.123895 0.0179474 0.00701924
0.123959 0.0180031 0.00708015
0.124076 0.0175312 0.00709581
0.117609 0.0166813 0.00770539
0.124099 0.0179777 0.00700854
0.124013 0.0180292 0.00700057
0.124161 0.0182669 0.00695092
0.124105 0.0180444 0.00708404
0.124118 0.018074 0.00698939
0.117481 0.0162592 0.00811194
0.123914 0.0180436 0.0070001
0.117664 0.0165587 0.00781425
0.124036 0.0173478 0.00716007
0.117598 0.0163464 0.00801651
0.0643568 0.0187248 0.00531097
0.24257 0.0191927 0.00520306
0.117947 0.0173456 0.00719378
0.117437 0.0161157 0.00824408
0.11802 0.017287 0.00722753
0.117394 0.0159743 0.00837874
0.123731 0.01678 0.00748714
0.123811 0.0175351 0.0071038
0.124039 0.0186136 0.00688645
0.124097 0.0184148 0.00692371
0.117502 0.0163276 0.00804218
0.118231 0.0181188 0.00701797
0.117891 0.0170828 0.00731098
0.123867 0.0173794 0.00715336
0.123712 0.0166954 0.00753663
0.123574 0.0161212 0.00790648
0.117329 0.015768 0.00858645
0.123885 0.0170632 0.00732408
0.12344 0.0159728 0.00808042
0.123397 0.0158455 0.0082285
0.12402 0.0185248 0.00692782
0.117533 0.0161343 0.00821852
0.123994 0.0179312 0.00702007
0.123555 0.0160551 0.00797899
0.123772 0.017353 0.00717279
0.117459 0.0161863 0.00817677
0.123867 0.0178162 0.00710317
0.124096 0.0181451 0.00705646
0.117777 0.0169876 0.00740746
0.117642 0.0164879 0.00788164
0.12393 0.0178555 0.00703627
0.123748 0.0164702 0.00767073
0.123904 0.0171479 0.00727455
0.123534 0.0159912 0.00805316
0.117468 0.0159218 0.00842102
0.123976 0.0183314 0.00694274
0.123673 0.016526 0.00763563
0.124116 0.0185125 0.00690428
0.117511 0.0160631 0.00828634
0.117907 0.0171548 0.0072411
0.117415 0.016045 0.00831141
0.117873 0.0170105 0.00737777
0.117744 0.0165113 0.00785124
0.117446 0.0158509 0.00848849
0.117718 0.0171116 0.00730175
0.124076 0.0183189 0.00694282
0.117783 0.0166535 0.00771619
0.118134 0.0174135 0.00718431
0.117577 0.0162757 0.00808386
0.117831 0.0172157 0.00722081
0.11789 0.0175067 0.00716024
0.117813 0.0171348 0.00727671
0.0219312 0.0187687 0.00551176
0.118044 0.0178178 0.00718187
0.124038 0.0177925 0.00704595
0.117776 0.0173767 0.00717998
0.117737 0.0171931 0.00724713
0.118048 0.0179146 0.00706042
0.118203 0.017698 0.0071183
0.123707 0.0163 0.00777016
0.117764 0.0165822 0.00778378
0.118041 0.0173873 0.00720825
0.118251 0.0179801 0.00705209
0.118061 0.0174814 0.00718101
0.123727 0.0163847 0.00772069
0.118179 0.0176032 0.00714026
0.124194 0.0180095 0.00700011
0.117985 0.0175376 0.00714892
0.111825 0.0176504 0.00720429
0.117795 0.0170607 0.00734141
0.117815 0.0175675 0.00713547
0.118321 0.0179111 0.00707128
0.118228 0.0178732 0.00707703
0.117788 0.0174503 0.00725925
0.123652 0.0164411 0.0076853
0.117965 0.0174416 0.00717133
0.124175 0.0179133 0.00701926
0.117701 0.017038 0.00736725
0.117815 0.0173564 0.00728018
0.124018 0.0172623 0.0072101
0.124033 0.0181269 0.00698112
0.124056 0.0174352 0.00711584
0.111959 0.017848 0.00708573
0.123998 0.0184273 0.00692363
0.117985 0.0171027 0.00728269
0.123807 0.0167242 0.00752227
0.11782 0.0167961 0.00758093
0.118257 0.0177802 0.00710046
0.11722 0.0154094 0.00891691
0.111883 0.0178991 0.00704661
0.117628 0.0167525 0.0076378
0.117757 0.0172819 0.0072059
0.117741 0.0168448 0.00754261
0.118172 0.0180396 0.00703489
0.118004 0.0171886 0.00723527
0.124207 0.0184719 0.00691002
0.117722 0.0167735 0.00761025
0.118039 0.0179643 0.00714679
0.118002 0.0176358 0.00712591
0.117555 0.016205 0.00815119
0.117852 0.0173128 0.0071982
0.117801 0.0167248 0.00764853
0.124007 0.0178713 0.00709908
0.124139 0.0181711 0.00697003
0.118078 0.0175728 0.00714386
0.123999 0.0171771 0.00725991
0.124236 0.0182015 0.00696185
0.111939 0.0177641 0.00713889
0.117796 0.017473 0.00716222
0.123767 0.0165549 0.00762124
0.117915 0.0176976 0.00710782
0.124054 0.0182231 0.00696193
0.117901 0.0176341 0.00722481
0.111844 0.0173495 0.00740187
0.123787 0.0166395 0.00757175
0.117928 0.0172496 0.00721619
0.117683 0.0169665 0.00743487
0.12408 0.0178814 0.0070277
0.118155 0.0175087 0.00716214
0.111901 0.0175983 0.00724403
0.111844 0.0177333 0.00715173
0.117815 0.0175793 0.00723477
0.118093 0.0181019 0.007017
0.111806 0.0175675 0.00725689
0.1177 0.0163699 0.00798592
0.117838 0.0168674 0.0075133
0.123934 0.0181398 0.00698096
0.117995 0.0184123 0.00704928
0.118159 0.0183124 0.00700776
0.118017 0.0185089 0.00706389
0.11163 0.0168218 0.00772953
0.111693 0.0170699 0.00757259
0.111607 0.0167394 0.00778149
0.11795 0.0169598 0.00741808
0.117704 0.0167021 0.00767791
0.111653 0.0169042 0.00767757
0.111769 0.0174016 0.00736213
0.117945 0.0177912 0.00712709
0.118154 0.0181799 0.00700041
0.111902 0.0179819 0.00699405
0.117909 0.0176006 0.00713097
0.124182 0.0183628 0.00693179
0.111942 0.018159 0.00691153
0.111882 0.0175154 0.00729662
0.11175 0.0173187 0.00741474
0.117424 0.0157804 0.00855574
0.118029 0.017732 0.00713256
0.117873 0.0178592 0.00714188
0.117936 0.0179063 0.00720451
0.111962 0.0182562 0.00690033
0.117856 0.0169389 0.0074456
0.118067 0.0183467 0.00702705
0.118083 0.0182483 0.00701956
0.111731 0.0172358 0.00746736
0.117893 0.0179563 0.0071291
0.111864 0.0178162 0.00709917
0.118113 0.0173183 0.00720646
0.117943 0.0179692 0.00704343
0.11798 0.0175755 0.00724133
0.117853 0.0177619 0.00715167
0.124214 0.0181056 0.00698098
0.118104 0.0176668 0.00712218
0.112005 0.0184504 0.00692181
0.117935 0.0181404 0.007061
0.111984 0.0183533 0.00691107
0.117965 0.0178893 0.00711039
0.117834 0.0176637 0.00715519
0.11798 0.0182255 0.00708807
0.11803 0.0178188 0.00708287
0.111787 0.0174846 0.00730951
0.11198 0.0179324 0.00703228
0.117932 0.0168883 0.00748579
0.111863 0.0174324 0.00734924
0.111674 0.0169869 0.00762524
0.118012 0.0181599 0.00700073
0.118011 0.0180769 0.00706828
0.117917 0.0180491 0.00709751
0.118084 0.0180077 0.00706843
0.118101 0.0181748 0.00708506
0.117915 0.0168169 0.00755349
0.117967 0.0170313 0.00735036
0.118158 0.0179422 0.00705784
0.117679 0.0162992 0.00805324
0.118116 0.0177686 0.00709809
0.117972 0.0183091 0.00703364
0.11192 0.0176812 0.00719146
0.11809 0.018444 0.00704166
0.123979 0.0170924 0.00730944
0.111712 0.0171528 0.00751997
0.111921 0.0180671 0.00694541
0.124269 0.0179446 0.00701094

VERTICES 287 574
1 0
1 1
1 2
1 3
1 4
1 5
1 6
1 7
1 8
1 9
1 10
1 11
1 12
1 13
1 14
1 15
1 16
1 17
1 18
1 19
1 20
1 21
1 22
1 23
1 24
1 25
1 26
1 27
1 28
1 29
1 30
1 31
1 32
1 33
1 34
1 35
1 36
1 37
1 38
1 39
1 40
1 41
1 42
1 43
1 44
1 45
1 46
1 47
1 48
1 49
1 50
1 51
1 52
1 53
1 54
1 55
1 56
1 57
1 58
1 59
1 60
1 61
1 62
1 63
1 64
1 65
1 66
1 67
1 68
1 69
1 70
1 71
1 72
1 73
1 74
1 75
1 76
1 77
1 78
1 79
1 80
1 81
1 82
1 83
1 84
1 85
1 86
1 87
1 88
1 89
1 90
1 91
1 92
1 93
1 94
1 95
1 96
1 97
1 98
1 99
1 100
1 101
1 102
1 103
1 104
1 105
1 106
1 107
1 108
1 109
1 110
1 111
1 112
1 113
1 114
1 115
1 116
1 117
1 118
1 119
1 120
1 121
1 122
1 123
1 124
1 125
1 126
1 127
1 128
1 129
1 130
1 131
1 132
1 133
1 134
1 135
1 136
1 137
1 138
1 139
1 140
1 141
1 142
1 143
1 144
1 145
1 146
1 147
1 148
1 149
1 150
1 151
1 152
1 153
1 154
1 155
1 156
1 157
1 158
1 159
1 160
1 161
1 162
1 163
1 164
1 165
1 166
1 167
1 168
1 169
1 170
1 171
1 172
1 173
1 174
1 175
1 176
1 177
1 178
1 179
1 180
1 181
1 182
1 183
1 184
1 185
1 186
1 187
1 188
1 189
1 190
1 191
1 192
1 193
1 194
1 195
1 196
1 197
1 198
1 199
1 200
1 201
1 202
1 203
1 204
1 205
1 206
1 207
1 208
1 209
1 210
1 211
1 212
1 213
1 214
1 215
1 216
1 217
1 218
1 219
1 220
1 221
1 222
1 223
1 224
1 225
1 226
1 227
1 228
1 229
1 230
1 231
1 232
1 233
1 234
1 235
1 236
1 237
1 238
1 239
1 240
1 241
1 242
1 243
1 244
1 245
1 246
1 247
1 248
1 249
1 250
1 251
1 252
1 253
1 254
1 255
1 256
1 257
1 258
1 259
1 260
1 261
1 262
1 263
1 264
1 265
1 266
1 267
1 268
1 269
1 270
1 271
1 272
1 273
1 274
1 275
1 276
1 277
1 278
1 279
1 280
1 281
1 282
1 283
1 284
1 285
1 286

POINT_DATA 287
SCALARS id int 1
LOOKUP_TABLE default
1
2
3
4
5
6
7
8
9
10
11
12
13
14
15
16
17
18
19
21
22
23
24
25
26
27
28
29
30
31
32
33
34
35
36
37
38
39
41
42
44
45
46
47
48
49
50
51
52
53
54
55
56
57
59
60
61
62
63
64
65
66
67
68
69
70
71
72
73
74
76
77
78
79
80
81
82
83
84
85
86
87
88
89
90
91
92
93
94
95
96
97
98
99
100
101
102
103
104
105
106
107
108
109
110
111
112
113
114
115
116
117
118
119
120
121
122
123
124
125
126
127
128
129
130
131
132
133
134
135
136
137
138
140
141
142
143
144
146
147
148
149
150
151
153
154
155
156
157
158
159
160
162
164
165
166
167
168
169
170
171
172
173
174
175
176
177
178
179
181
182
183
184
185
186
187
188
189
190
191
192
193
194
195
196
197
198
199
200
201
202
203
204
205
206
207
208
209
210
211
212
213
214
215
216
217
218
219
220
221
222
223
224
225
226
227
228
229
230
231
232
233
234
235
236
237
239
240
241
242
243
244
246
247
248
249
250
251
252
253
254
255
256
257
258
259
260
261
262
263
264
265
266
267
268
269
270
271
272
273
274
275
276
277
278
279
280
281
282
283
284
285
286
287
288
289
290
291
292
293
294
295
296
297
298
299
300

SCALARS type int 1
LOOKUP_TABLE default
1
1
1
1
1
1
1
1
1
1
1
1
1
1
1
1
1
1
1
1
1
1
1
1
1
1
1
1
1
1
1
1
1
1
1
1
1
1
1
1
1
1
1
1
1
1
1
1
1
1
1
1
1
1
1
1
1
1
1
1
1
1
1
1
1
1
1
1
1
1
1
1
1
1
1
1
1
1
1
1
1
1
1
1
1
1
1
1
1
1
1
1
1
1
1
1
1
1
1
1
1
1
1
1
1
1
1
1
1
1
1
1
1
1
1
1
1
1
1
1
1
1
1
1
1
1
1
1
1
1
1
1
1
1
1
1
1
1
1
1
1
1
1
1
1
1
1
1
1
1
1
1
1
1
1
1
1
1
1
1
1
1
1
1
1
1
1
1
1
1
1
1
1
1
1
1
1
1
1
1
1
1
1
1
1
1
1
1
1
1
1
1
1
1
1
1
1
1
1
1
1
1
1
1
1
1
1
1
1
1
1
1
1
1
1
1
1
1
1
1
1
1
1
1
1
1
1
1
1
1
1
1
1
1
1
1
1
1
1
1
1
1
1
1
1
1
1
1
1
1
1
1
1
1
1
1
1
1
1
1
1
1
1
1
1
1
1
1
1
1
1
1
1
1
1
1
1
1
1
1
1
1
1
1
1
1
1

SCALARS radius float 1
LOOKUP_TABLE default
5e-05
5e-05
5e-05
5e-05
5e-05
5e-05
5e-05
5e-05
5e-05
5e-05
5e-05
5e-05
5e-05
5e-05
5e-05
5e-05
5e-05
5e-05
5e-05
5e-05
5e-05
5e-05
5e-05
5e-05
5e-05
5e-05
5e-05
5e-05
5e-05
5e-05
5e-05
5e-05
5e-05
5e-05
5e-05
5e-05
5e-05
5e-05
5e-05
5e-05
5e-05
5e-05
5e-05
5e-05
5e-05
5e-05
5e-05
5e-05
5e-05
5e-05
5e-05
5e-05
5e-05
5e-05
5e-05
5e-05
5e-05
5e-05
5e-05
5e-05
5e-05
5e-05
5e-05
5e-05
5e-05
5e-05
5e-05
5e-05
5e-05
5e-05
5e-05
5e-05
5e-05
5e-05
5e-05
5e-05
5e-05
5e-05
5e-05
5e-05
5e-05
5e-05
5e-05
5e-05
5e-05
5e-05
5e-05
5e-05
5e-05
5e-05
5e-05
5e-05
5e-05
5e-05
5e-05
5e-05
5e-05
5e-05
5e-05
5e-05
5e-05
5e-05
5e-05
5e-05
5e-05
5e-05
5e-05
5e-05
5e-05
5e-05
5e-05
5e-05
5e-05
5e-05
5e-05
5e-05
5e-05
5e-05
5e-05
5e-05
5e-05
5e-05
5e-05
5e-05
5e-05
5e-05
5e-05
5e-05
5e-05
5e-05
5e-05
5e-05
5e-05
5e-05
5e-05
5e-05
5e-05
5e-05
5e-05
5e-05
5e-05
5e-05
5e-05
5e-05
5e-05
5e-05
5e-05
5e-05
5e-05
5e-05
5e-05
5e-05
5e-05
5e-05
5e-05
5e-05
5e-05
5e-05
5e-05
5e-05
5e-05
5e-05
5e-05
5e-05
5e-05
5e-05
5e-05
5e-05
5e-05
5e-05
5e-05
5e-05
5e-05
5e-05
5e-05
5e-05
5e-05
5e-05
5e-05
5e-05
5e-05
5e-05
5e-05
5e-05
5e-05
5e-05
5e-05
5e-05
5e-05
5e-05
5e-05
5e-05
5e-05
5e-05
5e-05
5e-05
5e-05
5e-05
5e-05
5e-05
5e-05
5e-05
5e-05
5e-05
5e-05
5e-05
5e-05
5e-05
5e-05
5e-05
5e-05
5e-05
5e-05
5e-05
5e-05
5e-05
5e-05
5e-05
5e-05
5e-05
5e-05
5e-05
5e-05
5e-05
5e-05
5e-05
5e-05
5e-05
5e-05
5e-05
5e-05
5e-05
5e-05
5e-05
5e-05
5e-05
5e-05
5e-05
5e-05
5e-05
5e-05
5e-05
5e-05
5e-05
5e-05
5e-05
5e-05
5e-05
5e-05
5e-05
5e-05
5e-05
5e-05
5e-05
5e-05
5e-05
5e-05
5e-05
5e-05
5e-05
5e-05
5e-05
5e-05
5e-05
5e-05
5e-05
5e-05
5e-05
5e-05
5e-05
5e-05
5e-05
5e-05
5e-05
5e-05
5e-05
5e-05
5e-05
5e-05
5e-05
5e-05
5e-05
5e-05
5e-05
5e-05
5e-05
5e-05

SCALARS mass float 1
LOOKUP_TABLE default
1.46608e-10
1.46608e-10
1.46608e-10
1.46608e-10
1.46608e-10
1.46608e-10
1.46608e-10
1.46608e-10
1.46608e-10
1.46608e-10
1.46608e-10
1.46608e-10
1.46608e-10
1.46608e-10
1.46608e-10
1.46608e-10
1.46608e-10
1.46608e-10
1.46608e-10
1.46608e-10
1.46608e-10
1.46608e-10
1.46608e-10
1.46608e-10
1.46608e-10
1.46608e-10
1.46608e-10
1.46608e-10
1.46608e-10
1.46608e-10
1.46608e-10
1.46608e-10
1.46608e-10
1.46608e-10
1.46608e-10
1.46608e-10
1.46608e-10
1.46608e-10
1.46608e-10
1.46608e-10
1.46608e-10
1.46608e-10
1.46608e-10
1.46608e-10
1.46608e-10
1.46608e-10
1.46608e-10
1.46608e-10
1.46608e-10
1.46608e-10
1.46608e-10
1.46608e-10
1.46608e-10
1.46608e-10
1.46608e-10
1.46608e-10
1.46608e-10
1.46608e-10
1.46608e-10
1.46608e-10
1.46608e-10
1.46608e-10
1.46608e-10
1.46608e-10
1.46608e-10
1.46608e-10
1.46608e-10
1.46608e-10
1.46608e-10
1.46608e-10
1.46608e-10
1.46608e-10
1.46608e-10
1.46608e-10
1.46608e-10
1.46608e-10
1.46608e-10
1.46608e-10
1.46608e-10
1.46608e-10
1.46608e-10
1.46608e-10
1.46608e-10
1.46608e-10
1.46608e-10
1.46608e-10
1.46608e-10
1.46608e-10
1.46608e-10
1.46608e-10
1.46608e-10
1.46608e-10
1.46608e-10
1.46608e-10
1.46608e-10
1.46608e-10
1.46608e-10
1.46608e-10
1.46608e-10
1.46608e-10
1.46608e-10
1.46608e-10
1.46608e-10
1.46608e-10
1.46608e-10
1.46608e-10
1.46608e-10
1.46608e-10
1.46608e-10
1.46608e-10
1.46608e-10
1.46608e-10
1.46608e-10
1.46608e-10
1.46608e-10
1.46608e-10
1.46608e-10
1.46608e-10
1.46608e-10
1.46608e-10
1.46608e-10
1.46608e-10
1.46608e-10
1.46608e-10
1.46608e-10
1.46608e-10
1.46608e-10
1.46608e-10
1.46608e-10
1.46608e-10
1.46608e-10
1.46608e-10
1.46608e-10
1.46608e-10
1.46608e-10
1.46608e-10
1.46608e-10
1.46608e-10
1.46608e-10
1.46608e-10
1.46608e-10
1.46608e-10
1.46608e-10
1.46608e-10
1.46608e-10
1.46608e-10
1.46608e-10
1.46608e-10
1.46608e-10
1.46608e-10
1.46608e-10
1.46608e-10
1.46608e-10
1.46608e-10
1.46608e-10
1.46608e-10
1.46608e-10
1.46608e-10
1.46608e-10
1.46608e-10
1.46608e-10
1.46608e-10
1.46608e-10
1.46608e-10
1.46608e-10
1.46608e-10
1.46608e-10
1.46608e-10
1.46608e-10
1.46608e-10
1.46608e-10
1.46608e-10
1.46608e-10
1.46608e-10
1.46608e-10
1.46608e-10
1.46608e-10
1.46608e-10
1.46608e-10
1.46608e-10
1.46608e-10
1.46608e-10
1.46608e-10
1.46608e-10
1.46608e-10
1.46608e-10
1.46608e-10
1.46608e-10
1.46608e-10
1.46608e-10
1.46608e-10
1.46608e-10
1.46608e-10
1.46608e-10
1.46608e-10
1.46608e-10
1.46608e-10
1.46608e-10
1.46608e-10
1.46608e-10
1.46608e-10
1.46608e-10
1.46608e-10
1.46608e-10
1.46608e-10
1.46608e-10
1.46608e-10
1.46608e-10
1.46608e-10
1.46608e-10
1.46608e-10
1.46608e-10
1.46608e-10
1.46608e-10
1.46608e-10
1.46608e-10
1.46608e-10
1.46608e-10
1.46608e-10
1.46608e-10
1.46608e-10
1.46608e-10
1.46608e-10
1.46608e-10
1.46608e-10
1.46608e-10
1.46608e-10
1.46608e-10
1.46608e-10
1.46608e-10
1.46608e-10
1.46608e-10
1.46608e-10
1.46608e-10
1.46608e-10
1.46608e-10
1.46608e-10
1.46608e-10
1.46608e-10
1.46608e-10
1.46608e-10
1.46608e-10
1.46608e-10
1.46608e-10
1.46608e-10
1.46608e-10
1.46608e-10
1.46608e-10
1.46608e-10
1.46608e-10
1.46608e-10
1.46608e-10
1.46608e-10
1.46608e-10
1.46608e-10
1.46608e-10
1.46608e-10
1.46608e-10
1.46608e-10
1.46608e-10
1.46608e-10
1.46608e-10
1.46608e-10
1.46608e-10
1.46608e-10
1.46608e-10
1.46608e-10
1.46608e-10
1.46608e-10
1.46608e-10
1.46608e-10
1.46608e-10
1.46608e-10
1.46608e-10
1.46608e-10
1.46608e-10
1.46608e-10
1.46608e-10
1.46608e-10
1.46608e-10
1.46608e-10
1.46608e-10
1.46608e-10
1.46608e-10
1.46608e-10
1.46608e-10
1.46608e-10

VECTORS velocity float
0.00584555 0.000176524 5.66692e-05
0.00567723 -3.43218e-05 -0.000127696
0.00610578 0.000193428 -0.000705719
0.00568719 2.56975e-05 -0.000146291
0.00582617 0.000153737 5.37051e-05
0.00558789 -0.000441115 -4.74668e-05
0.00559479 0.000155974 6.44542e-05
0.00619996 -0.000313124 -5.28662e-05
0.00557057 3.13248e-05 0.00043452
0.00555117 0.000172304 5.3292e-05
0.00564948 1.83801e-05 -0.000136779
0.00600807 0.000103568 -0.000613821
0.00530501 6.25221e-05 -0.000273717
0.00611632 0.00018569 -0.000698669
0.00565927 0.000126402 8.20366e-05
0.00613 0.000189205 -0.000701941
0.00540809 0.000200474 3.2431e-05
0.00554149 5.62776e-05 0.000425567
0.00431578 0.000117839 -0.000488002
0.00584825 0.00011823 8.97806e-05
0.00561959 0.000127047 8.26697e-05
0.00511679 1.30582e-05 -0.000462253
0.00554542 5.16992e-05 0.000426627
0.00572147 0.000139737 7.69319e-05
0.00561616 -0.000324592 7.46516e-05
0.00571438 0.000196574 -0.000668443
0.00567929 2.66856e-05 -0.000138902
0.00572271 -8.51581e-05 -0.000279436
0.00564387 -2.43089e-06 -0.000239971
0.00560537 0.000139242 7.28375e-05
0.00565655 0.000128456 8.25943e-05
0.00563026 -0.000447021 -4.57821e-05
0.00543896 0.00020309 3.1873e-05
0.00569509 0.000125487 8.45549e-05
0.00561233 -0.000211072 -0.00116708
0.00571722 0.00013845 7.74379e-05
0.00568466 0.000125852 8.36191e-05
0.00554838 5.95611e-05 0.000424859
0.00585932 0.000142842 7.7549e-05
0.00564452 2.96388e-05 -0.000171696
0.00568046 0.000123057 8.44824e-05
0.00567704 -0.000454332 -4.51857e-05
0.00570353 2.43636e-05 0.000448928
0.00559704 0.000183719 4.68207e-05
0.00566372 -2.25771e-05 -0.000236913
0.00567299 -9.43866e-05 0.000325077
0.00568543 4.371e-05 -0.000149775
0.00569128 3.11509e-05 -0.000178022
0.00602797 0.000119062 -0.000630674
0.00553741 5.58053e-05 0.000424265
0.00569367 0.000135703 8.78176e-05
0.00608636 0.000194377 -0.000706012
0.00572902 0.000125343 8.59514e-05
0.00563318 -0.000447161 -4.84331e-05
0.00576356 0.000145975 7.45521e-05
0.00573098 0.000128044 8.43802e-05
0.00584996 0.000141114 7.78634e-05
0.00566164 -4.28183e-05 -0.00023387
0.00569759 6.56049e-06 -0.000219283
0.00552849 4.63997e-05 0.0004247
0.00589332 0.000256099 -0.000749541
0.00602248 9.49916e-05 -0.000606971
0.00570652 -9.44537e-06 -0.000134003
0.00570051 -2.92712e-06 -0.000134206
0.00542733 0.000144895 6.59249e-05
0.00558446 5.6242e-05 0.000427228
0.00611767 0.000185154 -0.000699441
0.00566517 5.5498e-06 -0.000136722
0.00567192 0.000153641 6.77143e-05
0.00567198 0.00013193 9.11165e-05
0.00566893 0.000337623 0.000139067
0.00616159 -8.28561e-05 -0.00012834
0.00611751 0.000192379 -0.000705633
0.00586211 0.000125214 -0.00062049
0.00568761 3.25402e-05 -0.000130113
0.00602716 0.000167639 -0.000675007
0.005681 0.000233772 -0.000656903
0.00598128 0.000113718 -0.000620892
0.00559314 2.39664e-05 0.000469353
0.0060889 0.000204179 -0.00071392
0.00565327 1.37743e-05 -0.000222247
0.00573322 0.000154989 6.84241e-05
0.00564427 1.68434e-05 -0.000136041
0.00565023 3.73056e-05 -0.000143436
0.00565324 -1.25054e-05 -0.000131343
0.00575322 0.000146715 -0.000642188
0.00563594 -3.95898e-06 -0.00012914
0.00562903 1.92727e-05 -0.000136598
0.00623483 -2.22448e-05 -0.000141583
0.00559716 -6.25002e-05 -0.000114407
0.00561952 -3.49865e-06 -0.000120034
0.0060648 0.00021671 -0.00072614
0.00562472 1.25571e-05 -0.000136539
0.00599394 0.000247842 -0.000745945
0.0056747 0.000144473 7.06149e-05
0.00601494 0.00020144 -0.000705241
4.24989e-15 1.04895e-14 8.29619e-14
3.61636e-22 -3.94926e-23 1.23839e-22
0.00568191 0.000347914 0.000133295
0.00609146 0.000213404 -0.000723261
0.00561475 0.000240703 6.56331e-05
0.00609844 0.000199811 -0.000710834
0.00563845 0.000134556 7.7682e-05
0.00570707 2.5313e-05 -0.000210238
0.00624837 -9.62686e-05 -0.000128675
0.00620508 -9.1374e-05 -0.000128876
0.00605448 0.000195462 -0.000703608
0.00610342 0.000161409 0.000184735
0.00544988 0.000156483 -0.000336086
0.00568134 9.74598e-05 4.42758e-06
0.00553792 0.000139799 7.15005e-05
0.00561808 3.97906e-05 6.42941e-06
0.00609302 0.000194483 -0.000707953
0.00570748 0.000130492 8.27284e-05
0.00560839 -0.000194957 -0.000147552
0.00617828 -0.000321548 -4.23562e-05
0.00619154 -9.00351e-05 -0.000131918
0.00608031 0.000226536 -0.000734795
0.00563985 3.03899e-05 -0.000139567
0.00559625 -0.000107327 -0.000110712
0.00566571 0.000113598 -1.16238e-05
0.00608431 0.000218963 -0.000728488
0.00568149 3.34105e-05 -0.000126842
0.00566073 0.000223159 -0.000319618
0.00524501 6.67111e-05 -0.000408464
0.00604672 0.000145216 -0.000655261
0.00566846 2.64131e-05 -0.000140608
0.00533864 0.000146516 6.24201e-05
0.00568348 0.000130767 8.08609e-05
0.00561668 -0.000192832 -0.000158818
0.00611455 0.000199937 -0.000712152
0.00617435 -8.94858e-05 -0.000128563
0.00554547 0.000309685 -2.83295e-05
0.00619107 -8.56727e-05 -0.000130202
0.00608486 0.000204823 -0.000714369
0.00543466 0.000224879 -0.000676101
0.0060853 0.000208215 -0.000717666
0.00538088 2.73285e-08 -0.000473479
0.00586215 0.000121677 -0.000617895
0.00612439 0.000195543 -0.000709086
0.00559607 -0.00052543 -0.00157617
0.00618272 -8.37632e-05 -0.000129879
0.00573174 0.000171268 -0.00065176
0.00568287 0.000215572 0.00015431
0.00611665 0.000268924 -0.00077639
0.00537644 0.000424482 9.59283e-05
0.00568175 0.000343139 0.000112766
0.00539605 0.000361626 -2.51477e-06
-3.83151e-14 8.16533e-14 2.95893e-13
0.00587193 0.000249691 0.000160586
0.00567556 6.07783e-05 -0.000146219
0.00567012 0.000323357 0.000122093
0.00512472 -0.000203047 -0.00127544
0.0059489 0.0002569 0.000156367
0.00582787 0.000184636 0.000170772
0.00584878 0.000219253 3.34883e-05
0.00576722 0.000145349 -0.00063237
0.00564264 0.000213006 -9.45002e-05
0.00605691 0.000160484 0.000184227
0.00567995 0.000239046 -3.04055e-05
0.00572164 0.000333488 -3.71633e-05
0.00574721 0.000202426 0.000160376
0.00595934 -4.29012e-05 -0.000132009
0.00568403 0.000333488 0.000130224
0.00555573 0.00029704 0.000227282
0.00534541 0.000204125 -0.000237219
0.00569002 0.000335246 0.000116839
0.0060206 0.000132418 0.000188783
0.00601078 0.000150069 0.000184191
0.00559259 0.000425709 0.000116188
0.00565475 0.000255762 5.75765e-06
0.00565498 0.00034234 0.000111432
0.00573361 4.60038e-06 -0.000135948
0.00519407 7.11368e-05 -0.000980689
0.00529102 0.000343881 0.000113269
0.00567588 0.000112608 9.15099e-05
0.00559161 1.61222e-05 -0.000150446
0.00563935 -9.13366e-06 -0.000239363
0.00568042 0.000229433 0.000274851
0.00619634 -9.42434e-05 -0.000128599
0.00550779 9.61977e-05 -0.000553144
0.00562873 0.000146311 7.04925e-05
0.0053172 0.000231028 -0.000671076
0.0059248 0.000124333 0.000187367
0.0061463 0.000202615 -0.00071754
0.00555997 1.4146e-05 0.00039235
0.00573679 0.000162678 -0.000667377
0.00533283 0.000372208 8.08953e-05
0.00524775 -2.1478e-05 -0.000434897
0.00607704 0.000180752 0.00017959
0.0054305 0.000234256 -0.000372798
0.00618405 -9.99647e-05 -0.000126652
0.00541454 -5.12362e-05 -0.00042125
0.00599054 0.000260987 0.000159719
0.00572639 0.000292687 0.000139151
0.00608641 0.000269352 -0.000772883
0.00533582 0.00039572 9.74217e-05
0.00568637 0.000191072 -0.000664526
0.00561811 3.17674e-05 -0.000141996
0.00622668 -1.96435e-05 -0.000138892
0.00570435 0.000271453 0.000144103
0.00567958 0.00011664 8.88279e-05
0.00622839 -4.57438e-05 -0.000138113
0.00578329 0.000248222 0.000285385
0.00567404 0.000333855 0.000112172
0.00545611 0.000153057 6.16308e-05
0.00579232 0.000326339 0.00012635
0.00617581 -7.32459e-05 -0.000132344
0.00571277 0.000393639 0.000103667
0.00578852 0.000425446 0.000165973
0.00557327 0.000155515 6.37808e-05
0.00540852 0.000438044 0.00011289
0.00541886 0.000253392 -0.000725175
0.00562171 6.17599e-06 -0.0001338
0.00571915 0.000210747 0.000157324
0.0056457 0.000539043 7.94271e-05
0.00560764 0.000235691 0.000291484
0.00572438 0.000322756 0.000117219
0.00610213 0.000207446 0.000174493
0.00590386 0.000412258 0.000175787
0.00604135 0.000126259 -0.000637843
0.00531901 0.000197843 -0.000647382
0.00557805 2.76158e-05 -0.000138578
0.00614782 0.000378108 -0.000790392
0.00605069 0.00024078 -0.000811166
0.00612983 0.000386128 -0.000798906
0.00704741 0.000399564 0.000277225
0.00551697 0.000442412 0.000132173
0.00581297 0.000552137 8.37279e-05
0.00545662 8.58232e-05 -0.000548763
0.00548869 -3.49937e-05 -0.00044187
0.00620231 -0.000213034 0.000613227
0.00578881 0.000424963 0.000169005
0.00587407 0.000301257 0.000139633
0.0061279 0.000192688 0.000178987
0.005561 1.24961e-05 0.000455512
0.00570427 0.000334796 0.000125559
0.00623622 -5.32854e-05 -0.000136968
0.00623515 -0.000344901 4.93852e-05
0.00569617 0.000550499 7.6526e-05
0.00570648 0.000421739 0.000158272
0.00612199 0.000204815 -0.000717657
0.00580968 0.000268572 0.000147719
0.00591929 0.00033839 0.000162709
0.00600595 0.000319372 0.000203831
0.00621024 -0.000265458 0.000412788
0.00540505 0.000145902 -0.000666853
0.0060896 0.000314639 -0.000797748
0.00615117 0.000262294 1.9221e-05
0.00565165 0.000430918 0.000150244
0.00601561 0.000312835 0.00021134
0.00562601 0.000113837 0.000392918
0.00565802 0.000213338 0.000162561
0.00599017 0.000204843 0.000173977
0.00569643 0.000374896 0.000113359
0.00581736 0.000366163 6.30054e-05
0.00618574 -7.97913e-05 -0.000129578
0.00576501 0.000220651 0.000158956
0.00620127 -0.000221275 0.000412156
0.00609748 0.000217513 0.000171345
0.0062226 -0.000232485 0.000418262
0.00596819 0.000297214 0.000185386
0.00571454 0.000388157 -0.00026911
0.00869955 -0.000520513 -0.0018534
0.00589976 0.000263091 0.000154847
0.00584994 0.00043359 0.000164397
0.00578073 0.000349531 0.000211892
0.0053451 0.000106783 -0.000563943
0.00583605 0.000417684 0.000173055
0.00548572 0.000280228 0.000307589
0.00547012 -0.000498828 -0.000866466
0.00609328 0.000218345 0.000176254
0.00609593 0.000225909 0.000203825
0.00607395 0.000206408 0.000176895
0.00598309 0.000291912 9.56578e-05
0.00525807 0.00013241 -0.000576631
0.0055224 8.42452e-05 -0.000545274
0.00605338 0.000189395 0.000176688
0.0059572 0.000167444 -0.000668751
0.00585213 0.000199869 0.000164948
0.00605831 -0.000126089 -0.000882975
0.00579596 0.000213158 0.000304937
0.0061498 0.000373894 -0.000801957
0.00565902 0.000120286 8.80534e-05
0.00558647 0.000440609 0.00013999
0.00556888 -0.000330858 -0.00017607
0.00581721 -0.000228798 -9.4069e-05

VECTORS force float
-6.42398e-11 1.36675e-10 -5.56273e-11
-4.52031e-11 4.78618e-11 -1.45473e-11
9.21581e-12 1.44972e-10 -1.16392e-10
-3.37754e-11 -5.01938e-11 6.44354e-11
-1.15187e-10 9.38907e-11 -1.07313e-10
-1.56506e-11 1.59931e-11 -3.196e-12
-9.4469e-11 5.77932e-11 -6.88863e-11
1.10234e-10 6.48192e-11 -9.26581e-11
2.37386e-11 -3.00236e-10 2.00468e-10
-1.40041e-10 9.13529e-11 -7.59271e-11
-8.745e-11 1.36417e-10 -6.00775e-12
1.54356e-10 5.06112e-11 -5.2201e-11
-1.43287e-10 2.83262e-10 3.60664e-10
4.30085e-10 1.22661e-10 -1.69078e-10
9.46509e-11 5.7904e-11 -3.57168e-11
1.21611e-10 1.15025e-10 -1.26025e-10
-2.48588e-10 1.46299e-10 -9.37061e-11
-1.49271e-10 -1.06016e-11 -1.4735e-11
-3.063e-10 -4.48091e-10 -1.2741e-11
7.97438e-11 1.36786e-10 -5.41063e-11
4.02287e-11 4.10252e-12 1.01807e-10
8.65502e-11 1.6625e-10 -9.82854e-11
4.46388e-11 1.51952e-10 -3.87252e-11
-1.65081e-12 7.78439e-11 -3.07295e-11
-2.18622e-12 -6.24437e-12 7.29882e-11
3.55251e-10 3.64756e-10 -4.119e-10
-1.50056e-11 -3.1048e-11 4.5157e-11
9.09528e-11 3.01617e-10 -3.02449e-10
9.7534e-12 2.44935e-11 -2.13246e-12
1.51772e-10 2.42994e-11 1.95989e-11
5.25831e-11 3.44148e-11 -3.50846e-11
5.86294e-11 7.8674e-12 -3.11689e-11
-2.64974e-10 8.21092e-11 -5.63984e-11
1.90608e-11 1.9751e-11 -1.81782e-11
-2.49135e-10 -2.62462e-10 -6.12586e-11
-1.5052e-10 3.51143e-11 -2.65391e-11
-1.09304e-10 -7.11043e-11 -7.28905e-11
-1.20625e-10 1.81666e-10 -1.11214e-10
-9.56667e-12 1.71826e-10 -5.27613e-11
-4.43372e-11 5.59304e-11 4.58295e-11
1.59163e-11 1.30464e-11 3.90578e-11
-4.25845e-11 -6.45386e-12 -1.88403e-11
4.34086e-11 1.54228e-10 4.28959e-11
-6.18618e-11 -4.23085e-12 -2.9728e-12
2.91719e-11 -3.64132e-11 3.87651e-11
-1.67141e-11 1.63804e-11 4.5764e-12
6.19184e-11 5.4058e-11 5.49799e-11
4.41511e-11 7.91087e-11 4.77694e-11
-1.08837e-10 -3.01262e-10 2.93067e-10
1.06122e-10 -2.08841e-10 7.75816e-11
-1.65803e-10 1.25483e-10 -7.83394e-11
1.88474e-11 2.52615e-10 -2.32328e-10
-6.95935e-11 4.02547e-11 -3.28377e-11
-1.44309e-10 8.34681e-11 9.4135e-11
-2.36071e-10 -3.24127e-11 1.18318e-11
-6.1292e-11 -4.64755e-11 2.22863e-11
-8.51239e-11 1.09407e-10 -3.57474e-11
-1.21336e-12 8.79377e-12 1.39734e-10
5.91974e-11 3.84512e-11 -1.24332e-10
7.02116e-11 -1.09859e-10 4.71735e-11
1.19843e-10 1.52774e-10 -4.17847e-11
1.69298e-10 -6.00243e-10 5.52482e-10
-4.20597e-11 9.48572e-11 -2.15677e-11
-2.23479e-11 -9.74078e-12 8.86334e-12
-4.39482e-10 1.20916e-10 -8.87803e-11
-1.9628e-10 -1.08422e-10 5.23426e-11
4.85322e-11 2.33367e-10 -2.06847e-10
-3.84009e-12 3.10071e-12 -7.19011e-12
-7.48565e-11 6.51434e-12 5.20928e-12