# vtk DataFile Version 3.0
LIGGGHTS particles timestep 30400000
ASCII
DATASET POLYDATA
POINTS 271 float
0.189743 0.0154129 0.00865548
0.190636 0.0179035 0.00701289
0.1847 0.0177859 0.0070359
0.19067 0.0176471 0.00707779
0.189724 0.0153681 0.00874277
0.196129 0.0168997 0.00748794
0.189823 0.0156798 0.00837597
0.189705 0.0153233 0.00883013
0.196272 0.0174845 0.00719622
0.190288 0.0175244 0.00710018
0.190427 0.017745 0.00704799
0.183829 0.015691 0.00832673
0.189646 0.0151893 0.00909127
0.184496 0.01851 0.00687642
0.190648 0.0175504 0.00710151
0.184593 0.0185448 0.00687328
0.19069 0.0177438 0.00705404
0.189693 0.0152777 0.00891839
0.190245 0.0173418 0.00716779
0.190458 0.0174898 0.00711254
0.184059 0.0162227 0.00784156
0.196355 0.017826 0.0070053
0.189881 0.0159282 0.00821814
0.196215 0.0172546 0.00732472
0.184817 0.0179007 0.00696963
0.190596 0.0177121 0.00705992
0.189841 0.0157627 0.00832318
0.190352 0.0178092 0.00703031
0.1899 0.0160098 0.00816352
0.190332 0.0169924 0.00741118
0.19615 0.0169884 0.00744716
0.189801 0.0155973 0.00842814
0.19049 0.0172502 0.00721303
0.196336 0.0177403 0.00705315
0.190545 0.0183166 0.00690756
0.190604 0.0186035 0.00684072
0.196373 0.017912 0.00695731
0.190711 0.0178396 0.00703051
0.321436 0.0173475 0.00552525
0.190616 0.0178082 0.00703631
0.196172 0.0170771 0.00740637
0.189763 0.0154652 0.00857254
0.190584 0.0185071 0.00685848
0.189947 0.0161661 0.00804828
0.18992 0.0160884 0.00810519
0.183751 0.0154493 0.00863142
0.196315 0.017655 0.00710084
0.190431 0.01819 0.00693676
0.183693 0.0153055 0.00888806
0.190565 0.0184123 0.00688407
0.196193 0.0171659 0.00736559
0.190436 0.017395 0.00713579
0.190217 0.0168912 0.00749162
0.190829 0.0184106 0.00688087
0.190627 0.0174542 0.00712512
0.196392 0.0180055 0.00692745
0.184005 0.0163643 0.00775735
0.183673 0.0152576 0.00897361
0.190581 0.0180625 0.00697192
0.190374 0.0171489 0.00729365
0.19045 0.0182852 0.00691338
0.196244 0.0173712 0.00725956
0.183734 0.0154015 0.00871751
0.190486 0.018031 0.00697773
0.190508 0.0185703 0.0068401
0.19064 0.0183484 0.00690168
0.184724 0.0183157 0.00689434
0.19051 0.0173295 0.00715377
0.184476 0.0184121 0.00688257
0.183789 0.0155504 0.0084631
0.190675 0.0180939 0.00696611
0.184612 0.0186427 0.00686702
0.183848 0.0157638 0.00826099
0.184534 0.0182516 0.00689688
0.196293 0.0175698 0.00714853
0.184721 0.0178714 0.00698828
0.190731 0.017935 0.00700709
0.190679 0.0185376 0.00684391
0.1901 0.01679 0.00757267
0.190659 0.0184433 0.00687393
0.190521 0.0177765 0.00704218
0.184759 0.0180549 0.00691955
0.19062 0.0182529 0.00692515
0.189978 0.0163202 0.00792492
0.190406 0.0176496 0.00707142
0.190362 0.0174597 0.00711799
0.189998 0.0164009 0.00786923
0.18412 0.0164812 0.00770239
0.190501 0.0176806 0.00706572
0.184223 0.0169188 0.00748383
0.190734 0.0183797 0.00689244
0.183809 0.0156184 0.00839255
0.0643568 0.0187248 0.00531097
0.24257 0.0191927 0.00520306
0.184436 0.0177907 0.00704128
0.184777 0.0177289 0.00706557
0.184662 0.0176146 0.00713151
0.184642 0.0175287 0.00717946
0.19047 0.0183804 0.00688999
0.190605 0.0173591 0.00714843
0.19002 0.0164765 0.00780751
0.190339 0.0173634 0.00714157
0.184493 0.0180568 0.00691623
0.184084 0.0167149 0.0075821
0.184456 0.0183143 0.00688955
0.190575 0.0176156 0.0070836
0.190411 0.0180948 0.00696015
0.190548 0.0187665 0.0068472
0.1843 0.0175886 0.00714608
0.190532 0.0174246 0.00713046
0.189863 0.0158453 0.008271
0.189785 0.0155261 0.00849646
0.190299 0.0172044 0.00725638
0.184257 0.0174138 0.00723327
0.19032 0.017283 0.00719786
0.190623 0.0187015 0.0068409
0.190237 0.0169695 0.00743283
0.184797 0.0178144 0.00701782
0.190278 0.017126 0.00731529
0.190446 0.0178405 0.00702455
0.184681 0.0177002 0.00708372
0.190541 0.0178721 0.00701869
0.19031 0.0176192 0.00707695
0.190258 0.0170478 0.00737406
0.189666 0.0152341 0.00900402
0.184516 0.0186084 0.00687024
0.189962 0.0162412 0.00798403
0.190391 0.0179996 0.00698353
0.19048 0.0175846 0.00708929
0.184513 0.0181541 0.00690569
0.184235 0.0173265 0.00727687
0.183713 0.0153533 0.0088027
0.184361 0.0178491 0.00701065
0.184574 0.018447 0.00688066
0.184319 0.0169472 0.00747311
0.190122 0.0168697 0.00751648
0.0100679 0.0201683 0.00551526
0.184192 0.0171517 0.00736408
0.184555 0.0188052 0.00685788
0.184321 0.0176759 0.00710246
0.184522 0.0174127 0.00724427
0.184473 0.0179627 0.00694351
0.0219312 0.0187687 0.00551176
0.184704 0.018218 0.00690318
0.190754 0.0184742 0.00686236
0.184341 0.0177629 0.00705734
0.184632 0.0187406 0.00686087
0.184181 0.0167439 0.0075711
0.184531 0.0178178 0.00702227
0.190489 0.0184757 0.00686657
0.184245 0.0170061 0.00744023
0.184688 0.0185769 0.00687009
0.184606 0.0177585 0.00705326
0.190371 0.0179044 0.00700692
0.184511 0.0177314 0.00707048
0.190656 0.0179987 0.0069895
0.184546 0.0175011 0.00719693
0.178224 0.0172589 0.00724441
0.184362 0.0171221 0.00738582
0.184288 0.0171809 0.00735302
0.184374 0.0175304 0.00717861
0.184649 0.0183813 0.00688678
0.190332 0.0177141 0.00705368
0.184586 0.0176729 0.00710105
0.190384 0.0175548 0.00709467
0.18417 0.0170643 0.00740768
0.190224 0.0172591 0.00721985
0.190353 0.0170706 0.00735242
0.190561 0.0179673 0.0069953
0.178514 0.0185922 0.00694247
0.190394 0.017227 0.00723491
0.184492 0.0176456 0.00711834
0.190554 0.0175194 0.00710721
0.161461 0.0182058 0.00533758
0.184684 0.0181204 0.006912
0.18408 0.016306 0.00778996
0.178289 0.0175403 0.00716346
0.184536 0.0187066 0.00686407
0.184436 0.0182168 0.00689836
0.184063 0.0166275 0.00762571
0.184568 0.0179909 0.00692568
0.190038 0.0165558 0.00774939
0.18377 0.0154971 0.00854557
0.184645 0.0179307 0.00695765
0.18414 0.0165688 0.00765859
0.184267 0.0170935 0.00739663
0.184455 0.0178768 0.00699143
0.181151 0.0172011 0.00721925
0.190267 0.0174307 0.00712742
0.190203 0.0171808 0.0072786
0.184588 0.0180882 0.00691328
0.190525 0.0182214 0.00693096
0.190141 0.0169461 0.00745489
0.178495 0.0184953 0.00695743
0.184549 0.0179051 0.00697357
0.190528 0.0186685 0.00684532
0.183868 0.0158365 0.00819527
0.190083 0.0167109 0.0076314
0.184663 0.018022 0.00692088
0.244309 0.0176586 0.00702752
0.1906 0.0181577 0.00694853
0.184416 0.0177045 0.00708841
0.0995564 0.0181961 0.00769477
0.190415 0.0173069 0.00717821
0.184214 0.0172391 0.00732047
0.178434 0.0182049 0.00700212
0.178246 0.0173527 0.00721743
0.184629 0.0182833 0.00689564
0.184024 0.016452 0.00771347
0.178203 0.0171651 0.00727139
0.184416 0.0181194 0.00690717
0.190466 0.0179359 0.00700111
0.184625 0.0178449 0.00700504
0.183985 0.0162824 0.00781169
0.183946 0.0161279 0.00793244
0.178038 0.016522 0.00768661
0.178057 0.0165947 0.00762085
0.178118 0.0168127 0.00742378
0.184278 0.0175012 0.00718967
0.178077 0.0166674 0.0075551
0.178181 0.0170713 0.00729865
0.184818 0.0183479 0.00689304
0.184043 0.0165398 0.00766959
0.178474 0.0183984 0.00697233
0.184341 0.0170348 0.00742943
0.19006 0.0166332 0.00768988
0.178333 0.017728 0.00710949
0.178533 0.0186892 0.00692752
0.178159 0.0169783 0.00732808
0.184379 0.0179344 0.00696167
0.18447 0.0175592 0.00716671
0.184427 0.0173843 0.007255
0.184331 0.0173556 0.00726581
0.178354 0.0178218 0.00708256
0.184127 0.0168896 0.00749489
0.183926 0.0160548 0.00799795
0.178138 0.0168854 0.00735809
0.184575 0.0189031 0.00685173
0.178268 0.0174465 0.00719044
0.184396 0.0176178 0.00713497
0.1841 0.0163936 0.00774619
0.184106 0.0168022 0.00753849
0.184405 0.0172969 0.00729861
0.190162 0.0170244 0.00739613
0.184668 0.0184791 0.00687793
0.178393 0.0180113 0.0070319
0.183887 0.0159094 0.00812965
0.178375 0.0179162 0.00705659
0.18416 0.0166564 0.00761483
0.184149 0.016977 0.00745129
0.184353 0.017443 0.00722221
0.184743 0.0184135 0.00688548
0.178414 0.0181081 0.00701702
0.178018 0.0164492 0.00775238
0.184202 0.0168314 0.00752744
0.184567 0.0175872 0.00714887
0.184609 0.0181858 0.00690446
0.184448 0.0174716 0.00721139
0.184384 0.0172094 0.00734226
0.184041 0.0161497 0.00790744
0.184554 0.0183493 0.00688873
0.18431 0.0172682 0.00730946
0.184395 0.0180219 0.00691597
0.18474 0.017961 0.0069484
0.183907 0.0159821 0.00806371
0.178454 0.0183017 0.00698722
0.183966 0.016204 0.00787067
0.190506 0.0181262 0.00695434
0.178099 0.0167399 0.00748963
0.178311 0.0176342 0.00713648
0.190183 0.0171026 0.00733737

VERTICES 271 542
1 0
1 1
1 2
1 3
1 4
1 5
1 6
1 7
1 8
1 9
1 10
1 11
1 12
1 13
1 14
1 15
1 16
1 17
1 18
1 19
1 20
1 21
1 22
1 23
1 24
1 25
1 26
1 27
1 28
1 29
1 30
1 31
1 32
1 33
1 34
1 35
1 36
1 37
1 38
1 39
1 40
1 41
1 42
1 43
1 44
1 45
1 46
1 47
1 48
1 49
1 50
1 51
1 52
1 53
1 54
1 55
1 56
1 57
1 58
1 59
1 60
1 61
1 62
1 63
1 64
1 65
1 66
1 67
1 68
1 69
1 70
1 71
1 72
1 73
1 74
1 75
1 76
1 77
1 78
1 79
1 80
1 81
1 82
1 83
1 84
1 85
1 86
1 87
1 88
1 89
1 90
1 91
1 92
1 93
1 94
1 95
1 96
1 97
1 98
1 99
1 100
1 101
1 102
1 103
1 104
1 105
1 106
1 107
1 108
1 109
1 110
1 111
1 112
1 113
1 114
1 115
1 116
1 117
1 118
1 119
1 120
1 121
1 122
1 123
1 124
1 125
1 126
1 127
1 128
1 129
1 130
1 131
1 132
1 133
1 134
1 135
1 136
1 137
1 138
1 139
1 140
1 141
1 142
1 143
1 144
1 145
1 146
1 147
1 148
1 149
1 150
1 151
1 152
1 153
1 154
1 155
1 156
1 157
1 158
1 159
1 160
1 161
1 162
1 163
1 164
1 165
1 166
1 167
1 168
1 169
1 170
1 171
1 172
1 173
1 174
1 175
1 176
1 177
1 178
1 179
1 180
1 181
1 182
1 183
1 184
1 185
1 186
1 187
1 188
1 189
1 190
1 191
1 192
1 193
1 194
1 195
1 196
1 197
1 198
1 199
1 200
1 201
1 202
1 203
1 204
1 205
1 206
1 207
1 208
1 209
1 210
1 211
1 212
1 213
1 214
1 215
1 216
1 217
1 218
1 219
1 220
1 221
1 222
1 223
1 224
1 225
1 226
1 227
1 228
1 229
1 230
1 231
1 232
1 233
1 234
1 235
1 236
1 237
1 238
1 239
1 240
1 241
1 242
1 243
1 244
1 245
1 246
1 247
1 248
1 249
1 250
1 251
1 252
1 253
1 254
1 255
1 256
1 257
1 258
1 259
1 260
1 261
1 262
1 263
1 264
1 265
1 266
1 267
1 268
1 269
1 270

POINT_DATA 271
SCALARS id int 1
LOOKUP_TABLE default
1
2
3
4
5
6
7
8
9
10
11
12
13
14
15
16
17
19
21
22
23
24
25
26
27
28
29
30
31
32
33
34
35
36
37
38
39
41
42
44
45
47
48
50
51
52
53
54
55
56
57
59
61
62
63
64
65
66
67
68
69
70
71
72
73
74
76
77
78
79
80
81
82
83
84
85
86
87
88
89
90
91
92
93
94
95
96
97
98
99
100
101
102
103
104
105
106
107
108
109
110
111
112
113
114
115
116
117
118
119
120
121
122
123
124
125
126
127
128
129
131
132
133
134
135
136
137
138
140
141
142
143
144
147
148
149
150
151
153
154
155
156
157
158
159
160
162
164
165
166
168
169
170
171
172
173
174
175
177
178
179
181
182
183
184
186
187
188
189
190
191
192
193
194
195
196
197
198
199
201
202
203
204
205
206
207
208
209
210
211
212
213
214
215
216
217
218
219
220
221
222
223
224
225
226
227
228
229
230
231
232
234
235
236
237
239
240
241
242
244
246
247
248
249
250
251
252
253
254
255
256
257
258
259
261
262
263
264
265
266
267
268
269
270
271
272
273
274
275
276
277
278
280
283
284
285
286
287
288
289
290
291
292
293
294
295
296
297
298
299
300

SCALARS type int 1
LOOKUP_TABLE default
1
1
1
1
1
1
1
1
1
1
1
1
1
1
1
1
1
1
1
1
1
1
1
1
1
1
1
1
1
1
1
1
1
1
1
1
1
1
1
1
1
1
1
1
1
1
1
1
1
1
1
1
1
1
1
1
1
1
1
1
1
1
1
1
1
1
1
1
1
1
1
1
1
1
1
1
1
1
1
1
1
1
1
1
1
1
1
1
1
1
1
1
1
1
1
1
1
1
1
1
1
1
1
1
1
1
1
1
1
1
1
1
1
1
1
1
1
1
1
1
1
1
1
1
1
1
1
1
1
1
1
1
1
1
1
1
1
1
1
1
1
1
1
1
1
1
1
1
1
1
1
1
1
1
1
1
1
1
1
1
1
1
1
1
1
1
1
1
1
1
1
1
1
1
1
1
1
1
1
1
1
1
1
1
1
1
1
1
1
1
1
1
1
1
1
1
1
1
1
1
1
1
1
1
1
1
1
1
1
1
1
1
1
1
1
1
1
1
1
1
1
1
1
1
1
1
1
1
1
1
1
1
1
1
1
1
1
1
1
1
1
1
1
1
1
1
1
1
1
1
1
1
1
1
1
1
1
1
1
1
1
1
1
1
1
1
1
1
1
1
1

SCALARS radius float 1
LOOKUP_TABLE default
5e-05
5e-05
5e-05
5e-05
5e-05
5e-05
5e-05
5e-05
5e-05
5e-05
5e-05
5e-05
5e-05
5e-05
5e-05
5e-05
5e-05
5e-05
5e-05
5e-05
5e-05
5e-05
5e-05
5e-05
5e-05
5e-05
5e-05
5e-05
5e-05
5e-05
5e-05
5e-05
5e-05
5e-05
5e-05
5e-05
5e-05
5e-05
5e-05
5e-05
5e-05
5e-05
5e-05
5e-05
5e-05
5e-05
5e-05
5e-05
5e-05
5e-05
5e-05
5e-05
5e-05
5e-05
5e-05
5e-05
5e-05
5e-05
5e-05
5e-05
5e-05
5e-05
5e-05
5e-05
5e-05
5e-05
5e-05
5e-05
5e-05
5e-05
5e-05
5e-05
5e-05
5e-05
5e-05
5e-05
5e-05
5e-05
5e-05
5e-05
5e-05
5e-05
5e-05
5e-05
5e-05
5e-05
5e-05
5e-05
5e-05
5e-05
5e-05
5e-05
5e-05
5e-05
5e-05
5e-05
5e-05
5e-05
5e-05
5e-05
5e-05
5e-05
5e-05
5e-05
5e-05
5e-05
5e-05
5e-05
5e-05
5e-05
5e-05
5e-05
5e-05
5e-05
5e-05
5e-05
5e-05
5e-05
5e-05
5e-05
5e-05
5e-05
5e-05
5e-05
5e-05
5e-05
5e-05
5e-05
5e-05
5e-05
5e-05
5e-05
5e-05
5e-05
5e-05
5e-05
5e-05
5e-05
5e-05
5e-05
5e-05
5e-05
5e-05
5e-05
5e-05
5e-05
5e-05
5e-05
5e-05
5e-05
5e-05
5e-05
5e-05
5e-05
5e-05
5e-05
5e-05
5e-05
5e-05
5e-05
5e-05
5e-05
5e-05
5e-05
5e-05
5e-05
5e-05
5e-05
5e-05
5e-05
5e-05
5e-05
5e-05
5e-05
5e-05
5e-05
5e-05
5e-05
5e-05
5e-05
5e-05
5e-05
5e-05
5e-05
5e-05
5e-05
5e-05
5e-05
5e-05
5e-05
5e-05
5e-05
5e-05
5e-05
5e-05
5e-05
5e-05
5e-05
5e-05
5e-05
5e-05
5e-05
5e-05
5e-05
5e-05
5e-05
5e-05
5e-05
5e-05
5e-05
5e-05
5e-05
5e-05
5e-05
5e-05
5e-05
5e-05
5e-05
5e-05
5e-05
5e-05
5e-05
5e-05
5e-05
5e-05
5e-05
5e-05
5e-05
5e-05
5e-05
5e-05
5e-05
5e-05
5e-05
5e-05
5e-05
5e-05
5e-05
5e-05
5e-05
5e-05
5e-05
5e-05
5e-05
5e-05
5e-05
5e-05
5e-05
5e-05
5e-05
5e-05
5e-05
5e-05
5e-05
5e-05
5e-05
5e-05
5e-05
5e-05
5e-05
5e-05
5e-05
5e-05
5e-05
5e-05
5e-05
5e-05
5e-05
5e-05
5e-05
5e-05

SCALARS mass float 1
LOOKUP_TABLE default
1.46608e-10
1.46608e-10
1.46608e-10
1.46608e-10
1.46608e-10
1.46608e-10
1.46608e-10
1.46608e-10
1.46608e-10
1.46608e-10
1.46608e-10
1.46608e-10
1.46608e-10
1.46608e-10
1.46608e-10
1.46608e-10
1.46608e-10
1.46608e-10
1.46608e-10
1.46608e-10
1.46608e-10
1.46608e-10
1.46608e-10
1.46608e-10
1.46608e-10
1.46608e-10
1.46608e-10
1.46608e-10
1.46608e-10
1.46608e-10
1.46608e-10
1.46608e-10
1.46608e-10
1.46608e-10
1.46608e-10
1.46608e-10
1.46608e-10
1.46608e-10
1.46608e-10
1.46608e-10
1.46608e-10
1.46608e-10
1.46608e-10
1.46608e-10
1.46608e-10
1.46608e-10
1.46608e-10
1.46608e-10
1.46608e-10
1.46608e-10
1.46608e-10
1.46608e-10
1.46608e-10
1.46608e-10
1.46608e-10
1.46608e-10
1.46608e-10
1.46608e-10
1.46608e-10
1.46608e-10
1.46608e-10
1.46608e-10
1.46608e-10
1.46608e-10
1.46608e-10
1.46608e-10
1.46608e-10
1.46608e-10
1.46608e-10
1.46608e-10
1.46608e-10
1.46608e-10
1.46608e-10
1.46608e-10
1.46608e-10
1.46608e-10
1.46608e-10
1.46608e-10
1.46608e-10
1.46608e-10
1.46608e-10
1.46608e-10
1.46608e-10
1.46608e-10
1.46608e-10
1.46608e-10
1.46608e-10
1.46608e-10
1.46608e-10
1.46608e-10
1.46608e-10
1.46608e-10
1.46608e-10
1.46608e-10
1.46608e-10
1.46608e-10
1.46608e-10
1.46608e-10
1.46608e-10
1.46608e-10
1.46608e-10
1.46608e-10
1.46608e-10
1.46608e-10
1.46608e-10
1.46608e-10
1.46608e-10
1.46608e-10
1.46608e-10
1.46608e-10
1.46608e-10
1.46608e-10
1.46608e-10
1.46608e-10
1.46608e-10
1.46608e-10
1.46608e-10
1.46608e-10
1.46608e-10
1.46608e-10
1.46608e-10
1.46608e-10
1.46608e-10
1.46608e-10
1.46608e-10
1.46608e-10
1.46608e-10
1.46608e-10
1.46608e-10
1.46608e-10
1.46608e-10
1.46608e-10
1.46608e-10
1.46608e-10
1.46608e-10
1.46608e-10
1.46608e-10
1.46608e-10
1.46608e-10
1.46608e-10
1.46608e-10
1.46608e-10
1.46608e-10
1.46608e-10
1.46608e-10
1.46608e-10
1.46608e-10
1.46608e-10
1.46608e-10
1.46608e-10
1.46608e-10
1.46608e-10
1.46608e-10
1.46608e-10
1.46608e-10
1.46608e-10
1.46608e-10
1.46608e-10
1.46608e-10
1.46608e-10
1.46608e-10
1.46608e-10
1.46608e-10
1.46608e-10
1.46608e-10
1.46608e-10
1.46608e-10
1.46608e-10
1.46608e-10
1.46608e-10
1.46608e-10
1.46608e-10
1.46608e-10
1.46608e-10
1.46608e-10
1.46608e-10
1.46608e-10
1.46608e-10
1.46608e-10
1.46608e-10
1.46608e-10
1.46608e-10
1.46608e-10
1.46608e-10
1.46608e-10
1.46608e-10
1.46608e-10
1.46608e-10
1.46608e-10
1.46608e-10
1.46608e-10
1.46608e-10
1.46608e-10
1.46608e-10
1.46608e-10
1.46608e-10
1.46608e-10
1.46608e-10
1.46608e-10
1.46608e-10
1.46608e-10
1.46608e-10
1.46608e-10
1.46608e-10
1.46608e-10
1.46608e-10
1.46608e-10
1.46608e-10
1.46608e-10
1.46608e-10
1.46608e-10
1.46608e-10
1.46608e-10
1.46608e-10
1.46608e-10
1.46608e-10
1.46608e-10
1.46608e-10
1.46608e-10
1.46608e-10
1.46608e-10
1.46608e-10
1.46608e-10
1.46608e-10
1.46608e-10
1.46608e-10
1.46608e-10
1.46608e-10
1.46608e-10
1.46608e-10
1.46608e-10
1.46608e-10
1.46608e-10
1.46608e-10
1.46608e-10
1.46608e-10
1.46608e-10
1.46608e-10
1.46608e-10
1.46608e-10
1.46608e-10
1.46608e-10
1.46608e-10
1.46608e-10
1.46608e-10
1.46608e-10
1.46608e-10
1.46608e-10
1.46608e-10
1.46608e-10
1.46608e-10
1.46608e-10
1.46608e-10
1.46608e-10
1.46608e-10
1.46608e-10
1.46608e-10
1.46608e-10
1.46608e-10
1.46608e-10
1.46608e-10
1.46608e-10
1.46608e-10
1.46608e-10
1.46608e-10
1.46608e-10
1.46608e-10
1.46608e-10
1.46608e-10
1.46608e-10
1.46608e-10

VECTORS velocity float
0.0057856 -0.000302925 0.000157965
0.00583155 -0.000182684 0.000172626
0.00571391 -0.000181597 -2.98283e-05
0.00585181 0.000293367 5.38507e-05
0.00573738 -0.000284254 0.000135051
0.00610991 0.000245971 0.000174937
0.00558849 -0.00010134 0.000310358
0.00562372 -0.000265853 9.83875e-05
0.00633412 0.000442934 -0.000397064
0.00624817 -0.000303236 0.000215622
0.00591372 5.73045e-05 0.000114251
0.0056759 -0.000239834 -9.8771e-05
0.00609386 -0.000307694 0.000146324
0.00561038 -0.000145662 -6.04378e-05
0.00613979 0.000387345 3.66109e-05
0.00564768 -0.00011044 1.28297e-05
0.00612142 3.03727e-05 0.000125492
0.00560345 -0.00025575 7.84217e-05
0.00625818 -0.000314822 0.000163731
0.00617426 -0.000273535 0.000203118
0.00557751 -0.000275074 -2.29368e-05
0.00586441 0.000538867 -0.000438705
0.00541488 -4.49164e-05 0.000265267
0.00621949 0.000333514 -0.000139983
0.00583151 -0.000419548 9.50978e-05
0.00591085 0.000290284 5.58655e-05
0.00558772 -8.98266e-05 0.000301957
0.00580738 -0.000220616 0.000182254
0.00540776 -0.000139492 9.04512e-05
0.00607799 -0.000490331 5.5531e-05
0.00612683 0.000243371 0.000176931
0.00559182 -0.000116819 0.000309622
0.00625199 -0.000448574 1.90233e-05
0.00641856 0.000435763 -0.000394852
0.00581871 -0.000246353 0.000188482
0.00562854 -0.000308235 7.72838e-05
0.00584135 0.000544314 -0.000441002
0.00592099 -9.57891e-05 0.000152929
4.56116e-16 2.25538e-15 8.46361e-14
0.00597571 -0.000102853 0.000155666
0.0061436 0.000240613 0.000179053
0.00581455 -0.000319957 0.000174465
0.00560971 -0.000298635 6.90508e-05
0.00538531 -0.000216447 -0.000107008
0.0054166 -0.000361674 -0.000250658
0.0056443 0.000206793 0.000160505
0.00638875 0.000437488 -0.000395354
0.00575891 -0.000205387 0.000176025
0.00575027 0.0002345 0.000234599
0.00574338 -5.92717e-05 0.000137353
0.00616062 0.000238571 0.000180801
0.00622696 -0.000325174 0.000213555
0.00599143 -0.000430241 1.75232e-05
0.00564272 -0.000314939 -1.61305e-05
0.00615193 -0.000186493 0.00018042
0.00591415 0.000661603 -2.65611e-05
0.00562184 5.79108e-05 0.000191779
0.00571359 0.000232415 0.000234643
0.00574821 -0.000233156 0.000183198
0.00621525 -0.000464079 3.08108e-05
0.00580212 -0.00021042 0.000181066
0.00668377 0.0019915 -0.00126207
0.00556637 0.000163285 0.000117225
0.00573715 -0.000215595 0.000178354
0.00561936 -0.000250867 7.69755e-05
0.00578719 -0.000165167 0.000167863
0.00571549 -9.10139e-05 0.000113183
0.0062331 -0.00032803 0.000214365
0.00564929 -0.000210158 -2.60427e-05
0.00567091 -0.000262022 -0.000114336
0.00573966 -0.000274714 0.000193349
0.00567744 -0.000111278 -5.72309e-05
0.0055414 -0.000206726 -9.94148e-05
0.00590523 -0.000198709 0.000119409
0.0063606 0.000439478 -0.000395806
0.00580268 -0.000217861 -7.44693e-05
0.0058295 -0.00018214 0.000172304
0.00562753 -0.000327175 -2.00322e-05
0.00595589 -0.00034786 -3.83452e-05
0.00562472 -0.000300455 -1.60461e-05
0.00585523 0.00022113 7.20046e-05
0.00610529 -0.000161439 0.00012863
0.00582472 -0.000251251 0.000189397
0.00549416 -0.00021808 -0.000117185
0.00606932 -0.000204615 0.000184393
0.00624065 -0.000311739 0.000215534
0.00558139 -0.000246325 -0.000113613
0.00573835 -0.000134151 0.000292862
0.00597348 0.000143637 9.38904e-05
0.00605096 -0.000164762 0.000321465
0.00575985 -0.000151997 -6.88238e-05
0.0057322 -0.00028843 -0.000126938
4.03707e-15 1.05482e-14 8.29653e-14
3.17557e-22 4.01299e-22 -5.81428e-22
0.00577324 -0.000198592 2.74238e-05
0.00559021 -0.00030528 3.68881e-05
0.00577167 -0.000273273 1.26655e-05
0.00585929 4.73741e-05 -0.000164964
0.00582332 -0.000230024 0.000185348
0.00617817 -0.000278429 0.000203922
0.00575422 -0.000284878 -8.32723e-05
0.00627483 -0.000284434 0.000215105
0.00582592 -0.000200322 7.24779e-05
0.00600351 -0.000175247 0.000325521
0.0058426 -0.000222034 0.000103075
0.0059435 0.000124258 9.82296e-05
0.00573667 -0.000194967 0.00017373
0.00562792 -0.000296216 -0.000146206
0.0061947 -0.000109873 0.000287079
0.00618615 -0.000278607 0.000203642
0.00550887 -7.08981e-05 0.000280634
0.00559855 -0.000214713 0.000206914
0.00620497 -0.000439563 3.25437e-05
0.0061593 -0.000123054 0.000300951
0.00624978 -0.000374695 9.667e-05
0.00561543 -0.000311714 -0.00014742
0.00605949 -0.000445073 2.50775e-05
0.00570086 -0.000320699 3.55459e-05
0.00619994 -0.000442043 1.51607e-05
0.00580063 -0.000199344 0.000176848
0.00581639 -0.000184782 -3.85936e-05
0.00581216 -0.000246827 0.000188766
0.00619889 -0.000306133 0.000219868
0.00612295 -0.000455081 2.92963e-05
0.00563878 -0.000248322 7.06695e-05
0.00563514 -0.000117162 -6.29387e-05
0.00544962 -0.000216891 -0.000115979
0.00570559 -0.00018992 0.000172613
0.00602837 -0.000222657 0.000188097
0.00583451 -0.000202116 0.00011847
0.00612632 -0.000132334 0.00030839
0.00544307 0.000254293 0.000153732
0.00579454 -0.000105788 0.000136151
0.00564987 -0.000126573 1.33705e-05
0.0060608 -0.000154107 0.000316961
0.00599357 -0.000369035 -2.84753e-05
8.38464e-15 1.24717e-15 -8.48743e-14
0.00609918 -0.000146978 0.000314578
0.00567426 -0.000176839 -5.64447e-05
0.00620728 -0.0001014 0.000299558
0.00614337 -0.000123123 0.000306451
0.0058032 -0.00023558 -3.51618e-06
-3.82214e-14 8.17126e-14 2.95889e-13
0.00582478 -0.000123734 0.00011865
0.00563022 -0.000325021 -8.60148e-06
0.00577353 -0.000105744 0.000109434
0.00571046 -0.000132739 -6.42986e-05
0.00599539 -0.000166403 0.000320602
0.00575529 -0.000257055 6.18578e-06
0.00559548 -0.000204134 0.000173441
0.006069 -0.000157228 0.000318393
0.00567172 -0.000116281 -6.75329e-05
0.00572397 -0.000253703 4.87699e-06
0.00573388 -0.000200702 0.000175595
0.0057335 -0.000287382 1.23172e-05
0.00574069 -0.000259972 0.000190143
0.00664506 0.000147359 -0.000244043
0.00616222 -0.00046769 2.07368e-06
0.00609075 -0.000195697 0.000339552
0.00613581 -0.000147122 0.000315918
0.00617536 -0.000116344 0.000298474
0.00566972 -0.000126183 0.000127908
0.00603829 -0.000272097 0.000199479
0.00572831 -0.00030131 2.81351e-05
0.00619168 -0.00026806 0.000202241
0.00607017 -0.00016101 0.000320518
0.0062176 -0.000368429 6.46595e-05
0.00616214 -0.000484338 4.7423e-05
0.00578704 -0.00023006 0.000182956
0.00553737 -0.000221582 0.000207937
0.00623484 -0.000452984 1.60616e-05
0.00564111 -0.000239902 -2.69839e-06
0.00614709 -0.000187617 0.000180489
1.61483e-15 -1.10042e-14 8.66679e-14
0.00604294 -0.000182416 0.000131804
0.00560715 -0.000103102 0.000270842
0.00614004 -0.000457976 3.49492e-06
0.00566874 -9.44144e-05 -5.83229e-05
0.00586362 -0.000156264 0.000124567
0.00597619 -2.59299e-05 0.000241888
0.00587194 -0.000224098 -2.64014e-06
0.00584421 -0.000304028 -6.67324e-05
0.00563827 0.000243891 0.000200462
0.00579334 -0.000286367 5.2829e-05
0.00585724 -0.000150478 0.000306471
0.00608038 -0.000152633 0.000316755
0.00579652 -0.00021575 -1.471e-05
0.00597896 0.000991083 -0.000268955
0.00625834 -0.000295514 0.00021357
0.00619908 -0.000416191 2.52179e-06
0.00579595 -0.000254234 0.000125046
0.0057935 -0.00023128 0.000184679
0.00602887 -0.000382271 -2.26397e-05
0.00545125 -0.00020402 0.000201756
0.0058124 -0.000206971 -2.5403e-05
0.00562689 -0.000294092 9.11065e-05
0.00538676 -0.00018486 -0.000117959
0.0059381 -0.000338133 -4.79537e-05
0.00577713 -0.000268572 0.000123468
0.00629862 -3.3599e-05 1.08886e-05
0.00577396 -0.000247607 0.000188464
0.00570746 -0.000193091 2.81187e-05
-0.0295275 0.0104898 -0.00128572
0.00625351 -0.000362522 0.000129378
0.00611691 -0.000142101 0.000312866
0.00568212 -0.000279203 0.000220459
0.00615711 -0.000467138 3.64787e-06
0.00568456 -0.000167296 0.000124352
0.00556824 -3.2552e-05 0.000237676
0.00618062 -0.000457028 8.46798e-06
0.00583358 -0.000139241 0.000118976
0.00573102 -0.00017792 0.00016876
0.00573827 -0.00028248 1.60849e-05
0.00560208 -0.000122375 0.000170876
0.00558988 -0.000295256 -0.000139492
0.0055338 -0.000147224 0.000343369
0.00579917 -0.000196266 0.000403332
0.00606959 -0.000292917 0.000490506
0.00617853 -0.000116504 0.000286704
0.00604423 -0.00024881 0.000468785
0.00619349 -0.000434554 6.81697e-05
0.00577993 -1.80144e-05 0.000104432
0.00559129 2.47374e-05 0.000208221
0.00572359 -0.000265235 0.000220715
0.00600085 -0.000193973 0.000334889
0.00590114 -0.000323501 -5.61182e-05
0.00612598 -0.000454029 8.23666e-07
0.00558416 -0.000220913 0.000209033
0.00617447 -0.000414242 0.000152186
0.00579689 -0.000120381 0.000137607
0.00640048 -0.000166365 -0.000198006
0.00608042 -0.000177027 0.000329266
0.00617162 -0.00013216 0.000309121
0.0060224 -0.0004269 8.17418e-06
0.00604628 -0.000167089 0.000323486
0.00551701 -0.000222809 -0.0001102
0.00617153 -0.000313668 0.000529074
0.00569855 -0.000166356 -5.75257e-05
0.00615126 -0.00046206 3.7866e-06
0.00610995 -0.00013867 0.000305359
0.00565856 -0.000118069 0.000284402
0.00602511 -0.000172277 0.000325127
0.0061815 -0.000123023 0.000306365
0.00608491 -0.000394236 -1.495e-05
0.00564971 -0.00011494 0.000118047
0.00566183 -0.000282773 0.000222989
0.00538191 -0.00018776 -0.000122527
0.00580264 -0.000347306 0.000106828
0.00594062 -0.000160095 0.000315476
0.00605649 -0.000170074 0.000324004
0.00615055 -0.000116699 0.00029867
0.00568861 -9.45556e-05 0.000113885
0.00563674 -0.000273766 0.000216628
0.00549831 -0.000151451 0.000347724
0.00603213 -0.000170048 0.000323816
0.00571234 -0.000128934 -6.70767e-05
0.00596276 -0.000208077 0.000131118
0.00611778 -0.000161145 0.000318912
0.00615949 -0.00018866 0.000338105
0.00559184 -0.000279654 -3.66143e-05
0.00567099 -0.000152131 2.91858e-05
0.00618038 -0.000145739 0.000317779
0.00581729 -0.000125177 0.000121912
0.00601549 -0.000204034 1.58038e-05
0.00545812 -0.000198535 -0.000111759
0.00572943 -0.000279049 0.000221841
0.00560405 -0.000277628 -7.11152e-05
0.00574739 -0.000222199 0.000180519
0.00591359 -0.000254848 0.000457756
0.00612811 -0.000454462 2.47643e-06
0.00616271 -0.000415697 -7.62978e-06

VECTORS force float
1.62833e-10 -8.48871e-11 -2.24134e-11
4.41028e-10 1.75092e-10 -4.58553e-11
-1.65477e-10 1.60599e-10 -1.21712e-10
-7.25521e-10 3.03506e-10 -9.26279e-11
-2.94702e-10 -4.09872e-11 1.14252e-10
2.52415e-12 4.72032e-12 -2.12284e-12
-7.93352e-11 1.16983e-10 -2.34365e-10
-4.40643e-10 2.37191e-11 9.22042e-11
-9.69446e-12 -3.10331e-11 1.72838e-11
-7.16942e-11 -1.10271e-10 -8.56754e-12
-1.28176e-11 -3.80498e-10 8.36965e-11
-1.94527e-10 -2.22808e-11 -4.93456e-10
-2.49403e-10 1.3862e-10 -2.26305e-10
-6.83427e-11 -1.25961e-11 -1.00545e-10
-7.25368e-10 2.94855e-10 -8.98167e-11
5.53484e-11 -1.46921e-10 -2.17827e-10
-3.51291e-10 -1.13909e-10 1.84759e-11
1.16256e-10 3.34557e-11 -6.41784e-11
-1.66274e-10 -4.88012e-10 -8.53623e-10
-9.80261e-11 1.06767e-10 -2.92289e-11
-1.21194e-10 -1.99285e-10 3.81108e-10
5.47637e-11 -8.04598e-12 3.98802e-12
3.13282e-11 5.78974e-11 3.78586e-11
1.84899e-11 5.38166e-11 -9.8513e-11
-6.3452e-11 9.83046e-12 9.85593e-11
-4.30817e-10 -2.64133e-11 -4.33699e-13
-8.4314e-11 1.75687e-10 -5.25775e-11
-3.93338e-10 1.8164e-10 -8.67337e-11
-5.76637e-11 -7.34967e-11 -7.35105e-11
-1.66494e-10 -1.63601e-10 1.44702e-10
1.73753e-12 4.12342e-12 -1.81012e-12
1.05568e-10 1.74224e-10 -3.36057e-11
2.04882e-10 -4.4557e-11 8.57142e-11
5.34412e-13 -8.53116e-12 6.71617e-12
-3.15209e-11 1.21576e-10 -7.8081e-12
7.53662e-11 4.40768e-11 -2.609e-11
1.95615e-11 1.94026e-11 -4.2402e-12
-2.13696e-10 -7.68759e-10 1.91585e-10
-5.15615e-23 -2.42338e-24 2.06795e-25
-4.76891e-11 3.52276e-11 -4.36616e-12
-1.6146e-13 2.94439e-13 -5.34038e-13
1.31608e-10 -7.42315e-11 -2.7518e-11
1.20784e-10 1.06845e-12 -1.55918e-10
-2.7695e-10 -1.29924e-10 -2.31968e-10
-3.54951e-10 -1.3823e-10 -2.65038e-10
-1.43836e-10 5.15757e-11 -2.79376e-10
4.71556e-12 -1.5245e-11 9.10117e-12
-3.92466e-11 -6.97525e-11 -9.2167e-12
3.03411e-10 3.42334e-10 -4.28732e-10
1.04355e-10 -5.45089e-11 1.18064e-10
5.39015e-13 -3.54528e-12 2.09716e-12
6.65597e-11 2.47295e-10 -1.90738e-11
-1.23938e-10 -2.24085e-10 1.60252e-10
6.99447e-11 -6.7336e-11 -2.29618e-11
-1.79412e-10 2.42099e-10 -7.02686e-11
1.4351e-12 1.75421e-11 -2.20537e-12
2.54069e-11 1.18162e-10 -5.83592e-11
4.75148e-11 2.32238e-10 -2.86672e-10
-5.1413e-11 1.44373e-10 -5.19492e-11
2.25655e-10 -2.17609e-10 1.67964e-10
-2.2654e-10 -1.59143e-10 2.99207e-11
9.13743e-13 9.38154e-13 -5.43794e-13
-9.66245e-11 3.74424e-10 -3.77846e-10
5.81298e-11 2.15914e-10 -3.85516e-11
1.04104e-10 4.69301e-10 -6.11915e-11
-1.69953e-11 -5.29547e-11 3.35206e-11
-3.25767e-10 -1.74697e-10 5.20303e-11
-1.78513e-11 1.16545e-10 -2.55446e-11
1.31252e-09 2.53611e-09 -3.02225e-10
5.8948e-11 -6.65944e-11 -4.25639e-10
3.86057e-10 1.33646e-10 -1.61675e-11
2.45935e-10 -1.51004e-10 -4.96567e-11
8.1591e-11 7.09603e-11 -2.80563e-10
-2.84635e-10 -2.48775e-10 -1.18446e-10
-7.4963e-12 -2.52777e-11 1.38291e-11
-2.82953e-11 -5.21797e-12 -1.76852e-10
8.1881e-10 7.90067e-10 -1.78114e-10
1.31362e-10 5.61114e-11 -3.34237e-10
-1.75458e-10 -2.46216e-10 1.90239e-10
9.60909e-11 -8.12113e-11 -5.44519e-11
-3.12505e-10 2.20384e-10 -6.35246e-11
1.38658e-10 2.36185e-12 5.64562e-11
-1.53357e-10 1.35717e-10 -4.70555e-11
2.00701e-11 -3.18284e-11 2.20143e-11
2.47911e-10 3.10462e-10 -1.24572e-10
-1.12413e-10 -3.44265e-11 -4.36794e-11
-1.8183e-10 -2.45379e-11 6.25315e-11
-4.82445e-11 -2.39233e-10 1.57944e-10
7.95288e-11 1.24258e-10 -2.88049e-11
-1.44552e-10 -2.43561e-10 1.25589e-10
-5.83255e-12 -2.49173e-10 1.10567e-10
2.39167e-10 6.65354e-11 -4.47722e-10
4.31685e-23 -4.45437e-22 5.08716e-23
0.0 0.0 0.0
-2.18305e-11 1.05467e-10 -1.0322e-10
-5.37674e-10 1.24973e-10 -2.28097e-11
-3.0246e-10 1.4241e-10 -1.85362e-11
-3.80495e-10 3.69569e-10 -2.19382e-10
4.83608e-12 9.61207e-11 -4.3087e-11
2.3444e-11 7.98972e-11 -2.50771e-11
-3.57691e-10 -5.88161e-12 4.10644e-11
4.72362e-11 1.35385e-10 -2.10445e-11
2.27448e-10 -2.88e-10 3.34765e-11
-4.87165e-11 -1.88022e-10 9.97477e-11
7.76928e-10 -2.72144e-10 4.68849e-10
-4.05005e-10 9.74643e-11 -3.2167e-11
1.71414e-10 3.25363e-10 -6.51506e-11