# vtk DataFile Version 3.0
LIGGGHTS particles timestep 20400000
ASCII
DATASET POLYDATA
POINTS 287 float
0.131719 0.0161086 0.00802402
0.132225 0.0173608 0.00743136
0.125559 0.0158174 0.00815787
0.132075 0.0174874 0.00741054
0.131598 0.0160198 0.00812296
0.13778 0.0166995 0.00765779
0.131787 0.0167112 0.00760589
0.13149 0.0156785 0.00847209
0.13803 0.0177981 0.00709398
0.131727 0.0164445 0.00772051
0.132241 0.0175807 0.00736176
0.125769 0.0166158 0.00759992
0.131576 0.0159516 0.00819279
0.125479 0.0156354 0.008502
0.131924 0.0169314 0.00754583
0.125459 0.0155892 0.00858833
0.131706 0.0163672 0.0077803
0.137913 0.0172273 0.00723144
0.131555 0.0158833 0.00826261
0.131697 0.0160404 0.00809385
0.131829 0.0168984 0.00754881
0.125962 0.0170588 0.00732249
0.137972 0.0175085 0.00714592
0.131767 0.0166176 0.00763451
0.137857 0.0169797 0.00738305
0.125848 0.0169483 0.00739247
0.132028 0.0173994 0.00740316
0.131533 0.0158151 0.00833244
0.132082 0.0172446 0.00745741
0.131808 0.0168048 0.00757735
0.131904 0.0168378 0.00757436
0.137801 0.0167694 0.00758935
0.131684 0.0162935 0.0078444
0.131883 0.0167442 0.0076029
0.138069 0.0179911 0.00705937
0.131842 0.0165568 0.00766002
0.13202 0.0169638 0.00754307
0.137991 0.017605 0.00712861
0.131641 0.0161563 0.00798332
0.131849 0.016992 0.00752027
0.13204 0.0170574 0.00751446
0.137819 0.0168396 0.0075205
0.137892 0.0171353 0.00726514
0.131663 0.0162246 0.0079135
0.13189 0.0171792 0.00746319
0.137873 0.01705 0.00731374
0.131952 0.01746 0.00737761
0.131932 0.0173664 0.00740614
0.125749 0.0165326 0.00765178
0.137932 0.0173199 0.00719899
0.131676 0.0159721 0.0081637
0.125519 0.0157283 0.00832957
0.131863 0.0166506 0.00763144
0.137837 0.0169097 0.00745161
0.131938 0.0165894 0.00765716
0.131958 0.016683 0.00762862
0.131619 0.0160881 0.00805314
0.132061 0.017151 0.00748593
0.131986 0.0172122 0.00746022
0.137952 0.0174135 0.00717023
0.125884 0.0167255 0.0075304
0.125824 0.0164761 0.00768598
0.132229 0.0174761 0.0073945
0.13215 0.0174267 0.00743657
0.131783 0.0163136 0.00781438
0.138011 0.0177015 0.00711129
0.125499 0.0156808 0.00841517
0.132102 0.0173382 0.00742887
0.131746 0.016524 0.00766296
0.131945 0.017025 0.00751729
0.126077 0.0175944 0.0070956
0.132057 0.0179389 0.00730055
0.125581 0.0158842 0.00808657
0.125789 0.0166989 0.00754807
0.131987 0.0175661 0.00744799
0.125728 0.0164495 0.00770362
0.125867 0.0170316 0.00734053
0.125919 0.0165027 0.00766835
0.13805 0.0178946 0.00707667
0.125699 0.0159845 0.00800603
0.132007 0.0173058 0.0074317
0.131917 0.0164974 0.00769046
0.131995 0.0176461 0.00738049
0.132107 0.0177143 0.00740131
0.132177 0.0172764 0.00745474
0.125809 0.016782 0.00749623
0.132188 0.0177326 0.00730857
0.132097 0.0177716 0.00731994
0.132262 0.0179919 0.00723088
0.132211 0.017812 0.00736621
0.132169 0.0178261 0.00727685
0.125688 0.0162833 0.0078073
0.132015 0.0177436 0.00737018
0.125864 0.0166424 0.00758224
0.132135 0.0170892 0.0075118
0.125804 0.016393 0.00773782
0.0643568 0.0187248 0.00531097
0.24257 0.0191927 0.00520306
0.126153 0.0175304 0.00711134
0.125646 0.0161176 0.00791085
0.126228 0.017466 0.00712724
0.125602 0.0159571 0.0080217
0.131821 0.0164632 0.00768856
0.131911 0.0172728 0.00743466
0.132125 0.0182703 0.0071302
0.132165 0.0181098 0.00718512
0.125709 0.0163664 0.00775548
0.126428 0.0183107 0.00693175
0.126095 0.017252 0.00720098
0.131966 0.0171186 0.00748875
0.131802 0.0163827 0.00774459
0.131654 0.0159038 0.00823353
0.125541 0.0157868 0.00825124
0.131979 0.0167766 0.00760008
0.131512 0.0157468 0.00840226
0.131468 0.0156103 0.00854191
0.13211 0.0181904 0.0072053
0.125742 0.0161438 0.00789326
0.132071 0.0176703 0.00731924
0.131632 0.0158351 0.00830392
0.13187 0.0170856 0.00749173
0.125667 0.0162004 0.00785906
0.131976 0.0175531 0.00734945
0.132158 0.0179056 0.00733671
0.125981 0.0171421 0.00727054
0.125844 0.0165592 0.00763411
0.132073 0.017587 0.00740226
0.131839 0.0161966 0.00792595
0.131999 0.0168702 0.00757154
0.13161 0.0157668 0.00837376
0.125677 0.0159115 0.00807069
0.132066 0.0179908 0.00721553
0.131762 0.0162451 0.00788439
0.132196 0.0182047 0.00715698
0.125721 0.016061 0.00794496
0.126114 0.0173391 0.00715566
0.125624 0.016035 0.00796287
0.126076 0.0171687 0.00725289
0.125939 0.016586 0.00761633
0.125659 0.0158407 0.00813907
0.125924 0.0172817 0.00718498
0.132172 0.018031 0.00724641
0.125979 0.0167523 0.00751262
0.126343 0.0175919 0.00709892
0.125784 0.0163099 0.00778968
0.126038 0.0174033 0.00713989
0.126097 0.01769 0.00707346
0.126019 0.0173089 0.00716653
0.0219312 0.0187687 0.00551176
0.126295 0.0180755 0.00698537
0.132152 0.0175354 0.00736926
0.125983 0.0175629 0.00710199
0.125944 0.0173718 0.00714627
0.126194 0.0180974 0.0069792
0.126412 0.0178772 0.00703294
0.131796 0.0160601 0.00806558
0.125959 0.0166692 0.00756448
0.126248 0.0175614 0.00710507
0.126478 0.0181642 0.00696651
0.126268 0.0176569 0.00708295
0.131817 0.0161284 0.00799575
0.126391 0.017781 0.00705522
0.132279 0.0177747 0.00730224
0.126192 0.0177215 0.00706706
0.119895 0.0171664 0.00730853
0.126 0.0172254 0.00721858
0.126022 0.017754 0.00705772
0.126548 0.0180948 0.00698346
0.126459 0.018052 0.00699255
0.125996 0.0176296 0.00717537
0.13174 0.0161769 0.0079542
0.126172 0.017626 0.0070892
0.132265 0.0176736 0.00733372
0.125905 0.0171982 0.00723663
0.126003 0.0175311 0.00719464
0.132115 0.0169956 0.00754034
0.132051 0.0178475 0.00726054
0.132156 0.0171828 0.00748328
0.120081 0.0175744 0.00721706
0.132087 0.0180847 0.00724239
0.12619 0.0172787 0.00718421
0.131896 0.0164028 0.00771572
0.126018 0.0169187 0.0074088
0.126471 0.0179554 0.00701525
0.125439 0.0155434 0.00867491
0.119952 0.0174509 0.00728591
0.125829 0.0168651 0.00744437
0.125963 0.0174675 0.00712474
0.125943 0.0169752 0.00737462
0.126396 0.0182185 0.00695297
0.126208 0.0173705 0.00714931
0.132145 0.018364 0.00710158
0.125923 0.0168919 0.00742658
0.126236 0.0181593 0.00704554
0.126213 0.0178229 0.00704358
0.125763 0.0162268 0.00784151
0.126058 0.0174988 0.00711776
0.125999 0.0168355 0.00746071
0.132163 0.0176172 0.00743403
0.132234 0.0178998 0.00725834
0.126292 0.0177515 0.00706109
0.132094 0.0169019 0.00756888
0.132353 0.0179539 0.00725036
0.120028 0.0174913 0.00723513
0.126002 0.0176585 0.00707986
0.13186 0.016265 0.00785604
0.126134 0.0178815 0.00702906
0.13214 0.0179295 0.00724128
0.126155 0.0178477 0.00712075
0.11995 0.0170071 0.00734889
0.131879 0.0163338 0.00778593
0.126133 0.0174347 0.00713352
0.125886 0.0171149 0.00728856
0.132164 0.0176397 0.0073366
0.126366 0.0176866 0.00707701
0.120012 0.017294 0.00728206
0.119916 0.0172638 0.00730203
0.126078 0.0177618 0.00714033
0.12631 0.0182686 0.00694037
0.119875 0.0170709 0.00733077
0.125899 0.0164195 0.00772024
0.126037 0.0170021 0.00735679
0.132036 0.0178407 0.00735932
0.126187 0.0185669 0.00695893
0.12634 0.0184667 0.00690726
0.126204 0.0186464 0.00690026
0.119702 0.0163663 0.00782338
0.11976 0.0165762 0.00761733
0.11968 0.0163012 0.00789615
0.126152 0.0171116 0.00728743
0.125904 0.0168087 0.00747849
0.119721 0.0164339 0.0077524
0.119835 0.0168815 0.00737495
0.126165 0.0179659 0.00707257
0.126347 0.0183676 0.00691827
0.119971 0.0175487 0.00729407
0.126116 0.0177855 0.00705132
0.132263 0.0181355 0.00718462
0.120003 0.0176958 0.00720477
0.119991 0.0171977 0.00730453
0.119819 0.0167928 0.00741843
0.125634 0.0157812 0.00821531
0.126249 0.017919 0.00704617
0.126076 0.0180376 0.00708132
0.126187 0.0180635 0.00707298
0.120022 0.0177851 0.00716415
0.126057 0.0170854 0.00730485
0.126249 0.0185095 0.00690528
0.126253 0.0184096 0.00690683
0.119798 0.0167194 0.00748307
0.126115 0.0181342 0.00707023
0.119934 0.0173548 0.00726457
0.126323 0.0174965 0.00712103
0.126095 0.0181112 0.00697496
0.126231 0.0177843 0.00713405
0.126061 0.0179507 0.00703027
0.132324 0.0178604 0.00727822
0.126317 0.0178458 0.00703929
0.120062 0.0179761 0.0071196
0.12613 0.018281 0.00693562
0.120042 0.0178806 0.00714188
0.126126 0.0180188 0.00699688
0.126041 0.017852 0.00705292
0.126185 0.0183696 0.00700475
0.126225 0.0180051 0.00700112
0.119855 0.0169789 0.00736432
0.120099 0.0176701 0.0071947
0.126132 0.0170284 0.00733936
0.11997 0.0171025 0.00732665
0.119742 0.0165049 0.00768493
0.126223 0.0183167 0.00692823
0.12622 0.0182285 0.00697517
0.126126 0.0182034 0.00699854
0.126304 0.0181743 0.00697292
0.126284 0.0183592 0.00699541
0.126113 0.0169451 0.00739127
0.126171 0.0171949 0.00723551
0.126389 0.0181214 0.00697561
0.125878 0.0163364 0.00777208
0.126322 0.0179787 0.00700828
0.126151 0.0183843 0.0069117
0.120028 0.0173918 0.00725909
0.126292 0.0185999 0.00691165
0.132073 0.0168083 0.00759742
0.119778 0.0166476 0.00754964
0.119984 0.0175978 0.00720788
0.132355 0.0177157 0.0073274

VERTICES 287 574
1 0
1 1
1 2
1 3
1 4
1 5
1 6
1 7
1 8
1 9
1 10
1 11
1 12
1 13
1 14
1 15
1 16
1 17
1 18
1 19
1 20
1 21
1 22
1 23
1 24
1 25
1 26
1 27
1 28
1 29
1 30
1 31
1 32
1 33
1 34
1 35
1 36
1 37
1 38
1 39
1 40
1 41
1 42
1 43
1 44
1 45
1 46
1 47
1 48
1 49
1 50
1 51
1 52
1 53
1 54
1 55
1 56
1 57
1 58
1 59
1 60
1 61
1 62
1 63
1 64
1 65
1 66
1 67
1 68
1 69
1 70
1 71
1 72
1 73
1 74
1 75
1 76
1 77
1 78
1 79
1 80
1 81
1 82
1 83
1 84
1 85
1 86
1 87
1 88
1 89
1 90
1 91
1 92
1 93
1 94
1 95
1 96
1 97
1 98
1 99
1 100
1 101
1 102
1 103
1 104
1 105
1 106
1 107
1 108
1 109
1 110
1 111
1 112
1 113
1 114
1 115
1 116
1 117
1 118
1 119
1 120
1 121
1 122
1 123
1 124
1 125
1 126
1 127
1 128
1 129
1 130
1 131
1 132
1 133
1 134
1 135
1 136
1 137
1 138
1 139
1 140
1 141
1 142
1 143
1 144
1 145
1 146
1 147
1 148
1 149
1 150
1 151
1 152
1 153
1 154
1 155
1 156
1 157
1 158
1 159
1 160
1 161
1 162
1 163
1 164
1 165
1 166
1 167
1 168
1 169
1 170
1 171
1 172
1 173
1 174
1 175
1 176
1 177
1 178
1 179
1 180
1 181
1 182
1 183
1 184
1 185
1 186
1 187
1 188
1 189
1 190
1 191
1 192
1 193
1 194
1 195
1 196
1 197
1 198
1 199
1 200
1 201
1 202
1 203
1 204
1 205
1 206
1 207
1 208
1 209
1 210
1 211
1 212
1 213
1 214
1 215
1 216
1 217
1 218
1 219
1 220
1 221
1 222
1 223
1 224
1 225
1 226
1 227
1 228
1 229
1 230
1 231
1 232
1 233
1 234
1 235
1 236
1 237
1 238
1 239
1 240
1 241
1 242
1 243
1 244
1 245
1 246
1 247
1 248
1 249
1 250
1 251
1 252
1 253
1 254
1 255
1 256
1 257
1 258
1 259
1 260
1 261
1 262
1 263
1 264
1 265
1 266
1 267
1 268
1 269
1 270
1 271
1 272
1 273
1 274
1 275
1 276
1 277
1 278
1 279
1 280
1 281
1 282
1 283
1 284
1 285
1 286

POINT_DATA 287
SCALARS id int 1
LOOKUP_TABLE default
1
2
3
4
5
6
7
8
9
10
11
12
13
14
15
16
17
18
19
21
22
23
24
25
26
27
28
29
30
31
32
33
34
35
36
37
38
39
41
42
44
45
46
47
48
49
50
51
52
53
54
55
56
57
59
60
61
62
63
64
65
66
67
68
69
70
71
72
73
74
76
77
78
79
80
81
82
83
84
85
86
87
88
89
90
91
92
93
94
95
96
97
98
99
100
101
102
103
104
105
106
107
108
109
110
111
112
113
114
115
116
117
118
119
120
121
122
123
124
125
126
127
128
129
130
131
132
133
134
135
136
137
138
140
141
142
143
144
146
147
148
149
150
151
153
154
155
156
157
158
159
160
162
164
165
166
167
168
169
170
171
172
173
174
175
176
177
178
179
181
182
183
184
185
186
187
188
189
190
191
192
193
194
195
196
197
198
199
200
201
202
203
204
205
206
207
208
209
210
211
212
213
214
215
216
217
218
219
220
221
222
223
224
225
226
227
228
229
230
231
232
233
234
235
236
237
239
240
241
242
243
244
246
247
248
249
250
251
252
253
254
255
256
257
258
259
260
261
262
263
264
265
266
267
268
269
270
271
272
273
274
275
276
277
278
279
280
281
282
283
284
285
286
287
288
289
290
291
292
293
294
295
296
297
298
299
300

SCALARS type int 1
LOOKUP_TABLE default
1
1
1
1
1
1
1
1
1
1
1
1
1
1
1
1
1
1
1
1
1
1
1
1
1
1
1
1
1
1
1
1
1
1
1
1
1
1
1
1
1
1
1
1
1
1
1
1
1
1
1
1
1
1
1
1
1
1
1
1
1
1
1
1
1
1
1
1
1
1
1
1
1
1
1
1
1
1
1
1
1
1
1
1
1
1
1
1
1
1
1
1
1
1
1
1
1
1
1
1
1
1
1
1
1
1
1
1
1
1
1
1
1
1
1
1
1
1
1
1
1
1
1
1
1
1
1
1
1
1
1
1
1
1
1
1
1
1
1
1
1
1
1
1
1
1
1
1
1
1
1
1
1
1
1
1
1
1
1
1
1
1
1
1
1
1
1
1
1
1
1
1
1
1
1
1
1
1
1
1
1
1
1
1
1
1
1
1
1
1
1
1
1
1
1
1
1
1
1
1
1
1
1
1
1
1
1
1
1
1
1
1
1
1
1
1
1
1
1
1
1
1
1
1
1
1
1
1
1
1
1
1
1
1
1
1
1
1
1
1
1
1
1
1
1
1
1
1
1
1
1
1
1
1
1
1
1
1
1
1
1
1
1
1
1
1
1
1
1
1
1
1
1
1
1
1
1
1
1
1
1
1
1
1
1
1
1

SCALARS radius float 1
LOOKUP_TABLE default
5e-05
5e-05
5e-05
5e-05
5e-05
5e-05
5e-05
5e-05
5e-05
5e-05
5e-05
5e-05
5e-05
5e-05
5e-05
5e-05
5e-05
5e-05
5e-05
5e-05
5e-05
5e-05
5e-05
5e-05
5e-05
5e-05
5e-05
5e-05
5e-05
5e-05
5e-05
5e-05
5e-05
5e-05
5e-05
5e-05
5e-05
5e-05
5e-05
5e-05
5e-05
5e-05
5e-05
5e-05
5e-05
5e-05
5e-05
5e-05
5e-05
5e-05
5e-05
5e-05
5e-05
5e-05
5e-05
5e-05
5e-05
5e-05
5e-05
5e-05
5e-05
5e-05
5e-05
5e-05
5e-05
5e-05
5e-05
5e-05
5e-05
5e-05
5e-05
5e-05
5e-05
5e-05
5e-05
5e-05
5e-05
5e-05
5e-05
5e-05
5e-05
5e-05
5e-05
5e-05
5e-05
5e-05
5e-05
5e-05
5e-05
5e-05
5e-05
5e-05
5e-05
5e-05
5e-05
5e-05
5e-05
5e-05
5e-05
5e-05
5e-05
5e-05
5e-05
5e-05
5e-05
5e-05
5e-05
5e-05
5e-05
5e-05
5e-05
5e-05
5e-05
5e-05
5e-05
5e-05
5e-05
5e-05
5e-05
5e-05
5e-05
5e-05
5e-05
5e-05
5e-05
5e-05
5e-05
5e-05
5e-05
5e-05
5e-05
5e-05
5e-05
5e-05
5e-05
5e-05
5e-05
5e-05
5e-05
5e-05
5e-05
5e-05
5e-05
5e-05
5e-05
5e-05
5e-05
5e-05
5e-05
5e-05
5e-05
5e-05
5e-05
5e-05
5e-05
5e-05
5e-05
5e-05
5e-05
5e-05
5e-05
5e-05
5e-05
5e-05
5e-05
5e-05
5e-05
5e-05
5e-05
5e-05
5e-05
5e-05
5e-05
5e-05
5e-05
5e-05
5e-05
5e-05
5e-05
5e-05
5e-05
5e-05
5e-05
5e-05
5e-05
5e-05
5e-05
5e-05
5e-05
5e-05
5e-05
5e-05
5e-05
5e-05
5e-05
5e-05
5e-05
5e-05
5e-05
5e-05
5e-05
5e-05
5e-05
5e-05
5e-05
5e-05
5e-05
5e-05
5e-05
5e-05
5e-05
5e-05
5e-05
5e-05
5e-05
5e-05
5e-05
5e-05
5e-05
5e-05
5e-05
5e-05
5e-05
5e-05
5e-05
5e-05
5e-05
5e-05
5e-05
5e-05
5e-05
5e-05
5e-05
5e-05
5e-05
5e-05
5e-05
5e-05
5e-05
5e-05
5e-05
5e-05
5e-05
5e-05
5e-05
5e-05
5e-05
5e-05
5e-05
5e-05
5e-05
5e-05
5e-05
5e-05
5e-05
5e-05
5e-05
5e-05
5e-05
5e-05
5e-05
5e-05
5e-05
5e-05
5e-05
5e-05
5e-05
5e-05
5e-05
5e-05
5e-05
5e-05
5e-05
5e-05
5e-05
5e-05
5e-05
5e-05
5e-05
5e-05
5e-05
5e-05
5e-05
5e-05
5e-05
5e-05
5e-05

SCALARS mass float 1
LOOKUP_TABLE default
1.46608e-10
1.46608e-10
1.46608e-10
1.46608e-10
1.46608e-10
1.46608e-10
1.46608e-10
1.46608e-10
1.46608e-10
1.46608e-10
1.46608e-10
1.46608e-10
1.46608e-10
1.46608e-10
1.46608e-10
1.46608e-10
1.46608e-10
1.46608e-10
1.46608e-10
1.46608e-10
1.46608e-10
1.46608e-10
1.46608e-10
1.46608e-10
1.46608e-10
1.46608e-10
1.46608e-10
1.46608e-10
1.46608e-10
1.46608e-10
1.46608e-10
1.46608e-10
1.46608e-10
1.46608e-10
1.46608e-10
1.46608e-10
1.46608e-10
1.46608e-10
1.46608e-10
1.46608e-10
1.46608e-10
1.46608e-10
1.46608e-10
1.46608e-10
1.46608e-10
1.46608e-10
1.46608e-10
1.46608e-10
1.46608e-10
1.46608e-10
1.46608e-10
1.46608e-10
1.46608e-10
1.46608e-10
1.46608e-10
1.46608e-10
1.46608e-10
1.46608e-10
1.46608e-10
1.46608e-10
1.46608e-10
1.46608e-10
1.46608e-10
1.46608e-10
1.46608e-10
1.46608e-10
1.46608e-10
1.46608e-10
1.46608e-10
1.46608e-10
1.46608e-10
1.46608e-10
1.46608e-10
1.46608e-10
1.46608e-10
1.46608e-10
1.46608e-10
1.46608e-10
1.46608e-10
1.46608e-10
1.46608e-10
1.46608e-10
1.46608e-10
1.46608e-10
1.46608e-10
1.46608e-10
1.46608e-10
1.46608e-10
1.46608e-10
1.46608e-10
1.46608e-10
1.46608e-10
1.46608e-10
1.46608e-10
1.46608e-10
1.46608e-10
1.46608e-10
1.46608e-10
1.46608e-10
1.46608e-10
1.46608e-10
1.46608e-10
1.46608e-10
1.46608e-10
1.46608e-10
1.46608e-10
1.46608e-10
1.46608e-10
1.46608e-10
1.46608e-10
1.46608e-10
1.46608e-10
1.46608e-10
1.46608e-10
1.46608e-10
1.46608e-10
1.46608e-10
1.46608e-10
1.46608e-10
1.46608e-10
1.46608e-10
1.46608e-10
1.46608e-10
1.46608e-10
1.46608e-10
1.46608e-10
1.46608e-10
1.46608e-10
1.46608e-10
1.46608e-10
1.46608e-10
1.46608e-10
1.46608e-10
1.46608e-10
1.46608e-10
1.46608e-10
1.46608e-10
1.46608e-10
1.46608e-10
1.46608e-10
1.46608e-10
1.46608e-10
1.46608e-10
1.46608e-10
1.46608e-10
1.46608e-10
1.46608e-10
1.46608e-10
1.46608e-10
1.46608e-10
1.46608e-10
1.46608e-10
1.46608e-10
1.46608e-10
1.46608e-10
1.46608e-10
1.46608e-10
1.46608e-10
1.46608e-10
1.46608e-10
1.46608e-10
1.46608e-10
1.46608e-10
1.46608e-10
1.46608e-10
1.46608e-10
1.46608e-10
1.46608e-10
1.46608e-10
1.46608e-10
1.46608e-10
1.46608e-10
1.46608e-10
1.46608e-10
1.46608e-10
1.46608e-10
1.46608e-10
1.46608e-10
1.46608e-10
1.46608e-10
1.46608e-10
1.46608e-10
1.46608e-10
1.46608e-10
1.46608e-10
1.46608e-10
1.46608e-10
1.46608e-10
1.46608e-10
1.46608e-10
1.46608e-10
1.46608e-10
1.46608e-10
1.46608e-10
1.46608e-10
1.46608e-10
1.46608e-10
1.46608e-10
1.46608e-10
1.46608e-10
1.46608e-10
1.46608e-10
1.46608e-10
1.46608e-10
1.46608e-10
1.46608e-10
1.46608e-10
1.46608e-10
1.46608e-10
1.46608e-10
1.46608e-10
1.46608e-10
1.46608e-10
1.46608e-10
1.46608e-10
1.46608e-10
1.46608e-10
1.46608e-10
1.46608e-10
1.46608e-10
1.46608e-10
1.46608e-10
1.46608e-10
1.46608e-10
1.46608e-10
1.46608e-10
1.46608e-10
1.46608e-10
1.46608e-10
1.46608e-10
1.46608e-10
1.46608e-10
1.46608e-10
1.46608e-10
1.46608e-10
1.46608e-10
1.46608e-10
1.46608e-10
1.46608e-10
1.46608e-10
1.46608e-10
1.46608e-10
1.46608e-10
1.46608e-10
1.46608e-10
1.46608e-10
1.46608e-10
1.46608e-10
1.46608e-10
1.46608e-10
1.46608e-10
1.46608e-10
1.46608e-10
1.46608e-10
1.46608e-10
1.46608e-10
1.46608e-10
1.46608e-10
1.46608e-10
1.46608e-10
1.46608e-10
1.46608e-10
1.46608e-10
1.46608e-10
1.46608e-10
1.46608e-10
1.46608e-10
1.46608e-10
1.46608e-10
1.46608e-10
1.46608e-10
1.46608e-10
1.46608e-10
1.46608e-10
1.46608e-10
1.46608e-10
1.46608e-10
1.46608e-10
1.46608e-10
1.46608e-10
1.46608e-10
1.46608e-10
1.46608e-10
1.46608e-10
1.46608e-10
1.46608e-10
1.46608e-10

VECTORS velocity float
0.00601817 -0.00076862 0.000239748
0.00529617 -0.000885117 0.000701707
0.00621607 -0.000283283 0.000487075
0.00618197 -2.65045e-05 -0.000899903
0.0060146 -0.000770828 0.000240477
0.00614187 0.000470769 0.000151096
0.00562194 -0.000157538 0.000453995
0.0058732 -0.000892882 0.000376043
0.0056112 0.000385052 7.11412e-05
0.00584162 -0.000416506 0.000343881
0.00477469 0.000760927 0.00013654
0.00559475 -0.000269279 9.35731e-05
0.00599109 -0.000742657 0.000217793
0.00596843 -0.000597794 0.000183717
0.00551673 -0.000255357 0.00051551
0.00579154 -0.000541681 0.000308893
0.00609796 -0.000664332 0.000165692
0.00571971 0.000192698 -0.000555252
0.00598925 -0.000688137 0.000162084
0.00618001 -0.00074191 0.000198169
0.00562945 -0.000116151 0.000490693
0.0054801 -0.000284444 0.000109351
0.0056188 0.000391994 7.14803e-05
0.00564768 -0.000176979 0.000430776
0.00583222 0.000530954 5.91879e-05
0.00559469 -0.000276029 0.000106863
0.00643513 -0.000490235 0.000677547
0.00593934 -0.000766229 0.000243326
0.00546661 -0.000294499 0.000536501
0.00563236 -0.000142367 0.000481057
0.00554527 -0.000297929 0.000543063
0.00576169 0.000508996 7.5525e-05
0.00604995 -0.000666597 0.000139796
0.00546003 -0.000261788 0.000525079
0.00564313 0.000369111 7.48885e-05
0.005546 -0.000261728 0.000521456
0.00525322 -0.000430032 0.0001151
0.00561647 0.000391537 6.97733e-05
0.00607217 -0.000765742 0.000246415
0.00562172 -9.50098e-05 0.00047407
0.00486834 -0.000191031 0.000469762
0.00582051 0.000512127 7.99273e-05
0.00571134 0.000184296 -0.000593334
0.00609296 -0.000727541 0.000189648
0.00534046 -0.000197644 0.000489006
0.00571585 0.000541628 3.61447e-05
0.00633952 -0.000256325 0.000593972
0.00568516 -0.000136332 0.000507402
0.00547956 -0.000250696 8.38598e-05
0.00574345 0.000186911 -0.000549362
0.00613067 -0.000724913 0.000186194
0.00607032 -0.000537093 0.000338985
0.00543016 -0.000292484 0.000588889
0.0058896 0.000524563 8.05633e-05
0.00547672 -0.000405635 0.000541922
0.00546428 -0.000409923 0.000569022
0.00603155 -0.000786618 0.000255674
0.00511596 -0.000200917 0.000468667
0.00501475 -3.28591e-05 0.000411461
0.00566868 0.000298446 -0.000244342
0.00581447 -0.000334421 0.000138079
0.0053701 -0.000212369 6.92968e-05
0.00555668 0.000130051 0.000402726
0.00570235 -0.000356718 -0.00027346
0.00612336 -0.000770215 0.00025227
0.00561388 0.000389 7.03005e-05
0.00590091 -0.000505008 0.000276518
0.00643168 -0.000737061 0.000757651
0.00553382 -0.000173974 0.000509029
0.00559896 -0.000305818 0.000482295
0.00556364 -0.00025224 0.000116625
0.00550088 -0.00072192 0.000647182
0.00624706 -6.53216e-05 0.00066379
0.00571191 -0.00028587 0.000114442
0.00565291 -0.00020644 0.000424184
0.00533141 -0.000200441 7.35283e-05
0.00549745 -0.00027639 0.000105032
0.0055347 -0.000245706 8.73223e-05
0.00561191 0.000379906 7.1674e-05
0.00695258 -0.000982922 0.00246882
0.0054717 -0.000321391 0.000537776
0.0053773 -0.000466963 -2.04481e-05
0.00527034 -8.71159e-05 0.000301357
0.00596895 -0.000344612 1.11379e-05
0.00643041 -0.000849068 0.000791429
0.00579516 -0.000303408 0.000117546
0.0054921 0.000390369 0.000304163
0.00548731 0.000198202 0.000484833
0.00550941 -0.000244067 0.000550137
0.00504558 0.00185018 -0.00039559
0.00425949 0.00136354 -9.85437e-05
0.00554382 -0.000236243 9.62289e-05
0.00530278 -5.06737e-05 0.000420557
0.00565258 -0.000313226 0.000127168
0.00497665 -0.000269214 0.000485556
0.00522214 -0.00024827 9.35338e-05
4.10218e-15 1.05261e-14 8.2965e-14
2.29399e-22 -1.27651e-22 1.23839e-22
0.00555905 -0.000238849 0.000113008
0.00585836 -0.000327716 9.0613e-05
0.00556831 -0.000238369 0.000114847
0.00617482 -9.08063e-05 0.000686068
0.005419 -0.000288361 0.000513443
0.00513226 -1.99682e-05 0.000414738
0.00564447 -0.000681663 0.000669909
0.00563791 -0.000511585 0.000582297
0.00536878 -0.000206759 6.66874e-05
0.00619356 -0.000712558 0.000223855
0.00549202 -0.000191892 8.92938e-05
0.00520935 -8.9752e-05 0.000444793
0.00548426 -0.000769014 -0.000117132
0.00604492 -0.000688005 0.000157294
0.00618068 -0.000441852 0.000453497
0.00547962 -0.000448992 0.000580773
0.00589867 -0.000824135 0.000307798
0.00584275 -0.000933884 0.000418136
0.00561962 -0.000476606 0.000582309
0.0056267 -0.000396732 0.000169168
0.00457398 0.00111655 -3.05813e-05
0.0071199 0.000242563 -0.000862494
0.00570256 -4.54268e-05 0.000474728
0.0056603 -0.000216736 0.000158862
0.00504313 -6.4515e-05 0.000366996
0.00526144 0.000684727 0.000957105
0.0054846 -0.00027052 0.00010903
0.00560112 -0.000225091 6.97142e-05
0.00518092 -6.93969e-05 1.88197e-05
0.00597249 -0.000681312 0.000148583
0.00542708 -0.000502763 0.000599274
0.00709646 0.000183201 -0.000801323
0.00615392 0.000125544 0.000481114
0.00543985 -0.000754913 0.000658065
0.00594754 -0.000632829 9.41056e-05
0.00565625 -0.000667368 0.000663585
0.00604847 -0.000477161 0.000203173
0.00549716 -0.000169615 9.38435e-05
0.00598852 -0.000319349 0.000213098
0.00547696 -0.000203897 7.76463e-05
0.00575227 -0.000220178 6.75938e-05
0.00632267 -0.000381253 3.24371e-06
0.00552159 -0.000258447 0.000128147
0.00546037 -0.000511008 0.000575038
0.00587321 -0.000247935 8.36585e-05
0.00568976 -0.000305528 0.000130271
0.00522752 -0.000291045 0.000116148
0.00551591 -0.000127517 8.54392e-05
0.00558478 -0.000277661 0.000120386
0.00547001 -0.000120986 7.10252e-06
-3.83596e-14 8.16464e-14 2.95889e-13
0.00570972 -0.000327823 0.000113906
0.00526136 -0.000164017 0.000456132
0.00555747 -0.000245116 0.000118243
0.00555599 -0.000254707 0.000120372
0.00556571 -0.00037993 0.000144202
0.00570068 -0.000525869 0.000183607
0.00581 -0.000662006 0.000150917
0.00584533 -0.000329576 0.000134062
0.00562737 -0.000277662 0.00012606
0.00568173 -0.000759146 0.000236608
0.00569036 -0.000313408 0.000131576
0.00571489 -0.000605604 0.00010422
0.00568249 -0.000294194 0.000126463
0.00522995 0.000847839 0.000133845
0.00561829 -0.000287427 0.000126329
0.00552169 -0.000555278 0.000336528
0.00551729 -0.0002599 9.99678e-05
0.00555701 -0.000289004 0.000122795
0.00585952 -0.000652421 0.000212278
0.00579783 -0.00059289 0.000201011
0.00556498 -0.00022842 0.000110862
0.00607989 -0.000758185 0.000221713
0.0056381 -0.000266278 0.000119342
0.00553041 0.000512206 0.000270851
0.00547987 -0.000275595 0.000105368
0.00555673 -0.000205886 0.000128968
0.00506117 -0.00014225 0.000448851
0.00136432 -0.000234706 0.000185773
0.00537915 -0.000899153 0.000719161
0.00539133 -0.000550859 0.000330896
0.00542772 -0.000696207 0.000521224
0.00549578 -0.000207467 4.86462e-05
0.00509026 -0.000430927 0.00010227
0.00571075 -0.000275088 0.000101509
0.00588519 -0.000637049 0.000208873
0.00581466 -0.000606124 0.000475448
0.00531669 -0.000509942 0.000321271
0.00577189 -0.000299775 0.00011507
0.00556457 -0.000249358 0.000119095
0.00557675 -0.000223289 7.1156e-05
0.00570753 -0.000627608 0.000210617
0.00551919 -0.000213721 9.89153e-05
0.00570333 -0.000644774 0.000662622
0.00575209 -0.000305349 0.000120731
0.00564272 -0.000413009 5.12568e-05
0.00559431 -0.000308989 0.000127984
0.00538129 -0.000337761 0.000152728
0.00553521 -0.000134162 8.97061e-05
0.00578813 -0.000281513 0.000105697
0.0056758 0.000295232 6.40756e-05
0.00573509 -0.000246656 0.000533397
0.00569694 -0.000331104 0.00013589
0.00544554 -0.000261238 0.00052022
0.00564125 6.29685e-05 0.000426955
0.00531068 -0.000495291 0.00031627
0.00555352 -0.000258776 0.000114922
0.00621834 -0.000757822 0.00023379
0.0055625 -0.000353184 0.000130919
0.00558162 -0.000547636 0.000626042
0.00557627 -0.000360062 0.000129983
0.0055224 -0.000556603 0.000337189
0.00563071 -0.000496131 5.273e-05
0.00553994 -0.00017534 9.79124e-05
0.00545964 -0.000283046 9.14367e-05
0.00441929 0.000595376 0.000143727
0.00572066 -0.000309029 0.000130523
0.00537514 -0.000508715 0.000320033
0.00536086 -0.000518898 0.000320456
0.00556981 -0.000300617 0.000126007
0.00567735 -0.000231382 9.81366e-05
0.00552145 -0.000558125 0.000337375
0.00524607 -0.000299547 0.000119699
0.0055696 -0.000206101 5.96608e-05
0.00542307 -2.27374e-05 0.000868618
0.0057932 -0.00173839 0.00295007
0.00629881 -0.000425403 0.00114607
0.00567724 -0.00240566 0.000803175
0.0060204 -0.000465526 0.000534653
0.00562368 -0.00071451 0.00017601
0.0060007 -0.000463702 0.000532537
0.00560638 -0.000206355 4.77314e-05
0.00579808 -0.000290583 0.000110225
0.00551427 -0.000703308 0.000168766
0.00552348 -0.000563345 0.000337284
0.00555654 -0.000380293 0.000145577
0.00619638 -0.00054612 0.000563577
0.00531321 -0.000516107 0.000338849
0.00557362 -0.000332184 0.000130343
0.00566254 -0.000661929 0.00066547
0.00536982 -0.000553408 0.00032358
0.00536499 -0.000511015 0.000319957
0.00552809 -0.000591919 0.000279435
0.00600206 -0.000348383 -1.34741e-05
0.00560217 -0.000347732 0.000152402
0.00549185 -0.000285793 9.87362e-05
0.0055747 -0.000401138 0.000146272
0.00539089 -0.000557121 0.000331959
0.00550051 -0.000207508 6.17742e-05
0.00627583 -0.000280667 0.00178683
0.00575779 -0.0003788 -1.88501e-05
0.00561868 -0.000677357 0.000211335
0.0055994 -0.000325668 0.000129464
0.00536623 -0.000519345 0.000321657
0.00559727 -0.000296435 0.000127936
0.00556677 -0.000384379 0.000147111
0.00563847 -0.000276622 0.000127467
0.00555875 -0.000368447 0.000133708
0.00603448 0.000435164 0.00034444
0.00563886 -0.000326818 0.000140246
0.00539222 -0.000560332 0.000333217
0.00559878 -0.000314795 0.000135712
0.00539039 -0.000559496 0.000332465
0.00558128 -0.000370317 0.000151092
0.00556163 -0.000315279 0.000125897
0.00563933 -0.00032022 0.000129366
0.00561058 -0.000330079 0.000149455
0.00552181 -0.000560779 0.000337739
0.0053731 -0.00054704 0.00032973
0.00558233 -0.000187602 5.02013e-05
0.0055211 -0.000555778 0.000336731
0.00555768 -0.000705241 0.000172341
0.00560755 -0.000316215 0.000137497
0.00552592 -0.000426243 4.84623e-05
0.00553041 -0.000346386 0.000147578
0.00582199 -0.000295787 7.01332e-05
0.0056548 -0.000561984 0.000225069
0.00564379 -0.000185674 4.85406e-05
0.00556246 -0.000223549 2.22475e-05
0.00560914 -0.000694622 0.000215925
0.0051289 -0.000304532 0.000125998
0.00557843 -0.000292098 0.000127586
0.00562972 -0.000243764 0.000117333
0.0053263 -0.000495107 0.00031479
0.00675393 -0.000444509 0.00107485
0.00548596 -0.000336068 0.000545999
0.00565468 -0.000720825 0.000179156
0.00538941 -0.000555653 0.00033141
0.00513088 0.00101215 8.82452e-05

VECTORS force float
-4.34265e-09 1.57329e-09 -1.09462e-09
-6.16952e-10 2.99375e-10 -2.33423e-10
-1.4139e-11 -3.27369e-10 -4.8847e-10
-1.32542e-10 1.0776e-10 -1.46181e-09
-2.16145e-10 -9.6341e-11 9.50009e-11
-5.49831e-11 -9.99702e-11 2.32435e-11
-1.31141e-10 -7.72346e-11 -2.07219e-10
1.50567e-10 4.25845e-10 -4.67475e-10
-5.50685e-12 2.11338e-11 -2.8118e-12
-5.93189e-10 2.71544e-10 -4.19626e-10
-7.86069e-10 3.15704e-10 -1.48755e-10
7.2404e-10 -2.10743e-10 -8.74551e-11
-6.05698e-10 -2.45574e-10 2.99297e-10
1.62055e-11 -9.06588e-12 -1.42874e-09
-6.65418e-10 7.11229e-10 -8.02905e-10
-2.16096e-10 4.4866e-10 -1.22022e-09
3.41398e-10 2.2571e-10 -1.9686e-10
-1.75146e-11 5.00713e-12 -7.287e-11
5.57272e-10 2.3812e-10 -2.9281e-10
-1.88423e-10 2.12482e-10 -1.87752e-10
-6.22309e-10 1.40406e-10 -2.5635e-10
-8.53709e-11 -2.60524e-10 1.51915e-10
-1.05726e-11 -1.88935e-11 -2.81696e-12
2.62449e-10 3.25087e-10 -5.51165e-10
-7.841e-11 6.03571e-11 -3.99265e-11
1.80119e-10 3.81904e-11 -1.99267e-12
-2.64561e-10 -5.34409e-11 -9.44566e-11
8.51989e-11 4.84584e-10 -5.00428e-10
-1.24693e-10 -3.43361e-10 1.00924e-10
-5.88523e-10 -3.34359e-10 -1.1535e-10
-9.32455e-10 3.84847e-11 -4.00098e-11
1.71477e-10 1.42132e-10 2.16027e-12
-9.98567e-11 2.29248e-10 -6.69913e-10
-5.8178e-10 3.82993e-10 -3.43189e-10
-5.46634e-12 -6.2459e-12 4.94771e-12
-4.24692e-10 3.83538e-10 -7.9493e-12
3.56666e-09 -1.13373e-09 1.82028e-09
2.51889e-11 -3.58331e-12 1.65363e-13
2.25569e-10 1.10913e-09 -1.0774e-09
-1.16016e-10 9.84018e-10 -3.05116e-10
-5.53414e-10 5.57271e-10 2.6735e-10
-3.95555e-10 1.26919e-10 -1.49133e-10
-4.18226e-11 -5.1936e-11 -1.77175e-10
-4.88586e-10 8.16033e-10 -1.49872e-09
6.62351e-10 -1.14752e-09 4.35354e-10
-7.64007e-11 -5.11492e-12 -1.01349e-11
1.58543e-10 7.02683e-10 -1.35847e-10
-6.59517e-10 -2.76947e-10 -4.90172e-11
-1.89058e-10 1.70291e-11 2.67449e-10
-2.10882e-12 1.91727e-11 -9.75492e-12
1.70758e-10 -3.50832e-10 3.1932e-10
-3.96755e-10 3.58249e-10 7.39892e-11
-7.98166e-10 4.6809e-10 -1.83921e-10
-1.11904e-11 1.38656e-10 -6.06075e-11
-6.27148e-10 1.48425e-09 -9.92629e-10
-7.40375e-10 4.47365e-10 -2.76655e-10
2.91226e-10 4.63211e-10 -4.22792e-10
-4.68296e-10 2.27323e-10 -1.8798e-10
1.63718e-10 -1.81586e-09 5.71224e-10
6.7414e-12 -1.67028e-11 -3.17741e-11
3.55527e-13 4.21664e-11 -3.96766e-11
3.27819e-10 -6.4436e-11 1.51385e-10
-7.80732e-10 4.00034e-10 -1.97391e-10
-3.01351e-10 3.16962e-10 -9.75335e-10
-6.13488e-11 -3.1421e-10 -2.9382e-10
7.04391e-12 1.67912e-11 -3.82325e-12
-5.45754e-10 -4.61391e-10 -2.29881e-10