# vtk DataFile Version 3.0
LIGGGHTS particles timestep 31400000
ASCII
DATASET POLYDATA
POINTS 271 float
0.195563 0.0153831 0.00868972
0.196446 0.0178494 0.00699016
0.190509 0.0177262 0.00705449
0.196481 0.0176199 0.00711629
0.195541 0.0153266 0.00876926
0.202032 0.0172345 0.00744203
0.195649 0.0156523 0.00840821
0.195521 0.015287 0.00885876
0.202152 0.0177449 0.00715014
0.1961 0.0175125 0.00718482
0.196236 0.0177107 0.00707196
0.189657 0.0156582 0.00838342
0.195457 0.0151684 0.00912683
0.190318 0.0184575 0.0068674
0.196461 0.0175344 0.00716407
0.190413 0.0184898 0.00686136
0.196501 0.0177054 0.00706852
0.195499 0.0152475 0.00894804
0.196061 0.0173395 0.00727749
0.19627 0.0174806 0.00719839
0.189892 0.0162527 0.00797914
0.202232 0.0180851 0.00695555
0.195711 0.0158596 0.00820088
0.202112 0.0175748 0.00724744
0.190626 0.0178507 0.00702588
0.196406 0.0176785 0.00708569
0.195668 0.0157192 0.00833643
0.196161 0.0177691 0.00704143
0.195728 0.015932 0.00813386
0.196152 0.0169556 0.00746271
0.202052 0.0173196 0.00739338
0.195627 0.0155784 0.00847212
0.196306 0.0172508 0.00732468
0.202212 0.018 0.0070042
0.196363 0.0182609 0.0068873
0.196426 0.0185525 0.00685477
0.202252 0.0181702 0.00690691
0.196522 0.0177909 0.00702074
0.321436 0.0173475 0.00552525
0.196426 0.0177639 0.00703793
0.202072 0.0174046 0.00734473
0.195585 0.0154414 0.00861158
0.196406 0.0184546 0.00686277
0.195776 0.0160713 0.00799901
0.195748 0.0160013 0.00806457
0.189571 0.0154097 0.00867418
0.202192 0.017915 0.00705285
0.196245 0.0181331 0.00690568
0.189506 0.0152762 0.00893498
0.196385 0.0183574 0.00687255
0.202092 0.0174897 0.00729608
0.196251 0.0173951 0.00724626
0.196038 0.0168359 0.0075137
0.196649 0.0183521 0.0068768
0.19644 0.0174489 0.00721186
0.202273 0.0182638 0.00687918
0.189836 0.016385 0.00788533
0.189485 0.0152316 0.00902192
0.196393 0.0180009 0.00692817
0.196192 0.0171337 0.00738067
0.196267 0.0182296 0.00689093
0.202132 0.0176598 0.00719879
0.189549 0.0153652 0.00876111
0.196299 0.0179767 0.00695197
0.196331 0.0185207 0.00685858
0.196459 0.0182909 0.00688387
0.190542 0.0182651 0.00692041
0.196326 0.0173364 0.00727686
0.190297 0.0183626 0.00689069
0.189613 0.0155085 0.00850575
0.19649 0.018032 0.00692459
0.190432 0.0185853 0.00683892
0.189672 0.0157413 0.00832968
0.190351 0.0182045 0.00693141
0.202172 0.0178299 0.0071015
0.190531 0.0178211 0.00703124
0.196543 0.0178764 0.00697291
0.196501 0.0184854 0.006857
0.195926 0.0167158 0.00756495
0.19648 0.0183875 0.00686911
0.196331 0.0177371 0.00705505
0.190574 0.0180107 0.00698474
0.196437 0.0181944 0.00689862
0.195809 0.0162121 0.00786134
0.196216 0.017625 0.00711984
0.196175 0.017454 0.00721542
0.195832 0.0162863 0.00779816
0.189951 0.0164881 0.00780242
0.196311 0.0176517 0.00710281
0.190047 0.0168807 0.00750796
0.196554 0.0183209 0.00688043
0.189631 0.0155763 0.0084343
0.0643568 0.0187248 0.00531097
0.24257 0.0191927 0.00520306
0.190243 0.0177296 0.00704785
0.190583 0.0176611 0.00707239
0.190466 0.0175365 0.00710104
0.190445 0.0174415 0.00712435
0.196288 0.0183261 0.00687619
0.19642 0.0173633 0.00725968
0.19585 0.0163633 0.00773701
0.196156 0.0173683 0.00726333
0.190308 0.0180145 0.00697798
0.189913 0.0166995 0.00765048
0.190276 0.0182688 0.00691819
0.196386 0.017593 0.00713346
0.196223 0.0180345 0.00692075
0.196371 0.0187164 0.00684659
0.190106 0.0175086 0.00710017
0.196345 0.017422 0.00722904
0.195689 0.0157896 0.00826861
0.195607 0.0155084 0.00854042
0.196116 0.0171921 0.00734958
0.190068 0.0173342 0.00719015
0.196136 0.0172812 0.00730854
0.196446 0.0186503 0.00684877
0.196058 0.0169249 0.00747266
0.190604 0.0177559 0.00704914
0.196097 0.0171031 0.0073906
0.196256 0.0177962 0.00702417
0.190487 0.0176314 0.00707774
0.196351 0.0178226 0.00700729
0.19612 0.0175981 0.00713702
0.196077 0.017014 0.00743163
0.195478 0.015208 0.00903744
0.190337 0.0185529 0.00684392
0.195788 0.0161419 0.0079291
0.196201 0.0179401 0.00694587
0.19629 0.0175662 0.00715066
0.190329 0.0181096 0.00695466
0.190047 0.0172498 0.00723972
0.189528 0.0153207 0.00884804
0.190168 0.0177937 0.00703019
0.190394 0.0183944 0.00688482
0.190143 0.0169055 0.00748478
0.195943 0.0168052 0.00752366
0.0100679 0.0201683 0.00551526
0.190009 0.017092 0.00735631
0.190377 0.0187486 0.00684978
0.190126 0.0176038 0.00707688
0.190332 0.0173207 0.00716889
0.190286 0.0179197 0.00700124
0.0219312 0.0187687 0.00551176
0.190521 0.0181701 0.0069437
0.196575 0.0184186 0.00686549
0.190147 0.0176988 0.00705347
0.190453 0.0186831 0.00684345
0.190008 0.0167237 0.00762573
0.190339 0.0177605 0.00704221
0.19631 0.0184234 0.00686659
0.190066 0.0169591 0.00744908
0.190508 0.0185212 0.00685246
0.190413 0.017696 0.00705997
0.196181 0.0178546 0.00699365
0.190317 0.0176655 0.00706551
0.196468 0.0179372 0.00694724
0.19035 0.0174111 0.00712989
0.184021 0.0171629 0.00735168
0.190182 0.0170625 0.00736703
0.190105 0.0171161 0.00733133
0.190181 0.0174446 0.00711783
0.190468 0.0183296 0.00690264
0.196141 0.0176836 0.00708924
0.190392 0.0176011 0.00708325
0.196195 0.0175395 0.00716762
0.189989 0.0170124 0.00741361
0.196041 0.0172504 0.00731851
0.196172 0.0170447 0.00742168
0.196371 0.0179081 0.00695951
0.184312 0.0184266 0.00688365
0.196211 0.0172228 0.00733963
0.190296 0.0175705 0.00708883
0.196365 0.0175075 0.00718124
0.161461 0.0182058 0.00533758
0.1905 0.0180753 0.00696696
0.189912 0.016331 0.00792029
0.184081 0.0174258 0.00722027
0.190357 0.0186509 0.00684333
0.190254 0.0181731 0.00693715
0.189894 0.0166211 0.00770976
0.190382 0.0179502 0.0069957
0.195865 0.016449 0.00768776
0.189592 0.0154561 0.00858821
0.190456 0.0178857 0.00701346
0.189971 0.0165665 0.00774357
0.190086 0.0170376 0.00739021
0.190264 0.0178247 0.00702453
0.187107 0.0177664 0.00698985
0.196081 0.0174268 0.00723274
0.196022 0.0171614 0.00735954
0.190404 0.018045 0.00697244
0.196342 0.0181644 0.00690206
0.195963 0.0168942 0.00748261
0.184291 0.018329 0.00688979
0.19036 0.0178554 0.00701895
0.196351 0.0186186 0.00685259
0.189692 0.0158242 0.00827776
0.195904 0.0166272 0.007606
0.190478 0.0179805 0.0069902
0.25016 0.0177742 0.00711233
0.196416 0.0180978 0.00691338
0.190222 0.0176348 0.00707181
0.0896541 0.017687 0.00783955
0.196231 0.0173101 0.00729511
0.190028 0.0171694 0.00729589
0.184226 0.018037 0.00691145
0.184041 0.0172506 0.00730783
0.190447 0.0182346 0.00692595
0.189855 0.016463 0.00782577
0.184002 0.0170752 0.00739553
0.190233 0.0180783 0.0069604
0.196276 0.0178817 0.00697635
0.190435 0.0177908 0.00703671
0.189816 0.016308 0.00794589
0.189776 0.0161528 0.00806552
0.183845 0.0163735 0.00774636
0.183865 0.0164612 0.0077025
0.183923 0.0167244 0.00757091
0.190088 0.0174218 0.0071462
0.183884 0.016549 0.00765863
0.183982 0.0169875 0.00743937
0.190637 0.0182973 0.00691439
0.189874 0.0165422 0.0077679
0.18427 0.0182316 0.00689595
0.190162 0.016984 0.00742591
0.195887 0.0165381 0.00764793
0.184123 0.0176008 0.00713285
0.184332 0.0185245 0.0068775
0.183962 0.0168998 0.00748322
0.190189 0.0178886 0.00700691
0.190276 0.0174755 0.00711216
0.190237 0.0172997 0.00719214
0.190143 0.0172731 0.00721355
0.184144 0.0176883 0.00708914
0.189951 0.0168561 0.0075323
0.189754 0.0160717 0.00811986
0.183943 0.0168121 0.00752706
0.190398 0.0188463 0.00685622
0.184061 0.0173382 0.00726404
0.190201 0.0175402 0.00709675
0.189931 0.0164096 0.00786134
0.189932 0.016777 0.00759024
0.19022 0.0172194 0.00724927
0.195983 0.0169833 0.00744159
0.190488 0.0184267 0.00687881
0.184185 0.0178634 0.00700172
0.189713 0.0159065 0.00822488
0.184164 0.0177759 0.00704543
0.189989 0.0166451 0.00768463
0.18997 0.016935 0.0074739
0.19016 0.0173534 0.00715344
0.190563 0.0183622 0.00689655
0.184206 0.0179503 0.00695685
0.183825 0.0162886 0.00779537
0.190028 0.0168021 0.00756687
0.190371 0.0175061 0.00710656
0.190425 0.0181398 0.0069492
0.190255 0.0173802 0.00713555
0.190201 0.017141 0.00730812
0.189871 0.0161744 0.00803792
0.190373 0.0182994 0.00690812
0.190124 0.0171946 0.00727242
0.190211 0.0179835 0.00698365
0.190552 0.0179159 0.00700798
0.189734 0.0159892 0.00817247
0.184248 0.0181342 0.00690269
0.189795 0.0162305 0.00800561
0.19632 0.0180679 0.00691679
0.183904 0.0166367 0.00761477
0.184102 0.0175133 0.00717656
0.196002 0.0170723 0.00740056

VERTICES 271 542
1 0
1 1
1 2
1 3
1 4
1 5
1 6
1 7
1 8
1 9
1 10
1 11
1 12
1 13
1 14
1 15
1 16
1 17
1 18
1 19
1 20
1 21
1 22
1 23
1 24
1 25
1 26
1 27
1 28
1 29
1 30
1 31
1 32
1 33
1 34
1 35
1 36
1 37
1 38
1 39
1 40
1 41
1 42
1 43
1 44
1 45
1 46
1 47
1 48
1 49
1 50
1 51
1 52
1 53
1 54
1 55
1 56
1 57
1 58
1 59
1 60
1 61
1 62
1 63
1 64
1 65
1 66
1 67
1 68
1 69
1 70
1 71
1 72
1 73
1 74
1 75
1 76
1 77
1 78
1 79
1 80
1 81
1 82
1 83
1 84
1 85
1 86
1 87
1 88
1 89
1 90
1 91
1 92
1 93
1 94
1 95
1 96
1 97
1 98
1 99
1 100
1 101
1 102
1 103
1 104
1 105
1 106
1 107
1 108
1 109
1 110
1 111
1 112
1 113
1 114
1 115
1 116
1 117
1 118
1 119
1 120
1 121
1 122
1 123
1 124
1 125
1 126
1 127
1 128
1 129
1 130
1 131
1 132
1 133
1 134
1 135
1 136
1 137
1 138
1 139
1 140
1 141
1 142
1 143
1 144
1 145
1 146
1 147
1 148
1 149
1 150
1 151
1 152
1 153
1 154
1 155
1 156
1 157
1 158
1 159
1 160
1 161
1 162
1 163
1 164
1 165
1 166
1 167
1 168
1 169
1 170
1 171
1 172
1 173
1 174
1 175
1 176
1 177
1 178
1 179
1 180
1 181
1 182
1 183
1 184
1 185
1 186
1 187
1 188
1 189
1 190
1 191
1 192
1 193
1 194
1 195
1 196
1 197
1 198
1 199
1 200
1 201
1 202
1 203
1 204
1 205
1 206
1 207
1 208
1 209
1 210
1 211
1 212
1 213
1 214
1 215
1 216
1 217
1 218
1 219
1 220
1 221
1 222
1 223
1 224
1 225
1 226
1 227
1 228
1 229
1 230
1 231
1 232
1 233
1 234
1 235
1 236
1 237
1 238
1 239
1 240
1 241
1 242
1 243
1 244
1 245
1 246
1 247
1 248
1 249
1 250
1 251
1 252
1 253
1 254
1 255
1 256
1 257
1 258
1 259
1 260
1 261
1 262
1 263
1 264
1 265
1 266
1 267
1 268
1 269
1 270

POINT_DATA 271
SCALARS id int 1
LOOKUP_TABLE default
1
2
3
4
5
6
7
8
9
10
11
12
13
14
15
16
17
19
21
22
23
24
25
26
27
28
29
30
31
32
33
34
35
36
37
38
39
41
42
44
45
47
48
50
51
52
53
54
55
56
57
59
61
62
63
64
65
66
67
68
69
70
71
72
73
74
76
77
78
79
80
81
82
83
84
85
86
87
88
89
90
91
92
93
94
95
96
97
98
99
100
101
102
103
104
105
106
107
108
109
110
111
112
113
114
115
116
117
118
119
120
121
122
123
124
125
126
127
128
129
131
132
133
134
135
136
137
138
140
141
142
143
144
147
148
149
150
151
153
154
155
156
157
158
159
160
162
164
165
166
168
169
170
171
172
173
174
175
177
178
179
181
182
183
184
186
187
188
189
190
191
192
193
194
195
196
197
198
199
201
202
203
204
205
206
207
208
209
210
211
212
213
214
215
216
217
218
219
220
221
222
223
224
225
226
227
228
229
230
231
232
234
235
236
237
239
240
241
242
244
246
247
248
249
250
251
252
253
254
255
256
257
258
259
261
262
263
264
265
266
267
268
269
270
271
272
273
274
275
276
277
278
280
283
284
285
286
287
288
289
290
291
292
293
294
295
296
297
298
299
300

SCALARS type int 1
LOOKUP_TABLE default
1
1
1
1
1
1
1
1
1
1
1
1
1
1
1
1
1
1
1
1
1
1
1
1
1
1
1
1
1
1
1
1
1
1
1
1
1
1
1
1
1
1
1
1
1
1
1
1
1
1
1
1
1
1
1
1
1
1
1
1
1
1
1
1
1
1
1
1
1
1
1
1
1
1
1
1
1
1
1
1
1
1
1
1
1
1
1
1
1
1
1
1
1
1
1
1
1
1
1
1
1
1
1
1
1
1
1
1
1
1
1
1
1
1
1
1
1
1
1
1
1
1
1
1
1
1
1
1
1
1
1
1
1
1
1
1
1
1
1
1
1
1
1
1
1
1
1
1
1
1
1
1
1
1
1
1
1
1
1
1
1
1
1
1
1
1
1
1
1
1
1
1
1
1
1
1
1
1
1
1
1
1
1
1
1
1
1
1
1
1
1
1
1
1
1
1
1
1
1
1
1
1
1
1
1
1
1
1
1
1
1
1
1
1
1
1
1
1
1
1
1
1
1
1
1
1
1
1
1
1
1
1
1
1
1
1
1
1
1
1
1
1
1
1
1
1
1
1
1
1
1
1
1
1
1
1
1
1
1
1
1
1
1
1
1
1
1
1
1
1
1

SCALARS radius float 1
LOOKUP_TABLE default
5e-05
5e-05
5e-05
5e-05
5e-05
5e-05
5e-05
5e-05
5e-05
5e-05
5e-05
5e-05
5e-05
5e-05
5e-05
5e-05
5e-05
5e-05
5e-05
5e-05
5e-05
5e-05
5e-05
5e-05
5e-05
5e-05
5e-05
5e-05
5e-05
5e-05
5e-05
5e-05
5e-05
5e-05
5e-05
5e-05
5e-05
5e-05
5e-05
5e-05
5e-05
5e-05
5e-05
5e-05
5e-05
5e-05
5e-05
5e-05
5e-05
5e-05
5e-05
5e-05
5e-05
5e-05
5e-05
5e-05
5e-05
5e-05
5e-05
5e-05
5e-05
5e-05
5e-05
5e-05
5e-05
5e-05
5e-05
5e-05
5e-05
5e-05
5e-05
5e-05
5e-05
5e-05
5e-05
5e-05
5e-05
5e-05
5e-05
5e-05
5e-05
5e-05
5e-05
5e-05
5e-05
5e-05
5e-05
5e-05
5e-05
5e-05
5e-05
5e-05
5e-05
5e-05
5e-05
5e-05
5e-05
5e-05
5e-05
5e-05
5e-05
5e-05
5e-05
5e-05
5e-05
5e-05
5e-05
5e-05
5e-05
5e-05
5e-05
5e-05
5e-05
5e-05
5e-05
5e-05
5e-05
5e-05
5e-05
5e-05
5e-05
5e-05
5e-05
5e-05
5e-05
5e-05
5e-05
5e-05
5e-05
5e-05
5e-05
5e-05
5e-05
5e-05
5e-05
5e-05
5e-05
5e-05
5e-05
5e-05
5e-05
5e-05
5e-05
5e-05
5e-05
5e-05
5e-05
5e-05
5e-05
5e-05
5e-05
5e-05
5e-05
5e-05
5e-05
5e-05
5e-05
5e-05
5e-05
5e-05
5e-05
5e-05
5e-05
5e-05
5e-05
5e-05
5e-05
5e-05
5e-05
5e-05
5e-05
5e-05
5e-05
5e-05
5e-05
5e-05
5e-05
5e-05
5e-05
5e-05
5e-05
5e-05
5e-05
5e-05
5e-05
5e-05
5e-05
5e-05
5e-05
5e-05
5e-05
5e-05
5e-05
5e-05
5e-05
5e-05
5e-05
5e-05
5e-05
5e-05
5e-05
5e-05
5e-05
5e-05
5e-05
5e-05
5e-05
5e-05
5e-05
5e-05
5e-05
5e-05
5e-05
5e-05
5e-05
5e-05
5e-05
5e-05
5e-05
5e-05
5e-05
5e-05
5e-05
5e-05
5e-05
5e-05
5e-05
5e-05
5e-05
5e-05
5e-05
5e-05
5e-05
5e-05
5e-05
5e-05
5e-05
5e-05
5e-05
5e-05
5e-05
5e-05
5e-05
5e-05
5e-05
5e-05
5e-05
5e-05
5e-05
5e-05
5e-05
5e-05
5e-05
5e-05
5e-05
5e-05
5e-05
5e-05
5e-05
5e-05
5e-05
5e-05
5e-05
5e-05
5e-05
5e-05
5e-05
5e-05
5e-05
5e-05
5e-05

SCALARS mass float 1
LOOKUP_TABLE default
1.46608e-10
1.46608e-10
1.46608e-10
1.46608e-10
1.46608e-10
1.46608e-10
1.46608e-10
1.46608e-10
1.46608e-10
1.46608e-10
1.46608e-10
1.46608e-10
1.46608e-10
1.46608e-10
1.46608e-10
1.46608e-10
1.46608e-10
1.46608e-10
1.46608e-10
1.46608e-10
1.46608e-10
1.46608e-10
1.46608e-10
1.46608e-10
1.46608e-10
1.46608e-10
1.46608e-10
1.46608e-10
1.46608e-10
1.46608e-10
1.46608e-10
1.46608e-10
1.46608e-10
1.46608e-10
1.46608e-10
1.46608e-10
1.46608e-10
1.46608e-10
1.46608e-10
1.46608e-10
1.46608e-10
1.46608e-10
1.46608e-10
1.46608e-10
1.46608e-10
1.46608e-10
1.46608e-10
1.46608e-10
1.46608e-10
1.46608e-10
1.46608e-10
1.46608e-10
1.46608e-10
1.46608e-10
1.46608e-10
1.46608e-10
1.46608e-10
1.46608e-10
1.46608e-10
1.46608e-10
1.46608e-10
1.46608e-10
1.46608e-10
1.46608e-10
1.46608e-10
1.46608e-10
1.46608e-10
1.46608e-10
1.46608e-10
1.46608e-10
1.46608e-10
1.46608e-10
1.46608e-10
1.46608e-10
1.46608e-10
1.46608e-10
1.46608e-10
1.46608e-10
1.46608e-10
1.46608e-10
1.46608e-10
1.46608e-10
1.46608e-10
1.46608e-10
1.46608e-10
1.46608e-10
1.46608e-10
1.46608e-10
1.46608e-10
1.46608e-10
1.46608e-10
1.46608e-10
1.46608e-10
1.46608e-10
1.46608e-10
1.46608e-10
1.46608e-10
1.46608e-10
1.46608e-10
1.46608e-10
1.46608e-10
1.46608e-10
1.46608e-10
1.46608e-10
1.46608e-10
1.46608e-10
1.46608e-10
1.46608e-10
1.46608e-10
1.46608e-10
1.46608e-10
1.46608e-10
1.46608e-10
1.46608e-10
1.46608e-10
1.46608e-10
1.46608e-10
1.46608e-10
1.46608e-10
1.46608e-10
1.46608e-10
1.46608e-10
1.46608e-10
1.46608e-10
1.46608e-10
1.46608e-10
1.46608e-10
1.46608e-10
1.46608e-10
1.46608e-10
1.46608e-10
1.46608e-10
1.46608e-10
1.46608e-10
1.46608e-10
1.46608e-10
1.46608e-10
1.46608e-10
1.46608e-10
1.46608e-10
1.46608e-10
1.46608e-10
1.46608e-10
1.46608e-10
1.46608e-10
1.46608e-10
1.46608e-10
1.46608e-10
1.46608e-10
1.46608e-10
1.46608e-10
1.46608e-10
1.46608e-10
1.46608e-10
1.46608e-10
1.46608e-10
1.46608e-10
1.46608e-10
1.46608e-10
1.46608e-10
1.46608e-10
1.46608e-10
1.46608e-10
1.46608e-10
1.46608e-10
1.46608e-10
1.46608e-10
1.46608e-10
1.46608e-10
1.46608e-10
1.46608e-10
1.46608e-10
1.46608e-10
1.46608e-10
1.46608e-10
1.46608e-10
1.46608e-10
1.46608e-10
1.46608e-10
1.46608e-10
1.46608e-10
1.46608e-10
1.46608e-10
1.46608e-10
1.46608e-10
1.46608e-10
1.46608e-10
1.46608e-10
1.46608e-10
1.46608e-10
1.46608e-10
1.46608e-10
1.46608e-10
1.46608e-10
1.46608e-10
1.46608e-10
1.46608e-10
1.46608e-10
1.46608e-10
1.46608e-10
1.46608e-10
1.46608e-10
1.46608e-10
1.46608e-10
1.46608e-10
1.46608e-10
1.46608e-10
1.46608e-10
1.46608e-10
1.46608e-10
1.46608e-10
1.46608e-10
1.46608e-10
1.46608e-10
1.46608e-10
1.46608e-10
1.46608e-10
1.46608e-10
1.46608e-10
1.46608e-10
1.46608e-10
1.46608e-10
1.46608e-10
1.46608e-10
1.46608e-10
1.46608e-10
1.46608e-10
1.46608e-10
1.46608e-10
1.46608e-10
1.46608e-10
1.46608e-10
1.46608e-10
1.46608e-10
1.46608e-10
1.46608e-10
1.46608e-10
1.46608e-10
1.46608e-10
1.46608e-10
1.46608e-10
1.46608e-10
1.46608e-10
1.46608e-10
1.46608e-10
1.46608e-10
1.46608e-10
1.46608e-10
1.46608e-10
1.46608e-10
1.46608e-10
1.46608e-10
1.46608e-10
1.46608e-10
1.46608e-10
1.46608e-10
1.46608e-10
1.46608e-10
1.46608e-10
1.46608e-10
1.46608e-10
1.46608e-10
1.46608e-10
1.46608e-10
1.46608e-10
1.46608e-10
1.46608e-10
1.46608e-10
1.46608e-10
1.46608e-10
1.46608e-10

VECTORS velocity float
0.00637827 0.000414241 -0.000839252
0.00649215 0.000146749 -0.000248711
0.0059846 -0.000405626 0.000231962
0.00608758 2.63466e-05 -0.000159448
0.00648611 0.00105043 -0.000371082
0.00589759 0.000702827 -4.27566e-05
0.00538132 0.000614883 -0.000831448
0.00648013 0.00106283 -0.000360616
0.00620864 0.000655774 5.27304e-06
0.00574235 0.000667032 -0.000507591
0.00626365 0.000277798 -0.000303552
0.00574072 0.000156699 0.000111982
0.00635824 0.00105287 -0.000406979
0.00567402 0.000203761 7.246e-05
0.00616605 0.000138998 -0.000228892
0.00567412 0.00016692 7.81861e-05
0.00626747 1.55252e-06 -0.000150067
0.00641978 0.00103954 -0.000378287
0.00571018 0.000797581 -9.99878e-05
0.00589869 0.000327792 -0.000291698
0.00572438 6.53231e-05 -0.000330614
0.00641948 0.000627369 3.0743e-05
0.00565887 0.000398445 -0.000693218
0.0061047 0.00067208 -1.13885e-05
0.00593117 -0.000682146 0.000300008
0.00624801 0.000124032 -0.000223529
0.00538006 0.000547134 -0.000816032
0.00629924 0.000311427 -0.000324662
0.00587922 0.000373765 -0.000612026
0.00564722 0.00062584 -2.63053e-05
0.00594934 0.000695112 -3.49894e-05
0.00582528 0.00052322 -0.000832531
0.00553508 0.000275552 -0.000257453
0.0063611 0.000638539 1.98989e-05
0.00634679 0.000139303 6.30992e-05
0.00571812 0.000295668 -0.000138247
0.00643598 0.000608482 5.28532e-05
0.00643072 7.00919e-05 -0.00019459
4.58665e-16 2.25535e-15 8.4636e-14
0.00638563 0.000125929 -0.000216764
0.00600103 0.000687469 -2.7235e-05
0.0062609 0.000167176 -0.00105192
0.00562886 3.736e-05 -0.000902068
0.00585916 0.000292932 -0.000686688
0.0059334 0.000316279 -0.000633254
0.00626177 -0.000320441 0.000130032
0.00630938 0.000643555 1.64101e-05
0.00636733 9.43938e-05 6.94733e-05
0.00610863 -0.000372968 0.000270129
0.00633944 0.000118278 6.17482e-05
0.00605288 0.000679685 -1.97338e-05
0.00571567 0.000464567 -0.000146569
0.00548898 0.000818604 -0.000122723
0.00601423 0.00119556 -0.000108395
0.00599592 0.000140689 -0.000227147
0.00649725 0.000569626 -0.000188816
0.00550645 -2.53852e-05 -0.000280362
0.00608168 -0.00037276 0.00027147
0.00638344 0.000104088 7.05764e-05
0.0054778 0.000622051 -2.70337e-05
0.00633191 -7.43614e-05 9.33898e-05
0.00615679 0.000663656 -3.67565e-06
0.00627863 -0.000339208 0.000232982
0.00648598 0.000139933 9.4526e-05
0.00573987 0.000222962 -0.000122684
0.00634648 0.000114619 6.70455e-05
0.00549715 -0.000190062 0.000167111
0.00562356 0.000222954 -0.00026023
0.00636225 8.0697e-05 0.00011852
0.0057179 0.000101975 0.000173131
0.00655097 0.000327893 4.57931e-05
0.00554924 0.00012684 5.22662e-06
0.00573322 0.000181644 0.000132196
0.00635943 -5.85668e-05 0.000152568
0.00625929 0.000648579 1.16811e-05
0.00612225 -0.000438202 0.000242996
0.00647435 0.000158568 -0.000230779
0.00546529 0.000711541 -0.00015195
0.00558163 0.000869275 -0.000144483
0.00618589 0.000466129 7.87038e-06
0.00634308 0.000206609 -0.000271893
0.00605079 -0.000456565 0.000246238
0.00635738 0.000131527 6.16307e-05
0.0056126 0.000493212 -0.000577964
0.0061863 0.000365388 -0.000340484
0.0057205 0.000647753 -0.000495303
0.00581135 0.00069695 -0.000295452
0.00537705 -4.11569e-05 -0.00024088
0.00621076 0.000225577 -0.000269775
0.005585 -0.000114914 -0.000194843
0.00618236 0.00063469 -2.04363e-05
0.0057007 0.000163072 0.000166199
4.15471e-15 1.05384e-14 8.29607e-14
2.18379e-22 -3.92126e-22 8.29106e-22
0.00609908 -9.19812e-05 0.000155411
0.00595651 -0.000476298 0.000248528
0.00580136 -0.00036104 0.000215357
0.00562348 -0.000330899 0.000204963
0.0063469 -2.48717e-05 8.58715e-05
0.00578951 0.000185529 -0.000246849
0.00590245 0.000806278 -0.000149099
0.0060198 -9.77996e-05 0.000484986
0.00632099 -0.000128485 0.000170281
0.00546236 -3.05796e-05 -0.000249453
0.00639073 4.82806e-05 0.000128075
0.00613058 0.00012964 -0.000218578
0.00638488 0.000301862 7.27809e-06
0.00570233 0.000241302 -0.000133048
0.00568337 8.04808e-05 0.000116067
0.00576922 0.000182281 -0.000240793
0.0054708 0.000454898 -0.00078269
0.00619097 0.000355442 -0.000900311
0.00551769 0.000648893 -3.65511e-05
0.0055976 -7.61837e-05 -0.000194448
0.00555429 0.000659544 -3.72856e-05
0.00568819 0.000326448 -0.00014298
0.00560202 0.000792547 -0.000106014
0.00605463 -0.000501818 0.00025695
0.00556982 0.000661498 -4.6621e-05
0.0062759 0.000265813 -0.000302844
0.00591727 -0.000381038 0.000224179
0.00648636 0.000189157 -0.000263529
0.00624792 0.000505461 -0.000429835
0.00562953 0.00071988 -6.99939e-05
0.00639019 0.00105451 -0.000388888
0.00569571 -2.40783e-05 0.00012257
0.0057125 0.000360457 -0.00065735
0.00638897 0.000260627 -0.0002538
0.00607226 0.000260094 -0.000283589
0.00630397 -8.00928e-05 0.000157663
0.00568059 -0.000135458 -0.00027443
0.00615371 -0.000367705 0.000254739
0.00618834 -1.36044e-05 0.000139914
0.00557107 7.54356e-05 0.000102453
0.00563749 -0.000142265 -0.000179276
0.00546147 0.000880045 -0.000156159
8.38521e-15 1.23931e-15 -8.48744e-14
0.00569515 -0.000106347 -0.000200149
0.0057346 6.19757e-05 -0.000125224
0.00578326 6.36802e-05 0.000111856
0.00526215 -0.00017162 8.73581e-05
0.00622043 -0.000139175 0.000170444
-3.83198e-14 8.16793e-14 2.95886e-13
0.00608589 -0.000313495 0.000210259
0.00589807 0.00119435 -0.000110592
0.00599579 2.54959e-05 0.000127391
0.00575655 9.61719e-05 -0.000121331
0.00550161 -8.55717e-05 -0.00021466
0.00606512 -0.000248911 0.00019427
0.00635985 9.73e-05 6.45775e-05
0.0056358 -0.000136348 -0.00018492
0.00549648 0.000238279 -0.000149868
0.00598896 -0.000320379 0.000210521
0.00633766 0.00028177 -0.000316699
0.00600858 -0.000177435 0.000173893
0.00655747 0.000226109 -0.000181691
0.00556663 -0.000152901 0.000186362
0.00549821 -0.000309903 0.000372734
0.00567147 -0.000177641 -0.000154531
0.00570409 -0.000168993 -0.000166658
0.00555984 5.30983e-05 0.000106267
0.00553968 -5.75003e-05 0.00013455
0.00626319 0.000422415 -0.000387821
0.00595737 -0.000211406 0.000183292
0.00623592 0.000506765 -0.000429348
0.00562793 -8.24939e-05 -0.00021372
0.00571657 0.000829789 -0.000120225
0.00562041 0.000613693 -2.02136e-05
0.00654036 0.00016994 -0.000259665
0.00574112 -0.000431489 -4.19638e-05
0.00551624 0.000593954 -2.21395e-05
0.00579032 -0.000149317 0.000161424
0.00597201 0.000149014 -0.000221885
1.49962e-15 -1.10157e-14 8.66685e-14
0.00615315 -0.000347291 0.00022071
0.00560415 6.97754e-05 -0.000333928
0.00600651 -0.000372885 0.000425186
0.00560032 1.66371e-05 -6.44184e-05
0.00634702 2.67115e-05 0.000134197
0.00543276 -1.46329e-05 -0.000245942
0.00624649 -0.000269879 0.000203516
0.00586394 0.000839964 -0.000107363
0.00607275 -0.00019029 0.000126227
0.00621591 -0.000337412 0.000219797
0.00541768 -4.42364e-05 -0.000238676
0.00570962 -0.000144028 -0.000177036
0.00617199 -0.000130619 0.000166389
0.00575338 -0.00052623 0.000155169
0.00590538 5.58886e-05 -0.000326241
0.00572495 0.000844809 -0.00012468
0.00622954 -0.00022127 0.000190658
0.00635928 0.000141411 6.55806e-05
0.00569012 0.000820922 -0.000117874
0.00624087 -0.000536239 -5.06545e-05
0.00612474 -0.000257801 0.000197712
0.00570575 0.000231096 -0.000130304
0.00571403 0.00018615 0.000140631
0.00578221 0.000832377 -0.000132994
0.0061973 -0.000314563 0.000213876
0.00565515 0.000377901 0.000129258
0.00644312 0.000228848 4.36696e-05
0.00592866 -3.3585e-05 0.00014141
-0.0186222 0.0278724 -0.014412
0.00560698 0.000554794 -1.4472e-05
0.00571788 -0.000128785 -0.000212228
0.00624598 -0.000510045 0.00016752
0.00562318 -0.000336681 0.000389155
0.00618567 -0.000175711 0.000178732
0.00541654 4.69999e-06 -0.000269676
0.00548346 -0.000294066 0.000363313
0.00634666 -1.9183e-05 0.000144046
0.0063574 0.000233314 -0.000279367
0.00602874 -0.000361652 0.000221448
0.00562339 -6.55401e-05 -0.000293868
0.0058463 -5.14525e-05 -0.000183427
0.00550018 -0.000100267 0.000252825
0.00548584 -0.000133898 0.000285678
0.00551145 -0.000166357 0.000301122
0.00553364 5.28341e-05 2.31226e-05
0.00548069 -0.000136398 0.000285888
0.00549026 -0.000255575 0.000344759
0.00540802 0.000133841 8.51366e-05
0.00540474 2.08676e-06 -0.00025246
0.00625687 -0.000554433 -0.000155084
0.0057424 -0.000145231 -0.000181784
0.00583754 0.000875869 -3.15723e-05
0.00606472 -0.000359575 0.000422992
0.00559382 -0.000375886 -4.47245e-05
0.00550606 -0.000217759 0.000328511
0.00625017 -3.31761e-05 0.000143807
0.00563153 -8.5098e-05 0.00014311
0.00551246 -3.29382e-05 6.70313e-05
0.00549293 -0.000202449 -0.000157798
0.00612626 -0.000367155 0.000434386
0.00558784 -8.0918e-05 -0.000208779
0.00570798 0.000112128 1.79205e-05
0.00550994 -0.000193316 0.000315473
0.00575279 4.90568e-06 -0.000129738
0.00587805 -0.000370182 0.000416036
0.00573061 1.69327e-05 0.000120624
0.00551525 0.000121854 -0.000374222
0.00552407 -5.60492e-05 -0.000235532
0.00560018 -0.000144036 -7.94819e-05
0.00563673 0.00080968 -0.000114299
0.00542513 0.000363855 1.45951e-05
0.00619119 -0.000384906 0.000451388
0.00561408 0.000208478 0.000131192
0.00613822 -0.00038849 0.000436594
0.00542905 -3.92432e-05 -0.000242027
0.0056133 -9.3656e-05 -0.00020805
0.00546279 -5.62733e-05 -0.000230159
0.00539054 0.000220901 6.02298e-05
0.00621462 -0.000488886 0.000219033
0.00565209 -0.000260231 -5.86092e-05
0.00558151 -0.000108655 -0.000201449
0.00562844 -0.000133015 0.000154567
0.0062552 -0.000217566 0.000191125
0.00550923 6.52883e-06 0.000129985
0.00566078 -0.000187349 -0.000142517
0.00586024 3.29832e-05 -0.00032609
0.00630088 -1.88135e-05 0.000141854
0.00560913 -0.000194593 -0.000149602
0.00629152 -2.81455e-05 0.000144353
0.00611091 -0.000454025 0.000245894
0.00558285 0.000209836 0.000117273
0.00623768 -0.000514315 0.000152186
0.00574611 -9.5476e-05 -0.000281094
0.00640081 0.000131218 6.32867e-05
0.00549364 -0.000141032 0.00028758
0.00599006 -0.000370202 0.00041582
0.00571318 0.000824796 -0.000117838

VECTORS force float
1.04862e-10 4.84615e-10 6.91673e-10
1.25165e-10 -1.16455e-10 -4.55499e-10
2.23229e-10 4.05963e-10 -1.0612e-10
-5.35814e-10 1.10148e-10 -3.15745e-11
-3.76176e-10 -1.56374e-10 2.66028e-10
1.56981e-12 4.7011e-13 -2.85872e-14
1.33811e-10 -9.13193e-10 6.21961e-10
-2.88689e-10 1.48932e-13 1.32064e-10
-3.78998e-13 -3.77617e-12 -3.05582e-11
1.61759e-10 -3.25217e-11 1.74086e-11
1.12459e-10 1.5756e-10 -4.60753e-11
-1.43099e-10 -3.47873e-10 1.42535e-10
-1.01125e-10 -1.14012e-10 3.06754e-10
-3.0385e-10 -1.02307e-10 -1.87316e-11
4.87893e-11 -5.17418e-10 2.62897e-10
-6.41426e-10 -2.09231e-10 -2.38499e-10
-3.05065e-10 3.31507e-11 -3.0139e-11
-3.88886e-11 8.846e-12 3.23953e-10
-2.84801e-10 -6.55195e-10 2.38692e-10
3.92749e-10 2.01042e-10 -5.1604e-11
-1.25901e-10 1.8029e-10 -2.71787e-10
-2.23462e-12 -2.03637e-10 1.18795e-10
1.73691e-10 -3.57234e-10 3.30419e-10
8.20626e-12 -7.01487e-12 1.90999e-12
1.41009e-09 1.99581e-11 3.11067e-11
2.9459e-10 -7.4949e-11 3.69545e-11
5.3669e-10 -8.54522e-10 7.99557e-10
-1.35118e-10 -1.34378e-10 6.96639e-11
-3.46256e-10 1.22065e-10 -3.87474e-11
-3.71269e-10 -1.44436e-10 4.22744e-11
1.59803e-12 2.11515e-13 -1.51831e-12
-1.71663e-10 -6.13255e-10 6.53661e-10
7.21763e-10 2.60381e-10 1.74961e-10
5.36577e-11 -1.02144e-11 7.99665e-11
4.45134e-10 -1.68569e-10 2.90679e-11
-1.19405e-10 5.57655e-10 1.32883e-10
3.19509e-10 -2.47633e-11 5.78871e-10
2.94218e-10 2.17501e-10 -1.64511e-10
2.58397e-23 9.31224e-24 -4.1359e-25
1.32367e-10 6.59163e-11 -4.52782e-11
1.35324e-12 1.69755e-12 1.31103e-12
2.35997e-10 7.14532e-11 6.75801e-10
-2.82239e-10 -1.08293e-10 -1.04054e-09
8.87612e-10 1.97783e-10 -4.28183e-10
1.18346e-10 2.47922e-10 -3.55921e-10
-5.4766e-10 -1.0492e-12 -1.21338e-10
7.93778e-12 1.46542e-11 -7.92573e-11
3.3659e-11 4.97637e-11 1.1167e-11
-7.15166e-10 -4.20299e-10 7.57763e-10
-7.27596e-11 -1.76608e-10 5.41003e-11
1.70756e-12 -9.15595e-13 3.38292e-13
3.00807e-10 1.61064e-10 4.18116e-10
-9.18461e-10 -1.6242e-10 7.76639e-11
-7.15557e-10 8.03746e-11 -2.04859e-11
-3.60306e-10 1.19465e-10 -5.08122e-11
-2.06981e-10 1.55197e-10 -3.44018e-10
-4.37957e-10 2.80668e-10 -1.36234e-11
-1.94866e-10 -3.37847e-10 6.87955e-10
1.6525e-10 -1.25834e-10 4.40527e-12
1.80616e-10 4.18085e-10 -1.97246e-10
-6.74937e-11 -3.06131e-10 4.68912e-11
-5.49728e-12 2.82482e-12 1.76454e-11
8.01064e-10 5.93097e-11 1.66561e-10
-8.88059e-11 -4.47908e-11 2.15265e-10
-1.03553e-11 7.81159e-11 -1.9692e-10
-7.44136e-11 3.65357e-10 -3.37783e-11
-4.15837e-10 -5.80451e-11 1.27509e-11
-1.99161e-10 2.42923e-10 1.67694e-11
-1.70081e-10 4.14586e-10 -1.08891e-10
1.42339e-09 -7.75939e-11 8.86805e-10
1.07463e-10 -3.6825e-11 -9.95419e-12
1.68587e-09 -1.12206e-10 6.24082e-10
7.46599e-11 -4.45327e-11 7.90338e-11
2.02815e-10 9.32253e-10 -2.52881e-10
-3.11811e-11 4.49429e-11 -1.12333e-11
-6.46802e-10 3.79075e-10 -1.02939e-10
1.83352e-10 3.27893e-10 -4.22737e-11
-3.52677e-10 3.65381e-11 -5.20714e-11
4.02227e-10 8.36265e-11 -1.3507e-10
-2.98835e-11 1.11302e-10 3.66953e-11
6.62483e-11 -9.84168e-11 5.00392e-11
-2.61747e-10 1.76807e-10 -4.10524e-11
3.49711e-10 1.5345e-10 -3.44228e-11
3.81192e-10 2.68119e-10 -4.99989e-10
3.20431e-10 1.66798e-10 -1.40751e-10
3.22421e-10 -3.98908e-10 2.17551e-10
-9.44117e-11 6.65826e-10 -6.45236e-11
-1.40427e-10 -3.21537e-10 2.1331e-10
3.38383e-10 8.46326e-11 2.56638e-11
-5.18269e-10 3.843e-11 8.44345e-12
-3.48386e-10 1.91286e-10 -2.10112e-11
-3.34957e-10 -2.62944e-10 6.75588e-10
1.53395e-21 -4.04078e-22 -2.21271e-23
-3.23117e-27 -2.58494e-26 0.0
-1.96337e-10 -4.60278e-12 1.52804e-12
1.21122e-10 -2.76955e-10 6.4163e-11
-4.05882e-10 -8.63769e-11 -1.36227e-11
-2.9391e-10 -2.53613e-10 3.04887e-10
-6.91787e-11 -3.13103e-10 4.79695e-11
-4.18746e-10 -8.16905e-11 6.71636e-11
3.11628e-10 9.16129e-10 4.86979e-10
0.0 0.0 -1.43822e-09
3.85433e-11 5.46283e-10 -1.46938e-10
8.68392e-11 -5.48449e-11 5.75502e-11
4.78946e-12 6.81513e-10 -9.49476e-11
2.33036e-10 -8.02963e-11 2.86975e-10
-6.57391e-11 1.14229e-09 3.16576e-10
-4.73964e-10 -2.24284e-10 4.79386e-11
-2.74312e-11 -1.26498e-10 9.37065e-11