# vtk DataFile Version 3.0
LIGGGHTS particles timestep 36000000
ASCII
DATASET POLYDATA
POINTS 271 float
0.222351 0.0154673 0.00894071
0.223204 0.0179201 0.00702754
0.217328 0.0177041 0.00705981
0.223283 0.0178208 0.00703879
0.222332 0.0154077 0.00901885
0.228869 0.0173094 0.00751451
0.222434 0.0157036 0.00862913
0.222309 0.0153491 0.00909648
0.228996 0.0178327 0.00724867
0.222911 0.0173968 0.00716299
0.223047 0.0176069 0.00707872
0.216431 0.0156911 0.00863981
0.222246 0.0151717 0.00933023
0.217105 0.0183452 0.00696068
0.223287 0.0177219 0.00705288
0.217202 0.0183854 0.00696756
0.223304 0.0179174 0.00702406
0.222288 0.01529 0.00917436
0.222876 0.017247 0.00729087
0.223029 0.0174778 0.00710246
0.216681 0.0162371 0.00818218
0.22907 0.0181834 0.00707113
0.222502 0.0159078 0.00842213
0.228959 0.017657 0.00733757
0.217408 0.0180926 0.00700785
0.223186 0.0177245 0.00705642
0.222456 0.015763 0.00855152
0.222985 0.0176528 0.00717049
0.22252 0.0159791 0.0083545
0.223014 0.0170317 0.00748584
0.228891 0.0173965 0.00747025
0.222414 0.0156445 0.00870709
0.223138 0.0173273 0.00724075
0.229052 0.0180958 0.0071155
0.223065 0.0181507 0.00699966
0.223221 0.018476 0.00695428
0.229089 0.0182711 0.00702676
0.223351 0.0180042 0.00700972
0.321436 0.0173475 0.00552525
0.223183 0.0178234 0.00704227
0.228912 0.0174836 0.00742598
0.222372 0.0155264 0.00886282
0.223201 0.0183782 0.00696171
0.222565 0.0161285 0.00822935
0.222543 0.0160549 0.00829352
0.216345 0.0153903 0.008889
0.229033 0.0180081 0.00715987
0.223126 0.0180903 0.00706176
0.216286 0.0151635 0.00907649
0.223085 0.0182477 0.00698494
0.228936 0.0175702 0.00738176
0.223011 0.0174026 0.00716586
0.222854 0.0168269 0.00764992
0.223357 0.0181772 0.00698458
0.22334 0.0176373 0.00706303
0.229108 0.0183587 0.00698238
0.216626 0.0163673 0.00807952
0.216267 0.0150878 0.00913905
0.223124 0.0179919 0.00702028
0.223052 0.0171819 0.00735937
0.223114 0.0181885 0.00707853
0.228978 0.0177446 0.00729322
0.216325 0.0153148 0.00895143
0.223007 0.0178624 0.00704343
0.223124 0.0184415 0.00695549
0.223182 0.0182812 0.00697636
0.217332 0.0181574 0.00699583
0.22311 0.017399 0.00717679
0.217085 0.0182541 0.00699732
0.216387 0.0155408 0.00876436
0.223306 0.0180926 0.00699875
0.217222 0.0184844 0.00696553
0.216453 0.0157663 0.00857753
0.217142 0.0180946 0.00700943
0.229014 0.0179205 0.00720424
0.217348 0.0178012 0.0070468
0.223406 0.0180903 0.00699522
0.223298 0.0184121 0.00695722
0.222743 0.0167303 0.00773467
0.223278 0.0183146 0.00696784
0.223066 0.0177038 0.007064
0.217388 0.0179955 0.00702083
0.223162 0.0181843 0.00699109
0.222607 0.0162795 0.00810524
0.223016 0.0175582 0.00716048
0.222959 0.0173935 0.00725077
0.22263 0.0163527 0.008041
0.216743 0.0164632 0.00799505
0.223141 0.0176392 0.00708375
0.216852 0.0168364 0.00768056
0.223257 0.0182154 0.00698295
0.216409 0.0156159 0.00870208
0.0643568 0.0187248 0.00531097
0.24257 0.0191927 0.00520306
0.217046 0.0176156 0.0070906
0.217463 0.0179301 0.0070329
0.217288 0.0175109 0.00709216
0.217275 0.017435 0.00715583
0.223127 0.0183017 0.00705766
0.223318 0.0175409 0.00707777
0.222651 0.0164287 0.00797943
0.222967 0.0172947 0.00728915
0.217103 0.0178993 0.00702372
0.216713 0.0166678 0.00783022
0.217066 0.0181564 0.00698595
0.22324 0.017635 0.00706722
0.223093 0.0179935 0.00711546
0.223163 0.0186376 0.00694939
0.216913 0.0174155 0.00719776
0.223171 0.0174613 0.00712791
0.222477 0.0158316 0.00848197
0.222394 0.0155852 0.00878507
0.222942 0.0171294 0.00739599
0.216878 0.017265 0.00732464
0.222957 0.0172049 0.00733211
0.22324 0.018574 0.00695233
0.222877 0.0169015 0.0075873
0.217483 0.0180273 0.00701991
0.22292 0.0170529 0.00746017
0.222968 0.0176685 0.00707288
0.217308 0.017607 0.00707279
0.223086 0.0178008 0.00704928
0.222929 0.0174747 0.00710293
0.222896 0.0169783 0.00752263
0.222267 0.0152309 0.00925226
0.217125 0.018446 0.00695067
0.222585 0.0162034 0.00816628
0.223054 0.0178671 0.00713175
0.223118 0.0175386 0.00709294
0.217123 0.0179965 0.0070107
0.216861 0.0171923 0.00739128
0.216305 0.0152392 0.00901394
0.216968 0.0176645 0.00705182
0.217184 0.0182861 0.00697205
0.216952 0.0168602 0.00765377
0.222759 0.0168004 0.00766527
0.0100679 0.0201683 0.00551526
0.216822 0.01704 0.00751454
0.217167 0.0186459 0.00698145
0.216931 0.0174923 0.00713306
0.217144 0.0172579 0.00731148
0.217084 0.0178021 0.00703675
0.0219312 0.0187687 0.00551176
0.217313 0.0180613 0.00701522
0.22337 0.0182752 0.00696995
0.216948 0.017568 0.00706931
0.217241 0.0185824 0.00696229
0.21681 0.0166872 0.00780688
0.217139 0.0176388 0.0070619
0.223105 0.0183446 0.00697022
0.216875 0.0169119 0.0076166
0.217297 0.0184183 0.00695756
0.217214 0.0175771 0.00708578
0.222982 0.0177519 0.00715704
0.217114 0.0175433 0.00707789
0.223252 0.0180071 0.00701524
0.217161 0.0173333 0.00724799
0.210824 0.0170087 0.00736602
0.216994 0.0170095 0.00752745
0.216917 0.0170614 0.00749004
0.216991 0.0173619 0.00723653
0.21726 0.0182266 0.00699872
0.222949 0.0175715 0.0070876
0.217195 0.0174868 0.00712448
0.222961 0.0174833 0.0071973
0.2168 0.0169659 0.00757815
0.222863 0.0171823 0.00736592
0.223036 0.0171065 0.00742314
0.223111 0.0178975 0.00705516
0.211099 0.0183205 0.00696657
0.223059 0.0172577 0.00729463
0.217101 0.0174618 0.0071461
0.223218 0.0175386 0.00708196
0.161461 0.0182058 0.00533758
0.217293 0.0179635 0.00702177
0.2167 0.0163128 0.00811963
0.210884 0.01729 0.0072849
0.217145 0.0185478 0.00696651
0.217047 0.0180613 0.00700965
0.216691 0.0165928 0.0078927
0.217178 0.0178356 0.00704277
0.222677 0.0165044 0.00791973
0.216366 0.0154656 0.00882663
0.217253 0.0177693 0.00704775
0.216765 0.0165383 0.00793278
0.216896 0.0169865 0.00755341
0.217065 0.0177049 0.00704976
0.213839 0.0173368 0.00717843
0.222894 0.0173216 0.00722648
0.222843 0.0171126 0.00743485
0.217198 0.0179315 0.00702273
0.223046 0.0180538 0.00701438
0.22278 0.0168752 0.00760243
0.211079 0.0182269 0.00699585
0.217158 0.0177385 0.00705814
0.223144 0.0185395 0.00695134
0.216474 0.0158414 0.00851526
0.222715 0.0166518 0.00779028
0.217273 0.0178664 0.00703477
0.276738 0.0166244 0.00749703
0.223206 0.0180952 0.00700223
0.217025 0.0175244 0.00712619
0.045054 0.017416 0.00795203
0.223039 0.017331 0.00722982
0.216842 0.0171148 0.00745133
0.211021 0.0179462 0.00708368
0.210844 0.0171029 0.00733886
0.217237 0.018126 0.00699668
0.216648 0.0164425 0.00801725
0.210804 0.0169146 0.00739324
0.217027 0.0179631 0.00701182
0.222988 0.0177654 0.00705815
0.217233 0.017672 0.00706076
0.216605 0.0162921 0.00814179
0.216566 0.0161417 0.00826786
0.210648 0.0163129 0.00786062
0.210669 0.0163741 0.00778448
0.210723 0.0165649 0.00755978
0.216896 0.0173401 0.00726125
0.210689 0.0164355 0.00770806
0.210784 0.0168206 0.00742027
0.217428 0.0181897 0.00699485
0.21667 0.0165176 0.00795498
0.21106 0.0181334 0.00702512
0.216974 0.0169347 0.00759066
0.222694 0.0165768 0.00785283
0.210923 0.0174781 0.00723006
0.211118 0.0184141 0.0069373
0.210765 0.0167299 0.00745797
0.216988 0.0177686 0.00703789
0.217084 0.0173854 0.00721039
0.217051 0.0172346 0.00733743
0.216955 0.0172114 0.0073634
0.210943 0.0175717 0.00720078
0.216757 0.0168169 0.00770429
0.216539 0.0160669 0.00832843
0.210743 0.0166407 0.00749754
0.217188 0.0187424 0.00699615
0.210875 0.0171944 0.00731282
0.217008 0.0174391 0.00717533
0.216722 0.016388 0.00805733
0.216736 0.0167422 0.00776752
0.217032 0.0171594 0.00740081
0.222803 0.0169584 0.0075517
0.217279 0.0183208 0.00697069
0.210982 0.017759 0.00714223
0.216496 0.0159165 0.008453
0.210962 0.0176653 0.00717151
0.216787 0.016613 0.00786983
0.216778 0.0168916 0.00764144
0.216974 0.0172865 0.00730002
0.217356 0.018258 0.00698248
0.211001 0.0178526 0.00711295
0.210627 0.0162516 0.00793677
0.216831 0.0167617 0.00774375
0.217178 0.0174087 0.00718449
0.217218 0.0180287 0.00700971
0.217068 0.01731 0.00727394
0.217014 0.0170844 0.00746417
0.216662 0.0161616 0.00824466
0.217161 0.0181898 0.00698478
0.216936 0.0171364 0.00742673
0.217008 0.0178658 0.00702486
0.217368 0.0178984 0.00703381
0.216518 0.0159917 0.00839071
0.21104 0.0180398 0.0070544
0.216583 0.016217 0.00820407
0.223033 0.0179592 0.00704394
0.210705 0.016497 0.00763091
0.210907 0.0173835 0.00725802
0.222823 0.0170446 0.0075054

VERTICES 271 542
1 0
1 1
1 2
1 3
1 4
1 5
1 6
1 7
1 8
1 9
1 10
1 11
1 12
1 13
1 14
1 15
1 16
1 17
1 18
1 19
1 20
1 21
1 22
1 23
1 24
1 25
1 26
1 27
1 28
1 29
1 30
1 31
1 32
1 33
1 34
1 35
1 36
1 37
1 38
1 39
1 40
1 41
1 42
1 43
1 44
1 45
1 46
1 47
1 48
1 49
1 50
1 51
1 52
1 53
1 54
1 55
1 56
1 57
1 58
1 59
1 60
1 61
1 62
1 63
1 64
1 65
1 66
1 67
1 68
1 69
1 70
1 71
1 72
1 73
1 74
1 75
1 76
1 77
1 78
1 79
1 80
1 81
1 82
1 83
1 84
1 85
1 86
1 87
1 88
1 89
1 90
1 91
1 92
1 93
1 94
1 95
1 96
1 97
1 98
1 99
1 100
1 101
1 102
1 103
1 104
1 105
1 106
1 107
1 108
1 109
1 110
1 111
1 112
1 113
1 114
1 115
1 116
1 117
1 118
1 119
1 120
1 121
1 122
1 123
1 124
1 125
1 126
1 127
1 128
1 129
1 130
1 131
1 132
1 133
1 134
1 135
1 136
1 137
1 138
1 139
1 140
1 141
1 142
1 143
1 144
1 145
1 146
1 147
1 148
1 149
1 150
1 151
1 152
1 153
1 154
1 155
1 156
1 157
1 158
1 159
1 160
1 161
1 162
1 163
1 164
1 165
1 166
1 167
1 168
1 169
1 170
1 171
1 172
1 173
1 174
1 175
1 176
1 177
1 178
1 179
1 180
1 181
1 182
1 183
1 184
1 185
1 186
1 187
1 188
1 189
1 190
1 191
1 192
1 193
1 194
1 195
1 196
1 197
1 198
1 199
1 200
1 201
1 202
1 203
1 204
1 205
1 206
1 207
1 208
1 209
1 210
1 211
1 212
1 213
1 214
1 215
1 216
1 217
1 218
1 219
1 220
1 221
1 222
1 223
1 224
1 225
1 226
1 227
1 228
1 229
1 230
1 231
1 232
1 233
1 234
1 235
1 236
1 237
1 238
1 239
1 240
1 241
1 242
1 243
1 244
1 245
1 246
1 247
1 248
1 249
1 250
1 251
1 252
1 253
1 254
1 255
1 256
1 257
1 258
1 259
1 260
1 261
1 262
1 263
1 264
1 265
1 266
1 267
1 268
1 269
1 270

POINT_DATA 271
SCALARS id int 1
LOOKUP_TABLE default
1
2
3
4
5
6
7
8
9
10
11
12
13
14
15
16
17
19
21
22
23
24
25
26
27
28
29
30
31
32
33
34
35
36
37
38
39
41
42
44
45
47
48
50
51
52
53
54
55
56
57
59
61
62
63
64
65
66
67
68
69
70
71
72
73
74
76
77
78
79
80
81
82
83
84
85
86
87
88
89
90
91
92
93
94
95
96
97
98
99
100
101
102
103
104
105
106
107
108
109
110
111
112
113
114
115
116
117
118
119
120
121
122
123
124
125
126
127
128
129
131
132
133
134
135
136
137
138
140
141
142
143
144
147
148
149
150
151
153
154
155
156
157
158
159
160
162
164
165
166
168
169
170
171
172
173
174
175
177
178
179
181
182
183
184
186
187
188
189
190
191
192
193
194
195
196
197
198
199
201
202
203
204
205
206
207
208
209
210
211
212
213
214
215
216
217
218
219
220
221
222
223
224
225
226
227
228
229
230
231
232
234
235
236
237
239
240
241
242
244
246
247
248
249
250
251
252
253
254
255
256
257
258
259
261
262
263
264
265
266
267
268
269
270
271
272
273
274
275
276
277
278
280
283
284
285
286
287
288
289
290
291
292
293
294
295
296
297
298
299
300

SCALARS type int 1
LOOKUP_TABLE default
1
1
1
1
1
1
1
1
1
1
1
1
1
1
1
1
1
1
1
1
1
1
1
1
1
1
1
1
1
1
1
1
1
1
1
1
1
1
1
1
1
1
1
1
1
1
1
1
1
1
1
1
1
1
1
1
1
1
1
1
1
1
1
1
1
1
1
1
1
1
1
1
1
1
1
1
1
1
1
1
1
1
1
1
1
1
1
1
1
1
1
1
1
1
1
1
1
1
1
1
1
1
1
1
1
1
1
1
1
1
1
1
1
1
1
1
1
1
1
1
1
1
1
1
1
1
1
1
1
1
1
1
1
1
1
1
1
1
1
1
1
1
1
1
1
1
1
1
1
1
1
1
1
1
1
1
1
1
1
1
1
1
1
1
1
1
1
1
1
1
1
1
1
1
1
1
1
1
1
1
1
1
1
1
1
1
1
1
1
1
1
1
1
1
1
1
1
1
1
1
1
1
1
1
1
1
1
1
1
1
1
1
1
1
1
1
1
1
1
1
1
1
1
1
1
1
1
1
1
1
1
1
1
1
1
1
1
1
1
1
1
1
1
1
1
1
1
1
1
1
1
1
1
1
1
1
1
1
1
1
1
1
1
1
1
1
1
1
1
1
1

SCALARS radius float 1
LOOKUP_TABLE default
5e-05
5e-05
5e-05
5e-05
5e-05
5e-05
5e-05
5e-05
5e-05
5e-05
5e-05
5e-05
5e-05
5e-05
5e-05
5e-05
5e-05
5e-05
5e-05
5e-05
5e-05
5e-05
5e-05
5e-05
5e-05
5e-05
5e-05
5e-05
5e-05
5e-05
5e-05
5e-05
5e-05
5e-05
5e-05
5e-05
5e-05
5e-05
5e-05
5e-05
5e-05
5e-05
5e-05
5e-05
5e-05
5e-05
5e-05
5e-05
5e-05
5e-05
5e-05
5e-05
5e-05
5e-05
5e-05
5e-05
5e-05
5e-05
5e-05
5e-05
5e-05
5e-05
5e-05
5e-05
5e-05
5e-05
5e-05
5e-05
5e-05
5e-05
5e-05
5e-05
5e-05
5e-05
5e-05
5e-05
5e-05
5e-05
5e-05
5e-05
5e-05
5e-05
5e-05
5e-05
5e-05
5e-05
5e-05
5e-05
5e-05
5e-05
5e-05
5e-05
5e-05
5e-05
5e-05
5e-05
5e-05
5e-05
5e-05
5e-05
5e-05
5e-05
5e-05
5e-05
5e-05
5e-05
5e-05
5e-05
5e-05
5e-05
5e-05
5e-05
5e-05
5e-05
5e-05
5e-05
5e-05
5e-05
5e-05
5e-05
5e-05
5e-05
5e-05
5e-05
5e-05
5e-05
5e-05
5e-05
5e-05
5e-05
5e-05
5e-05
5e-05
5e-05
5e-05
5e-05
5e-05
5e-05
5e-05
5e-05
5e-05
5e-05
5e-05
5e-05
5e-05
5e-05
5e-05
5e-05
5e-05
5e-05
5e-05
5e-05
5e-05
5e-05
5e-05
5e-05
5e-05
5e-05
5e-05
5e-05
5e-05
5e-05
5e-05
5e-05
5e-05
5e-05
5e-05
5e-05
5e-05
5e-05
5e-05
5e-05
5e-05
5e-05
5e-05
5e-05
5e-05
5e-05
5e-05
5e-05
5e-05
5e-05
5e-05
5e-05
5e-05
5e-05
5e-05
5e-05
5e-05
5e-05
5e-05
5e-05
5e-05
5e-05
5e-05
5e-05
5e-05
5e-05
5e-05
5e-05
5e-05
5e-05
5e-05
5e-05
5e-05
5e-05
5e-05
5e-05
5e-05
5e-05
5e-05
5e-05
5e-05
5e-05
5e-05
5e-05
5e-05
5e-05
5e-05
5e-05
5e-05
5e-05
5e-05
5e-05
5e-05
5e-05
5e-05
5e-05
5e-05
5e-05
5e-05
5e-05
5e-05
5e-05
5e-05
5e-05
5e-05
5e-05
5e-05
5e-05
5e-05
5e-05
5e-05
5e-05
5e-05
5e-05
5e-05
5e-05
5e-05
5e-05
5e-05
5e-05
5e-05
5e-05
5e-05
5e-05
5e-05
5e-05
5e-05
5e-05
5e-05
5e-05
5e-05
5e-05
5e-05
5e-05
5e-05
5e-05
5e-05
5e-05
5e-05

SCALARS mass float 1
LOOKUP_TABLE default
1.46608e-10
1.46608e-10
1.46608e-10
1.46608e-10
1.46608e-10
1.46608e-10
1.46608e-10
1.46608e-10
1.46608e-10
1.46608e-10
1.46608e-10
1.46608e-10
1.46608e-10
1.46608e-10
1.46608e-10
1.46608e-10
1.46608e-10
1.46608e-10
1.46608e-10
1.46608e-10
1.46608e-10
1.46608e-10
1.46608e-10
1.46608e-10
1.46608e-10
1.46608e-10
1.46608e-10
1.46608e-10
1.46608e-10
1.46608e-10
1.46608e-10
1.46608e-10
1.46608e-10
1.46608e-10
1.46608e-10
1.46608e-10
1.46608e-10
1.46608e-10
1.46608e-10
1.46608e-10
1.46608e-10
1.46608e-10
1.46608e-10
1.46608e-10
1.46608e-10
1.46608e-10
1.46608e-10
1.46608e-10
1.46608e-10
1.46608e-10
1.46608e-10
1.46608e-10
1.46608e-10
1.46608e-10
1.46608e-10
1.46608e-10
1.46608e-10
1.46608e-10
1.46608e-10
1.46608e-10
1.46608e-10
1.46608e-10
1.46608e-10
1.46608e-10
1.46608e-10
1.46608e-10
1.46608e-10
1.46608e-10
1.46608e-10
1.46608e-10
1.46608e-10
1.46608e-10
1.46608e-10
1.46608e-10
1.46608e-10
1.46608e-10
1.46608e-10
1.46608e-10
1.46608e-10
1.46608e-10
1.46608e-10
1.46608e-10
1.46608e-10
1.46608e-10
1.46608e-10
1.46608e-10
1.46608e-10
1.46608e-10
1.46608e-10
1.46608e-10
1.46608e-10
1.46608e-10
1.46608e-10
1.46608e-10
1.46608e-10
1.46608e-10
1.46608e-10
1.46608e-10
1.46608e-10
1.46608e-10
1.46608e-10
1.46608e-10
1.46608e-10
1.46608e-10
1.46608e-10
1.46608e-10
1.46608e-10
1.46608e-10
1.46608e-10
1.46608e-10
1.46608e-10
1.46608e-10
1.46608e-10
1.46608e-10
1.46608e-10
1.46608e-10
1.46608e-10
1.46608e-10
1.46608e-10
1.46608e-10
1.46608e-10
1.46608e-10
1.46608e-10
1.46608e-10
1.46608e-10
1.46608e-10
1.46608e-10
1.46608e-10
1.46608e-10
1.46608e-10
1.46608e-10
1.46608e-10
1.46608e-10
1.46608e-10
1.46608e-10
1.46608e-10
1.46608e-10
1.46608e-10
1.46608e-10
1.46608e-10
1.46608e-10
1.46608e-10
1.46608e-10
1.46608e-10
1.46608e-10
1.46608e-10
1.46608e-10
1.46608e-10
1.46608e-10
1.46608e-10
1.46608e-10
1.46608e-10
1.46608e-10
1.46608e-10
1.46608e-10
1.46608e-10
1.46608e-10
1.46608e-10
1.46608e-10
1.46608e-10
1.46608e-10
1.46608e-10
1.46608e-10
1.46608e-10
1.46608e-10
1.46608e-10
1.46608e-10
1.46608e-10
1.46608e-10
1.46608e-10
1.46608e-10
1.46608e-10
1.46608e-10
1.46608e-10
1.46608e-10
1.46608e-10
1.46608e-10
1.46608e-10
1.46608e-10
1.46608e-10
1.46608e-10
1.46608e-10
1.46608e-10
1.46608e-10
1.46608e-10
1.46608e-10
1.46608e-10
1.46608e-10
1.46608e-10
1.46608e-10
1.46608e-10
1.46608e-10
1.46608e-10
1.46608e-10
1.46608e-10
1.46608e-10
1.46608e-10
1.46608e-10
1.46608e-10
1.46608e-10
1.46608e-10
1.46608e-10
1.46608e-10
1.46608e-10
1.46608e-10
1.46608e-10
1.46608e-10
1.46608e-10
1.46608e-10
1.46608e-10
1.46608e-10
1.46608e-10
1.46608e-10
1.46608e-10
1.46608e-10
1.46608e-10
1.46608e-10
1.46608e-10
1.46608e-10
1.46608e-10
1.46608e-10
1.46608e-10
1.46608e-10
1.46608e-10
1.46608e-10
1.46608e-10
1.46608e-10
1.46608e-10
1.46608e-10
1.46608e-10
1.46608e-10
1.46608e-10
1.46608e-10
1.46608e-10
1.46608e-10
1.46608e-10
1.46608e-10
1.46608e-10
1.46608e-10
1.46608e-10
1.46608e-10
1.46608e-10
1.46608e-10
1.46608e-10
1.46608e-10
1.46608e-10
1.46608e-10
1.46608e-10
1.46608e-10
1.46608e-10
1.46608e-10
1.46608e-10
1.46608e-10
1.46608e-10
1.46608e-10
1.46608e-10
1.46608e-10
1.46608e-10
1.46608e-10
1.46608e-10
1.46608e-10
1.46608e-10
1.46608e-10
1.46608e-10
1.46608e-10
1.46608e-10
1.46608e-10
1.46608e-10
1.46608e-10
1.46608e-10
1.46608e-10

VECTORS velocity float
0.0058278 -4.87636e-05 -0.000845769
0.00569904 0.000523488 -0.000299076
0.00572317 0.000351084 0.000162758
0.00564237 0.000560665 -0.000297857
0.00580702 -4.19173e-05 -0.000850366
0.00617424 0.00145962 -0.00110778
0.00595781 -8.4088e-05 -0.000817615
0.0057466 -2.19213e-05 -0.000865862
0.0057386 0.0014802 -0.00109045
0.00583496 0.000663662 -0.000111174
0.00569661 0.00050972 -0.000286651
0.00593835 4.32412e-05 -0.000368966
0.00556295 4.72034e-05 -0.000925287
0.00567142 0.000308196 0.000169468
0.00564263 0.000564063 -0.000299174
0.00578412 0.000451779 -9.84015e-05
0.00566971 0.000557758 -0.000299067
0.00572044 -6.38604e-06 -0.000880615
0.00575044 0.000654649 -9.54526e-05
0.00590271 0.000623952 -7.69884e-05
0.00593998 1.80379e-05 -0.000348424
0.0058584 0.0015619 -0.00113825
0.00599765 0.000357758 -0.000252
0.00672144 0.00120655 -0.00101673
0.00579206 0.000406398 0.000160477
0.00560082 0.000534551 -0.000294796
0.00595614 -9.45525e-05 -0.000819112
0.00541094 0.000625244 -0.000525286
0.00601848 0.000558294 -2.38949e-05
0.00579599 0.00064766 -0.000104197
0.00616438 0.00150859 -0.00113118
0.00593954 -8.00213e-05 -0.000820025
0.00582484 0.000621978 -7.95724e-05
0.00582213 0.00156899 -0.00113946
0.00572894 0.000537523 -0.00029826
0.00574253 0.000461432 0.000117426
0.00589461 0.00155454 -0.0011369
0.00571591 0.00053239 -0.000302618
4.57596e-16 2.2554e-15 8.4636e-14
0.00565032 0.000530804 -0.000295984
0.00613601 0.00148065 -0.00111568
0.00584821 -5.81422e-05 -0.000836865
0.00564163 0.000440622 -2.84448e-05
0.00606321 0.000567848 -1.64796e-05
0.00603878 0.0005671 -1.54443e-05
0.00588783 5.40664e-05 -0.000374265
0.00578628 0.00157802 -0.00114166
0.00572311 0.000542288 -0.000303459
0.00567447 6.80276e-05 -0.000374742
0.00572813 0.000546589 -0.000298506
0.00687699 0.0013949 -0.00111924
0.00583079 0.000638979 -9.77914e-05
0.00606914 0.000682074 -0.000110558
0.00575998 0.00054273 -0.000300915
0.00568369 0.000576356 -0.000303702
0.00593131 0.00154942 -0.00113669
0.00595674 1.47187e-05 -0.000345239
0.00566311 6.28686e-05 -0.00036927
0.00573918 0.000543751 -0.000300029
0.00578258 0.000630687 -8.88922e-05
0.00572306 0.000561827 -0.00030355
0.00579054 0.00163094 -0.00116766
0.00577417 6.90873e-05 -0.000380133
0.00572217 0.000564485 -0.000309332
0.00574896 0.000575542 -0.000314999
0.00568535 0.000454362 -0.000273745
0.00560363 0.000401246 0.000155427
0.005845 0.00063322 -8.46486e-05
0.00565385 0.000310382 0.000163266
0.00592209 5.09761e-05 -0.000372068
0.00573359 0.00054446 -0.000302637
0.00612466 0.000383743 -9.41209e-05
0.00593262 3.85664e-05 -0.000364167
0.00567868 0.000312167 0.000173702
0.00574985 0.0015844 -0.00114251
0.00575367 0.000364223 0.000164178
0.00574748 0.000552324 -0.000302058
0.00570274 0.000377363 7.0856e-05
0.00610326 0.000569014 -1.30744e-05
0.00571951 0.000404357 -0.000216121
0.00569784 0.000515921 -0.000296936
0.00574584 0.000400475 0.000159898
0.00570561 0.000502009 -0.000300176
0.0060447 0.000578005 -2.3384e-05
0.00575202 0.000674052 -0.000181371
0.00584465 0.000584177 -0.000104617
0.00603318 0.000584115 -2.72423e-05
0.00595563 7.26714e-06 -0.000339496
0.00568314 0.000514915 -0.000292287
0.0059851 -5.24037e-05 -0.000393558
0.00571208 0.000525242 -0.000300741
0.00592756 4.86324e-05 -0.000372258
4.28373e-15 1.04977e-14 8.29594e-14
-1.01195e-22 -1.27651e-22 1.23839e-22
0.00570557 0.000264512 0.000104806
0.00574741 0.000388962 0.000162446
0.00563642 0.000184023 -0.000548395
0.00583411 0.000151056 -0.000540619
0.00573803 0.000552764 -0.000300938
0.00572761 0.000554516 -0.000299869
0.00604389 0.000585018 -2.60886e-05
0.00581911 0.000625174 -0.000117627
0.0057098 0.00032397 0.000168244
0.00596677 -8.37684e-06 -0.000355013
0.00568802 0.00032729 0.000168461
0.00567425 0.000550182 -0.000302086
0.00572418 0.000552915 -0.000299813
0.00628381 0.000561367 0.00010729
0.00570566 5.20854e-05 -0.000394457
0.00583456 0.000656362 -9.93234e-05
0.00600481 4.18682e-05 -0.000661538
0.00588386 -6.89814e-05 -0.000828969
0.00573329 0.00064309 -9.7244e-05
0.00567113 2.70083e-05 -0.000427882
0.0057458 0.000635505 -9.46489e-05
0.00616204 0.000350113 0.000113189
0.00615407 0.000666144 -9.25793e-05
0.0057485 0.000379774 0.000162954
0.00581463 0.000676841 -0.000124515
0.00573837 0.000614241 -0.000305557
0.00569149 0.000339468 0.000163692
0.00567224 0.000511984 -0.000295727
0.00589764 0.000597051 -0.000210582
0.00597506 0.000659802 -9.23308e-05
0.0056416 2.22237e-05 -0.000905338
0.00569448 0.000260703 -0.000567833
0.00605672 0.00057438 -2.02854e-05
0.00572058 0.000564835 -0.0002955
0.00571486 0.000517661 -0.000262474
0.00569635 0.000320342 0.000168656
0.00559492 4.65034e-05 -0.00042008
0.00570203 7.31121e-05 -0.000379327
0.00568436 0.000305861 0.000176627
0.00566733 0.000301827 0.000169863
0.00599777 -3.11861e-05 -0.000402599
0.00611113 0.000569678 -9.92712e-06
8.38529e-15 1.23998e-15 -8.48744e-14
0.00583888 -1.44675e-05 -0.00040547
0.00607254 0.00032055 -0.000591573
0.00563997 0.000237532 -0.000601905
0.00572153 -1.62837e-06 -0.000406707
0.00570739 0.000315133 0.000171131
-3.83932e-14 8.16616e-14 2.95881e-13
0.00578888 0.000360965 0.000159137
0.00573932 0.000525579 -0.000300489
0.00568387 0.000176815 -0.000551467
0.00608073 0.000362985 -0.000580224
0.0059751 -4.14896e-05 -0.000391341
0.00571727 0.000324009 0.000178852
0.00573218 0.000557419 -0.000307518
0.00601035 -2.4721e-05 -0.000414376
0.00598624 0.000234517 0.000190092
0.00569975 0.000295229 8.60295e-05
0.00569809 0.000664921 -0.000319647
0.00553963 0.000222729 -0.00058018
0.00572552 0.000524774 -0.000330797
0.00573988 8.61031e-07 -0.000409911
0.0057364 0.000450046 4.1186e-05
0.00572735 2.1228e-05 -0.000426453
0.00567036 4.45056e-06 -0.000408318
0.00571199 6.68658e-06 -0.000407052
0.00551594 0.000316888 9.16904e-05
0.00584587 0.000598309 -0.000285933
0.00571882 0.000135073 -0.000276169
0.00581891 0.000649262 -0.000123947
0.00598422 -5.50111e-05 -0.000395457
0.00571829 0.000649088 -7.70059e-05
0.00576678 0.000641443 -9.98763e-05
0.00571844 0.000491557 -0.000297338
0.00569828 0.000377234 -0.000300758
0.00581617 0.000627152 -8.27441e-05
0.00570239 2.00188e-05 -0.000442876
0.00570538 0.000535214 -0.000311754
1.55464e-15 -1.10111e-14 8.66681e-14
0.00572881 0.000364132 0.00016191
0.00594203 1.45388e-05 -0.000345597
0.00570519 0.000457358 3.89984e-05
0.00607003 0.000294044 -0.000593342
0.00568362 0.00031878 0.000169671
0.00595947 6.4293e-06 -0.000341083
0.00572554 0.000326906 0.000142957
0.00606584 0.000580421 -2.19256e-05
0.00593253 4.98919e-05 -0.00037267
0.00570796 0.000341007 0.000158584
0.00595698 5.92071e-06 -0.000338777
0.00601323 0.000150777 -0.000554314
0.00569237 0.000308159 0.000177115
0.00616037 0.00154521 -0.000673257
0.00580164 0.000656059 -0.000105716
0.00576482 0.000638673 -5.18651e-05
0.00571625 0.000339808 0.000164833
0.0057354 0.000536102 -0.000299662
0.00611517 0.000570663 -8.33872e-06
0.00568603 0.00038154 -0.000301676
0.00570299 0.000318952 0.000170063
0.00565358 0.000515424 9.03403e-05
0.00593317 3.37129e-05 -0.000360579
0.00608704 0.000576321 -1.36975e-05
0.00572206 0.000355742 0.000157583
0.00615027 -0.000810488 0.000422768
0.00571998 0.000529655 -0.00030095
0.00572222 0.000125392 -0.000217359
-0.0214154 0.0251962 -0.00774868
0.00582313 0.000632249 -8.6425e-05
0.00566984 2.27434e-05 -0.000423308
0.00565525 0.000387383 -0.000302461
0.00568993 0.00045953 3.83484e-05
0.00567884 0.00031224 0.000170537
0.00595559 1.35243e-05 -0.000340437
0.00584017 0.000428284 4.54565e-05
0.00570625 0.000347333 0.000165412
0.0056714 0.000602898 -0.000311734
0.00570058 0.000313013 0.000173673
0.0059563 1.8057e-05 -0.000349203
0.00594469 2.34671e-05 -0.000352663
0.00628369 0.000557403 -4.21848e-05
0.0063197 0.0005615 -3.19436e-05
0.00591268 0.000198126 -0.000468118
0.0056964 2.81056e-05 -0.000424213
0.00607384 0.000540595 -0.000103201
0.00594998 0.000408198 6.26983e-05
0.00579818 0.000412905 0.000159747
0.00595887 8.93047e-06 -0.000338754
0.00567124 0.000380454 -0.000301103
0.00582315 5.55896e-06 -0.000420104
0.00608207 0.000577424 -1.7593e-05
0.00556638 0.000401255 -0.000304569
0.00571096 0.000374059 -0.000300092
0.00589157 0.000272917 -0.000297198
0.00567803 0.000314124 0.000182403
0.0057276 -3.07732e-06 -0.000406742
0.00570935 7.5194e-06 -0.000413773
0.00569289 1.77556e-06 -0.000409255
0.00557256 0.000400177 -0.000303771
0.00599084 -6.05842e-05 -0.000404818
0.00594645 2.51144e-05 -0.000353995
0.00592067 0.000192807 -0.000469304
0.00606753 0.000303551 -0.000592019
0.0057015 0.000456563 3.91244e-05
0.00572061 2.83125e-05 -0.000380551
0.00595095 1.02667e-05 -0.000341004
0.00597646 -3.44445e-05 -0.00038281
0.005706 1.14979e-05 -0.000416661
0.00604748 0.000586602 -6.0052e-06
0.00568252 0.000305209 0.00017022
0.00562746 0.000390839 -0.000302707
0.0059382 2.96086e-05 -0.000357436
0.00558924 0.000397739 -0.000303422
0.00596294 -3.73927e-05 -0.000390896
0.00599345 -6.53475e-05 -0.000406653
0.00570116 3.19754e-06 -0.00040973
0.00568431 0.000296031 0.00016702
0.00563452 0.000388515 -0.000302177
0.00626257 0.000566751 -5.24057e-05
0.00597422 -4.13894e-05 -0.000393202
0.00573309 7.00726e-06 -0.000419706
0.00569401 0.000324437 0.00016961
0.00571389 4.97038e-06 -0.000411915
0.00569945 1.99835e-05 -0.00042405
0.00594249 2.02945e-05 -0.000350365
0.00566582 0.000309183 0.000169699
0.00568705 -1.63874e-06 -0.000404691
0.00566939 0.00032089 0.000167003
0.00573556 0.000383121 0.000161394
0.00594306 2.71176e-05 -0.000355434
0.00566287 0.000381235 -0.00030098
0.00594979 2.11549e-05 -0.000351484
0.00575022 0.000535592 -0.000305491
0.00586972 0.000581603 -0.000112245
0.00541912 0.00052081 1.18426e-05
0.00590055 0.000614926 -2.06876e-05

VECTORS force float
1.22913e-10 -4.27911e-12 -4.05815e-11
-3.93417e-10 -6.15945e-11 -2.34291e-11
-5.3912e-12 2.60485e-10 5.08878e-12
1.80981e-10 -8.16963e-11 -2.63927e-11
-2.63229e-11 -7.4703e-12 1.06983e-11
5.01801e-12 2.93239e-11 -1.52313e-11
5.03438e-11 5.67341e-12 1.49638e-11
8.28285e-11 -6.37991e-11 7.42031e-11
3.36525e-13 -1.13992e-11 5.635e-12
-1.27823e-10 1.4386e-10 -3.06572e-10
-4.23769e-11 8.26715e-11 -1.47358e-10
8.49226e-11 4.21375e-11 -3.3319e-11
2.81838e-11 7.76962e-11 -1.04276e-10
2.40443e-11 5.26864e-11 -5.58333e-12
-4.84417e-10 2.76064e-11 3.14639e-11
-9.75152e-11 -2.00246e-10 -1.53147e-10
2.40746e-10 -2.29547e-10 4.88362e-11
1.59102e-10 -5.35861e-11 2.51707e-11
-1.01646e-10 2.56958e-10 -2.22147e-10
-6.16508e-10 3.69058e-10 -4.57718e-10
7.50658e-11 -4.54503e-11 2.55248e-11
-6.10369e-13 -5.49235e-12 2.74899e-12
3.82063e-11 6.3552e-11 1.90481e-11
2.23292e-11 -4.24205e-12 2.14565e-10
2.46963e-11 1.20012e-10 -4.27619e-13
1.67714e-11 9.6001e-11 7.87311e-11
-2.70721e-11 1.72009e-10 1.24356e-10
-5.67879e-11 -6.73737e-10 -2.31172e-11
3.53198e-11 9.94816e-12 -4.9449e-11
-3.8613e-10 -1.54323e-12 -4.26882e-11
4.73974e-12 2.36398e-11 -1.14151e-11
1.55098e-11 -3.43276e-11 6.13569e-11
8.77213e-11 1.13144e-10 -6.80101e-11
-4.57871e-13 -5.3427e-12 2.62875e-12
-8.7659e-12 1.75305e-11 9.77638e-12
3.94131e-10 1.5379e-09 4.66947e-10
-7.1566e-13 -5.54064e-12 2.76117e-12
-5.55115e-11 -1.16372e-10 -1.14716e-11
-7.38e-24 5.65455e-24 -2.06795e-25
-3.54994e-10 -9.349e-11 5.55703e-11
3.82536e-12 2.44068e-11 -1.22772e-11
1.74714e-10 -7.19015e-11 3.60431e-11
-5.00265e-10 4.87882e-10 1.03652e-09
1.39403e-10 5.63573e-11 -2.64682e-11
4.39391e-11 2.72673e-11 -5.55866e-11
-6.71109e-11 -1.41782e-10 1.00569e-10
-3.47378e-13 -5.14175e-12 2.55439e-12
-1.28123e-10 -7.95522e-11 4.6111e-11
3.18993e-11 -4.10221e-10 2.71853e-10
-3.97401e-11 -5.30933e-11 -6.85424e-12
7.40238e-12 -1.01607e-11 2.6112e-11
4.79168e-11 2.98552e-10 -3.7857e-10
-1.1311e-10 -6.62517e-11 3.94199e-11
2.31402e-10 -2.77663e-10 8.47827e-12
-4.86146e-10 2.04546e-10 -5.49666e-11
-8.53061e-13 -5.56142e-12 2.75654e-12
1.40511e-11 -1.22886e-12 1.87121e-11
-1.63475e-10 -4.60786e-10 3.60241e-10
-2.44701e-11 -6.95371e-11 3.98576e-11
-3.18758e-10 8.53789e-11 -9.26881e-11
-2.79135e-10 -3.85197e-11 -1.15279e-12
-5.25964e-10 3.90004e-10 -1.86435e-10
1.60341e-11 -2.52041e-10 2.06184e-10
-1.30417e-10 5.27874e-10 3.87413e-12
-1.24771e-10 3.40715e-10 -2.25491e-10
-4.2661e-10 -5.62557e-10 8.65628e-10
-2.71478e-10 1.923e-11 3.02927e-11
1.64018e-10 1.23925e-10 -1.06078e-10
-8.38424e-11 1.80279e-12 -4.40576e-11
7.42481e-11 -1.2751e-11 1.94852e-11
-1.82921e-10 -1.65287e-10 2.07891e-11
-5.09231e-10 3.34101e-10 5.88851e-10
6.93634e-11 7.61868e-11 -6.39233e-11
-6.5442e-11 5.93617e-11 -2.356e-11
-1.65417e-13 -4.59114e-12 2.2767e-12
2.56986e-10 2.45632e-10 -6.56085e-11
-1.79549e-10 -8.65693e-11 1.21443e-11
-1.55863e-09 -3.99742e-10 2.85046e-10
-6.66904e-11 -1.7781e-10 1.64641e-10
-3.54217e-10 -8.35662e-10 7.46274e-10
3.77947e-10 1.48761e-10 -6.08569e-11
1.19235e-11 2.84432e-10 -4.39004e-11
-4.65784e-10 -7.01485e-10 -3.88236e-11
-2.18071e-11 2.0902e-11 -4.57795e-11
-3.08493e-10 -2.65288e-11 4.0631e-11
-1.38544e-10 2.29237e-10 -7.15817e-10
-7.49635e-11 -4.6179e-12 -1.7614e-11
-2.69727e-11 2.35489e-11 -3.76683e-11
-1.7103e-11 2.3177e-10 1.27824e-10
7.50542e-12 -6.80029e-11 -5.64057e-11
-3.04168e-10 -3.07171e-10 1.06519e-10
-9.19024e-11 3.20901e-11 1.40817e-11
-3.04251e-21 1.02868e-21 2.91581e-23
0.0 0.0 0.0
1.67785e-10 2.1217e-10 1.91816e-11
-6.76723e-11 6.26302e-10 -6.81528e-11
4.78595e-10 -1.29709e-10 -1.78776e-11
7.84469e-11 -7.73122e-11 1.84275e-10
-2.25969e-10 -4.66165e-11 1.78114e-10
-2.83577e-10 1.70504e-10 -3.95584e-11
9.69019e-11 -7.76168e-11 3.98224e-11
-8.98893e-11 2.33167e-10 -1.38696e-10
-6.87663e-11 -1.81214e-11 7.25712e-11
-2.46311e-11 1.00582e-10 5.87577e-11
-1.45728e-11 -8.99925e-11 1.16087e-11
-2.2247e-10 4.94723e-11 2.14877e-11
-1.07059e-10 8.11677e-11 1.06794e-10
-1.88887e-10 2.12784e-09 -1.58346e-10
6.67586e-12 -1.05043e-10 7.80166e-11