# vtk DataFile Version 3.0
LIGGGHTS particles timestep 11800000
ASCII
DATASET POLYDATA
POINTS 287 float
0.0816333 0.0163359 0.00783985
0.0820491 0.0173792 0.00736514
0.0753818 0.0157033 0.00831032
0.0819431 0.0177601 0.00717517
0.0815181 0.0162164 0.00789112
0.0876375 0.0167293 0.00760213
0.0816957 0.0170156 0.00751712
0.0814182 0.0158146 0.00816038
0.0879215 0.017984 0.00707014
0.0816367 0.0167489 0.00764153
0.0820946 0.0175671 0.00727775
0.0755805 0.01647 0.00770304
0.0814981 0.0161271 0.0079315
0.0753026 0.0154848 0.00863564
0.0818329 0.0172241 0.00742573
0.0752808 0.015431 0.00871712
0.0816171 0.0166601 0.00768298
0.0877778 0.0173667 0.00734917
0.0814781 0.0160391 0.00797463
0.0816132 0.0162471 0.00788124
0.0817371 0.017193 0.0074345
0.0757526 0.0168196 0.00746276
0.0878409 0.0176394 0.0072411
0.0816761 0.0169267 0.0075586
0.0877159 0.0170939 0.00745738
0.0756578 0.0167918 0.00747879
0.0819336 0.0176693 0.00721823
0.081458 0.0159541 0.00802346
0.0819706 0.017433 0.00733423
0.0817163 0.0171043 0.00747581
0.0818121 0.0171355 0.00746702
0.087657 0.0168205 0.00756594
0.0815976 0.0165712 0.00772444
0.0817913 0.0170468 0.00750831
0.0879768 0.0182199 0.00695167
0.0817511 0.0168692 0.0075911
0.0819077 0.0171664 0.00745833
0.0878661 0.0177471 0.00718917
0.0815582 0.0163935 0.00780733
0.0817579 0.0172817 0.00739321
0.0819285 0.0172551 0.00741704
0.0876766 0.0169116 0.00752975
0.0877568 0.0172758 0.00738519
0.0815781 0.0164823 0.00776591
0.0817995 0.0174591 0.00731064
0.0877358 0.0171849 0.00742122
0.0818636 0.0177394 0.00723225
0.081842 0.017644 0.00725332
0.0755615 0.0163916 0.00776205
0.0877988 0.0174576 0.00731314
0.0815929 0.0161581 0.00792274
0.0753433 0.0155925 0.00847214
0.0817708 0.0169581 0.00754963
0.0876963 0.0170027 0.00749356
0.081826 0.0168114 0.00762368
0.0818459 0.0169003 0.00758227
0.0815382 0.0163047 0.00784872
0.0819496 0.017344 0.00737564
0.0818952 0.0174902 0.00730187
0.0878199 0.0175485 0.00727712
0.0756751 0.0164932 0.00767977
0.0756168 0.0162577 0.00785673
0.082075 0.0174721 0.00732212
0.0820115 0.0176149 0.0072494
0.0816921 0.0166025 0.00771548
0.0878936 0.0178649 0.00713001
0.0753242 0.0155385 0.00855414
0.081995 0.017524 0.00729202
0.0816564 0.0168378 0.00760008
0.0818536 0.0173135 0.00738583
0.0758701 0.017331 0.00717339
0.0821054 0.0183854 0.00692016
0.0754012 0.0157679 0.00823656
0.0755998 0.0165485 0.00764404
0.0819106 0.0179332 0.0070899
0.0755417 0.0163133 0.00782101
0.0756774 0.0168767 0.00742968
0.0756924 0.0161525 0.0079289
0.0879492 0.0181021 0.00701086
0.0754965 0.0157877 0.00821069
0.0819172 0.0175786 0.00726076
0.0818064 0.0167226 0.00766513
0.0819652 0.0181661 0.00698145
0.0819314 0.0180218 0.00704861
0.0820278 0.01729 0.00740665
0.0756191 0.0166275 0.00758591
0.0820352 0.0178098 0.00715726
0.0820394 0.0181077 0.00701432
0.082135 0.0181372 0.00700631
0.0819093 0.0179293 0.00718982
0.0820939 0.0178992 0.00711807
0.0755022 0.0161567 0.00793893
0.0819869 0.0182627 0.00696718
0.0756559 0.0164147 0.00773858
0.0819838 0.01711 0.00749036
0.075597 0.0161793 0.00791576
0.0643568 0.0187248 0.00531097
0.24257 0.0191927 0.00520306
0.075924 0.0171458 0.00732131
0.0754627 0.016 0.00805684
0.0760086 0.0170959 0.00730242
0.0754219 0.0158437 0.00817466
0.0817314 0.0167802 0.00763258
0.0818202 0.0175478 0.00726935
0.0821994 0.0180699 0.00704278
0.08203 0.0184507 0.00691378
0.075522 0.016235 0.00787997
0.076303 0.0176009 0.00714308
0.0758677 0.0168792 0.00742971
0.0818744 0.0174015 0.00734317
0.0817118 0.0166914 0.00767403
0.0815729 0.0160693 0.00796413
0.0753628 0.0156509 0.00839336
0.0818662 0.016989 0.00754091
0.0814385 0.0158795 0.00808712
0.0813995 0.0157619 0.00824335
0.0822284 0.0181713 0.00699593
0.0755375 0.0159443 0.00809272
0.0820098 0.0179456 0.00709033
0.0815529 0.0159816 0.00800791
0.0817787 0.0173704 0.00735192
0.0754825 0.0160783 0.00799789
0.0818852 0.0178343 0.00720927
0.081954 0.0181175 0.00706814
0.0757721 0.0169038 0.00741244
0.0756366 0.0163361 0.0077977
0.0819473 0.0178503 0.00713211
0.0817279 0.0163669 0.00783104
0.0818869 0.0170777 0.00749962
0.0815323 0.0158963 0.008057
0.0754766 0.0157208 0.00828231
0.0820509 0.0185474 0.0069281
0.0816726 0.0165136 0.00775695
0.0821795 0.0183182 0.00692214
0.0755169 0.0158659 0.00815176
0.0758871 0.0169634 0.00737936
0.0754422 0.0159219 0.00811575
0.075848 0.0167951 0.00748
0.0757122 0.0162308 0.00786995
0.0754583 0.0156668 0.00836443
0.0757361 0.0171277 0.00727637
0.0821548 0.0182303 0.00696282
0.0757512 0.0163876 0.00775199
0.0760899 0.0171466 0.00727386
0.0755772 0.016101 0.00797472
0.0758312 0.0171563 0.00726162
0.0758896 0.0174289 0.0071681
0.0758114 0.0170723 0.00731205
0.0219312 0.0187687 0.00551176
0.0759156 0.0172394 0.00728711
0.0820241 0.0177095 0.00720472
0.0757934 0.0173955 0.0071738
0.0757557 0.0172119 0.00722606
0.0760704 0.0178509 0.00715086
0.0761654 0.0173753 0.00715447
0.0816877 0.016189 0.007914
0.0757321 0.0163091 0.00781099
0.0759873 0.0171793 0.00725157
0.0762293 0.0176684 0.00714576
0.0760523 0.0173143 0.00717169
0.0817079 0.016278 0.00787252
0.0761465 0.0172846 0.00719201
0.0821872 0.0175358 0.00729876
0.0759648 0.0173624 0.00716615
0.069744 0.0171755 0.00727907
0.0757917 0.016988 0.00736213
0.0758336 0.0175913 0.00716812
0.076282 0.0175025 0.00714598
0.0762078 0.0175708 0.00714867
0.0757599 0.01729 0.00738941
0.0816531 0.0164247 0.00779843
0.0759452 0.0172691 0.00719631
0.0819674 0.017757 0.00727211
0.0757165 0.0170436 0.00732668
0.0757519 0.0172131 0.00732597
0.081963 0.0170212 0.00753166
0.0820614 0.0181962 0.0069732
0.082006 0.0172002 0.00744838
0.0698496 0.0172802 0.00719432
0.0820714 0.0186429 0.00694956
0.0759769 0.0169268 0.00740372
0.0817868 0.0166337 0.00770658
0.0757897 0.0165448 0.00763454
0.0761866 0.017473 0.00715157
0.0752591 0.0153773 0.00879861
0.0698031 0.0174527 0.0071902
0.0756384 0.0167081 0.00752995
0.0757753 0.0172972 0.00717779
0.075733 0.0167355 0.00751308
0.076179 0.0178998 0.00714422
0.0759985 0.0170106 0.00735366
0.0822038 0.0177174 0.00721253
0.0757136 0.0166513 0.00756341
0.0760274 0.0176557 0.00715668
0.0759848 0.0174603 0.00716249
0.0755574 0.0160226 0.00803376
0.0758506 0.0172405 0.00721119
0.0757706 0.016466 0.00769311
0.0818639 0.0176029 0.00734178
0.0821123 0.0180237 0.00705941
0.0760722 0.0174116 0.00716013
0.0819421 0.0169323 0.00757307
0.0820195 0.0180451 0.00708975
0.0698341 0.0171921 0.00723894
0.075812 0.0174937 0.00717103
0.0817477 0.016456 0.0077895
0.0759312 0.0176244 0.00716234
0.0820085 0.0183571 0.00694157
0.0758165 0.0173446 0.00725669
0.0697414 0.0167914 0.00752523
0.0817672 0.0165449 0.00774804
0.0759068 0.0170475 0.00732907
0.0756969 0.0169594 0.007377
0.0821041 0.0176576 0.00723485
0.0760686 0.01723 0.00722297
0.0698002 0.0170307 0.00735313
0.0697637 0.017267 0.00724394
0.0758442 0.0172899 0.00733567
0.0761131 0.0180462 0.00714505
0.0697244 0.0170851 0.00731711
0.0756727 0.0160742 0.00798786
0.075809 0.0166268 0.00758062
0.0820776 0.0182855 0.0069313
0.0761554 0.0182419 0.00713925
0.0761346 0.0181438 0.00714213
0.0762219 0.0180951 0.0071384
0.0695504 0.01638 0.00784811
0.0696082 0.0166108 0.00766538
0.069531 0.016303 0.007909
0.0759378 0.0167585 0.00750435
0.0756945 0.0165722 0.00762158
0.0695696 0.0164569 0.00778719
0.0696855 0.016925 0.00743052
0.0760489 0.0177533 0.00715377
0.0762508 0.0177661 0.00714284
0.0698246 0.0175503 0.00718974
0.0759102 0.0175267 0.00716524
0.08217 0.0178427 0.0071501
0.0698675 0.0177457 0.00718882
0.069781 0.0169503 0.00741012
0.069666 0.016845 0.00748727
0.0754386 0.0156129 0.00844632
0.0760059 0.017558 0.0071596
0.0758985 0.017885 0.00715934
0.0759527 0.0177221 0.00715943
0.069889 0.0178433 0.00718836
0.0758285 0.0167123 0.00753258
0.0760605 0.0182109 0.00714484
0.0762003 0.0179975 0.00714131
0.0696468 0.0167652 0.00754428
0.0759202 0.017983 0.00715641
0.0697838 0.0173552 0.00720135
0.0760996 0.0170615 0.00732547
0.0759955 0.0179173 0.00715362
0.0758354 0.0171704 0.0073607
0.0758769 0.0177873 0.00716226
0.0821196 0.0177637 0.00718484
0.0760935 0.0175092 0.00715608
0.0699317 0.0180387 0.00719218
0.0759851 0.0182765 0.00714764
0.0699104 0.017941 0.00719002
0.0759742 0.0178197 0.00715652
0.0758553 0.0176894 0.0071652
0.0760067 0.0183741 0.00714472
0.0761362 0.0177045 0.00715003
0.0697055 0.0170058 0.00737506
0.0698784 0.0173869 0.00719403
0.0759183 0.0166743 0.00755468
0.0697608 0.0168702 0.00746684
0.0695889 0.0165338 0.00772629
0.0760384 0.0181128 0.00714779
0.0760172 0.0180151 0.00715069
0.0759418 0.0180807 0.00715349
0.0760918 0.0179486 0.00714795
0.0759635 0.0181789 0.00715056
0.0758988 0.0165901 0.00760503
0.0759575 0.0168426 0.00745405
0.0761576 0.0178022 0.00714712
0.0756528 0.0159959 0.00804682
0.0761146 0.0176069 0.00715295
0.0760283 0.0184717 0.00714181
0.0698189 0.0171114 0.007296
0.0762425 0.0181929 0.00713553
0.0819218 0.0168435 0.00761442
0.0696273 0.0166877 0.00760445
0.069846 0.017648 0.00718928
0.0820409 0.0176957 0.00730233

VERTICES 287 574
1 0
1 1
1 2
1 3
1 4
1 5
1 6
1 7
1 8
1 9
1 10
1 11
1 12
1 13
1 14
1 15
1 16
1 17
1 18
1 19
1 20
1 21
1 22
1 23
1 24
1 25
1 26
1 27
1 28
1 29
1 30
1 31
1 32
1 33
1 34
1 35
1 36
1 37
1 38
1 39
1 40
1 41
1 42
1 43
1 44
1 45
1 46
1 47
1 48
1 49
1 50
1 51
1 52
1 53
1 54
1 55
1 56
1 57
1 58
1 59
1 60
1 61
1 62
1 63
1 64
1 65
1 66
1 67
1 68
1 69
1 70
1 71
1 72
1 73
1 74
1 75
1 76
1 77
1 78
1 79
1 80
1 81
1 82
1 83
1 84
1 85
1 86
1 87
1 88
1 89
1 90
1 91
1 92
1 93
1 94
1 95
1 96
1 97
1 98
1 99
1 100
1 101
1 102
1 103
1 104
1 105
1 106
1 107
1 108
1 109
1 110
1 111
1 112
1 113
1 114
1 115
1 116
1 117
1 118
1 119
1 120
1 121
1 122
1 123
1 124
1 125
1 126
1 127
1 128
1 129
1 130
1 131
1 132
1 133
1 134
1 135
1 136
1 137
1 138
1 139
1 140
1 141
1 142
1 143
1 144
1 145
1 146
1 147
1 148
1 149
1 150
1 151
1 152
1 153
1 154
1 155
1 156
1 157
1 158
1 159
1 160
1 161
1 162
1 163
1 164
1 165
1 166
1 167
1 168
1 169
1 170
1 171
1 172
1 173
1 174
1 175
1 176
1 177
1 178
1 179
1 180
1 181
1 182
1 183
1 184
1 185
1 186
1 187
1 188
1 189
1 190
1 191
1 192
1 193
1 194
1 195
1 196
1 197
1 198
1 199
1 200
1 201
1 202
1 203
1 204
1 205
1 206
1 207
1 208
1 209
1 210
1 211
1 212
1 213
1 214
1 215
1 216
1 217
1 218
1 219
1 220
1 221
1 222
1 223
1 224
1 225
1 226
1 227
1 228
1 229
1 230
1 231
1 232
1 233
1 234
1 235
1 236
1 237
1 238
1 239
1 240
1 241
1 242
1 243
1 244
1 245
1 246
1 247
1 248
1 249
1 250
1 251
1 252
1 253
1 254
1 255
1 256
1 257
1 258
1 259
1 260
1 261
1 262
1 263
1 264
1 265
1 266
1 267
1 268
1 269
1 270
1 271
1 272
1 273
1 274
1 275
1 276
1 277
1 278
1 279
1 280
1 281
1 282
1 283
1 284
1 285
1 286

POINT_DATA 287
SCALARS id int 1
LOOKUP_TABLE default
1
2
3
4
5
6
7
8
9
10
11
12
13
14
15
16
17
18
19
21
22
23
24
25
26
27
28
29
30
31
32
33
34
35
36
37
38
39
41
42
44
45
46
47
48
49
50
51
52
53
54
55
56
57
59
60
61
62
63
64
65
66
67
68
69
70
71
72
73
74
76
77
78
79
80
81
82
83
84
85
86
87
88
89
90
91
92
93
94
95
96
97
98
99
100
101
102
103
104
105
106
107
108
109
110
111
112
113
114
115
116
117
118
119
120
121
122
123
124
125
126
127
128
129
130
131
132
133
134
135
136
137
138
140
141
142
143
144
146
147
148
149
150
151
153
154
155
156
157
158
159
160
162
164
165
166
167
168
169
170
171
172
173
174
175
176
177
178
179
181
182
183
184
185
186
187
188
189
190
191
192
193
194
195
196
197
198
199
200
201
202
203
204
205
206
207
208
209
210
211
212
213
214
215
216
217
218
219
220
221
222
223
224
225
226
227
228
229
230
231
232
233
234
235
236
237
239
240
241
242
243
244
246
247
248
249
250
251
252
253
254
255
256
257
258
259
260
261
262
263
264
265
266
267
268
269
270
271
272
273
274
275
276
277
278
279
280
281
282
283
284
285
286
287
288
289
290
291
292
293
294
295
296
297
298
299
300

SCALARS type int 1
LOOKUP_TABLE default
1
1
1
1
1
1
1
1
1
1
1
1
1
1
1
1
1
1
1
1
1
1
1
1
1
1
1
1
1
1
1
1
1
1
1
1
1
1
1
1
1
1
1
1
1
1
1
1
1
1
1
1
1
1
1
1
1
1
1
1
1
1
1
1
1
1
1
1
1
1
1
1
1
1
1
1
1
1
1
1
1
1
1
1
1
1
1
1
1
1
1
1
1
1
1
1
1
1
1
1
1
1
1
1
1
1
1
1
1
1
1
1
1
1
1
1
1
1
1
1
1
1
1
1
1
1
1
1
1
1
1
1
1
1
1
1
1
1
1
1
1
1
1
1
1
1
1
1
1
1
1
1
1
1
1
1
1
1
1
1
1
1
1
1
1
1
1
1
1
1
1
1
1
1
1
1
1
1
1
1
1
1
1
1
1
1
1
1
1
1
1
1
1
1
1
1
1
1
1
1
1
1
1
1
1
1
1
1
1
1
1
1
1
1
1
1
1
1
1
1
1
1
1
1
1
1
1
1
1
1
1
1
1
1
1
1
1
1
1
1
1
1
1
1
1
1
1
1
1
1
1
1
1
1
1
1
1
1
1
1
1
1
1
1
1
1
1
1
1
1
1
1
1
1
1
1
1
1
1
1
1
1
1
1
1
1
1

SCALARS radius float 1
LOOKUP_TABLE default
5e-05
5e-05
5e-05
5e-05
5e-05
5e-05
5e-05
5e-05
5e-05
5e-05
5e-05
5e-05
5e-05
5e-05
5e-05
5e-05
5e-05
5e-05
5e-05
5e-05
5e-05
5e-05
5e-05
5e-05
5e-05
5e-05
5e-05
5e-05
5e-05
5e-05
5e-05
5e-05
5e-05
5e-05
5e-05
5e-05
5e-05
5e-05
5e-05
5e-05
5e-05
5e-05
5e-05
5e-05
5e-05
5e-05
5e-05
5e-05
5e-05
5e-05
5e-05
5e-05
5e-05
5e-05
5e-05
5e-05
5e-05
5e-05
5e-05
5e-05
5e-05
5e-05
5e-05
5e-05
5e-05
5e-05
5e-05
5e-05
5e-05
5e-05
5e-05
5e-05
5e-05
5e-05
5e-05
5e-05
5e-05
5e-05
5e-05
5e-05
5e-05
5e-05
5e-05
5e-05
5e-05
5e-05
5e-05
5e-05
5e-05
5e-05
5e-05
5e-05
5e-05
5e-05
5e-05
5e-05
5e-05
5e-05
5e-05
5e-05
5e-05
5e-05
5e-05
5e-05
5e-05
5e-05
5e-05
5e-05
5e-05
5e-05
5e-05
5e-05
5e-05
5e-05
5e-05
5e-05
5e-05
5e-05
5e-05
5e-05
5e-05
5e-05
5e-05
5e-05
5e-05
5e-05
5e-05
5e-05
5e-05
5e-05
5e-05
5e-05
5e-05
5e-05
5e-05
5e-05
5e-05
5e-05
5e-05
5e-05
5e-05
5e-05
5e-05
5e-05
5e-05
5e-05
5e-05
5e-05
5e-05
5e-05
5e-05
5e-05
5e-05
5e-05
5e-05
5e-05
5e-05
5e-05
5e-05
5e-05
5e-05
5e-05
5e-05
5e-05
5e-05
5e-05
5e-05
5e-05
5e-05
5e-05
5e-05
5e-05
5e-05
5e-05
5e-05
5e-05
5e-05
5e-05
5e-05
5e-05
5e-05
5e-05
5e-05
5e-05
5e-05
5e-05
5e-05
5e-05
5e-05
5e-05
5e-05
5e-05
5e-05
5e-05
5e-05
5e-05
5e-05
5e-05
5e-05
5e-05
5e-05
5e-05
5e-05
5e-05
5e-05
5e-05
5e-05
5e-05
5e-05
5e-05
5e-05
5e-05
5e-05
5e-05
5e-05
5e-05
5e-05
5e-05
5e-05
5e-05
5e-05
5e-05
5e-05
5e-05
5e-05
5e-05
5e-05
5e-05
5e-05
5e-05
5e-05
5e-05
5e-05
5e-05
5e-05
5e-05
5e-05
5e-05
5e-05
5e-05
5e-05
5e-05
5e-05
5e-05
5e-05
5e-05
5e-05
5e-05
5e-05
5e-05
5e-05
5e-05
5e-05
5e-05
5e-05
5e-05
5e-05
5e-05
5e-05
5e-05
5e-05
5e-05
5e-05
5e-05
5e-05
5e-05
5e-05
5e-05
5e-05
5e-05
5e-05
5e-05
5e-05
5e-05
5e-05
5e-05
5e-05
5e-05
5e-05
5e-05
5e-05
5e-05
5e-05
5e-05
5e-05
5e-05
5e-05

SCALARS mass float 1
LOOKUP_TABLE default
1.46608e-10
1.46608e-10
1.46608e-10
1.46608e-10
1.46608e-10
1.46608e-10
1.46608e-10
1.46608e-10
1.46608e-10
1.46608e-10
1.46608e-10
1.46608e-10
1.46608e-10
1.46608e-10
1.46608e-10
1.46608e-10
1.46608e-10
1.46608e-10
1.46608e-10
1.46608e-10
1.46608e-10
1.46608e-10
1.46608e-10
1.46608e-10
1.46608e-10
1.46608e-10
1.46608e-10
1.46608e-10
1.46608e-10
1.46608e-10
1.46608e-10
1.46608e-10
1.46608e-10
1.46608e-10
1.46608e-10
1.46608e-10
1.46608e-10
1.46608e-10
1.46608e-10
1.46608e-10
1.46608e-10
1.46608e-10
1.46608e-10
1.46608e-10
1.46608e-10
1.46608e-10
1.46608e-10
1.46608e-10
1.46608e-10
1.46608e-10
1.46608e-10
1.46608e-10
1.46608e-10
1.46608e-10
1.46608e-10
1.46608e-10
1.46608e-10
1.46608e-10
1.46608e-10
1.46608e-10
1.46608e-10
1.46608e-10
1.46608e-10
1.46608e-10
1.46608e-10
1.46608e-10
1.46608e-10
1.46608e-10
1.46608e-10
1.46608e-10
1.46608e-10
1.46608e-10
1.46608e-10
1.46608e-10
1.46608e-10
1.46608e-10
1.46608e-10
1.46608e-10
1.46608e-10
1.46608e-10
1.46608e-10
1.46608e-10
1.46608e-10
1.46608e-10
1.46608e-10
1.46608e-10
1.46608e-10
1.46608e-10
1.46608e-10
1.46608e-10
1.46608e-10
1.46608e-10
1.46608e-10
1.46608e-10
1.46608e-10
1.46608e-10
1.46608e-10
1.46608e-10
1.46608e-10
1.46608e-10
1.46608e-10
1.46608e-10
1.46608e-10
1.46608e-10
1.46608e-10
1.46608e-10
1.46608e-10
1.46608e-10
1.46608e-10
1.46608e-10
1.46608e-10
1.46608e-10
1.46608e-10
1.46608e-10
1.46608e-10
1.46608e-10
1.46608e-10
1.46608e-10
1.46608e-10
1.46608e-10
1.46608e-10
1.46608e-10
1.46608e-10
1.46608e-10
1.46608e-10
1.46608e-10
1.46608e-10
1.46608e-10
1.46608e-10
1.46608e-10
1.46608e-10
1.46608e-10
1.46608e-10
1.46608e-10
1.46608e-10
1.46608e-10
1.46608e-10
1.46608e-10
1.46608e-10
1.46608e-10
1.46608e-10
1.46608e-10
1.46608e-10
1.46608e-10
1.46608e-10
1.46608e-10
1.46608e-10
1.46608e-10
1.46608e-10
1.46608e-10
1.46608e-10
1.46608e-10
1.46608e-10
1.46608e-10
1.46608e-10
1.46608e-10
1.46608e-10
1.46608e-10
1.46608e-10
1.46608e-10
1.46608e-10
1.46608e-10
1.46608e-10
1.46608e-10
1.46608e-10
1.46608e-10
1.46608e-10
1.46608e-10
1.46608e-10
1.46608e-10
1.46608e-10
1.46608e-10
1.46608e-10
1.46608e-10
1.46608e-10
1.46608e-10
1.46608e-10
1.46608e-10
1.46608e-10
1.46608e-10
1.46608e-10
1.46608e-10
1.46608e-10
1.46608e-10
1.46608e-10
1.46608e-10
1.46608e-10
1.46608e-10
1.46608e-10
1.46608e-10
1.46608e-10
1.46608e-10
1.46608e-10
1.46608e-10
1.46608e-10
1.46608e-10
1.46608e-10
1.46608e-10
1.46608e-10
1.46608e-10
1.46608e-10
1.46608e-10
1.46608e-10
1.46608e-10
1.46608e-10
1.46608e-10
1.46608e-10
1.46608e-10
1.46608e-10
1.46608e-10
1.46608e-10
1.46608e-10
1.46608e-10
1.46608e-10
1.46608e-10
1.46608e-10
1.46608e-10
1.46608e-10
1.46608e-10
1.46608e-10
1.46608e-10
1.46608e-10
1.46608e-10
1.46608e-10
1.46608e-10
1.46608e-10
1.46608e-10
1.46608e-10
1.46608e-10
1.46608e-10
1.46608e-10
1.46608e-10
1.46608e-10
1.46608e-10
1.46608e-10
1.46608e-10
1.46608e-10
1.46608e-10
1.46608e-10
1.46608e-10
1.46608e-10
1.46608e-10
1.46608e-10
1.46608e-10
1.46608e-10
1.46608e-10
1.46608e-10
1.46608e-10
1.46608e-10
1.46608e-10
1.46608e-10
1.46608e-10
1.46608e-10
1.46608e-10
1.46608e-10
1.46608e-10
1.46608e-10
1.46608e-10
1.46608e-10
1.46608e-10
1.46608e-10
1.46608e-10
1.46608e-10
1.46608e-10
1.46608e-10
1.46608e-10
1.46608e-10
1.46608e-10
1.46608e-10
1.46608e-10
1.46608e-10
1.46608e-10
1.46608e-10
1.46608e-10
1.46608e-10
1.46608e-10
1.46608e-10
1.46608e-10
1.46608e-10
1.46608e-10
1.46608e-10
1.46608e-10
1.46608e-10
1.46608e-10
1.46608e-10
1.46608e-10
1.46608e-10

VECTORS velocity float
0.00562687 0.000167083 0.000283512
0.00597566 0.000176132 0.000300323
0.00590993 0.000500407 -0.000684647
0.00603276 0.000134741 0.000325695
0.0056173 0.00017458 0.000304355
0.00542641 -0.00015358 0.000302971
0.00549271 0.00024575 0.000236021
0.00586655 1.66261e-05 -9.31834e-05
0.00644151 0.00122563 -0.00095726
0.0054926 0.000206923 0.000254401
0.00602356 0.000275608 0.000255402
0.00565915 0.000394608 -0.000672821
0.00563603 0.000319008 0.000212337
0.00644626 0.000610564 -0.000559363
0.00589112 0.00018921 0.00028957
0.00639526 0.000613207 -0.000567563
0.00545522 0.000200713 0.000255364
0.00579481 -0.000283017 0.000372087
0.00549943 -0.000268095 -0.00105519
0.00562023 0.000173982 0.000280073
0.00585136 0.000221864 0.000271476
0.00577314 0.000561699 -0.000212382
0.00589336 -0.000298043 0.000382373
0.00551529 0.000350221 0.000187248
0.00542196 -0.000227427 0.000332896
0.00581437 -0.000715227 -0.0023065
0.00601247 0.000233126 0.000266457
0.00573395 4.90143e-05 -4.33046e-06
0.0059833 0.000180176 0.000300728
0.00580703 0.000213284 0.000271816
0.00583834 0.000203224 0.000277594
0.00543714 -0.000230504 0.000334729
0.00546289 0.000204847 0.000253862
0.00579587 0.000203342 0.000275908
0.00655719 0.00119512 -0.000948747
0.00551113 0.000346546 0.0001888
0.00586364 0.000151632 0.000305277
0.00632758 0.00126611 -0.000970745
0.0056145 0.000169624 0.000280037
0.00591001 0.00023869 0.000269191
0.00594044 0.000141928 0.000314168
0.00543289 -0.000230916 0.000334713
0.00576062 -0.000280425 0.000369459
0.00545512 0.000206227 0.000252546
0.00597695 0.000194325 0.0002963
0.00572698 -0.000277704 0.000366589
0.00600965 0.000194255 0.000269368
0.00599617 0.000196849 0.000284273
0.0056482 0.000418584 -0.0006997
0.00582813 -0.000287113 0.00037495
0.00560943 0.000154365 0.0002886
0.00591108 0.000663461 -0.000646338
0.00549533 0.000247775 0.000235307
0.00542751 -0.000229043 0.000333615
0.00550039 0.000246697 0.000235944
0.00555463 0.000232254 0.00024638
0.00561411 0.000164434 0.000285175
0.00598976 0.000119171 0.00032925
0.00600317 0.000198741 0.000291849
0.00586078 -0.000292702 0.000378888
0.00567448 0.000358398 -0.000401355
0.00573692 0.000347786 -0.000648855
0.00594075 0.000202567 0.000285813
0.00598286 0.000211158 0.000281378
0.00544833 0.000185503 0.0002621
0.0063843 0.00124641 -0.000964254
0.0063707 0.000618526 -0.000578813
0.00594277 0.000184188 0.000294771
0.00548937 0.000213759 0.00025145
0.00593473 0.000168546 0.000304184
0.00574845 0.000522808 -0.000311017
0.00644348 0.000110548 1.87003e-05
0.00595149 0.000427242 -0.000692059
0.00571575 0.000386045 -0.000659739
0.00616903 0.000169394 0.000317149
0.00578472 0.000389988 -0.000682239
0.00576582 0.000482908 -0.00031605
0.00567955 0.000295393 -0.00060815
0.00649899 0.00120861 -0.000952119
0.00601976 0.000374002 -0.000688043
0.00598543 0.000202774 0.000289953
0.00552891 0.000241288 0.000240873
0.00626979 0.000129095 0.000350006
0.00621489 0.000182113 0.00031016
0.00599508 9.58227e-05 0.00034024
0.005538 -0.000283039 -0.00164763
0.00608384 0.000101517 0.000342683
0.00626706 0.000107795 0.000348943
0.0062694 8.82938e-05 0.000362847
0.00620643 0.000148268 0.000321609
0.00617508 0.000105448 0.000347568
0.00555554 0.000434705 -0.000702917
0.00627636 0.000136513 0.000357345
0.00572318 0.000207045 -0.000574694
0.00584962 0.000118214 0.000320658
0.00564955 0.000342941 -0.000640705
4.34518e-15 1.04972e-14 8.29562e-14
9.7161e-23 4.86658e-23 1.23839e-22
0.00582839 0.000563249 -0.000223208
0.00580026 0.000405308 -0.000701161
0.00584213 0.000551162 -0.000188367
0.00602187 0.000388097 -0.000697478
0.00550813 0.000225868 0.000246461
0.00600218 0.000192001 0.000296584
0.00625078 6.31711e-05 0.00037084
0.0062894 -9.63039e-05 -0.000584141
0.00570559 0.000403237 -0.000685986
0.00620535 0.000449461 -0.000338935
0.00581156 0.000572026 -0.000198321
0.00597023 0.000143965 0.00031727
0.00552224 0.000224108 0.000248616
0.00553706 0.000178911 0.000275528
0.00578775 0.000605763 -0.000679466
0.00570371 0.000198655 0.000273065
0.00560988 -0.000102521 -0.000197305
0.00588538 0.000262799 -0.000478821
0.00628146 5.8516e-05 0.000376282
0.00581528 0.00041398 -0.000705182
0.00618514 0.00013723 0.000333153
0.00560309 6.20995e-05 -1.42764e-05
0.0059407 0.000207787 0.00028615
0.00559683 0.000434101 -0.000703582
0.00606417 0.000178256 0.000291144
0.00621481 0.000139575 0.000359992
0.00577807 0.000567331 -0.000207703
0.0056915 0.000474817 -0.000735639
0.00611648 0.00014473 0.000326193
0.0056026 0.000313333 0.000210225
0.00580618 0.000173205 0.000291307
0.00605175 -4.2067e-05 5.06915e-05
0.00592342 0.000548237 -0.000490605
0.0062432 -9.18498e-05 -0.0005892
0.00548843 0.000198048 0.00025856
0.00642004 7.60751e-05 0.000381209
0.00615062 0.000469461 -0.000771589
0.00581842 0.000571309 -0.000205395
0.00599112 0.000378396 -0.000701697
0.00577209 0.000571123 -0.000199971
0.00570999 0.000276398 -0.000593475
0.00585402 0.000549282 -0.000483536
0.00579653 0.000591984 -0.000202703
0.00630024 9.20501e-05 0.000364116
0.00575245 0.000256344 -0.000581558
0.00585351 0.000542462 -0.000181548
0.00546569 0.000352504 -0.000634406
0.00583318 0.000578718 -0.00019402
0.00575362 0.00053818 -0.000307303
0.00582897 0.00058107 -0.000195501
-3.82577e-14 8.17213e-14 2.95882e-13
0.00582909 0.000585861 -0.000244069
0.00605809 0.000165142 0.000313626
0.00579434 0.000559649 -0.000302778
0.00579093 0.000582268 -0.000208451
0.00618626 0.000459962 -0.00033579
0.00599447 0.00042266 -0.000327584
0.00564441 0.000209631 0.000263026
0.00576707 0.000256887 -0.000581153
0.00584423 0.000561354 -0.000208418
0.00620253 0.000489437 -0.000340087
0.00586359 0.000583444 -0.000186499
0.00566866 0.000199596 0.000269591
0.00590845 0.000513829 -0.000161411
0.00614404 0.000571486 0.000121944
0.00576617 0.00040867 -0.000363697
0.00558971 -0.00039491 4.76332e-05
0.00580195 0.000575423 -0.000200991
0.0062261 0.000457465 -0.000338357
0.00612235 0.000360108 -0.00032895
0.00622285 0.00046429 -0.000338321
0.00599003 0.00051678 -0.000113566
0.00544558 0.000192877 0.000258832
0.00579244 0.000559803 -0.000178162
0.00599828 0.000104017 0.000332848
0.00579108 0.000582587 -0.00020452
0.00582319 0.000609652 -0.000216904
0.00579761 0.000172195 0.000291057
0.00628062 0.000110557 0.000355786
0.00593669 0.00011985 0.000325167
0.00579795 -0.000519618 0.000233943
0.00619928 -9.09138e-05 -0.000580644
0.0058061 0.000529038 -0.000174013
0.00552272 0.000233073 0.000243636
0.00566215 0.000521818 -0.000287002
0.00611545 0.000392831 -0.000324716
0.00637236 0.000611804 -0.000566536
0.00602114 -0.0004341 0.000242516
0.00569883 -3.64629e-05 -0.00128169
0.00580256 0.000556519 -0.000219404
0.00572685 0.00056361 -0.000214597
0.00617084 0.000476096 -0.000335305
0.0058135 0.000537151 -0.000181022
0.00609627 0.000183669 0.000304046
0.0056734 0.000572263 -0.000189145
0.00624091 0.000462735 -0.000339248
0.00585121 0.000391236 -0.000318636
0.00566366 0.000485279 -0.000746151
0.00580072 0.000570728 -0.00020916
0.00569699 0.000353719 -0.000482512
0.00599845 0.000234705 0.00029656
0.00622629 9.3396e-05 0.000361312
0.00602016 0.000555624 -0.000242477
0.00560451 8.74552e-05 0.000319079
0.00621805 0.000127828 0.000358684
0.00568504 -0.000515304 0.000211072
0.00623631 0.000463006 -0.000337127
0.00543558 0.00022843 0.000240267
0.0061196 0.000469637 -0.000319784
0.00629666 0.000141052 0.000203614
0.0057644 0.000510629 -0.000299847
0.00551171 -0.000202964 0.000343848
0.00549064 0.000227315 0.000245048
0.00582 0.000561171 -0.00022498
0.0057689 0.000557959 -0.000208116
0.00605086 0.000159709 0.000297
0.00586555 0.000556893 -0.000193405
0.00557852 -0.000366422 9.97035e-05
0.00560979 -0.000410645 2.47323e-05
0.00573516 0.000648968 -0.000476282
0.00615968 0.000469181 -0.0003348
0.00557451 -0.000367734 9.6796e-05
0.00562576 0.000316386 -0.000619318
0.00565081 0.000585744 -0.000204971
0.00629315 0.00010096 0.000361907
0.00609531 0.000504757 -0.000331973
0.00614125 0.000472501 -0.000333724
0.00615501 0.000508091 -0.000335264
0.0054101 -0.000165191 0.00030865
0.00547645 -0.000173649 0.000317329
0.00550949 -0.000179677 0.000323489
0.00574251 0.000537021 -0.00017667
0.00566161 0.000510799 -0.000231116
0.00539923 -0.000162933 0.000306487
0.0055434 -0.000359018 9.48046e-05
0.00621843 0.000461598 -0.000338298
0.00619227 0.000481144 -0.000337221
0.00601858 -0.000425197 0.000242208
0.00587097 0.000499308 -0.000319073
0.00613821 6.2593e-05 0.000364836
0.0059721 -0.000412728 0.000240177
0.00554519 -0.000366511 0.000100281
0.00552536 -0.000362077 8.76974e-05
0.00567867 0.000549333 -0.000519915
0.00598249 0.000340275 -0.000326469
0.00616557 0.000436761 -0.000333463
0.00620636 0.000425138 -0.000332072
0.00594886 -0.000408086 0.000227725
0.00570526 0.000578416 -0.000206608
0.00611757 0.000444011 -0.000332392
0.00616631 0.000485777 -0.000335631
0.00551024 -0.000364399 8.11112e-05
0.00616905 0.000496612 -0.000335771
0.00590783 -0.000420517 0.000150771
0.00584333 0.000531195 -0.000172183
0.00614771 0.000461804 -0.000332963
0.00579682 0.000522347 -0.000245945
0.00617982 0.000368508 -0.000312496
0.00607397 0.000117449 0.000337264
0.00616635 0.000510484 -0.000287711
0.00589636 -0.000387663 0.000395331
0.00610527 0.000424933 -0.000330591
0.00592822 -0.000399427 0.000401799
0.00616378 0.000447946 -0.000334371
0.00621404 0.000582025 -0.000392298
0.00609458 0.000424949 -0.000330592
0.00621626 0.0004686 -0.000339479
0.00556234 -0.000359205 9.7667e-05
0.00593864 -0.000504265 0.000240562
0.00567645 0.000530418 -0.000177846
0.00552486 -0.00037878 0.000108132
0.00542719 -0.000166632 0.000310318
0.00614543 0.000460964 -0.00033426
0.00615771 0.000464411 -0.000335427
0.00615468 0.000474755 -0.000336265
0.00616361 0.000464789 -0.000334292
0.00612414 0.000429706 -0.00033161
0.00559954 0.000530113 -0.000174545
0.00579248 0.000529289 -0.000171711
0.00619112 0.000471446 -0.000338136
0.00561725 0.000312982 -0.000615456
0.00623587 0.000480177 -0.000338379
0.00607498 0.000424177 -0.000329467
0.00546317 -0.000501137 0.000190625
0.00612162 0.00053776 -0.000333767
0.00542897 0.000112418 0.000296194
0.0054974 -0.000176137 0.00032073
0.00599766 -0.000415072 0.000239591
0.00606799 0.000135827 0.000303892

VECTORS force float
-9.04017e-11 7.49828e-11 -2.96941e-11
6.31762e-10 -3.5871e-10 2.2236e-10
3.07497e-10 -3.59264e-11 5.10164e-10
1.25611e-10 1.10741e-10 -4.47757e-11
-7.4355e-11 -1.99987e-10 1.22825e-10
6.12035e-12 2.65414e-11 -1.0533e-11
-3.39376e-12 -2.58474e-11 1.69476e-11
-5.73163e-10 1.05229e-10 -9.64416e-10
1.0503e-12 3.57792e-13 -2.4548e-13
-7.6657e-11 -1.0692e-10 4.52321e-11
-2.11899e-10 -4.06849e-11 2.8782e-12
-3.4453e-10 4.98232e-10 1.49956e-10
4.7615e-11 1.57948e-10 -3.8853e-11
-2.92134e-11 -9.07624e-11 1.64021e-10
-1.03355e-10 8.03597e-11 -6.42433e-11
-1.06727e-10 -1.9993e-10 3.01426e-10
3.0929e-10 1.36006e-10 -4.08285e-11
1.07221e-12 -6.56175e-12 -4.45852e-12
-2.15639e-11 -1.07885e-10 -1.25828e-09
-1.18026e-10 1.0139e-10 -3.67516e-11
-3.19192e-11 -1.33405e-10 7.56292e-11
-1.36514e-10 -6.8388e-11 -7.16358e-11
-5.05912e-12 -2.78117e-11 1.18547e-11
7.1668e-13 -4.70903e-12 2.42541e-12
2.35037e-12 4.18456e-12 -1.31145e-12
-2.91258e-10 -6.20197e-11 -1.38722e-09
-5.43874e-11 -5.51917e-11 5.84595e-11
-1.47022e-09 -8.00302e-10 -8.26813e-10
4.09817e-10 -3.29506e-10 1.83995e-10
-4.41917e-12 -5.47189e-11 2.39815e-11
-2.65217e-11 -4.20202e-11 2.33175e-11
-1.37707e-12 2.1773e-12 -8.75505e-13
-1.04307e-10 -2.38649e-11 5.92692e-12
5.71251e-11 -2.47739e-12 6.02161e-12
7.48107e-13 3.14542e-13 -2.1169e-13
2.90983e-11 2.20098e-11 -8.73637e-12
-1.39107e-10 7.67687e-11 -4.56412e-11
1.42712e-12 6.63083e-13 -4.21008e-13
-4.89729e-11 -1.25593e-10 5.29446e-11
5.59526e-11 2.73404e-10 -1.38341e-10
1.02546e-10 8.01964e-11 -5.09813e-12
1.23887e-11 3.51022e-12 -1.50291e-12
6.60669e-13 -3.16839e-12 2.14104e-12
-2.01223e-10 -1.52087e-10 5.88214e-11
2.92724e-10 3.35735e-10 -1.30079e-10
6.30834e-13 2.27546e-12 1.40598e-12
-4.74695e-11 -3.3874e-10 1.47226e-10
-3.59033e-11 -2.40543e-10 -1.23895e-11
3.16237e-10 -1.35348e-12 -3.06937e-10
3.62381e-13 8.34965e-13 1.4591e-12
-1.16598e-10 -2.26148e-10 4.92664e-10
2.15324e-10 -2.24523e-10 2.00107e-10
6.42565e-11 3.71693e-11 -1.73871e-11
-1.01932e-11 4.86665e-12 -2.51837e-12
6.07818e-11 -2.56967e-10 1.36466e-10
-2.0012e-11 -1.67547e-10 8.06801e-11
6.15944e-11 -5.13504e-11 4.9219e-11
4.2176e-10 -1.11506e-10 7.73887e-11
2.42256e-10 -2.50315e-10 1.09258e-10
-1.22931e-12 -5.64402e-12 3.37943e-12
3.20378e-10 -4.22349e-10 -2.69155e-11
6.74031e-11 2.91214e-10 -2.59489e-10