# vtk DataFile Version 3.0
LIGGGHTS particles timestep 35200000
ASCII
DATASET POLYDATA
POINTS 271 float
0.217674 0.0152887 0.00889695
0.218521 0.017823 0.00708791
0.212689 0.0178009 0.00707386
0.218605 0.0177108 0.00710697
0.217654 0.0152132 0.00895936
0.224176 0.0171459 0.00747884
0.217751 0.0155904 0.00864615
0.217634 0.015138 0.00902244
0.224295 0.0175958 0.00710035
0.218231 0.0173067 0.00719359
0.218365 0.0175221 0.00712463
0.211792 0.0157436 0.0085181
0.217578 0.0150137 0.00927967
0.212463 0.0184266 0.00690105
0.218618 0.0176126 0.00712134
0.212562 0.0184619 0.00687573
0.21862 0.017809 0.00709363
0.217614 0.0150689 0.00909172
0.218195 0.0171563 0.00732037
0.218406 0.0173597 0.00714912
0.21203 0.0162218 0.00798754
0.224369 0.0179595 0.00698788
0.217812 0.0158145 0.00845627
0.224258 0.0174455 0.007227
0.212769 0.0181764 0.00695634
0.218518 0.0176267 0.00711558
0.217771 0.0156653 0.00858281
0.218309 0.0175485 0.00720299
0.217834 0.0158891 0.00839314
0.218306 0.0168984 0.00752545
0.224197 0.0172208 0.00741599
0.217732 0.0155153 0.00870919
0.218488 0.0171861 0.00727484
0.224349 0.0178615 0.00699176
0.21839 0.0180651 0.00704873
0.218546 0.018401 0.0070071
0.224389 0.0180574 0.00698594
0.21865 0.0179039 0.00708135
0.321436 0.0173475 0.00552525
0.218506 0.017725 0.00710124
0.224218 0.0172956 0.00735314
0.217693 0.0153642 0.00883446
0.21852 0.0182963 0.00702091
0.217881 0.016037 0.00826749
0.217855 0.015964 0.0083304
0.211712 0.0154957 0.00882151
0.224329 0.0177647 0.00700649
0.218438 0.0179964 0.00712916
0.211653 0.0153097 0.00904911
0.21841 0.0181622 0.00703574
0.224239 0.0173704 0.00729029
0.218399 0.0172775 0.00720569
0.218164 0.0167252 0.00767874
0.218667 0.0180772 0.00705745
0.218654 0.0175186 0.00713599
0.224409 0.0181554 0.006984
0.211977 0.0163396 0.00787211
0.211633 0.0152477 0.00912498
0.218444 0.0179023 0.00707381
0.218349 0.0170477 0.00739913
0.21845 0.0180951 0.00713994
0.224275 0.0175208 0.00716346
0.211696 0.0154353 0.00889971
0.218331 0.0177801 0.00708684
0.218451 0.0183693 0.00701478
0.218507 0.018198 0.00703434
0.212694 0.0182397 0.00693943
0.2185 0.0172631 0.00721217
0.212443 0.0183303 0.00691983
0.211751 0.0156196 0.00866981
0.218611 0.0179948 0.00706701
0.212584 0.0185641 0.0069039
0.211812 0.0158059 0.00844249
0.212505 0.0181786 0.00696426
0.22431 0.0176713 0.00703643
0.212709 0.0178943 0.00704461
0.21871 0.0179839 0.00707229
0.218622 0.0183373 0.00701899
0.218046 0.0166345 0.00776238
0.218602 0.0182403 0.00703193
0.218386 0.017619 0.0071117
0.21275 0.0180822 0.00698577
0.218488 0.0181008 0.00704737
0.217919 0.0161878 0.00814158
0.218347 0.017437 0.00717409
0.218311 0.0172539 0.00724498
0.21794 0.0162617 0.00807769
0.212094 0.0164409 0.00779266
0.218456 0.0175558 0.00714903
0.212201 0.0168059 0.00746844
0.218582 0.0181333 0.00704634
0.211771 0.0156817 0.00859391
0.0643568 0.0187248 0.00531097
0.24257 0.0191927 0.00520306
0.212404 0.017711 0.00711061
0.212825 0.0180179 0.00700303
0.212649 0.0176128 0.00713272
0.212629 0.0175183 0.00716227
0.218417 0.0181889 0.00713187
0.218639 0.0174204 0.00714931
0.217961 0.0163362 0.00801457
0.218291 0.0171728 0.00730015
0.212465 0.0179915 0.0070228
0.212062 0.0166317 0.00761241
0.212425 0.0182366 0.00694912
0.218555 0.0175361 0.00713565
0.218417 0.0179013 0.00717012
0.21849 0.0185628 0.0069821
0.212269 0.0174945 0.00718128
0.218504 0.0173449 0.00715492
0.217791 0.01574 0.00851955
0.217713 0.0154398 0.00877191
0.218249 0.0170234 0.00742629
0.212228 0.0173076 0.0072398
0.21827 0.017098 0.00736315
0.218566 0.0184983 0.00699407
0.218188 0.0167991 0.00761596
0.212845 0.0181127 0.00697339
0.218228 0.0169488 0.00748945
0.21829 0.0175868 0.00711263
0.212669 0.0177072 0.00710316
0.218407 0.017716 0.00709876
0.218248 0.0173888 0.00713907
0.218207 0.0168742 0.00755257
0.217595 0.0150323 0.00918286
0.212482 0.0185223 0.00687903
0.217903 0.0161116 0.00820434
0.218357 0.0177848 0.00718329
0.218445 0.0174576 0.00716402
0.212486 0.0180849 0.00699356
0.212208 0.0172142 0.00726903
0.211673 0.0153717 0.00897318
0.212329 0.0177748 0.00709352
0.212543 0.0183668 0.00690794
0.212297 0.0168331 0.00745498
0.218067 0.0167089 0.00769909
0.0100679 0.0201683 0.00551526
0.212168 0.0170288 0.00733265
0.21252 0.0187155 0.00691424
0.212289 0.0175879 0.00715203
0.212493 0.0173019 0.00723293
0.21244 0.0178993 0.00705185
0.0219312 0.0187687 0.00551176
0.212675 0.0181459 0.00696872
0.218677 0.0181757 0.0070439
0.21231 0.0176813 0.00712278
0.212604 0.0186617 0.00691155
0.212157 0.01666 0.00759792
0.212499 0.0177411 0.00709831
0.21843 0.0182603 0.00704578
0.212223 0.0168904 0.00741922
0.212656 0.0184961 0.00688768
0.212574 0.017677 0.0071155
0.218301 0.0176482 0.00720112
0.212479 0.0176468 0.00712782
0.218552 0.0179181 0.00709173
0.212513 0.0173953 0.00720367
0.206163 0.0170251 0.00739271
0.212337 0.016992 0.00733281
0.212263 0.0170565 0.00731548
0.212344 0.0174304 0.00719846
0.212618 0.0183028 0.00692264
0.218269 0.0174858 0.00712612
0.212554 0.0175826 0.00714504
0.218325 0.0173453 0.00720721
0.212148 0.0169434 0.00738056
0.218173 0.0170817 0.00738351
0.218327 0.0169731 0.00746228
0.218426 0.0178127 0.00711599
0.206437 0.018309 0.00709941
0.21837 0.0171223 0.00733599
0.212459 0.017553 0.00715719
0.21854 0.0174375 0.0071432
0.161461 0.0182058 0.00533758
0.212656 0.0180519 0.00699813
0.212051 0.0162948 0.00792253
0.206219 0.0172591 0.00721338
0.212501 0.018619 0.00689665
0.212406 0.0181429 0.00697841
0.212041 0.0165587 0.00767732
0.212541 0.0179337 0.00705325
0.217982 0.0164109 0.00795142
0.211735 0.0155571 0.0087461
0.212613 0.0178648 0.00705675
0.212115 0.016514 0.00772774
0.212244 0.0169688 0.0073595
0.212424 0.0178048 0.00708128
0.209086 0.016962 0.00732679
0.218212 0.0172316 0.00725691
0.218152 0.0170071 0.00744666
0.212562 0.0180273 0.00702464
0.21837 0.017968 0.00706172
0.218092 0.0167833 0.00763689
0.206417 0.018211 0.00709501
0.212518 0.0178377 0.00706817
0.218471 0.0184654 0.00699514
0.211835 0.0158671 0.00836677
0.218031 0.0165587 0.00782583
0.212634 0.0179587 0.00702735
0.272209 0.0172212 0.00718573
0.218512 0.0180047 0.00706186
0.212384 0.0176172 0.00713996
0.0529003 0.0171737 0.00807805
0.218388 0.0171974 0.00727262
0.212188 0.0171207 0.00729829
0.206358 0.0179171 0.0070877
0.206183 0.0171022 0.007332
0.212599 0.0182091 0.00695186
0.211998 0.0164126 0.00780716
0.206142 0.0169484 0.00745323
0.212388 0.0180554 0.00702356
0.218311 0.0176846 0.00710847
0.212594 0.0177712 0.00708603
0.211956 0.0162666 0.007937
0.211914 0.0161297 0.00807676
0.20597 0.016335 0.00793695
0.205991 0.0164117 0.00787648
0.206056 0.0166417 0.00769506
0.212248 0.017401 0.00721053
0.206013 0.0164883 0.007816
0.20612 0.0168718 0.00751365
0.212788 0.0182705 0.00692691
0.21202 0.0164857 0.00774224
0.206398 0.018113 0.00709059
0.212317 0.0169075 0.00738866
0.218005 0.0164852 0.00788847
0.206257 0.0174282 0.00711393
0.206456 0.018407 0.00710387
0.206099 0.0167951 0.00757412
0.21235 0.0178725 0.00708677
0.212439 0.0174596 0.00718643
0.212398 0.0172727 0.00724494
0.212303 0.0172435 0.00725696
0.206278 0.0175259 0.00710733
0.212105 0.0167778 0.00748255
0.211894 0.0160584 0.0081439
0.206077 0.0167184 0.0076346
0.212539 0.0188121 0.00693184
0.206202 0.0171792 0.00727103
0.212364 0.0175238 0.00716921
0.212073 0.0163678 0.00785773
0.212083 0.0167047 0.00754751
0.212378 0.0171792 0.00727419
0.21811 0.016858 0.00757293
0.212637 0.0183994 0.0069052
0.206318 0.0177214 0.00709392
0.211852 0.0159298 0.00829096
0.206298 0.0176236 0.00710062
0.212136 0.016587 0.00766282
0.212126 0.0168649 0.00743863
0.212323 0.0173369 0.00722771
0.212713 0.0183343 0.00690986
0.206338 0.0178192 0.00708928
0.205948 0.0162583 0.00799742
0.212181 0.0167327 0.00753365
0.212534 0.0174887 0.00717442
0.21258 0.0181154 0.00698115
0.212418 0.0173661 0.00721568
0.212358 0.0170858 0.00730345
0.21201 0.0161487 0.00805257
0.212524 0.0182724 0.00693499
0.212283 0.01715 0.00728622
0.21237 0.017969 0.00707071
0.21273 0.0179876 0.00701539
0.211873 0.0159913 0.00821479
0.206378 0.0180151 0.00708605
0.211935 0.0161967 0.0080054
0.218351 0.0178773 0.00709938
0.206034 0.016565 0.00775553
0.206238 0.0173429 0.00716254
0.218131 0.0169326 0.00750977

VERTICES 271 542
1 0
1 1
1 2
1 3
1 4
1 5
1 6
1 7
1 8
1 9
1 10
1 11
1 12
1 13
1 14
1 15
1 16
1 17
1 18
1 19
1 20
1 21
1 22
1 23
1 24
1 25
1 26
1 27
1 28
1 29
1 30
1 31
1 32
1 33
1 34
1 35
1 36
1 37
1 38
1 39
1 40
1 41
1 42
1 43
1 44
1 45
1 46
1 47
1 48
1 49
1 50
1 51
1 52
1 53
1 54
1 55
1 56
1 57
1 58
1 59
1 60
1 61
1 62
1 63
1 64
1 65
1 66
1 67
1 68
1 69
1 70
1 71
1 72
1 73
1 74
1 75
1 76
1 77
1 78
1 79
1 80
1 81
1 82
1 83
1 84
1 85
1 86
1 87
1 88
1 89
1 90
1 91
1 92
1 93
1 94
1 95
1 96
1 97
1 98
1 99
1 100
1 101
1 102
1 103
1 104
1 105
1 106
1 107
1 108
1 109
1 110
1 111
1 112
1 113
1 114
1 115
1 116
1 117
1 118
1 119
1 120
1 121
1 122
1 123
1 124
1 125
1 126
1 127
1 128
1 129
1 130
1 131
1 132
1 133
1 134
1 135
1 136
1 137
1 138
1 139
1 140
1 141
1 142
1 143
1 144
1 145
1 146
1 147
1 148
1 149
1 150
1 151
1 152
1 153
1 154
1 155
1 156
1 157
1 158
1 159
1 160
1 161
1 162
1 163
1 164
1 165
1 166
1 167
1 168
1 169
1 170
1 171
1 172
1 173
1 174
1 175
1 176
1 177
1 178
1 179
1 180
1 181
1 182
1 183
1 184
1 185
1 186
1 187
1 188
1 189
1 190
1 191
1 192
1 193
1 194
1 195
1 196
1 197
1 198
1 199
1 200
1 201
1 202
1 203
1 204
1 205
1 206
1 207
1 208
1 209
1 210
1 211
1 212
1 213
1 214
1 215
1 216
1 217
1 218
1 219
1 220
1 221
1 222
1 223
1 224
1 225
1 226
1 227
1 228
1 229
1 230
1 231
1 232
1 233
1 234
1 235
1 236
1 237
1 238
1 239
1 240
1 241
1 242
1 243
1 244
1 245
1 246
1 247
1 248
1 249
1 250
1 251
1 252
1 253
1 254
1 255
1 256
1 257
1 258
1 259
1 260
1 261
1 262
1 263
1 264
1 265
1 266
1 267
1 268
1 269
1 270

POINT_DATA 271
SCALARS id int 1
LOOKUP_TABLE default
1
2
3
4
5
6
7
8
9
10
11
12
13
14
15
16
17
19
21
22
23
24
25
26
27
28
29
30
31
32
33
34
35
36
37
38
39
41
42
44
45
47
48
50
51
52
53
54
55
56
57
59
61
62
63
64
65
66
67
68
69
70
71
72
73
74
76
77
78
79
80
81
82
83
84
85
86
87
88
89
90
91
92
93
94
95
96
97
98
99
100
101
102
103
104
105
106
107
108
109
110
111
112
113
114
115
116
117
118
119
120
121
122
123
124
125
126
127
128
129
131
132
133
134
135
136
137
138
140
141
142
143
144
147
148
149
150
151
153
154
155
156
157
158
159
160
162
164
165
166
168
169
170
171
172
173
174
175
177
178
179
181
182
183
184
186
187
188
189
190
191
192
193
194
195
196
197
198
199
201
202
203
204
205
206
207
208
209
210
211
212
213
214
215
216
217
218
219
220
221
222
223
224
225
226
227
228
229
230
231
232
234
235
236
237
239
240
241
242
244
246
247
248
249
250
251
252
253
254
255
256
257
258
259
261
262
263
264
265
266
267
268
269
270
271
272
273
274
275
276
277
278
280
283
284
285
286
287
288
289
290
291
292
293
294
295
296
297
298
299
300

SCALARS type int 1
LOOKUP_TABLE default
1
1
1
1
1
1
1
1
1
1
1
1
1
1
1
1
1
1
1
1
1
1
1
1
1
1
1
1
1
1
1
1
1
1
1
1
1
1
1
1
1
1
1
1
1
1
1
1
1
1
1
1
1
1
1
1
1
1
1
1
1
1
1
1
1
1
1
1
1
1
1
1
1
1
1
1
1
1
1
1
1
1
1
1
1
1
1
1
1
1
1
1
1
1
1
1
1
1
1
1
1
1
1
1
1
1
1
1
1
1
1
1
1
1
1
1
1
1
1
1
1
1
1
1
1
1
1
1
1
1
1
1
1
1
1
1
1
1
1
1
1
1
1
1
1
1
1
1
1
1
1
1
1
1
1
1
1
1
1
1
1
1
1
1
1
1
1
1
1
1
1
1
1
1
1
1
1
1
1
1
1
1
1
1
1
1
1
1
1
1
1
1
1
1
1
1
1
1
1
1
1
1
1
1
1
1
1
1
1
1
1
1
1
1
1
1
1
1
1
1
1
1
1
1
1
1
1
1
1
1
1
1
1
1
1
1
1
1
1
1
1
1
1
1
1
1
1
1
1
1
1
1
1
1
1
1
1
1
1
1
1
1
1
1
1
1
1
1
1
1
1

SCALARS radius float 1
LOOKUP_TABLE default
5e-05
5e-05
5e-05
5e-05
5e-05
5e-05
5e-05
5e-05
5e-05
5e-05
5e-05
5e-05
5e-05
5e-05
5e-05
5e-05
5e-05
5e-05
5e-05
5e-05
5e-05
5e-05
5e-05
5e-05
5e-05
5e-05
5e-05
5e-05
5e-05
5e-05
5e-05
5e-05
5e-05
5e-05
5e-05
5e-05
5e-05
5e-05
5e-05
5e-05
5e-05
5e-05
5e-05
5e-05
5e-05
5e-05
5e-05
5e-05
5e-05
5e-05
5e-05
5e-05
5e-05
5e-05
5e-05
5e-05
5e-05
5e-05
5e-05
5e-05
5e-05
5e-05
5e-05
5e-05
5e-05
5e-05
5e-05
5e-05
5e-05
5e-05
5e-05
5e-05
5e-05
5e-05
5e-05
5e-05
5e-05
5e-05
5e-05
5e-05
5e-05
5e-05
5e-05
5e-05
5e-05
5e-05
5e-05
5e-05
5e-05
5e-05
5e-05
5e-05
5e-05
5e-05
5e-05
5e-05
5e-05
5e-05
5e-05
5e-05
5e-05
5e-05
5e-05
5e-05
5e-05
5e-05
5e-05
5e-05
5e-05
5e-05
5e-05
5e-05
5e-05
5e-05
5e-05
5e-05
5e-05
5e-05
5e-05
5e-05
5e-05
5e-05
5e-05
5e-05
5e-05
5e-05
5e-05
5e-05
5e-05
5e-05
5e-05
5e-05
5e-05
5e-05
5e-05
5e-05
5e-05
5e-05
5e-05
5e-05
5e-05
5e-05
5e-05
5e-05
5e-05
5e-05
5e-05
5e-05
5e-05
5e-05
5e-05
5e-05
5e-05
5e-05
5e-05
5e-05
5e-05
5e-05
5e-05
5e-05
5e-05
5e-05
5e-05
5e-05
5e-05
5e-05
5e-05
5e-05
5e-05
5e-05
5e-05
5e-05
5e-05
5e-05
5e-05
5e-05
5e-05
5e-05
5e-05
5e-05
5e-05
5e-05
5e-05
5e-05
5e-05
5e-05
5e-05
5e-05
5e-05
5e-05
5e-05
5e-05
5e-05
5e-05
5e-05
5e-05
5e-05
5e-05
5e-05
5e-05
5e-05
5e-05
5e-05
5e-05
5e-05
5e-05
5e-05
5e-05
5e-05
5e-05
5e-05
5e-05
5e-05
5e-05
5e-05
5e-05
5e-05
5e-05
5e-05
5e-05
5e-05
5e-05
5e-05
5e-05
5e-05
5e-05
5e-05
5e-05
5e-05
5e-05
5e-05
5e-05
5e-05
5e-05
5e-05
5e-05
5e-05
5e-05
5e-05
5e-05
5e-05
5e-05
5e-05
5e-05
5e-05
5e-05
5e-05
5e-05
5e-05
5e-05
5e-05
5e-05
5e-05
5e-05
5e-05
5e-05
5e-05
5e-05
5e-05
5e-05
5e-05
5e-05
5e-05
5e-05
5e-05
5e-05
5e-05
5e-05
5e-05
5e-05
5e-05

SCALARS mass float 1
LOOKUP_TABLE default
1.46608e-10
1.46608e-10
1.46608e-10
1.46608e-10
1.46608e-10
1.46608e-10
1.46608e-10
1.46608e-10
1.46608e-10
1.46608e-10
1.46608e-10
1.46608e-10
1.46608e-10
1.46608e-10
1.46608e-10
1.46608e-10
1.46608e-10
1.46608e-10
1.46608e-10
1.46608e-10
1.46608e-10
1.46608e-10
1.46608e-10
1.46608e-10
1.46608e-10
1.46608e-10
1.46608e-10
1.46608e-10
1.46608e-10
1.46608e-10
1.46608e-10
1.46608e-10
1.46608e-10
1.46608e-10
1.46608e-10
1.46608e-10
1.46608e-10
1.46608e-10
1.46608e-10
1.46608e-10
1.46608e-10
1.46608e-10
1.46608e-10
1.46608e-10
1.46608e-10
1.46608e-10
1.46608e-10
1.46608e-10
1.46608e-10
1.46608e-10
1.46608e-10
1.46608e-10
1.46608e-10
1.46608e-10
1.46608e-10
1.46608e-10
1.46608e-10
1.46608e-10
1.46608e-10
1.46608e-10
1.46608e-10
1.46608e-10
1.46608e-10
1.46608e-10
1.46608e-10
1.46608e-10
1.46608e-10
1.46608e-10
1.46608e-10
1.46608e-10
1.46608e-10
1.46608e-10
1.46608e-10
1.46608e-10
1.46608e-10
1.46608e-10
1.46608e-10
1.46608e-10
1.46608e-10
1.46608e-10
1.46608e-10
1.46608e-10
1.46608e-10
1.46608e-10
1.46608e-10
1.46608e-10
1.46608e-10
1.46608e-10
1.46608e-10
1.46608e-10
1.46608e-10
1.46608e-10
1.46608e-10
1.46608e-10
1.46608e-10
1.46608e-10
1.46608e-10
1.46608e-10
1.46608e-10
1.46608e-10
1.46608e-10
1.46608e-10
1.46608e-10
1.46608e-10
1.46608e-10
1.46608e-10
1.46608e-10
1.46608e-10
1.46608e-10
1.46608e-10
1.46608e-10
1.46608e-10
1.46608e-10
1.46608e-10
1.46608e-10
1.46608e-10
1.46608e-10
1.46608e-10
1.46608e-10
1.46608e-10
1.46608e-10
1.46608e-10
1.46608e-10
1.46608e-10
1.46608e-10
1.46608e-10
1.46608e-10
1.46608e-10
1.46608e-10
1.46608e-10
1.46608e-10
1.46608e-10
1.46608e-10
1.46608e-10
1.46608e-10
1.46608e-10
1.46608e-10
1.46608e-10
1.46608e-10
1.46608e-10
1.46608e-10
1.46608e-10
1.46608e-10
1.46608e-10
1.46608e-10
1.46608e-10
1.46608e-10
1.46608e-10
1.46608e-10
1.46608e-10
1.46608e-10
1.46608e-10
1.46608e-10
1.46608e-10
1.46608e-10
1.46608e-10
1.46608e-10
1.46608e-10
1.46608e-10
1.46608e-10
1.46608e-10
1.46608e-10
1.46608e-10
1.46608e-10
1.46608e-10
1.46608e-10
1.46608e-10
1.46608e-10
1.46608e-10
1.46608e-10
1.46608e-10
1.46608e-10
1.46608e-10
1.46608e-10
1.46608e-10
1.46608e-10
1.46608e-10
1.46608e-10
1.46608e-10
1.46608e-10
1.46608e-10
1.46608e-10
1.46608e-10
1.46608e-10
1.46608e-10
1.46608e-10
1.46608e-10
1.46608e-10
1.46608e-10
1.46608e-10
1.46608e-10
1.46608e-10
1.46608e-10
1.46608e-10
1.46608e-10
1.46608e-10
1.46608e-10
1.46608e-10
1.46608e-10
1.46608e-10
1.46608e-10
1.46608e-10
1.46608e-10
1.46608e-10
1.46608e-10
1.46608e-10
1.46608e-10
1.46608e-10
1.46608e-10
1.46608e-10
1.46608e-10
1.46608e-10
1.46608e-10
1.46608e-10
1.46608e-10
1.46608e-10
1.46608e-10
1.46608e-10
1.46608e-10
1.46608e-10
1.46608e-10
1.46608e-10
1.46608e-10
1.46608e-10
1.46608e-10
1.46608e-10
1.46608e-10
1.46608e-10
1.46608e-10
1.46608e-10
1.46608e-10
1.46608e-10
1.46608e-10
1.46608e-10
1.46608e-10
1.46608e-10
1.46608e-10
1.46608e-10
1.46608e-10
1.46608e-10
1.46608e-10
1.46608e-10
1.46608e-10
1.46608e-10
1.46608e-10
1.46608e-10
1.46608e-10
1.46608e-10
1.46608e-10
1.46608e-10
1.46608e-10
1.46608e-10
1.46608e-10
1.46608e-10
1.46608e-10
1.46608e-10
1.46608e-10
1.46608e-10
1.46608e-10
1.46608e-10
1.46608e-10
1.46608e-10
1.46608e-10
1.46608e-10
1.46608e-10
1.46608e-10
1.46608e-10
1.46608e-10
1.46608e-10
1.46608e-10
1.46608e-10

VECTORS velocity float
0.00555928 -0.000508059 0.000126397
0.00567252 -0.000321951 0.000258159
0.00567129 -0.000181343 -0.000129873
0.00568099 -0.000345736 0.000264624
0.00557693 -0.000524905 0.000114122
0.00611851 0.000433302 0.000106716
0.0053543 -0.000498364 0.000106993
0.00560539 -0.00063345 -1.36981e-06
0.00593461 0.00048399 4.85734e-05
0.00564844 -0.000639629 0.000163469
0.00569752 -0.000390012 0.000284701
0.005643 -0.000292745 -5.55801e-06
0.00559748 0.000141216 0.000265234
0.00559635 -2.94235e-05 0.000237984
0.00561367 -0.000348061 0.000261455
0.00545568 -0.00024894 -0.000113587
0.0056827 -0.000211747 0.000245229
0.00558799 -0.000729179 -9.60674e-05
0.00562502 -0.000502592 9.45604e-06
0.00559887 -0.000386184 0.000266617
0.0060667 0.000344903 0.000424582
0.00573373 0.000434694 9.5384e-05
0.0055402 -0.000583104 8.44562e-05
0.00591413 0.000495413 3.76279e-05
0.00544108 -6.62016e-05 -0.000153156
0.00566999 -0.000335889 0.000262065
0.00536507 -0.000533749 8.63377e-05
0.00573009 -0.000337809 0.000295519
0.0056 -0.00058099 9.13654e-05
0.00603131 -0.000478014 -3.53619e-05
0.00614326 0.000439229 0.000106098
0.00540071 -0.000489023 0.000111421
0.00564642 -0.000539526 4.2769e-05
0.00573169 0.000422166 -0.000274943
0.00553943 -0.000317887 0.00025321
0.00536402 -0.000469438 0.000268425
0.00573377 0.000429147 9.68498e-05
0.00560216 -0.000158679 0.000234305
4.54286e-16 2.25533e-15 8.46361e-14
0.00570448 -0.000334877 0.000262017
0.00618511 0.000450169 0.000102164
0.00552991 -0.000502087 0.000123225
0.00540166 -0.000413981 0.000262451
0.00566632 -0.000580968 7.64671e-05
0.00564742 -0.000580383 8.78889e-05
0.00539167 -0.000311915 6.16548e-05
0.00576233 0.000408787 -0.000289671
0.00561579 -0.000319443 0.000254372
0.00547546 -0.000325096 1.54052e-05
0.00554475 -0.00031963 0.000256589
0.00622369 0.000455872 9.75569e-05
0.00548184 -0.000509929 3.59641e-05
0.00597052 -0.000617454 7.9269e-05
0.00558086 -0.000330404 0.000257116
0.00559424 -0.000423015 0.000268153
0.0057365 0.00042466 9.69803e-05
0.00610823 0.00037609 0.000404349
0.00546769 -0.000307602 3.50211e-05
0.00569824 -0.000286976 0.000243006
0.0058849 -0.000484064 -2.04295e-05
0.00557109 -0.000334828 0.000251047
0.00586194 0.000501347 2.77394e-05
0.00531108 -0.000281555 7.89264e-05
0.00573535 -0.000378457 0.000264245
0.00535867 -0.000480926 0.000261585
0.00547098 -0.000362151 0.000263952
0.00538944 -0.000119213 -0.000149831
0.00550637 -0.00050803 3.59484e-05
0.00559205 -0.000108626 -1.2809e-05
0.00553568 -0.000333292 4.60914e-05
0.0055753 -0.00030646 0.000253084
0.00564513 2.45426e-05 0.000420701
0.00563092 -0.000266033 -4.4016e-05
0.00558706 -0.000198965 -0.00013226
0.00598836 0.00047433 6.43008e-05
0.0057112 -0.000173538 -0.000133117
0.00557686 -0.000183933 0.000235946
0.00537929 -0.000419436 0.000262214
0.00592228 -0.000596206 7.06445e-05
0.00543838 -0.000405088 0.000262095
0.00574378 -0.000398141 0.00027072
0.0056033 -8.06192e-05 -0.000155658
0.00555301 -0.000331302 0.000254716
0.0057185 -0.000579859 6.91371e-05
0.00563464 -0.000374103 0.000289953
0.0055485 -0.00041795 0.000144355
0.00571957 -0.000574024 6.54775e-05
0.00615649 0.000321578 0.00045781
0.00571594 -0.000406301 0.000194166
0.00627668 0.00026029 0.000546795
0.00554055 -0.00026529 0.000244146
0.00563268 -0.000315618 2.24262e-05
4.55554e-15 1.04191e-14 8.29553e-14
-7.91558e-23 4.86658e-23 1.23839e-22
0.00552691 -0.000235505 -9.76267e-05
0.00567595 1.01499e-05 -0.000189056
0.00549805 -0.000287952 -9.14557e-05
0.00567758 6.88754e-05 -0.000205904
0.00551705 -0.000346474 0.000269255
0.00562366 -0.000375562 0.000265094
0.0057825 -0.00058427 6.86738e-05
0.00566228 -0.000510705 6.66375e-05
0.00565905 -0.000338333 -8.07151e-05
0.00619804 0.000286765 0.000489414
0.00555505 -0.000175674 -0.000133659
0.00561359 -0.000366549 0.000202147
0.00573316 -0.000275224 0.000229704
0.00539556 -0.000479587 0.000271281
0.0057398 -0.000174917 -0.000134561
0.00560443 -0.000360928 0.000259512
0.00543811 -0.000572084 6.97975e-05
0.00548439 -0.000502295 0.000110838
0.00597186 -0.000587076 6.77675e-05
0.00566682 -8.24789e-05 -0.000157627
0.00583455 -0.000569576 4.99969e-05
0.00539011 -0.000477356 0.00027047
0.00599282 -0.000616672 7.62603e-05
0.00552404 8.89369e-06 -0.000178165
0.0059729 -0.000591198 6.35325e-05
0.00573978 -0.000365921 0.000273759
0.00570186 -0.000136979 -0.000143802
0.00572373 -0.000368524 0.000265387
0.00576011 -0.000508804 0.000297738
0.0059964 -0.000606988 7.13526e-05
0.005618 0.000141895 0.000263188
0.00569575 8.16306e-05 0.000451992
0.00570229 -0.000581907 7.23381e-05
0.00570901 -0.000408807 0.000265366
0.00562834 -0.000394835 0.000250947
0.0056698 -0.000240444 -0.000111061
0.00573887 -8.00588e-05 -0.000166853
0.00534988 -0.000311884 3.57198e-05
0.005525 -0.000224076 -8.45553e-05
0.00577295 -0.000519577 -0.00287191
0.00626366 0.000224475 0.000572148
0.00593762 -0.000595271 6.42187e-05
8.38441e-15 1.24936e-15 -8.48743e-14
0.00578439 -0.000108177 -0.000172777
0.00562021 2.63607e-05 0.000424806
0.0056878 -0.000225878 -0.000117268
0.00584314 -9.39602e-05 -0.000160545
0.00553813 -0.000411809 -5.30663e-05
-3.83989e-14 8.1644e-14 2.95885e-13
0.00549824 -0.000160724 -0.000128471
0.00551953 -0.000333238 0.000254852
0.00557356 -0.000231033 -0.000108528
0.00562368 3.05523e-05 0.000428573
0.00620714 0.000257162 0.000520226
0.00562171 -0.000214692 -0.000111435
0.00536724 -0.000417888 0.000249721
0.00624536 6.59738e-05 0.000266131
0.00565503 1.77141e-06 0.000433652
0.00562689 -0.000182775 -0.000127459
0.00574443 -0.000343275 0.000267582
0.00564172 -8.4385e-05 -0.000158434
0.00560546 -0.000305542 0.000255994
0.00586212 -3.1422e-05 -0.00018055
0.00591989 -0.000956998 0.000972519
0.00590758 0.000112261 -0.000219185
0.00577586 -1.3526e-05 -0.000140617
0.00574763 -0.000152526 -0.000140326
0.00540096 -3.59679e-05 3.70386e-05
0.00571408 -0.000507687 0.000287214
0.0057097 5.66631e-05 -0.000205369
0.00556397 -0.000379566 0.000232203
0.00625606 -9.8255e-05 6.37723e-05
0.00605904 -0.000603829 6.37096e-05
0.00612667 -0.000468518 -5.11156e-05
0.00569601 -0.000374256 0.00026876
0.00516447 -0.00117147 0.0013662
0.00576983 -0.000444497 -3.19548e-05
0.00572427 -4.02132e-05 -0.000174791
0.00562662 -0.000367637 0.000260401
1.49569e-15 -1.10175e-14 8.66683e-14
0.00565876 -0.000180546 -0.000125213
0.00607714 0.000348439 0.000421024
0.00555889 -0.00105522 0.000693713
0.00562224 3.9131e-05 0.000422745
0.00564037 -0.000238744 -0.000121532
0.00618697 0.00030972 0.000473345
0.00564244 -0.000224743 -9.69517e-05
0.00582452 -0.000590138 6.98367e-05
0.0054293 -0.000333824 6.12797e-05
0.00565558 -0.000206551 -0.000123575
0.00617898 0.000303509 0.000478242
0.00590689 7.67294e-05 4.25566e-05
0.00555205 -0.000250812 -8.81928e-05
0.00609468 -0.00122023 0.000545637
0.00555815 -0.000676786 0.000128198
0.00601704 -0.000597086 6.58197e-05
0.00564351 -0.000191374 -0.000103009
0.00562435 -0.000354877 0.000265088
0.00598475 -0.000604666 7.06355e-05
0.0051419 -0.00116294 0.00136111
0.00557447 -0.000272843 -8.45346e-05
0.0053653 -0.000504843 0.000271896
0.00572016 -0.000245157 -6.2495e-05
0.00592547 -0.00060351 7.62527e-05
0.00568249 -0.000215174 -0.000109099
0.00615363 -0.00081093 0.000422997
0.0055908 -0.000314975 0.000252573
0.00565028 -0.000137708 -0.000139827
-1.254e-05 -0.0144339 0.00740395
0.0056328 -0.000412016 -7.03765e-05
0.00574043 -9.6998e-05 -0.000186361
0.00532381 -0.00119367 0.00112166
0.00571625 -0.000883415 0.00100043
0.00552132 -0.000119583 -0.000132305
0.00614548 0.000354131 0.000426322
0.00589685 -0.000956164 0.000969283
0.00570462 -0.000214385 -5.98961e-05
0.0057518 -0.00037405 0.000269541
0.0056437 -0.000176139 -0.000127515
0.00609316 0.00039127 0.000386364
0.00595368 7.70722e-05 3.72429e-05
0.00575077 -0.000961892 0.000972662
0.00574808 -0.000961618 0.000969625
0.00582813 -0.000964146 0.000978548
0.00567522 -0.000121028 -0.000149374
0.00577208 -0.000957042 0.000969003
0.005883 -0.000953814 0.000972589
0.00540491 -0.000109696 -0.000181912
0.00617373 0.000334546 0.000449097
0.00520637 -0.0011718 0.00138918
0.00614573 0.000424766 0.000399623
0.00587955 -0.000600219 7.21602e-05
0.00561183 -0.00126684 0.000351883
0.00516052 -0.00116747 0.00136611
0.00585912 -0.00095512 0.000975615
0.00552544 -0.000174675 -1.61756e-06
0.00581907 -8.80423e-05 -0.000163573
0.00580954 -6.43267e-05 -0.000168122
0.00578688 -8.38698e-05 -0.000165692
0.00559877 -0.00126503 0.000349961
0.00625729 0.000243855 0.000534004
0.00589341 -8.58768e-05 -0.000107489
0.0058265 -0.000961967 0.000975903
0.00559415 2.53309e-05 0.000423752
0.00552061 -0.000895878 0.000915786
0.00575234 -0.00015817 -0.000139991
0.00610573 0.000338485 0.00043552
0.00622539 0.000265019 0.000510938
0.00576802 -5.13405e-05 -0.000174185
0.00601047 -0.000604881 6.98098e-05
0.0055389 -1.02729e-05 0.00030852
0.00533892 -0.00121335 0.000333279
0.0058157 -0.000206628 -7.40056e-05
0.00550118 -0.00124429 0.000344508
0.00618194 0.00027951 0.000500943
0.0062475 0.00013294 0.000354552
0.00574865 -0.000114838 -0.0001496
0.00543323 -0.000138673 -8.71215e-05
0.00526945 -0.00118893 0.000590451
0.00572539 -0.000959134 0.000970021
0.00625937 0.000253434 0.000536077
0.00575214 7.55266e-06 -0.000189526
0.00564628 -0.00017178 -0.000137836
0.00586193 -8.66354e-05 -0.000164026
0.00574187 -3.06688e-05 -0.000178772
0.00600169 0.000351094 0.000421065
0.00635974 -0.00105486 -0.000383642
0.0057706 -4.27073e-05 -0.000173557
0.00561164 -0.000149201 1.34097e-05
0.00569953 -0.000152582 -0.000136956
0.00584085 -0.000164815 -0.000121955
0.00531621 -0.00119109 0.00140464
0.00604801 0.000279764 0.000248179
0.00571077 -0.000372409 0.000270546
0.00581914 -0.000958803 0.000975163
0.00558299 -0.00119507 0.000465587
0.00601243 -0.000598598 6.78953e-05

VECTORS force float
3.9829e-11 -7.29522e-11 -5.6094e-11
-1.81205e-11 -2.41647e-10 -4.83838e-11
-1.92583e-10 -4.33918e-10 1.33543e-10
2.06123e-10 5.9908e-11 -6.26463e-12
-1.14193e-10 -9.93309e-11 3.47412e-11
-5.55399e-11 -3.00108e-10 2.6745e-10
-1.73315e-10 -3.33276e-10 5.20984e-11
4.23198e-11 -1.66921e-10 7.62667e-11
1.85648e-10 5.32875e-11 4.13391e-11
-2.20865e-10 5.43065e-10 -9.20711e-10
-2.4923e-11 -1.46758e-10 -1.96179e-10
-6.51496e-10 -1.04505e-10 1.93657e-10
-4.87606e-11 -2.96238e-11 1.39001e-10
5.70476e-10 2.86248e-09 -1.74529e-09
-2.74825e-10 7.84897e-11 -4.89284e-11
-1.87038e-10 2.95122e-10 -1.86103e-10
4.38316e-10 -6.82409e-11 2.19713e-11
2.86176e-11 1.23496e-10 3.54515e-10
-4.28733e-10 3.41703e-10 8.88095e-11
-8.38614e-11 -2.85847e-10 -1.98546e-11
1.05062e-11 3.96604e-10 -3.37588e-10
3.33503e-11 -7.9488e-11 4.29002e-11
-7.24741e-11 2.10174e-12 4.2856e-11
6.45387e-11 1.771e-10 -1.41335e-10
-1.04619e-10 2.27732e-10 4.7979e-12
-7.25447e-11 -1.16948e-10 -6.41447e-11
1.10291e-10 -1.4915e-10 2.49935e-10
1.01459e-10 -1.99653e-10 -5.25528e-13
4.46026e-11 6.71455e-11 -4.39971e-11
-1.02237e-11 3.83978e-10 -2.62103e-10
-5.05669e-11 -1.52637e-10 1.00544e-10
-9.4982e-13 -3.61988e-10 -1.267e-11
1.29479e-10 -1.33632e-10 9.38735e-11
1.1109e-11 -1.35217e-10 -1.29244e-10
-1.82297e-10 1.82659e-10 1.94541e-11
2.87974e-12 -1.21454e-11 -2.00238e-12
3.01852e-12 -8.05329e-11 1.21068e-12
1.83106e-10 -2.07064e-10 3.99789e-11
-1.1608e-23 3.79986e-24 0.0
7.58577e-11 -2.33246e-10 -5.14702e-11
-1.3187e-10 4.58972e-11 -8.27801e-11
3.47524e-10 -1.93448e-10 -9.78633e-11
4.01642e-10 1.983e-10 7.23407e-11
6.62944e-13 1.12492e-10 -8.54581e-11
-1.14449e-10 1.57529e-10 -4.37963e-11
3.48589e-10 7.66407e-12 -1.86664e-10
-1.71279e-10 -1.90897e-11 -3.02538e-11
-3.5828e-11 2.94074e-10 -3.2564e-11
-5.97956e-10 -1.14062e-11 -2.7841e-10
-3.60299e-11 2.57425e-11 4.46192e-11
1.44088e-10 2.87819e-10 -1.51578e-10
-1.22024e-10 -3.48406e-11 1.92232e-10
-4.76392e-11 8.72356e-11 -1.38881e-10
-3.42543e-10 -2.39364e-10 8.23887e-12
-1.79615e-10 -5.75516e-11 4.01696e-12
-3.23002e-11 -1.18567e-10 1.09115e-12
1.14374e-10 1.85696e-10 -9.60506e-11
1.14194e-10 6.86336e-11 -3.10642e-10
-5.41192e-10 -1.96461e-10 -5.41267e-11
-4.65379e-10 3.41234e-11 1.45812e-10
1.28756e-10 1.19171e-10 4.88772e-11
8.33854e-12 7.73007e-11 -7.17881e-11
1.66373e-10 -5.60921e-10 -2.07955e-10
-5.84748e-11 -1.34624e-10 2.96725e-11
3.18318e-10 7.27373e-10 3.34287e-10
-3.15342e-11 -9.54489e-12 7.80795e-11
1.08878e-12 6.61289e-11 -3.46477e-10
-1.56888e-10 1.73722e-10 7.69391e-11
-9.73726e-10 2.20183e-09 -8.21559e-10
-9.49596e-11 -1.93886e-11 2.07323e-10
-8.68206e-11 -3.89008e-10 3.84772e-11
-1.93211e-10 -2.93167e-11 -5.17514e-11
-2.16527e-11 -4.56264e-10 4.40306e-10
-9.99364e-11 -3.51112e-10 8.4727e-10
1.65401e-10 1.15838e-10 -3.92311e-12
7.13876e-10 -2.92517e-10 5.9121e-11
-6.00851e-11 -1.38135e-10 1.20252e-11
3.21954e-10 1.84549e-10 -2.71076e-11
3.81636e-10 1.44105e-11 -1.26278e-10
4.6417e-10 1.65529e-10 3.47904e-11
1.39347e-12 -9.88318e-11 -1.21285e-11
-8.26899e-11 -4.5087e-10 1.4829e-10
-1.53405e-10 -1.49492e-10 1.94933e-12
-1.57062e-10 2.8158e-11 6.08329e-12
-9.12584e-11 -1.88417e-10 -2.63232e-10
-1.82899e-10 -1.06652e-10 4.49126e-11
-2.82799e-10 3.08984e-11 -1.1213e-11
-1.36282e-10 -3.72068e-12 -5.4252e-11
-2.83984e-11 -8.2964e-11 3.12073e-10
4.40047e-10 -3.25798e-10 4.86379e-11
-6.02642e-11 -2.21767e-12 1.67494e-11
-3.459e-11 -1.02811e-10 1.47822e-10
1.65908e-21 -5.76545e-22 -9.71937e-24
0.0 0.0 0.0
-2.76516e-11 2.00455e-10 -1.25176e-12
4.30606e-10 -3.34856e-10 1.14203e-10
5.01667e-10 -2.35535e-10 4.00171e-11
2.01936e-10 -1.2556e-10 -1.11805e-12
4.64905e-11 7.31303e-11 9.98076e-11
5.43564e-11 -2.31561e-11 -7.55716e-11
2.70178e-10 -4.84752e-11 2.27953e-11
-1.41957e-10 -3.5902e-10 -6.0921e-11
-8.47473e-11 -1.61781e-10 -1.94163e-10
1.46883e-10 3.21053e-11 -8.38725e-11
-5.26529e-10 1.39982e-10 -1.45034e-10
-2.39941e-10 -2.09758e-11 -2.9228e-10
-1.03686e-10 -1.76953e-10 -2.86347e-11
-2.5188e-11 3.15553e-11 -8.11257e-12