# vtk DataFile Version 3.0
LIGGGHTS particles timestep 38000000
ASCII
DATASET POLYDATA
POINTS 271 float
0.234149 0.0157497 0.0084066
0.234986 0.0184197 0.0069043
0.229082 0.0180928 0.00711504
0.23506 0.0183529 0.00691737
0.234136 0.0156966 0.00849038
0.240464 0.0169926 0.00744622
0.234224 0.0159845 0.00809231
0.234108 0.0156466 0.00857237
0.240587 0.0174789 0.00712141
0.234678 0.0178849 0.00707239
0.234816 0.0180952 0.0069873
0.228166 0.0157894 0.00828502
0.234044 0.0154923 0.00882143
0.228844 0.0186702 0.0068382
0.235019 0.0182626 0.00693477
0.228944 0.0187108 0.00684995
0.235146 0.0184022 0.00690798
0.234087 0.0155951 0.00865546
0.234635 0.017702 0.0071407
0.234795 0.0180028 0.0070217
0.228401 0.0164291 0.00796275
0.240672 0.0178434 0.00699359
0.23428 0.0161661 0.00786031
0.240545 0.0173094 0.00721887
0.229156 0.0184448 0.006937
0.23493 0.018218 0.00694325
0.23424 0.016044 0.00801352
0.2348 0.0181803 0.00704779
0.234296 0.0162285 0.00778395
0.234751 0.017481 0.00721071
0.240483 0.0170665 0.00738169
0.234206 0.0159211 0.0081674
0.234928 0.0178603 0.00706254
0.240651 0.0177475 0.00701173
0.234821 0.018556 0.00687764
0.234983 0.018891 0.00681306
0.240694 0.0179393 0.00697546
0.235168 0.0185002 0.00688903
0.321436 0.0173475 0.00552525
0.234946 0.0183297 0.00692167
0.240503 0.0171403 0.00731716
0.234166 0.0158059 0.00832576
0.234964 0.0187945 0.00683171
0.234335 0.0163957 0.0076817
0.234318 0.0163102 0.00773041
0.228089 0.0155008 0.00853003
0.240629 0.0176516 0.00702987
0.234916 0.0185497 0.00695379
0.228035 0.0153949 0.00880547
0.234841 0.0186522 0.00685904
0.240524 0.0172247 0.00726762
0.234774 0.0179113 0.00705586
0.234615 0.0172286 0.00731065
0.235116 0.0186666 0.00685674
0.23512 0.0182744 0.00693267
0.240715 0.018037 0.00698094
0.228349 0.0165733 0.00788255
0.228015 0.0153602 0.00889707
0.234901 0.0184708 0.00689426
0.234827 0.0176502 0.00714485
0.234898 0.0186798 0.0069364
0.240566 0.0173942 0.00717011
0.228071 0.0154641 0.00862125
0.234779 0.0183475 0.00695872
0.234879 0.0188451 0.00682177
0.234946 0.0186981 0.00685036
0.229075 0.0184992 0.00691368
0.234869 0.0179377 0.0070394
0.228825 0.0185736 0.00685626
0.228126 0.0156164 0.0083772
0.235093 0.0185652 0.00687632
0.228964 0.0188088 0.00684855
0.228188 0.0158762 0.00824059
0.228884 0.0184316 0.00693581
0.240608 0.0175637 0.00707261
0.229101 0.0181805 0.00707065
0.235187 0.0185977 0.0068702
0.235059 0.0188273 0.00682552
0.234502 0.0171067 0.00736243
0.23504 0.0187307 0.00684421
0.234836 0.0181874 0.00695334
0.229137 0.0183567 0.00698159
0.234927 0.0186016 0.00686898
0.234374 0.0165652 0.00758309
0.234894 0.0182135 0.00703626
0.234748 0.0178692 0.00714272
0.234396 0.0166533 0.00754076
0.228465 0.0166899 0.00782907
0.234911 0.0181235 0.00697153
0.228572 0.0171246 0.00760627
0.235022 0.0186341 0.00686287
0.228146 0.0157024 0.00833019
0.0643568 0.0187248 0.00531097
0.24257 0.0191927 0.00520306
0.228785 0.017994 0.00716069
0.229224 0.0183119 0.00699812
0.229041 0.0179159 0.00720484
0.229018 0.0178285 0.00724934
0.23491 0.0188163 0.00691243
0.235102 0.0181778 0.00695133
0.234413 0.016743 0.00750039
0.234755 0.0177768 0.00710514
0.228848 0.018256 0.00702631
0.228434 0.016921 0.00770432
0.228807 0.0184861 0.00690138
0.235005 0.0181527 0.00695603
0.23482 0.018535 0.00697541
0.234917 0.0190398 0.00680861
0.228647 0.0177904 0.00725874
0.234965 0.0179661 0.00702216
0.234261 0.0161078 0.00793945
0.234184 0.0158612 0.00824433
0.234712 0.0175938 0.00717345
0.228605 0.0176165 0.00734785
0.234733 0.0176853 0.0071393
0.235002 0.0189879 0.00679696
0.234635 0.0173288 0.00727351
0.22925 0.018414 0.00694618
0.234657 0.0175161 0.00720516
0.234741 0.0181597 0.00696991
0.229063 0.0180037 0.00716019
0.234855 0.0182828 0.00693058
0.2347 0.0179763 0.00703823
0.23463 0.0174261 0.00723921
0.234065 0.0155436 0.00873846
0.228864 0.0187691 0.00683677
0.234356 0.0164803 0.00763254
0.234897 0.018361 0.00700279
0.23489 0.0180308 0.00700467
0.228866 0.0183436 0.00698116
0.228583 0.0175296 0.00739241
0.228054 0.0154308 0.00871408
0.228711 0.0180512 0.00712507
0.228921 0.0186161 0.00687206
0.228667 0.0171543 0.00759737
0.234516 0.0171997 0.00732855
0.0100679 0.0201683 0.00551526
0.228541 0.0173557 0.00748153
0.228905 0.0189657 0.00687553
0.228669 0.0178774 0.00721418
0.228871 0.0176186 0.00736206
0.228829 0.0181679 0.00707165
0.0219312 0.0187687 0.00551176
0.229056 0.0184114 0.00695885
0.235135 0.0187633 0.00683806
0.22869 0.0179643 0.00716962
0.228984 0.0189049 0.00686794
0.228529 0.0169507 0.00769539
0.228882 0.0180236 0.00715193
0.23486 0.0187486 0.00684041
0.228593 0.0172116 0.00756171
0.229038 0.0187425 0.00683968
0.228957 0.0179669 0.00718505
0.234813 0.0182758 0.00702082
0.228859 0.0179369 0.0071963
0.235073 0.018469 0.00689491
0.228892 0.0177057 0.00731777
0.222517 0.0171915 0.00730899
0.22871 0.0173282 0.00750825
0.228636 0.0173855 0.0074726
0.228721 0.0177332 0.00729436
0.228996 0.0185513 0.00688044
0.234721 0.0180678 0.00700408
0.228935 0.01788 0.00722933
0.234745 0.0180435 0.0070981
0.228519 0.0172688 0.00752609
0.234613 0.0176105 0.0071749
0.234805 0.0175587 0.007179
0.234861 0.0183808 0.00691162
0.222808 0.0184877 0.00696104
0.234851 0.0177409 0.00711073
0.228838 0.0178499 0.00724087
0.234985 0.0180591 0.0069875
0.161461 0.0182058 0.00533758
0.229036 0.0183221 0.00700475
0.228423 0.016516 0.00791819
0.222579 0.0174295 0.00714072
0.228885 0.0188694 0.00685609
0.22879 0.0183987 0.0069465
0.228413 0.0168341 0.00774888
0.228923 0.0182001 0.00706134
0.234433 0.0168343 0.00746449
0.228107 0.0155416 0.00844046
0.228999 0.0181444 0.00709488
0.228487 0.0167769 0.00778451
0.228615 0.0172985 0.00751716
0.228808 0.0180808 0.00711633
0.225598 0.017824 0.00702208
0.234656 0.0177934 0.00710654
0.234604 0.0175738 0.00726747
0.228942 0.0182887 0.00701572
0.234802 0.0184598 0.00689624
0.234538 0.0172909 0.00729417
0.222788 0.0183908 0.00697577
0.228903 0.0181112 0.00710705
0.234897 0.018942 0.00680305
0.228206 0.0159637 0.00819547
0.234473 0.0170207 0.00740461
0.229019 0.0182343 0.00704931
0.288663 0.0178473 0.00696902
0.234986 0.0185225 0.0068844
0.228764 0.0179071 0.00720525
0.0251733 0.0174204 0.0079585
0.234833 0.0178339 0.00707902
0.228562 0.0174427 0.00743697
0.222728 0.0181003 0.00701995
0.22254 0.0172662 0.00724642
0.228978 0.0184639 0.00692541
0.22837 0.0166602 0.00783799
0.222497 0.0171166 0.00737201
0.228772 0.0183111 0.00699167
0.234759 0.0182522 0.00693635
0.228979 0.0180548 0.00714037
0.228327 0.0164863 0.00792711
0.228285 0.0163133 0.00801806
0.222337 0.0165168 0.0078765
0.222357 0.0165918 0.00781344
0.222417 0.0168167 0.00762426
0.228626 0.0177035 0.0073033
0.222377 0.0166667 0.00775038
0.222478 0.0170415 0.00743523
0.229179 0.0185318 0.0068926
0.228391 0.0167471 0.00779344
0.222768 0.018294 0.00699049
0.228688 0.0172412 0.00755281
0.234453 0.0169264 0.00743133
0.222623 0.017618 0.0070935
0.222828 0.0185845 0.00694631
0.222457 0.0169666 0.00749813
0.228733 0.0181431 0.00709235
0.228817 0.0177629 0.00728544
0.228774 0.017589 0.00737457
0.228679 0.0175593 0.00738348
0.222643 0.0177147 0.00707877
0.228477 0.0170949 0.0076152
0.228265 0.0162253 0.00806097
0.222437 0.0168917 0.00756119
0.228925 0.0190617 0.00689492
0.222557 0.0173414 0.00718288
0.228743 0.0178202 0.00724981
0.228444 0.016603 0.00787363
0.228455 0.017008 0.00765976
0.228752 0.0175021 0.00741913
0.234558 0.0173888 0.00729786
0.22902 0.0186463 0.00685969
0.222686 0.0179069 0.00704941
0.228226 0.0160508 0.00815075
0.222674 0.0178088 0.00706403
0.228508 0.0168638 0.00773995
0.228498 0.0171818 0.00757065
0.2287 0.0176463 0.00733892
0.229099 0.0185858 0.00686946
0.222708 0.0180035 0.00703468
0.222317 0.0164418 0.00793956
0.228551 0.0170377 0.00765083
0.228913 0.0177929 0.00727348
0.22896 0.0183765 0.00697048
0.228795 0.017676 0.00733001
0.228731 0.0174151 0.00746369
0.22838 0.0163421 0.00800737
0.228902 0.0185194 0.00689053
0.228657 0.0174724 0.00742804
0.228754 0.0182237 0.00703669
0.229118 0.0182688 0.00702606
0.228245 0.0161381 0.00810576
0.222748 0.0181972 0.00700522
0.228306 0.0163994 0.00797167
0.234827 0.0184339 0.00698935
0.222397 0.0167417 0.00768732
0.2226 0.0175216 0.00710824
0.234582 0.0174854 0.00730847

VERTICES 271 542
1 0
1 1
1 2
1 3
1 4
1 5
1 6
1 7
1 8
1 9
1 10
1 11
1 12
1 13
1 14
1 15
1 16
1 17
1 18
1 19
1 20
1 21
1 22
1 23
1 24
1 25
1 26
1 27
1 28
1 29
1 30
1 31
1 32
1 33
1 34
1 35
1 36
1 37
1 38
1 39
1 40
1 41
1 42
1 43
1 44
1 45
1 46
1 47
1 48
1 49
1 50
1 51
1 52
1 53
1 54
1 55
1 56
1 57
1 58
1 59
1 60
1 61
1 62
1 63
1 64
1 65
1 66
1 67
1 68
1 69
1 70
1 71
1 72
1 73
1 74
1 75
1 76
1 77
1 78
1 79
1 80
1 81
1 82
1 83
1 84
1 85
1 86
1 87
1 88
1 89
1 90
1 91
1 92
1 93
1 94
1 95
1 96
1 97
1 98
1 99
1 100
1 101
1 102
1 103
1 104
1 105
1 106
1 107
1 108
1 109
1 110
1 111
1 112
1 113
1 114
1 115
1 116
1 117
1 118
1 119
1 120
1 121
1 122
1 123
1 124
1 125
1 126
1 127
1 128
1 129
1 130
1 131
1 132
1 133
1 134
1 135
1 136
1 137
1 138
1 139
1 140
1 141
1 142
1 143
1 144
1 145
1 146
1 147
1 148
1 149
1 150
1 151
1 152
1 153
1 154
1 155
1 156
1 157
1 158
1 159
1 160
1 161
1 162
1 163
1 164
1 165
1 166
1 167
1 168
1 169
1 170
1 171
1 172
1 173
1 174
1 175
1 176
1 177
1 178
1 179
1 180
1 181
1 182
1 183
1 184
1 185
1 186
1 187
1 188
1 189
1 190
1 191
1 192
1 193
1 194
1 195
1 196
1 197
1 198
1 199
1 200
1 201
1 202
1 203
1 204
1 205
1 206
1 207
1 208
1 209
1 210
1 211
1 212
1 213
1 214
1 215
1 216
1 217
1 218
1 219
1 220
1 221
1 222
1 223
1 224
1 225
1 226
1 227
1 228
1 229
1 230
1 231
1 232
1 233
1 234
1 235
1 236
1 237
1 238
1 239
1 240
1 241
1 242
1 243
1 244
1 245
1 246
1 247
1 248
1 249
1 250
1 251
1 252
1 253
1 254
1 255
1 256
1 257
1 258
1 259
1 260
1 261
1 262
1 263
1 264
1 265
1 266
1 267
1 268
1 269
1 270

POINT_DATA 271
SCALARS id int 1
LOOKUP_TABLE default
1
2
3
4
5
6
7
8
9
10
11
12
13
14
15
16
17
19
21
22
23
24
25
26
27
28
29
30
31
32
33
34
35
36
37
38
39
41
42
44
45
47
48
50
51
52
53
54
55
56
57
59
61
62
63
64
65
66
67
68
69
70
71
72
73
74
76
77
78
79
80
81
82
83
84
85
86
87
88
89
90
91
92
93
94
95
96
97
98
99
100
101
102
103
104
105
106
107
108
109
110
111
112
113
114
115
116
117
118
119
120
121
122
123
124
125
126
127
128
129
131
132
133
134
135
136
137
138
140
141
142
143
144
147
148
149
150
151
153
154
155
156
157
158
159
160
162
164
165
166
168
169
170
171
172
173
174
175
177
178
179
181
182
183
184
186
187
188
189
190
191
192
193
194
195
196
197
198
199
201
202
203
204
205
206
207
208
209
210
211
212
213
214
215
216
217
218
219
220
221
222
223
224
225
226
227
228
229
230
231
232
234
235
236
237
239
240
241
242
244
246
247
248
249
250
251
252
253
254
255
256
257
258
259
261
262
263
264
265
266
267
268
269
270
271
272
273
274
275
276
277
278
280
283
284
285
286
287
288
289
290
291
292
293
294
295
296
297
298
299
300

SCALARS type int 1
LOOKUP_TABLE default
1
1
1
1
1
1
1
1
1
1
1
1
1
1
1
1
1
1
1
1
1
1
1
1
1
1
1
1
1
1
1
1
1
1
1
1
1
1
1
1
1
1
1
1
1
1
1
1
1
1
1
1
1
1
1
1
1
1
1
1
1
1
1
1
1
1
1
1
1
1
1
1
1
1
1
1
1
1
1
1
1
1
1
1
1
1
1
1
1
1
1
1
1
1
1
1
1
1
1
1
1
1
1
1
1
1
1
1
1
1
1
1
1
1
1
1
1
1
1
1
1
1
1
1
1
1
1
1
1
1
1
1
1
1
1
1
1
1
1
1
1
1
1
1
1
1
1
1
1
1
1
1
1
1
1
1
1
1
1
1
1
1
1
1
1
1
1
1
1
1
1
1
1
1
1
1
1
1
1
1
1
1
1
1
1
1
1
1
1
1
1
1
1
1
1
1
1
1
1
1
1
1
1
1
1
1
1
1
1
1
1
1
1
1
1
1
1
1
1
1
1
1
1
1
1
1
1
1
1
1
1
1
1
1
1
1
1
1
1
1
1
1
1
1
1
1
1
1
1
1
1
1
1
1
1
1
1
1
1
1
1
1
1
1
1
1
1
1
1
1
1

SCALARS radius float 1
LOOKUP_TABLE default
5e-05
5e-05
5e-05
5e-05
5e-05
5e-05
5e-05
5e-05
5e-05
5e-05
5e-05
5e-05
5e-05
5e-05
5e-05
5e-05
5e-05
5e-05
5e-05
5e-05
5e-05
5e-05
5e-05
5e-05
5e-05
5e-05
5e-05
5e-05
5e-05
5e-05
5e-05
5e-05
5e-05
5e-05
5e-05
5e-05
5e-05
5e-05
5e-05
5e-05
5e-05
5e-05
5e-05
5e-05
5e-05
5e-05
5e-05
5e-05
5e-05
5e-05
5e-05
5e-05
5e-05
5e-05
5e-05
5e-05
5e-05
5e-05
5e-05
5e-05
5e-05
5e-05
5e-05
5e-05
5e-05
5e-05
5e-05
5e-05
5e-05
5e-05
5e-05
5e-05
5e-05
5e-05
5e-05
5e-05
5e-05
5e-05
5e-05
5e-05
5e-05
5e-05
5e-05
5e-05
5e-05
5e-05
5e-05
5e-05
5e-05
5e-05
5e-05
5e-05
5e-05
5e-05
5e-05
5e-05
5e-05
5e-05
5e-05
5e-05
5e-05
5e-05
5e-05
5e-05
5e-05
5e-05
5e-05
5e-05
5e-05
5e-05
5e-05
5e-05
5e-05
5e-05
5e-05
5e-05
5e-05
5e-05
5e-05
5e-05
5e-05
5e-05
5e-05
5e-05
5e-05
5e-05
5e-05
5e-05
5e-05
5e-05
5e-05
5e-05
5e-05
5e-05
5e-05
5e-05
5e-05
5e-05
5e-05
5e-05
5e-05
5e-05
5e-05
5e-05
5e-05
5e-05
5e-05
5e-05
5e-05
5e-05
5e-05
5e-05
5e-05
5e-05
5e-05
5e-05
5e-05
5e-05
5e-05
5e-05
5e-05
5e-05
5e-05
5e-05
5e-05
5e-05
5e-05
5e-05
5e-05
5e-05
5e-05
5e-05
5e-05
5e-05
5e-05
5e-05
5e-05
5e-05
5e-05
5e-05
5e-05
5e-05
5e-05
5e-05
5e-05
5e-05
5e-05
5e-05
5e-05
5e-05
5e-05
5e-05
5e-05
5e-05
5e-05
5e-05
5e-05
5e-05
5e-05
5e-05
5e-05
5e-05
5e-05
5e-05
5e-05
5e-05
5e-05
5e-05
5e-05
5e-05
5e-05
5e-05
5e-05
5e-05
5e-05
5e-05
5e-05
5e-05
5e-05
5e-05
5e-05
5e-05
5e-05
5e-05
5e-05
5e-05
5e-05
5e-05
5e-05
5e-05
5e-05
5e-05
5e-05
5e-05
5e-05
5e-05
5e-05
5e-05
5e-05
5e-05
5e-05
5e-05
5e-05
5e-05
5e-05
5e-05
5e-05
5e-05
5e-05
5e-05
5e-05
5e-05
5e-05
5e-05
5e-05
5e-05
5e-05
5e-05
5e-05
5e-05
5e-05
5e-05
5e-05
5e-05
5e-05
5e-05
5e-05
5e-05
5e-05
5e-05
5e-05

SCALARS mass float 1
LOOKUP_TABLE default
1.46608e-10
1.46608e-10
1.46608e-10
1.46608e-10
1.46608e-10
1.46608e-10
1.46608e-10
1.46608e-10
1.46608e-10
1.46608e-10
1.46608e-10
1.46608e-10
1.46608e-10
1.46608e-10
1.46608e-10
1.46608e-10
1.46608e-10
1.46608e-10
1.46608e-10
1.46608e-10
1.46608e-10
1.46608e-10
1.46608e-10
1.46608e-10
1.46608e-10
1.46608e-10
1.46608e-10
1.46608e-10
1.46608e-10
1.46608e-10
1.46608e-10
1.46608e-10
1.46608e-10
1.46608e-10
1.46608e-10
1.46608e-10
1.46608e-10
1.46608e-10
1.46608e-10
1.46608e-10
1.46608e-10
1.46608e-10
1.46608e-10
1.46608e-10
1.46608e-10
1.46608e-10
1.46608e-10
1.46608e-10
1.46608e-10
1.46608e-10
1.46608e-10
1.46608e-10
1.46608e-10
1.46608e-10
1.46608e-10
1.46608e-10
1.46608e-10
1.46608e-10
1.46608e-10
1.46608e-10
1.46608e-10
1.46608e-10
1.46608e-10
1.46608e-10
1.46608e-10
1.46608e-10
1.46608e-10
1.46608e-10
1.46608e-10
1.46608e-10
1.46608e-10
1.46608e-10
1.46608e-10
1.46608e-10
1.46608e-10
1.46608e-10
1.46608e-10
1.46608e-10
1.46608e-10
1.46608e-10
1.46608e-10
1.46608e-10
1.46608e-10
1.46608e-10
1.46608e-10
1.46608e-10
1.46608e-10
1.46608e-10
1.46608e-10
1.46608e-10
1.46608e-10
1.46608e-10
1.46608e-10
1.46608e-10
1.46608e-10
1.46608e-10
1.46608e-10
1.46608e-10
1.46608e-10
1.46608e-10
1.46608e-10
1.46608e-10
1.46608e-10
1.46608e-10
1.46608e-10
1.46608e-10
1.46608e-10
1.46608e-10
1.46608e-10
1.46608e-10
1.46608e-10
1.46608e-10
1.46608e-10
1.46608e-10
1.46608e-10
1.46608e-10
1.46608e-10
1.46608e-10
1.46608e-10
1.46608e-10
1.46608e-10
1.46608e-10
1.46608e-10
1.46608e-10
1.46608e-10
1.46608e-10
1.46608e-10
1.46608e-10
1.46608e-10
1.46608e-10
1.46608e-10
1.46608e-10
1.46608e-10
1.46608e-10
1.46608e-10
1.46608e-10
1.46608e-10
1.46608e-10
1.46608e-10
1.46608e-10
1.46608e-10
1.46608e-10
1.46608e-10
1.46608e-10
1.46608e-10
1.46608e-10
1.46608e-10
1.46608e-10
1.46608e-10
1.46608e-10
1.46608e-10
1.46608e-10
1.46608e-10
1.46608e-10
1.46608e-10
1.46608e-10
1.46608e-10
1.46608e-10
1.46608e-10
1.46608e-10
1.46608e-10
1.46608e-10
1.46608e-10
1.46608e-10
1.46608e-10
1.46608e-10
1.46608e-10
1.46608e-10
1.46608e-10
1.46608e-10
1.46608e-10
1.46608e-10
1.46608e-10
1.46608e-10
1.46608e-10
1.46608e-10
1.46608e-10
1.46608e-10
1.46608e-10
1.46608e-10
1.46608e-10
1.46608e-10
1.46608e-10
1.46608e-10
1.46608e-10
1.46608e-10
1.46608e-10
1.46608e-10
1.46608e-10
1.46608e-10
1.46608e-10
1.46608e-10
1.46608e-10
1.46608e-10
1.46608e-10
1.46608e-10
1.46608e-10
1.46608e-10
1.46608e-10
1.46608e-10
1.46608e-10
1.46608e-10
1.46608e-10
1.46608e-10
1.46608e-10
1.46608e-10
1.46608e-10
1.46608e-10
1.46608e-10
1.46608e-10
1.46608e-10
1.46608e-10
1.46608e-10
1.46608e-10
1.46608e-10
1.46608e-10
1.46608e-10
1.46608e-10
1.46608e-10
1.46608e-10
1.46608e-10
1.46608e-10
1.46608e-10
1.46608e-10
1.46608e-10
1.46608e-10
1.46608e-10
1.46608e-10
1.46608e-10
1.46608e-10
1.46608e-10
1.46608e-10
1.46608e-10
1.46608e-10
1.46608e-10
1.46608e-10
1.46608e-10
1.46608e-10
1.46608e-10
1.46608e-10
1.46608e-10
1.46608e-10
1.46608e-10
1.46608e-10
1.46608e-10
1.46608e-10
1.46608e-10
1.46608e-10
1.46608e-10
1.46608e-10
1.46608e-10
1.46608e-10
1.46608e-10
1.46608e-10
1.46608e-10
1.46608e-10
1.46608e-10
1.46608e-10
1.46608e-10
1.46608e-10
1.46608e-10
1.46608e-10
1.46608e-10
1.46608e-10
1.46608e-10
1.46608e-10
1.46608e-10
1.46608e-10
1.46608e-10
1.46608e-10
1.46608e-10

VECTORS velocity float
0.00569145 -0.000625998 -3.48273e-05
0.00569899 -0.00045937 9.84241e-05
0.00637664 0.000135317 -0.000463417
0.005805 -0.000347284 7.71547e-05
0.00572069 -0.000657655 -5.40505e-05
0.00600982 0.000188084 0.000980751
0.00539007 -0.000228442 0.000181295
0.00583078 -0.000683512 -3.58411e-05
0.00623234 -0.000269922 0.000227054
0.00611275 -0.000628492 -0.000231146
0.00615193 -0.000513478 -0.000218596
0.00557156 5.88219e-05 0.000375348
0.00593235 -0.000703123 -2.31535e-05
0.00563536 7.04402e-05 -0.000210413
0.00574631 -0.000494006 0.000105437
0.00567526 0.000191889 4.50593e-05
0.00577133 -0.000284536 6.51239e-05
0.00592435 -0.000701435 -2.57657e-05
0.00607647 -0.000622653 -0.000229064
0.00613429 -0.000624782 -0.000234058
0.00564457 3.90553e-07 0.000405689
0.00625377 -0.000368824 2.80118e-05
0.00557005 -0.000252459 0.00019763
0.0061549 -0.000258975 0.000220137
0.00615888 0.000592333 -0.000704615
0.00575392 -0.000504094 0.000104543
0.00547695 -0.000272166 0.000165155
0.00572292 -0.000594799 -0.00020884
0.00558504 -0.000248234 0.000202059
0.00600055 -0.000588481 -0.000236798
0.00606245 0.000189758 0.000985478
0.0054449 -0.000239354 0.000185309
0.0061264 -0.000617051 -0.000236201
0.00626031 -0.000372216 3.07585e-05
0.00574515 -0.000461293 9.85908e-05
0.00562988 -0.000409229 9.42398e-05
0.00625096 -0.000361638 2.67184e-05
0.00559087 -0.000351461 7.73249e-05
4.5741e-16 2.25439e-15 8.46361e-14
0.005748 -0.000470565 0.000101085
0.00613795 0.000198764 0.000996097
0.0056106 -0.000461641 6.46806e-05
0.00556408 -0.000413276 9.05293e-05
0.00559652 -0.000249665 0.000191775
0.00558769 -0.000246704 0.000198531
0.00586115 6.7542e-05 -5.54719e-05
0.00627174 -0.000369288 3.65885e-05
0.00573742 -0.000462537 9.66828e-05
0.00594813 0.000417346 0.000147536
0.00578937 -0.000455623 9.93787e-05
0.00612703 -0.000254188 0.000219252
0.00613313 -0.000620425 -0.000234167
0.00601543 -0.000560241 -0.000249962
0.00555339 -0.000416542 9.06393e-05
0.00602128 -0.000185426 4.69909e-05
0.00617918 -0.00037238 0.000535584
0.00566225 5.01651e-05 0.000381952
0.0061075 0.000398829 0.000224371
0.00570918 -0.000461185 9.93476e-05
0.0060701 -0.000617823 -0.000231834
0.00567869 -0.000423253 0.00017171
0.00618908 -0.000264524 0.000224567
0.00587743 0.00041301 6.98799e-05
0.00563727 -0.000382927 -1.54281e-05
0.00558276 -0.000409857 8.61626e-05
0.00551006 -0.000416455 8.33945e-05
0.00549755 8.84812e-05 0.000354124
0.00613744 -0.000616237 -0.000237592
0.00592378 0.000113804 0.000363228
0.00559811 -0.000339618 -0.00027676
0.00556174 -0.000385441 8.68845e-05
0.00571156 0.00015479 0.00031765
0.00545605 0.000104807 0.000340785
0.00582481 7.94017e-05 0.000376507
0.00625694 -0.000271368 0.00022641
0.00610232 0.00019449 -0.000473957
0.00556021 -0.000406178 8.76025e-05
0.00558577 -0.000446654 9.80423e-05
0.00605262 -0.00062325 -0.000221303
0.00554849 -0.000425069 9.22808e-05
0.00574199 -0.000534088 -0.000184834
0.00611491 0.000524697 -0.000545762
0.00577814 -0.00046839 0.000100298
0.00561442 -0.000251715 0.000201451
0.00572943 -0.000508324 9.85589e-05
0.00612224 -0.000609732 -0.000231123
0.00565577 -0.000302025 0.000150695
0.00570447 5.44916e-05 0.00038039
0.00612789 -0.000246958 -8.13934e-05
0.00580746 1.77676e-05 0.000407061
0.00552737 -0.00040534 8.82068e-05
0.00560121 -7.88512e-05 0.000164778
4.35125e-15 1.04708e-14 8.29594e-14
1.6328e-22 -3.03968e-22 -5.81428e-22
0.00605964 -8.46238e-05 0.000472851
0.00650532 0.00113465 -0.000972251
0.0072454 0.000775985 -0.000845567
0.00712654 0.000734303 -0.000813833
0.00555524 -0.000418725 8.62181e-05
0.00615143 -0.000206902 5.23724e-05
0.00556414 -0.00041976 -8.80051e-05
0.00610097 -0.000605921 -0.000238529
0.00580384 7.29132e-05 0.00033221
0.00573467 5.5002e-05 0.000381697
0.00584064 9.5814e-05 0.000365095
0.00613431 -0.000159024 4.50619e-05
0.00571312 -0.000457391 9.89851e-05
0.00564944 -0.000377929 -0.000111879
0.00597706 -3.18087e-05 0.000444028
0.00655858 -0.000152673 -0.000426889
0.00555968 -0.000280258 0.00017762
0.00552087 -0.000313434 0.000147989
0.00607056 -0.000592538 -0.00023966
0.00593127 -1.13708e-05 0.000433327
0.006082 -0.000597653 -0.000239553
0.00560417 -0.000427018 -0.000129269
0.00599618 -0.000540854 -0.000254736
0.00676857 0.00222292 -0.00152513
0.00601185 -0.000559255 -0.000248143
0.00574336 -0.000545625 -0.000234427
0.00716962 0.000858988 -0.000871883
0.00576532 -0.000473048 9.96677e-05
0.00612166 -0.000625729 -0.000231804
0.00598974 -0.000559015 -0.000246874
0.00594531 -0.000705396 -2.33729e-05
0.00570291 0.000215971 -0.000206188
0.00560746 -0.000238399 0.000215125
0.00575617 -0.000439659 9.83557e-05
0.0063241 -0.000378506 -0.000337091
0.00572181 9.65042e-05 0.00036939
0.0058957 -1.00208e-05 0.000427486
0.00582643 0.000486995 0.000106016
0.00610312 -1.45921e-05 0.000452266
0.00559905 0.000207769 7.78728e-05
0.00582297 -1.38513e-05 0.0004249
0.00599641 -0.000608071 -0.000234093
8.38426e-15 1.2524e-15 -8.48743e-14
0.00586384 6.21316e-06 0.000418215
0.00568771 0.000100643 0.00030972
0.006001 -3.11259e-05 0.000448061
0.00638001 -3.20382e-05 -0.000386304
0.00613743 -3.67172e-05 0.000473307
-3.83089e-14 8.16723e-14 2.95889e-13
0.00568457 0.000248435 0.000280758
0.00556474 -0.000457144 9.86496e-05
0.00602481 -2.23694e-05 0.000448409
0.00569787 0.000135324 0.000317454
0.0057463 4.71577e-05 0.000387267
0.00616841 -0.000127382 0.000515393
0.00551759 -0.000392045 8.12829e-05
0.0058288 7.72907e-07 0.000418741
0.00572472 0.000174111 0.000333757
0.00652524 -0.000100979 -0.000144521
0.00550746 -0.000527543 -4.17389e-05
0.00610262 -7.67698e-05 0.000498985
0.00564764 -0.000408387 8.8507e-05
0.0064391 -9.89264e-06 -0.000401131
0.00579001 0.000470156 4.95934e-05
0.00584961 -1.66627e-05 0.000428786
0.00585848 -1.4617e-05 0.000426691
0.00596909 -5.07588e-05 0.000453257
0.00558801 0.000198475 0.000307215
0.00613977 -0.000619805 -0.000234014
0.00650898 3.81612e-05 -0.000128357
0.00613243 -0.000633445 -0.000231375
0.0058362 2.20044e-05 0.000407374
0.00606199 -0.000620992 -0.000226472
0.00606337 -0.000611832 -0.000233358
0.00573866 -0.000463532 9.88568e-05
0.00583772 0.000368338 -0.00027849
0.00609106 -0.000629665 -0.000228791
0.00600722 -6.26312e-05 0.000464299
0.00618153 -0.000277628 -0.00036484
1.57801e-15 -1.10036e-14 8.66687e-14
0.00593185 0.000270924 7.37504e-07
0.00569263 1.67172e-05 0.000400384
0.00639878 0.000211993 -0.000676643
0.00570462 0.000152848 0.000318509
0.00577389 7.24778e-05 0.000371365
0.0057076 5.02524e-05 0.000381519
0.00606942 0.000255819 0.000318108
0.00559625 -0.000513364 -0.000227442
0.00560274 -0.00037567 -0.000304232
0.00628981 0.000171823 -0.000156123
0.00569081 6.11819e-05 0.000375476
0.00584393 -8.58519e-06 0.000424492
0.0061647 -9.14436e-05 0.000495199
0.0063741 0.000172935 0.000365727
0.0061006 -0.000627181 -0.000230067
0.0060691 -0.000577375 -0.000207577
0.00578985 0.000168135 0.000322623
0.00571161 -0.000467726 0.000100823
0.00600449 -0.000579213 -0.000243456
0.00580502 0.000388451 -0.000280186
0.00613867 -3.87387e-05 0.000462349
0.00564672 -0.000380362 8.07997e-05
0.0054072 0.000125015 0.000326439
0.00603116 -0.000605325 -0.000222985
0.00597344 4.34503e-05 -0.000316938
0.00572271 0.000292082 -9.1315e-05
0.0057315 -0.000496037 0.000105397
0.00600559 -6.18197e-05 0.000461442
4.65673e-10 -0.0218814 0.0100896
0.00612021 -0.000629535 -0.000230317
0.00587458 -1.02209e-05 0.000424528
0.00530099 0.000476307 -0.000273217
0.00624401 0.000503539 8.43863e-05
0.00560355 0.000175088 0.000304096
0.00568969 5.52392e-05 0.000380451
0.00625784 0.000606471 -3.15998e-05
0.00572574 6.16567e-05 0.000391631
0.00564599 -0.000412852 9.01796e-05
0.00655705 1.0954e-05 -0.000425233
0.0056146 4.83347e-05 0.000379891
0.00551772 6.28439e-05 0.000363021
0.00581048 0.000488105 3.53803e-05
0.00586674 0.00049516 3.41177e-05
0.00603179 0.000517562 3.06388e-05
0.00595643 -2.32884e-05 0.000439113
0.00592147 0.000503425 3.32826e-05
0.00590437 0.000649209 -9.49495e-05
0.00616739 0.000475326 -0.000622505
0.00569743 4.94852e-05 0.000381344
0.00580464 0.000379056 -0.000278544
0.00583773 -1.31823e-05 0.000425645
0.00578247 -0.00057801 -0.000232362
0.00607757 0.00030764 -0.000281177
0.00586289 0.000361376 -0.00027838
0.00613408 0.000530294 2.49511e-05
0.00617861 -2.54973e-05 0.000460861
0.00600268 -6.92849e-05 0.000467551
0.00592403 -4.68844e-05 0.000449633
0.00590682 -3.09176e-05 0.000441739
0.00633166 0.000205764 -0.000271367
0.00579652 5.7397e-05 0.000388269
0.00542784 8.85158e-05 0.000341243
0.00608275 0.00052066 2.89241e-05
0.00568166 8.76004e-05 0.000307256
0.0064841 0.000573369 4.61632e-05
0.00598968 -5.58825e-05 0.000458376
0.00569965 3.51308e-05 0.00039009
0.00575342 5.67728e-05 0.000382006
0.00588532 -4.68137e-05 0.000446913
0.00599371 -0.000561963 -0.000226698
0.00567873 0.000191766 0.000347163
0.00630927 0.000254583 -0.000279828
0.00537982 0.000125415 0.000320873
0.00602501 0.000296605 -0.00027473
0.0057114 5.7421e-05 0.000379215
0.00582001 3.63883e-05 0.000398039
0.0059364 -4.09324e-05 0.000445903
0.00566284 0.000167514 0.000309585
0.00593622 0.000348055 -0.000280377
0.00575589 0.00048619 3.3134e-05
0.00577407 3.15706e-05 0.000397445
0.00635588 -6.78231e-05 -0.000354705
0.00570343 0.000156274 0.00032556
0.00597443 -6.39562e-05 0.000464576
0.00586631 -2.79854e-05 0.000435791
0.00554297 6.0544e-07 0.000399438
0.00589466 8.16266e-05 0.000384213
0.00587764 -2.2639e-05 0.000433829
0.0061393 1.94227e-06 0.000452538
0.00629345 0.000558553 -0.000672432
0.00538411 0.000107483 0.000330093
0.00537448 0.000492784 -0.000278368
0.00557906 4.59245e-05 0.000375496
0.00573207 -0.000470904 9.89944e-05
0.00597418 0.000512278 2.86008e-05
0.00628248 0.00035788 -0.000251579
0.0059934 -0.000562496 -0.000218364

VECTORS force float
-2.23835e-12 9.27771e-11 4.63045e-11
-1.3044e-10 1.56471e-10 -2.24958e-11
-4.6725e-10 5.19761e-10 -1.39793e-10
-8.66367e-11 1.10304e-10 -3.07575e-11
-1.95888e-12 2.50305e-11 -6.40702e-12
-2.6788e-11 3.11325e-11 -2.94224e-11
3.00949e-10 -3.12673e-11 1.13577e-10
-1.09232e-10 4.40362e-11 -5.22381e-11
-1.0689e-10 -1.21087e-11 1.33604e-11
-4.54993e-12 9.88015e-11 -3.67011e-11
-5.24064e-11 1.82558e-10 -2.77168e-10
1.8485e-10 -2.30757e-11 6.91506e-11
8.9913e-11 7.40887e-11 -1.41501e-10
-2.60668e-11 -9.21015e-11 3.2678e-11
4.24161e-10 -8.71417e-11 4.23896e-12
-1.40452e-10 4.56612e-11 -3.22106e-11
-1.30533e-10 3.76728e-10 -7.24339e-11
-5.91141e-12 3.88784e-11 -6.39201e-11
3.63229e-12 -4.57392e-11 1.83256e-11
5.94833e-11 1.02456e-10 -4.52924e-11
-4.62265e-10 6.57363e-11 -7.45656e-11
-1.91978e-11 -3.01429e-11 4.56529e-11
-4.83236e-11 -8.80363e-11 8.7072e-11
-4.84613e-11 4.62094e-11 2.17749e-11
-2.04621e-10 9.85425e-11 -1.29995e-09
-8.52804e-11 3.6787e-11 -1.07872e-10
3.52799e-11 -4.90436e-11 6.58774e-11
-1.04763e-11 1.78433e-10 -7.9934e-11
-3.45658e-11 -7.8323e-11 9.37438e-11
-3.07791e-11 1.18137e-10 -4.07304e-11
-1.53952e-11 -2.66866e-11 -5.82577e-11
3.29688e-10 -6.21788e-11 6.81942e-11
5.24748e-11 -5.09116e-12 -5.07286e-12
5.38508e-11 4.28399e-11 6.85604e-11
-3.5395e-11 -5.35741e-11 2.92243e-11
1.57597e-12 1.13885e-10 -2.70493e-11
-4.08446e-12 -6.82457e-12 -4.64743e-11
-3.83436e-11 4.39237e-11 -1.02483e-11
-4.65289e-24 -7.36061e-24 2.06795e-25
2.28346e-10 -1.63704e-10 2.25329e-11
-8.63154e-11 -3.24895e-11 -1.80717e-11
-1.80758e-10 5.79647e-11 -1.05798e-11
-2.47238e-11 7.96055e-11 -6.52483e-11
2.89224e-11 -7.74215e-11 -1.46808e-11
-6.79817e-11 -7.71908e-11 2.23511e-11
-1.04671e-10 9.78303e-11 -6.4018e-11
9.84004e-11 5.8546e-11 -2.04928e-11
-8.57301e-11 4.38733e-11 3.73521e-13
2.08222e-10 -4.1851e-10 -2.51814e-10
5.89908e-11 5.34168e-12 -5.71004e-12
-1.33308e-10 7.64499e-11 5.65162e-11
-5.13462e-11 3.63373e-11 -9.91276e-12
3.52584e-11 -4.60344e-11 -1.28473e-11
-1.55075e-10 -4.40764e-11 3.45703e-11
-2.71736e-11 -2.04201e-12 2.26128e-11
1.31146e-11 4.95189e-11 5.01947e-11
-2.08402e-10 1.13569e-10 -5.52063e-11
5.85836e-10 -2.1309e-10 1.66939e-10
-9.27187e-11 -6.66559e-13 -8.70291e-12
-1.44027e-10 7.75616e-11 -1.58774e-11
4.99213e-11 1.68383e-10 4.76392e-11
1.11288e-10 1.9525e-11 -1.33472e-12
-6.05641e-10 -6.76601e-11 -1.82966e-10
-5.13492e-11 5.51451e-11 -4.15665e-10
-4.25074e-11 -1.70386e-10 -1.52438e-11
-7.9355e-11 4.41301e-11 5.41103e-11
-4.21861e-10 6.39153e-11 -4.92909e-11
-4.85186e-12 -1.48269e-11 1.20438e-11
-1.48474e-10 2.6642e-11 -1.1219e-10
2.79436e-11 1.03611e-10 -3.36441e-10
-5.95396e-11 4.37327e-11 1.56754e-11
-6.32464e-11 3.46439e-11 3.97631e-13
1.29715e-10 6.46139e-12 9.46122e-12
-9.53701e-11 1.94449e-11 2.2394e-12
-3.45686e-11 1.28604e-11 7.38189e-11
4.05826e-10 1.67729e-11 9.51048e-11
-1.14135e-10 -6.65176e-11 1.36328e-11
-9.54578e-11 3.05085e-11 -5.08182e-12
1.71617e-09 -3.17049e-10 -1.18929e-10
1.68009e-12 1.36035e-10 -5.97404e-11
-1.31607e-11 2.39854e-11 -6.46785e-11
7.18193e-11 -1.1739e-10 -6.08745e-11
4.90237e-11 -3.00716e-11 1.83636e-11
-1.75676e-11 -1.605e-10 6.4321e-12
1.74473e-12 -5.44914e-11 -2.41182e-10
-5.2965e-11 -5.62479e-11 3.92454e-11
5.74518e-11 -4.89056e-10 -1.18882e-10
2.50322e-10 -3.56929e-10 2.02761e-10
-6.41268e-11 1.02484e-10 -3.43874e-10
1.2101e-10 1.60175e-10 -8.31131e-11
-1.95785e-10 -4.32461e-11 -1.09951e-10
8.21189e-11 7.38664e-11 7.89895e-11
9.59995e-22 -1.31237e-22 -3.3294e-23
0.0 0.0 0.0
1.85643e-10 2.52194e-10 -4.2295e-10
4.62655e-11 1.23841e-11 1.01244e-10
1.21165e-11 1.72593e-10 -1.18508e-14
3.11499e-11 1.2197e-10 -2.30217e-10
-1.86566e-10 6.79224e-11 -1.77043e-11
1.57803e-10 -1.46585e-10 -2.96713e-11
-7.65643e-10 -3.51165e-10 4.024e-10
-6.77307e-11 -4.24254e-11 -1.07079e-11
-9.63912e-10 8.22835e-10 -2.09688e-11
1.61179e-11 -1.28931e-10 8.34323e-11
6.31729e-11 8.13116e-11 -1.25013e-10
1.33206e-10 -6.93164e-11 3.75119e-11
-1.64584e-10 -3.05149e-11 -6.50827e-11
3.57774e-11 -6.88447e-11 5.47087e-11