# vtk DataFile Version 3.0
LIGGGHTS particles timestep 7400000
ASCII
DATASET POLYDATA
POINTS 287 float
0.0559746 0.0165126 0.00807439
0.0563603 0.0171752 0.00727499
0.0498187 0.0161962 0.00819842
0.0562827 0.0176786 0.00720797
0.0558588 0.0164423 0.00818026
0.061978 0.016704 0.00765368
0.0560405 0.0169774 0.00748759
0.0557502 0.0161212 0.00854674
0.0622233 0.0178091 0.00714447
0.0559873 0.0167776 0.00770115
0.0563996 0.0173579 0.00720956
0.0500182 0.0168569 0.00747536
0.055837 0.0163707 0.00824652
0.0497318 0.0159356 0.00848867
0.0561656 0.0170965 0.0072867
0.0497101 0.0158703 0.00856129
0.055966 0.0167192 0.00777955
0.0621111 0.0172581 0.00724718
0.0558153 0.0163114 0.00832406
0.0559563 0.016461 0.00815803
0.0560726 0.017094 0.00733884
0.0501895 0.0172285 0.00728132
0.0621667 0.0175147 0.00713275
0.056024 0.016919 0.00756736
0.0620541 0.0170206 0.00742139
0.0500947 0.0171999 0.00729622
0.0562623 0.0175808 0.00720327
0.0557936 0.0162491 0.0083992
0.0562986 0.0173107 0.00719886
0.0560533 0.0170087 0.00738734
0.0561507 0.0170381 0.00736648
0.0619973 0.0167831 0.00759564
0.0559445 0.0166608 0.00785781
0.056131 0.0169796 0.00744519
0.0622655 0.0180044 0.00715311
0.0560981 0.0168627 0.00760407
0.0562439 0.0170673 0.00734502
0.0621849 0.017613 0.00713566
0.0559011 0.016544 0.00801428
0.0560897 0.0171569 0.00726259
0.0562629 0.017126 0.00726561
0.0620165 0.0168622 0.0075376
0.0620915 0.017179 0.00730518
0.0559228 0.0166024 0.00793604
0.0561285 0.0173425 0.00720261
0.0620731 0.0170998 0.00736332
0.056186 0.0176452 0.00719807
0.0561675 0.0175468 0.00719555
0.05 0.0167864 0.00754385
0.0621299 0.0173373 0.00718908
0.0559326 0.0163903 0.00822462
0.0497774 0.0160694 0.00834733
0.0561144 0.0169212 0.0075246
0.0620353 0.0169414 0.0074795
0.0561756 0.0168361 0.00766548
0.0561907 0.0168963 0.0075871
0.0558795 0.0164856 0.00809253
0.0562807 0.0172161 0.00722581
0.0562225 0.0173754 0.00719369
0.0621477 0.0174166 0.00713086
0.0501101 0.0168703 0.00743713
0.0500599 0.0166802 0.00766819
0.0563828 0.0172613 0.0072295
0.0563392 0.0175195 0.00722163
0.0560395 0.0166878 0.00783969
0.062203 0.0177113 0.00714012
0.0497536 0.0160008 0.00841605
0.0563225 0.0174216 0.00721035
0.0560073 0.0168584 0.0076457
0.0561867 0.017187 0.00724365
0.050329 0.0178754 0.00705184
0.0564338 0.018362 0.00721302
0.0498404 0.0162615 0.0081258
0.0500368 0.0169348 0.00741553
0.0562508 0.0179393 0.00721408
0.049983 0.0167201 0.00761677
0.0501142 0.0172873 0.00725182
0.0501178 0.0165502 0.00777505
0.0622438 0.0179069 0.00714882
0.0499375 0.0162758 0.00809494
0.0562441 0.0174826 0.00719877
0.0561584 0.0167744 0.00774225
0.0563159 0.0182322 0.00721704
0.0562725 0.0180369 0.00721733
0.056339 0.0170933 0.00732825
0.0500556 0.0170129 0.00735596
0.0563797 0.0177148 0.00723684
0.0563698 0.018069 0.00721736
0.0564473 0.0180055 0.00721938
0.0562292 0.0178418 0.00720771
0.0564036 0.0178104 0.00722001
0.049947 0.0165889 0.00776334
0.0563378 0.0183304 0.00721558
0.0500947 0.016803 0.00751626
0.0563047 0.0169767 0.00748704
0.0500421 0.0166039 0.00773035
0.0643568 0.0187248 0.00531097
0.24257 0.0191927 0.00520306
0.0503433 0.0175365 0.00717164
0.0499056 0.0164571 0.00790794
0.0504193 0.0174779 0.0072011
0.0498622 0.0163267 0.00805324
0.0560826 0.0168042 0.00768372
0.0561483 0.0174423 0.00718875
0.0564826 0.0177485 0.00721783
0.056381 0.0185243 0.00721268
0.0499658 0.0166549 0.00769061
0.0506301 0.0176322 0.00715709
0.0502829 0.0172682 0.00728958
0.0562044 0.0172774 0.00720412
0.0560593 0.0167526 0.00776609
0.0559121 0.0163259 0.00829839
0.049797 0.016131 0.00827104
0.0562081 0.0169496 0.00750428
0.0557719 0.016185 0.00847282
0.0557285 0.016058 0.00862113
0.0565039 0.0178462 0.00721639
0.0499809 0.0164063 0.00794968
0.0563263 0.0178739 0.00721762
0.05589 0.0162611 0.00837129
0.0561091 0.0172464 0.00722246
0.0499268 0.0165224 0.00783528
0.0562075 0.0177443 0.00720291
0.0562942 0.0181345 0.0072185
0.0502092 0.0173202 0.00724654
0.0500765 0.0167513 0.00759994
0.0563044 0.0177761 0.00721278
0.0560722 0.0165301 0.00804683
0.0562259 0.0170082 0.00742525
0.0558672 0.0161982 0.00844554
0.0499157 0.0162106 0.00816759
0.0564027 0.0186219 0.00721123
0.0560179 0.0166295 0.00791796
0.0565424 0.0180357 0.00721365
0.0499592 0.016341 0.00802233
0.0503042 0.0173531 0.00724123
0.049884 0.0163922 0.00798085
0.0502602 0.0171817 0.00733431
0.0501383 0.0166157 0.00770232
0.0498939 0.0161453 0.00824021
0.0501732 0.0175624 0.00714748
0.0564686 0.0181031 0.00721472
0.0501698 0.0167487 0.00755634
0.0504944 0.0174176 0.00723119
0.0500228 0.0165377 0.00780364
0.0502681 0.0175954 0.00714211
0.0503504 0.0179711 0.00703246
0.0502486 0.0175037 0.00717692
0.0219312 0.0187687 0.00551176
0.050363 0.0176282 0.00713687
0.05636 0.0176171 0.00722898
0.0502532 0.0179399 0.00704245
0.0502882 0.0176876 0.00710718
0.050512 0.0182905 0.00696843
0.0505558 0.0176922 0.00712721
0.0560287 0.0164024 0.00819444
0.050152 0.0166826 0.00762925
0.0504397 0.0175694 0.00716643
0.0506515 0.0177235 0.00712258
0.0504796 0.0177527 0.00709697
0.0560502 0.0164657 0.00812003
0.0505346 0.0176008 0.00716176
0.0564343 0.017119 0.00731205
0.0504044 0.0178116 0.00706745
0.0440557 0.0170783 0.00751279
0.0502289 0.017412 0.00721173
0.0502964 0.018132 0.00700642
0.0506089 0.0175407 0.00719165
0.0505979 0.017875 0.00705805
0.0502126 0.0177464 0.00707864
0.0559963 0.0165711 0.00799618
0.0504602 0.017661 0.00713178
0.0562984 0.0176498 0.00730243
0.0501535 0.0174707 0.00718226
0.0501929 0.0176544 0.00711257
0.056286 0.0169179 0.00756577
0.0563914 0.0181666 0.00721881
0.0563205 0.0170354 0.00740765
0.0441577 0.0171177 0.00750504
0.0564244 0.0187195 0.00720977
0.0503798 0.0172946 0.00727064
0.0561351 0.016716 0.00782008
0.0502168 0.0169142 0.00745972
0.0505773 0.0177835 0.00709271
0.0496884 0.0158051 0.00863391
0.0441188 0.0173587 0.00742691
0.0500752 0.0171046 0.00732115
0.0503085 0.0177796 0.00707233
0.0501697 0.0171369 0.00731608
0.0506088 0.0183212 0.00695854
0.0503994 0.0173863 0.00723585
0.0564936 0.0173907 0.0072192
0.0501502 0.0170452 0.00735087
0.0504692 0.0180985 0.0070045
0.0504255 0.0179056 0.00704064
0.0500025 0.0164719 0.00787667
0.050383 0.0177198 0.00710211
0.0501898 0.0168243 0.00749403
0.0561465 0.0171348 0.00739255
0.0564254 0.017908 0.00722202
0.0505011 0.0178458 0.00706735
0.0562708 0.0168594 0.00764543
0.056348 0.0179714 0.00721966
0.0441329 0.0170192 0.00753622
0.0502748 0.0180361 0.00702442
0.0560935 0.0165945 0.00797333
0.0503936 0.0181636 0.00699637
0.0563593 0.0184275 0.00722527
0.0502319 0.0178428 0.00706067
0.0440363 0.0165564 0.00769104
0.0561146 0.0166565 0.00789776
0.0503238 0.0174448 0.00720645
0.0501339 0.017379 0.00721704
0.0564181 0.017456 0.00721414
0.0505141 0.0175092 0.00719642
0.0441579 0.0166896 0.00765033
0.0440763 0.0171714 0.00748271
0.0501601 0.017376 0.00731348
0.0505552 0.0184826 0.00693239
0.0440359 0.0169854 0.00754384
0.0500974 0.0164847 0.00784777
0.0502237 0.0169893 0.00739054
0.0564128 0.0182642 0.00721446
0.0505983 0.0186746 0.00689639
0.0505768 0.0185786 0.00691439
0.050652 0.0185132 0.00692254
0.0438595 0.0161817 0.00787048
0.0439173 0.0164275 0.00773034
0.0438407 0.0161232 0.00794934
0.0503424 0.0171111 0.00734041
0.0501304 0.0169535 0.00738564
0.0438773 0.0162417 0.00779246
0.0439967 0.0167993 0.00760605
0.0504906 0.0181945 0.00698644
0.0506611 0.0181583 0.00698503
0.0441717 0.0174407 0.00740481
0.050372 0.0180671 0.00701446
0.0564563 0.0176522 0.00722234
0.0441801 0.0176287 0.00734647
0.044076 0.0167428 0.00762873
0.0439773 0.0167063 0.00763716
0.0498722 0.0160801 0.00831283
0.0504475 0.0180021 0.0070228
0.0503613 0.018421 0.00695223
0.0504153 0.0182598 0.00697831
0.0442013 0.0177223 0.00731856
0.0502437 0.0170868 0.00736104
0.050523 0.0187398 0.00688829
0.0506304 0.0184172 0.00694054
0.0439574 0.0166134 0.00766823
0.0503828 0.018517 0.00693422
0.0440976 0.0172651 0.00745481
0.0504747 0.0173259 0.00726596
0.0504583 0.0184519 0.0069423
0.0501402 0.017284 0.00734833
0.0503396 0.0183247 0.00697028
0.056437 0.0175541 0.00721866
0.0505234 0.0179391 0.00703928
0.0442978 0.0177548 0.00731493
0.0504475 0.0188049 0.00688022
0.0442225 0.017816 0.00729066
0.0504368 0.0183559 0.0069603
0.050318 0.0182285 0.00698832
0.0504691 0.0189009 0.00686221
0.0505659 0.0181292 0.00699455
0.0440163 0.0168923 0.00757495
0.0442317 0.0170551 0.00752966
0.0503173 0.0170204 0.00737435
0.0440563 0.0166494 0.00765994
0.0438973 0.0163346 0.0077614
0.0505014 0.0186438 0.00690629
0.0504798 0.0185478 0.0069243
0.0504044 0.0186129 0.00691622
0.0505335 0.0183865 0.00695043
0.0504259 0.0187089 0.00689822
0.0503023 0.0169281 0.00740976
0.0503575 0.0172034 0.00730502
0.0505873 0.0182252 0.00697655
0.0500756 0.0164195 0.00792039
0.0505445 0.0180335 0.0070138
0.0504875 0.0189975 0.00684424
0.0441131 0.0169263 0.00756729
0.0506735 0.0186091 0.00690454
0.0562532 0.0168001 0.00772398
0.0439374 0.0165205 0.00769929
0.0441588 0.017535 0.00737437
0.0562182 0.0171783 0.00733817

VERTICES 287 574
1 0
1 1
1 2
1 3
1 4
1 5
1 6
1 7
1 8
1 9
1 10
1 11
1 12
1 13
1 14
1 15
1 16
1 17
1 18
1 19
1 20
1 21
1 22
1 23
1 24
1 25
1 26
1 27
1 28
1 29
1 30
1 31
1 32
1 33
1 34
1 35
1 36
1 37
1 38
1 39
1 40
1 41
1 42
1 43
1 44
1 45
1 46
1 47
1 48
1 49
1 50
1 51
1 52
1 53
1 54
1 55
1 56
1 57
1 58
1 59
1 60
1 61
1 62
1 63
1 64
1 65
1 66
1 67
1 68
1 69
1 70
1 71
1 72
1 73
1 74
1 75
1 76
1 77
1 78
1 79
1 80
1 81
1 82
1 83
1 84
1 85
1 86
1 87
1 88
1 89
1 90
1 91
1 92
1 93
1 94
1 95
1 96
1 97
1 98
1 99
1 100
1 101
1 102
1 103
1 104
1 105
1 106
1 107
1 108
1 109
1 110
1 111
1 112
1 113
1 114
1 115
1 116
1 117
1 118
1 119
1 120
1 121
1 122
1 123
1 124
1 125
1 126
1 127
1 128
1 129
1 130
1 131
1 132
1 133
1 134
1 135
1 136
1 137
1 138
1 139
1 140
1 141
1 142
1 143
1 144
1 145
1 146
1 147
1 148
1 149
1 150
1 151
1 152
1 153
1 154
1 155
1 156
1 157
1 158
1 159
1 160
1 161
1 162
1 163
1 164
1 165
1 166
1 167
1 168
1 169
1 170
1 171
1 172
1 173
1 174
1 175
1 176
1 177
1 178
1 179
1 180
1 181
1 182
1 183
1 184
1 185
1 186
1 187
1 188
1 189
1 190
1 191
1 192
1 193
1 194
1 195
1 196
1 197
1 198
1 199
1 200
1 201
1 202
1 203
1 204
1 205
1 206
1 207
1 208
1 209
1 210
1 211
1 212
1 213
1 214
1 215
1 216
1 217
1 218
1 219
1 220
1 221
1 222
1 223
1 224
1 225
1 226
1 227
1 228
1 229
1 230
1 231
1 232
1 233
1 234
1 235
1 236
1 237
1 238
1 239
1 240
1 241
1 242
1 243
1 244
1 245
1 246
1 247
1 248
1 249
1 250
1 251
1 252
1 253
1 254
1 255
1 256
1 257
1 258
1 259
1 260
1 261
1 262
1 263
1 264
1 265
1 266
1 267
1 268
1 269
1 270
1 271
1 272
1 273
1 274
1 275
1 276
1 277
1 278
1 279
1 280
1 281
1 282
1 283
1 284
1 285
1 286

POINT_DATA 287
SCALARS id int 1
LOOKUP_TABLE default
1
2
3
4
5
6
7
8
9
10
11
12
13
14
15
16
17
18
19
21
22
23
24
25
26
27
28
29
30
31
32
33
34
35
36
37
38
39
41
42
44
45
46
47
48
49
50
51
52
53
54
55
56
57
59
60
61
62
63
64
65
66
67
68
69
70
71
72
73
74
76
77
78
79
80
81
82
83
84
85
86
87
88
89
90
91
92
93
94
95
96
97
98
99
100
101
102
103
104
105
106
107
108
109
110
111
112
113
114
115
116
117
118
119
120
121
122
123
124
125
126
127
128
129
130
131
132
133
134
135
136
137
138
140
141
142
143
144
146
147
148
149
150
151
153
154
155
156
157
158
159
160
162
164
165
166
167
168
169
170
171
172
173
174
175
176
177
178
179
181
182
183
184
185
186
187
188
189
190
191
192
193
194
195
196
197
198
199
200
201
202
203
204
205
206
207
208
209
210
211
212
213
214
215
216
217
218
219
220
221
222
223
224
225
226
227
228
229
230
231
232
233
234
235
236
237
239
240
241
242
243
244
246
247
248
249
250
251
252
253
254
255
256
257
258
259
260
261
262
263
264
265
266
267
268
269
270
271
272
273
274
275
276
277
278
279
280
281
282
283
284
285
286
287
288
289
290
291
292
293
294
295
296
297
298
299
300

SCALARS type int 1
LOOKUP_TABLE default
1
1
1
1
1
1
1
1
1
1
1
1
1
1
1
1
1
1
1
1
1
1
1
1
1
1
1
1
1
1
1
1
1
1
1
1
1
1
1
1
1
1
1
1
1
1
1
1
1
1
1
1
1
1
1
1
1
1
1
1
1
1
1
1
1
1
1
1
1
1
1
1
1
1
1
1
1
1
1
1
1
1
1
1
1
1
1
1
1
1
1
1
1
1
1
1
1
1
1
1
1
1
1
1
1
1
1
1
1
1
1
1
1
1
1
1
1
1
1
1
1
1
1
1
1
1
1
1
1
1
1
1
1
1
1
1
1
1
1
1
1
1
1
1
1
1
1
1
1
1
1
1
1
1
1
1
1
1
1
1
1
1
1
1
1
1
1
1
1
1
1
1
1
1
1
1
1
1
1
1
1
1
1
1
1
1
1
1
1
1
1
1
1
1
1
1
1
1
1
1
1
1
1
1
1
1
1
1
1
1
1
1
1
1
1
1
1
1
1
1
1
1
1
1
1
1
1
1
1
1
1
1
1
1
1
1
1
1
1
1
1
1
1
1
1
1
1
1
1
1
1
1
1
1
1
1
1
1
1
1
1
1
1
1
1
1
1
1
1
1
1
1
1
1
1
1
1
1
1
1
1
1
1
1
1
1
1

SCALARS radius float 1
LOOKUP_TABLE default
5e-05
5e-05
5e-05
5e-05
5e-05
5e-05
5e-05
5e-05
5e-05
5e-05
5e-05
5e-05
5e-05
5e-05
5e-05
5e-05
5e-05
5e-05
5e-05
5e-05
5e-05
5e-05
5e-05
5e-05
5e-05
5e-05
5e-05
5e-05
5e-05
5e-05
5e-05
5e-05
5e-05
5e-05
5e-05
5e-05
5e-05
5e-05
5e-05
5e-05
5e-05
5e-05
5e-05
5e-05
5e-05
5e-05
5e-05
5e-05
5e-05
5e-05
5e-05
5e-05
5e-05
5e-05
5e-05
5e-05
5e-05
5e-05
5e-05
5e-05
5e-05
5e-05
5e-05
5e-05
5e-05
5e-05
5e-05
5e-05
5e-05
5e-05
5e-05
5e-05
5e-05
5e-05
5e-05
5e-05
5e-05
5e-05
5e-05
5e-05
5e-05
5e-05
5e-05
5e-05
5e-05
5e-05
5e-05
5e-05
5e-05
5e-05
5e-05
5e-05
5e-05
5e-05
5e-05
5e-05
5e-05
5e-05
5e-05
5e-05
5e-05
5e-05
5e-05
5e-05
5e-05
5e-05
5e-05
5e-05
5e-05
5e-05
5e-05
5e-05
5e-05
5e-05
5e-05
5e-05
5e-05
5e-05
5e-05
5e-05
5e-05
5e-05
5e-05
5e-05
5e-05
5e-05
5e-05
5e-05
5e-05
5e-05
5e-05
5e-05
5e-05
5e-05
5e-05
5e-05
5e-05
5e-05
5e-05
5e-05
5e-05
5e-05
5e-05
5e-05
5e-05
5e-05
5e-05
5e-05
5e-05
5e-05
5e-05
5e-05
5e-05
5e-05
5e-05
5e-05
5e-05
5e-05
5e-05
5e-05
5e-05
5e-05
5e-05
5e-05
5e-05
5e-05
5e-05
5e-05
5e-05
5e-05
5e-05
5e-05
5e-05
5e-05
5e-05
5e-05
5e-05
5e-05
5e-05
5e-05
5e-05
5e-05
5e-05
5e-05
5e-05
5e-05
5e-05
5e-05
5e-05
5e-05
5e-05
5e-05
5e-05
5e-05
5e-05
5e-05
5e-05
5e-05
5e-05
5e-05
5e-05
5e-05
5e-05
5e-05
5e-05
5e-05
5e-05
5e-05
5e-05
5e-05
5e-05
5e-05
5e-05
5e-05
5e-05
5e-05
5e-05
5e-05
5e-05
5e-05
5e-05
5e-05
5e-05
5e-05
5e-05
5e-05
5e-05
5e-05
5e-05
5e-05
5e-05
5e-05
5e-05
5e-05
5e-05
5e-05
5e-05
5e-05
5e-05
5e-05
5e-05
5e-05
5e-05
5e-05
5e-05
5e-05
5e-05
5e-05
5e-05
5e-05
5e-05
5e-05
5e-05
5e-05
5e-05
5e-05
5e-05
5e-05
5e-05
5e-05
5e-05
5e-05
5e-05
5e-05
5e-05
5e-05
5e-05
5e-05
5e-05
5e-05
5e-05
5e-05
5e-05
5e-05
5e-05
5e-05
5e-05
5e-05
5e-05
5e-05
5e-05
5e-05
5e-05
5e-05
5e-05
5e-05
5e-05

SCALARS mass float 1
LOOKUP_TABLE default
1.46608e-10
1.46608e-10
1.46608e-10
1.46608e-10
1.46608e-10
1.46608e-10
1.46608e-10
1.46608e-10
1.46608e-10
1.46608e-10
1.46608e-10
1.46608e-10
1.46608e-10
1.46608e-10
1.46608e-10
1.46608e-10
1.46608e-10
1.46608e-10
1.46608e-10
1.46608e-10
1.46608e-10
1.46608e-10
1.46608e-10
1.46608e-10
1.46608e-10
1.46608e-10
1.46608e-10
1.46608e-10
1.46608e-10
1.46608e-10
1.46608e-10
1.46608e-10
1.46608e-10
1.46608e-10
1.46608e-10
1.46608e-10
1.46608e-10
1.46608e-10
1.46608e-10
1.46608e-10
1.46608e-10
1.46608e-10
1.46608e-10
1.46608e-10
1.46608e-10
1.46608e-10
1.46608e-10
1.46608e-10
1.46608e-10
1.46608e-10
1.46608e-10
1.46608e-10
1.46608e-10
1.46608e-10
1.46608e-10
1.46608e-10
1.46608e-10
1.46608e-10
1.46608e-10
1.46608e-10
1.46608e-10
1.46608e-10
1.46608e-10
1.46608e-10
1.46608e-10
1.46608e-10
1.46608e-10
1.46608e-10
1.46608e-10
1.46608e-10
1.46608e-10
1.46608e-10
1.46608e-10
1.46608e-10
1.46608e-10
1.46608e-10
1.46608e-10
1.46608e-10
1.46608e-10
1.46608e-10
1.46608e-10
1.46608e-10
1.46608e-10
1.46608e-10
1.46608e-10
1.46608e-10
1.46608e-10
1.46608e-10
1.46608e-10
1.46608e-10
1.46608e-10
1.46608e-10
1.46608e-10
1.46608e-10
1.46608e-10
1.46608e-10
1.46608e-10
1.46608e-10
1.46608e-10
1.46608e-10
1.46608e-10
1.46608e-10
1.46608e-10
1.46608e-10
1.46608e-10
1.46608e-10
1.46608e-10
1.46608e-10
1.46608e-10
1.46608e-10
1.46608e-10
1.46608e-10
1.46608e-10
1.46608e-10
1.46608e-10
1.46608e-10
1.46608e-10
1.46608e-10
1.46608e-10
1.46608e-10
1.46608e-10
1.46608e-10
1.46608e-10
1.46608e-10
1.46608e-10
1.46608e-10
1.46608e-10
1.46608e-10
1.46608e-10
1.46608e-10
1.46608e-10
1.46608e-10
1.46608e-10
1.46608e-10
1.46608e-10
1.46608e-10
1.46608e-10
1.46608e-10
1.46608e-10
1.46608e-10
1.46608e-10
1.46608e-10
1.46608e-10
1.46608e-10
1.46608e-10
1.46608e-10
1.46608e-10
1.46608e-10
1.46608e-10
1.46608e-10
1.46608e-10
1.46608e-10
1.46608e-10
1.46608e-10
1.46608e-10
1.46608e-10
1.46608e-10
1.46608e-10
1.46608e-10
1.46608e-10
1.46608e-10
1.46608e-10
1.46608e-10
1.46608e-10
1.46608e-10
1.46608e-10
1.46608e-10
1.46608e-10
1.46608e-10
1.46608e-10
1.46608e-10
1.46608e-10
1.46608e-10
1.46608e-10
1.46608e-10
1.46608e-10
1.46608e-10
1.46608e-10
1.46608e-10
1.46608e-10
1.46608e-10
1.46608e-10
1.46608e-10
1.46608e-10
1.46608e-10
1.46608e-10
1.46608e-10
1.46608e-10
1.46608e-10
1.46608e-10
1.46608e-10
1.46608e-10
1.46608e-10
1.46608e-10
1.46608e-10
1.46608e-10
1.46608e-10
1.46608e-10
1.46608e-10
1.46608e-10
1.46608e-10
1.46608e-10
1.46608e-10
1.46608e-10
1.46608e-10
1.46608e-10
1.46608e-10
1.46608e-10
1.46608e-10
1.46608e-10
1.46608e-10
1.46608e-10
1.46608e-10
1.46608e-10
1.46608e-10
1.46608e-10
1.46608e-10
1.46608e-10
1.46608e-10
1.46608e-10
1.46608e-10
1.46608e-10
1.46608e-10
1.46608e-10
1.46608e-10
1.46608e-10
1.46608e-10
1.46608e-10
1.46608e-10
1.46608e-10
1.46608e-10
1.46608e-10
1.46608e-10
1.46608e-10
1.46608e-10
1.46608e-10
1.46608e-10
1.46608e-10
1.46608e-10
1.46608e-10
1.46608e-10
1.46608e-10
1.46608e-10
1.46608e-10
1.46608e-10
1.46608e-10
1.46608e-10
1.46608e-10
1.46608e-10
1.46608e-10
1.46608e-10
1.46608e-10
1.46608e-10
1.46608e-10
1.46608e-10
1.46608e-10
1.46608e-10
1.46608e-10
1.46608e-10
1.46608e-10
1.46608e-10
1.46608e-10
1.46608e-10
1.46608e-10
1.46608e-10
1.46608e-10
1.46608e-10
1.46608e-10
1.46608e-10
1.46608e-10
1.46608e-10
1.46608e-10
1.46608e-10
1.46608e-10
1.46608e-10
1.46608e-10
1.46608e-10
1.46608e-10
1.46608e-10
1.46608e-10
1.46608e-10
1.46608e-10
1.46608e-10
1.46608e-10
1.46608e-10
1.46608e-10
1.46608e-10

VECTORS velocity float
0.0057952 0.000364249 0.000385484
0.00558963 0.000489325 0.000552003
0.00593533 -0.000334404 -0.000604323
0.0058965 0.00029375 0.000567606
0.00568283 0.000501555 0.000487155
0.00562673 0.000480979 -0.000209789
0.00540928 0.000127235 0.000485181
0.00561379 -0.000443732 -0.000117592
0.00583761 0.00040142 -0.00019611
0.00572974 0.000498597 0.000540159
0.00573896 0.000446003 0.000546017
0.00555115 -6.21383e-05 -0.000414579
0.00567783 0.000498221 0.00050775
0.00593659 -0.000325717 -0.000612977
0.00561205 0.000507682 0.000489592
0.00593688 -0.000325089 -0.000613339
0.00571934 0.000466606 0.000549781
0.0056984 0.000413134 -0.000158955
0.00564187 -0.00015859 1.97824e-05
0.00581291 0.000121794 0.000238264
0.00561819 0.00053461 0.000453281
0.00563988 0.000369688 0.000307324
0.00576834 0.000423345 -0.000180085
0.00531126 -0.000440735 0.000193939
0.0055869 0.000416571 -0.00015914
0.00564245 0.000368 0.000332669
0.00568625 0.000340026 0.000537026
0.00560579 -0.00142485 -0.0010072
0.00570739 0.00051335 0.000549899
0.00560176 0.000537433 0.000399175
0.00555909 0.000497434 0.000477283
0.00564783 0.000433164 -0.000176296
0.00573143 0.000473167 0.00054639
0.00549142 0.000491828 0.000497854
0.00601733 0.000352604 -0.000205391
0.00553625 0.000513935 0.000480506
0.00556247 0.000480908 0.000503237
0.00572591 0.000432468 -0.000189604
0.0056998 0.000481273 0.000534304
0.00571221 0.000511366 0.000130683
0.00556986 0.000409353 0.000609847
0.00566222 0.000417699 -0.000160065
0.00565906 0.000413729 -0.000157414
0.0057165 0.000477012 0.000539807
0.00570248 0.000375003 0.000179066
0.00562183 0.000404405 -0.000155028
0.00538489 0.000109026 0.000485026
0.00560646 0.000287291 0.000350488
0.0054738 -0.000273486 -0.000659446
0.00577781 0.000409274 -0.000153731
0.005696 -7.42444e-05 3.39506e-06
0.00593176 -0.000330485 -0.000605101
0.00552822 0.000489693 0.000516659
0.00562814 0.000431654 -0.000161888
0.00554789 0.000520154 0.000433698
0.00550325 0.000515203 0.000446609
0.00569259 0.000489275 0.000505522
0.00575611 0.000244063 -0.000409069
0.00568709 0.000481045 0.000538954
0.00579898 0.000414905 -0.000155063
0.00548713 -0.000174688 -0.000720661
0.00550694 -0.000299601 -0.00072781
0.00568626 0.000466606 0.000570577
0.00579101 0.000428648 0.000465825
0.00573212 0.000495279 0.00052564
0.00567719 0.000440542 -0.000188579
0.00593524 -0.000328964 -0.000609207
0.00571943 0.000432633 0.0005514
0.00538063 0.000383378 0.000106856
0.00576601 0.00047019 8.19174e-05
0.00615959 0.000163014 0.000115421
0.00593236 0.000324711 -0.000146635
0.00596089 -0.000342065 -0.000598885
0.00561138 0.000313042 0.000109834
0.0058995 0.000179912 0.000926882
0.0055063 -0.000250656 -0.000624536
0.00565589 0.000352029 0.000332069
0.0057136 -0.000226656 -0.000685796
0.00602083 0.000355472 -0.000204495
0.00597056 -0.000340714 -0.000602263
0.00566057 0.000357472 0.000515476
0.00565406 0.000521004 0.000462642
0.00591641 0.00032449 -0.000138274
0.00595681 0.000192424 0.000558553
0.00556193 0.000481061 0.000511767
0.00564965 0.00043095 0.00028797
0.00602033 0.000343312 0.00024546
0.00591256 0.000281734 -0.000141751
0.00593896 0.000287532 -0.000180748
0.00596752 0.000391267 0.000559097
0.00598597 0.00030213 6.80341e-05
0.00568049 -0.000271744 -0.000580309
0.00593028 0.000338073 -0.000142291
0.00546776 -0.000134343 -0.00059457
0.00552888 0.000476179 0.000467856
0.00556969 -0.000241244 -0.000633602
4.45806e-15 1.04657e-14 8.29545e-14
9.7161e-23 4.86658e-23 8.29106e-22
0.00565388 0.000343867 0.000324963
0.00592801 -0.000343382 -0.000590385
0.00565802 0.000421074 0.000295506
0.00597016 -0.000343392 -0.000593483
0.00557727 0.000510099 0.000485375
0.00567527 0.000461349 0.000536167
0.00608401 0.000344185 -6.51001e-05
0.00592072 0.000302651 -0.000141734
0.00555223 -0.000249667 -0.000599393
0.00589467 0.000251492 0.000381202
0.00563649 0.000401658 0.000293988
0.00568776 0.000348486 -0.000459571
0.00567518 0.000506133 0.000501206
0.0056871 -0.000352881 -0.000202857
0.00593301 -0.000332403 -0.000604561
0.0055082 0.0005016 0.000459645
0.00563416 -0.000315717 -4.19335e-05
0.00558644 -0.000486226 -0.000120261
0.00601355 0.000338881 -0.000153393
0.00594115 -0.000345676 -0.000593173
0.00595628 0.000255289 0.000562105
0.00562241 -0.000394638 -0.0002086
0.00573616 0.000267602 -0.000437016
0.00584322 -0.000312362 -0.000579551
0.00597843 0.000384591 0.000564788
0.00589989 0.000220484 -0.000137562
0.0056341 0.00037226 0.000308355
0.0054935 -0.000229531 -0.000650838
0.00579085 0.000185858 0.000542363
0.00587993 -0.000928587 -0.00068553
0.00552885 0.000486316 0.000476812
0.0056648 -0.000392593 -0.000145723
0.00598926 -0.000325668 -0.000620863
0.00591491 0.000308699 -0.000142349
0.00574866 0.000506065 0.000542846
0.00591479 0.000258524 -0.00014732
0.00595915 -0.000338565 -0.000603501
0.00566646 0.000379767 0.000295959
0.00594742 -0.000344028 -0.000592782
0.00566978 0.000344904 0.000197036
0.00560843 -0.000182807 -0.000710278
0.00596171 -0.000321543 -0.000621392
0.00563964 0.000304178 0.000338244
0.00589892 0.00029521 -0.000149349
0.00549855 -0.000133814 -0.000740363
0.00573743 0.000346266 0.000332311
0.00573284 -0.00026436 -0.000639284
0.00565474 0.000394801 0.00028287
0.00617794 7.42611e-05 -0.000301855
0.00566337 0.000372027 0.000315028
-3.82912e-14 8.16883e-14 2.95887e-13
0.00551527 0.000391974 0.000311397
0.00595023 0.000378199 0.000393924
0.00615081 8.78609e-05 -0.000302917
0.00538332 0.000289677 0.000581792
0.00623352 8.03991e-05 -0.000302308
0.00597037 0.000288468 0.000362291
0.00564695 -0.000373252 -0.000232504
0.00551016 -0.000149045 -0.000727551
0.00582331 0.00040986 0.000312052
0.00610733 0.000225642 0.00041245
0.00625814 0.000337835 0.000368697
0.00570916 -0.000375124 -0.0002244
0.00579874 0.000333495 0.000339844
0.0056128 0.000485201 0.000498719
0.00618483 0.000280154 0.000401962
0.00527507 -0.000535085 0.000384454
0.00566667 0.000350631 0.000323806
0.00615503 1.76601e-05 -0.000289137
0.0056889 0.000284984 0.000352771
0.00616036 0.000258518 0.000394977
0.00562658 0.000249271 -2.57724e-05
0.00578342 0.000491986 0.00051723
0.00620894 0.000350245 0.000366218
0.00597021 1.14355e-05 0.000493606
0.00565439 0.000318838 0.000332066
0.00566898 0.000430401 0.00029844
0.00552173 0.000503696 0.00047875
0.00589035 0.000309995 -0.000139735
0.00553284 0.000468851 0.00047836
0.0054853 -0.000554242 0.000544047
0.00591049 0.000302088 -0.00014196
0.00566707 0.000420553 0.000293248
0.00571597 0.000522594 0.000471154
0.00542162 0.000335644 5.97853e-05
0.00611145 0.00025417 0.000386615
0.005937 -0.000326825 -0.000611653
0.00555055 -0.000559618 0.000550969
0.00563985 0.000410347 0.000297801
0.00641895 -0.000789455 0.00148459
0.0056083 0.000376821 0.000304594
0.00623622 5.29718e-05 -0.000297019
0.00570836 0.000406629 0.000307468
0.00577572 0.000316663 0.000548676
0.0056201 0.000385929 0.000304323
0.00616057 0.000104959 -0.000281901
0.00624695 0.000134889 -0.000324377
0.00584359 -0.000320083 -0.000599928
0.00475888 -0.000173685 0.000457836
0.00544432 0.000102861 -0.000498095
0.00610079 0.00082751 -0.000437271
0.00598706 0.000295197 -0.000101882
0.00623199 -0.000438211 -0.00202324
0.00551651 0.000268804 0.0003233
0.00595044 0.000259191 0.000116141
0.00528819 -0.00051614 0.000395086
0.00614706 1.64543e-05 -0.00028455
0.00596185 -0.000695254 -0.000471561
0.00619093 0.000132423 -0.000303887
0.00590048 0.000296574 -0.000148006
0.00605077 -0.000373319 0.000287217
0.00546474 -0.000550315 0.000414231
0.00583015 7.55572e-05 0.000148083
0.00569104 0.000394447 0.000307161
0.00564764 0.000334201 0.000326872
0.00585248 0.00042126 0.000552106
0.00567662 0.000362626 0.000320052
0.00528241 -0.000537232 0.000402258
0.00549846 -0.000536848 0.000538998
0.00563082 0.000391432 0.000322588
0.00628896 7.96523e-05 -0.000304024
0.00529721 -0.000536354 0.00040198
0.00582177 -0.00026394 -0.000660095
0.00563229 0.000385789 0.000301772
0.00592102 0.000321505 -0.000140424
0.00631778 7.93227e-05 -0.000304009
0.00630703 8.04696e-05 -0.000302833
0.00629448 6.37897e-05 -0.000301608
0.00569773 -0.000585684 0.000465491
0.00546583 -0.000572481 0.000421875
0.00564752 -0.000578533 0.00045913
0.00559368 0.000429995 0.000284166
0.00563638 0.000395882 0.000293664
0.00548187 -0.000576291 0.0004238
0.00528395 -0.000535927 0.00040228
0.00619981 9.1161e-05 -0.000295506
0.00617889 2.71471e-05 -0.000287717
0.00557889 -0.000582691 0.000560489
0.00615583 6.44479e-05 -0.000292476
0.00611205 0.000384289 0.000459938
0.00562376 -0.000587431 0.000564675
0.00528656 -0.000532773 0.000400949
0.00528972 -0.000540653 0.00040372
0.00595504 -0.000319028 -0.000622663
0.00614945 7.60457e-05 -0.000352371
0.0062487 0.000103325 -0.00030435
0.00621282 0.000111786 -0.000301832
0.00565703 -0.000585428 0.000566102
0.00560848 0.000392053 0.000256701
0.00631446 8.08315e-05 -0.000304361
0.00627283 5.68072e-05 -0.000297132
0.00544917 -0.00056872 0.00042001
0.00625735 8.03584e-05 -0.000301086
0.00552797 -0.000546481 0.000545509
0.00572114 0.000333936 0.000336632
0.00626273 8.47144e-05 -0.00030345
0.00567994 0.000363309 0.000333174
0.00623224 0.000138366 -0.000312855
0.00602525 0.000392885 0.000570956
0.00613559 0.000142528 5.81848e-06
0.0057015 -0.000563811 0.000562647
0.00630669 7.47703e-05 -0.000302512
0.00568724 -0.000582662 0.000567696
0.00624742 9.2056e-05 -0.000303786
0.00621048 0.000144122 -0.000313582
0.0063225 7.09611e-05 -0.000302718
0.00616712 5.62961e-05 -0.000303284
0.00529121 -0.000535383 0.00040166
0.00549146 -0.00054539 0.000542673
0.00560694 0.000429001 0.000285621
0.00529139 -0.000538548 0.000403033
0.00547338 -0.000574757 0.000422853
0.0063036 8.32576e-05 -0.000304181
0.00628701 8.12395e-05 -0.000302219
0.00627356 7.66399e-05 -0.000301596
0.00625728 7.35038e-05 -0.000302199
0.00629221 7.6417e-05 -0.00030262
0.00554784 0.000435174 0.000280802
0.0056171 0.000418657 0.000284956
0.00620322 5.34976e-05 -0.000293627
0.00594027 -0.000308107 -0.000630751
0.00613029 8.35706e-05 -0.00020634
0.00570006 0.000190635 -0.000295698
0.00531216 -0.00052457 0.000398364
0.00631508 7.08903e-05 -0.000302007
0.00558303 -0.000196641 8.26165e-06
0.00546066 -0.000570867 0.000421087
0.00559948 -0.000582738 0.000561912
0.00601238 0.0016275 9.76585e-05

VECTORS force float
-2.40427e-10 -3.82718e-11 3.62488e-10
-2.20932e-10 -4.9864e-11 -3.01175e-10
-1.46572e-10 -2.63785e-10 2.99057e-10
3.35309e-10 2.08589e-10 1.04643e-10
2.44705e-11 -5.60989e-10 3.33611e-10
-4.62392e-11 -2.98008e-10 2.27752e-10
1.55932e-09 1.13017e-09 2.13554e-09
-1.25076e-10 -6.08769e-11 -9.0369e-11
6.70227e-11 -6.9056e-11 -2.76643e-12
9.42565e-11 3.32109e-10 -5.1373e-10
-8.80335e-12 1.50382e-10 -6.72845e-11
9.63754e-11 5.20667e-10 3.96852e-12
7.88384e-11 -2.1375e-10 1.45875e-10
-5.95694e-11 -1.86015e-10 2.01578e-10
5.5627e-10 -1.60394e-10 5.82187e-10
-2.45179e-11 -8.40302e-11 9.24489e-11
1.23709e-11 -4.68197e-11 1.87523e-11
-9.73835e-11 9.59062e-12 -1.36952e-12
6.21605e-11 -5.65333e-10 -2.53667e-10
4.52209e-12 4.30277e-10 5.31649e-10
-3.65826e-10 -2.37298e-10 8.37949e-10
9.60071e-11 -2.66761e-10 2.69724e-10
-1.20402e-10 -1.27284e-11 1.92596e-11
3.98979e-10 -2.9315e-10 -3.23276e-10
6.58167e-11 3.48057e-10 -1.29008e-10
2.1037e-11 -2.3793e-10 -1.51404e-11
1.17395e-10 1.55898e-10 5.55054e-11
5.90145e-11 -5.29848e-10 -5.0899e-10
2.01884e-10 -3.62724e-11 -2.14119e-11
-2.8165e-10 -5.0692e-10 5.73917e-10
-2.64972e-10 -4.4255e-10 4.29013e-10
-4.54648e-12 -1.1394e-10 1.29316e-10
2.90158e-10 -4.28603e-11 -2.07962e-11
4.9134e-10 -2.13026e-10 3.06731e-10
2.52702e-11 4.63763e-11 2.75977e-12
1.06715e-09 -1.97394e-10 6.09953e-10
-2.89453e-10 -6.00408e-10 5.51533e-11
-2.05472e-11 -5.63414e-11 1.78297e-11
1.28311e-10 -4.61767e-11 8.54963e-11
1.8145e-10 -8.95916e-12 3.02711e-10
1.9765e-10 9.82134e-11 -2.50927e-11
-2.45398e-10 1.93613e-10 -1.97766e-10
-3.72764e-11 -1.27446e-12 2.16296e-11
3.21101e-10 5.38565e-11 4.79829e-11
1.48258e-10 7.60375e-11 8.3786e-11
-1.80569e-10 7.27687e-11 -6.33882e-11
1.14464e-09 -1.22125e-09 -3.14342e-10
1.26301e-10 4.21178e-10 -7.71444e-10
1.46385e-10 2.41195e-10 -3.64553e-10
-7.08933e-11 6.68388e-12 -9.08998e-12
1.65004e-10 1.39126e-11 4.84562e-11
-6.01538e-11 -2.47367e-10 2.69107e-10
1.584e-09 -2.60302e-10 1.59128e-09
4.42207e-10 1.11004e-10 -1.41021e-10
2.51325e-11 1.94174e-11 7.92247e-11
1.55884e-10 -1.19549e-10 -5.70128e-11
-1.53987e-10 -6.02527e-10 2.63326e-10
-2.35099e-10 1.34622e-10 9.14031e-11
2.57906e-10 2.7962e-11 -9.4496e-11
-1.67559e-11 -1.22186e-11 -5.12637e-12
-1.66235e-11 4.88118e-11 -4.02886e-10