# vtk DataFile Version 3.0
LIGGGHTS particles timestep 21800000
ASCII
DATASET POLYDATA
POINTS 284 float
0.139895 0.0164191 0.00795427
0.14041 0.0175513 0.00725104
0.133658 0.0157462 0.00851642
0.14026 0.0176788 0.00721634
0.139824 0.0163391 0.00805669
0.146245 0.0180244 0.00707272
0.139999 0.0168826 0.00740316
0.13972 0.0160289 0.00843489
0.146359 0.0185848 0.00687866
0.139941 0.0166916 0.00762701
0.14044 0.0177659 0.00720786
0.133857 0.0163785 0.00784923
0.139804 0.0162774 0.00813297
0.133588 0.0156024 0.00887136
0.140135 0.0171002 0.00733044
0.133571 0.0155655 0.00896277
0.13992 0.0166296 0.00770265
0.139782 0.016215 0.00820796
0.139918 0.016355 0.00802755
0.140042 0.0170808 0.00736212
0.134058 0.0168644 0.00766533
0.146484 0.0187354 0.00682824
0.139982 0.0168164 0.00747624
0.146321 0.0183992 0.00694292
0.133941 0.0167447 0.00771247
0.140239 0.0175827 0.0072353
0.139762 0.016153 0.00828366
0.140294 0.0174237 0.00727148
0.140019 0.0169796 0.00739027
0.140106 0.017006 0.00734865
0.146264 0.0181208 0.00703932
0.1399 0.0165675 0.0077783
0.140089 0.0169095 0.00736778
0.1464 0.0187873 0.00684304
0.140064 0.0167745 0.00751551
0.140233 0.0171356 0.00732837
0.146441 0.0185315 0.00689883
0.139875 0.0165171 0.00795318
0.140061 0.0171656 0.00731283
0.140253 0.0172316 0.00730938
0.146283 0.0182136 0.00700718
0.139879 0.0165055 0.00785394
0.140102 0.017358 0.00727486
0.140164 0.0176464 0.00721796
0.140144 0.0175503 0.00723692
0.133836 0.016288 0.00788616
0.146422 0.0184385 0.00693103
0.139899 0.0162927 0.00810337
0.133624 0.0156762 0.00868901
0.140081 0.0168378 0.0074389
0.146302 0.0183064 0.00697505
0.140159 0.0167949 0.00749326
0.140174 0.0168738 0.00743357
0.139844 0.0164358 0.0080386
0.140274 0.0173276 0.00729043
0.140198 0.0173907 0.00727319
0.146457 0.0186251 0.00686635
0.133973 0.0164981 0.00780186
0.13391 0.0162233 0.00790428
0.140431 0.0176472 0.00723215
0.140335 0.0176157 0.00723358
0.140002 0.0165882 0.00774258
0.14634 0.018492 0.00691079
0.133606 0.0156393 0.00878023
0.140315 0.0175197 0.00725254
0.139962 0.0167537 0.00755138
0.140157 0.0171978 0.00731125
0.134176 0.0174141 0.00746071
0.140247 0.0180461 0.00713894
0.133675 0.0157831 0.00842519
0.133878 0.01647 0.00781486
0.140199 0.0177055 0.00729088
0.133814 0.0161969 0.00792122
0.133963 0.0168362 0.00767834
0.134005 0.0162503 0.00788897
0.146379 0.0186844 0.00684417
0.133797 0.0158437 0.0083002
0.140219 0.0174867 0.00725425
0.140141 0.0167276 0.00756487
0.140195 0.0178072 0.00727447
0.140371 0.0178873 0.00725356
0.140389 0.0174552 0.00727001
0.133899 0.0165615 0.00778073
0.140407 0.0179314 0.00717149
0.140312 0.0178989 0.00717319
0.140463 0.0182242 0.00711339
0.140384 0.0180015 0.00723914
0.140332 0.0179952 0.00715414
0.133772 0.0160182 0.00799827
0.14023 0.017907 0.00724834
0.133952 0.0164065 0.007836
0.140348 0.0172631 0.00730791
0.133888 0.0161319 0.00793834
0.0643568 0.0187248 0.00531097
0.24257 0.0191927 0.00520306
0.134255 0.0173562 0.00747968
0.133732 0.0159188 0.00816468
0.134332 0.0172953 0.00749983
0.133695 0.0158285 0.00833821
0.140044 0.0167124 0.00759118
0.140123 0.0174542 0.00725588
0.140327 0.0184418 0.00706062
0.140385 0.0182846 0.00709656
0.133793 0.0161039 0.00795132
0.134348 0.0185494 0.0070401
0.134197 0.0170757 0.00758405
0.140177 0.0172943 0.0072922
0.140023 0.0166504 0.00766682
0.13988 0.0162304 0.00817916
0.133645 0.0157405 0.00861539
0.140185 0.0169461 0.00736532
0.139741 0.0160909 0.00835924
0.1397 0.0159634 0.0085075
0.140308 0.0183456 0.00707966
0.133841 0.0159092 0.00810299
0.140205 0.0178385 0.00718001
0.139858 0.0161686 0.00825464
0.140082 0.0172616 0.00729388
0.13375 0.0159558 0.00807354
0.140185 0.0177424 0.00719901
0.140401 0.0181058 0.00722074
0.13408 0.016956 0.00763119
0.133931 0.0163149 0.00787013
0.140284 0.0177675 0.00725542
0.140061 0.0164788 0.00786757
0.140212 0.0170419 0.00735633
0.139837 0.0161065 0.00833029
0.133776 0.0158092 0.00839237
0.140266 0.0181427 0.00711983
0.139982 0.0165262 0.00781824
0.140414 0.0183937 0.00707533
0.133821 0.0158774 0.00819569
0.134218 0.0171675 0.00754984
0.133716 0.0158809 0.00825566
0.134175 0.0169841 0.00761821
0.134026 0.0163425 0.00785652
0.133757 0.0157722 0.00848317
0.134026 0.0171109 0.00757596
0.14037 0.0181877 0.00711602
0.134069 0.0165259 0.007789
0.134437 0.0174348 0.00744576
0.133866 0.0160386 0.00797122
0.134144 0.0172313 0.00752856
0.13419 0.0175125 0.00742429
0.134122 0.0171392 0.00756287
0.0219312 0.0187687 0.00551176
0.13439 0.0179034 0.00727549
0.140357 0.0177116 0.0072147
0.134088 0.017392 0.0075026
0.134048 0.0172028 0.00754285
0.134295 0.0178358 0.00730291
0.134541 0.0176904 0.00734925
0.140017 0.0163557 0.00801591
0.134047 0.0164343 0.00782313
0.134347 0.0173943 0.00746314
0.134485 0.0184413 0.00707582
0.134357 0.0174924 0.00742694
0.140054 0.0164138 0.00794322
0.134518 0.0175992 0.00738329
0.140426 0.0180278 0.0071524
0.13428 0.0175526 0.00740705
0.128056 0.0171295 0.00725343
0.134101 0.0170475 0.00759706
0.134129 0.017583 0.00746163
0.134463 0.018137 0.00718786
0.134584 0.0179205 0.00726377
0.134108 0.01746 0.00757297
0.139961 0.0164641 0.00789386
0.134267 0.0174518 0.00744431
0.140501 0.0179641 0.00716975
0.134005 0.0170194 0.00761025
0.134103 0.0173425 0.00758816
0.140328 0.0171671 0.00732687
0.140228 0.0179499 0.007158
0.140369 0.0173592 0.00728896
0.128235 0.0175588 0.00716255
0.140286 0.0182394 0.00710068
0.134292 0.0171036 0.00757116
0.14012 0.0166646 0.00763948
0.134111 0.016709 0.00772074
0.134544 0.0178097 0.00730546
0.133552 0.0155286 0.00905371
0.128116 0.0174032 0.00721842
0.13392 0.0166531 0.0077466
0.134069 0.017294 0.0075077
0.134037 0.0167728 0.00769946
0.134493 0.0183476 0.00710989
0.134313 0.0171979 0.00753601
0.140347 0.018538 0.00704158
0.134016 0.0166812 0.0077336
0.134411 0.0179973 0.00730305
0.134285 0.0176464 0.00737258
0.133843 0.0159497 0.00801159
0.134164 0.0173278 0.00750989
0.13409 0.0166175 0.00775487
0.140385 0.0177933 0.0072867
0.140446 0.0181241 0.00713334
0.134369 0.0175947 0.00738913
0.140307 0.0170707 0.00734589
0.140557 0.0182597 0.00711102
0.128184 0.0174379 0.00715386
0.134109 0.0174863 0.00747648
0.140078 0.0165414 0.00779152
0.134165 0.0177082 0.00735332
0.140351 0.0180914 0.00713508
0.134256 0.0176968 0.00745399
0.128112 0.0169889 0.00734002
0.140097 0.0166029 0.0077149
0.134238 0.0172609 0.00751504
0.133984 0.0169278 0.00764421
0.140351 0.0178093 0.00719401
0.134446 0.0175344 0.00740902
0.128173 0.0172457 0.007199
0.128078 0.017221 0.00721925
0.134227 0.0175902 0.007483
0.13444 0.0182525 0.00714623
0.128037 0.0170463 0.00730533
0.133984 0.0161581 0.00792144
0.134133 0.0168008 0.00768653
0.140267 0.018008 0.00722921
0.134299 0.0181901 0.00726113
0.134317 0.0183969 0.00709682
0.13428 0.0182122 0.00716548
0.127853 0.0163662 0.00786272
0.127918 0.0165851 0.00766801
0.127832 0.0162932 0.00792763
0.134249 0.0169202 0.00763951
0.133995 0.0165897 0.00776773
0.127875 0.0164392 0.00779782
0.127998 0.0168819 0.00741238
0.134321 0.017772 0.00741675
0.134388 0.0184628 0.0070707
0.128156 0.0174888 0.00725125
0.134194 0.0176069 0.00738958
0.14048 0.018321 0.00709406
0.12816 0.0176255 0.00715549
0.128151 0.0171553 0.00723622
0.127979 0.0168043 0.0074726
0.133737 0.0157346 0.00857576
0.134366 0.0177223 0.0073425
0.134217 0.0178717 0.00738354
0.134489 0.0178891 0.00727819
0.12818 0.0177227 0.00716859
0.134154 0.0168925 0.00765235
0.134394 0.0183364 0.00711678
0.134262 0.0181201 0.00719974
0.127961 0.016731 0.00753817
0.13433 0.0178682 0.00739089
0.128096 0.0173121 0.00718236
0.134425 0.017335 0.00748264
0.13419 0.017799 0.00731937
0.134375 0.0176837 0.00743432
0.134211 0.0177768 0.00741461
0.140539 0.0181607 0.00713071
0.134442 0.0176613 0.00736267
0.128218 0.0179173 0.00719469
0.134213 0.0178901 0.00728534
0.128199 0.01782 0.00718167
0.134267 0.0177389 0.00733918
0.134156 0.0176783 0.00744837
0.134331 0.0180628 0.00730999
0.13439 0.0178183 0.00732846
0.128017 0.0169631 0.00735733
0.128254 0.0176562 0.00717554
0.134228 0.0168285 0.00767369
0.128132 0.017072 0.00728817
0.127897 0.0165121 0.00773291
0.134351 0.0180769 0.00721304
0.134328 0.0179771 0.00725024
0.134287 0.0179373 0.00733253
0.134445 0.0180448 0.00722213
0.134375 0.0181817 0.00717398
0.134206 0.0167368 0.0077079
0.13427 0.0170118 0.00760539
0.134535 0.018003 0.00723492
0.133962 0.0160661 0.00795392
0.134465 0.0177526 0.00732857
0.134245 0.0180334 0.00724667
0.128193 0.017341 0.00717661
0.134299 0.0183044 0.0071312
0.140282 0.0169709 0.00736535
0.12794 0.016658 0.00760311
0.12814 0.0175277 0.00716045
0.140521 0.0180605 0.00715067

VERTICES 284 568
1 0
1 1
1 2
1 3
1 4
1 5
1 6
1 7
1 8
1 9
1 10
1 11
1 12
1 13
1 14
1 15
1 16
1 17
1 18
1 19
1 20
1 21
1 22
1 23
1 24
1 25
1 26
1 27
1 28
1 29
1 30
1 31
1 32
1 33
1 34
1 35
1 36
1 37
1 38
1 39
1 40
1 41
1 42
1 43
1 44
1 45
1 46
1 47
1 48
1 49
1 50
1 51
1 52
1 53
1 54
1 55
1 56
1 57
1 58
1 59
1 60
1 61
1 62
1 63
1 64
1 65
1 66
1 67
1 68
1 69
1 70
1 71
1 72
1 73
1 74
1 75
1 76
1 77
1 78
1 79
1 80
1 81
1 82
1 83
1 84
1 85
1 86
1 87
1 88
1 89
1 90
1 91
1 92
1 93
1 94
1 95
1 96
1 97
1 98
1 99
1 100
1 101
1 102
1 103
1 104
1 105
1 106
1 107
1 108
1 109
1 110
1 111
1 112
1 113
1 114
1 115
1 116
1 117
1 118
1 119
1 120
1 121
1 122
1 123
1 124
1 125
1 126
1 127
1 128
1 129
1 130
1 131
1 132
1 133
1 134
1 135
1 136
1 137
1 138
1 139
1 140
1 141
1 142
1 143
1 144
1 145
1 146
1 147
1 148
1 149
1 150
1 151
1 152
1 153
1 154
1 155
1 156
1 157
1 158
1 159
1 160
1 161
1 162
1 163
1 164
1 165
1 166
1 167
1 168
1 169
1 170
1 171
1 172
1 173
1 174
1 175
1 176
1 177
1 178
1 179
1 180
1 181
1 182
1 183
1 184
1 185
1 186
1 187
1 188
1 189
1 190
1 191
1 192
1 193
1 194
1 195
1 196
1 197
1 198
1 199
1 200
1 201
1 202
1 203
1 204
1 205
1 206
1 207
1 208
1 209
1 210
1 211
1 212
1 213
1 214
1 215
1 216
1 217
1 218
1 219
1 220
1 221
1 222
1 223
1 224
1 225
1 226
1 227
1 228
1 229
1 230
1 231
1 232
1 233
1 234
1 235
1 236
1 237
1 238
1 239
1 240
1 241
1 242
1 243
1 244
1 245
1 246
1 247
1 248
1 249
1 250
1 251
1 252
1 253
1 254
1 255
1 256
1 257
1 258
1 259
1 260
1 261
1 262
1 263
1 264
1 265
1 266
1 267
1 268
1 269
1 270
1 271
1 272
1 273
1 274
1 275
1 276
1 277
1 278
1 279
1 280
1 281
1 282
1 283

POINT_DATA 284
SCALARS id int 1
LOOKUP_TABLE default
1
2
3
4
5
6
7
8
9
10
11
12
13
14
15
16
17
19
21
22
23
24
25
26
27
28
29
30
31
32
33
34
35
36
37
38
39
41
42
44
45
47
48
50
51
52
53
54
55
56
57
59
60
61
62
63
64
65
66
67
68
69
70
71
72
73
74
76
77
78
79
80
81
82
83
84
85
86
87
88
89
90
91
92
93
94
95
96
97
98
99
100
101
102
103
104
105
106
107
108
109
110
111
112
113
114
115
116
117
118
119
120
121
122
123
124
125
126
127
128
129
130
131
132
133
134
135
136
137
138
140
141
142
143
144
146
147
148
149
150
151
153
154
155
156
157
158
159
160
162
164
165
166
167
168
169
170
171
172
173
174
175
176
177
178
179
181
182
183
184
185
186
187
188
189
190
191
192
193
194
195
196
197
198
199
200
201
202
203
204
205
206
207
208
209
210
211
212
213
214
215
216
217
218
219
220
221
222
223
224
225
226
227
228
229
230
231
232
233
234
235
236
237
239
240
241
242
243
244
246
247
248
249
250
251
252
253
254
255
256
257
258
259
260
261
262
263
264
265
266
267
268
269
270
271
272
273
274
275
276
277
278
279
280
281
282
283
284
285
286
287
288
289
290
291
292
293
294
295
296
297
298
299
300

SCALARS type int 1
LOOKUP_TABLE default
1
1
1
1
1
1
1
1
1
1
1
1
1
1
1
1
1
1
1
1
1
1
1
1
1
1
1
1
1
1
1
1
1
1
1
1
1
1
1
1
1
1
1
1
1
1
1
1
1
1
1
1
1
1
1
1
1
1
1
1
1
1
1
1
1
1
1
1
1
1
1
1
1
1
1
1
1
1
1
1
1
1
1
1
1
1
1
1
1
1
1
1
1
1
1
1
1
1
1
1
1
1
1
1
1
1
1
1
1
1
1
1
1
1
1
1
1
1
1
1
1
1
1
1
1
1
1
1
1
1
1
1
1
1
1
1
1
1
1
1
1
1
1
1
1
1
1
1
1
1
1
1
1
1
1
1
1
1
1
1
1
1
1
1
1
1
1
1
1
1
1
1
1
1
1
1
1
1
1
1
1
1
1
1
1
1
1
1
1
1
1
1
1
1
1
1
1
1
1
1
1
1
1
1
1
1
1
1
1
1
1
1
1
1
1
1
1
1
1
1
1
1
1
1
1
1
1
1
1
1
1
1
1
1
1
1
1
1
1
1
1
1
1
1
1
1
1
1
1
1
1
1
1
1
1
1
1
1
1
1
1
1
1
1
1
1
1
1
1
1
1
1
1
1
1
1
1
1
1
1
1
1
1
1

SCALARS radius float 1
LOOKUP_TABLE default
5e-05
5e-05
5e-05
5e-05
5e-05
5e-05
5e-05
5e-05
5e-05
5e-05
5e-05
5e-05
5e-05
5e-05
5e-05
5e-05
5e-05
5e-05
5e-05
5e-05
5e-05
5e-05
5e-05
5e-05
5e-05
5e-05
5e-05
5e-05
5e-05
5e-05
5e-05
5e-05
5e-05
5e-05
5e-05
5e-05
5e-05
5e-05
5e-05
5e-05
5e-05
5e-05
5e-05
5e-05
5e-05
5e-05
5e-05
5e-05
5e-05
5e-05
5e-05
5e-05
5e-05
5e-05
5e-05
5e-05
5e-05
5e-05
5e-05
5e-05
5e-05
5e-05
5e-05
5e-05
5e-05
5e-05
5e-05
5e-05
5e-05
5e-05
5e-05
5e-05
5e-05
5e-05
5e-05
5e-05
5e-05
5e-05
5e-05
5e-05
5e-05
5e-05
5e-05
5e-05
5e-05
5e-05
5e-05
5e-05
5e-05
5e-05
5e-05
5e-05
5e-05
5e-05
5e-05
5e-05
5e-05
5e-05
5e-05
5e-05
5e-05
5e-05
5e-05
5e-05
5e-05
5e-05
5e-05
5e-05
5e-05
5e-05
5e-05
5e-05
5e-05
5e-05
5e-05
5e-05
5e-05
5e-05
5e-05
5e-05
5e-05
5e-05
5e-05
5e-05
5e-05
5e-05
5e-05
5e-05
5e-05
5e-05
5e-05
5e-05
5e-05
5e-05
5e-05
5e-05
5e-05
5e-05
5e-05
5e-05
5e-05
5e-05
5e-05
5e-05
5e-05
5e-05
5e-05
5e-05
5e-05
5e-05
5e-05
5e-05
5e-05
5e-05
5e-05
5e-05
5e-05
5e-05
5e-05
5e-05
5e-05
5e-05
5e-05
5e-05
5e-05
5e-05
5e-05
5e-05
5e-05
5e-05
5e-05
5e-05
5e-05
5e-05
5e-05
5e-05
5e-05
5e-05
5e-05
5e-05
5e-05
5e-05
5e-05
5e-05
5e-05
5e-05
5e-05
5e-05
5e-05
5e-05
5e-05
5e-05
5e-05
5e-05
5e-05
5e-05
5e-05
5e-05
5e-05
5e-05
5e-05
5e-05
5e-05
5e-05
5e-05
5e-05
5e-05
5e-05
5e-05
5e-05
5e-05
5e-05
5e-05
5e-05
5e-05
5e-05
5e-05
5e-05
5e-05
5e-05
5e-05
5e-05
5e-05
5e-05
5e-05
5e-05
5e-05
5e-05
5e-05
5e-05
5e-05
5e-05
5e-05
5e-05
5e-05
5e-05
5e-05
5e-05
5e-05
5e-05
5e-05
5e-05
5e-05
5e-05
5e-05
5e-05
5e-05
5e-05
5e-05
5e-05
5e-05
5e-05
5e-05
5e-05
5e-05
5e-05
5e-05
5e-05
5e-05
5e-05
5e-05
5e-05
5e-05
5e-05
5e-05
5e-05
5e-05
5e-05
5e-05
5e-05
5e-05
5e-05
5e-05
5e-05
5e-05
5e-05
5e-05
5e-05
5e-05
5e-05
5e-05
5e-05
5e-05
5e-05

SCALARS mass float 1
LOOKUP_TABLE default
1.46608e-10
1.46608e-10
1.46608e-10
1.46608e-10
1.46608e-10
1.46608e-10
1.46608e-10
1.46608e-10
1.46608e-10
1.46608e-10
1.46608e-10
1.46608e-10
1.46608e-10
1.46608e-10
1.46608e-10
1.46608e-10
1.46608e-10
1.46608e-10
1.46608e-10
1.46608e-10
1.46608e-10
1.46608e-10
1.46608e-10
1.46608e-10
1.46608e-10
1.46608e-10
1.46608e-10
1.46608e-10
1.46608e-10
1.46608e-10
1.46608e-10
1.46608e-10
1.46608e-10
1.46608e-10
1.46608e-10
1.46608e-10
1.46608e-10
1.46608e-10
1.46608e-10
1.46608e-10
1.46608e-10
1.46608e-10
1.46608e-10
1.46608e-10
1.46608e-10
1.46608e-10
1.46608e-10
1.46608e-10
1.46608e-10
1.46608e-10
1.46608e-10
1.46608e-10
1.46608e-10
1.46608e-10
1.46608e-10
1.46608e-10
1.46608e-10
1.46608e-10
1.46608e-10
1.46608e-10
1.46608e-10
1.46608e-10
1.46608e-10
1.46608e-10
1.46608e-10
1.46608e-10
1.46608e-10
1.46608e-10
1.46608e-10
1.46608e-10
1.46608e-10
1.46608e-10
1.46608e-10
1.46608e-10
1.46608e-10
1.46608e-10
1.46608e-10
1.46608e-10
1.46608e-10
1.46608e-10
1.46608e-10
1.46608e-10
1.46608e-10
1.46608e-10
1.46608e-10
1.46608e-10
1.46608e-10
1.46608e-10
1.46608e-10
1.46608e-10
1.46608e-10
1.46608e-10
1.46608e-10
1.46608e-10
1.46608e-10
1.46608e-10
1.46608e-10
1.46608e-10
1.46608e-10
1.46608e-10
1.46608e-10
1.46608e-10
1.46608e-10
1.46608e-10
1.46608e-10
1.46608e-10
1.46608e-10
1.46608e-10
1.46608e-10
1.46608e-10
1.46608e-10
1.46608e-10
1.46608e-10
1.46608e-10
1.46608e-10
1.46608e-10
1.46608e-10
1.46608e-10
1.46608e-10
1.46608e-10
1.46608e-10
1.46608e-10
1.46608e-10
1.46608e-10
1.46608e-10
1.46608e-10
1.46608e-10
1.46608e-10
1.46608e-10
1.46608e-10
1.46608e-10
1.46608e-10
1.46608e-10
1.46608e-10
1.46608e-10
1.46608e-10
1.46608e-10
1.46608e-10
1.46608e-10
1.46608e-10
1.46608e-10
1.46608e-10
1.46608e-10
1.46608e-10
1.46608e-10
1.46608e-10
1.46608e-10
1.46608e-10
1.46608e-10
1.46608e-10
1.46608e-10
1.46608e-10
1.46608e-10
1.46608e-10
1.46608e-10
1.46608e-10
1.46608e-10
1.46608e-10
1.46608e-10
1.46608e-10
1.46608e-10
1.46608e-10
1.46608e-10
1.46608e-10
1.46608e-10
1.46608e-10
1.46608e-10
1.46608e-10
1.46608e-10
1.46608e-10
1.46608e-10
1.46608e-10
1.46608e-10
1.46608e-10
1.46608e-10
1.46608e-10
1.46608e-10
1.46608e-10
1.46608e-10
1.46608e-10
1.46608e-10
1.46608e-10
1.46608e-10
1.46608e-10
1.46608e-10
1.46608e-10
1.46608e-10
1.46608e-10
1.46608e-10
1.46608e-10
1.46608e-10
1.46608e-10
1.46608e-10
1.46608e-10
1.46608e-10
1.46608e-10
1.46608e-10
1.46608e-10
1.46608e-10
1.46608e-10
1.46608e-10
1.46608e-10
1.46608e-10
1.46608e-10
1.46608e-10
1.46608e-10
1.46608e-10
1.46608e-10
1.46608e-10
1.46608e-10
1.46608e-10
1.46608e-10
1.46608e-10
1.46608e-10
1.46608e-10
1.46608e-10
1.46608e-10
1.46608e-10
1.46608e-10
1.46608e-10
1.46608e-10
1.46608e-10
1.46608e-10
1.46608e-10
1.46608e-10
1.46608e-10
1.46608e-10
1.46608e-10
1.46608e-10
1.46608e-10
1.46608e-10
1.46608e-10
1.46608e-10
1.46608e-10
1.46608e-10
1.46608e-10
1.46608e-10
1.46608e-10
1.46608e-10
1.46608e-10
1.46608e-10
1.46608e-10
1.46608e-10
1.46608e-10
1.46608e-10
1.46608e-10
1.46608e-10
1.46608e-10
1.46608e-10
1.46608e-10
1.46608e-10
1.46608e-10
1.46608e-10
1.46608e-10
1.46608e-10
1.46608e-10
1.46608e-10
1.46608e-10
1.46608e-10
1.46608e-10
1.46608e-10
1.46608e-10
1.46608e-10
1.46608e-10
1.46608e-10
1.46608e-10
1.46608e-10
1.46608e-10
1.46608e-10
1.46608e-10
1.46608e-10
1.46608e-10
1.46608e-10
1.46608e-10
1.46608e-10
1.46608e-10
1.46608e-10
1.46608e-10
1.46608e-10
1.46608e-10
1.46608e-10
1.46608e-10
1.46608e-10
1.46608e-10

VECTORS velocity float
0.00580487 -0.000657951 0.000152552
0.00552133 -0.000360509 0.000372229
0.00628227 0.0012896 -0.000387063
0.00542804 -0.00047636 0.000392627
0.00577855 -0.0006501 0.000138084
0.00531313 -0.000685691 0.000338158
0.00560837 -0.000433354 0.000341865
0.00556781 -0.000591524 8.79e-05
0.00552882 -0.000721674 0.000354754
0.00599798 -0.000728856 0.000204997
0.00532613 -0.00035637 0.00036308
0.00638529 0.000767925 -0.000350401
0.0057445 -0.0006404 0.000130168
0.00573034 0.000958008 -0.000591508
0.00564597 -0.000370051 0.00038056
0.00554947 0.001082 -0.000886313
0.00600392 -0.000726448 0.00020176
0.00571293 -0.000621589 0.000111943
0.005789 -0.000659998 0.000149785
0.00561583 -0.000362651 0.000389322
0.00616777 0.000975092 -0.000525249
0.00538593 -0.000901796 0.000413458
0.00573734 -0.000574495 0.000248619
0.00542926 -0.000713071 0.000349875
0.00616193 0.000841217 -0.000475642
0.00567939 -0.000491907 0.000408298
0.00566768 -0.000603547 9.66432e-05
0.00565559 -0.0004624 0.000400812
0.00560093 -0.00043468 0.000333934
0.00559916 -0.000363572 0.000370496
0.00534118 -0.000701813 0.000344317
0.00596184 -0.000710281 0.000188104
0.00560098 -0.000357708 0.000376305
0.00566149 -0.000242114 -0.000329335
0.00578364 -0.000636165 0.000120691
0.00558914 -0.000451965 0.000390459
0.00553054 -0.000720175 0.000354297
0.0058466 -0.000644257 0.00016373
0.00565275 -0.000374279 0.000383508
0.00562081 -0.000458681 0.000395917
0.00537021 -0.000707243 0.000346768
0.00588552 -0.000686208 0.000170231
0.00564477 -0.000425187 0.000392489
0.00560773 -0.000575671 0.000422436
0.00563185 -0.000479242 0.000403043
0.00626588 0.000710972 -0.000525898
0.00546125 -0.000710037 0.000349436
0.0057674 -0.000654364 0.000142765
0.0058827 0.00106499 -0.000399947
0.00562401 -0.000604591 0.000100093
0.00539953 -0.000711403 0.000348763
0.00578977 -0.000609736 0.000203032
0.00559725 -0.000482006 0.000335293
0.00574975 -0.00059218 0.000115061
0.00565577 -0.00046384 0.00040052
0.00564433 -0.00047602 0.000403378
0.00555072 -0.000760727 0.000368787
0.00628092 0.000845942 -0.000478949
0.00640087 0.000735738 -0.000441153
0.0054209 -0.000336676 0.000362203
0.00547179 -0.000421035 0.00038283
0.00601234 -0.000722541 0.000195213
0.00545967 -0.000712266 0.00035014
0.00582199 0.00101113 -0.000459177
0.0055866 -0.000446755 0.000394091
0.00591613 -0.000679466 0.000218827
0.00565215 -0.000373749 0.000382203
0.00650554 0.000151259 -0.000221299
0.00527846 -0.000468752 0.000379782
0.00631073 0.0011212 -0.000592131
0.00633076 0.000756975 -0.000359598
0.00542091 -0.000500456 0.000399475
0.00619976 0.000765202 -0.000538515
0.00618406 0.000909657 -0.00048573
0.00643704 0.000715262 -0.000802618
0.00555564 -0.000755859 0.000367133
0.0101862 0.000683992 -0.00867973
0.00563901 -0.000479195 0.000403577
0.00593865 -0.000690373 0.000168352
0.00530689 -0.000520033 0.000387239
0.00528005 -0.000401032 0.000375487
0.00565577 -0.000373154 0.000382081
0.0062606 0.000743535 -0.000396485
0.00529105 -0.000409567 0.000371498
0.00529164 -0.000411397 0.000370298
0.00534184 -0.000410211 0.000373015
0.00526621 -0.000399047 0.000363137
0.00529255 -0.000403377 0.000367062
0.00634075 0.00070871 -0.000676635
0.0053795 -0.000473023 0.000365444
0.006238 0.000820261 -0.000458374
0.00561175 -0.000429024 0.000391143
0.00650403 0.000906444 -0.000933732
4.50269e-15 1.04067e-14 8.29594e-14
9.7161e-23 -1.27651e-22 1.23839e-22
0.00638805 -0.000136172 -0.000135399
0.00652974 -4.52387e-05 -0.00130776
0.00629691 -0.00034487 -4.20058e-05
0.0061883 0.000651463 -0.000915175
0.00595881 -0.000659922 0.000125819
0.00563388 -0.00047867 0.0004029
0.0053879 -0.000388976 0.000370841
0.00536306 -0.000398223 0.000372204
0.00640476 0.000736301 -0.000494105
0.00555404 0.000356977 -0.000288505
0.00582702 0.000715937 -0.000425762
0.00563854 -0.000437513 0.000394506
0.00607366 -0.000668287 0.000126657
0.00574348 -0.000643595 0.000131506
0.00607351 0.00119092 -0.000320837
0.00553984 -0.000431647 0.000386478
0.00560319 -0.000599468 9.09371e-05
0.0055946 -0.000160507 0.000471212
0.00537647 -0.000382943 0.000369233
0.00654194 0.00023211 -0.000581242
0.0054028 -0.000526773 0.000400675
0.00570722 -0.00063409 0.000124386
0.00565648 -0.000367996 0.000380963
0.00638426 9.54704e-05 -0.00126056
0.0053804 -0.000533904 0.000397849
0.00530498 -0.000379503 0.00036952
0.00609607 0.000944693 -0.000512524
0.00657132 0.000977222 -0.000534534
0.00533797 -0.000449516 0.000395418
0.00588015 -0.00071405 0.000145279
0.00555954 -0.000440978 0.00038825
0.00564233 -0.000623477 0.000118089
0.00849062 0.00205937 -0.002056
0.00533221 -0.000417904 0.000372726
0.00594847 -0.000712307 0.000190101
0.00537953 -0.000400529 0.000372884
0.00674181 -0.000780831 -0.000828111
0.00610207 0.000521258 -0.000368394
0.00636079 0.000144633 -0.00123465
0.00601399 0.000737561 -0.000438983
0.00631014 0.000813532 -0.000684746
0.00623197 0.00163714 -0.00219397
0.00612351 0.000986767 -0.000522841
0.00533717 -0.000398897 0.000370092
0.0061888 0.000944034 -0.000532582
0.00703471 1.76927e-06 -0.000193327
0.00645002 0.000682599 -0.000776234
0.00607375 0.000603204 -0.000399523
0.00670967 0.000688793 -0.000431023
0.00601503 0.000714219 -0.000429285
-3.83255e-14 8.16797e-14 2.95885e-13
0.00436451 0.000882323 -0.000478132
0.00536692 -0.000398534 0.00037301
0.00633407 0.000653899 -0.000441277
0.00615213 0.000861032 -0.000505366
0.00641522 0.000299052 -0.000307015
0.00643408 0.000272023 -0.000275983
0.00578494 -0.000665711 0.00015732
0.00617648 0.000935553 -0.000512925
0.00652901 -0.000210365 -0.000106868
0.0055722 0.000587559 -0.000371968
0.0069909 -6.04982e-05 -0.00015226
0.00581254 -0.00067947 0.000165569
0.00666301 0.000339907 -0.000310573
0.00530691 -0.000412223 0.000371801
0.00701661 6.85383e-05 -0.000191805
0.00568212 -0.000822213 0.00043135
0.00600344 0.000901165 -0.000498711
0.00769721 0.000470982 0.000188086
0.00574321 0.000852187 -0.000472546
0.00593651 0.00116498 -0.000592986
0.00616513 0.000388314 -0.000272191
0.00585837 -0.000698428 0.000183074
0.00620286 -0.000560307 3.04563e-05
0.00529361 -0.00042744 0.000375087
0.00614717 0.00100697 -0.000512726
0.00619875 0.00056965 -0.000523606
0.00557896 -0.000425757 0.000388831
0.00527304 -0.000460437 0.000379451
0.00567267 -0.000439764 0.000397585
0.00537268 -0.000894545 0.000887525
0.00534952 -0.000400094 0.000370683
0.00607052 0.000405872 -0.000318686
0.0059895 -0.000701427 0.000177377
0.00606767 0.00106217 -0.000555457
0.00513381 0.00160814 -0.000736363
0.00578218 0.00125763 -0.00124349
0.00540887 -0.00088264 0.000290816
0.00621287 0.000782578 -0.000446557
0.00610969 0.000779085 -0.000489559
0.00621432 0.00108298 -0.000570694
0.00563401 0.000528321 -0.000352621
0.00628026 0.000741393 -0.000437921
0.0053946 -0.000399946 0.000372742
0.00621453 0.000979438 -0.000533677
0.00555962 0.000691256 -0.000657699
0.00632285 7.18469e-05 -0.000193775
0.0063626 0.000902401 -0.000297175
0.00588419 7.2726e-05 -0.000618022
0.00614824 0.000994808 -0.000543733
0.00531844 -0.000367006 0.000366966
0.00531957 -0.000405557 0.000371082
0.00675926 0.000179265 -0.000335179
0.00557271 -0.000473038 0.00039825
0.00537187 -0.00041208 0.00037518
0.00544293 -0.000898177 0.000283563
0.00690174 0.000568138 -0.000244746
0.0059759 -0.000708729 0.00017205
0.00667185 -8.66487e-05 2.86983e-06
0.0053242 -0.00040689 0.000368811
0.00627861 0.000148792 -0.000212653
0.00561951 -0.000832823 0.000459272
0.00601336 -0.000710157 0.000181421
0.00609416 0.000428713 -0.00035489
0.00622106 0.000968466 -0.000517253
0.0053062 -0.000403285 0.000370983
0.00673349 0.000341002 -0.000314207
0.00573705 -0.000872651 0.000396385
0.00560275 -0.000853914 0.000337825
0.0076345 0.000392702 -9.94726e-05
0.00575358 0.0004064 -0.000311126
0.00563992 -0.000801224 0.000437563
0.00623492 0.000852887 -0.000815914
0.00598777 0.000807354 -0.00046441
0.00528457 -0.000451085 0.000379041
0.00574221 0.000254697 -0.000246507
0.00567721 0.000240805 -0.000253693
0.005547 0.00023347 -0.000235196
0.00591837 -0.000476087 0.00100706
0.0059688 -0.000483682 0.00101673
0.00590382 -0.000480604 0.00100796
0.00608808 0.000633306 -0.000403485
0.00622698 0.000918342 -0.000513158
0.00594387 -0.000473424 0.00101005
0.00558873 -0.000668888 0.000605746
0.00665102 0.000626342 -0.000503072
0.00554918 0.00038101 -0.000295869
0.00552172 -0.00105338 0.000578689
0.00682115 0.00113571 -0.000610236
0.00536447 -0.000413855 0.000375128
0.00539762 -0.000936003 0.000892207
0.00570495 -0.000842666 0.000450392
0.00556216 -0.00042242 0.000921717
0.00805316 0.00201053 -0.00238803
0.00654483 0.000143064 -0.000225787
0.00643095 -6.07071e-05 -0.000295097
0.00489503 0.00188137 -0.00178881
0.00535927 -0.00093169 0.000883569
0.00596067 0.000691425 -0.00041944
0.00570479 0.000376582 -0.000299917
0.00550424 0.00029001 -0.00026153
0.00582765 -0.000436643 0.000993537
0.00674388 0.000766259 -0.00066931
0.00543749 -0.000868466 0.000257512
0.00720073 -0.000125684 -0.000156818
0.00652228 2.7518e-05 -0.000174139
0.00681278 -8.39387e-05 -0.00033895
0.0061813 -0.000404595 -0.00137647
0.00532311 -0.000433517 0.000377223
0.00663492 0.000271296 -0.000277878
0.00518434 -0.000904275 0.000854549
0.00631916 0.000137947 -0.000230001
0.00519877 -0.00090145 0.000856106
0.00653078 6.15615e-05 -0.00019652
0.00763105 0.000579905 0.000398345
0.00581338 0.000468945 -0.000379441
0.00651903 0.000347126 -0.000554877
0.00560092 -0.000768027 0.000473695
0.00535193 -0.000900729 0.000883209
0.00573284 0.00096331 -0.000514264
0.00567976 -0.000845228 0.000454634
0.00596545 -0.000477813 0.00101513
0.00564547 0.000581669 -0.000377388
0.00510265 0.0014651 -0.000677048
0.00626047 0.000605203 -0.000458266
0.00573914 0.00086486 -0.000481199
0.005614 0.000524997 -0.00034873
0.00610694 0.00108322 -0.000570839
0.00591509 0.000762599 -0.00044885
0.00585034 0.00110575 -0.000576586
0.00635415 0.000755919 -0.000789585
0.00644447 0.000290515 -0.000298002
0.00420222 9.80501e-05 -0.00108265
0.00562005 -0.000880887 0.000262556
0.00569438 0.000544172 -0.000359734
0.00554357 -0.000449982 0.000392201
0.00599023 -0.000482836 0.00101642
0.00540272 -0.00095067 0.000642511
0.00530841 -0.000419893 0.000374123

VECTORS force float
1.54184e-10 -6.0236e-11 4.1535e-11
1.17557e-10 -2.08524e-12 1.12801e-11
1.65197e-09 1.60775e-09 -2.8637e-09
1.41944e-10 -1.98466e-11 2.87495e-11
-5.2309e-11 -5.69538e-11 3.65534e-11
1.5856e-12 4.59414e-12 -1.66258e-12
5.52532e-11 6.32601e-12 6.72026e-11
3.27973e-10 6.94118e-12 2.05593e-10
-2.52308e-13 4.58414e-12 -4.25265e-13
-3.30862e-11 -6.61684e-11 7.37406e-11
-3.57674e-11 3.01294e-11 -1.16691e-11
3.58377e-10 -6.31116e-10 -1.67576e-09
-2.04936e-11 3.34823e-11 -8.24687e-11
-3.82013e-10 -1.27542e-09 4.0928e-09
3.89535e-11 -8.66964e-11 1.70049e-11
-1.17322e-09 -3.78608e-09 8.69203e-09
-1.24353e-10 -1.91441e-11 4.09219e-11
-4.41411e-11 1.6325e-10 -1.21198e-10
-8.27977e-12 -7.13538e-11 3.23007e-11
5.26256e-11 7.2359e-11 7.74475e-11
3.59753e-10 -9.50871e-10 4.07787e-10
-2.1281e-11 -1.16747e-11 -2.61491e-11
9.90353e-11 -4.22977e-11 1.2297e-10
4.53154e-13 6.90566e-13 -1.75272e-13
-2.73142e-10 -2.01073e-09 8.015e-10
5.65352e-11 -7.03862e-11 2.04388e-11
-2.43104e-10 7.37092e-11 6.68657e-12
1.29388e-10 -3.25647e-11 4.9839e-12
4.11729e-11 4.79992e-11 -1.54501e-11
-2.4124e-11 2.62384e-11 -1.82438e-11
1.13559e-12 2.98005e-12 -8.54145e-13
-1.55956e-10 -6.48772e-12 2.57588e-11
6.64266e-11 -2.01033e-11 -1.22444e-11
3.19037e-11 -5.18635e-12 2.35243e-11
1.17705e-11 -1.02433e-10 9.34471e-11
-1.12749e-10 8.68871e-11 1.37093e-11
-7.95355e-12 -6.15426e-12 5.64766e-13
6.00146e-11 -5.74365e-11 -5.96775e-12
-2.13166e-11 -5.82163e-11 6.64168e-11
-1.38027e-10 4.66084e-11 -1.9345e-12
1.66825e-12 4.80603e-12 -1.62028e-12
-4.28688e-12 5.77863e-12 1.66766e-11
-3.51645e-11 -3.15821e-11 1.31624e-11
-1.88826e-11 -1.2799e-10 2.69846e-11
5.73288e-11 5.34552e-11 -9.92394e-12
-8.80112e-10 -6.20501e-10 1.06974e-09
1.13348e-11 8.81789e-13 -3.01769e-14
-1.65051e-10 -4.34885e-12 3.78144e-11
1.30388e-09 -3.53574e-10 -3.79536e-10
2.10568e-11 -5.92538e-11 6.79655e-11
3.85602e-13 2.26761e-12 -8.80392e-13
1.07071e-10 -2.38919e-11 -1.43837e-10
1.58735e-10 3.0976e-11 2.10251e-11
-1.37374e-10 3.137e-11 -1.98446e-10
1.51246e-11 -6.13702e-12 -4.10889e-12
-4.02226e-11 -9.34196e-11 1.63851e-11
1.17771e-11 3.2397e-12 -9.25684e-13
1.63381e-09 -2.18207e-09 1.01857e-09
-1.17264e-09 -4.4953e-10 1.40359e-09
-8.47535e-11 6.92784e-11 -3.65927e-11
1.03091e-10 -1.60674e-12 3.11997e-11
-1.30895e-10 -1.71817e-11 -1.78268e-12
-1.65314e-12 -1.05433e-11 4.42799e-12
1.18e-09 7.7514e-10 1.1249e-09
1.00444e-10 -4.00545e-11 1.4252e-11
1.4835e-11 -9.98231e-11 8.05879e-11
3.31665e-11 -3.32216e-12 -1.10444e-12
-7.33305e-10 3.74272e-10 -2.35048e-10
-6.36608e-12 -1.79117e-10 9.90281e-11
6.14949e-10 5.34033e-10 -2.28489e-09
1.24371e-09 -2.63325e-10 -5.02732e-10
9.79787e-11 -5.07534e-11 5.06622e-11
-2.01572e-11 -1.38877e-09 1.15299e-09
-1.0371e-09 -1.88496e-09 7.97559e-10
-2.73209e-10 -7.6475e-11 -5.24957e-10
-1.37663e-12 -1.05348e-11 3.85019e-12