# vtk DataFile Version 3.0
LIGGGHTS particles timestep 36600000
ASCII
DATASET POLYDATA
POINTS 271 float
0.22589 0.0154705 0.00874055
0.226742 0.0180729 0.00697225
0.220801 0.0175541 0.007173
0.226816 0.0180161 0.00700766
0.22587 0.0153961 0.00880414
0.232364 0.0172512 0.00738235
0.225971 0.0157684 0.0084861
0.22585 0.0153217 0.00886772
0.232495 0.0178044 0.00719015
0.226446 0.0175741 0.00721543
0.226583 0.0177794 0.00711644
0.219907 0.0156469 0.00878758
0.225789 0.0151235 0.00907952
0.220584 0.018205 0.00708761
0.226791 0.0179298 0.00705166
0.220682 0.0182381 0.00707908
0.226874 0.0180899 0.0069727
0.225829 0.0152473 0.00893131
0.226402 0.0174003 0.00730445
0.226564 0.0176928 0.00716238
0.22015 0.0161424 0.00827059
0.232579 0.0181738 0.00706177
0.226038 0.0159923 0.00829834
0.232451 0.01762 0.00725422
0.220885 0.0179419 0.00711392
0.226697 0.0178984 0.00706151
0.22599 0.0158432 0.00842241
0.226555 0.0178768 0.00715884
0.22605 0.0160661 0.00823199
0.226539 0.0171881 0.00742674
0.232386 0.0173434 0.00735032
0.225951 0.015694 0.00854969
0.226676 0.0175545 0.00724234
0.232559 0.0180812 0.00709399
0.226601 0.0182837 0.00692329
0.226757 0.018613 0.00691524
0.232598 0.0182665 0.00702954
0.226924 0.0181901 0.00692317
0.321436 0.0173475 0.00552525
0.226715 0.0179869 0.00701594
0.232408 0.0174356 0.00731828
0.225911 0.0155449 0.00867695
0.226737 0.0185151 0.00691667
0.226096 0.0162137 0.00810525
0.226071 0.0161405 0.00816845
0.219821 0.0153816 0.00907443
0.232538 0.0179888 0.00712608
0.226676 0.0182334 0.00696662
0.21976 0.0151826 0.00929034
0.226622 0.0183853 0.00692181
0.23243 0.0175278 0.00728625
0.226543 0.0176053 0.00720586
0.22638 0.0169372 0.00754829
0.226891 0.0183623 0.00691209
0.226867 0.0178739 0.00708668
0.232618 0.0183591 0.00699731
0.220094 0.0162437 0.00814097
0.219739 0.0151162 0.0093623
0.226665 0.0181347 0.00695448
0.226593 0.0173595 0.00733976
0.226643 0.0183306 0.00700287
0.232473 0.0177122 0.00722218
0.219801 0.0153153 0.0091464
0.226546 0.0180197 0.00702282
0.226662 0.0185813 0.00691895
0.226717 0.0184171 0.0069181
0.22081 0.0180085 0.0071072
0.226638 0.0176349 0.00719696
0.220564 0.0181099 0.0071112
0.219863 0.0155143 0.00893068
0.226861 0.018267 0.00691388
0.220702 0.0183349 0.00706435
0.219931 0.0157131 0.00871654
0.220619 0.017947 0.00712343
0.232517 0.0178966 0.00715812
0.220823 0.0176509 0.00715824
0.226958 0.0182884 0.00691014
0.226831 0.0185467 0.00691296
0.226264 0.0168137 0.00760552
0.226812 0.0184488 0.00691439
0.226603 0.0178667 0.00707157
0.220864 0.0178452 0.00712865
0.226697 0.0183191 0.00691953
0.226133 0.0163639 0.00797833
0.226586 0.0177843 0.00721629
0.226505 0.017583 0.00729566
0.226154 0.0164377 0.0079143
0.220209 0.0163416 0.00805399
0.226678 0.0178108 0.0071066
0.220307 0.0166734 0.00769317
0.226792 0.0183508 0.00691582
0.219884 0.0155806 0.00885884
0.0643568 0.0187248 0.00531097
0.24257 0.0191927 0.00520306
0.220515 0.0174636 0.00719709
0.220938 0.0177787 0.00713536
0.220759 0.0173608 0.00720247
0.220738 0.0172642 0.0072172
0.226663 0.0184291 0.00700166
0.226847 0.0177866 0.00713158
0.226178 0.0165113 0.00785096
0.226516 0.017456 0.00728311
0.220578 0.0177535 0.00715289
0.220173 0.0165092 0.00785245
0.220544 0.0180122 0.00711695
0.226772 0.0178425 0.00709654
0.226629 0.0181825 0.00703867
0.226702 0.0187773 0.0069161
0.220376 0.0172391 0.00723557
0.226734 0.0176676 0.00718651
0.226011 0.0159174 0.00835887
0.225931 0.0156194 0.00861333
0.226473 0.0172822 0.00737214
0.220334 0.0170531 0.00728924
0.226495 0.0173691 0.00732762
0.226777 0.018711 0.00691382
0.226403 0.0170239 0.007504
0.220959 0.0178754 0.00712063
0.22644 0.0171977 0.00741461
0.226507 0.0178353 0.00708138
0.22078 0.0174574 0.00718773
0.226621 0.017954 0.00702664
0.226467 0.017661 0.00717092
0.226412 0.0171122 0.00745789
0.225809 0.0151729 0.0089949
0.220605 0.0183017 0.00707288
0.226115 0.0162884 0.00804157
0.226627 0.0180386 0.00707973
0.226658 0.0177235 0.00715147
0.220599 0.0178502 0.00713816
0.220313 0.016983 0.00735751
0.21978 0.0152489 0.00921837
0.220439 0.017529 0.00719148
0.220661 0.0181414 0.00709441
0.220401 0.0167052 0.00767784
0.226283 0.0169047 0.00756856
0.0100679 0.0201683 0.00551526
0.220273 0.0168468 0.0074979
0.220646 0.0184953 0.00704342
0.220397 0.0173358 0.00722127
0.220598 0.0170456 0.00728378
0.220557 0.0176569 0.00716762
0.0219312 0.0187687 0.00551176
0.220789 0.0179118 0.00712193
0.226911 0.0184603 0.00691067
0.220418 0.0174325 0.00720678
0.220723 0.0184317 0.00704962
0.220267 0.0165407 0.00783743
0.220611 0.0174946 0.0071889
0.226642 0.0184833 0.00692038
0.220327 0.0167398 0.00762098
0.220777 0.0182685 0.00707103
0.220685 0.0174277 0.00719569
0.226553 0.0179792 0.00711399
0.22059 0.0173982 0.0072046
0.226827 0.0181685 0.0069328
0.22062 0.0171361 0.00724022
0.214336 0.0171247 0.00743543
0.220446 0.0168256 0.00752142
0.220369 0.0168711 0.00747603
0.22045 0.0171721 0.00724159
0.220736 0.0180748 0.00710052
0.226489 0.0177479 0.00712636
0.220664 0.0173311 0.00721043
0.226496 0.01774 0.00722577
0.220252 0.0167746 0.00756392
0.226381 0.0173134 0.00734897
0.226572 0.0172727 0.00738426
0.226633 0.0180434 0.00698008
0.214614 0.018348 0.00700954
0.226621 0.0174452 0.00729633
0.220569 0.0173014 0.00721837
0.226753 0.0177549 0.00714164
0.161461 0.0182058 0.00533758
0.220769 0.0178145 0.00713673
0.220169 0.0162088 0.00819829
0.214399 0.0173483 0.00724597
0.220625 0.0183985 0.00705815
0.220523 0.0179154 0.00713168
0.220154 0.0164439 0.00792564
0.220653 0.0176881 0.00716122
0.226205 0.0165849 0.0077889
0.219842 0.015448 0.00900247
0.220727 0.017621 0.00716621
0.220228 0.0164079 0.00798178
0.220348 0.0168061 0.00754934
0.220536 0.0175605 0.00718412
0.217372 0.0175071 0.00708933
0.226424 0.0174872 0.00725994
0.226365 0.0172604 0.00743222
0.220674 0.0177846 0.00714471
0.22658 0.0181795 0.0069248
0.2263 0.0169879 0.00751572
0.214594 0.0182516 0.00699192
0.220632 0.0175913 0.00717476
0.226682 0.0186793 0.00691752
0.219954 0.0157796 0.00864564
0.226236 0.0167379 0.00766427
0.220748 0.0177177 0.00715147
0.280296 0.0169292 0.00737365
0.226763 0.0182444 0.00691761
0.220494 0.017367 0.00721182
0.0388871 0.0173242 0.00799961
0.226581 0.0175263 0.00725385
0.220293 0.0169193 0.00743209
0.214534 0.0179596 0.00696526
0.214357 0.0171978 0.00737046
0.220714 0.0179782 0.00711526
0.220114 0.0163101 0.00806884
0.214315 0.0170516 0.00750047
0.220503 0.0178187 0.00714642
0.226526 0.0179226 0.00703639
0.220706 0.0175243 0.00718096
0.220075 0.0161788 0.00821459
0.220037 0.0160461 0.00835926
0.21415 0.0164669 0.00802078
0.214171 0.01654 0.00795574
0.214233 0.0167593 0.00776063
0.220355 0.0171424 0.00724954
0.214191 0.0166131 0.0078907
0.214295 0.0169785 0.00756551
0.220905 0.0180389 0.00709915
0.220134 0.0163765 0.00799671
0.214574 0.0181552 0.00697429
0.220425 0.0167664 0.00759938
0.226216 0.0166607 0.00772459
0.214435 0.0174919 0.00711171
0.214634 0.0184444 0.00702717
0.214274 0.0169055 0.00763055
0.22046 0.0176255 0.00717596
0.220548 0.0172049 0.0072341
0.220504 0.0170256 0.00731028
0.220409 0.0169933 0.00731525
0.214454 0.0175855 0.00708232
0.220213 0.0166419 0.00770819
0.220018 0.0159783 0.00843021
0.214253 0.0168324 0.00769559
0.220665 0.0185923 0.0070287
0.214377 0.0172709 0.00730535
0.220472 0.0172701 0.00722661
0.220189 0.0162752 0.00812611
0.220193 0.0165755 0.00778032
0.220482 0.0169449 0.00736509
0.226322 0.0170813 0.00748753
0.220756 0.0181717 0.00708576
0.214494 0.0177724 0.0070238
0.219977 0.0158456 0.00857403
0.214474 0.017679 0.00705305
0.220248 0.0164743 0.00790959
0.220233 0.0167083 0.00763607
0.220426 0.0170727 0.00725683
0.220831 0.0181053 0.00709247
0.214514 0.0178661 0.00699452
0.214129 0.0163939 0.00808582
0.220287 0.016607 0.00776534
0.220643 0.0172345 0.00722516
0.220695 0.0178816 0.00713197
0.220526 0.0171129 0.00726696
0.220464 0.0168852 0.00744329
0.220131 0.0160761 0.00834297
0.220639 0.0180439 0.0071087
0.220389 0.0169311 0.00739711
0.220482 0.0177221 0.00716114
0.220844 0.0177478 0.00714347
0.219998 0.0159127 0.00850305
0.214554 0.0180574 0.00696797
0.220055 0.016111 0.0082852
0.226566 0.0181149 0.00699984
0.214212 0.0166862 0.00782567
0.214418 0.0174168 0.00717542
0.226343 0.017179 0.00748602

VERTICES 271 542
1 0
1 1
1 2
1 3
1 4
1 5
1 6
1 7
1 8
1 9
1 10
1 11
1 12
1 13
1 14
1 15
1 16
1 17
1 18
1 19
1 20
1 21
1 22
1 23
1 24
1 25
1 26
1 27
1 28
1 29
1 30
1 31
1 32
1 33
1 34
1 35
1 36
1 37
1 38
1 39
1 40
1 41
1 42
1 43
1 44
1 45
1 46
1 47
1 48
1 49
1 50
1 51
1 52
1 53
1 54
1 55
1 56
1 57
1 58
1 59
1 60
1 61
1 62
1 63
1 64
1 65
1 66
1 67
1 68
1 69
1 70
1 71
1 72
1 73
1 74
1 75
1 76
1 77
1 78
1 79
1 80
1 81
1 82
1 83
1 84
1 85
1 86
1 87
1 88
1 89
1 90
1 91
1 92
1 93
1 94
1 95
1 96
1 97
1 98
1 99
1 100
1 101
1 102
1 103
1 104
1 105
1 106
1 107
1 108
1 109
1 110
1 111
1 112
1 113
1 114
1 115
1 116
1 117
1 118
1 119
1 120
1 121
1 122
1 123
1 124
1 125
1 126
1 127
1 128
1 129
1 130
1 131
1 132
1 133
1 134
1 135
1 136
1 137
1 138
1 139
1 140
1 141
1 142
1 143
1 144
1 145
1 146
1 147
1 148
1 149
1 150
1 151
1 152
1 153
1 154
1 155
1 156
1 157
1 158
1 159
1 160
1 161
1 162
1 163
1 164
1 165
1 166
1 167
1 168
1 169
1 170
1 171
1 172
1 173
1 174
1 175
1 176
1 177
1 178
1 179
1 180
1 181
1 182
1 183
1 184
1 185
1 186
1 187
1 188
1 189
1 190
1 191
1 192
1 193
1 194
1 195
1 196
1 197
1 198
1 199
1 200
1 201
1 202
1 203
1 204
1 205
1 206
1 207
1 208
1 209
1 210
1 211
1 212
1 213
1 214
1 215
1 216
1 217
1 218
1 219
1 220
1 221
1 222
1 223
1 224
1 225
1 226
1 227
1 228
1 229
1 230
1 231
1 232
1 233
1 234
1 235
1 236
1 237
1 238
1 239
1 240
1 241
1 242
1 243
1 244
1 245
1 246
1 247
1 248
1 249
1 250
1 251
1 252
1 253
1 254
1 255
1 256
1 257
1 258
1 259
1 260
1 261
1 262
1 263
1 264
1 265
1 266
1 267
1 268
1 269
1 270

POINT_DATA 271
SCALARS id int 1
LOOKUP_TABLE default
1
2
3
4
5
6
7
8
9
10
11
12
13
14
15
16
17
19
21
22
23
24
25
26
27
28
29
30
31
32
33
34
35
36
37
38
39
41
42
44
45
47
48
50
51
52
53
54
55
56
57
59
61
62
63
64
65
66
67
68
69
70
71
72
73
74
76
77
78
79
80
81
82
83
84
85
86
87
88
89
90
91
92
93
94
95
96
97
98
99
100
101
102
103
104
105
106
107
108
109
110
111
112
113
114
115
116
117
118
119
120
121
122
123
124
125
126
127
128
129
131
132
133
134
135
136
137
138
140
141
142
143
144
147
148
149
150
151
153
154
155
156
157
158
159
160
162
164
165
166
168
169
170
171
172
173
174
175
177
178
179
181
182
183
184
186
187
188
189
190
191
192
193
194
195
196
197
198
199
201
202
203
204
205
206
207
208
209
210
211
212
213
214
215
216
217
218
219
220
221
222
223
224
225
226
227
228
229
230
231
232
234
235
236
237
239
240
241
242
244
246
247
248
249
250
251
252
253
254
255
256
257
258
259
261
262
263
264
265
266
267
268
269
270
271
272
273
274
275
276
277
278
280
283
284
285
286
287
288
289
290
291
292
293
294
295
296
297
298
299
300

SCALARS type int 1
LOOKUP_TABLE default
1
1
1
1
1
1
1
1
1
1
1
1
1
1
1
1
1
1
1
1
1
1
1
1
1
1
1
1
1
1
1
1
1
1
1
1
1
1
1
1
1
1
1
1
1
1
1
1
1
1
1
1
1
1
1
1
1
1
1
1
1
1
1
1
1
1
1
1
1
1
1
1
1
1
1
1
1
1
1
1
1
1
1
1
1
1
1
1
1
1
1
1
1
1
1
1
1
1
1
1
1
1
1
1
1
1
1
1
1
1
1
1
1
1
1
1
1
1
1
1
1
1
1
1
1
1
1
1
1
1
1
1
1
1
1
1
1
1
1
1
1
1
1
1
1
1
1
1
1
1
1
1
1
1
1
1
1
1
1
1
1
1
1
1
1
1
1
1
1
1
1
1
1
1
1
1
1
1
1
1
1
1
1
1
1
1
1
1
1
1
1
1
1
1
1
1
1
1
1
1
1
1
1
1
1
1
1
1
1
1
1
1
1
1
1
1
1
1
1
1
1
1
1
1
1
1
1
1
1
1
1
1
1
1
1
1
1
1
1
1
1
1
1
1
1
1
1
1
1
1
1
1
1
1
1
1
1
1
1
1
1
1
1
1
1
1
1
1
1
1
1

SCALARS radius float 1
LOOKUP_TABLE default
5e-05
5e-05
5e-05
5e-05
5e-05
5e-05
5e-05
5e-05
5e-05
5e-05
5e-05
5e-05
5e-05
5e-05
5e-05
5e-05
5e-05
5e-05
5e-05
5e-05
5e-05
5e-05
5e-05
5e-05
5e-05
5e-05
5e-05
5e-05
5e-05
5e-05
5e-05
5e-05
5e-05
5e-05
5e-05
5e-05
5e-05
5e-05
5e-05
5e-05
5e-05
5e-05
5e-05
5e-05
5e-05
5e-05
5e-05
5e-05
5e-05
5e-05
5e-05
5e-05
5e-05
5e-05
5e-05
5e-05
5e-05
5e-05
5e-05
5e-05
5e-05
5e-05
5e-05
5e-05
5e-05
5e-05
5e-05
5e-05
5e-05
5e-05
5e-05
5e-05
5e-05
5e-05
5e-05
5e-05
5e-05
5e-05
5e-05
5e-05
5e-05
5e-05
5e-05
5e-05
5e-05
5e-05
5e-05
5e-05
5e-05
5e-05
5e-05
5e-05
5e-05
5e-05
5e-05
5e-05
5e-05
5e-05
5e-05
5e-05
5e-05
5e-05
5e-05
5e-05
5e-05
5e-05
5e-05
5e-05
5e-05
5e-05
5e-05
5e-05
5e-05
5e-05
5e-05
5e-05
5e-05
5e-05
5e-05
5e-05
5e-05
5e-05
5e-05
5e-05
5e-05
5e-05
5e-05
5e-05
5e-05
5e-05
5e-05
5e-05
5e-05
5e-05
5e-05
5e-05
5e-05
5e-05
5e-05
5e-05
5e-05
5e-05
5e-05
5e-05
5e-05
5e-05
5e-05
5e-05
5e-05
5e-05
5e-05
5e-05
5e-05
5e-05
5e-05
5e-05
5e-05
5e-05
5e-05
5e-05
5e-05
5e-05
5e-05
5e-05
5e-05
5e-05
5e-05
5e-05
5e-05
5e-05
5e-05
5e-05
5e-05
5e-05
5e-05
5e-05
5e-05
5e-05
5e-05
5e-05
5e-05
5e-05
5e-05
5e-05
5e-05
5e-05
5e-05
5e-05
5e-05
5e-05
5e-05
5e-05
5e-05
5e-05
5e-05
5e-05
5e-05
5e-05
5e-05
5e-05
5e-05
5e-05
5e-05
5e-05
5e-05
5e-05
5e-05
5e-05
5e-05
5e-05
5e-05
5e-05
5e-05
5e-05
5e-05
5e-05
5e-05
5e-05
5e-05
5e-05
5e-05
5e-05
5e-05
5e-05
5e-05
5e-05
5e-05
5e-05
5e-05
5e-05
5e-05
5e-05
5e-05
5e-05
5e-05
5e-05
5e-05
5e-05
5e-05
5e-05
5e-05
5e-05
5e-05
5e-05
5e-05
5e-05
5e-05
5e-05
5e-05
5e-05
5e-05
5e-05
5e-05
5e-05
5e-05
5e-05
5e-05
5e-05
5e-05
5e-05
5e-05
5e-05
5e-05
5e-05
5e-05
5e-05
5e-05
5e-05
5e-05
5e-05
5e-05

SCALARS mass float 1
LOOKUP_TABLE default
1.46608e-10
1.46608e-10
1.46608e-10
1.46608e-10
1.46608e-10
1.46608e-10
1.46608e-10
1.46608e-10
1.46608e-10
1.46608e-10
1.46608e-10
1.46608e-10
1.46608e-10
1.46608e-10
1.46608e-10
1.46608e-10
1.46608e-10
1.46608e-10
1.46608e-10
1.46608e-10
1.46608e-10
1.46608e-10
1.46608e-10
1.46608e-10
1.46608e-10
1.46608e-10
1.46608e-10
1.46608e-10
1.46608e-10
1.46608e-10
1.46608e-10
1.46608e-10
1.46608e-10
1.46608e-10
1.46608e-10
1.46608e-10
1.46608e-10
1.46608e-10
1.46608e-10
1.46608e-10
1.46608e-10
1.46608e-10
1.46608e-10
1.46608e-10
1.46608e-10
1.46608e-10
1.46608e-10
1.46608e-10
1.46608e-10
1.46608e-10
1.46608e-10
1.46608e-10
1.46608e-10
1.46608e-10
1.46608e-10
1.46608e-10
1.46608e-10
1.46608e-10
1.46608e-10
1.46608e-10
1.46608e-10
1.46608e-10
1.46608e-10
1.46608e-10
1.46608e-10
1.46608e-10
1.46608e-10
1.46608e-10
1.46608e-10
1.46608e-10
1.46608e-10
1.46608e-10
1.46608e-10
1.46608e-10
1.46608e-10
1.46608e-10
1.46608e-10
1.46608e-10
1.46608e-10
1.46608e-10
1.46608e-10
1.46608e-10
1.46608e-10
1.46608e-10
1.46608e-10
1.46608e-10
1.46608e-10
1.46608e-10
1.46608e-10
1.46608e-10
1.46608e-10
1.46608e-10
1.46608e-10
1.46608e-10
1.46608e-10
1.46608e-10
1.46608e-10
1.46608e-10
1.46608e-10
1.46608e-10
1.46608e-10
1.46608e-10
1.46608e-10
1.46608e-10
1.46608e-10
1.46608e-10
1.46608e-10
1.46608e-10
1.46608e-10
1.46608e-10
1.46608e-10
1.46608e-10
1.46608e-10
1.46608e-10
1.46608e-10
1.46608e-10
1.46608e-10
1.46608e-10
1.46608e-10
1.46608e-10
1.46608e-10
1.46608e-10
1.46608e-10
1.46608e-10
1.46608e-10
1.46608e-10
1.46608e-10
1.46608e-10
1.46608e-10
1.46608e-10
1.46608e-10
1.46608e-10
1.46608e-10
1.46608e-10
1.46608e-10
1.46608e-10
1.46608e-10
1.46608e-10
1.46608e-10
1.46608e-10
1.46608e-10
1.46608e-10
1.46608e-10
1.46608e-10
1.46608e-10
1.46608e-10
1.46608e-10
1.46608e-10
1.46608e-10
1.46608e-10
1.46608e-10
1.46608e-10
1.46608e-10
1.46608e-10
1.46608e-10
1.46608e-10
1.46608e-10
1.46608e-10
1.46608e-10
1.46608e-10
1.46608e-10
1.46608e-10
1.46608e-10
1.46608e-10
1.46608e-10
1.46608e-10
1.46608e-10
1.46608e-10
1.46608e-10
1.46608e-10
1.46608e-10
1.46608e-10
1.46608e-10
1.46608e-10
1.46608e-10
1.46608e-10
1.46608e-10
1.46608e-10
1.46608e-10
1.46608e-10
1.46608e-10
1.46608e-10
1.46608e-10
1.46608e-10
1.46608e-10
1.46608e-10
1.46608e-10
1.46608e-10
1.46608e-10
1.46608e-10
1.46608e-10
1.46608e-10
1.46608e-10
1.46608e-10
1.46608e-10
1.46608e-10
1.46608e-10
1.46608e-10
1.46608e-10
1.46608e-10
1.46608e-10
1.46608e-10
1.46608e-10
1.46608e-10
1.46608e-10
1.46608e-10
1.46608e-10
1.46608e-10
1.46608e-10
1.46608e-10
1.46608e-10
1.46608e-10
1.46608e-10
1.46608e-10
1.46608e-10
1.46608e-10
1.46608e-10
1.46608e-10
1.46608e-10
1.46608e-10
1.46608e-10
1.46608e-10
1.46608e-10
1.46608e-10
1.46608e-10
1.46608e-10
1.46608e-10
1.46608e-10
1.46608e-10
1.46608e-10
1.46608e-10
1.46608e-10
1.46608e-10
1.46608e-10
1.46608e-10
1.46608e-10
1.46608e-10
1.46608e-10
1.46608e-10
1.46608e-10
1.46608e-10
1.46608e-10
1.46608e-10
1.46608e-10
1.46608e-10
1.46608e-10
1.46608e-10
1.46608e-10
1.46608e-10
1.46608e-10
1.46608e-10
1.46608e-10
1.46608e-10
1.46608e-10
1.46608e-10
1.46608e-10
1.46608e-10
1.46608e-10
1.46608e-10
1.46608e-10
1.46608e-10
1.46608e-10
1.46608e-10
1.46608e-10
1.46608e-10
1.46608e-10
1.46608e-10
1.46608e-10
1.46608e-10
1.46608e-10
1.46608e-10

VECTORS velocity float
0.00579527 -0.000265195 -0.000414408
0.00582243 0.000251073 0.000291992
0.00618471 -0.000257025 -0.0002025
0.00580845 0.000240534 0.000289738
0.00584242 -0.000291146 -0.000399103
0.00590643 -0.000771222 0.00037619
0.00529266 -0.000179303 -0.000420827
0.00580988 -0.000296091 -0.000369017
0.00588774 -0.000767799 0.000374658
0.00617811 0.000208153 0.000338681
0.00554583 0.000257171 0.000259045
0.0064477 0.000649248 0.000715449
0.00590625 0.000468528 8.31398e-05
0.00566046 -0.000175516 -0.000192584
0.00570796 0.000265775 0.000268769
0.0056378 -0.000216345 -0.000186377
0.00564178 0.000339008 0.000221019
0.00579524 -0.000333643 -0.000371036
0.00620009 0.000356529 0.000257526
0.00562799 0.000252577 0.000265185
0.00560188 0.000535858 0.000654152
0.00554762 -0.000700461 0.000344934
0.00560298 -0.000247461 -0.000407311
0.005894 -0.000768913 0.000375148
0.00569727 -0.000126193 -0.000201727
0.00573944 0.00011316 0.000353183
0.00536239 -0.000191358 -0.000423132
0.00565152 0.000368549 0.000292622
0.00561538 -0.000241376 -0.000412566
0.0061462 0.00037409 0.00024063
0.00590332 -0.00077061 0.000375921
0.00540092 -0.000199629 -0.000413388
0.00605306 0.000671871 8.02962e-05
0.00550791 -0.000693076 0.000341625
0.00562919 9.33052e-05 -0.000210611
0.0056776 0.000171521 -0.000209574
0.00558739 -0.000707841 0.000348233
0.00562352 0.000267192 0.000258041
4.57052e-16 2.25549e-15 8.4636e-14
0.0057798 0.000253905 0.000283085
0.00590022 -0.000770035 0.000375666
0.00565121 -0.000229468 -0.000418555
0.00565474 0.000169079 -0.00020913
0.00566086 -0.000233358 -0.000423785
0.0056388 -0.000241438 -0.000416013
0.00581392 0.000685908 0.000526204
0.00588148 -0.000766725 0.000374169
0.00566631 0.000230283 -7.64777e-05
0.00594711 0.000679011 0.000564517
0.00566084 0.00016172 -0.000199192
0.00589707 -0.000769436 0.000375402
0.00549379 0.000255483 0.000260467
0.00609677 0.000388897 0.000229463
0.00565058 0.000223948 -0.000216433
0.00571258 0.000261695 0.000271094
0.00562716 -0.000715173 0.000351519
0.0057486 0.00061211 0.000597887
0.00598661 0.000660282 0.00059468
0.00578311 0.000188029 0.000164449
0.0052688 0.000562652 7.8586e-05
0.00567593 0.000163998 -0.000177966
0.00589083 -0.000768332 0.0003749
0.00585477 0.000686748 0.000534209
0.00581347 0.000261817 0.000287173
0.0056685 0.000170566 -0.000208666
0.00565508 0.000158599 -0.000208024
0.00568762 -0.000150007 -0.00019785
0.00574361 0.000477694 0.000153102
0.00564059 -0.000167437 -0.000191704
0.00574023 0.000678 0.000519151
0.00566428 0.000244095 -0.000197243
0.00567876 -0.000222007 -0.000187142
0.00645188 0.00063263 0.000729182
0.00560302 -0.000268723 -0.000178047
0.00588459 -0.000767279 0.000374413
0.00616564 -0.000181308 -0.000211882
0.00568177 0.000240434 -0.000208919
0.00565453 0.000164302 -0.00020862
0.00603393 0.000404509 0.000222657
0.00564738 0.000176283 -0.000209801
0.00561714 0.000244033 0.000276746
0.00571395 -0.0001256 -0.000202274
0.00566396 0.000162362 -0.000196433
0.00577998 -0.000220865 -0.000448361
0.00553164 0.000257429 0.00025432
0.00600736 0.000226074 0.000466337
0.00587429 -0.000224201 -0.000460557
0.00588674 0.000607474 0.000632936
0.0055335 0.000174215 0.000303428
0.0061538 0.000612518 0.0006838
0.00565806 0.000172394 -0.000206587
0.00617181 0.000663838 0.000633317
4.45202e-15 1.04862e-14 8.2952e-14
-7.91558e-23 4.86658e-23 1.23839e-22
0.00612023 -0.000327043 -0.000182089
0.00609479 0.000310568 -0.000279975
0.00620922 -0.000208563 -0.000209706
0.00623796 -0.000208199 -0.000212048
0.00565695 0.000145426 -0.000204159
0.00586683 0.000192473 0.000319393
0.00597662 -0.000228336 -0.000464039
0.00623398 0.000385336 0.000243218
0.00609299 -0.000239447 -0.000202382
0.0059896 0.00063474 0.000633146
0.00566195 -0.000139692 -0.000200632
0.00576699 0.000111943 0.000353158
0.00577109 0.000365844 9.68387e-05
0.00554429 0.000223415 -0.000204968
0.00628135 -0.000315715 -0.000214128
0.00546022 0.00019268 0.000288344
0.0055366 -0.000230357 -0.000412659
0.00551429 -0.000216189 -0.000418747
0.00616882 0.000382958 0.00023823
0.0063288 -0.000368298 -0.000251712
0.00624172 0.000350733 0.000254923
0.00568166 0.000230011 -0.000210267
0.00581189 0.0004612 0.000172995
0.00571268 -0.00012979 -0.000201879
0.0061541 0.000397637 0.000230353
0.00574926 0.000152601 0.000337392
0.0061883 -0.000217578 -0.00020839
0.00578437 0.000213944 0.00031098
0.00611113 8.84905e-05 0.000385513
0.00615683 0.000410703 0.000229079
0.00581565 -0.000429197 -0.000476777
0.00566081 -0.000202245 -0.00018926
0.00571458 -0.000226605 -0.000434883
0.00585195 0.000231088 0.00027341
0.00551902 0.000236595 0.000261013
0.00582474 -0.000147803 -0.000206228
0.00625237 -0.00022107 -0.000100382
0.00590797 0.000692889 0.000539379
0.00617946 -0.000268031 -0.000362138
0.00567442 -0.000156178 -0.000196963
0.00650367 0.000904816 0.00045039
0.00612707 0.00040003 0.000221859
8.38481e-15 1.24296e-15 -8.48744e-14
0.00623134 0.000446723 0.000552219
0.00546373 -0.000166361 -0.000186904
0.00625761 -0.000318503 -0.000312269
0.00647245 -2.06672e-06 0.000520124
0.00609557 -0.000267067 -0.0001969
-3.8374e-14 8.16503e-14 2.95887e-13
0.00568872 -0.000153528 -0.000196891
0.00564099 0.000213495 -0.000207867
0.0062069 -0.000302582 -0.0003932
0.00547481 -0.000156593 -0.000188754
0.00604762 0.00061728 0.000659795
0.0061712 -0.000268899 -0.000198728
0.00565041 0.000132587 -0.000207339
0.00622033 0.000623297 0.000700127
0.00569017 -0.000213876 -0.000188907
0.00619765 -0.000242219 -0.00020692
0.00581869 0.000312981 0.000286564
0.00619113 -0.00028216 -0.000200051
0.00562433 0.000121377 -0.00016929
0.00629263 -0.000280788 -0.000198291
0.00610745 0.000244096 0.000521624
0.006281 -0.000485409 -0.000364491
0.00627173 -0.000222049 -8.76771e-05
0.00631341 -0.000293078 -0.000195294
0.00568454 -0.000147034 -0.000198774
0.00561959 0.000114509 0.000318541
0.00621268 -0.000243432 -0.000205111
0.00568174 0.000361721 0.000332197
0.00618187 0.000592331 0.000706189
0.00616542 0.000368512 0.000246663
0.00616225 0.000367659 0.00024901
0.00579441 0.000230963 0.000275084
0.00554393 -9.22066e-05 0.000395318
0.00585804 0.000410294 0.000198693
0.00620733 -0.000298544 -0.000201042
0.00558458 0.000231257 0.000279621
1.58251e-15 -1.10029e-14 8.66687e-14
0.00571244 -0.000148426 -0.000199457
0.00570099 0.000564862 0.000640759
0.00614852 0.000259694 0.000461727
0.00567937 -0.000212787 -0.00018868
0.00573699 -0.000211735 -0.000189732
0.00590731 0.000623314 0.000617423
0.00610983 -0.000250231 -0.000212289
0.00606677 -0.000236044 -0.000468812
0.00560325 0.000684819 0.000479363
0.00615864 -0.000249221 -0.000193278
0.00594157 0.000625119 0.000621139
0.00616441 0.000579413 0.000708999
0.00612281 -0.000301256 -0.00025623
0.0061697 -0.000983005 0.000371527
0.00619282 0.000305069 0.000286313
0.00615248 0.000386026 0.000238392
0.0057214 -0.000172712 -0.000197843
0.0055012 -0.000421354 -0.000199692
0.00613182 0.000409751 0.000217958
0.00554899 -0.000109847 0.000402749
0.00614084 -0.000256127 -0.000203172
0.00569522 0.000183412 -0.000210434
0.00642443 0.000616707 0.000735534
0.00605357 0.000203611 -2.30497e-06
0.00615137 -0.000142954 -0.000213056
0.00579678 0.000610255 -0.000247589
0.00566921 0.000143663 -0.000202888
0.00618787 -0.00031866 -0.000195454
-1.3013e-06 -0.020996 0.0103484
0.00613358 0.000502647 0.000193702
0.0062981 0.000136066 0.000231006
0.00586622 -0.000105256 -0.000154337
0.00618279 0.000240883 0.000530597
0.00568337 -0.000152878 -0.000197512
0.00580332 0.00063082 0.000598735
0.006067 0.000247434 0.000519678
0.0060537 -0.000256466 -0.000207757
0.00581657 0.000202852 0.00032246
0.00617381 -0.00023591 -0.000206212
0.0056733 0.000592605 0.000592204
0.00550832 0.000575384 0.000554461
0.00575306 0.000304608 0.000423117
0.00580054 0.000280001 0.000452517
0.00592575 0.000239978 0.000510983
0.00629514 -0.000321558 -0.000204482
0.00581295 0.000255859 0.000472629
0.00604955 0.000248145 0.000524356
0.00568745 -0.000167079 -0.00019548
0.00588324 0.000633584 0.000605129
0.00553402 -0.000113241 0.000387474
0.00632135 -0.000536181 -0.00038876
0.00617972 -0.000199294 -0.000440064
0.00531088 8.65943e-05 -5.44154e-05
0.00552578 -7.6948e-05 0.000401936
0.0059811 0.000225131 0.000520988
0.00616251 -0.000228876 -0.000269975
0.00625058 -0.000321747 -0.00020433
0.0063454 -0.000444895 -0.000272212
0.00628649 -0.000490683 -0.000369734
0.00560544 6.77653e-06 -0.000121679
0.00614873 0.000609667 0.000682137
0.00567876 0.000595571 0.000595166
0.00594784 0.000221325 0.000520414
0.00548856 -0.000183526 -0.000185394
0.00618661 0.000246629 0.000520417
0.00612447 -0.000456411 -0.000174746
0.00581142 0.000587865 0.000638894
0.00608651 0.000625895 0.000657658
0.00619263 -0.000490947 -0.000364909
0.00614035 0.000409506 0.000214479
0.00565013 -0.000197798 -0.000189814
0.0058453 -7.45711e-05 -0.000171793
0.00632929 0.000615679 0.000728976
0.00577301 -5.04809e-05 -0.00016699
0.00600568 0.000621788 0.000642959
0.00619791 0.000609796 0.00070294
0.00630942 -0.000351294 -0.000180195
0.00567765 -0.000162628 -0.000195576
0.00590163 -0.00010044 -0.000169786
0.0057212 0.000321482 0.000404201
0.00609294 0.000625909 0.000658843
0.00624661 -0.000252288 -0.000203359
0.00569051 -0.000165676 -0.000197411
0.0062932 -0.000351831 -0.000188933
0.00609999 -0.000458646 -0.000368318
0.00555011 0.000509524 0.000670049
0.00565927 -0.00016231 -0.000193923
0.00618517 -0.000576554 -0.00043111
0.00610183 -0.000231053 -0.000219587
0.00615126 3.44194e-05 -0.000241576
0.00609773 0.000609068 0.000696809
0.00579547 -0.000114376 -9.23081e-05
0.00559992 0.000574037 0.000583276
0.00582998 0.000240033 0.000249078
0.00585446 0.00024831 0.000490626
0.00570342 0.000344417 0.000387051
0.00615125 0.00039692 0.000232068

VECTORS force float
1.81305e-10 -4.97478e-10 1.0668e-10
1.90326e-10 -4.6127e-11 6.77602e-11
-5.36896e-10 5.14633e-11 -1.02476e-14
1.37578e-10 -9.7263e-11 5.93774e-11
7.2588e-11 -3.44499e-10 6.27075e-10
2.39333e-13 -1.22043e-13 5.96026e-14
7.59859e-10 -3.34728e-10 1.4669e-10
-1.00467e-10 -4.47294e-10 4.1097e-10
-5.79664e-13 3.02699e-13 -1.19495e-13
3.20888e-11 -2.35708e-10 1.07046e-10
7.91395e-11 -2.12976e-10 4.16191e-11
-2.58774e-10 -4.32618e-11 -7.49812e-11
0.0 0.0 -1.43822e-09
2.59788e-11 -1.28924e-11 7.74433e-13
-3.31129e-10 7.05383e-12 -1.99357e-11
-1.00412e-10 -9.25864e-11 1.89906e-11
-1.4675e-10 -1.04105e-10 3.83831e-11
-2.63e-10 -3.9092e-10 -8.54116e-11
1.21461e-10 1.56006e-10 6.45009e-12
1.85897e-09 -2.58507e-10 3.0441e-10
-4.38222e-10 -4.50828e-10 4.02291e-10
8.06765e-13 -3.75042e-13 2.8808e-13
6.76527e-11 -7.09373e-11 3.48281e-11
-9.88353e-15 1.89251e-13 -2.17105e-13
-8.71113e-11 1.9753e-10 -1.60588e-11
-2.03155e-10 -1.43463e-10 1.50139e-10
-5.03602e-10 -1.02039e-10 1.28214e-10
1.89495e-11 -3.53459e-10 2.31651e-10
4.52838e-11 -5.47041e-11 4.98106e-11
3.63775e-10 1.27345e-10 -7.85257e-11
-1.23312e-15 -7.35764e-14 1.24606e-13
1.05967e-09 -1.59051e-10 -2.32462e-10
3.86534e-10 -3.35355e-10 9.76092e-10
9.58566e-13 -4.91041e-13 -3.69565e-14
1.03814e-10 4.01756e-10 -1.09795e-11
3.74364e-11 -1.58789e-10 -6.45569e-12
7.14202e-13 -4.51799e-13 1.30151e-13
3.20622e-10 -2.12525e-10 2.3702e-10
-1.21007e-24 -2.10026e-24 0.0
-2.39415e-11 3.51048e-11 8.89322e-12
2.59056e-13 -7.71982e-14 -1.05665e-13
7.20172e-11 -3.83642e-10 3.68228e-10
2.70368e-11 -1.37155e-10 2.83663e-12
1.11088e-11 -2.6805e-10 2.13309e-10
1.06649e-10 -2.01171e-10 1.28722e-10
-1.46722e-10 -5.23044e-11 2.48892e-11
-9.38634e-13 2.34964e-13 -6.59219e-14
1.85582e-10 9.57834e-11 -2.62689e-10
1.1373e-10 3.58569e-10 -3.92292e-10
1.02884e-10 1.55195e-10 -1.01036e-10
-3.39791e-13 -2.01462e-13 1.11602e-13
1.20307e-09 -2.48346e-10 -4.36367e-13
-8.75513e-11 3.65265e-10 -2.17113e-10
4.82585e-10 -3.82134e-12 -3.92297e-11
-3.73529e-10 -1.95246e-10 7.1555e-11
5.37501e-13 -3.18042e-13 3.3022e-13
-3.11871e-11 -8.77621e-11 -2.53588e-11
1.10332e-10 3.66938e-10 -3.96581e-10
1.52479e-10 1.55453e-10 -1.19897e-11
-6.33016e-10 2.80734e-10 -2.35888e-10
9.12349e-12 -1.62748e-11 -1.08468e-10
-4.17849e-13 -2.31139e-13 1.45999e-13
1.53638e-10 6.25214e-11 -2.84335e-11
-8.96764e-11 -2.35311e-10 -5.39002e-11
-4.90347e-11 -2.34437e-10 6.19467e-12
1.86085e-10 -1.36121e-10 2.22596e-12
-8.57274e-12 8.31684e-11 -2.14191e-11
2.20123e-09 9.42146e-12 4.09879e-10
6.85339e-11 -3.53864e-11 -7.34512e-11
-2.81428e-10 9.40063e-11 -1.55983e-10
2.91395e-10 -9.02026e-12 9.65514e-11
-9.61811e-12 -1.49821e-10 1.89836e-11
-6.98413e-11 -5.05442e-11 -2.68335e-11
-2.45194e-10 1.42507e-09 -2.33382e-10
-2.56103e-13 -1.61501e-13 1.23086e-14
-6.58267e-10 2.24076e-10 -2.3751e-12
4.16441e-10 1.412e-10 -6.99272e-11
6.72696e-11 -2.20188e-10 -1.53811e-11
1.13059e-10 4.51111e-10 -2.7532e-10
9.48951e-11 -1.15427e-10 3.06601e-11
2.9402e-10 -7.50464e-11 5.87235e-11
7.86331e-11 2.36137e-10 -4.28638e-11
1.20502e-10 -2.99204e-11 -1.95686e-10
8.78929e-12 -2.40478e-10 2.06403e-10
-3.27035e-10 2.73017e-10 9.34671e-11
6.02414e-10 -2.16323e-11 -1.41318e-10
-1.17092e-11 -1.22784e-10 1.22802e-10
9.77565e-11 6.36552e-11 -6.67097e-11
4.72019e-10 -1.46461e-10 1.13234e-10
1.2363e-10 -1.24405e-10 2.04955e-10
3.9602e-10 -1.63773e-10 5.95299e-11
-3.67574e-11 6.97751e-11 -9.94118e-11
-1.99192e-21 3.63572e-22 4.32202e-23
0.0 0.0 0.0
-2.79789e-10 9.53995e-11 7.28161e-11
-4.26198e-10 -7.3107e-10 1.21608e-10
-4.89591e-10 1.6233e-10 -2.01996e-12
-5.31543e-10 2.55961e-10 -5.89398e-12
1.0334e-10 -4.19974e-10 -6.47612e-11
-4.14486e-11 1.72373e-10 -1.01593e-10
-6.56013e-11 4.87441e-11 -5.83652e-11
-1.30842e-10 1.41046e-10 3.46344e-10
8.36147e-11 5.04692e-10 -8.23712e-11
9.7079e-11 1.33778e-11 1.34816e-10
2.36982e-10 1.08182e-09 -1.8758e-10
-3.44071e-10 -2.53165e-10 1.01524e-10
3.7922e-10 1.76315e-10 -3.63274e-11
-1.49833e-11 -2.89766e-10 2.53582e-12
-6.01238e-11 7.44528e-11 -1.64729e-10