# vtk DataFile Version 3.0
LIGGGHTS particles timestep 33600000
ASCII
DATASET POLYDATA
POINTS 271 float
0.208345 0.015305 0.00890554
0.209222 0.0176887 0.0071167
0.203382 0.0179164 0.00701028
0.209282 0.0175286 0.00716573
0.208328 0.0152428 0.00898185
0.21482 0.0170701 0.00754527
0.208432 0.015551 0.00860352
0.208302 0.015182 0.00905696
0.21493 0.0175098 0.00715218
0.208885 0.0172981 0.00722156
0.209021 0.0175177 0.00716098
0.202493 0.015701 0.0083196
0.208237 0.0149984 0.00928508
0.203167 0.0185576 0.00688708
0.209263 0.0174297 0.00719429
0.203264 0.0185917 0.00688882
0.209299 0.0176274 0.00713709
0.208281 0.0151223 0.00913427
0.208846 0.0171152 0.00729071
0.209055 0.0172668 0.007236
0.20273 0.0163137 0.00794987
0.215013 0.017858 0.00699216
0.208495 0.0157323 0.008373
0.214893 0.0173633 0.00728321
0.203466 0.0182943 0.00692101
0.209189 0.0174932 0.00717331
0.208453 0.0156098 0.00852543
0.208947 0.0175843 0.00716178
0.208514 0.0157988 0.00830091
0.208942 0.0167533 0.00750161
0.214838 0.0171434 0.00747975
0.208412 0.0154872 0.00867792
0.20909 0.0170154 0.0073112
0.21499 0.0177624 0.00701075
0.209146 0.0180858 0.00702993
0.209217 0.0183728 0.00694314
0.215034 0.0179543 0.00697507
0.209316 0.0177229 0.00710945
0.321436 0.0173475 0.00552525
0.209205 0.0175884 0.00714573
0.214857 0.0172167 0.00741424
0.208375 0.0153645 0.0088311
0.209194 0.0182751 0.00696917
0.208558 0.0159456 0.00817267
0.208533 0.0158751 0.00823912
0.202419 0.0154749 0.00862402
0.214969 0.0176691 0.00704016
0.209034 0.0179718 0.00710584
0.202357 0.015398 0.0089074
0.209145 0.018168 0.00697298
0.214875 0.01729 0.00734873
0.209035 0.0171727 0.00726314
0.208826 0.0166523 0.00758911
0.209427 0.0181661 0.00698216
0.209246 0.0173287 0.00722355
0.215054 0.0180505 0.00699272
0.202674 0.0164588 0.00787164
0.202337 0.0153738 0.00900224
0.209155 0.0178433 0.00706906
0.208978 0.0169066 0.00737828
0.209055 0.0180617 0.0070676
0.214912 0.0174365 0.00721779
0.202398 0.0154464 0.00871771
0.209064 0.017804 0.00707785
0.209121 0.0183417 0.00695734
0.209236 0.0181079 0.0069935
0.203393 0.0183615 0.00691248
0.20911 0.0171096 0.00728402
0.203147 0.0184605 0.00690067
0.202452 0.0155474 0.00844083
0.209286 0.0178697 0.00706523
0.203284 0.0186896 0.00688542
0.202514 0.0157814 0.00826369
0.203203 0.0183 0.00692397
0.214948 0.0175831 0.00708669
0.203402 0.0180014 0.00696136
0.209362 0.0178085 0.0070856
0.209286 0.0183006 0.00693818
0.208711 0.0165527 0.00767537
0.209261 0.0182009 0.00696683
0.209113 0.0175584 0.00717209
0.203443 0.0181934 0.00692779
0.209215 0.0180141 0.00702049
0.208594 0.0160981 0.00804849
0.209 0.0174237 0.00718805
0.20896 0.0172355 0.00724233
0.208616 0.0161735 0.00798654
0.202789 0.0165686 0.00780309
0.209096 0.0174549 0.00718177
0.202891 0.0169927 0.00755867
0.209333 0.0181342 0.00698866
0.202473 0.0156245 0.00838059
0.0643568 0.0187248 0.00531097
0.24257 0.0191927 0.00520306
0.203096 0.0178406 0.00706992
0.203517 0.0181262 0.00693633
0.203342 0.0177467 0.00710811
0.203321 0.0176619 0.00715699
0.209077 0.0181568 0.00704557
0.209225 0.0172347 0.00725063
0.208638 0.0162486 0.00792425
0.208941 0.0171413 0.00726952
0.203156 0.0180987 0.00692219
0.202755 0.0167984 0.00767603
0.203127 0.0183627 0.00690747
0.209171 0.0173918 0.00720266
0.209012 0.0178759 0.00712451
0.209164 0.0185365 0.00695721
0.20296 0.0176462 0.00718731
0.20913 0.0172037 0.00725687
0.208474 0.0156715 0.00844944
0.208388 0.0154274 0.00875443
0.208901 0.0169593 0.00734093
0.202919 0.0174766 0.00728505
0.208919 0.0170474 0.00729654
0.209236 0.018471 0.0069367
0.208844 0.0167284 0.00752683
0.203538 0.0182243 0.00692968
0.208884 0.0168814 0.00740146
0.209039 0.0176126 0.0071335
0.203362 0.0178314 0.00705924
0.209131 0.0176552 0.00713867
0.208904 0.0173924 0.00719435
0.208865 0.0168046 0.00746438
0.208258 0.0150596 0.00920903
0.203187 0.0186555 0.00688652
0.208578 0.0160214 0.00811051
0.20899 0.0177782 0.00714045
0.209075 0.0173609 0.00720885
0.203181 0.0182022 0.00693179
0.202899 0.0173918 0.00733394
0.202378 0.0154222 0.00881256
0.203022 0.0179005 0.00704069
0.203243 0.0184937 0.00689548
0.202986 0.0170175 0.00753907
0.20873 0.0166288 0.00761314
0.0100679 0.0201683 0.00551526
0.202857 0.0172223 0.00743167
0.203228 0.0188512 0.00689428
0.202981 0.0177309 0.00713844
0.203185 0.0174673 0.00727444
0.203138 0.0180111 0.00697375
0.0219312 0.0187687 0.00551176
0.203371 0.0182626 0.0069192
0.209356 0.0182329 0.0069603
0.203001 0.0178157 0.00708956
0.203305 0.0187874 0.00688947
0.20285 0.0168232 0.00765642
0.203191 0.0178655 0.00705029
0.2091 0.0182534 0.00699929
0.202911 0.0170775 0.0075098
0.203359 0.0186232 0.00689065
0.203267 0.0178065 0.00707892
0.208969 0.0176815 0.00715481
0.203171 0.0177807 0.00709916
0.209236 0.0177858 0.00708849
0.203205 0.0175521 0.00722556
0.196829 0.017085 0.00740386
0.203027 0.0171871 0.00744132
0.202953 0.0172471 0.00741205
0.203035 0.0175863 0.00721655
0.203318 0.0184276 0.006904
0.208925 0.017487 0.00716996
0.203246 0.0177217 0.0071278
0.20898 0.0173296 0.00721517
0.202837 0.0171375 0.00748054
0.208826 0.0170231 0.00732441
0.20896 0.0168294 0.00743936
0.209144 0.0177478 0.00709686
0.19712 0.0183344 0.00688564
0.208995 0.0169841 0.00731754
0.20315 0.0176959 0.00714804
0.20915 0.0172979 0.00722973
0.161461 0.0182058 0.00533758
0.203348 0.0181627 0.00692589
0.20275 0.0163987 0.00790095
0.196892 0.017341 0.0072607
0.203207 0.0187533 0.00689022
0.203107 0.0182648 0.0069071
0.202734 0.0167136 0.00772491
0.203232 0.0180387 0.00695553
0.208653 0.0163275 0.00786478
0.202436 0.0155076 0.0085311
0.203307 0.0179772 0.0069806
0.202809 0.0166535 0.00775418
0.202932 0.0171623 0.00746092
0.203117 0.0179254 0.00702105
0.199937 0.0177771 0.00699248
0.208865 0.0172039 0.00724877
0.208807 0.0169356 0.00736861
0.203251 0.0181316 0.00692394
0.209109 0.0179897 0.00702449
0.20875 0.0167047 0.00755133
0.1971 0.0182375 0.00690048
0.203212 0.0179502 0.00700141
0.209142 0.0184391 0.00695024
0.202539 0.0158689 0.00822223
0.208694 0.0164764 0.00773774
0.203326 0.0180654 0.00693243
0.262899 0.0173217 0.00714562
0.209206 0.0179295 0.00707313
0.203076 0.0177558 0.0071188
0.0681694 0.0181079 0.00771616
0.209015 0.0170782 0.00729038
0.202878 0.0173071 0.00738279
0.197038 0.0179475 0.00694481
0.19685 0.0171704 0.00735612
0.203298 0.0183299 0.00691067
0.202694 0.0165438 0.00782271
0.196809 0.0169995 0.00745164
0.203086 0.0181697 0.00692954
0.209053 0.0177084 0.00710569
0.203288 0.0178913 0.00703005
0.202655 0.0163738 0.00792057
0.202615 0.0162039 0.00801841
0.196652 0.0162958 0.00779743
0.196672 0.0163848 0.00775638
0.19673 0.0166521 0.00763325
0.20294 0.0175614 0.00723619
0.196691 0.0164739 0.00771532
0.196789 0.0169139 0.00749947
0.203488 0.0183934 0.00691428
0.202714 0.0166287 0.0077738
0.197081 0.0181406 0.00691531
0.203006 0.0171023 0.0074902
0.208672 0.0164015 0.00780026
0.196933 0.0175119 0.00716518
0.19714 0.0184313 0.0068708
0.19677 0.0168283 0.00754729
0.203042 0.0179853 0.00699182
0.20313 0.0176111 0.00719692
0.203089 0.0174414 0.0072947
0.202994 0.0174167 0.0073143
0.196955 0.0175971 0.00711755
0.202796 0.0169679 0.00757829
0.202595 0.0161191 0.00806731
0.19675 0.0167411 0.00759222
0.203248 0.018949 0.00689833
0.19687 0.0172558 0.00730838
0.203055 0.017671 0.00716768
0.20277 0.0164836 0.00785202
0.202775 0.0168831 0.00762716
0.203068 0.0173567 0.00734357
0.208768 0.0167806 0.00748878
0.203338 0.0185254 0.00689731
0.196995 0.0177681 0.00702199
0.202555 0.0159495 0.00816519
0.196974 0.0176827 0.00706972
0.202829 0.0167384 0.00770529
0.202816 0.0170527 0.00752941
0.203014 0.0175014 0.00726544
0.203413 0.0184595 0.00690579
0.197017 0.0178567 0.00698141
0.196633 0.0162067 0.00783848
0.20287 0.016908 0.00760754
0.203226 0.0176369 0.00717668
0.203275 0.0182309 0.00691733
0.203109 0.0175263 0.00724579
0.203048 0.0172719 0.00739244
0.20271 0.0162288 0.00799877
0.203223 0.0183959 0.00690218
0.202973 0.0173319 0.00736318
0.203064 0.0180751 0.00695325
0.203422 0.0180956 0.00693441
0.202577 0.0160338 0.0081163
0.197059 0.018044 0.00693007
0.202635 0.0162888 0.0079695
0.209075 0.0178994 0.00705003
0.196711 0.016563 0.00767428
0.196912 0.0174265 0.00721292
0.208788 0.0168564 0.00742666

VERTICES 271 542
1 0
1 1
1 2
1 3
1 4
1 5
1 6
1 7
1 8
1 9
1 10
1 11
1 12
1 13
1 14
1 15
1 16
1 17
1 18
1 19
1 20
1 21
1 22
1 23
1 24
1 25
1 26
1 27
1 28
1 29
1 30
1 31
1 32
1 33
1 34
1 35
1 36
1 37
1 38
1 39
1 40
1 41
1 42
1 43
1 44
1 45
1 46
1 47
1 48
1 49
1 50
1 51
1 52
1 53
1 54
1 55
1 56
1 57
1 58
1 59
1 60
1 61
1 62
1 63
1 64
1 65
1 66
1 67
1 68
1 69
1 70
1 71
1 72
1 73
1 74
1 75
1 76
1 77
1 78
1 79
1 80
1 81
1 82
1 83
1 84
1 85
1 86
1 87
1 88
1 89
1 90
1 91
1 92
1 93
1 94
1 95
1 96
1 97
1 98
1 99
1 100
1 101
1 102
1 103
1 104
1 105
1 106
1 107
1 108
1 109
1 110
1 111
1 112
1 113
1 114
1 115
1 116
1 117
1 118
1 119
1 120
1 121
1 122
1 123
1 124
1 125
1 126
1 127
1 128
1 129
1 130
1 131
1 132
1 133
1 134
1 135
1 136
1 137
1 138
1 139
1 140
1 141
1 142
1 143
1 144
1 145
1 146
1 147
1 148
1 149
1 150
1 151
1 152
1 153
1 154
1 155
1 156
1 157
1 158
1 159
1 160
1 161
1 162
1 163
1 164
1 165
1 166
1 167
1 168
1 169
1 170
1 171
1 172
1 173
1 174
1 175
1 176
1 177
1 178
1 179
1 180
1 181
1 182
1 183
1 184
1 185
1 186
1 187
1 188
1 189
1 190
1 191
1 192
1 193
1 194
1 195
1 196
1 197
1 198
1 199
1 200
1 201
1 202
1 203
1 204
1 205
1 206
1 207
1 208
1 209
1 210
1 211
1 212
1 213
1 214
1 215
1 216
1 217
1 218
1 219
1 220
1 221
1 222
1 223
1 224
1 225
1 226
1 227
1 228
1 229
1 230
1 231
1 232
1 233
1 234
1 235
1 236
1 237
1 238
1 239
1 240
1 241
1 242
1 243
1 244
1 245
1 246
1 247
1 248
1 249
1 250
1 251
1 252
1 253
1 254
1 255
1 256
1 257
1 258
1 259
1 260
1 261
1 262
1 263
1 264
1 265
1 266
1 267
1 268
1 269
1 270

POINT_DATA 271
SCALARS id int 1
LOOKUP_TABLE default
1
2
3
4
5
6
7
8
9
10
11
12
13
14
15
16
17
19
21
22
23
24
25
26
27
28
29
30
31
32
33
34
35
36
37
38
39
41
42
44
45
47
48
50
51
52
53
54
55
56
57
59
61
62
63
64
65
66
67
68
69
70
71
72
73
74
76
77
78
79
80
81
82
83
84
85
86
87
88
89
90
91
92
93
94
95
96
97
98
99
100
101
102
103
104
105
106
107
108
109
110
111
112
113
114
115
116
117
118
119
120
121
122
123
124
125
126
127
128
129
131
132
133
134
135
136
137
138
140
141
142
143
144
147
148
149
150
151
153
154
155
156
157
158
159
160
162
164
165
166
168
169
170
171
172
173
174
175
177
178
179
181
182
183
184
186
187
188
189
190
191
192
193
194
195
196
197
198
199
201
202
203
204
205
206
207
208
209
210
211
212
213
214
215
216
217
218
219
220
221
222
223
224
225
226
227
228
229
230
231
232
234
235
236
237
239
240
241
242
244
246
247
248
249
250
251
252
253
254
255
256
257
258
259
261
262
263
264
265
266
267
268
269
270
271
272
273
274
275
276
277
278
280
283
284
285
286
287
288
289
290
291
292
293
294
295
296
297
298
299
300

SCALARS type int 1
LOOKUP_TABLE default
1
1
1
1
1
1
1
1
1
1
1
1
1
1
1
1
1
1
1
1
1
1
1
1
1
1
1
1
1
1
1
1
1
1
1
1
1
1
1
1
1
1
1
1
1
1
1
1
1
1
1
1
1
1
1
1
1
1
1
1
1
1
1
1
1
1
1
1
1
1
1
1
1
1
1
1
1
1
1
1
1
1
1
1
1
1
1
1
1
1
1
1
1
1
1
1
1
1
1
1
1
1
1
1
1
1
1
1
1
1
1
1
1
1
1
1
1
1
1
1
1
1
1
1
1
1
1
1
1
1
1
1
1
1
1
1
1
1
1
1
1
1
1
1
1
1
1
1
1
1
1
1
1
1
1
1
1
1
1
1
1
1
1
1
1
1
1
1
1
1
1
1
1
1
1
1
1
1
1
1
1
1
1
1
1
1
1
1
1
1
1
1
1
1
1
1
1
1
1
1
1
1
1
1
1
1
1
1
1
1
1
1
1
1
1
1
1
1
1
1
1
1
1
1
1
1
1
1
1
1
1
1
1
1
1
1
1
1
1
1
1
1
1
1
1
1
1
1
1
1
1
1
1
1
1
1
1
1
1
1
1
1
1
1
1
1
1
1
1
1
1

SCALARS radius float 1
LOOKUP_TABLE default
5e-05
5e-05
5e-05
5e-05
5e-05
5e-05
5e-05
5e-05
5e-05
5e-05
5e-05
5e-05
5e-05
5e-05
5e-05
5e-05
5e-05
5e-05
5e-05
5e-05
5e-05
5e-05
5e-05
5e-05
5e-05
5e-05
5e-05
5e-05
5e-05
5e-05
5e-05
5e-05
5e-05
5e-05
5e-05
5e-05
5e-05
5e-05
5e-05
5e-05
5e-05
5e-05
5e-05
5e-05
5e-05
5e-05
5e-05
5e-05
5e-05
5e-05
5e-05
5e-05
5e-05
5e-05
5e-05
5e-05
5e-05
5e-05
5e-05
5e-05
5e-05
5e-05
5e-05
5e-05
5e-05
5e-05
5e-05
5e-05
5e-05
5e-05
5e-05
5e-05
5e-05
5e-05
5e-05
5e-05
5e-05
5e-05
5e-05
5e-05
5e-05
5e-05
5e-05
5e-05
5e-05
5e-05
5e-05
5e-05
5e-05
5e-05
5e-05
5e-05
5e-05
5e-05
5e-05
5e-05
5e-05
5e-05
5e-05
5e-05
5e-05
5e-05
5e-05
5e-05
5e-05
5e-05
5e-05
5e-05
5e-05
5e-05
5e-05
5e-05
5e-05
5e-05
5e-05
5e-05
5e-05
5e-05
5e-05
5e-05
5e-05
5e-05
5e-05
5e-05
5e-05
5e-05
5e-05
5e-05
5e-05
5e-05
5e-05
5e-05
5e-05
5e-05
5e-05
5e-05
5e-05
5e-05
5e-05
5e-05
5e-05
5e-05
5e-05
5e-05
5e-05
5e-05
5e-05
5e-05
5e-05
5e-05
5e-05
5e-05
5e-05
5e-05
5e-05
5e-05
5e-05
5e-05
5e-05
5e-05
5e-05
5e-05
5e-05
5e-05
5e-05
5e-05
5e-05
5e-05
5e-05
5e-05
5e-05
5e-05
5e-05
5e-05
5e-05
5e-05
5e-05
5e-05
5e-05
5e-05
5e-05
5e-05
5e-05
5e-05
5e-05
5e-05
5e-05
5e-05
5e-05
5e-05
5e-05
5e-05
5e-05
5e-05
5e-05
5e-05
5e-05
5e-05
5e-05
5e-05
5e-05
5e-05
5e-05
5e-05
5e-05
5e-05
5e-05
5e-05
5e-05
5e-05
5e-05
5e-05
5e-05
5e-05
5e-05
5e-05
5e-05
5e-05
5e-05
5e-05
5e-05
5e-05
5e-05
5e-05
5e-05
5e-05
5e-05
5e-05
5e-05
5e-05
5e-05
5e-05
5e-05
5e-05
5e-05
5e-05
5e-05
5e-05
5e-05
5e-05
5e-05
5e-05
5e-05
5e-05
5e-05
5e-05
5e-05
5e-05
5e-05
5e-05
5e-05
5e-05
5e-05
5e-05
5e-05
5e-05
5e-05
5e-05
5e-05
5e-05
5e-05
5e-05
5e-05
5e-05
5e-05
5e-05
5e-05
5e-05
5e-05
5e-05
5e-05

SCALARS mass float 1
LOOKUP_TABLE default
1.46608e-10
1.46608e-10
1.46608e-10
1.46608e-10
1.46608e-10
1.46608e-10
1.46608e-10
1.46608e-10
1.46608e-10
1.46608e-10
1.46608e-10
1.46608e-10
1.46608e-10
1.46608e-10
1.46608e-10
1.46608e-10
1.46608e-10
1.46608e-10
1.46608e-10
1.46608e-10
1.46608e-10
1.46608e-10
1.46608e-10
1.46608e-10
1.46608e-10
1.46608e-10
1.46608e-10
1.46608e-10
1.46608e-10
1.46608e-10
1.46608e-10
1.46608e-10
1.46608e-10
1.46608e-10
1.46608e-10
1.46608e-10
1.46608e-10
1.46608e-10
1.46608e-10
1.46608e-10
1.46608e-10
1.46608e-10
1.46608e-10
1.46608e-10
1.46608e-10
1.46608e-10
1.46608e-10
1.46608e-10
1.46608e-10
1.46608e-10
1.46608e-10
1.46608e-10
1.46608e-10
1.46608e-10
1.46608e-10
1.46608e-10
1.46608e-10
1.46608e-10
1.46608e-10
1.46608e-10
1.46608e-10
1.46608e-10
1.46608e-10
1.46608e-10
1.46608e-10
1.46608e-10
1.46608e-10
1.46608e-10
1.46608e-10
1.46608e-10
1.46608e-10
1.46608e-10
1.46608e-10
1.46608e-10
1.46608e-10
1.46608e-10
1.46608e-10
1.46608e-10
1.46608e-10
1.46608e-10
1.46608e-10
1.46608e-10
1.46608e-10
1.46608e-10
1.46608e-10
1.46608e-10
1.46608e-10
1.46608e-10
1.46608e-10
1.46608e-10
1.46608e-10
1.46608e-10
1.46608e-10
1.46608e-10
1.46608e-10
1.46608e-10
1.46608e-10
1.46608e-10
1.46608e-10
1.46608e-10
1.46608e-10
1.46608e-10
1.46608e-10
1.46608e-10
1.46608e-10
1.46608e-10
1.46608e-10
1.46608e-10
1.46608e-10
1.46608e-10
1.46608e-10
1.46608e-10
1.46608e-10
1.46608e-10
1.46608e-10
1.46608e-10
1.46608e-10
1.46608e-10
1.46608e-10
1.46608e-10
1.46608e-10
1.46608e-10
1.46608e-10
1.46608e-10
1.46608e-10
1.46608e-10
1.46608e-10
1.46608e-10
1.46608e-10
1.46608e-10
1.46608e-10
1.46608e-10
1.46608e-10
1.46608e-10
1.46608e-10
1.46608e-10
1.46608e-10
1.46608e-10
1.46608e-10
1.46608e-10
1.46608e-10
1.46608e-10
1.46608e-10
1.46608e-10
1.46608e-10
1.46608e-10
1.46608e-10
1.46608e-10
1.46608e-10
1.46608e-10
1.46608e-10
1.46608e-10
1.46608e-10
1.46608e-10
1.46608e-10
1.46608e-10
1.46608e-10
1.46608e-10
1.46608e-10
1.46608e-10
1.46608e-10
1.46608e-10
1.46608e-10
1.46608e-10
1.46608e-10
1.46608e-10
1.46608e-10
1.46608e-10
1.46608e-10
1.46608e-10
1.46608e-10
1.46608e-10
1.46608e-10
1.46608e-10
1.46608e-10
1.46608e-10
1.46608e-10
1.46608e-10
1.46608e-10
1.46608e-10
1.46608e-10
1.46608e-10
1.46608e-10
1.46608e-10
1.46608e-10
1.46608e-10
1.46608e-10
1.46608e-10
1.46608e-10
1.46608e-10
1.46608e-10
1.46608e-10
1.46608e-10
1.46608e-10
1.46608e-10
1.46608e-10
1.46608e-10
1.46608e-10
1.46608e-10
1.46608e-10
1.46608e-10
1.46608e-10
1.46608e-10
1.46608e-10
1.46608e-10
1.46608e-10
1.46608e-10
1.46608e-10
1.46608e-10
1.46608e-10
1.46608e-10
1.46608e-10
1.46608e-10
1.46608e-10
1.46608e-10
1.46608e-10
1.46608e-10
1.46608e-10
1.46608e-10
1.46608e-10
1.46608e-10
1.46608e-10
1.46608e-10
1.46608e-10
1.46608e-10
1.46608e-10
1.46608e-10
1.46608e-10
1.46608e-10
1.46608e-10
1.46608e-10
1.46608e-10
1.46608e-10
1.46608e-10
1.46608e-10
1.46608e-10
1.46608e-10
1.46608e-10
1.46608e-10
1.46608e-10
1.46608e-10
1.46608e-10
1.46608e-10
1.46608e-10
1.46608e-10
1.46608e-10
1.46608e-10
1.46608e-10
1.46608e-10
1.46608e-10
1.46608e-10
1.46608e-10
1.46608e-10
1.46608e-10
1.46608e-10
1.46608e-10
1.46608e-10
1.46608e-10
1.46608e-10
1.46608e-10
1.46608e-10
1.46608e-10
1.46608e-10
1.46608e-10
1.46608e-10
1.46608e-10
1.46608e-10
1.46608e-10
1.46608e-10
1.46608e-10
1.46608e-10

VECTORS velocity float
0.00618496 0.000307165 0.000271292
0.00614296 8.40924e-05 0.000165522
0.00607793 0.00011238 -0.000433564
0.00618167 7.1921e-05 0.000167626
0.0061919 0.000312042 0.000265856
0.00571855 0.000100559 0.000608864
0.00595997 0.000348848 0.000241583
0.00620243 0.000315704 0.000261342
0.00614474 4.10609e-05 0.000718165
0.00587755 0.000230718 0.000114536
0.0062259 0.000253463 0.000102574
0.00575595 0.000110429 9.89429e-05
0.00622788 0.000317842 0.000261964
0.00570634 -3.94042e-06 0.000214997
0.0061453 4.95889e-05 0.000171136
0.00538439 -0.000200462 0.000246964
0.00617308 0.000120501 0.000153711
0.00621037 0.000318714 0.000259423
0.00565799 0.000278967 0.000174346
0.0054414 0.000312767 7.3313e-05
0.00544555 -0.00024146 -0.000190319
0.00620978 -0.000349099 0.000133661
0.00536297 0.000391294 7.735e-05
0.00600274 5.69578e-05 0.000683164
0.00531677 -0.000370181 0.000268007
0.00613861 3.23099e-05 0.000182667
0.00568245 0.000400135 0.000192644
0.00617559 0.000158963 0.000113718
0.00577066 0.000194925 -2.38376e-06
0.00568701 -7.65267e-06 -0.00029426
0.00578327 9.35664e-05 0.000622168
0.00608734 0.000312085 0.000254646
0.00552067 0.000163101 0.000116006
0.00619822 -0.000393022 -7.66727e-05
0.00618532 0.000103636 0.000146179
0.00633735 -7.72329e-05 -0.000662234
0.00622475 -0.000299296 0.000410427
0.00611607 0.000123511 0.000150332
4.5682e-16 2.25558e-15 8.4636e-14
0.0061769 6.04242e-05 0.000172166
0.00587335 9.64419e-05 0.0006387
0.0061819 0.000302287 0.000275898
0.00625038 -1.77608e-05 -0.000534029
0.0056776 -1.60361e-05 -0.000297818
0.00578468 6.44044e-05 -0.000166684
0.00602771 -0.000254514 2.35982e-05
0.00601813 -0.000305083 6.42724e-05
0.00615275 0.000110749 0.000159213
0.00604081 -0.000308211 5.93423e-05
0.00620462 0.000105746 0.000154317
0.00591514 7.74195e-05 0.000657985
0.00562723 0.000252952 9.93668e-05
0.00565484 5.96561e-05 -0.00034622
0.00630986 -0.000114984 0.000224059
0.00607703 6.39108e-05 0.000167204
0.00618348 -0.000291593 0.000419263
0.0054127 -0.000178434 -0.000224431
0.00598915 -0.000305543 5.98368e-05
0.0061239 7.0143e-05 0.000165107
0.00562312 -6.04207e-05 -0.000403514
0.00616482 9.83239e-05 0.000138024
0.00609873 3.91119e-05 0.000708167
0.00612836 -0.000340826 4.09926e-05
0.00613223 6.40995e-05 0.000168381
0.00625761 -0.000249542 -0.00189859
0.0062519 4.55059e-05 0.000176032
0.00536813 -0.000284898 0.000266036
0.00558645 0.00044088 3.97777e-05
0.00565988 5.5714e-05 0.000285541
0.00581459 0.000143632 0.000102842
0.00608103 0.000106936 0.000158904
0.00564124 -0.000132921 -1.45837e-05
0.00579256 -0.000104653 -0.000139029
0.00549974 2.11148e-05 0.000345678
0.00557219 8.40741e-05 0.000597151
0.00611702 9.20813e-05 -0.000396064
0.00607898 0.000127141 0.000146118
0.00649529 6.78596e-06 0.000204654
0.00554599 7.45105e-05 -0.000353635
0.00634908 2.76371e-05 0.00018008
0.00617092 7.63281e-05 0.000177665
0.00560313 3.31535e-05 0.000253578
0.00614358 6.92287e-05 0.000166007
0.00554511 2.48907e-05 -0.000309232
0.00620589 0.000189732 0.000131132
0.00572747 0.00031813 8.3071e-05
0.00552366 3.41019e-05 -0.00032139
0.00562043 -0.000238487 -0.000201023
0.00627594 0.000298245 9.90043e-05
0.00572574 -0.000210302 -0.000223307
0.00628376 -5.97449e-05 0.000210183
0.00580286 0.000190749 0.00017485
4.21125e-15 1.05129e-14 8.29611e-14
2.95517e-22 3.13141e-22 8.29106e-22
0.00611028 -0.000163235 -0.000271734
0.0055075 0.000838589 0.000179903
0.00623503 -3.34811e-05 -0.000352501
0.00624825 -3.15187e-05 -0.000355025
0.00618791 0.000105761 0.000139867
0.00562598 0.000114383 0.000137685
0.00549416 4.85547e-05 -0.000331063
0.00560652 0.00032953 7.99517e-05
0.00634831 0.000137853 0.000270349
0.00561044 -0.000172144 -0.00023778
0.00561071 0.000102616 0.000272905
0.00620571 0.000174198 0.000136278
0.00613805 6.66524e-05 0.000183467
0.00620006 -0.000154517 -0.000886774
0.00609079 -0.000164946 -0.0002693
0.00572166 0.000102872 0.000144737
0.00535065 0.000462283 0.000140616
0.00616248 0.000299629 0.000273819
0.00554989 0.000127286 -0.000326451
0.00599502 -0.000163103 -0.000267636
0.00566642 0.000335958 8.13036e-05
0.00624285 -0.000108647 -0.000882054
0.00567535 7.87629e-05 -0.000359116
0.00514403 0.00108572 0.000146516
0.00570701 5.21214e-05 -0.000333982
0.0061921 0.000122126 0.000152997
0.00626424 -5.83307e-05 -0.000340874
0.00615679 4.74612e-05 0.000171512
0.00614596 0.000193387 0.000127143
0.00570488 2.03784e-05 -0.000337024
0.00622008 0.000318466 0.000259866
0.00569289 -8.55914e-05 1.84383e-05
0.00559558 9.69898e-06 -0.000301543
0.0061531 9.99679e-05 0.000170402
0.00627533 0.000195092 0.000131382
0.00555998 -7.27886e-05 0.000164924
0.00596994 -0.000161701 -0.00026602
0.00609478 -0.000310845 5.86509e-05
0.0061629 -0.00018347 -0.000265606
0.00550682 -8.43592e-05 0.000252589
0.00573214 -0.000222873 -0.000216414
0.00561047 7.01087e-05 -0.000355278
8.38473e-15 1.24836e-15 -8.48743e-14
0.00583832 -0.000181147 -0.000248615
0.00579589 -4.25785e-05 -0.000118923
0.00612629 -0.000175931 -0.000267746
0.00605479 -0.000174704 -0.000262632
0.00622529 -0.000159636 -0.000304275
-3.82575e-14 8.16807e-14 2.95893e-13
0.00526681 -0.000341072 0.000264964
0.00635766 -0.000100744 0.00022492
0.00613638 -0.000189369 -0.000261718
0.00552995 -0.000415624 -0.000141264
0.00568771 -0.000215082 -0.000217589
0.00613857 -0.000126124 -0.000292655
0.00630636 0.000368797 -0.000556887
0.00576711 -0.00020286 -0.000229909
0.00535933 -0.000435549 0.000305684
0.00618327 -8.31162e-05 -0.000319851
0.00617015 0.000120655 0.000159562
0.00612611 -0.00011025 -0.000302248
0.00610779 9.16398e-05 0.000159343
0.0061085 -8.98277e-05 -0.000313613
0.00577487 -0.000109138 -7.74873e-05
0.00587921 -0.000203907 -0.000235923
0.00587693 -0.000188826 -0.000242752
0.00610483 -0.000157558 -0.000275023
0.0055084 -0.000179231 0.000258639
0.00618845 0.000174097 0.000109937
0.00612005 -8.67676e-05 -0.000315763
0.00603917 0.000249266 0.000111403
0.00580462 -0.000192165 -0.000240908
0.0056774 0.000220776 4.03786e-05
0.00570415 6.39991e-06 -0.000307427
0.00612975 6.69665e-05 0.000167886
0.00570627 -3.44349e-06 7.52034e-05
0.00555229 0.00035382 7.18561e-05
0.00610602 -0.000122424 -0.000295868
0.00595979 0.000132404 0.000143251
1.48973e-15 -1.1015e-14 8.66687e-14
0.00555831 0.000167521 0.000226679
0.00550001 -0.000232025 -0.000198606
0.00605916 -0.000164862 -5.35804e-05
0.00576268 -2.81383e-05 -9.78139e-05
0.00565501 8.9391e-05 0.000239555
0.00559299 -0.000176621 -0.000234162
0.00622689 -0.000102388 -7.05452e-05
0.00548847 5.63451e-05 -0.00034169
0.00585298 -1.09936e-05 5.62933e-05
0.0062281 -0.000170932 -0.000273053
0.00565865 -0.000240967 -0.00020209
0.00581832 -0.000195166 -0.000236982
0.00615769 -0.000187156 -0.000267241
0.00604763 0.00110365 -0.000267879
0.0056553 0.00025993 0.000114816
0.00570649 8.16781e-05 -0.000252051
0.00576334 0.000132544 0.000249978
0.00609282 4.92335e-05 0.000169434
0.00566298 7.27305e-05 -0.000353391
0.00554762 2.40064e-05 6.69921e-05
0.00621199 -0.000123313 -0.000295325
0.006238 -0.000154731 -0.000923011
0.00598465 -0.000283784 -0.000357033
0.00550156 7.58171e-05 -0.00035095
0.00622298 3.37531e-05 0.00026163
0.0057736 0.000420822 -0.000174982
0.00609265 8.32379e-05 0.00016506
0.00611606 -0.00014973 -0.000280168
-0.0342438 0.017545 -0.0024855
0.0056068 0.000338526 6.58583e-05
0.00590049 -0.000164061 -0.000259899
0.00631621 -0.00014476 9.88299e-05
0.00601603 -0.000152398 -5.72647e-05
0.00535173 -0.000254494 0.000258022
0.00544571 -0.000173221 -0.000228309
0.00554423 -6.05418e-05 -9.9013e-05
0.00597981 -7.53326e-05 -9.49481e-05
0.00614331 5.86825e-05 0.000175143
0.0061752 -0.00011263 -0.000302231
0.00535574 -0.000190706 -0.000211321
0.00541232 -0.000112216 -0.000263932
0.00556362 0.000122093 0.000207305
0.00555104 0.000117841 0.000208834
0.00555657 0.000111854 0.00021075
0.00602645 -0.000161348 -0.000268756
0.0055422 0.000118839 0.000207867
0.00555429 -5.03593e-05 -0.00010377
0.00532404 -0.00016247 0.000252189
0.00550945 -0.000171481 -0.00023124
0.00557681 2.08843e-05 6.90213e-05
0.00577182 -0.000235109 -0.000211683
0.00548107 7.35309e-05 -0.000344587
0.00616462 -0.000160793 -5.39702e-05
0.00574238 -8.68835e-06 7.51221e-05
0.00555556 -5.30071e-05 -0.000105798
0.00623405 -0.000198316 -0.000279366
0.00609719 -0.00012886 -0.000290966
0.00594923 -0.000233651 -0.000223452
0.0059616 -0.000182032 -0.000254231
0.0061681 -0.000167551 -5.26527e-05
0.00573978 -0.000168786 -0.000245727
0.00552432 -0.000138806 -0.000243834
0.00554409 0.00010786 0.000216846
0.00580025 8.52186e-05 -0.000136504
0.00604099 -0.00016524 -5.20819e-05
0.00610702 -0.000154759 -0.000276898
0.0055596 -0.000229421 -0.000200968
0.00567213 -0.00017206 -0.00024098
0.00590419 -0.000218731 -0.000228951
0.00568911 7.37402e-05 -0.000354058
0.00542755 -0.000159701 0.000267101
0.00626996 -0.000185828 -4.67649e-05
0.00578527 -0.000231175 -0.000312193
0.00620977 -0.000184775 -5.03585e-05
0.00567091 -0.00023068 -0.000208268
0.0057821 -0.000180883 -0.000243148
0.00599664 -0.000192227 -0.000249342
0.00547634 -0.00019803 0.000261932
0.00628443 -0.000164167 1.42132e-05
0.00557577 0.000124448 0.000206668
0.00569867 -0.000212093 -0.000220282
0.00611767 -7.41639e-05 -0.00032278
0.00552139 9.43032e-05 0.000232292
0.00611 -0.000136957 -0.000287177
0.00589466 -0.000213586 -0.000231696
0.00546867 -0.000245446 -0.000188505
0.00551923 -4.74737e-05 0.000255842
0.00592526 -0.000184951 -0.000248003
0.00624776 -0.000224649 -0.000344297
0.00568283 0.000348022 0.000229778
0.00565411 -0.000169775 -0.000250601
0.00631382 -0.000136148 0.000104281
0.00536851 -8.84398e-05 -0.00027019
0.00611889 6.59247e-05 0.000173009
0.00556967 0.000115574 0.000210341
0.00611481 -0.000161105 -5.49135e-05
0.00571041 3.13831e-05 -0.000367773

VECTORS force float
-5.97703e-11 -2.09059e-10 2.50626e-10
7.10821e-11 -1.14922e-10 -3.94385e-11
1.04001e-09 -9.74294e-10 3.91964e-10
4.11543e-12 -1.79492e-10 9.33778e-11
-5.64838e-11 -1.78397e-10 2.3072e-10
-6.7803e-11 -2.03722e-10 5.5303e-11
-2.04171e-10 5.48309e-11 -4.9042e-11
-4.80994e-11 -1.18083e-10 1.47379e-10
1.96106e-10 2.78864e-10 9.3641e-11
4.25605e-11 -1.14695e-10 5.07703e-11
6.90918e-10 5.90622e-10 -7.95797e-11
-2.52316e-10 -1.63851e-10 3.96478e-10
1.21846e-11 3.94208e-11 -5.20835e-11
-2.43561e-09 -1.24117e-09 -5.4819e-10
-6.3189e-11 -8.67514e-11 3.52551e-11
-1.37048e-09 -1.23459e-09 -1.37926e-09
1.53444e-10 -1.70609e-10 7.22828e-11
-8.60522e-12 -4.50402e-11 5.95182e-11
4.83997e-11 -3.48202e-11 5.04542e-10
-6.79993e-10 2.26206e-10 -8.20612e-11
-1.86531e-10 -8.99062e-11 9.07716e-11
-6.38572e-11 2.29782e-11 4.4279e-11
2.15944e-10 1.95064e-10 -1.68458e-10
-1.40654e-10 3.68572e-11 -2.20176e-10
-2.18499e-10 -5.40998e-10 5.94113e-12
1.31157e-11 4.03718e-11 2.98057e-11
1.44082e-11 2.43127e-10 2.03736e-11
1.42481e-10 2.71913e-10 1.86613e-11
4.71102e-10 1.29999e-10 -1.90372e-10
9.27457e-10 -8.2089e-11 -7.14569e-11
-7.03895e-12 9.51556e-11 6.8247e-13
-4.80825e-11 -6.14699e-11 5.4218e-11
-1.29028e-10 1.23268e-10 -5.44182e-11
1.0167e-10 -1.41383e-10 -5.32634e-11
-4.70414e-11 6.73874e-11 4.89957e-11
1.09077e-10 -8.32009e-11 2.40073e-10
-3.35619e-11 1.04329e-12 3.12555e-11
-5.0307e-12 2.01288e-10 -3.44476e-11
1.4432e-23 -8.18133e-24 2.06795e-25
1.14178e-10 1.05507e-11 -2.90458e-11
-3.02534e-10 1.01293e-10 -2.23182e-10
-1.08592e-10 -1.73905e-10 2.1943e-10
-8.27929e-11 -2.95301e-11 3.21079e-11
-2.26699e-10 3.55852e-10 -1.00419e-10
7.4327e-11 3.12385e-10 -8.2474e-11
2.92662e-11 1.093e-10 -4.53999e-10
2.23975e-10 -4.27715e-10 4.22885e-11
-1.08291e-11 -8.58352e-11 -1.01359e-10
1.35226e-11 7.01867e-11 -2.01555e-10
-1.89925e-10 1.34738e-10 4.3143e-11
-1.18705e-10 1.90534e-10 -1.4138e-10
5.96102e-10 1.29611e-10 -4.27396e-11
1.47109e-10 1.79927e-10 -7.6873e-11
-4.81995e-11 4.8105e-11 7.08468e-12
-1.33313e-10 1.97798e-10 -5.59286e-11
3.93296e-11 2.07401e-10 1.59854e-12
-3.42571e-10 -2.8936e-10 1.71768e-10
2.82829e-11 2.79291e-11 -1.30716e-10
1.15816e-12 -2.20125e-10 -1.74472e-11
-4.80421e-10 -5.43363e-10 1.85232e-10
-2.84971e-11 -3.99215e-11 2.2853e-10
4.18762e-10 2.41645e-10 2.59177e-11
7.71015e-11 3.52081e-11 -4.07162e-10
1.62563e-10 1.54949e-10 1.44101e-10
-2.86966e-11 -7.42768e-11 -2.17062e-11
-2.08104e-10 3.15579e-11 -6.46718e-12
1.33495e-09 1.97353e-10 3.47041e-11
-3.01299e-10 3.74024e-10 -1.8251e-10
-5.26044e-10 -8.04228e-10 6.55565e-10
3.56633e-10 9.30676e-11 -1.21796e-10
7.01172e-11 -2.13928e-11 -3.67858e-11
2.4e-09 -1.8815e-09 -8.75248e-10
-1.1377e-11 -2.39364e-10 3.50678e-10
-5.83389e-11 3.12094e-10 3.96948e-10
-6.15682e-10 -2.79399e-10 5.62957e-12
-1.6699e-10 -3.63854e-10 2.35398e-10
-3.46556e-11 1.10616e-10 -1.91353e-11
8.09025e-11 -8.33903e-11 1.3441e-10
-2.0285e-10 3.89484e-11 -1.08868e-10
-2.89006e-10 1.56213e-11 -2.07184e-10
-8.87573e-11 2.16977e-10 -1.71547e-10
-6.64055e-10 8.38929e-10 -1.49547e-10
-2.98653e-10 -7.61596e-11 -2.52135e-11
-7.98981e-11 2.11117e-10 -1.99135e-10
-3.57412e-11 -3.09814e-11 1.87068e-10
-1.22079e-10 -4.89621e-10 1.51797e-10
-1.65826e-10 2.44887e-10 -1.82523e-10
-7.00069e-10 4.0844e-10 -1.67299e-10
4.0575e-10 2.04289e-10 -3.59322e-11
2.09598e-10 2.8527e-10 -1.59017e-10
-1.64462e-10 2.45184e-10 -3.18718e-11
-2.36996e-10 -1.77859e-10 1.16311e-10
1.32339e-21 -6.42099e-22 7.03104e-24
0.0 -2.58494e-26 0.0
8.87139e-10 -3.98492e-10 7.71872e-11
-1.88461e-10 -1.77121e-10 1.34206e-10
3.01255e-10 -4.89692e-10 2.95943e-10
-3.95205e-10 -4.93786e-10 2.83984e-10
-4.77175e-11 -9.1489e-12 5.22374e-11
-5.6091e-10 1.03889e-10 -3.95776e-11
3.43127e-11 1.93117e-10 -1.47976e-10
5.25864e-10 -3.05337e-11 3.76598e-11
-5.94891e-10 9.56893e-11 -1.03867e-12
4.12199e-10 -3.11854e-10 1.33092e-10
5.45083e-10 -1.96527e-10 -1.22898e-10
4.10173e-11 -2.46235e-10 3.62768e-11
-4.98303e-13 5.33419e-11 -1.14361e-10
3.18618e-11 -7.69845e-11 -4.55396e-11