# vtk DataFile Version 3.0
LIGGGHTS particles timestep 24800000
ASCII
DATASET POLYDATA
POINTS 271 float
0.157226 0.0158928 0.00820456
0.157766 0.0173732 0.00728586
0.15187 0.0169579 0.00743955
0.157595 0.0167747 0.00767299
0.157205 0.0158431 0.00828874
0.163401 0.0165078 0.00762874
0.157305 0.0161235 0.0078927
0.157184 0.0157934 0.00837294
0.163518 0.0170334 0.00740951
0.157713 0.017943 0.00705148
0.157785 0.0174622 0.00724241
0.151335 0.0162756 0.0078882
0.157121 0.0156443 0.0086255
0.151936 0.0185622 0.00722216
0.157656 0.0168469 0.00754318
0.152019 0.0182151 0.00723068
0.157686 0.0170241 0.00745633
0.157163 0.0157437 0.00845712
0.157693 0.0178463 0.00706694
0.157665 0.0169362 0.00749916
0.151513 0.016505 0.00760357
0.163577 0.0173194 0.00734063
0.15749 0.0164672 0.00772545
0.163478 0.0168429 0.00745541
0.15185 0.0168649 0.00747138
0.15773 0.0171969 0.00737211
0.157325 0.0162101 0.00784677
0.157787 0.0178821 0.00708043
0.157507 0.0165557 0.0076821
0.157526 0.0166499 0.00765467
0.163418 0.0165677 0.0075506
0.157288 0.0160473 0.0079551
0.157366 0.016388 0.0077654
0.163557 0.0172241 0.00736359
0.157886 0.0179036 0.00702693
0.157999 0.0176154 0.00717468
0.16364 0.0171689 0.00737555
0.157806 0.0171391 0.00740385
0.321436 0.0173475 0.00552525
0.157742 0.017286 0.00732826
0.163438 0.0166525 0.00750131
0.157247 0.0159426 0.00812038
0.157861 0.0178164 0.00706931
0.157448 0.0167374 0.00758944
0.157429 0.0166494 0.00763245
0.151252 0.016064 0.00821731
0.16361 0.0169958 0.00741716
0.157903 0.0179921 0.0069836
0.151188 0.0159054 0.0084639
0.157958 0.0178424 0.00706018
0.163458 0.0167476 0.00747837
0.157783 0.0170482 0.00744811
0.157346 0.016298 0.00780387
0.157957 0.0174359 0.00726221
0.157621 0.0166697 0.00762993
0.163659 0.0172643 0.00735259
0.151353 0.0163834 0.007893
0.151167 0.0158525 0.00854609
0.15786 0.0174042 0.00727416
0.15757 0.0168263 0.00759077
0.157844 0.0181522 0.00697475
0.163498 0.0169382 0.00743246
0.151231 0.0160111 0.00829951
0.157845 0.0177266 0.00711331
0.157921 0.0180891 0.00696788
0.157937 0.0173478 0.00730527
0.151876 0.0178912 0.00719563
0.157473 0.0168306 0.00761624
0.151989 0.0184023 0.0072291
0.151294 0.0161697 0.00805296
0.157794 0.0173754 0.0073819
0.151899 0.0179882 0.00720312
0.151351 0.0163289 0.00780522
0.151925 0.0181859 0.00721086
0.163538 0.0171287 0.00738656
0.151909 0.0171435 0.00737602
0.157825 0.0172274 0.00736071
0.158128 0.0174088 0.00728242
0.157622 0.017282 0.00743488
0.15788 0.0174923 0.00723115
0.157842 0.017316 0.00731732
0.151889 0.0170507 0.00740779
0.157825 0.017638 0.00715654
0.157502 0.0169755 0.00747322
0.157729 0.0176064 0.00716849
0.157664 0.0174309 0.0073595
0.157522 0.0170636 0.0074302
0.151615 0.0166741 0.00754099
0.157692 0.0173416 0.00739498
0.151385 0.0164854 0.00788828
0.157901 0.0175814 0.00718772
0.151316 0.0162226 0.00797077
0.0643568 0.0187248 0.00531097
0.24257 0.0191927 0.00520306
0.151802 0.0179567 0.00718002
0.151731 0.0167388 0.00751658
0.151676 0.0169524 0.00744569
0.151636 0.016767 0.00750916
0.157791 0.018316 0.0069746
0.157407 0.0165616 0.00767527
0.157539 0.0171603 0.00744857
0.157658 0.0173334 0.0073014
0.152051 0.0178682 0.00722886
0.151679 0.017388 0.00729857
0.151862 0.018628 0.00720865
0.157712 0.0171165 0.00742894
0.15777 0.0182186 0.00698114
0.158032 0.0173781 0.00729392
0.151775 0.0182378 0.00718139
0.157643 0.0167579 0.00758694
0.157466 0.0163799 0.00776789
0.157268 0.0159923 0.00803614
0.157517 0.0170601 0.00753001
0.151727 0.0180214 0.00716627
0.157555 0.0172451 0.00749919
0.158052 0.0174666 0.00725074
0.15739 0.016473 0.00771861
0.151751 0.0168315 0.00748485
0.157546 0.0169099 0.00764035
0.157705 0.0176907 0.00721838
0.151772 0.0169242 0.00745311
0.157757 0.0175453 0.00729471
0.15772 0.0177977 0.00716899
0.157548 0.0167291 0.00759751
0.157142 0.015694 0.00854131
0.151883 0.0187254 0.00721546
0.157478 0.0168702 0.0075246
0.157825 0.0180543 0.00698112
0.157691 0.0174348 0.0072631
0.15187 0.0182685 0.00720154
0.151705 0.0179239 0.00715946
0.151209 0.0159582 0.0083817
0.151818 0.0184327 0.00719501
0.151987 0.017944 0.00721759
0.151369 0.0163821 0.00772234
0.157646 0.0172437 0.00734554
0.0100679 0.0201683 0.00551526
0.151738 0.0176675 0.0072029
0.152056 0.0183294 0.00724108
0.151797 0.0183352 0.00718819
0.151386 0.0164353 0.0076394
0.151825 0.0180538 0.00718711
0.0219312 0.0187687 0.00551176
0.151947 0.0174603 0.00726823
0.157977 0.0175239 0.00721925
0.151828 0.0181537 0.00719022
0.151918 0.0180862 0.00720697
0.15162 0.0171095 0.00739388
0.151814 0.0176023 0.00722564
0.157878 0.0182661 0.00696612
0.151696 0.0170451 0.00741396
0.151604 0.0174514 0.00727884
0.151811 0.0171107 0.00738924
0.15775 0.0181207 0.00698747
0.151739 0.0175481 0.00732904
0.157805 0.0175543 0.00720756
0.151656 0.0168597 0.00747743
0.145715 0.0179682 0.00723704
0.151659 0.0172951 0.00733036
0.151754 0.0173235 0.00731868
0.151794 0.017509 0.00725526
0.151952 0.0178282 0.00720765
0.157731 0.0180227 0.00699373
0.151792 0.017018 0.00742099
0.157709 0.0175185 0.0072114
0.151683 0.0178265 0.00716493
0.157673 0.0177516 0.00709409
0.157493 0.0167535 0.00767752
0.157768 0.0177827 0.00708239
0.145982 0.0187709 0.0068563
0.157492 0.0169577 0.00757113
0.152025 0.0172689 0.00733111
0.157717 0.0166986 0.00761933
0.161461 0.0182058 0.00533758
0.151889 0.0175379 0.00724333
0.151541 0.0167384 0.00752095
0.145767 0.0182007 0.00705492
0.151957 0.0186595 0.00722896
0.151911 0.0184637 0.00721475
0.151698 0.0174812 0.00726669
0.151854 0.0177939 0.00718681
0.157553 0.0172059 0.00736065
0.151273 0.0161168 0.00813514
0.151948 0.0173291 0.00731251
0.151581 0.0169238 0.00745747
0.151396 0.0164357 0.00780225
0.151723 0.0178868 0.00725055
0.148735 0.0183351 0.00700993
0.157749 0.0176961 0.00712854
0.157653 0.0176635 0.00713715
0.151909 0.0176329 0.00721966
0.157804 0.0179554 0.00700131
0.157596 0.0174114 0.00728865
0.146055 0.0187076 0.00683006
0.151863 0.0174843 0.00732356
0.157939 0.0181873 0.00696181
0.151426 0.0166167 0.00756579
0.157622 0.0171421 0.00739511
0.151835 0.0176967 0.00720019
0.215072 0.022851 0.00938128
0.157919 0.0172594 0.00734848
0.15178 0.0178593 0.00717323
0.14342 0.0172727 0.00802856
0.157569 0.0169099 0.00750847
0.151663 0.0176114 0.00730966
0.145941 0.0185796 0.00687276
0.145732 0.0180447 0.00717502
0.152004 0.0176641 0.00721427
0.151564 0.0172655 0.00734247
0.145698 0.0178917 0.00729906
0.151963 0.0182977 0.00722136
0.157826 0.0177216 0.00721142
0.151831 0.0172035 0.00735747
0.151545 0.0171727 0.00737422
0.151506 0.0169871 0.00743779
0.145003 0.0155128 0.00924041
0.145025 0.0155931 0.00918478
0.1451 0.015847 0.00898854
0.151745 0.0181042 0.0072203
0.145046 0.0156734 0.00912883
0.145198 0.0161382 0.00874476
0.15193 0.0177294 0.00720059
0.151584 0.0173583 0.00731069
0.145908 0.0188334 0.00688224
0.151406 0.0165247 0.00759948
0.157574 0.0173131 0.00735211
0.145804 0.0183641 0.00694566
0.146035 0.0186107 0.00686359
0.145167 0.0160439 0.00882353
0.151891 0.0183659 0.00720833
0.151928 0.0172363 0.00734426
0.151719 0.0174551 0.00736098
0.151718 0.0175744 0.00723476
0.145824 0.0184565 0.00691368
0.151774 0.0174162 0.00728694
0.151486 0.0168944 0.00746951
0.14514 0.0159639 0.00889041
0.152118 0.0177946 0.00724066
0.145749 0.0181213 0.00711301
0.151758 0.0177602 0.00717115
0.151561 0.0168311 0.0074892
0.151643 0.0176374 0.00721518
0.151624 0.0174257 0.00737333
0.157616 0.0174974 0.00724142
0.152026 0.0177616 0.007221
0.145866 0.0186414 0.00684971
0.151446 0.0167091 0.00753306
0.145845 0.0185489 0.00688172
0.151601 0.0170166 0.00742569
0.151663 0.0177302 0.0071834
0.151624 0.0175247 0.00734508
0.152019 0.0173948 0.00728875
0.145887 0.0187388 0.00685757
0.144982 0.0154325 0.00929604
0.15164 0.0172023 0.00736212
0.151715 0.0171379 0.0073822
0.151758 0.0176421 0.00729771
0.15185 0.0172963 0.00732572
0.151735 0.0172307 0.00735044
0.151465 0.0163684 0.00774784
0.151807 0.0182084 0.00727128
0.151623 0.0175443 0.00724702
0.151841 0.0185327 0.00723029
0.15187 0.0173891 0.00729396
0.151466 0.0168017 0.00750121
0.145961 0.0186737 0.0068402
0.151525 0.0170799 0.00740597
0.157921 0.0176695 0.00714468
0.14507 0.0157568 0.00906394
0.145786 0.0182834 0.00700194
0.157635 0.0175839 0.00719487

VERTICES 271 542
1 0
1 1
1 2
1 3
1 4
1 5
1 6
1 7
1 8
1 9
1 10
1 11
1 12
1 13
1 14
1 15
1 16
1 17
1 18
1 19
1 20
1 21
1 22
1 23
1 24
1 25
1 26
1 27
1 28
1 29
1 30
1 31
1 32
1 33
1 34
1 35
1 36
1 37
1 38
1 39
1 40
1 41
1 42
1 43
1 44
1 45
1 46
1 47
1 48
1 49
1 50
1 51
1 52
1 53
1 54
1 55
1 56
1 57
1 58
1 59
1 60
1 61
1 62
1 63
1 64
1 65
1 66
1 67
1 68
1 69
1 70
1 71
1 72
1 73
1 74
1 75
1 76
1 77
1 78
1 79
1 80
1 81
1 82
1 83
1 84
1 85
1 86
1 87
1 88
1 89
1 90
1 91
1 92
1 93
1 94
1 95
1 96
1 97
1 98
1 99
1 100
1 101
1 102
1 103
1 104
1 105
1 106
1 107
1 108
1 109
1 110
1 111
1 112
1 113
1 114
1 115
1 116
1 117
1 118
1 119
1 120
1 121
1 122
1 123
1 124
1 125
1 126
1 127
1 128
1 129
1 130
1 131
1 132
1 133
1 134
1 135
1 136
1 137
1 138
1 139
1 140
1 141
1 142
1 143
1 144
1 145
1 146
1 147
1 148
1 149
1 150
1 151
1 152
1 153
1 154
1 155
1 156
1 157
1 158
1 159
1 160
1 161
1 162
1 163
1 164
1 165
1 166
1 167
1 168
1 169
1 170
1 171
1 172
1 173
1 174
1 175
1 176
1 177
1 178
1 179
1 180
1 181
1 182
1 183
1 184
1 185
1 186
1 187
1 188
1 189
1 190
1 191
1 192
1 193
1 194
1 195
1 196
1 197
1 198
1 199
1 200
1 201
1 202
1 203
1 204
1 205
1 206
1 207
1 208
1 209
1 210
1 211
1 212
1 213
1 214
1 215
1 216
1 217
1 218
1 219
1 220
1 221
1 222
1 223
1 224
1 225
1 226
1 227
1 228
1 229
1 230
1 231
1 232
1 233
1 234
1 235
1 236
1 237
1 238
1 239
1 240
1 241
1 242
1 243
1 244
1 245
1 246
1 247
1 248
1 249
1 250
1 251
1 252
1 253
1 254
1 255
1 256
1 257
1 258
1 259
1 260
1 261
1 262
1 263
1 264
1 265
1 266
1 267
1 268
1 269
1 270

POINT_DATA 271
SCALARS id int 1
LOOKUP_TABLE default
1
2
3
4
5
6
7
8
9
10
11
12
13
14
15
16
17
19
21
22
23
24
25
26
27
28
29
30
31
32
33
34
35
36
37
38
39
41
42
44
45
47
48
50
51
52
53
54
55
56
57
59
61
62
63
64
65
66
67
68
69
70
71
72
73
74
76
77
78
79
80
81
82
83
84
85
86
87
88
89
90
91
92
93
94
95
96
97
98
99
100
101
102
103
104
105
106
107
108
109
110
111
112
113
114
115
116
117
118
119
120
121
122
123
124
125
126
127
128
129
131
132
133
134
135
136
137
138
140
141
142
143
144
147
148
149
150
151
153
154
155
156
157
158
159
160
162
164
165
166
168
169
170
171
172
173
174
175
177
178
179
181
182
183
184
186
187
188
189
190
191
192
193
194
195
196
197
198
199
201
202
203
204
205
206
207
208
209
210
211
212
213
214
215
216
217
218
219
220
221
222
223
224
225
226
227
228
229
230
231
232
234
235
236
237
239
240
241
242
244
246
247
248
249
250
251
252
253
254
255
256
257
258
259
261
262
263
264
265
266
267
268
269
270
271
272
273
274
275
276
277
278
280
283
284
285
286
287
288
289
290
291
292
293
294
295
296
297
298
299
300

SCALARS type int 1
LOOKUP_TABLE default
1
1
1
1
1
1
1
1
1
1
1
1
1
1
1
1
1
1
1
1
1
1
1
1
1
1
1
1
1
1
1
1
1
1
1
1
1
1
1
1
1
1
1
1
1
1
1
1
1
1
1
1
1
1
1
1
1
1
1
1
1
1
1
1
1
1
1
1
1
1
1
1
1
1
1
1
1
1
1
1
1
1
1
1
1
1
1
1
1
1
1
1
1
1
1
1
1
1
1
1
1
1
1
1
1
1
1
1
1
1
1
1
1
1
1
1
1
1
1
1
1
1
1
1
1
1
1
1
1
1
1
1
1
1
1
1
1
1
1
1
1
1
1
1
1
1
1
1
1
1
1
1
1
1
1
1
1
1
1
1
1
1
1
1
1
1
1
1
1
1
1
1
1
1
1
1
1
1
1
1
1
1
1
1
1
1
1
1
1
1
1
1
1
1
1
1
1
1
1
1
1
1
1
1
1
1
1
1
1
1
1
1
1
1
1
1
1
1
1
1
1
1
1
1
1
1
1
1
1
1
1
1
1
1
1
1
1
1
1
1
1
1
1
1
1
1
1
1
1
1
1
1
1
1
1
1
1
1
1
1
1
1
1
1
1
1
1
1
1
1
1

SCALARS radius float 1
LOOKUP_TABLE default
5e-05
5e-05
5e-05
5e-05
5e-05
5e-05
5e-05
5e-05
5e-05
5e-05
5e-05
5e-05
5e-05
5e-05
5e-05
5e-05
5e-05
5e-05
5e-05
5e-05
5e-05
5e-05
5e-05
5e-05
5e-05
5e-05
5e-05
5e-05
5e-05
5e-05
5e-05
5e-05
5e-05
5e-05
5e-05
5e-05
5e-05
5e-05
5e-05
5e-05
5e-05
5e-05
5e-05
5e-05
5e-05
5e-05
5e-05
5e-05
5e-05
5e-05
5e-05
5e-05
5e-05
5e-05
5e-05
5e-05
5e-05
5e-05
5e-05
5e-05
5e-05
5e-05
5e-05
5e-05
5e-05
5e-05
5e-05
5e-05
5e-05
5e-05
5e-05
5e-05
5e-05
5e-05
5e-05
5e-05
5e-05
5e-05
5e-05
5e-05
5e-05
5e-05
5e-05
5e-05
5e-05
5e-05
5e-05
5e-05
5e-05
5e-05
5e-05
5e-05
5e-05
5e-05
5e-05
5e-05
5e-05
5e-05
5e-05
5e-05
5e-05
5e-05
5e-05
5e-05
5e-05
5e-05
5e-05
5e-05
5e-05
5e-05
5e-05
5e-05
5e-05
5e-05
5e-05
5e-05
5e-05
5e-05
5e-05
5e-05
5e-05
5e-05
5e-05
5e-05
5e-05
5e-05
5e-05
5e-05
5e-05
5e-05
5e-05
5e-05
5e-05
5e-05
5e-05
5e-05
5e-05
5e-05
5e-05
5e-05
5e-05
5e-05
5e-05
5e-05
5e-05
5e-05
5e-05
5e-05
5e-05
5e-05
5e-05
5e-05
5e-05
5e-05
5e-05
5e-05
5e-05
5e-05
5e-05
5e-05
5e-05
5e-05
5e-05
5e-05
5e-05
5e-05
5e-05
5e-05
5e-05
5e-05
5e-05
5e-05
5e-05
5e-05
5e-05
5e-05
5e-05
5e-05
5e-05
5e-05
5e-05
5e-05
5e-05
5e-05
5e-05
5e-05
5e-05
5e-05
5e-05
5e-05
5e-05
5e-05
5e-05
5e-05
5e-05
5e-05
5e-05
5e-05
5e-05
5e-05
5e-05
5e-05
5e-05
5e-05
5e-05
5e-05
5e-05
5e-05
5e-05
5e-05
5e-05
5e-05
5e-05
5e-05
5e-05
5e-05
5e-05
5e-05
5e-05
5e-05
5e-05
5e-05
5e-05
5e-05
5e-05
5e-05
5e-05
5e-05
5e-05
5e-05
5e-05
5e-05
5e-05
5e-05
5e-05
5e-05
5e-05
5e-05
5e-05
5e-05
5e-05
5e-05
5e-05
5e-05
5e-05
5e-05
5e-05
5e-05
5e-05
5e-05
5e-05
5e-05
5e-05
5e-05
5e-05
5e-05
5e-05
5e-05
5e-05
5e-05
5e-05
5e-05
5e-05
5e-05
5e-05
5e-05
5e-05
5e-05
5e-05
5e-05
5e-05

SCALARS mass float 1
LOOKUP_TABLE default
1.46608e-10
1.46608e-10
1.46608e-10
1.46608e-10
1.46608e-10
1.46608e-10
1.46608e-10
1.46608e-10
1.46608e-10
1.46608e-10
1.46608e-10
1.46608e-10
1.46608e-10
1.46608e-10
1.46608e-10
1.46608e-10
1.46608e-10
1.46608e-10
1.46608e-10
1.46608e-10
1.46608e-10
1.46608e-10
1.46608e-10
1.46608e-10
1.46608e-10
1.46608e-10
1.46608e-10
1.46608e-10
1.46608e-10
1.46608e-10
1.46608e-10
1.46608e-10
1.46608e-10
1.46608e-10
1.46608e-10
1.46608e-10
1.46608e-10
1.46608e-10
1.46608e-10
1.46608e-10
1.46608e-10
1.46608e-10
1.46608e-10
1.46608e-10
1.46608e-10
1.46608e-10
1.46608e-10
1.46608e-10
1.46608e-10
1.46608e-10
1.46608e-10
1.46608e-10
1.46608e-10
1.46608e-10
1.46608e-10
1.46608e-10
1.46608e-10
1.46608e-10
1.46608e-10
1.46608e-10
1.46608e-10
1.46608e-10
1.46608e-10
1.46608e-10
1.46608e-10
1.46608e-10
1.46608e-10
1.46608e-10
1.46608e-10
1.46608e-10
1.46608e-10
1.46608e-10
1.46608e-10
1.46608e-10
1.46608e-10
1.46608e-10
1.46608e-10
1.46608e-10
1.46608e-10
1.46608e-10
1.46608e-10
1.46608e-10
1.46608e-10
1.46608e-10
1.46608e-10
1.46608e-10
1.46608e-10
1.46608e-10
1.46608e-10
1.46608e-10
1.46608e-10
1.46608e-10
1.46608e-10
1.46608e-10
1.46608e-10
1.46608e-10
1.46608e-10
1.46608e-10
1.46608e-10
1.46608e-10
1.46608e-10
1.46608e-10
1.46608e-10
1.46608e-10
1.46608e-10
1.46608e-10
1.46608e-10
1.46608e-10
1.46608e-10
1.46608e-10
1.46608e-10
1.46608e-10
1.46608e-10
1.46608e-10
1.46608e-10
1.46608e-10
1.46608e-10
1.46608e-10
1.46608e-10
1.46608e-10
1.46608e-10
1.46608e-10
1.46608e-10
1.46608e-10
1.46608e-10
1.46608e-10
1.46608e-10
1.46608e-10
1.46608e-10
1.46608e-10
1.46608e-10
1.46608e-10
1.46608e-10
1.46608e-10
1.46608e-10
1.46608e-10
1.46608e-10
1.46608e-10
1.46608e-10
1.46608e-10
1.46608e-10
1.46608e-10
1.46608e-10
1.46608e-10
1.46608e-10
1.46608e-10
1.46608e-10
1.46608e-10
1.46608e-10
1.46608e-10
1.46608e-10
1.46608e-10
1.46608e-10
1.46608e-10
1.46608e-10
1.46608e-10
1.46608e-10
1.46608e-10
1.46608e-10
1.46608e-10
1.46608e-10
1.46608e-10
1.46608e-10
1.46608e-10
1.46608e-10
1.46608e-10
1.46608e-10
1.46608e-10
1.46608e-10
1.46608e-10
1.46608e-10
1.46608e-10
1.46608e-10
1.46608e-10
1.46608e-10
1.46608e-10
1.46608e-10
1.46608e-10
1.46608e-10
1.46608e-10
1.46608e-10
1.46608e-10
1.46608e-10
1.46608e-10
1.46608e-10
1.46608e-10
1.46608e-10
1.46608e-10
1.46608e-10
1.46608e-10
1.46608e-10
1.46608e-10
1.46608e-10
1.46608e-10
1.46608e-10
1.46608e-10
1.46608e-10
1.46608e-10
1.46608e-10
1.46608e-10
1.46608e-10
1.46608e-10
1.46608e-10
1.46608e-10
1.46608e-10
1.46608e-10
1.46608e-10
1.46608e-10
1.46608e-10
1.46608e-10
1.46608e-10
1.46608e-10
1.46608e-10
1.46608e-10
1.46608e-10
1.46608e-10
1.46608e-10
1.46608e-10
1.46608e-10
1.46608e-10
1.46608e-10
1.46608e-10
1.46608e-10
1.46608e-10
1.46608e-10
1.46608e-10
1.46608e-10
1.46608e-10
1.46608e-10
1.46608e-10
1.46608e-10
1.46608e-10
1.46608e-10
1.46608e-10
1.46608e-10
1.46608e-10
1.46608e-10
1.46608e-10
1.46608e-10
1.46608e-10
1.46608e-10
1.46608e-10
1.46608e-10
1.46608e-10
1.46608e-10
1.46608e-10
1.46608e-10
1.46608e-10
1.46608e-10
1.46608e-10
1.46608e-10
1.46608e-10
1.46608e-10
1.46608e-10
1.46608e-10
1.46608e-10
1.46608e-10
1.46608e-10
1.46608e-10
1.46608e-10
1.46608e-10
1.46608e-10
1.46608e-10
1.46608e-10
1.46608e-10
1.46608e-10
1.46608e-10
1.46608e-10
1.46608e-10
1.46608e-10
1.46608e-10

VECTORS velocity float
0.00635238 2.78584e-05 -0.000832134
0.00571327 0.000886951 -0.000221948
0.00533755 -0.00115412 0.000271074
0.00593732 0.000826429 -0.000179989
0.00629515 4.07854e-05 -0.000844987
0.00583682 2.02987e-05 0.000114582
0.00586588 0.000619851 -0.000360235
0.00625438 5.09151e-05 -0.000856185
0.00560221 -6.62156e-05 -6.28266e-05
0.00578361 0.000776928 -0.000618345
0.00571574 0.00089781 -0.000224714
0.00567008 -0.00101272 0.00177856
0.00617256 6.81242e-05 -0.000873657
0.00553799 -0.00103362 0.00110763
0.00581673 0.000881 -0.000210089
0.00563135 -0.00107267 0.00112374
0.00565312 0.000903412 -0.000221754
0.00623516 5.6085e-05 -0.000862187
0.00579238 0.00084272 -0.000236255
0.00572778 0.000888766 -0.000216528
0.00681267 0.00865247 -0.00208892
0.00543353 -6.31429e-05 -6.3069e-05
0.00592812 0.000730549 -0.000129796
0.00560216 -9.37679e-05 -6.0654e-05
0.00549945 -0.000621562 8.34593e-05
0.0056434 0.000900796 -0.000224123
0.00590197 0.000730969 -0.000131715
0.00576737 0.000869061 -0.000389118
0.00592502 0.000731649 -0.000131017
0.00598085 0.000662954 -0.000321634
0.00557811 3.73408e-08 0.000106911
0.00587044 0.000293816 -0.000760577
0.00592174 0.00072952 -0.00013198
0.00544073 -3.23338e-05 -6.89833e-05
0.00543416 0.000922075 -0.000246235
0.00579846 0.000876599 -0.000206791
0.00544522 -3.85196e-05 -6.77164e-05
0.00563849 0.000908069 -0.000229566
4.56632e-16 2.25541e-15 8.4636e-14
0.00565578 0.000898185 -0.000222008
0.00563409 -6.63822e-05 6.42759e-06
0.0063713 2.23011e-05 -0.000826926
0.00578562 0.000854002 -0.000195643
0.00593522 0.000732136 -0.000131511
0.00593397 0.000730879 -0.000129599
0.00557053 -0.00102912 0.00181363
0.0055885 -7.1064e-05 -6.19719e-05
0.00565162 0.000892084 -0.000217123
0.00547264 -0.00106444 0.00189659
0.0053696 0.000870346 -0.000220731
0.00557499 -7.96562e-05 -4.87945e-05
0.00562918 0.000897117 -0.000224473
0.00590844 0.000729556 -0.000132977
0.00567557 0.000880961 -0.000214175
0.00599744 0.00084433 -0.000184442
0.00544925 -5.93709e-05 -6.27693e-05
0.0130864 0.0121228 -0.0327235
0.0054192 -0.00112989 0.00199804
0.00571446 0.000898618 -0.000222477
0.00585531 0.000809152 -0.000170388
0.00626599 0.000858509 -0.000796212
0.00560115 -7.95887e-05 -5.95514e-05
0.00558573 -0.000902426 0.00163778
0.00579273 0.000862289 -0.000201229
0.00588673 0.000769343 -0.000749848
0.00566524 0.000885085 -0.000217729
0.00569523 -0.00108787 0.00111802
0.00571205 0.000806612 -0.000199954
0.00557426 -0.00107783 0.00111562
0.0054436 -0.00096635 0.00175289
0.00570814 0.000906199 -0.0002177
0.00568208 -0.00108196 0.00113069
0.00549862 -0.000951123 0.00180272
0.00563389 -0.00108199 0.00112432
0.0054505 -2.24241e-05 -7.231e-05
0.0050071 -0.00121967 0.00030047
0.00563588 0.000905562 -0.000227905
0.00584454 0.000867288 -0.000201032
0.0056321 0.00091661 -0.000242395
0.00574057 0.000875788 -0.000211502
0.00570878 0.000893266 -0.000215063
0.00516284 -0.00115886 0.000275672
0.00580108 0.000864222 -0.000202652
0.00575347 0.000858056 -0.000200682
0.00576758 0.000891367 -0.000213989
0.00568899 0.00092099 -0.000251906
0.00560986 0.000880239 -0.000218762
0.00539799 -0.00156767 0.000412128
0.00564004 0.000915622 -0.000233931
0.0113251 0.0209761 -0.0133682
0.00580493 0.000862927 -0.000199404
0.0056891 -0.000984127 0.00179513
4.19299e-15 1.0504e-14 8.2963e-14
-2.11393e-22 2.24983e-22 1.23839e-22
0.00571275 -0.00102497 0.00115339
0.0052955 -0.000685341 0.000113431
0.00516847 -0.00132329 0.000354357
0.00525328 -0.00145157 0.00038425
0.00632387 0.000891831 -0.000805783
0.00592588 0.000730659 -0.000130231
0.00564355 0.000878195 -0.000227214
0.0056677 0.000902296 -0.000229023
0.00488482 -0.00194743 0.000949547
0.00527183 -0.00131276 0.000308197
0.00558888 -0.00108538 0.00111426
0.00564288 0.000902437 -0.000226702
0.00631058 0.000897925 -0.000802138
0.00567292 0.00088815 -0.000217487
0.00560443 -0.00119617 0.00111962
0.00591012 0.000868796 -0.000200584
0.00592675 0.000727895 -0.000128805
0.00620515 4.78584e-05 -0.000847839
0.00560135 0.000896826 -0.000223592
0.00565017 -0.00108303 0.00112961
0.00559197 0.000922939 -0.000281336
0.00582152 0.000854684 -0.00019623
0.00592773 0.000729474 -0.000129648
0.00544884 -0.000668048 0.000104999
0.00616814 0.00097975 -0.000309149
0.0057892 0.000873491 -0.000210276
0.00527887 -0.000970802 0.000203223
0.00576097 0.000866459 -0.000247817
0.00578401 0.000883238 -0.000211144
0.00594052 0.000786985 -0.000158334
0.00619901 6.31004e-05 -0.000868967
0.00559158 -0.00106792 0.00111726
0.00572381 0.000829641 -0.000186848
0.00574126 0.000986328 -0.000522439
0.00569907 0.000858605 -0.000247424
0.00561761 -0.00110349 0.00112048
0.00569247 -0.000992903 0.00114532
0.0055414 -0.00096753 0.00174928
0.0055946 -0.00111519 0.00111596
0.00546757 -0.00146788 0.00108157
0.00534158 -0.000898308 0.00181635
0.00566069 0.000902752 -0.000225981
8.38383e-15 1.25352e-15 -8.48743e-14
0.00529762 -0.000856283 0.000171344
0.00558366 -0.00106682 0.00111361
0.0056065 -0.00112153 0.00111763
0.0053432 -0.000961225 0.00176547
0.00566726 -0.00107408 0.00112878
-3.83113e-14 8.16921e-14 2.95883e-13
0.00537295 -0.00139219 0.000353606
0.00580482 0.000855 -0.000196456
0.00563476 -0.00114975 0.00112147
0.00565893 -0.00107824 0.00112982
0.00510726 -0.00139998 0.00036671
0.00552434 -0.00125512 0.000511906
0.00630882 0.000844159 -0.000800456
0.00504029 -0.0012613 0.00030561
0.00531518 -0.000969793 0.000209857
0.00507456 -0.00124558 0.000311128
0.00579411 0.000687358 -0.00073511
0.00535671 -0.00103199 0.000173767
0.00576423 0.000875318 -0.00024674
0.00518 -0.00137501 0.000374912
0.00567746 -0.00055161 -0.000930554
0.00520388 -0.00141546 0.000359069
0.00520076 -0.00133361 0.000340993
0.00541967 -0.00132955 0.000291689
0.00570964 -0.00114291 0.00113602
0.00581403 0.000682481 -0.000730596
0.00515504 -0.00130738 0.000329475
0.00572021 0.000885148 -0.000214886
0.00558525 -0.00119604 -0.00213623
0.00579993 0.000885678 -0.000212824
0.00594633 0.000746571 -0.000142096
0.0057928 0.000858741 -0.000199163
0.00628525 3.03838e-05 -9.37545e-05
0.00587342 0.000819035 -0.000198591
0.00532514 -0.00127896 0.000320951
0.00596194 0.000917277 -0.000221928
1.47347e-15 -1.10128e-14 8.66693e-14
0.0054754 -0.00132262 0.000360394
0.00531998 -0.00159381 0.000458366
0.00596358 -0.000410555 -0.000716815
0.00544564 -0.000996776 0.0010869
0.00558148 -0.00108527 0.00111063
0.00532128 -0.000975751 0.00021318
0.0056497 -0.00107617 0.00113251
0.00564571 0.000893507 -0.000221729
0.00535962 -0.000947572 0.00171415
0.0053044 -0.00130246 0.000324904
0.00523509 -0.00148332 0.000440789
0.00957256 0.00881177 -0.00615352
0.00562961 -0.00103672 0.00105995
0.00553427 -0.000737522 0.000360386
0.0057974 0.000868188 -0.000204399
0.00578559 0.000895999 -0.000216996
0.00556111 -0.00124721 0.000726664
0.00604309 0.00055837 -0.00479449
0.00568366 0.000894111 -0.000229758
0.00632334 -2.06798e-05 0.00013318
0.00532397 -0.00127188 0.000337394
0.006172 0.000724312 -0.000778684
0.00518852 -0.0014745 0.00055988
0.00564638 0.000898586 -0.000223838
0.00558541 -0.00111947 0.000959274
-0.00982227 0.00409903 0.000308445
0.00564186 0.000889258 -0.000220145
0.00568568 -0.00101815 0.0011319
1.30585e-10 -0.0214559 0.0109863
0.00575501 0.000859304 -0.000200813
0.00531794 -0.000943048 0.000225063
0.00631939 2.15146e-05 0.00010915
0.00580176 -0.000560071 -0.000951942
0.00558836 -0.0012042 0.00112228
0.00521306 -0.00149351 0.000357501
0.00561074 -0.000556635 -0.000911107
0.00560841 -0.00108659 0.00111924
0.00578122 0.000862215 -0.000203122
0.00508214 -0.00123444 0.000303716
0.00518359 -0.00149504 0.000322035
0.00512553 -0.00148461 0.000395691
0.00608643 0.00295566 -0.000248155
0.00606216 0.00295614 -0.000256766
0.0084585 0.00882244 -0.00868386
0.00558005 -0.00113508 0.001098
0.006178 0.00301603 -0.00108209
0.0113121 0.0169103 -0.0154827
0.00565 -0.00113202 0.00112992
0.00524786 -0.00142263 0.000351006
0.0063053 8.6948e-05 -0.000188109
0.00528623 -0.00118493 0.00131132
0.00565973 0.000911168 -0.000256979
0.00619245 3.12721e-05 9.40789e-05
0.00630782 2.77967e-05 0.000104932
0.0105017 0.0143259 -0.0133342
0.00560141 -0.00109916 0.00111799
0.00522585 -0.00127146 0.000316288
0.00537503 -0.000952417 0.000210636
0.00531496 -0.000961208 0.000207183
0.00624875 2.51247e-05 0.000107149
0.00530263 -0.00132434 0.000337634
0.0052945 -0.00157134 0.000490697
0.0102703 0.013726 -0.0128252
0.00568645 -0.00117276 0.00113301
0.00585778 -0.000567373 -0.000964932
0.00553702 -0.000979904 0.000188944
0.005272 -0.00159523 0.000451584
0.00533525 -0.000936518 0.000205729
0.00536858 -0.00103858 0.000192859
0.00570075 0.00082773 -0.000287289
0.0056836 -0.0012167 0.00113135
0.00632692 2.02789e-05 0.000107685
0.00527628 -0.00163457 0.000230715
0.00632152 1.59701e-05 0.000112568
0.00508722 -0.00130114 0.000331355
0.00535554 -0.000819252 0.00015815
0.00533634 -0.000938831 0.000227582
0.00537968 -0.00138223 0.000346611
0.00631599 3.56474e-05 7.59447e-05
0.00611073 0.00295517 -0.000239522
0.00524141 -0.00144125 0.000374283
0.00503684 -0.00127396 0.000313902
0.00525718 -0.000810908 4.9346e-05
0.00520613 -0.00126463 0.000314836
0.00508552 -0.00129499 0.000329155
0.0153709 0.0130399 -0.0198558
0.00571134 -0.00115251 0.00110967
0.00532456 -0.000956281 0.000212947
0.00555563 -0.00109164 0.00111508
0.00531025 -0.00128641 0.000339389
0.00532762 -0.00164038 0.000309638
0.00627964 -5.6932e-06 0.000111826
0.00506918 -0.00144649 0.000365254
0.00579452 0.000865642 -0.00020428
0.00734435 0.00561105 -0.00598878
0.00611479 -0.00011983 -0.000182323
0.00573363 0.000896928 -0.000214847

VECTORS force float
4.43918e-11 3.36022e-11 -3.78699e-11
1.79005e-10 6.07604e-11 -2.61852e-11
-5.51911e-10 3.34475e-10 -1.05544e-10
5.8166e-11 4.69191e-11 1.21659e-11
-2.50934e-11 1.87925e-11 -2.97796e-11
-3.26541e-10 -5.74905e-11 3.73386e-11
3.27407e-11 2.52856e-11 3.38967e-11
-1.2776e-11 3.77922e-12 -1.38263e-11
-1.17373e-11 -2.21442e-10 7.46596e-11
5.23724e-11 -9.75766e-11 9.76114e-11
8.11344e-11 1.05463e-10 5.49873e-13
-3.05169e-10 1.64453e-10 -9.52729e-11
-4.95358e-11 4.7396e-11 -7.49318e-11
-3.08651e-10 5.47278e-10 5.24546e-11
-1.02241e-10 -5.51363e-12 -1.15141e-12
1.3273e-10 -1.11722e-10 6.62606e-12
-1.58614e-11 -5.29326e-11 2.03769e-11
-7.29494e-11 9.53411e-12 -1.88254e-11
-2.60593e-11 -7.64008e-11 7.94233e-11
-9.63333e-11 -3.05542e-11 1.0985e-11
0.0 0.0 -1.43822e-09
1.16926e-10 3.68379e-10 -1.029e-10
7.96998e-11 1.42082e-11 -1.43768e-11
4.07525e-11 5.65318e-11 4.79953e-11
1.12712e-09 -8.00081e-10 1.48712e-10
8.94049e-11 -5.11198e-12 2.09646e-11
5.01854e-11 2.50425e-11 1.11284e-11
4.48389e-11 -9.27405e-11 -7.44964e-12
3.74592e-11 -8.95639e-12 2.55721e-12
-2.25718e-11 -1.26204e-10 -2.05384e-10
2.99552e-10 1.08833e-10 7.17785e-10
-7.16361e-11 3.77706e-11 2.67656e-12
7.52087e-11 5.93583e-12 2.11778e-11
6.27723e-11 -1.04365e-10 3.88637e-11
2.9709e-11 1.0491e-11 6.28702e-12
-1.93395e-11 4.4539e-11 -3.27421e-11
-1.15099e-10 -7.66551e-11 1.77281e-11
-7.36355e-11 3.69574e-11 -2.44294e-11
1.61042e-23 -3.1407e-24 2.06795e-25
9.08908e-11 6.49575e-11 -3.36496e-11
3.08308e-10 1.60952e-11 -1.15566e-10
5.06391e-11 5.19005e-11 -4.99587e-11
3.41351e-11 -5.61744e-11 3.30194e-11
-5.08198e-12 -1.05489e-11 1.4173e-11
3.09317e-11 -1.41555e-11 9.31637e-12
9.75319e-10 -1.66171e-09 2.74085e-09
-6.66958e-13 -2.74247e-11 9.94524e-12
5.154e-11 1.89539e-11 5.12316e-11
1.98093e-10 4.7595e-10 -7.32748e-10
1.33011e-12 -8.25292e-11 1.01945e-11
6.14499e-10 1.10448e-10 5.74629e-11
1.38672e-10 -4.30724e-11 2.07656e-11
3.26025e-11 1.40211e-11 3.07273e-12
8.87817e-11 -8.97582e-11 5.87409e-11
-6.98231e-11 -1.99561e-12 -1.99724e-12
7.95023e-11 3.31471e-11 -1.27771e-11
1.96149e-10 -9.7809e-11 -1.31318e-09
1.78339e-10 4.829e-10 -7.67675e-10
-2.73994e-10 -9.4813e-11 2.33154e-11
-7.58116e-11 2.3431e-11 2.04612e-11
-1.73649e-10 1.39284e-10 2.09598e-11
-6.55889e-11 -8.32151e-11 -3.08603e-11
2.27048e-10 4.72691e-10 -6.57941e-10
-5.2286e-11 -6.31728e-11 -1.10538e-11
1.21164e-10 5.35965e-11 -8.35864e-11
-3.48359e-11 -6.89662e-11 5.1449e-11
-4.51087e-10 1.65477e-10 -6.42606e-11
-3.90728e-11 -1.71053e-11 5.88894e-11
2.28383e-10 -1.86085e-10 -3.31859e-11
2.89476e-10 1.00786e-09 -1.65108e-09
5.22822e-11 -1.84701e-10 -6.20636e-11
-2.80562e-11 8.60552e-11 -1.03277e-10
6.83411e-11 6.37265e-10 6.76501e-10
1.56818e-10 8.73916e-12 4.80817e-11
-2.21276e-10 -1.53116e-10 3.41938e-11
-7.34664e-10 -4.1227e-11 6.53749e-11
-1.25966e-10 -2.82543e-11 -4.87018e-12
-9.81098e-12 7.12007e-11 -2.92952e-11
1.41973e-11 1.9607e-11 -5.62312e-12
-1.0297e-10 1.2352e-10 -1.3095e-10
1.24737e-10 -1.47606e-10 3.75327e-11
-1.02862e-10 -4.94726e-11 9.0667e-12
3.273e-11 5.19669e-11 -4.51635e-11
-1.11075e-11 -2.93009e-11 2.26789e-11
9.68191e-11 4.21895e-11 -3.31388e-11
1.11486e-10 -4.95622e-12 -2.89936e-10
3.61742e-11 -8.56418e-11 5.52937e-11
1.02512e-09 -6.80283e-10 -1.28046e-10
1.58567e-10 1.41481e-10 4.29405e-11
1.8892e-09 1.38673e-09 1.09243e-09
-5.1858e-11 -3.20182e-11 -7.75479e-11
-6.00121e-10 2.48208e-10 -8.94775e-10
-2.91103e-21 1.09382e-21 1.67504e-23
0.0 0.0 0.0
5.24503e-11 2.51988e-10 -1.98297e-10
-5.75209e-11 -2.24439e-10 8.53041e-11
1.12328e-09 -8.49937e-10 5.43092e-10
6.46083e-10 8.55838e-10 -3.12735e-10
-4.70905e-11 -8.61774e-11 1.40294e-11
2.30213e-11 -4.92896e-13 -1.69672e-12
3.94944e-11 -5.86822e-11 -2.94638e-11
2.45257e-11 -1.14587e-10 1.2227e-10
9.23705e-10 3.90348e-10 2.03796e-10
-4.4379e-10 6.74519e-10 -2.99833e-10
-6.67651e-13 -2.76131e-10 1.33613e-10
3.77448e-11 -4.72392e-11 4.64668e-11
-6.748e-11 1.05396e-11 2.20225e-11
7.52162e-11 -4.6689e-11 1.40026e-11
8.9996e-11 1.3789e-10 3.34434e-11
-8.41511e-11 1.74436e-11 -1.31148e-11
9.8444e-11 -4.01924e-12 -7.51778e-13
-8.27243e-12 3.75891e-11 -3.04967e-11
8.23682e-11 9.68595e-11 1.00098e-10
2.38412e-10 8.87661e-10 1.04014e-10