# vtk DataFile Version 3.0
LIGGGHTS particles timestep 200000
ASCII
DATASET POLYDATA
POINTS 75 float
0.0171029 0.0142645 0.0118433
0.020791 0.0186332 0.0164073
0.0162799 0.0175749 0.023918
0.0230384 0.0201199 0.0227003
0.0161459 0.0162444 0.0155112
0.0199654 0.0156232 0.0206144
0.0148068 0.0209804 0.0158924
0.0167297 0.0161526 0.0236818
0.0233097 0.0217287 0.0083763
0.0156328 0.0224028 0.0150102
0.020595 0.0201703 0.0245272
0.0211681 0.0238216 0.0121956
0.0171511 0.0191644 0.00698913
0.015043 0.01872 0.0242519
0.0182569 0.0231779 0.0252157
0.0146267 0.0194466 0.0237434
0.0170494 0.0203019 0.00710509
0.0204215 0.0179564 0.00711232
0.016699 0.0143096 0.0122704
0.0209147 0.0202667 0.0191526
0.0163269 0.0151893 0.0143834
0.0194922 0.0238531 0.0115642
0.0171238 0.0224213 0.0270593
0.0196152 0.0148628 0.0180238
0.0172034 0.0204083 0.0152566
0.0199691 0.0166361 0.00785772
0.0172321 0.0195895 0.0267198
0.014237 0.0229689 0.0142714
0.0175364 0.0167446 0.0217037
0.0198546 0.016645 0.0223301
0.0170528 0.0209794 0.0202686
0.0191256 0.0201351 0.0223176
0.0194779 0.0164716 0.0198068
0.0169705 0.0204936 0.0161116
0.019646 0.0238564 0.0115702
0.0236863 0.0196643 0.0205895
0.0176571 0.0219418 0.0144216
0.0188849 0.0222907 0.0230951
0.0216864 0.0171255 0.0224274
0.0163876 0.0198651 0.0208138
0.0164414 0.0149756 0.0214384
0.0186023 0.019719 0.0182353
0.0202238 0.0238546 0.0115663
0.0210292 0.0211164 0.0204674
0.0194373 0.0161727 0.0185974
0.0205229 0.0190838 0.00687353
0.0161735 0.0169527 0.0219886
0.0205117 0.0232201 0.0251635
0.0195148 0.0154367 0.00946776
0.021847 0.0181461 0.0253897
0.0215986 0.0189505 0.0234478
0.0165344 0.0186388 0.026049
0.0203516 0.0173587 0.0186389
0.0164249 0.0149564 0.021935
0.0148175 0.0177697 0.0248145
0.0168665 0.0195995 0.0162862
0.0186277 0.0172272 0.01622
0.0221062 0.0204172 0.017804
0.0191003 0.0144318 0.0209757
0.0191008 0.0141413 0.0264069
0.0173369 0.0145672 0.018315
0.0199787 0.0216175 0.0256911
0.0222889 0.0184249 0.0190794
0.0208992 0.0196418 0.00691842
0.017687 0.0174519 0.0235192
0.0155669 0.0221018 0.0253927
0.0208055 0.0238799 0.011612
0.0157018 0.0181539 0.0166449
0.019389 0.0238509 0.0115602
0.0228944 0.0203849 0.0175966
0.0145778 0.0179052 0.0273869
0.0230906 0.0209042 0.0207518
0.01726 0.0205207 0.0071313
0.0221414 0.0221204 0.0224616
0.016666 0.0230287 0.0250883

VERTICES 75 150
1 0
1 1
1 2
1 3
1 4
1 5
1 6
1 7
1 8
1 9
1 10
1 11
1 12
1 13
1 14
1 15
1 16
1 17
1 18
1 19
1 20
1 21
1 22
1 23
1 24
1 25
1 26
1 27
1 28
1 29
1 30
1 31
1 32
1 33
1 34
1 35
1 36
1 37
1 38
1 39
1 40
1 41
1 42
1 43
1 44
1 45
1 46
1 47
1 48
1 49
1 50
1 51
1 52
1 53
1 54
1 55
1 56
1 57
1 58
1 59
1 60
1 61
1 62
1 63
1 64
1 65
1 66
1 67
1 68
1 69
1 70
1 71
1 72
1 73
1 74

POINT_DATA 75
SCALARS id int 1
LOOKUP_TABLE default
1
2
3
4
5
6
7
8
9
10
11
12
13
14
15
16
17
18
19
20
21
22
23
24
25
26
27
28
29
30
31
32
33
34
35
36
37
38
39
40
41
42
43
44
45
46
47
48
49
50
51
52
53
54
55
56
57
58
59
60
61
62
63
64
65
66
67
68
69
70
71
72
73
74
75

SCALARS type int 1
LOOKUP_TABLE default
1
1
1
1
1
1
1
1
1
1
1
1
1
1
1
1
1
1
1
1
1
1
1
1
1
1
1
1
1
1
1
1
1
1
1
1
1
1
1
1
1
1
1
1
1
1
1
1
1
1
1
1
1
1
1
1
1
1
1
1
1
1
1
1
1
1
1
1
1
1
1
1
1
1
1

SCALARS radius float 1
LOOKUP_TABLE default
5e-05
5e-05
5e-05
5e-05
5e-05
5e-05
5e-05
5e-05
5e-05
5e-05
5e-05
5e-05
5e-05
5e-05
5e-05
5e-05
5e-05
5e-05
5e-05
5e-05
5e-05
5e-05
5e-05
5e-05
5e-05
5e-05
5e-05
5e-05
5e-05
5e-05
5e-05
5e-05
5e-05
5e-05
5e-05
5e-05
5e-05
5e-05
5e-05
5e-05
5e-05
5e-05
5e-05
5e-05
5e-05
5e-05
5e-05
5e-05
5e-05
5e-05
5e-05
5e-05
5e-05
5e-05
5e-05
5e-05
5e-05
5e-05
5e-05
5e-05
5e-05
5e-05
5e-05
5e-05
5e-05
5e-05
5e-05
5e-05
5e-05
5e-05
5e-05
5e-05
5e-05
5e-05
5e-05

SCALARS mass float 1
LOOKUP_TABLE default
1.46608e-10
1.46608e-10
1.46608e-10
1.46608e-10
1.46608e-10
1.46608e-10
1.46608e-10
1.46608e-10
1.46608e-10
1.46608e-10
1.46608e-10
1.46608e-10
1.46608e-10
1.46608e-10
1.46608e-10
1.46608e-10
1.46608e-10
1.46608e-10
1.46608e-10
1.46608e-10
1.46608e-10
1.46608e-10
1.46608e-10
1.46608e-10
1.46608e-10
1.46608e-10
1.46608e-10
1.46608e-10
1.46608e-10
1.46608e-10
1.46608e-10
1.46608e-10
1.46608e-10
1.46608e-10
1.46608e-10
1.46608e-10
1.46608e-10
1.46608e-10
1.46608e-10
1.46608e-10
1.46608e-10
1.46608e-10
1.46608e-10
1.46608e-10
1.46608e-10
1.46608e-10
1.46608e-10
1.46608e-10
1.46608e-10
1.46608e-10
1.46608e-10
1.46608e-10
1.46608e-10
1.46608e-10
1.46608e-10
1.46608e-10
1.46608e-10
1.46608e-10
1.46608e-10
1.46608e-10
1.46608e-10
1.46608e-10
1.46608e-10
1.46608e-10
1.46608e-10
1.46608e-10
1.46608e-10
1.46608e-10
1.46608e-10
1.46608e-10
1.46608e-10
1.46608e-10
1.46608e-10
1.46608e-10
1.46608e-10

VECTORS velocity float
0.00359298 0.000494885 -0.00366366
0.000718118 0.0291126 0.0176322
0.0 -0.0 -0.03
0.0 -0.0 -0.03
-0.0047445 -0.0384021 0.00695158
0.0 -0.0 -0.03
-1.0543e-09 0.026556 -0.0116667
0.0 -0.0 -0.03
0.00368628 -0.0579418 -0.119414
0.0 0.0 -0.260834
0.0 -0.0 -0.03
-0.0141334 0.0274565 -0.0553564
-1.92009e-15 2.5046e-15 -2.62516e-14
0.0 -0.0 -0.03
0.0 -0.0 -0.03
0.0 -0.0 -0.03
-1.91876e-15 2.50564e-15 -2.62516e-14
0.000595412 0.110417 -0.0141609
0.0203399 -0.00667077 -0.014976
0.0 -0.0 -0.03
-0.00217788 -0.062601 -0.0951434
-1.78527e-05 -0.000295968 -0.000533565
0.0 -0.0 -0.03
0.0 0.0 -0.0943781
4.97121e-05 0.0227624 -0.00821232
0.0324148 0.0923127 -0.120705
0.0 -0.0 -0.03
0.00906004 0.00394811 -0.00563631
0.0 -0.0 -0.03
0.0 -0.0 -0.03
0.0 -0.0 -0.03
0.0 -0.0 -0.03
0.0 -0.0 -0.03
-3.93242e-09 0.0278881 -0.00871087
-1.55769e-05 -0.000261125 -0.000470334
0.0 -0.0 -0.03
-5.91221e-05 0.0600477 -0.103003
0.0 -0.0 -0.03
0.0 -0.0 -0.03
0.0 -0.0 -0.03
0.0 -0.0 -0.03
0.0 0.0 -0.06898
-0.0357845 0.00897238 0.0276487
0.0 -0.0 -0.03
0.0 -0.0 -0.03
0.00538203 -0.00224952 0.000532352
0.0 -0.0 -0.03
0.0 -0.0 -0.03
0.0554028 0.0667627 -0.180105
0.0 -0.0 -0.03
0.0 -0.0 -0.03
0.0 -0.0 -0.03
0.0 -0.0 -0.03
0.0 -0.0 -0.03
0.0 -0.0 -0.03
-4.11883e-09 0.0289407 -0.00330946
0.0 0.0 -0.21047
0.0 0.0 -0.114979
0.0 -0.0 -0.03
0.0 -0.0 -0.03
0.0 0.0 -0.0565213
0.0 -0.0 -0.03
0.0 -0.0 -0.03
0.0051169 0.00234117 0.00329747
0.0 -0.0 -0.03
0.0 -0.0 -0.03
-0.00149763 -0.00396391 0.00352953
-0.00382747 0.00870637 -0.0537292
-1.94324e-05 -0.000319158 -0.000575339
0.0 0.0 -0.131489
0.0 -0.0 -0.03
0.0 -0.0 -0.03
-9.19857e-15 -5.44991e-14 1.35808e-13
0.0 -0.0 -0.03
0.0 -0.0 -0.03

VECTORS force float
-1.1376e-10 -2.65423e-11 1.45458e-10
0.0 0.0 -1.43822e-09
0.0 0.0 0.0
0.0 0.0 0.0
0.0 0.0 -1.43822e-09
0.0 0.0 0.0
2.84531e-20 -1.03417e-11 -2.35196e-11
0.0 0.0 0.0
0.0 0.0 -1.43822e-09
0.0 0.0 -1.43822e-09
0.0 0.0 0.0
0.0 0.0 -1.43822e-09
-4.1876e-24 -2.48154e-24 0.0
0.0 0.0 0.0
0.0 0.0 0.0
0.0 0.0 0.0
3.36042e-24 -6.46235e-25 -2.06795e-25
0.0 0.0 -1.43822e-09
-1.07834e-10 -1.31365e-11 1.63164e-10
0.0 0.0 0.0
0.0 0.0 -1.43822e-09
2.36931e-12 2.42796e-11 4.36544e-11
0.0 0.0 0.0
0.0 0.0 -1.43822e-09
-3.80522e-14 -7.13282e-12 -2.02628e-11
0.0 0.0 -1.43822e-09
0.0 0.0 0.0
-1.12412e-11 2.14897e-12 2.08532e-11
0.0 0.0 0.0
0.0 0.0 0.0
0.0 0.0 0.0
0.0 0.0 0.0
0.0 0.0 0.0
-1.91794e-18 -7.71027e-12 -2.4707e-11
5.80714e-12 -7.25593e-12 -9.54594e-11
0.0 0.0 0.0
0.0 0.0 -1.43822e-09
0.0 0.0 0.0
0.0 0.0 0.0
0.0 0.0 0.0
0.0 0.0 0.0
0.0 0.0 -1.43822e-09
2.23842e-06 -3.66003e-07 -6.25695e-07
0.0 0.0 0.0
0.0 0.0 0.0
-3.42864e-12 -1.79783e-11 3.96675e-12
0.0 0.0 0.0
0.0 0.0 0.0
0.0 0.0 -1.43822e-09
0.0 0.0 0.0
0.0 0.0 0.0
0.0 0.0 0.0
0.0 0.0 0.0
0.0 0.0 0.0
0.0 0.0 0.0
-1.45655e-18 -2.92729e-12 -2.56371e-11
0.0 0.0 -1.43822e-09
0.0 0.0 -1.43822e-09
0.0 0.0 0.0
0.0 0.0 0.0
0.0 0.0 -1.43822e-09
0.0 0.0 0.0
0.0 0.0 0.0
0.0 0.0 -1.43822e-09
0.0 0.0 0.0
0.0 0.0 0.0
-3.04149e-07 4.9298e-06 1.81622e-06
0.0 0.0 -1.43822e-09
3.49441e-13 2.41966e-11 4.3655e-11
0.0 0.0 -1.43822e-09
0.0 0.0 0.0
0.0 0.0 0.0
6.69499e-24 5.16988e-25 6.20385e-25
0.0 0.0 0.0
0.0 0.0 0.0
