# vtk DataFile Version 3.0
LIGGGHTS particles timestep 9000000
ASCII
DATASET POLYDATA
POINTS 287 float
0.0653376 0.0165368 0.00781633
0.0657655 0.0174702 0.00715894
0.0590944 0.0160346 0.00843501
0.0656681 0.0178606 0.00702265
0.0652209 0.0164321 0.00789143
0.0712294 0.0164531 0.00783787
0.0654106 0.017153 0.00738792
0.0651184 0.0160306 0.00817221
0.0714954 0.017504 0.00722703
0.0653474 0.0169124 0.00755546
0.0657976 0.0176344 0.00704994
0.0592938 0.0167249 0.00774309
0.0651998 0.016352 0.00794748
0.0590057 0.015759 0.00871114
0.0655522 0.0173388 0.0072552
0.0589818 0.0156904 0.00877986
0.0653266 0.016836 0.00761657
0.0713727 0.0169803 0.00740024
0.0651788 0.0162719 0.00800351
0.0653165 0.0164567 0.00787237
0.0654528 0.0173132 0.00727587
0.0594692 0.0170252 0.00744349
0.0714345 0.0172104 0.00721906
0.0653898 0.0170725 0.00744343
0.0713113 0.0167544 0.00758778
0.0593737 0.0170017 0.00746565
0.0656477 0.0177627 0.00702572
0.0651577 0.0161918 0.00805955
0.0656729 0.0175302 0.00711947
0.0654317 0.017233 0.00733174
0.0655291 0.017259 0.00731106
0.0712498 0.0165285 0.00777535
0.0653053 0.0167525 0.0076673
0.0655076 0.0171786 0.00736736
0.0715361 0.0176998 0.00723235
0.0654648 0.0170173 0.00748021
0.0656292 0.0172859 0.00729086
0.071455 0.0173083 0.00722171
0.0652631 0.0165923 0.00777937
0.0654759 0.0173935 0.00722094
0.0656488 0.0173666 0.00723395
0.0712703 0.0166038 0.00771282
0.0713541 0.0169047 0.007463
0.0652842 0.0166724 0.00772333
0.0655166 0.0175642 0.00712854
0.0713317 0.0168297 0.00752526
0.0655734 0.0178294 0.00702977
0.0655528 0.0177315 0.00702982
0.0592738 0.0166557 0.00781245
0.0713939 0.0170555 0.00733782
0.0652955 0.0163766 0.0079284
0.0590521 0.0158964 0.00857348
0.0654854 0.0170974 0.00742413
0.0712909 0.0166791 0.00765032
0.0655432 0.0169656 0.00751447
0.0655639 0.0170458 0.00745839
0.065242 0.0165122 0.0078354
0.0656652 0.0174482 0.00717694
0.0656167 0.0176132 0.00711568
0.0714208 0.0171296 0.0072763
0.0593891 0.0167484 0.00772094
0.0593296 0.0165408 0.0079291
0.0657758 0.0175524 0.00710292
0.0657243 0.0176984 0.00702702
0.065401 0.0167771 0.00764825
0.0714751 0.0174062 0.00722437
0.059029 0.0158277 0.00864233
0.0657022 0.0176081 0.00706403
0.0653684 0.0169925 0.00749942
0.0655718 0.0174197 0.00719864
0.0596147 0.0176088 0.00717934
0.0658142 0.0185476 0.0070475
0.0591142 0.0161038 0.00836563
0.0593137 0.0167941 0.00767373
0.0656351 0.0181229 0.00703381
0.0592538 0.0165865 0.00788181
0.0593937 0.0170709 0.0073963
0.0593851 0.0164264 0.00804515
0.0715158 0.0176019 0.00722969
0.0592124 0.0161252 0.00834568
0.0656244 0.0176618 0.00702852
0.0655217 0.0168856 0.00757046
0.0656968 0.0184163 0.00704545
0.0656557 0.0182207 0.00703716
0.0657441 0.0173908 0.00721574
0.0593338 0.0168633 0.00760437
0.0657659 0.0178944 0.00702654
0.0657519 0.0182534 0.00703578
0.0658274 0.018188 0.00703201
0.0656148 0.0180251 0.00703064
0.0657862 0.0179923 0.00702553
0.0592138 0.0164481 0.00802054
0.0657173 0.018514 0.00704962
0.0593691 0.0166792 0.0077903
0.0657037 0.01723 0.00732763
0.0593091 0.0164716 0.00799839
0.0643568 0.0187248 0.00531097
0.24257 0.0191927 0.00520306
0.0596257 0.0172777 0.00724383
0.0591766 0.0163212 0.00816972
0.0597015 0.0172139 0.0072572
0.0591342 0.016173 0.00829626
0.0654433 0.0169373 0.00753619
0.0655342 0.0176402 0.00706595
0.0658814 0.0180235 0.00702884
0.0657584 0.0187096 0.00705796
0.0592338 0.0165173 0.00795117
0.060007 0.0177508 0.00717224
0.0595641 0.0170493 0.00742075
0.0655907 0.0175148 0.00717416
0.0654222 0.0168572 0.00759223
0.0652744 0.0162965 0.00798443
0.0590752 0.0159652 0.00850463
0.0655851 0.0171258 0.00740237
0.065138 0.016111 0.00811603
0.0650987 0.0159503 0.0082284
0.0659019 0.0181213 0.00702834
0.0592517 0.0162637 0.00820684
0.0657099 0.0180567 0.00702976
0.0652533 0.0162164 0.00804047
0.0654949 0.017473 0.00716327
0.0591938 0.0163789 0.0080899
0.0655939 0.0179273 0.00702975
0.0656762 0.0183185 0.00704128
0.0594882 0.0171013 0.00738144
0.0593491 0.01661 0.00785966
0.065689 0.0179583 0.00702482
0.0654372 0.0165652 0.00779456
0.0656061 0.0172059 0.00734634
0.0652328 0.0161362 0.00809656
0.0591918 0.0160561 0.00841494
0.0657785 0.0188075 0.00706215
0.0653798 0.016697 0.00770427
0.0659223 0.0182193 0.00702784
0.0592321 0.0161945 0.00827628
0.0595854 0.0171184 0.00735154
0.0591542 0.0162422 0.0082269
0.059545 0.0169799 0.00749038
0.0594056 0.0164956 0.00797587
0.0591706 0.0159871 0.00848413
0.0594537 0.0172785 0.00718822
0.0658479 0.0182859 0.00703285
0.0594451 0.016634 0.00783707
0.0597959 0.0172381 0.00723442
0.0592894 0.0164024 0.00806778
0.0595534 0.0173152 0.0071858
0.0596351 0.0177066 0.00717718
0.059529 0.0172322 0.00723603
0.0219312 0.0187687 0.00551176
0.0596577 0.0173674 0.00721335
0.0657446 0.0177963 0.00702651
0.0595355 0.0176699 0.00717903
0.0595739 0.017413 0.00718364
0.0598039 0.0180487 0.00716859
0.0598706 0.0175232 0.00717822
0.065395 0.016405 0.00790663
0.0594251 0.0165648 0.00790643
0.0597069 0.0172848 0.00718598
0.0599325 0.0178175 0.00717174
0.0597756 0.017492 0.00717988
0.0654161 0.0164851 0.0078506
0.0598458 0.0174208 0.00718051
0.0658725 0.0175761 0.00708163
0.0597016 0.0175594 0.00717936
0.0534708 0.0174005 0.00729856
0.0595088 0.017163 0.00730535
0.0595764 0.0178656 0.00717469
0.0599866 0.017653 0.00717439
0.0599121 0.0177196 0.00717389
0.0594947 0.0174741 0.00718333
0.0653587 0.0166169 0.0077603
0.0597503 0.0173911 0.00718214
0.0656855 0.0178085 0.00710624
0.059434 0.0172092 0.00725762
0.0594742 0.0173763 0.00718546
0.0656805 0.0171503 0.00738342
0.0657731 0.018352 0.00703917
0.0657243 0.0173102 0.00727154
0.0535573 0.017559 0.00722731
0.0657981 0.0189054 0.00706637
0.0596637 0.0170752 0.00739634
0.0655007 0.0168055 0.0076265
0.0594851 0.0167724 0.00769834
0.0598916 0.0176218 0.00717605
0.0589557 0.0156222 0.00884814
0.0535527 0.017738 0.00715232
0.0593537 0.0169325 0.00753501
0.0595943 0.0175109 0.00718149
0.0594492 0.016956 0.00751285
0.0598989 0.0180799 0.00716693
0.0596839 0.0171443 0.00732701
0.0658925 0.0176618 0.0070341
0.0594292 0.0168868 0.00758222
0.059763 0.0178529 0.0071729
0.0597221 0.0176572 0.0071772
0.0592704 0.0163331 0.0081373
0.059681 0.0174624 0.00719274
0.0594651 0.0167032 0.0077677
0.0655097 0.0175538 0.00722775
0.0658067 0.0180901 0.00702503
0.0597966 0.0175905 0.0071777
0.0656594 0.0170702 0.00743945
0.0657305 0.0181546 0.0070308
0.0535743 0.0174355 0.0072783
0.059556 0.0177677 0.00717684
0.0654582 0.0166453 0.00773853
0.059676 0.0179023 0.00717287
0.0657379 0.0186118 0.00705379
0.0595151 0.017572 0.00718115
0.0534586 0.0169797 0.00747613
0.0654795 0.0167254 0.00768252
0.0596057 0.0171876 0.00728222
0.0594139 0.0171401 0.00732696
0.0658195 0.01773 0.00703033
0.0598206 0.01732 0.00718277
0.0535238 0.0172484 0.00735967
0.0534925 0.0174901 0.00725974
0.0595338 0.0173721 0.00726565
0.0598448 0.0182444 0.00716428
0.0534491 0.017311 0.00733737
0.0593653 0.0163572 0.00811457
0.0595051 0.0168416 0.00762898
0.0657937 0.0184498 0.00704333
0.0598861 0.01844 0.00715997
0.0598652 0.0183423 0.00716212
0.0599397 0.0182756 0.00716262
0.0532535 0.0165049 0.00768669
0.0533187 0.0167736 0.00757025
0.0532331 0.0164151 0.00772555
0.0596234 0.0169368 0.00753502
0.0594092 0.0168176 0.00765158
0.0532753 0.0165945 0.00764787
0.0534056 0.0171318 0.007415
0.0597834 0.0179508 0.00717074
0.059953 0.0179154 0.00716958
0.053573 0.0178278 0.00711345
0.0596556 0.0178045 0.00717503
0.0658609 0.0179256 0.00702935
0.0536105 0.0180082 0.00703562
0.0535021 0.0171588 0.0073985
0.0533839 0.0170423 0.00745381
0.0591489 0.0159181 0.00855322
0.0597425 0.0177551 0.00717505
0.0596378 0.0181592 0.00716823
0.0596965 0.0180002 0.00717072
0.0536309 0.0181012 0.007005
0.059525 0.016914 0.00756289
0.0598011 0.0184927 0.00715986
0.0599193 0.0181777 0.00716478
0.0533622 0.0169527 0.00749262
0.0596582 0.018257 0.00716607
0.053531 0.0176484 0.00719113
0.0597782 0.0171686 0.00730412
0.0597374 0.0181959 0.00716641
0.0594588 0.0173068 0.007284
0.0596173 0.0180613 0.00717038
0.0658404 0.0178277 0.00702986
0.0598171 0.0176884 0.00717555
0.0536706 0.0182937 0.00698413
0.0597195 0.0185506 0.00715961
0.0536504 0.0181959 0.00697944
0.0597169 0.0180981 0.00716856
0.0595969 0.0179634 0.00717254
0.0597434 0.0186477 0.00715743
0.059858 0.0178842 0.00717124
0.0534273 0.0172214 0.00737618
0.0536266 0.0176746 0.00717502
0.0596033 0.0168676 0.00760436
0.0534803 0.0170692 0.00743732
0.053297 0.016684 0.00760906
0.0597783 0.0183917 0.0071621
0.0597578 0.0182938 0.00716425
0.0596786 0.0183549 0.00716392
0.0598243 0.0181465 0.00716643
0.0596991 0.0184528 0.00716176
0.0595834 0.0167984 0.00767375
0.0596424 0.0170062 0.0074655
0.0598784 0.017982 0.00716908
0.0593463 0.0162878 0.00818413
0.0598375 0.0177863 0.00717339
0.0597671 0.0187448 0.00715526
0.0535482 0.0173407 0.00731955
0.0599606 0.0183734 0.00716046
0.0656383 0.0169901 0.00749548
0.0533404 0.0168632 0.00753143
0.0535913 0.0179181 0.00707452
0.0657317 0.0176229 0.00715843

VERTICES 287 574
1 0
1 1
1 2
1 3
1 4
1 5
1 6
1 7
1 8
1 9
1 10
1 11
1 12
1 13
1 14
1 15
1 16
1 17
1 18
1 19
1 20
1 21
1 22
1 23
1 24
1 25
1 26
1 27
1 28
1 29
1 30
1 31
1 32
1 33
1 34
1 35
1 36
1 37
1 38
1 39
1 40
1 41
1 42
1 43
1 44
1 45
1 46
1 47
1 48
1 49
1 50
1 51
1 52
1 53
1 54
1 55
1 56
1 57
1 58
1 59
1 60
1 61
1 62
1 63
1 64
1 65
1 66
1 67
1 68
1 69
1 70
1 71
1 72
1 73
1 74
1 75
1 76
1 77
1 78
1 79
1 80
1 81
1 82
1 83
1 84
1 85
1 86
1 87
1 88
1 89
1 90
1 91
1 92
1 93
1 94
1 95
1 96
1 97
1 98
1 99
1 100
1 101
1 102
1 103
1 104
1 105
1 106
1 107
1 108
1 109
1 110
1 111
1 112
1 113
1 114
1 115
1 116
1 117
1 118
1 119
1 120
1 121
1 122
1 123
1 124
1 125
1 126
1 127
1 128
1 129
1 130
1 131
1 132
1 133
1 134
1 135
1 136
1 137
1 138
1 139
1 140
1 141
1 142
1 143
1 144
1 145
1 146
1 147
1 148
1 149
1 150
1 151
1 152
1 153
1 154
1 155
1 156
1 157
1 158
1 159
1 160
1 161
1 162
1 163
1 164
1 165
1 166
1 167
1 168
1 169
1 170
1 171
1 172
1 173
1 174
1 175
1 176
1 177
1 178
1 179
1 180
1 181
1 182
1 183
1 184
1 185
1 186
1 187
1 188
1 189
1 190
1 191
1 192
1 193
1 194
1 195
1 196
1 197
1 198
1 199
1 200
1 201
1 202
1 203
1 204
1 205
1 206
1 207
1 208
1 209
1 210
1 211
1 212
1 213
1 214
1 215
1 216
1 217
1 218
1 219
1 220
1 221
1 222
1 223
1 224
1 225
1 226
1 227
1 228
1 229
1 230
1 231
1 232
1 233
1 234
1 235
1 236
1 237
1 238
1 239
1 240
1 241
1 242
1 243
1 244
1 245
1 246
1 247
1 248
1 249
1 250
1 251
1 252
1 253
1 254
1 255
1 256
1 257
1 258
1 259
1 260
1 261
1 262
1 263
1 264
1 265
1 266
1 267
1 268
1 269
1 270
1 271
1 272
1 273
1 274
1 275
1 276
1 277
1 278
1 279
1 280
1 281
1 282
1 283
1 284
1 285
1 286

POINT_DATA 287
SCALARS id int 1
LOOKUP_TABLE default
1
2
3
4
5
6
7
8
9
10
11
12
13
14
15
16
17
18
19
21
22
23
24
25
26
27
28
29
30
31
32
33
34
35
36
37
38
39
41
42
44
45
46
47
48
49
50
51
52
53
54
55
56
57
59
60
61
62
63
64
65
66
67
68
69
70
71
72
73
74
76
77
78
79
80
81
82
83
84
85
86
87
88
89
90
91
92
93
94
95
96
97
98
99
100
101
102
103
104
105
106
107
108
109
110
111
112
113
114
115
116
117
118
119
120
121
122
123
124
125
126
127
128
129
130
131
132
133
134
135
136
137
138
140
141
142
143
144
146
147
148
149
150
151
153
154
155
156
157
158
159
160
162
164
165
166
167
168
169
170
171
172
173
174
175
176
177
178
179
181
182
183
184
185
186
187
188
189
190
191
192
193
194
195
196
197
198
199
200
201
202
203
204
205
206
207
208
209
210
211
212
213
214
215
216
217
218
219
220
221
222
223
224
225
226
227
228
229
230
231
232
233
234
235
236
237
239
240
241
242
243
244
246
247
248
249
250
251
252
253
254
255
256
257
258
259
260
261
262
263
264
265
266
267
268
269
270
271
272
273
274
275
276
277
278
279
280
281
282
283
284
285
286
287
288
289
290
291
292
293
294
295
296
297
298
299
300

SCALARS type int 1
LOOKUP_TABLE default
1
1
1
1
1
1
1
1
1
1
1
1
1
1
1
1
1
1
1
1
1
1
1
1
1
1
1
1
1
1
1
1
1
1
1
1
1
1
1
1
1
1
1
1
1
1
1
1
1
1
1
1
1
1
1
1
1
1
1
1
1
1
1
1
1
1
1
1
1
1
1
1
1
1
1
1
1
1
1
1
1
1
1
1
1
1
1
1
1
1
1
1
1
1
1
1
1
1
1
1
1
1
1
1
1
1
1
1
1
1
1
1
1
1
1
1
1
1
1
1
1
1
1
1
1
1
1
1
1
1
1
1
1
1
1
1
1
1
1
1
1
1
1
1
1
1
1
1
1
1
1
1
1
1
1
1
1
1
1
1
1
1
1
1
1
1
1
1
1
1
1
1
1
1
1
1
1
1
1
1
1
1
1
1
1
1
1
1
1
1
1
1
1
1
1
1
1
1
1
1
1
1
1
1
1
1
1
1
1
1
1
1
1
1
1
1
1
1
1
1
1
1
1
1
1
1
1
1
1
1
1
1
1
1
1
1
1
1
1
1
1
1
1
1
1
1
1
1
1
1
1
1
1
1
1
1
1
1
1
1
1
1
1
1
1
1
1
1
1
1
1
1
1
1
1
1
1
1
1
1
1
1
1
1
1
1
1

SCALARS radius float 1
LOOKUP_TABLE default
5e-05
5e-05
5e-05
5e-05
5e-05
5e-05
5e-05
5e-05
5e-05
5e-05
5e-05
5e-05
5e-05
5e-05
5e-05
5e-05
5e-05
5e-05
5e-05
5e-05
5e-05
5e-05
5e-05
5e-05
5e-05
5e-05
5e-05
5e-05
5e-05
5e-05
5e-05
5e-05
5e-05
5e-05
5e-05
5e-05
5e-05
5e-05
5e-05
5e-05
5e-05
5e-05
5e-05
5e-05
5e-05
5e-05
5e-05
5e-05
5e-05
5e-05
5e-05
5e-05
5e-05
5e-05
5e-05
5e-05
5e-05
5e-05
5e-05
5e-05
5e-05
5e-05
5e-05
5e-05
5e-05
5e-05
5e-05
5e-05
5e-05
5e-05
5e-05
5e-05
5e-05
5e-05
5e-05
5e-05
5e-05
5e-05
5e-05
5e-05
5e-05
5e-05
5e-05
5e-05
5e-05
5e-05
5e-05
5e-05
5e-05
5e-05
5e-05
5e-05
5e-05
5e-05
5e-05
5e-05
5e-05
5e-05
5e-05
5e-05
5e-05
5e-05
5e-05
5e-05
5e-05
5e-05
5e-05
5e-05
5e-05
5e-05
5e-05
5e-05
5e-05
5e-05
5e-05
5e-05
5e-05
5e-05
5e-05
5e-05
5e-05
5e-05
5e-05
5e-05
5e-05
5e-05
5e-05
5e-05
5e-05
5e-05
5e-05
5e-05
5e-05
5e-05
5e-05
5e-05
5e-05
5e-05
5e-05
5e-05
5e-05
5e-05
5e-05
5e-05
5e-05
5e-05
5e-05
5e-05
5e-05
5e-05
5e-05
5e-05
5e-05
5e-05
5e-05
5e-05
5e-05
5e-05
5e-05
5e-05
5e-05
5e-05
5e-05
5e-05
5e-05
5e-05
5e-05
5e-05
5e-05
5e-05
5e-05
5e-05
5e-05
5e-05
5e-05
5e-05
5e-05
5e-05
5e-05
5e-05
5e-05
5e-05
5e-05
5e-05
5e-05
5e-05
5e-05
5e-05
5e-05
5e-05
5e-05
5e-05
5e-05
5e-05
5e-05
5e-05
5e-05
5e-05
5e-05
5e-05
5e-05
5e-05
5e-05
5e-05
5e-05
5e-05
5e-05
5e-05
5e-05
5e-05
5e-05
5e-05
5e-05
5e-05
5e-05
5e-05
5e-05
5e-05
5e-05
5e-05
5e-05
5e-05
5e-05
5e-05
5e-05
5e-05
5e-05
5e-05
5e-05
5e-05
5e-05
5e-05
5e-05
5e-05
5e-05
5e-05
5e-05
5e-05
5e-05
5e-05
5e-05
5e-05
5e-05
5e-05
5e-05
5e-05
5e-05
5e-05
5e-05
5e-05
5e-05
5e-05
5e-05
5e-05
5e-05
5e-05
5e-05
5e-05
5e-05
5e-05
5e-05
5e-05
5e-05
5e-05
5e-05
5e-05
5e-05
5e-05
5e-05
5e-05
5e-05
5e-05
5e-05
5e-05
5e-05
5e-05
5e-05
5e-05
5e-05
5e-05
5e-05
5e-05
5e-05
5e-05
5e-05
5e-05
5e-05

SCALARS mass float 1
LOOKUP_TABLE default
1.46608e-10
1.46608e-10
1.46608e-10
1.46608e-10
1.46608e-10
1.46608e-10
1.46608e-10
1.46608e-10
1.46608e-10
1.46608e-10
1.46608e-10
1.46608e-10
1.46608e-10
1.46608e-10
1.46608e-10
1.46608e-10
1.46608e-10
1.46608e-10
1.46608e-10
1.46608e-10
1.46608e-10
1.46608e-10
1.46608e-10
1.46608e-10
1.46608e-10
1.46608e-10
1.46608e-10
1.46608e-10
1.46608e-10
1.46608e-10
1.46608e-10
1.46608e-10
1.46608e-10
1.46608e-10
1.46608e-10
1.46608e-10
1.46608e-10
1.46608e-10
1.46608e-10
1.46608e-10
1.46608e-10
1.46608e-10
1.46608e-10
1.46608e-10
1.46608e-10
1.46608e-10
1.46608e-10
1.46608e-10
1.46608e-10
1.46608e-10
1.46608e-10
1.46608e-10
1.46608e-10
1.46608e-10
1.46608e-10
1.46608e-10
1.46608e-10
1.46608e-10
1.46608e-10
1.46608e-10
1.46608e-10
1.46608e-10
1.46608e-10
1.46608e-10
1.46608e-10
1.46608e-10
1.46608e-10
1.46608e-10
1.46608e-10
1.46608e-10
1.46608e-10
1.46608e-10
1.46608e-10
1.46608e-10
1.46608e-10
1.46608e-10
1.46608e-10
1.46608e-10
1.46608e-10
1.46608e-10
1.46608e-10
1.46608e-10
1.46608e-10
1.46608e-10
1.46608e-10
1.46608e-10
1.46608e-10
1.46608e-10
1.46608e-10
1.46608e-10
1.46608e-10
1.46608e-10
1.46608e-10
1.46608e-10
1.46608e-10
1.46608e-10
1.46608e-10
1.46608e-10
1.46608e-10
1.46608e-10
1.46608e-10
1.46608e-10
1.46608e-10
1.46608e-10
1.46608e-10
1.46608e-10
1.46608e-10
1.46608e-10
1.46608e-10
1.46608e-10
1.46608e-10
1.46608e-10
1.46608e-10
1.46608e-10
1.46608e-10
1.46608e-10
1.46608e-10
1.46608e-10
1.46608e-10
1.46608e-10
1.46608e-10
1.46608e-10
1.46608e-10
1.46608e-10
1.46608e-10
1.46608e-10
1.46608e-10
1.46608e-10
1.46608e-10
1.46608e-10
1.46608e-10
1.46608e-10
1.46608e-10
1.46608e-10
1.46608e-10
1.46608e-10
1.46608e-10
1.46608e-10
1.46608e-10
1.46608e-10
1.46608e-10
1.46608e-10
1.46608e-10
1.46608e-10
1.46608e-10
1.46608e-10
1.46608e-10
1.46608e-10
1.46608e-10
1.46608e-10
1.46608e-10
1.46608e-10
1.46608e-10
1.46608e-10
1.46608e-10
1.46608e-10
1.46608e-10
1.46608e-10
1.46608e-10
1.46608e-10
1.46608e-10
1.46608e-10
1.46608e-10
1.46608e-10
1.46608e-10
1.46608e-10
1.46608e-10
1.46608e-10
1.46608e-10
1.46608e-10
1.46608e-10
1.46608e-10
1.46608e-10
1.46608e-10
1.46608e-10
1.46608e-10
1.46608e-10
1.46608e-10
1.46608e-10
1.46608e-10
1.46608e-10
1.46608e-10
1.46608e-10
1.46608e-10
1.46608e-10
1.46608e-10
1.46608e-10
1.46608e-10
1.46608e-10
1.46608e-10
1.46608e-10
1.46608e-10
1.46608e-10
1.46608e-10
1.46608e-10
1.46608e-10
1.46608e-10
1.46608e-10
1.46608e-10
1.46608e-10
1.46608e-10
1.46608e-10
1.46608e-10
1.46608e-10
1.46608e-10
1.46608e-10
1.46608e-10
1.46608e-10
1.46608e-10
1.46608e-10
1.46608e-10
1.46608e-10
1.46608e-10
1.46608e-10
1.46608e-10
1.46608e-10
1.46608e-10
1.46608e-10
1.46608e-10
1.46608e-10
1.46608e-10
1.46608e-10
1.46608e-10
1.46608e-10
1.46608e-10
1.46608e-10
1.46608e-10
1.46608e-10
1.46608e-10
1.46608e-10
1.46608e-10
1.46608e-10
1.46608e-10
1.46608e-10
1.46608e-10
1.46608e-10
1.46608e-10
1.46608e-10
1.46608e-10
1.46608e-10
1.46608e-10
1.46608e-10
1.46608e-10
1.46608e-10
1.46608e-10
1.46608e-10
1.46608e-10
1.46608e-10
1.46608e-10
1.46608e-10
1.46608e-10
1.46608e-10
1.46608e-10
1.46608e-10
1.46608e-10
1.46608e-10
1.46608e-10
1.46608e-10
1.46608e-10
1.46608e-10
1.46608e-10
1.46608e-10
1.46608e-10
1.46608e-10
1.46608e-10
1.46608e-10
1.46608e-10
1.46608e-10
1.46608e-10
1.46608e-10
1.46608e-10
1.46608e-10
1.46608e-10
1.46608e-10
1.46608e-10
1.46608e-10
1.46608e-10
1.46608e-10
1.46608e-10
1.46608e-10
1.46608e-10
1.46608e-10
1.46608e-10
1.46608e-10
1.46608e-10
1.46608e-10
1.46608e-10

VECTORS velocity float
0.00581301 -0.000381764 0.000145237
0.00585804 -0.000480923 0.000164037
0.00367356 0.000557271 -0.000492786
0.00565851 -0.000504696 0.000228473
0.005741 -0.000401916 0.00016095
0.00588247 3.75003e-05 -4.37263e-05
0.00602978 -0.000465033 0.000169984
0.00543536 -0.000240528 5.50511e-05
0.00616753 3.44112e-06 1.2265e-05
0.00596728 -0.000458007 0.000195088
0.00572647 -0.000489355 0.000167551
0.0059866 0.000289521 -0.000183103
0.00570509 -0.0003431 0.000120361
0.00632556 -0.000116487 0.000218273
0.00613365 -0.00048727 0.000211229
0.006312 -0.000150537 0.000257105
0.00591195 -0.000433979 0.000183486
0.00619703 -6.14342e-06 -6.75546e-06
0.00570278 -0.00031866 0.000103594
0.00577355 -0.000372869 0.000139586
0.00609365 -0.000461694 0.00017197
0.00618612 0.000206381 -0.000107314
0.0063026 -3.15985e-05 1.54509e-05
0.00597451 -0.000446228 0.000184612
0.00605605 1.00857e-05 -2.51933e-05
0.00619475 0.000172003 -5.28784e-05
0.00564115 -0.0005136 0.000194726
0.0054287 -0.000221374 4.16244e-05
0.00607684 -0.000631587 0.000255787
0.00605489 -0.00046824 0.000165159
0.00604047 -0.000504965 0.00022046
0.00592327 3.53408e-05 -4.17014e-05
0.00587968 -0.000406077 0.000160618
0.00601298 -0.000484212 0.000213136
0.00608131 2.40111e-05 1.13574e-05
0.00601695 -0.000474228 0.000205275
0.00613454 -0.000516206 0.000233138
0.00627085 -1.36729e-05 1.15739e-05
0.00582785 -0.000375158 0.000141189
0.00613864 -0.000457422 0.000177335
0.00607989 -0.000601363 0.000293189
0.00596687 3.00869e-05 -3.67181e-05
0.00617314 -3.42364e-07 -1.21159e-05
0.00585773 -0.00038247 0.000145276
0.00614962 -0.000452134 0.000229449
0.00607769 6.3435e-06 -2.4838e-05
0.00564144 -0.000500726 0.00019525
0.00563517 -0.000491314 0.000132422
0.0059109 0.000275543 -0.000182619
0.00622177 -1.4247e-05 -4.4406e-06
0.00570713 -0.00036698 0.000136879
0.00620455 -2.3169e-05 0.000125239
0.00602344 -0.000480657 0.000207649
0.00602627 1.93821e-05 -2.92747e-05
0.00599299 -0.000507316 0.000229149
0.00601557 -0.000516249 0.00023341
0.00575883 -0.000399899 0.000157964
0.00609136 -0.00055934 0.000269398
0.00567165 -0.000615687 -7.33761e-05
0.00630255 -3.00019e-05 1.19264e-05
0.0060147 0.000247653 -0.000152063
0.00593933 0.000300606 -0.000208407
0.00575673 -0.000520159 0.000103824
0.00565563 -0.000521084 0.000230948
0.0059381 -0.000435232 0.000179929
0.00622613 -2.88266e-06 1.04885e-05
0.00623976 -6.16649e-05 0.000162458
0.00567815 -0.000591944 -9.40018e-06
0.00597488 -0.000451212 0.000191306
0.00597283 -0.00065173 0.000342993
0.00617301 5.45937e-05 -7.38835e-05
0.005615 -0.000447002 -0.000243968
0.00554324 0.000356518 -0.000278875
0.00604389 0.000268796 -0.000164044
0.00563972 -0.000479167 3.17426e-05
0.00585015 0.000254434 -0.00017716
0.00617731 0.000141466 -3.58612e-05
0.00587808 0.000289826 -0.000196002
0.00612794 1.22154e-05 1.1779e-05
0.00549259 0.000243373 -0.000156463
0.00563277 -0.000484532 0.000166203
0.00599218 -0.000493769 0.000219468
0.0056205 -0.000442218 -0.000243267
0.00562601 -0.000458876 -0.000190095
0.00605831 -0.000493545 0.000210732
0.00608306 0.000216447 -0.000123332
0.00564691 -0.00045347 0.00026627
0.00561348 -0.000472606 -0.000144766
0.00561946 -0.000465197 6.19513e-05
0.00563571 -0.000499868 0.000185197
0.00567399 -0.000456575 0.000235929
0.00578295 0.000289559 -0.000193212
0.00561552 -0.000440611 -0.000242712
0.00595841 0.000273468 -0.000172654
0.00610285 -0.00050249 0.000225363
0.00587051 0.000304833 -0.000216962
4.08144e-15 1.05815e-14 8.2959e-14
2.95517e-22 -2.15809e-22 1.23839e-22
0.00620244 5.24165e-05 -5.15854e-05
0.00534719 0.000230099 -0.000364682
0.00625005 0.00014182 -5.6082e-05
0.00556484 0.000258411 -0.000159864
0.00600055 -0.00046478 0.000198931
0.0056417 -0.000475937 0.000112447
0.00562306 -0.00044311 0.000224865
0.00560361 -0.000436897 -0.000245441
0.00583425 0.000270034 -0.0001802
0.00617807 0.000191409 -7.18073e-05
0.00625983 0.000237001 -0.000130525
0.0060342 -0.000609777 0.000295106
0.00599719 -0.00044993 0.000189092
0.00563921 -0.000362748 0.000135332
0.00623859 -2.72939e-06 0.000102786
0.00608584 -0.000530128 0.000241073
0.00542668 -0.000263057 7.05348e-05
0.00544992 -0.000223085 4.26352e-05
0.00563068 -0.000449923 0.000223298
0.00534378 0.000315688 -0.000230473
0.00566975 -0.000461538 0.000206566
0.00554344 -0.000354609 0.000131878
0.00617288 -0.000445148 0.0001853
0.00572185 0.000308735 -0.000219626
0.00563787 -0.000506249 0.000214226
0.00563196 -0.000447437 -0.000214341
0.00616048 0.000175353 -6.30816e-05
0.0059471 0.000291312 -0.000193328
0.00562641 -0.000485365 -0.000243401
0.00582503 -0.00041945 0.000171052
0.00613274 -0.000529954 0.000242861
0.00544636 -0.000339324 0.000123394
0.00594354 0.000161116 -6.61085e-05
0.00538517 -0.000396472 -0.000233244
0.00587043 -0.000413457 0.000165728
0.00561833 -0.00046424 0.000226439
0.00528716 0.000293599 -0.000210594
0.00625727 0.000120777 -2.50508e-05
0.00561143 0.000279296 -0.000190648
0.00616749 0.000239584 -0.0001536
0.00592877 0.00028675 -0.000192804
0.00621474 0.000102165 -2.77436e-06
0.00634743 0.000101364 -1.30115e-05
0.00559089 -0.000457182 -0.000226073
0.00592729 0.000268712 -0.000177035
0.00623045 0.000233286 -0.000112314
0.00562452 0.000332292 -0.000244765
0.00625687 4.45177e-05 -7.14356e-05
0.00615766 6.09986e-05 -7.11064e-05
0.00616996 8.33666e-05 -7.41486e-06
-3.82401e-14 8.17112e-14 2.95887e-13
0.00622874 5.66476e-05 -3.01718e-05
0.00566594 -0.000524975 0.000231158
0.0061586 3.43574e-05 -9.55979e-05
0.00623356 3.66082e-05 -7.624e-05
0.00605798 0.000198942 -7.03757e-05
0.00601559 0.000339066 -7.46042e-05
0.00573136 -0.000413351 0.000169069
0.00594101 0.00028677 -0.000193281
0.00633237 0.000149055 -7.24809e-05
0.00614909 0.000294024 -7.24319e-05
0.00609067 0.0002022 -6.84267e-05
0.00576866 -0.000410488 0.00016615
0.00607114 0.00032963 -7.54188e-05
0.00575851 -0.000468365 0.000169033
0.0061676 7.34103e-05 -6.2566e-05
0.0060882 -0.00032933 -0.000187798
0.00617323 8.94737e-05 9.48879e-06
0.00610673 8.28913e-05 -7.66341e-05
0.00586752 0.000383355 -7.16423e-05
0.00604995 0.000317087 -7.27084e-05
0.00625081 5.48296e-05 -5.21749e-05
0.00584439 -0.000397156 0.000155667
0.00616871 0.000130175 -6.59479e-05
0.00563708 -0.000506756 0.000222652
0.00627029 0.000119748 -1.5864e-05
0.00630704 8.30575e-05 -5.18095e-05
0.00604617 -0.000492385 0.000217237
0.00560254 -0.000441809 -0.0002423
0.00614964 -0.000512958 0.000232269
0.00608265 -0.000304376 -0.000194025
0.00528126 -0.000374861 -0.00022771
0.00634239 0.000215894 -0.000114785
0.00597119 -0.000479713 0.000209993
0.00614465 0.000259562 -0.000161074
0.00590157 0.000312086 -7.18705e-05
0.00579586 -7.09336e-05 0.000168548
0.00608851 -0.000300723 -0.000201449
0.00613063 0.000196238 -9.02671e-05
0.00620122 5.04758e-05 -6.58118e-05
0.00631136 0.000161118 -5.83083e-05
0.00604584 0.000244809 -7.05448e-05
0.00624105 0.0001991 -0.000102377
0.00572498 -0.000429277 0.000229495
0.00612261 0.000189462 -8.72778e-05
0.00616078 0.000147833 -7.22767e-05
0.00616094 6.57911e-05 -6.5328e-05
0.00537958 0.000343461 -0.000256784
0.00618136 7.33787e-05 -3.8243e-05
0.005982 0.000250016 -0.00015615
0.00609936 -0.000548007 0.000216231
0.00568714 -0.000448508 0.000230335
0.00605048 0.000183787 -6.40494e-05
0.00597907 -0.000480501 0.000209462
0.00563874 -0.000455036 -0.000165517
0.0061004 -0.000312176 -0.000195113
0.00613376 6.23949e-05 -7.96121e-05
0.00585647 -0.000433259 0.000180002
0.00611927 0.000110544 -7.45367e-05
0.00561806 -0.000438984 -0.00024478
0.00620793 3.59475e-05 -7.13636e-05
0.00608768 -0.000332425 -0.000186031
0.00591599 -0.000455945 0.000194449
0.00617841 0.000106105 -2.31962e-05
0.00616171 0.000135871 -3.22753e-05
0.00569225 -0.000459856 0.000226365
0.00620928 0.000234321 -7.9292e-05
0.00609026 -0.000353153 -0.000177406
0.00608791 -0.000318715 -0.000191848
0.0063125 1.29915e-05 -1.83725e-05
0.00587679 0.000282839 -6.98904e-05
0.0060815 -0.000340316 -0.000182276
0.00566775 0.000355662 -0.000266193
0.00615177 0.000213798 -0.000116487
0.00560941 -0.00044669 -0.000244945
0.00589054 0.000293284 -6.7735e-05
0.00581939 0.000322445 -6.85339e-05
0.00597688 0.000305304 -7.20247e-05
0.00605688 -0.000335883 -0.000182889
0.00606567 -0.000325198 -0.000187392
0.00559772 -0.000241925 -0.000197557
0.00616908 0.000256804 -0.000167372
0.00609965 0.000220444 -0.00012571
0.00605945 -0.000331856 -0.000184681
0.00607055 -0.000343116 -0.000180714
0.00611663 0.00017013 -7.17979e-05
0.0061833 0.00030231 -7.25291e-05
0.00588645 -0.000254133 -0.000205786
0.00615553 8.65973e-05 -7.24399e-05
0.00562106 -0.000440624 0.000222504
0.00570541 -0.000220593 -0.000241933
0.00610181 -0.000334686 -0.00018565
0.00607272 -0.000335735 -0.000183864
0.0064354 0.000156989 -5.40865e-05
0.00616998 9.95009e-05 -7.0242e-05
0.00597739 0.000209247 -7.32529e-05
0.00606595 0.000142213 -7.26941e-05
0.00569394 -0.000102345 8.84925e-05
0.0060731 0.000252777 -0.00022303
0.00586008 0.00032725 -6.58651e-05
0.00604343 0.000246926 -7.08911e-05
0.00606889 -0.00032761 -0.000186905
0.0059566 0.000277398 -7.49438e-05
0.00608218 -0.000302361 -0.000202907
0.00623334 0.000231641 -0.000135459
0.00596393 0.000255307 -7.1249e-05
0.00639701 0.000253048 -4.24082e-05
0.00602114 0.000146722 -7.49281e-05
0.00565526 -0.00044811 0.000227616
0.00611265 0.000112046 -6.83867e-05
0.00557142 3.06047e-05 0.000519712
0.00593327 0.000490811 -8.07691e-05
0.00581811 -1.8142e-05 0.0005327
0.00602255 0.000200623 -7.01845e-05
0.00605921 0.000104776 -7.89665e-05
0.0065846 0.000397696 -8.09255e-05
0.00614877 0.000230878 -7.29309e-05
0.00607382 -0.000346439 -0.000179311
0.00607544 -0.000288776 -0.000202417
0.00601115 0.00026231 -0.000172919
0.00607251 -0.000334594 -0.000184182
0.00606388 -0.000327824 -0.000186564
0.00581527 0.000348963 -7.15168e-05
0.00589565 0.000287735 -7.03449e-05
0.00591994 0.000360711 -7.62501e-05
0.00598461 0.000245264 -7.05836e-05
0.00585448 0.000442028 -7.51668e-05
0.0061914 0.000229636 -0.000132267
0.00631136 0.000233799 -0.000132147
0.00611011 0.000238551 -7.24133e-05
0.00538506 0.00035399 -0.000268919
0.00610621 0.000200456 -7.14646e-05
0.00629447 0.000513428 -7.79274e-05
0.00609769 -0.000333409 -0.000185975
0.00600313 0.000350222 -7.30159e-05
0.00596814 -0.000477157 0.000208741
0.00606581 -0.000324356 -0.00018763
0.00570324 -0.000212034 -0.000210637
0.00570777 -0.000299015 -8.19438e-05

VECTORS force float
3.8863e-11 3.05364e-11 -2.64628e-11
1.89473e-10 -3.5035e-11 1.32415e-10
-2.01726e-10 3.0405e-11 3.37875e-10
3.43779e-11 -2.08263e-10 -2.20652e-10
-4.19536e-11 8.29306e-11 -5.09323e-11
1.18034e-10 -3.40551e-11 4.18991e-11
-9.47588e-12 1.73288e-10 -2.91832e-10
-1.06324e-11 3.61133e-11 -1.71039e-11
5.90482e-13 2.67603e-12 2.64442e-11
1.6053e-11 1.57048e-11 4.08456e-12
-1.00998e-10 -3.37393e-10 -3.81154e-11
-4.77032e-10 -4.05805e-10 2.21473e-10
5.88484e-11 -1.49305e-10 1.0126e-10
-1.01198e-10 3.12692e-10 -2.67618e-10
3.55833e-10 4.77355e-10 -3.09246e-10
3.05331e-10 3.67604e-10 -3.06907e-10
7.75924e-11 -6.33685e-11 4.28375e-11
3.83802e-10 1.95626e-10 -8.72318e-11
-7.68473e-11 -2.4913e-10 1.76387e-10
1.54589e-10 -1.68249e-11 7.53881e-12
4.09627e-11 2.39379e-10 -3.84617e-10
-1.5974e-10 -7.85431e-10 7.23296e-10
3.17356e-10 -1.94764e-10 4.72021e-11
-1.30447e-10 1.32714e-10 -1.17122e-10
5.15766e-10 -1.02012e-10 5.43084e-11
2.07601e-10 2.34849e-10 -1.54121e-11
2.93342e-10 4.83394e-11 -1.27994e-10
4.77887e-11 3.15055e-10 -2.0405e-10
-2.26207e-10 2.02946e-12 8.6884e-11
1.1465e-10 2.71609e-10 -4.47222e-10
-2.88794e-10 2.82031e-10 -2.8828e-10
-2.42884e-11 -5.79395e-11 -1.09633e-11
6.16688e-11 -9.01056e-11 6.38e-11
-1.98112e-10 4.65108e-10 -3.86779e-10
-1.37249e-11 -3.21159e-12 2.84585e-12
-5.50344e-12 5.27039e-11 -3.71949e-11
4.30253e-10 1.38489e-10 -1.13042e-10
-2.21861e-10 -4.62661e-11 3.76762e-11
-1.4894e-10 -1.53873e-10 1.02797e-10
-1.34541e-11 1.4476e-10 -2.11925e-10
-5.52932e-10 3.09891e-10 -1.12822e-10
-7.23847e-11 -4.5906e-11 -3.13959e-11
7.73252e-11 -1.6076e-10 4.34355e-11
-2.50268e-10 -1.91803e-10 1.47346e-10
-1.89165e-10 -1.24728e-10 -1.44996e-10
-9.21958e-11 -4.08961e-10 1.64473e-10
1.64591e-10 1.88533e-10 -4.00121e-10
1.55184e-10 3.72621e-10 -1.00761e-10
-5.81717e-10 -7.12919e-10 4.47645e-10
-2.96062e-10 8.57586e-11 -9.02339e-11
1.41151e-10 1.54526e-10 -1.13519e-10
-6.27933e-10 2.60879e-10 -2.74884e-10
-1.63061e-10 9.65158e-11 -5.48336e-11
1.72409e-10 2.45581e-11 -2.08668e-11
1.88777e-11 -1.23886e-10 7.74224e-11
-2.752e-10 4.64473e-11 -4.1302e-11
1.08037e-10 -1.0976e-10 5.34615e-11
-5.07591e-10 5.27507e-10 -5.14639e-10