# vtk DataFile Version 3.0
LIGGGHTS particles timestep 33000000
ASCII
DATASET POLYDATA
POINTS 271 float
0.204886 0.0153405 0.00873459
0.20579 0.0178352 0.00706131
0.199854 0.0177579 0.00699851
0.205844 0.0176714 0.00707645
0.204859 0.0152998 0.00882184
0.211219 0.0165617 0.00757373
0.204956 0.0156262 0.00846802
0.204844 0.0152751 0.00891755
0.211347 0.0170874 0.00733581
0.205434 0.0174451 0.00715331
0.205566 0.017656 0.00706806
0.198986 0.0157367 0.00836075
0.204788 0.015202 0.00920304
0.199651 0.0185007 0.00686958
0.205823 0.0175737 0.0070831
0.199746 0.0185328 0.00686284
0.205864 0.017769 0.0070698
0.204827 0.0152514 0.00901315
0.205394 0.0172751 0.00725082
0.205603 0.017413 0.00716089
0.199215 0.0162412 0.00788982
0.211434 0.0174601 0.00721897
0.205017 0.0158564 0.00828563
0.211304 0.0169011 0.00739424
0.19999 0.0179834 0.00695581
0.205749 0.0176399 0.00707461
0.204978 0.0157023 0.00840693
0.205492 0.0177222 0.00705663
0.205034 0.0159335 0.00822429
0.205478 0.0169052 0.00746413
0.21124 0.0166348 0.00750871
0.204938 0.0155512 0.00853153
0.205654 0.0171988 0.00727821
0.211412 0.0173669 0.00724818
0.205688 0.0182424 0.00702514
0.205748 0.0185363 0.00700501
0.211454 0.0175534 0.00718973
0.205885 0.0178667 0.00706314
0.321436 0.0173475 0.00552525
0.205769 0.0177376 0.00706796
0.211262 0.0167146 0.00745268
0.204911 0.0154009 0.00865889
0.205728 0.0184382 0.00701175
0.205079 0.0160865 0.00810445
0.205054 0.0160145 0.00816897
0.198917 0.0155979 0.0087288
0.21139 0.0172738 0.00727739
0.205574 0.0181128 0.00703003
0.198859 0.0154937 0.00900387
0.205708 0.0183403 0.00701845
0.211282 0.0168079 0.00742345
0.205585 0.0173269 0.00721032
0.20536 0.0168024 0.007542
0.205972 0.018339 0.00703044
0.205806 0.0174796 0.00711223
0.211474 0.0176469 0.00716047
0.199162 0.0163805 0.00780227
0.198836 0.0154594 0.00909514
0.205723 0.0179804 0.00704701
0.205522 0.0170708 0.00735801
0.205594 0.0182106 0.00702334
0.211326 0.0169943 0.00736502
0.1989 0.0155626 0.00882074
0.205628 0.0179489 0.00704519
0.205653 0.0185039 0.00700327
0.205783 0.0182744 0.00702693
0.199878 0.018307 0.00690066
0.205673 0.0172839 0.00722926
0.199632 0.0184041 0.00688669
0.19896 0.0156677 0.0085465
0.205831 0.0180314 0.00704794
0.199765 0.0186294 0.00684574
0.199011 0.0157706 0.00827003
0.199688 0.0182424 0.00691425
0.211369 0.0171806 0.0073066
0.199875 0.0178554 0.00697956
0.205905 0.0179648 0.00705644
0.205823 0.0184707 0.00701348
0.205243 0.0167004 0.00761935
0.205803 0.0183724 0.00702022
0.205661 0.0176874 0.00706698
0.199915 0.0180487 0.00694533
0.205763 0.0181766 0.00703362
0.205116 0.0162416 0.00798394
0.205545 0.0175593 0.00708208
0.205509 0.0173859 0.00718168
0.20514 0.0163166 0.00792222
0.19928 0.0164921 0.0077386
0.20564 0.0175889 0.00707367
0.199388 0.0169102 0.00748664
0.205878 0.0183065 0.0070287
0.198969 0.0157025 0.0084532
0.0643568 0.0187248 0.00531097
0.24257 0.0191927 0.00520306
0.199589 0.0177604 0.00700342
0.199949 0.0177888 0.0069903
0.199817 0.0175874 0.0070962
0.199798 0.0175023 0.00714494
0.205614 0.0183083 0.00701666
0.205786 0.0173944 0.00716042
0.205165 0.0163927 0.00786223
0.20549 0.0173007 0.00723073
0.199648 0.0180493 0.00694845
0.199249 0.016715 0.0076007
0.199613 0.0183075 0.00690378
0.205728 0.0175423 0.00708126
0.205553 0.0180151 0.00703669
0.205692 0.0186996 0.00698984
0.199455 0.0175527 0.00709539
0.205691 0.0173691 0.00718026
0.204995 0.0157796 0.00834579
0.204917 0.0154719 0.00858874
0.205447 0.0171305 0.0073289
0.199418 0.0173845 0.007197
0.205469 0.0172157 0.00727973
0.205767 0.0186342 0.0069983
0.205382 0.0168796 0.00748112
0.19997 0.0178868 0.00697293
0.205425 0.0170457 0.00737789
0.205587 0.0177535 0.00705849
0.199836 0.0176726 0.00704739
0.205682 0.017785 0.00706033
0.205452 0.0175343 0.00711188
0.205403 0.0169639 0.00743193
0.204807 0.0152264 0.0091078
0.19967 0.0185974 0.00685247
0.2051 0.0161629 0.00804339
0.205533 0.0179175 0.00704335
0.205622 0.0174991 0.00711375
0.199668 0.0181458 0.00693136
0.199399 0.0173004 0.0072478
0.19888 0.0155281 0.00891241
0.199514 0.0178247 0.00698931
0.199727 0.018436 0.00687997
0.199484 0.0169376 0.0074737
0.205265 0.0167778 0.00755986
0.0100679 0.0201683 0.00551526
0.199357 0.017133 0.00734875
0.199709 0.0187907 0.00681849
0.199474 0.0176373 0.00704546
0.199684 0.0173867 0.00720646
0.199628 0.0179527 0.00696555
0.0219312 0.0187687 0.00551176
0.199859 0.0182104 0.00691776
0.205898 0.018405 0.00702196
0.199494 0.0177275 0.00700652
0.199785 0.0187261 0.00682862
0.199345 0.016743 0.00758743
0.199684 0.0177909 0.00699315
0.205634 0.0184061 0.00700997
0.19941 0.0169938 0.00743625
0.199841 0.0185648 0.00685609
0.19976 0.0177327 0.00702139
0.205512 0.0178199 0.00705068
0.199664 0.0176968 0.00702246
0.20581 0.0179329 0.00705465
0.199703 0.0174715 0.00715709
0.193361 0.0171095 0.00725734
0.199527 0.017105 0.00737283
0.199453 0.0171611 0.00733544
0.199532 0.0174973 0.00713243
0.199802 0.0183712 0.00689037
0.205471 0.0176273 0.00708082
0.19974 0.0176422 0.00705926
0.205528 0.0174722 0.00713205
0.199336 0.0170494 0.00739914
0.205373 0.0171905 0.00729962
0.205499 0.0169856 0.00740726
0.205702 0.0178827 0.00705368
0.193635 0.0184209 0.00688113
0.205545 0.0171568 0.00730828
0.199646 0.0176114 0.00707147
0.205711 0.0174555 0.00713052
0.161461 0.0182058 0.00533758
0.199839 0.0181138 0.00693486
0.199237 0.0163249 0.0078394
0.193419 0.017384 0.00715228
0.19969 0.018694 0.00683541
0.199593 0.018211 0.00692088
0.199227 0.0166314 0.0076511
0.199723 0.017984 0.00695894
0.205181 0.0164719 0.00780333
0.198935 0.0156322 0.0086366
0.1998 0.0179208 0.00696915
0.199302 0.0165757 0.00768821
0.199432 0.0170774 0.00738585
0.199609 0.0178563 0.00698337
0.196317 0.0172639 0.00731718
0.205415 0.0173599 0.00720193
0.205351 0.017106 0.00734842
0.199743 0.0180806 0.00694184
0.205669 0.0181445 0.00703184
0.205286 0.0168576 0.0075035
0.193615 0.0183228 0.00688256
0.199704 0.0178875 0.00697614
0.205673 0.0186017 0.00699655
0.199023 0.0158153 0.00818139
0.205222 0.0166249 0.00768148
0.19982 0.0180173 0.00695196
0.259353 0.0171231 0.00722967
0.205743 0.0180784 0.00704033
0.199569 0.0176673 0.00703381
0.0736556 0.0177467 0.00781366
0.205565 0.0172416 0.0072594
0.199379 0.0172166 0.00729836
0.193557 0.0180378 0.006944
0.193379 0.0171988 0.00721611
0.199783 0.0182745 0.00690748
0.199185 0.016464 0.00775196
0.193341 0.0170205 0.00729832
0.199573 0.0181145 0.00693798
0.205607 0.0178512 0.00705184
0.19978 0.0178244 0.00698721
0.199141 0.0162969 0.00785266
0.1991 0.0161299 0.00795421
0.193172 0.0164167 0.0077893
0.193193 0.0164912 0.00772607
0.193256 0.01671 0.00753098
0.199437 0.0174686 0.00714619
0.193214 0.0165657 0.00766283
0.193319 0.0169317 0.00733915
0.199973 0.0183389 0.00689394
0.199206 0.0165478 0.00770149
0.193595 0.0182248 0.00688445
0.199505 0.0170212 0.0074233
0.205201 0.0165469 0.00774043
0.193459 0.0175706 0.00709281
0.193654 0.0185189 0.00687971
0.193299 0.0168591 0.0074048
0.199534 0.0179212 0.00697221
0.199628 0.0175261 0.00712033
0.199589 0.0173574 0.00722056
0.199494 0.0173288 0.00723429
0.193479 0.0176639 0.00706307
0.199292 0.0168822 0.00749992
0.19908 0.0160457 0.00800421
0.193277 0.0167852 0.00746865
0.199728 0.0188884 0.00682717
0.193399 0.0172909 0.00718289
0.19955 0.017582 0.00708264
0.199259 0.0164084 0.00778908
0.199271 0.0167986 0.00755031
0.199569 0.0172733 0.00727129
0.205308 0.0169387 0.00744901
0.199822 0.0184682 0.0068732
0.193519 0.0178508 0.00700356
0.199042 0.0158778 0.00810564
0.193499 0.0177573 0.00703333
0.199323 0.0166594 0.00763782
0.199314 0.0169658 0.00744953
0.199513 0.0174132 0.00718323
0.199897 0.0184037 0.00688355
0.193538 0.0179443 0.00697378
0.19315 0.0163422 0.00785254
0.199367 0.0168266 0.00753703
0.199722 0.0175569 0.00710816
0.199763 0.0181772 0.00692472
0.199609 0.0174416 0.00717031
0.199548 0.0171894 0.00732193
0.199196 0.0161573 0.00794047
0.199707 0.018339 0.00689714
0.199474 0.0172449 0.00728485
0.199553 0.0180179 0.00695508
0.199895 0.0179521 0.00696243
0.199063 0.0159614 0.00805528
0.193576 0.0181313 0.00691422
0.19912 0.0162169 0.00790884
0.205648 0.0180466 0.00703852
0.193235 0.0166396 0.00759895
0.193439 0.0174773 0.00712254
0.205329 0.0170215 0.00739743

VERTICES 271 542
1 0
1 1
1 2
1 3
1 4
1 5
1 6
1 7
1 8
1 9
1 10
1 11
1 12
1 13
1 14
1 15
1 16
1 17
1 18
1 19
1 20
1 21
1 22
1 23
1 24
1 25
1 26
1 27
1 28
1 29
1 30
1 31
1 32
1 33
1 34
1 35
1 36
1 37
1 38
1 39
1 40
1 41
1 42
1 43
1 44
1 45
1 46
1 47
1 48
1 49
1 50
1 51
1 52
1 53
1 54
1 55
1 56
1 57
1 58
1 59
1 60
1 61
1 62
1 63
1 64
1 65
1 66
1 67
1 68
1 69
1 70
1 71
1 72
1 73
1 74
1 75
1 76
1 77
1 78
1 79
1 80
1 81
1 82
1 83
1 84
1 85
1 86
1 87
1 88
1 89
1 90
1 91
1 92
1 93
1 94
1 95
1 96
1 97
1 98
1 99
1 100
1 101
1 102
1 103
1 104
1 105
1 106
1 107
1 108
1 109
1 110
1 111
1 112
1 113
1 114
1 115
1 116
1 117
1 118
1 119
1 120
1 121
1 122
1 123
1 124
1 125
1 126
1 127
1 128
1 129
1 130
1 131
1 132
1 133
1 134
1 135
1 136
1 137
1 138
1 139
1 140
1 141
1 142
1 143
1 144
1 145
1 146
1 147
1 148
1 149
1 150
1 151
1 152
1 153
1 154
1 155
1 156
1 157
1 158
1 159
1 160
1 161
1 162
1 163
1 164
1 165
1 166
1 167
1 168
1 169
1 170
1 171
1 172
1 173
1 174
1 175
1 176
1 177
1 178
1 179
1 180
1 181
1 182
1 183
1 184
1 185
1 186
1 187
1 188
1 189
1 190
1 191
1 192
1 193
1 194
1 195
1 196
1 197
1 198
1 199
1 200
1 201
1 202
1 203
1 204
1 205
1 206
1 207
1 208
1 209
1 210
1 211
1 212
1 213
1 214
1 215
1 216
1 217
1 218
1 219
1 220
1 221
1 222
1 223
1 224
1 225
1 226
1 227
1 228
1 229
1 230
1 231
1 232
1 233
1 234
1 235
1 236
1 237
1 238
1 239
1 240
1 241
1 242
1 243
1 244
1 245
1 246
1 247
1 248
1 249
1 250
1 251
1 252
1 253
1 254
1 255
1 256
1 257
1 258
1 259
1 260
1 261
1 262
1 263
1 264
1 265
1 266
1 267
1 268
1 269
1 270

POINT_DATA 271
SCALARS id int 1
LOOKUP_TABLE default
1
2
3
4
5
6
7
8
9
10
11
12
13
14
15
16
17
19
21
22
23
24
25
26
27
28
29
30
31
32
33
34
35
36
37
38
39
41
42
44
45
47
48
50
51
52
53
54
55
56
57
59
61
62
63
64
65
66
67
68
69
70
71
72
73
74
76
77
78
79
80
81
82
83
84
85
86
87
88
89
90
91
92
93
94
95
96
97
98
99
100
101
102
103
104
105
106
107
108
109
110
111
112
113
114
115
116
117
118
119
120
121
122
123
124
125
126
127
128
129
131
132
133
134
135
136
137
138
140
141
142
143
144
147
148
149
150
151
153
154
155
156
157
158
159
160
162
164
165
166
168
169
170
171
172
173
174
175
177
178
179
181
182
183
184
186
187
188
189
190
191
192
193
194
195
196
197
198
199
201
202
203
204
205
206
207
208
209
210
211
212
213
214
215
216
217
218
219
220
221
222
223
224
225
226
227
228
229
230
231
232
234
235
236
237
239
240
241
242
244
246
247
248
249
250
251
252
253
254
255
256
257
258
259
261
262
263
264
265
266
267
268
269
270
271
272
273
274
275
276
277
278
280
283
284
285
286
287
288
289
290
291
292
293
294
295
296
297
298
299
300

SCALARS type int 1
LOOKUP_TABLE default
1
1
1
1
1
1
1
1
1
1
1
1
1
1
1
1
1
1
1
1
1
1
1
1
1
1
1
1
1
1
1
1
1
1
1
1
1
1
1
1
1
1
1
1
1
1
1
1
1
1
1
1
1
1
1
1
1
1
1
1
1
1
1
1
1
1
1
1
1
1
1
1
1
1
1
1
1
1
1
1
1
1
1
1
1
1
1
1
1
1
1
1
1
1
1
1
1
1
1
1
1
1
1
1
1
1
1
1
1
1
1
1
1
1
1
1
1
1
1
1
1
1
1
1
1
1
1
1
1
1
1
1
1
1
1
1
1
1
1
1
1
1
1
1
1
1
1
1
1
1
1
1
1
1
1
1
1
1
1
1
1
1
1
1
1
1
1
1
1
1
1
1
1
1
1
1
1
1
1
1
1
1
1
1
1
1
1
1
1
1
1
1
1
1
1
1
1
1
1
1
1
1
1
1
1
1
1
1
1
1
1
1
1
1
1
1
1
1
1
1
1
1
1
1
1
1
1
1
1
1
1
1
1
1
1
1
1
1
1
1
1
1
1
1
1
1
1
1
1
1
1
1
1
1
1
1
1
1
1
1
1
1
1
1
1
1
1
1
1
1
1

SCALARS radius float 1
LOOKUP_TABLE default
5e-05
5e-05
5e-05
5e-05
5e-05
5e-05
5e-05
5e-05
5e-05
5e-05
5e-05
5e-05
5e-05
5e-05
5e-05
5e-05
5e-05
5e-05
5e-05
5e-05
5e-05
5e-05
5e-05
5e-05
5e-05
5e-05
5e-05
5e-05
5e-05
5e-05
5e-05
5e-05
5e-05
5e-05
5e-05
5e-05
5e-05
5e-05
5e-05
5e-05
5e-05
5e-05
5e-05
5e-05
5e-05
5e-05
5e-05
5e-05
5e-05
5e-05
5e-05
5e-05
5e-05
5e-05
5e-05
5e-05
5e-05
5e-05
5e-05
5e-05
5e-05
5e-05
5e-05
5e-05
5e-05
5e-05
5e-05
5e-05
5e-05
5e-05
5e-05
5e-05
5e-05
5e-05
5e-05
5e-05
5e-05
5e-05
5e-05
5e-05
5e-05
5e-05
5e-05
5e-05
5e-05
5e-05
5e-05
5e-05
5e-05
5e-05
5e-05
5e-05
5e-05
5e-05
5e-05
5e-05
5e-05
5e-05
5e-05
5e-05
5e-05
5e-05
5e-05
5e-05
5e-05
5e-05
5e-05
5e-05
5e-05
5e-05
5e-05
5e-05
5e-05
5e-05
5e-05
5e-05
5e-05
5e-05
5e-05
5e-05
5e-05
5e-05
5e-05
5e-05
5e-05
5e-05
5e-05
5e-05
5e-05
5e-05
5e-05
5e-05
5e-05
5e-05
5e-05
5e-05
5e-05
5e-05
5e-05
5e-05
5e-05
5e-05
5e-05
5e-05
5e-05
5e-05
5e-05
5e-05
5e-05
5e-05
5e-05
5e-05
5e-05
5e-05
5e-05
5e-05
5e-05
5e-05
5e-05
5e-05
5e-05
5e-05
5e-05
5e-05
5e-05
5e-05
5e-05
5e-05
5e-05
5e-05
5e-05
5e-05
5e-05
5e-05
5e-05
5e-05
5e-05
5e-05
5e-05
5e-05
5e-05
5e-05
5e-05
5e-05
5e-05
5e-05
5e-05
5e-05
5e-05
5e-05
5e-05
5e-05
5e-05
5e-05
5e-05
5e-05
5e-05
5e-05
5e-05
5e-05
5e-05
5e-05
5e-05
5e-05
5e-05
5e-05
5e-05
5e-05
5e-05
5e-05
5e-05
5e-05
5e-05
5e-05
5e-05
5e-05
5e-05
5e-05
5e-05
5e-05
5e-05
5e-05
5e-05
5e-05
5e-05
5e-05
5e-05
5e-05
5e-05
5e-05
5e-05
5e-05
5e-05
5e-05
5e-05
5e-05
5e-05
5e-05
5e-05
5e-05
5e-05
5e-05
5e-05
5e-05
5e-05
5e-05
5e-05
5e-05
5e-05
5e-05
5e-05
5e-05
5e-05
5e-05
5e-05
5e-05
5e-05
5e-05
5e-05
5e-05
5e-05
5e-05
5e-05
5e-05
5e-05
5e-05
5e-05
5e-05
5e-05
5e-05
5e-05

SCALARS mass float 1
LOOKUP_TABLE default
1.46608e-10
1.46608e-10
1.46608e-10
1.46608e-10
1.46608e-10
1.46608e-10
1.46608e-10
1.46608e-10
1.46608e-10
1.46608e-10
1.46608e-10
1.46608e-10
1.46608e-10
1.46608e-10
1.46608e-10
1.46608e-10
1.46608e-10
1.46608e-10
1.46608e-10
1.46608e-10
1.46608e-10
1.46608e-10
1.46608e-10
1.46608e-10
1.46608e-10
1.46608e-10
1.46608e-10
1.46608e-10
1.46608e-10
1.46608e-10
1.46608e-10
1.46608e-10
1.46608e-10
1.46608e-10
1.46608e-10
1.46608e-10
1.46608e-10
1.46608e-10
1.46608e-10
1.46608e-10
1.46608e-10
1.46608e-10
1.46608e-10
1.46608e-10
1.46608e-10
1.46608e-10
1.46608e-10
1.46608e-10
1.46608e-10
1.46608e-10
1.46608e-10
1.46608e-10
1.46608e-10
1.46608e-10
1.46608e-10
1.46608e-10
1.46608e-10
1.46608e-10
1.46608e-10
1.46608e-10
1.46608e-10
1.46608e-10
1.46608e-10
1.46608e-10
1.46608e-10
1.46608e-10
1.46608e-10
1.46608e-10
1.46608e-10
1.46608e-10
1.46608e-10
1.46608e-10
1.46608e-10
1.46608e-10
1.46608e-10
1.46608e-10
1.46608e-10
1.46608e-10
1.46608e-10
1.46608e-10
1.46608e-10
1.46608e-10
1.46608e-10
1.46608e-10
1.46608e-10
1.46608e-10
1.46608e-10
1.46608e-10
1.46608e-10
1.46608e-10
1.46608e-10
1.46608e-10
1.46608e-10
1.46608e-10
1.46608e-10
1.46608e-10
1.46608e-10
1.46608e-10
1.46608e-10
1.46608e-10
1.46608e-10
1.46608e-10
1.46608e-10
1.46608e-10
1.46608e-10
1.46608e-10
1.46608e-10
1.46608e-10
1.46608e-10
1.46608e-10
1.46608e-10
1.46608e-10
1.46608e-10
1.46608e-10
1.46608e-10
1.46608e-10
1.46608e-10
1.46608e-10
1.46608e-10
1.46608e-10
1.46608e-10
1.46608e-10
1.46608e-10
1.46608e-10
1.46608e-10
1.46608e-10
1.46608e-10
1.46608e-10
1.46608e-10
1.46608e-10
1.46608e-10
1.46608e-10
1.46608e-10
1.46608e-10
1.46608e-10
1.46608e-10
1.46608e-10
1.46608e-10
1.46608e-10
1.46608e-10
1.46608e-10
1.46608e-10
1.46608e-10
1.46608e-10
1.46608e-10
1.46608e-10
1.46608e-10
1.46608e-10
1.46608e-10
1.46608e-10
1.46608e-10
1.46608e-10
1.46608e-10
1.46608e-10
1.46608e-10
1.46608e-10
1.46608e-10
1.46608e-10
1.46608e-10
1.46608e-10
1.46608e-10
1.46608e-10
1.46608e-10
1.46608e-10
1.46608e-10
1.46608e-10
1.46608e-10
1.46608e-10
1.46608e-10
1.46608e-10
1.46608e-10
1.46608e-10
1.46608e-10
1.46608e-10
1.46608e-10
1.46608e-10
1.46608e-10
1.46608e-10
1.46608e-10
1.46608e-10
1.46608e-10
1.46608e-10
1.46608e-10
1.46608e-10
1.46608e-10
1.46608e-10
1.46608e-10
1.46608e-10
1.46608e-10
1.46608e-10
1.46608e-10
1.46608e-10
1.46608e-10
1.46608e-10
1.46608e-10
1.46608e-10
1.46608e-10
1.46608e-10
1.46608e-10
1.46608e-10
1.46608e-10
1.46608e-10
1.46608e-10
1.46608e-10
1.46608e-10
1.46608e-10
1.46608e-10
1.46608e-10
1.46608e-10
1.46608e-10
1.46608e-10
1.46608e-10
1.46608e-10
1.46608e-10
1.46608e-10
1.46608e-10
1.46608e-10
1.46608e-10
1.46608e-10
1.46608e-10
1.46608e-10
1.46608e-10
1.46608e-10
1.46608e-10
1.46608e-10
1.46608e-10
1.46608e-10
1.46608e-10
1.46608e-10
1.46608e-10
1.46608e-10
1.46608e-10
1.46608e-10
1.46608e-10
1.46608e-10
1.46608e-10
1.46608e-10
1.46608e-10
1.46608e-10
1.46608e-10
1.46608e-10
1.46608e-10
1.46608e-10
1.46608e-10
1.46608e-10
1.46608e-10
1.46608e-10
1.46608e-10
1.46608e-10
1.46608e-10
1.46608e-10
1.46608e-10
1.46608e-10
1.46608e-10
1.46608e-10
1.46608e-10
1.46608e-10
1.46608e-10
1.46608e-10
1.46608e-10
1.46608e-10
1.46608e-10
1.46608e-10
1.46608e-10
1.46608e-10
1.46608e-10
1.46608e-10
1.46608e-10
1.46608e-10
1.46608e-10
1.46608e-10

VECTORS velocity float
0.00551489 -0.00038585 0.00046506
0.00565988 -0.00069154 0.000308942
0.00569956 0.000380773 0.000122813
0.00562573 -0.000732235 0.000312078
0.0055336 -0.000392163 0.000466538
0.00628702 0.000358493 0.000439529
0.00543516 -0.000361974 0.000469878
0.00555286 -0.000392845 0.000467232
0.00625678 -7.07245e-05 -0.00018216
0.00558809 -0.000702578 8.89959e-05
0.00563838 -0.000669322 0.00031895
0.00559804 -0.000195097 -0.000300669
0.00563703 -0.000398466 0.000474082
0.00567665 0.000382489 -0.000137352
0.00560752 -0.000730504 0.000312175
0.00568673 0.000349424 -0.000133621
0.0056214 -0.000732211 0.000309926
0.00557563 -0.000394828 0.00046806
0.0060756 -0.000804656 8.89473e-05
0.00557929 -0.000743843 0.000117786
0.00564912 0.000333159 2.39204e-05
0.00619496 -5.85951e-05 -0.000183618
0.00542219 -0.000347422 0.000478239
0.00628701 -7.69261e-05 -0.000180286
0.00573527 0.00023879 -0.000111588
0.00563385 -0.000699078 0.000310904
0.00543469 -0.000355019 0.00047597
0.00567067 -0.000672114 0.000305232
0.00542047 -0.000351376 0.000472704
0.0059741 -0.00047647 0.000584043
0.00632539 0.000354905 0.000447797
0.00541322 -0.000348883 0.000480851
0.00580006 -0.000816352 0.00011367
0.00621039 -6.16369e-05 -0.000183256
0.00544897 -0.00060031 0.00029219
0.00525722 -0.000570364 0.000280849
0.00566081 5.53846e-05 -0.000201149
0.00564133 -0.000630639 0.000302995
4.57898e-16 2.25487e-15 8.46361e-14
0.00565109 -0.000700407 0.000309285
0.00629347 -7.87104e-05 -0.000181012
0.00547953 -0.000367861 0.000469678
0.00545272 -0.000607547 0.000292745
0.00566349 -0.00037815 0.000542155
0.00543633 -0.000371506 0.000454806
0.00588444 -0.000240258 -0.000250864
0.00622587 -6.46627e-05 -0.000182738
0.00554582 -0.00065692 0.000300812
0.00637067 -0.000290047 -0.000179783
0.00548151 -0.000609704 0.000294217
0.00630565 -8.14774e-05 -0.000179821
0.00551652 -0.000777086 0.000108388
0.0060851 -0.000437924 0.000569531
0.00547985 -0.000403978 0.000278192
0.0055942 -0.000821866 3.36531e-05
0.00568882 4.94157e-05 -0.000200199
0.00615015 0.000223711 0.000112974
0.00635975 -0.000289231 -0.000181146
0.00562403 -0.000589787 0.000299158
0.00605035 -0.000830193 0.000105798
0.00543721 -0.000632076 0.00029409
0.00627206 -7.34694e-05 -0.000181741
0.00608214 -0.000255783 -0.000224584
0.00567805 -0.000670393 0.000307526
0.0051643 -0.000544659 0.000274699
0.00548324 -0.000616625 0.00029479
0.00569842 0.000323894 -0.000125763
0.00553148 -0.000760173 9.69909e-05
0.00567659 0.000378323 -0.000134093
0.00567195 -0.000213812 -0.000287994
0.00554672 -0.000434083 0.000283572
0.00572282 0.000354658 -0.000150332
0.00557024 -0.000198522 -0.000310349
0.00579365 0.000324271 -0.000126943
0.00624136 -6.77701e-05 -0.000182223
0.00569886 0.000321243 -0.000112457
0.00555069 -0.000578032 0.00029487
0.00542532 -0.00045907 0.00028003
0.00599275 -0.000435237 0.00056418
0.00546454 -0.000579106 0.000291154
0.00564846 -0.000669053 0.000313235
0.00576275 0.000281974 -0.0001184
0.00548902 -0.000519028 0.000287502
0.00581475 -0.000433636 0.000527077
0.00559925 -0.000710012 6.76717e-05
0.00557052 -0.00072356 7.55622e-05
0.00582752 -0.000431243 0.000535538
0.0061537 0.000206665 0.000122675
0.00561969 -0.000672965 0.000301007
0.00621073 0.000203509 0.000126681
0.00550087 -0.000519557 0.000288077
0.00563111 -0.000201258 -0.000291157
4.38736e-15 1.04682e-14 8.29577e-14
-9.01756e-23 4.86658e-23 1.23839e-22
0.00567296 0.000399914 5.58893e-05
0.0056933 0.000333542 -0.00012416
0.00570515 0.000373935 0.000138263
0.00568714 0.000368018 0.000140847
0.00544439 -0.000633452 0.000294515
0.00556992 -0.000778071 0.00010243
0.00585939 -0.000428983 0.000547804
0.00594367 -0.00063909 5.46545e-06
0.00574471 0.000308006 -0.0001263
0.00618373 0.000209683 0.000120991
0.00580808 0.000344829 -0.000130144
0.0056019 -0.000692887 0.000303257
0.00566301 -0.000682798 0.000307772
0.00534139 -0.000569115 0.000284403
0.00585774 0.00030046 7.93207e-05
0.00556738 -0.000766281 9.97301e-05
0.00543255 -0.000352294 0.000477046
0.00543879 -0.000357613 0.000478622
0.00604852 -0.000825137 0.000104342
0.00579828 0.000334923 3.26288e-05
0.00609302 -0.00078617 7.86319e-05
0.00531922 -0.000572627 0.000283881
0.00603716 -0.000489028 0.000603251
0.00569947 0.000269151 -0.000116576
0.00601363 -0.00080457 9.03248e-05
0.00566603 -0.000678734 0.000309044
0.00570192 0.000381771 0.0001329
0.00566828 -0.00066723 0.000308236
0.00557818 -0.000675074 0.000158707
0.00600268 -0.000615276 0.000324852
0.00560285 -0.000395723 0.000470335
0.00571435 0.000381272 -0.000142737
0.00575918 -0.000415444 0.000533256
0.00566809 -0.000679003 0.000302439
0.00558913 -0.000690246 0.000225873
0.00574551 0.000312116 -0.000123926
0.00570351 0.000270539 6.31828e-05
0.00626981 -0.00027727 -0.000197571
0.00571095 0.000427659 -0.000147945
0.00546661 0.000137759 -9.15439e-05
0.00621229 0.0001838 0.000138808
0.00607421 -0.000503452 0.000501962
8.38545e-15 1.24181e-15 -8.48743e-14
0.0062257 0.000168975 0.000145515
0.00576629 0.000426474 0.000257741
0.00593554 0.000299866 0.000201469
0.00567725 0.000318681 3.79182e-05
0.00574343 0.000316924 -0.000117798
-3.84286e-14 8.16422e-14 2.95882e-13
0.00574385 0.000310766 -0.000124239
0.00541477 -0.000446546 0.000278594
0.0059378 0.000231706 -0.000210059
0.00576066 0.000349987 -0.000135161
0.00618884 0.000204497 0.000125594
0.00571955 0.000348505 -0.00014769
0.0054579 -0.000640001 0.00029562
0.00621071 0.000188354 0.000136467
0.00569241 0.000321673 -0.000127184
0.00569379 0.000387289 0.000103162
0.00567005 -0.000675976 0.000303848
0.0056603 0.000378855 0.000156276
0.00557972 -0.000684101 0.000304602
0.00567321 0.000382058 0.000131161
0.00591991 2.4468e-05 0.00027457
0.00628869 0.000225881 0.000116486
0.00624048 0.000213651 0.000120783
0.0057502 0.000375399 5.0138e-05
0.00508568 -0.000297891 -9.06181e-06
0.00563471 -0.000667525 0.000256061
0.0056684 0.000391212 0.000126281
0.00557369 -0.000706297 6.83781e-05
0.00622662 0.000195959 0.000132663
0.00607471 -0.000798303 8.93056e-05
0.00600048 -0.000809888 9.74959e-05
0.00568151 -0.000664343 0.000307324
0.00559121 -4.06229e-05 6.81421e-05
0.00610137 -0.00077808 7.37154e-05
0.00566224 0.000372752 0.000139446
0.00556936 -0.00076489 9.68982e-05
1.58736e-15 -1.10057e-14 8.66683e-14
0.00577445 0.00030373 -0.000122078
0.0058811 0.000284172 6.49798e-05
0.00569169 -9.79482e-05 -8.77811e-05
0.00573167 0.000373163 -0.000142865
0.00577673 0.000345163 -0.000130573
0.00617485 0.000212279 0.000119532
0.00575184 0.000323555 -0.000120497
0.00589825 -0.000422132 0.000561866
0.00574372 -0.00022023 -0.000268901
0.00571403 0.000336618 -8.11346e-05
0.00616366 0.000205804 0.000123602
0.00622117 0.000190628 0.000135044
0.0057309 0.000366747 -1.22041e-05
0.0067839 0.00209974 -0.00132435
0.00583196 -0.000755944 7.75874e-05
0.00604426 -0.000793156 7.56453e-05
0.00573861 0.000315775 -0.000127675
0.0054864 -0.000489064 0.00028516
0.00606408 -0.000624787 0.000325615
0.00555855 -2.75183e-05 7.378e-05
0.00573296 0.000347863 -3.12497e-05
0.00530765 -0.000602259 0.000283732
0.00581632 0.000113367 -0.000119058
0.00595829 -0.000434581 0.000559647
0.00574027 0.000316405 -0.000126249
0.00602539 -0.00121418 0.000431818
0.00554993 -0.000456362 0.000285652
0.00585123 0.000340936 0.000102991
-5.4864e-06 -0.0205689 0.00711238
0.0058667 -0.000710029 4.90173e-05
0.0061874 0.000127942 0.000156555
0.0056638 -6.04872e-05 -9.39503e-05
0.00574078 4.5296e-05 0.000246434
0.00509803 -0.000328773 -4.05076e-06
0.00616742 0.0002179 0.000115485
0.0061143 -1.55215e-05 0.000292325
0.00573365 0.000260354 -0.000115093
0.00566989 -0.000667885 0.000306765
0.00571408 0.000365252 5.77771e-05
0.0061382 0.000230465 0.000108509
0.00588209 0.000284371 5.78806e-05
0.00605428 -0.000167753 0.000301478
0.00607798 -0.000122662 0.000254952
0.00619992 -0.000335599 6.24171e-07
0.00581983 0.00033358 3.73336e-05
0.00614048 -9.98376e-05 0.000249109
0.00632519 -5.13528e-05 0.000334757
0.00569362 0.000347165 -0.000129372
0.00616598 0.000216687 0.000118665
0.00576977 -6.47821e-05 -9.60108e-05
0.00622206 0.000207142 0.00012485
0.0059243 -0.000432236 0.000554361
0.00580225 -0.000139239 -7.18268e-05
0.00559979 -3.9366e-05 7.04798e-05
0.00632301 -0.000178023 0.000240069
0.0057272 0.00035954 -0.000118228
0.00564945 0.000374238 0.000130963
0.005711 0.000307273 4.02021e-05
0.00571347 0.000313774 3.8428e-05
0.00583153 -0.000150299 -6.83683e-05
0.00620999 0.000210495 0.000122669
0.00568858 0.000325963 3.13325e-05
0.00621965 -0.000300552 7.82884e-05
0.00575917 0.000420378 0.000262634
0.00572096 -9.47248e-05 -9.84069e-05
0.00579005 0.000382106 0.000121577
0.00617657 0.000223511 0.000114329
0.00619175 0.000210407 0.000122818
0.00568877 0.000292873 5.0851e-05
0.00603498 -0.000772549 8.92566e-05
0.00567151 0.0003262 -0.00012615
0.00571046 -0.00010341 -7.94727e-05
0.00571987 0.000321273 3.27423e-05
0.00581701 -0.000141915 -7.06464e-05
0.00617553 0.000205549 0.000123692
0.0062179 0.000204485 0.000125196
0.00577307 0.000402828 -7.99257e-06
0.00568041 0.000331281 -0.000126642
0.00564823 -7.10777e-05 -9.17254e-05
0.00600651 -0.000195123 0.000322535
0.00620236 0.00020315 0.000126677
0.00565458 0.000380353 0.000131158
0.00578218 0.000310641 -0.000124117
0.00567816 0.000343858 9.51141e-05
0.00623322 0.000684907 -0.00016738
0.00588691 0.000303391 5.36488e-05
0.00549965 0.000151078 -9.32167e-05
0.0059838 0.000330596 3.75106e-05
0.00573697 0.000311479 -0.000124163
0.00572142 0.000294504 -0.000117829
0.00566882 0.000341992 4.65028e-05
0.00570474 -6.55441e-05 -8.97609e-05
0.00616159 0.000236904 0.00011152
0.00561386 -0.000596692 0.000299315
0.00617047 -0.000293374 2.50486e-05
0.00576847 -0.000124274 -7.47345e-05
0.00602679 -0.000820883 3.92152e-06

VECTORS force float
-2.83713e-11 -4.52856e-11 -3.25506e-12
1.31399e-10 -1.02378e-10 1.13014e-11
-2.31069e-11 -8.58515e-11 9.38788e-11
-6.74491e-11 -3.85435e-12 1.63635e-11
-5.04454e-12 -7.75919e-12 1.07352e-12
-1.54716e-12 1.0803e-12 1.61666e-12
-6.53396e-12 2.34731e-12 -3.6398e-12
2.81499e-11 1.08275e-12 -8.56211e-12
-1.05997e-12 6.94743e-13 -3.82143e-12
4.5472e-11 -2.01017e-10 -4.74223e-11
8.4765e-11 9.80661e-11 -6.62584e-13
-1.24366e-12 3.78118e-11 -1.01995e-10
-8.55493e-12 1.39102e-11 -4.98662e-11
-7.8092e-11 7.98908e-11 8.37401e-13
1.06457e-10 -4.66825e-11 -3.71566e-11
3.99028e-11 1.05927e-10 2.85738e-11
1.78743e-10 -2.48951e-11 1.65401e-11
2.94633e-11 5.95726e-12 -2.05109e-11
-5.53175e-11 -1.78276e-10 1.1164e-10
4.22493e-11 -5.91466e-11 -1.19932e-11
-5.26059e-11 2.3069e-10 -1.54885e-10
-3.0618e-13 -1.28718e-12 -2.84615e-13
1.07588e-11 2.46276e-11 -2.79961e-11
-2.05265e-12 -1.57632e-11 9.23444e-12
8.1775e-11 1.94884e-10 -2.94373e-11
2.16138e-10 2.998e-12 -7.17088e-12
1.11944e-12 2.39834e-11 -9.44117e-12
-3.63716e-11 -1.3079e-10 -2.03322e-11
3.48187e-11 1.37916e-11 -2.71043e-11
4.37217e-11 -8.42216e-11 1.03086e-10
1.08572e-11 -9.22188e-12 -3.22392e-12
2.20686e-12 -2.95882e-11 8.95554e-12
1.85014e-11 5.87917e-11 -3.46239e-11
-1.11986e-12 -1.79339e-12 1.14309e-12
2.8655e-10 1.80729e-10 6.03252e-12
1.716e-10 -6.11366e-10 5.258e-11
1.0058e-12 -2.31238e-12 9.93564e-14
2.82942e-11 1.66344e-11 6.64474e-13
-8.74679e-24 4.12944e-24 0.0
1.77171e-11 7.66691e-11 -1.35919e-11
-2.7553e-11 -1.29061e-11 1.77145e-11
-9.49508e-12 -5.04261e-11 1.92623e-11
6.00459e-11 3.41772e-10 -2.32937e-11
2.2038e-10 -6.85646e-11 2.6181e-11
7.48459e-11 -3.05046e-11 -1.4231e-11
-1.11468e-10 -4.29844e-11 7.57278e-11
-6.49035e-13 -2.1034e-12 2.60983e-12
5.60411e-11 -6.18673e-11 1.18524e-11
-6.04267e-11 -3.12704e-11 8.41532e-11
3.75677e-10 2.40987e-10 2.27798e-12
5.76637e-11 6.95273e-13 -3.86462e-11
-6.80099e-11 -2.17821e-11 3.78695e-11
9.70755e-11 1.90403e-11 -1.90087e-12
1.82537e-10 -1.49897e-10 1.9662e-11
-1.26712e-10 5.89222e-11 -1.25832e-10
8.54343e-13 -2.20458e-12 1.26995e-12
7.43452e-11 1.07696e-10 -5.65546e-11
-1.42143e-11 -3.86595e-11 9.55198e-11
1.86045e-10 3.94491e-10 -2.77547e-11
4.09387e-12 7.49237e-11 -4.18458e-11
2.81652e-10 -5.59821e-11 1.27616e-11
-3.66961e-12 -3.11841e-12 1.29947e-11
2.12618e-10 -7.15581e-11 1.67535e-10
1.06538e-10 4.97633e-11 -1.19321e-11
-6.62464e-10 -1.04283e-10 -1.43172e-11
3.11299e-10 -2.659e-10 3.34054e-11
-5.66943e-11 -2.35923e-11 -6.0289e-12
1.58907e-10 -1.91712e-13 -2.00718e-11
1.01219e-10 1.21105e-10 -4.61535e-11
3.19579e-11 6.40012e-11 -7.36573e-12
1.90511e-10 4.64563e-11 7.67358e-12
-2.11899e-10 -1.47827e-11 1.60774e-10
-3.96639e-11 -4.34087e-11 -1.44346e-10
2.38477e-11 4.64833e-11 -1.00189e-11
1.46042e-12 -1.46172e-12 -2.54482e-12
5.61632e-11 8.24039e-11 1.0233e-10
-1.37105e-10 4.61398e-11 -8.50538e-12
2.52518e-10 9.63048e-11 4.11059e-12
6.53173e-12 9.95344e-13 -9.47647e-11
2.71395e-10 1.30767e-10 1.79109e-12
2.06582e-10 1.0463e-10 3.80056e-12
-4.4832e-11 -3.69722e-11 1.84003e-11
-1.50478e-10 -3.22761e-10 1.97647e-11
7.01664e-11 6.47026e-11 1.77112e-11
-1.65134e-10 -1.24554e-11 -7.46172e-11
4.28024e-11 -1.25072e-10 -5.60378e-12
-9.62279e-11 5.32108e-11 -2.95485e-11
2.38502e-10 4.3198e-11 -1.44334e-11
-1.13091e-11 -3.03463e-11 2.66829e-12
3.11849e-11 -7.52975e-11 3.9832e-11
1.00622e-10 -1.17929e-10 1.45199e-11
4.76737e-11 9.4475e-11 -4.3392e-11
-3.62925e-21 1.25261e-21 2.5229e-23
-3.23117e-27 0.0 0.0
-7.92611e-10 -1.16844e-10 -2.43945e-10
5.31668e-12 -1.20623e-10 8.0567e-11
2.55957e-11 -2.98806e-11 1.17652e-11
1.05633e-10 2.05293e-11 -3.6755e-12
1.60469e-10 -2.04893e-11 1.09335e-11
-8.44837e-12 4.44944e-11 -1.91406e-10
-1.02564e-10 4.74813e-11 -7.20606e-12
-3.79275e-11 -1.13506e-10 4.62567e-11
1.44676e-10 -2.44487e-10 -2.08126e-11
8.84653e-11 -3.81412e-11 -2.11839e-12
3.89522e-11 7.15417e-11 -8.16376e-12
-1.01042e-10 -9.32629e-11 -2.74885e-11
-1.09483e-10 -5.03544e-11 -2.52001e-11
-8.03795e-11 -4.2985e-10 2.28736e-11
-2.25266e-10 -1.42304e-10 1.5028e-10