# vtk DataFile Version 3.0
LIGGGHTS particles timestep 29800000
ASCII
DATASET POLYDATA
POINTS 271 float
0.186238 0.0155129 0.00871528
0.187132 0.0178929 0.00697838
0.181181 0.0177044 0.0071188
0.18717 0.0176455 0.00705521
0.186219 0.0154637 0.00880026
0.192632 0.0168208 0.00742939
0.186315 0.0156937 0.00836717
0.186199 0.0154145 0.008885
0.19275 0.0173438 0.00717813
0.18679 0.0175348 0.00712534
0.186922 0.0177342 0.00701207
0.180301 0.0156834 0.00845989
0.186141 0.0152674 0.0091388
0.180974 0.0184469 0.00702536
0.187152 0.0175592 0.00710332
0.181078 0.0184901 0.00701349
0.187188 0.0177321 0.00700693
0.186183 0.0153732 0.00897451
0.186753 0.0173633 0.00722108
0.186961 0.0175028 0.00713901
0.180547 0.0162259 0.00799627
0.192829 0.0177175 0.0070591
0.186374 0.0158537 0.00812191
0.19271 0.0171573 0.00723759
0.181295 0.0178328 0.00709431
0.187094 0.0177033 0.00702529
0.186335 0.0157385 0.00827987
0.186846 0.0177927 0.00698257
0.186396 0.0159326 0.00806444
0.186844 0.016989 0.00742579
0.19265 0.0168958 0.00736582
0.186299 0.015652 0.00845659
0.186998 0.0172733 0.00726501
0.192809 0.0176241 0.00708886
0.187039 0.0183157 0.00693684
0.187098 0.0186083 0.00689665
0.192849 0.0178109 0.00702935
0.187207 0.0178278 0.0069859
0.321436 0.0173475 0.00552525
0.187112 0.0177949 0.00698724
0.192669 0.0169744 0.00730689
0.186258 0.0155604 0.0086296
0.187078 0.0185107 0.00691177
0.186441 0.0161004 0.00796532
0.186417 0.0160171 0.00801536
0.180222 0.0153853 0.00871458
0.19279 0.0175307 0.00711862
0.186924 0.0181858 0.00694699
0.180163 0.0151878 0.00893131
0.187059 0.0184139 0.00692701
0.192689 0.017064 0.00726731
0.186942 0.0174171 0.00718685
0.186729 0.0168763 0.00749079
0.187324 0.0184122 0.0069218
0.187132 0.0174736 0.00715113
0.192868 0.0179044 0.00699958
0.180495 0.0163515 0.00788915
0.180148 0.0151711 0.00902866
0.187076 0.0180563 0.00696197
0.186884 0.0171601 0.00733026
0.186944 0.0182836 0.00693813
0.19273 0.0172505 0.00720787
0.180203 0.0153113 0.00877916
0.18698 0.0180227 0.00696338
0.187003 0.018576 0.0069034
0.187134 0.0183494 0.0069351
0.181204 0.0182557 0.00703958
0.187018 0.0173591 0.00721713
0.180954 0.01835 0.00704014
0.18026 0.0155345 0.00858713
0.187171 0.0180887 0.00696066
0.181131 0.0185753 0.00699849
0.180322 0.0157577 0.00839647
0.181015 0.0181938 0.00705884
0.19277 0.0174373 0.00714838
0.1812 0.0178018 0.00710394
0.187227 0.0179255 0.00697705
0.187174 0.0185431 0.006905
0.186613 0.0167645 0.00755538
0.187154 0.0184463 0.00692035
0.187019 0.0177686 0.00701344
0.18124 0.0179959 0.00707431
0.187115 0.0182517 0.00694429
0.186484 0.0162619 0.00785601
0.186903 0.0176485 0.00705986
0.186866 0.0174769 0.0071556
0.186504 0.0163447 0.00780332
0.180612 0.0164486 0.00780601
0.187 0.0176774 0.00704959
0.180721 0.0168208 0.00748668
0.187229 0.0183806 0.00692844
0.18028 0.015609 0.00852344
0.0643568 0.0187248 0.00531097
0.24257 0.0191927 0.00520306
0.180915 0.0177095 0.00713282
0.181255 0.0176381 0.00712402
0.18114 0.0175103 0.00714845
0.18112 0.0174135 0.00716325
0.186963 0.0183812 0.0069293
0.187113 0.0173878 0.00719899
0.186526 0.0164269 0.00775124
0.186847 0.0173906 0.00720374
0.180976 0.0179999 0.00708842
0.180582 0.0166484 0.00763549
0.180934 0.018253 0.00705493
0.187076 0.0176166 0.00707339
0.186905 0.0180881 0.00695583
0.187042 0.01877 0.00687335
0.180777 0.0174795 0.00717296
0.187037 0.0174452 0.00716907
0.186355 0.0157902 0.00819683
0.186277 0.0156067 0.00854308
0.186808 0.0172192 0.00729941
0.180737 0.0172864 0.00720566
0.186828 0.0173048 0.00725163
0.187118 0.0187052 0.00688164
0.186749 0.0169621 0.00744292
0.181275 0.0177355 0.00710916
0.186788 0.0171336 0.00734719
0.186941 0.0178273 0.00698105
0.181161 0.0176072 0.00713365
0.187037 0.017861 0.00697964
0.186809 0.0176206 0.00707747
0.186769 0.017048 0.00739499
0.186161 0.0153166 0.00905394
0.180993 0.0185438 0.00701057
0.186461 0.0161797 0.00790788
0.186885 0.0179904 0.00696467
0.18698 0.0175889 0.00709163
0.180995 0.0180968 0.00707363
0.180717 0.0171903 0.00722469
0.180183 0.015247 0.00885309
0.180837 0.0177713 0.00714221
0.181054 0.0183878 0.0070306
0.180817 0.0168443 0.00746069
0.186634 0.0168499 0.00750789
0.0100679 0.0201683 0.00551526
0.180682 0.0170229 0.00731993
0.181034 0.0187375 0.00698097
0.180797 0.0175764 0.00715817
0.181005 0.017285 0.00718783
0.180956 0.0179029 0.00710321
0.0219312 0.0187687 0.00551176
0.181185 0.0181588 0.00705437
0.187249 0.0184779 0.00691337
0.180817 0.0176732 0.00714337
0.181109 0.0186721 0.00698603
0.180677 0.0166714 0.00761564
0.181011 0.0177397 0.0071232
0.186983 0.0184791 0.00691842
0.18074 0.0168937 0.00742088
0.1812 0.0185037 0.00700475
0.181086 0.0176735 0.00712842
0.186866 0.0178927 0.00697352
0.180991 0.0176429 0.007138
0.187151 0.017991 0.00696951
0.181026 0.0173829 0.00717283
0.174801 0.0176021 0.00719488
0.180852 0.0169919 0.00733041
0.180775 0.0170432 0.00728597
0.180856 0.0174186 0.00717718
0.181129 0.0183217 0.00703441
0.186827 0.0177064 0.00702961
0.181066 0.0175766 0.00714323
0.186884 0.0175627 0.00710773
0.180665 0.016947 0.00738268
0.186733 0.0172777 0.00726886
0.186864 0.0170746 0.00737803
0.187057 0.0179586 0.00697112
0.175073 0.0189234 0.00682091
0.186903 0.0172458 0.00728244
0.180971 0.017546 0.00715281
0.187056 0.017531 0.00712119
0.161461 0.0182058 0.00533758
0.181165 0.0180619 0.00706915
0.180569 0.0163001 0.00793285
0.174859 0.0178853 0.00711475
0.181013 0.0186408 0.00699578
0.180915 0.0181561 0.00706972
0.18056 0.0165742 0.00769892
0.181051 0.0179339 0.00709358
0.186547 0.0165106 0.00770053
0.180241 0.0154599 0.00865086
0.181126 0.017868 0.00709873
0.180634 0.0165228 0.00774261
0.180758 0.016968 0.00735383
0.180937 0.017806 0.00711799
0.177775 0.0177546 0.00711346
0.186771 0.017449 0.00717321
0.186713 0.0171921 0.00731664
0.18107 0.0180309 0.00707879
0.187019 0.0182181 0.00694568
0.186654 0.0169352 0.00746002
0.175054 0.018829 0.00684763
0.181031 0.0178369 0.00710837
0.187023 0.0186731 0.00688838
0.180344 0.0158318 0.00833312
0.186597 0.016679 0.00760475
0.181145 0.017965 0.00708394
0.240816 0.0176402 0.00703078
0.187096 0.018154 0.00695312
0.180896 0.0176123 0.00714759
0.105863 0.0175465 0.00790305
0.186923 0.0173314 0.00723465
0.180697 0.0170969 0.00725439
0.174995 0.0185459 0.00692776
0.17482 0.0176965 0.00716819
0.18111 0.0182248 0.00704921
0.180517 0.0164257 0.00782573
0.174781 0.0175078 0.00722157
0.180895 0.0180592 0.0070845
0.186961 0.017925 0.00697221
0.181106 0.0177707 0.00711358
0.180474 0.0162773 0.00795257
0.180431 0.0161291 0.00807977
0.17462 0.0168274 0.00759505
0.174642 0.0169066 0.00753802
0.174701 0.0171477 0.00736974
0.180757 0.0173828 0.00718831
0.174662 0.0169862 0.00748102
0.174761 0.0174135 0.00724828
0.181298 0.0182877 0.00702984
0.180538 0.0165 0.00776232
0.175034 0.0187347 0.00687434
0.180834 0.0169175 0.00739468
0.186571 0.0165941 0.00765111
0.174898 0.018074 0.00706132
0.175093 0.0190178 0.0067942
0.174741 0.0173193 0.00727494
0.180856 0.0178653 0.00711407
0.180951 0.0174492 0.00716761
0.18091 0.0172545 0.0071974
0.180817 0.0172281 0.00722206
0.174917 0.0181684 0.00703461
0.180625 0.016797 0.00750869
0.180409 0.0160546 0.00814281
0.174722 0.0172331 0.00732209
0.181054 0.0188342 0.00696616
0.17484 0.0177909 0.00714147
0.180876 0.0175154 0.00716239
0.180591 0.0163744 0.00786943
0.180603 0.0167226 0.00757208
0.18089 0.0171601 0.00722986
0.186674 0.0170208 0.00741223
0.181148 0.0184195 0.00701952
0.174956 0.0183572 0.00698119
0.180365 0.0159062 0.00826971
0.174937 0.0182628 0.0070079
0.180656 0.0165971 0.00767912
0.180645 0.0168717 0.0074455
0.180836 0.017322 0.0071939
0.181224 0.0183538 0.00702463
0.174976 0.0184515 0.00695447
0.174598 0.0167481 0.00765208
0.180699 0.0167462 0.00755174
0.181046 0.0174798 0.00715802
0.18109 0.0181278 0.007064
0.180931 0.0173523 0.00718241
0.18087 0.0170723 0.00727376
0.180526 0.0161516 0.00805971
0.181035 0.0182907 0.00704405
0.180796 0.0171356 0.00725367
0.180876 0.0179622 0.00709929
0.18122 0.017899 0.0070891
0.180388 0.0159802 0.00820635
0.175015 0.0186403 0.00690105
0.180452 0.016203 0.00801598
0.187 0.0181204 0.00695453
0.174682 0.017066 0.00742403
0.174878 0.0179797 0.00708803
0.186693 0.0171065 0.00736442

VERTICES 271 542
1 0
1 1
1 2
1 3
1 4
1 5
1 6
1 7
1 8
1 9
1 10
1 11
1 12
1 13
1 14
1 15
1 16
1 17
1 18
1 19
1 20
1 21
1 22
1 23
1 24
1 25
1 26
1 27
1 28
1 29
1 30
1 31
1 32
1 33
1 34
1 35
1 36
1 37
1 38
1 39
1 40
1 41
1 42
1 43
1 44
1 45
1 46
1 47
1 48
1 49
1 50
1 51
1 52
1 53
1 54
1 55
1 56
1 57
1 58
1 59
1 60
1 61
1 62
1 63
1 64
1 65
1 66
1 67
1 68
1 69
1 70
1 71
1 72
1 73
1 74
1 75
1 76
1 77
1 78
1 79
1 80
1 81
1 82
1 83
1 84
1 85
1 86
1 87
1 88
1 89
1 90
1 91
1 92
1 93
1 94
1 95
1 96
1 97
1 98
1 99
1 100
1 101
1 102
1 103
1 104
1 105
1 106
1 107
1 108
1 109
1 110
1 111
1 112
1 113
1 114
1 115
1 116
1 117
1 118
1 119
1 120
1 121
1 122
1 123
1 124
1 125
1 126
1 127
1 128
1 129
1 130
1 131
1 132
1 133
1 134
1 135
1 136
1 137
1 138
1 139
1 140
1 141
1 142
1 143
1 144
1 145
1 146
1 147
1 148
1 149
1 150
1 151
1 152
1 153
1 154
1 155
1 156
1 157
1 158
1 159
1 160
1 161
1 162
1 163
1 164
1 165
1 166
1 167
1 168
1 169
1 170
1 171
1 172
1 173
1 174
1 175
1 176
1 177
1 178
1 179
1 180
1 181
1 182
1 183
1 184
1 185
1 186
1 187
1 188
1 189
1 190
1 191
1 192
1 193
1 194
1 195
1 196
1 197
1 198
1 199
1 200
1 201
1 202
1 203
1 204
1 205
1 206
1 207
1 208
1 209
1 210
1 211
1 212
1 213
1 214
1 215
1 216
1 217
1 218
1 219
1 220
1 221
1 222
1 223
1 224
1 225
1 226
1 227
1 228
1 229
1 230
1 231
1 232
1 233
1 234
1 235
1 236
1 237
1 238
1 239
1 240
1 241
1 242
1 243
1 244
1 245
1 246
1 247
1 248
1 249
1 250
1 251
1 252
1 253
1 254
1 255
1 256
1 257
1 258
1 259
1 260
1 261
1 262
1 263
1 264
1 265
1 266
1 267
1 268
1 269
1 270

POINT_DATA 271
SCALARS id int 1
LOOKUP_TABLE default
1
2
3
4
5
6
7
8
9
10
11
12
13
14
15
16
17
19
21
22
23
24
25
26
27
28
29
30
31
32
33
34
35
36
37
38
39
41
42
44
45
47
48
50
51
52
53
54
55
56
57
59
61
62
63
64
65
66
67
68
69
70
71
72
73
74
76
77
78
79
80
81
82
83
84
85
86
87
88
89
90
91
92
93
94
95
96
97
98
99
100
101
102
103
104
105
106
107
108
109
110
111
112
113
114
115
116
117
118
119
120
121
122
123
124
125
126
127
128
129
131
132
133
134
135
136
137
138
140
141
142
143
144
147
148
149
150
151
153
154
155
156
157
158
159
160
162
164
165
166
168
169
170
171
172
173
174
175
177
178
179
181
182
183
184
186
187
188
189
190
191
192
193
194
195
196
197
198
199
201
202
203
204
205
206
207
208
209
210
211
212
213
214
215
216
217
218
219
220
221
222
223
224
225
226
227
228
229
230
231
232
234
235
236
237
239
240
241
242
244
246
247
248
249
250
251
252
253
254
255
256
257
258
259
261
262
263
264
265
266
267
268
269
270
271
272
273
274
275
276
277
278
280
283
284
285
286
287
288
289
290
291
292
293
294
295
296
297
298
299
300

SCALARS type int 1
LOOKUP_TABLE default
1
1
1
1
1
1
1
1
1
1
1
1
1
1
1
1
1
1
1
1
1
1
1
1
1
1
1
1
1
1
1
1
1
1
1
1
1
1
1
1
1
1
1
1
1
1
1
1
1
1
1
1
1
1
1
1
1
1
1
1
1
1
1
1
1
1
1
1
1
1
1
1
1
1
1
1
1
1
1
1
1
1
1
1
1
1
1
1
1
1
1
1
1
1
1
1
1
1
1
1
1
1
1
1
1
1
1
1
1
1
1
1
1
1
1
1
1
1
1
1
1
1
1
1
1
1
1
1
1
1
1
1
1
1
1
1
1
1
1
1
1
1
1
1
1
1
1
1
1
1
1
1
1
1
1
1
1
1
1
1
1
1
1
1
1
1
1
1
1
1
1
1
1
1
1
1
1
1
1
1
1
1
1
1
1
1
1
1
1
1
1
1
1
1
1
1
1
1
1
1
1
1
1
1
1
1
1
1
1
1
1
1
1
1
1
1
1
1
1
1
1
1
1
1
1
1
1
1
1
1
1
1
1
1
1
1
1
1
1
1
1
1
1
1
1
1
1
1
1
1
1
1
1
1
1
1
1
1
1
1
1
1
1
1
1
1
1
1
1
1
1

SCALARS radius float 1
LOOKUP_TABLE default
5e-05
5e-05
5e-05
5e-05
5e-05
5e-05
5e-05
5e-05
5e-05
5e-05
5e-05
5e-05
5e-05
5e-05
5e-05
5e-05
5e-05
5e-05
5e-05
5e-05
5e-05
5e-05
5e-05
5e-05
5e-05
5e-05
5e-05
5e-05
5e-05
5e-05
5e-05
5e-05
5e-05
5e-05
5e-05
5e-05
5e-05
5e-05
5e-05
5e-05
5e-05
5e-05
5e-05
5e-05
5e-05
5e-05
5e-05
5e-05
5e-05
5e-05
5e-05
5e-05
5e-05
5e-05
5e-05
5e-05
5e-05
5e-05
5e-05
5e-05
5e-05
5e-05
5e-05
5e-05
5e-05
5e-05
5e-05
5e-05
5e-05
5e-05
5e-05
5e-05
5e-05
5e-05
5e-05
5e-05
5e-05
5e-05
5e-05
5e-05
5e-05
5e-05
5e-05
5e-05
5e-05
5e-05
5e-05
5e-05
5e-05
5e-05
5e-05
5e-05
5e-05
5e-05
5e-05
5e-05
5e-05
5e-05
5e-05
5e-05
5e-05
5e-05
5e-05
5e-05
5e-05
5e-05
5e-05
5e-05
5e-05
5e-05
5e-05
5e-05
5e-05
5e-05
5e-05
5e-05
5e-05
5e-05
5e-05
5e-05
5e-05
5e-05
5e-05
5e-05
5e-05
5e-05
5e-05
5e-05
5e-05
5e-05
5e-05
5e-05
5e-05
5e-05
5e-05
5e-05
5e-05
5e-05
5e-05
5e-05
5e-05
5e-05
5e-05
5e-05
5e-05
5e-05
5e-05
5e-05
5e-05
5e-05
5e-05
5e-05
5e-05
5e-05
5e-05
5e-05
5e-05
5e-05
5e-05
5e-05
5e-05
5e-05
5e-05
5e-05
5e-05
5e-05
5e-05
5e-05
5e-05
5e-05
5e-05
5e-05
5e-05
5e-05
5e-05
5e-05
5e-05
5e-05
5e-05
5e-05
5e-05
5e-05
5e-05
5e-05
5e-05
5e-05
5e-05
5e-05
5e-05
5e-05
5e-05
5e-05
5e-05
5e-05
5e-05
5e-05
5e-05
5e-05
5e-05
5e-05
5e-05
5e-05
5e-05
5e-05
5e-05
5e-05
5e-05
5e-05
5e-05
5e-05
5e-05
5e-05
5e-05
5e-05
5e-05
5e-05
5e-05
5e-05
5e-05
5e-05
5e-05
5e-05
5e-05
5e-05
5e-05
5e-05
5e-05
5e-05
5e-05
5e-05
5e-05
5e-05
5e-05
5e-05
5e-05
5e-05
5e-05
5e-05
5e-05
5e-05
5e-05
5e-05
5e-05
5e-05
5e-05
5e-05
5e-05
5e-05
5e-05
5e-05
5e-05
5e-05
5e-05
5e-05
5e-05
5e-05
5e-05
5e-05
5e-05
5e-05
5e-05
5e-05
5e-05
5e-05
5e-05
5e-05
5e-05
5e-05
5e-05
5e-05
5e-05

SCALARS mass float 1
LOOKUP_TABLE default
1.46608e-10
1.46608e-10
1.46608e-10
1.46608e-10
1.46608e-10
1.46608e-10
1.46608e-10
1.46608e-10
1.46608e-10
1.46608e-10
1.46608e-10
1.46608e-10
1.46608e-10
1.46608e-10
1.46608e-10
1.46608e-10
1.46608e-10
1.46608e-10
1.46608e-10
1.46608e-10
1.46608e-10
1.46608e-10
1.46608e-10
1.46608e-10
1.46608e-10
1.46608e-10
1.46608e-10
1.46608e-10
1.46608e-10
1.46608e-10
1.46608e-10
1.46608e-10
1.46608e-10
1.46608e-10
1.46608e-10
1.46608e-10
1.46608e-10
1.46608e-10
1.46608e-10
1.46608e-10
1.46608e-10
1.46608e-10
1.46608e-10
1.46608e-10
1.46608e-10
1.46608e-10
1.46608e-10
1.46608e-10
1.46608e-10
1.46608e-10
1.46608e-10
1.46608e-10
1.46608e-10
1.46608e-10
1.46608e-10
1.46608e-10
1.46608e-10
1.46608e-10
1.46608e-10
1.46608e-10
1.46608e-10
1.46608e-10
1.46608e-10
1.46608e-10
1.46608e-10
1.46608e-10
1.46608e-10
1.46608e-10
1.46608e-10
1.46608e-10
1.46608e-10
1.46608e-10
1.46608e-10
1.46608e-10
1.46608e-10
1.46608e-10
1.46608e-10
1.46608e-10
1.46608e-10
1.46608e-10
1.46608e-10
1.46608e-10
1.46608e-10
1.46608e-10
1.46608e-10
1.46608e-10
1.46608e-10
1.46608e-10
1.46608e-10
1.46608e-10
1.46608e-10
1.46608e-10
1.46608e-10
1.46608e-10
1.46608e-10
1.46608e-10
1.46608e-10
1.46608e-10
1.46608e-10
1.46608e-10
1.46608e-10
1.46608e-10
1.46608e-10
1.46608e-10
1.46608e-10
1.46608e-10
1.46608e-10
1.46608e-10
1.46608e-10
1.46608e-10
1.46608e-10
1.46608e-10
1.46608e-10
1.46608e-10
1.46608e-10
1.46608e-10
1.46608e-10
1.46608e-10
1.46608e-10
1.46608e-10
1.46608e-10
1.46608e-10
1.46608e-10
1.46608e-10
1.46608e-10
1.46608e-10
1.46608e-10
1.46608e-10
1.46608e-10
1.46608e-10
1.46608e-10
1.46608e-10
1.46608e-10
1.46608e-10
1.46608e-10
1.46608e-10
1.46608e-10
1.46608e-10
1.46608e-10
1.46608e-10
1.46608e-10
1.46608e-10
1.46608e-10
1.46608e-10
1.46608e-10
1.46608e-10
1.46608e-10
1.46608e-10
1.46608e-10
1.46608e-10
1.46608e-10
1.46608e-10
1.46608e-10
1.46608e-10
1.46608e-10
1.46608e-10
1.46608e-10
1.46608e-10
1.46608e-10
1.46608e-10
1.46608e-10
1.46608e-10
1.46608e-10
1.46608e-10
1.46608e-10
1.46608e-10
1.46608e-10
1.46608e-10
1.46608e-10
1.46608e-10
1.46608e-10
1.46608e-10
1.46608e-10
1.46608e-10
1.46608e-10
1.46608e-10
1.46608e-10
1.46608e-10
1.46608e-10
1.46608e-10
1.46608e-10
1.46608e-10
1.46608e-10
1.46608e-10
1.46608e-10
1.46608e-10
1.46608e-10
1.46608e-10
1.46608e-10
1.46608e-10
1.46608e-10
1.46608e-10
1.46608e-10
1.46608e-10
1.46608e-10
1.46608e-10
1.46608e-10
1.46608e-10
1.46608e-10
1.46608e-10
1.46608e-10
1.46608e-10
1.46608e-10
1.46608e-10
1.46608e-10
1.46608e-10
1.46608e-10
1.46608e-10
1.46608e-10
1.46608e-10
1.46608e-10
1.46608e-10
1.46608e-10
1.46608e-10
1.46608e-10
1.46608e-10
1.46608e-10
1.46608e-10
1.46608e-10
1.46608e-10
1.46608e-10
1.46608e-10
1.46608e-10
1.46608e-10
1.46608e-10
1.46608e-10
1.46608e-10
1.46608e-10
1.46608e-10
1.46608e-10
1.46608e-10
1.46608e-10
1.46608e-10
1.46608e-10
1.46608e-10
1.46608e-10
1.46608e-10
1.46608e-10
1.46608e-10
1.46608e-10
1.46608e-10
1.46608e-10
1.46608e-10
1.46608e-10
1.46608e-10
1.46608e-10
1.46608e-10
1.46608e-10
1.46608e-10
1.46608e-10
1.46608e-10
1.46608e-10
1.46608e-10
1.46608e-10
1.46608e-10
1.46608e-10
1.46608e-10
1.46608e-10
1.46608e-10
1.46608e-10
1.46608e-10
1.46608e-10
1.46608e-10
1.46608e-10
1.46608e-10
1.46608e-10
1.46608e-10
1.46608e-10
1.46608e-10
1.46608e-10
1.46608e-10

VECTORS velocity float
0.00549632 4.77192e-05 8.62298e-05
0.00562638 4.35481e-07 0.000103281
0.00551691 -5.79684e-05 -0.000298495
0.00551157 -0.000122535 -6.24718e-05
0.00546481 5.31009e-05 8.02962e-05
0.00572601 8.67527e-05 7.82635e-05
0.00560576 -0.000210079 -5.25393e-06
0.00546388 5.18285e-05 7.99997e-05
0.00561445 -5.82378e-05 -9.29529e-05
0.00559201 -0.000258559 1.1108e-05
0.00557764 -8.58806e-06 1.04004e-05
0.00590462 -0.000129192 9.83684e-05
0.00541893 5.55835e-05 7.19104e-05
0.00552631 -1.12191e-05 -0.00030526
0.00541946 -0.000130926 -5.48905e-05
0.0055086 -6.18789e-05 -0.000297021
0.00549534 -1.36589e-05 -0.000122468
0.0054526 5.21437e-05 7.93791e-05
0.00554074 -0.00020569 -1.51681e-05
0.00545497 -5.67833e-05 -9.85182e-05
0.00605764 -0.000130364 9.87454e-05
0.00568102 -7.39446e-05 -8.92785e-05
0.0058238 -0.000110044 0.000146619
0.00583802 -0.000109307 -8.06052e-05
0.00553829 -3.08314e-05 -0.000302933
0.00553154 -0.000103748 -8.13118e-05
0.00559999 -0.00021221 -2.32833e-07
0.00559001 -0.000170819 0.000118398
0.00603815 -6.06566e-05 0.000301195
0.00601998 -0.00018596 -3.92681e-05
0.00577191 -0.0001424 -0.00018883
0.00562087 -0.000217385 -1.3091e-05
0.00562231 -3.65331e-05 -0.000112355
0.00565662 -6.96042e-05 -9.0186e-05
0.00562996 -2.11598e-05 0.000105449
0.00565065 -1.89277e-05 -0.000108703
0.00570433 -7.88515e-05 -8.82744e-05
0.00562586 5.25385e-06 0.000102231
4.57302e-16 2.25534e-15 8.4636e-14
0.00560271 -3.62637e-05 0.000107229
0.00580764 -0.000142603 -0.000181538
0.0055287 -2.00025e-05 5.83681e-05
0.00564888 -5.55496e-05 -0.000102752
0.00619843 -7.85178e-05 0.000350245
0.00617083 -5.32522e-05 0.000374361
0.00560883 -0.000102162 7.3224e-05
0.00563272 -6.43144e-05 -9.1253e-05
0.00560961 -9.55143e-06 0.000103884
0.00559572 -9.62303e-06 0.000136856
0.00565111 -4.71495e-05 -9.42767e-05
0.00582969 -0.00010961 -8.44472e-05
0.00549288 -5.90464e-05 -9.6356e-05
0.00608527 -0.00025698 -1.60351e-06
0.00565808 1.11563e-05 -0.000114383
0.00542313 -9.27319e-05 -7.58529e-05
0.00556978 -5.2936e-05 -9.37059e-05
0.00609362 -0.000124744 9.42687e-05
0.00559124 -1.85023e-06 0.000132288
0.00562806 -7.78124e-06 0.000104018
0.0057356 -0.000121836 -6.79531e-05
0.00560574 -1.70157e-05 0.000104532
0.00585105 -0.000107775 -8.19357e-05
0.00561145 -0.000105963 7.09111e-05
0.00562404 -7.37373e-06 0.000103247
0.00564413 -6.11386e-05 -0.000101556
0.00566962 -2.55717e-05 -7.51179e-05
0.00546661 -4.65738e-05 -0.000297111
0.00551623 -1.18957e-05 -0.000123731
0.00552023 -1.42799e-05 -0.00030441
0.00563595 -0.000100934 7.22662e-05
0.00562708 6.85395e-07 0.000103044
0.0058566 -0.000165766 -0.000304652
0.00597903 -0.000136776 0.000103595
0.00551852 -2.56039e-05 -0.000302515
0.00561248 -5.77039e-05 -9.32146e-05
0.00553149 -4.27324e-05 -0.000301415
0.00563442 3.34953e-06 0.000103111
0.005649 -1.48503e-05 -0.000108464
0.00619245 -0.000304394 2.1663e-05
0.00564818 -2.47414e-05 -0.000144587
0.00557728 -2.43506e-05 4.39502e-05
0.00554939 -1.72902e-05 -0.000305649
0.00560141 1.06408e-06 0.000104162
0.00617623 -0.000103665 0.000314051
0.00556228 -5.83579e-05 -9.59177e-05
0.00545695 -3.79648e-05 -0.000107218
0.00616115 -9.62392e-05 0.000326928
0.00609452 -0.000129659 9.87906e-05
0.00548685 -4.96764e-05 -6.56207e-05
0.00613548 -0.000190407 -0.000152953
0.00566133 -4.30413e-06 -0.000111029
0.00576456 -0.000113477 8.4811e-05
4.29941e-15 1.05052e-14 8.29576e-14
2.62458e-22 2.24983e-22 8.29106e-22
0.00551417 -3.61444e-05 -0.000303184
0.00550654 -7.06011e-05 -0.00029575
0.00549011 -6.33865e-05 -0.000295078
0.00552352 -3.3841e-05 -0.000301251
0.00563717 -2.20237e-05 0.000105583
0.00544052 -9.23331e-05 -7.75971e-05
0.00616443 -9.9728e-05 0.000330716
0.00551954 -0.00012689 -5.96944e-05
0.00544091 -3.2621e-05 -0.000297357
0.00613007 -0.000166152 0.000129861
0.00551835 -2.42948e-05 -0.000302692
0.00543739 -0.000108807 -7.91895e-05
0.00561151 -7.83552e-06 0.000103305
0.00566301 -1.85202e-05 -0.000108877
0.0055676 -1.7206e-05 -0.000291737
0.00543731 -8.32e-05 -8.21708e-05
0.00557211 -0.000176047 2.20272e-05
0.00556901 -0.00015721 -1.2172e-06
0.00579204 -0.000191309 -2.98051e-05
0.00557969 -3.48731e-05 -0.000146856
0.00560927 -0.000144579 -5.2572e-05
0.00566594 -1.79695e-05 -0.000108939
0.0060349 -0.000225001 -1.79049e-05
0.0055325 -4.05919e-05 -0.00030128
0.00582949 -0.000172305 -4.22653e-05
0.00559129 1.18447e-05 9.70843e-05
0.00549245 -6.08706e-05 -0.000296336
0.00562493 -8.64135e-06 0.000104577
0.00564946 -0.000264774 1.32471e-05
0.005939 -0.000186149 -3.72387e-05
0.00543291 5.29861e-05 7.55614e-05
0.00553044 -2.13943e-05 -0.000303988
0.0061927 -9.41785e-05 0.000330722
0.00561863 -5.08301e-06 0.000103787
0.00545063 -6.11942e-05 -0.000107633
0.00551351 -4.05641e-05 -0.000299784
0.00566768 -4.40152e-05 1.13717e-05
0.0055789 -9.53993e-05 7.05607e-05
0.0055592 -5.93294e-06 -0.000301028
0.00550792 -2.81219e-05 -0.000300663
0.00617541 -0.000179563 -0.000173148
0.00611851 -0.000290089 1.52424e-05
8.38396e-15 1.25044e-15 -8.48744e-14
0.00592611 -6.42002e-05 0.000262169
0.0059172 -0.000142427 -0.000308076
0.00562807 -2.56824e-05 -0.000309187
0.00553232 2.40893e-05 -0.000310833
0.00546169 -1.8894e-05 -0.000300679
-3.83172e-14 8.16777e-14 2.95886e-13
0.00547678 -4.35009e-05 -0.000297524
0.00565313 -3.32045e-06 -0.000110416
0.00563397 -2.0851e-05 -0.000309616
0.00591199 -0.000152075 -0.000304946
0.00617894 -0.000140556 0.000111738
0.00549082 -5.07647e-05 -0.000297969
0.00564146 -4.93256e-05 -0.000105047
0.00618524 -0.000268334 -0.000445763
0.00578527 -0.000230649 -0.000286919
0.00549637 -6.20617e-05 -0.000295902
0.0056207 3.54836e-05 0.000102417
0.00570173 -0.000130362 -0.000296702
0.00563074 -1.73654e-06 0.000103573
0.00553355 -0.00011307 -0.000290936
0.00553937 -0.000281098 8.80524e-05
0.00591004 -0.000211373 -0.000291891
0.00603615 3.73417e-06 -0.000376254
0.00552079 -5.37043e-05 -0.000276821
0.00548429 -4.3655e-05 -0.000298053
0.00569866 -0.000252664 6.08421e-06
0.00573204 -0.000124941 -0.000300462
0.00550639 -4.87443e-05 -0.000106621
0.00596113 -8.82544e-05 0.000253829
0.00573363 -0.000245102 -3.89503e-06
0.00590576 -0.000161019 -5.04008e-05
0.00562751 -6.96536e-06 0.000103936
0.00562982 -0.000291717 9.22031e-05
0.00563829 -9.53866e-05 -8.03563e-05
0.00558648 -9.40364e-05 -0.000296213
0.00542078 -9.72828e-05 -7.36138e-05
1.47612e-15 -1.10191e-14 8.66684e-14
0.00552129 -3.83891e-05 -0.000300934
0.00611342 -0.000118976 8.8997e-05
0.00541973 -0.000252164 7.9157e-05
0.00554884 6.19706e-05 -0.000316886
0.00551066 -3.14686e-05 -0.000300853
0.006104 -0.00014753 0.000110743
0.0054562 -2.27673e-05 -0.000299392
0.00620546 -0.000144242 0.000281565
0.00559229 -9.85366e-05 6.93813e-05
0.00553843 -4.09277e-05 -0.000301117
0.00609622 -0.000139065 0.000106547
0.00597222 -0.00016528 3.54374e-05
0.00550532 -1.5648e-05 -0.000303827
0.00553511 -0.000978865 0.000162686
0.00554594 -0.00024046 5.34204e-07
0.00576156 -0.000229923 -8.63159e-06
0.00552597 -3.86955e-05 -0.000300977
0.00561665 -1.11148e-05 0.000104103
0.00605452 -0.000279154 1.11194e-05
0.0056064 -0.000292438 8.96733e-05
0.00552713 -3.59428e-05 -0.000301893
0.00565121 -2.92408e-05 -0.000107099
0.00599617 -0.000137692 0.000104962
0.00626966 -0.000314837 2.5456e-05
0.00553868 -3.78942e-05 -0.000302364
0.00592255 0.000272214 -8.97138e-05
0.00562086 -6.16219e-06 0.000103602
0.00563266 -4.53368e-05 -0.000306539
2.7051e-10 -0.0222222 0.00931449
0.00557735 -7.77281e-05 -8.83372e-05
0.00589431 -2.57611e-05 0.000247953
0.00556161 -0.000295318 9.16143e-05
0.00546135 -0.00026195 8.24672e-05
0.00548503 -4.48437e-05 -0.000298108
0.0060991 -0.000130395 9.86177e-05
0.00551645 -0.000277221 8.68609e-05
0.00547445 -1.81192e-05 -0.0003014
0.00562252 -4.31874e-06 0.000103953
0.00551753 -5.86275e-05 -0.000297422
0.00606878 -0.000124333 9.44426e-05
0.00603936 -0.000129021 9.72887e-05
0.00601877 -0.000790221 -0.000658967
0.0060146 -0.000792362 -0.000656351
0.00564416 -0.000693718 -0.000632941
0.00550752 -1.93504e-05 -0.000259006
0.00564976 -0.000698316 -0.00064771
0.00549425 -0.000270452 8.56074e-05
0.00548185 -0.000100792 -0.000289933
0.00609416 -0.000136737 0.000102901
0.00560405 -0.000284457 8.96797e-05
0.00608102 -0.000151113 -0.000156525
0.00629538 -0.000255175 0.000143917
0.00549458 -0.000274529 8.56009e-05
0.00564778 -0.000295146 9.27086e-05
0.00549095 -0.000267973 8.41756e-05
0.0054951 1.65994e-07 -0.000307587
0.00551772 -9.00018e-05 -0.000296587
0.00550704 2.24138e-05 -0.0003118
0.00559728 4.68644e-05 8.1834e-05
0.00548473 -0.000277321 8.49984e-05
0.00605181 -0.000168082 0.000179767
0.00602788 -0.000133968 0.000101604
0.00555464 -0.000500643 -0.000321919
0.00596052 -0.000146147 -0.000309897
0.00541424 -0.000248951 7.8541e-05
0.00556624 -7.55087e-05 -0.000302936
0.00610318 -0.000122003 9.14417e-05
0.00612248 -0.00018407 0.000147707
0.00571418 0.000177511 0.000146496
0.00596861 -0.000265147 5.96237e-06
0.00551587 -6.29456e-05 -0.000297775
0.00554276 -0.00026974 8.5612e-05
0.00600608 -0.000136711 0.000104233
0.00551252 -0.000268313 8.4311e-05
0.00613294 -0.000145201 0.000112736
0.00599318 -0.00012781 0.000220991
0.00550828 3.92806e-06 -7.69192e-05
0.00544986 -0.00013262 -0.000283622
0.00555788 -0.000282703 9.00504e-05
0.00601616 -0.000785948 -0.000661357
0.00619516 -9.39418e-05 7.06201e-05
0.0054991 -9.01767e-05 -0.000292297
0.00550995 -4.23034e-05 -0.000300307
0.0055133 -5.34985e-05 -0.000296097
0.00585572 0.000153069 0.000172143
0.0060411 -0.000127126 9.61112e-05
0.00551118 -2.20343e-05 -0.00030294
0.0057321 5.01334e-05 0.000144414
0.00547477 -1.42732e-05 -0.000301277
0.00554478 -2.54685e-05 -0.000304504
0.00601656 -0.000136227 0.000104024
0.00557718 -0.000286526 8.90044e-05
0.00605259 -0.000128745 9.70763e-05
0.00561586 -8.09174e-06 0.000103687
0.00564089 -0.000697829 -0.00064516
0.00545755 -0.000262123 8.21328e-05
0.00585791 -0.000245171 -1.83898e-06

VECTORS force float
-9.98485e-11 -1.064e-10 1.67037e-10
2.56513e-11 -5.95788e-11 8.78073e-12
4.71219e-10 -1.93795e-10 2.33306e-12
-6.51333e-11 2.01846e-11 -2.87056e-11
-1.8521e-12 -1.35479e-10 1.59727e-10
3.20172e-11 -3.97632e-12 3.11221e-11
-4.62254e-11 -4.92154e-11 5.80929e-11
1.96819e-11 -1.18033e-10 1.80692e-10
6.42272e-11 9.34419e-12 -1.61267e-12
-1.6559e-10 2.95003e-11 -9.11502e-12
2.32461e-10 3.75198e-11 4.52673e-10
-5.31416e-12 -3.70531e-13 -1.25185e-12
-6.99146e-11 -1.22639e-10 2.24878e-10
-9.57644e-11 -4.77016e-10 6.80607e-11
-2.06812e-10 1.89137e-10 -9.9995e-11
3.33626e-10 -1.67242e-10 3.95188e-12
2.36745e-11 -2.14746e-10 1.02312e-10
9.83598e-12 -1.06805e-10 2.28313e-10
-2.76614e-10 1.29056e-10 -6.40498e-11
1.36995e-10 2.68595e-11 7.93335e-12
9.59306e-11 9.97469e-11 -8.65461e-11
-3.50116e-12 1.00705e-13 -8.47895e-13
1.63826e-10 -3.39903e-11 2.47968e-11
5.12665e-11 -6.1321e-11 7.56272e-12
6.13276e-10 1.13316e-10 -5.2607e-11
-8.99415e-11 -7.95782e-11 -1.27031e-10
1.16904e-11 -1.09669e-11 5.08004e-11
1.30057e-12 -1.56501e-10 5.2576e-11
1.50817e-10 -4.29158e-12 2.93583e-11
-4.15388e-11 1.31213e-10 -7.05741e-11
-1.85496e-11 -6.90135e-11 -1.65153e-11
-1.1623e-11 -1.57232e-10 4.54064e-11
1.31222e-10 -3.98009e-13 4.34444e-13
-8.74633e-13 5.23931e-12 -3.92882e-12
-9.70839e-11 9.40728e-11 -9.41308e-12
3.69235e-11 -7.11564e-11 2.45263e-12
5.90677e-12 9.32256e-12 -1.59694e-12
-2.44493e-11 -1.63542e-10 3.16837e-11
-1.89718e-23 -1.80946e-24 2.06795e-25
-1.18531e-13 -6.21173e-11 -1.38825e-12
6.02375e-11 7.09869e-11 4.45731e-11
3.45622e-11 -1.08608e-10 1.48229e-10
8.24554e-12 1.7589e-11 -4.17022e-11
-1.17322e-10 3.82724e-11 1.56384e-12
5.75751e-12 4.41137e-11 4.39291e-11
-4.60318e-11 -5.11763e-11 -3.34325e-11
7.96067e-12 2.8783e-11 -7.8921e-12
1.89383e-11 1.07686e-10 -9.83381e-12
-8.45127e-12 1.05626e-11 -2.57673e-10
-6.52697e-12 2.40669e-11 2.42605e-11
2.19328e-12 4.19013e-11 -5.27254e-11
1.51623e-10 -5.75316e-11 2.90196e-11
-9.24184e-11 1.05918e-11 -7.57846e-12
6.42541e-11 5.09883e-12 1.14516e-11
2.08757e-10 -3.58797e-11 3.04331e-11
2.72328e-12 1.33362e-11 -4.49269e-12
-7.24725e-11 3.02158e-11 -4.07152e-11
1.33074e-10 -3.31187e-11 -3.17589e-10
4.58842e-11 2.68065e-11 -4.66248e-12
2.90203e-10 3.44369e-11 -2.63882e-11
3.7985e-11 1.19071e-10 -1.0871e-11
-4.56889e-11 -5.99458e-11 3.55999e-11
-1.42401e-11 -2.04888e-10 -2.78525e-10
4.15283e-11 9.397e-11 -1.12757e-11
2.43038e-11 7.44207e-11 -9.94787e-12
2.72616e-11 1.68161e-11 -5.95025e-11
3.74869e-10 1.09989e-10 -3.38785e-11
-1.57102e-11 6.35513e-12 -4.9892e-12
-1.22548e-10 -4.36611e-10 7.82489e-11
-2.92039e-11 2.44439e-11 5.74141e-12
5.16062e-11 1.13694e-11 5.53957e-13
-1.67049e-10 -9.51624e-11 -8.17277e-11
-7.18705e-11 -8.27274e-12 8.71713e-12
1.14666e-10 -3.4784e-10 4.1925e-11
-3.18449e-11 4.98818e-11 -1.4692e-11
6.08316e-10 -1.02479e-10 -1.06194e-11
1.00359e-11 -1.29114e-10 1.60906e-11
9.60357e-11 4.35329e-12 -9.07414e-12
-9.01039e-11 7.83638e-11 -2.37426e-11
6.7187e-11 -5.11155e-12 -1.22592e-10
-3.63387e-11 8.69727e-11 -5.13478e-11
4.32547e-10 -1.36929e-12 -2.34654e-11
-4.30748e-11 2.46442e-11 3.90093e-12
-8.73484e-11 -1.12063e-11 5.08231e-12
1.44687e-11 -1.54716e-10 2.08717e-10
3.94107e-11 -1.92522e-10 1.16131e-10
-5.31773e-12 -3.20487e-11 1.15294e-11
1.24102e-12 -4.24442e-11 1.83118e-11
-8.46276e-11 1.44108e-10 -3.48939e-12
2.79402e-10 -5.12223e-11 1.16933e-10
5.34509e-11 1.51549e-11 -2.80911e-11
3.69169e-11 -1.59115e-12 -1.62693e-11
-4.55521e-21 1.59279e-21 3.57756e-23
-3.23117e-27 0.0 0.0
-4.23836e-10 1.93081e-10 5.80761e-11
4.04341e-10 -3.08903e-10 1.84741e-11
3.35919e-10 -3.66306e-10 4.79332e-11
3.03398e-10 -3.57371e-10 2.53979e-11
7.48971e-12 1.41548e-10 -1.37417e-11
-9.00738e-11 -6.84704e-11 4.13298e-11
5.5577e-11 -3.09969e-11 1.67008e-11
7.22657e-11 -3.6003e-10 1.74333e-10
5.28517e-11 1.66826e-10 -2.25538e-11
2.19554e-11 -3.0229e-10 8.10423e-11
-2.03629e-11 -3.66828e-10 5.76304e-11