# vtk DataFile Version 3.0
LIGGGHTS particles timestep 9600000
ASCII
DATASET POLYDATA
POINTS 287 float
0.0687771 0.0162268 0.00794624
0.0691813 0.0171586 0.00728087
0.0626063 0.0159465 0.00823109
0.0690864 0.0175501 0.0071608
0.0686609 0.0161234 0.00802509
0.0747356 0.0164076 0.00780702
0.0688388 0.0168417 0.00751299
0.0685591 0.0157391 0.00832837
0.074982 0.0174881 0.0072151
0.0687814 0.0166014 0.00768321
0.069218 0.0173204 0.00716902
0.0628073 0.0167354 0.00765179
0.0686405 0.0160462 0.00808538
0.0625208 0.0156495 0.00848423
0.0689716 0.0170272 0.00737904
0.0624993 0.0155788 0.00855154
0.0687619 0.0165214 0.00773992
0.0748698 0.0169575 0.00739626
0.0686204 0.0159703 0.00814734
0.0687565 0.0161495 0.00800658
0.068877 0.0170019 0.0073995
0.06298 0.0170798 0.00740143
0.0749263 0.0171934 0.0072234
0.0688197 0.0167616 0.00756974
0.0748131 0.0167211 0.00757107
0.0628841 0.0170519 0.00741961
0.0690674 0.017452 0.00716137
0.0685998 0.0158927 0.00820686
0.0691051 0.0172126 0.00724513
0.0688579 0.0169218 0.00745625
0.0689525 0.0169471 0.00743578
0.0747552 0.0164859 0.00774805
0.0687421 0.0164414 0.0077966
0.0689334 0.016867 0.00749252
0.0750225 0.0176838 0.0072094
0.0688952 0.0167069 0.00760601
0.0690472 0.0169725 0.0074153
0.0749449 0.0172916 0.00722065
0.0687018 0.0162817 0.00791
0.0688962 0.0170819 0.00734276
0.0690665 0.0170525 0.00735858
0.0747745 0.0165643 0.00768905
0.0748584 0.0168764 0.00745371
0.0687222 0.0163615 0.00785327
0.0689345 0.0172421 0.00722929
0.0748322 0.0167996 0.00751205
0.0689914 0.0175179 0.00715751
0.0689729 0.0174196 0.00715817
0.0627883 0.0166563 0.00770986
0.0748893 0.0170344 0.0073354
0.068736 0.0160727 0.00806732
0.062564 0.0157918 0.00835047
0.0689143 0.0167869 0.00754927
0.0747943 0.0166426 0.00763009
0.0689706 0.0166521 0.00764227
0.0689897 0.0167322 0.00758552
0.0686813 0.0162023 0.00796725
0.0690858 0.0171326 0.00730185
0.0690293 0.0172675 0.00720897
0.0749212 0.0171097 0.00727784
0.0629033 0.0167633 0.00763361
0.0628452 0.016526 0.00780769
0.0692 0.0172388 0.0072241
0.0691443 0.0173882 0.00716523
0.0688373 0.0164667 0.00777619
0.0749634 0.0173899 0.00721787
0.0625424 0.0157203 0.00841698
0.0691239 0.0172932 0.00718896
0.0688006 0.0166815 0.00762648
0.0689909 0.0171073 0.00732231
0.0631138 0.0176835 0.00710478
0.0692356 0.018234 0.00715753
0.0626271 0.016025 0.00817274
0.0628271 0.0168145 0.00759385
0.0690522 0.0178116 0.00715597
0.0627691 0.0165771 0.00776789
0.0629032 0.0171311 0.00736155
0.0629038 0.0163978 0.00790406
0.0750007 0.0175863 0.00721232
0.0627234 0.016052 0.00815524
0.069048 0.0173537 0.00716191
0.0689515 0.016572 0.00769901
0.0691172 0.0181047 0.00715462
0.0690739 0.0179095 0.00715552
0.069162 0.0170786 0.0073376
0.0628468 0.0168935 0.00753584
0.0691838 0.0175842 0.00716417
0.0691706 0.0179412 0.00715889
0.0692476 0.0178774 0.00716276
0.0690305 0.017714 0.00715643
0.0692043 0.0176821 0.00716367
0.0627293 0.0164191 0.00788379
0.0691389 0.0182023 0.00715416
0.0628835 0.0166843 0.00769158
0.0691234 0.0169185 0.00745105
0.0628256 0.0164469 0.00786569
0.0643568 0.0187248 0.00531097
0.24257 0.0191927 0.00520306
0.0631253 0.0173654 0.00723005
0.0626892 0.0162666 0.00800668
0.0632051 0.0173047 0.00724088
0.062648 0.0161042 0.00811545
0.0688761 0.0166268 0.00766275
0.0689537 0.0173222 0.00717255
0.0693008 0.0177137 0.00716703
0.0691822 0.0183976 0.00715326
0.0627495 0.0164981 0.00782589
0.0635099 0.0178252 0.00709745
0.0630788 0.0171096 0.00738195
0.0690103 0.0171873 0.00726563
0.0688568 0.0165467 0.00771948
0.0687156 0.0159958 0.00812812
0.0625852 0.0158672 0.00828835
0.0690088 0.0168123 0.00752878
0.0685795 0.0158159 0.00826762
0.068538 0.0156624 0.008389
0.0693225 0.0178113 0.00716658
0.0627649 0.01621 0.00803941
0.0691274 0.0177459 0.0071598
0.0686955 0.015919 0.00818896
0.0689154 0.017162 0.00728603
0.062709 0.0163409 0.00794275
0.0690105 0.017616 0.00715695
0.0690955 0.0180071 0.00715507
0.0630006 0.0171588 0.00734358
0.0628645 0.0166051 0.00774966
0.0691066 0.0176481 0.00716029
0.0688731 0.0162532 0.00792741
0.0690279 0.0168924 0.00747203
0.0686748 0.0158422 0.00824966
0.0627023 0.015973 0.00821313
0.0692038 0.0184952 0.00715281
0.0688175 0.0163866 0.00783292
0.0693441 0.0179089 0.00716612
0.0627434 0.016131 0.00809729
0.0630983 0.0171892 0.00732356
0.062668 0.0161828 0.00805699
0.0630582 0.0170307 0.0074398
0.0629234 0.0164769 0.00784606
0.0626813 0.0158939 0.00827111
0.0629607 0.0173683 0.00718749
0.0692692 0.017975 0.00716231
0.0629617 0.0166351 0.00772996
0.063295 0.0173413 0.00721698
0.0628054 0.0163679 0.00792359
0.0630541 0.0173985 0.00716756
0.0631362 0.0177822 0.00710911
0.0630374 0.0173177 0.00722691
0.0219312 0.0187687 0.00551176
0.0631472 0.0174668 0.00719572
0.0691641 0.0174862 0.00716472
0.0630403 0.0177512 0.00711162
0.0630521 0.0174827 0.00710523
0.0633097 0.018124 0.00712051
0.0633652 0.0175935 0.00709131
0.0688322 0.0160997 0.00804888
0.0629427 0.016556 0.00778803
0.0632081 0.0173884 0.00717902
0.0634362 0.0178925 0.00710371
0.063258 0.0175534 0.00709262
0.0688526 0.0161764 0.00798814
0.0633425 0.0174968 0.00710232
0.0692943 0.0172648 0.00720315
0.0632029 0.0176359 0.00710487
0.0569419 0.0172802 0.0072152
0.0630197 0.0172379 0.00728551
0.0630834 0.0179464 0.00711966
0.0634884 0.0177274 0.00709314
0.0634147 0.0177947 0.0070994
0.063 0.017559 0.0071436
0.0687976 0.016307 0.00789008
0.0632121 0.0174688 0.00711966
0.0691032 0.0174964 0.00724347
0.0629435 0.0172913 0.00724887
0.0629797 0.0174653 0.00717198
0.0691041 0.0168384 0.00750778
0.0691923 0.0180388 0.00715844
0.0691427 0.0169985 0.00739433
0.0570558 0.0174108 0.00721127
0.0692255 0.0185928 0.00715235
0.0631809 0.017145 0.00735841
0.0689322 0.016492 0.00775574
0.0630012 0.0167932 0.00761401
0.0633931 0.0176972 0.00709511
0.0624777 0.015508 0.00861886
0.0569995 0.0175745 0.00720868
0.0628648 0.0169729 0.00747777
0.0630872 0.0175823 0.00710049
0.0629607 0.0170007 0.00745947
0.0634054 0.0181549 0.00711856
0.0631979 0.0172244 0.00730008
0.0693167 0.0173573 0.0071724
0.062941 0.0169217 0.00751744
0.0632667 0.0179289 0.00711191
0.0632235 0.0177338 0.00710333
0.0627852 0.016289 0.00798151
0.063169 0.0175536 0.00715039
0.0629814 0.0167142 0.00767198
0.068957 0.0172458 0.00732667
0.0692259 0.0177797 0.00716321
0.0632977 0.0176671 0.00709708
0.069085 0.0167583 0.00756452
0.0691489 0.0178435 0.00715934
0.0570364 0.0173127 0.00721342
0.0630619 0.0178488 0.00711536
0.068893 0.016332 0.00786913
0.0631795 0.0179777 0.0071177
0.0691605 0.0183 0.00715371
0.0630193 0.0176537 0.00711785
0.056945 0.0169343 0.00749423
0.0689127 0.016412 0.00781244
0.0631152 0.0172718 0.0072697
0.0629242 0.0172108 0.007305
0.069239 0.0174201 0.00716852
0.0633098 0.0174235 0.00716197
0.057003 0.0171422 0.0072858
0.0569607 0.0173784 0.00721499
0.0630561 0.0174772 0.00723549
0.0633527 0.0183191 0.0071291
0.0569224 0.0171856 0.00724085
0.0628836 0.0163188 0.00796196
0.0630192 0.0168725 0.00755581
0.0692139 0.0181364 0.00715799
0.0633958 0.0185143 0.00713768
0.0633742 0.0184167 0.00713339
0.0634484 0.01835 0.00712715
0.0567613 0.0165934 0.00789138
0.0568155 0.0167851 0.00766713
0.0567396 0.0165302 0.00796576
0.0631412 0.0169869 0.00747432
0.062923 0.0168424 0.00757564
0.0567807 0.0166571 0.00781675
0.0568911 0.0170643 0.00739588
0.0632881 0.0180264 0.00711621
0.0634577 0.0179901 0.007108
0.0570211 0.0176721 0.00720649
0.063158 0.0178801 0.00711341
0.0692793 0.017616 0.00716749
0.0570644 0.0178673 0.00720307
0.0569862 0.0170726 0.00735568
0.0568681 0.0169809 0.00744605
0.06266 0.0158147 0.00832911
0.0632451 0.0178313 0.00710762
0.0631479 0.018239 0.00713253
0.0632011 0.0180752 0.007122
0.057086 0.017965 0.00720162
0.0630389 0.0169516 0.00749784
0.0633088 0.0185634 0.00714348
0.0634269 0.0182524 0.00712285
0.0568501 0.0169151 0.00751918
0.0631694 0.0183366 0.00713683
0.0569801 0.0174764 0.0072108
0.0632879 0.0172606 0.00727563
0.0632441 0.0182704 0.00713059
0.0629853 0.0174165 0.00727161
0.0631264 0.0181415 0.00712824
0.0692589 0.0175181 0.00716799
0.0633193 0.0177646 0.00710137
0.0571292 0.0181602 0.00719871
0.0632339 0.0186293 0.00714971
0.0571076 0.0180626 0.00720016
0.0632226 0.0181728 0.0071263
0.0631049 0.0180439 0.00712394
0.0632554 0.0187269 0.00715401
0.0633624 0.0179597 0.00710996
0.0569111 0.0171301 0.00732332
0.057075 0.0175089 0.00720912
0.0631219 0.0169078 0.00753236
0.0569651 0.0170035 0.00742488
0.0567968 0.0167213 0.00774183
0.0632871 0.0184655 0.00713918
0.0632656 0.018368 0.00713489
0.0631909 0.0184342 0.00714112
0.0633312 0.0182216 0.0071248
0.0632124 0.0185317 0.00714542
0.0631022 0.0168287 0.00759034
0.0631618 0.0170658 0.00741647
0.0633839 0.0180573 0.00711426
0.0628634 0.0162398 0.00801987
0.0633409 0.0178622 0.00710567
0.0632769 0.0188244 0.00715831
0.0570154 0.0172124 0.00721563
0.06347 0.0184475 0.00713144
0.0690659 0.0166782 0.00762127
0.0568337 0.0168495 0.00759282
0.0570427 0.0177697 0.00720456
0.0691787 0.0173565 0.00725362

VERTICES 287 574
1 0
1 1
1 2
1 3
1 4
1 5
1 6
1 7
1 8
1 9
1 10
1 11
1 12
1 13
1 14
1 15
1 16
1 17
1 18
1 19
1 20
1 21
1 22
1 23
1 24
1 25
1 26
1 27
1 28
1 29
1 30
1 31
1 32
1 33
1 34
1 35
1 36
1 37
1 38
1 39
1 40
1 41
1 42
1 43
1 44
1 45
1 46
1 47
1 48
1 49
1 50
1 51
1 52
1 53
1 54
1 55
1 56
1 57
1 58
1 59
1 60
1 61
1 62
1 63
1 64
1 65
1 66
1 67
1 68
1 69
1 70
1 71
1 72
1 73
1 74
1 75
1 76
1 77
1 78
1 79
1 80
1 81
1 82
1 83
1 84
1 85
1 86
1 87
1 88
1 89
1 90
1 91
1 92
1 93
1 94
1 95
1 96
1 97
1 98
1 99
1 100
1 101
1 102
1 103
1 104
1 105
1 106
1 107
1 108
1 109
1 110
1 111
1 112
1 113
1 114
1 115
1 116
1 117
1 118
1 119
1 120
1 121
1 122
1 123
1 124
1 125
1 126
1 127
1 128
1 129
1 130
1 131
1 132
1 133
1 134
1 135
1 136
1 137
1 138
1 139
1 140
1 141
1 142
1 143
1 144
1 145
1 146
1 147
1 148
1 149
1 150
1 151
1 152
1 153
1 154
1 155
1 156
1 157
1 158
1 159
1 160
1 161
1 162
1 163
1 164
1 165
1 166
1 167
1 168
1 169
1 170
1 171
1 172
1 173
1 174
1 175
1 176
1 177
1 178
1 179
1 180
1 181
1 182
1 183
1 184
1 185
1 186
1 187
1 188
1 189
1 190
1 191
1 192
1 193
1 194
1 195
1 196
1 197
1 198
1 199
1 200
1 201
1 202
1 203
1 204
1 205
1 206
1 207
1 208
1 209
1 210
1 211
1 212
1 213
1 214
1 215
1 216
1 217
1 218
1 219
1 220
1 221
1 222
1 223
1 224
1 225
1 226
1 227
1 228
1 229
1 230
1 231
1 232
1 233
1 234
1 235
1 236
1 237
1 238
1 239
1 240
1 241
1 242
1 243
1 244
1 245
1 246
1 247
1 248
1 249
1 250
1 251
1 252
1 253
1 254
1 255
1 256
1 257
1 258
1 259
1 260
1 261
1 262
1 263
1 264
1 265
1 266
1 267
1 268
1 269
1 270
1 271
1 272
1 273
1 274
1 275
1 276
1 277
1 278
1 279
1 280
1 281
1 282
1 283
1 284
1 285
1 286

POINT_DATA 287
SCALARS id int 1
LOOKUP_TABLE default
1
2
3
4
5
6
7
8
9
10
11
12
13
14
15
16
17
18
19
21
22
23
24
25
26
27
28
29
30
31
32
33
34
35
36
37
38
39
41
42
44
45
46
47
48
49
50
51
52
53
54
55
56
57
59
60
61
62
63
64
65
66
67
68
69
70
71
72
73
74
76
77
78
79
80
81
82
83
84
85
86
87
88
89
90
91
92
93
94
95
96
97
98
99
100
101
102
103
104
105
106
107
108
109
110
111
112
113
114
115
116
117
118
119
120
121
122
123
124
125
126
127
128
129
130
131
132
133
134
135
136
137
138
140
141
142
143
144
146
147
148
149
150
151
153
154
155
156
157
158
159
160
162
164
165
166
167
168
169
170
171
172
173
174
175
176
177
178
179
181
182
183
184
185
186
187
188
189
190
191
192
193
194
195
196
197
198
199
200
201
202
203
204
205
206
207
208
209
210
211
212
213
214
215
216
217
218
219
220
221
222
223
224
225
226
227
228
229
230
231
232
233
234
235
236
237
239
240
241
242
243
244
246
247
248
249
250
251
252
253
254
255
256
257
258
259
260
261
262
263
264
265
266
267
268
269
270
271
272
273
274
275
276
277
278
279
280
281
282
283
284
285
286
287
288
289
290
291
292
293
294
295
296
297
298
299
300

SCALARS type int 1
LOOKUP_TABLE default
1
1
1
1
1
1
1
1
1
1
1
1
1
1
1
1
1
1
1
1
1
1
1
1
1
1
1
1
1
1
1
1
1
1
1
1
1
1
1
1
1
1
1
1
1
1
1
1
1
1
1
1
1
1
1
1
1
1
1
1
1
1
1
1
1
1
1
1
1
1
1
1
1
1
1
1
1
1
1
1
1
1
1
1
1
1
1
1
1
1
1
1
1
1
1
1
1
1
1
1
1
1
1
1
1
1
1
1
1
1
1
1
1
1
1
1
1
1
1
1
1
1
1
1
1
1
1
1
1
1
1
1
1
1
1
1
1
1
1
1
1
1
1
1
1
1
1
1
1
1
1
1
1
1
1
1
1
1
1
1
1
1
1
1
1
1
1
1
1
1
1
1
1
1
1
1
1
1
1
1
1
1
1
1
1
1
1
1
1
1
1
1
1
1
1
1
1
1
1
1
1
1
1
1
1
1
1
1
1
1
1
1
1
1
1
1
1
1
1
1
1
1
1
1
1
1
1
1
1
1
1
1
1
1
1
1
1
1
1
1
1
1
1
1
1
1
1
1
1
1
1
1
1
1
1
1
1
1
1
1
1
1
1
1
1
1
1
1
1
1
1
1
1
1
1
1
1
1
1
1
1
1
1
1
1
1
1

SCALARS radius float 1
LOOKUP_TABLE default
5e-05
5e-05
5e-05
5e-05
5e-05
5e-05
5e-05
5e-05
5e-05
5e-05
5e-05
5e-05
5e-05
5e-05
5e-05
5e-05
5e-05
5e-05
5e-05
5e-05
5e-05
5e-05
5e-05
5e-05
5e-05
5e-05
5e-05
5e-05
5e-05
5e-05
5e-05
5e-05
5e-05
5e-05
5e-05
5e-05
5e-05
5e-05
5e-05
5e-05
5e-05
5e-05
5e-05
5e-05
5e-05
5e-05
5e-05
5e-05
5e-05
5e-05
5e-05
5e-05
5e-05
5e-05
5e-05
5e-05
5e-05
5e-05
5e-05
5e-05
5e-05
5e-05
5e-05
5e-05
5e-05
5e-05
5e-05
5e-05
5e-05
5e-05
5e-05
5e-05
5e-05
5e-05
5e-05
5e-05
5e-05
5e-05
5e-05
5e-05
5e-05
5e-05
5e-05
5e-05
5e-05
5e-05
5e-05
5e-05
5e-05
5e-05
5e-05
5e-05
5e-05
5e-05
5e-05
5e-05
5e-05
5e-05
5e-05
5e-05
5e-05
5e-05
5e-05
5e-05
5e-05
5e-05
5e-05
5e-05
5e-05
5e-05
5e-05
5e-05
5e-05
5e-05
5e-05
5e-05
5e-05
5e-05
5e-05
5e-05
5e-05
5e-05
5e-05
5e-05
5e-05
5e-05
5e-05
5e-05
5e-05
5e-05
5e-05
5e-05
5e-05
5e-05
5e-05
5e-05
5e-05
5e-05
5e-05
5e-05
5e-05
5e-05
5e-05
5e-05
5e-05
5e-05
5e-05
5e-05
5e-05
5e-05
5e-05
5e-05
5e-05
5e-05
5e-05
5e-05
5e-05
5e-05
5e-05
5e-05
5e-05
5e-05
5e-05
5e-05
5e-05
5e-05
5e-05
5e-05
5e-05
5e-05
5e-05
5e-05
5e-05
5e-05
5e-05
5e-05
5e-05
5e-05
5e-05
5e-05
5e-05
5e-05
5e-05
5e-05
5e-05
5e-05
5e-05
5e-05
5e-05
5e-05
5e-05
5e-05
5e-05
5e-05
5e-05
5e-05
5e-05
5e-05
5e-05
5e-05
5e-05
5e-05
5e-05
5e-05
5e-05
5e-05
5e-05
5e-05
5e-05
5e-05
5e-05
5e-05
5e-05
5e-05
5e-05
5e-05
5e-05
5e-05
5e-05
5e-05
5e-05
5e-05
5e-05
5e-05
5e-05
5e-05
5e-05
5e-05
5e-05
5e-05
5e-05
5e-05
5e-05
5e-05
5e-05
5e-05
5e-05
5e-05
5e-05
5e-05
5e-05
5e-05
5e-05
5e-05
5e-05
5e-05
5e-05
5e-05
5e-05
5e-05
5e-05
5e-05
5e-05
5e-05
5e-05
5e-05
5e-05
5e-05
5e-05
5e-05
5e-05
5e-05
5e-05
5e-05
5e-05
5e-05
5e-05
5e-05
5e-05
5e-05
5e-05
5e-05
5e-05
5e-05
5e-05
5e-05
5e-05
5e-05
5e-05
5e-05
5e-05
5e-05
5e-05
5e-05
5e-05
5e-05
5e-05

SCALARS mass float 1
LOOKUP_TABLE default
1.46608e-10
1.46608e-10
1.46608e-10
1.46608e-10
1.46608e-10
1.46608e-10
1.46608e-10
1.46608e-10
1.46608e-10
1.46608e-10
1.46608e-10
1.46608e-10
1.46608e-10
1.46608e-10
1.46608e-10
1.46608e-10
1.46608e-10
1.46608e-10
1.46608e-10
1.46608e-10
1.46608e-10
1.46608e-10
1.46608e-10
1.46608e-10
1.46608e-10
1.46608e-10
1.46608e-10
1.46608e-10
1.46608e-10
1.46608e-10
1.46608e-10
1.46608e-10
1.46608e-10
1.46608e-10
1.46608e-10
1.46608e-10
1.46608e-10
1.46608e-10
1.46608e-10
1.46608e-10
1.46608e-10
1.46608e-10
1.46608e-10
1.46608e-10
1.46608e-10
1.46608e-10
1.46608e-10
1.46608e-10
1.46608e-10
1.46608e-10
1.46608e-10
1.46608e-10
1.46608e-10
1.46608e-10
1.46608e-10
1.46608e-10
1.46608e-10
1.46608e-10
1.46608e-10
1.46608e-10
1.46608e-10
1.46608e-10
1.46608e-10
1.46608e-10
1.46608e-10
1.46608e-10
1.46608e-10
1.46608e-10
1.46608e-10
1.46608e-10
1.46608e-10
1.46608e-10
1.46608e-10
1.46608e-10
1.46608e-10
1.46608e-10
1.46608e-10
1.46608e-10
1.46608e-10
1.46608e-10
1.46608e-10
1.46608e-10
1.46608e-10
1.46608e-10
1.46608e-10
1.46608e-10
1.46608e-10
1.46608e-10
1.46608e-10
1.46608e-10
1.46608e-10
1.46608e-10
1.46608e-10
1.46608e-10
1.46608e-10
1.46608e-10
1.46608e-10
1.46608e-10
1.46608e-10
1.46608e-10
1.46608e-10
1.46608e-10
1.46608e-10
1.46608e-10
1.46608e-10
1.46608e-10
1.46608e-10
1.46608e-10
1.46608e-10
1.46608e-10
1.46608e-10
1.46608e-10
1.46608e-10
1.46608e-10
1.46608e-10
1.46608e-10
1.46608e-10
1.46608e-10
1.46608e-10
1.46608e-10
1.46608e-10
1.46608e-10
1.46608e-10
1.46608e-10
1.46608e-10
1.46608e-10
1.46608e-10
1.46608e-10
1.46608e-10
1.46608e-10
1.46608e-10
1.46608e-10
1.46608e-10
1.46608e-10
1.46608e-10
1.46608e-10
1.46608e-10
1.46608e-10
1.46608e-10
1.46608e-10
1.46608e-10
1.46608e-10
1.46608e-10
1.46608e-10
1.46608e-10
1.46608e-10
1.46608e-10
1.46608e-10
1.46608e-10
1.46608e-10
1.46608e-10
1.46608e-10
1.46608e-10
1.46608e-10
1.46608e-10
1.46608e-10
1.46608e-10
1.46608e-10
1.46608e-10
1.46608e-10
1.46608e-10
1.46608e-10
1.46608e-10
1.46608e-10
1.46608e-10
1.46608e-10
1.46608e-10
1.46608e-10
1.46608e-10
1.46608e-10
1.46608e-10
1.46608e-10
1.46608e-10
1.46608e-10
1.46608e-10
1.46608e-10
1.46608e-10
1.46608e-10
1.46608e-10
1.46608e-10
1.46608e-10
1.46608e-10
1.46608e-10
1.46608e-10
1.46608e-10
1.46608e-10
1.46608e-10
1.46608e-10
1.46608e-10
1.46608e-10
1.46608e-10
1.46608e-10
1.46608e-10
1.46608e-10
1.46608e-10
1.46608e-10
1.46608e-10
1.46608e-10
1.46608e-10
1.46608e-10
1.46608e-10
1.46608e-10
1.46608e-10
1.46608e-10
1.46608e-10
1.46608e-10
1.46608e-10
1.46608e-10
1.46608e-10
1.46608e-10
1.46608e-10
1.46608e-10
1.46608e-10
1.46608e-10
1.46608e-10
1.46608e-10
1.46608e-10
1.46608e-10
1.46608e-10
1.46608e-10
1.46608e-10
1.46608e-10
1.46608e-10
1.46608e-10
1.46608e-10
1.46608e-10
1.46608e-10
1.46608e-10
1.46608e-10
1.46608e-10
1.46608e-10
1.46608e-10
1.46608e-10
1.46608e-10
1.46608e-10
1.46608e-10
1.46608e-10
1.46608e-10
1.46608e-10
1.46608e-10
1.46608e-10
1.46608e-10
1.46608e-10
1.46608e-10
1.46608e-10
1.46608e-10
1.46608e-10
1.46608e-10
1.46608e-10
1.46608e-10
1.46608e-10
1.46608e-10
1.46608e-10
1.46608e-10
1.46608e-10
1.46608e-10
1.46608e-10
1.46608e-10
1.46608e-10
1.46608e-10
1.46608e-10
1.46608e-10
1.46608e-10
1.46608e-10
1.46608e-10
1.46608e-10
1.46608e-10
1.46608e-10
1.46608e-10
1.46608e-10
1.46608e-10
1.46608e-10
1.46608e-10
1.46608e-10
1.46608e-10
1.46608e-10
1.46608e-10
1.46608e-10
1.46608e-10
1.46608e-10
1.46608e-10
1.46608e-10
1.46608e-10
1.46608e-10
1.46608e-10
1.46608e-10
1.46608e-10

VECTORS velocity float
0.00562818 -0.000574472 0.000161144
0.00546429 -0.000546903 0.000227279
0.00608731 0.000159589 3.18605e-05
0.00563043 -0.0005408 0.000227122
0.00561692 -0.000403327 0.000389571
0.00579095 -0.000128793 -0.000302985
0.00540134 -0.000494906 0.000194038
0.00552298 -0.000340449 0.000452534
0.0056719 -9.19905e-05 -0.000300677
0.0054701 -0.00053561 0.000219401
0.00551637 -0.00053041 0.000225809
0.00548055 0.000218084 -2.0034e-05
0.0056059 -0.000340412 0.000454838
0.00621304 -0.000292398 -0.000455747
0.00550243 -0.000515111 0.000206021
0.00621916 -0.000303194 -0.000454588
0.00547312 -0.000529263 0.000215326
0.00558311 -8.27949e-05 -0.000322279
0.00558857 -0.000338512 0.000451814
0.00560839 -0.00036165 0.000465971
0.0054587 -0.000483342 0.000184901
0.00563077 0.000168703 2.03204e-05
0.00566651 -8.92967e-05 -0.000300623
0.00536933 -0.000505096 0.000202383
0.00549957 -6.67615e-05 -0.000328292
0.00558132 0.000194214 -4.78283e-09
0.00554656 -0.000520194 0.000223305
0.00556592 -0.00033845 0.000451123
0.00548535 -0.000516631 0.000225919
0.00542576 -0.000488136 0.000188848
0.00544972 -0.000509709 0.000204182
0.00559766 -8.90404e-05 -0.000318887
0.00550425 -0.000523696 0.000224152
0.00536717 -0.000498491 0.000197509
0.00592856 -0.000147134 -0.000305912
0.00536045 -0.000495568 0.000195724
0.00540558 -0.000514935 0.000208099
0.00566005 -8.79656e-05 -0.000299893
0.00562992 -0.0005491 0.000221809
0.00552025 -0.000491915 0.000189361
0.00543126 -0.000516982 0.000209255
0.00559553 -8.71965e-05 -0.000320163
0.00555053 -7.94999e-05 -0.000322726
0.00564541 -0.000534971 0.000249684
0.00555082 -0.000513675 0.000198695
0.00551761 -7.12247e-05 -0.000326675
0.00563985 -0.000551649 0.000228067
0.00555434 -0.000532167 0.000220635
0.00548078 0.000226087 -2.53584e-05
0.00561291 -8.8227e-05 -0.000320007
0.00562131 -0.000344137 0.000456997
0.00616834 -8.01207e-05 -0.000244918
0.005325 -0.000491569 0.000194292
0.00549448 -6.61332e-05 -0.000328678
0.0053271 -0.000497972 0.000198106
0.00530465 -0.000497539 0.000199307
0.00562247 -0.000524469 0.000241893
0.00546142 -0.00051718 0.000215583
0.00550325 -0.00050186 0.000211734
0.00564563 -9.67128e-05 -0.000312936
0.0055395 0.000209027 -1.19484e-05
0.00555851 0.000181515 8.69648e-06
0.00549127 -0.000550891 0.000234013
0.00554094 -0.000523031 0.00022526
0.0054544 -0.000537067 0.000222263
0.00562339 -8.13607e-05 -0.000298532
0.00620616 -0.000313365 -0.000493214
0.00551253 -0.000518995 0.000228551
0.00537735 -0.000520452 0.000213004
0.00549312 -0.000510642 0.000202587
0.00594691 -0.000235224 -0.000238587
0.00581855 -0.000622611 0.000236493
0.00572959 0.000217028 -1.21721e-05
0.00554182 0.000204291 -7.79124e-06
0.00588232 -0.000600749 0.000239049
0.00557093 0.000217681 -1.6104e-05
0.00561696 0.000189596 5.60508e-06
0.00563449 0.000183382 9.51091e-06
0.00592259 -0.000142856 -0.00031099
0.00562666 0.000186057 6.93971e-06
0.00556979 -0.000510858 0.000224158
0.00540967 -0.000507349 0.000202577
0.00584539 -0.000633164 0.000237769
0.00587013 -0.000632053 0.000238238
0.0054381 -0.000542554 0.000227365
0.00557243 0.000199275 -3.08749e-06
0.00577882 -0.000586 0.000233869
0.00587332 -0.000621767 0.000238562
0.00586472 -0.000639687 0.000238413
0.00589727 -0.00060371 0.000239544
0.0058583 -0.000609848 0.000237405
0.00573334 0.000176846 1.5239e-05
0.00583582 -0.000627675 0.000237366
0.00550466 0.000210981 -1.39269e-05
0.00539066 -0.000544848 0.000229427
0.00558987 0.000171951 1.68995e-05
4.19058e-15 1.05128e-14 8.29622e-14
2.73478e-22 2.24983e-22 1.23839e-22
0.00564672 0.000174863 6.19287e-06
0.00571715 0.000195321 5.89389e-06
0.00569253 9.47735e-05 7.82954e-05
0.00566667 0.00022039 -1.72562e-05
0.00540058 -0.000507331 0.000203168
0.00557845 -0.000523992 0.000212644
0.00580907 -0.000657595 0.000236604
0.00582334 -0.000597157 0.000236374
0.005612 0.000204446 -6.30677e-06
0.00606029 0.000112237 -0.000219651
0.00560212 0.000127518 5.00465e-05
0.00547644 -0.000500085 0.000206357
0.00546825 -0.000531262 0.000218047
0.00562323 -0.00032359 0.00044178
0.00611828 0.000159958 3.87245e-05
0.00534926 -0.000509917 0.000205773
0.00553816 -0.000338241 0.000451641
0.00609015 -0.000428035 0.000540605
0.00585143 -0.000662619 0.000238191
0.00571554 0.000189385 7.67265e-06
0.00586956 -0.000605623 0.000238049
0.00557088 -0.000355919 0.00046646
0.00553824 -0.000501246 0.000193273
0.00571788 0.000182669 1.26459e-05
0.00581374 -0.000586867 0.000235381
0.00585781 -0.000632622 0.000238167
0.00562453 0.000159403 2.7082e-05
0.00552122 0.000197678 -3.77235e-06
0.00579281 -0.000580865 0.000234375
0.00560999 -0.000365192 0.000473141
0.00538363 -0.000515139 0.000208799
0.00558218 -0.000325412 0.000442761
0.0058221 0.000303143 -7.47286e-05
0.00581495 -0.000577112 0.000235794
0.00558416 -0.00045601 0.000168433
0.00583587 -0.000659523 0.000237555
0.00568005 0.000179304 1.46089e-05
0.00561998 0.000113346 6.0803e-05
0.00570877 0.000205132 -4.62305e-06
0.00562761 0.000160797 2.58776e-05
0.00557299 0.000190128 3.24521e-06
0.00609525 0.000177217 2.46882e-05
0.00568218 0.000162703 1.94325e-05
0.00586225 -0.000622484 0.000238187
0.00549419 0.000194839 -2.63426e-06
0.00571262 9.57424e-05 0.000136907
0.00568305 0.000161094 2.6841e-05
0.00570061 0.000219593 -1.52987e-05
0.00610836 5.22654e-05 -0.000226041
0.00567397 0.000158537 2.05095e-05
-3.83545e-14 8.16607e-14 2.95886e-13
0.00565002 0.000322518 -8.04236e-07
0.0056264 -0.000547779 0.000226316
0.00611813 2.83464e-05 -0.000213138
0.00565734 0.000146962 2.97714e-05
0.00603863 4.18009e-05 -0.000223405
0.00603249 -2.74584e-05 -0.000198315
0.00559647 -0.000362094 0.000473897
0.00552198 0.000191792 6.58326e-07
0.00560409 0.00024423 -3.27357e-05
0.00607678 4.56261e-05 -0.000223566
0.00592736 1.95176e-06 -0.000225225
0.00559446 -0.000362792 0.000471038
0.00564519 9.12569e-05 7.88391e-05
0.00550489 -0.000592572 0.000258296
0.00601902 5.77109e-05 -0.000265544
0.00570625 0.000147627 -8.96292e-05
0.0056508 0.00015083 3.41918e-05
0.00609039 5.48036e-05 -0.000220769
0.00609491 5.52931e-05 -0.000224021
0.00607816 6.02005e-05 -0.000222509
0.00565531 0.000151217 -1.19629e-07
0.00563762 -0.000506945 0.000257382
0.00558682 0.000253365 -4.04692e-05
0.0055609 -0.000550343 0.000232557
0.00567521 0.000170991 1.6809e-05
0.00565536 0.000168212 3.74617e-05
0.00536308 -0.000545445 0.00023094
0.00585513 -0.000621232 0.000237659
0.0054072 -0.000540939 0.000227236
0.0058796 5.73162e-05 -6.52129e-05
0.00581086 -0.00055459 0.000235236
0.00560637 8.99262e-05 7.75507e-05
0.00548599 -0.000517086 0.000207902
0.00556711 0.000189906 3.14178e-06
0.00609406 4.33055e-05 -0.00022381
0.00624202 -0.000307376 -0.000451144
0.00605187 0.000104248 -5.96993e-05
0.00556878 0.000199621 -3.11002e-06
0.0056383 -0.00012725 -0.000217914
0.00561077 0.000181836 1.01049e-05
0.00600568 4.35422e-05 -0.000219842
0.00564166 8.88816e-05 7.84919e-05
0.00555765 -0.000620627 0.000224696
0.00557864 0.000192887 9.89836e-07
0.00606273 3.77396e-05 -0.000223645
0.00610163 4.55287e-05 -0.000228376
0.00568524 0.000150875 3.37568e-05
0.00561397 0.000308314 -8.56765e-05
0.00553553 0.000191554 8.89823e-07
0.0054653 -0.00049319 0.00020773
0.00585306 -0.000631117 0.000237843
0.0060901 3.09888e-05 -0.000224434
0.00531133 -0.000544959 0.000232275
0.00587811 -0.000616883 0.000238511
0.00573344 8.21462e-05 -6.32715e-05
0.00610356 4.49011e-05 -0.000227179
0.00552816 -0.000530983 0.000212246
0.00606921 5.32628e-05 -0.00022335
0.00583069 -0.000608368 0.00023659
0.00587998 7.79639e-05 -0.000125352
0.0055482 0.000138858 -3.445e-05
0.00552063 -0.00052257 0.000214609
0.00566027 0.000118768 2.09896e-05
0.00565673 0.000182667 1.44428e-05
0.00557223 -0.000608037 0.00022674
0.00573371 0.000145216 0.000202595
0.00566671 0.000165321 -7.33512e-05
0.00566643 0.000161903 -0.000111488
0.00566347 0.000178375 3.94611e-05
0.00598337 5.57082e-05 -0.000219817
0.00571542 0.000146782 -6.0483e-05
0.00567202 0.000162993 2.52448e-05
0.00557941 0.000187163 5.54369e-06
0.0058204 -0.000620151 0.000236541
0.00592582 4.54584e-05 -0.000216049
0.00594602 4.57643e-05 -0.000218283
0.00594449 4.89833e-05 -0.000218896
0.00621928 -0.000367073 -0.000337003
0.00516452 -0.00012701 -0.000448596
0.00643035 -0.000340315 -0.000367211
0.00557998 0.00010472 6.63273e-05
0.00556956 0.000199519 -4.08376e-06
0.00584145 -0.00025071 -0.000402754
0.00561088 0.000171034 -7.85749e-05
0.00606752 3.35564e-05 -0.000222199
0.0060633 5.2552e-05 -0.000222424
0.00604676 0.000122047 -6.88853e-05
0.00608872 5.38545e-05 -0.000224059
0.00581582 -0.000659444 0.000237041
0.00602627 0.000155432 -0.000143107
0.00565989 0.00013898 -4.34888e-05
0.0055716 0.000173892 -0.000105059
0.00615281 0.000198609 1.1604e-05
0.00608048 3.37446e-05 -0.000224404
0.00604392 7.95439e-05 -0.000223164
0.00607667 5.34002e-05 -0.000223479
0.006014 0.000168853 -0.000139971
0.0056027 0.000175456 1.51407e-05
0.00594054 6.34692e-05 -0.000220823
0.00597415 4.74814e-05 -0.000219613
0.00553405 5.08458e-05 -0.000199472
0.00601633 8.10297e-05 -0.000221626
0.00591552 0.000121758 -7.10492e-05
0.00567932 6.66574e-05 9.84317e-05
0.00601991 7.95943e-05 -0.000216845
0.00569642 0.000143238 6.24812e-06
0.00608002 6.67629e-05 -0.000220782
0.00566676 -0.00062781 0.000230305
0.00608695 3.39737e-05 -0.000225651
0.00599258 0.000192999 -0.000142297
0.00595708 7.38956e-05 -0.000215257
0.00600233 0.00018221 -0.000142376
0.00605767 8.36694e-05 -0.000218166
0.00608325 6.18924e-05 -0.000215869
0.00594211 8.04935e-05 -0.000218036
0.0060679 3.43187e-05 -0.000223613
0.00567231 0.000158124 -5.52057e-05
0.00600816 3.95603e-05 -6.67139e-05
0.00559111 0.00015947 2.60101e-05
0.00559557 0.000131454 -4.24924e-05
0.00543386 -0.000123321 -0.00045137
0.00596367 7.25718e-05 -0.00021945
0.0059988 8.26952e-05 -0.000217669
0.00599817 7.94557e-05 -0.000219415
0.00600577 5.11694e-05 -0.00022376
0.00597581 7.54858e-05 -0.000215933
0.00555264 0.000165349 2.06733e-05
0.00559659 9.63596e-05 7.3222e-05
0.00604135 3.60393e-05 -0.00022475
0.00568711 0.000156361 3.08438e-05
0.00607329 3.66935e-05 -0.000224251
0.00592248 8.60807e-05 -0.000215482
0.0057173 0.000159594 -6.46164e-05
0.00592412 5.05704e-05 -0.000218113
0.00522901 -0.00053989 0.000230795
0.00534806 -0.000120773 -0.000368846
0.00604005 0.000139067 -0.000112868
0.00555236 -0.000490172 0.000227795

VECTORS force float
3.81937e-11 -2.99591e-10 1.7333e-10
-9.19909e-11 2.06755e-11 -3.24038e-11
-1.36957e-12 8.08575e-11 -3.17913e-11
2.9417e-11 -6.23009e-11 -1.19905e-12
-4.47414e-11 -1.26227e-10 1.25796e-10
4.44292e-12 4.99728e-11 -3.60362e-11
2.15087e-10 7.89301e-11 -6.38041e-11
2.72327e-11 1.59123e-10 -1.23181e-10
6.46877e-12 -4.45213e-11 1.08353e-11
1.44743e-10 -9.33294e-11 7.53893e-11
1.34157e-10 -1.35335e-11 6.16113e-11
1.52607e-10 -5.05099e-11 4.70255e-11
1.80511e-11 -3.14712e-11 5.90726e-11
-2.2683e-11 1.93392e-10 4.00394e-11
-7.09506e-11 2.35968e-11 -2.58441e-11
2.70589e-12 1.37197e-11 1.8492e-11
-1.01581e-11 -2.2663e-10 1.65447e-10
-1.44578e-11 5.00543e-15 5.55407e-14
4.06548e-11 3.19512e-11 2.18667e-11
2.04508e-11 -2.89982e-10 2.91233e-10
-2.40109e-10 2.02145e-10 -1.31751e-10
1.71446e-10 8.06969e-11 -5.27414e-11
3.13641e-11 1.26886e-11 -6.599e-12
1.19537e-12 2.37216e-11 -1.61061e-11
-1.01839e-11 6.47324e-13 -2.44198e-12
1.05748e-10 -1.17467e-11 9.28212e-12
9.87502e-12 -1.22229e-11 9.17003e-12
5.83872e-12 1.04462e-10 -7.38587e-11
-5.83735e-12 1.00328e-10 1.1132e-10
8.82522e-11 1.64399e-10 -1.25764e-10
5.27937e-11 3.50188e-11 -4.4711e-11
-4.05216e-11 3.95441e-11 -2.66518e-11
1.35443e-10 -1.83345e-10 1.77789e-10
-8.58913e-11 9.37085e-11 -4.12373e-11
1.9276e-10 1.27742e-11 -3.08833e-10
-1.05852e-10 1.61974e-10 -1.15778e-10
-1.00325e-10 7.27291e-11 -4.59035e-11
1.50553e-12 -6.91326e-13 -2.16817e-13
1.91388e-10 1.05823e-10 3.60871e-10
-2.36812e-11 1.24761e-10 -9.87033e-11
6.67286e-11 5.6567e-11 -4.42095e-11
8.52941e-12 1.92888e-12 -4.05017e-12
-3.28631e-11 3.55529e-12 -5.61345e-12
-1.0853e-11 -3.53958e-11 1.86878e-10
1.36715e-10 3.77719e-11 -7.61091e-11
-9.74716e-12 7.0384e-13 1.06177e-12
-5.27609e-11 1.24189e-10 -8.45635e-12
-4.51985e-12 1.37709e-10 -6.60746e-11
5.61654e-11 -5.03917e-11 3.07538e-11
3.20154e-13 -7.60337e-12 -4.5232e-12
1.21286e-10 2.39726e-11 7.56609e-11
4.19106e-10 -1.21645e-10 -3.172e-10
-6.02523e-11 1.22397e-10 -8.82815e-11
-9.93135e-12 5.1545e-12 -1.01289e-12
1.38894e-10 -2.58344e-11 3.94536e-12
4.23545e-11 1.95925e-11 -2.04752e-11
-5.34687e-11 6.0071e-11 5.00835e-10
5.4738e-11 5.05449e-11 2.40381e-11
7.98841e-11 -5.40289e-11 3.62494e-11
-3.97864e-12 7.93932e-12 6.88877e-12