# vtk DataFile Version 3.0
LIGGGHTS particles timestep 16800000
ASCII
DATASET POLYDATA
POINTS 287 float
0.110835 0.0165777 0.00782793
0.111265 0.0176338 0.00717239
0.104572 0.0158682 0.00822021
0.111153 0.0179358 0.00704885
0.110718 0.0164663 0.00789163
0.116781 0.0167139 0.00774662
0.110905 0.0172103 0.00742093
0.110611 0.016052 0.00815353
0.117028 0.0177493 0.00706509
0.110846 0.0169618 0.00757839
0.111303 0.0178083 0.00708329
0.104784 0.0166831 0.00768073
0.110697 0.0163937 0.00795683
0.104485 0.0155729 0.00847326
0.111037 0.0174066 0.00730309
0.104467 0.0155428 0.00856681
0.110825 0.0168792 0.00763069
0.116914 0.0172134 0.00727504
0.110675 0.0163194 0.00802014
0.110814 0.0164951 0.00788012
0.110943 0.0173806 0.00732356
0.104976 0.0171167 0.0073882
0.11697 0.0174623 0.00712979
0.110886 0.0171274 0.00747354
0.116861 0.0169978 0.00747672
0.104863 0.0170089 0.00746269
0.111133 0.0178439 0.00708308
0.110652 0.0162281 0.00807199
0.11117 0.0176029 0.00718525
0.110924 0.0172933 0.00736829
0.111019 0.0173236 0.00735574
0.116802 0.0167846 0.0076793
0.110804 0.0167966 0.00768288
0.111 0.0172407 0.00740833
0.117064 0.0179436 0.00709546
0.110961 0.0170747 0.0075136
0.111113 0.0173542 0.00734301
0.116989 0.0175578 0.00710749
0.110761 0.0166315 0.00778725
0.110962 0.0174646 0.00727265
0.111132 0.0174371 0.00729043
0.116823 0.0168554 0.00761189
0.116897 0.0171406 0.00734136
0.110783 0.016714 0.00773507
0.111 0.0176321 0.0071685
0.116879 0.0170692 0.00740903
0.111058 0.0179078 0.00706583
0.111039 0.0178159 0.00710006
0.104763 0.0166005 0.00773323
0.116932 0.0172875 0.00721028
0.110792 0.0164124 0.00793241
0.104529 0.0157097 0.00833423
0.11098 0.0171578 0.00746092
0.116843 0.0169264 0.00754438
0.111036 0.0170222 0.00755354
0.111056 0.0171055 0.00750076
0.11074 0.0165489 0.00783944
0.111152 0.0175199 0.00723794
0.111095 0.0176626 0.00715775
0.11695 0.0173668 0.00715205
0.1049 0.0167885 0.00760377
0.104839 0.0165438 0.00776632
0.111283 0.0177168 0.00711964
0.111208 0.0177802 0.00710059
0.110899 0.0168255 0.00767134
0.117009 0.0176533 0.00708518
0.104507 0.0156423 0.00840469
0.111189 0.017691 0.00714158
0.110866 0.0170446 0.00752602
0.111056 0.0174896 0.00725042
0.105088 0.017605 0.00705806
0.111175 0.0184548 0.00686479
0.104593 0.0159496 0.0081661
0.104804 0.0167643 0.00762609
0.111098 0.0180971 0.00702052
0.104743 0.0165189 0.00778743
0.104882 0.0170907 0.00740851
0.104935 0.0165689 0.00774516
0.117046 0.0178465 0.00708027
0.10471 0.0160545 0.00809178
0.111114 0.0177524 0.00711836
0.111016 0.0169384 0.00760658
0.111116 0.0181783 0.0069651
0.111167 0.0182529 0.00702428
0.111246 0.017551 0.00722489
0.104824 0.0168451 0.0075707
0.111289 0.0180996 0.00698044
0.111211 0.0182047 0.00694869
0.111344 0.0184228 0.00687342
0.111264 0.0181827 0.00703041
0.111311 0.018199 0.00694336
0.1047 0.0163562 0.00789563
0.111135 0.0182702 0.00693087
0.104879 0.0167069 0.00765798
0.111207 0.0173848 0.00733025
0.104818 0.0164622 0.00782055
0.0643568 0.0187248 0.00531097
0.24257 0.0191927 0.00520306
0.105164 0.0175503 0.00709386
0.104657 0.0161935 0.00800382
0.10524 0.0174939 0.00712674
0.104615 0.0160309 0.00811201
0.110941 0.0169914 0.00756634
0.111019 0.017724 0.00713428
0.11126 0.0188443 0.0069078
0.111294 0.0185879 0.00688584
0.104722 0.0164375 0.00784154
0.105555 0.0181992 0.00699748
0.105108 0.0173055 0.00725794
0.111075 0.0175769 0.00720559
0.11092 0.0169084 0.00761887
0.110769 0.0163299 0.00798437
0.10455 0.0157869 0.00827429
0.111075 0.0171884 0.00744818
0.110632 0.0161345 0.00810134
0.11059 0.0159694 0.00820572
0.111238 0.0187473 0.00689705
0.104753 0.0162172 0.00798355
0.11119 0.0181131 0.0069829
0.110743 0.016248 0.00803582
0.11098 0.0175431 0.00720977
0.104679 0.0162749 0.00794973
0.111078 0.0179997 0.00703161
0.111301 0.0182888 0.00698624
0.104995 0.0171976 0.00733231
0.104859 0.0166254 0.00771215
0.111172 0.0180336 0.00704101
0.11093 0.0166065 0.00781645
0.111094 0.0172713 0.00739559
0.110728 0.0161647 0.00808892
0.104689 0.0159731 0.0081459
0.111194 0.0185526 0.00687548
0.110878 0.0167429 0.00772355
0.111316 0.0186849 0.00689651
0.104732 0.0161359 0.00803765
0.105127 0.017389 0.00720623
0.104636 0.0161122 0.00805791
0.105089 0.0172229 0.00731101
0.104955 0.0166504 0.00769099
0.104667 0.0158918 0.0082
0.104938 0.0173371 0.00724695
0.111272 0.0184906 0.00688889
0.104994 0.0168138 0.00758248
0.105354 0.0176071 0.00705891
0.104796 0.0163801 0.0078752
0.105051 0.0174431 0.00716939
0.105108 0.0176951 0.00701947
0.105033 0.0173613 0.0072237
0.0219312 0.0187687 0.00551176
0.105143 0.0176461 0.00713981
0.111228 0.017872 0.00706611
0.104993 0.0175765 0.00707478
0.104957 0.0174178 0.00719098
0.10527 0.0181083 0.00701533
0.105451 0.0178781 0.00700715
0.110887 0.0164413 0.00792084
0.104975 0.016732 0.00763679
0.10526 0.0175776 0.00707578
0.10546 0.0181693 0.00700315
0.105278 0.0176654 0.00702652
0.110909 0.0165239 0.00786865
0.105396 0.0177946 0.00701128
0.111382 0.0181313 0.00696226
0.105206 0.0177346 0.00703458
0.0989423 0.0173488 0.00719886
0.105014 0.0172795 0.00727798
0.105032 0.0177594 0.00701071
0.105525 0.0180928 0.00700048
0.105429 0.0180628 0.00700615
0.104984 0.0175666 0.00720453
0.110856 0.0166603 0.00777574
0.105185 0.017638 0.0070494
0.111332 0.0180136 0.00700795
0.104919 0.0172555 0.00730164
0.105015 0.0174694 0.00725877
0.111188 0.0173019 0.00738283
0.111231 0.0182968 0.00691528
0.111227 0.0174677 0.00727773
0.0990766 0.0175709 0.00714382
0.111216 0.0186501 0.00688628
0.105202 0.0173302 0.00723535
0.110995 0.0168551 0.0076593
0.105033 0.0169773 0.00747394
0.105477 0.0179747 0.00700457
0.104447 0.0155127 0.0086601
0.099001 0.0176344 0.00712826
0.104843 0.0169268 0.00751644
0.104975 0.0174973 0.00713305
0.104957 0.0170338 0.00744097
0.105396 0.0182459 0.00700582
0.105221 0.017412 0.00718107
0.11139 0.0186169 0.00689512
0.104938 0.016952 0.00749523
0.105235 0.0180163 0.00708903
0.105226 0.0178319 0.00702215
0.104775 0.0162985 0.00792946
0.105069 0.0175255 0.00711568
0.105014 0.0168956 0.0075282
0.11112 0.017924 0.00714264
0.111326 0.0183262 0.00689689
0.105301 0.0177658 0.00702591
0.111169 0.017219 0.00743542
0.111421 0.0183597 0.0068779
0.099057 0.0174758 0.00716735
0.105012 0.0176616 0.00702582
0.110952 0.0166891 0.00776426
0.105146 0.0178915 0.00702204
0.111251 0.0183931 0.00689764
0.105055 0.017721 0.00710015
0.0989611 0.0170116 0.0073138
0.110973 0.0167718 0.00771199
0.105146 0.0174698 0.0071503
0.104901 0.0171735 0.00735559
0.111246 0.0179669 0.00703089
0.105374 0.0176977 0.00702177
0.0990181 0.0172853 0.00721442
0.0989618 0.017444 0.00717533
0.105046 0.0176204 0.00714742
0.105322 0.0183134 0.00700913
0.0989228 0.0172536 0.0072224
0.104914 0.0164873 0.00779934
0.105052 0.0170592 0.00741963
0.111155 0.0183624 0.00689753
0.105216 0.0186412 0.00701112
0.105344 0.018411 0.00700674
0.105366 0.0185085 0.00700436
0.0987524 0.0165396 0.00771518
0.0988104 0.0167637 0.00752442
0.0987327 0.0164649 0.00777871
0.105165 0.0171665 0.00734395
0.104919 0.0168712 0.00755092
0.0987722 0.0166142 0.00765164
0.0988839 0.0170632 0.00726958
0.105166 0.0179908 0.00702175
0.105491 0.0182759 0.00700014
0.0990206 0.0177296 0.00710473
0.105127 0.0177933 0.00701974
0.111367 0.0185193 0.00688427
0.0990599 0.01792 0.00705768
0.0989985 0.0171901 0.00723795
0.0988658 0.0169883 0.00733333
0.104646 0.01581 0.0082544
0.105246 0.0179298 0.0070181
0.105089 0.0180548 0.00701764
0.105117 0.0179596 0.00710363
0.0990795 0.0180152 0.00703415
0.105071 0.017141 0.00736532
0.10527 0.0184777 0.00701142
0.105418 0.0183435 0.00700344
0.0988476 0.0169134 0.00739705
0.105108 0.0181529 0.00701995
0.0989813 0.0175393 0.00715179
0.105336 0.0175198 0.00710502
0.105206 0.0181847 0.00701719
0.105126 0.0175613 0.00719011
0.10507 0.0179566 0.0070157
0.111391 0.0182536 0.00691798
0.105322 0.0178629 0.00701457
0.0991197 0.0182054 0.00698714
0.105151 0.0183481 0.00701827
0.0990991 0.0181104 0.00701062
0.105178 0.0180876 0.00704816
0.105051 0.0178584 0.00701326
0.105173 0.018446 0.00701588
0.105301 0.0180132 0.00701392
0.0989033 0.0171584 0.00724593
0.0990963 0.0176661 0.00712029
0.105146 0.0170846 0.00739826
0.0989792 0.0170949 0.00726149
0.0987917 0.0166889 0.00758808
0.105248 0.0183801 0.00701314
0.105226 0.0182825 0.0070154
0.105129 0.0182505 0.0070208
0.105301 0.0182157 0.0070115
0.105195 0.0183917 0.00709696
0.105128 0.0170028 0.00745256
0.105184 0.0172483 0.00728966
0.105365 0.0181393 0.00701251
0.104894 0.0164058 0.00785353
0.105376 0.0179469 0.00701054
0.105194 0.0185436 0.0070135
0.0990375 0.0173805 0.00719088
0.105291 0.0185753 0.00700771
0.11115 0.0171361 0.007488
0.0988288 0.0168386 0.00746071
0.0990402 0.0178248 0.0070812
0.111321 0.0179032 0.00704811

VERTICES 287 574
1 0
1 1
1 2
1 3
1 4
1 5
1 6
1 7
1 8
1 9
1 10
1 11
1 12
1 13
1 14
1 15
1 16
1 17
1 18
1 19
1 20
1 21
1 22
1 23
1 24
1 25
1 26
1 27
1 28
1 29
1 30
1 31
1 32
1 33
1 34
1 35
1 36
1 37
1 38
1 39
1 40
1 41
1 42
1 43
1 44
1 45
1 46
1 47
1 48
1 49
1 50
1 51
1 52
1 53
1 54
1 55
1 56
1 57
1 58
1 59
1 60
1 61
1 62
1 63
1 64
1 65
1 66
1 67
1 68
1 69
1 70
1 71
1 72
1 73
1 74
1 75
1 76
1 77
1 78
1 79
1 80
1 81
1 82
1 83
1 84
1 85
1 86
1 87
1 88
1 89
1 90
1 91
1 92
1 93
1 94
1 95
1 96
1 97
1 98
1 99
1 100
1 101
1 102
1 103
1 104
1 105
1 106
1 107
1 108
1 109
1 110
1 111
1 112
1 113
1 114
1 115
1 116
1 117
1 118
1 119
1 120
1 121
1 122
1 123
1 124
1 125
1 126
1 127
1 128
1 129
1 130
1 131
1 132
1 133
1 134
1 135
1 136
1 137
1 138
1 139
1 140
1 141
1 142
1 143
1 144
1 145
1 146
1 147
1 148
1 149
1 150
1 151
1 152
1 153
1 154
1 155
1 156
1 157
1 158
1 159
1 160
1 161
1 162
1 163
1 164
1 165
1 166
1 167
1 168
1 169
1 170
1 171
1 172
1 173
1 174
1 175
1 176
1 177
1 178
1 179
1 180
1 181
1 182
1 183
1 184
1 185
1 186
1 187
1 188
1 189
1 190
1 191
1 192
1 193
1 194
1 195
1 196
1 197
1 198
1 199
1 200
1 201
1 202
1 203
1 204
1 205
1 206
1 207
1 208
1 209
1 210
1 211
1 212
1 213
1 214
1 215
1 216
1 217
1 218
1 219
1 220
1 221
1 222
1 223
1 224
1 225
1 226
1 227
1 228
1 229
1 230
1 231
1 232
1 233
1 234
1 235
1 236
1 237
1 238
1 239
1 240
1 241
1 242
1 243
1 244
1 245
1 246
1 247
1 248
1 249
1 250
1 251
1 252
1 253
1 254
1 255
1 256
1 257
1 258
1 259
1 260
1 261
1 262
1 263
1 264
1 265
1 266
1 267
1 268
1 269
1 270
1 271
1 272
1 273
1 274
1 275
1 276
1 277
1 278
1 279
1 280
1 281
1 282
1 283
1 284
1 285
1 286

POINT_DATA 287
SCALARS id int 1
LOOKUP_TABLE default
1
2
3
4
5
6
7
8
9
10
11
12
13
14
15
16
17
18
19
21
22
23
24
25
26
27
28
29
30
31
32
33
34
35
36
37
38
39
41
42
44
45
46
47
48
49
50
51
52
53
54
55
56
57
59
60
61
62
63
64
65
66
67
68
69
70
71
72
73
74
76
77
78
79
80
81
82
83
84
85
86
87
88
89
90
91
92
93
94
95
96
97
98
99
100
101
102
103
104
105
106
107
108
109
110
111
112
113
114
115
116
117
118
119
120
121
122
123
124
125
126
127
128
129
130
131
132
133
134
135
136
137
138
140
141
142
143
144
146
147
148
149
150
151
153
154
155
156
157
158
159
160
162
164
165
166
167
168
169
170
171
172
173
174
175
176
177
178
179
181
182
183
184
185
186
187
188
189
190
191
192
193
194
195
196
197
198
199
200
201
202
203
204
205
206
207
208
209
210
211
212
213
214
215
216
217
218
219
220
221
222
223
224
225
226
227
228
229
230
231
232
233
234
235
236
237
239
240
241
242
243
244
246
247
248
249
250
251
252
253
254
255
256
257
258
259
260
261
262
263
264
265
266
267
268
269
270
271
272
273
274
275
276
277
278
279
280
281
282
283
284
285
286
287
288
289
290
291
292
293
294
295
296
297
298
299
300

SCALARS type int 1
LOOKUP_TABLE default
1
1
1
1
1
1
1
1
1
1
1
1
1
1
1
1
1
1
1
1
1
1
1
1
1
1
1
1
1
1
1
1
1
1
1
1
1
1
1
1
1
1
1
1
1
1
1
1
1
1
1
1
1
1
1
1
1
1
1
1
1
1
1
1
1
1
1
1
1
1
1
1
1
1
1
1
1
1
1
1
1
1
1
1
1
1
1
1
1
1
1
1
1
1
1
1
1
1
1
1
1
1
1
1
1
1
1
1
1
1
1
1
1
1
1
1
1
1
1
1
1
1
1
1
1
1
1
1
1
1
1
1
1
1
1
1
1
1
1
1
1
1
1
1
1
1
1
1
1
1
1
1
1
1
1
1
1
1
1
1
1
1
1
1
1
1
1
1
1
1
1
1
1
1
1
1
1
1
1
1
1
1
1
1
1
1
1
1
1
1
1
1
1
1
1
1
1
1
1
1
1
1
1
1
1
1
1
1
1
1
1
1
1
1
1
1
1
1
1
1
1
1
1
1
1
1
1
1
1
1
1
1
1
1
1
1
1
1
1
1
1
1
1
1
1
1
1
1
1
1
1
1
1
1
1
1
1
1
1
1
1
1
1
1
1
1
1
1
1
1
1
1
1
1
1
1
1
1
1
1
1
1
1
1
1
1
1

SCALARS radius float 1
LOOKUP_TABLE default
5e-05
5e-05
5e-05
5e-05
5e-05
5e-05
5e-05
5e-05
5e-05
5e-05
5e-05
5e-05
5e-05
5e-05
5e-05
5e-05
5e-05
5e-05
5e-05
5e-05
5e-05
5e-05
5e-05
5e-05
5e-05
5e-05
5e-05
5e-05
5e-05
5e-05
5e-05
5e-05
5e-05
5e-05
5e-05
5e-05
5e-05
5e-05
5e-05
5e-05
5e-05
5e-05
5e-05
5e-05
5e-05
5e-05
5e-05
5e-05
5e-05
5e-05
5e-05
5e-05
5e-05
5e-05
5e-05
5e-05
5e-05
5e-05
5e-05
5e-05
5e-05
5e-05
5e-05
5e-05
5e-05
5e-05
5e-05
5e-05
5e-05
5e-05
5e-05
5e-05
5e-05
5e-05
5e-05
5e-05
5e-05
5e-05
5e-05
5e-05
5e-05
5e-05
5e-05
5e-05
5e-05
5e-05
5e-05
5e-05
5e-05
5e-05
5e-05
5e-05
5e-05
5e-05
5e-05
5e-05
5e-05
5e-05
5e-05
5e-05
5e-05
5e-05
5e-05
5e-05
5e-05
5e-05
5e-05
5e-05
5e-05
5e-05
5e-05
5e-05
5e-05
5e-05
5e-05
5e-05
5e-05
5e-05
5e-05
5e-05
5e-05
5e-05
5e-05
5e-05
5e-05
5e-05
5e-05
5e-05
5e-05
5e-05
5e-05
5e-05
5e-05
5e-05
5e-05
5e-05
5e-05
5e-05
5e-05
5e-05
5e-05
5e-05
5e-05
5e-05
5e-05
5e-05
5e-05
5e-05
5e-05
5e-05
5e-05
5e-05
5e-05
5e-05
5e-05
5e-05
5e-05
5e-05
5e-05
5e-05
5e-05
5e-05
5e-05
5e-05
5e-05
5e-05
5e-05
5e-05
5e-05
5e-05
5e-05
5e-05
5e-05
5e-05
5e-05
5e-05
5e-05
5e-05
5e-05
5e-05
5e-05
5e-05
5e-05
5e-05
5e-05
5e-05
5e-05
5e-05
5e-05
5e-05
5e-05
5e-05
5e-05
5e-05
5e-05
5e-05
5e-05
5e-05
5e-05
5e-05
5e-05
5e-05
5e-05
5e-05
5e-05
5e-05
5e-05
5e-05
5e-05
5e-05
5e-05
5e-05
5e-05
5e-05
5e-05
5e-05
5e-05
5e-05
5e-05
5e-05
5e-05
5e-05
5e-05
5e-05
5e-05
5e-05
5e-05
5e-05
5e-05
5e-05
5e-05
5e-05
5e-05
5e-05
5e-05
5e-05
5e-05
5e-05
5e-05
5e-05
5e-05
5e-05
5e-05
5e-05
5e-05
5e-05
5e-05
5e-05
5e-05
5e-05
5e-05
5e-05
5e-05
5e-05
5e-05
5e-05
5e-05
5e-05
5e-05
5e-05
5e-05
5e-05
5e-05
5e-05
5e-05
5e-05
5e-05
5e-05
5e-05
5e-05
5e-05
5e-05
5e-05
5e-05
5e-05
5e-05
5e-05
5e-05
5e-05
5e-05
5e-05
5e-05
5e-05
5e-05
5e-05
5e-05
5e-05

SCALARS mass float 1
LOOKUP_TABLE default
1.46608e-10
1.46608e-10
1.46608e-10
1.46608e-10
1.46608e-10
1.46608e-10
1.46608e-10
1.46608e-10
1.46608e-10
1.46608e-10
1.46608e-10
1.46608e-10
1.46608e-10
1.46608e-10
1.46608e-10
1.46608e-10
1.46608e-10
1.46608e-10
1.46608e-10
1.46608e-10
1.46608e-10
1.46608e-10
1.46608e-10
1.46608e-10
1.46608e-10
1.46608e-10
1.46608e-10
1.46608e-10
1.46608e-10
1.46608e-10
1.46608e-10
1.46608e-10
1.46608e-10
1.46608e-10
1.46608e-10
1.46608e-10
1.46608e-10
1.46608e-10
1.46608e-10
1.46608e-10
1.46608e-10
1.46608e-10
1.46608e-10
1.46608e-10
1.46608e-10
1.46608e-10
1.46608e-10
1.46608e-10
1.46608e-10
1.46608e-10
1.46608e-10
1.46608e-10
1.46608e-10
1.46608e-10
1.46608e-10
1.46608e-10
1.46608e-10
1.46608e-10
1.46608e-10
1.46608e-10
1.46608e-10
1.46608e-10
1.46608e-10
1.46608e-10
1.46608e-10
1.46608e-10
1.46608e-10
1.46608e-10
1.46608e-10
1.46608e-10
1.46608e-10
1.46608e-10
1.46608e-10
1.46608e-10
1.46608e-10
1.46608e-10
1.46608e-10
1.46608e-10
1.46608e-10
1.46608e-10
1.46608e-10
1.46608e-10
1.46608e-10
1.46608e-10
1.46608e-10
1.46608e-10
1.46608e-10
1.46608e-10
1.46608e-10
1.46608e-10
1.46608e-10
1.46608e-10
1.46608e-10
1.46608e-10
1.46608e-10
1.46608e-10
1.46608e-10
1.46608e-10
1.46608e-10
1.46608e-10
1.46608e-10
1.46608e-10
1.46608e-10
1.46608e-10
1.46608e-10
1.46608e-10
1.46608e-10
1.46608e-10
1.46608e-10
1.46608e-10
1.46608e-10
1.46608e-10
1.46608e-10
1.46608e-10
1.46608e-10
1.46608e-10
1.46608e-10
1.46608e-10
1.46608e-10
1.46608e-10
1.46608e-10
1.46608e-10
1.46608e-10
1.46608e-10
1.46608e-10
1.46608e-10
1.46608e-10
1.46608e-10
1.46608e-10
1.46608e-10
1.46608e-10
1.46608e-10
1.46608e-10
1.46608e-10
1.46608e-10
1.46608e-10
1.46608e-10
1.46608e-10
1.46608e-10
1.46608e-10
1.46608e-10
1.46608e-10
1.46608e-10
1.46608e-10
1.46608e-10
1.46608e-10
1.46608e-10
1.46608e-10
1.46608e-10
1.46608e-10
1.46608e-10
1.46608e-10
1.46608e-10
1.46608e-10
1.46608e-10
1.46608e-10
1.46608e-10
1.46608e-10
1.46608e-10
1.46608e-10
1.46608e-10
1.46608e-10
1.46608e-10
1.46608e-10
1.46608e-10
1.46608e-10
1.46608e-10
1.46608e-10
1.46608e-10
1.46608e-10
1.46608e-10
1.46608e-10
1.46608e-10
1.46608e-10
1.46608e-10
1.46608e-10
1.46608e-10
1.46608e-10
1.46608e-10
1.46608e-10
1.46608e-10
1.46608e-10
1.46608e-10
1.46608e-10
1.46608e-10
1.46608e-10
1.46608e-10
1.46608e-10
1.46608e-10
1.46608e-10
1.46608e-10
1.46608e-10
1.46608e-10
1.46608e-10
1.46608e-10
1.46608e-10
1.46608e-10
1.46608e-10
1.46608e-10
1.46608e-10
1.46608e-10
1.46608e-10
1.46608e-10
1.46608e-10
1.46608e-10
1.46608e-10
1.46608e-10
1.46608e-10
1.46608e-10
1.46608e-10
1.46608e-10
1.46608e-10
1.46608e-10
1.46608e-10
1.46608e-10
1.46608e-10
1.46608e-10
1.46608e-10
1.46608e-10
1.46608e-10
1.46608e-10
1.46608e-10
1.46608e-10
1.46608e-10
1.46608e-10
1.46608e-10
1.46608e-10
1.46608e-10
1.46608e-10
1.46608e-10
1.46608e-10
1.46608e-10
1.46608e-10
1.46608e-10
1.46608e-10
1.46608e-10
1.46608e-10
1.46608e-10
1.46608e-10
1.46608e-10
1.46608e-10
1.46608e-10
1.46608e-10
1.46608e-10
1.46608e-10
1.46608e-10
1.46608e-10
1.46608e-10
1.46608e-10
1.46608e-10
1.46608e-10
1.46608e-10
1.46608e-10
1.46608e-10
1.46608e-10
1.46608e-10
1.46608e-10
1.46608e-10
1.46608e-10
1.46608e-10
1.46608e-10
1.46608e-10
1.46608e-10
1.46608e-10
1.46608e-10
1.46608e-10
1.46608e-10
1.46608e-10
1.46608e-10
1.46608e-10
1.46608e-10
1.46608e-10
1.46608e-10
1.46608e-10
1.46608e-10
1.46608e-10
1.46608e-10
1.46608e-10
1.46608e-10
1.46608e-10
1.46608e-10
1.46608e-10
1.46608e-10
1.46608e-10
1.46608e-10
1.46608e-10
1.46608e-10

VECTORS velocity float
0.00591598 8.24102e-05 0.000397814
0.00553086 0.00015927 0.000315525
0.00622505 -8.64529e-05 -0.000264504
0.00558778 -0.000176128 -0.00034928
0.00593294 6.03433e-05 0.00041613
0.0059272 -0.000228257 -0.000300596
0.00542198 0.000324353 0.000202425
0.00604834 4.61265e-05 0.000431374
0.00568848 -3.198e-06 -0.000802718
0.00560592 0.000154903 0.000326613
0.00557928 -0.000188386 -0.00034396
0.00544254 2.50301e-05 -0.000304726
0.00593896 6.8881e-05 0.000423044
0.00625512 0.000391013 0.000267996
0.00552262 0.000168609 0.000313519
0.00625201 0.000372701 0.000283386
0.0058396 0.000115084 0.000370722
0.00554442 -6.45986e-05 -0.000208313
0.00594652 6.38906e-05 0.00041475
0.0059421 7.14142e-05 0.000406365
0.00546964 0.00017397 0.00031766
0.00550397 0.000110119 -0.000339401
0.00566351 0.0001886 0.0001598
0.00550897 0.000174877 0.000306485
0.00551895 -0.00016605 -0.000314275
0.00565188 8.54403e-05 -0.000259013
0.00558207 -0.0001735 -0.000352545
0.00597723 5.24559e-05 0.000415003
0.00559793 0.000139598 0.000333623
0.00543069 0.000210199 0.000277499
0.00545824 0.000168569 0.000308986
0.00592266 -0.000237254 -0.00029178
0.00585148 9.87144e-05 0.000382482
0.00545627 0.00017196 0.000305103
0.00559339 2.15853e-06 -0.000792606
0.0055009 0.000188727 0.000296645
0.00544992 0.000169722 0.000306178
0.00566115 0.000192436 0.000161863
0.00589559 7.26746e-05 0.000402212
0.00551548 0.000166746 0.000314857
0.00546915 0.000168371 0.000307297
0.00552179 -0.000167618 -0.00032095
0.00543644 -0.000157481 -0.000326574
0.00587292 8.42418e-05 0.000393467
0.00555626 -0.000184269 -0.000343478
0.00547986 -0.000165724 -0.000316161
0.00558555 -0.000166618 -0.000351931
0.00557371 -0.000163369 -0.00035814
0.00547696 2.45977e-05 -0.000297591
0.00566309 0.000111798 3.28874e-05
0.00594158 7.55835e-05 0.000404263
0.00627175 -2.15391e-05 -0.000197347
0.00550532 0.000177732 0.000304619
0.00551801 -0.000171836 -0.000314575
0.00547691 0.00018553 0.000297056
0.00550015 0.000156392 0.000317894
0.0059173 6.1682e-05 0.000410849
0.00552329 0.000157645 0.000319094
0.00560773 1.82494e-05 7.52838e-05
0.00566157 0.000197831 0.000155944
0.00552845 9.30109e-06 -0.000285316
0.00549392 4.33439e-05 -0.000309609
0.00563501 9.52725e-05 0.000368859
0.00558512 -0.000163563 -0.00031562
0.0058492 0.00012841 0.000362703
0.00564912 0.000202427 0.000159955
0.00625111 0.000219289 4.84467e-05
0.00555327 -0.000129431 -0.000257766
0.00552073 0.000173255 0.000308474
0.00552686 0.000151729 0.000319766
0.00565125 0.000280302 9.05099e-05
0.00565141 3.25513e-05 0.000389288
0.00620297 -9.45471e-05 -0.000252737
0.00550183 2.95485e-05 -0.00029441
0.00560755 -0.000177917 -0.000348541
0.0057283 -9.58432e-06 -0.000285869
0.00559427 0.000120575 -0.000289752
0.00551127 8.54017e-05 -0.000334267
0.00563977 7.70671e-07 -0.000801796
0.00622169 -4.26532e-05 -0.000287781
0.00556096 -0.00018591 -0.000407946
0.00554768 0.000200772 0.000292488
0.00561838 -0.000184844 -0.000349555
0.00561208 -0.000215016 -0.000340616
0.00550055 0.000166946 0.000311251
0.00551858 3.70231e-05 -0.000273544
0.00560383 -0.000207302 -0.000338626
0.00562172 -0.000196299 -0.000343217
0.00605539 -0.000304878 0.000388591
0.00561548 -0.000193273 -0.000333334
0.0056152 -0.000221647 -0.000336886
0.00615398 -6.79664e-05 -0.000265053
0.0056261 -0.00019796 -0.000341823
0.00547758 2.70207e-05 -0.000290423
0.00545485 0.000163457 0.000309437
0.0059012 0.000173862 -0.00040894
4.3843e-15 1.0458e-14 8.29592e-14
9.00258e-24 -1.27651e-22 8.29106e-22
0.00568461 5.49121e-05 -0.000224316
0.00616505 -7.2543e-05 -0.000265002
0.00568313 -0.000129214 -0.000252143
0.0061863 -9.06042e-05 -0.000251615
0.00554777 0.000200676 0.000292874
0.00556257 -0.000177825 -0.000345558
0.00616401 -0.000264115 0.000401159
0.00626855 -0.000214502 0.000452221
0.00605863 -6.27934e-05 -0.000259512
0.0057076 -0.00111297 -0.000305219
0.00572693 -8.95776e-06 -0.000283901
0.00557287 0.000145288 0.000309412
0.00572078 0.000258441 0.000268087
0.00594732 7.40603e-05 0.000408093
0.00625723 -7.54841e-05 -0.000262339
0.00544488 0.000168047 0.000305893
0.00602334 4.6888e-05 0.000428234
0.00607163 4.64483e-05 0.000432996
0.00617225 -0.000265928 0.000401651
0.0061933 2.39442e-06 -0.000314034
0.00560889 -0.000189817 -0.000345963
0.00596967 7.24012e-05 0.00040859
0.00554157 0.000131044 0.000329889
0.0061408 -6.12151e-05 -0.000273913
0.00559684 -0.000171511 -0.000350348
0.00583041 -0.000198714 -0.000331439
0.00558192 0.000166325 -0.000385586
0.00544808 4.05392e-05 -0.000303546
0.00559815 -0.000180007 -0.000346289
0.00590887 0.00010235 0.00038427
0.00544834 0.000172615 0.000304479
0.00600392 7.14478e-05 0.000411103
0.00621747 -5.7511e-05 -0.000275927
0.00622988 -8.52968e-05 0.000422676
0.00586071 0.000100716 0.000381697
0.00622607 -0.000199576 0.000411013
0.00624572 -1.07452e-05 -0.000309699
0.00582166 -0.00013144 -0.000360922
0.00617274 -8.17482e-05 -0.000256723
0.00551732 7.63789e-05 -0.000355806
0.00553506 8.99464e-05 -0.000341658
0.00624295 -5.58197e-05 -0.000275458
0.0056148 0.000139987 -0.000254775
0.00615775 -0.000190906 0.000354062
0.00597799 0.000127006 -0.000358307
0.00554817 0.000150687 0.000409588
0.00622293 0.000121097 -0.000391591
0.00572941 -4.11417e-05 -0.000502476
0.00551262 0.000310634 0.000184439
0.00577638 0.000103264 -0.000199481
-3.83642e-14 8.16469e-14 2.9589e-13
0.00553281 0.000518868 -0.000675882
0.00558675 -0.000177885 -0.000349975
0.00567867 0.000287291 1.09269e-05
0.00570104 0.000181034 -7.10527e-05
0.00578541 -7.44006e-05 -0.00182243
0.00579609 -6.84257e-05 -0.000298144
0.00596515 8.3556e-05 0.0004008
0.00556835 2.66579e-05 -0.000295606
0.00548285 -2.35356e-05 -0.000170725
0.00578707 -0.000754301 -0.000324261
0.00551999 4.08272e-05 0.000552643
0.00594014 9.00174e-05 0.000394652
0.00564798 9.47565e-05 -7.13085e-05
0.00543409 -0.000389841 -0.000261189
0.00565162 0.000200195 0.000601974
0.00561875 7.69619e-05 -2.66172e-05
0.00554956 -1.20774e-05 -0.000294607
0.00558166 0.000206121 0.000583666
0.00576163 -0.000830771 -0.000304744
0.00562838 -0.000364165 -0.000398418
0.00573386 0.000436125 -8.68655e-05
0.00588902 9.22488e-05 0.00038917
0.00570336 6.52299e-05 -0.000608981
0.00560196 -0.000211121 -0.000335868
0.00554538 0.000112713 -0.000394348
0.00320431 0.00144258 -0.00198857
0.00544762 0.000171006 0.000304455
0.00570487 -0.000167449 -0.000206522
0.00551474 0.000150357 0.000322966
0.00563198 5.205e-05 -2.15603e-05
0.00616143 -0.00035007 0.000392577
0.00571627 -0.000177586 -0.000156418
0.00581237 0.000338282 0.000223134
0.00551316 0.000153326 -0.000378634
0.00587045 -0.000145309 -0.000326683
0.00614317 0.000389512 0.000284089
0.00562928 4.78992e-05 -2.04563e-05
0.00557464 3.09887e-05 -0.000275057
0.00567167 0.000258884 7.52212e-05
0.00568401 8.51365e-05 -0.000335389
0.00570012 -0.000791148 -0.000314908
0.00549606 -9.38097e-05 -0.000162018
0.00626565 -0.000199448 0.000414263
0.00562929 -1.41485e-05 -0.000255654
0.00530463 -0.000254983 -0.000338
0.0051897 -0.00036644 -0.00496553
0.00620632 5.05389e-06 -0.000315788
0.00565239 0.000191911 -9.50322e-05
0.00570382 6.7413e-05 -0.00033113
0.00558687 -0.000178284 -0.000352656
0.00585294 -0.000246241 -0.000342993
0.00562179 0.000218017 0.000288564
0.00544017 0.000176976 0.000299608
0.00608917 -0.000314922 -0.000336046
0.00564194 5.54114e-05 -2.25869e-05
0.00565696 -0.00018885 -0.000115292
0.00587378 0.000115766 0.00037281
0.00578169 0.000252621 0.000529051
0.00593 -0.000166717 7.31531e-05
0.00554158 -0.000387413 0.0003566
0.00558808 7.03336e-05 -4.15959e-05
0.0058839 0.000162776 0.00034298
0.00577241 -0.000190585 -0.000400244
0.00550341 0.000120861 -0.000404406
0.00558635 -0.000194665 -0.000342536
0.00554046 0.000185598 0.000429425
0.00562974 6.1496e-05 -2.36588e-05
0.00560959 8.2552e-05 -2.92503e-05
0.00567799 0.0003625 2.95486e-05
0.00573015 -0.00084899 -0.000316051
0.00561755 7.47142e-05 -2.77084e-05
0.00549876 7.37976e-05 -0.000324911
0.00555195 0.000169683 -0.000366206
0.00564402 -0.000101384 -2.47249e-05
0.00589546 -0.000799492 -0.00031794
0.00588586 -0.000821818 -0.000310246
0.00583271 -0.00086482 -0.00031164
0.00578352 0.000113026 -7.32583e-05
0.00564053 5.31521e-05 -2.34728e-05
0.005739 0.000115038 -7.75104e-05
0.00554532 3.1295e-05 -0.000325765
0.00565457 -2.15515e-05 -0.000209253
0.00576715 6.45891e-05 -3.76168e-05
0.0056351 5.45583e-05 -2.58863e-05
0.00533876 -0.00011878 -0.000294525
0.00577212 -0.00100888 -0.000310086
0.00562532 5.01004e-05 -2.10459e-05
0.00567617 0.000289231 0.000534129
0.0062063 -0.000340932 0.000396573
0.00561444 5.59104e-05 -2.24348e-05
0.00559317 6.52889e-05 -2.50418e-05
0.00559353 5.82684e-05 -2.74795e-05
0.00626236 -4.77043e-05 -0.000282061
0.00527605 -0.000328683 -0.00591329
0.0058795 0.000502079 0.000533898
0.00631893 5.26213e-05 0.000362735
0.00560982 5.88121e-05 -2.3193e-05
0.00542943 0.000142014 -0.000403332
0.00592302 -0.000769216 -0.000300022
0.00581906 -0.000912158 -0.000311758
0.00562433 5.00077e-05 -1.96424e-05
0.00626211 0.000606009 0.000624449
0.00563536 4.62516e-05 -2.00955e-05
0.00477864 -0.000792629 0.000295364
0.00390398 -0.000300542 -0.000214349
0.00785218 -0.000583988 -0.00202613
0.0058667 0.000444712 0.000551782
0.00565898 -0.000396092 -0.000277582
0.00559766 0.000196197 -0.000219865
0.00610531 -3.96586e-05 3.84804e-07
0.00623048 0.000719681 -0.000354521
0.005604 6.22028e-05 -2.39648e-05
0.00618135 0.000331989 -0.000755564
0.00577534 0.000504585 0.000656604
0.00588298 -0.000770971 -0.000329957
0.00536575 7.02954e-05 -0.000322802
0.00561631 5.88769e-05 -2.49116e-05
0.00562803 5.14839e-05 -2.13676e-05
0.00543612 -5.24967e-06 -0.000276062
0.00556688 7.66444e-05 -2.89841e-05
0.00560634 7.5533e-05 -4.07747e-05
0.00586342 -0.000782666 -0.00033561
0.00516832 -0.000680562 -0.000887164
0.00622701 0.000692019 7.99861e-05
0.00515133 -0.000786052 -0.000256081
0.00638719 -2.18349e-05 8.79229e-06
0.00548895 -0.000141491 -0.000185259
0.00564946 -0.000103019 -0.000244713
0.00580513 -0.000339675 -0.00118559
0.00571051 2.85144e-05 -0.000307234
0.005543 0.000260315 -0.000291286
0.00591052 -0.000754517 -0.000307743
0.00564498 5.87169e-05 -2.25909e-05
0.00590018 -0.000785853 -0.000324275
0.00546586 0.000181056 0.000298918
0.00565878 4.55508e-05 -1.61376e-05
0.00561983 5.31941e-05 -2.1801e-05
0.00555991 -0.00021716 -0.000332233

VECTORS force float
-4.10168e-11 2.6454e-11 -2.40793e-11
-6.67818e-11 -2.56597e-11 8.73974e-13
-1.36255e-10 1.14283e-10 -6.31743e-11
-4.08491e-13 7.95238e-11 -6.74387e-12
2.81902e-11 -5.07517e-11 8.0314e-11
2.3097e-10 5.83162e-11 -6.60164e-11
2.61258e-11 1.3195e-10 -8.63762e-11
5.20767e-12 3.41119e-11 -1.87015e-11
-8.88206e-12 -7.35954e-11 -1.0969e-10
8.58817e-14 7.63991e-11 -4.28127e-11
3.07354e-12 1.58867e-10 -7.50771e-11
8.96678e-10 -6.24045e-10 3.554e-10
-4.12646e-11 -1.11951e-10 1.39006e-10
4.08867e-11 -4.45002e-11 1.16412e-09
1.38929e-10 3.52653e-11 8.13705e-11
4.64425e-11 -5.6047e-10 6.30782e-10
1.19702e-11 9.99406e-11 -6.21459e-11
-1.66135e-10 -1.18139e-10 6.90492e-11
-5.09791e-11 -1.75953e-10 5.27397e-11
-3.64541e-11 7.69202e-11 -5.0607e-11
-5.40903e-11 -5.98657e-11 1.03734e-10
-3.80685e-10 -4.59655e-10 1.87966e-11
1.11057e-10 -2.21487e-11 5.54283e-11
-1.30455e-10 -1.00877e-10 2.98097e-11
1.7163e-10 1.88749e-10 -1.42128e-10
5.91498e-10 1.16741e-09 6.83219e-10
2.50451e-11 7.94231e-11 3.69349e-11
4.96997e-12 -6.42456e-11 -6.9611e-12
-2.54549e-11 -1.34019e-11 -4.12609e-11
1.3355e-12 1.60415e-10 -1.21415e-10
2.51995e-11 -3.21982e-11 -4.04443e-13
-1.45113e-10 -1.25469e-10 1.17935e-10
1.34755e-12 7.32816e-11 -4.51771e-11
2.66151e-10 -8.6458e-11 7.83764e-11
1.08433e-11 1.7293e-10 2.04719e-11
-8.94194e-11 3.69074e-11 -3.65902e-11
-2.90612e-12 3.86963e-11 -3.67082e-11
-1.29811e-10 -1.18282e-10 -2.23391e-11
-6.2257e-11 -1.13992e-11 -4.7567e-12
3.57331e-11 6.04447e-13 1.57183e-10
-1.12505e-10 5.42907e-11 -1.42375e-11
-2.5169e-10 -9.67639e-11 1.10193e-10
-3.88846e-10 2.20144e-11 2.18501e-11
1.51873e-11 4.91955e-11 -3.60383e-11
-3.93163e-11 2.73869e-10 -1.56442e-10
2.88426e-10 3.46285e-11 -6.4517e-11
2.22748e-12 4.1772e-13 1.18994e-11
-1.22788e-11 6.16849e-13 4.69782e-11
4.72682e-12 -7.20603e-10 4.84336e-10
1.82565e-10 2.31192e-11 1.28152e-10
1.62196e-10 2.07402e-11 3.63572e-11
3.03402e-10 -2.99434e-10 4.99926e-10
-2.48971e-10 -4.35046e-12 -1.37618e-11
-7.89179e-11 7.54248e-11 -2.35941e-11
-1.46953e-10 9.19479e-11 -6.65776e-11
-3.54659e-10 -1.57462e-10 7.79287e-11
-4.02032e-11 -4.62052e-11 4.14659e-11
-2.15348e-11 1.5193e-11 -2.79816e-11
-2.54523e-11 -1.04133e-10 -5.66518e-11
-8.60519e-12 1.15293e-10 2.95113e-11
3.77631e-10 -3.3528e-10 1.15711e-10
1.98403e-11 -9.28142e-10 6.0885e-10
-1.15297e-10 7.31909e-11 -1.10816e-10
-3.83643e-11 1.03669e-10 4.84414e-11
-8.42319e-11 5.14499e-11 -4.16404e-11
-2.17069e-11 -1.16589e-10 1.09496e-10