# vtk DataFile Version 3.0
LIGGGHTS particles timestep 30000000
ASCII
DATASET POLYDATA
POINTS 271 float
0.187416 0.0154785 0.00870141
0.188304 0.0178884 0.00698153
0.182348 0.0177038 0.0070541
0.188332 0.0176323 0.00703959
0.187395 0.0154331 0.00878806
0.193788 0.0168128 0.00741748
0.187491 0.0156571 0.00835161
0.187373 0.0153887 0.00887488
0.193906 0.017347 0.0071714
0.187949 0.0175245 0.00710499
0.188089 0.0177297 0.00700973
0.181485 0.0156957 0.00844694
0.187308 0.0152554 0.00913501
0.182155 0.0184544 0.00695874
0.188314 0.0175537 0.00709853
0.182251 0.0184868 0.00694882
0.188355 0.0177244 0.0070081
0.187356 0.0153498 0.00896535
0.187908 0.0173592 0.00720981
0.188121 0.0174976 0.0071298
0.181718 0.0162262 0.00796266
0.193992 0.0177134 0.00703736
0.187549 0.0158705 0.00815437
0.193866 0.017169 0.00725334
0.182465 0.0178295 0.00702984
0.188257 0.0176931 0.0070138
0.187512 0.0157135 0.00827169
0.188013 0.0177949 0.007002
0.187569 0.0159539 0.00810289
0.187995 0.0170021 0.00744392
0.193807 0.0169018 0.00737645
0.187477 0.0156137 0.00844064
0.188152 0.0172773 0.00727319
0.193971 0.0176204 0.00706703
0.188213 0.0183097 0.00691975
0.188273 0.0186018 0.00687447
0.194014 0.0178064 0.00700769
0.188377 0.0178212 0.00699022
0.321436 0.0173475 0.00552525
0.188282 0.0177916 0.00699659
0.193827 0.0169909 0.00733541
0.187436 0.0155225 0.00861379
0.188252 0.0185034 0.00688974
0.187614 0.0161184 0.00799868
0.18759 0.0160359 0.00804949
0.181402 0.0153981 0.00870121
0.193949 0.0175273 0.0070967
0.188098 0.0181812 0.00694141
0.181341 0.0151951 0.00891196
0.188232 0.0184066 0.00690474
0.193847 0.01708 0.00729438
0.188098 0.0174154 0.00718196
0.187881 0.0168913 0.00751038
0.188499 0.0184052 0.0068997
0.188293 0.0174715 0.00715401
0.194036 0.0178994 0.00697803
0.181662 0.0163504 0.00785563
0.181325 0.0151781 0.0090091
0.188251 0.018052 0.00695789
0.188036 0.0171674 0.00733907
0.188118 0.018278 0.00692641
0.193886 0.0172581 0.00721231
0.181382 0.0153237 0.00876478
0.188153 0.0180191 0.00696478
0.188177 0.0185688 0.00688135
0.188309 0.0183428 0.00691285
0.182381 0.0182566 0.00697414
0.188174 0.0173599 0.00722089
0.182135 0.0183575 0.00697353
0.181443 0.0155469 0.00857409
0.188346 0.0180829 0.00695136
0.182281 0.0185811 0.00693385
0.181505 0.0157695 0.00838261
0.182191 0.0181962 0.00699321
0.193928 0.0174358 0.00713058
0.182369 0.0178005 0.00703922
0.188399 0.0179186 0.0069751
0.188349 0.0185365 0.00688284
0.187766 0.0167806 0.00757683
0.188329 0.0184397 0.00689785
0.188187 0.0177645 0.00701342
0.182413 0.0179939 0.00700949
0.18829 0.0182457 0.00692788
0.187649 0.0162839 0.00789209
0.188068 0.0176391 0.00704683
0.188024 0.0174699 0.00714341
0.187668 0.0163669 0.00783945
0.181776 0.0164446 0.00776531
0.188164 0.0176709 0.00704035
0.181874 0.0168214 0.00745295
0.188404 0.018373 0.00690643
0.181464 0.0156213 0.00851052
0.0643568 0.0187248 0.00531097
0.24257 0.0191927 0.00520306
0.182081 0.0177133 0.00706756
0.182421 0.0176363 0.00705956
0.182303 0.0175165 0.00710413
0.182284 0.0174284 0.0071482
0.188137 0.0183749 0.0069114
0.188269 0.0173875 0.00720718
0.187689 0.0164494 0.00778706
0.188003 0.0173874 0.00719603
0.182149 0.018003 0.00702286
0.181739 0.0166414 0.00759225
0.182115 0.0182607 0.00698833
0.188238 0.0176077 0.0070625
0.188078 0.0180843 0.00695642
0.188217 0.0187625 0.00685133
0.181943 0.0174942 0.00712455
0.188195 0.0174424 0.00716859
0.187535 0.0157888 0.00821015
0.187457 0.015567 0.00852678
0.187962 0.017222 0.00730062
0.1819 0.0173122 0.0071922
0.187983 0.0173047 0.00724825
0.188293 0.0186987 0.00685946
0.1879 0.0169741 0.00745788
0.182443 0.0177328 0.00704471
0.187941 0.0171394 0.00735302
0.18811 0.0178265 0.00699723
0.182326 0.0176073 0.00706894
0.188209 0.0178588 0.00698788
0.18797 0.0176093 0.00705632
0.187921 0.0170567 0.00740544
0.18733 0.0152999 0.00904811
0.182175 0.0185513 0.00694394
0.187628 0.0162013 0.00794449
0.188057 0.0179878 0.00697141
0.188143 0.0175811 0.00707927
0.18217 0.0180995 0.00700803
0.181879 0.0172248 0.00723584
0.181362 0.0152548 0.00883441
0.182008 0.0177808 0.00707519
0.182231 0.0183899 0.00696362
0.181969 0.0168448 0.00743274
0.187786 0.0168644 0.00752616
0.0100679 0.0201683 0.00551526
0.181837 0.0170494 0.00732347
0.182215 0.0187454 0.0069143
0.181965 0.017587 0.00709396
0.182167 0.0173106 0.00720352
0.182127 0.0179065 0.0070377
0.0219312 0.0187687 0.00551176
0.18236 0.018159 0.00698907
0.188424 0.0184711 0.00689123
0.181986 0.0176832 0.00707738
0.18229 0.0186796 0.00691942
0.181834 0.016663 0.00756797
0.182179 0.0177424 0.00705802
0.188157 0.0184719 0.00689636
0.181893 0.0169039 0.00739967
0.182355 0.0185143 0.00693917
0.182252 0.0176747 0.0070635
0.188035 0.0178913 0.00698641
0.182156 0.0176463 0.00707289
0.188325 0.0179857 0.00696644
0.182188 0.0173984 0.00715973
0.175936 0.0174842 0.00722788
0.182008 0.0170202 0.00734506
0.181933 0.0170791 0.0073121
0.182018 0.0174289 0.0071375
0.182306 0.0183228 0.00696893
0.187991 0.0176968 0.00701264
0.182229 0.0175785 0.00707839
0.188047 0.0175522 0.00709139
0.181818 0.0169646 0.0073728
0.187888 0.0172766 0.0072622
0.188016 0.0170848 0.00739148
0.18823 0.0179553 0.00697289
0.176224 0.0188009 0.00684952
0.188057 0.01725 0.00728668
0.182135 0.0175509 0.00709766
0.188218 0.0175256 0.00711592
0.161461 0.0182058 0.00533758
0.182339 0.0180615 0.00700403
0.181738 0.016299 0.00789688
0.176001 0.0177656 0.00714694
0.182195 0.0186482 0.00692915
0.182094 0.018164 0.00700315
0.18172 0.0165691 0.00765858
0.182222 0.0179355 0.00702831
0.187707 0.0165325 0.0077344
0.181423 0.0154725 0.00863765
0.182296 0.0178681 0.00703376
0.181795 0.0165175 0.00769952
0.181913 0.0169915 0.00735589
0.182105 0.01781 0.00705254
0.178892 0.0175668 0.00714354
0.187929 0.0174419 0.00715739
0.187867 0.017194 0.0073146
0.182244 0.018032 0.00701347
0.188194 0.0182126 0.00693477
0.187805 0.016946 0.00747185
0.176206 0.0187063 0.00687664
0.182201 0.017839 0.00704315
0.188197 0.0186657 0.00686634
0.181526 0.0158421 0.00831706
0.18775 0.0166989 0.00763247
0.182318 0.0179646 0.00701892
0.24198 0.0176711 0.00702347
0.188271 0.0181488 0.00694289
0.182061 0.0176167 0.00708397
0.103827 0.0178545 0.00778817
0.188078 0.0173327 0.00723426
0.181857 0.0171374 0.00727951
0.176148 0.0184234 0.00695787
0.175958 0.017578 0.0072009
0.182286 0.018226 0.00698372
0.181681 0.016423 0.00778957
0.175914 0.0173904 0.00725487
0.182072 0.0180675 0.00701798
0.188132 0.0179227 0.00698031
0.182274 0.0177714 0.00704863
0.181643 0.0162774 0.00792112
0.181604 0.0161318 0.00805272
0.175751 0.0166494 0.00749617
0.17577 0.0167318 0.00744297
0.175827 0.0170152 0.00736276
0.181921 0.0173997 0.00714856
0.175789 0.0168263 0.00741623
0.175892 0.0172966 0.00728185
0.182476 0.0182874 0.00696453
0.181701 0.0164958 0.00772379
0.176186 0.018612 0.00690372
0.181988 0.0169326 0.00738884
0.187729 0.0166148 0.00768215
0.176045 0.0179533 0.00709298
0.176242 0.0188957 0.00682337
0.175871 0.0172028 0.00730883
0.182029 0.0178745 0.00704765
0.182113 0.0174574 0.00712672
0.182071 0.0172825 0.00721406
0.181975 0.0172541 0.00722472
0.176066 0.0180471 0.00706599
0.181778 0.016788 0.00745977
0.181585 0.016059 0.00811847
0.175849 0.017109 0.00733581
0.182235 0.0188423 0.00689951
0.175979 0.0176718 0.00717392
0.182039 0.0175233 0.0071128
0.181757 0.0163718 0.0078311
0.181759 0.0167144 0.00752669
0.182049 0.0171953 0.00725753
0.187826 0.0170287 0.00741942
0.182326 0.0184197 0.00695414
0.17611 0.0182347 0.00701202
0.181546 0.0159145 0.00825099
0.176088 0.0181409 0.00703901
0.181815 0.0165902 0.00763375
0.181798 0.0168733 0.0074115
0.181997 0.0173413 0.00718127
0.182401 0.0183537 0.0069593
0.176129 0.0183291 0.00698494
0.175731 0.016576 0.00756118
0.181853 0.0167392 0.00750619
0.182209 0.017486 0.00711595
0.182265 0.0181289 0.00699859
0.182093 0.0173698 0.0071705
0.182028 0.0171078 0.00730125
0.181699 0.0161534 0.00802844
0.182211 0.018293 0.00697841
0.181953 0.0171667 0.00726836
0.182051 0.017971 0.00703282
0.182391 0.0178971 0.00702437
0.181566 0.0159862 0.00818426
0.176167 0.0185177 0.00693079
0.181623 0.0162046 0.0079869
0.188174 0.0181158 0.00694978
0.175808 0.0169208 0.00738948
0.176023 0.0178594 0.00711996
0.187846 0.0171113 0.00736701

VERTICES 271 542
1 0
1 1
1 2
1 3
1 4
1 5
1 6
1 7
1 8
1 9
1 10
1 11
1 12
1 13
1 14
1 15
1 16
1 17
1 18
1 19
1 20
1 21
1 22
1 23
1 24
1 25
1 26
1 27
1 28
1 29
1 30
1 31
1 32
1 33
1 34
1 35
1 36
1 37
1 38
1 39
1 40
1 41
1 42
1 43
1 44
1 45
1 46
1 47
1 48
1 49
1 50
1 51
1 52
1 53
1 54
1 55
1 56
1 57
1 58
1 59
1 60
1 61
1 62
1 63
1 64
1 65
1 66
1 67
1 68
1 69
1 70
1 71
1 72
1 73
1 74
1 75
1 76
1 77
1 78
1 79
1 80
1 81
1 82
1 83
1 84
1 85
1 86
1 87
1 88
1 89
1 90
1 91
1 92
1 93
1 94
1 95
1 96
1 97
1 98
1 99
1 100
1 101
1 102
1 103
1 104
1 105
1 106
1 107
1 108
1 109
1 110
1 111
1 112
1 113
1 114
1 115
1 116
1 117
1 118
1 119
1 120
1 121
1 122
1 123
1 124
1 125
1 126
1 127
1 128
1 129
1 130
1 131
1 132
1 133
1 134
1 135
1 136
1 137
1 138
1 139
1 140
1 141
1 142
1 143
1 144
1 145
1 146
1 147
1 148
1 149
1 150
1 151
1 152
1 153
1 154
1 155
1 156
1 157
1 158
1 159
1 160
1 161
1 162
1 163
1 164
1 165
1 166
1 167
1 168
1 169
1 170
1 171
1 172
1 173
1 174
1 175
1 176
1 177
1 178
1 179
1 180
1 181
1 182
1 183
1 184
1 185
1 186
1 187
1 188
1 189
1 190
1 191
1 192
1 193
1 194
1 195
1 196
1 197
1 198
1 199
1 200
1 201
1 202
1 203
1 204
1 205
1 206
1 207
1 208
1 209
1 210
1 211
1 212
1 213
1 214
1 215
1 216
1 217
1 218
1 219
1 220
1 221
1 222
1 223
1 224
1 225
1 226
1 227
1 228
1 229
1 230
1 231
1 232
1 233
1 234
1 235
1 236
1 237
1 238
1 239
1 240
1 241
1 242
1 243
1 244
1 245
1 246
1 247
1 248
1 249
1 250
1 251
1 252
1 253
1 254
1 255
1 256
1 257
1 258
1 259
1 260
1 261
1 262
1 263
1 264
1 265
1 266
1 267
1 268
1 269
1 270

POINT_DATA 271
SCALARS id int 1
LOOKUP_TABLE default
1
2
3
4
5
6
7
8
9
10
11
12
13
14
15
16
17
19
21
22
23
24
25
26
27
28
29
30
31
32
33
34
35
36
37
38
39
41
42
44
45
47
48
50
51
52
53
54
55
56
57
59
61
62
63
64
65
66
67
68
69
70
71
72
73
74
76
77
78
79
80
81
82
83
84
85
86
87
88
89
90
91
92
93
94
95
96
97
98
99
100
101
102
103
104
105
106
107
108
109
110
111
112
113
114
115
116
117
118
119
120
121
122
123
124
125
126
127
128
129
131
132
133
134
135
136
137
138
140
141
142
143
144
147
148
149
150
151
153
154
155
156
157
158
159
160
162
164
165
166
168
169
170
171
172
173
174
175
177
178
179
181
182
183
184
186
187
188
189
190
191
192
193
194
195
196
197
198
199
201
202
203
204
205
206
207
208
209
210
211
212
213
214
215
216
217
218
219
220
221
222
223
224
225
226
227
228
229
230
231
232
234
235
236
237
239
240
241
242
244
246
247
248
249
250
251
252
253
254
255
256
257
258
259
261
262
263
264
265
266
267
268
269
270
271
272
273
274
275
276
277
278
280
283
284
285
286
287
288
289
290
291
292
293
294
295
296
297
298
299
300

SCALARS type int 1
LOOKUP_TABLE default
1
1
1
1
1
1
1
1
1
1
1
1
1
1
1
1
1
1
1
1
1
1
1
1
1
1
1
1
1
1
1
1
1
1
1
1
1
1
1
1
1
1
1
1
1
1
1
1
1
1
1
1
1
1
1
1
1
1
1
1
1
1
1
1
1
1
1
1
1
1
1
1
1
1
1
1
1
1
1
1
1
1
1
1
1
1
1
1
1
1
1
1
1
1
1
1
1
1
1
1
1
1
1
1
1
1
1
1
1
1
1
1
1
1
1
1
1
1
1
1
1
1
1
1
1
1
1
1
1
1
1
1
1
1
1
1
1
1
1
1
1
1
1
1
1
1
1
1
1
1
1
1
1
1
1
1
1
1
1
1
1
1
1
1
1
1
1
1
1
1
1
1
1
1
1
1
1
1
1
1
1
1
1
1
1
1
1
1
1
1
1
1
1
1
1
1
1
1
1
1
1
1
1
1
1
1
1
1
1
1
1
1
1
1
1
1
1
1
1
1
1
1
1
1
1
1
1
1
1
1
1
1
1
1
1
1
1
1
1
1
1
1
1
1
1
1
1
1
1
1
1
1
1
1
1
1
1
1
1
1
1
1
1
1
1
1
1
1
1
1
1

SCALARS radius float 1
LOOKUP_TABLE default
5e-05
5e-05
5e-05
5e-05
5e-05
5e-05
5e-05
5e-05
5e-05
5e-05
5e-05
5e-05
5e-05
5e-05
5e-05
5e-05
5e-05
5e-05
5e-05
5e-05
5e-05
5e-05
5e-05
5e-05
5e-05
5e-05
5e-05
5e-05
5e-05
5e-05
5e-05
5e-05
5e-05
5e-05
5e-05
5e-05
5e-05
5e-05
5e-05
5e-05
5e-05
5e-05
5e-05
5e-05
5e-05
5e-05
5e-05
5e-05
5e-05
5e-05
5e-05
5e-05
5e-05
5e-05
5e-05
5e-05
5e-05
5e-05
5e-05
5e-05
5e-05
5e-05
5e-05
5e-05
5e-05
5e-05
5e-05
5e-05
5e-05
5e-05
5e-05
5e-05
5e-05
5e-05
5e-05
5e-05
5e-05
5e-05
5e-05
5e-05
5e-05
5e-05
5e-05
5e-05
5e-05
5e-05
5e-05
5e-05
5e-05
5e-05
5e-05
5e-05
5e-05
5e-05
5e-05
5e-05
5e-05
5e-05
5e-05
5e-05
5e-05
5e-05
5e-05
5e-05
5e-05
5e-05
5e-05
5e-05
5e-05
5e-05
5e-05
5e-05
5e-05
5e-05
5e-05
5e-05
5e-05
5e-05
5e-05
5e-05
5e-05
5e-05
5e-05
5e-05
5e-05
5e-05
5e-05
5e-05
5e-05
5e-05
5e-05
5e-05
5e-05
5e-05
5e-05
5e-05
5e-05
5e-05
5e-05
5e-05
5e-05
5e-05
5e-05
5e-05
5e-05
5e-05
5e-05
5e-05
5e-05
5e-05
5e-05
5e-05
5e-05
5e-05
5e-05
5e-05
5e-05
5e-05
5e-05
5e-05
5e-05
5e-05
5e-05
5e-05
5e-05
5e-05
5e-05
5e-05
5e-05
5e-05
5e-05
5e-05
5e-05
5e-05
5e-05
5e-05
5e-05
5e-05
5e-05
5e-05
5e-05
5e-05
5e-05
5e-05
5e-05
5e-05
5e-05
5e-05
5e-05
5e-05
5e-05
5e-05
5e-05
5e-05
5e-05
5e-05
5e-05
5e-05
5e-05
5e-05
5e-05
5e-05
5e-05
5e-05
5e-05
5e-05
5e-05
5e-05
5e-05
5e-05
5e-05
5e-05
5e-05
5e-05
5e-05
5e-05
5e-05
5e-05
5e-05
5e-05
5e-05
5e-05
5e-05
5e-05
5e-05
5e-05
5e-05
5e-05
5e-05
5e-05
5e-05
5e-05
5e-05
5e-05
5e-05
5e-05
5e-05
5e-05
5e-05
5e-05
5e-05
5e-05
5e-05
5e-05
5e-05
5e-05
5e-05
5e-05
5e-05
5e-05
5e-05
5e-05
5e-05
5e-05
5e-05
5e-05
5e-05
5e-05
5e-05
5e-05
5e-05
5e-05
5e-05
5e-05
5e-05
5e-05
5e-05
5e-05
5e-05
5e-05
5e-05

SCALARS mass float 1
LOOKUP_TABLE default
1.46608e-10
1.46608e-10
1.46608e-10
1.46608e-10
1.46608e-10
1.46608e-10
1.46608e-10
1.46608e-10
1.46608e-10
1.46608e-10
1.46608e-10
1.46608e-10
1.46608e-10
1.46608e-10
1.46608e-10
1.46608e-10
1.46608e-10
1.46608e-10
1.46608e-10
1.46608e-10
1.46608e-10
1.46608e-10
1.46608e-10
1.46608e-10
1.46608e-10
1.46608e-10
1.46608e-10
1.46608e-10
1.46608e-10
1.46608e-10
1.46608e-10
1.46608e-10
1.46608e-10
1.46608e-10
1.46608e-10
1.46608e-10
1.46608e-10
1.46608e-10
1.46608e-10
1.46608e-10
1.46608e-10
1.46608e-10
1.46608e-10
1.46608e-10
1.46608e-10
1.46608e-10
1.46608e-10
1.46608e-10
1.46608e-10
1.46608e-10
1.46608e-10
1.46608e-10
1.46608e-10
1.46608e-10
1.46608e-10
1.46608e-10
1.46608e-10
1.46608e-10
1.46608e-10
1.46608e-10
1.46608e-10
1.46608e-10
1.46608e-10
1.46608e-10
1.46608e-10
1.46608e-10
1.46608e-10
1.46608e-10
1.46608e-10
1.46608e-10
1.46608e-10
1.46608e-10
1.46608e-10
1.46608e-10
1.46608e-10
1.46608e-10
1.46608e-10
1.46608e-10
1.46608e-10
1.46608e-10
1.46608e-10
1.46608e-10
1.46608e-10
1.46608e-10
1.46608e-10
1.46608e-10
1.46608e-10
1.46608e-10
1.46608e-10
1.46608e-10
1.46608e-10
1.46608e-10
1.46608e-10
1.46608e-10
1.46608e-10
1.46608e-10
1.46608e-10
1.46608e-10
1.46608e-10
1.46608e-10
1.46608e-10
1.46608e-10
1.46608e-10
1.46608e-10
1.46608e-10
1.46608e-10
1.46608e-10
1.46608e-10
1.46608e-10
1.46608e-10
1.46608e-10
1.46608e-10
1.46608e-10
1.46608e-10
1.46608e-10
1.46608e-10
1.46608e-10
1.46608e-10
1.46608e-10
1.46608e-10
1.46608e-10
1.46608e-10
1.46608e-10
1.46608e-10
1.46608e-10
1.46608e-10
1.46608e-10
1.46608e-10
1.46608e-10
1.46608e-10
1.46608e-10
1.46608e-10
1.46608e-10
1.46608e-10
1.46608e-10
1.46608e-10
1.46608e-10
1.46608e-10
1.46608e-10
1.46608e-10
1.46608e-10
1.46608e-10
1.46608e-10
1.46608e-10
1.46608e-10
1.46608e-10
1.46608e-10
1.46608e-10
1.46608e-10
1.46608e-10
1.46608e-10
1.46608e-10
1.46608e-10
1.46608e-10
1.46608e-10
1.46608e-10
1.46608e-10
1.46608e-10
1.46608e-10
1.46608e-10
1.46608e-10
1.46608e-10
1.46608e-10
1.46608e-10
1.46608e-10
1.46608e-10
1.46608e-10
1.46608e-10
1.46608e-10
1.46608e-10
1.46608e-10
1.46608e-10
1.46608e-10
1.46608e-10
1.46608e-10
1.46608e-10
1.46608e-10
1.46608e-10
1.46608e-10
1.46608e-10
1.46608e-10
1.46608e-10
1.46608e-10
1.46608e-10
1.46608e-10
1.46608e-10
1.46608e-10
1.46608e-10
1.46608e-10
1.46608e-10
1.46608e-10
1.46608e-10
1.46608e-10
1.46608e-10
1.46608e-10
1.46608e-10
1.46608e-10
1.46608e-10
1.46608e-10
1.46608e-10
1.46608e-10
1.46608e-10
1.46608e-10
1.46608e-10
1.46608e-10
1.46608e-10
1.46608e-10
1.46608e-10
1.46608e-10
1.46608e-10
1.46608e-10
1.46608e-10
1.46608e-10
1.46608e-10
1.46608e-10
1.46608e-10
1.46608e-10
1.46608e-10
1.46608e-10
1.46608e-10
1.46608e-10
1.46608e-10
1.46608e-10
1.46608e-10
1.46608e-10
1.46608e-10
1.46608e-10
1.46608e-10
1.46608e-10
1.46608e-10
1.46608e-10
1.46608e-10
1.46608e-10
1.46608e-10
1.46608e-10
1.46608e-10
1.46608e-10
1.46608e-10
1.46608e-10
1.46608e-10
1.46608e-10
1.46608e-10
1.46608e-10
1.46608e-10
1.46608e-10
1.46608e-10
1.46608e-10
1.46608e-10
1.46608e-10
1.46608e-10
1.46608e-10
1.46608e-10
1.46608e-10
1.46608e-10
1.46608e-10
1.46608e-10
1.46608e-10
1.46608e-10
1.46608e-10
1.46608e-10
1.46608e-10
1.46608e-10
1.46608e-10
1.46608e-10
1.46608e-10
1.46608e-10
1.46608e-10
1.46608e-10
1.46608e-10
1.46608e-10
1.46608e-10

VECTORS velocity float
0.00555066 7.21567e-05 -0.000536302
0.00615576 0.000362205 -0.000176527
0.00612231 0.000123931 -0.000356932
0.00629094 -0.000172838 -0.00020793
0.00574723 7.04538e-05 -0.000572565
0.00566838 6.73254e-06 0.000266597
0.00562289 -1.94028e-05 -0.000393351
0.00617779 5.43029e-05 -0.000579725
0.00620909 -8.08945e-05 0.000334153
0.00642944 0.00053505 -6.33484e-05
0.00630039 -1.5239e-05 -0.000117747
0.00582669 0.000126502 -0.000320732
0.00617375 2.41655e-05 -0.000505678
0.00573811 0.000161106 -0.000341072
0.00615879 -0.000191633 -0.000182649
0.00576566 0.000154997 -0.000342057
0.00620536 -5.57441e-06 0.00014735
0.00629908 -0.000126292 -0.000711357
0.00627587 0.000499545 -5.40831e-05
0.00617761 0.000130214 0.000190837
0.00553412 0.00011323 -0.000396175
0.00626541 -0.000228641 -5.22618e-05
0.00569165 0.000265777 6.7845e-05
0.00562718 1.721e-05 0.000259713
0.00608468 8.46409e-05 -0.000349596
0.00628256 -4.62312e-06 0.000135601
0.00569207 5.24838e-06 -0.000324228
0.00634485 3.32203e-05 -8.45497e-05
0.00568963 0.00027397 7.82912e-05
0.00584877 0.00036691 1.68615e-05
0.0056581 8.27503e-06 0.000265483
0.00554808 1.70887e-05 -0.000419364
0.00601966 0.000212093 0.000126425
0.00625378 -0.000227691 -5.26368e-05
0.00557153 0.000244121 -0.000147397
0.00584116 0.000204457 -0.000146084
0.00627722 -0.000229979 -5.1995e-05
0.00612213 0.000327089 -0.000170378
4.57288e-16 2.25531e-15 8.4636e-14
0.00630813 4.75271e-05 -0.00034489
0.00564791 1.07119e-05 0.000263708
0.0054765 6.08578e-05 -0.000501385
0.00580592 0.000206334 -0.000145758
0.00564555 0.000312185 3.52379e-05
0.00569014 0.000281858 6.31731e-05
0.00580541 0.000203155 -0.000194015
0.00624008 -0.000226959 -5.27523e-05
0.00530482 0.000181947 -0.00013189
0.00568644 8.47272e-05 -0.000292046
0.00576724 0.000216499 -0.00014687
0.00563741 1.40711e-05 0.000261737
0.00612858 0.000120476 0.000179923
0.00579325 0.000385524 1.08756e-06
0.00570053 9.00441e-05 -0.00012591
0.00633041 0.000217973 0.000134991
0.0062889 -0.000231736 -5.17809e-05
0.00557612 0.00013433 -0.000414971
0.00631432 6.79646e-05 -0.000248983
0.00484719 0.000353145 -0.000149365
0.00591597 0.000318388 5.04841e-05
0.00572093 9.45652e-05 -0.000127716
0.00561611 1.94049e-05 0.000258051
0.00582467 0.000212058 -0.000163271
0.00570383 0.000127674 -0.000126913
0.00584981 0.000223916 -0.000149748
0.00568024 0.000176505 -0.000138483
0.00550111 0.000332024 -0.000352262
0.006157 0.000174687 0.000154204
0.00552827 0.00022381 -0.0003388
0.00580624 0.000225853 -0.000200237
0.00478855 0.000587585 -0.00018281
0.00553482 0.000252425 -0.000342904
0.00581732 -3.75863e-05 -0.000504817
0.00553812 0.000264392 -0.000345119
0.00623797 -8.3535e-05 0.000336958
0.00602207 0.000116128 -0.00035082
0.00594999 0.000961218 -0.000261247
0.00577517 0.000150081 -0.000136497
0.00566487 0.000591152 -0.000135431
0.00574349 0.000166254 -0.000138318
0.00631662 5.70443e-05 3.02122e-05
0.00604856 0.000628156 -0.00042446
0.00520019 0.000274272 -0.000143953
0.0056264 0.000379573 -2.09217e-06
0.00627823 9.02529e-06 -8.3512e-05
0.00614571 0.000215434 0.000109985
0.00564515 0.000409547 -2.39286e-05
0.00566145 8.95887e-05 -0.00037949
0.00623442 -8.33648e-05 -0.000127203
0.00567924 0.000281733 -0.000107283
0.00568778 0.000107543 -0.000128439
0.00581982 0.000222141 -0.000208737
4.30049e-15 1.04184e-14 8.29686e-14
3.10422e-23 4.86658e-23 1.23839e-22
0.00634226 0.000143204 -0.000367642
0.00623561 0.000168933 -0.000376175
0.00628131 0.0003192 8.61514e-05
0.00632755 0.000292888 9.95679e-05
0.00574428 7.94428e-05 -0.000124557
0.00624992 0.000187033 0.000146242
0.00562295 0.00045109 -4.75451e-05
0.00610869 0.000261802 9.22676e-05
0.00626977 9.03442e-05 -0.000361586
0.00569246 0.000115079 -0.000403489
0.00548581 0.000229277 -0.000336891
0.00622126 -0.00014099 -0.000185741
0.00536164 0.000174253 -0.000131981
0.00592448 0.000239533 -0.000152749
0.0063245 0.000204562 -3.88531e-05
0.00620459 0.000156537 0.000169726
0.00562272 0.000121587 -0.000176632
0.00545041 4.5488e-05 -0.00046818
0.00598967 0.000329777 4.3197e-05
0.00632946 0.000284741 0.0001089
0.00602963 0.000297582 5.44469e-05
0.00587259 0.000214557 -0.000148661
0.00583596 0.000382048 6.16379e-06
0.0061251 0.000109701 -0.000355532
0.00599125 0.000345522 3.91312e-05
0.00626237 -2.12943e-05 -0.0001241
0.00623766 0.00016798 -0.000363993
0.00627695 2.25106e-05 -0.000136126
0.00636804 -1.17363e-05 -0.000648773
0.00589632 0.000368377 1.72258e-05
0.00599817 0.000123289 -0.000663813
0.00574689 0.000114913 -0.000335603
0.00559011 0.000354566 1.27744e-05
0.00631233 -1.84307e-05 -0.000127136
0.00624829 5.47865e-05 7.51484e-05
0.00621339 0.000132963 -0.000363092
0.00629637 0.000300855 9.57618e-05
0.00577585 0.000164973 -0.000190605
0.00631145 9.57639e-05 -0.000357597
0.00572769 0.000158049 -0.000340204
0.00569392 0.000332015 5.87026e-05
0.00570008 0.000610277 -0.000146329
8.3851e-15 1.2409e-15 -8.48744e-14
0.00461003 0.000890167 -6.62226e-05
0.0058397 0.000186202 -0.00035043
0.00632274 0.00011631 -0.000264386
0.00626989 0.000256877 0.000116759
0.00624257 0.000111446 -0.000359904
-3.82902e-14 8.16663e-14 2.95893e-13
0.00590356 0.000846284 -0.000447207
0.0057484 0.000130529 -0.000132965
0.00632645 9.94631e-05 -0.00038141
0.00584801 0.00020799 -0.000353958
0.00572053 8.6296e-05 -0.000386902
0.00627335 0.00016169 -0.000373132
0.00580228 0.000229703 -0.00014961
0.00573804 0.000353859 3.76737e-05
0.00559822 0.000347966 -0.000359901
0.00626704 0.00018112 -0.000374049
0.00636733 4.61377e-05 -0.000129342
0.00632241 0.000143129 -0.00036967
0.0053923 0.00108558 -0.000270612
0.00629435 0.000265876 0.000111369
0.00593676 -0.000989851 0.000157656
0.00601241 0.000280412 9.4374e-05
0.00614154 0.000300916 0.000122665
0.00632284 0.000245911 0.000132199
0.00548359 0.00035401 -0.000354057
0.00641319 0.000304303 7.615e-05
0.00631488 0.000145712 -0.000370186
0.00622306 0.000100162 2.24397e-05
0.00587604 -0.00152353 -0.00382569
0.00625662 0.000495991 -4.77673e-05
0.00588173 0.000349717 2.94236e-05
0.00574279 0.000150209 -0.000140536
0.00546236 -0.000885517 0.000137412
0.00599016 0.000281911 7.50701e-05
0.0063197 0.00011794 -0.000399038
0.00625285 0.000128641 0.00017409
1.51434e-15 -1.10154e-14 8.66682e-14
0.00612836 0.000413197 -0.00039853
0.00559942 0.000100318 -0.000385675
0.00594215 -0.000993683 0.000158496
0.00578167 6.75212e-05 -0.000330449
0.00621899 5.55117e-05 -0.000350322
0.00566594 0.000118475 -0.000409516
0.00622782 0.000165777 -0.000368538
0.00562748 0.000487828 -7.18805e-05
0.00579508 0.000215036 -0.000202334
0.00618254 0.000252404 -0.000378596
0.00565717 9.61713e-05 -0.000383657
0.00592174 0.000336507 9.34016e-05
0.0062654 0.000109713 -0.000359512
0.0055433 -0.000819934 0.000117563
0.00637763 0.000517277 -5.25873e-05
0.00621634 0.000515038 -6.17884e-05
0.00624789 0.000197554 -0.000374821
0.00515072 0.000305687 -0.000147611
0.00588475 0.000598384 -0.000129845
0.00567696 -0.000924746 0.000144691
0.00623543 0.000164578 -0.00036863
0.00585832 0.000219665 -0.000149792
0.00573358 -6.76641e-05 -0.000568029
0.00566917 0.000557052 -0.000118315
0.00620992 0.000171107 -0.00036895
0.00569896 -3.05646e-05 9.91386e-06
0.00460337 0.00039582 -0.00014989
0.00632798 0.000114037 -0.000390299
-0.0326874 0.0261733 -0.00732985
0.00606418 0.000126263 0.000167947
0.0062239 0.0001533 0.000166927
0.00554376 -0.000902075 0.000141235
0.00593986 -0.000990463 0.000157505
0.00548677 0.000368102 -0.000356288
0.0056331 0.000127284 -0.00041268
0.00593663 -0.00098949 0.000157501
0.00625641 6.46018e-05 -0.000354945
0.00628028 -2.56729e-05 -0.000136877
0.00623479 0.000243339 -0.000379445
0.00553452 0.000137903 -0.000414821
0.00549762 0.000133387 -0.000411362
0.00553389 -0.00225416 -0.00189216
0.00553286 -0.000872296 0.000253736
0.00593081 -0.000949506 0.000277993
0.00633602 0.000262858 0.000104058
0.00549904 -0.000866625 0.000253931
0.00593616 -0.000988304 0.000157089
0.00553673 0.000101099 -0.000321576
0.00564435 0.000127165 -0.000412712
0.00563168 -0.000917437 0.000143356
0.00584045 0.000306589 7.59471e-05
0.00564908 0.000525431 -9.34009e-05
0.00594702 -0.000992028 0.000157879
0.00553132 -0.000850932 0.000308179
0.00593474 -0.00098689 0.000156682
0.00628465 8.76519e-05 -0.000352423
0.00631572 0.000247568 0.000119147
0.00624979 0.000250073 0.000119402
0.00631926 0.000257143 0.000116945
0.00594818 -0.000993721 0.000158396
0.00574668 0.000208199 -0.000485218
0.00545707 0.000138816 -0.000409836
0.00593292 -0.000985549 0.000156621
0.00585903 0.000130386 -0.000343749
0.00594272 -0.000992783 0.000158151
0.00632065 0.000200234 -4.78397e-05
0.00565123 8.99496e-05 -0.000378955
0.00570479 0.000113378 -0.000396663
0.00621366 0.000255898 0.000115642
0.00609056 0.000564402 -0.000101455
0.00569459 0.000323035 -0.000361838
0.00545538 -0.000886356 0.000138173
0.00555425 6.63874e-05 -0.000475736
0.00594887 -0.000993976 0.000158395
0.00569623 9.16267e-05 -0.000380276
0.00573272 0.000454302 -1.30162e-05
0.00628455 0.000259306 0.000114095
0.00563637 0.000237203 -0.000346575
0.00549995 -0.000894319 0.000139259
0.00559541 -0.000366757 0.000255147
0.00570579 0.00015401 -0.000315912
0.00630663 0.000261437 0.00011075
0.00607852 0.000387542 -0.000392099
0.00628679 0.000253547 0.000112704
0.00614845 0.000262555 0.00010776
0.00551002 0.000118133 -0.000400922
0.0055102 0.000230931 -0.000338542
0.00627497 0.000267624 0.000118486
0.00626668 7.42767e-05 -0.000354579
0.00615306 0.000151318 -0.000363167
0.00545108 0.000141352 -0.000418908
0.0055883 -0.000910057 0.000141874
0.0055266 0.000134466 -0.000412508
0.00522283 0.000262497 -0.000142687
0.00547789 -0.000862818 0.000252998
0.00594371 -0.000991988 0.000158017
0.00616764 0.000531528 -7.99892e-05

VECTORS force float
-8.72723e-10 7.34991e-10 4.69347e-10
8.57248e-11 -3.64345e-11 -1.07862e-10
-5.29842e-10 1.4447e-10 1.43312e-11
2.53976e-10 -4.00429e-10 -3.58739e-10
1.67375e-10 1.61278e-10 3.93319e-10
6.45104e-13 8.00707e-12 -4.6633e-12
1.51425e-10 -1.12561e-10 3.9847e-10
-7.51961e-10 -3.44877e-10 2.41737e-10
-2.7553e-12 -3.06739e-12 -6.91649e-12
1.88535e-10 7.49364e-10 -5.79206e-10
1.04169e-10 -1.23427e-10 3.01549e-10
-4.24836e-11 -1.6229e-10 3.23102e-11
8.28187e-11 4.2247e-10 -8.3113e-10
5.95088e-11 -2.97673e-10 3.36335e-11
2.76618e-10 -1.17295e-10 1.62242e-10
7.84579e-10 -4.23326e-10 1.50259e-11
-3.56742e-10 1.64193e-10 1.09631e-10
1.19139e-10 9.45036e-11 -4.28509e-10
-2.69092e-10 7.17837e-10 -5.12305e-10
-7.68525e-10 7.15051e-11 1.94715e-10
6.80073e-11 2.62715e-11 -4.92527e-11
-2.24111e-13 -3.1761e-12 9.48446e-13
-1.39919e-10 -3.42756e-10 1.8232e-10
-7.15354e-12 -4.93837e-12 -6.06731e-13
-3.1245e-11 -3.58239e-10 4.63528e-11
1.75582e-11 3.34891e-11 4.35887e-10
-5.33785e-11 -2.36634e-10 4.99443e-10
2.25012e-10 2.26685e-10 -1.43133e-10
-6.21509e-12 -1.08383e-10 1.68067e-10
-3.52183e-10 4.09757e-10 -2.97391e-10
4.51366e-12 9.466e-12 -2.49575e-12
-1.46075e-10 -1.5842e-10 2.51211e-10
-2.2611e-10 3.63216e-12 -3.30051e-11
4.28187e-13 -9.18209e-12 2.82315e-14
-7.94365e-11 4.03904e-11 1.46085e-11
3.16962e-11 3.71879e-10 -5.51954e-11
-4.61878e-13 -1.07442e-12 4.82195e-13
7.58887e-10 -2.05149e-10 -5.29193e-11
-4.47518e-24 7.56095e-25 0.0
-8.36416e-10 2.87724e-10 -4.75238e-10
2.24298e-12 1.13425e-11 -6.63664e-12
-3.92911e-10 -1.0187e-10 1.18942e-10
1.00121e-10 -1.21491e-10 2.02738e-11
-3.34139e-10 2.83542e-10 -2.21545e-10
-1.35309e-10 9.17057e-11 -4.28083e-11
2.01222e-11 2.08793e-10 -6.14766e-11
-1.88102e-11 -5.24026e-12 2.23623e-11
-1.89391e-10 -3.73443e-11 1.62752e-11
-3.81838e-11 5.83242e-10 -4.01225e-10
-3.52927e-11 -5.82597e-11 -1.27602e-11
4.33996e-14 7.81793e-12 -2.58991e-12
-1.3558e-10 1.39266e-10 1.54679e-10
1.45313e-10 4.00877e-10 -2.6616e-10
-2.27449e-10 -3.09066e-11 1.1105e-11
5.51685e-10 -2.40599e-10 1.20862e-10
7.29877e-14 -2.66024e-13 -4.56557e-13
1.49042e-10 1.57711e-10 -1.33745e-10
-5.33106e-10 -1.78768e-10 -7.48219e-10
-8.29886e-11 1.68112e-10 -4.44266e-11
-5.87103e-10 4.67105e-10 -3.40389e-10
3.09625e-11 -2.9708e-11 2.06083e-11
1.39974e-11 -3.37907e-12 3.56456e-12
7.17539e-11 2.86806e-10 -3.86079e-10
-6.65606e-10 -2.12766e-10 4.77187e-11
1.86902e-10 7.59467e-11 4.96742e-12
1.08868e-10 -1.11706e-10 1.24099e-11
-5.92911e-10 -5.39929e-10 1.12862e-10
-4.08845e-10 2.55286e-11 -4.40503e-11
3.30033e-11 -2.30802e-10 3.52114e-11
-7.11106e-11 -1.71728e-10 1.29042e-10
-5.10133e-11 1.29392e-11 -5.45006e-12
4.50748e-10 -6.62208e-11 -1.53437e-11
1.59826e-10 -3.87781e-10 -2.51696e-10
2.47951e-10 -1.94626e-10 1.77887e-11
9.28345e-13 8.9025e-12 -6.7214e-12
-3.47975e-10 1.35447e-10 2.49379e-12
1.21697e-10 9.85031e-11 -3.31021e-11
-2.43293e-10 1.34516e-10 -1.48719e-11
1.61276e-10 3.09052e-10 -1.72284e-10
-1.89339e-10 -6.58564e-11 1.21156e-11
-6.21295e-10 1.51678e-10 1.85664e-10
2.8953e-10 1.33723e-10 -3.67616e-11
1.68546e-12 -1.36538e-10 2.80538e-11
4.21232e-10 3.55441e-10 -2.456e-10
-1.8043e-10 3.02024e-10 4.97233e-10
-9.77064e-10 7.11434e-11 -1.37874e-10
2.36529e-10 3.71522e-10 -2.75568e-10
1.98397e-11 6.3027e-11 -6.62122e-11
5.09283e-10 -2.23014e-10 7.5755e-10
2.07359e-10 1.72799e-11 1.31769e-10
-1.71246e-10 -7.43546e-12 2.47224e-12
-6.11835e-11 -1.4402e-10 1.72993e-10
-2.0626e-21 1.53504e-21 -9.05763e-23
0.0 0.0 0.0
-6.6386e-11 -1.65502e-10 -4.50763e-11
1.06781e-10 3.01048e-10 4.55377e-11
1.46904e-10 -7.43962e-11 1.20206e-10
-1.89625e-11 9.5669e-11 -4.20216e-11
-2.65264e-11 -4.03676e-11 -3.37989e-12
-2.82889e-10 2.08254e-10 -2.2001e-10
1.28207e-10 3.47244e-10 -2.18623e-10
-7.01284e-10 1.63775e-10 -8.42878e-11
-6.08995e-10 -1.66351e-10 6.58151e-11
-3.73904e-11 -1.21893e-11 -1.47079e-11
4.43707e-12 -2.27658e-10 3.56317e-11
2.71669e-10 -4.03271e-10 5.74416e-10
-2.50803e-10 6.48238e-11 -2.23528e-11
-1.87397e-10 -2.77065e-10 3.7034e-11
1.49921e-10 -2.60167e-11 2.29191e-10