# vtk DataFile Version 3.0
LIGGGHTS particles timestep 38600000
ASCII
DATASET POLYDATA
POINTS 271 float
0.237609 0.0156237 0.00847151
0.238391 0.0181028 0.0069598
0.232615 0.0182721 0.00702784
0.238466 0.0180379 0.00697149
0.237587 0.0155641 0.00854888
0.243971 0.0170131 0.00755967
0.237696 0.0158673 0.00816658
0.237566 0.0155045 0.00862622
0.24408 0.0174683 0.00718471
0.238104 0.0175588 0.00706728
0.238237 0.0177823 0.00702095
0.231699 0.0159145 0.00821672
0.237501 0.0153257 0.00885826
0.232361 0.0187755 0.00684634
0.238446 0.0179415 0.0069897
0.232457 0.018806 0.00683731
0.23856 0.0180722 0.00696444
0.237544 0.0154449 0.00870356
0.238065 0.0173812 0.00714904
0.238218 0.0176859 0.00703916
0.231931 0.0164337 0.0077535
0.244155 0.0178112 0.00703215
0.237757 0.0160548 0.00794106
0.244045 0.0173165 0.00730975
0.232704 0.0186577 0.00689388
0.238352 0.0179101 0.00699622
0.237716 0.0159267 0.00808883
0.238214 0.0178687 0.0070923
0.237773 0.0161255 0.00787223
0.238206 0.0171815 0.00726611
0.24399 0.0170889 0.00749726
0.237674 0.0158048 0.00824172
0.238368 0.0175554 0.00706266
0.244136 0.0177131 0.00702895
0.23824 0.0182326 0.00693643
0.238411 0.0185673 0.00687253
0.244173 0.0179095 0.00703536
0.238581 0.0181682 0.00694629
0.321436 0.0173475 0.00552525
0.238371 0.0180065 0.00697801
0.244008 0.0171648 0.00743475
0.237632 0.0156831 0.00839463
0.23839 0.0184713 0.00689068
0.237814 0.016295 0.00777436
0.237796 0.0162098 0.00782355
0.231616 0.0157304 0.00856017
0.244122 0.0176192 0.00706046
0.238347 0.0182341 0.0070162
0.23155 0.0155933 0.0088187
0.238261 0.0183288 0.00691825
0.244026 0.0172407 0.0073722
0.238198 0.0175895 0.00705737
0.238076 0.016982 0.0073799
0.23854 0.0183406 0.00691422
0.238541 0.017973 0.00698318
0.244192 0.0180076 0.00703856
0.231877 0.0165825 0.0076836
0.231529 0.0155476 0.00890513
0.238316 0.0181677 0.00694812
0.238235 0.017353 0.00716762
0.238319 0.0183586 0.00699401
0.244066 0.0173919 0.00724767
0.231591 0.0156848 0.0086458
0.238201 0.0180399 0.00697285
0.238303 0.0185208 0.00688195
0.238369 0.0183753 0.00690883
0.232607 0.0186255 0.00690346
0.238293 0.017621 0.00705098
0.232341 0.0186831 0.00687847
0.231655 0.0158219 0.0083868
0.238506 0.0182333 0.00693457
0.23248 0.0189031 0.00682862
0.231716 0.0159585 0.00812864
0.232395 0.0185287 0.00693372
0.244099 0.0175442 0.00712223
0.232635 0.0183646 0.00699568
0.238602 0.0182642 0.00692814
0.238486 0.0185021 0.00688427
0.237977 0.0169728 0.00738412
0.238465 0.0184061 0.00690243
0.238257 0.0178786 0.00700274
0.232674 0.0185557 0.0069292
0.238347 0.0182792 0.00692699
0.237855 0.0164645 0.00767653
0.238307 0.0179055 0.00708533
0.23816 0.0175736 0.00714842
0.237875 0.0165494 0.00762772
0.231993 0.0166959 0.00762041
0.238332 0.0178137 0.00701443
0.232091 0.0171414 0.00741607
0.238443 0.0183099 0.00692061
0.231688 0.0158668 0.00830397
0.0643568 0.0187248 0.00531097
0.24257 0.0191927 0.00520306
0.232292 0.0180666 0.00709437
0.232727 0.0187506 0.00686161
0.232573 0.0180873 0.0070921
0.232553 0.0179946 0.00712433
0.238336 0.0184921 0.00697214
0.238522 0.0178766 0.00700139
0.237896 0.0166342 0.00757893
0.238179 0.0174951 0.00708452
0.232354 0.0183439 0.00699798
0.231957 0.0169325 0.00750741
0.23232 0.0185907 0.00691061
0.238427 0.0178452 0.00700791
0.238238 0.0182157 0.00703497
0.238346 0.0187128 0.00684565
0.232155 0.0178512 0.00716765
0.238388 0.0176524 0.00704432
0.237741 0.0159878 0.00801345
0.237652 0.0157442 0.00831788
0.238141 0.0173247 0.00718255
0.232114 0.0176664 0.00723193
0.23816 0.01741 0.00713348
0.238433 0.0186634 0.00685436
0.238098 0.0170666 0.00733125
0.232573 0.0189334 0.00681087
0.23812 0.0172388 0.00723203
0.238162 0.0178472 0.00700926
0.232594 0.0181797 0.00705997
0.238277 0.017975 0.00698453
0.238123 0.0176546 0.00704648
0.238111 0.0171525 0.00728179
0.237522 0.0153853 0.00878091
0.232382 0.0188682 0.00681411
0.237835 0.0163796 0.00772551
0.238333 0.018053 0.00705761
0.238313 0.0177174 0.00703263
0.232375 0.0184363 0.00696585
0.232094 0.0175738 0.00726412
0.231571 0.0156391 0.00873224
0.232217 0.0181285 0.00707126
0.232436 0.0187136 0.00686946
0.232186 0.0171719 0.00740706
0.237993 0.0170582 0.00733491
0.0100679 0.0201683 0.00551526
0.232055 0.0173886 0.00732854
0.232426 0.0190651 0.00684324
0.232176 0.0179437 0.00713552
0.232395 0.0176868 0.00722974
0.232333 0.0182515 0.00703011
0.0219312 0.0187687 0.00551176
0.232581 0.0185194 0.00694031
0.238561 0.0184366 0.00689607
0.232197 0.0180361 0.00710339
0.232501 0.0190008 0.00682735
0.232052 0.0169588 0.00748715
0.232388 0.0180969 0.00708542
0.238282 0.0184248 0.0069001
0.23211 0.0172341 0.00738385
0.232554 0.018836 0.00682848
0.232478 0.018057 0.00710104
0.238229 0.0179782 0.00707229
0.232367 0.0180045 0.00711755
0.238485 0.0181372 0.00695274
0.232416 0.0177794 0.00719756
0.226048 0.0173514 0.00730495
0.232225 0.0173571 0.00734263
0.23215 0.0174193 0.00731943
0.23223 0.0177893 0.00719076
0.232511 0.0186514 0.00689264
0.238143 0.0177508 0.00702748
0.232457 0.0179646 0.00713317
0.238166 0.0177168 0.00711867
0.232035 0.0172962 0.00736129
0.238046 0.0172962 0.00719799
0.238222 0.017267 0.00721685
0.238296 0.0180714 0.00696632
0.226331 0.0186354 0.00693071
0.238264 0.017436 0.00711964
0.232346 0.017912 0.00714968
0.238407 0.0177488 0.00702612
0.161461 0.0182058 0.00533758
0.232561 0.0184269 0.00697246
0.231951 0.016521 0.00770917
0.226107 0.0176131 0.0071704
0.232405 0.0189689 0.00682254
0.2323 0.0184982 0.00694274
0.231937 0.0168445 0.00755068
0.232429 0.0182817 0.00702116
0.237922 0.0167179 0.00753082
0.231633 0.0157783 0.00847418
0.232519 0.018242 0.00703672
0.232012 0.0167836 0.00757595
0.23213 0.0173267 0.00735164
0.232313 0.018159 0.00706224
0.229147 0.0180938 0.00711044
0.238084 0.0174663 0.00710007
0.238118 0.0174219 0.00722358
0.232449 0.0183742 0.00698903
0.238221 0.0181362 0.00695464
0.238012 0.0171447 0.00728822
0.226309 0.0185378 0.0069322
0.232408 0.0181893 0.00705329
0.238325 0.0186168 0.0068638
0.231739 0.0160252 0.00805769
0.237954 0.0168923 0.00743912
0.23254 0.0183345 0.00700459
0.292164 0.0178308 0.00697712
0.238409 0.0182022 0.00694103
0.232272 0.0179742 0.0071265
0.0189933 0.0181411 0.00771005
0.238273 0.0175276 0.00708068
0.232075 0.0174812 0.00729633
0.226245 0.0182449 0.00693667
0.226068 0.0174387 0.0072601
0.232491 0.018559 0.00692477
0.231897 0.0166697 0.0076393
0.226029 0.0172642 0.0073498
0.232279 0.0184058 0.00697487
0.238182 0.0179435 0.00699106
0.232499 0.0181496 0.00706886
0.231856 0.0164952 0.0077279
0.231815 0.0163214 0.00781795
0.225873 0.0166219 0.00779293
0.225894 0.0166963 0.00772936
0.225952 0.0169205 0.0075386
0.232135 0.0177588 0.00719979
0.225915 0.0167707 0.00766577
0.22601 0.017177 0.00739465
0.23265 0.0188106 0.00683914
0.231918 0.016757 0.007595
0.226288 0.0184402 0.00693369
0.232205 0.0172645 0.00737485
0.237942 0.0168028 0.00748199
0.226146 0.0177876 0.0070807
0.226353 0.018733 0.00692921
0.22599 0.0170897 0.00743951
0.232238 0.0182209 0.00703913
0.232326 0.0178196 0.00718181
0.232285 0.0176347 0.00724608
0.232189 0.0176044 0.00725504
0.226165 0.0178748 0.00703587
0.231996 0.0171115 0.00742741
0.231795 0.0162335 0.00786078
0.225971 0.0170029 0.0074853
0.232447 0.0191607 0.0068638
0.226087 0.0175259 0.00721525
0.232251 0.0178817 0.00715863
0.231972 0.0166085 0.00766475
0.231977 0.0170215 0.00746622
0.232264 0.0175422 0.00727824
0.238032 0.0172424 0.00728109
0.232532 0.0187439 0.00686049
0.226204 0.0180493 0.00694615
0.231755 0.0160748 0.00797233
0.226185 0.0179621 0.00699101
0.232032 0.0168712 0.00753149
0.232016 0.0172034 0.00739296
0.23221 0.0176969 0.0072229
0.232628 0.0187184 0.00687115
0.226224 0.0181472 0.00694039
0.225852 0.0165478 0.00785644
0.232071 0.0170488 0.00744828
0.232437 0.0178721 0.00716531
0.23247 0.0184666 0.0069569
0.232305 0.0177272 0.00721394
0.232244 0.0174497 0.00731042
0.23191 0.0163463 0.00779789
0.232416 0.0186212 0.00690159
0.232169 0.0175119 0.00728722
0.232258 0.0183134 0.007007
0.232656 0.0184572 0.00696349
0.231775 0.0161459 0.00790512
0.226266 0.0183426 0.00693518
0.231836 0.0164079 0.0077722
0.238258 0.0181182 0.00704588
0.225933 0.0168455 0.00760207
0.226126 0.0177004 0.00712555
0.238054 0.0173625 0.00727242

VERTICES 271 542
1 0
1 1
1 2
1 3
1 4
1 5
1 6
1 7
1 8
1 9
1 10
1 11
1 12
1 13
1 14
1 15
1 16
1 17
1 18
1 19
1 20
1 21
1 22
1 23
1 24
1 25
1 26
1 27
1 28
1 29
1 30
1 31
1 32
1 33
1 34
1 35
1 36
1 37
1 38
1 39
1 40
1 41
1 42
1 43
1 44
1 45
1 46
1 47
1 48
1 49
1 50
1 51
1 52
1 53
1 54
1 55
1 56
1 57
1 58
1 59
1 60
1 61
1 62
1 63
1 64
1 65
1 66
1 67
1 68
1 69
1 70
1 71
1 72
1 73
1 74
1 75
1 76
1 77
1 78
1 79
1 80
1 81
1 82
1 83
1 84
1 85
1 86
1 87
1 88
1 89
1 90
1 91
1 92
1 93
1 94
1 95
1 96
1 97
1 98
1 99
1 100
1 101
1 102
1 103
1 104
1 105
1 106
1 107
1 108
1 109
1 110
1 111
1 112
1 113
1 114
1 115
1 116
1 117
1 118
1 119
1 120
1 121
1 122
1 123
1 124
1 125
1 126
1 127
1 128
1 129
1 130
1 131
1 132
1 133
1 134
1 135
1 136
1 137
1 138
1 139
1 140
1 141
1 142
1 143
1 144
1 145
1 146
1 147
1 148
1 149
1 150
1 151
1 152
1 153
1 154
1 155
1 156
1 157
1 158
1 159
1 160
1 161
1 162
1 163
1 164
1 165
1 166
1 167
1 168
1 169
1 170
1 171
1 172
1 173
1 174
1 175
1 176
1 177
1 178
1 179
1 180
1 181
1 182
1 183
1 184
1 185
1 186
1 187
1 188
1 189
1 190
1 191
1 192
1 193
1 194
1 195
1 196
1 197
1 198
1 199
1 200
1 201
1 202
1 203
1 204
1 205
1 206
1 207
1 208
1 209
1 210
1 211
1 212
1 213
1 214
1 215
1 216
1 217
1 218
1 219
1 220
1 221
1 222
1 223
1 224
1 225
1 226
1 227
1 228
1 229
1 230
1 231
1 232
1 233
1 234
1 235
1 236
1 237
1 238
1 239
1 240
1 241
1 242
1 243
1 244
1 245
1 246
1 247
1 248
1 249
1 250
1 251
1 252
1 253
1 254
1 255
1 256
1 257
1 258
1 259
1 260
1 261
1 262
1 263
1 264
1 265
1 266
1 267
1 268
1 269
1 270

POINT_DATA 271
SCALARS id int 1
LOOKUP_TABLE default
1
2
3
4
5
6
7
8
9
10
11
12
13
14
15
16
17
19
21
22
23
24
25
26
27
28
29
30
31
32
33
34
35
36
37
38
39
41
42
44
45
47
48
50
51
52
53
54
55
56
57
59
61
62
63
64
65
66
67
68
69
70
71
72
73
74
76
77
78
79
80
81
82
83
84
85
86
87
88
89
90
91
92
93
94
95
96
97
98
99
100
101
102
103
104
105
106
107
108
109
110
111
112
113
114
115
116
117
118
119
120
121
122
123
124
125
126
127
128
129
131
132
133
134
135
136
137
138
140
141
142
143
144
147
148
149
150
151
153
154
155
156
157
158
159
160
162
164
165
166
168
169
170
171
172
173
174
175
177
178
179
181
182
183
184
186
187
188
189
190
191
192
193
194
195
196
197
198
199
201
202
203
204
205
206
207
208
209
210
211
212
213
214
215
216
217
218
219
220
221
222
223
224
225
226
227
228
229
230
231
232
234
235
236
237
239
240
241
242
244
246
247
248
249
250
251
252
253
254
255
256
257
258
259
261
262
263
264
265
266
267
268
269
270
271
272
273
274
275
276
277
278
280
283
284
285
286
287
288
289
290
291
292
293
294
295
296
297
298
299
300

SCALARS type int 1
LOOKUP_TABLE default
1
1
1
1
1
1
1
1
1
1
1
1
1
1
1
1
1
1
1
1
1
1
1
1
1
1
1
1
1
1
1
1
1
1
1
1
1
1
1
1
1
1
1
1
1
1
1
1
1
1
1
1
1
1
1
1
1
1
1
1
1
1
1
1
1
1
1
1
1
1
1
1
1
1
1
1
1
1
1
1
1
1
1
1
1
1
1
1
1
1
1
1
1
1
1
1
1
1
1
1
1
1
1
1
1
1
1
1
1
1
1
1
1
1
1
1
1
1
1
1
1
1
1
1
1
1
1
1
1
1
1
1
1
1
1
1
1
1
1
1
1
1
1
1
1
1
1
1
1
1
1
1
1
1
1
1
1
1
1
1
1
1
1
1
1
1
1
1
1
1
1
1
1
1
1
1
1
1
1
1
1
1
1
1
1
1
1
1
1
1
1
1
1
1
1
1
1
1
1
1
1
1
1
1
1
1
1
1
1
1
1
1
1
1
1
1
1
1
1
1
1
1
1
1
1
1
1
1
1
1
1
1
1
1
1
1
1
1
1
1
1
1
1
1
1
1
1
1
1
1
1
1
1
1
1
1
1
1
1
1
1
1
1
1
1
1
1
1
1
1
1

SCALARS radius float 1
LOOKUP_TABLE default
5e-05
5e-05
5e-05
5e-05
5e-05
5e-05
5e-05
5e-05
5e-05
5e-05
5e-05
5e-05
5e-05
5e-05
5e-05
5e-05
5e-05
5e-05
5e-05
5e-05
5e-05
5e-05
5e-05
5e-05
5e-05
5e-05
5e-05
5e-05
5e-05
5e-05
5e-05
5e-05
5e-05
5e-05
5e-05
5e-05
5e-05
5e-05
5e-05
5e-05
5e-05
5e-05
5e-05
5e-05
5e-05
5e-05
5e-05
5e-05
5e-05
5e-05
5e-05
5e-05
5e-05
5e-05
5e-05
5e-05
5e-05
5e-05
5e-05
5e-05
5e-05
5e-05
5e-05
5e-05
5e-05
5e-05
5e-05
5e-05
5e-05
5e-05
5e-05
5e-05
5e-05
5e-05
5e-05
5e-05
5e-05
5e-05
5e-05
5e-05
5e-05
5e-05
5e-05
5e-05
5e-05
5e-05
5e-05
5e-05
5e-05
5e-05
5e-05
5e-05
5e-05
5e-05
5e-05
5e-05
5e-05
5e-05
5e-05
5e-05
5e-05
5e-05
5e-05
5e-05
5e-05
5e-05
5e-05
5e-05
5e-05
5e-05
5e-05
5e-05
5e-05
5e-05
5e-05
5e-05
5e-05
5e-05
5e-05
5e-05
5e-05
5e-05
5e-05
5e-05
5e-05
5e-05
5e-05
5e-05
5e-05
5e-05
5e-05
5e-05
5e-05
5e-05
5e-05
5e-05
5e-05
5e-05
5e-05
5e-05
5e-05
5e-05
5e-05
5e-05
5e-05
5e-05
5e-05
5e-05
5e-05
5e-05
5e-05
5e-05
5e-05
5e-05
5e-05
5e-05
5e-05
5e-05
5e-05
5e-05
5e-05
5e-05
5e-05
5e-05
5e-05
5e-05
5e-05
5e-05
5e-05
5e-05
5e-05
5e-05
5e-05
5e-05
5e-05
5e-05
5e-05
5e-05
5e-05
5e-05
5e-05
5e-05
5e-05
5e-05
5e-05
5e-05
5e-05
5e-05
5e-05
5e-05
5e-05
5e-05
5e-05
5e-05
5e-05
5e-05
5e-05
5e-05
5e-05
5e-05
5e-05
5e-05
5e-05
5e-05
5e-05
5e-05
5e-05
5e-05
5e-05
5e-05
5e-05
5e-05
5e-05
5e-05
5e-05
5e-05
5e-05
5e-05
5e-05
5e-05
5e-05
5e-05
5e-05
5e-05
5e-05
5e-05
5e-05
5e-05
5e-05
5e-05
5e-05
5e-05
5e-05
5e-05
5e-05
5e-05
5e-05
5e-05
5e-05
5e-05
5e-05
5e-05
5e-05
5e-05
5e-05
5e-05
5e-05
5e-05
5e-05
5e-05
5e-05
5e-05
5e-05
5e-05
5e-05
5e-05
5e-05
5e-05
5e-05
5e-05
5e-05
5e-05
5e-05
5e-05
5e-05
5e-05
5e-05
5e-05
5e-05
5e-05
5e-05

SCALARS mass float 1
LOOKUP_TABLE default
1.46608e-10
1.46608e-10
1.46608e-10
1.46608e-10
1.46608e-10
1.46608e-10
1.46608e-10
1.46608e-10
1.46608e-10
1.46608e-10
1.46608e-10
1.46608e-10
1.46608e-10
1.46608e-10
1.46608e-10
1.46608e-10
1.46608e-10
1.46608e-10
1.46608e-10
1.46608e-10
1.46608e-10
1.46608e-10
1.46608e-10
1.46608e-10
1.46608e-10
1.46608e-10
1.46608e-10
1.46608e-10
1.46608e-10
1.46608e-10
1.46608e-10
1.46608e-10
1.46608e-10
1.46608e-10
1.46608e-10
1.46608e-10
1.46608e-10
1.46608e-10
1.46608e-10
1.46608e-10
1.46608e-10
1.46608e-10
1.46608e-10
1.46608e-10
1.46608e-10
1.46608e-10
1.46608e-10
1.46608e-10
1.46608e-10
1.46608e-10
1.46608e-10
1.46608e-10
1.46608e-10
1.46608e-10
1.46608e-10
1.46608e-10
1.46608e-10
1.46608e-10
1.46608e-10
1.46608e-10
1.46608e-10
1.46608e-10
1.46608e-10
1.46608e-10
1.46608e-10
1.46608e-10
1.46608e-10
1.46608e-10
1.46608e-10
1.46608e-10
1.46608e-10
1.46608e-10
1.46608e-10
1.46608e-10
1.46608e-10
1.46608e-10
1.46608e-10
1.46608e-10
1.46608e-10
1.46608e-10
1.46608e-10
1.46608e-10
1.46608e-10
1.46608e-10
1.46608e-10
1.46608e-10
1.46608e-10
1.46608e-10
1.46608e-10
1.46608e-10
1.46608e-10
1.46608e-10
1.46608e-10
1.46608e-10
1.46608e-10
1.46608e-10
1.46608e-10
1.46608e-10
1.46608e-10
1.46608e-10
1.46608e-10
1.46608e-10
1.46608e-10
1.46608e-10
1.46608e-10
1.46608e-10
1.46608e-10
1.46608e-10
1.46608e-10
1.46608e-10
1.46608e-10
1.46608e-10
1.46608e-10
1.46608e-10
1.46608e-10
1.46608e-10
1.46608e-10
1.46608e-10
1.46608e-10
1.46608e-10
1.46608e-10
1.46608e-10
1.46608e-10
1.46608e-10
1.46608e-10
1.46608e-10
1.46608e-10
1.46608e-10
1.46608e-10
1.46608e-10
1.46608e-10
1.46608e-10
1.46608e-10
1.46608e-10
1.46608e-10
1.46608e-10
1.46608e-10
1.46608e-10
1.46608e-10
1.46608e-10
1.46608e-10
1.46608e-10
1.46608e-10
1.46608e-10
1.46608e-10
1.46608e-10
1.46608e-10
1.46608e-10
1.46608e-10
1.46608e-10
1.46608e-10
1.46608e-10
1.46608e-10
1.46608e-10
1.46608e-10
1.46608e-10
1.46608e-10
1.46608e-10
1.46608e-10
1.46608e-10
1.46608e-10
1.46608e-10
1.46608e-10
1.46608e-10
1.46608e-10
1.46608e-10
1.46608e-10
1.46608e-10
1.46608e-10
1.46608e-10
1.46608e-10
1.46608e-10
1.46608e-10
1.46608e-10
1.46608e-10
1.46608e-10
1.46608e-10
1.46608e-10
1.46608e-10
1.46608e-10
1.46608e-10
1.46608e-10
1.46608e-10
1.46608e-10
1.46608e-10
1.46608e-10
1.46608e-10
1.46608e-10
1.46608e-10
1.46608e-10
1.46608e-10
1.46608e-10
1.46608e-10
1.46608e-10
1.46608e-10
1.46608e-10
1.46608e-10
1.46608e-10
1.46608e-10
1.46608e-10
1.46608e-10
1.46608e-10
1.46608e-10
1.46608e-10
1.46608e-10
1.46608e-10
1.46608e-10
1.46608e-10
1.46608e-10
1.46608e-10
1.46608e-10
1.46608e-10
1.46608e-10
1.46608e-10
1.46608e-10
1.46608e-10
1.46608e-10
1.46608e-10
1.46608e-10
1.46608e-10
1.46608e-10
1.46608e-10
1.46608e-10
1.46608e-10
1.46608e-10
1.46608e-10
1.46608e-10
1.46608e-10
1.46608e-10
1.46608e-10
1.46608e-10
1.46608e-10
1.46608e-10
1.46608e-10
1.46608e-10
1.46608e-10
1.46608e-10
1.46608e-10
1.46608e-10
1.46608e-10
1.46608e-10
1.46608e-10
1.46608e-10
1.46608e-10
1.46608e-10
1.46608e-10
1.46608e-10
1.46608e-10
1.46608e-10
1.46608e-10
1.46608e-10
1.46608e-10
1.46608e-10
1.46608e-10
1.46608e-10
1.46608e-10
1.46608e-10
1.46608e-10
1.46608e-10
1.46608e-10
1.46608e-10
1.46608e-10
1.46608e-10
1.46608e-10
1.46608e-10
1.46608e-10
1.46608e-10
1.46608e-10
1.46608e-10
1.46608e-10
1.46608e-10

VECTORS velocity float
0.00611802 -0.000194715 0.000268495
0.00561413 -0.000180915 -1.35996e-06
0.00614097 -0.000309821 0.000218011
0.00562663 -0.00016337 -6.593e-06
0.00610663 -0.000163461 0.000260566
0.00566873 -3.13172e-05 1.06739e-05
0.0060525 -0.000309635 0.000247207
0.00609738 -0.000159787 0.000245849
0.00556688 -1.47784e-05 -2.69252e-06
0.00567916 -0.000216968 0.000120676
0.005634 -0.00019247 5.71502e-07
0.00619424 0.000319318 0.000396979
0.00605323 -0.000146807 0.000218968
0.00628681 -0.000119378 0.000148597
0.00562376 -0.000159805 -4.30261e-06
0.00626152 -0.000265432 0.000203579
0.00587352 -0.000799872 0.00011236
0.0060772 -0.000161638 0.000235871
0.00558302 -0.000187633 0.000174687
0.00563547 -0.000197382 -3.23408e-06
0.00574085 -0.00024233 -0.000242191
0.00567675 -3.35091e-05 9.79688e-06
0.00566526 -0.000237672 0.000191844
0.00546653 7.65448e-08 -1.47168e-05
0.00655337 -0.000117756 0.000157011
0.00562668 -0.000199124 -1.52518e-06
0.00597764 -0.000283304 0.000245164
0.00563068 -0.000169573 6.44246e-06
0.00571792 -0.000230888 0.000194312
0.00553542 -6.08222e-05 9.79168e-05
0.00549673 -4.69161e-06 -1.07641e-05
0.00608038 -0.000308188 0.000250521
0.0055767 -0.000242497 -2.96513e-06
0.00570003 -3.81703e-05 9.66842e-06
0.00561553 -0.000208782 9.76786e-07
0.00622212 -0.000381756 3.12226e-05
0.00562926 -2.45681e-05 9.97593e-06
0.00584889 -0.000664764 8.64596e-05
4.53814e-16 2.25612e-15 8.4636e-14
0.00561498 -0.000196228 -7.88159e-07
0.00543698 4.24093e-06 -1.79759e-05
0.00613674 -0.000287402 0.000234832
0.00616497 -0.000386222 3.28402e-05
0.00574428 -0.000215022 0.000183488
0.00574934 -0.000229376 0.00018734
0.00600891 0.000294076 0.000309013
0.00568597 -3.48372e-05 1.43081e-05
0.00604767 -0.000435905 2.91255e-05
0.0059029 0.000304647 0.000277783
0.00614807 -0.000329021 2.06772e-05
0.00543364 5.01243e-06 -1.85243e-05
0.00563484 -0.000199892 -8.52648e-07
0.00559486 -0.000179745 0.000168798
0.00604577 -0.000533775 6.06306e-05
0.00563017 -0.000169991 -5.23561e-06
0.00559407 -1.77449e-05 1.01226e-05
0.00573991 -0.00027681 -0.000219888
0.00587203 0.00030272 0.00027419
0.00560475 -0.000203946 2.3341e-06
0.00547811 -0.000122679 6.60245e-05
0.00614346 -0.000326064 1.93205e-05
0.00553305 -1.12796e-05 -5.51542e-06
0.00598705 0.000296075 0.000299349
0.00562111 -0.000194241 -2.58243e-06
0.00618247 -0.000346898 2.37804e-05
0.00616015 -0.000354141 2.49513e-05
0.00617477 -0.000192322 0.000177182
0.00562448 -0.000193273 -2.99097e-05
0.00620387 -0.000247641 0.000193124
0.00609089 0.000289043 0.000330209
0.00596548 -0.000531504 6.14226e-05
0.00649942 -0.000288142 6.82691e-05
0.00618483 0.000271668 0.000379982
0.00601467 -0.000314917 0.00021839
0.00560678 -2.04217e-05 1.85009e-06
0.00579552 -0.00017562 0.000164869
0.00588826 -0.000664455 8.63849e-05
0.00616882 -0.000461805 4.66312e-05
0.00557851 -0.000144919 0.000146928
0.00611887 -0.000445963 4.42718e-05
0.00562769 -0.000194636 2.19468e-06
0.00618379 -0.000210416 0.000184206
0.00614682 -0.000394746 3.75842e-05
0.00576585 -0.000191417 0.000176882
0.00562834 -0.000159242 -3.39432e-06
0.0057232 -0.000194923 5.71326e-05
0.00579183 -0.000187484 0.000173502
0.00572721 -0.000232668 -0.000257911
0.0056291 -0.000188253 -1.21717e-06
0.00542774 -7.78221e-05 0.000130371
0.00609456 -0.000428297 4.04096e-05
0.00612857 0.000287532 0.000357848
4.35332e-15 1.05151e-14 8.29535e-14
-5.53007e-22 2.24983e-22 1.23839e-22
0.00600851 -0.000277454 0.000206008
0.00661438 -0.000285876 0.000221216
0.00623564 -0.000391496 0.000248133
0.00622357 -0.000483544 0.000280307
0.00614392 -0.000384471 2.29096e-05
0.00561752 -0.000172333 -3.9357e-06
0.00580493 -0.000182517 0.000171274
0.005679 -0.000246443 0.000187651
0.00613991 -0.000397314 0.000252082
0.00553075 -0.000271401 -0.000142065
0.00614061 -0.000290034 0.0002055
0.00561493 -0.000152724 -7.81341e-06
0.00553806 -0.000233836 -7.94396e-06
0.00624396 -0.00033912 2.30359e-05
0.00585939 -0.000199053 0.000175492
0.00562755 -0.000164455 -2.5251e-06
0.00590355 -0.00023806 0.000255254
0.00613599 -0.000308155 0.000250575
0.00555029 -0.000183762 0.000173154
0.00577818 -0.000163797 0.000160154
0.00559715 -0.000233091 0.000207043
0.00623373 -0.000347704 2.4632e-05
0.00560932 -0.000180571 0.000168749
0.00647044 -0.000349916 -0.00025485
0.00558659 -0.000183314 0.000168598
0.00564015 -0.000203163 5.36684e-06
0.00622075 -0.000381827 0.000244683
0.00561801 -0.00019858 -1.00579e-06
0.00566172 -0.000221648 2.88847e-05
0.00559616 -0.000180943 0.000168489
0.00607312 -0.000155536 0.000229117
0.00636095 -0.000100681 0.000153473
0.00574668 -0.000200128 0.000180608
0.00560239 -0.000208048 1.1811e-06
0.0056261 -0.000186336 -4.26782e-06
0.00612402 -0.000403342 0.000253969
0.00544596 -0.000115041 0.000137613
0.00595305 0.00030311 0.000286578
0.00600629 -0.000220731 0.000188903
0.00606767 -0.00025739 0.00019962
0.00544042 -0.000111897 0.00013203
0.00554212 -0.000149451 0.000148897
8.38431e-15 1.24125e-15 -8.48745e-14
0.00544718 -0.000145667 0.000144128
0.00620478 -0.000534196 -0.000247271
0.00590364 -0.000192474 0.000175253
0.00589305 -0.000275715 0.000201742
0.00614625 -0.00034115 0.000230186
-3.84079e-14 8.16276e-14 2.95889e-13
0.00601046 -9.81576e-05 0.00014107
0.00611506 -0.000535975 6.06155e-05
0.00595282 -0.000203433 0.000180507
0.00642728 -0.000267784 -0.000195739
0.00541018 -0.000310331 -0.000478665
0.00623439 -0.000325746 0.00022597
0.00616728 -0.000337461 2.25413e-05
0.00542424 -0.000112697 0.000127779
0.00653275 -0.00032698 0.000233198
0.00625734 -0.000401789 0.000253381
0.00561644 -0.000168431 -3.55952e-07
0.00619534 -0.000311576 0.000220097
0.00602003 -0.000604284 7.52184e-05
0.00598309 -0.000294801 0.000210249
0.00556577 0.00028213 0.000250308
0.00540064 -0.0001178 0.000137604
0.00544669 -0.00013525 0.000144252
0.00586075 -0.000227761 0.00018406
0.00606694 -0.000295627 0.000214739
0.00564597 -0.000215979 1.02497e-05
0.00617926 -0.000396756 0.000249548
0.00567328 -0.000183583 1.23118e-05
0.00542479 -0.000192967 3.83389e-05
0.00557393 -0.000191074 0.000179855
0.0053702 -6.08722e-05 9.24736e-05
0.00560994 -0.000200728 5.53486e-07
0.00625873 0.00019759 -0.000229592
0.0053768 -8.4425e-05 0.000104258
0.00607025 -0.000281649 0.000207474
0.00560855 -0.000151115 -1.12284e-05
1.60083e-15 -1.10003e-14 8.66687e-14
0.00597641 -0.000217028 0.000182563
0.0057049 -0.00028041 -0.000220231
0.00562304 0.000291303 0.000249289
0.00636278 -0.000286141 -0.000195728
0.00608805 -0.000463225 0.000271492
0.00555976 -0.000298251 -0.000189702
0.00620124 -0.000366915 0.000240355
0.00577538 -0.000172132 0.000165339
0.00605898 0.000296574 0.000317159
0.00622639 -0.000362291 0.000237837
0.00565264 -0.000210723 -0.000227874
0.00540938 -0.000123171 0.000134902
0.00615738 -0.000308816 0.00021931
0.00601134 0.00149897 -0.00111686
0.00563859 -0.000187747 0.000174802
0.00555205 -0.000161846 0.000181415
0.00613633 -0.000352973 0.000235167
0.00560823 -0.00019901 -5.37184e-07
0.00554771 -0.000152623 0.000166661
0.0062673 0.000197616 -0.000231049
0.006215 -0.000342437 0.000231426
0.0062245 -0.000343018 2.42066e-05
0.00611907 0.000109307 0.000192869
0.00562299 -0.000150124 0.000151858
0.00614397 -0.000328716 0.000224182
0.00557279 -0.000407357 0.000128126
0.00609247 -0.000478698 5.04344e-05
0.00601351 -0.00023846 0.000191084
-0.0242368 0.00709948 -0.000887559
0.00559303 -0.000196038 -4.94289e-05
0.00545275 -0.000111761 0.000136125
0.00615407 0.000210356 -0.000261597
0.00558396 0.000285257 0.000250099
0.00596112 -0.00029429 0.000205975
0.00571551 -0.000311852 -0.000210252
0.0055278 0.000282141 0.000246172
0.00607342 -0.000447476 0.000271695
0.005633 -0.000196086 -6.76061e-07
0.00624309 -0.000357915 0.000237957
0.00574471 -0.000261259 -0.000231515
0.00574333 -0.000274327 -0.000230635
0.00586788 -0.000294486 -0.000396252
0.00569177 -0.000270964 -0.000398987
0.00548429 -0.000104206 -0.00036784
0.00581879 -0.0001425 0.000153433
0.00551297 -0.000205145 -0.000432872
0.00549091 0.00028258 0.00024125
0.00656606 -0.000323936 0.00023483
0.0056159 -0.000313781 -0.000207712
0.00626475 0.000197409 -0.000231987
0.00545008 -0.000115664 0.000137492
0.00570135 -0.000158593 0.00015667
0.00565905 0.000304955 0.000245822
0.00626464 0.00020567 -0.000232643
0.00548112 0.000280581 0.000248109
0.00606023 -0.000250777 0.000203255
0.00596952 -0.000282374 0.000205251
0.00575991 -0.000229516 0.000183342
0.00562941 -0.000181298 0.000163878
0.00566882 0.000309559 0.000242907
0.00541746 -0.000139516 0.000116435
0.0057187 -0.000280833 -0.000220443
0.00543646 0.000134727 -2.71862e-05
0.00554807 -0.000406111 -0.000215933
0.00560404 0.000290178 0.000249521
0.00588678 -0.000226417 0.000185442
0.00571459 -0.000289285 -0.000218368
0.00545583 -0.00022183 -6.12996e-05
0.00552404 -0.000175816 0.000159759
0.00564262 -0.00018725 0.00018465
0.00635247 -0.000311397 0.00022757
0.00571821 0.000313049 0.000248451
0.00572215 -0.000157899 -5.22063e-05
0.00570269 0.000308008 0.000244312
0.00552083 -0.000323946 -0.000177254
0.00544156 -0.000143251 0.000164912
0.0057619 -0.0002091 0.00017616
0.00638267 -0.000263241 0.000209509
0.00587396 0.000272265 -2.63604e-05
0.00590701 -0.000286246 -0.000407548
0.00544997 -8.13138e-05 0.000126705
0.00605413 -0.000353309 0.000231943
0.00598104 -0.000314558 0.000216716
0.00587831 -0.000257171 0.000195095
0.00537824 -0.000133111 0.000142268
0.00573436 -0.000274647 -0.000224691
0.00608755 -0.000289939 0.000212532
0.00553024 -0.00015728 0.00015371
0.00608546 -0.000290692 0.000217753
0.00589305 -0.00019227 0.000172306
0.00570592 -0.000286538 -0.000212963
0.00626115 0.000190965 -0.000233195
0.00575089 -0.000263786 -0.00023318
0.00559336 -0.000216064 2.6181e-06
0.0055099 -0.000182959 -0.000444581
0.00563811 0.000296129 0.000247153
0.00547245 -0.000106318 0.000124913

VECTORS force float
-1.14163e-10 -1.38522e-10 1.557e-10
1.00956e-10 3.10435e-11 -4.48038e-12
1.27867e-09 -6.91544e-10 2.42249e-10
2.74291e-11 1.37329e-11 3.18992e-11
2.51779e-10 -9.94014e-11 4.60119e-11
4.75409e-12 3.80137e-12 -1.11915e-12
-1.13693e-11 -3.12858e-10 4.60226e-11
4.40264e-11 2.18944e-11 -3.06481e-11
6.3228e-13 -9.67932e-13 1.44057e-12
4.10625e-11 -1.13922e-11 -1.35164e-10
-4.40669e-11 -2.18246e-11 3.7745e-11
1.72141e-10 -1.70883e-10 3.08221e-11
-2.37975e-11 1.12944e-10 -1.58442e-10
1.49142e-10 -2.52595e-10 1.70379e-10
-9.79962e-11 -2.21298e-12 1.25298e-11
-7.39271e-10 4.27875e-10 2.31991e-10
-1.55868e-10 6.50094e-11 -5.98205e-12
1.20713e-10 5.69759e-11 -4.32032e-11
-1.83825e-10 1.98031e-10 -1.42363e-10
1.39001e-10 -5.9701e-11 1.77528e-10
1.29668e-10 1.50474e-10 -7.87758e-11
-1.50175e-12 -6.3505e-13 5.52529e-13
-1.24909e-10 -9.35241e-11 -2.34378e-10
2.35925e-12 1.93404e-13 -2.18342e-13
-7.1522e-10 4.71664e-10 -1.48861e-10
-1.05591e-10 4.9432e-11 -2.15187e-11
-2.54855e-10 -3.37359e-11 5.93097e-11
-6.99791e-11 -9.17171e-11 4.66982e-11
-6.68924e-11 5.00706e-11 -4.53436e-11
8.54003e-11 -2.61513e-11 -3.98432e-11
-6.39984e-12 5.00849e-14 -1.85336e-12
6.34999e-11 -2.02943e-10 2.53295e-10
2.27158e-10 3.39852e-11 3.57764e-11
-4.24872e-13 -1.57184e-12 -4.23067e-13
-2.20963e-11 4.97748e-11 5.52754e-12
-6.44811e-11 -3.24443e-11 -2.4189e-12
-3.03886e-13 -4.45077e-13 -3.09802e-13
-1.2359e-10 -2.0319e-10 4.33533e-11
3.38821e-23 -6.32664e-24 -2.06795e-25
9.40434e-11 2.8292e-11 -1.89717e-11
-1.10229e-11 4.42625e-12 -3.76337e-12
-8.30934e-11 -1.29426e-10 2.55603e-10
-1.02917e-11 -8.66461e-11 -7.13538e-12
1.13791e-11 2.75136e-11 -7.5968e-12
2.13281e-10 9.63263e-12 5.16285e-12
-3.36665e-10 1.86442e-11 2.24078e-12
6.38193e-13 -1.55608e-12 6.04213e-13
1.09915e-10 7.17722e-11 -1.61515e-10
-1.79513e-10 2.59758e-11 -5.17052e-11
8.98578e-11 1.05628e-10 -3.30152e-11
5.32589e-14 2.35525e-12 -2.58035e-12
1.40181e-11 -3.76314e-10 6.98799e-11
1.1505e-11 -9.42685e-11 6.50147e-11
8.99686e-11 -1.2846e-10 2.67864e-11
-1.04272e-10 -1.07239e-10 2.97557e-12
-3.4616e-13 -4.49757e-14 1.11259e-13
-1.01081e-10 -4.29497e-10 2.02452e-10
4.63298e-11 5.14178e-11 -8.06617e-11
8.97842e-11 6.7173e-11 -3.22738e-11
1.11892e-10 1.51863e-10 2.71224e-10
2.18365e-10 -4.73363e-11 -9.12168e-11
2.15234e-13 -9.13997e-13 5.01135e-13
1.5644e-10 1.1893e-10 7.71077e-11
-2.64705e-11 -2.17607e-11 1.41922e-11
1.49701e-11 3.66663e-11 -1.89818e-11
1.69571e-10 6.80768e-11 -5.99002e-11
-6.83328e-10 4.49046e-10 -1.67121e-10
5.75913e-11 -2.80785e-11 4.85507e-10
-5.18503e-10 -1.25182e-09 4.10024e-10
1.00824e-10 4.17976e-11 1.02323e-10
-6.92677e-11 -2.29821e-10 3.48342e-11
-1.07549e-10 4.76251e-10 3.12931e-10
2.96336e-10 9.12084e-11 9.10396e-11
8.38581e-11 1.01214e-10 -7.47513e-11
4.41929e-13 -1.55472e-12 1.36713e-12
-7.00383e-10 4.70597e-10 -1.78086e-10
4.92043e-11 -2.1125e-10 3.85141e-11
-4.7438e-11 -3.15289e-11 3.43757e-12
-1.8299e-10 2.62934e-10 -1.76878e-10
8.8126e-13 -1.82436e-10 4.18592e-11
-8.04675e-11 1.62537e-10 -8.35985e-12
-7.184e-10 4.95621e-10 -1.88075e-10
1.64123e-10 1.917e-10 -5.53902e-11
-4.98156e-11 4.11986e-11 -1.93861e-11
-1.87538e-10 2.0832e-10 -4.3197e-11
-2.58781e-10 -2.10695e-10 -9.66745e-11
1.42816e-11 4.31707e-11 -1.51335e-11
-3.51069e-10 2.32463e-10 4.29929e-11
-1.68139e-10 1.4264e-10 -3.54538e-11
1.642e-10 -4.32783e-10 3.38786e-10
2.08381e-10 -5.54549e-12 -2.34161e-11
-2.43787e-10 -8.94198e-11 -2.82061e-11
9.9714e-23 -8.16582e-23 9.30578e-24
-3.23117e-27 0.0 0.0
-6.84076e-10 4.72686e-10 -2.1269e-10
-8.65446e-11 7.65178e-11 3.28994e-11
1.96786e-10 2.24844e-11 -2.21945e-12
-7.03856e-11 1.0282e-10 -3.23368e-11
-5.13703e-11 -3.65861e-11 -3.1856e-11
-1.63439e-10 -5.43637e-11 1.81911e-11
-5.18421e-11 9.28423e-11 -3.7193e-11
-1.28737e-10 -1.15951e-10 -8.63301e-11
3.59356e-10 -3.74927e-11 -1.75611e-11
9.39662e-11 -9.41894e-11 1.33e-10
-5.95416e-10 -1.36201e-09 4.84573e-10
-8.23959e-11 -1.13449e-10 -1.29297e-11
2.26014e-10 -1.40109e-10 -3.12437e-11