# vtk DataFile Version 3.0
LIGGGHTS particles timestep 23000000
ASCII
DATASET POLYDATA
POINTS 283 float
0.146706 0.0160064 0.00848696
0.147478 0.0183285 0.00698901
0.140671 0.0158485 0.00854415
0.147241 0.0176561 0.00722003
0.146684 0.0159314 0.0085491
0.152899 0.0164794 0.00763228
0.146791 0.016308 0.00823845
0.146662 0.0158562 0.00861124
0.153016 0.0170082 0.00740494
0.147572 0.0190276 0.00689627
0.147498 0.018421 0.00695703
0.140885 0.0164663 0.00779025
0.146597 0.0156302 0.00879764
0.140606 0.015663 0.00877067
0.146948 0.0168334 0.00780349
0.140585 0.0156011 0.00884619
0.147403 0.0179188 0.00713106
0.14664 0.0157809 0.00867337
0.147452 0.018964 0.00687448
0.146926 0.0167582 0.00786563
0.141071 0.0168493 0.0074332
0.153071 0.0173026 0.00742332
0.147024 0.0170557 0.00761719
0.152977 0.0168205 0.00746141
0.140962 0.0167536 0.00753029
0.147468 0.0180998 0.0070689
0.146813 0.0163833 0.00817632
0.147532 0.0188782 0.00683531
0.146903 0.0166835 0.00792777
0.147183 0.0173845 0.00733081
0.152916 0.0165425 0.0075566
0.14677 0.0162327 0.00830058
0.146856 0.0165339 0.00805206
0.153053 0.0172045 0.00741715
0.147679 0.0188781 0.00682932
0.147695 0.0185947 0.00689987
0.15311 0.0170419 0.00742481
0.147574 0.0180682 0.00708193
0.321436 0.0173475 0.00552525
0.14746 0.0181938 0.00703584
0.152936 0.0166352 0.00752487
0.146726 0.0160821 0.00842485
0.147605 0.0188115 0.00682232
0.147089 0.0173629 0.00736949
0.147071 0.0172863 0.0074315
0.140865 0.0164065 0.00786783
0.153091 0.0169436 0.00741869
0.147774 0.0188511 0.00681415
0.140652 0.0157862 0.00861997
0.147699 0.0187803 0.00683497
0.152956 0.0167279 0.00749314
0.14752 0.017988 0.00710903
0.146834 0.0164587 0.00811419
0.147668 0.0183285 0.00699255
0.147222 0.0175634 0.00725211
0.153128 0.01714 0.00743093
0.140999 0.0165486 0.00768037
0.140944 0.0163608 0.00790856
0.147573 0.0183592 0.00698005
0.147264 0.0177481 0.00718826
0.147938 0.0187775 0.00684036
0.152997 0.0169139 0.00743185
0.140629 0.0157247 0.0086952
0.147557 0.0187283 0.00685055
0.148448 0.0188395 0.00682807
0.147636 0.0182386 0.00702342
0.141189 0.0174288 0.00732806
0.147163 0.0177144 0.00719819
0.140695 0.0159108 0.00846941
0.140903 0.0165288 0.00771437
0.14749 0.018307 0.00708589
0.140845 0.0163579 0.00795299
0.14098 0.0168346 0.0074747
0.14104 0.0163761 0.00788002
0.153034 0.0171064 0.00741104
0.140815 0.0159884 0.00836308
0.147554 0.0181606 0.00704922
0.147786 0.018118 0.00706841
0.147285 0.018249 0.00710479
0.147595 0.0184515 0.00694812
0.147538 0.0182536 0.00701634
0.140919 0.0165919 0.00763852
0.147517 0.0186418 0.00688008
0.147304 0.017934 0.00712391
0.147445 0.0185757 0.00690189
0.147363 0.0183768 0.00705645
0.147325 0.0180265 0.00709193
0.140804 0.0162234 0.0080951
0.147395 0.0182741 0.00709424
0.140982 0.0164854 0.00775701
0.147592 0.0185799 0.00690315
0.14092 0.0162993 0.00798383
0.0643568 0.0187248 0.00531097
0.24257 0.0191927 0.00520306
0.141264 0.0173638 0.00733619
0.140758 0.0160959 0.00824213
0.14134 0.0173003 0.0073535
0.140717 0.0159729 0.00839446
0.148167 0.0188926 0.00681564
0.147053 0.0172101 0.00749356
0.147246 0.0180852 0.00707637
0.147382 0.0182979 0.00699798
0.140826 0.0162899 0.00802378
0.141355 0.0185746 0.00704819
0.141206 0.0170752 0.00739329
0.147424 0.0180112 0.0070991
0.14807 0.0188704 0.00681028
0.1477 0.018166 0.00705
0.141086 0.0172379 0.00744653
0.146971 0.0169084 0.00774135
0.146879 0.0166088 0.00798991
0.146748 0.0161574 0.00836272
0.147225 0.017991 0.00710249
0.140857 0.0161124 0.00821187
0.147123 0.0175316 0.00726903
0.147741 0.0182644 0.00701633
0.147035 0.0171338 0.0075556
0.14078 0.0161577 0.0081666
0.147104 0.0174438 0.00731289
0.147383 0.0184695 0.00702441
0.141091 0.0169463 0.00741402
0.140964 0.0164229 0.00783291
0.147458 0.0184072 0.00704753
0.147401 0.0187763 0.00691222
0.147201 0.017471 0.0072841
0.146618 0.0157055 0.00873551
0.140794 0.0159263 0.0084387
0.147186 0.0178064 0.00716669
0.147874 0.0188503 0.00681445
0.147403 0.0183907 0.00696588
0.140835 0.0160505 0.00828739
0.141225 0.0171713 0.00737427
0.140738 0.0160337 0.00831782
0.141186 0.016979 0.00741231
0.141059 0.0164384 0.00780422
0.140771 0.0158647 0.00851409
0.141035 0.0171063 0.0073776
0.147361 0.0182054 0.00702995
0.141094 0.0165639 0.0076526
0.141447 0.0174486 0.00732832
0.140901 0.0162358 0.00806103
0.141149 0.0172352 0.00735682
0.141194 0.0175243 0.00729889
0.141129 0.0171389 0.00737587
0.0219312 0.0187687 0.00551176
0.141401 0.0179335 0.00722457
0.14768 0.0185012 0.00693232
0.141093 0.017395 0.00732045
0.141054 0.0172025 0.00735854
0.14129 0.0178535 0.00723529
0.14155 0.0177232 0.00727647
0.148267 0.0188855 0.00680863
0.141077 0.0165009 0.00772832
0.141357 0.0174054 0.00733248
0.141376 0.0186685 0.00702084
0.14137 0.0175103 0.00731129
0.14797 0.0188782 0.00681759
0.141529 0.0176272 0.00729543
0.14752 0.0185136 0.00692502
0.141288 0.0175648 0.00729547
0.134999 0.0169878 0.00755902
0.14111 0.0170427 0.00739494
0.141134 0.0175888 0.0073458
0.141477 0.0182385 0.00713619
0.14151 0.0180982 0.00717378
0.141142 0.0174267 0.00741631
0.147749 0.0189455 0.00685476
0.14128 0.0174672 0.00731545
0.147423 0.0184832 0.00693388
0.141016 0.0170101 0.00739671
0.141117 0.01733 0.00742376
0.147421 0.0188692 0.0068813
0.147144 0.0176232 0.00723444
0.147482 0.018794 0.00685706
0.135178 0.017386 0.00741131
0.147205 0.0179017 0.00714262
0.141301 0.0171079 0.00739158
0.146995 0.016983 0.00767921
0.141131 0.01671 0.00752287
0.141484 0.0178782 0.00723672
0.140563 0.0155392 0.00892171
0.13506 0.0172649 0.00746164
0.140938 0.0166682 0.00757676
0.141074 0.0172988 0.00733949
0.141023 0.0167472 0.00745198
0.141431 0.0185105 0.00706232
0.14132 0.0172041 0.00737255
0.147266 0.0181756 0.00703863
0.141029 0.0166781 0.00752406
0.14141 0.0180399 0.00724031
0.141292 0.0176627 0.00727524
0.14088 0.0161738 0.00813661
0.141169 0.0173313 0.0073378
0.141111 0.01663 0.0075794
0.147441 0.018703 0.00685724
0.14737 0.0186413 0.00689173
0.141378 0.0176139 0.00729006
0.147607 0.0189403 0.00685832
0.147307 0.0183605 0.00697468
0.135157 0.0172935 0.00744388
0.141112 0.0174904 0.00734527
0.148366 0.0188931 0.0068078
0.141162 0.017712 0.00725796
0.147369 0.0181114 0.00706302
0.141275 0.0177113 0.00736103
0.135055 0.0168314 0.0076063
0.147673 0.0180749 0.00708143
0.141245 0.0172675 0.00735524
0.140996 0.0169138 0.00741572
0.147283 0.0178415 0.0071559
0.141459 0.0175571 0.00730626
0.135115 0.0171087 0.00750893
0.135019 0.0170803 0.00752657
0.141244 0.0176166 0.00736868
0.141423 0.0183207 0.00711586
0.134979 0.0168953 0.00759147
0.141019 0.016314 0.00795567
0.14115 0.0168012 0.00748688
0.147464 0.0185538 0.00699758
0.141347 0.0181852 0.00722272
0.141311 0.0183793 0.00710511
0.141269 0.0181908 0.00716004
0.134799 0.0161051 0.00795258
0.134859 0.0163406 0.00778622
0.13478 0.0160351 0.00802117
0.141261 0.0169155 0.00742962
0.141016 0.0166114 0.00760432
0.134819 0.0161752 0.00788394
0.13494 0.0167103 0.00765638
0.141325 0.0178111 0.00731871
0.141334 0.0184808 0.00707554
0.135254 0.0173231 0.00742577
0.1412 0.017622 0.00727881
0.147287 0.0182681 0.00700665
0.135102 0.0174494 0.00739671
0.135094 0.0170165 0.00754139
0.13492 0.0166179 0.00768884
0.140748 0.0158031 0.00858944
0.141366 0.0177387 0.00726338
0.141204 0.0178789 0.00731696
0.141488 0.0179873 0.00720594
0.135123 0.0175416 0.00736424
0.141166 0.0168829 0.00743132
0.141409 0.0184162 0.00708983
0.141248 0.0180957 0.00718245
0.1349 0.0165254 0.0077213
0.141359 0.0179052 0.00731051
0.13504 0.0171726 0.0074941
0.141431 0.0173406 0.00735001
0.141183 0.0178078 0.0072391
0.14138 0.0176929 0.00735129
0.141209 0.0177801 0.00733176
0.147328 0.018453 0.00694269
0.141449 0.0176839 0.00727923
0.135165 0.0177261 0.00729931
0.141205 0.017904 0.00722016
0.135144 0.0176339 0.00733177
0.141269 0.0177576 0.00725416
0.14117 0.0176866 0.00735436
0.141291 0.0180683 0.00726823
0.141388 0.0178364 0.00724415
0.13496 0.0168027 0.00762392
0.13521 0.0174935 0.00737283
0.141241 0.0168194 0.00744863
0.135075 0.0169239 0.00757385
0.134839 0.0162483 0.00781868
0.141348 0.0180933 0.00718337
0.141326 0.0179971 0.00720724
0.141275 0.0179476 0.00727714
0.141426 0.0181517 0.00716303
0.141377 0.018236 0.00714194
0.141212 0.0167255 0.00746668
0.141281 0.0170117 0.00741059
0.14157 0.0182028 0.00714148
0.140995 0.0162525 0.00803092
0.14147 0.0177807 0.00726016
0.141226 0.0179998 0.00720131
0.135136 0.0172012 0.00747638
0.14129 0.0182854 0.00713246
0.147636 0.0186711 0.00687202
0.13488 0.016433 0.00775375
0.135081 0.0173571 0.00742917
0.147349 0.0185454 0.0069107

VERTICES 283 566
1 0
1 1
1 2
1 3
1 4
1 5
1 6
1 7
1 8
1 9
1 10
1 11
1 12
1 13
1 14
1 15
1 16
1 17
1 18
1 19
1 20
1 21
1 22
1 23
1 24
1 25
1 26
1 27
1 28
1 29
1 30
1 31
1 32
1 33
1 34
1 35
1 36
1 37
1 38
1 39
1 40
1 41
1 42
1 43
1 44
1 45
1 46
1 47
1 48
1 49
1 50
1 51
1 52
1 53
1 54
1 55
1 56
1 57
1 58
1 59
1 60
1 61
1 62
1 63
1 64
1 65
1 66
1 67
1 68
1 69
1 70
1 71
1 72
1 73
1 74
1 75
1 76
1 77
1 78
1 79
1 80
1 81
1 82
1 83
1 84
1 85
1 86
1 87
1 88
1 89
1 90
1 91
1 92
1 93
1 94
1 95
1 96
1 97
1 98
1 99
1 100
1 101
1 102
1 103
1 104
1 105
1 106
1 107
1 108
1 109
1 110
1 111
1 112
1 113
1 114
1 115
1 116
1 117
1 118
1 119
1 120
1 121
1 122
1 123
1 124
1 125
1 126
1 127
1 128
1 129
1 130
1 131
1 132
1 133
1 134
1 135
1 136
1 137
1 138
1 139
1 140
1 141
1 142
1 143
1 144
1 145
1 146
1 147
1 148
1 149
1 150
1 151
1 152
1 153
1 154
1 155
1 156
1 157
1 158
1 159
1 160
1 161
1 162
1 163
1 164
1 165
1 166
1 167
1 168
1 169
1 170
1 171
1 172
1 173
1 174
1 175
1 176
1 177
1 178
1 179
1 180
1 181
1 182
1 183
1 184
1 185
1 186
1 187
1 188
1 189
1 190
1 191
1 192
1 193
1 194
1 195
1 196
1 197
1 198
1 199
1 200
1 201
1 202
1 203
1 204
1 205
1 206
1 207
1 208
1 209
1 210
1 211
1 212
1 213
1 214
1 215
1 216
1 217
1 218
1 219
1 220
1 221
1 222
1 223
1 224
1 225
1 226
1 227
1 228
1 229
1 230
1 231
1 232
1 233
1 234
1 235
1 236
1 237
1 238
1 239
1 240
1 241
1 242
1 243
1 244
1 245
1 246
1 247
1 248
1 249
1 250
1 251
1 252
1 253
1 254
1 255
1 256
1 257
1 258
1 259
1 260
1 261
1 262
1 263
1 264
1 265
1 266
1 267
1 268
1 269
1 270
1 271
1 272
1 273
1 274
1 275
1 276
1 277
1 278
1 279
1 280
1 281
1 282

POINT_DATA 283
SCALARS id int 1
LOOKUP_TABLE default
1
2
3
4
5
6
7
8
9
10
11
12
13
14
15
16
17
19
21
22
23
24
25
26
27
28
29
30
31
32
33
34
35
36
37
38
39
41
42
44
45
47
48
50
51
52
53
54
55
56
57
59
61
62
63
64
65
66
67
68
69
70
71
72
73
74
76
77
78
79
80
81
82
83
84
85
86
87
88
89
90
91
92
93
94
95
96
97
98
99
100
101
102
103
104
105
106
107
108
109
110
111
112
113
114
115
116
117
118
119
120
121
122
123
124
125
126
127
128
129
130
131
132
133
134
135
136
137
138
140
141
142
143
144
146
147
148
149
150
151
153
154
155
156
157
158
159
160
162
164
165
166
167
168
169
170
171
172
173
174
175
176
177
178
179
181
182
183
184
185
186
187
188
189
190
191
192
193
194
195
196
197
198
199
200
201
202
203
204
205
206
207
208
209
210
211
212
213
214
215
216
217
218
219
220
221
222
223
224
225
226
227
228
229
230
231
232
233
234
235
236
237
239
240
241
242
243
244
246
247
248
249
250
251
252
253
254
255
256
257
258
259
260
261
262
263
264
265
266
267
268
269
270
271
272
273
274
275
276
277
278
279
280
281
282
283
284
285
286
287
288
289
290
291
292
293
294
295
296
297
298
299
300

SCALARS type int 1
LOOKUP_TABLE default
1
1
1
1
1
1
1
1
1
1
1
1
1
1
1
1
1
1
1
1
1
1
1
1
1
1
1
1
1
1
1
1
1
1
1
1
1
1
1
1
1
1
1
1
1
1
1
1
1
1
1
1
1
1
1
1
1
1
1
1
1
1
1
1
1
1
1
1
1
1
1
1
1
1
1
1
1
1
1
1
1
1
1
1
1
1
1
1
1
1
1
1
1
1
1
1
1
1
1
1
1
1
1
1
1
1
1
1
1
1
1
1
1
1
1
1
1
1
1
1
1
1
1
1
1
1
1
1
1
1
1
1
1
1
1
1
1
1
1
1
1
1
1
1
1
1
1
1
1
1
1
1
1
1
1
1
1
1
1
1
1
1
1
1
1
1
1
1
1
1
1
1
1
1
1
1
1
1
1
1
1
1
1
1
1
1
1
1
1
1
1
1
1
1
1
1
1
1
1
1
1
1
1
1
1
1
1
1
1
1
1
1
1
1
1
1
1
1
1
1
1
1
1
1
1
1
1
1
1
1
1
1
1
1
1
1
1
1
1
1
1
1
1
1
1
1
1
1
1
1
1
1
1
1
1
1
1
1
1
1
1
1
1
1
1
1
1
1
1
1
1
1
1
1
1
1
1
1
1
1
1
1
1

SCALARS radius float 1
LOOKUP_TABLE default
5e-05
5e-05
5e-05
5e-05
5e-05
5e-05
5e-05
5e-05
5e-05
5e-05
5e-05
5e-05
5e-05
5e-05
5e-05
5e-05
5e-05
5e-05
5e-05
5e-05
5e-05
5e-05
5e-05
5e-05
5e-05
5e-05
5e-05
5e-05
5e-05
5e-05
5e-05
5e-05
5e-05
5e-05
5e-05
5e-05
5e-05
5e-05
5e-05
5e-05
5e-05
5e-05
5e-05
5e-05
5e-05
5e-05
5e-05
5e-05
5e-05
5e-05
5e-05
5e-05
5e-05
5e-05
5e-05
5e-05
5e-05
5e-05
5e-05
5e-05
5e-05
5e-05
5e-05
5e-05
5e-05
5e-05
5e-05
5e-05
5e-05
5e-05
5e-05
5e-05
5e-05
5e-05
5e-05
5e-05
5e-05
5e-05
5e-05
5e-05
5e-05
5e-05
5e-05
5e-05
5e-05
5e-05
5e-05
5e-05
5e-05
5e-05
5e-05
5e-05
5e-05
5e-05
5e-05
5e-05
5e-05
5e-05
5e-05
5e-05
5e-05
5e-05
5e-05
5e-05
5e-05
5e-05
5e-05
5e-05
5e-05
5e-05
5e-05
5e-05
5e-05
5e-05
5e-05
5e-05
5e-05
5e-05
5e-05
5e-05
5e-05
5e-05
5e-05
5e-05
5e-05
5e-05
5e-05
5e-05
5e-05
5e-05
5e-05
5e-05
5e-05
5e-05
5e-05
5e-05
5e-05
5e-05
5e-05
5e-05
5e-05
5e-05
5e-05
5e-05
5e-05
5e-05
5e-05
5e-05
5e-05
5e-05
5e-05
5e-05
5e-05
5e-05
5e-05
5e-05
5e-05
5e-05
5e-05
5e-05
5e-05
5e-05
5e-05
5e-05
5e-05
5e-05
5e-05
5e-05
5e-05
5e-05
5e-05
5e-05
5e-05
5e-05
5e-05
5e-05
5e-05
5e-05
5e-05
5e-05
5e-05
5e-05
5e-05
5e-05
5e-05
5e-05
5e-05
5e-05
5e-05
5e-05
5e-05
5e-05
5e-05
5e-05
5e-05
5e-05
5e-05
5e-05
5e-05
5e-05
5e-05
5e-05
5e-05
5e-05
5e-05
5e-05
5e-05
5e-05
5e-05
5e-05
5e-05
5e-05
5e-05
5e-05
5e-05
5e-05
5e-05
5e-05
5e-05
5e-05
5e-05
5e-05
5e-05
5e-05
5e-05
5e-05
5e-05
5e-05
5e-05
5e-05
5e-05
5e-05
5e-05
5e-05
5e-05
5e-05
5e-05
5e-05
5e-05
5e-05
5e-05
5e-05
5e-05
5e-05
5e-05
5e-05
5e-05
5e-05
5e-05
5e-05
5e-05
5e-05
5e-05
5e-05
5e-05
5e-05
5e-05
5e-05
5e-05
5e-05
5e-05
5e-05
5e-05
5e-05
5e-05
5e-05
5e-05
5e-05
5e-05
5e-05
5e-05
5e-05
5e-05
5e-05
5e-05
5e-05
5e-05
5e-05
5e-05
5e-05
5e-05
5e-05
5e-05

SCALARS mass float 1
LOOKUP_TABLE default
1.46608e-10
1.46608e-10
1.46608e-10
1.46608e-10
1.46608e-10
1.46608e-10
1.46608e-10
1.46608e-10
1.46608e-10
1.46608e-10
1.46608e-10
1.46608e-10
1.46608e-10
1.46608e-10
1.46608e-10
1.46608e-10
1.46608e-10
1.46608e-10
1.46608e-10
1.46608e-10
1.46608e-10
1.46608e-10
1.46608e-10
1.46608e-10
1.46608e-10
1.46608e-10
1.46608e-10
1.46608e-10
1.46608e-10
1.46608e-10
1.46608e-10
1.46608e-10
1.46608e-10
1.46608e-10
1.46608e-10
1.46608e-10
1.46608e-10
1.46608e-10
1.46608e-10
1.46608e-10
1.46608e-10
1.46608e-10
1.46608e-10
1.46608e-10
1.46608e-10
1.46608e-10
1.46608e-10
1.46608e-10
1.46608e-10
1.46608e-10
1.46608e-10
1.46608e-10
1.46608e-10
1.46608e-10
1.46608e-10
1.46608e-10
1.46608e-10
1.46608e-10
1.46608e-10
1.46608e-10
1.46608e-10
1.46608e-10
1.46608e-10
1.46608e-10
1.46608e-10
1.46608e-10
1.46608e-10
1.46608e-10
1.46608e-10
1.46608e-10
1.46608e-10
1.46608e-10
1.46608e-10
1.46608e-10
1.46608e-10
1.46608e-10
1.46608e-10
1.46608e-10
1.46608e-10
1.46608e-10
1.46608e-10
1.46608e-10
1.46608e-10
1.46608e-10
1.46608e-10
1.46608e-10
1.46608e-10
1.46608e-10
1.46608e-10
1.46608e-10
1.46608e-10
1.46608e-10
1.46608e-10
1.46608e-10
1.46608e-10
1.46608e-10
1.46608e-10
1.46608e-10
1.46608e-10
1.46608e-10
1.46608e-10
1.46608e-10
1.46608e-10
1.46608e-10
1.46608e-10
1.46608e-10
1.46608e-10
1.46608e-10
1.46608e-10
1.46608e-10
1.46608e-10
1.46608e-10
1.46608e-10
1.46608e-10
1.46608e-10
1.46608e-10
1.46608e-10
1.46608e-10
1.46608e-10
1.46608e-10
1.46608e-10
1.46608e-10
1.46608e-10
1.46608e-10
1.46608e-10
1.46608e-10
1.46608e-10
1.46608e-10
1.46608e-10
1.46608e-10
1.46608e-10
1.46608e-10
1.46608e-10
1.46608e-10
1.46608e-10
1.46608e-10
1.46608e-10
1.46608e-10
1.46608e-10
1.46608e-10
1.46608e-10
1.46608e-10
1.46608e-10
1.46608e-10
1.46608e-10
1.46608e-10
1.46608e-10
1.46608e-10
1.46608e-10
1.46608e-10
1.46608e-10
1.46608e-10
1.46608e-10
1.46608e-10
1.46608e-10
1.46608e-10
1.46608e-10
1.46608e-10
1.46608e-10
1.46608e-10
1.46608e-10
1.46608e-10
1.46608e-10
1.46608e-10
1.46608e-10
1.46608e-10
1.46608e-10
1.46608e-10
1.46608e-10
1.46608e-10
1.46608e-10
1.46608e-10
1.46608e-10
1.46608e-10
1.46608e-10
1.46608e-10
1.46608e-10
1.46608e-10
1.46608e-10
1.46608e-10
1.46608e-10
1.46608e-10
1.46608e-10
1.46608e-10
1.46608e-10
1.46608e-10
1.46608e-10
1.46608e-10
1.46608e-10
1.46608e-10
1.46608e-10
1.46608e-10
1.46608e-10
1.46608e-10
1.46608e-10
1.46608e-10
1.46608e-10
1.46608e-10
1.46608e-10
1.46608e-10
1.46608e-10
1.46608e-10
1.46608e-10
1.46608e-10
1.46608e-10
1.46608e-10
1.46608e-10
1.46608e-10
1.46608e-10
1.46608e-10
1.46608e-10
1.46608e-10
1.46608e-10
1.46608e-10
1.46608e-10
1.46608e-10
1.46608e-10
1.46608e-10
1.46608e-10
1.46608e-10
1.46608e-10
1.46608e-10
1.46608e-10
1.46608e-10
1.46608e-10
1.46608e-10
1.46608e-10
1.46608e-10
1.46608e-10
1.46608e-10
1.46608e-10
1.46608e-10
1.46608e-10
1.46608e-10
1.46608e-10
1.46608e-10
1.46608e-10
1.46608e-10
1.46608e-10
1.46608e-10
1.46608e-10
1.46608e-10
1.46608e-10
1.46608e-10
1.46608e-10
1.46608e-10
1.46608e-10
1.46608e-10
1.46608e-10
1.46608e-10
1.46608e-10
1.46608e-10
1.46608e-10
1.46608e-10
1.46608e-10
1.46608e-10
1.46608e-10
1.46608e-10
1.46608e-10
1.46608e-10
1.46608e-10
1.46608e-10
1.46608e-10
1.46608e-10
1.46608e-10
1.46608e-10
1.46608e-10
1.46608e-10
1.46608e-10
1.46608e-10
1.46608e-10
1.46608e-10
1.46608e-10
1.46608e-10
1.46608e-10
1.46608e-10
1.46608e-10
1.46608e-10
1.46608e-10
1.46608e-10
1.46608e-10
1.46608e-10
1.46608e-10

VECTORS velocity float
0.00567989 -0.00132306 -0.000345216
0.00592146 -0.00101232 0.000463297
0.00579465 -0.000668033 0.000156329
0.00528992 -0.00100205 0.000448385
0.00569367 -0.00132521 -0.000346974
0.0052131 -0.00125594 0.00218864
0.00562368 -0.00130534 -0.00034558
0.00570063 -0.00132487 -0.000349051
0.0049139 -0.00277086 0.000936674
9.33084e-15 -9.73159e-14 2.32276e-13
0.0059576 -0.00102081 0.000466441
0.0055886 -0.000637902 0.000147272
0.00574307 -0.00133385 -0.000352082
0.00576789 -0.000661781 0.000151934
0.0060498 -0.00142941 -0.000352364
0.00574997 -0.000661783 0.000154814
0.00573253 -0.000995439 0.000454515
0.00571352 -0.00132696 -0.000350243
0.00226192 0.000257795 1.57159e-05
0.00598001 -0.00140917 -0.000350953
0.00544166 -0.00043526 0.000382962
0.00491575 -0.00277027 0.000936143
0.00540471 -0.00120816 -0.000367007
0.00501467 -0.00281989 0.000840777
0.00542562 -0.000452957 0.000373361
0.00581097 -0.00100897 0.000460602
0.00561195 -0.00129957 -0.000347316
0.00361911 0.000327977 -9.98748e-06
0.00586054 -0.00137275 -0.000350559
0.00512071 -0.00132173 -0.000212163
0.00505687 -0.00282859 0.00084312
0.00562747 -0.00130855 -0.000344479
0.00564763 -0.00130725 -0.000349837
0.00485866 -0.00275896 0.000924918
0.00305499 0.000787534 0.000201857
0.0060168 -0.00100066 0.000461731
0.00487353 -0.0027589 0.000927865
0.00579656 -0.00104458 0.000472662
4.59435e-16 2.25521e-15 8.4636e-14
0.00586757 -0.00100262 0.000459709
0.00505812 -0.00282903 0.000843039
0.00565551 -0.00131738 -0.000343784
0.00356267 0.000233624 -1.05354e-05
0.0049044 -0.00108805 -0.000335596
0.00492043 -0.00109577 -0.000339482
0.00572535 -0.000659292 0.000175604
0.00493863 -0.00273634 0.000943157
0.00309555 0.000874921 0.000240224
0.00578719 -0.000665496 0.000153769
0.00380481 0.000909548 -0.000248337
0.00505966 -0.00282891 0.000842944
0.00577318 -0.00103353 0.000468433
0.00559244 -0.0012916 -0.000349262
0.00595853 -0.00097471 0.000451268
0.00518581 -0.000981656 0.000439801
0.00486183 -0.00275714 0.000925633
0.00543905 -0.000642101 0.000167181
0.00576078 -0.000631718 0.000114101
0.00595292 -0.00102047 0.000467071
0.00547483 -0.001043 0.000466039
0.00263547 4.979e-05 3.13571e-05
0.0049446 -0.00280037 0.000855379
0.00579371 -0.000666294 0.000153407
0.00602026 -0.00101426 0.000464796
0.00310734 0.000241853 -2.64116e-05
0.00589261 -0.000944526 0.000439431
0.00560306 -0.000461689 0.000399738
0.00540913 -0.000840755 0.000394107
0.00579963 -0.000669697 0.000158555
0.00548972 -0.000618789 0.000130012
0.00589078 -0.00101302 0.00046172
0.0058209 -0.000687242 0.000185826
0.00544778 -0.000443671 0.000389034
0.00567897 -0.000655431 0.00015464
0.00487125 -0.00276342 0.000927776
0.00579829 -0.000677222 0.000166853
0.00584425 -0.00103405 0.000470102
0.00615728 -0.000617782 0.000329986
0.00587867 -0.000957833 0.000436722
0.00596613 -0.0010361 0.000473632
0.00588806 -0.00102726 0.000468606
0.00547642 -0.000610575 0.000132016
0.00601825 -0.00101259 0.000465574
0.00574209 -0.000950305 0.0004385
0.00601556 -0.00100407 0.000462068
0.00594112 -0.000977654 0.000452308
0.00579266 -0.00096027 0.000443145
0.00583018 -0.000700325 0.00016585
0.00588611 -0.000970605 0.000453104
0.00553189 -0.000581481 8.20052e-05
0.00600448 -0.0010234 0.000469077
0.00583911 -0.000660085 0.000139898
4.42866e-15 1.04566e-14 8.29569e-14
3.10422e-23 4.86658e-23 8.29106e-22
0.00560596 -0.000471559 0.000401365
0.00581641 -0.00067791 0.000166768
0.00566033 -0.000417083 0.000391747
0.00579894 -0.000670952 0.000160273
0.00315142 0.000236891 -2.69749e-05
0.00495823 -0.00110593 -0.000339619
0.00582162 -0.000926275 0.000431527
0.00591331 -0.000979108 0.000451226
0.00583432 -0.000702371 0.000170814
0.00597001 -0.000434232 -0.000180472
0.00540895 -0.000422522 0.000379596
0.00578236 -0.00100337 0.000458042
0.00315991 0.000236289 -2.37408e-05
0.00604039 -0.000813227 0.00039622
0.00542069 -0.0004133 0.000376249
0.00591369 -0.00138574 -0.000353443
0.0057594 -0.00134156 -0.000350286
0.00563519 -0.00131158 -0.00034357
0.00577344 -0.000916576 0.000427183
0.00582011 -0.000686644 0.000175103
0.00531453 -0.000962803 1.83456e-05
0.00601074 -0.000911621 0.000430149
0.00512767 -0.00115159 -0.000344319
0.00582887 -0.000687774 0.000170443
0.0053071 -0.00107117 -0.000201242
0.00597439 -0.000980501 0.000456175
0.00541647 -0.000423796 0.000380887
0.00563316 -0.000601523 9.41035e-05
0.00594974 -0.00100345 0.000463116
0.00603166 -0.000979631 0.00044273
0.00522068 -0.000986434 0.000444403
0.0057286 -0.00133015 -0.000351399
0.00579553 -0.000674394 0.000164496
0.005609 -0.000886222 0.000413404
0.00310174 0.000466845 5.45668e-05
0.0059529 -0.000989816 0.000456318
0.00580625 -0.00068208 0.000170628
0.00544287 -0.000437813 0.000384743
0.0058027 -0.00067323 0.000162291
0.00541563 -0.000410078 0.000376514
0.00564054 -0.000651527 0.00015149
0.0057975 -0.000674375 0.000163816
0.00542421 -0.000432464 0.000380495
0.00587681 -0.000966958 0.000447549
0.00546598 -0.000613798 0.000148611
0.00560549 -0.000571282 0.000420456
0.00583462 -0.000690794 0.000178509
0.00541086 -0.000412303 0.000377361
0.00564321 -0.000449747 0.000386468
0.00542783 -0.000426444 0.000381268
-3.83187e-14 8.16799e-14 2.95886e-13
0.00577197 -0.000494814 0.00041674
0.00592005 -0.000974987 0.000450678
0.00539122 -0.000420577 0.000378065
0.00542239 -0.000429218 0.00038147
0.00574481 -0.000478155 0.000409814
0.0056797 -0.000551866 0.000369043
0.00314053 0.000247597 -2.69794e-05
0.00556729 -0.000646395 0.000143527
0.00558936 -0.000484318 0.000401321
0.00599839 -0.000445906 -0.000178708
0.00562419 -0.000535866 0.000413942
0.00316583 0.000261909 -1.694e-05
0.00567054 -0.000552782 0.000421836
0.00599593 -0.00101885 0.000469451
0.00563974 -0.000499104 0.000406582
0.00555369 0.000572835 -0.00066409
0.00543078 -0.00043083 0.0003829
0.00558561 -0.000431475 0.000257329
0.00586636 -0.000456779 -0.000169774
0.00579726 -0.000554792 -0.000137845
0.00558759 -0.000455164 0.00039486
0.00253745 0.00124023 0.000418945
0.00560152 -0.000490932 0.000402341
0.00598424 -0.00100343 0.000460864
0.0054288 -0.000437234 0.000377913
0.00538513 -0.000399061 0.000383935
0.00606553 -0.000969589 0.000474369
0.00531227 -0.000869891 0.000265639
0.00605022 -0.000982696 0.000461032
0.00579074 0.000540902 -0.000672653
0.0057342 -0.000909836 0.000423771
0.00551567 -0.000376382 0.000375122
0.00565349 -0.00130091 -0.000355664
0.00542315 -0.000396367 0.000374123
0.00586998 -0.000480441 -0.000163665
0.0057541 -0.000663595 0.000155451
0.00572519 0.0005378 -0.00066643
0.00549602 -0.000604507 0.000144923
0.00540444 -0.000423849 0.000380137
0.00545541 -0.000441228 0.000387577
0.00597051 -0.000433111 -0.000180777
0.00560693 -0.000397513 0.000384883
0.00586629 -0.00093708 0.00043574
0.00530089 -0.000652818 0.000189835
0.00594289 -0.000336235 -0.000205771
0.00568172 -0.000495719 0.000408005
0.005832 -0.000689536 0.000178269
0.00537715 -0.000428884 0.000378644
0.00545886 -0.000500789 0.000249882
0.00604435 -0.000983669 0.00045579
0.00604206 -0.000986987 0.000454905
0.00566485 -0.000531066 0.000417106
0.00313253 0.000823049 0.000218008
0.0059412 -0.000958099 0.000445386
0.00574231 0.000512692 -0.000659048
0.00560693 -0.000446608 0.000396764
0.00312675 0.000253551 -2.69546e-05
0.00573111 -0.000408809 0.000392176
0.00581565 -0.00096522 0.000445458
0.00571138 -0.000489109 0.000406023
0.00543085 0.000572719 -0.000652957
0.00577639 -0.000737771 0.000364939
0.00554672 -0.000460377 0.000394871
0.00543416 -0.000442653 0.000385125
0.00569886 -0.000950694 0.00043775
0.00564515 -0.00055 0.000418681
0.00568517 0.000536061 -0.000662538
0.00553865 0.000572661 -0.000661911
0.00568119 -0.000468701 0.000410304
0.00587223 -0.000453434 -0.000168505
0.00544893 0.00059231 -0.000662171
0.00576497 -0.000672018 0.000164557
0.00539965 -0.000398435 0.000366053
0.00599281 -0.00100095 0.000462599
0.00584962 -0.000468656 -0.000164757
0.00588654 -0.000487805 -0.000161361
0.00579662 -0.000609052 -0.000123372
0.00597153 0.00087437 -0.000271368
0.00598731 0.000507433 -0.000677461
0.00593076 0.000872886 -0.000273153
0.00541787 -0.000370276 0.00036899
0.00546227 -0.000611409 0.000180067
0.00600797 0.000877086 -0.000268902
0.00559903 0.000571384 -0.000668318
0.00573751 -0.000484419 0.000408592
0.00593718 -0.000426489 -0.000180704
0.00576234 0.000521801 -0.000663978
0.00570971 -0.000437352 0.000391583
0.0059033 -0.000947772 0.000440294
0.00579581 0.000537717 -0.000672025
0.00556172 0.000556812 -0.000658691
0.0056757 0.000556114 -0.000665611
0.00579528 -0.0006733 0.000162437
0.0057139 -0.000502489 0.000412791
0.00573942 -0.000482093 0.000418178
0.00586958 -0.000476551 -0.000163302
0.00583316 0.000538356 -0.00067551
0.00541242 -0.000407536 0.000374409
0.00591808 -0.000447325 -0.00017507
0.00579223 -0.000491998 0.000417364
0.00576065 0.000547988 -0.000673501
0.00574068 -0.000487775 0.000409455
0.00567734 0.000538899 -0.00066183
0.00563999 -0.000408745 0.000388672
0.0057462 -0.000419053 0.000397853
0.00569832 -0.000511328 0.000409847
0.00571922 -0.000480388 0.000411662
0.0059802 -0.000970453 0.000449754
0.00569687 -0.000520124 0.000415069
0.00591938 0.000549094 -0.000686473
0.00574212 -0.000491955 0.000413385
0.00587145 0.00054457 -0.000680719
0.00572625 -0.000469859 0.000405947
0.00571302 -0.000455383 0.000369528
0.00581072 -0.000479701 0.000413949
0.00573556 -0.000487841 0.000411626
0.00552434 0.000583581 -0.000667596
0.00583845 0.000549017 -0.000679579
0.005439 -0.000371078 0.000371327
0.00554606 0.000553109 -0.00065601
0.00600888 0.000508366 -0.000680368
0.00579673 -0.000466451 -0.000165941
0.00577538 -0.000492511 0.000413448
0.00575206 -0.000491915 0.000396507
0.00583763 -0.00049213 -0.00015731
0.00586509 -0.000474872 -0.00016386
0.00543433 -0.000368009 0.000376776
0.0054375 -0.000365104 0.000368677
0.00587926 -0.000431162 -0.000176571
0.00583369 -0.000687584 0.0001756
0.00570921 -0.000507112 0.000411954
0.00577049 -0.000493693 0.000414402
0.0057135 0.00053332 -0.000663538
0.00585964 -0.00047702 -0.00016261
0.00602193 -0.00100818 0.00046334
0.00590945 0.000521061 -0.000677806
0.00574759 0.000532118 -0.000666199
0.00601777 -0.000980001 0.00045324

VECTORS force float
1.75925e-11 -8.9814e-11 6.35928e-11
4.66707e-11 -2.13982e-11 1.16029e-11
-4.97612e-11 3.21692e-11 -3.16137e-11
5.38715e-11 -4.16241e-11 1.56274e-11
1.78063e-11 -1.03917e-10 7.36883e-11
-1.48533e-11 7.80685e-13 -4.00303e-11
1.68952e-11 5.10422e-11 -3.84373e-11
-1.62671e-11 -8.5805e-11 6.71414e-11
1.39396e-11 -8.44758e-12 2.36495e-12
1.26448e-21 4.68081e-22 1.44963e-22
-5.15346e-11 3.63828e-11 -1.20313e-11
-1.00872e-11 9.01832e-12 3.30882e-11
9.07977e-13 -1.52696e-12 6.56255e-13
-4.82876e-11 -1.93338e-13 3.29584e-11
-2.90935e-11 -4.59196e-11 3.92081e-11
7.25959e-11 -3.29411e-11 4.29245e-11
-5.671e-11 1.39178e-11 -3.60386e-12
-2.02715e-11 -6.13868e-11 5.13373e-11
-2.88294e-11 1.03405e-10 4.33361e-11
3.8398e-12 -2.4591e-11 2.11025e-11
2.6844e-11 6.48371e-12 -1.20183e-11
8.27429e-12 1.57424e-11 7.37549e-12
-5.88609e-11 -5.86313e-11 5.7916e-11
-1.66682e-11 -1.66212e-11 -5.35103e-12
-9.42439e-11 5.33052e-11 -5.39203e-11
5.21668e-12 4.87127e-11 -1.65888e-11
4.06122e-11 5.66815e-11 -5.23445e-11
-1.86935e-10 -1.85957e-10 -7.97915e-12
-7.17181e-12 5.89734e-12 -3.70653e-12
5.25951e-12 6.90469e-12 -2.56273e-11
2.34787e-12 4.59665e-12 7.08705e-12
-6.60887e-12 2.91398e-11 -6.57249e-12
-1.17452e-10 9.26581e-11 -3.70198e-11
-3.92176e-12 4.09851e-13 -9.49146e-12
-6.38659e-11 1.60876e-10 1.06878e-10
6.99584e-11 -1.90076e-10 6.36995e-11
1.52835e-11 -4.92493e-12 6.10011e-12
4.64921e-11 5.01707e-11 -1.4065e-11
8.04886e-24 -1.03398e-25 0.0
-9.96688e-12 1.86242e-12 3.46507e-12
6.78423e-12 -2.31563e-11 4.75919e-12
-1.02905e-11 -5.0907e-11 4.09009e-11
-4.44555e-11 7.17918e-11 -7.62466e-12
-6.81089e-11 4.38899e-11 1.47388e-12
-4.89051e-11 8.96797e-12 7.60702e-12
6.73562e-11 -4.54128e-12 4.48834e-11
5.49296e-11 -2.82315e-11 1.95275e-11
-1.46567e-10 4.93314e-11 -3.34105e-11
3.21485e-11 4.8976e-11 -6.60424e-11
-1.58499e-10 2.83733e-10 3.77526e-11
-1.63817e-11 -3.07958e-11 1.11958e-11
1.04178e-10 4.76081e-11 -1.38893e-11
-3.13804e-13 6.81047e-11 -4.53507e-11
-4.29028e-11 1.0571e-10 -3.65692e-11
8.51514e-11 -2.82881e-11 1.96059e-11
-1.36129e-11 -5.69211e-12 -1.8005e-13
-7.7284e-11 1.22809e-10 -1.14282e-11
2.39878e-10 5.5043e-11 -9.6368e-11
9.16693e-12 1.30263e-10 -4.77304e-11
3.22982e-12 -2.4879e-11 6.86484e-12
-1.87345e-12 4.98772e-11 -4.0711e-11
2.30181e-11 -6.40923e-12 -7.06382e-12
-1.81854e-11 4.74999e-11 -4.89863e-11
6.68312e-13 -3.0723e-11 -3.58057e-12
-1.16013e-10 5.57342e-11 -1.9991e-11
9.72442e-11 6.31001e-11 -1.75815e-11
1.57074e-10 4.964e-11 -8.38376e-11
1.49238e-11 3.28453e-11 -8.89186e-12
-5.62891e-11 4.39723e-11 -4.11488e-11
-1.13112e-10 5.17566e-11 4.78999e-11
-1.53493e-11 -2.78004e-11 1.52288e-11
5.43679e-11 -2.36133e-11 3.0906e-11
-4.5692e-11 -1.10479e-10 -2.46061e-11
1.39941e-10 -7.95242e-11 7.69189e-11
8.42854e-12 -7.84203e-12 2.55432e-12
4.8923e-11 -1.41245e-11 5.84552e-12
2.64407e-11 6.76893e-12 -3.6689e-12
4.11594e-11 -7.8277e-11 2.85606e-11
-8.17928e-12 2.84498e-11 1.03885e-10