# vtk DataFile Version 3.0
LIGGGHTS particles timestep 33200000
ASCII
DATASET POLYDATA
POINTS 271 float
0.20601 0.0152256 0.0088916
0.206892 0.0176435 0.00713184
0.201021 0.0178207 0.00703482
0.206946 0.0174826 0.00710806
0.20598 0.0152035 0.00898441
0.212417 0.0167007 0.00759212
0.206085 0.0154926 0.00861375
0.205963 0.0151796 0.00907998
0.21253 0.0171802 0.00726895
0.206548 0.0172599 0.00721889
0.20668 0.0174659 0.00715584
0.200164 0.015699 0.00830053
0.205901 0.0151054 0.00936399
0.200831 0.0185427 0.00684795
0.206936 0.0173861 0.00713619
0.200929 0.018577 0.00684939
0.206967 0.0175803 0.00711258
0.205943 0.0151537 0.0091744
0.20651 0.0171058 0.0073406
0.206719 0.0172313 0.00723351
0.200402 0.0162912 0.00790725
0.212608 0.0175546 0.00715185
0.206151 0.0157223 0.00843269
0.212491 0.0169939 0.00733015
0.201162 0.0180227 0.00693476
0.206862 0.0174521 0.00715217
0.206108 0.015569 0.00855355
0.206604 0.0175318 0.00714885
0.20617 0.0157993 0.00837181
0.206605 0.0167753 0.0076069
0.212435 0.016774 0.00752662
0.206066 0.0154175 0.00867699
0.206768 0.0170389 0.00738588
0.212589 0.017461 0.00718113
0.206803 0.0180516 0.00719747
0.206868 0.0183458 0.00721261
0.212628 0.0176481 0.00712258
0.206991 0.0176769 0.00712339
0.321436 0.0173475 0.00552525
0.206865 0.0175468 0.00712022
0.212454 0.0168473 0.00746113
0.206032 0.0152674 0.00880352
0.206845 0.0182466 0.0072073
0.206218 0.0159521 0.00825267
0.206191 0.0158798 0.00831627
0.200086 0.0155564 0.00866481
0.212569 0.0173674 0.0072104
0.206686 0.0179208 0.00716761
0.200024 0.0154529 0.00893945
0.206823 0.0181491 0.00720498
0.212472 0.0169206 0.00739566
0.2067 0.0171551 0.00729586
0.206492 0.0166708 0.00768734
0.207091 0.0181527 0.00718487
0.206919 0.0172942 0.00717222
0.212647 0.0177417 0.0070933
0.200347 0.01643 0.00781992
0.200003 0.0154184 0.00903102
0.206839 0.0177961 0.00717368
0.206643 0.0169272 0.00748247
0.206707 0.0180183 0.00717258
0.21251 0.0170866 0.00729823
0.200066 0.0155217 0.00875636
0.20674 0.0177589 0.00717822
0.206772 0.0183115 0.00718751
0.206903 0.0180878 0.00720097
0.201057 0.0183477 0.00687927
0.206787 0.0171149 0.00732367
0.200809 0.0184466 0.006865
0.200138 0.0156246 0.00848427
0.206941 0.0178389 0.00715601
0.200949 0.0186745 0.00685809
0.200183 0.0157604 0.00822389
0.200865 0.0182872 0.00689217
0.212549 0.0172738 0.00723967
0.201043 0.0179055 0.00698643
0.207014 0.0177735 0.0071355
0.206944 0.0182819 0.00722583
0.206377 0.0165665 0.00776656
0.206923 0.0181846 0.0072152
0.206777 0.0175027 0.0071657
0.201088 0.0180898 0.00692393
0.206882 0.0179908 0.00718837
0.206255 0.0161067 0.00813132
0.206659 0.017366 0.00713368
0.206624 0.0172076 0.00725757
0.206278 0.0161821 0.00807002
0.200461 0.016543 0.00775529
0.206758 0.0174046 0.00715934
0.200559 0.016966 0.00750724
0.206997 0.0181194 0.00719267
0.20015 0.0156599 0.00839149
0.0643568 0.0187248 0.00531097
0.24257 0.0191927 0.00520306
0.200755 0.0178181 0.00701966
0.201117 0.0178481 0.00702471
0.20098 0.0176507 0.007132
0.200961 0.0175656 0.00718065
0.206729 0.0181158 0.00717755
0.206903 0.0172178 0.00723464
0.206302 0.0162584 0.00800995
0.206605 0.0171316 0.00731977
0.200822 0.0180949 0.00692682
0.200425 0.0167661 0.00761765
0.200788 0.0183504 0.00688206
0.20684 0.017349 0.00714421
0.206664 0.0178238 0.0071791
0.206815 0.0185066 0.00719745
0.20062 0.0176172 0.00712907
0.206806 0.0171909 0.00726145
0.206127 0.015646 0.00849277
0.206042 0.0153393 0.00873466
0.206567 0.0169791 0.00744382
0.200581 0.0174464 0.00722683
0.206586 0.0170558 0.00738242
0.20689 0.0184433 0.00721758
0.20651 0.0167479 0.00762643
0.201139 0.0179327 0.00697649
0.206548 0.016902 0.0075047
0.206698 0.0175639 0.00716304
0.201 0.0177357 0.00708336
0.206797 0.0176005 0.00717016
0.206567 0.017337 0.00715803
0.206529 0.016825 0.00756556
0.205921 0.0151297 0.00926901
0.200852 0.0186409 0.00685152
0.206239 0.0160284 0.00819135
0.206643 0.0177276 0.00715778
0.206737 0.0173077 0.00717096
0.200843 0.0181911 0.00690927
0.200562 0.0173613 0.00727554
0.200045 0.0154873 0.00884788
0.20068 0.0178725 0.00698302
0.200908 0.0184797 0.0068598
0.200653 0.0169954 0.00749594
0.206397 0.0166435 0.00770578
0.0100679 0.0201683 0.00551526
0.200523 0.0171911 0.00737309
0.200892 0.0188363 0.00686896
0.20064 0.0177023 0.00708035
0.200846 0.0174507 0.0072409
0.2008 0.018 0.00694948
0.0219312 0.0187687 0.00551176
0.201035 0.0182516 0.00689632
0.207017 0.0182172 0.00720535
0.20066 0.0177874 0.00703167
0.200969 0.0187721 0.00686678
0.20052 0.0167958 0.00760466
0.200851 0.0178462 0.00700918
0.20675 0.0182133 0.00718251
0.200578 0.0170511 0.00745852
0.201024 0.0186078 0.00685564
0.200926 0.017791 0.00704624
0.206622 0.01763 0.00715288
0.200831 0.0177612 0.00705783
0.206916 0.0177402 0.00714382
0.200866 0.0175358 0.00719223
0.194511 0.0171069 0.00731332
0.200693 0.0171656 0.00739851
0.200617 0.0172213 0.0073611
0.200695 0.0175624 0.0071659
0.200982 0.0184134 0.00686871
0.206586 0.0174336 0.00714112
0.200906 0.0177059 0.00709495
0.206643 0.0172853 0.00719752
0.200503 0.0171059 0.00742167
0.206491 0.0170288 0.00740146
0.206624 0.0168512 0.00754469
0.206819 0.017698 0.00717301
0.194798 0.0183933 0.00689592
0.206662 0.0170032 0.00742026
0.200811 0.0176762 0.00710639
0.206824 0.0172671 0.00719915
0.161461 0.0182058 0.00533758
0.201014 0.0181554 0.00691337
0.200422 0.0163751 0.00785662
0.19457 0.017374 0.00719025
0.200872 0.0187384 0.00686023
0.200766 0.0182543 0.0068991
0.200406 0.0166818 0.00766789
0.200895 0.0180284 0.00693767
0.206318 0.0163378 0.00795119
0.200108 0.0155905 0.00857343
0.200969 0.017962 0.00694866
0.200481 0.0166269 0.00770461
0.200598 0.0171362 0.00740982
0.200777 0.0179086 0.00698319
0.197584 0.0176869 0.00705276
0.206529 0.0171828 0.00727977
0.206472 0.0169517 0.00746235
0.200917 0.0181248 0.00691989
0.206781 0.017954 0.00719253
0.206416 0.0167209 0.00764546
0.194777 0.0182957 0.00689731
0.200873 0.0179323 0.00696004
0.206793 0.018409 0.00719248
0.200206 0.015847 0.00817953
0.20636 0.0164898 0.0078282
0.200991 0.0180581 0.00693065
0.260531 0.0171492 0.00721736
0.20686 0.0178935 0.00717913
0.200735 0.0177328 0.00706845
0.0722431 0.0178023 0.00780352
0.206681 0.0170791 0.00735807
0.200542 0.0172761 0.00732425
0.194712 0.0180074 0.00693067
0.194531 0.0171959 0.0072723
0.20096 0.0183172 0.00688576
0.200366 0.0165139 0.00776925
0.194492 0.0170178 0.00735435
0.200744 0.0181574 0.00691629
0.206718 0.0176616 0.00717033
0.200947 0.017876 0.0069977
0.200327 0.0163461 0.00787053
0.200286 0.0161787 0.00797153
0.194338 0.0163743 0.00778915
0.194357 0.016445 0.00772106
0.194414 0.0166661 0.00752751
0.200601 0.0175316 0.00717804
0.194376 0.0165158 0.00765293
0.194472 0.0169288 0.00739537
0.201152 0.0183782 0.00687279
0.200386 0.0165978 0.0077186
0.194755 0.0181981 0.00689871
0.200673 0.0170805 0.00744723
0.206338 0.0164126 0.00788801
0.19461 0.0175522 0.0071082
0.19482 0.0184909 0.00689225
0.194452 0.0168397 0.00743642
0.200701 0.0179646 0.00695048
0.200791 0.0175912 0.00715503
0.200751 0.017421 0.00725238
0.200656 0.0173916 0.00726368
0.194629 0.0176412 0.00706718
0.200464 0.0169357 0.00751909
0.200265 0.016095 0.00802202
0.194433 0.0167506 0.00747746
0.200913 0.0189338 0.00687766
0.194551 0.017285 0.00723127
0.200715 0.0176476 0.00711715
0.200442 0.016459 0.00780595
0.200444 0.0168506 0.0075678
0.200732 0.0173359 0.00730109
0.206434 0.0167976 0.00758405
0.201003 0.01851 0.00685159
0.19467 0.0178212 0.00699024
0.200224 0.0159276 0.00812313
0.194649 0.0177303 0.00702615
0.2005 0.0167111 0.00765431
0.200483 0.0170208 0.00747038
0.200676 0.0174768 0.00721489
0.201077 0.0184441 0.00686219
0.194691 0.0179143 0.00696035
0.194319 0.0163036 0.00785724
0.200539 0.0168809 0.00755595
0.200886 0.0176208 0.00714358
0.200939 0.0182209 0.00690284
0.200771 0.0175061 0.00720369
0.200712 0.0172508 0.0073498
0.200381 0.0162073 0.00795788
0.200886 0.0183833 0.00687522
0.200637 0.0173065 0.00731239
0.200722 0.0180608 0.00693343
0.201066 0.0179957 0.00694993
0.200246 0.0160126 0.00807525
0.194735 0.0181002 0.00690106
0.200306 0.0162654 0.00792599
0.20676 0.0178565 0.00718616
0.194394 0.0165866 0.00758479
0.19459 0.0174631 0.00714923
0.206453 0.0168747 0.00752317

VERTICES 271 542
1 0
1 1
1 2
1 3
1 4
1 5
1 6
1 7
1 8
1 9
1 10
1 11
1 12
1 13
1 14
1 15
1 16
1 17
1 18
1 19
1 20
1 21
1 22
1 23
1 24
1 25
1 26
1 27
1 28
1 29
1 30
1 31
1 32
1 33
1 34
1 35
1 36
1 37
1 38
1 39
1 40
1 41
1 42
1 43
1 44
1 45
1 46
1 47
1 48
1 49
1 50
1 51
1 52
1 53
1 54
1 55
1 56
1 57
1 58
1 59
1 60
1 61
1 62
1 63
1 64
1 65
1 66
1 67
1 68
1 69
1 70
1 71
1 72
1 73
1 74
1 75
1 76
1 77
1 78
1 79
1 80
1 81
1 82
1 83
1 84
1 85
1 86
1 87
1 88
1 89
1 90
1 91
1 92
1 93
1 94
1 95
1 96
1 97
1 98
1 99
1 100
1 101
1 102
1 103
1 104
1 105
1 106
1 107
1 108
1 109
1 110
1 111
1 112
1 113
1 114
1 115
1 116
1 117
1 118
1 119
1 120
1 121
1 122
1 123
1 124
1 125
1 126
1 127
1 128
1 129
1 130
1 131
1 132
1 133
1 134
1 135
1 136
1 137
1 138
1 139
1 140
1 141
1 142
1 143
1 144
1 145
1 146
1 147
1 148
1 149
1 150
1 151
1 152
1 153
1 154
1 155
1 156
1 157
1 158
1 159
1 160
1 161
1 162
1 163
1 164
1 165
1 166
1 167
1 168
1 169
1 170
1 171
1 172
1 173
1 174
1 175
1 176
1 177
1 178
1 179
1 180
1 181
1 182
1 183
1 184
1 185
1 186
1 187
1 188
1 189
1 190
1 191
1 192
1 193
1 194
1 195
1 196
1 197
1 198
1 199
1 200
1 201
1 202
1 203
1 204
1 205
1 206
1 207
1 208
1 209
1 210
1 211
1 212
1 213
1 214
1 215
1 216
1 217
1 218
1 219
1 220
1 221
1 222
1 223
1 224
1 225
1 226
1 227
1 228
1 229
1 230
1 231
1 232
1 233
1 234
1 235
1 236
1 237
1 238
1 239
1 240
1 241
1 242
1 243
1 244
1 245
1 246
1 247
1 248
1 249
1 250
1 251
1 252
1 253
1 254
1 255
1 256
1 257
1 258
1 259
1 260
1 261
1 262
1 263
1 264
1 265
1 266
1 267
1 268
1 269
1 270

POINT_DATA 271
SCALARS id int 1
LOOKUP_TABLE default
1
2
3
4
5
6
7
8
9
10
11
12
13
14
15
16
17
19
21
22
23
24
25
26
27
28
29
30
31
32
33
34
35
36
37
38
39
41
42
44
45
47
48
50
51
52
53
54
55
56
57
59
61
62
63
64
65
66
67
68
69
70
71
72
73
74
76
77
78
79
80
81
82
83
84
85
86
87
88
89
90
91
92
93
94
95
96
97
98
99
100
101
102
103
104
105
106
107
108
109
110
111
112
113
114
115
116
117
118
119
120
121
122
123
124
125
126
127
128
129
131
132
133
134
135
136
137
138
140
141
142
143
144
147
148
149
150
151
153
154
155
156
157
158
159
160
162
164
165
166
168
169
170
171
172
173
174
175
177
178
179
181
182
183
184
186
187
188
189
190
191
192
193
194
195
196
197
198
199
201
202
203
204
205
206
207
208
209
210
211
212
213
214
215
216
217
218
219
220
221
222
223
224
225
226
227
228
229
230
231
232
234
235
236
237
239
240
241
242
244
246
247
248
249
250
251
252
253
254
255
256
257
258
259
261
262
263
264
265
266
267
268
269
270
271
272
273
274
275
276
277
278
280
283
284
285
286
287
288
289
290
291
292
293
294
295
296
297
298
299
300

SCALARS type int 1
LOOKUP_TABLE default
1
1
1
1
1
1
1
1
1
1
1
1
1
1
1
1
1
1
1
1
1
1
1
1
1
1
1
1
1
1
1
1
1
1
1
1
1
1
1
1
1
1
1
1
1
1
1
1
1
1
1
1
1
1
1
1
1
1
1
1
1
1
1
1
1
1
1
1
1
1
1
1
1
1
1
1
1
1
1
1
1
1
1
1
1
1
1
1
1
1
1
1
1
1
1
1
1
1
1
1
1
1
1
1
1
1
1
1
1
1
1
1
1
1
1
1
1
1
1
1
1
1
1
1
1
1
1
1
1
1
1
1
1
1
1
1
1
1
1
1
1
1
1
1
1
1
1
1
1
1
1
1
1
1
1
1
1
1
1
1
1
1
1
1
1
1
1
1
1
1
1
1
1
1
1
1
1
1
1
1
1
1
1
1
1
1
1
1
1
1
1
1
1
1
1
1
1
1
1
1
1
1
1
1
1
1
1
1
1
1
1
1
1
1
1
1
1
1
1
1
1
1
1
1
1
1
1
1
1
1
1
1
1
1
1
1
1
1
1
1
1
1
1
1
1
1
1
1
1
1
1
1
1
1
1
1
1
1
1
1
1
1
1
1
1
1
1
1
1
1
1

SCALARS radius float 1
LOOKUP_TABLE default
5e-05
5e-05
5e-05
5e-05
5e-05
5e-05
5e-05
5e-05
5e-05
5e-05
5e-05
5e-05
5e-05
5e-05
5e-05
5e-05
5e-05
5e-05
5e-05
5e-05
5e-05
5e-05
5e-05
5e-05
5e-05
5e-05
5e-05
5e-05
5e-05
5e-05
5e-05
5e-05
5e-05
5e-05
5e-05
5e-05
5e-05
5e-05
5e-05
5e-05
5e-05
5e-05
5e-05
5e-05
5e-05
5e-05
5e-05
5e-05
5e-05
5e-05
5e-05
5e-05
5e-05
5e-05
5e-05
5e-05
5e-05
5e-05
5e-05
5e-05
5e-05
5e-05
5e-05
5e-05
5e-05
5e-05
5e-05
5e-05
5e-05
5e-05
5e-05
5e-05
5e-05
5e-05
5e-05
5e-05
5e-05
5e-05
5e-05
5e-05
5e-05
5e-05
5e-05
5e-05
5e-05
5e-05
5e-05
5e-05
5e-05
5e-05
5e-05
5e-05
5e-05
5e-05
5e-05
5e-05
5e-05
5e-05
5e-05
5e-05
5e-05
5e-05
5e-05
5e-05
5e-05
5e-05
5e-05
5e-05
5e-05
5e-05
5e-05
5e-05
5e-05
5e-05
5e-05
5e-05
5e-05
5e-05
5e-05
5e-05
5e-05
5e-05
5e-05
5e-05
5e-05
5e-05
5e-05
5e-05
5e-05
5e-05
5e-05
5e-05
5e-05
5e-05
5e-05
5e-05
5e-05
5e-05
5e-05
5e-05
5e-05
5e-05
5e-05
5e-05
5e-05
5e-05
5e-05
5e-05
5e-05
5e-05
5e-05
5e-05
5e-05
5e-05
5e-05
5e-05
5e-05
5e-05
5e-05
5e-05
5e-05
5e-05
5e-05
5e-05
5e-05
5e-05
5e-05
5e-05
5e-05
5e-05
5e-05
5e-05
5e-05
5e-05
5e-05
5e-05
5e-05
5e-05
5e-05
5e-05
5e-05
5e-05
5e-05
5e-05
5e-05
5e-05
5e-05
5e-05
5e-05
5e-05
5e-05
5e-05
5e-05
5e-05
5e-05
5e-05
5e-05
5e-05
5e-05
5e-05
5e-05
5e-05
5e-05
5e-05
5e-05
5e-05
5e-05
5e-05
5e-05
5e-05
5e-05
5e-05
5e-05
5e-05
5e-05
5e-05
5e-05
5e-05
5e-05
5e-05
5e-05
5e-05
5e-05
5e-05
5e-05
5e-05
5e-05
5e-05
5e-05
5e-05
5e-05
5e-05
5e-05
5e-05
5e-05
5e-05
5e-05
5e-05
5e-05
5e-05
5e-05
5e-05
5e-05
5e-05
5e-05
5e-05
5e-05
5e-05
5e-05
5e-05
5e-05
5e-05
5e-05
5e-05
5e-05
5e-05
5e-05
5e-05
5e-05
5e-05
5e-05
5e-05
5e-05
5e-05
5e-05
5e-05
5e-05
5e-05
5e-05
5e-05
5e-05

SCALARS mass float 1
LOOKUP_TABLE default
1.46608e-10
1.46608e-10
1.46608e-10
1.46608e-10
1.46608e-10
1.46608e-10
1.46608e-10
1.46608e-10
1.46608e-10
1.46608e-10
1.46608e-10
1.46608e-10
1.46608e-10
1.46608e-10
1.46608e-10
1.46608e-10
1.46608e-10
1.46608e-10
1.46608e-10
1.46608e-10
1.46608e-10
1.46608e-10
1.46608e-10
1.46608e-10
1.46608e-10
1.46608e-10
1.46608e-10
1.46608e-10
1.46608e-10
1.46608e-10
1.46608e-10
1.46608e-10
1.46608e-10
1.46608e-10
1.46608e-10
1.46608e-10
1.46608e-10
1.46608e-10
1.46608e-10
1.46608e-10
1.46608e-10
1.46608e-10
1.46608e-10
1.46608e-10
1.46608e-10
1.46608e-10
1.46608e-10
1.46608e-10
1.46608e-10
1.46608e-10
1.46608e-10
1.46608e-10
1.46608e-10
1.46608e-10
1.46608e-10
1.46608e-10
1.46608e-10
1.46608e-10
1.46608e-10
1.46608e-10
1.46608e-10
1.46608e-10
1.46608e-10
1.46608e-10
1.46608e-10
1.46608e-10
1.46608e-10
1.46608e-10
1.46608e-10
1.46608e-10
1.46608e-10
1.46608e-10
1.46608e-10
1.46608e-10
1.46608e-10
1.46608e-10
1.46608e-10
1.46608e-10
1.46608e-10
1.46608e-10
1.46608e-10
1.46608e-10
1.46608e-10
1.46608e-10
1.46608e-10
1.46608e-10
1.46608e-10
1.46608e-10
1.46608e-10
1.46608e-10
1.46608e-10
1.46608e-10
1.46608e-10
1.46608e-10
1.46608e-10
1.46608e-10
1.46608e-10
1.46608e-10
1.46608e-10
1.46608e-10
1.46608e-10
1.46608e-10
1.46608e-10
1.46608e-10
1.46608e-10
1.46608e-10
1.46608e-10
1.46608e-10
1.46608e-10
1.46608e-10
1.46608e-10
1.46608e-10
1.46608e-10
1.46608e-10
1.46608e-10
1.46608e-10
1.46608e-10
1.46608e-10
1.46608e-10
1.46608e-10
1.46608e-10
1.46608e-10
1.46608e-10
1.46608e-10
1.46608e-10
1.46608e-10
1.46608e-10
1.46608e-10
1.46608e-10
1.46608e-10
1.46608e-10
1.46608e-10
1.46608e-10
1.46608e-10
1.46608e-10
1.46608e-10
1.46608e-10
1.46608e-10
1.46608e-10
1.46608e-10
1.46608e-10
1.46608e-10
1.46608e-10
1.46608e-10
1.46608e-10
1.46608e-10
1.46608e-10
1.46608e-10
1.46608e-10
1.46608e-10
1.46608e-10
1.46608e-10
1.46608e-10
1.46608e-10
1.46608e-10
1.46608e-10
1.46608e-10
1.46608e-10
1.46608e-10
1.46608e-10
1.46608e-10
1.46608e-10
1.46608e-10
1.46608e-10
1.46608e-10
1.46608e-10
1.46608e-10
1.46608e-10
1.46608e-10
1.46608e-10
1.46608e-10
1.46608e-10
1.46608e-10
1.46608e-10
1.46608e-10
1.46608e-10
1.46608e-10
1.46608e-10
1.46608e-10
1.46608e-10
1.46608e-10
1.46608e-10
1.46608e-10
1.46608e-10
1.46608e-10
1.46608e-10
1.46608e-10
1.46608e-10
1.46608e-10
1.46608e-10
1.46608e-10
1.46608e-10
1.46608e-10
1.46608e-10
1.46608e-10
1.46608e-10
1.46608e-10
1.46608e-10
1.46608e-10
1.46608e-10
1.46608e-10
1.46608e-10
1.46608e-10
1.46608e-10
1.46608e-10
1.46608e-10
1.46608e-10
1.46608e-10
1.46608e-10
1.46608e-10
1.46608e-10
1.46608e-10
1.46608e-10
1.46608e-10
1.46608e-10
1.46608e-10
1.46608e-10
1.46608e-10
1.46608e-10
1.46608e-10
1.46608e-10
1.46608e-10
1.46608e-10
1.46608e-10
1.46608e-10
1.46608e-10
1.46608e-10
1.46608e-10
1.46608e-10
1.46608e-10
1.46608e-10
1.46608e-10
1.46608e-10
1.46608e-10
1.46608e-10
1.46608e-10
1.46608e-10
1.46608e-10
1.46608e-10
1.46608e-10
1.46608e-10
1.46608e-10
1.46608e-10
1.46608e-10
1.46608e-10
1.46608e-10
1.46608e-10
1.46608e-10
1.46608e-10
1.46608e-10
1.46608e-10
1.46608e-10
1.46608e-10
1.46608e-10
1.46608e-10
1.46608e-10
1.46608e-10
1.46608e-10
1.46608e-10
1.46608e-10
1.46608e-10
1.46608e-10
1.46608e-10
1.46608e-10
1.46608e-10
1.46608e-10
1.46608e-10
1.46608e-10
1.46608e-10
1.46608e-10
1.46608e-10

VECTORS velocity float
0.00614146 -0.000405925 0.000408267
0.00570243 -0.000882201 -0.000924658
0.00613346 -9.04678e-05 0.000438565
0.00574902 -0.000768257 0.000412915
0.00608959 -0.000413601 0.000374064
0.00572457 0.00119498 -0.00040266
0.00607855 -0.000340766 0.000491198
0.00610114 -0.000465146 0.000353621
0.00588085 0.00111888 -0.000533308
0.00560688 -0.000237567 0.000395111
0.00575247 -0.000627396 -0.00137832
0.00571144 -1.35349e-05 7.55078e-05
0.00585281 -0.000363457 0.000309435
0.00637994 6.4097e-05 -9.00122e-05
0.00570331 -0.000940505 0.000463079
0.00594072 0.000188319 0.000252663
0.00584435 -0.000713219 -0.00101421
0.00601628 -0.000383588 0.000347949
0.00553767 -0.000235439 0.000389811
0.00550311 -0.000577863 0.000176699
0.00578626 0.000160412 0.000136502
0.00586775 0.00112316 -0.000534583
0.0060226 -0.000325557 0.000489694
0.00587621 0.00117939 -0.000370302
0.00596494 -5.5603e-05 -6.84519e-05
0.00573118 -0.000825508 0.000344885
0.00606082 -0.000334593 0.000494859
0.00537965 -0.00073683 0.0014247
0.00599698 -0.000328636 0.000475409
0.00540792 -0.000487302 0.000107196
0.00576258 0.00119107 -0.000394768
0.00609116 -0.000333666 0.000495208
0.00531315 -0.000818908 0.000379255
0.00587618 0.00112127 -0.000534293
0.00567213 -0.000784626 0.00148655
0.00556112 -0.000951379 0.00146222
0.0058594 0.00112513 -0.000534933
0.00565588 -0.000683252 -0.000902188
4.57363e-16 2.25543e-15 8.4636e-14
0.00516284 -0.00116019 -0.000903521
0.00580023 0.0011873 -0.000386401
0.00622094 -0.000366557 0.000461683
0.00572748 -0.000779654 0.00151225
0.00591098 -0.000311706 0.000452643
0.00595596 -0.000324295 0.000462284
0.0060829 -0.000319917 -7.01331e-05
0.00588455 0.00111943 -0.000534017
0.00581521 -0.000723199 0.00154943
0.00597497 -0.000276992 -0.000151127
0.00572141 -0.000786138 0.00153519
0.00583854 0.00118326 -0.000378096
0.00555681 -0.000520221 0.000115687
0.00539178 -0.00022809 0.000374106
0.00588146 -0.00108785 -0.000992328
0.00553991 -0.000931494 0.000466575
0.00585096 0.00112709 -0.000535241
0.00566532 0.000124811 0.000153714
0.00593069 -0.000276222 -0.000151981
0.00566069 -0.000617107 -0.00110942
0.00541972 -0.000491429 0.000124588
0.00579446 -0.000705115 0.00152277
0.00587318 0.00112302 -0.000534304
0.00609291 -0.000308209 -9.70599e-05
0.00581372 -0.00076859 0.000164732
0.00571949 -0.000795918 0.00151509
0.00573809 -0.000659304 -0.000931601
0.00622025 -0.000159015 -4.87857e-05
0.00528082 -0.000805419 0.000367672
0.00635895 2.53853e-05 -8.2535e-05
0.00601624 -0.000341907 -4.82785e-05
0.00555402 -0.00063847 -0.000872507
0.00586625 0.000212157 0.00024929
0.00575808 7.81486e-05 0.000177363
0.00629754 -3.29404e-05 -6.9682e-05
0.00589307 0.00111767 -0.000533689
0.00615774 -0.000101212 0.000444005
0.00554013 -0.000662905 -0.000873745
0.00613423 -0.000759448 -0.000963902
0.0054406 -0.00020501 0.000355202
0.00599177 -0.000724599 -0.000919527
0.00568688 -0.00067742 -0.000237698
0.00617857 -0.000148594 -5.13834e-05
0.00550733 -0.000610671 -0.000862979
0.00588271 -0.000296192 0.000443582
0.005739 -0.000617918 0.00035833
0.00553246 -0.00045124 0.000224194
0.00580359 -0.000273284 0.000422197
0.00550373 0.000135371 0.000128463
0.00569374 -0.00067473 2.99361e-05
0.00554349 0.000164893 0.00024144
0.00581014 -0.000896861 -0.000949884
0.00603634 -0.000277782 -4.40236e-06
4.32324e-15 1.0452e-14 8.29631e-14
-7.91558e-23 2.24983e-22 1.23839e-22
0.00637655 0.000236961 0.000264129
0.00603718 4.82777e-05 0.000348971
0.00593858 -7.20342e-05 0.000414133
0.00576092 -3.89214e-05 0.000383767
0.00577931 -0.000678394 0.00152523
0.00543369 -0.000915837 0.000458771
0.00566049 -0.000238444 0.000390953
0.00554916 -0.000443397 0.000228551
0.00630815 -7.66831e-05 5.5766e-05
0.00549542 0.000170954 0.000180279
0.00631843 -4.50798e-05 -6.72718e-05
0.00567673 -0.000803941 0.000410247
0.0058189 -0.000759364 0.00128341
0.00567507 -0.000794963 0.0014986
0.00566799 0.000400896 0.000120754
0.00538505 -0.000825201 0.00035835
0.00604057 -0.000324779 0.00049929
0.00614887 -0.000345439 0.000487001
0.00547679 -0.000241919 0.000383898
0.00560024 0.000194399 0.000238333
0.00551951 -0.000322976 0.000284889
0.00553995 -0.00094763 0.00146331
0.00541411 -0.000226067 0.000374529
0.006035 3.59736e-05 0.00034186
0.00545588 -0.000240169 0.000377923
0.00573503 -0.000644023 -0.0010835
0.0060763 -9.13859e-05 0.000435206
0.00582048 -0.000680568 -0.000557445
0.00561855 -0.000491432 6.95971e-05
0.00542974 -0.000230477 0.00037545
0.00593224 -0.000360173 0.000326942
0.00560225 -0.000236536 0.000200688
0.00588054 -0.000301393 0.000447425
0.00581091 -0.00084104 0.00153442
0.00561455 -0.000606655 0.000192734
0.00628091 -7.41886e-05 -7.418e-05
0.00558408 0.000190527 0.000238771
0.00602307 -0.000285358 -0.000135071
0.00632697 0.000215965 0.000268581
0.00638293 3.40988e-05 -8.2947e-05
0.00554619 0.000162459 0.000251412
0.0053995 -0.000199209 0.000351114
8.38543e-15 1.24718e-15 -8.48743e-14
0.00554671 0.000172087 0.000248744
0.00574673 0.000182353 0.000240126
0.00566645 0.000370078 0.000136979
0.00563077 0.000101937 0.000292762
0.00630033 -1.09063e-05 0.000256486
-3.83164e-14 8.1658e-14 2.95892e-13
0.00620053 -0.000122736 -5.4603e-05
0.00603938 -0.000892129 -0.000992189
0.00630969 0.000292497 0.000250808
0.00581353 0.000231486 0.000252083
0.00551467 0.000165469 0.000251195
0.00620559 6.00081e-05 0.000357364
0.00576943 -0.0006536 0.001522
0.0055503 0.000170686 0.000243006
0.00594498 0.000199438 0.000249763
0.00613531 -3.93232e-05 0.000407686
0.0052989 -0.000716036 0.00139698
0.00612178 7.82878e-05 0.000338228
0.00568788 -0.000664516 -0.000907911
0.0057146 7.55279e-05 0.000313651
0.00567024 0.000148394 0.000200478
0.00556546 0.000159594 0.000254571
0.00557241 0.000175157 0.000247946
0.00566558 0.000394579 0.000123301
0.00631013 -5.83418e-05 -6.41131e-05
0.00562673 -0.000614401 -0.000662538
0.00603654 3.28564e-06 0.000375687
0.00558892 -0.000456398 0.000221091
0.00553431 0.00016532 0.000249857
0.00549763 -0.000233667 0.000378211
0.00542644 -0.0004915 0.000116931
0.00586229 -0.000665017 -0.000864513
0.0062533 -0.000301496 8.45424e-05
0.00546673 -0.000506068 0.000121354
0.0059301 0.000108896 0.000308019
0.00549704 -0.00081508 0.000389133
1.45484e-15 -1.10176e-14 8.6669e-14
0.00622856 -9.48159e-05 -5.96096e-05
0.00568312 0.000128258 0.000151968
0.00564799 8.37716e-05 0.000229459
0.00561558 -0.000248917 0.000200891
0.00628646 -0.000135292 -5.6503e-05
0.00545568 0.000161989 0.000127332
0.00629684 -3.73346e-05 0.00024866
0.00556212 -0.000222123 0.000372878
0.00603322 -0.000319052 -5.45921e-05
0.00623677 -4.07119e-05 0.000403373
0.00550372 8.40498e-05 0.000105401
0.00555472 0.000176327 0.000245436
0.00622612 6.90852e-05 0.000381148
0.00618438 0.00212951 -0.00132643
0.00557273 -0.000236192 0.000396807
0.0054715 -0.00022659 0.000370215
0.00624743 -5.35722e-05 -7.47237e-05
0.00581687 -0.000827152 0.0013784
0.00540751 -0.000204066 0.000355548
0.00625828 -0.000305884 8.48022e-05
0.00628408 -3.63471e-06 0.000400781
0.00569425 -0.000796445 0.00150465
0.00574749 9.0104e-05 0.000203062
0.00548577 -0.000207857 0.000357809
0.00615584 -8.85401e-05 -3.88205e-05
0.00587879 0.000428489 -0.00017817
0.00551075 -0.000585334 -0.00110428
0.00637685 0.000281325 0.000237012
-0.0278966 0.0284334 -0.00680159
0.00553291 -0.000520253 0.000128047
0.00556629 0.000181212 0.000243953
0.00627179 -0.00029045 -3.24475e-05
0.00565215 0.000123916 0.00021066
0.00625404 -5.26823e-05 -6.58458e-05
0.00556825 0.000143302 0.000137692
0.00565201 0.000171132 0.000188716
0.0062813 -0.000171433 -4.28677e-05
0.00578015 -0.000690018 -0.000667036
0.00621247 -5.58902e-05 0.000424329
0.00573 0.000106674 0.000166829
0.0057547 8.73838e-05 0.000180576
0.00563977 -4.89462e-05 -0.000265471
0.00566942 -2.95573e-05 -0.000287589
0.00556004 0.000101027 -0.000129676
0.00561173 0.000219584 0.000222598
0.00565929 -1.9688e-05 -0.000302512
0.00565606 0.000191086 0.000176695
0.00600243 0.000488258 -0.00015805
0.00546989 0.000164111 0.000119149
0.00627172 -0.000306399 8.10872e-05
0.00554596 0.000163161 0.000251865
0.00551813 -0.000210813 0.000365287
0.00563903 4.02272e-05 0.000249351
0.00624113 -0.000301686 -0.000120729
0.00564678 0.000224657 0.000161939
0.00631865 8.06521e-05 -8.8559e-05
0.00575065 0.000133386 0.000281582
0.00561781 0.000150155 0.000264072
0.00560137 0.000179115 0.000246338
0.00561877 1.94364e-05 0.000263865
0.00550503 0.000174218 0.000242386
0.00576272 8.11531e-05 0.000183388
0.00562749 0.000244948 0.000162435
0.00574568 0.000173513 0.000242502
0.00564627 0.000107851 0.000218015
0.00564644 0.000379778 0.00012924
0.00560157 0.000146081 0.000135929
0.00549689 0.000182539 0.000228772
0.00559311 0.000154815 0.000259788
0.00541382 -0.000204717 0.000357655
0.00580744 4.35049e-05 -0.000364469
0.00606722 -0.000178886 0.000108587
0.00577859 7.92859e-05 0.000198199
0.00571042 -1.67419e-05 0.000269812
0.0054863 0.000136002 0.000193864
0.00552439 0.000166406 0.000250146
0.00562813 0.000237325 0.00021355
0.00561734 -0.000104488 -5.36289e-05
0.00625983 -0.000274953 -2.79289e-05
0.0055864 -8.82625e-05 -0.000226891
0.005532 0.000164406 0.000247196
0.00587307 3.59544e-05 0.000347563
0.00626484 -6.02362e-05 -6.32327e-05
0.00565726 0.000145644 0.000269076
0.00558145 0.000158075 0.000257249
0.0057893 0.000126018 0.000157801
0.00633333 4.53591e-06 -8.02054e-05
0.00557861 0.000177764 0.000245656
0.00629485 -9.64972e-05 -6.38966e-05
0.00605083 -7.73119e-05 0.000143972
0.0057902 7.17611e-05 0.000185056
0.00627709 -0.0003012 -3.35223e-05
0.00575786 9.03507e-05 0.000177996
0.00588085 -0.000834411 0.000964224
0.00561973 -7.98444e-06 -0.00029524
0.00563725 5.98675e-05 0.000240013
0.00542889 -0.000209884 0.000360375

VECTORS force float
1.28406e-10 -1.09508e-11 3.89288e-11
-1.89647e-10 -2.05097e-10 -6.05824e-12
6.33877e-11 2.77426e-10 -2.33704e-10
2.4505e-10 -1.34428e-11 -6.13661e-11
2.82315e-11 6.82579e-11 6.57328e-11
-1.49979e-12 -6.01085e-12 5.8283e-12
9.4749e-11 7.30513e-11 -5.50762e-11
3.98797e-11 -3.38653e-11 7.1865e-11
1.8378e-10 -9.77495e-11 3.27306e-11
1.99598e-11 6.20821e-11 4.24354e-11
1.28837e-10 -5.22598e-10 -5.77669e-10
-1.0571e-10 -1.91532e-10 -7.31192e-11
3.68362e-11 -4.97197e-12 1.0838e-10
-3.14492e-11 -1.26766e-10 1.27318e-10
4.94281e-10 -1.41948e-10 7.78995e-11
-5.55053e-11 6.53384e-11 3.69017e-11
-1.4413e-10 2.2463e-11 -5.06348e-10
5.61108e-12 -2.73881e-11 8.85774e-11
7.9233e-11 8.54105e-11 2.18784e-10
3.03853e-10 -3.06992e-10 1.64762e-10
-3.25534e-10 4.34984e-12 -3.56769e-11
-3.86326e-13 -2.37375e-12 1.6478e-12
-5.60697e-11 1.28335e-10 -7.12315e-11
1.07833e-12 1.02121e-12 -6.22326e-13
-5.19748e-10 2.55307e-10 1.91877e-10
6.55976e-10 1.94245e-10 1.49151e-10
9.03609e-11 7.50701e-11 -5.93158e-11
1.20405e-10 -1.36852e-10 -1.01778e-11
1.08685e-11 1.01362e-10 -7.42094e-11
3.45818e-10 -1.47846e-10 1.02605e-10
-2.88929e-12 -4.29529e-12 3.02595e-12
2.10932e-11 8.79181e-11 -5.68173e-11
3.42639e-10 1.6041e-10 -1.5923e-10
-1.09337e-12 -3.23519e-12 9.44606e-14
-3.80699e-10 -2.95692e-10 -3.38904e-10
1.04461e-10 7.60562e-11 8.59925e-11
-5.81771e-13 -2.52333e-12 -3.00428e-16
-1.11635e-10 -3.86393e-11 2.69616e-11
-1.20426e-23 -1.22785e-24 0.0
5.15742e-10 -2.26448e-10 -2.83846e-10
-1.69907e-13 -3.24111e-12 2.53788e-13
6.4743e-11 2.64867e-11 -2.13441e-11
-1.05789e-10 -9.531e-11 -1.79729e-10
-2.20654e-10 1.64323e-10 -9.35867e-11
-3.07481e-11 9.80025e-11 -7.26626e-11
2.34474e-10 1.08446e-10 -3.18151e-10
-9.11938e-13 -2.41569e-12 2.10375e-12
2.68606e-10 3.27106e-10 2.62442e-10
-1.18208e-10 1.12894e-10 -3.83161e-10
-5.57539e-11 -2.19145e-10 -5.42506e-10
-2.35607e-12 2.35957e-12 1.00526e-12
1.16408e-11 4.19707e-11 7.89746e-11
-3.19208e-10 -2.1551e-10 1.75652e-10
-2.59475e-10 -6.31012e-11 6.1973e-11
7.17117e-11 4.39568e-11 -8.72094e-11
-1.35527e-12 -3.03626e-12 1.32224e-12
6.44157e-11 1.17238e-10 -6.7576e-11
1.30164e-10 1.58907e-10 -4.6911e-10
-9.08911e-11 1.1528e-10 -2.7168e-10
1.87617e-10 -7.76435e-12 9.52655e-12
1.54974e-10 2.62093e-10 3.73782e-11
5.10707e-11 -1.743e-11 2.55491e-12
2.7634e-10 7.04612e-11 -3.11234e-10
-9.43856e-12 3.7732e-11 9.32759e-12
2.64704e-11 7.88387e-11 2.56023e-11
-1.64995e-10 4.93568e-11 2.52802e-10
-1.76099e-10 2.39041e-10 -1.24932e-12
-1.40097e-10 3.76777e-12 -1.28582e-10
2.27779e-10 3.54289e-11 2.56992e-11
7.3054e-11 -3.127e-10 -1.06776e-10
-1.61156e-10 3.85905e-11 -2.03285e-11
-3.33422e-12 1.85061e-11 1.58987e-11
-8.73452e-11 -1.35178e-10 1.94711e-11
5.88137e-11 -1.91862e-10 -4.0508e-11
5.01273e-12 -1.27863e-11 4.10776e-12
-1.55925e-10 -1.69776e-11 3.83954e-11
-2.33265e-10 -4.69029e-11 -7.08236e-12
2.08109e-10 -1.84022e-11 5.74328e-11
-4.66201e-11 -1.18194e-10 5.27634e-11
-1.5811e-12 -1.40148e-11 -5.62733e-11
6.061e-10 1.68554e-10 3.64986e-11
1.7696e-10 -3.65468e-10 -1.13177e-10
1.51732e-10 7.2604e-11 1.55799e-10
4.30319e-11 1.68871e-10 -6.44473e-11
8.75485e-11 -8.99976e-11 1.54042e-10
-2.35839e-10 9.99042e-11 4.03654e-10
2.51393e-10 1.20428e-10 -5.74401e-11
-6.42763e-11 2.11469e-10 -2.62604e-10
6.4974e-10 4.00993e-10 7.72742e-11
-2.31162e-12 -4.7983e-11 9.0466e-11
-1.66693e-10 2.07128e-12 1.49852e-10
5.86607e-11 -4.23471e-10 -1.45457e-10
-1.67199e-21 1.04887e-21 -5.16988e-23
0.0 0.0 0.0
3.29813e-10 -2.72418e-10 1.79019e-10
5.24569e-10 -5.12798e-10 3.79754e-10
-7.96844e-11 -3.35043e-10 1.72347e-10
-2.43389e-10 -3.58594e-10 2.04171e-10
2.81759e-11 3.62511e-10 -6.72125e-11
-1.87303e-10 2.42359e-10 -1.29616e-10
2.27772e-10 9.45238e-11 -5.72673e-11
-9.66371e-12 -7.37755e-11 2.90268e-10
7.03991e-11 6.26975e-11 1.80632e-10
2.63241e-10 2.04394e-10 2.88265e-10
1.37038e-10 1.62078e-10 -3.24528e-11
2.86138e-10 -2.79803e-10 8.06186e-11
6.77931e-11 3.08194e-10 1.24426e-09
2.10744e-11 -2.47189e-10 2.66183e-11
3.05044e-11 6.85981e-11 -2.68964e-11
-1.1502e-10 -3.37878e-11 4.67313e-11
1.50051e-11 1.03067e-10 -6.20672e-11