# vtk DataFile Version 3.0
LIGGGHTS particles timestep 31000000
ASCII
DATASET POLYDATA
POINTS 271 float
0.19322 0.0153466 0.00871574
0.194104 0.0178076 0.00700553
0.188171 0.0177014 0.00701238
0.19414 0.0175573 0.00708351
0.193194 0.015284 0.00878914
0.199662 0.0170177 0.00743184
0.193306 0.0156407 0.00845949
0.193173 0.0152407 0.00887681
0.199777 0.0175238 0.00713104
0.193761 0.017437 0.00712883
0.193895 0.0176542 0.00705791
0.187316 0.0156476 0.00838262
0.193112 0.015141 0.00915317
0.187977 0.0184468 0.0069037
0.19412 0.0174681 0.00712453
0.188074 0.0184786 0.00689699
0.194159 0.0176507 0.00705375
0.193155 0.0152072 0.00896939
0.193721 0.0172565 0.00720525
0.193931 0.0174084 0.00714837
0.187554 0.0162005 0.00794179
0.199855 0.0178798 0.00697554
0.193367 0.0158634 0.00826796
0.199739 0.0173537 0.00722889
0.188287 0.0178287 0.00699087
0.194065 0.0176209 0.00706558
0.193323 0.0157146 0.00839426
0.19382 0.0177175 0.0070395
0.19339 0.0159376 0.008205
0.193813 0.0168705 0.00739148
0.199681 0.0171017 0.00738109
0.19328 0.0155659 0.00852044
0.193967 0.0171702 0.00725758
0.199835 0.0177832 0.00699264
0.194015 0.0182168 0.00688928
0.194081 0.0185107 0.0068851
0.199874 0.0179764 0.00695843
0.194179 0.0177441 0.00702399
0.321436 0.0173475 0.00552525
0.194084 0.0177142 0.00703529
0.1997 0.0171857 0.00733035
0.193237 0.015417 0.00864679
0.194059 0.018413 0.00688649
0.193434 0.0160906 0.00808432
0.19341 0.0160125 0.0081418
0.187232 0.0154694 0.00873044
0.199816 0.0176941 0.00703355
0.193898 0.0180912 0.00692047
0.187169 0.0153356 0.00899143
0.194037 0.0183154 0.00688788
0.199719 0.0172697 0.00727962
0.193911 0.0173177 0.00718543
0.1937 0.0167615 0.0074575
0.194303 0.0183094 0.00689125
0.1941 0.0173791 0.00716553
0.199894 0.018073 0.00694133
0.1875 0.0163371 0.00785138
0.187148 0.0152911 0.00907843
0.194048 0.0179644 0.00695733
0.193853 0.0170504 0.00730859
0.193918 0.0181846 0.00689071
0.199758 0.0174387 0.00717978
0.187211 0.0154248 0.00881744
0.193954 0.0179344 0.00696863
0.193983 0.0184783 0.00688445
0.194112 0.0182495 0.00688992
0.188202 0.0182503 0.00692892
0.193986 0.0172592 0.00721654
0.187955 0.0183502 0.00691871
0.187274 0.0155606 0.00855756
0.194144 0.0179942 0.00694606
0.188096 0.0185751 0.006882
0.187337 0.0156983 0.00829906
0.18801 0.0181891 0.00694195
0.199797 0.0176089 0.00708231
0.188192 0.0177981 0.00699738
0.194199 0.0178375 0.00699425
0.194156 0.0184447 0.00688714
0.193588 0.0166675 0.00755286
0.194134 0.0183471 0.00688853
0.193989 0.0176842 0.0070466
0.188234 0.0179913 0.00696739
0.194091 0.0181536 0.00690853
0.193474 0.0162355 0.00795249
0.193875 0.0175608 0.00708781
0.193836 0.0173778 0.0071581
0.193491 0.0163126 0.0078914
0.187616 0.0164487 0.0077844
0.19397 0.0175908 0.00707651
0.187713 0.0168628 0.00752153
0.194208 0.0182794 0.00689059
0.187299 0.0156026 0.00847018
0.0643568 0.0187248 0.00531097
0.24257 0.0191927 0.00520306
0.187908 0.0177081 0.00702864
0.188246 0.0176397 0.00703848
0.188133 0.0175305 0.00710909
0.188113 0.0174464 0.00716245
0.193939 0.0182825 0.00688723
0.194081 0.01729 0.00720657
0.193513 0.0163844 0.00782535
0.193816 0.0172871 0.00719533
0.187967 0.017996 0.00697203
0.18758 0.016668 0.00764139
0.187934 0.0182537 0.0069337
0.194045 0.0175284 0.00709807
0.193879 0.0179977 0.00695022
0.194027 0.0186736 0.00688167
0.187773 0.0175004 0.00712149
0.194006 0.0173483 0.00717551
0.193345 0.015789 0.00833108
0.193259 0.0154916 0.00858394
0.193777 0.0171089 0.00727743
0.187734 0.0173309 0.00722053
0.193797 0.017198 0.00723638
0.194102 0.0186083 0.00688371
0.193718 0.0168417 0.00740048
0.188267 0.017732 0.00700587
0.193758 0.0170198 0.00731848
0.193914 0.0177476 0.00702815
0.188151 0.0176137 0.00705621
0.194009 0.0177776 0.00701684
0.19378 0.0175306 0.00709904
0.19374 0.0169339 0.00736695
0.193133 0.0151742 0.00906102
0.187999 0.0185437 0.00688865
0.193452 0.0161609 0.00801547
0.193859 0.0179043 0.00697998
0.19395 0.0174972 0.00710614
0.187988 0.0180926 0.00695694
0.187715 0.0172479 0.0072732
0.18719 0.0153802 0.00890443
0.187831 0.0177674 0.00700305
0.188053 0.0183821 0.00691198
0.187808 0.0168915 0.0075071
0.193606 0.0167432 0.00749017
0.0100679 0.0201683 0.00551526
0.187676 0.0170822 0.00737839
0.188042 0.0187367 0.00685867
0.187792 0.0175862 0.00707329
0.187998 0.0173345 0.00722969
0.187946 0.0178996 0.00698879
0.0219312 0.0187687 0.00551176
0.188181 0.0181538 0.00694391
0.19423 0.0183771 0.0068892
0.187812 0.0176719 0.00702548
0.188118 0.0186715 0.00686702
0.187675 0.0166971 0.00762673
0.188001 0.0177363 0.0070091
0.193961 0.0183806 0.00688584
0.187732 0.0169456 0.00746893
0.188171 0.0185094 0.00689043
0.188076 0.0176707 0.0070199
0.193839 0.0178109 0.00700974
0.187982 0.0176421 0.00703794
0.194124 0.017901 0.00697578
0.188018 0.0174173 0.00717714
0.181692 0.0171316 0.00727595
0.187846 0.0170572 0.0074019
0.187771 0.0171113 0.00736372
0.187848 0.0174427 0.00715336
0.188128 0.0183163 0.00692043
0.1938 0.017624 0.00706926
0.188057 0.0175845 0.00707216
0.193856 0.0174685 0.00712088
0.187657 0.0169994 0.00743099
0.193702 0.0171674 0.0072463
0.193834 0.0169612 0.00734977
0.194029 0.017871 0.00698708
0.181979 0.0184557 0.00696831
0.193872 0.0171395 0.00726752
0.187963 0.0175572 0.00709152
0.194025 0.0174374 0.00713447
0.161461 0.0182058 0.00533758
0.188159 0.0180573 0.00695889
0.187575 0.016283 0.00788947
0.181751 0.0173947 0.00714439
0.18802 0.0186402 0.00687366
0.187912 0.0181567 0.00694876
0.187561 0.0165852 0.00769396
0.188042 0.01793 0.00698042
0.193531 0.0164567 0.00775855
0.187254 0.0155138 0.00864359
0.188117 0.0178641 0.0069889
0.187636 0.0165314 0.00773189
0.187751 0.0170285 0.00741632
0.187927 0.0178024 0.0070015
0.184758 0.0177032 0.00708023
0.193741 0.0173456 0.0071642
0.193683 0.0170783 0.00728735
0.188063 0.0180267 0.00696542
0.193994 0.018121 0.00690917
0.193625 0.0168246 0.0074354
0.181958 0.0183592 0.00698315
0.188022 0.0178335 0.00699705
0.194005 0.0185759 0.00688306
0.187359 0.0157648 0.00822745
0.19357 0.0165965 0.00762114
0.188138 0.0179607 0.00697389
0.247811 0.0176545 0.00704009
0.194069 0.0180586 0.00693094
0.187887 0.0176162 0.00706256
0.0939243 0.0172814 0.00802192
0.193891 0.0172286 0.00722648
0.187695 0.0171651 0.0073258
0.181893 0.0180697 0.00702766
0.181712 0.0172193 0.00723211
0.188106 0.0182198 0.00693542
0.18752 0.0164198 0.00779886
0.181675 0.0170461 0.00732483
0.18789 0.0180601 0.00696377
0.193934 0.017841 0.00699839
0.188096 0.0177673 0.0070039
0.187479 0.0162545 0.00790371
0.187439 0.0160912 0.00801184
0.181521 0.0164253 0.00779608
0.18154 0.0164981 0.00773026
0.181596 0.0167168 0.00753277
0.187753 0.0174145 0.00716912
0.181559 0.016571 0.00766445
0.181653 0.0169564 0.00736354
0.188298 0.01828 0.00692256
0.18754 0.0165025 0.00774643
0.181936 0.0182627 0.00699799
0.187827 0.0169744 0.00745451
0.193551 0.0165283 0.00769157
0.18179 0.0175861 0.00710172
0.182001 0.0185521 0.00695347
0.181635 0.0168711 0.00741233
0.18785 0.0178665 0.00699423
0.187943 0.0174724 0.00714073
0.187904 0.0173058 0.00724418
0.187809 0.017277 0.00725852
0.181809 0.0176831 0.00708694
0.187619 0.0168337 0.0075362
0.187418 0.0160075 0.00806223
0.181615 0.0167897 0.00746692
0.188064 0.0188332 0.00684369
0.181731 0.017307 0.00718825
0.187867 0.0175275 0.007104
0.187595 0.0163659 0.0078369
0.187599 0.0167508 0.0075888
0.187885 0.0172229 0.00729672
0.193644 0.0169078 0.0073833
0.188149 0.0184129 0.00690542
0.181849 0.0178767 0.00705733
0.187377 0.0158414 0.00816571
0.181828 0.0177801 0.00707216
0.187655 0.0166143 0.00767932
0.187638 0.0169165 0.0074836
0.187828 0.0173599 0.00720594
0.188224 0.0183468 0.00691393
0.181871 0.0179732 0.0070425
0.181501 0.0163525 0.00786181
0.187694 0.0167799 0.00757413
0.188038 0.0175002 0.00712449
0.188084 0.0181233 0.00695042
0.187923 0.0173886 0.00719152
0.187865 0.0171401 0.0073493
0.187534 0.0161178 0.00799421
0.188031 0.0182856 0.00692697
0.18779 0.0171942 0.00731112
0.18787 0.0179634 0.00697877
0.188212 0.0178948 0.00698238
0.187397 0.0159243 0.00811375
0.181914 0.0181662 0.00701282
0.187459 0.0161719 0.0079561
0.193973 0.0180279 0.00693887
0.181578 0.0166438 0.00759865
0.18177 0.0174896 0.00711951
0.193663 0.0169892 0.00732839

VERTICES 271 542
1 0
1 1
1 2
1 3
1 4
1 5
1 6
1 7
1 8
1 9
1 10
1 11
1 12
1 13
1 14
1 15
1 16
1 17
1 18
1 19
1 20
1 21
1 22
1 23
1 24
1 25
1 26
1 27
1 28
1 29
1 30
1 31
1 32
1 33
1 34
1 35
1 36
1 37
1 38
1 39
1 40
1 41
1 42
1 43
1 44
1 45
1 46
1 47
1 48
1 49
1 50
1 51
1 52
1 53
1 54
1 55
1 56
1 57
1 58
1 59
1 60
1 61
1 62
1 63
1 64
1 65
1 66
1 67
1 68
1 69
1 70
1 71
1 72
1 73
1 74
1 75
1 76
1 77
1 78
1 79
1 80
1 81
1 82
1 83
1 84
1 85
1 86
1 87
1 88
1 89
1 90
1 91
1 92
1 93
1 94
1 95
1 96
1 97
1 98
1 99
1 100
1 101
1 102
1 103
1 104
1 105
1 106
1 107
1 108
1 109
1 110
1 111
1 112
1 113
1 114
1 115
1 116
1 117
1 118
1 119
1 120
1 121
1 122
1 123
1 124
1 125
1 126
1 127
1 128
1 129
1 130
1 131
1 132
1 133
1 134
1 135
1 136
1 137
1 138
1 139
1 140
1 141
1 142
1 143
1 144
1 145
1 146
1 147
1 148
1 149
1 150
1 151
1 152
1 153
1 154
1 155
1 156
1 157
1 158
1 159
1 160
1 161
1 162
1 163
1 164
1 165
1 166
1 167
1 168
1 169
1 170
1 171
1 172
1 173
1 174
1 175
1 176
1 177
1 178
1 179
1 180
1 181
1 182
1 183
1 184
1 185
1 186
1 187
1 188
1 189
1 190
1 191
1 192
1 193
1 194
1 195
1 196
1 197
1 198
1 199
1 200
1 201
1 202
1 203
1 204
1 205
1 206
1 207
1 208
1 209
1 210
1 211
1 212
1 213
1 214
1 215
1 216
1 217
1 218
1 219
1 220
1 221
1 222
1 223
1 224
1 225
1 226
1 227
1 228
1 229
1 230
1 231
1 232
1 233
1 234
1 235
1 236
1 237
1 238
1 239
1 240
1 241
1 242
1 243
1 244
1 245
1 246
1 247
1 248
1 249
1 250
1 251
1 252
1 253
1 254
1 255
1 256
1 257
1 258
1 259
1 260
1 261
1 262
1 263
1 264
1 265
1 266
1 267
1 268
1 269
1 270

POINT_DATA 271
SCALARS id int 1
LOOKUP_TABLE default
1
2
3
4
5
6
7
8
9
10
11
12
13
14
15
16
17
19
21
22
23
24
25
26
27
28
29
30
31
32
33
34
35
36
37
38
39
41
42
44
45
47
48
50
51
52
53
54
55
56
57
59
61
62
63
64
65
66
67
68
69
70
71
72
73
74
76
77
78
79
80
81
82
83
84
85
86
87
88
89
90
91
92
93
94
95
96
97
98
99
100
101
102
103
104
105
106
107
108
109
110
111
112
113
114
115
116
117
118
119
120
121
122
123
124
125
126
127
128
129
131
132
133
134
135
136
137
138
140
141
142
143
144
147
148
149
150
151
153
154
155
156
157
158
159
160
162
164
165
166
168
169
170
171
172
173
174
175
177
178
179
181
182
183
184
186
187
188
189
190
191
192
193
194
195
196
197
198
199
201
202
203
204
205
206
207
208
209
210
211
212
213
214
215
216
217
218
219
220
221
222
223
224
225
226
227
228
229
230
231
232
234
235
236
237
239
240
241
242
244
246
247
248
249
250
251
252
253
254
255
256
257
258
259
261
262
263
264
265
266
267
268
269
270
271
272
273
274
275
276
277
278
280
283
284
285
286
287
288
289
290
291
292
293
294
295
296
297
298
299
300

SCALARS type int 1
LOOKUP_TABLE default
1
1
1
1
1
1
1
1
1
1
1
1
1
1
1
1
1
1
1
1
1
1
1
1
1
1
1
1
1
1
1
1
1
1
1
1
1
1
1
1
1
1
1
1
1
1
1
1
1
1
1
1
1
1
1
1
1
1
1
1
1
1
1
1
1
1
1
1
1
1
1
1
1
1
1
1
1
1
1
1
1
1
1
1
1
1
1
1
1
1
1
1
1
1
1
1
1
1
1
1
1
1
1
1
1
1
1
1
1
1
1
1
1
1
1
1
1
1
1
1
1
1
1
1
1
1
1
1
1
1
1
1
1
1
1
1
1
1
1
1
1
1
1
1
1
1
1
1
1
1
1
1
1
1
1
1
1
1
1
1
1
1
1
1
1
1
1
1
1
1
1
1
1
1
1
1
1
1
1
1
1
1
1
1
1
1
1
1
1
1
1
1
1
1
1
1
1
1
1
1
1
1
1
1
1
1
1
1
1
1
1
1
1
1
1
1
1
1
1
1
1
1
1
1
1
1
1
1
1
1
1
1
1
1
1
1
1
1
1
1
1
1
1
1
1
1
1
1
1
1
1
1
1
1
1
1
1
1
1
1
1
1
1
1
1
1
1
1
1
1
1

SCALARS radius float 1
LOOKUP_TABLE default
5e-05
5e-05
5e-05
5e-05
5e-05
5e-05
5e-05
5e-05
5e-05
5e-05
5e-05
5e-05
5e-05
5e-05
5e-05
5e-05
5e-05
5e-05
5e-05
5e-05
5e-05
5e-05
5e-05
5e-05
5e-05
5e-05
5e-05
5e-05
5e-05
5e-05
5e-05
5e-05
5e-05
5e-05
5e-05
5e-05
5e-05
5e-05
5e-05
5e-05
5e-05
5e-05
5e-05
5e-05
5e-05
5e-05
5e-05
5e-05
5e-05
5e-05
5e-05
5e-05
5e-05
5e-05
5e-05
5e-05
5e-05
5e-05
5e-05
5e-05
5e-05
5e-05
5e-05
5e-05
5e-05
5e-05
5e-05
5e-05
5e-05
5e-05
5e-05
5e-05
5e-05
5e-05
5e-05
5e-05
5e-05
5e-05
5e-05
5e-05
5e-05
5e-05
5e-05
5e-05
5e-05
5e-05
5e-05
5e-05
5e-05
5e-05
5e-05
5e-05
5e-05
5e-05
5e-05
5e-05
5e-05
5e-05
5e-05
5e-05
5e-05
5e-05
5e-05
5e-05
5e-05
5e-05
5e-05
5e-05
5e-05
5e-05
5e-05
5e-05
5e-05
5e-05
5e-05
5e-05
5e-05
5e-05
5e-05
5e-05
5e-05
5e-05
5e-05
5e-05
5e-05
5e-05
5e-05
5e-05
5e-05
5e-05
5e-05
5e-05
5e-05
5e-05
5e-05
5e-05
5e-05
5e-05
5e-05
5e-05
5e-05
5e-05
5e-05
5e-05
5e-05
5e-05
5e-05
5e-05
5e-05
5e-05
5e-05
5e-05
5e-05
5e-05
5e-05
5e-05
5e-05
5e-05
5e-05
5e-05
5e-05
5e-05
5e-05
5e-05
5e-05
5e-05
5e-05
5e-05
5e-05
5e-05
5e-05
5e-05
5e-05
5e-05
5e-05
5e-05
5e-05
5e-05
5e-05
5e-05
5e-05
5e-05
5e-05
5e-05
5e-05
5e-05
5e-05
5e-05
5e-05
5e-05
5e-05
5e-05
5e-05
5e-05
5e-05
5e-05
5e-05
5e-05
5e-05
5e-05
5e-05
5e-05
5e-05
5e-05
5e-05
5e-05
5e-05
5e-05
5e-05
5e-05
5e-05
5e-05
5e-05
5e-05
5e-05
5e-05
5e-05
5e-05
5e-05
5e-05
5e-05
5e-05
5e-05
5e-05
5e-05
5e-05
5e-05
5e-05
5e-05
5e-05
5e-05
5e-05
5e-05
5e-05
5e-05
5e-05
5e-05
5e-05
5e-05
5e-05
5e-05
5e-05
5e-05
5e-05
5e-05
5e-05
5e-05
5e-05
5e-05
5e-05
5e-05
5e-05
5e-05
5e-05
5e-05
5e-05
5e-05
5e-05
5e-05
5e-05
5e-05
5e-05
5e-05
5e-05
5e-05
5e-05
5e-05
5e-05
5e-05
5e-05
5e-05

SCALARS mass float 1
LOOKUP_TABLE default
1.46608e-10
1.46608e-10
1.46608e-10
1.46608e-10
1.46608e-10
1.46608e-10
1.46608e-10
1.46608e-10
1.46608e-10
1.46608e-10
1.46608e-10
1.46608e-10
1.46608e-10
1.46608e-10
1.46608e-10
1.46608e-10
1.46608e-10
1.46608e-10
1.46608e-10
1.46608e-10
1.46608e-10
1.46608e-10
1.46608e-10
1.46608e-10
1.46608e-10
1.46608e-10
1.46608e-10
1.46608e-10
1.46608e-10
1.46608e-10
1.46608e-10
1.46608e-10
1.46608e-10
1.46608e-10
1.46608e-10
1.46608e-10
1.46608e-10
1.46608e-10
1.46608e-10
1.46608e-10
1.46608e-10
1.46608e-10
1.46608e-10
1.46608e-10
1.46608e-10
1.46608e-10
1.46608e-10
1.46608e-10
1.46608e-10
1.46608e-10
1.46608e-10
1.46608e-10
1.46608e-10
1.46608e-10
1.46608e-10
1.46608e-10
1.46608e-10
1.46608e-10
1.46608e-10
1.46608e-10
1.46608e-10
1.46608e-10
1.46608e-10
1.46608e-10
1.46608e-10
1.46608e-10
1.46608e-10
1.46608e-10
1.46608e-10
1.46608e-10
1.46608e-10
1.46608e-10
1.46608e-10
1.46608e-10
1.46608e-10
1.46608e-10
1.46608e-10
1.46608e-10
1.46608e-10
1.46608e-10
1.46608e-10
1.46608e-10
1.46608e-10
1.46608e-10
1.46608e-10
1.46608e-10
1.46608e-10
1.46608e-10
1.46608e-10
1.46608e-10
1.46608e-10
1.46608e-10
1.46608e-10
1.46608e-10
1.46608e-10
1.46608e-10
1.46608e-10
1.46608e-10
1.46608e-10
1.46608e-10
1.46608e-10
1.46608e-10
1.46608e-10
1.46608e-10
1.46608e-10
1.46608e-10
1.46608e-10
1.46608e-10
1.46608e-10
1.46608e-10
1.46608e-10
1.46608e-10
1.46608e-10
1.46608e-10
1.46608e-10
1.46608e-10
1.46608e-10
1.46608e-10
1.46608e-10
1.46608e-10
1.46608e-10
1.46608e-10
1.46608e-10
1.46608e-10
1.46608e-10
1.46608e-10
1.46608e-10
1.46608e-10
1.46608e-10
1.46608e-10
1.46608e-10
1.46608e-10
1.46608e-10
1.46608e-10
1.46608e-10
1.46608e-10
1.46608e-10
1.46608e-10
1.46608e-10
1.46608e-10
1.46608e-10
1.46608e-10
1.46608e-10
1.46608e-10
1.46608e-10
1.46608e-10
1.46608e-10
1.46608e-10
1.46608e-10
1.46608e-10
1.46608e-10
1.46608e-10
1.46608e-10
1.46608e-10
1.46608e-10
1.46608e-10
1.46608e-10
1.46608e-10
1.46608e-10
1.46608e-10
1.46608e-10
1.46608e-10
1.46608e-10
1.46608e-10
1.46608e-10
1.46608e-10
1.46608e-10
1.46608e-10
1.46608e-10
1.46608e-10
1.46608e-10
1.46608e-10
1.46608e-10
1.46608e-10
1.46608e-10
1.46608e-10
1.46608e-10
1.46608e-10
1.46608e-10
1.46608e-10
1.46608e-10
1.46608e-10
1.46608e-10
1.46608e-10
1.46608e-10
1.46608e-10
1.46608e-10
1.46608e-10
1.46608e-10
1.46608e-10
1.46608e-10
1.46608e-10
1.46608e-10
1.46608e-10
1.46608e-10
1.46608e-10
1.46608e-10
1.46608e-10
1.46608e-10
1.46608e-10
1.46608e-10
1.46608e-10
1.46608e-10
1.46608e-10
1.46608e-10
1.46608e-10
1.46608e-10
1.46608e-10
1.46608e-10
1.46608e-10
1.46608e-10
1.46608e-10
1.46608e-10
1.46608e-10
1.46608e-10
1.46608e-10
1.46608e-10
1.46608e-10
1.46608e-10
1.46608e-10
1.46608e-10
1.46608e-10
1.46608e-10
1.46608e-10
1.46608e-10
1.46608e-10
1.46608e-10
1.46608e-10
1.46608e-10
1.46608e-10
1.46608e-10
1.46608e-10
1.46608e-10
1.46608e-10
1.46608e-10
1.46608e-10
1.46608e-10
1.46608e-10
1.46608e-10
1.46608e-10
1.46608e-10
1.46608e-10
1.46608e-10
1.46608e-10
1.46608e-10
1.46608e-10
1.46608e-10
1.46608e-10
1.46608e-10
1.46608e-10
1.46608e-10
1.46608e-10
1.46608e-10
1.46608e-10
1.46608e-10
1.46608e-10
1.46608e-10
1.46608e-10
1.46608e-10
1.46608e-10
1.46608e-10
1.46608e-10
1.46608e-10
1.46608e-10
1.46608e-10
1.46608e-10
1.46608e-10
1.46608e-10
1.46608e-10
1.46608e-10
1.46608e-10

VECTORS velocity float
0.00623615 -9.32274e-05 0.000147414
0.00562931 -3.15138e-05 -9.97273e-05
0.00587425 4.90067e-05 -0.000126585
0.00552612 -4.14287e-06 -0.000103616
0.00623498 -0.000155887 5.62949e-05
0.00554514 0.00034218 1.48512e-05
0.00616868 -8.65437e-05 0.000230131
0.00620189 -0.000188204 2.89265e-06
0.00572284 0.000373163 0.000139696
0.00570982 1.92212e-05 -0.000118801
0.00560142 -3.34345e-05 -0.000112576
0.0062728 -0.000152351 -0.000160507
0.0060536 -0.000155048 -7.4963e-05
0.00630734 9.21927e-05 -0.00013817
0.00551537 0.000182406 0.000172391
0.00629809 4.24535e-05 -0.000130435
0.00555457 -6.92058e-05 -8.5257e-05
0.00614722 -0.000178518 -2.73914e-05
0.00565722 0.000169547 0.000188418
0.00554384 0.000108791 5.58804e-05
0.00578605 0.000226759 0.000104881
0.00575497 0.000249892 -0.000113383
0.00609004 -6.94704e-05 0.000217641
0.00567426 0.000322406 3.22272e-05
0.00605915 -9.36842e-05 -0.000105966
0.00554911 -8.56405e-06 -8.49783e-05
0.00614998 -8.4824e-05 0.000231291
0.0056622 -4.87682e-05 -9.2342e-05
0.00607986 -6.3128e-05 0.000211495
0.00569375 0.000318978 0.00012377
0.00556776 0.000338684 1.78573e-05
0.00617783 -7.98452e-05 0.000227981
0.0055467 0.000229053 0.000157454
0.0057727 0.000246463 -0.000112936
0.00611386 -0.000168128 6.43776e-05
0.00625521 -0.000123225 7.90384e-05
0.00573732 0.000253436 -0.000113787
0.00558057 -8.97808e-05 -8.22683e-05
4.58402e-16 2.2558e-15 8.4636e-14
0.00560696 -3.1294e-05 -9.57176e-05
0.00559029 0.000335215 2.09777e-05
0.0062142 -6.08035e-05 0.000208469
0.00628016 -9.71116e-05 7.89992e-05
0.00598531 -3.02326e-05 0.00017759
0.00607841 -5.48229e-05 0.000208812
0.00613216 -0.000164275 -0.00013537
0.00576672 0.000366789 0.000146135
0.00570934 1.97164e-05 -0.000119937
0.00604652 -0.000151427 -0.00015426
0.0062935 -0.000108135 7.86824e-05
0.0056497 0.000326185 2.88273e-05
0.00554229 0.00017502 0.000174008
0.00569157 -4.23538e-05 -0.000280553
0.00631404 -9.32005e-05 7.94117e-05
0.00552481 0.00019349 0.000172701
0.0057195 0.000256929 -0.000114177
0.0058107 0.000230867 0.000103051
0.00601938 -0.000140664 -0.000167821
0.00571734 -5.4811e-05 -9.83621e-05
0.00560574 0.000242828 0.000155483
0.00565922 -7.82893e-05 -8.70618e-05
0.00570096 0.000376374 0.000136417
0.00612429 -0.000164767 -0.000134753
0.00569798 -4.7443e-05 -9.76696e-05
0.00627725 -8.77875e-05 7.8658e-05
0.00628319 -0.000123159 7.66686e-05
0.00622294 -1.70615e-05 -0.000120163
0.00554809 0.000213956 0.000164024
0.00629777 0.000122782 -0.000142672
0.00622293 -0.000162188 -0.00015285
0.00580747 -8.82734e-05 -8.91251e-05
0.00630915 4.70102e-05 -0.000131433
0.00626201 -6.45537e-05 -0.000114158
0.00626449 7.31704e-05 -0.000133586
0.00574482 0.000369941 0.000142935
0.0060197 1.81234e-05 -0.000124257
0.00563285 -0.000113088 -7.60875e-05
0.00626274 -0.000125913 7.93502e-05
0.00564484 -0.000124264 -0.000192857
0.00630464 -0.000137596 8.00731e-05
0.00557962 -1.08127e-05 -9.96133e-05
0.00619052 -2.25728e-05 -0.000117856
0.00615067 -9.85697e-05 3.61815e-05
0.00561514 -6.01136e-05 -1.41015e-05
0.00556555 -2.7075e-05 -0.000186526
0.00558669 0.000114945 6.67779e-05
0.00570804 -0.000139012 -0.000107919
0.00585222 0.000377762 8.69058e-06
0.00553953 -4.07444e-05 -0.000233425
0.00548548 0.00030877 3.88573e-05
0.00631297 -0.000144765 7.9468e-05
0.00626856 -0.000157805 -0.000154971
4.3172e-15 1.04712e-14 8.29609e-14
1.4124e-22 -1.27651e-22 1.23839e-22
0.00571977 0.000203848 5.60745e-05
0.00569045 -5.97925e-05 -0.000235422
0.00566678 0.000251555 8.03744e-05
0.00569682 0.000267922 7.4057e-05
0.00625618 -6.7992e-05 7.88499e-05
0.00550337 0.000187261 0.00017475
0.00578839 -0.000184538 -0.000147527
0.0056335 0.000170894 0.000184227
0.00614789 8.36455e-05 -0.000158603
0.00542148 0.000297575 4.20303e-05
0.00627373 8.60734e-05 -0.000136486
0.00550283 -5.33202e-06 -0.000149364
0.00569278 -2.21035e-05 -0.000105762
0.00625421 -0.000148193 7.95067e-05
0.00571628 0.000210046 -2.34833e-05
0.00553787 0.000199276 0.000173129
0.00612549 -7.90715e-05 0.000226896
0.00618773 -6.40156e-05 0.000226864
0.0056239 0.000176006 0.000184654
0.00569348 0.000300109 5.24534e-05
0.00564149 0.000170694 0.00018826
0.00626512 -0.000130239 7.93599e-05
0.00572969 0.000227388 0.000192374
0.00587054 -5.30305e-05 -0.000107026
0.00563338 0.000163787 0.000190583
0.00564641 -3.63051e-05 -9.88311e-05
0.00568312 0.000216664 0.000106645
0.00564302 -4.60534e-05 -9.21442e-05
0.00565798 -5.60089e-05 -0.000167008
0.00561927 0.000240263 0.000177226
0.00610402 -0.000166904 -5.42621e-05
0.00629842 2.56453e-05 -0.000128144
0.00571731 1.63678e-05 0.000134192
0.0056833 -3.46239e-05 -0.000101352
0.00554265 -2.05569e-06 -0.000122745
0.00623025 6.97036e-05 -0.000135764
0.00567644 0.000309913 4.79503e-05
0.00606316 -0.000158832 -0.000143526
0.00573274 0.000214662 9.44776e-05
0.00628949 5.52375e-05 -0.000132655
0.00549515 0.000294481 4.84309e-05
0.0056989 -4.02345e-05 -8.41204e-05
8.38432e-15 1.24315e-15 -8.48744e-14
0.00561848 0.000302736 4.79957e-05
0.00633954 6.36877e-05 -0.000134465
0.00576074 0.000209239 -0.000253555
0.00568144 0.000260958 7.76184e-05
0.00585565 0.000174518 -4.85588e-05
-3.83689e-14 8.16677e-14 2.95883e-13
0.00621504 -2.26236e-05 -0.000119013
0.00629621 -0.000103953 7.95201e-05
0.00575539 0.000138476 -0.000217117
0.00633151 5.86826e-05 -0.000133656
0.00549705 0.000307056 4.02899e-05
0.0057528 9.80571e-05 0.000100237
0.00627651 -0.000123742 7.92169e-05
0.0055173 0.000303468 4.34066e-05
0.00628097 2.07538e-05 -0.000127022
0.00570142 -3.31492e-05 -0.000126939
0.00566685 -4.71632e-05 -9.71949e-05
0.00564841 9.6271e-05 -0.000190254
0.0057047 -5.10296e-05 -9.7012e-05
0.00565541 0.000255683 7.78686e-05
0.00569242 0.000340688 4.48689e-05
0.00555862 0.000291758 5.21239e-05
0.00562393 0.00028647 5.91805e-05
0.00571873 0.000274809 6.88235e-05
0.00624871 3.45173e-06 -0.00012353
0.00567515 -4.92814e-05 -9.89889e-05
0.00566915 0.000260742 7.78868e-05
0.00559187 4.41448e-06 -0.000124546
0.00555799 0.000302335 4.5297e-05
0.00564942 0.00017673 0.000183906
0.00561826 0.000256415 0.000156819
0.00569816 -6.38421e-05 -9.4967e-05
0.00624173 0.000157727 -0.000369127
0.00557417 0.00022054 0.00016201
0.00568018 0.00022628 4.29072e-05
0.00551613 0.000135796 0.000182375
1.41607e-15 -1.10226e-14 8.66691e-14
0.00620878 -7.85526e-06 -0.000121692
0.00579954 0.000216132 0.000111322
0.00577202 0.000376584 4.13016e-05
0.0063174 5.75343e-05 -0.000133281
0.00626061 9.134e-05 -0.000136655
0.00548566 0.000281733 5.62729e-05
0.00607819 -2.75309e-06 -0.000120608
0.00582883 -0.000201829 -0.000172994
0.00613207 -0.000157683 -0.000149848
0.00600419 -9.68387e-05 -0.000105796
0.00552681 0.000315999 3.53501e-05
0.00557766 0.000293449 5.24089e-05
0.00573121 0.000226419 0.000108335
0.00615236 0.00205526 -0.00128134
0.00571251 0.000144941 0.000204072
0.00564387 0.000171144 0.000186623
0.00617903 2.70412e-05 -0.000126424
0.00591064 -0.000130258 -5.08144e-05
0.00568233 4.79914e-05 2.03329e-05
0.00622928 0.000160054 -0.000368118
0.00592482 5.05462e-05 1.89397e-05
0.00627694 -8.94689e-05 7.85529e-05
0.0056395 0.000156893 -8.75e-05
0.00559708 -0.000210361 -0.00028114
0.00615716 1.09576e-05 -0.00012254
0.00572171 0.000394656 0.000124656
0.00585075 -5.15959e-05 -5.75735e-05
0.0056986 0.000174788 -7.65192e-05
-0.00994425 0.0189144 -0.0124716
0.00553282 0.000207658 0.000166574
0.00564192 0.00030833 4.59405e-05
0.00619851 0.000158535 -0.00036725
0.005604 0.000378904 3.27537e-05
0.00622883 6.99414e-06 -0.000123966
0.00581343 0.00023173 0.00010283
0.00568224 0.000301911 -1.34254e-05
0.00623628 5.13319e-05 -0.000131606
0.00568303 -4.12658e-05 -0.000100307
0.00580899 -5.24195e-05 -0.000103865
0.00579408 0.000235654 9.94091e-05
0.00578514 0.00025094 0.000109473
0.00563841 -6.23918e-05 -0.000236631
0.00547798 1.79309e-05 -0.000306933
0.00554562 5.30774e-05 -0.000332735
0.00571605 0.000190718 -0.000240217
0.00562972 2.08624e-06 -0.000304287
0.00568409 0.000327335 6.94138e-05
0.00623982 -1.66649e-05 -0.000120526
0.00571286 0.000245158 9.0273e-05
0.00622061 0.000160275 -0.000367784
0.00549529 0.000297243 4.60136e-05
0.00583943 -0.000220894 -0.000208085
0.00575975 0.000188333 -0.000804878
0.0062536 0.00016735 -0.000370621
0.00563235 0.000141771 -0.000219332
0.00570373 0.000218697 8.17886e-05
0.00566252 0.000252565 7.09261e-05
0.00568335 0.000263696 7.53628e-05
0.00568749 0.000274458 6.88363e-05
0.00546287 0.000320586 -0.000349121
0.00547871 0.000305296 4.11289e-05
0.00578362 0.000259364 0.000119501
0.00560625 -1.55795e-05 -0.000417608
0.006102 0.000131691 -0.000140317
0.00568922 0.000375327 2.79374e-05
0.00569818 0.000128265 -0.000203406
0.00583688 0.000256532 8.73493e-05
0.00549094 0.000297449 4.65192e-05
0.00567083 0.00027298 6.95949e-05
0.00563653 0.000137088 0.00013343
0.00623996 -3.43388e-06 -0.000122575
0.00593856 0.000216939 -0.000360233
0.00567719 0.000265276 7.0309e-05
0.00556747 0.00030092 -0.000351572
0.00550012 0.000314762 3.539e-05
0.0054872 0.000309113 3.87912e-05
0.0057077 0.000275056 7.0396e-05
0.00616718 -7.48086e-05 -0.000110284
0.00618936 0.000159902 -0.000366276
0.00579737 -3.92622e-05 -0.000269831
0.00548912 0.000306042 4.03879e-05
0.00568535 0.000254408 8.56787e-05
0.00624217 3.77365e-05 -0.000128046
0.00566318 0.000262156 7.60918e-05
0.00562929 0.000282407 6.03277e-05
0.00578867 0.000232016 0.000101619
0.00626934 7.15288e-05 -0.000134375
0.00566178 0.000286577 6.12437e-05
0.00572323 0.00017837 -0.000135863
0.00613608 -8.57135e-06 -0.000121087
0.00575202 0.000265504 0.000111399
0.00621042 0.000160099 -0.000367271
0.00578507 0.000242458 9.76679e-05
0.00570907 -6.02919e-05 -9.61144e-05
0.00548036 4.95776e-05 -0.000334627
0.00577404 0.000186938 -0.000733885
0.00563265 0.00017361 0.000189674

VECTORS force float
-8.48304e-11 -8.43805e-11 2.95953e-11
-9.80479e-11 1.11552e-10 -3.85269e-11
-4.45952e-10 -4.88327e-11 2.10091e-10
-2.04627e-10 -3.90552e-10 1.75999e-10
8.79854e-11 -4.1759e-11 1.21534e-10
-5.91176e-14 -1.07734e-12 1.68211e-12
-2.5307e-11 1.73367e-10 -1.29594e-10
-7.22413e-11 -8.04006e-11 2.16298e-10
-9.49605e-13 1.88353e-12 -1.30864e-13
2.17846e-11 -5.9218e-11 4.71211e-11
-2.38213e-10 -4.47884e-10 3.54139e-11
4.58906e-11 -1.02883e-10 5.84724e-11
-7.10423e-11 -1.45133e-10 3.88034e-10
-3.80474e-11 7.36548e-11 -9.66635e-12
-3.84926e-10 -2.23332e-11 -8.28345e-11
-3.24065e-11 -2.68909e-10 4.12161e-11
3.03991e-10 -1.10003e-10 4.97661e-11
-9.7303e-11 -8.46414e-11 3.35953e-10
-1.45204e-10 -1.6545e-10 6.52525e-11
-2.75995e-10 2.42883e-11 3.03902e-10
1.09878e-10 -7.74243e-11 6.0084e-11
7.55729e-13 3.6971e-13 2.03132e-13
-3.10159e-12 2.06221e-10 -1.51804e-10
1.89235e-13 4.61327e-13 -4.16609e-13
2.70565e-10 -1.00352e-10 1.23064e-11
9.95597e-11 -1.01595e-10 1.8763e-10
3.59376e-11 1.81132e-10 -1.42991e-10
-6.09582e-11 -2.6043e-10 1.11408e-10
9.58023e-11 1.92384e-10 -1.50362e-10
1.08856e-10 3.43251e-10 -1.9556e-12
1.94495e-13 -1.40572e-12 -2.00475e-13
-5.07925e-11 9.39894e-11 -1.09887e-10
-7.62364e-12 2.7836e-10 -1.08923e-10
2.858e-14 6.95958e-13 8.5514e-13
-6.5857e-10 4.73278e-10 4.66532e-10
-5.4059e-11 1.86537e-10 -3.46693e-12
-9.37226e-14 1.23618e-12 -3.70879e-13
4.66746e-11 -1.48409e-10 3.98284e-11
-1.03866e-23 8.11671e-24 -2.06795e-25
1.27391e-10 -8.78189e-11 3.79617e-11
8.21976e-13 -1.18308e-12 -2.9444e-13
-7.65978e-11 -5.86197e-11 2.94726e-11
-1.15178e-10 1.93078e-10 -5.66586e-12
-2.18676e-10 2.32875e-10 -2.76267e-10
6.37641e-11 1.78502e-10 -1.97534e-10
3.89957e-10 -4.54485e-11 1.65301e-10
3.89581e-14 6.54326e-13 -8.19614e-13
-2.1206e-11 1.13421e-09 -4.99765e-10
2.44738e-10 -1.03114e-10 1.85314e-10
-1.60995e-10 7.62076e-11 -4.94458e-12
-2.61161e-13 4.79275e-13 1.15983e-12
-4.28864e-11 -1.00562e-10 1.07314e-10
-2.26647e-10 5.63699e-10 -3.97521e-10
1.85912e-12 -6.90771e-11 1.34676e-12
-1.10313e-10 1.07845e-10 -4.21372e-11
-5.12971e-13 1.65292e-12 -2.52925e-13
9.87638e-11 5.74949e-11 -1.99447e-11
-1.29683e-10 1.39097e-11 2.53153e-12
3.17491e-10 -2.73299e-10 5.32403e-11
-4.07546e-10 4.56678e-10 -2.47077e-10
-8.49373e-11 -1.42545e-11 2.08034e-12
6.58008e-13 -2.68718e-14 -7.88877e-13
2.45143e-10 -2.10712e-10 3.65961e-10
-9.97887e-10 2.26478e-10 -2.70328e-12
-3.2025e-11 2.47149e-10 -9.35249e-13
-2.80295e-10 -2.57823e-11 -2.93528e-11
1.45675e-10 2.5139e-10 -3.80398e-11
-6.82812e-11 1.87491e-10 -6.99627e-11
-1.97082e-10 -1.41551e-10 2.54495e-11
-1.4935e-10 -1.05414e-10 1.11048e-10
-4.58786e-11 3.53144e-11 -1.00613e-11
-9.52689e-12 -1.98065e-10 3.20943e-11
-3.80564e-11 -2.50921e-11 -9.29377e-11
2.59084e-11 7.28592e-12 -3.3296e-12
6.46129e-13 1.22771e-12 -1.51073e-12
-4.18174e-10 5.7365e-11 5.10037e-11
-1.25059e-10 -1.69213e-10 6.23989e-11
-4.03452e-11 1.51004e-11 2.22948e-12
1.20606e-10 6.57156e-11 1.12807e-10
-8.65017e-11 -2.12158e-11 -2.3885e-12
1.40122e-10 -2.40134e-10 -5.22319e-13
1.93201e-10 3.38292e-11 -1.52551e-11
-2.03119e-10 -7.61468e-11 -4.92564e-11
-3.80651e-10 2.9377e-10 -2.7248e-10
-4.04284e-10 -9.91517e-11 8.56423e-10
-1.77636e-10 -5.14356e-11 4.63089e-10
1.0762e-10 1.79627e-10 -2.5888e-10
1.82966e-10 1.17121e-11 2.0343e-11
-3.51818e-10 9.04624e-11 6.26645e-10
-1.90061e-10 1.99677e-12 -1.26419e-11
-1.52062e-10 -4.88537e-11 -1.04784e-11
3.9467e-10 -1.18584e-10 2.31137e-10
-1.41469e-21 6.74152e-22 -2.37814e-23
0.0 0.0 0.0
-8.08949e-12 -2.7783e-11 2.14185e-10
-2.07263e-10 2.25606e-11 7.92294e-11
-1.19237e-10 1.47298e-10 -7.57443e-11
2.31502e-10 -1.28877e-10 1.07551e-10
-5.42872e-10 9.51472e-10 -2.39595e-11
-5.01812e-11 2.43419e-10 -1.31046e-10
1.0676e-10 2.24907e-10 -1.5756e-10
-2.01243e-10 -1.47304e-10 1.43129e-11
1.14517e-10 4.4782e-11 -5.86904e-11
-2.05212e-10 9.42603e-11 -9.59003e-11
-1.13955e-10 -3.26054e-10 5.4654e-11
-1.96256e-10 2.18358e-10 4.88235e-10
-1.7136e-10 8.17629e-10 -2.98944e-10
6.69589e-11 3.07102e-10 -4.62419e-12
-4.76649e-11 -1.98261e-10 -5.55414e-11