# vtk DataFile Version 3.0
LIGGGHTS particles timestep 5400000
ASCII
DATASET POLYDATA
POINTS 287 float
0.0442825 0.0162041 0.00782208
0.0446909 0.0172013 0.00751495
0.0381138 0.0159766 0.00817799
0.0446279 0.0177013 0.00735403
0.0441696 0.0161275 0.00793514
0.0503055 0.0166786 0.00760864
0.044357 0.0169168 0.00758329
0.0440731 0.0158305 0.00832545
0.050579 0.0178191 0.00707874
0.0442923 0.0166381 0.00767356
0.044734 0.0173885 0.00745921
0.0383164 0.0166908 0.00753749
0.0441506 0.0160644 0.00801037
0.0380361 0.0157343 0.00848667
0.0445 0.0171395 0.00752139
0.0380167 0.0156738 0.00856384
0.0442705 0.0165455 0.00770443
0.0504549 0.0172701 0.0072865
0.0441309 0.016006 0.0080891
0.0442646 0.0161416 0.0079016
0.0444001 0.0171035 0.00752592
0.0384999 0.0170659 0.00734468
0.05052 0.017544 0.00718307
0.0443354 0.0168237 0.00761259
0.0503897 0.0169961 0.00738992
0.0384033 0.0170389 0.00736081
0.0446076 0.0176075 0.00738206
0.0441117 0.0159475 0.00816789
0.0446388 0.0173579 0.00746236
0.0443785 0.0170099 0.00755378
0.0444784 0.0170458 0.00754927
0.0503254 0.0167443 0.00753587
0.0442493 0.0164529 0.00773535
0.0444567 0.0169521 0.00757718
0.0506185 0.0180041 0.00701431
0.0444129 0.0167646 0.00763512
0.044574 0.0170769 0.00754601
0.0505397 0.0176357 0.00714831
0.0442089 0.0162671 0.00779742
0.0444216 0.0171971 0.00749805
0.0445957 0.0171707 0.00751809
0.0503469 0.0168246 0.00748023
0.0504331 0.0171787 0.00732097
0.0442286 0.0163601 0.00776634
0.0444647 0.0173842 0.00744232
0.0504114 0.0170874 0.00735545
0.0445293 0.0176651 0.0073587
0.0445078 0.0175714 0.00738659
0.0382947 0.0166037 0.00758166
0.0504766 0.0173614 0.00725202
0.0442475 0.0160828 0.00798065
0.038075 0.0158555 0.00833233
0.0444351 0.0168583 0.00760509
0.050368 0.0169048 0.0074244
0.0444875 0.0167026 0.00765947
0.044509 0.0167957 0.00762973
0.0441896 0.0161981 0.00786715
0.0446173 0.0172643 0.00749022
0.0445646 0.0174203 0.00743779
0.0504983 0.0174527 0.00721755
0.038413 0.0167177 0.00752136
0.0383479 0.0164566 0.00765391
0.0447124 0.0172949 0.00748708
0.0446818 0.0175451 0.00740662
0.0443466 0.0164851 0.00772829
0.0505594 0.0177274 0.00711352
0.0380556 0.0157949 0.0084095
0.0446603 0.0174515 0.00743449
0.0443138 0.0167308 0.00764272
0.0445215 0.0172331 0.00749352
0.0386411 0.0176958 0.0070774
0.044758 0.0182604 0.00718767
0.0381332 0.0160371 0.00810081
0.0383381 0.0167778 0.00749332
0.0445948 0.0179498 0.00727394
0.038273 0.0165167 0.00762583
0.038425 0.017126 0.00731664
0.0384007 0.0163227 0.00774622
0.0505986 0.0179107 0.00704395
0.0382278 0.0160593 0.00807723
0.0445861 0.0175139 0.00740993
0.0444658 0.01661 0.00769036
0.044658 0.0182241 0.00719225
0.0446164 0.0180436 0.00724602
0.0446475 0.0170138 0.00757076
0.0383599 0.0168649 0.00744915
0.0447234 0.0177326 0.00735069
0.0447119 0.0180761 0.0072423
0.0447879 0.0180157 0.00726637
0.0445731 0.0178552 0.00730211
0.0447444 0.0178263 0.00732275
0.0382308 0.0163423 0.00771428
0.0446795 0.0183177 0.00716438
0.0383913 0.0166307 0.00756553
0.0446047 0.0168269 0.00762642
0.0383261 0.0163697 0.00769836
0.0643568 0.0187248 0.00531097
0.24257 0.0191927 0.00520306
0.0386568 0.0173555 0.00719543
0.0381917 0.0162188 0.00786932
0.038735 0.0172988 0.00722162
0.0381526 0.0160977 0.00802364
0.0443912 0.0166719 0.00766603
0.0444862 0.0174778 0.00741445
0.0448185 0.0177638 0.00734734
0.0447223 0.018505 0.00710861
0.0382512 0.0164296 0.00767001
0.0389485 0.0174581 0.00717165
0.0385966 0.017093 0.00732848
0.0445431 0.0173267 0.00746566
0.0443694 0.0165789 0.00769706
0.044228 0.0160244 0.0080594
0.0380944 0.015916 0.00825516
0.0445307 0.0168897 0.00760218
0.0440923 0.015889 0.00824666
0.0440538 0.015772 0.00840423
0.0448399 0.0178574 0.00731946
0.0382669 0.0161804 0.00792292
0.0446702 0.0178886 0.00729819
0.0442083 0.0159659 0.00813813
0.0444432 0.0172906 0.00747019
0.0382109 0.0162793 0.00779212
0.0445514 0.0177611 0.00733012
0.0446364 0.0181416 0.00724441
0.0385216 0.0171529 0.00730051
0.0383695 0.0165436 0.0076097
0.0446492 0.0177949 0.00732613
0.0443815 0.0162391 0.00781414
0.0445523 0.0169832 0.00757391
0.0441891 0.0159074 0.00821693
0.0382084 0.0159987 0.0081544
0.0447408 0.0185991 0.00708038
0.0443248 0.0163919 0.00775938
0.0448609 0.0179512 0.00729151
0.0382473 0.0161199 0.00800006
0.0386172 0.0171802 0.00728422
0.0381721 0.0161582 0.00794647
0.0385749 0.0170059 0.00737265
0.0384229 0.0163975 0.00768363
0.038189 0.0159382 0.00823158
0.038487 0.0173901 0.00718881
0.0449177 0.0180307 0.00727044
0.0384662 0.0165707 0.0075935
0.0388101 0.0172388 0.00724963
0.0383055 0.0163015 0.00776854
0.0385816 0.0174169 0.00717063
0.0386611 0.0177887 0.00704633
0.0385621 0.0173281 0.00721226
0.0219312 0.0187687 0.00551176
0.0386762 0.017449 0.0071658
0.0447025 0.0176389 0.00737864
0.0385662 0.0177573 0.00705317
0.0386011 0.0175099 0.00713952
0.038814 0.0181 0.00694582
0.0388693 0.0175148 0.00714891
0.0443421 0.0161016 0.0079505
0.0384446 0.0164836 0.00763768
0.0387545 0.0173905 0.00718682
0.0389686 0.017551 0.0071406
0.0387945 0.0175766 0.00712464
0.044358 0.0161605 0.0078713
0.0388494 0.0174219 0.00717997
0.0446781 0.0167636 0.00765121
0.038716 0.0176343 0.007102
0.0324721 0.0173265 0.00723967
0.0385424 0.0172404 0.00725617
0.0386058 0.0179433 0.00699101
0.0389285 0.0173651 0.00720273
0.0389117 0.0177037 0.00708584
0.0385261 0.0175715 0.00711529
0.0443036 0.0162985 0.00779055
0.0387744 0.0174835 0.00715575
0.0446424 0.0176756 0.00744959
0.0384674 0.0173005 0.00722857
0.0385061 0.0174786 0.00714634
0.0445829 0.016733 0.00765437
0.0448464 0.018096 0.00724514
0.0445602 0.0168815 0.00769739
0.0325472 0.0172674 0.00726913
0.0447594 0.0186932 0.00705214
0.0386956 0.0171239 0.00731029
0.0444444 0.0165174 0.00772127
0.0385097 0.0167448 0.00750516
0.0388911 0.0176098 0.00711723
0.0379973 0.0156132 0.00864102
0.0325311 0.0175966 0.00712325
0.0383816 0.0169519 0.00740498
0.0386211 0.0176028 0.00710846
0.0384782 0.0169789 0.00738885
0.0389933 0.018101 0.00695289
0.0387153 0.0172114 0.00726595
0.0448076 0.0173255 0.00748394
0.0384564 0.0168918 0.00743302
0.0387755 0.0179136 0.0070082
0.0387361 0.0177271 0.00707058
0.0382863 0.016241 0.00784575
0.0386961 0.0175413 0.00713297
0.038488 0.0166577 0.00754933
0.0444077 0.0170014 0.00764906
0.0447659 0.01792 0.00729485
0.0388151 0.0176702 0.00709337
0.0445614 0.0166399 0.00768404
0.0446916 0.0179822 0.00727031
0.0325171 0.0171031 0.00734023
0.0385862 0.0178503 0.00702211
0.0444014 0.0163321 0.00778306
0.0387003 0.017975 0.00698402
0.0447011 0.0184113 0.00713652
0.0385461 0.0176644 0.00708423
0.0324403 0.0168189 0.00746203
0.0444226 0.0164248 0.00775214
0.0386371 0.017268 0.00723975
0.0384468 0.017213 0.00727248
0.0447555 0.0174821 0.00743133
0.0388297 0.0173289 0.00721107
0.0325586 0.0169389 0.00741451
0.0324918 0.0174165 0.00720086
0.0384486 0.0171173 0.00741343
0.0388518 0.0182896 0.00689453
0.032452 0.0172365 0.00727842
0.0383818 0.0162621 0.00782349
0.0385314 0.0168318 0.00746099
0.0448215 0.0181879 0.00721466
0.0388931 0.0184884 0.0069116
0.0388726 0.0183882 0.00690298
0.0389537 0.0183304 0.00689388
0.0322572 0.0164491 0.00766043
0.0323218 0.0166986 0.00750968
0.032237 0.016384 0.00773365
0.0386492 0.0169453 0.00740096
0.0384347 0.0168048 0.00747719
0.0322787 0.0165281 0.00760311
0.0324086 0.017058 0.00735704
0.0387949 0.0180069 0.00697698
0.0389646 0.0179776 0.00699404
0.0326064 0.0175377 0.00715264
0.0386808 0.0178818 0.00701521
0.0447975 0.0176701 0.00737527
0.0325704 0.0177767 0.00704564
0.0324842 0.0169986 0.00738477
0.0323869 0.0169676 0.00739402
0.0381696 0.0158776 0.00830875
0.0387558 0.0178201 0.00703946
0.0386633 0.0182264 0.00691358
0.0387195 0.0180681 0.00695288
0.0325895 0.0178668 0.00700677
0.0385531 0.0169189 0.00741682
0.0388173 0.018553 0.00692111
0.0389336 0.0182331 0.00690511
0.0323652 0.0168779 0.00743257
0.0386833 0.0183243 0.00691067
0.0325114 0.0175066 0.00716206
0.0387904 0.0171513 0.00729395
0.0387566 0.0182575 0.00689571
0.0384263 0.0170296 0.00745768
0.0386436 0.0181295 0.00692869
0.0447767 0.0175764 0.00740324
0.0388348 0.0177632 0.00706226
0.0326649 0.017808 0.00703613
0.0387424 0.0186166 0.0069394
0.0326085 0.0179598 0.00697507
0.0387386 0.0181612 0.00692173
0.0386248 0.0180364 0.00695986
0.0387618 0.0187147 0.00693895
0.0388701 0.0179457 0.00700111
0.0324303 0.0171487 0.00732111
0.032581 0.0170338 0.00737369
0.0386271 0.016858 0.00744529
0.0324621 0.0169086 0.00742345
0.0323001 0.0166089 0.00754823
0.0387981 0.0184542 0.00691257
0.0387779 0.0183562 0.00690415
0.0387034 0.0184222 0.00691374
0.038904 0.0181424 0.00693501
0.038723 0.0185198 0.0069233
0.0386054 0.0167709 0.00748947
0.0386719 0.0170334 0.00735626
0.0388901 0.0180396 0.00696968
0.038362 0.0162016 0.00790059
0.0388728 0.0178511 0.00703365
0.0387813 0.0188124 0.00694738
0.0326527 0.0169712 0.00740451
0.0389724 0.0184282 0.00690235
0.0445398 0.0165473 0.00771493
0.0323435 0.0167883 0.00747112
0.0325507 0.0176867 0.00708445
0.0445249 0.0171268 0.00761741

VERTICES 287 574
1 0
1 1
1 2
1 3
1 4
1 5
1 6
1 7
1 8
1 9
1 10
1 11
1 12
1 13
1 14
1 15
1 16
1 17
1 18
1 19
1 20
1 21
1 22
1 23
1 24
1 25
1 26
1 27
1 28
1 29
1 30
1 31
1 32
1 33
1 34
1 35
1 36
1 37
1 38
1 39
1 40
1 41
1 42
1 43
1 44
1 45
1 46
1 47
1 48
1 49
1 50
1 51
1 52
1 53
1 54
1 55
1 56
1 57
1 58
1 59
1 60
1 61
1 62
1 63
1 64
1 65
1 66
1 67
1 68
1 69
1 70
1 71
1 72
1 73
1 74
1 75
1 76
1 77
1 78
1 79
1 80
1 81
1 82
1 83
1 84
1 85
1 86
1 87
1 88
1 89
1 90
1 91
1 92
1 93
1 94
1 95
1 96
1 97
1 98
1 99
1 100
1 101
1 102
1 103
1 104
1 105
1 106
1 107
1 108
1 109
1 110
1 111
1 112
1 113
1 114
1 115
1 116
1 117
1 118
1 119
1 120
1 121
1 122
1 123
1 124
1 125
1 126
1 127
1 128
1 129
1 130
1 131
1 132
1 133
1 134
1 135
1 136
1 137
1 138
1 139
1 140
1 141
1 142
1 143
1 144
1 145
1 146
1 147
1 148
1 149
1 150
1 151
1 152
1 153
1 154
1 155
1 156
1 157
1 158
1 159
1 160
1 161
1 162
1 163
1 164
1 165
1 166
1 167
1 168
1 169
1 170
1 171
1 172
1 173
1 174
1 175
1 176
1 177
1 178
1 179
1 180
1 181
1 182
1 183
1 184
1 185
1 186
1 187
1 188
1 189
1 190
1 191
1 192
1 193
1 194
1 195
1 196
1 197
1 198
1 199
1 200
1 201
1 202
1 203
1 204
1 205
1 206
1 207
1 208
1 209
1 210
1 211
1 212
1 213
1 214
1 215
1 216
1 217
1 218
1 219
1 220
1 221
1 222
1 223
1 224
1 225
1 226
1 227
1 228
1 229
1 230
1 231
1 232
1 233
1 234
1 235
1 236
1 237
1 238
1 239
1 240
1 241
1 242
1 243
1 244
1 245
1 246
1 247
1 248
1 249
1 250
1 251
1 252
1 253
1 254
1 255
1 256
1 257
1 258
1 259
1 260
1 261
1 262
1 263
1 264
1 265
1 266
1 267
1 268
1 269
1 270
1 271
1 272
1 273
1 274
1 275
1 276
1 277
1 278
1 279
1 280
1 281
1 282
1 283
1 284
1 285
1 286

POINT_DATA 287
SCALARS id int 1
LOOKUP_TABLE default
1
2
3
4
5
6
7
8
9
10
11
12
13
14
15
16
17
18
19
21
22
23
24
25
26
27
28
29
30
31
32
33
34
35
36
37
38
39
41
42
44
45
46
47
48
49
50
51
52
53
54
55
56
57
59
60
61
62
63
64
65
66
67
68
69
70
71
72
73
74
76
77
78
79
80
81
82
83
84
85
86
87
88
89
90
91
92
93
94
95
96
97
98
99
100
101
102
103
104
105
106
107
108
109
110
111
112
113
114
115
116
117
118
119
120
121
122
123
124
125
126
127
128
129
130
131
132
133
134
135
136
137
138
140
141
142
143
144
146
147
148
149
150
151
153
154
155
156
157
158
159
160
162
164
165
166
167
168
169
170
171
172
173
174
175
176
177
178
179
181
182
183
184
185
186
187
188
189
190
191
192
193
194
195
196
197
198
199
200
201
202
203
204
205
206
207
208
209
210
211
212
213
214
215
216
217
218
219
220
221
222
223
224
225
226
227
228
229
230
231
232
233
234
235
236
237
239
240
241
242
243
244
246
247
248
249
250
251
252
253
254
255
256
257
258
259
260
261
262
263
264
265
266
267
268
269
270
271
272
273
274
275
276
277
278
279
280
281
282
283
284
285
286
287
288
289
290
291
292
293
294
295
296
297
298
299
300

SCALARS type int 1
LOOKUP_TABLE default
1
1
1
1
1
1
1
1
1
1
1
1
1
1
1
1
1
1
1
1
1
1
1
1
1
1
1
1
1
1
1
1
1
1
1
1
1
1
1
1
1
1
1
1
1
1
1
1
1
1
1
1
1
1
1
1
1
1
1
1
1
1
1
1
1
1
1
1
1
1
1
1
1
1
1
1
1
1
1
1
1
1
1
1
1
1
1
1
1
1
1
1
1
1
1
1
1
1
1
1
1
1
1
1
1
1
1
1
1
1
1
1
1
1
1
1
1
1
1
1
1
1
1
1
1
1
1
1
1
1
1
1
1
1
1
1
1
1
1
1
1
1
1
1
1
1
1
1
1
1
1
1
1
1
1
1
1
1
1
1
1
1
1
1
1
1
1
1
1
1
1
1
1
1
1
1
1
1
1
1
1
1
1
1
1
1
1
1
1
1
1
1
1
1
1
1
1
1
1
1
1
1
1
1
1
1
1
1
1
1
1
1
1
1
1
1
1
1
1
1
1
1
1
1
1
1
1
1
1
1
1
1
1
1
1
1
1
1
1
1
1
1
1
1
1
1
1
1
1
1
1
1
1
1
1
1
1
1
1
1
1
1
1
1
1
1
1
1
1
1
1
1
1
1
1
1
1
1
1
1
1
1
1
1
1
1
1

SCALARS radius float 1
LOOKUP_TABLE default
5e-05
5e-05
5e-05
5e-05
5e-05
5e-05
5e-05
5e-05
5e-05
5e-05
5e-05
5e-05
5e-05
5e-05
5e-05
5e-05
5e-05
5e-05
5e-05
5e-05
5e-05
5e-05
5e-05
5e-05
5e-05
5e-05
5e-05
5e-05
5e-05
5e-05
5e-05
5e-05
5e-05
5e-05
5e-05
5e-05
5e-05
5e-05
5e-05
5e-05
5e-05
5e-05
5e-05
5e-05
5e-05
5e-05
5e-05
5e-05
5e-05
5e-05
5e-05
5e-05
5e-05
5e-05
5e-05
5e-05
5e-05
5e-05
5e-05
5e-05
5e-05
5e-05
5e-05
5e-05
5e-05
5e-05
5e-05
5e-05
5e-05
5e-05
5e-05
5e-05
5e-05
5e-05
5e-05
5e-05
5e-05
5e-05
5e-05
5e-05
5e-05
5e-05
5e-05
5e-05
5e-05
5e-05
5e-05
5e-05
5e-05
5e-05
5e-05
5e-05
5e-05
5e-05
5e-05
5e-05
5e-05
5e-05
5e-05
5e-05
5e-05
5e-05
5e-05
5e-05
5e-05
5e-05
5e-05
5e-05
5e-05
5e-05
5e-05
5e-05
5e-05
5e-05
5e-05
5e-05
5e-05
5e-05
5e-05
5e-05
5e-05
5e-05
5e-05
5e-05
5e-05
5e-05
5e-05
5e-05
5e-05
5e-05
5e-05
5e-05
5e-05
5e-05
5e-05
5e-05
5e-05
5e-05
5e-05
5e-05
5e-05
5e-05
5e-05
5e-05
5e-05
5e-05
5e-05
5e-05
5e-05
5e-05
5e-05
5e-05
5e-05
5e-05
5e-05
5e-05
5e-05
5e-05
5e-05
5e-05
5e-05
5e-05
5e-05
5e-05
5e-05
5e-05
5e-05
5e-05
5e-05
5e-05
5e-05
5e-05
5e-05
5e-05
5e-05
5e-05
5e-05
5e-05
5e-05
5e-05
5e-05
5e-05
5e-05
5e-05
5e-05
5e-05
5e-05
5e-05
5e-05
5e-05
5e-05
5e-05
5e-05
5e-05
5e-05
5e-05
5e-05
5e-05
5e-05
5e-05
5e-05
5e-05
5e-05
5e-05
5e-05
5e-05
5e-05
5e-05
5e-05
5e-05
5e-05
5e-05
5e-05
5e-05
5e-05
5e-05
5e-05
5e-05
5e-05
5e-05
5e-05
5e-05
5e-05
5e-05
5e-05
5e-05
5e-05
5e-05
5e-05
5e-05
5e-05
5e-05
5e-05
5e-05
5e-05
5e-05
5e-05
5e-05
5e-05
5e-05
5e-05
5e-05
5e-05
5e-05
5e-05
5e-05
5e-05
5e-05
5e-05
5e-05
5e-05
5e-05
5e-05
5e-05
5e-05
5e-05
5e-05
5e-05
5e-05
5e-05
5e-05
5e-05
5e-05
5e-05
5e-05
5e-05
5e-05
5e-05
5e-05
5e-05
5e-05
5e-05
5e-05
5e-05
5e-05
5e-05
5e-05
5e-05
5e-05
5e-05
5e-05
5e-05
5e-05
5e-05
5e-05
5e-05
5e-05

SCALARS mass float 1
LOOKUP_TABLE default
1.46608e-10
1.46608e-10
1.46608e-10
1.46608e-10
1.46608e-10
1.46608e-10
1.46608e-10
1.46608e-10
1.46608e-10
1.46608e-10
1.46608e-10
1.46608e-10
1.46608e-10
1.46608e-10
1.46608e-10
1.46608e-10
1.46608e-10
1.46608e-10
1.46608e-10
1.46608e-10
1.46608e-10
1.46608e-10
1.46608e-10
1.46608e-10
1.46608e-10
1.46608e-10
1.46608e-10
1.46608e-10
1.46608e-10
1.46608e-10
1.46608e-10
1.46608e-10
1.46608e-10
1.46608e-10
1.46608e-10
1.46608e-10
1.46608e-10
1.46608e-10
1.46608e-10
1.46608e-10
1.46608e-10
1.46608e-10
1.46608e-10
1.46608e-10
1.46608e-10
1.46608e-10
1.46608e-10
1.46608e-10
1.46608e-10
1.46608e-10
1.46608e-10
1.46608e-10
1.46608e-10
1.46608e-10
1.46608e-10
1.46608e-10
1.46608e-10
1.46608e-10
1.46608e-10
1.46608e-10
1.46608e-10
1.46608e-10
1.46608e-10
1.46608e-10
1.46608e-10
1.46608e-10
1.46608e-10
1.46608e-10
1.46608e-10
1.46608e-10
1.46608e-10
1.46608e-10
1.46608e-10
1.46608e-10
1.46608e-10
1.46608e-10
1.46608e-10
1.46608e-10
1.46608e-10
1.46608e-10
1.46608e-10
1.46608e-10
1.46608e-10
1.46608e-10
1.46608e-10
1.46608e-10
1.46608e-10
1.46608e-10
1.46608e-10
1.46608e-10
1.46608e-10
1.46608e-10
1.46608e-10
1.46608e-10
1.46608e-10
1.46608e-10
1.46608e-10
1.46608e-10
1.46608e-10
1.46608e-10
1.46608e-10
1.46608e-10
1.46608e-10
1.46608e-10
1.46608e-10
1.46608e-10
1.46608e-10
1.46608e-10
1.46608e-10
1.46608e-10
1.46608e-10
1.46608e-10
1.46608e-10
1.46608e-10
1.46608e-10
1.46608e-10
1.46608e-10
1.46608e-10
1.46608e-10
1.46608e-10
1.46608e-10
1.46608e-10
1.46608e-10
1.46608e-10
1.46608e-10
1.46608e-10
1.46608e-10
1.46608e-10
1.46608e-10
1.46608e-10
1.46608e-10
1.46608e-10
1.46608e-10
1.46608e-10
1.46608e-10
1.46608e-10
1.46608e-10
1.46608e-10
1.46608e-10
1.46608e-10
1.46608e-10
1.46608e-10
1.46608e-10
1.46608e-10
1.46608e-10
1.46608e-10
1.46608e-10
1.46608e-10
1.46608e-10
1.46608e-10
1.46608e-10
1.46608e-10
1.46608e-10
1.46608e-10
1.46608e-10
1.46608e-10
1.46608e-10
1.46608e-10
1.46608e-10
1.46608e-10
1.46608e-10
1.46608e-10
1.46608e-10
1.46608e-10
1.46608e-10
1.46608e-10
1.46608e-10
1.46608e-10
1.46608e-10
1.46608e-10
1.46608e-10
1.46608e-10
1.46608e-10
1.46608e-10
1.46608e-10
1.46608e-10
1.46608e-10
1.46608e-10
1.46608e-10
1.46608e-10
1.46608e-10
1.46608e-10
1.46608e-10
1.46608e-10
1.46608e-10
1.46608e-10
1.46608e-10
1.46608e-10
1.46608e-10
1.46608e-10
1.46608e-10
1.46608e-10
1.46608e-10
1.46608e-10
1.46608e-10
1.46608e-10
1.46608e-10
1.46608e-10
1.46608e-10
1.46608e-10
1.46608e-10
1.46608e-10
1.46608e-10
1.46608e-10
1.46608e-10
1.46608e-10
1.46608e-10
1.46608e-10
1.46608e-10
1.46608e-10
1.46608e-10
1.46608e-10
1.46608e-10
1.46608e-10
1.46608e-10
1.46608e-10
1.46608e-10
1.46608e-10
1.46608e-10
1.46608e-10
1.46608e-10
1.46608e-10
1.46608e-10
1.46608e-10
1.46608e-10
1.46608e-10
1.46608e-10
1.46608e-10
1.46608e-10
1.46608e-10
1.46608e-10
1.46608e-10
1.46608e-10
1.46608e-10
1.46608e-10
1.46608e-10
1.46608e-10
1.46608e-10
1.46608e-10
1.46608e-10
1.46608e-10
1.46608e-10
1.46608e-10
1.46608e-10
1.46608e-10
1.46608e-10
1.46608e-10
1.46608e-10
1.46608e-10
1.46608e-10
1.46608e-10
1.46608e-10
1.46608e-10
1.46608e-10
1.46608e-10
1.46608e-10
1.46608e-10
1.46608e-10
1.46608e-10
1.46608e-10
1.46608e-10
1.46608e-10
1.46608e-10
1.46608e-10
1.46608e-10
1.46608e-10
1.46608e-10
1.46608e-10
1.46608e-10
1.46608e-10
1.46608e-10
1.46608e-10
1.46608e-10
1.46608e-10
1.46608e-10
1.46608e-10
1.46608e-10
1.46608e-10
1.46608e-10
1.46608e-10
1.46608e-10
1.46608e-10
1.46608e-10
1.46608e-10
1.46608e-10
1.46608e-10
1.46608e-10

VECTORS velocity float
0.0055034 -0.000516832 0.000403984
0.00585021 -0.000502417 0.000553476
0.00562424 0.000401586 -0.000217414
0.00573237 -0.000498208 0.000543551
0.00550926 -0.0005136 0.00038998
0.00602577 -0.000697348 -0.000231262
0.0058815 -0.000555904 0.000503847
0.00540217 -0.000514173 0.000386386
0.00571503 -9.74067e-05 0.00050326
0.0059195 -0.00057432 0.000439735
0.00581404 -0.000472379 0.000541424
0.00627346 4.23518e-05 -0.000199322
0.00549631 -0.000518554 0.000390353
0.00554235 0.000347875 -0.000151032
0.00584931 -0.000524535 0.000559908
0.00550911 0.000342694 -0.000147378
0.00594764 -0.000577911 0.000442936
0.00612996 -0.000168948 0.00056749
0.00546527 -0.000515113 0.000385572
0.00547869 -0.00053002 0.000396132
0.0058575 -0.000535111 0.000565823
0.00631611 0.00012963 -0.000233085
0.00607474 -0.000157333 0.000558418
0.00589687 -0.000577577 0.000435526
0.00614828 -0.000171118 0.000570315
0.00630802 0.000151275 -0.000245079
0.00575815 -0.000506286 0.000547879
0.00543072 -0.00051369 0.000383839
0.00581574 -0.000501995 0.000550954
0.00586449 -0.000538861 0.000561281
0.00586131 -0.000534168 0.000563694
0.00606237 -0.000711843 -0.000226952
0.00584097 -0.000561861 0.000433684
0.00586099 -0.000545373 0.000566617
0.00575117 -0.000350988 -0.000192746
0.00587869 -0.00056695 0.000434463
0.00586247 -0.000512875 0.000558438
0.00565149 -8.89633e-05 0.000496584
0.0055127 -0.000507443 0.000400251
0.00583665 -0.000532259 0.000560857
0.00585082 -0.000516294 0.000557786
0.00610667 -0.000443352 0.000171965
0.00613616 -0.000170945 0.000569274
0.00561465 -0.000523823 0.000409786
0.00580011 -0.000530927 0.000559149
0.00614139 -0.000171521 0.000569427
0.00574352 -0.000525098 0.000553166
0.0057605 -0.000532754 0.000556829
0.00628064 1.28572e-05 -0.00017829
0.00612449 -0.00016552 0.000566362
0.00536436 -0.000509492 0.000383017
0.0055809 0.000371296 -0.000180776
0.00588547 -0.000525887 0.000562807
0.00615696 -0.000171565 0.00057316
0.00584068 -0.000581944 0.000438775
0.00586391 -0.000543109 0.00056764
0.00551049 -0.000507587 0.0003938
0.00583993 -0.000508539 0.000554598
0.00579627 -0.000516983 0.000554229
0.00611794 -0.000162764 0.000563536
0.00630395 8.55091e-05 -0.000210294
0.00653956 -9.68376e-05 -0.000343415
0.00583977 -0.00047929 0.000545451
0.00577195 -0.000492987 0.000545061
0.0059448 -0.00059105 0.000448839
0.00567959 -9.47194e-05 0.000503798
0.00555992 0.000355038 -0.000162223
0.00579216 -0.000496858 0.000547887
0.00590295 -0.000581363 0.000424519
0.00583593 -0.00052365 0.000559266
0.00591949 0.000478778 7.87431e-05
0.00562983 -0.000491506 0.000537115
0.00566134 0.000436632 -0.000252499
0.00628099 7.32008e-05 -0.000212189
0.00570115 -0.000465904 0.000531771
0.00631411 0.000276738 -0.000311851
0.00633251 0.000177893 -0.000256459
0.00651229 0.000251211 3.08697e-05
0.00576023 -9.6178e-05 0.000500477
0.00567562 0.000420424 -0.000232083
0.00577729 -0.000512472 0.000551439
0.00584456 -0.000597139 0.000446041
0.00564461 -0.000458515 0.000525776
0.00568483 -0.000462676 0.000529654
0.00586 -0.000515951 0.000558854
0.0062898 0.000105527 -0.000227099
0.00571773 -0.000468618 0.000534076
0.00563806 -0.000452088 0.000524377
0.00562291 -0.000473695 0.00052893
0.0057102 -0.000495533 0.000541443
0.00570251 -0.000460853 0.000530345
0.00575191 0.000362141 -0.000340282
0.00562956 -0.00048644 0.000532524
0.00629825 8.2875e-05 -0.000215619
0.00586818 -0.000555807 0.000569238
0.00625616 -9.10061e-05 -0.0005774
4.11842e-15 1.05723e-14 8.2958e-14
-1.23235e-22 -1.27651e-22 -5.81428e-22
0.00556467 0.000393864 -0.000288914
0.00555641 0.00060184 -0.000485295
0.00544833 0.000246715 -0.000308531
0.00572224 0.000475574 -0.000295244
0.00589417 -0.000562657 0.000434702
0.00578126 -0.000528322 0.000556815
0.00571184 -0.000447391 0.000526812
0.00556211 -0.00047207 0.000524552
0.00628166 0.00016767 -0.000244657
0.00557079 0.000176237 0.000169457
0.00632053 0.000167245 -0.000252748
0.00581781 -0.000520703 0.0005571
0.00592052 -0.000565208 0.000436033
0.00550556 -0.000520867 0.000390838
0.00560688 0.000384644 -0.000197008
0.00588194 -0.000532263 0.000562594
0.00541495 -0.000516766 0.000388038
0.00536791 -0.000508873 0.000381912
0.00569677 -0.000442519 0.000524248
0.00559709 0.000487572 -0.000373021
0.00569691 -0.000468445 0.000532375
0.00545531 -0.000520635 0.000392065
0.00581846 -0.000531368 0.000560131
0.00584239 0.000515372 -0.000305037
0.00572205 -0.000523596 0.000550853
0.00564037 -0.000446418 0.000522886
0.00632053 0.00017694 -0.000256237
0.00639849 3.99287e-05 -0.000203054
0.00571025 -0.00048297 0.000537825
0.00573234 -0.000589843 0.000442679
0.00586345 -0.000534013 0.000563901
0.00542461 -0.000520188 0.000393605
0.00558684 0.000405965 -0.000222571
0.00528691 -0.000426325 0.000491631
0.00577482 -0.000643076 0.000459162
0.0056937 -0.000454789 0.000527592
0.00578625 0.00044716 -0.000269978
0.00548272 0.00032144 -0.000311607
0.00574942 0.000495178 -0.000308725
0.00632505 0.000129619 -0.00024153
0.00669847 -4.52835e-05 -0.000352854
0.00560773 0.000389382 -0.000203016
0.00566204 0.000492664 -5.01306e-05
0.00570297 -0.000458885 0.000527281
0.00626098 0.000179479 -0.000259918
0.00544979 0.000265549 -0.000187768
0.00567976 0.000458978 -0.000286119
0.00570573 0.000519974 5.58004e-05
0.0059362 0.000451135 8.65079e-05
0.00558242 0.000431867 -8.21194e-05
-3.83094e-14 8.16752e-14 2.95888e-13
0.00579616 0.000434698 5.74611e-05
0.00574638 -0.000476296 0.000538684
0.00593356 0.000491675 7.73296e-05
0.00581558 0.000496361 5.31304e-05
0.00572175 0.000357027 0.000113503
0.00570119 0.00031447 0.000130886
0.00543095 -0.000556557 0.000438545
0.00583027 0.000293657 -0.000308588
0.0057468 0.00033919 0.000102358
0.0057604 0.000175103 0.000178046
0.0058041 0.000389245 0.000103941
0.00550717 -0.000552412 0.000432367
0.00555155 0.00035052 0.000106288
0.00582038 -0.000615453 0.000586887
0.00587052 0.000442585 9.36253e-05
0.00573755 0.000392194 8.8424e-05
0.0055225 0.000361475 -0.00032713
0.00564772 0.000488751 6.36096e-05
0.00544328 0.000260424 0.000137152
0.00578532 0.000348311 0.000119499
0.00588102 0.00052703 5.79178e-05
0.00554283 -0.000603051 0.000436055
0.00562028 0.000415413 9.68658e-05
0.00572487 -0.000506582 0.000539149
0.00553427 0.000426553 -0.000233408
0.0058478 0.000533586 6.26137e-05
0.00581184 -0.000590376 0.000578419
0.00568987 -0.000465383 0.000535726
0.00588564 -0.000537765 0.000563391
0.00570118 0.000346092 0.000106915
0.00532452 -0.000434783 0.00049642
0.00544298 0.000303496 -0.000304076
0.00586444 -0.000625729 0.000457926
0.00631194 0.000115874 -0.000235899
0.00586326 0.000319121 0.000132367
0.00549225 0.000340387 -0.00014608
0.00585402 0.00038187 9.8394e-05
0.00629678 0.000128387 -0.000236866
0.00585934 0.000491101 8.43673e-05
0.00629288 0.000125227 -0.000237502
0.00572639 0.000373297 0.00010855
0.0055814 0.000211576 -0.000261368
0.00583705 -0.00044453 0.000534369
0.00629125 0.000116633 -0.000235638
0.00557306 0.000395224 9.45125e-05
0.00591909 0.000419697 9.28503e-05
0.00569957 0.000475167 -0.000320844
0.00567885 0.000493112 0.000104382
0.0063841 0.000133858 -0.000242704
0.00581881 -0.000591626 0.000569182
0.00569014 -0.000452135 0.000526779
0.00590564 0.000386299 0.000111991
0.00582099 -0.000587835 0.000440739
0.0056866 -0.000460976 0.000529263
0.0062808 0.000299402 0.00015401
0.00594153 0.000467208 8.4601e-05
0.00582572 -0.000595534 0.000444657
0.00563106 0.000448937 7.75469e-05
0.0056104 -0.000485243 0.000531712
0.00590064 0.00051258 6.82328e-05
0.00630989 0.000294939 0.000156961
0.00590384 -0.00064139 0.000463392
0.00559764 0.000279235 -0.000222799
0.0063409 0.000205197 -0.000271493
0.00577501 -0.000492278 0.00054508
0.00544221 0.000370948 8.5022e-05
0.00628814 0.000288022 0.000158491
0.00578549 0.000383663 9.39471e-05
0.00635462 0.000184726 -0.00024865
0.00580399 0.000399175 -0.000164343
0.00628615 0.000299052 0.000154286
0.00605381 0.000263003 2.6256e-05
0.0063237 0.000140458 -0.000244574
0.0056535 -0.00047654 0.000527634
0.00551794 0.000400163 -0.000207306
0.00572231 0.000383864 -0.000218284
0.00566384 0.000318657 -0.000221256
0.00626463 -3.23115e-05 -0.000289986
0.00631649 0.000282988 0.000162626
0.00622208 -2.40538e-05 -0.00029439
0.006407 0.00021147 -0.000281244
0.00629864 0.000105414 -0.00021784
0.00629209 0.000129573 -6.58542e-05
0.00628875 0.000291804 0.00015538
0.00566293 0.000403461 9.58363e-05
0.005753 0.000382085 0.000106381
0.00584594 0.000368697 0.000103541
0.00585205 0.000728995 -8.82073e-06
0.00573132 -0.000452617 0.000529794
0.00592519 0.000368411 0.000106885
0.00629174 0.000294063 0.000156381
0.00629688 0.000288891 0.000158293
0.00560599 0.000371303 -0.000178259
0.00591572 0.000504675 6.85989e-05
0.00578883 0.000426168 5.60555e-05
0.00568977 0.000422099 9.08599e-05
0.00568622 0.000407347 7.91575e-05
0.00632976 0.000141503 -0.000239884
0.00564126 0.000547736 -0.000198686
0.00573848 0.000344459 0.000120923
0.00630323 0.000286446 0.00016
0.00579782 0.000422229 -8.20164e-05
0.00580802 0.000376908 9.62215e-05
0.00543768 0.000272881 -0.000269713
0.00573818 0.000417422 -0.000216088
0.00635248 0.000188008 -0.000248564
0.00574021 0.000447443 9.56089e-05
0.00576356 -0.000460999 0.000534517
0.00588561 0.000466987 8.26375e-05
0.00584664 0.000579337 1.03794e-05
0.00555423 0.000509797 -0.000370614
0.00569829 0.000269436 -0.000322428
0.00576062 0.000402012 9.90371e-05
0.00565916 0.000467798 6.98251e-05
0.00562455 0.000500444 -0.000201703
0.00571666 0.000470428 7.43086e-05
0.0062774 0.000292338 0.000154847
0.00628726 0.000304626 0.000150476
0.00640534 0.000192506 -0.000274681
0.00630186 0.00029463 0.000156279
0.00632523 0.000281912 0.00016488
0.00578137 0.000433366 -0.000219624
0.00579999 0.000409642 -0.000154368
0.00579924 0.000429533 -0.000208473
0.00571641 0.00035058 0.000116655
0.00565369 0.000482895 -0.000365883
0.00637548 0.000186408 -0.000266824
0.0063541 0.000187225 -0.0002682
0.0057178 0.000347021 0.000117168
0.00586338 0.000190742 4.39282e-05
0.00588159 0.000474389 8.01904e-05
0.00561502 0.000501915 -0.000201674
0.00628333 0.000302021 0.000153219
0.00548657 0.000357386 -0.000209939
0.00582771 -0.000608454 0.000449589
0.00630966 0.000284334 0.000161613
0.00588552 0.000374937 0.000102023
0.00586 -0.000514901 0.000559844

VECTORS force float
5.55356e-11 4.28998e-11 -3.82407e-11
2.70191e-11 4.80281e-11 -1.26226e-11
1.2054e-10 6.46051e-10 -8.29662e-10
7.94505e-11 -6.3086e-11 2.98032e-11
-5.62528e-11 -4.92791e-11 -3.59391e-11
6.9201e-11 2.02041e-11 -1.27531e-11
-1.234e-10 -1.44929e-11 3.34948e-10
1.30053e-10 8.99035e-11 -1.1323e-10
3.22714e-11 9.59446e-11 -1.30335e-10
-5.63211e-11 3.31065e-11 -9.27975e-12
3.42781e-11 -1.42805e-11 1.16904e-11
-8.72269e-11 4.48126e-11 9.22122e-11
-3.54959e-11 1.37743e-11 -5.84862e-11
-1.04879e-10 -6.5085e-11 1.13297e-10
-4.01697e-11 1.13901e-10 -4.75847e-11
-2.61149e-10 -4.5838e-10 5.49173e-10
-2.3089e-11 2.22935e-12 -4.2989e-12
-1.28561e-11 2.01238e-11 -1.73074e-11
-7.88905e-11 3.20538e-11 -3.80527e-11
-3.1959e-11 -3.7478e-11 4.23928e-11
-9.91705e-11 5.64261e-11 -9.44267e-12
2.15243e-11 -2.81374e-10 1.12938e-10
-1.30349e-10 -7.22835e-11 2.06023e-11
-1.09819e-10 -5.49801e-11 6.25157e-11
-2.42951e-14 5.22249e-12 2.21169e-12
-2.33412e-11 -2.67163e-10 9.17004e-11
5.26588e-11 -1.08139e-12 4.01282e-13
-1.78512e-10 7.12182e-12 -3.12059e-12
1.01613e-11 1.74979e-11 -9.04482e-12
-6.76119e-11 -9.30268e-11 9.06283e-11
-1.28834e-10 8.08806e-11 -3.51295e-11
3.13137e-12 -1.20769e-11 -3.35824e-12
-9.27291e-12 -8.98808e-12 -2.2263e-11
-5.39739e-11 7.93987e-12 2.83789e-11
2.52599e-10 -1.01281e-11 8.06473e-12
-5.64765e-11 -1.6027e-11 -2.18395e-11
-1.32753e-10 2.1962e-12 -6.84864e-12
5.35027e-11 9.55044e-12 1.40603e-11
-2.93309e-12 -1.89274e-11 6.193e-12
-1.38984e-11 1.23245e-10 -3.31982e-11
2.85439e-11 5.93207e-11 -1.99508e-11
-5.87606e-11 -3.26479e-11 2.19516e-11
1.3536e-11 1.72408e-11 4.25691e-13
-3.86978e-11 1.56278e-11 -1.90333e-11
5.20885e-11 1.50425e-10 -4.03205e-11
-4.78599e-12 4.30844e-12 -5.4297e-12
7.46199e-12 -1.68084e-11 5.7617e-12
-2.30474e-11 -9.56045e-11 2.83374e-11
-6.00372e-11 7.05186e-11 4.38978e-12
2.5843e-11 2.46702e-11 1.04266e-12
-2.75869e-10 2.90489e-11 6.66602e-11
1.49333e-10 3.82142e-10 -4.9012e-10
-2.259e-10 -1.71183e-11 -8.22848e-11
1.26731e-11 -2.15424e-12 1.96177e-11
-1.37058e-10 4.60165e-12 -6.35088e-11
-1.18164e-10 1.71014e-10 -4.51002e-11
-6.54109e-11 -4.63267e-11 2.81908e-12
1.48362e-11 6.05007e-11 -1.92187e-11
4.07608e-11 7.68353e-11 -1.61146e-11
1.1347e-11 -2.06955e-11 4.91966e-12
-9.70228e-12 -2.65407e-11 -1.82325e-10