# vtk DataFile Version 3.0
LIGGGHTS particles timestep 36400000
ASCII
DATASET POLYDATA
POINTS 271 float
0.2247 0.015495 0.00884999
0.22555 0.0180247 0.00696371
0.219639 0.0176277 0.00715767
0.225655 0.0179425 0.00696336
0.224679 0.0154209 0.00891349
0.231235 0.0174011 0.00732055
0.224789 0.0157912 0.00859612
0.224657 0.0153468 0.00897698
0.231352 0.017953 0.00711759
0.225264 0.0175141 0.00716526
0.225396 0.017717 0.00706436
0.218749 0.0155713 0.00861239
0.224597 0.0151233 0.00916781
0.21942 0.0182747 0.0070579
0.225633 0.0178573 0.00701073
0.219519 0.0183088 0.00705679
0.225684 0.0180381 0.00695893
0.224636 0.0152725 0.00904052
0.225226 0.0173461 0.00726635
0.225378 0.0176304 0.00711112
0.218998 0.0161021 0.00813398
0.23143 0.0183235 0.00698871
0.224858 0.0160149 0.00840905
0.231312 0.0177677 0.00718203
0.219721 0.0180157 0.00710588
0.225509 0.0178368 0.00700898
0.224809 0.0158657 0.00853252
0.225346 0.0178041 0.00713014
0.224874 0.0160877 0.00834233
0.225378 0.0171467 0.00741412
0.231254 0.0174899 0.00727868
0.224766 0.0157173 0.00865953
0.225498 0.0174753 0.00719979
0.23141 0.0182309 0.00702093
0.225416 0.0182506 0.00696704
0.225575 0.0185758 0.00695888
0.231449 0.0184161 0.00695649
0.225725 0.0181307 0.00695653
0.321436 0.0173475 0.00552525
0.225531 0.0179241 0.00696514
0.231273 0.0175825 0.00724646
0.224722 0.0155691 0.0087865
0.225554 0.0184782 0.00696037
0.224921 0.0162352 0.00821565
0.224896 0.0161621 0.0082791
0.218663 0.015306 0.00889906
0.231391 0.0181382 0.00705315
0.225481 0.018188 0.0070103
0.218603 0.0151069 0.00911548
0.225435 0.0183487 0.00696564
0.231293 0.0176751 0.00721425
0.22536 0.0175422 0.00715437
0.225221 0.0169326 0.00760787
0.225705 0.0183046 0.00695603
0.225687 0.0177831 0.00705018
0.231469 0.0185087 0.00692431
0.218944 0.0162293 0.0080327
0.218584 0.0150406 0.00918776
0.225474 0.0180891 0.00696605
0.225426 0.0173019 0.00729751
0.225457 0.0182946 0.00704693
0.231332 0.0178604 0.00714981
0.218642 0.0152397 0.00897098
0.225358 0.0179576 0.00697925
0.225479 0.0185444 0.00696265
0.225532 0.0183806 0.00696185
0.219647 0.0180811 0.00709382
0.225459 0.0175554 0.00715453
0.2194 0.0181804 0.00708445
0.218706 0.0154392 0.00875648
0.225667 0.0182122 0.00695808
0.21954 0.0184056 0.0070439
0.218771 0.0156376 0.00854075
0.219453 0.0180175 0.00709553
0.231371 0.0180456 0.00708537
0.219659 0.0177248 0.00714468
0.225767 0.0182217 0.00695436
0.22565 0.018509 0.00695663
0.225103 0.0168274 0.00771188
0.225628 0.0184113 0.00695812
0.225415 0.0178048 0.00701916
0.219699 0.017919 0.00711875
0.225511 0.018283 0.00696334
0.224961 0.0163849 0.00808929
0.225393 0.0177223 0.00716416
0.225323 0.0175245 0.00724566
0.224983 0.0164583 0.00802493
0.219064 0.0163258 0.00794444
0.22549 0.0177486 0.00705439
0.219167 0.0166993 0.00762853
0.225606 0.0183131 0.00695962
0.218727 0.015505 0.00868403
0.0643568 0.0187248 0.00531097
0.24257 0.0191927 0.00520306
0.219354 0.0175314 0.00716058
0.219774 0.0178528 0.00713092
0.2196 0.0174333 0.0071837
0.21958 0.0173361 0.00719671
0.225478 0.0183923 0.00704542
0.225668 0.0176957 0.00709517
0.225006 0.0165319 0.00796161
0.225336 0.0173921 0.00723225
0.219413 0.0178231 0.00712152
0.219031 0.0165273 0.00778034
0.219378 0.0180822 0.00708353
0.225586 0.0177763 0.0070466
0.225435 0.0180966 0.00705765
0.225522 0.0187397 0.00695968
0.219221 0.0173066 0.00719857
0.225545 0.0176022 0.00713588
0.224831 0.0159398 0.00846902
0.224744 0.0156433 0.00872299
0.225302 0.0172341 0.00735033
0.219183 0.0171273 0.00727378
0.225318 0.0173131 0.00729102
0.225597 0.0186735 0.00695739
0.225245 0.0170062 0.00754459
0.219795 0.0179497 0.00711801
0.225279 0.017156 0.00741734
0.225321 0.0177768 0.00703748
0.219619 0.0175305 0.00717068
0.225434 0.0178922 0.00697418
0.225282 0.0176003 0.00711802
0.225255 0.0170824 0.00748064
0.224615 0.0151981 0.0091041
0.219442 0.0183716 0.00704501
0.224942 0.0163095 0.00815208
0.225424 0.0179537 0.00705449
0.225473 0.0176611 0.0070995
0.219432 0.0179203 0.0071085
0.219167 0.0170536 0.00733942
0.218623 0.0151733 0.00904319
0.219279 0.0175962 0.00714858
0.219497 0.018212 0.00706968
0.219261 0.0167215 0.00760343
0.225113 0.0169014 0.00764535
0.0100679 0.0201683 0.00551526
0.219128 0.0169019 0.00746391
0.219485 0.0185652 0.00701922
0.219241 0.0174017 0.00717464
0.219449 0.0171216 0.0072595
0.219393 0.0177258 0.00713454
0.0219312 0.0187687 0.00551176
0.219625 0.0179843 0.00710668
0.225727 0.0184021 0.00695453
0.21926 0.0174989 0.00716161
0.219562 0.0185024 0.007031
0.219128 0.0165494 0.00775512
0.219449 0.0175637 0.00715957
0.225457 0.0184463 0.00696415
0.219186 0.0167744 0.00756514
0.219615 0.0183404 0.00705594
0.219524 0.0174989 0.00717158
0.225344 0.0178904 0.00707963
0.21943 0.0174665 0.00717259
0.225626 0.0181197 0.00696026
0.219466 0.0172072 0.00721064
0.213177 0.0171115 0.00730556
0.219299 0.0168716 0.00747672
0.219223 0.0169246 0.00743842
0.219295 0.0172391 0.00719968
0.219572 0.0181463 0.00708177
0.225302 0.0176946 0.00709152
0.219505 0.0174016 0.0071846
0.225323 0.0176557 0.00719058
0.219109 0.0168269 0.00752724
0.225214 0.0172795 0.00733996
0.225402 0.0172217 0.00735233
0.225456 0.0179907 0.0069674
0.213451 0.0184122 0.00693316
0.225443 0.0173845 0.00724398
0.21941 0.0173693 0.00718561
0.225569 0.0176888 0.00709169
0.161461 0.0182058 0.00533758
0.219604 0.0178873 0.00711965
0.21902 0.0161768 0.00807063
0.213234 0.0173758 0.00718617
0.219463 0.0184684 0.00703212
0.219357 0.0179851 0.0070965
0.219009 0.0164528 0.00784345
0.219488 0.0177582 0.00713353
0.225035 0.0166058 0.00790046
0.218684 0.0153724 0.00882731
0.219564 0.0176932 0.00714557
0.219086 0.0164003 0.00788137
0.219205 0.0168494 0.00750181
0.219374 0.0176286 0.00714756
0.216247 0.0176864 0.00702156
0.225244 0.0174277 0.00721171
0.225195 0.01721 0.00740943
0.219508 0.0178554 0.00712052
0.225397 0.0181525 0.00696942
0.225134 0.0169756 0.00758182
0.21343 0.0183159 0.00691551
0.219469 0.017661 0.00714655
0.2255 0.018642 0.00696116
0.218792 0.0157086 0.0084738
0.22507 0.0167546 0.00777185
0.219584 0.0177903 0.0071326
0.279119 0.0168309 0.00741286
0.225568 0.0182012 0.00696325
0.219335 0.0174343 0.00717494
0.0408984 0.0178474 0.00778736
0.225399 0.0174638 0.00720249
0.219147 0.016977 0.00740053
0.213372 0.0180309 0.00698125
0.213195 0.0171887 0.00724471
0.21955 0.0180496 0.00709463
0.218966 0.0163038 0.0079696
0.213159 0.0170381 0.00737117
0.219338 0.0178878 0.00710952
0.225339 0.0178596 0.00698464
0.219544 0.0175961 0.00715856
0.218922 0.0161549 0.00809578
0.218888 0.0160051 0.00822342
0.213002 0.0164527 0.0078932
0.213024 0.0165257 0.00782837
0.213085 0.0167451 0.00763302
0.219202 0.0172117 0.0072236
0.213046 0.0165987 0.00776356
0.213141 0.0169648 0.00743672
0.219743 0.0181125 0.00709299
0.218988 0.0163783 0.00790652
0.213411 0.0182181 0.0069227
0.21928 0.0167965 0.0075401
0.225048 0.0166802 0.00783487
0.213273 0.017563 0.00712762
0.213472 0.0185083 0.00695084
0.213123 0.0168915 0.00750223
0.219299 0.0176934 0.00713556
0.21939 0.017272 0.00719863
0.219355 0.0170985 0.00728862
0.21926 0.0170759 0.00731085
0.213293 0.0176566 0.00709835
0.219072 0.0166767 0.00765396
0.218857 0.015932 0.00828452
0.213104 0.0168183 0.00756773
0.219506 0.018662 0.00700633
0.213218 0.0172816 0.00721553
0.219316 0.0173387 0.00719676
0.219042 0.0162514 0.00800753
0.219052 0.0166019 0.00771721
0.219337 0.0170216 0.00735008
0.22516 0.0170567 0.00752917
0.219594 0.0182436 0.00706883
0.213332 0.0178438 0.0070398
0.218814 0.015783 0.0084107
0.213313 0.0177502 0.00706907
0.219107 0.0164748 0.00781826
0.219091 0.0167518 0.00759062
0.219278 0.0171512 0.00724728
0.219668 0.0181779 0.00708093
0.213352 0.0179373 0.00701052
0.21298 0.0163797 0.00795802
0.219148 0.0166242 0.00769188
0.219485 0.0173044 0.00719762
0.219528 0.0179524 0.00710755
0.219372 0.0171798 0.0072332
0.219319 0.0169465 0.00741346
0.218982 0.0160266 0.00819751
0.219475 0.0181146 0.0070826
0.219243 0.0169994 0.00737516
0.219318 0.0177906 0.00712254
0.219679 0.0178219 0.00713171
0.218836 0.0158577 0.0083478
0.213391 0.0181245 0.00695197
0.218901 0.0160804 0.00815886
0.225381 0.0180548 0.00698401
0.213065 0.0166719 0.0076983
0.213254 0.0174694 0.0071569
0.225175 0.0171428 0.00748061

VERTICES 271 542
1 0
1 1
1 2
1 3
1 4
1 5
1 6
1 7
1 8
1 9
1 10
1 11
1 12
1 13
1 14
1 15
1 16
1 17
1 18
1 19
1 20
1 21
1 22
1 23
1 24
1 25
1 26
1 27
1 28
1 29
1 30
1 31
1 32
1 33
1 34
1 35
1 36
1 37
1 38
1 39
1 40
1 41
1 42
1 43
1 44
1 45
1 46
1 47
1 48
1 49
1 50
1 51
1 52
1 53
1 54
1 55
1 56
1 57
1 58
1 59
1 60
1 61
1 62
1 63
1 64
1 65
1 66
1 67
1 68
1 69
1 70
1 71
1 72
1 73
1 74
1 75
1 76
1 77
1 78
1 79
1 80
1 81
1 82
1 83
1 84
1 85
1 86
1 87
1 88
1 89
1 90
1 91
1 92
1 93
1 94
1 95
1 96
1 97
1 98
1 99
1 100
1 101
1 102
1 103
1 104
1 105
1 106
1 107
1 108
1 109
1 110
1 111
1 112
1 113
1 114
1 115
1 116
1 117
1 118
1 119
1 120
1 121
1 122
1 123
1 124
1 125
1 126
1 127
1 128
1 129
1 130
1 131
1 132
1 133
1 134
1 135
1 136
1 137
1 138
1 139
1 140
1 141
1 142
1 143
1 144
1 145
1 146
1 147
1 148
1 149
1 150
1 151
1 152
1 153
1 154
1 155
1 156
1 157
1 158
1 159
1 160
1 161
1 162
1 163
1 164
1 165
1 166
1 167
1 168
1 169
1 170
1 171
1 172
1 173
1 174
1 175
1 176
1 177
1 178
1 179
1 180
1 181
1 182
1 183
1 184
1 185
1 186
1 187
1 188
1 189
1 190
1 191
1 192
1 193
1 194
1 195
1 196
1 197
1 198
1 199
1 200
1 201
1 202
1 203
1 204
1 205
1 206
1 207
1 208
1 209
1 210
1 211
1 212
1 213
1 214
1 215
1 216
1 217
1 218
1 219
1 220
1 221
1 222
1 223
1 224
1 225
1 226
1 227
1 228
1 229
1 230
1 231
1 232
1 233
1 234
1 235
1 236
1 237
1 238
1 239
1 240
1 241
1 242
1 243
1 244
1 245
1 246
1 247
1 248
1 249
1 250
1 251
1 252
1 253
1 254
1 255
1 256
1 257
1 258
1 259
1 260
1 261
1 262
1 263
1 264
1 265
1 266
1 267
1 268
1 269
1 270

POINT_DATA 271
SCALARS id int 1
LOOKUP_TABLE default
1
2
3
4
5
6
7
8
9
10
11
12
13
14
15
16
17
19
21
22
23
24
25
26
27
28
29
30
31
32
33
34
35
36
37
38
39
41
42
44
45
47
48
50
51
52
53
54
55
56
57
59
61
62
63
64
65
66
67
68
69
70
71
72
73
74
76
77
78
79
80
81
82
83
84
85
86
87
88
89
90
91
92
93
94
95
96
97
98
99
100
101
102
103
104
105
106
107
108
109
110
111
112
113
114
115
116
117
118
119
120
121
122
123
124
125
126
127
128
129
131
132
133
134
135
136
137
138
140
141
142
143
144
147
148
149
150
151
153
154
155
156
157
158
159
160
162
164
165
166
168
169
170
171
172
173
174
175
177
178
179
181
182
183
184
186
187
188
189
190
191
192
193
194
195
196
197
198
199
201
202
203
204
205
206
207
208
209
210
211
212
213
214
215
216
217
218
219
220
221
222
223
224
225
226
227
228
229
230
231
232
234
235
236
237
239
240
241
242
244
246
247
248
249
250
251
252
253
254
255
256
257
258
259
261
262
263
264
265
266
267
268
269
270
271
272
273
274
275
276
277
278
280
283
284
285
286
287
288
289
290
291
292
293
294
295
296
297
298
299
300

SCALARS type int 1
LOOKUP_TABLE default
1
1
1
1
1
1
1
1
1
1
1
1
1
1
1
1
1
1
1
1
1
1
1
1
1
1
1
1
1
1
1
1
1
1
1
1
1
1
1
1
1
1
1
1
1
1
1
1
1
1
1
1
1
1
1
1
1
1
1
1
1
1
1
1
1
1
1
1
1
1
1
1
1
1
1
1
1
1
1
1
1
1
1
1
1
1
1
1
1
1
1
1
1
1
1
1
1
1
1
1
1
1
1
1
1
1
1
1
1
1
1
1
1
1
1
1
1
1
1
1
1
1
1
1
1
1
1
1
1
1
1
1
1
1
1
1
1
1
1
1
1
1
1
1
1
1
1
1
1
1
1
1
1
1
1
1
1
1
1
1
1
1
1
1
1
1
1
1
1
1
1
1
1
1
1
1
1
1
1
1
1
1
1
1
1
1
1
1
1
1
1
1
1
1
1
1
1
1
1
1
1
1
1
1
1
1
1
1
1
1
1
1
1
1
1
1
1
1
1
1
1
1
1
1
1
1
1
1
1
1
1
1
1
1
1
1
1
1
1
1
1
1
1
1
1
1
1
1
1
1
1
1
1
1
1
1
1
1
1
1
1
1
1
1
1
1
1
1
1
1
1

SCALARS radius float 1
LOOKUP_TABLE default
5e-05
5e-05
5e-05
5e-05
5e-05
5e-05
5e-05
5e-05
5e-05
5e-05
5e-05
5e-05
5e-05
5e-05
5e-05
5e-05
5e-05
5e-05
5e-05
5e-05
5e-05
5e-05
5e-05
5e-05
5e-05
5e-05
5e-05
5e-05
5e-05
5e-05
5e-05
5e-05
5e-05
5e-05
5e-05
5e-05
5e-05
5e-05
5e-05
5e-05
5e-05
5e-05
5e-05
5e-05
5e-05
5e-05
5e-05
5e-05
5e-05
5e-05
5e-05
5e-05
5e-05
5e-05
5e-05
5e-05
5e-05
5e-05
5e-05
5e-05
5e-05
5e-05
5e-05
5e-05
5e-05
5e-05
5e-05
5e-05
5e-05
5e-05
5e-05
5e-05
5e-05
5e-05
5e-05
5e-05
5e-05
5e-05
5e-05
5e-05
5e-05
5e-05
5e-05
5e-05
5e-05
5e-05
5e-05
5e-05
5e-05
5e-05
5e-05
5e-05
5e-05
5e-05
5e-05
5e-05
5e-05
5e-05
5e-05
5e-05
5e-05
5e-05
5e-05
5e-05
5e-05
5e-05
5e-05
5e-05
5e-05
5e-05
5e-05
5e-05
5e-05
5e-05
5e-05
5e-05
5e-05
5e-05
5e-05
5e-05
5e-05
5e-05
5e-05
5e-05
5e-05
5e-05
5e-05
5e-05
5e-05
5e-05
5e-05
5e-05
5e-05
5e-05
5e-05
5e-05
5e-05
5e-05
5e-05
5e-05
5e-05
5e-05
5e-05
5e-05
5e-05
5e-05
5e-05
5e-05
5e-05
5e-05
5e-05
5e-05
5e-05
5e-05
5e-05
5e-05
5e-05
5e-05
5e-05
5e-05
5e-05
5e-05
5e-05
5e-05
5e-05
5e-05
5e-05
5e-05
5e-05
5e-05
5e-05
5e-05
5e-05
5e-05
5e-05
5e-05
5e-05
5e-05
5e-05
5e-05
5e-05
5e-05
5e-05
5e-05
5e-05
5e-05
5e-05
5e-05
5e-05
5e-05
5e-05
5e-05
5e-05
5e-05
5e-05
5e-05
5e-05
5e-05
5e-05
5e-05
5e-05
5e-05
5e-05
5e-05
5e-05
5e-05
5e-05
5e-05
5e-05
5e-05
5e-05
5e-05
5e-05
5e-05
5e-05
5e-05
5e-05
5e-05
5e-05
5e-05
5e-05
5e-05
5e-05
5e-05
5e-05
5e-05
5e-05
5e-05
5e-05
5e-05
5e-05
5e-05
5e-05
5e-05
5e-05
5e-05
5e-05
5e-05
5e-05
5e-05
5e-05
5e-05
5e-05
5e-05
5e-05
5e-05
5e-05
5e-05
5e-05
5e-05
5e-05
5e-05
5e-05
5e-05
5e-05
5e-05
5e-05
5e-05
5e-05
5e-05
5e-05
5e-05
5e-05
5e-05
5e-05
5e-05
5e-05
5e-05
5e-05
5e-05
5e-05

SCALARS mass float 1
LOOKUP_TABLE default
1.46608e-10
1.46608e-10
1.46608e-10
1.46608e-10
1.46608e-10
1.46608e-10
1.46608e-10
1.46608e-10
1.46608e-10
1.46608e-10
1.46608e-10
1.46608e-10
1.46608e-10
1.46608e-10
1.46608e-10
1.46608e-10
1.46608e-10
1.46608e-10
1.46608e-10
1.46608e-10
1.46608e-10
1.46608e-10
1.46608e-10
1.46608e-10
1.46608e-10
1.46608e-10
1.46608e-10
1.46608e-10
1.46608e-10
1.46608e-10
1.46608e-10
1.46608e-10
1.46608e-10
1.46608e-10
1.46608e-10
1.46608e-10
1.46608e-10
1.46608e-10
1.46608e-10
1.46608e-10
1.46608e-10
1.46608e-10
1.46608e-10
1.46608e-10
1.46608e-10
1.46608e-10
1.46608e-10
1.46608e-10
1.46608e-10
1.46608e-10
1.46608e-10
1.46608e-10
1.46608e-10
1.46608e-10
1.46608e-10
1.46608e-10
1.46608e-10
1.46608e-10
1.46608e-10
1.46608e-10
1.46608e-10
1.46608e-10
1.46608e-10
1.46608e-10
1.46608e-10
1.46608e-10
1.46608e-10
1.46608e-10
1.46608e-10
1.46608e-10
1.46608e-10
1.46608e-10
1.46608e-10
1.46608e-10
1.46608e-10
1.46608e-10
1.46608e-10
1.46608e-10
1.46608e-10
1.46608e-10
1.46608e-10
1.46608e-10
1.46608e-10
1.46608e-10
1.46608e-10
1.46608e-10
1.46608e-10
1.46608e-10
1.46608e-10
1.46608e-10
1.46608e-10
1.46608e-10
1.46608e-10
1.46608e-10
1.46608e-10
1.46608e-10
1.46608e-10
1.46608e-10
1.46608e-10
1.46608e-10
1.46608e-10
1.46608e-10
1.46608e-10
1.46608e-10
1.46608e-10
1.46608e-10
1.46608e-10
1.46608e-10
1.46608e-10
1.46608e-10
1.46608e-10
1.46608e-10
1.46608e-10
1.46608e-10
1.46608e-10
1.46608e-10
1.46608e-10
1.46608e-10
1.46608e-10
1.46608e-10
1.46608e-10
1.46608e-10
1.46608e-10
1.46608e-10
1.46608e-10
1.46608e-10
1.46608e-10
1.46608e-10
1.46608e-10
1.46608e-10
1.46608e-10
1.46608e-10
1.46608e-10
1.46608e-10
1.46608e-10
1.46608e-10
1.46608e-10
1.46608e-10
1.46608e-10
1.46608e-10
1.46608e-10
1.46608e-10
1.46608e-10
1.46608e-10
1.46608e-10
1.46608e-10
1.46608e-10
1.46608e-10
1.46608e-10
1.46608e-10
1.46608e-10
1.46608e-10
1.46608e-10
1.46608e-10
1.46608e-10
1.46608e-10
1.46608e-10
1.46608e-10
1.46608e-10
1.46608e-10
1.46608e-10
1.46608e-10
1.46608e-10
1.46608e-10
1.46608e-10
1.46608e-10
1.46608e-10
1.46608e-10
1.46608e-10
1.46608e-10
1.46608e-10
1.46608e-10
1.46608e-10
1.46608e-10
1.46608e-10
1.46608e-10
1.46608e-10
1.46608e-10
1.46608e-10
1.46608e-10
1.46608e-10
1.46608e-10
1.46608e-10
1.46608e-10
1.46608e-10
1.46608e-10
1.46608e-10
1.46608e-10
1.46608e-10
1.46608e-10
1.46608e-10
1.46608e-10
1.46608e-10
1.46608e-10
1.46608e-10
1.46608e-10
1.46608e-10
1.46608e-10
1.46608e-10
1.46608e-10
1.46608e-10
1.46608e-10
1.46608e-10
1.46608e-10
1.46608e-10
1.46608e-10
1.46608e-10
1.46608e-10
1.46608e-10
1.46608e-10
1.46608e-10
1.46608e-10
1.46608e-10
1.46608e-10
1.46608e-10
1.46608e-10
1.46608e-10
1.46608e-10
1.46608e-10
1.46608e-10
1.46608e-10
1.46608e-10
1.46608e-10
1.46608e-10
1.46608e-10
1.46608e-10
1.46608e-10
1.46608e-10
1.46608e-10
1.46608e-10
1.46608e-10
1.46608e-10
1.46608e-10
1.46608e-10
1.46608e-10
1.46608e-10
1.46608e-10
1.46608e-10
1.46608e-10
1.46608e-10
1.46608e-10
1.46608e-10
1.46608e-10
1.46608e-10
1.46608e-10
1.46608e-10
1.46608e-10
1.46608e-10
1.46608e-10
1.46608e-10
1.46608e-10
1.46608e-10
1.46608e-10
1.46608e-10
1.46608e-10
1.46608e-10
1.46608e-10
1.46608e-10
1.46608e-10
1.46608e-10
1.46608e-10
1.46608e-10
1.46608e-10
1.46608e-10
1.46608e-10
1.46608e-10
1.46608e-10
1.46608e-10
1.46608e-10
1.46608e-10
1.46608e-10

VECTORS velocity float
0.005991 -4.03709e-05 -0.000620337
0.00564159 0.000447549 -0.000202016
0.00558451 -0.000424615 0.000271132
0.00532377 0.000520071 0.000100709
0.00599227 -4.07724e-05 -0.000619056
0.00528058 -0.000664013 -1.61024e-07
0.00597993 -3.0639e-05 -0.000626163
0.00598887 -4.0652e-05 -0.000616898
0.00540158 -0.000531001 0.000281611
0.00561767 0.000408599 -6.30624e-05
0.00568887 0.000470942 0.000154199
0.00598893 0.000333313 0.000985497
0.00570285 2.10768e-05 -0.000642222
0.00590964 -0.000337949 0.000270373
0.00559189 0.00049765 0.000181355
0.00592995 -0.000379511 0.000277221
0.00566474 0.000396614 -0.000144507
0.00586734 -1.32626e-05 -0.000627733
0.00555805 8.51854e-05 -0.000674417
0.00564486 0.00047719 0.000149718
0.00598592 -0.000548721 2.66393e-05
0.00534694 -0.000451145 0.000249596
0.00597314 -1.94793e-05 -0.00063486
0.00537707 -0.000572806 0.000297353
0.0057891 -0.00050732 0.00028988
0.00574672 0.000463373 0.000163344
0.00597868 -2.71203e-05 -0.000628935
0.00577412 0.000504509 0.00011941
0.00597297 -1.70295e-05 -0.000636781
0.00569516 -4.8833e-05 -0.000581849
0.00531429 -0.000556925 0.000284966
0.0059811 -3.40509e-05 -0.000623399
0.00561622 0.000487002 0.000142663
0.00545509 -0.000511265 0.000278905
0.00574685 0.000476832 -0.000212341
0.00619168 0.000348527 -0.000233945
0.00596262 -0.000542847 0.000297035
0.00581244 0.00046878 -0.000216046
4.55819e-16 2.25521e-15 8.46361e-14
0.00554846 0.000324753 -0.00020547
0.00534087 -0.000586078 0.000301442
0.00598662 -3.92105e-05 -0.000620122
0.00613332 0.000345716 -0.000228193
0.00596679 -1.14243e-05 -0.000640699
0.00596996 -1.41618e-05 -0.000639214
0.00598855 0.000334027 0.000955053
0.00544454 -0.00051733 0.00028151
0.00575493 0.000453111 -0.000177664
0.00545352 0.000225265 0.00097792
0.00619256 0.000413434 -0.000228833
0.00535715 -0.000591157 0.000302921
0.00561757 0.000477835 0.000149605
0.00599565 7.28708e-05 -0.000712123
0.00600312 0.000317081 -0.00022362
0.00577882 0.000591816 9.70924e-05
0.00600451 -0.000650129 0.000335184
0.00593688 -0.000554557 3.66662e-05
0.00549316 0.000171359 0.001046
0.00564969 0.000433664 -0.00021249
0.00547351 0.00012701 -0.000421854
0.00577384 0.000462285 -0.000226843
0.00539271 -0.000548235 0.000288617
0.00576148 0.000331037 0.000924373
0.00576975 0.000473997 0.000113776
0.00618432 0.000379324 -0.0002308
0.00605121 0.000356234 -0.000222713
0.00582236 -0.000454247 0.000283665
0.00560852 0.00048319 0.00014523
0.00586132 -0.000386111 0.000334866
0.00600735 0.000360999 0.000950126
0.00574605 0.000420749 -0.000219715
0.0059482 -0.000382568 0.000278336
0.00595028 0.000182431 0.000874773
0.00579773 -0.000534917 0.000294307
0.0054252 -0.000524498 0.000281033
0.00565274 -0.000448896 0.000276138
0.00574965 0.000411149 -0.000213638
0.0061061 0.000261946 -0.000228018
0.00595277 8.48822e-06 -0.000651775
0.00605695 0.000274293 -0.000227829
0.00577133 0.000466245 0.000167001
0.00577363 -0.000486578 0.000286376
0.00584087 0.000432368 -0.000208106
0.00596387 -9.21758e-06 -0.000642189
0.0057386 0.000469561 0.000148704
0.00546007 0.000367454 6.47231e-05
0.0059613 -8.27763e-06 -0.000642798
0.00593628 -0.000530534 1.42906e-05
0.00569885 0.00044764 0.000166708
0.00550589 -0.000497293 1.76723e-05
0.00599452 0.000330922 -0.000228026
0.00605719 0.000352585 0.00097145
4.37034e-15 1.04613e-14 8.29594e-14
-5.71162e-23 5.77616e-22 -1.2867e-21
0.00560879 -0.00042185 0.00028226
0.00572777 -0.000540257 0.000292135
0.00546383 -0.000387812 0.000261618
0.00543896 -0.000380897 0.000261001
0.00608735 0.000379748 -0.000220505
0.00565147 0.000609695 8.26924e-05
0.00595776 -6.40052e-06 -0.000644224
0.00558581 0.000477335 0.000154173
0.00542729 -0.000468199 0.000270375
0.00583549 -0.000510989 5.81579e-06
0.00578118 -0.00062922 0.000305703
0.00571646 0.000415492 0.000173085
0.00582356 0.00063474 -0.000168687
0.00620747 0.000360861 -0.000230237
0.00549362 -0.000459163 0.000201336
0.00562042 0.000447374 0.000164888
0.00597528 -2.2984e-05 -0.000631994
0.00598417 -3.72677e-05 -0.000620992
0.00554941 -8.44791e-05 -0.000537536
0.00545381 -0.000480515 -1.01807e-05
0.00555923 0.000185972 -0.000204752
0.00621012 0.000366404 -0.000229154
0.00590293 5.19054e-05 -0.000689321
0.00576315 -0.00055078 0.000295
0.00571307 8.47476e-05 -0.000696895
0.00570413 0.000476468 0.000148712
0.00550772 -0.00040133 0.000262743
0.00575255 0.000473486 0.000157098
0.00568998 0.000508643 0.000149169
0.00578829 6.89003e-05 -0.000689594
0.00566027 3.01723e-05 -0.000642529
0.00593444 -0.000361827 0.000275059
0.00596457 -9.92099e-06 -0.000641727
0.00594829 0.0004304 -3.30795e-05
0.00565214 0.000457071 0.000160634
0.00543844 -0.000467125 0.000270589
0.00539863 -0.000441554 -3.17723e-05
0.00550018 0.000291189 0.000918454
0.00554654 -0.000360369 0.00023988
0.00587748 -0.000373834 0.000274181
0.00551877 -0.000489909 1.1384e-05
0.00594604 1.06423e-05 -0.000656713
8.38531e-15 1.24312e-15 -8.48743e-14
0.00537434 -0.000428733 -2.87783e-05
0.00597126 -0.000387917 0.000280054
0.00552735 -0.000393855 0.000279512
0.00544525 -0.000464009 2.24725e-06
0.00542895 -0.000477146 0.000273421
-3.83943e-14 8.16435e-14 2.95886e-13
0.00580562 -0.000442421 0.000281101
0.00605608 0.000285174 -0.000225014
0.00551294 -0.000379896 0.000260014
0.00596767 -0.000391741 0.000280139
0.00565266 -0.000509246 1.66337e-05
0.00566168 -0.000420877 0.000272532
0.00613425 0.000344425 -0.000220221
0.00549636 -0.000429736 -3.7282e-05
0.00591718 -0.000413554 0.000281508
0.00545081 -0.000377443 0.000259325
0.00579702 0.00052111 0.000158728
0.0055399 -0.0004195 0.000249597
0.00580131 0.000466901 -0.000203409
0.00542143 -0.000340787 0.000239374
0.00556258 0.000312016 0.000289012
0.00541524 -0.00048009 8.04499e-06
0.00533725 -0.000424361 -3.07012e-05
0.00546961 -0.000448082 0.000238066
0.00584468 -0.000418367 0.000279195
0.00568382 0.000493621 0.000147049
0.00544935 -0.000359032 0.000258444
0.00571204 0.000502391 0.000166537
0.00545991 -0.000444529 -2.22615e-05
0.00564109 6.92565e-05 -0.000679652
0.00558926 5.65815e-06 -0.000549003
0.00563243 0.00042115 -0.000199347
0.00604424 -0.000616004 0.000349251
0.00563172 0.000469551 0.000155694
0.00551337 -0.00046899 0.000257275
0.0056588 0.000430771 0.000178144
1.37048e-15 -1.1031e-14 8.66688e-14
0.00575366 -0.000430871 0.000277901
0.00592532 -0.000548676 3.00058e-05
0.00544931 -0.00018524 -0.000114413
0.00594532 -0.000386374 0.00027846
0.00544286 -0.000449663 0.000268797
0.00592444 -0.000529969 1.5044e-05
0.00541085 -0.000456413 0.000267884
0.00595652 -3.57733e-06 -0.000645017
0.00595921 0.000339377 0.000947891
0.00554435 -0.000402703 0.00026641
0.00593731 -0.000538321 2.13301e-05
0.00540468 -0.000431477 -2.88866e-05
0.00560957 -0.000410138 0.000270815
0.00557396 -0.000888088 0.000335653
0.00559774 0.00019574 -0.000474964
0.00569413 5.10961e-05 -0.00068645
0.00521911 -0.000435676 0.000258673
0.00573824 0.000479232 -0.000162103
0.00594861 1.30016e-05 -0.000657673
0.00550032 -0.000472347 0.000313886
0.00544126 -0.000443828 0.000267276
0.00620561 0.000370794 -0.000230682
0.00600176 -0.000318656 0.000367495
0.0059586 1.51777e-06 -0.000649571
0.00567585 -0.000420593 0.000273172
0.00583449 0.000403016 -0.000158213
0.00576037 0.000407798 -0.000194017
0.00558261 -0.000424613 0.000218638
-0.0354827 0.0287134 -0.00640996
0.00562076 0.000466873 0.000154805
0.0053373 -0.000423991 -3.25646e-05
0.00561605 -0.00024006 -0.000110057
0.00539847 -0.00013767 -3.36813e-05
0.00582831 -0.000416628 0.000277625
0.00594938 -0.000547884 2.7587e-05
0.00570829 0.000166533 0.000586737
0.00544579 -0.000464767 0.000271211
0.0057901 0.000466067 0.000173809
0.00545524 -0.000396073 0.000260523
0.00594391 -0.000575101 4.97306e-05
0.00598007 -0.000585556 6.06293e-05
0.00593751 0.000218228 0.000526382
0.00593972 0.000234928 0.000509305
0.00575735 0.000237361 0.000500427
0.00546323 -0.000489131 5.08059e-05
0.00588408 0.000114358 0.000610922
0.00540458 0.000122236 0.00057794
0.005813 -0.000510298 0.000291201
0.00594096 -0.00053815 1.94328e-05
0.00537735 -0.00043437 0.000370417
0.00551979 -0.000490819 9.88313e-06
0.00595494 -1.35514e-06 -0.000647523
0.00558949 -0.000302292 -8.91221e-05
0.00602507 -0.000615347 0.00034836
0.0055157 0.000184708 0.000496181
0.00551823 -0.00041914 0.00026451
0.00540748 -0.000381713 0.000249564
0.00544314 -0.000477686 0.000102538
0.00542458 -0.000472242 1.79661e-05
0.0055917 -0.000297247 -9.08757e-05
0.00561655 -0.000463956 -1.77942e-05
0.00599376 -0.000580483 6.28716e-05
0.00579874 0.000220012 0.000528482
0.00599348 -0.000390061 0.000280869
0.00524377 -7.21817e-05 -0.000120377
0.00546346 -0.000401307 0.000185499
0.00593696 -0.000535208 1.83651e-05
0.00568936 -0.000479087 -1.07547e-05
0.00541535 -0.000509409 5.35445e-05
0.0058844 2.64494e-05 -0.00066873
0.00589838 -0.000418414 0.000281384
0.00560881 -0.000253455 -0.000104958
0.00601461 -0.000574733 7.40727e-05
0.00559912 -0.000285218 -9.50246e-05
0.00583685 -0.000533853 2.39757e-05
0.00554002 -0.00045354 -2.09923e-05
0.00545108 -0.000488022 3.04357e-05
0.00585883 -0.000462009 0.000286066
0.00561193 -0.000275839 -9.69489e-05
0.00593806 0.00020476 0.000538863
0.00556764 -0.00050207 1.75699e-05
0.0054211 -0.000343348 0.000250148
0.00573954 -0.000546646 0.00029354
0.00544091 -0.000396469 0.000214079
0.00537882 -0.000490033 2.55963e-05
0.0059563 -0.000552271 3.20018e-05
0.00584891 -0.000399365 0.000279772
0.00534691 -0.000443029 -7.61465e-06
0.005445 -0.000497012 0.000276761
0.00571157 -0.000471827 0.000282254
0.00600181 -0.000569307 7.82723e-05
0.00560195 -0.000307344 7.55751e-06
0.00596343 -0.000589172 5.72352e-05
0.00574989 0.000490722 -3.67999e-05
0.00572706 0.000276687 0.00038457
0.00546162 -0.000201515 -0.000122573
0.0057531 3.4191e-05 -0.00069075

VECTORS force float
8.13594e-12 -7.78135e-12 -3.00675e-12
1.04129e-10 -2.32481e-10 8.17834e-12
-2.90626e-10 1.39351e-10 -5.50175e-11
2.73783e-10 -1.85491e-10 9.12384e-11
-4.06189e-11 -2.68374e-11 4.55506e-11
-5.16585e-11 -3.01304e-10 2.08532e-10
1.79535e-11 9.32237e-11 -7.42375e-11
-3.1466e-11 -5.52948e-11 8.15773e-11
2.40714e-11 6.58237e-11 -3.338e-11
1.6297e-10 -3.55144e-10 -2.74008e-10
8.76804e-11 9.2529e-11 1.22405e-10
1.37382e-10 7.09784e-11 -4.18343e-10
-6.57116e-11 6.50029e-11 -3.9114e-11
-7.24695e-11 -1.26922e-10 1.24301e-11
8.04436e-11 -8.26113e-11 5.73802e-12
-7.89514e-11 5.78506e-12 -8.01418e-12
3.47358e-10 -3.31377e-10 -6.70776e-11
-1.01047e-10 -1.89107e-11 4.01779e-11
3.07381e-11 2.79053e-11 5.82256e-11
1.51659e-11 9.11858e-11 6.24884e-11
-2.80891e-10 2.90629e-10 -1.88824e-10
-4.7034e-10 -5.46288e-11 9.22452e-12
1.23821e-11 8.65069e-11 -6.78844e-11
1.0494e-10 3.60345e-10 -1.20167e-10
-1.52994e-10 1.15784e-10 -2.31711e-11
1.25204e-10 4.94647e-11 -2.97426e-11
3.19909e-11 1.01584e-10 -8.74832e-11
3.18461e-11 -6.16898e-11 3.04081e-10
1.06635e-11 6.26975e-11 -5.01936e-11
2.96744e-11 -1.24943e-10 8.31987e-11
-1.53708e-10 -4.45625e-10 1.03004e-10
9.64552e-12 6.91864e-11 -5.59182e-11
-4.82648e-12 -8.64629e-11 5.44773e-11
-7.33584e-11 5.28452e-11 -5.94321e-11
-4.37424e-11 -1.283e-10 -7.04355e-11
-9.59065e-11 1.43278e-10 4.31002e-11
-6.44711e-11 3.71131e-10 -2.41266e-10
1.87742e-10 -7.25329e-11 -7.64472e-11
1.10183e-23 -1.29247e-24 2.06795e-25
-2.72312e-10 -1.08955e-12 -1.01258e-11
1.42443e-12 -2.65384e-10 8.07474e-11
1.06882e-11 1.54084e-11 -2.44266e-11
2.13832e-11 7.61197e-11 1.05337e-10
-1.18063e-11 2.6179e-11 -1.98592e-11
-2.2751e-12 4.41533e-11 -3.45004e-11
2.95637e-09 -8.23307e-10 1.78413e-09
1.87642e-11 1.14269e-10 -4.63719e-11
8.84835e-11 -1.85956e-10 -3.73826e-10
-3.6821e-10 -5.62882e-10 6.18977e-10
2.41187e-10 6.47661e-11 -2.18034e-11
1.1117e-12 1.4466e-10 -3.80988e-11
4.00088e-12 5.40792e-11 -3.46272e-11
-5.08256e-11 3.04848e-10 -2.5507e-10
2.05459e-10 -9.79486e-11 -1.57627e-12
9.55727e-11 -2.84687e-10 2.06186e-10
-3.27813e-12 -4.40944e-11 1.8112e-11
-1.58408e-10 1.66273e-10 -1.38578e-10
1.94041e-10 -3.38963e-10 4.34177e-10
-2.70956e-10 1.08868e-10 1.46809e-10
1.50355e-10 6.4688e-11 1.65786e-10
5.01579e-10 -1.06651e-10 -2.30784e-10
3.75347e-11 2.88451e-10 -1.10676e-10
2.00651e-11 -1.15568e-09 1.2113e-09
6.39514e-11 5.07e-12 2.64399e-11
-9.762e-11 1.81671e-10 1.90911e-11
5.55675e-10 -7.34612e-12 2.58925e-10
-1.92891e-10 3.82743e-11 -4.45637e-12
-9.14641e-11 -1.80287e-10 1.11273e-10
-1.42526e-11 1.14809e-10 -9.52313e-11
-1.37328e-09 -2.44001e-10 -5.64009e-11
1.07097e-10 -2.11116e-10 8.73753e-11
4.09612e-11 -3.2662e-11 3.27638e-12
-1.93117e-09 1.65241e-09 9.66463e-10
-2.06682e-10 3.59519e-10 -5.76872e-11
9.31185e-11 9.11866e-11 1.11803e-11
-2.35051e-10 1.54252e-10 -1.96275e-11
9.85808e-11 -1.97182e-10 -6.8357e-11
9.36694e-11 4.01639e-10 -2.29016e-11
-4.07056e-11 5.45191e-11 -7.17097e-11
1.75318e-10 -1.30984e-11 5.2153e-11
1.7573e-10 -2.46622e-10 1.36537e-10
-3.07754e-10 6.03311e-11 -1.90119e-11
6.88606e-10 -3.37252e-10 1.4011e-10
3.48787e-12 -5.81019e-12 3.75359e-12
-1.34984e-10 1.18797e-10 4.53429e-10
-1.25254e-12 4.27112e-11 -1.17695e-10
-1.83734e-11 -6.56156e-12 4.47283e-12
-2.02882e-10 1.50794e-10 -1.27816e-10
-2.30281e-11 3.38518e-11 -3.38762e-11
1.0463e-10 3.75679e-10 -2.98404e-10
2.88575e-10 1.62094e-10 1.11362e-12
1.10895e-09 2.33103e-10 3.44805e-10
-7.9125e-22 5.09233e-23 2.29543e-23
0.0 0.0 0.0
-1.35653e-09 1.65556e-09 2.02475e-10
8.13072e-11 1.4317e-10 -1.30991e-11
2.16153e-10 -1.13893e-10 7.78681e-11
3.4339e-11 -8.41453e-11 -2.29481e-11
6.48816e-10 -5.69992e-10 5.71554e-10
-1.61883e-10 -5.07232e-10 2.28199e-10
3.01838e-11 -2.16392e-12 -1.56339e-12
-4.14444e-12 -1.67106e-10 2.80379e-11
-1.649e-10 -6.21268e-11 -6.84833e-12
-6.63837e-11 7.01428e-11 -4.06582e-11
-1.51511e-10 -9.63051e-12 -1.60222e-11
-4.31944e-11 3.61524e-11 -1.40054e-10
-3.72215e-10 -2.53051e-10 2.31809e-10
1.03573e-10 2.44578e-10 -4.6932e-12
7.5859e-12 3.67909e-10 -1.40304e-10