# vtk DataFile Version 3.0
LIGGGHTS particles timestep 25400000
ASCII
DATASET POLYDATA
POINTS 271 float
0.160742 0.0160143 0.00814231
0.161293 0.0174329 0.00728722
0.155254 0.0165287 0.00760683
0.161092 0.0168271 0.00753688
0.160721 0.0159525 0.00821815
0.166865 0.0164374 0.00775493
0.160826 0.0162653 0.00784273
0.160701 0.0158905 0.00829405
0.166986 0.0169155 0.00749097
0.161237 0.0180212 0.00711648
0.161313 0.0175274 0.00726165
0.154721 0.0160024 0.00833503
0.160642 0.0157047 0.00852196
0.155325 0.0180403 0.00728537
0.161163 0.0168702 0.00743895
0.155426 0.0177111 0.0072863
0.161206 0.0170588 0.00738805
0.160681 0.0158286 0.00836998
0.161217 0.0179267 0.00714207
0.161184 0.0169646 0.00741348
0.15491 0.0162643 0.00788115
0.16705 0.0172001 0.00742041
0.16098 0.0164854 0.00760137
0.166944 0.0167257 0.00753801
0.155234 0.0164378 0.00765125
0.161252 0.0172443 0.00733957
0.160842 0.0163236 0.00776312
0.161317 0.017965 0.00713751
0.161002 0.0165731 0.00755858
0.161024 0.0166609 0.00751574
0.166885 0.016484 0.00766883
0.160802 0.0162001 0.00791463
0.160884 0.0164672 0.00763328
0.167028 0.0171052 0.00744393
0.161414 0.0179999 0.0071337
0.161528 0.0176907 0.00722881
0.167106 0.0170477 0.00747073
0.161326 0.01718 0.00736117
0.321436 0.0173475 0.00552525
0.161273 0.0173384 0.00731283
0.166901 0.016536 0.00758505
0.160762 0.0160763 0.00806635
0.161395 0.0179053 0.00715938
0.160971 0.0168145 0.00745785
0.160949 0.0167237 0.00749376
0.154649 0.0158017 0.00867321
0.16708 0.0168883 0.00751165
0.161434 0.0180946 0.00710803
0.154587 0.0156522 0.0089258
0.161489 0.0179378 0.00715612
0.166923 0.0166309 0.00756153
0.161302 0.0170861 0.00738638
0.160863 0.0163865 0.00768807
0.161483 0.0174964 0.00728117
0.16112 0.016685 0.00749962
0.167127 0.0171427 0.0074472
0.154909 0.0165955 0.00766638
0.154564 0.0156028 0.00900971
0.161388 0.0174648 0.00728416
0.161067 0.0168415 0.00744106
0.161377 0.0182511 0.00705997
0.166965 0.0168206 0.00751449
0.154627 0.0157518 0.00875724
0.161374 0.017812 0.00718891
0.161452 0.0181894 0.00708228
0.161462 0.0174019 0.00730675
0.155271 0.0173877 0.0073181
0.161012 0.0168896 0.00751551
0.155375 0.0178762 0.00728591
0.154682 0.0159023 0.0085036
0.161334 0.0174768 0.0073673
0.155292 0.0174858 0.0073117
0.154739 0.016053 0.00825075
0.155332 0.0176814 0.00729899
0.167007 0.0170103 0.00746745
0.155298 0.0167084 0.00751921
0.161347 0.0172749 0.00733555
0.161652 0.0174652 0.00730077
0.161139 0.0173973 0.00737666
0.161408 0.0175593 0.0072586
0.161367 0.0173703 0.00730975
0.155278 0.0166204 0.00756216
0.161354 0.0177164 0.00721051
0.161014 0.0169982 0.00739312
0.161255 0.0176802 0.00721456
0.16115 0.0175177 0.00733853
0.161035 0.0170926 0.00736764
0.155007 0.016278 0.00784676
0.161236 0.0174391 0.00736939
0.154933 0.0166828 0.00762377
0.161429 0.017654 0.0072337
0.1547 0.0159524 0.00841902
0.0643568 0.0187248 0.00531097
0.24257 0.0191927 0.00520306
0.155197 0.0174548 0.00732439
0.155119 0.0163405 0.00773025
0.155063 0.0164748 0.00764821
0.155025 0.0163281 0.0077622
0.161315 0.0184027 0.00705569
0.160927 0.0166344 0.0075331
0.161056 0.017189 0.00738404
0.161192 0.0173937 0.00729198
0.155439 0.0173509 0.00729924
0.155056 0.0168776 0.00742558
0.15525 0.0181063 0.00729182
0.161228 0.0171559 0.00738014
0.161295 0.0183052 0.00703941
0.161557 0.0174335 0.00730378
0.155162 0.0177171 0.00731813
0.161141 0.016776 0.00746436
0.160958 0.0164085 0.00766591
0.160784 0.0161379 0.00799092
0.161031 0.0170835 0.00746714
0.155123 0.0175214 0.00733076
0.16108 0.0173212 0.00740342
0.161578 0.0175282 0.00727815
0.160906 0.0165474 0.00757743
0.155138 0.0164103 0.00766116
0.16111 0.0170306 0.00739
0.161217 0.017808 0.00726256
0.155161 0.0165038 0.00763385
0.161269 0.0176474 0.00730804
0.161256 0.0179271 0.00723433
0.161045 0.0167505 0.00747666
0.160662 0.0157667 0.00844595
0.155274 0.0182033 0.00728507
0.160992 0.0169039 0.00741859
0.161357 0.0181547 0.00708608
0.161212 0.0174883 0.00726638
0.155257 0.0177489 0.00730538
0.155103 0.0174236 0.00733729
0.154608 0.0157019 0.0088416
0.155202 0.0179128 0.00730549
0.155366 0.0174188 0.0073054
0.154761 0.0161019 0.00816617
0.16117 0.0172978 0.00731788
0.0100679 0.0201683 0.00551526
0.155136 0.0171609 0.00736034
0.155448 0.0178084 0.00727972
0.155182 0.017815 0.00731181
0.154776 0.0161551 0.00808291
0.155217 0.0175528 0.00731807
0.0219312 0.0187687 0.00551176
0.155362 0.016972 0.00739073
0.161503 0.0175912 0.00725555
0.155237 0.0176506 0.00731175
0.155312 0.0175836 0.00730536
0.155011 0.0166097 0.00755698
0.155211 0.0170947 0.00736028
0.161394 0.0183461 0.00703405
0.155087 0.0165527 0.00758829
0.155 0.0169537 0.00745878
0.155201 0.0166763 0.00753136
0.161276 0.0182105 0.00706514
0.155154 0.0170336 0.00746028
0.161334 0.0176219 0.00723608
0.155044 0.0163794 0.0076757
0.149173 0.0177303 0.00722972
0.155046 0.016788 0.00746995
0.155139 0.016823 0.00745599
0.155187 0.0169973 0.00737125
0.155345 0.0173197 0.00731193
0.161257 0.0181158 0.00709081
0.155185 0.0166005 0.00759515
0.161233 0.0175829 0.00724079
0.155083 0.0173261 0.00734686
0.161197 0.0178321 0.00716766
0.160994 0.0167912 0.00755228
0.161297 0.0178699 0.00716325
0.149447 0.0186045 0.0069288
0.161014 0.0169876 0.00749254
0.155416 0.0168267 0.00746504
0.161222 0.0167204 0.00748525
0.161461 0.0182058 0.00533758
0.155285 0.0170276 0.00736003
0.154929 0.0163144 0.0077966
0.149233 0.0180081 0.00713359
0.155349 0.0181372 0.00727862
0.155301 0.0179434 0.00729217
0.155069 0.0169665 0.0073819
0.15525 0.0172885 0.00732463
0.161073 0.0172647 0.00732116
0.154667 0.0158516 0.00858861
0.15534 0.0168842 0.00743351
0.154968 0.0164345 0.00764238
0.155035 0.0167007 0.00761337
0.155133 0.0173742 0.00741888
0.152078 0.0175738 0.00722702
0.161276 0.0177751 0.00718888
0.161176 0.0177375 0.00719325
0.155301 0.0171207 0.00732522
0.161337 0.01806 0.00711177
0.161115 0.0174535 0.0072701
0.149384 0.0187505 0.00687652
0.155254 0.017025 0.00745502
0.161471 0.0182856 0.00705608
0.154814 0.0162515 0.00791461
0.161147 0.0172005 0.00734403
0.155228 0.017189 0.00733134
0.215589 0.0196139 0.00729444
0.161442 0.0173072 0.00733237
0.155177 0.0173565 0.00733079
0.140095 0.0180244 0.00772579
0.161088 0.0169364 0.00741726
0.155091 0.0171108 0.00746741
0.149403 0.0184113 0.00699559
0.149193 0.0178229 0.00719771
0.155395 0.017151 0.00731253
0.154957 0.0167647 0.00750778
0.149153 0.0176378 0.00726174
0.155353 0.0177789 0.00729252
0.161323 0.0177988 0.00727393
0.155221 0.0167643 0.0074884
0.154936 0.0166684 0.00752489
0.154895 0.0165013 0.0076255
0.148983 0.016899 0.00751723
0.149004 0.0169913 0.0074853
0.149068 0.0172683 0.00738952
0.155143 0.0176193 0.00732445
0.149025 0.0170836 0.00745337
0.149132 0.0175453 0.00729374
0.155323 0.0172193 0.00731864
0.154978 0.01686 0.00748585
0.149365 0.0186577 0.00690866
0.154799 0.0162156 0.00800667
0.161094 0.017359 0.00729567
0.149271 0.0181937 0.00706934
0.14952 0.0185402 0.00695265
0.149111 0.017453 0.00732567
0.155277 0.0178467 0.00729905
0.155321 0.0167958 0.00747668
0.155113 0.0169171 0.00749716
0.155112 0.0170635 0.00737466
0.14929 0.0182865 0.0070372
0.155169 0.016909 0.00741441
0.154871 0.016416 0.00767171
0.149089 0.0173606 0.00735759
0.155511 0.0172818 0.00729325
0.149213 0.0179154 0.00716569
0.155156 0.0172581 0.00733941
0.154947 0.0163649 0.00771223
0.155042 0.0171341 0.00738352
0.155027 0.0169198 0.00754873
0.161135 0.0175484 0.00724443
0.155417 0.0172506 0.00730595
0.149327 0.0184721 0.00697293
0.154833 0.0163013 0.00782994
0.149308 0.0183793 0.00700507
0.154989 0.0165364 0.0076215
0.155063 0.0172292 0.00736079
0.155067 0.0170121 0.00750411
0.155438 0.0169144 0.00742232
0.149346 0.0185649 0.00694079
0.148961 0.0168066 0.00754915
0.155032 0.0166989 0.00751345
0.155107 0.0166456 0.0075515
0.15521 0.0171687 0.00742751
0.155244 0.0168517 0.00744588
0.155125 0.0167336 0.00749988
0.154892 0.0162142 0.00796566
0.155229 0.0177089 0.00739259
0.15502 0.0170443 0.0074218
0.155226 0.0180095 0.00729862
0.155263 0.0169399 0.00740275
0.154851 0.0163515 0.00774533
0.149423 0.018505 0.00696318
0.154915 0.0165806 0.00756765
0.161449 0.0177483 0.00720743
0.149047 0.017176 0.00742145
0.149252 0.0181009 0.00710148
0.161156 0.017643 0.00721883

VERTICES 271 542
1 0
1 1
1 2
1 3
1 4
1 5
1 6
1 7
1 8
1 9
1 10
1 11
1 12
1 13
1 14
1 15
1 16
1 17
1 18
1 19
1 20
1 21
1 22
1 23
1 24
1 25
1 26
1 27
1 28
1 29
1 30
1 31
1 32
1 33
1 34
1 35
1 36
1 37
1 38
1 39
1 40
1 41
1 42
1 43
1 44
1 45
1 46
1 47
1 48
1 49
1 50
1 51
1 52
1 53
1 54
1 55
1 56
1 57
1 58
1 59
1 60
1 61
1 62
1 63
1 64
1 65
1 66
1 67
1 68
1 69
1 70
1 71
1 72
1 73
1 74
1 75
1 76
1 77
1 78
1 79
1 80
1 81
1 82
1 83
1 84
1 85
1 86
1 87
1 88
1 89
1 90
1 91
1 92
1 93
1 94
1 95
1 96
1 97
1 98
1 99
1 100
1 101
1 102
1 103
1 104
1 105
1 106
1 107
1 108
1 109
1 110
1 111
1 112
1 113
1 114
1 115
1 116
1 117
1 118
1 119
1 120
1 121
1 122
1 123
1 124
1 125
1 126
1 127
1 128
1 129
1 130
1 131
1 132
1 133
1 134
1 135
1 136
1 137
1 138
1 139
1 140
1 141
1 142
1 143
1 144
1 145
1 146
1 147
1 148
1 149
1 150
1 151
1 152
1 153
1 154
1 155
1 156
1 157
1 158
1 159
1 160
1 161
1 162
1 163
1 164
1 165
1 166
1 167
1 168
1 169
1 170
1 171
1 172
1 173
1 174
1 175
1 176
1 177
1 178
1 179
1 180
1 181
1 182
1 183
1 184
1 185
1 186
1 187
1 188
1 189
1 190
1 191
1 192
1 193
1 194
1 195
1 196
1 197
1 198
1 199
1 200
1 201
1 202
1 203
1 204
1 205
1 206
1 207
1 208
1 209
1 210
1 211
1 212
1 213
1 214
1 215
1 216
1 217
1 218
1 219
1 220
1 221
1 222
1 223
1 224
1 225
1 226
1 227
1 228
1 229
1 230
1 231
1 232
1 233
1 234
1 235
1 236
1 237
1 238
1 239
1 240
1 241
1 242
1 243
1 244
1 245
1 246
1 247
1 248
1 249
1 250
1 251
1 252
1 253
1 254
1 255
1 256
1 257
1 258
1 259
1 260
1 261
1 262
1 263
1 264
1 265
1 266
1 267
1 268
1 269
1 270

POINT_DATA 271
SCALARS id int 1
LOOKUP_TABLE default
1
2
3
4
5
6
7
8
9
10
11
12
13
14
15
16
17
19
21
22
23
24
25
26
27
28
29
30
31
32
33
34
35
36
37
38
39
41
42
44
45
47
48
50
51
52
53
54
55
56
57
59
61
62
63
64
65
66
67
68
69
70
71
72
73
74
76
77
78
79
80
81
82
83
84
85
86
87
88
89
90
91
92
93
94
95
96
97
98
99
100
101
102
103
104
105
106
107
108
109
110
111
112
113
114
115
116
117
118
119
120
121
122
123
124
125
126
127
128
129
131
132
133
134
135
136
137
138
140
141
142
143
144
147
148
149
150
151
153
154
155
156
157
158
159
160
162
164
165
166
168
169
170
171
172
173
174
175
177
178
179
181
182
183
184
186
187
188
189
190
191
192
193
194
195
196
197
198
199
201
202
203
204
205
206
207
208
209
210
211
212
213
214
215
216
217
218
219
220
221
222
223
224
225
226
227
228
229
230
231
232
234
235
236
237
239
240
241
242
244
246
247
248
249
250
251
252
253
254
255
256
257
258
259
261
262
263
264
265
266
267
268
269
270
271
272
273
274
275
276
277
278
280
283
284
285
286
287
288
289
290
291
292
293
294
295
296
297
298
299
300

SCALARS type int 1
LOOKUP_TABLE default
1
1
1
1
1
1
1
1
1
1
1
1
1
1
1
1
1
1
1
1
1
1
1
1
1
1
1
1
1
1
1
1
1
1
1
1
1
1
1
1
1
1
1
1
1
1
1
1
1
1
1
1
1
1
1
1
1
1
1
1
1
1
1
1
1
1
1
1
1
1
1
1
1
1
1
1
1
1
1
1
1
1
1
1
1
1
1
1
1
1
1
1
1
1
1
1
1
1
1
1
1
1
1
1
1
1
1
1
1
1
1
1
1
1
1
1
1
1
1
1
1
1
1
1
1
1
1
1
1
1
1
1
1
1
1
1
1
1
1
1
1
1
1
1
1
1
1
1
1
1
1
1
1
1
1
1
1
1
1
1
1
1
1
1
1
1
1
1
1
1
1
1
1
1
1
1
1
1
1
1
1
1
1
1
1
1
1
1
1
1
1
1
1
1
1
1
1
1
1
1
1
1
1
1
1
1
1
1
1
1
1
1
1
1
1
1
1
1
1
1
1
1
1
1
1
1
1
1
1
1
1
1
1
1
1
1
1
1
1
1
1
1
1
1
1
1
1
1
1
1
1
1
1
1
1
1
1
1
1
1
1
1
1
1
1
1
1
1
1
1
1

SCALARS radius float 1
LOOKUP_TABLE default
5e-05
5e-05
5e-05
5e-05
5e-05
5e-05
5e-05
5e-05
5e-05
5e-05
5e-05
5e-05
5e-05
5e-05
5e-05
5e-05
5e-05
5e-05
5e-05
5e-05
5e-05
5e-05
5e-05
5e-05
5e-05
5e-05
5e-05
5e-05
5e-05
5e-05
5e-05
5e-05
5e-05
5e-05
5e-05
5e-05
5e-05
5e-05
5e-05
5e-05
5e-05
5e-05
5e-05
5e-05
5e-05
5e-05
5e-05
5e-05
5e-05
5e-05
5e-05
5e-05
5e-05
5e-05
5e-05
5e-05
5e-05
5e-05
5e-05
5e-05
5e-05
5e-05
5e-05
5e-05
5e-05
5e-05
5e-05
5e-05
5e-05
5e-05
5e-05
5e-05
5e-05
5e-05
5e-05
5e-05
5e-05
5e-05
5e-05
5e-05
5e-05
5e-05
5e-05
5e-05
5e-05
5e-05
5e-05
5e-05
5e-05
5e-05
5e-05
5e-05
5e-05
5e-05
5e-05
5e-05
5e-05
5e-05
5e-05
5e-05
5e-05
5e-05
5e-05
5e-05
5e-05
5e-05
5e-05
5e-05
5e-05
5e-05
5e-05
5e-05
5e-05
5e-05
5e-05
5e-05
5e-05
5e-05
5e-05
5e-05
5e-05
5e-05
5e-05
5e-05
5e-05
5e-05
5e-05
5e-05
5e-05
5e-05
5e-05
5e-05
5e-05
5e-05
5e-05
5e-05
5e-05
5e-05
5e-05
5e-05
5e-05
5e-05
5e-05
5e-05
5e-05
5e-05
5e-05
5e-05
5e-05
5e-05
5e-05
5e-05
5e-05
5e-05
5e-05
5e-05
5e-05
5e-05
5e-05
5e-05
5e-05
5e-05
5e-05
5e-05
5e-05
5e-05
5e-05
5e-05
5e-05
5e-05
5e-05
5e-05
5e-05
5e-05
5e-05
5e-05
5e-05
5e-05
5e-05
5e-05
5e-05
5e-05
5e-05
5e-05
5e-05
5e-05
5e-05
5e-05
5e-05
5e-05
5e-05
5e-05
5e-05
5e-05
5e-05
5e-05
5e-05
5e-05
5e-05
5e-05
5e-05
5e-05
5e-05
5e-05
5e-05
5e-05
5e-05
5e-05
5e-05
5e-05
5e-05
5e-05
5e-05
5e-05
5e-05
5e-05
5e-05
5e-05
5e-05
5e-05
5e-05
5e-05
5e-05
5e-05
5e-05
5e-05
5e-05
5e-05
5e-05
5e-05
5e-05
5e-05
5e-05
5e-05
5e-05
5e-05
5e-05
5e-05
5e-05
5e-05
5e-05
5e-05
5e-05
5e-05
5e-05
5e-05
5e-05
5e-05
5e-05
5e-05
5e-05
5e-05
5e-05
5e-05
5e-05
5e-05
5e-05
5e-05
5e-05
5e-05
5e-05
5e-05
5e-05
5e-05
5e-05
5e-05
5e-05
5e-05
5e-05
5e-05
5e-05

SCALARS mass float 1
LOOKUP_TABLE default
1.46608e-10
1.46608e-10
1.46608e-10
1.46608e-10
1.46608e-10
1.46608e-10
1.46608e-10
1.46608e-10
1.46608e-10
1.46608e-10
1.46608e-10
1.46608e-10
1.46608e-10
1.46608e-10
1.46608e-10
1.46608e-10
1.46608e-10
1.46608e-10
1.46608e-10
1.46608e-10
1.46608e-10
1.46608e-10
1.46608e-10
1.46608e-10
1.46608e-10
1.46608e-10
1.46608e-10
1.46608e-10
1.46608e-10
1.46608e-10
1.46608e-10
1.46608e-10
1.46608e-10
1.46608e-10
1.46608e-10
1.46608e-10
1.46608e-10
1.46608e-10
1.46608e-10
1.46608e-10
1.46608e-10
1.46608e-10
1.46608e-10
1.46608e-10
1.46608e-10
1.46608e-10
1.46608e-10
1.46608e-10
1.46608e-10
1.46608e-10
1.46608e-10
1.46608e-10
1.46608e-10
1.46608e-10
1.46608e-10
1.46608e-10
1.46608e-10
1.46608e-10
1.46608e-10
1.46608e-10
1.46608e-10
1.46608e-10
1.46608e-10
1.46608e-10
1.46608e-10
1.46608e-10
1.46608e-10
1.46608e-10
1.46608e-10
1.46608e-10
1.46608e-10
1.46608e-10
1.46608e-10
1.46608e-10
1.46608e-10
1.46608e-10
1.46608e-10
1.46608e-10
1.46608e-10
1.46608e-10
1.46608e-10
1.46608e-10
1.46608e-10
1.46608e-10
1.46608e-10
1.46608e-10
1.46608e-10
1.46608e-10
1.46608e-10
1.46608e-10
1.46608e-10
1.46608e-10
1.46608e-10
1.46608e-10
1.46608e-10
1.46608e-10
1.46608e-10
1.46608e-10
1.46608e-10
1.46608e-10
1.46608e-10
1.46608e-10
1.46608e-10
1.46608e-10
1.46608e-10
1.46608e-10
1.46608e-10
1.46608e-10
1.46608e-10
1.46608e-10
1.46608e-10
1.46608e-10
1.46608e-10
1.46608e-10
1.46608e-10
1.46608e-10
1.46608e-10
1.46608e-10
1.46608e-10
1.46608e-10
1.46608e-10
1.46608e-10
1.46608e-10
1.46608e-10
1.46608e-10
1.46608e-10
1.46608e-10
1.46608e-10
1.46608e-10
1.46608e-10
1.46608e-10
1.46608e-10
1.46608e-10
1.46608e-10
1.46608e-10
1.46608e-10
1.46608e-10
1.46608e-10
1.46608e-10
1.46608e-10
1.46608e-10
1.46608e-10
1.46608e-10
1.46608e-10
1.46608e-10
1.46608e-10
1.46608e-10
1.46608e-10
1.46608e-10
1.46608e-10
1.46608e-10
1.46608e-10
1.46608e-10
1.46608e-10
1.46608e-10
1.46608e-10
1.46608e-10
1.46608e-10
1.46608e-10
1.46608e-10
1.46608e-10
1.46608e-10
1.46608e-10
1.46608e-10
1.46608e-10
1.46608e-10
1.46608e-10
1.46608e-10
1.46608e-10
1.46608e-10
1.46608e-10
1.46608e-10
1.46608e-10
1.46608e-10
1.46608e-10
1.46608e-10
1.46608e-10
1.46608e-10
1.46608e-10
1.46608e-10
1.46608e-10
1.46608e-10
1.46608e-10
1.46608e-10
1.46608e-10
1.46608e-10
1.46608e-10
1.46608e-10
1.46608e-10
1.46608e-10
1.46608e-10
1.46608e-10
1.46608e-10
1.46608e-10
1.46608e-10
1.46608e-10
1.46608e-10
1.46608e-10
1.46608e-10
1.46608e-10
1.46608e-10
1.46608e-10
1.46608e-10
1.46608e-10
1.46608e-10
1.46608e-10
1.46608e-10
1.46608e-10
1.46608e-10
1.46608e-10
1.46608e-10
1.46608e-10
1.46608e-10
1.46608e-10
1.46608e-10
1.46608e-10
1.46608e-10
1.46608e-10
1.46608e-10
1.46608e-10
1.46608e-10
1.46608e-10
1.46608e-10
1.46608e-10
1.46608e-10
1.46608e-10
1.46608e-10
1.46608e-10
1.46608e-10
1.46608e-10
1.46608e-10
1.46608e-10
1.46608e-10
1.46608e-10
1.46608e-10
1.46608e-10
1.46608e-10
1.46608e-10
1.46608e-10
1.46608e-10
1.46608e-10
1.46608e-10
1.46608e-10
1.46608e-10
1.46608e-10
1.46608e-10
1.46608e-10
1.46608e-10
1.46608e-10
1.46608e-10
1.46608e-10
1.46608e-10
1.46608e-10
1.46608e-10
1.46608e-10
1.46608e-10
1.46608e-10
1.46608e-10
1.46608e-10
1.46608e-10
1.46608e-10
1.46608e-10
1.46608e-10
1.46608e-10
1.46608e-10
1.46608e-10
1.46608e-10
1.46608e-10
1.46608e-10
1.46608e-10
1.46608e-10

VECTORS velocity float
0.00578718 -0.000348502 0.00088642
0.00553504 -0.000670334 0.000539382
0.0064489 0.000729968 -0.000112133
0.00603989 -0.000790477 0.000623206
0.00576064 -0.000340473 0.000879579
0.00572079 -0.00154074 0.00123523
0.00600978 -0.000369668 0.000942025
0.00570967 -0.000345692 0.000880306
0.00573973 -0.00154456 0.00122995
0.0053791 -0.000656928 0.000527339
0.00555264 -0.000676492 0.000543333
0.00592569 0.000160834 -0.00101342
0.00530393 -0.000338511 0.000835445
0.00650685 0.000415723 -0.000807366
0.00607917 -0.000792555 0.000611434
0.00643606 0.000362011 -0.000796505
0.00599631 -0.000760939 0.000594979
0.00555013 -0.000342318 0.000864766
0.00557765 -0.000694783 0.000550226
0.00603395 -0.000776413 0.000601759
0.00625863 0.000105157 -0.000948074
0.00565165 -0.00152899 0.00121336
0.00605925 -0.00104772 0.00020563
0.00579856 -0.00155463 0.00124089
0.00649168 0.000737008 -0.00011221
0.00559715 -0.00068156 0.000525874
0.00604085 -0.00037463 0.000943781
0.00538334 -0.000657012 0.000527418
0.00607518 -0.00102612 0.000193985
0.00609328 -0.000988683 0.000169384
0.00580842 -0.00155937 0.00124721
0.00591873 -0.000361706 0.000930278
0.00607415 -0.000902375 0.000386619
0.00568099 -0.00153419 0.0012189
0.00539216 -0.000636939 0.00052211
0.0055785 -0.000726245 0.000559519
0.005681 -0.00153417 0.00121889
0.00574999 -0.000514207 0.000509341
4.60967e-16 2.25459e-15 8.4636e-14
0.00549895 -0.000656886 0.000533317
0.00586181 -0.00156772 0.00125281
0.00582064 -0.000369288 0.0009071
0.00535588 -0.000625716 0.000516366
0.00606459 -0.000875946 0.000506237
0.00608023 -0.000968524 0.000291816
0.00462793 0.000349471 -0.00118646
0.00574929 -0.0015165 0.00122347
0.00544405 -0.000644799 0.000527714
0.00640093 7.05844e-05 -0.000906729
0.00538024 -0.000643911 0.000523504
0.0058275 -0.00156031 0.00124648
0.00593927 -0.000563857 0.000535058
0.00607671 -0.000649532 0.000725347
0.00554509 -0.000670252 0.000542221
0.00608962 -0.00097559 0.00016646
0.00565165 -0.001529 0.00121336
0.00642805 0.000710816 -9.15869e-05
0.00631272 7.89444e-05 -0.000909221
0.00555107 -0.000668484 0.00054157
0.00605599 -0.000804751 0.000613593
0.00534646 -0.000625739 0.000516356
0.00576905 -0.00154975 0.00123555
0.00418482 0.000440817 -0.00124281
0.00561294 -0.000667717 0.000544807
0.00536219 -0.000621335 0.00051577
0.00553237 -0.000673851 0.000541446
0.00625607 0.000508318 -0.00078007
0.00605058 -0.000838635 0.000608638
0.0064997 0.000404446 -0.000806161
0.00557344 0.000228398 -0.00106379
0.00553372 -0.000673414 0.000537828
0.00625176 0.000454487 -0.000777996
0.00605144 0.000154353 -0.000990298
0.00641512 0.000420317 -0.000796695
0.00571039 -0.00153935 0.00122443
0.00637716 0.000714289 -0.000103994
0.00552157 -0.000469863 0.00048445
0.00553445 -0.000668291 0.000539841
0.00550898 -0.000560601 0.000521252
0.00555253 -0.000667654 0.000541017
0.00552101 -0.000689771 0.000544568
0.00639524 0.000716865 -0.000100431
0.00552788 -0.000653385 0.000535496
0.00601792 -0.000805321 0.000612325
0.0055234 -0.00073509 0.000557791
0.0055249 -0.00066083 0.000539514
0.00598824 -0.000792682 0.000605463
0.00627212 6.02105e-05 -0.000870278
0.00551633 -0.00060763 0.000517081
0.00644774 0.000707306 -8.88356e-05
0.00551767 -0.000661435 0.000535513
0.00585237 0.000181401 -0.00102292
4.56357e-15 1.04373e-14 8.29525e-14
2.18379e-22 2.24983e-22 1.23839e-22
0.00622403 0.00054031 -0.000774215
0.00636235 2.29404e-05 -0.000829698
0.00644013 0.000641317 -0.000143894
0.00634655 4.93342e-05 -0.000863137
0.00528266 -0.000627368 0.000508345
0.00608145 -0.00102339 0.000195715
0.00596215 -0.000780898 0.000601854
0.00550599 -0.000609286 0.000521198
0.00625168 0.000456664 -0.000779373
0.00633554 0.000701586 -9.61721e-05
0.00651175 0.000424378 -0.00080937
0.00596465 -0.000748476 0.000589025
0.0053133 -0.000646643 0.000521515
0.00553611 -0.000670739 0.00054155
0.00604055 0.00061264 -0.00075989
0.00610146 -0.000801424 0.000617868
0.00619321 -0.000409406 0.000986395
0.00584807 -0.000366678 0.000914633
0.00600568 -0.000802907 0.000605887
0.00616492 0.000591983 -0.000773601
0.00571421 -0.000700731 0.000561931
0.00551532 -0.000679783 0.00054191
0.00607597 -0.00103263 0.000207327
0.00649252 0.00071065 -9.80949e-05
0.00600232 -0.000779201 0.000601772
0.00557119 -0.000546308 0.000514634
0.00646632 0.000712917 -9.85693e-05
0.00555959 -0.000690352 0.000559484
0.00558545 -0.000677916 0.0005461
0.00609265 -0.000849708 0.000523182
0.00531467 -0.000335618 0.00083282
0.00629445 0.000482069 -0.000783567
0.00604194 -0.000817401 0.000614844
0.00543394 -0.000660012 0.00053123
0.00553191 -0.000660054 0.000538075
0.00602571 0.000664502 -0.00075863
0.00621199 0.000585214 -0.000745127
0.00461301 0.000371473 -0.0011783
0.00438909 0.000952154 -0.000571635
0.0062701 0.000476536 -0.000781761
0.0061206 0.000140283 -0.00098214
0.00558159 -0.000692556 0.000551679
8.38435e-15 1.24531e-15 -8.48744e-14
0.00630369 0.000635071 -0.000300363
0.00646262 0.000357167 -0.000799947
0.00598701 0.000621605 -0.000753291
0.0061135 0.000147179 -0.000979407
0.00614528 0.000655541 -0.00077313
-3.8359e-14 8.16473e-14 2.9589e-13
0.00638385 0.000718367 -0.000106455
0.00550994 -0.000674261 0.000539803
0.00607998 0.000664818 -0.000763294
0.00633373 0.00043733 -0.00078783
0.00644317 0.000688435 -8.67055e-05
0.00634883 0.00068434 -0.000171513
0.00528154 -0.000616246 0.000507524
0.00645401 0.00069995 -9.16816e-05
0.00631053 0.000694611 -0.000105219
0.00639339 0.000708546 -0.000100527
0.00542761 -0.000673282 0.000534523
0.00639917 0.000682967 -0.000169962
0.00554737 -0.000675044 0.000543906
0.00652723 0.000146614 -0.00105265
0.00554218 -0.00064284 0.000327512
0.0063943 0.000698255 -9.30488e-05
0.00639447 0.000701202 -9.55765e-05
0.00636131 0.000708832 -0.000104143
0.00623631 0.000501096 -0.000778156
0.00539363 -0.000667653 0.000530471
0.00640594 0.000674869 -9.86732e-05
0.00554344 -0.000687836 0.000546895
0.00624836 0.000591131 -0.00061865
0.00558307 -0.000568177 0.00051295
0.00590966 -0.00103526 0.000507067
0.00560224 -0.000671536 0.000545976
0.00550081 -0.000641576 0.000326217
0.00616095 -0.000855908 0.000609517
0.00639175 0.000715186 -0.000103854
0.00610918 -0.000797676 0.000613859
1.38787e-15 -1.10251e-14 8.66692e-14
0.00637803 0.000714528 -0.000105416
0.00633046 9.35744e-05 -0.000935932
0.00538992 -0.000616284 0.000314688
0.00627015 0.000465959 -0.000780707
0.00650369 0.000415633 -0.000807083
0.00631163 0.000700184 -9.84136e-05
0.00622508 0.000536218 -0.00077672
0.00593649 -0.000774109 0.000595358
0.00506656 0.0002861 -0.0011224
0.00639089 0.000715766 -0.000104097
0.00643063 0.000622913 -5.32008e-05
0.00640846 0.000683512 -8.91182e-05
0.00635951 0.000666929 -0.000743832
0.00538255 -0.00336591 0.00101715
0.00555339 -0.000607766 0.000523714
0.00550932 -0.000792198 0.000571161
0.00616511 0.000509426 -0.000771432
0.00539469 -0.000652023 0.000526488
0.00550633 -0.000621629 0.000524209
0.00553174 -0.000651829 0.00033011
0.00640099 0.000712213 -0.000102166
0.0052852 -0.000605729 0.000506057
0.00617608 0.000127876 -0.000968793
0.00595192 -0.000763405 0.000594427
0.00618196 0.000534841 -0.000778197
0.00407883 -0.00664896 -0.000807338
0.00558357 -0.000626868 0.000531366
0.00623573 0.000558877 -0.000781516
-0.0143666 0.0157753 -0.00305974
0.0060398 -0.000819035 0.000536097
0.00653795 0.000805348 -0.000309391
0.00543364 -0.00062558 0.000319336
0.00555909 -0.000648694 0.000329692
0.00617787 0.000484452 -0.000769313
0.00639784 0.000686656 -8.33095e-05
0.00551974 -0.000639866 0.000325806
0.00647097 0.000408547 -0.00080264
0.00557197 -0.000641969 0.000521382
0.00636462 0.000712698 -0.00010409
0.00643502 0.000681151 -8.612e-05
0.00640192 0.000542166 -0.000297176
0.0059646 -0.000736302 0.000367863
0.00593989 -0.0007306 0.000365478
0.00586761 -0.000712445 0.000357757
0.00610073 0.000602739 -0.000765958
0.00591636 -0.000725387 0.000363199
0.00579554 -0.000693518 0.000349814
0.00619668 0.000503346 -0.000774444
0.00635615 0.000689596 -8.26336e-05
0.00550066 -0.000641791 0.000326342
0.00611154 0.000149021 -0.000974327
0.00558205 -0.000706983 0.000552306
0.0053059 -0.000598913 0.000307554
0.00550179 -0.000640473 0.000325811
0.00581926 -0.000700093 0.000352505
0.00444389 0.000997283 -0.00058014
0.00638895 0.000710686 -0.00010199
0.00635805 0.000708964 -0.000115135
0.0063312 0.000675159 -0.000133564
0.00534012 -0.000603265 0.000310103
0.00637816 0.000705322 -0.000100382
0.00643051 0.000284428 -0.000763208
0.00584345 -0.000706283 0.000355185
0.00622918 0.000435187 -0.000774386
0.0053756 -0.000612829 0.000313957
0.00621948 0.000569549 -0.000735437
0.00640348 0.000145303 -0.000888388
0.00630144 0.000656608 -0.000213319
0.00636565 0.000709167 -0.000109034
0.00552555 -0.0006544 0.000537129
0.00621399 0.000467513 -0.000773472
0.00543611 -0.000623111 0.000318646
0.00626488 0.000111589 -0.000955601
0.00537189 -0.000608768 0.000312406
0.00640174 0.000553141 -0.000247498
0.00628093 0.000611579 -0.000425567
0.0064137 0.000641434 -0.000180852
0.0063885 0.000719198 -0.000106044
0.00546681 -0.000633938 0.000322653
0.00598889 -0.000742116 0.000370406
0.00640933 0.000689439 -9.0801e-05
0.00640597 0.000678092 -9.00981e-05
0.0065269 0.00107256 -0.000598383
0.0063855 0.000710792 -0.000101794
0.00640539 0.000708897 -0.000101332
0.00616838 0.000121859 -0.000959153
0.00603604 0.000656597 -0.00075925
0.00631356 0.00070119 -9.74714e-05
0.00650337 0.000419831 -0.000807068
0.00638743 0.000712083 -0.000102509
0.00637454 9.49035e-05 -0.000942283
0.00545883 -0.000642955 0.000325842
0.00644389 0.000681975 -8.70644e-05
0.00560374 -0.0006876 0.000549509
0.00589156 -0.000718699 0.000360401
0.00528037 -0.000591687 0.000304798
0.00552734 -0.000701327 0.000549015

VECTORS force float
6.59911e-10 -5.69088e-11 7.06949e-11
-7.20636e-11 2.63662e-11 -1.68359e-11
-5.4393e-12 -4.78139e-11 6.00048e-11
6.35703e-11 -6.73447e-12 -1.02405e-10
-1.97865e-10 -4.69469e-12 -2.68104e-10
2.97768e-11 -1.21388e-11 5.09532e-12
-3.99285e-11 1.85877e-10 -1.35482e-10
-1.17658e-10 -2.82881e-12 -2.93654e-10
-3.50705e-13 -2.87118e-13 8.90639e-13
-2.11997e-11 -4.21218e-11 1.21533e-11
3.97123e-11 6.47251e-11 7.21016e-12
-1.14148e-10 -3.09076e-11 2.28212e-11
1.97692e-11 -3.06642e-12 -3.14013e-11
1.84668e-12 5.94523e-11 -8.25562e-12
-2.53905e-11 -3.80031e-11 -3.32402e-11
1.07164e-11 6.32734e-12 -2.35162e-12
2.41463e-10 1.86491e-11 3.49233e-11
-1.87452e-10 1.45801e-10 -2.99514e-10
3.72439e-12 -5.13294e-11 1.9769e-11
5.16105e-11 -6.69546e-13 -7.56323e-11
-1.40782e-10 4.51335e-11 6.33925e-11
-4.96833e-13 2.6021e-13 -1.64182e-13
-9.27941e-11 -2.96795e-10 1.23409e-10
-3.77312e-12 1.152e-12 -2.98471e-12
2.88638e-11 -1.27226e-10 5.17383e-12
-2.01924e-10 1.12354e-10 1.39814e-11
-3.88177e-11 -1.14044e-11 -9.63268e-11
2.71616e-11 7.8903e-12 -2.14252e-12
-1.11874e-10 -1.94927e-10 1.5878e-10
-1.26684e-10 -3.68506e-11 2.86915e-11
-7.98491e-11 -2.88134e-12 1.00732e-11
6.08653e-10 -2.29259e-11 1.29061e-10
8.43647e-12 1.03899e-10 -1.68956e-10
-2.51693e-14 -6.05058e-13 3.12867e-13
-1.1752e-10 -1.15039e-10 2.35157e-11
-7.24265e-12 -1.52624e-10 3.75707e-11
-2.82028e-13 4.27824e-13 -1.32145e-13
-2.11378e-10 1.55573e-10 3.8289e-11
1.83854e-24 -2.0421e-24 0.0
-2.77715e-10 1.05785e-10 -1.51845e-11
8.37537e-11 1.96141e-11 -2.53812e-11
-6.91278e-11 -1.98465e-10 1.67961e-10
-1.35957e-10 -5.52941e-11 2.42373e-12
-8.01567e-12 -2.78301e-11 -4.39256e-11
-1.37734e-11 -1.24854e-10 -1.09162e-11
-1.94249e-10 -3.58685e-11 1.05957e-10
-9.423e-14 -1.51264e-13 -1.5306e-13
2.53763e-11 -9.9573e-11 3.01015e-11
-1.09233e-10 1.11419e-10 -1.54028e-10
-9.25201e-11 -1.817e-10 4.69781e-11
-1.14012e-11 -1.6663e-11 6.42923e-12
3.43909e-10 2.73095e-11 1.93019e-12
-3.10295e-10 1.17201e-10 -7.50757e-11
2.62386e-10 1.2396e-10 -4.01677e-11
-1.0931e-10 -5.94802e-11 3.58486e-11
-4.44884e-13 -1.35763e-13 -2.21129e-14
2.99051e-11 2.89036e-11 2.68815e-12
1.33772e-11 1.06166e-10 -1.9723e-10
5.64792e-11 4.7682e-11 -3.49414e-11
2.14794e-11 8.40944e-11 -4.03606e-11
6.28836e-11 8.37246e-11 -1.82651e-11
1.35293e-12 2.04227e-12 -3.54593e-13
-6.63933e-11 -1.60712e-11 1.64946e-11
9.69374e-12 -3.24592e-11 -2.34185e-11
1.544e-11 -8.13226e-11 2.43669e-11
-6.61264e-11 -5.85928e-11 -4.85885e-12
3.30707e-11 2.04148e-12 8.0256e-12
1.79864e-10 4.54296e-11 -3.04464e-11
5.56976e-11 1.18432e-10 -4.79241e-12
2.4664e-10 -1.00165e-10 1.63022e-10
1.88328e-10 -5.53811e-11 3.13751e-11
1.23281e-11 -5.97045e-11 1.15094e-11
-3.09986e-11 -2.8034e-11 1.08729e-11
-2.5982e-11 3.22823e-11 -5.73734e-12
-4.40545e-13 -5.27268e-14 -5.76129e-13
1.17663e-11 3.26837e-11 -6.93001e-12
-3.30849e-10 2.63793e-10 -7.43741e-11
-1.17494e-10 1.00396e-10 -3.38764e-11
-1.00738e-10 -7.25964e-11 -2.82782e-11
1.2428e-10 9.46638e-11 -3.02816e-11
-1.79692e-10 -9.91704e-11 1.63189e-11
2.95581e-11 5.93959e-11 -4.68051e-11
1.44158e-10 -3.03163e-11 8.53236e-12
4.00979e-11 8.17446e-11 -4.50552e-11
9.301e-11 2.72448e-11 -7.07037e-12
8.15891e-11 1.53835e-10 -2.78028e-11
6.90685e-12 7.02328e-11 -3.17819e-11
-3.62577e-11 1.97633e-11 -7.80741e-11
-3.99768e-11 2.6328e-11 -1.1987e-11
3.27197e-11 -9.93992e-11 8.85464e-12
1.23618e-10 2.40086e-11 1.29013e-11
4.07023e-11 -4.38209e-11 9.0019e-11
2.10094e-21 -7.73647e-22 -1.55096e-23
-3.23117e-27 0.0 0.0
-1.26801e-11 2.20746e-11 4.05216e-11
2.47738e-11 2.53498e-11 3.9796e-11
1.96624e-11 6.4988e-11 2.06997e-11
-5.52772e-11 -2.67374e-13 -8.55823e-11
-2.64368e-11 -5.12248e-11 -1.54912e-10
-8.9962e-11 -2.65137e-10 5.58759e-11
-6.65924e-11 -1.95701e-11 7.99281e-12
-2.19615e-11 9.8987e-11 -2.55972e-11
4.15565e-11 -2.09064e-11 -3.76368e-12
7.70675e-11 -5.20299e-12 1.64063e-11
-3.4605e-11 8.37194e-12 8.81629e-12
5.4198e-11 4.67768e-11 2.86418e-11
1.82488e-11 9.33625e-11 -1.85274e-11
1.33021e-11 -9.14555e-11 3.71003e-11
2.40113e-12 1.68963e-11 -9.30632e-12