# vtk DataFile Version 3.0
LIGGGHTS particles timestep 14200000
ASCII
DATASET POLYDATA
POINTS 287 float
0.0956353 0.0163674 0.00781033
0.0960789 0.0174316 0.00718029
0.0894025 0.015855 0.00821322
0.0959562 0.0177336 0.00710413
0.0955181 0.0162667 0.00788907
0.101633 0.0166861 0.00757965
0.0957031 0.0169672 0.00735553
0.0954097 0.0158878 0.00819673
0.101888 0.0178286 0.00707562
0.0956454 0.0167287 0.00752805
0.096119 0.0176229 0.00713241
0.0896162 0.016624 0.00764379
0.0954964 0.0161909 0.0079506
0.0893205 0.0156364 0.00853799
0.0958372 0.0171617 0.00724036
0.0893001 0.0155817 0.00861918
0.0956263 0.0166502 0.00758712
0.101769 0.0172553 0.00720585
0.0954747 0.0161151 0.00801213
0.0956136 0.0162916 0.00787186
0.0957415 0.0171293 0.00724484
0.0897976 0.0170042 0.00744553
0.101829 0.0175419 0.00714074
0.0956839 0.0168877 0.00741304
0.101711 0.0170024 0.00734735
0.0896981 0.0169729 0.00746636
0.0959368 0.0176384 0.00712794
0.095453 0.0160393 0.00807366
0.0959713 0.0173866 0.00720173
0.0957224 0.0170472 0.00729872
0.0958189 0.0170729 0.00728255
0.101654 0.016765 0.00752174
0.0956049 0.0165729 0.00764679
0.0958001 0.0169911 0.00733692
0.101927 0.01802 0.00703219
0.0957613 0.0168309 0.0074502
0.0959122 0.0170976 0.00725657
0.101849 0.0176375 0.00711903
0.0955615 0.0164189 0.00776679
0.0957615 0.0172251 0.00722455
0.0959323 0.0171933 0.00723602
0.101673 0.0168442 0.00746361
0.101749 0.0171606 0.00723109
0.0955832 0.016496 0.00770701
0.0958016 0.0174169 0.0071831
0.10173 0.0170815 0.00728924
0.0958614 0.0177021 0.00711174
0.0958416 0.017607 0.00713553
0.0895941 0.016536 0.00768592
0.101789 0.0173508 0.00718415
0.0955919 0.0162158 0.00793341
0.0893627 0.0157456 0.00837584
0.0957807 0.0169105 0.00739292
0.101692 0.0169233 0.00740548
0.0958368 0.0167761 0.00748605
0.0958564 0.0168555 0.00742857
0.0955398 0.0163425 0.00782754
0.0959521 0.0172892 0.00721545
0.095897 0.0174486 0.00717675
0.101809 0.0174464 0.00716244
0.0897128 0.0166507 0.00762322
0.0896485 0.0163877 0.00775566
0.0960991 0.0175271 0.00715639
0.0960118 0.0175743 0.00714428
0.0957003 0.0165949 0.00762555
0.101869 0.017733 0.00709733
0.089341 0.015691 0.00845679
0.0959918 0.0174791 0.00716808
0.0956647 0.0168082 0.00747054
0.0958573 0.0172576 0.00722049
0.0899248 0.0175428 0.00717487
0.0959916 0.0183388 0.0069524
0.0894228 0.0159081 0.00813099
0.089637 0.0167122 0.00760147
0.0959003 0.0178951 0.00708048
0.0895735 0.0164486 0.00772988
0.0897182 0.0170605 0.00742259
0.0897231 0.016328 0.00778491
0.101908 0.0179243 0.0070539
0.0895218 0.0159209 0.0080948
0.095917 0.0175435 0.00715208
0.0958174 0.0166977 0.00754509
0.0959367 0.0180712 0.00701937
0.0959201 0.0179931 0.00707951
0.0960579 0.0173365 0.00720406
0.0896577 0.0167992 0.00755685
0.09607 0.0178604 0.00707267
0.0960286 0.0180344 0.00703371
0.0961279 0.0181845 0.00699154
0.096018 0.0179211 0.00715185
0.0960885 0.0179557 0.00704881
0.0895297 0.016276 0.00782082
0.0959561 0.0181693 0.00702086
0.0896921 0.0165633 0.00766714
0.0960192 0.0171455 0.00724898
0.0896262 0.0163012 0.00780059
0.0643568 0.0187248 0.00531097
0.24257 0.0191927 0.00520306
0.0899914 0.0174092 0.00723657
0.0894866 0.0161043 0.00791391
0.0900708 0.017351 0.00726067
0.0894437 0.0159675 0.00805328
0.0957418 0.0167516 0.00750786
0.0958216 0.017512 0.00715934
0.0961981 0.0182536 0.00697441
0.095997 0.0183519 0.00705139
0.0895513 0.0163622 0.00777505
0.0903595 0.0180773 0.00698515
0.0899246 0.0171322 0.00737584
0.095877 0.0173533 0.00719924
0.0957214 0.0166736 0.00756702
0.0955702 0.01614 0.00799494
0.0893821 0.0158006 0.0082946
0.0958755 0.016935 0.00737105
0.0954313 0.0159635 0.0081352
0.095388 0.015812 0.00825826
0.0961851 0.0183498 0.00695024
0.0895607 0.0160486 0.00795121
0.0959916 0.0179274 0.00705561
0.0955485 0.0160642 0.00805647
0.0957815 0.0173209 0.00720373
0.0895089 0.0161906 0.00786849
0.0958808 0.0177973 0.00708793
0.0959971 0.0181104 0.00709051
0.0898192 0.0170921 0.00740132
0.0896699 0.0164759 0.00771114
0.0959754 0.0178288 0.0070803
0.0957311 0.0163925 0.00779291
0.0958949 0.0170155 0.00731289
0.0955268 0.0159884 0.008118
0.0895023 0.0158719 0.00817974
0.0960112 0.0184372 0.00695179
0.0956787 0.0165189 0.00768727
0.0960883 0.0183741 0.00694385
0.0895383 0.0159705 0.00800954
0.0899445 0.0172199 0.00733183
0.089467 0.0160358 0.00798399
0.0899051 0.0170444 0.00741987
0.0897457 0.0164157 0.00773641
0.0894821 0.015823 0.00826459
0.0897786 0.0173231 0.00729082
0.0961011 0.0182779 0.00696802
0.0897888 0.0165908 0.00764832
0.0901772 0.0174041 0.00722877
0.0896046 0.0162163 0.00784933
0.0898788 0.0173554 0.00726916
0.0899441 0.0176311 0.0071306
0.0898587 0.0172676 0.00731324
0.0219312 0.0187687 0.00551176
0.0899572 0.0175173 0.00726596
0.0960315 0.0176698 0.00712037
0.0898362 0.0175864 0.00715899
0.0897985 0.0174106 0.0072466
0.0900763 0.0179829 0.00695603
0.0902571 0.0177543 0.00705297
0.0956876 0.0162409 0.00791599
0.0897681 0.0165033 0.00769227
0.0900846 0.0174396 0.00721652
0.0902651 0.0180459 0.00697544
0.0901258 0.0175527 0.00715888
0.0957094 0.0163167 0.00785446
0.0902401 0.0176661 0.00709705
0.096159 0.0178163 0.00708401
0.0900368 0.0175955 0.00714288
0.0838335 0.0175897 0.0072329
0.0898386 0.0171798 0.00735731
0.0898757 0.017763 0.00707401
0.0903232 0.0179649 0.00696789
0.0902285 0.0179327 0.00696937
0.0898183 0.0174926 0.00730241
0.095657 0.0164432 0.0077488
0.0900177 0.0175078 0.00718687
0.0960104 0.0178153 0.00717301
0.0897587 0.0172354 0.00733453
0.0898248 0.0173972 0.00734217
0.0959983 0.0170533 0.0072815
0.0960461 0.0181286 0.0070053
0.096039 0.0172413 0.00722791
0.0839507 0.0177121 0.00717446
0.0960297 0.0185242 0.00690601
0.0900326 0.0171755 0.00734866
0.0957957 0.0166204 0.00760786
0.0898353 0.0167708 0.00755764
0.0902521 0.0178441 0.0070093
0.0892796 0.0155271 0.00870037
0.0838905 0.0178598 0.00711529
0.0896783 0.0168853 0.00751033
0.0898171 0.0174984 0.00720259
0.0897765 0.0169156 0.00749004
0.0902141 0.0181315 0.00698403
0.0900526 0.0172631 0.0073047
0.0962746 0.0181912 0.00699032
0.0897564 0.0168276 0.00753422
0.0900702 0.0178714 0.00705566
0.0900561 0.0176832 0.00709889
0.0895832 0.0161319 0.0079006
0.089899 0.0174452 0.00722411
0.089811 0.0166796 0.00760365
0.0958801 0.0176692 0.00720432
0.0961226 0.0180661 0.00702121
0.0901451 0.0176404 0.00711489
0.0959817 0.0169733 0.00733921
0.0960957 0.0180332 0.00711169
0.0839307 0.017621 0.00721422
0.0898552 0.0176739 0.00711459
0.0957529 0.0164684 0.00773131
0.0899871 0.0178193 0.00703614
0.0959722 0.0182567 0.00706919
0.0898867 0.0176576 0.00720807
0.0838298 0.0171687 0.00741149
0.0957744 0.0165444 0.00766965
0.0899645 0.0173074 0.00728787
0.0897394 0.0171484 0.00737973
0.0960508 0.0177652 0.0070965
0.0902 0.017491 0.00718496
0.0838906 0.017439 0.00729357
0.0838525 0.0176798 0.0071937
0.0898674 0.0175691 0.00725242
0.0901388 0.0181971 0.00698852
0.0838141 0.0174998 0.00727209
0.0896999 0.0162436 0.0078361
0.0898623 0.0168677 0.00750875
0.0960071 0.018243 0.00697649
0.0901018 0.018457 0.0070214
0.0901579 0.0182942 0.00700271
0.0902524 0.0183257 0.00701242
0.0836311 0.0166922 0.00762455
0.0836929 0.0169612 0.00750709
0.0836099 0.0166026 0.00766368
0.0899933 0.0170002 0.00743661
0.0897341 0.0167386 0.00757901
0.0836521 0.0167818 0.00758541
0.0837746 0.0173201 0.00735045
0.090008 0.0179135 0.00698888
0.0903085 0.018163 0.00699374
0.0839097 0.0179509 0.0070788
0.0899703 0.0177311 0.00708022
0.0962044 0.018122 0.00700745
0.0839483 0.018135 0.0070109
0.0838704 0.0173484 0.00733306
0.0837542 0.0172304 0.00738961
0.0894616 0.0157704 0.00834717
0.0900729 0.0177714 0.00705483
0.0899308 0.018036 0.00696765
0.0899558 0.0179103 0.00707414
0.0839676 0.018227 0.00697696
0.0898838 0.0169569 0.00746391
0.0900821 0.01836 0.00700719
0.0902332 0.0182286 0.00699822
0.0837338 0.0171407 0.00742877
0.08995 0.0181341 0.00696909
0.0838715 0.0177698 0.00715449
0.0901635 0.0173154 0.00727293
0.0900253 0.0180684 0.00696461
0.089948 0.0173998 0.00732615
0.0899116 0.0179403 0.00698958
0.0961777 0.017912 0.00706005
0.0901621 0.0177286 0.00707081
0.0840062 0.0184112 0.00690906
0.0899877 0.0183284 0.00699746
0.0839869 0.0183191 0.00694301
0.0899974 0.0180021 0.00703403
0.0898922 0.0178495 0.00702663
0.0900066 0.0184256 0.00701165
0.0901335 0.0179069 0.00698692
0.0837946 0.0174099 0.00731128
0.083971 0.0178036 0.00713456
0.089972 0.0169129 0.00748051
0.0838502 0.0172584 0.00737233
0.0836725 0.0168715 0.00754625
0.0900633 0.0182628 0.006993
0.0900444 0.0181656 0.00697892
0.0899688 0.0182309 0.00698536
0.0901197 0.0181 0.00697434
0.0900396 0.0183061 0.00707996
0.0899516 0.0168255 0.00752445
0.0900127 0.0170879 0.00739262
0.0901705 0.0180141 0.00696785
0.0896782 0.01616 0.00788695
0.0901568 0.0178184 0.00702716
0.0900264 0.0185225 0.00702587
0.0839108 0.0175299 0.00725392
0.0901771 0.0183913 0.00701691
0.0959629 0.0168937 0.00739676
0.0837133 0.0170509 0.00746793
0.083929 0.0180429 0.00704485
0.0961386 0.0177188 0.00710842

VERTICES 287 574
1 0
1 1
1 2
1 3
1 4
1 5
1 6
1 7
1 8
1 9
1 10
1 11
1 12
1 13
1 14
1 15
1 16
1 17
1 18
1 19
1 20
1 21
1 22
1 23
1 24
1 25
1 26
1 27
1 28
1 29
1 30
1 31
1 32
1 33
1 34
1 35
1 36
1 37
1 38
1 39
1 40
1 41
1 42
1 43
1 44
1 45
1 46
1 47
1 48
1 49
1 50
1 51
1 52
1 53
1 54
1 55
1 56
1 57
1 58
1 59
1 60
1 61
1 62
1 63
1 64
1 65
1 66
1 67
1 68
1 69
1 70
1 71
1 72
1 73
1 74
1 75
1 76
1 77
1 78
1 79
1 80
1 81
1 82
1 83
1 84
1 85
1 86
1 87
1 88
1 89
1 90
1 91
1 92
1 93
1 94
1 95
1 96
1 97
1 98
1 99
1 100
1 101
1 102
1 103
1 104
1 105
1 106
1 107
1 108
1 109
1 110
1 111
1 112
1 113
1 114
1 115
1 116
1 117
1 118
1 119
1 120
1 121
1 122
1 123
1 124
1 125
1 126
1 127
1 128
1 129
1 130
1 131
1 132
1 133
1 134
1 135
1 136
1 137
1 138
1 139
1 140
1 141
1 142
1 143
1 144
1 145
1 146
1 147
1 148
1 149
1 150
1 151
1 152
1 153
1 154
1 155
1 156
1 157
1 158
1 159
1 160
1 161
1 162
1 163
1 164
1 165
1 166
1 167
1 168
1 169
1 170
1 171
1 172
1 173
1 174
1 175
1 176
1 177
1 178
1 179
1 180
1 181
1 182
1 183
1 184
1 185
1 186
1 187
1 188
1 189
1 190
1 191
1 192
1 193
1 194
1 195
1 196
1 197
1 198
1 199
1 200
1 201
1 202
1 203
1 204
1 205
1 206
1 207
1 208
1 209
1 210
1 211
1 212
1 213
1 214
1 215
1 216
1 217
1 218
1 219
1 220
1 221
1 222
1 223
1 224
1 225
1 226
1 227
1 228
1 229
1 230
1 231
1 232
1 233
1 234
1 235
1 236
1 237
1 238
1 239
1 240
1 241
1 242
1 243
1 244
1 245
1 246
1 247
1 248
1 249
1 250
1 251
1 252
1 253
1 254
1 255
1 256
1 257
1 258
1 259
1 260
1 261
1 262
1 263
1 264
1 265
1 266
1 267
1 268
1 269
1 270
1 271
1 272
1 273
1 274
1 275
1 276
1 277
1 278
1 279
1 280
1 281
1 282
1 283
1 284
1 285
1 286

POINT_DATA 287
SCALARS id int 1
LOOKUP_TABLE default
1
2
3
4
5
6
7
8
9
10
11
12
13
14
15
16
17
18
19
21
22
23
24
25
26
27
28
29
30
31
32
33
34
35
36
37
38
39
41
42
44
45
46
47
48
49
50
51
52
53
54
55
56
57
59
60
61
62
63
64
65
66
67
68
69
70
71
72
73
74
76
77
78
79
80
81
82
83
84
85
86
87
88
89
90
91
92
93
94
95
96
97
98
99
100
101
102
103
104
105
106
107
108
109
110
111
112
113
114
115
116
117
118
119
120
121
122
123
124
125
126
127
128
129
130
131
132
133
134
135
136
137
138
140
141
142
143
144
146
147
148
149
150
151
153
154
155
156
157
158
159
160
162
164
165
166
167
168
169
170
171
172
173
174
175
176
177
178
179
181
182
183
184
185
186
187
188
189
190
191
192
193
194
195
196
197
198
199
200
201
202
203
204
205
206
207
208
209
210
211
212
213
214
215
216
217
218
219
220
221
222
223
224
225
226
227
228
229
230
231
232
233
234
235
236
237
239
240
241
242
243
244
246
247
248
249
250
251
252
253
254
255
256
257
258
259
260
261
262
263
264
265
266
267
268
269
270
271
272
273
274
275
276
277
278
279
280
281
282
283
284
285
286
287
288
289
290
291
292
293
294
295
296
297
298
299
300

SCALARS type int 1
LOOKUP_TABLE default
1
1
1
1
1
1
1
1
1
1
1
1
1
1
1
1
1
1
1
1
1
1
1
1
1
1
1
1
1
1
1
1
1
1
1
1
1
1
1
1
1
1
1
1
1
1
1
1
1
1
1
1
1
1
1
1
1
1
1
1
1
1
1
1
1
1
1
1
1
1
1
1
1
1
1
1
1
1
1
1
1
1
1
1
1
1
1
1
1
1
1
1
1
1
1
1
1
1
1
1
1
1
1
1
1
1
1
1
1
1
1
1
1
1
1
1
1
1
1
1
1
1
1
1
1
1
1
1
1
1
1
1
1
1
1
1
1
1
1
1
1
1
1
1
1
1
1
1
1
1
1
1
1
1
1
1
1
1
1
1
1
1
1
1
1
1
1
1
1
1
1
1
1
1
1
1
1
1
1
1
1
1
1
1
1
1
1
1
1
1
1
1
1
1
1
1
1
1
1
1
1
1
1
1
1
1
1
1
1
1
1
1
1
1
1
1
1
1
1
1
1
1
1
1
1
1
1
1
1
1
1
1
1
1
1
1
1
1
1
1
1
1
1
1
1
1
1
1
1
1
1
1
1
1
1
1
1
1
1
1
1
1
1
1
1
1
1
1
1
1
1
1
1
1
1
1
1
1
1
1
1
1
1
1
1
1
1

SCALARS radius float 1
LOOKUP_TABLE default
5e-05
5e-05
5e-05
5e-05
5e-05
5e-05
5e-05
5e-05
5e-05
5e-05
5e-05
5e-05
5e-05
5e-05
5e-05
5e-05
5e-05
5e-05
5e-05
5e-05
5e-05
5e-05
5e-05
5e-05
5e-05
5e-05
5e-05
5e-05
5e-05
5e-05
5e-05
5e-05
5e-05
5e-05
5e-05
5e-05
5e-05
5e-05
5e-05
5e-05
5e-05
5e-05
5e-05
5e-05
5e-05
5e-05
5e-05
5e-05
5e-05
5e-05
5e-05
5e-05
5e-05
5e-05
5e-05
5e-05
5e-05
5e-05
5e-05
5e-05
5e-05
5e-05
5e-05
5e-05
5e-05
5e-05
5e-05
5e-05
5e-05
5e-05
5e-05
5e-05
5e-05
5e-05
5e-05
5e-05
5e-05
5e-05
5e-05
5e-05
5e-05
5e-05
5e-05
5e-05
5e-05
5e-05
5e-05
5e-05
5e-05
5e-05
5e-05
5e-05
5e-05
5e-05
5e-05
5e-05
5e-05
5e-05
5e-05
5e-05
5e-05
5e-05
5e-05
5e-05
5e-05
5e-05
5e-05
5e-05
5e-05
5e-05
5e-05
5e-05
5e-05
5e-05
5e-05
5e-05
5e-05
5e-05
5e-05
5e-05
5e-05
5e-05
5e-05
5e-05
5e-05
5e-05
5e-05
5e-05
5e-05
5e-05
5e-05
5e-05
5e-05
5e-05
5e-05
5e-05
5e-05
5e-05
5e-05
5e-05
5e-05
5e-05
5e-05
5e-05
5e-05
5e-05
5e-05
5e-05
5e-05
5e-05
5e-05
5e-05
5e-05
5e-05
5e-05
5e-05
5e-05
5e-05
5e-05
5e-05
5e-05
5e-05
5e-05
5e-05
5e-05
5e-05
5e-05
5e-05
5e-05
5e-05
5e-05
5e-05
5e-05
5e-05
5e-05
5e-05
5e-05
5e-05
5e-05
5e-05
5e-05
5e-05
5e-05
5e-05
5e-05
5e-05
5e-05
5e-05
5e-05
5e-05
5e-05
5e-05
5e-05
5e-05
5e-05
5e-05
5e-05
5e-05
5e-05
5e-05
5e-05
5e-05
5e-05
5e-05
5e-05
5e-05
5e-05
5e-05
5e-05
5e-05
5e-05
5e-05
5e-05
5e-05
5e-05
5e-05
5e-05
5e-05
5e-05
5e-05
5e-05
5e-05
5e-05
5e-05
5e-05
5e-05
5e-05
5e-05
5e-05
5e-05
5e-05
5e-05
5e-05
5e-05
5e-05
5e-05
5e-05
5e-05
5e-05
5e-05
5e-05
5e-05
5e-05
5e-05
5e-05
5e-05
5e-05
5e-05
5e-05
5e-05
5e-05
5e-05
5e-05
5e-05
5e-05
5e-05
5e-05
5e-05
5e-05
5e-05
5e-05
5e-05
5e-05
5e-05
5e-05
5e-05
5e-05
5e-05
5e-05
5e-05
5e-05
5e-05
5e-05
5e-05
5e-05
5e-05
5e-05
5e-05
5e-05
5e-05
5e-05
5e-05
5e-05
5e-05
5e-05
5e-05
5e-05

SCALARS mass float 1
LOOKUP_TABLE default
1.46608e-10
1.46608e-10
1.46608e-10
1.46608e-10
1.46608e-10
1.46608e-10
1.46608e-10
1.46608e-10
1.46608e-10
1.46608e-10
1.46608e-10
1.46608e-10
1.46608e-10
1.46608e-10
1.46608e-10
1.46608e-10
1.46608e-10
1.46608e-10
1.46608e-10
1.46608e-10
1.46608e-10
1.46608e-10
1.46608e-10
1.46608e-10
1.46608e-10
1.46608e-10
1.46608e-10
1.46608e-10
1.46608e-10
1.46608e-10
1.46608e-10
1.46608e-10
1.46608e-10
1.46608e-10
1.46608e-10
1.46608e-10
1.46608e-10
1.46608e-10
1.46608e-10
1.46608e-10
1.46608e-10
1.46608e-10
1.46608e-10
1.46608e-10
1.46608e-10
1.46608e-10
1.46608e-10
1.46608e-10
1.46608e-10
1.46608e-10
1.46608e-10
1.46608e-10
1.46608e-10
1.46608e-10
1.46608e-10
1.46608e-10
1.46608e-10
1.46608e-10
1.46608e-10
1.46608e-10
1.46608e-10
1.46608e-10
1.46608e-10
1.46608e-10
1.46608e-10
1.46608e-10
1.46608e-10
1.46608e-10
1.46608e-10
1.46608e-10
1.46608e-10
1.46608e-10
1.46608e-10
1.46608e-10
1.46608e-10
1.46608e-10
1.46608e-10
1.46608e-10
1.46608e-10
1.46608e-10
1.46608e-10
1.46608e-10
1.46608e-10
1.46608e-10
1.46608e-10
1.46608e-10
1.46608e-10
1.46608e-10
1.46608e-10
1.46608e-10
1.46608e-10
1.46608e-10
1.46608e-10
1.46608e-10
1.46608e-10
1.46608e-10
1.46608e-10
1.46608e-10
1.46608e-10
1.46608e-10
1.46608e-10
1.46608e-10
1.46608e-10
1.46608e-10
1.46608e-10
1.46608e-10
1.46608e-10
1.46608e-10
1.46608e-10
1.46608e-10
1.46608e-10
1.46608e-10
1.46608e-10
1.46608e-10
1.46608e-10
1.46608e-10
1.46608e-10
1.46608e-10
1.46608e-10
1.46608e-10
1.46608e-10
1.46608e-10
1.46608e-10
1.46608e-10
1.46608e-10
1.46608e-10
1.46608e-10
1.46608e-10
1.46608e-10
1.46608e-10
1.46608e-10
1.46608e-10
1.46608e-10
1.46608e-10
1.46608e-10
1.46608e-10
1.46608e-10
1.46608e-10
1.46608e-10
1.46608e-10
1.46608e-10
1.46608e-10
1.46608e-10
1.46608e-10
1.46608e-10
1.46608e-10
1.46608e-10
1.46608e-10
1.46608e-10
1.46608e-10
1.46608e-10
1.46608e-10
1.46608e-10
1.46608e-10
1.46608e-10
1.46608e-10
1.46608e-10
1.46608e-10
1.46608e-10
1.46608e-10
1.46608e-10
1.46608e-10
1.46608e-10
1.46608e-10
1.46608e-10
1.46608e-10
1.46608e-10
1.46608e-10
1.46608e-10
1.46608e-10
1.46608e-10
1.46608e-10
1.46608e-10
1.46608e-10
1.46608e-10
1.46608e-10
1.46608e-10
1.46608e-10
1.46608e-10
1.46608e-10
1.46608e-10
1.46608e-10
1.46608e-10
1.46608e-10
1.46608e-10
1.46608e-10
1.46608e-10
1.46608e-10
1.46608e-10
1.46608e-10
1.46608e-10
1.46608e-10
1.46608e-10
1.46608e-10
1.46608e-10
1.46608e-10
1.46608e-10
1.46608e-10
1.46608e-10
1.46608e-10
1.46608e-10
1.46608e-10
1.46608e-10
1.46608e-10
1.46608e-10
1.46608e-10
1.46608e-10
1.46608e-10
1.46608e-10
1.46608e-10
1.46608e-10
1.46608e-10
1.46608e-10
1.46608e-10
1.46608e-10
1.46608e-10
1.46608e-10
1.46608e-10
1.46608e-10
1.46608e-10
1.46608e-10
1.46608e-10
1.46608e-10
1.46608e-10
1.46608e-10
1.46608e-10
1.46608e-10
1.46608e-10
1.46608e-10
1.46608e-10
1.46608e-10
1.46608e-10
1.46608e-10
1.46608e-10
1.46608e-10
1.46608e-10
1.46608e-10
1.46608e-10
1.46608e-10
1.46608e-10
1.46608e-10
1.46608e-10
1.46608e-10
1.46608e-10
1.46608e-10
1.46608e-10
1.46608e-10
1.46608e-10
1.46608e-10
1.46608e-10
1.46608e-10
1.46608e-10
1.46608e-10
1.46608e-10
1.46608e-10
1.46608e-10
1.46608e-10
1.46608e-10
1.46608e-10
1.46608e-10
1.46608e-10
1.46608e-10
1.46608e-10
1.46608e-10
1.46608e-10
1.46608e-10
1.46608e-10
1.46608e-10
1.46608e-10
1.46608e-10
1.46608e-10
1.46608e-10
1.46608e-10
1.46608e-10
1.46608e-10
1.46608e-10
1.46608e-10
1.46608e-10
1.46608e-10
1.46608e-10
1.46608e-10
1.46608e-10
1.46608e-10
1.46608e-10
1.46608e-10
1.46608e-10
1.46608e-10

VECTORS velocity float
0.00615724 -5.77409e-05 0.000256472
0.00564232 -0.000100429 4.28246e-05
0.00605687 -7.34877e-05 0.000671176
0.00552949 -9.65037e-06 1.94463e-05
0.00614127 -5.73785e-05 0.00025412
0.00625284 0.000283057 8.48207e-05
0.00579295 -0.000173124 -0.000144932
0.00609074 -9.26486e-05 0.000283392
0.0056148 0.000314913 -0.000225607
0.00564625 -0.000164462 -0.000127748
0.00553493 -1.05316e-05 1.99238e-05
0.00593984 -0.000551795 -6.2433e-05
0.00613014 -6.26444e-05 0.000258976
0.00591123 -7.0516e-05 0.000658415
0.00560798 -5.85031e-06 0.000165093
0.00585198 -5.80631e-05 0.00063337
0.0056068 -0.000158575 3.56723e-07
0.00562545 0.000322865 -0.000223983
0.00612224 -6.95521e-05 0.000265607
0.00615215 -5.17163e-05 0.000251289
0.00560816 4.57892e-06 0.000142881
0.00559843 -0.000530098 -5.06278e-05
0.00571734 0.000298476 -0.000224173
0.00575499 -0.000153848 -0.000138919
0.00584915 0.000324002 3.04237e-05
0.00560973 -0.000492551 -6.93074e-05
0.00554287 -1.07035e-05 2.00185e-05
0.00611454 -7.83894e-05 0.000272413
0.00567799 -5.70358e-05 -1.06929e-05
0.00581942 -0.00027627 -0.000227118
0.00553161 -3.46065e-05 9.25797e-05
0.00573383 0.000364264 3.65244e-06
0.00616085 -0.000161806 0.000186916
0.00540875 -0.000134547 -8.55341e-05
0.00560282 0.000300821 -0.000222235
0.00544834 -0.00014829 -0.000118545
0.00549435 -8.86373e-06 0.000145463
0.00571948 0.000299955 -0.000225344
0.00616527 -7.25482e-05 0.000243074
0.00561488 1.1225e-05 0.000170477
0.00559687 -2.82255e-05 0.000151353
0.00578158 0.000349984 1.79663e-05
0.00565253 0.000377632 -3.04705e-05
0.00618636 -0.000110368 0.000232921
0.00561709 -3.81211e-05 7.41636e-05
0.00578917 0.000360387 6.85033e-06
0.00553298 -2.58712e-05 2.58443e-05
0.00564985 -5.18031e-05 2.8814e-05
0.00609419 -0.00058838 -5.23405e-05
0.00568079 0.000296758 -0.000231435
0.00612937 -6.8461e-05 0.000265312
0.00595424 -7.6391e-05 0.000673401
0.00535395 -0.000178548 -0.000173825
0.00581382 0.000328877 2.73001e-05
0.00544723 -0.000176034 -0.00013681
0.00545766 -0.000149374 -0.00012731
0.00615316 -5.60954e-05 0.000252567
0.00562685 -4.25443e-05 0.000161948
0.00566769 -3.19908e-05 9.56933e-05
0.00571433 0.000296505 -0.000223245
0.00585294 -0.000325535 -0.000166326
0.00613012 -0.000589078 -9.23133e-05
0.00571312 0.000267299 -5.00956e-05
0.00560901 7.56344e-05 -4.14639e-06
0.00565847 2.65075e-05 0.000168239
0.00572952 0.000297493 -0.000224928
0.00592025 -9.10534e-05 0.000670558
0.00566781 -4.67296e-05 3.10527e-05
0.00570136 -0.000154626 -0.000134418
0.00562178 -4.40207e-06 0.000185164
0.00561616 -0.000428649 -9.90144e-05
0.00562142 -1.79129e-05 2.16766e-05
0.00611181 -0.000164269 0.000618099
0.0056876 -0.000503601 -8.61349e-05
0.00550103 -3.37785e-05 1.75656e-06
0.00611563 -0.000602339 -6.76964e-05
0.00562227 -0.000504106 -6.5602e-05
0.00609601 -0.000358558 0.00045545
0.00559585 0.000309625 -0.000223837
0.00617299 -0.000434204 0.000319246
0.00565895 -4.42558e-05 3.27899e-05
0.00548837 1.831e-05 0.000177395
0.00554595 -3.70354e-05 2.32087e-05
0.00552128 -2.25901e-05 3.71351e-05
0.00566484 -7.14172e-05 3.48614e-05
0.00555998 -0.0004778 -9.06053e-05
0.00552887 -2.38834e-05 2.23968e-05
0.00555377 -2.74942e-05 1.97308e-05
0.00556096 -2.91248e-05 2.39487e-05
0.00550582 -7.22844e-05 2.57204e-05
0.0055445 -3.09039e-05 2.37789e-05
0.0061424 -0.00045686 0.000243495
0.00555757 -3.83847e-05 1.90914e-05
0.00609732 -0.000375915 -0.000154422
0.00556555 -5.62572e-05 0.000160959
0.00612539 -0.000600482 -0.000115239
4.19604e-15 1.05204e-14 8.29606e-14
-7.91558e-23 2.24983e-22 1.23839e-22
0.00552923 -0.000447531 -9.01087e-05
0.00617891 -0.000355476 0.000452711
0.00550352 -0.000485825 -6.71542e-05
0.00613847 -0.000309186 0.000503118
0.00552322 -0.000102088 -5.58413e-05
0.00566201 -6.68668e-05 -1.35008e-05
0.00557173 -3.69803e-05 2.65066e-05
0.00562197 8.07709e-07 1.93521e-05
0.00612101 -0.000552941 3.85654e-05
0.00554674 -0.000542753 0.000249141
0.00559252 -0.000313111 -0.000157302
0.00565354 -1.62755e-05 0.000163487
0.00558087 -0.000121043 -7.67028e-05
0.00610662 -6.80487e-05 0.000263973
0.0060029 -5.79872e-05 0.000678905
0.00544435 -0.000136603 -0.000145124
0.00610559 -8.63334e-05 0.000278599
0.00608065 -9.69357e-05 0.00028657
0.0055821 -3.59663e-05 2.61532e-05
0.00618582 -0.000356426 0.000449783
0.00550086 -4.36714e-05 2.73416e-05
0.00611823 -7.22096e-05 0.000267654
0.00561164 2.94182e-05 0.000143043
0.0061657 -0.000380561 0.000397532
0.00551708 -2.38654e-05 2.12357e-05
0.00555329 -2.95058e-05 1.77133e-05
0.00558099 -0.00047801 -7.58662e-05
0.00611871 -0.000550481 -7.24686e-05
0.00552169 -1.10478e-05 1.86626e-05
0.00630888 2.8396e-05 0.00019238
0.00557413 -0.00013233 -5.13558e-05
0.00612122 -7.25547e-05 0.000267796
0.00619729 -0.000427552 0.000304574
0.00560298 -2.06891e-05 2.34193e-05
0.00619329 -5.85898e-05 0.000254755
0.00559255 -2.2304e-05 2.25133e-05
0.00617759 -0.000397222 0.000369945
0.00543196 -0.000489139 -6.19551e-05
0.00617948 -0.000396638 0.000419015
0.00555373 -0.000519453 -5.37848e-05
0.00613404 -0.000525572 -8.31625e-05
0.00622924 -0.000442925 0.000290295
0.00545001 -0.000469929 -7.21343e-05
0.00557316 -2.39851e-05 2.28717e-05
0.00602306 -0.00014984 -0.000261002
0.00555474 -0.000568676 -2.99567e-05
0.00614854 -0.000342844 0.000446031
0.00548514 -0.000474832 -7.2891e-05
0.00557053 -0.000501613 -6.1695e-05
0.00543012 -0.00049976 -5.75107e-05
-3.82947e-14 8.16561e-14 2.95896e-13
0.00559624 -0.000480547 -0.000109271
0.0055419 5.67889e-06 1.48857e-05
0.00557728 -0.000454641 -8.12469e-05
0.00548434 -0.000470299 -7.50705e-05
0.00547125 -0.000491038 0.000260034
0.00560401 -0.000556113 -3.53093e-05
0.00613963 -5.45923e-05 0.000253682
0.0062534 -0.000202938 -0.000247255
0.00558879 -0.000488502 -6.77105e-05
0.00554191 -0.000556662 0.000246248
0.00543135 -0.000665761 2.38524e-05
0.00615892 -5.46626e-05 0.000255641
0.0055678 -0.00057502 -3.01271e-05
0.00552844 -3.58491e-05 2.5722e-05
0.00556325 -0.000400124 -0.000112373
0.00552759 0.000500038 -0.000522054
0.00552982 -0.000407627 -0.000108019
0.00555549 -0.000454637 -9.18877e-05
0.00559421 -0.000507722 0.00025026
0.00561225 -0.000522885 -1.61155e-05
0.00548527 -0.000548523 -7.54909e-05
0.00618337 -7.4474e-05 0.000267169
0.00564059 -0.000430405 -9.66328e-05
0.00554453 1.57142e-05 1.31774e-05
0.00547308 -0.000475692 -7.0346e-05
0.00549914 -0.000494924 -7.68008e-05
0.00552205 -0.000107402 -2.1313e-06
0.00555759 -2.7796e-05 2.19592e-05
0.00563436 -7.21699e-05 3.68873e-05
0.00558111 0.000489986 -0.000520829
0.00565301 -2.16402e-05 2.40506e-05
0.00546799 -0.000488303 -6.43558e-05
0.00561313 7.96955e-05 0.000127436
0.00591239 -9.96041e-05 -0.000279425
0.00555972 -0.000552592 -4.05221e-05
0.00579281 -5.85611e-05 0.00061879
0.00560825 0.000485884 -0.000520616
0.00557636 -0.000480208 -7.62844e-05
0.00553652 -0.000468354 -7.50094e-05
0.00559831 -0.000507515 -6.33224e-05
0.00561488 -0.000504358 0.000258309
0.00547105 -0.000486614 -6.58096e-05
0.00556785 -4.42058e-05 2.82497e-05
0.00567811 -0.000365547 -0.000136942
0.0055124 -0.000389658 -0.000117692
0.00558773 -0.000397129 -0.000113729
0.00618517 -0.000338935 0.000445674
0.00550897 -0.000502604 -5.94451e-05
0.00558747 -0.000446135 -9.14379e-05
0.00556658 -4.96977e-07 2.9384e-05
0.00555439 -3.12819e-05 2.48472e-05
0.00557317 -0.00065341 1.48986e-05
0.00564666 -0.000109814 -0.000150764
0.00553558 -3.04685e-05 2.13287e-05
0.00555954 0.000500481 -0.000523983
0.00558174 -0.000460069 -8.66683e-05
0.0062581 1.64393e-05 0.000201366
0.00551518 -0.000394818 -0.000111685
0.00550377 1.85299e-05 -2.65437e-06
0.0055381 -0.000480546 -8.27285e-05
0.00584058 0.000438902 -0.000513687
0.00581749 0.000165305 6.49366e-05
0.005482 -0.000486247 -6.67253e-05
0.00557106 -0.000494813 -6.75254e-05
0.00552781 -5.21283e-06 1.81528e-05
0.00557983 -0.000557696 -3.68809e-05
0.00566631 0.000481122 -0.000521785
0.005556 0.000496032 -0.000521948
0.00557134 -0.000498366 -8.67638e-05
0.00559709 -0.000510823 0.000258375
0.00566027 0.000474395 -0.000518575
0.0061229 -0.000275838 0.00040526
0.0055944 -0.000517115 -5.6195e-05
0.00556095 -2.86708e-05 2.41049e-05
0.00579674 -0.000486426 0.000269727
0.00560073 -0.000505388 0.000256284
0.00576689 -0.000565321 0.000257875
0.00625859 0.00034531 -0.000495472
0.00579527 0.000445863 -0.000514253
0.00629295 0.000339546 -0.000497976
0.00555998 -0.00051316 -5.76846e-05
0.00557669 -0.000456685 -8.60679e-05
0.00576575 0.000454839 -0.000516389
0.00585283 0.000433128 -0.000511891
0.00551444 -0.00046321 -7.0147e-05
0.00562754 -0.000484748 0.00025922
0.00567757 0.000581984 -0.000245689
0.00557604 -0.000410931 -0.000109912
0.00555925 -3.35521e-05 2.57744e-05
0.00572168 0.000575 -0.000243485
0.00562047 0.000467099 -0.000513272
0.00583917 0.000437287 -0.000513019
0.00610931 2.69185e-05 0.000537945
0.00553755 -0.000384441 -0.00010335
0.00555951 -0.000391877 0.000176504
0.00551295 -0.000476017 -5.48838e-05
0.00574372 0.000571772 -0.000242429
0.00559438 -0.00054102 -4.64543e-05
0.005658 -0.000446077 0.000265498
0.00562517 -0.000524134 0.000254679
0.0058242 0.000440839 -0.000513474
0.00555715 -0.000408352 0.00026742
0.00558166 0.000490961 -0.000521207
0.00546787 -0.0005633 -2.80986e-05
0.005579 -0.000401312 0.000260069
0.00552044 -0.000486981 -0.000101876
0.0055162 -0.000412778 2.02668e-07
0.00553067 -5.87298e-05 3.18145e-05
0.00560547 -0.000622303 -1.37994e-05
0.00578767 0.000564969 -0.000240188
0.0054948 -0.00040082 0.000264489
0.00576572 0.000568501 -0.000241345
0.00557758 -0.000541891 0.00012657
0.00550582 -0.000444367 -8.92561e-05
0.005208 -0.000346232 0.000254365
0.00561527 -0.000541404 -8.43217e-05
0.0056303 0.000478021 -0.000518465
0.0056087 0.000486336 -0.000520717
0.00560392 -0.000524916 -5.37094e-05
0.00585555 0.000435906 -0.000513253
0.00577971 0.000449857 -0.000515198
0.00552268 -0.000409186 0.000267132
0.00556636 -0.000445086 0.000268242
0.00551824 -0.00040323 0.000274948
0.0055908 -0.000435357 0.000271112
0.00551636 -0.000392061 0.000263288
0.0055959 -0.000523095 -5.50075e-05
0.00549059 -0.000496042 -6.20088e-05
0.00553487 -0.000541775 0.000113371
0.00617269 -0.000315939 0.000433893
0.00557307 -0.000616083 -0.000109423
0.00580428 -0.000462084 0.000272981
0.00552981 0.000501766 -0.000522827
0.00579688 -0.000526749 0.000264018
0.00546947 -9.47447e-05 -0.000172376
0.00580965 0.000443553 -0.000513746
0.00569962 0.000578358 -0.00024464
0.00552459 -1.37366e-05 2.04078e-05

VECTORS force float
-6.43341e-11 3.3844e-11 -1.33456e-10
-2.22286e-10 1.81363e-10 -1.05659e-11
-2.96867e-10 -4.8903e-11 -1.33407e-10
-7.29315e-11 1.44935e-11 1.23392e-12
-6.78116e-11 1.77779e-11 -6.98202e-12
7.43756e-11 -4.028e-11 5.39425e-11
-3.62684e-10 -1.11497e-10 1.44289e-10
-2.93027e-11 1.23521e-11 -1.21163e-11
2.66502e-10 3.64949e-11 -9.84976e-12
1.22171e-10 2.39723e-10 -1.84866e-10
-1.60461e-10 1.2977e-10 -2.84511e-11
8.96566e-13 -9.14896e-11 1.16596e-10
-6.4423e-11 -2.01848e-11 4.61239e-14
3.09922e-10 3.39795e-10 -1.60112e-10
-2.54144e-10 1.88514e-10 7.34736e-11
-4.13819e-10 2.66292e-11 -1.03765e-10
-3.89746e-11 5.67282e-11 -1.89525e-10
-2.24745e-10 2.07413e-10 -1.34555e-10
-4.20124e-12 -3.6902e-11 2.58605e-11
-1.63397e-10 2.59348e-11 -3.54873e-11
-2.03932e-11 -6.18788e-11 8.88639e-11
-4.82234e-11 -9.53602e-11 1.2449e-10
6.86219e-11 -2.21749e-11 -1.37375e-12
1.12417e-10 -2.30408e-11 -1.0394e-10
5.25318e-11 -1.60104e-10 1.70896e-10
-2.39634e-11 -5.51641e-11 1.42559e-11
-5.84514e-11 2.64621e-11 3.73917e-11
7.86138e-11 -9.73063e-12 8.01967e-12
-6.31416e-11 -1.66064e-10 -2.38052e-10
-3.36839e-11 1.75293e-10 1.63532e-10
-5.85545e-10 4.51065e-10 1.92462e-10
-2.26861e-10 -1.68901e-11 -8.43778e-11
4.30927e-11 -1.57137e-10 -1.85194e-10
-1.55508e-10 3.83586e-10 1.85143e-11
-2.66948e-11 1.11849e-10 -2.19017e-11
4.15501e-10 1.15759e-10 -5.96288e-11
-4.61308e-10 -2.67042e-11 2.84374e-10
-1.28552e-11 -2.2643e-11 1.15894e-11
-1.57577e-10 -1.09131e-10 5.74968e-11
-1.27423e-10 5.24807e-12 4.4884e-10
-1.84082e-10 1.88929e-10 -5.00443e-11
2.10589e-10 1.30112e-10 -1.77192e-12
-3.77152e-11 -1.98615e-10 -2.33883e-10
-3.69617e-10 -1.49404e-10 -6.49332e-11
-8.60862e-11 -1.51065e-10 1.16544e-10
-6.22562e-11 4.58292e-11 -1.62261e-10
-1.13128e-10 -2.15508e-11 1.29138e-11
-3.30308e-11 -5.87236e-11 3.52326e-11
-4.48481e-11 -1.36386e-10 8.70778e-11
-1.51198e-10 3.46315e-11 -2.31869e-10
-1.02574e-10 3.87308e-11 -4.55195e-11
-3.60427e-10 -4.65108e-11 -3.40388e-11
3.14493e-10 1.45878e-10 -1.14234e-10
2.36014e-10 -9.243e-11 1.40568e-10
-3.61045e-10 -7.84735e-11 1.3235e-10
-2.85674e-10 7.04865e-11 1.35529e-10
-3.59471e-11 -4.94886e-11 4.14919e-11