# vtk DataFile Version 3.0
LIGGGHTS particles timestep 9400000
ASCII
DATASET POLYDATA
POINTS 287 float
0.0676229 0.0163361 0.00790218
0.0680494 0.0172635 0.00723934
0.0614283 0.0159978 0.00829358
0.0679558 0.0176547 0.00711508
0.0675058 0.0162325 0.00797824
0.0735615 0.0164459 0.00783937
0.0676984 0.0169495 0.00746962
0.0674048 0.0158321 0.00826204
0.0738303 0.0174964 0.00723105
0.0676342 0.0167105 0.00763916
0.0680861 0.0174257 0.0071245
0.0616369 0.0167182 0.00763507
0.0674844 0.0161528 0.00803475
0.0613456 0.0157141 0.00856313
0.0678374 0.0171331 0.00733683
0.0613258 0.0156429 0.00863059
0.0676128 0.0166308 0.00769567
0.0737083 0.0169723 0.0074024
0.0674635 0.016073 0.00809133
0.0676015 0.0162565 0.0079587
0.0677412 0.0171088 0.0073566
0.061819 0.0170596 0.00738647
0.0737711 0.0172024 0.00722307
0.067677 0.0168698 0.00752613
0.0736454 0.0167468 0.00758956
0.0617234 0.0170328 0.00740384
0.0679352 0.0175566 0.00711559
0.0674439 0.0159924 0.00814846
0.0679735 0.0173178 0.00720339
0.0677198 0.0170292 0.00741311
0.0678159 0.0170535 0.00739334
0.0735824 0.0165211 0.00777692
0.0675914 0.0165512 0.00775218
0.0677945 0.0169738 0.00744986
0.0738696 0.0176924 0.00723637
0.0677516 0.0168144 0.00756293
0.0679125 0.0170781 0.00737332
0.0737911 0.0173003 0.00722573
0.0675486 0.0163918 0.00786521
0.0677627 0.0171891 0.00730104
0.0679338 0.0171578 0.0073168
0.0736034 0.0165964 0.00771447
0.0736928 0.0168962 0.0074655
0.06757 0.0164715 0.00780869
0.0678018 0.0173485 0.00718672
0.0736664 0.016822 0.00752711
0.0678606 0.0176231 0.00711178
0.0678401 0.0175252 0.00711228
0.0616159 0.0166418 0.00769617
0.0737301 0.0170473 0.00734006
0.0675801 0.0161768 0.00801521
0.0613867 0.015856 0.00842834
0.0677731 0.016894 0.00750642
0.0736245 0.0166716 0.00765203
0.0678268 0.0167594 0.00759938
0.0678482 0.0168391 0.00754286
0.0675272 0.0163121 0.00792172
0.0679539 0.0172377 0.00726015
0.0678962 0.0173741 0.00716607
0.0737617 0.0171203 0.00727945
0.0617334 0.0167449 0.00761913
0.0616696 0.0165142 0.00779912
0.0680684 0.0173436 0.00718258
0.0680116 0.0174922 0.00711944
0.0676872 0.0165751 0.00773264
0.0738107 0.0173983 0.00722839
0.0613663 0.015785 0.00849575
0.0679925 0.0173979 0.00714671
0.0676556 0.0167902 0.00758264
0.0678587 0.0172128 0.00728029
0.0619585 0.0176731 0.00714722
0.0680997 0.0183401 0.00711159
0.0614491 0.0160687 0.0082262
0.0616586 0.0167966 0.00757694
0.0679222 0.017917 0.00711027
0.0615946 0.0165675 0.00775955
0.0617439 0.0171117 0.00734597
0.0617241 0.0163877 0.00790168
0.07385 0.0175944 0.00723371
0.0615441 0.0160855 0.00819964
0.0679147 0.0174587 0.00711609
0.0678047 0.0166791 0.00765636
0.0679838 0.0182106 0.00710877
0.0679428 0.0180148 0.00710977
0.0680297 0.0171833 0.00729614
0.0616809 0.0168752 0.00751935
0.0680525 0.017688 0.00711844
0.0680381 0.0180464 0.00711309
0.0681141 0.0179816 0.00711693
0.0679017 0.0178191 0.00711077
0.068073 0.0177859 0.00711793
0.0615527 0.0164221 0.00789034
0.0680043 0.0183085 0.00710827
0.0617115 0.0166653 0.00767544
0.0679883 0.0170237 0.00740932
0.0616485 0.0164417 0.00786476
0.0643568 0.0187248 0.00531097
0.24257 0.0191927 0.00520306
0.0619656 0.0173474 0.00721828
0.0615133 0.0162889 0.00803373
0.0620447 0.0172832 0.00722691
0.0614699 0.0161396 0.00815881
0.06773 0.0167345 0.00761961
0.0678196 0.0174289 0.00712976
0.0681681 0.0178171 0.00712124
0.0680449 0.0185043 0.00710725
0.0615735 0.0164939 0.00782395
0.062352 0.0178181 0.00714016
0.0619183 0.0170888 0.00736743
0.0678788 0.0172928 0.00722364
0.0677086 0.0166548 0.00767613
0.067559 0.0160971 0.00807175
0.0614075 0.0159269 0.00836096
0.0678696 0.0169188 0.00748634
0.0674243 0.0159121 0.00820533
0.0673853 0.0157521 0.00831875
0.0681886 0.017915 0.00712074
0.0615861 0.0162272 0.00806492
0.0679968 0.0178505 0.00711408
0.0675387 0.0160172 0.00812838
0.067784 0.0172682 0.00724358
0.0615319 0.0163512 0.00795771
0.0678812 0.0177212 0.00711127
0.0679633 0.0181127 0.00710927
0.0618409 0.0171387 0.0073285
0.0616904 0.0165864 0.00773322
0.0679763 0.0177526 0.00711458
0.0677189 0.0163603 0.0078825
0.067891 0.0169984 0.00742983
0.067519 0.0159372 0.00818507
0.0615232 0.0160146 0.00826702
0.0680651 0.0186022 0.00710673
0.0676658 0.0164955 0.00778915
0.0682091 0.0180129 0.00712024
0.0615652 0.0161563 0.0081323
0.0619376 0.0171703 0.00731285
0.0614906 0.0162105 0.00809143
0.0618967 0.01701 0.00742516
0.061745 0.0164587 0.00783422
0.0615026 0.0159436 0.00833441
0.0618019 0.0173489 0.007172
0.0681346 0.0180795 0.00711643
0.0617874 0.0166139 0.00771542
0.0621353 0.0173184 0.00720321
0.0616275 0.0163696 0.00793072
0.0618951 0.0173791 0.00715204
0.0619789 0.0177708 0.00715157
0.0618792 0.0172973 0.00721215
0.0219312 0.0187687 0.00551176
0.0619917 0.0174405 0.00719275
0.068032 0.0175901 0.00711897
0.061884 0.0177395 0.00715347
0.0619144 0.0174763 0.00713859
0.0621479 0.0181153 0.00716327
0.0622138 0.0175885 0.00713331
0.0676758 0.0162007 0.00799574
0.0617663 0.016535 0.0077732
0.0620503 0.0173635 0.00716762
0.0622774 0.0178845 0.0071464
0.0621187 0.0175575 0.00713523
0.0676973 0.0162804 0.00793917
0.062192 0.0174898 0.00712896
0.0681631 0.0173685 0.00716247
0.0620467 0.0176261 0.00714597
0.0557903 0.0172903 0.00722412
0.0618605 0.0172179 0.00727043
0.0619248 0.0179351 0.00716216
0.0623314 0.01772 0.0071358
0.0622571 0.0177866 0.00714205
0.061843 0.017544 0.00715647
0.0676443 0.0164158 0.00784567
0.0620789 0.0174521 0.00713129
0.0679714 0.0176008 0.00719781
0.0617849 0.0172719 0.00723344
0.0618224 0.0174465 0.00716553
0.0679668 0.016944 0.00746585
0.0680586 0.0181444 0.00711259
0.0680096 0.0171034 0.0073528
0.0559027 0.017409 0.00716508
0.0680855 0.0187001 0.00710623
0.0620192 0.0171225 0.00734513
0.0677832 0.0165993 0.00771296
0.0618315 0.0167713 0.00760007
0.0622365 0.0176884 0.00713768
0.0613061 0.0155718 0.00869806
0.0558488 0.0175737 0.00716499
0.0617011 0.0169543 0.00746165
0.0619373 0.0175744 0.00714288
0.0617981 0.0169803 0.00744461
0.0622441 0.0181464 0.00716132
0.0620366 0.0172019 0.00728685
0.0681833 0.0174596 0.00712661
0.0617758 0.0169017 0.00750222
0.0621079 0.0179196 0.00715454
0.0620672 0.0177239 0.00714584
0.0616067 0.0162981 0.00799753
0.0620246 0.01753 0.00716282
0.0618094 0.0166926 0.00765776
0.0678247 0.0173517 0.007284
0.0680936 0.0178837 0.00711743
0.0621415 0.0176573 0.00713959
0.0679454 0.0168644 0.00752236
0.0680174 0.0179484 0.00711358
0.0558849 0.0173178 0.00720422
0.0619044 0.0178373 0.00715781
0.0677403 0.01644 0.00782599
0.06202 0.0179669 0.00716028
0.0680248 0.0184063 0.00710777
0.0618636 0.0176416 0.00715035
0.0557815 0.0169119 0.00746672
0.0677617 0.0165196 0.00776947
0.0619552 0.0172535 0.00726021
0.0617653 0.0171915 0.00728969
0.0681065 0.0175235 0.00712274
0.0621606 0.0173964 0.00714609
0.0558449 0.0171367 0.00728249
0.0558101 0.0173832 0.0071929
0.0618981 0.0174409 0.00723065
0.0621918 0.0183103 0.00717182
0.0557701 0.0171993 0.00726019
0.0617034 0.0163168 0.00796906
0.0618536 0.0168521 0.00754087
0.0680792 0.0182422 0.00711209
0.0622386 0.0185054 0.00718027
0.0622151 0.0184074 0.00717603
0.0622895 0.0183409 0.00716979
0.0555885 0.0165938 0.00787693
0.0556471 0.0167691 0.00764068
0.0555689 0.0165354 0.00795568
0.0619783 0.0169646 0.00746088
0.0617555 0.0168226 0.00756016
0.055608 0.0166522 0.00779818
0.0557276 0.0170307 0.00735881
0.0621278 0.0180174 0.00715891
0.0622978 0.0179823 0.00715075
0.0558693 0.0176715 0.00716954
0.0619993 0.0178686 0.00715592
0.0681476 0.0177193 0.00712174
0.0559098 0.0178671 0.00717891
0.0558227 0.017047 0.00732139
0.0557058 0.0169444 0.00740443
0.0614817 0.0158728 0.00840178
0.0620876 0.0178217 0.00715018
0.061985 0.0182287 0.00717525
0.0620399 0.0180648 0.00716466
0.0559301 0.0179649 0.0071836
0.0618759 0.0169308 0.0074832
0.0621504 0.0185521 0.007186
0.0622662 0.0182438 0.00716558
0.0556864 0.016886 0.00748321
0.0620053 0.0183265 0.00717961
0.0558285 0.0174759 0.00716014
0.0621267 0.0172381 0.00726232
0.0620803 0.0182605 0.00717338
0.0618141 0.0173744 0.00726791
0.0619647 0.0181308 0.0071709
0.0681271 0.0176214 0.00712224
0.0621622 0.0177551 0.00714393
0.0559685 0.018161 0.00719278
0.0620754 0.0186179 0.00719222
0.0559495 0.0180629 0.00718821
0.0620599 0.0181627 0.00716902
0.0619451 0.0180329 0.0071666
0.0620976 0.0187153 0.00719649
0.0622029 0.0179509 0.00715264
0.0557492 0.0171131 0.00730635
0.055923 0.0175069 0.00716978
0.0619578 0.0168857 0.00751874
0.0558017 0.0169703 0.00738811
0.0556276 0.0167107 0.00771943
0.0621272 0.0184549 0.00718178
0.0621039 0.0183577 0.00717757
0.0620289 0.0184236 0.0071838
0.0621695 0.0182129 0.00716757
0.0620521 0.0185207 0.00718801
0.0619355 0.016807 0.00757635
0.0619999 0.0170434 0.00740316
0.0622232 0.0180487 0.00715699
0.0616826 0.0162459 0.00803644
0.0621826 0.017853 0.00714829
0.0621153 0.0188136 0.00720096
0.0558652 0.017227 0.00724347
0.0623124 0.0184382 0.00717402
0.067924 0.0167847 0.00757888
0.0556668 0.0168276 0.00756196
0.0558894 0.0177693 0.00717422
0.0680449 0.0174611 0.00720846

VERTICES 287 574
1 0
1 1
1 2
1 3
1 4
1 5
1 6
1 7
1 8
1 9
1 10
1 11
1 12
1 13
1 14
1 15
1 16
1 17
1 18
1 19
1 20
1 21
1 22
1 23
1 24
1 25
1 26
1 27
1 28
1 29
1 30
1 31
1 32
1 33
1 34
1 35
1 36
1 37
1 38
1 39
1 40
1 41
1 42
1 43
1 44
1 45
1 46
1 47
1 48
1 49
1 50
1 51
1 52
1 53
1 54
1 55
1 56
1 57
1 58
1 59
1 60
1 61
1 62
1 63
1 64
1 65
1 66
1 67
1 68
1 69
1 70
1 71
1 72
1 73
1 74
1 75
1 76
1 77
1 78
1 79
1 80
1 81
1 82
1 83
1 84
1 85
1 86
1 87
1 88
1 89
1 90
1 91
1 92
1 93
1 94
1 95
1 96
1 97
1 98
1 99
1 100
1 101
1 102
1 103
1 104
1 105
1 106
1 107
1 108
1 109
1 110
1 111
1 112
1 113
1 114
1 115
1 116
1 117
1 118
1 119
1 120
1 121
1 122
1 123
1 124
1 125
1 126
1 127
1 128
1 129
1 130
1 131
1 132
1 133
1 134
1 135
1 136
1 137
1 138
1 139
1 140
1 141
1 142
1 143
1 144
1 145
1 146
1 147
1 148
1 149
1 150
1 151
1 152
1 153
1 154
1 155
1 156
1 157
1 158
1 159
1 160
1 161
1 162
1 163
1 164
1 165
1 166
1 167
1 168
1 169
1 170
1 171
1 172
1 173
1 174
1 175
1 176
1 177
1 178
1 179
1 180
1 181
1 182
1 183
1 184
1 185
1 186
1 187
1 188
1 189
1 190
1 191
1 192
1 193
1 194
1 195
1 196
1 197
1 198
1 199
1 200
1 201
1 202
1 203
1 204
1 205
1 206
1 207
1 208
1 209
1 210
1 211
1 212
1 213
1 214
1 215
1 216
1 217
1 218
1 219
1 220
1 221
1 222
1 223
1 224
1 225
1 226
1 227
1 228
1 229
1 230
1 231
1 232
1 233
1 234
1 235
1 236
1 237
1 238
1 239
1 240
1 241
1 242
1 243
1 244
1 245
1 246
1 247
1 248
1 249
1 250
1 251
1 252
1 253
1 254
1 255
1 256
1 257
1 258
1 259
1 260
1 261
1 262
1 263
1 264
1 265
1 266
1 267
1 268
1 269
1 270
1 271
1 272
1 273
1 274
1 275
1 276
1 277
1 278
1 279
1 280
1 281
1 282
1 283
1 284
1 285
1 286

POINT_DATA 287
SCALARS id int 1
LOOKUP_TABLE default
1
2
3
4
5
6
7
8
9
10
11
12
13
14
15
16
17
18
19
21
22
23
24
25
26
27
28
29
30
31
32
33
34
35
36
37
38
39
41
42
44
45
46
47
48
49
50
51
52
53
54
55
56
57
59
60
61
62
63
64
65
66
67
68
69
70
71
72
73
74
76
77
78
79
80
81
82
83
84
85
86
87
88
89
90
91
92
93
94
95
96
97
98
99
100
101
102
103
104
105
106
107
108
109
110
111
112
113
114
115
116
117
118
119
120
121
122
123
124
125
126
127
128
129
130
131
132
133
134
135
136
137
138
140
141
142
143
144
146
147
148
149
150
151
153
154
155
156
157
158
159
160
162
164
165
166
167
168
169
170
171
172
173
174
175
176
177
178
179
181
182
183
184
185
186
187
188
189
190
191
192
193
194
195
196
197
198
199
200
201
202
203
204
205
206
207
208
209
210
211
212
213
214
215
216
217
218
219
220
221
222
223
224
225
226
227
228
229
230
231
232
233
234
235
236
237
239
240
241
242
243
244
246
247
248
249
250
251
252
253
254
255
256
257
258
259
260
261
262
263
264
265
266
267
268
269
270
271
272
273
274
275
276
277
278
279
280
281
282
283
284
285
286
287
288
289
290
291
292
293
294
295
296
297
298
299
300

SCALARS type int 1
LOOKUP_TABLE default
1
1
1
1
1
1
1
1
1
1
1
1
1
1
1
1
1
1
1
1
1
1
1
1
1
1
1
1
1
1
1
1
1
1
1
1
1
1
1
1
1
1
1
1
1
1
1
1
1
1
1
1
1
1
1
1
1
1
1
1
1
1
1
1
1
1
1
1
1
1
1
1
1
1
1
1
1
1
1
1
1
1
1
1
1
1
1
1
1
1
1
1
1
1
1
1
1
1
1
1
1
1
1
1
1
1
1
1
1
1
1
1
1
1
1
1
1
1
1
1
1
1
1
1
1
1
1
1
1
1
1
1
1
1
1
1
1
1
1
1
1
1
1
1
1
1
1
1
1
1
1
1
1
1
1
1
1
1
1
1
1
1
1
1
1
1
1
1
1
1
1
1
1
1
1
1
1
1
1
1
1
1
1
1
1
1
1
1
1
1
1
1
1
1
1
1
1
1
1
1
1
1
1
1
1
1
1
1
1
1
1
1
1
1
1
1
1
1
1
1
1
1
1
1
1
1
1
1
1
1
1
1
1
1
1
1
1
1
1
1
1
1
1
1
1
1
1
1
1
1
1
1
1
1
1
1
1
1
1
1
1
1
1
1
1
1
1
1
1
1
1
1
1
1
1
1
1
1
1
1
1
1
1
1
1
1
1

SCALARS radius float 1
LOOKUP_TABLE default
5e-05
5e-05
5e-05
5e-05
5e-05
5e-05
5e-05
5e-05
5e-05
5e-05
5e-05
5e-05
5e-05
5e-05
5e-05
5e-05
5e-05
5e-05
5e-05
5e-05
5e-05
5e-05
5e-05
5e-05
5e-05
5e-05
5e-05
5e-05
5e-05
5e-05
5e-05
5e-05
5e-05
5e-05
5e-05
5e-05
5e-05
5e-05
5e-05
5e-05
5e-05
5e-05
5e-05
5e-05
5e-05
5e-05
5e-05
5e-05
5e-05
5e-05
5e-05
5e-05
5e-05
5e-05
5e-05
5e-05
5e-05
5e-05
5e-05
5e-05
5e-05
5e-05
5e-05
5e-05
5e-05
5e-05
5e-05
5e-05
5e-05
5e-05
5e-05
5e-05
5e-05
5e-05
5e-05
5e-05
5e-05
5e-05
5e-05
5e-05
5e-05
5e-05
5e-05
5e-05
5e-05
5e-05
5e-05
5e-05
5e-05
5e-05
5e-05
5e-05
5e-05
5e-05
5e-05
5e-05
5e-05
5e-05
5e-05
5e-05
5e-05
5e-05
5e-05
5e-05
5e-05
5e-05
5e-05
5e-05
5e-05
5e-05
5e-05
5e-05
5e-05
5e-05
5e-05
5e-05
5e-05
5e-05
5e-05
5e-05
5e-05
5e-05
5e-05
5e-05
5e-05
5e-05
5e-05
5e-05
5e-05
5e-05
5e-05
5e-05
5e-05
5e-05
5e-05
5e-05
5e-05
5e-05
5e-05
5e-05
5e-05
5e-05
5e-05
5e-05
5e-05
5e-05
5e-05
5e-05
5e-05
5e-05
5e-05
5e-05
5e-05
5e-05
5e-05
5e-05
5e-05
5e-05
5e-05
5e-05
5e-05
5e-05
5e-05
5e-05
5e-05
5e-05
5e-05
5e-05
5e-05
5e-05
5e-05
5e-05
5e-05
5e-05
5e-05
5e-05
5e-05
5e-05
5e-05
5e-05
5e-05
5e-05
5e-05
5e-05
5e-05
5e-05
5e-05
5e-05
5e-05
5e-05
5e-05
5e-05
5e-05
5e-05
5e-05
5e-05
5e-05
5e-05
5e-05
5e-05
5e-05
5e-05
5e-05
5e-05
5e-05
5e-05
5e-05
5e-05
5e-05
5e-05
5e-05
5e-05
5e-05
5e-05
5e-05
5e-05
5e-05
5e-05
5e-05
5e-05
5e-05
5e-05
5e-05
5e-05
5e-05
5e-05
5e-05
5e-05
5e-05
5e-05
5e-05
5e-05
5e-05
5e-05
5e-05
5e-05
5e-05
5e-05
5e-05
5e-05
5e-05
5e-05
5e-05
5e-05
5e-05
5e-05
5e-05
5e-05
5e-05
5e-05
5e-05
5e-05
5e-05
5e-05
5e-05
5e-05
5e-05
5e-05
5e-05
5e-05
5e-05
5e-05
5e-05
5e-05
5e-05
5e-05
5e-05
5e-05
5e-05
5e-05
5e-05
5e-05
5e-05
5e-05
5e-05
5e-05
5e-05
5e-05
5e-05
5e-05
5e-05
5e-05
5e-05
5e-05
5e-05
5e-05
5e-05

SCALARS mass float 1
LOOKUP_TABLE default
1.46608e-10
1.46608e-10
1.46608e-10
1.46608e-10
1.46608e-10
1.46608e-10
1.46608e-10
1.46608e-10
1.46608e-10
1.46608e-10
1.46608e-10
1.46608e-10
1.46608e-10
1.46608e-10
1.46608e-10
1.46608e-10
1.46608e-10
1.46608e-10
1.46608e-10
1.46608e-10
1.46608e-10
1.46608e-10
1.46608e-10
1.46608e-10
1.46608e-10
1.46608e-10
1.46608e-10
1.46608e-10
1.46608e-10
1.46608e-10
1.46608e-10
1.46608e-10
1.46608e-10
1.46608e-10
1.46608e-10
1.46608e-10
1.46608e-10
1.46608e-10
1.46608e-10
1.46608e-10
1.46608e-10
1.46608e-10
1.46608e-10
1.46608e-10
1.46608e-10
1.46608e-10
1.46608e-10
1.46608e-10
1.46608e-10
1.46608e-10
1.46608e-10
1.46608e-10
1.46608e-10
1.46608e-10
1.46608e-10
1.46608e-10
1.46608e-10
1.46608e-10
1.46608e-10
1.46608e-10
1.46608e-10
1.46608e-10
1.46608e-10
1.46608e-10
1.46608e-10
1.46608e-10
1.46608e-10
1.46608e-10
1.46608e-10
1.46608e-10
1.46608e-10
1.46608e-10
1.46608e-10
1.46608e-10
1.46608e-10
1.46608e-10
1.46608e-10
1.46608e-10
1.46608e-10
1.46608e-10
1.46608e-10
1.46608e-10
1.46608e-10
1.46608e-10
1.46608e-10
1.46608e-10
1.46608e-10
1.46608e-10
1.46608e-10
1.46608e-10
1.46608e-10
1.46608e-10
1.46608e-10
1.46608e-10
1.46608e-10
1.46608e-10
1.46608e-10
1.46608e-10
1.46608e-10
1.46608e-10
1.46608e-10
1.46608e-10
1.46608e-10
1.46608e-10
1.46608e-10
1.46608e-10
1.46608e-10
1.46608e-10
1.46608e-10
1.46608e-10
1.46608e-10
1.46608e-10
1.46608e-10
1.46608e-10
1.46608e-10
1.46608e-10
1.46608e-10
1.46608e-10
1.46608e-10
1.46608e-10
1.46608e-10
1.46608e-10
1.46608e-10
1.46608e-10
1.46608e-10
1.46608e-10
1.46608e-10
1.46608e-10
1.46608e-10
1.46608e-10
1.46608e-10
1.46608e-10
1.46608e-10
1.46608e-10
1.46608e-10
1.46608e-10
1.46608e-10
1.46608e-10
1.46608e-10
1.46608e-10
1.46608e-10
1.46608e-10
1.46608e-10
1.46608e-10
1.46608e-10
1.46608e-10
1.46608e-10
1.46608e-10
1.46608e-10
1.46608e-10
1.46608e-10
1.46608e-10
1.46608e-10
1.46608e-10
1.46608e-10
1.46608e-10
1.46608e-10
1.46608e-10
1.46608e-10
1.46608e-10
1.46608e-10
1.46608e-10
1.46608e-10
1.46608e-10
1.46608e-10
1.46608e-10
1.46608e-10
1.46608e-10
1.46608e-10
1.46608e-10
1.46608e-10
1.46608e-10
1.46608e-10
1.46608e-10
1.46608e-10
1.46608e-10
1.46608e-10
1.46608e-10
1.46608e-10
1.46608e-10
1.46608e-10
1.46608e-10
1.46608e-10
1.46608e-10
1.46608e-10
1.46608e-10
1.46608e-10
1.46608e-10
1.46608e-10
1.46608e-10
1.46608e-10
1.46608e-10
1.46608e-10
1.46608e-10
1.46608e-10
1.46608e-10
1.46608e-10
1.46608e-10
1.46608e-10
1.46608e-10
1.46608e-10
1.46608e-10
1.46608e-10
1.46608e-10
1.46608e-10
1.46608e-10
1.46608e-10
1.46608e-10
1.46608e-10
1.46608e-10
1.46608e-10
1.46608e-10
1.46608e-10
1.46608e-10
1.46608e-10
1.46608e-10
1.46608e-10
1.46608e-10
1.46608e-10
1.46608e-10
1.46608e-10
1.46608e-10
1.46608e-10
1.46608e-10
1.46608e-10
1.46608e-10
1.46608e-10
1.46608e-10
1.46608e-10
1.46608e-10
1.46608e-10
1.46608e-10
1.46608e-10
1.46608e-10
1.46608e-10
1.46608e-10
1.46608e-10
1.46608e-10
1.46608e-10
1.46608e-10
1.46608e-10
1.46608e-10
1.46608e-10
1.46608e-10
1.46608e-10
1.46608e-10
1.46608e-10
1.46608e-10
1.46608e-10
1.46608e-10
1.46608e-10
1.46608e-10
1.46608e-10
1.46608e-10
1.46608e-10
1.46608e-10
1.46608e-10
1.46608e-10
1.46608e-10
1.46608e-10
1.46608e-10
1.46608e-10
1.46608e-10
1.46608e-10
1.46608e-10
1.46608e-10
1.46608e-10
1.46608e-10
1.46608e-10
1.46608e-10
1.46608e-10
1.46608e-10
1.46608e-10
1.46608e-10
1.46608e-10
1.46608e-10
1.46608e-10
1.46608e-10
1.46608e-10
1.46608e-10
1.46608e-10
1.46608e-10
1.46608e-10
1.46608e-10
1.46608e-10
1.46608e-10
1.46608e-10

VECTORS velocity float
0.00587307 -0.000497377 0.000182782
0.00575881 -0.000472066 0.000166597
0.00570262 -0.000334027 -0.000363474
0.00568353 -0.00043788 0.000228548
0.00584898 -0.000468878 0.000163153
0.00595702 -0.000120206 8.8101e-05
0.00605331 -0.000559498 0.000221668
0.00550719 -0.000403941 0.000127191
0.00612312 -0.000132204 6.41e-06
0.00597669 -0.000529622 0.000201548
0.00575468 -0.000435957 0.000150232
0.00609233 -4.20284e-06 0.000157107
0.00582112 -0.000464972 0.000161582
0.00544461 -0.000321301 -0.000345303
0.00598348 -0.000478053 0.000164299
0.00541457 -0.000326376 -0.000337152
0.00596357 -0.000511567 0.000190055
0.00619479 -0.000126825 9.01917e-05
0.00545885 -0.000397397 0.000124367
0.00585757 -0.00049071 0.000178402
0.00606222 -0.000569317 0.000226226
0.00623669 -1.44886e-05 0.000170753
0.00562346 -2.44596e-05 1.06364e-05
0.00601678 -0.00054541 0.000212708
0.00607891 -0.000148987 0.000109555
0.00617123 -6.61409e-05 0.000198056
0.00570998 -0.00047852 0.000233828
0.00552357 -0.000199785 -1.65302e-05
0.00577712 -0.000465577 0.000164724
0.00607833 -0.000562989 0.000224473
0.00612414 -0.000523072 0.00019424
0.00597922 -0.000125254 9.12773e-05
0.005929 -0.000499467 0.000182992
0.00612593 -0.000533237 0.000200881
0.00602089 -0.000113331 6.85988e-06
0.00603058 -0.000526969 0.000199278
0.00602796 -0.000458326 0.00015125
0.00589816 -8.28085e-05 3.72495e-06
0.00589285 -0.000491186 0.000177536
0.00591304 -0.00053397 0.000205408
0.00594092 -0.000453542 0.000150278
0.00601696 -0.000129977 9.72337e-05
0.00615729 -0.000127143 9.27513e-05
0.00590474 -0.000497488 0.000181949
0.00559228 -0.000448973 0.000153846
0.0061221 -0.000136509 0.000100629
0.00564319 -0.000548616 0.000227516
0.00564745 -0.000546811 0.000228339
0.00606953 2.49421e-08 0.000133055
0.00611043 -0.000104646 7.42237e-05
0.00584481 -0.000482146 0.00017288
0.00563042 -0.000331064 -0.000358115
0.00609843 -0.000545598 0.000210384
0.0060506 -0.000140713 0.000106986
0.00609707 -0.00045909 0.00014933
0.00618071 -0.00049637 0.000173286
0.00587685 -0.000478098 0.000168739
0.00582762 -0.000435571 0.000141632
0.00563103 -0.000522704 0.000210398
0.00587424 -4.34316e-05 2.25028e-05
0.00610833 -8.05202e-06 0.000164119
0.00601699 -6.14855e-05 7.44184e-05
0.00576898 -0.000472681 0.000169464
0.00574295 -0.000434911 0.000224993
0.00594442 -0.000528322 0.000202304
0.00617116 -0.000145653 1.03181e-05
0.00554435 -0.000327906 -0.000350973
0.00577441 -0.000449191 0.000190521
0.00598431 -0.000537586 0.000207585
0.00582992 -0.000473521 0.00017056
0.00569938 3.19426e-05 -0.000171462
0.00559181 -0.000435109 0.000225006
0.0057439 -0.000318342 -0.000381635
0.00611489 -2.02312e-05 0.000169197
0.0056345 -0.00045894 0.000226553
0.00602225 -0.000119042 -5.30245e-05
0.00618939 -7.7935e-05 0.0002158
0.00590839 -0.000399275 -0.000330473
0.00606983 -0.000124876 5.87759e-06
0.00573876 -0.000362236 -0.000341877
0.0056515 -0.000525008 0.000225503
0.00598366 -0.000525508 0.000199462
0.00560654 -0.000448197 0.000225622
0.00562388 -0.000458606 0.000226461
0.00588795 -0.00038057 0.000100249
0.006128 -3.46288e-05 0.000174427
0.00568796 -0.000437498 0.000236795
0.00562461 -0.000448063 0.000226543
0.00563313 -0.000439193 0.000226504
0.00564636 -0.000449293 0.000227165
0.0056711 -0.000443107 0.000228971
0.00593568 -0.000431196 -0.000454593
0.00559442 -0.000441902 0.000225208
0.00608416 -5.31129e-06 0.00016235
0.00608878 -0.000415134 0.000118832
0.00595037 -0.000198086 -0.000103044
4.28418e-15 1.04939e-14 8.29597e-14
3.61636e-22 4.89458e-22 -5.81428e-22
0.0057488 6.22491e-05 9.67764e-05
0.0058587 -0.000323298 -0.000381265
0.00581285 0.000108373 7.03047e-05
0.00578077 -0.000311836 -0.000395968
0.00597309 -0.000543384 0.000212063
0.00564097 -0.000546598 0.000223861
0.00566882 -0.000418852 0.0002282
0.00541144 -0.00039572 0.000217808
0.00597741 -0.000356233 -0.000358693
0.00568541 1.41417e-05 -0.000210584
0.00634901 8.44413e-05 0.00010026
0.00578176 -0.000474399 0.00016926
0.00596628 -0.000537519 0.000208208
0.00576714 -0.000462856 0.000161488
0.00567838 -0.000331428 -0.000363337
0.00618471 -0.00048918 0.000167424
0.00548942 -0.000396691 0.000123447
0.00551628 -0.000413477 0.000133963
0.0056409 -0.000420938 0.000226743
0.00583988 -0.000377658 -0.000341314
0.00565166 -0.000454697 0.000227862
0.0056156 -0.00043179 0.000144004
0.00579077 -0.000498317 0.000185694
0.00589694 -0.000361408 -0.000383315
0.00566365 -0.000432674 0.00022774
0.00561473 -0.000454619 0.000226027
0.00625527 -2.60123e-05 0.000178658
0.00606878 9.48654e-07 0.000160047
0.00566361 -0.000431829 0.000227331
0.00588341 -0.00051557 0.000195128
0.00617686 -0.000487442 0.000167113
0.00549909 -0.000414442 0.000135225
0.00570404 -0.000356897 -0.000343049
0.00534363 -0.000377757 0.000213273
0.00591361 -0.000514755 0.000194031
0.0056298 -0.000423618 0.000226426
0.00578914 -0.000369681 -0.000341812
0.00591883 6.62673e-05 0.000123616
0.00583426 -0.000313561 -0.000394406
0.00634112 0.000109542 8.12734e-05
0.00598175 -0.000377245 -0.00035689
0.00568079 -0.000358011 -0.000339226
0.0057371 -1.76491e-05 0.000170464
0.00562249 -0.000433948 0.000226186
0.00608697 -4.62366e-06 0.000161292
0.00578373 0.000150804 4.0603e-05
0.00591888 -0.000326828 -0.000258909
0.00573019 -2.97458e-05 0.000175237
0.00572473 4.00532e-05 -0.000203655
0.0057815 2.67329e-06 0.000140712
-3.82835e-14 8.16874e-14 2.95888e-13
0.0056128 9.65069e-05 6.44174e-05
0.00570685 -0.00043084 0.000236093
0.00572214 2.93057e-05 -0.000177906
0.00562245 -8.03514e-05 -0.000208561
0.00581279 9.73885e-05 -0.000211493
0.00569384 0.000144924 -0.000203061
0.00583535 -0.000504865 0.000189078
0.00608685 -2.01287e-06 0.000158089
0.005718 0.000127594 5.75749e-05
0.00569495 4.09659e-05 -0.000210187
0.00571912 5.76954e-05 -0.000207136
0.00584862 -0.000517259 0.000197384
0.00572704 6.00702e-05 -0.000202088
0.00576041 -0.000463274 0.000170116
0.0056939 4.28987e-05 -0.000186679
0.00544285 -0.000497214 -0.000132527
0.00587544 2.03966e-05 0.000141664
0.00567679 7.633e-05 -0.000212038
0.00566126 0.000163928 -0.00020399
0.00566537 8.52334e-05 -0.000206187
0.00574061 4.86906e-06 -3.34514e-06
0.0058916 -0.000503132 0.000186434
0.00571352 4.97378e-05 -0.000110092
0.0057015 -0.000445041 0.000228077
0.00580375 -3.50428e-05 0.000182612
0.00573151 -3.99841e-06 0.000111496
0.00619001 -0.000486666 0.000166239
0.00561535 -0.000441378 0.000225988
0.00600605 -0.000400901 0.000111344
0.00565553 -0.000335166 0.000512242
0.00538802 -0.000381588 0.000217265
0.00593406 8.39123e-05 0.000106381
0.00594995 -0.000551133 0.000218222
0.00613441 -1.15473e-05 0.000166964
0.0056495 0.000185284 -0.00019993
0.00541569 -0.000331868 -0.000332376
0.00568105 -0.000316884 0.00052308
0.00614817 -5.46443e-05 0.000183134
0.00570709 7.72103e-05 -0.000171171
0.0061616 -5.80705e-05 0.000199951
0.00599559 3.4275e-05 -0.000220791
0.00587798 8.89185e-05 9.15909e-05
0.00573381 -0.000438487 0.000225926
0.00613269 -4.52308e-05 0.00019031
0.00568927 8.97923e-05 -0.000206773
0.00566109 7.01606e-05 -0.000200258
0.00588545 -0.000383934 -0.000338905
0.00570408 2.86464e-05 -0.000167792
0.0060897 -1.10386e-05 0.000167417
0.00559879 -0.000414802 0.000148038
0.00564842 -0.000440535 0.000227931
0.00567416 0.000112921 -0.000198951
0.00618648 -0.000485915 0.000165996
0.00563371 -0.000451887 0.00022683
0.00563654 -0.000434928 -0.000123185
0.00569945 4.79576e-05 -0.000207637
0.0058759 -0.00054187 0.000213756
0.00567641 7.61679e-05 -0.000209166
0.0055899 -0.00043567 0.000224589
0.00572047 1.70289e-05 -0.000106805
0.00613751 4.99898e-05 0.00125068
0.00592118 -0.000547006 0.000216084
0.00583962 5.05943e-05 0.000110991
0.00619853 -9.61182e-05 0.000221569
0.00574117 -0.000430723 0.000231254
0.00571241 0.000139123 7.73812e-06
0.00565674 -0.000357422 -0.000156497
0.00560164 -0.000368981 0.000296211
0.00584959 0.000257206 -2.51097e-05
0.00629489 1.66423e-05 -0.000233084
0.00548629 -0.000522529 -0.000112031
0.00591701 -0.000401456 -0.000328714
0.00618328 1.26165e-05 0.000149454
0.00560501 -0.000438201 0.00022556
0.0057906 -5.34315e-06 -0.000215848
0.00601643 8.8669e-05 -0.000218835
0.00614668 2.22463e-05 -0.00022817
0.00576852 1.51001e-05 0.00120217
0.00596666 6.53182e-05 0.00116628
0.00572428 -5.87692e-06 0.00122365
0.00639034 0.000177714 3.36173e-05
0.00612682 -1.87123e-05 0.000171454
0.00585437 4.94507e-05 0.00118386
0.00618637 -0.000118876 0.000862775
0.00573152 0.000103767 -0.000208417
0.00576412 2.19407e-05 -0.000213559
0.00567167 -0.000326776 0.000516903
0.00569437 6.67821e-05 -0.000210316
0.00571048 -0.000420161 0.000229304
0.00551356 -0.000331308 0.000501766
0.00606879 -0.000243887 -0.000243821
0.00617698 3.8849e-05 0.00114573
0.00564443 -0.000353399 -0.000339051
0.00565489 9.75047e-05 -0.000205017
0.00618474 5.06789e-05 -0.000227018
0.00594587 -3.03246e-05 -0.000221834
0.00549437 -0.000349865 0.000497072
0.00622387 1.44801e-05 0.000149637
0.00590595 0.00010556 -0.000210892
0.00625775 -1.92276e-05 -0.000233087
0.00609918 0.000102769 0.00119155
0.0064379 -2.90731e-05 -0.000227013
0.00568096 -0.000309079 0.00051511
0.00581715 0.000122511 6.08584e-05
0.00597192 -0.000241929 -0.000234823
0.00577677 0.00010317 0.000143456
0.00590213 0.000122536 -0.000220211
0.00573895 -0.00042752 0.000230306
0.00566744 6.70061e-05 -0.000205258
0.00563393 -0.000403076 0.000509829
0.00583607 1.18625e-05 -0.00021652
0.00568868 -0.00040504 0.000514923
0.0060997 -5.36945e-05 -0.000232587
0.00568828 0.000113849 -0.000219102
0.00556428 0.000128562 -0.000201734
0.00575073 6.56333e-05 -0.000210749
0.00586513 -0.000339691 0.000396597
0.00569609 -0.000303559 0.000517963
0.0063357 0.000155657 4.83007e-05
0.0062754 7.31664e-05 0.00129723
0.00595355 6.1696e-05 0.00117842
0.00602927 7.0566e-05 -0.000221005
0.00628754 -6.36353e-06 -0.000234202
0.00627624 -7.79078e-07 -0.000239196
0.00609135 4.98249e-05 -0.000224324
0.00635145 -3.71081e-05 -0.000246919
0.0062831 0.000130395 6.55133e-05
0.00640647 0.000168068 4.06856e-05
0.00581075 6.54085e-05 -0.000213011
0.00590009 -0.000400575 -0.000322834
0.00567085 7.17504e-05 -0.000207421
0.00543561 0.000135482 -0.000195259
0.00545987 -0.000427522 -0.000121931
0.00587548 9.2854e-05 -0.000213717
0.00621795 -0.00048626 0.000165164
0.00600097 7.75141e-05 0.00116523
0.00561988 -0.00032898 0.000508915
0.00578821 -0.000439735 0.000191241

VECTORS force float
6.60486e-11 -2.2752e-11 8.91423e-12
-8.25022e-11 -1.75197e-11 5.53478e-12
2.61453e-11 -1.47128e-10 1.29496e-10
1.95206e-11 -1.25583e-13 2.04986e-11
-2.02983e-10 8.76095e-11 -4.77932e-11
2.52801e-11 1.7863e-11 -7.22292e-12
6.00485e-11 1.03559e-11 6.20847e-12
5.8226e-12 1.95046e-10 -1.354e-10
-4.6013e-11 -1.01331e-10 1.05979e-10
2.2745e-10 6.61227e-11 -3.36925e-11
4.4594e-12 4.23558e-11 6.0013e-11
-6.49291e-11 -1.94069e-10 2.89822e-11
6.14708e-11 1.10377e-10 -7.04019e-11
-2.09531e-10 5.70589e-11 -3.05796e-11
2.52313e-11 -2.10935e-12 -8.28361e-12
-5.04875e-11 -4.64323e-11 6.1518e-11
-7.99835e-11 7.70038e-12 9.18631e-12
-5.23069e-11 -6.76375e-11 -5.37861e-12
4.19705e-11 1.49479e-10 -1.0641e-10
6.82696e-11 2.05943e-11 -2.19111e-11
6.42e-11 1.66402e-11 -5.16019e-11
-1.36169e-10 -2.92632e-10 2.38189e-10
-5.22598e-11 6.73702e-11 -6.55493e-12
-7.61917e-11 -6.34439e-11 4.10191e-11
5.19448e-11 4.48753e-11 -4.44616e-11
-1.07847e-10 -2.86258e-10 1.78465e-10
-2.98377e-11 -1.45793e-11 1.70804e-11
-7.50378e-11 -2.84988e-10 1.97802e-10
-1.30125e-10 -3.47009e-11 -2.34552e-11
4.43404e-11 2.3562e-11 -1.5948e-11
1.64242e-10 -4.02199e-11 4.47837e-11
4.82461e-11 -1.29817e-11 -4.53826e-11
-2.4976e-10 -2.19123e-10 1.57315e-10
1.06211e-10 -3.82559e-11 3.06495e-11
5.57226e-12 6.78893e-11 -3.73113e-11
-1.90652e-11 -4.30728e-11 3.47934e-11
8.32534e-11 -1.10266e-11 -8.23475e-12
6.59704e-11 -7.31276e-11 4.9279e-11
1.68217e-10 6.22717e-11 -5.28711e-11
-1.53713e-11 6.33926e-11 -7.68908e-11
4.80061e-11 2.52717e-12 4.09821e-12
-1.89265e-10 1.48505e-11 -1.3882e-10
1.62942e-10 -7.26379e-11 3.38681e-12
7.33925e-11 -1.85151e-10 1.17279e-10
-3.497e-11 -1.57502e-10 6.96897e-11
-1.37621e-10 1.62026e-11 -6.46299e-11
-3.22118e-12 1.04922e-12 1.22375e-11
2.19835e-11 1.1899e-10 3.751e-12
1.88885e-10 -1.20294e-11 1.19287e-10
-3.19229e-10 9.04885e-11 -1.1566e-10
-7.09739e-11 1.05227e-10 -7.3799e-11
-3.62871e-11 -1.30912e-12 8.79439e-12
-1.00735e-10 -6.25019e-11 5.03609e-11
2.95013e-10 5.98599e-11 -8.49228e-11
7.8551e-11 6.89334e-11 -4.93102e-11
-1.0388e-10 -4.28993e-11 3.53749e-11
5.42162e-12 1.85185e-10 -1.26835e-10
-8.77164e-11 7.50971e-11 -5.48529e-11
-2.85381e-11 1.46354e-10 -9.83914e-11