# vtk DataFile Version 3.0
LIGGGHTS particles timestep 36800000
ASCII
DATASET POLYDATA
POINTS 271 float
0.227068 0.0154683 0.0086187
0.227924 0.0181785 0.00700113
0.221981 0.0176771 0.00710974
0.227994 0.0181176 0.00703841
0.227046 0.0154003 0.00868856
0.233507 0.0171455 0.00742263
0.227155 0.0157623 0.0083621
0.227024 0.0153337 0.00875992
0.233629 0.0177115 0.00721216
0.22762 0.0176743 0.00724659
0.227754 0.0178798 0.00714723
0.221097 0.015784 0.00873564
0.226964 0.0152298 0.0090348
0.221767 0.0183279 0.00702425
0.227963 0.0180326 0.00708125
0.221864 0.0183588 0.00701606
0.228063 0.0181835 0.0070084
0.227004 0.0152991 0.00885159
0.227581 0.0174999 0.00733624
0.227734 0.0177926 0.00719205
0.221346 0.0162091 0.00815997
0.233712 0.0180877 0.00707208
0.227227 0.0159845 0.00817435
0.233588 0.0175233 0.00728216
0.222067 0.0180637 0.00705075
0.22787 0.0179979 0.00709297
0.227176 0.0158368 0.0082985
0.227723 0.0179873 0.00718597
0.227243 0.0160588 0.00810914
0.227724 0.017287 0.00745938
0.233527 0.0172401 0.00738746
0.227132 0.0156884 0.00842549
0.22785 0.0176571 0.0072722
0.233691 0.0179933 0.0071072
0.227772 0.0183498 0.00689937
0.227933 0.0186731 0.00687161
0.233734 0.0181822 0.00703686
0.228096 0.0182802 0.00695953
0.321436 0.0173475 0.00552525
0.227888 0.0180919 0.0070444
0.233547 0.0173346 0.00735233
0.22709 0.01554 0.00855253
0.227911 0.0185749 0.00687315
0.227284 0.0162175 0.00799475
0.227262 0.0161369 0.00804974
0.22101 0.0155482 0.00904692
0.23367 0.0178992 0.00714226
0.227845 0.0183261 0.00697627
0.220946 0.0153714 0.00928039
0.227793 0.0184452 0.00687836
0.233568 0.017429 0.00731723
0.227715 0.0177054 0.00723687
0.227566 0.0170335 0.0075824
0.228059 0.01844 0.00687211
0.228041 0.0179797 0.00711491
0.233755 0.018277 0.00700156
0.221292 0.0163145 0.0080354
0.220924 0.0153124 0.00935821
0.227842 0.0182264 0.00696982
0.227772 0.0174598 0.0073712
0.227806 0.0184182 0.00697377
0.233608 0.0176176 0.00724711
0.220989 0.0154892 0.00912476
0.22772 0.0181199 0.00705477
0.227837 0.0186425 0.00687535
0.227889 0.0184772 0.00687464
0.221992 0.0181304 0.007044
0.227809 0.0177365 0.00722718
0.221746 0.0182314 0.00703916
0.221054 0.0156663 0.00889163
0.228028 0.0183433 0.00692124
0.221886 0.0184554 0.00700131
0.221119 0.015843 0.00865785
0.221799 0.0180691 0.00706028
0.233649 0.0178053 0.00717724
0.222002 0.0177738 0.00709501
0.228123 0.0183743 0.00691158
0.228007 0.0186061 0.00686936
0.227453 0.0169121 0.00763862
0.227986 0.0185085 0.00687236
0.227774 0.0179671 0.00710237
0.222045 0.017967 0.00706551
0.227869 0.0183814 0.00689445
0.227324 0.0163916 0.00790532
0.227757 0.0178848 0.00724705
0.227679 0.0176806 0.00732699
0.227347 0.0164783 0.00786108
0.22141 0.0163933 0.00793218
0.227849 0.017911 0.00713748
0.221508 0.0167566 0.00760459
0.227964 0.018412 0.00688763
0.221075 0.0157251 0.00881346
0.0643568 0.0187248 0.00531097
0.24257 0.0191927 0.00520306
0.221696 0.0175849 0.00713403
0.222119 0.0178997 0.00707235
0.221942 0.0174831 0.00713918
0.221923 0.0173862 0.0071539
0.227846 0.0185096 0.00696522
0.228021 0.0178863 0.00716293
0.227369 0.0165679 0.00782219
0.227693 0.0175558 0.00731461
0.221756 0.0178756 0.00708983
0.221375 0.0165786 0.00774755
0.221724 0.0181346 0.00705376
0.227945 0.0179419 0.00712807
0.227785 0.0183023 0.00705233
0.227881 0.0188377 0.00687237
0.221562 0.0173588 0.00717177
0.227904 0.0177676 0.00721749
0.227198 0.0159108 0.00823501
0.227111 0.0156143 0.00848898
0.227654 0.0173813 0.00740432
0.221524 0.0171796 0.00724112
0.227673 0.0174686 0.00735943
0.227955 0.0187707 0.00687012
0.227588 0.0171212 0.00753746
0.22214 0.0179963 0.00705762
0.227625 0.0172958 0.00744761
0.227679 0.0179359 0.00711213
0.221962 0.0175801 0.00712446
0.227795 0.018054 0.00705786
0.22764 0.0177615 0.00720177
0.2276 0.0172096 0.00749143
0.226985 0.0152644 0.00894345
0.221789 0.0184244 0.00700951
0.227304 0.0163061 0.0079532
0.227804 0.0181387 0.00711177
0.227829 0.0178237 0.00718236
0.221777 0.0179722 0.00707509
0.221506 0.0171043 0.0073046
0.220967 0.0154303 0.00920257
0.22162 0.0176499 0.00712759
0.221843 0.0182622 0.0070308
0.221603 0.0167842 0.00758825
0.227471 0.0170032 0.00760185
0.0100679 0.0201683 0.00551526
0.221469 0.0169541 0.00743114
0.221832 0.0186174 0.00698003
0.221582 0.0174558 0.00715705
0.221791 0.0171878 0.00725516
0.221735 0.0177789 0.00710459
0.0219312 0.0187687 0.00551176
0.221971 0.0180339 0.00705874
0.228081 0.0185384 0.00686714
0.221601 0.0175528 0.00714233
0.221907 0.0185519 0.00698657
0.221469 0.0166065 0.00773086
0.221791 0.0176166 0.0071258
0.227816 0.0185449 0.00687684
0.221526 0.0168318 0.00754116
0.221961 0.0183895 0.00700789
0.221867 0.0175505 0.0071324
0.227731 0.018078 0.00714489
0.221772 0.0175196 0.00714052
0.228001 0.0182506 0.00696837
0.221808 0.0172631 0.00719147
0.215495 0.0171251 0.0075275
0.22164 0.0169344 0.0074616
0.221564 0.016982 0.0074146
0.221638 0.0172939 0.00717827
0.221918 0.0181965 0.00703737
0.227659 0.0178487 0.00715695
0.221847 0.0174535 0.00714712
0.227668 0.0178405 0.00725624
0.22145 0.016879 0.00749449
0.227561 0.0174126 0.00738106
0.227753 0.0173725 0.0074161
0.227808 0.0181424 0.0070119
0.215766 0.0183198 0.00707321
0.227796 0.0175463 0.00732703
0.221752 0.0174226 0.00715537
0.227924 0.017855 0.00717258
0.161461 0.0182058 0.00533758
0.22195 0.0179373 0.00707347
0.221367 0.0162682 0.00808205
0.215553 0.0173557 0.00734482
0.221811 0.0185209 0.00699477
0.221703 0.0180381 0.0070685
0.221355 0.0165079 0.00781558
0.221832 0.0178102 0.00709634
0.227386 0.0166524 0.00777152
0.221032 0.0156072 0.0089691
0.221906 0.0177442 0.00710295
0.22143 0.0164564 0.00785719
0.221546 0.0169071 0.00747821
0.221715 0.0176819 0.00711931
0.218501 0.0173273 0.00715729
0.2276 0.0175871 0.00729142
0.22755 0.0173593 0.00746483
0.221853 0.0179068 0.00708161
0.227753 0.0182626 0.00694419
0.227488 0.0170863 0.0075488
0.215745 0.0182232 0.00705845
0.221811 0.0177134 0.00711107
0.227859 0.0187401 0.00687386
0.221141 0.0159018 0.0085801
0.227426 0.0168286 0.00768697
0.221928 0.0178408 0.00708821
0.281466 0.0169046 0.00740658
0.227933 0.0183137 0.00693007
0.221677 0.0174879 0.00714875
0.036735 0.0181144 0.00770529
0.227756 0.0176272 0.00728391
0.221487 0.0170292 0.00736783
0.215681 0.0179334 0.00701415
0.215513 0.0172011 0.00746479
0.221896 0.0181 0.00705211
0.221314 0.0163745 0.00795846
0.215478 0.0170492 0.00759013
0.221681 0.0179409 0.00708333
0.227699 0.0180231 0.0070673
0.221886 0.0176475 0.00711768
0.221271 0.0162571 0.0081147
0.221228 0.0161374 0.00826902
0.215303 0.0164482 0.00808814
0.215324 0.0165234 0.00802583
0.215396 0.0167476 0.00783973
0.221543 0.0172612 0.00718657
0.215348 0.0165983 0.0079637
0.215459 0.0169734 0.00765275
0.222088 0.0181602 0.00703601
0.221335 0.0164391 0.00788522
0.215723 0.0181266 0.00704369
0.221622 0.0168593 0.00752494
0.227412 0.0167384 0.00772774
0.215586 0.0175044 0.00721551
0.215787 0.0184164 0.00708797
0.21544 0.0168977 0.00771529
0.22164 0.0177469 0.00711287
0.221733 0.0173257 0.00717075
0.221697 0.0171598 0.00727185
0.221601 0.0171322 0.00728813
0.21561 0.0175864 0.00716334
0.221414 0.0167287 0.00762134
0.221205 0.0160787 0.0083466
0.215418 0.0168226 0.00777754
0.221854 0.0187139 0.0069653
0.21553 0.017277 0.00740215
0.221657 0.0173909 0.00716347
0.221389 0.0163294 0.008006
0.221394 0.0166536 0.00768432
0.221678 0.0170846 0.00733508
0.227509 0.01718 0.00752095
0.221939 0.018293 0.00702263
0.215642 0.0177394 0.00704267
0.221164 0.0159604 0.00850247
0.215623 0.0176539 0.00709075
0.22145 0.0165314 0.00779409
0.221432 0.0168038 0.00755782
0.221619 0.0172074 0.00722454
0.222014 0.0182269 0.00702927
0.215664 0.0178355 0.00702621
0.215281 0.016373 0.00815045
0.221489 0.0166815 0.00766773
0.221828 0.0173566 0.00716193
0.221874 0.0180033 0.00706687
0.221713 0.0172351 0.00720814
0.221659 0.0170096 0.00739829
0.221324 0.0161504 0.00823767
0.221821 0.0181657 0.00704555
0.221583 0.017059 0.00735366
0.221659 0.0178442 0.0070981
0.222024 0.0178703 0.00708027
0.221184 0.016021 0.00842536
0.215702 0.0180299 0.00702995
0.221248 0.0161966 0.00819098
0.227742 0.0182148 0.0070313
0.215373 0.0166727 0.00790184
0.215569 0.0174279 0.00727741
0.227531 0.0172775 0.00751932

VERTICES 271 542
1 0
1 1
1 2
1 3
1 4
1 5
1 6
1 7
1 8
1 9
1 10
1 11
1 12
1 13
1 14
1 15
1 16
1 17
1 18
1 19
1 20
1 21
1 22
1 23
1 24
1 25
1 26
1 27
1 28
1 29
1 30
1 31
1 32
1 33
1 34
1 35
1 36
1 37
1 38
1 39
1 40
1 41
1 42
1 43
1 44
1 45
1 46
1 47
1 48
1 49
1 50
1 51
1 52
1 53
1 54
1 55
1 56
1 57
1 58
1 59
1 60
1 61
1 62
1 63
1 64
1 65
1 66
1 67
1 68
1 69
1 70
1 71
1 72
1 73
1 74
1 75
1 76
1 77
1 78
1 79
1 80
1 81
1 82
1 83
1 84
1 85
1 86
1 87
1 88
1 89
1 90
1 91
1 92
1 93
1 94
1 95
1 96
1 97
1 98
1 99
1 100
1 101
1 102
1 103
1 104
1 105
1 106
1 107
1 108
1 109
1 110
1 111
1 112
1 113
1 114
1 115
1 116
1 117
1 118
1 119
1 120
1 121
1 122
1 123
1 124
1 125
1 126
1 127
1 128
1 129
1 130
1 131
1 132
1 133
1 134
1 135
1 136
1 137
1 138
1 139
1 140
1 141
1 142
1 143
1 144
1 145
1 146
1 147
1 148
1 149
1 150
1 151
1 152
1 153
1 154
1 155
1 156
1 157
1 158
1 159
1 160
1 161
1 162
1 163
1 164
1 165
1 166
1 167
1 168
1 169
1 170
1 171
1 172
1 173
1 174
1 175
1 176
1 177
1 178
1 179
1 180
1 181
1 182
1 183
1 184
1 185
1 186
1 187
1 188
1 189
1 190
1 191
1 192
1 193
1 194
1 195
1 196
1 197
1 198
1 199
1 200
1 201
1 202
1 203
1 204
1 205
1 206
1 207
1 208
1 209
1 210
1 211
1 212
1 213
1 214
1 215
1 216
1 217
1 218
1 219
1 220
1 221
1 222
1 223
1 224
1 225
1 226
1 227
1 228
1 229
1 230
1 231
1 232
1 233
1 234
1 235
1 236
1 237
1 238
1 239
1 240
1 241
1 242
1 243
1 244
1 245
1 246
1 247
1 248
1 249
1 250
1 251
1 252
1 253
1 254
1 255
1 256
1 257
1 258
1 259
1 260
1 261
1 262
1 263
1 264
1 265
1 266
1 267
1 268
1 269
1 270

POINT_DATA 271
SCALARS id int 1
LOOKUP_TABLE default
1
2
3
4
5
6
7
8
9
10
11
12
13
14
15
16
17
19
21
22
23
24
25
26
27
28
29
30
31
32
33
34
35
36
37
38
39
41
42
44
45
47
48
50
51
52
53
54
55
56
57
59
61
62
63
64
65
66
67
68
69
70
71
72
73
74
76
77
78
79
80
81
82
83
84
85
86
87
88
89
90
91
92
93
94
95
96
97
98
99
100
101
102
103
104
105
106
107
108
109
110
111
112
113
114
115
116
117
118
119
120
121
122
123
124
125
126
127
128
129
131
132
133
134
135
136
137
138
140
141
142
143
144
147
148
149
150
151
153
154
155
156
157
158
159
160
162
164
165
166
168
169
170
171
172
173
174
175
177
178
179
181
182
183
184
186
187
188
189
190
191
192
193
194
195
196
197
198
199
201
202
203
204
205
206
207
208
209
210
211
212
213
214
215
216
217
218
219
220
221
222
223
224
225
226
227
228
229
230
231
232
234
235
236
237
239
240
241
242
244
246
247
248
249
250
251
252
253
254
255
256
257
258
259
261
262
263
264
265
266
267
268
269
270
271
272
273
274
275
276
277
278
280
283
284
285
286
287
288
289
290
291
292
293
294
295
296
297
298
299
300

SCALARS type int 1
LOOKUP_TABLE default
1
1
1
1
1
1
1
1
1
1
1
1
1
1
1
1
1
1
1
1
1
1
1
1
1
1
1
1
1
1
1
1
1
1
1
1
1
1
1
1
1
1
1
1
1
1
1
1
1
1
1
1
1
1
1
1
1
1
1
1
1
1
1
1
1
1
1
1
1
1
1
1
1
1
1
1
1
1
1
1
1
1
1
1
1
1
1
1
1
1
1
1
1
1
1
1
1
1
1
1
1
1
1
1
1
1
1
1
1
1
1
1
1
1
1
1
1
1
1
1
1
1
1
1
1
1
1
1
1
1
1
1
1
1
1
1
1
1
1
1
1
1
1
1
1
1
1
1
1
1
1
1
1
1
1
1
1
1
1
1
1
1
1
1
1
1
1
1
1
1
1
1
1
1
1
1
1
1
1
1
1
1
1
1
1
1
1
1
1
1
1
1
1
1
1
1
1
1
1
1
1
1
1
1
1
1
1
1
1
1
1
1
1
1
1
1
1
1
1
1
1
1
1
1
1
1
1
1
1
1
1
1
1
1
1
1
1
1
1
1
1
1
1
1
1
1
1
1
1
1
1
1
1
1
1
1
1
1
1
1
1
1
1
1
1
1
1
1
1
1
1

SCALARS radius float 1
LOOKUP_TABLE default
5e-05
5e-05
5e-05
5e-05
5e-05
5e-05
5e-05
5e-05
5e-05
5e-05
5e-05
5e-05
5e-05
5e-05
5e-05
5e-05
5e-05
5e-05
5e-05
5e-05
5e-05
5e-05
5e-05
5e-05
5e-05
5e-05
5e-05
5e-05
5e-05
5e-05
5e-05
5e-05
5e-05
5e-05
5e-05
5e-05
5e-05
5e-05
5e-05
5e-05
5e-05
5e-05
5e-05
5e-05
5e-05
5e-05
5e-05
5e-05
5e-05
5e-05
5e-05
5e-05
5e-05
5e-05
5e-05
5e-05
5e-05
5e-05
5e-05
5e-05
5e-05
5e-05
5e-05
5e-05
5e-05
5e-05
5e-05
5e-05
5e-05
5e-05
5e-05
5e-05
5e-05
5e-05
5e-05
5e-05
5e-05
5e-05
5e-05
5e-05
5e-05
5e-05
5e-05
5e-05
5e-05
5e-05
5e-05
5e-05
5e-05
5e-05
5e-05
5e-05
5e-05
5e-05
5e-05
5e-05
5e-05
5e-05
5e-05
5e-05
5e-05
5e-05
5e-05
5e-05
5e-05
5e-05
5e-05
5e-05
5e-05
5e-05
5e-05
5e-05
5e-05
5e-05
5e-05
5e-05
5e-05
5e-05
5e-05
5e-05
5e-05
5e-05
5e-05
5e-05
5e-05
5e-05
5e-05
5e-05
5e-05
5e-05
5e-05
5e-05
5e-05
5e-05
5e-05
5e-05
5e-05
5e-05
5e-05
5e-05
5e-05
5e-05
5e-05
5e-05
5e-05
5e-05
5e-05
5e-05
5e-05
5e-05
5e-05
5e-05
5e-05
5e-05
5e-05
5e-05
5e-05
5e-05
5e-05
5e-05
5e-05
5e-05
5e-05
5e-05
5e-05
5e-05
5e-05
5e-05
5e-05
5e-05
5e-05
5e-05
5e-05
5e-05
5e-05
5e-05
5e-05
5e-05
5e-05
5e-05
5e-05
5e-05
5e-05
5e-05
5e-05
5e-05
5e-05
5e-05
5e-05
5e-05
5e-05
5e-05
5e-05
5e-05
5e-05
5e-05
5e-05
5e-05
5e-05
5e-05
5e-05
5e-05
5e-05
5e-05
5e-05
5e-05
5e-05
5e-05
5e-05
5e-05
5e-05
5e-05
5e-05
5e-05
5e-05
5e-05
5e-05
5e-05
5e-05
5e-05
5e-05
5e-05
5e-05
5e-05
5e-05
5e-05
5e-05
5e-05
5e-05
5e-05
5e-05
5e-05
5e-05
5e-05
5e-05
5e-05
5e-05
5e-05
5e-05
5e-05
5e-05
5e-05
5e-05
5e-05
5e-05
5e-05
5e-05
5e-05
5e-05
5e-05
5e-05
5e-05
5e-05
5e-05
5e-05
5e-05
5e-05
5e-05
5e-05
5e-05
5e-05
5e-05
5e-05
5e-05
5e-05
5e-05
5e-05
5e-05
5e-05
5e-05
5e-05

SCALARS mass float 1
LOOKUP_TABLE default
1.46608e-10
1.46608e-10
1.46608e-10
1.46608e-10
1.46608e-10
1.46608e-10
1.46608e-10
1.46608e-10
1.46608e-10
1.46608e-10
1.46608e-10
1.46608e-10
1.46608e-10
1.46608e-10
1.46608e-10
1.46608e-10
1.46608e-10
1.46608e-10
1.46608e-10
1.46608e-10
1.46608e-10
1.46608e-10
1.46608e-10
1.46608e-10
1.46608e-10
1.46608e-10
1.46608e-10
1.46608e-10
1.46608e-10
1.46608e-10
1.46608e-10
1.46608e-10
1.46608e-10
1.46608e-10
1.46608e-10
1.46608e-10
1.46608e-10
1.46608e-10
1.46608e-10
1.46608e-10
1.46608e-10
1.46608e-10
1.46608e-10
1.46608e-10
1.46608e-10
1.46608e-10
1.46608e-10
1.46608e-10
1.46608e-10
1.46608e-10
1.46608e-10
1.46608e-10
1.46608e-10
1.46608e-10
1.46608e-10
1.46608e-10
1.46608e-10
1.46608e-10
1.46608e-10
1.46608e-10
1.46608e-10
1.46608e-10
1.46608e-10
1.46608e-10
1.46608e-10
1.46608e-10
1.46608e-10
1.46608e-10
1.46608e-10
1.46608e-10
1.46608e-10
1.46608e-10
1.46608e-10
1.46608e-10
1.46608e-10
1.46608e-10
1.46608e-10
1.46608e-10
1.46608e-10
1.46608e-10
1.46608e-10
1.46608e-10
1.46608e-10
1.46608e-10
1.46608e-10
1.46608e-10
1.46608e-10
1.46608e-10
1.46608e-10
1.46608e-10
1.46608e-10
1.46608e-10
1.46608e-10
1.46608e-10
1.46608e-10
1.46608e-10
1.46608e-10
1.46608e-10
1.46608e-10
1.46608e-10
1.46608e-10
1.46608e-10
1.46608e-10
1.46608e-10
1.46608e-10
1.46608e-10
1.46608e-10
1.46608e-10
1.46608e-10
1.46608e-10
1.46608e-10
1.46608e-10
1.46608e-10
1.46608e-10
1.46608e-10
1.46608e-10
1.46608e-10
1.46608e-10
1.46608e-10
1.46608e-10
1.46608e-10
1.46608e-10
1.46608e-10
1.46608e-10
1.46608e-10
1.46608e-10
1.46608e-10
1.46608e-10
1.46608e-10
1.46608e-10
1.46608e-10
1.46608e-10
1.46608e-10
1.46608e-10
1.46608e-10
1.46608e-10
1.46608e-10
1.46608e-10
1.46608e-10
1.46608e-10
1.46608e-10
1.46608e-10
1.46608e-10
1.46608e-10
1.46608e-10
1.46608e-10
1.46608e-10
1.46608e-10
1.46608e-10
1.46608e-10
1.46608e-10
1.46608e-10
1.46608e-10
1.46608e-10
1.46608e-10
1.46608e-10
1.46608e-10
1.46608e-10
1.46608e-10
1.46608e-10
1.46608e-10
1.46608e-10
1.46608e-10
1.46608e-10
1.46608e-10
1.46608e-10
1.46608e-10
1.46608e-10
1.46608e-10
1.46608e-10
1.46608e-10
1.46608e-10
1.46608e-10
1.46608e-10
1.46608e-10
1.46608e-10
1.46608e-10
1.46608e-10
1.46608e-10
1.46608e-10
1.46608e-10
1.46608e-10
1.46608e-10
1.46608e-10
1.46608e-10
1.46608e-10
1.46608e-10
1.46608e-10
1.46608e-10
1.46608e-10
1.46608e-10
1.46608e-10
1.46608e-10
1.46608e-10
1.46608e-10
1.46608e-10
1.46608e-10
1.46608e-10
1.46608e-10
1.46608e-10
1.46608e-10
1.46608e-10
1.46608e-10
1.46608e-10
1.46608e-10
1.46608e-10
1.46608e-10
1.46608e-10
1.46608e-10
1.46608e-10
1.46608e-10
1.46608e-10
1.46608e-10
1.46608e-10
1.46608e-10
1.46608e-10
1.46608e-10
1.46608e-10
1.46608e-10
1.46608e-10
1.46608e-10
1.46608e-10
1.46608e-10
1.46608e-10
1.46608e-10
1.46608e-10
1.46608e-10
1.46608e-10
1.46608e-10
1.46608e-10
1.46608e-10
1.46608e-10
1.46608e-10
1.46608e-10
1.46608e-10
1.46608e-10
1.46608e-10
1.46608e-10
1.46608e-10
1.46608e-10
1.46608e-10
1.46608e-10
1.46608e-10
1.46608e-10
1.46608e-10
1.46608e-10
1.46608e-10
1.46608e-10
1.46608e-10
1.46608e-10
1.46608e-10
1.46608e-10
1.46608e-10
1.46608e-10
1.46608e-10
1.46608e-10
1.46608e-10
1.46608e-10
1.46608e-10
1.46608e-10
1.46608e-10
1.46608e-10
1.46608e-10
1.46608e-10
1.46608e-10
1.46608e-10
1.46608e-10
1.46608e-10
1.46608e-10
1.46608e-10
1.46608e-10

VECTORS velocity float
0.00627359 2.70984e-06 -0.000473206
0.00627821 0.000423217 0.000225374
0.0060605 0.000744112 -0.000340764
0.00629698 0.00044355 0.000216209
0.0063009 0.000297675 -0.000178391
0.00552818 0.000345104 -0.000534105
0.00625148 -0.00011113 -0.000589449
0.0063005 0.00048455 -3.09947e-06
0.0058299 -2.2469e-05 -0.000425751
0.00595009 0.00051647 0.000156887
0.00607023 0.000447877 0.000198795
0.00602355 0.00013832 -0.00111176
0.00614858 0.000482389 -2.87507e-05
0.00628592 0.000760388 -0.000353426
0.00608973 0.000510862 0.000166624
0.00629618 0.000724256 -0.000347277
0.00629825 0.000440108 0.000218105
0.00626511 0.000484678 -8.21676e-06
0.00581264 0.000514719 0.000141669
0.00598974 0.00044118 0.000197399
0.00603203 5.00517e-05 -0.000978411
0.00600112 -9.65594e-05 -0.000412125
0.00640442 -0.000216692 -0.00062552
0.00555791 0.000232443 -0.000496227
0.00621671 0.000700102 -0.000340882
0.00612704 0.000423068 0.000219908
0.00623996 -0.000111133 -0.000588057
0.00609675 0.000461578 0.000189574
0.00667646 -0.00013754 -0.000467926
0.00566844 0.000438877 0.000173724
0.00555579 0.000302647 -0.000521052
0.00626566 -0.000112387 -0.000590266
0.005906 0.000386652 0.000220344
0.00595779 -7.97853e-05 -0.00041487
0.00638157 0.000470216 0.000214016
0.00636677 0.000326688 -0.000236101
0.00604487 -0.000112009 -0.000409881
0.00631168 0.00047811 0.000200455
4.54646e-16 2.25545e-15 8.46361e-14
0.00616386 0.000332751 0.000267794
0.00555627 0.000278156 -0.000512372
0.00629001 -0.000113465 -0.000591046
0.00637642 0.00033348 -0.000224529
0.00592824 0.0005098 0.000156297
0.00615372 0.000300372 -5.67869e-05
0.00595636 0.00017093 -0.00114103
0.00591482 -6.1813e-05 -0.000418069
0.00625476 0.000435283 0.000113007
0.00592783 0.000177818 -0.0011479
0.00638188 0.000375639 -0.000237622
0.00555694 0.000254592 -0.000504037
0.00594709 0.000456706 0.000183964
0.00551038 0.000575992 8.95499e-05
0.00645399 0.000392365 0.000261571
0.00609482 0.000512036 0.000165399
0.00608905 -0.000126071 -0.000408165
0.00609647 0.000143402 -0.00114118
0.0059181 0.000178068 -0.00114401
0.00629081 0.000436336 0.000218308
0.00578485 0.000420285 0.000193108
0.00626146 0.00041955 -0.000209003
0.00555919 0.00021176 -0.000488962
0.00595048 0.000174658 -0.00114778
0.00616137 0.000472124 0.000194584
0.00637391 0.000341682 -0.000233644
0.00638208 0.000333017 -0.000285812
0.00625459 0.000731807 -0.000346872
0.00596375 0.000403879 0.000211107
0.006271 0.00077725 -0.000354311
0.00598747 0.000159584 -0.00113297
0.0063082 0.000470915 0.000202616
0.00631618 0.000704738 -0.00034534
0.00602758 0.000129513 -0.00110524
0.0062233 0.000789517 -0.000354275
0.00587213 -4.29624e-05 -0.0004216
0.0061705 0.00073649 -0.000345027
0.00643217 0.000364395 0.000268674
0.00636831 0.000315104 -0.000238066
0.00569953 0.000556482 0.000114117
0.00636951 0.00031458 -0.000177347
0.00613092 0.000426135 0.000214848
0.00618207 0.000712174 -0.000341171
0.00635131 0.000408285 6.35118e-05
0.00603817 0.000496724 0.000169985
0.00609506 0.000394146 0.000199687
0.00590574 0.000476476 0.00017034
0.00606686 0.000494584 0.000179774
0.00582026 0.000791464 -0.000502899
0.0061159 0.000411705 0.000221305
0.0058525 0.000984138 -0.00038737
0.00638526 0.000342386 -0.000196014
0.00600748 0.000149305 -0.0011236
4.44565e-15 1.04834e-14 8.29528e-14
3.61636e-22 4.86658e-23 1.23839e-22
0.00588407 0.000972541 -0.000369309
0.00615629 0.000655803 -0.000332091
0.00587844 0.000820917 -0.000340248
0.00578146 0.000869153 -0.000339872
0.00639492 0.00034967 -0.000245763
0.00608062 0.000397065 0.00022536
0.00601641 0.000503853 0.000172622
0.00585106 0.000460722 0.000176239
0.00623971 0.000828168 -0.000360233
0.00571905 0.000911926 -0.000521346
0.00627316 0.000842908 -0.000363685
0.00610884 0.000420105 0.000215216
0.0060673 0.000602055 2.00634e-05
0.0063764 0.000345443 -0.000236384
0.00585869 0.000918213 -0.000357986
0.0059802 0.000360043 0.000238264
0.00623736 -0.000113783 -0.000587178
0.00628033 -0.000113726 -0.000590769
0.00572833 0.000481834 0.000155213
0.00582431 0.000912766 -0.00032895
0.00578889 0.000477177 0.00016095
0.00637623 0.000329789 -0.000236862
0.00554608 0.000526491 0.00011868
0.00619873 0.000671204 -0.00033578
0.00567845 0.000494678 0.00014558
0.00610578 0.000487757 0.00018045
0.00600338 0.000764701 -0.000337666
0.00613072 0.00042811 0.000214323
0.00598287 0.000487251 0.000168905
0.00561058 0.000512711 0.000132962
0.00618865 0.000482882 -2.15749e-05
0.00629468 0.000730794 -0.000348305
0.00602106 0.000494884 0.000165018
0.00618117 0.000396487 0.000242028
0.00601769 0.000397237 0.000218351
0.00626427 0.000828031 -0.00036119
0.00582117 0.00093476 -0.000348309
0.00594761 0.000175285 -0.00115069
0.00583318 0.000955933 -0.00036486
0.0062879 0.000762635 -0.000353267
0.00589687 0.000920873 -0.00033002
0.00548217 0.000593584 9.50542e-05
8.38407e-15 1.25349e-15 -8.48743e-14
0.00575644 0.00101231 -0.000413579
0.00630966 0.000664728 -0.000339225
0.00584564 0.000952786 -0.000362483
0.00570838 0.000959213 -0.000268357
0.00614253 0.000889698 -0.00036517
-3.82694e-14 8.16989e-14 2.95887e-13
0.00621088 0.000746331 -0.000347198
0.00636669 0.000313114 -0.000241945
0.00584204 0.000978738 -0.000363453
0.0063327 0.000695126 -0.00034467
0.00577373 0.000994401 -0.000403255
0.00567293 0.000922218 -0.00035069
0.00637604 0.000342219 -0.000239609
0.00584632 0.000988448 -0.000391774
0.00633105 0.00072007 -0.000348122
0.00597888 0.00086328 -0.000354785
0.00610801 0.000467931 0.000200706
0.00565104 0.00093422 -0.000351435
0.00632139 0.000451 0.000213688
0.00575458 0.000908711 -0.000319541
0.00453482 0.000978848 -0.00105069
0.00584544 0.00093342 -0.000345229
0.0057405 0.000992935 -0.000393073
0.00582566 0.000943633 -0.000368276
0.00627528 0.000748754 -0.000350013
0.00603101 0.000485752 0.000175616
0.00583342 0.000900701 -0.000325291
0.00599587 0.000466425 0.000177213
0.00581931 0.00101052 -0.000411799
0.00577396 0.000533725 0.000130682
0.00572659 0.000430628 0.000182788
0.00621025 0.000398046 0.00023668
0.00624016 0.000749052 -0.000540886
0.00583668 0.000411552 0.000201519
0.00577436 0.000917362 -0.000355145
0.00606036 0.000347483 0.000250497
1.42845e-15 -1.10262e-14 8.66684e-14
0.00617354 0.000770027 -0.000349299
0.00603069 6.14515e-05 -0.000989747
0.00572289 0.000815801 -0.000979125
0.00629945 0.00069445 -0.000343125
0.00626591 0.000846085 -0.000364148
0.00582775 0.000644256 -0.000749718
0.00622348 0.000799223 -0.000355827
0.00593757 0.000510751 0.000157038
0.00597572 0.000165633 -0.00113868
0.00622362 0.00078885 -0.000353546
0.00583412 0.000978113 -0.000374045
0.00581026 0.000989767 -0.000396783
0.00596458 0.000940072 -0.00036605
0.00556198 -0.000886179 0.000334931
0.00586217 0.000519315 0.000149326
0.00571271 0.000544347 0.000122646
0.00619074 0.000791141 -0.000352563
0.00630644 0.000463257 0.000205496
0.00552038 0.000581863 8.84482e-05
0.00621801 0.000752533 -0.000529403
0.00601237 0.000845758 -0.000355083
0.00637161 0.000342123 -0.00023702
0.00603233 0.000124111 -0.0010947
0.00582066 0.000528645 0.000132446
0.00619829 0.000776532 -0.000351411
0.00585631 5.74165e-05 -0.000156141
0.00631599 0.000447776 0.000220746
0.00585499 0.000966293 -0.000365983
-0.0259719 0.0134415 -0.000785088
0.0058868 0.000433686 0.000193129
0.00576807 0.000974638 -0.00038546
0.00574948 0.000877554 -0.000450534
0.00526964 0.000860279 -0.000995339
0.00623654 0.000760569 -0.00035027
0.00601864 0.000142191 -0.0011637
0.00469012 0.00096233 -0.00104426
0.00625117 0.000854499 -0.000365295
0.00615854 0.000474534 0.0001906
0.00615417 0.000817747 -0.000356793
0.00608516 0.000148101 -0.00113073
0.00609847 0.000122458 -0.0011022
0.00601912 0.00083161 -0.00101455
0.00582088 0.000793662 -0.000972157
0.00672746 0.000594906 -0.000859405
0.00586209 0.000892699 -0.000354442
0.00636686 0.000669942 -0.000901466
0.00577117 0.000791492 -0.000966066
0.00628014 0.000688957 -0.000341678
0.00590522 0.000317071 -0.00103755
0.00628669 0.000751628 -0.000537191
0.0059354 0.000918524 -0.000325048
0.0058617 0.000525741 0.000141694
0.00580861 0.000837515 -0.000999864
0.00619925 0.000735441 -0.000531512
0.00650969 0.000667076 -0.000906149
0.00578823 0.000972319 -0.000361171
0.00577601 0.000924173 -0.000353979
0.0057025 0.000946397 -0.000380657
0.00574257 0.00100273 -0.000345044
0.00587821 0.000825451 -0.00100555
0.0057769 0.00100733 -0.000416945
0.00607267 0.000121705 -0.00109031
0.00671231 0.000613675 -0.00087361
0.00632927 0.000673974 -0.000341235
0.00567407 0.000802063 -0.000971172
0.0057922 0.000958159 -0.000374235
0.00592538 0.000319754 -0.000844303
0.00574111 0.0010116 -0.000414018
0.00568307 0.000959359 -0.000382067
0.00558056 0.00056729 0.00010203
0.00630275 0.000730297 -0.000348398
0.00588844 0.000798656 -0.00105536
0.00601774 0.000124181 -0.00109024
0.00587556 0.000829437 -0.00100159
0.00581544 0.000985986 -0.000394038
0.00582512 0.00100447 -0.000408296
0.00578061 0.000962978 -0.000371183
0.00629548 0.000717272 -0.000346213
0.00571997 0.000856009 -0.000923879
0.00601873 0.000762254 -0.000957601
0.00580041 0.000990414 -0.000398035
0.00577525 0.000911964 -0.000314461
0.00618744 0.000776221 -0.000350608
0.00576954 0.000935056 -0.000360415
0.00574543 0.000952623 -0.000367399
0.00598727 4.04674e-05 -0.000979994
0.00624971 0.000773613 -0.000352463
0.00567348 0.00101607 -0.000363288
0.00624782 0.00098182 -0.000381418
0.00613209 0.000761184 -0.000346478
0.00604477 0.000116614 -0.00108947
0.00606307 0.000817004 -0.000533331
0.00610166 0.000131522 -0.00111731
0.00626211 0.000460279 0.000205488
0.00668501 0.00059818 -0.000859567
0.00576375 0.000827798 -0.00099456
0.00564955 0.000553948 0.000115112

VECTORS force float
2.20223e-11 4.68099e-13 -1.27414e-12
-4.80712e-12 3.24675e-11 -2.93203e-11
-2.80229e-10 7.6916e-11 7.38819e-12
-1.20803e-10 5.80473e-11 -3.81244e-11
-1.11225e-11 -6.02217e-12 -6.48536e-12
7.70435e-13 2.25645e-13 -1.16611e-13
2.44717e-11 -6.76e-12 9.9047e-12
6.65065e-12 -2.77488e-12 -1.58976e-11
1.79036e-12 3.38456e-14 -1.46525e-13
-2.75705e-10 2.1958e-10 -7.70992e-11
-1.89291e-10 -2.25162e-10 8.32383e-11
-8.16803e-11 -7.16445e-12 1.83339e-11
2.9103e-12 7.69427e-12 -2.56312e-11
6.04141e-11 2.53768e-10 -4.24893e-11
1.93015e-11 1.68064e-10 -4.95795e-11
5.70763e-11 2.54267e-10 -4.37449e-11
-2.18879e-10 1.39695e-10 -9.2631e-11
2.62834e-11 4.27553e-12 -1.86708e-11
3.52259e-10 -4.10926e-11 8.45394e-11
-1.12523e-11 7.48763e-11 -9.06096e-12
-3.99673e-10 -1.01381e-10 1.30201e-10
1.2954e-12 -2.7672e-14 -8.79732e-14
4.18515e-11 -1.19537e-11 1.96524e-11
4.07565e-13 3.0708e-13 -1.38539e-13
-8.85236e-11 -2.49175e-10 3.36378e-11
1.28812e-10 9.16309e-11 -4.93675e-11
-3.58294e-12 -1.0796e-11 1.51222e-11
2.89781e-10 6.0282e-11 -2.19069e-11
9.24324e-11 9.36247e-13 2.20538e-11
4.34153e-11 -1.70325e-11 1.7514e-11
7.39201e-13 4.20281e-13 -2.0287e-13
1.40475e-11 -3.31724e-13 -6.24011e-12
1.20607e-10 -1.29516e-11 6.41795e-12
1.41448e-12 -5.79831e-14 -8.44554e-14
1.65705e-10 -3.8526e-11 6.7018e-11
-5.80927e-11 2.14338e-11 1.03364e-11
1.17992e-12 -4.14969e-14 -4.51723e-14
-2.16654e-10 2.1042e-10 -1.30467e-10
2.46377e-23 3.38627e-24 -2.06795e-25
-1.14201e-10 -2.81935e-11 5.28786e-11
6.20953e-13 3.1966e-13 -1.57598e-13
5.29687e-11 8.04205e-13 -3.42921e-12
3.74247e-12 -1.84315e-12 -1.49721e-10
-5.17542e-11 3.19458e-11 -5.05743e-12
1.75536e-11 1.2351e-11 -7.15599e-12
-2.78938e-11 -1.3553e-10 2.47538e-10
1.52445e-12 -3.22289e-16 -1.01747e-13
-1.05843e-10 6.67175e-11 -4.3924e-11
-9.93645e-11 1.59609e-10 -1.10968e-10
2.30915e-11 6.02714e-11 2.09187e-11
5.22033e-13 2.90762e-13 -1.37611e-13
7.95358e-11 -1.66652e-10 1.02033e-10
-3.57416e-11 -1.43127e-11 5.01128e-12
4.27275e-11 1.57926e-10 -8.26854e-11
-2.09138e-10 1.57294e-10 -1.05973e-10
1.0569e-12 -4.58406e-14 -4.50041e-14
6.28593e-10 -2.44234e-10 -3.43538e-10
1.32532e-10 1.40648e-10 -1.91648e-10
5.74204e-11 1.73248e-10 -9.96537e-11
-1.65251e-11 -1.01048e-11 8.19439e-12
-2.52507e-10 -1.01856e-11 4.33055e-12
2.893e-13 3.33128e-13 -1.39321e-13
1.69027e-10 -6.43538e-11 3.20202e-11
-1.25153e-10 4.72841e-12 -1.87318e-11
3.02019e-11 1.40666e-11 1.2255e-11
-9.65961e-11 1.12155e-11 -3.11301e-10
-8.29704e-12 1.12876e-10 -9.45045e-12
-5.84706e-11 1.56567e-11 1.04444e-12
-1.44867e-11 1.21744e-10 -1.01251e-12
-1.73793e-10 -1.51255e-10 2.2396e-10
-1.786e-10 1.2482e-10 -1.18734e-10
-4.31531e-11 -8.46515e-12 3.49304e-12
-2.41399e-11 -2.02337e-11 -2.12555e-11
-2.05576e-11 4.01465e-11 -1.74877e-13
1.66195e-12 4.90773e-14 -1.19417e-13
3.08867e-10 1.86529e-11 -1.08933e-11
-5.9635e-11 1.26806e-10 -6.10774e-11
-4.00216e-11 6.06381e-11 -4.0402e-11
-7.00596e-11 4.1904e-11 -3.17556e-11
-7.21715e-12 6.78598e-11 -1.84736e-10
-3.02387e-11 7.55583e-11 -6.37762e-11
1.51548e-10 -8.40783e-11 2.29678e-12
-6.14095e-11 4.78972e-11 -8.89013e-11
-9.8867e-12 1.29927e-11 -7.51552e-14
-2.40243e-11 -9.10996e-11 5.87906e-12
1.23455e-10 -2.56969e-10 7.32704e-11
-1.30571e-10 4.04101e-11 -2.38419e-11
-2.90492e-10 -8.65115e-11 9.45627e-11
-2.26451e-11 1.90277e-11 -1.1842e-11
2.06906e-10 1.98002e-11 -2.10788e-12
6.28877e-12 9.15161e-11 -3.40109e-10
-1.19453e-10 -8.60265e-11 1.14992e-10
1.78915e-21 -1.21027e-22 -7.85822e-23
0.0 0.0 0.0
-3.36894e-10 1.65336e-10 1.32734e-11
9.1273e-10 -3.80162e-10 2.01267e-11
-4.67746e-11 1.95276e-10 -1.2782e-10
1.14397e-10 9.43937e-12 5.35736e-11
-3.57347e-10 1.69929e-10 2.3107e-10
-3.51826e-11 1.048e-11 -3.59679e-11
-1.06018e-10 3.25082e-11 -5.55317e-11
8.04939e-11 1.18071e-10 -7.52832e-11
9.67714e-11 8.2559e-11 -3.33081e-11
1.17311e-10 -3.93367e-12 1.00015e-10
4.21971e-11 4.86462e-11 -9.08972e-12
-7.50431e-11 -9.48011e-11 1.13554e-10
-6.77179e-11 -4.09226e-11 -6.78163e-11
4.90962e-11 1.53545e-10 -2.82588e-12
1.07126e-10 -2.93156e-10 -7.76133e-12
3.25891e-11 8.74384e-12 -3.19975e-11
-2.63682e-11 -6.6403e-12 1.15491e-11