# vtk DataFile Version 3.0
LIGGGHTS particles timestep 39200000
ASCII
DATASET POLYDATA
POINTS 271 float
0.241044 0.0155661 0.00887532
0.241837 0.0177842 0.00702685
0.23612 0.0183305 0.00692353
0.241915 0.0177212 0.00703575
0.241021 0.0154924 0.00893906
0.247465 0.017002 0.00753683
0.241127 0.015861 0.00861836
0.241 0.0154187 0.00900321
0.247586 0.0174586 0.0071692
0.241552 0.0173262 0.00732637
0.241684 0.0174991 0.0071721
0.235173 0.0158696 0.00822512
0.240939 0.0151972 0.00919609
0.235838 0.0186851 0.0068544
0.241889 0.0176275 0.00705956
0.235932 0.0187169 0.00684841
0.242009 0.017752 0.00702614
0.240979 0.0153449 0.00906735
0.241509 0.0171796 0.00745563
0.241667 0.0174266 0.00723885
0.235408 0.0163462 0.00772048
0.247661 0.017808 0.00702957
0.241191 0.0160823 0.00842619
0.24755 0.0173062 0.00729146
0.236197 0.0187158 0.00684908
0.241796 0.0175999 0.00708353
0.241149 0.0159342 0.00855383
0.24165 0.0176357 0.00717547
0.241212 0.0161541 0.00835989
0.241644 0.0170098 0.00759953
0.247487 0.017078 0.0074755
0.241106 0.0157875 0.00868273
0.241823 0.017328 0.00731618
0.247641 0.0177101 0.00702838
0.241681 0.0179084 0.00703098
0.241842 0.0182423 0.00704248
0.247681 0.017906 0.00703079
0.24203 0.0178504 0.00702935
0.321436 0.0173475 0.00552525
0.241811 0.0176784 0.00702338
0.247508 0.0171541 0.00741416
0.241064 0.01564 0.00881092
0.241822 0.018144 0.00703897
0.241255 0.0163007 0.00823065
0.241235 0.0162273 0.0082956
0.235095 0.0156196 0.00852537
0.24763 0.0176132 0.00705049
0.2418 0.0178898 0.00711173
0.235036 0.0154363 0.0087553
0.241701 0.0180063 0.00703438
0.247529 0.0172301 0.00735282
0.241649 0.0173512 0.00730208
0.241502 0.0168377 0.00775415
0.241975 0.0180148 0.00703455
0.241989 0.0176545 0.00703711
0.247701 0.0180039 0.00703199
0.235356 0.0164887 0.0076373
0.235017 0.0153751 0.00883199
0.241762 0.0178494 0.00702881
0.241687 0.0171564 0.00747027
0.241755 0.0180138 0.00711788
0.24758 0.0173802 0.00723102
0.235076 0.0155606 0.00860391
0.24164 0.0177104 0.00702409
0.241741 0.018202 0.00704135
0.241802 0.0180461 0.00703554
0.236083 0.0185877 0.00687367
0.241746 0.017377 0.00727584
0.235818 0.0185888 0.00687302
0.235134 0.0157456 0.0083752
0.241955 0.0179169 0.00703135
0.235952 0.0188132 0.0068298
0.235201 0.0159322 0.0081523
0.235874 0.0184279 0.00690425
0.247603 0.0175364 0.00710874
0.236139 0.0184268 0.00690491
0.24205 0.0179484 0.00703255
0.241918 0.0181773 0.00703987
0.241425 0.0168864 0.00771418
0.241898 0.0180783 0.00703645
0.2417 0.0175731 0.00710617
0.236178 0.0186195 0.00686769
0.241782 0.0179473 0.00703204
0.241298 0.0164471 0.00810156
0.241749 0.0176549 0.00715227
0.241606 0.0174856 0.00729987
0.241318 0.0165205 0.00803677
0.235475 0.0166008 0.00757353
0.241777 0.0175244 0.00714629
0.23558 0.0170252 0.00732846
0.241877 0.0179804 0.00703325
0.235164 0.0158012 0.00829746
0.0643568 0.0187248 0.00531097
0.24257 0.0191927 0.00520306
0.235777 0.017946 0.00699737
0.23599 0.0190066 0.00679512
0.236081 0.0181375 0.00696082
0.236061 0.0180406 0.00697955
0.241765 0.0181466 0.00712095
0.241967 0.0175791 0.00709919
0.241341 0.0165938 0.00797245
0.241629 0.0172775 0.00736654
0.235836 0.0182351 0.00694151
0.235443 0.0168269 0.00744216
0.235799 0.0184924 0.00689163
0.241874 0.0175512 0.00712242
0.241677 0.017894 0.00712987
0.24178 0.0183981 0.00704833
0.235643 0.0177262 0.00705812
0.24184 0.0174021 0.00725104
0.241171 0.0160074 0.0084893
0.241085 0.0157137 0.00874701
0.241587 0.0171321 0.00749711
0.235604 0.017542 0.00712551
0.241608 0.0172041 0.00743109
0.241861 0.0183403 0.00704597
0.241523 0.0169111 0.00768948
0.236047 0.018845 0.0068238
0.241566 0.0170579 0.00756075
0.241607 0.0175485 0.00713268
0.2361 0.0182342 0.00694215
0.241719 0.0176579 0.00705678
0.241572 0.0173996 0.00726161
0.241549 0.0169836 0.00762544
0.240959 0.015271 0.00913173
0.235857 0.0187814 0.00683579
0.241276 0.016374 0.00816602
0.241808 0.0177326 0.00710739
0.241763 0.0174579 0.00721956
0.235855 0.0183316 0.00692287
0.235584 0.0174503 0.0071597
0.235056 0.0154974 0.00867864
0.235702 0.0180109 0.00698468
0.235913 0.0186206 0.00686702
0.235674 0.0170543 0.00731257
0.241446 0.0169598 0.00764957
0.0100679 0.0201683 0.00551526
0.235543 0.0172668 0.00722824
0.235896 0.018974 0.00679857
0.235663 0.01782 0.00702946
0.235888 0.017627 0.00707417
0.235816 0.0181387 0.00696014
0.0219312 0.0187687 0.00551176
0.236064 0.0184914 0.00689228
0.241994 0.0181128 0.00703775
0.235682 0.0179153 0.00700629
0.235971 0.0189096 0.00681118
0.23554 0.0168548 0.00742686
0.235872 0.0179772 0.00699148
0.241721 0.018104 0.00704196
0.235598 0.0171106 0.00727949
0.236027 0.0187487 0.00684242
0.235966 0.0180088 0.00698554
0.241667 0.017717 0.00712015
0.235852 0.017881 0.00701008
0.241935 0.0178189 0.00702881
0.235907 0.0177198 0.00704138
0.229559 0.0174146 0.00741926
0.235714 0.0172306 0.00722818
0.235638 0.0172943 0.00721108
0.235718 0.0176622 0.00707423
0.235988 0.018556 0.00687965
0.24159 0.0174735 0.00719659
0.235947 0.0179123 0.00700419
0.241628 0.0175579 0.00723455
0.235523 0.0171759 0.00726479
0.241488 0.0171063 0.00752025
0.241665 0.0170831 0.00753489
0.241743 0.0177512 0.00702975
0.229834 0.018658 0.00684271
0.241708 0.0172297 0.00740563
0.235832 0.0177848 0.00702867
0.241856 0.0174762 0.0071859
0.161461 0.0182058 0.00533758
0.236044 0.0183951 0.0069109
0.235431 0.0164317 0.00767112
0.229625 0.0176757 0.00728652
0.235877 0.0188777 0.00681718
0.23578 0.0183961 0.00691024
0.235421 0.0167423 0.00749093
0.235911 0.0181705 0.00695415
0.241361 0.0166671 0.00790752
0.235116 0.0156822 0.00845014
0.236006 0.0182024 0.00694813
0.235496 0.0166853 0.00752474
0.235618 0.0172026 0.00724584
0.235797 0.0180422 0.00697877
0.232615 0.017894 0.0071608
0.241531 0.0172529 0.00739102
0.24157 0.0174172 0.00736344
0.23593 0.018267 0.0069355
0.241661 0.0178084 0.00702732
0.241467 0.0170331 0.00758496
0.229813 0.0185656 0.00687485
0.235891 0.0180738 0.00697283
0.24176 0.0183 0.00704484
0.235253 0.0159751 0.0080787
0.241404 0.0168187 0.00778474
0.236025 0.0182988 0.00692951
0.295592 0.0174716 0.00711002
0.241857 0.0178821 0.00703004
0.235757 0.0178498 0.00701596
0.013233 0.017292 0.00800774
0.241728 0.0173031 0.00734087
0.235564 0.0173584 0.00719383
0.229757 0.0182893 0.00697713
0.229581 0.0175016 0.00737501
0.235969 0.0184597 0.00689827
0.235378 0.0165733 0.00758852
0.229538 0.0173276 0.00746351
0.23576 0.0182998 0.00692886
0.241622 0.0176217 0.00706632
0.235986 0.0181056 0.00696684
0.235334 0.0164042 0.0076861
0.235291 0.0162352 0.0077837
0.229364 0.0166315 0.00781749
0.229386 0.0167185 0.00777324
0.229451 0.0169795 0.0076405
0.235624 0.0176339 0.00709134
0.229408 0.0168055 0.007729
0.229516 0.0172406 0.00750776
0.236122 0.0187804 0.00683645
0.2354 0.0166578 0.00753971
0.229794 0.0184728 0.00690712
0.235693 0.0171392 0.0072635
0.241385 0.0167398 0.00784344
0.229665 0.0178503 0.00719791
0.229852 0.018756 0.00683406
0.229494 0.0171536 0.00755201
0.235722 0.0181071 0.00696611
0.235813 0.0176907 0.00705709
0.235774 0.0175065 0.0071255
0.235679 0.0174783 0.0071426
0.229685 0.0179377 0.00715358
0.235485 0.0169975 0.00734654
0.235271 0.0161648 0.007852
0.229473 0.0170665 0.00759625
0.235915 0.0190715 0.00680949
0.229603 0.0175885 0.00733079
0.235737 0.0177548 0.00704133
0.235453 0.0165163 0.00762232
0.235465 0.0169115 0.00739327
0.235754 0.0174145 0.00715971
0.241487 0.0171265 0.00761817
0.236008 0.0186523 0.00686104
0.229721 0.0181132 0.00706479
0.235268 0.01604 0.00800399
0.229703 0.0180255 0.00710918
0.235518 0.01677 0.00747584
0.235504 0.0170863 0.00730489
0.235699 0.0175702 0.0071084
0.236102 0.0186841 0.00685506
0.229739 0.0182009 0.00702044
0.229343 0.0165445 0.00786174
0.235561 0.0169402 0.00737757
0.235927 0.017816 0.00702279
0.23595 0.0183633 0.00691688
0.235793 0.0175985 0.00709131
0.235734 0.0173224 0.007194
0.235386 0.0162614 0.00776942
0.235894 0.0185242 0.00688564
0.235659 0.0173863 0.00717684
0.235741 0.0182034 0.00694747
0.236158 0.0185232 0.0068863
0.235252 0.0160987 0.00792456
0.229776 0.0183801 0.0069394
0.235313 0.0163197 0.00773491
0.241716 0.0178039 0.00711041
0.229429 0.0168925 0.00768475
0.229646 0.0177628 0.00724224
0.24151 0.0172011 0.00755326

VERTICES 271 542
1 0
1 1
1 2
1 3
1 4
1 5
1 6
1 7
1 8
1 9
1 10
1 11
1 12
1 13
1 14
1 15
1 16
1 17
1 18
1 19
1 20
1 21
1 22
1 23
1 24
1 25
1 26
1 27
1 28
1 29
1 30
1 31
1 32
1 33
1 34
1 35
1 36
1 37
1 38
1 39
1 40
1 41
1 42
1 43
1 44
1 45
1 46
1 47
1 48
1 49
1 50
1 51
1 52
1 53
1 54
1 55
1 56
1 57
1 58
1 59
1 60
1 61
1 62
1 63
1 64
1 65
1 66
1 67
1 68
1 69
1 70
1 71
1 72
1 73
1 74
1 75
1 76
1 77
1 78
1 79
1 80
1 81
1 82
1 83
1 84
1 85
1 86
1 87
1 88
1 89
1 90
1 91
1 92
1 93
1 94
1 95
1 96
1 97
1 98
1 99
1 100
1 101
1 102
1 103
1 104
1 105
1 106
1 107
1 108
1 109
1 110
1 111
1 112
1 113
1 114
1 115
1 116
1 117
1 118
1 119
1 120
1 121
1 122
1 123
1 124
1 125
1 126
1 127
1 128
1 129
1 130
1 131
1 132
1 133
1 134
1 135
1 136
1 137
1 138
1 139
1 140
1 141
1 142
1 143
1 144
1 145
1 146
1 147
1 148
1 149
1 150
1 151
1 152
1 153
1 154
1 155
1 156
1 157
1 158
1 159
1 160
1 161
1 162
1 163
1 164
1 165
1 166
1 167
1 168
1 169
1 170
1 171
1 172
1 173
1 174
1 175
1 176
1 177
1 178
1 179
1 180
1 181
1 182
1 183
1 184
1 185
1 186
1 187
1 188
1 189
1 190
1 191
1 192
1 193
1 194
1 195
1 196
1 197
1 198
1 199
1 200
1 201
1 202
1 203
1 204
1 205
1 206
1 207
1 208
1 209
1 210
1 211
1 212
1 213
1 214
1 215
1 216
1 217
1 218
1 219
1 220
1 221
1 222
1 223
1 224
1 225
1 226
1 227
1 228
1 229
1 230
1 231
1 232
1 233
1 234
1 235
1 236
1 237
1 238
1 239
1 240
1 241
1 242
1 243
1 244
1 245
1 246
1 247
1 248
1 249
1 250
1 251
1 252
1 253
1 254
1 255
1 256
1 257
1 258
1 259
1 260
1 261
1 262
1 263
1 264
1 265
1 266
1 267
1 268
1 269
1 270

POINT_DATA 271
SCALARS id int 1
LOOKUP_TABLE default
1
2
3
4
5
6
7
8
9
10
11
12
13
14
15
16
17
19
21
22
23
24
25
26
27
28
29
30
31
32
33
34
35
36
37
38
39
41
42
44
45
47
48
50
51
52
53
54
55
56
57
59
61
62
63
64
65
66
67
68
69
70
71
72
73
74
76
77
78
79
80
81
82
83
84
85
86
87
88
89
90
91
92
93
94
95
96
97
98
99
100
101
102
103
104
105
106
107
108
109
110
111
112
113
114
115
116
117
118
119
120
121
122
123
124
125
126
127
128
129
131
132
133
134
135
136
137
138
140
141
142
143
144
147
148
149
150
151
153
154
155
156
157
158
159
160
162
164
165
166
168
169
170
171
172
173
174
175
177
178
179
181
182
183
184
186
187
188
189
190
191
192
193
194
195
196
197
198
199
201
202
203
204
205
206
207
208
209
210
211
212
213
214
215
216
217
218
219
220
221
222
223
224
225
226
227
228
229
230
231
232
234
235
236
237
239
240
241
242
244
246
247
248
249
250
251
252
253
254
255
256
257
258
259
261
262
263
264
265
266
267
268
269
270
271
272
273
274
275
276
277
278
280
283
284
285
286
287
288
289
290
291
292
293
294
295
296
297
298
299
300

SCALARS type int 1
LOOKUP_TABLE default
1
1
1
1
1
1
1
1
1
1
1
1
1
1
1
1
1
1
1
1
1
1
1
1
1
1
1
1
1
1
1
1
1
1
1
1
1
1
1
1
1
1
1
1
1
1
1
1
1
1
1
1
1
1
1
1
1
1
1
1
1
1
1
1
1
1
1
1
1
1
1
1
1
1
1
1
1
1
1
1
1
1
1
1
1
1
1
1
1
1
1
1
1
1
1
1
1
1
1
1
1
1
1
1
1
1
1
1
1
1
1
1
1
1
1
1
1
1
1
1
1
1
1
1
1
1
1
1
1
1
1
1
1
1
1
1
1
1
1
1
1
1
1
1
1
1
1
1
1
1
1
1
1
1
1
1
1
1
1
1
1
1
1
1
1
1
1
1
1
1
1
1
1
1
1
1
1
1
1
1
1
1
1
1
1
1
1
1
1
1
1
1
1
1
1
1
1
1
1
1
1
1
1
1
1
1
1
1
1
1
1
1
1
1
1
1
1
1
1
1
1
1
1
1
1
1
1
1
1
1
1
1
1
1
1
1
1
1
1
1
1
1
1
1
1
1
1
1
1
1
1
1
1
1
1
1
1
1
1
1
1
1
1
1
1
1
1
1
1
1
1

SCALARS radius float 1
LOOKUP_TABLE default
5e-05
5e-05
5e-05
5e-05
5e-05
5e-05
5e-05
5e-05
5e-05
5e-05
5e-05
5e-05
5e-05
5e-05
5e-05
5e-05
5e-05
5e-05
5e-05
5e-05
5e-05
5e-05
5e-05
5e-05
5e-05
5e-05
5e-05
5e-05
5e-05
5e-05
5e-05
5e-05
5e-05
5e-05
5e-05
5e-05
5e-05
5e-05
5e-05
5e-05
5e-05
5e-05
5e-05
5e-05
5e-05
5e-05
5e-05
5e-05
5e-05
5e-05
5e-05
5e-05
5e-05
5e-05
5e-05
5e-05
5e-05
5e-05
5e-05
5e-05
5e-05
5e-05
5e-05
5e-05
5e-05
5e-05
5e-05
5e-05
5e-05
5e-05
5e-05
5e-05
5e-05
5e-05
5e-05
5e-05
5e-05
5e-05
5e-05
5e-05
5e-05
5e-05
5e-05
5e-05
5e-05
5e-05
5e-05
5e-05
5e-05
5e-05
5e-05
5e-05
5e-05
5e-05
5e-05
5e-05
5e-05
5e-05
5e-05
5e-05
5e-05
5e-05
5e-05
5e-05
5e-05
5e-05
5e-05
5e-05
5e-05
5e-05
5e-05
5e-05
5e-05
5e-05
5e-05
5e-05
5e-05
5e-05
5e-05
5e-05
5e-05
5e-05
5e-05
5e-05
5e-05
5e-05
5e-05
5e-05
5e-05
5e-05
5e-05
5e-05
5e-05
5e-05
5e-05
5e-05
5e-05
5e-05
5e-05
5e-05
5e-05
5e-05
5e-05
5e-05
5e-05
5e-05
5e-05
5e-05
5e-05
5e-05
5e-05
5e-05
5e-05
5e-05
5e-05
5e-05
5e-05
5e-05
5e-05
5e-05
5e-05
5e-05
5e-05
5e-05
5e-05
5e-05
5e-05
5e-05
5e-05
5e-05
5e-05
5e-05
5e-05
5e-05
5e-05
5e-05
5e-05
5e-05
5e-05
5e-05
5e-05
5e-05
5e-05
5e-05
5e-05
5e-05
5e-05
5e-05
5e-05
5e-05
5e-05
5e-05
5e-05
5e-05
5e-05
5e-05
5e-05
5e-05
5e-05
5e-05
5e-05
5e-05
5e-05
5e-05
5e-05
5e-05
5e-05
5e-05
5e-05
5e-05
5e-05
5e-05
5e-05
5e-05
5e-05
5e-05
5e-05
5e-05
5e-05
5e-05
5e-05
5e-05
5e-05
5e-05
5e-05
5e-05
5e-05
5e-05
5e-05
5e-05
5e-05
5e-05
5e-05
5e-05
5e-05
5e-05
5e-05
5e-05
5e-05
5e-05
5e-05
5e-05
5e-05
5e-05
5e-05
5e-05
5e-05
5e-05
5e-05
5e-05
5e-05
5e-05
5e-05
5e-05
5e-05
5e-05
5e-05
5e-05
5e-05
5e-05
5e-05
5e-05
5e-05
5e-05
5e-05
5e-05
5e-05
5e-05
5e-05
5e-05
5e-05

SCALARS mass float 1
LOOKUP_TABLE default
1.46608e-10
1.46608e-10
1.46608e-10
1.46608e-10
1.46608e-10
1.46608e-10
1.46608e-10
1.46608e-10
1.46608e-10
1.46608e-10
1.46608e-10
1.46608e-10
1.46608e-10
1.46608e-10
1.46608e-10
1.46608e-10
1.46608e-10
1.46608e-10
1.46608e-10
1.46608e-10
1.46608e-10
1.46608e-10
1.46608e-10
1.46608e-10
1.46608e-10
1.46608e-10
1.46608e-10
1.46608e-10
1.46608e-10
1.46608e-10
1.46608e-10
1.46608e-10
1.46608e-10
1.46608e-10
1.46608e-10
1.46608e-10
1.46608e-10
1.46608e-10
1.46608e-10
1.46608e-10
1.46608e-10
1.46608e-10
1.46608e-10
1.46608e-10
1.46608e-10
1.46608e-10
1.46608e-10
1.46608e-10
1.46608e-10
1.46608e-10
1.46608e-10
1.46608e-10
1.46608e-10
1.46608e-10
1.46608e-10
1.46608e-10
1.46608e-10
1.46608e-10
1.46608e-10
1.46608e-10
1.46608e-10
1.46608e-10
1.46608e-10
1.46608e-10
1.46608e-10
1.46608e-10
1.46608e-10
1.46608e-10
1.46608e-10
1.46608e-10
1.46608e-10
1.46608e-10
1.46608e-10
1.46608e-10
1.46608e-10
1.46608e-10
1.46608e-10
1.46608e-10
1.46608e-10
1.46608e-10
1.46608e-10
1.46608e-10
1.46608e-10
1.46608e-10
1.46608e-10
1.46608e-10
1.46608e-10
1.46608e-10
1.46608e-10
1.46608e-10
1.46608e-10
1.46608e-10
1.46608e-10
1.46608e-10
1.46608e-10
1.46608e-10
1.46608e-10
1.46608e-10
1.46608e-10
1.46608e-10
1.46608e-10
1.46608e-10
1.46608e-10
1.46608e-10
1.46608e-10
1.46608e-10
1.46608e-10
1.46608e-10
1.46608e-10
1.46608e-10
1.46608e-10
1.46608e-10
1.46608e-10
1.46608e-10
1.46608e-10
1.46608e-10
1.46608e-10
1.46608e-10
1.46608e-10
1.46608e-10
1.46608e-10
1.46608e-10
1.46608e-10
1.46608e-10
1.46608e-10
1.46608e-10
1.46608e-10
1.46608e-10
1.46608e-10
1.46608e-10
1.46608e-10
1.46608e-10
1.46608e-10
1.46608e-10
1.46608e-10
1.46608e-10
1.46608e-10
1.46608e-10
1.46608e-10
1.46608e-10
1.46608e-10
1.46608e-10
1.46608e-10
1.46608e-10
1.46608e-10
1.46608e-10
1.46608e-10
1.46608e-10
1.46608e-10
1.46608e-10
1.46608e-10
1.46608e-10
1.46608e-10
1.46608e-10
1.46608e-10
1.46608e-10
1.46608e-10
1.46608e-10
1.46608e-10
1.46608e-10
1.46608e-10
1.46608e-10
1.46608e-10
1.46608e-10
1.46608e-10
1.46608e-10
1.46608e-10
1.46608e-10
1.46608e-10
1.46608e-10
1.46608e-10
1.46608e-10
1.46608e-10
1.46608e-10
1.46608e-10
1.46608e-10
1.46608e-10
1.46608e-10
1.46608e-10
1.46608e-10
1.46608e-10
1.46608e-10
1.46608e-10
1.46608e-10
1.46608e-10
1.46608e-10
1.46608e-10
1.46608e-10
1.46608e-10
1.46608e-10
1.46608e-10
1.46608e-10
1.46608e-10
1.46608e-10
1.46608e-10
1.46608e-10
1.46608e-10
1.46608e-10
1.46608e-10
1.46608e-10
1.46608e-10
1.46608e-10
1.46608e-10
1.46608e-10
1.46608e-10
1.46608e-10
1.46608e-10
1.46608e-10
1.46608e-10
1.46608e-10
1.46608e-10
1.46608e-10
1.46608e-10
1.46608e-10
1.46608e-10
1.46608e-10
1.46608e-10
1.46608e-10
1.46608e-10
1.46608e-10
1.46608e-10
1.46608e-10
1.46608e-10
1.46608e-10
1.46608e-10
1.46608e-10
1.46608e-10
1.46608e-10
1.46608e-10
1.46608e-10
1.46608e-10
1.46608e-10
1.46608e-10
1.46608e-10
1.46608e-10
1.46608e-10
1.46608e-10
1.46608e-10
1.46608e-10
1.46608e-10
1.46608e-10
1.46608e-10
1.46608e-10
1.46608e-10
1.46608e-10
1.46608e-10
1.46608e-10
1.46608e-10
1.46608e-10
1.46608e-10
1.46608e-10
1.46608e-10
1.46608e-10
1.46608e-10
1.46608e-10
1.46608e-10
1.46608e-10
1.46608e-10
1.46608e-10
1.46608e-10
1.46608e-10
1.46608e-10
1.46608e-10
1.46608e-10
1.46608e-10
1.46608e-10
1.46608e-10
1.46608e-10
1.46608e-10
1.46608e-10
1.46608e-10

VECTORS velocity float
0.00542336 0.000480491 0.000588368
0.00562145 -0.000147891 1.42397e-05
0.00548012 -0.00048302 0.000102803
0.00563165 -0.000123191 5.10629e-05
0.00541722 0.000495585 0.000581808
0.0061804 0.000231182 -0.000722736
0.00552507 1.4139e-05 4.22167e-05
0.0053759 0.00050023 0.00056836
0.0058667 0.00029979 -0.000747144
0.00604107 -0.000260116 3.72658e-05
0.00561742 -0.000191441 -2.2642e-05
0.0055072 -0.000278753 0.000233983
0.00569501 0.000529999 0.000603009
0.00556615 -0.000399429 8.626e-05
0.00563288 -0.000115003 7.83032e-05
0.00561583 -0.00043804 9.44259e-05
0.00562632 -0.000102213 7.1533e-06
0.0054336 0.000485824 0.000592889
0.00598718 -0.00025376 3.53941e-05
0.00566641 -0.000213844 -2.96896e-05
0.00616996 -0.000385792 0.000285759
0.00578566 0.000820689 -0.000256439
0.0055636 -0.000273118 -0.000255474
0.00572623 0.000326366 -0.000757544
0.00563555 -0.000483674 0.000103447
0.00562668 -0.000192065 -1.6504e-05
0.00551437 -0.000491302 -0.000534843
0.00577621 -0.000197024 -5.82472e-05
0.00562115 -0.000109055 -6.6393e-05
0.0060196 -0.000205294 -1.08152e-05
0.00620617 0.000224306 -0.000720028
0.00549794 0.000319784 0.000404714
0.00568027 -0.000191416 -1.29702e-05
0.00578946 0.000822744 -0.000257971
0.00559929 -0.000171819 1.53026e-05
0.00540834 -0.000135517 -2.40482e-05
0.00578013 0.000819036 -0.000256041
0.00559206 -0.000105979 7.03932e-06
4.56716e-16 2.25535e-15 8.4636e-14
0.00560506 -0.000179443 -1.42923e-06
0.00622402 0.000219888 -0.000717593
0.00545321 0.000478345 0.000602478
0.0054498 -0.000121687 -1.91508e-05
0.0056652 -0.000128934 -6.23381e-05
0.00565315 -0.000135126 -8.50154e-05
0.00547645 -0.000279741 0.000236512
0.00555399 0.000879412 -0.000126396
0.00559096 -0.000135661 -5.73009e-07
0.00545313 -0.000275622 0.000232375
0.00558688 -0.000171555 2.97077e-06
0.00626023 0.000220468 -0.000719379
0.00584641 -0.000242544 -1.88221e-05
0.0058918 -0.000235587 1.95291e-05
0.0055096 -0.000108982 7.28174e-06
0.0056398 -0.000108972 7.31293e-05
0.00577648 0.000818871 -0.000255865
0.00617736 -0.000384505 0.000285204
0.00540407 -0.000273896 0.000231534
0.00560723 -0.000165528 6.78516e-06
0.00603332 -0.000262244 3.84854e-05
0.00559222 -0.000151474 2.29211e-06
0.00578342 0.000307498 -0.000749307
0.0054799 -0.000282632 0.00023305
0.00563381 -9.99838e-05 7.95906e-06
0.0054326 -0.000137283 -2.24303e-05
0.00557307 -0.000164201 -8.49195e-06
0.00562488 -0.000465702 9.99443e-05
0.00568731 -0.000181062 -1.66864e-05
0.00555089 -0.000406651 8.77097e-05
0.00549971 -0.000288042 0.00022842
0.00558925 -0.000126667 4.06638e-06
0.00564886 -0.000415892 9.01088e-05
0.00554397 -0.000311657 0.000220155
0.00552081 -0.000412764 8.92174e-05
0.00591742 0.000308941 -0.000715433
0.00551304 -0.000490496 0.000104454
0.00558488 -0.00010989 6.85959e-06
0.00542207 -0.000123943 -2.74432e-05
0.00591238 -0.000216535 2.73616e-06
0.00544534 -0.000127418 5.79325e-06
0.00561639 -0.000187201 -1.33651e-05
0.00560693 -0.000499934 0.000106326
0.00559774 -0.000155731 3.76067e-06
0.00574659 -0.000163591 -3.26425e-05
0.0056227 -0.000210113 -2.20824e-05
0.00598773 -0.000260916 -4.55072e-05
0.00575693 -0.000172397 -3.01684e-05
0.00618539 -0.000397127 0.00029242
0.00562648 -0.000183752 -1.08434e-05
0.00566608 -0.000326118 0.0002472
0.00557879 -0.000148011 4.07948e-06
0.00549959 -0.000278062 0.000234727
4.21487e-15 1.05261e-14 8.29592e-14
2.29399e-22 -1.27651e-22 1.23839e-22
0.00567871 -0.000388334 8.42144e-05
0.00569994 -0.000411812 -0.000117607
0.00548613 -0.000333951 7.3625e-05
0.00556492 -0.000107533 3.06413e-05
0.00545552 -9.8945e-05 -1.25048e-05
0.00563657 -0.000108039 7.20048e-05
0.00577231 -0.000179024 -2.52484e-05
0.00601514 -0.000248816 2.67447e-05
0.0053821 -0.000328343 7.24728e-05
0.00617811 -0.000384217 0.000299127
0.0055384 -0.000402163 8.67655e-05
0.00563259 -0.000113671 7.48379e-05
0.005618 -0.00014225 1.89273e-05
0.00540316 -0.000126623 -2.2263e-05
0.00564578 -0.000477222 -0.000161488
0.00566573 -0.000191159 -1.50017e-05
0.00548621 -0.000611226 -0.000678075
0.00547361 0.000438763 0.000545107
0.00600462 -0.000278212 5.146e-05
0.00571901 -0.000539299 -0.000235763
0.00601898 -0.000278346 5.27837e-05
0.00540413 -0.000130124 -2.28234e-05
0.00590544 -0.00024803 3.05365e-05
0.0056555 -0.000433761 9.37421e-05
0.00595352 -0.000267826 4.3623e-05
0.00562282 -0.000155529 -2.14731e-05
0.0054892 -0.000447539 9.57331e-05
0.00559907 -0.000185857 -9.82857e-06
0.00584436 -0.000217061 7.6599e-06
0.00591577 -0.000259439 3.92562e-05
0.00566414 0.000486512 0.000636283
0.0056378 -0.000401038 8.77306e-05
0.0057032 -0.000145799 -4.93522e-05
0.00560806 -0.000178867 -5.62224e-06
0.00565662 -0.000172516 -4.17928e-06
0.00537133 -0.000394073 8.60197e-05
0.00572414 -0.000543662 -0.000235721
0.00546361 -0.000275608 0.000232467
0.00562834 -0.000385735 8.06391e-05
0.00555184 -0.00041358 8.93395e-05
0.00567782 -0.000344413 0.000257032
0.00591753 -0.000222098 8.06061e-06
8.3835e-15 1.24902e-15 -8.48744e-14
0.00566184 -0.000522023 -0.00020243
0.00568863 -0.000371449 8.73365e-05
0.00563968 -0.00044056 -8.95513e-05
0.00565669 -0.000519095 -0.000236464
0.00544896 -0.000261392 5.99872e-05
-3.83077e-14 8.1679e-14 2.95888e-13
0.00552091 -0.000447635 9.61217e-05
0.0054496 -9.5645e-05 7.95993e-06
0.00562322 -0.000405136 -7.22009e-06
0.00567835 -0.000393527 8.7385e-05
0.00620118 -9.83159e-05 0.000119261
0.00565649 -0.000318208 7.30596e-05
0.00557273 -0.000169325 -3.21435e-05
0.00562381 -0.000518527 -0.000233275
0.00564264 -0.000439231 9.47619e-05
0.00560054 -0.00020211 4.87115e-05
0.00566664 -0.000133406 -7.61159e-06
0.00571146 -0.000391596 8.65989e-05
0.00560747 -0.000125873 1.20397e-05
0.00563291 -0.000513838 0.000111433
0.00600903 0.000255538 -0.000503893
0.00571393 -0.000530311 -0.000238557
0.00569545 -0.000545007 -0.000228833
0.00563398 -0.000507891 -0.000233006
0.00553227 -0.000435021 9.36779e-05
0.00566923 -0.000182405 -2.05945e-05
0.00568699 -0.000314092 7.063e-05
0.00593253 -0.000242209 -5.09271e-05
0.00564578 -0.000505727 -0.000171835
0.00596313 -0.000246873 2.87296e-05
0.00602175 -0.000269455 4.45971e-05
0.00560469 -0.00017608 4.8582e-06
0.00576085 0.000486051 -6.97073e-05
0.00600191 -0.000243897 2.46348e-05
0.00566624 -0.000449865 9.81412e-05
0.00563929 -0.00015321 2.3843e-05
1.58293e-15 -1.10067e-14 8.66682e-14
0.00549979 -0.000458196 9.82371e-05
0.00617171 -0.000388616 0.000287439
0.00598655 0.000270953 -0.000510016
0.00565129 -0.000390867 8.54559e-05
0.00538298 -0.000368327 8.07701e-05
0.00621298 -0.000395421 0.000288455
0.00544234 -0.00024933 5.70735e-05
0.00581029 -0.000185516 -2.08746e-05
0.0054908 -0.000287251 0.000229655
0.00546498 -0.000334063 7.44808e-05
0.00619845 -0.000403493 0.000296294
0.00568926 -0.000407488 0.000103031
0.00556682 -0.000314545 6.88862e-05
0.00545691 -0.000641491 0.000322585
0.00602449 -0.00026054 4.07813e-05
0.0060465 -0.000237377 1.75166e-05
0.00541464 -0.000365518 7.92017e-05
0.00561773 -9.87002e-05 -1.40978e-05
0.00595024 -0.000236308 1.97033e-05
0.0057347 0.000488197 -6.36276e-05
0.00544011 -0.0002547 5.84903e-05
0.00541219 -0.000129252 -2.27973e-05
0.00567846 -0.000333559 0.000301711
0.00592645 -0.000211019 1.60336e-06
0.00547531 -0.000464806 9.99354e-05
0.0055163 -0.000891706 0.000399754
0.00560913 -0.000142612 9.77117e-06
0.00567115 -0.000392441 9.92768e-05
-0.00773916 0.0216695 -0.0151857
0.00585548 -0.000215126 -2.91251e-06
0.00569687 -0.000538928 -0.000230603
0.00561812 0.00040719 -0.000337227
0.0060021 0.000263305 -0.000507328
0.00551866 -0.000436224 9.39359e-05
0.0061831 -0.000386143 0.000286227
0.00601572 0.000245827 -0.000499582
0.00534009 -0.000345408 7.54508e-05
0.00565125 -0.000119642 -1.53402e-06
0.0054255 -0.000273833 6.27051e-05
0.00617583 -0.000383688 0.000284749
0.00617611 -0.000384128 0.00028509
0.00607247 0.000197605 -0.000479376
0.00606381 0.000198828 -0.000479406
0.00604131 0.000212015 -0.000484497
0.00567078 -0.00051623 -0.000227199
0.00605584 0.00020153 -0.000480226
0.00602119 0.000236529 -0.000495292
0.00565203 -0.00045676 9.80326e-05
0.00619364 -0.000389313 0.00028728
0.00571006 0.000492269 -7.1706e-05
0.00570719 -0.000345031 0.000260269
0.00588496 -0.00020372 -8.87202e-06
0.00578621 0.000305405 -0.000514341
0.00581461 0.000485971 -2.08515e-05
0.00602835 0.000227743 -0.000491454
0.00549598 -0.000353049 8.31262e-05
0.00561775 -0.000545884 -0.000226221
0.00569828 -0.00049236 -0.000249094
0.005772 -0.000498484 -0.00025291
0.00573292 0.000307111 -0.000512279
0.0057045 -0.000382401 0.000105825
0.00617791 -0.000381501 0.000290949
0.00603441 0.000219203 -0.000487585
0.00565809 -0.000330635 -0.000109964
0.00599345 0.000269746 -0.000510004
0.00563448 -0.000493448 -0.000194788
0.00617923 -0.00039272 0.000289791
0.00594362 -0.000350443 0.000262395
0.00584488 -0.000433348 -0.000280472
0.00594429 -0.000228892 2.89675e-05
0.00560595 -0.000470558 0.000100932
0.00548741 0.000345599 -0.00051559
0.00584788 -0.000353495 0.000314225
0.00563485 0.000319402 -0.000511042
0.00624748 -0.000325021 0.000251177
0.00565359 -0.000465159 -8.48828e-05
0.00566226 -0.000526031 -0.000235931
0.00563139 -0.000461184 9.89948e-05
0.00552128 0.000291917 -0.000610457
0.00608054 0.000195958 -0.000479043
0.00567646 -0.000332453 0.000247208
0.00566911 -0.000455878 9.87706e-05
0.0054921 -0.000442686 9.49066e-05
0.00564766 -0.000478203 -0.000254071
0.00570817 -0.000567432 -0.000222898
0.00618459 -0.000374245 0.000279169
0.00553669 -0.000419459 9.06607e-05
0.00571624 -0.000555511 -0.000228612
0.00537303 -0.00033488 7.34136e-05
0.00555942 -0.000495959 0.000105756
0.00600831 -0.000333951 0.000293603
0.0056859 0.000504495 -7.24765e-05
0.00617598 -0.000383275 0.00028423
0.00562794 -0.000123661 -8.85983e-06
0.00604872 0.000206061 -0.000482031
0.00580728 0.000307145 -0.000516584
0.00593713 -0.000236514 3.54185e-05

VECTORS force float
1.74994e-11 -3.05556e-11 -1.42524e-11
-7.22006e-11 -2.79901e-11 -6.88379e-11
6.79923e-11 8.56491e-11 -1.75888e-11
-2.94132e-11 1.56438e-11 -4.23363e-11
2.21952e-10 6.49252e-11 -2.8133e-11
3.57564e-11 1.34574e-11 -8.50783e-12
-6.1936e-11 -5.39395e-11 -3.32222e-11
2.68706e-10 -1.25466e-10 1.77766e-10
6.60245e-12 -2.25068e-11 6.08688e-11
-8.1408e-13 -6.31017e-11 -3.54172e-11
-1.58942e-10 5.08842e-11 -1.66193e-10
-2.63545e-11 3.95173e-11 -4.5775e-11
1.36219e-10 2.92044e-10 -2.37841e-10
1.83732e-10 -3.37913e-11 1.38193e-11
-7.10491e-11 -1.04427e-11 -2.25453e-11
-8.86797e-11 -7.89107e-11 9.04049e-12
7.57909e-11 1.25262e-11 -1.51556e-11
1.49525e-10 -2.21848e-11 8.73578e-11
5.85248e-11 -1.42494e-11 4.01876e-11
6.37694e-11 6.78193e-11 -2.21981e-10
-1.44273e-11 -2.82632e-11 1.57513e-11
1.14007e-11 8.36713e-12 -1.1178e-11
-2.46213e-10 3.84569e-11 3.09843e-11
3.68278e-11 1.03748e-11 -1.49536e-11
-1.26385e-10 6.71552e-11 -1.40647e-11
-1.09896e-10 6.4278e-11 3.9979e-11
1.25803e-10 -1.40176e-10 -2.38144e-10
-8.41593e-11 -1.04702e-11 1.21922e-10
4.55997e-12 5.17172e-11 1.48713e-10
-1.41431e-11 5.45257e-11 -3.92978e-11
-1.33981e-12 -2.76124e-11 1.30963e-11
-1.60845e-10 -2.13771e-10 8.79324e-11
5.58407e-11 -7.11188e-13 -4.24812e-11
-3.9927e-11 3.09506e-12 -2.92368e-11
1.41854e-11 -2.54634e-11 -9.07426e-12
-1.78525e-11 -4.91524e-11 -2.14817e-11
2.51792e-11 6.55927e-12 -9.79843e-12
1.22472e-10 5.33326e-11 2.62755e-11
1.00296e-23 -5.69333e-24 0.0
-2.70641e-10 -5.69296e-11 -7.05699e-11
8.16024e-11 4.64579e-11 -2.66492e-11
4.34516e-12 1.15296e-10 3.5893e-10
-1.15944e-10 1.29791e-11 7.05597e-12
-4.4409e-11 9.61071e-11 -3.02553e-10
-3.12691e-11 -1.15854e-10 -2.59409e-10
1.04082e-12 -2.71779e-11 4.66053e-11
2.7381e-11 1.76242e-11 -1.60931e-11
1.86427e-10 -5.10571e-12 3.15689e-11
-1.38492e-10 -3.7497e-12 2.71711e-11
2.68821e-11 8.78819e-13 7.76012e-11
-3.95242e-10 1.61415e-10 -5.90319e-11
2.66864e-10 1.11642e-10 -2.10813e-10
-5.80048e-11 1.46944e-10 -1.22672e-10
-3.3329e-11 1.88771e-11 -6.78892e-12
-4.41627e-11 2.67e-11 1.82177e-12
5.44529e-12 -8.92825e-12 -1.29731e-11
9.15975e-12 -2.54601e-11 1.68432e-11
3.20361e-11 -1.35833e-11 1.39491e-11
-4.06022e-11 -7.07185e-11 4.29881e-11
5.54563e-11 -7.94121e-11 6.27998e-11
2.41819e-11 3.57662e-11 1.26875e-10
-8.64549e-11 -5.43724e-11 4.7532e-11
2.85343e-11 -7.62384e-12 -1.0275e-11
-2.34622e-11 -6.18783e-11 2.48727e-11
-1.23202e-10 2.46812e-11 -1.37505e-12
-2.29777e-11 1.31389e-13 6.09785e-11
-1.74549e-10 -1.28259e-10 2.25164e-11
4.96699e-11 1.08587e-10 1.75772e-11
-5.4009e-11 -1.1567e-10 2.03608e-11
4.89404e-11 -4.31928e-11 -3.12934e-12
-3.61861e-11 3.83844e-11 -4.38597e-11
-3.31638e-11 1.31242e-10 -3.14227e-11
3.32744e-11 4.53568e-11 -2.9734e-11
-7.19415e-11 -1.78413e-10 3.41712e-11
-1.48364e-11 5.27895e-11 6.8692e-11
-1.20478e-10 9.17955e-11 -2.24952e-11
-4.4573e-11 1.37954e-11 -1.38173e-11
4.54566e-11 9.76594e-12 -1.26569e-10
-7.95538e-11 7.01778e-11 -5.51223e-11
-9.52027e-11 3.71728e-11 -7.97372e-12
-1.14797e-10 8.90203e-11 1.76111e-10
-9.33045e-11 6.31182e-12 -1.02675e-12
4.44882e-11 -8.63056e-12 1.1659e-10
5.94809e-11 1.86267e-10 -1.20888e-10
2.5332e-10 -2.32555e-10 -2.22642e-10
6.03036e-11 -1.54144e-10 -8.87917e-11
-7.42209e-12 6.73444e-11 -3.83715e-11
1.31997e-11 -1.63893e-11 9.10792e-12
-7.21746e-11 -8.305e-12 -3.73716e-11
3.76963e-11 -6.53658e-11 3.69485e-11
-5.18246e-11 -1.13476e-11 2.26342e-11
-7.0959e-11 3.42717e-11 -4.85819e-11
-3.02333e-21 6.36154e-22 7.34123e-23
0.0 0.0 0.0
8.78489e-11 2.03767e-10 -1.53195e-10
1.75565e-10 9.2193e-11 -5.1467e-11
3.94253e-10 8.35134e-10 -1.59864e-10
3.56042e-10 -6.16764e-10 1.06396e-10
-7.19282e-11 1.08024e-10 4.54183e-11
-1.19364e-10 6.18906e-11 -4.53884e-11
2.0054e-11 -1.44981e-11 5.30512e-11
9.91997e-11 2.3045e-10 1.17928e-10
-1.11932e-10 3.63602e-10 -5.29223e-11
-1.71221e-11 -5.32194e-11 4.7821e-12
-1.73524e-12 -1.4578e-11 1.22687e-12
-1.018e-10 -8.39959e-12 -1.48183e-11
-3.69983e-11 -3.97465e-12 -6.59151e-11