# vtk DataFile Version 3.0
LIGGGHTS particles timestep 18600000
ASCII
DATASET POLYDATA
POINTS 287 float
0.121283 0.0163097 0.00783903
0.121743 0.0175538 0.00718866
0.114993 0.0157511 0.00857637
0.121591 0.017682 0.0071675
0.121166 0.0162284 0.0079395
0.127266 0.0165846 0.00760575
0.121341 0.0168859 0.00736791
0.121058 0.01591 0.00830973
0.12752 0.0177281 0.00708167
0.121282 0.0166279 0.00750867
0.121812 0.0177373 0.00714414
0.11521 0.0164757 0.00792277
0.121144 0.0161647 0.00801354
0.114907 0.0154629 0.00883633
0.121476 0.0171038 0.00730193
0.114885 0.0153904 0.0089017
0.121263 0.0165523 0.00757149
0.127403 0.017165 0.00723922
0.121123 0.016101 0.00808758
0.121262 0.0162458 0.00791321
0.121381 0.0170739 0.00731301
0.115414 0.0168684 0.0075797
0.127462 0.0174409 0.00714573
0.121321 0.0167972 0.00740973
0.127346 0.0169151 0.00739508
0.115297 0.0167656 0.00766127
0.121576 0.0175814 0.0071896
0.121101 0.0160374 0.00816163
0.121631 0.0174207 0.00722355
0.121361 0.0169793 0.00733843
0.121456 0.0170085 0.00732436
0.127286 0.0166657 0.00755068
0.121245 0.0164854 0.00764353
0.121435 0.0169128 0.00734689
0.127558 0.0179216 0.00707515
0.121396 0.0167414 0.00744484
0.121571 0.0171341 0.00729098
0.127481 0.0175365 0.00712359
0.121208 0.0163559 0.00779125
0.121401 0.0171692 0.00729035
0.121591 0.0172295 0.00726855
0.127306 0.0167488 0.00749883
0.127384 0.0170817 0.0072912
0.121227 0.01642 0.00771691
0.121441 0.01736 0.00724549
0.127365 0.0169984 0.00734312
0.121499 0.0176445 0.00717864
0.121482 0.0175528 0.00721478
0.115189 0.0164033 0.00798814
0.127422 0.0172499 0.00718999
0.121241 0.0161821 0.00798731
0.11495 0.0156079 0.00870557
0.121416 0.016826 0.00739537
0.127326 0.0168319 0.00744698
0.121492 0.016771 0.0074301
0.12151 0.0168558 0.00738036
0.121187 0.0162921 0.00786544
0.12161 0.0173251 0.00724607
0.121535 0.0173904 0.00723454
0.127442 0.0173454 0.00716786
0.115328 0.0165743 0.00784121
0.115262 0.0163568 0.00803729
0.121761 0.017654 0.00716518
0.121668 0.0176193 0.00717704
0.121339 0.0165034 0.00761438
0.127501 0.017632 0.00710145
0.114929 0.0155354 0.00877095
0.121651 0.0175165 0.00720104
0.121302 0.0167126 0.00745931
0.121496 0.0171993 0.00727947
0.115525 0.0173372 0.00722441
0.121605 0.0181602 0.00705741
0.115015 0.0158236 0.00851099
0.115232 0.0165482 0.0078574
0.121536 0.0178359 0.00721671
0.115167 0.0163308 0.00805352
0.115318 0.0168424 0.00760079
0.115359 0.0163834 0.00802063
0.12754 0.0178242 0.00706217
0.115132 0.015922 0.00842952
0.121556 0.0174859 0.00721203
0.121473 0.0166862 0.00747955
0.121546 0.0178739 0.00712472
0.121609 0.0179284 0.0071827
0.121726 0.0174513 0.00721256
0.115254 0.0166207 0.00779206
0.121746 0.0178946 0.00711141
0.121664 0.0179508 0.00710224
0.121807 0.0181831 0.00704355
0.121754 0.0179625 0.00718439
0.121765 0.0179901 0.00708897
0.115124 0.0161891 0.00818785
0.121566 0.0179693 0.00710228
0.115306 0.0165018 0.00790653
0.121685 0.0172597 0.00725764
0.115241 0.0162846 0.00810295
0.0643568 0.0187248 0.00531097
0.24257 0.0191927 0.00520306
0.115601 0.0172807 0.00725639
0.11508 0.016041 0.00831486
0.115677 0.0172245 0.00728816
0.115037 0.0158961 0.00844562
0.121377 0.0166566 0.00749439
0.12146 0.0174555 0.00722305
0.121686 0.0185362 0.00696886
0.121744 0.0183325 0.00701246
0.115145 0.0162583 0.00811889
0.115883 0.0180415 0.00715685
0.115545 0.0170405 0.00742712
0.121516 0.0172947 0.00725702
0.121358 0.0165719 0.0075439
0.121219 0.0161184 0.00806135
0.114972 0.0156897 0.00865245
0.121531 0.0169437 0.00733709
0.12108 0.0159737 0.00823568
0.121037 0.0158463 0.00838378
0.121667 0.0184484 0.0070129
0.115176 0.0160669 0.00829884
0.121644 0.0178551 0.00712472
0.121197 0.0160546 0.00813567
0.121421 0.0172646 0.00726793
0.115102 0.0161135 0.00824949
0.121516 0.0177382 0.00720866
0.121763 0.0180605 0.00716
0.115432 0.0169393 0.00751154
0.115284 0.0164293 0.00797193
0.121579 0.0177816 0.00714414
0.121397 0.0163929 0.00773654
0.121551 0.0170388 0.00731344
0.121176 0.0159909 0.00820972
0.11511 0.0158495 0.00849489
0.121625 0.0182556 0.00703497
0.121321 0.0164388 0.0076892
0.121762 0.0184281 0.00699002
0.115154 0.0159945 0.00836416
0.115564 0.0171197 0.00736898
0.115058 0.0159686 0.00838024
0.115528 0.0169676 0.00749321
0.11538 0.0164562 0.00795505
0.115089 0.015777 0.00856033
0.115374 0.0170664 0.00740962
0.121723 0.0182372 0.00703489
0.115424 0.0166011 0.00782429
0.115792 0.0173259 0.00721558
0.115219 0.0162118 0.00816814
0.115488 0.0171732 0.00733281
0.115543 0.0174193 0.00717034
0.115469 0.0170935 0.00739033
0.0219312 0.0187687 0.00551176
0.115654 0.0176798 0.00717546
0.121684 0.0177164 0.0071544
0.11543 0.0173118 0.00724658
0.115393 0.0171479 0.0073549
0.115715 0.0178301 0.00711251
0.115844 0.0175888 0.00711046
0.121359 0.0162647 0.00788529
0.115403 0.0165286 0.00788971
0.115696 0.0173065 0.00723397
0.115904 0.017894 0.00713695
0.115714 0.0173886 0.00717976
0.121378 0.0163288 0.00781093
0.11583 0.0174898 0.00710727
0.121845 0.0179306 0.00709901
0.115638 0.0174455 0.00714891
0.109439 0.0173932 0.00736872
0.11545 0.0170122 0.0074454
0.115468 0.0174787 0.00714321
0.115956 0.0178089 0.00713044
0.115862 0.0177769 0.00711803
0.11543 0.0173281 0.00734522
0.121302 0.0163743 0.00776397
0.115619 0.0173627 0.0072022
0.121826 0.0178349 0.00712145
0.115355 0.0169886 0.00746969
0.115448 0.0172423 0.00739315
0.121665 0.0171643 0.00728008
0.121684 0.0180472 0.00708317
0.121706 0.017355 0.0072352
0.109577 0.0176105 0.00728097
0.121646 0.0183508 0.00701254
0.115641 0.0170695 0.00740824
0.121453 0.0166017 0.00752898
0.115471 0.0167492 0.00769087
0.115885 0.01768 0.00710954
0.114863 0.015318 0.00896708
0.109498 0.0176689 0.00726604
0.115276 0.0166932 0.00772672
0.115412 0.0172298 0.00730074
0.115395 0.0167943 0.00764396
0.115828 0.0179597 0.00713752
0.115659 0.0171425 0.00734233
0.12185 0.0183805 0.00699701
0.115372 0.0167243 0.00771276
0.115686 0.01787 0.00719923
0.115655 0.0175334 0.00710473
0.115198 0.0161394 0.0082335
0.115506 0.0172552 0.00727859
0.115449 0.0166768 0.00775625
0.121656 0.0177986 0.00720644
0.121786 0.0180866 0.00706625
0.115732 0.0174727 0.00712419
0.121646 0.0170688 0.00730255
0.121885 0.0181214 0.00705413
0.109557 0.0175175 0.00731567
0.115449 0.0173937 0.00719241
0.121416 0.0164582 0.00766327
0.115575 0.0176052 0.0070815
0.121703 0.0181418 0.00705733
0.115525 0.0175351 0.00720254
0.109456 0.0170548 0.00748816
0.121435 0.0165293 0.00759568
0.115583 0.0171987 0.00731057
0.115338 0.0169179 0.0075382
0.121736 0.0178015 0.00714643
0.11581 0.0174081 0.00716136
0.109516 0.0173316 0.00738504
0.109458 0.0174851 0.00733449
0.115454 0.0174086 0.00729115
0.115753 0.0180254 0.0071381
0.109419 0.0173013 0.00740294
0.115337 0.016311 0.00808599
0.11549 0.016822 0.00762511
0.121585 0.0180648 0.00707984
0.115645 0.018337 0.00717227
0.115815 0.018296 0.00718736
0.115667 0.0184331 0.00718968
0.109237 0.0164982 0.00775783
0.109298 0.0167507 0.00760828
0.109217 0.0164154 0.00781022
0.115604 0.0169238 0.00754022
0.115349 0.0166468 0.0077758
0.109257 0.0165809 0.00770544
0.10938 0.0171175 0.00747139
0.115602 0.0177007 0.0070925
0.115807 0.0181071 0.00715743
0.109518 0.0177607 0.00723182
0.11556 0.0175051 0.00711363
0.121827 0.0182783 0.00702111
0.109558 0.0179443 0.00716338
0.109496 0.017239 0.00741954
0.10936 0.0170257 0.00750561
0.115068 0.0157045 0.0086258
0.115674 0.0176307 0.0070906
0.115526 0.0177657 0.00709356
0.115558 0.0178012 0.00718116
0.109578 0.0180361 0.00712915
0.115509 0.0168948 0.00755911
0.11572 0.0182706 0.00717149
0.115731 0.0181722 0.00715784
0.109339 0.0169341 0.00753984
0.115544 0.0178634 0.00710416
0.109478 0.017577 0.00730027
0.115774 0.0172439 0.00726976
0.11564 0.0178959 0.00711402
0.115556 0.0173437 0.00731938
0.115511 0.0176708 0.00712152
0.121865 0.018026 0.00707657
0.115749 0.017565 0.00708939
0.109618 0.0182197 0.00706071
0.115582 0.0180561 0.00713999
0.109598 0.0181279 0.00709493
0.115621 0.0177983 0.00710312
0.115487 0.0175737 0.00711851
0.115603 0.0181461 0.00717884
0.115696 0.0177325 0.00710189
0.1094 0.0172094 0.00743717
0.109598 0.0177035 0.00724625
0.115585 0.016851 0.00760612
0.109476 0.0171469 0.00745382
0.109278 0.0166637 0.00765306
0.115676 0.0180911 0.00713849
0.115659 0.0179933 0.00712593
0.115563 0.0179611 0.00711476
0.115735 0.017928 0.00712336
0.115671 0.018102 0.00723778
0.115567 0.0167781 0.00767211
0.115622 0.0169967 0.00747412
0.11581 0.0178624 0.00712197
0.115315 0.0162385 0.00815142
0.115768 0.0176626 0.00710001
0.115624 0.0182409 0.00715485
0.109536 0.0174244 0.00735039
0.115742 0.0183667 0.0071889
0.121625 0.0169733 0.007325
0.109319 0.0168424 0.00757406
0.109538 0.0178525 0.0071976
0.121921 0.0178661 0.00711032

VERTICES 287 574
1 0
1 1
1 2
1 3
1 4
1 5
1 6
1 7
1 8
1 9
1 10
1 11
1 12
1 13
1 14
1 15
1 16
1 17
1 18
1 19
1 20
1 21
1 22
1 23
1 24
1 25
1 26
1 27
1 28
1 29
1 30
1 31
1 32
1 33
1 34
1 35
1 36
1 37
1 38
1 39
1 40
1 41
1 42
1 43
1 44
1 45
1 46
1 47
1 48
1 49
1 50
1 51
1 52
1 53
1 54
1 55
1 56
1 57
1 58
1 59
1 60
1 61
1 62
1 63
1 64
1 65
1 66
1 67
1 68
1 69
1 70
1 71
1 72
1 73
1 74
1 75
1 76
1 77
1 78
1 79
1 80
1 81
1 82
1 83
1 84
1 85
1 86
1 87
1 88
1 89
1 90
1 91
1 92
1 93
1 94
1 95
1 96
1 97
1 98
1 99
1 100
1 101
1 102
1 103
1 104
1 105
1 106
1 107
1 108
1 109
1 110
1 111
1 112
1 113
1 114
1 115
1 116
1 117
1 118
1 119
1 120
1 121
1 122
1 123
1 124
1 125
1 126
1 127
1 128
1 129
1 130
1 131
1 132
1 133
1 134
1 135
1 136
1 137
1 138
1 139
1 140
1 141
1 142
1 143
1 144
1 145
1 146
1 147
1 148
1 149
1 150
1 151
1 152
1 153
1 154
1 155
1 156
1 157
1 158
1 159
1 160
1 161
1 162
1 163
1 164
1 165
1 166
1 167
1 168
1 169
1 170
1 171
1 172
1 173
1 174
1 175
1 176
1 177
1 178
1 179
1 180
1 181
1 182
1 183
1 184
1 185
1 186
1 187
1 188
1 189
1 190
1 191
1 192
1 193
1 194
1 195
1 196
1 197
1 198
1 199
1 200
1 201
1 202
1 203
1 204
1 205
1 206
1 207
1 208
1 209
1 210
1 211
1 212
1 213
1 214
1 215
1 216
1 217
1 218
1 219
1 220
1 221
1 222
1 223
1 224
1 225
1 226
1 227
1 228
1 229
1 230
1 231
1 232
1 233
1 234
1 235
1 236
1 237
1 238
1 239
1 240
1 241
1 242
1 243
1 244
1 245
1 246
1 247
1 248
1 249
1 250
1 251
1 252
1 253
1 254
1 255
1 256
1 257
1 258
1 259
1 260
1 261
1 262
1 263
1 264
1 265
1 266
1 267
1 268
1 269
1 270
1 271
1 272
1 273
1 274
1 275
1 276
1 277
1 278
1 279
1 280
1 281
1 282
1 283
1 284
1 285
1 286

POINT_DATA 287
SCALARS id int 1
LOOKUP_TABLE default
1
2
3
4
5
6
7
8
9
10
11
12
13
14
15
16
17
18
19
21
22
23
24
25
26
27
28
29
30
31
32
33
34
35
36
37
38
39
41
42
44
45
46
47
48
49
50
51
52
53
54
55
56
57
59
60
61
62
63
64
65
66
67
68
69
70
71
72
73
74
76
77
78
79
80
81
82
83
84
85
86
87
88
89
90
91
92
93
94
95
96
97
98
99
100
101
102
103
104
105
106
107
108
109
110
111
112
113
114
115
116
117
118
119
120
121
122
123
124
125
126
127
128
129
130
131
132
133
134
135
136
137
138
140
141
142
143
144
146
147
148
149
150
151
153
154
155
156
157
158
159
160
162
164
165
166
167
168
169
170
171
172
173
174
175
176
177
178
179
181
182
183
184
185
186
187
188
189
190
191
192
193
194
195
196
197
198
199
200
201
202
203
204
205
206
207
208
209
210
211
212
213
214
215
216
217
218
219
220
221
222
223
224
225
226
227
228
229
230
231
232
233
234
235
236
237
239
240
241
242
243
244
246
247
248
249
250
251
252
253
254
255
256
257
258
259
260
261
262
263
264
265
266
267
268
269
270
271
272
273
274
275
276
277
278
279
280
281
282
283
284
285
286
287
288
289
290
291
292
293
294
295
296
297
298
299
300

SCALARS type int 1
LOOKUP_TABLE default
1
1
1
1
1
1
1
1
1
1
1
1
1
1
1
1
1
1
1
1
1
1
1
1
1
1
1
1
1
1
1
1
1
1
1
1
1
1
1
1
1
1
1
1
1
1
1
1
1
1
1
1
1
1
1
1
1
1
1
1
1
1
1
1
1
1
1
1
1
1
1
1
1
1
1
1
1
1
1
1
1
1
1
1
1
1
1
1
1
1
1
1
1
1
1
1
1
1
1
1
1
1
1
1
1
1
1
1
1
1
1
1
1
1
1
1
1
1
1
1
1
1
1
1
1
1
1
1
1
1
1
1
1
1
1
1
1
1
1
1
1
1
1
1
1
1
1
1
1
1
1
1
1
1
1
1
1
1
1
1
1
1
1
1
1
1
1
1
1
1
1
1
1
1
1
1
1
1
1
1
1
1
1
1
1
1
1
1
1
1
1
1
1
1
1
1
1
1
1
1
1
1
1
1
1
1
1
1
1
1
1
1
1
1
1
1
1
1
1
1
1
1
1
1
1
1
1
1
1
1
1
1
1
1
1
1
1
1
1
1
1
1
1
1
1
1
1
1
1
1
1
1
1
1
1
1
1
1
1
1
1
1
1
1
1
1
1
1
1
1
1
1
1
1
1
1
1
1
1
1
1
1
1
1
1
1
1

SCALARS radius float 1
LOOKUP_TABLE default
5e-05
5e-05
5e-05
5e-05
5e-05
5e-05
5e-05
5e-05
5e-05
5e-05
5e-05
5e-05
5e-05
5e-05
5e-05
5e-05
5e-05
5e-05
5e-05
5e-05
5e-05
5e-05
5e-05
5e-05
5e-05
5e-05
5e-05
5e-05
5e-05
5e-05
5e-05
5e-05
5e-05
5e-05
5e-05
5e-05
5e-05
5e-05
5e-05
5e-05
5e-05
5e-05
5e-05
5e-05
5e-05
5e-05
5e-05
5e-05
5e-05
5e-05
5e-05
5e-05
5e-05
5e-05
5e-05
5e-05
5e-05
5e-05
5e-05
5e-05
5e-05
5e-05
5e-05
5e-05
5e-05
5e-05
5e-05
5e-05
5e-05
5e-05
5e-05
5e-05
5e-05
5e-05
5e-05
5e-05
5e-05
5e-05
5e-05
5e-05
5e-05
5e-05
5e-05
5e-05
5e-05
5e-05
5e-05
5e-05
5e-05
5e-05
5e-05
5e-05
5e-05
5e-05
5e-05
5e-05
5e-05
5e-05
5e-05
5e-05
5e-05
5e-05
5e-05
5e-05
5e-05
5e-05
5e-05
5e-05
5e-05
5e-05
5e-05
5e-05
5e-05
5e-05
5e-05
5e-05
5e-05
5e-05
5e-05
5e-05
5e-05
5e-05
5e-05
5e-05
5e-05
5e-05
5e-05
5e-05
5e-05
5e-05
5e-05
5e-05
5e-05
5e-05
5e-05
5e-05
5e-05
5e-05
5e-05
5e-05
5e-05
5e-05
5e-05
5e-05
5e-05
5e-05
5e-05
5e-05
5e-05
5e-05
5e-05
5e-05
5e-05
5e-05
5e-05
5e-05
5e-05
5e-05
5e-05
5e-05
5e-05
5e-05
5e-05
5e-05
5e-05
5e-05
5e-05
5e-05
5e-05
5e-05
5e-05
5e-05
5e-05
5e-05
5e-05
5e-05
5e-05
5e-05
5e-05
5e-05
5e-05
5e-05
5e-05
5e-05
5e-05
5e-05
5e-05
5e-05
5e-05
5e-05
5e-05
5e-05
5e-05
5e-05
5e-05
5e-05
5e-05
5e-05
5e-05
5e-05
5e-05
5e-05
5e-05
5e-05
5e-05
5e-05
5e-05
5e-05
5e-05
5e-05
5e-05
5e-05
5e-05
5e-05
5e-05
5e-05
5e-05
5e-05
5e-05
5e-05
5e-05
5e-05
5e-05
5e-05
5e-05
5e-05
5e-05
5e-05
5e-05
5e-05
5e-05
5e-05
5e-05
5e-05
5e-05
5e-05
5e-05
5e-05
5e-05
5e-05
5e-05
5e-05
5e-05
5e-05
5e-05
5e-05
5e-05
5e-05
5e-05
5e-05
5e-05
5e-05
5e-05
5e-05
5e-05
5e-05
5e-05
5e-05
5e-05
5e-05
5e-05
5e-05
5e-05
5e-05
5e-05
5e-05
5e-05
5e-05
5e-05
5e-05
5e-05
5e-05
5e-05
5e-05
5e-05
5e-05
5e-05
5e-05
5e-05
5e-05
5e-05
5e-05
5e-05
5e-05
5e-05
5e-05
5e-05

SCALARS mass float 1
LOOKUP_TABLE default
1.46608e-10
1.46608e-10
1.46608e-10
1.46608e-10
1.46608e-10
1.46608e-10
1.46608e-10
1.46608e-10
1.46608e-10
1.46608e-10
1.46608e-10
1.46608e-10
1.46608e-10
1.46608e-10
1.46608e-10
1.46608e-10
1.46608e-10
1.46608e-10
1.46608e-10
1.46608e-10
1.46608e-10
1.46608e-10
1.46608e-10
1.46608e-10
1.46608e-10
1.46608e-10
1.46608e-10
1.46608e-10
1.46608e-10
1.46608e-10
1.46608e-10
1.46608e-10
1.46608e-10
1.46608e-10
1.46608e-10
1.46608e-10
1.46608e-10
1.46608e-10
1.46608e-10
1.46608e-10
1.46608e-10
1.46608e-10
1.46608e-10
1.46608e-10
1.46608e-10
1.46608e-10
1.46608e-10
1.46608e-10
1.46608e-10
1.46608e-10
1.46608e-10
1.46608e-10
1.46608e-10
1.46608e-10
1.46608e-10
1.46608e-10
1.46608e-10
1.46608e-10
1.46608e-10
1.46608e-10
1.46608e-10
1.46608e-10
1.46608e-10
1.46608e-10
1.46608e-10
1.46608e-10
1.46608e-10
1.46608e-10
1.46608e-10
1.46608e-10
1.46608e-10
1.46608e-10
1.46608e-10
1.46608e-10
1.46608e-10
1.46608e-10
1.46608e-10
1.46608e-10
1.46608e-10
1.46608e-10
1.46608e-10
1.46608e-10
1.46608e-10
1.46608e-10
1.46608e-10
1.46608e-10
1.46608e-10
1.46608e-10
1.46608e-10
1.46608e-10
1.46608e-10
1.46608e-10
1.46608e-10
1.46608e-10
1.46608e-10
1.46608e-10
1.46608e-10
1.46608e-10
1.46608e-10
1.46608e-10
1.46608e-10
1.46608e-10
1.46608e-10
1.46608e-10
1.46608e-10
1.46608e-10
1.46608e-10
1.46608e-10
1.46608e-10
1.46608e-10
1.46608e-10
1.46608e-10
1.46608e-10
1.46608e-10
1.46608e-10
1.46608e-10
1.46608e-10
1.46608e-10
1.46608e-10
1.46608e-10
1.46608e-10
1.46608e-10
1.46608e-10
1.46608e-10
1.46608e-10
1.46608e-10
1.46608e-10
1.46608e-10
1.46608e-10
1.46608e-10
1.46608e-10
1.46608e-10
1.46608e-10
1.46608e-10
1.46608e-10
1.46608e-10
1.46608e-10
1.46608e-10
1.46608e-10
1.46608e-10
1.46608e-10
1.46608e-10
1.46608e-10
1.46608e-10
1.46608e-10
1.46608e-10
1.46608e-10
1.46608e-10
1.46608e-10
1.46608e-10
1.46608e-10
1.46608e-10
1.46608e-10
1.46608e-10
1.46608e-10
1.46608e-10
1.46608e-10
1.46608e-10
1.46608e-10
1.46608e-10
1.46608e-10
1.46608e-10
1.46608e-10
1.46608e-10
1.46608e-10
1.46608e-10
1.46608e-10
1.46608e-10
1.46608e-10
1.46608e-10
1.46608e-10
1.46608e-10
1.46608e-10
1.46608e-10
1.46608e-10
1.46608e-10
1.46608e-10
1.46608e-10
1.46608e-10
1.46608e-10
1.46608e-10
1.46608e-10
1.46608e-10
1.46608e-10
1.46608e-10
1.46608e-10
1.46608e-10
1.46608e-10
1.46608e-10
1.46608e-10
1.46608e-10
1.46608e-10
1.46608e-10
1.46608e-10
1.46608e-10
1.46608e-10
1.46608e-10
1.46608e-10
1.46608e-10
1.46608e-10
1.46608e-10
1.46608e-10
1.46608e-10
1.46608e-10
1.46608e-10
1.46608e-10
1.46608e-10
1.46608e-10
1.46608e-10
1.46608e-10
1.46608e-10
1.46608e-10
1.46608e-10
1.46608e-10
1.46608e-10
1.46608e-10
1.46608e-10
1.46608e-10
1.46608e-10
1.46608e-10
1.46608e-10
1.46608e-10
1.46608e-10
1.46608e-10
1.46608e-10
1.46608e-10
1.46608e-10
1.46608e-10
1.46608e-10
1.46608e-10
1.46608e-10
1.46608e-10
1.46608e-10
1.46608e-10
1.46608e-10
1.46608e-10
1.46608e-10
1.46608e-10
1.46608e-10
1.46608e-10
1.46608e-10
1.46608e-10
1.46608e-10
1.46608e-10
1.46608e-10
1.46608e-10
1.46608e-10
1.46608e-10
1.46608e-10
1.46608e-10
1.46608e-10
1.46608e-10
1.46608e-10
1.46608e-10
1.46608e-10
1.46608e-10
1.46608e-10
1.46608e-10
1.46608e-10
1.46608e-10
1.46608e-10
1.46608e-10
1.46608e-10
1.46608e-10
1.46608e-10
1.46608e-10
1.46608e-10
1.46608e-10
1.46608e-10
1.46608e-10
1.46608e-10
1.46608e-10
1.46608e-10
1.46608e-10
1.46608e-10
1.46608e-10
1.46608e-10
1.46608e-10
1.46608e-10
1.46608e-10
1.46608e-10
1.46608e-10
1.46608e-10
1.46608e-10
1.46608e-10
1.46608e-10
1.46608e-10

VECTORS velocity float
0.00597008 5.32725e-05 -0.000453923
0.00560698 0.000294623 -0.000308042
0.00578567 -0.000295397 0.000754908
0.00562152 0.000316581 -0.000314426
0.00618995 -8.59147e-05 -0.000312154
0.00561149 -0.000385733 0.000883299
0.00571724 0.000308403 -0.000129805
0.00609126 -0.000100476 -0.00028924
0.00538727 -0.000830019 0.00055998
0.00594641 0.00031243 -1.90317e-05
0.00562757 0.000290277 -0.000307852
0.00578907 -0.000324912 0.000783338
0.0061448 -8.67763e-05 -0.000307582
0.00578628 -0.000272938 0.000733945
0.00576264 0.000276012 -0.000311784
0.00578635 -0.000268677 0.000730102
0.00588638 0.000234318 -0.000129313
0.00554918 -0.000816822 0.000446027
0.00616169 -9.37379e-05 -0.000300715
0.00631764 -1.63393e-05 -0.000402261
0.00576869 0.000263579 -0.000284847
0.00533686 -0.000401522 0.000679218
0.00541679 -0.000874569 0.00026146
0.00566393 0.000355735 -5.26372e-05
0.00537619 -0.000754364 0.000400887
0.00564889 -0.000339501 0.000778452
0.00561104 0.000316163 -0.000312944
0.0061372 -9.30291e-05 -0.000299635
0.00560049 0.000308721 -0.000311077
0.00575179 0.000281005 -0.000236421
0.00578547 0.000266577 -0.000319196
0.00561943 -0.000747166 0.000402003
0.00574227 0.000100798 -0.000285883
0.00571312 0.000210995 -0.000297449
0.00540151 -0.000740554 0.000902081
0.00570913 0.000304478 -1.92252e-05
0.00575969 0.000302911 -0.000316464
0.00540804 -0.000872752 0.000271627
0.00585565 -2.12365e-05 -0.000365995
0.00575141 0.000266244 -0.000307172
0.00574949 0.000315428 -0.000319835
0.00564169 -0.000761293 0.000406293
0.00552171 -0.000820052 0.000443764
0.00572746 6.56301e-06 -0.000371515
0.0057047 0.000288599 -0.000312081
0.00544646 -0.00080207 0.000428916
0.00561596 0.000323507 -0.000314513
0.00560898 0.000320127 -0.000312765
0.00578762 -0.000317884 0.000775663
0.00546341 -0.000856805 0.000374956
0.00617955 -9.35039e-05 -0.000302176
0.00578472 -0.000284704 0.000745248
0.00571716 0.000313087 -2.14949e-05
0.00565325 -0.000770201 0.000410449
0.00572376 0.000426471 -0.000100955
0.00568124 0.000437821 -9.91463e-05
0.0062295 -8.08681e-05 -0.00032121
0.00571518 0.000378894 -0.000332341
0.00568329 0.000347903 -0.000324091
0.00541912 -0.000873546 0.000269153
0.00550231 -0.000262058 0.000691696
0.00577925 -0.000315855 0.000773248
0.0056175 0.00029447 -0.000308326
0.00561454 0.000304775 -0.00031043
0.00516457 0.000301778 -0.000300936
0.00538585 -0.000885765 0.000304625
0.00578673 -0.000278726 0.000739229
0.00560483 0.000306938 -0.000311044
0.00568255 0.000358435 -4.50602e-05
0.0057496 0.00028935 -0.000315889
0.00534595 -0.000759192 0.000171449
0.0056049 0.000307191 -0.000310472
0.00578536 -0.000299274 0.000758201
0.00578513 -0.000325433 0.000795659
0.00561846 0.000327274 -0.000315961
0.00578936 -0.000313608 0.000771809
0.00553664 -0.000398017 0.000676157
0.00578288 -0.000326954 0.000783931
0.00544268 -0.000758916 0.00092077
0.00578787 -0.000303867 0.000762909
0.00560357 0.000314593 -0.000312695
0.00575101 0.000424016 -9.07361e-05
0.00561935 0.000327922 -0.000315829
0.00565859 0.000339624 -0.000322417
0.00560289 0.000303897 -0.000310261
0.00576237 -0.000321395 0.000806801
0.00563411 0.000309089 -0.000312467
0.00562769 0.000313721 -0.00031401
0.00599104 0.000197037 -0.00030267
0.00561823 0.000304769 -0.000310214
0.00561459 0.000296914 -0.000309366
0.00578592 -0.000306336 0.000764808
0.00562168 0.000323665 -0.000315529
0.00578959 -0.000319799 0.000781306
0.00574677 0.000338498 -0.000324412
0.00576292 -0.000308683 0.000765415
4.3281e-15 1.04856e-14 8.29586e-14
1.6328e-22 -1.27651e-22 1.23839e-22
0.0053368 -0.000763356 0.000166383
0.00578938 -0.000302322 0.000761525
0.0053033 -0.000796596 0.00019757
0.00578638 -0.000300814 0.000759902
0.00572371 0.000388276 -7.00715e-05
0.00563827 0.000307183 -0.0003124
0.00611923 0.000193179 -0.000306798
0.00604386 0.000237417 -0.000314093
0.0057893 -0.000309635 0.000768095
0.00562642 -0.000810719 0.000582709
0.00539594 -0.000340613 0.000768142
0.00573458 0.000306578 -0.00031705
0.00591609 0.00035174 -4.433e-05
0.00615003 -8.8419e-05 -0.00030613
0.00578419 -0.000290617 0.000751892
0.00581095 0.000281222 -0.000356046
0.00609807 -9.61332e-05 -0.000295283
0.00608058 -9.60974e-05 -0.000293101
0.00604683 0.00020306 -0.000305294
0.00579239 -0.000305168 0.000764415
0.00564029 0.000322593 -0.000316365
0.00615395 -0.000108254 -0.000283731
0.00574043 0.000275108 -0.000312909
0.00578754 -0.000304188 0.000762963
0.00562047 0.000326037 -0.000315899
0.00557856 0.000296955 -0.000311259
0.0053481 -0.000354577 0.000765384
0.00579088 -0.000319466 0.000777807
0.00562253 0.000327908 -0.000316963
0.00573099 0.000109489 -0.000496201
0.00578084 0.000296406 -0.000320476
0.00612905 -0.000107501 -0.000283101
0.00578555 -0.000302854 0.000761704
0.00599858 0.000217142 -0.000307712
0.00571535 -6.7549e-06 -0.000363561
0.00604729 0.000232196 -0.000313039
0.00579268 -0.000304963 0.000764235
0.00533875 -0.000565693 0.000442445
0.00578837 -0.000301262 0.000760527
0.005324 -0.000339263 0.000754541
0.005785 -0.000318753 0.000776114
0.00578882 -0.000303561 0.000762527
0.00540665 -0.000633757 0.000371924
0.00599456 0.000205755 -0.000304794
0.00578643 -0.000258794 0.000719356
0.00535086 -0.000823337 0.000210555
0.00576706 -0.000305345 0.000762413
0.00532626 -0.000771369 0.00016997
0.0053739 -0.000775215 0.000172429
0.0053975 -0.000454393 0.000596095
-3.83322e-14 8.16639e-14 2.95889e-13
0.00552182 -0.000767384 0.000298855
0.00562594 0.000310721 -0.000313839
0.00534955 -0.000750754 0.000162641
0.00537397 -0.000701255 0.000253722
0.00560445 -0.000787878 0.000299998
0.00545845 -0.000833994 0.000252279
0.00603736 8.97077e-05 -0.000501931
0.00554128 -0.00023103 0.000682107
0.00535043 -0.000802232 0.00019678
0.00561082 -0.000849601 0.000576735
0.00538682 -0.000810079 0.000195986
0.00586046 9.9297e-05 -0.000505524
0.00541773 -0.0008299 0.000210932
0.00562468 0.000301299 -0.000310217
0.00539045 -0.000799021 0.000192169
0.00551065 0.000421702 -0.000556441
0.00538352 -0.00035823 0.000793016
0.00539919 -0.000723603 0.000197136
0.00555825 -0.000886483 0.000562808
0.00557554 -0.00083656 0.00031037
0.00538634 -0.000765345 0.000172263
0.00577411 4.05726e-05 -0.000424262
0.00538504 -0.000767274 0.000165934
0.00564443 0.000302334 -0.000311468
0.00529165 -0.000536119 0.000460212
0.00537876 -0.000762905 0.000167101
0.00575753 0.000306885 -0.00031746
0.00561892 0.000306398 -0.000315143
0.00565057 0.00036076 -0.000325003
0.00573626 0.000377818 -0.000557393
0.00603977 0.000206411 -0.000307119
0.00536721 -0.000295286 0.000708286
0.00576201 0.000421985 -8.80442e-05
0.00544686 -0.000369023 0.000792897
0.00550413 -0.000852307 0.000289783
0.00578613 -0.000265958 0.00072755
0.00573442 0.000375797 -0.000556561
0.00570874 -0.000324237 0.000797611
0.00534712 -0.000745367 0.000170822
0.00549981 -0.000522254 0.000571422
0.00563508 -0.000813342 0.00058442
0.00525907 -0.000789404 0.000199235
0.00606573 0.000273395 -0.000323304
0.00569808 -0.000289549 0.000756273
0.00567162 -0.000759546 0.000310202
0.00541773 -0.000770347 0.000260649
0.0057853 -0.000304903 0.000763715
0.00533829 -0.000749478 0.00016808
0.00559549 -0.000394 0.000833777
0.00562955 0.000313683 -0.000318957
0.00558027 0.000316216 -0.000310713
0.00539313 -0.000828207 0.000211041
0.00574024 0.000286699 -0.000312226
0.00601342 0.00021997 -0.00030882
0.0055355 0.000417403 -0.00055672
0.0053624 -0.000747858 0.00016229
0.00566285 0.000217564 -0.000378345
0.00547708 -0.000723833 0.000302184
0.00558649 0.000315521 -0.000312146
0.00549908 -0.000833658 0.000204481
0.00561088 0.000413436 -0.000560876
0.00574646 0.000374949 -0.000159542
0.00530885 -0.000746613 0.000188685
0.0054005 -0.000480031 0.000543537
0.00563617 0.000305838 -0.000314885
0.00539904 -0.000828821 0.000210879
0.00548226 0.000390094 -0.000543002
0.00552558 0.000420268 -0.00055706
0.00535482 -0.000757653 0.000171719
0.00564898 -0.00075758 0.000594267
0.00549993 0.000428927 -0.000558192
0.00576395 -0.000324344 0.000779743
0.0052869 -0.000341609 0.000746724
0.00561686 0.000316694 -0.000314346
0.00563891 -0.000782851 0.00058849
0.00564417 -0.000727641 0.000597599
0.00562549 -0.000777941 0.000587708
0.00579836 0.00064086 2.46709e-05
0.00584489 0.000348635 -0.000555324
0.00577539 0.00064085 2.3034e-05
0.00535986 -0.000306121 0.000729957
0.00575981 -0.000285353 0.000747356
0.00582152 0.000642251 2.56609e-05
0.00561227 0.000413656 -0.000560898
0.00552775 -0.000730958 0.00030287
0.00566255 -0.000767037 0.000593614
0.00578347 0.000364549 -0.000556124
0.00539246 -0.000749745 0.000152618
0.00606442 0.000270543 -0.000322382
0.00588456 0.000344148 -0.000556304
0.00548363 0.000410943 -0.000550569
0.00583688 0.000360939 -0.000558146
0.00578673 -0.000301958 0.000761259
0.00547844 -0.000778709 0.000295656
0.00546023 -0.000706384 0.000299352
0.00545655 -0.00068878 0.0002928
0.00593421 0.000332505 -0.000555816
0.0052949 -0.000337533 0.00074936
0.00565461 -0.000765231 0.000593168
0.00566796 -0.000765242 0.000594756
0.00584162 0.000359031 -0.000558892
0.00541701 -0.000696811 0.000297016
0.00553637 0.000418225 -0.000557082
0.00530339 -0.000817307 0.000209935
0.00563731 -0.000744393 0.000331595
0.00536214 -0.000744542 0.000159084
0.00549416 -0.000710524 0.000314548
0.0055762 0.000297604 -0.000305836
0.0054413 -0.000811908 0.000289286
0.00603286 0.000307328 -0.000554156
0.00566646 -0.000763635 0.000516598
0.00598351 0.000319953 -0.000554995
0.00558573 -0.00073705 0.000302067
0.0054528 -0.000702707 0.000283392
0.00562644 -0.000779361 0.000527781
0.00554856 -0.000783173 0.000299159
0.00547073 0.00044386 -0.000561601
0.0057807 0.000360929 -0.000554666
0.00532102 -0.000310287 0.000729451
0.00548349 0.000459215 -0.000567877
0.00584708 0.000643942 2.71797e-05
0.00566846 -0.000769209 0.000592843
0.00566855 -0.00075255 0.000416207
0.00537796 -0.000689623 0.000295735
0.00565587 -0.000771273 0.000342288
0.00565386 -0.000789046 0.000593303
0.00529313 -0.000322318 0.000739931
0.00538733 -0.000353897 0.000775476
0.00563097 -0.000801238 0.000296109
0.00574322 -0.000320065 0.000774156
0.00551453 -0.000822001 0.000292946
0.00565877 -0.000768092 0.000592773
0.00552939 0.000424911 -0.000558932
0.00563725 -0.000762579 0.000591421
0.00580294 0.000319568 -0.00032557
0.00584265 0.0003538 -0.000556431
0.00583446 0.000354751 -0.000556379
0.00564467 0.000313822 -0.00031394

VECTORS force float
2.2125e-10 -2.03884e-10 2.2433e-10
-1.70408e-11 1.23152e-11 -1.65114e-12
-8.61512e-12 -1.65998e-11 1.46504e-11
-3.66347e-11 6.27792e-11 -9.44497e-12
-1.08678e-10 1.38015e-10 -1.55824e-10
-9.71859e-11 1.37623e-10 -2.77913e-10
-2.44743e-10 -3.16929e-11 -2.5157e-10
2.99274e-10 -1.79151e-10 1.8768e-10
-4.44203e-10 -1.21137e-11 5.55781e-10
6.37577e-11 1.80438e-10 -1.05879e-10
-6.715e-11 1.74469e-10 -4.39164e-11
-2.0965e-11 -5.61405e-11 2.26711e-11
-8.48202e-11 1.69875e-10 -1.85315e-10
2.90076e-12 3.12181e-11 -2.9227e-11
-1.64021e-12 -5.24554e-11 -1.92231e-11
1.87239e-11 5.14696e-11 -4.67676e-11
3.33717e-10 2.78324e-11 -1.25673e-10
-2.05341e-10 1.37879e-10 -4.7033e-11
-8.30234e-11 5.11813e-11 -5.62042e-11
-2.09166e-10 -1.39924e-10 1.40337e-10
8.94496e-11 -1.21676e-10 -1.06871e-10
2.79532e-11 2.33192e-10 1.05342e-10
-2.21065e-10 6.70327e-11 -1.34216e-10
-9.86576e-11 3.28688e-11 -1.1864e-10
3.44618e-10 -4.18394e-10 2.67608e-10
-1.59266e-12 -2.65394e-11 -3.81097e-11
-9.54783e-12 1.00964e-11 4.69477e-13
-3.22211e-10 -7.14363e-11 8.08656e-11
-1.07726e-10 -1.59326e-12 9.31694e-12
-6.48479e-11 -9.01817e-11 -2.19213e-10
9.2522e-11 -3.40065e-11 -7.0277e-11
1.97641e-10 3.49869e-10 -1.74141e-10
-3.35639e-11 1.99394e-11 6.84469e-11
-4.34778e-11 -5.61571e-11 1.1689e-11
-1.88338e-10 -8.41014e-11 -1.13516e-10
1.80796e-11 7.59405e-12 4.34831e-11
1.83929e-10 -9.66607e-11 3.97328e-11
3.06149e-11 -1.0634e-10 3.86858e-10
1.32372e-10 -1.56832e-10 2.09149e-10
-2.9174e-11 -9.92089e-11 4.64851e-11
6.82303e-11 -1.38637e-10 3.9294e-11
1.18516e-10 8.37342e-11 -1.55608e-10
-6.38724e-10 -3.13647e-11 3.04415e-12
-2.00688e-10 -1.74647e-11 2.18647e-10
1.24609e-10 -1.21451e-10 4.54517e-11
2.36188e-10 -3.24682e-10 2.51416e-10
-5.28779e-12 7.19492e-13 2.17491e-12
-4.22547e-11 -2.21905e-11 1.62045e-11
-4.17192e-11 -5.30822e-11 4.22832e-11
4.98851e-10 2.21612e-10 2.26649e-10
-1.87737e-10 6.90158e-11 -7.44297e-11
3.04901e-12 -8.34782e-12 6.92621e-12
-2.47195e-10 8.11799e-11 -1.98729e-11
-3.06218e-10 7.98546e-11 -2.58265e-11
-1.63066e-10 4.1963e-11 -8.79278e-11
-2.03138e-10 7.977e-11 -2.63472e-11
-8.52777e-11 9.52276e-11 4.24861e-12
7.54986e-11 8.27507e-12 -3.93454e-12
1.41842e-10 5.84647e-11 -1.10391e-11
-5.71683e-11 1.59448e-10 -2.53141e-11
-1.1833e-10 -2.54315e-11 3.05272e-11
-5.54422e-11 -2.01057e-11 1.59807e-11
-2.8033e-12 1.58418e-10 -3.6427e-11
8.07269e-12 8.83045e-11 -2.34165e-11
5.80148e-11 -8.58739e-11 -1.2284e-09
7.06209e-10 -1.95985e-10 3.83326e-10