# vtk DataFile Version 3.0
LIGGGHTS particles timestep 16600000
ASCII
DATASET POLYDATA
POINTS 287 float
0.109644 0.0164916 0.00779316
0.110093 0.0175943 0.00724881
0.103419 0.0159572 0.00820846
0.109987 0.0179084 0.00714452
0.10953 0.0163829 0.00786524
0.115598 0.0166824 0.00776339
0.109719 0.0171495 0.00743499
0.10943 0.0159591 0.00812395
0.11586 0.0177143 0.00711113
0.109654 0.016883 0.00755588
0.110136 0.0177792 0.00717968
0.103621 0.0167472 0.00762849
0.10951 0.0163061 0.00792617
0.10334 0.0156363 0.00843363
0.109858 0.0173591 0.00734996
0.10332 0.0155547 0.00848784
0.109633 0.0167937 0.00759538
0.115736 0.0171938 0.00730594
0.10949 0.0162343 0.00799294
0.109624 0.0164085 0.00784582
0.109762 0.0173324 0.00736657
0.103821 0.0171686 0.00732348
0.115804 0.0174365 0.00714331
0.109697 0.0170588 0.00747094
0.115677 0.0169733 0.00750035
0.103704 0.0170627 0.007397
0.109967 0.0178164 0.00717885
0.109469 0.0161432 0.0080492
0.109997 0.0175682 0.00726514
0.109741 0.0172409 0.00740078
0.109837 0.0172677 0.00738418
0.115618 0.0167551 0.00769763
0.109611 0.0167101 0.00764827
0.109815 0.0171763 0.00741839
0.115899 0.0179083 0.00713858
0.109772 0.0169967 0.00749547
0.109932 0.0172939 0.00736779
0.115819 0.0175196 0.00708979
0.109569 0.0165446 0.00775295
0.109784 0.0174238 0.00733236
0.109954 0.0173854 0.00733357
0.115637 0.0168279 0.00763187
0.115716 0.0171187 0.00736883
0.10959 0.0166272 0.0077007
0.109828 0.0176066 0.00726393
0.115697 0.017046 0.00743463
0.109893 0.0178816 0.00716336
0.109871 0.0177895 0.00719551
0.1036 0.0166684 0.00768636
0.115757 0.0172747 0.00725092
0.109604 0.0163253 0.00789853
0.10338 0.0157991 0.00832461
0.109793 0.0170846 0.00745272
0.115657 0.0169006 0.00756611
0.109846 0.0169339 0.00752027
0.109867 0.0170192 0.0074706
0.109549 0.0164615 0.00780556
0.109976 0.0174768 0.00729936
0.109924 0.0176334 0.00724732
0.115781 0.0173556 0.0071971
0.103737 0.0168533 0.00755488
0.103675 0.0166167 0.00772847
0.110114 0.0176858 0.00721458
0.110041 0.0177512 0.00719669
0.109706 0.0167396 0.00763626
0.11584 0.0176169 0.00710047
0.10336 0.0157188 0.00838076
0.110019 0.0176597 0.00723091
0.109676 0.0169691 0.00750947
0.10988 0.0174505 0.00731575
0.103947 0.0176824 0.00705082
0.110011 0.0184104 0.00696372
0.103439 0.0160362 0.00815041
0.103642 0.0168261 0.00757062
0.109937 0.0180727 0.00712231
0.10358 0.0165895 0.00774423
0.103725 0.0171416 0.00733913
0.10377 0.0166439 0.00771265
0.11588 0.0178117 0.00712181
0.103553 0.0161431 0.00807611
0.109945 0.0177248 0.0072131
0.109823 0.0168514 0.00757231
0.109956 0.0181492 0.0070609
0.109977 0.0181911 0.00714937
0.110071 0.0175028 0.00728307
0.103663 0.016905 0.00751274
0.110126 0.0180625 0.00707936
0.110052 0.0181729 0.00704536
0.110189 0.0183891 0.00695817
0.110104 0.0181495 0.00712742
0.110152 0.0181651 0.00704081
0.103538 0.0164317 0.00785998
0.109985 0.018245 0.00706549
0.103716 0.0167744 0.00761272
0.110027 0.0173199 0.0073515
0.103654 0.0165378 0.00778633
0.0643568 0.0187248 0.00531097
0.24257 0.0191927 0.00520306
0.104022 0.0176177 0.00706306
0.103498 0.0162738 0.00797593
0.104097 0.0175524 0.00707544
0.103458 0.0161153 0.00809237
0.109749 0.0169048 0.00753187
0.109849 0.0176981 0.00722972
0.110084 0.0187831 0.00682536
0.110134 0.0185467 0.00690604
0.103559 0.0165106 0.00780211
0.104413 0.0182724 0.00695571
0.103958 0.0173547 0.00719118
0.109902 0.017542 0.00728153
0.109728 0.0168221 0.00758421
0.109582 0.0162414 0.00795151
0.1034 0.0158781 0.00826655
0.109889 0.017111 0.0074364
0.10945 0.016042 0.00807143
0.109411 0.0158763 0.00817646
0.110066 0.0186908 0.00685958
0.103593 0.0163011 0.0079601
0.110027 0.0180813 0.00707988
0.109556 0.0161595 0.0080029
0.109806 0.0175152 0.00729814
0.103518 0.0163528 0.00791789
0.109914 0.017977 0.00714046
0.110147 0.0182566 0.0070809
0.103842 0.0172475 0.00726585
0.103696 0.0166955 0.00767059
0.110012 0.0180054 0.007143
0.109739 0.0165209 0.00778134
0.10991 0.0172025 0.00740202
0.109543 0.0160761 0.0080563
0.103534 0.0160641 0.00813416
0.11003 0.0185064 0.00692803
0.109686 0.0166569 0.00768863
0.110155 0.0186455 0.00686921
0.103573 0.0162221 0.00801808
0.10398 0.0174359 0.0071316
0.103478 0.0161944 0.00803427
0.103938 0.0172753 0.00724942
0.103791 0.0167228 0.00765478
0.103514 0.015985 0.0081922
0.103788 0.0173846 0.00717589
0.110113 0.0184511 0.00694167
0.103833 0.0168805 0.00753906
0.104212 0.0176782 0.0070444
0.103633 0.0164589 0.0078442
0.103903 0.0174905 0.0070979
0.103967 0.017778 0.00702909
0.103882 0.0174053 0.00714978
0.0219312 0.0187687 0.00551176
0.104005 0.017691 0.00713161
0.110062 0.0178441 0.00716195
0.103852 0.0176521 0.00706016
0.103809 0.0174696 0.00712764
0.104127 0.0181764 0.00693646
0.104309 0.0179493 0.00698168
0.109699 0.0163554 0.0078861
0.103812 0.0168017 0.00759693
0.104117 0.0176479 0.00705373
0.104318 0.0182409 0.00694671
0.104137 0.0177436 0.00703199
0.109719 0.0164382 0.0078337
0.104253 0.0178691 0.00700101
0.110221 0.0180958 0.00706043
0.104062 0.0178088 0.00701965
0.097777 0.0173377 0.0072034
0.103863 0.0173263 0.00720782
0.103892 0.0178432 0.00701675
0.104384 0.0181654 0.00695239
0.104289 0.018134 0.00694796
0.103832 0.0175797 0.00718355
0.109665 0.0165742 0.00774091
0.104042 0.0177132 0.00704136
0.11017 0.0179773 0.00710645
0.103766 0.0172993 0.00722338
0.103883 0.0174942 0.0071957
0.110006 0.0172285 0.00738573
0.110077 0.0182672 0.00700993
0.110049 0.0174113 0.00731729
0.0979179 0.0175589 0.00714857
0.110049 0.0185985 0.0068938
0.104054 0.0173833 0.00717435
0.109803 0.0167687 0.00762464
0.103874 0.0170383 0.00742329
0.104331 0.0180443 0.00696003
0.1033 0.0154731 0.00854205
0.0978419 0.017622 0.00713311
0.103683 0.0169838 0.00745488
0.103831 0.0175579 0.00708598
0.103799 0.0170899 0.00738126
0.104256 0.0183193 0.00694136
0.104076 0.017462 0.00711669
0.110227 0.0185784 0.00688789
0.103779 0.017011 0.00743911
0.104095 0.018104 0.00703309
0.104082 0.0179043 0.00699794
0.103613 0.01638 0.00790212
0.103926 0.0175866 0.00707259
0.103853 0.0169594 0.00748115
0.109959 0.0178982 0.00723989
0.110171 0.0182966 0.0069925
0.104157 0.0178393 0.00701027
0.109984 0.017137 0.00741996
0.110268 0.0183294 0.00697365
0.0978962 0.0174641 0.007172
0.103872 0.0177476 0.00703846
0.10976 0.0166036 0.00772906
0.104007 0.0179692 0.00698568
0.110096 0.0183615 0.00698274
0.10393 0.0177562 0.00711947
0.0977873 0.0170016 0.00731807
0.109781 0.0166862 0.00767673
0.104002 0.0175226 0.0070867
0.103746 0.0172204 0.00728125
0.110082 0.0179359 0.00712773
0.104232 0.0177737 0.0070227
0.097853 0.0172746 0.00721887
0.0977986 0.0174325 0.00717997
0.10391 0.0176603 0.00714116
0.104182 0.0183856 0.00693477
0.0977553 0.0172429 0.00722683
0.103749 0.0165648 0.00777068
0.103895 0.0171171 0.0073655
0.109992 0.0183184 0.00699795
0.104073 0.0187143 0.00692639
0.104202 0.0184836 0.00693718
0.104255 0.0185681 0.00694261
0.0975696 0.0165314 0.00771786
0.0976307 0.0167551 0.00752751
0.0975497 0.0164568 0.00778138
0.104013 0.0172237 0.00729151
0.103758 0.0169321 0.00749701
0.0975899 0.016606 0.0076544
0.0977121 0.0170534 0.0072737
0.104032 0.018071 0.00696243
0.104351 0.0183508 0.00695036
0.0978635 0.0177168 0.00710968
0.103987 0.0178736 0.00700739
0.110207 0.0184814 0.00692393
0.0979051 0.0179067 0.00706274
0.0978312 0.0171797 0.00724232
0.0976919 0.0169788 0.00733719
0.103494 0.015906 0.00825022
0.104101 0.018 0.00697623
0.103952 0.0181301 0.00695325
0.103994 0.0180439 0.00705094
0.0979249 0.0180019 0.00703922
0.103917 0.0171959 0.00730774
0.104127 0.0185499 0.00693058
0.104276 0.0184172 0.00694377
0.0976714 0.0169042 0.0074006
0.103972 0.0182265 0.00693497
0.0978202 0.0175272 0.00715654
0.104192 0.0175826 0.0070661
0.104067 0.0182561 0.00693073
0.103985 0.0175954 0.00715326
0.103932 0.0180343 0.00697354
0.110244 0.0182303 0.00701081
0.104176 0.0179352 0.00698849
0.0979647 0.0181921 0.00699219
0.104012 0.0184205 0.00691913
0.0979448 0.018097 0.00701571
0.104038 0.0181703 0.00698391
0.103912 0.0179388 0.00699505
0.104033 0.0185183 0.00692158
0.104155 0.0180824 0.0069565
0.0977337 0.0171481 0.00725026
0.0979395 0.0176537 0.00712514
0.103991 0.0171441 0.00734993
0.0978089 0.0170842 0.00726594
0.0976103 0.0166806 0.00759095
0.104107 0.0184519 0.00692817
0.104087 0.018354 0.00692571
0.103992 0.0183227 0.00691666
0.104162 0.0182877 0.00693236
0.104053 0.018474 0.00700897
0.10397 0.0170651 0.00740781
0.104034 0.0173043 0.00723237
0.104224 0.0182093 0.00693771
0.103728 0.016486 0.00782854
0.10423 0.0180172 0.00696884
0.104053 0.0186163 0.00692399
0.0978746 0.0173694 0.00719543
0.10418 0.0186349 0.00693595
0.109962 0.0170459 0.00745613
0.097651 0.0168297 0.00746405
0.0978851 0.0178116 0.00708625
0.110156 0.0178716 0.00714517

VERTICES 287 574
1 0
1 1
1 2
1 3
1 4
1 5
1 6
1 7
1 8
1 9
1 10
1 11
1 12
1 13
1 14
1 15
1 16
1 17
1 18
1 19
1 20
1 21
1 22
1 23
1 24
1 25
1 26
1 27
1 28
1 29
1 30
1 31
1 32
1 33
1 34
1 35
1 36
1 37
1 38
1 39
1 40
1 41
1 42
1 43
1 44
1 45
1 46
1 47
1 48
1 49
1 50
1 51
1 52
1 53
1 54
1 55
1 56
1 57
1 58
1 59
1 60
1 61
1 62
1 63
1 64
1 65
1 66
1 67
1 68
1 69
1 70
1 71
1 72
1 73
1 74
1 75
1 76
1 77
1 78
1 79
1 80
1 81
1 82
1 83
1 84
1 85
1 86
1 87
1 88
1 89
1 90
1 91
1 92
1 93
1 94
1 95
1 96
1 97
1 98
1 99
1 100
1 101
1 102
1 103
1 104
1 105
1 106
1 107
1 108
1 109
1 110
1 111
1 112
1 113
1 114
1 115
1 116
1 117
1 118
1 119
1 120
1 121
1 122
1 123
1 124
1 125
1 126
1 127
1 128
1 129
1 130
1 131
1 132
1 133
1 134
1 135
1 136
1 137
1 138
1 139
1 140
1 141
1 142
1 143
1 144
1 145
1 146
1 147
1 148
1 149
1 150
1 151
1 152
1 153
1 154
1 155
1 156
1 157
1 158
1 159
1 160
1 161
1 162
1 163
1 164
1 165
1 166
1 167
1 168
1 169
1 170
1 171
1 172
1 173
1 174
1 175
1 176
1 177
1 178
1 179
1 180
1 181
1 182
1 183
1 184
1 185
1 186
1 187
1 188
1 189
1 190
1 191
1 192
1 193
1 194
1 195
1 196
1 197
1 198
1 199
1 200
1 201
1 202
1 203
1 204
1 205
1 206
1 207
1 208
1 209
1 210
1 211
1 212
1 213
1 214
1 215
1 216
1 217
1 218
1 219
1 220
1 221
1 222
1 223
1 224
1 225
1 226
1 227
1 228
1 229
1 230
1 231
1 232
1 233
1 234
1 235
1 236
1 237
1 238
1 239
1 240
1 241
1 242
1 243
1 244
1 245
1 246
1 247
1 248
1 249
1 250
1 251
1 252
1 253
1 254
1 255
1 256
1 257
1 258
1 259
1 260
1 261
1 262
1 263
1 264
1 265
1 266
1 267
1 268
1 269
1 270
1 271
1 272
1 273
1 274
1 275
1 276
1 277
1 278
1 279
1 280
1 281
1 282
1 283
1 284
1 285
1 286

POINT_DATA 287
SCALARS id int 1
LOOKUP_TABLE default
1
2
3
4
5
6
7
8
9
10
11
12
13
14
15
16
17
18
19
21
22
23
24
25
26
27
28
29
30
31
32
33
34
35
36
37
38
39
41
42
44
45
46
47
48
49
50
51
52
53
54
55
56
57
59
60
61
62
63
64
65
66
67
68
69
70
71
72
73
74
76
77
78
79
80
81
82
83
84
85
86
87
88
89
90
91
92
93
94
95
96
97
98
99
100
101
102
103
104
105
106
107
108
109
110
111
112
113
114
115
116
117
118
119
120
121
122
123
124
125
126
127
128
129
130
131
132
133
134
135
136
137
138
140
141
142
143
144
146
147
148
149
150
151
153
154
155
156
157
158
159
160
162
164
165
166
167
168
169
170
171
172
173
174
175
176
177
178
179
181
182
183
184
185
186
187
188
189
190
191
192
193
194
195
196
197
198
199
200
201
202
203
204
205
206
207
208
209
210
211
212
213
214
215
216
217
218
219
220
221
222
223
224
225
226
227
228
229
230
231
232
233
234
235
236
237
239
240
241
242
243
244
246
247
248
249
250
251
252
253
254
255
256
257
258
259
260
261
262
263
264
265
266
267
268
269
270
271
272
273
274
275
276
277
278
279
280
281
282
283
284
285
286
287
288
289
290
291
292
293
294
295
296
297
298
299
300

SCALARS type int 1
LOOKUP_TABLE default
1
1
1
1
1
1
1
1
1
1
1
1
1
1
1
1
1
1
1
1
1
1
1
1
1
1
1
1
1
1
1
1
1
1
1
1
1
1
1
1
1
1
1
1
1
1
1
1
1
1
1
1
1
1
1
1
1
1
1
1
1
1
1
1
1
1
1
1
1
1
1
1
1
1
1
1
1
1
1
1
1
1
1
1
1
1
1
1
1
1
1
1
1
1
1
1
1
1
1
1
1
1
1
1
1
1
1
1
1
1
1
1
1
1
1
1
1
1
1
1
1
1
1
1
1
1
1
1
1
1
1
1
1
1
1
1
1
1
1
1
1
1
1
1
1
1
1
1
1
1
1
1
1
1
1
1
1
1
1
1
1
1
1
1
1
1
1
1
1
1
1
1
1
1
1
1
1
1
1
1
1
1
1
1
1
1
1
1
1
1
1
1
1
1
1
1
1
1
1
1
1
1
1
1
1
1
1
1
1
1
1
1
1
1
1
1
1
1
1
1
1
1
1
1
1
1
1
1
1
1
1
1
1
1
1
1
1
1
1
1
1
1
1
1
1
1
1
1
1
1
1
1
1
1
1
1
1
1
1
1
1
1
1
1
1
1
1
1
1
1
1
1
1
1
1
1
1
1
1
1
1
1
1
1
1
1
1

SCALARS radius float 1
LOOKUP_TABLE default
5e-05
5e-05
5e-05
5e-05
5e-05
5e-05
5e-05
5e-05
5e-05
5e-05
5e-05
5e-05
5e-05
5e-05
5e-05
5e-05
5e-05
5e-05
5e-05
5e-05
5e-05
5e-05
5e-05
5e-05
5e-05
5e-05
5e-05
5e-05
5e-05
5e-05
5e-05
5e-05
5e-05
5e-05
5e-05
5e-05
5e-05
5e-05
5e-05
5e-05
5e-05
5e-05
5e-05
5e-05
5e-05
5e-05
5e-05
5e-05
5e-05
5e-05
5e-05
5e-05
5e-05
5e-05
5e-05
5e-05
5e-05
5e-05
5e-05
5e-05
5e-05
5e-05
5e-05
5e-05
5e-05
5e-05
5e-05
5e-05
5e-05
5e-05
5e-05
5e-05
5e-05
5e-05
5e-05
5e-05
5e-05
5e-05
5e-05
5e-05
5e-05
5e-05
5e-05
5e-05
5e-05
5e-05
5e-05
5e-05
5e-05
5e-05
5e-05
5e-05
5e-05
5e-05
5e-05
5e-05
5e-05
5e-05
5e-05
5e-05
5e-05
5e-05
5e-05
5e-05
5e-05
5e-05
5e-05
5e-05
5e-05
5e-05
5e-05
5e-05
5e-05
5e-05
5e-05
5e-05
5e-05
5e-05
5e-05
5e-05
5e-05
5e-05
5e-05
5e-05
5e-05
5e-05
5e-05
5e-05
5e-05
5e-05
5e-05
5e-05
5e-05
5e-05
5e-05
5e-05
5e-05
5e-05
5e-05
5e-05
5e-05
5e-05
5e-05
5e-05
5e-05
5e-05
5e-05
5e-05
5e-05
5e-05
5e-05
5e-05
5e-05
5e-05
5e-05
5e-05
5e-05
5e-05
5e-05
5e-05
5e-05
5e-05
5e-05
5e-05
5e-05
5e-05
5e-05
5e-05
5e-05
5e-05
5e-05
5e-05
5e-05
5e-05
5e-05
5e-05
5e-05
5e-05
5e-05
5e-05
5e-05
5e-05
5e-05
5e-05
5e-05
5e-05
5e-05
5e-05
5e-05
5e-05
5e-05
5e-05
5e-05
5e-05
5e-05
5e-05
5e-05
5e-05
5e-05
5e-05
5e-05
5e-05
5e-05
5e-05
5e-05
5e-05
5e-05
5e-05
5e-05
5e-05
5e-05
5e-05
5e-05
5e-05
5e-05
5e-05
5e-05
5e-05
5e-05
5e-05
5e-05
5e-05
5e-05
5e-05
5e-05
5e-05
5e-05
5e-05
5e-05
5e-05
5e-05
5e-05
5e-05
5e-05
5e-05
5e-05
5e-05
5e-05
5e-05
5e-05
5e-05
5e-05
5e-05
5e-05
5e-05
5e-05
5e-05
5e-05
5e-05
5e-05
5e-05
5e-05
5e-05
5e-05
5e-05
5e-05
5e-05
5e-05
5e-05
5e-05
5e-05
5e-05
5e-05
5e-05
5e-05
5e-05
5e-05
5e-05
5e-05
5e-05
5e-05
5e-05
5e-05
5e-05
5e-05
5e-05
5e-05
5e-05
5e-05
5e-05
5e-05
5e-05
5e-05
5e-05
5e-05
5e-05
5e-05

SCALARS mass float 1
LOOKUP_TABLE default
1.46608e-10
1.46608e-10
1.46608e-10
1.46608e-10
1.46608e-10
1.46608e-10
1.46608e-10
1.46608e-10
1.46608e-10
1.46608e-10
1.46608e-10
1.46608e-10
1.46608e-10
1.46608e-10
1.46608e-10
1.46608e-10
1.46608e-10
1.46608e-10
1.46608e-10
1.46608e-10
1.46608e-10
1.46608e-10
1.46608e-10
1.46608e-10
1.46608e-10
1.46608e-10
1.46608e-10
1.46608e-10
1.46608e-10
1.46608e-10
1.46608e-10
1.46608e-10
1.46608e-10
1.46608e-10
1.46608e-10
1.46608e-10
1.46608e-10
1.46608e-10
1.46608e-10
1.46608e-10
1.46608e-10
1.46608e-10
1.46608e-10
1.46608e-10
1.46608e-10
1.46608e-10
1.46608e-10
1.46608e-10
1.46608e-10
1.46608e-10
1.46608e-10
1.46608e-10
1.46608e-10
1.46608e-10
1.46608e-10
1.46608e-10
1.46608e-10
1.46608e-10
1.46608e-10
1.46608e-10
1.46608e-10
1.46608e-10
1.46608e-10
1.46608e-10
1.46608e-10
1.46608e-10
1.46608e-10
1.46608e-10
1.46608e-10
1.46608e-10
1.46608e-10
1.46608e-10
1.46608e-10
1.46608e-10
1.46608e-10
1.46608e-10
1.46608e-10
1.46608e-10
1.46608e-10
1.46608e-10
1.46608e-10
1.46608e-10
1.46608e-10
1.46608e-10
1.46608e-10
1.46608e-10
1.46608e-10
1.46608e-10
1.46608e-10
1.46608e-10
1.46608e-10
1.46608e-10
1.46608e-10
1.46608e-10
1.46608e-10
1.46608e-10
1.46608e-10
1.46608e-10
1.46608e-10
1.46608e-10
1.46608e-10
1.46608e-10
1.46608e-10
1.46608e-10
1.46608e-10
1.46608e-10
1.46608e-10
1.46608e-10
1.46608e-10
1.46608e-10
1.46608e-10
1.46608e-10
1.46608e-10
1.46608e-10
1.46608e-10
1.46608e-10
1.46608e-10
1.46608e-10
1.46608e-10
1.46608e-10
1.46608e-10
1.46608e-10
1.46608e-10
1.46608e-10
1.46608e-10
1.46608e-10
1.46608e-10
1.46608e-10
1.46608e-10
1.46608e-10
1.46608e-10
1.46608e-10
1.46608e-10
1.46608e-10
1.46608e-10
1.46608e-10
1.46608e-10
1.46608e-10
1.46608e-10
1.46608e-10
1.46608e-10
1.46608e-10
1.46608e-10
1.46608e-10
1.46608e-10
1.46608e-10
1.46608e-10
1.46608e-10
1.46608e-10
1.46608e-10
1.46608e-10
1.46608e-10
1.46608e-10
1.46608e-10
1.46608e-10
1.46608e-10
1.46608e-10
1.46608e-10
1.46608e-10
1.46608e-10
1.46608e-10
1.46608e-10
1.46608e-10
1.46608e-10
1.46608e-10
1.46608e-10
1.46608e-10
1.46608e-10
1.46608e-10
1.46608e-10
1.46608e-10
1.46608e-10
1.46608e-10
1.46608e-10
1.46608e-10
1.46608e-10
1.46608e-10
1.46608e-10
1.46608e-10
1.46608e-10
1.46608e-10
1.46608e-10
1.46608e-10
1.46608e-10
1.46608e-10
1.46608e-10
1.46608e-10
1.46608e-10
1.46608e-10
1.46608e-10
1.46608e-10
1.46608e-10
1.46608e-10
1.46608e-10
1.46608e-10
1.46608e-10
1.46608e-10
1.46608e-10
1.46608e-10
1.46608e-10
1.46608e-10
1.46608e-10
1.46608e-10
1.46608e-10
1.46608e-10
1.46608e-10
1.46608e-10
1.46608e-10
1.46608e-10
1.46608e-10
1.46608e-10
1.46608e-10
1.46608e-10
1.46608e-10
1.46608e-10
1.46608e-10
1.46608e-10
1.46608e-10
1.46608e-10
1.46608e-10
1.46608e-10
1.46608e-10
1.46608e-10
1.46608e-10
1.46608e-10
1.46608e-10
1.46608e-10
1.46608e-10
1.46608e-10
1.46608e-10
1.46608e-10
1.46608e-10
1.46608e-10
1.46608e-10
1.46608e-10
1.46608e-10
1.46608e-10
1.46608e-10
1.46608e-10
1.46608e-10
1.46608e-10
1.46608e-10
1.46608e-10
1.46608e-10
1.46608e-10
1.46608e-10
1.46608e-10
1.46608e-10
1.46608e-10
1.46608e-10
1.46608e-10
1.46608e-10
1.46608e-10
1.46608e-10
1.46608e-10
1.46608e-10
1.46608e-10
1.46608e-10
1.46608e-10
1.46608e-10
1.46608e-10
1.46608e-10
1.46608e-10
1.46608e-10
1.46608e-10
1.46608e-10
1.46608e-10
1.46608e-10
1.46608e-10
1.46608e-10
1.46608e-10
1.46608e-10
1.46608e-10
1.46608e-10
1.46608e-10
1.46608e-10
1.46608e-10
1.46608e-10
1.46608e-10
1.46608e-10
1.46608e-10
1.46608e-10
1.46608e-10
1.46608e-10
1.46608e-10
1.46608e-10
1.46608e-10

VECTORS velocity float
0.00609616 0.000775495 -4.09362e-05
0.00620729 0.000458676 -0.000620912
0.0053622 -0.000205046 0.000407644
0.00625716 0.000500065 -0.000642786
0.00568939 0.000938483 -0.000167498
0.00563755 -0.000394251 0.000833841
0.00619216 0.000517577 -0.000638441
0.00569501 0.00094918 -0.000184061
0.00598206 -0.00108686 0.000298463
0.00615572 0.000682096 -0.000173329
0.00626102 0.000499632 -0.000639575
0.00588406 -0.000326013 0.000525317
0.0056996 0.00096457 -0.00016069
0.00553124 -0.000467608 2.44141e-05
0.0061872 0.000527742 -0.000645034
0.00555463 -0.000443641 1.33137e-05
0.00613317 0.000747152 -1.92344e-05
0.00597891 -0.00113728 0.00012466
0.00567764 0.000968201 -0.000160057
0.00568004 0.000953349 -0.000187437
0.00620425 0.000519465 -0.000638104
0.00607622 -0.000373509 0.000561054
0.00607073 -0.00106936 0.000311106
0.00618951 0.000590147 -0.000455954
0.00585062 -0.00042961 0.000882692
0.0059995 -0.000385467 0.000563607
0.00622951 0.000501456 -0.000638478
0.00567812 0.000927252 -0.000177892
0.00619337 0.000503008 -0.000635786
0.00619427 0.000523441 -0.000626787
0.00617481 0.000515009 -0.000636153
0.00570633 -0.000398957 0.000847828
0.00610303 0.000753594 -2.71585e-05
0.00614962 0.000504595 -0.000645729
0.00585026 -0.00110898 0.00056498
0.00618987 0.00064678 -0.000342964
0.00616264 0.000524777 -0.000641471
0.00608891 -0.00108615 0.000304051
0.00603792 0.000724932 -1.14223e-05
0.00620586 0.00051913 -0.000642706
0.00616141 0.000521821 -0.000639954
0.00578125 -0.000417047 0.000867608
0.00596112 -0.000459559 0.000904829
0.00606572 0.000765646 -3.76057e-05
0.00622309 0.000517867 -0.000642752
0.00595447 -0.000436441 0.000899981
0.00624537 0.000505988 -0.000646127
0.00624039 0.000508143 -0.000641203
0.0058384 -0.000323623 0.000523808
0.00597537 -0.00107526 0.000237233
0.00568459 0.000929167 -0.000168332
0.00535275 -0.000203347 0.000405014
0.006174 0.000497351 -0.000633215
0.00579591 -0.000438517 0.000875989
0.00618366 0.000767703 -2.84942e-05
0.00611108 0.000430191 -0.000602722
0.00578584 0.00132801 -0.000424072
0.00619771 0.0005297 -0.000645893
0.00621557 0.000508957 -0.00063935
0.00600335 -0.00104623 0.00030525
0.0058776 -0.000321718 0.00051871
0.00584391 -0.000314215 0.000511844
0.00621936 0.000503152 -0.000637699
0.0062136 0.000492198 -0.000633266
0.00612251 0.000758674 -2.82854e-05
0.0060394 -0.00109044 0.000301041
0.00550851 -0.000433217 0.000121061
0.00621943 0.000480802 -0.000629628
0.00618794 0.000740108 -0.000105416
0.00618732 0.000519389 -0.000641165
0.00550606 -0.000624431 -1.52269e-05
0.00594062 0.000841687 -0.000737019
0.00540606 -0.000198377 0.000404921
0.00589368 -0.000343682 0.000533498
0.00627164 0.00047096 -0.000651805
0.00580001 -0.000315192 0.000511575
0.00604633 -0.000417182 0.00059657
0.00588822 -0.000320361 0.000518143
0.0059376 -0.00107844 0.000295611
0.00539723 -0.00020792 0.000412227
0.00623634 0.000506685 -0.000640159
0.00616545 0.000759727 -2.52597e-05
0.00626707 0.000484217 -0.000637292
0.00648983 0.000882672 -0.00089259
0.00619951 0.000523733 -0.000643527
0.0059526 -0.000353707 0.000543983
0.00627584 0.000469156 -0.000630145
0.00622937 0.000629121 -0.000686188
0.0059904 0.000839542 -0.000740719
0.00636852 0.000756653 -0.000740388
0.00625173 0.000882977 -0.00077801
0.00570327 -0.000282586 0.000479313
0.0060462 0.000580185 -0.00104291
0.00589068 -0.000323699 0.000520301
0.00615316 0.000542092 -0.000646557
0.00580939 -0.000309789 0.000506855
4.03493e-15 1.05528e-14 8.2965e-14
-2.77512e-22 -1.27651e-22 1.23839e-22
0.00544709 -0.000668827 1.18599e-05
0.0053997 -0.000231904 0.000430213
0.00541834 -0.000529859 -2.48092e-05
0.00540369 -0.000195503 0.000402636
0.0061781 0.000762088 -2.5173e-05
0.00623274 0.00051175 -0.000641188
0.00586696 0.000876488 -0.00074492
0.00574903 0.000891294 -0.000741504
0.00579042 -0.000271484 0.000484264
0.00569976 -0.000161214 0.000532728
0.00625445 -0.000391001 0.000591083
0.00621375 0.000528734 -0.00064582
0.00615192 0.000766645 -3.05877e-05
0.00571465 0.000949338 -0.000165263
0.00536034 -0.000202439 0.000406467
0.00617651 0.00050082 -0.000682254
0.00568735 0.000939793 -0.000179146
0.00570401 0.000961077 -0.000190982
0.00580793 0.000885167 -0.000743691
0.00556552 -0.000239627 0.000442895
0.00627312 0.000488505 -0.000637845
0.00569331 0.000944757 -0.000169364
0.00621541 0.000521041 -0.000644384
0.00548273 -0.000247195 0.000443791
0.0062372 0.00047415 -0.000679671
0.00595923 0.000847547 -0.000734949
0.00615449 -0.000402085 0.00057414
0.0058842 -0.000322367 0.00052102
0.00626835 0.000496867 -0.00064156
0.00595546 0.00077534 -5.09025e-05
0.00615639 0.000497833 -0.000634353
0.00568605 0.000931164 -0.000172942
0.00539208 -0.00021545 0.000415984
0.00599212 0.00084585 -0.000743158
0.00608771 0.000763097 -3.32348e-05
0.00581163 0.0008911 -0.000746035
0.0054407 -0.000214331 0.000417898
0.00628443 -0.000437216 0.000622395
0.00546295 3.92921e-05 0.000230121
0.006257 -0.000422224 0.000611099
0.00589733 -0.000316871 0.00051603
0.00538267 -0.000223757 0.000424646
0.00588255 -0.000440383 0.000582192
0.00599046 0.000840496 -0.000741408
0.00586904 -0.000328861 0.000525007
0.00531076 -0.000371011 -6.36397e-05
0.00578156 -0.000298172 0.000498586
0.00618706 -0.000631063 0.00054511
0.00551161 -0.00065556 -7.14299e-06
0.0062151 -0.000449736 0.000625648
-3.82481e-14 8.1678e-14 2.95895e-13
0.00545387 -0.00059837 3.37958e-05
0.00626597 0.000506451 -0.000643223
0.00550139 -0.000633382 -2.31418e-05
0.0061921 -0.000467827 0.000703148
0.00481695 -0.00119752 0.000134989
0.00545089 -0.000473714 -4.84829e-05
0.00555521 0.000830676 -0.000117366
0.00588294 -0.000319085 0.000517455
0.00520491 -0.000151616 -0.000110786
0.00574831 -0.000332225 0.000535701
0.00540691 -0.000568057 -1.97458e-05
0.00574807 0.000801552 -8.36045e-05
0.00531107 -0.000374229 -6.49094e-05
0.00644585 0.00104531 -0.000847946
0.00551674 -0.000680378 -1.90258e-06
0.00629426 6.30332e-05 -2.52874e-05
0.00623455 -0.00043291 0.000609869
0.00558322 -0.000608133 -2.38959e-05
0.00578447 -0.000290981 0.000532583
0.00582131 -0.000410291 0.000369041
0.00629215 -9.92963e-05 5.92095e-05
0.0060295 0.000767025 -4.16151e-05
0.00546469 -0.000672397 5.15766e-06
0.006255 0.000453122 -0.000622298
0.00491812 -0.000223859 0.000458569
0.00604573 -0.000335396 0.000525631
0.0061512 0.000536084 -0.000642125
0.00588714 0.000863338 -0.000739732
0.00616259 0.000513174 -0.000636957
0.00626644 7.69379e-05 -2.86519e-05
0.00575104 0.000896773 -0.000743365
0.00639649 -0.000349014 0.000575815
0.0061277 0.000755804 -2.49725e-05
0.00597299 -0.000398942 0.000581393
0.00569418 -0.000530825 -3.95814e-05
0.00557051 -0.000429779 -4.64585e-06
0.00625705 6.80474e-05 -2.64589e-05
0.00597796 -0.000367524 0.000557076
0.00615762 -0.000720333 0.000211406
0.00601264 -0.000356283 0.000553422
0.00562787 -0.000311653 0.000526911
0.00564706 -0.000251626 0.000450385
0.00582365 0.00090244 -0.000751007
0.00597619 -0.000353775 0.000545037
0.00564053 -0.000883098 0.000133278
0.00557635 -0.000689254 -9.10733e-06
0.00569925 -0.000271767 0.000474017
0.00549673 -0.000654145 -1.11645e-05
0.00597734 -0.000355075 0.000549609
0.0062502 0.000470305 -0.000653246
0.00594989 0.000842282 -0.000739124
0.00553037 -0.000724313 6.32833e-06
0.00617841 0.00054738 -0.000640427
0.0059897 0.000836639 -0.00073984
0.00627858 7.67466e-05 -2.86246e-05
0.00549822 -0.000611209 -1.90377e-05
0.00606729 0.000759251 -3.24711e-05
0.00562828 -0.000638653 -9.43021e-06
0.00594593 0.000845846 -0.000739545
0.00547986 -0.000644856 -2.66384e-06
0.00629925 5.62143e-05 -2.41744e-05
0.00608289 0.000763105 -3.25969e-05
0.00548149 -0.000676529 1.29937e-05
0.00610242 -0.000411965 0.000601638
0.0062644 0.000502486 -0.000640723
0.00532865 -0.00037608 -6.71085e-05
0.00630077 6.99532e-05 -2.6921e-05
0.00628179 6.48639e-05 -2.56781e-05
0.00545997 -0.000583384 -2.3375e-05
0.00555266 -0.000405613 0.000517306
0.00630785 6.19989e-05 -2.53055e-05
0.00581874 -0.000324269 0.000518051
0.00603256 -0.000398393 0.000585817
0.00588416 0.000845712 -0.000738246
0.00554627 -0.000381917 0.000521886
0.00545488 -0.000373448 0.000507637
0.00202334 0.00179715 0.000199166
0.00592458 6.06991e-05 -5.2444e-05
0.00614231 9.06619e-05 -5.73124e-05
0.00559996 0.00015888 -0.000115992
0.00635314 -0.00035438 0.000567696
0.00590909 -0.000329147 0.000526218
0.00605626 9.43672e-05 -6.14399e-05
0.00632426 5.58762e-05 -2.674e-05
0.00571467 -0.000636318 1.07272e-05
0.00551919 -0.000118987 0.000515754
0.00624101 7.03787e-05 -2.68779e-05
0.00556146 -0.000640731 -1.18647e-05
0.00574731 0.000888792 -0.000740494
0.00567074 0.000189546 -5.55652e-05
0.00631352 6.5888e-05 -2.6224e-05
0.00629912 6.47035e-05 -3.15885e-05
0.00537132 -0.000214623 0.000448075
0.00567745 -0.000707585 -1.67589e-05
0.00572435 -0.000552911 0.000211552
0.00569906 -0.000690879 3.8618e-05
0.00573376 0.000175272 -5.20934e-05
0.00610888 -0.00041419 0.000598664
0.00547509 -0.000391048 0.000509191
0.00549232 -0.000298686 0.000510713
0.00623926 7.18366e-05 -3.89621e-05
0.00572735 -0.000514176 0.000412615
0.00626973 6.67646e-05 -2.61147e-05
0.00534001 -0.000365512 -6.5506e-05
0.00572409 -0.000493642 0.000484199
0.00536936 -0.000683014 1.11999e-05
0.00567033 -0.000578322 4.48771e-05
0.00595331 0.000839623 -0.000738622
0.00563579 -0.000801181 2.43747e-05
0.00579743 0.000167494 -5.04253e-05
0.00574646 -0.000488167 0.000529855
0.00576575 0.00017092 -5.09513e-05
0.0057685 -0.000721225 0.000159235
0.00561446 -0.00059201 -2.40064e-05
0.00548463 -0.00040425 0.000503599
0.00556074 -0.000723312 1.59072e-06
0.00631767 5.93492e-05 -2.61877e-05
0.00625011 8.28018e-05 -3.00379e-05
0.00614231 -0.000365325 0.000563375
0.00631405 5.55546e-05 -2.3805e-05
0.00609564 0.000101009 -6.63117e-05
0.00546399 -0.000452964 0.000512727
0.00572243 -0.000483192 0.000534441
0.00572902 -0.000507608 0.00052373
0.00569712 -0.00044218 0.000526442
0.00539844 -0.00040269 0.000488651
0.0060669 -0.000366256 0.000560682
0.00628364 -0.000348013 0.000559248
0.00577196 -0.000412996 0.00053971
0.0058064 -0.000314618 0.000511089
0.00564002 -0.00068029 6.0638e-06
0.00550001 -0.000402343 0.000506836
0.0062887 7.2963e-05 -2.76637e-05
0.001974 0.00178845 0.00019446
0.00614099 0.000663082 3.92063e-05
0.0061835 7.50641e-05 -4.50758e-05
0.00592149 0.00014297 -4.4351e-05
0.00626684 0.000512311 -0.000645308

VECTORS force float
-3.91163e-10 2.20395e-10 -1.91965e-10
-3.91559e-10 2.97953e-10 -7.64606e-11
8.80212e-11 2.4246e-10 -1.72001e-10
4.1247e-12 3.56187e-11 -4.49676e-11
2.06775e-11 -1.6326e-10 3.07152e-11
2.94879e-11 -6.09416e-11 -3.77247e-12
-7.28428e-11 -1.04214e-10 1.57814e-10
7.77508e-12 -1.30051e-11 7.47186e-12
-1.11468e-11 -9.44467e-11 -4.11392e-11
-3.04076e-11 -5.16097e-11 2.15074e-10
-2.01478e-10 1.28226e-10 -3.26568e-11
2.27243e-10 -8.72948e-11 1.20152e-10
-5.9665e-12 -2.04928e-10 -3.56669e-10
-5.25018e-12 -1.4449e-10 2.51749e-10
-6.8747e-11 3.88484e-11 -6.0133e-12
9.37789e-11 2.04478e-11 7.94554e-11
-1.91034e-11 -1.82092e-10 2.0477e-10
-2.93733e-11 1.60609e-10 1.63862e-10
1.24858e-10 7.17231e-11 -1.19426e-10
-3.56883e-11 1.7105e-11 1.11953e-11
-4.07292e-11 -6.68073e-11 1.43619e-10
-2.0953e-10 -1.9409e-10 -1.58134e-11
1.0143e-10 -1.48854e-10 -6.44388e-11
4.44342e-12 -5.12756e-11 3.53363e-11
-2.79264e-10 -2.04331e-10 -2.80946e-11
-3.7454e-11 -4.95866e-10 3.40443e-10
-1.46173e-10 5.4522e-11 -1.65172e-11
5.94034e-11 2.28174e-11 -1.05429e-10
-6.28622e-11 1.81066e-10 -6.21494e-11
-1.68717e-10 -6.29315e-11 2.35235e-10
-9.65963e-13 1.3182e-10 2.3068e-11
-3.22716e-10 1.98843e-11 -2.61989e-11
-3.53771e-11 -1.80462e-10 1.1273e-10
-2.82521e-10 1.67024e-10 6.20352e-10
-3.32794e-11 -1.57355e-10 -4.45453e-11
2.637e-11 -7.29213e-11 -2.15546e-10
-1.22983e-10 7.97539e-11 -2.16532e-11
9.03035e-11 4.02849e-11 1.40138e-11
-6.91043e-11 2.46557e-10 -1.53735e-10
-2.31661e-11 -1.52372e-10 1.05567e-10
-1.58401e-10 2.23123e-11 1.17103e-11
3.58598e-10 1.44647e-10 6.46856e-13
1.14884e-10 -2.90822e-11 9.33431e-12
1.09922e-11 -2.71293e-10 1.8005e-10
-3.22468e-11 -6.84221e-12 -1.78663e-11
2.33105e-10 -1.31097e-10 3.28887e-11
-2.1844e-11 -5.65766e-11 -2.92246e-11
3.51624e-11 6.71122e-11 -3.23534e-11
-1.4027e-10 -8.05147e-12 -5.95053e-11
1.82422e-10 1.73422e-10 1.62351e-10
1.58793e-10 -5.42393e-11 -1.09822e-11
9.89893e-11 2.47975e-11 2.96372e-10
-4.92492e-11 1.24246e-10 -3.94499e-12
2.74321e-10 4.84426e-11 1.36579e-10
-1.6198e-11 6.37125e-11 -6.7053e-11
-7.26267e-11 1.7353e-10 4.37056e-12
2.01636e-11 8.5951e-11 -5.44761e-11
-1.78897e-10 1.0489e-10 -1.97148e-11
4.84122e-12 1.35643e-10 -4.41198e-11
5.34035e-10 -1.34938e-10 8.64422e-11
2.76195e-10 -6.73825e-11 7.23099e-11
3.69477e-10 -2.46646e-10 2.14759e-10
-2.36552e-10 1.7421e-10 -4.43495e-11
-2.14402e-10 1.22484e-10 -2.96109e-11
8.85583e-11 -3.88197e-11 5.60587e-11
8.52317e-11 -5.6832e-11 1.19076e-12