# vtk DataFile Version 3.0
LIGGGHTS particles timestep 24000000
ASCII
DATASET POLYDATA
POINTS 273 float
0.152432 0.0156834 0.00885994
0.153065 0.0171878 0.00741924
0.147391 0.0178381 0.00715908
0.15283 0.0165378 0.00764794
0.152412 0.0156301 0.008942
0.158818 0.0168775 0.00752059
0.152515 0.0158967 0.00853203
0.15239 0.0155768 0.00902388
0.15894 0.0174057 0.00726341
0.153017 0.0178004 0.00745284
0.153083 0.0172859 0.00742543
0.146753 0.0167768 0.00789266
0.15233 0.0154167 0.0092702
0.148334 0.0188907 0.00680807
0.152911 0.0164835 0.0076264
0.147635 0.0187439 0.00684653
0.152984 0.0168023 0.00746738
0.152371 0.0155233 0.0091062
0.152995 0.0177092 0.00741777
0.152939 0.0166137 0.00753205
0.146852 0.01699 0.00770798
0.158998 0.0176705 0.00713466
0.152739 0.01623 0.00801809
0.1589 0.0172296 0.00734916
0.147371 0.0177452 0.00719123
0.153023 0.0169893 0.00740575
0.152535 0.0159497 0.00844953
0.153115 0.0176998 0.00750265
0.152758 0.0162828 0.00793537
0.152776 0.0163359 0.00785265
0.15884 0.0169653 0.00747778
0.152494 0.0158438 0.00861405
0.152572 0.0160559 0.0082842
0.158979 0.0175822 0.00717759
0.153211 0.0177639 0.00746313
0.153292 0.0174468 0.00747203
0.159056 0.0174681 0.00722806
0.153098 0.0169253 0.00742336
0.321436 0.0173475 0.00552525
0.153045 0.0170899 0.00741285
0.15886 0.0170534 0.00743491
0.152451 0.0157369 0.00877757
0.153197 0.0176636 0.00745776
0.152671 0.016315 0.00788242
0.15265 0.0162615 0.00796436
0.146667 0.0164771 0.00813994
0.159025 0.0173558 0.00728302
0.153234 0.0178614 0.00746158
0.146602 0.0162513 0.00832634
0.153288 0.0177012 0.00747122
0.15888 0.0171415 0.00739203
0.153079 0.0168321 0.00745524
0.152552 0.016003 0.00836657
0.15325 0.0172519 0.00745864
0.152807 0.01647 0.00771797
0.159079 0.0176156 0.00715682
0.146838 0.0170705 0.00765028
0.14658 0.016176 0.00838847
0.153158 0.0172198 0.00743894
0.152849 0.016603 0.00757447
0.15316 0.0179871 0.00745562
0.15892 0.0173176 0.00730628
0.146646 0.0164017 0.00820206
0.153145 0.017579 0.00744509
0.153256 0.0179585 0.00745281
0.153231 0.0171532 0.0074523
0.147471 0.0186514 0.00687589
0.152752 0.0165586 0.00755481
0.148132 0.0187983 0.00683665
0.146716 0.0166258 0.00801572
0.153091 0.0171602 0.00751169
0.147537 0.0187226 0.00685219
0.146775 0.0168521 0.00783053
0.14777 0.0188744 0.00682408
0.15896 0.0174939 0.00722051
0.147426 0.0180286 0.00709304
0.153118 0.0170231 0.00742617
0.153416 0.0172172 0.00749171
0.15288 0.0170925 0.00747547
0.153176 0.0173179 0.00744515
0.153138 0.0171212 0.00743259
0.14741 0.0179323 0.00712645
0.153121 0.0174819 0.00743792
0.152889 0.0167727 0.00747949
0.153028 0.0174499 0.007418
0.152948 0.017207 0.00748842
0.152909 0.0168665 0.00745119
0.147153 0.0175778 0.00724579
0.152992 0.0171173 0.00749289
0.14688 0.0171378 0.00758936
0.153195 0.0174159 0.00745139
0.146747 0.0166978 0.00795379
0.0643568 0.0187248 0.00531097
0.24257 0.0191927 0.00520306
0.147462 0.0187843 0.0068292
0.147255 0.0176187 0.0072334
0.147211 0.0178564 0.00714936
0.147172 0.0176708 0.0072136
0.153108 0.0181872 0.00744275
0.15263 0.0162085 0.00804681
0.152834 0.0169289 0.00742796
0.15297 0.0171553 0.00739913
0.147594 0.0185419 0.00691646
0.147211 0.0182845 0.0069995
0.148252 0.0189426 0.00683314
0.153004 0.0168951 0.00743564
0.153085 0.0180896 0.00744527
0.153324 0.0171852 0.007472
0.147775 0.0190391 0.00689289
0.152899 0.01643 0.00770996
0.152629 0.0161012 0.00821544
0.152471 0.0157905 0.00869561
0.152814 0.0168364 0.00745968
0.147387 0.0188462 0.00685203
0.152715 0.0164681 0.0077562
0.153343 0.0172838 0.00747835
0.152627 0.0161549 0.00813111
0.147276 0.0177142 0.00720036
0.152692 0.0163925 0.00782297
0.152945 0.017333 0.00748667
0.147296 0.0178068 0.00716829
0.153027 0.0172663 0.00750538
0.152969 0.0175562 0.0074934
0.152776 0.0163896 0.00776829
0.152353 0.0154698 0.00918868
0.148534 0.0189059 0.0068064
0.152773 0.0166512 0.0075231
0.153136 0.017879 0.00745062
0.152991 0.0172537 0.00740576
0.147826 0.0189513 0.00685402
0.147319 0.0187702 0.00688195
0.146624 0.0163266 0.0082642
0.148597 0.0200944 0.00730178
0.147569 0.0186333 0.00688402
0.146902 0.0172922 0.00746729
0.15295 0.0170583 0.00741279
0.0100679 0.0201683 0.00551526
0.14727 0.018567 0.00690169
0.147712 0.0184097 0.00696495
0.148095 0.0193634 0.00701581
0.146923 0.0173675 0.00740515
0.147536 0.0188517 0.00682407
0.0219312 0.0187687 0.00551176
0.147499 0.0183132 0.00699478
0.153269 0.0173499 0.00746488
0.14762 0.0189031 0.0068422
0.147681 0.018828 0.00681895
0.147153 0.0180086 0.00709503
0.147345 0.0185057 0.00692456
0.153188 0.018128 0.00744312
0.147231 0.0179492 0.00711723
0.147137 0.0183517 0.00699345
0.147333 0.0179928 0.00710388
0.153062 0.0179925 0.00743827
0.147256 0.0184503 0.00703111
0.153102 0.017384 0.0074315
0.147191 0.0177636 0.00718148
0.140867 0.0170745 0.00737519
0.147189 0.018202 0.00705138
0.14729 0.0182271 0.00702107
0.147326 0.018413 0.00695666
0.147496 0.01856 0.00690832
0.153039 0.0178954 0.00743127
0.147315 0.0178996 0.00713616
0.153009 0.0173519 0.00741178
0.147247 0.0187073 0.00685216
0.152972 0.0176122 0.00741062
0.152735 0.016525 0.00767649
0.153071 0.017645 0.00743161
0.141043 0.0174913 0.00729766
0.152793 0.0167438 0.00749138
0.147544 0.0181506 0.00705255
0.152719 0.0161767 0.00810045
0.161461 0.0182058 0.00533758
0.147426 0.0184065 0.00696076
0.147076 0.0176377 0.00722341
0.140928 0.0173626 0.00731833
0.148434 0.0188983 0.00680724
0.148067 0.0188702 0.0068103
0.147231 0.0183775 0.00696731
0.147399 0.0185855 0.00689764
0.152855 0.0170215 0.00739624
0.146689 0.0165524 0.0080778
0.147478 0.0182208 0.00702674
0.147114 0.0178232 0.00715921
0.146904 0.0172122 0.00752723
0.147224 0.0187866 0.00690851
0.145706 0.0202178 0.00740811
0.153047 0.0175478 0.0074244
0.152952 0.0175144 0.00740416
0.147586 0.018362 0.00697929
0.153114 0.0177807 0.0074438
0.152895 0.0172211 0.00740467
0.141023 0.017395 0.00731668
0.147371 0.0183805 0.00704005
0.15326 0.0180581 0.00744482
0.146962 0.0175224 0.00728491
0.152929 0.016962 0.00742994
0.147306 0.0185649 0.00699488
0.14092 0.016914 0.00741161
0.153211 0.0170543 0.00744591
0.147396 0.0187127 0.00685301
0.146975 0.0178095 0.00779428
0.152868 0.0166823 0.00751687
0.147175 0.0185117 0.00700849
0.140982 0.0172026 0.00735467
0.140887 0.0171705 0.00735624
0.147507 0.01841 0.00701838
0.147097 0.0181623 0.00704015
0.140846 0.0169785 0.00739435
0.147868 0.0188577 0.00681312
0.15303 0.0173933 0.00750039
0.147351 0.0180906 0.00706997
0.147077 0.0180696 0.00707225
0.147039 0.0178847 0.00713627
0.140667 0.0163443 0.00795832
0.140735 0.0165301 0.00773274
0.140646 0.0162823 0.00803391
0.14733 0.0189254 0.00687436
0.140688 0.0164063 0.00788273
0.140808 0.0167866 0.0074352
0.147436 0.0185058 0.0069672
0.147116 0.0182551 0.00700805
0.141118 0.017427 0.00731511
0.146944 0.0174432 0.00734319
0.152875 0.0171179 0.00737886
0.140968 0.0175548 0.00728035
0.140962 0.0171065 0.00737363
0.14079 0.0167166 0.00750453
0.147968 0.0188635 0.0068115
0.147449 0.0181215 0.00706096
0.14725 0.0183524 0.00706217
0.14725 0.0184736 0.00693404
0.140988 0.017651 0.00726132
0.14731 0.0183197 0.00698899
0.14702 0.017792 0.00716837
0.140771 0.0166543 0.00758038
0.147623 0.0184519 0.00694852
0.140908 0.0172665 0.00733729
0.147324 0.0186469 0.00687473
0.147095 0.0177304 0.00719132
0.147174 0.0185348 0.0069112
0.147152 0.0183102 0.00708325
0.152916 0.0173182 0.00739231
0.147525 0.01847 0.00694038
0.141027 0.0178434 0.00722326
0.146981 0.0176083 0.00723742
0.141007 0.0177472 0.00724229
0.147134 0.0179158 0.00712714
0.147193 0.0186275 0.00687911
0.147157 0.0184263 0.00705713
0.147573 0.0182503 0.00701816
0.140826 0.0168825 0.00741309
0.141073 0.0176007 0.00727639
0.140941 0.01701 0.00739266
0.140709 0.0164682 0.00780714
0.147171 0.0181044 0.00707313
0.147249 0.0180422 0.00708501
0.147193 0.0185158 0.00710687
0.147383 0.0181918 0.00703513
0.147264 0.0181359 0.00705249
0.146809 0.016923 0.00776877
0.14727 0.0190006 0.00690036
0.147154 0.0184375 0.0069449
0.14816 0.0189069 0.00682195
0.147403 0.0182861 0.00700249
0.147 0.0176993 0.00720048
0.141003 0.0172987 0.0073357
0.147059 0.0179796 0.0071114
0.153219 0.0175132 0.00745863
0.140752 0.0165921 0.00765611
0.140948 0.0174587 0.00729934
0.152933 0.0174164 0.00739792

VERTICES 273 546
1 0
1 1
1 2
1 3
1 4
1 5
1 6
1 7
1 8
1 9
1 10
1 11
1 12
1 13
1 14
1 15
1 16
1 17
1 18
1 19
1 20
1 21
1 22
1 23
1 24
1 25
1 26
1 27
1 28
1 29
1 30
1 31
1 32
1 33
1 34
1 35
1 36
1 37
1 38
1 39
1 40
1 41
1 42
1 43
1 44
1 45
1 46
1 47
1 48
1 49
1 50
1 51
1 52
1 53
1 54
1 55
1 56
1 57
1 58
1 59
1 60
1 61
1 62
1 63
1 64
1 65
1 66
1 67
1 68
1 69
1 70
1 71
1 72
1 73
1 74
1 75
1 76
1 77
1 78
1 79
1 80
1 81
1 82
1 83
1 84
1 85
1 86
1 87
1 88
1 89
1 90
1 91
1 92
1 93
1 94
1 95
1 96
1 97
1 98
1 99
1 100
1 101
1 102
1 103
1 104
1 105
1 106
1 107
1 108
1 109
1 110
1 111
1 112
1 113
1 114
1 115
1 116
1 117
1 118
1 119
1 120
1 121
1 122
1 123
1 124
1 125
1 126
1 127
1 128
1 129
1 130
1 131
1 132
1 133
1 134
1 135
1 136
1 137
1 138
1 139
1 140
1 141
1 142
1 143
1 144
1 145
1 146
1 147
1 148
1 149
1 150
1 151
1 152
1 153
1 154
1 155
1 156
1 157
1 158
1 159
1 160
1 161
1 162
1 163
1 164
1 165
1 166
1 167
1 168
1 169
1 170
1 171
1 172
1 173
1 174
1 175
1 176
1 177
1 178
1 179
1 180
1 181
1 182
1 183
1 184
1 185
1 186
1 187
1 188
1 189
1 190
1 191
1 192
1 193
1 194
1 195
1 196
1 197
1 198
1 199
1 200
1 201
1 202
1 203
1 204
1 205
1 206
1 207
1 208
1 209
1 210
1 211
1 212
1 213
1 214
1 215
1 216
1 217
1 218
1 219
1 220
1 221
1 222
1 223
1 224
1 225
1 226
1 227
1 228
1 229
1 230
1 231
1 232
1 233
1 234
1 235
1 236
1 237
1 238
1 239
1 240
1 241
1 242
1 243
1 244
1 245
1 246
1 247
1 248
1 249
1 250
1 251
1 252
1 253
1 254
1 255
1 256
1 257
1 258
1 259
1 260
1 261
1 262
1 263
1 264
1 265
1 266
1 267
1 268
1 269
1 270
1 271
1 272

POINT_DATA 273
SCALARS id int 1
LOOKUP_TABLE default
1
2
3
4
5
6
7
8
9
10
11
12
13
14
15
16
17
19
21
22
23
24
25
26
27
28
29
30
31
32
33
34
35
36
37
38
39
41
42
44
45
47
48
50
51
52
53
54
55
56
57
59
61
62
63
64
65
66
67
68
69
70
71
72
73
74
76
77
78
79
80
81
82
83
84
85
86
87
88
89
90
91
92
93
94
95
96
97
98
99
100
101
102
103
104
105
106
107
108
109
110
111
112
113
114
115
116
117
118
119
120
121
122
123
124
125
126
127
128
129
131
132
133
134
135
136
137
138
140
141
142
143
144
147
148
149
150
151
153
154
155
156
157
158
159
160
162
164
165
166
168
169
170
171
172
173
174
175
177
178
179
181
182
183
184
186
187
188
189
190
191
192
193
194
195
196
197
198
199
201
202
203
204
205
206
207
208
209
210
211
212
213
214
215
216
217
218
219
220
221
222
223
224
225
226
227
228
229
230
231
232
234
235
236
237
239
240
241
242
244
246
247
248
249
250
251
252
253
254
255
256
257
258
259
261
262
263
264
265
266
267
268
269
270
271
272
273
274
275
276
277
278
279
280
282
283
284
285
286
287
288
289
290
291
292
293
294
295
296
297
298
299
300

SCALARS type int 1
LOOKUP_TABLE default
1
1
1
1
1
1
1
1
1
1
1
1
1
1
1
1
1
1
1
1
1
1
1
1
1
1
1
1
1
1
1
1
1
1
1
1
1
1
1
1
1
1
1
1
1
1
1
1
1
1
1
1
1
1
1
1
1
1
1
1
1
1
1
1
1
1
1
1
1
1
1
1
1
1
1
1
1
1
1
1
1
1
1
1
1
1
1
1
1
1
1
1
1
1
1
1
1
1
1
1
1
1
1
1
1
1
1
1
1
1
1
1
1
1
1
1
1
1
1
1
1
1
1
1
1
1
1
1
1
1
1
1
1
1
1
1
1
1
1
1
1
1
1
1
1
1
1
1
1
1
1
1
1
1
1
1
1
1
1
1
1
1
1
1
1
1
1
1
1
1
1
1
1
1
1
1
1
1
1
1
1
1
1
1
1
1
1
1
1
1
1
1
1
1
1
1
1
1
1
1
1
1
1
1
1
1
1
1
1
1
1
1
1
1
1
1
1
1
1
1
1
1
1
1
1
1
1
1
1
1
1
1
1
1
1
1
1
1
1
1
1
1
1
1
1
1
1
1
1
1
1
1
1
1
1
1
1
1
1
1
1
1
1
1
1
1
1
1
1
1
1
1
1

SCALARS radius float 1
LOOKUP_TABLE default
5e-05
5e-05
5e-05
5e-05
5e-05
5e-05
5e-05
5e-05
5e-05
5e-05
5e-05
5e-05
5e-05
5e-05
5e-05
5e-05
5e-05
5e-05
5e-05
5e-05
5e-05
5e-05
5e-05
5e-05
5e-05
5e-05
5e-05
5e-05
5e-05
5e-05
5e-05
5e-05
5e-05
5e-05
5e-05
5e-05
5e-05
5e-05
5e-05
5e-05
5e-05
5e-05
5e-05
5e-05
5e-05
5e-05
5e-05
5e-05
5e-05
5e-05
5e-05
5e-05
5e-05
5e-05
5e-05
5e-05
5e-05
5e-05
5e-05
5e-05
5e-05
5e-05
5e-05
5e-05
5e-05
5e-05
5e-05
5e-05
5e-05
5e-05
5e-05
5e-05
5e-05
5e-05
5e-05
5e-05
5e-05
5e-05
5e-05
5e-05
5e-05
5e-05
5e-05
5e-05
5e-05
5e-05
5e-05
5e-05
5e-05
5e-05
5e-05
5e-05
5e-05
5e-05
5e-05
5e-05
5e-05
5e-05
5e-05
5e-05
5e-05
5e-05
5e-05
5e-05
5e-05
5e-05
5e-05
5e-05
5e-05
5e-05
5e-05
5e-05
5e-05
5e-05
5e-05
5e-05
5e-05
5e-05
5e-05
5e-05
5e-05
5e-05
5e-05
5e-05
5e-05
5e-05
5e-05
5e-05
5e-05
5e-05
5e-05
5e-05
5e-05
5e-05
5e-05
5e-05
5e-05
5e-05
5e-05
5e-05
5e-05
5e-05
5e-05
5e-05
5e-05
5e-05
5e-05
5e-05
5e-05
5e-05
5e-05
5e-05
5e-05
5e-05
5e-05
5e-05
5e-05
5e-05
5e-05
5e-05
5e-05
5e-05
5e-05
5e-05
5e-05
5e-05
5e-05
5e-05
5e-05
5e-05
5e-05
5e-05
5e-05
5e-05
5e-05
5e-05
5e-05
5e-05
5e-05
5e-05
5e-05
5e-05
5e-05
5e-05
5e-05
5e-05
5e-05
5e-05
5e-05
5e-05
5e-05
5e-05
5e-05
5e-05
5e-05
5e-05
5e-05
5e-05
5e-05
5e-05
5e-05
5e-05
5e-05
5e-05
5e-05
5e-05
5e-05
5e-05
5e-05
5e-05
5e-05
5e-05
5e-05
5e-05
5e-05
5e-05
5e-05
5e-05
5e-05
5e-05
5e-05
5e-05
5e-05
5e-05
5e-05
5e-05
5e-05
5e-05
5e-05
5e-05
5e-05
5e-05
5e-05
5e-05
5e-05
5e-05
5e-05
5e-05
5e-05
5e-05
5e-05
5e-05
5e-05
5e-05
5e-05
5e-05
5e-05
5e-05
5e-05
5e-05
5e-05
5e-05
5e-05
5e-05
5e-05
5e-05
5e-05
5e-05
5e-05
5e-05
5e-05
5e-05
5e-05
5e-05
5e-05
5e-05
5e-05
5e-05
5e-05
5e-05
5e-05
5e-05
5e-05

SCALARS mass float 1
LOOKUP_TABLE default
1.46608e-10
1.46608e-10
1.46608e-10
1.46608e-10
1.46608e-10
1.46608e-10
1.46608e-10
1.46608e-10
1.46608e-10
1.46608e-10
1.46608e-10
1.46608e-10
1.46608e-10
1.46608e-10
1.46608e-10
1.46608e-10
1.46608e-10
1.46608e-10
1.46608e-10
1.46608e-10
1.46608e-10
1.46608e-10
1.46608e-10
1.46608e-10
1.46608e-10
1.46608e-10
1.46608e-10
1.46608e-10
1.46608e-10
1.46608e-10
1.46608e-10
1.46608e-10
1.46608e-10
1.46608e-10
1.46608e-10
1.46608e-10
1.46608e-10
1.46608e-10
1.46608e-10
1.46608e-10
1.46608e-10
1.46608e-10
1.46608e-10
1.46608e-10
1.46608e-10
1.46608e-10
1.46608e-10
1.46608e-10
1.46608e-10
1.46608e-10
1.46608e-10
1.46608e-10
1.46608e-10
1.46608e-10
1.46608e-10
1.46608e-10
1.46608e-10
1.46608e-10
1.46608e-10
1.46608e-10
1.46608e-10
1.46608e-10
1.46608e-10
1.46608e-10
1.46608e-10
1.46608e-10
1.46608e-10
1.46608e-10
1.46608e-10
1.46608e-10
1.46608e-10
1.46608e-10
1.46608e-10
1.46608e-10
1.46608e-10
1.46608e-10
1.46608e-10
1.46608e-10
1.46608e-10
1.46608e-10
1.46608e-10
1.46608e-10
1.46608e-10
1.46608e-10
1.46608e-10
1.46608e-10
1.46608e-10
1.46608e-10
1.46608e-10
1.46608e-10
1.46608e-10
1.46608e-10
1.46608e-10
1.46608e-10
1.46608e-10
1.46608e-10
1.46608e-10
1.46608e-10
1.46608e-10
1.46608e-10
1.46608e-10
1.46608e-10
1.46608e-10
1.46608e-10
1.46608e-10
1.46608e-10
1.46608e-10
1.46608e-10
1.46608e-10
1.46608e-10
1.46608e-10
1.46608e-10
1.46608e-10
1.46608e-10
1.46608e-10
1.46608e-10
1.46608e-10
1.46608e-10
1.46608e-10
1.46608e-10
1.46608e-10
1.46608e-10
1.46608e-10
1.46608e-10
1.46608e-10
1.46608e-10
1.46608e-10
1.46608e-10
1.46608e-10
1.46608e-10
1.46608e-10
1.46608e-10
1.46608e-10
1.46608e-10
1.46608e-10
1.46608e-10
1.46608e-10
1.46608e-10
1.46608e-10
1.46608e-10
1.46608e-10
1.46608e-10
1.46608e-10
1.46608e-10
1.46608e-10
1.46608e-10
1.46608e-10
1.46608e-10
1.46608e-10
1.46608e-10
1.46608e-10
1.46608e-10
1.46608e-10
1.46608e-10
1.46608e-10
1.46608e-10
1.46608e-10
1.46608e-10
1.46608e-10
1.46608e-10
1.46608e-10
1.46608e-10
1.46608e-10
1.46608e-10
1.46608e-10
1.46608e-10
1.46608e-10
1.46608e-10
1.46608e-10
1.46608e-10
1.46608e-10
1.46608e-10
1.46608e-10
1.46608e-10
1.46608e-10
1.46608e-10
1.46608e-10
1.46608e-10
1.46608e-10
1.46608e-10
1.46608e-10
1.46608e-10
1.46608e-10
1.46608e-10
1.46608e-10
1.46608e-10
1.46608e-10
1.46608e-10
1.46608e-10
1.46608e-10
1.46608e-10
1.46608e-10
1.46608e-10
1.46608e-10
1.46608e-10
1.46608e-10
1.46608e-10
1.46608e-10
1.46608e-10
1.46608e-10
1.46608e-10
1.46608e-10
1.46608e-10
1.46608e-10
1.46608e-10
1.46608e-10
1.46608e-10
1.46608e-10
1.46608e-10
1.46608e-10
1.46608e-10
1.46608e-10
1.46608e-10
1.46608e-10
1.46608e-10
1.46608e-10
1.46608e-10
1.46608e-10
1.46608e-10
1.46608e-10
1.46608e-10
1.46608e-10
1.46608e-10
1.46608e-10
1.46608e-10
1.46608e-10
1.46608e-10
1.46608e-10
1.46608e-10
1.46608e-10
1.46608e-10
1.46608e-10
1.46608e-10
1.46608e-10
1.46608e-10
1.46608e-10
1.46608e-10
1.46608e-10
1.46608e-10
1.46608e-10
1.46608e-10
1.46608e-10
1.46608e-10
1.46608e-10
1.46608e-10
1.46608e-10
1.46608e-10
1.46608e-10
1.46608e-10
1.46608e-10
1.46608e-10
1.46608e-10
1.46608e-10
1.46608e-10
1.46608e-10
1.46608e-10
1.46608e-10
1.46608e-10
1.46608e-10
1.46608e-10
1.46608e-10
1.46608e-10
1.46608e-10
1.46608e-10
1.46608e-10
1.46608e-10
1.46608e-10
1.46608e-10
1.46608e-10
1.46608e-10
1.46608e-10
1.46608e-10
1.46608e-10

VECTORS velocity float
0.00520401 -0.000644197 0.00114988
0.00525556 -0.00194272 0.00102591
0.00529454 -0.0010165 0.000453648
0.00563047 -0.00121341 0.00178578
0.00518686 -0.000660679 0.00117693
0.00645934 0.00117243 -0.00087356
0.00559116 -0.000656836 0.00125321
0.00519923 -0.000665976 0.0011832
0.00607545 0.00124998 -0.000891655
0.00564106 -0.00205879 0.00111721
0.00522629 -0.00226023 0.0010162
0.00557353 -0.00139794 -0.000264903
0.00587439 -0.000682523 0.00122718
0.00356801 0.000277181 -2.92315e-05
0.00582262 -0.00113405 0.00206735
0.0050834 -0.000150469 0.000148197
0.00538251 -0.00207508 0.000578288
0.00521057 -0.000652635 0.00116234
0.00581423 -0.00212384 0.00113314
0.00563158 -0.00185548 0.000496414
0.00560956 -0.00141509 -0.000261435
0.00590868 0.00126553 -0.000890741
0.00616285 -0.00118833 0.00212041
0.00602303 0.00126306 -0.000895314
0.00527068 -0.00101188 0.000451505
0.00523853 -0.00192215 0.00104058
0.00558784 -0.000670215 0.00128437
0.00563104 -0.00201569 0.00110982
0.00606022 -0.00117009 0.00208773
0.00610643 -0.00116662 0.00207606
0.00606927 0.00125575 -0.000894092
0.00552387 -0.000645918 0.00119335
0.00565823 -0.000709005 0.00133335
0.00585826 0.00126931 -0.000890442
0.00567939 -0.00193159 0.00112316
0.00543774 -0.0023938 0.00105234
0.00624869 0.00264742 -0.0015648
0.00522696 -0.00206725 0.00058064
4.59257e-16 2.25519e-15 8.4636e-14
0.00511672 -0.00193022 0.000994509
0.0059716 0.00127608 -0.000898998
0.00532024 -0.000634804 0.00113628
0.00552819 -0.00221238 0.00107466
0.00579251 -0.000650902 0.00132949
0.00579093 -0.000704838 0.00134535
0.00553828 -0.00138038 -0.000271594
0.00607509 0.00125014 -0.000891714
0.00575265 -0.00187824 -0.000149814
0.00551398 -0.00138483 -0.000260321
0.00571548 -0.0020475 -0.000145324
0.00599685 0.00126956 -0.00089713
0.00527987 -0.00213513 0.000601919
0.00558561 -0.000684024 0.00130026
0.00540964 -0.00232629 0.00104748
0.00604329 -0.000958845 0.00216787
0.00589723 0.00125832 -0.000886955
0.00562163 -0.00141133 -0.000261001
0.00549834 -0.0013796 -0.000260872
0.00534648 -0.00212999 0.00103644
0.00521465 -0.00194553 0.000979714
0.00577453 -0.00183757 -0.000153466
0.00604928 0.00125677 -0.00089361
0.0055232 -0.0013813 -0.000264364
0.00559079 -0.00227585 0.00108685
0.00576059 -0.00187636 -0.000165645
0.00523594 -0.00225675 0.00101484
0.0053449 -0.000943184 0.000429362
0.00520674 -0.00222773 0.000637485
0.00324321 8.75165e-07 6.00519e-05
0.00554381 -0.0013864 -0.000264902
0.00521425 -0.0020054 0.00101603
0.0052478 -0.000856354 0.000396608
0.00557514 -0.00139909 -0.000262403
0.00362369 0.00107295 0.000304595
0.00583728 0.00129407 -0.000900861
0.00533126 -0.00103643 0.000461289
0.00506304 -0.00201739 0.000994906
0.00526687 -0.00226938 0.00101939
0.00532424 -0.00227947 0.000990158
0.00558974 -0.00217715 0.00108899
0.00515243 -0.00206176 0.000997084
0.00528873 -0.00104248 0.000462629
0.00587236 -0.0021471 0.00114746
0.00536308 -0.00219012 0.000639592
0.0056471 -0.002141 0.00110072
0.00515606 -0.00207656 0.00103439
0.00532092 -0.00212248 0.000779946
0.00520157 -0.000953805 0.000430411
0.00510955 -0.00206785 0.000994479
0.00562412 -0.00141522 -0.000263554
0.00581789 -0.00220785 0.00113282
0.00555686 -0.0013945 -0.000260861
4.27652e-15 1.04876e-14 8.2961e-14
1.19201e-22 -1.45003e-21 -1.99196e-21
0.00527335 -0.000833724 0.000388239
0.00520223 -0.000999127 0.000445657
0.00526922 -0.00100376 0.000448141
0.0052204 -0.000975597 0.00043897
0.00553481 -0.00206695 -0.000130321
0.00574854 -0.000711597 0.00135915
0.0052658 -0.0021809 0.000683626
0.00535812 -0.00201986 0.00103768
0.00542791 -0.00089071 0.000412374
0.00538392 -0.000985198 0.000443314
0.00357907 0.000288512 -2.51634e-05
0.00522875 -0.00216374 0.000649379
0.00552158 -0.0020205 0.00107714
0.00529937 -0.00241655 0.00102708
-9.97614e-16 1.02473e-14 -2.44581e-14
0.00587678 -0.00115072 0.00206582
0.00569429 -0.000726582 0.00136881
0.00543229 -0.000633156 0.00114057
0.00525379 -0.002176 0.000712271
0.00559217 -0.000336914 6.49107e-05
0.00602125 -0.00119795 0.00230563
0.00543467 -0.00259294 0.00104665
0.00572239 -0.000718385 0.00136904
0.00525853 -0.000976438 0.000438996
0.00585382 -0.000630341 0.00134787
0.00528045 -0.00199578 0.000983028
0.00525621 -0.00102732 0.000456988
0.00522102 -0.00216049 0.0010493
0.0060521 -0.00215234 0.00107319
0.00629178 -0.00115045 0.00205569
0.00538288 -0.000644342 0.00115346
0.00355956 0.000271329 -2.97342e-05
0.00521511 -0.00222326 0.00063779
0.00559103 -0.00200613 0.00108671
0.0051771 -0.0020815 0.00093439
0.0039197 0.000895525 0.000216794
0.00538431 -0.000907124 0.000432644
0.00551727 -0.00138479 -0.000258509
-1.00009e-15 1.02509e-14 -2.44564e-14
0.00539182 -0.000791865 0.000376747
0.00562369 -0.00141762 -0.000260063
0.0051129 -0.00200205 0.000981347
8.38418e-15 1.24769e-15 -8.48744e-14
0.00544256 -0.00102604 0.000460071
0.00549536 -0.000846071 0.000397772
9.39744e-15 -9.7317e-14 2.32273e-13
0.0056243 -0.00141988 -0.000257955
0.00543067 -0.0010766 -0.000643074
-3.83246e-14 8.16676e-14 2.95888e-13
0.00534563 -0.000869424 0.000402185
0.00563799 -0.00238435 0.00109462
0.00411175 0.000798345 0.000170446
0.00387902 0.000572848 0.000302443
0.00531871 -0.00097294 0.000438778
0.00544634 -0.00102185 0.000457808
0.0056036 -0.00196989 -0.000141509
0.0053045 -0.000995167 0.000446223
0.00540748 -0.000960062 0.000436735
0.005306 -0.00102206 0.00045567
0.00554885 -0.0020273 0.00108353
0.00546091 -0.000991391 0.000451963
0.00550983 -0.00230505 0.00107074
0.00525313 -0.000979498 0.000439782
0.00566802 -0.00050345 0.000410485
0.00536096 -0.000983441 0.000440607
0.00537772 -0.00100923 0.000452333
0.00544235 -0.00101795 0.000456598
0.00541665 -0.000935427 0.000429273
0.00558519 -0.00203861 0.0010961
0.00529646 -0.00101244 0.000452159
0.00537351 -0.00209954 0.00104888
0.00543369 -0.000982843 0.00044643
0.00584375 -0.00215953 0.00113865
0.00570432 -0.00147149 0.00201937
0.00575695 -0.00214437 0.00112364
0.00544766 -0.000394355 0.000375451
0.00523232 -0.00222051 0.0006198
0.00530805 -0.00087978 0.000406106
0.00608816 -0.0011899 0.00211694
1.58406e-15 -1.10042e-14 8.66685e-14
0.00544911 -0.000983707 0.000443047
0.00520785 -0.000947314 0.000426042
0.00537945 -0.000432039 0.000379816
0.00356341 0.000269029 -2.88446e-05
0.00358776 0.000278138 -3.08901e-05
0.00541325 -0.00097784 0.000444077
0.00540038 -0.000997271 0.000448656
0.00526333 -0.00220179 0.000621512
0.00554253 -0.00138213 -0.000270067
0.0053199 -0.000868528 0.000402255
0.00526722 -0.00096134 0.00043476
0.00562578 -0.00141616 -0.000262415
0.00538579 -0.0010281 0.000494978
-5.15013e-16 -2.42458e-15 7.0763e-15
0.00585511 -0.00216885 0.00114309
0.00566734 -0.00214818 0.00111253
0.00542662 -0.000900829 0.000415231
0.00566627 -0.00199004 0.00111133
0.00521119 -0.00211646 0.000993512
0.00545623 -0.000405672 0.000378218
0.0054712 -0.00106193 0.000428067
0.00569299 -0.00187644 -0.000155274
0.0052677 -0.00116705 -4.1152e-05
0.00523572 -0.00206361 0.000891514
0.00543133 -0.00103854 0.000463872
0.00567062 -0.000501211 0.000410103
0.00511731 -0.00212442 0.000995029
0.0053691 -0.000914799 0.000416843
-0.0117288 -0.00279115 0.00241588
0.00527791 -0.00221719 0.00057032
0.00543598 -0.000973355 0.000461362
0.00567627 -0.000475581 0.000404874
0.0056597 -0.000496091 0.000406709
0.00544661 -0.000887708 0.000451899
0.00535237 -0.000954827 0.000433556
0.00566822 -0.000505647 0.000410345
0.00355775 0.00075449 0.000172712
0.00549449 -0.00217989 0.00107797
0.00533713 -0.00102744 0.000458323
0.00532869 -0.00095698 0.000433535
0.00526559 -0.000944786 0.000427984
0.00592806 -0.000677352 0.000155334
0.00603773 -0.000571741 -5.81634e-05
0.00586678 -0.00069517 0.000181196
0.00616097 0.000345759 -0.000942458
0.00593364 -0.000627814 9.49803e-05
0.00573848 -0.000611789 -0.00014167
0.00545532 -0.000981748 0.000440824
0.00537884 -0.000955987 0.000434069
0.00546023 -0.000368622 0.000370816
0.00548758 -0.00133748 -0.000204534
0.00524145 -0.00215158 0.00101361
0.00541816 -0.000425173 0.000380177
0.00569639 -0.000471354 0.000404842
0.00587918 -0.000520661 -4.56589e-05
0.00357669 0.000428556 3.53447e-05
0.00537494 -0.00102946 0.000459651
0.00538728 -0.00101845 0.000444918
0.00544752 -0.00100156 0.000450449
0.00527981 -0.000395467 0.000366388
0.00540498 -0.00101283 0.000454047
0.00523575 -0.000937307 0.00042523
0.00602834 -0.000514782 -3.12764e-05
0.00548008 -0.00087736 0.000408407
0.00564828 -0.000489771 0.00040517
0.00543717 -0.000980381 0.000444232
0.00523906 -0.000954039 0.000429961
0.00542996 -0.00101067 0.000453539
0.00540162 -0.000972337 0.000434427
0.00518325 -0.00207563 0.00100559
0.00547298 -0.000925529 0.000424755
0.00531487 -0.000359927 0.00036088
0.00519574 -0.00100004 0.000234237
0.00530235 -0.000384482 0.000365954
0.0052931 -0.00096819 0.000436814
0.00545782 -0.00101051 0.00045532
0.00542511 -0.000974277 0.000444076
0.00532786 -0.000890926 0.000410748
0.00569021 -0.00050195 0.000401817
0.00527991 -0.000397558 0.000367217
0.00566525 -0.000521374 0.000413226
0.00594029 -0.000562087 1.95422e-05
0.00533746 -0.000978342 0.000441413
0.00532156 -0.00099879 0.000447789
0.00543197 -0.00101495 0.000465741
0.00537292 -0.00102722 0.000458533
0.00534815 -0.00100218 0.000448901
0.00558646 -0.00140264 -0.000260727
0.00626945 0.000949485 -0.00246637
0.00542378 -0.00095484 0.000436853
0.00358037 0.000292217 -2.37736e-05
0.00539578 -0.00105137 0.000467937
0.0052171 -0.000930567 0.00042155
0.00538991 -0.000409871 0.000375814
0.00530267 -0.000953396 0.000431828
0.00546606 -0.00237897 0.00105828
0.00610605 -0.000522781 -3.8024e-05
0.00541855 -0.000429542 0.000381622
0.00534606 -0.0020933 0.00104943

VECTORS force float
-3.36129e-10 -2.58603e-10 2.89393e-10
-1.32662e-10 -1.69777e-10 -1.33516e-10
-1.38095e-11 2.67933e-11 -8.58707e-12
-2.84097e-10 -6.81374e-10 -1.59677e-10
-4.92919e-10 -1.85058e-10 3.71549e-10
-1.09068e-11 -9.27712e-12 8.20346e-12
5.03955e-11 3.27792e-12 -2.95764e-10
-6.79981e-10 -1.43175e-10 3.48193e-10
6.99446e-12 -7.06954e-12 3.1287e-12
-1.42863e-10 1.72896e-10 -2.8173e-11
-2.94124e-10 -1.1536e-10 -7.25324e-11
-6.67049e-11 -8.20969e-11 2.08859e-11
-2.79103e-11 1.0703e-10 -1.66128e-10
8.78084e-11 6.90433e-12 2.25034e-12
4.67609e-12 2.52009e-11 -2.84751e-10
-7.86054e-11 -6.49082e-11 1.56681e-11
-7.47444e-12 3.38786e-10 1.03054e-10
-4.63747e-10 -1.58042e-10 2.73942e-10
6.31971e-11 -4.72383e-11 -1.19679e-12
-2.96103e-10 -4.80167e-10 2.35453e-10
-6.95871e-11 -1.67486e-11 9.86444e-11
4.76721e-13 7.20872e-11 -3.10749e-11
-1.90572e-10 4.44969e-10 -6.29094e-10
2.94743e-12 6.53997e-12 -3.28486e-12
-2.7235e-11 4.15727e-12 -1.32794e-12
-5.9494e-11 4.78585e-10 5.18823e-10
4.15825e-10 8.8899e-11 -1.11542e-10
2.42622e-10 4.16244e-10 -3.03199e-11
3.42285e-10 1.11957e-10 -2.42231e-10
1.54108e-10 -8.87436e-11 -4.07893e-11
-1.07738e-10 1.76807e-11 -5.2044e-12
2.60677e-10 5.69545e-11 -2.30192e-10
1.0577e-10 1.5898e-10 5.44344e-11
-8.49325e-11 1.05307e-10 -6.06889e-11
3.19783e-10 -3.89887e-12 4.7562e-11
-5.60457e-10 -2.95891e-10 -1.33729e-10
5.29997e-12 -8.61646e-11 4.05574e-11
-2.80144e-10 1.66518e-10 -5.43123e-11
-6.53182e-24 -5.62224e-25 2.06795e-25
-1.94495e-10 -5.83801e-12 -1.68027e-11
-1.06141e-11 -6.21765e-12 3.31985e-12
-1.08323e-09 -8.84763e-11 1.41109e-10
2.68379e-10 1.74079e-10 6.44959e-11
1.12276e-10 -1.70807e-10 -3.30363e-10
1.95068e-10 1.2791e-11 -5.13025e-10
-1.43239e-10 1.80699e-11 5.68138e-11
3.71621e-12 1.79597e-12 -1.04159e-12
1.32279e-10 -4.4548e-11 1.02177e-11
4.31444e-11 -2.41638e-12 -9.12929e-11
1.2271e-10 -3.9638e-11 -8.09896e-11
1.40936e-12 1.65421e-12 -9.04161e-13
-5.34226e-10 5.32078e-10 3.01327e-11
2.56147e-10 2.54181e-10 -1.68367e-11
3.375e-10 3.39308e-10 4.15095e-11
1.1277e-10 -4.9029e-10 1.4862e-11
6.38329e-12 3.80706e-12 -1.21805e-12
5.96229e-11 -1.16246e-10 -4.9342e-11
-7.13932e-11 5.35621e-11 -1.40536e-11
-5.33328e-11 6.90883e-10 -8.17277e-11
-3.40151e-10 -3.83492e-10 -1.34605e-10
1.69125e-10 1.13207e-11 1.92569e-10
4.40329e-12 4.63794e-12 -2.34959e-12
-1.32841e-10 2.25472e-11 6.05525e-12
1.86708e-10 -2.46615e-11 4.86015e-11
-6.98848e-11 5.84142e-11 9.09039e-11
-2.50904e-10 1.8363e-11 -1.70268e-10
-8.81325e-11 6.81342e-11 -1.92573e-11
8.2945e-11 1.13635e-10 -3.48448e-11
-5.59367e-11 2.42658e-11 -1.45066e-11
2.64029e-13 -7.89718e-11 3.02497e-11
-4.18264e-10 1.63704e-10 -2.24067e-10
-6.03881e-11 7.42106e-11 -2.68064e-11
6.04324e-11 -6.87303e-11 1.9583e-11
-1.7038e-10 -3.96362e-11 -2.13302e-11
2.05657e-11 -2.4149e-11 1.42571e-11
6.20443e-12 2.84817e-11 -1.18484e-11
-1.34903e-10 2.02399e-10 1.01741e-11
2.86234e-09 -2.70365e-09 5.29019e-10
-6.6368e-11 1.47575e-12 5.74399e-11
-2.98444e-11 6.86878e-10 -1.22203e-11
-2.60094e-10 -2.13043e-10 -3.52419e-11
-3.56075e-11 2.45155e-11 -1.03871e-11
1.99902e-10 3.77363e-10 8.48118e-11
5.17865e-10 1.24495e-11 -2.32077e-10
-2.77418e-10 -3.1235e-10 -1.16846e-11
-2.86331e-10 3.22625e-10 -2.14582e-10
3.77145e-10 2.68774e-11 -7.41773e-10
8.62677e-11 -2.89178e-11 1.66303e-12
-3.07351e-10 3.55987e-10 9.53641e-11
4.72308e-11 3.32585e-11 1.21148e-10
-9.84061e-12 5.36284e-10 5.01428e-11
-5.48342e-11 -7.2352e-11 5.41373e-11
2.52316e-21 -8.69703e-22 -4.96308e-24
0.0 2.58494e-26 0.0
-2.02874e-10 5.07404e-11 -3.7651e-11
-1.13942e-11 -3.89209e-11 1.18758e-11
-4.88936e-11 1.19069e-11 -7.35744e-12
3.29321e-11 -1.89239e-11 3.07558e-11
-1.42406e-12 -1.11283e-11 -4.57312e-13
5.05479e-10 2.95606e-10 -3.4365e-10
1.00504e-10 -1.44877e-10 -9.57263e-11
-5.81852e-11 -5.33346e-11 -1.97218e-10
8.06114e-12 9.4555e-12 2.31927e-12
-1.45137e-11 9.36446e-11 -3.0414e-11
2.12097e-11 -1.31201e-11 6.90959e-12
-6.01301e-10 -1.01722e-10 -8.82175e-10
6.06342e-11 3.12376e-10 2.04423e-11
4.48065e-10 -7.2818e-10 6.2805e-11