# vtk DataFile Version 3.0
LIGGGHTS particles timestep 35800000
ASCII
DATASET POLYDATA
POINTS 271 float
0.221156 0.0154729 0.00911943
0.22201 0.0177893 0.00709246
0.21616 0.0176498 0.00706436
0.22209 0.0176843 0.00710451
0.221135 0.0154146 0.00919783
0.227682 0.017217 0.00749341
0.221243 0.0157088 0.00880824
0.221113 0.015355 0.00927506
0.227807 0.0177391 0.00722568
0.221706 0.0172579 0.00720371
0.221849 0.0174824 0.00714784
0.215256 0.0156758 0.00871828
0.221048 0.0151782 0.00950851
0.215935 0.0182811 0.00704834
0.222094 0.0175854 0.0071186
0.216035 0.0183199 0.00704464
0.22211 0.0177812 0.00708977
0.221091 0.0152961 0.00935287
0.221667 0.0171006 0.00732041
0.221851 0.0173316 0.00716453
0.215509 0.0162223 0.0082601
0.227891 0.0180871 0.0070472
0.221308 0.0158855 0.00857472
0.227766 0.0175651 0.00731492
0.216235 0.0180273 0.00697289
0.221994 0.0175935 0.00712128
0.221265 0.0157675 0.00873042
0.221791 0.0175065 0.00722874
0.22133 0.0159444 0.00849695
0.221797 0.0168782 0.00752242
0.227703 0.017304 0.00744878
0.221222 0.0156496 0.00888607
0.221936 0.0171819 0.00727151
0.22787 0.0180001 0.00709182
0.221877 0.0180226 0.00706397
0.222042 0.0183498 0.00701047
0.227912 0.0181741 0.00700258
0.222154 0.0178699 0.0070753
0.321436 0.0173475 0.00552525
0.22199 0.0176924 0.00710718
0.227724 0.0173911 0.00740416
0.221179 0.0155316 0.00904177
0.222021 0.0182533 0.0070252
0.221377 0.0160625 0.00834283
0.221351 0.0160054 0.00842067
0.215173 0.0153743 0.00896783
0.227849 0.0179131 0.00713644
0.221935 0.0179594 0.00712966
0.215111 0.0151481 0.009155
0.221899 0.0181191 0.00704923
0.227745 0.0174781 0.00735954
0.221806 0.0172508 0.00720185
0.221647 0.0166818 0.00767993
0.222168 0.0180422 0.00704991
0.22214 0.0174973 0.00712951
0.227933 0.0182611 0.00695796
0.215457 0.0163507 0.00815864
0.215091 0.0150727 0.00921739
0.221933 0.0178628 0.00708485
0.221836 0.0170282 0.0073962
0.22193 0.0180586 0.00714132
0.227787 0.0176521 0.0072703
0.215153 0.0152989 0.00903022
0.221813 0.0177357 0.0071078
0.221943 0.0183165 0.00701909
0.222001 0.0181563 0.00703992
0.216162 0.018093 0.00699155
0.221905 0.0172529 0.00720791
0.215915 0.0181842 0.00703451
0.215214 0.015525 0.00884305
0.222112 0.0179606 0.00706383
0.216055 0.0184167 0.00705949
0.215276 0.0157511 0.00865589
0.215974 0.0180279 0.00701503
0.227828 0.0178261 0.00718106
0.216176 0.0177336 0.0070122
0.222212 0.0179527 0.00706112
0.222121 0.0182879 0.00701637
0.221536 0.0165854 0.00776593
0.222099 0.0181913 0.00703111
0.22187 0.0175781 0.00712828
0.216217 0.0179279 0.00698626
0.221979 0.0180599 0.00705466
0.221418 0.0161798 0.00818622
0.221824 0.0174131 0.00721552
0.221756 0.0172414 0.00728869
0.221439 0.0162389 0.00810844
0.215576 0.0164474 0.00807347
0.221943 0.017514 0.00715455
0.215673 0.0168254 0.00776094
0.222075 0.0180887 0.00704682
0.215235 0.0156004 0.00878066
0.0643568 0.0187248 0.00531097
0.24257 0.0191927 0.00520306
0.215868 0.0175801 0.00713653
0.216291 0.0178619 0.00699839
0.216116 0.0174978 0.0071867
0.216097 0.0174229 0.00724998
0.221932 0.0181752 0.00712527
0.222116 0.0173996 0.0071445
0.22146 0.0163003 0.00803222
0.221755 0.017148 0.00732442
0.21593 0.0178318 0.00700872
0.215541 0.0166523 0.00790959
0.215894 0.0180856 0.0070281
0.22204 0.0175022 0.00713266
0.221903 0.0178638 0.0071804
0.221987 0.0185096 0.00698959
0.215734 0.0174066 0.00728541
0.221962 0.0173209 0.00716178
0.221286 0.0158265 0.0086526
0.221201 0.0155905 0.00896405
0.221729 0.0169815 0.00742812
0.215696 0.0172666 0.00742233
0.221746 0.0170568 0.00736442
0.222064 0.0184463 0.00699573
0.221667 0.0167568 0.00761688
0.216311 0.0179626 0.00698489
0.221706 0.0169068 0.00749065
0.22177 0.0175427 0.00713727
0.216138 0.0175722 0.00712367
0.221892 0.0176746 0.0071136
0.221726 0.0173487 0.0071669
0.221685 0.016832 0.0075535
0.221069 0.0152371 0.00943069
0.215955 0.0183779 0.00706325
0.221399 0.0161201 0.00826419
0.221858 0.017742 0.00719703
0.221917 0.0174091 0.00715085
0.215954 0.0179303 0.00700785
0.215676 0.0171881 0.00748087
0.215132 0.0152235 0.00909261
0.215792 0.0176341 0.00709897
0.216015 0.0182231 0.00702964
0.215768 0.0168465 0.00773845
0.221552 0.0166548 0.00769573
0.0100679 0.0201683 0.00551526
0.215636 0.0170304 0.00759653
0.215996 0.0185726 0.00709324
0.215753 0.0174822 0.00722292
0.215962 0.0172484 0.00740114
0.215909 0.017734 0.00700637
0.0219312 0.0187687 0.00551176
0.216143 0.0179949 0.00699206
0.222185 0.0181398 0.00703523
0.215773 0.0175578 0.00716043
0.216075 0.0185136 0.00707448
0.215636 0.0166739 0.00788608
0.215962 0.0176016 0.00711234
0.221921 0.0182156 0.00703449
0.215692 0.0169011 0.0076984
0.216129 0.0183525 0.00704026
0.216039 0.0175495 0.00714952
0.221785 0.0176056 0.00721652
0.215943 0.0175265 0.00717541
0.222055 0.0178786 0.00708936
0.21598 0.0173241 0.00733859
0.209647 0.0169974 0.00733348
0.215807 0.0169977 0.00761346
0.215731 0.0170523 0.0075734
0.215809 0.0173536 0.00732426
0.216089 0.0181581 0.0070103
0.221748 0.0174452 0.00715217
0.216019 0.0174746 0.00721281
0.22178 0.0173321 0.00725406
0.215617 0.0169547 0.00765903
0.221652 0.017037 0.00739611
0.221819 0.0169529 0.00745982
0.221916 0.0177713 0.00712156
0.209944 0.0183106 0.00695529
0.221844 0.017104 0.00733151
0.215925 0.0174511 0.00723853
0.222016 0.0174052 0.00714754
0.161461 0.0182058 0.00533758
0.216121 0.0178963 0.00698713
0.215532 0.0162972 0.00819796
0.209708 0.0172784 0.00725248
0.215976 0.0184747 0.00707816
0.215873 0.0179876 0.00702094
0.215521 0.0165765 0.00797168
0.216012 0.0177759 0.00704007
0.221481 0.0163615 0.00795598
0.215194 0.0154496 0.00890544
0.216078 0.0177037 0.00701929
0.215596 0.0165228 0.00801104
0.215712 0.0169765 0.00763596
0.215889 0.0176569 0.00707147
0.212598 0.0170255 0.00731406
0.221686 0.0171757 0.00725722
0.221631 0.0169696 0.00746678
0.216023 0.0178609 0.00698845
0.221856 0.0179261 0.00707871
0.221571 0.0167299 0.00763255
0.209925 0.0182163 0.00698252
0.215985 0.0176811 0.00705605
0.221965 0.0184131 0.00700433
0.215297 0.0158265 0.00859351
0.221513 0.0165054 0.00782152
0.216101 0.0177992 0.00700011
0.275604 0.0167738 0.00741912
0.222013 0.0179663 0.00706686
0.215848 0.0175056 0.00720038
0.0463767 0.0180718 0.00771917
0.22183 0.0171784 0.00726623
0.215656 0.0171059 0.00753403
0.20986 0.0179348 0.00706357
0.209667 0.0170914 0.00730639
0.216067 0.0180601 0.00699534
0.21548 0.0164257 0.00809649
0.209627 0.0169095 0.00737715
0.215854 0.0178947 0.00698882
0.221791 0.0176392 0.00712254
0.216064 0.017627 0.00708369
0.215434 0.0162758 0.00822077
0.21539 0.0161271 0.0083469
0.209471 0.0162861 0.00785018
0.209491 0.016362 0.00778801
0.209549 0.0165896 0.00760156
0.215714 0.017331 0.0073479
0.20951 0.0164379 0.00772587
0.209608 0.0168222 0.00742187
0.216257 0.018124 0.00698635
0.215501 0.0165009 0.00803415
0.209904 0.0181224 0.00700957
0.215788 0.0169221 0.00767595
0.221494 0.0164304 0.00788468
0.209752 0.0174658 0.00719856
0.209963 0.0184049 0.00692806
0.209588 0.0167414 0.00747723
0.215813 0.0177159 0.00704514
0.215904 0.0173758 0.00730089
0.215866 0.0172243 0.00742602
0.21577 0.0172034 0.00744841
0.209773 0.0175596 0.00717156
0.215577 0.0168036 0.007784
0.215363 0.0160519 0.00840674
0.209569 0.0166654 0.00753946
0.216016 0.0186694 0.00710815
0.209697 0.0171842 0.00728409
0.215828 0.0174292 0.00726176
0.215555 0.0163721 0.00813581
0.21556 0.0167277 0.00784666
0.215846 0.0171488 0.00748848
0.221591 0.0168138 0.00758187
0.216109 0.0182557 0.00702533
0.209817 0.0177472 0.00711757
0.215318 0.0159018 0.00853116
0.209795 0.0176533 0.00714458
0.215616 0.0165983 0.00794858
0.215597 0.0168792 0.00772151
0.215791 0.0172854 0.00739521
0.216184 0.0181897 0.00700576
0.209839 0.017841 0.00709057
0.209452 0.0162102 0.00791235
0.215655 0.0167496 0.00782354
0.216001 0.0173994 0.00727622
0.21605 0.0179625 0.00701068
0.215885 0.0173001 0.00736343
0.215827 0.0170733 0.00755097
0.215486 0.0161474 0.0083222
0.215994 0.0181258 0.00701823
0.215751 0.0171277 0.00751097
0.215833 0.017797 0.00699033
0.216196 0.017831 0.00699919
0.21534 0.015977 0.0084689
0.209882 0.0180286 0.00703657
0.215411 0.016201 0.00828288
0.221838 0.0178324 0.00710879
0.209529 0.0165138 0.0076637
0.209734 0.017372 0.0072285
0.221611 0.0169006 0.0075364

VERTICES 271 542
1 0
1 1
1 2
1 3
1 4
1 5
1 6
1 7
1 8
1 9
1 10
1 11
1 12
1 13
1 14
1 15
1 16
1 17
1 18
1 19
1 20
1 21
1 22
1 23
1 24
1 25
1 26
1 27
1 28
1 29
1 30
1 31
1 32
1 33
1 34
1 35
1 36
1 37
1 38
1 39
1 40
1 41
1 42
1 43
1 44
1 45
1 46
1 47
1 48
1 49
1 50
1 51
1 52
1 53
1 54
1 55
1 56
1 57
1 58
1 59
1 60
1 61
1 62
1 63
1 64
1 65
1 66
1 67
1 68
1 69
1 70
1 71
1 72
1 73
1 74
1 75
1 76
1 77
1 78
1 79
1 80
1 81
1 82
1 83
1 84
1 85
1 86
1 87
1 88
1 89
1 90
1 91
1 92
1 93
1 94
1 95
1 96
1 97
1 98
1 99
1 100
1 101
1 102
1 103
1 104
1 105
1 106
1 107
1 108
1 109
1 110
1 111
1 112
1 113
1 114
1 115
1 116
1 117
1 118
1 119
1 120
1 121
1 122
1 123
1 124
1 125
1 126
1 127
1 128
1 129
1 130
1 131
1 132
1 133
1 134
1 135
1 136
1 137
1 138
1 139
1 140
1 141
1 142
1 143
1 144
1 145
1 146
1 147
1 148
1 149
1 150
1 151
1 152
1 153
1 154
1 155
1 156
1 157
1 158
1 159
1 160
1 161
1 162
1 163
1 164
1 165
1 166
1 167
1 168
1 169
1 170
1 171
1 172
1 173
1 174
1 175
1 176
1 177
1 178
1 179
1 180
1 181
1 182
1 183
1 184
1 185
1 186
1 187
1 188
1 189
1 190
1 191
1 192
1 193
1 194
1 195
1 196
1 197
1 198
1 199
1 200
1 201
1 202
1 203
1 204
1 205
1 206
1 207
1 208
1 209
1 210
1 211
1 212
1 213
1 214
1 215
1 216
1 217
1 218
1 219
1 220
1 221
1 222
1 223
1 224
1 225
1 226
1 227
1 228
1 229
1 230
1 231
1 232
1 233
1 234
1 235
1 236
1 237
1 238
1 239
1 240
1 241
1 242
1 243
1 244
1 245
1 246
1 247
1 248
1 249
1 250
1 251
1 252
1 253
1 254
1 255
1 256
1 257
1 258
1 259
1 260
1 261
1 262
1 263
1 264
1 265
1 266
1 267
1 268
1 269
1 270

POINT_DATA 271
SCALARS id int 1
LOOKUP_TABLE default
1
2
3
4
5
6
7
8
9
10
11
12
13
14
15
16
17
19
21
22
23
24
25
26
27
28
29
30
31
32
33
34
35
36
37
38
39
41
42
44
45
47
48
50
51
52
53
54
55
56
57
59
61
62
63
64
65
66
67
68
69
70
71
72
73
74
76
77
78
79
80
81
82
83
84
85
86
87
88
89
90
91
92
93
94
95
96
97
98
99
100
101
102
103
104
105
106
107
108
109
110
111
112
113
114
115
116
117
118
119
120
121
122
123
124
125
126
127
128
129
131
132
133
134
135
136
137
138
140
141
142
143
144
147
148
149
150
151
153
154
155
156
157
158
159
160
162
164
165
166
168
169
170
171
172
173
174
175
177
178
179
181
182
183
184
186
187
188
189
190
191
192
193
194
195
196
197
198
199
201
202
203
204
205
206
207
208
209
210
211
212
213
214
215
216
217
218
219
220
221
222
223
224
225
226
227
228
229
230
231
232
234
235
236
237
239
240
241
242
244
246
247
248
249
250
251
252
253
254
255
256
257
258
259
261
262
263
264
265
266
267
268
269
270
271
272
273
274
275
276
277
278
280
283
284
285
286
287
288
289
290
291
292
293
294
295
296
297
298
299
300

SCALARS type int 1
LOOKUP_TABLE default
1
1
1
1
1
1
1
1
1
1
1
1
1
1
1
1
1
1
1
1
1
1
1
1
1
1
1
1
1
1
1
1
1
1
1
1
1
1
1
1
1
1
1
1
1
1
1
1
1
1
1
1
1
1
1
1
1
1
1
1
1
1
1
1
1
1
1
1
1
1
1
1
1
1
1
1
1
1
1
1
1
1
1
1
1
1
1
1
1
1
1
1
1
1
1
1
1
1
1
1
1
1
1
1
1
1
1
1
1
1
1
1
1
1
1
1
1
1
1
1
1
1
1
1
1
1
1
1
1
1
1
1
1
1
1
1
1
1
1
1
1
1
1
1
1
1
1
1
1
1
1
1
1
1
1
1
1
1
1
1
1
1
1
1
1
1
1
1
1
1
1
1
1
1
1
1
1
1
1
1
1
1
1
1
1
1
1
1
1
1
1
1
1
1
1
1
1
1
1
1
1
1
1
1
1
1
1
1
1
1
1
1
1
1
1
1
1
1
1
1
1
1
1
1
1
1
1
1
1
1
1
1
1
1
1
1
1
1
1
1
1
1
1
1
1
1
1
1
1
1
1
1
1
1
1
1
1
1
1
1
1
1
1
1
1
1
1
1
1
1
1

SCALARS radius float 1
LOOKUP_TABLE default
5e-05
5e-05
5e-05
5e-05
5e-05
5e-05
5e-05
5e-05
5e-05
5e-05
5e-05
5e-05
5e-05
5e-05
5e-05
5e-05
5e-05
5e-05
5e-05
5e-05
5e-05
5e-05
5e-05
5e-05
5e-05
5e-05
5e-05
5e-05
5e-05
5e-05
5e-05
5e-05
5e-05
5e-05
5e-05
5e-05
5e-05
5e-05
5e-05
5e-05
5e-05
5e-05
5e-05
5e-05
5e-05
5e-05
5e-05
5e-05
5e-05
5e-05
5e-05
5e-05
5e-05
5e-05
5e-05
5e-05
5e-05
5e-05
5e-05
5e-05
5e-05
5e-05
5e-05
5e-05
5e-05
5e-05
5e-05
5e-05
5e-05
5e-05
5e-05
5e-05
5e-05
5e-05
5e-05
5e-05
5e-05
5e-05
5e-05
5e-05
5e-05
5e-05
5e-05
5e-05
5e-05
5e-05
5e-05
5e-05
5e-05
5e-05
5e-05
5e-05
5e-05
5e-05
5e-05
5e-05
5e-05
5e-05
5e-05
5e-05
5e-05
5e-05
5e-05
5e-05
5e-05
5e-05
5e-05
5e-05
5e-05
5e-05
5e-05
5e-05
5e-05
5e-05
5e-05
5e-05
5e-05
5e-05
5e-05
5e-05
5e-05
5e-05
5e-05
5e-05
5e-05
5e-05
5e-05
5e-05
5e-05
5e-05
5e-05
5e-05
5e-05
5e-05
5e-05
5e-05
5e-05
5e-05
5e-05
5e-05
5e-05
5e-05
5e-05
5e-05
5e-05
5e-05
5e-05
5e-05
5e-05
5e-05
5e-05
5e-05
5e-05
5e-05
5e-05
5e-05
5e-05
5e-05
5e-05
5e-05
5e-05
5e-05
5e-05
5e-05
5e-05
5e-05
5e-05
5e-05
5e-05
5e-05
5e-05
5e-05
5e-05
5e-05
5e-05
5e-05
5e-05
5e-05
5e-05
5e-05
5e-05
5e-05
5e-05
5e-05
5e-05
5e-05
5e-05
5e-05
5e-05
5e-05
5e-05
5e-05
5e-05
5e-05
5e-05
5e-05
5e-05
5e-05
5e-05
5e-05
5e-05
5e-05
5e-05
5e-05
5e-05
5e-05
5e-05
5e-05
5e-05
5e-05
5e-05
5e-05
5e-05
5e-05
5e-05
5e-05
5e-05
5e-05
5e-05
5e-05
5e-05
5e-05
5e-05
5e-05
5e-05
5e-05
5e-05
5e-05
5e-05
5e-05
5e-05
5e-05
5e-05
5e-05
5e-05
5e-05
5e-05
5e-05
5e-05
5e-05
5e-05
5e-05
5e-05
5e-05
5e-05
5e-05
5e-05
5e-05
5e-05
5e-05
5e-05
5e-05
5e-05
5e-05
5e-05
5e-05
5e-05
5e-05
5e-05
5e-05
5e-05
5e-05
5e-05
5e-05
5e-05
5e-05
5e-05
5e-05
5e-05
5e-05
5e-05

SCALARS mass float 1
LOOKUP_TABLE default
1.46608e-10
1.46608e-10
1.46608e-10
1.46608e-10
1.46608e-10
1.46608e-10
1.46608e-10
1.46608e-10
1.46608e-10
1.46608e-10
1.46608e-10
1.46608e-10
1.46608e-10
1.46608e-10
1.46608e-10
1.46608e-10
1.46608e-10
1.46608e-10
1.46608e-10
1.46608e-10
1.46608e-10
1.46608e-10
1.46608e-10
1.46608e-10
1.46608e-10
1.46608e-10
1.46608e-10
1.46608e-10
1.46608e-10
1.46608e-10
1.46608e-10
1.46608e-10
1.46608e-10
1.46608e-10
1.46608e-10
1.46608e-10
1.46608e-10
1.46608e-10
1.46608e-10
1.46608e-10
1.46608e-10
1.46608e-10
1.46608e-10
1.46608e-10
1.46608e-10
1.46608e-10
1.46608e-10
1.46608e-10
1.46608e-10
1.46608e-10
1.46608e-10
1.46608e-10
1.46608e-10
1.46608e-10
1.46608e-10
1.46608e-10
1.46608e-10
1.46608e-10
1.46608e-10
1.46608e-10
1.46608e-10
1.46608e-10
1.46608e-10
1.46608e-10
1.46608e-10
1.46608e-10
1.46608e-10
1.46608e-10
1.46608e-10
1.46608e-10
1.46608e-10
1.46608e-10
1.46608e-10
1.46608e-10
1.46608e-10
1.46608e-10
1.46608e-10
1.46608e-10
1.46608e-10
1.46608e-10
1.46608e-10
1.46608e-10
1.46608e-10
1.46608e-10
1.46608e-10
1.46608e-10
1.46608e-10
1.46608e-10
1.46608e-10
1.46608e-10
1.46608e-10
1.46608e-10
1.46608e-10
1.46608e-10
1.46608e-10
1.46608e-10
1.46608e-10
1.46608e-10
1.46608e-10
1.46608e-10
1.46608e-10
1.46608e-10
1.46608e-10
1.46608e-10
1.46608e-10
1.46608e-10
1.46608e-10
1.46608e-10
1.46608e-10
1.46608e-10
1.46608e-10
1.46608e-10
1.46608e-10
1.46608e-10
1.46608e-10
1.46608e-10
1.46608e-10
1.46608e-10
1.46608e-10
1.46608e-10
1.46608e-10
1.46608e-10
1.46608e-10
1.46608e-10
1.46608e-10
1.46608e-10
1.46608e-10
1.46608e-10
1.46608e-10
1.46608e-10
1.46608e-10
1.46608e-10
1.46608e-10
1.46608e-10
1.46608e-10
1.46608e-10
1.46608e-10
1.46608e-10
1.46608e-10
1.46608e-10
1.46608e-10
1.46608e-10
1.46608e-10
1.46608e-10
1.46608e-10
1.46608e-10
1.46608e-10
1.46608e-10
1.46608e-10
1.46608e-10
1.46608e-10
1.46608e-10
1.46608e-10
1.46608e-10
1.46608e-10
1.46608e-10
1.46608e-10
1.46608e-10
1.46608e-10
1.46608e-10
1.46608e-10
1.46608e-10
1.46608e-10
1.46608e-10
1.46608e-10
1.46608e-10
1.46608e-10
1.46608e-10
1.46608e-10
1.46608e-10
1.46608e-10
1.46608e-10
1.46608e-10
1.46608e-10
1.46608e-10
1.46608e-10
1.46608e-10
1.46608e-10
1.46608e-10
1.46608e-10
1.46608e-10
1.46608e-10
1.46608e-10
1.46608e-10
1.46608e-10
1.46608e-10
1.46608e-10
1.46608e-10
1.46608e-10
1.46608e-10
1.46608e-10
1.46608e-10
1.46608e-10
1.46608e-10
1.46608e-10
1.46608e-10
1.46608e-10
1.46608e-10
1.46608e-10
1.46608e-10
1.46608e-10
1.46608e-10
1.46608e-10
1.46608e-10
1.46608e-10
1.46608e-10
1.46608e-10
1.46608e-10
1.46608e-10
1.46608e-10
1.46608e-10
1.46608e-10
1.46608e-10
1.46608e-10
1.46608e-10
1.46608e-10
1.46608e-10
1.46608e-10
1.46608e-10
1.46608e-10
1.46608e-10
1.46608e-10
1.46608e-10
1.46608e-10
1.46608e-10
1.46608e-10
1.46608e-10
1.46608e-10
1.46608e-10
1.46608e-10
1.46608e-10
1.46608e-10
1.46608e-10
1.46608e-10
1.46608e-10
1.46608e-10
1.46608e-10
1.46608e-10
1.46608e-10
1.46608e-10
1.46608e-10
1.46608e-10
1.46608e-10
1.46608e-10
1.46608e-10
1.46608e-10
1.46608e-10
1.46608e-10
1.46608e-10
1.46608e-10
1.46608e-10
1.46608e-10
1.46608e-10
1.46608e-10
1.46608e-10
1.46608e-10
1.46608e-10
1.46608e-10
1.46608e-10
1.46608e-10
1.46608e-10
1.46608e-10
1.46608e-10
1.46608e-10
1.46608e-10
1.46608e-10
1.46608e-10
1.46608e-10
1.46608e-10
1.46608e-10
1.46608e-10

VECTORS velocity float
0.00603145 4.95302e-05 -0.00100038
0.00631072 0.000570674 -0.00032724
0.00637704 0.000240307 -9.92261e-05
0.00633117 0.000590947 -0.000328868
0.00605086 5.46431e-05 -0.00100842
0.00589504 0.000355545 0.000234538
0.00597544 1.34721e-05 -0.000945228
0.00605932 5.76646e-05 -0.00101506
0.006103 0.00032219 0.000267144
0.00580462 0.000822479 -0.000344924
0.0063849 0.000531888 -0.000321881
0.00607039 0.000350909 -0.000634266
0.0060884 5.20654e-05 -0.00101272
0.00629463 0.000562946 -0.00052425
0.00634558 0.00059251 -0.000330241
0.00621307 0.000587686 -0.000596671
0.00631107 0.000638005 -0.000336264
0.00606839 5.75474e-05 -0.00101662
0.00582552 0.000857586 -0.000276467
0.00587325 0.000826222 -0.000345339
0.00625365 0.000274034 -0.000573756
0.00624164 0.000299953 0.000288881
0.00593689 3.46705e-06 -0.000931057
0.00603368 0.000333308 0.000256275
0.00638691 0.00043878 0.000184146
0.00636369 0.00056078 -0.000327554
0.00597926 3.34288e-06 -0.000934929
0.00634479 0.000863232 -6.27216e-05
0.00586541 2.18149e-05 -0.000937816
0.00585655 0.00084998 -0.000271129
0.0059297 0.000349986 0.000239973
0.00597573 2.40217e-05 -0.000959454
0.00579753 0.000849761 -0.000275895
0.00620698 0.000305512 0.000283447
0.00633476 0.000591407 -0.000327778
0.0063322 0.000575169 -0.000327592
0.00627629 0.000294393 0.000294315
0.00631379 0.0006438 -0.000338985
4.5707e-16 2.25521e-15 8.4636e-14
0.00633295 0.000561793 -0.000325936
0.00596436 0.000344427 0.000245407
0.00600338 4.42795e-05 -0.000989097
0.00632842 0.000577829 -0.000328948
0.00596023 4.96376e-05 -0.000884041
0.00583131 1.11868e-05 -0.000956472
0.00620983 0.000321924 -0.000610931
0.00617232 0.000311071 0.000278012
0.00632477 0.000530388 -0.000311868
0.00631759 0.000241967 -0.000551906
0.0063235 0.000614343 -0.000340766
0.00599902 0.000338868 0.000250841
0.00581031 0.000878613 -0.00030032
0.00579067 0.000820098 -0.000251822
0.00630407 0.000560618 -0.000323783
0.00639029 0.000573385 -0.000328433
0.00631095 0.000288834 0.000299749
0.00638772 0.000333192 -0.00062979
0.0063603 0.000225006 -0.000539854
0.00631156 0.000546989 -0.000315854
0.00580961 0.000875089 -0.000297579
0.0062987 0.000605291 -0.000297602
0.00606834 0.000327749 0.00026171
0.00625006 0.000301431 -0.000594948
0.00633543 0.000530589 -0.000320767
0.00630218 0.000553218 -0.000324104
0.00628347 0.000569516 -0.000327525
0.00636243 0.000497816 -9.27753e-05
0.00582076 0.000870939 -0.000287066
0.00632169 0.00054143 -0.000435118
0.00613277 0.000340892 -0.000619166
0.0062828 0.000572954 -0.000328007
0.00617799 0.00060185 -0.000553324
0.006054 0.000340493 -0.000616718
0.006356 0.000486093 -8.48957e-05
0.00613766 0.000316631 0.000272578
0.00638374 0.00042573 0.000184186
0.00628496 0.00058486 -0.000326155
0.00632477 0.000584551 -0.000328173
0.00561941 0.000870121 -0.000235811
0.00632532 0.000574479 -0.000327174
0.00635612 0.000540058 -0.000323824
0.00635882 0.000437419 0.000170712
0.00627199 0.000560257 -0.000321005
0.00630388 -0.00015985 -0.000943247
0.00610117 0.000786186 -0.000154444
0.00573918 0.000860239 -0.000344048
0.00640877 -0.000127951 -0.000884079
0.00604392 0.000290689 -0.00057567
0.0063827 0.00055013 -0.000331053
0.00558063 0.000349965 -0.000597588
0.0062166 0.000708532 -0.000339205
0.00608531 0.000350417 -0.000627899
4.24235e-15 1.05145e-14 8.29593e-14
-3.32611e-22 -3.92126e-22 8.29106e-22
0.00632992 0.000187467 -0.000550841
0.00635586 0.000445623 0.000174537
0.00620548 1.25076e-05 -0.000450497
0.0061571 1.93475e-05 -0.000457204
0.00636938 0.000610288 -0.000360179
0.00641692 0.000448365 -0.000312726
0.00619266 0.000155084 -0.000711746
0.00582873 0.000872501 -0.000288787
0.00628527 0.000333179 -0.00032249
0.00532708 0.000489764 -0.000694704
0.00633338 0.000489539 -0.000197916
0.00638791 0.000563448 -0.000329218
0.00630327 0.000599258 -0.000313915
0.00628077 0.000554742 -0.000321471
0.00618729 0.000275586 -0.000566276
0.00629412 0.00047201 -0.000310294
0.00597421 -2.20394e-06 -0.000930296
0.00598221 3.59074e-05 -0.000974684
0.0058983 0.000838585 -0.000304522
0.00602659 0.000171019 -0.000709584
0.00585512 0.000871596 -0.000289117
0.00630675 0.000587865 -0.000327386
0.00591726 0.000817698 -0.000232607
0.00636362 0.000422656 0.000177704
0.00584712 0.000866368 -0.000276513
0.00636253 0.000524458 -0.000318994
0.006278 2.20337e-05 -0.000416463
0.00633756 0.000541728 -0.000323864
0.00642522 0.000705537 -0.000346776
0.00608792 0.000818268 -0.000216731
0.00607873 5.52054e-05 -0.00101524
0.00623724 0.000586293 -0.000561317
0.00611941 -4.45634e-05 -0.000903988
0.0063449 0.000489244 -0.000325874
0.00641701 0.000547549 -0.000326944
0.00639297 0.000462289 0.000149772
0.00594335 -1.22022e-05 -0.00101061
0.00628564 0.000269829 -0.00057203
0.00633963 0.000269112 -0.000431289
0.00628305 0.000555264 -0.000578494
0.00555201 0.000425317 -0.000657401
0.00578939 0.000839747 -0.000234022
8.38474e-15 1.24101e-15 -8.48744e-14
0.00589592 0.000331176 -0.000599505
0.00613904 0.000593213 -0.000551853
0.00623851 0.000245845 -0.000557998
0.00613722 0.000226519 -0.000524754
0.00647594 0.000312419 -0.000729703
-3.83541e-14 8.16586e-14 2.95887e-13
0.00637097 0.00043451 0.000161482
0.00634036 0.000570849 -0.000326863
0.00629213 0.000226824 -0.000539698
0.00616586 0.000614346 -0.000550677
0.00533103 0.000399576 -0.000624095
0.0063421 8.81331e-05 -0.000658767
0.00632914 0.000647725 -0.000336541
0.00567381 0.000332984 -0.000589426
0.00620145 0.00065297 -0.000542829
0.00634776 0.000150865 -0.000580643
0.00631715 0.000847461 -0.00020574
0.00631886 0.000158181 -0.000594457
0.00630209 0.000586565 -0.000331483
0.00617169 0.000217026 -0.000523217
0.00568685 0.000243656 0.000101577
0.0057464 0.000371126 -0.000624295
0.00590829 0.000293648 -0.000570694
0.0061799 0.000261186 -0.000553348
0.00629108 0.000575984 -0.000582615
0.00641024 0.000718981 -0.000350648
0.00631008 0.00014765 -0.000579647
0.00582962 0.000870874 -0.000262172
0.00587956 0.000345274 -0.000610717
0.00588145 0.000828543 -0.000281829
0.00583767 0.000865541 -0.00028844
0.00632044 0.000542372 -0.000323019
0.00574016 0.000225935 0.000108262
0.00579983 0.000879599 -0.000303048
0.00627585 0.000226744 -0.000539099
0.00641975 0.000536545 -0.000326401
1.53031e-15 -1.10045e-14 8.66693e-14
0.0063611 0.000431153 0.000179428
0.00623065 0.000273944 -0.000572577
0.00620545 0.000131712 0.000150502
0.0061839 0.000597129 -0.000554279
0.00636361 0.000482551 -2.1846e-05
0.0055652 0.000458944 -0.000685375
0.00632585 0.00030438 5.30385e-06
0.00577574 0.000613726 -0.000456996
0.00617565 0.000331524 -0.000617022
0.0061026 0.000315469 -0.000696473
0.00537548 0.000405881 -0.000631655
0.00578508 0.000313533 -0.000579642
0.00637691 0.000136091 -0.000567957
0.00602707 0.00151178 -0.00065869
0.00581904 0.000852113 -0.000284094
0.00599156 0.000786059 -0.000278943
0.00639066 0.000422693 0.000193505
0.00632775 0.000561135 -0.000321211
0.0059109 0.000813318 -0.000232903
0.00569273 0.000233328 0.000104628
0.00637183 0.000205995 -0.000481309
0.00630653 0.000550016 -0.00032293
0.00605026 0.000335831 -0.000607728
0.00562471 0.000840136 -0.000268468
0.0063773 0.000428572 0.0001864
0.00547046 -0.000720903 0.000376038
0.00628704 0.000573681 -0.000327681
0.00628791 0.00020877 -0.00054768
1.62058e-10 -0.023359 0.00607059
0.00581701 0.000883111 -0.000302174
0.00593142 0.000292165 -0.000585412
0.0062321 0.00012484 0.00015304
0.00583232 0.000215408 0.000114255
0.00625541 0.000460286 -0.000588036
0.00640556 0.000326165 -0.00062476
0.00566718 0.00017997 -3.66576e-05
0.00648621 0.000526057 -0.000604953
0.0063486 0.000526388 -0.000320391
0.00631051 8.81983e-05 -0.000533198
0.0062756 0.000351959 -0.000639542
0.0071699 0.000144279 -0.000565676
0.00558126 3.73447e-05 -0.000323816
0.00558716 3.64243e-05 -0.000323438
0.00567315 2.04815e-05 -0.000315117
0.00612477 0.000293434 -0.000573637
0.00563603 2.76293e-05 -0.000318836
0.00570225 7.64301e-05 -0.000224152
0.00631994 0.000594929 -0.000568798
0.0061224 0.000371545 -0.00064544
0.0062438 0.000123309 0.000153798
0.00565849 0.00039808 -0.000641346
0.00561196 0.000833589 -0.000276535
0.0062128 0.000129848 0.000151065
0.0057867 0.000218245 0.000112246
0.00570598 1.48201e-05 -0.000312128
0.00642025 0.000422722 -9.90665e-05
0.0062059 0.000257213 -0.000535106
0.00603952 0.000290692 -0.000577329
0.00612224 0.000265315 -0.000561657
0.00621938 0.000128668 0.000151818
0.0057289 0.000398595 -0.000645818
0.00743395 9.88884e-05 -0.000497805
0.00568949 1.75737e-05 -0.000313525
0.00608008 0.000601174 -0.000542384
0.00613133 9.86008e-05 2.65461e-05
0.00622569 0.000240769 -0.000543897
0.00630979 0.000249124 -0.000556823
0.00545313 0.000455449 -0.00067594
0.00583273 0.000336827 -0.000601731
0.00605901 0.000779995 -0.000237756
0.00626236 0.000630243 -0.000557948
0.00622548 0.000127931 0.000152228
0.00643918 0.000265593 -0.000575438
0.00621994 0.000127895 0.000151949
0.00512944 0.000442625 -0.000647616
0.0058245 0.000368686 -0.00062661
0.00616083 0.00026249 -0.000562261
0.00630108 0.000584936 -0.000563247
0.00623176 0.000126212 0.000152812
0.00556831 4.01903e-05 -0.000325393
0.00548325 0.000368662 -0.00060736
0.00625419 0.000161997 -0.000572591
0.00635239 0.000465799 8.13989e-05
0.00616427 0.000261973 -0.000555266
0.00574484 0.000361263 -0.00061614
0.00644074 0.000235486 -0.000553083
0.00632834 0.000509747 -0.000365599
0.00602555 0.000277101 -0.000564446
0.0064692 0.000551065 0.000151613
0.00636639 0.000437623 0.000179437
0.00709965 0.000146589 -0.000526033
0.00623825 0.000124818 0.000153395
0.00650064 0.000297774 -0.000608794
0.00632267 0.000545134 -0.000319799
0.00566065 2.30429e-05 -0.000316435
0.00620808 0.000130895 0.000150876
0.00608365 0.000777991 -0.000255725

VECTORS force float
1.6346e-11 5.49245e-11 -6.62517e-11
-4.4309e-11 9.48224e-11 7.20528e-12
3.04994e-11 -2.31007e-10 2.10219e-10
-5.69334e-11 -4.7627e-11 1.09745e-11
9.42873e-12 4.94531e-11 -6.78279e-11
1.15437e-12 2.13852e-13 -3.05243e-14
5.46003e-11 1.10252e-10 -1.38974e-10
1.32018e-11 4.77051e-11 -5.93703e-11
4.82695e-13 3.11605e-13 -1.30501e-13
2.22861e-11 1.69189e-10 2.59375e-10
-2.33849e-11 -1.29085e-10 -7.47293e-11
-1.4999e-10 3.08842e-10 -3.76043e-10
2.80441e-11 7.49168e-11 -9.90449e-11
-7.68847e-11 5.84908e-11 -1.29335e-10
-8.3335e-11 -2.92444e-11 -6.19545e-12
-1.39142e-10 -9.2496e-11 3.76298e-10
-1.46329e-10 -2.76558e-11 1.21769e-11
2.13028e-11 4.83779e-11 -6.4662e-11
5.46416e-11 -6.96792e-11 1.4993e-11
-4.94014e-11 -7.07531e-11 8.40181e-11
-3.40824e-10 2.88637e-10 -2.15936e-10
3.50251e-14 3.76606e-13 -1.97234e-13
4.75319e-11 1.73793e-10 -1.94853e-10
7.06777e-13 2.78875e-13 -9.70928e-14
1.08136e-10 -8.12779e-11 4.54748e-11
4.08093e-11 -6.74938e-11 5.52976e-12
1.25716e-10 1.24515e-10 -1.70288e-10
6.26501e-11 -1.57503e-10 -3.09178e-10
2.12661e-11 1.1462e-10 -2.04115e-10
-3.77581e-10 3.50207e-10 -3.38395e-10
1.04236e-12 2.3011e-13 -4.72526e-14
1.11884e-11 8.07216e-11 -1.03985e-10
-3.35476e-11 1.83665e-10 -1.55875e-10
1.47161e-13 3.60448e-13 -1.80411e-13
-3.131e-11 -2.6708e-10 7.1359e-11
1.75791e-10 1.99773e-10 -3.45371e-11
-7.66852e-14 3.92712e-13 -2.13835e-13
-1.86928e-10 -1.11207e-10 8.30806e-12
5.62224e-24 2.39753e-24 -2.06795e-25
-2.85627e-11 5.38454e-12 -2.81866e-11
9.30583e-13 2.46387e-13 -6.37831e-14
3.7153e-11 4.54121e-11 -6.90406e-11
8.40484e-11 1.04417e-10 -3.94011e-11
-3.54843e-11 2.91685e-11 -7.62693e-11
-4.37358e-11 6.06235e-11 -1.77273e-10
-7.3477e-11 -7.43071e-11 6.7358e-11
2.58836e-13 3.44245e-13 -1.63863e-13
-5.82024e-11 -4.1134e-10 1.22345e-10
-8.35447e-11 -3.07896e-10 2.43902e-10
-1.69067e-10 -4.03626e-10 1.41161e-10
8.18401e-13 2.62789e-13 -8.05839e-14
-1.34569e-10 -6.61025e-12 -8.01436e-11
-2.54454e-10 2.08975e-10 -2.05855e-10
5.6876e-11 5.68064e-11 -2.72471e-11
1.75983e-10 8.94111e-11 -2.88532e-11
-1.88723e-13 4.09444e-13 -2.30406e-13
6.16984e-11 1.50384e-10 -1.40833e-10
-3.28522e-11 -1.64011e-10 1.48967e-10
1.05987e-10 -1.31457e-10 9.25426e-11
-1.20562e-10 2.05693e-10 -2.19978e-10
-4.06527e-10 -2.25472e-10 1.68101e-10
5.94737e-13 2.95289e-13 -1.13903e-13
-6.68968e-11 -3.57085e-10 3.11276e-10
5.01332e-14 -1.16957e-10 -2.8766e-12
8.31714e-11 1.85866e-10 -3.80618e-11
2.30342e-10 3.25799e-10 3.34813e-11
2.48119e-11 -1.76532e-11 -2.29476e-10
-2.02248e-10 6.24462e-11 -1.64859e-10
-2.14127e-11 4.48879e-11 -1.52234e-10
-2.01096e-10 3.52015e-10 -2.10718e-10
-1.3245e-10 -6.87928e-11 -2.32927e-11
-1.91608e-10 -3.0336e-11 1.239e-10
-2.15248e-10 2.92121e-10 -3.54162e-10
5.65468e-11 1.02652e-10 2.00287e-10
3.71077e-13 3.27666e-13 -1.47121e-13
2.69685e-10 -3.64414e-10 3.77235e-11
-1.14372e-10 -2.87032e-12 4.38049e-12
2.1642e-10 1.13736e-10 -2.7891e-11
-1.53845e-10 -5.78794e-11 1.94375e-11
-3.11642e-10 9.96335e-11 -1.36343e-11
-2.72528e-11 -9.38815e-11 1.22055e-12
1.85394e-10 -1.02128e-10 8.9512e-11
-1.07781e-10 1.39753e-10 1.31671e-10
-1.2225e-11 -8.23644e-11 6.79831e-11
2.21068e-11 -8.42191e-11 -6.3556e-11
2.00023e-10 -1.84351e-10 2.44064e-10
-1.48248e-11 -1.25165e-10 8.4024e-11
-3.97009e-10 9.49401e-11 -5.67539e-11
4.98975e-11 -1.91841e-10 -5.77702e-11
-2.22854e-10 2.6946e-11 -8.98376e-12
-5.22698e-10 8.62114e-11 -3.07061e-11
-9.94659e-11 3.82109e-10 -3.37447e-10
1.44334e-21 -5.40537e-22 5.16988e-24
-3.23117e-27 -2.58494e-26 0.0
6.65503e-11 5.30464e-10 1.05128e-09
3.41343e-10 -4.22822e-11 6.92415e-13
-2.2261e-10 -6.6891e-11 1.8161e-10
-9.95202e-11 -8.6881e-11 9.72243e-11
-7.9331e-11 2.67199e-11 -6.86678e-11
-7.74282e-11 5.80477e-11 1.09345e-11
-1.42697e-11 -1.45955e-10 1.00945e-10
-7.80194e-11 -5.744e-11 9.6975e-11
-6.77768e-11 -6.05573e-11 6.93669e-11
9.73769e-11 6.40588e-11 -4.71983e-11
-1.41654e-12 8.92849e-11 3.2564e-10
6.84603e-11 -9.39748e-11 -2.82952e-11
1.14693e-11 -2.45884e-10 1.982e-10
1.13724e-09 1.79155e-09 -3.23874e-10
-1.86389e-10 -2.53981e-10 1.77496e-10