# vtk DataFile Version 3.0
LIGGGHTS particles timestep 37200000
ASCII
DATASET POLYDATA
POINTS 271 float
0.229451 0.0156101 0.00847577
0.230312 0.0183596 0.00695614
0.224355 0.0178419 0.00699438
0.230391 0.0183024 0.00697768
0.229431 0.0155698 0.0085651
0.235827 0.0170574 0.0073123
0.22953 0.0158605 0.00818875
0.229407 0.0155189 0.00864772
0.235945 0.0175966 0.00708073
0.229991 0.0178402 0.00718237
0.230129 0.0180436 0.00707544
0.223463 0.0158184 0.00856729
0.229343 0.0153818 0.00890672
0.224143 0.0184977 0.00697095
0.230342 0.01822 0.00700576
0.224242 0.0185331 0.00697197
0.230467 0.0183649 0.00695702
0.229386 0.0154732 0.00873406
0.229951 0.0176656 0.00727098
0.23011 0.0179555 0.00711838
0.22371 0.0163682 0.0081127
0.236025 0.0179773 0.00699174
0.229592 0.0161215 0.00805453
0.235905 0.0174128 0.00714907
0.224442 0.018233 0.00698278
0.230248 0.0181709 0.00702136
0.229553 0.0159465 0.00814318
0.230108 0.0181368 0.00712759
0.229611 0.016209 0.0080102
0.230089 0.0174462 0.00737039
0.235846 0.0171423 0.00726324
0.229508 0.0157772 0.00823934
0.230227 0.0178129 0.00718094
0.236003 0.0178814 0.00701026
0.230149 0.0185212 0.00689641
0.230304 0.0188368 0.00684152
0.236047 0.0180732 0.00697322
0.230488 0.0184572 0.00692495
0.321436 0.0173475 0.00552525
0.230258 0.0182709 0.00698638
0.235866 0.017229 0.0072174
0.22947 0.0156567 0.00838938
0.230284 0.018741 0.00682155
0.229652 0.0163833 0.0079217
0.229631 0.0162985 0.0079705
0.223378 0.0155191 0.00881862
0.235984 0.0177852 0.00702885
0.230226 0.0184967 0.00696971
0.223314 0.0152971 0.00900985
0.23017 0.0186135 0.00686432
0.235886 0.0173209 0.00718323
0.230088 0.0178682 0.00716242
0.229934 0.0171958 0.00750353
0.230436 0.0186182 0.00686741
0.230448 0.0182251 0.00700587
0.236068 0.018169 0.0069547
0.22366 0.016491 0.00800289
0.223292 0.0152362 0.00908612
0.230223 0.0184013 0.00693991
0.230145 0.0176161 0.00728309
0.230193 0.0186075 0.00696137
0.235925 0.0175047 0.0071149
0.223357 0.0154443 0.00888145
0.230095 0.0182905 0.00702319
0.230208 0.0188043 0.00683654
0.230267 0.0186498 0.00685886
0.224368 0.0183005 0.00697982
0.230186 0.0178954 0.00714291
0.224121 0.0184001 0.00697285
0.223421 0.0156688 0.00869295
0.230414 0.0185199 0.00690158
0.224264 0.0186307 0.00697007
0.223485 0.0158931 0.0085046
0.224178 0.0182402 0.00697769
0.235964 0.0176889 0.00704746
0.224377 0.0179397 0.00698849
0.230508 0.0185531 0.00689158
0.230382 0.0187764 0.0068264
0.229823 0.017079 0.00756811
0.230361 0.0186803 0.00684424
0.23015 0.0181324 0.00703428
0.224421 0.0181354 0.00698469
0.230248 0.018558 0.00689367
0.229693 0.0165578 0.0078332
0.230205 0.0181181 0.00714144
0.230062 0.017834 0.00725263
0.229714 0.0166449 0.00778888
0.223781 0.0165935 0.00792405
0.230231 0.0180776 0.00705385
0.223876 0.0169692 0.00760762
0.230342 0.0185855 0.00687724
0.223442 0.0157436 0.00863012
0.0643568 0.0187248 0.00531097
0.24257 0.0191927 0.00520306
0.224069 0.0177576 0.00703384
0.224494 0.0180678 0.00698766
0.224311 0.0176563 0.00704946
0.224292 0.0175799 0.00711381
0.230238 0.0187436 0.00691024
0.230436 0.0181314 0.00703858
0.229738 0.0167334 0.0077493
0.230066 0.017722 0.00723592
0.224134 0.0180449 0.00698149
0.223747 0.0167899 0.00775205
0.224099 0.0183025 0.00697476
0.230336 0.0181258 0.00703878
0.230138 0.0184854 0.00701535
0.230249 0.0189968 0.00687798
0.223932 0.0175485 0.00711263
0.230298 0.0179437 0.00711206
0.22957 0.016035 0.0080996
0.229488 0.0157018 0.0083018
0.230026 0.0175471 0.00732458
0.223893 0.0173915 0.00724483
0.230045 0.0176347 0.00728023
0.230324 0.0189326 0.00686212
0.229956 0.0172885 0.00745644
0.224516 0.0181655 0.00698575
0.229991 0.0174642 0.00736769
0.230053 0.018103 0.00705136
0.224333 0.0177451 0.00700915
0.230167 0.0182251 0.00700084
0.230012 0.0179275 0.00713806
0.229962 0.0173791 0.00741145
0.229364 0.0154275 0.00882039
0.224165 0.0185959 0.00696904
0.229674 0.0164718 0.00788054
0.230184 0.0183087 0.00706657
0.230208 0.0179858 0.00709696
0.224156 0.0181426 0.00697966
0.223874 0.0173164 0.00730809
0.223336 0.0153695 0.00894428
0.223991 0.0178159 0.00701218
0.224221 0.0184354 0.00697388
0.223971 0.0169964 0.00759164
0.229835 0.0171709 0.00753081
0.0100679 0.0201683 0.00551526
0.223836 0.0171662 0.00743465
0.224208 0.0187912 0.00696523
0.223951 0.0176236 0.00704938
0.224159 0.0174021 0.00725673
0.224113 0.017948 0.0069931
0.0219312 0.0187687 0.00551176
0.224347 0.0182029 0.00698172
0.230457 0.0187107 0.00683529
0.223971 0.017719 0.00702691
0.224285 0.0187283 0.00696817
0.223842 0.0168187 0.00773471
0.224164 0.0177826 0.0070103
0.230188 0.0187064 0.00683198
0.223894 0.0170444 0.00754417
0.224338 0.0185634 0.00697303
0.224235 0.0177133 0.00701751
0.230128 0.0182293 0.00709513
0.224143 0.0176931 0.00705253
0.230388 0.0184222 0.00693548
0.224178 0.0174772 0.00719348
0.217845 0.0171713 0.00733299
0.224008 0.0171467 0.00746493
0.223931 0.0171947 0.00741755
0.224006 0.0174952 0.00716436
0.224295 0.018368 0.00697685
0.230032 0.018015 0.0070943
0.224217 0.0176272 0.00706718
0.230056 0.0180002 0.0071902
0.223818 0.017091 0.00749802
0.22993 0.0175782 0.00731529
0.230126 0.0175287 0.00732743
0.230173 0.0183193 0.00696782
0.218135 0.0184586 0.00698345
0.23017 0.0177025 0.00723899
0.224117 0.0175977 0.00708466
0.230319 0.0180325 0.00707126
0.161461 0.0182058 0.00533758
0.224325 0.0181052 0.00698362
0.223734 0.0164429 0.00805017
0.217904 0.017404 0.00715367
0.224186 0.0186935 0.00696713
0.224078 0.0182048 0.00697666
0.223728 0.0167149 0.00781515
0.224208 0.0179774 0.00698446
0.229754 0.0168193 0.00770042
0.223399 0.0155939 0.00875579
0.224281 0.0179095 0.00698748
0.223803 0.0166685 0.00786113
0.223912 0.0171196 0.00748082
0.224091 0.0178514 0.00700675
0.220787 0.0171177 0.00723641
0.229971 0.0177529 0.00722667
0.229921 0.0175279 0.00740122
0.22423 0.0180751 0.00698255
0.230127 0.0184289 0.00692849
0.229856 0.0172542 0.00747965
0.218113 0.0183619 0.00699632
0.224186 0.01788 0.00699541
0.230229 0.0189007 0.00685729
0.22351 0.0159675 0.00844246
0.229796 0.0169944 0.00761426
0.224303 0.0180076 0.00698552
0.283866 0.0172149 0.00723578
0.230313 0.0184847 0.00691217
0.224048 0.0176702 0.00707753
0.0327482 0.0181217 0.00771344
0.230133 0.0177868 0.00719979
0.223855 0.0172413 0.00737134
0.218048 0.0180715 0.00703495
0.217864 0.0172463 0.00726966
0.224273 0.0182704 0.00697875
0.223683 0.0165656 0.00794042
0.217826 0.0170962 0.00739636
0.224056 0.018107 0.00697859
0.230073 0.018192 0.0070108
0.22426 0.0178124 0.0070023
0.223636 0.0164165 0.00806521
0.223591 0.0162678 0.00819108
0.217673 0.0164962 0.00790297
0.217693 0.0165711 0.00783968
0.21775 0.0167962 0.00764966
0.223912 0.0174666 0.00718157
0.217711 0.0166462 0.00777632
0.217807 0.0170212 0.00745969
0.224464 0.0183308 0.00698088
0.223706 0.0166402 0.00787787
0.218091 0.0182651 0.00700918
0.223989 0.0170716 0.00752831
0.22978 0.0169052 0.00765645
0.217943 0.01759 0.00709913
0.218156 0.0185554 0.00697058
0.217788 0.0169463 0.00752299
0.224013 0.0179127 0.00699741
0.224101 0.0175223 0.00714849
0.224063 0.0173722 0.00727495
0.223968 0.017345 0.00729093
0.217962 0.0176875 0.00708607
0.223782 0.0169405 0.00762497
0.22357 0.0161923 0.00825335
0.217769 0.0168713 0.00758632
0.224229 0.0188888 0.00696333
0.217883 0.0173241 0.00720986
0.224025 0.0175842 0.00712318
0.223758 0.0165182 0.0079871
0.223765 0.0168652 0.0076886
0.224044 0.017297 0.00733822
0.229876 0.0173487 0.00745397
0.224316 0.0184658 0.00697494
0.218004 0.0178781 0.00706066
0.223527 0.0160428 0.00837889
0.217985 0.0177845 0.00709031
0.223823 0.0167435 0.00779804
0.2238 0.0170157 0.00756152
0.223987 0.0174201 0.00722766
0.22439 0.0183983 0.00697791
0.218026 0.0179748 0.00704779
0.217651 0.0164218 0.00796604
0.22386 0.0168938 0.00767131
0.224195 0.0175525 0.00712981
0.224251 0.0181727 0.00698065
0.224082 0.0174472 0.00721173
0.224026 0.0172219 0.00740157
0.223686 0.0162936 0.00817517
0.224199 0.0183378 0.00697578
0.223949 0.0172698 0.0073542
0.224034 0.0180092 0.00698264
0.224399 0.0180377 0.00698659
0.223548 0.0161176 0.00831606
0.21807 0.0181684 0.00702205
0.223613 0.016342 0.00812768
0.23012 0.0183871 0.00701903
0.21773 0.0167212 0.00771298
0.217922 0.0174932 0.007112
0.229899 0.0174462 0.00745426

VERTICES 271 542
1 0
1 1
1 2
1 3
1 4
1 5
1 6
1 7
1 8
1 9
1 10
1 11
1 12
1 13
1 14
1 15
1 16
1 17
1 18
1 19
1 20
1 21
1 22
1 23
1 24
1 25
1 26
1 27
1 28
1 29
1 30
1 31
1 32
1 33
1 34
1 35
1 36
1 37
1 38
1 39
1 40
1 41
1 42
1 43
1 44
1 45
1 46
1 47
1 48
1 49
1 50
1 51
1 52
1 53
1 54
1 55
1 56
1 57
1 58
1 59
1 60
1 61
1 62
1 63
1 64
1 65
1 66
1 67
1 68
1 69
1 70
1 71
1 72
1 73
1 74
1 75
1 76
1 77
1 78
1 79
1 80
1 81
1 82
1 83
1 84
1 85
1 86
1 87
1 88
1 89
1 90
1 91
1 92
1 93
1 94
1 95
1 96
1 97
1 98
1 99
1 100
1 101
1 102
1 103
1 104
1 105
1 106
1 107
1 108
1 109
1 110
1 111
1 112
1 113
1 114
1 115
1 116
1 117
1 118
1 119
1 120
1 121
1 122
1 123
1 124
1 125
1 126
1 127
1 128
1 129
1 130
1 131
1 132
1 133
1 134
1 135
1 136
1 137
1 138
1 139
1 140
1 141
1 142
1 143
1 144
1 145
1 146
1 147
1 148
1 149
1 150
1 151
1 152
1 153
1 154
1 155
1 156
1 157
1 158
1 159
1 160
1 161
1 162
1 163
1 164
1 165
1 166
1 167
1 168
1 169
1 170
1 171
1 172
1 173
1 174
1 175
1 176
1 177
1 178
1 179
1 180
1 181
1 182
1 183
1 184
1 185
1 186
1 187
1 188
1 189
1 190
1 191
1 192
1 193
1 194
1 195
1 196
1 197
1 198
1 199
1 200
1 201
1 202
1 203
1 204
1 205
1 206
1 207
1 208
1 209
1 210
1 211
1 212
1 213
1 214
1 215
1 216
1 217
1 218
1 219
1 220
1 221
1 222
1 223
1 224
1 225
1 226
1 227
1 228
1 229
1 230
1 231
1 232
1 233
1 234
1 235
1 236
1 237
1 238
1 239
1 240
1 241
1 242
1 243
1 244
1 245
1 246
1 247
1 248
1 249
1 250
1 251
1 252
1 253
1 254
1 255
1 256
1 257
1 258
1 259
1 260
1 261
1 262
1 263
1 264
1 265
1 266
1 267
1 268
1 269
1 270

POINT_DATA 271
SCALARS id int 1
LOOKUP_TABLE default
1
2
3
4
5
6
7
8
9
10
11
12
13
14
15
16
17
19
21
22
23
24
25
26
27
28
29
30
31
32
33
34
35
36
37
38
39
41
42
44
45
47
48
50
51
52
53
54
55
56
57
59
61
62
63
64
65
66
67
68
69
70
71
72
73
74
76
77
78
79
80
81
82
83
84
85
86
87
88
89
90
91
92
93
94
95
96
97
98
99
100
101
102
103
104
105
106
107
108
109
110
111
112
113
114
115
116
117
118
119
120
121
122
123
124
125
126
127
128
129
131
132
133
134
135
136
137
138
140
141
142
143
144
147
148
149
150
151
153
154
155
156
157
158
159
160
162
164
165
166
168
169
170
171
172
173
174
175
177
178
179
181
182
183
184
186
187
188
189
190
191
192
193
194
195
196
197
198
199
201
202
203
204
205
206
207
208
209
210
211
212
213
214
215
216
217
218
219
220
221
222
223
224
225
226
227
228
229
230
231
232
234
235
236
237
239
240
241
242
244
246
247
248
249
250
251
252
253
254
255
256
257
258
259
261
262
263
264
265
266
267
268
269
270
271
272
273
274
275
276
277
278
280
283
284
285
286
287
288
289
290
291
292
293
294
295
296
297
298
299
300

SCALARS type int 1
LOOKUP_TABLE default
1
1
1
1
1
1
1
1
1
1
1
1
1
1
1
1
1
1
1
1
1
1
1
1
1
1
1
1
1
1
1
1
1
1
1
1
1
1
1
1
1
1
1
1
1
1
1
1
1
1
1
1
1
1
1
1
1
1
1
1
1
1
1
1
1
1
1
1
1
1
1
1
1
1
1
1
1
1
1
1
1
1
1
1
1
1
1
1
1
1
1
1
1
1
1
1
1
1
1
1
1
1
1
1
1
1
1
1
1
1
1
1
1
1
1
1
1
1
1
1
1
1
1
1
1
1
1
1
1
1
1
1
1
1
1
1
1
1
1
1
1
1
1
1
1
1
1
1
1
1
1
1
1
1
1
1
1
1
1
1
1
1
1
1
1
1
1
1
1
1
1
1
1
1
1
1
1
1
1
1
1
1
1
1
1
1
1
1
1
1
1
1
1
1
1
1
1
1
1
1
1
1
1
1
1
1
1
1
1
1
1
1
1
1
1
1
1
1
1
1
1
1
1
1
1
1
1
1
1
1
1
1
1
1
1
1
1
1
1
1
1
1
1
1
1
1
1
1
1
1
1
1
1
1
1
1
1
1
1
1
1
1
1
1
1
1
1
1
1
1
1

SCALARS radius float 1
LOOKUP_TABLE default
5e-05
5e-05
5e-05
5e-05
5e-05
5e-05
5e-05
5e-05
5e-05
5e-05
5e-05
5e-05
5e-05
5e-05
5e-05
5e-05
5e-05
5e-05
5e-05
5e-05
5e-05
5e-05
5e-05
5e-05
5e-05
5e-05
5e-05
5e-05
5e-05
5e-05
5e-05
5e-05
5e-05
5e-05
5e-05
5e-05
5e-05
5e-05
5e-05
5e-05
5e-05
5e-05
5e-05
5e-05
5e-05
5e-05
5e-05
5e-05
5e-05
5e-05
5e-05
5e-05
5e-05
5e-05
5e-05
5e-05
5e-05
5e-05
5e-05
5e-05
5e-05
5e-05
5e-05
5e-05
5e-05
5e-05
5e-05
5e-05
5e-05
5e-05
5e-05
5e-05
5e-05
5e-05
5e-05
5e-05
5e-05
5e-05
5e-05
5e-05
5e-05
5e-05
5e-05
5e-05
5e-05
5e-05
5e-05
5e-05
5e-05
5e-05
5e-05
5e-05
5e-05
5e-05
5e-05
5e-05
5e-05
5e-05
5e-05
5e-05
5e-05
5e-05
5e-05
5e-05
5e-05
5e-05
5e-05
5e-05
5e-05
5e-05
5e-05
5e-05
5e-05
5e-05
5e-05
5e-05
5e-05
5e-05
5e-05
5e-05
5e-05
5e-05
5e-05
5e-05
5e-05
5e-05
5e-05
5e-05
5e-05
5e-05
5e-05
5e-05
5e-05
5e-05
5e-05
5e-05
5e-05
5e-05
5e-05
5e-05
5e-05
5e-05
5e-05
5e-05
5e-05
5e-05
5e-05
5e-05
5e-05
5e-05
5e-05
5e-05
5e-05
5e-05
5e-05
5e-05
5e-05
5e-05
5e-05
5e-05
5e-05
5e-05
5e-05
5e-05
5e-05
5e-05
5e-05
5e-05
5e-05
5e-05
5e-05
5e-05
5e-05
5e-05
5e-05
5e-05
5e-05
5e-05
5e-05
5e-05
5e-05
5e-05
5e-05
5e-05
5e-05
5e-05
5e-05
5e-05
5e-05
5e-05
5e-05
5e-05
5e-05
5e-05
5e-05
5e-05
5e-05
5e-05
5e-05
5e-05
5e-05
5e-05
5e-05
5e-05
5e-05
5e-05
5e-05
5e-05
5e-05
5e-05
5e-05
5e-05
5e-05
5e-05
5e-05
5e-05
5e-05
5e-05
5e-05
5e-05
5e-05
5e-05
5e-05
5e-05
5e-05
5e-05
5e-05
5e-05
5e-05
5e-05
5e-05
5e-05
5e-05
5e-05
5e-05
5e-05
5e-05
5e-05
5e-05
5e-05
5e-05
5e-05
5e-05
5e-05
5e-05
5e-05
5e-05
5e-05
5e-05
5e-05
5e-05
5e-05
5e-05
5e-05
5e-05
5e-05
5e-05
5e-05
5e-05
5e-05
5e-05
5e-05
5e-05
5e-05
5e-05
5e-05
5e-05
5e-05
5e-05
5e-05
5e-05

SCALARS mass float 1
LOOKUP_TABLE default
1.46608e-10
1.46608e-10
1.46608e-10
1.46608e-10
1.46608e-10
1.46608e-10
1.46608e-10
1.46608e-10
1.46608e-10
1.46608e-10
1.46608e-10
1.46608e-10
1.46608e-10
1.46608e-10
1.46608e-10
1.46608e-10
1.46608e-10
1.46608e-10
1.46608e-10
1.46608e-10
1.46608e-10
1.46608e-10
1.46608e-10
1.46608e-10
1.46608e-10
1.46608e-10
1.46608e-10
1.46608e-10
1.46608e-10
1.46608e-10
1.46608e-10
1.46608e-10
1.46608e-10
1.46608e-10
1.46608e-10
1.46608e-10
1.46608e-10
1.46608e-10
1.46608e-10
1.46608e-10
1.46608e-10
1.46608e-10
1.46608e-10
1.46608e-10
1.46608e-10
1.46608e-10
1.46608e-10
1.46608e-10
1.46608e-10
1.46608e-10
1.46608e-10
1.46608e-10
1.46608e-10
1.46608e-10
1.46608e-10
1.46608e-10
1.46608e-10
1.46608e-10
1.46608e-10
1.46608e-10
1.46608e-10
1.46608e-10
1.46608e-10
1.46608e-10
1.46608e-10
1.46608e-10
1.46608e-10
1.46608e-10
1.46608e-10
1.46608e-10
1.46608e-10
1.46608e-10
1.46608e-10
1.46608e-10
1.46608e-10
1.46608e-10
1.46608e-10
1.46608e-10
1.46608e-10
1.46608e-10
1.46608e-10
1.46608e-10
1.46608e-10
1.46608e-10
1.46608e-10
1.46608e-10
1.46608e-10
1.46608e-10
1.46608e-10
1.46608e-10
1.46608e-10
1.46608e-10
1.46608e-10
1.46608e-10
1.46608e-10
1.46608e-10
1.46608e-10
1.46608e-10
1.46608e-10
1.46608e-10
1.46608e-10
1.46608e-10
1.46608e-10
1.46608e-10
1.46608e-10
1.46608e-10
1.46608e-10
1.46608e-10
1.46608e-10
1.46608e-10
1.46608e-10
1.46608e-10
1.46608e-10
1.46608e-10
1.46608e-10
1.46608e-10
1.46608e-10
1.46608e-10
1.46608e-10
1.46608e-10
1.46608e-10
1.46608e-10
1.46608e-10
1.46608e-10
1.46608e-10
1.46608e-10
1.46608e-10
1.46608e-10
1.46608e-10
1.46608e-10
1.46608e-10
1.46608e-10
1.46608e-10
1.46608e-10
1.46608e-10
1.46608e-10
1.46608e-10
1.46608e-10
1.46608e-10
1.46608e-10
1.46608e-10
1.46608e-10
1.46608e-10
1.46608e-10
1.46608e-10
1.46608e-10
1.46608e-10
1.46608e-10
1.46608e-10
1.46608e-10
1.46608e-10
1.46608e-10
1.46608e-10
1.46608e-10
1.46608e-10
1.46608e-10
1.46608e-10
1.46608e-10
1.46608e-10
1.46608e-10
1.46608e-10
1.46608e-10
1.46608e-10
1.46608e-10
1.46608e-10
1.46608e-10
1.46608e-10
1.46608e-10
1.46608e-10
1.46608e-10
1.46608e-10
1.46608e-10
1.46608e-10
1.46608e-10
1.46608e-10
1.46608e-10
1.46608e-10
1.46608e-10
1.46608e-10
1.46608e-10
1.46608e-10
1.46608e-10
1.46608e-10
1.46608e-10
1.46608e-10
1.46608e-10
1.46608e-10
1.46608e-10
1.46608e-10
1.46608e-10
1.46608e-10
1.46608e-10
1.46608e-10
1.46608e-10
1.46608e-10
1.46608e-10
1.46608e-10
1.46608e-10
1.46608e-10
1.46608e-10
1.46608e-10
1.46608e-10
1.46608e-10
1.46608e-10
1.46608e-10
1.46608e-10
1.46608e-10
1.46608e-10
1.46608e-10
1.46608e-10
1.46608e-10
1.46608e-10
1.46608e-10
1.46608e-10
1.46608e-10
1.46608e-10
1.46608e-10
1.46608e-10
1.46608e-10
1.46608e-10
1.46608e-10
1.46608e-10
1.46608e-10
1.46608e-10
1.46608e-10
1.46608e-10
1.46608e-10
1.46608e-10
1.46608e-10
1.46608e-10
1.46608e-10
1.46608e-10
1.46608e-10
1.46608e-10
1.46608e-10
1.46608e-10
1.46608e-10
1.46608e-10
1.46608e-10
1.46608e-10
1.46608e-10
1.46608e-10
1.46608e-10
1.46608e-10
1.46608e-10
1.46608e-10
1.46608e-10
1.46608e-10
1.46608e-10
1.46608e-10
1.46608e-10
1.46608e-10
1.46608e-10
1.46608e-10
1.46608e-10
1.46608e-10
1.46608e-10
1.46608e-10
1.46608e-10
1.46608e-10
1.46608e-10
1.46608e-10
1.46608e-10
1.46608e-10
1.46608e-10
1.46608e-10
1.46608e-10
1.46608e-10
1.46608e-10
1.46608e-10
1.46608e-10

VECTORS velocity float
0.00594906 0.000464336 -1.84901e-05
0.00630692 0.000247305 2.2159e-05
0.00617339 -0.000260287 -0.000202343
0.00629465 0.000234093 3.15077e-05
0.00620708 0.000421654 2.38745e-05
0.00548049 -0.000618813 0.000413533
0.00590481 0.000203088 -0.000377326
0.00621788 0.000442009 4.40048e-05
0.00551022 -0.000887048 -0.000104626
0.00606116 0.000159585 -0.000456116
0.00617898 0.000149554 -0.000332526
0.00591644 0.000297299 0.000209672
0.00615005 0.000450981 2.48313e-05
0.00616781 -0.000122813 0.000117901
0.00627654 0.000237058 2.88789e-05
0.0061642 -7.26988e-05 0.000116782
0.00626205 0.000215919 3.6872e-05
0.00620249 0.000447588 3.72682e-05
0.00595065 0.000162251 -0.000454129
0.006123 0.000126562 -0.000403928
0.00624575 -1.70469e-05 0.000507063
0.006031 -0.000881357 0.000181021
0.00584699 0.00018859 -0.000462264
0.00552549 -0.000892847 -9.34987e-05
0.00620082 -0.000114688 0.000118407
0.00623836 0.000315303 4.38276e-07
0.00585948 0.000170675 -0.000464518
0.00622969 0.00030448 -0.000160139
0.00580037 0.000206488 -0.000462562
0.005816 9.83537e-05 -0.000414513
0.00553101 -0.000627732 0.000421155
0.00582494 0.000340451 -0.000195234
0.00603435 5.01332e-05 -0.000403617
0.0060092 -0.000883034 0.000181363
0.0063482 0.000306083 -9.68346e-09
0.00578685 0.000385001 -4.93402e-05
0.00604133 -0.000884761 0.000181664
0.0061659 0.000228149 2.82375e-05
4.61078e-16 2.2548e-15 8.4636e-14
0.00628321 0.000278247 1.27308e-05
0.00553457 -0.000897113 -9.48787e-05
0.00585121 0.000497816 -2.61502e-05
0.00576862 0.00038051 -3.20536e-05
0.00581735 0.000207255 -0.000474629
0.0057931 0.000212195 -0.000473991
0.00602521 0.000280222 0.000233632
0.00568293 -0.000818085 0.000167859
0.00633721 0.000294477 -5.42619e-05
0.00611148 -0.000232465 -0.000320116
0.00638436 0.000291471 8.29093e-06
0.00553133 -0.000893878 -9.35633e-05
0.00607076 0.000114952 -0.000440036
0.00569392 0.000208602 -0.000461677
0.00627011 0.000580502 -9.14657e-05
0.00625512 0.000208188 3.89526e-05
0.0060554 -0.000887125 0.00018235
0.0064361 6.53749e-05 0.000454559
0.00611391 -0.000385196 -0.000376588
0.00632806 0.000287343 -5.11707e-06
0.00589173 8.04886e-05 -0.000410502
0.00643878 0.000292434 6.03473e-06
0.00551809 -0.000890881 -9.49232e-05
0.00604528 0.000294763 0.000234601
0.00623397 0.000356534 -0.000110276
0.00576417 0.000357481 -6.081e-05
0.00584869 0.000368842 -5.91985e-05
0.00617638 -0.000113017 0.000117358
0.0060761 6.46255e-05 -0.000415505
0.00618668 -9.63427e-05 0.000116336
0.00597354 0.000299968 0.000214007
0.00631452 0.000376234 -1.93005e-05
0.00614956 -4.18081e-05 0.000115364
0.00585794 0.000283082 0.000217636
0.00617999 -0.000141741 0.000112218
0.00551209 -0.000786209 0.000163705
0.00622436 -0.000197761 0.000123656
0.00644482 0.000760967 -0.000153864
0.00581067 0.000412769 -4.21296e-05
0.0056391 0.000262614 -0.000483588
0.00581765 0.000413382 -4.22169e-05
0.00622866 0.000272982 -2.15375e-05
0.00619109 -8.27289e-05 0.000118304
0.00639391 0.000301523 -1.39815e-05
0.00575911 0.000211671 -0.000490519
0.00619627 0.000296795 -4.39055e-06
0.00603748 0.000123188 -0.000437536
0.00568358 0.000243833 -0.000479494
0.00591984 0.000737618 -0.000173425
0.00619162 0.000220938 3.40114e-05
0.00553336 0.000178707 0.000282697
0.00634751 0.000398591 -2.93752e-05
0.0059507 0.000303272 0.000205964
4.12589e-15 1.05501e-14 8.29607e-14
3.10422e-23 2.24983e-22 1.23839e-22
0.00620634 -0.000147811 -9.12681e-05
0.00623158 -1.23138e-05 0.000118968
0.00618058 -5.90616e-05 0.000536716
0.00616769 1.73554e-05 0.00046198
0.00572424 0.000417448 -5.42631e-05
0.00620465 0.000228272 2.891e-05
0.00560844 0.000272889 -0.00047822
0.00598842 0.000110672 -0.000430397
0.00624327 -0.000203682 0.000132741
0.00465531 0.000373644 3.75823e-05
0.00618567 -0.000146901 0.000116332
0.00620918 0.000284001 1.39678e-05
0.00615032 0.00033521 -0.000460469
0.00579937 0.000412637 -4.23899e-05
0.00564942 7.5927e-05 0.000384695
0.00610366 4.31321e-05 -0.00040529
0.00582701 0.000183254 -0.000476749
0.00579325 0.000461847 -5.70177e-05
0.00584905 0.000133851 -0.000433698
0.0055912 0.0002668 0.000197429
0.0059389 0.000116869 -0.000431041
0.00579004 0.000395461 -4.40286e-05
0.00573724 0.000173527 -0.000445792
0.00616314 4.955e-05 0.000114257
0.00583252 0.000144994 -0.000437445
0.00622083 0.0002822 -0.000144836
0.00626992 -0.000382284 -0.00017789
0.00625679 0.000326003 4.07249e-06
0.00610112 0.000144963 -0.000493722
0.00579228 0.00016565 -0.00044322
0.00617496 0.000451696 2.9087e-05
0.00616079 -8.47028e-05 0.000116839
0.00583025 0.000192411 -0.00049976
0.00629699 0.000309724 -1.12077e-05
0.0061143 4.86664e-05 -0.000408433
0.00619963 -0.000167612 0.000138115
0.00555515 0.000248807 0.000216129
0.00605974 0.00028908 0.00021057
0.00624306 -0.000131035 -0.000221632
0.00617866 -0.000101465 0.000117699
0.00569852 -4.85964e-05 0.000487068
0.00568956 0.000251183 -0.000481825
8.38431e-15 1.25122e-15 -8.48743e-14
0.00584599 0.00016658 0.000336504
0.00615426 -1.38658e-05 0.000115036
0.00567931 -4.99227e-05 0.000605498
0.00569808 -8.03335e-06 0.000455282
0.00629669 -0.000222115 2.89337e-05
-3.83774e-14 8.16392e-14 2.95889e-13
0.00618686 -0.000121833 0.000118961
0.00601226 0.000629559 -0.000116217
0.00587934 -0.00015613 -0.000158082
0.00614998 -2.71919e-05 0.000115492
0.00484931 0.000164623 0.000238899
0.00632964 -0.000233518 -0.000168655
0.00574646 0.000356627 -2.77425e-05
0.0056809 0.000257061 0.000214692
0.006155 -2.25698e-05 0.000115275
0.00637357 -0.000197933 -0.000160313
0.00690539 -4.53969e-05 -0.000757834
0.00611312 -0.000149665 0.000225821
0.00628993 0.000220766 3.24839e-05
0.00601287 7.57638e-05 0.000409368
0.00552448 -0.000421366 -4.25662e-05
0.00557848 0.000115924 0.000339958
0.00551971 0.000251604 0.00021638
0.00576435 0.000116721 0.000342124
0.0061675 -0.000112913 0.000117856
0.00615717 0.000182348 -0.000391725
0.00611949 -4.88282e-05 0.000477323
0.00612564 9.18288e-05 -0.000401396
0.0057106 7.08544e-05 0.000376149
0.00588669 0.000177665 -0.000446082
0.00584269 8.67447e-05 -0.000410478
0.00629511 0.00031562 1.33241e-06
0.00611147 -0.000318739 0.000275497
0.00596783 6.66512e-05 -0.00040784
0.00609569 5.28134e-05 0.000416276
0.00619744 0.000221736 3.18144e-05
1.53724e-15 -1.10121e-14 8.66683e-14
0.00621306 -0.000137223 0.000118142
0.00645265 9.91595e-05 0.000423411
0.00557634 -0.000322614 9.78994e-05
0.00615632 -3.3422e-05 0.000115738
0.00619296 -0.000171961 0.000122173
0.00473693 0.000344156 6.89007e-05
0.00626787 -0.000180524 0.000107825
0.00556224 0.000281216 -0.000488459
0.00599851 0.000286926 0.000223681
0.00625256 -0.000209354 -0.000198139
0.00451475 0.000188095 0.000193746
0.00563762 0.000233811 0.000230558
0.00630731 -0.000219621 -0.000164258
0.00597514 0.000976152 -0.000371257
0.0060067 0.000160552 -0.000455428
0.00587365 0.000190109 -0.000441083
0.00623145 -0.000166717 0.000120222
0.00632396 0.000307192 -4.85837e-06
0.00571928 0.000238369 -0.000478186
0.00610973 -0.000321464 0.000275685
0.00633581 -0.000239062 -0.000200462
0.00578567 0.000377443 -4.81797e-05
0.00582028 0.000257508 0.000235898
0.00557515 0.000285164 -0.000485891
0.00625148 -0.000160627 0.000114637
0.00593782 0.00162374 -0.000741801
0.00636361 0.00028272 5.28835e-06
0.00617239 5.41991e-05 0.000272507
-0.00175008 -0.01492 0.0035204
0.00602355 8.89963e-05 -0.00042189
0.00547713 0.000229795 0.00023386
0.00610628 -0.00033602 0.000277336
0.00555534 -0.000427766 -4.19684e-05
0.00618506 -0.000126776 0.000117187
0.00631228 4.21444e-05 0.00042797
0.00547943 -0.000416028 -4.73433e-05
0.00619749 -0.000248415 0.000196179
0.0062565 0.000329595 -4.50302e-06
0.00634716 -0.0002804 -0.000234609
0.00628545 6.74622e-05 0.000439835
0.0059577 0.000119197 0.000367919
0.00639883 -0.000640694 7.16985e-05
0.00511473 -0.000398238 -3.61901e-05
0.00536997 -0.000417187 -3.85164e-05
0.00564579 0.00029317 0.000184817
0.00524971 -0.000417949 -2.94405e-05
0.0054715 -0.00041388 -4.95308e-05
0.00613079 -2.17692e-05 0.000115073
0.00544117 0.000221309 0.000223022
0.00610849 -0.000326145 0.000276457
0.00566163 3.41185e-05 0.000417002
0.00554102 0.000289709 -0.000490394
0.00586337 -0.000309459 0.000265835
0.00610993 -0.000315271 0.000274669
0.00542109 -0.000408301 -5.05431e-05
0.00624864 -0.000219117 -0.000183771
0.00594701 9.09107e-05 0.000388331
0.00564203 0.000155583 0.000309676
0.0055744 0.000269971 0.000200472
0.00611155 -0.000356181 0.000220052
0.00544229 0.000289995 0.000181926
0.00583447 0.000152278 0.000329188
0.00538545 -0.000412099 -4.49477e-05
0.00614805 6.433e-06 0.00011447
0.00558447 -0.000403183 -6.4122e-06
0.00607907 0.000100528 0.000387319
0.00669871 0.000565233 3.68563e-05
0.00502174 0.000329541 0.00010847
0.0054702 0.000182833 0.000275885
0.00576639 0.00022221 -0.000469108
0.00618604 -4.45741e-05 0.000116656
0.00610424 -0.000342601 0.000280845
0.00580752 0.000221322 0.000266074
0.00610796 -0.000354858 0.000260107
0.00449226 0.000205196 0.000175748
0.00568986 0.000263234 0.000217893
0.00547635 0.000146095 0.00030712
0.00612603 -4.97996e-05 0.000115463
0.0061086 -0.000338464 0.000277555
0.00567931 -0.000465368 -9.30624e-06
0.00518778 0.000168765 0.000262432
0.00597632 -7.776e-06 0.000474546
0.00619831 -0.000137506 0.000118123
0.00585307 0.000123065 0.000355298
0.00554557 0.000164068 0.000295278
0.00596276 4.37433e-06 0.000465958
0.0061811 -0.000119155 0.000115733
0.00550066 0.000270347 0.000202761
0.00619655 -0.000290087 -0.000182871
0.00624342 -0.000102182 0.000116939
0.00577762 0.000188518 0.000292499
0.00610437 -0.000332868 0.000277121
0.00610904 9.11006e-05 0.000403013
0.00634774 0.000349047 4.48403e-06
0.00532972 -0.000422017 -3.17134e-05
0.00559941 -0.000256773 0.000246721
0.00577572 0.000215568 -0.000451006

VECTORS force float
-4.02065e-11 1.65722e-11 6.73845e-11
-1.52362e-11 6.96835e-11 -9.47771e-11
3.68702e-10 -3.81209e-10 -1.03388e-10
-6.39316e-11 -2.27686e-11 4.85817e-11
-4.51934e-11 5.4516e-11 1.65849e-10
2.62616e-11 -6.88207e-12 8.10867e-12
1.4631e-10 -7.54765e-11 -1.13803e-10
2.49453e-11 -2.74463e-11 1.60489e-10
-1.48397e-10 1.83054e-10 4.58424e-10
-6.18977e-11 8.18054e-11 -1.15743e-10
-1.01661e-10 4.61964e-12 2.38068e-10
2.93699e-12 2.28649e-11 -5.41605e-11
8.18771e-11 8.8549e-11 -1.57176e-10
6.84288e-11 3.78359e-10 -1.08701e-11
1.60451e-10 5.44127e-11 -2.90603e-11
-4.30825e-11 -1.01054e-10 1.50504e-11
-8.61125e-11 -1.51021e-10 7.43542e-11
1.18406e-10 -6.56809e-11 1.18421e-10
4.13626e-12 9.39126e-11 -4.87557e-11
-3.3225e-11 -3.46009e-11 -4.10548e-12
-2.5567e-10 -9.81218e-11 8.29711e-11
-7.15609e-11 2.43532e-11 -7.33902e-12
2.08852e-10 7.849e-11 -2.64732e-10
5.58425e-12 9.47801e-13 2.88205e-12
-4.46715e-10 -2.37773e-10 -8.37003e-13
-3.87562e-11 1.38182e-10 -1.27247e-10
-1.7385e-10 8.73997e-11 -1.73524e-10
1.06471e-10 4.00518e-10 3.65018e-10
3.13819e-10 -8.58657e-11 -4.90207e-10
9.19547e-11 -9.59434e-11 4.30704e-11
3.67375e-11 7.65188e-12 2.52006e-11
-1.00562e-11 -1.64952e-10 -1.38502e-10
-1.0983e-10 4.20575e-12 8.84367e-12
6.43227e-11 -4.35167e-11 7.77892e-12
-3.94149e-10 1.48367e-10 -9.03974e-11
4.39554e-11 6.65602e-11 -9.77485e-11
-1.86229e-12 3.11031e-11 -1.37512e-12
-1.84848e-10 5.16407e-11 -1.75654e-11
-1.63821e-24 5.16988e-25 0.0
-5.3944e-11 -1.69471e-10 1.26183e-10
-2.72538e-11 7.08611e-12 -3.08291e-11
-6.7656e-12 6.6453e-12 2.48312e-11
1.42162e-10 9.22321e-11 -2.33612e-11
-1.44008e-10 7.4174e-11 -9.8309e-11
-1.28552e-11 -2.78724e-11 -3.40034e-10
2.56862e-10 4.8099e-10 -2.92701e-10
1.13245e-11 -2.96037e-11 1.36325e-11
-7.84002e-10 2.26567e-10 -9.9743e-11
-2.31497e-10 -9.8372e-11 1.26974e-09
-3.41223e-11 2.63223e-10 -1.15892e-10
-1.51832e-11 2.60892e-11 -2.15995e-11
1.74919e-11 -6.99486e-11 -5.15382e-11
-2.46335e-10 1.62137e-10 -6.45832e-11
1.62837e-10 2.33879e-12 -3.95826e-11
2.38591e-10 6.36647e-12 -1.63244e-11
-9.96704e-12 2.808e-12 -1.01545e-12
8.00914e-10 9.74584e-11 1.55617e-10
5.46691e-10 3.10375e-11 1.01588e-09
-2.01706e-11 1.71182e-10 -1.44514e-10
1.17509e-10 -2.87396e-11 2.26177e-12
-1.11767e-10 -1.08498e-10 -1.72727e-10
-2.90041e-11 -1.37363e-11 4.64977e-11
2.28842e-11 3.73187e-10 -5.35032e-10
-7.89904e-11 -2.66218e-11 -3.63972e-10
-7.37182e-11 -2.24988e-10 1.71484e-10
2.19942e-10 2.5858e-10 4.11706e-11
1.07481e-10 -4.4072e-11 -1.20955e-11
1.59386e-11 7.87277e-12 2.43903e-11
2.53473e-12 1.00678e-10 7.85889e-12
6.43814e-11 8.85766e-11 -6.20095e-11
3.24596e-11 2.22716e-10 -7.30679e-11
-5.32012e-11 -1.5522e-10 -3.07118e-12
-1.38633e-10 4.549e-13 1.2049e-11
1.5121e-10 -3.89972e-11 -5.44398e-11
-1.87506e-11 -6.80805e-12 4.97724e-12
3.60669e-10 -1.94801e-10 3.01343e-11
2.07162e-11 -9.50888e-12 2.77972e-11
-2.61975e-11 7.32589e-11 -2.48995e-11
-1.74706e-10 5.43483e-11 -8.78394e-12
6.68641e-11 1.26222e-10 -5.77472e-11
-8.48453e-11 -1.28031e-10 -1.91742e-10
3.37045e-10 3.6995e-11 -3.3973e-11
-5.40961e-11 3.0158e-10 -1.24199e-10
8.36791e-11 5.58132e-11 1.4554e-10
1.84302e-10 2.83775e-10 1.035e-10
-1.54828e-11 3.54045e-11 -9.40331e-11
-2.49983e-10 3.56833e-11 6.56274e-11
7.2944e-10 -9.02109e-12 -6.26227e-11
-1.5005e-10 1.25349e-10 -8.15162e-11
5.8188e-10 1.16629e-10 9.77056e-11
1.09122e-10 3.06593e-10 -4.72308e-11
4.16088e-11 5.57727e-11 -1.68411e-11
-1.65269e-21 9.89592e-22 -4.1359e-23
0.0 0.0 0.0
-7.17656e-11 4.49124e-10 -5.45125e-11
9.04133e-10 -7.79133e-10 9.36559e-12
6.75096e-10 -1.59737e-10 2.40081e-10
4.97006e-10 -4.85938e-10 3.58409e-10
1.07057e-10 -1.12003e-10 1.30895e-10
-1.96669e-10 -1.50835e-10 6.64127e-11
-2.16696e-10 2.33485e-11 9.11499e-11
4.18975e-11 -1.01718e-11 4.19002e-12
2.66616e-10 1.57072e-10 1.49813e-10
5.36016e-10 -4.0995e-10 3.6294e-10
-3.98009e-12 -2.81946e-10 9.54396e-12
-8.1894e-11 1.29503e-10 -2.6303e-11
-1.00243e-09 -1.94725e-10 3.36277e-10
3.41382e-12 1.66572e-10 3.27859e-11
2.84808e-10 -1.15227e-09 1.04744e-09
-6.58355e-11 2.59446e-11 -2.26554e-12