# vtk DataFile Version 3.0
LIGGGHTS particles timestep 29400000
ASCII
DATASET POLYDATA
POINTS 271 float
0.183911 0.0154476 0.00865266
0.184807 0.0179137 0.00696542
0.178886 0.0178692 0.00706998
0.184847 0.0176847 0.00708835
0.183893 0.0153998 0.00873873
0.190332 0.0169864 0.00741561
0.183988 0.0156745 0.00833589
0.183872 0.0153517 0.00882397
0.190449 0.0174838 0.00711385
0.184466 0.0175717 0.00716021
0.184598 0.0177707 0.00704671
0.178007 0.0158112 0.00833538
0.183815 0.0152085 0.00907992
0.178678 0.0186068 0.00694523
0.184828 0.0175989 0.00713622
0.178786 0.0186575 0.00694043
0.184866 0.0177706 0.0070404
0.183855 0.0153131 0.00891455
0.184428 0.0173967 0.00724891
0.184636 0.0175411 0.0071732
0.17825 0.016344 0.00785752
0.190529 0.0178644 0.00702038
0.184047 0.0158913 0.00813705
0.190409 0.017301 0.0071811
0.179007 0.0180058 0.00705179
0.18477 0.0177409 0.0070591
0.184007 0.0157458 0.00826855
0.184522 0.0178289 0.0070163
0.184066 0.015964 0.00807131
0.184514 0.0170167 0.00744546
0.190354 0.0170644 0.00735692
0.183968 0.0156049 0.00840489
0.184674 0.017312 0.00729846
0.19051 0.0177691 0.00704378
0.184713 0.0183287 0.00689291
0.184771 0.0186228 0.00686773
0.190549 0.0179596 0.00699698
0.184885 0.0178568 0.00699233
0.321436 0.0173475 0.00552525
0.184789 0.0178268 0.00701118
0.190373 0.0171429 0.00729804
0.18393 0.0154962 0.00856743
0.184751 0.0185241 0.00687522
0.184108 0.0161091 0.00794007
0.184086 0.0160368 0.00800568
0.177928 0.0155204 0.00859833
0.19049 0.0176739 0.00706717
0.184598 0.0181984 0.00690307
0.177869 0.0152995 0.00879268
0.184732 0.0184264 0.00688406
0.190393 0.0172213 0.00723919
0.184617 0.017455 0.00722075
0.184396 0.0169004 0.0075
0.184997 0.0184264 0.00688893
0.184809 0.0175131 0.00718412
0.190569 0.0180548 0.00697358
0.178197 0.0164639 0.0077458
0.17785 0.0152249 0.00885641
0.18475 0.0180688 0.00691806
0.184559 0.0171935 0.00735723
0.184618 0.0182961 0.00689423
0.190429 0.0173887 0.00713718
0.177908 0.0154476 0.00866409
0.184654 0.0180354 0.00691945
0.184676 0.0185897 0.00686946
0.184808 0.0183619 0.00689153
0.17891 0.0184203 0.00698231
0.184693 0.0173977 0.00725065
0.178659 0.0185098 0.00696017
0.177967 0.0156659 0.00846678
0.184845 0.0181013 0.00691675
0.178842 0.0187393 0.00692906
0.178027 0.0158838 0.00826978
0.17872 0.0183556 0.00698682
0.19047 0.0175789 0.00709051
0.178906 0.0179666 0.00705499
0.184919 0.01797 0.00693048
0.184847 0.0185573 0.00687384
0.184279 0.0167846 0.00755428
0.184827 0.0184596 0.00688269
0.184693 0.0177981 0.00702933
0.178946 0.0181613 0.00702497
0.184789 0.0182641 0.00690038
0.184151 0.0162624 0.00781952
0.18458 0.0176847 0.00709465
0.184542 0.0175138 0.00719114
0.184171 0.0163481 0.00777208
0.178315 0.0165617 0.00766084
0.184675 0.0177123 0.00707716
0.178415 0.0169305 0.00733337
0.184903 0.0183941 0.00689023
0.177987 0.0157385 0.00840106
0.0643568 0.0187248 0.00531097
0.24257 0.0191927 0.00520306
0.17862 0.0178715 0.00706297
0.178961 0.0178039 0.00708277
0.178846 0.0176779 0.00711307
0.178826 0.0175838 0.00714011
0.184637 0.0183938 0.00688539
0.18479 0.0174274 0.00723196
0.184193 0.0164353 0.00772866
0.184522 0.0174271 0.00723696
0.178682 0.0181616 0.00701673
0.178282 0.016754 0.00748379
0.178639 0.0184129 0.00697512
0.184751 0.0176551 0.00710696
0.184578 0.0181007 0.00691192
0.184715 0.0187861 0.00685713
0.178483 0.0176493 0.00712864
0.184713 0.0174837 0.00720266
0.184027 0.0158185 0.00820281
0.183948 0.0155434 0.00848129
0.184484 0.0172513 0.00732489
0.178443 0.0174659 0.00718133
0.184503 0.0173393 0.00728088
0.184791 0.0187206 0.00686018
0.184418 0.0169877 0.00745641
0.178981 0.0179014 0.00706776
0.184462 0.0171628 0.00736904
0.184616 0.0178566 0.0069988
0.178866 0.0177722 0.00708598
0.184712 0.0178847 0.00698301
0.184486 0.0176582 0.00711386
0.18444 0.0170754 0.00741269
0.183835 0.0152564 0.00899435
0.178698 0.0187037 0.00693029
0.184127 0.016183 0.00787557
0.184558 0.018001 0.00692093
0.184656 0.0176267 0.00712511
0.178701 0.0182586 0.00700178
0.178423 0.0173719 0.00720836
0.177889 0.0153743 0.0087293
0.178542 0.0179335 0.00706962
0.178761 0.0185511 0.00695671
0.17851 0.0169596 0.00732316
0.184301 0.0168721 0.00751105
0.0100679 0.0201683 0.00551526
0.178382 0.0171837 0.00726242
0.178737 0.0188975 0.00690041
0.178504 0.0177464 0.00711626
0.17871 0.0174589 0.00717783
0.178662 0.0180646 0.00703169
0.0219312 0.0187687 0.00551176
0.17889 0.0183232 0.00699729
0.184922 0.0184918 0.00688139
0.178522 0.0178357 0.00707531
0.178812 0.0188334 0.00691305
0.178379 0.0167799 0.00746383
0.178717 0.0179025 0.00705939
0.184657 0.0184916 0.00687653
0.178436 0.0170248 0.00730626
0.17891 0.0186672 0.00694273
0.178792 0.0178373 0.00707216
0.18454 0.0179149 0.00696838
0.178697 0.0178069 0.00708057
0.184825 0.0180037 0.00692558
0.178731 0.017554 0.00715048
0.172208 0.0167429 0.00812277
0.178552 0.0171482 0.00726896
0.178477 0.0172129 0.0072522
0.178561 0.0175887 0.00714416
0.178834 0.0184851 0.00696959
0.184504 0.017743 0.00706422
0.178771 0.0177423 0.00709639
0.184561 0.017599 0.00714251
0.178362 0.0170896 0.00728945
0.184408 0.0173088 0.00729272
0.184536 0.0171042 0.0074018
0.184731 0.0179731 0.00694018
0.172726 0.0188421 0.00684039
0.184578 0.0172818 0.00731309
0.178676 0.0177126 0.00710676
0.184732 0.0175694 0.00715483
0.161461 0.0182058 0.00533758
0.178871 0.0182263 0.00701223
0.178272 0.0164164 0.00779208
0.172407 0.0174668 0.00760515
0.178717 0.0188006 0.00691535
0.17862 0.0183159 0.00699007
0.178261 0.0166815 0.00754937
0.178757 0.0180967 0.00702948
0.184214 0.0165233 0.00768584
0.177947 0.0155931 0.00853255
0.178832 0.0180317 0.00704222
0.178336 0.0166343 0.00759526
0.178457 0.0171188 0.00727923
0.178642 0.0179677 0.00704662
0.175534 0.0181804 0.00703216
0.184447 0.0174844 0.00720485
0.184388 0.0172213 0.00733636
0.178776 0.018194 0.00701448
0.184693 0.0182309 0.00690176
0.184323 0.0169593 0.00746711
0.172706 0.0187462 0.00686753
0.178737 0.0179996 0.00704443
0.184696 0.0186878 0.0068633
0.178048 0.0159567 0.00820447
0.18426 0.0166989 0.00760207
0.178851 0.0181291 0.00702721
0.238461 0.0175319 0.00706645
0.184769 0.0181664 0.00690934
0.178602 0.017777 0.00709008
0.109708 0.0177796 0.00781681
0.184598 0.0173694 0.00726855
0.178403 0.0172778 0.00723539
0.172648 0.0184609 0.00694829
0.172242 0.016865 0.00803836
0.178815 0.0183879 0.00698458
0.178218 0.0165365 0.00768026
0.172186 0.0166544 0.00816399
0.1786 0.0182197 0.00700909
0.184635 0.0179423 0.00695097
0.178812 0.0179345 0.0070572
0.178176 0.0163914 0.00781124
0.178134 0.0162466 0.00794286
0.172013 0.0159464 0.00849388
0.172035 0.0160349 0.00845264
0.1721 0.0163004 0.00832893
0.178467 0.0175631 0.00717652
0.172057 0.0161234 0.00841141
0.172165 0.0165659 0.00820522
0.179003 0.0184546 0.00697971
0.17824 0.0166095 0.00761538
0.172687 0.018651 0.00689446
0.178531 0.0170541 0.00729599
0.184236 0.0166104 0.00764206
0.172561 0.018038 0.00719439
0.172745 0.018938 0.00681323
0.172143 0.0164774 0.00824646
0.178561 0.0180253 0.00703487
0.178656 0.0176184 0.0071338
0.178614 0.0174302 0.0071879
0.178518 0.017401 0.00719815
0.172578 0.0181189 0.00713728
0.178323 0.0169097 0.00736541
0.178112 0.0161739 0.0080077
0.172121 0.0163889 0.0082877
0.178756 0.0189945 0.00688547
0.172305 0.0170943 0.00787333
0.178581 0.017683 0.0071171
0.178293 0.0164891 0.0077264
0.178303 0.0168291 0.00742135
0.178593 0.0173363 0.00721491
0.184344 0.0170466 0.00742353
0.178855 0.0185851 0.00695418
0.172612 0.0182826 0.00702704
0.178069 0.0160289 0.00813869
0.172595 0.0181999 0.00708055
0.178357 0.0167069 0.00752972
0.178341 0.0169964 0.00731914
0.178539 0.017495 0.00717114
0.178933 0.0185244 0.00696634
0.172629 0.0183663 0.00697504
0.171992 0.0158579 0.00853512
0.178398 0.0168529 0.00739774
0.178751 0.0176482 0.00712343
0.178796 0.0182909 0.00699953
0.178636 0.0175241 0.00716092
0.178572 0.0172423 0.00724193
0.178229 0.0162715 0.00792301
0.17874 0.0184526 0.00697187
0.178498 0.017307 0.00722516
0.178581 0.0181222 0.00701995
0.178926 0.0180641 0.00703995
0.178091 0.0161016 0.00807338
0.172668 0.0185558 0.0069214
0.178154 0.0163189 0.00787673
0.184674 0.0181333 0.0069106
0.172078 0.0162119 0.00837017
0.172541 0.017958 0.00725164
0.184366 0.017134 0.00737995

VERTICES 271 542
1 0
1 1
1 2
1 3
1 4
1 5
1 6
1 7
1 8
1 9
1 10
1 11
1 12
1 13
1 14
1 15
1 16
1 17
1 18
1 19
1 20
1 21
1 22
1 23
1 24
1 25
1 26
1 27
1 28
1 29
1 30
1 31
1 32
1 33
1 34
1 35
1 36
1 37
1 38
1 39
1 40
1 41
1 42
1 43
1 44
1 45
1 46
1 47
1 48
1 49
1 50
1 51
1 52
1 53
1 54
1 55
1 56
1 57
1 58
1 59
1 60
1 61
1 62
1 63
1 64
1 65
1 66
1 67
1 68
1 69
1 70
1 71
1 72
1 73
1 74
1 75
1 76
1 77
1 78
1 79
1 80
1 81
1 82
1 83
1 84
1 85
1 86
1 87
1 88
1 89
1 90
1 91
1 92
1 93
1 94
1 95
1 96
1 97
1 98
1 99
1 100
1 101
1 102
1 103
1 104
1 105
1 106
1 107
1 108
1 109
1 110
1 111
1 112
1 113
1 114
1 115
1 116
1 117
1 118
1 119
1 120
1 121
1 122
1 123
1 124
1 125
1 126
1 127
1 128
1 129
1 130
1 131
1 132
1 133
1 134
1 135
1 136
1 137
1 138
1 139
1 140
1 141
1 142
1 143
1 144
1 145
1 146
1 147
1 148
1 149
1 150
1 151
1 152
1 153
1 154
1 155
1 156
1 157
1 158
1 159
1 160
1 161
1 162
1 163
1 164
1 165
1 166
1 167
1 168
1 169
1 170
1 171
1 172
1 173
1 174
1 175
1 176
1 177
1 178
1 179
1 180
1 181
1 182
1 183
1 184
1 185
1 186
1 187
1 188
1 189
1 190
1 191
1 192
1 193
1 194
1 195
1 196
1 197
1 198
1 199
1 200
1 201
1 202
1 203
1 204
1 205
1 206
1 207
1 208
1 209
1 210
1 211
1 212
1 213
1 214
1 215
1 216
1 217
1 218
1 219
1 220
1 221
1 222
1 223
1 224
1 225
1 226
1 227
1 228
1 229
1 230
1 231
1 232
1 233
1 234
1 235
1 236
1 237
1 238
1 239
1 240
1 241
1 242
1 243
1 244
1 245
1 246
1 247
1 248
1 249
1 250
1 251
1 252
1 253
1 254
1 255
1 256
1 257
1 258
1 259
1 260
1 261
1 262
1 263
1 264
1 265
1 266
1 267
1 268
1 269
1 270

POINT_DATA 271
SCALARS id int 1
LOOKUP_TABLE default
1
2
3
4
5
6
7
8
9
10
11
12
13
14
15
16
17
19
21
22
23
24
25
26
27
28
29
30
31
32
33
34
35
36
37
38
39
41
42
44
45
47
48
50
51
52
53
54
55
56
57
59
61
62
63
64
65
66
67
68
69
70
71
72
73
74
76
77
78
79
80
81
82
83
84
85
86
87
88
89
90
91
92
93
94
95
96
97
98
99
100
101
102
103
104
105
106
107
108
109
110
111
112
113
114
115
116
117
118
119
120
121
122
123
124
125
126
127
128
129
131
132
133
134
135
136
137
138
140
141
142
143
144
147
148
149
150
151
153
154
155
156
157
158
159
160
162
164
165
166
168
169
170
171
172
173
174
175
177
178
179
181
182
183
184
186
187
188
189
190
191
192
193
194
195
196
197
198
199
201
202
203
204
205
206
207
208
209
210
211
212
213
214
215
216
217
218
219
220
221
222
223
224
225
226
227
228
229
230
231
232
234
235
236
237
239
240
241
242
244
246
247
248
249
250
251
252
253
254
255
256
257
258
259
261
262
263
264
265
266
267
268
269
270
271
272
273
274
275
276
277
278
280
283
284
285
286
287
288
289
290
291
292
293
294
295
296
297
298
299
300

SCALARS type int 1
LOOKUP_TABLE default
1
1
1
1
1
1
1
1
1
1
1
1
1
1
1
1
1
1
1
1
1
1
1
1
1
1
1
1
1
1
1
1
1
1
1
1
1
1
1
1
1
1
1
1
1
1
1
1
1
1
1
1
1
1
1
1
1
1
1
1
1
1
1
1
1
1
1
1
1
1
1
1
1
1
1
1
1
1
1
1
1
1
1
1
1
1
1
1
1
1
1
1
1
1
1
1
1
1
1
1
1
1
1
1
1
1
1
1
1
1
1
1
1
1
1
1
1
1
1
1
1
1
1
1
1
1
1
1
1
1
1
1
1
1
1
1
1
1
1
1
1
1
1
1
1
1
1
1
1
1
1
1
1
1
1
1
1
1
1
1
1
1
1
1
1
1
1
1
1
1
1
1
1
1
1
1
1
1
1
1
1
1
1
1
1
1
1
1
1
1
1
1
1
1
1
1
1
1
1
1
1
1
1
1
1
1
1
1
1
1
1
1
1
1
1
1
1
1
1
1
1
1
1
1
1
1
1
1
1
1
1
1
1
1
1
1
1
1
1
1
1
1
1
1
1
1
1
1
1
1
1
1
1
1
1
1
1
1
1
1
1
1
1
1
1
1
1
1
1
1
1

SCALARS radius float 1
LOOKUP_TABLE default
5e-05
5e-05
5e-05
5e-05
5e-05
5e-05
5e-05
5e-05
5e-05
5e-05
5e-05
5e-05
5e-05
5e-05
5e-05
5e-05
5e-05
5e-05
5e-05
5e-05
5e-05
5e-05
5e-05
5e-05
5e-05
5e-05
5e-05
5e-05
5e-05
5e-05
5e-05
5e-05
5e-05
5e-05
5e-05
5e-05
5e-05
5e-05
5e-05
5e-05
5e-05
5e-05
5e-05
5e-05
5e-05
5e-05
5e-05
5e-05
5e-05
5e-05
5e-05
5e-05
5e-05
5e-05
5e-05
5e-05
5e-05
5e-05
5e-05
5e-05
5e-05
5e-05
5e-05
5e-05
5e-05
5e-05
5e-05
5e-05
5e-05
5e-05
5e-05
5e-05
5e-05
5e-05
5e-05
5e-05
5e-05
5e-05
5e-05
5e-05
5e-05
5e-05
5e-05
5e-05
5e-05
5e-05
5e-05
5e-05
5e-05
5e-05
5e-05
5e-05
5e-05
5e-05
5e-05
5e-05
5e-05
5e-05
5e-05
5e-05
5e-05
5e-05
5e-05
5e-05
5e-05
5e-05
5e-05
5e-05
5e-05
5e-05
5e-05
5e-05
5e-05
5e-05
5e-05
5e-05
5e-05
5e-05
5e-05
5e-05
5e-05
5e-05
5e-05
5e-05
5e-05
5e-05
5e-05
5e-05
5e-05
5e-05
5e-05
5e-05
5e-05
5e-05
5e-05
5e-05
5e-05
5e-05
5e-05
5e-05
5e-05
5e-05
5e-05
5e-05
5e-05
5e-05
5e-05
5e-05
5e-05
5e-05
5e-05
5e-05
5e-05
5e-05
5e-05
5e-05
5e-05
5e-05
5e-05
5e-05
5e-05
5e-05
5e-05
5e-05
5e-05
5e-05
5e-05
5e-05
5e-05
5e-05
5e-05
5e-05
5e-05
5e-05
5e-05
5e-05
5e-05
5e-05
5e-05
5e-05
5e-05
5e-05
5e-05
5e-05
5e-05
5e-05
5e-05
5e-05
5e-05
5e-05
5e-05
5e-05
5e-05
5e-05
5e-05
5e-05
5e-05
5e-05
5e-05
5e-05
5e-05
5e-05
5e-05
5e-05
5e-05
5e-05
5e-05
5e-05
5e-05
5e-05
5e-05
5e-05
5e-05
5e-05
5e-05
5e-05
5e-05
5e-05
5e-05
5e-05
5e-05
5e-05
5e-05
5e-05
5e-05
5e-05
5e-05
5e-05
5e-05
5e-05
5e-05
5e-05
5e-05
5e-05
5e-05
5e-05
5e-05
5e-05
5e-05
5e-05
5e-05
5e-05
5e-05
5e-05
5e-05
5e-05
5e-05
5e-05
5e-05
5e-05
5e-05
5e-05
5e-05
5e-05
5e-05
5e-05
5e-05
5e-05
5e-05
5e-05
5e-05
5e-05
5e-05
5e-05
5e-05
5e-05
5e-05
5e-05
5e-05
5e-05
5e-05

SCALARS mass float 1
LOOKUP_TABLE default
1.46608e-10
1.46608e-10
1.46608e-10
1.46608e-10
1.46608e-10
1.46608e-10
1.46608e-10
1.46608e-10
1.46608e-10
1.46608e-10
1.46608e-10
1.46608e-10
1.46608e-10
1.46608e-10
1.46608e-10
1.46608e-10
1.46608e-10
1.46608e-10
1.46608e-10
1.46608e-10
1.46608e-10
1.46608e-10
1.46608e-10
1.46608e-10
1.46608e-10
1.46608e-10
1.46608e-10
1.46608e-10
1.46608e-10
1.46608e-10
1.46608e-10
1.46608e-10
1.46608e-10
1.46608e-10
1.46608e-10
1.46608e-10
1.46608e-10
1.46608e-10
1.46608e-10
1.46608e-10
1.46608e-10
1.46608e-10
1.46608e-10
1.46608e-10
1.46608e-10
1.46608e-10
1.46608e-10
1.46608e-10
1.46608e-10
1.46608e-10
1.46608e-10
1.46608e-10
1.46608e-10
1.46608e-10
1.46608e-10
1.46608e-10
1.46608e-10
1.46608e-10
1.46608e-10
1.46608e-10
1.46608e-10
1.46608e-10
1.46608e-10
1.46608e-10
1.46608e-10
1.46608e-10
1.46608e-10
1.46608e-10
1.46608e-10
1.46608e-10
1.46608e-10
1.46608e-10
1.46608e-10
1.46608e-10
1.46608e-10
1.46608e-10
1.46608e-10
1.46608e-10
1.46608e-10
1.46608e-10
1.46608e-10
1.46608e-10
1.46608e-10
1.46608e-10
1.46608e-10
1.46608e-10
1.46608e-10
1.46608e-10
1.46608e-10
1.46608e-10
1.46608e-10
1.46608e-10
1.46608e-10
1.46608e-10
1.46608e-10
1.46608e-10
1.46608e-10
1.46608e-10
1.46608e-10
1.46608e-10
1.46608e-10
1.46608e-10
1.46608e-10
1.46608e-10
1.46608e-10
1.46608e-10
1.46608e-10
1.46608e-10
1.46608e-10
1.46608e-10
1.46608e-10
1.46608e-10
1.46608e-10
1.46608e-10
1.46608e-10
1.46608e-10
1.46608e-10
1.46608e-10
1.46608e-10
1.46608e-10
1.46608e-10
1.46608e-10
1.46608e-10
1.46608e-10
1.46608e-10
1.46608e-10
1.46608e-10
1.46608e-10
1.46608e-10
1.46608e-10
1.46608e-10
1.46608e-10
1.46608e-10
1.46608e-10
1.46608e-10
1.46608e-10
1.46608e-10
1.46608e-10
1.46608e-10
1.46608e-10
1.46608e-10
1.46608e-10
1.46608e-10
1.46608e-10
1.46608e-10
1.46608e-10
1.46608e-10
1.46608e-10
1.46608e-10
1.46608e-10
1.46608e-10
1.46608e-10
1.46608e-10
1.46608e-10
1.46608e-10
1.46608e-10
1.46608e-10
1.46608e-10
1.46608e-10
1.46608e-10
1.46608e-10
1.46608e-10
1.46608e-10
1.46608e-10
1.46608e-10
1.46608e-10
1.46608e-10
1.46608e-10
1.46608e-10
1.46608e-10
1.46608e-10
1.46608e-10
1.46608e-10
1.46608e-10
1.46608e-10
1.46608e-10
1.46608e-10
1.46608e-10
1.46608e-10
1.46608e-10
1.46608e-10
1.46608e-10
1.46608e-10
1.46608e-10
1.46608e-10
1.46608e-10
1.46608e-10
1.46608e-10
1.46608e-10
1.46608e-10
1.46608e-10
1.46608e-10
1.46608e-10
1.46608e-10
1.46608e-10
1.46608e-10
1.46608e-10
1.46608e-10
1.46608e-10
1.46608e-10
1.46608e-10
1.46608e-10
1.46608e-10
1.46608e-10
1.46608e-10
1.46608e-10
1.46608e-10
1.46608e-10
1.46608e-10
1.46608e-10
1.46608e-10
1.46608e-10
1.46608e-10
1.46608e-10
1.46608e-10
1.46608e-10
1.46608e-10
1.46608e-10
1.46608e-10
1.46608e-10
1.46608e-10
1.46608e-10
1.46608e-10
1.46608e-10
1.46608e-10
1.46608e-10
1.46608e-10
1.46608e-10
1.46608e-10
1.46608e-10
1.46608e-10
1.46608e-10
1.46608e-10
1.46608e-10
1.46608e-10
1.46608e-10
1.46608e-10
1.46608e-10
1.46608e-10
1.46608e-10
1.46608e-10
1.46608e-10
1.46608e-10
1.46608e-10
1.46608e-10
1.46608e-10
1.46608e-10
1.46608e-10
1.46608e-10
1.46608e-10
1.46608e-10
1.46608e-10
1.46608e-10
1.46608e-10
1.46608e-10
1.46608e-10
1.46608e-10
1.46608e-10
1.46608e-10
1.46608e-10
1.46608e-10
1.46608e-10
1.46608e-10
1.46608e-10
1.46608e-10
1.46608e-10
1.46608e-10
1.46608e-10
1.46608e-10
1.46608e-10
1.46608e-10

VECTORS velocity float
0.00551251 0.000205038 0.000262636
0.00567068 -2.45016e-05 -2.407e-05
0.00549245 -0.000486898 0.000245361
0.00584215 1.13517e-05 -0.000142919
0.00546897 0.000199271 0.000247117
0.0060844 -0.000598501 0.000135724
0.00563892 -6.63729e-05 3.06676e-05
0.00548628 0.00020445 0.000256429
0.00574459 -0.000454202 0.000238428
0.00575065 -0.000157039 7.19485e-05
0.00560927 -1.74273e-05 -0.000116977
0.00561857 -0.000363213 0.000546544
0.00555658 0.0001897 0.000290376
0.00547263 -0.000557612 0.000259709
0.00588341 -1.32983e-06 -0.000137916
0.00545113 -0.00061154 0.000266981
0.00561917 -0.000128623 -6.1264e-05
0.00550066 0.000210264 0.000264787
0.00567229 1.33621e-05 0.000287075
0.00587331 -0.000112879 -8.37517e-05
0.00595662 -0.000469619 0.000657106
0.00554556 -0.000419537 0.000225961
0.0056302 -0.000187228 -0.000138991
0.00569201 -0.000483476 0.000156694
0.00538597 -0.000543702 0.000254587
0.00579204 -3.70727e-05 -0.000115687
0.00564105 -0.00015939 -8.20808e-05
0.00561467 -0.000193314 -2.78988e-05
0.00567981 -0.000193265 -0.000132929
0.0061162 -5.60553e-05 0.000269244
0.00610511 -0.000601416 0.000136893
0.00564968 9.78381e-05 0.000210042
0.00593177 -0.000121304 -6.98534e-05
0.00548796 -0.000407425 0.000221354
0.00564878 5.57997e-05 9.85142e-05
0.00565635 6.93806e-06 4.21708e-05
0.0055715 -0.000425317 0.000226725
0.00565636 -8.54675e-05 -8.16121e-05
4.54692e-16 2.25536e-15 8.46361e-14
0.00567499 -7.13822e-05 -9.89993e-05
0.00556118 -0.000502604 9.07767e-05
0.00557684 0.000211879 0.000285211
0.00564924 5.67165e-05 9.89103e-05
0.0060288 -0.00026087 -8.8007e-05
0.00582762 -0.000227412 -0.000123008
0.00543854 -0.000342363 0.000517104
0.00576813 -0.000461121 0.000240621
0.00563915 0.000100576 9.3192e-05
0.00545637 -0.000491045 0.000397928
0.00564993 5.62316e-05 9.86852e-05
0.00558985 -0.000508702 9.29345e-05
0.00589858 -0.000141663 -6.42019e-05
0.00615183 -3.67327e-05 0.000260947
0.00566692 3.25844e-05 0.000101165
0.00588344 -4.19483e-05 -0.000115275
0.00559667 -0.000430005 0.0002298
0.00600759 -0.00045435 0.000644216
0.00548423 -0.000487302 0.000404465
0.00562332 4.77267e-05 0.000102042
0.00631956 0.000334138 7.98493e-05
0.00564709 0.000113528 9.29894e-05
0.00573138 -0.00045099 0.000237616
0.0054322 -0.000346557 0.000530009
0.00581412 -2.2217e-05 0.000110825
0.00564866 4.3313e-05 -7.05223e-05
0.00564469 4.73622e-05 9.86858e-05
0.00534374 -0.000647253 0.000269246
0.00590779 -0.00013329 -6.57532e-05
0.00543756 -0.000594174 0.000262862
0.00549053 -0.000340465 0.000522202
0.00562888 6.32497e-05 9.59481e-05
0.00549519 -0.00066317 0.000269996
0.00574064 -0.000380553 0.000568278
0.00536955 -0.000621084 0.000265532
0.00575543 -0.000458376 0.000239921
0.00549113 -0.00045607 0.000242507
0.00563036 -5.20641e-05 0.000108918
0.00567354 3.70659e-05 9.96902e-05
0.0061515 -3.59823e-05 0.000261972
0.00566958 4.17953e-05 0.000100405
0.00572998 -9.48652e-05 -9.48327e-05
0.00532599 -0.000589592 0.000260102
0.00561365 5.00204e-05 9.77949e-05
0.00619423 -9.02777e-05 0.000201314
0.00575954 -0.000139183 -5.92761e-05
0.00588595 -0.000167079 -7.62281e-05
0.00616826 -4.36471e-05 0.000269484
0.00618316 -0.000364385 0.000569005
0.00576387 -0.000104999 -7.92451e-05
0.00559913 -0.000624752 6.35631e-05
0.00565856 3.85979e-05 0.000100091
0.00552847 -0.000348701 0.000530428
4.22741e-15 1.05175e-14 8.29598e-14
9.7161e-23 -1.27651e-22 1.23839e-22
0.00550845 -0.00063661 6.70058e-05
0.00551004 -0.000369135 0.000237255
0.00559308 -0.000590927 5.53301e-05
0.00558932 -0.000613016 5.78903e-05
0.00564276 5.51221e-05 9.84136e-05
0.00593585 -3.70486e-05 -0.000119568
0.00616927 -3.81625e-05 0.000261266
0.00565991 3.59324e-05 0.00020126
0.00535577 -0.000632527 0.000267552
0.00613067 -0.000448025 0.000651038
0.00540188 -0.000606076 0.000263934
0.00580723 -7.45135e-05 -9.56041e-05
0.00577179 -5.99866e-05 0.000110968
0.00568008 -2.61253e-05 -6.65422e-05
0.00566716 -0.000715125 8.38304e-05
0.00590426 -7.46245e-05 -9.83595e-05
0.00563559 -0.000183061 -0.000124534
0.00564172 0.000198089 0.000291902
0.00614032 0.000148442 0.00017213
0.00560547 -0.00068684 7.93813e-05
0.00585045 0.000194023 0.000134469
0.00568961 -1.20979e-05 -6.6356e-05
0.006173 -1.56593e-05 0.000251213
0.00548116 -0.000465666 0.000244684
0.00611309 -5.64969e-05 0.000269246
0.00554432 -2.96587e-05 -0.000119973
0.00553565 -0.000542386 3.30633e-05
0.00568561 -4.54333e-05 -4.72868e-05
0.00578246 -0.000220044 -2.87989e-05
0.0061204 -5.39946e-05 0.000268713
0.00559747 0.000193916 0.00028975
0.00549506 -0.000533728 0.0002567
0.00615386 -0.000211809 1.15039e-05
0.0057725 -2.20207e-05 0.0001061
0.00581152 -0.000101208 -8.00406e-05
0.00535941 -0.000630729 0.000267182
0.00561314 -0.000684288 7.8016e-05
0.00544107 -0.000406339 0.000483563
0.00551245 -0.000649034 0.000231419
0.00545505 -0.000574998 0.000261421
0.00559159 -0.000652891 7.07521e-05
0.00613996 -4.19951e-05 0.000262603
8.38342e-15 1.24725e-15 -8.48745e-14
0.00561813 -0.000680795 7.60665e-05
0.00547614 -0.000695671 0.000278854
0.0056059 -0.000698771 0.000105796
0.00566558 -0.000732647 9.00675e-05
0.00533061 -0.000649512 0.00026676
-3.82887e-14 8.16943e-14 2.95886e-13
0.00529079 -0.000658879 0.000269802
0.00567439 4.02233e-05 0.000100629
0.00552194 -0.000655991 0.000160183
0.00547111 -0.000685308 0.000284218
0.00622075 -0.000211148 0.000434331
0.00553041 -0.000603928 0.000272004
0.00564751 5.77689e-05 9.82594e-05
0.00557333 -0.000694312 8.20274e-05
0.00551273 -0.000637445 0.000276831
0.00551619 -0.00057876 0.000254286
0.00568857 -0.000242148 -0.000334686
0.00551954 -0.000661028 3.14685e-05
0.00565818 5.07185e-05 0.000104627
0.00561474 -0.000675271 7.55806e-05
0.00582519 0.000144398 0.00100565
0.00562427 -0.000743321 9.42273e-05
0.00564045 -0.000724198 8.84673e-05
0.0056577 -0.000710008 8.42273e-05
0.00540078 -0.000608177 0.000265166
0.00563451 -0.000158589 -3.95292e-05
0.00554711 -0.000632934 4.97801e-06
0.00583409 -0.000155335 -6.37791e-05
0.00559537 -0.000676921 7.6266e-05
0.00595263 -3.87985e-05 0.000278602
0.006107 -6.09041e-05 0.0002714
0.00565868 2.08128e-05 5.74767e-05
0.00729925 0.00783897 -0.00221004
0.00604802 0.000420557 2.33883e-05
0.0054425 -0.00063465 6.2458e-05
0.00585739 -6.64203e-05 -0.000101056
1.41832e-15 -1.10326e-14 8.66677e-14
0.00526831 -0.000663066 0.000269247
0.00598676 -0.000473967 0.00066179
0.0152985 0.0296164 -0.0226865
0.00550564 -0.000543284 0.000257805
0.00537551 -0.000612104 0.000261989
0.00610269 -0.000456185 0.000645501
0.00531964 -0.000606489 0.000259242
0.0061717 -2.98929e-05 0.000262045
0.00545584 -0.000336145 0.000514259
0.0054756 -0.00048329 0.000247965
0.0060645 -0.000481037 0.000670105
0.00560401 -0.000707353 8.47545e-05
0.00552161 -0.000621379 0.000269397
0.00546378 -0.00120077 0.000348564
0.00560415 -2.3916e-05 0.000230682
0.00610654 -6.60276e-05 0.000273246
0.00533518 -0.000624771 0.000267712
0.00565009 5.77637e-05 9.83465e-05
0.00613821 -5.03629e-05 0.000266631
0.00664057 0.00473252 -0.00133096
0.00550489 -0.000567181 0.000261322
0.00563923 -1.98692e-05 -6.5564e-05
0.00584005 -0.000395615 0.00058632
0.00616972 -3.03048e-05 0.000265549
0.00532899 -0.000588688 0.000257573
0.0057487 0.000264223 -8.70802e-05
0.00560748 4.84121e-05 9.7938e-05
0.00553703 -0.000651247 8.62582e-05
4.69441e-11 -0.0227599 0.00786411
0.00592009 -0.000127229 -4.27288e-05
0.00562892 -0.000684815 7.7299e-05
0.00568628 0.000619367 -0.000167306
0.00797139 0.00774895 -0.00672934
0.00533461 -0.000629955 0.000266414
0.00604115 -0.000458048 0.00064522
0.00548593 0.000253235 0.000901938
0.00536945 -0.000609708 0.000259338
0.00567732 -7.57898e-05 -0.000135186
0.00549737 -0.000490324 0.000249315
0.00598454 -0.00045064 0.000640204
0.0059244 -0.000430755 0.000620824
0.00558158 0.000117763 0.000996909
0.00557823 0.000158003 0.000975886
0.00554483 0.000197504 0.000949174
0.00563353 -0.000701102 8.3431e-05
0.00557117 0.000188178 0.000958845
0.00548387 0.000214262 0.000925413
0.00542202 -0.000711545 0.000282263
0.00606956 -0.00046049 0.000643119
0.00622353 0.00323106 -0.000905315
0.00558611 -0.00072889 9.10562e-05
0.00617977 -2.84345e-05 0.000266781
0.00507837 -0.000111848 -0.000925564
0.00799812 0.0111451 -0.00314575
0.00552065 0.00018222 0.000949096
0.00551336 -0.000630816 0.000273644
0.00562622 -0.000678194 7.62163e-05
0.00566608 -0.000736847 9.15132e-05
0.00562681 -0.000736215 9.3513e-05
0.00498132 0.00063054 -0.00111348
0.00566823 -0.000626082 0.00021795
0.00591399 -0.000423033 0.00061382
0.00552775 0.00017465 0.000959122
0.0054908 -0.00072381 0.00028664
0.0112128 0.0180219 -0.0142078
0.00565477 -0.000650858 7.23909e-05
0.00614389 -0.000368406 0.000571132
0.0059772 -0.000503692 0.000516421
0.00568003 -0.000748691 9.44883e-05
0.00613039 -5.54197e-05 0.000269535
0.00548515 -0.000627831 0.00027038
0.00585705 0.000486531 -0.00108074
0.0058941 -0.000408845 0.000599261
0.0058802 -0.000424991 -0.00233237
0.00611145 -0.000476172 0.000670128
0.00556281 -0.00067412 6.62945e-05
0.00560714 -0.000731826 9.02698e-05
0.00545076 -0.000678221 0.000277481
0.0057924 0.00125461 -0.000170546
0.00558485 8.24115e-05 0.00101574
0.00590136 -0.000198231 0.000403583
0.00560168 -0.000633269 6.03418e-05
0.00531516 -0.00064849 0.000267724
0.00566019 -0.000725777 8.8796e-05
0.00565735 -0.000750543 9.57344e-05
0.00590891 -0.000466301 0.000652547
0.00539644 -0.000598837 0.000262913
0.00565554 -0.000737489 9.22851e-05
0.00537221 -0.000606533 0.000241539
0.00547002 -0.000418687 0.000236113
0.00590508 -0.000416385 0.000606423
0.00573312 0.00185426 -0.000516145
0.00595224 -0.000440175 0.00062992
0.00562518 6.73643e-05 9.58889e-05
0.00556081 0.0002011 0.000950439
0.00676731 -0.00184868 -5.4557e-05
0.00611628 -6.01974e-05 0.000270563

VECTORS force float
1.59709e-10 -9.2471e-11 1.48978e-10
-3.85455e-11 -4.1721e-12 -7.33198e-11
-3.70055e-10 5.65025e-11 -1.13734e-10
2.92298e-11 1.93454e-12 3.35413e-11
5.97731e-11 -9.18159e-11 1.18084e-10
-6.07605e-12 2.07251e-11 -1.52677e-11
9.0562e-11 -2.82447e-10 -2.96386e-10
-8.83245e-11 -4.62224e-11 7.00804e-11
2.11821e-11 2.31023e-11 1.96466e-11
-7.3614e-11 -1.48684e-11 -5.48215e-11
8.69479e-10 1.02057e-10 -1.35185e-10
2.32296e-10 -5.76251e-12 9.96105e-12
6.4359e-11 4.83483e-11 -9.2082e-11
-9.67507e-11 1.82002e-11 -8.79172e-12
-3.67788e-12 -1.20102e-11 8.72307e-12
-5.02311e-12 2.77717e-10 -3.32065e-11
7.58608e-11 -9.55792e-11 4.66259e-11
-6.27119e-11 1.72682e-11 -6.09642e-12
8.20485e-12 -1.46782e-10 -7.16837e-11
1.90583e-10 1.03956e-10 -1.46008e-10
9.19436e-12 -8.79763e-11 8.17752e-11
5.35935e-12 -1.3833e-12 -8.85375e-12
-2.07028e-10 -4.52853e-13 9.35173e-11
-2.47983e-11 2.01578e-11 -1.11931e-11
-3.09598e-10 1.93864e-10 -4.04328e-11
-4.61065e-11 -5.26503e-11 -2.55529e-11
-4.22014e-11 -4.13128e-10 -4.09446e-10
-2.03942e-10 5.75787e-12 -7.03703e-11
-3.54559e-10 3.01955e-11 -9.49039e-13
3.52813e-11 -4.65437e-11 2.81678e-11
-5.73717e-13 2.0411e-11 -1.50735e-11
6.90341e-11 8.22032e-11 4.38237e-11
4.07742e-11 -2.622e-10 1.69933e-10
-4.29749e-11 -3.56255e-13 1.13646e-11
-8.49211e-11 1.58057e-10 -1.70143e-11
6.14608e-11 -1.26664e-10 -6.88169e-11
-1.38365e-11 4.29295e-12 -5.00397e-12
5.06006e-12 1.45188e-10 -1.18561e-10
4.37695e-23 -7.39293e-24 0.0
-3.46281e-11 -1.05383e-10 -3.25924e-11
2.28175e-12 -2.27823e-12 -8.37768e-12
7.97217e-12 -3.94972e-11 9.82217e-11
4.05432e-11 1.20335e-10 -8.19139e-14
2.26367e-10 -1.8579e-11 -5.6269e-11
2.10391e-10 -2.00403e-11 2.16872e-11
-1.71024e-10 -2.28431e-11 1.91755e-11
3.13458e-11 -4.36818e-11 9.67164e-12
-9.83635e-12 3.55128e-12 -8.09998e-12
1.2087e-11 9.93701e-11 2.58623e-10
-2.25024e-12 1.34257e-10 -1.07971e-11
1.18163e-12 5.42898e-12 3.22579e-12
8.98976e-11 -1.59206e-10 1.1298e-10
1.32231e-10 1.78202e-10 -9.42521e-11
1.50972e-11 -4.24447e-10 4.00092e-11
-4.54217e-11 -3.6751e-11 2.66599e-11
5.90562e-12 5.16001e-13 1.684e-12
-2.11899e-11 -3.84405e-11 4.18541e-11
-7.92898e-11 -6.33253e-11 -1.21868e-10
-2.51601e-11 9.60652e-11 3.6274e-12
3.7893e-10 -1.54168e-10 1.01829e-10
-8.30082e-13 6.03017e-11 -5.73684e-12
-1.90401e-11 2.61404e-11 -7.39095e-12
8.33644e-12 -2.39194e-11 1.171e-10
3.20549e-10 -1.69963e-10 -2.83268e-11
3.90882e-11 1.5466e-10 -3.50783e-11
-1.20586e-10 1.76923e-11 -4.02525e-12
-9.84155e-11 -1.59883e-10 2.29636e-11
8.89264e-11 -2.01969e-10 9.57158e-11
8.95559e-11 4.61148e-12 -1.6972e-12
-9.19006e-11 -1.06548e-11 -1.32463e-11
-1.15701e-10 1.19477e-10 -2.48583e-11
1.05635e-10 2.88233e-11 1.16332e-10
-9.14765e-11 5.92589e-11 -4.11325e-11
1.32314e-10 2.71678e-10 -3.30615e-11
1.1981e-11 -3.86556e-11 5.1804e-13
-8.49856e-12 1.63815e-10 -3.21268e-11
-7.95131e-11 2.18122e-10 -1.52704e-11
4.63695e-11 -1.38029e-10 -9.42511e-12
8.8223e-12 1.09208e-10 -5.13484e-11
-1.68687e-11 -4.93918e-11 7.85874e-12
-6.82542e-11 -8.20545e-11 -1.34995e-10
-9.20135e-11 2.97225e-10 -4.60772e-11
-1.78319e-10 8.73693e-11 6.53678e-12
2.50083e-11 1.05835e-10 3.31012e-11
-2.86268e-11 -6.64096e-11 -1.1711e-11
1.93404e-10 -2.77003e-11 -8.49141e-11
1.91713e-11 7.98719e-11 4.02733e-11
-3.45016e-11 4.17929e-11 -3.31783e-11
-1.92056e-10 -3.64425e-12 -3.92907e-11
-4.43399e-11 -4.63322e-11 6.28725e-11
-4.20719e-11 -2.12317e-10 1.4083e-11
1.06266e-10 2.48435e-12 2.21966e-11
1.56283e-21 -8.56546e-22 2.33679e-23
0.0 0.0 0.0
1.41927e-11 -4.04407e-11 5.82794e-11
1.02873e-11 -4.83504e-11 4.2874e-11
-1.32742e-10 5.38718e-10 -1.03833e-10
-1.38266e-10 4.16509e-11 1.10553e-11
5.79045e-12 2.56111e-10 -2.45131e-11
7.85701e-12 -1.16445e-10 6.86625e-11
-1.43351e-11 2.27938e-11 -4.93727e-11
-7.08274e-12 1.54471e-11 1.12007e-11
2.47315e-10 -1.60056e-10 1.39606e-11
-2.73475e-11 4.75028e-11 -5.70175e-11
2.17886e-10 1.91338e-10 -4.01393e-11
-1.16644e-10 1.0287e-12 -2.36039e-12
4.92588e-11 -2.99053e-10 8.18441e-12
-3.85608e-11 -2.4604e-10 1.5276e-11
-1.46328e-10 -1.78366e-10 7.47232e-11