# vtk DataFile Version 3.0
LIGGGHTS particles timestep 12800000
ASCII
DATASET POLYDATA
POINTS 287 float
0.0874895 0.0163954 0.00773133
0.0879049 0.0174647 0.00731497
0.0812563 0.0158363 0.00812958
0.0878083 0.0178483 0.00714286
0.0873727 0.0162729 0.00777597
0.093491 0.0167961 0.0075728
0.0875574 0.0170919 0.00745116
0.087271 0.01594 0.00813372
0.0937398 0.0179164 0.0070158
0.0874962 0.0168188 0.00755948
0.0879462 0.0176466 0.00723388
0.0814621 0.016686 0.00766054
0.087353 0.0161953 0.00783577
0.0811716 0.0156261 0.00845934
0.0876917 0.0173057 0.00737016
0.0811508 0.0155776 0.00854425
0.0874756 0.0167278 0.00759558
0.0936242 0.0173553 0.00717357
0.0873347 0.0161311 0.0079105
0.0874686 0.0163066 0.00777218
0.0875969 0.0172741 0.00737882
0.081639 0.0170722 0.00748627
0.0936811 0.0176288 0.00707756
0.0875374 0.0170008 0.0074873
0.0935687 0.017114 0.00734283
0.0815441 0.0170409 0.00749522
0.0877891 0.0177607 0.00718704
0.0873141 0.016067 0.00798536
0.0878253 0.0175194 0.0072892
0.0875773 0.0171829 0.00741501
0.0876724 0.0172145 0.00740638
0.0935108 0.0168755 0.00751534
0.087455 0.0166368 0.00763166
0.0876528 0.0171234 0.00744257
0.0937791 0.0181082 0.00697463
0.0876128 0.0169412 0.00751486
0.087767 0.0172459 0.00739782
0.0937006 0.0177247 0.00705697
0.0874139 0.0164549 0.00770382
0.0876163 0.0173653 0.00734259
0.0877864 0.0173371 0.00736161
0.0935307 0.0169549 0.00745789
0.0936054 0.0172739 0.00722847
0.0874345 0.0165458 0.00766774
0.0876553 0.0175477 0.00727013
0.0935867 0.0171937 0.00728522
0.0877137 0.0178212 0.00716136
0.0876942 0.0177301 0.00719772
0.0814416 0.0165973 0.00770186
0.0936421 0.017437 0.00711875
0.0874498 0.0162236 0.0078247
0.0812136 0.0157308 0.00829418
0.0876329 0.0170323 0.00747872
0.0935496 0.0170344 0.00740035
0.0876874 0.0168808 0.00754275
0.0877076 0.016972 0.00750656
0.0873933 0.0163639 0.00773989
0.0878058 0.0174282 0.0073254
0.0877501 0.0175792 0.00726154
0.0936616 0.0175329 0.00709816
0.0815577 0.0167171 0.00765175
0.081496 0.0164509 0.00777571
0.0879267 0.0175589 0.00727764
0.0878644 0.0176999 0.00721235
0.0875512 0.0166683 0.0076231
0.0937201 0.0178206 0.00703638
0.0811927 0.0156784 0.00837673
0.0878448 0.0176105 0.007253
0.0875168 0.0169098 0.0075234
0.0877111 0.0173969 0.00733395
0.0817604 0.0176169 0.00723226
0.0879094 0.0184667 0.00689582
0.0812773 0.0158991 0.00805466
0.0814827 0.0167747 0.00761922
0.0877521 0.0179966 0.00707339
0.081421 0.0165085 0.00774318
0.0815639 0.0171297 0.00745379
0.0815704 0.0163927 0.00780851
0.0937594 0.0180123 0.00699522
0.0813729 0.0159265 0.00803916
0.0877696 0.0176704 0.00722534
0.0876669 0.0167898 0.00757884
0.0878044 0.0182357 0.0069535
0.0877713 0.0180843 0.00702939
0.0878811 0.0173685 0.00735301
0.0815032 0.0168634 0.0075779
0.0879229 0.0179641 0.00707981
0.0878884 0.0181852 0.00697355
0.0879983 0.0182333 0.00694389
0.0877661 0.0180001 0.00717234
0.0879512 0.0180528 0.00703486
0.0813799 0.0163311 0.00782582
0.0878236 0.0183234 0.00690951
0.0815371 0.0166283 0.00769307
0.0878421 0.017186 0.00742549
0.0814755 0.0163622 0.00781703
0.0643568 0.0187248 0.00531097
0.24257 0.0191927 0.00520306
0.0818152 0.0174652 0.00737459
0.0813388 0.0161537 0.00790845
0.0818935 0.0173963 0.00734687
0.081298 0.0159839 0.00800587
0.0875923 0.0168503 0.00755094
0.0876748 0.0176389 0.00723392
0.0880855 0.0182757 0.00691944
0.0878612 0.0185075 0.00697334
0.0814005 0.0164198 0.0077845
0.0822103 0.0180319 0.00706174
0.0817529 0.0171926 0.00743573
0.0877306 0.017488 0.00729774
0.0875717 0.0167593 0.00758702
0.0874305 0.0161477 0.00788691
0.0812346 0.0157833 0.00821158
0.0877276 0.0170632 0.00747036
0.0872925 0.0160035 0.00805954
0.0872495 0.0158765 0.00820791
0.0880853 0.0183722 0.00689327
0.0814143 0.0160976 0.00794439
0.0878467 0.018024 0.00705536
0.0874096 0.0160841 0.00796116
0.0876358 0.0174565 0.00730636
0.0813594 0.0162428 0.00786793
0.0877329 0.0179089 0.00711738
0.087799 0.0181802 0.00703649
0.0816584 0.0171611 0.00744479
0.0815166 0.0165396 0.00773439
0.0878275 0.017936 0.00709886
0.0875847 0.0164259 0.00772316
0.0877474 0.0171545 0.00743411
0.0873881 0.0160206 0.00803534
0.0813532 0.0158591 0.00811038
0.0878771 0.0185829 0.00690961
0.0875306 0.0165774 0.00765918
0.0879998 0.0184239 0.00689528
0.0813939 0.0160116 0.00799101
0.0817723 0.0172816 0.0073942
0.0813184 0.0160687 0.00795709
0.0817335 0.0171036 0.00747729
0.0815909 0.0164814 0.00776718
0.0813305 0.0157985 0.00818662
0.0816219 0.0173964 0.00732932
0.087998 0.018324 0.00689953
0.081632 0.0166588 0.00768454
0.0819879 0.017428 0.00733771
0.0814548 0.016274 0.00785936
0.0817165 0.0174279 0.00732026
0.0817798 0.0177058 0.00719077
0.0816971 0.017339 0.00736176
0.0219312 0.0187687 0.00551176
0.0817938 0.0175594 0.00734868
0.0878859 0.01779 0.00716706
0.0816815 0.0176701 0.00720159
0.0816413 0.0174853 0.00728783
0.08192 0.018068 0.00702569
0.0820516 0.0177221 0.00720048
0.0875432 0.0162441 0.00779527
0.0816115 0.0165701 0.00772587
0.0818823 0.0174856 0.00730323
0.082112 0.0180454 0.00704896
0.081938 0.0175995 0.00725209
0.0875641 0.016335 0.00775923
0.0820328 0.0176303 0.00724335
0.0880137 0.0178966 0.00710783
0.081862 0.0176559 0.00722005
0.0755879 0.0171992 0.00724792
0.0816778 0.0172501 0.00740325
0.0817203 0.017848 0.00711858
0.0821666 0.0179383 0.00710395
0.0820711 0.0179621 0.00708635
0.0816582 0.0175731 0.00739174
0.08751 0.0164864 0.00769525
0.0818421 0.0175671 0.00726147
0.0878323 0.0178344 0.00723892
0.0816026 0.0173075 0.00737082
0.0816416 0.0174746 0.00738847
0.0878224 0.0170945 0.00746185
0.0879076 0.0182729 0.00692956
0.0878615 0.0172772 0.00738928
0.0756987 0.0173149 0.00718029
0.0878987 0.0186795 0.00692388
0.081849 0.0172195 0.00742898
0.0876463 0.0166988 0.00761492
0.0816731 0.0168362 0.0076019
0.0820563 0.0178336 0.00714716
0.0811303 0.0155317 0.00863072
0.0756459 0.0174825 0.00718004
0.0815238 0.0169521 0.00753658
0.0816607 0.0175742 0.00724634
0.081619 0.0169832 0.00752775
0.0820663 0.0181597 0.00699104
0.0818691 0.0173083 0.0073876
0.088164 0.0182181 0.00694215
0.0815988 0.0168945 0.00756911
0.0819054 0.0179404 0.00713719
0.081882 0.0177447 0.00717866
0.0814344 0.0161848 0.00789967
0.0817362 0.0175172 0.00727864
0.0816526 0.0167475 0.00764322
0.0877107 0.0177119 0.00729467
0.0879791 0.0181456 0.00698789
0.0819581 0.0176883 0.0072107
0.0878024 0.0170029 0.00749818
0.0878773 0.0181189 0.00704759
0.0756797 0.0172239 0.00721692
0.0817009 0.0177591 0.00716007
0.0876052 0.0165169 0.00768707
0.0818201 0.0178925 0.00711647
0.0878419 0.0184115 0.00695315
0.0817336 0.0177051 0.00727946
0.0755864 0.0168 0.00747042
0.0876258 0.0166079 0.007651
0.0817917 0.0173705 0.00735271
0.0815833 0.0172186 0.00741232
0.0879175 0.0178745 0.00712395
0.0819766 0.0175173 0.00729407
0.0756452 0.017054 0.00731859
0.0756076 0.0172931 0.00721989
0.0817155 0.0176155 0.00732159
0.0820093 0.0182869 0.00696184
0.0755684 0.017108 0.00728407
0.0815498 0.016304 0.00784982
0.0816936 0.016925 0.00756053
0.0879094 0.0183675 0.00688317
0.0819568 0.0185173 0.00692926
0.0820127 0.018362 0.00689035
0.0821073 0.0183355 0.00690917
0.0753927 0.0163804 0.00778188
0.0754534 0.016615 0.00760511
0.0753727 0.0163021 0.00784083
0.0818096 0.0170418 0.00751186
0.0815782 0.0168058 0.00761043
0.0754128 0.0164586 0.00772295
0.0755299 0.0169396 0.00738476
0.0818535 0.0179991 0.00705452
0.082158 0.0181265 0.00701293
0.0756648 0.0175807 0.00717725
0.0817991 0.0177947 0.00714928
0.0880755 0.0181747 0.0069683
0.0757033 0.0177768 0.00717165
0.0756266 0.0169697 0.00736903
0.0755109 0.0168554 0.00743539
0.0813092 0.0157461 0.00826908
0.0818986 0.017834 0.00713681
0.0817784 0.0181147 0.00699411
0.081794 0.0179978 0.00713485
0.0757231 0.0178748 0.00716882
0.0817138 0.0170139 0.00751915
0.081935 0.0184214 0.00691125
0.0820997 0.0182455 0.00695197
0.0754914 0.0167728 0.00748822
0.0817977 0.0182036 0.00695262
0.0756268 0.0173844 0.00718393
0.0819652 0.0173354 0.00738079
0.081873 0.0181463 0.00698501
0.0817297 0.0174366 0.00741901
0.081759 0.0180258 0.0070356
0.0880199 0.0179861 0.00706368
0.0819756 0.0177785 0.00716843
0.0757665 0.01807 0.00716297
0.0818546 0.0184765 0.00693352
0.0757448 0.0179724 0.0071659
0.0818366 0.0180959 0.00707322
0.0817396 0.0179369 0.00707709
0.0818762 0.0185727 0.00695007
0.0819602 0.0179865 0.00706745
0.0755498 0.0170242 0.00733537
0.0757213 0.0174166 0.00717724
0.0817893 0.0169531 0.00755322
0.0756062 0.0168852 0.00741951
0.0754327 0.0165369 0.007664
0.0819201 0.018331 0.00695141
0.0818923 0.0182352 0.00694351
0.0818171 0.0182926 0.0069111
0.0819697 0.0181803 0.00697493
0.0818336 0.018381 0.00695474
0.0817688 0.0168644 0.00759455
0.0818296 0.0171306 0.00747046
0.0820196 0.0180771 0.00702772
0.0815293 0.0162153 0.00789115
0.0819943 0.0179027 0.00710997
0.0818976 0.018668 0.0069714
0.0756649 0.0171386 0.007268
0.0820344 0.018458 0.00690778
0.0877823 0.0169116 0.00753442
0.0754721 0.0166936 0.00754607
0.0756839 0.0176788 0.00717445
0.0879657 0.0177343 0.0071899

VERTICES 287 574
1 0
1 1
1 2
1 3
1 4
1 5
1 6
1 7
1 8
1 9
1 10
1 11
1 12
1 13
1 14
1 15
1 16
1 17
1 18
1 19
1 20
1 21
1 22
1 23
1 24
1 25
1 26
1 27
1 28
1 29
1 30
1 31
1 32
1 33
1 34
1 35
1 36
1 37
1 38
1 39
1 40
1 41
1 42
1 43
1 44
1 45
1 46
1 47
1 48
1 49
1 50
1 51
1 52
1 53
1 54
1 55
1 56
1 57
1 58
1 59
1 60
1 61
1 62
1 63
1 64
1 65
1 66
1 67
1 68
1 69
1 70
1 71
1 72
1 73
1 74
1 75
1 76
1 77
1 78
1 79
1 80
1 81
1 82
1 83
1 84
1 85
1 86
1 87
1 88
1 89
1 90
1 91
1 92
1 93
1 94
1 95
1 96
1 97
1 98
1 99
1 100
1 101
1 102
1 103
1 104
1 105
1 106
1 107
1 108
1 109
1 110
1 111
1 112
1 113
1 114
1 115
1 116
1 117
1 118
1 119
1 120
1 121
1 122
1 123
1 124
1 125
1 126
1 127
1 128
1 129
1 130
1 131
1 132
1 133
1 134
1 135
1 136
1 137
1 138
1 139
1 140
1 141
1 142
1 143
1 144
1 145
1 146
1 147
1 148
1 149
1 150
1 151
1 152
1 153
1 154
1 155
1 156
1 157
1 158
1 159
1 160
1 161
1 162
1 163
1 164
1 165
1 166
1 167
1 168
1 169
1 170
1 171
1 172
1 173
1 174
1 175
1 176
1 177
1 178
1 179
1 180
1 181
1 182
1 183
1 184
1 185
1 186
1 187
1 188
1 189
1 190
1 191
1 192
1 193
1 194
1 195
1 196
1 197
1 198
1 199
1 200
1 201
1 202
1 203
1 204
1 205
1 206
1 207
1 208
1 209
1 210
1 211
1 212
1 213
1 214
1 215
1 216
1 217
1 218
1 219
1 220
1 221
1 222
1 223
1 224
1 225
1 226
1 227
1 228
1 229
1 230
1 231
1 232
1 233
1 234
1 235
1 236
1 237
1 238
1 239
1 240
1 241
1 242
1 243
1 244
1 245
1 246
1 247
1 248
1 249
1 250
1 251
1 252
1 253
1 254
1 255
1 256
1 257
1 258
1 259
1 260
1 261
1 262
1 263
1 264
1 265
1 266
1 267
1 268
1 269
1 270
1 271
1 272
1 273
1 274
1 275
1 276
1 277
1 278
1 279
1 280
1 281
1 282
1 283
1 284
1 285
1 286

POINT_DATA 287
SCALARS id int 1
LOOKUP_TABLE default
1
2
3
4
5
6
7
8
9
10
11
12
13
14
15
16
17
18
19
21
22
23
24
25
26
27
28
29
30
31
32
33
34
35
36
37
38
39
41
42
44
45
46
47
48
49
50
51
52
53
54
55
56
57
59
60
61
62
63
64
65
66
67
68
69
70
71
72
73
74
76
77
78
79
80
81
82
83
84
85
86
87
88
89
90
91
92
93
94
95
96
97
98
99
100
101
102
103
104
105
106
107
108
109
110
111
112
113
114
115
116
117
118
119
120
121
122
123
124
125
126
127
128
129
130
131
132
133
134
135
136
137
138
140
141
142
143
144
146
147
148
149
150
151
153
154
155
156
157
158
159
160
162
164
165
166
167
168
169
170
171
172
173
174
175
176
177
178
179
181
182
183
184
185
186
187
188
189
190
191
192
193
194
195
196
197
198
199
200
201
202
203
204
205
206
207
208
209
210
211
212
213
214
215
216
217
218
219
220
221
222
223
224
225
226
227
228
229
230
231
232
233
234
235
236
237
239
240
241
242
243
244
246
247
248
249
250
251
252
253
254
255
256
257
258
259
260
261
262
263
264
265
266
267
268
269
270
271
272
273
274
275
276
277
278
279
280
281
282
283
284
285
286
287
288
289
290
291
292
293
294
295
296
297
298
299
300

SCALARS type int 1
LOOKUP_TABLE default
1
1
1
1
1
1
1
1
1
1
1
1
1
1
1
1
1
1
1
1
1
1
1
1
1
1
1
1
1
1
1
1
1
1
1
1
1
1
1
1
1
1
1
1
1
1
1
1
1
1
1
1
1
1
1
1
1
1
1
1
1
1
1
1
1
1
1
1
1
1
1
1
1
1
1
1
1
1
1
1
1
1
1
1
1
1
1
1
1
1
1
1
1
1
1
1
1
1
1
1
1
1
1
1
1
1
1
1
1
1
1
1
1
1
1
1
1
1
1
1
1
1
1
1
1
1
1
1
1
1
1
1
1
1
1
1
1
1
1
1
1
1
1
1
1
1
1
1
1
1
1
1
1
1
1
1
1
1
1
1
1
1
1
1
1
1
1
1
1
1
1
1
1
1
1
1
1
1
1
1
1
1
1
1
1
1
1
1
1
1
1
1
1
1
1
1
1
1
1
1
1
1
1
1
1
1
1
1
1
1
1
1
1
1
1
1
1
1
1
1
1
1
1
1
1
1
1
1
1
1
1
1
1
1
1
1
1
1
1
1
1
1
1
1
1
1
1
1
1
1
1
1
1
1
1
1
1
1
1
1
1
1
1
1
1
1
1
1
1
1
1
1
1
1
1
1
1
1
1
1
1
1
1
1
1
1
1

SCALARS radius float 1
LOOKUP_TABLE default
5e-05
5e-05
5e-05
5e-05
5e-05
5e-05
5e-05
5e-05
5e-05
5e-05
5e-05
5e-05
5e-05
5e-05
5e-05
5e-05
5e-05
5e-05
5e-05
5e-05
5e-05
5e-05
5e-05
5e-05
5e-05
5e-05
5e-05
5e-05
5e-05
5e-05
5e-05
5e-05
5e-05
5e-05
5e-05
5e-05
5e-05
5e-05
5e-05
5e-05
5e-05
5e-05
5e-05
5e-05
5e-05
5e-05
5e-05
5e-05
5e-05
5e-05
5e-05
5e-05
5e-05
5e-05
5e-05
5e-05
5e-05
5e-05
5e-05
5e-05
5e-05
5e-05
5e-05
5e-05
5e-05
5e-05
5e-05
5e-05
5e-05
5e-05
5e-05
5e-05
5e-05
5e-05
5e-05
5e-05
5e-05
5e-05
5e-05
5e-05
5e-05
5e-05
5e-05
5e-05
5e-05
5e-05
5e-05
5e-05
5e-05
5e-05
5e-05
5e-05
5e-05
5e-05
5e-05
5e-05
5e-05
5e-05
5e-05
5e-05
5e-05
5e-05
5e-05
5e-05
5e-05
5e-05
5e-05
5e-05
5e-05
5e-05
5e-05
5e-05
5e-05
5e-05
5e-05
5e-05
5e-05
5e-05
5e-05
5e-05
5e-05
5e-05
5e-05
5e-05
5e-05
5e-05
5e-05
5e-05
5e-05
5e-05
5e-05
5e-05
5e-05
5e-05
5e-05
5e-05
5e-05
5e-05
5e-05
5e-05
5e-05
5e-05
5e-05
5e-05
5e-05
5e-05
5e-05
5e-05
5e-05
5e-05
5e-05
5e-05
5e-05
5e-05
5e-05
5e-05
5e-05
5e-05
5e-05
5e-05
5e-05
5e-05
5e-05
5e-05
5e-05
5e-05
5e-05
5e-05
5e-05
5e-05
5e-05
5e-05
5e-05
5e-05
5e-05
5e-05
5e-05
5e-05
5e-05
5e-05
5e-05
5e-05
5e-05
5e-05
5e-05
5e-05
5e-05
5e-05
5e-05
5e-05
5e-05
5e-05
5e-05
5e-05
5e-05
5e-05
5e-05
5e-05
5e-05
5e-05
5e-05
5e-05
5e-05
5e-05
5e-05
5e-05
5e-05
5e-05
5e-05
5e-05
5e-05
5e-05
5e-05
5e-05
5e-05
5e-05
5e-05
5e-05
5e-05
5e-05
5e-05
5e-05
5e-05
5e-05
5e-05
5e-05
5e-05
5e-05
5e-05
5e-05
5e-05
5e-05
5e-05
5e-05
5e-05
5e-05
5e-05
5e-05
5e-05
5e-05
5e-05
5e-05
5e-05
5e-05
5e-05
5e-05
5e-05
5e-05
5e-05
5e-05
5e-05
5e-05
5e-05
5e-05
5e-05
5e-05
5e-05
5e-05
5e-05
5e-05
5e-05
5e-05
5e-05
5e-05
5e-05
5e-05
5e-05
5e-05
5e-05
5e-05
5e-05
5e-05
5e-05
5e-05
5e-05
5e-05
5e-05
5e-05
5e-05
5e-05
5e-05
5e-05
5e-05
5e-05
5e-05
5e-05
5e-05

SCALARS mass float 1
LOOKUP_TABLE default
1.46608e-10
1.46608e-10
1.46608e-10
1.46608e-10
1.46608e-10
1.46608e-10
1.46608e-10
1.46608e-10
1.46608e-10
1.46608e-10
1.46608e-10
1.46608e-10
1.46608e-10
1.46608e-10
1.46608e-10
1.46608e-10
1.46608e-10
1.46608e-10
1.46608e-10
1.46608e-10
1.46608e-10
1.46608e-10
1.46608e-10
1.46608e-10
1.46608e-10
1.46608e-10
1.46608e-10
1.46608e-10
1.46608e-10
1.46608e-10
1.46608e-10
1.46608e-10
1.46608e-10
1.46608e-10
1.46608e-10
1.46608e-10
1.46608e-10
1.46608e-10
1.46608e-10
1.46608e-10
1.46608e-10
1.46608e-10
1.46608e-10
1.46608e-10
1.46608e-10
1.46608e-10
1.46608e-10
1.46608e-10
1.46608e-10
1.46608e-10
1.46608e-10
1.46608e-10
1.46608e-10
1.46608e-10
1.46608e-10
1.46608e-10
1.46608e-10
1.46608e-10
1.46608e-10
1.46608e-10
1.46608e-10
1.46608e-10
1.46608e-10
1.46608e-10
1.46608e-10
1.46608e-10
1.46608e-10
1.46608e-10
1.46608e-10
1.46608e-10
1.46608e-10
1.46608e-10
1.46608e-10
1.46608e-10
1.46608e-10
1.46608e-10
1.46608e-10
1.46608e-10
1.46608e-10
1.46608e-10
1.46608e-10
1.46608e-10
1.46608e-10
1.46608e-10
1.46608e-10
1.46608e-10
1.46608e-10
1.46608e-10
1.46608e-10
1.46608e-10
1.46608e-10
1.46608e-10
1.46608e-10
1.46608e-10
1.46608e-10
1.46608e-10
1.46608e-10
1.46608e-10
1.46608e-10
1.46608e-10
1.46608e-10
1.46608e-10
1.46608e-10
1.46608e-10
1.46608e-10
1.46608e-10
1.46608e-10
1.46608e-10
1.46608e-10
1.46608e-10
1.46608e-10
1.46608e-10
1.46608e-10
1.46608e-10
1.46608e-10
1.46608e-10
1.46608e-10
1.46608e-10
1.46608e-10
1.46608e-10
1.46608e-10
1.46608e-10
1.46608e-10
1.46608e-10
1.46608e-10
1.46608e-10
1.46608e-10
1.46608e-10
1.46608e-10
1.46608e-10
1.46608e-10
1.46608e-10
1.46608e-10
1.46608e-10
1.46608e-10
1.46608e-10
1.46608e-10
1.46608e-10
1.46608e-10
1.46608e-10
1.46608e-10
1.46608e-10
1.46608e-10
1.46608e-10
1.46608e-10
1.46608e-10
1.46608e-10
1.46608e-10
1.46608e-10
1.46608e-10
1.46608e-10
1.46608e-10
1.46608e-10
1.46608e-10
1.46608e-10
1.46608e-10
1.46608e-10
1.46608e-10
1.46608e-10
1.46608e-10
1.46608e-10
1.46608e-10
1.46608e-10
1.46608e-10
1.46608e-10
1.46608e-10
1.46608e-10
1.46608e-10
1.46608e-10
1.46608e-10
1.46608e-10
1.46608e-10
1.46608e-10
1.46608e-10
1.46608e-10
1.46608e-10
1.46608e-10
1.46608e-10
1.46608e-10
1.46608e-10
1.46608e-10
1.46608e-10
1.46608e-10
1.46608e-10
1.46608e-10
1.46608e-10
1.46608e-10
1.46608e-10
1.46608e-10
1.46608e-10
1.46608e-10
1.46608e-10
1.46608e-10
1.46608e-10
1.46608e-10
1.46608e-10
1.46608e-10
1.46608e-10
1.46608e-10
1.46608e-10
1.46608e-10
1.46608e-10
1.46608e-10
1.46608e-10
1.46608e-10
1.46608e-10
1.46608e-10
1.46608e-10
1.46608e-10
1.46608e-10
1.46608e-10
1.46608e-10
1.46608e-10
1.46608e-10
1.46608e-10
1.46608e-10
1.46608e-10
1.46608e-10
1.46608e-10
1.46608e-10
1.46608e-10
1.46608e-10
1.46608e-10
1.46608e-10
1.46608e-10
1.46608e-10
1.46608e-10
1.46608e-10
1.46608e-10
1.46608e-10
1.46608e-10
1.46608e-10
1.46608e-10
1.46608e-10
1.46608e-10
1.46608e-10
1.46608e-10
1.46608e-10
1.46608e-10
1.46608e-10
1.46608e-10
1.46608e-10
1.46608e-10
1.46608e-10
1.46608e-10
1.46608e-10
1.46608e-10
1.46608e-10
1.46608e-10
1.46608e-10
1.46608e-10
1.46608e-10
1.46608e-10
1.46608e-10
1.46608e-10
1.46608e-10
1.46608e-10
1.46608e-10
1.46608e-10
1.46608e-10
1.46608e-10
1.46608e-10
1.46608e-10
1.46608e-10
1.46608e-10
1.46608e-10
1.46608e-10
1.46608e-10
1.46608e-10
1.46608e-10
1.46608e-10
1.46608e-10
1.46608e-10
1.46608e-10
1.46608e-10
1.46608e-10
1.46608e-10
1.46608e-10
1.46608e-10
1.46608e-10
1.46608e-10
1.46608e-10
1.46608e-10
1.46608e-10
1.46608e-10
1.46608e-10
1.46608e-10

VECTORS velocity float
0.00573824 7.95448e-05 0.000228891
0.00549703 8.62006e-05 0.000208548
0.00635403 1.52315e-05 -5.51051e-05
0.00552482 -0.000121072 -0.000243526
0.00573741 8.75736e-05 0.000212856
0.00566667 -0.000321604 -1.46511e-05
0.0055934 0.000101262 0.000207036
0.00615669 -0.000296987 4.88529e-05
0.00561551 -0.000166597 0.000192575
0.00574574 7.39894e-05 0.00022459
0.00545606 -0.000106238 -0.000245262
0.00576615 0.000379873 0.000189641
0.00568801 -0.000131643 -0.000115027
0.00620086 1.88445e-05 -0.000159892
0.00538216 0.000157232 0.000174618
0.00619659 0.000438795 4.98393e-05
0.00574423 5.38221e-05 0.000232797
0.00559097 -0.000200147 0.00013315
0.00571711 0.000193048 -0.00049537
0.00572699 7.04532e-05 0.000222088
0.00540637 0.000112928 0.000193876
0.00554161 0.000413529 0.000156796
0.00558646 -0.000160374 0.000190171
0.00574575 8.01281e-05 0.000221913
0.00562505 -0.000309094 -2.22247e-05
0.00559206 0.000382385 0.000174399
0.00549433 -7.01845e-05 -0.000160386
0.00619649 -0.000311762 5.97926e-05
0.00551713 0.000129317 0.000193121
0.00553802 0.000101986 0.000203245
0.00543964 0.000139321 0.000184849
0.00569965 -0.000327671 -1.18553e-05
0.00575666 8.58968e-05 0.000219988
0.0055476 0.000130198 0.000192736
0.00561151 -0.000166694 0.000192487
0.00575333 9.29768e-05 0.000217877
0.0054355 0.000129978 0.000188357
0.00559432 -0.000162317 0.000191109
0.00574586 9.71843e-05 0.000215371
0.00542207 0.000175754 0.000168631
0.00548332 0.000118612 0.000194467
0.00573121 -0.000334249 -9.14114e-06
0.005601 -0.000269124 3.23622e-05
0.00575594 0.00010106 0.000212342
0.00550739 0.000198409 0.000164928
0.00560973 -0.000307343 -2.16068e-05
0.00551837 -3.41841e-05 -0.000127696
0.00550675 0.000118455 0.00018832
0.0057593 0.000373892 0.000191294
0.00559319 -0.000161348 0.000191682
0.00570188 -4.71106e-05 4.81368e-05
0.00627281 1.58075e-05 -9.14612e-05
0.00556731 0.000133787 0.000191865
0.00566205 -0.00031738 -1.79568e-05
0.00579096 0.00011643 0.000209302
0.00568309 0.000251124 0.000149542
0.00573557 7.2174e-05 0.000221143
0.00549577 0.000127145 0.000192007
0.00552378 0.000149186 0.000184295
0.00559161 -0.000161328 0.000190617
0.00576394 0.000371556 0.000192689
0.0057654 0.000358514 0.00019948
0.00555175 8.63978e-05 0.000140843
0.00547924 -0.000100992 -0.000238812
0.00576155 6.77487e-05 0.000227121
0.00561724 -0.000166936 0.000192714
0.00625682 1.32529e-05 -0.000120606
0.00554287 0.000132314 0.000198066
0.00574677 7.68154e-05 0.000223375
0.00545309 0.000162949 0.00017569
0.00558902 0.000468445 0.000134231
0.00547992 -0.000130218 0.000293623
0.00636531 7.14407e-05 -1.77462e-05
0.00576926 0.000377146 0.000190698
0.00556107 -0.000128711 -0.000239671
0.00574968 0.000370428 0.0001928
0.00555767 0.000365748 0.000178488
0.00576977 0.000357439 0.000200857
0.00561334 -0.000166525 0.000192503
0.0056916 0.000198477 -0.000105206
0.0055196 0.000127353 0.000185914
0.00574411 8.66766e-05 0.00021949
0.00562989 -6.46696e-05 -0.000283319
0.00556392 -0.000127637 -0.000248637
0.00547255 0.000103237 0.00020058
0.00577942 0.000374 0.000192593
0.00553181 -0.000149779 -0.00023382
0.00559632 -0.0001012 -0.000261681
0.0056174 -0.000208707 -0.000193841
0.00555791 -8.66146e-05 -0.000234624
0.00556262 -0.000136846 -0.000239571
0.00573801 0.00035612 0.000197942
0.00569043 -3.4054e-05 -0.000283775
0.00575567 0.000363316 0.000196601
0.00538111 6.7332e-05 0.000211066
0.00576018 0.000360128 0.000199509
4.47773e-15 1.04356e-14 8.29571e-14
1.19201e-22 4.86658e-23 1.23839e-22
0.00552104 0.000418982 8.97712e-05
0.0057311 0.000358117 0.000205071
0.00554151 0.0004376 0.000145861
0.00568457 0.00022981 -4.05962e-05
0.00574865 8.44677e-05 0.000221018
0.00551089 0.000148305 0.000183595
0.00565896 -0.000193606 -2.69538e-05
0.00605289 -0.00038842 0.000803621
0.00574608 0.000362053 0.000196315
0.00623731 0.00338524 -0.0012249
0.00547515 0.000359864 0.000179536
0.00550053 0.00015541 0.000180969
0.0057471 7.39522e-05 0.000223452
0.00586118 -0.000186739 -7.05633e-05
0.00630534 5.7245e-07 -7.06644e-05
0.00557786 0.000188581 0.000170752
0.00615944 -0.000298868 5.12273e-05
0.00615852 -0.000287062 3.81749e-05
0.00561061 -4.59968e-05 0.000347241
0.0057968 0.000316579 0.000127687
0.00555089 -0.000122932 -0.000248992
0.0061651 -0.000244649 -3.03141e-05
0.00548616 0.000215855 0.000156046
0.0057414 0.000352282 0.000197275
0.00552705 -0.000121583 -0.000247243
0.00557565 -9.29567e-05 -0.000281903
0.0055049 0.00039879 0.000163733
0.00576249 0.000362747 0.000197629
0.0055845 -0.000128162 -0.000246319
0.00575712 9.18407e-05 0.000218253
0.00551715 0.000231832 0.000150132
0.0061036 -0.000224585 -2.11104e-05
0.00575293 9.02791e-05 -0.000191012
0.00594604 -0.0010982 0.000194757
0.0057723 7.64895e-05 0.000228195
0.00554839 -7.08753e-05 0.000317122
0.00574075 0.000253908 -1.57152e-06
0.00554951 0.000412292 0.000159084
0.00570533 0.000322581 0.000135562
0.00550771 0.000477737 0.000125434
0.00577307 0.000356889 0.000200231
0.00617895 4.85628e-06 -0.000134252
0.00552106 0.000417501 0.000160836
0.00563428 -0.000201258 -0.000233898
0.00575324 0.000366798 0.000194324
0.00555035 0.000436703 0.000147446
0.00576593 0.000361037 0.000200953
0.00553645 0.000334006 0.000197897
0.00561621 0.000477394 0.000134062
0.00551059 0.000400836 0.000162049
-3.82386e-14 8.17159e-14 2.95886e-13
0.00558139 0.000452058 0.000132309
0.00550456 -0.000130598 -0.000235761
0.00559526 0.000467258 0.000133579
0.00552683 0.000328297 0.000198297
0.00570633 0.000337699 0.000209381
0.00553966 0.000348155 0.000189215
0.00572262 0.000105173 0.00021442
0.00576223 0.000363276 0.000197229
0.00556314 0.000445297 0.000143341
0.00590195 0.00214714 -0.000651672
0.00559342 0.000456276 0.000139462
0.00570633 0.000104788 0.00020558
0.00557359 0.000445497 0.000145506
0.00549569 -0.000143159 -0.000234421
0.00558907 0.000457149 0.000141561
0.0056567 0.00032494 -6.68645e-05
0.00549136 0.000409934 0.000157478
0.00563864 0.000483293 0.000129503
0.00309113 0.00367206 -0.00156591
0.00296608 0.00322901 -0.00136092
0.00557382 0.000401619 0.000100261
0.0057624 8.00601e-05 0.000225446
0.00558723 0.000459712 0.000139029
0.00555109 -5.50821e-05 -0.000236506
0.0055039 0.000429117 0.000144134
0.00554176 0.000419503 0.000138105
0.00563604 0.000355368 0.000105332
0.00565705 -0.000113706 -0.000256052
0.00544647 6.3676e-05 0.000215481
0.00562733 0.000217008 -0.000302703
0.00593959 -0.00107885 0.000201194
0.00545878 0.000449948 0.000135702
0.00576357 8.42149e-05 0.000221274
0.00578138 0.000372999 0.000193359
0.0057512 0.000239237 0.000255129
0.0061818 0.000461807 2.75604e-05
0.00565572 0.000247403 -0.000303667
0.00578046 0.000367996 0.000196462
0.00556853 0.000439971 0.000147095
0.00564867 0.000458705 0.000142782
0.00607355 0.000695446 5.47939e-05
0.00549876 0.000444189 0.000140632
0.00569262 -0.000270868 -0.000186055
0.00579219 0.000379666 0.000192502
0.00570717 0.000336783 0.000198461
0.00559503 0.000449198 0.000141408
0.00578778 0.000358402 0.00019793
0.00556811 0.000445091 0.000144822
0.00576595 0.000373243 0.00019195
0.0055062 9.77906e-05 0.000185786
0.0055393 -0.000225249 -0.000209098
0.00559816 0.000462447 0.000138479
0.00559517 0.000216178 0.000160073
0.00555558 -0.000116859 -0.000253597
0.00567224 0.000308761 -4.37159e-05
0.00562544 0.000487904 0.000127649
0.00578676 8.02581e-05 0.000225623
0.00564608 0.000462234 0.000147408
0.00597325 -0.000224917 5.84843e-05
0.00558689 0.00048104 0.000122908
0.00556795 0.000214968 1.09257e-05
0.00578303 7.90549e-05 0.000222866
0.00557146 0.000370111 0.000186366
0.00550547 0.000405175 0.000161819
0.00550773 -0.000147893 -0.000231003
0.00557067 0.00044419 0.000145434
0.00566182 0.000342709 -6.61296e-05
0.00566607 0.000303847 -0.000119078
0.00557533 0.000446463 0.000130951
0.00651734 0.000239298 0.000163592
0.00565645 0.000327724 -5.75292e-05
0.00577969 0.000366889 0.000197004
0.00579444 0.000406478 0.000177398
0.00571057 -0.000125054 -0.000431906
0.00622267 0.000491087 -0.000462336
0.00645565 0.000296302 0.000333084
0.00658389 0.000565415 0.000157683
0.00577101 3.59572e-05 -0.000422778
0.00576149 3.9458e-05 -0.000424653
0.00574083 4.0639e-05 -0.000424125
0.00578103 0.000392743 0.000184086
0.00577696 0.000377861 0.000191403
0.00579567 3.1695e-05 -0.000421317
0.00575023 0.000305747 -4.05099e-05
0.00564625 0.000351849 0.000195976
0.00662421 0.00187541 -0.000475227
0.00564678 0.000243408 -0.000305116
0.00564023 0.000483854 0.000130947
0.00562187 -0.000231947 -0.000183228
0.00580997 0.000206277 -0.000311677
0.0057175 0.000334576 -5.72829e-05
0.00566908 0.000256465 -0.000144615
0.00624445 3.0598e-05 -0.000109757
0.00561455 0.000439609 0.000153456
0.00570546 0.000451082 0.000143571
0.00558822 0.000486936 0.000152795
0.00587961 0.000197796 -0.000315548
0.0056009 0.000638245 5.42493e-05
0.00636772 0.000304592 0.000370688
0.00672083 0.000544251 0.000208159
0.00550761 0.000157091 -0.000352771
0.00571957 0.000503061 0.000120161
0.00566411 0.000255847 -0.000233381
0.00554514 0.000438882 0.000146324
0.00560411 0.000359999 0.00018929
0.00553896 0.000388281 0.000194699
0.00567572 0.000461112 0.00014307
0.0055766 -0.000146142 -0.000236864
0.00559368 0.000414088 0.000162853
0.00589676 0.00020266 -0.000316567
0.00623785 0.00017239 0.000505102
0.00588963 0.000201593 -0.000316044
0.00569337 0.000431509 0.00014372
0.00566147 0.000481158 0.000131019
0.00621857 0.000479344 -0.000586929
0.00574356 0.000293408 0.000221946
0.00569349 0.000316487 -5.23475e-05
0.005669 0.00024077 -0.00030426
0.00581124 0.00038151 0.000191681
0.00574452 0.000295715 -3.23631e-05
0.00583019 2.53387e-05 -0.000418995
0.00636697 0.000214954 0.000270595
0.00564066 0.00044584 0.000162904
0.00572867 0.000604093 9.5573e-05
0.00585522 0.000416429 0.000177714
0.00632243 0.000435131 0.000459108
0.00577376 0.000381615 0.000188832
0.00557645 0.0004295 0.000152876
0.00560662 0.00112977 -0.000179523
0.00579588 0.00037549 0.000190963
0.00575123 0.000265983 0.000236493
0.0062462 0.000489486 -0.00045556
0.00565671 0.00032768 -5.45914e-05
0.00626361 0.000524549 -0.000432175
0.00589939 0.000492146 6.13871e-05
0.00561885 6.60583e-05 -0.000435297
0.00570086 0.00022718 -0.000306634
0.00548035 -0.000126371 -0.000243613

VECTORS force float
-4.99214e-11 5.88939e-11 -1.22828e-10
-2.30873e-10 1.46455e-10 -5.86168e-11
-9.69648e-11 -2.94058e-10 1.49981e-10
2.09947e-10 -2.90778e-10 8.3787e-11
-1.12199e-11 -1.32872e-10 4.34609e-11
6.01761e-11 3.65424e-11 -2.65935e-11
4.07553e-10 -2.62302e-11 2.98798e-11
1.38419e-10 2.07156e-11 -3.44352e-11
2.48395e-13 7.35125e-12 -1.69916e-12
-2.63204e-12 -1.44501e-11 5.75667e-12
5.6125e-10 -2.24039e-10 2.07764e-10
-3.29378e-11 -2.56082e-10 1.2826e-10
-6.48332e-11 -9.52205e-11 1.21849e-10
-7.65147e-11 -2.88893e-10 -6.7564e-11
-1.36814e-10 -9.5095e-12 -9.68486e-13
-2.87471e-10 -1.74517e-10 3.67671e-11
-5.25954e-11 -3.23396e-10 1.11204e-10
3.15474e-11 1.99354e-12 3.10441e-11
1.70325e-10 3.46421e-10 -4.18433e-10
1.24644e-10 1.26057e-10 1.49059e-10
5.92433e-11 1.73076e-10 -6.29248e-11
9.35167e-10 -1.31072e-10 1.15338e-10
1.65582e-11 -7.30503e-13 -2.11632e-12
-1.75403e-11 -6.49442e-11 2.42232e-11
-3.42464e-11 -2.86426e-11 1.84874e-11
-1.16754e-10 -2.98176e-10 1.31439e-10
3.60658e-10 -2.57972e-10 -1.81451e-10
-2.2544e-10 -1.16958e-10 1.41216e-10
-1.21333e-10 1.11153e-10 -4.9038e-11
1.22803e-10 9.78803e-11 -2.50456e-11
5.20416e-11 3.54146e-11 -1.67099e-11
7.21576e-12 7.56689e-12 2.66535e-12
1.69851e-10 3.5551e-10 -1.21148e-10
6.361e-11 -8.88391e-11 2.54255e-11
3.36296e-12 1.02519e-11 -2.18068e-12
-3.64902e-11 -1.00358e-10 6.72859e-11
2.71671e-10 1.10785e-10 -2.74443e-11
1.06963e-11 4.93287e-12 -2.33323e-12
-4.77279e-11 -9.94664e-11 1.30321e-10
-9.68557e-11 -1.58459e-10 5.48015e-11
2.70227e-10 1.13889e-10 -3.27605e-11
7.26044e-11 -1.68986e-11 2.4485e-11
-2.44898e-11 2.46258e-11 4.70451e-11
1.06658e-10 3.32202e-10 -1.04561e-10
1.02579e-10 4.65811e-10 -1.87489e-10
-2.53e-11 -1.74035e-11 1.61021e-11
9.99756e-11 -5.46728e-11 -3.24361e-10
-6.30793e-11 -2.28417e-11 4.18359e-11
1.16417e-11 -1.52001e-10 5.86886e-11
1.38133e-11 -1.07608e-11 2.96862e-13
-1.36499e-10 -1.28342e-10 -3.23927e-11
-8.60392e-11 -2.04313e-10 4.07529e-12
-7.38626e-11 -1.79703e-10 7.72417e-11
-1.71252e-10 -2.02891e-11 2.13847e-11
8.65873e-11 1.0769e-10 -4.20065e-11
6.20642e-11 -2.24192e-10 8.89529e-11
-7.05609e-11 -4.33487e-11 1.51638e-11
3.64848e-12 1.34891e-10 -5.47038e-11
1.45415e-11 2.82408e-11 -1.49468e-11
1.10212e-11 -9.67595e-12 7.39568e-12
1.90905e-10 -1.8595e-10 7.71483e-11
3.54671e-10 -1.4194e-10 8.80622e-11
-2.65608e-10 -1.28566e-10 -2.13469e-10