# vtk DataFile Version 3.0
LIGGGHTS particles timestep 12600000
ASCII
DATASET POLYDATA
POINTS 287 float
0.0863237 0.0164236 0.00766823
0.0867515 0.0174913 0.00725304
0.0800801 0.0158204 0.00816636
0.0866619 0.0178782 0.00709172
0.08621 0.0163228 0.00774674
0.0922967 0.0167472 0.00762531
0.0863919 0.0171207 0.00738776
0.086115 0.0160006 0.0081188
0.0925682 0.0178378 0.00700061
0.0863269 0.0168484 0.00749562
0.0867991 0.0176787 0.00717892
0.0802737 0.0166314 0.00762971
0.0861909 0.0162571 0.00781971
0.0800053 0.0156096 0.00849793
0.0865319 0.0173331 0.00730761
0.0799858 0.015557 0.00858073
0.0863063 0.0167574 0.00753169
0.0924418 0.0173171 0.00724655
0.086172 0.0161932 0.00789424
0.0863057 0.0163476 0.00773068
0.0864352 0.0173023 0.00731586
0.0804546 0.0170086 0.00744049
0.0925033 0.017555 0.00707437
0.0863702 0.0170299 0.00742372
0.0923804 0.0170793 0.00741874
0.0803582 0.0169778 0.00744907
0.0866401 0.0177881 0.0071293
0.0861529 0.016129 0.0079691
0.0866712 0.0175451 0.00722757
0.0864136 0.0172115 0.00735181
0.0865103 0.0172423 0.00734359
0.0923177 0.0168307 0.00757452
0.0862871 0.0166662 0.00756793
0.0864886 0.0171515 0.00737954
0.0926076 0.0180295 0.00695945
0.0864453 0.0169699 0.00745144
0.0866066 0.0172728 0.00733546
0.0925249 0.0176469 0.00704149
0.0862486 0.0164835 0.00764066
0.0864569 0.0173932 0.00727987
0.086628 0.0173636 0.00729948
0.0923387 0.0169143 0.00752372
0.0924215 0.0172378 0.00730396
0.0862678 0.0165747 0.00760429
0.0865004 0.0175766 0.00721131
0.0924009 0.0171585 0.00736134
0.0865654 0.0178486 0.0071015
0.0865437 0.0177571 0.00713573
0.0802541 0.0165464 0.00767863
0.0924624 0.0173964 0.00718915
0.0862867 0.0162765 0.00779837
0.0800441 0.0157149 0.00833235
0.0864669 0.0170607 0.0074155
0.0923597 0.0169978 0.00747292
0.0865201 0.0169097 0.00747926
0.0865417 0.0170005 0.00744331
0.0862293 0.0163918 0.00767697
0.0866497 0.0174543 0.00726355
0.0865964 0.0176056 0.00719968
0.0924828 0.0174757 0.00713175
0.0803694 0.0166588 0.00761453
0.0803096 0.0164039 0.00776094
0.0867774 0.017588 0.00721486
0.0867145 0.0177267 0.00715567
0.0863819 0.0166973 0.00755948
0.0925466 0.0177423 0.00702105
0.0800252 0.0156622 0.00841522
0.0866928 0.0176359 0.00719161
0.0863486 0.0169392 0.00745967
0.0865532 0.0174239 0.00727162
0.0805846 0.0175405 0.00719315
0.0867792 0.0185096 0.00685729
0.0800979 0.0158753 0.00808475
0.0802938 0.0167163 0.00758085
0.0866088 0.0180317 0.00703392
0.0802344 0.016461 0.00772783
0.0803798 0.0170665 0.00740781
0.080389 0.0163309 0.00780327
0.0925879 0.0179337 0.00698003
0.080192 0.0158936 0.00805466
0.0866181 0.0176963 0.00716374
0.0864986 0.0168189 0.00751522
0.0866599 0.0182814 0.00694184
0.0866277 0.0181239 0.00699995
0.0867247 0.0173943 0.00729129
0.0803151 0.016801 0.00753211
0.0867796 0.0179961 0.00704901
0.0867441 0.0182306 0.00696006
0.0868447 0.0182688 0.0069462
0.0866201 0.0180329 0.00713327
0.086814 0.0180836 0.00701496
0.0801953 0.016291 0.00782567
0.0866788 0.0183736 0.00690787
0.080349 0.0165738 0.00766314
0.0866812 0.0172123 0.00736335
0.08029 0.0163189 0.00780986
0.0643568 0.0187248 0.00531097
0.24257 0.0191927 0.00520306
0.0806435 0.0173822 0.00734315
0.0801563 0.016121 0.00792353
0.0807163 0.0173159 0.00730964
0.0801174 0.0159534 0.00802534
0.0864236 0.0168792 0.00748739
0.0865221 0.0176663 0.00717168
0.0869295 0.0182192 0.00696494
0.0867193 0.0185665 0.00691366
0.0802148 0.016376 0.00777675
0.0810146 0.0178661 0.00706438
0.080575 0.0171122 0.00739844
0.0865751 0.0175147 0.00723567
0.086402 0.0167884 0.00752334
0.0862677 0.0162099 0.0078705
0.0800613 0.0157695 0.00825036
0.0865634 0.0170912 0.00740737
0.0861339 0.0160646 0.00804425
0.086096 0.0159367 0.00819333
0.0869418 0.0183117 0.00692913
0.0802316 0.0160639 0.00795665
0.0867035 0.0180615 0.00702244
0.0862485 0.016146 0.00794501
0.0864787 0.0174845 0.00724369
0.0801757 0.016206 0.00787459
0.0865871 0.0179403 0.0070681
0.0866508 0.0182191 0.00701954
0.0804762 0.0170971 0.00739931
0.0803291 0.0164889 0.00771202
0.0866835 0.0179694 0.00705671
0.0864184 0.0164547 0.00765977
0.086585 0.017182 0.00737142
0.0862291 0.0160821 0.00801949
0.0801757 0.0158393 0.00813702
0.0867403 0.0186642 0.00691603
0.0863623 0.0166062 0.00759567
0.0868638 0.0184593 0.0068753
0.080212 0.0159789 0.00800557
0.0805967 0.0172007 0.00735728
0.0801368 0.016036 0.00797246
0.0805534 0.0170237 0.00743961
0.0804087 0.0164158 0.00775435
0.0801574 0.0157859 0.00821958
0.0804445 0.0173321 0.00728432
0.0868579 0.018363 0.00691076
0.0804481 0.0165858 0.00765654
0.0808109 0.0173471 0.00730073
0.0802704 0.0162339 0.00785878
0.0805411 0.0173631 0.00727564
0.0806062 0.0176291 0.00715196
0.0805194 0.0172744 0.00731688
0.0219312 0.0187687 0.00551176
0.0806196 0.0174746 0.00731347
0.0867432 0.0178256 0.00711671
0.0805092 0.0175977 0.00716081
0.0804661 0.0174206 0.00724315
0.0807566 0.0179893 0.00698849
0.0808788 0.0176414 0.00716365
0.0863826 0.016295 0.00776696
0.0804282 0.0165008 0.00770543
0.080703 0.0174049 0.007266
0.0809335 0.0179167 0.00703483
0.0807607 0.0175189 0.0072149
0.0863987 0.0163635 0.00769596
0.0808563 0.0175488 0.0072067
0.0868947 0.0179216 0.00708438
0.0806844 0.0175751 0.00718298
0.074402 0.0171304 0.0072968
0.0804978 0.0171856 0.00735815
0.0805523 0.0177748 0.00707846
0.0810038 0.0177752 0.00710735
0.0809235 0.0178268 0.0070774
0.0804773 0.0175095 0.00735534
0.0863431 0.016515 0.00763191
0.0806631 0.0174865 0.00722419
0.0866809 0.0178582 0.00718784
0.080423 0.0172446 0.00732775
0.0804604 0.0174118 0.0073426
0.0866594 0.0171213 0.0073994
0.0867629 0.0183227 0.0069261
0.0867027 0.0173032 0.00732735
0.0745155 0.0172417 0.00722547
0.0867596 0.0187558 0.00695132
0.0806712 0.0171392 0.00739168
0.0864776 0.016728 0.00755125
0.0804891 0.0167594 0.00756619
0.080892 0.0177404 0.00711687
0.0799659 0.0155045 0.00866344
0.0744659 0.0174108 0.00722991
0.0803366 0.0168892 0.00749024
0.0804876 0.0175091 0.00720198
0.080433 0.01692 0.00748165
0.0808862 0.0180658 0.00696011
0.0806938 0.0172275 0.00735066
0.0869689 0.0180529 0.00703429
0.0804114 0.0168324 0.00752457
0.0807379 0.0178584 0.00709787
0.080706 0.0176636 0.00714181
0.0802511 0.0161489 0.00790772
0.0805628 0.0174517 0.00723442
0.0804684 0.0166718 0.00760989
0.0865597 0.017739 0.00723278
0.0868264 0.0181763 0.00697959
0.0807825 0.0176077 0.00717364
0.0866376 0.0170303 0.00743542
0.0867308 0.0181576 0.00702714
0.0744932 0.0171486 0.00725455
0.0805308 0.0176862 0.00711964
0.086438 0.0165458 0.00762358
0.08065 0.0178148 0.00707846
0.0866992 0.0184697 0.00692837
0.0805612 0.0176264 0.00724124
0.0743987 0.0167681 0.00756493
0.0864576 0.0166369 0.0075874
0.0806183 0.0172893 0.00731611
0.0804014 0.017155 0.00736664
0.0867962 0.017905 0.00708679
0.0807976 0.0174361 0.00725709
0.0744599 0.0169968 0.00738056
0.074424 0.0172207 0.00725989
0.0805404 0.017537 0.00728278
0.080822 0.0182072 0.00695611
0.0743805 0.0170437 0.00734183
0.0803696 0.0162458 0.0078522
0.0805103 0.0168465 0.00752197
0.0867752 0.0184159 0.00689178
0.0808373 0.0184365 0.00701069
0.0808451 0.0183084 0.00697873
0.0809279 0.0182561 0.00695849
0.0741973 0.0163508 0.00788573
0.0742579 0.0165855 0.00770895
0.0741776 0.0162725 0.0079447
0.0806279 0.0169621 0.007474
0.0803902 0.0167446 0.00756767
0.0742171 0.0164291 0.00782677
0.0743398 0.016893 0.0074669
0.0806867 0.0179232 0.00701576
0.0809578 0.0180047 0.00699407
0.0744864 0.0175086 0.00723257
0.0806277 0.0177176 0.00711079
0.0869114 0.0181278 0.0070013
0.0745274 0.0177043 0.00723543
0.0744395 0.0169214 0.00744318
0.0743194 0.0168177 0.00752944
0.0801386 0.0157332 0.00830246
0.0807251 0.0177525 0.00710029
0.0806094 0.0180408 0.00695427
0.0806336 0.0179124 0.0070998
0.0745482 0.0178021 0.00723255
0.0805319 0.0169351 0.00748081
0.0807666 0.0183666 0.00700003
0.0809086 0.0181604 0.0069369
0.0742999 0.016742 0.00759182
0.0806299 0.0181386 0.00695673
0.0744454 0.0173129 0.00722788
0.0807893 0.0172562 0.00734302
0.0807128 0.0180772 0.00696942
0.0805488 0.0173762 0.00737449
0.0805929 0.0179558 0.00700435
0.0868782 0.0180127 0.0070466
0.0808027 0.0176978 0.0071316
0.0745899 0.0179976 0.00722679
0.0806907 0.0184242 0.00703039
0.074569 0.0178999 0.00722967
0.0806645 0.0180189 0.00703477
0.080573 0.0178635 0.00703716
0.0807112 0.0185212 0.00704278
0.080794 0.0179067 0.00703063
0.0743602 0.0169684 0.00740437
0.0745405 0.0173438 0.00722825
0.0806063 0.0168736 0.00751517
0.0744191 0.0168461 0.0075057
0.074237 0.0165074 0.00776782
0.0807477 0.0182708 0.00697836
0.0807273 0.0181753 0.00695692
0.0806505 0.0182352 0.00697957
0.0808011 0.0181117 0.00693472
0.0806708 0.018331 0.007
0.0805853 0.0167849 0.00755642
0.0806495 0.0170506 0.00743283
0.0808555 0.0179792 0.00699972
0.0803501 0.0161608 0.00790113
0.0808245 0.0178126 0.00707784
0.0807315 0.0186168 0.00706426
0.0744806 0.0170723 0.00731795
0.0809292 0.0183622 0.00698425
0.0866157 0.0169394 0.00747142
0.0742785 0.0166646 0.00765132
0.0745068 0.0176065 0.00723523
0.0868215 0.0177693 0.00714307

VERTICES 287 574
1 0
1 1
1 2
1 3
1 4
1 5
1 6
1 7
1 8
1 9
1 10
1 11
1 12
1 13
1 14
1 15
1 16
1 17
1 18
1 19
1 20
1 21
1 22
1 23
1 24
1 25
1 26
1 27
1 28
1 29
1 30
1 31
1 32
1 33
1 34
1 35
1 36
1 37
1 38
1 39
1 40
1 41
1 42
1 43
1 44
1 45
1 46
1 47
1 48
1 49
1 50
1 51
1 52
1 53
1 54
1 55
1 56
1 57
1 58
1 59
1 60
1 61
1 62
1 63
1 64
1 65
1 66
1 67
1 68
1 69
1 70
1 71
1 72
1 73
1 74
1 75
1 76
1 77
1 78
1 79
1 80
1 81
1 82
1 83
1 84
1 85
1 86
1 87
1 88
1 89
1 90
1 91
1 92
1 93
1 94
1 95
1 96
1 97
1 98
1 99
1 100
1 101
1 102
1 103
1 104
1 105
1 106
1 107
1 108
1 109
1 110
1 111
1 112
1 113
1 114
1 115
1 116
1 117
1 118
1 119
1 120
1 121
1 122
1 123
1 124
1 125
1 126
1 127
1 128
1 129
1 130
1 131
1 132
1 133
1 134
1 135
1 136
1 137
1 138
1 139
1 140
1 141
1 142
1 143
1 144
1 145
1 146
1 147
1 148
1 149
1 150
1 151
1 152
1 153
1 154
1 155
1 156
1 157
1 158
1 159
1 160
1 161
1 162
1 163
1 164
1 165
1 166
1 167
1 168
1 169
1 170
1 171
1 172
1 173
1 174
1 175
1 176
1 177
1 178
1 179
1 180
1 181
1 182
1 183
1 184
1 185
1 186
1 187
1 188
1 189
1 190
1 191
1 192
1 193
1 194
1 195
1 196
1 197
1 198
1 199
1 200
1 201
1 202
1 203
1 204
1 205
1 206
1 207
1 208
1 209
1 210
1 211
1 212
1 213
1 214
1 215
1 216
1 217
1 218
1 219
1 220
1 221
1 222
1 223
1 224
1 225
1 226
1 227
1 228
1 229
1 230
1 231
1 232
1 233
1 234
1 235
1 236
1 237
1 238
1 239
1 240
1 241
1 242
1 243
1 244
1 245
1 246
1 247
1 248
1 249
1 250
1 251
1 252
1 253
1 254
1 255
1 256
1 257
1 258
1 259
1 260
1 261
1 262
1 263
1 264
1 265
1 266
1 267
1 268
1 269
1 270
1 271
1 272
1 273
1 274
1 275
1 276
1 277
1 278
1 279
1 280
1 281
1 282
1 283
1 284
1 285
1 286

POINT_DATA 287
SCALARS id int 1
LOOKUP_TABLE default
1
2
3
4
5
6
7
8
9
10
11
12
13
14
15
16
17
18
19
21
22
23
24
25
26
27
28
29
30
31
32
33
34
35
36
37
38
39
41
42
44
45
46
47
48
49
50
51
52
53
54
55
56
57
59
60
61
62
63
64
65
66
67
68
69
70
71
72
73
74
76
77
78
79
80
81
82
83
84
85
86
87
88
89
90
91
92
93
94
95
96
97
98
99
100
101
102
103
104
105
106
107
108
109
110
111
112
113
114
115
116
117
118
119
120
121
122
123
124
125
126
127
128
129
130
131
132
133
134
135
136
137
138
140
141
142
143
144
146
147
148
149
150
151
153
154
155
156
157
158
159
160
162
164
165
166
167
168
169
170
171
172
173
174
175
176
177
178
179
181
182
183
184
185
186
187
188
189
190
191
192
193
194
195
196
197
198
199
200
201
202
203
204
205
206
207
208
209
210
211
212
213
214
215
216
217
218
219
220
221
222
223
224
225
226
227
228
229
230
231
232
233
234
235
236
237
239
240
241
242
243
244
246
247
248
249
250
251
252
253
254
255
256
257
258
259
260
261
262
263
264
265
266
267
268
269
270
271
272
273
274
275
276
277
278
279
280
281
282
283
284
285
286
287
288
289
290
291
292
293
294
295
296
297
298
299
300

SCALARS type int 1
LOOKUP_TABLE default
1
1
1
1
1
1
1
1
1
1
1
1
1
1
1
1
1
1
1
1
1
1
1
1
1
1
1
1
1
1
1
1
1
1
1
1
1
1
1
1
1
1
1
1
1
1
1
1
1
1
1
1
1
1
1
1
1
1
1
1
1
1
1
1
1
1
1
1
1
1
1
1
1
1
1
1
1
1
1
1
1
1
1
1
1
1
1
1
1
1
1
1
1
1
1
1
1
1
1
1
1
1
1
1
1
1
1
1
1
1
1
1
1
1
1
1
1
1
1
1
1
1
1
1
1
1
1
1
1
1
1
1
1
1
1
1
1
1
1
1
1
1
1
1
1
1
1
1
1
1
1
1
1
1
1
1
1
1
1
1
1
1
1
1
1
1
1
1
1
1
1
1
1
1
1
1
1
1
1
1
1
1
1
1
1
1
1
1
1
1
1
1
1
1
1
1
1
1
1
1
1
1
1
1
1
1
1
1
1
1
1
1
1
1
1
1
1
1
1
1
1
1
1
1
1
1
1
1
1
1
1
1
1
1
1
1
1
1
1
1
1
1
1
1
1
1
1
1
1
1
1
1
1
1
1
1
1
1
1
1
1
1
1
1
1
1
1
1
1
1
1
1
1
1
1
1
1
1
1
1
1
1
1
1
1
1
1

SCALARS radius float 1
LOOKUP_TABLE default
5e-05
5e-05
5e-05
5e-05
5e-05
5e-05
5e-05
5e-05
5e-05
5e-05
5e-05
5e-05
5e-05
5e-05
5e-05
5e-05
5e-05
5e-05
5e-05
5e-05
5e-05
5e-05
5e-05
5e-05
5e-05
5e-05
5e-05
5e-05
5e-05
5e-05
5e-05
5e-05
5e-05
5e-05
5e-05
5e-05
5e-05
5e-05
5e-05
5e-05
5e-05
5e-05
5e-05
5e-05
5e-05
5e-05
5e-05
5e-05
5e-05
5e-05
5e-05
5e-05
5e-05
5e-05
5e-05
5e-05
5e-05
5e-05
5e-05
5e-05
5e-05
5e-05
5e-05
5e-05
5e-05
5e-05
5e-05
5e-05
5e-05
5e-05
5e-05
5e-05
5e-05
5e-05
5e-05
5e-05
5e-05
5e-05
5e-05
5e-05
5e-05
5e-05
5e-05
5e-05
5e-05
5e-05
5e-05
5e-05
5e-05
5e-05
5e-05
5e-05
5e-05
5e-05
5e-05
5e-05
5e-05
5e-05
5e-05
5e-05
5e-05
5e-05
5e-05
5e-05
5e-05
5e-05
5e-05
5e-05
5e-05
5e-05
5e-05
5e-05
5e-05
5e-05
5e-05
5e-05
5e-05
5e-05
5e-05
5e-05
5e-05
5e-05
5e-05
5e-05
5e-05
5e-05
5e-05
5e-05
5e-05
5e-05
5e-05
5e-05
5e-05
5e-05
5e-05
5e-05
5e-05
5e-05
5e-05
5e-05
5e-05
5e-05
5e-05
5e-05
5e-05
5e-05
5e-05
5e-05
5e-05
5e-05
5e-05
5e-05
5e-05
5e-05
5e-05
5e-05
5e-05
5e-05
5e-05
5e-05
5e-05
5e-05
5e-05
5e-05
5e-05
5e-05
5e-05
5e-05
5e-05
5e-05
5e-05
5e-05
5e-05
5e-05
5e-05
5e-05
5e-05
5e-05
5e-05
5e-05
5e-05
5e-05
5e-05
5e-05
5e-05
5e-05
5e-05
5e-05
5e-05
5e-05
5e-05
5e-05
5e-05
5e-05
5e-05
5e-05
5e-05
5e-05
5e-05
5e-05
5e-05
5e-05
5e-05
5e-05
5e-05
5e-05
5e-05
5e-05
5e-05
5e-05
5e-05
5e-05
5e-05
5e-05
5e-05
5e-05
5e-05
5e-05
5e-05
5e-05
5e-05
5e-05
5e-05
5e-05
5e-05
5e-05
5e-05
5e-05
5e-05
5e-05
5e-05
5e-05
5e-05
5e-05
5e-05
5e-05
5e-05
5e-05
5e-05
5e-05
5e-05
5e-05
5e-05
5e-05
5e-05
5e-05
5e-05
5e-05
5e-05
5e-05
5e-05
5e-05
5e-05
5e-05
5e-05
5e-05
5e-05
5e-05
5e-05
5e-05
5e-05
5e-05
5e-05
5e-05
5e-05
5e-05
5e-05
5e-05
5e-05
5e-05
5e-05
5e-05
5e-05
5e-05
5e-05
5e-05
5e-05
5e-05
5e-05
5e-05
5e-05
5e-05
5e-05
5e-05
5e-05
5e-05
5e-05

SCALARS mass float 1
LOOKUP_TABLE default
1.46608e-10
1.46608e-10
1.46608e-10
1.46608e-10
1.46608e-10
1.46608e-10
1.46608e-10
1.46608e-10
1.46608e-10
1.46608e-10
1.46608e-10
1.46608e-10
1.46608e-10
1.46608e-10
1.46608e-10
1.46608e-10
1.46608e-10
1.46608e-10
1.46608e-10
1.46608e-10
1.46608e-10
1.46608e-10
1.46608e-10
1.46608e-10
1.46608e-10
1.46608e-10
1.46608e-10
1.46608e-10
1.46608e-10
1.46608e-10
1.46608e-10
1.46608e-10
1.46608e-10
1.46608e-10
1.46608e-10
1.46608e-10
1.46608e-10
1.46608e-10
1.46608e-10
1.46608e-10
1.46608e-10
1.46608e-10
1.46608e-10
1.46608e-10
1.46608e-10
1.46608e-10
1.46608e-10
1.46608e-10
1.46608e-10
1.46608e-10
1.46608e-10
1.46608e-10
1.46608e-10
1.46608e-10
1.46608e-10
1.46608e-10
1.46608e-10
1.46608e-10
1.46608e-10
1.46608e-10
1.46608e-10
1.46608e-10
1.46608e-10
1.46608e-10
1.46608e-10
1.46608e-10
1.46608e-10
1.46608e-10
1.46608e-10
1.46608e-10
1.46608e-10
1.46608e-10
1.46608e-10
1.46608e-10
1.46608e-10
1.46608e-10
1.46608e-10
1.46608e-10
1.46608e-10
1.46608e-10
1.46608e-10
1.46608e-10
1.46608e-10
1.46608e-10
1.46608e-10
1.46608e-10
1.46608e-10
1.46608e-10
1.46608e-10
1.46608e-10
1.46608e-10
1.46608e-10
1.46608e-10
1.46608e-10
1.46608e-10
1.46608e-10
1.46608e-10
1.46608e-10
1.46608e-10
1.46608e-10
1.46608e-10
1.46608e-10
1.46608e-10
1.46608e-10
1.46608e-10
1.46608e-10
1.46608e-10
1.46608e-10
1.46608e-10
1.46608e-10
1.46608e-10
1.46608e-10
1.46608e-10
1.46608e-10
1.46608e-10
1.46608e-10
1.46608e-10
1.46608e-10
1.46608e-10
1.46608e-10
1.46608e-10
1.46608e-10
1.46608e-10
1.46608e-10
1.46608e-10
1.46608e-10
1.46608e-10
1.46608e-10
1.46608e-10
1.46608e-10
1.46608e-10
1.46608e-10
1.46608e-10
1.46608e-10
1.46608e-10
1.46608e-10
1.46608e-10
1.46608e-10
1.46608e-10
1.46608e-10
1.46608e-10
1.46608e-10
1.46608e-10
1.46608e-10
1.46608e-10
1.46608e-10
1.46608e-10
1.46608e-10
1.46608e-10
1.46608e-10
1.46608e-10
1.46608e-10
1.46608e-10
1.46608e-10
1.46608e-10
1.46608e-10
1.46608e-10
1.46608e-10
1.46608e-10
1.46608e-10
1.46608e-10
1.46608e-10
1.46608e-10
1.46608e-10
1.46608e-10
1.46608e-10
1.46608e-10
1.46608e-10
1.46608e-10
1.46608e-10
1.46608e-10
1.46608e-10
1.46608e-10
1.46608e-10
1.46608e-10
1.46608e-10
1.46608e-10
1.46608e-10
1.46608e-10
1.46608e-10
1.46608e-10
1.46608e-10
1.46608e-10
1.46608e-10
1.46608e-10
1.46608e-10
1.46608e-10
1.46608e-10
1.46608e-10
1.46608e-10
1.46608e-10
1.46608e-10
1.46608e-10
1.46608e-10
1.46608e-10
1.46608e-10
1.46608e-10
1.46608e-10
1.46608e-10
1.46608e-10
1.46608e-10
1.46608e-10
1.46608e-10
1.46608e-10
1.46608e-10
1.46608e-10
1.46608e-10
1.46608e-10
1.46608e-10
1.46608e-10
1.46608e-10
1.46608e-10
1.46608e-10
1.46608e-10
1.46608e-10
1.46608e-10
1.46608e-10
1.46608e-10
1.46608e-10
1.46608e-10
1.46608e-10
1.46608e-10
1.46608e-10
1.46608e-10
1.46608e-10
1.46608e-10
1.46608e-10
1.46608e-10
1.46608e-10
1.46608e-10
1.46608e-10
1.46608e-10
1.46608e-10
1.46608e-10
1.46608e-10
1.46608e-10
1.46608e-10
1.46608e-10
1.46608e-10
1.46608e-10
1.46608e-10
1.46608e-10
1.46608e-10
1.46608e-10
1.46608e-10
1.46608e-10
1.46608e-10
1.46608e-10
1.46608e-10
1.46608e-10
1.46608e-10
1.46608e-10
1.46608e-10
1.46608e-10
1.46608e-10
1.46608e-10
1.46608e-10
1.46608e-10
1.46608e-10
1.46608e-10
1.46608e-10
1.46608e-10
1.46608e-10
1.46608e-10
1.46608e-10
1.46608e-10
1.46608e-10
1.46608e-10
1.46608e-10
1.46608e-10
1.46608e-10
1.46608e-10
1.46608e-10
1.46608e-10
1.46608e-10
1.46608e-10
1.46608e-10
1.46608e-10
1.46608e-10
1.46608e-10
1.46608e-10
1.46608e-10
1.46608e-10
1.46608e-10
1.46608e-10
1.46608e-10
1.46608e-10

VECTORS velocity float
0.00560917 -0.000109379 0.000293195
0.00606662 -0.000160751 0.000332817
0.00566904 3.29096e-06 -7.44874e-05
0.00611512 -0.00014209 0.000327661
0.00561455 -0.000247515 0.000217441
0.00610347 0.000790766 -0.000252885
0.00605253 -0.000160925 0.000334045
0.00542406 -0.000272999 5.68081e-05
0.00605124 0.000804782 -9.23536e-06
0.00603455 -4.74137e-05 0.00028688
0.00608983 -0.000147224 0.000333616
0.00561579 0.000121448 -5.44969e-05
0.00558363 -0.000329286 0.000120168
0.00576085 3.72981e-06 -7.15505e-05
0.00606704 -0.000166068 0.000336464
0.00579585 -1.19812e-06 -6.28641e-05
0.0055859 7.72741e-05 0.000216146
0.00629557 0.000365236 -0.000525701
0.00551746 -0.000318489 0.000103321
0.00558931 -0.000155913 0.000227083
0.00606863 -0.000182865 0.00034357
0.00613458 0.000147004 0.000317205
0.00648242 0.000502437 -0.000425623
0.00604522 -0.00014215 0.00032593
0.0061439 0.000260427 -0.000451758
0.00610998 0.000130126 0.000326129
0.00608908 -0.000162104 0.000291046
0.00549533 -0.00027423 5.46235e-05
0.0060723 -0.000160366 0.000336159
0.00606548 -0.000166207 0.000336285
0.00608936 -0.000170595 0.00033928
0.00613785 0.000787627 -0.000249661
0.0055964 2.77606e-05 0.000236601
0.00607285 -0.000163536 0.000335789
0.00587101 0.000845978 -2.44992e-05
0.00604111 -0.000155282 0.000330932
0.00604213 -0.000179192 0.000341057
0.00648221 0.000674447 3.40638e-05
0.00561872 -0.000105318 0.000295443
0.00607689 -0.000170443 0.000338262
0.00605872 -0.000175006 0.000339964
0.00617583 0.000798112 -0.000254645
0.0061691 0.000356225 -0.000520135
0.00561389 -8.69304e-05 0.000282254
0.00609668 -0.000163813 0.00030747
0.00618966 0.000283403 -0.000466561
0.00613699 -0.000231161 5.51956e-05
0.00611655 -0.000219446 0.000362034
0.00561502 0.000143156 -6.56373e-05
0.00633262 0.000365203 -0.00055598
0.00556478 -0.000250513 0.000118666
0.00569576 1.00032e-05 -7.82334e-05
0.00604992 -0.000165056 0.0003349
0.00621619 0.000818456 -0.00026568
0.00603691 -0.000170336 0.000337043
0.00603971 -0.000176361 0.000339386
0.00563302 -0.000163764 0.000314159
0.00606783 -0.00016787 0.000337577
0.00612376 -0.000167397 0.000339106
0.00638728 0.000381259 -0.000569216
0.00584876 3.76042e-05 8.90184e-05
0.00562161 2.64317e-05 9.52509e-07
0.00609824 -0.000151979 0.0003318
0.00608225 -0.000156584 0.000329819
0.00572848 -9.55714e-05 0.000292722
0.00648329 0.000681603 2.50428e-05
0.00571137 1.18931e-05 -7.83002e-05
0.00608299 -0.000160577 0.000333732
0.00603303 -0.000146645 0.000327119
0.00608587 -0.000167709 0.000337759
0.00625025 0.000143115 0.000337683
0.00583114 -0.000145132 2.32835e-05
0.00562996 2.12933e-05 -6.18704e-05
0.00602702 -1.11425e-05 2.714e-05
0.00580544 -0.000155124 1.79466e-05
0.0056063 5.17585e-05 -1.37639e-05
0.00613134 0.000170619 0.000313347
0.00562601 4.50744e-05 -1.01611e-05
0.00577795 0.000869822 -3.39495e-05
0.00565046 4.98071e-05 -9.11717e-06
0.0061249 -0.000202568 0.000352725
0.00592455 -0.000149877 0.000323249
0.00573986 -0.000162767 2.86387e-05
0.00566532 -0.000123865 1.33996e-05
0.00605791 -0.000169495 0.000337829
0.00608325 -2.38383e-05 2.90269e-05
0.00575594 5.31267e-05 0.000231347
0.00575623 -0.000134455 1.73623e-05
0.0057858 -4.20821e-05 3.54682e-05
0.00586724 -0.00017668 1.16194e-05
0.00562577 8.3318e-05 0.000213554
0.00562418 3.00893e-05 -1.34372e-06
0.00577427 -0.000176563 2.47292e-05
0.00570064 2.287e-05 2.82601e-05
0.0060203 -0.000200151 0.00034818
0.00562267 3.21812e-05 -1.75307e-06
4.33962e-15 1.04804e-14 8.29586e-14
-2.11393e-22 2.24983e-22 1.23839e-22
0.00620227 0.000200969 0.000315392
0.00562311 3.76997e-05 -3.3736e-06
0.00614305 0.000163488 0.000318957
0.00563457 3.14406e-05 -3.05942e-05
0.00604106 -0.000148647 0.000328153
0.00612846 -0.000137259 0.000328017
0.00578631 7.49473e-05 0.0002145
0.00580958 -0.000146467 1.99862e-05
0.00561644 3.1198e-05 -1.89506e-06
0.00627363 0.000390309 0.000222186
0.00613051 0.000200815 0.000298507
0.00608003 -0.000159967 0.00033346
0.00595283 -0.000132792 0.000317676
0.00554082 -0.000294189 7.30761e-05
0.00569951 -3.12852e-06 -7.55214e-05
0.0060292 -0.000179926 0.000339892
0.00546452 -0.000276433 5.86852e-05
0.00540597 -0.000273137 5.77412e-05
0.00580425 -3.6041e-05 -1.64267e-05
0.0056265 4.15299e-05 -6.21479e-06
0.00579101 -0.000105877 9.38776e-06
0.00550241 -0.000287462 7.15273e-05
0.00609509 -0.00015819 0.000334462
0.00562398 3.28756e-05 -2.72993e-06
0.00614501 -0.000126676 0.000329067
0.00575777 -0.000164295 2.78596e-05
0.00614047 0.000160527 0.000318824
0.00562569 2.4074e-05 2.63005e-06
0.0058106 -0.000158108 -4.89761e-05
0.005593 -8.30004e-05 0.000281832
0.00601804 -0.000177636 0.0003388
0.0054725 -0.000285776 6.93965e-05
0.0056545 1.53429e-05 -2.07743e-05
0.0057803 -0.000152254 1.3349e-05
0.00562506 -8.25853e-05 0.000283207
0.00581925 -0.000200722 4.23281e-05
0.00563161 4.61378e-05 -8.96651e-06
0.00612892 0.00020709 0.000295587
0.00562615 4.12639e-05 -7.5314e-06
0.00613866 0.000200006 0.000299381
0.00562175 5.69918e-05 -1.66965e-05
0.00567654 -8.45621e-06 -2.04389e-05
0.00619071 0.00018543 0.00031276
0.00576605 -0.000101463 2.3125e-06
0.00568775 6.60536e-05 -1.89003e-05
0.00612622 0.000179067 0.000308403
0.00562657 3.23595e-05 -2.03481e-06
0.00621038 0.000193637 0.0003046
0.00620062 8.67829e-05 0.000363392
0.00619429 0.000176759 0.000315324
-3.82934e-14 8.17022e-14 2.95883e-13
0.00622145 0.000199653 0.000315605
0.00608454 -0.00014993 0.000334841
0.00622188 0.000120313 0.000346961
0.00620192 0.000173545 0.000318905
0.00577711 -0.000132709 0.000435752
0.00567211 0.000345391 0.000198969
0.00553683 -0.000307725 8.8423e-05
0.00561219 6.89097e-05 -2.22737e-05
0.00619832 0.000155484 0.000323974
0.00601074 8.98928e-05 0.000364788
0.00626141 0.000184965 0.000315072
0.00560853 -0.000108975 0.000293169
0.00617381 0.000214331 0.000295302
0.00571702 0.000196975 0.00017264
0.00622245 0.000134005 0.000336553
0.00624059 -1.74735e-05 -1.27285e-05
0.00614179 0.000168343 0.00031421
0.00622256 7.21377e-05 0.000364021
0.0060939 0.00043159 0.000187323
0.00573089 8.10269e-06 0.000365532
0.00604087 0.000228503 0.00019975
0.00562707 -9.73777e-05 0.000289731
0.0062464 0.00015445 0.000329349
0.00608288 -0.00011528 0.000328315
0.00615905 0.000185984 0.000305165
0.00620374 0.000179597 0.000322652
0.00602371 -0.000168271 0.000335891
0.00578207 -0.000115262 1.68692e-05
0.0060329 -0.000198788 0.000348394
0.00625964 9.75744e-06 1.2909e-05
0.00576617 -0.000156841 8.37779e-06
0.00615605 0.000159533 0.000319434
0.00568229 -0.000105406 0.000294837
0.00598812 0.000144641 0.000230144
0.00567617 -7.63167e-05 0.000398259
0.00576221 8.14101e-07 -6.64494e-05
0.00623451 3.67499e-06 1.15468e-05
0.00607622 0.000116071 0.000334262
0.00621159 0.000150551 0.000330698
0.00610645 0.000133756 0.000316038
0.00633831 0.000299808 0.000319666
0.00613707 0.00016653 0.000316292
0.00572044 0.000140487 0.000196507
0.00608848 0.000104433 0.000278171
0.00568162 0.000108705 0.000443259
0.00612871 0.000105212 0.000344534
0.00562584 3.52937e-05 -4.27859e-06
0.00621907 0.000160577 0.000324646
0.00584068 8.85216e-05 6.87716e-05
0.00613201 -0.000227054 0.000363047
0.00580521 -8.30033e-05 -0.000117302
0.00617409 0.000197845 0.00030226
0.00603352 -0.000178052 0.000339869
0.00579126 -0.000119509 2.2309e-05
0.00624758 3.65511e-06 -1.76539e-05
0.00621218 7.94699e-05 0.000361223
0.00554904 -7.81043e-05 0.000277855
0.00564204 0.000207624 0.000290094
0.00576188 -0.000160852 2.16259e-05
0.00619389 0.000169351 0.000359401
0.00606848 -0.000200863 -0.000274288
0.00554231 -7.97798e-05 0.000278122
0.00619967 0.000203424 0.000307007
0.00614725 0.000167799 0.000315725
0.00573546 5.35763e-05 0.000232959
0.00620487 0.000180776 0.000313891
0.00621804 -1.6048e-05 1.44636e-06
0.00624537 -9.31759e-06 -1.88315e-05
0.00618922 0.000158453 0.000303743
0.00560614 -0.000405996 -0.000518049
0.00622264 -1.10531e-05 -5.65625e-06
0.00562635 3.84307e-05 -6.06579e-06
0.00607491 0.00017262 0.000307587
0.00575929 -0.000133726 9.24289e-06
0.00570051 0.000188448 -0.000494007
0.00574749 4.36663e-05 -0.000494697
0.00590767 0.000208712 -0.000495344
0.00554414 -5.19121e-05 -0.000342547
0.00588121 -0.000110429 -0.000326634
0.00555101 -5.06949e-05 -0.000343933
0.00611465 0.000152968 0.000319882
0.00600345 6.56527e-05 0.000182007
0.0057142 -8.41393e-05 -0.000330529
0.00613304 1.85633e-05 -2.08874e-05
0.00565684 -0.000103312 0.000410984
0.00640013 0.000161991 0.000353186
0.00616929 1.48329e-05 1.30162e-05
0.00617346 7.70412e-05 0.000357901
0.00571331 0.000114434 0.000205966
0.00609798 2.27878e-05 -0.000305494
0.00614647 -2.47277e-05 1.14692e-05
0.00610237 3.35577e-05 -4.01593e-05
0.00565318 -1.60767e-05 -2.64932e-05
0.00556411 0.000172559 0.000279187
0.0057926 0.000146954 0.000308491
0.00560291 0.000108508 0.000424814
0.00606284 2.64452e-05 -0.00032117
0.0061001 0.000171992 0.000293177
0.00575797 0.000163204 -0.000669532
0.0057827 0.000212174 -0.000502296
0.00607116 -1.02669e-05 -0.000120815
0.00577792 0.000161712 -0.000463343
0.00625642 1.01116e-06 2.50042e-06
0.00613862 0.000182928 0.000307922
0.00592968 -0.00010376 0.000321181
0.00621442 0.00015164 0.000303425
0.00573414 0.00016261 0.000282196
0.00571561 0.000194417 0.00017553
0.00543906 2.53671e-06 0.00034948
0.00599035 4.36192e-05 -0.000320511
0.00569755 0.000102659 -0.000562795
0.00602607 3.36997e-05 -0.000321124
0.00573191 6.38745e-05 0.000355565
0.00567723 0.000180919 0.000278309
0.00569837 0.000250308 -0.0004681
0.00575559 -8.30521e-05 0.000452519
0.00617799 2.54816e-06 -1.15303e-05
0.00625802 1.24238e-05 1.39384e-05
0.00607655 0.00015848 0.000316271
0.0061084 -1.4833e-05 -2.21489e-06
0.00588983 -0.000119437 -0.000316718
0.00594693 4.4972e-05 -0.000456177
0.00592762 -0.000194248 -5.10091e-05
0.00586162 3.12972e-05 -0.000129294
0.0060179 -0.00032202 -0.000426278
0.00579734 2.33482e-05 -0.000516478
0.00598533 0.000171677 0.000304095
0.00615277 0.000154449 0.000323778
0.00572186 0.000115097 0.000310685
0.00562519 3.45555e-05 -2.88959e-06
0.00563656 1.67187e-05 0.000376871
0.00555589 -0.000467794 -0.00061657
0.00623789 -1.21625e-05 -5.01416e-06
0.00563902 0.00023497 -0.000444143
0.00602946 -0.000189272 0.000344287
0.0059771 -8.65165e-05 -0.00025995
0.00612008 2.15384e-05 1.02908e-05
0.00607752 -0.000130505 0.000321309

VECTORS force float
4.55471e-11 -7.67827e-11 3.60981e-11
1.88365e-10 -1.90783e-10 -4.30329e-11
-4.22818e-10 -6.1919e-11 4.64263e-11
1.13738e-10 6.26179e-11 -3.53619e-11
1.10459e-10 -8.87492e-11 2.41054e-12
2.25438e-11 8.53835e-11 -5.2056e-11
6.39215e-11 1.66126e-10 -6.62362e-11
1.22458e-10 -1.78662e-11 1.52667e-11
-6.70547e-10 1.36949e-10 -3.36261e-11
4.64894e-11 -2.19421e-11 1.45758e-11
6.07734e-11 9.77415e-11 -7.12372e-11
5.59194e-10 8.45652e-10 -5.08292e-10
1.80388e-10 -1.1225e-11 3.22187e-11
-9.28373e-11 -1.08902e-11 -4.60187e-11
4.00433e-11 -9.89202e-11 2.86158e-11
-2.96533e-11 -2.72202e-11 1.52634e-11
8.40028e-11 -3.30616e-10 1.35911e-10
-7.63505e-10 -4.07443e-10 3.58715e-10
-1.47598e-10 -4.97465e-11 6.96807e-11
7.77915e-11 -1.1111e-12 4.37537e-11
3.85797e-11 2.0257e-10 -7.65238e-11
-1.76692e-10 1.39647e-10 -5.10121e-11
2.49777e-10 -8.69439e-11 -3.05976e-10
-4.45277e-12 2.50263e-11 -2.50656e-12
-2.87472e-11 3.73703e-10 -2.34447e-10
-1.22135e-10 -9.13515e-11 4.04406e-11
-8.2441e-11 2.403e-10 5.92435e-10
4.30436e-11 1.2698e-10 -1.51217e-10
3.25867e-12 -8.92344e-11 1.66863e-10
-1.83765e-11 1.1738e-10 -4.98763e-11
-8.60856e-11 6.45164e-11 -3.08694e-11
2.22448e-11 8.29439e-11 -5.02734e-11
1.59692e-12 1.92884e-11 -1.21215e-11
-1.38063e-10 -4.88658e-11 1.36663e-11
5.64564e-11 -1.00697e-10 7.46695e-11
-5.71385e-12 6.40672e-11 -3.02128e-11
3.01565e-10 2.33554e-11 2.0529e-11
6.43471e-10 4.42492e-10 -1.08678e-10
1.08712e-10 5.79533e-12 -3.60123e-11
-1.97578e-11 -1.14489e-10 5.09701e-11
2.15915e-10 -1.28128e-11 -7.95024e-13
2.23481e-11 7.91089e-11 -4.73444e-11
-2.56021e-10 3.23004e-10 -1.87213e-10
-5.32596e-11 5.48054e-12 -8.52837e-12
-3.07416e-11 -9.172e-12 -1.15317e-10
4.77002e-10 -1.76305e-10 -6.91154e-12
1.98403e-11 6.19683e-13 1.09835e-11
-1.34166e-11 1.1506e-10 -2.84828e-11
-2.57699e-10 -1.08819e-09 6.49392e-10
-8.15553e-10 -2.75521e-10 6.6466e-10
1.34887e-10 4.39899e-11 1.82252e-11
4.4338e-11 -5.28595e-11 6.9147e-11
-8.52973e-12 6.48874e-11 -2.76645e-11
1.87411e-11 7.59264e-11 -4.68814e-11
-1.01918e-10 5.66598e-11 -1.28842e-11
3.26982e-12 6.65504e-11 -6.35348e-11
1.99056e-11 -5.17734e-11 2.97902e-12
-6.24758e-13 -7.68975e-11 6.09072e-11
-3.10358e-12 -3.41627e-10 1.42688e-10
-4.10674e-10 -1.17845e-10 5.17538e-10
-9.61364e-11 8.3518e-12 -1.98101e-10