# vtk DataFile Version 3.0
LIGGGHTS particles timestep 37800000
ASCII
DATASET POLYDATA
POINTS 271 float
0.232971 0.0158304 0.00850187
0.233816 0.0184291 0.00694288
0.227886 0.0180199 0.00708242
0.233891 0.0183654 0.00695993
0.232957 0.0157798 0.00858699
0.239308 0.016958 0.00740787
0.23305 0.0160374 0.00816922
0.232929 0.0157274 0.00866764
0.239424 0.0174682 0.00711428
0.233509 0.0179015 0.00715347
0.233643 0.0181147 0.00706767
0.226983 0.015795 0.00835394
0.232869 0.0155722 0.00891719
0.227659 0.0186258 0.00688201
0.233841 0.0182825 0.00699315
0.227755 0.0186598 0.00687824
0.233975 0.0184151 0.00693606
0.232909 0.0156757 0.00875082
0.23347 0.0177175 0.0072218
0.233623 0.0180227 0.00710183
0.22723 0.0163566 0.00791711
0.239502 0.0178403 0.00700182
0.233109 0.0161758 0.00791025
0.239387 0.0172979 0.00721228
0.227964 0.0183688 0.00690307
0.233755 0.0182376 0.00701556
0.233076 0.0160858 0.00808554
0.233624 0.018208 0.00712643
0.233128 0.0162211 0.00782303
0.233598 0.0174953 0.00729143
0.239328 0.0170429 0.00735899
0.23303 0.0159903 0.00825521
0.233755 0.01788 0.0071428
0.239482 0.0177439 0.00702003
0.233648 0.018569 0.00690558
0.233811 0.0188977 0.00681984
0.239521 0.0179366 0.00698361
0.233993 0.0185076 0.00690173
0.321436 0.0173475 0.00552525
0.233767 0.0183478 0.00697539
0.239348 0.0171279 0.00731011
0.23299 0.0158845 0.00841998
0.233792 0.0187999 0.00682865
0.233171 0.0163831 0.00771441
0.233151 0.0162999 0.00776596
0.226899 0.0154978 0.00860814
0.239462 0.0176476 0.00703822
0.23374 0.0185677 0.00697178
0.226841 0.015298 0.00881982
0.233667 0.018661 0.00687142
0.239367 0.0172129 0.00726123
0.233604 0.0179308 0.00713611
0.233458 0.0172388 0.00739305
0.233943 0.0186715 0.00685376
0.233941 0.0182826 0.0069857
0.239541 0.018033 0.0069654
0.227177 0.0165032 0.00784205
0.226822 0.0152634 0.0089117
0.233728 0.0184765 0.00693255
0.233665 0.0176689 0.00722462
0.233728 0.0186926 0.00694389
0.239405 0.0173831 0.00716326
0.226879 0.0154232 0.00867181
0.233606 0.0183671 0.00702707
0.233706 0.0188495 0.00681891
0.233773 0.0187055 0.00685522
0.227891 0.0184365 0.00689262
0.233698 0.0179588 0.00711896
0.22764 0.0185275 0.00688342
0.226939 0.0156467 0.00848095
0.233917 0.018571 0.00688484
0.227775 0.0187579 0.00687683
0.227004 0.0158692 0.00829044
0.227698 0.0183677 0.00690291
0.239442 0.0175534 0.00706525
0.227905 0.0181072 0.00703755
0.234012 0.0185999 0.00686775
0.233887 0.0188321 0.00682258
0.233346 0.0171145 0.00744568
0.233868 0.0187356 0.00684122
0.233661 0.0182068 0.0070335
0.227944 0.0182815 0.00694794
0.233753 0.0186114 0.00688275
0.233215 0.016563 0.0076396
0.23372 0.0182363 0.0071092
0.233581 0.0178834 0.00722122
0.233234 0.0166556 0.00760724
0.227295 0.0166175 0.00778346
0.233737 0.0181434 0.00705042
0.227402 0.0170521 0.00756076
0.233848 0.0186404 0.00686531
0.226961 0.0157209 0.00841744
0.0643568 0.0187248 0.00531097
0.24257 0.0191927 0.00520306
0.227601 0.0179253 0.00711217
0.228019 0.0182255 0.00698301
0.227847 0.0178453 0.00717221
0.227828 0.017758 0.00721712
0.233737 0.0188214 0.00690955
0.233929 0.0181893 0.00701976
0.233258 0.0167475 0.00757559
0.233588 0.0177895 0.00718749
0.227658 0.0181872 0.00697738
0.227263 0.0168482 0.00765892
0.22762 0.0184278 0.00688486
0.233831 0.0181754 0.00703203
0.233647 0.018555 0.00700459
0.233745 0.0190455 0.00681676
0.22747 0.0177186 0.0072123
0.233796 0.0179907 0.00710035
0.233093 0.0161324 0.0079989
0.233012 0.0159355 0.00833674
0.233549 0.0176056 0.00725598
0.227432 0.017544 0.00730218
0.233569 0.0176974 0.00722165
0.23383 0.0189947 0.00680537
0.233476 0.0173378 0.0073565
0.228039 0.0183129 0.00693811
0.233502 0.0175236 0.00728846
0.233566 0.0181775 0.00705097
0.227866 0.0179327 0.00712728
0.233679 0.0183008 0.0069987
0.233528 0.0179935 0.0071193
0.233473 0.0174339 0.00732248
0.23289 0.0156239 0.00883405
0.227679 0.018724 0.00688059
0.233193 0.0164709 0.00767144
0.233717 0.0183758 0.00705715
0.233718 0.0180508 0.0070848
0.227676 0.0182746 0.00693232
0.227413 0.0174567 0.00734702
0.22686 0.0153489 0.00873601
0.227526 0.0179811 0.00707715
0.227736 0.0185617 0.00687964
0.227497 0.0170816 0.00755195
0.233358 0.0172087 0.00741475
0.0100679 0.0201683 0.00551526
0.227371 0.0172827 0.00743624
0.227718 0.0189203 0.00687776
0.227488 0.017806 0.00716733
0.227696 0.0175519 0.00731695
0.227639 0.0180998 0.00702236
0.0219312 0.0187687 0.00551176
0.227867 0.0183407 0.00691103
0.233962 0.0187679 0.00683513
0.227507 0.0178933 0.00712236
0.227795 0.0188559 0.00687541
0.227359 0.0168782 0.00764984
0.227696 0.0179569 0.00710223
0.233686 0.0187531 0.00683752
0.227423 0.017139 0.00751623
0.227852 0.0186941 0.00687445
0.227772 0.0179014 0.00713707
0.233644 0.0182999 0.00709246
0.227677 0.0178695 0.00714718
0.233899 0.0184787 0.00691901
0.227715 0.0176392 0.00727198
0.221334 0.0170604 0.00732889
0.22754 0.0172557 0.00746276
0.227466 0.017313 0.00742708
0.227545 0.0176631 0.00724716
0.227813 0.018498 0.00688005
0.233547 0.0180855 0.00708513
0.227753 0.017814 0.00718204
0.233573 0.0180621 0.00717885
0.227349 0.0171958 0.00748078
0.233451 0.0176256 0.00725597
0.233645 0.0175771 0.00725878
0.23368 0.0183955 0.0069664
0.221604 0.0183729 0.00702406
0.233687 0.0177603 0.00719046
0.227659 0.0177822 0.00719212
0.233815 0.0180828 0.00706618
0.161461 0.0182058 0.00533758
0.22785 0.0182505 0.00695759
0.227251 0.0164435 0.00787258
0.221388 0.0173077 0.00718604
0.227698 0.0188221 0.00687918
0.2276 0.01833 0.00689755
0.227242 0.0167612 0.00770346
0.227734 0.0181319 0.00701215
0.233276 0.0168402 0.00754306
0.226919 0.0155724 0.00854451
0.227809 0.0180762 0.00704709
0.227316 0.0167044 0.00773892
0.227445 0.0172259 0.00747169
0.227621 0.0180125 0.00706733
0.224417 0.0177107 0.00701088
0.23349 0.0178095 0.00718763
0.233442 0.017583 0.00734598
0.227752 0.0182194 0.00696706
0.233629 0.018477 0.00693975
0.23338 0.0172993 0.00737824
0.221585 0.018276 0.00703878
0.227715 0.0180444 0.00705716
0.233725 0.0189457 0.0068003
0.227027 0.0159431 0.00822703
0.233318 0.0170271 0.00748545
0.227829 0.0181633 0.00700233
0.287494 0.0177876 0.00698768
0.233808 0.0185314 0.00690706
0.227583 0.0178379 0.00715716
0.027327 0.0174839 0.00793185
0.233661 0.0178519 0.00715983
0.227392 0.0173697 0.00739168
0.221526 0.0179852 0.00708295
0.221352 0.0171357 0.00726539
0.227791 0.0183968 0.0068788
0.227199 0.0165874 0.00779253
0.221314 0.0169855 0.00739189
0.227581 0.0182417 0.00694301
0.233585 0.0182698 0.00701671
0.22779 0.0179888 0.00709207
0.227156 0.0164142 0.00788217
0.227113 0.0162457 0.00798014
0.221151 0.0164173 0.00792736
0.221172 0.0164764 0.00784946
0.221237 0.0166853 0.00764461
0.227451 0.0176312 0.00725728
0.221193 0.0165412 0.00777631
0.221296 0.0169103 0.00745535
0.227984 0.0184658 0.00687122
0.22722 0.0166743 0.007748
0.221565 0.018179 0.0070535
0.227519 0.0171685 0.00750741
0.233298 0.0169325 0.00751099
0.221428 0.0175014 0.00715639
0.221624 0.0184699 0.00700933
0.221277 0.0168352 0.00751856
0.227545 0.0180743 0.00704566
0.22764 0.0176949 0.00723706
0.227602 0.0175196 0.00732724
0.227507 0.0174881 0.00733718
0.221448 0.0175984 0.00714167
0.227306 0.017022 0.00756985
0.227092 0.0161674 0.00803879
0.221258 0.0167601 0.00758179
0.22774 0.019018 0.00687628
0.221368 0.0172111 0.00720166
0.227564 0.0177505 0.00720213
0.227273 0.0165306 0.007828
0.227285 0.0169351 0.00761439
0.227582 0.0174317 0.00737246
0.233399 0.0173975 0.00737799
0.227832 0.018596 0.00687586
0.221487 0.0177912 0.00711239
0.227048 0.0160174 0.00816345
0.221477 0.0176927 0.00712693
0.227337 0.0167913 0.00769438
0.227328 0.0171089 0.00752531
0.227526 0.0175755 0.00729221
0.22791 0.0185328 0.00687347
0.221506 0.0178882 0.00709767
0.22113 0.0163582 0.00800526
0.22738 0.0169652 0.0076053
0.227734 0.0177265 0.00722706
0.227774 0.0183062 0.00692264
0.227621 0.0176074 0.00728208
0.227562 0.0173436 0.0074177
0.227208 0.016269 0.00796198
0.227717 0.0184636 0.00688199
0.227487 0.0174004 0.00738223
0.227563 0.0181541 0.00698808
0.227924 0.0181944 0.00699271
0.22707 0.0160916 0.00810013
0.221545 0.0180821 0.00706822
0.227135 0.0163268 0.00792609
0.233638 0.0184612 0.00703806
0.221215 0.0166128 0.00770997
0.221408 0.0174046 0.00717112
0.233421 0.0174945 0.00738764

VERTICES 271 542
1 0
1 1
1 2
1 3
1 4
1 5
1 6
1 7
1 8
1 9
1 10
1 11
1 12
1 13
1 14
1 15
1 16
1 17
1 18
1 19
1 20
1 21
1 22
1 23
1 24
1 25
1 26
1 27
1 28
1 29
1 30
1 31
1 32
1 33
1 34
1 35
1 36
1 37
1 38
1 39
1 40
1 41
1 42
1 43
1 44
1 45
1 46
1 47
1 48
1 49
1 50
1 51
1 52
1 53
1 54
1 55
1 56
1 57
1 58
1 59
1 60
1 61
1 62
1 63
1 64
1 65
1 66
1 67
1 68
1 69
1 70
1 71
1 72
1 73
1 74
1 75
1 76
1 77
1 78
1 79
1 80
1 81
1 82
1 83
1 84
1 85
1 86
1 87
1 88
1 89
1 90
1 91
1 92
1 93
1 94
1 95
1 96
1 97
1 98
1 99
1 100
1 101
1 102
1 103
1 104
1 105
1 106
1 107
1 108
1 109
1 110
1 111
1 112
1 113
1 114
1 115
1 116
1 117
1 118
1 119
1 120
1 121
1 122
1 123
1 124
1 125
1 126
1 127
1 128
1 129
1 130
1 131
1 132
1 133
1 134
1 135
1 136
1 137
1 138
1 139
1 140
1 141
1 142
1 143
1 144
1 145
1 146
1 147
1 148
1 149
1 150
1 151
1 152
1 153
1 154
1 155
1 156
1 157
1 158
1 159
1 160
1 161
1 162
1 163
1 164
1 165
1 166
1 167
1 168
1 169
1 170
1 171
1 172
1 173
1 174
1 175
1 176
1 177
1 178
1 179
1 180
1 181
1 182
1 183
1 184
1 185
1 186
1 187
1 188
1 189
1 190
1 191
1 192
1 193
1 194
1 195
1 196
1 197
1 198
1 199
1 200
1 201
1 202
1 203
1 204
1 205
1 206
1 207
1 208
1 209
1 210
1 211
1 212
1 213
1 214
1 215
1 216
1 217
1 218
1 219
1 220
1 221
1 222
1 223
1 224
1 225
1 226
1 227
1 228
1 229
1 230
1 231
1 232
1 233
1 234
1 235
1 236
1 237
1 238
1 239
1 240
1 241
1 242
1 243
1 244
1 245
1 246
1 247
1 248
1 249
1 250
1 251
1 252
1 253
1 254
1 255
1 256
1 257
1 258
1 259
1 260
1 261
1 262
1 263
1 264
1 265
1 266
1 267
1 268
1 269
1 270

POINT_DATA 271
SCALARS id int 1
LOOKUP_TABLE default
1
2
3
4
5
6
7
8
9
10
11
12
13
14
15
16
17
19
21
22
23
24
25
26
27
28
29
30
31
32
33
34
35
36
37
38
39
41
42
44
45
47
48
50
51
52
53
54
55
56
57
59
61
62
63
64
65
66
67
68
69
70
71
72
73
74
76
77
78
79
80
81
82
83
84
85
86
87
88
89
90
91
92
93
94
95
96
97
98
99
100
101
102
103
104
105
106
107
108
109
110
111
112
113
114
115
116
117
118
119
120
121
122
123
124
125
126
127
128
129
131
132
133
134
135
136
137
138
140
141
142
143
144
147
148
149
150
151
153
154
155
156
157
158
159
160
162
164
165
166
168
169
170
171
172
173
174
175
177
178
179
181
182
183
184
186
187
188
189
190
191
192
193
194
195
196
197
198
199
201
202
203
204
205
206
207
208
209
210
211
212
213
214
215
216
217
218
219
220
221
222
223
224
225
226
227
228
229
230
231
232
234
235
236
237
239
240
241
242
244
246
247
248
249
250
251
252
253
254
255
256
257
258
259
261
262
263
264
265
266
267
268
269
270
271
272
273
274
275
276
277
278
280
283
284
285
286
287
288
289
290
291
292
293
294
295
296
297
298
299
300

SCALARS type int 1
LOOKUP_TABLE default
1
1
1
1
1
1
1
1
1
1
1
1
1
1
1
1
1
1
1
1
1
1
1
1
1
1
1
1
1
1
1
1
1
1
1
1
1
1
1
1
1
1
1
1
1
1
1
1
1
1
1
1
1
1
1
1
1
1
1
1
1
1
1
1
1
1
1
1
1
1
1
1
1
1
1
1
1
1
1
1
1
1
1
1
1
1
1
1
1
1
1
1
1
1
1
1
1
1
1
1
1
1
1
1
1
1
1
1
1
1
1
1
1
1
1
1
1
1
1
1
1
1
1
1
1
1
1
1
1
1
1
1
1
1
1
1
1
1
1
1
1
1
1
1
1
1
1
1
1
1
1
1
1
1
1
1
1
1
1
1
1
1
1
1
1
1
1
1
1
1
1
1
1
1
1
1
1
1
1
1
1
1
1
1
1
1
1
1
1
1
1
1
1
1
1
1
1
1
1
1
1
1
1
1
1
1
1
1
1
1
1
1
1
1
1
1
1
1
1
1
1
1
1
1
1
1
1
1
1
1
1
1
1
1
1
1
1
1
1
1
1
1
1
1
1
1
1
1
1
1
1
1
1
1
1
1
1
1
1
1
1
1
1
1
1
1
1
1
1
1
1

SCALARS radius float 1
LOOKUP_TABLE default
5e-05
5e-05
5e-05
5e-05
5e-05
5e-05
5e-05
5e-05
5e-05
5e-05
5e-05
5e-05
5e-05
5e-05
5e-05
5e-05
5e-05
5e-05
5e-05
5e-05
5e-05
5e-05
5e-05
5e-05
5e-05
5e-05
5e-05
5e-05
5e-05
5e-05
5e-05
5e-05
5e-05
5e-05
5e-05
5e-05
5e-05
5e-05
5e-05
5e-05
5e-05
5e-05
5e-05
5e-05
5e-05
5e-05
5e-05
5e-05
5e-05
5e-05
5e-05
5e-05
5e-05
5e-05
5e-05
5e-05
5e-05
5e-05
5e-05
5e-05
5e-05
5e-05
5e-05
5e-05
5e-05
5e-05
5e-05
5e-05
5e-05
5e-05
5e-05
5e-05
5e-05
5e-05
5e-05
5e-05
5e-05
5e-05
5e-05
5e-05
5e-05
5e-05
5e-05
5e-05
5e-05
5e-05
5e-05
5e-05
5e-05
5e-05
5e-05
5e-05
5e-05
5e-05
5e-05
5e-05
5e-05
5e-05
5e-05
5e-05
5e-05
5e-05
5e-05
5e-05
5e-05
5e-05
5e-05
5e-05
5e-05
5e-05
5e-05
5e-05
5e-05
5e-05
5e-05
5e-05
5e-05
5e-05
5e-05
5e-05
5e-05
5e-05
5e-05
5e-05
5e-05
5e-05
5e-05
5e-05
5e-05
5e-05
5e-05
5e-05
5e-05
5e-05
5e-05
5e-05
5e-05
5e-05
5e-05
5e-05
5e-05
5e-05
5e-05
5e-05
5e-05
5e-05
5e-05
5e-05
5e-05
5e-05
5e-05
5e-05
5e-05
5e-05
5e-05
5e-05
5e-05
5e-05
5e-05
5e-05
5e-05
5e-05
5e-05
5e-05
5e-05
5e-05
5e-05
5e-05
5e-05
5e-05
5e-05
5e-05
5e-05
5e-05
5e-05
5e-05
5e-05
5e-05
5e-05
5e-05
5e-05
5e-05
5e-05
5e-05
5e-05
5e-05
5e-05
5e-05
5e-05
5e-05
5e-05
5e-05
5e-05
5e-05
5e-05
5e-05
5e-05
5e-05
5e-05
5e-05
5e-05
5e-05
5e-05
5e-05
5e-05
5e-05
5e-05
5e-05
5e-05
5e-05
5e-05
5e-05
5e-05
5e-05
5e-05
5e-05
5e-05
5e-05
5e-05
5e-05
5e-05
5e-05
5e-05
5e-05
5e-05
5e-05
5e-05
5e-05
5e-05
5e-05
5e-05
5e-05
5e-05
5e-05
5e-05
5e-05
5e-05
5e-05
5e-05
5e-05
5e-05
5e-05
5e-05
5e-05
5e-05
5e-05
5e-05
5e-05
5e-05
5e-05
5e-05
5e-05
5e-05
5e-05
5e-05
5e-05
5e-05
5e-05
5e-05
5e-05
5e-05
5e-05
5e-05
5e-05
5e-05
5e-05
5e-05
5e-05
5e-05
5e-05
5e-05

SCALARS mass float 1
LOOKUP_TABLE default
1.46608e-10
1.46608e-10
1.46608e-10
1.46608e-10
1.46608e-10
1.46608e-10
1.46608e-10
1.46608e-10
1.46608e-10
1.46608e-10
1.46608e-10
1.46608e-10
1.46608e-10
1.46608e-10
1.46608e-10
1.46608e-10
1.46608e-10
1.46608e-10
1.46608e-10
1.46608e-10
1.46608e-10
1.46608e-10
1.46608e-10
1.46608e-10
1.46608e-10
1.46608e-10
1.46608e-10
1.46608e-10
1.46608e-10
1.46608e-10
1.46608e-10
1.46608e-10
1.46608e-10
1.46608e-10
1.46608e-10
1.46608e-10
1.46608e-10
1.46608e-10
1.46608e-10
1.46608e-10
1.46608e-10
1.46608e-10
1.46608e-10
1.46608e-10
1.46608e-10
1.46608e-10
1.46608e-10
1.46608e-10
1.46608e-10
1.46608e-10
1.46608e-10
1.46608e-10
1.46608e-10
1.46608e-10
1.46608e-10
1.46608e-10
1.46608e-10
1.46608e-10
1.46608e-10
1.46608e-10
1.46608e-10
1.46608e-10
1.46608e-10
1.46608e-10
1.46608e-10
1.46608e-10
1.46608e-10
1.46608e-10
1.46608e-10
1.46608e-10
1.46608e-10
1.46608e-10
1.46608e-10
1.46608e-10
1.46608e-10
1.46608e-10
1.46608e-10
1.46608e-10
1.46608e-10
1.46608e-10
1.46608e-10
1.46608e-10
1.46608e-10
1.46608e-10
1.46608e-10
1.46608e-10
1.46608e-10
1.46608e-10
1.46608e-10
1.46608e-10
1.46608e-10
1.46608e-10
1.46608e-10
1.46608e-10
1.46608e-10
1.46608e-10
1.46608e-10
1.46608e-10
1.46608e-10
1.46608e-10
1.46608e-10
1.46608e-10
1.46608e-10
1.46608e-10
1.46608e-10
1.46608e-10
1.46608e-10
1.46608e-10
1.46608e-10
1.46608e-10
1.46608e-10
1.46608e-10
1.46608e-10
1.46608e-10
1.46608e-10
1.46608e-10
1.46608e-10
1.46608e-10
1.46608e-10
1.46608e-10
1.46608e-10
1.46608e-10
1.46608e-10
1.46608e-10
1.46608e-10
1.46608e-10
1.46608e-10
1.46608e-10
1.46608e-10
1.46608e-10
1.46608e-10
1.46608e-10
1.46608e-10
1.46608e-10
1.46608e-10
1.46608e-10
1.46608e-10
1.46608e-10
1.46608e-10
1.46608e-10
1.46608e-10
1.46608e-10
1.46608e-10
1.46608e-10
1.46608e-10
1.46608e-10
1.46608e-10
1.46608e-10
1.46608e-10
1.46608e-10
1.46608e-10
1.46608e-10
1.46608e-10
1.46608e-10
1.46608e-10
1.46608e-10
1.46608e-10
1.46608e-10
1.46608e-10
1.46608e-10
1.46608e-10
1.46608e-10
1.46608e-10
1.46608e-10
1.46608e-10
1.46608e-10
1.46608e-10
1.46608e-10
1.46608e-10
1.46608e-10
1.46608e-10
1.46608e-10
1.46608e-10
1.46608e-10
1.46608e-10
1.46608e-10
1.46608e-10
1.46608e-10
1.46608e-10
1.46608e-10
1.46608e-10
1.46608e-10
1.46608e-10
1.46608e-10
1.46608e-10
1.46608e-10
1.46608e-10
1.46608e-10
1.46608e-10
1.46608e-10
1.46608e-10
1.46608e-10
1.46608e-10
1.46608e-10
1.46608e-10
1.46608e-10
1.46608e-10
1.46608e-10
1.46608e-10
1.46608e-10
1.46608e-10
1.46608e-10
1.46608e-10
1.46608e-10
1.46608e-10
1.46608e-10
1.46608e-10
1.46608e-10
1.46608e-10
1.46608e-10
1.46608e-10
1.46608e-10
1.46608e-10
1.46608e-10
1.46608e-10
1.46608e-10
1.46608e-10
1.46608e-10
1.46608e-10
1.46608e-10
1.46608e-10
1.46608e-10
1.46608e-10
1.46608e-10
1.46608e-10
1.46608e-10
1.46608e-10
1.46608e-10
1.46608e-10
1.46608e-10
1.46608e-10
1.46608e-10
1.46608e-10
1.46608e-10
1.46608e-10
1.46608e-10
1.46608e-10
1.46608e-10
1.46608e-10
1.46608e-10
1.46608e-10
1.46608e-10
1.46608e-10
1.46608e-10
1.46608e-10
1.46608e-10
1.46608e-10
1.46608e-10
1.46608e-10
1.46608e-10
1.46608e-10
1.46608e-10
1.46608e-10
1.46608e-10
1.46608e-10
1.46608e-10
1.46608e-10
1.46608e-10
1.46608e-10
1.46608e-10
1.46608e-10
1.46608e-10
1.46608e-10
1.46608e-10
1.46608e-10
1.46608e-10
1.46608e-10
1.46608e-10
1.46608e-10
1.46608e-10
1.46608e-10

VECTORS velocity float
0.00591819 -0.000369227 -0.000518327
0.00571784 0.000401497 -0.000569058
0.00541141 0.000315242 0.000220988
0.0057009 0.000378816 -0.000558414
0.00580066 -0.00032015 -0.000486158
0.00575761 0.000106623 2.76677e-06
0.00613185 -0.00031686 -0.000496359
0.00574551 -0.000350959 -0.000513608
0.00572434 0.000155475 -2.67619e-05
0.0055571 0.000508719 -0.000595217
0.00563028 0.000463302 -0.000584878
0.00609964 -0.000183803 -0.000511446
0.00560016 -0.000314743 -0.000565174
0.00570428 0.000225289 -0.000209481
0.0056852 0.000401455 -0.000565389
0.00578743 0.000228166 -0.000219256
0.00571311 0.000352799 -0.000549635
0.00571721 -0.000348199 -0.00053476
0.00555726 0.000490229 -0.000585719
0.00560673 0.000468557 -0.00058619
0.00610261 0.000328162 0.000264471
0.0056448 0.000145591 -6.57493e-05
0.00638723 0.000359041 -0.000132588
0.00559369 0.000174633 -3.63298e-05
0.0056949 0.000345745 0.000226595
0.00567164 0.000426884 -0.000575214
0.00621532 -0.000127717 -0.000375983
0.00566031 0.000445646 -0.000588409
0.00639954 0.000514331 -6.03384e-05
0.00572505 0.000301693 -0.00053348
0.00579798 0.00011662 -4.85233e-07
0.00600286 -0.000514996 -0.000628612
0.00558413 0.00043311 -0.000569438
0.00567858 0.000142957 -6.35452e-05
0.00574162 0.000416464 -0.000575633
0.00579763 0.000482129 -1.10695e-05
0.00565148 0.000146746 -6.46992e-05
0.0057668 0.000255703 -0.000523624
4.56179e-16 2.25544e-15 8.4636e-14
0.00570081 0.000410436 -0.000569058
0.00583646 0.000116746 -6.27606e-07
0.00591402 -0.000443968 -0.000592473
0.00579932 0.000473778 -9.02789e-05
0.00641169 0.000501275 -6.62075e-05
0.00639753 0.000506058 -7.42562e-05
0.0056759 -5.86334e-05 -0.000561302
0.00578097 0.000133998 -5.95497e-05
0.00572275 0.000407 -0.000648274
0.00573727 0.000524954 -0.000244942
0.00576753 0.000413298 -0.000585495
0.00587675 0.000124335 -2.19151e-06
0.00558957 0.00045595 -0.000614623
0.00576899 0.000224587 -0.000507057
0.00579482 0.000438501 -7.56847e-05
0.00568219 0.000366926 -0.000552483
0.00564544 0.000142497 -6.33384e-05
0.00607433 0.000313412 0.000263513
0.00568862 0.000530471 -0.000261578
0.00572206 0.000410894 -0.000585897
0.00555902 0.000400098 -0.000556793
0.00570018 0.000111751 -0.00039628
0.0056833 0.000163854 -3.03081e-05
0.00570918 -8.38427e-05 -0.000588417
0.00569606 0.000465464 -0.000575462
0.00579734 0.000453743 -8.64996e-05
0.00576992 0.000445355 -0.000303256
0.00571143 0.000337963 0.000100839
0.0055983 0.000446283 -0.000574394
0.00572907 0.00023374 -0.000208671
0.00599605 -0.000146247 -0.000537087
0.0057335 0.000381746 -0.000560969
0.0057554 0.000115327 -0.000217533
0.00609825 -0.000198415 -0.000503772
0.00578721 0.00039083 9.18815e-05
0.00577314 0.000151607 -1.58629e-05
0.00564814 0.000300142 0.000245917
0.0057885 0.000417522 -7.05824e-05
0.00579669 0.000465923 -7.46315e-05
0.00591001 0.00042586 -0.000598779
0.00579815 0.000457716 -8.12991e-05
0.00566101 0.000458168 -0.000585432
0.00573549 0.000328644 0.000235785
0.00573719 0.0003625 -0.000650359
0.00634039 0.000515574 -4.92192e-05
0.00565143 0.000422396 -0.000586747
0.005492 0.000548025 -0.000580613
0.00630242 0.000519683 -6.84804e-05
0.00607292 0.000352142 0.000249209
0.00563944 0.000438514 -0.000576159
0.00598069 0.000406141 0.00021394
0.00569234 0.000341099 -0.000520612
0.006104 -0.000171494 -0.000524663
4.3663e-15 1.0484e-14 8.29568e-14
3.61636e-22 4.86658e-23 1.23839e-22
0.00559017 0.000405223 0.000188023
0.00580606 0.000389288 0.000209767
0.00545593 0.000291813 0.000236984
0.00548829 0.000291305 0.000238937
0.00579278 0.000465064 -8.63602e-05
0.00564659 0.000368127 -0.000551323
0.00624427 0.000527324 -0.000102087
0.00548609 0.000550784 -0.000618528
0.00570741 0.000394893 0.00019887
0.00601381 0.000348009 0.000247356
0.00579596 0.00038581 -0.000210857
0.00564544 0.000400131 -0.000562723
0.00574506 0.000433274 -0.00057921
0.00576818 0.000472714 6.82294e-05
0.00548676 0.000449695 0.000153397
0.00559419 0.0004158 -0.000563464
0.00629244 9.28043e-05 -0.000261459
0.00585493 -0.000592038 -0.000705478
0.0056047 0.000544229 -0.000622398
0.0055667 0.000452875 0.000157411
0.00547711 0.000567009 -0.000615104
0.00578103 0.000499589 7.25137e-05
0.00592785 0.000353408 -0.000561462
0.00568992 0.00034787 0.000224106
0.00576816 0.000462766 -0.000591852
0.00564933 0.000478817 -0.000592181
0.00535138 0.000311291 0.000219179
0.00567967 0.000425944 -0.000576941
0.00561082 0.00049566 -0.000593759
0.00589028 0.000421999 -0.000588835
0.0056234 -0.000321359 -0.000549363
0.00572652 0.000243918 -0.00020971
0.00636857 0.000506174 -6.18487e-05
0.00567518 0.000403811 -0.000574053
0.00561927 0.000444399 -0.00057636
0.00574399 0.000417073 0.000193703
0.00571693 0.000435046 0.000179112
0.00573633 -0.000124968 -0.00063418
0.00562621 0.000438929 0.000171041
0.0057213 0.000288371 -0.000209663
0.00598492 0.000421036 0.000206282
0.0057994 0.000350341 -0.000847105
8.38277e-15 1.2506e-15 -8.48745e-14
0.00591702 0.000397031 0.000213953
0.00621475 0.000279995 -0.000229987
0.00551665 0.000440353 0.000160225
0.00529174 0.00038421 0.000175994
0.00566414 0.000398007 0.000195784
-3.82455e-14 8.17047e-14 2.95888e-13
0.00574546 0.000461259 0.000178418
0.00578467 0.000447043 -7.48841e-05
0.00556304 0.000453394 0.000161335
0.00625737 0.000385921 -0.000232822
0.00602184 0.0003693 0.000236432
0.00563214 0.000423233 0.000179483
0.00582736 0.000595295 -0.0001002
0.0059602 0.00040014 0.000215478
0.00594197 0.000213694 -0.000220316
0.00560101 0.000394114 0.000193641
0.00566916 0.000442082 -0.000583583
0.0055754 0.000437887 0.000167758
0.00573493 0.000376922 -0.000557538
0.00538504 0.000389162 0.000179994
0.00598117 0.000959484 -0.0003564
0.00601014 0.000563711 0.000132522
0.00593288 0.000492528 0.000164561
0.0054181 0.000508234 0.00011878
0.00573966 0.000331682 -0.000102538
0.0056164 0.000480392 -0.000591704
0.00552559 0.000401099 0.000183791
0.00560518 0.000495142 -0.000592874
0.00594267 0.000389195 0.000220038
0.00563267 0.00047908 -0.000568522
0.00560839 0.000375421 -0.0005503
0.00570682 0.00041652 -0.000579774
0.00574755 0.00100559 -0.000366743
0.00554188 0.000421029 -0.000565639
0.00550889 0.000449012 0.000157311
0.00560761 0.000407488 -0.000562628
1.57384e-15 -1.10111e-14 8.66678e-14
0.00575337 0.000325672 0.000239875
0.00608559 0.000330882 0.000261289
0.00586323 0.000975925 -0.000370223
0.00570327 0.000146942 -0.000219262
0.00577901 0.000457234 0.000170782
0.0060271 0.000336093 0.000254569
0.00565666 0.000340518 0.000225844
0.00616883 0.000553154 -8.68133e-05
0.005772 -8.76697e-05 -0.000552143
0.00565603 0.000323628 0.000234655
0.00603543 0.000353873 0.000245597
0.0059266 0.000413466 0.000206058
0.00562908 0.000405348 0.000190256
0.00592958 0.00096871 -0.000368424
0.0055102 0.000517853 -0.000597626
0.00563925 0.000452928 -0.000555207
0.00571762 0.000369655 0.000216178
0.00571742 0.000413644 -0.000576444
0.00590159 0.000336516 -0.000789268
0.00574919 0.00100541 -0.000366766
0.00563171 0.000361799 0.000212157
0.00580891 0.000450838 -7.63878e-05
0.00612729 -0.000215745 -0.000500534
0.00603111 0.000533466 -0.00029249
0.00569453 0.000329324 0.000236001
0.00570103 0.000290998 -9.09764e-05
0.00576877 0.000390251 -0.000573247
0.00558671 0.000449419 0.00016385
-0.0186499 0.0272672 -0.0117004
0.00556368 0.000444947 -0.00058487
0.00584565 0.000410853 0.000201744
0.00575432 0.00100502 -0.000366822
0.00594326 0.000963335 -0.000362748
0.00575288 0.000271223 -0.000231852
0.00605743 0.000317924 0.000265473
0.00602216 0.000954381 -0.000348716
0.00573187 0.00040784 0.000195142
0.00567237 0.000472843 -0.000589402
0.00562197 0.000332134 0.000227367
0.00610048 0.00030927 0.000268816
0.00612731 0.000198592 0.00010986
0.00621704 0.000134658 -0.00113708
0.00624121 0.0001296 -0.00113442
0.00631912 0.000918916 -0.000294707
0.00543884 0.000463646 0.000142668
0.00627814 0.000340275 -0.000937537
0.00606682 0.00094962 -0.000341138
0.00569116 0.000226807 -0.000218679
0.00604322 0.000324765 0.000261846
0.00575111 0.00100539 -0.00036668
0.00595435 0.000442524 0.000192638
0.00610456 0.000569404 -9.62346e-05
0.00577348 0.000995766 -0.000366195
0.00574578 0.00100578 -0.000366655
0.00611046 0.000944455 -0.000333314
0.00565164 0.000421257 0.000190474
0.00543524 0.000459338 0.000146058
0.00562606 0.00069215 3.68546e-05
0.00566863 0.000586239 9.4987e-05
0.00573061 0.00100441 -0.000365987
0.0059808 0.000370667 0.000232844
0.00610963 -3.91417e-05 -0.000229543
0.0061943 0.000935043 -0.000318557
0.00626368 0.000311368 -0.000232213
0.00590658 0.000966782 -0.00036826
0.00551466 0.000422743 0.000171217
0.00604312 0.000309386 0.000269031
0.00599592 0.00035799 0.000240666
0.00575832 0.00069692 4.38712e-05
0.00586987 0.000335406 -0.000672847
0.00581376 0.000271935 -0.000221877
0.00568182 0.0010198 -0.00036676
0.00612435 -0.000218779 -0.000489209
0.00568361 0.00101963 -0.000365869
0.00605835 0.000378911 0.000233903
0.0059587 0.000383463 0.000224474
0.00551376 0.000557935 9.94238e-05
0.00578982 0.00027035 -0.000188491
0.00573025 0.00101026 -0.000366377
0.00617308 0.000143861 -0.00114188
0.00601125 0.000383666 0.000228055
0.0054685 0.000368631 0.00019765
0.0057648 0.000366897 0.000229882
0.0053701 0.000467815 0.000137598
0.00580951 0.0005254 0.000138526
0.00612275 0.000311317 0.000273933
0.005778 0.000298537 -0.00023653
0.00578933 0.00051206 0.000143539
0.00568564 0.000406136 0.000190052
0.00575692 0.000307411 0.000249167
0.00609663 -0.000187604 -0.000438528
0.00575326 0.00100508 -0.000367074
0.00611425 0.000309933 0.000275002
0.0057378 0.00044694 -0.000568236
0.00634045 0.00072275 -0.000504945
0.00581606 0.000986523 -0.00036684
0.00585973 0.00032611 -0.000725634

VECTORS force float
-1.08215e-10 -3.07821e-11 9.69472e-11
-1.30992e-11 2.97623e-11 -2.90347e-11
-1.56255e-10 1.84372e-10 -1.16319e-10
-1.77694e-12 8.06939e-12 -5.27666e-12
-7.66712e-11 -1.10063e-10 9.30907e-11
1.35609e-10 1.06518e-10 -5.66005e-11
3.36259e-10 -1.47173e-10 -2.79433e-10
2.07863e-10 -6.53111e-11 5.79849e-11
-1.00769e-10 -4.60184e-11 6.44686e-11
-1.79865e-10 9.70182e-12 -1.22328e-11
-2.26833e-11 -3.57771e-11 3.96873e-11
2.32177e-10 -2.0815e-10 1.57336e-10
-1.25019e-10 -3.53709e-10 4.98133e-10
-1.59744e-13 -4.7439e-10 -9.76277e-11
3.10242e-11 4.93085e-11 -3.6418e-11
6.77698e-11 -1.29995e-09 -2.10462e-11
3.73879e-12 1.15931e-10 -5.29039e-12
-8.22668e-12 -2.26698e-11 -1.25623e-11
-2.04233e-10 1.39419e-10 -2.5276e-12
-5.02217e-11 -3.29116e-12 -4.31356e-11
1.8897e-10 2.15678e-10 -1.26597e-10
-7.69783e-11 1.63825e-10 1.87297e-11
4.41065e-11 -1.85579e-10 -2.76431e-10
-6.11035e-10 1.59203e-11 -1.98484e-12
2.99281e-10 -1.50198e-10 7.64825e-11
-8.7571e-11 4.65838e-11 -3.47311e-11
1.45585e-10 7.06006e-11 -2.33361e-10
-1.18402e-10 1.81456e-10 6.92205e-11
-4.95291e-11 1.46563e-11 -7.99254e-11
-3.30126e-10 -1.18691e-10 6.87248e-11
-5.53472e-11 7.861e-11 -7.12153e-11
1.53125e-12 1.08631e-10 -1.50777e-10
-2.77244e-11 -4.55275e-11 -8.00401e-11
1.20128e-10 1.83341e-10 -9.47753e-11
8.74372e-11 -4.01897e-11 -4.64417e-12
-5.90536e-11 -8.95616e-11 -9.02589e-12
-3.79986e-11 1.63113e-10 -5.78e-11
-7.19452e-11 2.14943e-10 5.11976e-11
-1.88377e-24 6.07461e-25 0.0
-4.78189e-12 7.18732e-11 -6.2205e-11
8.37628e-11 9.34414e-11 -2.67194e-11
1.46312e-10 -2.88967e-10 -2.16354e-10
9.33957e-11 1.39108e-11 -3.34255e-11
2.95336e-11 2.28918e-11 7.76045e-11
-1.63607e-10 -1.60502e-11 -8.34641e-11
-1.10777e-10 -2.25151e-10 -3.18708e-11
-2.14265e-10 -1.96641e-12 -1.05798e-10
3.79295e-11 -8.80934e-11 1.14015e-10
4.27242e-11 6.24876e-11 -3.87705e-10
1.03235e-11 2.63811e-11 5.52875e-11
-7.93537e-11 -2.67756e-12 1.66848e-11
-1.26039e-10 2.70154e-11 -1.15384e-10
-5.92961e-11 3.15843e-11 1.48802e-11
-2.3671e-11 -1.25075e-11 1.73586e-12
9.74632e-11 -1.56021e-11 9.17465e-13
1.07466e-10 1.57515e-11 -3.40651e-12
-1.90486e-10 -1.0694e-10 -1.50554e-11
-6.57153e-11 1.9827e-10 -5.22563e-10
-9.67745e-11 -4.59652e-11 -8.12618e-11
-3.39061e-10 4.99148e-11 -1.28594e-11
1.19544e-10 8.54793e-11 -1.51475e-10
-6.64999e-11 -1.2334e-10 4.54545e-11
-3.69479e-11 -2.90815e-10 -2.04439e-10
3.22045e-11 -1.24899e-10 -8.95873e-11
3.39213e-11 -1.65472e-11 4.53602e-13
9.19643e-11 -5.08813e-13 -3.27215e-11
3.65271e-10 -2.29522e-10 -2.23081e-10
-2.75698e-11 -8.61347e-12 -1.89544e-12
1.39407e-10 2.84131e-10 2.19449e-10
-1.78553e-10 -1.28495e-10 1.25373e-10
1.36216e-10 -1.76623e-10 7.90422e-11
3.42021e-11 8.65284e-10 -4.45649e-11
7.5414e-11 -2.34215e-10 2.30181e-10
-1.60211e-10 2.31308e-10 -1.30073e-10
-4.83588e-11 8.60464e-11 5.51782e-11
3.16303e-10 2.24789e-10 -9.47434e-11
-5.33748e-11 1.06123e-10 -6.55345e-11
9.90007e-11 7.20338e-11 -1.14249e-10
-5.70237e-10 2.24052e-10 -1.44931e-10
6.79573e-11 4.42886e-11 -2.41418e-11
-5.25886e-11 -3.73133e-11 2.93598e-11
1.79235e-11 1.48809e-10 -9.35939e-11
-2.49061e-10 6.64388e-11 -2.50393e-11
1.1525e-10 -1.78443e-11 -3.36945e-11
-9.94982e-11 -3.01714e-11 -1.4125e-10
1.75936e-10 -6.83602e-11 -2.29703e-10
8.94971e-11 8.10553e-12 -6.08318e-11
1.92334e-10 -1.20366e-10 7.77744e-11
9.16588e-11 1.62271e-11 2.8886e-12
-7.11281e-11 1.49519e-11 -1.19104e-11
1.3104e-10 -9.19596e-11 1.29444e-10
-2.52298e-10 -2.16135e-10 5.00277e-11
-9.80002e-22 -3.04092e-22 8.64404e-23
0.0 0.0 0.0
1.89137e-10 3.27911e-10 -1.89343e-10
-1.43876e-10 7.88343e-11 -1.58599e-11
2.29603e-10 -8.86792e-11 6.78473e-11
5.09299e-11 -9.53619e-11 4.78693e-11
2.97289e-10 1.26562e-10 -2.18089e-11
-2.09932e-10 9.58717e-12 1.23441e-11
1.5885e-10 2.50233e-11 -4.10728e-11
4.75803e-10 -1.35855e-10 4.7735e-10
-6.79798e-12 1.80034e-10 -1.35277e-10
9.27081e-12 -5.60682e-11 3.03762e-11
-8.40577e-11 1.25053e-10 -4.7982e-11
-9.39971e-11 4.09325e-11 -1.94911e-11
9.69747e-11 5.315e-11 2.26926e-10
-5.5915e-11 -8.4241e-12 1.76565e-11
2.06941e-10 1.89082e-10 -3.91928e-12
1.17488e-10 -2.11992e-12 -8.70205e-12
1.6363e-10 -2.096e-10 -3.5192e-10