# vtk DataFile Version 3.0
LIGGGHTS particles timestep 34000000
ASCII
DATASET POLYDATA
POINTS 271 float
0.210693 0.0154537 0.00893641
0.211572 0.0177694 0.00711983
0.205681 0.0177483 0.00706316
0.211633 0.0176034 0.00716864
0.210675 0.0153918 0.0090127
0.217146 0.0170305 0.00749926
0.210779 0.0157013 0.0086353
0.21065 0.0153303 0.00908768
0.217264 0.0174875 0.00712977
0.211235 0.01738 0.00724993
0.211374 0.0175962 0.00717927
0.204794 0.0156219 0.00846457
0.210586 0.0151451 0.00931468
0.205469 0.0184049 0.00700264
0.211615 0.017504 0.00719966
0.205565 0.0184384 0.00700439
0.211648 0.0177061 0.00713672
0.210629 0.0152685 0.00916334
0.211191 0.0171938 0.00730834
0.211405 0.0173439 0.00725545
0.205028 0.0161861 0.00802232
0.217349 0.0178605 0.00703845
0.210844 0.0158853 0.00840747
0.217223 0.0173302 0.00724608
0.205768 0.0181413 0.00703655
0.21154 0.0175685 0.00718234
0.210803 0.0157615 0.00855902
0.2113 0.0176636 0.00718299
0.210868 0.0159465 0.00833221
0.211281 0.0167836 0.00743092
0.217165 0.0171054 0.00743597
0.21076 0.0156381 0.00871031
0.211436 0.0170924 0.00733139
0.217327 0.0177637 0.00705133
0.2115 0.0181662 0.00702949
0.211567 0.0184502 0.00691166
0.217371 0.0179573 0.00702558
0.211662 0.0178115 0.00710401
0.321436 0.0173475 0.00552525
0.211557 0.0176662 0.0071519
0.217184 0.0171804 0.00737267
0.210723 0.0155138 0.00886224
0.211549 0.0183564 0.00694096
0.210904 0.0160711 0.00818024
0.210887 0.0160121 0.00825917
0.204714 0.0153506 0.00874154
0.217306 0.017667 0.00706421
0.211388 0.0180566 0.0071172
0.204656 0.0152572 0.009019
0.211501 0.0182503 0.00697499
0.217204 0.0172552 0.00730942
0.211384 0.0172506 0.00728468
0.211165 0.0166616 0.00747468
0.211779 0.0182455 0.00696743
0.211596 0.0174018 0.00723152
0.217392 0.0180541 0.0070127
0.204972 0.0163136 0.00791851
0.204635 0.0152331 0.00911374
0.211499 0.0179257 0.00707437
0.211321 0.0169708 0.00737237
0.211409 0.0181437 0.00707279
0.217244 0.0174068 0.00718502
0.204694 0.0153059 0.00882878
0.21141 0.0178829 0.00709036
0.21147 0.0184159 0.00692534
0.211588 0.0181914 0.00699017
0.205694 0.0182082 0.00702804
0.211458 0.0171856 0.00730218
0.205448 0.0183072 0.0070093
0.204753 0.0154683 0.0085858
0.211635 0.0179503 0.00706242
0.205586 0.0185361 0.00699772
0.204814 0.0156987 0.00840395
0.205504 0.0181454 0.00702435
0.217284 0.0175702 0.00707708
0.205704 0.017847 0.00705652
0.211715 0.017892 0.00707767
0.211643 0.0183872 0.00692848
0.211053 0.0165682 0.00757233
0.211614 0.0182835 0.00696114
0.211466 0.0176358 0.00718099
0.205747 0.0180427 0.00704326
0.211567 0.0180929 0.00702099
0.210941 0.0161958 0.00802841
0.211353 0.0175029 0.00720955
0.21131 0.0173155 0.00726724
0.210965 0.0162568 0.00795266
0.205086 0.016417 0.00784002
0.211448 0.017532 0.00719651
0.205185 0.016805 0.00754056
0.211685 0.0182133 0.00698033
0.204773 0.0155452 0.00852535
0.0643568 0.0187248 0.00531097
0.24257 0.0191927 0.00520306
0.205396 0.0176592 0.00707029
0.20582 0.0179758 0.00705177
0.205637 0.0175531 0.00708007
0.205617 0.0174683 0.00712895
0.211431 0.0182373 0.00704533
0.211574 0.0173067 0.00726134
0.210978 0.0163198 0.00787625
0.211288 0.0172224 0.00729644
0.205461 0.0179504 0.00703756
0.20505 0.0166212 0.00767566
0.205428 0.0182096 0.00701594
0.211522 0.0174671 0.00721394
0.211365 0.0179538 0.00714381
0.211507 0.0186033 0.00686675
0.205256 0.0174518 0.00716053
0.211479 0.0172788 0.00727296
0.210822 0.0158238 0.00848321
0.210736 0.0155772 0.00878607
0.211245 0.017036 0.00735488
0.205214 0.0172821 0.00725758
0.211266 0.0171293 0.00732564
0.211586 0.0185439 0.00688237
0.211186 0.0167552 0.00744278
0.205841 0.0180744 0.00704507
0.211225 0.0169424 0.00738415
0.21139 0.0176921 0.00714938
0.205659 0.0176501 0.00706979
0.211482 0.0177321 0.00714232
0.211257 0.0174734 0.00722128
0.211206 0.0168488 0.00741343
0.210607 0.0152068 0.00923901
0.205489 0.0185026 0.00699597
0.210923 0.0161332 0.00810412
0.211343 0.0178575 0.00715957
0.211427 0.0174377 0.00722601
0.205482 0.0180479 0.00703096
0.205193 0.0171974 0.00730642
0.204677 0.0152814 0.00892424
0.205321 0.0177223 0.00704894
0.205545 0.0183407 0.00701105
0.20528 0.0168279 0.00751881
0.211072 0.0166417 0.00750738
0.0100679 0.0201683 0.00551526
0.205151 0.0170281 0.00740417
0.20553 0.018698 0.00698265
0.205278 0.0175395 0.00711733
0.205481 0.0172731 0.00724673
0.20544 0.0178529 0.00704416
0.0219312 0.0187687 0.00551176
0.205673 0.0181096 0.00703474
0.211709 0.0183149 0.00694842
0.2053 0.01763 0.00708096
0.205606 0.0186338 0.00699106
0.205146 0.016648 0.00765801
0.205491 0.0176878 0.00705927
0.211455 0.0183382 0.00698662
0.205205 0.0168857 0.00748522
0.20566 0.01847 0.00700621
0.205564 0.01762 0.00706782
0.211321 0.0177608 0.00717318
0.205468 0.0175905 0.00706914
0.211582 0.0178699 0.00708876
0.205502 0.0173578 0.00719787
0.199169 0.0170949 0.0073645
0.205322 0.0169932 0.00741353
0.205247 0.0170532 0.00738429
0.205331 0.0173919 0.00718889
0.205619 0.0182746 0.00701954
0.211278 0.0175663 0.00719152
0.205542 0.0175279 0.00709994
0.211331 0.0174088 0.00723802
0.20513 0.0169441 0.00745414
0.211171 0.0171005 0.00733758
0.211301 0.0168771 0.00740165
0.211493 0.0178277 0.00710458
0.199457 0.018361 0.00689634
0.211341 0.0170642 0.00734311
0.205447 0.0175023 0.00711994
0.211501 0.0173723 0.00724363
0.161461 0.0182058 0.00533758
0.205651 0.0180116 0.00704139
0.205048 0.0162631 0.00796159
0.199232 0.017346 0.00721305
0.205509 0.0186003 0.00698931
0.205406 0.0181122 0.00702254
0.205031 0.0165468 0.00773949
0.205535 0.0178835 0.00704607
0.210998 0.0163871 0.00780486
0.204741 0.0154122 0.00866786
0.205609 0.0178164 0.0070546
0.205106 0.0164939 0.00777932
0.205226 0.0169687 0.00743351
0.205418 0.0177564 0.00705872
0.202362 0.0182037 0.00689416
0.211213 0.0172869 0.00727914
0.21115 0.0170071 0.00736701
0.205556 0.017981 0.00703947
0.211457 0.0180649 0.00703316
0.211092 0.0167296 0.00746401
0.199437 0.0182645 0.00691343
0.205513 0.0177858 0.00705268
0.211489 0.0185096 0.00689605
0.204843 0.0157741 0.00834478
0.211037 0.0165056 0.00764868
0.20563 0.0179141 0.00704799
0.265267 0.0174994 0.00707927
0.211555 0.0180088 0.0070737
0.205372 0.017562 0.00709086
0.0641979 0.0181345 0.00771048
0.211362 0.0171575 0.00731389
0.205172 0.0171127 0.00735527
0.199378 0.0179749 0.00696471
0.19919 0.0171786 0.00731402
0.205599 0.0181764 0.00702623
0.204992 0.0163931 0.00786111
0.199148 0.0170112 0.00741499
0.205385 0.0180147 0.00702914
0.211402 0.0177875 0.0071198
0.205586 0.0177177 0.00706124
0.204952 0.0162369 0.00797953
0.204913 0.0160828 0.00810096
0.198986 0.0163403 0.00781984
0.199006 0.0164242 0.00776916
0.199065 0.016676 0.00761714
0.205236 0.0173667 0.00720875
0.199026 0.0165081 0.00771849
0.199127 0.0169274 0.00746547
0.205789 0.0182398 0.00702986
0.205011 0.0164674 0.00779709
0.199417 0.018168 0.00693052
0.2053 0.0169082 0.00746258
0.211016 0.0164481 0.00772776
0.199274 0.0175135 0.0071121
0.199477 0.0184575 0.00687925
0.199106 0.0168437 0.00751596
0.205342 0.0178198 0.007043
0.205427 0.0174174 0.00716886
0.205386 0.0172478 0.00726667
0.205289 0.0172225 0.00728659
0.199295 0.0175972 0.00706161
0.205089 0.0167789 0.00755917
0.204894 0.0160057 0.00816162
0.199085 0.01676 0.00756646
0.20555 0.0187957 0.00697598
0.199211 0.0172623 0.00726355
0.205352 0.0174768 0.00713995
0.205067 0.01634 0.0079008
0.20507 0.0166982 0.00761488
0.205364 0.017163 0.00731559
0.211111 0.0168198 0.00742538
0.20564 0.0183723 0.00701287
0.199338 0.0177821 0.00699888
0.204854 0.0158533 0.00828486
0.199317 0.0176884 0.00702735
0.205126 0.0165709 0.00771853
0.205109 0.0168611 0.0075058
0.205311 0.0173072 0.00723776
0.205714 0.0183062 0.00702136
0.199358 0.0178784 0.00698181
0.198967 0.0162563 0.00787051
0.205165 0.0167249 0.00759695
0.205522 0.0174428 0.00714896
0.205578 0.0180785 0.00703287
0.205406 0.0173327 0.00721772
0.205343 0.0170781 0.00736455
0.205008 0.0161092 0.0080831
0.205525 0.018243 0.00701772
0.205268 0.0171379 0.00733543
0.205364 0.0179172 0.0070358
0.205725 0.0179447 0.00704991
0.204874 0.0159288 0.00822234
0.199397 0.0180715 0.00694761
0.204933 0.0161597 0.00804006
0.211415 0.0179784 0.007061
0.199045 0.0165921 0.00766781
0.199254 0.0174295 0.00716276
0.211131 0.0169137 0.00739689

VERTICES 271 542
1 0
1 1
1 2
1 3
1 4
1 5
1 6
1 7
1 8
1 9
1 10
1 11
1 12
1 13
1 14
1 15
1 16
1 17
1 18
1 19
1 20
1 21
1 22
1 23
1 24
1 25
1 26
1 27
1 28
1 29
1 30
1 31
1 32
1 33
1 34
1 35
1 36
1 37
1 38
1 39
1 40
1 41
1 42
1 43
1 44
1 45
1 46
1 47
1 48
1 49
1 50
1 51
1 52
1 53
1 54
1 55
1 56
1 57
1 58
1 59
1 60
1 61
1 62
1 63
1 64
1 65
1 66
1 67
1 68
1 69
1 70
1 71
1 72
1 73
1 74
1 75
1 76
1 77
1 78
1 79
1 80
1 81
1 82
1 83
1 84
1 85
1 86
1 87
1 88
1 89
1 90
1 91
1 92
1 93
1 94
1 95
1 96
1 97
1 98
1 99
1 100
1 101
1 102
1 103
1 104
1 105
1 106
1 107
1 108
1 109
1 110
1 111
1 112
1 113
1 114
1 115
1 116
1 117
1 118
1 119
1 120
1 121
1 122
1 123
1 124
1 125
1 126
1 127
1 128
1 129
1 130
1 131
1 132
1 133
1 134
1 135
1 136
1 137
1 138
1 139
1 140
1 141
1 142
1 143
1 144
1 145
1 146
1 147
1 148
1 149
1 150
1 151
1 152
1 153
1 154
1 155
1 156
1 157
1 158
1 159
1 160
1 161
1 162
1 163
1 164
1 165
1 166
1 167
1 168
1 169
1 170
1 171
1 172
1 173
1 174
1 175
1 176
1 177
1 178
1 179
1 180
1 181
1 182
1 183
1 184
1 185
1 186
1 187
1 188
1 189
1 190
1 191
1 192
1 193
1 194
1 195
1 196
1 197
1 198
1 199
1 200
1 201
1 202
1 203
1 204
1 205
1 206
1 207
1 208
1 209
1 210
1 211
1 212
1 213
1 214
1 215
1 216
1 217
1 218
1 219
1 220
1 221
1 222
1 223
1 224
1 225
1 226
1 227
1 228
1 229
1 230
1 231
1 232
1 233
1 234
1 235
1 236
1 237
1 238
1 239
1 240
1 241
1 242
1 243
1 244
1 245
1 246
1 247
1 248
1 249
1 250
1 251
1 252
1 253
1 254
1 255
1 256
1 257
1 258
1 259
1 260
1 261
1 262
1 263
1 264
1 265
1 266
1 267
1 268
1 269
1 270

POINT_DATA 271
SCALARS id int 1
LOOKUP_TABLE default
1
2
3
4
5
6
7
8
9
10
11
12
13
14
15
16
17
19
21
22
23
24
25
26
27
28
29
30
31
32
33
34
35
36
37
38
39
41
42
44
45
47
48
50
51
52
53
54
55
56
57
59
61
62
63
64
65
66
67
68
69
70
71
72
73
74
76
77
78
79
80
81
82
83
84
85
86
87
88
89
90
91
92
93
94
95
96
97
98
99
100
101
102
103
104
105
106
107
108
109
110
111
112
113
114
115
116
117
118
119
120
121
122
123
124
125
126
127
128
129
131
132
133
134
135
136
137
138
140
141
142
143
144
147
148
149
150
151
153
154
155
156
157
158
159
160
162
164
165
166
168
169
170
171
172
173
174
175
177
178
179
181
182
183
184
186
187
188
189
190
191
192
193
194
195
196
197
198
199
201
202
203
204
205
206
207
208
209
210
211
212
213
214
215
216
217
218
219
220
221
222
223
224
225
226
227
228
229
230
231
232
234
235
236
237
239
240
241
242
244
246
247
248
249
250
251
252
253
254
255
256
257
258
259
261
262
263
264
265
266
267
268
269
270
271
272
273
274
275
276
277
278
280
283
284
285
286
287
288
289
290
291
292
293
294
295
296
297
298
299
300

SCALARS type int 1
LOOKUP_TABLE default
1
1
1
1
1
1
1
1
1
1
1
1
1
1
1
1
1
1
1
1
1
1
1
1
1
1
1
1
1
1
1
1
1
1
1
1
1
1
1
1
1
1
1
1
1
1
1
1
1
1
1
1
1
1
1
1
1
1
1
1
1
1
1
1
1
1
1
1
1
1
1
1
1
1
1
1
1
1
1
1
1
1
1
1
1
1
1
1
1
1
1
1
1
1
1
1
1
1
1
1
1
1
1
1
1
1
1
1
1
1
1
1
1
1
1
1
1
1
1
1
1
1
1
1
1
1
1
1
1
1
1
1
1
1
1
1
1
1
1
1
1
1
1
1
1
1
1
1
1
1
1
1
1
1
1
1
1
1
1
1
1
1
1
1
1
1
1
1
1
1
1
1
1
1
1
1
1
1
1
1
1
1
1
1
1
1
1
1
1
1
1
1
1
1
1
1
1
1
1
1
1
1
1
1
1
1
1
1
1
1
1
1
1
1
1
1
1
1
1
1
1
1
1
1
1
1
1
1
1
1
1
1
1
1
1
1
1
1
1
1
1
1
1
1
1
1
1
1
1
1
1
1
1
1
1
1
1
1
1
1
1
1
1
1
1
1
1
1
1
1
1

SCALARS radius float 1
LOOKUP_TABLE default
5e-05
5e-05
5e-05
5e-05
5e-05
5e-05
5e-05
5e-05
5e-05
5e-05
5e-05
5e-05
5e-05
5e-05
5e-05
5e-05
5e-05
5e-05
5e-05
5e-05
5e-05
5e-05
5e-05
5e-05
5e-05
5e-05
5e-05
5e-05
5e-05
5e-05
5e-05
5e-05
5e-05
5e-05
5e-05
5e-05
5e-05
5e-05
5e-05
5e-05
5e-05
5e-05
5e-05
5e-05
5e-05
5e-05
5e-05
5e-05
5e-05
5e-05
5e-05
5e-05
5e-05
5e-05
5e-05
5e-05
5e-05
5e-05
5e-05
5e-05
5e-05
5e-05
5e-05
5e-05
5e-05
5e-05
5e-05
5e-05
5e-05
5e-05
5e-05
5e-05
5e-05
5e-05
5e-05
5e-05
5e-05
5e-05
5e-05
5e-05
5e-05
5e-05
5e-05
5e-05
5e-05
5e-05
5e-05
5e-05
5e-05
5e-05
5e-05
5e-05
5e-05
5e-05
5e-05
5e-05
5e-05
5e-05
5e-05
5e-05
5e-05
5e-05
5e-05
5e-05
5e-05
5e-05
5e-05
5e-05
5e-05
5e-05
5e-05
5e-05
5e-05
5e-05
5e-05
5e-05
5e-05
5e-05
5e-05
5e-05
5e-05
5e-05
5e-05
5e-05
5e-05
5e-05
5e-05
5e-05
5e-05
5e-05
5e-05
5e-05
5e-05
5e-05
5e-05
5e-05
5e-05
5e-05
5e-05
5e-05
5e-05
5e-05
5e-05
5e-05
5e-05
5e-05
5e-05
5e-05
5e-05
5e-05
5e-05
5e-05
5e-05
5e-05
5e-05
5e-05
5e-05
5e-05
5e-05
5e-05
5e-05
5e-05
5e-05
5e-05
5e-05
5e-05
5e-05
5e-05
5e-05
5e-05
5e-05
5e-05
5e-05
5e-05
5e-05
5e-05
5e-05
5e-05
5e-05
5e-05
5e-05
5e-05
5e-05
5e-05
5e-05
5e-05
5e-05
5e-05
5e-05
5e-05
5e-05
5e-05
5e-05
5e-05
5e-05
5e-05
5e-05
5e-05
5e-05
5e-05
5e-05
5e-05
5e-05
5e-05
5e-05
5e-05
5e-05
5e-05
5e-05
5e-05
5e-05
5e-05
5e-05
5e-05
5e-05
5e-05
5e-05
5e-05
5e-05
5e-05
5e-05
5e-05
5e-05
5e-05
5e-05
5e-05
5e-05
5e-05
5e-05
5e-05
5e-05
5e-05
5e-05
5e-05
5e-05
5e-05
5e-05
5e-05
5e-05
5e-05
5e-05
5e-05
5e-05
5e-05
5e-05
5e-05
5e-05
5e-05
5e-05
5e-05
5e-05
5e-05
5e-05
5e-05
5e-05
5e-05
5e-05
5e-05
5e-05
5e-05
5e-05
5e-05
5e-05
5e-05
5e-05
5e-05
5e-05
5e-05
5e-05
5e-05
5e-05

SCALARS mass float 1
LOOKUP_TABLE default
1.46608e-10
1.46608e-10
1.46608e-10
1.46608e-10
1.46608e-10
1.46608e-10
1.46608e-10
1.46608e-10
1.46608e-10
1.46608e-10
1.46608e-10
1.46608e-10
1.46608e-10
1.46608e-10
1.46608e-10
1.46608e-10
1.46608e-10
1.46608e-10
1.46608e-10
1.46608e-10
1.46608e-10
1.46608e-10
1.46608e-10
1.46608e-10
1.46608e-10
1.46608e-10
1.46608e-10
1.46608e-10
1.46608e-10
1.46608e-10
1.46608e-10
1.46608e-10
1.46608e-10
1.46608e-10
1.46608e-10
1.46608e-10
1.46608e-10
1.46608e-10
1.46608e-10
1.46608e-10
1.46608e-10
1.46608e-10
1.46608e-10
1.46608e-10
1.46608e-10
1.46608e-10
1.46608e-10
1.46608e-10
1.46608e-10
1.46608e-10
1.46608e-10
1.46608e-10
1.46608e-10
1.46608e-10
1.46608e-10
1.46608e-10
1.46608e-10
1.46608e-10
1.46608e-10
1.46608e-10
1.46608e-10
1.46608e-10
1.46608e-10
1.46608e-10
1.46608e-10
1.46608e-10
1.46608e-10
1.46608e-10
1.46608e-10
1.46608e-10
1.46608e-10
1.46608e-10
1.46608e-10
1.46608e-10
1.46608e-10
1.46608e-10
1.46608e-10
1.46608e-10
1.46608e-10
1.46608e-10
1.46608e-10
1.46608e-10
1.46608e-10
1.46608e-10
1.46608e-10
1.46608e-10
1.46608e-10
1.46608e-10
1.46608e-10
1.46608e-10
1.46608e-10
1.46608e-10
1.46608e-10
1.46608e-10
1.46608e-10
1.46608e-10
1.46608e-10
1.46608e-10
1.46608e-10
1.46608e-10
1.46608e-10
1.46608e-10
1.46608e-10
1.46608e-10
1.46608e-10
1.46608e-10
1.46608e-10
1.46608e-10
1.46608e-10
1.46608e-10
1.46608e-10
1.46608e-10
1.46608e-10
1.46608e-10
1.46608e-10
1.46608e-10
1.46608e-10
1.46608e-10
1.46608e-10
1.46608e-10
1.46608e-10
1.46608e-10
1.46608e-10
1.46608e-10
1.46608e-10
1.46608e-10
1.46608e-10
1.46608e-10
1.46608e-10
1.46608e-10
1.46608e-10
1.46608e-10
1.46608e-10
1.46608e-10
1.46608e-10
1.46608e-10
1.46608e-10
1.46608e-10
1.46608e-10
1.46608e-10
1.46608e-10
1.46608e-10
1.46608e-10
1.46608e-10
1.46608e-10
1.46608e-10
1.46608e-10
1.46608e-10
1.46608e-10
1.46608e-10
1.46608e-10
1.46608e-10
1.46608e-10
1.46608e-10
1.46608e-10
1.46608e-10
1.46608e-10
1.46608e-10
1.46608e-10
1.46608e-10
1.46608e-10
1.46608e-10
1.46608e-10
1.46608e-10
1.46608e-10
1.46608e-10
1.46608e-10
1.46608e-10
1.46608e-10
1.46608e-10
1.46608e-10
1.46608e-10
1.46608e-10
1.46608e-10
1.46608e-10
1.46608e-10
1.46608e-10
1.46608e-10
1.46608e-10
1.46608e-10
1.46608e-10
1.46608e-10
1.46608e-10
1.46608e-10
1.46608e-10
1.46608e-10
1.46608e-10
1.46608e-10
1.46608e-10
1.46608e-10
1.46608e-10
1.46608e-10
1.46608e-10
1.46608e-10
1.46608e-10
1.46608e-10
1.46608e-10
1.46608e-10
1.46608e-10
1.46608e-10
1.46608e-10
1.46608e-10
1.46608e-10
1.46608e-10
1.46608e-10
1.46608e-10
1.46608e-10
1.46608e-10
1.46608e-10
1.46608e-10
1.46608e-10
1.46608e-10
1.46608e-10
1.46608e-10
1.46608e-10
1.46608e-10
1.46608e-10
1.46608e-10
1.46608e-10
1.46608e-10
1.46608e-10
1.46608e-10
1.46608e-10
1.46608e-10
1.46608e-10
1.46608e-10
1.46608e-10
1.46608e-10
1.46608e-10
1.46608e-10
1.46608e-10
1.46608e-10
1.46608e-10
1.46608e-10
1.46608e-10
1.46608e-10
1.46608e-10
1.46608e-10
1.46608e-10
1.46608e-10
1.46608e-10
1.46608e-10
1.46608e-10
1.46608e-10
1.46608e-10
1.46608e-10
1.46608e-10
1.46608e-10
1.46608e-10
1.46608e-10
1.46608e-10
1.46608e-10
1.46608e-10
1.46608e-10
1.46608e-10
1.46608e-10
1.46608e-10
1.46608e-10
1.46608e-10
1.46608e-10
1.46608e-10
1.46608e-10
1.46608e-10
1.46608e-10
1.46608e-10
1.46608e-10
1.46608e-10
1.46608e-10
1.46608e-10
1.46608e-10
1.46608e-10

VECTORS velocity float
0.00621423 0.000454255 -0.000939037
0.00629653 0.000768147 -0.00043847
0.00597087 -0.000790841 0.000327844
0.00633983 0.000771413 -0.000440925
0.0062226 0.000455495 -0.000938556
0.00578172 -0.00064359 0.000120147
0.00612024 0.000463148 -0.000945276
0.00624838 0.000448791 -0.000934664
0.0060833 -0.000685825 0.000201314
0.00633956 0.000745141 -0.000433992
0.00634538 0.000748286 -0.000435722
0.00566623 -0.000188717 0.000339497
0.00630217 0.000422764 -0.000907049
0.0056159 -0.000416361 0.00028166
0.00636957 0.000773252 -0.000443449
0.00549415 -0.000569591 0.00029665
0.00628585 0.000751135 -0.000433783
0.00626998 0.00044175 -0.000928178
0.00631874 0.000746543 -0.000432383
0.00627539 0.0006781 -0.000411497
0.00524863 -0.000377262 0.000486543
0.00612051 -0.000627363 0.000319653
0.00605966 0.000497298 -0.000976074
0.00600852 -0.000690415 0.000131614
0.00578715 -0.000341748 0.000287537
0.00634107 0.000746571 -0.000436622
0.00610271 0.000472256 -0.000953772
0.00634394 0.000745297 -0.000430438
0.00593163 0.000527181 -0.00100573
0.00598536 0.000714772 -0.000412147
0.00583607 -0.000659439 0.000126974
0.00614563 0.000458872 -0.000940454
0.00595453 0.000626919 -0.000385468
0.00613122 -0.000627752 0.000319912
0.00631749 0.000741744 -0.000446282
0.0059165 0.000755507 -0.000424011
0.00610347 -0.000630722 0.000318968
0.00630342 0.000744932 -0.000432612
4.60982e-16 2.25447e-15 8.4636e-14
0.0063254 0.000754244 -0.00043602
0.00588022 -0.000667515 0.000129297
0.00620957 0.000453308 -0.000937267
0.00587949 0.000796528 -0.000436566
0.00571662 0.000575482 -0.00103506
0.00578262 0.000566961 -0.00101997
0.00552437 -0.00035754 8.33883e-05
0.00613732 -0.000629556 0.000320039
0.00629554 0.000768165 -0.000444247
0.00573877 -0.000324059 0.000176723
0.00629149 0.000905075 -0.000475725
0.00597725 -0.000680415 0.000132464
0.00613566 0.000671603 -0.000405128
0.00607142 0.00105643 -0.000231437
0.00622591 0.00103638 -0.000519712
0.00624923 0.000649717 -0.000402122
0.00609142 -0.000630847 0.000318807
0.00536982 -0.000348154 0.000467577
0.00595218 -0.000384138 0.000295279
0.00627598 0.000756979 -0.000437599
0.00590071 0.000736545 -0.000418018
0.00631449 0.000751738 -0.000456291
0.00601475 -0.000714916 0.000122723
0.00561092 -0.000303522 0.000117104
0.00628428 0.00075194 -0.000436121
0.00590216 0.000813555 -0.000443533
0.00629727 0.000785524 -0.000446327
0.00557634 -0.000543658 0.000292647
0.00605201 0.000590884 -0.000377761
0.00575218 -0.000440385 0.000289658
0.00573407 -0.000174962 0.000338233
0.00631503 0.000725245 -0.000427429
0.00565023 -0.00086013 0.00032966
0.00571018 -0.000212191 0.000372593
0.00564292 -0.000764855 0.000313227
0.00616582 -0.000626151 0.000318022
0.00600559 -0.000758088 0.000329669
0.00633166 0.000729986 -0.000429151
0.00595091 0.000800245 -0.000438374
0.00590772 0.000560594 -0.00102541
0.0059639 0.000868173 -0.000460154
0.00633356 0.000740805 -0.000435307
0.00572531 -0.000255513 0.000278324
0.00630801 0.00072966 -0.000432402
0.00567991 0.000561871 -0.00106229
0.00634842 0.000721401 -0.000426523
0.00623603 0.000756631 -0.000434382
0.00570927 0.000573163 -0.00104514
0.00535213 -0.000324569 0.000443932
0.00634217 0.000745995 -0.000434439
0.00572997 -0.000496412 8.05708e-05
0.00626382 0.000926423 -0.000487456
0.00573696 -0.000302844 0.000184164
4.38884e-15 1.04711e-14 8.29575e-14
8.61412e-23 2.24983e-22 1.23839e-22
0.00590698 -0.000716975 3.20836e-05
0.00588369 -0.000188398 0.000279251
0.00613694 -0.000625718 -4.81063e-06
0.00619792 -0.000593213 -4.62278e-05
0.00632822 0.000758002 -0.000451012
0.0061808 0.000552364 -0.000370262
0.00573286 0.000567622 -0.00104455
0.0061236 0.00078496 -0.000439442
0.00592323 -0.000663279 0.000319375
0.00553415 -0.000229769 0.000406887
0.00607184 -0.000266977 0.000292125
0.00631597 0.000719588 -0.00042568
0.00628555 0.000750193 -0.000435926
0.00599723 0.000751437 -0.000423952
0.00612799 -0.000549371 -0.000205019
0.00616779 0.000558752 -0.000371563
0.00610953 0.000481751 -0.000961911
0.00617531 0.000455341 -0.000937695
0.00586771 0.000838861 -0.000447637
0.00608009 -0.000472128 -7.83606e-05
0.00594955 0.000824675 -0.000445804
0.00599077 0.000735501 -0.000419655
0.0059436 0.000816616 -0.000446948
0.00581991 -0.000278496 0.000283706
0.00589219 0.000827814 -0.000444367
0.00633202 0.000748098 -0.000435119
0.00596618 -0.000529562 0.000326567
0.00630547 0.000741966 -0.000432249
0.00634459 0.000748279 -0.000434341
0.00587996 0.000834424 -0.000447183
0.0062857 0.000432489 -0.000917907
0.00567045 -0.000268588 0.000290231
0.00567901 0.0005751 -0.00104947
0.00629858 0.000748696 -0.000436272
0.00632501 0.00068936 -0.000416354
0.00559434 -0.000864672 0.000318763
0.00606527 -0.000510888 -7.25231e-05
0.00575216 -0.000331125 0.000190087
0.00616083 -0.000446058 0.000317922
0.00540024 -0.000633427 0.000291995
0.00574631 -0.000461102 0.00054774
0.00591665 0.000676867 -0.000893111
8.38571e-15 1.24229e-15 -8.48743e-14
0.00601862 -0.000525614 3.33998e-05
0.00556636 -0.00074374 0.000307606
0.00609757 -0.000505512 -4.2762e-05
0.00616695 -0.0006005 -3.00558e-05
0.00580872 -0.000603711 0.000300207
-3.82812e-14 8.17067e-14 2.95883e-13
0.00565545 -0.000339472 0.000280808
0.00609897 0.00092529 -0.000481586
0.00612657 -0.000438986 0.000246819
0.0055358 -0.000636943 0.000300755
0.00563666 -0.000287163 0.000440233
0.00589112 -0.000662803 0.000316035
0.00585736 0.000717789 -0.000575138
0.00585269 -0.000731969 -0.000249449
0.00563154 -0.000715636 0.000308184
0.00593803 -0.000528946 0.000305638
0.00631908 0.00074842 -0.000436843
0.0059486 -0.000591845 -3.66089e-05
0.00627581 0.000756098 -0.000435444
0.00618911 -0.000544006 -6.21099e-05
0.00617368 0.000170263 0.000145079
0.00598488 -0.000636425 -7.20383e-06
0.00603165 -0.000587188 -2.97813e-05
0.00598443 -0.000554632 -3.72064e-05
0.00534126 -0.00085222 0.000306706
0.00635602 0.000742769 -0.000431838
0.00610027 -0.000665774 1.06156e-05
0.00631999 0.000731622 -0.000429497
0.00599891 -0.000515878 8.93818e-05
0.00619059 0.000778476 -0.000439678
0.00595918 0.000722376 -0.000415334
0.00628683 0.000747929 -0.000434143
0.00584491 0.000193847 -0.000105363
0.00594567 0.000715125 -0.000412172
0.00605811 -0.000527123 -6.25934e-05
0.00628461 0.000649666 -0.000403286
1.5964e-15 -1.10019e-14 8.66686e-14
0.00585711 -0.000651414 0.000314289
0.0052759 -0.000357096 0.00047013
0.00625895 0.000156592 0.000157433
0.00560515 -0.000811188 0.000326247
0.00608911 -0.000196184 0.000291699
0.00545514 -0.000252326 0.000397648
0.0057845 -0.000620873 0.000307411
0.00572908 0.000567427 -0.00104592
0.00568464 -0.000349608 0.000186915
0.00592041 -0.000665368 0.000315644
0.00540862 -0.000312786 0.000420927
0.00597154 -0.000664077 -0.000130198
0.00589097 -0.000671951 -0.000103259
0.00660982 0.000844577 -8.12861e-05
0.00633489 0.000743031 -0.000433906
0.00599816 0.000821377 -0.000453704
0.00574235 -0.000649753 0.000309582
0.00631182 0.000737241 -0.000433001
0.00589757 0.000813039 -0.000611881
0.00583045 0.000185611 -0.000103263
0.00590926 -0.000628486 0.000318439
0.00594903 0.000798208 -0.000438486
0.00566784 -0.00023392 0.000389851
0.00584102 0.000557592 -0.00103613
0.00579429 -0.000738397 0.000318069
0.005816 0.000468134 -0.000152769
0.00630893 0.000729694 -0.000431879
0.00591208 -0.000403696 3.81722e-05
-0.00311439 -0.0106689 0.00210898
0.00600645 0.000701745 -0.000410116
0.00606007 -0.000546989 -5.04408e-05
0.00554139 0.000260521 -0.000111916
0.00620679 0.000167812 0.000151662
0.00558226 -0.000592781 0.000297766
0.00534807 -0.000302427 0.000426259
0.00611687 0.000175121 0.000136168
0.00611445 -0.00027165 0.000287596
0.00629429 0.000743226 -0.000434092
0.00591857 -0.000706746 0.000318264
0.00529512 -0.000373213 0.000486182
0.00530745 -0.00039667 0.000508608
0.00562138 0.000261651 6.72613e-05
0.0056156 0.000261514 6.71607e-05
0.00559737 0.000246859 7.52041e-05
0.00610702 -0.000481702 -0.000121359
0.00561062 0.000259611 6.80538e-05
0.00609238 0.000177422 0.000134142
0.005755 -0.000256528 0.000278866
0.00539864 -0.000280754 0.00041464
0.00582342 0.000207731 -0.000105882
0.00584554 -0.000734366 7.91581e-05
0.00579081 0.000558457 -0.00104019
0.00633059 0.000166688 0.000158657
0.00589664 0.000216635 -0.000110402
0.00593585 0.00020261 0.000114792
0.00612825 -0.000416536 0.000297018
0.00597166 -0.000542189 -5.02748e-05
0.00601769 -0.000408327 -0.00013065
0.00599103 -0.000568012 -3.85981e-05
0.0063702 0.000164729 0.000149713
0.00576527 -0.000354838 0.000259626
0.00541499 -0.000369229 0.000487246
0.00564929 0.000243488 7.96506e-05
0.00556235 -0.000918311 0.000321835
0.00621896 0.000160953 0.00015328
0.00586737 -0.000572493 -2.81563e-05
0.00531589 -0.000334945 0.000463472
0.00563735 -0.00025476 0.000382576
0.00604085 -0.000507756 -7.45651e-05
0.00587323 0.000868374 -0.000460192
0.00540499 -0.000794036 0.000306232
0.00566978 0.000209423 -0.000107534
0.00554759 -0.000265179 0.000425709
0.00612263 0.000138092 -4.7795e-05
0.00551933 -0.000301644 0.000419186
0.00590246 -0.00047288 0.000136653
0.00590528 -0.000538169 -5.4135e-05
0.00544103 -0.000879282 0.00031277
0.00539968 0.000275548 -0.000113828
0.00562556 0.000262076 6.72472e-05
0.00570417 -0.000299359 0.000425064
0.00614344 -0.000491318 -8.94609e-05
0.00570489 -0.000603666 0.000303996
0.00594296 -0.000538147 -5.14038e-05
0.0060162 -0.000492803 -8.14001e-05
0.00531204 -0.00041273 0.000518289
0.00543139 -0.000669119 0.000296396
0.00595535 -0.000598348 -2.00819e-05
0.00612919 -0.000371395 0.000283386
0.00585154 -0.00080454 0.000326124
0.00547326 -0.000319157 0.000446661
0.00576274 0.000219316 -0.000107808
0.00524652 -0.000394734 0.000501693
0.0062741 0.000755423 -0.000437268
0.00560515 0.000253212 7.18188e-05
0.00628809 0.000160234 0.000159491
0.00589706 0.000849958 -0.000456909

VECTORS force float
7.84518e-12 -3.68957e-12 8.93049e-12
-1.37396e-11 7.80154e-11 -2.02546e-11
-5.59129e-10 4.00852e-10 -1.4579e-10
1.88798e-10 -1.39043e-10 4.61422e-11
-1.2679e-10 1.73313e-11 1.96779e-11
3.02376e-11 1.04141e-10 -5.36292e-11
-5.70031e-11 -9.73134e-12 1.42162e-11
-5.06762e-11 4.99714e-12 1.14794e-11
-8.27792e-11 1.06126e-10 -1.13859e-11
-1.24552e-11 5.72724e-11 -2.17607e-11
7.53925e-11 -4.79849e-11 2.95534e-11
6.85876e-11 1.88196e-11 -6.5759e-11
5.08886e-11 1.35617e-10 -1.67038e-10
1.38965e-09 4.16867e-09 -9.50567e-11
1.24453e-10 -8.29727e-11 1.10131e-11
-9.2889e-10 2.54596e-09 -1.44841e-10
-3.9342e-11 6.30361e-11 -9.66073e-12
2.68655e-11 4.42743e-11 -5.77527e-11
-4.17609e-11 -1.30205e-11 1.90566e-11
-2.65926e-11 -1.86691e-11 -3.61636e-12
1.67885e-09 -1.05515e-09 8.49105e-10
-2.6218e-11 -2.71643e-11 2.50661e-12
-9.10823e-12 -1.31146e-11 -7.54235e-11
5.54357e-11 4.46857e-11 -2.23658e-12
-7.645e-10 1.48915e-10 -4.34851e-11
3.02876e-11 -1.0713e-10 -2.42517e-11
-2.05495e-10 3.92952e-11 -3.04019e-11
1.25815e-10 1.46087e-10 -1.46786e-10
4.45197e-11 3.21285e-12 -4.71317e-12
-7.21005e-12 1.57782e-10 -2.54209e-11
1.85924e-10 7.00646e-11 -1.23163e-12
1.60812e-10 -5.09161e-11 3.82191e-11
1.23996e-10 2.80017e-11 -7.15114e-12
-3.96335e-11 -7.85991e-11 -3.21472e-12
-9.5249e-11 5.62764e-11 3.56993e-11
-1.55541e-10 3.90237e-11 -2.8363e-12
-2.89837e-11 -5.90128e-11 1.58285e-11
-2.85968e-11 -2.20966e-11 1.10018e-11
4.60604e-24 -6.06168e-24 2.06795e-25
1.28196e-10 -3.03862e-12 1.55567e-12
5.01592e-11 -4.67705e-11 6.27817e-11
5.13688e-11 -1.84478e-11 -9.13305e-12
1.1482e-11 7.78617e-11 -2.93662e-11
-7.39669e-12 -4.70135e-11 2.45312e-11
-2.16375e-11 1.68121e-11 5.13352e-11
-8.23413e-11 -2.03757e-10 -1.17422e-09
1.94032e-10 -5.40813e-11 5.9092e-11
9.18955e-12 -3.57763e-11 2.59082e-11
-1.65269e-10 3.63144e-10 -1.35027e-09
2.49628e-10 4.50784e-11 -6.37126e-11
-1.01061e-10 2.04792e-11 1.88428e-13
2.28647e-11 -5.37107e-11 8.63884e-12
-3.05905e-11 -4.04486e-11 4.79962e-11
-3.56047e-10 2.93098e-10 -7.7246e-11
1.87484e-10 -5.0357e-11 8.73298e-12
-1.20606e-11 -1.04935e-10 1.05267e-11
-3.17688e-10 -8.13886e-10 6.32238e-10
2.67715e-09 -6.34871e-10 7.56557e-10
2.10579e-10 -2.228e-11 -3.91121e-11
-2.0704e-10 8.45128e-11 -3.58732e-11
-8.52883e-11 -8.03423e-11 -3.38413e-11
6.23843e-11 9.9761e-11 1.1904e-10
-1.54284e-10 3.38371e-10 -1.35436e-09
7.94852e-11 9.83652e-11 -3.48014e-11
-2.47424e-11 -4.55891e-11 3.21248e-11
-1.36255e-10 1.11694e-10 -1.25035e-11
-6.66382e-10 -2.70928e-10 -1.84747e-11
4.43949e-11 2.43282e-11 -5.33135e-12
-4.12475e-09 1.24523e-10 -2.43651e-10
1.72021e-10 3.80271e-10 -4.1237e-10
-2.65548e-11 9.17712e-11 -2.52766e-11
-6.27097e-10 -5.40673e-10 1.47609e-10
-1.73343e-10 -2.01182e-10 2.49869e-10
-8.72351e-10 3.81735e-10 -3.69151e-11
-1.97963e-10 5.8554e-11 -5.04912e-11
-7.69591e-10 1.99401e-10 -5.79472e-11
-1.12912e-10 5.10143e-12 1.59781e-12
-4.51186e-10 -1.47588e-10 5.70729e-11
4.48326e-11 -5.56578e-11 1.46383e-10
4.16395e-11 1.54764e-10 -5.08857e-11
-1.55195e-11 -9.64258e-11 -1.7192e-10
-8.03129e-10 -1.27963e-10 -2.18314e-11
-1.65617e-10 6.2703e-11 -4.46312e-11
2.23492e-10 -6.77681e-11 1.65303e-12
4.75603e-11 4.54742e-11 -7.96124e-12
-2.66227e-11 -1.42553e-10 4.89654e-11
3.42219e-10 -6.36411e-11 4.44758e-12
-4.15991e-10 -4.74412e-10 1.32538e-10
6.44841e-11 -1.34359e-10 3.3126e-11
7.82539e-10 -1.92788e-10 -6.78116e-10
-2.8682e-10 2.72442e-10 -7.98316e-11
-1.71133e-10 -1.61631e-10 -6.3773e-10
6.32237e-22 -2.52885e-22 -6.20385e-25
3.23117e-27 0.0 0.0
7.92121e-11 2.46449e-10 1.07088e-11
-7.80806e-10 1.33782e-10 -4.28467e-11
-6.65399e-10 9.24166e-10 -6.46896e-10
-5.74156e-10 -1.97042e-10 2.99176e-10
5.43889e-11 1.20598e-10 -7.26516e-11
-7.69545e-12 -1.39408e-10 4.02366e-11
1.53784e-11 1.04251e-10 1.09787e-10
-1.43268e-11 -2.04935e-10 6.81566e-11
-4.83087e-10 5.5896e-10 2.26609e-11
-3.96801e-10 -2.99795e-10 -2.64797e-10
-2.63907e-09 -2.72382e-09 2.4071e-10
5.71859e-11 -1.47218e-10 4.13558e-11
2.36189e-11 6.99729e-11 2.50111e-12