# vtk DataFile Version 3.0
LIGGGHTS particles timestep 28400000
ASCII
DATASET POLYDATA
POINTS 271 float
0.17808 0.015474 0.00864394
0.178976 0.0179695 0.00705668
0.172894 0.017541 0.00745988
0.179012 0.0177111 0.00710031
0.178059 0.0153993 0.00870708
0.184493 0.0169624 0.00747227
0.178166 0.0157652 0.00838357
0.178039 0.0153248 0.00877073
0.184611 0.017486 0.00720377
0.178633 0.0175896 0.00714245
0.178767 0.0178093 0.00708138
0.172139 0.0157892 0.00859824
0.177984 0.0151679 0.00900544
0.172877 0.0187603 0.00686379
0.178992 0.0176168 0.00712734
0.172994 0.0188289 0.00684453
0.179031 0.0178078 0.00708433
0.17802 0.0152544 0.00883911
0.178594 0.017401 0.00719658
0.178803 0.0175559 0.00714846
0.17228 0.0160069 0.00851344
0.184686 0.0178291 0.00701233
0.178231 0.0159825 0.0081873
0.184573 0.0173131 0.00729698
0.172807 0.0172607 0.00766353
0.178937 0.0177756 0.00708655
0.178188 0.0158377 0.00831815
0.178692 0.0178729 0.00706335
0.178253 0.016055 0.00812188
0.178655 0.0169684 0.0073177
0.184514 0.01705 0.00742852
0.178144 0.0156931 0.00844932
0.178839 0.0173033 0.00721916
0.184667 0.0177433 0.00706019
0.178886 0.0183896 0.0069865
0.178949 0.0186797 0.00694193
0.184704 0.0179149 0.00696446
0.179051 0.0179047 0.00706939
0.321436 0.0173475 0.00552525
0.178956 0.0178725 0.00707161
0.184534 0.0171376 0.00738471
0.178101 0.0155479 0.00857979
0.178928 0.0185829 0.0069568
0.178298 0.0161996 0.00799134
0.178274 0.0161274 0.00805647
0.172055 0.0154349 0.00876388
0.184648 0.0176576 0.00710805
0.17877 0.0182607 0.00700359
0.171998 0.0151941 0.00892863
0.178907 0.0184863 0.00697164
0.184553 0.0172253 0.00734085
0.178783 0.0174617 0.00717553
0.178572 0.0168315 0.00742402
0.179172 0.0184827 0.00698043
0.178973 0.0175225 0.00715441
0.184724 0.0180042 0.00692367
0.172347 0.0165197 0.00835695
0.171978 0.0151503 0.00901638
0.17892 0.0181312 0.00702902
0.178724 0.0171783 0.00725689
0.17879 0.0183576 0.00698865
0.184592 0.0174002 0.00725163
0.172035 0.0153462 0.00880541
0.178826 0.018099 0.00703124
0.178853 0.0186477 0.00694408
0.178982 0.0184214 0.00698437
0.173124 0.0185434 0.00692563
0.178858 0.0173978 0.00719204
0.172857 0.0186661 0.00689045
0.172097 0.015612 0.00868106
0.179015 0.0181632 0.00702681
0.173066 0.0188963 0.00682554
0.17216 0.0158778 0.00855683
0.172925 0.0185272 0.00692992
0.18463 0.0175718 0.00715591
0.173138 0.018143 0.0070391
0.179071 0.0180016 0.00705446
0.179024 0.0186146 0.00695469
0.178458 0.0167809 0.00746593
0.179003 0.018518 0.00696953
0.178861 0.0178404 0.00707383
0.173307 0.0180744 0.0070592
0.178961 0.0183248 0.00699922
0.17834 0.0163447 0.0078603
0.178747 0.0177142 0.00710525
0.178708 0.0175255 0.00715902
0.178361 0.0164174 0.00779511
0.172382 0.0160507 0.0085103
0.178842 0.0177449 0.00709575
0.172352 0.0166274 0.00828572
0.179077 0.0184521 0.0069824
0.172118 0.0157006 0.00863965
0.0643568 0.0187248 0.00531097
0.24257 0.0191927 0.00520306
0.172828 0.0180773 0.00711574
0.172525 0.0162407 0.00839829
0.172465 0.0163616 0.00832963
0.172403 0.0161396 0.00846877
0.17881 0.0184544 0.00697377
0.178953 0.0174282 0.00718148
0.178385 0.0164892 0.00772983
0.178689 0.0174312 0.00718609
0.172884 0.0183388 0.00698324
0.172487 0.0170849 0.00784368
0.172836 0.0185719 0.0069171
0.178917 0.0176806 0.00711084
0.17875 0.0181638 0.00701853
0.178895 0.018841 0.00691439
0.172688 0.0178809 0.007274
0.178878 0.0174921 0.00716497
0.17821 0.01591 0.00825276
0.178122 0.0156203 0.00851438
0.178649 0.0172426 0.00724026
0.172655 0.0177199 0.00738781
0.178669 0.017337 0.00721315
0.17897 0.0187763 0.00692709
0.178589 0.0169045 0.00735793
0.172559 0.0165228 0.00820378
0.178629 0.0171484 0.00726732
0.178786 0.0179052 0.00706111
0.172691 0.0168395 0.00796688
0.178881 0.0179373 0.00705889
0.178652 0.0176838 0.00711538
0.178609 0.0170542 0.00729437
0.178001 0.0151848 0.00890828
0.172898 0.0188545 0.00683714
0.178318 0.0162723 0.00792569
0.178731 0.0180668 0.00703346
0.178822 0.0176502 0.00712159
0.172904 0.0184329 0.00695658
0.17264 0.0176389 0.00744461
0.172016 0.0152756 0.0088736
0.172739 0.0181222 0.00710327
0.172966 0.0187155 0.00687661
0.172222 0.0161566 0.00853173
0.178477 0.0168536 0.00740016
0.0100679 0.0201683 0.00551526
0.172602 0.017479 0.00755853
0.17294 0.0190462 0.00680867
0.172705 0.0179613 0.00721709
0.172262 0.0163113 0.0084493
0.172864 0.0182478 0.00701998
0.0219312 0.0187687 0.00551176
0.173172 0.0184591 0.00694957
0.179098 0.0185488 0.00696754
0.172722 0.0180418 0.00716018
0.173013 0.0189784 0.00680221
0.172407 0.0164842 0.00825934
0.172928 0.0181036 0.00707857
0.178832 0.0185511 0.00695892
0.172497 0.0166281 0.00814593
0.172694 0.0174705 0.00765088
0.172885 0.0176247 0.00740581
0.178711 0.0179699 0.0070484
0.17293 0.0180202 0.00713362
0.178995 0.0180664 0.00704174
0.172425 0.0162285 0.00842572
0.166524 0.0170959 0.00737629
0.172514 0.0169294 0.00794192
0.172711 0.0175202 0.00750963
0.172777 0.017836 0.00728647
0.173047 0.0186596 0.00689259
0.178672 0.0177781 0.00708832
0.172767 0.0173408 0.00761806
0.178728 0.0176198 0.00713195
0.172577 0.0174007 0.00761555
0.178574 0.0173068 0.00722365
0.178704 0.0170841 0.00728395
0.178901 0.0180343 0.00704395
0.166818 0.0180802 0.00714261
0.178744 0.0172729 0.00722972
0.172895 0.0179457 0.00719018
0.178897 0.0175863 0.0071379
0.161461 0.0182058 0.00533758
0.173085 0.0184121 0.00696277
0.172301 0.0160956 0.00847201
0.166583 0.0173813 0.00730489
0.172918 0.0189486 0.0068105
0.172816 0.0184778 0.00694375
0.172464 0.0170059 0.00790071
0.172965 0.0182828 0.00699921
0.178406 0.0165621 0.00766452
0.172076 0.0155234 0.00872247
0.173044 0.0181767 0.00702941
0.172344 0.0162733 0.00838897
0.172649 0.0171232 0.00778624
0.172845 0.0181577 0.00705882
0.16918 0.0159814 0.00805698
0.178613 0.0174953 0.00716952
0.178554 0.0172126 0.0072507
0.172986 0.018377 0.00697256
0.178865 0.0182929 0.00700136
0.178495 0.0169336 0.00734276
0.166744 0.0181416 0.00711518
0.172945 0.0181908 0.00703282
0.178874 0.0187444 0.00692923
0.172181 0.0159664 0.00851541
0.178442 0.0167084 0.00753295
0.173064 0.0183179 0.00698942
0.232692 0.0178546 0.00717603
0.17894 0.018228 0.00701409
0.172811 0.0179969 0.00717265
0.118947 0.0172084 0.0080644
0.178764 0.0173673 0.0072026
0.172619 0.0175595 0.00750163
0.166756 0.0177957 0.00721332
0.166544 0.017191 0.00735255
0.173027 0.0185654 0.00691925
0.172345 0.0166108 0.00818738
0.166504 0.0170009 0.00740001
0.172795 0.0183836 0.0069704
0.178806 0.0180021 0.00704617
0.173043 0.0180434 0.00709592
0.172308 0.0164976 0.00826729
0.172265 0.0163207 0.00834977
0.166354 0.0164135 0.00785356
0.166374 0.0164712 0.00777459
0.166425 0.0166378 0.00753082
0.172671 0.0178004 0.00733091
0.166391 0.0165292 0.00769484
0.166484 0.0169058 0.00742374
0.173217 0.0185786 0.00691579
0.172403 0.0167957 0.0080527
0.166723 0.0180467 0.00713876
0.172296 0.0164026 0.00840762
0.178424 0.0166351 0.00759858
0.166622 0.0175715 0.00725728
0.166765 0.0182365 0.0070916
0.166466 0.0168104 0.0074479
0.172757 0.0182029 0.00704673
0.172878 0.0178652 0.00724709
0.172844 0.0177042 0.0073609
0.172743 0.017675 0.00740029
0.166642 0.0176666 0.00723348
0.172531 0.017243 0.00772962
0.172244 0.0162321 0.00839118
0.166444 0.0167158 0.00747117
0.173106 0.0190161 0.00679755
0.166563 0.0172861 0.00732873
0.172794 0.0179164 0.00722956
0.172322 0.0161842 0.00843056
0.172509 0.017164 0.00778665
0.172802 0.0174738 0.00752261
0.178514 0.0170251 0.00730747
0.173058 0.0187552 0.00686552
0.166681 0.0178568 0.00718593
0.172202 0.0160549 0.008474
0.166662 0.0177617 0.0072097
0.172365 0.0163619 0.00834731
0.172554 0.017322 0.00767259
0.17276 0.0177555 0.00734338
0.173146 0.0186465 0.00689645
0.166702 0.0179517 0.00716234
0.166332 0.0163559 0.00793243
0.172439 0.0167147 0.00809957
0.172585 0.0168656 0.00797028
0.173006 0.0184712 0.00694591
0.172861 0.0177848 0.007304
0.17273 0.0174219 0.00757138
0.172259 0.0159183 0.00855485
0.172945 0.0186213 0.00690327
0.172754 0.0175913 0.00745385
0.172776 0.0182937 0.00700962
0.173121 0.0182385 0.007012
0.172223 0.0161435 0.00843259
0.166776 0.0178906 0.00718973
0.172286 0.0164093 0.00830835
0.178845 0.0181959 0.0070163
0.166414 0.0165843 0.00761465
0.166603 0.0174764 0.00728108
0.178534 0.0171184 0.00727775

VERTICES 271 542
1 0
1 1
1 2
1 3
1 4
1 5
1 6
1 7
1 8
1 9
1 10
1 11
1 12
1 13
1 14
1 15
1 16
1 17
1 18
1 19
1 20
1 21
1 22
1 23
1 24
1 25
1 26
1 27
1 28
1 29
1 30
1 31
1 32
1 33
1 34
1 35
1 36
1 37
1 38
1 39
1 40
1 41
1 42
1 43
1 44
1 45
1 46
1 47
1 48
1 49
1 50
1 51
1 52
1 53
1 54
1 55
1 56
1 57
1 58
1 59
1 60
1 61
1 62
1 63
1 64
1 65
1 66
1 67
1 68
1 69
1 70
1 71
1 72
1 73
1 74
1 75
1 76
1 77
1 78
1 79
1 80
1 81
1 82
1 83
1 84
1 85
1 86
1 87
1 88
1 89
1 90
1 91
1 92
1 93
1 94
1 95
1 96
1 97
1 98
1 99
1 100
1 101
1 102
1 103
1 104
1 105
1 106
1 107
1 108
1 109
1 110
1 111
1 112
1 113
1 114
1 115
1 116
1 117
1 118
1 119
1 120
1 121
1 122
1 123
1 124
1 125
1 126
1 127
1 128
1 129
1 130
1 131
1 132
1 133
1 134
1 135
1 136
1 137
1 138
1 139
1 140
1 141
1 142
1 143
1 144
1 145
1 146
1 147
1 148
1 149
1 150
1 151
1 152
1 153
1 154
1 155
1 156
1 157
1 158
1 159
1 160
1 161
1 162
1 163
1 164
1 165
1 166
1 167
1 168
1 169
1 170
1 171
1 172
1 173
1 174
1 175
1 176
1 177
1 178
1 179
1 180
1 181
1 182
1 183
1 184
1 185
1 186
1 187
1 188
1 189
1 190
1 191
1 192
1 193
1 194
1 195
1 196
1 197
1 198
1 199
1 200
1 201
1 202
1 203
1 204
1 205
1 206
1 207
1 208
1 209
1 210
1 211
1 212
1 213
1 214
1 215
1 216
1 217
1 218
1 219
1 220
1 221
1 222
1 223
1 224
1 225
1 226
1 227
1 228
1 229
1 230
1 231
1 232
1 233
1 234
1 235
1 236
1 237
1 238
1 239
1 240
1 241
1 242
1 243
1 244
1 245
1 246
1 247
1 248
1 249
1 250
1 251
1 252
1 253
1 254
1 255
1 256
1 257
1 258
1 259
1 260
1 261
1 262
1 263
1 264
1 265
1 266
1 267
1 268
1 269
1 270

POINT_DATA 271
SCALARS id int 1
LOOKUP_TABLE default
1
2
3
4
5
6
7
8
9
10
11
12
13
14
15
16
17
19
21
22
23
24
25
26
27
28
29
30
31
32
33
34
35
36
37
38
39
41
42
44
45
47
48
50
51
52
53
54
55
56
57
59
61
62
63
64
65
66
67
68
69
70
71
72
73
74
76
77
78
79
80
81
82
83
84
85
86
87
88
89
90
91
92
93
94
95
96
97
98
99
100
101
102
103
104
105
106
107
108
109
110
111
112
113
114
115
116
117
118
119
120
121
122
123
124
125
126
127
128
129
131
132
133
134
135
136
137
138
140
141
142
143
144
147
148
149
150
151
153
154
155
156
157
158
159
160
162
164
165
166
168
169
170
171
172
173
174
175
177
178
179
181
182
183
184
186
187
188
189
190
191
192
193
194
195
196
197
198
199
201
202
203
204
205
206
207
208
209
210
211
212
213
214
215
216
217
218
219
220
221
222
223
224
225
226
227
228
229
230
231
232
234
235
236
237
239
240
241
242
244
246
247
248
249
250
251
252
253
254
255
256
257
258
259
261
262
263
264
265
266
267
268
269
270
271
272
273
274
275
276
277
278
280
283
284
285
286
287
288
289
290
291
292
293
294
295
296
297
298
299
300

SCALARS type int 1
LOOKUP_TABLE default
1
1
1
1
1
1
1
1
1
1
1
1
1
1
1
1
1
1
1
1
1
1
1
1
1
1
1
1
1
1
1
1
1
1
1
1
1
1
1
1
1
1
1
1
1
1
1
1
1
1
1
1
1
1
1
1
1
1
1
1
1
1
1
1
1
1
1
1
1
1
1
1
1
1
1
1
1
1
1
1
1
1
1
1
1
1
1
1
1
1
1
1
1
1
1
1
1
1
1
1
1
1
1
1
1
1
1
1
1
1
1
1
1
1
1
1
1
1
1
1
1
1
1
1
1
1
1
1
1
1
1
1
1
1
1
1
1
1
1
1
1
1
1
1
1
1
1
1
1
1
1
1
1
1
1
1
1
1
1
1
1
1
1
1
1
1
1
1
1
1
1
1
1
1
1
1
1
1
1
1
1
1
1
1
1
1
1
1
1
1
1
1
1
1
1
1
1
1
1
1
1
1
1
1
1
1
1
1
1
1
1
1
1
1
1
1
1
1
1
1
1
1
1
1
1
1
1
1
1
1
1
1
1
1
1
1
1
1
1
1
1
1
1
1
1
1
1
1
1
1
1
1
1
1
1
1
1
1
1
1
1
1
1
1
1
1
1
1
1
1
1

SCALARS radius float 1
LOOKUP_TABLE default
5e-05
5e-05
5e-05
5e-05
5e-05
5e-05
5e-05
5e-05
5e-05
5e-05
5e-05
5e-05
5e-05
5e-05
5e-05
5e-05
5e-05
5e-05
5e-05
5e-05
5e-05
5e-05
5e-05
5e-05
5e-05
5e-05
5e-05
5e-05
5e-05
5e-05
5e-05
5e-05
5e-05
5e-05
5e-05
5e-05
5e-05
5e-05
5e-05
5e-05
5e-05
5e-05
5e-05
5e-05
5e-05
5e-05
5e-05
5e-05
5e-05
5e-05
5e-05
5e-05
5e-05
5e-05
5e-05
5e-05
5e-05
5e-05
5e-05
5e-05
5e-05
5e-05
5e-05
5e-05
5e-05
5e-05
5e-05
5e-05
5e-05
5e-05
5e-05
5e-05
5e-05
5e-05
5e-05
5e-05
5e-05
5e-05
5e-05
5e-05
5e-05
5e-05
5e-05
5e-05
5e-05
5e-05
5e-05
5e-05
5e-05
5e-05
5e-05
5e-05
5e-05
5e-05
5e-05
5e-05
5e-05
5e-05
5e-05
5e-05
5e-05
5e-05
5e-05
5e-05
5e-05
5e-05
5e-05
5e-05
5e-05
5e-05
5e-05
5e-05
5e-05
5e-05
5e-05
5e-05
5e-05
5e-05
5e-05
5e-05
5e-05
5e-05
5e-05
5e-05
5e-05
5e-05
5e-05
5e-05
5e-05
5e-05
5e-05
5e-05
5e-05
5e-05
5e-05
5e-05
5e-05
5e-05
5e-05
5e-05
5e-05
5e-05
5e-05
5e-05
5e-05
5e-05
5e-05
5e-05
5e-05
5e-05
5e-05
5e-05
5e-05
5e-05
5e-05
5e-05
5e-05
5e-05
5e-05
5e-05
5e-05
5e-05
5e-05
5e-05
5e-05
5e-05
5e-05
5e-05
5e-05
5e-05
5e-05
5e-05
5e-05
5e-05
5e-05
5e-05
5e-05
5e-05
5e-05
5e-05
5e-05
5e-05
5e-05
5e-05
5e-05
5e-05
5e-05
5e-05
5e-05
5e-05
5e-05
5e-05
5e-05
5e-05
5e-05
5e-05
5e-05
5e-05
5e-05
5e-05
5e-05
5e-05
5e-05
5e-05
5e-05
5e-05
5e-05
5e-05
5e-05
5e-05
5e-05
5e-05
5e-05
5e-05
5e-05
5e-05
5e-05
5e-05
5e-05
5e-05
5e-05
5e-05
5e-05
5e-05
5e-05
5e-05
5e-05
5e-05
5e-05
5e-05
5e-05
5e-05
5e-05
5e-05
5e-05
5e-05
5e-05
5e-05
5e-05
5e-05
5e-05
5e-05
5e-05
5e-05
5e-05
5e-05
5e-05
5e-05
5e-05
5e-05
5e-05
5e-05
5e-05
5e-05
5e-05
5e-05
5e-05
5e-05
5e-05
5e-05
5e-05
5e-05
5e-05
5e-05
5e-05
5e-05
5e-05
5e-05
5e-05
5e-05
5e-05

SCALARS mass float 1
LOOKUP_TABLE default
1.46608e-10
1.46608e-10
1.46608e-10
1.46608e-10
1.46608e-10
1.46608e-10
1.46608e-10
1.46608e-10
1.46608e-10
1.46608e-10
1.46608e-10
1.46608e-10
1.46608e-10
1.46608e-10
1.46608e-10
1.46608e-10
1.46608e-10
1.46608e-10
1.46608e-10
1.46608e-10
1.46608e-10
1.46608e-10
1.46608e-10
1.46608e-10
1.46608e-10
1.46608e-10
1.46608e-10
1.46608e-10
1.46608e-10
1.46608e-10
1.46608e-10
1.46608e-10
1.46608e-10
1.46608e-10
1.46608e-10
1.46608e-10
1.46608e-10
1.46608e-10
1.46608e-10
1.46608e-10
1.46608e-10
1.46608e-10
1.46608e-10
1.46608e-10
1.46608e-10
1.46608e-10
1.46608e-10
1.46608e-10
1.46608e-10
1.46608e-10
1.46608e-10
1.46608e-10
1.46608e-10
1.46608e-10
1.46608e-10
1.46608e-10
1.46608e-10
1.46608e-10
1.46608e-10
1.46608e-10
1.46608e-10
1.46608e-10
1.46608e-10
1.46608e-10
1.46608e-10
1.46608e-10
1.46608e-10
1.46608e-10
1.46608e-10
1.46608e-10
1.46608e-10
1.46608e-10
1.46608e-10
1.46608e-10
1.46608e-10
1.46608e-10
1.46608e-10
1.46608e-10
1.46608e-10
1.46608e-10
1.46608e-10
1.46608e-10
1.46608e-10
1.46608e-10
1.46608e-10
1.46608e-10
1.46608e-10
1.46608e-10
1.46608e-10
1.46608e-10
1.46608e-10
1.46608e-10
1.46608e-10
1.46608e-10
1.46608e-10
1.46608e-10
1.46608e-10
1.46608e-10
1.46608e-10
1.46608e-10
1.46608e-10
1.46608e-10
1.46608e-10
1.46608e-10
1.46608e-10
1.46608e-10
1.46608e-10
1.46608e-10
1.46608e-10
1.46608e-10
1.46608e-10
1.46608e-10
1.46608e-10
1.46608e-10
1.46608e-10
1.46608e-10
1.46608e-10
1.46608e-10
1.46608e-10
1.46608e-10
1.46608e-10
1.46608e-10
1.46608e-10
1.46608e-10
1.46608e-10
1.46608e-10
1.46608e-10
1.46608e-10
1.46608e-10
1.46608e-10
1.46608e-10
1.46608e-10
1.46608e-10
1.46608e-10
1.46608e-10
1.46608e-10
1.46608e-10
1.46608e-10
1.46608e-10
1.46608e-10
1.46608e-10
1.46608e-10
1.46608e-10
1.46608e-10
1.46608e-10
1.46608e-10
1.46608e-10
1.46608e-10
1.46608e-10
1.46608e-10
1.46608e-10
1.46608e-10
1.46608e-10
1.46608e-10
1.46608e-10
1.46608e-10
1.46608e-10
1.46608e-10
1.46608e-10
1.46608e-10
1.46608e-10
1.46608e-10
1.46608e-10
1.46608e-10
1.46608e-10
1.46608e-10
1.46608e-10
1.46608e-10
1.46608e-10
1.46608e-10
1.46608e-10
1.46608e-10
1.46608e-10
1.46608e-10
1.46608e-10
1.46608e-10
1.46608e-10
1.46608e-10
1.46608e-10
1.46608e-10
1.46608e-10
1.46608e-10
1.46608e-10
1.46608e-10
1.46608e-10
1.46608e-10
1.46608e-10
1.46608e-10
1.46608e-10
1.46608e-10
1.46608e-10
1.46608e-10
1.46608e-10
1.46608e-10
1.46608e-10
1.46608e-10
1.46608e-10
1.46608e-10
1.46608e-10
1.46608e-10
1.46608e-10
1.46608e-10
1.46608e-10
1.46608e-10
1.46608e-10
1.46608e-10
1.46608e-10
1.46608e-10
1.46608e-10
1.46608e-10
1.46608e-10
1.46608e-10
1.46608e-10
1.46608e-10
1.46608e-10
1.46608e-10
1.46608e-10
1.46608e-10
1.46608e-10
1.46608e-10
1.46608e-10
1.46608e-10
1.46608e-10
1.46608e-10
1.46608e-10
1.46608e-10
1.46608e-10
1.46608e-10
1.46608e-10
1.46608e-10
1.46608e-10
1.46608e-10
1.46608e-10
1.46608e-10
1.46608e-10
1.46608e-10
1.46608e-10
1.46608e-10
1.46608e-10
1.46608e-10
1.46608e-10
1.46608e-10
1.46608e-10
1.46608e-10
1.46608e-10
1.46608e-10
1.46608e-10
1.46608e-10
1.46608e-10
1.46608e-10
1.46608e-10
1.46608e-10
1.46608e-10
1.46608e-10
1.46608e-10
1.46608e-10
1.46608e-10
1.46608e-10
1.46608e-10
1.46608e-10
1.46608e-10
1.46608e-10
1.46608e-10
1.46608e-10
1.46608e-10
1.46608e-10
1.46608e-10
1.46608e-10
1.46608e-10
1.46608e-10
1.46608e-10

VECTORS velocity float
0.00590341 -0.000344709 0.000461604
0.0054256 -0.000405437 0.000232789
0.00946211 0.00129189 -0.00272349
0.00526503 -0.000347376 0.000179941
0.00571987 -0.000413216 0.000339391
0.00591729 0.000763926 -0.000155894
0.00599793 -0.000287946 0.000492622
0.00558318 -0.000399362 0.000328357
0.00559337 0.00038819 -0.000346029
0.00547438 -0.00043238 8.44647e-06
0.0054778 -0.000314711 0.000142125
0.00594558 0.000929505 0.000650156
0.00557974 -9.08831e-05 0.000666882
0.00648455 0.00110304 -0.000301236
0.00525343 -0.000391325 2.7592e-05
0.00654623 0.00101985 -0.000286189
0.00534711 -0.000367234 0.000239356
0.00555949 -0.000218012 0.000520186
0.00541016 -0.000464712 2.231e-05
0.00527545 -0.000356022 -5.34999e-05
0.00586244 0.00096909 0.000614188
0.00573492 0.000376131 -0.000341518
0.00601262 -0.000278189 0.000484041
0.00576321 0.000786475 -0.000173349
0.0207461 0.0312185 -0.0248721
0.00546206 -0.000398041 0.000223658
0.00600076 -0.000283368 0.000488283
0.00553364 -0.000300886 0.000220075
0.00601553 -0.000278561 0.000484434
0.00569558 -0.000423044 3.62333e-06
0.0059336 0.00076145 -0.000153827
0.0059901 -0.000293702 0.000496568
0.00541869 -0.000273407 -3.44798e-05
0.00568809 0.000379622 -0.000344127
0.00595768 -0.000450246 0.000256695
0.00603335 -0.00049279 0.000266052
0.00575417 0.000363722 -0.000341481
0.00541106 -0.000390862 0.000230863
4.59679e-16 2.25494e-15 8.4636e-14
0.0053887 -0.000378367 0.000230876
0.00570687 0.000798422 -0.000181659
0.00598092 -0.000306455 0.000510997
0.00600801 -0.000546834 0.000273861
0.00600452 -0.0002777 0.000484005
0.00600732 -0.000277465 0.000483708
0.00608285 0.000910594 0.000686008
0.00565231 0.000374191 -0.000342193
0.00548961 -0.000406201 0.000235761
0.00576926 -7.78168e-05 -0.000665034
0.00597051 -0.000522398 0.000268645
0.00573437 0.000791837 -0.000177173
0.00529606 -0.000325898 -1.72735e-05
0.00567874 -0.000161263 0.00036192
0.00597293 -0.000531458 0.000270349
0.00526339 -0.000389263 -4.20811e-06
0.00580168 0.000537884 5.80507e-05
0.00966006 0.00269996 -0.00130458
0.00576294 -7.91964e-05 -0.000664974
0.00556145 -0.000392466 0.000234631
0.00560479 -0.000328141 -2.29689e-05
0.00549405 -0.000384864 0.000231627
0.0055589 0.000392215 -0.000348052
0.00559073 0.000967865 0.0005615
0.00549468 -0.000394776 0.00023381
0.00600242 -0.000552597 0.00027437
0.00597518 -0.000496175 0.000264789
0.00642923 0.00101724 -0.000277185
0.00530408 -0.00037047 -2.84656e-06
0.00644033 0.00106255 -0.00029562
0.00601477 0.000918977 0.000668541
0.00557395 -0.000457334 0.000246514
0.00653226 0.00102643 -0.000282155
0.00591171 0.000934581 0.000641076
0.00635099 0.00101454 -0.000279771
0.00563472 0.000382619 -0.000344039
0.0056728 -0.000616916 0.000183459
0.00546487 -0.000425109 0.000237355
0.00601189 -0.000508264 0.000267793
0.00576919 -0.000260282 0.000457089
0.00597896 -0.000499751 0.000265342
0.00549234 -0.000345739 0.000215474
0.0132675 0.0318355 -0.00476735
0.00591496 -0.000474412 0.000259331
0.0060302 -0.00028257 0.000491624
0.00546545 -0.000402071 -0.000131262
0.00544879 -0.000361195 -1.07644e-05
0.00603623 -0.000278888 0.000500016
0.00584471 0.000990019 0.000600067
0.00543279 -0.000350055 0.000123304
0.00874979 0.00752373 -0.00673108
0.00596387 -0.00051572 0.000267563
0.00598038 0.000924274 0.000659455
4.19591e-15 1.05453e-14 8.29578e-14
1.6328e-22 4.86658e-23 1.23839e-22
0.0059769 0.000579719 -0.00155059
0.00623268 0.0137014 -0.0103504
0.00636745 0.0122102 -0.009384
0.00580882 0.000993913 0.00059115
0.00594398 -0.000495285 0.000262444
0.00528292 -0.000364155 -5.14569e-06
0.00601138 -0.000285347 0.000486903
0.00535764 -0.000392598 2.03295e-06
0.00630352 0.00102827 -0.000288011
0.00623856 0.000425097 -0.001512
0.00638501 0.00103713 -0.000285357
0.00534719 -0.000415712 3.25607e-05
0.00549088 -0.000416157 0.000236591
0.00608156 -0.000480404 0.000265446
0.00578515 0.000803036 -0.00167019
0.0052699 -0.000374372 -2.80727e-06
0.00600178 -0.00027886 0.000484629
0.00598434 -0.000300297 0.000502409
0.00553896 -0.000386296 -6.16911e-06
0.00591364 0.00083711 -0.00172186
0.00538533 -0.000381905 -2.89091e-06
0.00607559 -0.000493387 0.000267421
0.00565074 -0.000151177 0.000354668
0.00823784 0.0264108 -0.0192077
0.00562715 -0.000414079 -7.31459e-07
0.00551621 -0.000315539 0.00022609
0.022021 0.0207176 -0.0181311
0.00546641 -0.00035922 0.000229021
0.00547859 -0.000423167 1.38481e-05
0.0056769 -0.000434643 6.39906e-06
0.00557398 -9.1909e-05 0.000662062
0.00656862 0.00114291 -0.000313171
0.00601246 -0.000280177 0.000485861
0.00550559 -0.000381271 0.000232321
0.00533898 -0.000362082 -1.50539e-05
0.00629656 0.00101406 -0.000279632
0.00603317 0.000778651 -0.00170547
0.00565774 0.000377607 -3.16895e-05
0.00597885 0.000571996 -0.00153466
0.00645818 0.00102814 -0.000280654
0.00582458 0.000972891 0.000612424
0.00564403 -0.00024608 0.000438923
8.38439e-15 1.24719e-15 -8.48744e-14
0.00659018 0.000535797 -0.00165375
0.00662825 0.00118275 0.000431134
0.00579 0.000709133 -0.00161305
0.00575955 0.00095064 0.000602174
0.00618286 0.000683828 -0.00123539
-3.83404e-14 8.1667e-14 2.95887e-13
0.00635171 0.000977842 -0.000267261
0.00598835 -0.000526862 0.000270158
0.00590638 0.000595571 -0.00156712
0.00659735 0.00107464 -0.000266307
0.00755221 0.0102616 -0.00831986
0.00590411 0.000533133 -0.00159139
0.0059701 -0.000539038 0.000270846
0.00788112 0.0249978 -0.0181966
0.0244404 0.0390009 -0.024672
0.00624018 0.00141399 -0.00217035
0.0055318 -0.000286832 0.000281732
0.00588726 0.000556912 -0.00156421
0.00549098 -0.000424277 0.000237689
0.00661455 0.00110814 -0.00115255
0.00533109 -0.00115453 0.00106439
0.00773872 0.00106145 -0.00223477
0.00551694 0.00053738 -0.0014443
0.00576288 0.000701559 -0.00160176
0.00638634 0.000940149 -0.000256202
0.00553371 -0.000375343 -6.43722e-06
0.0149471 0.029898 -0.0228508
0.00544452 -0.00036197 -9.53352e-06
0.00659406 0.000474109 -0.00161393
0.00545282 -0.000462233 1.95173e-05
0.00566446 -0.00035511 -1.49977e-05
0.00549476 -0.000380011 0.00023207
0.00561916 -0.00122089 0.00112295
0.00531455 -0.000415464 7.66493e-06
0.00595704 0.000587907 -0.00155521
0.00527511 -0.000399628 -8.02586e-06
1.61248e-15 -1.10025e-14 8.66682e-14
0.00634519 0.000960144 -0.000260257
0.00582929 0.000971092 0.000607043
0.00517048 -0.0011346 0.00103574
0.00660018 0.00113509 -0.000363681
0.00633056 0.00102721 -0.00027751
0.00626331 0.000467545 -0.00155311
0.00631474 0.00104068 -0.0002744
0.00596535 -0.000295626 0.000462986
0.00604872 0.000914336 0.000677486
0.00601282 0.00063705 -0.000171018
0.00575589 0.000975269 0.000590454
0.0120685 0.0381007 -0.0277457
0.00596627 0.000576197 -0.001585
0.0057859 -0.00115327 0.00111574
0.00544516 -0.000450832 1.69411e-05
0.00558237 -0.000474992 2.01477e-05
0.0062933 0.00102872 -0.000290621
0.00549818 -0.000397621 0.000233592
0.00559579 -0.000339036 0.000301538
0.00562968 -0.00121066 0.00112432
0.00618611 0.000853143 -0.000866091
0.00604157 -0.000497334 0.000266585
0.00587651 0.000939265 0.000632053
0.00593341 -0.000367453 0.000378141
0.00620982 0.000990335 -0.000273377
0.00537593 -0.00064626 0.000322822
0.00564469 -0.000409063 0.000240746
0.00596149 0.000616408 -0.00157635
-1.73669e-07 -0.0211493 0.01135
0.00533925 -0.000374283 -5.04777e-06
0.00636466 0.000626912 -0.00167596
0.00548105 -0.00123167 0.00110579
0.00517297 -0.00113023 0.00103503
0.0064092 0.000968564 -0.000263131
0.00875302 0.00752009 -0.00673076
0.00533306 -0.00115507 0.00106484
0.00629656 0.0010409 -0.000300572
0.0055095 -0.000355136 0.000230274
0.011142 0.03247 -0.0238141
0.00660531 0.000680427 0.000500568
0.00573625 0.000949677 0.00060043
0.00574015 -0.000660453 0.00148226
0.00566551 -0.000647755 0.00146263
0.00554748 -0.00129686 0.000982107
0.00582404 0.000846027 -0.00171055
0.00550157 -0.000629313 0.0014316
0.0053369 -0.00115795 0.00106562
0.00639686 0.000949763 -0.000259278
0.0140527 0.0157097 -0.0132268
0.0055923 -0.00120982 0.00111485
0.00573644 0.000963337 0.000590423
0.00591975 -0.000340916 0.00040226
0.00520205 -0.00113997 0.00104244
0.0056659 -0.00121509 0.00112962
0.00533156 -0.00116194 0.0010657
0.00601159 0.00072689 -0.00127486
0.0059169 0.00067823 -0.00161947
0.00498614 0.000739989 -0.00147478
0.00589033 0.000681937 -0.00161491
0.00517023 -0.00114361 0.00103832
0.00642256 0.000394396 -0.00152559
0.00577071 0.000945893 0.000607927
0.0053376 -0.00116928 0.00107208
0.00670235 0.000821517 0.000246286
0.00516384 -0.00113081 0.00103402
0.00580265 0.000640535 -0.00156874
0.00579115 0.000970536 0.000599783
0.00634778 0.000380793 -0.00150674
0.0266469 0.0214052 -0.0194999
0.00560918 -0.000412959 0.00012252
0.00646498 0.000928862 -0.000254387
0.00550503 -0.001212 0.00110328
0.00584109 0.000942437 0.000624202
0.00532254 -0.00117746 0.00106888
0.00597791 0.000920227 -1.33162e-05
0.006521 0.000423143 -0.0015664
0.00582188 0.000721442 -0.00162671
0.00636323 0.00089434 -0.000243423
0.00554954 -0.00121354 0.00111201
0.00572894 -0.000652439 0.00147726
0.0145471 0.0133991 -0.0117862
0.0130321 0.00536179 -0.0061363
0.00633543 0.000993027 -0.000275916
0.005544 0.000731658 -0.0015789
0.0159005 0.029534 -0.0227963
0.00590911 0.000980574 0.000617078
0.00642493 0.00101343 -0.000278535
0.00544834 0.000661622 -0.00151307
0.00614928 0.000920667 -0.000691284
0.00586924 0.000789879 -0.000214701
0.00580649 0.000945058 0.000615904
0.00552595 -0.00125143 0.00111848
0.00570042 0.000954015 0.000591675
0.0054969 -0.000406518 0.000236465
0.00558023 -0.00122986 0.00103618
0.00518691 -0.00113583 0.00103919
0.0056328 -0.000461766 2.85605e-05

VECTORS force float
4.41952e-11 1.50082e-10 -8.12429e-11
-4.09666e-11 1.04092e-10 3.80682e-11
-3.71767e-10 5.69396e-10 -3.05867e-10
1.25918e-10 -4.64337e-10 3.15554e-10
-2.24475e-11 1.12575e-10 -7.45615e-11
3.49841e-13 -9.70219e-13 -1.58931e-12
1.26329e-10 3.72031e-11 -2.8914e-11
-5.09834e-11 4.17329e-11 -6.64522e-11
-2.23274e-11 -8.26554e-12 2.31533e-12
-1.95376e-10 -4.32155e-10 1.25997e-10
-1.28222e-10 8.10586e-11 1.20093e-10
5.86279e-12 2.14517e-11 -8.94461e-12
-7.59545e-11 -9.10263e-11 7.5947e-11
-8.82681e-11 1.72643e-10 -1.93888e-10
7.9588e-10 -6.03037e-10 4.81285e-10
-3.44154e-10 -4.43748e-11 3.31367e-11
-5.16662e-11 4.29228e-11 1.54709e-10
-8.04493e-12 3.64248e-11 2.79272e-11
5.55553e-10 -5.71396e-10 1.54393e-10
3.87216e-10 -1.35685e-10 -2.57496e-10
-1.19228e-11 -2.43114e-12 -8.75035e-13
8.65581e-11 2.31453e-11 -3.8238e-11
-7.43917e-11 -2.72002e-11 1.97783e-11
-8.36613e-13 -7.22888e-12 3.6514e-12
-8.14353e-11 2.36258e-10 -1.41275e-10
-1.02095e-10 4.02593e-10 -2.60526e-10
4.25734e-11 2.47729e-11 -1.99891e-11
6.095e-11 -3.46056e-10 5.68649e-11
5.91414e-12 -1.95969e-11 2.2051e-11
2.71521e-10 -2.21987e-10 7.16713e-11
4.18239e-13 -1.82769e-12 2.90317e-12
5.57205e-11 8.30625e-11 -7.8757e-11
1.45965e-11 -2.90516e-10 8.27708e-11
-1.81593e-10 -8.57394e-11 1.40666e-11
1.99346e-12 2.44274e-10 -3.0646e-11
4.51385e-11 -7.87609e-11 1.13756e-11
-2.16691e-11 4.28516e-11 -3.53891e-11
5.67725e-11 4.19316e-10 8.73742e-11
4.77034e-23 -1.40362e-23 2.06795e-25
1.08348e-10 2.7352e-10 -1.25331e-10
-1.11116e-12 -9.99314e-13 6.45289e-13
3.80313e-11 1.40386e-10 -1.13516e-10
-9.18972e-11 -1.30902e-10 2.02979e-11
-1.10852e-11 2.079e-11 -2.24143e-11
-1.1047e-11 -1.62221e-12 4.16857e-12
-1.45285e-11 2.75147e-12 9.30888e-12
1.56717e-10 -3.66682e-11 4.57581e-11
-2.02862e-10 -3.77875e-11 -8.96528e-12
2.96086e-11 -4.10435e-11 6.3302e-11
1.86887e-11 -2.27554e-10 3.31905e-11
4.65533e-12 7.01634e-12 -3.462e-12
9.58893e-10 -6.97297e-10 -1.7593e-11
1.63643e-10 6.29133e-11 -5.0856e-11
5.99286e-11 -2.40927e-10 4.1913e-11
4.74202e-10 -1.77848e-10 3.52617e-11
2.90636e-11 2.39875e-12 -2.10198e-11
9.77311e-11 2.47333e-11 -2.12095e-10
8.0239e-11 6.21607e-12 5.43762e-11
-1.84742e-10 -6.25121e-11 5.29046e-12
2.42193e-10 5.52711e-11 -3.36573e-11
-6.96509e-11 4.30688e-11 -4.66264e-12
-6.62082e-12 -2.07583e-11 1.26783e-11
-1.65097e-11 1.07256e-11 5.35589e-12
1.5411e-10 -3.75779e-11 1.60056e-11
3.61201e-12 -5.35293e-11 9.62476e-12
7.90931e-11 -3.41847e-11 8.15387e-12
-2.40985e-10 1.0157e-10 4.57136e-11
3.64739e-10 4.32437e-12 -8.03735e-12
3.29193e-10 3.08595e-10 1.00347e-11
3.54616e-12 3.27568e-13 1.08498e-13
-5.70766e-12 -1.34526e-10 2.78374e-11
-3.19386e-10 9.00343e-12 1.13799e-10
5.03995e-12 2.39382e-11 -1.14233e-11
-5.25909e-10 -1.55109e-10 7.58772e-11
4.56829e-11 2.03529e-11 3.49913e-12
-6.90595e-10 4.5275e-10 -1.27026e-10
1.35704e-10 3.43744e-10 -1.11802e-10
7.57399e-11 -3.10781e-11 1.03184e-11
-3.45469e-11 -8.09083e-11 7.94922e-11
9.19751e-11 -4.84706e-12 4.20262e-12
-2.03016e-10 1.29867e-10 -3.00198e-11
0.0 0.0 -1.43822e-09
-6.92369e-11 3.37002e-11 -5.23337e-12
2.35159e-12 7.29572e-11 -3.04752e-11
2.73469e-10 6.95348e-11 3.28329e-10
-4.44524e-10 1.64745e-11 -1.71767e-11
1.90083e-11 9.05704e-11 1.11065e-11
-4.99734e-12 4.02643e-11 -2.15136e-11
6.15591e-11 4.00239e-12 1.74803e-10
4.86866e-11 1.09411e-10 -8.80698e-11
-2.91694e-11 -3.60278e-12 -1.45577e-12
4.48458e-12 1.07646e-11 -6.12228e-12
-1.87663e-21 7.9324e-22 -1.24077e-23
0.0 0.0 0.0
6.72016e-10 5.29246e-11 -1.44125e-10
-1.04875e-11 2.03103e-10 -1.3317e-10
-3.45993e-11 2.13307e-10 -1.35216e-10
7.19401e-12 3.49013e-12 3.44095e-12
-1.66331e-11 1.07769e-10 -3.79503e-11
3.78521e-10 -2.12835e-10 6.95029e-12
-2.52849e-11 7.00783e-11 2.94936e-11
6.23528e-10 -8.40874e-10 2.39652e-10
-9.10307e-11 -1.73901e-10 -4.30269e-10
-4.96127e-10 2.88776e-10 -5.49139e-11
-5.60428e-11 2.68007e-10 3.61838e-11
3.0669e-10 2.55137e-10 2.48392e-11
3.64424e-11 -2.8912e-10 5.16674e-11
-2.91031e-11 -1.80698e-10 2.82334e-11
2.3803e-10 1.15388e-09 -7.71071e-10
4.04024e-10 -7.22366e-11 -9.33339e-11
-4.63272e-11 -3.53993e-12 -3.10782e-12
-1.19142e-11 1.23899e-10 -1.18325e-10
3.30884e-11 -1.63087e-10 5.86434e-11
2.2461e-09 -6.28528e-10 1.74508e-11