# vtk DataFile Version 3.0
LIGGGHTS particles timestep 38800000
ASCII
DATASET POLYDATA
POINTS 271 float
0.238758 0.0155706 0.00854582
0.239552 0.0180237 0.00696708
0.23382 0.0183492 0.00697103
0.239627 0.0179581 0.00697889
0.238738 0.0155107 0.00862351
0.24513 0.017011 0.0075583
0.238837 0.0158125 0.00823735
0.238719 0.0154509 0.00870119
0.245255 0.0174636 0.0071855
0.239261 0.0174879 0.00710103
0.239396 0.0177033 0.00702821
0.232859 0.0159803 0.00826447
0.238659 0.0152714 0.00893413
0.233524 0.0187637 0.00684842
0.239607 0.0178618 0.00699709
0.233618 0.0187933 0.00682962
0.239721 0.0179923 0.00697186
0.238699 0.015391 0.00877891
0.239224 0.0173175 0.00719909
0.239375 0.0176067 0.00704646
0.233083 0.0163981 0.00769856
0.245329 0.0178069 0.00703426
0.238895 0.0160311 0.00804089
0.245214 0.0173129 0.00730959
0.233883 0.0187921 0.00683032
0.239512 0.017831 0.0070035
0.238854 0.0158818 0.00816734
0.239372 0.0177924 0.00709935
0.238913 0.0161022 0.00797303
0.239358 0.0171194 0.00731515
0.245151 0.0170865 0.00749612
0.238817 0.0157501 0.00831286
0.239527 0.0174887 0.00710364
0.245309 0.017709 0.00703106
0.239401 0.0181539 0.00694363
0.239567 0.0184921 0.00691711
0.24535 0.0179047 0.00703745
0.239741 0.0180886 0.00695366
0.321436 0.0173475 0.00552525
0.239532 0.0179272 0.0069853
0.245172 0.017162 0.00743394
0.238778 0.0156303 0.00846832
0.239546 0.018393 0.00690603
0.238952 0.0162492 0.00784321
0.238933 0.0161758 0.00790819
0.23279 0.015786 0.00860495
0.245298 0.0176143 0.00706132
0.239512 0.0181534 0.00702333
0.232725 0.0156311 0.00885365
0.239421 0.0182506 0.00692764
0.245193 0.0172375 0.00737176
0.239356 0.0175164 0.00708565
0.239224 0.0169182 0.0074299
0.239697 0.0182611 0.00692307
0.239702 0.0178927 0.00699066
0.24537 0.0180025 0.00704065
0.233031 0.0165531 0.00764113
0.232702 0.0155799 0.00893649
0.239477 0.018089 0.00695532
0.239395 0.0172898 0.00721708
0.239481 0.0182769 0.00700342
0.245241 0.0173872 0.0072484
0.232769 0.0157344 0.00868814
0.239362 0.0179612 0.00698004
0.239461 0.0184451 0.00690298
0.239526 0.0182954 0.00691634
0.233769 0.0186669 0.00686402
0.23945 0.0175453 0.00707004
0.233505 0.0186708 0.00688047
0.232822 0.0158855 0.00843472
0.239665 0.0181544 0.00694181
0.233637 0.0188898 0.00681097
0.232873 0.0160222 0.0081748
0.233563 0.0185155 0.00693097
0.245275 0.0175393 0.00712314
0.233838 0.0184414 0.00693686
0.23976 0.018185 0.00693545
0.239642 0.0184259 0.00691792
0.239124 0.0169114 0.0074327
0.239621 0.0183272 0.00690968
0.239416 0.0177995 0.00701003
0.233861 0.0186274 0.00686894
0.239507 0.018199 0.00693447
0.238992 0.0164077 0.00772808
0.239465 0.0178305 0.00709171
0.239317 0.0175203 0.00717759
0.239014 0.0164899 0.00767541
0.233149 0.0166749 0.00759894
0.239492 0.0177349 0.00702224
0.233257 0.017136 0.00743872
0.239602 0.0182303 0.00692798
0.232853 0.0159308 0.00835117
0.0643568 0.0187248 0.00531097
0.24257 0.0191927 0.00520306
0.233469 0.0180541 0.00710215
0.233825 0.0189594 0.00679783
0.233783 0.0181648 0.00703936
0.233763 0.018064 0.00707673
0.239492 0.0184062 0.00698945
0.239682 0.0177964 0.00700887
0.239036 0.0165743 0.00762657
0.239338 0.0174311 0.00713473
0.233526 0.0183308 0.00699941
0.233117 0.0169216 0.00751163
0.233487 0.0185784 0.0069142
0.239587 0.0177655 0.00701528
0.239399 0.0181376 0.00704227
0.2395 0.01864 0.0069246
0.233334 0.0178429 0.00718867
0.239546 0.0175738 0.00705466
0.238874 0.0159539 0.00810105
0.238796 0.0156906 0.0083905
0.239299 0.0172601 0.00723315
0.23329 0.0176594 0.0072553
0.239319 0.0173461 0.00718369
0.239586 0.0185895 0.0069279
0.239245 0.0170028 0.00738125
0.233733 0.018922 0.00680491
0.239277 0.0171739 0.00728272
0.239321 0.0177688 0.0070164
0.233802 0.018257 0.00700519
0.239437 0.0178958 0.00699183
0.239281 0.0175797 0.0070666
0.239265 0.0170878 0.00733232
0.238679 0.0153312 0.00885648
0.233542 0.0188569 0.00681717
0.238972 0.0163271 0.00778382
0.239495 0.0179752 0.00706466
0.239471 0.0176391 0.00704226
0.233545 0.0184232 0.00696514
0.233269 0.0175671 0.00728734
0.232748 0.0156823 0.00877078
0.233394 0.018118 0.00708516
0.233599 0.0186999 0.00686284
0.233353 0.0171645 0.00742732
0.239144 0.0169963 0.00738386
0.0100679 0.0201683 0.00551526
0.233225 0.0173827 0.00735142
0.23358 0.0190494 0.00681858
0.233354 0.0179343 0.00715385
0.233584 0.0177088 0.0072164
0.233507 0.0182383 0.00703374
0.0219312 0.0187687 0.00551176
0.233751 0.0185739 0.00689616
0.239716 0.0183591 0.00691861
0.233374 0.0180259 0.00711919
0.233659 0.0189893 0.00680652
0.233214 0.0169515 0.00750281
0.233565 0.0180839 0.0070844
0.239441 0.0183478 0.00691591
0.233279 0.0172282 0.00740668
0.233713 0.0188254 0.00682357
0.233664 0.0180792 0.00707868
0.239386 0.0179087 0.00707673
0.233545 0.0179918 0.00711862
0.239645 0.018058 0.00696003
0.233605 0.0178034 0.0071812
0.227211 0.0173322 0.00739858
0.233396 0.0173475 0.00735901
0.233322 0.0174124 0.00734148
0.233408 0.0177788 0.00720566
0.233675 0.0186369 0.00687941
0.239301 0.0176732 0.00703719
0.233645 0.0179872 0.00711286
0.239329 0.0176424 0.00712824
0.233204 0.0172905 0.00738346
0.239204 0.0172327 0.00724788
0.239376 0.0172047 0.00726605
0.239457 0.0179921 0.00697363
0.227487 0.0185843 0.00688862
0.239414 0.0173749 0.00716811
0.233526 0.0178999 0.00715279
0.239566 0.0176693 0.00703346
0.161461 0.0182058 0.00533758
0.233738 0.018452 0.00694048
0.233105 0.0164892 0.00766343
0.227276 0.0175929 0.00726509
0.233561 0.0189533 0.00679855
0.233469 0.0184862 0.00694837
0.233096 0.0168294 0.00754367
0.233602 0.0182681 0.00701607
0.239065 0.0166572 0.00757896
0.232804 0.0158386 0.00852112
0.233702 0.0182653 0.00700962
0.23317 0.0167671 0.00756689
0.2333 0.0173204 0.00737464
0.233488 0.0181461 0.00706795
0.230349 0.0181954 0.00701454
0.239243 0.0174027 0.0071502
0.239275 0.0173646 0.00727146
0.23362 0.0183603 0.0069819
0.239382 0.0180575 0.00696184
0.239165 0.0170825 0.00733772
0.227468 0.0184862 0.00689002
0.233584 0.018176 0.00705023
0.239481 0.0185425 0.00691381
0.232908 0.0160683 0.00809303
0.2391 0.0168309 0.00748711
0.23372 0.0183588 0.00697502
0.293318 0.0177465 0.00700365
0.23957 0.0181231 0.0069483
0.233449 0.0179622 0.00713647
0.01744 0.0170249 0.00815299
0.239433 0.01746 0.00711913
0.233247 0.0174749 0.00731938
0.227411 0.0182037 0.00695096
0.227233 0.0174191 0.00735408
0.233657 0.0185447 0.00691357
0.233052 0.0166449 0.00760775
0.22719 0.0172454 0.00744307
0.233451 0.018394 0.00698253
0.239342 0.017865 0.00699822
0.233683 0.0181731 0.00704382
0.233009 0.0164612 0.00767397
0.232968 0.0162974 0.00777857
0.227016 0.0165503 0.00779905
0.227037 0.0166372 0.00775455
0.227103 0.0168978 0.00762106
0.233312 0.0177514 0.00722268
0.227059 0.0167241 0.00771006
0.227168 0.0171585 0.00748757
0.233808 0.0188573 0.00681757
0.233074 0.0167371 0.00757572
0.227448 0.0183882 0.00689144
0.233374 0.017256 0.00739317
0.239088 0.0167416 0.00753046
0.227318 0.0177669 0.00717582
0.227507 0.0186824 0.00688721
0.227146 0.0170716 0.00753207
0.233413 0.0182099 0.00705086
0.233506 0.0178079 0.00718703
0.233461 0.0176219 0.00725654
0.233365 0.0175955 0.00727306
0.227337 0.0178542 0.00713088
0.233161 0.017106 0.00744755
0.232948 0.0162333 0.00785276
0.227124 0.0169847 0.00757656
0.233599 0.0191454 0.00683904
0.227255 0.017506 0.00730958
0.233429 0.0178703 0.00717048
0.233127 0.0165825 0.00763101
0.233139 0.0170138 0.00747959
0.233439 0.0175305 0.00729069
0.239189 0.0171793 0.00733114
0.233693 0.0187296 0.00684504
0.227375 0.0180288 0.00704105
0.232912 0.0161128 0.00800362
0.227356 0.0179415 0.00708602
0.233192 0.0168593 0.00753485
0.233182 0.0171983 0.0074155
0.233387 0.017687 0.00723889
0.233788 0.0187611 0.00683615
0.227393 0.0181162 0.00699605
0.226994 0.0164635 0.00784355
0.233235 0.0170438 0.00747076
0.233626 0.0178952 0.00714703
0.233639 0.0184525 0.00694774
0.233485 0.0177162 0.00722119
0.233417 0.017439 0.00732485
0.233062 0.0163106 0.00774304
0.233581 0.0186077 0.00689681
0.233344 0.0175039 0.00730725
0.233432 0.0183019 0.00701674
0.233857 0.0185334 0.00690269
0.232929 0.0161585 0.00791617
0.227428 0.0182912 0.00690578
0.232988 0.0163733 0.00771676
0.239419 0.0180394 0.007053
0.227081 0.016811 0.00766556
0.227298 0.0176797 0.00722059
0.239212 0.0173031 0.0073185

VERTICES 271 542
1 0
1 1
1 2
1 3
1 4
1 5
1 6
1 7
1 8
1 9
1 10
1 11
1 12
1 13
1 14
1 15
1 16
1 17
1 18
1 19
1 20
1 21
1 22
1 23
1 24
1 25
1 26
1 27
1 28
1 29
1 30
1 31
1 32
1 33
1 34
1 35
1 36
1 37
1 38
1 39
1 40
1 41
1 42
1 43
1 44
1 45
1 46
1 47
1 48
1 49
1 50
1 51
1 52
1 53
1 54
1 55
1 56
1 57
1 58
1 59
1 60
1 61
1 62
1 63
1 64
1 65
1 66
1 67
1 68
1 69
1 70
1 71
1 72
1 73
1 74
1 75
1 76
1 77
1 78
1 79
1 80
1 81
1 82
1 83
1 84
1 85
1 86
1 87
1 88
1 89
1 90
1 91
1 92
1 93
1 94
1 95
1 96
1 97
1 98
1 99
1 100
1 101
1 102
1 103
1 104
1 105
1 106
1 107
1 108
1 109
1 110
1 111
1 112
1 113
1 114
1 115
1 116
1 117
1 118
1 119
1 120
1 121
1 122
1 123
1 124
1 125
1 126
1 127
1 128
1 129
1 130
1 131
1 132
1 133
1 134
1 135
1 136
1 137
1 138
1 139
1 140
1 141
1 142
1 143
1 144
1 145
1 146
1 147
1 148
1 149
1 150
1 151
1 152
1 153
1 154
1 155
1 156
1 157
1 158
1 159
1 160
1 161
1 162
1 163
1 164
1 165
1 166
1 167
1 168
1 169
1 170
1 171
1 172
1 173
1 174
1 175
1 176
1 177
1 178
1 179
1 180
1 181
1 182
1 183
1 184
1 185
1 186
1 187
1 188
1 189
1 190
1 191
1 192
1 193
1 194
1 195
1 196
1 197
1 198
1 199
1 200
1 201
1 202
1 203
1 204
1 205
1 206
1 207
1 208
1 209
1 210
1 211
1 212
1 213
1 214
1 215
1 216
1 217
1 218
1 219
1 220
1 221
1 222
1 223
1 224
1 225
1 226
1 227
1 228
1 229
1 230
1 231
1 232
1 233
1 234
1 235
1 236
1 237
1 238
1 239
1 240
1 241
1 242
1 243
1 244
1 245
1 246
1 247
1 248
1 249
1 250
1 251
1 252
1 253
1 254
1 255
1 256
1 257
1 258
1 259
1 260
1 261
1 262
1 263
1 264
1 265
1 266
1 267
1 268
1 269
1 270

POINT_DATA 271
SCALARS id int 1
LOOKUP_TABLE default
1
2
3
4
5
6
7
8
9
10
11
12
13
14
15
16
17
19
21
22
23
24
25
26
27
28
29
30
31
32
33
34
35
36
37
38
39
41
42
44
45
47
48
50
51
52
53
54
55
56
57
59
61
62
63
64
65
66
67
68
69
70
71
72
73
74
76
77
78
79
80
81
82
83
84
85
86
87
88
89
90
91
92
93
94
95
96
97
98
99
100
101
102
103
104
105
106
107
108
109
110
111
112
113
114
115
116
117
118
119
120
121
122
123
124
125
126
127
128
129
131
132
133
134
135
136
137
138
140
141
142
143
144
147
148
149
150
151
153
154
155
156
157
158
159
160
162
164
165
166
168
169
170
171
172
173
174
175
177
178
179
181
182
183
184
186
187
188
189
190
191
192
193
194
195
196
197
198
199
201
202
203
204
205
206
207
208
209
210
211
212
213
214
215
216
217
218
219
220
221
222
223
224
225
226
227
228
229
230
231
232
234
235
236
237
239
240
241
242
244
246
247
248
249
250
251
252
253
254
255
256
257
258
259
261
262
263
264
265
266
267
268
269
270
271
272
273
274
275
276
277
278
280
283
284
285
286
287
288
289
290
291
292
293
294
295
296
297
298
299
300

SCALARS type int 1
LOOKUP_TABLE default
1
1
1
1
1
1
1
1
1
1
1
1
1
1
1
1
1
1
1
1
1
1
1
1
1
1
1
1
1
1
1
1
1
1
1
1
1
1
1
1
1
1
1
1
1
1
1
1
1
1
1
1
1
1
1
1
1
1
1
1
1
1
1
1
1
1
1
1
1
1
1
1
1
1
1
1
1
1
1
1
1
1
1
1
1
1
1
1
1
1
1
1
1
1
1
1
1
1
1
1
1
1
1
1
1
1
1
1
1
1
1
1
1
1
1
1
1
1
1
1
1
1
1
1
1
1
1
1
1
1
1
1
1
1
1
1
1
1
1
1
1
1
1
1
1
1
1
1
1
1
1
1
1
1
1
1
1
1
1
1
1
1
1
1
1
1
1
1
1
1
1
1
1
1
1
1
1
1
1
1
1
1
1
1
1
1
1
1
1
1
1
1
1
1
1
1
1
1
1
1
1
1
1
1
1
1
1
1
1
1
1
1
1
1
1
1
1
1
1
1
1
1
1
1
1
1
1
1
1
1
1
1
1
1
1
1
1
1
1
1
1
1
1
1
1
1
1
1
1
1
1
1
1
1
1
1
1
1
1
1
1
1
1
1
1
1
1
1
1
1
1

SCALARS radius float 1
LOOKUP_TABLE default
5e-05
5e-05
5e-05
5e-05
5e-05
5e-05
5e-05
5e-05
5e-05
5e-05
5e-05
5e-05
5e-05
5e-05
5e-05
5e-05
5e-05
5e-05
5e-05
5e-05
5e-05
5e-05
5e-05
5e-05
5e-05
5e-05
5e-05
5e-05
5e-05
5e-05
5e-05
5e-05
5e-05
5e-05
5e-05
5e-05
5e-05
5e-05
5e-05
5e-05
5e-05
5e-05
5e-05
5e-05
5e-05
5e-05
5e-05
5e-05
5e-05
5e-05
5e-05
5e-05
5e-05
5e-05
5e-05
5e-05
5e-05
5e-05
5e-05
5e-05
5e-05
5e-05
5e-05
5e-05
5e-05
5e-05
5e-05
5e-05
5e-05
5e-05
5e-05
5e-05
5e-05
5e-05
5e-05
5e-05
5e-05
5e-05
5e-05
5e-05
5e-05
5e-05
5e-05
5e-05
5e-05
5e-05
5e-05
5e-05
5e-05
5e-05
5e-05
5e-05
5e-05
5e-05
5e-05
5e-05
5e-05
5e-05
5e-05
5e-05
5e-05
5e-05
5e-05
5e-05
5e-05
5e-05
5e-05
5e-05
5e-05
5e-05
5e-05
5e-05
5e-05
5e-05
5e-05
5e-05
5e-05
5e-05
5e-05
5e-05
5e-05
5e-05
5e-05
5e-05
5e-05
5e-05
5e-05
5e-05
5e-05
5e-05
5e-05
5e-05
5e-05
5e-05
5e-05
5e-05
5e-05
5e-05
5e-05
5e-05
5e-05
5e-05
5e-05
5e-05
5e-05
5e-05
5e-05
5e-05
5e-05
5e-05
5e-05
5e-05
5e-05
5e-05
5e-05
5e-05
5e-05
5e-05
5e-05
5e-05
5e-05
5e-05
5e-05
5e-05
5e-05
5e-05
5e-05
5e-05
5e-05
5e-05
5e-05
5e-05
5e-05
5e-05
5e-05
5e-05
5e-05
5e-05
5e-05
5e-05
5e-05
5e-05
5e-05
5e-05
5e-05
5e-05
5e-05
5e-05
5e-05
5e-05
5e-05
5e-05
5e-05
5e-05
5e-05
5e-05
5e-05
5e-05
5e-05
5e-05
5e-05
5e-05
5e-05
5e-05
5e-05
5e-05
5e-05
5e-05
5e-05
5e-05
5e-05
5e-05
5e-05
5e-05
5e-05
5e-05
5e-05
5e-05
5e-05
5e-05
5e-05
5e-05
5e-05
5e-05
5e-05
5e-05
5e-05
5e-05
5e-05
5e-05
5e-05
5e-05
5e-05
5e-05
5e-05
5e-05
5e-05
5e-05
5e-05
5e-05
5e-05
5e-05
5e-05
5e-05
5e-05
5e-05
5e-05
5e-05
5e-05
5e-05
5e-05
5e-05
5e-05
5e-05
5e-05
5e-05
5e-05
5e-05
5e-05
5e-05
5e-05
5e-05
5e-05
5e-05
5e-05
5e-05
5e-05
5e-05
5e-05
5e-05
5e-05

SCALARS mass float 1
LOOKUP_TABLE default
1.46608e-10
1.46608e-10
1.46608e-10
1.46608e-10
1.46608e-10
1.46608e-10
1.46608e-10
1.46608e-10
1.46608e-10
1.46608e-10
1.46608e-10
1.46608e-10
1.46608e-10
1.46608e-10
1.46608e-10
1.46608e-10
1.46608e-10
1.46608e-10
1.46608e-10
1.46608e-10
1.46608e-10
1.46608e-10
1.46608e-10
1.46608e-10
1.46608e-10
1.46608e-10
1.46608e-10
1.46608e-10
1.46608e-10
1.46608e-10
1.46608e-10
1.46608e-10
1.46608e-10
1.46608e-10
1.46608e-10
1.46608e-10
1.46608e-10
1.46608e-10
1.46608e-10
1.46608e-10
1.46608e-10
1.46608e-10
1.46608e-10
1.46608e-10
1.46608e-10
1.46608e-10
1.46608e-10
1.46608e-10
1.46608e-10
1.46608e-10
1.46608e-10
1.46608e-10
1.46608e-10
1.46608e-10
1.46608e-10
1.46608e-10
1.46608e-10
1.46608e-10
1.46608e-10
1.46608e-10
1.46608e-10
1.46608e-10
1.46608e-10
1.46608e-10
1.46608e-10
1.46608e-10
1.46608e-10
1.46608e-10
1.46608e-10
1.46608e-10
1.46608e-10
1.46608e-10
1.46608e-10
1.46608e-10
1.46608e-10
1.46608e-10
1.46608e-10
1.46608e-10
1.46608e-10
1.46608e-10
1.46608e-10
1.46608e-10
1.46608e-10
1.46608e-10
1.46608e-10
1.46608e-10
1.46608e-10
1.46608e-10
1.46608e-10
1.46608e-10
1.46608e-10
1.46608e-10
1.46608e-10
1.46608e-10
1.46608e-10
1.46608e-10
1.46608e-10
1.46608e-10
1.46608e-10
1.46608e-10
1.46608e-10
1.46608e-10
1.46608e-10
1.46608e-10
1.46608e-10
1.46608e-10
1.46608e-10
1.46608e-10
1.46608e-10
1.46608e-10
1.46608e-10
1.46608e-10
1.46608e-10
1.46608e-10
1.46608e-10
1.46608e-10
1.46608e-10
1.46608e-10
1.46608e-10
1.46608e-10
1.46608e-10
1.46608e-10
1.46608e-10
1.46608e-10
1.46608e-10
1.46608e-10
1.46608e-10
1.46608e-10
1.46608e-10
1.46608e-10
1.46608e-10
1.46608e-10
1.46608e-10
1.46608e-10
1.46608e-10
1.46608e-10
1.46608e-10
1.46608e-10
1.46608e-10
1.46608e-10
1.46608e-10
1.46608e-10
1.46608e-10
1.46608e-10
1.46608e-10
1.46608e-10
1.46608e-10
1.46608e-10
1.46608e-10
1.46608e-10
1.46608e-10
1.46608e-10
1.46608e-10
1.46608e-10
1.46608e-10
1.46608e-10
1.46608e-10
1.46608e-10
1.46608e-10
1.46608e-10
1.46608e-10
1.46608e-10
1.46608e-10
1.46608e-10
1.46608e-10
1.46608e-10
1.46608e-10
1.46608e-10
1.46608e-10
1.46608e-10
1.46608e-10
1.46608e-10
1.46608e-10
1.46608e-10
1.46608e-10
1.46608e-10
1.46608e-10
1.46608e-10
1.46608e-10
1.46608e-10
1.46608e-10
1.46608e-10
1.46608e-10
1.46608e-10
1.46608e-10
1.46608e-10
1.46608e-10
1.46608e-10
1.46608e-10
1.46608e-10
1.46608e-10
1.46608e-10
1.46608e-10
1.46608e-10
1.46608e-10
1.46608e-10
1.46608e-10
1.46608e-10
1.46608e-10
1.46608e-10
1.46608e-10
1.46608e-10
1.46608e-10
1.46608e-10
1.46608e-10
1.46608e-10
1.46608e-10
1.46608e-10
1.46608e-10
1.46608e-10
1.46608e-10
1.46608e-10
1.46608e-10
1.46608e-10
1.46608e-10
1.46608e-10
1.46608e-10
1.46608e-10
1.46608e-10
1.46608e-10
1.46608e-10
1.46608e-10
1.46608e-10
1.46608e-10
1.46608e-10
1.46608e-10
1.46608e-10
1.46608e-10
1.46608e-10
1.46608e-10
1.46608e-10
1.46608e-10
1.46608e-10
1.46608e-10
1.46608e-10
1.46608e-10
1.46608e-10
1.46608e-10
1.46608e-10
1.46608e-10
1.46608e-10
1.46608e-10
1.46608e-10
1.46608e-10
1.46608e-10
1.46608e-10
1.46608e-10
1.46608e-10
1.46608e-10
1.46608e-10
1.46608e-10
1.46608e-10
1.46608e-10
1.46608e-10
1.46608e-10
1.46608e-10
1.46608e-10
1.46608e-10
1.46608e-10
1.46608e-10
1.46608e-10
1.46608e-10
1.46608e-10
1.46608e-10
1.46608e-10
1.46608e-10
1.46608e-10
1.46608e-10
1.46608e-10
1.46608e-10
1.46608e-10

VECTORS velocity float
0.00533835 -0.000366247 0.000500232
0.00572933 -0.000495241 5.60784e-05
0.00562401 0.000882161 -0.00073241
0.00578054 -0.000571195 6.9596e-05
0.00543783 -0.000373988 0.00051108
0.00601441 -2.56554e-05 6.0036e-06
0.00550615 -0.000274955 0.000655873
0.00549007 -0.000377313 0.000515551
0.00622776 -5.85718e-05 3.36725e-05
0.0056569 -0.000486341 0.000342374
0.00573641 -0.000589173 7.0741e-05
0.00548567 0.000547231 0.000117911
0.00543006 -0.000364457 0.000498597
0.00562123 0.000105234 -0.000213036
0.00575785 -0.00060133 7.53851e-05
0.00568215 0.000146531 -2.23116e-05
0.00576344 -0.000511892 5.81428e-05
0.00548197 -0.000373333 0.000510516
0.00567341 -0.000498622 0.000351065
0.00566999 -0.000635112 8.08736e-05
0.00601317 -2.93492e-05 -0.000362954
0.00580368 2.42111e-05 1.23025e-05
0.00549799 7.56075e-05 0.00105462
0.00615067 -4.71788e-05 2.37989e-05
0.00562326 0.00012091 -1.42565e-05
0.00573549 -0.000586258 7.46881e-05
0.0054992 -6.69419e-05 0.000869313
0.00573313 -0.000573312 7.10051e-05
0.00549216 8.97892e-05 0.00107819
0.00612067 -0.000603527 0.000418796
0.00604194 -3.50785e-05 1.10098e-05
0.00546536 -0.000393232 0.000538163
0.00568954 -0.000536311 0.000375627
0.00581639 2.37616e-05 1.14537e-05
0.00553233 -0.00055886 7.16157e-05
0.00558934 -0.000517497 0.000466776
0.00579466 2.48935e-05 1.20321e-05
0.00566165 -0.000491505 5.57692e-05
4.58359e-16 2.25512e-15 8.4636e-14
0.00577093 -0.000577424 7.0455e-05
0.00606425 -2.99858e-05 7.26668e-06
0.00533811 -0.000370886 0.000505944
0.00557855 -0.000563171 0.000458937
0.00556489 2.05031e-05 0.00104677
0.0054904 9.58759e-05 0.00109648
0.00553872 -0.000617717 -0.000556726
0.00583565 9.6268e-06 -2.45178e-05
0.00551399 -0.000542692 8.20589e-05
0.00618307 -0.000516799 -0.000356916
0.00552143 -0.000537653 0.000180769
0.00613652 -3.00429e-05 1.38458e-05
0.00568348 -0.000492949 0.000347611
0.00609237 -0.000593775 0.000413145
0.00549562 -0.000529981 9.71227e-05
0.0058146 -0.000544121 6.42326e-05
0.00578384 2.54718e-05 1.18219e-05
0.00619932 5.41959e-05 -1.34352e-05
0.00636257 -0.000549715 -0.000338525
0.00557189 -0.000554634 6.88292e-05
0.0057986 -0.00054194 0.000378319
0.00566663 -0.000654271 0.000128652
0.00618298 -5.89366e-05 3.15525e-05
0.00562292 -0.000508802 -0.000479673
0.00575067 -0.000595541 7.4859e-05
0.00559411 -0.000526058 0.000464759
0.00552655 -0.000570488 0.000101652
0.00558061 3.75315e-05 -0.000300507
0.00571036 -0.000519946 0.000365009
0.00552244 4.45812e-05 -0.000420972
0.00547183 0.000393831 3.64006e-05
0.0055255 -0.000529157 6.34473e-05
0.00572698 0.000166527 -2.04258e-05
0.00555214 0.0003976 5.34605e-05
0.00549764 3.39332e-05 -0.00041744
0.00609015 -3.80149e-05 1.44788e-05
0.00554692 0.00090646 -0.000735467
0.00556496 -0.00047541 5.40694e-05
0.00559648 -0.000521245 0.000468349
0.00608621 -0.000576596 0.000402931
0.00555592 -0.000629577 7.7699e-05
0.00574247 -0.000591127 7.15857e-05
0.00594652 0.000849172 -0.000745433
0.00550443 -0.000567572 6.93834e-05
0.00600115 -0.000464162 0.000552858
0.0057264 -0.000571625 7.19325e-05
0.00566593 -0.00048476 0.000343795
0.00599441 -0.000549771 0.000423685
0.00620516 0.000107439 7.26507e-05
0.00574123 -0.000595589 6.23797e-05
0.00611206 9.4586e-05 7.57678e-05
0.00551179 -0.000567521 6.58836e-05
0.00548438 0.000730165 0.000224538
4.17438e-15 1.05488e-14 8.29582e-14
8.61412e-23 4.86658e-23 1.23839e-22
0.00560036 4.39096e-05 -0.000437485
0.00561159 0.000135832 -8.39753e-06
0.00567212 0.000888847 -0.000738137
0.00599069 0.00376511 -0.00178541
0.0055961 -0.000528996 0.000461353
0.00570927 -0.000665486 8.78296e-05
0.00603203 -0.000573496 0.0004023
0.00567285 -0.000495415 0.000349176
0.00562016 4.01915e-05 -0.000433227
0.00614841 9.98132e-05 7.37185e-05
0.00543571 4.36541e-05 -0.000415461
0.00570119 -0.000606048 7.73102e-05
0.00551928 -0.00058069 7.13123e-05
0.00543682 -0.00050103 0.000454681
0.00601624 -2.89036e-05 -0.000218836
0.00573101 -0.000537765 0.000383318
0.00549611 4.89676e-05 0.00100724
0.00541064 -0.000384712 0.000521383
0.00569318 -0.000485348 0.000345077
0.00603421 7.67853e-05 8.62168e-05
0.00567264 -0.000493839 0.000349173
0.00544829 -0.000487839 0.000457251
0.00610271 -0.000591116 0.000411541
0.0056283 0.000121027 -1.24354e-05
0.00611072 -0.00060445 0.000419549
0.00573665 -0.000584144 7.00977e-05
0.0057163 0.000854707 -0.000729409
0.00575031 -0.000583067 7.27915e-05
0.00567471 -0.00052425 0.000264949
0.00610877 -0.000586768 0.000409378
0.0054566 -0.000367554 0.000503005
0.00570216 0.000149454 -1.94368e-05
0.00583596 -0.0002245 0.000829304
0.00576066 -0.000586917 7.26006e-05
0.00573514 -0.00055213 0.000268602
0.00553418 1.29555e-05 -0.000415943
0.00604908 7.63425e-05 9.98412e-05
0.0057813 -0.000438967 -0.000406564
0.00556344 2.64625e-05 -0.000426472
0.00559671 5.09217e-05 -0.000348209
0.00611182 -8.02291e-05 -0.000427778
0.00610314 -0.00057947 0.000404972
8.38562e-15 1.24252e-15 -8.48743e-14
0.00607399 7.44722e-05 7.96596e-05
0.00569676 0.000140807 -5.31142e-07
0.00572071 -1.93352e-06 -0.000352533
0.00615497 0.00157024 -0.00102275
0.00559681 4.56419e-05 -0.000431776
-3.83146e-14 8.16576e-14 2.95892e-13
0.00552587 -1.61518e-05 -0.000404887
0.00557668 -0.000538635 0.000461069
0.00563497 1.58992e-06 -0.000414591
0.0056568 0.000127634 -1.10646e-05
0.00613797 0.000119601 6.69329e-05
0.00557239 2.77341e-05 -0.000424223
0.00556831 -0.000525184 0.000368097
0.0061042 8.56501e-05 8.04703e-05
0.00569802 0.000157764 -2.12355e-05
0.00561738 0.001273 -0.000871389
0.00574235 -0.000577203 6.88551e-05
0.00564648 9.84621e-05 -0.000457443
0.0056713 -0.000347672 2.81449e-05
0.00576217 0.0013182 -0.000898449
0.00597526 -6.29898e-05 0.000462551
0.00604831 -0.000100288 -0.00041704
0.00606427 -4.95214e-05 -0.0002654
0.00607614 -6.44239e-05 -0.000551228
0.00556956 1.05021e-05 -0.000410827
0.00571072 -0.000568642 0.000125803
0.00567419 0.00129697 -0.000883733
0.00581191 -0.000483737 0.00011482
0.0060903 7.9728e-05 8.00394e-05
0.00612723 -0.000581854 0.000405996
0.00602532 -0.000583883 0.000406411
0.00575679 -0.000572263 7.09181e-05
0.00557183 -9.35739e-05 -0.000204019
0.00567578 -0.000519582 0.000358612
0.00572691 5.23622e-05 -0.000439952
0.00574172 -0.000599677 6.98422e-05
1.54062e-15 -1.10072e-14 8.66689e-14
0.00550217 0.000514905 -0.000593106
0.00619435 9.13308e-05 7.31832e-05
0.00598358 -6.5781e-05 0.000464319
0.00572099 0.000141325 -1.64506e-05
0.00551552 1.18336e-05 -0.000414693
0.0061744 9.67325e-05 7.09261e-05
0.00561703 1.95687e-05 -0.000425121
0.00604772 -0.000577673 0.000402302
0.0055106 -0.000124028 -0.000241259
0.00565023 0.000253883 -0.000510656
0.00618739 0.000115352 6.9199e-05
0.00608952 8.49957e-05 8.24277e-05
0.00556408 3.45221e-05 -0.000425641
0.00552745 -0.000743059 0.00035955
0.00565748 -0.000488446 0.000346445
0.00562855 -0.00044073 0.000313372
0.00558797 4.24611e-05 -0.000430987
0.00559552 -0.000575421 7.25391e-05
0.00610395 -0.000578815 0.000404421
0.00562106 -0.000102561 -0.000205726
0.00558809 1.54105e-05 -0.000421335
0.00553728 -0.000497681 0.000463735
0.00558404 0.000256787 -1.80855e-05
0.0060606 -0.00057246 0.000400837
0.0055938 0.000406599 -0.0005608
0.00625368 -0.00045713 0.000143781
0.00554414 -0.000528419 6.45126e-05
0.00566453 4.203e-06 -0.000451345
-0.00651156 0.00525085 -0.000854064
0.00567887 -0.00051378 0.000360598
0.00606073 7.37547e-05 8.92579e-05
0.00567143 -2.38306e-05 0.000419826
0.0059765 -6.56602e-05 0.000463573
0.00553826 1.69416e-05 -0.000417041
0.00619233 9.55376e-05 7.8703e-05
0.00596966 -6.26486e-05 0.000461442
0.00557779 1.11232e-05 -0.000418942
0.00574868 -0.000589527 7.30532e-05
0.00560899 0.000302616 -0.000525257
0.00621351 -4.00131e-05 -0.000240643
0.00565741 0.000114799 -0.000247722
0.00595156 -6.29895e-05 0.000460496
0.00595471 -6.25067e-05 0.000460412
0.00596053 -6.18886e-05 0.000460468
0.00600762 4.79446e-05 -9.64548e-06
0.0059575 -6.23952e-05 0.000460576
0.00596868 -6.30321e-05 0.000461498
0.00560941 0.000106348 -1.03681e-05
0.00619141 9.40599e-05 7.11086e-05
0.0057236 -0.000123212 -0.000210562
0.00607436 -8.81144e-05 -0.000424775
0.00605326 -0.000575583 0.000402229
0.00579069 -3.90117e-05 0.000436158
0.00557452 -9.48897e-05 -0.000203982
0.00596845 -6.17191e-05 0.000461077
0.00556177 4.99765e-05 -0.00042963
0.00573174 -6.26264e-06 -0.000422596
0.00599205 -5.97867e-05 -0.000417811
0.00600545 -8.99236e-05 -0.000422813
0.00571334 -2.84454e-05 0.000425268
0.00611631 9.27344e-05 7.65784e-05
0.00558057 0.000332906 -6.76351e-05
0.00596448 -6.10519e-05 0.000460569
0.00574001 0.000146992 -3.36172e-06
0.00597625 -6.61124e-05 0.000463356
0.00573674 -4.68911e-06 -0.000421405
0.00620457 0.000100885 7.61858e-05
0.00612942 9.74455e-05 7.54796e-05
0.00603386 -6.86988e-05 -0.000417668
0.0060811 -0.000572916 0.000404809
0.00567596 5.01057e-05 -0.000439934
0.00555566 -6.64505e-06 0.000401915
0.00561684 0.000387577 4.34782e-05
0.0056361 -1.73601e-05 0.000413537
0.00616621 0.00012405 6.58924e-05
0.00610279 8.59657e-05 7.78237e-05
0.00598032 -7.55406e-05 -0.000426168
0.00563491 0.000108465 -1.12255e-05
0.0055667 -9.03828e-06 0.000404094
0.00594929 -6.31515e-05 0.000460399
0.00613329 0.000113209 6.92218e-05
0.00576168 0.00127795 -0.000881771
0.00551994 3.21034e-05 -0.000421922
0.00605451 -7.48887e-05 -0.000439581
0.00605671 -8.99551e-05 -0.000418685
0.00577494 -0.000297323 -0.000216318
0.00554421 8.21791e-06 -0.00047744
0.0061006 -7.00804e-05 -0.000512632
0.00560406 3.1685e-05 -0.000427407
0.00581575 0.000855267 -0.000736335
0.00567083 0.000401764 5.57557e-05
0.00572581 -3.01185e-05 0.000428232
0.00602657 -5.63737e-05 -0.000348386
0.0056827 -0.000583705 4.26801e-05
0.00595913 -6.24763e-05 0.000460704
0.00598103 -6.75328e-05 0.000464449
0.00597651 -0.000655411 0.000495795

VECTORS force float
2.80654e-10 -6.76651e-11 8.94268e-11
-5.51446e-11 -1.49711e-10 2.80855e-11
1.75165e-10 1.6025e-10 -6.82254e-11
-1.87585e-10 1.00536e-11 -8.2221e-12
1.22627e-10 -5.27125e-11 6.58695e-11
8.13004e-13 4.77606e-11 -3.3517e-11
-2.66574e-11 -7.22504e-11 6.31829e-11
-5.97575e-12 -3.45308e-11 4.93536e-11
-5.69862e-12 1.58077e-11 1.79842e-11
4.78108e-12 -1.13583e-10 5.38401e-11
1.03518e-10 -6.16381e-11 1.71063e-10
9.9971e-11 2.80622e-10 2.17104e-11
-3.73623e-11 -7.06178e-11 9.12106e-11
-2.19426e-10 -2.22169e-10 7.47959e-12
-8.47897e-11 -4.70699e-11 1.33846e-11
2.60817e-10 -1.19134e-10 8.84494e-11
-2.16249e-10 -3.09097e-11 1.19413e-11
6.01942e-11 -4.37948e-11 4.81852e-11
-4.15977e-11 2.0817e-12 -3.9317e-11
2.24694e-10 1.49826e-10 -1.37755e-10
-8.60143e-11 -1.80954e-11 1.86962e-11
6.3555e-12 1.14226e-11 -8.08288e-12
-9.56718e-12 -5.75951e-12 1.69052e-10
1.79878e-10 1.03864e-10 1.83078e-11
2.4635e-10 -3.2591e-10 6.65923e-11
-2.06434e-11 -5.76579e-11 -7.02629e-13
2.01634e-12 -1.96034e-10 -6.48639e-11
8.62066e-11 -1.52292e-10 -2.84398e-11
-9.99263e-12 -8.00875e-11 7.72367e-11
-4.45232e-11 3.64184e-11 -2.16239e-11
9.86789e-11 5.51827e-11 1.56383e-11
-6.75589e-11 -3.38238e-11 7.59568e-11
1.27023e-10 4.8731e-12 3.51061e-11
1.51067e-11 1.99574e-11 4.18623e-13
-5.23716e-11 -9.56566e-13 -1.5715e-11
-4.25103e-10 3.2442e-10 -9.59889e-11
3.61265e-14 3.13496e-12 -4.75042e-12
-6.20405e-11 -5.7041e-11 2.0659e-11
-4.98893e-24 1.53804e-24 0.0
-1.0784e-10 -6.69242e-13 -8.38778e-13
-3.56095e-10 -3.43979e-11 -2.03723e-11
2.10129e-10 -5.88076e-11 8.14887e-11
-1.49961e-10 7.06813e-11 -2.27959e-11
5.90869e-11 -8.78197e-11 9.50285e-11
-2.24403e-11 -7.81354e-11 8.07641e-11
-2.93599e-10 -6.45601e-11 -9.25828e-11
-4.12096e-11 -6.28349e-12 1.76828e-11
-1.9231e-11 1.45372e-10 -1.18251e-11
2.70101e-11 -3.67814e-11 5.67678e-11
1.12438e-12 1.12536e-11 -5.55891e-11
-1.14393e-10 1.65764e-11 -3.00022e-11
3.87796e-11 5.02285e-11 -8.83087e-11
3.95558e-11 -8.0535e-12 6.64856e-12
1.87098e-10 2.42329e-11 1.02635e-10
-1.66057e-10 2.7361e-11 -4.28806e-12
-4.717e-12 1.31087e-12 3.2688e-12
6.13864e-11 2.07688e-11 -2.03576e-11
-3.9791e-11 -9.17647e-11 1.32072e-10
3.74773e-11 7.73614e-11 -2.52402e-12
-1.21217e-10 2.36126e-11 -1.3721e-11
-2.92668e-10 -3.37539e-11 1.93786e-10
-1.34314e-10 5.45682e-11 -1.1514e-11
-9.44862e-11 5.44555e-11 3.46047e-11
1.68238e-12 -4.20075e-11 7.18317e-12
5.578e-11 1.86688e-10 1.4655e-10
6.92436e-11 3.84495e-11 4.16869e-10
1.22941e-10 -3.53105e-11 -9.89121e-11
2.01139e-11 1.3922e-11 -1.34161e-10
7.32153e-12 -3.83019e-10 -3.67098e-10
1.48419e-10 1.05003e-11 -3.78401e-11
1.61664e-10 2.71649e-10 -6.38292e-11
-1.09082e-11 -1.04009e-10 7.4852e-12
8.69411e-11 1.05216e-10 -7.56138e-11
3.77477e-10 -1.42391e-10 -2.94937e-11
3.12748e-11 -1.12496e-11 5.64897e-11
1.42718e-11 9.60631e-12 -5.75861e-12
6.62955e-11 -8.77181e-11 -5.57473e-11
-6.53623e-12 4.67676e-11 1.74829e-11
3.64521e-11 6.07476e-11 -3.12292e-11
-2.48256e-10 1.62145e-11 -3.74111e-11
-2.95437e-11 -9.36039e-11 -5.45924e-11
-5.58456e-11 -2.67935e-10 9.24466e-11
-2.18321e-11 7.03194e-11 3.30747e-11
2.28257e-12 1.53713e-11 1.53452e-10
-5.21097e-11 -9.13749e-11 -2.76724e-11
-1.78035e-11 3.81331e-11 -6.09424e-11
4.54992e-11 -1.24265e-11 7.54318e-11
9.53748e-11 3.98214e-11 -6.05314e-12
4.98042e-11 -3.22387e-11 -1.16477e-10
-1.26066e-10 -1.09404e-10 4.14985e-11
7.29205e-11 1.62822e-11 -7.90005e-11
1.85e-10 2.11573e-10 2.70775e-11
-5.62948e-22 3.78487e-22 -2.25407e-23
3.23117e-27 0.0 0.0
5.12131e-11 2.12188e-10 -3.50771e-11
3.39686e-10 -1.47327e-10 6.44951e-12
-2.14779e-10 -3.71143e-11 2.82505e-11
-2.10766e-10 7.76147e-11 -1.85273e-11
-1.37653e-10 -3.18501e-11 -2.85944e-11
6.02189e-11 7.70342e-11 -1.60179e-11
7.72405e-11 -1.26626e-11 1.40534e-11
-3.42492e-11 1.06888e-10 -4.44961e-11
1.8089e-10 -2.71768e-10 9.47037e-11
-2.67158e-11 -9.85015e-11 2.55595e-11
-5.10837e-10 -3.83988e-11 1.10998e-10
1.06236e-10 9.40529e-12 -3.43781e-12
1.72494e-10 -1.26566e-10 -1.06738e-10
1.70943e-10 3.72691e-10 4.55177e-11