# vtk DataFile Version 3.0
LIGGGHTS particles timestep 5600000
ASCII
DATASET POLYDATA
POINTS 287 float
0.04543 0.016108 0.00791012
0.0458325 0.0171111 0.00760553
0.0393093 0.0160446 0.00815405
0.04577 0.0176155 0.00745823
0.0453282 0.0160673 0.00805016
0.0514502 0.0165444 0.00765584
0.0455022 0.0168322 0.00768551
0.0452267 0.0158857 0.00850272
0.0517101 0.0177354 0.00720434
0.0454419 0.0165506 0.00776964
0.0458756 0.017301 0.00755713
0.0394989 0.0167391 0.00748092
0.0453072 0.0160155 0.00813309
0.0392224 0.0158031 0.00846082
0.0456421 0.017053 0.00762578
0.0392006 0.0157421 0.00853704
0.0454219 0.0164568 0.00779772
0.0515882 0.017186 0.00741244
0.0452878 0.0159847 0.0082262
0.0454238 0.0160676 0.00800141
0.0455456 0.0170193 0.00762982
0.0396718 0.0171289 0.0073145
0.0516478 0.0174609 0.00730819
0.0454818 0.0167384 0.00771351
0.0515294 0.016911 0.0075168
0.0395769 0.0170969 0.00732154
0.0457487 0.0175217 0.00748616
0.0452676 0.0159523 0.00831865
0.04578 0.0172716 0.00756664
0.0455234 0.0169259 0.0076576
0.0456206 0.0169578 0.00765417
0.0514703 0.016636 0.00762112
0.0454018 0.0163631 0.00782627
0.0455983 0.0168643 0.00768194
0.0517517 0.0179184 0.00713511
0.0455567 0.0166758 0.00773565
0.0457164 0.0169898 0.00764759
0.0516686 0.0175524 0.00727358
0.0453613 0.0161768 0.00788688
0.0455658 0.0171131 0.0076018
0.0457376 0.0170841 0.00762185
0.0514903 0.0167276 0.0075864
0.0515686 0.0170943 0.00744722
0.0453816 0.0162698 0.0078561
0.0456085 0.0173004 0.00754601
0.0515489 0.0170027 0.007482
0.0456721 0.0175814 0.00746228
0.0456508 0.0174877 0.00749018
0.0394795 0.0166517 0.00752542
0.0516079 0.0172777 0.00737766
0.0454088 0.0160234 0.00808982
0.0392658 0.015924 0.00830753
0.0455769 0.0167703 0.00770995
0.0515099 0.0168193 0.0075516
0.0456319 0.0166103 0.00774238
0.0456524 0.0167053 0.00771831
0.0453429 0.016116 0.00796407
0.0457589 0.0171779 0.00759456
0.0457061 0.0173343 0.00754198
0.0516275 0.0173693 0.00734288
0.0395936 0.0167668 0.00746454
0.0395354 0.0165093 0.00760633
0.045854 0.0172059 0.00758137
0.0458225 0.0174589 0.00751083
0.0454964 0.0163904 0.00780755
0.0516894 0.0176439 0.00723896
0.0392441 0.0158636 0.00838428
0.0458012 0.0173653 0.00753873
0.0454619 0.0166445 0.00774158
0.0456635 0.0171469 0.00759783
0.0398119 0.0177794 0.00709705
0.0459011 0.0181782 0.0072908
0.0393295 0.0161051 0.00807703
0.0395183 0.0168266 0.00743659
0.0457358 0.0178623 0.00737857
0.03946 0.0165675 0.00757579
0.0395965 0.0171901 0.00729038
0.0395923 0.0163936 0.00771839
0.0517309 0.0178269 0.00716972
0.0394252 0.0161278 0.00805281
0.0457274 0.0174281 0.00751406
0.0456118 0.0165153 0.00776644
0.0457983 0.0181379 0.00729645
0.045757 0.0179559 0.00735067
0.0457908 0.0169232 0.0076533
0.0395378 0.0169141 0.00739223
0.0458652 0.0176465 0.00745496
0.0458562 0.0179902 0.00734663
0.0459301 0.0179275 0.00737128
0.0457145 0.0177686 0.00740647
0.0458865 0.0177401 0.00742704
0.0394209 0.0164084 0.00769021
0.0458196 0.0182316 0.00726855
0.0395741 0.0166793 0.0075088
0.0457478 0.0167332 0.0077017
0.0395159 0.0164311 0.00766587
0.0643568 0.0187248 0.00531097
0.24257 0.0191927 0.00520306
0.0398252 0.0174394 0.00721428
0.0393855 0.016287 0.00784512
0.0399007 0.0173777 0.00723857
0.0393487 0.0161657 0.00799981
0.0455368 0.0165813 0.00776148
0.0456296 0.0173941 0.00751808
0.0459604 0.0176774 0.0074517
0.045862 0.0184189 0.00721274
0.0394403 0.0164858 0.00762998
0.0401111 0.0175325 0.00719415
0.0397665 0.0171604 0.00730759
0.045685 0.0172406 0.00756991
0.0455167 0.016486 0.00778496
0.0453904 0.0159875 0.00818133
0.0392876 0.0159843 0.0082308
0.045674 0.0168004 0.00769565
0.0452472 0.0159206 0.00841129
0.0452061 0.0158487 0.00859328
0.0459816 0.0177711 0.00742379
0.0394615 0.0162491 0.00789804
0.0458127 0.0178029 0.00740237
0.0453714 0.015953 0.00827324
0.0455871 0.0172068 0.00757389
0.0394039 0.0163479 0.00776803
0.0456933 0.017675 0.00743438
0.0457788 0.0180535 0.00734629
0.0396914 0.0172219 0.00728339
0.0395546 0.0165918 0.00755313
0.0457914 0.0177093 0.00743028
0.0455324 0.0161427 0.00788601
0.0456966 0.0168946 0.00767088
0.0453502 0.0159216 0.00836579
0.0394055 0.0160673 0.00812994
0.0458833 0.0185125 0.00718484
0.0454752 0.0162954 0.00783171
0.0460038 0.0178645 0.00739601
0.0394429 0.0161885 0.00797536
0.039786 0.0172534 0.00727648
0.0393667 0.0162263 0.0079224
0.0397469 0.0170674 0.00733871
0.0396113 0.0164542 0.00764113
0.0393852 0.0160068 0.00820695
0.0396554 0.0174692 0.00719703
0.0460538 0.017948 0.00737323
0.0396493 0.0166195 0.00753667
0.0399758 0.0173159 0.00726289
0.0394983 0.0163709 0.00774374
0.0397502 0.0175009 0.00719009
0.039833 0.0178721 0.00706611
0.0397305 0.0174079 0.00722119
0.0219312 0.0187687 0.00551176
0.0398451 0.0175324 0.0071832
0.0458437 0.0175526 0.00748292
0.0397367 0.0178408 0.00707287
0.0397698 0.0175939 0.00715899
0.0399933 0.0181813 0.00696665
0.0400366 0.0175945 0.00716978
0.0455032 0.0160202 0.00803936
0.0396298 0.016532 0.00758101
0.0399209 0.0174706 0.00720753
0.0401325 0.0176251 0.00716323
0.0399618 0.0176563 0.0071455
0.0455123 0.0160733 0.00795514
0.0400159 0.0175017 0.00720078
0.0458213 0.0166658 0.00770938
0.0398869 0.0177179 0.00712127
0.0336316 0.0173755 0.00727078
0.039711 0.0173149 0.00725229
0.0397791 0.0180263 0.00701098
0.0400906 0.0174396 0.00722516
0.040079 0.01778 0.00710788
0.0396946 0.0176552 0.00713483
0.0454562 0.016207 0.0078781
0.0399411 0.0175635 0.00717649
0.0457825 0.017588 0.00755358
0.0396358 0.0173762 0.00722814
0.039675 0.0175622 0.00716593
0.0457265 0.0166385 0.0077258
0.0459804 0.0180112 0.00734847
0.0457352 0.0168003 0.00777474
0.0337069 0.0173166 0.00730018
0.0459045 0.0186062 0.00715693
0.0398612 0.0171918 0.00730074
0.0455919 0.0164203 0.00779047
0.0396882 0.0167945 0.00744797
0.040058 0.0176873 0.00713884
0.0391789 0.0156812 0.00861332
0.0336948 0.0176551 0.00714356
0.0395573 0.0170039 0.00735267
0.0397907 0.0176867 0.00712799
0.0396522 0.0170369 0.00734856
0.0401746 0.0181832 0.00697349
0.0398809 0.0172848 0.00726964
0.0459488 0.0172333 0.00756495
0.0396326 0.0169453 0.00738344
0.0399503 0.017996 0.00702845
0.039908 0.0178106 0.00709033
0.0394799 0.0163098 0.0078207
0.0398657 0.0176252 0.00715221
0.0396688 0.016707 0.00749231
0.0455526 0.016918 0.00775289
0.0459077 0.0178338 0.00739913
0.0399831 0.0177489 0.00711458
0.0457062 0.0165436 0.00774985
0.0458341 0.0178968 0.00737442
0.0336794 0.0171519 0.00737153
0.0397579 0.0179336 0.00704192
0.045552 0.0162318 0.0078448
0.0398754 0.0180576 0.00700422
0.0458408 0.0183252 0.00724064
0.0397156 0.0177481 0.00710383
0.0336086 0.0168662 0.0074943
0.0455718 0.0163251 0.00781459
0.0398056 0.0173464 0.00724538
0.0396161 0.0172832 0.00725925
0.0458968 0.0173958 0.00753303
0.0399958 0.0174088 0.00723183
0.033723 0.0169872 0.00744615
0.0336513 0.0174656 0.00723198
0.039621 0.0171764 0.00738636
0.0400333 0.0183675 0.00690439
0.033612 0.0172855 0.00730959
0.0395747 0.0163329 0.00779586
0.0397077 0.0168834 0.00740636
0.0459636 0.0181049 0.00731796
0.0400792 0.0185618 0.00686671
0.0400555 0.0184607 0.00687333
0.0401356 0.0184052 0.00689568
0.0334355 0.0164748 0.00765899
0.0334942 0.0167449 0.00754255
0.0334154 0.0163848 0.00769775
0.039822 0.0170058 0.00736294
0.039613 0.0168547 0.00742105
0.0334552 0.0165648 0.0076202
0.0335726 0.0171051 0.0073873
0.0399722 0.0180886 0.00699759
0.0401428 0.0180576 0.00701526
0.0337826 0.0176119 0.00716429
0.0398542 0.0179649 0.00703517
0.0459391 0.0175838 0.0074796
0.0337476 0.0178812 0.00702706
0.0336479 0.0170463 0.00741669
0.033553 0.0170151 0.00742611
0.0393635 0.0159465 0.0082837
0.0399292 0.0179033 0.00705939
0.039843 0.0183075 0.00692982
0.0398965 0.0181503 0.00697328
0.0337722 0.0179865 0.00697279
0.0397273 0.0169744 0.00736981
0.0400038 0.0186269 0.00687541
0.0401145 0.0183125 0.00692663
0.0335333 0.0169251 0.00746491
0.0398646 0.0184025 0.00690587
0.0336716 0.0175555 0.00719325
0.039956 0.0172229 0.00729397
0.0399388 0.0183357 0.0069114
0.0395952 0.0170845 0.00741907
0.0398214 0.0182118 0.00694909
0.0459179 0.0174901 0.0075075
0.0400041 0.0178417 0.00708363
0.0338528 0.0179333 0.00699873
0.0399294 0.018693 0.00688515
0.0337975 0.0180949 0.00691695
0.0399183 0.0182429 0.00694241
0.0398003 0.0181191 0.00698003
0.0399509 0.0187904 0.0068933
0.0400476 0.0180269 0.00702187
0.0335923 0.017197 0.00735195
0.0337431 0.0170825 0.00740503
0.0398025 0.0169128 0.00739405
0.0336283 0.0169562 0.0074555
0.0334747 0.0166549 0.00758138
0.0399823 0.0185288 0.00687546
0.039958 0.0184288 0.00688026
0.0398862 0.0184981 0.00688576
0.040084 0.018222 0.00695641
0.0399079 0.0185955 0.00687977
0.0397829 0.0168222 0.00743155
0.0398416 0.0170988 0.00733184
0.0400682 0.0181197 0.00699088
0.0395563 0.0162723 0.00787321
0.0400253 0.0179344 0.00705269
0.0399722 0.0188877 0.00690161
0.0338163 0.0170215 0.00743527
0.0401562 0.018498 0.00686468
0.0456864 0.0164486 0.00777388
0.0335137 0.016835 0.00750373
0.0337223 0.0177729 0.00708286
0.0456677 0.0170406 0.00772163

VERTICES 287 574
1 0
1 1
1 2
1 3
1 4
1 5
1 6
1 7
1 8
1 9
1 10
1 11
1 12
1 13
1 14
1 15
1 16
1 17
1 18
1 19
1 20
1 21
1 22
1 23
1 24
1 25
1 26
1 27
1 28
1 29
1 30
1 31
1 32
1 33
1 34
1 35
1 36
1 37
1 38
1 39
1 40
1 41
1 42
1 43
1 44
1 45
1 46
1 47
1 48
1 49
1 50
1 51
1 52
1 53
1 54
1 55
1 56
1 57
1 58
1 59
1 60
1 61
1 62
1 63
1 64
1 65
1 66
1 67
1 68
1 69
1 70
1 71
1 72
1 73
1 74
1 75
1 76
1 77
1 78
1 79
1 80
1 81
1 82
1 83
1 84
1 85
1 86
1 87
1 88
1 89
1 90
1 91
1 92
1 93
1 94
1 95
1 96
1 97
1 98
1 99
1 100
1 101
1 102
1 103
1 104
1 105
1 106
1 107
1 108
1 109
1 110
1 111
1 112
1 113
1 114
1 115
1 116
1 117
1 118
1 119
1 120
1 121
1 122
1 123
1 124
1 125
1 126
1 127
1 128
1 129
1 130
1 131
1 132
1 133
1 134
1 135
1 136
1 137
1 138
1 139
1 140
1 141
1 142
1 143
1 144
1 145
1 146
1 147
1 148
1 149
1 150
1 151
1 152
1 153
1 154
1 155
1 156
1 157
1 158
1 159
1 160
1 161
1 162
1 163
1 164
1 165
1 166
1 167
1 168
1 169
1 170
1 171
1 172
1 173
1 174
1 175
1 176
1 177
1 178
1 179
1 180
1 181
1 182
1 183
1 184
1 185
1 186
1 187
1 188
1 189
1 190
1 191
1 192
1 193
1 194
1 195
1 196
1 197
1 198
1 199
1 200
1 201
1 202
1 203
1 204
1 205
1 206
1 207
1 208
1 209
1 210
1 211
1 212
1 213
1 214
1 215
1 216
1 217
1 218
1 219
1 220
1 221
1 222
1 223
1 224
1 225
1 226
1 227
1 228
1 229
1 230
1 231
1 232
1 233
1 234
1 235
1 236
1 237
1 238
1 239
1 240
1 241
1 242
1 243
1 244
1 245
1 246
1 247
1 248
1 249
1 250
1 251
1 252
1 253
1 254
1 255
1 256
1 257
1 258
1 259
1 260
1 261
1 262
1 263
1 264
1 265
1 266
1 267
1 268
1 269
1 270
1 271
1 272
1 273
1 274
1 275
1 276
1 277
1 278
1 279
1 280
1 281
1 282
1 283
1 284
1 285
1 286

POINT_DATA 287
SCALARS id int 1
LOOKUP_TABLE default
1
2
3
4
5
6
7
8
9
10
11
12
13
14
15
16
17
18
19
21
22
23
24
25
26
27
28
29
30
31
32
33
34
35
36
37
38
39
41
42
44
45
46
47
48
49
50
51
52
53
54
55
56
57
59
60
61
62
63
64
65
66
67
68
69
70
71
72
73
74
76
77
78
79
80
81
82
83
84
85
86
87
88
89
90
91
92
93
94
95
96
97
98
99
100
101
102
103
104
105
106
107
108
109
110
111
112
113
114
115
116
117
118
119
120
121
122
123
124
125
126
127
128
129
130
131
132
133
134
135
136
137
138
140
141
142
143
144
146
147
148
149
150
151
153
154
155
156
157
158
159
160
162
164
165
166
167
168
169
170
171
172
173
174
175
176
177
178
179
181
182
183
184
185
186
187
188
189
190
191
192
193
194
195
196
197
198
199
200
201
202
203
204
205
206
207
208
209
210
211
212
213
214
215
216
217
218
219
220
221
222
223
224
225
226
227
228
229
230
231
232
233
234
235
236
237
239
240
241
242
243
244
246
247
248
249
250
251
252
253
254
255
256
257
258
259
260
261
262
263
264
265
266
267
268
269
270
271
272
273
274
275
276
277
278
279
280
281
282
283
284
285
286
287
288
289
290
291
292
293
294
295
296
297
298
299
300

SCALARS type int 1
LOOKUP_TABLE default
1
1
1
1
1
1
1
1
1
1
1
1
1
1
1
1
1
1
1
1
1
1
1
1
1
1
1
1
1
1
1
1
1
1
1
1
1
1
1
1
1
1
1
1
1
1
1
1
1
1
1
1
1
1
1
1
1
1
1
1
1
1
1
1
1
1
1
1
1
1
1
1
1
1
1
1
1
1
1
1
1
1
1
1
1
1
1
1
1
1
1
1
1
1
1
1
1
1
1
1
1
1
1
1
1
1
1
1
1
1
1
1
1
1
1
1
1
1
1
1
1
1
1
1
1
1
1
1
1
1
1
1
1
1
1
1
1
1
1
1
1
1
1
1
1
1
1
1
1
1
1
1
1
1
1
1
1
1
1
1
1
1
1
1
1
1
1
1
1
1
1
1
1
1
1
1
1
1
1
1
1
1
1
1
1
1
1
1
1
1
1
1
1
1
1
1
1
1
1
1
1
1
1
1
1
1
1
1
1
1
1
1
1
1
1
1
1
1
1
1
1
1
1
1
1
1
1
1
1
1
1
1
1
1
1
1
1
1
1
1
1
1
1
1
1
1
1
1
1
1
1
1
1
1
1
1
1
1
1
1
1
1
1
1
1
1
1
1
1
1
1
1
1
1
1
1
1
1
1
1
1
1
1
1
1
1
1

SCALARS radius float 1
LOOKUP_TABLE default
5e-05
5e-05
5e-05
5e-05
5e-05
5e-05
5e-05
5e-05
5e-05
5e-05
5e-05
5e-05
5e-05
5e-05
5e-05
5e-05
5e-05
5e-05
5e-05
5e-05
5e-05
5e-05
5e-05
5e-05
5e-05
5e-05
5e-05
5e-05
5e-05
5e-05
5e-05
5e-05
5e-05
5e-05
5e-05
5e-05
5e-05
5e-05
5e-05
5e-05
5e-05
5e-05
5e-05
5e-05
5e-05
5e-05
5e-05
5e-05
5e-05
5e-05
5e-05
5e-05
5e-05
5e-05
5e-05
5e-05
5e-05
5e-05
5e-05
5e-05
5e-05
5e-05
5e-05
5e-05
5e-05
5e-05
5e-05
5e-05
5e-05
5e-05
5e-05
5e-05
5e-05
5e-05
5e-05
5e-05
5e-05
5e-05
5e-05
5e-05
5e-05
5e-05
5e-05
5e-05
5e-05
5e-05
5e-05
5e-05
5e-05
5e-05
5e-05
5e-05
5e-05
5e-05
5e-05
5e-05
5e-05
5e-05
5e-05
5e-05
5e-05
5e-05
5e-05
5e-05
5e-05
5e-05
5e-05
5e-05
5e-05
5e-05
5e-05
5e-05
5e-05
5e-05
5e-05
5e-05
5e-05
5e-05
5e-05
5e-05
5e-05
5e-05
5e-05
5e-05
5e-05
5e-05
5e-05
5e-05
5e-05
5e-05
5e-05
5e-05
5e-05
5e-05
5e-05
5e-05
5e-05
5e-05
5e-05
5e-05
5e-05
5e-05
5e-05
5e-05
5e-05
5e-05
5e-05
5e-05
5e-05
5e-05
5e-05
5e-05
5e-05
5e-05
5e-05
5e-05
5e-05
5e-05
5e-05
5e-05
5e-05
5e-05
5e-05
5e-05
5e-05
5e-05
5e-05
5e-05
5e-05
5e-05
5e-05
5e-05
5e-05
5e-05
5e-05
5e-05
5e-05
5e-05
5e-05
5e-05
5e-05
5e-05
5e-05
5e-05
5e-05
5e-05
5e-05
5e-05
5e-05
5e-05
5e-05
5e-05
5e-05
5e-05
5e-05
5e-05
5e-05
5e-05
5e-05
5e-05
5e-05
5e-05
5e-05
5e-05
5e-05
5e-05
5e-05
5e-05
5e-05
5e-05
5e-05
5e-05
5e-05
5e-05
5e-05
5e-05
5e-05
5e-05
5e-05
5e-05
5e-05
5e-05
5e-05
5e-05
5e-05
5e-05
5e-05
5e-05
5e-05
5e-05
5e-05
5e-05
5e-05
5e-05
5e-05
5e-05
5e-05
5e-05
5e-05
5e-05
5e-05
5e-05
5e-05
5e-05
5e-05
5e-05
5e-05
5e-05
5e-05
5e-05
5e-05
5e-05
5e-05
5e-05
5e-05
5e-05
5e-05
5e-05
5e-05
5e-05
5e-05
5e-05
5e-05
5e-05
5e-05
5e-05
5e-05
5e-05
5e-05
5e-05
5e-05
5e-05
5e-05
5e-05
5e-05
5e-05
5e-05
5e-05
5e-05
5e-05
5e-05
5e-05
5e-05
5e-05
5e-05
5e-05
5e-05

SCALARS mass float 1
LOOKUP_TABLE default
1.46608e-10
1.46608e-10
1.46608e-10
1.46608e-10
1.46608e-10
1.46608e-10
1.46608e-10
1.46608e-10
1.46608e-10
1.46608e-10
1.46608e-10
1.46608e-10
1.46608e-10
1.46608e-10
1.46608e-10
1.46608e-10
1.46608e-10
1.46608e-10
1.46608e-10
1.46608e-10
1.46608e-10
1.46608e-10
1.46608e-10
1.46608e-10
1.46608e-10
1.46608e-10
1.46608e-10
1.46608e-10
1.46608e-10
1.46608e-10
1.46608e-10
1.46608e-10
1.46608e-10
1.46608e-10
1.46608e-10
1.46608e-10
1.46608e-10
1.46608e-10
1.46608e-10
1.46608e-10
1.46608e-10
1.46608e-10
1.46608e-10
1.46608e-10
1.46608e-10
1.46608e-10
1.46608e-10
1.46608e-10
1.46608e-10
1.46608e-10
1.46608e-10
1.46608e-10
1.46608e-10
1.46608e-10
1.46608e-10
1.46608e-10
1.46608e-10
1.46608e-10
1.46608e-10
1.46608e-10
1.46608e-10
1.46608e-10
1.46608e-10
1.46608e-10
1.46608e-10
1.46608e-10
1.46608e-10
1.46608e-10
1.46608e-10
1.46608e-10
1.46608e-10
1.46608e-10
1.46608e-10
1.46608e-10
1.46608e-10
1.46608e-10
1.46608e-10
1.46608e-10
1.46608e-10
1.46608e-10
1.46608e-10
1.46608e-10
1.46608e-10
1.46608e-10
1.46608e-10
1.46608e-10
1.46608e-10
1.46608e-10
1.46608e-10
1.46608e-10
1.46608e-10
1.46608e-10
1.46608e-10
1.46608e-10
1.46608e-10
1.46608e-10
1.46608e-10
1.46608e-10
1.46608e-10
1.46608e-10
1.46608e-10
1.46608e-10
1.46608e-10
1.46608e-10
1.46608e-10
1.46608e-10
1.46608e-10
1.46608e-10
1.46608e-10
1.46608e-10
1.46608e-10
1.46608e-10
1.46608e-10
1.46608e-10
1.46608e-10
1.46608e-10
1.46608e-10
1.46608e-10
1.46608e-10
1.46608e-10
1.46608e-10
1.46608e-10
1.46608e-10
1.46608e-10
1.46608e-10
1.46608e-10
1.46608e-10
1.46608e-10
1.46608e-10
1.46608e-10
1.46608e-10
1.46608e-10
1.46608e-10
1.46608e-10
1.46608e-10
1.46608e-10
1.46608e-10
1.46608e-10
1.46608e-10
1.46608e-10
1.46608e-10
1.46608e-10
1.46608e-10
1.46608e-10
1.46608e-10
1.46608e-10
1.46608e-10
1.46608e-10
1.46608e-10
1.46608e-10
1.46608e-10
1.46608e-10
1.46608e-10
1.46608e-10
1.46608e-10
1.46608e-10
1.46608e-10
1.46608e-10
1.46608e-10
1.46608e-10
1.46608e-10
1.46608e-10
1.46608e-10
1.46608e-10
1.46608e-10
1.46608e-10
1.46608e-10
1.46608e-10
1.46608e-10
1.46608e-10
1.46608e-10
1.46608e-10
1.46608e-10
1.46608e-10
1.46608e-10
1.46608e-10
1.46608e-10
1.46608e-10
1.46608e-10
1.46608e-10
1.46608e-10
1.46608e-10
1.46608e-10
1.46608e-10
1.46608e-10
1.46608e-10
1.46608e-10
1.46608e-10
1.46608e-10
1.46608e-10
1.46608e-10
1.46608e-10
1.46608e-10
1.46608e-10
1.46608e-10
1.46608e-10
1.46608e-10
1.46608e-10
1.46608e-10
1.46608e-10
1.46608e-10
1.46608e-10
1.46608e-10
1.46608e-10
1.46608e-10
1.46608e-10
1.46608e-10
1.46608e-10
1.46608e-10
1.46608e-10
1.46608e-10
1.46608e-10
1.46608e-10
1.46608e-10
1.46608e-10
1.46608e-10
1.46608e-10
1.46608e-10
1.46608e-10
1.46608e-10
1.46608e-10
1.46608e-10
1.46608e-10
1.46608e-10
1.46608e-10
1.46608e-10
1.46608e-10
1.46608e-10
1.46608e-10
1.46608e-10
1.46608e-10
1.46608e-10
1.46608e-10
1.46608e-10
1.46608e-10
1.46608e-10
1.46608e-10
1.46608e-10
1.46608e-10
1.46608e-10
1.46608e-10
1.46608e-10
1.46608e-10
1.46608e-10
1.46608e-10
1.46608e-10
1.46608e-10
1.46608e-10
1.46608e-10
1.46608e-10
1.46608e-10
1.46608e-10
1.46608e-10
1.46608e-10
1.46608e-10
1.46608e-10
1.46608e-10
1.46608e-10
1.46608e-10
1.46608e-10
1.46608e-10
1.46608e-10
1.46608e-10
1.46608e-10
1.46608e-10
1.46608e-10
1.46608e-10
1.46608e-10
1.46608e-10
1.46608e-10
1.46608e-10
1.46608e-10
1.46608e-10
1.46608e-10
1.46608e-10
1.46608e-10
1.46608e-10
1.46608e-10
1.46608e-10
1.46608e-10
1.46608e-10
1.46608e-10
1.46608e-10
1.46608e-10
1.46608e-10
1.46608e-10
1.46608e-10

VECTORS velocity float
0.00579515 1.40523e-05 0.000644309
0.00546779 -0.000233627 -0.000545214
0.00609108 0.000314387 -7.75288e-05
0.00562196 -6.24222e-05 0.00040131
0.0057282 -0.000518643 0.000285134
0.00545832 -0.000579387 0.0006758
0.00538211 9.07724e-05 0.000332799
0.00590542 0.000917061 0.000757455
0.00577603 -0.000636493 0.00072447
0.00566397 3.36884e-05 0.000371539
0.00558851 -0.000317972 -0.000486013
0.00563114 0.000156057 -0.000245907
0.00571977 -0.000903672 3.18124e-05
0.00609617 0.000138669 -0.000257492
0.00542089 4.77627e-06 0.00036691
0.00608522 0.000250649 -8.83582e-05
0.0057291 6.63703e-06 0.0003916
0.00533171 -0.00056017 0.000657881
0.00587695 -0.00135398 -9.49483e-05
0.00576687 -0.000120716 0.000579895
0.0054429 6.5804e-05 0.000331423
0.00567918 0.000374692 0.000100691
0.00566085 -0.000615637 0.000706699
0.00539625 8.69736e-05 0.000338202
0.00530105 -0.000554641 0.000653204
0.00569973 0.000393471 9.34455e-05
0.00560194 -6.43533e-05 0.00040019
0.00588801 -0.00128793 -7.26869e-05
0.00551841 -5.72534e-05 0.000396059
0.00543337 7.19985e-05 0.000319137
0.00535638 -2.86575e-05 0.000365386
0.00545659 -0.000579106 0.000675602
0.00573638 3.9243e-07 0.000447971
0.00541041 -3.29164e-05 0.000398783
0.00585287 -0.000650148 0.000736127
0.00549855 -1.86152e-05 -0.000125632
0.00551869 -0.000625141 -0.00175731
0.00569929 -0.000622608 0.000712679
0.00577769 6.91423e-06 0.000610225
0.00546361 5.21458e-05 0.000340173
0.00549961 -0.000288783 -0.000484175
0.00545497 -0.000578911 0.000675328
0.00533133 -0.000559786 0.000657651
0.00575223 -2.94924e-06 0.00051625
0.00551721 2.60072e-05 0.000359726
0.00533128 -0.000559641 0.000657558
0.00561969 -1.66321e-05 0.000386274
0.00558762 -2.65579e-06 0.000381719
0.00563236 0.000161179 -0.000284902
0.00533166 -0.000560346 0.000657868
0.00573449 -0.000440511 0.000415393
0.00609657 0.000316971 -7.88813e-05
0.00535668 0.000112238 0.000309059
0.00530259 -0.00055484 0.000653332
0.00524998 -0.00032687 -0.000486338
0.00515677 -0.000222217 -0.000483152
0.00573107 -9.68374e-05 0.000524566
0.00548187 -3.55546e-05 0.00038222
0.0055207 -3.8606e-05 0.000386681
0.00533208 -0.000560736 0.000658126
0.00563597 0.000204956 -0.000257283
0.00577956 0.000234665 -0.000229916
0.00548748 -0.000314001 -0.000505761
0.00557707 -9.05536e-05 0.000404411
0.00462247 0.000134643 3.11743e-05
0.00573761 -0.000629553 0.000718518
0.00609754 0.000321011 -9.87543e-05
0.00555875 -7.89574e-05 0.000401118
0.005509 6.36679e-05 0.000347445
0.0053868 -6.66958e-05 0.00038116
0.0062204 0.000357179 0.000134667
0.00576741 -5.02428e-05 0.000404207
0.00590082 0.000333262 -0.0001152
0.00565204 0.000176623 -0.000226004
0.00569692 -3.74005e-05 0.000397826
0.00576756 0.000152476 -0.000263239
0.00567875 0.00035806 0.000113574
0.00587917 0.000395561 -0.000196101
0.00581443 -0.000643378 0.000730288
0.0057791 0.000342368 -0.000134371
0.00557512 -4.89272e-05 0.000393314
0.00538997 -0.000469147 -0.000471761
0.00576031 -6.18189e-05 0.000409051
0.00570962 -5.03253e-05 0.00040214
0.00565125 -0.000384348 -0.000524752
0.00567388 0.000247388 -0.000279258
0.00567334 -6.98243e-05 0.000405697
0.00569224 -5.67679e-05 0.000399928
0.00567628 -6.0067e-05 0.000401101
0.00566752 -3.49507e-05 0.000395563
0.00568091 -7.39803e-05 0.000408558
0.00571465 0.000316745 -0.000107372
0.00577693 -5.88896e-05 0.000405256
0.00562142 0.00021329 -0.0002612
0.00545398 -0.000424287 -0.000657537
0.00578074 0.000318894 -0.000107035
4.36388e-15 1.05165e-14 8.29526e-14
3.39597e-22 -1.27651e-22 -5.81428e-22
0.00579809 0.000353812 0.000117855
0.0057981 0.000324049 -0.000103584
0.00590842 0.000324759 0.000132303
0.00580693 0.000336432 -0.000127181
0.0056624 -0.000153498 -0.000541858
0.00554892 1.25186e-05 0.000375492
0.00568153 -8.7755e-05 0.000411695
0.00586707 -9.3182e-06 0.00040213
0.00575887 0.000227403 -0.000186641
0.0060339 0.00015812 0.00019509
0.00566491 0.000380088 0.000105301
0.00549579 -3.78483e-06 0.000372296
0.00565138 -0.00016985 -0.000508006
0.00572998 -0.000772298 0.000293278
0.00605951 0.000312653 -8.06117e-05
0.00549893 -0.000227898 -0.000359801
0.00584796 -0.000603555 0.000157519
0.00585137 0.000924225 0.00072839
0.00570054 -8.86221e-05 0.000412996
0.00585087 0.000324402 -0.000106375
0.00569576 -5.41064e-05 0.0004023
0.00577264 -0.000981134 0.000238618
0.00549729 4.33212e-05 0.000355776
0.0057538 0.000342781 -9.0995e-05
0.00563839 -3.02822e-05 0.000393088
0.00570412 -5.55379e-05 0.000397013
0.00567398 0.000376164 0.000107673
0.00567972 0.000221863 -0.000262917
0.00566477 -6.65239e-05 0.000404916
0.00578689 2.51149e-05 0.000640375
0.00536374 -0.000860056 -0.00285771
0.0058037 -0.000999821 0.000254741
0.00572476 0.000353362 -0.000149851
0.00589468 1.20849e-06 0.000398548
0.00552835 -0.000289979 -0.000518472
0.00564479 -8.04109e-05 0.00040755
0.00581407 0.000332008 -0.000118106
0.00564545 0.000375945 0.000104639
0.0058306 0.000317454 -0.000104961
0.00569011 0.000366432 0.000104198
0.00583529 0.000379023 -0.000194915
0.0061018 0.000317626 -8.37038e-05
0.0056668 0.000381027 0.000103471
0.00564358 -8.90876e-05 0.000409565
0.00562593 0.000235141 -0.000272445
0.0058546 0.000255555 0.000154273
0.00585258 0.000318873 -9.71262e-05
0.00566508 0.000373805 0.000105794
0.00622471 0.000285477 0.000159003
0.00566474 0.000375301 0.000104523
-3.83418e-14 8.16398e-14 2.95894e-13
0.0060135 0.000323878 0.000137081
0.00561426 -7.3171e-05 0.000401021
0.00622336 0.000378645 0.000127994
0.00565897 0.00037683 0.000104815
0.00627369 0.000309077 0.000152562
0.00611535 0.000236375 0.000171201
0.00552935 -0.000882277 6.60076e-05
0.00575624 0.000304499 -0.000308974
0.00603157 0.000308988 0.000143162
0.00601927 0.000133999 0.000202589
0.00618418 0.000297208 0.000153955
0.00582239 2.49758e-05 0.000656083
0.00605263 0.000223568 0.000173495
0.00530378 -0.00055332 -0.00045368
0.00620693 0.000324717 0.000143972
0.00559401 0.000244159 0.000146465
0.00566028 0.000379753 0.000104258
0.00624577 0.000268101 0.000164598
0.0059776 0.000176628 0.000186482
0.00621626 0.000259972 0.000167565
0.00564951 0.000373263 0.0001054
0.00575663 7.31028e-06 0.000564094
0.00612307 0.000299993 0.000150119
0.00562455 -7.87879e-05 0.000402783
0.00567407 0.00039488 9.89582e-05
0.00565983 0.000378162 0.00010393
0.00506555 -0.000313498 -0.000464133
0.00564942 -9.03068e-05 0.00041152
0.00828843 0.0019693 -0.00243199
0.00558775 0.000237591 0.000149291
0.00593203 1.25595e-05 0.000398066
0.00573331 0.00034656 0.000118083
0.00533669 -0.00048569 -0.000466716
0.00564261 0.00018477 -0.000242166
0.00612501 0.000230785 0.000173836
0.00607531 0.000246804 -7.43016e-05
0.00617091 0.000359411 -0.000281759
0.00567505 0.000411388 9.32465e-05
0.00619815 0.000352165 0.000135511
0.0056903 0.000371994 8.77683e-05
0.00629876 0.000377514 0.000130836
0.00580196 0.000338756 0.000123709
0.00552934 -0.000386312 -0.000495368
0.00568112 0.00032919 1.23995e-05
0.00626252 0.000305533 0.000153656
0.00623371 0.000310868 0.00015103
0.00587698 0.000316187 -9.77508e-05
0.00616281 0.000304567 0.000150186
0.00568022 0.000220114 -0.000274463
0.00538451 6.7966e-05 0.000324856
0.00570772 -6.96254e-05 0.000408779
0.00620806 0.000307609 0.000150739
0.0053791 -0.00039056 -0.000480532
0.00570468 -6.11162e-05 0.000406178
0.00558926 0.000245698 0.000145582
0.0062132 0.000253657 0.000168229
0.00460135 -0.00386619 -0.0105511
0.00628822 0.000318594 0.000150758
0.00583884 -3.04081e-05 0.000406065
0.00619035 0.000354867 0.000134685
0.00559437 0.000231163 0.000152457
0.00521051 -0.0012361 -0.000626535
0.00566379 0.000370423 0.000106997
0.00567186 0.000352283 0.000113467
0.00562982 -0.000341389 -0.00052128
0.00595186 0.000242414 0.000162176
0.0055841 0.000226027 0.000154001
0.0055946 0.000245947 0.000146035
0.00568124 0.000368785 0.000111386
0.00634687 0.000329946 0.000150952
0.00559435 0.000244267 0.000146781
0.00594773 0.000382977 -0.000178388
0.0056792 0.000314763 1.36063e-05
0.00570724 -8.58449e-05 0.000413055
0.0064483 0.000635119 -0.000883474
0.00637573 0.000321198 0.000144833
0.00632908 0.000280968 0.000168339
0.00572736 0.000213333 0.000166353
0.00556165 0.000237782 0.000148037
0.00572942 0.000214418 0.000166008
0.00568573 0.00035166 0.000113654
0.00566469 0.000249975 -0.00014912
0.00556694 0.000239237 0.000147638
0.00559143 0.00022854 0.000153421
0.00625562 0.000308659 0.000153013
0.00618424 0.000279724 0.000159578
0.00738007 0.00232278 -0.00130533
0.00625195 0.000295338 0.00015648
0.00566224 -8.54724e-05 0.000410513
0.00644524 0.000997808 -0.000612696
0.00558907 0.000228859 0.000153339
0.00559256 0.000229277 0.000153177
0.00608252 0.000320584 -8.81094e-05
0.00625094 0.000307283 0.000152768
0.0063298 0.000312303 0.00013425
0.0063123 0.000316892 0.000151938
0.00649993 0.000982216 -0.000605594
0.00568275 0.000365434 0.000107812
0.0061467 0.000152992 -0.000300098
0.00626114 0.000293432 0.000158637
0.00559343 0.000230622 0.000152655
0.00637563 0.000379104 3.79442e-06
0.006064 0.00016574 0.000202671
0.0057552 0.000272782 0.000144527
0.00634395 0.000347097 0.000141739
0.00571409 0.00032642 5.87909e-05
0.00632364 0.000319969 0.000150253
0.00561076 -8.36673e-05 0.000405281
0.00625215 0.000304245 0.000153761
0.00649948 0.00098174 -0.000605339
0.00635666 0.000340276 -0.000676552
0.00655612 0.000965571 -0.000597966
0.00631355 0.000328867 0.000145999
0.00630907 0.00033955 0.000145767
0.00634784 0.000307636 -0.000257841
0.00625081 0.000320335 0.000148158
0.00559052 0.000245497 0.000145901
0.00558365 0.000243501 0.000146696
0.00567974 0.000345858 0.000110891
0.0055934 0.00023083 0.000152564
0.00556437 0.000238647 0.000147804
0.00638303 0.000317638 -6.6966e-05
0.00637335 0.000342099 0.000137317
0.00638007 0.00033696 2.99146e-05
0.00626406 0.000296506 0.000155979
0.00637253 0.000314406 -0.000377777
0.00563837 0.000190393 -0.000255288
0.00569796 0.000353044 0.000115843
0.00624905 0.000318019 0.000149258
0.00596471 0.000386437 -0.000177968
0.00625055 0.000310986 0.000151888
0.00585997 0.000382834 -0.000218666
0.0055782 0.000237986 0.000148739
0.00621155 0.000436152 8.05676e-05
0.00529836 -0.000417143 -0.000470368
0.00555978 0.000237151 0.000148262
0.00638994 0.00101802 -0.000622158
0.00543692 -7.95667e-05 0.000352223

VECTORS force float
-3.72447e-11 2.24068e-11 5.31191e-11
6.57748e-11 2.7663e-10 -1.73247e-11
-3.07927e-11 1.77963e-10 -3.03826e-10
3.70729e-11 -2.04488e-11 2.20753e-11
7.90614e-11 -6.14541e-11 -6.74672e-11
9.53724e-13 1.05613e-13 -1.8913e-13
-1.63988e-10 2.10365e-10 -2.04323e-10
2.62024e-10 1.17763e-10 4.46985e-11
1.58382e-12 -1.38932e-12 -3.70482e-13
2.98097e-11 2.24953e-10 -4.19266e-11
-1.99984e-11 -2.9491e-10 -7.64912e-11
1.69624e-10 -3.52474e-10 3.09413e-10
-9.22691e-11 1.10781e-10 5.5567e-11
1.97391e-10 -1.4901e-10 -1.04717e-09
-2.7288e-10 2.54969e-10 -1.14563e-10
-2.8154e-11 4.24185e-10 -6.08455e-10
-2.83266e-12 2.32985e-10 -1.24169e-10
4.13187e-12 1.79056e-12 2.32572e-12
-8.81244e-11 -6.62309e-12 1.60417e-11
8.55364e-11 -6.68165e-11 -1.73886e-11
-3.011e-10 3.00558e-11 1.09938e-10
1.27252e-10 -7.71937e-12 -1.77901e-10
6.07507e-13 2.59945e-13 1.17975e-12
-1.24083e-10 2.19531e-10 -1.74915e-10
7.02008e-13 6.92865e-13 6.66756e-13
1.53705e-11 2.03312e-10 -1.33938e-10
-8.38288e-11 -8.15523e-12 -5.51366e-11
6.03317e-11 -9.61992e-11 -1.04848e-10
2.66578e-10 -8.55099e-11 2.21174e-10
-3.14341e-10 8.00793e-11 6.46322e-11
-1.9817e-10 3.20164e-11 -4.48739e-11
9.6768e-13 -9.6606e-14 4.31917e-13
8.7257e-11 1.31909e-10 -9.51356e-11
-5.83133e-10 2.60252e-10 -3.15583e-10
6.67526e-13 -4.96835e-13 4.8315e-13
-3.93183e-10 3.50746e-11 -5.85429e-10
-7.60226e-10 -3.28681e-10 -9.61498e-10
2.61676e-12 -2.13972e-12 -3.12828e-12
-1.04647e-10 -6.62439e-12 3.8854e-12
-3.59431e-10 -1.17867e-10 3.09624e-10
-1.04269e-09 3.40365e-10 1.11355e-09
3.738e-13 9.15229e-13 -3.48826e-13
-2.9328e-12 -1.15375e-13 -2.29108e-12
5.91576e-12 -9.84495e-11 -3.45943e-10
1.39778e-10 4.84e-11 9.63525e-12
1.55577e-12 1.40368e-12 7.77165e-14
4.77348e-11 3.06537e-10 -1.00326e-10
-7.29611e-11 1.95595e-10 3.96503e-11
3.85332e-10 -3.38376e-10 4.65072e-10
-2.05621e-12 -6.77922e-13 -2.29935e-12
3.98096e-11 3.24795e-11 -6.22755e-11
-1.10141e-11 2.35271e-10 -3.30764e-10
-5.54638e-10 3.30764e-10 5.00907e-10
1.03234e-12 -1.20671e-13 -4.77411e-13
-3.34514e-10 2.32609e-10 1.47851e-11
8.78766e-11 2.01775e-12 -1.16945e-10
-1.34407e-11 1.24237e-10 4.93207e-12
-5.97541e-11 1.10999e-10 2.43728e-10
-1.87756e-10 4.40287e-12 -1.28128e-11
2.34463e-13 1.69247e-12 9.41557e-13
1.91794e-10 -1.51473e-10 9.97524e-11
-2.30135e-10 -2.3966e-10 2.04995e-10