# vtk DataFile Version 3.0
LIGGGHTS particles timestep 29000000
ASCII
DATASET POLYDATA
POINTS 271 float
0.181557 0.0153585 0.0087347
0.182454 0.0178154 0.00703245
0.176595 0.0180458 0.00705545
0.182488 0.0175615 0.00708852
0.181537 0.015284 0.00879833
0.187984 0.0169572 0.00747239
0.181636 0.0156536 0.00847648
0.181517 0.0152095 0.00886197
0.18811 0.0174525 0.0071584
0.182108 0.0174414 0.00713467
0.182243 0.017658 0.00706659
0.175714 0.0159272 0.00819611
0.181466 0.0151538 0.00915221
0.17638 0.0187624 0.00685887
0.182469 0.0174731 0.00713274
0.17649 0.0188171 0.00684368
0.182508 0.0176526 0.00705244
0.181503 0.0151912 0.00895923
0.18207 0.0172658 0.00722251
0.182279 0.0174147 0.00715937
0.175951 0.0164389 0.00769133
0.188186 0.0178043 0.00699655
0.181695 0.0158718 0.00827917
0.18807 0.0172871 0.0072633
0.176723 0.0181903 0.00701194
0.182412 0.0176216 0.00706213
0.181656 0.0157263 0.00841067
0.182168 0.0177242 0.00706117
0.181715 0.0159445 0.00821351
0.182153 0.0168862 0.00741892
0.188005 0.0170397 0.00742012
0.181616 0.0155811 0.00854252
0.182314 0.0171787 0.00727641
0.188166 0.0177076 0.00701155
0.182365 0.0182394 0.00697748
0.182423 0.0185306 0.00693306
0.188207 0.017901 0.00698155
0.182528 0.0177493 0.00703763
0.321436 0.0173475 0.00552525
0.182433 0.0177186 0.00704726
0.188027 0.0171222 0.00736784
0.181577 0.015433 0.00867108
0.182404 0.0184333 0.00694789
0.181755 0.0160898 0.00808206
0.181734 0.0160178 0.00814833
0.175635 0.0156476 0.00847105
0.188146 0.0176185 0.00705288
0.18225 0.0181116 0.00700188
0.175576 0.0154378 0.00867733
0.182384 0.0183363 0.00696269
0.188048 0.0172046 0.00731557
0.18226 0.0173252 0.00719975
0.182034 0.0167699 0.00747342
0.182648 0.0183325 0.00694857
0.182449 0.0173854 0.00717658
0.188227 0.0179977 0.00696655
0.175895 0.0165557 0.00757809
0.175557 0.0153679 0.00874606
0.182399 0.0179788 0.00701237
0.182197 0.0170613 0.00733155
0.18227 0.0182086 0.00698709
0.188091 0.0173696 0.00721102
0.175615 0.0155777 0.00853982
0.182305 0.0179484 0.00702193
0.182329 0.0184993 0.00694273
0.182459 0.0182703 0.00696786
0.176622 0.018559 0.00690973
0.182334 0.017267 0.00723231
0.176361 0.0186676 0.0068845
0.175674 0.0157874 0.00833358
0.182494 0.0180096 0.00700277
0.176551 0.0188959 0.00683292
0.175733 0.0159972 0.00812734
0.176428 0.0185219 0.00692422
0.188129 0.0175355 0.00710568
0.176615 0.0181414 0.007028
0.182549 0.0178461 0.00702283
0.182498 0.0184646 0.00693822
0.181919 0.0166735 0.0075606
0.182479 0.0183673 0.00695307
0.182338 0.0176886 0.00705749
0.176655 0.018332 0.00697327
0.182439 0.0181734 0.00698265
0.181796 0.0162349 0.0079508
0.182223 0.0175601 0.00708135
0.182184 0.0173836 0.00716705
0.181816 0.0163077 0.0078851
0.176014 0.0166522 0.00749016
0.182318 0.0175935 0.00708089
0.176121 0.0171122 0.00732929
0.182554 0.0183012 0.00695824
0.175694 0.0158574 0.00826482
0.0643568 0.0187248 0.00531097
0.24257 0.0191927 0.00520306
0.17633 0.0180507 0.00705953
0.176669 0.0179808 0.00707229
0.176554 0.0178561 0.00710994
0.176533 0.0177616 0.00713711
0.18229 0.0183055 0.0069723
0.182429 0.0172972 0.00722068
0.181836 0.0163802 0.00781942
0.182165 0.0172954 0.00721119
0.17639 0.0183331 0.0069784
0.17598 0.0168928 0.00739425
0.176343 0.0185731 0.0069115
0.182393 0.0175306 0.00710051
0.18223 0.0180148 0.00701668
0.182367 0.0186933 0.00691317
0.176189 0.0178262 0.00712594
0.182354 0.0173552 0.00718821
0.181675 0.0157992 0.00834511
0.181597 0.0155076 0.00860738
0.182123 0.0171201 0.00729875
0.176149 0.0176441 0.00717826
0.182144 0.0172075 0.00725509
0.182443 0.0186277 0.00691827
0.182057 0.0168575 0.00742974
0.17669 0.0180766 0.00704477
0.182101 0.0170322 0.00734261
0.182264 0.0177549 0.00705159
0.176575 0.0179501 0.00708292
0.182359 0.0177852 0.00704198
0.182127 0.0175293 0.007091
0.182079 0.0169449 0.00738615
0.181484 0.0151708 0.0090554
0.176399 0.0188575 0.00683438
0.181774 0.0161631 0.00801673
0.18221 0.0179181 0.00703149
0.182298 0.0175007 0.00711199
0.176409 0.0184275 0.00695131
0.17613 0.0175499 0.00720531
0.175596 0.0155077 0.00860857
0.176249 0.0181087 0.00706584
0.176465 0.0187109 0.00687001
0.17622 0.0171251 0.00732361
0.181941 0.0167536 0.0075048
0.0100679 0.0201683 0.00551526
0.176088 0.017362 0.00725931
0.176437 0.0190515 0.00680446
0.17621 0.0179236 0.00711761
0.176415 0.0176363 0.007175
0.176371 0.0182388 0.00700548
0.0219312 0.0187687 0.00551176
0.176647 0.0184657 0.0069356
0.182573 0.0183986 0.0069434
0.176228 0.0180111 0.00707283
0.176513 0.0189871 0.00681712
0.176078 0.0169245 0.00738327
0.176426 0.0180799 0.0070493
0.182309 0.0184024 0.00695752
0.176159 0.0172012 0.00730334
0.176619 0.0188244 0.00684652
0.176501 0.0180151 0.00706607
0.182189 0.0178212 0.00704632
0.176405 0.0179858 0.00707632
0.182474 0.0179124 0.00701761
0.176438 0.0177324 0.00714733
0.169908 0.0167343 0.00781731
0.176257 0.0173266 0.00726585
0.176183 0.0173917 0.00724895
0.176268 0.0177676 0.00714086
0.176541 0.0186476 0.00688635
0.182148 0.0176263 0.00707616
0.17648 0.0179209 0.00709314
0.182203 0.0174714 0.00712313
0.176066 0.0172683 0.00728628
0.182049 0.0171784 0.00726615
0.182175 0.0169735 0.00737537
0.182379 0.017882 0.00702717
0.170214 0.0179945 0.00726851
0.182218 0.0171489 0.00728786
0.176385 0.0178911 0.00710356
0.182374 0.0174429 0.00714435
0.161461 0.0182058 0.00533758
0.176579 0.0183954 0.00695689
0.175971 0.0165089 0.0076228
0.169981 0.0170371 0.00768543
0.176418 0.0189545 0.00681942
0.176324 0.0184787 0.0069386
0.175959 0.0167991 0.00742161
0.176466 0.0182697 0.00699479
0.181857 0.0164536 0.00775468
0.175655 0.0157175 0.00840235
0.176541 0.018206 0.00701125
0.176035 0.0167365 0.00743735
0.176162 0.0172974 0.00727607
0.176352 0.0181445 0.00703255
0.172851 0.0168065 0.0079573
0.182089 0.0173536 0.00717859
0.182027 0.017091 0.00730982
0.176485 0.0183642 0.00696766
0.182345 0.0181424 0.00699228
0.181962 0.0168364 0.00745312
0.170192 0.017905 0.00730749
0.176446 0.0181751 0.00702193
0.182348 0.0185963 0.00692795
0.175753 0.0160674 0.00805895
0.181899 0.0165977 0.00762262
0.17656 0.0183006 0.00698408
0.236151 0.0176469 0.00705591
0.182419 0.018076 0.00699752
0.176311 0.0179561 0.0070867
0.113015 0.0181971 0.00769763
0.182239 0.0172372 0.00724376
0.176109 0.0174569 0.00723563
0.170197 0.01757 0.00744975
0.169932 0.0168317 0.00777491
0.176522 0.0185532 0.00691344
0.175916 0.0166262 0.00751016
0.169886 0.0166448 0.00785628
0.176305 0.0183843 0.00696568
0.182284 0.0178516 0.00703675
0.176521 0.0181105 0.00703867
0.175875 0.016486 0.00764678
0.175834 0.0163477 0.00778529
0.16969 0.0157952 0.00822348
0.169709 0.0158712 0.00816143
0.169771 0.0161708 0.00806271
0.17617 0.0177419 0.00717646
0.169726 0.0159667 0.00813718
0.169861 0.0165392 0.00790226
0.176704 0.0186139 0.00689251
0.175938 0.016708 0.00745738
0.17017 0.0178155 0.00734646
0.176254 0.0172304 0.00729312
0.181878 0.0165252 0.00768824
0.170034 0.0172546 0.00759072
0.170235 0.018084 0.00722954
0.16983 0.0164125 0.00795743
0.176267 0.0181956 0.00701984
0.176363 0.0177971 0.00713055
0.176319 0.0176097 0.00718448
0.176224 0.0175799 0.00719488
0.170059 0.0173581 0.00754564
0.176024 0.0170803 0.00734031
0.175812 0.0162767 0.0078525
0.1698 0.016289 0.00801122
0.176521 0.0191058 0.00679835
0.169956 0.0169327 0.0077309
0.176288 0.0178619 0.00711379
0.175992 0.0165798 0.00755544
0.176002 0.0169868 0.00736762
0.176299 0.0175156 0.00721153
0.181983 0.0169164 0.00739689
0.176559 0.0187458 0.00685856
0.170103 0.0175373 0.00746762
0.175773 0.0161368 0.00799
0.170081 0.0174478 0.00750659
0.176057 0.0168305 0.0074103
0.176045 0.0171746 0.00731391
0.176244 0.0176744 0.00716774
0.176638 0.0186867 0.00687329
0.170127 0.0176365 0.00742441
0.16967 0.0157221 0.00828877
0.176101 0.0170181 0.00735632
0.176459 0.0178263 0.00712033
0.176503 0.0184587 0.00694054
0.176343 0.0177031 0.00715758
0.176279 0.0174208 0.00723876
0.17593 0.0163692 0.00775991
0.176446 0.0186164 0.00689712
0.176204 0.0174857 0.00722194
0.176286 0.0182899 0.00699276
0.176635 0.0182369 0.00700056
0.175793 0.0162071 0.0079215
0.170148 0.017726 0.00738544
0.175854 0.0164163 0.00771539
0.182325 0.0180452 0.00700712
0.169745 0.0160616 0.00811027
0.170008 0.017145 0.00763844
0.182005 0.0170038 0.00735344

VERTICES 271 542
1 0
1 1
1 2
1 3
1 4
1 5
1 6
1 7
1 8
1 9
1 10
1 11
1 12
1 13
1 14
1 15
1 16
1 17
1 18
1 19
1 20
1 21
1 22
1 23
1 24
1 25
1 26
1 27
1 28
1 29
1 30
1 31
1 32
1 33
1 34
1 35
1 36
1 37
1 38
1 39
1 40
1 41
1 42
1 43
1 44
1 45
1 46
1 47
1 48
1 49
1 50
1 51
1 52
1 53
1 54
1 55
1 56
1 57
1 58
1 59
1 60
1 61
1 62
1 63
1 64
1 65
1 66
1 67
1 68
1 69
1 70
1 71
1 72
1 73
1 74
1 75
1 76
1 77
1 78
1 79
1 80
1 81
1 82
1 83
1 84
1 85
1 86
1 87
1 88
1 89
1 90
1 91
1 92
1 93
1 94
1 95
1 96
1 97
1 98
1 99
1 100
1 101
1 102
1 103
1 104
1 105
1 106
1 107
1 108
1 109
1 110
1 111
1 112
1 113
1 114
1 115
1 116
1 117
1 118
1 119
1 120
1 121
1 122
1 123
1 124
1 125
1 126
1 127
1 128
1 129
1 130
1 131
1 132
1 133
1 134
1 135
1 136
1 137
1 138
1 139
1 140
1 141
1 142
1 143
1 144
1 145
1 146
1 147
1 148
1 149
1 150
1 151
1 152
1 153
1 154
1 155
1 156
1 157
1 158
1 159
1 160
1 161
1 162
1 163
1 164
1 165
1 166
1 167
1 168
1 169
1 170
1 171
1 172
1 173
1 174
1 175
1 176
1 177
1 178
1 179
1 180
1 181
1 182
1 183
1 184
1 185
1 186
1 187
1 188
1 189
1 190
1 191
1 192
1 193
1 194
1 195
1 196
1 197
1 198
1 199
1 200
1 201
1 202
1 203
1 204
1 205
1 206
1 207
1 208
1 209
1 210
1 211
1 212
1 213
1 214
1 215
1 216
1 217
1 218
1 219
1 220
1 221
1 222
1 223
1 224
1 225
1 226
1 227
1 228
1 229
1 230
1 231
1 232
1 233
1 234
1 235
1 236
1 237
1 238
1 239
1 240
1 241
1 242
1 243
1 244
1 245
1 246
1 247
1 248
1 249
1 250
1 251
1 252
1 253
1 254
1 255
1 256
1 257
1 258
1 259
1 260
1 261
1 262
1 263
1 264
1 265
1 266
1 267
1 268
1 269
1 270

POINT_DATA 271
SCALARS id int 1
LOOKUP_TABLE default
1
2
3
4
5
6
7
8
9
10
11
12
13
14
15
16
17
19
21
22
23
24
25
26
27
28
29
30
31
32
33
34
35
36
37
38
39
41
42
44
45
47
48
50
51
52
53
54
55
56
57
59
61
62
63
64
65
66
67
68
69
70
71
72
73
74
76
77
78
79
80
81
82
83
84
85
86
87
88
89
90
91
92
93
94
95
96
97
98
99
100
101
102
103
104
105
106
107
108
109
110
111
112
113
114
115
116
117
118
119
120
121
122
123
124
125
126
127
128
129
131
132
133
134
135
136
137
138
140
141
142
143
144
147
148
149
150
151
153
154
155
156
157
158
159
160
162
164
165
166
168
169
170
171
172
173
174
175
177
178
179
181
182
183
184
186
187
188
189
190
191
192
193
194
195
196
197
198
199
201
202
203
204
205
206
207
208
209
210
211
212
213
214
215
216
217
218
219
220
221
222
223
224
225
226
227
228
229
230
231
232
234
235
236
237
239
240
241
242
244
246
247
248
249
250
251
252
253
254
255
256
257
258
259
261
262
263
264
265
266
267
268
269
270
271
272
273
274
275
276
277
278
280
283
284
285
286
287
288
289
290
291
292
293
294
295
296
297
298
299
300

SCALARS type int 1
LOOKUP_TABLE default
1
1
1
1
1
1
1
1
1
1
1
1
1
1
1
1
1
1
1
1
1
1
1
1
1
1
1
1
1
1
1
1
1
1
1
1
1
1
1
1
1
1
1
1
1
1
1
1
1
1
1
1
1
1
1
1
1
1
1
1
1
1
1
1
1
1
1
1
1
1
1
1
1
1
1
1
1
1
1
1
1
1
1
1
1
1
1
1
1
1
1
1
1
1
1
1
1
1
1
1
1
1
1
1
1
1
1
1
1
1
1
1
1
1
1
1
1
1
1
1
1
1
1
1
1
1
1
1
1
1
1
1
1
1
1
1
1
1
1
1
1
1
1
1
1
1
1
1
1
1
1
1
1
1
1
1
1
1
1
1
1
1
1
1
1
1
1
1
1
1
1
1
1
1
1
1
1
1
1
1
1
1
1
1
1
1
1
1
1
1
1
1
1
1
1
1
1
1
1
1
1
1
1
1
1
1
1
1
1
1
1
1
1
1
1
1
1
1
1
1
1
1
1
1
1
1
1
1
1
1
1
1
1
1
1
1
1
1
1
1
1
1
1
1
1
1
1
1
1
1
1
1
1
1
1
1
1
1
1
1
1
1
1
1
1
1
1
1
1
1
1

SCALARS radius float 1
LOOKUP_TABLE default
5e-05
5e-05
5e-05
5e-05
5e-05
5e-05
5e-05
5e-05
5e-05
5e-05
5e-05
5e-05
5e-05
5e-05
5e-05
5e-05
5e-05
5e-05
5e-05
5e-05
5e-05
5e-05
5e-05
5e-05
5e-05
5e-05
5e-05
5e-05
5e-05
5e-05
5e-05
5e-05
5e-05
5e-05
5e-05
5e-05
5e-05
5e-05
5e-05
5e-05
5e-05
5e-05
5e-05
5e-05
5e-05
5e-05
5e-05
5e-05
5e-05
5e-05
5e-05
5e-05
5e-05
5e-05
5e-05
5e-05
5e-05
5e-05
5e-05
5e-05
5e-05
5e-05
5e-05
5e-05
5e-05
5e-05
5e-05
5e-05
5e-05
5e-05
5e-05
5e-05
5e-05
5e-05
5e-05
5e-05
5e-05
5e-05
5e-05
5e-05
5e-05
5e-05
5e-05
5e-05
5e-05
5e-05
5e-05
5e-05
5e-05
5e-05
5e-05
5e-05
5e-05
5e-05
5e-05
5e-05
5e-05
5e-05
5e-05
5e-05
5e-05
5e-05
5e-05
5e-05
5e-05
5e-05
5e-05
5e-05
5e-05
5e-05
5e-05
5e-05
5e-05
5e-05
5e-05
5e-05
5e-05
5e-05
5e-05
5e-05
5e-05
5e-05
5e-05
5e-05
5e-05
5e-05
5e-05
5e-05
5e-05
5e-05
5e-05
5e-05
5e-05
5e-05
5e-05
5e-05
5e-05
5e-05
5e-05
5e-05
5e-05
5e-05
5e-05
5e-05
5e-05
5e-05
5e-05
5e-05
5e-05
5e-05
5e-05
5e-05
5e-05
5e-05
5e-05
5e-05
5e-05
5e-05
5e-05
5e-05
5e-05
5e-05
5e-05
5e-05
5e-05
5e-05
5e-05
5e-05
5e-05
5e-05
5e-05
5e-05
5e-05
5e-05
5e-05
5e-05
5e-05
5e-05
5e-05
5e-05
5e-05
5e-05
5e-05
5e-05
5e-05
5e-05
5e-05
5e-05
5e-05
5e-05
5e-05
5e-05
5e-05
5e-05
5e-05
5e-05
5e-05
5e-05
5e-05
5e-05
5e-05
5e-05
5e-05
5e-05
5e-05
5e-05
5e-05
5e-05
5e-05
5e-05
5e-05
5e-05
5e-05
5e-05
5e-05
5e-05
5e-05
5e-05
5e-05
5e-05
5e-05
5e-05
5e-05
5e-05
5e-05
5e-05
5e-05
5e-05
5e-05
5e-05
5e-05
5e-05
5e-05
5e-05
5e-05
5e-05
5e-05
5e-05
5e-05
5e-05
5e-05
5e-05
5e-05
5e-05
5e-05
5e-05
5e-05
5e-05
5e-05
5e-05
5e-05
5e-05
5e-05
5e-05
5e-05
5e-05
5e-05
5e-05
5e-05
5e-05
5e-05
5e-05
5e-05
5e-05
5e-05
5e-05
5e-05
5e-05
5e-05
5e-05
5e-05

SCALARS mass float 1
LOOKUP_TABLE default
1.46608e-10
1.46608e-10
1.46608e-10
1.46608e-10
1.46608e-10
1.46608e-10
1.46608e-10
1.46608e-10
1.46608e-10
1.46608e-10
1.46608e-10
1.46608e-10
1.46608e-10
1.46608e-10
1.46608e-10
1.46608e-10
1.46608e-10
1.46608e-10
1.46608e-10
1.46608e-10
1.46608e-10
1.46608e-10
1.46608e-10
1.46608e-10
1.46608e-10
1.46608e-10
1.46608e-10
1.46608e-10
1.46608e-10
1.46608e-10
1.46608e-10
1.46608e-10
1.46608e-10
1.46608e-10
1.46608e-10
1.46608e-10
1.46608e-10
1.46608e-10
1.46608e-10
1.46608e-10
1.46608e-10
1.46608e-10
1.46608e-10
1.46608e-10
1.46608e-10
1.46608e-10
1.46608e-10
1.46608e-10
1.46608e-10
1.46608e-10
1.46608e-10
1.46608e-10
1.46608e-10
1.46608e-10
1.46608e-10
1.46608e-10
1.46608e-10
1.46608e-10
1.46608e-10
1.46608e-10
1.46608e-10
1.46608e-10
1.46608e-10
1.46608e-10
1.46608e-10
1.46608e-10
1.46608e-10
1.46608e-10
1.46608e-10
1.46608e-10
1.46608e-10
1.46608e-10
1.46608e-10
1.46608e-10
1.46608e-10
1.46608e-10
1.46608e-10
1.46608e-10
1.46608e-10
1.46608e-10
1.46608e-10
1.46608e-10
1.46608e-10
1.46608e-10
1.46608e-10
1.46608e-10
1.46608e-10
1.46608e-10
1.46608e-10
1.46608e-10
1.46608e-10
1.46608e-10
1.46608e-10
1.46608e-10
1.46608e-10
1.46608e-10
1.46608e-10
1.46608e-10
1.46608e-10
1.46608e-10
1.46608e-10
1.46608e-10
1.46608e-10
1.46608e-10
1.46608e-10
1.46608e-10
1.46608e-10
1.46608e-10
1.46608e-10
1.46608e-10
1.46608e-10
1.46608e-10
1.46608e-10
1.46608e-10
1.46608e-10
1.46608e-10
1.46608e-10
1.46608e-10
1.46608e-10
1.46608e-10
1.46608e-10
1.46608e-10
1.46608e-10
1.46608e-10
1.46608e-10
1.46608e-10
1.46608e-10
1.46608e-10
1.46608e-10
1.46608e-10
1.46608e-10
1.46608e-10
1.46608e-10
1.46608e-10
1.46608e-10
1.46608e-10
1.46608e-10
1.46608e-10
1.46608e-10
1.46608e-10
1.46608e-10
1.46608e-10
1.46608e-10
1.46608e-10
1.46608e-10
1.46608e-10
1.46608e-10
1.46608e-10
1.46608e-10
1.46608e-10
1.46608e-10
1.46608e-10
1.46608e-10
1.46608e-10
1.46608e-10
1.46608e-10
1.46608e-10
1.46608e-10
1.46608e-10
1.46608e-10
1.46608e-10
1.46608e-10
1.46608e-10
1.46608e-10
1.46608e-10
1.46608e-10
1.46608e-10
1.46608e-10
1.46608e-10
1.46608e-10
1.46608e-10
1.46608e-10
1.46608e-10
1.46608e-10
1.46608e-10
1.46608e-10
1.46608e-10
1.46608e-10
1.46608e-10
1.46608e-10
1.46608e-10
1.46608e-10
1.46608e-10
1.46608e-10
1.46608e-10
1.46608e-10
1.46608e-10
1.46608e-10
1.46608e-10
1.46608e-10
1.46608e-10
1.46608e-10
1.46608e-10
1.46608e-10
1.46608e-10
1.46608e-10
1.46608e-10
1.46608e-10
1.46608e-10
1.46608e-10
1.46608e-10
1.46608e-10
1.46608e-10
1.46608e-10
1.46608e-10
1.46608e-10
1.46608e-10
1.46608e-10
1.46608e-10
1.46608e-10
1.46608e-10
1.46608e-10
1.46608e-10
1.46608e-10
1.46608e-10
1.46608e-10
1.46608e-10
1.46608e-10
1.46608e-10
1.46608e-10
1.46608e-10
1.46608e-10
1.46608e-10
1.46608e-10
1.46608e-10
1.46608e-10
1.46608e-10
1.46608e-10
1.46608e-10
1.46608e-10
1.46608e-10
1.46608e-10
1.46608e-10
1.46608e-10
1.46608e-10
1.46608e-10
1.46608e-10
1.46608e-10
1.46608e-10
1.46608e-10
1.46608e-10
1.46608e-10
1.46608e-10
1.46608e-10
1.46608e-10
1.46608e-10
1.46608e-10
1.46608e-10
1.46608e-10
1.46608e-10
1.46608e-10
1.46608e-10
1.46608e-10
1.46608e-10
1.46608e-10
1.46608e-10
1.46608e-10
1.46608e-10
1.46608e-10
1.46608e-10
1.46608e-10
1.46608e-10
1.46608e-10
1.46608e-10
1.46608e-10
1.46608e-10
1.46608e-10
1.46608e-10
1.46608e-10
1.46608e-10
1.46608e-10

VECTORS velocity float
0.00570752 6.45213e-06 -1.6308e-05
0.00588014 8.34484e-05 -0.000339122
0.00569962 -0.000191141 -6.35179e-05
0.00583088 0.000176509 0.000145079
0.00569035 1.62693e-06 -1.26523e-05
0.00624431 0.000442391 -1.50127e-05
0.0055189 -2.21662e-05 -0.000135022
0.00568627 -2.08782e-06 -7.33462e-06
0.0057795 0.00050749 -7.71248e-05
0.00577173 0.000251813 9.76411e-05
0.00587133 0.000174062 -0.000259877
0.00555189 -0.000177979 7.55402e-05
0.00576681 2.50815e-05 1.908e-06
0.0055662 -0.000200183 0.00011288
0.0058037 0.000173851 0.000139425
0.00562366 -0.000220966 0.000215043
0.00568879 2.84677e-05 -0.000321312
0.00568469 3.11021e-05 2.05805e-06
0.00569071 0.000282855 7.97626e-05
0.00575092 0.000241289 0.000111405
0.00615581 -0.00027718 0.000174187
0.00594708 0.000427824 -0.000182128
0.00556866 -7.16549e-05 -0.00023836
0.00632092 0.000429202 -3.0084e-06
0.00560231 -7.0873e-05 -9.54655e-05
0.00580938 5.37275e-05 -0.000320467
0.00544043 -6.87421e-05 -0.000218271
0.00582792 0.000126437 -0.000349749
0.00561451 -7.23299e-05 -0.000238285
0.00631694 0.000173028 0.000160617
0.00626423 0.00043948 -1.22686e-05
0.0056191 5.39693e-06 -6.77873e-05
0.00561995 0.0002599 8.86953e-05
0.00592962 0.000428339 -0.000182561
0.00561914 0.000157047 -0.000334105
0.00561536 0.000266996 -0.000349392
0.0059615 0.000422596 -0.000181484
0.00580623 7.16511e-06 -0.000322446
4.57209e-16 2.25527e-15 8.4636e-14
0.00585293 6.07667e-05 -0.000344415
0.00628145 0.000436615 -9.44269e-06
0.00567824 1.40391e-05 -2.898e-05
0.00565251 0.000118515 -0.000330305
0.00591042 -0.00011503 -0.000212632
0.00573485 -9.09021e-05 -0.000232687
0.00547828 -0.000190714 8.95279e-05
0.00589982 0.000490691 -6.01552e-05
0.00575228 0.000107894 -0.000335758
0.00548036 -0.000186517 8.54153e-05
0.00564819 0.000155656 -0.000335363
0.00630522 0.000432443 -5.87367e-06
0.00569253 0.000250282 9.78746e-05
0.00629333 0.000167239 0.000170347
0.00561882 0.00019139 -0.00033891
0.00577154 0.0001767 0.000138003
0.00597029 0.000417915 -0.000180923
0.00621281 -0.000143384 0.000360646
0.00562588 -0.000206895 0.000102802
0.00585078 0.000195789 -0.000352626
0.00635183 0.000216357 0.000140139
0.0056458 0.000124317 -0.000331001
0.00634101 0.00042696 -7.89845e-07
0.00546942 -0.000190416 8.8969e-05
0.00588865 0.000103507 -0.000343412
0.0056689 0.000106213 -0.000329549
0.00561726 0.000138537 -0.000331317
0.00551966 -0.000252909 -4.2443e-05
0.00564095 0.000198457 0.000121621
0.00554999 -0.000219929 -1.09688e-06
0.005513 -0.000188023 8.56832e-05
0.0058067 0.000322279 -0.000367763
0.00563958 -0.000233854 0.000212963
0.00554884 -0.000169459 6.91365e-05
0.00550658 -0.000220442 -5.05838e-05
0.00583887 0.000498359 -6.83699e-05
0.00566759 -0.000180065 -6.60956e-05
0.00568625 3.00649e-05 -0.000319644
0.00557331 0.000264323 -0.00034669
0.00618694 -7.43316e-05 -0.000156869
0.00564653 0.000113594 -0.000329484
0.00585695 0.000111396 -0.000242698
0.00545543 -0.000257426 -3.98432e-05
0.005725 0.000270236 -0.000355995
0.00594277 -0.000110958 -0.000218862
0.00572991 -0.000241623 -0.000283963
0.00570935 0.00027851 8.34679e-05
0.00597712 -0.000112176 -0.000220426
0.00620512 -0.00018613 0.000421051
0.00584088 0.000179551 -2.2549e-06
0.006194 -0.000316053 -3.67643e-05
0.00561813 0.000117359 -0.000328385
0.0055296 -0.000181182 7.95586e-05
4.38762e-15 1.04435e-14 8.29606e-14
2.07359e-22 4.86658e-23 1.23839e-22
0.00569774 -0.000267127 -4.28067e-05
0.00574259 -0.000136579 -7.98225e-05
0.00576013 -0.00023489 -5.24169e-05
0.00575807 -0.000232217 -5.29944e-05
0.0056448 0.000131939 -0.000332209
0.00568577 0.000169212 0.000137892
0.00604997 -0.000119305 -0.000212657
0.00568268 0.000276439 8.2707e-05
0.00560782 -0.000239325 -4.78665e-05
0.00626901 -0.000332483 -3.34519e-05
0.00549806 -0.000227932 -5.07881e-05
0.00582056 0.000188835 0.000138325
0.0058633 8.76306e-05 -0.000339773
0.00557403 0.000141145 -0.00032927
0.00566436 -0.000214551 -5.56706e-05
0.00571968 0.000201759 0.000121668
0.0054863 -9.01782e-05 -0.000250998
0.00563753 2.40827e-05 -3.54692e-05
0.00632567 0.000191731 0.000150651
0.00565144 -0.000194235 -6.09313e-05
0.00566789 0.000267841 8.67275e-05
0.00556498 0.000124125 -0.000326444
0.00629294 0.000187106 0.000150258
0.00568882 -0.00015968 -7.2225e-05
0.00634369 0.000189393 0.000154246
0.00584797 9.27577e-05 -0.000291573
0.0057471 -0.000175184 -6.90717e-05
0.00587967 9.86252e-05 -0.000347565
0.00579058 4.61559e-05 -0.000328458
0.00631115 0.000175843 0.000157763
0.00570483 3.28349e-05 2.53416e-06
0.00562141 -0.000194885 0.000197246
0.00594558 -0.000113743 -0.000214036
0.00582226 8.73273e-05 -0.000335611
0.00577815 0.000232621 0.000112549
0.00547348 -0.000219937 -5.02517e-05
0.00571855 -0.000210854 -6.03231e-05
0.00547345 -0.00018841 8.71886e-05
0.00571748 -0.000250842 -4.51673e-05
0.00555882 -0.000245792 -3.04244e-05
0.00619206 -0.000286994 -4.66052e-05
0.00623133 2.49664e-05 -3.91196e-05
8.38391e-15 1.25344e-15 -8.48743e-14
0.00612111 -0.000308324 -3.8241e-05
0.00565951 -0.000209953 0.00020962
0.00570421 -0.00023107 -5.08556e-05
0.00577217 -0.000247217 -4.92102e-05
0.00563514 -0.00024235 -4.75182e-05
-3.82812e-14 8.16819e-14 2.9589e-13
0.0054761 -0.000263147 -3.88544e-05
0.00562081 0.000207626 -0.000341332
0.00572633 -0.000243676 -4.85768e-05
0.00565539 -0.000223472 0.000211787
0.00622703 -0.000322957 -3.47608e-05
0.00569635 -0.000238223 -5.06823e-05
0.00565064 0.000123765 -0.000331092
0.00616242 -0.000307665 -4.05779e-05
0.0056262 -0.000249955 0.000211054
0.00571226 -0.000220498 -5.54757e-05
0.00582441 5.52875e-05 -0.000330416
0.00573284 -0.000244539 -4.90759e-05
0.00576586 0.000111524 -0.000335715
0.00578572 -0.000230556 -5.41235e-05
0.00612986 0.000925193 -0.000649487
0.00612511 -0.000267852 -5.07337e-05
0.0061109 -0.000284212 -4.58308e-05
0.00567724 -0.000202853 -5.99068e-05
0.00555363 -0.000251555 -4.57585e-05
0.00574459 -0.000226837 -0.000286631
0.0057562 -0.000231891 -5.31765e-05
0.00576828 0.000261954 0.000103386
0.00615016 -0.000317525 -4.19796e-05
0.00631056 0.000178283 0.000157676
0.00634541 0.000184256 0.000156309
0.00589966 0.000104287 -0.000344218
0.00593424 0.000506629 -0.00046328
0.00561408 0.000222892 0.000107343
0.00575065 -0.000229795 -5.36661e-05
0.00578761 0.000191593 0.000129602
1.42523e-15 -1.10294e-14 8.6668e-14
0.00545864 -0.000255411 -4.04091e-05
0.0061741 -0.000290327 0.000236664
0.00606756 0.000761551 -0.00057728
0.00564326 -0.000204004 0.00020902
0.00548638 -0.000216944 -5.19302e-05
0.00625627 -0.000290762 0.000103767
0.00560444 -0.000243293 -4.66611e-05
0.00607802 -0.000121451 -0.000209373
0.0055045 -0.000192412 9.01642e-05
0.00562421 -0.000217777 -5.44395e-05
0.00625666 -0.00031917 -3.97599e-05
0.00613461 -0.000302441 -4.10152e-05
0.00566816 -0.000257392 -4.40729e-05
0.0156807 0.037993 -0.0283853
0.0057312 0.000265244 8.95572e-05
0.00632511 0.000179319 0.000158422
0.00545589 -0.000236904 -4.55925e-05
0.00571929 0.000249947 -0.000352599
0.00626863 0.000118542 9.66013e-05
0.00594058 0.000505234 -0.000462953
0.00566039 -0.000224294 -5.30537e-05
0.00556195 0.000140696 -0.000328677
0.00563547 -0.00017833 7.31254e-05
0.00612516 -0.00011713 -0.000219232
0.0054979 -0.000196468 -5.797e-05
0.00583748 -0.00217689 0.00043147
0.00580337 0.000327054 -0.00036853
0.0057338 -0.000246099 -4.83182e-05
-0.0150809 0.0067152 -0.00211688
0.00564062 0.000261883 8.92116e-05
0.00610752 -0.000298918 -3.97415e-05
0.00595962 0.000501047 -0.000461967
0.00610544 0.000854491 -0.000618395
0.005523 -0.000249111 -4.3208e-05
0.00623383 -0.000155442 0.000396903
0.00613621 0.000923799 -0.00064916
0.00560196 -0.00023726 -4.76389e-05
0.00584291 9.17883e-05 -0.000328002
0.00568149 -0.000209182 -5.78472e-05
0.00617608 -0.000157393 0.000292307
0.00609974 -0.000248283 0.000132435
0.00575035 0.000409108 -0.000293049
0.00572667 0.00106466 0.000500209
0.00624194 0.00121382 -0.000776936
0.00562629 -0.000197818 -5.99935e-05
0.00566677 0.00107259 0.000489742
0.00616327 0.00100286 -0.000683918
0.00558209 -0.000342518 -2.01526e-05
0.0062307 -0.000203151 0.000337309
0.00594693 0.000503838 -0.000462624
0.00615111 -0.000269566 -5.0857e-05
0.00607664 -0.00011268 -0.000216662
0.00603013 0.000674177 -0.000538552
0.00592789 0.000508025 -0.00046361
0.00618962 0.00107252 -0.000714648
0.00567582 -0.000248977 -4.63526e-05
0.00577754 -0.000230111 -5.41179e-05
0.00575347 -0.000220672 -5.63975e-05
0.00573058 -0.000199922 -6.0957e-05
0.00601332 0.000636729 -0.000521922
0.00620299 -0.000322328 -3.31917e-05
0.0060201 -0.000242389 0.000114913
0.006216 0.00114326 -0.000745839
0.00509854 0.000633936 5.68588e-05
0.00608651 0.000807563 -0.000597644
0.00563546 -0.000314119 -2.84042e-05
0.00618408 -0.00018939 0.000391758
0.00622348 -0.000321823 -3.19496e-05
0.00573188 -0.000215814 -5.72537e-05
0.00629053 0.000176153 0.000159566
0.00561691 -0.000287544 -2.47416e-05
0.00598935 0.000593084 -0.000502356
0.00577542 -0.000194015 9.1069e-05
0.0059957 0.000591687 -0.000502027
0.0062998 -0.000331393 -4.63506e-05
0.00618561 -0.000324092 -3.83761e-05
0.00565906 -0.000203095 -6.01634e-05
0.00559795 -0.000321326 -3.26705e-05
0.00595962 0.000501046 -0.000461967
0.00576141 -0.000275982 -0.00105854
0.00621325 -0.000322317 -3.34517e-05
0.00576449 -0.000225466 -5.53515e-05
0.00547781 -0.000242952 -4.40853e-05
0.00578373 -0.000229549 -5.44837e-05
0.00599669 5.52937e-05 -0.000139456
0.00617316 -0.000271891 0.000134314
0.00554639 -0.000230491 -4.26837e-05
0.00572736 -0.000209993 -5.87085e-05
0.00562283 -0.000244839 -4.66149e-05
0.00558396 -0.000113161 -8.32915e-05
0.00590172 -0.000216588 0.000101132
0.00595328 0.000502443 -0.000462295
0.00614412 -0.000203114 0.000202113
0.00584091 0.000191756 -0.000352158
0.00617972 0.000923652 -0.000650913
0.00604863 0.000716756 -0.000557436
0.00630959 0.000181404 0.000152626

VECTORS force float
-1.44395e-10 6.27057e-11 -3.22592e-11
-4.54221e-11 -8.94443e-12 -2.67494e-11
6.56724e-11 1.83171e-10 -4.9869e-11
-1.72056e-11 2.2751e-11 4.04655e-12
-1.71613e-10 1.18464e-10 -3.81697e-11
-6.07121e-13 4.89244e-12 2.15396e-12
7.26586e-11 4.83026e-11 -5.88314e-11
3.96365e-11 5.85059e-11 -4.84502e-11
4.90917e-12 -1.04561e-11 1.07256e-11
-2.09359e-11 -7.41457e-11 2.67622e-11
-6.40179e-11 4.41826e-11 1.04724e-10
1.88545e-10 5.5911e-11 -5.61822e-11
-6.84441e-11 -1.13278e-10 1.43624e-10
-3.05266e-11 8.64719e-11 1.76192e-10
7.18631e-11 -1.63679e-11 5.65218e-11
3.12197e-11 5.11618e-11 -6.47502e-12
1.19238e-10 -5.71523e-11 -1.16481e-12
9.13642e-13 -1.6475e-10 -5.37722e-11
4.21271e-11 -4.01475e-11 2.26563e-11
1.29937e-10 -8.70373e-11 -1.65744e-11
3.84112e-10 -1.13428e-10 3.61301e-10
-1.52397e-10 2.03339e-11 2.91138e-12
-2.022e-10 9.68145e-11 -2.27511e-10
-2.13331e-11 2.22426e-11 -1.31917e-11
9.09669e-11 -3.97737e-11 9.038e-12
2.14873e-10 -2.13648e-10 1.64984e-10
3.97185e-10 4.79668e-11 -1.6059e-10
-4.64524e-11 -6.29902e-11 1.08083e-10
2.09187e-10 1.90235e-12 -2.837e-11
-7.42622e-11 2.04946e-10 -1.04976e-10
1.4502e-11 -7.28494e-12 -4.45154e-12
1.14765e-10 -1.09725e-10 -1.09041e-10
7.00143e-11 3.04092e-11 -6.91409e-12
-4.77243e-11 1.64429e-11 8.59225e-12
9.99767e-11 -1.62772e-10 2.40507e-11
-4.51398e-10 9.21833e-11 1.25849e-11
9.20257e-11 5.24846e-11 -1.04806e-11
5.3021e-11 -4.46633e-11 -1.82965e-11
-1.84015e-24 2.51385e-24 0.0
-7.95664e-11 2.36956e-10 9.82903e-11
-4.51875e-11 -1.76465e-11 3.35675e-12
-4.24196e-11 3.75158e-11 5.59841e-11
3.00277e-10 2.45922e-11 -2.11944e-11
-2.92796e-10 -9.8251e-11 1.16258e-10
-3.08303e-10 -2.30434e-11 9.01745e-11
-8.51221e-12 -1.22719e-10 1.2052e-10
2.18571e-11 9.99348e-12 -1.05007e-11
-5.76633e-11 1.949e-11 -1.26543e-11
-1.29824e-10 -1.83713e-10 1.85669e-10
2.4789e-10 -2.15645e-10 1.02477e-11
6.93618e-11 1.48871e-11 -6.47006e-13
-1.58757e-11 -5.68115e-11 4.39847e-11
1.33876e-10 1.24937e-10 1.455e-10
-1.55974e-11 -9.84544e-11 1.41724e-11
-7.16605e-11 -2.40521e-11 1.12696e-10
-3.78332e-11 5.25644e-12 -1.24151e-13
3.55947e-10 2.71092e-10 3.15432e-10
-5.7977e-11 -1.40738e-10 1.3692e-10
-2.45344e-12 1.79116e-10 -3.44904e-11
-1.13687e-10 1.6326e-10 -8.9828e-11
5.14646e-11 1.13093e-10 -2.00066e-11
-2.28885e-11 -2.57993e-11 8.16439e-12
-9.1772e-11 -1.70383e-10 1.75416e-10
-3.55309e-11 1.11022e-10 -1.73944e-11
4.7939e-11 -3.08702e-10 4.19331e-11
2.28458e-10 4.43585e-11 -1.90259e-11
-3.10383e-11 9.19526e-12 3.12139e-12
-6.73709e-11 -9.75896e-11 7.42085e-11
-2.95924e-11 4.58874e-11 6.36779e-11
-3.42459e-11 5.13882e-11 -3.35971e-11
-5.53019e-11 -2.17235e-11 4.18162e-12
2.76785e-11 7.28941e-11 -1.82437e-11
2.36672e-10 1.97521e-11 -2.1695e-11
-7.09868e-11 -3.3318e-11 4.37552e-12
9.43827e-12 6.15792e-12 7.21729e-12
1.64308e-10 9.87293e-11 -3.02748e-11
-1.47137e-10 -5.7564e-11 1.35925e-11
-8.21617e-12 9.79666e-11 -1.3535e-11
2.79414e-10 1.14498e-10 4.67402e-10
2.30847e-10 5.58124e-11 -1.92923e-11
-4.02927e-11 3.0245e-11 -1.84691e-10
-2.69278e-11 -5.2339e-13 -3.23927e-12
3.02157e-11 -3.27583e-10 3.55494e-11
-9.66855e-11 -1.51544e-10 9.14183e-11
-2.23517e-11 -1.95647e-10 2.59261e-11
-7.28435e-11 -2.92414e-10 1.16608e-10
-4.28509e-10 -9.30979e-11 1.65273e-10
4.88922e-10 -8.69082e-11 -4.26965e-12
-5.15545e-11 -4.02008e-12 -6.84898e-11
7.03189e-11 -2.25407e-12 1.03752e-10
2.64065e-10 2.60402e-10 -4.96779e-11
1.08836e-10 9.60283e-11 -9.79381e-11
5.38663e-22 -1.88675e-22 -9.30578e-24
0.0 0.0 0.0
1.62978e-11 6.68648e-11 -2.44745e-12
-1.16395e-10 1.15878e-10 -3.36195e-11
-8.72558e-12 -6.21185e-11 1.7002e-11
1.70945e-11 1.02255e-10 -3.06138e-11
8.48433e-11 1.0046e-10 -1.79248e-11
-5.6283e-11 -5.59256e-12 8.4675e-12
6.95656e-11 -2.46634e-10 1.94495e-10
-9.78042e-12 -6.41407e-11 -7.4982e-12
-1.07162e-10 7.64133e-11 -2.296e-11
-9.92655e-12 -2.04851e-10 9.48475e-11
5.43599e-11 5.98223e-11 -5.58362e-11
1.45962e-11 -6.01992e-11 -2.9782e-11
-8.08502e-11 2.00593e-11 4.67922e-11