# vtk DataFile Version 3.0
LIGGGHTS particles timestep 22800000
ASCII
DATASET POLYDATA
POINTS 283 float
0.145433 0.0157678 0.00896969
0.146342 0.0184282 0.00693314
0.139541 0.0159593 0.00850505
0.146125 0.0178144 0.00725615
0.145409 0.0156931 0.0090318
0.151842 0.0170017 0.00742538
0.145506 0.0159993 0.00877687
0.145384 0.0156171 0.00909515
0.151973 0.0175565 0.00723803
0.147415 0.0189492 0.00686978
0.146361 0.0185211 0.00690096
0.139733 0.0165962 0.00776259
0.145313 0.0153923 0.00928214
0.139472 0.0157488 0.00870716
0.145749 0.0167822 0.00812659
0.139448 0.0156792 0.0087748
0.146103 0.0173457 0.00761614
0.145355 0.015544 0.00915733
0.147001 0.0189588 0.00689057
0.145726 0.0167072 0.00818891
0.139924 0.0169338 0.00735384
0.152034 0.0178461 0.00722478
0.145818 0.0170086 0.00793906
0.151929 0.017371 0.00729876
0.139817 0.0168634 0.00747772
0.146361 0.0181998 0.00701344
0.145535 0.0161038 0.00871227
0.146679 0.018746 0.00682843
0.145702 0.016632 0.00825139
0.145991 0.0173234 0.00765972
0.151864 0.017094 0.00739372
0.145483 0.0159243 0.00883917
0.145656 0.016482 0.00837604
0.152014 0.0177484 0.00721832
0.146875 0.0187792 0.00682041
0.146637 0.0184787 0.00692091
0.152069 0.0175852 0.00722548
0.146484 0.0181816 0.00702211
0.313934 0.0177025 0.00552271
0.146326 0.0182884 0.00698181
0.151886 0.0171863 0.00736207
0.145456 0.0158424 0.00890745
0.146688 0.0186519 0.00686123
0.145952 0.0175546 0.00749375
0.145932 0.017479 0.00755586
0.139714 0.0165368 0.00784063
0.152046 0.0174911 0.00725563
0.146975 0.0187865 0.00681943
0.139518 0.0158884 0.00857161
0.146735 0.0184599 0.00692932
0.151907 0.0172787 0.00733042
0.146422 0.0180972 0.00705049
0.145624 0.0163783 0.00846217
0.146532 0.0184263 0.00693732
0.146104 0.0177388 0.00731827
0.152089 0.0176838 0.00723209
0.13985 0.0166771 0.00765422
0.139792 0.0164894 0.00788244
0.146443 0.0184676 0.00692124
0.146146 0.01789 0.00719403
0.147303 0.0187534 0.00683705
0.151951 0.0174633 0.00726711
0.139495 0.0158186 0.00863942
0.146595 0.0186951 0.00684438
0.148294 0.0188298 0.00682861
0.146499 0.018337 0.00696797
0.140052 0.0175127 0.00724938
0.146035 0.0178569 0.00724532
0.139561 0.0160283 0.00843558
0.139752 0.0166598 0.00768765
0.146346 0.0184122 0.00703179
0.139696 0.0164888 0.0079266
0.139836 0.0169287 0.00740431
0.139887 0.0165032 0.00785573
0.151994 0.0176506 0.00721186
0.139676 0.0161154 0.0083377
0.146435 0.0182636 0.0069925
0.14661 0.0180474 0.00707388
0.146149 0.018342 0.00705108
0.146458 0.0185614 0.00688865
0.146401 0.0183519 0.00696094
0.139771 0.0167242 0.00761382
0.146424 0.0186972 0.00684052
0.146187 0.0180504 0.00708311
0.146299 0.0186753 0.00684587
0.146208 0.0184831 0.00700871
0.146203 0.0181354 0.00703308
0.139658 0.0163552 0.00807041
0.146251 0.0183724 0.0070412
0.13983 0.0166146 0.00773028
0.146509 0.0186467 0.00685974
0.139769 0.0164278 0.00795783
0.0643568 0.0187248 0.00531097
0.24257 0.0191927 0.00520306
0.140128 0.0174479 0.00725745
0.139618 0.0162237 0.00821567
0.140202 0.0173835 0.00727492
0.139579 0.0160987 0.0083668
0.147612 0.0188662 0.00682705
0.145911 0.0174034 0.00761798
0.146114 0.0181791 0.00702563
0.146246 0.0183934 0.00694355
0.139678 0.0164215 0.00799834
0.140213 0.0186609 0.00700872
0.140064 0.017159 0.00731435
0.146302 0.0181228 0.00703934
0.147464 0.0188283 0.00681719
0.146565 0.0182661 0.00699401
0.139531 0.0159831 0.00860168
0.145773 0.0168572 0.00806428
0.145679 0.0165569 0.00831383
0.145459 0.0159131 0.00897909
0.146096 0.0180898 0.00706668
0.139716 0.0162396 0.00818617
0.145994 0.0177057 0.00736955
0.146598 0.0183557 0.00696327
0.14589 0.0173278 0.0076801
0.139637 0.0162881 0.00814153
0.145976 0.0176295 0.0074316
0.146242 0.0185687 0.00696998
0.139947 0.0170318 0.00733463
0.139811 0.0165518 0.00780663
0.14632 0.0185074 0.00699136
0.146661 0.0189035 0.00688115
0.146084 0.0176633 0.00738039
0.145333 0.0154681 0.00922003
0.139656 0.0160534 0.00841348
0.146056 0.0179325 0.0071832
0.147115 0.0188239 0.00682946
0.146264 0.0184864 0.00691134
0.139697 0.0161772 0.00826201
0.140086 0.0172555 0.0072954
0.139598 0.0161628 0.00829252
0.140043 0.0170632 0.00733324
0.139906 0.0165655 0.00777992
0.139637 0.0159842 0.00848339
0.139894 0.0171918 0.00729835
0.146227 0.0183004 0.00697576
0.139946 0.01669 0.00762839
0.140313 0.0175297 0.00725033
0.139752 0.0163647 0.00803434
0.140011 0.0173193 0.00727805
0.140056 0.0176082 0.0072201
0.13999 0.0172242 0.00730038
0.0219312 0.0187687 0.00551176
0.140268 0.0180166 0.00714625
0.146547 0.0185198 0.00690488
0.139958 0.0174794 0.00724174
0.139915 0.0172877 0.00727948
0.140155 0.0179367 0.00715687
0.140417 0.0178089 0.00719763
0.147736 0.0188645 0.00682134
0.139925 0.0166279 0.00770409
0.140221 0.0174888 0.00725394
0.140232 0.0187572 0.00698964
0.140235 0.0175906 0.00723344
0.147364 0.0188316 0.00682258
0.140396 0.0177129 0.00721656
0.146375 0.0186146 0.00686852
0.140155 0.0176475 0.00721722
0.133802 0.0168939 0.00766173
0.139969 0.0171277 0.00731576
0.139996 0.0176737 0.00726626
0.140331 0.0182898 0.00709257
0.140428 0.0181352 0.00713006
0.140008 0.0175105 0.00733916
0.147271 0.0188742 0.00684422
0.140144 0.0175501 0.00723698
0.146282 0.0185794 0.00687913
0.139872 0.017096 0.00731723
0.139981 0.0174144 0.00734475
0.146594 0.0187973 0.00683938
0.146014 0.0177813 0.00730743
0.146506 0.0187525 0.00682416
0.133987 0.017302 0.00750708
0.146076 0.0180081 0.00712108
0.14016 0.0171898 0.00731306
0.145795 0.0169327 0.00800175
0.139989 0.0168186 0.00748156
0.140351 0.0179632 0.00716188
0.139422 0.0156098 0.00884208
0.133867 0.0171683 0.00755941
0.139793 0.0167926 0.0075441
0.139937 0.0173835 0.00726061
0.13991 0.0168652 0.00742521
0.140345 0.0185446 0.00704013
0.140181 0.017286 0.00729415
0.146132 0.0182687 0.00698512
0.139892 0.0168023 0.00750151
0.140273 0.0181222 0.00717012
0.140156 0.0177454 0.00719683
0.139734 0.0163021 0.00811029
0.140033 0.0174151 0.00725919
0.139967 0.016752 0.00755303
0.146348 0.0187617 0.00683442
0.146227 0.0187391 0.00687171
0.140242 0.0176967 0.00721162
0.146775 0.0187733 0.00682197
0.14617 0.0184543 0.00692085
0.133966 0.0171993 0.00754527
0.139975 0.0175741 0.00726863
0.147879 0.0188742 0.0068196
0.140029 0.0177972 0.00717918
0.146262 0.0182122 0.0070073
0.140138 0.0177936 0.00728261
0.133857 0.016741 0.00771619
0.146587 0.0181706 0.00702786
0.140108 0.0173513 0.00727655
0.139851 0.0170001 0.00733608
0.146166 0.0179656 0.00713192
0.140322 0.0176396 0.00722789
0.133923 0.0170163 0.00761351
0.133824 0.0169854 0.00762762
0.140106 0.017696 0.00729008
0.140313 0.0183859 0.00707153
0.133781 0.0168025 0.00769583
0.139868 0.0164409 0.00793152
0.140008 0.0168943 0.00741902
0.146317 0.0186501 0.0069411
0.1402 0.0182628 0.00715742
0.140174 0.018469 0.0070467
0.140133 0.0182769 0.00708464
0.133597 0.0159738 0.00799436
0.133652 0.0162534 0.00790055
0.133577 0.0159059 0.00806504
0.140117 0.016998 0.00735081
0.139871 0.0167399 0.00757756
0.133616 0.0160659 0.00796005
0.133737 0.0166195 0.00776404
0.140187 0.017884 0.00724885
0.140249 0.01857 0.00702964
0.134058 0.0172353 0.00752949
0.140064 0.0177059 0.00720013
0.146151 0.0183614 0.00695302
0.133915 0.0173674 0.00748517
0.133901 0.0169249 0.00764762
0.133715 0.0165281 0.00779815
0.139617 0.0159141 0.00855171
0.140232 0.0178216 0.00718501
0.140067 0.0179646 0.00723894
0.140353 0.01807 0.00713964
0.133936 0.0174589 0.00745106
0.140022 0.0169673 0.0073521
0.140274 0.0184754 0.00705072
0.140113 0.0181808 0.00710361
0.133694 0.0164366 0.00783226
0.140219 0.0179782 0.00723858
0.133846 0.0170768 0.00759351
0.140294 0.0174229 0.00727163
0.14005 0.017893 0.00716032
0.140248 0.0177774 0.00727323
0.140075 0.0178659 0.00725319
0.146188 0.0185472 0.00688866
0.140316 0.0177699 0.00720033
0.13398 0.0176418 0.00738285
0.140071 0.017989 0.00714204
0.133958 0.0175503 0.00741696
0.140134 0.0178407 0.00717576
0.140035 0.017773 0.00727597
0.140156 0.0181506 0.00718891
0.140253 0.0179191 0.00716582
0.133759 0.016711 0.00772994
0.134018 0.0174039 0.00746887
0.140095 0.016902 0.0073697
0.133879 0.0168325 0.00768209
0.133634 0.0161599 0.00793118
0.140213 0.0181755 0.00711007
0.140192 0.0180795 0.00712904
0.140142 0.0180297 0.00719977
0.140311 0.0181936 0.00711161
0.140235 0.0183177 0.0070816
0.140084 0.0168344 0.00744253
0.140138 0.017094 0.00733191
0.14041 0.0182314 0.00710904
0.139847 0.0163788 0.00800715
0.140337 0.0178662 0.00718135
0.140093 0.0180847 0.00712258
0.133945 0.0171079 0.00757937
0.140154 0.018373 0.00706594
0.146607 0.0185958 0.00687939
0.133672 0.0163452 0.00786636
0.133889 0.0172598 0.0075253
0.146206 0.0186401 0.00685648

VERTICES 283 566
1 0
1 1
1 2
1 3
1 4
1 5
1 6
1 7
1 8
1 9
1 10
1 11
1 12
1 13
1 14
1 15
1 16
1 17
1 18
1 19
1 20
1 21
1 22
1 23
1 24
1 25
1 26
1 27
1 28
1 29
1 30
1 31
1 32
1 33
1 34
1 35
1 36
1 37
1 38
1 39
1 40
1 41
1 42
1 43
1 44
1 45
1 46
1 47
1 48
1 49
1 50
1 51
1 52
1 53
1 54
1 55
1 56
1 57
1 58
1 59
1 60
1 61
1 62
1 63
1 64
1 65
1 66
1 67
1 68
1 69
1 70
1 71
1 72
1 73
1 74
1 75
1 76
1 77
1 78
1 79
1 80
1 81
1 82
1 83
1 84
1 85
1 86
1 87
1 88
1 89
1 90
1 91
1 92
1 93
1 94
1 95
1 96
1 97
1 98
1 99
1 100
1 101
1 102
1 103
1 104
1 105
1 106
1 107
1 108
1 109
1 110
1 111
1 112
1 113
1 114
1 115
1 116
1 117
1 118
1 119
1 120
1 121
1 122
1 123
1 124
1 125
1 126
1 127
1 128
1 129
1 130
1 131
1 132
1 133
1 134
1 135
1 136
1 137
1 138
1 139
1 140
1 141
1 142
1 143
1 144
1 145
1 146
1 147
1 148
1 149
1 150
1 151
1 152
1 153
1 154
1 155
1 156
1 157
1 158
1 159
1 160
1 161
1 162
1 163
1 164
1 165
1 166
1 167
1 168
1 169
1 170
1 171
1 172
1 173
1 174
1 175
1 176
1 177
1 178
1 179
1 180
1 181
1 182
1 183
1 184
1 185
1 186
1 187
1 188
1 189
1 190
1 191
1 192
1 193
1 194
1 195
1 196
1 197
1 198
1 199
1 200
1 201
1 202
1 203
1 204
1 205
1 206
1 207
1 208
1 209
1 210
1 211
1 212
1 213
1 214
1 215
1 216
1 217
1 218
1 219
1 220
1 221
1 222
1 223
1 224
1 225
1 226
1 227
1 228
1 229
1 230
1 231
1 232
1 233
1 234
1 235
1 236
1 237
1 238
1 239
1 240
1 241
1 242
1 243
1 244
1 245
1 246
1 247
1 248
1 249
1 250
1 251
1 252
1 253
1 254
1 255
1 256
1 257
1 258
1 259
1 260
1 261
1 262
1 263
1 264
1 265
1 266
1 267
1 268
1 269
1 270
1 271
1 272
1 273
1 274
1 275
1 276
1 277
1 278
1 279
1 280
1 281
1 282

POINT_DATA 283
SCALARS id int 1
LOOKUP_TABLE default
1
2
3
4
5
6
7
8
9
10
11
12
13
14
15
16
17
19
21
22
23
24
25
26
27
28
29
30
31
32
33
34
35
36
37
38
39
41
42
44
45
47
48
50
51
52
53
54
55
56
57
59
61
62
63
64
65
66
67
68
69
70
71
72
73
74
76
77
78
79
80
81
82
83
84
85
86
87
88
89
90
91
92
93
94
95
96
97
98
99
100
101
102
103
104
105
106
107
108
109
110
111
112
113
114
115
116
117
118
119
120
121
122
123
124
125
126
127
128
129
130
131
132
133
134
135
136
137
138
140
141
142
143
144
146
147
148
149
150
151
153
154
155
156
157
158
159
160
162
164
165
166
167
168
169
170
171
172
173
174
175
176
177
178
179
181
182
183
184
185
186
187
188
189
190
191
192
193
194
195
196
197
198
199
200
201
202
203
204
205
206
207
208
209
210
211
212
213
214
215
216
217
218
219
220
221
222
223
224
225
226
227
228
229
230
231
232
233
234
235
236
237
239
240
241
242
243
244
246
247
248
249
250
251
252
253
254
255
256
257
258
259
260
261
262
263
264
265
266
267
268
269
270
271
272
273
274
275
276
277
278
279
280
281
282
283
284
285
286
287
288
289
290
291
292
293
294
295
296
297
298
299
300

SCALARS type int 1
LOOKUP_TABLE default
1
1
1
1
1
1
1
1
1
1
1
1
1
1
1
1
1
1
1
1
1
1
1
1
1
1
1
1
1
1
1
1
1
1
1
1
1
1
1
1
1
1
1
1
1
1
1
1
1
1
1
1
1
1
1
1
1
1
1
1
1
1
1
1
1
1
1
1
1
1
1
1
1
1
1
1
1
1
1
1
1
1
1
1
1
1
1
1
1
1
1
1
1
1
1
1
1
1
1
1
1
1
1
1
1
1
1
1
1
1
1
1
1
1
1
1
1
1
1
1
1
1
1
1
1
1
1
1
1
1
1
1
1
1
1
1
1
1
1
1
1
1
1
1
1
1
1
1
1
1
1
1
1
1
1
1
1
1
1
1
1
1
1
1
1
1
1
1
1
1
1
1
1
1
1
1
1
1
1
1
1
1
1
1
1
1
1
1
1
1
1
1
1
1
1
1
1
1
1
1
1
1
1
1
1
1
1
1
1
1
1
1
1
1
1
1
1
1
1
1
1
1
1
1
1
1
1
1
1
1
1
1
1
1
1
1
1
1
1
1
1
1
1
1
1
1
1
1
1
1
1
1
1
1
1
1
1
1
1
1
1
1
1
1
1
1
1
1
1
1
1
1
1
1
1
1
1
1
1
1
1
1
1

SCALARS radius float 1
LOOKUP_TABLE default
5e-05
5e-05
5e-05
5e-05
5e-05
5e-05
5e-05
5e-05
5e-05
5e-05
5e-05
5e-05
5e-05
5e-05
5e-05
5e-05
5e-05
5e-05
5e-05
5e-05
5e-05
5e-05
5e-05
5e-05
5e-05
5e-05
5e-05
5e-05
5e-05
5e-05
5e-05
5e-05
5e-05
5e-05
5e-05
5e-05
5e-05
5e-05
5e-05
5e-05
5e-05
5e-05
5e-05
5e-05
5e-05
5e-05
5e-05
5e-05
5e-05
5e-05
5e-05
5e-05
5e-05
5e-05
5e-05
5e-05
5e-05
5e-05
5e-05
5e-05
5e-05
5e-05
5e-05
5e-05
5e-05
5e-05
5e-05
5e-05
5e-05
5e-05
5e-05
5e-05
5e-05
5e-05
5e-05
5e-05
5e-05
5e-05
5e-05
5e-05
5e-05
5e-05
5e-05
5e-05
5e-05
5e-05
5e-05
5e-05
5e-05
5e-05
5e-05
5e-05
5e-05
5e-05
5e-05
5e-05
5e-05
5e-05
5e-05
5e-05
5e-05
5e-05
5e-05
5e-05
5e-05
5e-05
5e-05
5e-05
5e-05
5e-05
5e-05
5e-05
5e-05
5e-05
5e-05
5e-05
5e-05
5e-05
5e-05
5e-05
5e-05
5e-05
5e-05
5e-05
5e-05
5e-05
5e-05
5e-05
5e-05
5e-05
5e-05
5e-05
5e-05
5e-05
5e-05
5e-05
5e-05
5e-05
5e-05
5e-05
5e-05
5e-05
5e-05
5e-05
5e-05
5e-05
5e-05
5e-05
5e-05
5e-05
5e-05
5e-05
5e-05
5e-05
5e-05
5e-05
5e-05
5e-05
5e-05
5e-05
5e-05
5e-05
5e-05
5e-05
5e-05
5e-05
5e-05
5e-05
5e-05
5e-05
5e-05
5e-05
5e-05
5e-05
5e-05
5e-05
5e-05
5e-05
5e-05
5e-05
5e-05
5e-05
5e-05
5e-05
5e-05
5e-05
5e-05
5e-05
5e-05
5e-05
5e-05
5e-05
5e-05
5e-05
5e-05
5e-05
5e-05
5e-05
5e-05
5e-05
5e-05
5e-05
5e-05
5e-05
5e-05
5e-05
5e-05
5e-05
5e-05
5e-05
5e-05
5e-05
5e-05
5e-05
5e-05
5e-05
5e-05
5e-05
5e-05
5e-05
5e-05
5e-05
5e-05
5e-05
5e-05
5e-05
5e-05
5e-05
5e-05
5e-05
5e-05
5e-05
5e-05
5e-05
5e-05
5e-05
5e-05
5e-05
5e-05
5e-05
5e-05
5e-05
5e-05
5e-05
5e-05
5e-05
5e-05
5e-05
5e-05
5e-05
5e-05
5e-05
5e-05
5e-05
5e-05
5e-05
5e-05
5e-05
5e-05
5e-05
5e-05
5e-05
5e-05
5e-05
5e-05
5e-05
5e-05
5e-05
5e-05
5e-05
5e-05
5e-05
5e-05
5e-05
5e-05
5e-05
5e-05
5e-05
5e-05
5e-05
5e-05
5e-05
5e-05

SCALARS mass float 1
LOOKUP_TABLE default
1.46608e-10
1.46608e-10
1.46608e-10
1.46608e-10
1.46608e-10
1.46608e-10
1.46608e-10
1.46608e-10
1.46608e-10
1.46608e-10
1.46608e-10
1.46608e-10
1.46608e-10
1.46608e-10
1.46608e-10
1.46608e-10
1.46608e-10
1.46608e-10
1.46608e-10
1.46608e-10
1.46608e-10
1.46608e-10
1.46608e-10
1.46608e-10
1.46608e-10
1.46608e-10
1.46608e-10
1.46608e-10
1.46608e-10
1.46608e-10
1.46608e-10
1.46608e-10
1.46608e-10
1.46608e-10
1.46608e-10
1.46608e-10
1.46608e-10
1.46608e-10
1.46608e-10
1.46608e-10
1.46608e-10
1.46608e-10
1.46608e-10
1.46608e-10
1.46608e-10
1.46608e-10
1.46608e-10
1.46608e-10
1.46608e-10
1.46608e-10
1.46608e-10
1.46608e-10
1.46608e-10
1.46608e-10
1.46608e-10
1.46608e-10
1.46608e-10
1.46608e-10
1.46608e-10
1.46608e-10
1.46608e-10
1.46608e-10
1.46608e-10
1.46608e-10
1.46608e-10
1.46608e-10
1.46608e-10
1.46608e-10
1.46608e-10
1.46608e-10
1.46608e-10
1.46608e-10
1.46608e-10
1.46608e-10
1.46608e-10
1.46608e-10
1.46608e-10
1.46608e-10
1.46608e-10
1.46608e-10
1.46608e-10
1.46608e-10
1.46608e-10
1.46608e-10
1.46608e-10
1.46608e-10
1.46608e-10
1.46608e-10
1.46608e-10
1.46608e-10
1.46608e-10
1.46608e-10
1.46608e-10
1.46608e-10
1.46608e-10
1.46608e-10
1.46608e-10
1.46608e-10
1.46608e-10
1.46608e-10
1.46608e-10
1.46608e-10
1.46608e-10
1.46608e-10
1.46608e-10
1.46608e-10
1.46608e-10
1.46608e-10
1.46608e-10
1.46608e-10
1.46608e-10
1.46608e-10
1.46608e-10
1.46608e-10
1.46608e-10
1.46608e-10
1.46608e-10
1.46608e-10
1.46608e-10
1.46608e-10
1.46608e-10
1.46608e-10
1.46608e-10
1.46608e-10
1.46608e-10
1.46608e-10
1.46608e-10
1.46608e-10
1.46608e-10
1.46608e-10
1.46608e-10
1.46608e-10
1.46608e-10
1.46608e-10
1.46608e-10
1.46608e-10
1.46608e-10
1.46608e-10
1.46608e-10
1.46608e-10
1.46608e-10
1.46608e-10
1.46608e-10
1.46608e-10
1.46608e-10
1.46608e-10
1.46608e-10
1.46608e-10
1.46608e-10
1.46608e-10
1.46608e-10
1.46608e-10
1.46608e-10
1.46608e-10
1.46608e-10
1.46608e-10
1.46608e-10
1.46608e-10
1.46608e-10
1.46608e-10
1.46608e-10
1.46608e-10
1.46608e-10
1.46608e-10
1.46608e-10
1.46608e-10
1.46608e-10
1.46608e-10
1.46608e-10
1.46608e-10
1.46608e-10
1.46608e-10
1.46608e-10
1.46608e-10
1.46608e-10
1.46608e-10
1.46608e-10
1.46608e-10
1.46608e-10
1.46608e-10
1.46608e-10
1.46608e-10
1.46608e-10
1.46608e-10
1.46608e-10
1.46608e-10
1.46608e-10
1.46608e-10
1.46608e-10
1.46608e-10
1.46608e-10
1.46608e-10
1.46608e-10
1.46608e-10
1.46608e-10
1.46608e-10
1.46608e-10
1.46608e-10
1.46608e-10
1.46608e-10
1.46608e-10
1.46608e-10
1.46608e-10
1.46608e-10
1.46608e-10
1.46608e-10
1.46608e-10
1.46608e-10
1.46608e-10
1.46608e-10
1.46608e-10
1.46608e-10
1.46608e-10
1.46608e-10
1.46608e-10
1.46608e-10
1.46608e-10
1.46608e-10
1.46608e-10
1.46608e-10
1.46608e-10
1.46608e-10
1.46608e-10
1.46608e-10
1.46608e-10
1.46608e-10
1.46608e-10
1.46608e-10
1.46608e-10
1.46608e-10
1.46608e-10
1.46608e-10
1.46608e-10
1.46608e-10
1.46608e-10
1.46608e-10
1.46608e-10
1.46608e-10
1.46608e-10
1.46608e-10
1.46608e-10
1.46608e-10
1.46608e-10
1.46608e-10
1.46608e-10
1.46608e-10
1.46608e-10
1.46608e-10
1.46608e-10
1.46608e-10
1.46608e-10
1.46608e-10
1.46608e-10
1.46608e-10
1.46608e-10
1.46608e-10
1.46608e-10
1.46608e-10
1.46608e-10
1.46608e-10
1.46608e-10
1.46608e-10
1.46608e-10
1.46608e-10
1.46608e-10
1.46608e-10
1.46608e-10
1.46608e-10
1.46608e-10
1.46608e-10
1.46608e-10
1.46608e-10
1.46608e-10
1.46608e-10
1.46608e-10
1.46608e-10
1.46608e-10
1.46608e-10
1.46608e-10
1.46608e-10
1.46608e-10
1.46608e-10
1.46608e-10

VECTORS velocity float
0.0108144 0.0138904 -0.0132627
0.00544995 -0.00131856 0.000558509
0.00588403 -0.000450783 0.000615604
0.00572464 -0.00156129 -0.000173942
0.0105275 0.0134506 -0.0126789
0.00544268 -0.00307468 0.000917488
0.0110508 0.0159832 -0.0147189
0.0125254 0.0135775 -0.0132475
0.00542113 -0.00305661 0.000958022
9.40025e-15 -9.73165e-14 2.32273e-13
0.00552035 -0.00126706 0.000539181
0.0057888 -0.000824377 0.00034839
0.00974016 0.013981 -0.012928
0.00601636 -0.000391409 0.000723276
0.0194194 0.0425991 -0.0368504
0.00623509 -0.000436644 0.000778476
0.0115461 0.0233178 -0.0203884
0.0131982 0.0130436 -0.0131971
-9.91765e-16 1.02473e-14 -2.44583e-14
0.0194142 0.0425784 -0.0368336
0.00610156 -0.000747124 0.000485856
0.00530955 -0.00301218 0.00101075
0.018418 0.0433863 -0.0372089
0.00543141 -0.00307218 0.000916971
0.00603651 -0.000780142 0.000459172
0.00581338 0.000468457 -5.70861e-05
0.0122268 0.0155079 -0.0232251
0.00246145 0.000711903 8.8718e-05
0.019411 0.0425643 -0.0368221
0.00718879 0.0122425 -0.0109716
0.00544003 -0.0030741 0.000917383
0.011391 0.0157701 -0.0146383
0.0193018 0.0425959 -0.0368201
0.00536119 -0.00302337 0.0010214
0.00255259 0.000457146 8.95478e-05
0.00617787 -0.000768956 0.000377183
0.00537592 -0.00307624 0.0010231
0.00446838 -0.0019263 0.000758432
0.267107 -0.0298448 0.0200825
0.00541212 -0.0011535 0.000504814
0.00543745 -0.00307352 0.000917187
0.0107647 0.0138409 -0.0130317
0.00375981 0.000767286 -0.000190681
0.00554922 -0.00135861 -0.000286464
0.00551552 -0.00131934 -0.000309526
0.00573697 -0.00081596 0.000340088
0.00543304 -0.00305555 0.000911212
0.00259372 0.000193979 -2.34114e-05
0.00583127 -0.000370264 0.000691147
0.0065475 0.000797172 -0.000156985
0.00543459 -0.00307294 0.000917099
1.22636e-08 -2.3123e-07 8.11683e-08
0.0187114 0.0406939 -0.0352404
0.00560306 -0.00127345 0.000547767
0.00566487 -0.00156389 -0.000162302
0.00536049 -0.003023 0.00102112
0.00588955 -0.000821337 0.000326598
0.00567941 -0.000844719 0.000378902
0.00554035 -0.00130878 0.000555985
0.0057119 -0.00153172 -0.000175036
9.69809e-20 -4.63449e-18 -1.30382e-17
0.00542952 -0.00307163 0.000916682
0.00588248 -0.000369614 0.000702773
0.00251581 0.000402369 -4.24533e-05
1.64335e-15 -3.117e-14 -8.90447e-14
0.00558853 -0.00128514 0.000550602
0.0059632 -0.000710062 0.000466777
0.00571433 -0.00150036 -0.000219553
0.00516543 -0.000350939 0.000505424
0.00582846 -0.000815374 0.000359869
0.00555005 -0.00129005 0.000550207
0.00562346 -0.00080847 0.000319945
0.00611412 -0.000756167 0.000494858
0.00566947 -0.000765742 0.000284897
0.00541119 -0.00303453 0.00103081
0.00533809 -0.000658608 0.000336827
0.00517528 -0.00151202 0.000621322
0.0188688 0.0481935 -0.0186036
0.00549607 -0.00108876 0.000482056
0.00583164 -0.00122179 0.000557517
0.00554394 -0.00133368 0.000567825
0.00588125 -0.000808309 0.000379653
0.0024876 0.000499082 -9.17893e-05
0.00575877 -0.00128138 0.000200323
0.00561955 -0.00115315 0.000524953
0.00545768 -0.00116678 0.000469115
0.00566638 -0.0010935 0.000489621
0.00543366 -0.00080879 0.00025636
0.00541726 -0.00108792 0.000510994
0.0058253 -0.00083736 0.000353714
0.00247001 0.000272408 -4.08352e-05
0.00556102 -0.000820274 0.000359513
4.42502e-15 1.04724e-14 8.29553e-14
9.7161e-23 4.86658e-23 1.23839e-22
0.0059762 -0.000697052 0.000467443
0.00532871 -0.000717126 0.000275366
0.00599918 -0.000683323 0.000465541
0.00523744 -0.000335469 0.000603796
9.40054e-15 -9.73165e-14 2.32273e-13
0.00548717 -0.00127689 -0.000335165
0.00561281 -0.00125298 0.000232416
0.00538152 -0.00114329 0.000497823
0.00552862 -0.00082396 0.000291067
0.00544101 -0.000503435 0.000396741
0.00606107 -0.000698135 0.000471894
0.0058752 0.000237132 3.41617e-05
-9.89357e-16 1.02475e-14 -2.44583e-14
0.00570781 -0.00122211 0.000534354
0.00586865 -0.000333613 0.000584755
0.0192136 0.0427027 -0.03688
0.0194041 0.0425388 -0.0368011
0.0139488 0.024461 -0.0234526
0.00556673 -0.00140163 -0.000141018
0.00555242 -0.00076269 0.000286675
0.00559621 -0.00143809 -0.000237864
0.00567698 -0.00124037 0.00053974
0.00545432 -0.00126892 -0.000331773
0.00527783 -0.000742628 0.000253511
0.0055649 -0.00139637 -0.000264776
0.00553436 -0.00120354 0.000477785
0.00608133 -0.000723985 0.000479397
0.00576007 -0.000856657 0.00038669
0.00549094 -0.00127937 0.000507162
9.40014e-15 -9.73165e-14 2.32273e-13
0.00548487 -0.00151103 -0.000155655
0.0101117 0.0146419 -0.0134787
0.00521164 -0.000521714 0.00043781
0.00574439 -0.00150483 -0.000222333
9.40101e-15 -9.73165e-14 2.32273e-13
0.00539936 -0.00128563 0.000548221
0.00547805 -0.000745822 0.00029146
0.00603242 -0.000697079 0.000470176
0.00535733 -0.000600454 0.000373078
0.00607877 -0.000703252 0.000474034
0.00571874 -0.000776093 0.000291101
0.0051078 -0.000326831 0.000610335
0.00604455 -0.000743023 0.000478495
0.00545299 -0.00107386 0.000477295
0.00587363 -0.000805092 0.000302583
0.00594172 -0.000680947 0.000461941
0.00562514 -0.000750404 0.000272459
0.00601529 -0.000714809 0.000472988
0.00593751 -0.000709847 0.000467036
0.00604247 -0.000717509 0.000474824
-3.82743e-14 8.17301e-14 2.95878e-13
0.00567479 -0.000473542 0.000400776
0.00585325 -0.0013159 0.000569108
0.00597233 -0.000732334 0.000473845
0.00602232 -0.000738395 0.00047791
0.00585748 -0.000704508 0.000461193
0.00593824 -0.000606831 0.000446187
9.40034e-15 -9.73165e-14 2.32273e-13
0.00579973 -0.000790285 0.000299289
0.00597125 -0.00068064 0.000463515
0.00533692 -0.000479254 0.000386936
0.00594502 -0.000675936 0.000461225
-4.38601e-19 5.90987e-18 -1.39361e-17
0.00591957 -0.000644756 0.000453156
0.0056841 -0.00122059 0.000572699
0.0059309 -0.000691735 0.000463927
0.0060126 0.000256477 -0.000262195
0.00606516 -0.000719735 0.000476855
0.00585214 -0.000729414 0.000391671
0.00568006 -0.000447909 0.000399709
0.00562449 -0.00047148 0.000404135
0.00595993 -0.000710431 0.000461772
-9.88675e-16 1.02474e-14 -2.44583e-14
0.00595506 -0.000693634 0.000465398
0.00557683 -0.0011898 0.000522415
0.00606777 -0.000746793 0.000482056
0.00598946 -0.000717339 0.000472936
0.00241474 0.000836981 0.000256612
0.00563443 -0.00147159 -0.000223551
0.00258421 0.000449285 0.000109127
0.00597336 0.000210351 -0.000245202
0.0057556 -0.00151346 -0.000242275
0.00605161 -0.000676488 0.000466879
0.0188166 0.0430472 -0.0370467
0.00600572 -0.000834496 0.000306655
0.00564008 -0.000541664 0.000416178
0.00558108 -0.000352838 0.00066014
0.00599196 0.000207355 -0.000245232
0.00594951 -0.000796354 0.000413732
0.00599728 -0.000734819 0.000475968
0.00604782 -0.000866326 0.000363597
0.00542881 -0.000316363 0.000358165
0.0060243 -0.000676933 0.000465558
0.00554803 -0.0011419 0.00048297
0.00602074 -0.000848144 0.000345065
0.0056394 -0.000451222 0.000393115
0.00590689 -0.000690012 0.000462399
0.00558125 -0.000756831 0.000283026
0.00598882 -0.000712249 0.000470709
0.00593387 -0.000849513 0.00027692
0.00286303 0.00033694 2.51738e-05
0.00556472 -0.0010172 0.00046158
0.0059164 -0.000673487 0.000459049
0.00252294 0.000668821 0.000191966
0.00538755 -0.00112435 0.000491284
0.00599008 0.000188501 -0.000237892
0.0059436 -0.000726516 0.000464735
-1.14695e-14 1.1873e-13 -2.83384e-13
0.0058946 -0.000715352 0.000466448
0.00557163 -0.00103564 0.000465372
0.00590464 -0.000686923 0.000461002
0.00599811 0.000250666 -0.000261247
0.0034 0.00507879 -0.00171502
0.0060052 -0.000696821 0.000468774
0.00609386 -0.000753573 0.000487262
0.0057696 -0.00146466 -9.62531e-05
0.00593199 -0.000651935 0.000455388
0.00599309 0.000215378 -0.000247627
0.00601146 0.000254212 -0.000262374
0.00591347 -0.000712785 0.000467893
0.00567761 -0.00043938 0.000395929
0.00601341 0.00024172 -0.000258096
0.00564143 -0.000759559 0.000281246
0.00607311 -0.000752731 0.000423195
0.00548768 -0.00123109 0.000538219
0.00557659 -0.000456994 0.000424121
0.00558025 -0.00068613 0.000439374
0.0055532 -0.000616771 0.000425903
0.00576601 0.000176014 -0.00070931
0.00571267 0.000264839 -0.000198236
0.00565304 0.00079356 -0.000174574
0.0060863 -0.000694456 0.000472639
0.00594627 -0.000849105 0.000355807
0.00569871 0.000464003 0.000292482
0.00603106 0.000207871 -0.000243779
0.00594145 -0.000480036 0.000298925
0.00540642 -0.000499962 0.000394596
0.00598369 0.000220761 -0.000249425
0.00591523 -0.000709423 0.000466363
0.00541906 -0.00112251 0.000492842
0.00597687 0.000209764 -0.000245083
0.00598935 0.000234921 -0.0002548
0.00603498 0.000205895 -0.000257063
0.00583042 -0.000430513 0.000738566
0.00589439 -0.000675751 0.000458226
0.00586346 -0.000708158 0.000457088
0.00561718 -0.000478248 0.000398336
0.00597187 0.000210768 -0.000245334
0.006091 -0.000707666 0.000475639
0.00558011 -0.000477655 0.000398957
0.00554491 -0.000598074 0.000439864
0.00601812 0.000201018 -0.000244241
0.00597871 -0.00048612 0.000348209
0.00600351 0.000233746 -0.000254823
0.00598956 -0.000666185 0.000461439
0.00587127 -0.00070485 0.000463301
0.00591015 -0.00067306 0.000458524
0.00587785 -0.000707399 0.000463212
0.00546809 -0.00113385 0.000502212
0.00590729 -0.000660013 0.00045546
0.00595934 0.000202507 -0.000242032
0.00586034 -0.00068924 0.000453417
0.005968 0.000211815 -0.000245696
0.00588714 -0.000691966 0.000461718
0.00590183 -0.000715613 0.000466224
0.00561141 -0.000572755 0.000438393
0.00586498 -0.000696679 0.000462085
0.00601705 0.000220054 -0.000247671
0.00596575 0.000206639 -0.000243689
0.00608742 -0.000698082 0.000472102
0.00599013 0.000255419 -0.000262111
0.00562627 0.000468518 0.000312995
0.0055054 -0.000459975 0.000387224
0.00564767 -0.00049988 0.000404736
0.00583483 -0.000640931 0.000441882
0.00568761 -0.000458184 0.000403477
0.00563869 -0.000551066 0.000411999
0.0060375 -0.000836831 0.000332362
0.00607644 -0.000682456 0.000469456
0.00568557 -0.000452294 0.000399492
0.00563914 -0.000760488 0.000283433
0.0058901 -0.000665954 0.000456439
0.00562198 -0.000620499 0.000438564
0.0059776 0.000183327 -0.000235528
0.00556933 -0.00065944 0.000402664
0.0049038 -0.000662561 0.00032356
0.00604073 0.00018669 -0.000222261
0.00598447 0.000190962 -0.000238611
0.00555378 -0.001113 0.00050029

VECTORS force float
1.76986e-10 -1.05218e-10 -1.33103e-09
-4.38525e-10 4.66023e-10 -1.27319e-10
-2.80738e-10 -1.42838e-11 -3.25714e-10
8.86156e-11 -2.5946e-10 3.6648e-10
-6.94863e-11 3.11785e-10 -2.20465e-10
7.98014e-13 7.47354e-13 -1.77992e-13
6.98128e-11 2.20907e-10 -1.83771e-10
8.26528e-11 1.93419e-10 -1.65998e-10
-4.7069e-12 -4.01821e-12 6.87626e-13
7.33477e-24 2.06795e-25 -4.1359e-25
-2.33835e-10 5.02814e-10 -1.66162e-11
2.63129e-11 -8.22155e-11 4.73761e-11
-8.81418e-11 5.59337e-10 8.46018e-10
-4.27169e-10 9.82024e-11 -6.83892e-11
7.21973e-11 2.3258e-10 -1.93174e-10
2.57606e-10 1.85916e-10 -1.59025e-10
1.25186e-11 2.70818e-10 -2.07967e-10
-1.54757e-10 4.46987e-10 1.28329e-10
-3.77337e-23 -3.41212e-24 2.06795e-25
7.23235e-11 2.32556e-10 -1.93185e-10
1.07265e-10 -1.01109e-10 5.24505e-11
-5.81707e-12 -5.61689e-13 2.19607e-12
3.65163e-11 2.61181e-10 -2.06363e-10
-8.37101e-13 1.26935e-12 -1.16886e-12
-3.97073e-11 1.86887e-12 8.92786e-11
-1.77935e-10 -3.07515e-11 -1.90031e-11
1.85405e-10 -1.03834e-10 -1.32405e-09
-1.64589e-10 -1.98111e-10 2.51448e-11
7.24504e-11 2.32534e-10 -1.93199e-10
-1.6424e-11 2.83822e-10 -2.10948e-10
1.05954e-12 6.97381e-13 -2.91226e-13
7.16041e-11 2.17895e-10 -1.81924e-10
7.27506e-11 2.32787e-10 -1.93461e-10
7.94364e-12 1.8237e-11 -8.8136e-12
4.83066e-10 4.67636e-10 3.72634e-11
4.56751e-10 4.33728e-11 -2.68812e-11
-4.4363e-13 4.19712e-12 3.68835e-12
-5.51275e-10 5.42834e-10 -2.04792e-10
0.0 0.0 -1.43822e-09
4.9832e-10 4.43203e-10 -1.08777e-10
2.51123e-13 8.99079e-13 -8.54013e-13
2.11914e-11 3.56929e-10 3.00754e-10
-2.17403e-10 -3.42917e-10 8.56589e-11
5.80351e-11 -2.87757e-10 1.86144e-10
-3.98189e-11 4.56342e-11 -3.59141e-11
8.01021e-11 -1.94903e-10 -2.39652e-11
1.82099e-12 1.8917e-12 3.55649e-13
1.73954e-10 -2.99796e-10 1.44056e-10
-3.63043e-10 1.94094e-10 -3.48414e-10
6.36741e-10 -3.15308e-10 8.36205e-11
1.54143e-12 -1.49057e-13 1.45443e-12
-7.7021e-14 1.42818e-12 -5.01355e-13
7.27597e-11 2.32231e-10 -1.93043e-10
-5.84159e-10 3.24519e-10 -1.173e-10
-5.25523e-10 -1.83548e-11 1.30157e-10
-1.06563e-12 -8.46287e-12 6.02663e-12
2.06376e-13 9.72933e-11 -6.78641e-11
-1.34965e-10 6.93716e-12 -2.68406e-12
-5.28931e-10 4.44815e-10 -1.02688e-10
-3.99553e-11 -2.12428e-10 1.65991e-10
-5.16988e-26 5.16988e-26 2.06795e-25
2.8415e-12 2.44935e-12 -1.42509e-12
-1.87068e-10 2.9596e-10 -1.65759e-10
-1.04523e-09 -2.60528e-10 -5.14796e-10
6.54636e-24 4.1359e-25 0.0
-6.20542e-10 6.29119e-10 -2.03797e-10
1.93563e-12 -4.03647e-12 4.51769e-12
-3.58996e-10 1.71804e-10 -4.11055e-11
-2.17931e-11 -1.97428e-10 1.0459e-10
-2.88426e-11 -1.74627e-11 7.92042e-11
-9.17484e-11 -1.69983e-10 -3.92253e-10
-3.71361e-11 -1.3231e-10 1.21838e-11
1.01935e-10 -3.36323e-11 4.02734e-11
-3.82751e-10 1.96089e-10 -1.89568e-10
2.54764e-13 -6.89604e-12 8.51396e-14
9.13663e-11 -5.27461e-11 -3.86247e-10
-5.02385e-10 6.19584e-10 -2.14058e-10
0.0 0.0 -1.43822e-09
2.30363e-10 1.11256e-10 -2.1914e-10
6.48215e-10 -5.96141e-10 3.95125e-10
-5.26064e-10 6.23941e-10 -2.25923e-10
-1.45329e-10 3.97965e-12 2.32633e-11