# vtk DataFile Version 3.0
LIGGGHTS particles timestep 6000000
ASCII
DATASET POLYDATA
POINTS 212 float
0.021916 0.0241203 0.0143687
0.0257803 0.0229555 0.00960747
0.0187373 0.0203707 0.0165756
0.0276152 0.0194959 0.015806
0.017756 0.0224154 0.0178383
0.0139899 0.0224676 0.0155238
0.0170519 0.0160622 0.0147873
0.0213335 0.023524 0.0142027
0.0165569 0.0241019 0.0144433
0.0246878 0.0190157 0.00721366
0.01944 0.0244685 0.0136019
0.021277 0.0217491 0.0159258
0.0202698 0.0226605 0.00917804
0.0556738 0.0206032 0.00597199
0.0206254 0.0239623 0.0123646
0.0243457 0.0212717 0.00628435
0.0256777 0.0226748 0.00910399
0.0270302 0.0200827 0.00600749
0.0239973 0.02137 0.0162032
0.0171618 0.0234052 0.0143183
0.0199229 0.0140267 0.0129563
0.0168345 0.0150994 0.0135375
0.0231247 0.0212583 0.0153717
0.0198541 0.0211599 0.00775528
0.0295106 0.0149852 0.0103014
0.0176049 0.024201 0.0134736
0.0141235 0.0207621 0.0165041
0.022955 0.0236765 0.0151619
0.0572713 0.0188707 0.00584588
0.0198958 0.0204214 0.0165916
0.0167144 0.0238878 0.0134896
0.0179483 0.0139897 0.0133707
0.0966017 0.0221593 0.00668674
0.0233599 0.0158948 0.0146316
0.0210482 0.020434 0.00602219
0.0629287 0.0190175 0.00579633
0.0236909 0.0182313 0.0158757
0.0235611 0.0231649 0.0155516
0.0157027 0.0213874 0.0167115
0.0224116 0.0226643 0.015644
0.0201258 0.0214787 0.0161973
0.0274138 0.0191286 0.0060216
0.0290292 0.0148222 0.0119995
0.0194814 0.00758068 0.0404431
0.0215766 0.0241418 0.0182418
0.0202002 0.0237501 0.0119169
0.0188018 0.0239704 0.0146892
0.0180259 0.0212393 0.0165638
0.0177759 0.0241309 0.0144103
0.0171236 0.0230239 0.0163682
0.0233243 0.0220881 0.0159369
0.030211 0.0167861 0.00780815
0.0210536 0.0233458 0.0109141
0.0251373 0.0214058 0.0160891
0.0173849 0.0146283 0.0120069
0.0226899 0.019305 0.0159352
0.0241503 0.0166301 0.00795436
0.0216897 0.0143003 0.0138333
0.0163336 0.019714 0.0161061
0.0196994 0.024148 0.0165516
0.0204555 0.0238313 0.0158444
0.0191728 0.0204229 0.0156482
0.0245552 0.0179095 0.0166204
0.0234345 0.0201379 0.0158062
0.0272555 0.0210946 0.0153291
0.0243772 0.0206761 0.0177583
0.0176379 0.0152251 0.0146576
0.0270875 0.0217195 0.014781
0.017159 0.0142396 0.0139317
0.0705187 0.0193244 0.00582834
0.0225353 0.0145114 0.0143253
0.0201136 0.0169718 0.00772904
0.021966 0.0219213 0.0149245
0.0226532 0.0236085 0.0141823
0.105358 0.0186487 0.00585656
0.0150137 0.0199528 0.0169914
0.0292679 0.0147604 0.0112764
0.0224599 0.0162151 0.0149272
0.0256359 0.0206453 0.0165076
0.0213888 0.0231609 0.0130106
0.0178457 0.020276 0.00611885
0.0175136 0.0197943 0.0159356
0.0193644 0.024623 0.0182163
0.0286729 0.0154965 0.0138364
0.024898 0.0163297 0.0159703
0.0150212 0.023225 0.0147341
0.030501 0.0181798 0.00728397
0.0195451 0.0165513 0.0160967
0.0169129 0.0189051 0.0159566
0.0229461 0.022244 0.0145896
0.0157257 0.0226567 0.0140747
0.0268678 0.0213654 0.00617039
0.0182471 0.0240684 0.0127679
0.0181796 0.0160636 0.014787
0.0203333 0.024289 0.0133036
0.0246621 0.0220053 0.0157
0.0231909 0.0171186 0.0155191
0.021075 0.0243375 0.0139268
0.0185093 0.0243811 0.0138322
0.0298622 0.0157134 0.00876039
0.0219814 0.0237112 0.0135089
0.0200887 0.0218374 0.00821582
0.0253866 0.0216228 0.0167937
0.0206085 0.0235018 0.013652
0.0285306 0.0159556 0.0144816
0.0260433 0.0233233 0.0107821
0.0210812 0.0160417 0.0147011
0.0216322 0.0198196 0.0158842
0.0153578 0.0146831 0.0144554
0.020769 0.0145118 0.0141614
0.0195862 0.0236376 0.0141378
0.0233253 0.0232147 0.0145805
0.0208785 0.014094 0.0132513
0.0221149 0.0175838 0.0156944
0.0213999 0.0227808 0.0138001
0.0156918 0.0221821 0.0182786
0.0209444 0.0233949 0.0117314
0.0179255 0.0179719 0.0161854
0.0150732 0.022176 0.0147185
0.0164944 0.0201799 0.0179807
0.0396423 0.0201989 0.0059315
0.0204771 0.0223665 0.0185566
0.0160403 0.0177008 0.0166292
0.0198172 0.0143727 0.0138884
0.0195009 0.0221909 0.00855858
0.0136654 0.0216161 0.016101
0.0204454 0.0237683 0.0180766
0.0196392 0.0237313 0.0152757
0.0161652 0.0143553 0.0139594
0.0206613 0.0163689 0.0160463
0.0181794 0.0145386 0.0141733
0.0237523 0.0149402 0.0103128
0.0280323 0.0185407 0.0158159
0.0228229 0.0151207 0.0135862
0.0243355 0.017447 0.00748807
0.0191816 0.0241098 0.0127144
0.0188965 0.0140408 0.0136838
0.0104428 0.0425845 0.0601202
0.0186463 0.0185266 0.00719336
0.0232461 0.0147208 0.0114353
0.0166488 0.0151717 0.0145174
0.0160214 0.0213774 0.0153077
0.0238873 0.0152941 0.0152324
0.0189183 0.0216945 0.0160319
0.0161237 0.0235355 0.0152468
0.02044 0.0235485 0.0146508
0.0240849 0.0225374 0.0154183
0.0211912 0.023962 0.0130483
0.0227911 0.0178776 0.0165151
0.0189253 0.0141899 0.0126552
0.0158259 0.0235601 0.0142839
0.0249356 0.0199087 0.00728891
0.0171292 0.0212274 0.0156209
0.0171228 0.0143497 0.0129308
0.0184574 0.0145862 0.0151516
0.0159525 0.0189944 0.0168986
0.0223838 0.0181052 0.00622395
0.0215408 0.020777 0.0156162
0.0200204 0.0232641 0.010582
0.0181886 0.023291 0.0145303
0.0190969 0.022971 0.0150097
0.0200292 0.0149077 0.0147074
0.0205126 0.0232727 0.0127505
0.0148087 0.023 0.0156685
0.0183823 0.0146231 0.0119359
0.0247402 0.0222248 0.0163959
0.0193392 0.0233949 0.0121032
0.0280028 0.0176957 0.0155781
0.0223028 0.0228783 0.0136812
0.0303407 0.018037 0.00599387
0.026768 0.018304 0.00597383
0.0179976 0.0149859 0.013298
0.0220677 0.0223177 0.0180149
0.0174931 0.0171855 0.015561
0.0255173 0.0219892 0.00859709
0.0139842 0.0211961 0.0182711
0.0267733 0.0224124 0.0139474
0.016245 0.0170075 0.0155064
0.0169356 0.0119422 0.0222608
0.017948 0.023966 0.018273
0.0281999 0.0165901 0.0150213
0.0198288 0.0223249 0.0156472
0.0480449 0.0199535 0.00589896
0.0236257 0.0151997 0.00958045
0.0231552 0.0214842 0.00652263
0.132922 0.0167698 0.00891565
0.0262509 0.0233649 0.0115207
0.0154892 0.0206755 0.0159138
0.0288287 0.0170141 0.0152765
0.0157983 0.0225488 0.0153794
0.0208705 0.0224628 0.0142982
0.023334 0.0229842 0.00966819
0.0148007 0.022723 0.0139261
0.0227782 0.013186 0.0216878
0.018387 0.0224466 0.0154797
0.0212976 0.0234078 0.0151993
0.0247846 0.0163125 0.00813601
0.0280086 0.0202915 0.00598001
0.0273724 0.0205178 0.0155474
0.0236691 0.0190519 0.0170118
0.0168684 0.0222071 0.0152937
0.0241938 0.0164188 0.0150948
0.0253714 0.018991 0.00718397
0.0264876 0.0232201 0.0127119
0.0163125 0.02311 0.0132561
0.0267317 0.0208011 0.0530689
0.016739 0.021544 0.0176247
0.0192169 0.0213931 0.00791156
0.0189592 0.0202552 0.00737856
0.0261052 0.0232221 0.0102066
0.0188454 0.019385 0.0071843
0.0154565 0.023852 0.0185983

VERTICES 212 424
1 0
1 1
1 2
1 3
1 4
1 5
1 6
1 7
1 8
1 9
1 10
1 11
1 12
1 13
1 14
1 15
1 16
1 17
1 18
1 19
1 20
1 21
1 22
1 23
1 24
1 25
1 26
1 27
1 28
1 29
1 30
1 31
1 32
1 33
1 34
1 35
1 36
1 37
1 38
1 39
1 40
1 41
1 42
1 43
1 44
1 45
1 46
1 47
1 48
1 49
1 50
1 51
1 52
1 53
1 54
1 55
1 56
1 57
1 58
1 59
1 60
1 61
1 62
1 63
1 64
1 65
1 66
1 67
1 68
1 69
1 70
1 71
1 72
1 73
1 74
1 75
1 76
1 77
1 78
1 79
1 80
1 81
1 82
1 83
1 84
1 85
1 86
1 87
1 88
1 89
1 90
1 91
1 92
1 93
1 94
1 95
1 96
1 97
1 98
1 99
1 100
1 101
1 102
1 103
1 104
1 105
1 106
1 107
1 108
1 109
1 110
1 111
1 112
1 113
1 114
1 115
1 116
1 117
1 118
1 119
1 120
1 121
1 122
1 123
1 124
1 125
1 126
1 127
1 128
1 129
1 130
1 131
1 132
1 133
1 134
1 135
1 136
1 137
1 138
1 139
1 140
1 141
1 142
1 143
1 144
1 145
1 146
1 147
1 148
1 149
1 150
1 151
1 152
1 153
1 154
1 155
1 156
1 157
1 158
1 159
1 160
1 161
1 162
1 163
1 164
1 165
1 166
1 167
1 168
1 169
1 170
1 171
1 172
1 173
1 174
1 175
1 176
1 177
1 178
1 179
1 180
1 181
1 182
1 183
1 184
1 185
1 186
1 187
1 188
1 189
1 190
1 191
1 192
1 193
1 194
1 195
1 196
1 197
1 198
1 199
1 200
1 201
1 202
1 203
1 204
1 205
1 206
1 207
1 208
1 209
1 210
1 211

POINT_DATA 212
SCALARS id int 1
LOOKUP_TABLE default
1
2
3
5
6
7
8
9
10
11
12
13
14
17
19
22
23
24
25
26
28
29
31
32
33
34
36
37
38
39
43
48
49
51
53
54
56
57
58
61
62
64
65
66
67
71
72
73
74
75
76
77
78
80
82
83
84
85
86
89
90
91
92
94
96
97
98
99
101
102
104
105
106
107
108
109
110
111
112
114
115
116
117
118
119
120
121
124
127
128
129
131
132
133
134
135
136
137
138
139
140
141
142
143
144
145
146
147
148
149
150
152
153
154
155
156
157
158
161
163
164
165
168
169
170
171
172
173
174
177
178
179
182
187
188
189
190
191
193
194
195
196
198
199
202
203
205
207
208
209
211
213
214
215
218
221
222
226
227
228
230
231
232
234
235
237
238
239
240
241
242
243
244
245
250
251
252
256
257
258
259
260
261
262
263
264
266
267
270
271
272
273
275
276
280
281
282
283
284
285
287
288
289
290
292
293
294
295
296
297
299
300

SCALARS type int 1
LOOKUP_TABLE default
1
1
1
1
1
1
1
1
1
1
1
1
1
1
1
1
1
1
1
1
1
1
1
1
1
1
1
1
1
1
1
1
1
1
1
1
1
1
1
1
1
1
1
1
1
1
1
1
1
1
1
1
1
1
1
1
1
1
1
1
1
1
1
1
1
1
1
1
1
1
1
1
1
1
1
1
1
1
1
1
1
1
1
1
1
1
1
1
1
1
1
1
1
1
1
1
1
1
1
1
1
1
1
1
1
1
1
1
1
1
1
1
1
1
1
1
1
1
1
1
1
1
1
1
1
1
1
1
1
1
1
1
1
1
1
1
1
1
1
1
1
1
1
1
1
1
1
1
1
1
1
1
1
1
1
1
1
1
1
1
1
1
1
1
1
1
1
1
1
1
1
1
1
1
1
1
1
1
1
1
1
1
1
1
1
1
1
1
1
1
1
1
1
1
1
1
1
1
1
1
1
1
1
1
1
1
1
1
1
1
1
1

SCALARS radius float 1
LOOKUP_TABLE default
0.0005
0.0005
0.0005
0.0005
0.0005
0.0005
0.0005
0.0005
0.0005
0.0005
0.0005
0.0005
0.0005
0.0005
0.0005
0.0005
0.0005
0.0005
0.0005
0.0005
0.0005
0.0005
0.0005
0.0005
0.0005
0.0005
0.0005
0.0005
0.0005
0.0005
0.0005
0.0005
0.0005
0.0005
0.0005
0.0005
0.0005
0.0005
0.0005
0.0005
0.0005
0.0005
0.0005
0.0005
0.0005
0.0005
0.0005
0.0005
0.0005
0.0005
0.0005
0.0005
0.0005
0.0005
0.0005
0.0005
0.0005
0.0005
0.0005
0.0005
0.0005
0.0005
0.0005
0.0005
0.0005
0.0005
0.0005
0.0005
0.0005
0.0005
0.0005
0.0005
0.0005
0.0005
0.0005
0.0005
0.0005
0.0005
0.0005
0.0005
0.0005
0.0005
0.0005
0.0005
0.0005
0.0005
0.0005
0.0005
0.0005
0.0005
0.0005
0.0005
0.0005
0.0005
0.0005
0.0005
0.0005
0.0005
0.0005
0.0005
0.0005
0.0005
0.0005
0.0005
0.0005
0.0005
0.0005
0.0005
0.0005
0.0005
0.0005
0.0005
0.0005
0.0005
0.0005
0.0005
0.0005
0.0005
0.0005
0.0005
0.0005
0.0005
0.0005
0.0005
0.0005
0.0005
0.0005
0.0005
0.0005
0.0005
0.0005
0.0005
0.0005
0.0005
0.0005
0.0005
0.0005
0.0005
0.0005
0.0005
0.0005
0.0005
0.0005
0.0005
0.0005
0.0005
0.0005
0.0005
0.0005
0.0005
0.0005
0.0005
0.0005
0.0005
0.0005
0.0005
0.0005
0.0005
0.0005
0.0005
0.0005
0.0005
0.0005
0.0005
0.0005
0.0005
0.0005
0.0005
0.0005
0.0005
0.0005
0.0005
0.0005
0.0005
0.0005
0.0005
0.0005
0.0005
0.0005
0.0005
0.0005
0.0005
0.0005
0.0005
0.0005
0.0005
0.0005
0.0005
0.0005
0.0005
0.0005
0.0005
0.0005
0.0005
0.0005
0.0005
0.0005
0.0005
0.0005
0.0005
0.0005
0.0005
0.0005
0.0005
0.0005
0.0005
0.0005
0.0005
0.0005
0.0005
0.0005
0.0005

SCALARS mass float 1
LOOKUP_TABLE default
1.46608e-07
1.46608e-07
1.46608e-07
1.46608e-07
1.46608e-07
1.46608e-07
1.46608e-07
1.46608e-07
1.46608e-07
1.46608e-07
1.46608e-07
1.46608e-07
1.46608e-07
1.46608e-07
1.46608e-07
1.46608e-07
1.46608e-07
1.46608e-07
1.46608e-07
1.46608e-07
1.46608e-07
1.46608e-07
1.46608e-07
1.46608e-07
1.46608e-07
1.46608e-07
1.46608e-07
1.46608e-07
1.46608e-07
1.46608e-07
1.46608e-07
1.46608e-07
1.46608e-07
1.46608e-07
1.46608e-07
1.46608e-07
1.46608e-07
1.46608e-07
1.46608e-07
1.46608e-07
1.46608e-07
1.46608e-07
1.46608e-07
1.46608e-07
1.46608e-07
1.46608e-07
1.46608e-07
1.46608e-07
1.46608e-07
1.46608e-07
1.46608e-07
1.46608e-07
1.46608e-07
1.46608e-07
1.46608e-07
1.46608e-07
1.46608e-07
1.46608e-07
1.46608e-07
1.46608e-07
1.46608e-07
1.46608e-07
1.46608e-07
1.46608e-07
1.46608e-07
1.46608e-07
1.46608e-07
1.46608e-07
1.46608e-07
1.46608e-07
1.46608e-07
1.46608e-07
1.46608e-07
1.46608e-07
1.46608e-07
1.46608e-07
1.46608e-07
1.46608e-07
1.46608e-07
1.46608e-07
1.46608e-07
1.46608e-07
1.46608e-07
1.46608e-07
1.46608e-07
1.46608e-07
1.46608e-07
1.46608e-07
1.46608e-07
1.46608e-07
1.46608e-07
1.46608e-07
1.46608e-07
1.46608e-07
1.46608e-07
1.46608e-07
1.46608e-07
1.46608e-07
1.46608e-07
1.46608e-07
1.46608e-07
1.46608e-07
1.46608e-07
1.46608e-07
1.46608e-07
1.46608e-07
1.46608e-07
1.46608e-07
1.46608e-07
1.46608e-07
1.46608e-07
1.46608e-07
1.46608e-07
1.46608e-07
1.46608e-07
1.46608e-07
1.46608e-07
1.46608e-07
1.46608e-07
1.46608e-07
1.46608e-07
1.46608e-07
1.46608e-07
1.46608e-07
1.46608e-07
1.46608e-07
1.46608e-07
1.46608e-07
1.46608e-07
1.46608e-07
1.46608e-07
1.46608e-07
1.46608e-07
1.46608e-07
1.46608e-07
1.46608e-07
1.46608e-07
1.46608e-07
1.46608e-07
1.46608e-07
1.46608e-07
1.46608e-07
1.46608e-07
1.46608e-07
1.46608e-07
1.46608e-07
1.46608e-07
1.46608e-07
1.46608e-07
1.46608e-07
1.46608e-07
1.46608e-07
1.46608e-07
1.46608e-07
1.46608e-07
1.46608e-07
1.46608e-07
1.46608e-07
1.46608e-07
1.46608e-07
1.46608e-07
1.46608e-07
1.46608e-07
1.46608e-07
1.46608e-07
1.46608e-07
1.46608e-07
1.46608e-07
1.46608e-07
1.46608e-07
1.46608e-07
1.46608e-07
1.46608e-07
1.46608e-07
1.46608e-07
1.46608e-07
1.46608e-07
1.46608e-07
1.46608e-07
1.46608e-07
1.46608e-07
1.46608e-07
1.46608e-07
1.46608e-07
1.46608e-07
1.46608e-07
1.46608e-07
1.46608e-07
1.46608e-07
1.46608e-07
1.46608e-07
1.46608e-07
1.46608e-07
1.46608e-07
1.46608e-07
1.46608e-07
1.46608e-07
1.46608e-07
1.46608e-07
1.46608e-07
1.46608e-07
1.46608e-07
1.46608e-07
1.46608e-07
1.46608e-07
1.46608e-07
1.46608e-07
1.46608e-07
1.46608e-07
1.46608e-07
1.46608e-07
1.46608e-07

VECTORS velocity float
-0.00157475 -0.000741864 0.00210947
0.00208205 -0.00396854 -0.0123398
0.0341606 -0.0168397 0.00276875
0.000441175 0.0246145 -0.00232714
0.110438 0.0449357 0.299061
-0.000170123 -0.00073369 -0.000446025
-0.000968835 -0.000252136 -5.1323e-05
-0.00603316 -0.000758405 0.00699452
-0.000811792 0.00341749 -0.00366542
0.00101883 -0.0228794 0.000129217
-9.3505e-05 0.000480162 -0.000199011
-0.0207754 -0.0212692 0.0726299
8.3573e-05 -0.013293 -0.0217175
6.17277e-15 9.58562e-14 -2.04942e-13
-9.69394e-06 -0.000459211 -0.00276864
1.89361e-14 -7.96476e-14 1.65666e-13
0.00154119 -0.00958245 -0.0124607
1.59703e-14 2.54601e-15 -2.60427e-13
0.0197951 0.00819567 -0.00725327
-0.000790555 0.00925288 -0.0168059
0.000406353 0.00035302 -0.00138613
0.00457361 0.00315291 0.00551474
0.00198649 0.019655 -0.0115511
0.00845859 -0.0263704 -0.0124254
0.00150724 -0.00572609 0.0213858
-3.79455e-05 0.00225028 -0.00112473
-0.00442812 0.0207334 -0.00785242
-0.00132316 8.31309e-05 0.00162257
-3.21491e-16 -7.03746e-16 -1.57484e-14
-1.1658e-08 0.0282857 -0.00721823
-0.0001562 0.00092763 -0.00293306
0.00160556 -0.00317839 -0.00245742
-1.2261e-15 7.02314e-14 -2.01499e-13
-0.000835079 0.00604035 0.0070939
2.28966e-14 -1.02716e-14 2.09541e-13
-2.82969e-15 -1.27989e-14 -9.18336e-14
0.00559905 0.0366918 -0.0207592
-0.0010777 -0.00180724 0.0025911
0.0673625 -0.208319 0.228959
-0.0419784 -0.039761 -0.00505542
0.00276497 0.0263749 -0.013333
9.38217e-16 1.42971e-16 -1.5292e-14
0.00243418 0.000380769 0.00742274
-0.0532181 -0.0503723 0.17578
0.228866 -0.00243276 0.157834
0.00151668 -0.00203692 -0.00951752
5.31193e-05 0.000542401 -0.000984776
-0.0145993 0.0269268 0.0423439
-0.0005752 0.00318573 -0.00276159
0.204525 0.0362092 0.0867575
-0.023201 0.0154587 0.0160822
0.000671586 -0.0133275 0.00829806
-0.00113984 -0.00391344 -0.0219288
7.23306e-06 0.00163884 -3.85281e-05
0.000376358 0.00110731 -0.0032082
1.53115e-10 0.0240502 -0.00143346
-7.19027e-05 -0.0208191 0.0140128
-1.32619e-05 0.000869822 -0.00191706
-0.0338601 -0.292912 0.138314
0.313097 0.127431 0.134232
0.00624507 -0.00564819 -0.00817811
-2.26976e-06 0.0252894 -0.0083503
-0.00298742 0.0148236 0.0395945
3.68188e-10 0.023344 -0.00592499
0.00181477 0.0118449 -0.00461392
-0.00301647 -0.0554465 -0.0225871
0.00458745 0.00799548 -0.018732
0.00128401 0.0147183 -0.0138256
0.00142464 -0.000613079 0.000161712
-8.65992e-15 -9.77729e-15 1.68244e-13
0.00150892 -0.00246715 0.00390922
-2.67243e-05 -3.89759e-05 0.00100734
0.0119974 0.0162741 -0.0175083
-0.00113848 -0.000255641 0.00362644
3.54674e-15 -6.02278e-15 5.30442e-14
-0.0445479 -0.24056 0.0940448
0.0021603 -0.00117557 0.01143
0.00244124 0.0126772 0.00987376
0.000286462 -0.000341548 0.000696724
0.00625483 0.00569852 -0.0197356
-2.71462e-14 -1.09876e-14 2.23772e-13
-0.0055656 0.0106345 -0.0410304
0.179323 0.126774 0.284556
0.000160389 0.0110091 0.0227732
-0.00785897 -0.00738517 -0.00434581
0.00187787 0.00118245 0.000278983
0.00104885 -0.0224318 0.00518817
-0.000478065 0.00996228 0.00572884
0.0359066 -0.0463114 0.00452841
-0.00137558 0.0230513 -0.024028
0.0061732 0.00402135 -0.00411837
-3.32056e-15 3.2027e-14 -8.30508e-14
-2.89348e-05 -0.000726788 -0.000527107
0.00318145 -0.00139725 -0.00109388
-0.00011404 0.00113831 -0.000960486
0.000228302 0.00158318 -0.000121412
-3.49524e-09 0.0217864 0.0105228
-0.000871977 -2.38328e-05 0.000384439
9.7967e-05 0.00182026 -0.000406377
0.000668906 -0.0130845 0.0153211
-0.00221196 -0.00107512 0.00232724
-0.0166843 0.0335015 0.00252198
-5.50706e-05 0.000242853 4.66125e-07
0.00318488 0.00351989 -0.00653202
3.33729e-06 0.0165518 0.0178325
0.000658661 -0.00416488 -0.021732
-1.74832e-06 0.0195072 0.0183269
0.00657488 -0.0150997 0.00359117
0.00119881 -0.000701432 -0.0005211
-0.000115436 0.00133469 -0.00302969
-0.00132737 -0.00137718 0.000680017
-0.00131371 -9.58369e-06 0.00711347
-7.86316e-05 9.31521e-05 -0.0002493
1.02079e-08 0.0227684 0.0078975
0.00680727 0.0110755 -0.0192033
0.0212157 -0.125147 0.434672
0.00207864 0.00301159 -0.0124514
0.176223 -0.0490226 -0.0050604
0.0130185 0.0022442 0.00914621
0.130932 -0.349969 0.495668
-5.9214e-15 2.82774e-14 -1.39828e-13
0.27446 -0.0822674 0.241004
0.0762057 -0.402982 0.175453
0.000402547 0.00121622 -0.002251
0.250995 -0.0660984 0.0019878
-0.106959 0.00129763 -0.00727557
0.132788 -0.027886 0.217098
-0.00040072 0.00255265 -0.000355879
0.00146458 0.00105936 -0.00374069
-0.0221313 -0.0195992 -0.00794181
0.00766378 -0.0025922 -0.00905358
0.000926315 -0.00829891 0.0273946
0.000368997 0.018089 0.00252297
0.00450724 0.00367703 0.00701917
7.39448e-05 -0.0263083 0.00847851
0.000218451 -0.00422615 0.000710425
0.00291895 -0.00115619 -0.00762152
-0.189303 0.26594 0.422534
-0.000272565 -0.022202 0.00124279
0.000329025 -0.00195784 0.0266654
0.00347871 0.000443898 0.00562854
0.0193559 -0.0682663 0.0486548
-0.00244528 -0.0031392 -0.000670657
1.30978e-09 0.0250273 -0.0146508
0.00330164 0.0143133 -0.00356719
-0.0124324 0.00116206 0.00587866
0.000486105 -0.000178668 0.000279936
-0.00113906 0.00103836 -0.000592801
0.0229167 0.0139979 -0.0221229
0.00253889 0.00196726 -0.0032779
0.00136189 0.00176446 -0.00192622
0.000232204 -0.0247973 -0.00643652
0.0223552 -0.139607 0.118828
-5.56954e-05 0.0012414 -0.0033258
0.0170756 0.022764 -0.0280205
0.0178789 -0.353653 0.306918
-5.80028e-16 2.62551e-15 9.45422e-15
-0.00119087 0.00576612 0.0170834
0.00126017 -0.00453649 -0.0166135
-0.00148468 0.00450008 -0.00981206
-0.0015414 0.0168479 -0.0203402
-0.00137258 -0.00248418 -0.00134383
0.00233002 0.00268945 -0.00909407
-6.86028e-05 -0.0010997 -1.16037e-05
0.000423543 0.00122929 -0.00206611
0.000113505 0.000552816 -3.30186e-06
-0.000482148 0.00423018 -0.0262294
5.42443e-05 0.0233893 0.0096136
0.0103996 0.00160911 -0.00711901
-3.46437e-15 1.07225e-14 2.6295e-14
1.43023e-14 2.28355e-15 -2.33189e-13
0.00126163 0.000145158 0.000559079
0.319869 -0.0951761 0.190276
-0.00209076 -0.0641494 -0.0188383
0.00300676 -0.0133018 -0.0137079
-0.261852 -0.163188 0.460583
-0.00153745 0.0184281 -0.0193703
0.0778995 -0.310035 -0.117294
-0.0258207 -0.047926 -0.107529
0.115469 0.0295049 0.223192
0.000638244 0.0203019 0.0139233
0.0233233 0.0304673 -0.0232246
2.15078e-15 -4.63183e-15 -4.80762e-14
0.00109194 -0.00833717 0.0169275
-9.07317e-15 4.95134e-14 -1.02855e-13
0.000345067 -0.00271581 0.00248674
0.000644076 0.000875879 -0.0236652
0.0482913 -0.112536 0.0772389
0.00037089 0.0219573 0.0128495
-0.0629865 -0.00939953 0.129931
0.00057996 0.0162382 -0.0196086
-0.000170732 -0.00828638 -0.0173716
0.00486812 0.00443657 -0.00316588
-0.0377284 0.0508758 -0.0277831
-0.0120212 0.0278134 -0.0240866
-0.00254826 -0.0555873 -0.0285782
0.00122208 -0.0166208 0.00942533
2.28438e-14 -2.17349e-16 2.67978e-13
0.00295021 0.0109167 -0.00191799
-0.0146683 0.0866695 0.0263142
-0.0197067 -0.0291201 0.23016
0.000817524 0.00402163 0.00501551
0.00513601 -0.013698 0.00123578
0.00110428 0.00748273 -0.0201272
0.000822132 0.00844007 -0.0207186
0.147599 0.125685 0.503983
-0.0411326 -0.163455 0.438954
0.00148269 -0.0176036 -0.0114919
0.000218581 -0.0242805 -0.00786979
0.00250722 -0.00486438 -0.0181471
0.000693216 -0.0239823 -0.00246346
-0.0690974 0.142033 0.312347

VECTORS force float
-1.62366e-07 6.58008e-06 7.50181e-06
1.29749e-08 3.41835e-08 1.39282e-07
0.0 0.0 -1.43822e-06
-3.85474e-09 1.05183e-08 -1.4786e-08
0.0 0.0 -1.43822e-06
3.86715e-06 1.47886e-05 -1.16062e-05
1.91624e-08 -1.79018e-07 -1.27865e-07
-1.4301e-05 1.41079e-06 1.84113e-05
-2.73973e-06 -1.15866e-06 2.8131e-06
6.39822e-10 -1.74893e-08 2.36053e-08
9.93894e-07 -7.56468e-07 -5.01035e-07
0.0 0.0 -1.43822e-06
-1.31509e-09 -1.59664e-08 4.35426e-10
-2.16311e-19 4.23516e-22 -5.29396e-21
-8.27098e-07 5.44354e-07 -1.46061e-06
-5.29396e-23 0.0 2.11758e-22
-2.27223e-09 1.1817e-08 2.64633e-08
0.0 1.30794e-20 2.11758e-22
0.0 0.0 -1.43822e-06
-1.73918e-06 7.46189e-07 -9.95652e-07
4.61579e-07 7.27253e-07 1.43629e-06
1.58867e-07 -8.60732e-08 -4.033e-07
-4.42628e-07 6.8201e-07 -3.47163e-07
-0.000152853 8.67287e-05 7.22936e-05
-2.27594e-08 -9.82293e-09 7.6499e-08
1.7837e-06 8.23112e-08 2.07698e-06
4.82003e-07 1.11426e-06 -3.39773e-07
-2.09016e-06 1.33386e-05 -3.36144e-05
4.45586e-20 -1.13423e-20 -2.11758e-22
-2.76369e-14 -5.43255e-09 -2.27945e-08
-9.32717e-07 -7.68969e-07 2.42535e-06
-3.25735e-06 2.60185e-06 -5.72474e-06
-4.38434e-18 -1.02967e-19 -6.77626e-21
2.79826e-08 1.34047e-07 1.32072e-07
-2.74227e-20 -5.39719e-20 2.11758e-22
1.52287e-19 -4.81485e-20 2.11758e-21
0.0 0.0 -1.43822e-06
2.14039e-06 5.32303e-06 -2.39372e-05
0.0 0.0 -1.43822e-06
0.0 0.0 -1.43822e-06
-5.53782e-07 3.82206e-07 -2.77628e-07
-4.23516e-22 1.79382e-20 4.23516e-22
-9.04758e-09 4.2752e-08 1.33999e-08
0.0 0.0 -1.43822e-06
0.0 0.0 -1.43822e-06
-1.50063e-07 9.89955e-08 -1.83773e-07
5.74676e-07 1.11313e-06 -1.22256e-06
0.0 0.0 -1.43822e-06
-1.61348e-06 -8.82703e-08 7.81055e-07
0.0 0.0 -1.43822e-06
0.0 0.0 -1.43822e-06
-7.30454e-10 1.27144e-08 -9.14769e-09
-3.02608e-08 2.41938e-08 -4.66338e-08
-3.16113e-07 1.12026e-06 -1.17952e-06
-8.01576e-08 3.58669e-09 1.02741e-07
6.56521e-16 -1.1782e-09 -1.8799e-08
-9.84387e-09 -7.19104e-09 3.12112e-08
-9.31738e-09 1.00961e-07 -5.37956e-07
0.0 0.0 -1.43822e-06
0.0 0.0 -1.43822e-06
2.88184e-07 -1.40852e-07 2.3785e-07
-7.42892e-13 -7.45634e-09 -2.25836e-08
0.0 0.0 -1.43822e-06
1.14285e-15 -4.66698e-09 -1.82401e-08
-2.00093e-06 -3.60059e-08 3.58817e-07
0.0 0.0 -1.43822e-06
-3.77956e-06 1.72974e-05 1.65388e-05
7.69561e-08 1.14913e-08 -1.37015e-07
2.68694e-07 -2.00423e-07 -1.13462e-06
3.32328e-20 2.03023e-20 2.96462e-21
-1.22552e-06 1.20131e-06 -1.5738e-06
8.20011e-10 -1.03439e-08 -4.65408e-09
0.0 0.0 -1.43822e-06
6.1444e-06 6.58489e-06 -5.09629e-05
-4.21796e-20 -2.40346e-20 -2.11758e-22
0.0 0.0 -1.43822e-06
-6.06775e-09 1.47981e-09 -1.29221e-08
-1.79396e-08 4.46581e-08 3.57706e-08
-4.88035e-09 1.16163e-06 -5.77839e-07
3.05854e-06 4.15805e-06 -1.56782e-05
1.4876e-20 -1.63583e-20 1.27055e-21
0.0 0.0 -1.43822e-06
0.0 0.0 -1.43822e-06
2.41144e-10 8.41265e-09 -1.62475e-08
1.30281e-07 -2.28303e-08 3.41125e-08
4.99872e-06 1.03431e-05 1.19411e-05
-7.79963e-09 -1.72484e-08 1.24496e-08
-7.76216e-09 5.9451e-08 3.99918e-08
0.0 0.0 -1.43822e-06
-6.63384e-08 1.18775e-07 -2.85125e-07
6.35326e-06 -6.3418e-06 7.72313e-06
0.0 0.0 0.0
1.15608e-07 -5.64443e-08 -4.95688e-08
-5.55386e-08 -1.82378e-07 -1.27068e-07
1.7712e-07 6.0607e-07 -1.68683e-06
3.26913e-06 1.29584e-09 -1.63556e-06
-5.12925e-14 9.41965e-09 -1.95031e-08
-2.92494e-06 2.54207e-07 5.75313e-06
4.12918e-06 -8.17046e-07 1.02214e-06
1.52669e-08 8.19338e-08 -3.76084e-08
-1.32708e-05 1.12337e-05 -9.27682e-07
0.0023675 -0.00183813 0.00359406
-4.49025e-07 3.02374e-07 -2.81256e-07
-3.19375e-06 4.45096e-06 -3.89134e-06
1.57896e-08 -6.50872e-08 -2.15168e-08
2.81057e-09 -9.68702e-09 2.29066e-08
1.29553e-11 1.63447e-08 -1.74246e-08
1.17681e-05 -0.000116505 4.98692e-05
1.55755e-08 -2.24865e-08 2.12603e-08
1.03421e-06 1.01813e-06 1.16095e-06
-8.66491e-07 -3.8588e-06 1.51033e-05
8.92363e-06 3.17797e-05 -6.15169e-05
1.3708e-08 -1.58162e-08 4.27284e-08
-3.95163e-11 3.93985e-09 -1.86306e-08
2.41221e-06 1.05391e-05 -1.5794e-05
0.0 0.0 -1.43822e-06
3.85477e-08 -4.91183e-08 -1.83296e-07
0.0 0.0 -1.43822e-06
0.0 0.0 -1.43822e-06
0.0 0.0 -1.43822e-06
-1.35658e-21 -2.11758e-22 -2.11758e-22
0.0 0.0 -1.43822e-06
0.0 0.0 -1.43822e-06
1.98427e-07 1.11402e-06 1.19011e-06
-0.0367513 -0.0826265 0.12333
5.33241e-07 5.37295e-07 -2.08891e-07
0.0 0.0 -1.43822e-06
-8.75495e-07 2.31652e-07 -1.24496e-06
1.60088e-07 -8.20158e-08 -7.30625e-08
2.63113e-07 4.44538e-08 -6.02075e-07
-2.58834e-06 9.64093e-06 3.06501e-05
-4.55154e-09 -5.0369e-08 -2.22801e-07
-4.11668e-10 1.37426e-07 -3.30473e-08
-2.42523e-07 1.27713e-06 -1.25703e-06
-5.89654e-10 -8.2247e-10 1.69049e-08
1.60384e-07 7.31199e-08 -4.43648e-07
1.74224e-06 -1.76938e-06 -1.2245e-06
0.0 0.0 -1.43822e-06
7.29336e-09 -2.1648e-07 1.95949e-07
-3.59624e-07 1.44895e-07 1.55755e-06
1.67126e-07 -9.6431e-08 -7.01773e-07
0.0 0.0 -1.43822e-06
-2.35647e-08 -2.08484e-08 -1.7951e-08
-2.64945e-12 -1.17825e-08 -2.0019e-08
0.0 0.0 -1.43822e-06
1.9659e-06 -2.37484e-06 -3.01285e-06
5.91421e-06 -1.29894e-05 1.26378e-05
-1.10362e-06 1.84848e-06 1.70468e-06
0.0 0.0 -1.43822e-06
3.19405e-08 -1.58247e-08 -5.06505e-10
2.30501e-06 -3.55133e-06 6.10128e-06
-1.8651e-09 -8.25449e-09 1.4247e-08
0.0 0.0 -1.43822e-06
1.89755e-08 -9.72414e-08 1.29367e-07
0.0 0.0 -1.43822e-06
0.0 0.0 -1.43822e-06
-1.06856e-18 5.21825e-19 -2.85662e-19
-6.13178e-06 0.000138426 -4.16349e-05
-4.31134e-09 -5.00427e-08 -1.0198e-07
4.10332e-06 2.10581e-07 -8.39664e-07
1.43009e-07 -3.50746e-07 2.34039e-07
-5.40959e-09 -3.06648e-07 -3.17589e-07
-8.71564e-07 1.63597e-06 -4.14176e-06
-4.30227e-07 1.10684e-05 -2.21427e-06
-4.22101e-08 -3.01386e-08 3.31494e-08
3.62754e-07 1.17399e-07 -1.31737e-06
9.64431e-09 -4.93836e-08 -9.03646e-09
-9.86204e-10 1.76991e-08 -4.78864e-09
5.44937e-06 2.67072e-05 -2.82513e-05
-1.07221e-18 -1.67395e-19 -5.95041e-20
-4.49986e-22 -2.45673e-21 0.0
5.25729e-06 -1.18444e-07 -1.72259e-05
0.0 0.0 -1.43822e-06
0.0 0.0 -1.43822e-06
-1.2147e-08 6.12016e-08 -1.90295e-09
0.0 0.0 -1.43822e-06
4.16237e-08 -2.92872e-08 1.34411e-08
0.0 0.0 -1.43822e-06
0.0 0.0 -1.43822e-06
0.0 0.0 -1.43822e-06
-2.48023e-09 1.20085e-08 -1.36281e-08
-4.26561e-07 3.6303e-07 -4.4852e-07
-3.24255e-21 1.16467e-21 -2.11758e-22
-1.11712e-08 2.57009e-08 -5.29978e-08
4.01282e-20 8.68209e-21 2.11758e-22
3.43724e-09 1.56836e-07 -1.53843e-07
1.08444e-09 -1.41967e-08 4.30601e-09
0.0 0.0 -1.43822e-06
-1.44126e-09 1.17259e-08 -8.74812e-09
0.0 0.0 -1.43822e-06
-1.25762e-07 4.3368e-06 -4.11228e-06
2.30392e-07 -6.01477e-08 -4.36371e-08
5.23111e-06 -1.21705e-06 5.01952e-06
0.0 0.0 -1.43822e-06
2.17979e-07 2.26135e-07 -4.89881e-07
0.0 0.0 -1.43822e-06
-1.02214e-08 4.65175e-08 1.20355e-08
1.32349e-22 -3.25996e-20 2.11758e-22
-4.28195e-07 -1.66629e-06 4.08372e-07
0.0 0.0 -1.43822e-06
0.0 0.0 -1.43822e-06
-2.04463e-08 -1.40915e-08 7.14036e-09
-4.65449e-08 -1.2118e-07 -1.32719e-08
-9.47991e-09 -6.72343e-08 -3.69762e-08
7.89681e-07 2.15542e-06 -8.39697e-06
0.0 0.0 -1.43822e-06
0.0 0.0 -1.43822e-06
2.72178e-06 4.02991e-05 9.10951e-06
1.49909e-09 -2.04893e-08 9.96892e-09
1.48503e-08 2.29911e-08 7.47325e-08
-1.28576e-08 -5.42268e-08 1.13235e-08
0.0 0.0 -1.43822e-06
