# vtk DataFile Version 3.0
LIGGGHTS particles timestep 3000000
ASCII
DATASET POLYDATA
POINTS 284 float
0.0219519 0.0241236 0.0143263
0.0237811 0.015295 0.0150517
0.0232961 0.0231834 0.0155806
0.0192251 0.0163934 0.00807813
0.0231377 0.0223729 0.0144062
0.0179518 0.0148904 0.0105762
0.0147358 0.0195979 0.0167497
0.0186858 0.0146133 0.0119523
0.0208985 0.0239904 0.0146594
0.0155191 0.0236507 0.0147964
0.0193516 0.0187012 0.00715686
0.0195448 0.0245252 0.0135729
0.0171331 0.0240837 0.0144351
0.0198094 0.00968126 0.0271607
0.0222084 0.0220309 0.0159035
0.017683 0.0146279 0.0120343
0.0529704 0.0229354 0.00731655
0.0228899 0.0164669 0.0151146
0.0199041 0.0239358 0.014412
0.0234494 0.0149185 0.012764
0.0186062 0.0170635 0.0154818
0.0155309 0.0223379 0.0146738
0.0197078 0.0241012 0.0123237
0.018824 0.0237821 0.0175487
0.0228197 0.0226415 0.0166813
0.0236235 0.0147466 0.0118182
0.0166942 0.0224971 0.0174598
0.0178136 0.0219084 0.015938
0.025514 0.0208805 0.0164278
0.0220703 0.0213505 0.0177957
0.0264684 0.0231594 0.0101694
0.017669 0.0240757 0.0128923
0.0242585 0.0154367 0.00916412
0.0216591 0.0234418 0.0125695
0.0234143 0.0231068 0.0147031
0.0218226 0.0212158 0.0154554
0.0239448 0.0172998 0.0173428
0.0239257 0.0148596 0.0105626
0.0228501 0.0230281 0.0134428
0.0161426 0.0231286 0.0169079
0.0162598 0.0237481 0.0140394
0.0209299 0.0225748 0.00908962
0.0241792 0.0226048 0.0160513
0.0162758 0.019461 0.0161536
0.0184391 0.0149735 0.0132695
0.0966017 0.0221593 0.00668674
0.0204453 0.0152238 0.0150982
0.0168487 0.0166244 0.0152227
0.0263034 0.0229059 0.00948535
0.0226739 0.0173609 0.0156102
0.017931 0.020431 0.0169814
0.0232122 0.0194953 0.0160839
0.0231881 0.022225 0.0158437
0.0172799 0.0154383 0.0140921
0.0158296 0.0144948 0.0141556
0.0202246 0.0146811 0.0173231
0.0229688 0.015741 0.0168364
0.0257041 0.017788 0.0166188
0.0238033 0.0209923 0.0156145
0.0254018 0.0197566 0.00723861
0.0225582 0.022876 0.0150207
0.0144303 0.0232114 0.0104389
0.0203586 0.0229828 0.00973717
0.0223857 0.0210222 0.0164223
0.0192491 0.0225749 0.0164097
0.0172957 0.023885 0.0163217
0.0189234 0.024123 0.014316
0.0184339 0.0238933 0.0132931
0.0244716 0.0222615 0.0155046
0.0167832 0.0237234 0.0131828
0.0272878 0.0225996 0.0138002
0.0208876 0.0237975 0.0130847
0.0200741 0.0223858 0.00880223
0.0224722 0.0183202 0.0158863
0.0377354 0.0277253 0.055163
0.0196827 0.0218215 0.0169604
0.0175504 0.0271685 0.0239594
0.0190915 0.0138842 0.0131627
0.0189629 0.0178256 0.00738622
0.018421 0.0159434 0.00848127
0.0210402 0.0232437 0.0124619
0.0220302 0.0202765 0.0158566
0.0190733 0.0233863 0.0156724
0.0191302 0.0190756 0.0172567
0.0196678 0.0208874 0.00763264
0.0201167 0.0230277 0.0162089
0.0188961 0.0171219 0.00765165
0.0222394 0.019312 0.0160167
0.0235923 0.0217754 0.0150477
0.0190298 0.0149301 0.0148165
0.0166072 0.0152658 0.015724
0.0228051 0.0213208 0.0154359
0.0252475 0.0168431 0.0162471
0.0234122 0.0202515 0.0167883
0.0242577 0.0190964 0.0165293
0.017209 0.016228 0.0160671
0.0173905 0.0181459 0.0158486
0.0210552 0.0180792 0.015783
0.0183925 0.0222866 0.0168356
0.0227348 0.0236164 0.0143436
0.105358 0.0186487 0.00585656
0.0176948 0.0139954 0.0135468
0.0258732 0.0217439 0.00823211
0.0175174 0.0181563 0.0168407
0.019596 0.0200054 0.0166741
0.0175303 0.0236288 0.0152314
0.018442 0.0193909 0.00614784
0.0170464 0.0240946 0.018057
0.0212252 0.0230677 0.0133532
0.0249031 0.017495 0.00753495
0.0238894 0.0163899 0.0150594
0.0140436 0.0225357 0.0154572
0.027562 0.0217394 0.0148177
0.0179091 0.0235808 0.0140973
0.0215169 0.0220543 0.0147397
0.0230136 0.0204523 0.0158919
0.0244232 0.015946 0.00848665
0.0185385 0.0141979 0.0142373
0.0175478 0.0210651 0.015473
0.0174305 0.0195744 0.0170684
0.0182653 0.0188216 0.0168209
0.0213341 0.0225948 0.0140415
0.0189117 0.0241577 0.0126655
0.0153207 0.023051 0.0140123
0.0202927 0.0242028 0.0129195
0.024001 0.0200906 0.0159824
0.0259007 0.0200896 0.0169493
0.021512 0.02406 0.013472
0.0181018 0.0244551 0.0138489
0.0268051 0.0233772 0.0119816
0.0220534 0.0233907 0.0137099
0.0219553 0.0218243 0.0168512
0.0258711 0.0191109 0.0167435
0.0197368 0.0209663 0.0164069
0.0246882 0.0149733 0.0101598
0.0200187 0.0140316 0.014115
0.0168985 0.023145 0.0146074
0.018279 0.0230724 0.0148742
0.0188579 0.020401 0.0174535
0.0203951 0.0213286 0.00783645
0.0205794 0.0243668 0.0138154
0.0193558 0.0180978 0.0166605
0.0210429 0.0141321 0.0133667
0.0198091 0.0207058 0.0173705
0.017173 0.0190109 0.0163003
0.0169545 0.0230802 0.0158338
0.018561 0.0232634 0.0167348
0.0199769 0.0145919 0.0157693
0.0183603 0.0158501 0.0156087
0.0160008 0.0160986 0.0158842
0.0179213 0.0214097 0.0167971
0.0146254 0.0218889 0.0159503
0.0193908 0.0161722 0.0158784
0.0168964 0.0213629 0.0166397
0.0247412 0.0199749 0.0166764
0.0205899 0.0198903 0.0167045
0.0188399 0.0216847 0.0161675
0.0182389 0.0151811 0.014227
0.0129232 0.0209169 0.0164053
0.0200953 0.0140271 0.013059
0.0222183 0.0182107 0.0174834
0.0159729 0.0231482 0.0132307
0.0250622 0.0110441 0.0296002
0.0138982 0.0207101 0.0164901
0.0166395 0.0142043 0.0136371
0.0196647 0.0240646 0.0161085
0.0132901 0.0152192 0.0223107
0.018752 0.0207296 0.0164797
0.0176065 0.0171967 0.0155389
0.0212366 0.0218026 0.0160156
0.0220482 0.0233867 0.0165263
0.015916 0.0151166 0.0150169
0.0226886 0.0165359 0.0185638
0.0192481 0.0232394 0.014699
0.0150109 0.0148528 0.014676
0.0157958 0.0222334 0.0178231
0.0174253 0.022298 0.014535
0.0180746 0.0192637 0.0159421
0.016414 0.0214472 0.015241
0.017503 0.0157587 0.0150128
0.0161624 0.0187422 0.0168494
0.018823 0.0213886 0.0172309
0.0182102 0.0213478 0.0180201
0.022406 0.0219724 0.0147965
0.0179973 0.0198119 0.0178413
0.0156646 0.0195665 0.017119
0.0159985 0.0228247 0.0159616
0.0174718 0.0148583 0.0129874
0.0173908 0.0222568 0.0167829
0.0156395 0.0219697 0.0155961
0.0155425 0.0233139 0.0176858
0.0210561 0.0215018 0.0171535
0.0236958 0.0182404 0.0161103
0.0195256 0.023469 0.0168993
0.0214277 0.0233482 0.0143757
0.0207304 0.0208584 0.016461
0.0148446 0.021022 0.0163979
0.0224639 0.0199185 0.0167791
0.0146817 0.0230943 0.0149275
0.0179603 0.0424902 0.0677618
0.0239687 0.0165745 0.016177
0.0157755 0.0169936 0.0163928
0.0179192 0.0228944 0.016055
0.0205319 0.0222059 0.0165989
0.022852 0.0167464 0.0163794
0.0236759 0.0219197 0.0171628
0.018221 0.0238398 0.0159445
0.0151373 0.0155757 0.0154671
0.023312 0.0213976 0.0163913
0.0247801 0.0167923 0.00780441
0.0247037 0.0162037 0.0156094
0.0188573 0.0159548 0.0146861
0.0177901 0.0145916 0.0151224
0.0168782 0.0144314 0.0170971
0.0169145 0.0204253 0.016983
0.0197625 0.0244757 0.0170147
0.0151147 0.0172589 0.0188521
0.0158241 0.0212684 0.016284
0.0135782 0.0218117 0.0159662
0.0203798 0.0231479 0.0148024
0.0197048 0.022661 0.0153747
0.0241606 0.0208937 0.0165567
0.0248248 0.021569 0.0161392
0.0166163 0.0177593 0.0166384
0.0221461 0.0148704 0.0147395
0.021942 0.023605 0.0151807
0.018237 0.0141608 0.0127231
0.0213472 0.0158266 0.0156557
0.016218 0.0164448 0.0182699
0.0160082 0.0203289 0.0165704
0.0194418 0.0238965 0.0131378
0.0203432 0.0164385 0.0160502
0.0198009 0.0230552 0.0187992
0.0164207 0.0185016 0.0159141
0.0160532 0.0211139 0.0172449
0.0187347 0.0224503 0.0155214
0.0256886 0.0238567 0.0238309
0.0186124 0.0197562 0.0166977
0.0174808 0.0200662 0.0158824
0.018417 0.0202792 0.0186032
0.0180665 0.0228754 0.0175774
0.0168807 0.0148467 0.0147924
0.0205715 0.0240324 0.0165552
0.0237093 0.0173655 0.0156112
0.0211035 0.0231653 0.0161271
0.0218819 0.0143804 0.0139089
0.023128 0.0156711 0.0143946
0.0188355 0.0242173 0.0166484
0.0261405 0.0224889 0.00893507
0.0228693 0.0187555 0.0166942
0.0192544 0.0147689 0.0138303
0.0164168 0.0224394 0.015124
0.0161257 0.0221371 0.0166761
0.0250326 0.0185461 0.0168518
0.0199945 0.0190859 0.0167521
0.0213711 0.0226328 0.0169398
0.0172773 0.0232102 0.0170612
0.0208511 0.0236841 0.0119291
0.020632 0.0233844 0.0115974
0.0151828 0.0216046 0.0171393
0.0166382 0.0239785 0.017086
0.0142366 0.0152791 0.0151497
0.0220749 0.0185342 0.0195817
0.019246 0.0193967 0.00718389
0.0165567 0.0178958 0.0184742
0.0204654 0.0237423 0.0156039
0.0214156 0.0193318 0.0167836
0.0183759 0.0183117 0.0158815
0.0222581 0.0226143 0.0141352
0.0168316 0.0220979 0.0159667
0.016233 0.0226744 0.0140569
0.0166392 0.0205732 0.015677
0.0192323 0.0227992 0.0176437
0.0215343 0.020323 0.0167253
0.0191668 0.0154699 0.0176229
0.0209307 0.0145652 0.014261
0.0206834 0.0225009 0.0155036
0.0173451 0.0211224 0.0175633
0.0163042 0.0191225 0.017763
0.0156103 0.0187323 0.0188217
0.0153076 0.0225919 0.0170274
0.019809 0.021863 0.0159681
0.0216558 0.0227192 0.0154229
0.0166396 0.0175104 0.0156702

VERTICES 284 568
1 0
1 1
1 2
1 3
1 4
1 5
1 6
1 7
1 8
1 9
1 10
1 11
1 12
1 13
1 14
1 15
1 16
1 17
1 18
1 19
1 20
1 21
1 22
1 23
1 24
1 25
1 26
1 27
1 28
1 29
1 30
1 31
1 32
1 33
1 34
1 35
1 36
1 37
1 38
1 39
1 40
1 41
1 42
1 43
1 44
1 45
1 46
1 47
1 48
1 49
1 50
1 51
1 52
1 53
1 54
1 55
1 56
1 57
1 58
1 59
1 60
1 61
1 62
1 63
1 64
1 65
1 66
1 67
1 68
1 69
1 70
1 71
1 72
1 73
1 74
1 75
1 76
1 77
1 78
1 79
1 80
1 81
1 82
1 83
1 84
1 85
1 86
1 87
1 88
1 89
1 90
1 91
1 92
1 93
1 94
1 95
1 96
1 97
1 98
1 99
1 100
1 101
1 102
1 103
1 104
1 105
1 106
1 107
1 108
1 109
1 110
1 111
1 112
1 113
1 114
1 115
1 116
1 117
1 118
1 119
1 120
1 121
1 122
1 123
1 124
1 125
1 126
1 127
1 128
1 129
1 130
1 131
1 132
1 133
1 134
1 135
1 136
1 137
1 138
1 139
1 140
1 141
1 142
1 143
1 144
1 145
1 146
1 147
1 148
1 149
1 150
1 151
1 152
1 153
1 154
1 155
1 156
1 157
1 158
1 159
1 160
1 161
1 162
1 163
1 164
1 165
1 166
1 167
1 168
1 169
1 170
1 171
1 172
1 173
1 174
1 175
1 176
1 177
1 178
1 179
1 180
1 181
1 182
1 183
1 184
1 185
1 186
1 187
1 188
1 189
1 190
1 191
1 192
1 193
1 194
1 195
1 196
1 197
1 198
1 199
1 200
1 201
1 202
1 203
1 204
1 205
1 206
1 207
1 208
1 209
1 210
1 211
1 212
1 213
1 214
1 215
1 216
1 217
1 218
1 219
1 220
1 221
1 222
1 223
1 224
1 225
1 226
1 227
1 228
1 229
1 230
1 231
1 232
1 233
1 234
1 235
1 236
1 237
1 238
1 239
1 240
1 241
1 242
1 243
1 244
1 245
1 246
1 247
1 248
1 249
1 250
1 251
1 252
1 253
1 254
1 255
1 256
1 257
1 258
1 259
1 260
1 261
1 262
1 263
1 264
1 265
1 266
1 267
1 268
1 269
1 270
1 271
1 272
1 273
1 274
1 275
1 276
1 277
1 278
1 279
1 280
1 281
1 282
1 283

POINT_DATA 284
SCALARS id int 1
LOOKUP_TABLE default
1
2
3
4
5
6
7
8
9
10
11
12
13
14
15
16
17
18
19
20
22
23
24
25
26
27
28
29
31
32
33
34
35
36
37
38
39
40
41
42
43
44
45
46
48
49
50
51
53
54
56
57
58
59
60
61
62
63
64
65
66
67
68
69
71
72
73
74
75
76
77
78
79
80
81
82
83
84
85
86
87
88
89
90
91
92
94
95
96
97
98
99
100
101
102
103
104
105
106
107
108
109
110
111
112
114
115
116
117
118
119
120
121
122
123
124
125
126
127
128
129
131
132
133
134
135
136
137
138
139
140
141
142
143
144
145
146
147
148
149
150
151
152
153
154
155
156
157
158
159
160
161
162
163
164
165
166
167
168
169
170
171
172
173
174
175
176
177
178
179
180
181
182
184
185
186
187
188
189
190
191
192
193
194
195
196
198
199
200
202
203
204
205
206
207
208
209
210
211
212
213
214
215
216
217
218
219
221
222
223
224
225
226
227
228
229
230
231
232
234
235
236
237
238
239
240
241
242
243
244
245
246
248
249
250
251
252
253
254
255
256
257
258
259
260
261
262
263
264
265
266
267
268
269
270
271
272
273
274
275
276
277
278
279
280
281
282
283
284
285
286
287
288
289
290
291
292
293
294
295
296
297
299
300

SCALARS type int 1
LOOKUP_TABLE default
1
1
1
1
1
1
1
1
1
1
1
1
1
1
1
1
1
1
1
1
1
1
1
1
1
1
1
1
1
1
1
1
1
1
1
1
1
1
1
1
1
1
1
1
1
1
1
1
1
1
1
1
1
1
1
1
1
1
1
1
1
1
1
1
1
1
1
1
1
1
1
1
1
1
1
1
1
1
1
1
1
1
1
1
1
1
1
1
1
1
1
1
1
1
1
1
1
1
1
1
1
1
1
1
1
1
1
1
1
1
1
1
1
1
1
1
1
1
1
1
1
1
1
1
1
1
1
1
1
1
1
1
1
1
1
1
1
1
1
1
1
1
1
1
1
1
1
1
1
1
1
1
1
1
1
1
1
1
1
1
1
1
1
1
1
1
1
1
1
1
1
1
1
1
1
1
1
1
1
1
1
1
1
1
1
1
1
1
1
1
1
1
1
1
1
1
1
1
1
1
1
1
1
1
1
1
1
1
1
1
1
1
1
1
1
1
1
1
1
1
1
1
1
1
1
1
1
1
1
1
1
1
1
1
1
1
1
1
1
1
1
1
1
1
1
1
1
1
1
1
1
1
1
1
1
1
1
1
1
1
1
1
1
1
1
1
1
1
1
1
1
1
1
1
1
1
1
1
1
1
1
1
1
1

SCALARS radius float 1
LOOKUP_TABLE default
0.0005
0.0005
0.0005
0.0005
0.0005
0.0005
0.0005
0.0005
0.0005
0.0005
0.0005
0.0005
0.0005
0.0005
0.0005
0.0005
0.0005
0.0005
0.0005
0.0005
0.0005
0.0005
0.0005
0.0005
0.0005
0.0005
0.0005
0.0005
0.0005
0.0005
0.0005
0.0005
0.0005
0.0005
0.0005
0.0005
0.0005
0.0005
0.0005
0.0005
0.0005
0.0005
0.0005
0.0005
0.0005
0.0005
0.0005
0.0005
0.0005
0.0005
0.0005
0.0005
0.0005
0.0005
0.0005
0.0005
0.0005
0.0005
0.0005
0.0005
0.0005
0.0005
0.0005
0.0005
0.0005
0.0005
0.0005
0.0005
0.0005
0.0005
0.0005
0.0005
0.0005
0.0005
0.0005
0.0005
0.0005
0.0005
0.0005
0.0005
0.0005
0.0005
0.0005
0.0005
0.0005
0.0005
0.0005
0.0005
0.0005
0.0005
0.0005
0.0005
0.0005
0.0005
0.0005
0.0005
0.0005
0.0005
0.0005
0.0005
0.0005
0.0005
0.0005
0.0005
0.0005
0.0005
0.0005
0.0005
0.0005
0.0005
0.0005
0.0005
0.0005
0.0005
0.0005
0.0005
0.0005
0.0005
0.0005
0.0005
0.0005
0.0005
0.0005
0.0005
0.0005
0.0005
0.0005
0.0005
0.0005
0.0005
0.0005
0.0005
0.0005
0.0005
0.0005
0.0005
0.0005
0.0005
0.0005
0.0005
0.0005
0.0005
0.0005
0.0005
0.0005
0.0005
0.0005
0.0005
0.0005
0.0005
0.0005
0.0005
0.0005
0.0005
0.0005
0.0005
0.0005
0.0005
0.0005
0.0005
0.0005
0.0005
0.0005
0.0005
0.0005
0.0005
0.0005
0.0005
0.0005
0.0005
0.0005
0.0005
0.0005
0.0005
0.0005
0.0005
0.0005
0.0005
0.0005
0.0005
0.0005
0.0005
0.0005
0.0005
0.0005
0.0005
0.0005
0.0005
0.0005
0.0005
0.0005
0.0005
0.0005
0.0005
0.0005
0.0005
0.0005
0.0005
0.0005
0.0005
0.0005
0.0005
0.0005
0.0005
0.0005
0.0005
0.0005
0.0005
0.0005
0.0005
0.0005
0.0005
0.0005
0.0005
0.0005
0.0005
0.0005
0.0005
0.0005
0.0005
0.0005
0.0005
0.0005
0.0005
0.0005
0.0005
0.0005
0.0005
0.0005
0.0005
0.0005
0.0005
0.0005
0.0005
0.0005
0.0005
0.0005
0.0005
0.0005
0.0005
0.0005
0.0005
0.0005
0.0005
0.0005
0.0005
0.0005
0.0005
0.0005
0.0005
0.0005
0.0005
0.0005
0.0005
0.0005
0.0005
0.0005
0.0005
0.0005
0.0005
0.0005
0.0005
0.0005
0.0005
0.0005
0.0005
0.0005
0.0005
0.0005
0.0005
0.0005
0.0005
0.0005
0.0005
0.0005
0.0005
0.0005
0.0005
0.0005
0.0005
0.0005
0.0005
0.0005
0.0005

SCALARS mass float 1
LOOKUP_TABLE default
1.46608e-07
1.46608e-07
1.46608e-07
1.46608e-07
1.46608e-07
1.46608e-07
1.46608e-07
1.46608e-07
1.46608e-07
1.46608e-07
1.46608e-07
1.46608e-07
1.46608e-07
1.46608e-07
1.46608e-07
1.46608e-07
1.46608e-07
1.46608e-07
1.46608e-07
1.46608e-07
1.46608e-07
1.46608e-07
1.46608e-07
1.46608e-07
1.46608e-07
1.46608e-07
1.46608e-07
1.46608e-07
1.46608e-07
1.46608e-07
1.46608e-07
1.46608e-07
1.46608e-07
1.46608e-07
1.46608e-07
1.46608e-07
1.46608e-07
1.46608e-07
1.46608e-07
1.46608e-07
1.46608e-07
1.46608e-07
1.46608e-07
1.46608e-07
1.46608e-07
1.46608e-07
1.46608e-07
1.46608e-07
1.46608e-07
1.46608e-07
1.46608e-07
1.46608e-07
1.46608e-07
1.46608e-07
1.46608e-07
1.46608e-07
1.46608e-07
1.46608e-07
1.46608e-07
1.46608e-07
1.46608e-07
1.46608e-07
1.46608e-07
1.46608e-07
1.46608e-07
1.46608e-07
1.46608e-07
1.46608e-07
1.46608e-07
1.46608e-07
1.46608e-07
1.46608e-07
1.46608e-07
1.46608e-07
1.46608e-07
1.46608e-07
1.46608e-07
1.46608e-07
1.46608e-07
1.46608e-07
1.46608e-07
1.46608e-07
1.46608e-07
1.46608e-07
1.46608e-07
1.46608e-07
1.46608e-07
1.46608e-07
1.46608e-07
1.46608e-07
1.46608e-07
1.46608e-07
1.46608e-07
1.46608e-07
1.46608e-07
1.46608e-07
1.46608e-07
1.46608e-07
1.46608e-07
1.46608e-07
1.46608e-07
1.46608e-07
1.46608e-07
1.46608e-07
1.46608e-07
1.46608e-07
1.46608e-07
1.46608e-07
1.46608e-07
1.46608e-07
1.46608e-07
1.46608e-07
1.46608e-07
1.46608e-07
1.46608e-07
1.46608e-07
1.46608e-07
1.46608e-07
1.46608e-07
1.46608e-07
1.46608e-07
1.46608e-07
1.46608e-07
1.46608e-07
1.46608e-07
1.46608e-07
1.46608e-07
1.46608e-07
1.46608e-07
1.46608e-07
1.46608e-07
1.46608e-07
1.46608e-07
1.46608e-07
1.46608e-07
1.46608e-07
1.46608e-07
1.46608e-07
1.46608e-07
1.46608e-07
1.46608e-07
1.46608e-07
1.46608e-07
1.46608e-07
1.46608e-07
1.46608e-07
1.46608e-07
1.46608e-07
1.46608e-07
1.46608e-07
1.46608e-07
1.46608e-07
1.46608e-07
1.46608e-07
1.46608e-07
1.46608e-07
1.46608e-07
1.46608e-07
1.46608e-07
1.46608e-07
1.46608e-07
1.46608e-07
1.46608e-07
1.46608e-07
1.46608e-07
1.46608e-07
1.46608e-07
1.46608e-07
1.46608e-07
1.46608e-07
1.46608e-07
1.46608e-07
1.46608e-07
1.46608e-07
1.46608e-07
1.46608e-07
1.46608e-07
1.46608e-07
1.46608e-07
1.46608e-07
1.46608e-07
1.46608e-07
1.46608e-07
1.46608e-07
1.46608e-07
1.46608e-07
1.46608e-07
1.46608e-07
1.46608e-07
1.46608e-07
1.46608e-07
1.46608e-07
1.46608e-07
1.46608e-07
1.46608e-07
1.46608e-07
1.46608e-07
1.46608e-07
1.46608e-07
1.46608e-07
1.46608e-07
1.46608e-07
1.46608e-07
1.46608e-07
1.46608e-07
1.46608e-07
1.46608e-07
1.46608e-07
1.46608e-07
1.46608e-07
1.46608e-07
1.46608e-07
1.46608e-07
1.46608e-07
1.46608e-07
1.46608e-07
1.46608e-07
1.46608e-07
1.46608e-07
1.46608e-07
1.46608e-07
1.46608e-07
1.46608e-07
1.46608e-07
1.46608e-07
1.46608e-07
1.46608e-07
1.46608e-07
1.46608e-07
1.46608e-07
1.46608e-07
1.46608e-07
1.46608e-07
1.46608e-07
1.46608e-07
1.46608e-07
1.46608e-07
1.46608e-07
1.46608e-07
1.46608e-07
1.46608e-07
1.46608e-07
1.46608e-07
1.46608e-07
1.46608e-07
1.46608e-07
1.46608e-07
1.46608e-07
1.46608e-07
1.46608e-07
1.46608e-07
1.46608e-07
1.46608e-07
1.46608e-07
1.46608e-07
1.46608e-07
1.46608e-07
1.46608e-07
1.46608e-07
1.46608e-07
1.46608e-07
1.46608e-07
1.46608e-07
1.46608e-07
1.46608e-07
1.46608e-07
1.46608e-07
1.46608e-07
1.46608e-07
1.46608e-07
1.46608e-07
1.46608e-07
1.46608e-07
1.46608e-07
1.46608e-07
1.46608e-07
1.46608e-07
1.46608e-07
1.46608e-07
1.46608e-07
1.46608e-07
1.46608e-07
1.46608e-07
1.46608e-07

VECTORS velocity float
7.77012e-05 0.000521716 -0.000622483
0.00632936 0.00428553 0.00597644
-5.57809e-05 0.000430142 -0.000128497
0.000527679 -0.00938632 0.0050943
0.00224102 0.00124999 0.000103328
-4.73306e-05 -0.00679409 0.025719
-0.00029319 0.0290058 -0.00291579
0.00329602 -0.00191111 0.00297294
0.000393226 0.000200721 -0.000630448
0.00884473 0.00469013 -0.00309303
0.000384746 -0.0235329 0.00320553
-0.000188303 0.000544952 -0.000822521
0.000763604 -0.000543759 0.00202387
-0.0256835 0.15043 -0.385922
-0.00140718 0.0167969 -0.0195229
0.0031783 0.000845824 0.0163574
7.11226e-15 -5.2112e-14 9.68292e-14
0.00407213 0.00679293 0.005049
0.00126997 -0.000710868 0.00431395
0.000708606 0.00474836 0.0160591
-2.15893e-10 0.021518 0.0109518
0.00248403 0.00433096 -0.00712998
-0.000160557 0.00501453 0.00282801
0.00588046 0.00358874 0.00145897
-0.000669627 0.000859985 0.00419598
0.00247075 0.000626136 0.0170606
0.00531538 0.000560527 0.00565056
0.00153623 0.00564179 0.000697981
-0.00455427 0.0108161 -0.00261646
-0.0176615 -0.0484049 -0.0383254
0.000929684 -0.00644954 -0.0198398
0.000755568 0.00259886 -0.00168765
-0.000707309 -0.0141632 0.0245716
-0.00325768 0.000100985 -0.0042168
0.000621057 0.000606606 0.000128485
0.000951233 0.0205852 -0.00949019
0.0885572 -0.0846709 0.115218
0.00154913 -0.00456084 0.0201105
-6.01561e-05 0.000855546 -0.000713234
0.00120604 -0.000665307 0.00090107
-0.00707655 -0.00691446 0.00164131
0.000374407 -0.00193408 -0.00264798
-0.0017673 0.0107572 -0.00717919
0.011385 0.0126086 0.013399
0.00916802 0.00196592 0.00219016
-3.35197e-16 7.02618e-14 -2.01495e-13
-0.00681252 0.0032428 0.00593063
0.00333587 0.0117116 0.00711969
0.00252281 -0.00609156 -0.0127866
-9.97189e-06 0.0223058 0.00914277
0.00688186 0.00369806 -0.0052677
0.00130899 0.0136158 0.00392022
0.00300459 0.000425201 0.00123034
0.00377955 -0.0191528 -0.0292989
0.00104326 -0.00070767 -0.000136351
0.0395657 -0.00699498 0.00742208
-0.0490599 -0.0438293 -0.0143392
-0.00718562 -0.00259915 0.000571265
0.00483282 0.00885129 0.00166472
-3.10339e-05 -0.0251692 -0.00603461
0.000475978 0.00216733 -0.00198654
0.00258464 -0.00021647 -0.00576246
0.000782002 -0.0084305 -0.0178489
0.00700682 0.0191343 -0.000581587
0.00705691 -0.000989083 0.00718271
-0.00281011 -0.00203811 -0.0041857
-0.0149585 -0.0001266 -0.00308209
4.37495e-05 -0.00153791 -0.000731437
0.000449075 0.00231852 0.000927566
0.00201221 0.00128301 -0.00251423
-7.04557e-05 0.0152252 -0.0213736
0.00277276 0.00514616 -0.00483447
0.00102887 -0.0105199 -0.014907
-0.00137313 0.0182295 0.00334102
0.115848 0.0482135 -0.388886
0.0134017 -0.000981694 0.00172945
-0.0898962 -0.00241999 0.0149876
0.0182929 0.00187592 -0.00241034
0.000526053 -0.012784 0.00332833
0.000474366 -0.0166523 0.0175434
-0.0108675 0.00354771 -0.00561299
0.000462109 0.0235784 -0.0047245
-0.00127591 -0.00206781 0.00490102
0.0202072 -0.0603371 0.031097
0.00215063 -0.0192362 -0.00771433
0.0052575 0.000311454 0.00389931
0.000886092 -0.0132713 0.0071803
0.000345952 0.0232763 0.000336504
0.00570778 0.0073255 0.000735323
0.0274922 -0.0298328 -0.106849
0.019037 -0.00386719 -0.0210383
0.00246753 0.0115149 -0.00224503
0.000943422 0.0183489 0.00882319
0.00473577 0.0139735 0.00731137
0.020633 0.0103387 -0.00430838
0.0182248 -0.0157424 -0.0126684
0.00629279 0.000661605 0.00038693
1.2477e-06 0.0260939 0.0059213
0.00319033 0.00274765 0.000285747
0.000163589 0.000266813 -0.000760263
3.52354e-15 -6.05624e-15 5.3042e-14
0.00171814 0.00789324 -0.0110775
0.000240536 -0.019175 -0.0158249
0.0107782 -0.00162835 -0.0003418
0.00208485 -0.0208173 0.00768017
0.00869745 -0.000473119 -0.000538192
8.49323e-15 3.4879e-15 -7.01726e-14
0.0953809 -0.0280092 0.00483695
0.000988922 0.00358287 -0.00673774
0.000461461 -0.0248054 0.0075637
0.0019976 -0.0347105 -0.0233359
0.00171478 0.00274791 0.000436981
0.000940722 0.0170323 -0.0147807
-9.39083e-05 -0.00573238 0.00976282
0.0022112 0.00872046 -0.00870278
0.00262762 0.0139624 0.000708085
0.000537888 -0.0166652 0.0177934
-0.021862 -0.038509 -0.0974742
-0.00426862 0.0109926 -0.00616313
0.00762345 0.00418064 -0.00906544
0.0198742 -0.00772222 -0.00456579
0.00286584 0.00536642 -0.00808669
-0.000256647 0.00151838 -0.00046209
0.00406459 0.00253379 -0.00481198
-0.00075043 0.00120165 0.000653814
0.00398144 0.00947299 0.00363165
0.00593019 -0.0108042 0.000105214
0.000870366 0.00120384 -0.00167172
-0.00018345 -0.00115566 0.000838757
0.000580213 0.00266775 -0.0235216
0.00139251 0.00257812 -0.00295822
0.0186178 0.018956 -0.0163758
-0.00338365 0.00900568 -0.00103679
-0.000627383 -0.00301046 0.00285523
0.00152383 -0.00393161 0.00436402
-0.0164679 -0.00860742 0.0358089
-0.00285753 0.0022383 0.00119911
0.00464861 -0.00990141 0.0059623
0.00601332 0.0195437 -0.0103179
1.96803e-05 0.00924131 0.0019621
-0.00049809 -9.35103e-05 -6.3454e-05
0.00910387 -0.0086762 -0.00237843
-0.00224112 -0.00196936 0.0012858
0.0138182 0.0059698 -0.00359457
0.00726231 0.00468021 -0.00436994
0.00646147 0.00122746 0.00258767
0.00297712 0.00173642 2.46133e-05
-0.0516163 0.000888839 -0.0311148
-0.0118236 -0.0228063 -0.0167034
-0.0012096 -0.00116506 -0.00250951
0.00555659 0.00245019 -0.00344615
0.00351641 0.00234306 -0.00177694
0.00180474 0.0111445 0.00695121
-0.00904172 0.00093827 0.00277005
0.0233567 0.0129576 0.00516769
0.00853595 0.0187294 -0.00446309
0.0434107 -0.00395309 0.0350368
0.00843917 0.00627649 0.000675028
0.00288249 0.00460565 -0.00121788
-0.00393097 -0.000815555 0.00385474
0.0127765 -0.0839277 -0.22272
0.00385752 0.00173605 -0.00311997
0.227119 -0.0849838 0.486851
0.00252929 0.0161469 -0.00437529
0.000800409 0.00108022 -0.00344664
0.00229865 0.000382185 -0.00111595
-0.228122 0.0550731 0.181575
0.0215414 -0.0265543 0.0191335
0.0131035 0.00416397 0.00264221
0.00881381 0.0224973 -0.0124028
-0.0123479 0.0226415 0.0411081
0.000489996 -0.00332486 -0.00306891
0.0 -0.0 -0.01
0.00254264 -0.00497427 0.00776506
0.00271881 -7.21163e-05 -0.00436652
0.00577208 -0.00272199 -0.00270461
0.00276135 0.00642195 -0.00810868
0.0102694 0.00602689 -0.00233693
0.00271384 0.00532399 -0.00251322
-0.000296265 -0.00560409 -0.0330139
0.00793762 0.016119 -0.00209763
0.0100392 -0.000220293 -0.00440841
0.00184442 0.0082892 -0.00876566
5.57422e-05 0.00635069 -0.00533018
0.0012386 0.000459482 -0.00729404
-0.00228429 0.0110047 -0.000329787
0.00469331 0.0023686 0.0011026
0.00455532 0.000745761 0.00497005
0.00223065 0.00173305 0.00264019
0.00292211 0.00656171 -0.00666221
-0.00111987 -0.0010927 0.000437183
0.00483972 0.0157795 -0.00218999
0.0414401 -0.0429923 0.010556
0.00678174 -0.00188744 -0.00240624
0.000973154 0.00200338 -0.00390937
0.00429801 0.0203961 -0.00723776
0.00748539 0.00251293 -0.00199653
-0.00175488 0.0233007 -0.00185202
0.00336968 0.00278083 0.000984752
-0.0643904 0.163409 0.0172584
-0.00626303 0.00198148 -0.0115494
-0.00485653 0.0156955 0.00842549
-0.000383831 0.00302348 0.00513566
0.0119168 0.00503212 0.00511499
-0.0377452 -0.0248587 -0.0272808
0.0244908 -0.0310724 -0.000917582
-9.90454e-05 0.00050058 -1.69078e-05
0.00660519 -0.00682064 -0.0108629
0.0146698 -0.0100342 -0.0113571
-0.000390131 -0.0213039 0.0142151
-0.0022665 0.00111737 -0.00532076
0.00320647 -0.0020922 -0.00294119
0.0194673 -0.0133179 -0.0856307
0.0679135 0.0309074 -0.0295062
0.00655545 0.00227496 0.000639898
0.00274481 0.000247981 0.000189359
0.0 -0.0 -0.01
0.000624581 0.00819129 0.00155779
0.000764248 0.0016587 -0.000225306
0.00319221 -1.45116e-05 -0.00028784
0.00299502 -0.00452295 0.00699698
0.0198187 0.00938164 -0.00104077
0.0059967 -0.00836046 0.00800781
0.00380365 0.0136829 0.00135488
0.00917693 0.000457525 -0.00364464
3.91122e-05 0.000244946 -0.000648576
0.0102692 -0.00345578 0.00945678
0.000861345 0.00322791 0.000836423
0.0 0.0 -0.0572597
-0.00058688 0.00864291 0.00816574
-0.000248314 0.0054303 -0.00561843
0.00234773 0.014931 0.00832726
0.0 -0.0 -0.01
0.000412548 0.0188219 0.000443896
0.00847926 0.00765099 0.000122975
-0.01373 -0.0095696 0.0155804
-0.083849 -0.0178852 -0.239241
-0.0154562 -0.0331831 0.00906047
0.00653581 0.00110955 0.00505201
0.0 -0.0 -0.01
0.00478789 0.00885764 -0.00635856
-0.00161563 -0.0272893 -0.0392238
0.0017167 -0.00039983 -0.000366052
0.00230317 0.0133398 0.00511856
0.00370011 0.0165881 -0.00499641
-0.000281 1.65765e-05 -0.000297544
0.00143416 0.0132511 0.0159804
0.00138737 0.000902198 0.000144471
0.00153903 -0.0114273 -0.0151465
0.00918878 0.000881682 0.00892491
-0.00177799 0.00519723 -0.0199442
-0.00334108 0.0037636 -0.00455216
0.00749661 0.00502822 0.00318464
-0.00497877 -0.0142351 0.0199446
0.00456306 0.0258019 0.000268765
0.0135297 0.0220806 -0.0203866
0.0018223 0.00178029 0.00387819
-0.00907383 -0.00468001 0.00856394
0.0135727 0.000741924 -0.0836023
0.00363503 -0.00123629 -0.00316832
0.000721357 0.00068969 0.00108885
0.00172838 -0.00171899 -0.00170787
-0.0562666 -0.0740724 -0.120695
0.000693041 -0.0239422 -0.00342959
0.0 -0.0 -0.01
0.000102396 0.000663762 0.000806234
0.00869186 0.020126 0.000485601
0.00762812 0.00338271 -0.000189002
0.00269145 0.00423761 -0.00431347
-0.00416107 0.00153208 0.00235069
0.00270901 0.00242743 -0.00380834
-0.00586967 -0.00455376 0.000671063
0.00906114 0.0135276 -0.0143948
0.0156963 0.0187503 -0.0177841
0.0 0.0 -0.126381
-0.00625684 -0.0021436 0.000912605
0.00173772 -0.00324498 0.00421079
0.000795247 0.00710145 -0.00779444
0.0102025 0.0170294 -0.00254172
0.0 -0.0 -0.01
-0.000161714 -0.00166765 0.000907835
0.0214993 -0.00645756 0.00237452
0.000636574 -0.000507924 0.00229663
0.00375388 0.005774 0.00193469

VECTORS force float
-2.22111e-07 -5.34714e-07 5.72353e-07
-3.9321e-08 -3.11962e-08 -2.92577e-08
-6.04666e-07 1.32857e-06 -5.21878e-07
8.33126e-07 3.88289e-08 3.83663e-07
5.10298e-07 1.60386e-06 -1.28332e-06
-2.62757e-09 1.34907e-08 9.11655e-09
4.41637e-07 1.33655e-07 -1.82066e-07
-2.97188e-08 3.85135e-07 -1.25888e-06
-1.88153e-06 -5.79973e-08 -5.8377e-07
0.0 0.0 -1.43822e-06
-2.51564e-06 -5.73678e-07 8.56376e-07
-3.05412e-07 1.98738e-08 5.42803e-08
2.90103e-06 1.96861e-06 -1.39391e-06
0.0 0.0 -1.43822e-06
0.0 0.0 -1.43822e-06
-9.61884e-07 -1.68756e-06 8.67723e-07
1.30288e-18 -7.84564e-20 -1.1075e-19
-3.34677e-08 1.20591e-07 9.57641e-08
-9.41452e-06 1.41237e-06 4.9602e-06
2.52591e-06 -7.19907e-06 -1.73769e-05
-3.90732e-14 8.74194e-09 -1.67451e-08
-3.5572e-06 4.56306e-06 -4.95224e-06
-2.93565e-08 -2.66342e-08 5.63673e-07
0.0 0.0 -1.43822e-06
0.0 0.0 -1.43822e-06
5.97617e-08 4.3124e-07 -1.62139e-06
0.0 0.0 -1.43822e-06
5.67912e-06 -8.75684e-06 6.58649e-06
1.79413e-07 1.35991e-06 -6.00511e-07
0.0 0.0 -1.43822e-06
4.02222e-09 -3.21855e-09 1.81112e-08
-9.56814e-07 -3.76577e-07 -1.73385e-06
-3.50188e-08 -9.19066e-08 7.75583e-08
8.44937e-07 -2.44624e-07 4.77116e-07
-3.42199e-07 9.46223e-07 -1.16378e-06
5.08632e-07 -1.94259e-06 -8.0406e-06
0.0 0.0 -1.43822e-06
2.98571e-09 1.43099e-08 1.9953e-08
5.65578e-07 -5.40143e-07 6.60196e-07
1.02157e-05 -2.44745e-06 -6.81511e-06
0.0 0.0 -1.43822e-06
9.49331e-09 -8.09275e-09 -3.02923e-08
-2.15871e-06 9.9152e-06 -6.64911e-06
2.77899e-06 1.73206e-06 7.47029e-06
7.82644e-07 7.59085e-07 3.27558e-07
-8.93534e-19 9.86793e-20 3.83282e-20
1.00187e-07 -1.98156e-07 -1.52642e-07
4.12087e-07 -2.92706e-07 -3.7471e-07
1.03703e-08 -2.09007e-09 2.25421e-08
2.4731e-08 1.94075e-08 -1.34763e-08
-1.45448e-05 1.86351e-06 1.18676e-05
4.39989e-06 2.4136e-06 4.1566e-06
-6.59005e-06 5.02493e-06 1.06773e-05
-3.75584e-08 -3.9633e-07 -5.33126e-07
6.81296e-09 -1.96849e-08 2.51157e-08
0.0 0.0 -1.43822e-06
0.0 0.0 -1.43822e-06
0.0 0.0 -1.43822e-06
-3.26266e-06 9.96167e-06 -4.77435e-06
-7.03907e-10 -5.48003e-09 1.25773e-08
6.10891e-07 5.80859e-07 4.4711e-07
-1.54805e-05 1.17453e-05 8.04536e-06
-2.18078e-08 -5.2053e-08 -6.98071e-08
-2.05849e-06 -2.80598e-06 -1.9175e-06
-2.11621e-06 2.20975e-06 -6.47027e-07
3.84566e-07 -4.07367e-07 -9.40699e-07
0.0 0.0 -1.43822e-06
-2.65873e-07 9.79059e-08 -5.29655e-07
8.21391e-08 -3.97754e-06 4.28441e-06
-4.11101e-06 -1.19191e-05 -1.5144e-05
-1.98437e-09 -9.40477e-09 -1.38283e-08
4.64782e-07 -4.05488e-07 3.7433e-07
-4.99162e-10 4.04857e-08 6.84021e-08
1.55676e-07 2.75654e-07 -6.01272e-07
0.0 0.0 -1.43822e-06
-5.94954e-06 -1.87086e-06 3.66319e-06
0.0 0.0 -1.43822e-06
7.36154e-07 -8.53986e-07 -8.20261e-07
3.56597e-07 -4.2926e-07 2.09632e-07
-4.08062e-09 1.58606e-09 1.98501e-08
2.62187e-06 -1.4168e-07 -1.11566e-06
3.07092e-06 2.23628e-06 -3.31224e-06
3.12469e-06 3.85743e-06 7.46532e-06
0.0 0.0 -1.43822e-06
7.38949e-09 3.93606e-08 3.317e-08
4.80071e-06 -5.00033e-06 -3.97058e-06
-8.86736e-07 -1.58849e-07 2.12801e-09
-3.37302e-07 1.19873e-05 1.07285e-06
-5.96452e-06 4.84408e-06 -1.583e-05
0.0 0.0 -1.43822e-06
2.29291e-07 -1.61896e-07 -7.83074e-07
6.9016e-07 2.18259e-06 -1.37007e-05