ITEM: TIMESTEP
5000000
ITEM: NUMBER OF ATOMS
271
ITEM: BOX BOUNDS ff ff ff
-0.02 0.43
-0.02 0.06
-0.02 0.1
ITEM: ATOMS id type x y z vx vy vz fx fy fz radius mass 
1 1 0.0202441 0.0202235 0.0166498 0.00946134 0.0048964 -0.00298184 1.43149e-06 -2.75872e-06 8.90582e-07 0.0005 1.46608e-07 
2 1 0.0261761 0.0232621 0.0104439 0.00465245 -0.000816257 -0.00772362 2.6766e-07 1.28369e-08 3.05961e-07 0.0005 1.46608e-07 
3 1 0.0173762 0.017405 0.0162428 0.00322511 0.0185673 -0.00889842 9.3914e-08 -6.45499e-09 -3.83659e-07 0.0005 1.46608e-07 
5 1 0.0254481 0.0210293 0.0162826 0.00102774 -0.00164987 0.00289622 -1.00012e-07 4.6749e-07 -3.78198e-07 0.0005 1.46608e-07 
6 1 0.022042 0.0186594 0.0159387 0.00128918 0.0208844 0.00127039 9.58306e-08 -1.94643e-07 -2.55522e-09 0.0005 1.46608e-07 
7 1 0.0221226 0.0148146 0.0165227 0.00294826 0.00661719 -0.0107668 1.184e-08 -1.07888e-07 -1.44101e-06 0.0005 1.46608e-07 
8 1 0.0227682 0.0145528 0.014482 -0.000628108 -0.00122564 0.00194151 6.76861e-10 -9.59623e-07 2.01339e-06 0.0005 1.46608e-07 
10 1 0.020846 0.0242535 0.01408 -0.000909194 0.000856562 -0.000664713 3.74757e-07 4.7096e-07 -1.42113e-06 0.0005 1.46608e-07 
12 1 0.0160472 0.0143978 0.0140396 0.000241092 -0.000765382 0.00112307 1.35069e-07 1.70735e-07 -3.27525e-07 0.0005 1.46608e-07 
13 1 0.0215009 0.0238362 0.0171088 -0.00812873 -0.0122433 -0.0336871 -2.03883e-07 -3.50389e-07 -9.41865e-07 0.0005 1.46608e-07 
14 1 0.0197241 0.014357 0.0161123 0.00348948 0.000944679 -0.000370901 -1.20191e-06 -8.5033e-07 2.54387e-06 0.0005 1.46608e-07 
17 1 0.02852 0.0165044 0.014933 0.000399251 0.0198286 0.0142439 -2.25066e-09 1.53745e-08 -6.77369e-09 0.0005 1.46608e-07 
18 1 0.0205271 0.0232681 0.0122377 0.00175772 0.00329805 -0.0265411 -4.0314e-06 2.42383e-07 6.36939e-06 0.0005 1.46608e-07 
19 1 0.0227829 0.0233031 0.015493 3.0161e-05 -0.00045755 -0.000128164 -1.66731e-06 1.81533e-06 -2.0228e-06 0.0005 1.46608e-07 
20 1 0.0252021 0.0214411 0.0168808 0.000212355 -0.000228642 0.000528053 -6.95141e-08 3.20647e-07 -2.13078e-07 0.0005 1.46608e-07 
21 1 0.0184407 0.0239301 0.0146898 -0.000480338 0.000450069 -0.000263202 -7.26067e-07 -3.20008e-07 -1.93249e-07 0.0005 1.46608e-07 
22 1 0.0161854 0.0235801 0.0152346 0.000918349 0.000287847 1.38511e-05 4.06237e-07 3.64538e-07 -3.12261e-07 0.0005 1.46608e-07 
23 1 0.0180425 0.0240542 0.0164736 0.000118243 0.000129741 -2.95325e-05 -2.42886e-07 3.1616e-07 -8.61744e-07 0.0005 1.46608e-07 
24 1 0.0198815 0.0157125 0.0165417 0.00603002 0.0031928 -0.0006471 6.31359e-07 -3.00822e-07 -4.01097e-07 0.0005 1.46608e-07 
25 1 0.0174748 0.0168937 0.0153892 0.00551027 0.00328739 0.000444592 4.01457e-07 -2.0011e-07 -1.32544e-07 0.0005 1.46608e-07 
26 1 0.0182183 0.0209228 0.0164014 0.00800186 0.0048463 0.00200905 -3.66988e-07 1.80587e-06 -4.44596e-08 0.0005 1.46608e-07 
27 1 0.0218177 0.0206308 0.0173683 -0.0363438 -0.0135302 0.00143987 0 0 -1.43822e-06 0.0005 1.46608e-07 
29 1 0.0195292 0.023758 0.0154474 -0.000306611 0.000253442 -0.000729574 2.24575e-06 -2.54037e-07 7.59678e-07 0.0005 1.46608e-07 
31 1 0.0191478 0.0151739 0.0161277 0.00656231 0.00207806 -0.000357421 -1.27524e-06 1.59716e-06 3.25621e-08 0.0005 1.46608e-07 
33 1 0.0229376 0.0234262 0.0182548 -0.0141631 0.00778578 -0.0174378 -2.36972e-07 -3.00302e-07 -1.07455e-06 0.0005 1.46608e-07 
34 1 0.0139411 0.022385 0.0155952 0.00142808 -6.96289e-05 -0.00485576 6.71563e-07 -4.21103e-07 9.6851e-08 0.0005 1.46608e-07 
35 1 0.0277774 0.0196809 0.015769 0.000667144 0.0240238 -0.0050949 1.55195e-09 1.52e-07 -3.88421e-08 0.0005 1.46608e-07 
36 1 0.0197045 0.0240649 0.0144588 -0.000543195 0.000616784 -0.000466343 6.48363e-06 -1.50927e-06 2.12902e-06 0.0005 1.46608e-07 
37 1 0.0224211 0.016108 0.015677 0.00460603 0.00446381 0.00399737 1.54358e-07 -2.79945e-09 -4.70839e-08 0.0005 1.46608e-07 
38 1 0.0187981 0.0184979 0.00721823 0.00102519 -0.0229 0.00336658 -5.70831e-08 -1.4019e-07 -4.49021e-08 0.0005 1.46608e-07 
40 1 0.0282093 0.0175511 0.0155319 -0.000105205 0.0235262 0.0107416 -1.99487e-09 7.48574e-09 -1.23788e-08 0.0005 1.46608e-07 
41 1 0.0187041 0.0176027 0.00740483 0.000153466 -0.0219533 0.0086862 7.63437e-08 -3.09647e-08 4.22414e-08 0.0005 1.46608e-07 
42 1 0.0136444 0.0215877 0.0161207 0.000488325 0.00114639 -0.00310541 -8.86636e-07 -8.36183e-07 -6.58763e-07 0.0005 1.46608e-07 
43 1 0.0171235 0.0199365 0.0166155 0.00985084 0.00537277 0.00112828 0 0 -1.43822e-06 0.0005 1.46608e-07 
44 1 0.0197557 0.015713 0.0155272 0.00359381 0.00132541 -0.00141504 -1.79895e-07 2.57734e-07 4.13006e-07 0.0005 1.46608e-07 
46 1 0.0224367 0.0200516 0.0181563 -0.0593767 -0.0664447 -0.0113459 0 0 -1.43822e-06 0.0005 1.46608e-07 
50 1 0.0248502 0.0186885 0.00723073 0.000351999 -0.0238563 0.00272863 -3.03666e-09 -1.00124e-08 1.56536e-08 0.0005 1.46608e-07 
51 1 0.017207 0.0148743 0.0159113 0.000222593 0.000634757 -0.00118677 -8.78113e-07 7.99393e-07 -3.19758e-07 0.0005 1.46608e-07 
52 1 0.0214852 0.0150818 0.0157996 -0.00333317 0.00246401 -0.00394235 -2.44108e-06 4.6641e-07 1.95074e-06 0.0005 1.46608e-07 
53 1 0.0201095 0.0211643 0.016339 0.00867396 0.00456737 -0.00285551 -7.33599e-07 -7.60584e-07 -6.67056e-07 0.0005 1.46608e-07 
54 1 0.0176037 0.0235927 0.015398 0.000585404 -3.48669e-05 -0.000143522 -1.38488e-06 5.94092e-07 -5.34989e-07 0.0005 1.46608e-07 
55 1 0.0225733 0.0159035 0.0166439 0.00180205 0.000900286 0.00374466 5.20818e-08 6.18453e-08 1.74634e-07 0.0005 1.46608e-07 
56 1 0.017057 0.0182904 0.0158764 0.00320024 -0.000480942 0.000224803 -8.30853e-08 4.30171e-07 -3.99256e-08 0.0005 1.46608e-07 
57 1 0.0226875 0.0159894 0.0147206 0.00423551 0.00444851 0.00399335 -8.70401e-08 -2.2566e-07 8.47512e-08 0.0005 1.46608e-07 
58 1 0.017686 0.0140966 0.016321 0.00207278 0.000480104 -0.00249945 -3.43384e-07 4.44729e-07 5.99168e-07 0.0005 1.46608e-07 
59 1 0.0236826 0.0218719 0.0170908 -0.00576073 -0.0119859 -0.0346405 -3.04449e-07 -2.10602e-07 -1.06198e-06 0.0005 1.46608e-07 
60 1 0.0174969 0.0224952 0.0156544 0.000974596 -0.000687779 0.000830612 1.42931e-06 -1.60676e-06 -1.64295e-06 0.0005 1.46608e-07 
62 1 0.0234767 0.0158441 0.0155436 -0.00179462 0.000480151 -0.00812186 1.73104e-07 1.45557e-07 -8.53165e-08 0.0005 1.46608e-07 
63 1 0.0223372 0.0217468 0.0150445 0.00628463 0.0132523 -0.008279 0 0 -1.43822e-06 0.0005 1.46608e-07 
64 1 0.0259783 0.0229873 0.00964448 0.00429962 -0.001202 -0.00764441 -1.50643e-06 2.70987e-07 4.03633e-07 0.0005 1.46608e-07 
65 1 0.0241056 0.016514 0.015149 -0.0009491 0.00946103 0.00757834 8.00552e-08 1.39451e-07 -4.84849e-07 0.0005 1.46608e-07 
66 1 0.0204928 0.0151697 0.0159658 0.00229108 0.00126109 -0.00348743 5.08996e-07 2.97505e-07 -5.65844e-07 0.0005 1.46608e-07 
67 1 0.0189198 0.0187377 0.016747 0.00837934 0.0124857 -0.000201439 5.80435e-08 3.78135e-07 1.08532e-07 0.0005 1.46608e-07 
68 1 0.018286 0.0229292 0.0150121 0.000957456 0.000559322 0.00181295 -5.77477e-08 1.09628e-06 -1.17904e-06 0.0005 1.46608e-07 
69 1 0.0200395 0.0230263 0.00989924 0.000712842 -0.00945148 -0.0214099 -7.64015e-09 -2.05242e-08 -1.07316e-08 0.0005 1.46608e-07 
71 1 0.0162821 0.0226058 0.0156362 0.00157797 0.000157509 0.00133332 -2.133e-07 -3.03628e-07 -8.98276e-08 0.0005 1.46608e-07 
72 1 0.0187264 0.0197225 0.0167072 0.00811788 0.00221747 -0.00581863 9.59746e-08 9.00792e-08 -1.39114e-06 0.0005 1.46608e-07 
73 1 0.0248192 0.0176293 0.0165632 -0.0104495 0.000491826 -0.00130515 1.36043e-07 5.81643e-08 -2.06578e-07 0.0005 1.46608e-07 
74 1 0.023529 0.02062 0.015661 0.00436047 0.0032873 8.03419e-05 -1.27726e-07 1.09768e-06 -5.08215e-07 0.0005 1.46608e-07 
76 1 0.0182257 0.0241162 0.0131238 0.000263857 0.00150375 -0.00107887 -1.95208e-07 -1.90732e-06 -3.86381e-06 0.0005 1.46608e-07 
78 1 0.0214493 0.023404 0.0143591 -0.0010153 0.00432501 -0.00265777 4.5476e-06 -9.15969e-06 1.55665e-06 0.0005 1.46608e-07 
79 1 0.0232048 0.0178482 0.0157942 0.00354154 0.00508651 0.00120048 -7.1698e-08 1.09353e-07 3.011e-07 0.0005 1.46608e-07 
80 1 0.0168959 0.014145 0.0145038 0.00212657 -0.00229242 -0.0029959 3.11266e-07 8.6283e-07 3.64889e-08 0.0005 1.46608e-07 
84 1 0.0199409 0.0147761 0.0152308 -0.00037877 0.000347092 -0.000562655 7.8878e-07 1.11575e-06 -1.17585e-06 0.0005 1.46608e-07 
85 1 0.0191721 0.0138222 0.0169068 0.00404369 0.00540837 -0.00859416 -3.71371e-08 1.23965e-09 1.11427e-06 0.0005 1.46608e-07 
87 1 0.0229567 0.0151997 0.0137435 0.00496523 0.00241859 0.00683741 -8.46496e-08 -2.57108e-07 9.47151e-07 0.0005 1.46608e-07 
88 1 0.0236023 0.0190011 0.016672 0.00701772 0.00197801 -0.012937 -9.40262e-07 -7.97643e-07 6.63551e-08 0.0005 1.46608e-07 
89 1 0.0192604 0.0205486 0.0165275 0.00916403 0.00422474 -0.000825074 8.31111e-07 -1.24475e-06 1.59741e-06 0.0005 1.46608e-07 
90 1 0.0155465 0.0153493 0.015261 0.000497856 -0.000211318 -0.000879091 -3.51146e-07 -4.52679e-07 -4.52294e-07 0.0005 1.46608e-07 
91 1 0.0204249 0.0238575 0.0158805 0.000341174 0.000214353 0.000981587 3.24816e-06 -1.23692e-06 -5.97824e-07 0.0005 1.46608e-07 
93 1 0.0225465 0.022648 0.0140961 -0.00182396 0.0036412 -0.00341061 -3.32895e-06 9.18854e-06 -7.01267e-06 0.0005 1.46608e-07 
95 1 0.017408 0.0211182 0.0154386 0.00352407 0.0124154 -0.00589978 -7.25692e-06 -2.66705e-06 1.35547e-06 0.0005 1.46608e-07 
96 1 0.0198131 0.0244864 0.0135828 -0.00144566 0.000892424 0.000523476 8.32282e-06 3.62637e-07 -6.09218e-06 0.0005 1.46608e-07 
99 1 0.0230756 0.0166973 0.0163012 0.00604673 -0.00190238 0.00241542 -5.54896e-08 -1.11598e-07 -7.15941e-07 0.0005 1.46608e-07 
100 1 0.0190036 0.0162409 0.0159215 0.00459964 0.000921055 0.000849572 -1.70423e-07 6.68943e-08 -1.40928e-07 0.0005 1.46608e-07 
101 1 0.0216602 0.0224594 0.0143234 -0.00222027 0.00510282 -0.00652655 -7.9541e-06 -2.66635e-06 -6.44125e-06 0.0005 1.46608e-07 
102 1 0.0221341 0.0237829 0.0139061 -0.000152798 0.000988863 -0.000391579 -1.86652e-06 5.20706e-07 -1.9256e-06 0.0005 1.46608e-07 
103 1 0.0150137 0.0227755 0.0139143 0.00446638 0.00230222 -0.00287383 1.15831e-07 -2.54148e-07 2.7872e-07 0.0005 1.46608e-07 
104 1 0.027339 0.0213603 0.015094 0.00176011 0.0165787 -0.0124019 2.12065e-07 -4.02642e-07 2.51631e-07 0.0005 1.46608e-07 
105 1 0.025897 0.0186236 0.0167292 -0.000574823 0.000197685 -0.00111169 -1.55652e-08 5.10631e-07 7.7156e-08 0.0005 1.46608e-07 
106 1 0.0237487 0.0150531 0.00991075 0.00314785 -0.00480551 0.0114766 1.14035e-05 1.39182e-05 -8.23068e-06 0.0005 1.46608e-07 
107 1 0.0452238 0.020186 0.00584088 -2.05587e-15 2.53804e-14 -8.03247e-14 8.24732e-20 1.38384e-19 4.3834e-20 0.0005 1.46608e-07 
109 1 0.0207725 0.017823 0.0166115 -0.00172782 0.00987861 0.00156108 3.88503e-08 1.14307e-07 4.30655e-08 0.0005 1.46608e-07 
111 1 0.0294444 0.0147761 0.0112788 0.00157865 -0.00250406 0.0105518 4.42146e-07 2.60124e-08 -2.12362e-07 0.0005 1.46608e-07 
112 1 0.0168681 0.0142002 0.0135002 -0.000373151 0.00159786 -0.00307222 -1.2509e-06 -2.90882e-07 -2.05988e-06 0.0005 1.46608e-07 
113 1 0.0227992 0.0199531 0.0158494 -0.000320531 0.0240304 -0.00478683 1.85347e-07 2.90484e-07 6.44242e-07 0.0005 1.46608e-07 
115 1 0.0156398 0.0205531 0.0156985 0.0054554 0.00347849 0.00208663 -9.88161e-07 6.07925e-07 -1.41136e-06 0.0005 1.46608e-07 
117 1 0.0181259 0.018173 0.0164268 0.00372868 0.00680718 -0.000553201 -1.17358e-07 3.85831e-07 -6.70064e-08 0.0005 1.46608e-07 
118 1 0.0177363 0.0146868 0.0145041 -0.000448513 0.00192317 -0.00452531 2.09767e-07 4.42461e-07 1.33086e-07 0.0005 1.46608e-07 
119 1 0.015219 0.0221644 0.0146769 0.00534809 0.00374067 -0.00195473 -1.48854e-08 3.94587e-07 9.06712e-07 0.0005 1.46608e-07 
120 1 0.0206689 0.022504 0.0161823 -0.00436174 0.0166486 -0.00627121 0 0 -1.43822e-06 0.0005 1.46608e-07 
122 1 0.0181995 0.0175235 0.0156701 0.00440139 0.00479807 0.00149639 -1.75858e-07 -1.07836e-07 1.17283e-07 0.0005 1.46608e-07 
123 1 0.0131075 0.0194112 0.0167364 0.00179286 0.00220413 -0.000667527 -1.15673e-07 7.01533e-07 -2.15266e-08 0.0005 1.46608e-07 
124 1 0.0129314 0.020951 0.0164141 0.00108942 0.00126433 -0.000520654 -5.37443e-08 -2.61213e-07 -6.46971e-08 0.0005 1.46608e-07 
125 1 0.021206 0.0141721 0.0134893 -0.00358084 0.0011758 -0.00690617 -1.838e-07 -8.09641e-08 -8.31953e-09 0.0005 1.46608e-07 
126 1 0.0190161 0.0177494 0.0165949 0.00216747 0.0107275 0.000947103 -5.0428e-08 1.8137e-07 -6.97631e-08 0.0005 1.46608e-07 
127 1 0.0207951 0.0230029 0.0171066 -0.0360588 -0.0392518 0.063683 0 0 -1.43822e-06 0.0005 1.46608e-07 
128 1 0.0158481 0.0196018 0.0159251 0.00516543 0.002824 0.000577402 -3.08321e-07 4.2142e-07 7.41987e-07 0.0005 1.46608e-07 
129 1 0.0232301 0.0226824 0.0175766 0.0172342 -0.00983358 0.0035941 0 0 -1.43822e-06 0.0005 1.46608e-07 
130 1 0.0230813 0.0200778 0.0170092 -0.00747869 0.011293 -0.0245145 3.08353e-07 2.34494e-06 -3.86144e-07 0.0005 1.46608e-07 
131 1 0.0200801 0.0229417 0.0152761 -0.00143629 0.00196507 -0.00352439 3.03758e-06 -3.65587e-06 4.89376e-07 0.0005 1.46608e-07 
132 1 0.0213834 0.0239877 0.0132608 -0.00234816 -0.000291875 0.000153856 8.24714e-06 -6.73459e-06 -1.43903e-06 0.0005 1.46608e-07 
133 1 0.0172891 0.0217653 0.0173072 -0.121577 0.0256354 -0.119127 0 0 -1.43822e-06 0.0005 1.46608e-07 
134 1 0.0221604 0.0237807 0.0148985 -0.000215887 0.000601609 -0.000474458 -1.51414e-06 -8.33266e-07 2.27229e-06 0.0005 1.46608e-07 
135 1 0.0184068 0.0221923 0.0159378 0.00172538 0.000374058 0.000688933 -1.81185e-06 3.66665e-07 -7.25515e-07 0.0005 1.46608e-07 
136 1 0.0238352 0.0216846 0.0160438 -0.00250836 0.00160369 0.00157356 -2.92487e-07 3.992e-06 8.59523e-07 0.0005 1.46608e-07 
137 1 0.0202011 0.0194943 0.0176815 -0.00886235 -0.050308 -0.0652836 0 0 -1.43822e-06 0.0005 1.46608e-07 
138 1 0.021249 0.0233947 0.0114168 0.00964933 -0.00105531 -0.0119936 2.38147e-05 7.78138e-07 -7.04948e-05 0.0005 1.46608e-07 
139 1 0.0190026 0.0196262 0.00722345 0.000629409 -0.0237587 -0.00448196 -3.94142e-10 -8.39582e-10 1.28613e-08 0.0005 1.46608e-07 
140 1 0.0169571 0.0151955 0.0137436 0.00620964 -0.00107394 -0.00167921 -1.66267e-06 1.46334e-06 1.9339e-06 0.0005 1.46608e-07 
141 1 0.021343 0.0160727 0.0158408 -0.00051281 0.00337054 2.6134e-05 1.18642e-08 -2.58659e-07 -1.72246e-07 0.0005 1.46608e-07 
142 1 0.0167993 0.0211004 0.016372 0.000546607 -0.000850459 0.00512374 9.89969e-07 1.09279e-06 -6.05417e-07 0.0005 1.46608e-07 
144 1 0.0171578 0.0220198 0.0148257 0.00655625 0.000834168 0.000508336 -1.57389e-08 -4.6426e-07 -4.43472e-07 0.0005 1.46608e-07 
145 1 0.0199231 0.0222749 0.0086365 -0.00104837 -0.013947 -0.016074 -3.1716e-06 -5.40176e-06 -2.24637e-06 0.0005 1.46608e-07 
146 1 0.0180287 0.0164097 0.0160665 0.00461281 0.00108845 -0.00053963 -9.50542e-08 -1.03936e-07 5.17448e-07 0.0005 1.46608e-07 
148 1 0.0160533 0.0186233 0.0159307 0.00458072 0.00264177 0.000152485 -2.2726e-07 -4.98557e-07 -1.21585e-06 0.0005 1.46608e-07 
149 1 0.0179937 0.0144693 0.0154456 -0.000865669 0.00149172 -0.00368458 -1.36449e-06 -1.31719e-07 7.18043e-07 0.0005 1.46608e-07 
150 1 0.0166179 0.02023 0.0158042 0.00576413 0.00206002 -3.18858e-05 3.85262e-07 1.11211e-06 -1.3646e-06 0.0005 1.46608e-07 
151 1 0.0202396 0.014103 0.0169307 0.00394789 0.00138255 -0.000512437 -3.87685e-07 3.90607e-07 -1.16988e-06 0.0005 1.46608e-07 
152 1 0.0208499 0.015164 0.0150318 -0.00279994 -0.00337515 -0.00579281 2.47385e-08 -4.75315e-07 -3.39324e-07 0.0005 1.46608e-07 
153 1 0.0232839 0.0226532 0.00914081 -3.39576e-05 -0.0025067 -0.0072943 3.64403e-09 1.17939e-07 1.10546e-07 0.0005 1.46608e-07 
154 1 0.0296373 0.0149238 0.0104245 0.00160762 -0.00497168 0.01919 -1.32171e-07 1.23025e-07 -1.91231e-07 0.0005 1.46608e-07 
155 1 0.112691 0.0188173 0.00572472 -4.22773e-15 2.50379e-14 1.50107e-13 -2.8369e-20 -2.83227e-21 -2.11758e-22 0.0005 1.46608e-07 
156 1 0.0184998 0.0146192 0.0119422 0.000904124 0.0013643 -0.00224657 6.09359e-08 -1.40728e-08 1.37818e-07 0.0005 1.46608e-07 
157 1 0.0169973 0.0163289 0.0160644 0.00770906 0.00275812 -0.000233665 1.6884e-07 3.99414e-09 -8.1607e-07 0.0005 1.46608e-07 
158 1 0.0227531 0.0151645 0.0156638 -0.00171062 0.00129694 -0.000271243 5.03137e-07 9.70107e-08 1.18432e-06 0.0005 1.46608e-07 
160 1 0.0153176 0.0211317 0.0164477 0.00242133 0.000923202 0.00173678 1.5318e-07 -3.99556e-07 1.86485e-06 0.0005 1.46608e-07 
161 1 0.0160102 0.0217741 0.0161198 0.00293405 0.000903098 0.0030745 -3.17214e-07 -3.31832e-07 1.75026e-06 0.0005 1.46608e-07 
162 1 0.0361248 0.0268795 0.0435188 -9.73064e-317 -9.74665e-317 -1.68644e-13 0 0 0 0.0005 1.46608e-07 
163 1 0.0219718 0.0185012 0.00606129 2.95478e-14 -6.36854e-14 -2.30378e-13 -4.9075e-20 -2.12605e-19 5.10337e-20 0.0005 1.46608e-07 
164 1 0.0270079 0.022464 0.0139344 9.95484e-05 0.0159056 -0.0210575 -5.77701e-10 -9.96805e-09 -1.12304e-08 0.0005 1.46608e-07 
165 1 0.0227039 0.0213879 0.0178661 0.0328554 -0.0179643 0.0292688 0 0 -1.43822e-06 0.0005 1.46608e-07 
166 1 0.0173984 0.0148246 0.0129267 0.00279791 -0.00047345 -0.00447755 1.14197e-06 1.57628e-07 -1.2256e-07 0.0005 1.46608e-07 
167 1 0.0161669 0.0219393 0.0148996 0.00604769 0.002789 -0.00119588 -1.45008e-06 -2.27783e-06 -1.45118e-07 0.0005 1.46608e-07 
168 1 0.01573 0.0226688 0.0164676 0.000568958 0.00116353 0.000903269 -2.44749e-07 2.93536e-07 -3.63833e-07 0.0005 1.46608e-07 
169 1 0.0168235 0.0192608 0.0159393 0.0054014 0.00215014 0.000170458 5.31907e-07 8.41035e-07 -1.42451e-06 0.0005 1.46608e-07 
170 1 0.0223205 0.0205783 0.0164657 -0.00673727 0.0234236 -0.00868621 -1.44125e-07 9.74967e-07 8.50193e-07 0.0005 1.46608e-07 
172 1 0.0192739 0.023153 0.0162015 -0.000441653 -0.000248356 -0.000330052 3.08567e-07 -9.3961e-07 -7.44614e-07 0.0005 1.46608e-07 
175 1 0.015794 0.0230889 0.0133868 0.00414448 0.00270574 -0.00112947 1.17985e-06 -2.8258e-07 2.37071e-06 0.0005 1.46608e-07 
177 1 0.0234594 0.0147306 0.0112859 0.000199215 -0.00270006 0.0251925 3.02618e-09 1.30244e-08 -3.70392e-10 0.0005 1.46608e-07 
178 1 0.0187068 0.0145956 0.0142814 -0.000307293 0.00257077 -0.00317481 1.13398e-07 -2.30535e-07 4.10088e-07 0.0005 1.46608e-07 
179 1 0.0209328 0.0228456 0.0137694 0.00360446 0.00861999 -0.0124839 8.34837e-06 -1.51326e-06 -3.97661e-06 0.0005 1.46608e-07 
181 1 0.0240558 0.0199972 0.0167986 -0.00226353 0.00785113 0.00168526 -5.29651e-07 8.64361e-07 -1.08773e-07 0.0005 1.46608e-07 
182 1 0.018309 0.0155193 0.0157072 0.00671707 0.000924436 -0.000705424 -2.17801e-07 1.11878e-06 -4.23101e-07 0.0005 1.46608e-07 
183 1 0.019875 0.0184185 0.0167064 0.0048603 0.0125161 0.00186184 1.47411e-06 -4.69893e-07 -2.14377e-06 0.0005 1.46608e-07 
184 1 0.0172348 0.0240291 0.0131413 0.000873037 0.000828845 0.000929463 -1.04823e-06 4.37245e-07 2.64898e-06 0.0005 1.46608e-07 
185 1 0.0191696 0.0232464 0.0146669 -0.00170296 0.000474736 -0.00120865 5.48266e-07 -3.004e-07 -1.21407e-06 0.0005 1.46608e-07 
186 1 0.0204742 0.0238536 0.0133687 -0.00298487 0.00248565 0.0012652 6.56798e-06 -4.45104e-06 -8.56669e-08 0.0005 1.46608e-07 
187 1 0.028916 0.0152815 0.013421 0.000109349 0.0101855 0.0238464 -8.20709e-10 1.48552e-08 -4.85493e-09 0.0005 1.46608e-07 
189 1 0.03013 0.0158635 0.00859504 0.000210518 -0.0174109 0.0182567 9.11256e-10 7.76783e-09 1.46799e-08 0.0005 1.46608e-07 
191 1 0.0207172 0.0239676 0.0125334 -0.00594556 0.000851488 0.00286976 5.06329e-06 -4.47431e-06 8.11146e-06 0.0005 1.46608e-07 
192 1 0.0194544 0.0201107 0.0174053 0.00836058 0.0076574 0.000982027 -3.20064e-07 9.67563e-07 7.4449e-08 0.0005 1.46608e-07 
193 1 0.0292237 0.01489 0.0121823 0.000788939 0.00456839 0.0235619 2.21695e-08 6.18814e-09 1.25398e-08 0.0005 1.46608e-07 
194 1 0.023155 0.0211799 0.0165786 -0.0199508 -0.0125751 -0.0222261 0 0 -1.43822e-06 0.0005 1.46608e-07 
195 1 0.0217091 0.0226888 0.0177644 -0.0393755 0.0375894 -0.00979955 0 0 -1.43822e-06 0.0005 1.46608e-07 
197 1 0.0240798 0.0173954 0.0156211 0.00651953 0.0110406 0.00453625 -3.13223e-07 5.91831e-08 2.36289e-08 0.0005 1.46608e-07 
198 1 0.0224968 0.0192722 0.0169133 -0.0107884 0.0139239 -0.026712 -2.41862e-07 -2.02239e-06 -2.18233e-06 0.0005 1.46608e-07 
199 1 0.0240108 0.0226487 0.0158433 0.00104239 -6.36383e-05 -0.00138854 -3.01342e-05 -1.35538e-05 1.55602e-05 0.0005 1.46608e-07 
200 1 0.0228115 0.0184061 0.0165249 -3.3411e-05 0.00701551 -0.00316139 1.00945e-06 3.95763e-07 -9.72583e-08 0.0005 1.46608e-07 
201 1 0.0187013 0.0136946 0.0136834 -0.0011179 0.00128579 -0.00224067 3.23433e-07 3.57328e-07 -9.10251e-07 0.0005 1.46608e-07 
203 1 0.0164719 0.0237402 0.0137073 0.00220385 0.00181481 0.00139442 -6.50876e-08 1.41659e-06 6.89472e-06 0.0005 1.46608e-07 
204 1 0.0164835 0.0167759 0.0153322 0.00560752 0.00299292 0.00162933 1.93421e-07 -1.11191e-06 -4.86814e-07 0.0005 1.46608e-07 
205 1 0.0191618 0.0225662 0.0153994 -0.000334172 -0.000179304 -0.00057657 -3.48366e-06 -9.74318e-07 1.44304e-06 0.0005 1.46608e-07 
206 1 0.016264 0.0234963 0.0168019 -2.9255e-05 9.99889e-05 0.000141354 3.0224e-07 3.2727e-07 1.00091e-06 0.0005 1.46608e-07 
207 1 0.0231372 0.0167541 0.0153047 0.000691441 0.0050418 0.00239968 4.08869e-08 -9.61303e-08 -2.23746e-07 0.0005 1.46608e-07 
209 1 0.0164087 0.0211425 0.0154525 0.0053584 0.00410588 0.00274889 -5.9116e-06 1.53351e-06 -4.05671e-06 0.0005 1.46608e-07 
210 1 0.0224206 0.0234446 0.0171349 -0.00789679 -0.0120929 -0.0395998 -1.95259e-07 -3.22303e-07 -1.02149e-06 0.0005 1.46608e-07 
212 1 0.0170782 0.0186925 0.0167954 0.00654031 0.00688266 0.000851668 1.29318e-07 1.47051e-07 -1.53468e-06 0.0005 1.46608e-07 
213 1 0.0136249 0.0202573 0.016608 0.00231325 0.00200674 -0.000664287 5.59031e-07 -3.04534e-08 8.81255e-09 0.0005 1.46608e-07 
214 1 0.0210402 0.0145286 0.0165036 0.000902286 0.00140127 -0.00198827 -5.18768e-07 -3.71077e-07 8.70059e-07 0.0005 1.46608e-07 
216 1 0.014461 0.015128 0.015013 0.000505629 -0.00142037 0.00208212 -3.24789e-08 7.95355e-08 -5.48539e-08 0.0005 1.46608e-07 
217 1 0.0168206 0.0233747 0.0159802 0.00109824 0.00117777 0.000556302 -3.35603e-07 7.66251e-07 -1.97451e-07 0.0005 1.46608e-07 
218 1 0.0257764 0.0225631 0.00903945 0.00359512 -0.00904937 -0.00731134 4.80783e-07 -6.0681e-08 1.25624e-07 0.0005 1.46608e-07 
219 1 0.0196352 0.0170037 0.016343 0.00149212 0.00812006 0.00576596 -9.82277e-08 2.41179e-07 8.48094e-08 0.0005 1.46608e-07 
220 1 0.017565 0.0156666 0.0144 0.00278605 0.00190117 -0.000330428 -1.8494e-07 7.26754e-07 -1.67128e-07 0.0005 1.46608e-07 
221 1 0.0155266 0.0233546 0.0145313 0.00287562 0.00176687 -0.001784 1.67397e-07 2.46769e-07 7.819e-07 0.0005 1.46608e-07 
222 1 0.0211884 0.0169343 0.0163378 0.00755496 0.00803682 0.00373165 4.72039e-07 2.40401e-07 1.91729e-07 0.0005 1.46608e-07 
225 1 0.0204406 0.0234446 0.0144234 -0.000615371 0.00170497 -0.00281946 1.40994e-06 8.79955e-07 -1.95769e-06 0.0005 1.46608e-07 
227 1 0.0246598 0.0159774 0.0157852 -0.0035497 -0.00404096 -0.00134681 -5.74687e-07 5.7738e-07 -5.11275e-07 0.0005 1.46608e-07 
228 1 0.020147 0.0140321 0.0130484 0.000320237 0.000187307 -0.000452949 2.49358e-07 9.81403e-08 -4.98173e-08 0.0005 1.46608e-07 
229 1 0.0246649 0.0221678 0.0164195 0.000634745 -0.00145162 -0.00112905 -3.08729e-06 -3.03725e-06 2.42114e-06 0.0005 1.46608e-07 
230 1 0.0204661 0.0242196 0.016953 -0.027198 0.0104804 -0.00402311 -7.92012e-08 -3.55412e-07 -1.10062e-06 0.0005 1.46608e-07 
231 1 0.0233139 0.0214921 0.0152124 0.00142466 0.00725884 -0.00329299 3.06992e-10 1.5323e-07 -1.36058e-06 0.0005 1.46608e-07 
232 1 0.0177835 0.0189808 0.015946 0.00583833 0.01053 0.000996802 -2.92981e-07 7.08817e-07 -1.89261e-08 0.0005 1.46608e-07 
234 1 0.0218243 0.0197359 0.0158979 -0.000142363 0.0238312 -0.00352923 -4.30031e-08 -8.25089e-09 -4.83281e-10 0.0005 1.46608e-07 
235 1 0.0258502 0.0206487 0.0170053 0.00037469 -0.000215012 0.000848029 -1.16132e-07 1.12403e-07 -1.13131e-07 0.0005 1.46608e-07 
237 1 0.0229946 0.022337 0.0156414 -0.00428049 0.00423487 0.00112805 -8.549e-09 -1.7248e-07 -1.64363e-06 0.0005 1.46608e-07 
238 1 0.0162649 0.0176671 0.0157293 0.00525496 0.00290163 0.000770877 -9.2748e-07 -1.18114e-06 6.72345e-07 0.0005 1.46608e-07 
239 1 0.0162003 0.0191706 0.0167556 0.00379684 0.00414074 0.000226887 4.76999e-07 -2.70315e-06 2.45325e-07 0.0005 1.46608e-07 
240 1 0.0275301 0.0206539 0.0154872 0.00180508 0.0206209 -0.00747635 -6.49413e-07 -4.04011e-07 2.90886e-07 0.0005 1.46608e-07 
241 1 0.0246495 0.0190649 0.0167312 -0.00321859 0.0189903 0.000286332 1.48094e-07 4.12675e-07 -1.8211e-08 0.0005 1.46608e-07 
242 1 0.0180631 0.0230844 0.0162308 0.000708903 0.000195983 0.000595286 1.48826e-06 6.56724e-07 -1.8624e-07 0.0005 1.46608e-07 
244 1 0.0166244 0.0233516 0.0126778 0.00438924 0.000166242 -0.00627124 6.01278e-09 1.11235e-08 -7.76599e-08 0.0005 1.46608e-07 
245 1 0.0279895 0.0186249 0.0158021 0.00105748 0.0224341 0.0018053 -1.8859e-08 1.78873e-07 1.61636e-08 0.0005 1.46608e-07 
246 1 0.170075 0.0198241 0.00580831 -2.93086e-10 4.72409e-11 2.08226e-11 8.00844e-12 2.72885e-12 -6.38869e-13 0.0005 1.46608e-07 
247 1 0.0190436 0.0214587 0.0161746 0.00531301 0.00315396 -0.00145411 -6.14504e-07 -1.38555e-06 1.05136e-06 0.0005 1.46608e-07 
248 1 0.0258357 0.0196227 0.0167239 2.5881e-05 0.00120264 -5.12444e-05 -5.18736e-10 1.6783e-08 -1.41199e-06 0.0005 1.46608e-07 
249 1 0.0235603 0.02294 0.0150049 0.000205782 -0.000694542 -0.000712646 -3.62719e-07 -2.71996e-06 2.54265e-06 0.0005 1.46608e-07 
251 1 0.0229413 0.0234392 0.0143867 -0.00035292 0.000661645 -0.000321796 1.04576e-06 9.41383e-07 -3.01584e-06 0.0005 1.46608e-07 
252 1 0.0174999 0.0146207 0.0119531 0.00111112 0.000989824 -0.00369459 -1.73812e-07 6.20892e-07 -3.37738e-06 0.0005 1.46608e-07 
253 1 0.0224186 0.0223344 0.0169618 0.00221393 -0.0193945 -0.00158625 0 0 -1.43822e-06 0.0005 1.46608e-07 
254 1 0.0250224 0.0201986 0.0166412 -0.000358319 -0.000362128 0.000491143 4.99197e-06 -9.84433e-07 2.64004e-06 0.0005 1.46608e-07 
255 1 0.0160522 0.0204389 0.0166022 0.00523913 0.00289083 0.00207169 1.51561e-06 -1.27924e-06 1.86829e-06 0.0005 1.46608e-07 
256 1 0.0266172 0.023285 0.0125012 0.00046837 0.00529075 -0.0230008 -3.43904e-09 -1.34147e-08 -1.37235e-08 0.0005 1.46608e-07 
257 1 0.0189709 0.0145338 0.0152438 -0.000431247 0.000852274 -0.00297564 -4.63638e-07 -8.52527e-07 1.58693e-06 0.0005 1.46608e-07 
259 1 0.0185552 0.0155839 0.0142881 0.00206257 0.00247052 0.000360596 -9.94035e-07 1.58746e-07 8.26807e-07 0.0005 1.46608e-07 
261 1 0.0203648 0.0146158 0.0143396 -0.00113403 0.000553977 -0.000411948 6.08917e-07 4.36351e-07 -6.59375e-08 0.0005 1.46608e-07 
262 1 0.0195098 0.0142751 0.0137794 -0.000427487 0.00115559 -0.00218266 7.17619e-07 -3.48948e-07 5.66898e-07 0.0005 1.46608e-07 
263 1 0.0204445 0.0137021 0.0139416 -6.27136e-05 0.000142641 -9.81541e-05 -1.51979e-08 9.52692e-08 -3.11991e-08 0.0005 1.46608e-07 
264 1 0.0185539 0.0237484 0.0156668 0.000110989 0.000203738 -0.000395346 -1.70542e-06 2.03633e-06 2.92795e-07 0.0005 1.46608e-07 
266 1 0.0200009 0.0207911 0.00758229 0.000275798 -0.022442 -0.00958929 -2.31515e-09 -1.24319e-08 8.70721e-09 0.0005 1.46608e-07 
269 1 0.0223291 0.0173961 0.0156232 0.00303414 0.00790061 0.00313283 3.73579e-06 2.40925e-06 1.16367e-06 0.0005 1.46608e-07 
270 1 0.0152943 0.0227034 0.0155157 0.00208761 0.00232698 -0.000807442 2.65603e-07 6.49185e-07 -2.80017e-07 0.0005 1.46608e-07 
271 1 0.020679 0.0193324 0.0167818 0.0105501 0.0064475 0.000774504 -3.99392e-07 8.78082e-07 1.07403e-07 0.0005 1.46608e-07 
272 1 0.016451 0.0179225 0.0166781 0.00536077 0.00907329 -0.00104079 -1.29318e-07 -1.47051e-07 -1.34177e-06 0.0005 1.46608e-07 
273 1 0.0198268 0.0220226 0.0159112 0.00524378 0.00241711 -0.00301392 -7.60099e-08 4.35699e-07 1.03559e-06 0.0005 1.46608e-07 
274 1 0.0124133 0.0201242 0.0166332 0.000326375 0.00198699 0.000811461 -8.7425e-08 1.07191e-06 3.39614e-08 0.0005 1.46608e-07 
275 1 0.0241535 0.0159355 0.00853049 0.000942138 -0.0148132 0.0156819 -1.72359e-08 1.44621e-08 -3.37173e-09 0.0005 1.46608e-07 
276 1 0.024944 0.0216884 0.0159695 0.00219969 -0.00404062 -0.00311386 1.05689e-07 1.84371e-06 -7.65005e-07 0.0005 1.46608e-07 
277 1 0.0243093 0.0208847 0.0164132 0.00766481 0.00698082 0.000109466 0 0 -1.43822e-06 0.0005 1.46608e-07 
278 1 0.0220531 0.0232552 0.0161914 -0.00909346 -0.00290951 -0.0199892 -5.68755e-06 -1.99567e-05 1.84198e-05 0.0005 1.46608e-07 
279 1 0.0173815 0.0157053 0.0153832 0.00602471 0.00135083 0.00119735 -2.3156e-07 5.53267e-07 -3.90175e-07 0.0005 1.46608e-07 
280 1 0.0166832 0.0160017 0.0147319 0.00487419 0.00219414 0.00225326 1.0321e-07 -7.80018e-07 -1.10761e-06 0.0005 1.46608e-07 
282 1 0.0348586 0.0130208 0.0435188 9.74258e-317 -9.72051e-317 7.04906e-13 0 0 0 0.0005 1.46608e-07 
283 1 0.0178605 0.0142576 0.0136086 -0.00222256 -0.00208425 -0.00458598 1.70967e-06 2.66133e-07 7.58092e-07 0.0005 1.46608e-07 
286 1 0.0251774 0.0167175 0.0162143 -0.00334162 -0.000981077 -0.00507099 1.56265e-06 2.13462e-07 5.60776e-06 0.0005 1.46608e-07 
287 1 0.0220433 0.0150373 0.0149712 -0.00157679 0.000927198 -0.00179748 6.51375e-07 3.59598e-07 8.99854e-07 0.0005 1.46608e-07 
288 1 0.0164448 0.0155062 0.0156712 0.00308822 0.00131009 -0.00748081 3.37289e-07 -4.38002e-08 -9.58924e-07 0.0005 1.46608e-07 
289 1 0.00550493 0.0073559 0.0435188 -9.69406e-317 9.51793e-317 -1.91574e-12 0 0 0 0.0005 1.46608e-07 
290 1 0.0204101 0.0235429 0.011575 0.00334401 -0.00539248 -0.0269902 1.06425e-05 -2.51009e-06 5.29074e-06 0.0005 1.46608e-07 
291 1 0.0236397 0.0157705 0.0145076 0.00404945 0.00368841 0.00571422 -3.55046e-07 6.75767e-08 2.51337e-07 0.0005 1.46608e-07 
292 1 0.0147767 0.0219679 0.0159527 0.000819346 0.00182518 -0.00139417 -9.24159e-07 -5.7727e-07 -1.29594e-07 0.0005 1.46608e-07 
293 1 0.0212236 0.0235064 0.015391 -0.00228208 0.00135521 -0.00164043 -2.39188e-05 3.50124e-07 1.14002e-05 0.0005 1.46608e-07 
294 1 0.0143372 0.0209358 0.0164288 0.00190851 0.00340223 -0.000387723 -1.16765e-07 7.31863e-07 -2.33073e-08 0.0005 1.46608e-07 
295 1 0.0211344 0.0232019 0.0129658 -0.000644718 0.00412442 -0.0188275 -2.13481e-05 1.92348e-05 -4.77079e-06 0.0005 1.46608e-07 
296 1 0.0186684 0.0140821 0.016083 -0.00296262 0.0012656 -0.00450928 4.9715e-07 5.71088e-07 -1.0384e-06 0.0005 1.46608e-07 
297 1 0.0144781 0.023004 0.0150224 0.00279565 0.000269939 -0.00291916 -4.02157e-07 1.39282e-07 1.78032e-07 0.0005 1.46608e-07 