ITEM: TIMESTEP
3000000
ITEM: NUMBER OF ATOMS
323
ITEM: BOX BOUNDS ff ff ff
-0.02 0.43
-0.02 0.06
-0.02 0.1
ITEM: ATOMS id type x y z vx vy vz fx fy fz radius mass 
1 1 0.0232513 0.0164931 0.0151326 2.9233e-05 0.0197089 0.0152108 0 0 -1.43822e-06 0.0005 1.46608e-07 
2 1 0.0221916 0.0195487 0.0159239 0.00568121 0.00578792 0.00124072 6.98712e-06 -2.07225e-05 5.00204e-07 0.0005 1.46608e-07 
3 1 0.0170149 0.0141638 0.0135038 -0.000477236 -2.96394e-05 0.000382511 3.20367e-08 1.35944e-08 1.66462e-07 0.0005 1.46608e-07 
4 1 0.0190307 0.0195095 0.0175721 0.0138755 0.00688056 0.00250078 0 0 -1.43822e-06 0.0005 1.46608e-07 
5 1 0.0242053 0.0185792 0.017964 0.00660702 -0.112429 0.0102667 0 0 -1.43822e-06 0.0005 1.46608e-07 
6 1 0.0171645 0.0229941 0.0135703 0.000642558 -0.00497504 0.016352 -1.2302e-05 1.45274e-05 -2.43029e-05 0.0005 1.46608e-07 
7 1 0.0175185 0.0142478 0.0143635 -0.000986328 0.00016323 0.000709852 2.13387e-07 -1.09963e-08 2.26318e-07 0.0005 1.46608e-07 
8 1 0.0201477 0.0143244 0.0138473 -0.000753204 -0.00244898 0.00175801 -3.52733e-08 7.40399e-08 -4.53408e-07 0.0005 1.46608e-07 
9 1 0.0250915 0.0198321 0.0166913 -0.00757172 0.00125276 0.000324481 1.59084e-07 9.32239e-07 -1.30483e-07 0.0005 1.46608e-07 
10 1 0.0197889 0.0239351 0.0134691 -0.00104542 -1.70837e-05 0.00135254 2.83482e-05 -1.5815e-06 -9.31708e-07 0.0005 1.46608e-07 
12 1 0.0182099 0.0143745 0.015338 -0.000383174 0.00034672 0.000657176 8.13176e-08 -2.09481e-07 -9.65166e-08 0.0005 1.46608e-07 
13 1 0.0213941 0.0199749 0.016698 0.00997608 0.00995398 -0.00321702 9.16459e-07 -3.7577e-07 -1.01811e-06 0.0005 1.46608e-07 
14 1 0.0158874 0.0227291 0.015227 -0.00197428 0.00275582 -0.00429693 3.67969e-05 1.17857e-05 -1.95422e-05 0.0005 1.46608e-07 
15 1 0.0211296 0.0232317 0.0129584 0.00173879 0.000953924 -0.00540746 4.40302e-05 -1.24403e-05 3.59401e-05 0.0005 1.46608e-07 
16 1 0.0199492 0.0199051 0.0175496 0.0132962 0.00699236 0.00235021 -3.3035e-06 -2.02054e-07 4.88011e-07 0.0005 1.46608e-07 
17 1 0.0262858 0.0228221 0.00934043 0.0022072 -0.00275413 -0.0103841 -1.67339e-07 -3.34774e-08 1.425e-07 0.0005 1.46608e-07 
18 1 0.023597 0.0229578 0.0150241 -0.0083569 0.00944546 -0.00968251 -1.81505e-06 7.19423e-05 -3.72626e-06 0.0005 1.46608e-07 
19 1 0.0187144 0.0237705 0.015671 -0.000487332 0.000531831 0.00209376 9.20034e-07 -2.37116e-06 -1.78948e-06 0.0005 1.46608e-07 
20 1 0.0247523 0.0218496 0.01594 0.000497165 -0.0129941 0.00756837 -1.7559e-05 -1.34571e-05 -1.59285e-06 0.0005 1.46608e-07 
21 1 0.0227042 0.0172277 0.0155516 0.00219904 0.00490564 0.00239303 -4.03411e-08 -3.89562e-08 -1.22194e-09 0.0005 1.46608e-07 
22 1 0.0126416 0.0176513 0.0164213 -0.0154518 -0.0136045 -0.0241475 -3.14641e-07 2.17313e-08 -7.51943e-07 0.0005 1.46608e-07 
23 1 0.0181603 0.023502 0.0142835 -0.0235441 -0.00152498 -0.000828269 2.81704e-07 8.02402e-07 -1.20423e-06 0.0005 1.46608e-07 
24 1 0.01583 0.0150904 0.0172461 0.151602 0.0953046 -0.280743 7.55515e-07 9.72507e-07 4.53366e-07 0.0005 1.46608e-07 
25 1 0.0202924 0.0218652 0.0159658 0.00247146 -0.00514316 -0.00291562 -2.64908e-06 -1.95068e-06 -2.40635e-07 0.0005 1.46608e-07 
26 1 0.0171139 0.0157156 0.0144463 -0.00614101 -0.000446076 0.00240713 0 0 -1.43822e-06 0.0005 1.46608e-07 
27 1 0.0196856 0.0156377 0.0154882 -0.0137476 -0.0115156 -0.0147594 -1.22903e-07 -1.61761e-07 -6.41563e-08 0.0005 1.46608e-07 
28 1 0.0193092 0.0206846 0.0184218 -0.00967493 -0.000306363 0.00287669 9.60204e-08 -5.94586e-08 -1.08931e-06 0.0005 1.46608e-07 
29 1 0.0151878 0.0216389 0.0162848 0.00518867 0.0111862 -0.025673 -3.09681e-06 3.36554e-07 -1.07722e-06 0.0005 1.46608e-07 
30 1 0.0194469 0.0225788 0.0174245 0.000342799 -0.00486477 -0.00453549 9.68482e-07 2.90812e-08 -3.1194e-07 0.0005 1.46608e-07 
31 1 0.0190422 0.0205728 0.0174646 0.00227646 0.00418766 -0.00185149 3.99303e-07 1.30338e-06 7.89714e-07 0.0005 1.46608e-07 
32 1 0.018298 0.0147656 0.0127407 0.0047365 0.00101873 0.00317019 -1.56977e-06 -4.15809e-07 -1.16106e-07 0.0005 1.46608e-07 
33 1 0.0203999 0.0200782 0.016674 0.0049447 0.006379 -0.00110699 6.20896e-06 -2.21986e-06 1.30541e-06 0.0005 1.46608e-07 
34 1 0.0126672 0.0205704 0.0165497 0.00104869 0.00283251 2.67196e-05 -1.07043e-07 -1.1623e-07 6.70471e-08 0.0005 1.46608e-07 
35 1 0.0248664 0.0172911 0.00755469 0.000987707 -0.0160154 0.00576732 1.20475e-08 7.50471e-08 -3.95536e-08 0.0005 1.46608e-07 
36 1 0.0205561 0.0244569 0.0137232 -0.000440826 0.000682819 -0.00054724 1.01776e-05 6.48013e-06 -1.92881e-05 0.0005 1.46608e-07 
37 1 0.0194718 0.0142399 0.0145792 -0.00096272 -0.00265234 0.00141326 9.54596e-08 -3.34278e-08 -5.34016e-07 0.0005 1.46608e-07 
38 1 0.0132312 0.021336 0.0162328 0.00523003 0.00470488 -0.00425165 -2.81561e-07 4.45488e-06 3.60021e-06 0.0005 1.46608e-07 
39 1 0.0173252 0.0150501 0.0163336 0.000650863 0.00327783 -0.000565572 -6.12645e-09 5.79723e-08 -6.25322e-07 0.0005 1.46608e-07 
40 1 0.0265205 0.0216734 0.0081518 -0.000336638 -0.019419 -0.0154483 -2.71456e-07 -3.77687e-07 -2.12274e-07 0.0005 1.46608e-07 
41 1 0.0156271 0.023441 0.0143657 0.00150955 0.000828886 -0.00217419 3.00396e-06 6.95167e-07 1.136e-05 0.0005 1.46608e-07 
42 1 0.0239605 0.0186147 0.0159328 -0.000659291 0.0167315 0.00240414 4.03788e-08 4.17269e-07 7.86813e-08 0.0005 1.46608e-07 
43 1 0.0190554 0.0239308 0.0146481 0.00968741 0.00662836 -0.0315077 0 0 -1.43822e-06 0.0005 1.46608e-07 
44 1 0.0144625 0.0196558 0.0167356 0.00343288 0.00415258 0.000660359 2.54408e-07 1.38971e-06 -1.84929e-06 0.0005 1.46608e-07 
46 1 0.0181371 0.0154463 0.01457 -0.00180667 0.0135682 -0.0214813 0 0 -1.43822e-06 0.0005 1.46608e-07 
47 1 0.0201274 0.0212481 0.0185655 -7.83823e-05 -0.00417959 -0.00830796 0 0 -1.43822e-06 0.0005 1.46608e-07 
48 1 0.0217161 0.0156604 0.0155157 0.00498842 -0.0279301 -0.0193176 -5.08739e-08 -1.84051e-07 -4.94007e-07 0.0005 1.46608e-07 
49 1 0.0183645 0.0186966 0.0176585 0.0175422 -0.00847583 -0.00310713 3.29045e-06 1.58232e-06 2.1002e-06 0.0005 1.46608e-07 
50 1 0.0192748 0.0148449 0.0129497 -0.00186698 -0.00101213 0.00154968 3.82329e-08 -6.65607e-08 2.41497e-08 0.0005 1.46608e-07 
51 1 0.019996 0.019287 0.00716732 0.00213072 -0.0202231 -0.00246073 -6.07902e-09 9.68608e-09 1.27976e-09 0.0005 1.46608e-07 
52 1 0.0195335 0.0240717 0.0125583 0.000384014 -0.00160098 -0.000361757 5.18627e-06 -9.00123e-07 3.77541e-06 0.0005 1.46608e-07 
53 1 0.021899 0.0223658 0.0158164 -0.00113311 -4.44061e-06 -0.0038056 0 0 -1.43822e-06 0.0005 1.46608e-07 
54 1 0.0162782 0.0230982 0.0162166 -5.50849e-05 0.00505944 -0.000790952 -1.42782e-05 2.82475e-05 -3.44232e-05 0.0005 1.46608e-07 
55 1 0.0154612 0.0196363 0.0167834 0.00248303 0.00601132 0.0068097 0 0 -1.43822e-06 0.0005 1.46608e-07 
56 1 0.0185159 0.0171488 0.0155178 0.00168044 0.00741359 0.00440267 -3.88329e-08 -2.09939e-08 9.71788e-10 0.0005 1.46608e-07 
57 1 0.020771 0.0237011 0.013752 -0.000922381 0.00346667 -0.00535536 2.32423e-06 1.73627e-05 -2.09711e-05 0.0005 1.46608e-07 
58 1 0.0203 0.0239662 0.0145891 0.00417653 -0.00134831 0.00248136 5.42222e-06 -2.15467e-06 -1.12924e-06 0.0005 1.46608e-07 
59 1 0.0220256 0.0230451 0.0136992 0.00220479 0.00253224 0.00199876 6.08448e-05 -5.23085e-06 4.54886e-05 0.0005 1.46608e-07 
60 1 0.0188867 0.0197159 0.0193751 -0.113466 -0.0447092 -0.0516748 0 0 -1.43822e-06 0.0005 1.46608e-07 
61 1 0.022193 0.0204728 0.0163051 0.0155887 -0.00205162 0.00231108 -1.09094e-05 1.72546e-05 -7.54559e-06 0.0005 1.46608e-07 
62 1 0.0259997 0.0199752 0.0171372 -0.000396842 0.0012271 -0.000163051 7.65352e-08 7.26104e-07 -3.60705e-07 0.0005 1.46608e-07 
63 1 0.0237019 0.0209854 0.0196257 -0.0144898 -0.0395145 0.0918377 0 0 -1.43822e-06 0.0005 1.46608e-07 
64 1 0.0228081 0.0196595 0.0194506 0.0158509 -0.0372929 0.0203031 0 0 -1.43822e-06 0.0005 1.46608e-07 
65 1 0.0217779 0.0143471 0.0138475 0.000630567 -0.000300074 0.00151545 -1.62015e-07 -8.81131e-08 -2.38788e-07 0.0005 1.46608e-07 
66 1 0.0207028 0.024793 0.0186326 0.0127567 -0.00719777 -0.00623447 -3.85051e-07 -3.57512e-07 -1.10165e-06 0.0005 1.46608e-07 
67 1 0.0186384 0.0162863 0.0149918 -0.00176228 0.00272815 0.00428329 3.31028e-08 -2.0101e-07 -1.16867e-07 0.0005 1.46608e-07 
68 1 0.0222217 0.0227089 0.0185385 -0.032459 0.0114802 -0.0554211 0 0 -1.43822e-06 0.0005 1.46608e-07 
69 1 0.0132112 0.0197465 0.0167081 0.00204854 0.00387529 0.000592864 -5.14745e-07 -5.2723e-07 1.8962e-07 0.0005 1.46608e-07 
70 1 0.0248556 0.0187424 0.0167296 -0.00694014 0.0186654 0.00184001 4.35814e-07 5.35931e-07 -4.79105e-08 0.0005 1.46608e-07 
71 1 0.0177855 0.0222491 0.018286 -0.0175136 -0.030236 -0.0387088 0 0 -1.43822e-06 0.0005 1.46608e-07 
72 1 0.0177011 0.0146128 0.0119529 0.00605355 -0.000617372 0.000808843 -2.4781e-06 9.67802e-07 4.60502e-06 0.0005 1.46608e-07 
73 1 0.0251458 0.016653 0.0161642 -0.00508616 -0.00845392 -0.00273185 3.51128e-07 -2.54632e-07 1.08065e-06 0.0005 1.46608e-07 
74 1 0.0197307 0.023992 0.0159284 -0.00250877 -4.08451e-05 0.00159347 2.64724e-06 3.55332e-08 -7.89459e-07 0.0005 1.46608e-07 
75 1 0.0173252 0.0151462 0.0136501 0.00591636 -0.00273812 -0.000250311 1.05939e-07 -3.80595e-07 -5.36049e-07 0.0005 1.46608e-07 
76 1 0.0180354 0.0243897 0.0138079 0.000708824 3.27608e-05 -0.000276868 -5.04611e-06 4.44868e-06 8.55458e-07 0.0005 1.46608e-07 
78 1 0.0180647 0.0243724 0.0172472 0.000285877 0.000383069 0.00105301 -7.62493e-07 1.3042e-06 4.82024e-06 0.0005 1.46608e-07 
79 1 0.0257853 0.0180709 0.0166582 -0.000587822 -0.00616117 6.22102e-05 2.52309e-08 4.94225e-07 1.176e-07 0.0005 1.46608e-07 
80 1 0.0179717 0.0239829 0.0163294 0.00205378 -0.00120664 -0.00318795 1.0674e-07 -3.43103e-07 -5.91772e-07 0.0005 1.46608e-07 
84 1 0.0169213 0.0204723 0.0160249 0.0027952 0.0178768 -0.000836534 4.14422e-06 -1.46093e-05 1.61362e-05 0.0005 1.46608e-07 
85 1 0.0149933 0.022625 0.0188113 -0.0330873 -0.0133488 0.0201763 0 0 -1.43822e-06 0.0005 1.46608e-07 
87 1 0.0186496 0.0222642 0.0156675 0.00488372 0.00359987 -0.00903464 -1.50941e-07 1.5411e-06 -1.66729e-06 0.0005 1.46608e-07 
88 1 0.0205657 0.0152903 0.0151647 0.00177352 0.00637608 0.00841171 -1.5029e-08 2.53082e-07 2.58504e-07 0.0005 1.46608e-07 
89 1 0.0181388 0.0139643 0.0133171 0.000368215 0.000151505 0.000949663 3.96083e-07 -7.04672e-07 2.97144e-08 0.0005 1.46608e-07 
90 1 0.0226333 0.0145751 0.0143124 0.00144125 0.00114586 -0.000506697 -2.29112e-08 -9.98371e-08 2.07024e-07 0.0005 1.46608e-07 
91 1 0.0189491 0.0241862 0.0165551 -0.00113166 -0.00154135 -0.00337413 1.23643e-07 -5.67665e-07 -7.49433e-07 0.0005 1.46608e-07 
92 1 0.0197265 0.0231865 0.0148288 0.00533066 0.000477675 0.0135526 -1.20781e-05 -1.47607e-06 3.76058e-06 0.0005 1.46608e-07 
93 1 0.0231036 0.0157459 0.0144808 -0.0018358 0.0170964 0.0140342 5.51119e-06 -1.2188e-06 6.68454e-06 0.0005 1.46608e-07 
94 1 0.0198147 0.0244652 0.0169784 0.00313987 -0.00292112 -0.00775918 -8.17505e-07 4.81666e-08 -5.24405e-07 0.0005 1.46608e-07 
95 1 0.0212529 0.0212437 0.0177105 0.0192008 0.00763617 -0.0566303 0 0 -1.43822e-06 0.0005 1.46608e-07 
96 1 0.0184571 0.0240868 0.012956 0.00020835 -0.00168975 -0.00059734 -5.20792e-06 1.57365e-06 6.86208e-07 0.0005 1.46608e-07 
97 1 0.0173302 0.0184809 0.0159762 0.00278548 0.0174362 0.00447546 6.38392e-06 -1.00327e-05 -2.24889e-06 0.0005 1.46608e-07 
98 1 0.0209343 0.0202892 0.0175407 0.0266773 0.0222146 -0.00418695 0 0 -1.43822e-06 0.0005 1.46608e-07 
99 1 0.019005 0.0244523 0.0137 -0.000748241 0.000287489 -0.000689059 3.96668e-06 -4.78102e-07 1.28652e-06 0.0005 1.46608e-07 
100 1 0.0213014 0.0226942 0.0092201 -9.31104e-05 -0.00495088 -0.00846761 2.19052e-09 -2.60301e-08 -7.87155e-08 0.0005 1.46608e-07 
101 1 0.0193421 0.0197368 0.00723468 0.00120565 -0.0219609 -0.00441023 9.28474e-09 1.35834e-08 4.07654e-08 0.0005 1.46608e-07 
102 1 0.0221608 0.0238271 0.0148606 -0.00129232 -0.00460247 0.00362584 -7.67205e-05 -7.37471e-06 9.71396e-05 0.0005 1.46608e-07 
103 1 0.0212327 0.0213462 0.0204186 -0.0571414 -0.00336432 0.126343 0 0 -1.43822e-06 0.0005 1.46608e-07 
104 1 0.0243498 0.0156264 0.00885706 0.00162639 -0.0108685 0.0149974 2.18389e-08 6.94498e-08 -5.64947e-08 0.0005 1.46608e-07 
105 1 0.0209659 0.0141106 0.013314 -5.28488e-06 -0.00153624 0.00288572 -1.07267e-07 4.9877e-08 -2.18799e-07 0.0005 1.46608e-07 
106 1 0.0217398 0.0214099 0.0152569 0.00182987 0.00924992 -0.0112787 1.86625e-05 4.01535e-06 0.00013435 0.0005 1.46608e-07 
107 1 0.0238882 0.0205618 0.0156776 -0.000147549 0.0230843 -0.00773456 1.05209e-07 -6.50529e-08 -1.64107e-06 0.0005 1.46608e-07 
108 1 0.0226116 0.020953 0.0170877 0.00622464 0.000359499 -0.0154652 0 0 -1.43822e-06 0.0005 1.46608e-07 
109 1 0.0174249 0.0149939 0.0153402 0.00111258 0.00246393 -0.000585404 2.14824e-07 1.26458e-07 -4.51568e-07 0.0005 1.46608e-07 
111 1 0.0272267 0.0227884 0.0135287 -0.000268157 0.0141215 -0.021848 -1.78427e-09 -1.26277e-08 -8.48144e-09 0.0005 1.46608e-07 
112 1 0.0181088 0.0195436 0.0160184 0.0018513 0.019952 0.000583905 2.06235e-06 -4.78771e-06 1.07572e-05 0.0005 1.46608e-07 
113 1 0.0201382 0.0146757 0.0158274 0.00101788 0.00170378 0.00354974 1.41829e-07 1.02475e-07 1.58444e-07 0.0005 1.46608e-07 
114 1 0.0229143 0.0233377 0.0180419 -0.00115808 -0.0125175 -0.0254287 -3.34632e-07 -2.09897e-07 -1.04227e-06 0.0005 1.46608e-07 
115 1 0.0209448 0.0224812 0.0155246 -0.000397992 0.000110466 0.000900252 -9.45582e-07 3.69339e-06 -5.93782e-06 0.0005 1.46608e-07 
116 1 0.0203364 0.0231995 0.0158612 -0.00155185 -0.00049091 0.00121497 -3.42808e-07 1.63004e-06 -1.63914e-06 0.0005 1.46608e-07 
117 1 0.0144317 0.0217069 0.017163 0.00219252 -0.000452743 0.00266754 0 0 -1.43822e-06 0.0005 1.46608e-07 
118 1 0.0165335 0.0192411 0.0168853 0.00959678 0.00277956 0.00857026 0 0 -1.43822e-06 0.0005 1.46608e-07 
119 1 0.02005 0.021864 0.0177807 -0.00359182 -0.00545361 -0.00639307 -2.94071e-06 5.22646e-06 9.39493e-06 0.0005 1.46608e-07 
120 1 0.0152661 0.0147277 0.0145142 -0.00010369 0.000256277 -0.000388195 5.35149e-07 2.40004e-07 1.78985e-08 0.0005 1.46608e-07 
121 1 0.0267984 0.0184286 0.0237805 0.137498 -0.0354223 0.18353 0 0 -1.43822e-06 0.0005 1.46608e-07 
122 1 0.0171567 0.0174483 0.0165534 -0.000748604 0.00960811 0.00463956 6.26553e-09 3.27342e-07 2.60689e-07 0.0005 1.46608e-07 
123 1 0.0164036 0.0234961 0.0153076 -0.000461142 0.000451322 -0.000249732 8.95097e-06 7.41051e-06 -1.51264e-06 0.0005 1.46608e-07 
124 1 0.01512 0.0156591 0.0155416 8.00646e-05 -0.00114777 0.00195696 -9.13661e-08 1.94638e-07 1.03769e-08 0.0005 1.46608e-07 
125 1 0.0190852 0.0140766 0.01362 0.00140538 -0.000131772 0.00104651 -7.50811e-07 1.34338e-07 -2.80275e-07 0.0005 1.46608e-07 
126 1 0.0144806 0.0151234 0.01499 -0.000144597 -0.000652933 0.00157343 1.60208e-07 -2.70628e-08 -3.73897e-07 0.0005 1.46608e-07 
127 1 0.0178511 0.0227028 0.0152553 0.00287724 0.00309949 -0.00245087 1.57728e-06 -2.77908e-06 3.77199e-06 0.0005 1.46608e-07 
128 1 0.0207319 0.0191393 0.0167703 0.00547255 0.00576214 0.00297096 -1.08528e-07 3.84399e-07 -8.59539e-07 0.0005 1.46608e-07 
129 1 0.025797 0.0190795 0.0167417 -0.00034738 0.000749985 0.000785501 -1.42243e-07 6.93923e-07 1.113e-07 0.0005 1.46608e-07 
130 1 0.019886 0.0234704 0.0170506 -0.00334992 -0.00299296 -0.00881499 2.19735e-07 -5.743e-07 -1.31746e-06 0.0005 1.46608e-07 
131 1 0.0183702 0.0198971 0.0216668 0.125801 -0.0872355 0.173064 0 0 -1.43822e-06 0.0005 1.46608e-07 
132 1 0.0216869 0.023914 0.013581 0.00513638 -0.00199239 0.00142148 5.24957e-05 -5.37764e-05 0.000112698 0.0005 1.46608e-07 
133 1 0.0215033 0.023738 0.0168753 -0.0139831 0.000410057 -0.0156998 -1.65879e-08 -2.92928e-07 -1.21182e-06 0.0005 1.46608e-07 
134 1 0.0229441 0.02345 0.0144508 0.00757338 -0.00557952 0.000321156 -6.26499e-05 7.16541e-06 6.07073e-05 0.0005 1.46608e-07 
135 1 0.0183784 0.0212783 0.0171588 0.00615889 0.0106181 0.00385019 1.60373e-05 7.22692e-06 3.69988e-06 0.0005 1.46608e-07 
136 1 0.0253289 0.0215945 0.0167124 0.00672446 -0.00672309 0.00312583 -1.03213e-05 -2.75068e-05 2.55402e-05 0.0005 1.46608e-07 
137 1 0.0157648 0.0214164 0.0152586 0.00368242 0.00895165 -0.00509707 7.27504e-08 -1.01191e-05 3.59664e-06 0.0005 1.46608e-07 
138 1 0.0201935 0.0209615 0.0173753 0.00775066 -0.00277074 -0.00479849 -3.72345e-06 -2.7862e-06 -7.33906e-07 0.0005 1.46608e-07 
139 1 0.0169016 0.0205666 0.0175776 0.0215836 0.0264078 -0.0160958 0 0 -1.43822e-06 0.0005 1.46608e-07 
140 1 0.0173168 0.015951 0.0158998 -0.00429328 0.0047998 0.00261453 -1.53899e-07 -1.56931e-08 -1.12607e-07 0.0005 1.46608e-07 
141 1 0.0213019 0.0234055 0.0156532 -0.000825791 0.00022387 0.00045836 8.99303e-07 1.59515e-07 -4.75741e-06 0.0005 1.46608e-07 
142 1 0.0225018 0.0219317 0.0151435 -0.000260698 0.00833194 -0.00569813 3.85103e-05 0.000134106 0.000266419 0.0005 1.46608e-07 
143 1 0.022556 0.0229073 0.0151769 0.00279832 0.0097163 -0.00296308 4.20333e-05 -0.000129022 1.88537e-05 0.0005 1.46608e-07 
144 1 0.0236642 0.014746 0.0117225 0.000446269 0.000283789 0.0237363 4.51113e-09 -2.75853e-08 -1.38097e-07 0.0005 1.46608e-07 
145 1 0.017469 0.0240482 0.0130652 0.000974488 -0.00169321 0.00152717 -1.82372e-06 1.37817e-06 2.90244e-07 0.0005 1.46608e-07 
146 1 0.0231062 0.0178303 0.0187014 -0.0088265 -0.160117 0.0204884 0 0 -1.43822e-06 0.0005 1.46608e-07 
147 1 0.0232183 0.0202781 0.0177183 -0.00819231 -0.034377 0.00107593 0 0 -1.43822e-06 0.0005 1.46608e-07 
148 1 0.0184697 0.0226583 0.0176819 -0.00884968 -0.0114703 -0.0193723 0 0 -1.43822e-06 0.0005 1.46608e-07 
149 1 0.0188761 0.0223422 0.0166384 0.00164512 -0.00467043 -0.0060305 -2.12261e-06 -2.38094e-06 -8.46108e-07 0.0005 1.46608e-07 
150 1 0.0183025 0.0214787 0.0161796 0.000813193 0.00838339 -0.00302751 -4.48197e-07 5.18417e-06 -1.19741e-06 0.0005 1.46608e-07 
151 1 0.0163343 0.015873 0.0157262 -0.00100915 0.000616753 0.000576583 5.73898e-07 1.2828e-07 8.15832e-08 0.0005 1.46608e-07 
152 1 0.0230773 0.0190839 0.0159435 0.00247785 0.0180621 -0.000382349 -1.49714e-07 3.44801e-07 -3.825e-08 0.0005 1.46608e-07 
153 1 0.0236607 0.0215002 0.0152115 0.0072016 -0.00212758 0.00459197 -3.34835e-06 6.34087e-07 -1.97229e-06 0.0005 1.46608e-07 
154 1 0.0276593 0.0215157 0.015 0.00161521 0.0172733 -0.0133462 -2.65054e-07 5.5481e-07 -6.68455e-07 0.0005 1.46608e-07 
155 1 0.112691 0.0188173 0.00572472 -4.22254e-15 2.50373e-14 1.50107e-13 4.49325e-21 -2.32934e-21 2.11758e-22 0.0005 1.46608e-07 
156 1 0.022686 0.0230611 0.0170298 -0.00602419 -0.0164193 -0.0436439 1.62212e-06 1.1758e-06 -6.87935e-07 0.0005 1.46608e-07 
157 1 0.0216761 0.0186021 0.0177682 -0.010182 -0.0375708 0.00535189 0 0 -1.43822e-06 0.0005 1.46608e-07 
158 1 0.0209511 0.0222959 0.0177461 -0.00403753 0.00263902 -0.00433752 -5.19584e-06 1.14412e-05 5.70077e-06 0.0005 1.46608e-07 
159 1 0.0222983 0.0216086 0.0201329 -0.0509655 0.0027417 0.102114 0 0 -1.43822e-06 0.0005 1.46608e-07 
160 1 0.0203712 0.0181696 0.0166739 0.00791158 0.0104765 0.00311858 -3.45666e-07 4.80038e-07 5.36949e-08 0.0005 1.46608e-07 
161 1 0.0197485 0.0189516 0.0167496 0.00709999 0.0138853 0.00169056 -8.83658e-07 5.89478e-07 -1.49365e-07 0.0005 1.46608e-07 
162 1 0.023418 0.0225306 0.0176982 0.0132336 -0.0256802 -0.0171706 -4.28051e-07 -1.03533e-07 -1.15599e-06 0.0005 1.46608e-07 
163 1 0.0219718 0.0185012 0.00606129 2.97869e-14 -6.36081e-14 -2.30368e-13 -9.34383e-21 -3.83812e-20 5.29396e-21 0.0005 1.46608e-07 
164 1 0.0240925 0.0195971 0.0161102 0.002434 0.0255822 -0.0354428 0 0 -1.43822e-06 0.0005 1.46608e-07 
165 1 0.0188994 0.0174515 0.00750712 0.000269102 -0.0224427 0.00991767 -3.49976e-09 -6.61532e-09 1.5576e-08 0.0005 1.46608e-07 
166 1 0.0223736 0.0241761 0.0185448 0.00365957 -0.0142508 -0.0281982 1.07031e-06 4.10209e-06 4.71143e-06 0.0005 1.46608e-07 
167 1 0.0172707 0.0228949 0.0165363 -0.00144529 0.00236864 0.00423307 -1.51661e-06 -2.07122e-06 1.34056e-07 0.0005 1.46608e-07 
168 1 0.0215895 0.0186236 0.0167691 0.00500677 0.00349315 0.00159733 -7.75732e-07 8.94648e-07 1.17419e-06 0.0005 1.46608e-07 
169 1 0.0189045 0.0217852 0.0179045 -0.00360554 -0.00764104 -0.0079526 0 0 -1.43822e-06 0.0005 1.46608e-07 
170 1 0.0187554 0.0230336 0.0149963 0.00348774 0.00374968 0.00401452 -4.16445e-06 -4.04346e-06 5.70126e-06 0.0005 1.46608e-07 
172 1 0.0207135 0.0143947 0.0165955 -0.000883619 -0.00194993 0.00356253 -4.81522e-08 -1.15e-07 2.14862e-07 0.0005 1.46608e-07 
173 1 0.0198401 0.0208741 0.0164442 0.0022161 0.00456586 -0.00302515 -5.89012e-06 7.52419e-06 -3.66801e-06 0.0005 1.46608e-07 
174 1 0.0188932 0.0146135 0.0119518 0.00561033 -0.00162963 0.00338613 -7.62418e-07 -6.51086e-07 2.50845e-07 0.0005 1.46608e-07 
175 1 0.024161 0.0226447 0.0158407 -0.00749566 -0.000517775 -0.00200848 1.97371e-05 2.28851e-05 -1.19383e-06 0.0005 1.46608e-07 
177 1 0.0215895 0.0231429 0.0146637 -0.0100079 0.00208243 0.00338258 -0.000137502 3.06188e-05 0.000100483 0.0005 1.46608e-07 
178 1 0.0192874 0.0231339 0.016187 -9.15312e-05 -0.00168146 -0.00115456 -5.6925e-07 4.86378e-07 5.31538e-07 0.0005 1.46608e-07 
179 1 0.0207489 0.0227691 0.0186033 -0.0108041 -0.00547661 -0.00151328 2.3349e-07 -2.26097e-07 2.91881e-06 0.0005 1.46608e-07 
180 1 0.0241237 0.0150484 0.0098575 0.000769807 -0.00873844 0.0176333 1.22691e-08 6.24504e-08 -1.05855e-07 0.0005 1.46608e-07 
181 1 0.0202003 0.0208027 0.00762361 -0.000403115 -0.0222145 -0.009609 6.97307e-10 -1.50071e-08 3.69756e-09 0.0005 1.46608e-07 
182 1 0.0159549 0.0206522 0.0158583 0.00254539 0.0144514 0.00100817 -9.29225e-07 -1.81813e-05 1.05268e-05 0.0005 1.46608e-07 
183 1 0.0208563 0.0211379 0.0163649 0.0162809 -0.00780383 0.000606545 -2.97766e-07 1.05208e-06 -3.45476e-07 0.0005 1.46608e-07 
184 1 0.0166943 0.0238606 0.0136185 0.00234512 -0.000976829 0.00248386 -6.29173e-06 1.58395e-05 -4.12883e-06 0.0005 1.46608e-07 
185 1 0.0151278 0.0224633 0.0171448 0.0115633 -0.00385412 -0.0138818 0 0 -1.43822e-06 0.0005 1.46608e-07 
186 1 0.0233624 0.0180658 0.0170541 -0.0525359 0.010766 -0.0552408 0 0 -1.43822e-06 0.0005 1.46608e-07 
187 1 0.0264632 0.0231338 0.0100972 0.00138702 -0.00616003 -0.0185168 -3.29871e-06 -1.14061e-07 1.54835e-06 0.0005 1.46608e-07 
188 1 0.0204625 0.0231746 0.0102138 0.000632595 -0.00673601 -0.0202052 1.29118e-10 -1.13931e-08 9.29911e-10 0.0005 1.46608e-07 
189 1 0.0278729 0.0207766 0.0154641 0.00047445 0.0226516 -0.00897913 3.15982e-08 2.16306e-07 -1.32034e-07 0.0005 1.46608e-07 
191 1 0.0206987 0.0240438 0.0128049 0.00206044 0.00085559 -0.00147772 1.84578e-05 -2.94199e-06 1.71753e-05 0.0005 1.46608e-07 
192 1 0.0175657 0.0174393 0.015641 0.00308882 0.0169473 0.00635689 8.92548e-09 5.25772e-07 3.05892e-07 0.0005 1.46608e-07 
193 1 0.0268514 0.0233454 0.0120465 0.000907882 0.00235536 -0.0231952 -1.40376e-08 -5.56947e-09 -2.80545e-08 0.0005 1.46608e-07 
194 1 0.0229338 0.022975 0.0135812 0.00224422 0.000924904 -0.00217199 1.83858e-05 1.28487e-05 -5.55312e-05 0.0005 1.46608e-07 
195 1 0.0205415 0.0170562 0.016366 0.00505703 0.00368131 0.00298485 -1.2039e-07 2.8554e-08 2.7701e-08 0.0005 1.46608e-07 
196 1 0.0214293 0.0220363 0.0169075 0.0013408 0.00252984 -0.00191745 -5.81496e-07 2.55705e-06 1.47365e-05 0.0005 1.46608e-07 
197 1 0.020786 0.0242313 0.0173815 -0.000998051 -0.000202013 -0.000114913 -3.12651e-07 -4.13996e-07 -3.54327e-06 0.0005 1.46608e-07 
198 1 0.0184987 0.0140628 0.0144328 -0.00119079 -0.00118127 0.000830722 1.44702e-07 -9.0777e-08 2.11135e-08 0.0005 1.46608e-07 
199 1 0.0245058 0.0206467 0.0165671 -0.0034415 0.0025804 -0.0397161 0 0 -1.43822e-06 0.0005 1.46608e-07 
200 1 0.0160653 0.0144016 0.0140094 0.000483442 -0.00108898 0.00130321 2.64622e-07 -1.41698e-07 -7.92121e-08 0.0005 1.46608e-07 
201 1 0.0191309 0.0152746 0.0141663 0.0140531 0.015656 -0.00959395 0 0 -1.43822e-06 0.0005 1.46608e-07 
202 1 0.0152708 0.0228934 0.0136975 0.00445563 0.00185485 -0.00454615 1.80602e-06 -4.03619e-07 3.26495e-06 0.0005 1.46608e-07 
203 1 0.0163269 0.0240337 0.0145036 0.000874534 0.000435823 0.000262057 1.95796e-06 3.09343e-06 1.68269e-06 0.0005 1.46608e-07 
204 1 0.0224365 0.0220866 0.0170283 0.0141405 -0.0247018 -0.0737883 0 0 -1.43822e-06 0.0005 1.46608e-07 
205 1 0.0176272 0.0236538 0.0152068 -0.000538835 0.000352204 0.00200983 -6.04591e-06 -2.47979e-06 4.67819e-06 0.0005 1.46608e-07 
206 1 0.0217508 0.0228813 0.0173347 -0.000992251 0.0128005 -0.0252512 -2.96574e-06 1.95523e-06 -3.46061e-07 0.0005 1.46608e-07 
207 1 0.0240456 0.0159829 0.0147198 0.00589424 0.00623568 0.00456403 0 0 -1.43822e-06 0.0005 1.46608e-07 
208 1 0.0508517 0.0116702 0.0547296 0.289167 -0.00096115 -0.18716 0 0 -1.43822e-06 0.0005 1.46608e-07 
209 1 0.0165312 0.0246599 0.0192437 0.0134945 0.0043647 0.00347038 3.83782e-08 -3.52134e-07 -1.10168e-06 0.0005 1.46608e-07 
210 1 0.0221547 0.023842 0.0176283 -0.00265562 -0.0113609 -0.0307668 -1.07031e-06 -4.10209e-06 -7.58787e-06 0.0005 1.46608e-07 
212 1 0.0218479 0.0214096 0.0162512 0.00667879 0.00535825 -0.00267938 1.12901e-05 -1.23333e-05 -2.87801e-05 0.0005 1.46608e-07 
213 1 0.0172901 0.0241116 0.0143768 0.000787409 0.000411633 0.000613062 1.91999e-07 2.97751e-06 -1.66666e-06 0.0005 1.46608e-07 
214 1 0.0212967 0.02405 0.014449 -0.00169555 0.00130423 -0.0016515 -5.39044e-05 -2.25251e-05 9.7785e-05 0.0005 1.46608e-07 
216 1 0.020601 0.0239761 0.0164325 -0.000708197 -3.0086e-05 0.00101491 -1.63393e-06 1.26644e-06 5.14138e-07 0.0005 1.46608e-07 
217 1 0.0182474 0.0230352 0.0161621 -0.000691692 -0.00316171 -0.0081391 -6.71451e-07 -5.3855e-07 4.58321e-08 0.0005 1.46608e-07 
218 1 0.0232516 0.0152626 0.013618 -0.00129592 0.0115233 0.0268284 6.31673e-07 -7.78714e-07 -8.20952e-07 0.0005 1.46608e-07 
219 1 0.0178954 0.0233934 0.0171367 -0.00259475 0.000808928 0.00531904 2.55156e-08 5.58848e-07 2.63365e-06 0.0005 1.46608e-07 
220 1 0.0234797 0.0149144 0.0126628 0.000371822 0.00514058 0.0197941 -1.68225e-08 -5.20136e-08 -3.46518e-07 0.0005 1.46608e-07 
221 1 0.0142299 0.0229694 0.0156556 -0.000161833 0.00257726 0.000353894 1.41547e-06 1.02037e-06 -1.80796e-06 0.0005 1.46608e-07 
222 1 0.0190484 0.018057 0.0166449 -2.41129e-05 0.00733151 0.00103027 -3.04556e-08 4.04298e-07 9.65875e-08 0.0005 1.46608e-07 
223 1 0.0222935 0.0209998 0.0185488 -0.0191038 -0.0267213 0.053496 0 0 -1.43822e-06 0.0005 1.46608e-07 
224 1 0.0220991 0.0232508 0.0162368 0.00100162 -0.000798868 -0.000501166 -3.6698e-07 -3.28985e-07 -1.11909e-06 0.0005 1.46608e-07 
225 1 0.0171289 0.024062 0.0169834 0.00116742 0.00061872 0.00134239 -5.22672e-07 2.76655e-07 6.91889e-07 0.0005 1.46608e-07 
226 1 0.01979 0.0215419 0.00798711 0.00272942 -0.0157789 -0.00987683 -2.90691e-08 -7.71983e-08 -3.62978e-08 0.0005 1.46608e-07 
227 1 0.025097 0.0183374 0.018464 0.000637248 -0.0735782 0.00238547 0 0 -1.43822e-06 0.0005 1.46608e-07 
228 1 0.0195309 0.0141529 0.0164255 -0.000939792 -0.000223632 -0.000113852 -1.41373e-07 7.8073e-08 -1.58359e-07 0.0005 1.46608e-07 
229 1 0.0198266 0.0140109 0.0129522 0.000385695 0.000332321 -0.000413437 2.84054e-07 4.79181e-07 1.33e-08 0.0005 1.46608e-07 
230 1 0.021479 0.0222427 0.0145589 -0.00512971 0.0119763 -0.0113873 -4.26178e-06 -3.00977e-05 3.66911e-05 0.0005 1.46608e-07 
231 1 0.0197466 0.0233125 0.0180353 -0.00453287 -0.00466967 -0.0042211 0 0 -1.43822e-06 0.0005 1.46608e-07 
232 1 0.0227931 0.0210305 0.0154924 0.00513166 -0.000815244 -0.00175574 -1.43e-07 1.12834e-06 -4.34008e-07 0.0005 1.46608e-07 
233 1 0.0223621 0.022468 0.0143353 -0.00836077 0.00599425 -0.00313981 3.98003e-05 -5.13973e-05 -1.81306e-05 0.0005 1.46608e-07 
234 1 0.0249642 0.0173241 0.0168828 -0.0179024 0.00610033 -0.0192062 -3.77795e-07 3.94186e-07 9.05284e-07 0.0005 1.46608e-07 
235 1 0.0256323 0.0206617 0.0165074 -0.00058999 0.00222588 -0.00295805 2.91367e-08 1.02514e-06 -2.24247e-07 0.0005 1.46608e-07 
236 1 0.0210654 0.0228464 0.0164476 -0.00293451 0.000316695 -5.98327e-05 1.99937e-06 -5.35618e-06 2.28553e-06 0.0005 1.46608e-07 
237 1 0.0170466 0.0237343 0.0160424 -0.000455889 0.000625043 0.00141632 -1.30576e-06 -5.65958e-07 8.97862e-07 0.0005 1.46608e-07 
238 1 0.0239362 0.0214809 0.0173914 0.00133531 -0.0130923 -0.0068037 0 0 -1.43822e-06 0.0005 1.46608e-07 
239 1 0.0185701 0.014002 0.0161932 -0.0013033 -0.000743327 0.000826662 -5.80396e-08 4.15655e-09 -1.40609e-07 0.0005 1.46608e-07 
240 1 0.0247515 0.0165377 0.0151621 0.00432402 0.00744129 0.00320206 -3.79339e-07 -6.18337e-07 2.45858e-06 0.0005 1.46608e-07 
241 1 0.0196286 0.0224528 0.0155024 0.0099521 4.29366e-05 -0.00958388 0 0 -1.43822e-06 0.0005 1.46608e-07 
242 1 0.0203708 0.0221937 0.00857508 -2.71163e-05 -0.00666498 -0.00922746 1.50913e-09 1.1059e-08 -1.10529e-08 0.0005 1.46608e-07 
244 1 0.0148098 0.0231456 0.0148603 0.00177051 0.00202245 0.00195324 2.5405e-06 2.50959e-06 1.08813e-06 0.0005 1.46608e-07 
245 1 0.0260338 0.0222014 0.0086771 0.000380275 -0.0138728 -0.0155769 -1.04214e-07 1.15916e-09 -1.62151e-07 0.0005 1.46608e-07 
246 1 0.0212466 0.0228243 0.0138047 0.00180109 0.00635963 -0.00694721 1.71293e-05 -1.83211e-05 3.97085e-05 0.0005 1.46608e-07 
247 1 0.0167303 0.0212233 0.0153874 0.00380483 0.0114868 -0.00525113 -2.30341e-06 -5.81545e-06 1.71403e-06 0.0005 1.46608e-07 
248 1 0.0188928 0.0233389 0.0170835 -0.00204905 -0.00381139 -0.00623011 0 0 -1.43822e-06 0.0005 1.46608e-07 
249 1 0.0190564 0.0183304 0.00725053 0.0003767 -0.0243262 0.00384973 -3.44058e-09 -9.15092e-09 1.45844e-08 0.0005 1.46608e-07 
250 1 0.0221443 0.0200786 0.0173524 0.0104088 -0.0461661 0.00395244 0 0 -1.43822e-06 0.0005 1.46608e-07 
251 1 0.0232482 0.0221921 0.0146182 -0.0125659 0.0253686 -0.0220793 -5.65177e-05 0.000117388 -1.01244e-05 0.0005 1.46608e-07 
252 1 0.0206077 0.0196094 0.0187171 -0.0568009 -0.020032 -0.0561924 0 0 -1.43822e-06 0.0005 1.46608e-07 
253 1 0.0220768 0.0232737 0.0128943 0.00150679 -2.80171e-05 0.000898311 1.45285e-05 1.14746e-06 4.04691e-05 0.0005 1.46608e-07 
254 1 0.016277 0.0219583 0.0159248 0.00117613 0.000534992 0.00385792 -5.55342e-06 -2.12707e-06 4.77498e-06 0.0005 1.46608e-07 
255 1 0.0185535 0.0237978 0.0179068 -0.0029246 -0.00472187 -0.000955158 0 0 -1.43822e-06 0.0005 1.46608e-07 
256 1 0.0230216 0.0201062 0.0158821 0.00134717 0.00949224 -0.018347 5.17567e-06 2.81718e-07 7.61297e-07 0.0005 1.46608e-07 
257 1 0.0232468 0.0163842 0.0161371 -0.0116962 -0.0240452 0.0162656 0 0 -1.43822e-06 0.0005 1.46608e-07 