LIGGGHTS (Version LIGGGHTS-PUBLIC 3.8.0, compiled 2026-05-30-04:17:57 by root, git commit 3d5c00f20519e6bb6eb6756f51f1ad36564e649d)
###################################Header for General commands#######################################################

atom_style	granular		#Simulation of particles

boundary	f f f			#fixed boundaries -> particles will be deleted if leaving the simulation box

units		si

communicate	multi vel yes		#default

newton		off			#default


###################################System variables##################################################################

#Definition of boundaries

variable xmin equal -0.02
variable xmax equal 0.43

variable ymin equal -0.02
variable ymax equal 0.06

variable zmin equal -0.02
variable zmax equal 0.07

#Definition of the timestep

variable dt equal 1e-6



###################################Specific variables for current simulation#########################################

variable natoms equal 2 				#1 -> particle #2 ->pipe and screw

####variable for material properties####

####Young Modulus####
variable	youngmodulus1	equal 	7e6
variable	youngmodulus2	equal 	2e8

####Poission ratio####
variable 	poission1	equal	0.30
variable 	poission2	equal	0.29

####variable for contact properties####

####coefficient of restitution####
variable	CoR11	equal	0.4
variable	CoR12	equal	0.5
variable	CoR21	equal	0.5
variable	CoR22	equal	0.45

####sliding friction coefficient####
variable	sf11	equal	0.65	#Particle-particle sliding friction coefficient
variable	sf12	equal	0.5
variable	sf21	equal	0.5
variable	sf22	equal	0.0


####rolling friction coefficient####
variable	rf11	equal	0.75	#Particle-particle rolling friction coefficient
variable	rf12	equal	0.6
variable	rf21	equal	0.6
variable	rf22	equal	0.0


####variable for particle####

#Number of particle radius
variable	nradii	equal	3

variable	radius1	equal	0.00005	#m
variable	radius2	equal	0.00005	#m
variable	radius3	equal	0.00005	#m

variable	frac1	equal	0.3945
variable	frac2	equal	0.4059
variable	frac3	equal	0.1996

variable	density	equal	280		#kg/m³


####filling parameters####

variable	filltime	equal	2.0		#s, prueba rápida: alimentar 2 s

variable	dischargetime	equal	80		#s, tiempo para que puedan salir partículas

variable	fillmass	equal	4.4e-8 		#kg, 2 g de material

variable	fillmassrate	equal	${fillmass}/${filltime}	#kg/s
variable	fillmassrate	equal	4.4e-08/${filltime}	
variable	fillmassrate	equal	4.4e-08/2	

variable	fillsteps	equal	${filltime}/${dt}
variable	fillsteps	equal	2/${dt}
variable	fillsteps	equal	2/1e-06

variable	dischargesteps	equal	${dischargetime}/${dt}
variable	dischargesteps	equal	80/${dt}
variable	dischargesteps	equal	80/1e-06



####screw velocities####

variable	screwPeriod	equal	1.029		#s, prueba rápida: 2 vueltas/s



###################################Definition of simulationbox#######################################################

region		reg block ${xmin} ${xmax} ${ymin} ${ymax} ${zmin} ${zmax} units box
region		reg block -0.02 ${xmax} ${ymin} ${ymax} ${zmin} ${zmax} units box
region		reg block -0.02 0.43 ${ymin} ${ymax} ${zmin} ${zmax} units box
region		reg block -0.02 0.43 -0.02 ${ymax} ${zmin} ${zmax} units box
region		reg block -0.02 0.43 -0.02 0.06 ${zmin} ${zmax} units box
region		reg block -0.02 0.43 -0.02 0.06 -0.02 ${zmax} units box
region		reg block -0.02 0.43 -0.02 0.06 -0.02 0.07 units box

processors 6 1 1

create_box	2 reg
Created orthogonal box = (-0.02 -0.02 -0.02) to (0.43 0.06 0.07)
  6 by 1 by 1 MPI processor grid


neighbor	0.0001 bin

neigh_modify	delay 0


#################################Definition of the contact models####################################################

pair_style gran model hertz tangential history rolling_friction epsd2

pair_coeff	* *

timestep ${dt}
timestep 1e-06

thermo 10000

fix		integrator all nve/sphere

fix		gravi all gravity 9.81 vector 0.0 0.0 -1.0


###################################Definition of Material properties#################################################

fix 		m1 all property/global youngsModulus peratomtype ${youngmodulus1} ${youngmodulus2}
fix 		m1 all property/global youngsModulus peratomtype 7000000 ${youngmodulus2}
fix 		m1 all property/global youngsModulus peratomtype 7000000 200000000

fix 		m2 all property/global poissonsRatio peratomtype ${poission1} ${poission2}
fix 		m2 all property/global poissonsRatio peratomtype 0.3 ${poission2}
fix 		m2 all property/global poissonsRatio peratomtype 0.3 0.29

fix 		m3 all property/global coefficientRestitution peratomtypepair ${natoms} ${CoR11} ${CoR12} ${CoR21} ${CoR22}
fix 		m3 all property/global coefficientRestitution peratomtypepair 2 ${CoR11} ${CoR12} ${CoR21} ${CoR22}
fix 		m3 all property/global coefficientRestitution peratomtypepair 2 0.4 ${CoR12} ${CoR21} ${CoR22}
fix 		m3 all property/global coefficientRestitution peratomtypepair 2 0.4 0.5 ${CoR21} ${CoR22}
fix 		m3 all property/global coefficientRestitution peratomtypepair 2 0.4 0.5 0.5 ${CoR22}
fix 		m3 all property/global coefficientRestitution peratomtypepair 2 0.4 0.5 0.5 0.45

fix 		m4 all property/global coefficientFriction peratomtypepair ${natoms} ${sf11} ${sf12} ${sf21} ${sf22}
fix 		m4 all property/global coefficientFriction peratomtypepair 2 ${sf11} ${sf12} ${sf21} ${sf22}
fix 		m4 all property/global coefficientFriction peratomtypepair 2 0.65 ${sf12} ${sf21} ${sf22}
fix 		m4 all property/global coefficientFriction peratomtypepair 2 0.65 0.5 ${sf21} ${sf22}
fix 		m4 all property/global coefficientFriction peratomtypepair 2 0.65 0.5 0.5 ${sf22}
fix 		m4 all property/global coefficientFriction peratomtypepair 2 0.65 0.5 0.5 0

fix 		m5 all property/global coefficientRollingFriction peratomtypepair ${natoms} ${rf11} ${rf12} ${rf21} ${rf22}
fix 		m5 all property/global coefficientRollingFriction peratomtypepair 2 ${rf11} ${rf12} ${rf21} ${rf22}
fix 		m5 all property/global coefficientRollingFriction peratomtypepair 2 0.75 ${rf12} ${rf21} ${rf22}
fix 		m5 all property/global coefficientRollingFriction peratomtypepair 2 0.75 0.6 ${rf21} ${rf22}
fix 		m5 all property/global coefficientRollingFriction peratomtypepair 2 0.75 0.6 0.6 ${rf22}
fix 		m5 all property/global coefficientRollingFriction peratomtypepair 2 0.75 0.6 0.6 0



###################################Generation and Loading of the Geometry .stl#######################################
fix case all mesh/surface file case_remesh.stl type 2 heal auto_remove_duplicates scale 1.0 curvature 1e-5 curvature_tolerant yes

fix screw all mesh/surface file screw_simplified.stl type 2 scale 1.0 curvature 1e-5 curvature_tolerant yes

fix 		walls 		all wall/gran model hertz tangential history rolling_friction epsd2 mesh n_meshes 2 meshes case screw

fix		Movescrew	all move/mesh mesh screw rotate origin 0.2024435 0.019051 0.011497 axis -1. 0. 0. period ${screwPeriod}
fix		Movescrew	all move/mesh mesh screw rotate origin 0.2024435 0.019051 0.011497 axis -1. 0. 0. period 1.029

fix feed all mesh/surface file feed.stl type 2 scale 1.0 curvature 1e-5 curvature_tolerant yes

fix outlet all mesh/surface file salida_centered.stl type 2 scale 1.0 curvature 1e-5 curvature_tolerant yes


###################################Generation and Insertion of the particles#########################################

fix pts1 all particletemplate/sphere 10487 atom_type 1 density constant ${density} radius constant ${radius1} volume_limit 1e-18
fix pts1 all particletemplate/sphere 10487 atom_type 1 density constant 280 radius constant ${radius1} volume_limit 1e-18
fix pts1 all particletemplate/sphere 10487 atom_type 1 density constant 280 radius constant 5e-05 volume_limit 1e-18

fix pts2 all particletemplate/sphere 11887 atom_type 1 density constant ${density} radius constant ${radius2} volume_limit 1e-18
fix pts2 all particletemplate/sphere 11887 atom_type 1 density constant 280 radius constant ${radius2} volume_limit 1e-18
fix pts2 all particletemplate/sphere 11887 atom_type 1 density constant 280 radius constant 5e-05 volume_limit 1e-18

fix pts3 all particletemplate/sphere 16561 atom_type 1 density constant ${density} radius constant ${radius3} volume_limit 1e-18
fix pts3 all particletemplate/sphere 16561 atom_type 1 density constant 280 radius constant ${radius3} volume_limit 1e-18
fix pts3 all particletemplate/sphere 16561 atom_type 1 density constant 280 radius constant 5e-05 volume_limit 1e-18

fix 		pdd1 all particledistribution/discrete 32452867 ${nradii} pts1 ${frac1} pts2 ${frac2} pts3 ${frac3}
fix 		pdd1 all particledistribution/discrete 32452867 3 pts1 ${frac1} pts2 ${frac2} pts3 ${frac3}
fix 		pdd1 all particledistribution/discrete 32452867 3 pts1 0.3945 pts2 ${frac2} pts3 ${frac3}
fix 		pdd1 all particledistribution/discrete 32452867 3 pts1 0.3945 pts2 0.4059 pts3 ${frac3}
fix 		pdd1 all particledistribution/discrete 32452867 3 pts1 0.3945 pts2 0.4059 pts3 0.1996

fix		ins_mesh all mesh/surface/planar file feed.stl type 1 scale 1.0

fix 		ins all insert/stream seed 15485863 distributiontemplate pdd1         	mass ${fillmass} massrate ${fillmassrate} overlapcheck yes all_in yes vel constant 0 0 -0.03         	insertion_face ins_mesh extrude_length 0.015
fix 		ins all insert/stream seed 15485863 distributiontemplate pdd1         	mass 4.4e-08 massrate ${fillmassrate} overlapcheck yes all_in yes vel constant 0 0 -0.03         	insertion_face ins_mesh extrude_length 0.015
fix 		ins all insert/stream seed 15485863 distributiontemplate pdd1         	mass 4.4e-08 massrate 2.2e-08 overlapcheck yes all_in yes vel constant 0 0 -0.03         	insertion_face ins_mesh extrude_length 0.015


################################### Particle Residence Time Track#########################################

fix 	rt_outlet	all massflow/mesh mesh outlet vec_side 0 0 -1 file rt_outlet.txt writeTime

fix 	rt_inlet	all massflow/mesh mesh feed vec_side 0 0 -1 file rt_inlet.txt writeTime


###################################Outlet mass flow track#########################################

fix	mfout	all massflow/mesh mesh outlet vec_side 0 0 -1

fix	mfin	all massflow/mesh mesh feed vec_side 0 0 -1


variable 	time equal step*dt

variable 	in_mass_flow equal	f_mfin[3]

variable 	out_mass_flow equal	f_mfout[3]

fix mass_flow_rate all print 5000 "${time},${in_mass_flow},${out_mass_flow}" screen no title "t,in_mass_flow,out_mass_flow" file massflow.csv

###################################Dumping of the data for post-processing to visualize############################

#fix ts_check all check/timestep/gran 1000 0.1 0.1

shell 	mkdir -p post

variable dumptime equal 0.2		#guarda cada 0.05 s

variable dumpstep equal ${dumptime}/${dt}
variable dumpstep equal 0.2/${dt}
variable dumpstep equal 0.2/1e-06

dump	dmpparticle all custom ${dumpstep} post/particles_*.liggghts id type x y z vx vy vz fx fy fz radius mass
dump	dmpparticle all custom 200000 post/particles_*.liggghts id type x y z vx vy vz fx fy fz radius mass

dump_modify	dmpparticle sort id

dump	dmpscrew	all	mesh/stl ${dumpstep} post/screw_*.stl screw
dump	dmpscrew	all	mesh/stl 200000 post/screw_*.stl screw


####################################RUN the simulation filling and discharge###########################################################

run	${fillsteps}
run	2000000
Setting up run at Mon Jun  8 16:14:39 2026

WARNING: Fix mesh: Mesh contains highly skewed element, moving mesh (if used) will not parallelize well (../surface_mesh_I.h:657)
WARNING: Fix mesh: Mesh contains highly skewed element, moving mesh (if used) will not parallelize well (../surface_mesh_I.h:657)
INFO: Particle insertion ins: 75.030187 particles every 500000 steps - particle rate 150.060375, (mass rate 2.200000e-08)
      300 particles (mass 4.398230e-08) within 1500000 steps
Memory usage per processor = 2133.46 Mbytes
    Step    Atoms         KinEng            CPU 
       0        0              0              0 
INFO: Particle insertion ins: inserted 75 particle templates (mass 1.099557e-08) at step 1
 - a total of 75 particle templates (mass 1.099557e-08) inserted so far.
   10000       75  5.6353356e-12      25.730141 
   20000       75  7.9860233e-12      64.912864 
   30000       75  1.4215563e-11      116.38325 
   40000       75  1.4359756e-11      160.09319 
   50000       75  1.2742486e-11      207.69025 
   60000       75  1.4718157e-11      259.17764 
   70000       75  1.9426177e-11      314.57905 
   80000       75  2.0803745e-11      365.46368 
   90000       75  2.1639618e-11      428.69325 
  100000       75   1.045928e-11      476.38117 
  110000       75   1.391376e-11      517.59222 
  120000       75  2.6677825e-11      571.12517 
  130000       75   2.130756e-11      625.97398 
  140000       75  1.9966219e-11      671.08544 
  150000       75  2.5440214e-11      725.25672 
  160000       75  3.6949144e-11      786.54814 
  170000       75  2.9768012e-11       849.1051 
  180000       75  2.2510335e-11       903.2305 
  190000       75  1.8743854e-11      953.45868 
  200000       75  2.4470559e-11      1001.1823 
  210000       75   2.382884e-11      1049.4603 
  220000       75  2.6808344e-11      1100.3196 
  230000       75  3.7532385e-11      1164.1208 
  240000       75  1.5134554e-11      1219.4807 
  250000       75  1.4407565e-11      1267.0793 
  260000       75  1.6439966e-11      1310.7994 
  270000       75  2.0179143e-11      1359.0618 
  280000       75   1.983512e-11      1407.9793 
  290000       75  2.7315819e-11       1454.314 
  300000       75  3.0615189e-11      1507.7561 
  310000       74  3.0985658e-11      1645.9789 
  320000       74  2.8576794e-11      1703.9927 
  330000       74  2.6445128e-11      1756.8356 
  340000       74  3.3847143e-11        1806.46 
  350000       74   3.472773e-11      1860.6349 
  360000       74  1.7589139e-11      1910.2806 
  370000       74   1.629794e-11       1954.089 
  380000       74  3.0465634e-11      2002.4489 
  390000       74  2.1059414e-11      2057.2927 
  400000       74  1.9959779e-11      2106.3772 
  410000       73  1.6932035e-11      2319.3276 
  420000       73  2.0914969e-11      2370.2352 
  430000       73   1.160148e-11      2422.4161 
  440000       73   1.881325e-11      2468.7445 
  450000       73  3.3272932e-11      2520.8949 
  460000       73  3.3640831e-11      2582.7545 
  470000       73  3.3060376e-11       2642.681 
  480000       73  2.5188823e-11      2698.7197 
  490000       73  2.2085846e-11      2748.9199 
  500000       73  1.5829086e-11      2808.1671 
INFO: Particle insertion ins: inserted 75 particle templates (mass 1.099557e-08) at step 500001
 - a total of 150 particle templates (mass 2.199115e-08) inserted so far.
  510000      147  4.2301727e-11      3276.0285 
  520000      147  3.2451931e-11      3332.6999 
  530000      147  3.5703886e-11      3379.0214 
  540000      147  3.3460922e-11      3429.2273 
  550000      146   3.768548e-11      3670.8331 
  560000      146  3.7367342e-11      3734.6166 
  570000      146  3.4414706e-11      3793.2351 
  580000      146  2.6445319e-11      3844.1009 
  590000      146  2.5672747e-11      3888.5324 
  600000      146  2.8306237e-11      3939.5466 
  610000      146  2.5218552e-11      3987.2544 
  620000      146  2.2371442e-11      4037.5538 
  630000      146  2.0283948e-11      4085.2569 
  640000      146  1.8479867e-11      4132.3234 
  650000      146  1.6701337e-11       4178.097 
  660000      146  1.7074812e-11      4224.5093 
  670000      146  2.3728655e-11      4269.6152 
  680000      146  3.0633301e-11      4317.9395 
  690000      146  2.7307945e-11       4371.431 
  700000      146  2.0429628e-11      4423.6262 
  710000      146  2.5717474e-11      4471.2846 
  720000      146  3.0998079e-11      4522.8035 
  730000      146  2.4195831e-11      4575.6241 
  740000      146  2.8279978e-11      4638.1545 
  750000      146  1.2686255e-10      5000.2502 
  760000      146  5.7234161e-11      5151.3582 
  770000      146   5.184593e-11      5242.3242 
  780000      145  5.8305508e-11      5505.3322 
  790000      145  5.4576508e-11       5595.013 
  800000      145  5.0692816e-11      5688.0363 
  810000      145  5.2143899e-11        5782.27 
  820000      145  4.4750278e-11      5870.6817 
  830000      145  4.8417443e-11      5950.0369 
  840000      145  3.1323832e-11      6019.0821 
  850000      145  2.3432185e-11       6075.834 
  860000      145  2.5997269e-11      6126.1975 
  870000      145  3.1427942e-11      6178.8251 
  880000      145  2.8435457e-11      6234.8057 
  890000      145  2.6954789e-11      6290.1218 
  900000      145  1.8721255e-11       6344.782 
  910000      145  2.4520515e-11      6392.7478 
  920000      145  3.2780146e-11      6450.0892 
  930000      145  2.7017427e-11      6505.4238 
  940000      144  1.9843738e-11      6718.4775 
  950000      144  2.3036339e-11      6769.0942 
  960000      144   2.513895e-11      6821.6979 
  970000      144  2.3900502e-11      6873.6403 
  980000      144  3.0594801e-11       6926.249 
  990000      144   3.619324e-11      6981.5379 
 1000000      144  3.3561302e-11      7033.5753 
INFO: Particle insertion ins: inserted 76 particle templates (mass 1.114218e-08) at step 1000001
 - a total of 226 particle templates (mass 3.313333e-08) inserted so far.
 1010000      220  3.1830388e-11      7085.5492 
 1020000      220  5.9484781e-10      7435.2492 
 1030000      220  2.8152104e-10      7718.2746 
 1040000      220  2.6261342e-10      7972.0163 
 1050000      220  2.5096221e-10      8219.6128 
 1060000      220  3.8622464e-10      8462.5108 
 1070000      220  3.2669596e-10      8701.3161 
 1080000      220  2.6017232e-10      8936.0063 
 1090000      220  2.4385044e-10      9162.6331 
 1100000      220  2.1545811e-10       9387.641 
 1110000      220  2.0944232e-10      9607.2799 
 1120000      220  1.8746009e-10      9823.5707 
 1130000      220  1.8326806e-10      10035.891 
 1140000      220  1.7479069e-10       10247.71 
 1150000      220  1.7943253e-10      10457.659 
 1160000      220  1.7964386e-10      10664.957 
 1170000      220  1.7717256e-10      10873.228 
 1180000      220  1.7052668e-10      11080.329 
 1190000      220  1.9789591e-10      11285.608 
 1200000      220  8.3339537e-11      11415.431 
 1210000      220  7.9734556e-11       11524.46 
 1220000      220  9.8800489e-11      11630.918 
 1230000      220  1.1517129e-10      11755.796 
 1240000      220  1.3224346e-10      11892.126 
 1250000      220   1.533219e-10      12036.568 
 1260000      220  2.5113867e-10      12205.969 
 1270000      220  5.9137638e-09      12613.481 
 1280000      219  2.5259864e-11      12924.517 
 1290000      219  3.4361895e-11      12976.736 
 1300000      219  3.1447595e-11       13029.62 
 1310000      219  3.6110349e-11      13086.537 
 1320000      219  2.6362961e-11       13153.57 
 1330000      219  2.9426866e-11      13213.172 
 1340000      219  3.2967284e-11      13269.393 
 1350000      219  2.8382389e-11      13322.249 
 1360000      219  3.2221566e-11      13372.404 
 1370000      219  3.1775041e-11      13425.251 
 1380000      219  2.3092665e-11      13476.074 
 1390000      219  2.3979437e-11      13525.571 
 1400000      219  2.3746714e-11      13575.852 
 1410000      218  2.8311178e-11      13846.376 
 1420000      218  2.6897235e-11      13901.299 
 1430000      218  2.8316534e-11      13956.895 
 1440000      218  2.2274125e-11      14013.847 
 1450000      218  2.7663486e-11      14069.434 
 1460000      218   2.563132e-11      14120.271 
 1470000      218  1.7768023e-11      14174.461 
 1480000      218  1.8243014e-11      14225.282 
 1490000      218  1.4663562e-11      14270.718 
 1500000      218  3.8861144e-11      14332.999 
INFO: Particle insertion ins: inserted 74 particle templates (mass 1.084897e-08) at step 1500001
 - a total of 300 particle templates (mass 4.398230e-08) inserted so far.
 1510000      292  3.2410113e-11      14478.864 
 1520000      292  3.3669049e-11       14525.68 
 1530000      292  4.0195921e-11      14588.014 
 1540000      292  2.6213913e-10      14947.782 
 1550000      292   2.193556e-10      15162.622 
 1560000      292  3.7003542e-11      15355.205 
 1570000      292  3.3735034e-11       15411.49 
 1580000      292  6.4185467e-11       15507.55 
 1590000      292  3.7761519e-11      15576.612 
 1600000      292  3.2088181e-11      15630.915 
 1610000      292  2.7011422e-11      15682.428 
 1620000      292  2.2657171e-11      15743.365 
 1630000      292  1.7609288e-11      15793.535 
 1640000      292  2.7309042e-11      15845.077 
 1650000      292  3.4697159e-11       15903.37 
 1660000      292   2.491867e-11      15958.294 
 1670000      292  2.0428058e-11      16011.218 
 1680000      292  2.5042252e-11      16057.395 
 1690000      292  2.3109726e-11      16106.281 
 1700000      292  2.3258755e-11       16149.78 
 1710000      292  3.1668013e-11       16199.99 
 1720000      292  3.0550407e-11      16254.226 
 1730000      292   2.296248e-11      16305.078 
 1740000      291  3.2639743e-11      16552.692 
 1750000      290  3.7510768e-11       16971.45 
 1760000      290  2.4092635e-11      17021.645 
 1770000      290  3.4414455e-11      17072.544 
 1780000      290  3.3213492e-11      17122.834 
 1790000      290  3.3898661e-11      17175.161 
 1800000      290   2.766767e-11      17226.257 
 1810000      290  2.3968409e-11      17277.284 
 1820000      290   2.346014e-11      17324.313 
 1830000      290  3.7971521e-11      17377.446 
 1840000      290  2.2952486e-11      17429.832 
 1850000      289  3.9229281e-10       17835.95 
 1860000      289  8.0214565e-11      17968.464 
 1870000      289  4.0235131e-11      18076.745 
 1880000      289  3.8681215e-11      18130.497 
 1890000      289  3.3953894e-11      18187.588 
 1900000      289  3.1343305e-11      18242.095 
 1910000      289  3.3208512e-11      18301.349 
 1920000      289  4.1151445e-11      18370.028 
 1930000      289  3.1968378e-11      18446.901 
 1940000      289  3.0784188e-11      18499.542 
 1950000      289  3.5134194e-11      18553.575 
 1960000      289  2.4226852e-11      18604.918 
 1970000      289  2.4930225e-11      18656.216 
 1980000      289  2.2334663e-11      18706.796 
 1990000      289  2.7552097e-11      18758.693 
 2000000      289  1.7892609e-11       18812.03 
Loop time of 18812 on 6 procs for 2000000 steps with 289 atoms, finish time Mon Jun  8 21:28:15 2026


Pair  time (%) = 8.49287 (0.0451459)
Neigh time (%) = 10975.6 (58.3437)
Comm  time (%) = 1840 (9.781)
Outpt time (%) = 1.08591 (0.00577244)
Other time (%) = 5986.82 (31.8244)

Nlocal:    48.1667 ave 287 max 0 min
Histogram: 5 0 0 0 0 0 0 0 0 1
Nghost:    0 ave 0 max 0 min
Histogram: 6 0 0 0 0 0 0 0 0 0
Neighs:    169 ave 1014 max 0 min
Histogram: 5 0 0 0 0 0 0 0 0 1

Total # of neighbors = 1014
Ave neighs/atom = 3.50865
Neighbor list builds = 22314
Dangerous builds = 3761

unfix	ins

restart 1000000 restart.continuar.a restart.continuar.b
run	${dischargesteps}
run	80000000
Setting up run at Mon Jun  8 21:28:15 2026

Memory usage per processor = 2138.77 Mbytes
    Step    Atoms         KinEng            CPU 
 2000000      289  1.7892609e-11              0 
 2010000      289  1.9831689e-11      48.248436 
 2020000      289  1.7516943e-11      96.069715 
 2030000      289  1.6881987e-11       141.8566 
 2040000      289  1.7055517e-11      189.72346 
 2050000      289  5.6261432e-11       245.6946 
 2060000      289  2.3677542e-11      331.41314 
 2070000      289  1.9894943e-11      397.58658 
 2080000      289  2.2449909e-11      463.73555 
 2090000      289  9.3806292e-12       516.3727 
 2100000      288  5.6302591e-12      764.44408 
 2110000      288  8.1002125e-12      806.87384 
 2120000      288   8.561254e-12      857.34539 
 2130000      288  5.9422715e-12      904.45139 
 2140000      288  7.7119124e-12      954.92007 
 2150000      288  5.1584108e-12      1007.3943 
 2160000      288  5.3293729e-12      1046.4296 
 2170000      288  5.4140577e-12      1093.5794 
 2180000      287  6.8294925e-12      1524.8589 
 2190000      287  5.0260313e-12      1569.4359 
 2200000      287  2.4447942e-12      1606.6558 
 2210000      287  2.4867383e-12      1645.1408 
 2220000      287  1.5220993e-12      1689.0124 
 2230000      287     3.2147e-12      1722.0712 
 2240000      287  4.8685382e-12      1763.8715 
 2250000      287  4.7495512e-12       1810.381 
 2260000      287   4.897419e-12      1855.5277 
 2270000      287  1.5922079e-12      1891.8668 
 2280000      287  7.9760997e-13      1924.1461 
 2290000      287  9.8129996e-13      1949.4584 
 2300000      287  1.5086087e-12      1982.4795 
 2310000      287   2.439845e-12       2019.613 
 2320000      287  3.5188885e-12      2062.8427 
 2330000      287  1.4580177e-12      2097.3035 
 2340000      287  1.7749791e-12       2131.106 
 2350000      287   1.845319e-12      2165.5391 
 2360000      287  2.5697068e-12      2204.6472 
 2370000      287  1.2226968e-12      2245.7799 
 2380000      287  1.7974527e-12      2279.5234 
 2390000      287  1.1405091e-12      2311.8978 
 2400000      287  1.0558682e-12      2338.0736 
 2410000      287  1.5111957e-12      2371.0735 
 2420000      287  2.7191583e-12      2410.8136 
 2430000      287  4.4597686e-12      2458.0259 
 2440000      287  1.4044489e-12       2495.132 
 2450000      287  7.1205335e-13      2526.6249 
 2460000      287  7.2123296e-13      2550.4616 
 2470000      287  6.4163427e-13       2569.484 
 2480000      287  6.4762494e-13      2590.0898 
 2490000      287  7.0027673e-13      2610.7119 
 2500000      287  6.5997783e-13      2631.3912 
 2510000      287  9.9098427e-13      2654.3395 
 2520000      287   2.067958e-12      2688.0944 
 2530000      287  2.4845849e-12      2726.5992 
 2540000      287  2.9621994e-12      2768.4872 
 2550000      287  3.6194024e-12      2806.9966 
 2560000      287  4.1327389e-12      2850.9464 
 2570000      287  4.7898402e-12      2894.1708 
 2580000      287  4.2126383e-12       2938.098 
 2590000      287  2.4687705e-12      2977.3213 
 2600000      287  1.2939581e-12      3013.2463 
 2610000      287  6.8022814e-13      3037.0809 
 2620000      287  6.7974464e-13      3057.7221 
 2630000      287  6.8489765e-13      3078.4006 
 2640000      287  6.8357607e-13      3099.0847 
 2650000      287  6.8580049e-13      3119.7871 
 2660000      287   6.938411e-13      3140.5151 
 2670000      287  6.9971333e-13      3159.6357 
 2680000      287  6.9777808e-13      3180.3059 
 2690000      287  6.8784957e-13      3201.0367 
 2700000      287  6.7794483e-13      3221.7351 
 2710000      287  6.8444516e-13      3242.4486 
 2720000      287  6.8097374e-13      3263.1949 
 2730000      287  6.7543564e-13       3283.894 
 2740000      287  6.8084127e-13      3304.5769 
 2750000      287  6.8642975e-13      3323.6409 
 2760000      287  7.1026253e-13      3344.3211 
 2770000      287  7.4834057e-13      3365.0088 
 2780000      287  7.1600185e-13      3385.7122 
 2790000      287  7.0815754e-13       3406.445 
 2800000      287  7.1380066e-13      3427.2454 
 2810000      287  7.0729735e-13      3447.9682 
 2820000      287  7.2297532e-13      3468.6847 
 2830000      287  7.1931106e-13      3489.3947 
 2840000      287  6.8663589e-13      3508.5553 
 2850000      287  6.8957814e-13      3529.3277 
 2860000      287  6.8011716e-13      3550.1098 
 2870000      287  6.8022464e-13      3570.8524 
 2880000      287  6.9963094e-13      3591.5871 
 2890000      287  6.9863537e-13      3612.3121 
 2900000      287  7.0101779e-13      3633.0083 
 2910000      287  7.0577848e-13      3653.7222 
 2920000      287  7.0633759e-13      3672.8748 
 2930000      287   7.183293e-13      3693.6146 
 2940000      287  7.1151919e-13      3714.3567 
 2950000      287  6.9989829e-13      3735.0955 
 2960000      287  6.8819894e-13      3755.8733 
 2970000      287  6.8622018e-13       3776.681 
 2980000      287  6.8068852e-13      3797.4955 
 2990000      287  6.8636374e-13      3818.2798 
 3000000      287  6.9338822e-13      3839.1043 
 3010000      287  6.9454751e-13      3858.2681 
 3020000      287  7.0472079e-13      3879.0319 
 3030000      287  7.2350328e-13      3899.7647 
 3040000      287  7.2038167e-13      3920.4748 
 3050000      287  7.2959438e-13      3941.2276 
 3060000      287  7.3248423e-13      3961.9938 
 3070000      287  7.2871171e-13      3982.7904 
 3080000      287  7.0936437e-13      4003.5788 
 3090000      287  6.9515739e-13      4022.8014 
 3100000      287  6.9555049e-13      4043.6021 
 3110000      287  6.8008089e-13      4064.3828 
 3120000      287  6.7680691e-13      4085.1606 
 3130000      287  6.8423787e-13      4105.8885 
 3140000      287  6.8445831e-13      4126.6224 
 3150000      287  7.0530127e-13      4147.3338 
 3160000      287  7.1564878e-13      4168.0315 
 3170000      287  7.2337743e-13      4187.1904 
 3180000      287  7.2666033e-13      4207.9475 
 3190000      287  7.2289379e-13      4228.6917 
 3200000      287  7.2416467e-13       4249.545 
 3210000      287  7.0746637e-13      4270.3482 
 3220000      287  7.0089279e-13      4291.1659 
 3230000      287  6.9724331e-13      4311.9646 
 3240000      287  6.8958233e-13      4332.7838 
 3250000      287  6.9337906e-13      4351.9885 
 3260000      287  6.9539397e-13      4372.7398 
 3270000      287  6.9408484e-13      4393.4917 
 3280000      287  6.9985144e-13      4414.2088 
 3290000      287  7.0981234e-13      4434.9186 
 3300000      287  7.1738668e-13       4455.657 
 3310000      287  7.2159987e-13      4476.4009 
 3320000      287  7.2060477e-13      4497.1571 
 3330000      287  7.1317241e-13      4516.3261 
 3340000      287  7.0245237e-13      4537.1441 
 3350000      287  6.9743774e-13      4557.9401 
 3360000      287  6.8429363e-13      4578.7207 
 3370000      287  6.8263938e-13      4599.5095 
 3380000      287   6.808735e-13      4620.2756 
 3390000      287  7.3223882e-13      4641.0331 
 3400000      287  6.8691031e-13      4661.8605 
 3410000      287  6.9806752e-13      4681.0088 
 3420000      287  7.1036148e-13      4701.7421 
 3430000      287  7.1927412e-13       4722.488 
 3440000      287  7.2232768e-13      4743.2245 
 3450000      287  7.2614693e-13      4763.9622 
 3460000      287  7.1766725e-13      4784.6977 
 3470000      287  7.0075693e-13      4805.4844 
 3480000      287  6.9931796e-13      4826.2762 
 3490000      287  6.8733739e-13      4845.4646 
 3500000      287  6.6499252e-13      4866.2357 
 3510000      287  6.7020753e-13      4886.9819 
 3520000      287  6.7017087e-13      4907.7178 
 3530000      287  6.7953953e-13      4928.4495 
 3540000      287  6.9176023e-13      4949.1821 
 3550000      287  7.0350429e-13      4969.8916 
 3560000      287  7.0791195e-13      4990.5938 
 3570000      287  7.1943983e-13      5009.7102 
 3580000      287  7.2519408e-13      5030.4128 
 3590000      287  7.0616659e-13      5051.1326 
 3600000      287   6.956628e-13      5071.9902 
 3610000      287  6.9614087e-13      5092.8072 
 3620000      287  6.9066938e-13      5113.6316 
 3630000      287  6.7013719e-13      5134.4351 
 3640000      287  6.7291804e-13      5155.2267 
 3650000      287  6.7174726e-13      5174.4296 
 3660000      287  6.7652863e-13      5195.1875 
 3670000      287  6.9065773e-13      5215.9099 
 3680000      287  7.0770654e-13      5236.6164 
 3690000      287  7.1422627e-13      5257.3238 
 3700000      287  7.2223314e-13      5278.0081 
 3710000      287  7.3128068e-13       5298.709 
 3720000      287  7.2131039e-13      5319.4527 
 3730000      287  7.0371976e-13      5338.6373 
 3740000      287  7.0399868e-13      5359.4584 
 3750000      287  6.9034426e-13      5380.2919 
 3760000      287  6.7290235e-13      5401.0921 
 3770000      287  6.7873636e-13      5421.8731 
 3780000      287  6.7359464e-13      5442.6622 
 3790000      287  6.8484758e-13      5463.4387 
 3800000      287  6.9794654e-13      5484.2779 
 3810000      287  7.1199273e-13      5503.3795 
 3820000      287  7.1914883e-13      5524.0453 
 3830000      287   7.300779e-13      5544.7103 
 3840000      287  7.3942143e-13      5565.3714 
 3850000      287  7.2751297e-13      5586.0634 
 3860000      287  7.1612581e-13      5606.8276 
 3870000      287  7.2928609e-13      5627.6327 
 3880000      287  6.9883747e-13      5648.4515 
 3890000      287  6.8661008e-13      5667.6659 
 3900000      287  6.8230729e-13      5688.4875 
 3910000      287  6.8751312e-13      5709.3212 
 3920000      287  7.0036807e-13       5730.126 
 3930000      287  7.0508696e-13       5750.879 
 3940000      287  7.1841701e-13      5771.5865 
 3950000      287  7.2481279e-13      5792.2767 
 3960000      287  7.3801642e-13      5812.9803 
 3970000      287  7.4122788e-13      5832.0816 
 3980000      287  7.3411351e-13      5852.7928 
 3990000      287  7.1357154e-13      5873.5407 
 4000000      287  7.1254889e-13      5895.9868 
 4010000      287  7.0426499e-13      5915.1758 
 4020000      287  6.9563967e-13      5935.9604 
 4030000      287  6.9573269e-13      5956.7393 
 4040000      287  6.9294416e-13      5977.5291 
 4050000      287  7.1181042e-13       5998.295 
 4060000      287   7.222854e-13      6019.0312 
 4070000      287  7.3400976e-13      6039.7588 
 4080000      287   7.465451e-13      6060.5115 
 4090000      287  7.4383696e-13      6079.6821 
 4100000      287  7.3855146e-13      6100.4392 
 4110000      287  7.2272747e-13      6121.2147 
 4120000      287  7.6783702e-13      6141.9828 
 4130000      287  7.6277221e-13      6162.7443 
 4140000      287  7.2571922e-13      6183.5206 
 4150000      287  7.0129684e-13      6204.3213 
 4160000      287  7.0587363e-13      6225.1492 
 4170000      287  7.1324574e-13      6244.3898 
 4180000      287  7.1538109e-13      6265.1867 
 4190000      287  7.3758127e-13      6285.9756 
 4200000      287  7.3511226e-13      6306.8318 
 4210000      287  7.3215647e-13      6327.5959 
 4220000      287  7.3716558e-13       6348.361 
 4230000      287  7.3350154e-13      6369.1188 
 4240000      287  7.2263278e-13      6389.8759 
 4250000      287  7.2650002e-13      6409.0294 
 4260000      287   7.144712e-13       6429.794 
 4270000      287  7.0354756e-13       6450.553 
 4280000      287  6.9565165e-13      6471.3165 
 4290000      287  6.9247644e-13      6492.1211 
 4300000      287  6.9010764e-13      6512.9457 
 4310000      287  6.9961407e-13      6533.7634 
 4320000      287  7.1195879e-13      6554.5325 
 4330000      287  7.2786556e-13      6573.6869 
 4340000      287  7.3088332e-13      6594.4563 
 4350000      287  7.2559601e-13      6615.2211 
 4360000      287  7.2121521e-13      6635.9628 
 4370000      287  7.1639914e-13       6656.674 
 4380000      287  7.0771922e-13      6677.3976 
 4390000      287  6.9893949e-13       6698.155 
 4400000      287  6.9701826e-13      6718.9887 
 4410000      287  6.9014159e-13      6738.1614 
 4420000      287  6.8227656e-13      6758.9709 
 4430000      287  6.7946389e-13      6779.7868 
 4440000      287   6.921204e-13      6800.5664 
 4450000      287  7.1458369e-13      6821.2929 
 4460000      287   7.224022e-13       6842.018 
 4470000      287  7.2290269e-13      6862.7519 
 4480000      287  7.2813329e-13      6883.4889 
 4490000      287  7.2867285e-13      6902.6016 
 4500000      287  7.1852003e-13      6923.2931 
 4510000      287  7.1555727e-13      6943.9933 
 4520000      287  7.0074745e-13      6964.7108 
 4530000      287  6.8108742e-13      6985.4839 
 4540000      287  6.8397963e-13      7006.2775 
 4550000      287  6.8740277e-13      7027.1329 
 4560000      287  6.7992097e-13      7047.9508 
 4570000      287  7.0535739e-13      7067.1403 
 4580000      287  7.0753768e-13      7087.8858 
 4590000      287  7.2107854e-13      7108.6465 
 4600000      287  7.1425321e-13      7129.4862 
 4610000      287  7.1718401e-13      7150.2124 
 4620000      287  7.2516863e-13      7170.9021 
 4630000      287  7.1550361e-13      7191.5851 
 4640000      287    7.12477e-13      7212.2664 
 4650000      287  6.9963601e-13       7231.401 
 4660000      287  6.8994557e-13      7252.1557 
 4670000      287  6.8260726e-13      7272.9728 
 4680000      287  6.8265016e-13      7293.8147 
 4690000      287  6.7207769e-13       7314.629 
 4700000      287  6.9558773e-13      7335.4015 
 4710000      287  7.0737125e-13      7356.1215 
 4720000      287   7.215763e-13      7376.8464 
 4730000      287  7.2269341e-13      7395.9697 
 4740000      287  7.2849315e-13       7416.673 
 4750000      287  7.2422236e-13      7437.3786 
 4760000      287  7.2524785e-13      7458.0987 
 4770000      287  7.0492146e-13      7478.8281 
 4780000      287  7.0064712e-13      7499.5909 
 4790000      287  6.8639668e-13      7520.4118 
 4800000      287  6.7369296e-13      7541.3416 
 4810000      287  6.7253199e-13      7560.6008 
 4820000      287    6.80358e-13      7581.4279 
 4830000      287  6.9836962e-13       7602.196 
 4840000      287   7.113855e-13      7622.9395 
 4850000      287  7.1544431e-13      7643.6947 
 4860000      287  7.2329905e-13       7664.406 
 4870000      287  7.2499605e-13      7685.0766 
 4880000      287  7.2613176e-13      7705.7688 
 4890000      287  7.0909273e-13      7724.8863 
 4900000      287  7.1977375e-13      7745.6001 
 4910000      287  7.0016843e-13      7766.3726 
 4920000      287  6.8621802e-13      7787.2081 
 4930000      287  6.8172523e-13      7808.0934 
 4940000      287   6.809442e-13      7829.0144 
 4950000      287  6.9723631e-13      7849.8568 
 4960000      287  7.0400244e-13      7870.6122 
 4970000      287  7.1967307e-13      7889.7375 
 4980000      287  7.2649994e-13      7910.4592 
 4990000      287   7.376324e-13      7931.1549 
 5000000      287  7.4350639e-13      7953.5177 
 5010000      287  7.3489132e-13      7972.6016 
 5020000      287  7.3693057e-13      7993.3185 
 5030000      287  7.2091137e-13      8014.0753 
 5040000      287  7.0735586e-13      8034.8953 
 5050000      287  6.7479003e-13      8055.7388 
 5060000      287  6.9092359e-13      8076.5891 
 5070000      287  6.9056342e-13      8097.4432 
 5080000      287  7.0103325e-13      8118.2677 
 5090000      287  7.0986957e-13      8137.4297 
 5100000      287  7.3085092e-13       8158.134 
 5110000      287  7.3498252e-13      8178.8672 
 5120000      287  7.4781796e-13      8199.5981 
 5130000      287  7.6467946e-13      8220.3588 
 5140000      287  7.4920195e-13      8241.1274 
 5150000      287  7.6013965e-13      8261.8938 
 5160000      287  7.2418653e-13      8282.6638 
 5170000      287  7.2053681e-13      8301.8565 
 5180000      287   7.172042e-13      8322.6733 
 5190000      287    7.12702e-13      8343.5042 
 5200000      287  7.0596238e-13      8364.4494 
 5210000      287  7.0524464e-13      8385.2708 
 5220000      287  7.2696454e-13      8406.0409 
 5230000      287  7.4282083e-13       8426.714 
 5240000      287  7.3838437e-13      8447.3905 
 5250000      287  7.5059927e-13      8466.5115 
 5260000      287  7.4972655e-13      8487.2365 
 5270000      287  7.4833327e-13      8507.9812 
 5280000      287  7.4814703e-13      8528.7084 
 5290000      287  7.3521664e-13      8549.4755 
 5300000      287  7.2640292e-13      8570.2499 
 5310000      287  7.0186517e-13      8591.0563 
 5320000      287  6.9228527e-13      8611.8776 
 5330000      287  6.9146147e-13      8631.1132 
 5340000      287  7.0185248e-13      8651.9079 
 5350000      287  7.1689474e-13      8672.6479 
 5360000      287  7.2147899e-13      8693.3333 
 5370000      287  7.2761183e-13      8714.0393 
 5380000      287  7.2306296e-13       8734.794 
 5390000      287  7.2253477e-13      8755.5336 
 5400000      287  7.2988365e-13      8776.3425 
 5410000      287  7.3532955e-13      8795.4638 
 5420000      287  7.3372483e-13      8816.2166 
 5430000      287  7.1234365e-13      8836.9931 
 5440000      287  7.0496208e-13      8857.7968 
 5450000      287  6.9440306e-13      8878.6185 
 5460000      287  6.8838738e-13       8899.434 
 5470000      287  6.9314212e-13      8920.2183 
 5480000      287  7.1144892e-13      8940.9399 
 5490000      287  7.1775208e-13      8960.0396 
 5500000      287  7.2048446e-13      8980.7517 
 5510000      287  7.2068021e-13      9001.4674 
 5520000      287  7.2265662e-13      9022.1989 
 5530000      287  7.2562148e-13      9042.9145 
 5540000      287  7.2358005e-13      9063.6167 
 5550000      287  7.2560673e-13      9084.4022 
 5560000      287  7.2686475e-13      9105.2619 
 5570000      287  7.1236672e-13      9124.5706 
 5580000      287  7.0139018e-13      9145.4846 
 5590000      287  7.0366514e-13      9166.4019 
 5600000      287  7.0766476e-13      9187.3393 
 5610000      287  7.1195303e-13      9208.1347 
 5620000      287  7.2088172e-13      9228.8842 
 5630000      287  7.2247007e-13      9249.6321 
 5640000      287  7.2873328e-13      9270.3911 
 5650000      287  7.3621818e-13      9289.5278 
 5660000      287  7.5165748e-13      9310.1972 
 5670000      287  7.4861695e-13      9330.9086 
 5680000      287  7.4629049e-13      9351.6559 
 5690000      287  7.3769398e-13      9372.5138 
 5700000      287  7.4311547e-13       9393.397 
 5710000      287  7.1939357e-13      9414.2884 
 5720000      287   7.401703e-13       9435.152 
 5730000      287  7.4603276e-13      9454.3456 
 5740000      287  7.3568518e-13      9475.0752 
 5750000      287  7.3850744e-13      9495.8085 
 5760000      287  7.3294197e-13      9516.5521 
 5770000      287  7.4898579e-13      9537.3432 
 5780000      287  7.6144143e-13      9558.0561 
 5790000      287  7.6050673e-13       9578.757 
 5800000      287  7.5809957e-13      9599.6105 
 5810000      287  7.3756886e-13      9618.8354 
 5820000      287  7.2334473e-13      9639.7409 
 5830000      287  6.8618767e-13      9660.6357 
 5840000      287  7.0516037e-13      9681.5546 
 5850000      287  7.1428736e-13      9702.4116 
 5860000      287  7.2057431e-13      9723.1677 
 5870000      287  7.3435329e-13      9743.8771 
 5880000      287  7.4701134e-13      9764.6226 
 5890000      287  7.5128705e-13       9783.779 
 5900000      287  7.5325526e-13      9804.4604 
 5910000      287  7.6483939e-13       9825.124 
 5920000      287  7.6288403e-13      9845.8108 
 5930000      287  7.7241863e-13      9866.5836 
 5940000      287  7.3516356e-13      9887.4277 
 5950000      287  7.3955357e-13      9908.2826 
 5960000      287  7.2925956e-13      9929.1697 
 5970000      287  7.2779679e-13      9948.4986 
 5980000      287  7.3120963e-13      9969.3114 
 5990000      287  7.3184474e-13      9990.0412 
 6000000      287  7.3963154e-13      10012.463 
 6010000      287  7.4507996e-13      10031.638 
 6020000      287  7.8112549e-13      10052.414 
 6030000      287  7.5528462e-13      10073.136 
 6040000      287  7.5314539e-13      10093.831 
 6050000      287   7.605409e-13      10114.569 
 6060000      287  7.3152234e-13      10135.353 
 6070000      287  7.0639076e-13      10156.171 
 6080000      287  7.0020335e-13      10177.013 
 6090000      287   7.133867e-13       10196.28 
 6100000      287  7.0386734e-13      10217.151 
 6110000      287  7.0663735e-13      10237.967 
 6120000      287  7.1786389e-13      10258.715 
 6130000      287   7.290969e-13      10279.631 
 6140000      287  7.4132407e-13      10300.552 
 6150000      287  7.4603699e-13       10321.46 
 6160000      287  7.4251437e-13      10342.379 
 6170000      287  7.3547318e-13      10361.694 
 6180000      287  7.2558884e-13      10382.665 
 6190000      287   7.165399e-13      10403.618 
 6200000      287  7.1182439e-13      10424.644 
 6210000      287  6.9190674e-13      10445.472 
 6220000      287  7.0113688e-13      10466.173 
 6230000      287  6.9471545e-13      10486.867 
 6240000      287  6.9595561e-13      10507.559 
 6250000      287  7.1290735e-13      10526.648 
 6260000      287  7.2754509e-13      10547.234 
 6270000      287  7.4055061e-13      10567.828 
 6280000      287  7.4761058e-13      10588.412 
 6290000      287  7.3055927e-13      10609.035 
 6300000      287  7.1602403e-13      10629.636 
 6310000      287  7.1100731e-13      10650.232 
 6320000      287  7.0140928e-13      10670.825 
 6330000      287  7.1079732e-13       10689.85 
 6340000      287  6.8721446e-13      10710.473 
 6350000      287  6.8441068e-13      10731.139 
 6360000      287   6.871586e-13        10751.8 
 6370000      287  6.9614413e-13      10772.422 
 6380000      287  7.0180241e-13      10793.023 
 6390000      287  7.0708333e-13       10813.59 
 6400000      287  7.1113568e-13      10834.231 
 6410000      287  7.1243915e-13      10853.194 
 6420000      287  7.1162736e-13      10873.758 
 6430000      287  7.0972019e-13      10894.314 
 6440000      287  7.1102827e-13      10914.902 
 6450000      287  7.1714206e-13      10935.497 
 6460000      287  6.8598414e-13      10956.117 
 6470000      287   6.954575e-13      10976.741 
 6480000      287  6.6879428e-13      10997.405 
 6490000      287  6.7205379e-13      11016.451 
 6500000      287  6.7195415e-13      11037.058 
 6510000      287  6.8870427e-13      11057.604 
 6520000      287  6.9677911e-13      11078.165 
 6530000      287  7.0542611e-13       11098.72 
 6540000      287  7.0823214e-13      11119.253 
 6550000      287  7.1183327e-13      11139.811 
 6560000      287    7.11064e-13      11160.355 
 6570000      287  7.2243519e-13      11179.334 
 6580000      287   7.094165e-13      11199.952 
 6590000      287  7.1231061e-13      11220.628 
 6600000      287  6.9458055e-13      11241.393 
 6610000      287  6.7709045e-13      11262.104 
 6620000      287  6.8030071e-13      11282.846 
 6630000      287  6.8629093e-13      11303.551 
 6640000      287  6.9111878e-13      11324.199 
 6650000      287  7.1393685e-13      11343.177 
 6660000      287  7.1768937e-13      11363.739 
 6670000      287  7.3434526e-13      11384.327 
 6680000      287   7.556221e-13      11404.882 
 6690000      287  7.5958721e-13      11425.418 
 6700000      287  7.6765305e-13      11445.975 
 6710000      287  7.5464405e-13      11466.579 
 6720000      287  7.2541765e-13      11487.244 
 6730000      287  7.2118739e-13      11506.313 
 6740000      287  6.8835626e-13      11526.979 
 6750000      287  6.9117049e-13      11547.653 
 6760000      287  7.0099611e-13      11568.285 
 6770000      287  7.1480316e-13      11588.898 
 6780000      287  7.2782456e-13       11609.46 
 6790000      287  7.5199819e-13      11630.009 
 6800000      287  7.5740942e-13      11650.668 
 6810000      287  7.6666485e-13      11669.632 
 6820000      287  7.6038164e-13      11690.219 
 6830000      287  7.5507841e-13      11710.816 
 6840000      287  7.5124915e-13      11731.443 
 6850000      287  7.3496519e-13      11752.087 
 6860000      287   7.087546e-13      11772.746 
 6870000      287  7.0309836e-13      11793.413 
 6880000      287  7.0928919e-13      11814.033 
 6890000      287  7.1503719e-13      11833.007 
 6900000      287  7.3350566e-13      11853.558 
 6910000      287  7.3995355e-13      11874.093 
 6920000      287  7.5036663e-13      11894.626 
 6930000      287  7.5041904e-13      11915.161 
 6940000      287  7.5925982e-13      11935.714 
 6950000      287  7.6658179e-13      11956.288 
 6960000      287  7.5231137e-13      11976.863 
 6970000      287  7.2176852e-13      11995.871 
 6980000      287  7.0736103e-13      12016.507 
 6990000      287  7.0445905e-13      12037.168 
 7000000      287  7.0156701e-13      12059.549 
 7010000      287  7.0466001e-13      12078.606 
 7020000      287  7.1491029e-13      12099.196 
 7030000      287   7.305285e-13      12119.773 
 7040000      287  7.4965636e-13       12140.38 
 7050000      287  7.4903391e-13      12161.016 
 7060000      287  7.5069693e-13      12181.603 
 7070000      287  7.5262193e-13      12202.166 
 7080000      287  7.4088366e-13      12222.751 
 7090000      287  7.1995037e-13      12241.742 
 7100000      287  7.0742136e-13      12262.469 
 7110000      287  6.9991177e-13      12283.272 
 7120000      287  7.0148958e-13      12304.071 
 7130000      287  6.9757275e-13      12324.843 
 7140000      287  7.0341377e-13      12345.636 
 7150000      287  7.0654703e-13      12366.421 
 7160000      287  7.1803788e-13      12387.187 
 7170000      287  7.4035439e-13      12406.334 
 7180000      287  7.5563967e-13      12427.183 
 7190000      287  7.6445515e-13      12448.123 
 7200000      287  7.3883815e-13      12469.257 
 7210000      287   7.249971e-13       12490.39 
 7220000      287  7.0882204e-13      12511.616 
 7230000      287  6.9727891e-13       12532.91 
 7240000      287  6.9725753e-13      12554.214 
 7250000      287  6.8872743e-13      12573.896 
 7260000      287  6.9626678e-13      12595.214 
 7270000      287  6.9430847e-13      12616.586 
 7280000      287  6.8945044e-13      12637.898 
 7290000      287  7.3488953e-13      12659.132 
 7300000      287    7.42896e-13      12680.336 
 7310000      287  7.3548083e-13       12701.49 
 7320000      287  7.3574532e-13      12722.631 
 7330000      287   7.435253e-13      12742.185 
 7340000      287  7.5030675e-13      12763.328 
 7350000      287  6.9956434e-13      12784.523 
 7360000      287   7.053197e-13      12805.757 
 7370000      287  6.8727658e-13      12826.993 
 7380000      287   6.959174e-13      12848.203 
 7390000      287  6.9186308e-13      12869.399 
 7400000      287  7.0906439e-13      12890.734 
 7410000      287  7.2335157e-13       12910.39 
 7420000      287  8.2023737e-13      12931.595 
 7430000      287  7.2471266e-13      12952.738 
 7440000      287  7.6104614e-13      12973.869 
 7450000      287  7.5194011e-13      12995.016 
 7460000      287  7.3400919e-13      13016.177 
 7470000      287  7.1803434e-13      13037.375 
 7480000      287  7.0967015e-13        13058.6 
 7490000      287  7.2142225e-13      13079.869 
 7500000      287  8.1314137e-13      13101.118 
 7510000      287  6.9069604e-13      13120.703 
 7520000      287  6.8022251e-13      13141.896 
 7530000      287  6.8218872e-13       13163.12 
 7540000      287   7.140082e-13      13184.375 
 7550000      287  7.0878236e-13      13205.593 
 7560000      287   7.195992e-13      13226.772 
 7570000      287  7.2975801e-13      13247.935 
 7580000      287  7.2859488e-13      13269.086 
 7590000      287  7.4013203e-13      13288.642 
 7600000      287  7.0112533e-13      13309.913 
 7610000      287  7.2025842e-13      13331.107 
 7620000      287  6.6197448e-13      13352.334 
 7630000      287  6.8610119e-13      13373.525 
 7640000      287  6.9370293e-13      13394.666 
 7650000      287  6.9459659e-13       13415.84 
 7660000      287  6.9138022e-13      13437.036 
 7670000      287  6.9842248e-13      13456.641 
 7680000      287  7.0997982e-13      13477.842 
 7690000      287  7.3030387e-13      13499.019 
 7700000      287  7.4166099e-13      13520.189 
 7710000      287  7.4377365e-13      13541.359 
 7720000      287  7.3916036e-13      13562.516 
 7730000      287  7.2475214e-13      13583.701 
 7740000      287  7.2312708e-13      13604.918 
 7750000      287  7.1312161e-13       13624.55 
 7760000      287  7.0268924e-13       13645.74 
 7770000      287  6.9378523e-13      13666.898 
 7780000      287   6.912034e-13      13688.084 
 7790000      287  7.0147206e-13      13709.296 
 7800000      287   7.209715e-13      13730.601 
 7810000      287  7.3064452e-13      13751.812 
 7820000      287  7.4408656e-13      13773.014 
 7830000      287  7.5299358e-13      13792.608 
 7840000      287  7.5733619e-13      13813.785 
 7850000      287  7.3780212e-13      13834.957 
 7860000      287  7.2685911e-13      13856.163 
 7870000      287  7.2679737e-13       13877.39 
 7880000      287  7.0804376e-13      13898.604 
 7890000      287  6.8492636e-13      13919.785 
 7900000      287  6.8329969e-13      13940.952 
 7910000      287  6.9478166e-13      13960.569 
 7920000      287  7.0861684e-13      13981.804 
 7930000      287  7.2131147e-13      14003.034 
 7940000      287  7.4364445e-13      14024.249 
 7950000      287   7.502119e-13      14045.445 
 7960000      287  7.4093729e-13      14066.627 
 7970000      287  7.4842175e-13       14087.82 
 7980000      287  7.2697398e-13      14109.006 
 7990000      287  7.1912512e-13      14130.217 
 8000000      287  7.0415929e-13       14151.54 
 8010000      287  7.2013991e-13      14171.165 
 8020000      287  6.9207919e-13       14192.35 
 8030000      287  6.8317282e-13      14213.513 
 8040000      287  6.9478301e-13      14234.727 
 8050000      287    7.14184e-13      14255.974 
 8060000      287  7.2249097e-13      14277.209 
 8070000      287  7.2987117e-13      14298.428 
 8080000      287  7.7808521e-13      14319.626 
 8090000      287  7.5436096e-13       14339.24 
 8100000      287  7.5178795e-13      14360.447 
 8110000      287  7.2557305e-13      14381.667 
 8120000      287  7.1142825e-13      14403.091 
 8130000      287  7.0292793e-13      14424.552 
 8140000      287  6.9372222e-13      14445.978 
 8150000      287  6.8263746e-13      14467.385 
 8160000      287  6.8198001e-13      14488.826 
 8170000      287   6.970163e-13      14508.728 
 8180000      287   7.024799e-13      14530.351 
 8190000      287  7.1338967e-13      14552.048 
 8200000      287  7.3875183e-13       14573.92 
 8210000      287  7.6360822e-13      14595.748 
 8220000      287  7.7728276e-13       14617.64 
 8230000      287   7.645058e-13      14639.598 
 8240000      287  7.4252394e-13      14661.645 
 8250000      287  7.1560241e-13      14682.177 
 8260000      287  6.9632993e-13      14704.427 
 8270000      287  6.9132756e-13        14726.7 
 8280000      287  6.7059841e-13      14748.948 
 8290000      287  6.8170755e-13      14771.217 
 8300000      287   6.819385e-13      14793.581 
 8310000      287  7.0394396e-13       14816.06 
 8320000      287  7.1065098e-13      14838.507 
 8330000      287   7.384834e-13      14859.135 
 8340000      287   7.546264e-13      14881.289 
 8350000      287  7.5092557e-13      14903.422 
 8360000      287  7.5546449e-13      14925.555 
 8370000      287  7.2379174e-13       14947.71 
 8380000      287  6.9263808e-13      14969.946 
 8390000      287  6.7575203e-13      14992.208 
 8400000      287  6.8037156e-13      15014.531 
 8410000      287  7.4673578e-13      15035.083 
 8420000      287  7.0366861e-13      15057.267 
 8430000      287  7.7552344e-13      15081.153 
 8440000      287  7.1351672e-13       15103.47 
 8450000      287  7.2255929e-13      15125.716 
 8460000      287  7.4834013e-13      15147.889 
 8470000      287  8.1304546e-13      15170.033 
 8480000      287  8.1026564e-13      15192.152 
 8490000      287  9.1636221e-13      15214.275 
 8500000      287  7.3749685e-13      15234.834 
 8510000      287  7.1710288e-13      15257.093 
 8520000      287  7.0465855e-13      15279.314 
 8530000      287  6.9342325e-13      15301.488 
 8540000      287  6.8295928e-13      15323.621 
 8550000      287  6.8713995e-13      15345.807 
 8560000      287  6.8315231e-13      15368.093 
 8570000      287  7.1496139e-13      15390.376 
 8580000      287  7.2026065e-13      15411.038 
 8590000      287  7.5999332e-13      15433.213 
 8600000      287  7.7022642e-13      15455.438 
 8610000      287  7.8383342e-13      15477.556 
 8620000      287  7.5605912e-13      15499.666 
 8630000      287  7.2728316e-13      155