ITEM: TIMESTEP
2800000
ITEM: NUMBER OF ATOMS
188
ITEM: BOX BOUNDS ff ff ff
-0.02 0.43
-0.02 0.06
-0.02 0.07
ITEM: ATOMS id type x y z vx vy vz fx fy fz radius mass 
1 1 0.0465346 0.0164274 0.00773943 0.0118863 0.00171805 -0.000842921 -1.1002e-09 9.55493e-10 -1.46341e-09 5e-05 5.23599e-10 
2 1 0.052301 0.0161638 0.00787639 0.0115518 0.000614375 0.000699722 2.16439e-11 8.21617e-11 -3.08433e-11 5e-05 5.23599e-10 
3 1 0.0462807 0.0158289 0.00829404 0.0120775 0.00187858 -0.000460371 9.26267e-10 -9.21648e-11 -9.80407e-10 5e-05 5.23599e-10 
4 1 0.0527086 0.017921 0.0071205 0.0125137 -0.000738222 -0.000354414 1.64448e-10 1.64479e-10 -3.19289e-10 5e-05 5.23599e-10 
5 1 0.0464244 0.0167342 0.00762928 0.0121749 0.0010396 -0.00147128 -8.18059e-11 -5.16046e-09 1.97251e-09 5e-05 5.23599e-10 
6 1 0.0468619 0.0174778 0.00741117 0.0122448 0.000980423 -0.00154088 -1.78232e-09 7.52819e-10 3.38842e-10 5e-05 5.23599e-10 
7 1 0.0523203 0.0162566 0.00784095 0.0115664 0.000576263 -0.000353709 -2.11857e-09 2.77968e-09 -1.08791e-09 5e-05 5.23599e-10 
8 1 0.0467017 0.017167 0.00749992 0.0121881 0.000889713 -0.0014957 5.62365e-09 -5.46076e-09 1.05935e-09 5e-05 5.23599e-10 
9 1 0.0461361 0.0157111 0.00860144 0.0123654 -0.00133347 -0.00127059 1.20309e-10 2.63651e-10 -4.8106e-09 5e-05 5.23599e-10 
10 1 0.0464425 0.0164093 0.00777421 0.0117506 0.00178726 -0.000578261 1.16439e-09 5.70487e-10 -3.00629e-09 5e-05 5.23599e-10 
11 1 0.0463655 0.0161066 0.00801791 0.0116365 0.00180274 -0.000513528 1.78349e-09 5.70093e-10 -1.15374e-09 5e-05 5.23599e-10 
12 1 0.0523616 0.0164485 0.00775809 0.011975 0.00206282 -0.00150759 3.64085e-11 1.54549e-10 -6.66343e-11 5e-05 5.23599e-10 
13 1 0.0464678 0.0169234 0.00758104 0.0121301 0.000915643 -0.00147652 -2.48884e-09 -3.5864e-09 1.94824e-09 5e-05 5.23599e-10 
14 1 0.0469054 0.017667 0.00736292 0.0122879 0.000940471 -0.00152808 -1.13666e-09 6.70964e-10 -5.15046e-11 5e-05 5.23599e-10 
15 1 0.0525522 0.0172693 0.00740285 0.0125095 0.000501619 -0.000879834 -2.06332e-10 8.17293e-10 -3.33159e-10 5e-05 5.23599e-10 
16 1 0.0468034 0.0179925 0.00729873 0.012367 0.0010318 -0.00155648 -2.92357e-10 3.3105e-10 -8.82684e-11 5e-05 5.23599e-10 
17 1 0.0528292 0.0184674 0.00691132 0.0119299 -0.00027888 0.00111155 -3.25484e-10 2.90345e-10 4.67726e-10 5e-05 5.23599e-10 
18 1 0.0461943 0.0158415 0.0083428 0.0116536 0.00076878 -0.000842603 -1.66547e-11 -9.69987e-10 3.22093e-09 5e-05 5.23599e-10 
19 1 0.0406675 0.0173305 0.00728644 0.0124271 -0.000834657 0.000798496 -4.71025e-10 1.69838e-10 -1.86811e-10 5e-05 5.23599e-10 
20 1 0.0465002 0.0162744 0.00786524 0.0116509 0.00189358 -0.000589611 2.22651e-10 2.10397e-09 -2.96302e-09 5e-05 5.23599e-10 
21 1 0.0525307 0.0171797 0.00744167 0.012532 0.000587357 -0.000922865 -4.83051e-10 -2.75249e-10 4.55467e-11 5e-05 5.23599e-10 
22 1 0.0466283 0.0172346 0.00749217 0.0123844 0.00107087 -0.00156713 4.02633e-09 -2.78693e-09 1.51904e-10 5e-05 5.23599e-10 
23 1 0.0462127 0.0158936 0.0082595 0.0117224 0.00137194 -0.000648366 2.33695e-09 -2.0806e-09 1.56082e-09 5e-05 5.23599e-10 
25 1 0.0525738 0.0173593 0.00736385 0.0126744 0.000977079 -0.00109008 1.20583e-09 -8.78844e-10 2.99556e-10 5e-05 5.23599e-10 
26 1 0.0462497 0.0160103 0.00810387 0.0116574 0.00184774 -0.000558867 -1.29658e-09 2.283e-10 -2.12537e-09 5e-05 5.23599e-10 
27 1 0.046287 0.0161453 0.00796913 0.011712 0.00179003 -0.00054138 2.04932e-10 -2.84767e-11 8.27761e-10 5e-05 5.23599e-10 
28 1 0.0469934 0.0180467 0.00726598 0.0123996 0.00103147 -0.00155772 7.79867e-10 6.94243e-11 -1.33841e-10 5e-05 5.23599e-10 
29 1 0.0523829 0.0165473 0.00771541 0.0119811 0.00227858 -0.00159852 1.18835e-11 1.1974e-10 -7.50942e-11 5e-05 5.23599e-10 
30 1 0.0464746 0.0165708 0.00766163 0.0118941 0.00119175 -0.00148179 6.5206e-10 -2.45274e-09 -1.11363e-10 5e-05 5.23599e-10 
31 1 0.0464043 0.0166418 0.00766173 0.0119897 0.0011981 -0.00144679 -9.86158e-10 -5.27463e-09 -1.30598e-09 5e-05 5.23599e-10 
32 1 0.0524447 0.0168212 0.00759696 0.0124584 0.000607892 -0.000927662 -3.31044e-10 2.22281e-09 -2.10459e-09 5e-05 5.23599e-10 
33 1 0.0464582 0.0164851 0.00771062 0.0118348 0.00144171 -0.00109845 9.39954e-10 -3.10794e-09 -2.69126e-09 5e-05 5.23599e-10 
34 1 0.0464131 0.0163154 0.00780842 0.011849 0.00185236 -0.000514496 7.22853e-10 7.43586e-10 4.35991e-10 5e-05 5.23599e-10 
35 1 0.0463445 0.0160373 0.00808686 0.0116363 0.00178066 -0.000473857 -8.47157e-10 -5.95922e-10 -1.45188e-09 5e-05 5.23599e-10 
36 1 0.0527516 0.0181003 0.00704285 0.0127284 -0.00097982 -0.000235282 -5.36968e-10 -1.09801e-09 -7.15052e-11 5e-05 5.23599e-10 
37 1 0.0464045 0.0162455 0.00787939 0.0117802 0.00180803 -0.00051844 -1.31346e-09 1.31857e-09 -1.54214e-09 5e-05 5.23599e-10 
38 1 0.0465476 0.0165029 0.00766949 0.0117098 0.00111896 -0.00149349 2.15763e-09 1.01051e-09 -1.5913e-09 5e-05 5.23599e-10 
39 1 0.0465632 0.0169508 0.00756454 0.011908 0.0010185 -0.00154026 4.02271e-09 -1.22788e-09 -2.27806e-09 5e-05 5.23599e-10 
40 1 0.0463649 0.0164682 0.00775179 0.0118115 0.00169614 -0.000749951 -4.49856e-10 -2.22581e-09 2.19105e-10 5e-05 5.23599e-10 
41 1 0.0468486 0.0181837 0.00724982 0.0123828 0.00101575 -0.00155703 1.37947e-10 7.00055e-10 -1.62492e-10 5e-05 5.23599e-10 
42 1 0.0467452 0.0173563 0.00745164 0.0122531 0.00103674 -0.00154603 -3.92534e-10 1.09458e-09 -4.45028e-10 5e-05 5.23599e-10 
43 1 0.0527912 0.0182802 0.00696509 0.0114561 -0.000667818 -0.000360622 -2.30908e-09 -1.53813e-09 1.49373e-10 5e-05 5.23599e-10 
44 1 0.0463066 0.0158983 0.00822559 0.0119011 0.00158064 -0.000287127 -8.74073e-10 -3.28449e-10 -2.30678e-09 5e-05 5.23599e-10 
45 1 0.0466633 0.0177746 0.00736393 0.012444 0.00116999 -0.00160105 -2.47155e-10 -6.49438e-10 4.72413e-11 5e-05 5.23599e-10 
46 1 0.0405433 0.0172 0.0073261 0.012433 -0.000838634 0.000802796 1.78396e-10 4.49467e-10 -1.74049e-10 5e-05 5.23599e-10 
47 1 0.0526441 0.0176522 0.00723697 0.0123419 -0.000837622 -0.000299828 -9.1818e-10 1.05583e-09 -4.36226e-10 5e-05 5.23599e-10 
48 1 0.046593 0.0166941 0.00762056 0.0120019 0.000816195 -0.00147011 4.95243e-10 -9.86803e-10 8.20985e-10 5e-05 5.23599e-10 
49 1 0.0465695 0.0165976 0.00764531 0.0120207 0.00114868 -0.00152608 2.24497e-09 2.24973e-09 -1.83096e-09 5e-05 5.23599e-10 
50 1 0.0466501 0.0173291 0.00746804 0.0123851 0.00111142 -0.00156254 6.06756e-10 -1.86307e-09 2.08491e-10 5e-05 5.23599e-10 
51 1 0.0465928 0.0163034 0.0078412 0.0117389 0.00185103 -0.000558453 -1.11924e-09 6.75123e-10 -1.2071e-09 5e-05 5.23599e-10 
52 1 0.040382 0.0164935 0.00763114 0.0115243 -0.00055866 0.00106683 -9.3287e-10 1.41092e-09 -3.87554e-09 5e-05 5.23599e-10 
53 1 0.0463844 0.0161762 0.00794863 0.011674 0.00179386 -0.000547092 2.34668e-10 1.9489e-09 -8.3689e-10 5e-05 5.23599e-10 
54 1 0.046767 0.0174508 0.00742751 0.012305 0.00101268 -0.00154479 -7.70728e-10 9.27115e-10 -3.32607e-10 5e-05 5.23599e-10 
55 1 0.0524877 0.0170005 0.00751931 0.0124459 0.00056487 -0.000917263 3.44399e-09 -5.67341e-10 -1.59881e-09 5e-05 5.23599e-10 
56 1 0.0464895 0.017018 0.00755692 0.0120963 0.000943445 -0.0014637 -5.60043e-09 7.25297e-11 2.90131e-09 5e-05 5.23599e-10 
57 1 0.0527731 0.0181899 0.00700402 0.0120834 -0.000838857 -0.000215534 4.71143e-10 1.83793e-09 -2.18413e-09 5e-05 5.23599e-10 
58 1 0.0466415 0.01768 0.00738805 0.0124621 0.00116136 -0.00159735 -6.12458e-10 -1.09783e-09 3.21924e-10 5e-05 5.23599e-10 
59 1 0.046737 0.0177075 0.00737152 0.0123894 0.00110719 -0.00157686 -7.10832e-10 2.28258e-10 1.1783e-10 5e-05 5.23599e-10 
60 1 0.0469648 0.0171532 0.00747504 0.0121806 0.00090169 -0.00150241 -5.70105e-11 -2.10427e-09 1.6651e-10 5e-05 5.23599e-10 
61 1 0.0465764 0.0173963 0.00746042 0.0124367 0.00103521 -0.00155913 1.87753e-10 5.06854e-10 -1.43506e-10 5e-05 5.23599e-10 
62 1 0.0526011 0.0174729 0.00731462 0.0122604 -0.00109725 -0.000210624 -2.08742e-09 2.00671e-09 -8.16135e-10 5e-05 5.23599e-10 
63 1 0.0468698 0.0171263 0.00749137 0.0119127 0.00116906 -0.00154577 -1.55552e-09 6.46266e-11 -5.35678e-10 5e-05 5.23599e-10 
64 1 0.0469351 0.0174101 0.00741898 0.0121773 0.000886679 -0.00150432 -1.59151e-09 8.04195e-10 -2.45139e-10 5e-05 5.23599e-10 
65 1 0.0526871 0.0178314 0.00715932 0.0124722 -0.000747308 -0.000353882 3.42872e-10 -6.00873e-11 2.02469e-10 5e-05 5.23599e-10 
66 1 0.0464794 0.0162028 0.00793187 0.0116955 0.00179769 -0.000536825 1.25382e-09 1.81347e-09 -3.06652e-09 5e-05 5.23599e-10 
67 1 0.0405868 0.0173852 0.00726435 0.0124612 -0.000821424 0.000794084 -4.095e-10 1.12657e-09 -3.25255e-10 5e-05 5.23599e-10 
68 1 0.0404202 0.0166431 0.00751212 0.0114858 -0.000582561 0.000642133 -1.77239e-09 9.73418e-10 5.75233e-10 5e-05 5.23599e-10 
69 1 0.0467808 0.017897 0.00732315 0.0124128 0.00109222 -0.00157557 6.27986e-10 1.22375e-09 -1.48089e-10 5e-05 5.23599e-10 
70 1 0.0467234 0.0172616 0.00747578 0.012258 0.00107402 -0.0015476 2.96932e-09 1.39693e-10 -5.33695e-10 5e-05 5.23599e-10 
71 1 0.047022 0.0177885 0.00732246 0.0123976 0.0010047 -0.00155308 -3.64518e-10 1.07816e-10 1.61422e-10 5e-05 5.23599e-10 
72 1 0.0406085 0.0174778 0.00723347 0.0124537 -0.00084103 0.000802237 1.49149e-10 4.43722e-10 -2.34796e-10 5e-05 5.23599e-10 
73 1 0.0406954 0.0178482 0.00710996 0.0124799 -0.00086265 0.000812636 -2.49329e-11 -3.15635e-10 1.35065e-10 5e-05 5.23599e-10 
74 1 0.0523406 0.0163514 0.00780003 0.0119126 0.00157994 -0.0013015 4.05243e-11 2.26104e-10 -1.03757e-10 5e-05 5.23599e-10 
75 1 0.0404391 0.0167362 0.00748095 0.0113763 -0.00062763 0.000640566 7.82201e-10 1.93599e-09 -1.21596e-09 5e-05 5.23599e-10 
76 1 0.0524662 0.0169109 0.00755814 0.0122592 0.000789789 -0.000932351 6.32e-09 -6.41557e-09 3.80563e-09 5e-05 5.23599e-10 
77 1 0.0524032 0.0166417 0.00767467 0.0115404 0.00111521 -0.00108491 -1.42722e-09 1.08265e-09 -2.04112e-09 5e-05 5.23599e-10 
78 1 0.0524232 0.0167316 0.00763578 0.012436 0.000477892 -0.000860348 -8.25424e-10 -1.11268e-09 5.35594e-10 5e-05 5.23599e-10 
79 1 0.0466198 0.0175854 0.00741218 0.0124398 0.00112325 -0.00158546 -1.75564e-09 -1.91984e-09 7.24262e-10 5e-05 5.23599e-10 
80 1 0.0526226 0.0175626 0.00727579 0.0121855 -0.000815989 -0.000295968 -2.109e-09 1.9741e-09 -7.57446e-10 5e-05 5.23599e-10 
81 1 0.0526656 0.0177418 0.00719814 0.0123909 -0.000766735 -0.000346259 4.42577e-10 1.17102e-10 1.79518e-10 5e-05 5.23599e-10 
82 1 0.0467097 0.0168155 0.00758011 0.0119958 0.00116262 -0.00155412 -1.89493e-09 8.52761e-10 -1.20844e-10 5e-05 5.23599e-10 
83 1 0.0465112 0.0171126 0.00753279 0.0123469 0.000882107 -0.00151289 1.07945e-09 -1.94906e-09 5.21704e-10 5e-05 5.23599e-10 
84 1 0.0464604 0.0161333 0.00800124 0.011592 0.0017737 -0.000508767 -2.94158e-10 2.7793e-09 -2.29324e-09 5e-05 5.23599e-10 
85 1 0.0465897 0.0169159 0.00765442 0.0120422 0.00112796 -0.00152657 -1.60242e-09 7.72062e-10 -6.17519e-10 5e-05 5.23599e-10 
86 1 0.0465546 0.0173017 0.00748455 0.0124416 0.00100216 -0.00154502 9.61483e-10 1.38331e-10 -2.34517e-10 5e-05 5.23599e-10 
87 1 0.0467314 0.0169101 0.00755598 0.0120149 0.0010993 -0.00154208 -1.80358e-09 -1.31005e-09 7.35162e-10 5e-05 5.23599e-10 
88 1 0.0527301 0.0180107 0.00708167 0.0125814 -0.000741285 -0.000355099 1.50799e-09 -8.38522e-10 9.71599e-10 5e-05 5.23599e-10 
89 1 0.0461564 0.0157427 0.00850874 0.0120166 -0.0014327 -0.00154993 -1.41734e-10 -8.65901e-11 -3.97496e-09 5e-05 5.23599e-10 
90 1 0.0471169 0.0178154 0.00730612 0.0123819 0.001036 -0.00155783 -2.25979e-10 -3.9882e-10 1.34928e-10 5e-05 5.23599e-10 
91 1 0.0462693 0.0160943 0.0080533 0.0117379 0.00181654 -0.000551512 1.73574e-09 -9.09409e-11 -1.09374e-10 5e-05 5.23599e-10 
92 1 0.046514 0.0163418 0.0077927 0.0117418 0.0018603 -0.000563228 1.67513e-09 2.42037e-09 -2.50569e-09 5e-05 5.23599e-10 
93 1 0.0462306 0.0159408 0.00817319 0.0116149 0.00182507 -0.000553977 -2.34579e-09 2.71738e-10 -1.33826e-09 5e-05 5.23599e-10 
94 1 0.0466799 0.0170724 0.00752405 0.0122739 0.000850443 -0.00150278 4.91307e-09 -2.72813e-09 6.90748e-10 5e-05 5.23599e-10 
95 1 0.0463454 0.0163889 0.00780961 0.0119467 0.00197093 -0.000324997 -1.27559e-10 -1.25754e-09 -5.35392e-10 5e-05 5.23599e-10 
96 1 0.0466066 0.01714 0.00751629 0.0124877 0.000978175 -0.00154979 2.52568e-09 -1.71982e-09 3.69177e-10 5e-05 5.23599e-10 
97 1 0.0466458 0.0165357 0.00766577 0.0121166 0.00162814 -0.00124701 -1.89107e-10 3.91502e-10 -2.68485e-09 5e-05 5.23599e-10 
98 1 0.0463257 0.016302 0.00785499 0.0118345 0.00186156 -0.00048418 4.73617e-10 2.83148e-10 -1.72719e-10 5e-05 5.23599e-10 
99 1 0.0467966 0.0171939 0.00748358 0.0120465 0.00101772 -0.00151781 4.01014e-09 -2.72544e-09 1.06731e-09 5e-05 5.23599e-10 
100 1 0.0470003 0.0176939 0.00734659 0.0123286 0.000892278 -0.00151758 -1.32823e-09 3.13863e-10 8.42936e-11 5e-05 5.23599e-10 
101 1 0.0469568 0.0175047 0.00739485 0.012275 0.000985362 -0.00152856 -1.8799e-09 6.20205e-10 5.00238e-11 5e-05 5.23599e-10 
102 1 0.046625 0.0164441 0.00770006 0.0119857 0.00192604 -0.000610957 -2.86835e-09 3.64292e-09 -1.37725e-09 5e-05 5.23599e-10 
103 1 0.0468321 0.0177346 0.00735514 0.0123372 0.00103043 -0.00154043 -2.74731e-10 9.34792e-10 -6.85789e-10 5e-05 5.23599e-10 
104 1 0.046943 0.0170586 0.00749917 0.0119804 0.00121883 -0.00155713 -1.89051e-09 8.40337e-10 -1.26419e-10 5e-05 5.23599e-10 
105 1 0.0468995 0.0168694 0.00754744 0.012077 0.00117202 -0.00156127 -1.98844e-09 8.94704e-10 1.26737e-10 5e-05 5.23599e-10 
106 1 0.0461743 0.0157769 0.00841652 0.0120096 -0.000391238 -0.00142627 1.28249e-09 -1.61007e-09 -7.98384e-10 5e-05 5.23599e-10 
107 1 0.046971 0.0179513 0.00729037 0.0123733 0.00103522 -0.00155625 2.66929e-10 8.70089e-10 -1.0032e-10 5e-05 5.23599e-10 
108 1 0.0526462 0.0172364 0.00741163 0.0126 0.000669086 -0.000957139 4.70609e-10 6.0752e-10 3.10769e-10 5e-05 5.23599e-10 
109 1 0.0465197 0.0167617 0.00761282 0.0122284 0.000943382 -0.00147544 5.39753e-09 1.46362e-09 5.06471e-10 5e-05 5.23599e-10 
110 1 0.0468263 0.0169371 0.00753964 0.0120317 0.00120207 -0.00155766 -1.95284e-09 8.72285e-10 3.62451e-11 5e-05 5.23599e-10 
111 1 0.0465329 0.0172071 0.00750867 0.0124746 0.000937198 -0.00153568 1.27006e-09 3.97072e-10 -4.18515e-10 5e-05 5.23599e-10 
112 1 0.0463261 0.0159678 0.00815632 0.011631 0.0017254 -0.000382218 -3.59564e-09 1.11629e-09 -6.16474e-10 5e-05 5.23599e-10 
113 1 0.0467829 0.0167478 0.00758792 0.0120325 0.00112453 -0.00153362 -2.05799e-09 9.35156e-10 3.0557e-10 5e-05 5.23599e-10 
114 1 0.0463062 0.0162148 0.00789981 0.0117552 0.00180946 -0.000548167 -1.56369e-09 -4.82668e-10 1.01292e-09 5e-05 5.23599e-10 
115 1 0.0470438 0.0178832 0.00729829 0.0123799 0.00103 -0.00155129 -1.40713e-10 -4.58515e-10 -8.80889e-11 5e-05 5.23599e-10 
116 1 0.046585 0.0170454 0.00754042 0.0119634 0.00108013 -0.00154392 -1.52833e-09 6.7522e-10 6.84322e-11 5e-05 5.23599e-10 
117 1 0.0466365 0.0168833 0.0075723 0.0119861 0.00098362 -0.00150823 -2.29508e-09 5.20945e-10 1.83764e-11 5e-05 5.23599e-10 
118 1 0.0468757 0.017924 0.00730682 0.0124211 0.00102931 -0.00156183 9.22729e-10 1.3259e-09 -5.12061e-10 5e-05 5.23599e-10 
119 1 0.046685 0.0178692 0.00733981 0.0124351 0.00116435 -0.00159744 2.96715e-12 5.23053e-10 -3.68999e-10 5e-05 5.23599e-10 
120 1 0.0463845 0.016552 0.00770098 0.0118385 0.00136986 -0.0012793 -4.51979e-10 -4.167e-09 -4.73158e-11 5e-05 5.23599e-10 
121 1 0.0464979 0.0166668 0.00763699 0.0120773 0.00117815 -0.00154163 -9.19721e-10 6.35071e-10 1.23163e-09 5e-05 5.23599e-10 
122 1 0.0468104 0.01764 0.00737926 0.0123073 0.00101459 -0.00154271 -4.18431e-10 1.1767e-09 -6.61761e-11 5e-05 5.23599e-10 
123 1 0.0466879 0.016721 0.00760424 0.0119602 0.00115727 -0.00154562 -1.92933e-09 8.68613e-10 -3.00192e-11 5e-05 5.23599e-10 
124 1 0.046446 0.0168289 0.0076052 0.0123334 0.000884125 -0.00144583 1.72463e-09 -3.92955e-09 1.29542e-09 5e-05 5.23599e-10 
125 1 0.0467887 0.0175454 0.00740339 0.012281 0.00101692 -0.00154673 2.22464e-10 6.85829e-10 -1.53711e-10 5e-05 5.23599e-10 
126 1 0.0471387 0.0179102 0.00728194 0.0123354 0.00101244 -0.00155721 2.40703e-10 -2.44025e-10 4.20777e-10 5e-05 5.23599e-10 
127 1 0.0465415 0.0168562 0.00758867 0.0121901 0.000954432 -0.00150899 4.6489e-09 2.42139e-09 -8.49834e-11 5e-05 5.23599e-10 
128 1 0.0466718 0.0174237 0.00744392 0.0124192 0.00111531 -0.00157751 -7.86734e-10 2.24854e-10 2.21209e-10 5e-05 5.23599e-10 
129 1 0.0469213 0.016964 0.00752332 0.012008 0.00120174 -0.00156473 -1.79301e-09 6.95971e-10 -2.22928e-10 5e-05 5.23599e-10 
130 1 0.0466148 0.0167887 0.00759643 0.0120197 0.000947546 -0.00149357 -9.26063e-10 5.2424e-10 -2.20173e-10 5e-05 5.23599e-10 
131 1 0.0469271 0.0177615 0.00733879 0.0123303 0.000928935 -0.00152915 -9.22247e-10 7.03825e-10 -9.9945e-11 5e-05 5.23599e-10 
132 1 0.0468836 0.0175724 0.00738705 0.0122456 0.000949344 -0.00152942 -1.29178e-09 7.12967e-10 -6.01312e-11 5e-05 5.23599e-10 
133 1 0.0467749 0.0170994 0.00750771 0.0119993 0.0011192 -0.00152398 -2.46706e-09 -1.05968e-09 1.47783e-09 5e-05 5.23599e-10 
134 1 0.0468481 0.0170317 0.0075155 0.0119692 0.00113906 -0.0015387 -1.78762e-09 5.24289e-10 1.01239e-10 5e-05 5.23599e-10 
135 1 0.0468046 0.0168424 0.00756378 0.0120447 0.00116687 -0.00156307 -1.61064e-09 4.86227e-10 -1.68783e-10 5e-05 5.23599e-10 
136 1 0.0466935 0.0175183 0.00741979 0.01243 0.00114675 -0.00159028 -6.89333e-10 -8.10481e-10 1.51053e-10 5e-05 5.23599e-10 
137 1 0.0470155 0.0181429 0.00724142 0.0123459 0.00114483 -0.00158087 9.92578e-10 1.4363e-09 -4.58563e-10 5e-05 5.23599e-10 
138 1 0.0467153 0.0176129 0.00739566 0.0124331 0.00116049 -0.0015949 -1.03975e-09 -1.52173e-09 3.37069e-10 5e-05 5.23599e-10 
139 1 0.046579 0.0162336 0.00791146 0.0115393 0.00171816 -0.000441059 2.50413e-09 1.35868e-09 7.89716e-10 5e-05 5.23599e-10 
140 1 0.0470659 0.0179782 0.00727402 0.0123661 0.00103491 -0.00156086 3.2413e-10 -7.49315e-10 -1.13438e-10 5e-05 5.23599e-10 
141 1 0.0406133 0.0170709 0.00737327 0.0123901 -0.000831162 0.000801955 -1.20139e-09 -4.08022e-10 7.06698e-10 5e-05 5.23599e-10 
142 1 0.0467519 0.016575 0.00763107 0.0120549 0.000732022 -0.0014564 -8.54516e-10 3.5654e-10 2.68976e-10 5e-05 5.23599e-10 
143 1 0.0467532 0.0170048 0.00753183 0.0119616 0.00116905 -0.00155709 -2.40177e-09 1.67561e-10 1.00003e-10 5e-05 5.23599e-10 
144 1 0.0407389 0.0180334 0.0070482 0.0125032 -0.000870655 0.000816381 -3.24338e-10 -7.19808e-11 -7.59223e-11 5e-05 5.23599e-10 
145 1 0.040652 0.017663 0.00717171 0.0124687 -0.000861794 0.000810289 2.2543e-10 2.04277e-10 -5.45707e-11 5e-05 5.23599e-10 
146 1 0.0468402 0.0173832 0.00743531 0.0121941 0.000897282 -0.00151254 -1.02696e-09 3.45548e-10 2.20439e-11 5e-05 5.23599e-10 
147 1 0.0468983 0.0180195 0.0072824 0.0123727 0.00105915 -0.00156313 -1.74905e-10 8.16285e-10 -1.09846e-10 5e-05 5.23599e-10 
148 1 0.0525092 0.0170901 0.00748049 0.0124348 0.00060366 -0.000921837 -1.706e-10 -3.66649e-10 3.92815e-10 5e-05 5.23599e-10 
149 1 0.0528103 0.0183703 0.0069262 0.0111229 -0.000433617 -0.000273523 2.20478e-10 -1.87845e-09 -6.61445e-10 5e-05 5.23599e-10 
150 1 0.0526821 0.0174173 0.0073337 0.0133516 0.00128831 -0.00125692 -2.29378e-09 1.74148e-09 -1.62873e-10 5e-05 5.23599e-10 
151 1 0.046759 0.0178023 0.00734732 0.0123469 0.00107385 -0.00156009 -3.48012e-10 1.57751e-10 3.99805e-10 5e-05 5.23599e-10 
152 1 0.0466583 0.0169778 0.00754817 0.0119711 0.000972072 -0.00147933 -6.8381e-10 -6.12854e-10 5.87392e-10 5e-05 5.23599e-10 
153 1 0.046854 0.0178293 0.00733096 0.0123692 0.0010019 -0.00155196 -2.56863e-10 7.78314e-10 -1.37702e-10 5e-05 5.23599e-10 
154 1 0.0467227 0.0169826 0.00762447 0.0121393 0.00101782 -0.00152499 -1.08706e-09 5.33734e-10 -1.7391e-10 5e-05 5.23599e-10 
155 1 0.0406966 0.0174342 0.00725205 0.0124424 -0.000817566 0.000794288 -9.27561e-10 6.34793e-10 -3.52276e-10 5e-05 5.23599e-10 
156 1 0.0467229 0.0164737 0.0076807 0.0120101 0.00174307 -0.000453698 -1.73956e-09 6.5991e-10 -1.6012e-09 5e-05 5.23599e-10 
157 1 0.0469209 0.0181151 0.00725795 0.0123987 0.00103097 -0.00156013 7.80404e-10 1.72716e-10 -1.13877e-10 5e-05 5.23599e-10 
158 1 0.0407171 0.0179408 0.00707908 0.0125 -0.000846574 0.000804437 2.23477e-10 -2.78132e-10 2.50806e-10 5e-05 5.23599e-10 
159 1 0.0467044 0.0164042 0.00775015 0.0118503 0.00179074 -0.000465346 -1.76375e-09 1.63066e-09 -1.87191e-09 5e-05 5.23599e-10 
160 1 0.0526678 0.0173261 0.00737279 0.0110934 0.00109523 -0.00105452 -1.80146e-09 1.30785e-09 -1.17932e-09 5e-05 5.23599e-10 
161 1 0.0469434 0.0182118 0.00723322 0.0122294 0.00102158 -0.00154178 1.49268e-10 -7.52674e-10 2.21495e-10 5e-05 5.23599e-10 
162 1 0.0467111 0.0178333 0.00742944 0.0122988 0.00114812 -0.00158876 -3.03574e-10 1.7155e-09 1.85651e-10 5e-05 5.23599e-10 
163 1 0.0468749 0.0182841 0.00722387 0.0123385 0.00105413 -0.00155613 5.07072e-10 -6.15943e-10 4.63592e-11 5e-05 5.23599e-10 
164 1 0.0466119 0.0163729 0.00777186 0.0117801 0.00184663 -0.000593476 -5.57239e-10 1.27757e-09 9.8294e-10 5e-05 5.23599e-10 
165 1 0.0404999 0.0170148 0.00738785 0.0124298 -0.000859166 0.000838349 -8.67805e-10 1.65292e-09 -6.16172e-10 5e-05 5.23599e-10 
166 1 0.0468917 0.017221 0.00746722 0.0121365 0.000877584 -0.00150461 1.32345e-09 -2.06833e-09 5.22571e-10 5e-05 5.23599e-10 
167 1 0.0405651 0.0172926 0.00729522 0.0124381 -0.000820795 0.000796412 -3.12044e-10 3.87345e-10 -6.55768e-12 5e-05 5.23599e-10 
168 1 0.046568 0.0168213 0.00767854 0.0121242 0.00107786 -0.0014678 -1.19706e-10 2.93302e-11 5.93358e-10 5e-05 5.23599e-10 
169 1 0.0467284 0.0180583 0.00729156 0.0124225 0.00112923 -0.0015914 8.06006e-11 5.08945e-10 -8.07122e-11 5e-05 5.23599e-10 
170 1 0.0468778 0.0167747 0.00757159 0.0120196 0.00115633 -0.00154644 -1.95562e-09 8.81958e-10 3.86816e-11 5e-05 5.23599e-10 
171 1 0.0405889 0.016973 0.00740588 0.0123527 -0.000789467 0.000779176 5.9771e-10 -7.60085e-10 -5.00694e-10 5e-05 5.23599e-10 
173 1 0.0467067 0.0179637 0.00731568 0.0124361 0.00114266 -0.00158958 7.19945e-10 1.05671e-09 -1.77191e-10 5e-05 5.23599e-10 
174 1 0.0404586 0.0168292 0.00744983 0.0119166 -0.000777094 0.000798839 -1.43496e-09 1.7784e-09 -2.19503e-10 5e-05 5.23599e-10 
175 1 0.0466663 0.0166267 0.00762973 0.0123112 0.00112687 -0.00223695 -8.31448e-10 -3.0934e-10 -1.38399e-09 5e-05 5.23599e-10 
176 1 0.0467936 0.018342 0.00721918 0.0123499 0.00100415 -0.00154625 2.67747e-10 -5.11195e-10 -3.72399e-12 5e-05 5.23599e-10 
177 1 0.0404782 0.0169222 0.00741873 0.0123474 -0.000770096 0.000892944 -6.51129e-09 3.47103e-09 -5.07639e-10 5e-05 5.23599e-10 
178 1 0.0468184 0.0172885 0.00745945 0.0121129 0.000917541 -0.00150129 1.77004e-09 -1.30982e-09 3.509e-11 5e-05 5.23599e-10 
179 1 0.046826 0.0180881 0.00727429 0.0123903 0.00107019 -0.00156774 7.97739e-10 1.01226e-09 -3.17146e-10 5e-05 5.23599e-10 
180 1 0.0405216 0.0171074 0.00735698 0.0124225 -0.00084491 0.000810777 3.53376e-10 -1.34561e-09 6.22358e-10 5e-05 5.23599e-10 
181 1 0.0406302 0.0175704 0.00720259 0.0124624 -0.000848502 0.000805081 1.32161e-10 4.74758e-10 -7.69307e-11 5e-05 5.23599e-10 
182 1 0.0467501 0.0181529 0.00726743 0.012405 0.00110122 -0.00157546 7.96479e-10 1.43149e-09 -4.68557e-10 5e-05 5.23599e-10 
183 1 0.0465981 0.0174909 0.0074363 0.0124311 0.00107074 -0.00156385 -8.54188e-10 -1.21352e-09 7.27797e-10 5e-05 5.23599e-10 
184 1 0.0406737 0.0177556 0.00714084 0.0124829 -0.000861998 0.000812219 1.81011e-11 -2.62601e-10 6.55686e-11 5e-05 5.23599e-10 
185 1 0.0405671 0.0168801 0.00743683 0.0120788 -0.000581282 0.000602225 9.08812e-09 -6.81352e-09 2.22381e-11 5e-05 5.23599e-10 
186 1 0.0467719 0.0182475 0.00724331 0.0123868 0.00105079 -0.00156646 1.00365e-11 9.05401e-10 -5.39123e-11 5e-05 5.23599e-10 
187 1 0.0406356 0.0171649 0.00734195 0.0124479 -0.000819947 0.00079215 -1.97703e-10 -1.29973e-10 1.97854e-10 5e-05 5.23599e-10 
188 1 0.0469489 0.0178563 0.00731463 0.0123892 0.0010173 -0.00155594 -3.30026e-10 3.41361e-10 -1.27382e-10 5e-05 5.23599e-10 
189 1 0.0404007 0.0165544 0.00755403 0.0113911 -0.00038963 0.00114178 -3.08549e-09 3.38074e-09 6.08832e-09 5e-05 5.23599e-10 
190 1 0.0467364 0.0174287 0.00752011 0.0124015 0.00100058 -0.00151431 -5.63066e-10 5.0277e-11 5.85813e-10 5e-05 5.23599e-10 
