ITEM: TIMESTEP
4600000
ITEM: NUMBER OF ATOMS
188
ITEM: BOX BOUNDS ff ff ff
-0.02 0.43
-0.02 0.06
-0.02 0.07
ITEM: ATOMS id type x y z vx vy vz fx fy fz radius mass 
1 1 0.068171 0.0165573 0.00773144 0.0111037 -0.000837033 0.000283212 -3.59815e-10 -4.95558e-10 4.50125e-10 5e-05 5.23599e-10 
2 1 0.0738133 0.0158828 0.00825632 0.0125468 -0.000776465 -0.00024604 -5.6143e-10 1.49993e-09 5.52117e-10 5e-05 5.23599e-10 
3 1 0.0678919 0.0158125 0.00826198 0.0128705 -0.000756698 0.000161938 -1.25165e-09 -2.79785e-10 6.47048e-11 5e-05 5.23599e-10 
4 1 0.0741857 0.0173836 0.00722868 0.0115281 -6.46408e-05 -8.28837e-07 -2.36889e-10 -8.17066e-10 6.0932e-10 5e-05 5.23599e-10 
5 1 0.06802 0.0166666 0.007659 0.011254 -0.000784404 0.000224226 -1.02261e-10 -9.94874e-10 5.08847e-10 5e-05 5.23599e-10 
6 1 0.068504 0.0175834 0.00713754 0.0116512 -0.000894603 0.000436056 -2.85221e-09 4.43258e-12 9.97876e-11 5e-05 5.23599e-10 
7 1 0.0738347 0.0159608 0.00819749 0.012585 -0.00075168 -0.000281898 -1.61505e-09 -3.67658e-10 2.63231e-09 5e-05 5.23599e-10 
8 1 0.0683216 0.0172023 0.00727457 0.0113169 -0.000874059 0.000319997 1.82749e-09 -4.53397e-10 -3.4054e-10 5e-05 5.23599e-10 
9 1 0.0677324 0.01555 0.00845269 0.0127038 -0.000923825 0.00110876 -3.05435e-09 3.89743e-09 -8.49633e-10 5e-05 5.23599e-10 
10 1 0.068056 0.0164518 0.00780876 0.0117018 -0.000849028 0.000265424 7.90223e-10 3.81269e-10 2.36721e-10 5e-05 5.23599e-10 
11 1 0.0679743 0.0161323 0.00803527 0.0115162 -0.000941375 0.000313824 -2.33286e-09 1.53853e-09 6.91377e-10 5e-05 5.23599e-10 
12 1 0.0738776 0.0161168 0.00807984 0.0121944 -0.000452726 -0.000535822 -1.33234e-09 4.5132e-09 -4.5103e-10 5e-05 5.23599e-10 
13 1 0.0680584 0.0168268 0.00754554 0.0109791 -0.000760004 0.000228227 -4.99165e-10 -8.49082e-10 6.86602e-10 5e-05 5.23599e-10 
14 1 0.0685475 0.0177786 0.00713663 0.0120021 -0.000970262 0.000485172 9.7765e-10 4.35976e-10 -2.81678e-10 5e-05 5.23599e-10 
15 1 0.0740571 0.0168106 0.007536 0.0112107 -5.26006e-05 3.77205e-05 -4.75932e-10 -1.28114e-09 5.97675e-10 5e-05 5.23599e-10 
16 1 0.0683891 0.0178996 0.0071288 0.0121405 -0.000873408 0.000504808 1.61055e-11 -1.56191e-09 7.07584e-11 5e-05 5.23599e-10 
17 1 0.0743088 0.0179706 0.00724227 0.0120512 -0.000255066 -0.000645137 -6.61749e-10 3.33781e-09 -1.50388e-09 5e-05 5.23599e-10 
18 1 0.067796 0.0157882 0.00828181 0.0125962 -0.00125689 0.000496976 5.3038e-10 -1.32981e-09 1.52068e-09 5e-05 5.23599e-10 
19 1 0.06239 0.0179292 0.00714454 0.0123775 0.000240894 -0.000451616 6.06208e-10 -5.3105e-10 -8.74383e-11 5e-05 5.23599e-10 
20 1 0.0681317 0.0163973 0.00784483 0.011649 -0.000932657 0.000318608 -8.31006e-10 5.86788e-10 -3.46962e-10 5e-05 5.23599e-10 
21 1 0.0740383 0.016735 0.00759864 0.0113918 -0.000104114 2.88078e-05 -1.47686e-09 -1.33022e-09 -2.17395e-10 5e-05 5.23599e-10 
22 1 0.068229 0.0171727 0.00729797 0.0113057 -0.000991941 0.000361353 1.95446e-10 -9.69646e-10 1.44801e-09 5e-05 5.23599e-10 
23 1 0.0678172 0.0158679 0.00822527 0.0124264 -0.00119876 0.000486929 1.9041e-11 3.7503e-10 1.92991e-09 5e-05 5.23599e-10 
25 1 0.0740756 0.0168861 0.00747313 0.0112856 -3.96856e-05 2.69709e-05 2.04127e-10 -1.64774e-09 -1.99557e-10 5e-05 5.23599e-10 
26 1 0.0678585 0.0160275 0.00811209 0.0115414 -0.00100392 0.000363819 6.89656e-10 -1.55218e-10 -2.61945e-10 5e-05 5.23599e-10 
27 1 0.0678991 0.0161872 0.00799884 0.0115157 -0.000948619 0.000331655 -7.60437e-10 1.00225e-09 2.67402e-10 5e-05 5.23599e-10 
28 1 0.0684788 0.0182945 0.00712706 0.012145 -0.000840323 0.000487776 -2.23637e-10 6.36115e-10 1.07431e-10 5e-05 5.23599e-10 
29 1 0.0738988 0.0161948 0.008021 0.0121511 -0.000361376 -0.000606105 9.98948e-10 1.98787e-10 2.35894e-10 5e-05 5.23599e-10 
30 1 0.0680953 0.0166118 0.00769532 0.0111777 -0.00078043 0.000236371 1.29049e-10 -1.5565e-09 3.06301e-10 5e-05 5.23599e-10 
31 1 0.0680007 0.0165866 0.00771572 0.0113414 -0.000773096 0.000217957 -4.71572e-09 -3.60211e-10 9.43031e-10 5e-05 5.23599e-10 
32 1 0.0739602 0.01643 0.00784518 0.011346 -0.000415512 -0.000577481 -3.05527e-10 -9.07157e-10 8.48816e-10 5e-05 5.23599e-10 
33 1 0.068076 0.0165318 0.00775206 0.0113526 -0.000781065 0.000226328 2.30155e-11 1.77903e-09 -1.32737e-09 5e-05 5.23599e-10 
34 1 0.0680356 0.0163719 0.00786542 0.0115767 -0.0009118 0.000319577 -3.45572e-11 2.75978e-10 9.704e-11 5e-05 5.23599e-10 
35 1 0.0679539 0.0160524 0.00809189 0.0115513 -0.000877136 0.000268108 3.48753e-10 9.31967e-10 -1.15775e-09 5e-05 5.23599e-10 
36 1 0.0742235 0.0175799 0.00723406 0.0118353 -0.0001572 4.80989e-05 2.50461e-10 1.39235e-09 3.86196e-10 5e-05 5.23599e-10 
37 1 0.0680151 0.016292 0.00792204 0.0115582 -0.000967013 0.000336522 6.19087e-10 -2.23705e-10 -1.03385e-09 5e-05 5.23599e-10 
38 1 0.0681904 0.0166374 0.00767472 0.0110475 -0.000833235 0.000272101 -2.39233e-09 1.59074e-10 2.97435e-10 5e-05 5.23599e-10 
39 1 0.0681719 0.0169323 0.00746826 0.0111106 -0.000821765 0.000259513 -2.4886e-10 6.91327e-10 -6.50149e-10 5e-05 5.23599e-10 
40 1 0.0679604 0.0164268 0.007829 0.0116274 -0.000896483 0.000295733 -1.09926e-10 4.36393e-10 -1.0559e-09 5e-05 5.23599e-10 
41 1 0.0684327 0.0180952 0.00712791 0.0121924 -0.000827403 0.000493285 -1.91393e-09 2.05846e-09 -3.23981e-10 5e-05 5.23599e-10 
42 1 0.068313 0.0173797 0.00715036 0.0115502 -0.000872351 0.00028553 1.39094e-09 1.37219e-09 -2.67302e-09 5e-05 5.23599e-10 
43 1 0.0742655 0.0177754 0.00723931 0.0119968 -0.000187973 4.12419e-05 -9.8163e-10 -6.4224e-10 1.39456e-10 5e-05 5.23599e-10 
44 1 0.067913 0.0158926 0.00820524 0.0122923 -0.000755578 0.000183657 -9.89435e-10 1.81433e-09 -6.74204e-10 5e-05 5.23599e-10 
45 1 0.0682265 0.0175661 0.00712688 0.0113888 -0.000936891 0.000456636 1.15734e-09 1.74752e-09 4.5399e-11 5e-05 5.23599e-10 
46 1 0.0621199 0.0170927 0.00736972 0.0115319 0.000361897 2.89895e-05 -4.38751e-10 1.21991e-09 -3.56857e-10 5e-05 5.23599e-10 
47 1 0.0741455 0.0171102 0.00728713 0.0116204 -2.29934e-05 5.59252e-06 5.59637e-11 2.45414e-11 -9.35254e-10 5e-05 5.23599e-10 
48 1 0.0682284 0.0167976 0.00756122 0.0110409 -0.000794201 0.000248259 1.67056e-09 -8.40688e-10 -5.30317e-11 5e-05 5.23599e-10 
49 1 0.0682094 0.0167175 0.00761797 0.0109434 -0.000775061 0.000235207 -2.5219e-10 -5.79907e-10 -2.70054e-11 5e-05 5.23599e-10 
50 1 0.068246 0.0172569 0.00723841 0.0113664 -0.000883759 0.00029859 5.18771e-10 6.72175e-10 -1.04253e-09 5e-05 5.23599e-10 
51 1 0.0682465 0.0165026 0.00776767 0.0111087 -0.000841002 0.000284334 2.02783e-09 -7.15753e-10 2.59703e-10 5e-05 5.23599e-10 
52 1 0.0619657 0.0164598 0.00783401 0.0118106 0.000157815 0.000189573 8.9261e-11 1.01751e-09 -5.6534e-10 5e-05 5.23599e-10 
53 1 0.0679949 0.0162121 0.00797867 0.0115409 -0.000984418 0.000305886 -1.8365e-09 5.41129e-10 1.07002e-10 5e-05 5.23599e-10 
54 1 0.0683735 0.0174576 0.00713409 0.0114687 -0.000712512 0.000482775 4.00465e-10 -1.16634e-10 1.57407e-10 5e-05 5.23599e-10 
55 1 0.0740001 0.0165839 0.00772401 0.0118348 -6.13226e-05 -2.9793e-05 -4.09492e-09 1.44936e-09 -7.8362e-09 5e-05 5.23599e-10 
56 1 0.0680774 0.0169069 0.00748879 0.0111223 -0.00083076 0.000272189 -1.07771e-09 -2.07418e-09 1.20039e-09 5e-05 5.23599e-10 
57 1 0.0742438 0.0176778 0.00723666 0.0120424 -0.000200246 1.2133e-05 2.63073e-10 6.12061e-10 -1.75509e-10 5e-05 5.23599e-10 
58 1 0.0682128 0.0175039 0.00720395 0.0114934 -0.000970936 0.000506118 8.09766e-10 -5.68015e-12 -3.73933e-10 5e-05 5.23599e-10 
59 1 0.0683209 0.0175991 0.00713014 0.0113361 -0.000747517 0.000451366 -5.68457e-11 -1.68417e-09 -4.71303e-10 5e-05 5.23599e-10 
60 1 0.0685792 0.0175158 0.00714138 0.0116897 -0.00103132 0.000529653 -4.99715e-10 -5.31909e-10 -2.64295e-10 5e-05 5.23599e-10 
61 1 0.0681534 0.0172273 0.0072618 0.0113906 -0.000933353 0.00032472 -6.15759e-10 -4.02669e-10 -8.0036e-10 5e-05 5.23599e-10 
62 1 0.0740942 0.0169618 0.00741046 0.0113791 -9.7083e-06 7.24986e-06 9.25491e-10 -1.87396e-09 8.65202e-10 5e-05 5.23599e-10 
63 1 0.0685403 0.0173308 0.00718711 0.0112165 -0.00094182 0.00046554 1.49025e-09 -8.37941e-10 -7.46109e-10 5e-05 5.23599e-10 
64 1 0.0686001 0.0176136 0.00714089 0.0118189 -0.00103159 0.000506061 1.11503e-09 -9.88323e-10 -1.00841e-09 5e-05 5.23599e-10 
65 1 0.0741674 0.0172854 0.00722601 0.0115856 -7.03968e-05 9.96437e-06 -1.11727e-09 5.67132e-10 -5.54973e-10 5e-05 5.23599e-10 
66 1 0.0681113 0.0163175 0.00790145 0.0115388 -0.000948 0.000340703 6.23872e-10 4.30519e-10 -7.38797e-10 5e-05 5.23599e-10 
67 1 0.0621593 0.0172508 0.00725377 0.0115166 0.000342853 1.77842e-05 -6.02742e-11 -5.76691e-11 -1.76977e-09 5e-05 5.23599e-10 
68 1 0.0620055 0.0166178 0.0077181 0.0110612 0.000334972 6.03653e-05 -1.48079e-09 -1.30287e-09 5.51287e-10 5e-05 5.23599e-10 
69 1 0.0683667 0.0178012 0.00712924 0.0120979 -0.000895862 0.000498906 1.02627e-09 7.40159e-10 2.96019e-10 5e-05 5.23599e-10 
70 1 0.0683318 0.0172978 0.00720728 0.0114357 -0.000931174 0.000345857 2.37088e-09 -6.94807e-10 -2.3385e-10 5e-05 5.23599e-10 
71 1 0.0686862 0.0180039 0.00713906 0.0121458 -0.000918662 0.000492191 -8.25219e-10 1.20956e-09 -1.25908e-10 5e-05 5.23599e-10 
72 1 0.062177 0.0173304 0.00719592 0.0117213 0.000342441 6.62712e-05 -2.35564e-10 -3.12316e-10 -8.27764e-10 5e-05 5.23599e-10 
73 1 0.0622535 0.0177034 0.00713783 0.0122866 0.000220973 -0.000444535 -7.84884e-10 1.92499e-10 2.44904e-10 5e-05 5.23599e-10 
74 1 0.0738561 0.0160388 0.00813866 0.0124484 -0.000666138 -0.000359236 -1.4296e-10 7.29534e-10 2.33633e-09 5e-05 5.23599e-10 
75 1 0.0620248 0.016697 0.00766007 0.0112461 0.000251225 9.53523e-05 1.16163e-09 6.79334e-11 1.79324e-09 5e-05 5.23599e-10 
76 1 0.0739807 0.016508 0.00778609 0.0116512 -0.000258345 -0.000376247 4.64546e-09 6.17672e-10 -2.5208e-09 5e-05 5.23599e-10 
77 1 0.0739191 0.016273 0.00796208 0.0119372 -0.000382967 -0.000545377 -7.99162e-09 -2.50353e-10 1.84872e-09 5e-05 5.23599e-10 
78 1 0.0739394 0.0163512 0.00790316 0.0113569 -0.000394482 -0.000526574 3.73003e-09 7.12493e-10 3.21635e-09 5e-05 5.23599e-10 
79 1 0.0681915 0.0174233 0.00725923 0.0114614 -0.000970882 0.00052198 -1.07122e-09 -8.95231e-10 1.85571e-10 5e-05 5.23599e-10 
80 1 0.0741142 0.0170371 0.00734786 0.0115051 -1.24839e-05 2.93333e-07 4.09788e-10 -1.20371e-09 7.72329e-10 5e-05 5.23599e-10 
81 1 0.0741492 0.0171871 0.00722334 0.0116454 -3.90624e-05 -1.23412e-05 -5.60837e-10 -1.66191e-10 -9.04105e-10 5e-05 5.23599e-10 
82 1 0.068361 0.0169832 0.00742719 0.0112159 -0.00100785 0.000391757 -9.43568e-10 7.11965e-10 -5.39032e-10 5e-05 5.23599e-10 
83 1 0.0680964 0.016987 0.00743203 0.0111741 -0.000874341 0.00029889 -3.63713e-10 -2.92873e-09 1.89369e-09 5e-05 5.23599e-10 
84 1 0.0680909 0.0162376 0.00795806 0.011427 -0.000976667 0.000370849 1.38444e-09 -6.7468e-10 -2.92931e-10 5e-05 5.23599e-10 
85 1 0.0682782 0.0173581 0.00726631 0.011409 -0.000873286 0.000315434 1.77613e-09 4.07739e-10 -2.25541e-10 5e-05 5.23599e-10 
86 1 0.0681345 0.0171473 0.00731865 0.0113073 -0.000904542 0.000331318 -8.31239e-10 -3.57921e-10 -2.72805e-10 5e-05 5.23599e-10 
87 1 0.06838 0.0170633 0.00737043 0.0112877 -0.000999856 0.000376894 -5.74714e-10 1.41253e-09 -8.63264e-10 5e-05 5.23599e-10 
88 1 0.0742043 0.0174819 0.00723134 0.0115821 -8.30739e-05 1.03444e-05 1.08088e-09 4.55691e-10 -4.52591e-10 5e-05 5.23599e-10 
89 1 0.0677536 0.0156287 0.00839489 0.012688 -0.00146064 0.00038512 1.53914e-09 -7.55126e-10 -4.25959e-09 5e-05 5.23599e-10 
90 1 0.0685593 0.0182353 0.007131 0.0120907 -0.000922488 0.000483723 -1.59546e-09 1.83372e-10 -4.2298e-11 5e-05 5.23599e-10 
91 1 0.0678787 0.0161074 0.00805545 0.0114691 -0.000962314 0.0003395 -7.84318e-10 5.70389e-10 4.67942e-10 5e-05 5.23599e-10 
92 1 0.0681516 0.0164773 0.00778816 0.0112479 -0.000879787 0.000299205 9.2746e-10 8.37083e-10 -3.22946e-10 5e-05 5.23599e-10 
93 1 0.067838 0.0159477 0.00816869 0.0119396 -0.00108488 0.00041128 -5.8303e-10 5.27425e-10 9.18815e-11 5e-05 5.23599e-10 
94 1 0.0683045 0.017118 0.00733422 0.0112746 -0.000930595 0.000341233 9.48228e-10 4.76287e-10 4.70876e-11 5e-05 5.23599e-10 
95 1 0.068293 0.0174471 0.00722312 0.0114955 -0.000824299 0.000407359 -4.86041e-10 6.69826e-10 1.2435e-09 5e-05 5.23599e-10 
96 1 0.06821 0.0170925 0.00735477 0.0112763 -0.000914796 0.000323512 -2.21836e-10 1.0442e-09 -8.18743e-10 5e-05 5.23599e-10 
97 1 0.0683039 0.0167429 0.00759745 0.0109788 -0.000897508 0.000326093 5.77974e-10 -2.59806e-09 1.80528e-09 5e-05 5.23599e-10 
98 1 0.0679399 0.016347 0.00788561 0.011568 -0.000940688 0.000323542 8.56975e-10 2.28182e-10 -4.02192e-10 5e-05 5.23599e-10 
99 1 0.0684302 0.0173108 0.00719537 0.0114914 -0.00095626 0.000375855 2.69657e-09 3.9287e-10 -3.25509e-10 5e-05 5.23599e-10 
100 1 0.0686645 0.0179062 0.00713951 0.0121458 -0.000884819 0.000497443 -1.72011e-09 -7.0132e-10 1.20422e-10 5e-05 5.23599e-10 
101 1 0.0686428 0.0178085 0.00713997 0.0121056 -0.00097291 0.000490206 -2.91133e-09 2.89204e-10 1.69989e-10 5e-05 5.23599e-10 
102 1 0.0682849 0.0166628 0.0076542 0.0108977 -0.000866247 0.00028974 -8.74623e-10 -6.25961e-09 4.61308e-09 5e-05 5.23599e-10 
103 1 0.0684506 0.0177468 0.00713325 0.0119858 -0.00090072 0.000485221 3.13028e-09 9.45253e-10 7.32909e-11 5e-05 5.23599e-10 
104 1 0.0686534 0.0174489 0.00714518 0.0115989 -0.0011599 0.000479687 -3.84789e-10 6.8328e-10 -2.19497e-10 5e-05 5.23599e-10 
105 1 0.0686142 0.017271 0.00721811 0.0112805 -0.000957703 0.000362433 -2.72652e-10 3.58027e-10 -1.41779e-09 5e-05 5.23599e-10 
106 1 0.0677748 0.0157085 0.00833834 0.0125158 -0.00126701 0.000499013 -1.3571e-09 -1.00411e-09 -1.94589e-09 5e-05 5.23599e-10 
107 1 0.0686125 0.0180714 0.00713527 0.0120664 -0.000972338 0.000487334 -1.08799e-09 8.61066e-10 3.99274e-11 5e-05 5.23599e-10 
108 1 0.0742171 0.0170564 0.00733163 0.0115763 3.46209e-06 -3.99239e-06 -6.68883e-10 1.48696e-09 -1.1204e-09 5e-05 5.23599e-10 
109 1 0.0681339 0.0167721 0.00758176 0.0110064 -0.000702813 0.000184873 1.18182e-09 1.38437e-09 -7.1455e-10 5e-05 5.23599e-10 
110 1 0.0684934 0.0171682 0.0072937 0.0112718 -0.00107616 0.000358493 2.42375e-10 -2.93347e-10 9.2502e-10 5e-05 5.23599e-10 
111 1 0.0681154 0.0170671 0.00737529 0.0111726 -0.000886873 0.000325848 -2.71275e-10 -2.20925e-09 1.74074e-09 5e-05 5.23599e-10 
112 1 0.0679337 0.0159725 0.00814853 0.0117291 -0.00090377 0.000285381 -1.9832e-09 -1.15675e-09 2.29737e-09 5e-05 5.23599e-10 
113 1 0.0684558 0.0170079 0.00740719 0.0110225 -0.00110855 0.000480262 -7.02496e-10 6.63139e-10 -5.88702e-10 5e-05 5.23599e-10 
114 1 0.0679197 0.0162671 0.00794224 0.0115483 -0.000957617 0.000343425 9.89491e-10 8.69549e-10 2.27429e-10 5e-05 5.23599e-10 
115 1 0.0687078 0.0181016 0.00713861 0.0120509 -0.0010055 0.0004828 -9.5153e-10 1.23407e-09 1.14032e-10 5e-05 5.23599e-10 
116 1 0.068191 0.0170124 0.00741152 0.0112061 -0.000869042 0.000292602 -1.11526e-10 1.42301e-09 -6.30299e-10 5e-05 5.23599e-10 
117 1 0.0682665 0.0169578 0.00744773 0.0111758 -0.000870804 0.000295087 -6.09695e-10 -1.19554e-09 7.50242e-10 5e-05 5.23599e-10 
118 1 0.068494 0.017942 0.00713235 0.0121261 -0.000861838 0.000500429 -1.11964e-09 1.07724e-10 -1.1338e-10 5e-05 5.23599e-10 
119 1 0.0682452 0.0176643 0.0071263 0.011661 -0.000988598 0.000439794 -6.87967e-10 2.87738e-09 -1.33333e-10 5e-05 5.23599e-10 
120 1 0.0679808 0.0165067 0.00777239 0.0117058 -0.000849152 0.000273913 1.27925e-09 1.21093e-09 -1.10319e-09 5e-05 5.23599e-10 
121 1 0.0681148 0.0166919 0.00763856 0.0110867 -0.000792481 0.00024315 7.84863e-11 8.17334e-10 -3.2259e-10 5e-05 5.23599e-10 
122 1 0.0684285 0.0176493 0.00713369 0.0116423 -0.000796396 0.000469003 3.25047e-09 -1.09347e-09 1.11535e-10 5e-05 5.23599e-10 
123 1 0.0683419 0.0169031 0.00748395 0.0111316 -0.000868827 0.000294721 -3.4243e-09 -5.97576e-09 4.31953e-09 5e-05 5.23599e-10 
124 1 0.0680394 0.0167467 0.00760229 0.0110668 -0.000749122 0.00021976 3.00435e-10 -6.22856e-10 3.92255e-10 5e-05 5.23599e-10 
125 1 0.0684086 0.0175513 0.00713421 0.0114082 -0.000724765 0.000433768 5.84261e-10 -2.86575e-10 7.00756e-10 5e-05 5.23599e-10 
126 1 0.0686341 0.018169 0.00713482 0.0120618 -0.00096081 0.000486703 -1.70476e-09 1.19262e-10 -1.19498e-10 5e-05 5.23599e-10 
127 1 0.0681529 0.0168522 0.00752501 0.0110146 -0.000772545 0.00022679 3.83427e-10 4.11643e-10 -3.88457e-10 5e-05 5.23599e-10 
128 1 0.0682281 0.0173376 0.00718225 0.0114663 -0.000840508 0.000244736 4.51099e-10 1.34328e-09 3.58948e-11 5e-05 5.23599e-10 
129 1 0.0686344 0.017352 0.00716069 0.0112968 -0.00114669 0.000480541 1.26272e-09 1.09661e-09 -1.04896e-09 5e-05 5.23599e-10 
130 1 0.0682474 0.0168777 0.00750447 0.0111504 -0.000837915 0.000287421 8.01181e-10 -1.16009e-09 6.68565e-10 5e-05 5.23599e-10 
131 1 0.0685692 0.0178762 0.00713618 0.0121304 -0.000991373 0.000481396 -8.58607e-10 7.29278e-10 -7.12524e-11 5e-05 5.23599e-10 
132 1 0.0685262 0.0176809 0.0071371 0.0118226 -0.000958965 0.000476961 2.61544e-10 2.56435e-10 -8.54208e-10 5e-05 5.23599e-10 
133 1 0.0684151 0.0172301 0.00725243 0.0112745 -0.000982025 0.000346864 1.93221e-09 1.13266e-09 -1.32525e-10 5e-05 5.23599e-10 
134 1 0.0685166 0.0172487 0.00723902 0.0111996 -0.000991756 0.00042008 1.4933e-10 1.49529e-10 7.69086e-10 5e-05 5.23599e-10 
135 1 0.0684748 0.017088 0.00735043 0.0112133 -0.00109215 0.000437674 -5.46464e-11 -3.86127e-10 -4.13752e-10 5e-05 5.23599e-10 
136 1 0.0681984 0.0174162 0.00712798 0.011571 -0.000813861 0.000241569 3.26496e-11 6.78215e-11 1.03732e-09 5e-05 5.23599e-10 
137 1 0.068416 0.0184454 0.00712258 0.0121117 -0.000862754 0.000485924 4.90837e-10 5.77785e-10 2.62402e-11 5e-05 5.23599e-10 
138 1 0.0682759 0.0174792 0.00712997 0.0114747 -0.00079685 0.000454173 -2.60897e-09 -1.73291e-09 3.41441e-10 5e-05 5.23599e-10 
139 1 0.0682271 0.0164226 0.0078244 0.0112055 -0.000864283 0.000281491 1.14883e-09 1.25733e-10 2.40787e-10 5e-05 5.23599e-10 
140 1 0.0685377 0.0181377 0.00713146 0.0120505 -0.000960312 0.000489428 -4.56293e-10 6.14392e-10 -4.42834e-11 5e-05 5.23599e-10 
141 1 0.0623287 0.0176377 0.0071316 0.0120223 5.1854e-05 -0.000451978 -7.37011e-11 1.90243e-10 -1.7531e-10 5e-05 5.23599e-10 
142 1 0.0684368 0.0169279 0.00746401 0.0108558 -0.0011168 0.000443816 4.08913e-09 3.05449e-09 -2.84099e-09 5e-05 5.23599e-10 
143 1 0.068397 0.0171476 0.00731081 0.0112528 -0.000968728 0.000372693 1.51945e-09 -1.53995e-09 1.07763e-09 5e-05 5.23599e-10 
144 1 0.0622947 0.0178989 0.00714651 0.0124326 0.000175121 -0.000443211 1.88695e-09 -1.38691e-09 -2.64709e-10 5e-05 5.23599e-10 
145 1 0.0622149 0.0175073 0.00713082 0.0117064 0.000319693 -0.000328231 -5.91609e-10 -2.24642e-10 -8.70784e-10 5e-05 5.23599e-10 
146 1 0.0684838 0.0174854 0.00713804 0.0114504 -0.000818378 0.000475427 -2.26534e-10 -2.6934e-10 3.4424e-10 5e-05 5.23599e-10 
147 1 0.0685157 0.0180396 0.0071319 0.0121576 -0.000886252 0.000492882 -1.55299e-09 2.45047e-09 -3.13573e-10 5e-05 5.23599e-10 
148 1 0.0740204 0.0166595 0.00766176 0.0117726 -0.000190168 -3.02889e-05 1.67042e-09 2.03663e-09 -1.49608e-09 5e-05 5.23599e-10 
149 1 0.0742871 0.017873 0.00724196 0.0119878 -0.0002207 -1.11251e-05 -1.44126e-09 -1.31487e-09 8.39877e-10 5e-05 5.23599e-10 
150 1 0.0742445 0.0172217 0.00722445 0.0116121 -4.13677e-05 1.97674e-05 1.3386e-10 6.71413e-10 1.08852e-09 5e-05 5.23599e-10 
151 1 0.0683399 0.0176972 0.00712958 0.012397 -0.00092646 0.000495959 -5.26233e-09 -1.86664e-09 -5.88399e-10 5e-05 5.23599e-10 
152 1 0.0682855 0.0170379 0.00739098 0.0112355 -0.000928816 0.000322495 -4.42509e-10 3.22721e-10 -6.41337e-10 5e-05 5.23599e-10 
153 1 0.0684723 0.0178444 0.0071328 0.0121003 -0.00085719 0.000485889 -1.76475e-10 -1.34768e-09 3.74117e-10 5e-05 5.23599e-10 
154 1 0.0683973 0.0174103 0.00721892 0.0114656 -0.000877238 0.000431198 -6.49035e-10 1.16237e-09 -1.68296e-09 5e-05 5.23599e-10 
155 1 0.0623163 0.0179964 0.0071508 0.012387 0.000197365 -0.000446538 9.10283e-12 -1.10712e-09 -8.82896e-11 5e-05 5.23599e-10 
156 1 0.0684178 0.0168477 0.00752069 0.0108036 -0.00114938 0.000490207 3.37699e-09 1.81608e-09 -2.03441e-09 5e-05 5.23599e-10 
157 1 0.0684552 0.018194 0.00712747 0.012096 -0.000888979 0.0004905 -2.91363e-10 1.3825e-09 -1.09517e-10 5e-05 5.23599e-10 
158 1 0.0622731 0.0178013 0.00714222 0.0124691 0.00018885 -0.00044516 -1.1258e-10 -6.47319e-10 2.87467e-11 5e-05 5.23599e-10 
159 1 0.0683987 0.0167676 0.00757743 0.0108906 -0.00110223 0.000442162 -6.31478e-10 4.6282e-09 -2.97277e-09 5e-05 5.23599e-10 
160 1 0.0742413 0.0171321 0.00726872 0.0115798 -6.74032e-05 1.82532e-05 -9.47339e-10 3.73963e-10 1.03076e-09 5e-05 5.23599e-10 
161 1 0.0683943 0.0183478 0.00712303 0.0121378 -0.00084846 0.000489361 3.50861e-10 9.10072e-10 7.52727e-11 5e-05 5.23599e-10 
162 1 0.0683267 0.0177563 0.00720914 0.0121751 -0.000994433 0.000511312 -7.1242e-10 -3.30216e-10 7.66291e-10 5e-05 5.23599e-10 
163 1 0.0683726 0.0182502 0.00712349 0.012154 -0.000831854 0.000493542 8.55056e-11 1.82116e-09 -1.95521e-11 5e-05 5.23599e-10 
164 1 0.0682659 0.0165827 0.00771096 0.0111784 -0.000840654 0.000270072 -9.03974e-10 8.1494e-10 -1.14493e-09 5e-05 5.23599e-10 
165 1 0.0620817 0.0169344 0.00748585 0.011337 0.000342412 2.31524e-05 8.87602e-10 -1.21089e-09 5.57711e-10 5e-05 5.23599e-10 
166 1 0.0685577 0.0174182 0.00714183 0.0113719 -0.000956918 0.000484176 -1.47852e-09 -5.98661e-10 -6.81113e-10 5e-05 5.23599e-10 
167 1 0.0621389 0.0171723 0.00731222 0.0116151 0.000288799 -5.10684e-05 -4.58394e-10 1.17797e-09 -1.51942e-09 5e-05 5.23599e-10 
168 1 0.0682152 0.0172653 0.00733317 0.0113435 -0.000992299 0.000377438 -6.16075e-10 9.95243e-11 -7.73537e-10 5e-05 5.23599e-10 
169 1 0.0682858 0.0178598 0.00712529 0.0121485 -0.0009958 0.000509933 -2.3856e-11 7.27902e-10 4.05112e-10 5e-05 5.23599e-10 
170 1 0.0685908 0.0171917 0.00727442 0.0113551 -0.000905538 0.000297618 -1.26212e-09 1.09031e-11 3.11629e-10 5e-05 5.23599e-10 
171 1 0.0622764 0.0173625 0.00717421 0.0118331 0.000418144 -9.10499e-06 -1.21618e-10 1.86115e-10 -2.39514e-10 5e-05 5.23599e-10 
173 1 0.0682641 0.0177624 0.00713137 0.0122087 -0.00103738 0.00045038 -2.2078e-09 1.26924e-09 7.14028e-10 5e-05 5.23599e-10 
174 1 0.0620438 0.0167761 0.00760199 0.0113386 0.000180592 0.000121329 2.29612e-09 3.85471e-09 -1.73165e-09 5e-05 5.23599e-10 
175 1 0.0683229 0.016823 0.0075407 0.0111301 -0.000880404 0.000298979 8.10585e-10 -1.40093e-09 1.80647e-09 5e-05 5.23599e-10 
176 1 0.0683509 0.0181526 0.00712394 0.0121841 -0.000817282 0.000492231 -6.83679e-10 1.55375e-09 -7.5723e-10 5e-05 5.23599e-10 
177 1 0.0620628 0.0168553 0.00754392 0.010971 0.000348651 4.57054e-05 -1.52124e-09 4.37578e-10 3.24507e-10 5e-05 5.23599e-10 
178 1 0.068454 0.01739 0.00713914 0.0114946 -0.000895522 0.000364931 4.6534e-10 -4.33165e-10 -1.41143e-09 5e-05 5.23599e-10 
179 1 0.0684108 0.0179973 0.00712835 0.0121399 -0.000869789 0.00049391 -1.21477e-10 2.66658e-10 -3.25743e-10 5e-05 5.23599e-10 
180 1 0.0621008 0.0170136 0.00742778 0.0114662 0.000356394 2.96414e-05 -4.2548e-10 -9.99388e-10 -3.43981e-11 5e-05 5.23599e-10 
181 1 0.0621961 0.0174093 0.00713747 0.0117717 0.000325834 5.55637e-05 -1.0974e-10 -1.68573e-10 5.10886e-10 5e-05 5.23599e-10 
182 1 0.0683075 0.0179574 0.00712484 0.0121565 -0.00093158 0.000525957 4.74106e-10 8.87875e-10 -8.62163e-11 5e-05 5.23599e-10 
183 1 0.0681726 0.0173253 0.0072655 0.0114053 -0.000953483 0.000404234 -3.08407e-09 -3.72221e-10 8.57253e-10 5e-05 5.23599e-10 
184 1 0.0622341 0.0176054 0.0071337 0.0119526 0.000280198 -0.000512893 -7.45765e-10 1.27701e-10 -4.60754e-10 5e-05 5.23599e-10 
185 1 0.0622566 0.0172825 0.00723288 0.0115939 0.000237979 0.000117251 7.87695e-11 -1.79212e-10 6.45347e-10 5e-05 5.23599e-10 
186 1 0.0683292 0.018055 0.00712439 0.0121729 -0.000871263 0.000503698 -5.69301e-12 4.36292e-10 -4.02505e-10 5e-05 5.23599e-10 
187 1 0.0623685 0.0178315 0.00714024 0.0124656 0.00022996 -0.000453444 -1.57621e-10 -5.28546e-10 3.26514e-10 5e-05 5.23599e-10 
188 1 0.0685909 0.0179738 0.00713573 0.0121107 -0.000981909 0.000489213 -1.74552e-09 1.15542e-09 -3.56254e-10 5e-05 5.23599e-10 
189 1 0.0619859 0.0165388 0.00777609 0.0113849 0.000292031 7.38734e-05 2.77452e-11 7.67581e-10 -2.53842e-10 5e-05 5.23599e-10 
190 1 0.0683389 0.0175338 0.00720377 0.0113883 -0.000769157 0.000379371 -1.86877e-09 1.354e-09 9.83964e-10 5e-05 5.23599e-10 
