ITEM: TIMESTEP
4200000
ITEM: NUMBER OF ATOMS
188
ITEM: BOX BOUNDS ff ff ff
-0.02 0.43
-0.02 0.06
-0.02 0.07
ITEM: ATOMS id type x y z vx vy vz fx fy fz radius mass 
1 1 0.0634077 0.0167207 0.00767815 0.0126558 0.000374675 4.91792e-05 2.7339e-10 3.25877e-10 -2.98898e-10 5e-05 5.23599e-10 
2 1 0.0690266 0.0159677 0.00816078 0.012179 -0.000646431 0.000916355 -2.6428e-10 1.44856e-09 -1.24484e-09 5e-05 5.23599e-10 
3 1 0.0631124 0.0159819 0.00821714 0.0123773 0.000254234 0.000130237 -9.85286e-10 9.7914e-10 -6.76213e-10 5e-05 5.23599e-10 
4 1 0.0694221 0.0174997 0.00717463 0.0116737 -0.00118915 0.000475079 -4.07004e-10 -2.43355e-11 -1.61029e-10 5e-05 5.23599e-10 
5 1 0.0632546 0.0168222 0.00759912 0.0126123 0.000326408 8.26465e-05 8.8259e-10 8.45767e-10 -4.44054e-10 5e-05 5.23599e-10 
6 1 0.0637413 0.0177529 0.00708506 0.0116905 0.000471225 -0.000407533 8.41786e-12 3.00098e-10 4.4091e-10 5e-05 5.23599e-10 
7 1 0.0690481 0.0160443 0.00810021 0.0121982 -0.000761951 0.00101119 -8.88977e-10 -2.39063e-09 1.80375e-09 5e-05 5.23599e-10 
8 1 0.0635676 0.0173539 0.0072138 0.0121431 0.000519477 -7.34463e-05 3.50048e-10 -1.58005e-10 1.69669e-10 5e-05 5.23599e-10 
9 1 0.0629533 0.0157195 0.00840716 0.0115253 0.000484815 -3.35409e-05 1.29323e-09 -2.11804e-09 1.00699e-09 5e-05 5.23599e-10 
10 1 0.0632857 0.0166119 0.00775553 0.012513 0.000316923 8.99267e-05 -2.20636e-11 7.68365e-10 -5.61486e-10 5e-05 5.23599e-10 
11 1 0.063199 0.0162969 0.00798633 0.0124583 0.000285105 0.000115553 1.60134e-09 -7.17254e-10 6.37042e-10 5e-05 5.23599e-10 
12 1 0.0690912 0.0161975 0.00797907 0.0123547 -0.000712391 0.000999264 -9.77608e-10 2.55365e-09 -2.05508e-09 5e-05 5.23599e-10 
13 1 0.063298 0.0169797 0.00748373 0.0126481 0.000332989 8.17349e-05 -7.85502e-10 5.22451e-11 -2.08509e-10 5e-05 5.23599e-10 
14 1 0.0637811 0.0179488 0.00709381 0.011623 0.000360149 -0.000412225 -8.02164e-10 7.98879e-10 -2.07775e-10 5e-05 5.23599e-10 
15 1 0.0692857 0.0169038 0.00745678 0.0115505 -0.00114926 0.000438046 2.26805e-09 -3.09094e-09 2.0204e-09 5e-05 5.23599e-10 
16 1 0.0636301 0.0180795 0.00710626 0.0113638 0.000589182 -0.000390634 -4.80678e-10 1.76758e-09 3.04935e-09 5e-05 5.23599e-10 
17 1 0.0695434 0.0180873 0.00717156 0.010795 -0.000867678 0.000406553 -2.73356e-09 3.3364e-09 -4.3994e-10 5e-05 5.23599e-10 
18 1 0.0630165 0.015956 0.00823381 0.0123461 0.000280574 0.000114571 1.95131e-09 4.04773e-11 -2.36826e-10 5e-05 5.23599e-10 
19 1 0.0575767 0.0178282 0.00719733 0.0111793 0.000683503 -0.000142281 -2.24484e-09 -4.94405e-11 -5.1048e-10 5e-05 5.23599e-10 
20 1 0.063362 0.0165608 0.00779524 0.0125391 0.000363001 5.34037e-05 -5.40855e-10 6.99417e-10 -4.48343e-10 5e-05 5.23599e-10 
21 1 0.0692642 0.0168248 0.0075142 0.0119835 -0.00116086 0.000466887 -7.29677e-11 -5.50968e-10 -4.48538e-10 5e-05 5.23599e-10 
22 1 0.0634727 0.017324 0.00723348 0.0120831 0.000435588 -2.3499e-05 -3.41656e-10 2.17087e-11 -3.42369e-10 5e-05 5.23599e-10 
23 1 0.0630381 0.0160347 0.00817611 0.0123663 0.000288898 0.000107368 -1.07353e-10 2.07207e-10 -1.39013e-10 5e-05 5.23599e-10 
25 1 0.069307 0.0169834 0.00740024 0.0113077 -0.00115754 0.000459168 9.60209e-10 -3.34861e-09 2.24371e-09 5e-05 5.23599e-10 
26 1 0.0630814 0.0161922 0.00806071 0.0124412 0.000288268 0.000106546 9.20889e-10 1.31074e-09 -7.7259e-10 5e-05 5.23599e-10 
27 1 0.0631247 0.0163497 0.00794531 0.0124458 0.000277089 0.000114729 6.61978e-10 -7.85778e-10 3.68572e-10 5e-05 5.23599e-10 
28 1 0.0637111 0.0184708 0.00712368 0.0116054 0.000539941 -0.000405841 -4.45832e-10 4.31455e-10 -1.46088e-10 5e-05 5.23599e-10 
29 1 0.0691127 0.0162741 0.0079185 0.0122663 -0.000822088 0.00102414 7.52305e-09 -3.44004e-09 3.45807e-09 5e-05 5.23599e-10 
30 1 0.0633293 0.0167696 0.00763994 0.0126151 0.000328205 8.07702e-05 3.31929e-10 -1.21453e-10 1.99061e-10 5e-05 5.23599e-10 
31 1 0.0632331 0.0167435 0.0076569 0.0125947 0.000331684 7.90899e-05 4.52497e-10 5.19937e-10 -2.23107e-10 5e-05 5.23599e-10 
32 1 0.0691774 0.0165059 0.0077394 0.0123835 -0.0012801 0.00050377 9.71325e-10 -1.26302e-09 -8.48213e-11 5e-05 5.23599e-10 
33 1 0.0633074 0.0166906 0.00769784 0.0126033 0.000333595 7.60928e-05 1.33478e-09 3.51694e-10 -2.16155e-10 5e-05 5.23599e-10 
34 1 0.063264 0.0165331 0.00781323 0.0125058 0.000339201 7.10568e-05 -2.59875e-10 4.09158e-10 -2.97907e-10 5e-05 5.23599e-10 
35 1 0.0631774 0.0162181 0.00804403 0.0124749 0.000278824 0.00011971 1.26714e-09 -5.00114e-10 3.31018e-10 5e-05 5.23599e-10 
36 1 0.0694627 0.0176955 0.00717362 0.0116401 -0.00107336 0.000492759 3.15239e-09 9.12587e-10 -8.63736e-10 5e-05 5.23599e-10 
37 1 0.0632424 0.0164543 0.00787093 0.0124855 0.000327383 8.10238e-05 3.43161e-10 1.04148e-10 2.453e-11 5e-05 5.23599e-10 
38 1 0.0634298 0.0167999 0.00762011 0.0126305 0.000370123 4.68029e-05 -1.71441e-09 1.31572e-10 7.1703e-11 5e-05 5.23599e-10 
39 1 0.0634162 0.017086 0.00740813 0.0121632 0.000438015 -1.18315e-05 -6.67362e-10 2.34659e-10 -3.15e-10 5e-05 5.23599e-10 
40 1 0.0631897 0.016586 0.00777221 0.012515 0.0003203 8.55053e-05 -1.00263e-10 -5.66267e-10 2.67936e-10 5e-05 5.23599e-10 
41 1 0.0636691 0.0182754 0.00711504 0.0112715 0.000611318 -0.00042541 1.70417e-09 -7.84146e-10 -8.17919e-10 5e-05 5.23599e-10 
42 1 0.0635993 0.0175218 0.00709043 0.0117809 0.000593833 -0.000133866 -5.81434e-11 1.32502e-09 -9.71531e-10 5e-05 5.23599e-10 
43 1 0.0695033 0.0178914 0.0071726 0.011492 -0.000930058 0.000484737 -6.54421e-10 -2.56991e-09 7.4351e-10 5e-05 5.23599e-10 
44 1 0.0631341 0.0160606 0.00815943 0.0124271 0.000256472 0.000126131 -3.63768e-10 4.32474e-10 -3.16185e-10 5e-05 5.23599e-10 
45 1 0.0634756 0.0177538 0.00709836 0.0116329 0.000416333 -0.000402155 -4.49745e-10 -4.71242e-10 -3.42539e-10 5e-05 5.23599e-10 
46 1 0.0573069 0.0169952 0.0074388 0.0118559 0.000112632 4.23595e-05 4.47997e-10 -6.07512e-10 1.34302e-09 5e-05 5.23599e-10 
47 1 0.0693769 0.0172212 0.00723162 0.0116435 -0.00118521 0.000460332 5.0374e-10 6.70027e-10 2.81896e-10 5e-05 5.23599e-10 
48 1 0.0634737 0.0169579 0.00750436 0.0126714 0.000335101 7.93884e-05 2.03303e-10 7.63412e-10 -3.24187e-10 5e-05 5.23599e-10 
49 1 0.0634516 0.0168788 0.00756232 0.0126989 0.000385646 4.31339e-05 -6.29407e-10 8.7849e-12 2.63264e-10 5e-05 5.23599e-10 
50 1 0.0634898 0.0174034 0.00717517 0.012105 0.000448639 -1.61208e-05 7.7256e-10 2.02881e-10 -4.5314e-10 5e-05 5.23599e-10 
51 1 0.0634883 0.0166742 0.00771466 0.0126513 0.000372619 5.07255e-05 -5.44716e-10 -1.13348e-10 1.46292e-12 5e-05 5.23599e-10 
52 1 0.0571383 0.0164554 0.00800395 0.0121174 -0.00063561 -0.000719324 3.76438e-10 -7.64877e-10 8.24635e-10 5e-05 5.23599e-10 
53 1 0.0632207 0.0163756 0.00792863 0.0124244 0.000276736 0.000112395 1.73062e-09 -1.39909e-09 1.47885e-09 5e-05 5.23599e-10 
54 1 0.0636223 0.0176188 0.00708248 0.0117695 0.000593743 -0.00043446 8.04666e-11 1.49437e-09 -2.05254e-10 5e-05 5.23599e-10 
55 1 0.0692207 0.016665 0.00762626 0.0125762 -0.00123487 0.000483549 5.60408e-11 -5.25501e-11 -3.6322e-10 5e-05 5.23599e-10 
56 1 0.0633196 0.0170584 0.00742603 0.0126772 0.000327714 8.89974e-05 -3.76282e-10 -8.08451e-10 4.3073e-10 5e-05 5.23599e-10 
57 1 0.069483 0.0177935 0.00717311 0.0115231 -0.000958279 0.000476106 1.31834e-09 -1.57331e-09 4.79011e-10 5e-05 5.23599e-10 
58 1 0.0634557 0.0176571 0.00711413 0.0116378 0.000424932 -0.000284047 -5.67606e-10 6.10739e-11 -3.75478e-10 5e-05 5.23599e-10 
59 1 0.0635703 0.0177856 0.00709313 0.0116257 0.000452523 -0.000408687 -1.05042e-09 -8.98515e-10 -4.91111e-10 5e-05 5.23599e-10 
60 1 0.0638168 0.0176876 0.00707885 0.0116656 0.000534647 -0.000448631 1.29375e-09 -9.0913e-10 4.69812e-10 5e-05 5.23599e-10 
61 1 0.0633955 0.0173748 0.00719389 0.0120735 0.000421619 -1.83646e-05 -2.24961e-10 -2.85923e-10 7.29777e-11 5e-05 5.23599e-10 
62 1 0.069328 0.0170636 0.00734419 0.011204 -0.0011316 0.000457296 -3.44021e-10 -2.29588e-09 4.88234e-10 5e-05 5.23599e-10 
63 1 0.0637731 0.0174974 0.00711296 0.0117289 0.000616441 -0.000161087 7.48106e-10 -5.27664e-10 -7.21486e-10 5e-05 5.23599e-10 
64 1 0.0638366 0.0177855 0.00708322 0.0117017 0.000502149 -0.000418301 -1.06986e-09 -1.35003e-09 -4.12369e-10 5e-05 5.23599e-10 
65 1 0.0694018 0.0174018 0.00717515 0.0117136 -0.00118341 0.00046671 -3.86174e-10 -1.36312e-09 3.66399e-10 5e-05 5.23599e-10 
66 1 0.0633403 0.0164821 0.00785295 0.012443 0.000291105 0.000105885 -3.0061e-10 5.03945e-10 -3.48486e-10 5e-05 5.23599e-10 
67 1 0.0573415 0.0171342 0.00729934 0.011889 9.5288e-05 7.59521e-05 1.15654e-09 7.2516e-10 -5.80763e-12 5e-05 5.23599e-10 
68 1 0.0571799 0.016583 0.00785567 0.0122957 -0.000205698 -0.00028261 -1.74022e-09 8.42167e-10 1.31466e-09 5e-05 5.23599e-10 
69 1 0.0636103 0.0179815 0.00710188 0.0116175 0.000395637 -0.000421336 -6.11734e-10 1.03225e-11 9.39673e-11 5e-05 5.23599e-10 
70 1 0.0635775 0.0174431 0.00714812 0.0120335 0.000550821 -8.98498e-05 -3.85162e-11 4.29796e-10 -9.55499e-10 5e-05 5.23599e-10 
71 1 0.063916 0.0181757 0.00710065 0.0114567 0.000361864 -0.000411048 -1.55282e-09 2.90417e-10 -3.94507e-10 5e-05 5.23599e-10 
72 1 0.0573642 0.0172149 0.00724477 0.0119741 5.1885e-05 -3.11154e-05 1.45027e-09 2.03425e-09 7.8093e-10 5e-05 5.23599e-10 
73 1 0.0574416 0.0176007 0.0072033 0.0119091 4.3535e-05 -0.000150898 -6.21679e-10 1.4645e-09 -4.51195e-10 5e-05 5.23599e-10 
74 1 0.0690696 0.0161209 0.00803964 0.012221 -0.000770102 0.00101895 4.9849e-10 2.1279e-09 -1.07749e-09 5e-05 5.23599e-10 
75 1 0.057201 0.0166501 0.00778458 0.0124116 0.000143249 7.00926e-05 3.61208e-10 1.74333e-09 2.73739e-10 5e-05 5.23599e-10 
76 1 0.069199 0.0165853 0.00768269 0.012412 -0.00119014 0.000550061 -3.87061e-10 -3.46564e-10 9.70936e-10 5e-05 5.23599e-10 
77 1 0.0691342 0.0163507 0.00785796 0.012185 -0.000805814 0.00101463 4.18877e-09 -5.47489e-09 1.7636e-09 5e-05 5.23599e-10 
78 1 0.0691558 0.0164273 0.00779737 0.0124416 -0.000822894 0.00109768 2.25482e-09 -1.46363e-10 -1.71362e-09 5e-05 5.23599e-10 
79 1 0.0634366 0.0175641 0.00714558 0.0118054 0.000430861 -0.000129081 1.41351e-09 -3.77135e-10 -1.94609e-10 5e-05 5.23599e-10 
80 1 0.069348 0.0171431 0.00728704 0.0113861 -0.00111916 0.000471357 -1.10186e-09 7.62824e-10 4.62975e-10 5e-05 5.23599e-10 
81 1 0.0693815 0.0173039 0.00717565 0.0117666 -0.00117759 0.000477876 1.96483e-10 -6.53073e-10 -3.05836e-10 5e-05 5.23599e-10 
82 1 0.0636126 0.0171475 0.00736767 0.0121964 0.00052401 -7.63599e-05 -3.80398e-10 2.83411e-10 -1.86678e-10 5e-05 5.23599e-10 
83 1 0.0633402 0.0171373 0.00736819 0.0121318 0.00041984 4.75437e-07 -7.80178e-10 -3.03895e-10 3.41228e-10 5e-05 5.23599e-10 
84 1 0.0633186 0.0164033 0.00791067 0.0124018 0.000277689 0.000113537 -2.98457e-10 4.2071e-10 -3.86456e-10 5e-05 5.23599e-10 
85 1 0.0634938 0.0174816 0.0072374 0.012174 0.000539391 -0.000122532 2.24955e-10 -5.33821e-11 -1.10845e-10 5e-05 5.23599e-10 
86 1 0.0633787 0.0172985 0.00725631 0.0120963 0.000409384 -2.78274e-05 1.7327e-11 -3.0818e-10 5.5053e-10 5e-05 5.23599e-10 
87 1 0.0636302 0.0172269 0.00730942 0.0121917 0.00054121 -8.7504e-05 -2.27159e-10 2.02581e-10 -7.06142e-11 5e-05 5.23599e-10 
88 1 0.0694424 0.0175976 0.00717413 0.0117171 -0.00116273 0.000508409 2.77914e-09 1.6908e-09 -1.00198e-09 5e-05 5.23599e-10 
89 1 0.0629732 0.0157985 0.00834921 0.0123232 0.000348276 5.60523e-05 -3.83924e-10 -4.191e-10 3.57957e-10 5e-05 5.23599e-10 
90 1 0.063786 0.0184049 0.00711745 0.0115318 0.000440735 -0.000404091 -5.80155e-10 2.28006e-10 -1.61929e-10 5e-05 5.23599e-10 
91 1 0.0631031 0.016271 0.00800301 0.0124477 0.000274662 0.000114085 1.17502e-09 4.06717e-10 -3.33874e-10 5e-05 5.23599e-10 
92 1 0.0633857 0.0166415 0.00773615 0.012622 0.000353592 6.52889e-05 3.41309e-10 -1.05608e-09 9.07313e-10 5e-05 5.23599e-10 
93 1 0.0630598 0.0161135 0.00811841 0.0124209 0.000300159 9.94839e-05 2.07965e-10 1.24165e-09 -8.26761e-10 5e-05 5.23599e-10 
94 1 0.0635505 0.0172745 0.00727212 0.0121256 0.000470183 -3.20006e-05 6.2377e-10 3.69595e-10 -5.20471e-10 5e-05 5.23599e-10 
95 1 0.0635262 0.0175649 0.00719256 0.01174 0.000710151 -0.000105356 -2.36469e-11 6.95497e-11 -2.00792e-10 5e-05 5.23599e-10 
96 1 0.0634549 0.0172444 0.0072919 0.0121216 0.000433668 -3.82493e-06 3.26301e-11 -1.56935e-11 1.45039e-10 5e-05 5.23599e-10 
97 1 0.0635534 0.0169104 0.00754158 0.0127035 0.000390018 3.75679e-05 -1.71879e-10 4.75429e-10 -2.83981e-10 5e-05 5.23599e-10 
98 1 0.063168 0.0165072 0.00782991 0.0125053 0.000301631 9.74489e-05 8.23486e-10 3.31154e-10 -2.38046e-10 5e-05 5.23599e-10 
99 1 0.0636775 0.0174727 0.00712877 0.0117628 0.000596899 -7.19798e-05 4.47131e-10 6.6053e-10 -7.12819e-10 5e-05 5.23599e-10 
100 1 0.063896 0.0180778 0.00709628 0.0115693 0.000359479 -0.00041163 -1.64315e-09 1.11127e-10 5.34423e-10 5e-05 5.23599e-10 
101 1 0.0638761 0.0179799 0.0070919 0.01162 0.000351189 -0.000415201 -1.12019e-09 5.09233e-10 3.09183e-10 5e-05 5.23599e-10 
102 1 0.0635317 0.0168316 0.00759927 0.01267 0.000381731 4.12673e-05 -1.11019e-09 3.34007e-10 -2.7178e-10 5e-05 5.23599e-10 
103 1 0.0636851 0.0179155 0.00709564 0.011613 0.000371121 -0.000417014 -3.85344e-10 5.27958e-10 1.16116e-10 5e-05 5.23599e-10 
104 1 0.0638912 0.0176211 0.0070726 0.0116494 0.000562671 -0.000392778 -6.70669e-10 -9.287e-10 -4.37054e-10 5e-05 5.23599e-10 
105 1 0.0638549 0.0174444 0.00715429 0.0119525 0.000661251 -0.00016278 -6.66816e-10 -1.63019e-10 7.65222e-11 5e-05 5.23599e-10 
106 1 0.0629948 0.0158772 0.00829151 0.0123553 0.000306781 8.73842e-05 8.7871e-10 5.68646e-10 -7.59777e-10 5e-05 5.23599e-10 
107 1 0.0638408 0.0182424 0.00710693 0.0114795 0.000393637 -0.000392189 -8.40747e-10 5.05528e-10 -4.24309e-12 5e-05 5.23599e-10 
108 1 0.0694233 0.0170865 0.00732466 0.0113556 -0.00109194 0.000426079 -1.82968e-09 2.25971e-09 -1.64131e-09 5e-05 5.23599e-10 
109 1 0.063373 0.0169274 0.00752432 0.012661 0.000334239 8.41275e-05 -7.04933e-10 4.37475e-10 -3.57251e-10 5e-05 5.23599e-10 
110 1 0.0637393 0.0173388 0.00722945 0.0121357 0.000588921 -0.000112959 -1.32064e-09 1.49534e-10 -8.1692e-11 5e-05 5.23599e-10 
111 1 0.06336 0.0172178 0.00731232 0.0121136 0.00040952 -2.8795e-05 -2.31855e-11 -4.28543e-10 4.39316e-10 5e-05 5.23599e-10 
112 1 0.0631557 0.0161394 0.00810173 0.012465 0.000265738 0.000124782 1.05862e-09 1.01419e-10 -3.01035e-10 5e-05 5.23599e-10 
113 1 0.0637099 0.0171794 0.0073466 0.0122023 0.000541839 -8.42833e-05 1.70129e-10 3.69071e-10 -2.37449e-10 5e-05 5.23599e-10 
114 1 0.0631464 0.0164285 0.00788761 0.0124733 0.000290808 0.000106205 1.83211e-10 -5.49326e-11 1.15645e-10 5e-05 5.23599e-10 
115 1 0.0639363 0.0182735 0.007105 0.0114759 0.00033261 -0.000408492 -2.09329e-09 -3.29567e-10 -1.91025e-11 5e-05 5.23599e-10 
116 1 0.0634362 0.0171652 0.00735003 0.0121278 0.000457223 -2.79308e-05 -1.61051e-10 -1.09637e-09 9.90322e-10 5e-05 5.23599e-10 
117 1 0.0635143 0.0171159 0.00738849 0.0121444 0.000471958 -3.68551e-05 -1.00734e-10 -8.84923e-10 5.89506e-10 5e-05 5.23599e-10 
118 1 0.063725 0.0181113 0.00710439 0.0115054 0.000330013 -0.00041579 -7.58177e-10 6.55829e-10 2.40157e-10 5e-05 5.23599e-10 
119 1 0.0634956 0.0178517 0.0070998 0.0116102 0.000432908 -0.000452875 -3.86133e-10 -5.18732e-10 4.81371e-10 5e-05 5.23599e-10 
120 1 0.0632113 0.0166647 0.00771451 0.0125547 0.000333591 7.71304e-05 -6.39737e-10 -1.5228e-10 1.68163e-10 5e-05 5.23599e-10 
121 1 0.0633513 0.0168486 0.00758203 0.0126295 0.000358383 6.23978e-05 4.86275e-10 1.42055e-09 -9.56678e-10 5e-05 5.23599e-10 
122 1 0.0636651 0.0178174 0.00709127 0.0116707 0.00044409 -0.000409751 6.21228e-10 1.27137e-09 -3.33524e-11 5e-05 5.23599e-10 
123 1 0.0635939 0.0170683 0.00742578 0.0122043 0.000502587 -6.69617e-05 -6.13546e-10 8.53546e-10 -6.30654e-10 5e-05 5.23599e-10 
124 1 0.0632763 0.0169009 0.00754143 0.0126156 0.000333199 7.79034e-05 7.99098e-10 8.55253e-10 -5.3294e-10 5e-05 5.23599e-10 
125 1 0.0636433 0.0177175 0.00708686 0.0116436 0.000491741 -0.000416807 -1.34454e-09 -3.48493e-10 1.83611e-10 5e-05 5.23599e-10 
126 1 0.0638619 0.0183401 0.00711124 0.0115059 0.000396207 -0.000414262 -1.3431e-09 -1.51465e-11 4.23827e-10 5e-05 5.23599e-10 
127 1 0.063395 0.0170066 0.00746631 0.0126694 0.000317333 9.94981e-05 -9.5636e-11 1.86087e-10 -9.474e-11 5e-05 5.23599e-10 
128 1 0.0634922 0.0174877 0.0071129 0.0120495 0.000554473 -8.18776e-05 1.63017e-09 1.45225e-10 -3.53274e-10 5e-05 5.23599e-10 
129 1 0.0638709 0.0175239 0.00709585 0.0117493 0.000675176 -0.000202114 -8.63274e-10 3.07167e-10 2.86318e-10 5e-05 5.23599e-10 
130 1 0.0634944 0.0170369 0.00744645 0.0122499 0.000506175 -5.75562e-05 -7.58419e-11 1.52796e-09 -1.10058e-09 5e-05 5.23599e-10 
131 1 0.063801 0.0180466 0.00709818 0.0115759 0.000369113 -0.000407896 -1.18742e-09 1.48131e-11 -1.04582e-10 5e-05 5.23599e-10 
132 1 0.0637612 0.0178509 0.00708944 0.0116257 0.000373748 -0.000413398 1.01904e-09 1.18478e-09 -1.47591e-10 5e-05 5.23599e-10 
133 1 0.0636554 0.0173936 0.0071867 0.0120259 0.000557613 -0.000102992 7.40094e-10 7.19109e-10 -5.32301e-10 5e-05 5.23599e-10 
134 1 0.0637509 0.0174188 0.00717059 0.0119799 0.000622893 -8.79604e-05 -1.53457e-10 -6.00887e-11 -8.0493e-10 5e-05 5.23599e-10 
135 1 0.063727 0.0172588 0.00728827 0.012179 0.00062659 -0.000156655 -9.75897e-10 4.93364e-10 -7.59947e-10 5e-05 5.23599e-10 
136 1 0.0635212 0.0175841 0.00709454 0.0116746 0.000455799 -0.00017232 -2.53618e-10 6.27424e-10 -4.28852e-10 5e-05 5.23599e-10 
137 1 0.0636578 0.0186347 0.00713423 0.0117052 0.00069147 -0.000416224 -1.27852e-09 7.73391e-10 1.84987e-10 5e-05 5.23599e-10 
138 1 0.0635484 0.0176859 0.00708874 0.0116642 0.000481966 -0.000412534 -2.80976e-10 -7.33027e-10 5.25643e-10 5e-05 5.23599e-10 
139 1 0.0634667 0.0165954 0.00777236 0.0126185 0.0003534 6.07054e-05 -1.12264e-09 -1.38605e-09 9.75157e-10 5e-05 5.23599e-10 
140 1 0.0637648 0.0183071 0.00711313 0.0114108 0.000386738 -0.000411559 4.58361e-10 6.94291e-10 -1.08836e-09 5e-05 5.23599e-10 
141 1 0.0575167 0.0175347 0.00720378 0.0120625 0.00016173 -0.00014392 1.08152e-09 1.08545e-09 -1.91307e-10 5e-05 5.23599e-10 
142 1 0.0636923 0.0171 0.00740485 0.0122036 0.000535599 -7.86165e-05 -6.40712e-10 -2.75529e-10 1.43218e-10 5e-05 5.23599e-10 
143 1 0.0636472 0.0173063 0.0072511 0.0121563 0.000559482 -9.92796e-05 -7.33482e-10 -3.34244e-10 2.00638e-10 5e-05 5.23599e-10 
144 1 0.0574818 0.0177966 0.00719899 0.011275 0.000305044 -0.000122284 -2.07435e-09 1.99793e-09 -3.07901e-10 5e-05 5.23599e-10 
145 1 0.0574012 0.0174049 0.0072076 0.0120838 1.77691e-05 -0.000172731 1.28753e-09 -4.87502e-10 -1.16866e-10 5e-05 5.23599e-10 
146 1 0.0637211 0.017655 0.00708072 0.011637 0.00049764 -0.000442033 -1.17857e-09 3.38738e-10 9.57265e-10 5e-05 5.23599e-10 
147 1 0.0637449 0.0182092 0.00710876 0.011404 0.000344661 -0.000414559 -8.28834e-10 8.14419e-10 3.50652e-10 5e-05 5.23599e-10 
148 1 0.0692423 0.0167446 0.00756972 0.0124349 -0.0012209 0.000477712 -9.70732e-10 -1.34378e-10 -1.44385e-09 5e-05 5.23599e-10 
149 1 0.0695235 0.0179893 0.00717208 0.0111469 -0.000873456 0.000454372 5.30737e-10 -1.00484e-09 6.27236e-10 5e-05 5.23599e-10 
150 1 0.0694764 0.0173353 0.00717895 0.0117383 -0.0011607 0.000475387 4.3635e-10 -3.62333e-10 -5.43038e-10 5e-05 5.23599e-10 
151 1 0.0635904 0.0178836 0.0070975 0.011623 0.000415514 -0.000414454 -3.77085e-10 -1.16e-10 1.15459e-10 5e-05 5.23599e-10 
152 1 0.0635329 0.0171951 0.00733038 0.0121529 0.00046829 -3.11329e-05 3.18569e-10 5.62848e-10 -1.15867e-10 5e-05 5.23599e-10 
153 1 0.0637051 0.0180134 0.00710002 0.0116094 0.000349072 -0.000416338 -9.60704e-10 4.26892e-10 7.11775e-11 5e-05 5.23599e-10 
154 1 0.063651 0.0175669 0.00716317 0.0118712 0.000806694 -0.000338194 5.00404e-10 2.56451e-10 7.99873e-10 5e-05 5.23599e-10 
155 1 0.0575019 0.0178945 0.00719684 0.0113722 0.000393835 -0.00013526 -2.08946e-09 -5.43324e-10 9.561e-10 5e-05 5.23599e-10 
156 1 0.0636737 0.0170208 0.00746297 0.0122602 0.00054119 -7.87403e-05 -1.14092e-09 2.81467e-10 -3.88823e-10 5e-05 5.23599e-10 
157 1 0.06369 0.0183731 0.00711937 0.0114759 0.000543547 -0.000415514 1.06969e-10 2.16519e-10 -4.26688e-10 5e-05 5.23599e-10 
158 1 0.0574618 0.0176986 0.00720115 0.0115423 0.000143336 -0.000132741 3.28921e-09 3.27333e-09 -1.59745e-09 5e-05 5.23599e-10 
159 1 0.0636538 0.0169418 0.00752092 0.0123485 0.000529937 -7.48102e-05 -1.08334e-09 1.05061e-09 -9.23952e-10 5e-05 5.23599e-10 
160 1 0.0694506 0.0171649 0.00726888 0.0116184 -0.00117085 0.000466764 -1.28227e-09 -5.64873e-11 -1.62352e-10 5e-05 5.23599e-10 
161 1 0.0636365 0.0185371 0.00712992 0.0116338 0.000630459 -0.000403894 -5.3679e-10 3.81211e-10 -6.256e-11 5e-05 5.23599e-10 
162 1 0.0635751 0.017934 0.00718251 0.0116171 0.000456261 -0.000432063 5.70012e-10 -2.96002e-11 -2.37372e-11 5e-05 5.23599e-10 
163 1 0.0636151 0.0184391 0.0071256 0.0115392 0.00057853 -0.000400448 -1.64847e-10 -9.48705e-10 -2.01011e-11 5e-05 5.23599e-10 
164 1 0.06351 0.0167529 0.00765697 0.0126387 0.000380109 4.44928e-05 -1.27312e-09 2.31523e-10 -3.51023e-10 5e-05 5.23599e-10 
165 1 0.0572656 0.0168573 0.00757748 0.012348 0.000114748 5.08733e-05 -2.0781e-09 -1.89309e-09 9.84192e-10 5e-05 5.23599e-10 
166 1 0.0637968 0.0175897 0.00708263 0.011651 0.000543141 -0.000370536 -1.16077e-09 -2.38497e-10 4.86107e-10 5e-05 5.23599e-10 
167 1 0.0573258 0.0170646 0.00736941 0.0118217 9.54136e-05 6.08119e-05 -2.38521e-10 -1.42268e-09 -7.81879e-10 5e-05 5.23599e-10 
168 1 0.0634397 0.0174076 0.00727737 0.0121685 0.000561162 -0.000153908 5.82409e-10 -3.70734e-10 -8.79259e-10 5e-05 5.23599e-10 
169 1 0.0635354 0.0180476 0.00710812 0.0114509 0.000462579 -0.00040161 -6.77385e-10 2.06741e-10 4.73658e-10 5e-05 5.23599e-10 
170 1 0.0638341 0.0173655 0.00721211 0.0121103 0.000609908 -0.000160797 -1.63224e-09 -3.05078e-10 1.80469e-10 5e-05 5.23599e-10 
171 1 0.0574547 0.0172396 0.00721028 0.0120701 -8.46984e-05 -0.000131367 -8.40789e-10 -3.18317e-10 -1.37207e-09 5e-05 5.23599e-10 
173 1 0.0635155 0.0179496 0.00710374 0.0116003 0.000441618 -0.00042164 -1.86114e-10 -1.57272e-10 4.91538e-10 5e-05 5.23599e-10 
174 1 0.0572222 0.0167191 0.00771541 0.0124361 0.000100308 0.000107178 2.7923e-09 9.26804e-10 -1.09621e-10 5e-05 5.23599e-10 
175 1 0.063574 0.0169893 0.00748373 0.0122775 0.000476239 -4.04247e-05 -9.56443e-10 9.82823e-10 -7.22542e-10 5e-05 5.23599e-10 
176 1 0.0635938 0.0183415 0.0071213 0.0114792 0.000391653 -0.000400432 1.186e-10 -1.50782e-09 -5.71064e-10 5e-05 5.23599e-10 
177 1 0.0572434 0.0167882 0.00764624 0.0124146 8.73162e-05 0.000107922 2.30224e-09 -2.04676e-09 8.38438e-10 5e-05 5.23599e-10 
178 1 0.0636991 0.017555 0.0070763 0.0116446 0.000377737 -0.000411865 -2.0331e-09 2.05943e-10 3.07734e-10 5e-05 5.23599e-10 
179 1 0.0636496 0.0181775 0.00711065 0.0112221 0.000621324 -0.000413327 5.45882e-10 -1.76448e-10 1.05801e-09 5e-05 5.23599e-10 
180 1 0.0572863 0.0169285 0.00751045 0.0122132 0.000104233 3.72524e-05 -7.79402e-10 -1.04564e-09 2.2968e-09 5e-05 5.23599e-10 
181 1 0.0573809 0.017307 0.00720975 0.0120619 1.63665e-05 -0.000149985 -2.35632e-10 1.13964e-09 -7.37181e-10 5e-05 5.23599e-10 
182 1 0.0635548 0.0181456 0.00711251 0.011149 0.000516852 -0.000372461 -2.17408e-10 4.53133e-10 -1.29476e-10 5e-05 5.23599e-10 
183 1 0.063416 0.0174709 0.00717545 0.0120875 0.000418052 -1.15045e-05 3.28422e-10 -2.87364e-10 -5.84606e-10 5e-05 5.23599e-10 
184 1 0.057422 0.0175027 0.00720566 0.012084 1.45204e-05 -0.000180823 4.94603e-10 -3.81184e-10 -3.82004e-10 5e-05 5.23599e-10 
185 1 0.0574411 0.0171591 0.00727593 0.0119434 0.000144132 3.83129e-05 -4.562e-10 -1.28727e-09 -4.04289e-10 5e-05 5.23599e-10 
186 1 0.063574 0.0182436 0.00711691 0.0110281 0.000512337 -0.000386269 -2.06441e-09 -1.2852e-10 7.86974e-11 5e-05 5.23599e-10 
187 1 0.0575567 0.0177301 0.00719948 0.0113821 0.000198218 -0.000127758 -2.50063e-09 5.63512e-11 5.43667e-12 5e-05 5.23599e-10 
188 1 0.063821 0.0181445 0.00710255 0.0114976 0.000394664 -0.00039501 -6.31901e-10 2.94021e-10 -2.36359e-10 5e-05 5.23599e-10 
189 1 0.057159 0.0165188 0.00792946 0.0121604 -0.000624025 -0.000676999 1.05452e-09 -9.20934e-10 1.02838e-09 5e-05 5.23599e-10 
190 1 0.0635845 0.0176434 0.00717175 0.0117647 0.000632753 -0.000437783 3.39522e-10 -6.9831e-10 7.99242e-10 5e-05 5.23599e-10 
