ITEM: TIMESTEP
1600000
ITEM: NUMBER OF ATOMS
188
ITEM: BOX BOUNDS ff ff ff
-0.02 0.43
-0.02 0.06
-0.02 0.07
ITEM: ATOMS id type x y z vx vy vz fx fy fz radius mass 
1 1 0.0322089 0.0166899 0.00750839 0.0114048 2.3397e-05 0.000532358 -8.99343e-10 6.27732e-10 -1.93822e-09 5e-05 5.23599e-10 
2 1 0.0379062 0.0161831 0.00790014 0.0118606 0.00108101 -0.000762081 -2.29455e-09 -7.0172e-09 8.70181e-09 5e-05 5.23599e-10 
3 1 0.0319641 0.0161014 0.00806144 0.0112793 -0.000217765 -0.000311009 -6.7766e-10 1.09693e-09 -4.14064e-09 5e-05 5.23599e-10 
4 1 0.03828 0.0178042 0.00702528 0.0130345 0.00109228 0.000173389 1.06328e-09 5.39401e-11 -1.28472e-09 5e-05 5.23599e-10 
5 1 0.0320976 0.0169878 0.00737195 0.0115262 -0.000134008 0.000582442 4.74637e-10 6.28345e-10 -1.71687e-10 5e-05 5.23599e-10 
6 1 0.0325052 0.0176201 0.00711171 0.0126754 -0.000461608 0.000781984 1.59005e-09 -1.39823e-09 6.09675e-10 5e-05 5.23599e-10 
7 1 0.0379244 0.0162438 0.00782277 0.0119442 0.00104527 -0.00069015 3.75089e-09 3.88336e-09 -4.39453e-09 5e-05 5.23599e-10 
8 1 0.0323668 0.0174101 0.00719802 0.0125894 -0.000426174 0.000749489 -2.0237e-09 -8.18052e-10 9.32964e-10 5e-05 5.23599e-10 
9 1 0.031809 0.0158866 0.00830788 0.011478 -0.000653357 0.000129904 -5.86324e-10 1.87103e-09 -2.66061e-09 5e-05 5.23599e-10 
10 1 0.0321143 0.0166588 0.00751779 0.0114675 2.69344e-06 0.000552489 -2.06807e-10 -4.84592e-10 9.22152e-10 5e-05 5.23599e-10 
11 1 0.0320391 0.0163625 0.00776776 0.0113354 9.09207e-05 -0.000686729 -1.62148e-09 2.57849e-09 -2.69547e-09 5e-05 5.23599e-10 
12 1 0.0379625 0.0163901 0.00769774 0.01173 0.00103345 -0.000765661 -3.07096e-10 8.82186e-11 -9.16106e-10 5e-05 5.23599e-10 
13 1 0.0321368 0.0171681 0.00729428 0.0115274 -0.000193558 0.000614344 7.42478e-10 2.14795e-09 -9.31707e-10 5e-05 5.23599e-10 
14 1 0.0325486 0.0177995 0.0070346 0.0127498 -0.000529005 0.00083409 -2.38307e-10 -4.07879e-09 2.40434e-10 5e-05 5.23599e-10 
15 1 0.0381387 0.0171773 0.0072988 0.0119147 0.00105546 -0.000860339 -2.85825e-11 -5.29122e-10 1.02481e-09 5e-05 5.23599e-10 
16 1 0.032463 0.0182091 0.006922 0.0127508 -0.000603002 0.000210356 -1.82292e-09 1.52946e-09 -8.69779e-10 5e-05 5.23599e-10 
17 1 0.0384395 0.0181118 0.00692631 0.0132943 0.00147607 8.76409e-05 -8.90226e-10 4.88408e-09 5.17096e-10 5e-05 5.23599e-10 
18 1 0.0318688 0.0160818 0.00808808 0.0118121 -0.000377629 -0.00021062 -2.00159e-09 3.26332e-09 -2.22088e-09 5e-05 5.23599e-10 
19 1 0.0262155 0.017098 0.00727196 0.0115618 -0.000588426 0.000289333 8.0903e-10 6.50394e-12 -1.88469e-10 5e-05 5.23599e-10 
20 1 0.0321696 0.0165134 0.00759355 0.0113117 -0.000276141 -0.000198908 -6.26688e-10 -8.40759e-10 -1.42157e-09 5e-05 5.23599e-10 
21 1 0.038119 0.0170898 0.00734312 0.0119001 0.00112715 -0.000912026 2.36518e-10 -1.26239e-09 1.23614e-09 5e-05 5.23599e-10 
22 1 0.0322918 0.0174693 0.00716852 0.0126236 -0.000297421 0.000697226 -1.24911e-09 4.25167e-10 -1.01594e-11 5e-05 5.23599e-10 
23 1 0.0318883 0.016147 0.00801477 0.0112983 -0.000237668 -0.000377866 -2.66633e-09 -9.7638e-10 2.05467e-09 5e-05 5.23599e-10 
25 1 0.0381583 0.0172648 0.00725448 0.0118631 0.000987054 -0.000832391 -1.84377e-09 -3.67112e-09 1.54084e-09 5e-05 5.23599e-10 
26 1 0.0319261 0.0162775 0.007868 0.0113607 -0.000290459 -0.000280987 9.58927e-10 -9.40964e-10 -1.21134e-09 5e-05 5.23599e-10 
27 1 0.0319628 0.0164081 0.0077211 0.0114305 -0.000261013 -0.000278636 -5.16079e-09 -7.8144e-10 1.44151e-09 5e-05 5.23599e-10 
28 1 0.0326866 0.0180126 0.00695671 0.0128811 -0.000615822 -2.91378e-05 6.68489e-09 -5.39956e-09 3.33866e-09 5e-05 5.23599e-10 
29 1 0.037982 0.0164775 0.00765341 0.0114969 0.00109435 -0.000872054 1.82771e-10 7.53461e-10 -1.86252e-11 5e-05 5.23599e-10 
30 1 0.0321533 0.016839 0.00744012 0.0116121 -0.00034312 0.000679055 4.56213e-10 4.65165e-10 -7.82188e-11 5e-05 5.23599e-10 
31 1 0.0320779 0.0168978 0.00741076 0.0115309 -0.000354735 0.000682091 -4.33115e-10 -7.74585e-11 -1.88381e-10 5e-05 5.23599e-10 
32 1 0.0380405 0.01674 0.00752042 0.011778 0.00112464 -0.000880923 -3.75985e-10 8.54395e-10 -2.01381e-10 5e-05 5.23599e-10 
33 1 0.0321337 0.0167489 0.00747893 0.011518 -0.000352582 0.00067673 -1.01791e-10 2.61364e-10 -4.7425e-11 5e-05 5.23599e-10 
34 1 0.0320949 0.0165687 0.00755661 0.0115341 -1.51788e-05 0.000589813 3.89177e-09 -9.03087e-10 8.0401e-10 5e-05 5.23599e-10 
35 1 0.0320206 0.0162972 0.00784122 0.0112943 4.1314e-05 -0.00060707 -1.48559e-09 2.36973e-09 -2.91003e-09 5e-05 5.23599e-10 
36 1 0.0383228 0.0179895 0.00696345 0.0132448 0.00135021 4.2355e-05 -3.2764e-09 3.23552e-09 4.23558e-10 5e-05 5.23599e-10 
37 1 0.032075 0.016494 0.00762001 0.0115133 -0.000370783 8.7291e-05 1.68488e-10 -8.39037e-10 1.93542e-09 5e-05 5.23599e-10 
38 1 0.0322284 0.0167799 0.00746957 0.0113836 -0.000113359 0.000533749 1.38266e-09 -1.74505e-09 -2.38363e-10 5e-05 5.23599e-10 
39 1 0.0322317 0.0171992 0.00728485 0.0113685 -0.000203932 0.000601768 2.10217e-09 -2.78886e-09 1.16262e-09 5e-05 5.23599e-10 
40 1 0.0320387 0.0167173 0.00748854 0.0115038 -8.08648e-06 0.000521525 4.80095e-10 1.79505e-10 -1.19409e-09 5e-05 5.23599e-10 
41 1 0.0325045 0.0184018 0.00693146 0.012748 -0.000489944 0.000763539 7.1676e-10 5.65262e-10 -1.64825e-09 5e-05 5.23599e-10 
42 1 0.0324093 0.0175896 0.00712092 0.0126723 -0.000455923 0.000738619 2.27742e-09 -2.3111e-09 -1.85592e-10 5e-05 5.23599e-10 
43 1 0.0383657 0.018176 0.00690534 0.0130846 0.00122475 -0.000799662 6.15445e-09 -5.25342e-09 -3.94957e-09 5e-05 5.23599e-10 
44 1 0.0319829 0.0161667 0.00798802 0.0112539 -9.93634e-05 -0.000483582 -1.17236e-09 1.88256e-09 -3.39555e-09 5e-05 5.23599e-10 
45 1 0.0323236 0.0179897 0.00697885 0.0128261 -0.000707909 -0.000360842 -5.78971e-10 1.15032e-09 9.34803e-10 5e-05 5.23599e-10 
46 1 0.0261573 0.0172554 0.00723514 0.0115017 -0.000685849 -7.98099e-05 -2.24726e-10 -4.69524e-11 4.55873e-11 5e-05 5.23599e-10 
47 1 0.0382175 0.0175271 0.00712155 0.0119158 0.000938212 -0.000699957 -5.54153e-10 2.99392e-09 4.29402e-10 5e-05 5.23599e-10 
48 1 0.0322677 0.01696 0.00739195 0.0115108 -0.000211248 0.000615945 -1.69776e-09 -2.18365e-10 2.49645e-10 5e-05 5.23599e-10 
49 1 0.0322481 0.01687 0.00743076 0.0114758 -0.000178219 0.000604669 -6.66611e-10 -2.46867e-10 -2.47988e-10 5e-05 5.23599e-10 
50 1 0.0323129 0.0175593 0.0071298 0.0127014 -0.000441323 0.000743865 1.25912e-11 -3.69316e-09 2.59715e-09 5e-05 5.23599e-10 
51 1 0.0322645 0.0165422 0.00757983 0.0112536 -0.000431868 -0.000114666 -4.91755e-09 1.10155e-09 1.03394e-10 5e-05 5.23599e-10 
52 1 0.026003 0.0165958 0.00763555 0.0113098 -0.000331898 0.000473799 4.07297e-10 2.7841e-10 1.70329e-11 5e-05 5.23599e-10 
53 1 0.0320571 0.0164279 0.00769426 0.0111721 0.00021135 -0.000803486 -1.76904e-09 2.79587e-09 -2.44859e-09 5e-05 5.23599e-10 
54 1 0.0324303 0.0176794 0.0070822 0.0126552 -0.000441631 0.000812194 2.53165e-09 -1.57429e-09 1.92201e-09 5e-05 5.23599e-10 
55 1 0.0380797 0.0169149 0.00743177 0.0118634 0.00115496 -0.000900196 5.64952e-10 7.02001e-10 -3.15459e-10 5e-05 5.23599e-10 
56 1 0.0321565 0.0172582 0.00725544 0.0114563 -0.000229263 0.000615666 3.27998e-10 -1.33168e-09 1.02612e-09 5e-05 5.23599e-10 
57 1 0.0383442 0.0180822 0.00693254 0.0131892 0.00144581 6.74684e-05 -2.54812e-09 -2.27838e-09 1.57666e-09 5e-05 5.23599e-10 
58 1 0.032302 0.017896 0.0070064 0.0127711 -0.000751021 -0.000300594 9.8899e-10 -5.47346e-10 -1.69249e-10 5e-05 5.23599e-10 
59 1 0.0323987 0.0179259 0.00699546 0.0128349 -0.000642868 5.42189e-05 -5.67973e-10 2.24372e-09 2.05843e-09 5e-05 5.23599e-10 
60 1 0.0325328 0.0169627 0.00740283 0.0118408 -0.000402609 0.000712746 1.62191e-09 -9.92015e-10 6.15289e-10 5e-05 5.23599e-10 
61 1 0.0322376 0.0176181 0.00710042 0.0126551 -0.000493665 0.000767907 1.90818e-09 -1.03308e-09 1.80879e-09 5e-05 5.23599e-10 
62 1 0.038178 0.0173522 0.00721016 0.0118353 0.00092915 -0.000788008 -9.0791e-10 -2.89226e-09 1.29987e-09 5e-05 5.23599e-10 
63 1 0.0324925 0.0171977 0.00729738 0.0125668 -0.000650647 0.00085743 1.92438e-09 1.21467e-13 2.88928e-10 5e-05 5.23599e-10 
64 1 0.0325854 0.017233 0.00728604 0.0124887 -0.000731136 0.000893107 2.06162e-10 -7.47714e-10 6.04555e-10 5e-05 5.23599e-10 
65 1 0.0382586 0.0177115 0.00705619 0.0131295 0.00107412 0.000225791 7.11028e-10 1.27474e-09 -1.90405e-09 5e-05 5.23599e-10 
66 1 0.0321516 0.0164473 0.0076678 0.0112985 0.000186224 -0.000800975 -2.59071e-09 1.86759e-09 -1.62224e-09 5e-05 5.23599e-10 
67 1 0.0261975 0.0174474 0.00719609 0.0121175 -0.00085775 -0.000218328 5.82193e-10 2.75349e-11 -5.20045e-10 5e-05 5.23599e-10 
68 1 0.0260418 0.0167528 0.0075178 0.0114476 -0.000397782 0.000516071 1.29058e-09 -8.60498e-10 7.28497e-10 5e-05 5.23599e-10 
69 1 0.0324418 0.0181131 0.00694009 0.0129551 -0.000797162 -0.000559297 -2.36444e-09 -4.67576e-09 -1.91984e-09 5e-05 5.23599e-10 
70 1 0.0323877 0.0174999 0.00715938 0.0126772 -0.00044181 0.000751516 1.01777e-09 -1.64521e-09 9.76154e-10 5e-05 5.23599e-10 
71 1 0.0326223 0.017739 0.00706465 0.0127452 -0.000520214 0.00082018 1.56341e-09 2.19881e-10 2.45249e-10 5e-05 5.23599e-10 
72 1 0.0262192 0.0175432 0.00717758 0.0124552 -0.000923851 -0.000217756 2.75741e-10 -1.01479e-11 -1.56148e-10 5e-05 5.23599e-10 
73 1 0.0263061 0.0179266 0.00710357 0.0124198 -0.000885232 -0.000205773 1.23919e-09 -2.01e-09 6.77361e-11 5e-05 5.23599e-10 
74 1 0.0379426 0.0163044 0.00774538 0.012065 0.000975596 -0.000572228 1.25687e-09 2.20908e-09 -2.25956e-09 5e-05 5.23599e-10 
75 1 0.0260612 0.0168312 0.00745893 0.0114831 -0.000390044 0.00052482 6.1487e-10 -8.76445e-10 6.01888e-10 5e-05 5.23599e-10 
76 1 0.0380601 0.0168275 0.00747609 0.0118429 0.00113311 -0.000892325 2.8084e-10 8.66003e-10 -6.18893e-10 5e-05 5.23599e-10 
77 1 0.0380016 0.016565 0.00760908 0.0116323 0.00110242 -0.000874646 7.75128e-10 -3.77589e-10 -1.10842e-10 5e-05 5.23599e-10 
78 1 0.038021 0.0166525 0.00756474 0.0117463 0.00110691 -0.000866395 1.39159e-09 1.83918e-10 3.59295e-11 5e-05 5.23599e-10 
79 1 0.0322805 0.0178027 0.00703526 0.0128139 -0.000933882 -0.000659366 0 0 -5.1365e-09 5e-05 5.23599e-10 
80 1 0.0381976 0.0174397 0.00716584 0.0118422 0.0009525 -0.0007228 5.46879e-10 1.06093e-09 2.96232e-09 5e-05 5.23599e-10 
81 1 0.0382385 0.0176187 0.00708742 0.0127159 0.000936828 -0.000281846 2.00837e-09 1.96427e-09 -2.44819e-09 5e-05 5.23599e-10 
82 1 0.0323821 0.0170813 0.00734369 0.0114394 -1.68144e-05 0.000521069 2.20664e-09 -2.94904e-09 1.08803e-09 5e-05 5.23599e-10 
83 1 0.0321761 0.0173482 0.00721663 0.0115204 -9.58923e-05 0.00056484 3.58736e-11 -2.65674e-10 2.63557e-10 5e-05 5.23599e-10 
84 1 0.0321335 0.016382 0.00774129 0.0114106 0.000137583 -0.000731557 -1.66517e-09 2.64237e-09 -2.62188e-09 5e-05 5.23599e-10 
85 1 0.0322277 0.0170949 0.00742142 0.0116786 -0.000301233 0.000590132 3.10954e-10 2.4768e-10 -6.2764e-10 5e-05 5.23599e-10 
86 1 0.0322165 0.0175281 0.00713915 0.0126691 -0.000172761 0.000655096 -5.87337e-10 3.52729e-10 -1.77581e-11 5e-05 5.23599e-10 
87 1 0.0324976 0.0171064 0.00733786 0.012151 -0.000670645 0.000843459 1.46153e-09 1.11256e-10 -1.1397e-10 5e-05 5.23599e-10 
88 1 0.0383014 0.0178968 0.00699436 0.0131499 0.00119153 0.000118338 -1.36328e-09 2.87365e-09 -4.07102e-10 5e-05 5.23599e-10 
89 1 0.0318289 0.0159516 0.00823461 0.0116462 -0.00064998 0.000127657 3.32897e-10 1.63724e-09 -1.59246e-09 5e-05 5.23599e-10 
90 1 0.032657 0.0175746 0.00713867 0.0127648 -0.00039271 0.000757564 2.01517e-09 -2.35698e-09 7.3949e-10 5e-05 5.23599e-10 
91 1 0.0319448 0.0163427 0.00779458 0.0114035 -0.000270923 -0.000266556 1.59318e-09 -3.15538e-10 -2.75225e-10 5e-05 5.23599e-10 
92 1 0.0321895 0.0165998 0.00754723 0.0114465 -2.0771e-05 0.000502344 -2.01847e-09 -8.19133e-10 4.36517e-10 5e-05 5.23599e-10 
93 1 0.0319071 0.0162122 0.00794136 0.0113046 -0.000256465 -0.000315051 -1.78575e-09 -2.08266e-09 -6.0245e-10 5e-05 5.23599e-10 
94 1 0.0323468 0.0173201 0.00723678 0.0121325 -0.000328521 0.000693363 -1.42122e-09 -3.37113e-10 4.16999e-10 5e-05 5.23599e-10 
95 1 0.0320193 0.0166273 0.00752737 0.0116069 -5.51059e-05 0.000815111 5.63332e-09 8.64683e-10 -5.07989e-09 5e-05 5.23599e-10 
96 1 0.032271 0.0173793 0.00720723 0.0114833 -3.60695e-05 0.00053854 -7.40258e-10 8.32504e-10 -3.59332e-10 5e-05 5.23599e-10 
97 1 0.0323232 0.0168109 0.00746021 0.0114341 -0.000262774 0.00065742 -6.6837e-10 -2.36927e-10 7.45144e-10 5e-05 5.23599e-10 
98 1 0.0319998 0.0165402 0.00757257 0.0114801 -0.000457688 -4.56312e-05 -6.26097e-10 -1.85908e-09 2.61956e-09 5e-05 5.23599e-10 
99 1 0.0324626 0.0174406 0.00718891 0.0126796 -0.00049093 0.000782991 -1.56903e-09 -1.35228e-09 3.50325e-10 5e-05 5.23599e-10 
100 1 0.0326005 0.0176492 0.00710323 0.0127292 -0.000403239 0.000742804 1.4778e-09 -1.74653e-09 -1.20542e-10 5e-05 5.23599e-10 
101 1 0.0325819 0.017513 0.00716245 0.0127162 -0.000417123 0.000746434 4.34228e-10 -1.81413e-09 1.21482e-09 5e-05 5.23599e-10 
102 1 0.0323036 0.0167209 0.00749902 0.0112861 -0.000249181 0.000668656 1.68404e-09 2.55936e-09 9.46063e-10 5e-05 5.23599e-10 
103 1 0.0324948 0.0179543 0.00698154 0.0129333 -0.000892696 -0.000313575 8.28878e-10 -8.96746e-10 -1.91397e-09 5e-05 5.23599e-10 
104 1 0.0325126 0.0168727 0.00744157 0.0116274 -0.000339969 0.000674509 -1.05827e-09 1.49484e-10 -1.56626e-10 5e-05 5.23599e-10 
105 1 0.0324733 0.0166927 0.00751918 0.0112608 -0.000278986 0.000620495 -1.05419e-09 1.05286e-10 4.81715e-11 5e-05 5.23599e-10 
106 1 0.0318489 0.0160167 0.00816135 0.0116453 -0.000439606 -0.000105043 -1.91983e-09 3.12663e-09 -2.33632e-09 5e-05 5.23599e-10 
107 1 0.0326125 0.018078 0.00694131 0.0128865 -0.000739988 -0.000217718 6.79735e-09 -1.26329e-09 -7.34944e-10 5e-05 5.23599e-10 
108 1 0.0381382 0.0167708 0.00750231 0.0117789 0.00105522 -0.000854535 1.23825e-09 -3.79365e-10 -5.68785e-11 5e-05 5.23599e-10 
109 1 0.0321925 0.0170191 0.0073625 0.0115367 -0.000164931 0.000594479 3.97428e-10 1.81468e-09 -7.71576e-10 5e-05 5.23599e-10 
110 1 0.0324578 0.0170218 0.00737335 0.0117735 -0.000507985 0.000765092 1.13221e-09 4.15173e-10 -2.39437e-10 5e-05 5.23599e-10 
111 1 0.0321957 0.0174383 0.00717783 0.0114974 -5.63828e-06 0.000525026 -3.84467e-12 -1.70899e-10 -4.38941e-10 5e-05 5.23599e-10 
112 1 0.032002 0.0162319 0.00791465 0.0114045 -4.512e-05 -0.000511986 -1.72201e-09 2.75466e-09 -2.56596e-09 5e-05 5.23599e-10 
113 1 0.0324179 0.0168418 0.00745088 0.0113761 -0.000369081 0.000677365 6.65288e-10 1.45099e-09 -8.41591e-10 5e-05 5.23599e-10 
114 1 0.0319811 0.0164734 0.00764765 0.011495 -0.000321491 -0.000212197 1.88698e-09 -6.11819e-10 3.19454e-09 5e-05 5.23599e-10 
115 1 0.0326438 0.017829 0.00702593 0.0128119 -0.000612483 0.0009206 5.33046e-09 -4.8681e-09 1.83717e-09 5e-05 5.23599e-10 
116 1 0.0322514 0.0172893 0.00724604 0.0114742 -7.46037e-05 0.000555743 1.58414e-09 -7.09251e-10 5.53174e-10 5e-05 5.23599e-10 
117 1 0.0323068 0.0171401 0.00731432 0.011312 -0.000160898 0.000569363 6.56186e-09 -2.49547e-09 1.34251e-09 5e-05 5.23599e-10 
118 1 0.0325379 0.0181432 0.00692781 0.0128084 -0.000687762 -2.06317e-05 1.42528e-09 -4.01207e-09 1.72215e-09 5e-05 5.23599e-10 
119 1 0.0323451 0.0180834 0.00695129 0.0127297 -0.000905032 -0.000224891 -2.98776e-09 7.10451e-09 -4.65818e-09 5e-05 5.23599e-10 
120 1 0.0320583 0.0168077 0.00744958 0.011489 -0.000420814 0.000709308 -2.5503e-10 4.32234e-10 -2.64616e-10 5e-05 5.23599e-10 
121 1 0.0321729 0.016929 0.00740131 0.011516 -0.00013003 0.000577353 -2.01045e-10 7.84463e-10 -4.16515e-10 5e-05 5.23599e-10 
122 1 0.0324734 0.0178619 0.00701321 0.012756 -0.000576361 0.000608311 8.94412e-11 -7.15808e-10 4.56097e-10 5e-05 5.23599e-10 
123 1 0.0323624 0.016991 0.00738258 0.0116155 -0.00019375 0.000606588 -5.02917e-10 4.67256e-10 1.48526e-11 5e-05 5.23599e-10 
124 1 0.0321172 0.0170779 0.00733314 0.011539 -0.000128205 0.000582841 1.50895e-10 1.65661e-09 -9.1198e-10 5e-05 5.23599e-10 
125 1 0.032452 0.0177691 0.00704363 0.0126861 -0.000478271 0.000795978 3.26548e-10 -1.91714e-09 1.4969e-09 5e-05 5.23599e-10 
126 1 0.0326961 0.0176785 0.00709465 0.0127006 -0.00055255 0.000821893 -2.17479e-10 -1.47158e-09 3.84395e-10 5e-05 5.23599e-10 
127 1 0.0322121 0.0171091 0.00732368 0.0115653 -0.000211618 0.000615359 1.24006e-09 1.55847e-09 -7.52324e-10 5e-05 5.23599e-10 
128 1 0.0323341 0.0176491 0.00709115 0.0123557 -0.000104309 0.000683494 -3.43988e-09 2.59454e-09 5.19062e-10 5e-05 5.23599e-10 
129 1 0.0324929 0.0167827 0.00748036 0.0114522 -0.000311786 0.000644629 -2.06009e-09 1.16279e-10 -5.42164e-10 5e-05 5.23599e-10 
130 1 0.0322872 0.0170501 0.00735313 0.011562 -0.000243738 0.000631968 3.91678e-10 3.46791e-10 -1.45998e-10 5e-05 5.23599e-10 
131 1 0.0325696 0.0178896 0.00699667 0.0128965 -0.000922905 -0.000289017 3.26869e-09 -5.02681e-09 -4.31126e-10 5e-05 5.23599e-10 
132 1 0.0325269 0.0177098 0.00707315 0.0126628 -0.000467119 0.000770725 2.2539e-09 -8.3522e-10 1.59876e-09 5e-05 5.23599e-10 
133 1 0.0324417 0.0173508 0.00722756 0.0126022 -0.000512006 0.000788446 -1.77995e-09 -4.67785e-10 3.57981e-11 5e-05 5.23599e-10 
134 1 0.0325726 0.0170473 0.00736734 0.0122346 -0.000563455 0.000802371 -9.72396e-10 -1.86132e-09 8.21852e-10 5e-05 5.23599e-10 
135 1 0.0324376 0.0169319 0.00741209 0.0115075 -0.000439755 0.000717798 -7.81023e-10 1.28927e-09 -1.39088e-09 5e-05 5.23599e-10 
136 1 0.0323555 0.0177389 0.00705254 0.0128273 -0.000586834 0.000771284 -1.75013e-09 1.39761e-09 -2.2844e-09 5e-05 5.23599e-10 
137 1 0.0327523 0.0176038 0.00713016 0.0126531 -0.000572212 0.000829778 1.0508e-09 -1.1998e-09 4.92151e-10 5e-05 5.23599e-10 
138 1 0.0323772 0.0178328 0.00702507 0.0127428 -0.000540013 0.000442919 3.31602e-10 -2.6922e-09 -1.7613e-09 5e-05 5.23599e-10 
139 1 0.0322464 0.0164661 0.00764211 0.011417 -0.000403089 -0.000116884 -3.99258e-09 1.87386e-09 -1.51966e-09 5e-05 5.23599e-10 
140 1 0.0326652 0.0179187 0.00698734 0.0130578 -0.00059172 0.000915533 7.0581e-09 -5.98292e-09 -5.69956e-09 5e-05 5.23599e-10 
141 1 0.0261752 0.0169356 0.00738084 0.0115445 -0.000582721 0.000266455 2.15305e-10 3.66075e-10 4.18182e-10 5e-05 5.23599e-10 
142 1 0.0323982 0.0167518 0.00748969 0.0112584 -0.000286063 0.000665512 3.05642e-09 5.80126e-11 5.15914e-10 5e-05 5.23599e-10 
143 1 0.0324216 0.0172633 0.00727149 0.0126628 -0.000527973 0.000843307 1.54593e-09 -8.768e-11 7.40447e-10 5e-05 5.23599e-10 
144 1 0.0263496 0.0181182 0.00706656 0.0124303 -0.000899444 -0.00021037 -5.56252e-10 3.40541e-10 1.70799e-10 5e-05 5.23599e-10 
145 1 0.0262627 0.0177349 0.00714058 0.0124488 -0.00095182 -0.000188567 3.74468e-09 -2.34277e-09 -4.08372e-10 5e-05 5.23599e-10 
146 1 0.0324628 0.0176134 0.00720199 0.0125405 -0.00036744 0.000768318 1.83046e-09 -8.17283e-10 3.40603e-10 5e-05 5.23599e-10 
147 1 0.0325566 0.0182378 0.00690139 0.0127453 -0.000486055 0.000774369 1.60953e-09 2.74367e-09 3.48584e-11 5e-05 5.23599e-10 
148 1 0.0380994 0.0170024 0.00738744 0.0118299 0.0011529 -0.000904873 4.87192e-10 -1.69937e-09 2.54326e-10 5e-05 5.23599e-10 
149 1 0.0383869 0.0182733 0.00691364 0.0132819 0.00107204 -0.000543606 -3.38225e-09 -4.1194e-10 1.94071e-09 5e-05 5.23599e-10 
150 1 0.0382334 0.0172049 0.0072824 0.011875 0.00110825 -0.000896822 2.24888e-09 -2.82203e-09 -4.56005e-10 5e-05 5.23599e-10 
151 1 0.0324202 0.0180191 0.00696633 0.0128928 -0.000754619 -0.000325167 -6.33904e-10 2.90405e-09 -1.95461e-09 5e-05 5.23599e-10 
152 1 0.0323266 0.0172302 0.00727553 0.0114019 -0.000175847 0.000593498 4.10445e-10 -1.01167e-09 2.9401e-10 5e-05 5.23599e-10 
153 1 0.0325168 0.0180484 0.00695383 0.0130392 -0.000591665 -0.000191773 -2.23479e-09 1.72651e-09 6.69001e-09 5e-05 5.23599e-10 
154 1 0.032339 0.0170783 0.00743389 0.0115884 -7.75874e-05 0.000583139 -7.04278e-10 1.20504e-11 2.54094e-10 5e-05 5.23599e-10 
155 1 0.0262345 0.0171937 0.00725 0.011511 -0.000591547 0.000290863 -3.49599e-10 -1.15272e-10 2.98891e-10 5e-05 5.23599e-10 
156 1 0.0323787 0.0166617 0.00752851 0.011251 -0.000201204 0.000633377 -1.11603e-09 1.54691e-09 -8.13849e-11 5e-05 5.23599e-10 
157 1 0.0325996 0.0184304 0.00694384 0.0127577 -0.000415963 0.000787683 4.76392e-10 5.58469e-11 -1.01631e-09 5e-05 5.23599e-10 
158 1 0.0263279 0.0180224 0.00708507 0.0124344 -0.000883204 -0.000211822 5.74554e-10 2.41452e-10 -1.26685e-11 5e-05 5.23599e-10 
159 1 0.0323592 0.0165717 0.00756733 0.0112323 -0.000207118 0.000578801 -3.2726e-09 -2.05469e-10 4.58637e-10 5e-05 5.23599e-10 
160 1 0.0382137 0.0171174 0.00732672 0.0119745 0.0012025 -0.00089924 5.15447e-09 -4.40598e-09 1.24371e-09 5e-05 5.23599e-10 
161 1 0.0327603 0.0179486 0.00697849 0.0128104 -0.000354425 0.000635276 4.41322e-09 -4.10702e-09 -2.12378e-09 5e-05 5.23599e-10 
162 1 0.0323453 0.0179613 0.00707223 0.0126437 -0.000360043 -0.000244763 1.94154e-10 5.60857e-10 -2.28653e-10 5e-05 5.23599e-10 
163 1 0.0325248 0.0184974 0.00695236 0.0126805 -0.000474108 0.000791132 1.33508e-10 -4.22677e-10 -1.1672e-09 5e-05 5.23599e-10 
164 1 0.0322841 0.0166308 0.00753784 0.011357 -7.96708e-05 0.00058072 1.39316e-09 -6.28404e-09 1.57778e-09 5e-05 5.23599e-10 
165 1 0.0261192 0.017064 0.00727864 0.011598 -0.000630754 0.000292002 -9.99656e-12 1.22682e-10 -8.6476e-11 5e-05 5.23599e-10 
166 1 0.0325288 0.0173075 0.00725063 0.0125959 -0.000640114 0.000859222 -1.34054e-09 -6.20129e-10 -9.76462e-11 5e-05 5.23599e-10 
167 1 0.0261767 0.0173513 0.0072146 0.0115624 -0.000741754 -0.000229032 -4.80022e-11 4.61894e-10 1.13305e-10 5e-05 5.23599e-10 
168 1 0.0322202 0.0169697 0.00747945 0.0114724 -0.000141808 0.000582629 -1.18044e-09 7.5529e-10 -4.85179e-10 5e-05 5.23599e-10 
169 1 0.0323883 0.0182708 0.00689643 0.0134217 -0.00115105 0.000541474 -7.24571e-09 3.28319e-08 -1.55197e-08 5e-05 5.23599e-10 
170 1 0.0324539 0.0166026 0.007558 0.0112623 -0.00027481 0.000637585 -3.05485e-09 -3.56388e-10 -1.49546e-10 5e-05 5.23599e-10 
171 1 0.0261558 0.0168579 0.00744069 0.0114904 -0.000380782 0.000501742 1.52019e-10 -5.64501e-10 -1.12209e-10 5e-05 5.23599e-10 
173 1 0.0323667 0.0181771 0.00692375 0.0130652 -0.000753884 -0.000278538 -3.11911e-09 -1.05298e-08 -1.53888e-09 5e-05 5.23599e-10 
174 1 0.0260806 0.0169097 0.00740006 0.0115171 -0.000361499 0.000495533 1.5865e-10 -6.2601e-10 4.13821e-10 5e-05 5.23599e-10 
175 1 0.0323428 0.016901 0.0074214 0.011443 -0.00028872 0.000644245 -1.95524e-09 -5.41214e-10 7.18453e-10 5e-05 5.23599e-10 
176 1 0.0324504 0.0185636 0.00696072 0.0126324 -0.000481996 0.000779389 5.39534e-11 -8.09988e-10 2.15447e-11 5e-05 5.23599e-10 
177 1 0.0260999 0.016987 0.00733951 0.0115476 -0.0006717 0.000227775 1.11677e-10 1.83416e-10 -1.11858e-10 5e-05 5.23599e-10 
178 1 0.0324842 0.0175303 0.00715035 0.0126928 -0.000462091 0.000792884 8.49899e-10 -1.481e-09 3.78964e-10 5e-05 5.23599e-10 
179 1 0.0324841 0.0183062 0.00691034 0.012767 -0.000512142 0.000792787 -2.70204e-10 9.46445e-10 -1.56485e-09 5e-05 5.23599e-10 
180 1 0.0261383 0.0171597 0.0072569 0.0115305 -0.000630557 0.000226926 4.41922e-11 -6.26258e-10 -1.92308e-10 5e-05 5.23599e-10 
181 1 0.026241 0.017639 0.00715908 0.0124616 -0.000938793 -0.000204537 1.89801e-09 -1.03515e-09 -2.83554e-10 5e-05 5.23599e-10 
182 1 0.0324096 0.0183718 0.00692169 0.0127783 -0.00056107 0.000731675 -8.84326e-10 7.65045e-10 1.46122e-10 5e-05 5.23599e-10 
183 1 0.0322587 0.017708 0.00706179 0.0120557 -0.000623923 0.00195941 9.8721e-08 -7.81743e-08 1.26363e-08 5e-05 5.23599e-10 
184 1 0.0262844 0.0178307 0.00712207 0.0124175 -0.000923619 -0.000194897 3.0599e-09 -3.29073e-09 1.76336e-11 5e-05 5.23599e-10 
185 1 0.0261364 0.0167794 0.00749957 0.0114774 -0.000378068 0.000520888 3.06718e-10 -1.19797e-10 -2.35968e-10 5e-05 5.23599e-10 
186 1 0.0324301 0.018468 0.00693972 0.0127101 -0.000494582 0.000723107 -5.65356e-10 -8.63446e-10 -2.00331e-09 5e-05 5.23599e-10 
187 1 0.0261952 0.0170134 0.00732136 0.0116336 -0.000620579 0.000265273 6.51041e-11 -8.11285e-11 -6.19706e-10 5e-05 5.23599e-10 
188 1 0.0325917 0.017984 0.00696941 0.0130692 -0.000535691 0.000335371 2.78465e-09 -4.02115e-09 -5.31515e-09 5e-05 5.23599e-10 
189 1 0.0260224 0.0166743 0.00757667 0.0114373 -0.00036187 0.000500891 1.74638e-10 -1.52238e-10 5.43616e-11 5e-05 5.23599e-10 
190 1 0.0323223 0.0174096 0.00728756 0.0119573 -8.77142e-05 0.000405124 5.1142e-10 -2.05706e-09 2.79324e-09 5e-05 5.23599e-10 
