ITEM: TIMESTEP
1400000
ITEM: NUMBER OF ATOMS
188
ITEM: BOX BOUNDS ff ff ff
-0.02 0.43
-0.02 0.06
-0.02 0.07
ITEM: ATOMS id type x y z vx vy vz fx fy fz radius mass 
1 1 0.029799 0.0166201 0.007538 0.0113978 -1.93998e-05 -0.000360294 -1.49997e-10 2.31791e-10 3.88496e-10 5e-05 5.23599e-10 
2 1 0.0354897 0.0160904 0.00791546 0.0116829 -0.000289308 -0.000129509 -2.1171e-09 2.27949e-09 5.0961e-10 5e-05 5.23599e-10 
3 1 0.0295476 0.0160097 0.00808018 0.012039 0.000432807 0.000248325 -2.33547e-10 1.45011e-09 -1.62299e-09 5e-05 5.23599e-10 
4 1 0.0358668 0.0177458 0.00706269 0.011551 -0.000438608 5.79142e-05 7.29998e-10 5.45015e-10 -4.42118e-10 5e-05 5.23599e-10 
5 1 0.0296861 0.0168939 0.00736315 0.0116423 0.00035879 -0.000140256 -3.29281e-11 2.97651e-11 -5.11686e-09 5e-05 5.23599e-10 
6 1 0.0300876 0.0175589 0.00719761 0.0113601 0.000103296 -0.000511872 -1.71232e-09 2.22066e-10 -2.73414e-10 5e-05 5.23599e-10 
7 1 0.0355103 0.0161774 0.00787066 0.0116954 -0.000234389 -3.02989e-05 -4.40627e-10 1.0825e-09 5.57344e-10 5e-05 5.23599e-10 
8 1 0.0299534 0.0173401 0.00726292 0.0114542 0.000225985 0.0001042 3.81656e-10 -1.23386e-10 -3.72e-10 5e-05 5.23599e-10 
9 1 0.0293869 0.0157731 0.00830291 0.0125948 3.28669e-05 0.000673303 -1.17759e-09 2.11279e-09 -2.11638e-09 5e-05 5.23599e-10 
10 1 0.0297039 0.0165968 0.00755977 0.0115853 -0.000129166 -0.000215249 2.38277e-10 4.376e-10 8.41322e-10 5e-05 5.23599e-10 
11 1 0.0296266 0.0162945 0.00781064 0.0119654 -0.000168659 -0.000164641 -8.11481e-10 -2.47306e-10 4.56441e-10 5e-05 5.23599e-10 
12 1 0.0355514 0.0163515 0.00778099 0.0115846 -0.00068981 0.000153147 -6.86407e-09 7.07138e-09 -2.80208e-09 5e-05 5.23599e-10 
13 1 0.0297249 0.0170852 0.00731916 0.0114921 0.000199791 8.73899e-05 1.75791e-10 -7.37911e-11 2.16065e-10 5e-05 5.23599e-10 
14 1 0.0301278 0.0177469 0.00714246 0.0122931 -9.68445e-05 -0.000508565 -6.08529e-10 -1.9383e-10 4.77376e-10 5e-05 5.23599e-10 
15 1 0.0357317 0.0171353 0.00737717 0.0111384 -0.000331308 -7.95266e-06 2.25728e-09 4.99582e-10 -5.57847e-10 5e-05 5.23599e-10 
16 1 0.0300406 0.0181571 0.00702965 0.0125502 -1.35205e-06 -0.000539057 3.40812e-10 4.78084e-10 -2.13862e-10 5e-05 5.23599e-10 
17 1 0.0359727 0.0177876 0.00703964 0.011634 -0.000433494 5.47708e-05 -9.01835e-10 2.06238e-09 -1.27959e-09 5e-05 5.23599e-10 
18 1 0.0294521 0.0159841 0.00809982 0.0128809 0.000144841 0.000569013 1.08226e-09 2.8913e-09 -7.38312e-10 5e-05 5.23599e-10 
19 1 0.0238327 0.0171644 0.00725033 0.011437 -0.000674152 0.000158326 1.49396e-10 -3.72854e-10 5.59405e-11 5e-05 5.23599e-10 
20 1 0.0297605 0.016469 0.00766329 0.0114633 -3.36839e-05 -0.000300703 -1.06559e-10 -1.3178e-10 -3.12006e-10 5e-05 5.23599e-10 
21 1 0.0357124 0.017048 0.0074221 0.0112387 -0.000257893 -3.39736e-05 2.03758e-10 -5.33533e-11 -6.31842e-10 5e-05 5.23599e-10 
22 1 0.0298783 0.0174042 0.0072471 0.0114802 0.000275564 8.79448e-05 7.16987e-10 2.70409e-10 1.24604e-09 5e-05 5.23599e-10 
23 1 0.0294725 0.0160546 0.00803189 0.0119211 0.000286348 0.000371485 -8.15458e-10 1.77526e-09 -2.01958e-09 5e-05 5.23599e-10 
25 1 0.0357508 0.0172225 0.00733224 0.0112491 -0.000405468 3.07429e-05 1.01665e-09 1.76877e-09 3.48848e-11 5e-05 5.23599e-10 
26 1 0.0295117 0.0161969 0.007897 0.0117333 0.000123892 0.000152942 7.94166e-10 -2.89038e-10 -2.31572e-09 5e-05 5.23599e-10 
27 1 0.0295513 0.0163464 0.00777025 0.0119401 -0.000170489 -0.000196168 -7.19351e-10 5.80961e-10 -3.45185e-10 5e-05 5.23599e-10 
28 1 0.0302655 0.0179638 0.0070749 0.0123813 -0.000213358 -0.000474069 -3.33786e-10 8.26574e-10 3.81623e-12 5e-05 5.23599e-10 
29 1 0.0355719 0.0164384 0.00773616 0.0117755 -0.000771025 0.00020312 7.82836e-11 -3.22054e-10 8.40275e-10 5e-05 5.23599e-10 
30 1 0.0297419 0.0167488 0.00743554 0.0117538 5.96544e-05 -4.72537e-05 -1.98442e-09 2.13932e-09 -3.88428e-09 5e-05 5.23599e-10 
31 1 0.029666 0.0168003 0.00739337 0.0118173 -5.20677e-05 -0.000242141 -1.63721e-09 -1.59693e-09 2.4971e-09 5e-05 5.23599e-10 
32 1 0.0356334 0.0166994 0.00760167 0.0112112 -0.000351606 1.39246e-06 -1.77352e-09 1.69949e-09 -1.89735e-09 5e-05 5.23599e-10 
33 1 0.0297228 0.0166723 0.00749707 0.011654 -0.000115208 -0.00021196 1.28432e-09 1.01908e-09 -1.26548e-09 5e-05 5.23599e-10 
34 1 0.0296852 0.0165209 0.00762272 0.011439 -3.35231e-05 -0.000289149 9.85199e-10 -3.49619e-10 -1.66371e-10 5e-05 5.23599e-10 
35 1 0.0296066 0.0162214 0.00787599 0.0119079 0.000388557 0.000238685 -2.01112e-09 1.77868e-09 3.36503e-10 5e-05 5.23599e-10 
36 1 0.0359055 0.0179202 0.00697286 0.0116848 -0.000380941 6.16854e-06 -2.82877e-09 8.89401e-10 -6.76979e-10 5e-05 5.23599e-10 
37 1 0.0296659 0.0164454 0.00768539 0.0115156 -0.000110229 -0.000258697 7.48287e-10 -1.39904e-09 1.10335e-09 5e-05 5.23599e-10 
38 1 0.029818 0.0166965 0.00747644 0.0114686 6.61088e-06 -0.000297223 -1.05212e-09 6.02914e-10 3.95416e-10 5e-05 5.23599e-10 
39 1 0.0298198 0.0171172 0.00731294 0.011495 0.00020331 9.94585e-05 -8.31229e-10 3.77456e-10 -1.51922e-10 5e-05 5.23599e-10 
40 1 0.0296282 0.0166485 0.00751931 0.0116772 -0.00013603 -0.000191462 1.39139e-09 -9.59158e-10 3.79873e-10 5e-05 5.23599e-10 
41 1 0.0300824 0.0183447 0.00697452 0.0126894 -5.07286e-05 -0.000533963 1.07822e-09 -1.16262e-10 -3.97924e-11 5e-05 5.23599e-10 
42 1 0.0299927 0.017529 0.00721023 0.0115374 0.000119045 -0.000536603 -4.84402e-10 -9.8952e-11 1.94577e-11 5e-05 5.23599e-10 
43 1 0.035942 0.0181026 0.00695332 0.0116688 -0.000458643 9.7271e-05 6.83885e-11 -4.77095e-10 -6.02691e-10 5e-05 5.23599e-10 
44 1 0.0295671 0.0160803 0.00801207 0.0119599 0.000454401 0.000235418 -1.69884e-11 6.58395e-10 -5.18142e-10 5e-05 5.23599e-10 
45 1 0.0299022 0.0179394 0.00709749 0.0123584 1.48234e-05 -0.000533599 -3.30025e-11 7.32008e-10 -6.42083e-10 5e-05 5.23599e-10 
46 1 0.0237755 0.0173252 0.00722504 0.0114558 -0.000646307 0.000155282 -6.27236e-10 -1.26051e-10 -2.98501e-10 5e-05 5.23599e-10 
47 1 0.0358087 0.0174842 0.00719746 0.0113652 -0.00059863 0.000131671 -5.13474e-10 -2.5486e-09 1.67074e-09 5e-05 5.23599e-10 
48 1 0.0298562 0.016862 0.0073726 0.0115274 0.000264891 9.48095e-05 -4.94924e-10 3.7524e-10 2.85515e-11 5e-05 5.23599e-10 
49 1 0.0298369 0.0167743 0.00741644 0.0115523 0.000165273 -7.2575e-05 -9.29216e-10 2.27354e-10 3.38885e-10 5e-05 5.23599e-10 
50 1 0.0298979 0.0174992 0.00722278 0.0114408 0.000193003 -0.000521923 1.6721e-10 -1.60413e-09 -1.41697e-10 5e-05 5.23599e-10 
51 1 0.0298552 0.0164928 0.0076411 0.0114086 -1.84326e-06 -0.000309713 -8.91405e-10 -2.00425e-10 -9.33686e-10 5e-05 5.23599e-10 
52 1 0.0236225 0.0166459 0.00758851 0.0114327 -0.000592754 0.000356962 -9.57626e-10 1.76538e-10 -1.56643e-10 5e-05 5.23599e-10 
53 1 0.0296464 0.0163699 0.00774803 0.0120431 -0.000189072 -0.000191355 -1.33995e-09 6.04741e-10 8.22227e-10 5e-05 5.23599e-10 
54 1 0.0300125 0.0176232 0.00718258 0.011311 5.33146e-05 -0.000510558 1.04612e-10 -8.87217e-10 1.94401e-10 5e-05 5.23599e-10 
55 1 0.035673 0.0168737 0.00751189 0.0114228 -0.00031785 -4.08172e-06 4.61401e-10 -2.58657e-09 1.53242e-09 5e-05 5.23599e-10 
56 1 0.0297443 0.0171808 0.00729722 0.0114743 0.000194288 0.000108007 1.74476e-11 2.49812e-10 -1.99801e-10 5e-05 5.23599e-10 
57 1 0.0359248 0.0180075 0.00692794 0.0116445 -0.000420107 3.26413e-05 -9.75298e-10 -7.85935e-10 7.91021e-10 5e-05 5.23599e-10 
58 1 0.0298815 0.0178454 0.00712508 0.0114717 0.000139206 -0.000533784 6.89594e-11 6.54637e-10 -1.9361e-10 5e-05 5.23599e-10 
59 1 0.0299778 0.0178756 0.00711234 0.0123445 -3.52447e-05 -0.000524618 -8.66271e-10 -3.40116e-10 1.10718e-10 5e-05 5.23599e-10 
60 1 0.0301215 0.0168613 0.00737612 0.0114742 0.000337213 7.58835e-05 -1.16147e-10 -4.94249e-10 -2.30497e-10 5e-05 5.23599e-10 
61 1 0.0298225 0.0175631 0.00720786 0.0114865 0.000193517 -0.000552458 -3.32121e-11 -1.02988e-09 -2.18265e-10 5e-05 5.23599e-10 
62 1 0.0357702 0.0173097 0.00728732 0.011253 -0.00047112 5.26142e-05 -4.81601e-10 4.47286e-10 5.18746e-10 5e-05 5.23599e-10 
63 1 0.0300779 0.01711 0.00731786 0.0114682 0.000272022 6.60078e-05 -4.84629e-10 7.96749e-10 -1.35877e-09 5e-05 5.23599e-10 
64 1 0.0301708 0.0171464 0.00731058 0.0115252 0.000388237 7.61827e-05 1.25478e-09 1.05197e-09 -3.90413e-09 5e-05 5.23599e-10 
65 1 0.0358475 0.0176586 0.00710762 0.0114872 -0.000520845 8.1633e-05 7.19389e-10 -1.55864e-10 1.28986e-10 5e-05 5.23599e-10 
66 1 0.0297412 0.0163935 0.00772595 0.0116149 -4.66282e-05 -0.000276881 3.52972e-09 -3.33631e-10 -1.51995e-09 5e-05 5.23599e-10 
67 1 0.0238143 0.0175191 0.00719508 0.011338 -0.00059577 0.000171013 1.47475e-09 -4.17966e-10 1.53076e-10 5e-05 5.23599e-10 
68 1 0.0236613 0.016806 0.00747509 0.0115377 -0.000599261 0.000369009 -2.07911e-09 -2.17577e-10 2.48816e-11 5e-05 5.23599e-10 
69 1 0.0300196 0.0180633 0.00705721 0.012471 -2.79902e-06 -0.000538081 -2.53023e-11 6.28048e-10 -1.25034e-10 5e-05 5.23599e-10 
70 1 0.029973 0.0174349 0.00723782 0.0113736 0.000215568 -0.000547998 -9.20738e-10 -3.92581e-10 -1.07691e-09 5e-05 5.23599e-10 
71 1 0.0302026 0.0176823 0.00715761 0.012157 -0.000212221 -0.000483438 8.03509e-11 -7.57099e-10 4.60681e-10 5e-05 5.23599e-10 
72 1 0.0238336 0.0176161 0.0071801 0.0113231 -0.000556965 0.00014988 -1.10906e-09 -8.04767e-10 5.26133e-10 5e-05 5.23599e-10 
73 1 0.0239166 0.0180028 0.00712039 0.0121603 -0.000709725 0.000171608 6.62139e-10 1.33773e-10 -1.24875e-10 5e-05 5.23599e-10 
74 1 0.0355308 0.0162645 0.00782582 0.0117556 -0.000240206 -3.86469e-05 1.24797e-09 -5.6463e-09 4.70364e-09 5e-05 5.23599e-10 
75 1 0.0236803 0.0168861 0.00741835 0.0113117 -0.000590167 0.000347546 5.23558e-10 1.61807e-09 -4.35769e-10 5e-05 5.23599e-10 
76 1 0.0356532 0.0167866 0.00755678 0.0113226 -0.000323855 4.90276e-06 -1.53746e-09 -1.03895e-09 4.07484e-10 5e-05 5.23599e-10 
77 1 0.0355924 0.0165254 0.00769134 0.0119393 -0.000615994 0.000129462 -4.83461e-09 2.16632e-09 -8.69645e-10 5e-05 5.23599e-10 
78 1 0.035613 0.0166124 0.00764651 0.0120299 -0.000452647 -1.25724e-05 -1.04865e-11 7.65425e-09 -3.61056e-09 5e-05 5.23599e-10 
79 1 0.0298618 0.0177513 0.00715268 0.0114474 8.47089e-05 -0.000508916 2.13688e-10 -1.39718e-09 3.88927e-10 5e-05 5.23599e-10 
80 1 0.0357895 0.0173969 0.00724239 0.0112781 -0.000532269 8.82971e-05 -1.54518e-09 -2.23949e-09 6.56007e-10 5e-05 5.23599e-10 
81 1 0.0358281 0.0175714 0.00715263 0.0114284 -0.000593668 0.000115989 9.35861e-10 -1.07951e-09 2.67977e-10 5e-05 5.23599e-10 
82 1 0.0299704 0.0169894 0.00734448 0.0115055 0.000218079 8.09738e-05 -9.75426e-10 1.54906e-10 7.55174e-11 5e-05 5.23599e-10 
83 1 0.0297638 0.0172765 0.00727528 0.0114619 0.000185286 8.9649e-05 -3.05924e-10 6.26198e-10 -1.2441e-10 5e-05 5.23599e-10 
84 1 0.0297217 0.0163181 0.00778859 0.012095 -0.000165801 -0.00021204 7.11696e-10 -8.489e-10 4.4952e-10 5e-05 5.23599e-10 
85 1 0.0298356 0.0169371 0.00743994 0.0115275 0.000231481 0.000110129 -2.44781e-10 -8.16482e-10 1.0615e-10 5e-05 5.23599e-10 
86 1 0.0298029 0.0174679 0.00723136 0.011494 0.000283124 9.31472e-05 -3.56574e-11 -9.06672e-10 7.25067e-10 5e-05 5.23599e-10 
87 1 0.0300882 0.0170131 0.00734047 0.0115222 0.000307698 7.66555e-05 -3.93372e-10 -1.70564e-10 3.6305e-10 5e-05 5.23599e-10 
88 1 0.0358863 0.0178336 0.00701897 0.0116182 -0.000391036 2.48535e-05 2.26156e-10 1.32619e-09 -1.78975e-09 5e-05 5.23599e-10 
89 1 0.0294086 0.0158435 0.00823521 0.0126817 3.46852e-05 0.000696165 -2.60813e-09 -1.60859e-09 1.56178e-09 5e-05 5.23599e-10 
90 1 0.0302494 0.0175161 0.00720281 0.0114857 -0.000427544 -0.000357296 -3.84407e-10 1.75466e-09 -1.23432e-09 5e-05 5.23599e-10 
91 1 0.0295313 0.0162713 0.00783313 0.0118726 -8.21709e-05 -9.97871e-05 -2.96574e-09 4.9631e-10 -2.72868e-09 5e-05 5.23599e-10 
92 1 0.0297798 0.0165445 0.00760063 0.0114066 -3.5512e-06 -0.000330307 -5.76705e-10 4.79269e-10 -1.50013e-10 5e-05 5.23599e-10 
93 1 0.0294919 0.0161252 0.00796378 0.0117301 0.000293922 0.000351584 -9.28936e-10 3.80261e-10 -1.01713e-09 5e-05 5.23599e-10 
94 1 0.0299339 0.0172445 0.00728485 0.0115209 0.000226902 0.000104701 8.06668e-10 -8.41255e-10 -4.22842e-10 5e-05 5.23599e-10 
95 1 0.0296094 0.0165728 0.00758215 0.0115748 -0.000162132 -0.000181416 -6.68462e-10 1.02864e-09 -1.21582e-09 5e-05 5.23599e-10 
96 1 0.0298587 0.0173084 0.00726906 0.0115228 0.000190255 9.71862e-05 6.07139e-10 4.44841e-10 -2.24937e-10 5e-05 5.23599e-10 
97 1 0.0299125 0.0167199 0.00745265 0.0115155 -7.27986e-05 -0.000255345 -3.18579e-10 -2.01056e-11 -3.91685e-10 5e-05 5.23599e-10 
98 1 0.0295906 0.0164972 0.00764487 0.0114915 -0.000118216 -0.000229675 2.03994e-10 6.61043e-10 -4.35779e-10 5e-05 5.23599e-10 
99 1 0.0300496 0.0173722 0.0072538 0.0111867 0.000139885 -0.00043123 2.60824e-10 -4.03084e-10 2.37119e-10 5e-05 5.23599e-10 
100 1 0.0301824 0.0175883 0.00718519 0.0116287 -0.000325167 -0.00041045 -5.29835e-10 3.56566e-09 -1.47053e-09 5e-05 5.23599e-10 
101 1 0.0301789 0.0174488 0.00722499 0.0111866 -0.000157891 -0.000409588 -1.77305e-09 -3.4966e-09 1.14795e-10 5e-05 5.23599e-10 
102 1 0.0298936 0.016644 0.00751558 0.0114327 -6.21917e-05 -0.000269879 -2.75298e-10 2.43878e-10 8.37788e-10 5e-05 5.23599e-10 
103 1 0.0300738 0.0179052 0.0070998 0.0123361 -8.37648e-05 -0.000524933 -9.63462e-10 2.74916e-10 9.00245e-10 5e-05 5.23599e-10 
104 1 0.0301014 0.0167685 0.00740739 0.0115379 0.000140719 -0.000430167 -2.75459e-12 -4.28719e-10 -1.48087e-10 5e-05 5.23599e-10 
105 1 0.030065 0.016617 0.00753299 0.0114677 3.33589e-05 -0.000349931 -4.04554e-10 -4.05816e-10 7.63069e-11 5e-05 5.23599e-10 
106 1 0.0294303 0.0159138 0.00816751 0.0127439 3.89936e-05 0.000682599 1.63914e-11 -1.69463e-09 2.81039e-09 5e-05 5.23599e-10 
107 1 0.0301907 0.0180285 0.00705974 0.0124586 -0.00010471 -0.000507918 -3.81435e-10 9.9869e-10 -1.31679e-10 5e-05 5.23599e-10 
108 1 0.0357303 0.0167294 0.00758483 0.0112779 -0.00051056 8.46415e-05 -2.34818e-09 2.31461e-09 -8.48137e-10 5e-05 5.23599e-10 
109 1 0.0297809 0.0169259 0.00735699 0.0115211 0.000243344 6.86072e-05 -1.0032e-09 -3.69629e-10 3.62901e-10 5e-05 5.23599e-10 
110 1 0.0300459 0.0169248 0.0073605 0.0115053 0.000340392 5.30052e-05 7.12289e-10 -8.62442e-10 2.08648e-10 5e-05 5.23599e-10 
111 1 0.0297833 0.0173722 0.00725331 0.0115393 0.00022207 8.11333e-05 -8.89249e-11 1.09035e-09 -1.96193e-09 5e-05 5.23599e-10 
112 1 0.029587 0.0161508 0.00794406 0.0119974 0.000461417 0.000205101 -1.126e-09 2.19266e-09 -1.6231e-10 5e-05 5.23599e-10 
113 1 0.0300074 0.016746 0.00743457 0.0114743 0.000296941 -2.35149e-05 7.9496e-11 -5.64615e-10 -1.52e-10 5e-05 5.23599e-10 
114 1 0.0295711 0.0164217 0.00770751 0.0119572 -0.000190827 -0.00017823 -1.85198e-10 -4.12174e-10 1.73506e-09 5e-05 5.23599e-10 
115 1 0.0302236 0.0177761 0.00713004 0.0122203 -0.000126453 -0.000518293 -2.96117e-10 -8.04878e-11 -3.79833e-11 5e-05 5.23599e-10 
116 1 0.0298393 0.0172128 0.007291 0.0115043 0.000196544 8.86697e-05 1.73063e-11 5.88182e-10 -1.2065e-10 5e-05 5.23599e-10 
117 1 0.0298951 0.0170533 0.00732872 0.0115007 0.000216278 9.39296e-05 -3.8611e-12 7.57834e-10 -3.94148e-10 5e-05 5.23599e-10 
118 1 0.0301157 0.0180928 0.00704467 0.0125019 -5.23217e-05 -0.000520933 -2.48421e-10 1.66215e-10 -1.04317e-10 5e-05 5.23599e-10 
119 1 0.0299231 0.0180332 0.00706993 0.0124092 1.6242e-05 -0.000538753 -6.35947e-10 -1.44241e-10 -7.31167e-12 5e-05 5.23599e-10 
120 1 0.0296471 0.0167246 0.0074562 0.011783 -3.84561e-05 -0.000291559 1.34635e-10 -9.40274e-11 -5.57926e-10 5e-05 5.23599e-10 
121 1 0.0297606 0.0168291 0.00737902 0.0116487 0.000304236 0.000125293 -1.20928e-09 4.02759e-09 -1.96689e-09 5e-05 5.23599e-10 
122 1 0.0300529 0.0178114 0.00712737 0.0123046 -7.93512e-05 -0.000502869 -9.03044e-10 -3.54111e-10 2.32854e-10 5e-05 5.23599e-10 
123 1 0.0299509 0.0168937 0.00736645 0.0115931 0.000255688 9.56152e-05 -2.01859e-10 -2.48039e-09 3.01894e-10 5e-05 5.23599e-10 
124 1 0.0297055 0.0169897 0.00734127 0.0115227 0.000210305 4.39065e-05 -4.40053e-11 7.15558e-10 7.61258e-10 5e-05 5.23599e-10 
125 1 0.0300321 0.0177173 0.00715499 0.0114078 6.25458e-05 -0.000511986 -1.93244e-10 -1.77638e-10 -1.15911e-10 5e-05 5.23599e-10 
126 1 0.0302773 0.0176175 0.00717279 0.0118987 -0.000446396 -0.000396153 2.9447e-10 -1.18744e-09 2.62732e-11 5e-05 5.23599e-10 
127 1 0.0298004 0.0170216 0.00733488 0.0115033 0.000205527 8.32149e-05 1.13826e-09 6.04003e-10 -4.35222e-10 5e-05 5.23599e-10 
128 1 0.0299176 0.0175933 0.00719519 0.0115006 0.000120762 -0.000528624 9.3616e-10 1.27139e-09 -3.70134e-10 5e-05 5.23599e-10 
129 1 0.030084 0.0166926 0.00747029 0.0114331 2.8637e-05 -0.000345561 -4.13771e-10 -3.26473e-11 2.04852e-10 5e-05 5.23599e-10 
130 1 0.0298757 0.0169576 0.00735066 0.0115415 0.000227844 0.00010149 6.07147e-10 2.18454e-10 4.68055e-11 5e-05 5.23599e-10 
131 1 0.0301488 0.0178407 0.0071149 0.0122935 -0.000104304 -0.000510971 -1.2264e-10 -8.85936e-11 6.26045e-10 5e-05 5.23599e-10 
132 1 0.0301077 0.0176529 0.00717004 0.0119177 -2.63438e-05 -0.00052289 -1.56054e-09 3.18038e-10 -3.39963e-10 5e-05 5.23599e-10 
133 1 0.0300298 0.0172774 0.00727842 0.0114356 0.000204207 8.75271e-05 -4.88673e-10 5.26503e-10 1.47908e-09 5e-05 5.23599e-10 
134 1 0.0301638 0.0169497 0.00735615 0.0114916 0.000311509 6.47042e-05 3.43846e-10 -3.90447e-10 2.13306e-10 5e-05 5.23599e-10 
135 1 0.030026 0.0168292 0.00738234 0.0114965 0.000336472 6.08828e-05 -1.83713e-10 -5.34887e-10 -1.62673e-10 5e-05 5.23599e-10 
136 1 0.0299375 0.0176876 0.00716752 0.01142 0.000128673 -0.000526115 6.71822e-10 -5.18123e-10 2.61852e-10 5e-05 5.23599e-10 
137 1 0.0303442 0.0175454 0.00719042 0.0115911 -0.000642055 -0.000310673 1.29471e-09 3.17937e-10 -1.31736e-09 5e-05 5.23599e-10 
138 1 0.0299571 0.0177817 0.00713994 0.0114576 0.000123418 -0.000530787 -3.40766e-11 8.35248e-12 3.4205e-11 5e-05 5.23599e-10 
139 1 0.0298359 0.0164173 0.00770377 0.01145 -3.2503e-05 -0.000281987 3.10279e-09 1.72948e-10 -8.81564e-10 5e-05 5.23599e-10 
140 1 0.0302445 0.01787 0.00710246 0.0122766 -0.000214508 -0.000469149 5.29243e-10 -4.99232e-11 -6.30461e-12 5e-05 5.23599e-10 
141 1 0.0237936 0.0169928 0.00734225 0.0113529 -0.000558038 0.000330375 2.89952e-11 2.61811e-10 3.54649e-10 5e-05 5.23599e-10 
142 1 0.0299883 0.0166684 0.00749459 0.0114343 0.000150263 -0.000218068 4.23318e-10 -7.27027e-11 2.51268e-10 5e-05 5.23599e-10 
143 1 0.0300105 0.0171818 0.00730045 0.01143 0.000223654 0.000127575 -9.167e-10 1.14212e-09 4.28377e-10 5e-05 5.23599e-10 
144 1 0.0239597 0.0181958 0.0070906 0.0122209 -0.000707135 0.000170513 -4.64067e-10 9.17601e-10 -1.12847e-10 5e-05 5.23599e-10 
145 1 0.0238736 0.0178097 0.00715019 0.0118987 -0.000649457 0.000152919 -9.65019e-10 1.25016e-09 -6.19059e-11 5e-05 5.23599e-10 
146 1 0.0300539 0.0175361 0.00728895 0.011425 0.000165184 -0.000466293 -3.81508e-10 -3.45898e-11 -5.60863e-10 5e-05 5.23599e-10 
147 1 0.0301366 0.0181867 0.00701711 0.0125698 -4.14118e-05 -0.000529384 -1.09869e-10 2.05149e-10 -6.16133e-12 5e-05 5.23599e-10 
148 1 0.0356928 0.0169609 0.00746701 0.0114099 -0.000328047 -1.65294e-05 1.14545e-09 -4.13153e-09 2.69763e-09 5e-05 5.23599e-10 
149 1 0.0359591 0.0181978 0.0069787 0.0122082 -0.000549542 0.000170963 2.84675e-09 1.16948e-09 -4.00298e-09 5e-05 5.23599e-10 
150 1 0.0358269 0.0171643 0.00736083 0.0113063 -0.000482631 5.9381e-05 -6.47581e-10 1.10489e-09 -2.97918e-10 5e-05 5.23599e-10 
151 1 0.0299987 0.0179695 0.00708478 0.0123951 -9.81129e-06 -0.000539179 -5.6625e-10 8.9947e-10 -1.53589e-10 5e-05 5.23599e-10 
152 1 0.0299145 0.0171489 0.00730679 0.0115024 0.000213367 9.24848e-05 -5.10388e-10 -2.93093e-10 4.28707e-10 5e-05 5.23599e-10 
153 1 0.0300948 0.017999 0.00707224 0.0124698 -5.23072e-05 -0.000525112 -1.13846e-09 -2.65947e-10 -1.92929e-10 5e-05 5.23599e-10 
154 1 0.0299314 0.0169654 0.00743335 0.0115597 0.000287181 9.12728e-05 -1.94853e-10 -7.57599e-10 3.08581e-10 5e-05 5.23599e-10 
155 1 0.0238518 0.0172614 0.00723534 0.0114325 -0.000655835 0.00015636 2.01326e-10 -3.17295e-10 1.2386e-10 5e-05 5.23599e-10 
156 1 0.0299689 0.0165921 0.00755623 0.0113949 6.92527e-05 -0.00034846 5.62853e-10 3.11026e-10 -6.46648e-10 5e-05 5.23599e-10 
157 1 0.0301775 0.0183734 0.00696228 0.012718 -9.70847e-05 -0.000520816 1.28355e-09 1.43122e-09 -5.50559e-10 5e-05 5.23599e-10 
158 1 0.0239382 0.0180993 0.00710549 0.0121687 -0.00070647 0.000171602 -4.73948e-10 -5.89608e-10 4.38009e-11 5e-05 5.23599e-10 
159 1 0.0299497 0.0165165 0.00761891 0.0113836 5.82871e-05 -0.000352472 -8.66141e-10 8.16946e-10 -9.26889e-10 5e-05 5.23599e-10 
160 1 0.035807 0.0170762 0.00740618 0.0111536 -0.000297231 -3.30156e-05 4.88352e-10 -1.42468e-09 2.17607e-09 5e-05 5.23599e-10 
161 1 0.0303396 0.0178985 0.00709026 0.0122826 -0.000333584 -0.000436262 -8.17212e-11 -3.73014e-10 3.02392e-10 5e-05 5.23599e-10 
162 1 0.0299243 0.0179088 0.00719009 0.0123521 -7.26554e-05 -0.000527648 -1.06405e-09 4.71384e-10 -1.2309e-09 5e-05 5.23599e-10 
163 1 0.0301052 0.0184406 0.00694628 0.0127692 -6.34289e-05 -0.000532193 -1.6845e-10 -3.43322e-10 3.39348e-10 5e-05 5.23599e-10 
164 1 0.0298743 0.0165683 0.00757842 0.0114005 3.57999e-05 -0.000370298 -2.24041e-10 6.72702e-11 -7.1658e-10 5e-05 5.23599e-10 
165 1 0.0237372 0.0171314 0.00725567 0.0114679 -0.000636914 0.000235337 -1.05622e-10 6.57155e-10 -6.05579e-10 5e-05 5.23599e-10 
166 1 0.0301155 0.0172273 0.00729068 0.0116232 0.000290521 -0.000782044 5.27511e-10 -5.19344e-10 -4.57014e-09 5e-05 5.23599e-10 
167 1 0.0237949 0.0174222 0.00721006 0.0114263 -0.000625219 0.000159121 7.34749e-10 3.95066e-10 -1.07818e-10 5e-05 5.23599e-10 
168 1 0.0297967 0.01685 0.00746993 0.0117948 0.00012318 9.43242e-05 -8.97439e-10 -1.09766e-09 -1.57761e-09 5e-05 5.23599e-10 
169 1 0.029965 0.0182208 0.0070148 0.0125818 6.47162e-05 -0.000561761 3.39244e-10 8.95731e-10 -3.46712e-10 5e-05 5.23599e-10 
170 1 0.0300454 0.0165413 0.00759588 0.0114252 0.000118448 -0.000409727 1.99422e-10 9.96189e-10 -4.83527e-10 5e-05 5.23599e-10 
171 1 0.0237748 0.0169127 0.00739905 0.0113038 -0.000633908 0.000374699 -6.56043e-10 -4.33006e-10 2.69377e-10 5e-05 5.23599e-10 
173 1 0.029944 0.018127 0.00704236 0.012484 1.76185e-05 -0.000541884 2.55615e-10 -2.23384e-10 -2.20925e-11 5e-05 5.23599e-10 
174 1 0.0236992 0.0169663 0.0073616 0.0113431 -0.000582805 0.000337407 -3.78273e-10 -4.1033e-11 1.89098e-10 5e-05 5.23599e-10 
175 1 0.0299313 0.0167981 0.00738939 0.0115127 0.000286536 9.23763e-05 -6.63337e-10 1.57776e-09 3.20857e-10 5e-05 5.23599e-10 
176 1 0.0300278 0.0185023 0.00693211 0.0127736 -7.13513e-05 -0.000528906 -2.12585e-10 -4.75957e-10 9.01053e-11 5e-05 5.23599e-10 
177 1 0.0237179 0.0170464 0.00730482 0.011426 -0.000568338 0.000336476 -1.99265e-10 -6.03998e-11 -4.35537e-10 5e-05 5.23599e-10 
178 1 0.0300799 0.0174632 0.00722555 0.0111658 0.000152176 -0.000465821 7.42452e-11 -6.3156e-10 8.61784e-10 5e-05 5.23599e-10 
179 1 0.0300615 0.0182509 0.00700209 0.0126074 -3.30224e-05 -0.000533173 1.07108e-09 6.5054e-10 -2.40809e-10 5e-05 5.23599e-10 
180 1 0.0237564 0.0172282 0.00724004 0.0114634 -0.000654743 0.000137467 2.51883e-10 1.76207e-10 -9.69971e-10 5e-05 5.23599e-10 
181 1 0.023853 0.017713 0.00716513 0.0115299 -0.000573421 0.000132841 -5.56169e-10 1.3227e-10 2.81963e-10 5e-05 5.23599e-10 
182 1 0.0299859 0.0183146 0.00698723 0.0126092 -5.93634e-05 -0.000527561 1.19295e-10 2.20429e-10 -5.37103e-11 5e-05 5.23599e-10 
183 1 0.0298422 0.0176572 0.00718027 0.0114827 0.000108145 -0.00052362 -7.95846e-11 -5.03094e-10 8.09303e-11 5e-05 5.23599e-10 
184 1 0.0238951 0.0179063 0.00713529 0.0121356 -0.000695655 0.000167335 -7.25133e-10 8.47457e-10 -3.11685e-10 5e-05 5.23599e-10 
185 1 0.023756 0.0168325 0.00745581 0.0112348 -0.000610837 0.000359403 3.35182e-10 -5.81435e-11 -1.38954e-10 5e-05 5.23599e-10 
186 1 0.0300068 0.0184085 0.00695967 0.0126872 -7.45335e-05 -0.000527627 1.17263e-09 2.94734e-10 -1.04238e-10 5e-05 5.23599e-10 
187 1 0.0238126 0.017073 0.00728551 0.0114609 -0.000593092 0.00032965 -2.93653e-10 5.28136e-10 -1.23799e-10 5e-05 5.23599e-10 
188 1 0.0301697 0.0179345 0.00708733 0.0124006 -0.000128369 -0.00050186 -5.97519e-10 -1.24105e-10 -2.81821e-10 5e-05 5.23599e-10 
189 1 0.0236419 0.016726 0.0075318 0.0114743 -0.000611059 0.000368465 1.58387e-10 1.46696e-09 -7.30619e-10 5e-05 5.23599e-10 
190 1 0.0299143 0.0173161 0.00735179 0.0114948 0.000278709 0.000107946 -1.64402e-09 -6.15618e-10 -6.13166e-10 5e-05 5.23599e-10 
