ITEM: TIMESTEP
1200000
ITEM: NUMBER OF ATOMS
188
ITEM: BOX BOUNDS ff ff ff
-0.02 0.43
-0.02 0.06
-0.02 0.07
ITEM: ATOMS id type x y z vx vy vz fx fy fz radius mass 
1 1 0.0274231 0.0167241 0.00751881 0.011445 -0.0006754 0.00023958 4.71077e-10 -1.79654e-10 -2.60807e-10 5e-05 5.23599e-10 
2 1 0.0331054 0.0161933 0.0079003 0.0127239 -0.000658555 6.0405e-05 -9.47165e-10 -9.12434e-10 1.27561e-09 5e-05 5.23599e-10 
3 1 0.0271597 0.0160947 0.00803694 0.0125515 -0.000610133 0.000718365 -1.56243e-09 -6.52067e-10 -2.0962e-10 5e-05 5.23599e-10 
4 1 0.0334889 0.0178293 0.00705771 0.0113266 -0.000334757 0.000107118 1.08478e-09 7.8568e-10 5.86467e-10 5e-05 5.23599e-10 
5 1 0.0273095 0.0169817 0.00731272 0.0113308 -0.000548669 0.000299135 -2.39036e-09 1.6772e-09 7.38263e-10 5e-05 5.23599e-10 
6 1 0.0277143 0.0176502 0.00716273 0.0112884 -0.000551657 0.000262521 1.25311e-09 -6.38047e-10 5.12116e-11 5e-05 5.23599e-10 
7 1 0.0331267 0.0162582 0.00782722 0.012778 -0.000674963 9.53446e-05 6.43656e-10 -4.43591e-10 -1.26425e-10 5e-05 5.23599e-10 
8 1 0.0275819 0.0174288 0.00721242 0.0113797 -0.000621962 0.000293428 -1.5158e-09 -1.40597e-10 5.83309e-11 5e-05 5.23599e-10 
9 1 0.0269987 0.0158352 0.00822969 0.0125228 -0.000624026 0.000726083 1.7683e-09 -2.0367e-09 1.07171e-09 5e-05 5.23599e-10 
10 1 0.0273284 0.0167004 0.00754096 0.0115404 -0.000663745 0.000226506 -5.75904e-10 3.96272e-10 1.51983e-10 5e-05 5.23599e-10 
11 1 0.0272466 0.0163984 0.00779171 0.0124742 -0.000940984 0.000488896 1.39549e-09 -4.08647e-10 -5.68925e-10 5e-05 5.23599e-10 
12 1 0.0331706 0.0163933 0.00768672 0.0123845 -0.000407108 0.000250315 5.23357e-10 -5.07393e-10 4.36326e-10 5e-05 5.23599e-10 
13 1 0.0273496 0.0171727 0.00726891 0.0114701 -0.000571354 0.000285156 3.05941e-10 5.34833e-10 -6.03002e-10 5e-05 5.23599e-10 
14 1 0.0277533 0.0178413 0.00711887 0.0112762 -0.000561081 0.000273875 1.22666e-09 -7.22236e-11 -1.12382e-11 5e-05 5.23599e-10 
15 1 0.0333529 0.0172013 0.00733492 0.0118681 -0.000149427 0.000607518 3.19837e-10 2.82482e-09 -1.05662e-09 5e-05 5.23599e-10 
16 1 0.0276616 0.0182561 0.0070215 0.0113672 -0.000535964 0.000267656 -6.34434e-10 3.12619e-10 -7.372e-11 5e-05 5.23599e-10 
17 1 0.0335863 0.0178617 0.00703962 0.0114182 -0.000460986 4.96552e-05 1.00394e-09 -2.94835e-11 -9.42067e-10 5e-05 5.23599e-10 
18 1 0.0270639 0.0160695 0.00805405 0.0125334 -0.000680955 0.000763709 1.91454e-09 -2.79198e-10 4.40278e-10 5e-05 5.23599e-10 
19 1 0.021483 0.0173809 0.00718935 0.0112045 -0.00236191 0.000778865 3.37381e-10 4.0673e-10 1.52144e-10 5e-05 5.23599e-10 
20 1 0.0273848 0.016573 0.00764416 0.0114648 -0.000683734 0.000239007 -9.2535e-12 6.97802e-10 -4.97937e-10 5e-05 5.23599e-10 
21 1 0.0333325 0.0171114 0.00737363 0.0118494 -0.000123692 0.000594738 3.35506e-11 2.32098e-09 -9.46245e-10 5e-05 5.23599e-10 
22 1 0.0275054 0.0174914 0.00719695 0.0114182 -0.000608327 0.000293147 9.04655e-11 -1.02712e-09 2.55731e-10 5e-05 5.23599e-10 
23 1 0.0270856 0.0161476 0.00799552 0.0125038 -0.000654955 0.000749292 -2.48297e-10 -1.2075e-09 1.1514e-09 5e-05 5.23599e-10 
25 1 0.0333733 0.0172912 0.0072962 0.0114307 -0.000125885 0.000583844 -2.09258e-09 9.11924e-11 4.79876e-10 5e-05 5.23599e-10 
26 1 0.0271291 0.0163016 0.00787552 0.0125208 -0.000743828 0.000625944 -3.12767e-10 2.56398e-09 1.9355e-09 5e-05 5.23599e-10 
27 1 0.0271725 0.0164513 0.00775028 0.0125396 -0.000919049 0.000414366 7.61643e-10 -4.83916e-10 -1.01648e-09 5e-05 5.23599e-10 
28 1 0.0278872 0.0180641 0.00706888 0.0112666 -0.000567089 0.000273435 -5.2483e-11 -6.55998e-10 1.24524e-10 5e-05 5.23599e-10 
29 1 0.0331898 0.016482 0.00764464 0.0115314 -6.49634e-05 0.000564164 -9.04401e-11 -3.21371e-10 6.70352e-10 5e-05 5.23599e-10 
30 1 0.0273666 0.0168515 0.00741563 0.0113614 -0.000612178 0.000178927 2.02122e-10 -6.37811e-10 -3.95756e-11 5e-05 5.23599e-10 
31 1 0.0272907 0.0169048 0.0073738 0.0118277 -0.000660557 0.000260237 -1.69193e-09 1.3443e-09 -1.48919e-09 5e-05 5.23599e-10 
32 1 0.033251 0.0167517 0.0075285 0.011645 -5.62321e-05 0.000542887 2.71881e-10 -2.27018e-10 -1.70464e-10 5e-05 5.23599e-10 
33 1 0.0273475 0.0167759 0.00747827 0.0113617 -0.00062618 0.000179887 -1.48204e-10 -1.00816e-10 4.26691e-11 5e-05 5.23599e-10 
34 1 0.0273094 0.0166248 0.00760367 0.0114564 -0.000708124 0.000257271 5.11635e-10 4.38236e-10 4.77938e-10 5e-05 5.23599e-10 
35 1 0.0272249 0.0163233 0.00785409 0.012523 -0.000979546 0.000420362 -4.57297e-10 6.4685e-10 1.41841e-10 5e-05 5.23599e-10 
36 1 0.0335258 0.0180041 0.00696773 0.0114794 -0.000418277 -1.21522e-05 1.4752e-09 -1.01191e-10 1.02743e-09 5e-05 5.23599e-10 
37 1 0.0272893 0.0165493 0.00766635 0.0114394 -0.000710107 0.000268724 5.70454e-10 -1.37307e-09 1.16883e-09 5e-05 5.23599e-10 
38 1 0.0274423 0.0167996 0.00745615 0.0114421 -0.000665405 0.000233954 1.32189e-10 -5.16618e-11 -1.11834e-10 5e-05 5.23599e-10 
39 1 0.0274454 0.0172049 0.00726267 0.0114378 -0.000595437 0.000288987 -8.16224e-11 -5.32663e-10 6.21746e-10 5e-05 5.23599e-10 
40 1 0.0272526 0.016753 0.0074998 0.0115765 -0.00106399 0.000547383 -4.99532e-10 -6.85356e-10 1.25213e-10 5e-05 5.23599e-10 
41 1 0.0277009 0.0184472 0.00697764 0.0113745 -0.0005396 0.000266841 -6.15915e-10 2.11613e-09 -2.91872e-10 5e-05 5.23599e-10 
42 1 0.0276196 0.0176186 0.00716888 0.0112741 -0.000575393 0.000280055 2.21596e-09 -5.49215e-10 2.11166e-10 5e-05 5.23599e-10 
43 1 0.033563 0.0181886 0.00693708 0.0115138 -0.000343527 9.62098e-05 -7.10574e-09 -1.04068e-09 2.66559e-09 5e-05 5.23599e-10 
44 1 0.0271814 0.0161728 0.00797839 0.01251 -0.000649361 0.0007179 -1.51407e-09 1.77371e-09 -8.90881e-10 5e-05 5.23599e-10 
45 1 0.0275275 0.018033 0.00707156 0.0113056 -0.000564483 0.000279629 -1.42856e-10 1.31869e-09 -2.86133e-10 5e-05 5.23599e-10 
46 1 0.0214271 0.0175419 0.00716106 0.0108663 -0.00237464 0.000808681 1.60629e-09 -3.80126e-10 1.49712e-09 5e-05 5.23599e-10 
47 1 0.0334317 0.0175614 0.00717972 0.0115873 -0.000106046 0.000576779 1.69599e-09 1.16566e-09 1.02325e-10 5e-05 5.23599e-10 
48 1 0.0274802 0.0169519 0.00732978 0.0114176 -0.000597801 0.000177805 -1.88144e-10 -1.26802e-09 1.42173e-09 5e-05 5.23599e-10 
49 1 0.0274615 0.0168751 0.00739349 0.0114542 -0.000651336 0.000213781 -6.95366e-11 7.30769e-11 -1.54995e-10 5e-05 5.23599e-10 
50 1 0.0275249 0.0175869 0.00717502 0.0112657 -0.00053458 0.000270379 -3.31912e-10 -2.02577e-10 1.67959e-10 5e-05 5.23599e-10 
51 1 0.0274794 0.0165968 0.00762196 0.0114738 -0.000683091 0.000238171 4.17818e-10 -6.6253e-10 5.88551e-11 5e-05 5.23599e-10 
52 1 0.0212697 0.0168217 0.00744358 0.0114969 -0.00187338 0.00165607 -6.36357e-10 1.12109e-09 -1.1465e-09 5e-05 5.23599e-10 
53 1 0.0272686 0.0164738 0.00772905 0.0126264 -0.000875296 0.000399085 -6.8067e-10 5.85118e-10 -9.9016e-10 5e-05 5.23599e-10 
54 1 0.0276391 0.0177142 0.00714694 0.0112514 -0.000572753 0.00026754 9.92785e-10 -8.24895e-10 3.42207e-10 5e-05 5.23599e-10 
55 1 0.0332917 0.0169316 0.00745106 0.0117316 -0.000105675 0.000577725 -6.89975e-10 -9.54328e-10 4.44294e-10 5e-05 5.23599e-10 
56 1 0.0273696 0.0172682 0.00724702 0.011441 -0.00059698 0.000292636 3.41773e-10 -1.8009e-10 -2.97842e-10 5e-05 5.23599e-10 
57 1 0.0335443 0.0180914 0.00692275 0.0114871 -0.000338699 2.02934e-05 -9.73022e-11 -3.29222e-09 1.20748e-09 5e-05 5.23599e-10 
58 1 0.0275078 0.0179373 0.00709351 0.0113094 -0.000510685 0.000258442 -6.49207e-12 8.6659e-10 -2.3382e-10 5e-05 5.23599e-10 
59 1 0.0276029 0.0179693 0.00708728 0.0113079 -0.000594629 0.000266782 -4.30206e-10 3.49878e-10 -1.87475e-10 5e-05 5.23599e-10 
60 1 0.0277454 0.0169481 0.00732603 0.0113377 -0.000626708 0.00028982 3.05492e-10 -9.94604e-11 1.39858e-10 5e-05 5.23599e-10 
61 1 0.0274493 0.0176504 0.00715933 0.0112046 -0.000523376 0.000260231 -9.7676e-11 1.98035e-09 -4.07438e-10 5e-05 5.23599e-10 
62 1 0.033393 0.0173812 0.00725741 0.0114138 -0.0001367 0.000570864 -1.45893e-09 -1.40207e-09 6.85456e-10 5e-05 5.23599e-10 
63 1 0.0277051 0.0172004 0.00726697 0.0115354 -0.000597436 0.000284908 8.08327e-10 -2.12601e-10 -2.87686e-10 5e-05 5.23599e-10 
64 1 0.0277984 0.0172359 0.00725991 0.0115156 -0.000540057 0.00027436 7.31645e-10 9.24862e-10 -2.29536e-10 5e-05 5.23599e-10 
65 1 0.03347 0.0177417 0.00710199 0.0112893 -9.19021e-05 0.000523752 -1.68531e-09 -1.15216e-09 9.31284e-10 5e-05 5.23599e-10 
66 1 0.0273648 0.0164977 0.00770675 0.0114807 -0.000678215 0.000236684 2.21637e-09 6.39355e-10 -7.22911e-10 5e-05 5.23599e-10 
67 1 0.0214661 0.0177356 0.00712983 0.0108437 -0.0023145 0.000692309 -1.77893e-09 7.24798e-10 -3.80074e-10 5e-05 5.23599e-10 
68 1 0.021309 0.0169869 0.00733799 0.0110992 -0.00236221 0.000763511 3.15957e-10 -2.44657e-09 -7.0805e-10 5e-05 5.23599e-10 
69 1 0.0276421 0.0181605 0.00704342 0.0113068 -0.00052342 0.000265956 6.06954e-11 -5.18728e-10 1.49582e-10 5e-05 5.23599e-10 
70 1 0.0276137 0.0175213 0.00719136 0.0112371 -0.000587532 0.000269252 6.52128e-11 -1.79209e-10 -3.17718e-10 5e-05 5.23599e-10 
71 1 0.0278285 0.0177773 0.00713467 0.0112105 -0.000546804 0.000264938 1.15202e-09 3.30351e-10 8.23948e-11 5e-05 5.23599e-10 
72 1 0.0214856 0.0178324 0.00711383 0.0108565 -0.00234455 0.000707594 -1.92439e-09 2.11174e-09 -7.44836e-11 5e-05 5.23599e-10 
73 1 0.0215642 0.0182193 0.00704987 0.0109148 -0.00235693 0.000704057 -1.67983e-09 -6.74036e-10 1.53085e-10 5e-05 5.23599e-10 
74 1 0.0331479 0.0163231 0.00775413 0.0128369 -0.000692856 9.71944e-05 1.09176e-10 -3.31542e-10 -2.96058e-10 5e-05 5.23599e-10 
75 1 0.0213284 0.0170753 0.00729546 0.0111221 -0.00231451 0.000774278 6.87727e-10 -5.9467e-10 -1.94819e-11 5e-05 5.23599e-10 
76 1 0.0332713 0.0168416 0.00748978 0.0116541 -8.76595e-05 0.000569376 -6.51812e-10 -9.29826e-10 6.21963e-10 5e-05 5.23599e-10 
77 1 0.0332103 0.0165719 0.00760594 0.01151 -4.74361e-07 0.00060366 6.29776e-10 -2.08321e-10 -5.68526e-10 5e-05 5.23599e-10 
78 1 0.0332306 0.0166618 0.00756721 0.0116614 -3.82391e-05 0.000540825 1.33666e-10 -2.38777e-11 -8.70563e-10 5e-05 5.23599e-10 
79 1 0.0274883 0.0178417 0.00711545 0.011184 -0.000594008 0.000279442 -1.31181e-10 -4.6657e-10 6.21257e-11 5e-05 5.23599e-10 
80 1 0.0334124 0.0174713 0.00721857 0.0116127 -0.00014643 0.000599673 -1.40551e-09 -4.45147e-11 1.47656e-10 5e-05 5.23599e-10 
81 1 0.0334512 0.0176515 0.00714089 0.0114427 -7.0646e-05 0.000559869 -6.07983e-10 -5.10095e-11 3.79028e-10 5e-05 5.23599e-10 
82 1 0.0275957 0.0170768 0.00729427 0.0114292 -0.000576751 0.000283501 5.76347e-10 1.88092e-10 -1.23873e-10 5e-05 5.23599e-10 
83 1 0.0273897 0.0173637 0.0072251 0.0114697 -0.000537462 0.000264439 -1.1179e-09 1.74337e-10 5.40159e-11 5e-05 5.23599e-10 
84 1 0.0273444 0.0164224 0.00776928 0.0126638 -0.000854672 0.000350578 -2.35499e-09 9.56822e-10 -1.68299e-10 5e-05 5.23599e-10 
85 1 0.0274581 0.0170305 0.00738973 0.0114962 -0.000581759 0.000278695 -3.64679e-10 -5.34718e-10 6.50729e-10 5e-05 5.23599e-10 
86 1 0.0274298 0.0175548 0.00718127 0.011509 -0.000647318 0.000304535 1.83617e-08 -1.37945e-08 4.07117e-09 5e-05 5.23599e-10 
87 1 0.0277112 0.0171032 0.00728961 0.011464 -0.000604365 0.000281467 9.43311e-10 -3.43016e-10 7.07324e-11 5e-05 5.23599e-10 
88 1 0.0335072 0.0179172 0.00701375 0.0114372 -0.000441381 -4.46348e-06 1.82125e-09 1.28439e-09 -1.20942e-09 5e-05 5.23599e-10 
89 1 0.0270204 0.0159133 0.00817114 0.0125045 -0.000632895 0.000725438 8.55398e-12 -1.08577e-09 6.65948e-10 5e-05 5.23599e-10 
90 1 0.0278902 0.0176251 0.00717078 0.011116 -0.000495338 0.00025399 -1.14603e-09 -2.47074e-10 -3.35765e-11 5e-05 5.23599e-10 
91 1 0.0271508 0.0163764 0.00781282 0.0125197 -0.000884754 0.000494767 1.06288e-09 4.28764e-10 -1.81704e-09 5e-05 5.23599e-10 
92 1 0.027404 0.0166486 0.0075815 0.0114502 -0.000687156 0.000236174 5.04838e-10 -1.09249e-10 -3.84983e-11 5e-05 5.23599e-10 
93 1 0.0271074 0.0162257 0.00793696 0.0124867 -0.000661972 0.000712321 -1.11912e-09 -8.94022e-11 1.80131e-09 5e-05 5.23599e-10 
94 1 0.0275608 0.017332 0.00723463 0.0113857 -0.000612741 0.00029335 4.0553e-11 9.13424e-10 9.06218e-11 5e-05 5.23599e-10 
95 1 0.0272336 0.0166772 0.00756266 0.0115738 -0.00089764 0.000428993 -1.27956e-10 8.52453e-10 -1.02766e-09 5e-05 5.23599e-10 
96 1 0.0274855 0.0173959 0.00721887 0.0113788 -0.000590546 0.000322706 -1.19984e-09 -3.33137e-10 -1.16446e-10 5e-05 5.23599e-10 
97 1 0.0275371 0.0168236 0.00743377 0.0114317 -0.000675372 0.000226954 -2.97783e-10 2.19969e-10 -4.45887e-10 5e-05 5.23599e-10 
98 1 0.0272146 0.0166017 0.00762536 0.0114735 -0.000720979 0.000283711 1.32652e-10 -1.12079e-10 4.43507e-10 5e-05 5.23599e-10 
99 1 0.0277076 0.017459 0.00720701 0.0112992 -0.000545844 0.000275582 -5.02605e-11 -5.14078e-10 -7.64696e-11 5e-05 5.23599e-10 
100 1 0.027809 0.0176817 0.0071566 0.0113155 -0.000501149 0.000262402 7.7441e-10 -1.20905e-09 7.00766e-10 5e-05 5.23599e-10 
101 1 0.0278296 0.0175475 0.00718802 0.011213 -0.000525763 0.000264697 6.41875e-10 -7.95871e-10 4.57354e-10 5e-05 5.23599e-10 
102 1 0.0275178 0.016748 0.0074965 0.01144 -0.000680899 0.000252699 8.05446e-10 -4.04641e-10 2.99204e-10 5e-05 5.23599e-10 
103 1 0.0276977 0.0180009 0.00708114 0.0112908 -0.000571762 0.000275475 -2.40339e-10 -7.60583e-10 1.4852e-10 5e-05 5.23599e-10 
104 1 0.027729 0.0168719 0.00738871 0.0113814 -0.000665657 0.000263527 -1.0589e-09 3.45131e-10 4.14804e-10 5e-05 5.23599e-10 
105 1 0.0276897 0.016721 0.00751393 0.0114443 -0.000697818 0.000242786 8.17091e-11 -1.18801e-10 2.64941e-10 5e-05 5.23599e-10 
106 1 0.0270422 0.0159914 0.0081126 0.0125349 -0.000661971 0.000748461 5.06774e-10 -3.77866e-10 -2.51767e-10 5e-05 5.23599e-10 
107 1 0.0278121 0.0181281 0.00705308 0.0113073 -0.000569029 0.000274393 -4.56646e-11 -3.20088e-10 4.98233e-11 5e-05 5.23599e-10 
108 1 0.0333467 0.0167828 0.00751915 0.011566 -0.000119825 0.000579627 -1.24726e-09 1.27897e-09 -7.88166e-10 5e-05 5.23599e-10 
109 1 0.0274053 0.0170139 0.00730645 0.011449 -0.000553168 0.000280275 -4.50013e-10 -9.16146e-10 -1.96941e-10 5e-05 5.23599e-10 
110 1 0.0276716 0.0170136 0.00730988 0.0113921 -0.000592921 0.000281437 3.13039e-10 -1.72684e-11 1.21721e-10 5e-05 5.23599e-10 
111 1 0.0274097 0.0174592 0.0072032 0.011475 -0.000459792 0.000271725 7.03265e-10 -1.22639e-09 6.14148e-10 5e-05 5.23599e-10 
112 1 0.0272031 0.0162483 0.00791647 0.012503 -0.000967567 0.000422621 -9.56536e-10 1.49764e-09 4.60243e-10 5e-05 5.23599e-10 
113 1 0.027632 0.0168468 0.00741226 0.0114344 -0.000674576 0.000237179 -1.57152e-10 8.10216e-10 7.71886e-10 5e-05 5.23599e-10 
114 1 0.0271942 0.0165264 0.0076879 0.0125475 -0.000909839 0.000406162 -1.11524e-09 -1.5018e-09 -6.00445e-10 5e-05 5.23599e-10 
115 1 0.0278481 0.0178729 0.00711274 0.0112224 -0.000582876 0.000273655 1.27016e-09 2.46535e-10 1.96153e-10 5e-05 5.23599e-10 
116 1 0.0274657 0.0173003 0.00724077 0.0114161 -0.00060478 0.000277768 -9.12751e-10 -2.48812e-10 8.33766e-12 5e-05 5.23599e-10 
117 1 0.0275207 0.017141 0.00727844 0.0114264 -0.000597225 0.000293981 1.31918e-10 -4.77273e-10 3.80688e-10 5e-05 5.23599e-10 
118 1 0.0277369 0.0181921 0.00703729 0.0113346 -0.000564488 0.000273415 -6.39767e-10 -3.03607e-10 7.13452e-11 5e-05 5.23599e-10 
119 1 0.0275471 0.0181287 0.00704961 0.0112392 -0.000755587 0.000316734 -3.69592e-10 -3.76796e-09 7.96103e-10 5e-05 5.23599e-10 
120 1 0.0272716 0.0168287 0.00743699 0.0116455 -0.00120821 0.000656956 -6.59042e-11 -1.72148e-10 6.17079e-11 5e-05 5.23599e-10 
121 1 0.0273863 0.0169288 0.00735529 0.0114581 -0.00059212 0.0002352 -2.78419e-10 -3.47785e-10 -4.10832e-11 5e-05 5.23599e-10 
122 1 0.0276781 0.0179054 0.00710307 0.0113047 -0.00058278 0.000270437 -4.95043e-10 -4.12273e-10 6.59118e-13 5e-05 5.23599e-10 
123 1 0.0275753 0.0169809 0.00731627 0.011468 -0.000587081 0.000272493 1.81494e-11 3.59056e-10 3.32752e-10 5e-05 5.23599e-10 
124 1 0.0273296 0.0170775 0.00729181 0.0114379 -0.000510608 0.000416303 -1.55845e-10 -4.62699e-10 -1.37099e-09 5e-05 5.23599e-10 
125 1 0.0276586 0.0178098 0.00712501 0.0112871 -0.000583481 0.000273741 1.09139e-10 -3.77868e-10 -1.15265e-10 5e-05 5.23599e-10 
126 1 0.0279097 0.0177207 0.00714884 0.0111504 -0.000520125 0.000262339 1.37569e-09 2.71987e-10 -1.02129e-10 5e-05 5.23599e-10 
127 1 0.0274254 0.0171094 0.00728463 0.0114441 -0.000567459 0.000310765 -3.46025e-10 -6.95079e-10 1.79618e-09 5e-05 5.23599e-10 
128 1 0.0275444 0.0176825 0.00715308 0.0112535 -0.000599478 0.000279758 1.54467e-09 -2.42147e-10 1.22571e-10 5e-05 5.23599e-10 
129 1 0.0277091 0.0167965 0.00745127 0.0114441 -0.000692904 0.000243115 -9.41113e-10 -4.99281e-11 2.58793e-10 5e-05 5.23599e-10 
130 1 0.0275005 0.0170453 0.00730038 0.0114539 -0.000580593 0.000274889 -5.07347e-11 -2.02595e-10 5.7542e-10 5e-05 5.23599e-10 
131 1 0.0277729 0.0179369 0.00709694 0.0112731 -0.000572718 0.000277707 8.0863e-10 2.16801e-10 1.77518e-10 5e-05 5.23599e-10 
132 1 0.0277338 0.0177458 0.0071408 0.0112852 -0.000555797 0.000270395 6.74469e-10 -4.35422e-10 -9.31882e-11 5e-05 5.23599e-10 
133 1 0.0276628 0.0173718 0.00722668 0.0114276 -0.000601342 0.000281787 -1.89414e-09 1.41538e-10 1.16847e-10 5e-05 5.23599e-10 
134 1 0.027785 0.0170376 0.00730575 0.0113833 -0.000651321 0.000302731 1.20383e-09 -1.68001e-10 -1.98913e-10 5e-05 5.23599e-10 
135 1 0.0276522 0.0169274 0.00735659 0.011427 -0.000631875 0.00025839 -2.9037e-10 3.47525e-10 4.50374e-10 5e-05 5.23599e-10 
136 1 0.0275639 0.0177782 0.00713114 0.0112024 -0.00058496 0.000275656 5.14479e-10 -4.83676e-10 1.85773e-10 5e-05 5.23599e-10 
137 1 0.0279849 0.0176567 0.00716463 0.0110705 -0.000590503 0.00027592 1.83971e-09 8.56951e-10 -1.6282e-10 5e-05 5.23599e-10 
138 1 0.0275834 0.0178737 0.00710921 0.0112924 -0.000581639 0.000273793 -4.73654e-10 2.54248e-10 -1.62609e-10 5e-05 5.23599e-10 
139 1 0.0274602 0.0165213 0.00768463 0.0114661 -0.000685517 0.00024788 -2.23023e-11 -6.21841e-10 4.94196e-10 5e-05 5.23599e-10 
140 1 0.0278676 0.0179685 0.00709081 0.0112566 -0.000592128 0.000274284 -4.58208e-10 -2.91335e-10 -4.58345e-11 5e-05 5.23599e-10 
141 1 0.0214426 0.0171917 0.00723675 0.0111801 -0.00231084 0.000738491 -7.34216e-10 5.56695e-10 4.63162e-10 5e-05 5.23599e-10 
142 1 0.0276126 0.0167712 0.00747475 0.0114443 -0.000684152 0.00024563 3.37887e-10 8.16512e-11 4.28705e-10 5e-05 5.23599e-10 
143 1 0.0276427 0.0172763 0.00724858 0.0115108 -0.000624806 0.000286497 -1.23114e-09 -6.38253e-10 1.07838e-10 5e-05 5.23599e-10 
144 1 0.0216035 0.0184128 0.00701789 0.0108706 -0.00249544 0.000724407 -2.09644e-10 -4.3379e-10 4.77649e-11 5e-05 5.23599e-10 
145 1 0.0215249 0.0180258 0.00708185 0.010912 -0.00245214 0.000718573 3.93958e-10 4.54909e-10 -8.41566e-11 5e-05 5.23599e-10 
146 1 0.0276796 0.0176127 0.00724869 0.0112955 -0.000473021 0.000274146 1.77038e-09 2.94585e-10 5.73035e-10 5e-05 5.23599e-10 
147 1 0.0277565 0.0182877 0.00701536 0.0114224 -0.000578844 0.000279136 -1.00633e-10 -7.29748e-10 8.42324e-11 5e-05 5.23599e-10 
148 1 0.0333121 0.0170215 0.00741235 0.0118405 -0.000117432 0.000592523 -8.00441e-10 6.62768e-10 -2.56909e-10 5e-05 5.23599e-10 
149 1 0.0335811 0.0182836 0.00696242 0.0115361 -0.000373825 5.85134e-05 -2.80135e-09 3.53901e-09 5.50941e-09 5e-05 5.23599e-10 
150 1 0.0334482 0.0172319 0.00732575 0.0115055 1.50496e-05 0.000508559 -1.80343e-09 1.1505e-09 -1.68784e-09 5e-05 5.23599e-10 
151 1 0.0276225 0.0180649 0.00706535 0.0112882 -0.000601711 0.000279105 5.35808e-10 -1.26739e-09 2.03359e-10 5e-05 5.23599e-10 
152 1 0.027541 0.0172364 0.00725655 0.0113929 -0.000623598 0.000283797 -4.07028e-10 3.51187e-10 7.67149e-11 5e-05 5.23599e-10 
153 1 0.0277173 0.0180965 0.00705921 0.0112799 -0.000571334 0.000276927 3.65173e-10 -6.21106e-10 3.04092e-10 5e-05 5.23599e-10 
154 1 0.0275563 0.017053 0.00738303 0.0114327 -0.000599617 0.000274746 1.14102e-10 5.90567e-10 -2.51301e-10 5e-05 5.23599e-10 
155 1 0.0215027 0.0174777 0.00717419 0.0108343 -0.00225273 0.000733946 -1.76641e-09 2.65743e-10 -8.81964e-10 5e-05 5.23599e-10 
156 1 0.0275933 0.0166957 0.0075374 0.0114538 -0.000680954 0.000242132 6.53712e-10 -4.97446e-10 3.91936e-10 5e-05 5.23599e-10 
157 1 0.0277954 0.0184791 0.00697142 0.0114483 -0.000664083 0.000302264 -3.8486e-10 -6.49185e-10 -2.09167e-10 5e-05 5.23599e-10 
158 1 0.0215839 0.018316 0.00703388 0.0109053 -0.0023779 0.000706368 1.75749e-09 2.30923e-09 -3.33588e-10 5e-05 5.23599e-10 
159 1 0.0275741 0.0166202 0.00760007 0.0114648 -0.000670813 0.00023637 2.77137e-10 -4.26655e-11 6.99866e-10 5e-05 5.23599e-10 
160 1 0.0334274 0.0171416 0.00736463 0.0118759 -9.6999e-05 0.000581212 7.96907e-10 -3.38215e-10 1.74614e-10 5e-05 5.23599e-10 
161 1 0.0279623 0.018 0.0070847 0.0112378 -0.000572824 0.000275558 -1.94611e-10 -3.03947e-10 -8.06411e-11 5e-05 5.23599e-10 
162 1 0.0275459 0.0179992 0.00716383 0.0113889 -0.000647902 0.000277817 -1.81898e-09 4.24564e-10 -7.55906e-10 5e-05 5.23599e-10 
163 1 0.0277247 0.0185478 0.00695461 0.0114112 -0.000654283 0.00029271 -3.0042e-10 2.25713e-10 9.3716e-11 5e-05 5.23599e-10 
164 1 0.0274986 0.0166724 0.00755928 0.0114486 -0.000673781 0.000236081 4.75401e-10 -8.09156e-10 4.93907e-10 5e-05 5.23599e-10 
165 1 0.0213874 0.0173483 0.00719136 0.0112126 -0.00236866 0.000776972 1.34821e-09 -3.72155e-10 -3.74847e-10 5e-05 5.23599e-10 
166 1 0.0277468 0.0173192 0.00723993 0.0114739 -0.000558161 0.000271216 -1.2777e-09 -2.29154e-10 -9.87339e-11 5e-05 5.23599e-10 
167 1 0.0214466 0.0176388 0.00714583 0.0108401 -0.00232906 0.00070985 -1.52302e-11 6.02183e-10 -9.11953e-10 5e-05 5.23599e-10 
168 1 0.0274113 0.0169392 0.00745154 0.0115151 -0.000642274 0.000234948 2.22267e-11 6.17812e-10 -4.6493e-10 5e-05 5.23599e-10 
169 1 0.0275863 0.0183199 0.00700573 0.0113667 -0.000506838 0.000261018 -7.73952e-11 1.30381e-09 -2.80468e-10 5e-05 5.23599e-10 
170 1 0.0276704 0.0166455 0.00757658 0.0114453 -0.00069547 0.000244334 2.65924e-10 -4.15063e-10 4.53897e-10 5e-05 5.23599e-10 
171 1 0.0214231 0.0171033 0.00727926 0.0111322 -0.00232523 0.00075265 8.99369e-10 5.0232e-10 7.62453e-10 5e-05 5.23599e-10 
173 1 0.0275667 0.0182243 0.00702766 0.011357 -0.000420146 0.000240636 -5.88787e-10 -2.63717e-09 5.27658e-10 5e-05 5.23599e-10 
174 1 0.0213479 0.0171638 0.00725289 0.011161 -0.00226253 0.000736004 -3.75259e-11 -1.40688e-09 2.52796e-10 5e-05 5.23599e-10 
175 1 0.0275558 0.0168994 0.00737087 0.0114814 -0.000647938 0.000216679 -2.2243e-10 1.87814e-10 -2.87389e-10 5e-05 5.23599e-10 
176 1 0.0276452 0.0186066 0.00693995 0.0114123 -0.000578112 0.000278822 9.5352e-10 3.16941e-09 -7.24719e-10 5e-05 5.23599e-10 
177 1 0.0213673 0.0172522 0.00721036 0.0111856 -0.00237126 0.000780538 9.37088e-10 -4.01544e-11 -1.85098e-10 5e-05 5.23599e-10 
178 1 0.0277298 0.017554 0.00718525 0.011229 -0.00054328 0.000278323 9.37545e-10 -8.8259e-10 -3.56409e-11 5e-05 5.23599e-10 
179 1 0.0276813 0.0183516 0.00699957 0.0113951 -0.000542726 0.000268081 -1.43409e-10 7.85859e-10 -2.44521e-10 5e-05 5.23599e-10 
180 1 0.0214075 0.0174451 0.00717622 0.0111679 -0.00239232 0.000787795 -1.49423e-09 -2.91593e-09 1.5225e-09 5e-05 5.23599e-10 
181 1 0.0215053 0.0179291 0.00709784 0.0109189 -0.00240544 0.000709364 -7.61436e-10 1.98642e-09 -3.4393e-10 5e-05 5.23599e-10 
182 1 0.027606 0.0184155 0.0069838 0.0113777 -0.000517174 0.000264715 2.75097e-10 1.53597e-09 -4.28186e-10 5e-05 5.23599e-10 
183 1 0.0274688 0.0177461 0.00713739 0.011191 -0.000663608 0.000294333 1.62321e-10 3.36959e-10 -1.61115e-10 5e-05 5.23599e-10 
184 1 0.0215446 0.0181226 0.00706586 0.0108816 -0.00242052 0.000713103 -2.92675e-11 -2.00366e-09 2.60674e-10 5e-05 5.23599e-10 
185 1 0.0214037 0.0170149 0.00732179 0.0110918 -0.00234879 0.000782114 -1.23505e-09 3.97318e-10 -1.8862e-10 5e-05 5.23599e-10 
186 1 0.0276256 0.0185111 0.00696188 0.0113877 -0.00052406 0.000266234 -9.27347e-10 1.72884e-09 -4.95272e-10 5e-05 5.23599e-10 
187 1 0.0214629 0.0172841 0.00720449 0.0112232 -0.00232377 0.000762347 7.2039e-10 7.17426e-10 -3.43355e-10 5e-05 5.23599e-10 
188 1 0.0277925 0.0180325 0.00707501 0.0112649 -0.00058731 0.000274672 -3.72859e-10 -5.5747e-10 3.24683e-10 5e-05 5.23599e-10 
189 1 0.0212895 0.0169032 0.00738911 0.0115739 -0.00195516 0.00172074 2.16951e-09 -1.85507e-10 5.31756e-10 5e-05 5.23599e-10 
190 1 0.0275421 0.0174045 0.00730085 0.0114019 -0.000635267 0.000305364 -1.74296e-09 -2.08126e-10 2.93964e-10 5e-05 5.23599e-10 
