ITEM: TIMESTEP
1800000
ITEM: NUMBER OF ATOMS
188
ITEM: BOX BOUNDS ff ff ff
-0.02 0.43
-0.02 0.06
-0.02 0.07
ITEM: ATOMS id type x y z vx vy vz fx fy fz radius mass 
1 1 0.0345832 0.016636 0.00764027 0.0120174 -0.000316803 0.000706322 2.00311e-09 -5.41152e-10 4.08117e-10 5e-05 5.23599e-10 
2 1 0.0403194 0.01629 0.00788653 0.0114883 0.000303035 8.66195e-05 -5.05923e-10 -3.59829e-10 3.05606e-10 5e-05 5.23599e-10 
3 1 0.0343329 0.0159683 0.00808649 0.0113521 -0.000471069 -5.19797e-05 -1.19937e-09 -2.15627e-09 1.24741e-09 5e-05 5.23599e-10 
4 1 0.0407108 0.0179138 0.00708807 0.0126934 0.000311708 0.000403614 3.64781e-09 -3.54624e-09 1.19314e-09 5e-05 5.23599e-10 
5 1 0.0344756 0.0169325 0.00750085 0.0123377 -0.000647011 0.000146666 1.32731e-09 -2.06376e-09 -6.47865e-10 5e-05 5.23599e-10 
6 1 0.0349113 0.0175581 0.00717388 0.0129701 -0.00053471 4.2792e-05 -1.51574e-09 1.94384e-09 1.05277e-09 5e-05 5.23599e-10 
7 1 0.0403382 0.0163512 0.00780973 0.0115238 0.000278271 0.000125269 1.22491e-09 -1.61239e-10 5.62307e-10 5e-05 5.23599e-10 
8 1 0.0347548 0.0173358 0.00729009 0.0126061 -0.000706614 0.000163647 2.39369e-09 4.67646e-10 3.26989e-10 5e-05 5.23599e-10 
9 1 0.0341798 0.0157552 0.00833092 0.0114814 -0.000338037 -0.000215774 -2.09926e-09 1.48027e-09 -1.61903e-09 5e-05 5.23599e-10 
10 1 0.0344862 0.0166058 0.00764902 0.0114798 -0.000149717 0.000567866 -1.65848e-09 -5.91404e-10 9.95034e-10 5e-05 5.23599e-10 
11 1 0.0344094 0.0162557 0.007823 0.0113019 -0.000200177 0.000462971 1.4303e-09 3.58912e-10 2.1262e-09 5e-05 5.23599e-10 
12 1 0.0403765 0.0164736 0.00765624 0.0116867 0.000254884 0.000147351 -4.85615e-10 1.22359e-10 -5.63606e-10 5e-05 5.23599e-10 
13 1 0.0345187 0.0171068 0.00741095 0.012364 -0.000635687 0.000123796 -1.97935e-09 -8.20958e-10 5.75126e-10 5e-05 5.23599e-10 
14 1 0.0349644 0.0177834 0.00705779 0.0128737 -0.000536419 6.76741e-05 1.84484e-09 7.27938e-10 -1.22232e-09 5e-05 5.23599e-10 
15 1 0.0405591 0.0172655 0.00730426 0.0127284 0.000333974 0.000410858 9.8736e-10 1.04215e-09 -4.11538e-10 5e-05 5.23599e-10 
16 1 0.0348453 0.0181021 0.00696067 0.0117002 -0.00051514 0.000100062 -1.70985e-09 3.69405e-10 -3.62121e-11 5e-05 5.23599e-10 
17 1 0.0408674 0.0182246 0.0069879 0.0119539 0.000401292 0.00035786 -6.13701e-10 4.60383e-10 -1.83991e-10 5e-05 5.23599e-10 
18 1 0.0342375 0.0159508 0.00811089 0.0113229 -0.000463206 -7.10934e-05 -2.10069e-09 1.24099e-09 -1.21233e-09 5e-05 5.23599e-10 
19 1 0.028592 0.0169991 0.00732486 0.0127643 -0.000655602 0.000305369 1.91742e-10 1.9889e-12 -3.10142e-12 5e-05 5.23599e-10 
20 1 0.0345425 0.0164561 0.00771755 0.0114551 -0.000202809 0.000620654 3.05225e-09 -6.26528e-10 -2.30598e-10 5e-05 5.23599e-10 
21 1 0.040537 0.017173 0.00733509 0.0127127 0.000327885 0.000409856 -4.71912e-10 7.05527e-10 -1.28188e-10 5e-05 5.23599e-10 
22 1 0.034679 0.0173948 0.00726237 0.0125941 -0.000625763 0.000113302 2.80208e-09 4.71533e-10 -1.64972e-09 5e-05 5.23599e-10 
23 1 0.0342566 0.016016 0.00803752 0.0113868 -0.000488777 -3.65786e-05 9.55257e-10 -9.7483e-10 5.62448e-10 5e-05 5.23599e-10 
25 1 0.0405805 0.0173582 0.00727333 0.0127356 0.00033012 0.000413905 5.72614e-10 1.03777e-09 -4.22594e-10 5e-05 5.23599e-10 
26 1 0.0342948 0.0161464 0.0078908 0.0114047 -0.000563021 4.35096e-05 1.44143e-10 -1.13186e-09 2.05035e-09 5e-05 5.23599e-10 
27 1 0.0343339 0.016304 0.00777512 0.0115179 -0.000110124 0.000617291 -4.04837e-10 -5.34559e-09 9.12168e-10 5e-05 5.23599e-10 
28 1 0.0350995 0.0180979 0.00693828 0.0116157 -0.000170375 0.000133843 -1.19333e-09 5.23854e-10 -1.00651e-09 5e-05 5.23599e-10 
29 1 0.0403946 0.0165347 0.00757918 0.0117537 0.000340283 0.000209133 5.50586e-10 5.15961e-10 -4.9875e-10 5e-05 5.23599e-10 
30 1 0.0345293 0.0167852 0.00757188 0.0124576 -0.000277694 0.000660781 1.33168e-09 -4.19256e-09 1.67137e-09 5e-05 5.23599e-10 
31 1 0.0344541 0.0168441 0.00754248 0.0124172 -0.000164842 0.000631154 6.47314e-10 5.20821e-10 -7.33159e-10 5e-05 5.23599e-10 
32 1 0.0404526 0.0168022 0.00745885 0.0117426 0.000429734 0.000331333 -2.51516e-10 -7.48689e-10 8.81421e-11 5e-05 5.23599e-10 
33 1 0.0345077 0.0166955 0.00761044 0.012266 -0.000315597 0.000689273 6.69436e-09 -5.27595e-09 3.32183e-09 5e-05 5.23599e-10 
34 1 0.0344669 0.0165156 0.00768787 0.0113522 -0.000154298 0.000569531 1.49332e-09 -6.19022e-10 4.16441e-10 5e-05 5.23599e-10 
35 1 0.03439 0.0161724 0.00787487 0.011324 -0.000350582 0.000188141 8.27034e-10 4.04232e-10 2.4489e-09 5e-05 5.23599e-10 
36 1 0.0407535 0.0180991 0.00702623 0.0115849 0.000558617 0.000283821 3.05323e-09 2.5215e-09 -3.50321e-10 5e-05 5.23599e-10 
37 1 0.0344477 0.0164255 0.00772673 0.0114618 -3.50235e-05 0.000529135 3.36493e-10 -1.96819e-10 2.04299e-10 5e-05 5.23599e-10 
38 1 0.0346041 0.0167258 0.00760147 0.0124322 -0.000401133 0.000718647 5.32768e-09 -1.07852e-09 -5.9598e-10 5e-05 5.23599e-10 
39 1 0.0346147 0.0171339 0.00739561 0.0123776 -0.00060959 0.00011259 -1.5935e-10 2.20181e-10 -2.42514e-10 5e-05 5.23599e-10 
40 1 0.0344109 0.0166647 0.00761962 0.0113633 -3.34214e-06 0.000539854 4.2742e-09 -2.64225e-09 6.50915e-10 5e-05 5.23599e-10 
41 1 0.0348876 0.0182942 0.00698658 0.0116689 -0.000418174 8.14979e-05 -1.04115e-09 -1.76351e-09 -7.76908e-10 5e-05 5.23599e-10 
42 1 0.0347982 0.0175097 0.00720046 0.0126412 -0.000675862 0.000135079 -9.24066e-10 5.7419e-10 -1.43708e-09 5e-05 5.23599e-10 
43 1 0.0407916 0.0182853 0.00696393 0.0119132 0.000374958 0.000357259 -3.90189e-10 -3.77565e-10 -7.57829e-11 5e-05 5.23599e-10 
44 1 0.0343521 0.0160335 0.00801314 0.011362 -0.000501658 -3.39987e-05 2.59635e-09 -2.32751e-09 1.59902e-09 5e-05 5.23599e-10 
45 1 0.0347098 0.0178885 0.00700805 0.0121976 -0.000518244 7.2164e-05 2.4872e-09 -2.70131e-10 -1.06367e-10 5e-05 5.23599e-10 
46 1 0.0285393 0.0171593 0.00728704 0.0127182 -0.000639856 0.000301661 -2.42617e-10 3.6797e-11 -4.83177e-10 5e-05 5.23599e-10 
47 1 0.0406456 0.017636 0.0071807 0.0127388 0.000264621 0.000433749 8.71833e-11 -8.85216e-10 2.27883e-10 5e-05 5.23599e-10 
48 1 0.0346467 0.0169007 0.00751445 0.0122383 -0.000684743 0.000128239 1.1244e-09 -8.44567e-10 1.6746e-09 5e-05 5.23599e-10 
49 1 0.0346257 0.0168141 0.00755981 0.0122998 -0.00065515 0.000217226 3.10381e-09 -1.39965e-09 1.17293e-09 5e-05 5.23599e-10 
50 1 0.0347005 0.0174811 0.00721662 0.0125611 -0.000620423 0.000102238 4.01611e-10 2.06527e-09 -9.56229e-10 5e-05 5.23599e-10 
51 1 0.034638 0.0164862 0.00770862 0.0115816 -0.000407454 0.000674095 1.88174e-09 -1.90877e-09 6.03667e-10 5e-05 5.23599e-10 
52 1 0.0283761 0.0164975 0.00767856 0.0113912 -0.000504298 9.53774e-05 -1.94912e-09 1.96104e-09 -1.16511e-09 5e-05 5.23599e-10 
53 1 0.0344284 0.0163353 0.00776562 0.0114055 -0.00017553 0.000584087 1.40992e-09 3.80302e-12 1.61636e-09 5e-05 5.23599e-10 
54 1 0.0348227 0.0176 0.00715385 0.0128967 -0.000664356 0.000150371 -1.73705e-09 1.85085e-09 -1.719e-09 5e-05 5.23599e-10 
55 1 0.0404936 0.0169878 0.00739684 0.012691 0.000276751 0.000427955 4.83035e-12 -8.70019e-10 4.89486e-10 5e-05 5.23599e-10 
56 1 0.0345402 0.0171937 0.0073662 0.0124296 -0.000620517 0.000118686 -1.11988e-10 -7.97971e-11 -1.94961e-11 5e-05 5.23599e-10 
57 1 0.0407725 0.0181922 0.00699508 0.0117425 0.000409604 0.000333434 -1.47161e-09 2.16862e-09 -1.05919e-09 5e-05 5.23599e-10 
58 1 0.0346903 0.0178014 0.00705295 0.0127908 -0.000610708 0.000107459 6.85045e-10 7.82116e-10 -3.43318e-10 5e-05 5.23599e-10 
59 1 0.034785 0.0178291 0.00703725 0.0128373 -0.000678993 0.000137417 9.45704e-10 -5.4828e-10 8.36596e-10 5e-05 5.23599e-10 
60 1 0.0349144 0.0168962 0.00751246 0.0122151 -0.000667114 0.000133407 -8.89488e-10 1.18204e-09 -1.6057e-09 5e-05 5.23599e-10 
61 1 0.034626 0.0175409 0.00718719 0.0126323 -0.000574848 0.000104413 -7.14313e-10 4.73652e-10 -4.05688e-10 5e-05 5.23599e-10 
62 1 0.0406022 0.0174508 0.00724246 0.012726 0.000318709 0.000417238 -4.11896e-10 -1.12709e-10 2.15873e-11 5e-05 5.23599e-10 
63 1 0.0348937 0.0171415 0.00738728 0.0128756 -0.000460247 3.85297e-05 9.52038e-10 -5.61879e-10 7.15619e-10 5e-05 5.23599e-10 
64 1 0.035 0.0172074 0.00735188 0.0129816 0.00310291 -0.00175888 -2.08073e-09 1.64247e-09 -1.04677e-09 5e-05 5.23599e-10 
65 1 0.0406891 0.0178212 0.00711895 0.0127636 0.000295498 0.000422486 9.96847e-10 5.70177e-10 4.0425e-11 5e-05 5.23599e-10 
66 1 0.0345231 0.016366 0.00775639 0.0113476 -0.000190491 0.000588361 2.3541e-09 -1.16086e-09 6.68516e-10 5e-05 5.23599e-10 
67 1 0.0285826 0.0173496 0.00724342 0.0125455 -0.000606628 0.000322168 1.97254e-09 -2.03256e-09 6.44293e-10 5e-05 5.23599e-10 
68 1 0.0284154 0.0166484 0.00755331 0.0115804 -0.00036123 -3.06868e-05 2.0687e-09 7.30219e-10 -2.87583e-11 5e-05 5.23599e-10 
69 1 0.0348218 0.018006 0.0069462 0.0117591 -0.00054303 9.58565e-05 5.02166e-10 2.25702e-09 -1.71763e-09 5e-05 5.23599e-10 
70 1 0.0347766 0.0174229 0.00724519 0.0124616 -0.000667391 0.000128607 7.94195e-10 1.65391e-09 -9.32505e-10 5e-05 5.23599e-10 
71 1 0.0350676 0.0178217 0.00703653 0.01237 -0.000204796 -8.78348e-05 -7.50906e-10 9.68017e-10 -1.06023e-09 5e-05 5.23599e-10 
72 1 0.0286042 0.0174447 0.00722162 0.0125373 -0.000557214 0.000306912 -1.58244e-09 -1.34594e-09 5.58776e-10 5e-05 5.23599e-10 
73 1 0.0286907 0.0178254 0.00713439 0.01254 -0.000585916 0.000295423 -2.87923e-10 -3.76475e-10 2.16923e-11 5e-05 5.23599e-10 
74 1 0.040357 0.0164125 0.00773299 0.0115556 0.000270602 0.000140094 1.31947e-09 -3.28837e-10 -3.07602e-11 5e-05 5.23599e-10 
75 1 0.028435 0.0167239 0.00749068 0.0114881 -0.000363148 -1.98395e-05 -1.34564e-09 -9.19097e-10 -3.52058e-10 5e-05 5.23599e-10 
76 1 0.0404725 0.0168953 0.00742844 0.0123999 0.000315197 0.000390996 -1.05475e-09 -1.02745e-09 3.09649e-10 5e-05 5.23599e-10 
77 1 0.0404142 0.0166195 0.00752998 0.0117686 0.000316516 0.000109985 1.56269e-10 1.79682e-10 -1.39454e-09 5e-05 5.23599e-10 
78 1 0.0404342 0.0167091 0.00749039 0.011545 0.000402031 0.000152538 -7.49195e-10 6.14043e-13 -1.17886e-09 5e-05 5.23599e-10 
79 1 0.0346689 0.0177145 0.0070977 0.0128443 -0.000627911 0.000110849 -8.95979e-10 1.98261e-09 -1.15606e-09 5e-05 5.23599e-10 
80 1 0.0406239 0.0175434 0.00721158 0.0127425 0.000297596 0.000426161 -3.36272e-10 -4.97251e-10 3.16231e-10 5e-05 5.23599e-10 
81 1 0.0406674 0.0177286 0.00714983 0.0127396 0.000257435 0.000435068 7.67863e-10 -6.01497e-11 1.72873e-10 5e-05 5.23599e-10 
82 1 0.034764 0.0170145 0.00745431 0.0122889 -0.00068264 0.000164584 -6.25852e-10 3.82629e-10 -6.19737e-10 5e-05 5.23599e-10 
83 1 0.0345616 0.0172805 0.00732145 0.0125182 -0.000566015 8.96114e-05 1.43909e-09 2.0034e-09 -1.23578e-09 5e-05 5.23599e-10 
84 1 0.0345033 0.016276 0.00779517 0.0113392 -0.000182081 0.000584875 2.31621e-09 -1.3137e-09 1.12426e-09 5e-05 5.23599e-10 
85 1 0.0346135 0.0170363 0.00753771 0.0123306 -0.000503849 8.35656e-05 -1.26336e-10 -1.67834e-09 8.77926e-10 5e-05 5.23599e-10 
86 1 0.0346045 0.0174541 0.00723194 0.0126062 -0.000638428 0.000115998 9.02484e-11 1.07442e-09 -1.03922e-09 5e-05 5.23599e-10 
87 1 0.0348477 0.0170628 0.00742829 0.0118068 5.26672e-05 -0.000208907 -5.88006e-11 -1.3827e-09 6.51372e-10 5e-05 5.23599e-10 
88 1 0.0407325 0.0180064 0.0070572 0.0125652 0.000320049 0.00039343 -2.42019e-09 -2.88964e-09 7.56311e-10 5e-05 5.23599e-10 
89 1 0.0341994 0.0158203 0.00825761 0.011103 -0.000285037 -0.000271019 -3.17652e-09 -1.58353e-09 1.28367e-09 5e-05 5.23599e-10 
90 1 0.0351593 0.0177856 0.00705356 0.0124537 -1.89687e-05 -0.000179022 -7.57006e-10 1.53884e-09 -7.16352e-10 5e-05 5.23599e-10 
91 1 0.0343146 0.0162142 0.00781455 0.0115623 -0.000363575 -0.000200366 -7.96396e-10 1.68091e-10 2.68747e-10 5e-05 5.23599e-10 
92 1 0.0345625 0.0165461 0.00767883 0.0115987 -0.000233398 0.000651512 -5.26809e-10 4.87205e-10 6.15411e-10 5e-05 5.23599e-10 
93 1 0.0342757 0.0160812 0.00796416 0.0114085 -0.000515295 -4.46152e-06 5.07577e-10 -2.72727e-09 1.06243e-09 5e-05 5.23599e-10 
94 1 0.0347334 0.017249 0.00733485 0.0126556 -0.00065703 0.000135657 3.43406e-10 -3.43001e-09 1.65017e-09 5e-05 5.23599e-10 
95 1 0.0343916 0.0165745 0.00765849 0.0114067 -0.000131102 0.000581494 4.72375e-10 -1.28552e-10 3.41605e-10 5e-05 5.23599e-10 
96 1 0.0346576 0.0173075 0.00730611 0.0126113 -0.000631117 0.000129135 2.24588e-09 -1.88504e-11 -2.6396e-10 5e-05 5.23599e-10 
97 1 0.0347002 0.0167542 0.00758904 0.0122271 -0.000786092 0.00020339 3.21766e-09 -2.28336e-09 -9.11743e-11 5e-05 5.23599e-10 
98 1 0.0343724 0.0164844 0.00769735 0.0114853 -1.85452e-05 0.000531821 1.71641e-10 1.27979e-10 -3.79422e-10 5e-05 5.23599e-10 
99 1 0.034857 0.0173695 0.00727122 0.0125623 -0.000618965 0.000121705 2.26909e-09 5.00981e-10 -1.01506e-09 5e-05 5.23599e-10 
100 1 0.0350484 0.0177345 0.00708147 0.0129583 -0.000359328 -8.90513e-07 2.00246e-09 -6.40937e-10 -1.53356e-10 5e-05 5.23599e-10 
101 1 0.0349964 0.0175108 0.00719672 0.013351 -0.000109336 -0.000142831 -2.44363e-09 2.14991e-09 -9.63267e-10 5e-05 5.23599e-10 
102 1 0.0346786 0.0166661 0.00763117 0.0123485 -0.000570831 0.000827803 4.14356e-09 -4.03289e-10 -2.05936e-09 5e-05 5.23599e-10 
103 1 0.0348838 0.0178627 0.00701848 0.0118596 -0.000426263 3.86231e-05 -1.8243e-09 -6.97569e-10 7.9758e-11 5e-05 5.23599e-10 
104 1 0.0348928 0.0168084 0.0075577 0.0117723 -0.000741152 0.00019324 1.13597e-09 6.42238e-11 -1.34393e-09 5e-05 5.23599e-10 
105 1 0.0348497 0.0166347 0.00764721 0.0119166 -0.0010919 0.000368013 -1.31811e-09 1.5955e-09 -6.88791e-10 5e-05 5.23599e-10 
106 1 0.0342185 0.0158855 0.00818426 0.0111376 -0.000373237 -0.000164888 3.4511e-09 3.23025e-09 -3.89609e-09 5e-05 5.23599e-10 
107 1 0.0350149 0.0180468 0.00692342 0.0116525 -0.000231627 8.45477e-05 2.04083e-09 -2.47194e-09 -2.35214e-09 5e-05 5.23599e-10 
108 1 0.0405473 0.0168334 0.00745207 0.0119726 -0.000144638 0.000540382 -9.39674e-10 4.88883e-10 -2.49486e-10 5e-05 5.23599e-10 
109 1 0.0345719 0.0169602 0.00748511 0.0122963 -0.000637482 0.000124931 -5.72334e-10 -1.32101e-10 9.24906e-10 5e-05 5.23599e-10 
110 1 0.0348389 0.016955 0.00748353 0.0122454 -0.000668879 0.000155455 -1.26378e-09 2.58571e-10 5.36523e-10 5e-05 5.23599e-10 
111 1 0.0345831 0.0173673 0.00727669 0.0125385 -0.000676357 0.000145733 2.80118e-09 2.7931e-09 -1.24226e-09 5e-05 5.23599e-10 
112 1 0.0343711 0.0160987 0.00793977 0.0114069 -0.000504268 1.18555e-05 2.11633e-09 -8.33226e-10 1.5885e-09 5e-05 5.23599e-10 
113 1 0.0347962 0.0167812 0.00757314 0.0117816 -0.00068483 0.000156428 -1.70453e-09 -2.49482e-10 -6.22957e-10 5e-05 5.23599e-10 
114 1 0.034353 0.0163951 0.0077383 0.0114172 -0.000338062 0.000643921 6.05206e-10 9.45911e-10 2.63349e-09 5e-05 5.23599e-10 
115 1 0.035084 0.0179095 0.0069914 0.0120957 -0.000141841 -9.36269e-05 -8.90516e-10 1.57733e-09 4.23224e-10 5e-05 5.23599e-10 
116 1 0.0346362 0.0172207 0.00735086 0.0125042 -0.000601285 0.000116436 1.12325e-09 6.57359e-10 -3.52859e-10 5e-05 5.23599e-10 
117 1 0.0346895 0.0170743 0.00742491 0.0123382 -0.000640161 0.000132462 -7.95046e-10 -3.34807e-10 -7.87872e-10 5e-05 5.23599e-10 
118 1 0.0349153 0.0180384 0.00692826 0.0116873 -0.000424146 0.00010228 2.72325e-10 6.51327e-10 2.05993e-09 5e-05 5.23599e-10 
119 1 0.0347289 0.0179801 0.00697277 0.0117225 -0.000478585 4.16361e-05 2.28623e-09 -9.18544e-10 -3.47381e-10 5e-05 5.23599e-10 
120 1 0.0344325 0.0167544 0.00758104 0.0123747 -0.000329154 0.000669676 2.7934e-09 5.08249e-10 -2.84471e-10 5e-05 5.23599e-10 
121 1 0.0345509 0.0168733 0.0075299 0.0123144 -0.000620027 0.000201984 1.68051e-09 -2.81113e-09 5.93477e-10 5e-05 5.23599e-10 
122 1 0.034865 0.0177751 0.0070636 0.0128718 -0.000687965 0.000124187 1.14196e-09 -3.54167e-10 -1.24164e-10 5e-05 5.23599e-10 
123 1 0.0347433 0.0169277 0.00749937 0.011976 -0.000752039 -0.000152137 -5.4286e-10 -1.14597e-10 -2.82609e-10 5e-05 5.23599e-10 
124 1 0.0344973 0.01702 0.00745572 0.0123468 -0.000599855 9.22945e-05 -1.91137e-09 -1.76037e-09 1.7709e-09 5e-05 5.23599e-10 
125 1 0.0348441 0.0176868 0.00710909 0.0127476 -0.000693813 0.000146774 -1.97141e-09 3.5059e-09 -1.27237e-09 5e-05 5.23599e-10 
126 1 0.0351762 0.0178744 0.00700789 0.0122272 5.05171e-05 -0.000223847 6.08194e-10 1.01309e-09 -5.39662e-10 5e-05 5.23599e-10 
127 1 0.0345933 0.0170471 0.00744035 0.0123003 -0.00061809 0.000109155 -1.38168e-09 -1.48154e-10 2.5224e-10 5e-05 5.23599e-10 
128 1 0.0347221 0.0175682 0.00717251 0.0126512 -0.000617153 0.000110213 -1.37039e-09 2.08401e-09 -1.81177e-09 5e-05 5.23599e-10 
129 1 0.034871 0.0167216 0.00760243 0.0117465 -0.000698052 0.000161627 -6.22744e-10 2.12036e-10 -7.20686e-12 5e-05 5.23599e-10 
130 1 0.0346681 0.0169875 0.00746965 0.0122382 -0.000662429 0.000122989 -3.90562e-10 -4.06549e-10 3.70602e-10 5e-05 5.23599e-10 
131 1 0.0349836 0.0178706 0.00701286 0.0122176 -0.000411424 -3.29737e-06 -1.22664e-09 1.19418e-09 -9.72317e-10 5e-05 5.23599e-10 
132 1 0.0349435 0.0176965 0.00710259 0.0128091 -0.000534033 9.14465e-05 -1.62141e-09 9.47637e-10 -8.54308e-10 5e-05 5.23599e-10 
133 1 0.0348355 0.0172827 0.00731597 0.0126527 -0.000622617 0.000117225 -5.32986e-09 3.87404e-09 -2.96236e-09 5e-05 5.23599e-10 
134 1 0.0349227 0.0170034 0.00745744 0.0118371 0.000112843 -0.000245113 1.01373e-09 -2.18831e-09 1.3896e-09 5e-05 5.23599e-10 
135 1 0.034818 0.0168679 0.00752842 0.0118301 -0.000709734 0.000160091 1.23168e-10 -1.50896e-10 1.98879e-10 5e-05 5.23599e-10 
136 1 0.0347434 0.0176547 0.00712714 0.0128724 -0.000628201 0.000124675 -9.80426e-10 1.58781e-09 -1.72621e-09 5e-05 5.23599e-10 
137 1 0.0351931 0.0179673 0.00696009 0.0117695 -0.00027567 -3.62948e-05 -2.0589e-09 -2.28324e-10 1.60171e-10 5e-05 5.23599e-10 
138 1 0.0347648 0.0177416 0.00708235 0.0127493 -0.000636748 0.000116889 2.49455e-10 2.71214e-09 -1.47522e-09 5e-05 5.23599e-10 
139 1 0.034618 0.0163963 0.00774737 0.0113309 -0.00029299 0.000641597 4.6132e-10 -3.91754e-09 7.45254e-10 5e-05 5.23599e-10 
140 1 0.0350988 0.0179974 0.00694618 0.0119003 -0.000132097 -7.99998e-08 4.97969e-09 -1.50723e-09 -1.12786e-09 5e-05 5.23599e-10 
141 1 0.0285536 0.0168238 0.00740512 0.0122579 -0.00093857 0.000425182 -1.02868e-09 -3.80934e-10 -3.39791e-10 5e-05 5.23599e-10 
142 1 0.0347749 0.0166943 0.00761791 0.0121905 -0.000850673 0.000153382 1.16559e-09 -2.04397e-09 -3.43824e-09 5e-05 5.23599e-10 
143 1 0.0348141 0.0171959 0.00736072 0.0126522 -0.000695325 0.000150939 1.71015e-09 -6.35457e-10 -9.2387e-11 5e-05 5.23599e-10 
144 1 0.028734 0.0180157 0.00709078 0.0124445 -0.000625132 0.000302753 -2.7783e-10 -5.22182e-10 4.94656e-11 5e-05 5.23599e-10 
145 1 0.0286475 0.0176351 0.007178 0.0125703 -0.000558406 0.000289632 -2.40296e-10 2.17062e-09 -2.05602e-10 5e-05 5.23599e-10 
146 1 0.0348659 0.0175493 0.00726254 0.0129423 -0.000596815 -3.58922e-05 -1.529e-09 -2.61752e-10 1.21602e-09 5e-05 5.23599e-10 
147 1 0.0349406 0.0181337 0.00694512 0.0115723 -0.000385841 9.30545e-05 -1.57663e-09 3.24672e-10 -1.0341e-09 5e-05 5.23599e-10 
148 1 0.0405153 0.0170804 0.00736596 0.012692 0.00030276 0.000421001 -2.09698e-10 -1.32514e-10 2.2527e-10 5e-05 5.23599e-10 
149 1 0.0408107 0.0183784 0.00693277 0.0119984 0.000344943 0.000375931 2.59532e-10 -8.72406e-10 5.25803e-10 5e-05 5.23599e-10 
150 1 0.0406551 0.0172963 0.00729768 0.0127012 0.000258892 0.000437086 -2.25924e-10 7.51764e-10 -2.45033e-10 5e-05 5.23599e-10 
151 1 0.0348043 0.0179172 0.00699189 0.0120308 -0.000159344 -0.000123034 4.53578e-10 4.85117e-10 -8.54369e-10 5e-05 5.23599e-10 
152 1 0.0347109 0.0171611 0.00738016 0.0124078 -0.000645593 0.000143652 -3.9405e-10 5.36558e-10 7.12692e-11 5e-05 5.23599e-10 
153 1 0.0349004 0.0179504 0.00697337 0.0118617 -0.000470653 5.93994e-05 -2.07105e-09 6.09849e-10 -3.76036e-10 5e-05 5.23599e-10 
154 1 0.0347175 0.0170397 0.00753914 0.0120445 -0.000144555 -9.42263e-05 -1.27888e-09 1.27032e-10 -1.11118e-09 5e-05 5.23599e-10 
155 1 0.0286144 0.0170952 0.00730285 0.0127184 -0.000651096 0.000311536 4.0688e-10 -1.27604e-10 -7.71876e-11 5e-05 5.23599e-10 
156 1 0.0347533 0.0166066 0.0076608 0.0121354 -0.000813424 0.000959213 2.6258e-09 4.7673e-10 -1.67273e-09 5e-05 5.23599e-10 
157 1 0.0349851 0.0183152 0.0069937 0.0116807 -0.000409141 8.54436e-05 5.38092e-10 -7.42972e-11 2.10735e-10 5e-05 5.23599e-10 
158 1 0.0287123 0.0179206 0.00711258 0.0124563 -0.000624761 0.000302109 1.2612e-09 1.96745e-10 1.1101e-10 5e-05 5.23599e-10 
159 1 0.0347328 0.0165167 0.00769951 0.0115322 -0.000862839 0.00090743 -1.20463e-09 2.70589e-10 -1.0708e-09 5e-05 5.23599e-10 
160 1 0.0406325 0.0172022 0.00732901 0.0127297 0.000364773 0.000404121 5.78853e-10 -1.02322e-10 -1.52971e-10 5e-05 5.23599e-10 
161 1 0.0351929 0.0180628 0.00693057 0.0116051 -0.000233951 0.000127145 -2.87074e-09 -2.24977e-10 1.83291e-11 5e-05 5.23599e-10 
162 1 0.034733 0.017881 0.00710504 0.0128384 -0.000395304 -8.38026e-05 2.21436e-09 3.97716e-11 -1.29461e-09 5e-05 5.23599e-10 
163 1 0.0349075 0.0183889 0.00701186 0.0116451 -0.000373372 8.78359e-05 2.61298e-10 -2.14634e-09 -3.61504e-10 5e-05 5.23599e-10 
164 1 0.0346581 0.0165763 0.00767013 0.0119468 -0.000499781 0.000731929 2.83627e-09 1.26201e-09 4.49541e-10 5e-05 5.23599e-10 
165 1 0.0284961 0.0169689 0.00733065 0.0127523 -0.000659114 0.000317673 1.61451e-10 -3.72915e-11 -3.34851e-10 5e-05 5.23599e-10 
166 1 0.0349353 0.0172757 0.00731798 0.0124738 0.00266377 -0.0015457 4.95191e-09 -3.51906e-09 -3.01155e-10 5e-05 5.23599e-10 
167 1 0.028561 0.0172544 0.00726523 0.0126691 -0.000635286 0.000314481 1.32261e-09 -5.57083e-11 -2.98698e-10 5e-05 5.23599e-10 
168 1 0.0345913 0.0169486 0.00758251 0.0123158 -0.000585965 0.000109819 5.70648e-10 -2.36817e-09 1.54563e-09 5e-05 5.23599e-10 
169 1 0.0347651 0.0181606 0.00694935 0.0117505 -0.000536337 6.40853e-05 -2.00685e-10 -1.09845e-09 -1.7523e-10 5e-05 5.23599e-10 
170 1 0.0348279 0.0165469 0.00769049 0.011822 -0.000984926 0.000985614 1.37909e-09 -2.71817e-09 2.3386e-09 5e-05 5.23599e-10 
171 1 0.0285321 0.0167487 0.00746753 0.0118147 -0.000874318 0.00037872 -1.12054e-09 8.2761e-11 -3.71631e-10 5e-05 5.23599e-10 
173 1 0.0347449 0.018066 0.00692407 0.0117971 -0.000551561 5.24912e-05 8.5692e-10 -9.33896e-11 -1.53109e-10 5e-05 5.23599e-10 
174 1 0.0284547 0.0167993 0.00742807 0.011482 -0.000411766 3.00706e-05 2.65336e-09 8.15813e-10 -1.73923e-09 5e-05 5.23599e-10 
175 1 0.0347214 0.0168413 0.00754475 0.0116699 -0.00119551 -0.00113405 -6.16167e-10 -1.38462e-09 -2.58252e-09 5e-05 5.23599e-10 
176 1 0.0348255 0.0184445 0.00702519 0.0116476 -0.000367952 9.71652e-05 1.82567e-10 -9.17637e-10 -1.50105e-10 5e-05 5.23599e-10 
177 1 0.0284776 0.016883 0.00737836 0.0125076 -0.000671654 0.000184186 3.566e-10 5.52565e-10 -9.22256e-10 5e-05 5.23599e-10 
178 1 0.0348787 0.0174563 0.00722649 0.0126497 -0.000678698 0.000155027 -7.27327e-10 3.70769e-10 -8.31929e-10 5e-05 5.23599e-10 
179 1 0.0348672 0.0181996 0.00696131 0.0117316 -0.000481585 7.22639e-05 -9.08552e-10 -1.50677e-09 8.87695e-10 5e-05 5.23599e-10 
180 1 0.0285177 0.0170641 0.00730885 0.0127282 -0.000651403 0.000308189 -3.00992e-10 -7.10566e-11 8.50025e-11 5e-05 5.23599e-10 
181 1 0.0286258 0.0175399 0.00719981 0.0125807 -0.000523612 0.000290874 -1.12405e-09 -1.90318e-10 3.55736e-10 5e-05 5.23599e-10 
182 1 0.0347852 0.0182552 0.00697469 0.0117376 -0.000452064 5.11866e-05 -6.51012e-10 -1.02609e-09 -6.42333e-10 5e-05 5.23599e-10 
183 1 0.0346474 0.0176277 0.00714245 0.0127781 -0.000588993 0.000105972 -3.49074e-09 2.19322e-09 -8.2186e-10 5e-05 5.23599e-10 
184 1 0.0286691 0.0177302 0.0071562 0.0125329 -0.000611142 0.000296241 -2.22812e-10 8.09569e-10 -1.54245e-10 5e-05 5.23599e-10 
185 1 0.0285118 0.0166734 0.00753008 0.0113343 -0.0008171 0.000337183 -2.15356e-09 1.19794e-09 -1.93899e-10 5e-05 5.23599e-10 
186 1 0.0348054 0.0183499 0.00699991 0.0116913 -0.000387645 7.75897e-05 -7.1777e-10 -1.32079e-09 -5.80279e-10 5e-05 5.23599e-10 
187 1 0.0285702 0.0169038 0.0073467 0.0126734 -0.000745802 0.000334645 4.94701e-10 -6.23471e-10 1.92752e-10 5e-05 5.23599e-10 
188 1 0.035 0.0179585 0.00696803 0.0118999 -0.000310371 5.66986e-05 -1.07244e-09 -6.29499e-10 -3.07753e-09 5e-05 5.23599e-10 
189 1 0.0283958 0.016573 0.00761594 0.0115571 -0.00042754 3.14587e-05 -1.04735e-09 2.50038e-10 -4.26829e-10 5e-05 5.23599e-10 
190 1 0.0347189 0.0174041 0.00735361 0.0127432 -0.00025053 -0.000167973 2.29632e-09 -9.90172e-10 -3.00031e-10 5e-05 5.23599e-10 
