ITEM: TIMESTEP
200000
ITEM: NUMBER OF ATOMS
189
ITEM: BOX BOUNDS ff ff ff
-0.02 0.43
-0.02 0.06
-0.02 0.07
ITEM: ATOMS id type x y z vx vy vz fx fy fz radius mass 
1 1 0.0209192 0.0239372 0.0119178 -0.0231523 -0.0616769 0.00233169 0 0 -5.1365e-09 5e-05 5.23599e-10 
2 1 0.021491 0.0178163 0.00717655 0.0216175 -0.0136339 0.000679237 0 0 -5.1365e-09 5e-05 5.23599e-10 
3 1 0.015275 0.0168139 0.00813199 -0.000986003 0.0422351 -0.0449966 0 0 -5.1365e-09 5e-05 5.23599e-10 
4 1 0.0233333 0.0190354 0.0069569 8.75154e-15 -2.66374e-13 -1.9365e-13 -1.85104e-19 5.80415e-18 -8.29186e-19 5e-05 5.23599e-10 
5 1 0.0178538 0.0225096 0.00929162 0.00937401 -0.055734 -0.0323759 0 0 -5.1365e-09 5e-05 5.23599e-10 
6 1 0.0187707 0.0223289 0.008903 0.0559694 -0.121994 -0.176797 0 0 -5.1365e-09 5e-05 5.23599e-10 
7 1 0.0217564 0.0178433 0.00712223 -0.000130321 0.00119304 0.00142348 0 0 -5.1365e-09 5e-05 5.23599e-10 
8 1 0.0180134 0.0142193 0.0118693 -0.001531 0.0309458 -0.0124713 0 0 -5.1365e-09 5e-05 5.23599e-10 
9 1 0.0169222 0.0139543 0.0130488 0.00651541 0.047122 0.00204456 0 0 -5.1365e-09 5e-05 5.23599e-10 
10 1 0.0175108 0.0200902 0.00711572 0.0083048 -0.0270668 0.0754237 0 0 -5.1365e-09 5e-05 5.23599e-10 
11 1 0.0177524 0.0191056 0.00697531 0.00753692 -0.0323479 0.0125772 0 0 -5.1365e-09 5e-05 5.23599e-10 
12 1 0.0216413 0.0183542 0.00709232 0.0251399 -0.0167226 -0.0108672 0 0 -5.1365e-09 5e-05 5.23599e-10 
13 1 0.0188931 0.0228703 0.0103233 -0.004159 0.0417397 -0.0667616 0 0 -5.1365e-09 5e-05 5.23599e-10 
14 1 0.0187359 0.0226747 0.00977717 0.00858207 -0.0703916 -0.0340295 0 0 -5.1365e-09 5e-05 5.23599e-10 
15 1 0.021759 0.0191154 0.00690255 0.0159674 -0.0114961 0.000127307 0 0 -5.1365e-09 5e-05 5.23599e-10 
16 1 0.0209727 0.0238774 0.0120874 -0.0137925 -0.052438 -0.0195268 0 0 -5.1365e-09 5e-05 5.23599e-10 
17 1 0.0205175 0.0149871 0.0105207 0.036082 0.0639759 -0.0861508 0 0 -5.1365e-09 5e-05 5.23599e-10 
18 1 0.0172199 0.0142385 0.012016 0.00592219 0.0248736 -0.0188296 0 0 -5.1365e-09 5e-05 5.23599e-10 
19 1 0.016218 0.0237028 0.0127784 0.0130502 0.00806992 -0.00351595 2.04636e-09 -1.47465e-08 1.76625e-09 5e-05 5.23599e-10 
20 1 0.0178034 0.0142417 0.011697 0.000396676 -0.00278729 0.00462697 1.41638e-11 -3.06077e-10 5.24896e-10 5e-05 5.23599e-10 
21 1 0.0218054 0.0193465 0.00686389 0.0072892 -0.00168269 0.00050353 9.63406e-08 -7.84938e-08 -9.43684e-09 5e-05 5.23599e-10 
22 1 0.0180505 0.0139041 0.0126894 0.00102401 -0.0660161 -0.0417862 0 0 -5.1365e-09 5e-05 5.23599e-10 
23 1 0.0173308 0.019215 0.00701856 0.00120491 -0.00124752 0.0110029 0 0 -5.1365e-09 5e-05 5.23599e-10 
25 1 0.0218349 0.0194637 0.00684469 0.0131075 -0.0030216 0.00470993 0 0 -5.1365e-09 5e-05 5.23599e-10 
26 1 0.0174532 0.0142254 0.0117846 0.0241648 0.00558779 0.00542724 0 0 -5.1365e-09 5e-05 5.23599e-10 
27 1 0.0171928 0.0204446 0.00764141 -0.0103492 -0.067061 -0.0673254 0 0 -5.1365e-09 5e-05 5.23599e-10 
28 1 0.0201511 0.0238586 0.0115727 0.0044476 -0.00263235 0.00134092 1.92558e-07 -4.66123e-09 -2.04446e-08 5e-05 5.23599e-10 
29 1 0.021562 0.0180964 0.00711924 0.0239406 0.023636 -0.0721821 0 0 -5.1365e-09 5e-05 5.23599e-10 
30 1 0.0177103 0.0142421 0.0117336 -7.10624e-05 -0.00424178 0.00345092 -3.78535e-11 -5.54721e-10 3.60482e-10 5e-05 5.23599e-10 
31 1 0.0176841 0.0204593 0.00753258 -0.00343402 -0.0749571 -0.0762564 0 0 -5.1365e-09 5e-05 5.23599e-10 
32 1 0.021734 0.0182956 0.00713541 0.00661174 0.0314988 -0.0458687 0 0 -5.1365e-09 5e-05 5.23599e-10 
33 1 0.01752 0.0142472 0.0116878 -0.000610194 -0.00286293 0.00475422 -5.27865e-11 -2.90112e-10 4.79763e-10 5e-05 5.23599e-10 
34 1 0.017413 0.0142493 0.0116845 0.000450408 -0.00267395 0.00401773 0 0 -5.1365e-09 5e-05 5.23599e-10 
35 1 0.018308 0.014185 0.0120075 0.00099653 -0.0487265 -0.0506111 0 0 -5.1365e-09 5e-05 5.23599e-10 
36 1 0.0239696 0.0211355 0.00795859 0.00184409 -0.0428439 0.00579758 0 0 -5.1365e-09 5e-05 5.23599e-10 
37 1 0.0176788 0.0209448 0.0078082 -0.00511719 -0.093441 0.0510052 0 0 -5.1365e-09 5e-05 5.23599e-10 
38 1 0.0176199 0.0142453 0.0116911 -0.000607893 -0.00282958 0.00469859 -4.54308e-11 -2.8379e-10 4.53025e-10 5e-05 5.23599e-10 
39 1 0.0179061 0.0142352 0.0117107 0.000412503 0.00669611 0.00325599 0 0 -5.1365e-09 5e-05 5.23599e-10 
40 1 0.017374 0.0141539 0.0120256 0.00652021 0.0329002 -0.000936091 0 0 -5.1365e-09 5e-05 5.23599e-10 
41 1 0.0206222 0.0239823 0.0135889 -0.043747 -0.142743 -0.0229306 0 0 -5.1365e-09 5e-05 5.23599e-10 
42 1 0.0168415 0.0156984 0.0153431 -0.00120871 -0.0550845 0.0887278 0 0 -5.1365e-09 5e-05 5.23599e-10 
43 1 0.0202557 0.0150546 0.0116702 0.000777243 -0.0112965 0.00187414 0 0 -5.1365e-09 5e-05 5.23599e-10 
44 1 0.0148356 0.0155571 0.0153577 0.000235151 -0.0722895 -0.0856389 0 0 -5.1365e-09 5e-05 5.23599e-10 
45 1 0.0220053 0.0240987 0.0137135 -0.0561271 -0.0606007 0.00377687 0 0 -5.1365e-09 5e-05 5.23599e-10 
46 1 0.0159185 0.0233999 0.0146795 0.012473 0.101526 -0.0472962 0 0 -5.1365e-09 5e-05 5.23599e-10 
47 1 0.0204055 0.0148948 0.0116228 0.0695149 -0.0345688 -0.0538286 0 0 -5.1365e-09 5e-05 5.23599e-10 
48 1 0.017416 0.0138877 0.0126729 0.0103611 0.0542173 0.00847574 0 0 -5.1365e-09 5e-05 5.23599e-10 
49 1 0.0170734 0.0144813 0.0130731 0.0207818 -0.0600889 -0.109678 0 0 -5.1365e-09 5e-05 5.23599e-10 
50 1 0.0184859 0.014208 0.0117943 -0.00130826 -0.013363 0.0249901 0 0 -5.1365e-09 5e-05 5.23599e-10 
51 1 0.0177114 0.0239298 0.0117994 0.00568987 -0.095775 0.0686453 0 0 -5.1365e-09 5e-05 5.23599e-10 
52 1 0.0140991 0.0228271 0.0138804 0.00957785 -0.0741668 -0.0835914 0 0 -5.1365e-09 5e-05 5.23599e-10 
53 1 0.0175582 0.0144824 0.014974 0.000563738 -0.0585837 -0.208578 0 0 -5.1365e-09 5e-05 5.23599e-10 
54 1 0.0174047 0.0237919 0.0136146 0.0941813 -0.108367 -0.0422784 0 0 -5.1365e-09 5e-05 5.23599e-10 
55 1 0.0205058 0.0143097 0.0116253 0.00385529 0.0942739 0.0392969 0 0 -5.1365e-09 5e-05 5.23599e-10 
56 1 0.0170341 0.0142407 0.0124968 0.0164106 -0.0483478 0.0186 0 0 -5.1365e-09 5e-05 5.23599e-10 
57 1 0.0221997 0.0147643 0.0107915 -0.00627378 0.129354 -0.0901047 0 0 -5.1365e-09 5e-05 5.23599e-10 
58 1 0.018935 0.0142169 0.0129667 0.0125841 0.0698482 -0.109217 0 0 -5.1365e-09 5e-05 5.23599e-10 
59 1 0.0217747 0.0223536 0.0150878 0.00379782 0.0763498 -0.202626 0 0 -5.1365e-09 5e-05 5.23599e-10 
60 1 0.0205742 0.0239213 0.0118046 -0.0420783 0.0161289 -0.0175033 0 0 -5.1365e-09 5e-05 5.23599e-10 
61 1 0.0188262 0.0136947 0.0133112 -0.00395017 -0.130827 -0.141169 0 0 -5.1365e-09 5e-05 5.23599e-10 
62 1 0.0218546 0.0195092 0.00699947 -0.000704608 0.00323312 -0.0261085 0 0 -5.1365e-09 5e-05 5.23599e-10 
63 1 0.0190547 0.0142329 0.0117116 -6.43541e-05 0.00896021 -0.0148768 4.48731e-12 1.58652e-09 -2.63413e-09 5e-05 5.23599e-10 
64 1 0.0213536 0.0240867 0.0136592 -0.0135661 -0.104943 0.00636113 0 0 -5.1365e-09 5e-05 5.23599e-10 
65 1 0.022931 0.0198333 0.00713966 -0.00669214 -0.0384859 -0.0693791 0 0 -5.1365e-09 5e-05 5.23599e-10 
66 1 0.0176501 0.0142445 0.0120765 0.0252451 0.0581737 0.043087 0 0 -5.1365e-09 5e-05 5.23599e-10 
67 1 0.0156595 0.0238546 0.0140093 0.0867314 -0.0982522 0.016906 0 0 -5.1365e-09 5e-05 5.23599e-10 
68 1 0.0145219 0.0228166 0.0135363 0.00868009 -0.0463999 -0.0815298 0 0 -5.1365e-09 5e-05 5.23599e-10 
69 1 0.0211399 0.0238276 0.0118301 -0.0128364 0.00122768 -0.0132878 5.68842e-10 1.03516e-10 6.0876e-10 5e-05 5.23599e-10 
70 1 0.018004 0.0234096 0.0106071 0.0391545 -0.0381044 -0.182983 0 0 -5.1365e-09 5e-05 5.23599e-10 
71 1 0.0202635 0.0236017 0.0129399 -0.0176668 -0.107905 -0.0249149 0 0 -5.1365e-09 5e-05 5.23599e-10 
72 1 0.0165104 0.0221191 0.0153115 0.000614591 0.0766252 -0.112222 0 0 -5.1365e-09 5e-05 5.23599e-10 
73 1 0.0160629 0.0224263 0.0162378 0.000950855 0.0964703 -0.0186853 0 0 -5.1365e-09 5e-05 5.23599e-10 
74 1 0.0215121 0.0149425 0.0104568 -0.00933386 0.0457165 -0.174849 0 0 -5.1365e-09 5e-05 5.23599e-10 
75 1 0.015164 0.0204457 0.016297 0.00152809 0.0589069 -0.0912011 0 0 -5.1365e-09 5e-05 5.23599e-10 
76 1 0.0213684 0.0164162 0.00788181 0.0364139 0.12957 -0.128391 0 0 -5.1365e-09 5e-05 5.23599e-10 
77 1 0.0213376 0.0171 0.00763115 0.0514722 0.118501 -0.12445 0 0 -5.1365e-09 5e-05 5.23599e-10 
78 1 0.0204239 0.0140213 0.0128258 -0.0174137 0.0916581 -0.00499959 0 0 -5.1365e-09 5e-05 5.23599e-10 
79 1 0.0208184 0.0237951 0.0133677 -0.0177431 -0.10681 -0.0120324 0 0 -5.1365e-09 5e-05 5.23599e-10 
80 1 0.0222398 0.0194866 0.00685591 -0.00206684 -0.00795411 0.00600951 0 0 -5.1365e-09 5e-05 5.23599e-10 
81 1 0.0214354 0.0171919 0.00728347 0.0320715 0.134851 -0.0441843 0 0 -5.1365e-09 5e-05 5.23599e-10 
82 1 0.0158477 0.016008 0.0150509 0.0346573 0.029109 -0.187652 0 0 -5.1365e-09 5e-05 5.23599e-10 
83 1 0.017989 0.0235789 0.0148652 -0.00119044 0.0921988 -0.240415 0 0 -5.1365e-09 5e-05 5.23599e-10 
84 1 0.0179398 0.013885 0.0124014 0.0156468 0.0588784 -0.0101617 0 0 -5.1365e-09 5e-05 5.23599e-10 
85 1 0.0200911 0.0234521 0.0132432 -0.0429056 -0.146502 -0.0417331 0 0 -5.1365e-09 5e-05 5.23599e-10 
86 1 0.0185761 0.0139649 0.0123888 0.000993318 -0.0487426 -0.0174748 0 0 -5.1365e-09 5e-05 5.23599e-10 
87 1 0.0186903 0.0232099 0.0106438 0.0496465 0.0390627 -0.181928 0 0 -5.1365e-09 5e-05 5.23599e-10 
88 1 0.0202472 0.0142708 0.0116495 0.0354678 -0.060823 -0.0891576 0 0 -5.1365e-09 5e-05 5.23599e-10 
89 1 0.0163895 0.014089 0.0142473 -0.00372954 -0.124005 -0.0802759 0 0 -5.1365e-09 5e-05 5.23599e-10 
90 1 0.0208642 0.0238465 0.0115599 0.000430234 -0.00927553 -0.0195609 0 0 -5.1365e-09 5e-05 5.23599e-10 
91 1 0.0172741 0.0197256 0.00703367 -7.5072e-08 9.79284e-08 1.48341e-08 2.08429e-14 -2.71891e-14 -4.12676e-15 5e-05 5.23599e-10 
92 1 0.0178543 0.0192869 0.00699487 0.00134075 -0.00116541 -0.00396115 0 0 -5.1365e-09 5e-05 5.23599e-10 
93 1 0.0174599 0.0192595 0.00697561 -0.00326063 -0.00829685 -0.000553116 7.96484e-10 1.00839e-09 3.77773e-11 5e-05 5.23599e-10 
94 1 0.0184222 0.0225975 0.00920104 -0.00124658 0.00827002 -0.10498 0 0 -5.1365e-09 5e-05 5.23599e-10 
95 1 0.0173078 0.0206387 0.00752596 -0.0058741 -0.0326242 0.0527828 0 0 -5.1365e-09 5e-05 5.23599e-10 
96 1 0.0175181 0.0233545 0.0120458 -0.0044165 0.106231 -0.0763143 0 0 -5.1365e-09 5e-05 5.23599e-10 
97 1 0.0187095 0.0209858 0.00786233 -0.0045745 -0.0276607 0.0119233 0 0 -5.1365e-09 5e-05 5.23599e-10 
98 1 0.01724 0.019985 0.00727397 0.00489287 -0.000449274 0.0378189 0 0 -5.1365e-09 5e-05 5.23599e-10 
99 1 0.0191961 0.0228386 0.00976805 0.011565 -0.0802136 -0.00764279 0 0 -5.1365e-09 5e-05 5.23599e-10 
100 1 0.019907 0.0236004 0.0106922 -0.010069 -0.030454 -0.112411 0 0 -5.1365e-09 5e-05 5.23599e-10 
101 1 0.0205187 0.0241844 0.0124551 0.11556 0.162788 0.250473 0 0 -5.1365e-09 5e-05 5.23599e-10 
102 1 0.018454 0.0188689 0.00692863 0.00809379 -0.0250375 0.0195049 0 0 -5.1365e-09 5e-05 5.23599e-10 
103 1 0.0207265 0.0239457 0.0117352 -0.000406174 -0.0290857 0.0203782 0 0 -5.1365e-09 5e-05 5.23599e-10 
104 1 0.0202563 0.0238575 0.0115732 -0.000716946 -0.00275177 -0.00149162 0 0 -5.1365e-09 5e-05 5.23599e-10 
105 1 0.0207571 0.0238474 0.0115545 0.000106349 -0.00715794 -0.00510445 0 0 -5.1365e-09 5e-05 5.23599e-10 
106 1 0.0165424 0.0196687 0.0072217 0.00264714 -0.0105899 0.00693697 0 0 -5.1365e-09 5e-05 5.23599e-10 
107 1 0.020996 0.0238372 0.0116772 0.0152254 -0.00976361 -0.00990154 0 0 -5.1365e-09 5e-05 5.23599e-10 
108 1 0.0220018 0.017834 0.00712774 4.61865e-15 -2.87249e-14 -1.68101e-13 7.75482e-24 1.03398e-25 0 5e-05 5.23599e-10 
109 1 0.017972 0.0188557 0.00690642 0.000318102 -0.00054502 0.0116181 0 0 -5.1365e-09 5e-05 5.23599e-10 
110 1 0.0206504 0.0238504 0.0115613 0.000463419 -0.00781407 -0.0133068 0 0 -5.1365e-09 5e-05 5.23599e-10 
111 1 0.0178941 0.02319 0.011146 -0.0033162 0.0633148 -0.0834637 0 0 -5.1365e-09 5e-05 5.23599e-10 
112 1 0.0177982 0.0187865 0.00690574 1.73872e-11 -2.25316e-11 -3.19815e-12 -4.08448e-17 4.99798e-17 4.88614e-18 5e-05 5.23599e-10 
113 1 0.0195631 0.0228071 0.00924363 -0.0263482 -0.0636068 -0.15169 0 0 -5.1365e-09 5e-05 5.23599e-10 
114 1 0.0180978 0.022977 0.00985712 -0.0489235 -0.100955 -0.180878 0 0 -5.1365e-09 5e-05 5.23599e-10 
115 1 0.0204313 0.0237731 0.0124422 0.0355011 -0.132448 0.175174 0 0 -5.1365e-09 5e-05 5.23599e-10 
116 1 0.0182393 0.0225098 0.0093103 0.00997862 -0.059146 -0.0374364 0 0 -5.1365e-09 5e-05 5.23599e-10 
117 1 0.0184791 0.0220873 0.00885875 0.0100503 -0.0655021 -0.0694166 0 0 -5.1365e-09 5e-05 5.23599e-10 
118 1 0.0198761 0.0230912 0.0136035 -0.0281475 -0.124796 -0.0711539 0 0 -5.1365e-09 5e-05 5.23599e-10 
119 1 0.0195246 0.0230707 0.0130723 3.52717e-05 0.16798 -0.0296465 0 0 -5.1365e-09 5e-05 5.23599e-10 
120 1 0.0176361 0.0228655 0.00999708 -0.00239553 0.0223388 -0.0817706 0 0 -5.1365e-09 5e-05 5.23599e-10 
121 1 0.017424 0.0241441 0.0134747 0.00905406 -0.111287 0.0283891 0 0 -5.1365e-09 5e-05 5.23599e-10 
122 1 0.01936 0.0235861 0.0118917 0.000610968 0.0946309 -0.0887691 0 0 -5.1365e-09 5e-05 5.23599e-10 
123 1 0.0193446 0.0226442 0.00916033 -0.0163807 -0.0983016 -0.110352 0 0 -5.1365e-09 5e-05 5.23599e-10 
124 1 0.0178876 0.0234887 0.0113084 -0.000110593 -0.0974618 -0.0301091 0 0 -5.1365e-09 5e-05 5.23599e-10 
125 1 0.0190012 0.0229981 0.0107521 0.000121495 -0.0894594 -0.0777477 0 0 -5.1365e-09 5e-05 5.23599e-10 
126 1 0.020047 0.023935 0.0118795 -0.00269947 -0.047755 -0.00400004 0 0 -5.1365e-09 5e-05 5.23599e-10 
127 1 0.0201576 0.0235405 0.0128791 -0.0154813 -0.11125 -0.0329469 0 0 -5.1365e-09 5e-05 5.23599e-10 
128 1 0.0189849 0.0225318 0.00886288 -0.0175425 -0.12346 -0.121573 0 0 -5.1365e-09 5e-05 5.23599e-10 
129 1 0.020536 0.0238031 0.0121086 -0.000508187 0.0625607 -0.0485693 0 0 -5.1365e-09 5e-05 5.23599e-10 
130 1 0.0179832 0.0201853 0.0071691 -0.00648267 -0.0382089 0.0449962 0 0 -5.1365e-09 5e-05 5.23599e-10 
131 1 0.0212578 0.0239195 0.0126895 -0.0510982 -0.078488 -0.132054 0 0 -5.1365e-09 5e-05 5.23599e-10 
132 1 0.0210811 0.0240919 0.0140954 -0.0186625 -0.112587 0.00677858 0 0 -5.1365e-09 5e-05 5.23599e-10 
133 1 0.0185787 0.0230376 0.0106026 -0.00298657 0.0502982 -0.0831095 0 0 -5.1365e-09 5e-05 5.23599e-10 
134 1 0.0181373 0.0213511 0.00777772 -0.00511544 -0.066007 0.0490222 0 0 -5.1365e-09 5e-05 5.23599e-10 
135 1 0.0180232 0.0229959 0.0106755 0.0105576 0.0357701 -0.151969 0 0 -5.1365e-09 5e-05 5.23599e-10 
136 1 0.0207318 0.0238569 0.0118043 0.000928782 -0.0189318 -0.00714337 0 0 -5.1365e-09 5e-05 5.23599e-10 
137 1 0.0206552 0.0238041 0.0122316 -0.00382425 0.0721853 -0.0462399 0 0 -5.1365e-09 5e-05 5.23599e-10 
138 1 0.0205075 0.0238476 0.0125577 -0.0153442 -0.0918137 0.000909667 0 0 -5.1365e-09 5e-05 5.23599e-10 
139 1 0.0180838 0.0189643 0.00690181 -3.14644e-12 1.29679e-12 3.52749e-13 2.53174e-16 -1.80063e-16 -4.09933e-17 5e-05 5.23599e-10 
140 1 0.0213479 0.0238453 0.0130684 -0.0693491 -0.0954244 -0.0929235 0 0 -5.1365e-09 5e-05 5.23599e-10 
141 1 0.01742 0.0239799 0.0149576 -0.00449045 0.133415 -0.0895299 0 0 -5.1365e-09 5e-05 5.23599e-10 
142 1 0.0205272 0.0242982 0.0125043 -0.0199782 -0.0820681 0.0391302 0 0 -5.1365e-09 5e-05 5.23599e-10 
143 1 0.0185664 0.0230523 0.012398 0.00115193 0.0957232 -0.0286527 0 0 -5.1365e-09 5e-05 5.23599e-10 
144 1 0.0173942 0.0201685 0.0170763 -0.00146596 0.0513951 -0.135952 0 0 -5.1365e-09 5e-05 5.23599e-10 
145 1 0.016032 0.0189085 0.0164901 0 0 -0.219314 0 0 -5.1365e-09 5e-05 5.23599e-10 
146 1 0.0196833 0.0163685 0.0193626 0 -0 -0.1 0 0 0 5e-05 5.23599e-10 
147 1 0.0196987 0.022072 0.0168671 3.7222e-05 0.0844302 -0.108535 0 0 -5.1365e-09 5e-05 5.23599e-10 
148 1 0.0221299 0.0154455 0.0166265 0.00482094 -0.0515246 -0.111909 0 0 -5.1365e-09 5e-05 5.23599e-10 
149 1 0.0232432 0.0164169 0.01865 0 -0 -0.1 0 0 0 5e-05 5.23599e-10 
150 1 0.02107 0.0170872 0.0165994 0 0 -0.21437 0 0 -5.1365e-09 5e-05 5.23599e-10 
151 1 0.0235608 0.0189073 0.0197647 0 -0 -0.1 0 0 0 5e-05 5.23599e-10 
152 1 0.017952 0.015247 0.0149704 0.000583503 -0.137584 0.052938 0 0 -5.1365e-09 5e-05 5.23599e-10 
153 1 0.0213313 0.0181362 0.0169827 0 0 -0.196045 0 0 -5.1365e-09 5e-05 5.23599e-10 
154 1 0.0147682 0.0170801 0.015118 0 0 -0.273897 0 0 -5.1365e-09 5e-05 5.23599e-10 
155 1 0.0167515 0.0231117 0.0162222 -0.00245858 0.0993777 -0.172631 0 0 -5.1365e-09 5e-05 5.23599e-10 
156 1 0.0157573 0.0155327 0.0205197 0 -0 -0.1 0 0 0 5e-05 5.23599e-10 
157 1 0.0185116 0.0168101 0.0277962 0 -0 -0.1 0 0 0 5e-05 5.23599e-10 
158 1 0.0174748 0.0198996 0.0280668 0 -0 -0.1 0 0 0 5e-05 5.23599e-10 
159 1 0.0169712 0.0168558 0.0217935 0 -0 -0.1 0 0 0 5e-05 5.23599e-10 
160 1 0.023604 0.0178789 0.0279328 0 -0 -0.1 0 0 0 5e-05 5.23599e-10 
161 1 0.0226245 0.01886 0.0221179 0 -0 -0.1 0 0 0 5e-05 5.23599e-10 
162 1 0.0158706 0.0178038 0.0267531 0 -0 -0.1 0 0 0 5e-05 5.23599e-10 
163 1 0.0188287 0.019202 0.0253109 0 -0 -0.1 0 0 0 5e-05 5.23599e-10 
164 1 0.0150016 0.0165685 0.0283081 0 -0 -0.1 0 0 0 5e-05 5.23599e-10 
165 1 0.01617 0.0189135 0.0259642 0 -0 -0.1 0 0 0 5e-05 5.23599e-10 
166 1 0.0163867 0.0158228 0.0271342 0 -0 -0.1 0 0 0 5e-05 5.23599e-10 
167 1 0.0174724 0.0185867 0.0257281 0 -0 -0.1 0 0 0 5e-05 5.23599e-10 
168 1 0.0176255 0.0151962 0.0273963 0 -0 -0.1 0 0 0 5e-05 5.23599e-10 
169 1 0.0237336 0.0193386 0.0207585 0 -0 -0.1 0 0 0 5e-05 5.23599e-10 
170 1 0.0156831 0.0164901 0.0277488 0 -0 -0.1 0 0 0 5e-05 5.23599e-10 
171 1 0.0187086 0.0189789 0.0278008 0 -0 -0.1 0 0 0 5e-05 5.23599e-10 
172 1 0.0218324 0.0162383 0.0244216 0 -0 -0.1 0 0 0 5e-05 5.23599e-10 
173 1 0.0211063 0.0161532 0.0257248 0 -0 -0.1 0 0 0 5e-05 5.23599e-10 
174 1 0.0165854 0.0237708 0.0124942 0.0257713 0.0285283 -0.0177638 0 0 -5.1365e-09 5e-05 5.23599e-10 
175 1 0.0184398 0.0242586 0.012844 -0.00247271 -0.0521458 -0.186812 0 0 -5.1365e-09 5e-05 5.23599e-10 
176 1 0.0204323 0.0229033 0.0161307 -0.000105934 0.108196 0.00324035 0 0 -5.1365e-09 5e-05 5.23599e-10 
177 1 0.0159022 0.0208424 0.0167171 0 0 -0.208916 0 0 -5.1365e-09 5e-05 5.23599e-10 
178 1 0.0183685 0.0226243 0.00960401 -0.00408251 0.0277453 -0.084592 0 0 -5.1365e-09 5e-05 5.23599e-10 
179 1 0.0211871 0.0217488 0.0197809 0 -0 -0.1 0 0 0 5e-05 5.23599e-10 
180 1 0.017375 0.0207121 0.0178066 0 0 -0.149222 0 0 -5.1365e-09 5e-05 5.23599e-10 
181 1 0.0181511 0.0229725 0.0257699 0 -0 -0.1 0 0 0 5e-05 5.23599e-10 
182 1 0.0156224 0.0210079 0.0272385 0 -0 -0.1 0 0 0 5e-05 5.23599e-10 
183 1 0.0195756 0.0220838 0.0236142 0 -0 -0.1 0 0 0 5e-05 5.23599e-10 
184 1 0.0212653 0.0209509 0.0279956 0 -0 -0.1 0 0 0 5e-05 5.23599e-10 
185 1 0.0181484 0.0223897 0.0283226 0 -0 -0.1 0 0 0 5e-05 5.23599e-10 
186 1 0.021096 0.0209748 0.0228046 0 -0 -0.1 0 0 0 5e-05 5.23599e-10 
187 1 0.0184655 0.0219344 0.0265926 0 -0 -0.1 0 0 0 5e-05 5.23599e-10 
188 1 0.0204339 0.0212077 0.0208694 0 -0 -0.1 0 0 0 5e-05 5.23599e-10 
189 1 0.0159022 0.0208424 0.0243101 0 -0 -0.1 0 0 0 5e-05 5.23599e-10 
190 1 0.0182239 0.0232236 0.0266669 0 -0 -0.1 0 0 0 5e-05 5.23599e-10 
