ITEM: TIMESTEP
3000000
ITEM: NUMBER OF ATOMS
188
ITEM: BOX BOUNDS ff ff ff
-0.02 0.43
-0.02 0.06
-0.02 0.07
ITEM: ATOMS id type x y z vx vy vz fx fy fz radius mass 
1 1 0.0490178 0.0167925 0.00761357 0.0129624 0.00160835 -0.000170861 7.79438e-10 -3.56875e-10 2.26986e-10 5e-05 5.23599e-10 
2 1 0.0546955 0.0162943 0.00811143 0.0119653 0.00132181 0.0006664 4.73794e-10 1.14395e-09 -1.40651e-09 5e-05 5.23599e-10 
3 1 0.0487603 0.0162102 0.00818358 0.0121312 0.00175477 -0.000434941 3.64505e-10 1.60094e-09 -1.65903e-09 5e-05 5.23599e-10 
4 1 0.0550815 0.0177696 0.00709951 0.0110658 -0.000680449 0.000887173 -2.26113e-08 1.08649e-08 2.038e-08 5e-05 5.23599e-10 
5 1 0.0489108 0.0170195 0.00736769 0.0131108 0.001247 0.000182383 -1.27244e-09 2.11239e-09 -1.2903e-09 5e-05 5.23599e-10 
6 1 0.0493425 0.017748 0.00711828 0.0119786 0.0014095 -0.000789628 -4.92652e-10 1.80008e-09 8.48574e-10 5e-05 5.23599e-10 
7 1 0.0547145 0.0163528 0.00803246 0.0121383 0.0014147 0.00058087 3.48919e-10 1.15244e-09 -1.57374e-09 5e-05 5.23599e-10 
8 1 0.0491864 0.0174292 0.00718196 0.011814 0.00164142 -0.000921942 -5.39274e-10 -3.03063e-09 -1.1607e-09 5e-05 5.23599e-10 
9 1 0.0486034 0.0159756 0.00840714 0.0118554 0.0018114 -0.000517616 -2.77974e-10 1.2585e-09 -1.38794e-09 5e-05 5.23599e-10 
10 1 0.0489231 0.0167654 0.00763062 0.0128435 0.00169298 -0.000300439 3.15877e-10 2.25984e-10 -6.00385e-10 5e-05 5.23599e-10 
11 1 0.048841 0.0164877 0.00790711 0.0125724 0.00174459 -0.000350075 1.40905e-09 1.34432e-10 8.30272e-10 5e-05 5.23599e-10 
12 1 0.0547524 0.0164697 0.00787465 0.0124062 0.00144044 0.000583836 -6.25065e-11 1.17778e-09 -2.34374e-09 5e-05 5.23599e-10 
13 1 0.0489537 0.0171805 0.0072567 0.0136098 0.00124745 -0.00202519 0 0 -5.1365e-09 5e-05 5.23599e-10 
14 1 0.0493834 0.0179404 0.00708229 0.0122161 0.00150182 -0.000822598 -2.32519e-09 5.66243e-10 1.43554e-10 5e-05 5.23599e-10 
15 1 0.054936 0.0171333 0.00733253 0.0128823 -0.000139154 -0.000719423 -6.86701e-10 -8.976e-10 3.6452e-09 5e-05 5.23599e-10 
16 1 0.0492744 0.0182654 0.00702968 0.0114059 0.00175277 -0.000849194 -1.23836e-09 -3.67862e-10 6.94461e-10 5e-05 5.23599e-10 
17 1 0.0552039 0.0183563 0.0071277 0.0115317 -0.00175526 0.000992898 -3.97054e-09 3.19129e-10 1.33169e-09 5e-05 5.23599e-10 
18 1 0.0486654 0.0161921 0.00820972 0.0121027 0.00161339 -0.000661449 -6.25499e-11 -2.53521e-10 -1.4276e-09 5e-05 5.23599e-10 
19 1 0.0430214 0.017131 0.00745202 0.0121941 -0.00121628 0.000920591 -4.67618e-10 5.24453e-12 -4.09709e-11 5e-05 5.23599e-10 
20 1 0.0489773 0.0166537 0.00775176 0.0128666 0.00164921 -0.000233316 -1.89315e-09 -4.72508e-10 -2.07725e-10 5e-05 5.23599e-10 
21 1 0.0549143 0.0170438 0.00737134 0.0128452 -0.000269801 -0.000557377 1.84397e-09 4.52906e-10 1.65533e-09 5e-05 5.23599e-10 
22 1 0.049112 0.0174957 0.00717458 0.0117068 0.00158517 -0.000827159 -1.04758e-09 3.82048e-10 -1.71525e-09 5e-05 5.23599e-10 
23 1 0.0486849 0.0162524 0.00813158 0.0121996 0.00167714 -0.000331792 2.74472e-10 -1.13938e-10 3.12661e-10 5e-05 5.23599e-10 
25 1 0.0549578 0.0172229 0.00729372 0.0128599 4.32333e-06 -0.000681657 -4.54684e-09 -4.36585e-09 1.17269e-09 5e-05 5.23599e-10 
26 1 0.0487257 0.0163911 0.00799344 0.0124022 0.0016644 -0.000289083 1.24345e-09 2.18932e-09 1.41886e-10 5e-05 5.23599e-10 
27 1 0.0487666 0.0165298 0.0078553 0.0125682 0.00171496 -0.000357078 1.01534e-09 -9.84562e-11 2.46578e-10 5e-05 5.23599e-10 
28 1 0.0494638 0.0183274 0.00701002 0.0111689 0.00166053 -0.000802347 -2.31201e-09 5.21378e-10 1.21878e-10 5e-05 5.23599e-10 
29 1 0.0547713 0.0165282 0.00779575 0.0122415 0.00122125 0.000851912 7.29464e-09 -4.12017e-09 2.27763e-10 5e-05 5.23599e-10 
30 1 0.048964 0.0169062 0.00749404 0.0129732 0.00160597 -0.000106182 -4.55707e-10 -3.72862e-09 2.28493e-09 5e-05 5.23599e-10 
31 1 0.0488891 0.0169459 0.00744096 0.0131343 0.00172056 -0.000280424 -1.00463e-09 -5.97556e-10 1.78884e-10 5e-05 5.23599e-10 
32 1 0.0548282 0.0167036 0.00755899 0.0125604 0.000905921 0.00234038 -2.66974e-08 3.41089e-08 1.72777e-08 5e-05 5.23599e-10 
33 1 0.0489439 0.016835 0.00756137 0.013107 0.00170821 -0.00028019 3.28407e-10 -1.54632e-09 9.89886e-10 5e-05 5.23599e-10 
34 1 0.0489027 0.0166958 0.0077 0.0128393 0.00171179 -0.000309383 -1.44623e-09 6.27906e-10 -7.67467e-10 5e-05 5.23599e-10 
35 1 0.0488206 0.0164183 0.00797618 0.0125129 0.00172378 -0.000335017 1.11857e-09 -7.10874e-10 2.17444e-10 5e-05 5.23599e-10 
36 1 0.0551224 0.0179651 0.00710892 0.0111576 -0.00108286 0.000970979 3.9763e-09 5.60312e-09 -1.88248e-09 5e-05 5.23599e-10 
37 1 0.0488819 0.0166264 0.00776898 0.0126818 0.0017275 -0.000332513 -1.94483e-09 3.99866e-11 -7.89357e-10 5e-05 5.23599e-10 
38 1 0.0490389 0.0168618 0.00754463 0.0130421 0.0015031 -6.20027e-05 -1.34475e-09 -1.24151e-09 -3.4001e-10 5e-05 5.23599e-10 
39 1 0.049051 0.0172152 0.00725938 0.0132506 0.00134988 -0.000326107 -3.5874e-10 3.13931e-10 6.52673e-10 5e-05 5.23599e-10 
40 1 0.0488483 0.0168072 0.00757909 0.0130234 0.00181977 -0.000395788 6.94921e-11 5.78872e-10 4.75021e-10 5e-05 5.23599e-10 
41 1 0.0493134 0.0184583 0.00699371 0.0114526 0.00170739 -0.000837386 1.43889e-09 -2.85336e-10 -6.68319e-10 5e-05 5.23599e-10 
42 1 0.0492272 0.0176217 0.00714595 0.0119271 0.00149529 -0.000831551 1.55663e-09 -6.19208e-11 3.34337e-11 5e-05 5.23599e-10 
43 1 0.0551634 0.0181607 0.00711833 0.0112288 -0.000836308 0.000997265 -3.3977e-09 -3.12364e-09 1.0615e-09 5e-05 5.23599e-10 
44 1 0.0487797 0.0162796 0.00811432 0.0124271 0.00170028 -0.000332962 -2.75688e-10 -1.77998e-10 5.91626e-10 5e-05 5.23599e-10 
45 1 0.0491386 0.0180418 0.00707556 0.0121373 0.00153623 -0.000811892 1.82088e-09 -1.40287e-09 2.08965e-09 5e-05 5.23599e-10 
46 1 0.0428957 0.016998 0.00749247 0.0122392 -0.00126674 0.000939738 1.41282e-10 6.99785e-10 -2.19845e-10 5e-05 5.23599e-10 
47 1 0.0550223 0.0174917 0.00717726 0.0111609 -0.000704514 -0.000240582 -4.60524e-09 1.52458e-08 -7.75373e-09 5e-05 5.23599e-10 
48 1 0.049082 0.0170004 0.00740714 0.0129476 0.0014175 4.04662e-05 2.75578e-09 9.49405e-10 -1.38521e-09 5e-05 5.23599e-10 
49 1 0.049059 0.0169314 0.00747571 0.0130203 0.00143311 2.04029e-05 -1.00517e-09 -7.57155e-10 -1.79515e-10 5e-05 5.23599e-10 
50 1 0.0491322 0.0175918 0.00715562 0.0118559 0.00159543 -0.000815591 -2.3976e-09 9.39355e-10 8.02237e-10 5e-05 5.23599e-10 
51 1 0.0490727 0.0166817 0.00773376 0.0129123 0.00171249 -0.000276952 -5.96078e-10 4.16382e-10 -1.22421e-10 5e-05 5.23599e-10 
52 1 0.0427263 0.0162909 0.00778759 0.0113419 -0.00110622 0.000852998 4.99041e-10 -1.51503e-10 1.34628e-10 5e-05 5.23599e-10 
53 1 0.0488615 0.0165571 0.00783805 0.0125652 0.00173036 -0.000360465 -2.38627e-10 2.28739e-10 -8.40156e-11 5e-05 5.23599e-10 
54 1 0.0492476 0.017718 0.00712796 0.0120142 0.00152154 -0.00080449 1.67314e-09 2.62901e-10 -4.45028e-10 5e-05 5.23599e-10 
55 1 0.0548709 0.0168646 0.00744897 0.0120824 -0.000390822 -0.000225642 1.56353e-09 -8.06254e-09 -4.36268e-09 5e-05 5.23599e-10 
56 1 0.0489746 0.0172774 0.00724243 0.0132396 0.00127668 -0.000762284 -1.56223e-09 -2.21465e-09 7.49427e-10 5e-05 5.23599e-10 
57 1 0.0551429 0.0180629 0.00711363 0.0112584 -0.00105752 0.000997844 1.03272e-09 -3.89451e-09 -7.72889e-11 5e-05 5.23599e-10 
58 1 0.0491182 0.0179456 0.00709355 0.01214 0.00153845 -0.000813313 1.70746e-09 7.20822e-10 -7.24993e-10 5e-05 5.23599e-10 
59 1 0.049214 0.0179766 0.00708366 0.0121121 0.00154667 -0.000822551 1.09489e-10 6.78976e-10 1.42437e-09 5e-05 5.23599e-10 
60 1 0.0494503 0.0174227 0.007171 0.011756 0.00184826 -0.000905482 2.39255e-10 -1.03247e-08 -5.84384e-10 5e-05 5.23599e-10 
61 1 0.0490569 0.017657 0.00714755 0.0120267 0.00169794 -0.000829058 -1.70283e-09 4.78492e-10 1.31224e-09 5e-05 5.23599e-10 
62 1 0.0549795 0.0173124 0.0072549 0.0128882 -0.000302808 -0.000541387 9.15854e-10 -2.08244e-08 6.97741e-09 5e-05 5.23599e-10 
63 1 0.0493554 0.0173926 0.00718068 0.011842 0.00156481 -0.000843666 -1.48165e-09 -9.3595e-10 -1.91918e-10 5e-05 5.23599e-10 
64 1 0.049417 0.0176818 0.00712659 0.0119421 0.00125791 -0.000764563 -1.10374e-09 2.98412e-10 7.29181e-10 5e-05 5.23599e-10 
65 1 0.055064 0.0176712 0.0070996 0.0107853 -0.000683469 5.62778e-05 -1.63664e-08 -1.62349e-08 9.54434e-09 5e-05 5.23599e-10 
66 1 0.0489564 0.0165844 0.00782074 0.0126554 0.00169816 -0.000306508 -1.28774e-09 4.67937e-11 5.98277e-12 5e-05 5.23599e-10 
67 1 0.0429388 0.0171832 0.00743069 0.0121709 -0.00125385 0.000932815 2.21531e-11 -1.68687e-10 6.32431e-11 5e-05 5.23599e-10 
68 1 0.0427662 0.0164422 0.00767782 0.0124236 -0.00132201 0.000971193 -1.2771e-10 -7.33234e-10 2.57847e-10 5e-05 5.23599e-10 
69 1 0.0492547 0.0181691 0.00704767 0.0115143 0.00172656 -0.000851482 1.1103e-09 8.68916e-10 7.87331e-10 5e-05 5.23599e-10 
70 1 0.0492069 0.0175255 0.00716394 0.0117684 0.00147939 -0.000814791 -4.95404e-10 2.46853e-10 -1.42201e-10 5e-05 5.23599e-10 
71 1 0.0494986 0.018067 0.00705457 0.0121374 0.00188816 -0.000911737 1.32431e-09 1.26523e-10 -4.1396e-10 5e-05 5.23599e-10 
72 1 0.0429604 0.0172759 0.0073998 0.012148 -0.00123345 0.000924297 -1.65725e-10 -2.43327e-10 1.03997e-10 5e-05 5.23599e-10 
73 1 0.0430467 0.0176464 0.00727623 0.0120194 -0.00121987 0.000915036 1.76745e-11 -1.60713e-10 4.1118e-11 5e-05 5.23599e-10 
74 1 0.0547334 0.0164113 0.00795355 0.0122721 0.0014323 0.000576046 4.12377e-10 1.14393e-09 -1.43235e-09 5e-05 5.23599e-10 
75 1 0.0427878 0.0165348 0.00764693 0.0124188 -0.00130184 0.000952464 -8.05624e-10 5.37269e-10 -3.20439e-10 5e-05 5.23599e-10 
76 1 0.0548493 0.0167809 0.0074992 0.0120137 -0.000672556 -0.000276705 -1.19027e-09 -6.86948e-10 -3.94815e-09 5e-05 5.23599e-10 
77 1 0.0547903 0.0165866 0.00771683 0.0124605 0.0014666 0.000654484 -2.23151e-09 4.04448e-09 1.3065e-10 5e-05 5.23599e-10 
78 1 0.0548092 0.0166451 0.0076379 0.0128422 0.00132907 0.000776721 1.02089e-09 1.86118e-09 1.62801e-09 5e-05 5.23599e-10 
79 1 0.0490977 0.0178494 0.00711155 0.012146 0.00161797 -0.00081936 3.30705e-10 1.8103e-09 -5.69666e-10 5e-05 5.23599e-10 
80 1 0.0550012 0.017402 0.00721609 0.012296 -0.0013638 -7.12892e-05 5.83857e-09 -1.34241e-08 1.11221e-08 5e-05 5.23599e-10 
81 1 0.0550428 0.0175815 0.00713841 0.0107476 -0.00102296 -6.59134e-05 1.72758e-08 9.94572e-09 -1.29839e-08 5e-05 5.23599e-10 
82 1 0.0491975 0.0171036 0.00731383 0.0134615 0.00167303 0.000110524 -1.82562e-09 1.2181e-09 -4.83916e-10 5e-05 5.23599e-10 
83 1 0.048996 0.017371 0.00721435 0.0120292 -0.00199127 -0.00336749 -2.30983e-08 -1.11141e-07 5.71348e-08 5e-05 5.23599e-10 
84 1 0.048936 0.016515 0.00788981 0.0125069 0.00171585 -0.000342921 3.5159e-10 6.56929e-10 -5.04658e-10 5e-05 5.23599e-10 
85 1 0.0491227 0.0172207 0.0073289 0.0133797 0.0017894 -0.000494762 7.23483e-10 1.05996e-09 -1.88472e-09 5e-05 5.23599e-10 
86 1 0.0490364 0.0175606 0.00716563 0.0142296 0.000461307 0.00154293 0 0 -5.1365e-09 5e-05 5.23599e-10 
87 1 0.0492191 0.0171729 0.0072449 0.012848 0.00202786 -0.000662629 -2.2689e-09 7.47277e-10 1.05392e-09 5e-05 5.23599e-10 
88 1 0.055102 0.0178674 0.00710432 0.0114109 -0.000993823 0.00115808 2.57985e-09 1.43866e-08 -3.76012e-09 5e-05 5.23599e-10 
89 1 0.0486238 0.016045 0.00833806 0.01187 0.00172842 -0.000422563 -5.08733e-10 9.10613e-11 -3.83232e-10 5e-05 5.23599e-10 
90 1 0.0495932 0.018098 0.00704473 0.0123019 0.00202696 -0.000913486 3.30337e-11 -2.22781e-10 7.14903e-10 5e-05 5.23599e-10 
91 1 0.0487462 0.0164605 0.00792437 0.0125014 0.00170788 -0.00037934 7.81068e-10 7.68099e-11 4.36399e-10 5e-05 5.23599e-10 
92 1 0.0489974 0.0167231 0.00768262 0.0128492 0.00162769 -0.000224312 -2.65834e-10 -3.34852e-10 5.55205e-10 5e-05 5.23599e-10 
93 1 0.0487053 0.0163217 0.00806251 0.0123234 0.00167491 -0.000304732 3.75559e-10 1.4984e-10 -3.81071e-10 5e-05 5.23599e-10 
94 1 0.0491652 0.0173325 0.00720007 0.0123245 0.00209476 -0.000943254 -2.34507e-09 1.34013e-10 4.40179e-10 5e-05 5.23599e-10 
95 1 0.0488281 0.0167401 0.00765037 0.0128886 0.00181498 -0.000411941 -1.4508e-09 5.0981e-10 -3.98944e-11 5e-05 5.23599e-10 
96 1 0.0490918 0.0174003 0.0071966 0.011888 0.00155765 -0.000749912 5.39366e-10 8.04698e-10 -2.3409e-09 5e-05 5.23599e-10 
97 1 0.0491364 0.0168916 0.00752499 0.0131675 0.0014987 -6.62442e-05 -4.09135e-10 -1.55823e-09 -3.01995e-10 5e-05 5.23599e-10 
98 1 0.0488075 0.0166686 0.00771716 0.0127812 0.00180069 -0.000408089 -8.95431e-10 -4.48563e-10 1.85381e-10 5e-05 5.23599e-10 
99 1 0.0492813 0.0174592 0.00717229 0.0118487 0.00153778 -0.000812151 -3.62675e-09 -1.92902e-09 6.11781e-10 5e-05 5.23599e-10 
100 1 0.0494783 0.0179705 0.00707261 0.0121725 0.00146446 -0.000820521 -1.93049e-09 4.9162e-10 -7.7515e-10 5e-05 5.23599e-10 
101 1 0.0494375 0.017778 0.0071086 0.0120473 0.00125285 -0.000799912 1.81862e-10 -1.2038e-09 4.28366e-10 5e-05 5.23599e-10 
102 1 0.0491142 0.0168204 0.00759576 0.0130755 0.00156812 -0.000119457 -3.07649e-10 -1.72725e-09 8.65301e-10 5e-05 5.23599e-10 
103 1 0.0493089 0.0180066 0.00707398 0.0121862 0.0015258 -0.000847778 -6.74793e-10 1.62634e-11 4.54275e-10 5e-05 5.23599e-10 
104 1 0.0494297 0.0173262 0.00718905 0.0120776 0.00226305 -0.000954446 -2.25013e-09 4.16837e-10 3.59368e-11 5e-05 5.23599e-10 
105 1 0.0493915 0.0171519 0.00727549 0.0130932 0.00107319 -0.00210854 -1.56846e-09 -5.72668e-10 8.53484e-10 5e-05 5.23599e-10 
106 1 0.0486442 0.0161144 0.00826899 0.0120611 0.00177075 -0.000399234 9.82233e-11 1.76396e-09 -1.34408e-09 5e-05 5.23599e-10 
107 1 0.0494441 0.0182304 0.00702811 0.0113811 0.00189951 -0.00085942 -3.44109e-10 1.6765e-10 -7.78851e-11 5e-05 5.23599e-10 
108 1 0.0550472 0.0171802 0.00730688 0.0127901 -0.000339679 -0.000542556 -1.83353e-09 1.6311e-09 -1.30018e-09 5e-05 5.23599e-10 
109 1 0.0490065 0.0170468 0.00735741 0.013073 0.00167707 2.934e-05 3.73047e-10 2.1405e-09 -1.98025e-09 5e-05 5.23599e-10 
110 1 0.049313 0.0171996 0.00722121 0.0117469 0.00197919 0.000179766 -2.58608e-09 1.46567e-09 -1.06229e-09 5e-05 5.23599e-10 
111 1 0.0490161 0.0174651 0.00718712 0.0132641 -0.000923554 -0.00425993 2.30983e-08 1.11141e-07 -6.74078e-08 5e-05 5.23599e-10 
112 1 0.0488002 0.016349 0.00804525 0.0124343 0.00166981 -0.000317653 1.29471e-09 -1.90812e-10 6.22281e-10 5e-05 5.23599e-10 
113 1 0.0492724 0.0170619 0.00736522 0.0138672 0.00184501 -0.000238302 2.17243e-09 2.43022e-10 6.86371e-10 5e-05 5.23599e-10 
114 1 0.048787 0.0165992 0.00778623 0.0126589 0.0017554 -0.00039197 1.60123e-09 -1.30305e-09 1.1938e-09 5e-05 5.23599e-10 
115 1 0.0495187 0.0181642 0.00703642 0.0122151 0.00207865 -0.000944119 3.48367e-09 1.36822e-09 -6.33799e-11 5e-05 5.23599e-10 
116 1 0.0490715 0.017306 0.00722285 0.0123513 0.00145753 -0.000667877 2.01693e-09 6.66983e-10 -2.14275e-10 5e-05 5.23599e-10 
117 1 0.0491212 0.0171441 0.0072634 0.0132176 0.00130826 0.00021976 1.00656e-09 4.47963e-10 -7.11383e-10 5e-05 5.23599e-10 
118 1 0.0493495 0.0181994 0.00703794 0.011448 0.00181938 -0.000864466 -7.64374e-10 1.32331e-09 -6.53542e-11 5e-05 5.23599e-10 
119 1 0.0491591 0.018138 0.00705757 0.0122002 0.00155402 -0.000857928 -1.8865e-09 -8.09743e-10 6.88671e-10 5e-05 5.23599e-10 
120 1 0.0488688 0.0168766 0.00751005 0.0131519 0.00176286 -0.000318596 1.2974e-10 -5.47202e-10 1.3237e-09 5e-05 5.23599e-10 
121 1 0.0489832 0.0169744 0.00742237 0.013068 0.00168254 -0.000172537 1.9772e-09 2.37025e-09 -4.61628e-10 5e-05 5.23599e-10 
122 1 0.0492885 0.0179104 0.00709197 0.0120807 0.00151207 -0.000830295 -2.22996e-09 -5.15759e-10 1.97332e-09 5e-05 5.23599e-10 
123 1 0.0491798 0.0170305 0.00738697 0.0130237 0.00162882 -0.000194129 -9.987e-09 9.21459e-09 1.24341e-08 5e-05 5.23599e-10 
124 1 0.0489319 0.0170913 0.00729627 0.0134001 0.0011525 -0.000248943 -9.83331e-10 1.13942e-09 -3.96655e-09 5e-05 5.23599e-10 
125 1 0.049268 0.0178142 0.00710997 0.0120486 0.0015076 -0.000804453 -1.29506e-10 2.63296e-10 9.74868e-10 5e-05 5.23599e-10 
126 1 0.0496132 0.0181954 0.00702655 0.0121131 0.00211853 -0.00091453 -1.49215e-09 8.22458e-10 -5.16757e-10 5e-05 5.23599e-10 
127 1 0.0490286 0.0171297 0.00730608 0.0131308 0.00151326 -4.7894e-05 7.68073e-10 1.05455e-09 -1.16987e-10 5e-05 5.23599e-10 
128 1 0.0491527 0.0176881 0.00713848 0.0120198 0.00159537 -0.000820855 -1.5329e-09 5.99763e-10 1.00978e-10 5e-05 5.23599e-10 
129 1 0.0494086 0.0172309 0.00721659 0.0124806 0.00277012 -6.46679e-05 4.1547e-10 -2.5116e-09 1.8915e-09 5e-05 5.23599e-10 
130 1 0.049102 0.0170696 0.00733785 0.0130067 0.001431 2.40388e-05 2.33866e-09 3.34865e-09 -2.65038e-09 5e-05 5.23599e-10 
131 1 0.0494038 0.0180367 0.00706429 0.0122079 0.00159632 -0.000869467 7.30708e-10 -1.71635e-10 1.39432e-09 5e-05 5.23599e-10 
132 1 0.049363 0.0178442 0.00710029 0.012104 0.00143494 -0.000838433 -1.43265e-09 1.3115e-09 -3.6104e-10 5e-05 5.23599e-10 
133 1 0.0492605 0.0173626 0.00719035 0.0120601 0.00193116 -0.000866352 1.89788e-09 -1.17894e-09 -2.86681e-09 5e-05 5.23599e-10 
134 1 0.049335 0.0172972 0.00720344 0.0122061 0.00222908 -0.000713509 3.72649e-09 -1.54697e-10 4.11492e-09 5e-05 5.23599e-10 
135 1 0.0492955 0.0171309 0.00729397 0.0130919 0.00113574 -0.00168519 1.33521e-10 1.96191e-09 1.97789e-10 5e-05 5.23599e-10 
136 1 0.0491731 0.0177842 0.00711964 0.012086 0.00156702 -0.000799648 7.5993e-10 2.97048e-10 -8.78362e-10 5e-05 5.23599e-10 
137 1 0.049483 0.0184242 0.00699197 0.0114673 0.0018615 -0.000878397 1.18117e-09 -3.53333e-09 9.70003e-10 5e-05 5.23599e-10 
138 1 0.0491936 0.0178804 0.00710165 0.0120896 0.00154459 -0.000809025 4.06555e-10 -8.03958e-10 1.04336e-09 5e-05 5.23599e-10 
139 1 0.0490526 0.0166123 0.0078029 0.012971 0.00169463 -0.000263921 -1.74795e-09 -1.6769e-10 3.51143e-10 5e-05 5.23599e-10 
140 1 0.0495386 0.0182616 0.00701825 0.0113927 0.00175371 -0.000835921 -1.70538e-09 9.73525e-10 -4.55592e-10 5e-05 5.23599e-10 
141 1 0.0429736 0.0168981 0.00752997 0.0124188 0.000310652 0.000405826 6.38013e-11 1.82749e-10 -6.50514e-11 5e-05 5.23599e-10 
142 1 0.0492584 0.0169921 0.00743546 0.013323 0.00196623 -0.00043095 -4.7764e-09 5.47216e-09 8.46785e-10 5e-05 5.23599e-10 
143 1 0.0492389 0.0172655 0.00720856 0.0126254 0.00240375 -0.00110111 0 0 -5.1365e-09 5e-05 5.23599e-10 
144 1 0.0430899 0.0178316 0.00721445 0.0119593 -0.00119854 0.00090467 -6.96676e-11 -1.16755e-10 1.6637e-11 5e-05 5.23599e-10 
145 1 0.0430036 0.0174611 0.00733802 0.0120794 -0.00123781 0.000922707 -5.06613e-12 2.43606e-10 -8.52762e-11 5e-05 5.23599e-10 
146 1 0.0493222 0.0176518 0.00713627 0.0119525 0.00136536 -0.000762356 -3.49023e-10 1.03734e-09 -7.80131e-10 5e-05 5.23599e-10 
147 1 0.049369 0.0182964 0.00701986 0.0116185 0.00143612 -0.000786524 -2.93706e-10 -1.09836e-09 8.23431e-10 5e-05 5.23599e-10 
148 1 0.0548926 0.0169542 0.00741015 0.0126456 -0.00036097 -0.0004849 2.75221e-10 -3.31881e-09 -9.87589e-10 5e-05 5.23599e-10 
149 1 0.0551838 0.0182584 0.00712303 0.0113918 -0.000732911 0.00104788 -2.9381e-09 7.77374e-09 -1.11801e-10 5e-05 5.23599e-10 
150 1 0.0550971 0.0173742 0.00722264 0.0130581 0.000847492 -0.000986175 -2.0204e-09 1.60328e-09 -8.06365e-10 5e-05 5.23599e-10 
151 1 0.0492345 0.0180728 0.00706566 0.0122517 0.0015852 -0.000829138 1.20614e-09 4.44839e-10 1.31212e-09 5e-05 5.23599e-10 
152 1 0.0491456 0.0172397 0.00723342 0.0126819 0.00185134 -0.000620868 -2.73607e-11 6.17021e-11 -5.22059e-10 5e-05 5.23599e-10 
153 1 0.0493293 0.0181029 0.00705598 0.0123099 0.00161983 -0.000832338 -4.83744e-10 -1.87289e-09 6.43808e-10 5e-05 5.23599e-10 
154 1 0.049214 0.017255 0.00730483 0.0131232 0.00217204 -0.000810481 0 0 -5.1365e-09 5e-05 5.23599e-10 
155 1 0.0430603 0.0172802 0.00740243 0.0120557 0.00179238 -0.000117825 3.91343e-10 1.20225e-10 -2.25129e-11 5e-05 5.23599e-10 
156 1 0.0492384 0.0169227 0.00750463 0.0133346 0.00179899 -0.000353296 7.35971e-10 5.67364e-10 5.93388e-11 5e-05 5.23599e-10 
157 1 0.0493886 0.0183928 0.00700187 0.0113959 0.00169285 -0.000827649 3.22313e-09 -4.37634e-09 9.23163e-10 5e-05 5.23599e-10 
158 1 0.0430683 0.017739 0.00724534 0.0119906 -0.00120528 0.000908525 -1.14271e-10 -1.02902e-10 1.0461e-11 5e-05 5.23599e-10 
159 1 0.0492154 0.0168535 0.00757314 0.0134076 0.00172714 -0.000233001 1.99616e-09 -3.43213e-10 6.44595e-11 5e-05 5.23599e-10 
160 1 0.0550702 0.0172721 0.007267 0.0128056 -6.88264e-05 -0.000668624 3.79432e-09 -3.04742e-09 1.33853e-09 5e-05 5.23599e-10 
161 1 0.0494079 0.0184897 0.00698381 0.0115307 0.00178928 -0.000819177 1.82423e-09 -8.09411e-10 -1.27389e-09 5e-05 5.23599e-10 
162 1 0.0491838 0.0181011 0.00714714 0.012091 0.00160648 -0.000853394 1.20595e-09 1.10918e-09 -3.68612e-10 5e-05 5.23599e-10 
163 1 0.0493325 0.0185548 0.00697572 0.0115951 0.00172654 -0.000844272 2.2022e-09 -3.25605e-09 8.60855e-10 5e-05 5.23599e-10 
164 1 0.0490932 0.0167511 0.00766471 0.0129193 0.00166178 -0.000237819 -1.59589e-09 -9.28017e-11 -1.91473e-10 5e-05 5.23599e-10 
165 1 0.0428525 0.0168127 0.00755426 0.0123022 -0.00126651 0.000941096 -2.67314e-10 -6.79132e-10 2.79893e-10 5e-05 5.23599e-10 
166 1 0.0493761 0.0174892 0.00716261 0.0118554 0.00145342 -0.000765344 1.81947e-09 7.62217e-09 1.04368e-09 5e-05 5.23599e-10 
167 1 0.0429173 0.0170906 0.00746158 0.0122066 -0.00126757 0.000938702 8.64026e-11 2.69076e-11 -3.59475e-11 5e-05 5.23599e-10 
168 1 0.04908 0.0171529 0.00738871 0.0135029 0.00185473 -0.000268169 7.12314e-10 -8.62795e-10 -2.15411e-10 5e-05 5.23599e-10 
169 1 0.0491991 0.0183306 0.00702159 0.0114365 0.00175318 -0.000884258 -2.29691e-09 -3.15166e-09 5.6071e-09 5e-05 5.23599e-10 
170 1 0.0493677 0.0170772 0.00733759 0.0131935 0.000538193 -0.00259648 5.35343e-10 2.81336e-10 -1.06716e-09 5e-05 5.23599e-10 
171 1 0.0429455 0.0167792 0.00756958 0.0123076 -0.00126928 0.000942506 -3.43618e-10 -2.92896e-10 3.1757e-11 5e-05 5.23599e-10 
173 1 0.0491793 0.0182343 0.00703958 0.0117523 0.00158842 -0.000826366 5.31109e-09 -4.23527e-09 1.00964e-09 5e-05 5.23599e-10 
174 1 0.0428094 0.0166275 0.00761604 0.0123998 -0.00130193 0.00094392 -3.96387e-10 1.16454e-09 -5.98004e-10 5e-05 5.23599e-10 
175 1 0.0491595 0.0169607 0.00745646 0.0130767 0.00154129 -0.000108717 -1.07335e-09 -7.33822e-10 1.88945e-09 5e-05 5.23599e-10 
176 1 0.0492571 0.01862 0.00696764 0.0115854 0.00163932 -0.000830549 2.00393e-09 -2.99866e-09 6.08324e-10 5e-05 5.23599e-10 
177 1 0.042831 0.0167201 0.00758515 0.0123337 -0.00129851 0.000951007 4.25272e-12 1.30911e-10 6.24036e-11 5e-05 5.23599e-10 
178 1 0.0493018 0.0175555 0.00715427 0.0118844 0.00135278 -0.000808638 4.64793e-10 2.78632e-10 -1.40749e-09 5e-05 5.23599e-10 
179 1 0.0492939 0.0183619 0.0070117 0.0118123 0.00160312 -0.000807744 3.20812e-09 -2.98971e-09 1.917e-09 5e-05 5.23599e-10 
180 1 0.0428741 0.0169053 0.00752336 0.0122726 -0.00125574 0.000937517 1.44246e-11 1.62515e-10 -6.06125e-11 5e-05 5.23599e-10 
181 1 0.042982 0.0173685 0.00736891 0.0121183 -0.00123205 0.000922864 4.44619e-10 1.74766e-10 -2.79447e-11 5e-05 5.23599e-10 
182 1 0.0492185 0.0184271 0.0070036 0.0118235 0.00161458 -0.000835044 4.49663e-09 -2.20228e-09 -2.65204e-10 5e-05 5.23599e-10 
183 1 0.0490773 0.0177532 0.00712954 0.0121016 0.00167554 -0.000827362 -1.25738e-10 2.00277e-09 -6.22715e-10 5e-05 5.23599e-10 
184 1 0.0430252 0.0175537 0.00730712 0.0120475 -0.00123263 0.00091913 -8.14967e-11 -4.20886e-11 1.78516e-11 5e-05 5.23599e-10 
185 1 0.0429239 0.0166866 0.00760049 0.0123353 -0.00127636 0.000940332 3.5365e-11 -1.71368e-10 -2.80362e-11 5e-05 5.23599e-10 
186 1 0.049238 0.0185235 0.00698562 0.0114924 0.00169263 -0.000831434 -1.58231e-09 4.68706e-11 2.31709e-10 5e-05 5.23599e-10 
187 1 0.0429957 0.017033 0.00748457 0.0122502 -0.00120595 0.000918826 2.82948e-10 -4.14731e-10 1.86478e-10 5e-05 5.23599e-10 
188 1 0.0494241 0.0181332 0.00704626 0.0123162 0.0017761 -0.000862055 1.0573e-09 2.06623e-09 -1.01534e-09 5e-05 5.23599e-10 
189 1 0.0427456 0.0163494 0.00770881 0.0113343 -0.00112766 0.000863498 1.38095e-09 -9.12187e-10 4.36596e-10 5e-05 5.23599e-10 
190 1 0.0492134 0.0176907 0.00721789 0.0119982 0.00149259 -0.000778592 -1.18322e-09 8.69594e-10 -6.45648e-10 5e-05 5.23599e-10 
