ITEM: TIMESTEP
2400000
ITEM: NUMBER OF ATOMS
188
ITEM: BOX BOUNDS ff ff ff
-0.02 0.43
-0.02 0.06
-0.02 0.07
ITEM: ATOMS id type x y z vx vy vz fx fy fz radius mass 
1 1 0.0418023 0.016642 0.00756951 0.0113556 -0.000575234 0.000649894 1.70139e-09 -1.04059e-09 2.05806e-10 5e-05 5.23599e-10 
2 1 0.0474732 0.0161407 0.00810879 0.0129771 0.00222631 -0.000811449 4.2643e-10 8.7879e-10 -6.9791e-10 5e-05 5.23599e-10 
3 1 0.0415496 0.0160803 0.00813203 0.0124535 -0.000794868 0.000376387 -5.177e-10 8.42498e-10 -5.31279e-10 5e-05 5.23599e-10 
4 1 0.0478536 0.017719 0.00724978 0.0120203 0.00160014 -0.00165118 8.20537e-10 6.6631e-11 5.03852e-10 5e-05 5.23599e-10 
5 1 0.0416919 0.0169503 0.00745917 0.0113847 -0.00055459 0.000660822 5.06726e-10 -1.29879e-09 -4.92646e-12 5e-05 5.23599e-10 
6 1 0.0421146 0.0176965 0.00722059 0.0114004 -0.000494638 0.000646532 1.45368e-10 1.50675e-09 -2.13812e-10 5e-05 5.23599e-10 
7 1 0.0474949 0.0162099 0.00803999 0.0129479 0.00210519 -0.00069308 -3.524e-09 -5.88541e-09 5.18616e-09 5e-05 5.23599e-10 
8 1 0.0419606 0.017386 0.00732075 0.0111785 -0.000490975 0.00062699 3.82101e-10 -2.92138e-10 1.49799e-10 5e-05 5.23599e-10 
9 1 0.0413896 0.0158898 0.00839391 0.0122757 -0.000658916 0.000204218 -2.08304e-09 -3.50864e-09 4.4015e-09 5e-05 5.23599e-10 
10 1 0.0417074 0.0166108 0.00757629 0.0113646 -0.000525364 0.000643491 4.28633e-10 9.86859e-10 4.68551e-10 5e-05 5.23599e-10 
11 1 0.0416331 0.0163134 0.00781789 0.0114069 -0.000614859 0.000347554 -1.30925e-09 9.48346e-11 7.77984e-10 5e-05 5.23599e-10 
12 1 0.0475384 0.0163484 0.00790239 0.0130064 0.00203637 -0.000630115 -2.97719e-09 -1.77208e-09 -2.36016e-10 5e-05 5.23599e-10 
13 1 0.0417316 0.0171362 0.00739702 0.0110585 -0.00050429 0.000628633 -1.63032e-10 4.56501e-10 -3.61807e-10 5e-05 5.23599e-10 
14 1 0.0421553 0.0178822 0.00715855 0.0119829 -0.00066366 0.000727174 -1.52139e-09 -3.06424e-11 -4.57952e-10 5e-05 5.23599e-10 
15 1 0.0477152 0.0170538 0.00741793 0.0119499 0.00160999 -0.00165083 1.3953e-09 1.7633e-09 -1.61926e-09 5e-05 5.23599e-10 
16 1 0.0420461 0.0181908 0.00704815 0.012273 -0.000737023 0.000758702 -1.27261e-09 -3.64939e-10 1.15896e-10 5e-05 5.23599e-10 
17 1 0.0480108 0.0180311 0.00716105 0.0123703 0.00160325 -0.00165812 9.73635e-10 -1.38475e-09 -4.30083e-10 5e-05 5.23599e-10 
18 1 0.0414539 0.0160643 0.00815851 0.0124416 -0.0007875 0.000376934 1.56e-09 -2.69704e-09 3.67992e-09 5e-05 5.23599e-10 
19 1 0.0358323 0.017168 0.00735885 0.0116297 0.00152325 -0.000963324 2.1682e-11 -1.79507e-10 1.43038e-10 5e-05 5.23599e-10 
20 1 0.0417622 0.0164561 0.00763162 0.0112695 -0.000548839 0.000639595 2.14117e-10 1.63679e-09 -3.68684e-10 5e-05 5.23599e-10 
21 1 0.0476952 0.0169588 0.00744196 0.0121204 0.00151126 -0.00164397 7.64819e-10 3.18964e-10 4.80654e-10 5e-05 5.23599e-10 
22 1 0.0418855 0.0174475 0.00729658 0.0111804 -0.000477457 0.000624261 6.51498e-10 -7.70079e-11 1.82327e-10 5e-05 5.23599e-10 
23 1 0.0414753 0.0161225 0.00808005 0.0124199 -0.000799152 0.000394964 -4.37405e-09 2.05862e-10 4.5093e-10 5e-05 5.23599e-10 
25 1 0.0477352 0.0171487 0.0073939 0.011665 0.0016885 -0.00162961 -3.35402e-10 1.50686e-09 -1.24743e-09 5e-05 5.23599e-10 
26 1 0.041518 0.0162388 0.00792311 0.0114941 -0.000702276 0.000278497 -5.21171e-10 1.4381e-09 -9.86079e-10 5e-05 5.23599e-10 
27 1 0.0415543 0.0163579 0.00776294 0.0117863 -0.000783941 0.000388777 1.72868e-09 1.00617e-09 -2.03532e-09 5e-05 5.23599e-10 
28 1 0.0422379 0.0182534 0.0070346 0.0123785 -0.000812554 0.00079423 4.0212e-10 -1.37904e-10 -1.33783e-10 5e-05 5.23599e-10 
29 1 0.0475601 0.0164176 0.0078336 0.0128537 0.00204091 -0.000651942 2.28767e-09 -2.93065e-09 9.9273e-10 5e-05 5.23599e-10 
30 1 0.0417475 0.0167966 0.00751419 0.0113939 -0.000567179 0.000659758 1.08082e-09 -1.45829e-09 1.12154e-10 5e-05 5.23599e-10 
31 1 0.0416718 0.0168574 0.00749022 0.0113887 -0.000541501 0.000647273 -2.29747e-10 2.32058e-09 -7.09711e-10 5e-05 5.23599e-10 
32 1 0.04762 0.0166259 0.00762619 0.0125397 0.00198638 -0.000672899 1.37736e-09 -3.91413e-11 -6.85367e-10 5e-05 5.23599e-10 
33 1 0.0417275 0.0167037 0.00754524 0.0113874 -0.000550186 0.000648287 2.19633e-10 1.5666e-09 -6.65313e-10 5e-05 5.23599e-10 
34 1 0.0416874 0.0165179 0.00760734 0.0112836 -0.000447984 0.000618844 1.07635e-09 -6.23857e-10 -4.05321e-12 5e-05 5.23599e-10 
35 1 0.0416131 0.0162549 0.00789651 0.0115644 -0.000712486 0.000306887 -2.79497e-09 3.00491e-10 1.00481e-09 5e-05 5.23599e-10 
36 1 0.0478953 0.0179086 0.00720162 0.0121562 0.00158145 -0.00166118 1.63116e-09 -1.95495e-09 -1.82747e-10 5e-05 5.23599e-10 
37 1 0.0416705 0.0164404 0.0076682 0.0112039 -0.000505485 0.000475629 1.31444e-09 -7.28072e-10 -3.0153e-10 5e-05 5.23599e-10 
38 1 0.0418223 0.0167349 0.00753846 0.0114081 -0.000558178 0.000658777 2.59414e-09 -1.46383e-09 -6.37387e-10 5e-05 5.23599e-10 
39 1 0.0418268 0.0171685 0.00738988 0.0110698 -0.000496369 0.000632834 3.55128e-10 1.90721e-10 6.0497e-11 5e-05 5.23599e-10 
40 1 0.0416317 0.0166716 0.00755232 0.0113145 -0.000365608 0.000602368 1.01434e-09 -1.37376e-09 -2.32066e-10 5e-05 5.23599e-10 
41 1 0.0420882 0.0183768 0.00698608 0.0123888 -0.000841001 0.000792698 9.67232e-10 -1.23741e-10 -8.44267e-11 5e-05 5.23599e-10 
42 1 0.0419999 0.017572 0.00725856 0.0112067 -0.000444368 0.000623422 -4.00387e-10 9.21191e-10 -2.85528e-10 5e-05 5.23599e-10 
43 1 0.047937 0.0180981 0.00715346 0.0123515 0.00157377 -0.0016799 6.65344e-10 -1.24693e-09 4.41119e-10 5e-05 5.23599e-10 
44 1 0.041571 0.0161385 0.00805356 0.0123341 -0.000780864 0.000329607 1.20646e-09 -1.40002e-09 2.07053e-09 5e-05 5.23599e-10 
45 1 0.0419091 0.0179731 0.00711718 0.0120285 -0.000511961 0.000643464 1.12418e-10 -9.72166e-10 -7.17691e-10 5e-05 5.23599e-10 
46 1 0.0357694 0.0173064 0.007289 0.0117175 0.00156272 -0.000984164 -4.7684e-10 -2.26925e-10 9.50535e-11 5e-05 5.23599e-10 
47 1 0.0477938 0.017434 0.00732187 0.0116352 0.00165078 -0.001584 1.81724e-09 2.02447e-10 -9.74732e-10 5e-05 5.23599e-10 
48 1 0.0418624 0.0169207 0.00747636 0.0114207 -0.000566992 0.000657876 6.28192e-10 1.95277e-09 -2.42193e-10 5e-05 5.23599e-10 
49 1 0.0418424 0.0168278 0.00750741 0.011418 -0.000538861 0.000677749 1.50845e-09 8.33101e-12 5.43711e-10 5e-05 5.23599e-10 
50 1 0.0419051 0.0175404 0.00726548 0.0112073 -0.000469262 0.000625866 7.66728e-10 3.04064e-10 -3.66303e-11 5e-05 5.23599e-10 
51 1 0.041857 0.0164872 0.00762486 0.0112324 -0.000573511 0.000637402 -1.29951e-10 -2.99113e-09 1.73628e-09 5e-05 5.23599e-10 
52 1 0.0356122 0.0166091 0.00764821 0.0122886 0.00150635 -0.000960038 1.00442e-09 -4.18287e-10 -4.75629e-11 5e-05 5.23599e-10 
53 1 0.0416523 0.0163742 0.00774092 0.0112822 -0.000570288 0.000389036 2.55006e-09 -1.48723e-09 -1.33928e-09 5e-05 5.23599e-10 
54 1 0.0420195 0.017665 0.00722746 0.0110589 -0.000361598 0.000581004 -1.9258e-09 3.0186e-10 -8.11738e-11 5e-05 5.23599e-10 
55 1 0.0476552 0.0167691 0.0074913 0.012047 0.00150086 -0.00154991 -6.75849e-10 -4.67072e-09 -4.4057e-09 5e-05 5.23599e-10 
56 1 0.0417511 0.0172292 0.00736591 0.011077 -0.000488992 0.000629005 -2.84583e-10 -1.35238e-09 4.03021e-10 5e-05 5.23599e-10 
57 1 0.0479162 0.0180034 0.00717754 0.0122972 0.00157363 -0.00167583 1.26542e-09 -1.76326e-09 6.20192e-10 5e-05 5.23599e-10 
58 1 0.0418886 0.0178803 0.00714819 0.0119518 -0.000539138 0.000667048 1.23969e-09 -1.3271e-10 6.27839e-10 5e-05 5.23599e-10 
59 1 0.0419847 0.0179122 0.00714119 0.0120448 -0.000500828 0.000659521 1.39623e-09 -3.14317e-09 4.28409e-11 5e-05 5.23599e-10 
60 1 0.0422251 0.0173876 0.00733112 0.0110614 -0.000534207 0.000628953 -1.57542e-09 1.71093e-09 -7.81973e-10 5e-05 5.23599e-10 
61 1 0.0418295 0.0176013 0.00724147 0.0111977 -0.000461126 0.000620727 1.11181e-10 -5.58127e-10 2.34231e-10 5e-05 5.23599e-10 
62 1 0.0477549 0.0172438 0.00736988 0.0113049 0.00176394 -0.00161673 7.05375e-10 -4.35031e-11 -5.17295e-10 5e-05 5.23599e-10 
63 1 0.0421304 0.0173561 0.00733801 0.0111649 -0.000512562 0.000644708 -1.28993e-09 -2.4913e-10 1.1e-10 5e-05 5.23599e-10 
64 1 0.0421894 0.0176346 0.00724491 0.0113148 -0.000722475 0.000705937 -1.75394e-09 5.23108e-10 -1.80934e-10 5e-05 5.23599e-10 
65 1 0.0478333 0.0176241 0.00727383 0.0118971 0.00163898 -0.00164458 6.03482e-11 6.42102e-10 3.20752e-10 5e-05 5.23599e-10 
66 1 0.0417461 0.0163899 0.00770987 0.0110755 -0.000701624 0.000386596 1.25951e-09 -1.16869e-09 2.81066e-09 5e-05 5.23599e-10 
67 1 0.035808 0.0174809 0.00719915 0.0118254 0.001502 -0.000961793 1.11592e-09 -3.60661e-10 1.35018e-10 5e-05 5.23599e-10 
68 1 0.0356525 0.0167833 0.00755848 0.0118206 0.00154619 -0.000985874 -2.05063e-10 3.76032e-10 -1.92933e-10 5e-05 5.23599e-10 
69 1 0.0420257 0.018098 0.00707916 0.0122028 -0.000671523 0.000728309 5.42986e-10 7.11398e-10 -5.0715e-10 5e-05 5.23599e-10 
70 1 0.0419802 0.017479 0.00728965 0.0112136 -0.000467884 0.000625205 -2.71522e-10 2.51432e-10 -8.53442e-11 5e-05 5.23599e-10 
71 1 0.0422707 0.0180057 0.00712092 0.0121795 -0.000837168 0.000789081 -7.642e-10 2.98026e-10 -3.02388e-10 5e-05 5.23599e-10 
72 1 0.0358274 0.0175681 0.00715423 0.011851 0.0015145 -0.000967962 -1.60939e-09 -4.9145e-10 -6.01686e-11 5e-05 5.23599e-10 
73 1 0.0359047 0.017917 0.00697454 0.0119427 0.00144494 -0.000975738 -2.68505e-09 -2.15632e-09 1.1204e-09 5e-05 5.23599e-10 
74 1 0.0475166 0.0162792 0.00797119 0.0129003 0.00206038 -0.000681169 2.9378e-09 3.14063e-09 -3.67964e-09 5e-05 5.23599e-10 
75 1 0.0356723 0.0168704 0.00751359 0.0118378 0.00153493 -0.000972059 6.14157e-10 -2.0188e-10 1.53869e-10 5e-05 5.23599e-10 
76 1 0.0476366 0.0166955 0.00755632 0.0124778 0.00208517 -0.000694967 6.69938e-10 -2.43657e-10 5.2676e-10 5e-05 5.23599e-10 
77 1 0.0475803 0.016487 0.00776449 0.0127279 0.00202032 -0.000627915 5.41388e-10 3.69071e-09 -3.43724e-09 5e-05 5.23599e-10 
78 1 0.0476006 0.0165564 0.0076954 0.0125264 0.00195869 -0.000649735 1.67509e-10 2.859e-09 -2.2618e-09 5e-05 5.23599e-10 
79 1 0.0418688 0.0177873 0.00717928 0.0112245 -0.000427757 0.000621189 5.19914e-11 2.77665e-10 -3.39188e-10 5e-05 5.23599e-10 
80 1 0.0477743 0.0173389 0.00734588 0.0113761 0.00172565 -0.00159927 2.69443e-09 -1.09136e-09 -7.62581e-10 5e-05 5.23599e-10 
81 1 0.0478135 0.017529 0.00729785 0.0116782 0.00166075 -0.00160785 -5.6803e-10 2.57676e-10 2.4625e-10 5e-05 5.23599e-10 
82 1 0.041977 0.0170453 0.00743834 0.0112733 -0.000334617 0.000578927 5.32904e-11 -8.18893e-10 8.3167e-11 5e-05 5.23599e-10 
83 1 0.0417706 0.0173223 0.00733478 0.0111337 -0.000498499 0.000631876 -6.75947e-11 -1.36746e-10 1.63322e-10 5e-05 5.23599e-10 
84 1 0.0417287 0.0163311 0.0077889 0.0110013 -0.000717583 0.000329135 -2.60992e-09 -1.44584e-09 3.30221e-09 5e-05 5.23599e-10 
85 1 0.0418422 0.0171434 0.00748546 0.0110963 -0.000562717 0.000636534 -1.32867e-09 -2.82411e-10 6.98835e-10 5e-05 5.23599e-10 
86 1 0.0418099 0.0175083 0.00727258 0.0111795 -0.000467279 0.000621618 4.67905e-10 3.61742e-10 -7.74886e-11 5e-05 5.23599e-10 
87 1 0.0419965 0.0171386 0.00740713 0.0110255 -0.000558959 0.000650301 -1.56796e-10 1.28411e-09 -6.4889e-10 5e-05 5.23599e-10 
88 1 0.0478744 0.0178138 0.0072257 0.0120998 0.00157031 -0.00165097 1.32927e-10 -2.50559e-10 8.56022e-10 5e-05 5.23599e-10 
89 1 0.041411 0.015948 0.00831544 0.0122981 -0.000589396 0.00010948 3.45586e-09 -1.76903e-09 2.2267e-09 5e-05 5.23599e-10 
90 1 0.042366 0.0180356 0.00711458 0.0121543 -0.000908601 0.000813541 8.69182e-10 -1.31139e-10 1.41984e-11 5e-05 5.23599e-10 
91 1 0.0415364 0.0162992 0.0078419 0.011641 -0.000811668 0.000439589 -7.20367e-10 -2.00653e-10 -1.68352e-10 5e-05 5.23599e-10 
92 1 0.0417822 0.0165491 0.00760057 0.0112868 -0.000558954 0.000651816 2.06876e-09 3.25982e-10 3.97651e-10 5e-05 5.23599e-10 
93 1 0.0414967 0.0161806 0.00800159 0.0124266 -0.000817372 0.000422422 -2.08955e-09 2.72729e-09 -2.42996e-09 5e-05 5.23599e-10 
94 1 0.041941 0.017293 0.00735185 0.0111201 -0.00050448 0.000631832 1.53851e-10 2.44469e-10 5.64413e-11 5e-05 5.23599e-10 
95 1 0.0416117 0.016579 0.00758445 0.0113297 -0.000431217 0.000633255 9.14949e-10 -3.91833e-09 -2.7331e-11 5e-05 5.23599e-10 
96 1 0.0418659 0.0173545 0.00732767 0.0111496 -0.000475937 0.000622552 -4.72913e-11 2.28495e-11 9.3997e-12 5e-05 5.23599e-10 
97 1 0.0419172 0.016766 0.0075317 0.0114294 -0.000581939 0.00066169 1.68513e-09 6.99262e-10 9.1801e-10 5e-05 5.23599e-10 
98 1 0.0415913 0.0164858 0.00761439 0.0119714 -0.000616232 0.000747424 8.24295e-09 -3.28528e-09 -1.20314e-09 5e-05 5.23599e-10 
99 1 0.0420553 0.0174176 0.00731384 0.011211 -0.00046498 0.00062022 -1.6117e-09 -1.84435e-10 -3.04437e-10 5e-05 5.23599e-10 
100 1 0.0422503 0.0179128 0.00715194 0.0121341 -0.000819727 0.000780648 -8.82643e-10 8.50317e-10 -4.84458e-10 5e-05 5.23599e-10 
101 1 0.0422097 0.0177275 0.00721387 0.0115513 -0.000780345 0.000740177 -1.85077e-09 4.36808e-10 -3.04505e-11 5e-05 5.23599e-10 
102 1 0.0418971 0.0166731 0.00756275 0.0113777 -0.00059449 0.000693495 3.00221e-09 -3.97334e-10 -7.08279e-11 5e-05 5.23599e-10 
103 1 0.0420803 0.0179438 0.00713433 0.0120414 -0.00060574 0.00070458 -7.0194e-10 9.506e-11 9.68505e-11 5e-05 5.23599e-10 
104 1 0.0422055 0.0172946 0.00736221 0.0110736 -0.000543904 0.000643624 -4.06001e-10 1.51939e-09 -6.90056e-10 5e-05 5.23599e-10 
105 1 0.0421662 0.0171086 0.00742442 0.0112959 -0.000392073 0.000599945 -1.47952e-09 -2.09156e-10 -6.13081e-11 5e-05 5.23599e-10 
106 1 0.0414325 0.0160062 0.00823698 0.0122937 -0.000710389 0.00027635 -1.22803e-09 3.74966e-10 -7.37504e-10 5e-05 5.23599e-10 
107 1 0.0422176 0.0181605 0.00706562 0.0123144 -0.000800246 0.000779829 4.17894e-10 6.47239e-10 -2.03613e-10 5e-05 5.23599e-10 
108 1 0.047715 0.0166569 0.00760498 0.012617 0.00220136 -0.000830579 5.16348e-10 -2.64137e-10 6.15317e-10 5e-05 5.23599e-10 
109 1 0.0417876 0.0169825 0.00745208 0.01138 -0.000540438 0.000658314 -5.60282e-10 4.24505e-10 -2.19064e-11 5e-05 5.23599e-10 
110 1 0.0420912 0.0171701 0.00740022 0.011072 -0.000578408 0.000655273 -1.12801e-09 -3.66052e-10 8.45059e-11 5e-05 5.23599e-10 
111 1 0.0417902 0.0174153 0.00730368 0.0111687 -0.000453903 0.000615832 -2.05402e-11 2.07932e-10 -1.59557e-11 5e-05 5.23599e-10 
112 1 0.0415924 0.0161966 0.00797509 0.0118323 -0.00070698 0.00025534 3.62688e-09 -3.38661e-09 3.43861e-09 5e-05 5.23599e-10 
113 1 0.0420519 0.0169836 0.0074626 0.0113272 -0.00026133 0.00055766 2.80096e-10 8.90023e-10 -2.30505e-10 5e-05 5.23599e-10 
114 1 0.0415725 0.0164166 0.00768411 0.0118988 -0.000744613 0.000538221 2.89898e-09 -3.51263e-09 1.45628e-09 5e-05 5.23599e-10 
115 1 0.0422921 0.0180984 0.00709001 0.0122524 -0.000840238 0.000793386 9.35777e-11 2.18454e-10 -1.75158e-10 5e-05 5.23599e-10 
116 1 0.0418463 0.0172615 0.00735877 0.0111089 -0.000489792 0.000629934 -1.09552e-10 1.50833e-10 1.79035e-10 5e-05 5.23599e-10 
117 1 0.041902 0.0171069 0.00741411 0.0110171 -0.000518586 0.00062456 3.25901e-10 1.01589e-09 -1.0341e-09 5e-05 5.23599e-10 
118 1 0.0421214 0.0181295 0.00707228 0.0122642 -0.000772108 0.000770794 4.8091e-12 -2.63124e-10 1.18324e-10 5e-05 5.23599e-10 
119 1 0.0419295 0.018066 0.00708617 0.0121616 -0.000506344 0.000659072 -1.68147e-09 -3.66272e-10 -6.03109e-10 5e-05 5.23599e-10 
120 1 0.0416518 0.0167645 0.00752127 0.0113572 -0.000450388 0.000616203 -8.74718e-10 1.99825e-09 -3.98351e-10 5e-05 5.23599e-10 
121 1 0.0417676 0.0168895 0.00748314 0.0113987 -0.000537988 0.000663788 5.53092e-10 -1.19426e-09 -2.03965e-11 5e-05 5.23599e-10 
122 1 0.0420598 0.0178508 0.00716537 0.0121358 -0.000524116 0.000697917 2.26981e-09 -1.91269e-09 6.82162e-10 5e-05 5.23599e-10 
123 1 0.0419572 0.0169521 0.00746951 0.0113728 -0.00035666 0.00059227 1.13323e-10 6.21351e-10 -3.13676e-10 5e-05 5.23599e-10 
124 1 0.0417119 0.0170432 0.00742811 0.0113677 -0.000545879 0.000657481 -7.93006e-10 -1.69733e-09 5.88541e-10 5e-05 5.23599e-10 
125 1 0.0420393 0.017758 0.00719638 0.0119308 -0.000502412 0.00067483 2.62328e-09 -1.59882e-09 7.33254e-10 5e-05 5.23599e-10 
126 1 0.042387 0.0181293 0.00708333 0.0123269 -0.000875228 0.000808645 -6.17257e-10 4.07588e-10 -1.69749e-10 5e-05 5.23599e-10 
127 1 0.0418073 0.0170754 0.00742099 0.011041 -0.000500837 0.00062247 9.6327e-10 4.81803e-10 -3.63999e-10 5e-05 5.23599e-10 
128 1 0.0419248 0.0176334 0.00723438 0.0112102 -0.000452772 0.000617104 2.44003e-10 9.8153e-10 -2.36691e-10 5e-05 5.23599e-10 
129 1 0.0421858 0.0172016 0.00739331 0.0110901 -0.000570033 0.0006556 2.32428e-10 -1.79426e-10 1.3135e-10 5e-05 5.23599e-10 
130 1 0.0418824 0.0170138 0.00744525 0.0113172 -0.000422487 0.000606561 -1.39063e-10 4.15862e-10 -7.85728e-11 5e-05 5.23599e-10 
131 1 0.0421758 0.017975 0.00712755 0.0121764 -0.000729179 0.000754823 -1.11591e-09 1.91679e-09 -4.82311e-10 5e-05 5.23599e-10 
132 1 0.0421349 0.0177893 0.00718957 0.0116878 -0.00059598 0.000684597 -8.99938e-10 2.55895e-10 -4.92372e-10 5e-05 5.23599e-10 
133 1 0.0420357 0.0173246 0.00734493 0.0111847 -0.000506573 0.000633066 -3.33223e-10 -2.6356e-10 7.74478e-11 5e-05 5.23599e-10 
134 1 0.0421108 0.0172631 0.00736912 0.0111356 -0.00055062 0.000649342 -2.94571e-10 -5.89718e-10 1.21841e-10 5e-05 5.23599e-10 
135 1 0.0420716 0.0170771 0.00743134 0.011265 -0.000331186 0.000580496 -6.32056e-10 1.51156e-09 -4.78896e-10 5e-05 5.23599e-10 
136 1 0.0419444 0.0177264 0.00720329 0.0112388 -0.000443558 0.000619244 3.61622e-10 9.54746e-10 -5.00792e-10 5e-05 5.23599e-10 
137 1 0.0422584 0.0183462 0.00700358 0.0125858 -0.000892377 0.000822543 3.32091e-10 -5.08872e-10 9.40316e-11 5e-05 5.23599e-10 
138 1 0.0419642 0.0178194 0.0071722 0.0119475 -0.000528846 0.000653449 -1.29495e-09 -3.4679e-09 8.41641e-10 5e-05 5.23599e-10 
139 1 0.0418406 0.0164069 0.00768207 0.011163 -0.000717909 0.000383755 -1.51766e-09 -1.68887e-09 2.41599e-09 5e-05 5.23599e-10 
140 1 0.0423125 0.0181914 0.00705894 0.0123536 -0.000825399 0.000796622 -1.05355e-10 -6.74147e-10 5.2887e-10 5e-05 5.23599e-10 
141 1 0.0357936 0.0169934 0.00744878 0.0116195 0.00161416 -0.00100912 2.10822e-10 -2.58719e-10 1.11201e-10 5e-05 5.23599e-10 
142 1 0.0420256 0.016816 0.00751902 0.0114784 -0.000593019 0.000685977 1.0033e-09 -1.35623e-09 1.1646e-09 5e-05 5.23599e-10 
143 1 0.0420161 0.0172316 0.00737603 0.0111258 -0.000536179 0.000642861 -6.48435e-10 5.87544e-10 -1.7273e-10 5e-05 5.23599e-10 
144 1 0.0359411 0.0181 0.00695261 0.0117657 0.00120396 0.000505281 -7.04194e-09 2.9117e-09 8.89072e-09 5e-05 5.23599e-10 
145 1 0.035866 0.0177425 0.00706438 0.0120378 0.00146348 -0.000930688 1.64103e-09 3.15808e-09 -1.31692e-09 5e-05 5.23599e-10 
146 1 0.0420946 0.0176035 0.00725165 0.0111814 -0.000413731 0.000612629 -1.5373e-09 5.35479e-10 3.89044e-10 5e-05 5.23599e-10 
147 1 0.0421428 0.0182222 0.00704136 0.0123339 -0.000777198 0.000774965 -6.47749e-10 -2.6412e-10 2.16915e-10 5e-05 5.23599e-10 
148 1 0.0476751 0.0168638 0.007466 0.0121714 0.00147956 -0.00161608 9.67759e-10 -2.66424e-09 -4.63801e-10 5e-05 5.23599e-10 
149 1 0.0479579 0.0181929 0.00712937 0.0124895 0.0016859 -0.00173101 -6.85399e-10 -2.0038e-10 9.08773e-11 5e-05 5.23599e-10 
150 1 0.0478096 0.0170823 0.00740128 0.011775 0.00187966 -0.0016923 1.24548e-09 -5.11167e-10 4.43733e-10 5e-05 5.23599e-10 
151 1 0.0420052 0.0180051 0.00711017 0.0121044 -0.000569033 0.000690476 -9.02461e-10 1.39499e-09 -2.9453e-10 5e-05 5.23599e-10 
152 1 0.0419214 0.0172 0.00738295 0.0110724 -0.000503591 0.000638056 6.16318e-10 6.82376e-10 5.26842e-11 5e-05 5.23599e-10 
153 1 0.0421009 0.0180366 0.00710331 0.0121796 -0.000731888 0.00075328 -1.10519e-09 4.56004e-10 -4.20303e-10 5e-05 5.23599e-10 
154 1 0.0419435 0.0171835 0.00747905 0.0110735 -0.000505748 0.000654555 -3.88534e-10 7.78356e-10 -1.39319e-10 5e-05 5.23599e-10 
155 1 0.0358613 0.0172709 0.00730573 0.0116574 0.00144561 -0.000923145 2.24775e-10 -3.0165e-10 1.44511e-10 5e-05 5.23599e-10 
156 1 0.0419919 0.0167042 0.00755599 0.0113687 -0.000747473 0.000735228 3.96217e-10 1.26496e-10 -1.80719e-10 5e-05 5.23599e-10 
157 1 0.0421633 0.0183153 0.00701027 0.0123814 -0.000828235 0.00079573 6.78583e-10 -9.12091e-11 -2.94351e-10 5e-05 5.23599e-10 
158 1 0.0359241 0.0180042 0.00692961 0.012115 0.00153134 -0.000947427 -2.73734e-09 -1.02337e-09 5.15956e-10 5e-05 5.23599e-10 
159 1 0.0419713 0.0165498 0.0076081 0.0113546 -0.000499046 0.000646059 -6.27588e-10 1.26053e-09 2.41067e-12 5e-05 5.23599e-10 
160 1 0.0477896 0.0169873 0.00742532 0.0118761 0.0015973 -0.00164965 2.00502e-09 -1.56801e-09 6.81396e-10 5e-05 5.23599e-10 
161 1 0.0421837 0.0184081 0.00697926 0.0125487 -0.00089644 0.000824022 -1.10951e-10 2.76102e-10 1.12983e-10 5e-05 5.23599e-10 
162 1 0.0419451 0.0180408 0.0071817 0.0120121 -0.000578317 0.000609037 -1.00584e-09 2.62189e-09 -2.91432e-11 5e-05 5.23599e-10 
163 1 0.0421092 0.0184702 0.00695488 0.0125487 -0.000865545 0.000820059 -4.28414e-10 1.39434e-10 -2.054e-11 5e-05 5.23599e-10 
164 1 0.041877 0.0165802 0.00759381 0.0113003 -0.000607496 0.000678866 2.05502e-09 -8.72346e-11 -1.08067e-09 5e-05 5.23599e-10 
165 1 0.0357308 0.017132 0.00737886 0.0116326 0.00158973 -0.000996567 -1.12231e-10 -2.3015e-10 3.91444e-11 5e-05 5.23599e-10 
166 1 0.0421501 0.0174492 0.00730691 0.0111068 -0.000481366 0.000628204 -1.21268e-09 2.29474e-09 -5.88312e-10 5e-05 5.23599e-10 
167 1 0.0357887 0.0173937 0.00724408 0.0118306 0.00152557 -0.000970636 1.14094e-09 6.01582e-10 -9.67828e-11 5e-05 5.23599e-10 
168 1 0.0418226 0.0170504 0.00751658 0.0112838 -0.000451897 0.000593189 -6.26392e-10 3.02229e-10 -3.55764e-10 5e-05 5.23599e-10 
169 1 0.0419705 0.0182517 0.00702415 0.0122925 -0.000733794 0.000760606 1.71942e-11 8.74059e-10 -1.27582e-10 5e-05 5.23599e-10 
170 1 0.0421464 0.0170153 0.0074556 0.0112986 -0.000348878 0.000583177 -1.53771e-09 6.05002e-10 -1.80731e-10 5e-05 5.23599e-10 
171 1 0.0357741 0.0169061 0.00749374 0.0118746 0.00152365 -0.000966188 1.08525e-09 -4.35827e-10 1.62124e-10 5e-05 5.23599e-10 
173 1 0.04195 0.0181588 0.00705516 0.0122146 -0.000669499 0.000734106 7.17328e-10 1.19239e-09 -3.33029e-10 5e-05 5.23599e-10 
174 1 0.0356921 0.0169576 0.0074687 0.011878 0.00152855 -0.000971768 1.42351e-11 -6.90149e-10 2.95323e-10 5e-05 5.23599e-10 
175 1 0.0419372 0.0168589 0.00750064 0.0114176 -0.000653427 0.000686816 8.34492e-10 1.14353e-09 -1.21268e-09 5e-05 5.23599e-10 
176 1 0.0420317 0.0185289 0.00693155 0.0125749 -0.000810655 0.000804582 -6.83582e-10 -2.91491e-10 -2.3367e-10 5e-05 5.23599e-10 
177 1 0.0357116 0.0170447 0.00742379 0.0115895 0.00158823 -0.000997522 -1.94587e-11 -6.61181e-10 2.71695e-10 5e-05 5.23599e-10 
178 1 0.0420749 0.0175105 0.00728274 0.0111681 -0.000435791 0.000611736 -1.80314e-09 6.07105e-10 -1.73275e-10 5e-05 5.23599e-10 
179 1 0.0420677 0.0182836 0.00701719 0.0123522 -0.000769598 0.000777041 -7.23451e-10 -9.16374e-10 4.55408e-10 5e-05 5.23599e-10 
180 1 0.0357501 0.0172192 0.00733393 0.011663 0.00157887 -0.000992397 3.33641e-11 -1.24321e-10 8.84226e-11 5e-05 5.23599e-10 
181 1 0.0358467 0.0176553 0.00710931 0.0119848 0.00151939 -0.000956092 -1.41915e-09 1.11714e-09 -9.38532e-10 5e-05 5.23599e-10 
182 1 0.0419917 0.0183474 0.00700446 0.0123493 -0.000779062 0.000782664 1.82395e-10 4.9152e-10 2.07229e-10 5e-05 5.23599e-10 
183 1 0.0418492 0.0176943 0.00721038 0.0112003 -0.00046236 0.000620975 3.31619e-10 3.81146e-10 -1.00994e-10 5e-05 5.23599e-10 
184 1 0.0358854 0.0178298 0.00701946 0.0119723 0.0014039 -0.000926902 2.44585e-09 -1.72091e-09 1.40442e-09 5e-05 5.23599e-10 
185 1 0.0357543 0.0168189 0.00753863 0.0118463 0.00155146 -0.000984318 5.62473e-10 -1.54364e-10 -5.41514e-11 5e-05 5.23599e-10 
186 1 0.0420112 0.0184361 0.00696256 0.0124253 -0.000839364 0.000783712 1.01241e-09 6.20416e-10 1.39234e-11 5e-05 5.23599e-10 
187 1 0.035813 0.0170807 0.0074038 0.0115765 0.00151666 -0.000959421 -4.61733e-11 -5.78506e-10 3.81287e-10 5e-05 5.23599e-10 
188 1 0.0421963 0.0180678 0.00709654 0.0122512 -0.00078303 0.000771862 5.82271e-10 1.23972e-09 -3.67873e-10 5e-05 5.23599e-10 
189 1 0.0356327 0.0166961 0.00760337 0.0116215 0.00157809 -0.00098658 -1.75606e-09 2.50571e-11 3.75766e-10 5e-05 5.23599e-10 
190 1 0.0419591 0.017631 0.00732825 0.0111752 -0.000396059 0.000606677 -3.88641e-10 1.6215e-09 -5.2749e-10 5e-05 5.23599e-10 
