ITEM: TIMESTEP
3400000
ITEM: NUMBER OF ATOMS
188
ITEM: BOX BOUNDS ff ff ff
-0.02 0.43
-0.02 0.06
-0.02 0.07
ITEM: ATOMS id type x y z vx vy vz fx fy fz radius mass 
1 1 0.0538094 0.0166095 0.00761301 0.0134127 0.00175783 -0.00145938 -1.74521e-09 -7.54146e-10 4.55866e-10 5e-05 5.23599e-10 
2 1 0.059495 0.0163184 0.00815566 0.012113 0.000242597 -4.64997e-05 -2.90639e-10 3.73566e-10 -4.45756e-10 5e-05 5.23599e-10 
3 1 0.0535281 0.0160417 0.00822091 0.012544 0.00056693 0.00188504 -1.48336e-09 1.81554e-09 -4.00516e-09 5e-05 5.23599e-10 
4 1 0.0598693 0.0177751 0.00717327 0.0114086 0.000414875 -0.00017779 -4.44238e-09 -3.60937e-10 1.53879e-09 5e-05 5.23599e-10 
5 1 0.0536776 0.0168844 0.00750448 0.011683 -0.00110662 -0.00012333 4.15403e-10 -2.15914e-09 -2.24486e-10 5e-05 5.23599e-10 
6 1 0.0541616 0.0178091 0.00708983 0.0115351 -0.00113478 -0.000187105 -1.75198e-09 -5.55173e-10 -1.11579e-09 5e-05 5.23599e-10 
7 1 0.0595167 0.0163874 0.00808657 0.0121481 0.00023515 -3.64718e-05 -2.09195e-10 3.02245e-10 -3.76844e-10 5e-05 5.23599e-10 
8 1 0.0539792 0.0174081 0.00726819 0.0111542 -0.000925198 -0.000206602 1.02434e-09 -1.25949e-09 5.52199e-10 5e-05 5.23599e-10 
9 1 0.053368 0.0158384 0.00847522 0.0118752 3.34157e-05 0.00245583 3.8721e-09 -1.57213e-09 1.21506e-09 5e-05 5.23599e-10 
10 1 0.0537001 0.0165638 0.00763807 0.0125798 -0.000133317 -0.0011081 0 0 -5.1365e-09 5e-05 5.23599e-10 
11 1 0.0536164 0.0162763 0.00790676 0.0129931 0.000654937 0.00176039 1.00307e-08 -2.20033e-09 3.69111e-09 5e-05 5.23599e-10 
12 1 0.0595601 0.0165253 0.00794838 0.0121826 0.000229539 -4.16651e-05 8.14724e-10 3.59104e-10 -5.65081e-11 5e-05 5.23599e-10 
13 1 0.0537177 0.0170642 0.00742673 0.0112934 -0.000984809 -0.000178634 -3.05005e-10 -2.29969e-09 4.90494e-10 5e-05 5.23599e-10 
14 1 0.0541886 0.0179984 0.00703662 0.0113259 -0.00114959 0.000113436 1.06227e-09 -9.7458e-10 1.46514e-09 5e-05 5.23599e-10 
15 1 0.0597615 0.0171445 0.00732815 0.011354 0.000380335 -0.000175593 4.59388e-10 -1.23651e-10 2.57111e-10 5e-05 5.23599e-10 
16 1 0.0540491 0.018139 0.00701467 0.0114137 -0.00080485 0.00101742 7.71138e-10 6.02836e-10 -3.72158e-10 5e-05 5.23599e-10 
17 1 0.0599957 0.0183614 0.00716031 0.0119852 0.000246023 -0.00012515 1.37508e-09 -8.0328e-10 -2.47906e-10 5e-05 5.23599e-10 
18 1 0.053432 0.0160136 0.00824026 0.0121807 0.00024769 0.00222125 -1.01004e-09 -6.15888e-10 3.16171e-09 5e-05 5.23599e-10 
19 1 0.0478192 0.0170754 0.00740184 0.0122058 0.00283133 -0.00195829 -2.96854e-10 4.9623e-10 -2.10855e-11 5e-05 5.23599e-10 
20 1 0.0537679 0.016439 0.00770824 0.012918 0.00274625 -0.000840305 -6.17447e-09 7.20404e-09 1.00327e-09 5e-05 5.23599e-10 
21 1 0.0597285 0.0170777 0.00739487 0.0111806 0.000408211 -0.000265185 1.03029e-09 -1.30723e-09 5.38135e-10 5e-05 5.23599e-10 
22 1 0.0538836 0.0173791 0.00728548 0.0110656 -0.000914741 -0.000201248 1.52652e-09 2.44123e-10 -3.32837e-10 5e-05 5.23599e-10 
23 1 0.0534533 0.016072 0.00816194 0.0121555 0.000243434 0.0021375 -1.95884e-09 -2.60765e-09 4.55937e-10 5e-05 5.23599e-10 
25 1 0.0597583 0.0172149 0.00725721 0.0115595 0.000351085 -0.000163785 -6.91629e-10 8.6727e-11 -2.71161e-10 5e-05 5.23599e-10 
26 1 0.053496 0.0161888 0.00800534 0.0124274 0.000286173 0.00229337 1.14268e-09 9.02807e-10 -1.80505e-09 5e-05 5.23599e-10 
27 1 0.053539 0.016318 0.00785905 0.0123766 0.000383957 0.0023065 2.75985e-09 -4.5856e-09 -5.03412e-10 5e-05 5.23599e-10 
28 1 0.0541343 0.0185832 0.00703532 0.0122217 -0.00110178 0.00110254 6.6928e-10 -2.30127e-09 -5.57535e-10 5e-05 5.23599e-10 
29 1 0.0595817 0.0165943 0.00787928 0.0121843 0.000257623 -6.98758e-05 4.31118e-10 1.10351e-10 1.23678e-10 5e-05 5.23599e-10 
30 1 0.0537414 0.0167436 0.00756026 0.0120243 -0.000609447 -0.000397301 -7.41358e-10 -2.48971e-09 1.31141e-09 5e-05 5.23599e-10 
31 1 0.0536571 0.0167946 0.00754332 0.0116596 -0.00111326 -0.000171651 -3.48233e-09 -1.5527e-09 -2.13557e-10 5e-05 5.23599e-10 
32 1 0.0596469 0.0168011 0.00767202 0.012134 0.00023368 -8.78365e-05 -4.67378e-10 9.58352e-11 -6.14534e-11 5e-05 5.23599e-10 
33 1 0.0537207 0.0166536 0.00759918 0.0122596 -0.000213069 -0.000604642 2.33347e-09 3.61598e-09 1.69684e-11 5e-05 5.23599e-10 
34 1 0.0536792 0.0164752 0.00767948 0.0118244 -0.00052057 -0.00204214 0 0 -5.1365e-09 5e-05 5.23599e-10 
35 1 0.0535947 0.0162179 0.00798498 0.0133148 0.000624363 0.00190751 -1.89313e-09 -3.9399e-10 7.12736e-10 5e-05 5.23599e-10 
36 1 0.0599093 0.017971 0.00716903 0.0117354 0.000265359 -0.000127086 -1.04159e-10 1.7822e-09 6.35603e-10 5e-05 5.23599e-10 
37 1 0.053659 0.0163972 0.00774431 0.0117842 0.000440969 0.00183107 -2.55069e-09 2.65464e-09 -7.24119e-09 5e-05 5.23599e-10 
38 1 0.0538332 0.0167055 0.00757137 0.0125517 0.000516432 -0.000896827 4.22011e-09 -4.99225e-10 8.3257e-10 5e-05 5.23599e-10 
39 1 0.0538254 0.017109 0.00740216 0.0112088 -0.000865412 -0.00023631 7.7996e-10 -1.39365e-09 9.97215e-11 5e-05 5.23599e-10 
40 1 0.053616 0.0166157 0.00762267 0.011763 -0.00109642 -0.000285566 -1.32686e-09 2.01404e-10 3.49732e-09 5e-05 5.23599e-10 
41 1 0.0540907 0.018388 0.00702568 0.0122757 -0.00116599 0.00109152 -6.75866e-09 -1.11887e-09 2.56854e-10 5e-05 5.23599e-10 
42 1 0.0540172 0.0175883 0.00719038 0.0114252 -0.000973152 -0.000203248 -4.93975e-11 -1.88454e-09 9.98384e-10 5e-05 5.23599e-10 
43 1 0.0599524 0.0181662 0.00716464 0.0119235 0.000236331 -0.000129895 1.29032e-09 -1.55219e-09 -4.2479e-10 5e-05 5.23599e-10 
44 1 0.0535495 0.0161001 0.00814253 0.0122128 0.000178968 0.00235352 -2.24705e-10 5.33619e-10 -1.9016e-09 5e-05 5.23599e-10 
45 1 0.053893 0.0178747 0.00707727 0.0113341 -0.00100266 0.00011391 4.63389e-11 -7.95862e-10 1.58009e-10 5e-05 5.23599e-10 
46 1 0.0476887 0.0169284 0.00745029 0.0121672 0.00283485 -0.00199876 3.72697e-10 -1.71296e-09 1.83084e-09 5e-05 5.23599e-10 
47 1 0.059812 0.0174807 0.0071797 0.0114736 0.000410035 -0.000136213 -2.28879e-09 1.03622e-09 -8.89981e-10 5e-05 5.23599e-10 
48 1 0.0538851 0.016938 0.00747085 0.0115034 -0.000747408 -0.000299041 -8.66881e-10 -3.03985e-10 1.5159e-11 5e-05 5.23599e-10 
49 1 0.0538647 0.0168481 0.00750972 0.0115933 -0.000768486 -0.000309426 -4.8917e-11 -1.28192e-10 -1.15701e-09 5e-05 5.23599e-10 
50 1 0.053903 0.0174692 0.00724659 0.0111529 -0.000967533 -0.00018977 -1.03116e-10 7.91265e-11 5.69612e-11 5e-05 5.23599e-10 
51 1 0.053877 0.0164785 0.00767545 0.0148053 0.00382534 -0.00221992 -2.05763e-09 2.35774e-09 -2.94043e-09 5e-05 5.23599e-10 
52 1 0.0475298 0.0163211 0.00792951 0.013192 0.00285364 -0.00146368 -2.60785e-09 2.73919e-09 -1.12172e-09 5e-05 5.23599e-10 
53 1 0.0536374 0.0163388 0.00782257 0.0117685 0.000109561 0.00165981 2.62531e-09 2.79668e-09 -3.97226e-09 5e-05 5.23599e-10 
54 1 0.0540429 0.0176854 0.00714821 0.0113944 -0.00108608 -0.000147285 1.33673e-10 -2.42958e-10 -2.56404e-10 5e-05 5.23599e-10 
55 1 0.0596873 0.0169395 0.00753337 0.0112071 0.000386572 -0.000209596 5.7859e-10 -6.56428e-11 1.20835e-10 5e-05 5.23599e-10 
56 1 0.0537374 0.0171543 0.00738795 0.011242 -0.000969834 -0.000186332 8.2571e-10 -1.7139e-09 9.74813e-10 5e-05 5.23599e-10 
57 1 0.0599307 0.0180686 0.0071668 0.0119629 0.000229846 -0.000135976 6.63051e-11 4.15267e-10 5.87931e-10 5e-05 5.23599e-10 
58 1 0.0538731 0.0177846 0.00711559 0.0112935 -0.00107715 -0.000145015 -6.52757e-11 -7.4222e-10 -1.09616e-10 5e-05 5.23599e-10 
59 1 0.0539822 0.0178314 0.00709007 0.0113234 -0.00111373 -3.73173e-05 3.50057e-10 -1.06286e-09 8.23789e-10 5e-05 5.23599e-10 
60 1 0.054242 0.0177529 0.00710919 0.0116411 -0.000999974 -0.000180126 3.76465e-09 -2.30241e-09 -1.29341e-09 5e-05 5.23599e-10 
61 1 0.053815 0.0175144 0.00723235 0.011118 -0.000992836 -0.000185228 9.79835e-12 7.1226e-10 -1.41107e-10 5e-05 5.23599e-10 
62 1 0.0597737 0.0172846 0.00718722 0.0115793 0.000322447 -0.000144286 1.04197e-09 2.18212e-10 3.17117e-10 5e-05 5.23599e-10 
63 1 0.0541919 0.0175609 0.00719256 0.0116458 -0.000957073 -0.000223446 3.17885e-10 -1.31125e-09 2.79798e-10 5e-05 5.23599e-10 
64 1 0.0542532 0.0178443 0.00707016 0.0112584 -0.000965512 -0.000196918 1.1772e-09 -1.17377e-09 -8.29583e-12 5e-05 5.23599e-10 
65 1 0.0598501 0.017677 0.00717541 0.0113779 0.000450011 -0.000167098 -3.62366e-09 -1.10279e-09 2.25718e-09 5e-05 5.23599e-10 
66 1 0.0537447 0.0163768 0.00779159 0.0145755 0.00359055 -0.00207723 2.9539e-09 -3.63468e-09 5.73123e-10 5e-05 5.23599e-10 
67 1 0.0477288 0.0171182 0.00740162 0.0121904 0.00285813 -0.00197258 -1.91065e-10 1.0092e-09 -5.25675e-10 5e-05 5.23599e-10 
68 1 0.0475721 0.0164597 0.00779168 0.0122659 0.00284198 -0.0015824 7.862e-10 9.4375e-10 -1.89951e-10 5e-05 5.23599e-10 
69 1 0.0540291 0.0180411 0.00701001 0.0113797 -0.000799062 0.00101892 4.21762e-10 -2.63756e-10 3.14731e-10 5e-05 5.23599e-10 
70 1 0.0539985 0.0174981 0.0072293 0.0112356 -0.000944349 -0.000206938 -1.56994e-09 -2.10032e-09 5.39132e-10 5e-05 5.23599e-10 
71 1 0.0543369 0.0182202 0.00704362 0.0118585 -0.00135119 0.00100276 8.346e-10 1.26242e-09 -1.99634e-09 5e-05 5.23599e-10 
72 1 0.0477485 0.0172132 0.0073776 0.0120881 0.00287665 -0.00193827 -2.92042e-10 7.37928e-10 -2.84761e-10 5e-05 5.23599e-10 
73 1 0.0478269 0.0175935 0.00728156 0.0119946 0.00303182 -0.00194996 -2.26008e-10 -4.89651e-10 -5.33371e-10 5e-05 5.23599e-10 
74 1 0.0595384 0.0164564 0.00801747 0.0121653 0.0002281 -3.11049e-05 -1.34176e-11 7.96753e-11 -7.95363e-11 5e-05 5.23599e-10 
75 1 0.0475911 0.0165292 0.00772232 0.012331 0.00289046 -0.00162513 2.67985e-11 3.2576e-09 -4.94106e-09 5e-05 5.23599e-10 
76 1 0.0596678 0.0168704 0.007603 0.011752 0.000305202 -0.000109057 2.24138e-09 6.25489e-11 -1.05516e-09 5e-05 5.23599e-10 
77 1 0.0596034 0.0166632 0.00781019 0.0122211 0.000288096 -0.00010017 -2.25126e-10 1.47871e-10 4.85498e-10 5e-05 5.23599e-10 
78 1 0.0596251 0.0167322 0.00774112 0.0122701 0.000281746 -9.35691e-05 -1.05306e-09 3.2194e-10 9.34278e-10 5e-05 5.23599e-10 
79 1 0.0538537 0.0176945 0.0071545 0.0112665 -0.00105808 -0.000160364 4.32758e-10 6.65028e-10 5.531e-10 5e-05 5.23599e-10 
80 1 0.0597931 0.0173825 0.00718185 0.0115437 0.000351876 -0.000133764 -2.37397e-10 1.46306e-09 9.80139e-10 5e-05 5.23599e-10 
81 1 0.0598309 0.0175789 0.00717756 0.0114205 0.000467348 -0.000181227 -7.25656e-10 7.1304e-11 3.01693e-11 5e-05 5.23599e-10 
82 1 0.0540115 0.0171616 0.00737006 0.01122 -0.000827321 -0.000245438 1.35718e-09 -1.45424e-09 8.04755e-10 5e-05 5.23599e-10 
83 1 0.053757 0.0172442 0.00734895 0.0111915 -0.000944137 -0.000206337 -9.91763e-10 -1.82693e-09 1.16888e-09 5e-05 5.23599e-10 
84 1 0.0537218 0.016317 0.00787156 0.0138446 0.00265633 -0.000716403 -4.62904e-10 1.50516e-09 1.65453e-09 5e-05 5.23599e-10 
85 1 0.0539103 0.0172058 0.0074387 0.0110334 -0.000770236 -0.000250685 2.04583e-09 -5.32792e-10 6.32118e-10 5e-05 5.23599e-10 
86 1 0.0537956 0.0174244 0.00727116 0.0110648 -0.000945926 -0.000192264 -1.21312e-10 -4.3841e-10 -1.14078e-11 5e-05 5.23599e-10 
87 1 0.0540355 0.0172565 0.00732891 0.0109795 -0.000972696 -0.000178439 -7.97699e-10 -9.50541e-10 5.67371e-10 5e-05 5.23599e-10 
88 1 0.0598889 0.0178731 0.00717112 0.011472 0.000362139 -0.000150969 3.04008e-09 1.45469e-10 -4.36453e-10 5e-05 5.23599e-10 
89 1 0.0533893 0.0158968 0.0083969 0.0119266 0.000105868 0.00243596 -2.70422e-09 3.77251e-10 -3.0063e-09 5e-05 5.23599e-10 
90 1 0.0542158 0.0185256 0.0070412 0.0123159 -0.000961567 0.00111288 2.4711e-09 -7.08799e-10 4.18223e-11 5e-05 5.23599e-10 
91 1 0.0535179 0.0162505 0.0079298 0.0126862 0.000358412 0.00234993 1.75119e-09 -6.93715e-10 1.47296e-09 5e-05 5.23599e-10 
92 1 0.0537889 0.0165211 0.00765508 0.0136093 0.00220816 -0.00201492 0 0 -5.1365e-09 5e-05 5.23599e-10 
93 1 0.0534746 0.0161304 0.00808362 0.0122788 0.000255833 0.00223164 -1.94559e-10 1.29552e-09 -1.47729e-09 5e-05 5.23599e-10 
94 1 0.0539597 0.017318 0.00730709 0.0110552 -0.000894899 -0.000210966 5.92478e-11 -6.93965e-10 6.30861e-10 5e-05 5.23599e-10 
95 1 0.0535955 0.0165285 0.00766707 0.011806 -0.000831178 0.000321521 -3.76947e-10 -6.09414e-10 -3.34293e-09 5e-05 5.23599e-10 
96 1 0.0538644 0.017289 0.00732438 0.0110697 -0.000889416 -0.0002208 6.71024e-10 5.83713e-11 -1.83603e-10 5e-05 5.23599e-10 
97 1 0.0539614 0.0168771 0.00749236 0.0116045 -0.000674045 -0.000331576 4.8733e-10 6.71598e-10 2.71233e-10 5e-05 5.23599e-10 
98 1 0.0535751 0.0164435 0.00771575 0.0117653 -0.000132582 0.00135401 -1.11623e-09 2.45326e-09 -6.39457e-09 5e-05 5.23599e-10 
99 1 0.0540929 0.0175268 0.00721218 0.0114647 -0.000952085 -0.000226946 7.12991e-10 1.37401e-10 -9.4901e-11 5e-05 5.23599e-10 
100 1 0.054316 0.0181225 0.00703888 0.0115928 -0.00131086 0.0010151 9.35064e-10 -3.41542e-11 5.6385e-10 5e-05 5.23599e-10 
101 1 0.0542867 0.0180175 0.00703315 0.0113878 -0.00118304 0.00104329 1.95457e-09 7.2176e-10 5.91371e-10 5e-05 5.23599e-10 
102 1 0.0539268 0.0166715 0.00758063 0.0130564 0.00188602 -0.00150512 1.29761e-09 -1.79826e-09 8.42167e-10 5e-05 5.23599e-10 
103 1 0.0540891 0.0179634 0.00702887 0.0114362 -0.0011035 -0.000199979 -1.36651e-09 1.18438e-09 -4.66973e-11 5e-05 5.23599e-10 
104 1 0.054307 0.0176202 0.0071615 0.0119167 -0.000600118 -0.00038424 1.6432e-09 -1.54013e-09 -4.91665e-10 5e-05 5.23599e-10 
105 1 0.0542547 0.0174156 0.0072503 0.0115256 -0.000985137 -0.000214697 -1.20077e-09 4.50222e-10 -2.00987e-10 5e-05 5.23599e-10 
106 1 0.0534106 0.0159552 0.00831858 0.0121458 0.000199372 0.00236676 -1.03791e-09 8.70809e-10 -4.58631e-10 5e-05 5.23599e-10 
107 1 0.0542422 0.0182906 0.00703689 0.0121837 -0.00109598 0.00108379 2.71469e-10 -3.60291e-10 -3.51521e-10 5e-05 5.23599e-10 
108 1 0.0598545 0.0172351 0.00723841 0.0115745 0.000380368 -0.000184513 -3.47364e-11 4.28907e-10 5.52621e-10 5e-05 5.23599e-10 
109 1 0.0537859 0.016929 0.00747994 0.0115594 -0.00086449 -0.000248312 1.28522e-10 -9.67965e-11 -5.02335e-10 5e-05 5.23599e-10 
110 1 0.0541534 0.0173789 0.00727115 0.0111712 -0.00100871 -0.000176713 1.54617e-09 -1.39838e-09 3.60425e-10 5e-05 5.23599e-10 
111 1 0.0537764 0.0173343 0.00731011 0.0110841 -0.000920534 -0.000203449 1.88009e-09 -1.83974e-09 8.90937e-10 5e-05 5.23599e-10 
112 1 0.053571 0.0161585 0.00806425 0.0123762 0.000177752 0.00240994 -1.46377e-09 7.53255e-10 -1.62258e-09 5e-05 5.23599e-10 
113 1 0.054107 0.0171908 0.00735269 0.011264 -0.000694125 -0.000308382 5.61715e-10 8.81926e-10 -4.62411e-10 5e-05 5.23599e-10 
114 1 0.0535551 0.0163627 0.00777109 0.0116132 0.000353309 0.00207111 -1.01739e-09 8.93254e-11 -2.1366e-09 5e-05 5.23599e-10 
115 1 0.0543589 0.0183176 0.00704845 0.0122219 -0.00143246 0.00109709 4.58704e-10 1.02888e-09 -4.09181e-10 5e-05 5.23599e-10 
116 1 0.053845 0.017199 0.00736328 0.011119 -0.000868892 -0.00024577 1.15e-09 -7.63485e-10 -2.9607e-10 5e-05 5.23599e-10 
117 1 0.0539245 0.017118 0.00739308 0.0111793 -0.000691811 -0.000316344 -8.57847e-10 5.2221e-10 -1.83862e-10 5e-05 5.23599e-10 
118 1 0.0541435 0.0181704 0.00702431 0.0114639 -0.000960842 0.00103782 2.05339e-09 2.78591e-09 -4.26153e-10 5e-05 5.23599e-10 
119 1 0.0539121 0.0179673 0.00704483 0.01137 -0.00089187 0.0005347 -2.66696e-10 -1.01241e-10 9.937e-10 5e-05 5.23599e-10 
120 1 0.0536365 0.0167048 0.00758219 0.011701 -0.00118576 -0.000350329 8.28219e-10 8.43539e-10 -8.8817e-10 5e-05 5.23599e-10 
121 1 0.0537656 0.016839 0.00751883 0.0117251 -0.000960166 -0.000188035 1.23412e-09 -2.21652e-09 1.17269e-09 5e-05 5.23599e-10 
122 1 0.0540814 0.0178655 0.00707041 0.0114191 -0.00125814 -2.53711e-05 -6.31067e-10 2.12027e-10 -1.50618e-09 5e-05 5.23599e-10 
123 1 0.0540009 0.0170571 0.00741459 0.0112237 -0.000613596 -0.000347888 1.6615e-11 -6.52625e-10 1.57296e-10 5e-05 5.23599e-10 
124 1 0.0536979 0.0169743 0.00746561 0.0115293 -0.00104621 -0.000156122 -2.20253e-09 -2.75483e-09 -2.29143e-10 5e-05 5.23599e-10 
125 1 0.0540628 0.0177753 0.00710933 0.0113689 -0.00114105 -0.00011552 6.03095e-10 -1.79359e-09 -1.48059e-10 5e-05 5.23599e-10 
126 1 0.0542825 0.0183819 0.00704324 0.0124044 -0.00115925 0.00113097 -2.52325e-10 -7.01176e-10 -5.11236e-10 5e-05 5.23599e-10 
127 1 0.0538057 0.017019 0.00744105 0.0113381 -0.00086917 -0.000230205 -1.10613e-09 6.38831e-10 -5.49184e-10 5e-05 5.23599e-10 
128 1 0.0539223 0.0175592 0.00720769 0.0112052 -0.00100423 -0.000184773 -1.46226e-10 5.66253e-10 1.55701e-10 5e-05 5.23599e-10 
129 1 0.054279 0.0175142 0.00720754 0.0116448 -0.0010063 -0.000199239 7.74207e-10 8.02907e-11 1.48448e-10 5e-05 5.23599e-10 
130 1 0.0539049 0.0170279 0.00743197 0.0113454 -0.000695384 -0.000313045 -1.72921e-09 2.44475e-10 -1.37399e-10 5e-05 5.23599e-10 
131 1 0.054221 0.0180928 0.00702924 0.0114827 -0.0010495 0.00102311 3.27168e-10 -3.13807e-11 8.6561e-12 5e-05 5.23599e-10 
132 1 0.0541729 0.0179008 0.00705101 0.0112265 -0.00131928 -0.00101854 1.09397e-09 -6.1741e-11 3.26691e-09 5e-05 5.23599e-10 
133 1 0.0540742 0.0174366 0.00725112 0.0111919 -0.000995298 -0.000177951 1.45729e-09 -4.76905e-10 3.17687e-10 5e-05 5.23599e-10 
134 1 0.0541726 0.0174697 0.00723195 0.0114717 -0.00098976 -0.000183701 5.21043e-10 1.53301e-10 4.99108e-11 5e-05 5.23599e-10 
135 1 0.0541302 0.0172844 0.00731209 0.0111554 -0.000956738 -0.000188849 1.96414e-09 -1.78181e-09 6.81044e-10 5e-05 5.23599e-10 
136 1 0.0539429 0.0176514 0.00716783 0.0113177 -0.00106982 -0.000150636 4.16589e-10 -1.21716e-09 2.62904e-10 5e-05 5.23599e-10 
137 1 0.0540791 0.0187444 0.00703485 0.0121815 -0.00110111 0.00109752 -1.77626e-10 -2.28305e-09 -9.89394e-11 5e-05 5.23599e-10 
138 1 0.0539623 0.0177415 0.00712894 0.0113067 -0.00110476 -0.000133855 -4.47619e-10 -9.64253e-10 -5.92466e-10 5e-05 5.23599e-10 
139 1 0.0538551 0.0164201 0.00775362 0.0134723 0.00379465 -0.00252077 -2.29353e-09 2.60047e-09 -2.52794e-09 5e-05 5.23599e-10 
140 1 0.0541941 0.0184281 0.00703639 0.0124037 -0.00104035 0.00111395 -1.1533e-09 -1.80953e-09 2.74064e-10 5e-05 5.23599e-10 
141 1 0.0477623 0.016861 0.00745735 0.0120715 0.00274301 -0.00194484 4.28508e-09 1.73036e-09 2.06667e-09 5e-05 5.23599e-10 
142 1 0.0540879 0.0171007 0.0073916 0.011217 -0.000645829 -0.0003345 -4.37643e-10 1.37516e-09 -1.06572e-09 5e-05 5.23599e-10 
143 1 0.054055 0.0173465 0.00729001 0.0110971 -0.000991641 -0.000178012 6.83106e-10 -1.67707e-09 3.19333e-10 5e-05 5.23599e-10 
144 1 0.0478677 0.0177833 0.00723344 0.0123981 0.00299527 -0.00200183 -1.69243e-09 9.64519e-10 8.90239e-10 5e-05 5.23599e-10 
145 1 0.0477875 0.0174034 0.00732959 0.0118196 0.00296759 -0.00193257 6.17751e-10 -3.58951e-10 -3.39029e-10 5e-05 5.23599e-10 
146 1 0.054143 0.0177189 0.00712875 0.0115254 -0.00100259 -0.000180083 1.70752e-09 -9.63762e-10 7.86724e-10 5e-05 5.23599e-10 
147 1 0.0541434 0.0183031 0.00702811 0.0121377 -0.00131223 0.00104109 -2.71573e-09 2.03272e-09 -1.86728e-10 5e-05 5.23599e-10 
148 1 0.0597058 0.0170089 0.00746381 0.011049 0.000427775 -0.000270602 -2.25397e-09 -2.9828e-10 1.41315e-10 5e-05 5.23599e-10 
149 1 0.059974 0.0182638 0.00716248 0.0119488 0.000227698 -0.000126457 1.20551e-09 -1.2747e-09 1.64575e-11 5e-05 5.23599e-10 
150 1 0.0598876 0.0174152 0.00718016 0.0114789 0.000379838 -0.000129513 1.57884e-10 -1.86379e-09 2.10306e-09 5e-05 5.23599e-10 
151 1 0.054001 0.0179221 0.00705182 0.0113726 -0.00116147 0.000257138 -1.17171e-09 -5.23646e-10 -4.7985e-11 5e-05 5.23599e-10 
152 1 0.0539406 0.0172279 0.00734599 0.0111157 -0.000875205 -0.000225252 -2.2638e-11 -9.15068e-10 9.24749e-10 5e-05 5.23599e-10 
153 1 0.0541236 0.0180725 0.00701968 0.0114111 -0.000857842 0.00105828 7.72236e-10 -7.78708e-10 -7.51494e-10 5e-05 5.23599e-10 
154 1 0.0540153 0.0173553 0.0073814 0.0110886 -0.000829916 -0.000215007 -5.72858e-10 -9.923e-10 1.36434e-10 5e-05 5.23599e-10 
155 1 0.0478427 0.0172423 0.00736085 0.0120068 0.00302048 -0.00198045 -9.39786e-10 9.14285e-10 -7.06926e-10 5e-05 5.23599e-10 
156 1 0.0540827 0.0170026 0.00743313 0.0112593 -0.000515711 -0.000384232 1.01837e-09 -1.84247e-09 1.02837e-09 5e-05 5.23599e-10 
157 1 0.0541125 0.0184857 0.00703051 0.0122968 -0.00107943 0.00110331 -1.30831e-09 1.77322e-10 5.96227e-10 5e-05 5.23599e-10 
158 1 0.0478469 0.0176885 0.00725752 0.0122583 0.00296581 -0.00197551 9.97309e-10 -4.14212e-10 1.76397e-10 5e-05 5.23599e-10 
159 1 0.0540601 0.016909 0.00747367 0.0115055 -0.000518683 -0.000403429 1.00516e-09 -4.92318e-10 -1.28927e-10 5e-05 5.23599e-10 
160 1 0.0598684 0.0173167 0.00718232 0.0115586 0.000382169 -0.00013519 7.36142e-10 -5.7531e-11 4.73456e-10 5e-05 5.23599e-10 
161 1 0.0540574 0.0186469 0.00703004 0.0122089 -0.00107012 0.00109185 5.57669e-11 -3.79798e-10 -4.95652e-10 5e-05 5.23599e-10 
162 1 0.0539829 0.0180168 0.00709527 0.0111321 -0.000942241 0.000840089 2.67751e-10 4.13411e-10 1.74898e-10 5e-05 5.23599e-10 
163 1 0.0540356 0.0185494 0.00702523 0.0122178 -0.00104489 0.0010983 -1.60564e-10 1.54066e-09 4.74832e-10 5e-05 5.23599e-10 
164 1 0.0538978 0.016565 0.00762698 0.0145797 0.00361959 -0.00229486 -1.00163e-09 5.73895e-10 7.6398e-10 5e-05 5.23599e-10 
165 1 0.0476494 0.0167522 0.00753341 0.0120986 0.00280645 -0.00182137 4.72153e-09 8.6397e-10 1.25311e-09 5e-05 5.23599e-10 
166 1 0.0542122 0.0176511 0.00715354 0.011767 -0.000832155 -0.000297389 1.06893e-09 5.14015e-10 9.91915e-10 5e-05 5.23599e-10 
167 1 0.0477088 0.0170232 0.00742565 0.0121647 0.00285743 -0.00199805 -9.44347e-10 -3.34756e-10 1.0391e-09 5e-05 5.23599e-10 
168 1 0.0538829 0.0171126 0.00748385 0.0112645 -0.000737472 -0.000296884 -1.48689e-10 2.83027e-10 7.29167e-10 5e-05 5.23599e-10 
169 1 0.0539513 0.0181591 0.00700621 0.0113432 -0.000827213 0.00101192 9.94705e-10 9.04369e-10 -7.06166e-10 5e-05 5.23599e-10 
170 1 0.0542248 0.017313 0.00729502 0.0110599 -0.0010802 -0.000137745 1.84419e-09 -1.54838e-09 7.74228e-10 5e-05 5.23599e-10 
171 1 0.0477403 0.016767 0.0074945 0.0122332 0.0029863 -0.00177319 1.67551e-12 -3.09203e-09 -1.43433e-09 5e-05 5.23599e-10 
173 1 0.0539318 0.0180619 0.00701901 0.0113585 -0.000819178 0.000888189 -4.49237e-11 3.55971e-10 -8.41916e-10 5e-05 5.23599e-10 
174 1 0.0476106 0.0165986 0.00765308 0.0125366 0.00298237 -0.00164994 -1.60219e-09 2.33341e-09 -3.73828e-09 5e-05 5.23599e-10 
175 1 0.0539812 0.0169671 0.00745347 0.0114231 -0.000635388 -0.000346971 -9.68173e-10 9.2388e-11 4.87607e-10 5e-05 5.23599e-10 
176 1 0.0540139 0.0184519 0.00702041 0.0122683 -0.000987478 0.00110396 -5.44101e-10 1.51405e-09 9.92283e-10 5e-05 5.23599e-10 
177 1 0.0476291 0.0166681 0.00758362 0.0126726 0.00299604 -0.00164967 -7.55214e-09 -6.2844e-09 -3.44641e-09 5e-05 5.23599e-10 
178 1 0.0541114 0.0176171 0.00717326 0.0115641 -0.00100241 -0.000191865 1.3212e-09 -5.3847e-11 2.75643e-10 5e-05 5.23599e-10 
179 1 0.054069 0.0182369 0.00701932 0.0115021 -0.000818354 0.00101747 1.61362e-10 1.9608e-09 1.6424e-11 5e-05 5.23599e-10 
180 1 0.0476687 0.0168356 0.00748177 0.0121674 0.00281539 -0.00188713 -3.09956e-09 -4.39812e-10 7.42322e-10 5e-05 5.23599e-10 
181 1 0.047768 0.0173084 0.0073536 0.0119049 0.00292737 -0.00192857 -3.28817e-10 1.03681e-09 -7.07212e-10 5e-05 5.23599e-10 
182 1 0.0539712 0.0182569 0.00701249 0.011502 -0.000844295 0.000825317 6.48655e-10 1.72792e-09 -1.20704e-09 5e-05 5.23599e-10 
183 1 0.0538343 0.0176045 0.00719337 0.0111934 -0.00102813 -0.000168674 1.00122e-09 1.17036e-09 -2.04434e-10 5e-05 5.23599e-10 
184 1 0.0478072 0.0174985 0.00730557 0.0118734 0.00301288 -0.00194078 -2.93852e-10 -5.84434e-10 -8.80147e-10 5e-05 5.23599e-10 
185 1 0.0477264 0.0166969 0.00756512 0.0124418 0.00325236 -0.00178129 1.44395e-09 -1.035e-09 -2.55068e-09 5e-05 5.23599e-10 
186 1 0.0539972 0.0183533 0.00701779 0.012013 -0.000950973 0.000823251 -1.01436e-09 2.2064e-09 -5.96559e-10 5e-05 5.23599e-10 
187 1 0.0477831 0.0169567 0.00743307 0.0121865 0.00284145 -0.00196579 -4.61114e-10 2.00638e-09 1.83825e-10 5e-05 5.23599e-10 
188 1 0.0542411 0.0181906 0.00703391 0.0116638 -0.00108264 0.00103352 -6.30758e-10 -1.09744e-09 -6.31298e-10 5e-05 5.23599e-10 
189 1 0.0475515 0.0163903 0.00786071 0.0131392 0.00284967 -0.0014377 -3.61371e-09 -2.01209e-09 2.37724e-09 5e-05 5.23599e-10 
190 1 0.0540073 0.017674 0.00724097 0.0113272 -0.000993224 -0.000177997 2.36442e-09 -7.45763e-10 4.74664e-10 5e-05 5.23599e-10 
