ITEM: TIMESTEP
1800000
ITEM: NUMBER OF ATOMS
177
ITEM: BOX BOUNDS ff ff ff
-0.02 0.43
-0.02 0.06
-0.02 0.07
ITEM: ATOMS id type x y z vx vy vz fx fy fz radius mass 
1 1 0.0224897 0.0185172 0.0166011 -0.00941094 0.0124622 0.127456 0 0 -5.1365e-06 0.0005 5.23599e-07 
2 1 0.0185218 0.0229926 0.0100573 0.00690938 -0.0125202 -0.0284458 7.73408e-06 -2.58901e-05 3.97767e-07 0.0005 5.23599e-07 
3 1 0.0149888 0.0219434 0.0148827 0.0124785 0.00609081 -0.00122683 7.1092e-06 -4.93166e-06 5.97421e-06 0.0005 5.23599e-07 
4 1 0.0174585 0.0146226 0.0119745 0.00388486 -0.00288164 0.00530045 1.49582e-08 8.87871e-08 -1.35406e-06 0.0005 5.23599e-07 
5 1 0.0208761 0.0170055 0.0154499 0.0120019 0.0163089 0.0108789 -7.37234e-06 4.74208e-07 4.18257e-05 0.0005 5.23599e-07 
6 1 0.0546579 0.01997 0.0058506 -1.25994e-14 -1.73471e-14 -2.43719e-13 3.28225e-20 -1.76395e-19 1.01644e-20 0.0005 5.23599e-07 
7 1 0.0239196 0.0203758 0.0173145 -0.0306829 -0.0876164 -0.0203292 0 0 -5.1365e-06 0.0005 5.23599e-07 
9 1 0.0254448 0.0190856 0.0167976 0.0454712 -0.0237727 0.0103566 0 0 -5.1365e-06 0.0005 5.23599e-07 
10 1 0.0161656 0.0230763 0.017034 0.00256296 0.0118683 -0.0236955 0 0 -5.1365e-06 0.0005 5.23599e-07 
11 1 0.0282257 0.015098 0.00986626 0.000229563 -0.020411 0.0477679 -9.38839e-09 1.56464e-07 1.81067e-07 0.0005 5.23599e-07 
13 1 0.0216795 0.0220096 0.015188 0.011267 -0.0102609 0.0230819 8.88976e-05 7.04539e-05 -0.000162952 0.0005 5.23599e-07 
14 1 0.0141338 0.0227466 0.0155681 0.000238904 -0.0199097 -0.0301654 0 0 -5.1365e-06 0.0005 5.23599e-07 
15 1 0.0222376 0.0166384 0.0203433 0.0668875 -0.287179 0.0716601 0 0 -5.1365e-06 0.0005 5.23599e-07 
16 1 0.0249088 0.0200736 0.0166819 -0.0272647 -0.0149667 -0.00433912 1.11297e-06 8.14239e-06 4.78718e-06 0.0005 5.23599e-07 
17 1 0.0162064 0.0148716 0.0130136 0.00863859 -0.00401203 -0.00402153 -8.71032e-06 -7.69427e-07 5.33913e-06 0.0005 5.23599e-07 
19 1 0.0203266 0.0173361 0.0168227 -0.0410283 -0.0257628 0.0264011 0 0 -5.1365e-06 0.0005 5.23599e-07 
20 1 0.0345955 0.0188418 0.00570992 8.70798e-20 -7.24606e-21 3.48289e-20 0 0 0 0.0005 5.23599e-07 
21 1 -0.00638006 0.00643544 0.0225646 -0.181242 0.0202201 -0.718934 0 0 -5.1365e-06 0.0005 5.23599e-07 
22 1 0.0193444 0.0233399 0.0138355 -0.0203481 0.0167893 -0.016314 0.000352058 -9.45081e-05 0.000182354 0.0005 5.23599e-07 
23 1 0.0150525 0.0223357 0.0158002 0.00112636 -0.00627965 0.00567238 3.70804e-07 2.11075e-06 -2.59603e-06 0.0005 5.23599e-07 
24 1 0.0202911 0.0229131 0.0138066 0.00458083 0.0175466 0.0123379 -2.90552e-05 -0.000164957 5.27861e-05 0.0005 5.23599e-07 
25 1 0.0235798 0.0199793 0.00743741 -0.00202348 -0.048851 -0.0174707 1.95459e-06 1.99003e-06 -8.72787e-07 0.0005 5.23599e-07 
26 1 0.0195223 0.0240226 0.0145212 -0.0171353 -0.00658954 0.0162568 -0.000225347 0.000342742 0.000149765 0.0005 5.23599e-07 
27 1 0.0213484 0.0224656 0.01436 0.0201317 -0.0145971 0.0186229 6.80005e-05 0.000182918 0.000105648 0.0005 5.23599e-07 
28 1 0.016858 0.0226297 0.0153319 0.00269877 0.001201 0.00462091 -4.00522e-05 -4.88941e-05 1.37848e-06 0.0005 5.23599e-07 
29 1 0.0161945 0.0154681 0.0141591 0.0191012 -0.00719403 -0.0123896 0 0 -5.1365e-06 0.0005 5.23599e-07 
30 1 0.0199706 0.0185496 0.0170104 -0.0544776 -0.0753491 0.0454985 0 0 -5.1365e-06 0.0005 5.23599e-07 
31 1 0.0172132 0.0227176 0.0167768 -0.0206373 -0.0240981 0.0773865 0 0 -5.1365e-06 0.0005 5.23599e-07 
32 1 0.0260444 0.0227157 0.0343954 0.187483 -0.0608969 0.423556 0 0 -5.1365e-06 0.0005 5.23599e-07 
33 1 0.0195549 0.0240981 0.0191087 0.117424 0.122764 -0.244084 0 0 -5.1365e-06 0.0005 5.23599e-07 
34 1 0.0245142 0.0148845 0.0211144 -0.133476 0.107743 0.0525025 0 0 -5.1365e-06 0.0005 5.23599e-07 
35 1 0.0255763 0.0220715 0.0144267 0.000217842 0.0362686 -0.0372211 -3.28264e-09 -9.34186e-08 -2.25068e-07 0.0005 5.23599e-07 
36 1 0.0224609 0.0150029 0.0133874 0.0219984 0.0110323 -0.0015221 0 0 -5.1365e-06 0.0005 5.23599e-07 
37 1 0.0139836 0.0206864 0.016433 0.0614831 0.147173 0.0157072 0 0 -5.1365e-06 0.0005 5.23599e-07 
38 1 0.015724 0.0226928 0.0150875 0.00253862 -0.00766694 -0.0134677 0 0 -5.1365e-06 0.0005 5.23599e-07 
39 1 0.0200935 0.0140136 0.0130667 0.000248561 0.00354127 -0.0108866 3.62024e-06 1.0792e-07 -2.21547e-06 0.0005 5.23599e-07 
40 1 0.0260316 0.0203857 0.0156002 0.00419575 0.0385865 -0.0100078 -6.56538e-06 -1.21271e-05 6.55199e-06 0.0005 5.23599e-07 
41 1 0.0197019 0.01438 0.0139196 0.000110353 0.0123236 -0.0161583 0 0 -5.1365e-06 0.0005 5.23599e-07 
42 1 0.0180206 0.0207146 0.0166515 0.00937542 -0.0380527 -0.0164893 0 0 -5.1365e-06 0.0005 5.23599e-07 
44 1 0.0225921 0.0176929 0.0157443 0.0162674 0.0034692 0.00324224 0 0 -5.1365e-06 0.0005 5.23599e-07 
45 1 0.0227204 0.0165649 0.0151846 0.0160954 0.0374884 -0.00290932 0 0 -5.1365e-06 0.0005 5.23599e-07 
46 1 0.0177483 0.0153101 0.0152067 0.0117475 0.0108866 -0.0135169 0 0 -5.1365e-06 0.0005 5.23599e-07 
47 1 0.0176541 0.0232812 0.014679 0.0043177 0.0196882 -0.0329563 0 0 -5.1365e-06 0.0005 5.23599e-07 
48 1 0.0256458 0.0207474 0.0165898 0.00230309 -0.0134872 0.0218816 0 0 -5.1365e-06 0.0005 5.23599e-07 
49 1 0.0136894 0.0217975 0.0159102 0.00485858 0.0288107 0.00266128 0 0 -5.1365e-06 0.0005 5.23599e-07 
50 1 0.0186942 0.0233138 0.0108592 0.00570013 -0.00351152 -0.0233512 -2.14258e-05 2.89793e-05 2.49602e-05 0.0005 5.23599e-07 
51 1 0.0179997 0.0241466 0.0167224 -0.00241147 -0.0234371 -0.0032804 0 0 -5.1365e-06 0.0005 5.23599e-07 
52 1 0.0190989 0.0140038 0.0129643 -0.000993418 0.00162961 -0.00145913 -2.18938e-06 -1.11444e-06 -8.61719e-06 0.0005 5.23599e-07 
53 1 0.0243217 0.0156971 0.015561 0.0275198 0.0247637 0.014392 0 0 -5.1365e-06 0.0005 5.23599e-07 
54 1 0.0230045 0.0149207 0.0142313 0.00179957 0.0132244 0.00376845 0 0 -5.1365e-06 0.0005 5.23599e-07 
55 1 0.0257822 0.0210763 0.0153058 0.00242439 0.0366424 -0.0221244 1.10691e-05 6.40902e-06 8.0378e-07 0.0005 5.23599e-07 
57 1 0.0231002 0.0232621 0.0196219 0.199431 -0.00691615 0.451453 0 0 -5.1365e-06 0.0005 5.23599e-07 
59 1 0.0232857 0.0158714 0.0156339 0.00502596 0.0174897 0.00738997 0 0 -5.1365e-06 0.0005 5.23599e-07 
60 1 0.0153832 0.0158177 0.0181971 -0.11702 -0.183166 -0.109629 0 0 -5.1365e-06 0.0005 5.23599e-07 
61 1 0.0210072 0.0193723 0.0172663 0.0576813 -0.178409 0.138354 0 0 -5.1365e-06 0.0005 5.23599e-07 
62 1 0.016644 0.0232991 0.0146208 0.00383523 0.00662354 -0.000641575 3.6919e-06 -2.54635e-05 4.21901e-05 0.0005 5.23599e-07 
63 1 0.0226346 0.0145663 0.015102 0.0123838 0.0183508 -0.0211353 0 0 -5.1365e-06 0.0005 5.23599e-07 
64 1 0.017503 0.0147622 0.0144007 0.0162027 0.00465088 -0.00647042 6.01202e-06 2.96611e-07 -1.74973e-06 0.0005 5.23599e-07 
65 1 0.0252095 0.0218405 0.0166749 -0.000281782 -7.3365e-05 -0.00169167 4.07256e-05 -3.77273e-05 2.48377e-05 0.0005 5.23599e-07 
66 1 0.0236273 0.0150974 0.0150147 -0.00112451 -0.000382305 -0.00243253 0 0 -5.1365e-06 0.0005 5.23599e-07 
67 1 0.0267275 0.017183 0.0152672 8.3268e-05 0.0454888 0.0191371 2.24754e-07 7.39843e-07 -1.56996e-07 0.0005 5.23599e-07 
68 1 0.026549 0.0211343 0.0152175 0.0062443 0.0300647 -0.0192613 -2.13085e-05 -1.05944e-05 1.48701e-06 0.0005 5.23599e-07 
69 1 0.0239543 0.021496 0.00819459 0.000685227 -0.0426764 -0.0300676 -1.04568e-06 -2.8748e-07 1.57209e-06 0.0005 5.23599e-07 
70 1 0.018109 0.0140529 0.0130967 -5.33338e-05 -0.00386131 0.000239979 -8.90149e-07 -1.91095e-05 1.7851e-05 0.0005 5.23599e-07 
71 1 0.0160932 0.0197988 0.0159623 0.0362263 -0.0323091 -0.0210578 0 0 -5.1365e-06 0.0005 5.23599e-07 
72 1 0.0169895 0.020951 0.0163719 -0.0343644 0.0101028 -0.00343194 4.31382e-06 1.34894e-05 7.65141e-06 0.0005 5.23599e-07 
73 1 0.0248357 0.0217692 0.0159465 -0.000418639 0.00330185 -0.00905804 3.29135e-05 -5.86156e-05 3.55114e-05 0.0005 5.23599e-07 
74 1 0.0198562 0.0214628 0.0152482 0.00906183 0.00412484 -0.00836732 -2.22485e-05 0.00018043 -0.000105541 0.0005 5.23599e-07 
75 1 0.0184649 0.014862 0.0146716 0.00635145 0.00473182 0.0142079 0 0 -5.1365e-06 0.0005 5.23599e-07 
76 1 0.0225285 0.0157622 0.0144871 0.0165551 0.00707177 0.00782264 0 0 -5.1365e-06 0.0005 5.23599e-07 
77 1 0.0191586 0.0232503 0.0128757 0.0123148 -0.00682162 0.0163687 -8.82378e-05 6.51357e-05 0.000429558 0.0005 5.23599e-07 
78 1 0.0172362 0.0240371 0.0131613 0.000789681 0.000145483 0.00110441 1.08029e-05 -2.40439e-06 2.60908e-05 0.0005 5.23599e-07 
79 1 0.0224608 0.0197816 0.00583582 -1.72624e-15 7.69045e-16 -1.82305e-14 1.26886e-18 8.42268e-19 -9.82558e-20 0.0005 5.23599e-07 
80 1 0.0240959 0.022284 0.0158075 0.0226677 -0.00265842 -0.111274 0.000106713 6.86198e-05 0.000303622 0.0005 5.23599e-07 
81 1 0.0209309 0.0139428 0.0136208 0.00801659 0.0101408 -0.0192609 -4.68328e-06 9.59565e-06 6.37164e-06 0.0005 5.23599e-07 
82 1 0.0153331 0.0220829 0.0169207 -0.00874549 -0.0331103 0.00177841 0 0 -5.1365e-06 0.0005 5.23599e-07 
83 1 0.0194834 0.0233187 0.0201975 0.0407297 -0.252374 -0.0707842 0 0 -5.1365e-06 0.0005 5.23599e-07 
84 1 0.0215887 0.019945 0.0164438 -0.0535548 -0.104701 0.00931176 0 0 -5.1365e-06 0.0005 5.23599e-07 
85 1 0.0188667 0.0195275 0.01689 -0.0696474 0.0331182 -0.0145862 0 0 -5.1365e-06 0.0005 5.23599e-07 
86 1 0.0143645 0.0224955 0.0143307 0.00743581 0.00280011 0.00236862 -3.8303e-06 -2.09346e-05 -4.30081e-06 0.0005 5.23599e-07 
87 1 0.0233667 0.0231248 0.0147783 -0.00658922 -0.0027926 0.00402713 -1.7036e-05 7.91436e-05 -0.000274954 0.0005 5.23599e-07 
88 1 0.0152227 0.015672 0.0144318 0.0171838 0.0376907 -0.0294383 0 0 -5.1365e-06 0.0005 5.23599e-07 
89 1 0.022101 0.0149044 0.010392 0.000701871 -0.0132456 0.0464672 -7.66548e-06 2.00142e-06 2.59839e-05 0.0005 5.23599e-07 
90 1 0.0195235 0.0151896 0.0166552 0.0472382 0.0945124 -0.220711 0 0 -5.1365e-06 0.0005 5.23599e-07 
92 1 0.0219657 0.0141689 0.0143636 0.0029957 0.00304753 -0.00229921 0 0 -5.1365e-06 0.0005 5.23599e-07 
93 1 0.0194044 0.023273 0.010516 0.00631314 0.00549287 0.00454056 -9.57252e-06 -4.86697e-06 4.89807e-05 0.0005 5.23599e-07 
94 1 0.0218353 0.0177367 0.0235367 0.230444 -0.328083 0.85144 0 0 -5.1365e-06 0.0005 5.23599e-07 
95 1 0.0231291 0.0181371 0.00730354 0.000272506 -0.0512699 0.00990395 4.98883e-06 -2.78995e-06 -7.17801e-06 0.0005 5.23599e-07 
96 1 0.0218843 0.0176831 0.0195844 0.0272499 0.0436636 -0.164708 0 0 -5.1365e-06 0.0005 5.23599e-07 
97 1 0.0153398 0.0151329 0.0153359 0.00441158 -0.0266174 -0.047906 0 0 -5.1365e-06 0.0005 5.23599e-07 
98 1 0.0190697 0.0205474 0.0165681 0.00711328 0.057923 -0.0154965 -9.62988e-05 7.14612e-05 0.000214683 0.0005 5.23599e-07 
100 1 0.0236877 0.0230744 0.0156237 -5.24393e-05 0.00416822 -0.00229552 2.78281e-05 1.82677e-05 -9.00901e-05 0.0005 5.23599e-07 
101 1 0.0224083 0.0196473 0.0190106 0.0940381 -0.335602 0.465678 0 0 -5.1365e-06 0.0005 5.23599e-07 
102 1 0.0266732 0.0233514 0.0251745 0.176725 0.0431422 0.103044 0 0 -5.1365e-06 0.0005 5.23599e-07 
103 1 0.0187046 0.0143219 0.0138579 -0.00232966 0.00284952 0.000898589 0 0 -5.1365e-06 0.0005 5.23599e-07 
105 1 0.0154349 0.0151215 0.0136085 0.0152953 -0.0104012 -0.01353 6.20497e-06 2.43045e-06 -7.50859e-07 0.0005 5.23599e-07 
106 1 0.0293534 0.0212307 0.00628285 -0.0498948 -0.145815 -0.0224609 0 0 -5.1365e-06 0.0005 5.23599e-07 
107 1 0.0230201 0.0215303 0.0175189 0.0341573 -0.131504 0.0718572 0 0 -5.1365e-06 0.0005 5.23599e-07 
108 1 0.0181777 0.0220662 0.0159925 -0.0370786 0.087198 -0.0335156 0 0 -5.1365e-06 0.0005 5.23599e-07 
109 1 0.0212188 0.0232381 0.013741 0.0160285 0.0088077 -0.00289949 -0.000438148 0.000368282 -3.71273e-05 0.0005 5.23599e-07 
110 1 0.0229436 0.0165903 0.016665 -0.266416 -0.428639 0.763291 0 0 -5.1365e-06 0.0005 5.23599e-07 
111 1 0.0284951 0.0156783 0.00885324 0.00325129 -0.01292 0.0136766 2.66042e-06 3.2595e-06 -6.33108e-06 0.0005 5.23599e-07 
112 1 0.0215813 0.0148609 0.0152615 -0.0251546 0.0141692 -0.0664289 6.21112e-05 -6.24259e-05 0.000323591 0.0005 5.23599e-07 
113 1 0.0239412 0.0205453 0.0219231 0.136486 -0.0449791 0.0481056 0 0 -5.1365e-06 0.0005 5.23599e-07 
114 1 0.0244569 0.0230738 0.00988166 0.00846369 0.00321661 -0.00575937 -0.000360878 9.12563e-05 -5.77616e-05 0.0005 5.23599e-07 
115 1 0.0252654 0.0228282 0.0135407 0.00188234 0.029891 -0.0465285 5.645e-08 -1.33192e-07 -3.11446e-07 0.0005 5.23599e-07 
116 1 0.0231349 0.0139925 0.0249536 -0.14291 -0.131476 0.0900589 0 0 -5.1365e-06 0.0005 5.23599e-07 
117 1 0.0160129 0.0219845 0.01577 -0.0104587 -0.0167836 -0.0346852 0 0 -5.1365e-06 0.0005 5.23599e-07 
118 1 0.0271828 0.0157968 0.0143143 0.00423838 0.0163489 0.0210206 -1.57772e-06 8.96234e-06 1.44049e-05 0.0005 5.23599e-07 
119 1 0.0218971 0.02369 0.0185272 -0.0228793 0.129016 0.24596 0 0 -5.1365e-06 0.0005 5.23599e-07 
120 1 0.018385 0.022831 0.0151969 0.0212068 0.0378858 -0.0292053 0 0 -5.1365e-06 0.0005 5.23599e-07 
121 1 0.0149521 0.0202204 0.0158008 -0.0224575 -0.0299478 -0.00202369 0 0 -5.1365e-06 0.0005 5.23599e-07 
122 1 0.0348145 0.0236259 0.00877153 0.00565289 -0.0461112 0.00222971 0 0 -5.1365e-06 0.0005 5.23599e-07 
123 1 0.0235241 0.0190361 0.0168002 0.0370392 -0.166215 0.000594753 0 0 -5.1365e-06 0.0005 5.23599e-07 
124 1 0.0201175 0.023222 0.012881 0.00347871 -0.008853 0.0365089 -5.32386e-05 0.00049606 -0.00101846 0.0005 5.23599e-07 
125 1 0.01504 0.021173 0.0161235 -0.0025969 -0.0262515 0.00330979 8.43226e-06 9.03912e-06 8.99428e-06 0.0005 5.23599e-07 
126 1 0.0195394 0.0238578 0.0123856 0.0137111 -0.0152254 0.000821862 -0.000537924 0.000584173 -0.000182776 0.0005 5.23599e-07 
127 1 0.0226902 0.0236327 0.0143906 0.0188959 0.0134429 -0.0138027 -0.000328928 -0.000341516 -0.000449797 0.0005 5.23599e-07 
128 1 0.0180679 0.0243756 0.0137648 -0.0138424 -0.012738 -0.0140402 0 0 -5.1365e-06 0.0005 5.23599e-07 
129 1 0.0204619 0.024136 0.0142524 -0.0232328 0.00252595 -0.0179557 0.000196974 8.63544e-06 -0.000103048 0.0005 5.23599e-07 
130 1 0.0208712 0.0240794 0.0133388 -0.0208713 0.00843411 0.0164441 -1.5768e-05 7.91315e-07 0.000345092 0.0005 5.23599e-07 
131 1 0.0171787 0.0249278 0.0195736 -0.00990725 -0.00571782 -0.0249547 0 0 -5.1365e-06 0.0005 5.23599e-07 
132 1 0.0241296 0.021139 0.0164147 0.00518246 -0.0331403 0.025623 0 0 -5.1365e-06 0.0005 5.23599e-07 
133 1 0.0217087 0.0164647 0.0151782 0.00362188 0.0386657 -0.0336758 0 0 -5.1365e-06 0.0005 5.23599e-07 
134 1 0.024582 0.019635 0.0176477 0.135137 -0.206071 -0.0204215 0 0 -5.1365e-06 0.0005 5.23599e-07 
135 1 0.0172979 0.0232256 0.0193035 -0.388866 -0.0825702 0.279192 0 0 -5.1365e-06 0.0005 5.23599e-07 
136 1 0.023622 0.019226 0.00719467 0.00106828 -0.0396148 -0.00221438 2.63258e-06 2.97336e-07 3.57199e-06 0.0005 5.23599e-07 
137 1 0.0163007 0.0216644 0.016721 0.00109839 -0.0271977 -0.0379275 0 0 -5.1365e-06 0.0005 5.23599e-07 
138 1 0.018938 0.0234666 0.0117623 0.00622141 0.00189611 -0.00930576 0.00021871 -5.04856e-05 -5.80249e-05 0.0005 5.23599e-07 
139 1 0.0218222 0.0174346 0.0166824 0.024323 -0.005735 -0.00835985 -1.66889e-05 7.91671e-07 6.35071e-05 0.0005 5.23599e-07 
140 1 0.0206546 0.0180761 0.0158361 0.0254168 -0.0329877 -0.035443 0 0 -5.1365e-06 0.0005 5.23599e-07 
141 1 0.0143555 0.0212082 0.0153957 0.00435659 0.00518943 0.00193018 3.06778e-05 -6.55297e-05 4.96964e-06 0.0005 5.23599e-07 
142 1 0.0241629 0.0178015 0.0166116 0.0803105 -0.21277 -0.0158653 0 0 -5.1365e-06 0.0005 5.23599e-07 
143 1 0.0220623 0.0237461 0.0137048 -0.00136004 0.00219269 -0.00213163 -6.94134e-05 9.14489e-05 -0.000130726 0.0005 5.23599e-07 
144 1 0.0195636 0.0224958 0.0143173 -0.00502869 0.0213127 -0.0158345 -0.000125517 -0.000304732 -9.65093e-05 0.0005 5.23599e-07 
145 1 0.0222861 0.0152183 0.00950606 0.000969795 -0.0169356 0.0303711 -7.37797e-06 -2.11405e-06 2.91848e-06 0.0005 5.23599e-07 
146 1 0.0242002 0.0229124 0.0198639 0.142618 -0.058922 0.208339 0 0 -5.1365e-06 0.0005 5.23599e-07 
147 1 0.0225552 0.017097 0.0176783 0.052021 -0.0645035 -0.0267363 0 0 -5.1365e-06 0.0005 5.23599e-07 
148 1 0.0175025 0.0139086 0.0138793 0.000115497 0.00140269 -0.00359833 1.77848e-07 6.58858e-07 -4.42261e-06 0.0005 5.23599e-07 
149 1 0.0205204 0.014298 0.0145105 0.0269764 0.00147487 -0.0382735 0 0 -5.1365e-06 0.0005 5.23599e-07 
150 1 0.0170691 0.0218639 0.0159395 0.00981336 0.00105432 -0.00547609 0 0 -5.1365e-06 0.0005 5.23599e-07 
151 1 0.0454623 0.0165053 0.00632503 -6.7815e-15 -3.79676e-14 -2.61339e-13 4.49986e-22 -9.52912e-22 8.47033e-22 0.0005 5.23599e-07 
152 1 0.015692 0.0234571 0.0142892 -0.00700699 -0.00959954 -0.00975783 0 0 -5.1365e-06 0.0005 5.23599e-07 
153 1 0.0203747 0.0222941 0.0149727 0.0314558 0.0113852 0.0432697 3.90186e-06 -5.38474e-06 -3.24624e-05 0.0005 5.23599e-07 
154 1 0.0130131 0.0211022 0.0163914 0.0104101 0.00295453 -0.0119911 1.11517e-05 -9.42193e-06 1.83675e-05 0.0005 5.23599e-07 
155 1 0.0242706 0.0227155 0.00923258 0.00542649 -0.0122955 -0.0115187 0.000333187 3.8641e-05 -0.000188869 0.0005 5.23599e-07 
158 1 0.0215278 0.0155429 0.0145349 0.00836498 0.027234 -0.016571 -6.21112e-05 6.24259e-05 -0.000333864 0.0005 5.23599e-07 
159 1 0.0214254 0.0148309 0.0138163 0.0120417 0.0143159 0.0183748 0 0 -5.1365e-06 0.0005 5.23599e-07 
160 1 0.0161795 0.0229375 0.0160376 -0.0283883 0.00327076 -0.0130468 0 0 -5.1365e-06 0.0005 5.23599e-07 
162 1 0.0208523 0.0214561 0.0152349 0.010014 -0.0422382 0.0234154 5.69304e-05 0.00012129 -9.79182e-06 0.0005 5.23599e-07 
163 1 0.0216342 0.0147697 0.0127906 0.00543017 0.0021007 4.0659e-05 0 0 -5.1365e-06 0.0005 5.23599e-07 
164 1 0.0185201 0.0237037 0.0143755 0.031073 -0.0376642 -0.0726532 0 0 -5.1365e-06 0.0005 5.23599e-07 
165 1 0.017153 0.0235664 0.015513 0.00203478 -0.000504824 -0.000156645 -1.10681e-05 -3.53296e-05 1.90038e-05 0.0005 5.23599e-07 
166 1 0.0215874 0.0176602 0.0157376 0.00598362 0.0296153 0.0219982 1.66889e-05 -7.91671e-07 -7.37801e-05 0.0005 5.23599e-07 
167 1 0.014882 0.0231862 0.0148373 0.00620343 -0.00291555 0.00390258 5.96557e-05 -0.000143437 6.08008e-05 0.0005 5.23599e-07 
168 1 0.0138174 0.0219056 0.0149243 0.00476526 0.000485685 0.00026967 -9.78958e-06 1.2244e-05 -1.51282e-05 0.0005 5.23599e-07 
169 1 0.0190732 0.0244576 0.0136864 0.000499892 -0.0199639 0.0119909 0.000373427 -0.000419944 -0.000202924 0.0005 5.23599e-07 
170 1 0.0164811 0.0237878 0.0137646 0.001197 0.0038585 0.00181877 1.63965e-05 8.49906e-06 2.87728e-05 0.0005 5.23599e-07 
171 1 0.0159631 0.0207997 0.0159893 0.0112677 -0.0138689 -0.0348196 0 0 -5.1365e-06 0.0005 5.23599e-07 
172 1 0.0214179 0.0242728 0.0140747 -0.00756242 0.00266404 -0.00149485 7.48537e-05 0.000159251 -6.4582e-05 0.0005 5.23599e-07 
173 1 0.0166668 0.014633 0.0138681 0.0173796 -0.0100539 -0.00819663 2.93414e-06 -5.48067e-06 1.24751e-05 0.0005 5.23599e-07 
174 1 0.0226106 0.0218171 0.0164752 0.0356832 -0.0775505 0.142509 0 0 -5.1365e-06 0.0005 5.23599e-07 
175 1 0.0168359 0.0238126 0.0164372 0.0157727 -0.00755057 -0.0144627 0 0 -5.1365e-06 0.0005 5.23599e-07 
176 1 0.0227041 0.0198955 0.0169357 0.000587153 -0.104321 0.0811664 0 0 -5.1365e-06 0.0005 5.23599e-07 
177 1 0.0199124 0.0240097 0.0134385 -0.00987694 -0.0283332 0.0194464 0.000369745 -0.000138101 -7.3882e-05 0.0005 5.23599e-07 
178 1 0.089209 0.0204289 0.00606712 -7.39741e-15 -1.35347e-14 8.92929e-14 0 -7.33742e-20 -1.10114e-20 0.0005 5.23599e-07 
180 1 0.0209691 0.0155709 0.0178227 -0.0114927 -0.475057 0.026118 0 0 -5.1365e-06 0.0005 5.23599e-07 
181 1 0.0200568 0.023228 0.0148104 0.0757986 0.0559189 0.0922382 1.7423e-05 -4.06577e-06 1.42839e-05 0.0005 5.23599e-07 
182 1 0.018329 0.0231963 0.0168085 0.0343995 -0.0293944 0.0525834 0 0 -5.1365e-06 0.0005 5.23599e-07 
183 1 0.0186636 0.024104 0.0128738 0.00660335 -0.00312804 0.0129626 0.00027197 -1.12172e-05 -0.000597226 0.0005 5.23599e-07 
184 1 0.0175954 0.0216227 0.016968 0.0367729 0.0226094 -0.0423673 0 0 -5.1365e-06 0.0005 5.23599e-07 
185 1 0.0216068 0.0222618 0.0192591 0.22182 -0.229521 -0.225868 0 0 -5.1365e-06 0.0005 5.23599e-07 
186 1 0.0182197 0.0155388 0.0196457 -0.0367971 -0.217079 -0.036791 0 0 -5.1365e-06 0.0005 5.23599e-07 
187 1 0.020453 0.0239239 0.0125105 0.00838779 -0.00280931 0.0150766 -0.000472901 0.000394162 -0.000282292 0.0005 5.23599e-07 
188 1 0.017528 0.0190745 0.0167827 -0.00946808 0.018892 0.016278 0 0 -5.1365e-06 0.0005 5.23599e-07 
189 1 0.0172333 0.024129 0.0143277 0.0143659 0.0121679 -0.0149243 7.21752e-06 2.5481e-06 1.30561e-05 0.0005 5.23599e-07 
190 1 0.0191185 0.0170359 0.023386 -0.272092 -0.613486 0.882917 0 0 -5.1365e-06 0.0005 5.23599e-07 
