ITEM: TIMESTEP
4600000
ITEM: NUMBER OF ATOMS
149
ITEM: BOX BOUNDS ff ff ff
-0.02 0.43
-0.02 0.06
-0.02 0.07
ITEM: ATOMS id type x y z vx vy vz fx fy fz radius mass 
1 1 0.0197109 0.0192266 0.0159403 0.00300231 -0.046369 0.0163513 0 0 -5.1365e-06 0.0005 5.23599e-07 
2 1 0.0259781 0.018547 0.0169047 -0.000934582 0.0129797 0.00525434 0 0 -5.1365e-06 0.0005 5.23599e-07 
3 1 0.022119 0.0231245 0.0100745 -0.0299029 -0.133639 -0.903403 -0.0186703 0.06255 -0.0147455 0.0005 5.23599e-07 
4 1 0.0196091 0.0155257 0.014351 0.0178458 0.00407938 0.0117713 0 0 -5.1365e-06 0.0005 5.23599e-07 
5 1 0.0227015 0.0150027 0.0183905 -0.0407682 -0.134556 -0.179767 0 0 -5.1365e-06 0.0005 5.23599e-07 
6 1 0.0592595 0.0187057 0.00589343 6.93534e-15 -1.50505e-14 -1.82198e-13 8.32739e-19 5.91758e-19 -1.52466e-20 0.0005 5.23599e-07 
7 1 0.0273446 0.0208176 0.00760532 0.000595103 -0.0456813 -0.0196831 -4.14709e-08 -2.04653e-07 1.34834e-07 0.0005 5.23599e-07 
10 1 0.0184335 0.0241016 0.0130133 0.00253021 0.00192119 0.00211975 1.54019e-05 5.81699e-06 -2.79211e-05 0.0005 5.23599e-07 
11 1 0.0348692 0.0228918 0.0134243 9.05955e-05 0.0254132 -0.0450776 3.54528e-07 -2.17892e-07 2.4485e-07 0.0005 5.23599e-07 
13 1 0.0217244 0.0221495 0.00862915 0.000459979 -0.0351562 -0.0353703 5.03251e-07 3.4188e-07 -1.56019e-07 0.0005 5.23599e-07 
14 1 0.0223828 0.023395 0.0112186 -0.0508249 0.356032 -0.652097 -0.010046 0.0416192 -0.0125845 0.0005 5.23599e-07 
15 1 0.0258356 0.019535 0.0167285 -0.0199759 0.0146815 -0.0380094 0 0 -5.1365e-06 0.0005 5.23599e-07 
17 1 0.0204306 0.0150212 0.015201 -0.0308528 -0.0232897 0.00308451 0 0 -5.1365e-06 0.0005 5.23599e-07 
19 1 0.0193259 0.0174467 0.0156424 0.00197331 0.0377295 0.0138568 -2.60478e-07 3.89498e-07 -5.93876e-07 0.0005 5.23599e-07 
20 1 0.0346743 0.0188316 0.00571084 5.74527e-20 1.68449e-19 1.07802e-19 0 0 0 0.0005 5.23599e-07 
22 1 0.0180075 0.0230142 0.0135739 0.0265399 0.00852221 -0.0160257 0 0 -5.1365e-06 0.0005 5.23599e-07 
23 1 0.0219532 0.0228587 0.00942065 -0.226888 -0.218988 -0.37137 -0.00452882 0.00293102 -0.0190261 0.0005 5.23599e-07 
24 1 0.0287043 0.0203856 0.00592074 -1.63701e-14 1.59852e-16 -1.92034e-13 0 -6.97644e-21 0 0.0005 5.23599e-07 
25 1 0.03043 0.0169226 0.0152443 0.00175832 0.0366588 0.0280048 4.25119e-06 1.7738e-06 -5.34723e-07 0.0005 5.23599e-07 
27 1 0.0298857 0.0193112 0.0157993 0.00763424 0.030536 -0.00247361 -4.96679e-06 6.80505e-05 -1.86424e-05 0.0005 5.23599e-07 
28 1 0.0195237 0.0140006 0.0141714 -0.0132408 -0.00890317 -0.0251308 -1.45472e-07 1.73483e-06 -2.61858e-06 0.0005 5.23599e-07 
29 1 0.0202913 0.0236 0.0140862 0.00592651 0.00251567 -0.00447604 -2.12656e-06 2.75347e-06 5.41903e-06 0.0005 5.23599e-07 
30 1 0.0172337 0.0233761 0.0148343 -0.0303827 -0.00391578 -0.00282685 0 0 -5.1365e-06 0.0005 5.23599e-07 
31 1 0.0239496 0.019354 0.0159405 -0.00222638 0.0564556 -0.00429028 -2.58658e-06 8.35396e-07 9.70385e-07 0.0005 5.23599e-07 
32 1 0.0197393 0.0149667 0.0101678 0.000390152 -0.0149117 0.0478238 1.64196e-08 1.63749e-07 1.96818e-07 0.0005 5.23599e-07 
34 1 0.0181599 0.0140337 0.0131514 0.00156262 -0.00457114 0.0411557 0 0 -5.1365e-06 0.0005 5.23599e-07 
35 1 0.0317818 0.0150699 0.00988319 0.0056508 -0.0142729 0.0502008 -2.3833e-06 -5.93698e-06 6.00942e-06 0.0005 5.23599e-07 
36 1 0.0218884 0.0229737 0.0150358 0.016821 0.0138592 -0.0105262 0 0 -5.1365e-06 0.0005 5.23599e-07 
37 1 0.0246793 0.0182935 0.0185194 0.0198374 -0.0770505 -0.181569 0 0 -5.1365e-06 0.0005 5.23599e-07 
38 1 0.0222464 0.0238567 0.0146985 0.0176625 0.0043466 -0.00488867 -3.66921e-07 -1.786e-07 -3.26722e-06 0.0005 5.23599e-07 
40 1 0.0326398 0.0178034 0.00735068 0.00125738 -0.047086 0.011095 2.00114e-06 1.62686e-05 -5.40745e-06 0.0005 5.23599e-07 
41 1 0.0283736 0.0233623 0.0111751 0.000572788 -0.000741011 -0.052823 -8.27121e-08 -9.52407e-07 -2.94073e-06 0.0005 5.23599e-07 
42 1 0.0199117 0.0244293 0.0136768 0.00110224 0.00156141 0.00160044 2.37011e-05 3.70126e-06 -4.47391e-06 0.0005 5.23599e-07 
44 1 0.0189578 0.01482 0.0140524 0.0142768 0.0134402 0.0043546 0 0 -5.1365e-06 0.0005 5.23599e-07 
45 1 0.0248904 0.021071 0.0154708 -0.0279544 0.00511109 -0.00599977 0 0 -5.1365e-06 0.0005 5.23599e-07 
46 1 0.0229359 0.0232062 0.0104893 0.514323 0.467298 -1.95894 -0.0248691 0.348024 -0.102938 0.0005 5.23599e-07 
47 1 0.0240298 0.0187596 0.0167404 -0.0123558 0.066338 0.0056332 -2.05722e-06 -2.86454e-06 -3.69131e-07 0.0005 5.23599e-07 
49 1 0.0204316 0.0144634 0.014369 -0.0281657 -0.00582508 0.0068873 -2.52434e-05 2.67922e-05 2.26743e-05 0.0005 5.23599e-07 
50 1 0.016798 0.0234336 0.0130017 0.00429895 0.0115437 -0.0318198 1.28981e-05 -5.08668e-05 1.0914e-06 0.0005 5.23599e-07 
51 1 0.0192744 0.0237019 0.0139307 -0.00148364 -0.00301432 -0.00179967 6.82602e-06 7.34698e-06 -1.1464e-05 0.0005 5.23599e-07 
53 1 0.019412 0.0241007 0.0128818 0.00162288 0.000869661 0.00456943 7.75465e-06 -1.50578e-06 -8.32891e-08 0.0005 5.23599e-07 
54 1 0.0267383 0.0182025 0.00597096 -1.69485e-14 -2.73323e-15 2.76309e-13 -6.88214e-22 1.21562e-20 0 0.0005 5.23599e-07 
55 1 0.0323874 0.0165613 0.00796706 0.00223001 -0.0359208 0.0235457 -1.73412e-06 -4.02087e-06 3.61991e-06 0.0005 5.23599e-07 
57 1 0.0225555 0.0159095 0.0157564 -0.0367091 -0.00718215 -0.0384785 0 0 -5.1365e-06 0.0005 5.23599e-07 
59 1 0.0211197 0.0197344 0.00723408 5.49666e-05 -0.0509905 -0.0118385 2.45817e-07 9.42524e-07 3.63563e-07 0.0005 5.23599e-07 
60 1 0.0170427 0.0229918 0.013875 0.00485229 0.0164455 -0.0315872 0 0 -5.1365e-06 0.0005 5.23599e-07 
61 1 0.029608 0.019721 0.00584316 -8.71279e-15 1.52977e-16 -1.02212e-13 1.00585e-21 -4.9984e-20 0 0.0005 5.23599e-07 
63 1 0.0269986 0.0192051 0.00718074 0.00124638 -0.0292097 -0.00522078 -4.91457e-05 0.00046507 5.49684e-05 0.0005 5.23599e-07 
64 1 0.0208413 0.0210105 0.0163768 0.0061344 0.0233492 -0.0141017 0 0 -5.1365e-06 0.0005 5.23599e-07 
65 1 0.0244725 0.0170309 0.015909 0.0145531 0.0516533 0.0480235 0 0 -5.1365e-06 0.0005 5.23599e-07 
66 1 0.0256172 0.0176491 0.016618 0.0249905 0.0114307 -0.00103891 -3.77184e-08 -1.91268e-07 -3.63535e-06 0.0005 5.23599e-07 
67 1 0.0332153 0.0202689 0.00744879 0.000459999 -0.0486645 -0.0132155 -2.26597e-06 -9.79185e-07 3.74067e-06 0.0005 5.23599e-07 
68 1 0.0328996 0.0188274 0.00727762 -0.000151579 -0.0540695 0.000120899 -2.15179e-07 -3.00321e-07 1.43748e-07 0.0005 5.23599e-07 
69 1 0.030798 0.0156853 0.0142438 0.00173023 0.0295387 0.0348303 8.13029e-07 -4.48984e-06 -4.46774e-06 0.0005 5.23599e-07 
70 1 0.0177637 0.0234253 0.0115347 -9.23315e-05 0.000200279 -0.0015082 -8.47212e-07 -4.25143e-07 -2.3246e-06 0.0005 5.23599e-07 
71 1 0.0250215 0.0209656 0.0165864 -0.0457331 0.0412328 -0.0862753 0 0 -5.1365e-06 0.0005 5.23599e-07 
73 1 0.0171617 0.0141496 0.0134472 0.00231651 0.00238891 -0.00812864 1.67407e-07 1.32444e-06 -3.76252e-06 0.0005 5.23599e-07 
74 1 0.022899 0.0146814 0.0144419 -0.0028403 -0.0016161 0.00743496 -1.27792e-06 -1.20546e-06 -9.80876e-06 0.0005 5.23599e-07 
75 1 0.0246187 0.0164441 0.0151116 0.0243125 0.0407009 0.0545702 0 0 -5.1365e-06 0.0005 5.23599e-07 
78 1 0.0178652 0.0225628 0.0155378 0.0105032 -0.0292106 0.0079654 0 0 -5.1365e-06 0.0005 5.23599e-07 
79 1 0.0224608 0.0197816 0.00583582 -1.64706e-15 1.67611e-15 -1.81947e-14 5.60312e-19 8.37821e-19 -2.11758e-20 0.0005 5.23599e-07 
81 1 0.0204212 0.0151268 0.0136212 0.0111393 0.00819096 0.0168256 7.75789e-06 5.4751e-06 1.00013e-05 0.0005 5.23599e-07 
82 1 0.0238342 0.0211653 0.0154677 -0.0275732 0.0223605 -0.0745815 0 0 -5.1365e-06 0.0005 5.23599e-07 
83 1 0.0189959 0.0229812 0.0158558 0.00689339 -0.0314608 0.031127 0 0 -5.1365e-06 0.0005 5.23599e-07 
84 1 0.0196815 0.0237391 0.0150515 -0.0058251 0.0016275 -0.0332582 -9.06291e-06 4.88741e-05 6.12587e-05 0.0005 5.23599e-07 
85 1 0.0257646 0.0230108 0.0132285 7.92861e-05 0.0258614 -0.0483495 7.37708e-08 -5.33959e-07 7.6569e-07 0.0005 5.23599e-07 
87 1 0.0208993 0.0188316 0.00717322 0.00112842 -0.0487749 0.00403846 4.61285e-08 9.05029e-08 3.22684e-07 0.0005 5.23599e-07 
88 1 0.0242234 0.017339 0.017523 -0.0395239 0.0102473 -0.0479824 0 0 -5.1365e-06 0.0005 5.23599e-07 
90 1 0.01866 0.0162302 0.017457 0.100581 0.0915586 -0.0441719 0 0 -5.1365e-06 0.0005 5.23599e-07 
92 1 0.0209543 0.0146527 0.0121712 0.00626677 -0.000486103 0.00898153 1.07576e-05 -5.64304e-08 1.75969e-05 0.0005 5.23599e-07 
93 1 0.0287184 0.0232361 0.0127093 0.00272745 0.0137613 -0.0391725 3.30187e-07 -7.07204e-07 1.18984e-06 0.0005 5.23599e-07 
95 1 0.0255554 0.019938 0.0158507 -0.000385581 0.0528197 0.00669641 2.87297e-05 5.79926e-05 0.000182891 0.0005 5.23599e-07 
96 1 0.0197705 0.0227561 0.015205 -0.0180661 0.0114636 -0.0228005 1.67704e-05 -0.000110697 -5.62465e-05 0.0005 5.23599e-07 
97 1 0.0174663 0.0141957 0.0254238 -0.222852 -0.279177 0.167825 0 0 -5.1365e-06 0.0005 5.23599e-07 
101 1 0.0201367 0.014762 0.012735 0.0148114 0.00638575 0.0203914 4.96135e-06 -2.94433e-06 4.98756e-05 0.0005 5.23599e-07 
102 1 0.0266309 0.0177199 0.00742404 0.00200433 -0.0630002 0.0168973 2.38799e-05 0.000103743 -3.4355e-05 0.0005 5.23599e-07 
103 1 0.0280788 0.00466112 0.0453132 0.218757 -0.337391 0.294641 0 0 -5.1365e-06 0.0005 5.23599e-07 
105 1 0.0214825 0.0191844 0.0219519 -0.0327978 -0.109886 0.0727698 0 0 -5.1365e-06 0.0005 5.23599e-07 
106 1 0.0289359 0.0178655 0.00589895 -8.71309e-15 1.12609e-16 -1.02212e-13 2.11758e-22 1.21352e-19 0 0.0005 5.23599e-07 
107 1 0.023547 0.015155 0.0150381 0.0154121 -0.00145521 -0.0132287 1.27792e-06 1.20546e-06 -4.64246e-07 0.0005 5.23599e-07 
108 1 0.0187472 0.0159781 0.0147101 0.0104514 0.00266364 0.00204624 -3.92209e-07 -1.38317e-06 -9.68865e-07 0.0005 5.23599e-07 
109 1 0.0248695 0.0190132 0.0161486 -0.0065887 0.0247369 -0.0219149 -5.76684e-06 6.19866e-06 2.07654e-06 0.0005 5.23599e-07 
110 1 0.0181948 0.023598 0.0154106 -0.00657467 -0.0109815 0.0207339 0 0 -5.1365e-06 0.0005 5.23599e-07 
111 1 0.0345143 0.0233651 0.0116749 0.00101912 0.00169456 -0.0507267 -1.44876e-07 -1.61334e-07 -4.64525e-07 0.0005 5.23599e-07 
112 1 0.0211727 0.0139106 0.0139904 -0.00865594 -0.00254316 0.00284018 3.05326e-06 -3.99266e-05 -1.26093e-05 0.0005 5.23599e-07 
113 1 0.0149013 0.021256 0.0203845 -0.158963 -0.028307 -0.135286 0 0 -5.1365e-06 0.0005 5.23599e-07 
114 1 0.0313029 0.0148306 0.0120902 0.000714383 0.00952236 0.0490652 -3.40942e-08 3.04936e-07 7.05182e-08 0.0005 5.23599e-07 
115 1 0.031496 0.014782 0.0113282 0.000919804 -0.00520017 0.0504008 6.16876e-08 2.55887e-07 -3.7436e-09 0.0005 5.23599e-07 
116 1 0.0206109 0.017749 0.00740408 0.00277385 -0.0446629 0.0149953 3.13383e-05 -0.000224701 9.02707e-05 0.0005 5.23599e-07 
117 1 0.020612 0.0232959 0.0151942 -0.00789031 0.0105061 -0.00148447 -1.582e-05 -1.88573e-05 6.42193e-06 0.0005 5.23599e-07 
118 1 0.0334738 0.0214962 0.00794882 0.0327891 0.0418749 0.706508 0.0628083 0.00369102 -0.0129919 0.0005 5.23599e-07 
121 1 0.0182541 0.0178995 0.0158039 0.00449754 0.047186 0.00313843 -8.11375e-06 -4.45193e-06 2.71134e-05 0.0005 5.23599e-07 
122 1 0.0354862 0.0197731 0.00599028 3.73974e-15 2.13426e-14 -8.26853e-14 -2.02732e-19 1.61783e-19 3.30343e-20 0.0005 5.23599e-07 
123 1 0.0216014 0.0214373 0.0194663 -0.0346992 -0.110562 -0.198874 0 0 -5.1365e-06 0.0005 5.23599e-07 
124 1 0.0334096 0.0189951 0.00569612 1.30767e-19 1.82758e-22 3.98528e-20 -3.70577e-22 0 0 0.0005 5.23599e-07 
125 1 0.0241669 0.0203303 0.0159164 0.0126041 0.0356415 -0.0435625 0 0 -5.1365e-06 0.0005 5.23599e-07 
126 1 0.025096 0.0178097 0.0157799 0.00951001 0.0482964 0.0146565 4.14868e-07 -4.39931e-07 -5.62341e-06 0.0005 5.23599e-07 
128 1 0.0227788 0.0231512 0.0129907 0.00288947 0.0105361 -0.0363217 -3.08286e-05 8.74992e-06 -2.9406e-06 0.0005 5.23599e-07 
129 1 0.0157249 0.0234982 0.0143368 0.00731678 0.00461107 -0.00749684 0 0 -5.1365e-06 0.0005 5.23599e-07 
130 1 0.0214009 0.0147965 0.0147405 -0.0197651 0.0300919 0.0195553 0 0 -5.1365e-06 0.0005 5.23599e-07 
131 1 0.0201636 0.0147234 0.0114067 9.09193e-05 -0.00654346 0.0530842 -1.57426e-08 1.81557e-07 -1.14293e-08 0.0005 5.23599e-07 
132 1 0.0229396 0.0233038 0.014152 0.00288105 0.00394699 -0.0028097 -7.26281e-06 1.26665e-05 -1.71582e-06 0.0005 5.23599e-07 
133 1 0.0276624 0.0219342 0.00827798 0.00244861 -0.0357473 -0.0317732 8.79941e-07 3.09683e-06 2.30112e-06 0.0005 5.23599e-07 
134 1 0.0294679 0.0211029 0.015298 -0.000164165 0.049173 -0.0226083 7.83264e-08 -6.67374e-08 -2.52297e-07 0.0005 5.23599e-07 
135 1 0.0200478 0.015585 0.00896211 0.00108408 -0.0305082 0.0404539 -1.64562e-07 -3.99581e-08 3.954e-07 0.0005 5.23599e-07 
136 1 0.0320598 0.0156703 0.00894694 0.607877 -0.029882 -0.303198 -0.0318072 -0.041874 0.000487317 0.0005 5.23599e-07 
137 1 0.0292683 0.021918 0.0146979 0.00108965 0.0352371 -0.0334551 -7.62602e-08 1.46288e-08 -3.05955e-07 0.0005 5.23599e-07 
138 1 0.0202777 0.0171484 0.0155215 0.00145046 0.0312529 0.0161814 -1.21664e-07 4.01299e-09 -2.07667e-07 0.0005 5.23599e-07 
139 1 0.0207758 0.016237 0.0188814 -0.0131048 -0.126399 -0.162031 0 0 -5.1365e-06 0.0005 5.23599e-07 
141 1 0.0188781 0.0227025 0.0140357 0.0483961 0.0166304 -0.023305 0 0 -5.1365e-06 0.0005 5.23599e-07 
142 1 0.0301013 0.0184837 0.0157546 0.00314634 0.0440336 0.00836075 -1.57424e-05 6.64479e-05 -1.3103e-05 0.0005 5.23599e-07 
143 1 0.0245567 0.0194384 0.00584936 6.20359e-14 1.00014e-14 -3.39867e-13 -3.03776e-17 -4.29728e-18 -1.90582e-18 0.0005 5.23599e-07 
144 1 0.021405 0.0176665 0.00743097 0.00276344 -0.025814 0.00557556 0.000122568 2.91394e-06 3.82666e-06 0.0005 5.23599e-07 
145 1 0.0210196 0.0242796 0.0139382 0.000266738 -0.000845028 -4.41562e-05 1.64286e-06 -7.48436e-07 -7.50592e-06 0.0005 5.23599e-07 
146 1 0.0209765 0.0143947 0.013138 0.0149912 0.00527293 0.00119331 -7.91598e-06 4.99499e-06 -1.1745e-05 0.0005 5.23599e-07 
147 1 0.0198914 0.0138926 0.0132478 0.0070099 0.00984395 -0.0194041 1.72906e-06 9.56847e-07 -1.26905e-06 0.0005 5.23599e-07 
148 1 0.025739 0.0185694 0.0159325 -0.00511112 0.0231596 -0.000324976 5.76684e-06 -6.19866e-06 -1.23496e-05 0.0005 5.23599e-07 
149 1 0.024775 0.0219023 0.0160306 -0.0311523 0.0340196 -0.0173585 0 0 -5.1365e-06 0.0005 5.23599e-07 
150 1 0.0228316 0.0179012 0.0168673 -0.0205205 0.00165778 0.00361974 0 0 -5.1365e-06 0.0005 5.23599e-07 
151 1 0.0454623 0.0165053 0.00632503 -6.79298e-15 -3.79543e-14 -2.6134e-13 -6.58833e-20 -6.98802e-21 3.38813e-21 0.0005 5.23599e-07 
152 1 0.0175292 0.0241299 0.0142448 0.00269955 0.00282198 -0.00538492 0 0 -5.1365e-06 0.0005 5.23599e-07 
153 1 0.0183832 0.0235656 0.0143629 0.00826936 5.22067e-05 0.0168986 -6.61332e-06 -6.77943e-06 1.31082e-06 0.0005 5.23599e-07 
154 1 0.0248333 0.0199138 0.0166171 -0.0166255 0.0466931 -0.0475247 0 0 -5.1365e-06 0.0005 5.23599e-07 
155 1 0.0311262 0.0150887 0.0129265 -0.000826248 0.015562 0.0495892 1.23283e-07 2.59392e-07 -1.09608e-08 0.0005 5.23599e-07 
158 1 0.0372285 0.0203986 0.00609172 -4.21109e-15 1.46487e-14 -6.8226e-14 1.58189e-18 -8.95737e-20 -1.21126e-19 0.0005 5.23599e-07 
159 1 0.0239965 0.0221464 0.0152164 -0.0495249 0.0388092 -0.0836221 0 0 -5.1365e-06 0.0005 5.23599e-07 
160 1 0.0155518 0.0228683 0.0151458 -0.0160515 0.02254 -0.0122034 0 0 -5.1365e-06 0.0005 5.23599e-07 
162 1 0.0241479 0.0178124 0.0164424 -0.00423705 0.0623704 0.0234482 5.03631e-07 -1.24308e-06 -4.84654e-06 0.0005 5.23599e-07 
164 1 0.0196825 0.0176926 0.0244933 -0.113686 -0.135019 0.145855 0 0 -5.1365e-06 0.0005 5.23599e-07 
165 1 0.0176332 0.0233829 0.0125017 0.0232395 0.00284984 0.00122649 7.19955e-06 -2.76936e-05 -5.67938e-06 0.0005 5.23599e-07 
166 1 0.021889 0.0238101 0.0137658 0.000653081 -0.000238163 0.000984205 3.59796e-06 7.79081e-07 -4.76493e-06 0.0005 5.23599e-07 
167 1 0.017372 0.0220734 0.0147869 0.0128047 -0.0344609 -0.0300252 0 0 -5.1365e-06 0.0005 5.23599e-07 
168 1 0.0200914 0.0161607 0.0149878 0.0247502 0.00197606 -0.00820575 0 0 -5.1365e-06 0.0005 5.23599e-07 
169 1 0.0231734 0.0234864 0.0151569 0.0534276 0.052749 -0.0371439 0 0 -5.1365e-06 0.0005 5.23599e-07 
170 1 0.0191735 0.0145688 0.0130833 0.0109234 0.0167291 -0.00595457 2.11702e-06 1.73605e-06 -2.38819e-06 0.0005 5.23599e-07 
171 1 0.0165704 0.023965 0.014007 -0.000806018 -0.00447054 -0.0134 0 0 -5.1365e-06 0.0005 5.23599e-07 
172 1 0.0262876 0.0162472 0.00820615 0.0011739 -0.0396706 0.0319968 -6.43109e-07 -1.5782e-06 1.39076e-06 0.0005 5.23599e-07 
173 1 0.0174751 0.0241023 0.0132464 -0.000253256 0.000494045 -0.00893351 1.4402e-05 -3.82113e-05 -1.54443e-05 0.0005 5.23599e-07 
174 1 0.0132249 0.0190503 0.0452942 -0.0422472 0.290069 0.385051 0 0 -5.1365e-06 0.0005 5.23599e-07 
176 1 0.0233891 0.0224392 0.0144633 -0.00844685 -0.0259457 -0.0320488 0 0 -5.1365e-06 0.0005 5.23599e-07 
177 1 0.0280376 0.0230152 0.00968608 0.000361655 -0.0198892 -0.0485351 -4.11852e-09 -2.4022e-07 4.5553e-09 0.0005 5.23599e-07 
178 1 0.089209 0.0204289 0.00606712 -7.39741e-15 -1.35386e-14 8.92923e-14 5.29396e-23 -4.34104e-21 -8.47033e-22 0.0005 5.23599e-07 
180 1 0.0212417 0.0234392 0.0144312 0.00251627 -0.000747789 0.0031831 8.86276e-06 -3.02518e-06 -1.09168e-05 0.0005 5.23599e-07 
182 1 0.0547713 0.0184279 0.005953 5.78837e-15 7.09677e-15 1.04259e-13 3.47125e-19 -4.9292e-19 1.69407e-20 0.0005 5.23599e-07 
183 1 0.0184749 0.0169522 0.0154307 0.00392592 0.0345838 0.0170103 3.63182e-07 -1.55528e-07 3.40772e-07 0.0005 5.23599e-07 
185 1 0.0206017 0.0240566 0.0130581 -0.000404827 -0.000625748 -0.000353172 6.81843e-06 -2.43067e-07 -6.1171e-06 0.0005 5.23599e-07 
187 1 0.0193842 0.0145855 0.012102 0.0105516 0.00210726 0.0240788 7.26883e-06 -5.98491e-06 8.09341e-06 0.0005 5.23599e-07 
188 1 0.0220372 0.0144118 0.0140084 -0.00560598 -0.00579425 0.00670904 1.32915e-05 3.88395e-05 7.67776e-06 0.0005 5.23599e-07 
189 1 0.0163733 0.0224809 0.0157046 0.00485734 -0.0463371 -0.0908268 0 0 -5.1365e-06 0.0005 5.23599e-07 
