ITEM: TIMESTEP
3200000
ITEM: NUMBER OF ATOMS
159
ITEM: BOX BOUNDS ff ff ff
-0.02 0.43
-0.02 0.06
-0.02 0.07
ITEM: ATOMS id type x y z vx vy vz fx fy fz radius mass 
1 1 0.0251977 0.0201601 0.0166947 -0.0209347 -0.00702231 -0.0361149 0 0 -5.1365e-06 0.0005 5.23599e-07 
2 1 0.0195665 0.0228926 0.0150219 0.0469651 -0.129782 0.0415447 0 0 -5.1365e-06 0.0005 5.23599e-07 
3 1 0.0219317 0.0155106 0.0142641 0.0081772 -0.0206529 0.0255584 0 0 -5.1365e-06 0.0005 5.23599e-07 
4 1 0.0236319 0.0225422 0.00904136 0.00612486 -0.00426123 -0.015377 -6.96927e-06 4.94059e-05 3.93631e-05 0.0005 5.23599e-07 
5 1 0.0229024 0.0220367 0.00856583 0.0079239 0.00991287 -0.00590868 -1.86329e-05 -5.1543e-05 -3.83645e-06 0.0005 5.23599e-07 
6 1 0.0592595 0.0187057 0.00589343 6.9861e-15 -1.49666e-14 -1.82203e-13 5.0499e-19 6.41575e-19 -3.30343e-20 0.0005 5.23599e-07 
7 1 0.0221305 0.0148899 0.0132157 0.00676875 -0.00259376 0.00577888 2.56394e-05 1.81223e-05 3.43276e-05 0.0005 5.23599e-07 
9 1 0.0240575 0.0225993 0.0155392 0.00280208 0.0142553 0.0182014 -2.34161e-05 -3.64811e-05 -3.61308e-06 0.0005 5.23599e-07 
10 1 0.0188433 0.0241446 0.01304 -0.017037 0.0710257 0.120135 -0.000228729 0.00256725 -0.00203142 0.0005 5.23599e-07 
11 1 0.0310594 0.0193254 0.0157992 0.00882871 0.0269073 -0.00690131 3.64306e-05 -3.83861e-05 -4.00896e-05 0.0005 5.23599e-07 
13 1 0.0190608 0.0158232 0.0229175 -0.132488 0.197958 0.0971182 0 0 -5.1365e-06 0.0005 5.23599e-07 
14 1 0.0181054 0.0233515 0.0109228 0.0400994 -0.0609879 -0.280138 0.00968417 0.0609406 -0.0496702 0.0005 5.23599e-07 
15 1 0.0208907 0.0148059 0.0146741 0.00744857 0.0113823 -0.00786108 2.16743e-06 5.20487e-06 -2.61936e-06 0.0005 5.23599e-07 
17 1 0.0197254 0.0199023 0.0159415 0.0357852 0.00826071 -0.0673036 0 0 -5.1365e-06 0.0005 5.23599e-07 
19 1 0.0178045 0.0144937 0.0141111 0.00125767 -0.000895588 0.00222547 -1.75061e-06 -4.50356e-07 1.29031e-06 0.0005 5.23599e-07 
20 1 0.0345955 0.0188418 0.00570992 8.70798e-20 -7.24606e-21 3.48289e-20 0 0 0 0.0005 5.23599e-07 
22 1 0.0177831 0.0140942 0.013195 0.00121537 -0.000918692 0.00206606 1.42265e-06 -2.37893e-07 4.91886e-07 0.0005 5.23599e-07 
23 1 0.0182293 0.0239846 0.0145895 -0.0720411 -0.0578032 0.0966587 -7.96352e-06 -4.33334e-05 3.77197e-05 0.0005 5.23599e-07 
24 1 0.0244708 0.0217604 0.0151747 0.00360289 0.00435113 -0.0022294 3.60494e-06 -1.22285e-05 -3.24957e-06 0.0005 5.23599e-07 
25 1 0.0274401 0.0162045 0.00826832 0.000405872 -0.0393134 0.0335633 -6.18382e-09 5.1652e-08 2.30468e-07 0.0005 5.23599e-07 
27 1 0.0266244 0.0147452 0.0114725 0.00338851 -0.00177992 0.021967 1.21682e-05 -7.05979e-06 4.80492e-06 0.0005 5.23599e-07 
28 1 0.0212859 0.0145506 0.0128029 0.0129378 0.0107689 0.00576903 -3.38332e-05 -1.16344e-05 -4.50691e-05 0.0005 5.23599e-07 
29 1 0.021122 0.0224345 0.0164191 -0.02605 -0.00331821 0.0360618 0 0 -5.1365e-06 0.0005 5.23599e-07 
30 1 0.0219522 0.0180898 0.00730841 0.000266194 -0.0509356 0.0103288 -5.83111e-09 -3.24968e-08 2.35061e-07 0.0005 5.23599e-07 
31 1 0.0185789 0.0232961 0.0152234 -0.0251175 -0.0500499 0.0839291 -1.5814e-05 -2.225e-05 2.51963e-05 0.0005 5.23599e-07 
32 1 0.0166951 0.0233981 0.014506 -0.0728626 -0.0498156 0.0470228 3.89148e-05 1.94825e-05 -6.29594e-06 0.0005 5.23599e-07 
34 1 0.0190976 0.0231891 0.0131499 0.0417245 0.0226529 -0.0316118 0.000257884 2.8502e-06 7.55438e-05 0.0005 5.23599e-07 
35 1 0.0287307 0.0214776 0.00788685 0.00432958 -0.0202817 -0.0152805 -3.70569e-06 -3.59932e-05 -1.58694e-05 0.0005 5.23599e-07 
36 1 0.0186469 0.0225365 0.0175976 -0.0441726 0.0295704 0.0235618 0 0 -5.1365e-06 0.0005 5.23599e-07 
37 1 0.0175706 0.0234145 0.0113984 0.137146 2.18419 -0.897924 -0.00366212 0.0481559 0.0469722 0.0005 5.23599e-07 
38 1 0.0209382 0.0241077 0.0142769 0.00320816 -0.00341129 0.0033424 8.58806e-05 -0.000105705 -7.80666e-06 0.0005 5.23599e-07 
40 1 0.0296211 0.0233837 0.0114702 0.000715538 0.00114034 -0.051679 -1.55878e-08 -2.05236e-07 -1.15078e-07 0.0005 5.23599e-07 
41 1 0.0255794 0.0204685 0.01571 0.0014049 0.00176673 -0.000853089 -2.84414e-07 -8.96618e-06 4.04047e-07 0.0005 5.23599e-07 
42 1 0.0171916 0.024039 0.0132001 -0.0173234 -0.00806964 0.00334655 3.00607e-05 -1.61026e-05 8.9525e-05 0.0005 5.23599e-07 
44 1 0.0184578 0.0137303 0.0138434 -0.0207327 0.0109042 0.0308426 -2.41005e-05 -1.58788e-05 -3.305e-05 0.0005 5.23599e-07 
45 1 0.0215834 0.0153107 0.0151913 0.00597334 0.0309328 -0.0216731 0 0 -5.1365e-06 0.0005 5.23599e-07 
46 1 0.0176554 0.0150667 0.0149168 -0.000369555 -0.00105325 0.0019513 -3.50985e-07 2.68538e-06 1.81608e-06 0.0005 5.23599e-07 
47 1 0.0205845 0.0242083 0.0133534 -0.00147299 0.0102261 0.00840438 0.000117845 8.73131e-05 0.000128696 0.0005 5.23599e-07 
49 1 0.0178699 0.0210318 0.0163878 0.0323591 -0.0741536 0.0370608 0 0 -5.1365e-06 0.0005 5.23599e-07 
50 1 0.0196705 0.0229033 0.017626 -0.0506698 0.0522479 -0.0454887 0 0 -5.1365e-06 0.0005 5.23599e-07 
51 1 0.0201453 0.0237652 0.0153835 0.0885111 -0.0299018 0.123666 -2.34341e-05 -2.07972e-05 -4.62314e-05 0.0005 5.23599e-07 
52 1 0.0318818 -0.00306204 0.0327331 0.0327901 -0.143604 -0.459797 0 0 -5.1365e-06 0.0005 5.23599e-07 
53 1 0.0226447 0.0221866 0.0157342 -0.0130471 -0.0139009 0.00300536 0 0 -5.1365e-06 0.0005 5.23599e-07 
54 1 0.0267383 0.0182025 0.00597096 -1.69483e-14 -2.73164e-15 2.76309e-13 -1.05879e-22 1.91906e-22 0 0.0005 5.23599e-07 
55 1 0.0288984 0.0221848 0.00849571 0.00119283 -0.0243023 -0.0224688 -3.24084e-06 8.57917e-07 -3.80189e-06 0.0005 5.23599e-07 
57 1 0.0233358 0.02309 0.00997494 0.00868484 -0.00781151 -0.0273147 2.83064e-05 7.45397e-05 0.000120299 0.0005 5.23599e-07 
59 1 0.0176458 0.0232 0.0147926 -0.0630134 -0.0750662 0.0747573 -3.30022e-05 -5.23042e-05 2.92223e-05 0.0005 5.23599e-07 
60 1 0.022049 0.0213123 0.0162771 0.0186688 0.0255963 0.00681551 0 0 -5.1365e-06 0.0005 5.23599e-07 
61 1 0.029608 0.019721 0.00584316 -8.71372e-15 9.48522e-17 -1.02212e-13 -5.29396e-23 1.12731e-19 0 0.0005 5.23599e-07 
62 1 0.0191498 0.0243171 0.0139544 -0.0492517 -0.0727551 0.147744 0.000118282 -0.000140699 0.000401227 0.0005 5.23599e-07 
63 1 0.0252003 0.0188011 0.016035 0.00726135 0.0110393 0.00130894 1.64091e-07 1.58583e-06 -3.21396e-06 0.0005 5.23599e-07 
64 1 0.0198343 0.02285 0.0138047 0.0145021 0.000650553 0.00219171 -0.00034544 0.000155433 -5.03005e-05 0.0005 5.23599e-07 
65 1 0.00915756 0.0208433 0.0287054 0.183556 -0.0750364 0.0988433 0 0 -5.1365e-06 0.0005 5.23599e-07 
66 1 0.0259137 0.0189462 0.0168032 -0.0252413 -0.00210745 0.0119963 0 0 -5.1365e-06 0.0005 5.23599e-07 
67 1 0.0300012 0.0230687 0.0130199 6.64567e-05 0.0223161 -0.0477154 -2.92525e-08 -1.86653e-07 -1.79603e-07 0.0005 5.23599e-07 
68 1 0.0301952 0.0233302 0.0122437 0.000779801 0.00694299 -0.0493251 -5.44861e-08 -1.87012e-07 -1.67254e-07 0.0005 5.23599e-07 
69 1 0.0276833 0.0170358 0.00765871 0.00324069 -0.036285 0.0185123 -1.5584e-07 -1.31769e-06 1.17312e-06 0.0005 5.23599e-07 
70 1 0.016213 0.0148889 0.013144 3.23289e-05 -0.000510532 -0.0176876 0 0 -5.1365e-06 0.0005 5.23599e-07 
71 1 0.0100052 0.0269218 0.039091 -0.0429732 0.183139 -0.454666 0 0 -5.1365e-06 0.0005 5.23599e-07 
73 1 0.0176156 0.0225805 0.015576 -0.0209314 -0.079911 0.0797913 -9.22375e-06 -3.07979e-05 2.26379e-05 0.0005 5.23599e-07 
74 1 0.0177268 0.023654 0.0156796 -0.00669054 -0.00265294 0.0279465 -6.35859e-06 -3.33141e-07 2.14346e-05 0.0005 5.23599e-07 
75 1 0.0186927 0.021372 0.0152979 0.0164872 -0.061094 0.0304791 1.24154e-06 1.80729e-06 -7.41512e-06 0.0005 5.23599e-07 
78 1 0.0214364 0.0239418 0.0134025 -0.00329366 -0.00561635 -0.0102942 3.42852e-05 1.23204e-05 -7.45119e-05 0.0005 5.23599e-07 
79 1 0.0224608 0.0197816 0.00583582 -1.97597e-15 5.9288e-16 -1.82118e-14 1.05879e-20 2.13643e-18 1.04185e-19 0.0005 5.23599e-07 
81 1 0.0252988 0.0211791 0.0164803 0.0230699 0.0073283 -0.0119597 0 0 -5.1365e-06 0.0005 5.23599e-07 
82 1 0.0187261 0.02273 0.0140199 -0.0053625 0.0171615 -0.0281028 2.29562e-06 1.43859e-05 -1.78925e-06 0.0005 5.23599e-07 
83 1 0.0201117 0.020116 0.0180018 -0.0134922 -0.0649511 0.120581 0 0 -5.1365e-06 0.0005 5.23599e-07 
84 1 0.0187384 0.022331 0.0150183 0.0123777 -0.0472817 0.0607711 6.23822e-06 -2.04089e-05 3.96149e-06 0.0005 5.23599e-07 
85 1 0.0240359 0.0223504 0.0144523 -0.00141289 -0.00216872 -0.00423566 -9.46361e-08 9.2105e-07 3.3372e-07 0.0005 5.23599e-07 
87 1 0.0200417 0.0241712 0.0162912 0.0570032 -0.00221968 0.0790954 -3.16913e-06 -1.25487e-05 3.58859e-05 0.0005 5.23599e-07 
88 1 0.0229313 0.0234373 0.014319 -0.000149618 -0.00276774 0.00200071 -3.7568e-05 1.44504e-05 2.2608e-05 0.0005 5.23599e-07 
90 1 0.0142231 0.02236 0.0148222 -0.0314946 -0.0158464 -0.0961507 0 0 -5.1365e-06 0.0005 5.23599e-07 
92 1 0.0168454 0.0141956 0.0135273 0.000831935 -0.000110093 0.000225263 5.93286e-09 1.87139e-06 -3.33502e-06 0.0005 5.23599e-07 
93 1 0.0256558 0.0195452 0.0159181 0.00270479 0.00548464 -0.00187107 -2.17479e-06 -1.377e-06 4.27037e-06 0.0005 5.23599e-07 
95 1 0.0203036 0.0141427 0.0142104 0.0129512 -0.00609598 -0.000644988 -2.16743e-06 -5.20487e-06 -7.65365e-06 0.0005 5.23599e-07 
96 1 0.0207355 0.0203839 0.016129 0.00383437 -0.118956 0.000371909 0 0 -5.1365e-06 0.0005 5.23599e-07 
97 1 0.0187914 0.0169152 0.0180308 -0.0833557 -0.0600361 -0.0369196 0 0 -5.1365e-06 0.0005 5.23599e-07 
98 1 0.0211582 0.0151469 0.0136211 0.0176661 -0.0172047 0.0133529 -3.42905e-05 -0.00020126 0.000264519 0.0005 5.23599e-07 
101 1 0.0167272 0.0146414 0.0144372 -0.00574296 -0.00847741 -0.0102277 0 0 -5.1365e-06 0.0005 5.23599e-07 
102 1 0.021026 0.0146721 0.0298705 -0.0933588 -0.204937 0.254643 0 0 -5.1365e-06 0.0005 5.23599e-07 
103 1 0.0257365 0.0176687 0.0167409 0.00284336 0.00468186 0.00294495 1.36788e-07 -1.46953e-07 7.23913e-08 0.0005 5.23599e-07 
105 1 0.0205236 0.0231855 0.0146561 0.0167404 -0.0561919 0.0714134 -0.000170681 8.21449e-07 -0.00015103 0.0005 5.23599e-07 
106 1 0.0289359 0.0178655 0.00589895 -8.71365e-15 6.54181e-17 -1.02212e-13 -3.17637e-22 -9.4014e-20 0 0.0005 5.23599e-07 
107 1 0.0196103 0.0216506 0.0156063 0.0291602 -0.0152394 -0.0247852 0 0 -5.1365e-06 0.0005 5.23599e-07 
108 1 0.0247702 0.0209758 0.0156345 0.00836898 0.00874891 -0.000591047 1.47531e-06 -8.09415e-06 -2.85337e-05 0.0005 5.23599e-07 
109 1 0.0225156 0.0145609 0.0142327 -0.00307226 0.00596615 -0.00690345 0 0 -5.1365e-06 0.0005 5.23599e-07 
110 1 0.020373 0.0148762 0.0130523 0.00751764 0.000558736 -0.00726351 -7.65688e-08 6.21209e-07 -5.00143e-06 0.0005 5.23599e-07 
111 1 0.0314158 0.0178502 0.0156356 0.000706958 0.0486849 0.0141079 -2.53847e-08 1.58739e-07 -1.76227e-07 0.0005 5.23599e-07 
112 1 0.0201839 0.0219531 0.0165897 0.00499385 -0.0206234 -0.045166 0 0 -5.1365e-06 0.0005 5.23599e-07 
113 1 0.0184956 0.0232185 0.0162164 -0.0136075 -0.0300959 0.0905963 -2.17504e-06 -1.3552e-05 1.63195e-05 0.0005 5.23599e-07 
114 1 0.0281422 0.0191899 0.00719142 0.00529318 -0.0335446 -0.000379214 -9.17869e-06 2.92826e-05 -1.79294e-05 0.0005 5.23599e-07 
115 1 0.0284981 0.0205552 0.00753178 0.000419486 -0.0456417 -0.0171103 2.716e-08 9.7757e-08 2.24036e-07 0.0005 5.23599e-07 
116 1 0.0148979 0.0231477 0.014768 -0.0762799 -0.0337272 0.0349677 -2.35295e-05 -5.71431e-06 1.32906e-05 0.0005 5.23599e-07 
117 1 0.0193507 0.0235817 0.0120513 0.000185374 -0.0505173 0.0291052 0 0 -5.1365e-06 0.0005 5.23599e-07 
118 1 0.0303407 0.0221955 0.0144008 0.00204101 0.0299991 -0.0354416 -1.76516e-07 6.27532e-08 -2.90715e-07 0.0005 5.23599e-07 
119 1 0.0193108 0.023852 0.014828 0.0228205 -0.0822979 0.142282 -2.97111e-07 -7.84046e-06 -1.66515e-05 0.0005 5.23599e-07 
120 1 0.0205705 0.0145423 0.0121047 0.0023857 0.0109868 -0.00656923 2.52706e-06 -5.11009e-06 2.79319e-05 0.0005 5.23599e-07 
121 1 0.0213854 0.0224954 0.0154415 -0.0176266 -0.000950493 0.00304073 0 0 -5.1365e-06 0.0005 5.23599e-07 
122 1 0.0354862 0.0197731 0.00599028 3.75798e-15 2.1326e-14 -8.26887e-14 -2.67345e-21 4.57398e-20 1.27055e-20 0.0005 5.23599e-07 
123 1 0.0207925 0.0171711 0.015945 0.168927 0.00850942 -0.0396699 0 0 -5.1365e-06 0.0005 5.23599e-07 
124 1 0.0216854 0.0163771 0.0150629 0.000233274 0.021261 0.0239935 0 0 -5.1365e-06 0.0005 5.23599e-07 
125 1 0.0167511 0.0233986 0.0155047 -0.0150156 -0.0356987 0.0511091 0 0 -5.1365e-06 0.0005 5.23599e-07 
126 1 0.0235447 0.0219272 0.0160899 0.0303167 0.00443926 0.00382489 0 0 -5.1365e-06 0.0005 5.23599e-07 
127 1 0.0232363 0.0230776 0.0152185 -0.0159922 -0.0247596 0.0192042 0 0 -5.1365e-06 0.0005 5.23599e-07 
128 1 0.0197238 0.0241832 0.0131421 -0.0194662 0.121406 0.0976652 0.000282808 -0.00026847 0.000623343 0.0005 5.23599e-07 
129 1 0.0176016 0.016801 0.016581 -0.00142327 -0.0184293 0.133548 0 0 -5.1365e-06 0.0005 5.23599e-07 
130 1 0.0221579 0.0237209 0.0138945 -0.00173619 -0.00293804 -0.000588012 -1.27957e-05 4.3614e-05 -4.83231e-05 0.0005 5.23599e-07 
131 1 0.0222575 0.0228849 0.0151112 0.00333262 -0.0106038 0.00386729 0 0 -5.1365e-06 0.0005 5.23599e-07 
132 1 0.0213878 0.0160289 0.00842561 -0.0268597 -0.0838595 0.057043 1.78731e-05 0.000912609 0.000295372 0.0005 5.23599e-07 
133 1 0.0209033 0.0157977 0.0145431 0.00687343 0.00993561 0.00435676 0 0 -5.1365e-06 0.0005 5.23599e-07 
134 1 0.0266422 0.0148472 0.0122131 0.000795225 -0.00429774 0.00460328 -4.1779e-05 -8.59345e-06 -4.92146e-05 0.0005 5.23599e-07 
135 1 0.019805 0.0163365 0.0152105 0.0147531 -0.00581838 -0.0237068 0 0 -5.1365e-06 0.0005 5.23599e-07 
136 1 0.0291772 0.0201744 0.00734106 0.00142676 -0.0296537 -0.00870265 -5.69066e-08 -2.53841e-08 3.35479e-07 0.0005 5.23599e-07 
137 1 0.0254539 0.0178822 0.0158059 0.00779043 0.0128872 0.00359984 1.15513e-06 2.53044e-06 3.56192e-07 0.0005 5.23599e-07 
138 1 0.0177416 0.0233484 0.012125 0.160652 -0.165264 -0.0526286 0.0242814 0.0576925 -0.0230644 0.0005 5.23599e-07 
139 1 0.0199822 0.0237918 0.0140811 0.00235805 -0.0218881 0.104866 3.38583e-05 0.000196775 0.000120367 0.0005 5.23599e-07 
140 1 0.0222954 0.023847 0.0148354 -0.000496689 -0.00155421 0.00256497 -3.88828e-05 5.75814e-05 -3.13709e-05 0.0005 5.23599e-07 
141 1 0.0166309 0.022406 0.0155673 -0.0322978 -0.0396539 0.0465403 0 0 -5.1365e-06 0.0005 5.23599e-07 
142 1 0.0271102 0.0151946 0.00959514 0.000441048 -0.0220667 0.0456501 -1.07092e-08 1.35111e-07 2.18716e-07 0.0005 5.23599e-07 
143 1 0.0202799 0.0222178 0.0146363 0.0216227 -0.0673615 0.0889369 1.45934e-05 3.64636e-05 -1.19594e-05 0.0005 5.23599e-07 
144 1 0.0193508 0.0227409 0.0164235 0.0152431 -0.0209298 0.00320722 0 0 -5.1365e-06 0.0005 5.23599e-07 
145 1 0.0204187 0.0223004 0.0188197 0.0270437 0.135974 0.106204 0 0 -5.1365e-06 0.0005 5.23599e-07 
146 1 0.0172738 0.0217588 0.0160402 -0.020609 -0.0869562 0.0697984 0 0 -5.1365e-06 0.0005 5.23599e-07 
147 1 0.0212761 0.020456 0.017034 0.0687821 -0.08253 0.00135535 0 0 -5.1365e-06 0.0005 5.23599e-07 
148 1 0.02169 0.0142046 0.0146756 -0.00219865 -0.00679597 -0.0279335 0 0 -5.1365e-06 0.0005 5.23599e-07 
149 1 0.0212958 0.0141275 0.0137157 -0.00983685 0.0123922 -0.0142715 0 0 -5.1365e-06 0.0005 5.23599e-07 
150 1 0.0158714 0.022892 0.0150994 -0.019578 -0.0301955 0.0263655 -4.18057e-06 -5.42259e-06 2.40663e-06 0.0005 5.23599e-07 
151 1 0.0454623 0.0165053 0.00632503 -6.93388e-15 -3.80502e-14 -2.61323e-13 -9.8367e-19 -4.00117e-19 8.38563e-20 0.0005 5.23599e-07 
152 1 0.0180586 0.024246 0.0136417 -0.0547635 -0.0529585 0.0929225 3.76025e-05 -7.63425e-05 0.000254223 0.0005 5.23599e-07 
153 1 0.0239964 0.0154031 0.0153272 0.00570421 -0.0115726 -0.0331578 0 0 -5.1365e-06 0.0005 5.23599e-07 
154 1 0.0189248 0.0206397 0.0159388 0.0288336 -0.0667952 0.0322134 0 0 -5.1365e-06 0.0005 5.23599e-07 
155 1 0.0279709 0.0181822 0.00727773 0.000392243 -0.0495526 0.0103164 9.02578e-08 -6.21347e-07 2.94871e-07 0.0005 5.23599e-07 
158 1 0.0372285 0.0203986 0.00609172 -4.82903e-15 1.4672e-14 -6.81814e-14 8.3671e-19 -1.51407e-19 -8.63974e-20 0.0005 5.23599e-07 
159 1 0.0202769 0.0224379 0.0156502 -0.0236984 -0.0123522 -0.0535199 0 0 -5.1365e-06 0.0005 5.23599e-07 
160 1 0.0157191 0.0234894 0.0143123 -0.0713705 -0.0316709 0.0370342 3.9032e-05 2.65003e-05 -2.92257e-06 0.0005 5.23599e-07 
162 1 0.0158561 0.0219745 0.0160331 -0.0853402 -0.0155901 0.0209388 0 0 -5.1365e-06 0.0005 5.23599e-07 
164 1 0.0233157 0.0149248 0.0147444 0.00832333 -0.003303 0.00228241 0 0 -5.1365e-06 0.0005 5.23599e-07 
165 1 0.019224 0.0238317 0.0158265 0.0290569 -0.0576084 0.169857 -2.12546e-06 -3.60915e-06 -8.80814e-06 0.0005 5.23599e-07 
166 1 0.0181001 0.0232441 0.0132768 0.0226845 -0.0158452 -0.00151559 0 0 -5.1365e-06 0.0005 5.23599e-07 
167 1 0.0181242 0.023944 0.0125617 -0.0741456 -0.0348599 0.053143 -0.00157555 -0.0103539 0.0124254 0.0005 5.23599e-07 
168 1 0.0188855 0.0213336 0.0166921 -0.0212977 -0.0195193 -0.0173195 0 0 -5.1365e-06 0.0005 5.23599e-07 
169 1 0.0211129 0.0234583 0.015459 -0.029054 0.00596441 0.0184267 0 0 -5.1365e-06 0.0005 5.23599e-07 
170 1 0.0196865 0.00878771 0.0301533 -0.165645 -0.050239 0.276248 0 0 -5.1365e-06 0.0005 5.23599e-07 
171 1 0.0217768 0.0219691 0.0170148 0.0569073 0.0260393 -0.0710463 0 0 -5.1365e-06 0.0005 5.23599e-07 
172 1 0.0190734 0.0140449 0.0131538 0.00163119 0.0222625 0.0629556 -4.61162e-05 4.39925e-05 3.36876e-05 0.0005 5.23599e-07 
173 1 0.0183887 0.0220779 0.015962 0.0352048 -0.0348365 0.0318396 4.70197e-06 -1.15112e-05 4.13273e-06 0.0005 5.23599e-07 
174 1 0.0230541 0.0227801 0.00929997 0.00466799 -0.0183087 -0.0262522 6.72307e-05 7.13728e-05 6.06075e-05 0.0005 5.23599e-07 
176 1 0.0225418 0.015059 0.0153685 -0.00107826 -0.0088249 -0.00291032 0 0 -5.1365e-06 0.0005 5.23599e-07 
177 1 0.0236244 0.0234125 0.011461 0.00200931 0.00326005 -0.0519742 1.70831e-08 -2.21931e-07 -1.26194e-07 0.0005 5.23599e-07 
178 1 0.089209 0.0204289 0.00606712 -7.39741e-15 -1.35394e-14 8.92922e-14 0 -1.12232e-20 -1.69407e-21 0.0005 5.23599e-07 
180 1 0.0212107 0.0235627 0.0164547 0.0173232 0.0165604 0.0352079 0 0 -5.1365e-06 0.0005 5.23599e-07 
182 1 0.0547713 0.0184279 0.005953 5.29766e-15 7.4219e-15 1.04261e-13 -1.83436e-19 4.83338e-20 6.77626e-21 0.0005 5.23599e-07 
183 1 0.0215018 0.0233288 0.0145407 0.00181291 -0.0107271 0.0197403 -9.29735e-05 -4.0915e-05 2.37699e-05 0.0005 5.23599e-07 
184 1 0.0172758 0.023019 0.0164121 -0.057809 0.0174148 0.0284247 0 0 -5.1365e-06 0.0005 5.23599e-07 
185 1 0.017268 0.0241754 0.0142475 -0.0866912 -0.0363858 0.056134 -6.73983e-05 2.14897e-05 -5.15717e-06 0.0005 5.23599e-07 
186 1 0.0200918 0.0139358 0.0132433 0.00172192 0.00400633 0.00107927 1.72069e-06 -2.09517e-06 -5.67895e-06 0.0005 5.23599e-07 
187 1 0.0211444 0.0152765 0.00943757 0.000740351 -0.0157936 0.0278032 -2.28728e-05 -6.07802e-05 0.000126718 0.0005 5.23599e-07 
188 1 0.0142594 0.0176979 0.0204508 -0.188369 -0.0315149 -0.178953 0 0 -5.1365e-06 0.0005 5.23599e-07 
189 1 0.0201637 0.0153043 0.0139327 0.0143967 -0.0112975 -0.00429259 0 0 -5.1365e-06 0.0005 5.23599e-07 
