ITEM: TIMESTEP
1400000
ITEM: NUMBER OF ATOMS
180
ITEM: BOX BOUNDS ff ff ff
-0.02 0.43
-0.02 0.06
-0.02 0.07
ITEM: ATOMS id type x y z vx vy vz fx fy fz radius mass 
1 1 0.0204018 0.0148407 0.0151321 -0.00193469 0.00142332 -0.008329 2.82977e-06 1.91998e-06 5.1573e-07 0.0005 5.23599e-07 
2 1 0.0172224 0.0240287 0.0131425 -0.000268554 -0.000562078 0.0004079 2.324e-05 -2.5933e-05 1.56872e-05 0.0005 5.23599e-07 
3 1 0.0193773 0.0221827 0.0167637 -0.016455 -0.0133418 0.00545687 -8.72348e-06 1.74259e-06 -8.55706e-06 0.0005 5.23599e-07 
4 1 0.0161174 0.0143678 0.0139999 -0.000567392 0.00683839 -0.00670903 -1.37675e-06 -2.94554e-06 -2.98995e-07 0.0005 5.23599e-07 
5 1 0.0198459 0.023239 0.0104054 -0.52057 6.66486 -1.10487 -0.0232224 -0.272422 0.180486 0.0005 5.23599e-07 
6 1 0.0546579 0.01997 0.0058506 -1.29894e-14 -1.69389e-14 -2.43728e-13 -6.83132e-19 1.74801e-18 -8.72444e-20 0.0005 5.23599e-07 
7 1 0.0205415 0.0239745 0.0163544 0.00231547 -0.000557678 -0.00676426 -9.38399e-06 6.88935e-06 -1.3355e-05 0.0005 5.23599e-07 
9 1 0.0231721 0.0206744 0.0173393 -0.00196323 -0.0527529 0.0759215 0 0 -5.1365e-06 0.0005 5.23599e-07 
10 1 0.019932 0.0231897 0.0162355 -0.000546684 -0.00204546 0.00220635 2.02395e-06 5.11924e-07 -4.71352e-06 0.0005 5.23599e-07 
11 1 0.0271222 0.0210142 0.0153427 0.0063814 0.00897248 -0.00321496 1.17094e-05 -0.000192926 -0.000113748 0.0005 5.23599e-07 
12 1 0.0218502 0.0219738 0.0152869 0.018121 0.0165957 0.00215392 0.000335493 0.00023049 -0.000124257 0.0005 5.23599e-07 
13 1 0.0199278 0.0224992 0.0155109 0.00397549 0.000944901 -0.00325363 -2.23427e-06 2.57968e-05 5.19145e-06 0.0005 5.23599e-07 
14 1 0.0141138 0.0201018 0.0171062 -0.0978618 0.0608407 0.017248 0 0 -5.1365e-06 0.0005 5.23599e-07 
15 1 0.0187345 0.0151466 0.0150191 -0.0148131 -0.00567987 -0.0113441 6.16674e-06 4.80046e-07 6.46517e-05 0.0005 5.23599e-07 
16 1 0.0237035 0.0151787 0.0150489 0.00403446 -0.00175559 0.00133689 1.10645e-05 -1.1493e-05 5.49802e-06 0.0005 5.23599e-07 
17 1 0.0210944 0.0217747 0.0172726 -0.0307503 0.0202519 0.0669135 1.32116e-05 -9.21293e-06 -6.02616e-06 0.0005 5.23599e-07 
19 1 0.0201211 0.022199 0.00854756 -0.00205537 -0.030051 -0.0367917 0.000313942 9.97386e-05 7.24195e-05 0.0005 5.23599e-07 
20 1 0.0345955 0.0188418 0.00570992 8.70798e-20 -7.24606e-21 3.48289e-20 0 0 0 0.0005 5.23599e-07 
21 1 0.0237661 0.017924 0.0162844 0.00133868 -0.00454521 -0.0243536 0 0 -5.1365e-06 0.0005 5.23599e-07 
22 1 0.0153514 0.0212651 0.0153607 -0.00411092 -0.000312073 -0.005506 2.46498e-07 1.53924e-05 -4.54971e-06 0.0005 5.23599e-07 
23 1 0.0185946 0.0201991 0.0201758 -0.131029 0.116858 -0.117187 0 0 -5.1365e-06 0.0005 5.23599e-07 
24 1 0.0161812 0.0217717 0.0150116 0.000793365 0.00484152 -0.00494627 -7.84933e-06 4.85381e-06 -7.94272e-07 0.0005 5.23599e-07 
25 1 0.0224518 0.0226774 0.0141931 0.000481227 -0.0141115 -0.00869439 9.99859e-05 0.000475286 6.54336e-05 0.0005 5.23599e-07 
26 1 0.0187166 0.0237237 0.014629 -0.00829907 0.00351316 -0.000929583 -4.50151e-05 2.54661e-05 -9.87216e-06 0.0005 5.23599e-07 
27 1 0.0163469 0.0209287 0.0155262 0.00492192 0.00794408 -0.00539566 0 0 -5.1365e-06 0.0005 5.23599e-07 
28 1 0.0164189 0.021821 0.0159815 -0.00287766 0.00599909 -0.00346369 -2.22188e-05 -2.81443e-06 -1.67935e-05 0.0005 5.23599e-07 
29 1 0.0233814 0.0154878 0.0141545 0.0051852 0.00457889 0.00406663 -1.17079e-05 7.46148e-06 -8.12556e-06 0.0005 5.23599e-07 
30 1 0.0231471 0.0176503 0.0172812 0.309621 -0.0541309 -0.225073 0 0 -5.1365e-06 0.0005 5.23599e-07 
31 1 0.0230556 0.0171115 0.0160348 0.0368369 -0.055328 -0.0511709 0 0 -5.1365e-06 0.0005 5.23599e-07 
32 1 0.0200536 0.0238185 0.0154664 -0.00461355 -0.00330196 0.00888527 0 0 -5.1365e-06 0.0005 5.23599e-07 
33 1 0.0192619 0.0209609 0.0163947 0.00217393 0.00348833 0.000500757 1.66679e-05 2.16353e-06 2.64573e-06 0.0005 5.23599e-07 
34 1 0.0222728 0.0206822 0.0165811 0.0261605 0.0188711 0.0698814 0 0 -5.1365e-06 0.0005 5.23599e-07 
35 1 0.0224406 0.0154883 0.0144966 0.00831306 0.0171206 0.00979245 0 0 -5.1365e-06 0.0005 5.23599e-07 
36 1 0.0219806 0.0143685 0.0140279 -0.00141408 0.00632937 -0.0131152 0 0 -5.1365e-06 0.0005 5.23599e-07 
37 1 0.0214035 0.0201844 0.0159813 0.0236477 0.0651297 0.00746484 3.8229e-05 -0.000110597 4.17048e-05 0.0005 5.23599e-07 
38 1 0.0149233 0.0220933 0.0157907 -0.0298965 0.00931244 -0.0442048 0 0 -5.1365e-06 0.0005 5.23599e-07 
39 1 0.0193057 0.0221598 0.00856573 -0.000917646 -0.0342807 -0.038908 7.57427e-05 -0.000109132 -0.000151371 0.0005 5.23599e-07 
40 1 0.0247504 0.0198997 0.00727797 0.00188167 -0.0453199 -0.0125356 -4.63186e-05 -6.39506e-05 -6.93238e-06 0.0005 5.23599e-07 
41 1 0.0213238 0.0204946 0.0169304 -0.0402962 0.0135264 0.0682398 0 0 -5.1365e-06 0.0005 5.23599e-07 
42 1 0.0162459 0.016295 0.0149927 0.00983315 0.0135208 0.00794273 -7.81482e-07 -1.62356e-06 8.13488e-07 0.0005 5.23599e-07 
44 1 0.0217556 0.0182596 0.0161644 0.00690724 0.054058 0.030171 -3.13774e-05 -0.000293173 1.87881e-05 0.0005 5.23599e-07 
45 1 0.0203035 0.0144198 0.0139921 -0.00377895 -0.00373914 2.3718e-05 -7.92834e-06 6.43786e-06 -4.57605e-07 0.0005 5.23599e-07 
46 1 0.0179444 0.0141947 0.0128188 0.00164137 0.000725044 -0.00298492 3.37962e-07 5.20456e-07 -3.30059e-06 0.0005 5.23599e-07 
47 1 0.0164802 0.023011 0.0150403 -0.00202948 -0.00333206 -0.000531721 -4.87413e-07 -5.1607e-06 1.54188e-05 0.0005 5.23599e-07 
48 1 0.0251763 0.0214521 0.0167161 0.316281 -0.684141 -0.0330487 0 0 -5.1365e-06 0.0005 5.23599e-07 
49 1 0.0166266 0.015156 0.0136546 0.00930314 0.00767254 0.00851876 8.86835e-07 1.94826e-06 -4.2029e-06 0.0005 5.23599e-07 
50 1 0.0147105 0.0226495 0.014134 0.01051 0.00124508 -0.0116065 -4.78339e-06 1.23007e-06 -2.58759e-06 0.0005 5.23599e-07 
51 1 0.0223084 0.0237768 0.0176001 -0.00736832 0.0122072 0.027893 2.54842e-06 -6.25763e-06 9.90796e-06 0.0005 5.23599e-07 
52 1 0.0187746 0.0199918 0.00728392 0.00324056 -0.0392541 -0.00892114 5.97181e-06 2.27788e-05 6.03243e-06 0.0005 5.23599e-07 
53 1 0.0241968 0.0174229 0.00750126 8.79948e-05 -0.0510057 0.0155751 -1.44862e-06 -2.45659e-06 1.03577e-06 0.0005 5.23599e-07 
54 1 0.0229137 0.0146055 0.0146034 -0.00239092 0.00151733 -0.00535957 0 0 -5.1365e-06 0.0005 5.23599e-07 
55 1 0.0253964 0.0203611 0.0166819 0.183658 -0.849406 -0.0205462 0 0 -5.1365e-06 0.0005 5.23599e-07 
57 1 0.0204934 0.0234113 0.0146537 0.00368572 0.0146347 0.0116723 -5.10358e-05 -0.000610153 -5.98122e-06 0.0005 5.23599e-07 
59 1 0.0237627 0.0159542 0.00851528 0.000692079 -0.0350051 0.0298172 2.47522e-06 5.36467e-06 -6.251e-06 0.0005 5.23599e-07 
60 1 0.0176817 0.0151776 0.0142565 7.14339e-05 0.00510882 0.00213322 -9.23101e-07 -1.19451e-06 -2.63127e-06 0.0005 5.23599e-07 
61 1 0.0201708 0.0173204 0.0186349 0.0301275 -0.122885 -0.261354 0 0 -5.1365e-06 0.0005 5.23599e-07 
62 1 0.0155918 0.0227402 0.01541 -0.000984867 -0.00268058 -0.000731897 4.68363e-06 -6.16948e-06 -3.7991e-07 0.0005 5.23599e-07 
63 1 0.0220632 0.0169674 0.0158034 0.00901064 0.0311059 0.0172286 0 0 -5.1365e-06 0.0005 5.23599e-07 
64 1 0.017019 0.0223556 0.0165917 -0.00169374 -0.00497009 0.00159893 -8.57806e-07 -6.50424e-07 -3.93217e-06 0.0005 5.23599e-07 
65 1 0.0247315 0.0219045 0.0158449 -0.000863824 -0.012088 0.00244643 3.61527e-05 -0.00249224 0.00072428 0.0005 5.23599e-07 
66 1 0.022675 0.0150712 0.0134823 0.0153462 0.00232103 0.00750874 0 0 -5.1365e-06 0.0005 5.23599e-07 
67 1 0.0258972 0.0233676 0.0108505 0.00339822 -0.00277928 -0.0357816 -3.3238e-08 -3.91322e-07 1.06429e-07 0.0005 5.23599e-07 
68 1 0.0238756 0.0161731 0.0148887 5.82496e-05 -0.00722958 -0.00995718 2.75298e-09 -6.9333e-07 -2.74935e-06 0.0005 5.23599e-07 
69 1 0.0221287 0.0211371 0.0156906 -0.00824896 0.0537156 0.105058 -0.000237896 6.37881e-05 -2.85101e-05 0.0005 5.23599e-07 
70 1 0.0169445 0.014196 0.0134619 0.00015643 0.00167147 -0.00490508 -1.27121e-06 7.44199e-08 7.73217e-06 0.0005 5.23599e-07 
71 1 0.0177662 0.0160358 0.0147625 0.00974791 0.00408785 0.00462161 -2.62516e-07 -1.43272e-06 2.59994e-06 0.0005 5.23599e-07 
72 1 0.0171688 0.0146384 0.0121628 0.00166957 0.00082149 -0.00413527 6.13962e-07 1.039e-06 -3.65116e-06 0.0005 5.23599e-07 
73 1 0.0235342 0.0190665 0.0163002 -0.000897391 0.0510148 -0.00564705 -7.77992e-05 0.000161687 -0.000212057 0.0005 5.23599e-07 
74 1 0.0185587 0.0185128 0.00720312 -0.00157503 -0.0388444 0.00187745 -7.42401e-07 -2.53471e-06 1.3624e-06 0.0005 5.23599e-07 
75 1 0.0241845 0.0192705 0.0172008 0.0362964 -0.0197449 -0.0149739 0 0 -5.1365e-06 0.0005 5.23599e-07 
76 1 0.02164 0.0152289 0.0151956 -0.0227066 -0.0103951 -0.019628 0 0 -5.1365e-06 0.0005 5.23599e-07 
77 1 0.0160231 0.0224821 0.0143262 0.00332262 0.00290383 -0.00943185 5.64728e-06 5.50273e-07 4.13909e-06 0.0005 5.23599e-07 
78 1 0.0164874 0.0237915 0.0137774 -0.00634237 -0.00454863 -0.00775467 -4.84696e-07 2.60396e-06 4.69262e-06 0.0005 5.23599e-07 
79 1 0.0221288 0.0196424 0.00587564 0.0511813 0.0438314 -0.0511157 0 0 -5.1365e-06 0.0005 5.23599e-07 
80 1 0.0243021 0.0224911 0.0161146 -0.000454994 -0.0239803 0.0497961 -0.00273698 -0.00410327 7.26674e-05 0.0005 5.23599e-07 
81 1 0.0210643 0.0137602 0.0141678 -0.00310058 0.00141667 -0.0030814 4.92855e-06 -6.27707e-06 1.1762e-05 0.0005 5.23599e-07 
82 1 0.0209315 0.0220054 0.0154026 0.0166879 0.019564 0.00353733 0.000342997 -8.2111e-05 0.000155961 0.0005 5.23599e-07 
83 1 0.0218511 0.0212577 0.0176823 -0.0442493 -0.0192159 0.0583605 0 0 -5.1365e-06 0.0005 5.23599e-07 
84 1 0.0206808 0.0211535 0.016517 0.00792007 -0.000454768 0.0129979 0 0 -5.1365e-06 0.0005 5.23599e-07 
85 1 0.0185085 0.0146183 0.0142016 -0.00793981 -0.00637218 -0.00967515 -4.93608e-06 -1.65888e-06 -5.36926e-05 0.0005 5.23599e-07 
86 1 0.0186679 0.0227904 0.0164024 -0.00566384 -0.00290097 -0.000950461 -5.22548e-06 1.0359e-05 9.02526e-06 0.0005 5.23599e-07 
87 1 0.0226573 0.0190181 0.0173118 -0.0183955 0.0324691 0.00249153 0 0 -5.1365e-06 0.0005 5.23599e-07 
88 1 0.0183833 0.021388 0.016184 -0.00415896 0.00418029 -0.000769094 -4.01516e-06 3.8113e-05 1.97887e-05 0.0005 5.23599e-07 
89 1 0.0215655 0.0233685 0.0125518 0.00966073 -0.00831249 -0.0104465 -0.000237438 -0.000258454 3.27936e-05 0.0005 5.23599e-07 
90 1 0.0235677 0.0153885 0.00923398 0.000702258 -0.0266226 0.0422537 -1.52714e-06 6.96808e-07 4.33435e-06 0.0005 5.23599e-07 
92 1 0.0208839 0.0140982 0.0132444 0.000503975 -0.0013206 -0.00266822 4.47162e-06 -2.33629e-07 -2.51189e-05 0.0005 5.23599e-07 
93 1 0.0182798 0.0240833 0.0130082 -9.71194e-05 0.000454683 -0.000746854 -1.51312e-06 6.71392e-07 -7.35915e-06 0.0005 5.23599e-07 
94 1 0.0193409 0.0142999 0.0137486 -0.00419664 -0.00471092 -0.000268133 -3.49257e-06 -2.85743e-06 -1.07638e-05 0.0005 5.23599e-07 
95 1 0.0211548 0.0210759 0.0156365 0.00195188 0.0408855 0.0173569 2.05888e-05 0.000276334 -0.000223446 0.0005 5.23599e-07 
96 1 0.0199215 0.0140126 0.0129873 -0.000500359 -0.00121051 0.00149454 4.45264e-07 3.18192e-06 -3.67335e-06 0.0005 5.23599e-07 
97 1 0.0216161 0.0215517 0.0164413 -0.0309152 0.0655455 0.0689801 -6.37607e-05 7.10942e-05 2.32218e-05 0.0005 5.23599e-07 
98 1 0.0199355 0.0216677 0.0160715 -0.000989593 0.000994174 0.00462781 -1.25257e-06 2.5154e-05 9.27873e-06 0.0005 5.23599e-07 
100 1 0.0238935 0.0227056 0.0152654 0.00167271 -0.122865 0.00896274 -0.000956897 -0.00373525 -0.000276356 0.0005 5.23599e-07 
101 1 0.022121 0.0227361 0.0160163 -0.0216395 0.0486721 0.0193842 -1.28537e-05 2.35656e-05 -2.35707e-05 0.0005 5.23599e-07 
102 1 0.0235244 0.0218784 0.0159703 0.013823 -0.0176147 0.106864 -2.38167e-06 1.33157e-06 -5.11019e-06 0.0005 5.23599e-07 
103 1 0.0183432 0.0137947 0.013644 0.0108237 0.000214345 -0.00749858 3.40397e-07 1.679e-06 -2.52143e-06 0.0005 5.23599e-07 
104 1 0.021857 0.0224368 0.0171695 0.0106956 -0.0115 -0.0295041 0 0 -5.1365e-06 0.0005 5.23599e-07 
105 1 0.0185293 0.022875 0.0151232 0.000924876 0.00155214 0.00249838 -6.7097e-07 9.8214e-06 3.68699e-06 0.0005 5.23599e-07 
106 1 0.0224538 0.0196339 0.0162494 0.00639187 0.0279362 0.0280675 -0.00060461 -3.45098e-05 -0.000132909 0.0005 5.23599e-07 
107 1 0.0229786 0.0225598 0.0154719 -0.00484758 0.0232011 -0.00704408 7.37998e-05 4.76176e-05 -0.000665455 0.0005 5.23599e-07 
108 1 0.0185476 0.0240353 0.0163097 -0.000554915 0.00133659 0.00234874 -1.02634e-06 -4.21331e-08 -4.39418e-06 0.0005 5.23599e-07 
109 1 0.0207583 0.0225035 0.0146126 0.0219215 -0.0051342 0.020472 7.32002e-05 -0.000193209 -0.000276744 0.0005 5.23599e-07 
110 1 0.0212398 0.0196019 0.017753 -0.0563405 -0.0203562 0.0277418 0 0 -5.1365e-06 0.0005 5.23599e-07 
111 1 0.0275802 0.0188262 0.0158549 0.00223414 0.0430299 0.00160045 5.36945e-06 0.000101924 -1.36473e-05 0.0005 5.23599e-07 
112 1 0.0211469 0.0147075 0.014478 -0.00271714 0.00467887 -0.0096359 1.23731e-06 -2.79705e-05 3.81958e-05 0.0005 5.23599e-07 
113 1 0.0207471 0.0196816 0.0167582 0.0192034 0.0120871 -0.00190489 0 0 -5.1365e-06 0.0005 5.23599e-07 
114 1 0.0226548 0.0219829 0.0148254 0.00698497 0.00971417 -0.000333458 -0.0001707 -0.000458856 0.000257535 0.0005 5.23599e-07 
115 1 0.0222755 0.0162819 0.0150845 0.0139849 0.0261625 0.00172911 0 0 -5.1365e-06 0.0005 5.23599e-07 
116 1 0.0190603 0.0220909 0.0158056 -0.00490619 0.000983008 -0.0057121 5.96972e-06 1.20947e-05 -4.92847e-06 0.0005 5.23599e-07 
117 1 0.0198862 0.0212612 0.0171152 -0.00780119 0.0319429 0.00688471 8.35312e-06 -3.9644e-06 7.34665e-06 0.0005 5.23599e-07 
118 1 0.026161 0.0233479 0.0119791 0.00155749 0.0085788 -0.054473 -3.52888e-07 4.19248e-07 8.88049e-07 0.0005 5.23599e-07 
119 1 0.0197112 0.0240112 0.0145334 -0.0011568 0.0115366 0.000993784 0.000110829 9.92966e-06 -4.08134e-05 0.0005 5.23599e-07 
120 1 0.0213409 0.0234586 0.015887 -0.00250183 -0.00222026 -0.0141699 0 0 -5.1365e-06 0.0005 5.23599e-07 
121 1 0.0175396 0.0149801 0.0132868 0.00540005 -0.000582148 0.00286834 1.36404e-06 -1.84074e-06 -1.66366e-06 0.0005 5.23599e-07 
122 1 0.0233374 0.0200027 0.0160544 -0.0037396 0.0534107 0.0152938 -0.000175758 0.000220642 -2.06409e-05 0.0005 5.23599e-07 
123 1 0.0215631 0.0192335 0.0161947 0.00323369 0.0503097 0.014778 -2.33073e-05 -7.3817e-05 0.000126467 0.0005 5.23599e-07 
124 1 0.0173842 0.0215761 0.0160667 -0.00728284 -0.00052035 -0.0112425 2.28629e-05 1.53528e-05 2.7477e-05 0.0005 5.23599e-07 
125 1 0.0192449 0.0234354 0.0169283 -0.000251424 -0.00232368 -0.00152077 1.89942e-08 3.83672e-08 -5.14225e-06 0.0005 5.23599e-07 
126 1 0.019308 0.0241054 0.012824 -0.00417693 0.0026056 -0.000898476 -8.0507e-05 5.14295e-05 -0.000207157 0.0005 5.23599e-07 
127 1 0.0230081 0.0233831 0.0144126 -0.00802064 -0.0089952 0.0016633 -0.000336883 0.000266882 0.000138135 0.0005 5.23599e-07 
128 1 0.0182366 0.0243141 0.0139853 -0.00641413 0.000833275 -0.000126427 -7.98763e-06 5.25671e-05 2.99766e-05 0.0005 5.23599e-07 
129 1 0.0206232 0.0242083 0.0141421 -0.00210553 0.00151042 -0.00285782 0.000126355 -7.21438e-05 -0.000330397 0.0005 5.23599e-07 
130 1 0.0208936 0.0240848 0.0131964 -0.0050909 0.00828973 1.32506e-05 0.000193064 0.000201458 5.41875e-05 0.0005 5.23599e-07 
131 1 0.0205042 0.0233222 0.0171109 -0.0201733 0.00455521 -0.000616247 -9.77266e-10 -1.43067e-05 7.65378e-06 0.0005 5.23599e-07 
132 1 0.0232981 0.0234475 0.015334 -0.00635036 0.00665926 -0.0190526 -0.000575444 -4.02824e-05 -0.000798804 0.0005 5.23599e-07 
133 1 0.0205322 0.0215314 0.00798792 -0.000452658 -0.0321887 -0.0218753 -0.000202582 -0.000145306 -0.000146828 0.0005 5.23599e-07 
134 1 0.021348 0.0238367 0.0148247 -0.000666906 0.0194265 -0.00143698 5.26332e-05 -0.000373127 -0.000140298 0.0005 5.23599e-07 
135 1 0.019556 0.0241277 0.0162773 0.00122413 0.00141638 0.00289822 2.74631e-06 6.02727e-08 -4.31754e-06 0.0005 5.23599e-07 
136 1 0.0223302 0.0231726 0.0131669 0.000767668 0.0007534 0.00504546 -6.2279e-05 -6.49746e-05 -6.73292e-07 0.0005 5.23599e-07 
137 1 0.0168606 0.0157141 0.0144506 0.00495721 0.0113423 0.00821501 -3.57424e-06 -1.57686e-07 2.35594e-06 0.0005 5.23599e-07 
138 1 0.0151993 0.0220672 0.0147833 0.00147811 -0.000471725 -0.00388462 -7.41635e-07 4.28446e-06 -1.22169e-07 0.0005 5.23599e-07 
139 1 0.0236234 0.0214821 0.0178599 -0.0247649 -0.0246244 0.0887952 0 0 -5.1365e-06 0.0005 5.23599e-07 
140 1 0.0189507 0.0209847 0.00767321 0.00027694 -0.0448886 -0.0215238 -1.47692e-08 -2.18151e-07 1.4231e-07 0.0005 5.23599e-07 
141 1 0.0200462 0.0203817 0.0166204 0.0198407 0.0147022 -0.00518864 0 0 -5.1365e-06 0.0005 5.23599e-07 
142 1 0.0222278 0.0231834 0.0151287 -0.0342642 -0.000689082 -0.00779145 4.07166e-06 1.46203e-05 -1.40385e-05 0.0005 5.23599e-07 
143 1 0.021536 0.0228549 0.0142378 0.00194776 0.000582196 -0.0090232 0.000358142 -0.000222938 -0.000644666 0.0005 5.23599e-07 
144 1 0.0154543 0.0203696 0.015793 -0.00358757 -0.00640901 -0.0159908 1.53389e-06 -5.5003e-06 4.00649e-06 0.0005 5.23599e-07 
145 1 0.0206227 0.022855 0.0137615 0.0224636 -0.0139211 0.00276954 -0.00032184 -7.90815e-06 -0.000470262 0.0005 5.23599e-07 
146 1 0.0211664 0.0225256 0.0162265 -0.0149407 0.0113122 0.0184353 -8.34979e-07 3.27166e-07 -4.93539e-06 0.0005 5.23599e-07 
147 1 0.024236 0.0203621 0.0166181 -0.00859226 0.0163537 -0.00571051 0 0 -5.1365e-06 0.0005 5.23599e-07 
148 1 0.0177931 0.0143472 0.0148457 -0.033808 -0.0191819 -0.0368965 0 0 -5.1365e-06 0.0005 5.23599e-07 
149 1 0.0197643 0.0207345 0.00756518 0.000124306 -0.0467864 -0.0196519 -1.12558e-08 -1.77535e-07 1.38944e-07 0.0005 5.23599e-07 
150 1 0.0180714 0.0222168 0.0157204 -0.000584625 0.00217964 0.00188624 -1.25953e-05 1.84023e-05 6.80117e-06 0.0005 5.23599e-07 
151 1 0.0454623 0.0165053 0.00632503 -2.47227e-06 -1.39006e-05 2.63132e-06 4.12154e-09 2.24221e-08 -2.90632e-09 0.0005 5.23599e-07 
152 1 0.0148794 0.0232452 0.0149235 0.00152277 0.000571586 -0.000858815 -2.92222e-07 -6.14867e-06 -9.03284e-07 0.0005 5.23599e-07 
153 1 0.0171149 0.0224837 0.0156046 -0.00204342 -0.00153725 0.00117873 1.00591e-05 -1.70556e-06 -4.78806e-06 0.0005 5.23599e-07 
154 1 0.0225056 0.0231719 0.0168291 -0.00796113 0.0196141 0.0231383 1.71331e-06 5.58356e-05 2.35986e-05 0.0005 5.23599e-07 
155 1 0.0230541 0.0209226 0.0159098 -0.0134968 0.0869692 0.205709 -0.000295697 0.000268298 0.000178727 0.0005 5.23599e-07 
157 1 0.0213963 0.0237997 0.0169171 -0.0203949 -0.0040204 -0.0364698 -2.83593e-07 -1.42909e-06 -3.80791e-06 0.0005 5.23599e-07 
158 1 0.0226484 0.0186383 0.0163308 0.0203523 0.0388464 0.0130603 -4.33327e-05 0.000214853 -1.49338e-05 0.0005 5.23599e-07 
159 1 0.0200709 0.0234388 0.0115075 0.00329566 -0.000887371 -0.0340514 2.14739e-07 -4.99796e-07 -2.39513e-06 0.0005 5.23599e-07 
160 1 0.0177039 0.0230102 0.0162421 -0.00797915 -0.00465572 -0.00223752 0 0 -5.1365e-06 0.0005 5.23599e-07 
162 1 0.0190944 0.0234214 0.0157409 0.000961961 0.00119764 0.00256723 6.08985e-06 -7.79102e-06 -4.86999e-06 0.0005 5.23599e-07 
163 1 0.0206747 0.0232215 0.012916 0.00908165 0.00532688 -0.00783911 0.000150214 3.0795e-07 0.000193681 0.0005 5.23599e-07 
164 1 0.0174978 0.023653 0.0140201 -0.00332727 -0.00531214 0.000320638 1.83313e-05 -2.83187e-05 4.81456e-05 0.0005 5.23599e-07 
165 1 0.0163195 0.0228619 0.016085 0.0016031 -0.00163147 -0.00222724 3.61983e-07 1.38791e-07 -5.06124e-06 0.0005 5.23599e-07 
166 1 0.0195662 0.0147995 0.0145847 -0.00647173 -0.00121561 -1.25792e-05 -1.45802e-06 4.38865e-06 2.18168e-08 0.0005 5.23599e-07 
167 1 0.0141499 0.0226993 0.0153345 0.00120347 0.00185781 0.00289439 -2.97184e-06 -9.7112e-06 -1.66677e-06 0.0005 5.23599e-07 
168 1 0.0166051 0.0237005 0.0165524 -0.00103612 -0.0010017 0.00213864 -1.87942e-06 -5.68315e-07 2.16101e-06 0.0005 5.23599e-07 
169 1 0.0192008 0.0244052 0.0137746 0.000325857 -0.000913582 0.00630422 -0.000138661 -0.00011423 7.19679e-05 0.0005 5.23599e-07 
170 1 0.015758 0.0235735 0.0144258 -0.0017273 -0.00280832 -0.00491116 -1.72369e-06 1.70063e-06 -3.27664e-06 0.0005 5.23599e-07 
171 1 0.0180459 0.0236438 0.0155374 -0.00229027 0.000372808 0.00571093 -5.32522e-06 1.5826e-05 9.24517e-06 0.0005 5.23599e-07 
172 1 0.021584 0.0239784 0.0138479 -0.006606 -0.00689197 0.00290975 5.72477e-05 -3.60513e-05 0.000182586 0.0005 5.23599e-07 
173 1 0.00927107 0.00827595 0.0410661 -0.00944538 0.0988142 -0.118129 0 0 -5.1365e-06 0.0005 5.23599e-07 
174 1 0.0222692 0.0239767 0.0145146 -0.00144827 -0.00523472 -0.00951283 -0.000274366 4.67823e-06 -0.000841204 0.0005 5.23599e-07 
175 1 0.0175567 0.0239833 0.0164327 -0.00103854 0.000295727 -0.00213818 -3.21423e-06 -3.30597e-07 1.15506e-07 0.0005 5.23599e-07 
176 1 0.0231434 0.0223937 0.0168358 0.0206402 0.060541 0.0950222 -1.21861e-05 -3.00651e-05 2.01753e-05 0.0005 5.23599e-07 
177 1 0.0199923 0.0239215 0.013467 -0.00876671 -0.000206709 -0.00226387 -6.72573e-05 0.000260089 -0.000239771 0.0005 5.23599e-07 
178 1 0.089209 0.0204289 0.00606712 -7.39741e-15 -1.34976e-14 8.92985e-14 0 1.48231e-20 1.69407e-21 0.0005 5.23599e-07 
180 1 0.0189397 0.0140943 0.0128139 0.00290072 0.0109208 -0.0183502 -1.63953e-07 1.79802e-06 -2.31556e-06 0.0005 5.23599e-07 
181 1 0.0175237 0.0230801 0.0148394 -0.000227199 0.000879369 -0.000544961 -1.84058e-08 -3.90115e-07 -6.09777e-06 0.0005 5.23599e-07 
182 1 0.0203741 0.0222574 0.016775 -0.0125599 -6.72091e-05 0.0207834 -4.48813e-06 7.47034e-06 -8.26289e-07 0.0005 5.23599e-07 
183 1 0.0155089 0.0230014 0.0136445 0.0104501 0.00393294 -0.01076 -2.13693e-05 -2.34246e-05 2.83367e-05 0.0005 5.23599e-07 
184 1 0.0232444 0.0148568 0.0106762 0.000306143 -0.0160204 0.0492909 -3.15331e-07 3.48213e-07 -1.39333e-06 0.0005 5.23599e-07 
185 1 0.0225577 0.0218624 0.0162255 0.00118029 0.0710519 0.0822294 -6.36696e-05 7.9183e-05 2.32135e-05 0.0005 5.23599e-07 
186 1 0.0194657 0.0231111 0.0148658 -0.00340537 0.0109198 -0.00410347 8.52848e-05 1.93998e-05 3.35655e-05 0.0005 5.23599e-07 
187 1 0.020242 0.023922 0.012507 0.00610077 0.0086965 -0.00908505 0.000270163 -6.8329e-05 0.000174696 0.0005 5.23599e-07 
188 1 0.0181438 0.0146235 0.011935 0.00279477 0.00316843 -0.00635914 -1.91692e-06 6.41874e-06 4.98329e-06 0.0005 5.23599e-07 
189 1 0.0168775 0.0238849 0.0147634 -0.00327258 -0.0016436 0.00033283 7.72697e-06 -3.65683e-06 2.64996e-05 0.0005 5.23599e-07 
190 1 0.0170562 0.0235228 0.0156781 0.000852681 -0.00362077 0.000722663 1.79639e-06 -1.37297e-06 -8.27958e-06 0.0005 5.23599e-07 
