ITEM: TIMESTEP
600000
ITEM: NUMBER OF ATOMS
190
ITEM: BOX BOUNDS ff ff ff
-0.02 0.43
-0.02 0.06
-0.02 0.07
ITEM: ATOMS id type x y z vx vy vz fx fy fz radius mass 
1 1 0.0204119 0.0146 0.0119882 0.00106687 0.0338794 0.0137836 0 0 -5.1365e-06 0.0005 5.23599e-07 
2 1 0.0162458 0.0237222 0.0140096 0.0113892 -0.00349669 -0.00879116 -4.59961e-06 1.99457e-05 -5.18199e-06 0.0005 5.23599e-07 
3 1 0.0256666 0.0194298 0.0159315 -0.00150827 -0.000209297 0.00415002 -5.73137e-06 -7.7784e-05 2.3407e-06 0.0005 5.23599e-07 
4 1 0.0207777 0.0183767 0.00724595 0.000480331 -0.05079 0.00774562 -7.17281e-08 -2.29218e-07 2.1327e-07 0.0005 5.23599e-07 
5 1 0.0237797 0.0200143 0.0178826 -0.0801483 0.0650157 0.0078638 4.45307e-05 7.22428e-05 0.000123017 0.0005 5.23599e-07 
6 1 0.0546579 0.01997 0.0058506 3.34885e-12 3.64876e-12 -2.31527e-13 -1.11282e-14 -9.58202e-15 2.66521e-16 0.0005 5.23599e-07 
7 1 0.0221222 0.0224055 0.0155495 0.00407109 0.0100968 -0.0113993 0 0 -5.1365e-06 0.0005 5.23599e-07 
8 1 0.0241172 0.0181188 0.0161745 0.00627076 0.0340024 0.0300745 -3.67482e-05 0.000229174 2.67981e-05 0.0005 5.23599e-07 
9 1 0.0217474 0.0222532 0.0086993 0.000906229 -0.0336258 -0.0349298 -4.53723e-08 -2.6055e-07 4.74207e-08 0.0005 5.23599e-07 
10 1 0.0188076 0.0157488 0.0145109 0.0127952 -0.0116476 0.00855413 0 0 -5.1365e-06 0.0005 5.23599e-07 
11 1 0.0255375 0.020361 0.0161037 0.00227282 0.00299791 0.00446908 5.26957e-05 -4.20921e-05 -3.89731e-05 0.0005 5.23599e-07 
12 1 0.0249508 0.0201355 0.0169428 -0.00528397 -0.00178889 -0.0115481 5.29848e-05 5.41827e-05 2.36101e-05 0.0005 5.23599e-07 
13 1 0.0249906 0.01821 0.0161015 0.00535577 0.0218368 0.0287942 3.68219e-05 5.14146e-05 0.000157838 0.0005 5.23599e-07 
14 1 0.0211446 0.0198764 0.007305 -5.54598e-05 -0.0521596 -0.013993 2.01049e-08 -1.2131e-07 1.86343e-07 0.0005 5.23599e-07 
15 1 0.0258191 0.0184777 0.0159058 0.00188487 0.00244905 0.00108995 -1.27844e-05 -8.56075e-05 4.45189e-05 0.0005 5.23599e-07 
16 1 0.0231606 0.0148294 0.0146392 -0.0106283 -0.00800721 -0.00476931 2.11976e-07 -1.3109e-06 -2.21949e-06 0.0005 5.23599e-07 
17 1 0.022803 0.023003 0.00973187 -0.0614203 0.134795 -0.0357522 0.00126821 -0.00183375 0.00621737 0.0005 5.23599e-07 
18 1 0.024336 0.0173462 0.0156569 0.00507728 0.0373262 0.0169972 -5.23828e-05 0.000245246 0.000226652 0.0005 5.23599e-07 
19 1 0.0177092 0.0204268 0.0162549 0.00146506 0.0576789 -0.0197747 7.71859e-07 2.50894e-07 -4.46421e-06 0.0005 5.23599e-07 
20 1 0.0345955 0.0188418 0.00570992 -4.37347e-17 3.60288e-18 -4.60191e-19 -1.55063e-18 1.95876e-19 -1.86347e-20 0.0005 5.23599e-07 
21 1 0.0257474 0.0209064 0.0168883 0.00212813 0.0015161 0.000904912 2.25429e-05 3.15102e-05 2.98213e-05 0.0005 5.23599e-07 
22 1 0.0234231 0.0215817 0.0152848 0.00735539 0.00427354 -0.00263596 3.51741e-06 -6.38598e-06 3.47204e-05 0.0005 5.23599e-07 
23 1 0.0252582 0.0174189 0.0156209 0.00948602 0.0207412 0.0102459 -8.31068e-06 0.00011473 9.01207e-05 0.0005 5.23599e-07 
24 1 0.0185912 0.0165151 0.0151721 0.0155788 0.000648937 0.00580512 0 0 -5.1365e-06 0.0005 5.23599e-07 
25 1 0.0191917 0.0148349 0.0129492 0.00707018 -0.0175532 -0.00465102 0 0 -5.1365e-06 0.0005 5.23599e-07 
26 1 0.0188146 0.0236479 0.0141494 0.00466072 0.00568941 0.0104298 -2.86929e-05 2.42473e-05 -1.82353e-05 0.0005 5.23599e-07 
27 1 0.0246004 0.0218784 0.0155459 0.00113097 -0.000112912 0.000371899 2.40361e-05 5.36838e-06 1.47064e-06 0.0005 5.23599e-07 
28 1 0.0190851 0.0212074 0.0164131 -0.00169059 -0.000663089 -0.0587259 0 0 -5.1365e-06 0.0005 5.23599e-07 
29 1 0.0192727 0.0219097 0.0149223 0.00150766 0.034562 -0.0311951 -1.08458e-05 -1.97045e-05 3.09454e-06 0.0005 5.23599e-07 
30 1 0.0192691 0.0180884 0.0158536 0.00319985 0.0254804 -0.00230663 0 0 -5.1365e-06 0.0005 5.23599e-07 
31 1 0.0186505 0.0232989 0.0126816 0.0139589 0.016128 0.0173251 3.20805e-05 -0.000892782 0.000743747 0.0005 5.23599e-07 
32 1 0.0181693 0.0183549 0.0158891 -0.0193629 0.0546666 -0.0215194 2.2385e-05 -2.15763e-05 4.3822e-05 0.0005 5.23599e-07 
33 1 0.016834 0.0234226 0.0125722 0.00424304 0.00636786 0.00201318 -1.8165e-05 -3.44054e-05 -6.27452e-05 0.0005 5.23599e-07 
34 1 0.0194248 0.0161993 0.016185 0.00559493 0.0201015 -0.0152799 0 0 -5.1365e-06 0.0005 5.23599e-07 
35 1 0.0194778 0.0210719 0.0154642 0.00423913 0.0401047 -0.0194882 1.37259e-05 5.29023e-07 -5.62426e-06 0.0005 5.23599e-07 
36 1 0.0206153 0.0144568 0.0143721 -0.0110054 0.0130334 -0.0571494 0 0 -5.1365e-06 0.0005 5.23599e-07 
37 1 0.0183886 0.0235035 0.0118029 0.00766755 0.0219317 -0.0327566 0.000271552 0.000545073 5.91659e-05 0.0005 5.23599e-07 
38 1 0.018427 0.0173892 0.0156372 -0.00500518 0.0195574 -0.0323485 0 0 -5.1365e-06 0.0005 5.23599e-07 
39 1 0.0215515 0.019191 0.0167491 0.00629962 0.034444 0.00050181 -3.23013e-07 1.68433e-06 -1.38472e-07 0.0005 5.23599e-07 
40 1 0.021253 0.0179223 0.0166209 -0.00299425 0.034241 0.0100426 7.81533e-09 9.53441e-07 9.66053e-08 0.0005 5.23599e-07 
41 1 0.0188115 0.0228995 0.0154506 0.00299928 0.014807 0.0112847 1.55357e-05 -2.4187e-05 -4.40699e-05 0.0005 5.23599e-07 
42 1 0.0259479 0.0187929 0.0168524 -0.000452896 -0.00584473 -0.00186774 -2.17896e-06 2.05947e-07 -2.34221e-06 0.0005 5.23599e-07 
43 1 0.0231308 0.0224881 0.015593 -0.00517619 0.00991695 -0.00397722 -1.82043e-07 -5.71343e-07 -5.67871e-06 0.0005 5.23599e-07 
44 1 0.0173213 0.02201 0.0149245 0.00376292 0.020165 0.00563176 -4.32505e-05 3.10774e-07 4.27505e-05 0.0005 5.23599e-07 
45 1 0.018559 0.0180977 0.0167927 0.0396331 -0.00554406 -0.00289224 0 0 -5.1365e-06 0.0005 5.23599e-07 
46 1 0.0224688 0.0216475 0.0161047 0.026497 0.0165086 -0.00932686 0 0 -5.1365e-06 0.0005 5.23599e-07 
47 1 0.0158837 0.022803 0.0152056 -0.00134299 0.0030403 -0.00173292 0 0 -5.1365e-06 0.0005 5.23599e-07 
48 1 0.0206607 0.0156982 0.0150429 0.00606956 0.000952206 -0.00607798 0 0 -5.1365e-06 0.0005 5.23599e-07 
49 1 0.024024 0.0219742 0.0164418 1.45163e-05 -0.00148051 -0.000370455 7.34969e-06 -1.62723e-06 -3.92581e-06 0.0005 5.23599e-07 
50 1 0.0213947 0.0141163 0.0138451 -0.00543259 0.0217166 -0.0498994 0 0 -5.1365e-06 0.0005 5.23599e-07 
51 1 0.0199164 0.0218512 0.0159311 0.0108392 0.0472317 -0.0504597 6.26088e-06 -2.81154e-05 -6.40345e-05 0.0005 5.23599e-07 
52 1 0.0186143 0.0203904 0.0167747 -0.0023043 0.022686 -0.0025915 3.4027e-07 3.29549e-06 5.75574e-06 0.0005 5.23599e-07 
53 1 0.0189087 0.0191542 0.0159408 0.00238118 0.048417 -0.00187911 -3.35e-06 1.58581e-06 2.20356e-06 0.0005 5.23599e-07 
54 1 0.0238775 0.0152748 0.015237 -0.00954377 0.00175037 -0.00948133 -4.23391e-07 4.51254e-07 -4.37955e-06 0.0005 5.23599e-07 
55 1 0.0251263 0.021178 0.0159711 0.000731221 0.00115069 0.00158364 2.55421e-05 -4.48793e-05 2.51298e-05 0.0005 5.23599e-07 
56 1 0.0225717 0.0228221 0.0163519 -0.0052325 0.00510928 -0.00123505 0 0 -5.1365e-06 0.0005 5.23599e-07 
57 1 0.020958 0.0232872 0.0146208 -0.00626042 0.0133771 -0.0198371 3.24234e-05 -6.45615e-05 3.65961e-05 0.0005 5.23599e-07 
58 1 0.024705 0.0200448 0.0159593 0.00613934 0.00975501 0.00310735 4.91126e-05 -1.90535e-06 -9.85689e-05 0.0005 5.23599e-07 
59 1 0.019902 0.0190388 0.0159411 0.00240378 0.0485031 3.58837e-05 -2.98178e-06 1.3935e-06 1.38248e-06 0.0005 5.23599e-07 
60 1 0.0248335 0.0191448 0.0161547 -0.00409978 0.015163 0.0228469 1.06385e-05 2.86187e-05 8.66697e-05 0.0005 5.23599e-07 
61 1 0.0210273 0.0144329 0.0127591 0.0167516 0.0152528 -0.0286934 0 0 -5.1365e-06 0.0005 5.23599e-07 
62 1 0.0205432 0.0227495 0.0173964 0.0261416 0.0163951 -0.0292365 0 0 -5.1365e-06 0.0005 5.23599e-07 
63 1 0.0175153 0.0212365 0.015508 0.00855022 0.0184721 -0.00465583 3.44821e-05 -3.73208e-05 4.45582e-05 0.0005 5.23599e-07 
64 1 0.0187563 0.0220137 0.0159073 0.00899324 0.0208606 0.0159849 6.20273e-06 -5.82943e-05 5.65817e-05 0.0005 5.23599e-07 
65 1 0.0208282 0.015356 0.013966 0.0108137 -0.0134926 -0.0192052 -3.28358e-07 -2.8038e-06 -1.5343e-07 0.0005 5.23599e-07 
66 1 0.0179426 0.019379 0.0160795 0.00166215 0.0501433 -0.0111193 6.27092e-05 3.80489e-05 3.90422e-05 0.0005 5.23599e-07 
67 1 0.0199971 0.0150343 0.0135105 0.0130041 -0.0132184 -0.0308901 0 0 -5.1365e-06 0.0005 5.23599e-07 
68 1 0.0179143 0.0231079 0.013328 0.0219785 0.00490346 0.0182535 -0.000214804 4.58034e-05 8.61238e-05 0.0005 5.23599e-07 
69 1 0.0190302 0.0149386 0.0139599 -0.0146749 0.0103464 -0.0128028 0 0 -5.1365e-06 0.0005 5.23599e-07 
70 1 0.0209664 0.020203 0.0166071 0.00535791 0.045372 -0.00875196 0 0 -5.1365e-06 0.0005 5.23599e-07 
71 1 0.0199249 0.0156341 0.0143675 0.00622556 -0.0123352 -0.0110547 0 0 -5.1365e-06 0.0005 5.23599e-07 
72 1 0.0239612 0.019016 0.0163349 -0.00557429 0.0402053 0.0198994 8.61645e-06 0.000141367 -0.000113007 0.0005 5.23599e-07 
73 1 0.0215272 0.0148525 0.0146553 -0.0110184 -0.0105196 -0.0149511 0 0 -5.1365e-06 0.0005 5.23599e-07 
74 1 0.0145532 0.0230111 0.014955 0.00527677 0.0061832 -0.00627959 -4.5151e-06 -6.54854e-06 2.82855e-06 0.0005 5.23599e-07 
75 1 0.0229025 0.0230104 0.0134952 0.000247488 0.00547078 -0.0135652 9.35002e-07 -6.99727e-07 -5.68794e-08 0.0005 5.23599e-07 
76 1 0.0259127 0.0177848 0.0170215 -0.000334707 -0.0458105 0.0245287 0.00016996 4.54504e-05 0.000274288 0.0005 5.23599e-07 
77 1 0.0199515 0.0204364 0.0166698 -0.00213475 0.0204327 -0.00160156 0 0 -5.1365e-06 0.0005 5.23599e-07 
78 1 0.0153885 0.023357 0.0145283 0.00664326 0.0048518 -0.00104393 4.5151e-06 6.54854e-06 -1.31016e-05 0.0005 5.23599e-07 
79 1 0.0195171 0.0160332 0.015194 0.0158171 0.00549753 -0.0159858 0 0 -5.1365e-06 0.0005 5.23599e-07 
80 1 0.0241007 0.0227104 0.0157957 0.00014336 -0.000742404 0.000225537 2.09238e-06 3.98879e-06 2.50715e-05 0.0005 5.23599e-07 
81 1 0.0179278 0.0140668 0.0131815 -0.00466319 -0.0145714 -0.0243311 0 0 -5.1365e-06 0.0005 5.23599e-07 
82 1 0.0194488 0.0163811 0.0179387 -0.0555029 0.171191 -0.148475 0 0 -5.1365e-06 0.0005 5.23599e-07 
83 1 0.0225294 0.0176441 0.0166707 0.000897803 0.0298336 0.0112981 0 0 -5.1365e-06 0.0005 5.23599e-07 
84 1 0.0169645 0.014175 0.0135059 0.00369498 -0.00240859 0.00428887 1.14739e-07 2.04479e-06 -3.09301e-06 0.0005 5.23599e-07 
85 1 0.0216244 0.0157149 0.0155748 0.00495567 -0.0116421 0.00394102 0 0 -5.1365e-06 0.0005 5.23599e-07 
86 1 0.0178257 0.0228663 0.0151268 -0.00502186 0.00638234 0.00963391 3.24966e-05 -5.4066e-05 -7.09311e-05 0.0005 5.23599e-07 
87 1 0.0223605 0.0152144 0.015113 3.22887e-05 -0.0123547 -0.015536 0 0 -5.1365e-06 0.0005 5.23599e-07 
88 1 0.0173622 0.0145936 0.0143626 0.0142927 -0.0308621 -0.0464086 0 0 -5.1365e-06 0.0005 5.23599e-07 
89 1 0.0205715 0.0211379 0.016317 -0.00792976 0.0217211 -0.0125191 0 0 -5.1365e-06 0.0005 5.23599e-07 
90 1 0.0195868 0.0200296 0.0158321 -0.00657785 0.0445707 -0.0104841 2.70727e-06 2.08097e-06 2.55208e-07 0.0005 5.23599e-07 
91 1 0.024988 0.0219788 0.0164379 0.000131402 0.000671242 -0.000283988 9.35234e-06 -3.18507e-05 -2.10915e-05 0.0005 5.23599e-07 
92 1 0.0173983 0.0226962 0.014236 0.000764626 0.0174135 0.00856606 -2.2863e-05 6.96351e-05 3.75077e-05 0.0005 5.23599e-07 
93 1 0.0171112 0.0241009 0.0136719 -0.0184545 0.0359278 -0.0191255 -9.35849e-06 -1.08375e-05 2.12061e-05 0.0005 5.23599e-07 
94 1 0.0173939 0.0234839 0.0117843 0.00216153 0.00434078 -0.00460845 7.21336e-05 -1.1635e-05 -5.03058e-05 0.0005 5.23599e-07 
95 1 0.0169259 0.0231109 0.0134858 0.00987248 0.0191593 0.00700456 -9.00337e-05 1.22381e-06 -6.28214e-05 0.0005 5.23599e-07 
96 1 0.0194194 0.0149054 0.0148957 0.011629 -0.0326654 -0.0170842 0 0 -5.1365e-06 0.0005 5.23599e-07 
97 1 0.0217877 0.0209948 0.0164455 0.000307273 0.0158294 -0.0339853 0 0 -5.1365e-06 0.0005 5.23599e-07 
98 1 0.0161336 0.0144034 0.0140486 0.00994376 -0.00150767 -0.0145615 0 0 -5.1365e-06 0.0005 5.23599e-07 
99 1 0.0237994 0.0198172 0.0158692 0.00726047 0.0156014 -0.00522683 -2.40134e-05 9.62129e-05 -3.74453e-05 0.0005 5.23599e-07 
100 1 0.0240043 0.0221536 0.0148156 0.000575653 0.00153931 0.000535482 1.4104e-05 -5.45312e-05 1.45781e-05 0.0005 5.23599e-07 
101 1 0.0251952 0.0192477 0.0173439 -0.00358902 0.0113378 -0.0356598 -1.13479e-05 0.000106581 6.9841e-05 0.0005 5.23599e-07 
102 1 0.0231517 0.0159372 0.0157757 -0.0015366 -0.00235851 -0.0178306 0 0 -5.1365e-06 0.0005 5.23599e-07 
103 1 0.0241471 0.0212408 0.0158551 0.00338253 0.000138557 -0.00282485 1.91695e-05 1.31059e-05 -2.34473e-05 0.0005 5.23599e-07 
104 1 0.0199311 0.0138844 0.0132853 0.00747073 0.0281727 -0.0580472 0 0 -5.1365e-06 0.0005 5.23599e-07 
105 1 0.0177275 0.0221551 0.0158339 0.0109985 0.0179578 0.00651546 4.88067e-05 0.000129761 6.14563e-06 0.0005 5.23599e-07 
106 1 0.0189365 0.0138883 0.0131554 -0.00278331 0.00113093 -0.00275112 1.98149e-05 3.723e-05 1.19092e-05 0.0005 5.23599e-07 
107 1 0.0216713 0.0206126 0.0173731 -0.00420619 -0.0656573 -0.0693432 0 0 -5.1365e-06 0.0005 5.23599e-07 
108 1 0.0185538 0.0201239 0.0158131 2.8566e-05 0.0421953 -0.0108468 1.98557e-05 1.18958e-05 -3.08782e-06 0.0005 5.23599e-07 
109 1 0.0240044 0.0198137 0.0169304 -0.00330826 0.121752 0.0193102 -9.89844e-06 6.51083e-05 0.000238934 0.0005 5.23599e-07 
110 1 0.0254672 0.0170426 0.0165235 0.000745627 -0.0108332 0.00316906 -8.52185e-06 -0.000170667 -2.11817e-05 0.0005 5.23599e-07 
111 1 0.0245744 0.0161075 0.0155015 0.014558 0.0100887 -0.0112151 0 0 -5.1365e-06 0.0005 5.23599e-07 
112 1 0.0223427 0.0145032 0.0141512 -0.00729638 0.0207412 -0.038794 -9.14029e-07 1.27548e-06 -3.03915e-06 0.0005 5.23599e-07 
113 1 0.025887 0.0197921 0.0168488 -0.00103408 -0.00346082 -0.00387885 0 0 -5.1365e-06 0.0005 5.23599e-07 
114 1 0.0196539 0.0141953 0.0142299 -0.0111422 -0.0103609 -0.0501599 0 0 -5.1365e-06 0.0005 5.23599e-07 
115 1 0.0182992 0.0220049 0.0149183 0.000939896 0.0263746 -0.00824561 -4.04865e-05 -2.74894e-06 -1.51497e-05 0.0005 5.23599e-07 
116 1 0.013718 0.0118825 0.0273168 -0.137414 -0.115877 -0.253092 0 0 -5.1365e-06 0.0005 5.23599e-07 
117 1 0.0229565 0.0232596 0.0124628 -0.000282812 0.0109335 -0.0488877 7.49666e-08 -1.62517e-07 -1.49606e-07 0.0005 5.23599e-07 
118 1 0.0231296 0.0222408 0.0145866 0.00547459 0.0192995 -0.0190704 -3.23567e-05 5.98004e-05 -4.54077e-05 0.0005 5.23599e-07 
119 1 0.020905 0.0241661 0.0141487 -0.00425111 0.00993841 -0.0102631 -3.24234e-05 6.45615e-05 -4.68691e-05 0.0005 5.23599e-07 
120 1 0.0217509 0.0238962 0.0146445 0.000135801 0.0233294 -0.0115271 3.55322e-07 -2.51235e-06 -2.14656e-06 0.0005 5.23599e-07 
121 1 0.0222627 0.0235224 0.0169959 -0.00905727 0.00290744 -0.00012337 5.9845e-07 -3.56065e-06 -3.75105e-06 0.0005 5.23599e-07 
122 1 0.0203925 0.0165807 0.00796112 0.000837643 -0.0428773 0.0296543 -3.7744e-07 3.40164e-06 -2.224e-06 0.0005 5.23599e-07 
123 1 0.0176548 0.0239462 0.0128475 -0.00208645 -0.00922537 -0.000331879 2.70583e-05 -0.000130401 3.04533e-05 0.0005 5.23599e-07 
124 1 0.020161 0.0158188 0.00865034 0.000465759 -0.0339387 0.0382586 -2.31936e-08 5.57148e-08 2.32811e-07 0.0005 5.23599e-07 
125 1 0.0194623 0.0231739 0.0147433 0.00127192 -0.00186327 0.00683246 -9.16635e-06 4.44435e-05 1.73124e-05 0.0005 5.23599e-07 
126 1 0.0186307 0.0241435 0.0129481 0.0123727 0.0237689 0.00271778 0.000575636 -0.00151098 0.000785481 0.0005 5.23599e-07 
127 1 0.0194095 0.0145924 0.0119896 0.0205425 0.0189878 -0.0216203 0 0 -5.1365e-06 0.0005 5.23599e-07 
128 1 0.0181187 0.0244004 0.0137836 0.00294734 0.00247075 0.00464032 -1.69044e-05 -7.15068e-05 -1.92745e-05 0.0005 5.23599e-07 
129 1 0.0217146 0.0238607 0.0136459 -0.00393699 0.00150194 -0.0103535 8.10455e-07 3.80525e-06 -7.9597e-06 0.0005 5.23599e-07 
130 1 0.0207442 0.0240397 0.0131195 -0.000460685 0.00063715 -0.000220785 -1.84966e-06 4.67644e-07 -1.59923e-06 0.0005 5.23599e-07 
131 1 0.0198564 0.0151814 0.00961702 0.00312864 -0.0218906 0.0386584 4.90212e-06 -1.54429e-05 3.39556e-05 0.0005 5.23599e-07 
132 1 0.0232963 0.0233862 0.0151856 -0.00800442 0.00665823 -0.00676986 -7.09957e-06 -1.3293e-05 6.29988e-06 0.0005 5.23599e-07 
133 1 0.0178263 0.0235828 0.0142534 0.00361499 0.00726003 0.00756802 -7.47177e-06 -3.65677e-05 7.04379e-05 0.0005 5.23599e-07 
134 1 0.0226717 0.0235958 0.0143464 -0.0197058 0.00451428 -0.0143634 0 0 -5.1365e-06 0.0005 5.23599e-07 
135 1 0.0206254 0.0234563 0.01616 -0.00566988 0.0216725 -0.0736151 0 0 -5.1365e-06 0.0005 5.23599e-07 
136 1 0.0201271 0.0226801 0.0153126 0.0292948 0.0103066 -0.00460265 0 0 -5.1365e-06 0.0005 5.23599e-07 
137 1 0.0185809 0.0234266 0.0169759 0.0178509 0.0303525 -0.000117168 0 0 -5.1365e-06 0.0005 5.23599e-07 
138 1 0.0212426 0.0238632 0.0169821 0.00314023 -0.0233467 -0.0791513 0 0 -5.1365e-06 0.0005 5.23599e-07 
139 1 0.0210664 0.017508 0.00748552 0.00137745 -0.0519905 0.0197204 -4.89508e-07 -2.36074e-06 5.92472e-07 0.0005 5.23599e-07 
140 1 0.0211378 0.0216453 0.0171116 0.0317103 0.00147572 -0.0121058 0 0 -5.1365e-06 0.0005 5.23599e-07 
141 1 0.0215586 0.0168568 0.0163514 -0.0126346 0.0209452 0.0317491 0 0 -5.1365e-06 0.0005 5.23599e-07 
142 1 0.022301 0.0233539 0.0152796 -0.00240476 0.0220231 -0.00680126 -1.08204e-06 9.95756e-07 -5.24572e-06 0.0005 5.23599e-07 
143 1 0.0202122 0.0243274 0.0169607 0.0283112 0.0331427 -0.0512626 0 0 -5.1365e-06 0.0005 5.23599e-07 
144 1 0.0197859 0.0217191 0.0169129 0.00271565 0.00442013 -0.0506041 -6.26088e-06 2.81154e-05 5.37615e-05 0.0005 5.23599e-07 
145 1 0.0226926 0.0257849 0.0227175 -0.0589947 -0.0789759 -0.211603 -6.95977e-07 -1.06977e-06 -3.5373e-06 0.0005 5.23599e-07 
146 1 0.0193148 0.0228185 0.0163133 0.0305457 0.0390374 -0.0167882 0 0 -5.1365e-06 0.0005 5.23599e-07 
147 1 0.0223207 0.0199249 0.0167039 0.00791354 0.0324334 -0.00314303 0 0 -5.1365e-06 0.0005 5.23599e-07 
148 1 0.0119865 0.0201865 0.0259248 0.178117 -0.0896968 0.0188686 0 0 -5.1365e-06 0.0005 5.23599e-07 
149 1 0.0216439 0.0225114 0.0165641 -0.00484704 0.00841959 0.00391175 9.16881e-06 2.82717e-05 -4.56385e-06 0.0005 5.23599e-07 
150 1 0.0226472 0.0209943 0.0171647 -0.00323385 0.0462019 -0.0271984 0 0 -5.1365e-06 0.0005 5.23599e-07 
151 1 0.0203742 0.0169156 0.0154527 0.00532515 0.0192226 -0.0175685 0 0 -5.1365e-06 0.0005 5.23599e-07 
152 1 0.0193429 0.0237391 0.0156291 -0.00803675 0.00544534 -0.0368098 0 0 -5.1365e-06 0.0005 5.23599e-07 
153 1 0.0180873 0.0230083 0.0162076 0.00602493 0.00767363 0.0174153 3.66585e-05 8.33577e-05 2.10155e-05 0.0005 5.23599e-07 
154 1 0.0193863 0.0171138 0.0155086 0.00214682 0.0164126 0.0105503 -1.07813e-07 2.28307e-07 -2.28848e-06 0.0005 5.23599e-07 
155 1 0.0207475 0.0148849 0.0159357 -0.0588243 0.0768428 -0.0133032 0 0 -5.1365e-06 0.0005 5.23599e-07 
156 1 0.0232875 0.0204441 0.0166233 -0.00279056 0.054859 -0.0316058 0 0 -5.1365e-06 0.0005 5.23599e-07 
157 1 0.0201961 0.023747 0.0151041 -0.00170014 -0.00251025 0.00601183 -9.52878e-06 -4.87328e-05 3.37603e-05 0.0005 5.23599e-07 
158 1 0.0223402 0.0233757 0.0110401 0.00340312 -0.00691712 -0.0414671 1.52897e-06 2.82324e-06 4.41825e-05 0.0005 5.23599e-07 
159 1 0.019732 0.0234207 0.0170177 0.00966881 0.0133461 -0.0219254 0 0 -5.1365e-06 0.0005 5.23599e-07 
160 1 0.0184653 0.0239241 0.0160776 0.0111755 0.00422592 0.0132267 -8.34083e-06 3.3953e-05 -7.92751e-06 0.0005 5.23599e-07 
161 1 0.0245688 0.0166342 0.0163627 -0.00148831 0.0157312 0.00464139 -7.96553e-06 -6.98429e-06 -1.36051e-05 0.0005 5.23599e-07 
162 1 0.02162 0.0197831 0.0241982 -0.0706971 -0.0435706 -0.0307896 0 0 -5.1365e-06 0.0005 5.23599e-07 
163 1 0.0165632 0.0223347 0.0231592 0.166033 -0.093993 -0.313915 0 0 -5.1365e-06 0.0005 5.23599e-07 
164 1 0.017515 0.0236394 0.0156786 0.00851703 -0.00309883 -0.00975914 -3.24966e-05 5.4066e-05 6.06581e-05 0.0005 5.23599e-07 
165 1 0.019311 0.0242096 0.0165276 0.0190876 -0.000825419 -0.0161058 1.62379e-05 -1.4781e-08 1.98387e-05 0.0005 5.23599e-07 
166 1 0.021954 0.0229061 0.00952242 0.0319332 -0.253236 0.223788 0.000510796 -0.0222903 -0.00683815 0.0005 5.23599e-07 
167 1 0.0190638 0.0245822 0.0174232 -0.000953592 -0.00799153 -0.0145948 0 0 -5.1365e-06 0.0005 5.23599e-07 
168 1 0.0176774 0.0240894 0.0166712 0.00139929 -0.00321006 -0.0108886 0 0 -5.1365e-06 0.0005 5.23599e-07 
169 1 0.0192617 0.024424 0.0137149 0.00349404 -0.000184428 0.00313492 4.31773e-07 1.38689e-05 1.63266e-05 0.0005 5.23599e-07 
170 1 0.0250771 0.0183175 0.0170688 -0.0105551 -0.0728819 0.084249 0.000182948 8.99655e-05 0.000352878 0.0005 5.23599e-07 
171 1 0.0183664 0.0237126 0.0150796 -0.00200654 0.00221314 0.00260614 -2.62527e-05 -2.56997e-05 1.53282e-05 0.0005 5.23599e-07 
172 1 0.0184973 0.021174 0.015433 0.00733777 0.0281312 -0.0122995 5.23046e-05 -3.60101e-05 2.05095e-05 0.0005 5.23599e-07 
173 1 0.021643 0.0234129 0.0161312 -0.0026486 0.00154623 -0.00110921 0 0 -5.1365e-06 0.0005 5.23599e-07 
174 1 0.023453 0.0228289 0.0143481 0.00088981 0.00679733 -0.00233115 2.01701e-05 2.65581e-05 3.17457e-05 0.0005 5.23599e-07 
175 1 0.0198339 0.0244827 0.0180534 0.0123078 -0.00193086 -0.0281244 0 0 -5.1365e-06 0.0005 5.23599e-07 
176 1 0.0205891 0.0224673 0.0163791 0.0412633 0.0264049 -0.0474178 0 0 -5.1365e-06 0.0005 5.23599e-07 
177 1 0.0200468 0.0237803 0.0138052 -0.00440351 -0.00886415 0.00232795 0 0 -5.1365e-06 0.0005 5.23599e-07 
178 1 0.0235872 0.0206736 0.0156432 0.00741365 0.00543915 -0.0110513 3.28816e-05 -1.60034e-05 -3.72815e-05 0.0005 5.23599e-07 
179 1 0.0247753 0.0211201 0.0168971 0.000512578 0.00111993 0.000529988 -4.27537e-06 1.14864e-05 -3.41934e-06 0.0005 5.23599e-07 
180 1 0.0183338 0.0155185 0.015596 0.0143678 0.011986 0.0165117 0 0 -5.1365e-06 0.0005 5.23599e-07 
181 1 0.0166874 0.0230735 0.0157445 0.00372705 -0.00439379 -0.00867673 0 0 -5.1365e-06 0.0005 5.23599e-07 
182 1 0.0211422 0.0225953 0.0153916 -0.00676926 0.0110933 -0.00440498 0 0 -5.1365e-06 0.0005 5.23599e-07 
183 1 0.0159121 0.0247984 0.023039 0.0587459 -0.0394284 0.0386961 0 0 -5.1365e-06 0.0005 5.23599e-07 
184 1 0.0205784 0.0205434 0.0174737 0.0115859 0.0188782 0.0198467 0 0 -5.1365e-06 0.0005 5.23599e-07 
185 1 0.0213006 0.0217528 0.0160113 -0.00888584 0.0266952 -0.0197022 -9.16881e-06 -2.82717e-05 -5.70915e-06 0.0005 5.23599e-07 
186 1 0.021981 0.0239939 0.0178336 -0.0194239 0.00605754 -0.00624951 0 0 -5.1365e-06 0.0005 5.23599e-07 
187 1 0.0197472 0.024104 0.0129063 0.000820819 -0.00470855 0.00132667 -7.09281e-06 1.78119e-06 -6.7872e-06 0.0005 5.23599e-07 
188 1 0.0241148 0.0180713 0.0171753 -0.0613695 -0.0221995 0.0472286 -3.02905e-05 -1.91965e-05 1.96507e-05 0.0005 5.23599e-07 
189 1 0.0168092 0.0233502 0.0147681 -0.0138233 0.0408087 -0.0129929 0 0 -5.1365e-06 0.0005 5.23599e-07 
190 1 0.0167482 0.0237835 0.0164491 0.0044643 -0.00480987 -0.00256965 0 0 -5.1365e-06 0.0005 5.23599e-07 
