ITEM: TIMESTEP
2800000
ITEM: NUMBER OF ATOMS
161
ITEM: BOX BOUNDS ff ff ff
-0.02 0.43
-0.02 0.06
-0.02 0.07
ITEM: ATOMS id type x y z vx vy vz fx fy fz radius mass 
1 1 0.024193 0.0200278 0.0172196 -0.00251271 0.073569 -0.00843896 0 0 -5.1365e-06 0.0005 5.23599e-07 
2 1 0.0179697 0.021753 0.0160297 0.00503818 0.00323665 -0.0050164 5.65147e-06 -5.81036e-06 8.89461e-06 0.0005 5.23599e-07 
3 1 0.0220736 0.0149199 0.0143781 0.0023679 0.000410929 -0.0031874 9.52421e-06 3.36118e-06 -1.07376e-06 0.0005 5.23599e-07 
4 1 0.0212823 0.0229479 0.0136702 0.0217108 -0.00432742 0.0127929 0 0 -5.1365e-06 0.0005 5.23599e-07 
5 1 0.0192881 0.0234484 0.0134661 0.0101996 -0.0042614 -0.00299231 1.01595e-05 4.09784e-05 2.73401e-06 0.0005 5.23599e-07 
6 1 0.0560868 0.0195946 0.00585894 0.15708 -0.0427885 -0.00319444 0 0 -5.1365e-06 0.0005 5.23599e-07 
7 1 0.0211415 0.0141542 0.0135116 -0.00143665 0.00451804 0.0308529 0 0 -5.1365e-06 0.0005 5.23599e-07 
9 1 0.0237007 0.0228531 0.0151749 0.00123104 -0.0024665 -0.00186298 5.58105e-06 -5.62145e-05 -6.32717e-05 0.0005 5.23599e-07 
10 1 0.0172285 0.0240365 0.0131633 9.26985e-05 6.41934e-05 3.60681e-05 -3.59371e-07 1.22161e-07 -1.18633e-06 0.0005 5.23599e-07 
11 1 0.0300324 0.0218381 0.00817011 0.000375115 -0.040222 -0.036328 1.26758e-06 6.83287e-06 4.98775e-06 0.0005 5.23599e-07 
13 1 0.0239685 0.0212346 0.0162934 0.0116772 -0.0028505 -0.00879385 0 0 -5.1365e-06 0.0005 5.23599e-07 
14 1 0.0149558 0.0227481 0.0139646 0.0022023 8.81905e-05 -0.0035937 -7.50599e-07 -4.55666e-06 -6.27795e-06 0.0005 5.23599e-07 
15 1 0.0251547 0.021494 0.0168318 -0.000135584 -0.000235154 -0.000374022 2.9107e-06 6.45317e-06 -3.94071e-06 0.0005 5.23599e-07 
17 1 0.0205396 0.0204819 0.0157148 0.00488527 -0.00321322 0.00611403 -5.70099e-06 1.66225e-06 4.74116e-06 0.0005 5.23599e-07 
19 1 0.0198704 0.020817 0.016378 -0.00336721 -0.00343614 -0.00252175 -5.03079e-08 7.2607e-08 -5.10567e-06 0.0005 5.23599e-07 
20 1 0.0345955 0.0188418 0.00570992 8.70798e-20 -7.24606e-21 3.48289e-20 0 0 0 0.0005 5.23599e-07 
22 1 0.0152678 0.0149331 0.0216329 0.00133699 -0.0399756 -0.326155 0 0 -5.1365e-06 0.0005 5.23599e-07 
23 1 0.016666 0.0233041 0.0158202 -0.000168461 -0.00048678 0.000258076 -8.75921e-07 4.31422e-07 -7.04733e-07 0.0005 5.23599e-07 
24 1 0.0220288 0.0203805 0.0157473 0.0206048 0.000886207 0.0033355 -4.67145e-06 3.75409e-06 -5.02507e-06 0.0005 5.23599e-07 
25 1 0.026447 0.0187332 0.0158114 0.00358975 0.0413427 0.0014685 -3.05379e-07 5.50127e-07 -6.16661e-08 0.0005 5.23599e-07 
27 1 0.0257534 0.0211955 0.0151892 0.00544902 0.0312008 -0.0236805 -7.54514e-06 -9.80183e-06 -5.92246e-06 0.0005 5.23599e-07 
28 1 0.0202243 0.0143583 0.0138677 0.00888134 -0.00517441 0.00685271 2.0554e-05 4.19026e-06 -1.68699e-05 0.0005 5.23599e-07 
29 1 0.021795 0.0147175 0.0118242 -0.0382217 0.0269919 0.0227761 -0.00906562 -0.00443036 -0.00147022 0.0005 5.23599e-07 
30 1 0.0208728 0.023304 0.012817 0.00568142 0.004793 -0.00401859 3.92406e-06 1.62844e-05 5.34497e-06 0.0005 5.23599e-07 
31 1 0.0173131 0.022763 0.0163574 0.00419197 -0.00334603 -0.00563024 0 0 -5.1365e-06 0.0005 5.23599e-07 
32 1 0.013528 0.0211956 0.0163595 -0.000345413 0.0869994 0.0547025 0 0 -5.1365e-06 0.0005 5.23599e-07 
34 1 0.0171851 0.0231308 0.0148109 -0.00167845 -0.000684837 -0.00491788 2.49281e-06 5.83811e-06 4.21905e-07 0.0005 5.23599e-07 
35 1 0.0279251 0.01478 0.0112276 0.00438899 -0.0301931 0.0913727 -0.000510503 0.00102959 0.000548205 0.0005 5.23599e-07 
36 1 0.0204857 0.0225033 0.0143102 0.00785725 0.00323842 0.00127086 -8.35947e-07 1.79693e-06 -1.97281e-06 0.0005 5.23599e-07 
37 1 0.0141367 0.0224006 0.0144368 0.00538878 0.00368661 -0.00895036 4.53523e-07 -7.39957e-06 5.44909e-07 0.0005 5.23599e-07 
38 1 0.0188485 0.0238422 0.0146058 -0.00124697 -0.00108323 -0.00211227 -1.2648e-06 -3.8668e-06 -2.01798e-06 0.0005 5.23599e-07 
39 1 0.0214173 0.0220243 0.0152923 0.000762711 0.000561466 0.00452169 -6.49027e-05 -3.53757e-05 3.67372e-05 0.0005 5.23599e-07 
40 1 0.0287172 0.0163189 0.00815541 0.000437384 -0.0395923 0.0318739 -1.05929e-08 4.89032e-08 2.28183e-07 0.0005 5.23599e-07 
41 1 0.0226448 0.0174447 0.0156487 0.00626784 0.00469608 -0.000794603 -3.21314e-07 1.75242e-07 3.37376e-07 0.0005 5.23599e-07 
42 1 0.015575 0.0234151 0.0143789 0.00126317 -0.00207268 -0.00124494 1.0298e-05 -1.46635e-05 5.81555e-06 0.0005 5.23599e-07 
44 1 0.0226697 0.0205329 0.0165476 0.0157502 -0.00512931 0.0201977 0 0 -5.1365e-06 0.0005 5.23599e-07 
45 1 0.0207127 0.0228231 0.0152299 0.00583351 0.000687743 0.00315502 1.75799e-06 7.51102e-07 -6.37229e-06 0.0005 5.23599e-07 
46 1 0.0194039 0.0158116 0.0167686 -0.085544 0.147268 -0.00329483 0 0 -5.1365e-06 0.0005 5.23599e-07 
47 1 0.0191275 0.024378 0.0138091 0.00277978 -8.82035e-05 -0.000760408 -4.61515e-06 4.81402e-06 1.0835e-05 0.0005 5.23599e-07 
49 1 0.0191029 0.0226711 0.00933869 0.00160641 -0.0249851 -0.0433858 -1.29827e-08 2.06606e-06 4.2572e-06 0.0005 5.23599e-07 
50 1 0.0225994 0.0228128 0.015263 -0.00271676 0.00249739 0.00338527 -2.23503e-05 1.76398e-06 -6.60763e-06 0.0005 5.23599e-07 
51 1 0.0189123 0.0238019 0.015695 0.00112169 0.00133964 0.00167735 1.95807e-06 3.7615e-06 -1.4989e-06 0.0005 5.23599e-07 
52 1 0.0205516 0.0217768 0.0150137 0.00549992 -0.000822795 0.00240493 -3.4576e-06 -6.17167e-05 6.62087e-05 0.0005 5.23599e-07 
53 1 0.0237382 0.022068 0.0157861 -0.00258242 -0.00988222 -0.00422605 -3.79675e-05 -0.00034546 -0.000195453 0.0005 5.23599e-07 
54 1 0.0267383 0.0182025 0.00597096 -1.69481e-14 -2.72915e-15 2.76309e-13 -4.23516e-22 -3.44107e-21 0 0.0005 5.23599e-07 
55 1 0.0281002 0.0149473 0.0102339 0.00032101 -0.0178658 0.0496877 -1.07637e-08 1.86739e-07 1.19731e-07 0.0005 5.23599e-07 
57 1 0.0195347 0.0227304 0.0140603 0.00920551 0.00212458 -0.00199139 7.08018e-06 7.1108e-05 -3.90778e-05 0.0005 5.23599e-07 
59 1 0.0154305 0.0243907 0.0198909 0.0555985 0.0528997 -0.0589579 0 0 -5.1365e-06 0.0005 5.23599e-07 
60 1 0.0206913 0.0216411 0.0159947 0.0016113 0.0109069 0.00233706 0 0 -5.1365e-06 0.0005 5.23599e-07 
61 1 0.029866 0.0245156 0.010602 -0.00814299 -0.0635055 -0.0380967 0 0 -5.1365e-06 0.0005 5.23599e-07 
62 1 0.0180526 0.0243298 0.0136488 0.000785298 0.000487577 0.000197825 -4.61638e-06 1.62527e-06 -3.18522e-07 0.0005 5.23599e-07 
63 1 0.0234843 0.0150478 0.0148333 -0.0229079 -0.00799925 -0.0149556 0 0 -5.1365e-06 0.0005 5.23599e-07 
64 1 0.017682 0.0225219 0.0154595 -7.26911e-05 0.000899377 -0.00368072 -9.03239e-07 1.07921e-06 5.1676e-06 0.0005 5.23599e-07 
65 1 0.0255125 0.0174847 0.0170129 0.00114637 0.0190724 0.0652365 0 0 -5.1365e-06 0.0005 5.23599e-07 
66 1 0.0259124 0.0191795 0.0168891 -0.0200365 -0.0247299 -0.0258366 0 0 -5.1365e-06 0.0005 5.23599e-07 
67 1 0.0289637 0.0174627 0.00748447 0.000315008 -0.05005 0.0168778 -1.50541e-08 1.2544e-08 2.34316e-07 0.0005 5.23599e-07 
68 1 0.0284583 0.0156476 0.00893403 0.0040685 -0.0095669 0.0139348 -2.47177e-06 -2.8902e-06 1.02011e-05 0.0005 5.23599e-07 
69 1 0.0267068 0.017225 0.0152871 0.000846851 0.0459575 0.0183059 1.95111e-07 7.65946e-07 -8.55931e-08 0.0005 5.23599e-07 
70 1 0.0169988 0.0215289 0.0161368 0.0061835 -0.00208175 -0.00730438 5.2215e-07 -1.17761e-06 -2.40078e-06 0.0005 5.23599e-07 
71 1 0.0213055 0.0154325 0.0140731 0.00286073 0.0226171 0.0317811 6.61091e-06 3.27186e-07 -6.21936e-06 0.0005 5.23599e-07 
73 1 0.0256167 0.0206426 0.0164858 -0.00847187 -0.00789014 -0.0298693 0 0 -5.1365e-06 0.0005 5.23599e-07 
74 1 0.0205481 0.0237721 0.0149347 -0.00054211 -0.00108013 0.00211012 -6.34496e-06 -7.82988e-07 -8.89255e-06 0.0005 5.23599e-07 
75 1 0.0179125 0.014076 0.0131644 0.00330052 -0.0175546 0.0464203 0 0 -5.1365e-06 0.0005 5.23599e-07 
78 1 0.0199462 0.0242223 0.0131567 7.03089e-05 -0.00180722 0.000892758 -7.79292e-06 2.57285e-05 -6.71539e-06 0.0005 5.23599e-07 
79 1 0.0224608 0.0197816 0.00583582 -2.0879e-15 9.08877e-16 -1.81841e-14 2.16523e-19 1.8144e-18 6.60686e-20 0.0005 5.23599e-07 
81 1 0.0249951 0.0216258 0.016014 -0.000315844 -0.000905981 -0.00172834 2.24235e-06 5.71575e-06 -4.67408e-06 0.0005 5.23599e-07 
82 1 0.016105 0.0229059 0.0150564 0.00786219 0.000581144 -0.00299787 8.17361e-06 -1.05811e-05 8.94111e-06 0.0005 5.23599e-07 
83 1 0.0188959 0.0140026 0.012966 -0.000750752 0.00244803 -0.00518607 7.23777e-09 1.86274e-06 -2.19845e-06 0.0005 5.23599e-07 
84 1 0.0167127 0.0223285 0.015609 8.18864e-05 -0.000475915 -0.0027196 -1.08832e-06 1.14749e-06 6.27815e-06 0.0005 5.23599e-07 
85 1 0.0222402 0.0194225 0.0159406 0.0186659 0.002932 0.000208738 5.27169e-06 -5.09506e-06 -3.9226e-06 0.0005 5.23599e-07 
87 1 0.0196419 0.0234028 0.0151398 -0.00109837 -0.00093945 0.000809697 4.87629e-06 9.23591e-06 -2.76976e-06 0.0005 5.23599e-07 
88 1 0.0221462 0.0237512 0.0149547 0.00132303 0.00202757 -0.00675081 0.000104621 -1.13159e-05 4.6694e-05 0.0005 5.23599e-07 
90 1 0.0213021 0.0205223 0.0167402 -0.0475308 0.0377602 -0.0756384 0 0 -5.1365e-06 0.0005 5.23599e-07 
92 1 0.0271788 0.0133219 0.0520999 0.175167 -0.000230671 -0.257729 0 0 -5.1365e-06 0.0005 5.23599e-07 
93 1 0.023558 0.0163979 0.0160394 -0.0119529 0.00268264 -0.000929898 4.06021e-07 -8.5134e-07 3.2651e-06 0.0005 5.23599e-07 
95 1 0.0222027 0.0221071 0.0158307 0.00128319 -0.000115452 0.00298867 -2.67136e-05 -1.80508e-05 -0.000129856 0.0005 5.23599e-07 
96 1 0.0218707 0.0152652 0.015303 -0.0230311 -0.00129342 -0.029615 0 0 -5.1365e-06 0.0005 5.23599e-07 
97 1 0.0206373 0.0193676 0.0171861 0.0173654 0.000469249 0.018999 0 0 -5.1365e-06 0.0005 5.23599e-07 
98 1 0.020904 0.0144825 0.0145915 0.0176203 -0.0195956 -0.0184747 0 0 -5.1365e-06 0.0005 5.23599e-07 
100 1 0.0213314 0.021048 0.015487 0.00844771 -0.0073618 0.00867136 -5.8421e-07 9.37454e-06 -3.01588e-06 0.0005 5.23599e-07 
101 1 0.0215032 0.0189595 0.0164359 0.00121039 -0.00705508 -0.0218558 0 0 -5.1365e-06 0.0005 5.23599e-07 
102 1 0.0228656 0.0151954 0.0137209 -0.0105518 -0.0508835 0.0295161 0 0 -5.1365e-06 0.0005 5.23599e-07 
103 1 0.0227879 0.0165678 0.0151881 -0.00130992 0.00224297 -0.00678547 0 0 -5.1365e-06 0.0005 5.23599e-07 
105 1 0.0188717 0.0226095 0.0154089 0.000311019 0.00108985 -0.00314948 -3.81589e-06 -8.22279e-07 -1.09989e-08 0.0005 5.23599e-07 
106 1 0.0289359 0.0178655 0.00589895 -8.71331e-15 7.16799e-17 -1.02212e-13 -2.96462e-21 -2.19894e-19 0 0.0005 5.23599e-07 
107 1 0.0176524 0.0145122 0.014091 0.000945444 0.00683721 -0.00371009 -2.07169e-08 -7.18022e-09 -5.13945e-06 0.0005 5.23599e-07 
108 1 0.0224393 0.0184389 0.0159174 0.013853 -0.0119296 -0.00356575 0 0 -5.1365e-06 0.0005 5.23599e-07 
109 1 0.0228912 0.0155861 0.0154361 0.00631514 -0.00797373 0.00593418 0 0 -5.1365e-06 0.0005 5.23599e-07 
110 1 0.0189528 0.0234585 0.0118814 0.00030853 0.00549037 -0.0448914 4.74886e-06 1.11841e-05 -2.94197e-06 0.0005 5.23599e-07 
111 1 0.0304732 0.0230708 0.0098754 0.0015547 -0.0188262 -0.0433916 2.72205e-06 2.98365e-06 6.39075e-06 0.0005 5.23599e-07 
112 1 0.0229753 0.0214699 0.016177 -0.00930627 -0.00277376 -0.00295316 0 0 -5.1365e-06 0.0005 5.23599e-07 
113 1 0.0198341 0.0225828 0.0156785 -0.00169011 0.00157556 0.00399612 -1.36677e-06 3.35301e-06 -1.61176e-06 0.0005 5.23599e-07 
114 1 0.0272428 0.0155535 0.0139926 0.00032482 0.0247481 0.0414129 -2.82519e-05 2.71411e-05 4.16404e-05 0.0005 5.23599e-07 
115 1 0.0277152 0.0148366 0.0120636 -0.0455435 0.0528032 0.0648345 0.00526592 0.00683212 -0.0109923 0.0005 5.23599e-07 
116 1 0.0152865 0.0226193 0.0155624 0.00607945 0.00279788 0.000635864 1.40479e-07 1.497e-06 -2.53511e-06 0.0005 5.23599e-07 
117 1 0.0151067 0.0221109 0.0147204 0.00459362 0.00357136 -0.00109031 -1.32195e-07 3.04129e-06 -4.92299e-06 0.0005 5.23599e-07 
118 1 0.0293391 0.0188748 0.00717648 0.249092 0.418317 -2.27905 0.0449626 0.106768 0.0776503 0.0005 5.23599e-07 
119 1 0.0182099 0.0233203 0.0151713 0.000157661 0.0024682 0.000617475 -6.84277e-07 -1.44334e-06 2.74125e-07 0.0005 5.23599e-07 
120 1 0.0198325 0.0234521 0.0116829 0.00554304 -0.001878 -0.00706463 9.8001e-06 8.86118e-06 3.13976e-05 0.0005 5.23599e-07 
121 1 0.0210816 0.0170345 0.0155257 -0.00259902 -9.06575e-05 -0.00505878 0 0 -5.1365e-06 0.0005 5.23599e-07 
122 1 0.0354862 0.0197731 0.00599028 3.70346e-15 2.13383e-14 -8.2688e-14 1.05032e-19 1.75759e-20 7.6233e-21 0.0005 5.23599e-07 
123 1 0.0245764 0.0223216 0.0162245 -0.00136905 -0.00126829 -0.000382395 -1.27152e-05 -4.02666e-05 -3.75885e-05 0.0005 5.23599e-07 
124 1 0.0204276 0.0189569 0.0159445 0.0106649 0.012206 0.0070011 2.13559e-06 -3.81307e-06 -5.01203e-06 0.0005 5.23599e-07 
125 1 0.0211447 0.0161586 0.0149321 0.0013044 0.00740505 -0.0222548 0 0 -5.1365e-06 0.0005 5.23599e-07 
126 1 0.021272 0.0234487 0.0157735 0.00576392 -0.00125913 0.00360623 1.64547e-06 4.207e-06 3.7139e-07 0.0005 5.23599e-07 
127 1 0.0230691 0.0233346 0.014576 -0.00206614 -0.000991467 -0.00194459 -1.19979e-05 -1.56767e-05 3.26407e-05 0.0005 5.23599e-07 
128 1 0.0188806 0.0240952 0.0128829 0.00523836 0.00108744 0.00519019 2.32581e-05 -3.39533e-06 -1.84303e-05 0.0005 5.23599e-07 
129 1 0.0238042 0.021054 0.00783212 1.35301e-05 -0.0454179 -0.0268372 -1.48788e-08 -1.52128e-07 1.86177e-07 0.0005 5.23599e-07 
130 1 0.0213989 0.0239307 0.0133821 0.00127262 0.00042757 0.000226963 2.10063e-05 -8.14993e-06 2.1945e-06 0.0005 5.23599e-07 
131 1 0.021354 0.0236857 0.0143498 -0.00162734 -3.31378e-07 0.00115788 -3.45283e-05 1.05419e-05 -1.05879e-05 0.0005 5.23599e-07 
132 1 0.0198794 0.0233511 0.0126719 0.00784854 0.00426163 -0.0078462 -1.85636e-06 4.92355e-06 2.00371e-05 0.0005 5.23599e-07 
133 1 0.0218284 0.0213061 0.0163158 0.0107094 0.00338393 0.000811715 0 0 -5.1365e-06 0.0005 5.23599e-07 
134 1 0.0261568 0.0217652 0.0146665 0.00156902 0.038202 -0.031717 1.93516e-06 7.17815e-07 -4.49057e-07 0.0005 5.23599e-07 
135 1 0.0212374 0.0197814 0.0158849 0.00805924 0.016309 -0.0166687 0 0 -5.1365e-06 0.0005 5.23599e-07 
136 1 0.0275442 0.0150334 0.0130771 -0.328786 -7.55233 2.21131 0.0680871 0.919369 -0.753434 0.0005 5.23599e-07 
137 1 0.0242763 0.0227275 0.0092875 0.00579073 -0.0106002 -0.0131222 -0.000110023 -0.000148585 0.000361029 0.0005 5.23599e-07 
138 1 0.0152241 0.0190716 0.017405 -0.00573307 0.0138962 -0.0834013 0 0 -5.1365e-06 0.0005 5.23599e-07 
139 1 0.0179001 0.0235456 0.0142483 0.000423455 0.00162833 0.000229365 1.09409e-06 1.39514e-06 -3.75961e-06 0.0005 5.23599e-07 
140 1 0.0222882 0.0236734 0.0139817 -0.00425557 0.00321362 -0.00462785 6.23586e-05 1.54978e-05 6.40451e-05 0.0005 5.23599e-07 
141 1 0.0206395 0.0179883 0.0158143 0.00865767 0.0103476 0.00438376 0 0 -5.1365e-06 0.0005 5.23599e-07 
142 1 0.0260216 0.0204703 0.0155695 0.00829451 0.0252701 -0.00824075 6.22555e-06 -1.17337e-06 -2.74862e-06 0.0005 5.23599e-07 
143 1 0.0185937 0.021058 0.0163861 0.0179569 0.0179332 -0.00204211 4.25884e-06 -6.72006e-06 3.81143e-06 0.0005 5.23599e-07 
144 1 0.0190994 0.0169393 0.0172047 0.0383593 -0.0218395 -0.0893306 0 0 -5.1365e-06 0.0005 5.23599e-07 
145 1 0.0238752 0.0184796 0.0167267 -0.000145489 0.0559239 0.00556707 3.40121e-08 6.80089e-07 -6.47195e-07 0.0005 5.23599e-07 
146 1 0.0169573 0.0142002 0.0134435 -0.012736 -0.00111117 0.0137522 2.07169e-08 7.18022e-09 -5.13356e-06 0.0005 5.23599e-07 
147 1 0.0198959 0.0140066 0.0129899 0.000585061 0.00149318 -0.00368097 -1.81729e-07 -3.24661e-06 -2.30199e-06 0.0005 5.23599e-07 
148 1 0.021631 0.0178598 0.0157846 0.0062841 0.00825396 -0.00113479 0 0 -5.1365e-06 0.0005 5.23599e-07 
149 1 0.0223512 0.0141007 0.0148222 -0.000433913 -4.76492e-05 -0.000465982 2.41691e-06 -5.09444e-07 -2.20019e-06 0.0005 5.23599e-07 
150 1 0.0196789 0.022131 0.0147999 0.00752936 0.010643 -0.00208185 1.85156e-05 -4.14921e-06 -1.03675e-05 0.0005 5.23599e-07 
151 1 0.0454623 0.0165053 0.00632503 -6.78891e-15 -3.79632e-14 -2.61339e-13 2.67609e-20 1.48231e-21 -1.69407e-21 0.0005 5.23599e-07 
152 1 0.0171648 0.0242376 0.0141431 0.000278897 0.00135191 0.00026841 -1.39462e-06 -1.90686e-06 3.75191e-06 0.0005 5.23599e-07 
153 1 0.0247372 0.0161753 0.0163205 -0.0219911 -0.0396236 -0.0215618 0 0 -5.1365e-06 0.0005 5.23599e-07 
154 1 0.0183457 0.0227131 0.00946509 0.000398453 -0.0248928 -0.0448689 9.19093e-08 5.40759e-07 1.09009e-06 0.0005 5.23599e-07 
155 1 0.0270441 0.0161895 0.0147231 0.00533901 0.0165011 0.01583 7.95012e-07 1.26133e-06 -3.88088e-06 0.0005 5.23599e-07 
158 1 0.0372285 0.0203986 0.00609172 -4.46829e-15 1.48229e-14 -6.81717e-14 -1.82604e-18 -1.08653e-18 -1.17738e-19 0.0005 5.23599e-07 
159 1 0.0195709 0.0217462 0.0161583 -0.00895097 -0.000187861 -0.00156478 -1.49321e-06 1.52527e-05 9.49737e-06 0.0005 5.23599e-07 
160 1 0.0147457 0.0231058 0.0148744 0.00221467 -0.00120369 -0.00366177 3.01268e-06 6.07024e-07 2.92201e-06 0.0005 5.23599e-07 
162 1 0.0164456 0.0147991 0.0128273 -0.000590701 -0.00138564 0.00292693 5.09379e-06 3.45634e-06 -7.47341e-07 0.0005 5.23599e-07 
164 1 0.0222061 0.0150783 0.00977518 0.00371184 -0.0152234 0.0299951 -2.66261e-08 5.19346e-06 -9.77128e-06 0.0005 5.23599e-07 
165 1 0.0175749 0.0237207 0.0158318 0.000419866 0.000668 0.00148537 -2.13149e-06 7.87175e-07 -1.83403e-06 0.0005 5.23599e-07 
166 1 0.0158077 0.0217614 0.0156196 -0.00600845 -0.00580513 -0.0362357 -8.31466e-06 5.36324e-06 -8.12269e-07 0.0005 5.23599e-07 
167 1 0.0163556 0.0237443 0.0138477 0.00162301 0.00454999 -0.000859332 -4.386e-07 2.29565e-06 5.90606e-08 0.0005 5.23599e-07 
168 1 0.0186118 0.0143498 0.0138599 0.000637474 0.00438659 -0.00507254 0 0 -5.1365e-06 0.0005 5.23599e-07 
169 1 0.0198251 0.0238104 0.0142455 0.000666795 -0.00150604 0.000675848 -3.70352e-07 2.66317e-06 -4.60251e-06 0.0005 5.23599e-07 
170 1 0.022445 0.0158374 0.0145705 -0.00309252 0.0038691 0.00179532 0 0 -5.1365e-06 0.0005 5.23599e-07 
171 1 0.0216524 0.014774 0.0128258 0.0193384 -0.00328847 0.0391042 0 0 -5.1365e-06 0.0005 5.23599e-07 
172 1 0.0194176 0.0141028 0.0143996 -0.00056459 -0.00987154 -0.00452912 -2.12282e-05 -6.37708e-06 9.7082e-06 0.0005 5.23599e-07 
173 1 0.0156798 0.0150291 0.013428 -0.00353797 0.00355317 -0.00146506 1.27326e-07 5.61592e-08 -5.04936e-06 0.0005 5.23599e-07 
174 1 0.0202885 0.0231873 0.0136083 0.00518617 -0.00119968 -0.000274137 -2.3022e-05 -3.98123e-06 -3.24099e-05 0.0005 5.23599e-07 
176 1 0.0242712 0.0156735 0.0155351 -0.0270779 -0.0310646 -0.0526584 0 0 -5.1365e-06 0.0005 5.23599e-07 
177 1 0.0216695 0.0228979 0.0149434 -0.00151703 0.0031555 0.00254795 4.57695e-05 4.27783e-05 -3.68868e-05 0.0005 5.23599e-07 
178 1 0.089209 0.0204289 0.00606712 -7.39741e-15 -1.34966e-14 8.92987e-14 -5.29396e-23 8.04681e-21 1.69407e-21 0.0005 5.23599e-07 
180 1 0.0199027 0.0211931 0.0153946 0.00690922 0.004829 0.0034742 -1.95583e-07 -1.24732e-06 -0.000109676 0.0005 5.23599e-07 
182 1 0.0542803 0.0208663 0.0063344 0.0576494 0.070221 -0.111361 0 0 -5.1365e-06 0.0005 5.23599e-07 
183 1 0.0206274 0.024298 0.0139009 -0.00108248 0.000203672 -0.000964161 -3.10715e-06 5.02465e-06 5.30983e-06 0.0005 5.23599e-07 
184 1 0.0229781 0.0225701 0.0161486 -0.000588463 0.000873896 0.000671034 2.67279e-06 -9.43927e-05 -9.22793e-05 0.0005 5.23599e-07 
185 1 0.0164615 0.0238203 0.0148387 0.000143498 0.00107789 -0.000787298 -3.64955e-06 1.30611e-06 3.36472e-06 0.0005 5.23599e-07 
186 1 0.0202198 0.0198242 0.0163964 0.00306715 0.00624992 0.018428 -1.6642e-06 -2.83687e-06 -3.22334e-06 0.0005 5.23599e-07 
187 1 0.0207966 0.0234805 0.0118445 0.00141384 0.00151125 -0.000145354 -8.12652e-06 3.29817e-05 8.91196e-05 0.0005 5.23599e-07 
188 1 0.0232716 0.018667 0.00721671 0.00108055 -0.0503177 0.00520999 7.42024e-05 -4.33607e-05 -0.000130031 0.0005 5.23599e-07 
189 1 0.0187513 0.0233362 0.0109574 0.00301607 -0.007947 -0.0386976 -1.89653e-06 8.35906e-07 -1.14673e-05 0.0005 5.23599e-07 
