ITEM: TIMESTEP
400000
ITEM: NUMBER OF ATOMS
190
ITEM: BOX BOUNDS ff ff ff
-0.02 0.43
-0.02 0.06
-0.02 0.07
ITEM: ATOMS id type x y z vx vy vz fx fy fz radius mass 
1 1 0.0191876 0.0140178 0.0129406 -7.46285e-05 0.00246056 -0.00258912 -1.61356e-06 -4.17965e-06 6.58341e-06 0.0005 5.23599e-07 
2 1 0.0156011 0.0235387 0.0152886 0.0102847 0.00422699 -0.00654144 1.84062e-05 4.49579e-05 1.41221e-05 0.0005 5.23599e-07 
3 1 0.0236668 0.0183942 0.0159 0.00295931 0.0438639 0.0070168 -4.3403e-06 1.50642e-05 9.69349e-06 0.0005 5.23599e-07 
4 1 0.0202323 0.0233995 0.0122387 0.00350262 0.00535796 -0.0356323 -3.46821e-08 1.50367e-08 2.91007e-06 0.0005 5.23599e-07 
5 1 0.0215836 0.0191447 0.0162559 0.00280765 0.0464702 0.00811665 -2.85533e-06 -9.55985e-06 9.25379e-06 0.0005 5.23599e-07 
6 1 0.0459228 0.0202533 0.00590027 0.268625 -0.0319348 0.0362349 0 0 -5.1365e-06 0.0005 5.23599e-07 
7 1 0.02155 0.0227877 0.015429 0.00535472 -0.0304612 -0.0242448 0.000111179 0.000245128 -2.33531e-05 0.0005 5.23599e-07 
8 1 0.0224063 0.0157579 0.0145065 0.00989339 0.00697375 0.0113605 -2.79217e-07 -7.21851e-07 -2.94732e-06 0.0005 5.23599e-07 
9 1 0.0210973 0.0231148 0.0133061 0.000626588 0.0057432 -0.000953825 3.30197e-06 -1.8815e-05 -1.41752e-05 0.0005 5.23599e-07 
10 1 0.017597 0.0146237 0.0119347 0.00409948 0.00180519 -0.002775 -1.41816e-06 -9.04862e-06 1.17881e-06 0.0005 5.23599e-07 
11 1 0.0234541 0.0193549 0.0160785 0.00313262 0.0419425 -0.00074082 1.57172e-05 -3.07957e-05 5.3565e-06 0.0005 5.23599e-07 
12 1 0.0248865 0.0203678 0.0165947 0.000216817 0.000738346 0.00161372 1.77274e-06 2.2456e-06 -1.16157e-05 0.0005 5.23599e-07 
13 1 0.022876 0.0167565 0.0153042 0.00589423 0.0142112 0.00241867 -4.34764e-06 1.17706e-06 -8.67125e-07 0.0005 5.23599e-07 
14 1 0.0211009 0.0234881 0.0121358 0.0010803 0.00166336 -0.00154709 -1.08155e-06 -2.82743e-06 -4.71984e-06 0.0005 5.23599e-07 
15 1 0.0238137 0.0164613 0.0151219 0.00605755 0.00719572 0.0102667 1.13716e-06 -1.13003e-06 8.53812e-07 0.0005 5.23599e-07 
16 1 0.0228031 0.0146387 0.0143699 0.00172547 0.000225509 0.00268948 -8.65451e-07 7.11078e-07 -5.25317e-06 0.0005 5.23599e-07 
17 1 0.0222183 0.0231335 0.013257 -0.00517669 0.0168166 -0.0341508 -2.97059e-05 3.91241e-05 4.99352e-05 0.0005 5.23599e-07 
18 1 0.0226674 0.0150689 0.0134773 0.0158707 0.00185201 0.00669262 1.9914e-05 3.83538e-06 7.02383e-06 0.0005 5.23599e-07 
19 1 0.0155987 0.0192084 0.0160681 0.0275658 0.0204158 -0.00674262 -0.000108656 -3.34917e-05 3.5445e-05 0.0005 5.23599e-07 
20 1 0.0356145 0.0187167 0.00593276 -0.0606648 -0.00823772 -0.00426608 0 0 -5.1365e-06 0.0005 5.23599e-07 
21 1 0.0255413 0.021119 0.0166727 0.000999508 0.00239206 -0.000513707 -8.95779e-07 -1.20925e-06 1.29484e-05 0.0005 5.23599e-07 
22 1 0.0217883 0.0181997 0.0160008 0.00180403 0.0464925 0.00852298 -2.39744e-06 8.50148e-06 2.11851e-06 0.0005 5.23599e-07 
23 1 0.0233102 0.0154693 0.0141295 0.0178669 0.0017873 0.00415449 2.52045e-05 7.92397e-06 1.63257e-05 0.0005 5.23599e-07 
24 1 0.0168642 0.0147454 0.0126038 0.0111679 0.00228839 0.00611768 -2.32799e-06 4.55706e-06 -2.58984e-05 0.0005 5.23599e-07 
25 1 0.0186002 0.014606 0.0119642 0.000458613 0.00628151 -0.0183888 1.26036e-07 2.68363e-06 -9.09581e-07 0.0005 5.23599e-07 
26 1 0.0183202 0.0242529 0.014097 -4.50462e-05 0.00200425 -0.000517988 2.23013e-06 3.40102e-05 -2.33752e-05 0.0005 5.23599e-07 
27 1 0.0230414 0.0212434 0.0153858 0.00618214 0.0164531 -0.0181781 2.90311e-05 -0.000129411 5.62807e-06 0.0005 5.23599e-07 
28 1 0.0179707 0.0211375 0.0163057 -0.00376367 -0.011922 0.0143514 7.07736e-07 -3.54183e-06 3.65415e-07 0.0005 5.23599e-07 
29 1 0.0175444 0.018939 0.015984 0.00763467 0.0170927 -0.0155678 -7.70476e-05 -8.55605e-05 -2.23671e-05 0.0005 5.23599e-07 
30 1 0.0184582 0.0153192 0.0152388 -0.000649047 0.0680292 -0.107982 0 0 -5.1365e-06 0.0005 5.23599e-07 
31 1 0.0159938 0.0216431 0.0151097 0.0081141 0.0115907 -0.0054463 -5.81506e-07 4.99339e-06 -4.83898e-06 0.0005 5.23599e-07 
32 1 0.016503 0.0154899 0.0141582 0.0126054 -0.00410184 -0.00504903 -4.25551e-07 -2.06756e-06 -1.08827e-06 0.0005 5.23599e-07 
33 1 0.0146995 0.0226473 0.0141272 0.00973047 0.00377286 -0.00762563 -2.17381e-06 -7.55706e-06 -7.52076e-06 0.0005 5.23599e-07 
34 1 0.0140654 0.0225185 0.0155029 0.00102279 0.0122954 -0.00715706 1.79768e-06 2.53588e-06 -5.14594e-06 0.0005 5.23599e-07 
35 1 0.0176973 0.0178676 0.0157908 0.000299216 0.0335269 0.0078569 -2.114e-08 1.57683e-07 -1.63696e-07 0.0005 5.23599e-07 
36 1 0.0205119 0.0145025 0.0141493 0.000459424 -0.00251589 0.00157977 0 0 -5.1365e-06 0.0005 5.23599e-07 
37 1 0.0169782 0.0214734 0.0152369 0.00554531 0.0138476 -0.00719079 0 0 -5.1365e-06 0.0005 5.23599e-07 
38 1 0.0174502 0.0150174 0.0133665 0.0172265 -0.000355791 -0.000539505 -4.33066e-05 9.54526e-06 8.43398e-06 0.0005 5.23599e-07 
39 1 0.0206131 0.0179982 0.0166521 -0.00251438 0.0304672 0.00995754 5.81572e-06 7.698e-06 4.98848e-05 0.0005 5.23599e-07 
40 1 0.0220667 0.0163955 0.015782 0.00454084 0.0153728 0.00747115 0 0 -5.1365e-06 0.0005 5.23599e-07 
41 1 0.0182464 0.0233492 0.0146094 0.0137365 -0.0230562 0.0137019 0.000133611 0.000239513 -8.25428e-05 0.0005 5.23599e-07 
42 1 0.0253424 0.0184491 0.0167115 0.0145307 0.01084 0.00227438 -4.74487e-07 1.35151e-06 -1.45916e-06 0.0005 5.23599e-07 
43 1 0.0213764 0.0200989 0.0159723 0.00253232 0.0432583 -0.00688642 5.12921e-06 -2.09626e-05 1.11313e-05 0.0005 5.23599e-07 
44 1 0.0153484 0.0202702 0.0157746 0.0133735 0.00707359 -0.00698227 0 0 -5.1365e-06 0.0005 5.23599e-07 
45 1 0.0192501 0.0196294 0.0167162 0.0111184 -0.0002799 0.000174424 -3.03113e-06 -5.12519e-05 4.70083e-06 0.0005 5.23599e-07 
46 1 0.0213098 0.021082 0.0161445 0.00335152 0.0492203 -0.0111732 5.00323e-06 -1.82147e-05 7.01876e-06 0.0005 5.23599e-07 
47 1 0.0146752 0.0205191 0.0166452 -0.000658396 0.0613111 -0.029942 0 0 -5.1365e-06 0.0005 5.23599e-07 
48 1 0.0203155 0.0150883 0.0149474 -0.00244703 0.00137927 -0.0103458 0 0 -5.1365e-06 0.0005 5.23599e-07 
49 1 0.0235227 0.021974 0.0158674 0.00217914 0.0119706 -0.00367472 3.86615e-05 -3.00346e-05 2.37209e-05 0.0005 5.23599e-07 
50 1 0.0211059 0.0141463 0.0134163 0.000167934 0.00105471 0.00129106 1.37789e-07 -1.75592e-06 5.63373e-06 0.0005 5.23599e-07 
51 1 0.0186831 0.0222218 0.015697 -0.00100751 -0.00388634 0.0148347 -7.03347e-06 7.29906e-06 2.54674e-05 0.0005 5.23599e-07 
52 1 0.0176036 0.0219596 0.0158716 -0.0114037 -0.0131502 0.0123255 -1.27071e-05 -7.39965e-06 -1.7908e-05 0.0005 5.23599e-07 
53 1 0.0157916 0.0182363 0.0158725 0.0152765 -0.00458296 0.0022554 0 0 -5.1365e-06 0.0005 5.23599e-07 
54 1 0.0235085 0.0149715 0.0149967 0.00303629 -0.0034 0.00694269 0 0 -5.1365e-06 0.0005 5.23599e-07 
55 1 0.0232548 0.0202994 0.0158205 0.00374823 0.037884 -0.00866064 1.38171e-05 -4.40181e-05 3.16169e-06 0.0005 5.23599e-07 
56 1 0.0228808 0.0227143 0.0155272 -0.00149016 0.0220737 -0.01119 -2.68941e-06 -3.36904e-06 -5.16876e-06 0.0005 5.23599e-07 
57 1 0.0200757 0.0229066 0.0151597 -0.0181541 0.00649743 0.0265442 3.50734e-05 -0.000161394 3.87681e-05 0.0005 5.23599e-07 
58 1 0.0227025 0.0185962 0.0160641 0.00312008 0.0427653 0.00654322 -6.58777e-06 -2.22253e-07 2.71997e-06 0.0005 5.23599e-07 
59 1 0.0167006 0.0177801 0.0157612 0.00986021 0.0175796 0.00451094 -7.18451e-07 6.99787e-07 3.00277e-07 0.0005 5.23599e-07 
60 1 0.0230639 0.0175497 0.0158966 0.0236827 0.0218723 -0.0054528 0 0 -5.1365e-06 0.0005 5.23599e-07 
61 1 0.0201806 0.0140368 0.013054 -0.000506085 0.000448151 0.00347773 8.02947e-06 -1.13262e-05 6.69242e-06 0.0005 5.23599e-07 
62 1 0.0203769 0.0125105 0.0219728 -0.00223967 0.157773 0.033963 0 0 -5.1365e-06 0.0005 5.23599e-07 
63 1 0.0156609 0.0217748 0.0160446 -0.0149255 -0.00211142 -0.00947206 -1.36866e-05 -6.35926e-06 -2.61499e-06 0.0005 5.23599e-07 
64 1 0.0171734 0.0207016 0.0158433 0.0110939 0.000716413 -0.0204211 0 0 -5.1365e-06 0.0005 5.23599e-07 
65 1 0.0182558 0.0148429 0.0139314 0.00885307 -0.00470645 0.00490254 5.89345e-05 -1.17775e-05 -1.77054e-06 0.0005 5.23599e-07 
66 1 0.0183478 0.0167065 0.016392 -0.00850843 0.00279176 -0.0869477 0 0 -5.1365e-06 0.0005 5.23599e-07 
67 1 0.0186377 0.0148511 0.0130058 -0.00258339 0.00156919 0.000854238 0 0 -5.1365e-06 0.0005 5.23599e-07 
68 1 0.015786 0.0223721 0.0144573 0.00424736 0.00388347 -0.00344481 2.52797e-05 -1.05624e-05 -1.71329e-06 0.0005 5.23599e-07 
69 1 0.0177703 0.0142302 0.0128371 0.00403974 0.000920409 -0.00266799 -3.85879e-06 -1.89113e-06 3.30281e-06 0.0005 5.23599e-07 
70 1 0.0194622 0.0205874 0.0165266 0.0184705 -0.00312822 0.00608481 4.76789e-06 1.55986e-05 -8.14721e-06 0.0005 5.23599e-07 
71 1 0.0193866 0.0148492 0.014644 0.00351352 9.68897e-05 -0.000641784 -1.92267e-06 -2.60351e-05 4.63889e-05 0.0005 5.23599e-07 
72 1 0.0226812 0.0168129 0.0164584 0.0122756 0.0339537 -0.00321017 0 0 -5.1365e-06 0.0005 5.23599e-07 
73 1 0.0212968 0.0148555 0.014726 -0.0042856 -0.00031202 -0.00369051 3.48502e-08 3.4737e-07 -4.69096e-06 0.0005 5.23599e-07 
74 1 0.0153885 0.0176547 0.0168087 0.00586307 0.0314743 0.0685025 0 0 -5.1365e-06 0.0005 5.23599e-07 
75 1 0.0210682 0.0214504 0.0152472 0.00370807 0.0255273 -0.0192571 1.59295e-05 9.79298e-05 2.71555e-05 0.0005 5.23599e-07 
76 1 0.0242375 0.017672 0.0165708 0.0204281 -0.00398477 -0.00525583 -5.49133e-07 5.94495e-07 -3.41726e-06 0.0005 5.23599e-07 
77 1 0.0184965 0.0203372 0.0165927 0.0188027 -0.0027202 0.00122771 -3.6893e-06 -2.52398e-05 7.60567e-06 0.0005 5.23599e-07 
78 1 0.0149028 0.0229029 0.0151145 0.00878572 0.00424395 -0.00662282 2.48502e-05 2.00931e-05 9.06459e-06 0.0005 5.23599e-07 
79 1 0.0219686 0.0154122 0.0159947 -0.0298542 0.0114693 -0.0196096 9.31799e-08 -7.14338e-08 -5.3282e-06 0.0005 5.23599e-07 
80 1 0.0238526 0.0227201 0.0152912 0.00122115 0.00683138 0.0014841 -2.65431e-05 5.05059e-05 2.44881e-05 0.0005 5.23599e-07 
81 1 0.0174758 0.0139151 0.0139107 0.00147613 -0.00110398 -0.00490454 -3.07345e-06 -6.40338e-07 -8.35194e-07 0.0005 5.23599e-07 
82 1 0.023254 0.0211522 0.0163729 -0.0179317 -0.00342313 -0.0126732 -9.55604e-07 8.35303e-06 -7.90275e-06 0.0005 5.23599e-07 
83 1 0.0234017 0.017296 0.0169788 0.0147843 0.0160877 0.0134436 0 0 -5.1365e-06 0.0005 5.23599e-07 
84 1 0.0166594 0.0142882 0.0134689 0.000749653 -0.0036363 -0.00732363 7.12792e-06 -5.18148e-06 1.59971e-05 0.0005 5.23599e-07 
85 1 0.0231354 0.0153301 0.017573 -0.037805 -0.0665689 -0.136158 0 0 -5.1365e-06 0.0005 5.23599e-07 
86 1 0.0169387 0.0226205 0.0155171 -0.008916 -0.00285882 0.000158727 -2.34632e-05 -1.65484e-05 2.68217e-05 0.0005 5.23599e-07 
87 1 0.0224928 0.0150023 0.0152482 -0.0103957 0.00259691 -0.00182498 -9.48091e-08 1.61232e-07 -4.69886e-06 0.0005 5.23599e-07 
88 1 0.0172312 0.0148144 0.0143206 0.00994176 -0.00742995 -0.00476671 -5.79662e-06 3.15935e-06 4.3844e-06 0.0005 5.23599e-07 
89 1 0.0190683 0.0214412 0.016188 0.00781151 -0.00772014 0.0115091 2.13907e-05 2.07598e-05 -6.19811e-06 0.0005 5.23599e-07 
90 1 0.0174174 0.0198383 0.0163992 -0.00395963 0.0153429 -0.00472012 -2.34268e-05 0.000101102 5.30195e-05 0.0005 5.23599e-07 
91 1 0.0245097 0.0221463 0.0157797 0.000281339 0.00312539 0.00220133 1.47545e-06 4.02443e-06 -5.6418e-06 0.0005 5.23599e-07 
92 1 0.0151406 0.0212015 0.0153926 0.00771654 0.00411926 -0.00743301 6.01146e-07 6.57152e-06 3.43611e-06 0.0005 5.23599e-07 
93 1 0.0154026 0.0232873 0.0143511 0.0104953 0.00145908 -0.00737705 5.68389e-05 2.13699e-06 1.39765e-05 0.0005 5.23599e-07 
94 1 0.0167608 0.0222256 0.0146136 0.00738495 0.0122399 -0.0120526 8.31861e-06 7.15918e-06 1.11898e-05 0.0005 5.23599e-07 
95 1 0.014905 0.0219875 0.0148214 0.0100646 0.00449765 -0.00835624 7.12627e-06 2.83834e-06 2.13358e-06 0.0005 5.23599e-07 
96 1 0.019592 0.0148578 0.0156297 0.0277404 0.0230667 -0.0102931 0 0 -5.1365e-06 0.0005 5.23599e-07 
97 1 0.0204603 0.0206482 0.0165502 0.0145398 0.0107271 -0.000645984 -7.12312e-07 3.03045e-06 -2.09346e-06 0.0005 5.23599e-07 
98 1 0.0160234 0.0143677 0.0146928 -0.00327566 0.0158534 -0.0886241 0 0 -5.1365e-06 0.0005 5.23599e-07 
99 1 0.0233018 0.0186212 0.0168643 0.00427004 0.00905349 0.0056097 0 0 -5.1365e-06 0.0005 5.23599e-07 
100 1 0.0226867 0.0220067 0.0148389 0.00573984 0.0304745 -0.0303397 -9.52057e-07 1.5557e-06 1.8781e-06 0.0005 5.23599e-07 
101 1 0.0249816 0.0193819 0.0167297 0.00194198 0.000189771 0.00422927 -1.72101e-06 -1.42469e-05 -2.21401e-06 0.0005 5.23599e-07 
102 1 0.0231125 0.0157888 0.0154155 -0.00101598 0.007482 -0.0174554 0 0 -5.1365e-06 0.0005 5.23599e-07 
103 1 0.0222774 0.0204805 0.0157893 0.00553275 0.0317643 -0.00938598 1.63871e-05 -9.80405e-05 1.59897e-05 0.0005 5.23599e-07 
104 1 0.0195876 0.0143469 0.0137967 -0.00443629 0.00751423 0.00164195 -7.18095e-06 -7.76671e-07 2.46065e-06 0.0005 5.23599e-07 
105 1 0.0166558 0.0217895 0.0161391 -0.0165327 -0.00600485 0.00512596 -3.54062e-06 -8.60386e-06 -3.89197e-06 0.0005 5.23599e-07 
106 1 0.0183896 0.013832 0.0135133 0.00134209 0.000272337 -0.00351594 -2.40134e-06 2.87207e-07 2.01112e-06 0.0005 5.23599e-07 
107 1 0.0225335 0.0219027 0.015997 -0.00826437 0.0217588 -0.00430348 2.68941e-06 3.36904e-06 -5.10425e-06 0.0005 5.23599e-07 
108 1 0.0165453 0.0189082 0.0159564 -0.00909081 0.00618536 0.0029475 0.000128332 3.56048e-05 -3.90232e-05 0.0005 5.23599e-07 
109 1 0.0224805 0.0195675 0.0161372 0.00411938 0.0419776 -0.00112122 1.10622e-05 -4.05383e-05 1.55381e-06 0.0005 5.23599e-07 
110 1 0.0241536 0.0163492 0.0160554 0.0123758 0.000328634 0.00616659 1.68514e-06 -2.43547e-06 1.13171e-05 0.0005 5.23599e-07 
111 1 0.0241822 0.0155791 0.0154179 0.00275556 0.00324111 -0.000750461 0 0 -5.1365e-06 0.0005 5.23599e-07 
112 1 0.0217242 0.0141192 0.0142015 0.00498425 0.00426035 -0.00243683 1.69924e-07 2.51296e-06 5.58221e-07 0.0005 5.23599e-07 
113 1 0.0257983 0.0199574 0.0166876 -0.00252857 0.00376578 0.000454826 -6.09753e-06 -3.58459e-06 8.88683e-07 0.0005 5.23599e-07 
114 1 0.0188227 0.0140639 0.0143841 0.00622257 0.000765702 -0.00453763 -4.43335e-07 9.00125e-07 1.27899e-06 0.0005 5.23599e-07 
115 1 0.0162093 0.020794 0.0155917 0.00444572 0.0150569 0.000552836 5.81506e-07 -4.99339e-06 -5.43403e-06 0.0005 5.23599e-07 
116 1 0.0238861 0.0204134 0.0166059 -0.00128883 0.0111275 -0.00481644 9.55604e-07 -8.35303e-06 -2.37026e-06 0.0005 5.23599e-07 
117 1 0.0226099 0.0226836 0.0140633 0.00802178 0.0100064 -0.0101257 -5.6076e-06 3.14485e-06 -1.98521e-06 0.0005 5.23599e-07 
118 1 0.0220531 0.0213324 0.0153292 0.000869816 0.014329 -0.0180568 -7.07168e-05 0.00018163 8.62787e-05 0.0005 5.23599e-07 
119 1 0.0208536 0.0242516 0.0139987 0.000451085 -0.0122934 -0.00819793 0.000160784 -0.000109203 -9.87984e-05 0.0005 5.23599e-07 
120 1 0.0215543 0.0238569 0.0145927 0.0083014 0.000347501 0.00503852 -3.57579e-06 -7.00803e-07 -7.55815e-06 0.0005 5.23599e-07 
121 1 0.0221732 0.0228059 0.0162305 -0.00356385 0.0285863 -0.00868913 0 0 -5.1365e-06 0.0005 5.23599e-07 
122 1 0.019974 0.0233922 0.0112649 0.00721982 -0.0145362 -0.0231534 -0.000675586 -0.0010161 0.000114229 0.0005 5.23599e-07 
123 1 0.017309 0.0240232 0.0130931 -0.000558367 -0.00121749 0.00130395 -8.59868e-06 8.003e-06 1.21769e-05 0.0005 5.23599e-07 
124 1 0.0197943 0.0232144 0.010391 0.00210928 -0.00639482 -0.0284234 0.000190051 -0.000531423 0.000561506 0.0005 5.23599e-07 
125 1 0.0191086 0.0235753 0.0142134 0.00471725 -0.00436287 -0.00528236 -7.36332e-05 0.000718218 8.51808e-05 0.0005 5.23599e-07 
126 1 0.0183005 0.0240841 0.0129977 -0.000244318 6.05592e-05 0.00220665 -4.83709e-06 3.81088e-07 1.25023e-05 0.0005 5.23599e-07 
127 1 0.0189212 0.0206257 0.00751862 0.000310339 -0.0476193 -0.0193642 -2.76886e-09 -1.69382e-07 1.58076e-07 0.0005 5.23599e-07 
128 1 0.0173277 0.0242875 0.014052 0.00258687 0.00189097 0.0064313 -1.41555e-05 -5.84967e-05 6.19747e-05 0.0005 5.23599e-07 
129 1 0.0216669 0.0238801 0.0135984 -0.00401643 0.00139163 -0.00193418 8.27675e-05 -0.000151667 -6.62115e-05 0.0005 5.23599e-07 
130 1 0.0208125 0.0239876 0.0130005 -0.000912913 0.00180684 -0.00103815 -1.40124e-05 1.51194e-05 5.97009e-06 0.0005 5.23599e-07 
131 1 0.0195023 0.0225657 0.00910925 0.000176578 -0.0280397 -0.0444634 -2.00691e-08 -2.23897e-07 6.78375e-08 0.0005 5.23599e-07 
132 1 0.0231943 0.0232277 0.0147008 0.00105555 -0.0040758 -0.00163587 3.31647e-06 4.55773e-07 -3.29525e-06 0.0005 5.23599e-07 
133 1 0.0163223 0.0234914 0.0146202 0.00943693 0.00905427 0.00588821 8.15247e-07 0.000269411 0.000196231 0.0005 5.23599e-07 
134 1 0.0224678 0.0236561 0.0141638 0.00266732 0.00205284 -0.000397487 -8.38577e-06 4.45479e-06 -2.25029e-06 0.0005 5.23599e-07 
135 1 0.0202544 0.0239591 0.0159696 -0.00568227 0.0091949 0.0209452 1.31462e-05 -1.44983e-07 -1.91963e-05 0.0005 5.23599e-07 
136 1 0.0190509 0.0229543 0.0150543 0.0119923 -0.0115493 0.0156959 0 0 -5.1365e-06 0.0005 5.23599e-07 
137 1 0.0180505 0.0227364 0.0163165 -0.0114502 -0.00448674 0.00976686 -1.27112e-08 3.32399e-07 -5.02108e-06 0.0005 5.23599e-07 
138 1 0.0209154 0.023942 0.0167246 -0.00528992 0.00765486 0.0156761 -9.4622e-08 -4.31796e-07 -5.18399e-06 0.0005 5.23599e-07 
139 1 0.0207085 0.0233149 0.0106962 0.00409288 -0.00452578 -0.0230574 -0.000186904 -0.000206979 0.000788596 0.0005 5.23599e-07 
140 1 0.0230806 0.0208025 0.0176963 -0.0754668 0.0670102 0.045999 0 0 -5.1365e-06 0.0005 5.23599e-07 
141 1 0.0227471 0.0165122 0.0174411 -0.0139645 -0.0495775 0.000208442 0 0 -5.1365e-06 0.0005 5.23599e-07 
142 1 0.0222828 0.023406 0.0151149 0.0016951 0.0194319 0.00238905 0 0 -5.1365e-06 0.0005 5.23599e-07 
143 1 0.0200055 0.0243793 0.0168419 -0.00325889 0.00703796 0.0210136 -1.79413e-05 5.62888e-06 7.89187e-06 0.0005 5.23599e-07 
144 1 0.0192181 0.0222868 0.016731 -0.0215658 0.0112839 0.0283746 2.1691e-06 -3.7924e-07 -5.6823e-06 0.0005 5.23599e-07 
145 1 0.0226796 0.023104 0.0170934 -0.00231822 0.00384063 6.22986e-05 -1.27745e-06 6.50328e-07 -1.68443e-06 0.0005 5.23599e-07 
146 1 0.0189667 0.023086 0.0161199 -0.00938874 0.000255192 0.00956284 0 0 -5.1365e-06 0.0005 5.23599e-07 
147 1 0.0231262 0.018567 0.017861 -0.101472 0.014684 -0.208506 0 0 -5.1365e-06 0.0005 5.23599e-07 
148 1 0.0222251 0.0211289 0.0165504 -0.00991706 0.0245329 0.00991125 0 0 -5.1365e-06 0.0005 5.23599e-07 
149 1 0.0207045 0.0222945 0.0156296 -0.0125905 0.00847573 0.0111923 2.12273e-05 -8.54581e-05 1.86479e-05 0.0005 5.23599e-07 
150 1 0.0231064 0.0222777 0.0167264 0.0013667 0.0029709 0.00426564 -7.85477e-07 -5.3407e-06 -7.3591e-06 0.0005 5.23599e-07 
151 1 0.0211875 0.0168508 0.0163172 -0.00955272 0.00877296 0.0246524 0 0 -5.1365e-06 0.0005 5.23599e-07 
152 1 0.0193779 0.0237752 0.0155231 -0.0055241 0.0024429 0.0102307 1.98199e-05 4.87395e-06 7.08632e-06 0.0005 5.23599e-07 
153 1 0.0179122 0.0227351 0.0153222 -0.00883951 -0.00238978 0.0240443 5.96616e-05 4.43691e-06 7.84997e-05 0.0005 5.23599e-07 
154 1 0.0203028 0.0166929 0.0185087 0.00536138 -0.0921672 -0.26785 0 0 -5.1365e-06 0.0005 5.23599e-07 
155 1 0.0244473 0.0203795 0.0174927 0.00589978 0.00905124 0.00194243 -7.5341e-06 1.87293e-06 5.54525e-06 0.0005 5.23599e-07 
156 1 0.0230556 0.0199249 0.0168748 -0.0114624 0.0378074 0.0119789 0 0 -5.1365e-06 0.0005 5.23599e-07 
157 1 0.0201183 0.0238473 0.0148398 -0.0041454 -0.016888 0.00266337 -5.10537e-05 0.000186819 4.36885e-05 0.0005 5.23599e-07 
158 1 0.0216524 0.0228592 0.0140725 0.00854147 0.0105719 -0.00436832 -1.5854e-05 6.57709e-06 -9.25545e-06 0.0005 5.23599e-07 
159 1 0.019857 0.0232472 0.0165484 -0.0101833 0.00773231 0.0142542 7.29033e-07 -5.46751e-06 -2.51644e-06 0.0005 5.23599e-07 
160 1 0.0183833 0.0236771 0.0155436 -0.000157605 0.00429001 0.0418973 -7.62617e-06 -2.6527e-05 -3.1275e-05 0.0005 5.23599e-07 
161 1 0.023468 0.01627 0.0167835 0.0123479 0.0116332 -0.00655729 0 0 -5.1365e-06 0.0005 5.23599e-07 
162 1 0.0239934 0.0215018 0.016976 -0.0135883 0.00171924 -0.0116815 -6.956e-07 1.62847e-07 -1.31726e-06 0.0005 5.23599e-07 
163 1 0.0267202 0.0189362 0.0245378 -0.0593118 -0.0590958 -0.143287 0 0 -5.1365e-06 0.0005 5.23599e-07 
164 1 0.0172516 0.0235699 0.0154706 -0.000803195 0.00336059 0.014778 -1.42936e-06 6.13125e-05 5.95595e-05 0.0005 5.23599e-07 
165 1 0.0188749 0.0240752 0.0163344 -0.0146751 0.00471914 0.0109214 0 0 -5.1365e-06 0.0005 5.23599e-07 
166 1 0.0207049 0.0226532 0.0141826 0.00547663 0.0206728 -0.0211225 -3.50559e-06 -3.75317e-06 -1.12613e-07 0.0005 5.23599e-07 
167 1 0.0190862 0.0244942 0.0172183 -0.0130887 0.00525859 0.0153266 7.53548e-06 -8.82469e-06 -6.4297e-06 0.0005 5.23599e-07 
168 1 0.0180658 0.0242441 0.016898 -0.0165583 0.0055791 0.0159567 -2.23783e-08 -5.49835e-07 -5.42706e-06 0.0005 5.23599e-07 
169 1 0.0191232 0.0243934 0.0135278 0.000398784 0.000209337 2.04063e-05 1.05092e-05 5.53019e-06 2.23645e-06 0.0005 5.23599e-07 
170 1 0.0242938 0.0186559 0.0167404 0.00507427 -0.00238928 -0.00188482 2.04758e-07 7.94141e-06 1.65361e-05 0.0005 5.23599e-07 
171 1 0.0172806 0.0233981 0.0144869 0.00750695 0.00229019 0.0210182 -4.53726e-06 -0.000322301 -0.000106941 0.0005 5.23599e-07 
172 1 0.0165526 0.0199063 0.0159011 0.000135075 0.00906359 -0.0106427 -5.52209e-06 1.17665e-05 -8.65783e-07 0.0005 5.23599e-07 
173 1 0.0209173 0.0235366 0.0153476 -0.00350386 -0.0180278 -0.0106086 1.96557e-06 -0.000173554 -9.06043e-05 0.0005 5.23599e-07 
174 1 0.0216877 0.0220682 0.0147728 0.00955605 0.0313846 -0.0279286 7.55521e-05 0.000658121 0.000398909 0.0005 5.23599e-07 
175 1 0.0213959 0.0224114 0.0167389 -2.08531e-06 -0.0179595 -0.0218668 0 0 -5.1365e-06 0.0005 5.23599e-07 
176 1 0.0207986 0.0230616 0.0162646 -0.00648959 0.00712336 0.0167043 0 0 -5.1365e-06 0.0005 5.23599e-07 
177 1 0.0199455 0.0239279 0.0138628 -0.0073729 -0.0134814 -0.00777973 -2.16382e-05 0.000187459 -9.74437e-05 0.0005 5.23599e-07 
178 1 0.0219512 0.0174721 0.0166755 0.00701635 0.00534425 -0.0277921 0 0 -5.1365e-06 0.0005 5.23599e-07 
179 1 0.0246438 0.0212748 0.0162512 -0.000723581 0.00220201 0.00116647 -2.60297e-06 6.52544e-06 -3.02443e-06 0.0005 5.23599e-07 
180 1 0.0239638 0.0195114 0.017159 0.00572484 0.0103242 -0.0335739 0 0 -5.1365e-06 0.0005 5.23599e-07 
181 1 0.0163526 0.0228019 0.0163079 -0.00931939 0.00976948 -0.00598735 0 0 -5.1365e-06 0.0005 5.23599e-07 
182 1 0.0196696 0.0222956 0.0158388 0.000216964 0.00535073 0.0355928 1.86745e-05 -6.24384e-06 8.76952e-06 0.0005 5.23599e-07 
183 1 0.015121 0.0222049 0.0167678 -0.00152128 -0.00173282 -0.00167845 2.5394e-06 -1.51607e-06 7.97616e-06 0.0005 5.23599e-07 
184 1 0.018627 0.0212224 0.0170579 0.00488375 -0.0149393 0.0127507 7.57897e-07 -3.07566e-06 1.97998e-06 0.0005 5.23599e-07 
185 1 0.0202473 0.0215498 0.0161735 0.00285109 0.00594813 -0.000343503 0 0 -5.1365e-06 0.0005 5.23599e-07 
186 1 0.0218471 0.0236243 0.0169029 -0.00478862 -0.00376206 -0.0113576 0 0 -5.1365e-06 0.0005 5.23599e-07 
187 1 0.0198245 0.024125 0.012877 -0.000872649 0.00220039 -0.00141517 1.34231e-06 -3.6081e-07 -2.24148e-06 0.0005 5.23599e-07 
188 1 0.0244692 0.0179286 0.0176109 0.00269228 0.0255708 -0.0190884 0 0 -5.1365e-06 0.0005 5.23599e-07 
189 1 0.015944 0.0225935 0.0154192 -0.00333628 0.00615768 -0.0036131 6.55901e-06 2.76025e-06 6.93597e-06 0.0005 5.23599e-07 
190 1 0.0174978 0.0235606 0.0164396 -0.00807486 -0.00164943 0.013046 -1.35102e-06 -1.09113e-06 3.69303e-06 0.0005 5.23599e-07 
