ITEM: TIMESTEP
5000000
ITEM: NUMBER OF ATOMS
145
ITEM: BOX BOUNDS ff ff ff
-0.02 0.43
-0.02 0.06
-0.02 0.07
ITEM: ATOMS id type x y z vx vy vz fx fy fz radius mass 
1 1 0.0226601 0.0230972 0.0132909 0.00324743 -0.0124074 -0.00442158 0.000218459 0.000776508 -0.000586588 0.0005 5.23599e-07 
2 1 0.0251 0.0197795 0.0166957 0.0106729 -0.0154403 -0.00156415 0 0 -5.1365e-06 0.0005 5.23599e-07 
3 1 0.0236214 0.0156984 0.0144457 0.0093978 0.0189892 0.0352697 0 0 -5.1365e-06 0.0005 5.23599e-07 
4 1 0.0229634 0.0219696 0.0149305 0.00366794 0.00239168 -0.00107394 8.62244e-06 3.59043e-05 -5.52442e-05 0.0005 5.23599e-07 
5 1 0.0231181 0.0226811 0.0140427 -0.0151954 0.0744082 0.0366138 -7.89512e-06 -0.000528143 -0.000327933 0.0005 5.23599e-07 
6 1 0.0592595 0.0187057 0.00589343 7.1972e-15 -1.51126e-14 -1.82183e-13 -6.51686e-19 -6.99173e-19 3.21873e-20 0.0005 5.23599e-07 
7 1 0.028119 0.0216302 0.0149076 0.00179108 0.0354866 -0.0298511 -1.12723e-07 1.08049e-07 -3.88893e-07 0.0005 5.23599e-07 
10 1 0.0188498 0.0244303 0.0137162 0.000762337 0.00393459 -0.00417232 3.25288e-05 0.00011543 -0.000122756 0.0005 5.23599e-07 
11 1 0.0361919 0.0148113 0.0117622 -0.000137342 0.000923153 0.0539464 5.52857e-09 2.28388e-07 2.22998e-08 0.0005 5.23599e-07 
13 1 0.0233849 0.0165311 0.0151683 0.0131995 -0.00619077 -0.00843184 -6.16274e-07 -1.25431e-06 1.12624e-06 0.0005 5.23599e-07 
14 1 0.0237555 0.015271 0.0135473 0.00629933 0.0190249 0.0303802 -1.22956e-06 4.01193e-06 5.93698e-06 0.0005 5.23599e-07 
15 1 0.0336526 0.0223976 0.0537333 -0.0401684 0.0399486 -0.170937 0 0 -5.1365e-06 0.0005 5.23599e-07 
17 1 0.0195922 0.0146259 0.0119311 5.54762e-06 -0.00139258 0.00222624 1.33399e-09 -4.74061e-07 1.20222e-06 0.0005 5.23599e-07 
19 1 0.0168451 0.022988 0.01389 0.0207813 -0.0249978 -0.0379496 0 0 -5.1365e-06 0.0005 5.23599e-07 
20 1 0.0348057 0.0188147 0.00571237 2.38302e-20 5.18229e-20 1.42474e-19 -4.76456e-22 -1.05879e-22 0 0.0005 5.23599e-07 
22 1 0.0203377 0.0189593 0.00717545 -0.000417754 -0.0157896 -0.00182941 -8.37223e-06 0.000175357 -3.73843e-05 0.0005 5.23599e-07 
23 1 0.023428 0.0148948 0.0150662 0.0381725 -0.072945 -0.0629128 0 0 -5.1365e-06 0.0005 5.23599e-07 
24 1 0.0287043 0.0203856 0.00592074 -1.63696e-14 1.90149e-16 -1.92034e-13 -9.52912e-22 -1.17406e-19 0 0.0005 5.23599e-07 
25 1 0.0312383 0.0169224 0.00771648 0.000731308 -0.027824 0.0144181 3.57387e-06 3.91096e-05 -1.49977e-05 0.0005 5.23599e-07 
27 1 0.0307867 0.0153203 0.00935457 0.00268514 -0.0211419 0.0400233 -4.1627e-06 -6.034e-06 1.75517e-05 0.0005 5.23599e-07 
28 1 0.0187457 0.0141212 0.0127773 0.00347101 -0.00246901 0.00396651 0 0 -5.1365e-06 0.0005 5.23599e-07 
29 1 0.0194375 0.0226725 0.0154788 0.00448702 0.0828824 -0.0199764 0 0 -5.1365e-06 0.0005 5.23599e-07 
30 1 0.0148324 0.0229746 0.0151449 0.000174603 0.0884695 -0.146065 0 0 -5.1365e-06 0.0005 5.23599e-07 
31 1 0.0310263 0.0190318 0.0057217 -3.03543e-08 2.92197e-10 2.58774e-09 -1.85768e-10 1.74257e-12 1.58367e-11 0.0005 5.23599e-07 
32 1 0.0232156 0.0211306 0.0154923 0.00777629 0.006486 0.00837509 -1.19746e-05 -2.30312e-05 -7.2439e-06 0.0005 5.23599e-07 
34 1 0.0185191 0.0146244 0.0119335 -0.000776571 0.00122303 -0.00107186 3.25639e-06 5.88196e-06 1.61351e-06 0.0005 5.23599e-07 
35 1 0.0325869 0.0223974 0.0087562 0.00268628 -0.0282042 -0.0313797 -3.50251e-06 1.7938e-05 1.49607e-05 0.0005 5.23599e-07 
36 1 0.0159455 0.0235177 0.014033 0.0198619 -0.0208074 -0.0359232 0 0 -5.1365e-06 0.0005 5.23599e-07 
37 1 0.022794 0.0217439 0.0167413 0.00197015 0.0279304 0.134047 0 0 -5.1365e-06 0.0005 5.23599e-07 
40 1 0.0334184 0.023341 0.012324 4.16964e-05 0.00693257 -0.0336767 -3.67923e-06 1.03818e-07 -4.43298e-05 0.0005 5.23599e-07 
41 1 0.029408 0.0163919 0.0148258 0.00159079 0.0363916 0.033036 3.4255e-07 -7.04769e-07 -5.47461e-07 0.0005 5.23599e-07 
42 1 0.0201738 0.0239493 0.0137846 0.00778521 0.00110965 0.00673732 0 0 -5.1365e-06 0.0005 5.23599e-07 
44 1 0.0185998 0.0149604 0.0136812 0.00636409 -0.00161795 0.010613 -2.67076e-06 -3.78132e-07 -2.64736e-06 0.0005 5.23599e-07 
45 1 0.0245531 0.0221584 0.0158917 0.00391088 0.00254052 0.00946478 0 0 -5.1365e-06 0.0005 5.23599e-07 
46 1 0.0241136 0.014798 0.0122332 0.00109463 0.00870069 0.04846 -5.16591e-08 2.51442e-07 1.68391e-07 0.0005 5.23599e-07 
47 1 0.0193472 0.017705 0.0189264 -0.171329 -0.0405277 -0.0483903 0 0 -5.1365e-06 0.0005 5.23599e-07 
49 1 0.0199145 0.0140672 0.0128598 0.000630052 0.00461889 -0.00999884 1.52372e-06 3.18352e-07 1.29343e-06 0.0005 5.23599e-07 
50 1 0.019125 0.0164789 0.00802019 0.00135787 -0.0362237 0.0248752 5.74313e-07 5.80797e-06 -4.54564e-06 0.0005 5.23599e-07 
51 1 0.0212338 0.0232934 0.010723 -0.00240505 -0.0101244 -0.05127 4.99872e-06 1.988e-07 -2.14076e-06 0.0005 5.23599e-07 
53 1 0.0203652 0.0240737 0.0127296 0.00206331 0.00089122 0.0194855 9.65285e-06 -1.91299e-06 3.38443e-05 0.0005 5.23599e-07 
54 1 0.0267383 0.0182025 0.00597096 -1.69484e-14 -2.72857e-15 2.76309e-13 9.52912e-22 -3.90429e-21 0 0.0005 5.23599e-07 
55 1 0.0331384 0.0233526 0.0108545 0.000714857 -0.00416513 -0.0536845 8.98651e-08 5.20066e-08 7.1197e-07 0.0005 5.23599e-07 
57 1 0.0245069 0.0197151 0.0158931 0.0251044 0.0243116 -0.00199144 -1.25369e-05 1.05197e-05 2.54e-05 0.0005 5.23599e-07 
59 1 0.0229236 0.0185022 0.0159126 0.00328246 0.0368722 0.00456889 -2.0204e-05 -1.40665e-05 8.21707e-06 0.0005 5.23599e-07 
60 1 0.0195775 0.0181486 0.00727946 0.000922431 -0.0504175 0.00962425 6.23997e-07 1.75482e-06 -2.02075e-07 0.0005 5.23599e-07 
61 1 0.0295848 0.0197284 0.00584514 5.86303e-14 -3.48859e-14 -2.88932e-13 3.02135e-16 -2.27703e-16 -2.59395e-17 0.0005 5.23599e-07 
63 1 0.0278785 0.0224806 0.0139925 0.000238992 0.0325187 -0.0415689 -2.00241e-08 -1.42007e-07 -1.96037e-07 0.0005 5.23599e-07 
64 1 0.013812 0.0209421 0.0176147 -0.0539494 0.150311 0.174543 0 0 -5.1365e-06 0.0005 5.23599e-07 
65 1 0.0239752 0.0168352 0.0169151 -0.145416 -0.0513906 0.054402 0 0 -5.1365e-06 0.0005 5.23599e-07 
66 1 0.0245079 0.0208038 0.0167265 0.00183481 0.00339682 0.0137021 0 0 -5.1365e-06 0.0005 5.23599e-07 
67 1 0.0343526 0.0207303 0.015371 0.000975914 0.0458238 -0.0210253 -6.02988e-08 2.21144e-08 -2.69028e-07 0.0005 5.23599e-07 
68 1 0.0341884 0.0215422 0.0147822 -0.00440889 0.0483514 -0.0364609 -6.27105e-07 3.5965e-08 2.14104e-07 0.0005 5.23599e-07 
69 1 0.0316025 0.0182499 0.0072454 0.00636716 -0.0376508 0.00819414 -8.02881e-06 -3.38029e-05 9.94517e-06 0.0005 5.23599e-07 
70 1 0.0189345 0.0157588 0.00871553 0.000370045 -0.0341634 0.0387336 -7.27672e-09 1.12358e-07 2.12261e-07 0.0005 5.23599e-07 
71 1 0.0251312 0.0214137 0.0162263 -0.00102385 0.00268867 0.000585244 0 0 -5.1365e-06 0.0005 5.23599e-07 
73 1 0.0180162 0.0148235 0.0128763 0.00768221 0.00170755 0.0100454 0 0 -5.1365e-06 0.0005 5.23599e-07 
74 1 0.0243121 0.0161442 0.0150214 0.0269362 0.0342494 0.0138302 0 0 -5.1365e-06 0.0005 5.23599e-07 
75 1 0.0256436 0.0206023 0.0165195 -0.00379034 -0.00510356 -0.00297781 0 0 -5.1365e-06 0.0005 5.23599e-07 
78 1 0.0193909 0.0241113 0.0129391 -0.000465734 0.00253801 -0.00102009 -2.79713e-06 6.21729e-06 2.1475e-06 0.0005 5.23599e-07 
79 1 0.0224608 0.0197816 0.00583582 -1.85953e-15 1.1432e-15 -1.81976e-14 4.8175e-20 3.10226e-20 -4.23516e-21 0.0005 5.23599e-07 
81 1 0.0216288 0.0175976 0.0177472 0.00317793 -0.000262367 -0.16195 0 0 -5.1365e-06 0.0005 5.23599e-07 
82 1 0.0299872 0.0187749 0.00581007 -2.22599e-12 2.0697e-14 5.47251e-13 -4.08991e-15 3.22014e-17 9.39546e-17 0.0005 5.23599e-07 
83 1 0.0177658 0.0242585 0.0141 0.00566812 0.002152 -0.0121554 0.000121313 -0.000202033 9.95348e-05 0.0005 5.23599e-07 
84 1 0.0185269 0.0236042 0.0141757 0.0317787 0.0372936 -0.0459431 -3.96081e-05 -0.000140016 0.000138187 0.0005 5.23599e-07 
85 1 0.0264186 0.0160649 0.0146519 0.00117077 0.0333488 0.0308636 -5.735e-05 0.000193234 0.000194497 0.0005 5.23599e-07 
87 1 0.0179127 0.0139772 0.0134389 0.00511216 0.000666614 -0.000293868 0 0 -5.1365e-06 0.0005 5.23599e-07 
88 1 0.0199331 0.0144834 0.0137707 -0.0118933 0.00445135 -0.0034799 0 0 -5.1365e-06 0.0005 5.23599e-07 
90 1 0.0225073 0.0209257 0.0162049 0.0100525 0.0517545 0.0448547 0 0 -5.1365e-06 0.0005 5.23599e-07 
92 1 0.0235824 0.0201387 0.0159239 0.00480042 0.0227369 0.00952337 -1.26517e-07 -6.13505e-06 8.66583e-06 0.0005 5.23599e-07 
93 1 0.0296175 0.0155234 0.0139887 0.000578509 0.0251071 0.0394739 -7.15158e-08 1.11725e-06 9.81043e-07 0.0005 5.23599e-07 
95 1 0.0271743 0.0213589 0.00782881 -0.206922 3.35413 -2.76678 -0.0302066 -0.0849998 0.832043 0.0005 5.23599e-07 
96 1 0.0220953 0.0227409 0.0139819 0.0110776 0.00290861 -0.0223642 0.000437799 0.000598802 0.00043521 0.0005 5.23599e-07 
97 1 0.0210559 0.0161978 0.0162573 -0.0137461 -0.137163 0.0681833 0 0 -5.1365e-06 0.0005 5.23599e-07 
101 1 0.0234881 0.020989 0.0164446 0.0138534 0.0221474 0.0119415 0 0 -5.1365e-06 0.0005 5.23599e-07 
102 1 0.027544 0.0231672 0.0128322 0.000777738 0.0172953 -0.0415522 1.10301e-06 -7.25711e-07 4.28149e-08 0.0005 5.23599e-07 
106 1 0.0289359 0.0178655 0.00589895 -8.71375e-15 8.27906e-17 -1.02212e-13 -7.41154e-22 1.32638e-19 0 0.0005 5.23599e-07 
107 1 0.0244546 0.0170406 0.0154607 -0.00156948 0.0213539 0.0106658 1.1869e-07 -6.13436e-08 5.85927e-07 0.0005 5.23599e-07 
108 1 0.0220448 0.0221637 0.0147362 0.00929748 -0.000381552 -0.0191137 4.52668e-05 0.000413159 8.25717e-05 0.0005 5.23599e-07 
109 1 0.0257593 0.0191373 0.00717399 0.00322523 -0.0394499 0.00102452 -2.06389e-07 -4.32887e-07 1.65647e-07 0.0005 5.23599e-07 
110 1 0.0180169 0.0175186 0.0198327 0.112622 0.155615 -0.27601 0 0 -5.1365e-06 0.0005 5.23599e-07 
111 1 0.0356287 0.0155908 0.0139993 -9.74198e-06 0.0286479 0.0446816 -2.28443e-08 1.99791e-07 -8.32786e-08 0.0005 5.23599e-07 
112 1 0.0216559 0.0143094 0.0137716 -0.000485675 0.00427541 -0.0099923 1.57736e-06 3.27663e-06 8.2463e-06 0.0005 5.23599e-07 
113 1 0.0153623 0.0231604 0.0177822 -0.129512 -0.0106661 -0.0851188 0 0 -5.1365e-06 0.0005 5.23599e-07 
114 1 0.0321799 0.0209975 0.00764477 0.00565289 0.0040021 -0.00203809 -0.000230713 -2.15334e-05 1.82415e-06 0.0005 5.23599e-07 
115 1 0.0324019 0.0216692 0.00803763 0.0098651 0.00290224 -0.00431294 -0.000185826 -7.65284e-05 -0.000166322 0.0005 5.23599e-07 
116 1 0.0226117 0.0199569 0.0159081 0.0015445 0.0440558 -0.00322738 8.67571e-07 -6.81853e-06 3.08028e-06 0.0005 5.23599e-07 
117 1 0.0230095 0.0193644 0.0239072 0.0620169 -0.0721078 -0.101488 0 0 -5.1365e-06 0.0005 5.23599e-07 
118 1 0.0346391 0.0196418 0.01577 0.2173 -0.195556 0.0830703 -0.0312048 -0.00869906 -0.0106006 0.0005 5.23599e-07 
121 1 0.021524 0.0233487 0.0125414 0.00852972 0.0152109 -0.0343001 -2.84078e-05 -1.2082e-07 -5.85174e-05 0.0005 5.23599e-07 
122 1 0.0354862 0.0197731 0.00599028 3.71489e-15 2.12958e-14 -8.26985e-14 -4.26508e-19 1.90582e-21 -1.86347e-20 0.0005 5.23599e-07 
123 1 0.0216507 0.0151084 0.0158801 -0.058661 -0.089543 0.0216914 0 0 -5.1365e-06 0.0005 5.23599e-07 
124 1 0.0337093 0.0189563 0.00569961 2.69046e-20 -5.35468e-19 1.00758e-19 -1.98523e-23 0 0 0.0005 5.23599e-07 
125 1 0.0230547 0.0223133 0.0159349 -0.0181692 -0.0252253 0.0605964 0 0 -5.1365e-06 0.0005 5.23599e-07 
126 1 0.0260578 0.0204928 0.00744468 -0.000155497 -0.0480594 -0.0177483 6.75311e-08 -1.50065e-07 2.06882e-07 0.0005 5.23599e-07 
128 1 0.024319 0.0147889 0.0111268 0.000144973 -0.00681519 0.0527776 -1.45802e-08 2.0058e-07 8.31072e-08 0.0005 5.23599e-07 
129 1 0.0175831 0.0231722 0.0131832 0.0137306 0.0122921 -0.0209226 -2.61518e-05 -1.37275e-05 -5.83732e-06 0.0005 5.23599e-07 
130 1 0.0243769 0.0206958 0.0157406 0.0105958 0.0143283 0.0088718 -3.50236e-07 4.69147e-06 5.27939e-06 0.0005 5.23599e-07 
131 1 0.0222705 0.0214029 0.0153292 0.00856192 0.00775159 0.00547531 -1.79966e-05 4.76943e-05 -6.90585e-05 0.0005 5.23599e-07 
132 1 0.0226322 0.0233437 0.0145471 -0.000798385 0.0386126 0.00886624 -0.000578181 0.00216368 0.000615508 0.0005 5.23599e-07 
133 1 0.0283313 0.0207859 0.0154707 0.000421158 0.0488654 -0.0192831 5.22746e-10 -1.4062e-08 -2.49767e-07 0.0005 5.23599e-07 
134 1 0.0302862 0.0147598 0.0111959 0.00623292 -0.00305716 -0.00527177 1.16131e-07 6.56907e-07 -1.67122e-06 0.0005 5.23599e-07 
135 1 0.0236936 0.0191375 0.0159608 0.0149313 0.0272626 -0.00072234 2.17844e-05 3.02403e-05 1.05644e-05 0.0005 5.23599e-07 
136 1 0.0328798 0.023074 0.00989797 0.00230959 -0.0187709 -0.043436 -9.63192e-08 -1.7199e-08 2.72402e-07 0.0005 5.23599e-07 
137 1 0.0300788 0.014907 0.0122649 0.000778637 0.0101729 0.0489601 -6.7901e-08 2.67391e-07 1.41801e-07 0.0005 5.23599e-07 
138 1 0.0119723 0.0144047 0.0252543 0.0341234 -0.126056 -0.0293679 0 0 -5.1365e-06 0.0005 5.23599e-07 
139 1 0.0193597 0.01488 0.0130363 0.000167112 0.00212863 0.00213838 -4.31682e-07 -1.37993e-07 -1.7598e-06 0.0005 5.23599e-07 
141 1 0.0212763 0.0234185 0.0116259 0.00111401 0.00350884 -0.0494064 -6.6555e-06 3.78553e-06 -1.69363e-05 0.0005 5.23599e-07 
142 1 0.031017 0.0161625 0.0083306 0.00281293 -0.0370436 0.0295009 -5.65057e-07 -2.07238e-05 1.94875e-05 0.0005 5.23599e-07 
143 1 0.0245567 0.0194384 0.00584936 2.09904e-14 3.45196e-15 -3.4245e-13 1.76289e-20 -4.11122e-19 -2.5411e-21 0.0005 5.23599e-07 
144 1 0.0237044 0.0177166 0.0157387 -0.0119905 0.0274142 0.00942758 4.63138e-07 1.64298e-07 -1.3376e-06 0.0005 5.23599e-07 
145 1 0.0213436 0.0242156 0.0141034 0.00179881 -0.0142454 0.0106752 -0.000370805 0.000103129 -0.000112841 0.0005 5.23599e-07 
146 1 0.024704 0.0183612 0.0158995 0.00739309 0.025987 0.00650933 -3.92794e-06 8.08557e-06 1.66223e-05 0.0005 5.23599e-07 
147 1 0.020843 0.0140959 0.0132302 -0.00396876 0.00045269 -0.00322996 -2.67347e-06 -8.43576e-07 -2.27507e-06 0.0005 5.23599e-07 
148 1 0.0264753 0.0219024 0.00833117 0.0133353 -0.169272 -0.0195579 -0.00374934 -0.0107381 0.0314914 0.0005 5.23599e-07 
149 1 0.0238828 0.0227831 0.015486 0.00161719 -0.0022481 -0.00148603 8.047e-05 -2.87691e-05 4.94952e-05 0.0005 5.23599e-07 
150 1 0.0229235 0.0231914 0.0192202 0.0141719 0.00552191 -0.194392 0 0 -5.1365e-06 0.0005 5.23599e-07 
151 1 0.0454623 0.0165053 0.00632503 -6.83514e-15 -3.80121e-14 -2.61331e-13 -5.03138e-19 -1.891e-19 4.06576e-20 0.0005 5.23599e-07 
152 1 0.0220633 0.0161085 0.0339985 -0.0443232 0.071874 0.0337748 0 0 -5.1365e-06 0.0005 5.23599e-07 
153 1 0.0173349 0.0175988 0.021044 0.126377 0.0913671 -0.244368 0 0 -5.1365e-06 0.0005 5.23599e-07 
154 1 0.0241042 0.0215201 0.0152648 0.00444256 0.00899417 0.00507274 -1.3767e-05 6.95975e-06 1.46046e-05 0.0005 5.23599e-07 
155 1 0.0318698 0.0197744 0.0072969 0.000337973 -0.0509588 -0.0093399 -1.29127e-08 -1.24635e-07 2.09646e-07 0.0005 5.23599e-07 
158 1 0.0372285 0.0203986 0.00609172 -4.83018e-15 1.45759e-14 -6.82022e-14 -4.30399e-19 -4.21399e-19 -6.26804e-20 0.0005 5.23599e-07 
159 1 0.0232428 0.0235161 0.0152595 0.00853161 -0.00502014 0.0170537 -0.000273573 0.000541864 -9.80104e-05 0.0005 5.23599e-07 
160 1 0.0169691 0.0234297 0.0123181 0.0153031 0.00185551 -0.0203491 -1.24457e-06 4.75245e-07 -4.02377e-06 0.0005 5.23599e-07 
162 1 0.0181504 0.0215399 0.0157564 -0.0603521 -0.0111536 -0.107944 0 0 -5.1365e-06 0.0005 5.23599e-07 
164 1 0.0125017 0.0188343 0.0159792 -0.00376677 0.0210515 -0.0694845 0 0 -5.1365e-06 0.0005 5.23599e-07 
165 1 0.0199741 0.0172351 0.00759882 -0.0326623 -6.66214 -6.48776 0.00698606 -0.0980355 -0.342661 0.0005 5.23599e-07 
166 1 0.0221033 0.0237011 0.0138118 0.00655154 0.00266395 0.0165156 -0.000394701 0.000777631 0.000427644 0.0005 5.23599e-07 
167 1 0.0202378 0.0210573 0.00773003 0.00116261 -0.0438739 -0.0215963 -1.37066e-07 -3.88017e-07 4.47394e-08 0.0005 5.23599e-07 
168 1 0.0238233 0.0222329 0.0146375 0.000572827 0.0013863 0.000264659 -4.11278e-06 -2.01195e-06 8.4662e-06 0.0005 5.23599e-07 
169 1 0.0216352 0.0144892 0.0205627 0.152192 0.029849 -0.301311 0 0 -5.1365e-06 0.0005 5.23599e-07 
170 1 0.0176163 0.0237643 0.0160596 0.0677561 0.0185491 -0.0478404 0 0 -5.1365e-06 0.0005 5.23599e-07 
171 1 0.0172004 0.0240882 0.0132947 0.00169011 0.00422425 -0.00662274 4.23021e-05 -6.29171e-05 0.000113754 0.0005 5.23599e-07 
172 1 0.0272017 0.0233819 0.0111793 0.000246053 -0.00118416 -0.0535254 -4.28891e-09 -2.44518e-07 -6.06576e-08 0.0005 5.23599e-07 
173 1 0.0182921 0.0240707 0.0129688 5.58297e-05 0.00251598 -0.00139518 1.75311e-06 7.77209e-06 -7.2902e-06 0.0005 5.23599e-07 
176 1 0.0249431 0.0157594 0.00868486 0.00221721 -0.0318902 0.0401553 1.29917e-05 -1.71409e-06 3.17468e-06 0.0005 5.23599e-07 
177 1 0.0291242 0.0173994 0.0154656 -0.000261267 0.0488505 0.0238031 -4.49981e-08 1.80647e-07 -1.6871e-07 0.0005 5.23599e-07 
178 1 0.089209 0.0204289 0.00606712 -7.39741e-15 -1.34986e-14 8.92984e-14 0 -4.44692e-21 -8.47033e-22 0.0005 5.23599e-07 
180 1 0.0209105 0.0223285 0.0158529 -0.236382 -0.284473 0.361643 0 0 -5.1365e-06 0.0005 5.23599e-07 
182 1 0.0547713 0.0184279 0.005953 5.43521e-15 7.20861e-15 1.04269e-13 5.39242e-19 -5.68994e-19 1.18585e-20 0.0005 5.23599e-07 
183 1 0.0201566 0.0233394 0.014993 -0.0151334 0.0918224 -0.0257437 0 0 -5.1365e-06 0.0005 5.23599e-07 
185 1 0.0212137 0.0239643 0.0131925 0.00647311 -0.00532193 0.00286379 4.99955e-06 6.48751e-05 8.28699e-06 0.0005 5.23599e-07 
187 1 0.0219993 0.0221695 0.015947 -0.0708939 -0.143506 0.133013 0 0 -5.1365e-06 0.0005 5.23599e-07 
188 1 0.022504 0.0145379 0.0142499 -0.00460915 -0.00742617 0.0128221 -6.67287e-07 -2.36901e-05 4.37592e-05 0.0005 5.23599e-07 
189 1 0.016218 0.0232338 0.0130499 0.0141909 0.00352466 -0.0134355 -1.5604e-07 2.21925e-06 -1.87335e-06 0.0005 5.23599e-07 
