ITEM: TIMESTEP
1200000
ITEM: NUMBER OF ATOMS
182
ITEM: BOX BOUNDS ff ff ff
-0.02 0.43
-0.02 0.06
-0.02 0.07
ITEM: ATOMS id type x y z vx vy vz fx fy fz radius mass 
1 1 0.0215703 0.0152512 0.0155166 0.040053 0.0380868 0.00322947 0 0 -5.1365e-06 0.0005 5.23599e-07 
2 1 0.0172109 0.0240454 0.0132042 0.00520111 0.00973933 -0.00615071 0 0 -5.1365e-06 0.0005 5.23599e-07 
3 1 0.0183658 0.0178074 0.0166876 -0.00449351 0.0450412 0.00444719 0 0 -5.1365e-06 0.0005 5.23599e-07 
4 1 0.0168806 0.0159189 0.0286242 0.132699 -0.292906 0.153042 0 0 -5.1365e-06 0.0005 5.23599e-07 
5 1 0.0183012 0.0227181 0.0142956 0.00783363 0.0205036 -0.00904581 2.52007e-05 2.29426e-05 0.000223953 0.0005 5.23599e-07 
6 1 0.0546579 0.01997 0.0058506 -1.2728e-14 -1.68374e-14 -2.43748e-13 1.70206e-18 -6.07799e-19 -4.48927e-20 0.0005 5.23599e-07 
7 1 0.0194948 0.0231839 0.0163112 -0.00268563 -0.0180451 -0.0062703 0 0 -5.1365e-06 0.0005 5.23599e-07 
9 1 0.0217875 0.021476 0.0161639 0.0452166 0.011133 -0.0174567 0 0 -5.1365e-06 0.0005 5.23599e-07 
10 1 0.0193304 0.0223414 0.015785 0.0115613 -0.00273313 0.00615562 0 0 -5.1365e-06 0.0005 5.23599e-07 
11 1 0.0266139 0.0147389 0.0115226 0.00366693 -0.00220447 0.0264242 1.85744e-07 1.07173e-08 -1.17306e-06 0.0005 5.23599e-07 
12 1 0.0200126 0.0198938 0.0158793 0.0230896 -0.00109965 0.00451491 0 0 -5.1365e-06 0.0005 5.23599e-07 
13 1 0.0184423 0.0219571 0.0160609 -0.00602869 0.00607865 -0.00695223 0 0 -5.1365e-06 0.0005 5.23599e-07 
14 1 0.00887765 0.0173929 0.0335782 0.216101 0.120916 -0.322875 0 0 -5.1365e-06 0.0005 5.23599e-07 
15 1 0.0216821 0.0203532 0.0165683 5.33268e-07 0.0577094 -0.0145791 -1.41536e-09 -8.84498e-08 -3.38824e-07 0.0005 5.23599e-07 
16 1 0.0256266 0.0193829 0.0159415 0.000150735 0.0248332 0.00669684 -1.6418e-06 3.79936e-06 -3.54133e-06 0.0005 5.23599e-07 
17 1 0.0206811 0.0177793 0.0167685 -0.0520118 -0.0235838 0.0116669 8.56116e-05 6.62406e-06 7.57889e-05 0.0005 5.23599e-07 
19 1 0.018759 0.0232314 0.0129317 0.00600916 0.00121516 -0.00719351 -9.10669e-05 -1.75026e-05 0.0001732 0.0005 5.23599e-07 
20 1 0.0345955 0.0188418 0.00570992 8.70798e-20 -7.24606e-21 3.48289e-20 0 0 0 0.0005 5.23599e-07 
21 1 0.0258634 0.0197887 0.0168237 0.00336043 0.0151563 0.0103624 4.84828e-06 -6.84171e-07 1.70593e-06 0.0005 5.23599e-07 
22 1 0.0179342 0.0237832 0.0235173 -0.147058 0.0226727 -0.0402752 0 0 -5.1365e-06 0.0005 5.23599e-07 
23 1 0.0261987 0.0189489 0.0173545 0.00146468 0.00268249 0.00183536 1.74633e-06 -1.06983e-05 -5.60347e-06 0.0005 5.23599e-07 
24 1 0.0164256 0.0211453 0.0163144 0.0069815 0.0121927 -0.00936195 0 0 -5.1365e-06 0.0005 5.23599e-07 
25 1 0.0213599 0.0175079 0.0156708 0.0241164 0.0374934 0.0178468 0 0 -5.1365e-06 0.0005 5.23599e-07 
26 1 0.0184896 0.0235716 0.0148841 0.0112715 -0.00217425 -0.00443846 0 0 -5.1365e-06 0.0005 5.23599e-07 
27 1 0.0184714 0.034631 0.0440022 -0.0633435 -0.000134887 0.0988465 0 0 -5.1365e-06 0.0005 5.23599e-07 
28 1 0.0166477 0.022015 0.0167566 -0.00250935 0.0115719 -0.00996709 -4.33737e-06 4.94755e-06 3.92739e-06 0.0005 5.23599e-07 
29 1 0.0217722 0.0151126 0.00970959 0.00156971 -0.0213771 0.0365083 6.61826e-06 1.34747e-05 -3.47119e-05 0.0005 5.23599e-07 
30 1 0.0228373 0.0194544 0.0167866 -3.22301e-05 0.061372 0.0105601 0 0 -5.1365e-06 0.0005 5.23599e-07 
31 1 0.0209752 0.0140901 0.0135539 0.00941946 -0.0058223 0.0259005 -3.05678e-05 -3.35258e-05 -1.03604e-06 0.0005 5.23599e-07 
32 1 0.0192068 0.0237696 0.0155529 0.000394013 -0.00207299 -0.00226477 0 0 -5.1365e-06 0.0005 5.23599e-07 
33 1 0.0198207 0.0164072 0.0150794 0.00990983 0.0582021 0.0346262 0 0 -5.1365e-06 0.0005 5.23599e-07 
34 1 0.0209604 0.0157111 0.0147361 0.0101581 0.0208843 -0.04916 3.98419e-05 -1.2433e-05 5.07649e-05 0.0005 5.23599e-07 
35 1 0.0218675 0.0177393 0.00739395 -0.00365117 -0.0488083 0.0133514 -2.62756e-05 -0.000222384 0.000104183 0.0005 5.23599e-07 
36 1 0.0219137 0.0144809 0.0137576 0.0290642 -0.00741049 0.0464035 -2.56974e-06 -8.08556e-06 6.14955e-06 0.0005 5.23599e-07 
37 1 0.0202772 0.0149631 0.0135303 -0.00772753 0.0255173 0.0347408 0 0 -5.1365e-06 0.0005 5.23599e-07 
38 1 0.0156808 0.0217401 0.0160118 0.000385948 0.00622661 -0.0024371 8.59921e-07 8.50418e-06 3.99804e-06 0.0005 5.23599e-07 
39 1 0.0180789 0.0232855 0.013531 0.00473713 0.00837213 -0.00363824 -2.56425e-05 -8.42631e-06 0.000189508 0.0005 5.23599e-07 
40 1 0.0236514 0.0233827 0.0115856 0.000668545 0.0047095 -0.0538989 -1.38921e-07 -1.62161e-07 -2.96505e-07 0.0005 5.23599e-07 
41 1 0.020426 0.0178854 0.0158087 0.0299808 0.0155287 -0.014026 -8.56116e-05 -6.62406e-06 -8.60619e-05 0.0005 5.23599e-07 
42 1 0.0154677 0.0151253 0.01392 -0.048061 0.0517316 -0.0592307 0 0 -5.1365e-06 0.0005 5.23599e-07 
44 1 0.0209621 0.014976 0.0101815 0.00120842 -0.0141107 0.0485673 2.47966e-06 -1.01617e-05 -1.65168e-05 0.0005 5.23599e-07 
45 1 0.0205298 0.0144968 0.0144036 0.0162896 -0.0500325 0.0111087 0 0 -5.1365e-06 0.0005 5.23599e-07 
46 1 0.0174395 0.0145005 0.0141374 -0.00316243 0.000314056 -0.00515873 1.18549e-05 2.02738e-06 -4.5588e-06 0.0005 5.23599e-07 
47 1 0.0160155 0.0230708 0.0149288 0.00445734 7.158e-05 -0.00528107 6.87334e-06 7.60683e-06 -1.50769e-05 0.0005 5.23599e-07 
48 1 0.0251524 0.0216051 0.0164204 -0.00420121 0.00989668 -0.00327792 -2.80562e-07 8.20808e-06 3.32164e-06 0.0005 5.23599e-07 
49 1 0.0160825 0.0149019 0.0131237 -0.00936989 0.00503437 -0.00249275 5.13906e-06 -3.17718e-05 2.09673e-05 0.0005 5.23599e-07 
50 1 0.0134864 0.0213887 0.0152847 0.00653739 0.00683596 -0.00643675 -2.58464e-06 -1.26271e-07 -3.75184e-06 0.0005 5.23599e-07 
51 1 0.0204819 0.0236756 0.0154365 0.00440998 -0.00115715 -0.00570934 2.02285e-05 2.62199e-05 2.30851e-05 0.0005 5.23599e-07 
52 1 0.0176509 0.0234562 0.0116992 0.00834739 -0.000997922 -0.00627194 1.55976e-05 -1.20315e-05 2.88608e-05 0.0005 5.23599e-07 
53 1 0.0233373 0.0231506 0.0101447 0.00784839 0.00433399 -0.00503467 1.1402e-06 -1.71056e-05 -5.27065e-05 0.0005 5.23599e-07 
54 1 0.024788 0.01612 0.0160519 -0.00593279 -0.029952 0.000840811 0 0 -5.1365e-06 0.0005 5.23599e-07 
55 1 0.0255488 0.020728 0.0166907 -0.000932189 0.0117076 0.000138675 1.11001e-06 1.74827e-05 1.10558e-05 0.0005 5.23599e-07 
57 1 0.0196561 0.0229965 0.0151005 0.00927993 0.00129157 0.00256724 0 0 -5.1365e-06 0.0005 5.23599e-07 
59 1 0.0232317 0.0229301 0.00955283 0.0069502 -0.00574157 -0.00866992 9.06029e-06 9.11043e-07 -1.43378e-05 0.0005 5.23599e-07 
60 1 0.0177979 0.0154861 0.0153722 -0.013833 0.00609992 0.000507664 0 0 -5.1365e-06 0.0005 5.23599e-07 
61 1 0.024942 0.0200684 0.0161499 0.00392869 0.0204748 -0.000655242 1.00139e-05 -2.66383e-05 -1.72704e-06 0.0005 5.23599e-07 
62 1 0.015753 0.0227202 0.0158278 -0.00184922 0.00561086 -0.000967988 -1.3426e-06 1.05157e-05 -2.94261e-06 0.0005 5.23599e-07 
63 1 0.021194 0.0154097 0.00914348 -0.000858799 -0.0278433 0.0425428 -4.58241e-06 -3.92821e-06 1.1538e-05 0.0005 5.23599e-07 
64 1 0.0171934 0.0227437 0.0171938 -0.00395164 -0.00855858 -0.00697191 -2.348e-06 -3.03224e-06 3.95632e-06 0.0005 5.23599e-07 
65 1 0.0247787 0.021039 0.0156619 0.00788628 0.0102753 -0.00186382 3.32826e-06 7.14836e-06 3.12329e-05 0.0005 5.23599e-07 
66 1 0.0222108 0.0190801 0.00725852 -0.0899478 -4.15521 -4.91841 -0.00759901 -0.131984 -1.13907 0.0005 5.23599e-07 
67 1 0.0255956 0.0204837 0.0156978 0.00186835 0.00497877 -0.00154717 3.46855e-06 -9.00052e-06 2.43258e-06 0.0005 5.23599e-07 
68 1 0.0209774 0.0146671 0.0120628 0.00639621 -0.00775488 0.058495 -1.30163e-05 -7.0163e-06 1.07127e-05 0.0005 5.23599e-07 
69 1 0.0202018 0.0188783 0.0159496 0.0530553 -0.00260903 0.00201271 0 0 -5.1365e-06 0.0005 5.23599e-07 
70 1 0.0161906 0.0143882 0.0144367 0.0346987 0.025042 0.0077785 -8.10377e-07 3.26565e-06 -1.14947e-06 0.0005 5.23599e-07 
71 1 0.0227798 0.0134236 0.0271543 -0.0863776 0.0010512 -0.149228 0 0 -5.1365e-06 0.0005 5.23599e-07 
72 1 0.0166632 0.0142228 0.013572 0.0131702 -0.000581929 -0.0387692 -8.75974e-06 -1.4247e-05 2.72053e-06 0.0005 5.23599e-07 
73 1 0.0227037 0.0145959 0.0143587 0.0360858 0.00500532 0.0345369 -1.88348e-07 7.33201e-06 1.2572e-05 0.0005 5.23599e-07 
74 1 0.0180852 0.0233382 0.011028 0.00552301 -0.00061268 -0.00324279 1.45603e-05 5.35976e-06 5.67757e-05 0.0005 5.23599e-07 
75 1 0.024074 0.0178879 0.0166427 -0.00809082 0.0222415 0.00442866 2.06205e-07 5.54133e-07 2.66651e-07 0.0005 5.23599e-07 
76 1 0.0226914 0.0154552 0.0153284 -0.0186974 -0.0170006 -0.0109908 2.56838e-07 -8.7325e-07 -1.73268e-06 0.0005 5.23599e-07 
77 1 0.0148897 0.0222435 0.0156617 0.00219556 0.000349031 -0.0140202 3.45403e-06 -3.13671e-06 2.47039e-06 0.0005 5.23599e-07 
78 1 0.0160526 0.0236335 0.0141033 0.0016945 -0.000671196 -0.0044512 4.04342e-06 6.5254e-06 -1.70215e-05 0.0005 5.23599e-07 
79 1 0.0240529 0.0225779 0.0146628 -0.00155678 0.00975144 -0.0068647 1.81712e-06 -1.26233e-06 9.95418e-07 0.0005 5.23599e-07 
80 1 0.0245285 0.0222226 0.0159421 -0.0065132 0.00760612 -0.00309678 1.54043e-06 -3.85458e-07 2.68008e-07 0.0005 5.23599e-07 
81 1 0.0214099 0.0138267 0.0143817 0.0217858 0.00211314 0.0136236 -3.27718e-05 1.44284e-05 1.16731e-05 0.0005 5.23599e-07 
82 1 0.0189953 0.0202701 0.0157979 0.0281109 -0.00515518 0.0101771 -6.07541e-05 -4.87726e-05 -0.000234632 0.0005 5.23599e-07 
83 1 0.0203917 0.0204715 0.0166167 0.0137839 0.0155369 0.000347937 0 0 -5.1365e-06 0.0005 5.23599e-07 
84 1 0.0191791 0.0192235 0.0159446 0.0294563 -0.0498821 0.0158901 1.3236e-05 0.000364908 0.000119548 0.0005 5.23599e-07 
85 1 0.0182452 0.0148372 0.0146625 -0.0023588 0.000893971 -0.020526 0 0 -5.1365e-06 0.0005 5.23599e-07 
86 1 0.0182641 0.022526 0.0168657 0.00930278 0.00650788 -0.00756148 2.93627e-07 -1.44888e-06 -4.15383e-06 0.0005 5.23599e-07 
87 1 0.0217463 0.0165374 0.0161104 0.00115052 -0.0148202 -0.00461357 0 0 -5.1365e-06 0.0005 5.23599e-07 
88 1 0.0193961 0.0182513 0.0158813 0.00838948 0.0211374 0.00374974 -1.40858e-05 -0.00036089 -0.00011876 0.0005 5.23599e-07 
89 1 0.0203762 0.0221527 0.0147087 -0.00355901 0.00584778 -0.0133854 0 0 -5.1365e-06 0.0005 5.23599e-07 
90 1 0.0234921 0.022532 0.00903754 0.00404485 0.00130418 -0.0102146 9.28806e-06 5.77076e-05 2.75678e-05 0.0005 5.23599e-07 
92 1 0.0206685 0.0147607 0.0111858 -0.000218982 -0.00884092 0.0540113 6.1191e-07 6.3917e-07 7.95078e-07 0.0005 5.23599e-07 
93 1 0.018209 0.0241405 0.0131292 0.00801291 -0.000873817 -0.0129747 -0.000156941 -1.92334e-05 0.000127556 0.0005 5.23599e-07 
94 1 0.0193068 0.0143176 0.0142909 -0.0496738 0.0074419 0.0627085 0 0 -5.1365e-06 0.0005 5.23599e-07 
95 1 0.0200722 0.015585 0.0142951 0.00164446 0.000476797 0.0466193 -3.98419e-05 1.2433e-05 -6.10379e-05 0.0005 5.23599e-07 
96 1 0.0195535 0.0137053 0.0135217 -0.0179499 -0.0712689 0.116669 0 0 -5.1365e-06 0.0005 5.23599e-07 
97 1 0.0208167 0.020478 0.0157096 0.00525737 -0.00254601 -0.005794 -1.69418e-06 1.82838e-05 1.47485e-05 0.0005 5.23599e-07 
98 1 0.0196131 0.0172767 0.0155907 0.00758496 0.0273868 0.0110723 0 0 -5.1365e-06 0.0005 5.23599e-07 
100 1 0.0234618 0.0226639 0.0155548 0.0259518 -0.0326067 0.0100239 0.000198569 -0.000169282 2.33075e-05 0.0005 5.23599e-07 
101 1 0.0205932 0.0213738 0.0153103 -0.00294399 0.00571424 -0.00372252 0 0 -5.1365e-06 0.0005 5.23599e-07 
102 1 0.0235438 0.0216048 0.0164712 -0.0279181 0.0953759 -0.0429895 0 0 -5.1365e-06 0.0005 5.23599e-07 
103 1 0.0183469 0.0141164 0.0139585 -0.0167894 -0.0167615 -0.0121848 0 0 -5.1365e-06 0.0005 5.23599e-07 
104 1 0.0204468 0.0216939 0.0163598 -0.019274 0.0181688 -0.0464842 0 0 -5.1365e-06 0.0005 5.23599e-07 
105 1 0.0176678 0.0224105 0.0155854 0.00832072 0.0219595 -0.0208962 9.46802e-06 1.177e-06 2.99041e-06 0.0005 5.23599e-07 
106 1 0.0212059 0.0152015 0.0138349 0.0262699 0.00942305 -0.0182067 0 0 -5.1365e-06 0.0005 5.23599e-07 
107 1 0.0224615 0.0224538 0.0155092 0.0176146 -0.0214842 0.0214 0 0 -5.1365e-06 0.0005 5.23599e-07 
108 1 0.017887 0.0241912 0.0168264 0.00452919 0.00123614 -0.00645001 0 0 -5.1365e-06 0.0005 5.23599e-07 
109 1 0.0187753 0.0211988 0.0154798 0.0122203 -0.0182138 0.0126766 0 0 -5.1365e-06 0.0005 5.23599e-07 
110 1 0.0258512 0.0183804 0.0166735 0.000836081 0.0155875 -0.00381914 6.19409e-06 -1.97773e-05 -5.63289e-07 0.0005 5.23599e-07 
111 1 0.0271101 0.0151944 0.00959556 0.000440085 -0.0220654 0.045654 -1.08007e-08 1.35091e-07 2.18584e-07 0.0005 5.23599e-07 
112 1 0.0234659 0.0150133 0.0148525 0.0353 0.022916 0.0223864 2.63254e-05 1.41346e-06 3.63597e-07 0.0005 5.23599e-07 
113 1 0.0230625 0.0168118 0.0162341 0.000565509 -0.00625867 -0.00381628 -6.779e-08 -1.59239e-07 -1.19038e-06 0.0005 5.23599e-07 
114 1 0.0216405 0.0163764 0.0150622 0.0253175 0.00367379 0.0359378 0 0 -5.1365e-06 0.0005 5.23599e-07 
115 1 0.0217915 0.0169143 0.0077176 0.0052886 -0.0404338 0.0244102 -9.35893e-05 -0.000195618 0.000232043 0.0005 5.23599e-07 
116 1 0.0185802 0.0202365 0.0167063 0.0173339 -0.0341241 -0.0987209 6.07541e-05 4.87726e-05 0.000224359 0.0005 5.23599e-07 
117 1 0.0146683 0.0217097 0.0255493 -0.319721 0.0841866 0.131275 0 0 -5.1365e-06 0.0005 5.23599e-07 
118 1 0.0253192 0.0184535 0.0158854 0.000389227 0.0387469 0.00242848 1.40585e-06 -4.97518e-06 1.92224e-06 0.0005 5.23599e-07 
119 1 0.0193697 0.0239742 0.0145736 0.00787546 -0.00104352 0.00111472 0 0 -5.1365e-06 0.0005 5.23599e-07 
120 1 0.0203654 0.0233632 0.0144945 0.00911468 0.0117336 -0.013705 -0.0002158 -0.000312675 0.000210763 0.0005 5.23599e-07 
121 1 0.0170094 0.0150325 0.0148746 -0.0160757 -0.0068938 -0.00105569 0 0 -5.1365e-06 0.0005 5.23599e-07 
122 1 0.021586 0.0147448 0.0128513 0.00805616 -0.00779487 0.0538033 3.25511e-06 3.70852e-06 1.77958e-05 0.0005 5.23599e-07 
123 1 0.0204245 0.0143095 0.0127834 -0.0029445 -0.0101718 0.0421392 -1.27011e-05 -5.86884e-05 -1.43307e-05 0.0005 5.23599e-07 
124 1 0.0180881 0.02107 0.0163827 -0.0153044 0.00079898 0.00198627 1.15997e-07 1.45943e-06 -3.94032e-06 0.0005 5.23599e-07 
125 1 0.0202072 0.0240906 0.0163185 -0.0165366 0.00291011 -0.00857255 0 0 -5.1365e-06 0.0005 5.23599e-07 
126 1 0.0191042 0.0240567 0.0127699 0.00348573 -0.00110331 -0.00818614 -0.000219313 -7.19628e-06 -9.3078e-07 0.0005 5.23599e-07 
127 1 0.0228945 0.0234575 0.014318 -0.00711952 -0.00350635 -0.00103964 5.21232e-05 -1.94305e-05 9.38825e-05 0.0005 5.23599e-07 
128 1 0.0182478 0.0242119 0.0141405 -0.000132435 -0.014587 -0.0149923 0 0 -5.1365e-06 0.0005 5.23599e-07 
129 1 0.0206246 0.0241949 0.0142115 -0.0138333 0.00897013 -0.0165886 -0.00013451 -0.000222289 0.000249465 0.0005 5.23599e-07 
130 1 0.0208014 0.0240716 0.0131996 -0.018418 -0.00241473 -0.0142892 -8.52936e-05 3.97131e-05 0.000153784 0.0005 5.23599e-07 
131 1 0.0202988 0.0211862 0.0173829 -0.00680545 0.0292137 -0.0286539 0 0 -5.1365e-06 0.0005 5.23599e-07 
132 1 0.0231657 0.0235584 0.015227 0.00603157 -0.00368357 -0.00239686 0.000226082 6.49181e-05 8.11244e-06 0.0005 5.23599e-07 
133 1 0.0196578 0.0232592 0.0127692 0.00218572 0.00278128 -0.0200313 -0.000108693 7.63998e-06 1.27437e-05 0.0005 5.23599e-07 
134 1 0.0212928 0.0238037 0.0148483 0.00137437 0.0187342 0.0258043 0 0 -5.1365e-06 0.0005 5.23599e-07 
135 1 0.0189028 0.0241295 0.0164379 0.00385618 0.00152302 0.00410859 4.65571e-06 8.05234e-06 4.0715e-06 0.0005 5.23599e-07 
136 1 0.0210075 0.0195073 0.0159179 0.00940216 0.00444674 -0.00125314 -4.29056e-07 2.44056e-06 -1.08538e-06 0.0005 5.23599e-07 
137 1 0.0168453 0.0152213 0.0158523 0.00463846 -0.0249221 0.00938007 0 0 -5.1365e-06 0.0005 5.23599e-07 
138 1 0.0196248 0.0244672 0.0170419 0.00574504 0.00105044 -0.00141454 0 0 -5.1365e-06 0.0005 5.23599e-07 
139 1 0.0214987 0.022606 0.0166604 0.00995836 0.058174 -0.0430593 0 0 -5.1365e-06 0.0005 5.23599e-07 
140 1 0.0179034 0.0233638 0.0125827 0.00859137 -0.00286522 -0.00427967 -3.67884e-05 -3.3956e-05 0.000113118 0.0005 5.23599e-07 
141 1 0.0207132 0.0168031 0.015333 0.0162019 0.0353554 0.0194362 -1.67339e-05 -4.71371e-08 -5.69193e-05 0.0005 5.23599e-07 
142 1 0.0221084 0.0231124 0.0148327 0.00659492 0.00111931 0.00904004 0 0 -5.1365e-06 0.0005 5.23599e-07 
143 1 0.0196256 0.0216197 0.0151424 0.0157521 -0.00884878 0.000531029 0 0 -5.1365e-06 0.0005 5.23599e-07 
144 1 0.0173337 0.0165026 0.0161243 0.00116649 0.0234654 0.0299543 0 0 -5.1365e-06 0.0005 5.23599e-07 
145 1 0.01923 0.0223334 0.0144805 0.00221001 0.0117813 -0.00355351 3.33308e-05 -0.00014801 7.69069e-05 0.0005 5.23599e-07 
146 1 0.0198579 0.0208771 0.0157722 0.0115592 0.00074613 0.00350349 0 0 -5.1365e-06 0.0005 5.23599e-07 
147 1 0.0217119 0.0231456 0.0157743 -0.0165879 0.00558323 0.0552231 0 0 -5.1365e-06 0.0005 5.23599e-07 
148 1 0.0203195 0.0168583 0.0162498 0.0127303 0.0168147 0.0117489 9.1939e-06 -5.53024e-06 6.16539e-05 0.0005 5.23599e-07 
149 1 0.0189151 0.023484 0.0118222 1.74782e-05 -0.000879811 0.0018727 2.57149e-08 2.32269e-06 1.63573e-05 0.0005 5.23599e-07 
150 1 0.0173078 0.0216375 0.0161075 0.0045475 0.0285213 -0.0127014 8.73122e-07 9.2859e-06 -3.99778e-06 0.0005 5.23599e-07 
151 1 0.0244293 0.0217472 0.0150683 0.00342298 0.00415442 -0.0026265 -8.90546e-08 -4.07243e-06 -1.87473e-06 0.0005 5.23599e-07 
152 1 0.0142772 0.0229148 0.0152447 0.00433535 0.00630254 -0.00676679 -9.41037e-06 8.70109e-07 7.76557e-06 0.0005 5.23599e-07 
153 1 0.016619 0.0222375 0.0156978 0.00208191 0.0188828 -0.0252022 4.68345e-07 -3.52796e-07 -4.86734e-06 0.0005 5.23599e-07 
154 1 0.0209947 0.0228781 0.0151007 0.00385008 0.00614624 -0.00977942 3.52797e-05 -4.72431e-06 6.01987e-06 0.0005 5.23599e-07 
155 1 0.0219333 0.0154789 0.0144683 -0.0153149 0.0306424 0.0158572 0 0 -5.1365e-06 0.0005 5.23599e-07 
157 1 0.0202793 0.0226828 0.015861 0.0164348 -0.00414483 0.016418 0 0 -5.1365e-06 0.0005 5.23599e-07 
158 1 0.0219419 0.0144433 0.0149877 0.0145836 0.0148134 0.0125375 -5.05029e-06 -4.95302e-06 1.08978e-05 0.0005 5.23599e-07 
159 1 0.019074 0.0230356 0.0138173 0.0163286 0.0136753 -0.0112662 -9.5394e-05 6.64351e-05 0.000167035 0.0005 5.23599e-07 
160 1 0.0176043 0.023063 0.0163401 -0.000808369 -0.00164452 -0.00093899 2.48379e-06 7.27104e-06 -9.31655e-06 0.0005 5.23599e-07 
161 1 0.0186698 0.0188925 0.0212369 0.153154 0.179776 -0.23413 0 0 -5.1365e-06 0.0005 5.23599e-07 
162 1 0.0185278 0.0229429 0.0156705 0.0133237 0.00632946 0.00847696 -2.17265e-05 5.61982e-05 -8.16301e-06 0.0005 5.23599e-07 
163 1 0.0199588 0.022714 0.0139917 0.00946143 -0.000154648 0.00573928 -0.000169696 1.71661e-05 -8.56204e-05 0.0005 5.23599e-07 
164 1 0.0176106 0.0234732 0.01441 0.0111051 0.01244 -0.0141924 0 0 -5.1365e-06 0.0005 5.23599e-07 
165 1 0.0163085 0.0229469 0.0166283 -0.0032526 0.013003 -0.00278047 -1.09484e-06 1.30136e-06 -4.54846e-06 0.0005 5.23599e-07 
166 1 0.0187929 0.015514 0.0157607 -0.00853374 -0.0180258 -0.0801904 0 0 -5.1365e-06 0.0005 5.23599e-07 
167 1 0.0138819 0.0221652 0.0157751 0.00186112 0.0085746 -0.00709229 -4.15014e-06 -6.59975e-06 -5.41744e-08 0.0005 5.23599e-07 
168 1 0.0168986 0.0239409 0.0167838 -0.00426251 -0.00348587 -0.0148711 0 0 -5.1365e-06 0.0005 5.23599e-07 
169 1 0.0191237 0.024429 0.0136993 -0.00111452 -0.0014657 -0.00651021 0 0 -5.1365e-06 0.0005 5.23599e-07 
170 1 0.0150549 0.0232175 0.0146948 0.00559058 0.000998123 -0.00545792 -3.4378e-06 2.01729e-06 7.51183e-06 0.0005 5.23599e-07 
171 1 0.0181087 0.0238158 0.015918 0.00157249 0.00176773 0.00361935 -5.96175e-07 -1.16646e-05 -2.05487e-06 0.0005 5.23599e-07 
172 1 0.021474 0.0240214 0.0138306 -0.0213925 -0.00665569 -0.029638 -6.54564e-05 0.000318389 9.20619e-05 0.0005 5.23599e-07 
173 1 0.0240859 0.0155302 0.0154523 0.0362771 0.0199363 0.0145473 0 0 -5.1365e-06 0.0005 5.23599e-07 
174 1 0.0221742 0.0240236 0.0144211 -0.0119822 -0.00261588 -0.0145884 -4.68468e-05 0.000130418 0.000114674 0.0005 5.23599e-07 
175 1 0.0172958 0.0243148 0.0176325 -0.0126077 -0.00606329 -0.00698278 6.42722e-06 -7.74193e-06 4.57582e-07 0.0005 5.23599e-07 
176 1 0.021149 0.0237183 0.0164118 -0.00949246 -0.0169057 -0.0124589 0 0 -5.1365e-06 0.0005 5.23599e-07 
177 1 0.0198578 0.023735 0.0136416 0.012996 0.0219757 -0.00510774 0 0 -5.1365e-06 0.0005 5.23599e-07 
178 1 0.089209 0.0204289 0.00606712 -7.39741e-15 -1.34986e-14 8.92984e-14 5.29396e-23 -9.31736e-21 -1.69407e-21 0.0005 5.23599e-07 
179 1 0.00677886 -0.00835842 0.0492201 -0.100518 -0.189121 -0.557116 0 0 -5.1365e-06 0.0005 5.23599e-07 
180 1 0.0186067 0.0139882 0.012991 -0.000528854 -0.00395698 0.014967 0 0 -5.1365e-06 0.0005 5.23599e-07 
181 1 0.0169968 0.0229432 0.0150705 0.0083822 0.0176145 -0.0239082 2.22389e-06 -1.5565e-06 1.04347e-05 0.0005 5.23599e-07 
182 1 0.0192984 0.0215094 0.0163474 -0.0092095 -0.0149303 -0.00147868 0 0 -5.1365e-06 0.0005 5.23599e-07 
183 1 0.0139606 0.0221247 0.0147204 0.00613037 0.010833 -0.0140342 -5.02438e-06 -3.55777e-06 1.2201e-06 0.0005 5.23599e-07 
184 1 0.0229013 0.0220631 0.00863877 0.00489672 -0.0108856 -0.012944 -3.34342e-05 -7.99271e-07 -5.15203e-05 0.0005 5.23599e-07 
185 1 0.0211212 0.0221244 0.0157495 0.0288377 -0.00405863 -0.000458017 0 0 -5.1365e-06 0.0005 5.23599e-07 
186 1 0.0185013 0.0221437 0.0150715 0.00461213 0.0278899 0.00304039 -8.3634e-05 -6.9644e-05 0.000111652 0.0005 5.23599e-07 
187 1 0.020048 0.0240391 0.0126723 -0.00157818 -0.000436387 -0.00877974 -8.42437e-05 -1.73968e-05 4.62733e-05 0.0005 5.23599e-07 
188 1 0.0176412 0.0141132 0.0132355 0.00146116 0.00255089 -0.000901217 1.93147e-06 2.99872e-06 -4.90127e-06 0.0005 5.23599e-07 
189 1 0.0167627 0.0238758 0.0147644 0.00374318 -0.000635554 -0.00216162 0 0 -5.1365e-06 0.0005 5.23599e-07 
190 1 0.0167921 0.0234596 0.0159121 0.00245342 -0.00906572 -0.0168641 1.49545e-06 -9.31415e-07 -3.03041e-06 0.0005 5.23599e-07 
