ITEM: TIMESTEP
4400000
ITEM: NUMBER OF ATOMS
150
ITEM: BOX BOUNDS ff ff ff
-0.02 0.43
-0.02 0.06
-0.02 0.07
ITEM: ATOMS id type x y z vx vy vz fx fy fz radius mass 
1 1 0.0233886 0.0202617 0.0163833 0.0147832 0.002852 0.000298298 0 0 -5.1365e-06 0.0005 5.23599e-07 
2 1 0.0255375 0.0209535 0.0165312 0.0157241 -0.0354984 -0.00988363 0 0 -5.1365e-06 0.0005 5.23599e-07 
3 1 0.0215757 0.0224408 0.0143795 0.0220249 0.00482676 -0.00234991 0.000613502 0.000123653 -0.000219426 0.0005 5.23599e-07 
4 1 0.0178188 0.0146396 0.0129309 0.000622022 0.00428391 -0.00193016 -7.13609e-06 2.08714e-06 -3.69907e-06 0.0005 5.23599e-07 
5 1 0.0233108 0.0218708 0.0169319 -0.00401066 0.00293325 0.00710636 0 0 -5.1365e-06 0.0005 5.23599e-07 
6 1 0.0592595 0.0187057 0.00589343 7.14071e-15 -1.48477e-14 -1.82206e-13 -3.67851e-18 -1.04116e-18 -6.01393e-20 0.0005 5.23599e-07 
7 1 0.0269321 0.0216874 0.0147892 0.00252366 0.0349826 -0.0309418 -3.00615e-06 -3.63483e-06 -1.74157e-07 0.0005 5.23599e-07 
9 1 0.03666 0.0437358 0.0547386 0.169332 0.336346 0.0416528 0 0 -5.1365e-06 0.0005 5.23599e-07 
10 1 0.0183548 0.0240882 0.0130021 -7.14516e-05 0.000350057 -0.00049173 -6.27771e-07 3.172e-06 -3.96695e-07 0.0005 5.23599e-07 
11 1 0.0345416 0.0166355 0.0149904 -0.00497431 0.0128354 0.0120972 -1.27215e-06 6.25192e-06 3.85863e-06 0.0005 5.23599e-07 
13 1 0.0212451 0.023425 0.0122521 0.00325442 0.000262366 -0.000953116 8.47092e-05 -7.10933e-06 -3.96453e-05 0.0005 5.23599e-07 
14 1 0.0209043 0.0225307 0.0151113 0.21005 0.0697966 -0.0336801 -0.00196348 -0.00108577 -9.94071e-05 0.0005 5.23599e-07 
15 1 0.0248242 0.0215759 0.0161339 0.0270862 0.00999111 -0.0263061 0 0 -5.1365e-06 0.0005 5.23599e-07 
17 1 0.0161988 0.0232626 0.0145494 -0.0163985 0.00443824 0.00768163 0 0 -5.1365e-06 0.0005 5.23599e-07 
19 1 0.017375 0.0157713 0.0145235 0.0164209 -0.00120351 0.000533162 4.49111e-06 3.31048e-06 2.17383e-07 0.0005 5.23599e-07 
20 1 0.0346743 0.0188316 0.00571084 5.74527e-20 1.68449e-19 1.07802e-19 0 0 0 0.0005 5.23599e-07 
22 1 0.0166991 0.0224077 0.0144098 0.00535686 0.0237272 -0.0287064 -4.47087e-05 5.39554e-06 -1.51507e-05 0.0005 5.23599e-07 
23 1 0.0213061 0.0231497 0.0131667 -6.86e-05 0.00466712 0.00148232 0.000191719 -7.91248e-05 6.04912e-05 0.0005 5.23599e-07 
24 1 0.0287043 0.0203856 0.00592074 -1.63701e-14 1.54761e-16 -1.92034e-13 0 -1.19139e-20 0 0.0005 5.23599e-07 
25 1 0.0299421 0.0164314 0.00807585 0.00131092 -0.0399302 0.026685 -2.71316e-07 5.50035e-06 -3.28032e-06 0.0005 5.23599e-07 
27 1 0.0294259 0.0151095 0.00999193 0.00607819 -0.0122683 0.0365105 3.18045e-05 5.47627e-06 8.02127e-06 0.0005 5.23599e-07 
28 1 0.0191921 0.0243812 0.0179496 0.020775 -0.100409 -0.117865 0 0 -5.1365e-06 0.0005 5.23599e-07 
29 1 0.0202364 0.0237147 0.0136787 0.00285233 0.0054462 -0.00773155 -3.33047e-07 5.02751e-05 -0.000147274 0.0005 5.23599e-07 
30 1 0.018077 0.0230967 0.0148214 0.0016656 0.00445548 -0.00416462 -1.46924e-06 -1.2743e-05 3.49726e-06 0.0005 5.23599e-07 
31 1 0.0223972 0.015795 0.0145414 0.00781777 0.00924255 0.0114279 0 0 -5.1365e-06 0.0005 5.23599e-07 
32 1 0.019348 0.0221889 0.00864286 0.00230585 -0.0323721 -0.0368404 1.0677e-05 2.54082e-05 2.22517e-05 0.0005 5.23599e-07 
34 1 0.0171198 0.0147286 0.0144893 0.0154027 -0.000128132 -0.00584372 1.52614e-06 6.34041e-07 -1.08528e-06 0.0005 5.23599e-07 
35 1 0.0313423 0.0222592 0.00858477 0.00059969 -0.0338547 -0.0366899 -8.95836e-09 -2.33692e-07 5.57838e-08 0.0005 5.23599e-07 
36 1 0.0211632 0.0210828 0.0155802 0.011256 0.00408222 0.00411163 -4.94421e-06 -2.04058e-06 8.11922e-06 0.0005 5.23599e-07 
37 1 0.0226991 0.0228805 0.0155886 0.00534385 0.00698268 -0.00893633 0 0 -5.1365e-06 0.0005 5.23599e-07 
38 1 0.0220268 0.0240445 0.0143834 -0.00137405 -0.0036958 -0.00249063 -6.36137e-06 4.90233e-05 0.000127303 0.0005 5.23599e-07 
40 1 0.0321223 0.023353 0.011865 0.00160635 0.00361102 -0.0480945 -2.24742e-07 -7.54036e-08 -3.13133e-07 0.0005 5.23599e-07 
41 1 0.027968 0.0172742 0.015388 -4.44839e-05 0.0469904 0.0245196 -1.45673e-08 1.59257e-07 -1.83039e-07 0.0005 5.23599e-07 
42 1 0.0198937 0.0245029 0.0135984 0.000776167 0.000913545 -0.00087351 1.98658e-05 1.30676e-05 -3.67003e-05 0.0005 5.23599e-07 
44 1 0.0179055 0.0146235 0.0119351 -0.000105354 0.00281462 -0.00273578 -8.25752e-07 -2.03214e-06 8.67485e-07 0.0005 5.23599e-07 
45 1 0.0231396 0.0208059 0.0155816 0.011282 -0.000276107 0.00170127 -1.01665e-05 1.91835e-05 -3.59691e-06 0.0005 5.23599e-07 
46 1 0.0224174 0.0231212 0.0134403 -0.0710617 0.00206185 -0.00824101 0 0 -5.1365e-06 0.0005 5.23599e-07 
47 1 0.022669 0.0150677 0.0134733 0.00632901 0.00229633 0.00268802 -2.22847e-05 -3.31018e-05 4.96108e-05 0.0005 5.23599e-07 
49 1 0.0191431 0.0149018 0.0147066 0.0178246 -0.010093 -0.0117463 0 0 -5.1365e-06 0.0005 5.23599e-07 
50 1 0.0147163 0.0226532 0.0141343 0.00783966 0.0040514 -0.00917869 0 0 -5.1365e-06 0.0005 5.23599e-07 
51 1 0.0189746 0.0238209 0.0137395 0.00140916 0.00063992 -0.00239547 -6.22567e-06 6.90441e-06 2.84404e-06 0.0005 5.23599e-07 
53 1 0.0193618 0.0241088 0.012864 -0.000287439 0.00212786 -0.00146911 3.12216e-05 -1.16795e-06 -3.65784e-05 0.0005 5.23599e-07 
54 1 0.0267383 0.0182025 0.00597096 -1.69481e-14 -2.73135e-15 2.76309e-13 3.17637e-22 -2.75286e-21 0 0.0005 5.23599e-07 
55 1 0.0318471 0.0233047 0.0106487 0.00208355 -0.00769825 -0.0455095 1.88911e-05 2.77951e-06 8.47946e-06 0.0005 5.23599e-07 
57 1 0.0237688 0.0213111 0.0162239 0.0200534 0.0155619 -0.008597 0 0 -5.1365e-06 0.0005 5.23599e-07 
59 1 0.0204914 0.0229471 0.0134505 0.00326216 0.0100727 -0.018918 -9.33871e-06 6.23807e-05 -0.000134672 0.0005 5.23599e-07 
60 1 0.0157005 0.0223698 0.0144549 0.00313798 0.00346873 -0.00252433 0 0 -5.1365e-06 0.0005 5.23599e-07 
61 1 0.029608 0.019721 0.00584316 -8.71339e-15 1.30655e-16 -1.02212e-13 -1.85288e-21 -2.43006e-19 0 0.0005 5.23599e-07 
63 1 0.0264561 0.0229454 0.0132928 -3.16695e-05 0.0286205 -0.0442813 4.99597e-08 -1.56354e-07 -1.29757e-07 0.0005 5.23599e-07 
64 1 0.0191965 0.0218118 0.020209 0.0452812 -0.185736 -0.124992 0 0 -5.1365e-06 0.0005 5.23599e-07 
65 1 0.0235225 0.0152707 0.00937563 0.000816035 -0.0264488 0.0440122 -6.7352e-08 -7.36518e-09 4.67863e-07 0.0005 5.23599e-07 
66 1 0.0257955 0.0199903 0.0166932 -0.000518039 -0.0381635 -0.00702995 0 0 -5.1365e-06 0.0005 5.23599e-07 
67 1 0.0326861 0.0223771 0.0142613 0.00403529 0.0260687 -0.0338534 -1.44403e-06 6.12125e-06 -9.57624e-06 0.0005 5.23599e-07 
68 1 0.0323862 0.0231608 0.0128782 0.000907044 0.0202222 -0.0484223 7.13393e-07 -7.55325e-07 1.67343e-06 0.0005 5.23599e-07 
69 1 0.0301481 0.0172151 0.00760997 0.000265392 -0.0356558 0.0142306 -3.30799e-06 -2.68465e-06 7.74755e-07 0.0005 5.23599e-07 
70 1 0.0163417 0.0232601 0.012931 0.0202211 0.00339168 -0.000868593 -7.59623e-05 -7.40252e-07 -2.61211e-05 0.0005 5.23599e-07 
71 1 0.0221259 0.0209924 0.0198775 0.0640798 -0.0593028 0.0840395 0 0 -5.1365e-06 0.0005 5.23599e-07 
73 1 0.0167126 0.0141251 0.0138039 0.00752283 -0.00207537 0.0011664 1.2144e-06 -8.71513e-07 1.53873e-06 0.0005 5.23599e-07 
74 1 0.0222814 0.0144597 0.0141654 0.00323548 0.00236109 -0.00264457 6.09059e-06 -2.95253e-05 2.05555e-05 0.0005 5.23599e-07 
75 1 0.02421 0.0175 0.00746547 8.74713e-05 -0.0506027 0.0148908 1.05e-08 5.64899e-08 1.82957e-07 0.0005 5.23599e-07 
78 1 0.0196572 0.0240381 0.0144513 0.00220757 0.000411096 0.000668164 -2.00474e-06 -6.82085e-06 3.18626e-06 0.0005 5.23599e-07 
79 1 0.0224608 0.0197816 0.00583582 -1.87125e-15 8.03416e-16 -1.8213e-14 2.29546e-19 -1.8892e-18 -1.16044e-19 0.0005 5.23599e-07 
81 1 0.0186115 0.0143421 0.0138184 0.0111254 0.007067 -0.00820389 -1.50207e-06 3.76074e-08 -2.07937e-06 0.0005 5.23599e-07 
82 1 0.022803 0.0217805 0.0150072 -0.00136702 0.00678841 -0.00306531 0 0 -5.1365e-06 0.0005 5.23599e-07 
83 1 0.0214077 0.021714 0.0169106 -0.0449751 0.0853486 -0.00170835 0 0 -5.1365e-06 0.0005 5.23599e-07 
84 1 0.0212608 0.0233962 0.0154463 0.0588161 0.0557756 -0.0888491 0.0011839 0.000946786 0.000340031 0.0005 5.23599e-07 
85 1 0.0255212 0.0152092 0.013435 0.000847606 0.0212398 0.044104 3.76712e-07 6.36844e-07 -6.52296e-06 0.0005 5.23599e-07 
87 1 0.0203371 0.0233381 0.0126248 0.00867981 0.0013907 -0.00805638 6.30724e-06 1.48327e-05 -0.000135675 0.0005 5.23599e-07 
88 1 0.0232767 0.0185398 0.0159154 0.000955662 0.0427595 0.00483283 0 0 -5.1365e-06 0.0005 5.23599e-07 
90 1 0.0219648 0.0198022 0.0222876 0.0485687 -0.0772333 0.161448 0 0 -5.1365e-06 0.0005 5.23599e-07 
92 1 0.0196116 0.0139564 0.0130428 -0.000166601 0.00446486 -0.00642702 -1.24198e-06 -6.31415e-06 9.67565e-06 0.0005 5.23599e-07 
93 1 0.0283561 0.0157633 0.0142725 0.00474845 0.0265175 0.0302406 -2.69607e-05 4.14473e-05 1.67135e-05 0.0005 5.23599e-07 
95 1 0.0245448 0.020671 0.0164942 -0.00126536 0.00145085 -0.00229016 0 0 -5.1365e-06 0.0005 5.23599e-07 
96 1 0.0209328 0.0185866 0.0167806 0.000672138 0.0211297 0.00224879 0 0 -5.1365e-06 0.0005 5.23599e-07 
97 1 0.0225398 0.0200455 0.0158291 -0.00693496 0.016484 -0.0043043 -4.83287e-06 -1.95299e-05 -1.55497e-06 0.0005 5.23599e-07 
101 1 0.0186357 0.0140681 0.0128571 0.000873349 0.00615348 -0.00913494 -3.03459e-06 -5.01167e-06 4.45745e-06 0.0005 5.23599e-07 
102 1 0.0260038 0.0233767 0.0113738 0.00102938 0.000728367 -0.0517612 2.7969e-07 -1.41796e-07 -4.69963e-08 0.0005 5.23599e-07 
103 1 0.019158 0.0232117 0.0147115 -0.00498383 0.00211188 -0.00189271 6.90097e-06 -4.31074e-06 -2.06947e-05 0.0005 5.23599e-07 
105 1 0.0220675 0.023166 0.0148677 -0.0053456 -0.00605734 -0.00591274 0 0 -5.1365e-06 0.0005 5.23599e-07 
106 1 0.0289359 0.0178655 0.00589895 -8.71228e-15 9.44118e-17 -1.02212e-13 7.41154e-22 -6.65822e-20 0 0.0005 5.23599e-07 
107 1 0.0229554 0.0148275 0.0148055 0.0148165 0.0143329 -0.0206276 7.06612e-06 2.59553e-07 1.40545e-05 0.0005 5.23599e-07 
108 1 0.0169892 0.014676 0.0123318 -0.00127133 0.00055926 -0.000184946 3.56238e-06 -5.18577e-06 4.35353e-06 0.0005 5.23599e-07 
109 1 0.023182 0.0162635 0.0149717 0.0110329 0.0170657 0.0131058 0 0 -5.1365e-06 0.0005 5.23599e-07 
110 1 0.0185151 0.0239709 0.0146145 -0.00164818 0.00383973 -0.00317538 8.37727e-06 -7.94625e-06 1.02469e-05 0.0005 5.23599e-07 
111 1 0.0339531 0.0172111 0.0153473 0.00258018 0.0450546 0.0189423 -7.72735e-07 -3.10513e-06 9.82648e-08 0.0005 5.23599e-07 
112 1 0.0227442 0.0151319 0.0171316 -0.102993 -0.0128507 -0.0387002 0 0 -5.1365e-06 0.0005 5.23599e-07 
113 1 0.0218402 0.0222742 0.016073 -0.0126516 0.00128826 -0.0838731 -1.93104e-05 -6.91244e-05 2.56841e-05 0.0005 5.23599e-07 
114 1 0.0308777 0.0204078 0.0074314 0.00107578 -0.0462156 -0.0138295 -1.79983e-05 1.68208e-06 3.09942e-05 0.0005 5.23599e-07 
115 1 0.0310678 0.0213464 0.00781285 -0.388459 0.335771 1.13541 -0.00631943 -0.044362 0.0143705 0.0005 5.23599e-07 
116 1 0.0204086 0.0235094 0.0117739 0.00533694 -0.00367179 -0.0063692 6.61245e-06 -1.95276e-06 -9.62678e-05 0.0005 5.23599e-07 
117 1 0.0220243 0.0232424 0.0162369 -0.0196668 -0.00719289 -0.0243768 1.93104e-05 6.91244e-05 -3.59571e-05 0.0005 5.23599e-07 
118 1 0.0330182 0.0212385 0.0151251 0.000203909 0.0464914 -0.0257437 -8.41401e-09 -5.93592e-08 -2.38128e-07 0.0005 5.23599e-07 
121 1 0.0165121 0.0154633 0.0141234 0.0119095 0.000647488 0.00553837 1.30638e-06 1.54051e-06 -2.34735e-06 0.0005 5.23599e-07 
122 1 0.0354862 0.0197731 0.00599028 3.74083e-15 2.13357e-14 -8.2687e-14 1.22105e-19 -6.22569e-20 -1.01644e-20 0.0005 5.23599e-07 
123 1 0.0189166 0.02268 0.0155232 -0.0231792 0.0143348 -0.0182663 9.67794e-06 -4.97587e-06 1.02914e-05 0.0005 5.23599e-07 
124 1 0.0334096 0.0189951 0.00569612 -3.40628e-20 2.2049e-21 -2.00026e-20 2.38228e-22 0 0 0.0005 5.23599e-07 
125 1 0.0221778 0.0165456 0.0151752 0.00835097 0.0256716 0.0168132 -1.3067e-05 -8.6939e-06 6.77402e-05 0.0005 5.23599e-07 
126 1 0.0233346 0.0154556 0.0141112 0.0051635 0.00222124 0.00577502 0 0 -5.1365e-06 0.0005 5.23599e-07 
128 1 0.0214125 0.0199793 0.0158635 0.00163551 0.0552493 -0.0303862 0 0 -5.1365e-06 0.0005 5.23599e-07 
129 1 0.0151648 0.023325 0.0147268 0.0115611 0.0028747 -0.00887184 0 0 -5.1365e-06 0.0005 5.23599e-07 
130 1 0.0232784 0.0220942 0.0158294 0.00503785 -0.00151739 -0.00234602 -1.28123e-05 -1.07812e-06 -7.32379e-06 0.0005 5.23599e-07 
131 1 0.019753 0.0216838 0.00807513 0.000915924 -0.0337286 -0.0248737 -2.87226e-05 -3.33433e-05 -1.83986e-05 0.0005 5.23599e-07 
132 1 0.0217244 0.0217185 0.0150527 0.0099329 0.000751413 -0.00124932 7.31129e-05 2.1974e-05 2.72771e-06 0.0005 5.23599e-07 
133 1 0.0272485 0.0208489 0.0154107 -0.00103821 0.00167741 -0.00136783 3.50538e-05 -2.19147e-05 1.17526e-05 0.0005 5.23599e-07 
134 1 0.0290917 0.0147684 0.0111969 0.00438856 -0.00174625 0.0285157 0.00192318 -0.00073865 0.000201191 0.0005 5.23599e-07 
135 1 0.0197015 0.0230036 0.00986664 0.00098254 -0.0202755 -0.0445924 -5.00682e-08 -2.5339e-07 -4.15282e-08 0.0005 5.23599e-07 
136 1 0.031637 0.0229534 0.00955048 0.00189694 -0.0125345 -0.0295259 -4.17745e-05 -6.65619e-05 -0.00011537 0.0005 5.23599e-07 
137 1 0.028859 0.0148292 0.0120592 0.313116 -0.198085 0.0858672 0.0978356 -0.060967 0.024933 0.0005 5.23599e-07 
138 1 0.0181639 0.0149286 0.0144933 0.0159891 0.00714931 -0.00140168 3.03201e-06 5.04792e-07 -2.3255e-06 0.0005 5.23599e-07 
139 1 0.0226072 0.0214836 0.0163336 0.0152595 0.0146678 -0.00594038 8.58731e-06 2.26708e-07 1.3582e-05 0.0005 5.23599e-07 
141 1 0.0173665 0.0226211 0.015363 -0.0201444 0.0388989 -0.0350288 2.18425e-06 2.79228e-06 -1.87047e-06 0.0005 5.23599e-07 
142 1 0.0296848 0.0157125 0.00877808 0.00129511 -0.0257077 0.0321108 2.35285e-07 3.07996e-07 9.29728e-07 0.0005 5.23599e-07 
143 1 0.0245916 0.0194585 0.00601664 -0.00204462 -0.00338664 0.0149482 0 0 -5.1365e-06 0.0005 5.23599e-07 
144 1 0.0210324 0.0233554 0.0109948 -0.000292193 -0.00216828 -0.0230929 -8.03725e-07 -2.40769e-06 -1.26712e-05 0.0005 5.23599e-07 
145 1 0.02084 0.0242575 0.0140571 -0.000434554 0.0009952 -0.00107935 2.83714e-05 1.79085e-05 -7.91348e-05 0.0005 5.23599e-07 
146 1 0.019642 0.0144189 0.0139542 0.00775117 -0.00223517 -0.00612425 0 0 -5.1365e-06 0.0005 5.23599e-07 
147 1 0.020597 0.0140753 0.0131617 0.000312035 0.000951656 0.000485098 1.5855e-06 -9.8623e-07 1.96118e-06 0.0005 5.23599e-07 
148 1 0.0239162 0.0155847 0.01496 -0.000886193 0.00482125 -0.00717744 -3.31042e-06 1.12416e-06 -8.96711e-07 0.0005 5.23599e-07 
149 1 0.0241559 0.0224525 0.0155112 -0.000775403 -0.00177859 -0.0131235 1.28123e-05 1.07812e-06 -2.94922e-06 0.0005 5.23599e-07 
150 1 0.0222829 0.0174429 0.0156515 -0.00153834 0.0353252 0.0307255 0 0 -5.1365e-06 0.0005 5.23599e-07 
151 1 0.0454623 0.0165053 0.00632503 -6.7888e-15 -3.79632e-14 -2.61339e-13 -3.67665e-20 -6.35275e-22 8.47033e-22 0.0005 5.23599e-07 
152 1 0.0172008 0.0233981 0.0144464 0.000472118 0.00534417 0.00237355 -2.27731e-05 1.49006e-05 -4.9672e-06 0.0005 5.23599e-07 
153 1 0.0178997 0.0237593 0.0138294 8.84187e-05 0.00100265 0.000440955 2.69753e-06 1.83957e-06 -4.19757e-06 0.0005 5.23599e-07 
154 1 0.0234012 0.0170992 0.0155145 0.0163102 0.0227742 -0.0156952 0 0 -5.1365e-06 0.0005 5.23599e-07 
155 1 0.0305527 0.0191586 0.00719774 0.000118255 -0.0545799 -0.00436437 4.96959e-10 -1.11458e-07 2.45593e-07 0.0005 5.23599e-07 
158 1 0.0372285 0.0203986 0.00609172 -4.55468e-15 1.46815e-14 -6.81969e-14 7.59894e-19 4.21399e-19 4.23516e-20 0.0005 5.23599e-07 
159 1 0.0234884 0.0229934 0.0149568 -0.00459958 -0.00665443 -0.0340668 0 0 -5.1365e-06 0.0005 5.23599e-07 
160 1 0.0189201 0.0236696 0.0200317 -0.0518697 0.0240181 0.0620184 0 0 -5.1365e-06 0.0005 5.23599e-07 
162 1 0.0233333 0.0149088 0.0103569 0.000639855 -0.013756 0.0495965 4.39042e-07 -1.22005e-06 -1.88705e-06 0.0005 5.23599e-07 
164 1 0.0221114 0.0184467 0.0159145 -0.00927853 0.0384561 -0.00697086 0 0 -5.1365e-06 0.0005 5.23599e-07 
165 1 0.0155548 0.0231106 0.0137985 0.0106112 -0.000140297 -0.0105982 0 0 -5.1365e-06 0.0005 5.23599e-07 
166 1 0.0216388 0.0239057 0.0134943 -0.000991955 0.00156482 0.00348885 0.00019432 -4.90637e-05 6.94519e-05 0.0005 5.23599e-07 
167 1 0.017044 0.0185847 0.0161177 -8.07876e-05 0.041676 0.0432043 0 0 -5.1365e-06 0.0005 5.23599e-07 
168 1 0.0175765 0.0151921 0.0137282 0.0110277 0.00560328 0.00165247 8.07703e-06 -4.89529e-06 4.13977e-06 0.0005 5.23599e-07 
169 1 0.0228564 0.0234392 0.0143117 -0.00141559 -0.000916091 -0.00028841 2.30166e-05 6.43241e-06 -3.26208e-06 0.0005 5.23599e-07 
170 1 0.0187407 0.0198641 0.00727601 0.00134845 -0.0482857 -0.00885357 -2.70851e-07 -2.01633e-06 -1.30472e-07 0.0005 5.23599e-07 
171 1 0.0165597 0.0238881 0.0138559 -0.000663837 -0.000889827 -0.00179401 -2.37034e-06 4.0242e-06 -5.95608e-06 0.0005 5.23599e-07 
172 1 0.0258265 0.0232541 0.0104799 0.000663011 -0.0134818 -0.049076 6.26738e-09 -2.32783e-07 -8.43043e-09 0.0005 5.23599e-07 
173 1 0.0172338 0.024021 0.0131291 0.000306812 -0.000286661 -0.000653491 -4.05265e-07 1.85762e-07 2.1425e-06 0.0005 5.23599e-07 
174 1 0.0221586 0.0209941 0.0155864 0.0115289 0.00360387 0.00258357 1.77897e-06 -3.85447e-06 -1.21821e-06 0.0005 5.23599e-07 
176 1 0.022573 0.0224812 0.0143316 0.0021672 -0.00524847 -0.00613255 4.27476e-05 -2.4875e-05 -6.54807e-05 0.0005 5.23599e-07 
177 1 0.0276185 0.0186895 0.0158117 0.00306895 0.0441774 0.00405493 -4.41691e-07 1.87283e-06 -3.12979e-08 0.0005 5.23599e-07 
178 1 0.089209 0.0204289 0.00606712 -7.39741e-15 -1.34995e-14 8.92983e-14 0 -6.14099e-21 -8.47033e-22 0.0005 5.23599e-07 
180 1 0.0212702 0.0233876 0.0142926 0.00148025 0.000598971 0.00342825 6.42836e-05 3.41983e-05 3.95973e-07 0.0005 5.23599e-07 
182 1 0.0547713 0.0184279 0.005953 5.21711e-15 7.25618e-15 1.04277e-13 6.6005e-19 -1.03057e-18 3.81165e-20 0.0005 5.23599e-07 
183 1 0.0167126 0.0149736 0.0132751 0.0110029 -9.27785e-05 0.00476793 4.53056e-06 4.93669e-06 2.75128e-06 0.0005 5.23599e-07 
185 1 0.0206183 0.0241456 0.013052 0.0011402 0.00273379 -0.000779376 8.89894e-06 4.73833e-05 -3.06041e-05 0.0005 5.23599e-07 
187 1 0.018984 0.021027 0.00768678 0.000401596 -0.0444872 -0.0214848 -2.32061e-08 -2.21452e-07 1.27131e-07 0.0005 5.23599e-07 
188 1 0.0214456 0.0142327 0.0136662 0.00275915 0.00150071 -0.000206302 4.28312e-08 -1.13243e-05 6.45151e-06 0.0005 5.23599e-07 
189 1 0.0190194 0.0237478 0.0155469 -0.00406292 -0.0021693 -0.00635285 3.40039e-07 -1.2001e-06 -3.69298e-06 0.0005 5.23599e-07 
