ITEM: TIMESTEP
2000000
ITEM: NUMBER OF ATOMS
175
ITEM: BOX BOUNDS ff ff ff
-0.02 0.43
-0.02 0.06
-0.02 0.07
ITEM: ATOMS id type x y z vx vy vz fx fy fz radius mass 
1 1 0.0232066 0.0215574 0.0151855 0.00134471 -0.00367195 -0.00270346 -8.67886e-05 -1.97073e-05 3.51352e-05 0.0005 5.23599e-07 
2 1 0.0192142 0.0157355 0.00877272 -6.96914e-05 -0.0339901 0.038975 5.72501e-08 1.01959e-07 1.87194e-07 0.0005 5.23599e-07 
3 1 0.0166855 0.0229122 0.0137125 0.00783258 0.00800895 -0.00557526 -6.02e-05 -8.5741e-05 -3.24182e-05 0.0005 5.23599e-07 
4 1 0.0178345 0.0151463 0.0136285 0.0122538 0.00364399 0.0127284 0 0 -5.1365e-06 0.0005 5.23599e-07 
5 1 0.0223011 0.0214529 0.0156004 0.015071 0.0352822 -0.0241772 0 0 -5.1365e-06 0.0005 5.23599e-07 
6 1 0.0546579 0.01997 0.0058506 -1.2056e-14 -1.69392e-14 -2.43776e-13 -1.51619e-18 -2.54851e-19 9.57147e-20 0.0005 5.23599e-07 
7 1 0.0239115 0.0223579 0.0189598 -0.0351512 -0.0332816 -0.0382428 0 0 -5.1365e-06 0.0005 5.23599e-07 
9 1 0.0244059 0.0207588 0.0168821 -0.0363458 -0.0175055 -0.0663326 0 0 -5.1365e-06 0.0005 5.23599e-07 
10 1 0.0163116 0.0235732 0.0168371 0.00262764 0.0140234 -0.000633406 0 0 -5.1365e-06 0.0005 5.23599e-07 
11 1 0.0285508 0.0200071 0.0157173 0.000775791 0.0479369 -0.012222 -2.87333e-08 9.08655e-08 -2.46666e-07 0.0005 5.23599e-07 
13 1 0.0234437 0.0225596 0.0141155 0.000839176 0.00209885 -0.00491698 -1.74496e-05 7.85326e-06 -6.31672e-05 0.0005 5.23599e-07 
14 1 0.0142939 0.0228998 0.0151134 0.00627127 0.012474 -0.00832789 -1.71677e-07 5.18384e-06 -3.97092e-06 0.0005 5.23599e-07 
15 1 0.0228065 0.0154657 0.0155095 0.0344703 0.00150915 -0.0356645 1.77461e-08 1.1246e-07 -4.88954e-06 0.0005 5.23599e-07 
16 1 0.0220237 0.0209223 0.0180962 -0.133718 -0.0043278 0.0554876 0 0 -5.1365e-06 0.0005 5.23599e-07 
17 1 0.0175151 0.0160248 0.0147762 0.00787648 0.01485 0.0135172 -1.12252e-06 6.28752e-07 -3.98731e-06 0.0005 5.23599e-07 
19 1 0.0187237 0.0146552 0.0137847 -0.00321046 0.0175378 -0.0184839 6.50016e-07 6.70493e-07 -2.95244e-06 0.0005 5.23599e-07 
20 1 0.0345955 0.0188418 0.00570992 8.70798e-20 -7.24606e-21 3.48289e-20 0 0 0 0.0005 5.23599e-07 
22 1 0.0200311 0.0240505 0.0131742 0.014416 -0.00398126 0.0100319 0.000106568 1.18513e-05 2.3668e-05 0.0005 5.23599e-07 
23 1 0.0154257 0.0226218 0.0154183 0.0149273 -0.000327109 -0.00694624 0 0 -5.1365e-06 0.0005 5.23599e-07 
24 1 0.0216411 0.023383 0.0125143 0.00142553 0.00268907 -0.0030232 -1.40721e-05 1.61186e-05 -7.01308e-06 0.0005 5.23599e-07 
25 1 0.0239741 0.0149651 0.0127911 0.00253805 0.0332077 0.0246154 -0.00416609 -0.000419616 -0.00312074 0.0005 5.23599e-07 
26 1 0.0206648 0.0232712 0.0166481 0.0747129 -0.0371067 0.0653066 0 0 -5.1365e-06 0.0005 5.23599e-07 
27 1 0.0228499 0.0230304 0.0134422 0.00149586 0.0011207 -0.0046145 -1.61193e-05 5.17164e-06 1.20344e-05 0.0005 5.23599e-07 
28 1 0.0173706 0.0226506 0.015602 -0.0193388 0.00467603 -0.0312424 0 0 -5.1365e-06 0.0005 5.23599e-07 
29 1 0.018089 0.0166705 0.0152794 0.00641624 0.017751 0.0101401 6.07079e-06 1.08563e-06 7.58577e-07 0.0005 5.23599e-07 
30 1 0.0165533 0.0202669 0.0157796 0.0133737 0.00458108 0.000318478 -5.22598e-07 2.88961e-06 -2.19741e-06 0.0005 5.23599e-07 
31 1 0.0180482 0.0236481 0.0179938 0.0210049 0.0319806 -0.0421764 0 0 -5.1365e-06 0.0005 5.23599e-07 
32 1 0.0237807 0.0193124 0.0160765 -0.00872986 0.0571459 -0.0214603 0 0 -5.1365e-06 0.0005 5.23599e-07 
33 1 0.0206419 0.018488 0.0178117 0.0160041 -0.120473 -0.102314 0 0 -5.1365e-06 0.0005 5.23599e-07 
34 1 0.0189824 0.0240509 0.0167221 -0.00949752 0.0282853 0.0101115 0 0 -5.1365e-06 0.0005 5.23599e-07 
35 1 0.0261202 0.0206336 0.00756126 -0.000205907 -0.0451342 -0.0215827 -6.54657e-08 -1.62353e-07 1.93651e-07 0.0005 5.23599e-07 
36 1 0.0239432 0.0181289 0.0158542 0.00408148 0.0383748 0.00720986 -4.68936e-07 -3.43251e-08 5.26944e-07 0.0005 5.23599e-07 
37 1 0.0147959 0.0219985 0.0158848 0.00341 0.0023042 -0.00746326 -1.02142e-06 1.48616e-05 4.93232e-06 0.0005 5.23599e-07 
38 1 0.0164267 0.0229199 0.015183 0.000507316 -0.0107217 -0.0249801 3.6845e-05 9.69859e-05 0.00011838 0.0005 5.23599e-07 
39 1 0.0201063 0.0141394 0.0127852 -0.0110464 0.0173043 -0.0437375 -1.79582e-08 1.76714e-07 -4.92937e-06 0.0005 5.23599e-07 
40 1 0.0267703 0.0228992 0.00950519 0.00229777 -0.0196837 -0.040411 -2.89844e-06 2.05838e-05 1.52532e-05 0.0005 5.23599e-07 
41 1 0.0195952 0.013719 0.0135436 0.0168147 -0.012148 -0.0382415 0 0 -5.1365e-06 0.0005 5.23599e-07 
42 1 0.016262 0.02011 0.0183581 -0.0783067 -0.0455748 -0.104833 0 0 -5.1365e-06 0.0005 5.23599e-07 
44 1 0.0239799 0.0220492 0.0147879 -0.0094009 -0.00423321 0.004638 -1.44134e-06 8.18067e-06 -3.95652e-06 0.0005 5.23599e-07 
45 1 0.0241762 0.0212518 0.0153617 0.000476362 -0.0129351 -0.00117912 0 0 -5.1365e-06 0.0005 5.23599e-07 
46 1 0.0180818 0.0178848 0.0157858 4.04829e-05 0.0354487 0.00973319 -7.53539e-10 4.54542e-07 9.47054e-10 0.0005 5.23599e-07 
47 1 0.017872 0.0236848 0.0142543 0.000763101 0.00210834 0.00291941 5.54824e-06 -1.76837e-05 2.73943e-05 0.0005 5.23599e-07 
48 1 0.0255773 0.0206988 0.0164989 -0.00693788 0.015489 -0.00636002 0 0 -5.1365e-06 0.0005 5.23599e-07 
49 1 0.0138391 0.0222234 0.0156975 0.00316189 0.00673558 -7.97743e-06 2.27416e-07 7.32428e-09 -5.00233e-06 0.0005 5.23599e-07 
50 1 0.0191182 0.0164417 0.0080226 0.00172883 -0.0198487 0.0104899 4.19674e-06 9.43711e-06 -5.46947e-06 0.0005 5.23599e-07 
51 1 0.0186738 0.0237117 0.0151004 0.00133267 -0.000356558 -0.00167027 5.20974e-05 5.52974e-06 -1.32889e-06 0.0005 5.23599e-07 
52 1 0.0192992 0.0146229 0.0119374 1.83218e-07 0.0324161 -0.0283233 0 0 -5.1365e-06 0.0005 5.23599e-07 
53 1 0.0254919 0.0181765 0.0167171 0.00685237 0.0438337 0.0165493 0 0 -5.1365e-06 0.0005 5.23599e-07 
54 1 0.0241676 0.0169289 0.015404 0.00175252 0.0312568 0.0145013 0 0 -5.1365e-06 0.0005 5.23599e-07 
55 1 0.0264551 0.021806 0.00828091 0.000608358 -0.0389566 -0.0331453 -4.07669e-08 -2.1264e-07 9.51823e-08 0.0005 5.23599e-07 
57 1 0.0201388 0.0218834 0.0211576 -0.0813316 -0.0917819 0.217604 0 0 -5.1365e-06 0.0005 5.23599e-07 
59 1 0.0213415 0.0200075 0.0168331 -0.0608129 -0.0767202 -0.00907049 0 0 -5.1365e-06 0.0005 5.23599e-07 
60 1 0.020358 0.0200499 0.0208709 0.0396386 0.213518 -0.141184 0 0 -5.1365e-06 0.0005 5.23599e-07 
61 1 0.0212724 0.014787 0.0145575 0.00160068 0.00118372 -0.00394672 -4.30607e-06 6.50307e-06 9.22264e-07 0.0005 5.23599e-07 
62 1 0.0169278 0.0234941 0.0145005 0.00250119 -0.00219583 0.0113104 -9.91623e-06 0.000104005 -5.36567e-05 0.0005 5.23599e-07 
63 1 0.0220764 0.0144211 0.0140327 -0.00365367 -0.00133533 -0.0087449 1.1174e-06 2.21431e-07 -3.58845e-06 0.0005 5.23599e-07 
64 1 0.0185191 0.0155399 0.0142424 0.00517274 0.0047688 0.0158938 0 0 -5.1365e-06 0.0005 5.23599e-07 
65 1 0.0253085 0.021646 0.0167121 0.000263876 -0.000910643 -0.000152705 -2.80919e-06 -2.4517e-07 -1.83672e-05 0.0005 5.23599e-07 
66 1 0.0251101 0.0172111 0.0156036 0.0173591 0.0216493 0.00953563 0 0 -5.1365e-06 0.0005 5.23599e-07 
67 1 0.0272202 0.0234017 0.0113489 0.00109032 0.000454903 -0.0519284 1.34112e-08 -2.2437e-07 -9.52297e-08 0.0005 5.23599e-07 
68 1 0.0270875 0.0224862 0.00888398 0.00174987 -0.0302831 -0.0346588 -2.20355e-06 1.85015e-05 1.55993e-05 0.0005 5.23599e-07 
69 1 0.0242417 0.0147355 0.0115032 7.64804e-05 -0.00361138 0.054601 2.36545e-08 2.36075e-07 5.94114e-08 0.0005 5.23599e-07 
70 1 0.0183759 0.0148167 0.0128517 -0.00497725 -0.000236797 0.0023032 2.11034e-06 -7.2986e-08 1.81492e-06 0.0005 5.23599e-07 
71 1 0.0179897 0.0219404 0.0148656 0.00710239 0.00199381 -0.00461382 3.21754e-05 1.4042e-05 -6.09731e-06 0.0005 5.23599e-07 
72 1 0.0170253 0.01772 0.0185583 0.201141 0.00448286 -0.0674315 0 0 -5.1365e-06 0.0005 5.23599e-07 
73 1 0.0247823 0.0218108 0.015929 0.00109951 -0.0026897 -0.00258725 -1.45845e-07 8.62052e-05 -3.77602e-05 0.0005 5.23599e-07 
74 1 0.020973 0.0231544 0.0101852 0.00369143 -0.0149133 -0.038802 -7.47332e-07 -9.89544e-07 -2.8995e-06 0.0005 5.23599e-07 
75 1 0.0178557 0.0140855 0.0143366 0.009606 -0.0341596 -0.0504019 0 0 -5.1365e-06 0.0005 5.23599e-07 
76 1 0.0227686 0.0192665 0.0161971 0.00555364 0.0346341 -0.0079683 0 0 -5.1365e-06 0.0005 5.23599e-07 
77 1 0.0198529 0.0195648 0.00720813 0.000164801 -0.0540986 -0.0113467 -2.6996e-09 -5.58978e-08 2.34705e-07 0.0005 5.23599e-07 
78 1 0.0180948 0.0240682 0.0129558 0.00817651 -0.000394648 -0.00318577 -8.48874e-06 -1.78347e-05 3.81104e-05 0.0005 5.23599e-07 
79 1 0.0224608 0.0197816 0.00583582 -1.89576e-15 1.05712e-15 -1.81979e-14 -1.85394e-19 9.73241e-19 6.86097e-20 0.0005 5.23599e-07 
80 1 0.023913 0.0222006 0.0159099 0.00373849 0.00352191 0.00531994 4.47571e-06 -4.9478e-05 -1.04418e-05 0.0005 5.23599e-07 
81 1 0.0211788 0.0141781 0.01344 5.94218e-05 -0.000108416 0.000486532 1.25903e-06 2.372e-07 -2.80359e-07 0.0005 5.23599e-07 
82 1 0.0170475 0.0218154 0.01514 0.00772846 0.00662108 -5.49172e-05 2.13622e-05 -4.51031e-05 1.41761e-05 0.0005 5.23599e-07 
83 1 0.017724 0.0150325 0.0148863 0.0286618 0.0145752 -0.0384522 0 0 -5.1365e-06 0.0005 5.23599e-07 
84 1 0.0198481 0.0206473 0.0191159 -0.078524 -0.159681 0.196714 0 0 -5.1365e-06 0.0005 5.23599e-07 
85 1 0.0188852 0.0139546 0.0166897 -0.0339009 0.166919 0.0851274 0 0 -5.1365e-06 0.0005 5.23599e-07 
86 1 0.0164324 0.0232944 0.0128323 0.0067678 0.003432 -0.00395553 -6.04137e-05 -7.4822e-06 8.82956e-05 0.0005 5.23599e-07 
87 1 0.0233402 0.0231609 0.0147688 8.88197e-05 1.05337e-05 -0.00191365 -1.47509e-05 -1.83928e-05 -2.19822e-05 0.0005 5.23599e-07 
88 1 0.0173192 0.0185718 0.0159205 1.01235e-05 0.0493221 0.00562081 2.94003e-07 -1.08051e-06 -3.56002e-07 0.0005 5.23599e-07 
89 1 0.0232129 0.0172489 0.0155665 0.0085661 0.0146389 0.00286922 0 0 -5.1365e-06 0.0005 5.23599e-07 
90 1 0.0188927 0.0162007 0.0149141 -0.00314303 0.00814966 0.0118469 -8.10342e-06 8.43377e-06 -1.95119e-05 0.0005 5.23599e-07 
92 1 0.0213448 0.0138132 0.0143434 -6.69353e-05 -4.33612e-05 9.36613e-05 2.5254e-07 1.26164e-07 -9.34221e-08 0.0005 5.23599e-07 
93 1 0.0197774 0.0171837 0.00758138 -0.00841948 -0.05331 0.0241783 0.000178645 -0.000217032 0.000302261 0.0005 5.23599e-07 
95 1 0.02368 0.015737 0.0144899 0.00899901 0.0302666 0.0401121 0 0 -5.1365e-06 0.0005 5.23599e-07 
96 1 0.0224039 0.0234032 0.0153136 -0.0142541 -0.000184252 -0.0344297 0 0 -5.1365e-06 0.0005 5.23599e-07 
97 1 0.0159634 0.0144494 0.0140725 0.000116492 0.00912452 -0.00887873 0 0 -5.1365e-06 0.0005 5.23599e-07 
98 1 0.0218259 0.0227946 0.0140086 0.00377259 0.0100678 -0.0119568 -3.92766e-06 -7.24649e-05 5.85561e-06 0.0005 5.23599e-07 
100 1 0.0236037 0.0230598 0.0156308 0.000658093 -0.00017144 -0.00125255 -3.26097e-05 -4.19463e-05 7.97607e-06 0.0005 5.23599e-07 
101 1 0.0168322 0.0146956 0.0145095 0.0184043 -0.0241451 -0.0122485 0 0 -5.1365e-06 0.0005 5.23599e-07 
102 1 0.0222386 0.0149688 0.0148533 0.00252062 0.00530223 -0.0102184 -1.13515e-06 -3.33891e-07 -6.93152e-06 0.0005 5.23599e-07 
103 1 0.0187117 0.0139126 0.0131152 0.000403577 0.000359542 -0.000444035 4.76048e-07 -4.15547e-07 3.16442e-06 0.0005 5.23599e-07 
105 1 0.0171474 0.0175224 0.015689 0.00347379 0.0378018 0.0141864 -2.55588e-08 3.98098e-07 -2.71172e-07 0.0005 5.23599e-07 
106 1 0.0283054 0.018164 0.00595294 -1.31024e-12 1.35726e-14 1.44644e-13 1.51439e-14 -1.40654e-16 -7.55233e-16 0.0005 5.23599e-07 
107 1 0.0173199 0.0131092 0.0249339 -0.13712 -0.012571 -0.28845 0 0 -5.1365e-06 0.0005 5.23599e-07 
108 1 0.0181302 0.0229139 0.0149113 0.00459266 0.000933044 -0.0131369 5.98637e-05 3.72451e-05 -1.61466e-05 0.0005 5.23599e-07 
109 1 0.0215977 0.0230909 0.0132033 0.0074315 0.00698884 -0.0139164 -4.86044e-06 7.98853e-06 -1.02567e-05 0.0005 5.23599e-07 
110 1 0.0133986 0.0205841 0.0165944 0.00516024 0.0255866 0.0322192 0 0 -5.1365e-06 0.0005 5.23599e-07 
111 1 0.0288313 0.0186241 0.015788 0.000215461 0.0532944 0.00863404 -1.03551e-08 1.30274e-07 -1.922e-07 0.0005 5.23599e-07 
112 1 0.0195414 0.014852 0.0143256 0.000151372 0.0204281 -0.0242132 -7.77634e-08 1.2728e-08 -5.14674e-06 0.0005 5.23599e-07 
113 1 0.0185904 0.0224267 0.0170196 -0.0442987 -0.0281893 0.0125193 0 0 -5.1365e-06 0.0005 5.23599e-07 
114 1 0.0251698 0.0166871 0.0079176 0.00143028 -0.0459071 0.0265225 -5.07909e-07 7.40966e-07 -8.29059e-07 0.0005 5.23599e-07 
115 1 0.0257759 0.0192832 0.00715334 0.00712389 -0.00247983 -0.00493404 2.86482e-05 4.77332e-05 -1.25488e-05 0.0005 5.23599e-07 
116 1 0.0195265 0.0154911 0.0152211 -0.0143264 -0.0169903 -0.0301829 8.10342e-06 -8.43377e-06 9.23887e-06 0.0005 5.23599e-07 
117 1 0.0158814 0.021901 0.0159494 0.0208268 -0.0102215 -0.0019488 0 0 -5.1365e-06 0.0005 5.23599e-07 
118 1 0.0276794 0.02293 0.0133276 -0.00033294 0.0271671 -0.0465191 -6.90159e-07 9.34281e-07 -1.97313e-06 0.0005 5.23599e-07 
119 1 0.0198757 0.0242822 0.0210369 -0.0363078 0.068244 0.343043 0 0 -5.1365e-06 0.0005 5.23599e-07 
120 1 0.0193143 0.0227348 0.0153538 0.0181336 0.0224637 -0.0540089 0 0 -5.1365e-06 0.0005 5.23599e-07 
121 1 0.0161138 0.0219764 0.0148416 0.0104977 0.00325611 0.000208994 -3.64682e-06 -2.53864e-05 -4.78902e-05 0.0005 5.23599e-07 
122 1 0.0354862 0.0197731 0.00599028 -1.25515e-11 -7.20029e-11 -1.89397e-11 8.50904e-14 4.88116e-13 1.29602e-13 0.0005 5.23599e-07 
123 1 0.0248014 0.0186427 0.0159222 0.000211556 0.0492419 0.00463771 -9.64338e-08 -1.35919e-07 -4.1247e-07 0.0005 5.23599e-07 
124 1 0.020258 0.0210469 0.00772127 0.000477351 -0.0449053 -0.0217492 -3.49328e-08 -2.13401e-07 1.26901e-07 0.0005 5.23599e-07 
125 1 0.0163313 0.0211789 0.0154014 0.00783334 0.0106569 -0.00316994 2.14811e-05 -6.9986e-05 7.04983e-05 0.0005 5.23599e-07 
126 1 0.0204178 0.0217777 0.00819628 0.000382637 -0.0390207 -0.0328373 -1.47685e-08 -2.27066e-07 8.74359e-08 0.0005 5.23599e-07 
127 1 0.0226429 0.0236795 0.0143762 0.000166972 0.00100793 3.377e-05 -7.8935e-06 1.52851e-05 2.09002e-06 0.0005 5.23599e-07 
128 1 0.0184102 0.0244064 0.0138127 0.0051448 -0.00148336 -0.000324808 -5.64257e-05 -5.61508e-06 2.32112e-05 0.0005 5.23599e-07 
129 1 0.0201816 0.021691 0.0167755 -0.0416732 -0.116095 0.107346 0 0 -5.1365e-06 0.0005 5.23599e-07 
130 1 0.0211514 0.0239678 0.0131809 -0.00175252 -0.000140349 -0.00283912 -5.34808e-05 -1.00596e-05 7.89147e-07 0.0005 5.23599e-07 
131 1 0.0182515 0.0237715 0.0160033 -0.00138116 -0.00727459 -0.0159075 -7.23267e-05 2.73192e-05 0.000139861 0.0005 5.23599e-07 
132 1 0.0230223 0.0222062 0.0165195 -0.0236747 -0.039259 -0.0318739 0 0 -5.1365e-06 0.0005 5.23599e-07 
133 1 0.0235753 0.0204451 0.0157171 0.0197555 0.0117243 -0.00540145 -6.04178e-06 1.98663e-05 1.68972e-05 0.0005 5.23599e-07 
134 1 0.0234447 0.0192238 0.0174595 0.110261 -0.0985156 0.0327418 0 0 -5.1365e-06 0.0005 5.23599e-07 
135 1 0.0217096 0.0153671 0.0162879 -0.0191204 0.0713404 -0.0433464 0 0 -5.1365e-06 0.0005 5.23599e-07 
136 1 0.0237597 0.0152846 0.0135786 -0.0256474 -0.0339906 0.143485 0.000721284 0.00895095 -0.00228228 0.0005 5.23599e-07 
137 1 0.0172968 0.0209349 0.0155436 0.0212166 0.00825574 -0.0053705 0 0 -5.1365e-06 0.0005 5.23599e-07 
138 1 0.0195297 0.0180253 0.00728135 0.00382246 -0.0461039 0.0118544 3.27938e-05 0.000373175 -0.000200137 0.0005 5.23599e-07 
139 1 0.0181389 0.0160885 0.0259946 -0.111489 -0.00593285 0.187472 0 0 -5.1365e-06 0.0005 5.23599e-07 
140 1 0.0220254 0.0222282 0.0148006 0.00246401 0.0211434 -0.0199134 8.12864e-05 -0.000242444 0.000193851 0.0005 5.23599e-07 
141 1 0.0159155 0.022804 0.0143327 0.00965416 -0.000151492 -0.0054101 -4.27166e-05 4.94603e-06 -9.63997e-05 0.0005 5.23599e-07 
142 1 0.0256803 0.0197145 0.0166852 0.00265386 0.0182766 0.00291409 0 0 -5.1365e-06 0.0005 5.23599e-07 
143 1 0.0220772 0.0236845 0.0136099 0.00114654 0.00174286 -0.00341794 -1.31633e-05 1.55281e-05 -1.68713e-05 0.0005 5.23599e-07 
144 1 0.0206297 0.022515 0.00894578 -0.000153971 -0.0274587 -0.036847 7.86825e-06 7.31202e-05 8.17987e-05 0.0005 5.23599e-07 
145 1 0.023525 0.0161562 0.0153861 0.00322492 0.0303336 0.0426323 0 0 -5.1365e-06 0.0005 5.23599e-07 
146 1 0.0233243 0.0210034 0.0165081 0.0446689 -0.00629201 0.0470515 0 0 -5.1365e-06 0.0005 5.23599e-07 
147 1 0.0187158 0.0148109 0.0148996 -0.00582142 -0.0344449 -0.0243843 0 0 -5.1365e-06 0.0005 5.23599e-07 
148 1 0.017734 0.014109 0.0131878 -0.000267238 -0.00568721 -0.00115862 -4.7476e-06 1.42313e-07 5.39907e-06 0.0005 5.23599e-07 
149 1 0.0204076 0.0144546 0.0140184 -0.0017949 -0.00493614 -0.00178191 0 0 -5.1365e-06 0.0005 5.23599e-07 
150 1 0.0177465 0.0217475 0.0159248 0.0195224 0.0208391 -0.0146068 0 0 -5.1365e-06 0.0005 5.23599e-07 
151 1 0.0454623 0.0165053 0.00632503 -6.79923e-15 -3.79712e-14 -2.61338e-13 6.84509e-20 3.07049e-21 -1.69407e-21 0.0005 5.23599e-07 
152 1 0.0159763 0.0237828 0.0144776 0.00143594 0.00130798 0.00510442 3.86003e-05 1.4188e-05 -5.47784e-05 0.0005 5.23599e-07 
153 1 0.0226215 0.0226359 0.0142351 0.00197591 0.00995713 -0.0107321 -2.3074e-05 -0.000168236 -4.67887e-05 0.0005 5.23599e-07 
154 1 0.0133415 0.0214923 0.0161741 0.00641308 0.0200753 0.000373104 0 0 -5.1365e-06 0.0005 5.23599e-07 
155 1 0.0247315 0.0152666 0.00950703 -0.00137174 -0.027062 0.0511103 -3.39934e-07 -2.27247e-07 -6.44331e-07 0.0005 5.23599e-07 
158 1 0.0225296 0.020446 0.0157371 0.0156448 0.0308601 -0.0255437 0 0 -5.1365e-06 0.0005 5.23599e-07 
159 1 0.0203994 0.0150903 0.014939 -0.00975684 -0.0138274 -0.0191222 -5.34169e-06 5.44449e-06 2.45997e-06 0.0005 5.23599e-07 
160 1 0.0160869 0.0228641 0.0161335 0.0144225 -0.00510231 -0.00822956 0 0 -5.1365e-06 0.0005 5.23599e-07 
162 1 0.0230043 0.0255561 0.0264879 0.029286 0.114105 0.132378 0 0 -5.1365e-06 0.0005 5.23599e-07 
163 1 0.0229629 0.0183244 0.0159015 0.00321169 0.0356628 0.0134497 0 0 -5.1365e-06 0.0005 5.23599e-07 
164 1 0.0188494 0.0235885 0.0141352 0.0066262 -0.00316651 0.00200567 1.30261e-05 3.38721e-05 -9.42446e-05 0.0005 5.23599e-07 
165 1 0.0175042 0.023598 0.0153098 0.0112867 0.0110845 0.00619516 4.01603e-05 -3.56929e-05 6.70971e-05 0.0005 5.23599e-07 
166 1 0.0200008 0.0253222 0.0203449 -0.0297504 -0.0833356 0.00822185 0 0 -5.1365e-06 0.0005 5.23599e-07 
167 1 0.0151306 0.023344 0.0147898 0.015272 0.00538466 -0.0072688 0 0 -5.1365e-06 0.0005 5.23599e-07 
168 1 0.0157059 0.0230486 0.0133841 0.00839514 0.00319709 -0.00838342 -2.60548e-05 -6.11274e-06 8.73399e-06 0.0005 5.23599e-07 
169 1 0.0194472 0.0243305 0.0139232 0.00703587 -0.00252584 0.00248637 3.15654e-05 3.29413e-05 2.42797e-06 0.0005 5.23599e-07 
170 1 0.0171845 0.0238331 0.0130043 0.00313917 0.00802635 -0.0144644 -4.96942e-05 -3.23996e-05 8.9943e-05 0.0005 5.23599e-07 
171 1 0.0176713 0.0229672 0.013599 0.0071623 0.00162844 0.00701089 -5.7886e-05 1.02276e-05 -8.51546e-05 0.0005 5.23599e-07 
172 1 0.0214319 0.0242466 0.0140662 -0.00100053 -0.000230508 -0.00189815 -2.16321e-05 -3.72761e-06 -2.92898e-06 0.0005 5.23599e-07 
173 1 0.0167903 0.0141929 0.0135703 0.00186602 -0.00266578 0.00611911 3.11682e-08 -1.64908e-07 -3.44499e-07 0.0005 5.23599e-07 
174 1 0.0176038 0.0195861 0.0265366 -0.0974736 -0.0729985 0.13103 0 0 -5.1365e-06 0.0005 5.23599e-07 
175 1 0.0172109 0.0237213 0.0162999 0.00496043 0.0052432 -0.0158911 0 0 -5.1365e-06 0.0005 5.23599e-07 
176 1 0.0232229 0.0148343 0.0147376 0.00111811 0.000793043 0.000744306 -1.01489e-06 6.18641e-07 -3.86495e-06 0.0005 5.23599e-07 
177 1 0.0202069 0.0235453 0.0144404 -0.0136969 0.0573671 0.0157256 0 0 -5.1365e-06 0.0005 5.23599e-07 
178 1 0.089209 0.0204289 0.00606712 -7.39741e-15 -1.34966e-14 8.92987e-14 -5.29396e-23 -6.98802e-21 -8.47033e-22 0.0005 5.23599e-07 
180 1 0.0144864 0.0180346 0.016712 -0.0771289 -0.0442497 -0.0202362 0 0 -5.1365e-06 0.0005 5.23599e-07 
181 1 0.0212567 0.0218488 0.0164353 -0.0293617 -0.118813 0.0482875 0 0 -5.1365e-06 0.0005 5.23599e-07 
182 1 0.0212254 0.0216674 0.0195252 -0.0272154 -0.100817 0.167528 0 0 -5.1365e-06 0.0005 5.23599e-07 
183 1 0.0190635 0.0240893 0.0130456 0.0106115 -0.0079962 -0.000881214 9.03216e-05 -2.15121e-05 4.12107e-05 0.0005 5.23599e-07 
184 1 0.0188179 0.0219657 0.0158822 0.00595328 0.0463853 -0.0218604 0 0 -5.1365e-06 0.0005 5.23599e-07 
185 1 0.0227718 0.022439 0.0154292 -0.0371568 -0.0107222 0.0406499 0.000168254 7.40431e-05 1.67629e-05 0.0005 5.23599e-07 
186 1 0.0181234 0.0151929 0.0171038 0.0971346 0.0518394 -0.0102515 0 0 -5.1365e-06 0.0005 5.23599e-07 
187 1 0.0205973 0.0240346 0.0123773 0.000149639 7.23072e-05 -0.00355665 1.46836e-06 1.52303e-06 -7.69819e-06 0.0005 5.23599e-07 
188 1 0.0183023 0.0209491 0.015552 -0.00234211 0.055927 -0.030104 0 0 -5.1365e-06 0.0005 5.23599e-07 
189 1 0.0172264 0.0243604 0.0139185 -0.00165983 0.00138269 0.00226387 8.55309e-05 2.60529e-05 4.81022e-05 0.0005 5.23599e-07 
190 1 0.00114528 -0.0044774 0.00196645 -0.0721099 -0.0582714 -1.08898 0 0 -5.1365e-06 0.0005 5.23599e-07 
