ITEM: TIMESTEP
4200000
ITEM: NUMBER OF ATOMS
152
ITEM: BOX BOUNDS ff ff ff
-0.02 0.43
-0.02 0.06
-0.02 0.07
ITEM: ATOMS id type x y z vx vy vz fx fy fz radius mass 
1 1 0.0234476 0.0158904 0.015687 0.0201396 0.00718377 0.00511314 -2.56746e-07 -3.91571e-07 -3.14239e-06 0.0005 5.23599e-07 
2 1 0.0256408 0.0174649 0.0166829 -0.0266299 -0.0536279 -0.0223788 0 0 -5.1365e-06 0.0005 5.23599e-07 
3 1 0.0204403 0.022856 0.0150133 -0.0690495 0.00145085 -0.0415734 0 0 -5.1365e-06 0.0005 5.23599e-07 
4 1 0.0173886 0.0145169 0.0141527 0.00273566 -0.00157168 0.000840216 -6.63872e-06 5.47005e-06 2.23852e-06 0.0005 5.23599e-07 
5 1 0.0184535 0.0190152 0.0186779 -0.53133 -0.324068 0.230691 0 0 -5.1365e-06 0.0005 5.23599e-07 
6 1 0.0592595 0.0187057 0.00589343 6.98426e-15 -1.46633e-14 -1.82228e-13 -1.80415e-18 -9.81076e-19 8.47033e-21 0.0005 5.23599e-07 
7 1 0.0264941 0.0148395 0.0121265 0.00585982 0.00708303 0.0290409 -1.08791e-05 6.25658e-05 -3.43494e-05 0.0005 5.23599e-07 
9 1 0.0222626 0.0148562 0.0165966 0.0608769 0.0160864 0.0116413 0 0 -5.1365e-06 0.0005 5.23599e-07 
10 1 0.0180022 0.0243472 0.0137035 0.000586915 0.00172628 0.00137005 1.50931e-06 3.52465e-06 -3.97784e-06 0.0005 5.23599e-07 
11 1 0.0330948 0.0151998 0.00963133 0.00768568 -0.0105625 0.0245875 1.75216e-05 -2.15225e-06 -2.61702e-06 0.0005 5.23599e-07 
13 1 0.0191594 0.0229404 0.0136833 0.00136411 0.00271122 -0.00661891 1.7495e-05 2.87632e-06 -3.61515e-06 0.0005 5.23599e-07 
14 1 0.0201929 0.0238189 0.014838 0.00281789 0.00581644 -0.00250486 6.11789e-06 6.13582e-06 8.11887e-06 0.0005 5.23599e-07 
15 1 0.0255862 0.0207072 0.0165001 -0.0145925 0.0147966 0.0495496 0 0 -5.1365e-06 0.0005 5.23599e-07 
17 1 0.0156528 0.0234634 0.0143605 0.00326836 -0.0033224 -0.011109 0 0 -5.1365e-06 0.0005 5.23599e-07 
19 1 0.0173826 0.016094 0.0163966 -0.00536426 -0.0203924 0.0493802 0 0 -5.1365e-06 0.0005 5.23599e-07 
20 1 0.0346743 0.0188316 0.00571084 5.74527e-20 1.68449e-19 1.07802e-19 0 0 0 0.0005 5.23599e-07 
22 1 0.0183913 0.016352 0.0162493 -0.0834991 0.070762 0.0145574 0 0 -5.1365e-06 0.0005 5.23599e-07 
23 1 0.0201705 0.0227655 0.0139669 0.0120635 0.00624852 -0.000465552 1.98707e-06 -4.74697e-06 -3.56771e-06 0.0005 5.23599e-07 
24 1 0.0287043 0.0203856 0.00592074 -1.63692e-14 1.5523e-16 -1.92034e-13 -1.58819e-21 -4.54618e-21 0 0.0005 5.23599e-07 
25 1 0.0294815 0.0233234 0.0107329 0.00292356 -0.0050741 -0.0391502 -2.54345e-06 6.90622e-07 -1.45478e-06 0.0005 5.23599e-07 
27 1 0.0287857 0.0217359 0.00809381 0.00132184 -0.0363249 -0.0280346 -5.20617e-07 -2.3898e-06 -1.2917e-06 0.0005 5.23599e-07 
28 1 0.0199246 0.0236131 0.0158066 -0.0748882 -0.244573 -0.0214748 0 0 -5.1365e-06 0.0005 5.23599e-07 
29 1 0.0197504 0.0237011 0.0139494 0.000242779 0.00302106 -0.00404337 -1.27342e-05 2.10137e-05 -1.46196e-05 0.0005 5.23599e-07 
30 1 0.0176174 0.0187639 0.0174987 0.0377845 0.0543431 -0.0478895 0 0 -5.1365e-06 0.0005 5.23599e-07 
31 1 0.0209949 0.0150102 0.0100064 0.0011374 -0.0159567 0.0462501 -7.35383e-08 1.38015e-07 2.96332e-07 0.0005 5.23599e-07 
32 1 0.0181694 0.0229682 0.0135896 0.00451338 0.00980998 -0.0214785 1.23263e-05 -4.69248e-06 -1.2755e-05 0.0005 5.23599e-07 
34 1 0.0182167 0.0148901 0.0147378 -3.73692e-05 0.00143527 0.030036 -5.72377e-05 0.000143522 7.59354e-06 0.0005 5.23599e-07 
35 1 0.0309775 0.0198616 0.0157167 0.000583629 0.0473089 -0.011074 -2.30547e-08 9.33851e-08 -2.3826e-07 0.0005 5.23599e-07 
36 1 0.0205445 0.0158234 0.01588 -0.00595895 0.0648096 -0.00262762 0 0 -5.1365e-06 0.0005 5.23599e-07 
37 1 0.0244112 0.0194912 0.0176853 -0.0657901 0.00966676 -0.0567941 0 0 -5.1365e-06 0.0005 5.23599e-07 
38 1 0.0216812 0.0241563 0.0141856 -0.00179585 0.00358275 0.00471603 -3.5597e-07 -9.53034e-05 -1.13608e-05 0.0005 5.23599e-07 
40 1 0.0317157 0.016726 0.0151332 -3.94696e-06 0.041504 0.0314905 3.93115e-08 1.22408e-07 -1.47265e-07 0.0005 5.23599e-07 
41 1 0.0276267 0.0168287 0.00779058 0.00372368 -0.0364834 0.02398 -5.50111e-07 -1.3738e-06 1.61304e-06 0.0005 5.23599e-07 
42 1 0.0193588 0.0242694 0.0132262 0.00159529 0.00139532 -0.0042703 -2.29358e-05 1.39789e-05 3.88323e-06 0.0005 5.23599e-07 
44 1 0.0175746 0.014123 0.0132528 -0.000215664 0.00113272 0.000345518 6.25881e-06 -1.30978e-05 -4.45982e-06 0.0005 5.23599e-07 
45 1 0.0219165 0.0155437 0.0142265 0.017962 -0.0127157 -0.0119252 0 0 -5.1365e-06 0.0005 5.23599e-07 
46 1 0.0212062 0.0186222 0.0160887 0.000315593 0.058379 0.00560593 8.36008e-07 7.77461e-07 -1.1618e-06 0.0005 5.23599e-07 
47 1 0.0216657 0.0168612 0.00776259 0.000842557 -0.0424047 0.0258872 -6.3253e-08 -2.88646e-08 2.57221e-07 0.0005 5.23599e-07 
49 1 0.0209886 0.0145962 0.0146918 0.0111044 0.0274448 -0.0172742 0 0 -5.1365e-06 0.0005 5.23599e-07 
50 1 0.0136831 0.0203448 0.015947 -0.000312004 0.0557461 -0.0434836 0 0 -5.1365e-06 0.0005 5.23599e-07 
51 1 0.0187604 0.0237953 0.0140496 0.00142103 0.000928458 0.000391888 -3.56628e-06 -8.72447e-06 -1.30294e-05 0.0005 5.23599e-07 
53 1 0.0186261 0.0236401 0.0130423 0.00668096 0.0068782 -0.0138094 1.75073e-05 1.07053e-05 -1.46105e-05 0.0005 5.23599e-07 
54 1 0.0267383 0.0182025 0.00597096 -1.69481e-14 -2.72982e-15 2.76309e-13 -1.27055e-21 7.53727e-21 0 0.0005 5.23599e-07 
55 1 0.0315097 0.0175149 0.015516 0.000877487 0.0471844 0.017198 -3.58147e-08 1.59663e-07 -1.93958e-07 0.0005 5.23599e-07 
57 1 0.0219828 0.021455 0.0165086 0.0175968 -0.141507 0.137132 0 0 -5.1365e-06 0.0005 5.23599e-07 
59 1 0.0194396 0.0223365 0.0144972 0.00888637 0.00410677 -0.00146166 -1.39842e-06 -7.89658e-06 -1.2709e-07 0.0005 5.23599e-07 
60 1 0.0188956 0.0215225 0.0168231 -0.191515 -0.00195993 0.146873 0 0 -5.1365e-06 0.0005 5.23599e-07 
61 1 0.029608 0.019721 0.00584316 -8.71344e-15 3.65812e-17 -1.02212e-13 3.17637e-21 4.36809e-20 0 0.0005 5.23599e-07 
63 1 0.0254606 0.0179104 0.0158023 0.0061346 0.0120691 0.00511036 -0.000100162 6.45415e-05 -4.62993e-05 0.0005 5.23599e-07 
64 1 0.0219092 0.0144135 0.0143151 0.00620796 0.0107832 -0.0237799 0 0 -5.1365e-06 0.0005 5.23599e-07 
65 1 0.0230592 0.0227075 0.0092524 0.00776021 -0.0162952 -0.0215003 2.06917e-06 -5.83457e-06 -1.62633e-05 0.0005 5.23599e-07 
66 1 0.0245154 0.015856 0.0157011 0.0207335 0.0174161 0.015871 -1.03641e-06 -8.81477e-07 -4.7811e-07 0.0005 5.23599e-07 
67 1 0.0322619 0.0151351 0.0131812 0.00027812 0.0195001 0.0503832 -2.61775e-08 2.45613e-07 -2.87811e-08 0.0005 5.23599e-07 
68 1 0.0319495 0.0157828 0.0142739 0.00533515 0.0342529 0.0368458 -5.79807e-05 3.78292e-05 -1.47313e-05 0.0005 5.23599e-07 
69 1 0.0297176 0.023366 0.0118728 0.00055126 0.00398142 -0.0499477 4.01921e-09 -1.8109e-07 -8.57396e-08 0.0005 5.23599e-07 
70 1 0.019651 0.0237158 0.0173162 -0.163169 -0.0740325 0.0460225 0 0 -5.1365e-06 0.0005 5.23599e-07 
71 1 0.019258 0.0189271 0.0159692 0.0148106 0.0552019 0.00353719 0 0 -5.1365e-06 0.0005 5.23599e-07 
73 1 0.0158005 0.0145643 0.0141147 0.0137683 0.0186377 0.00662479 0 0 -5.1365e-06 0.0005 5.23599e-07 
74 1 0.0205809 0.0145591 0.0121077 0.0224294 0.0114053 0.00276799 0 0 -5.1365e-06 0.0005 5.23599e-07 
75 1 0.0238303 0.0228811 0.00949219 0.00259265 -0.00263802 -0.00328521 2.07838e-06 1.38115e-05 1.91637e-05 0.0005 5.23599e-07 
78 1 0.0192377 0.0232795 0.0147609 0.0087522 0.00392336 0.000281566 -4.33907e-06 5.92872e-06 -2.29917e-06 0.0005 5.23599e-07 
79 1 0.0224608 0.0197816 0.00583582 -2.21746e-15 4.09446e-16 -1.81945e-14 9.03467e-19 2.10006e-18 4.23516e-21 0.0005 5.23599e-07 
81 1 0.0183603 0.0143526 0.0139058 0.00578655 0.00377758 -0.00220377 -5.91062e-06 2.49713e-05 2.81813e-05 0.0005 5.23599e-07 
82 1 0.0216314 0.016301 0.015044 -0.00232213 -0.0364027 -0.0238886 0 0 -5.1365e-06 0.0005 5.23599e-07 
83 1 0.0184871 0.0149248 0.0204212 0.0716799 -0.117746 0.0589357 0 0 -5.1365e-06 0.0005 5.23599e-07 
84 1 0.0208087 0.0205169 0.0156984 0.00162406 0.0484461 -0.0170303 1.17942e-07 4.07204e-07 7.89974e-07 0.0005 5.23599e-07 
85 1 0.0251969 0.020083 0.00727901 0.000510904 -0.0522923 -0.0137916 -7.42175e-08 -1.20973e-07 2.5967e-07 0.0005 5.23599e-07 
87 1 0.0188157 0.0217596 0.0150243 0.00425897 0.00142803 -0.00270356 1.35703e-07 1.06277e-06 -6.73944e-06 0.0005 5.23599e-07 
88 1 0.0226357 0.0153458 0.0152475 0.0191813 -0.000552979 0.00807432 0 0 -5.1365e-06 0.0005 5.23599e-07 
90 1 0.019827 0.0164947 0.0151507 0.00109797 0.0263821 0.0160646 0 0 -5.1365e-06 0.0005 5.23599e-07 
92 1 0.0191855 0.0137168 0.0136934 0.0106777 -0.00336502 -0.00779119 2.58713e-07 4.20097e-06 -4.8063e-06 0.0005 5.23599e-07 
93 1 0.0280127 0.0184847 0.0072297 0.00037682 -0.0485657 0.0076946 1.09523e-07 -3.80276e-07 1.98064e-07 0.0005 5.23599e-07 
95 1 0.0236672 0.0151562 0.0150143 0.00799427 -0.000723713 -0.00108092 -1.43915e-07 -6.26953e-07 -3.58041e-06 0.0005 5.23599e-07 
96 1 0.0254141 0.0188664 0.0160837 0.0202433 0.0119372 0.020333 -1.14377e-05 0.000103006 -3.95872e-06 0.0005 5.23599e-07 
97 1 0.0221889 0.0149963 0.0133302 -1.22829e-05 0.00206438 0.0111401 -1.21183e-09 -2.42198e-06 -1.81798e-06 0.0005 5.23599e-07 
101 1 0.0185305 0.013991 0.0129898 0.00111381 -0.00320873 -0.000466035 -2.08091e-06 3.82169e-05 9.49379e-07 0.0005 5.23599e-07 
102 1 0.0255539 0.0198368 0.0158962 0.0139136 0.0108072 0.0274075 -1.31801e-05 0.000193721 -1.07024e-05 0.0005 5.23599e-07 
103 1 0.0189936 0.0200265 0.0158434 0.000840925 0.0504004 -0.0114276 1.03752e-06 7.10759e-07 -5.89292e-06 0.0005 5.23599e-07 
105 1 0.021806 0.0232202 0.0149101 -0.010488 -0.00044352 0.00236453 0 0 -5.1365e-06 0.0005 5.23599e-07 
106 1 0.0289359 0.0178655 0.00589895 -8.71233e-15 1.23559e-16 -1.02212e-13 -1.37643e-21 -9.15705e-20 0 0.0005 5.23599e-07 
107 1 0.0232122 0.0174301 0.0165017 -0.0263007 -0.0152604 0.0710892 0 0 -5.1365e-06 0.0005 5.23599e-07 
108 1 0.0166243 0.014235 0.0135688 0.0021875 -0.00246838 0.00134144 -1.20606e-07 -1.06752e-07 3.81295e-07 0.0005 5.23599e-07 
109 1 0.0216703 0.0150534 0.0152836 0.0134634 0.0271206 -0.0154431 0 0 -5.1365e-06 0.0005 5.23599e-07 
110 1 0.0182066 0.0234394 0.0148029 -0.00586535 -0.00561587 -0.00316943 0 0 -5.1365e-06 0.0005 5.23599e-07 
111 1 0.0334811 0.0163913 0.00808648 0.00266762 -0.034507 0.0243501 7.51235e-07 4.6665e-06 -3.51186e-06 0.0005 5.23599e-07 
112 1 0.00907664 0.00717918 0.0429618 -0.191577 0.0393615 -0.099724 0 0 -5.1365e-06 0.0005 5.23599e-07 
113 1 0.0202159 0.018587 0.0159566 -0.000994564 0.0592636 0.0163352 2.33939e-06 5.63647e-07 -3.49527e-06 0.0005 5.23599e-07 
114 1 0.0304052 0.0219299 0.0146968 0.00141955 0.0317019 -0.0302318 -1.28578e-06 4.7658e-06 -4.1735e-06 0.0005 5.23599e-07 
115 1 0.0306743 0.0210878 0.0152812 -0.00020864 0.0416739 -0.0208871 -8.47913e-08 -1.60826e-07 -3.84788e-07 0.0005 5.23599e-07 
116 1 0.0197538 0.02375 0.0122906 0.0047541 0.0017913 -0.00127364 -8.58849e-06 -7.63272e-07 -4.10833e-06 0.0005 5.23599e-07 
117 1 0.0196531 0.0192238 0.0180514 -0.362719 -0.228654 0.362251 0 0 -5.1365e-06 0.0005 5.23599e-07 
118 1 0.0325646 0.0148012 0.011748 0.00327729 0.00246087 0.0430935 -2.53666e-07 2.49628e-07 7.27416e-07 0.0005 5.23599e-07 
119 1 0.0241244 0.0224422 0.0147785 0.0380009 0.359908 0.330615 -0.00972492 -0.0113131 0.0317013 0.0005 5.23599e-07 
121 1 0.0152856 0.0158081 0.0145845 -0.0375193 0.00329551 -0.0904331 0 0 -5.1365e-06 0.0005 5.23599e-07 
122 1 0.0354862 0.0197731 0.00599028 3.76297e-15 2.13275e-14 -8.26882e-14 -1.82403e-19 8.25857e-21 -7.6233e-21 0.0005 5.23599e-07 
123 1 0.0199427 0.0202142 0.0160961 0.00360011 0.0439486 -0.0156555 -2.17857e-06 -6.66759e-07 -1.77478e-06 0.0005 5.23599e-07 
124 1 0.0334096 0.0189951 0.00569612 -9.92263e-20 8.37243e-21 5.31989e-20 -3.44107e-22 1.05879e-22 -4.23516e-22 0.0005 5.23599e-07 
125 1 0.0209074 0.0146798 0.0111251 0.15561 8.12713 -0.239565 0.00180004 0.5128 0.0390377 0.0005 5.23599e-07 
126 1 0.0214642 0.0147498 0.0126227 -0.00467721 0.00316321 0.011405 0 0 -5.1365e-06 0.0005 5.23599e-07 
128 1 0.0202218 0.0149755 0.0140367 -0.0136809 -0.00834565 -0.0204058 0 0 -5.1365e-06 0.0005 5.23599e-07 
129 1 0.0148223 0.0231155 0.0148047 0.00244866 0.000942357 -0.00128811 6.31447e-07 1.37825e-06 -4.37959e-07 0.0005 5.23599e-07 
130 1 0.0260517 0.0188219 0.0172095 0.0210726 -0.0319158 0.00081788 0 0 -5.1365e-06 0.0005 5.23599e-07 
131 1 0.0188358 0.0234541 0.012089 0.00743171 0.00167811 -0.011793 -2.12065e-05 3.41559e-05 1.4386e-05 0.0005 5.23599e-07 
132 1 0.0216603 0.0167167 0.0159791 -0.018527 0.0188362 0.0323482 0 0 -5.1365e-06 0.0005 5.23599e-07 
133 1 0.0267225 0.0147592 0.0110441 0.0005369 -0.00665248 0.0514701 -3.69094e-08 1.99253e-07 1.24353e-07 0.0005 5.23599e-07 
134 1 0.0286372 0.0209996 0.0076589 0.00107231 -0.0438814 -0.0197538 3.37017e-08 -7.61513e-07 -1.63674e-07 0.0005 5.23599e-07 
135 1 0.0184206 0.0224927 0.014456 0.010589 0.00137169 -0.0353746 0 0 -5.1365e-06 0.0005 5.23599e-07 
136 1 0.0312198 0.0186396 0.0158075 0.00094877 0.0516432 0.00821113 -3.59675e-06 8.75144e-06 8.7358e-07 0.0005 5.23599e-07 
137 1 0.0283312 0.0198652 0.00731156 -0.000700957 -0.0518995 -0.0138435 -6.25629e-08 -9.92446e-08 1.75886e-07 0.0005 5.23599e-07 
138 1 0.0183743 0.0143088 0.0155342 -0.0380763 0.0340224 0.0297964 6.52689e-05 -0.000198756 7.086e-05 0.0005 5.23599e-07 
139 1 0.0249701 0.0216797 0.0161934 -0.0147691 0.0225345 0.00432302 0 0 -5.1365e-06 0.0005 5.23599e-07 
141 1 0.0198448 0.0192551 0.0167625 -0.0413167 0.0654238 0.0818983 0 0 -5.1365e-06 0.0005 5.23599e-07 
142 1 0.0296766 0.0230744 0.0098271 -0.000325685 -0.0177906 -0.0463041 2.00436e-05 -1.58043e-06 3.0185e-06 0.0005 5.23599e-07 
143 1 0.0244961 0.0217062 0.0152031 -0.0552747 0.189568 -0.19443 0.0123243 0.0257627 -0.00219587 0.0005 5.23599e-07 
144 1 0.0199228 0.0232011 0.0131018 0.00301129 0.00333314 -0.00200332 -8.09367e-06 -7.24949e-07 -6.08506e-06 0.0005 5.23599e-07 
145 1 0.0205725 0.0242678 0.013977 -0.00246481 0.00184557 -0.00205211 4.6054e-05 -0.000141825 0.000119055 0.0005 5.23599e-07 
146 1 0.0191935 0.0143476 0.0144691 0.0313466 0.0205341 -0.0253967 4.86374e-07 5.36787e-07 -4.03206e-07 0.0005 5.23599e-07 
147 1 0.0201956 0.0137521 0.0137143 0.0137559 0.0162928 -0.0320963 0 0 -5.1365e-06 0.0005 5.23599e-07 
148 1 0.022872 0.0146565 0.0144353 0.00471961 0.00233968 0.00166243 -1.0631e-05 7.54085e-06 9.39438e-06 0.0005 5.23599e-07 
149 1 0.0247891 0.0208819 0.0155863 0.00709172 -0.022258 -0.0279147 -0.000472198 0.00121334 -0.00105027 0.0005 5.23599e-07 
150 1 0.0203745 0.0145976 0.0131036 0.0111519 0.00880426 -0.0186153 0 0 -5.1365e-06 0.0005 5.23599e-07 
151 1 0.0454623 0.0165053 0.00632503 -6.79469e-15 -3.79617e-14 -2.61339e-13 -2.2817e-20 -4.5528e-21 1.69407e-21 0.0005 5.23599e-07 
152 1 0.0196153 0.0220914 0.01612 -0.182082 0.0208244 -0.00585683 0 0 -5.1365e-06 0.0005 5.23599e-07 
153 1 0.0173925 0.0236406 0.014123 0.00742129 -0.0028386 0.00124896 -7.13536e-08 1.13647e-06 -5.05136e-06 0.0005 5.23599e-07 
154 1 0.0215514 0.0225388 0.0184295 -0.325562 0.0348846 0.435026 0 0 -5.1365e-06 0.0005 5.23599e-07 
155 1 0.0301407 0.0228263 0.0135405 0.000405173 0.0263886 -0.045331 -1.06061e-08 -1.56434e-07 -1.97518e-07 0.0005 5.23599e-07 
158 1 0.0372285 0.0203986 0.00609172 -3.95399e-15 1.48337e-14 -6.82023e-14 -3.40931e-19 -5.57983e-19 -9.91029e-20 0.0005 5.23599e-07 
159 1 0.0232937 0.0231724 0.0148243 -0.0139793 0.0092283 -0.0159431 -1.04338e-06 1.17145e-07 -2.05342e-06 0.0005 5.23599e-07 
160 1 0.0194517 0.0179549 0.0158318 0.000337051 0.0570892 0.0109813 1.47638e-06 -8.29042e-07 -4.43485e-06 0.0005 5.23599e-07 
162 1 0.0229135 0.0220651 0.00864595 0.00457714 -0.014326 -0.0167403 2.4275e-06 4.89757e-06 7.15911e-06 0.0005 5.23599e-07 
164 1 0.0211444 0.01518 0.0136882 0.00387084 0.0022011 -0.000887066 -7.39578e-08 -6.64308e-07 -4.23488e-06 0.0005 5.23599e-07 
165 1 0.0141981 0.022422 0.0143954 0.00328654 0.0016797 0.000665878 -2.97283e-07 -1.84529e-07 1.19509e-06 0.0005 5.23599e-07 
166 1 0.0212545 0.0239875 0.0133023 -0.000337872 0.00267771 0.00160444 5.19864e-06 -2.11082e-05 1.00954e-05 0.0005 5.23599e-07 
167 1 0.0196832 0.0147894 0.0154257 0.0430512 -0.0960943 0.128912 0 0 -5.1365e-06 0.0005 5.23599e-07 
168 1 0.0174153 0.0148207 0.0154319 -0.12587 0.059994 -0.0578808 0 0 -5.1365e-06 0.0005 5.23599e-07 
169 1 0.0225914 0.0235853 0.0141976 -0.0106478 0.0014177 -0.0106086 -1.24179e-06 -4.49289e-06 1.44794e-07 0.0005 5.23599e-07 
170 1 0.0179139 0.0233865 0.0112876 0.000287275 0.0018105 -0.0140227 -1.78698e-05 -3.12235e-05 -0.000102826 0.0005 5.23599e-07 
171 1 0.0164342 0.0237782 0.0138209 0.00152607 0.00284487 0.00179562 7.75564e-06 3.61451e-06 -6.03757e-08 0.0005 5.23599e-07 
172 1 0.0257128 0.0207382 0.015496 0.0152545 0.0302431 -0.031013 -0.00427011 -0.000531229 0.000281888 0.0005 5.23599e-07 
173 1 0.0171864 0.0240374 0.013216 0.000270573 -5.74976e-05 0.000560042 3.06135e-06 7.71471e-06 -1.28762e-06 0.0005 5.23599e-07 
174 1 0.0207453 0.0157281 0.0144619 0.0103876 -0.00754317 0.00107299 0 0 -5.1365e-06 0.0005 5.23599e-07 
176 1 0.0221388 0.0180386 0.0166712 -0.015967 0.0226263 0.00338869 0 0 -5.1365e-06 0.0005 5.23599e-07 
177 1 0.0271949 0.0153897 0.0092382 0.000915273 -0.02389 0.0413896 2.36292e-08 -5.69877e-08 3.46877e-07 0.0005 5.23599e-07 
178 1 0.089209 0.0204289 0.00606712 -7.39741e-15 -1.34983e-14 8.92984e-14 0 4.87044e-21 8.47033e-22 0.0005 5.23599e-07 
180 1 0.0209963 0.0234585 0.0143579 0.000100397 0.00179551 -0.00321311 -3.86021e-05 -0.000158996 -2.01659e-05 0.0005 5.23599e-07 
182 1 0.0547713 0.0184279 0.005953 5.31201e-15 7.31948e-15 1.04268e-13 -3.04402e-20 2.32934e-20 0 0.0005 5.23599e-07 
183 1 0.0159925 0.0149252 0.0132014 0.00581425 -0.00349451 -0.00564142 0 0 -5.1365e-06 0.0005 5.23599e-07 
185 1 0.0203178 0.02411 0.0130219 0.00171621 0.00379537 0.000545176 5.62056e-06 -2.14976e-05 2.37697e-05 0.0005 5.23599e-07 
186 1 0.0201981 0.0210447 0.024175 -0.473121 -0.143592 1.20924 0 0 -5.1365e-06 0.0005 5.23599e-07 
187 1 0.0178632 0.0234363 0.0122608 0.00841506 0.00305916 -0.0131209 4.79948e-05 3.31188e-05 -5.06457e-05 0.0005 5.23599e-07 
188 1 0.0212688 0.014203 0.0135047 -0.000618226 0.000832939 -0.00603608 0 0 -5.1365e-06 0.0005 5.23599e-07 
189 1 0.0191241 0.0210157 0.0156834 -0.0223678 0.0619528 0.0181233 0 0 -5.1365e-06 0.0005 5.23599e-07 
