ITEM: TIMESTEP
1000000
ITEM: NUMBER OF ATOMS
182
ITEM: BOX BOUNDS ff ff ff
-0.02 0.43
-0.02 0.06
-0.02 0.07
ITEM: ATOMS id type x y z vx vy vz fx fy fz radius mass 
1 1 0.0243542 0.0166798 0.0152757 0.00516974 0.0219575 0.0163597 -1.78318e-06 -2.26863e-07 -2.096e-06 0.0005 5.23599e-07 
2 1 0.0171135 0.0239256 0.013105 -0.122851 0.0624223 -0.0304252 -0.00460823 -0.00623749 -0.00208542 0.0005 5.23599e-07 
3 1 0.0245414 0.0211023 0.0169039 -0.00538941 -0.000908909 -0.00131545 0 0 -5.1365e-06 0.0005 5.23599e-07 
4 1 0.0226137 0.0198885 0.0159327 4.11733e-05 0.0536721 -0.0124496 -1.06901e-06 -1.06543e-05 -1.16093e-05 0.0005 5.23599e-07 
5 1 0.0164337 0.0210807 0.0154607 0.0135535 -0.00439006 0.00369797 0 0 -5.1365e-06 0.0005 5.23599e-07 
6 1 0.0546579 0.01997 0.0058506 -1.22496e-14 -1.7133e-14 -2.43752e-13 -9.26283e-19 2.28805e-19 3.13402e-20 0.0005 5.23599e-07 
7 1 0.0231431 0.0224103 0.0169611 0.0158174 -0.0209596 0.0168727 0 0 -5.1365e-06 0.0005 5.23599e-07 
9 1 0.0231104 0.0176304 0.015739 0.00202461 0.039541 0.0185991 -4.49924e-07 1.32115e-05 2.27503e-06 0.0005 5.23599e-07 
10 1 0.0193959 0.0223594 0.0155896 -0.00233411 -0.0115974 0.0190903 -3.10761e-06 2.60471e-05 -4.85771e-06 0.0005 5.23599e-07 
11 1 0.0262842 0.0212025 0.00782613 -0.000119936 -0.0441714 -0.0294024 -2.26509e-08 -1.49627e-07 1.67929e-07 0.0005 5.23599e-07 
12 1 0.0180613 0.0165929 0.015211 -0.00125444 0.00659024 0.00112917 4.45593e-08 -9.59234e-07 2.88029e-07 0.0005 5.23599e-07 
13 1 0.0178237 0.0220833 0.0159387 -0.0342299 -0.00140284 0.00744982 1.15317e-06 6.80346e-07 -3.95507e-06 0.0005 5.23599e-07 
14 1 0.0209466 0.0158896 0.015688 0.00607349 -0.00244341 -8.40255e-05 0 0 -5.1365e-06 0.0005 5.23599e-07 
15 1 0.025105 0.0192348 0.0167964 -0.000906691 -0.000756597 0.00147674 4.1062e-07 3.41014e-07 -5.61183e-06 0.0005 5.23599e-07 
16 1 0.0251183 0.0172545 0.01557 0.00587321 0.0165577 0.00338746 0 0 -5.1365e-06 0.0005 5.23599e-07 
17 1 0.0244993 0.0153201 0.0137845 -0.662595 -1.2304 -3.20196 0.0494029 0.600499 -0.45447 0.0005 5.23599e-07 
19 1 0.0167813 0.0229087 0.013672 0.0535349 -0.0518392 0.024716 2.74415e-05 -0.000343415 0.000756745 0.0005 5.23599e-07 
20 1 0.0345955 0.0188418 0.00570992 8.70798e-20 -7.24606e-21 3.48289e-20 0 0 0 0.0005 5.23599e-07 
21 1 0.0255172 0.0208756 0.0164249 0.00040313 -0.000204941 0.00039412 3.24672e-06 -6.16023e-07 -7.84079e-07 0.0005 5.23599e-07 
22 1 0.0225233 0.020202 0.0169351 0.000461835 -0.0281887 0.0371071 0 0 -5.1365e-06 0.0005 5.23599e-07 
23 1 0.025796 0.0199485 0.016682 -0.000295091 0.000155883 -0.000107301 -1.99039e-06 -2.23829e-07 -2.72438e-06 0.0005 5.23599e-07 
24 1 0.0186593 0.0219467 0.016793 -0.00969265 -0.0121764 0.0180661 0 0 -5.1365e-06 0.0005 5.23599e-07 
25 1 0.0195913 0.0152292 0.0137683 0.0105552 0.000695459 -0.000217007 0 0 -5.1365e-06 0.0005 5.23599e-07 
26 1 0.0197776 0.0239893 0.0145582 0.00104478 0.00369691 -0.00998249 0 0 -5.1365e-06 0.0005 5.23599e-07 
27 1 0.0239107 0.0219064 0.0165038 -0.00164884 0.00172542 -0.000321756 2.73062e-05 2.07572e-05 -6.93676e-06 0.0005 5.23599e-07 
28 1 0.0174792 0.0227561 0.0152438 0.018857 0.0120361 -0.0021748 2.41163e-06 -1.44468e-05 -5.41836e-06 0.0005 5.23599e-07 
29 1 0.0214904 0.0226963 0.00915852 0.00245185 0.00850172 0.00608185 -8.59036e-06 1.90471e-06 7.18433e-07 0.0005 5.23599e-07 
30 1 0.0248253 0.0201826 0.016627 -0.00210081 0.0023853 5.32323e-05 -8.03273e-07 -3.10935e-06 -5.2219e-06 0.0005 5.23599e-07 
31 1 0.020287 0.0191655 0.00714689 0.00818858 -0.000830032 -0.0015327 -4.62997e-05 0.000570846 -3.06284e-05 0.0005 5.23599e-07 
32 1 0.0199441 0.0238377 0.0155349 0.00371471 -0.00421326 -0.00264653 0 0 -5.1365e-06 0.0005 5.23599e-07 
33 1 0.0189844 0.0158666 0.00856056 0.00718431 8.3401 4.52608 0.0891759 0.120294 0.243848 0.0005 5.23599e-07 
34 1 0.0203262 0.0147019 0.014724 0.00606578 -0.00593156 0.00725156 1.72656e-05 -9.31785e-06 1.14948e-05 0.0005 5.23599e-07 
35 1 0.0213248 0.0233865 0.0118332 0.00548214 -0.000469983 -0.05354 3.70014e-05 6.56899e-05 -3.39668e-05 0.0005 5.23599e-07 
36 1 0.0208983 0.0141007 0.0132485 0.00292217 0.00195616 0.000536146 -1.69141e-05 8.88224e-06 -1.38346e-05 0.0005 5.23599e-07 
37 1 0.0198488 0.0173778 0.00750694 -0.000408524 -0.0218905 0.00652781 2.66266e-08 4.2323e-07 7.04987e-08 0.0005 5.23599e-07 
38 1 0.0172859 0.0213095 0.0168582 -0.0393896 -0.065579 0.038078 0 0 -5.1365e-06 0.0005 5.23599e-07 
39 1 0.0161463 0.0218893 0.0149225 0.0151828 0.0109803 -0.00686097 0 0 -5.1365e-06 0.0005 5.23599e-07 
40 1 0.0233565 0.0224173 0.0143285 0.00362875 0.00627571 -0.00766151 -8.60481e-06 -6.0342e-06 -3.32641e-05 0.0005 5.23599e-07 
41 1 0.0219535 0.0158484 0.0157354 0.00468988 0.00190928 0.0227126 0 0 -5.1365e-06 0.0005 5.23599e-07 
42 1 0.0201111 0.0154485 0.0153527 0.0131516 -0.00784674 0.0107519 -9.3316e-06 2.88368e-05 1.96394e-05 0.0005 5.23599e-07 
44 1 0.0206472 0.0225575 0.00903484 0.00288044 -0.0269467 -0.0335354 -5.88271e-06 1.42307e-05 2.46861e-05 0.0005 5.23599e-07 
45 1 0.0238797 0.0198993 0.0167938 0.000809051 -0.00321727 -0.00544123 0 0 -5.1365e-06 0.0005 5.23599e-07 
46 1 0.0174467 0.0143289 0.0146513 -0.00221116 0.0210326 0.0508367 0 0 -5.1365e-06 0.0005 5.23599e-07 
47 1 0.0163484 0.0232409 0.0149201 0.00217686 -0.00302166 -0.00135904 1.628e-05 -2.86464e-06 7.51911e-07 0.0005 5.23599e-07 
48 1 0.0241853 0.0213111 0.0157901 0.00474595 0.011342 -0.00224055 -5.97981e-06 1.86278e-05 1.79138e-05 0.0005 5.23599e-07 
49 1 0.0161331 0.0148844 0.0148431 -0.0104187 -0.00848053 -0.0122031 0 0 -5.1365e-06 0.0005 5.23599e-07 
50 1 0.0240032 0.0180076 0.0158846 0.00895587 0.0236104 0.00551754 -4.79595e-06 3.05744e-05 5.54433e-06 0.0005 5.23599e-07 
51 1 0.0207556 0.0234073 0.0163284 -0.00786911 -0.0137763 0.00320498 0 0 -5.1365e-06 0.0005 5.23599e-07 
52 1 0.0156953 0.0230457 0.0133807 0.0521903 -0.0487819 0.0182185 0.000805871 0.000204729 -0.00162004 0.0005 5.23599e-07 
53 1 0.0223347 0.0225286 0.0143161 0.0125514 0.0236177 -0.0482647 8.35839e-05 3.6566e-05 -7.88279e-05 0.0005 5.23599e-07 
54 1 0.0256033 0.0175803 0.0165236 0.000454927 0.000757077 0.00014313 6.21248e-07 3.80688e-07 3.57212e-06 0.0005 5.23599e-07 
55 1 0.0249894 0.0216857 0.0161702 0.00231811 0.00476281 0.0076438 9.21429e-06 -6.39538e-06 1.35026e-06 0.0005 5.23599e-07 
57 1 0.0205816 0.023301 0.0146398 -0.000934987 -0.00388859 -0.00619693 -0.000134812 -0.00043221 4.09489e-05 0.0005 5.23599e-07 
59 1 0.0229609 0.0229355 0.0135772 0.000253644 0.00513914 -0.00843145 -5.39189e-05 -2.89425e-05 2.07341e-05 0.0005 5.23599e-07 
60 1 0.0204902 0.0209309 0.0164308 -0.0286582 0.0274319 -0.0266982 0 0 -5.1365e-06 0.0005 5.23599e-07 
61 1 0.0237881 0.0189883 0.0159984 0.0122007 0.0158622 -0.0087511 -8.69548e-06 2.18802e-05 9.96849e-08 0.0005 5.23599e-07 
62 1 0.0163863 0.0234467 0.0165385 -0.00179223 -0.0034979 -0.00113802 0 0 -5.1365e-06 0.0005 5.23599e-07 
63 1 0.02084 0.0230325 0.00981926 0.00514714 -0.0107002 -0.029256 9.81655e-07 6.16769e-06 1.46566e-05 0.0005 5.23599e-07 
64 1 0.0178536 0.0225387 0.0168823 -0.00844201 -0.00492316 0.0192089 0 0 -5.1365e-06 0.0005 5.23599e-07 
65 1 0.024441 0.0203903 0.0157274 0.00792088 0.0158114 -0.00611028 -1.89815e-05 2.43079e-05 -9.45251e-06 0.0005 5.23599e-07 
66 1 0.0215018 0.0232948 0.0127379 0.00422608 0.0134965 -0.0396363 -1.78767e-05 9.59127e-05 4.864e-06 0.0005 5.23599e-07 
67 1 0.0246459 0.0194624 0.0159369 0.00765605 0.0199806 -0.00229201 -1.12073e-05 2.56889e-05 -2.07649e-06 0.0005 5.23599e-07 
68 1 0.0208655 0.0205152 0.0074613 -0.163704 1.155 -10.9855 -0.0988871 0.208943 0.370154 0.0005 5.23599e-07 
69 1 0.0186839 0.0155573 0.0142538 0.00601031 0.0110257 0.0193127 6.47241e-06 7.5323e-06 1.86138e-07 0.0005 5.23599e-07 
70 1 0.0175362 0.0143097 0.0163021 -0.00925095 0.0827273 -0.0561009 0 0 -5.1365e-06 0.0005 5.23599e-07 
71 1 0.0233116 0.0209311 0.0155442 0.00430915 0.0199956 -0.0161073 -5.1461e-06 6.70145e-06 2.30448e-05 0.0005 5.23599e-07 
72 1 0.0163477 0.0143509 0.0138639 -0.0151466 0.0333004 0.0145977 0 0 -5.1365e-06 0.0005 5.23599e-07 
73 1 0.0221051 0.0144263 0.0140499 0.00128618 0.00228176 -0.000780833 -2.89198e-06 7.84791e-06 1.87322e-06 0.0005 5.23599e-07 
74 1 0.0173055 0.0234777 0.0119094 0.00945924 0.00230795 -0.00987411 3.09174e-08 1.6684e-07 1.24253e-07 0.0005 5.23599e-07 
75 1 0.0242683 0.0147321 0.0113656 0.000309839 -0.00480746 0.0530496 1.75687e-09 2.27113e-07 8.77077e-08 0.0005 5.23599e-07 
76 1 0.0236337 0.0149966 0.0151933 -0.00177045 -0.00670307 0.00413042 0 0 -5.1365e-06 0.0005 5.23599e-07 
77 1 0.0153214 0.0227597 0.0152886 -0.000928273 -0.00516542 -0.000562083 -6.16127e-07 -6.28362e-06 6.02982e-07 0.0005 5.23599e-07 
78 1 0.0162907 0.0237308 0.0139293 -0.0191991 0.0101697 -0.00409214 0.000293505 -0.000315308 -0.000417904 0.0005 5.23599e-07 
79 1 0.0230109 0.0218186 0.0149486 0.00365762 0.00898153 -0.00502927 4.22196e-05 -5.18141e-05 4.20965e-05 0.0005 5.23599e-07 
80 1 0.0243423 0.0223498 0.0157337 -0.00109677 2.99235e-05 -0.000169583 3.62504e-06 3.76692e-05 -5.46306e-06 0.0005 5.23599e-07 
81 1 0.0184513 0.0140537 0.0128813 0.00652191 -0.00144219 0.00225125 -1.76938e-05 6.98534e-06 -1.9996e-05 0.0005 5.23599e-07 
82 1 0.0172409 0.0171364 0.0155095 0.00567898 0.0271494 0.0125552 -4.46986e-07 -3.79183e-07 2.38021e-07 0.0005 5.23599e-07 
83 1 0.0232448 0.0191261 0.01683 -0.0062663 0.00297209 -0.0194102 0 0 -5.1365e-06 0.0005 5.23599e-07 
84 1 0.0176897 0.0154887 0.0141771 0.00282022 0.0251388 0.0372575 8.88222e-06 -4.91482e-07 -3.29746e-06 0.0005 5.23599e-07 
85 1 0.0211844 0.0151365 0.0150033 0.00152955 -0.00278732 0.00273121 0 0 -5.1365e-06 0.0005 5.23599e-07 
86 1 0.0187505 0.0228427 0.0161829 -0.00156912 -0.0152985 -0.000288404 0 0 -5.1365e-06 0.0005 5.23599e-07 
87 1 0.0221842 0.0150924 0.0150033 0.00173122 0.00150171 0.003542 0 0 -5.1365e-06 0.0005 5.23599e-07 
88 1 0.0183529 0.0149558 0.0133021 0.00271803 0.00109695 0.00356844 0 0 -5.1365e-06 0.0005 5.23599e-07 
89 1 0.0187686 0.0198782 0.0166547 -0.0445795 -0.051633 -0.0183041 0 0 -5.1365e-06 0.0005 5.23599e-07 
90 1 0.0223502 0.0232042 0.01286 0.000663223 0.00684469 -0.0117358 4.04014e-05 5.10201e-05 0.000106819 0.0005 5.23599e-07 
92 1 0.0203894 0.0217263 0.00816039 0.000109879 -0.0407692 -0.0332074 2.8651e-08 -1.05808e-06 -5.63304e-07 0.0005 5.23599e-07 
93 1 0.0180179 0.0240667 0.012954 -0.0732931 -0.180409 -0.0415838 0.000857103 -0.0063028 -0.00080604 0.0005 5.23599e-07 
94 1 0.0187773 0.0153355 0.00929821 0.103164 0.614211 0.166991 0.00151102 -0.0169729 0.0253669 0.0005 5.23599e-07 
95 1 0.0191991 0.0167231 0.00788271 0.000409721 -0.0352853 0.0248565 -8.90737e-07 -4.22728e-06 2.78638e-06 0.0005 5.23599e-07 
96 1 0.0191716 0.0140914 0.0135734 0.00193089 -0.00191732 0.00392635 2.81218e-06 3.07481e-06 -2.16958e-05 0.0005 5.23599e-07 
97 1 0.0202763 0.0218267 0.016001 -0.0162275 0.00807884 0.0130514 0 0 -5.1365e-06 0.0005 5.23599e-07 
98 1 0.018172 0.0146502 0.0121286 0.0141861 0.00501173 0.00340419 -5.40314e-06 -2.42326e-05 1.0889e-05 0.0005 5.23599e-07 
100 1 0.023736 0.022808 0.0150967 -0.00094486 -0.000165209 -0.00026868 3.00346e-05 -2.84927e-05 1.06943e-05 0.0005 5.23599e-07 
101 1 0.0184285 0.0175329 0.0156916 0.000397503 0.0166469 0.00860453 7.18244e-08 4.50606e-07 -2.54776e-07 0.0005 5.23599e-07 
102 1 0.0245114 0.0158019 0.0157278 -0.0107698 0.000574996 -0.0187923 -1.12098e-06 5.43226e-07 -1.88088e-06 0.0005 5.23599e-07 
103 1 0.0186677 0.0145371 0.0143271 0.0132723 -0.00300722 -0.00932559 0 0 -5.1365e-06 0.0005 5.23599e-07 
104 1 0.0213021 0.0203176 0.0165996 0.00126512 0.0574927 -0.0144443 -1.28318e-06 1.28764e-06 -4.87767e-07 0.0005 5.23599e-07 
105 1 0.0184096 0.0229779 0.014948 0.00639185 0.0155889 -0.0365611 -0.000211209 0.00150325 -0.00035247 0.0005 5.23599e-07 
106 1 0.019152 0.0146256 0.0119317 0.0136061 7.57954e-05 0.00281127 -4.26355e-06 -1.99283e-06 2.58938e-06 0.0005 5.23599e-07 
107 1 0.0216826 0.0212584 0.0163094 -0.00333358 0.061251 -0.0183476 0 0 -5.1365e-06 0.0005 5.23599e-07 
108 1 0.0186356 0.0239689 0.016151 -0.0226055 0.000241731 -0.00112943 0 0 -5.1365e-06 0.0005 5.23599e-07 
109 1 0.0184127 0.0208271 0.0175031 -0.0545907 -0.0717447 -0.0155028 0 0 -5.1365e-06 0.0005 5.23599e-07 
110 1 0.0248453 0.0185026 0.0159636 0.00780585 0.0218455 0.00632129 -8.09052e-06 3.56947e-05 -2.27912e-07 0.0005 5.23599e-07 
111 1 0.0266398 0.0225251 0.00892297 0.00639285 -0.0119058 -0.0194749 -3.31479e-05 1.70359e-05 1.48101e-05 0.0005 5.23599e-07 
112 1 0.0229621 0.0147048 0.0145087 -0.0016735 -0.00323545 -4.64809e-05 -1.23822e-06 4.15768e-06 -2.90079e-06 0.0005 5.23599e-07 
113 1 0.023619 0.0208743 0.0165147 -0.0089268 -0.0112358 -0.0101956 0 0 -5.1365e-06 0.0005 5.23599e-07 
114 1 0.0199058 0.0140526 0.0128891 0.0097356 0.00456276 -0.00576754 -1.61949e-06 7.52918e-07 -1.63442e-06 0.0005 5.23599e-07 
115 1 0.0216735 0.0230452 0.00985127 0.00235028 0.00392884 0.000254979 1.41647e-06 4.5838e-06 6.60663e-06 0.0005 5.23599e-07 
116 1 0.0199631 0.0197935 0.0167645 -0.017142 0.0160349 0.0302033 0 0 -5.1365e-06 0.0005 5.23599e-07 
117 1 0.023762 0.0151768 0.0134444 -0.051354 -0.918373 -1.19064 0.0275617 0.0756659 -0.0714367 0.0005 5.23599e-07 
118 1 0.024779 0.0153405 0.00929417 0.00297408 -0.0195283 0.0379187 6.47542e-05 -0.000189536 4.38173e-05 0.0005 5.23599e-07 
119 1 0.0208112 0.0241591 0.0141991 -0.00626302 -0.0160635 0.00135773 0.000160421 0.000812567 -0.000465711 0.0005 5.23599e-07 
120 1 0.0214435 0.0237843 0.0148778 0.00776881 -0.00284606 -0.00332652 0 0 -5.1365e-06 0.0005 5.23599e-07 
121 1 0.0208446 0.0150111 0.0162948 -0.0424947 0.0842597 -0.0218581 0 0 -5.1365e-06 0.0005 5.23599e-07 
122 1 0.0201153 0.0142802 0.0138431 0.00269951 -0.00147991 0.00332905 -3.1651e-06 -1.72356e-05 -8.66262e-06 0.0005 5.23599e-07 
123 1 0.0199981 0.020193 0.00740478 -0.85719 -0.721212 -1.85942 -0.0250332 0.0398408 -0.000469207 0.0005 5.23599e-07 
124 1 0.0191603 0.021251 0.0162755 -0.00516024 0.0131224 -0.00744402 0 0 -5.1365e-06 0.0005 5.23599e-07 
125 1 0.0212863 0.0240276 0.0175096 -0.0471297 0.0255044 0.0126046 0 0 -5.1365e-06 0.0005 5.23599e-07 
126 1 0.0189971 0.0241015 0.0129017 0.0310216 0.0937234 0.0190986 0.000888892 -0.00754575 0.00285635 0.0005 5.23599e-07 
127 1 0.0221119 0.0220001 0.0151336 0.00474958 0.0329272 -0.0236503 7.97941e-06 -7.32168e-05 3.80685e-05 0.0005 5.23599e-07 
128 1 0.0184686 0.0244124 0.0137099 -0.00818816 0.169456 0.0307098 -0.00250492 -0.00427997 -0.00230848 0.0005 5.23599e-07 
129 1 0.0215912 0.0240226 0.0136424 -0.0120747 -0.0114818 -0.00235381 0.000392959 0.000244512 -0.000237868 0.0005 5.23599e-07 
130 1 0.0208617 0.0240499 0.0130765 0.000100017 0.00270168 -0.0126608 0.000453416 -1.20605e-05 0.000329944 0.0005 5.23599e-07 
131 1 0.0235674 0.0200041 0.0158479 0.00300008 0.0278932 -0.00669879 -1.14814e-05 1.19254e-05 -2.32054e-05 0.0005 5.23599e-07 
132 1 0.0230584 0.023455 0.0153493 0.00114992 -0.000210754 -4.22468e-05 4.01362e-05 -1.02992e-05 8.21942e-06 0.0005 5.23599e-07 
133 1 0.0183067 0.0235684 0.0141771 0.0232608 0.116445 -0.0390689 0.000481562 0.0040234 0.0024107 0.0005 5.23599e-07 
134 1 0.0224386 0.0239422 0.0145926 0.000741567 -0.00117701 0.00285017 -4.18208e-05 4.41587e-05 -5.16799e-05 0.0005 5.23599e-07 
135 1 0.0195981 0.0241953 0.01642 -0.0242109 -0.0178754 -0.0346173 5.84055e-07 -1.45361e-06 -3.4513e-06 0.0005 5.23599e-07 
136 1 0.0188236 0.0158412 0.0152071 0.0204796 0.0161082 -0.00205483 0 0 -5.1365e-06 0.0005 5.23599e-07 
137 1 0.0161832 0.0227901 0.0157973 0.000918237 -0.011216 -0.00321514 8.42906e-07 -2.16954e-07 -6.41487e-06 0.0005 5.23599e-07 
138 1 0.0202876 0.0244549 0.0174301 -0.0531009 0.020888 0.0240343 0 0 -5.1365e-06 0.0005 5.23599e-07 
139 1 0.0223459 0.0211168 0.0155023 0.00508626 0.0342709 -0.0193446 1.31524e-06 -7.11796e-05 -1.30435e-05 0.0005 5.23599e-07 
140 1 0.016005 0.0225752 0.0142069 0.0144101 0.0121286 -0.0115785 1.50957e-05 -5.46566e-05 -2.53717e-05 0.0005 5.23599e-07 
141 1 0.0192827 0.0148345 0.0129017 0.00494156 0.000834156 0.00382195 -1.94211e-06 -1.27554e-07 -1.36984e-06 0.0005 5.23599e-07 
142 1 0.0221188 0.0230968 0.0152045 0.013935 0.00130836 -0.00856601 0 0 -5.1365e-06 0.0005 5.23599e-07 
143 1 0.0169928 0.0202525 0.0159588 -0.10031 0.0148596 0.0211459 0 0 -5.1365e-06 0.0005 5.23599e-07 
144 1 0.0212455 0.0218956 0.0183523 -0.0423732 -0.102908 0.0170299 0 0 -5.1365e-06 0.0005 5.23599e-07 
145 1 0.0179228 0.020527 0.0162499 0.024112 -0.0373669 5.14906e-05 0 0 -5.1365e-06 0.0005 5.23599e-07 
146 1 0.0200829 0.0221323 0.0177265 -0.10471 -0.0588597 0.0779022 0 0 -5.1365e-06 0.0005 5.23599e-07 
147 1 0.0234065 0.0225911 0.0159989 -0.00235419 0.00123799 -0.000127206 1.26197e-05 -1.29339e-05 1.50978e-06 0.0005 5.23599e-07 
148 1 0.0193991 0.0150746 0.0147584 0.00724284 -0.00158967 0.00876069 1.18884e-05 1.7391e-06 9.68947e-06 0.0005 5.23599e-07 
149 1 0.0164228 0.0233368 0.012892 0.130991 -0.0866261 -0.0115152 -0.00101975 0.00671359 -0.00119781 0.0005 5.23599e-07 
150 1 0.0168757 0.0220399 0.0155942 0.0114074 0.00317273 -0.00997311 7.52679e-06 -6.38723e-07 -8.98277e-06 0.0005 5.23599e-07 
151 1 0.024004 0.0218614 0.0149365 0.00183842 0.000762494 0.000518438 -1.73565e-06 -8.90072e-07 -9.42775e-06 0.0005 5.23599e-07 
152 1 0.0143819 0.0231014 0.0152625 -1.48166e-05 -0.00349309 -0.00260521 1.23564e-06 -7.94242e-07 -3.2666e-06 0.0005 5.23599e-07 
153 1 0.0170058 0.0226813 0.0163617 -0.0037139 -0.0076968 0.00436585 0 0 -5.1365e-06 0.0005 5.23599e-07 
154 1 0.0214011 0.0225234 0.0156078 0.00451858 0.0169766 -0.00505498 -5.21465e-06 6.49528e-07 -7.10214e-06 0.0005 5.23599e-07 
155 1 0.0211136 0.0145201 0.0141353 0.000711711 -0.00228804 0.000491289 -1.1805e-05 2.05317e-06 5.47832e-07 0.0005 5.23599e-07 
157 1 0.0196337 0.0225656 0.0166314 -0.0157462 -0.0496115 0.00746635 0 0 -5.1365e-06 0.0005 5.23599e-07 
158 1 0.023702 0.0157696 0.014517 -0.00176761 0.0111907 0.00707307 0 0 -5.1365e-06 0.0005 5.23599e-07 
159 1 0.016945 0.022349 0.014502 0.0198585 0.0127731 -0.00862989 -1.64998e-07 -2.80297e-07 -5.64789e-06 0.0005 5.23599e-07 
160 1 0.0178755 0.0233087 0.016049 0.00458171 -0.00088902 0.00534607 0 0 -5.1365e-06 0.0005 5.23599e-07 
161 1 0.0228942 0.0185838 0.015956 0.00126697 0.0431726 0.0108537 3.69405e-07 4.36626e-06 -4.38198e-06 0.0005 5.23599e-07 
162 1 0.0196573 0.0230525 0.014918 -0.0102999 -0.00146257 -0.000119207 -3.18708e-05 -0.000184286 0.000174945 0.0005 5.23599e-07 
163 1 0.0176587 0.0218063 0.0149922 0.0248302 0.0150873 -0.00818896 1.45089e-05 -2.77551e-05 -7.18797e-06 0.0005 5.23599e-07 
164 1 0.0178311 0.0237368 0.0150675 -0.00127158 -0.0236565 0.0089042 -0.000425419 0.00074242 0.000422413 0.0005 5.23599e-07 
165 1 0.0194729 0.0232625 0.0175016 -0.0460442 0.00941846 -0.0176941 0 0 -5.1365e-06 0.0005 5.23599e-07 
166 1 0.0233548 0.016645 0.0152666 0.00457885 0.0316771 0.0176384 1.97484e-08 -1.51808e-09 -5.12365e-06 0.0005 5.23599e-07 
167 1 0.0154929 0.0223694 0.0163899 -0.0174249 -0.0367008 -0.0506679 0 0 -5.1365e-06 0.0005 5.23599e-07 
168 1 0.0172226 0.0239794 0.0166686 0.00196831 -0.00594235 -0.00355732 0 0 -5.1365e-06 0.0005 5.23599e-07 
169 1 0.0194094 0.0244483 0.0137389 0.0282217 0.105936 0.0026128 -0.00056709 0.00122672 -0.00311711 0.0005 5.23599e-07 
170 1 0.0154417 0.0234003 0.0145306 0.000380041 -0.00187453 0.000912138 -2.96541e-06 8.53704e-07 -1.24341e-06 0.0005 5.23599e-07 
171 1 0.0189704 0.023696 0.0152464 0.00706376 -0.0350813 0.0131825 0.000308146 3.30656e-05 0.000292952 0.0005 5.23599e-07 
172 1 0.0223021 0.0235386 0.013757 0.00528224 0.00947062 -0.0103125 9.84544e-06 7.94332e-05 -0.000140767 0.0005 5.23599e-07 
173 1 0.0249782 0.0182509 0.0169228 0.00098927 -6.22219e-06 0.00421448 -7.40382e-07 1.54878e-06 -3.79099e-06 0.0005 5.23599e-07 
174 1 0.0231164 0.0232767 0.0144358 0.000392874 0.000441056 -0.000642234 -1.8678e-05 -7.62656e-06 2.75188e-05 0.0005 5.23599e-07 
175 1 0.0185823 0.0243733 0.0170658 -0.0126859 -0.00602844 -0.011508 1.45575e-06 -2.62873e-06 -2.40096e-06 0.0005 5.23599e-07 
176 1 0.0222549 0.0221126 0.0163172 -0.0746071 -0.00735872 0.0472924 0 0 -5.1365e-06 0.0005 5.23599e-07 
177 1 0.0200995 0.0238432 0.0136089 0.00748529 0.0425406 -0.00292485 0.000365044 0.000656906 0.000775033 0.0005 5.23599e-07 
178 1 0.089209 0.0204289 0.00606712 1.07268e-08 1.96083e-08 3.85694e-09 5.48871e-11 1.0054e-10 1.97673e-11 0.0005 5.23599e-07 
179 1 0.0226772 0.0212063 0.0166478 -0.00475585 -0.0104658 0.026187 0 0 -5.1365e-06 0.0005 5.23599e-07 
180 1 0.018267 0.0137595 0.0138399 0.0101791 -0.00960999 -0.00668255 -1.4061e-05 -1.03899e-05 1.26565e-05 0.0005 5.23599e-07 
181 1 0.0171784 0.023412 0.0143896 -0.0064929 -0.0174809 -0.0380561 0.000530908 -0.00161186 0.000796751 0.0005 5.23599e-07 
182 1 0.0214923 0.0224984 0.0173331 -0.0745596 -0.0507561 0.0609645 0 0 -5.1365e-06 0.0005 5.23599e-07 
183 1 0.0154414 0.0191459 0.0229584 0.000670824 0.0268253 0.0610515 0 0 -5.1365e-06 0.0005 5.23599e-07 
184 1 0.0217417 0.0229149 0.013582 0.000203552 0.0209236 -0.0379725 -5.75659e-05 8.76689e-05 -0.000260099 0.0005 5.23599e-07 
185 1 0.0204267 0.0226253 0.0154084 -0.0052674 0.0236317 -0.0205341 5.21465e-06 -6.49528e-07 -3.17086e-06 0.0005 5.23599e-07 
186 1 0.0169383 0.0184349 0.0159121 0.00127637 0.0496389 0.0073668 -5.08295e-09 6.93226e-08 -2.86669e-07 0.0005 5.23599e-07 
187 1 0.020008 0.0240855 0.0126726 0.00116163 0.00336479 -0.00777459 0.000244734 0.000191427 0.000850622 0.0005 5.23599e-07 
188 1 0.0173355 0.0141517 0.0136119 -0.0256617 0.00244432 0.0458381 0 0 -5.1365e-06 0.0005 5.23599e-07 
189 1 0.0175922 0.0242487 0.0141587 -0.00309691 0.0334819 0.017519 0.000281246 0.00167744 -0.00101965 0.0005 5.23599e-07 
190 1 0.0170057 0.0235528 0.0156157 0.00525084 0.0058354 0.000623819 -1.75124e-05 -3.58847e-05 4.17954e-05 0.0005 5.23599e-07 
