ITEM: TIMESTEP
3600000
ITEM: NUMBER OF ATOMS
156
ITEM: BOX BOUNDS ff ff ff
-0.02 0.43
-0.02 0.06
-0.02 0.07
ITEM: ATOMS id type x y z vx vy vz fx fy fz radius mass 
1 1 0.0190312 0.0236964 0.0156368 0.0870738 0.114091 0.0528872 0 0 -5.1365e-06 0.0005 5.23599e-07 
2 1 0.0246122 0.0250789 0.0249324 0.00761623 0.122408 -0.0556079 0 0 -5.1365e-06 0.0005 5.23599e-07 
3 1 0.0244107 0.0216184 0.0151388 0.000579063 0.00365086 -0.0063437 -1.06781e-06 -2.83115e-06 -9.27304e-06 0.0005 5.23599e-07 
4 1 0.0242964 0.017643 0.0158697 0.0097564 0.0130494 -0.00272429 2.78187e-06 1.98528e-06 -4.2878e-06 0.0005 5.23599e-07 
5 1 0.0246631 0.0194139 0.0159367 0.00246474 -0.0110892 -0.00189731 -1.35012e-05 7.79558e-06 -6.70763e-05 0.0005 5.23599e-07 
6 1 0.0592595 0.0187057 0.00589343 7.06248e-15 -1.48474e-14 -1.8221e-13 2.47866e-18 8.25487e-19 3.04932e-20 0.0005 5.23599e-07 
7 1 0.0250473 0.0212094 0.0158359 0.00421171 0.000291443 -4.8521e-05 7.78172e-06 1.62603e-05 -6.17814e-05 0.0005 5.23599e-07 
9 1 0.0245091 0.0222407 0.0159514 -8.85841e-05 0.0222964 -0.00723617 0 0 -5.1365e-06 0.0005 5.23599e-07 
10 1 0.0167489 0.0242013 0.014209 0.00304326 0.0028748 -0.00260759 -3.65594e-05 -1.34753e-05 6.8329e-06 0.0005 5.23599e-07 
11 1 0.0318848 0.0152069 0.00948934 0.00256272 -0.0213664 0.0433089 1.61287e-06 3.97907e-06 -1.24799e-05 0.0005 5.23599e-07 
13 1 0.0169814 0.0237771 0.0150627 0.00578831 0.00277677 -0.00694048 -1.56129e-05 1.68338e-06 5.68984e-06 0.0005 5.23599e-07 
14 1 0.0189981 0.0151618 0.0137599 0.00413966 0.0207031 0.0355033 0 0 -5.1365e-06 0.0005 5.23599e-07 
15 1 0.0210564 0.0146681 0.0141088 0.00873173 0.0523725 -0.0325303 0 0 -5.1365e-06 0.0005 5.23599e-07 
17 1 0.0159684 0.023426 0.0151835 0.00671956 0.00151453 -0.00358739 3.7167e-07 1.69932e-07 -4.32867e-06 0.0005 5.23599e-07 
19 1 0.0193861 0.0173926 0.0156322 0.0213259 -0.0058008 -0.00464457 0 0 -5.1365e-06 0.0005 5.23599e-07 
20 1 0.0345955 0.0188418 0.00570992 8.70798e-20 -7.24606e-21 3.48289e-20 0 0 0 0.0005 5.23599e-07 
22 1 0.0184975 0.0143246 0.014802 -0.0368374 -0.0901899 0.0232384 0 0 -5.1365e-06 0.0005 5.23599e-07 
23 1 0.016928 0.0228815 0.015002 0.0134923 0.00479413 -0.0221956 -1.64836e-06 -3.90053e-06 2.56946e-06 0.0005 5.23599e-07 
24 1 0.0287043 0.0203856 0.00592074 -1.70818e-13 1.64599e-15 -1.78867e-13 4.14794e-16 -4.34858e-18 -3.53628e-17 0.0005 5.23599e-07 
25 1 0.0282201 0.0233016 0.0105446 0.0021428 -0.00938818 -0.0339206 9.99839e-06 3.29563e-06 1.81404e-05 0.0005 5.23599e-07 
27 1 0.0277454 0.0221454 0.00852488 0.00399445 -0.0307838 -0.0294548 -5.30115e-07 -1.09303e-06 -1.09727e-06 0.0005 5.23599e-07 
28 1 0.024557 0.0204177 0.015833 0.0131846 -0.00125695 0.00439356 0.000104099 5.99988e-05 1.55713e-05 0.0005 5.23599e-07 
29 1 0.01774 0.023817 0.0143802 0.00141549 -0.00601706 -0.0064009 0 0 -5.1365e-06 0.0005 5.23599e-07 
30 1 0.0239193 0.0194112 0.0167581 0.0189292 0.0226767 -0.0095831 0 0 -5.1365e-06 0.0005 5.23599e-07 
31 1 0.0174182 0.0216475 0.0151067 0.00956477 0.0257178 -0.0279533 2.2937e-05 -3.84867e-05 3.69187e-05 0.0005 5.23599e-07 
32 1 0.01938 0.0220801 0.0157427 -0.021281 0.062935 0.0544408 0 0 -5.1365e-06 0.0005 5.23599e-07 
34 1 0.0211175 0.019688 0.00722717 0.00135478 -0.050671 -0.0115618 7.76708e-08 -1.99554e-07 1.51062e-07 0.0005 5.23599e-07 
35 1 0.0295826 0.0204983 0.0155142 0.000439886 0.0498561 -0.017306 -2.89275e-09 3.80191e-08 -2.64648e-07 0.0005 5.23599e-07 
36 1 0.0228185 0.0145285 0.0145737 -0.00213495 0.0107803 -0.022843 0 0 -5.1365e-06 0.0005 5.23599e-07 
37 1 0.019211 0.0145903 0.0129607 0.00331205 -0.00994556 0.0557669 0 0 -5.1365e-06 0.0005 5.23599e-07 
38 1 0.0206482 0.0243108 0.0141217 0.0147786 -0.00666064 0.0104278 0.000530868 -0.000101371 0.000196358 0.0005 5.23599e-07 
40 1 0.0304745 0.0167099 0.0151145 0.00249201 0.0237969 0.0178895 3.1785e-07 -1.1371e-06 -9.33329e-07 0.0005 5.23599e-07 
41 1 0.0263277 0.0163723 0.00814613 0.000799434 -0.041218 0.0318091 -8.25595e-08 1.63705e-08 2.81018e-07 0.0005 5.23599e-07 
42 1 0.0176355 0.0242066 0.0134648 0.00791525 0.00106996 -0.00486396 -3.42186e-05 1.77806e-05 1.4856e-05 0.0005 5.23599e-07 
44 1 0.0174319 0.0141989 0.0146174 -0.0512926 -0.0148628 -0.0719543 0 0 -5.1365e-06 0.0005 5.23599e-07 
45 1 0.022778 0.0170134 0.0172955 -0.0712449 -0.0291833 0.0227393 0 0 -5.1365e-06 0.0005 5.23599e-07 
46 1 0.0199111 0.0190639 0.0159607 0.0108671 0.0287509 -0.00635907 0 0 -5.1365e-06 0.0005 5.23599e-07 
47 1 0.0205809 0.0241004 0.0129159 0.00179284 -0.00979461 0.0124584 -0.00018124 2.78224e-05 0.000166521 0.0005 5.23599e-07 
49 1 0.0206957 0.0139983 0.0134584 -0.0202468 0.0159283 -0.0468 0 0 -5.1365e-06 0.0005 5.23599e-07 
50 1 0.0188015 0.0228633 0.0165501 -0.0472923 0.178651 0.287192 0 0 -5.1365e-06 0.0005 5.23599e-07 
51 1 0.013508 0.024208 0.0249555 0.087958 -0.102361 -0.00201215 0 0 -5.1365e-06 0.0005 5.23599e-07 
53 1 0.0261401 0.0222177 0.0228797 -0.00181834 -0.00160542 -0.0048064 0 0 -5.1365e-06 0.0005 5.23599e-07 
54 1 0.0267383 0.0182025 0.00597096 -1.69476e-14 -2.72782e-15 2.76309e-13 1.58819e-22 -4.44031e-21 0 0.0005 5.23599e-07 
55 1 0.0298937 0.0192592 0.0158087 0.00756834 0.0180046 -0.0023615 -3.64818e-05 -0.000504532 -0.000988016 0.0005 5.23599e-07 
57 1 0.0245878 0.0166284 0.0152393 -0.00866087 0.0106192 0.00237168 0 0 -5.1365e-06 0.0005 5.23599e-07 
59 1 0.0189641 0.0193932 0.0159419 0.00836914 0.0240356 -0.0109609 0 0 -5.1365e-06 0.0005 5.23599e-07 
60 1 0.0169675 0.0229638 0.0170865 0.0858406 -0.0871287 -0.0602343 0 0 -5.1365e-06 0.0005 5.23599e-07 
61 1 0.029608 0.019721 0.00584316 -8.71377e-15 1.21846e-16 -1.02212e-13 -1.58819e-22 -9.06441e-20 0 0.0005 5.23599e-07 
63 1 0.0257272 0.0182718 0.0164453 0.0192898 -0.000921986 -0.00210952 0 0 -5.1365e-06 0.0005 5.23599e-07 
64 1 0.0208916 0.0188004 0.00717789 0.000941292 -0.0491814 0.00437653 8.07618e-07 -4.1366e-07 7.19355e-07 0.0005 5.23599e-07 
65 1 0.0176248 0.0207894 0.0155931 0.0111802 0.028469 -0.00755972 0 0 -5.1365e-06 0.0005 5.23599e-07 
66 1 0.025922 0.0193548 0.0169036 0.00658349 0.00531592 -0.00504226 8.35148e-07 -1.41064e-06 -2.42521e-06 0.0005 5.23599e-07 
67 1 0.0311278 0.015085 0.012914 -0.00091307 0.0154502 0.0495006 1.24732e-07 2.53567e-07 -4.7784e-09 0.0005 5.23599e-07 
68 1 0.0308021 0.0156752 0.0142339 0.00172501 0.0293393 0.0346919 -7.06698e-07 4.57618e-06 3.93575e-06 0.0005 5.23599e-07 
69 1 0.0284434 0.0233586 0.0114709 -0.000359027 0.00327518 -0.0537013 2.85683e-06 -1.69453e-06 -6.12766e-07 0.0005 5.23599e-07 
70 1 0.0182144 0.0180929 0.0158405 0.00406618 0.0430354 0.00880488 0 0 -5.1365e-06 0.0005 5.23599e-07 
71 1 0.0167195 0.0142116 0.0135652 0.00240228 -0.00265818 0.00562409 1.43863e-07 -1.93338e-07 3.21833e-07 0.0005 5.23599e-07 
73 1 0.0201408 0.0180184 0.015843 -0.00344863 0.0280535 0.00298242 0 0 -5.1365e-06 0.0005 5.23599e-07 
74 1 0.0175795 0.0223788 0.014445 0.014233 0.0159327 -0.0209654 1.84381e-05 -7.54321e-06 -7.23554e-06 0.0005 5.23599e-07 
75 1 0.0206436 0.0237421 0.0136608 0.00570298 -0.0209208 0.0269786 0.000204476 -0.000126581 0.000216913 0.0005 5.23599e-07 
78 1 0.0230422 0.0221768 0.0158245 0.00387409 0.0721141 -0.0162784 0 0 -5.1365e-06 0.0005 5.23599e-07 
79 1 0.0224608 0.0197816 0.00583582 -1.93119e-15 1.54447e-15 -1.81701e-14 4.42469e-19 1.10162e-18 6.77626e-21 0.0005 5.23599e-07 
81 1 0.0257036 0.0206762 0.0166957 -0.00104089 0.00191666 -0.000566571 5.18526e-08 -2.73973e-09 -5.1344e-06 0.0005 5.23599e-07 
82 1 0.0217357 0.0222279 0.00867711 0.000626143 -0.0343388 -0.0353503 -1.89944e-08 -2.47785e-07 7.50404e-08 0.0005 5.23599e-07 
83 1 0.0200099 0.0162518 0.0154142 0.00200314 -0.0136302 0.0508169 0 0 -5.1365e-06 0.0005 5.23599e-07 
84 1 0.0205785 0.0234496 0.0148405 0.104352 0.061625 0.0525522 0 0 -5.1365e-06 0.0005 5.23599e-07 
85 1 0.0238806 0.0200535 0.0070495 0.008491 -0.0108718 0.00648977 8.29209e-06 3.33802e-06 -2.03271e-06 0.0005 5.23599e-07 
87 1 0.0166002 0.0166826 0.0162721 -0.0058183 -0.00942034 -0.07608 0 0 -5.1365e-06 0.0005 5.23599e-07 
88 1 0.0228197 0.023637 0.0149559 -0.0157113 -0.0129917 -0.0150879 0 0 -5.1365e-06 0.0005 5.23599e-07 
90 1 0.0173713 0.0235125 0.0126746 0.00455156 0.00379989 -0.00288369 -2.56201e-06 1.44854e-05 1.6883e-05 0.0005 5.23599e-07 
92 1 0.0184463 0.0170755 0.0154982 0.00881675 0.0197327 0.00614073 0 0 -5.1365e-06 0.0005 5.23599e-07 
93 1 0.026815 0.0178006 0.00739475 0.00339549 -0.0152589 0.000775647 0.00518064 0.00470505 0.00690483 0.0005 5.23599e-07 
95 1 0.020663 0.0145517 0.0121038 -0.0388261 0.0476278 -0.128408 -3.77878e-06 5.06941e-05 5.36351e-05 0.0005 5.23599e-07 
96 1 0.0228587 0.0230389 0.0133823 0.00123689 0.00632363 -0.0216967 1.02937e-06 8.1676e-08 -1.60928e-06 0.0005 5.23599e-07 
97 1 0.019669 0.0138086 0.0133852 0.0124468 -0.0130764 0.0369959 0 0 -5.1365e-06 0.0005 5.23599e-07 
98 1 0.0232687 0.0210783 0.0164329 -0.00848465 -0.0330569 -0.0270947 0 0 -5.1365e-06 0.0005 5.23599e-07 
101 1 0.017691 0.0140935 0.0132569 0.00299841 -0.000627631 -0.00181069 0 0 -5.1365e-06 0.0005 5.23599e-07 
102 1 0.0252623 0.017391 0.0159463 0.0116475 -0.00381166 -0.00800557 -8.64081e-06 3.48766e-06 4.83047e-06 0.0005 5.23599e-07 
103 1 0.0237952 0.0198868 0.015875 0.0107665 0.0042505 -0.00601577 4.76265e-05 5.63142e-05 4.81853e-05 0.0005 5.23599e-07 
105 1 0.0183003 0.0230236 0.0147202 0.0205877 0.000413378 -0.00175911 -1.50829e-06 -2.04901e-06 5.39887e-07 0.0005 5.23599e-07 
106 1 0.0289359 0.0178655 0.00589895 -8.71266e-15 5.14587e-17 -1.02212e-13 -3.17637e-22 8.25799e-20 0 0.0005 5.23599e-07 
107 1 0.0225158 0.0233945 0.0116413 0.082725 -0.189594 0.0847997 -0.0488049 -0.00310767 0.0201036 0.0005 5.23599e-07 
108 1 0.0252585 0.0216929 0.0166661 0.00427853 -0.0014046 0.000273868 1.40967e-05 -5.56703e-05 -4.24028e-05 0.0005 5.23599e-07 
109 1 0.0249005 0.0184391 0.0159069 0.0163222 0.0106811 0.00276018 -1.08116e-05 1.62152e-05 5.82666e-05 0.0005 5.23599e-07 
110 1 0.0189286 0.0189098 0.0185145 -0.122901 -0.174718 -0.0288724 0 0 -5.1365e-06 0.0005 5.23599e-07 
111 1 0.0323744 0.0165088 0.00800982 0.00391887 -0.0317547 0.0201793 8.36528e-08 1.23886e-06 -6.96139e-07 0.0005 5.23599e-07 
112 1 0.0197698 0.022998 0.0153989 0.0372823 0.0520708 0.0340231 0 0 -5.1365e-06 0.0005 5.23599e-07 
113 1 0.0169998 0.0222584 0.0157813 0.00700931 0.0261683 -0.0205603 1.89942e-05 -3.31283e-05 -9.23509e-07 0.0005 5.23599e-07 
114 1 0.0289745 0.0226637 0.0137615 0.000866295 0.0332575 -0.0429774 -4.95982e-07 -6.05504e-07 1.07718e-06 0.0005 5.23599e-07 
115 1 0.0293596 0.0216605 0.0149396 0.00467945 0.0303912 -0.0210045 -1.08622e-06 2.51637e-06 -3.17832e-06 0.0005 5.23599e-07 
116 1 0.0167398 0.023778 0.0133436 0.0057866 0.00522182 -0.00330041 -2.45396e-05 5.53044e-06 -1.17253e-05 0.0005 5.23599e-07 
117 1 0.0202234 0.0160393 0.00844007 0.000977354 -0.0347583 0.0355393 -3.79572e-07 4.8341e-07 6.0689e-07 0.0005 5.23599e-07 
118 1 0.0313148 0.0148244 0.0120337 0.00112261 0.00854377 0.048219 -5.36933e-08 2.62079e-07 9.26003e-08 0.0005 5.23599e-07 
119 1 0.0184323 0.0216214 0.0152173 0.0203942 0.0528782 -0.0267306 0 0 -5.1365e-06 0.0005 5.23599e-07 
120 1 -0.014036 0.000113904 0.0691427 -0.357281 -0.215607 0.0317808 0 0 -5.1365e-06 0.0005 5.23599e-07 
121 1 0.0202855 0.0238891 0.0162367 -0.000215 0.0548287 0.207383 0 0 -5.1365e-06 0.0005 5.23599e-07 
122 1 0.0354862 0.0197731 0.00599028 3.75817e-15 2.13217e-14 -8.26899e-14 -2.29546e-19 1.86347e-20 -5.92923e-21 0.0005 5.23599e-07 
123 1 0.0185927 0.0205395 0.0157231 0.0189066 0.015447 -0.0266413 0 0 -5.1365e-06 0.0005 5.23599e-07 
124 1 0.0238151 0.0223087 0.0147275 -0.00526219 -0.0049981 -0.0128986 -1.14432e-06 -2.39176e-07 -3.65072e-06 0.0005 5.23599e-07 
125 1 0.018745 0.0228233 0.0138474 0.0105042 0.00236945 -0.00585036 6.31229e-07 8.72022e-06 -9.94893e-06 0.0005 5.23599e-07 
126 1 0.0183703 0.0155304 0.0154259 -0.00795878 0.0178216 0.0458522 0 0 -5.1365e-06 0.0005 5.23599e-07 
127 1 0.0238352 0.0228912 0.0155404 -0.0132479 0.00362306 -0.0183699 0 0 -5.1365e-06 0.0005 5.23599e-07 
128 1 0.0190462 0.024091 0.0129137 -0.00166769 0.001403 -0.000538608 3.10236e-05 1.80609e-06 9.54563e-06 0.0005 5.23599e-07 
129 1 0.0191733 0.0183873 0.0158949 0.0223053 0.015823 -0.00772985 0 0 -5.1365e-06 0.0005 5.23599e-07 
130 1 0.0219242 0.0235255 0.0144305 -0.0199591 0.0273417 -0.0032923 0 0 -5.1365e-06 0.0005 5.23599e-07 
131 1 0.0161395 0.0227526 0.0159033 0.00541254 0.00169063 -0.00525389 -1.79812e-05 3.43413e-05 -7.989e-06 0.0005 5.23599e-07 
132 1 0.0234733 0.0213787 0.0152995 0.000366718 0.0367879 -0.0129627 -1.35622e-06 7.01345e-06 -3.62848e-06 0.0005 5.23599e-07 
133 1 0.0255553 0.0203588 0.0157588 -0.000145444 0.00222987 0.00242416 -3.76936e-05 -3.41023e-05 -2.23458e-05 0.0005 5.23599e-07 
134 1 0.0274587 0.0210465 0.00775381 -0.092216 -0.16731 -10.0679 -0.0378687 0.394214 -0.747101 0.0005 5.23599e-07 
135 1 0.0231092 0.0229029 0.0143408 0.00998483 0.00523556 -0.0267944 -4.68959e-07 -1.30168e-06 -2.89334e-06 0.0005 5.23599e-07 
136 1 0.0305929 0.0199775 0.0155481 -0.418878 5.64361 10.6974 -0.00103869 0.336405 1.67455 0.0005 5.23599e-07 
137 1 0.027104 0.019629 0.00722441 0.00035726 -0.0538626 -0.0108201 1.21053e-08 -6.76961e-08 2.4818e-07 0.0005 5.23599e-07 
138 1 0.0194202 0.0146012 0.0119803 0.0214739 -0.0228819 0.0501027 0 0 -5.1365e-06 0.0005 5.23599e-07 
139 1 0.0214536 0.0239458 0.0132698 0.00201041 -0.00378348 0.0120448 3.81036e-06 2.07269e-05 -0.000303453 0.0005 5.23599e-07 
140 1 0.0198912 0.0225404 0.0166304 0.174174 0.0157742 0.0326351 0 0 -5.1365e-06 0.0005 5.23599e-07 
141 1 0.0171784 0.0150262 0.0151978 -0.0158264 -0.026428 -0.045944 0 0 -5.1365e-06 0.0005 5.23599e-07 
142 1 0.0279671 0.0228382 0.00933292 0.00242764 -0.0198319 -0.0364782 2.82021e-06 2.42366e-06 3.22257e-06 0.0005 5.23599e-07 
143 1 0.0223824 0.023274 0.0106115 0.00211064 -0.00617869 -0.0251341 -1.72695e-05 6.53774e-07 3.11427e-06 0.0005 5.23599e-07 
144 1 0.0246519 0.0201427 0.0167898 -0.00716767 0.0103004 0.0145483 0 0 -5.1365e-06 0.0005 5.23599e-07 
145 1 0.0185112 0.0237851 0.013698 0.00491356 0.0106362 0.00689522 2.33174e-05 -4.3192e-05 -7.55797e-06 0.0005 5.23599e-07 
146 1 0.0196897 0.0200855 0.0158254 0.00234895 0.0330544 -0.0284854 0 0 -5.1365e-06 0.0005 5.23599e-07 
147 1 0.0190659 0.014814 0.0156725 -0.0346464 -0.0468129 -0.0488758 0 0 -5.1365e-06 0.0005 5.23599e-07 
148 1 0.0220199 0.0144184 0.0139804 -0.0111153 -0.00397007 -0.00729821 2.00241e-06 -1.33759e-05 2.66321e-05 0.0005 5.23599e-07 
149 1 0.0209319 0.0154016 0.0155235 0.0124306 0.0215479 0.00916242 0 0 -5.1365e-06 0.0005 5.23599e-07 
150 1 0.017875 0.0230715 0.0134131 0.0119359 0.00720958 -0.00609809 3.42409e-05 -4.53414e-05 5.21402e-05 0.0005 5.23599e-07 
151 1 0.0454623 0.0165053 0.00632503 -6.77951e-15 -3.79577e-14 -2.6134e-13 -3.53451e-19 -1.41984e-19 2.96462e-20 0.0005 5.23599e-07 
152 1 0.0179779 0.0192275 0.0159415 0.00296251 0.0440689 -0.00300409 0 0 -5.1365e-06 0.0005 5.23599e-07 
153 1 0.0183561 0.0199956 0.0165512 0.0177665 0.0230076 -0.0017597 0 0 -5.1365e-06 0.0005 5.23599e-07 
154 1 0.0194603 0.021045 0.0156188 0.0138847 0.0416733 -0.0319982 0 0 -5.1365e-06 0.0005 5.23599e-07 
155 1 0.028712 0.0232479 0.0126554 0.00237019 0.0130753 -0.0382933 5.51014e-09 3.30677e-06 -2.39132e-05 0.0005 5.23599e-07 
158 1 0.0372285 0.0203986 0.00609172 -4.56156e-15 1.48111e-14 -6.81683e-14 -1.31327e-18 -6.55815e-19 -5.75982e-20 0.0005 5.23599e-07 
159 1 0.0179587 0.0238772 0.0172106 0.0899919 0.370877 0.649675 0 0 -5.1365e-06 0.0005 5.23599e-07 
160 1 0.0175221 0.0234696 0.0117301 4.33422e-05 0.0034357 -0.00265497 3.28487e-06 -3.66425e-07 3.61224e-06 0.0005 5.23599e-07 
162 1 0.0191207 0.0223165 0.0146279 0.00522096 -0.00584347 -0.00657006 0 0 -5.1365e-06 0.0005 5.23599e-07 
164 1 0.0256386 0.0192402 0.0159515 0.00111365 -0.00375496 0.0015915 -3.15646e-05 -9.18238e-06 5.92853e-06 0.0005 5.23599e-07 
165 1 0.0220903 0.0207274 0.0169455 -0.00620569 0.0587516 -0.118463 0 0 -5.1365e-06 0.0005 5.23599e-07 
166 1 0.019784 0.0244383 0.0135584 -0.0214172 -0.00746051 -0.012685 0 0 -5.1365e-06 0.0005 5.23599e-07 
167 1 0.0185118 0.0235146 0.0118813 0.00450748 -0.0142232 -0.0348283 3.7776e-07 -1.59333e-05 1.81102e-05 0.0005 5.23599e-07 
168 1 0.0188677 0.0158381 0.0145743 -0.0150024 0.024903 0.0399401 0 0 -5.1365e-06 0.0005 5.23599e-07 
169 1 0.0194489 0.0236352 0.0140566 0.0127519 -0.0101542 0.00594494 0 0 -5.1365e-06 0.0005 5.23599e-07 
170 1 0.0152956 0.0225891 0.0153924 0.00378279 0.00502179 -0.000114431 2.11768e-06 -1.03677e-05 1.92948e-06 0.0005 5.23599e-07 
171 1 0.0151304 0.0232551 0.0146654 0.00360056 0.00420494 0.000926056 4.20388e-07 -3.97024e-06 -2.13575e-06 0.0005 5.23599e-07 
172 1 0.0199167 0.0154189 0.0140606 0.0126983 0.0112056 0.0191662 0 0 -5.1365e-06 0.0005 5.23599e-07 
173 1 0.0159462 0.0235991 0.014198 0.00185527 -0.000967062 -0.00621141 -7.31527e-07 1.67145e-05 -3.03072e-06 0.0005 5.23599e-07 
174 1 0.0235673 0.0150613 0.0149787 -0.00683399 0.0106006 -0.0287328 0 0 -5.1365e-06 0.0005 5.23599e-07 
176 1 0.0204183 0.0218722 0.0159615 0.0684077 0.0446177 -0.0493149 0 0 -5.1365e-06 0.0005 5.23599e-07 
177 1 0.0249542 0.01531 0.0136431 0.00229867 0.0200411 0.037119 2.52692e-08 1.89327e-07 -4.82774e-08 0.0005 5.23599e-07 
178 1 0.089209 0.0204289 0.00606712 -7.39741e-15 -1.34993e-14 8.92983e-14 5.29396e-23 9.84676e-21 8.47033e-22 0.0005 5.23599e-07 
180 1 0.0187152 0.0239435 0.0146637 0.00972143 -0.00371142 0.00743571 -1.11721e-05 -1.39015e-07 -2.28566e-06 0.0005 5.23599e-07 
182 1 0.0547713 0.0184279 0.005953 5.32189e-15 7.26617e-15 1.04271e-13 -1.75193e-18 2.15411e-19 7.53859e-20 0.0005 5.23599e-07 
183 1 0.0181239 0.0213262 0.016283 -0.00340019 0.0532423 0.00120709 0 0 -5.1365e-06 0.0005 5.23599e-07 
185 1 0.0170303 0.0230369 0.0139403 0.00956936 0.00926309 -0.0107769 -4.6783e-07 2.37228e-05 -9.95188e-06 0.0005 5.23599e-07 
186 1 0.0207041 0.0157765 0.0145629 0.0124408 0.0317064 0.00887848 0 0 -5.1365e-06 0.0005 5.23599e-07 
187 1 0.0198208 0.0236467 0.0206255 -0.0934076 0.0775996 0.0382056 0 0 -5.1365e-06 0.0005 5.23599e-07 
188 1 0.0201366 0.0145299 0.0145879 0.0581814 -0.0357399 -0.0450417 0 0 -5.1365e-06 0.0005 5.23599e-07 
189 1 0.0218063 0.00531131 0.0381848 -0.080397 0.147781 -0.0708939 0 0 -5.1365e-06 0.0005 5.23599e-07 
