ITEM: TIMESTEP
5200000
ITEM: NUMBER OF ATOMS
287
ITEM: BOX BOUNDS ff ff ff
-0.02 0.43
-0.02 0.06
-0.02 0.07
ITEM: ATOMS id type x y z vx vy vz fx fy fz radius mass 
1 1 0.0431562 0.0163073 0.00774219 0.00573165 -0.000462517 0.000298597 9.76967e-11 1.07408e-10 -6.31796e-11 5e-05 1.46608e-10 
2 1 0.0435286 0.0172079 0.00744656 0.00539557 -0.000503498 0.000395523 -2.36807e-11 9.2911e-11 -3.47503e-11 5e-05 1.46608e-10 
3 1 0.0369294 0.0158661 0.00825727 0.00636472 0.000632674 -0.000474454 1.11396e-10 1.94339e-10 -2.4704e-10 5e-05 1.46608e-10 
4 1 0.0434812 0.0177965 0.00724659 0.00569699 -0.000394857 0.000507833 -1.78032e-10 2.93918e-11 -1.52792e-11 5e-05 1.46608e-10 
5 1 0.0430442 0.01623 0.0078568 0.00574619 -0.000493798 0.000377952 2.35094e-10 4.40039e-11 8.84572e-12 5e-05 1.46608e-10 
6 1 0.0491505 0.016722 0.00770118 0.00582471 0.00079891 -0.00016022 1.11024e-12 1.00366e-12 -2.76151e-12 5e-05 1.46608e-10 
7 1 0.0432225 0.0170177 0.00749917 0.00528895 -0.000352258 0.000338715 6.82583e-13 -2.92474e-11 -4.01949e-13 5e-05 1.46608e-10 
8 1 0.042941 0.0159359 0.00824763 0.00594212 -0.000610462 0.000483595 8.15654e-11 -2.07759e-10 2.77209e-10 5e-05 1.46608e-10 
9 1 0.0493938 0.0177894 0.0071086 0.00572934 0.000622368 -0.000373293 1.43732e-12 5.6124e-12 1.32217e-12 5e-05 1.46608e-10 
10 1 0.0431624 0.016739 0.00759233 0.00542687 -0.000364711 0.000347055 -1.22623e-10 -2.6865e-11 -3.56919e-13 5e-05 1.46608e-10 
11 1 0.0435893 0.0174858 0.0073537 0.0055153 -0.000525239 0.000407824 2.77506e-11 -5.55142e-11 2.63907e-11 5e-05 1.46608e-10 
12 1 0.0371298 0.0165848 0.00762304 0.00569274 0.000776176 -0.0005441 -4.65658e-11 -1.67532e-10 7.47987e-11 5e-05 1.46608e-10 
13 1 0.043025 0.0161688 0.0079335 0.00583413 -0.000530826 0.000384874 5.67699e-11 5.37282e-11 -5.68826e-11 5e-05 1.46608e-10 
14 1 0.036843 0.0156248 0.00856433 0.00629822 0.000646265 -0.000496406 -5.60966e-11 1.98467e-10 -2.53601e-10 5e-05 1.46608e-10 
15 1 0.0433587 0.017238 0.00742922 0.00532291 -0.000391701 0.00035427 2.73597e-11 5.52775e-11 -1.29653e-11 5e-05 1.46608e-10 
16 1 0.0368214 0.0155645 0.00864109 0.00628293 0.000653675 -0.00050801 3.24316e-11 1.71162e-10 -2.41911e-10 5e-05 1.46608e-10 
17 1 0.0431422 0.0166461 0.00762337 0.0053951 -0.00035848 0.00034758 -2.47074e-10 9.79508e-11 3.26947e-11 5e-05 1.46608e-10 
18 1 0.0492769 0.0172108 0.00721651 0.00576261 0.000613501 -0.00037335 1.5269e-11 1.00569e-11 3.01284e-11 5e-05 1.46608e-10 
19 1 0.0430055 0.0161103 0.00801225 0.00603288 -0.000567065 0.000423699 1.25362e-10 1.26484e-11 -2.62438e-11 5e-05 1.46608e-10 
21 1 0.043141 0.0162466 0.00782374 0.00574486 -0.00049273 0.000337572 2.0892e-10 -4.55251e-11 3.44514e-11 5e-05 1.46608e-10 
22 1 0.0432616 0.0172038 0.00743696 0.00532657 -0.000343533 0.000337148 -4.50021e-11 -1.26687e-10 5.22806e-11 5e-05 1.46608e-10 
23 1 0.0373037 0.0169624 0.00742927 0.00567319 0.000759243 -0.000534419 -1.00352e-10 1.59243e-10 -9.20647e-11 5e-05 1.46608e-10 
24 1 0.0493351 0.0175001 0.00716256 0.0057455 0.000617606 -0.00037309 -7.48215e-12 -6.9791e-12 2.60116e-12 5e-05 1.46608e-10 
25 1 0.0432025 0.0169248 0.00753023 0.00543403 -0.000374706 0.000353184 -6.47466e-12 -5.25377e-11 5.33425e-11 5e-05 1.46608e-10 
26 1 0.0492244 0.0170001 0.00742337 0.00578775 0.000800797 -0.000166068 7.78428e-12 1.81775e-11 -1.70256e-11 5e-05 1.46608e-10 
27 1 0.0372091 0.0169345 0.0074458 0.00567973 0.000786342 -0.00054868 -3.466e-11 1.15793e-10 -6.79718e-11 5e-05 1.46608e-10 
28 1 0.0434606 0.0177027 0.00727457 0.00565139 -0.000395324 0.000503363 3.58302e-12 -1.73677e-10 2.91352e-11 5e-05 1.46608e-10 
29 1 0.0429841 0.0160522 0.00809072 0.00602221 -0.000581615 0.000442958 -5.74444e-11 -7.69733e-11 9.58031e-11 5e-05 1.46608e-10 
30 1 0.0434942 0.0174552 0.00736029 0.00554416 -0.000460999 0.00038611 1.44474e-10 8.23613e-11 -2.26225e-11 5e-05 1.46608e-10 
31 1 0.043242 0.0171108 0.00746806 0.00529171 -0.000345865 0.000336512 1.74367e-11 -2.96578e-12 -1.09265e-11 5e-05 1.46608e-10 
32 1 0.0433391 0.017145 0.00746031 0.00529391 -0.000379041 0.000348426 7.08468e-11 -1.11272e-10 5.02527e-11 5e-05 1.46608e-10 
33 1 0.0491697 0.0167914 0.00763188 0.00587064 0.000795228 -0.000151023 -1.09756e-11 -5.00861e-12 1.60952e-12 5e-05 1.46608e-10 
34 1 0.0431217 0.0165533 0.00765438 0.00569681 -0.000424462 0.000382702 -1.13264e-11 3.09244e-11 1.40265e-11 5e-05 1.46608e-10 
35 1 0.0433195 0.017052 0.00749141 0.00527584 -0.000362966 0.000343501 2.5075e-11 7.21023e-11 -4.12011e-11 5e-05 1.46608e-10 
36 1 0.0494329 0.0179822 0.00707263 0.00570729 0.000627505 -0.00037317 2.86589e-12 1.04271e-11 -2.37915e-12 5e-05 1.46608e-10 
37 1 0.04328 0.0168661 0.00755358 0.00542202 -0.000366303 0.000349277 -4.26035e-11 1.5911e-10 -5.3321e-11 5e-05 1.46608e-10 
38 1 0.0434338 0.0171765 0.00745343 0.00537408 -0.000437624 0.000371618 9.65657e-12 1.4083e-10 -5.24328e-11 5e-05 1.46608e-10 
39 1 0.0493546 0.0175966 0.00714457 0.00575204 0.000616785 -0.000373301 6.0001e-12 7.62678e-12 -6.89471e-12 5e-05 1.46608e-10 
41 1 0.0430807 0.0163676 0.00771639 0.00572017 -0.000445761 0.000391924 1.56574e-11 1.74564e-11 1.85674e-12 5e-05 1.46608e-10 
42 1 0.0432813 0.0172968 0.00740587 0.00531925 -0.000397084 0.000356102 2.25117e-11 8.76722e-11 -2.91783e-11 5e-05 1.46608e-10 
44 1 0.0434536 0.0172694 0.00742235 0.00544034 -0.000452753 0.000379964 6.44052e-11 1.32561e-10 -5.84368e-11 5e-05 1.46608e-10 
45 1 0.0491888 0.0168609 0.00756253 0.00591526 0.0007912 -0.000141779 -2.8024e-12 -6.2688e-12 4.36386e-12 5e-05 1.46608e-10 
46 1 0.0492593 0.0171393 0.00728409 0.00573488 0.000805509 -0.000178419 -3.341e-11 -2.35983e-11 1.9978e-12 5e-05 1.46608e-10 
47 1 0.0431014 0.0164604 0.00768549 0.00570238 -0.000434259 0.000388269 -1.38126e-10 3.65639e-11 -3.37801e-11 5e-05 1.46608e-10 
48 1 0.0433213 0.0174827 0.00734373 0.00552725 -0.00045281 0.000383544 -6.47844e-11 -1.49457e-10 3.81733e-11 5e-05 1.46608e-10 
49 1 0.0492432 0.0170696 0.00735398 0.00576215 0.000804245 -0.000172743 2.48592e-11 5.2932e-13 -6.32466e-12 5e-05 1.46608e-10 
50 1 0.0433832 0.0177615 0.00725092 0.00567062 -0.000385914 0.000505218 -6.01688e-11 -3.28415e-10 1.31709e-10 5e-05 1.46608e-10 
51 1 0.0433625 0.0176685 0.00728165 0.00561642 -0.000421455 0.000373674 2.19252e-11 -5.07422e-11 -2.12755e-11 5e-05 1.46608e-10 
52 1 0.0371098 0.0164974 0.00766734 0.00573237 0.000753953 -0.00053349 3.21975e-11 -6.54803e-11 1.8631e-11 5e-05 1.46608e-10 
53 1 0.0492963 0.0173073 0.00719852 0.00574937 0.000615456 -0.00037358 -2.22243e-12 -1.39503e-12 5.22739e-12 5e-05 1.46608e-10 
54 1 0.0431217 0.0161874 0.00790347 0.00574472 -0.00051324 0.000371728 9.2656e-11 -3.8212e-11 2.20758e-11 5e-05 1.46608e-10 
55 1 0.0368862 0.0157455 0.0084108 0.00630879 0.000635991 -0.000487175 8.08879e-11 8.57051e-11 -1.097e-10 5e-05 1.46608e-10 
56 1 0.0433 0.016959 0.00752252 0.00526275 -0.000371194 0.000344574 3.75958e-11 2.76146e-11 -1.31377e-11 5e-05 1.46608e-10 
57 1 0.0492069 0.0169305 0.00749301 0.00580542 0.000798717 -0.000162053 -2.17613e-11 1.19011e-11 -1.13232e-11 5e-05 1.46608e-10 
59 1 0.0433551 0.0168046 0.00757778 0.00521094 -0.000383344 0.000346878 -1.58007e-10 5.58411e-11 -1.0761e-11 5e-05 1.46608e-10 
60 1 0.043375 0.0168975 0.00754672 0.00522654 -0.000392576 0.000350726 -3.53846e-11 3.44629e-12 -2.82312e-13 5e-05 1.46608e-10 
61 1 0.0430639 0.0162977 0.00778587 0.00573781 -0.000461706 0.000392446 2.28522e-10 1.50388e-11 3.20898e-11 5e-05 1.46608e-10 
62 1 0.0434737 0.0173623 0.0073913 0.00550463 -0.00046382 0.000386061 1.45719e-10 1.1147e-10 -3.84166e-11 5e-05 1.46608e-10 
63 1 0.0434194 0.0175169 0.00733602 0.00556111 -0.00043505 0.000376386 4.70352e-11 -2.71319e-11 8.28478e-11 5e-05 1.46608e-10 
64 1 0.0493157 0.0174037 0.00718054 0.00574182 0.000617843 -0.000373184 -2.16614e-11 -8.38785e-12 9.14885e-13 5e-05 1.46608e-10 
65 1 0.0372248 0.0166124 0.00760661 0.00568576 0.000754963 -0.000533625 -4.98698e-10 -8.14701e-12 2.17849e-11 5e-05 1.46608e-10 
66 1 0.0371644 0.0163503 0.00773947 0.00588577 0.000682005 -0.00050624 -6.23521e-10 -3.51986e-11 -5.37404e-11 5e-05 1.46608e-10 
67 1 0.043568 0.0173322 0.00740552 0.00548312 -0.000526532 0.000406607 1.21976e-10 7.4503e-11 -2.52203e-11 5e-05 1.46608e-10 
68 1 0.0435355 0.0176413 0.00729996 0.0056326 -0.000439847 0.000481147 -2.1462e-11 4.43651e-11 -1.48433e-10 5e-05 1.46608e-10 
69 1 0.043219 0.0165866 0.00764696 0.00542124 -0.000326551 0.000334571 -3.57373e-10 4.66917e-11 -9.9702e-11 5e-05 1.46608e-10 
70 1 0.0493742 0.017693 0.00712658 0.00573963 0.000619704 -0.000373191 -8.01547e-12 3.07581e-12 -1.72547e-12 5e-05 1.46608e-10 
71 1 0.0368646 0.0156851 0.00848756 0.00631283 0.000637971 -0.00048734 2.46395e-10 2.13734e-10 -2.24729e-10 5e-05 1.46608e-10 
72 1 0.0435148 0.0175481 0.00732971 0.00558039 -0.00045477 0.000414904 1.18365e-10 8.86203e-11 -1.14666e-10 5e-05 1.46608e-10 
73 1 0.0431824 0.0168319 0.00756128 0.00544096 -0.000367834 0.000352057 -9.49716e-11 -8.03425e-11 -8.46552e-12 5e-05 1.46608e-10 
74 1 0.0433784 0.017331 0.00739812 0.0053138 -0.000388225 0.000352399 -3.4203e-12 -5.12161e-11 1.75208e-11 5e-05 1.46608e-10 
76 1 0.0374393 0.017575 0.00711887 0.0058156 0.000688295 -0.000503828 -1.34222e-10 2.97964e-11 -1.02666e-11 5e-05 1.46608e-10 
77 1 0.0436037 0.0183513 0.00708105 0.00591448 -0.000431933 0.000536305 8.87289e-11 8.2447e-11 -5.0066e-11 5e-05 1.46608e-10 
78 1 0.036951 0.0159265 0.0081805 0.00637171 0.000624936 -0.000465915 2.00972e-10 1.76805e-10 -2.07134e-10 5e-05 1.46608e-10 
79 1 0.0371496 0.0166722 0.00757873 0.00571119 0.000781024 -0.000546926 -7.97415e-11 -2.95917e-10 1.46849e-10 5e-05 1.46608e-10 
80 1 0.043446 0.0180442 0.00716658 0.00578089 -0.000424956 0.000523604 -5.32666e-11 -1.79287e-10 6.41089e-11 5e-05 1.46608e-10 
81 1 0.0370893 0.0164101 0.0077116 0.00599729 0.000700015 -0.000513018 -5.36664e-10 -1.00273e-10 8.22411e-11 5e-05 1.46608e-10 
82 1 0.0372284 0.017022 0.00740146 0.00569171 0.000781795 -0.000545534 1.86943e-11 1.91076e-10 -1.28203e-10 5e-05 1.46608e-10 
83 1 0.0372196 0.0162127 0.00782624 0.00585802 0.000636858 -0.000522088 1.08862e-10 -5.31901e-11 -7.6105e-11 5e-05 1.46608e-10 
84 1 0.0494133 0.0178858 0.00709061 0.00571835 0.000624961 -0.000373387 3.96801e-13 8.80335e-12 -2.08322e-12 5e-05 1.46608e-10 
85 1 0.037047 0.0159478 0.00815807 0.00637892 0.000615084 -0.000452998 3.74735e-11 1.20699e-10 -1.55193e-10 5e-05 1.46608e-10 
86 1 0.04344 0.0176097 0.00730502 0.00559758 -0.000432104 0.000381262 5.49098e-11 -1.03863e-10 1.6675e-10 5e-05 1.46608e-10 
87 1 0.043335 0.0167117 0.00760884 0.00523537 -0.00038289 0.000347399 -3.49697e-11 2.24515e-11 -2.01023e-11 5e-05 1.46608e-10 
88 1 0.0435067 0.0183177 0.007085 0.0058927 -0.00041819 0.000530179 -9.38173e-11 -8.42487e-11 2.59695e-11 5e-05 1.46608e-10 
89 1 0.0434668 0.0181382 0.00713856 0.00582214 -0.000418391 0.000524447 7.74006e-11 8.65651e-11 -2.05695e-11 5e-05 1.46608e-10 
90 1 0.0435089 0.0171149 0.00747765 0.00533286 -0.000491402 0.000388742 -7.94959e-11 1.13545e-10 -3.91118e-11 5e-05 1.46608e-10 
91 1 0.0371694 0.0167597 0.00753443 0.0057774 0.000764054 -0.000539973 -5.14559e-11 -2.44505e-10 1.29329e-10 5e-05 1.46608e-10 
92 1 0.0435766 0.0178286 0.007243 0.00570486 -0.000435387 0.000520966 -2.08959e-10 1.4136e-10 -6.88491e-11 5e-05 1.46608e-10 
93 1 0.0435623 0.0181718 0.00713449 0.00582144 -0.000439171 0.000532813 5.61782e-11 2.14041e-10 4.15081e-11 5e-05 1.46608e-10 
94 1 0.0436377 0.0181107 0.00715872 0.00582467 -0.00045707 0.000537712 -1.08694e-10 5.44501e-11 2.81698e-11 5e-05 1.46608e-10 
95 1 0.043425 0.0179496 0.0071948 0.0057521 -0.000395312 0.000513439 3.74e-11 6.16284e-11 -2.92995e-11 5e-05 1.46608e-10 
96 1 0.043597 0.0179224 0.00721498 0.00575685 -0.000445935 0.000529463 -2.44012e-11 1.08673e-10 -4.73937e-11 5e-05 1.46608e-10 
97 1 0.0370481 0.0162356 0.00780012 0.00600396 0.000680147 -0.000506448 -5.79064e-11 -1.82178e-10 8.54505e-11 5e-05 1.46608e-10 
98 1 0.0435275 0.0184115 0.00705705 0.00593345 -0.000415717 0.000530825 -1.81445e-10 -2.12785e-10 -7.31868e-12 5e-05 1.46608e-10 
99 1 0.0372051 0.016525 0.00765093 0.00570906 0.000744861 -0.000529106 9.9378e-11 -2.80304e-10 1.38106e-10 5e-05 1.46608e-10 
100 1 0.0434697 0.0169289 0.00753984 0.00522566 -0.000414957 0.000356842 -4.23982e-11 4.58576e-11 1.31038e-11 5e-05 1.46608e-10 
101 1 0.0371439 0.0162631 0.00778373 0.00597528 0.000686674 -0.000504157 1.47781e-10 -2.52676e-10 1.89579e-10 5e-05 1.46608e-10 
102 1 0.0643568 0.0187248 0.00531097 4.3548e-15 1.05164e-14 8.29532e-14 1.51484e-21 -1.4e-22 -6.18318e-23 5e-05 1.46608e-10 
103 1 0.24257 0.0191927 0.00520306 -1.23235e-22 -4.80285e-22 8.29106e-22 0 0 0 5e-05 1.46608e-10 
104 1 0.0374563 0.0172528 0.00727971 0.00575637 0.000689164 -0.000503287 -1.39366e-10 1.96532e-13 5.80126e-12 5e-05 1.46608e-10 
105 1 0.0370106 0.016108 0.00794925 0.00591954 0.00066752 -0.000546406 5.62751e-11 -1.72372e-12 1.07561e-11 5e-05 1.46608e-10 
106 1 0.0375397 0.0172026 0.00730256 0.00575688 0.000680055 -0.000497917 -1.77389e-10 2.77596e-11 -1.41599e-11 5e-05 1.46608e-10 
107 1 0.0369726 0.0159868 0.00810374 0.00637818 0.000623567 -0.000463007 2.11439e-11 1.18223e-10 -1.59163e-10 5e-05 1.46608e-10 
108 1 0.0432599 0.0167732 0.00758464 0.00545319 -0.000346384 0.000344208 1.60021e-13 1.14429e-10 -3.61956e-11 5e-05 1.46608e-10 
109 1 0.0433419 0.0175757 0.00731265 0.00557365 -0.000429719 0.000377537 -6.94516e-11 -2.0744e-10 5.37952e-11 5e-05 1.46608e-10 
110 1 0.0436717 0.0178606 0.00723941 0.00575104 -0.000467441 0.000535338 -1.08825e-10 1.81136e-10 -6.60647e-11 5e-05 1.46608e-10 
111 1 0.0435692 0.0185989 0.00700113 0.00601051 -0.000433207 0.000541375 -5.04738e-12 6.16456e-11 -4.56895e-11 5e-05 1.46608e-10 
112 1 0.0370687 0.0163228 0.00775586 0.00599043 0.000681797 -0.000502595 -2.51819e-11 -4.99528e-11 9.54922e-11 5e-05 1.46608e-10 
113 1 0.037774 0.0174398 0.00717739 0.00582969 0.000701212 -0.00051109 1.1278e-10 1.30533e-10 -3.73906e-11 5e-05 1.46608e-10 
114 1 0.0373983 0.0169902 0.00741273 0.00566528 0.000716138 -0.000514495 -6.71943e-11 -1.84037e-11 -9.63726e-13 5e-05 1.46608e-10 
115 1 0.0433987 0.0174239 0.00736708 0.00552433 -0.000449405 0.000381803 4.88202e-11 3.42984e-11 -1.93729e-12 5e-05 1.46608e-10 
116 1 0.0432398 0.0166802 0.00761569 0.00539597 -0.000372936 0.000350317 -1.74758e-10 3.16415e-11 -2.68896e-11 5e-05 1.46608e-10 
117 1 0.0431026 0.0161289 0.00798227 0.00581397 -0.000536858 0.000392499 -4.39925e-11 -2.6107e-11 -2.14671e-11 5e-05 1.46608e-10 
118 1 0.0369078 0.0158058 0.00833403 0.00633641 0.000636523 -0.000483017 -3.16944e-10 6.88028e-12 -8.93108e-11 5e-05 1.46608e-10 
119 1 0.0433947 0.0169905 0.00751563 0.00524987 -0.000401277 0.000355498 -6.59876e-11 2.93361e-11 -2.89371e-11 5e-05 1.46608e-10 
120 1 0.0429625 0.015994 0.00816917 0.00597108 -0.000594281 0.000461506 -1.68051e-10 -1.48045e-10 1.7925e-10 5e-05 1.46608e-10 
121 1 0.0429195 0.0158777 0.00832608 0.0059306 -0.000616791 0.000494082 -4.44207e-11 -2.00625e-10 2.81397e-10 5e-05 1.46608e-10 
122 1 0.0436924 0.0179543 0.00721144 0.00576529 -0.00050547 0.000549205 2.05315e-10 -1.295e-10 4.48684e-11 5e-05 1.46608e-10 
123 1 0.0370872 0.0160688 0.00800398 0.00584751 0.000670037 -0.00055815 -2.7639e-10 6.18189e-11 -1.20414e-10 5e-05 1.46608e-10 
124 1 0.0435222 0.0179841 0.00719059 0.00577883 -0.000424216 0.000523764 1.40056e-10 6.10233e-11 -3.34985e-11 5e-05 1.46608e-10 
125 1 0.0430831 0.0160704 0.00806102 0.0060289 -0.000579148 0.00044017 -1.40756e-10 -1.56034e-11 -2.65071e-12 5e-05 1.46608e-10 
126 1 0.0433009 0.0173898 0.00737476 0.00532559 -0.000377113 0.00034909 9.15171e-14 -3.37245e-11 1.15468e-11 5e-05 1.46608e-10 
127 1 0.037029 0.0161686 0.00787191 0.00600856 0.000670088 -0.000520978 -1.4631e-11 -1.42712e-10 2.86671e-11 5e-05 1.46608e-10 
128 1 0.0434041 0.0178555 0.00722287 0.00572254 -0.000352371 0.000497656 -7.21582e-11 5.29634e-11 -2.67055e-11 5e-05 1.46608e-10 
129 1 0.0434896 0.0182396 0.00714504 0.00583554 -0.000415673 0.000526892 -2.01059e-11 1.37508e-10 2.76751e-11 5e-05 1.46608e-10 
130 1 0.037323 0.0170499 0.00738492 0.00569096 0.000753408 -0.000532719 5.20456e-12 1.48126e-10 -7.51447e-11 5e-05 1.46608e-10 
131 1 0.037185 0.0164376 0.00769521 0.0056857 0.000736735 -0.000523954 5.65335e-10 -3.53996e-10 1.51769e-10 5e-05 1.46608e-10 
132 1 0.0435018 0.0178903 0.00721861 0.00574897 -0.000409225 0.000516588 1.36939e-11 1.69072e-11 -3.13639e-11 5e-05 1.46608e-10 
133 1 0.0432544 0.0163468 0.00774861 0.00571681 -0.000464556 0.000358039 1.60197e-10 8.55244e-11 9.0063e-11 5e-05 1.46608e-10 
134 1 0.0434142 0.0170835 0.00748452 0.00530436 -0.000418699 0.000362907 -5.26619e-11 9.83389e-11 -4.14108e-11 5e-05 1.46608e-10 
135 1 0.0430617 0.0160122 0.00813949 0.00599806 -0.000582648 0.000445644 -1.73373e-11 -3.58948e-11 5.31521e-11 5e-05 1.46608e-10 
136 1 0.0370254 0.0158875 0.00823484 0.00636672 0.000615333 -0.000452797 1.58029e-10 1.42982e-10 -1.71732e-10 5e-05 1.46608e-10 
137 1 0.04359 0.0186926 0.00697318 0.00604701 -0.000449082 0.000549357 -1.5793e-11 4.67474e-11 2.41771e-12 5e-05 1.46608e-10 
138 1 0.0431982 0.0164935 0.00767806 0.00566668 -0.000441275 0.000385981 -1.10649e-10 -5.01838e-11 2.61951e-11 5e-05 1.46608e-10 
140 1 0.0437124 0.0180489 0.00718315 0.00581192 -0.000496469 0.000548309 -6.56178e-11 1.67572e-10 -8.24668e-11 5e-05 1.46608e-10 
141 1 0.0370678 0.0160082 0.00808116 0.00609747 0.000646554 -0.000508448 -1.59347e-10 9.19892e-11 -1.13465e-10 5e-05 1.46608e-10 
142 1 0.0374176 0.0170778 0.00736839 0.00569918 0.000709722 -0.000510948 -6.12147e-11 -3.52608e-11 1.89855e-12 5e-05 1.46608e-10 
143 1 0.0369922 0.0160473 0.00802659 0.00584457 0.000674274 -0.000559165 -2.37263e-10 9.79145e-11 -1.14785e-10 5e-05 1.46608e-10 
144 1 0.0373791 0.0169027 0.00745708 0.00566628 0.00071742 -0.000514693 -1.3232e-10 -1.59373e-11 2.41263e-11 5e-05 1.46608e-10 
146 1 0.0372398 0.0162908 0.00776721 0.0058101 0.000664916 -0.000495165 7.8163e-10 -1.15777e-10 4.53239e-11 5e-05 1.46608e-10 
147 1 0.0370038 0.0158271 0.0083116 0.00635467 0.000618253 -0.00045699 3.59839e-11 1.2449e-10 -1.81651e-10 5e-05 1.46608e-10 
148 1 0.0372864 0.0172846 0.00726843 0.00573416 0.000755149 -0.00053487 5.87755e-11 -3.65618e-11 1.60575e-11 5e-05 1.46608e-10 
149 1 0.0436246 0.0184451 0.00705309 0.0059444 -0.000439418 0.000539916 9.19463e-11 1.14121e-10 -2.74702e-11 5e-05 1.46608e-10 
150 1 0.0372807 0.0164654 0.00767867 0.00553963 0.000724416 -0.000514279 -1.96251e-10 1.74838e-10 -9.33792e-11 5e-05 1.46608e-10 
151 1 0.0376157 0.0171436 0.00732999 0.00577111 0.000688055 -0.000502537 -1.26716e-10 1.686e-10 -7.68238e-11 5e-05 1.46608e-10 
153 1 0.0371248 0.0161904 0.00784977 0.00597639 0.000668954 -0.000533252 -2.71262e-10 -1.24001e-10 -4.51897e-11 5e-05 1.46608e-10 
154 1 0.037381 0.0173125 0.00725189 0.0057799 0.000728185 -0.000522852 1.74388e-10 1.90963e-11 -1.30944e-11 5e-05 1.46608e-10 
155 1 0.0374588 0.0176625 0.00707452 0.00584481 0.000687812 -0.000504957 4.50874e-11 -2.54274e-11 3.92305e-11 5e-05 1.46608e-10 
156 1 0.0373617 0.0172249 0.00729623 0.00573547 0.000756382 -0.000535705 -1.53651e-11 -3.88128e-11 1.81128e-11 5e-05 1.46608e-10 
157 1 0.0219312 0.0187687 0.00551176 -3.82935e-14 8.16882e-14 2.95887e-13 -1.50263e-22 -1.76086e-22 1.73708e-23 5e-05 1.46608e-10 
158 1 0.0374757 0.0173403 0.00723537 0.0057658 0.000685339 -0.000500708 -1.44896e-10 -5.94066e-12 3.46689e-12 5e-05 1.46608e-10 
159 1 0.043556 0.0177348 0.00727098 0.00566749 -0.000432279 0.000520221 -1.67199e-10 8.74716e-11 -8.15437e-11 5e-05 1.46608e-10 
160 1 0.037364 0.0176346 0.00709108 0.00583276 0.000706891 -0.000513403 -3.9534e-11 4.73546e-11 -2.92452e-11 5e-05 1.46608e-10 
162 1 0.0374005 0.0174 0.00720755 0.00577946 0.000703389 -0.000510403 -9.25228e-11 -7.66164e-11 4.08938e-11 5e-05 1.46608e-10 
164 1 0.0376125 0.017961 0.0069439 0.00594721 0.0008427 -4.20194e-05 1.13754e-10 -2.55083e-10 -1.108e-10 5e-05 1.46608e-10 
165 1 0.0376775 0.01741 0.00719493 0.00579883 0.000669036 -0.000493238 -3.51814e-10 8.78614e-11 -3.8401e-11 5e-05 1.46608e-10 
166 1 0.0432168 0.0162034 0.00787691 0.00575029 -0.000500885 0.000348122 1.21876e-10 -7.75866e-11 1.5469e-10 5e-05 1.46608e-10 
167 1 0.0372604 0.0163781 0.00772295 0.00566747 0.000698005 -0.000505325 8.43093e-10 -7.92309e-11 5.90372e-12 5e-05 1.46608e-10 
168 1 0.0375591 0.0172901 0.00725823 0.00576033 0.00068212 -0.000499364 -1.86475e-10 4.61447e-11 -1.94466e-11 5e-05 1.46608e-10 
169 1 0.0377935 0.0175273 0.00713303 0.00577573 0.000510082 -0.000412489 3.37662e-10 -3.94341e-10 1.39866e-10 5e-05 1.46608e-10 
170 1 0.037598 0.0174651 0.00716954 0.00577217 0.000637907 -0.000478254 -3.95932e-10 1.75136e-11 -3.04155e-11 5e-05 1.46608e-10 
171 1 0.0432365 0.0162619 0.00779819 0.00574277 -0.000488622 0.000339072 2.42889e-10 -2.47423e-11 1.30042e-10 5e-05 1.46608e-10 
172 1 0.0376575 0.0173218 0.00723963 0.0057636 0.000664486 -0.000490631 -2.74393e-10 1.78773e-10 -8.94777e-11 5e-05 1.46608e-10 
173 1 0.0435449 0.0168676 0.00756399 0.00519882 -0.000421516 0.000358271 -3.77144e-11 1.55909e-10 -4.95093e-11 5e-05 1.46608e-10 
174 1 0.0375146 0.0175153 0.0071467 0.00579026 0.000667867 -0.000495268 -3.08155e-10 9.03094e-12 1.18417e-11 5e-05 1.46608e-10 
175 1 0.0312808 0.0172464 0.00723502 0.00569909 0.00028914 -0.000320069 7.99825e-11 4.67989e-11 -2.52243e-10 5e-05 1.46608e-10 
176 1 0.0373423 0.0171374 0.00734057 0.00572287 0.000745615 -0.000530226 -9.33852e-11 -4.54174e-11 3.02819e-11 5e-05 1.46608e-10 
177 1 0.0374029 0.0178096 0.00700241 0.00586285 0.000690054 -0.00050569 -8.70981e-11 -7.55308e-11 6.05546e-11 5e-05 1.46608e-10 
178 1 0.0377546 0.0173522 0.00722174 0.00580712 0.000680778 -0.000499964 -2.0063e-10 2.62133e-10 -1.19997e-10 5e-05 1.46608e-10 
179 1 0.0377164 0.0175851 0.00710622 0.0058009 0.000534326 -0.000428286 3.56546e-10 -6.89091e-11 -1.27381e-11 5e-05 1.46608e-10 
181 1 0.0373252 0.0174596 0.00717975 0.00579953 0.000724394 -0.000521436 -1.8823e-11 -2.98535e-11 1.45815e-11 5e-05 1.46608e-10 
182 1 0.043177 0.0163995 0.00770942 0.00571158 -0.000426387 0.000381233 -1.27713e-10 1.42386e-10 -4.96737e-11 5e-05 1.46608e-10 
183 1 0.0375786 0.0173776 0.00721388 0.00576771 0.000667286 -0.000491825 -2.53287e-10 1.44317e-10 -5.04992e-11 5e-05 1.46608e-10 
184 1 0.0435007 0.0177772 0.00734274 0.00566751 -0.000406032 0.00050789 -8.71349e-11 1.43099e-10 -5.43464e-12 5e-05 1.46608e-10 
185 1 0.0372671 0.0171971 0.00731277 0.00572535 0.000767446 -0.000541064 -7.96789e-11 3.83124e-11 -1.97676e-11 5e-05 1.46608e-10 
186 1 0.0373057 0.0173721 0.00722409 0.0057779 0.000734962 -0.000526219 -9.1936e-11 -1.19853e-10 5.65849e-11 5e-05 1.46608e-10 
187 1 0.0434498 0.0168357 0.007571 0.00522201 -0.000378038 0.000345073 -4.91336e-11 -2.38734e-10 7.76119e-11 5e-05 1.46608e-10 
188 1 0.0436875 0.0181944 0.00713587 0.0058504 -0.000461244 0.000539535 -1.60061e-10 -9.4286e-11 2.41719e-11 5e-05 1.46608e-10 
189 1 0.0434235 0.0169819 0.007611 0.0052448 -0.00041148 0.000358613 -2.63434e-10 9.10461e-11 -3.41582e-11 5e-05 1.46608e-10 
190 1 0.0313559 0.0171828 0.00725227 0.00570493 0.00037603 8.43313e-05 2.27258e-10 1.6773e-10 -3.15804e-12 5e-05 1.46608e-10 
191 1 0.0436108 0.0187864 0.00694522 0.00607763 -0.000469348 0.000558257 -8.64971e-12 3.24405e-11 -1.14833e-11 5e-05 1.46608e-10 
192 1 0.037501 0.0170275 0.00739125 0.00568052 0.0006798 -0.000495819 -3.9206e-12 -6.39334e-11 3.77866e-11 5e-05 1.46608e-10 
193 1 0.0433149 0.0166187 0.00763988 0.00534602 -0.000392657 0.000355587 -1.09095e-10 7.5405e-11 -2.68658e-11 5e-05 1.46608e-10 
194 1 0.0373203 0.0166403 0.00759005 0.00561699 0.000714862 -0.000511821 -9.80847e-11 5.3058e-11 -2.0792e-11 5e-05 1.46608e-10 
195 1 0.0376969 0.0174975 0.00715058 0.0058066 0.000669492 -0.00049357 -1.63313e-10 -2.30949e-10 7.89594e-11 5e-05 1.46608e-10 
196 1 0.0367998 0.0155041 0.00871786 0.0062781 0.000661876 -0.000519189 1.33551e-10 2.60928e-10 -3.14816e-10 5e-05 1.46608e-10 
197 1 0.0313395 0.0175287 0.00715225 0.00570986 0.0002992 -0.000330833 -1.12411e-10 -1.58365e-10 5.89781e-11 5e-05 1.46608e-10 
198 1 0.0371893 0.0168471 0.00749012 0.00568093 0.000791944 -0.000552304 -1.08326e-10 -8.76904e-11 4.74536e-11 5e-05 1.46608e-10 
199 1 0.0374199 0.0174875 0.00716321 0.00579773 0.00069825 -0.000508166 -1.93299e-10 1.84452e-11 -3.56605e-12 5e-05 1.46608e-10 
200 1 0.0372842 0.0168747 0.00747368 0.00567403 0.000759164 -0.000535067 -6.57109e-11 2.01214e-10 -1.10692e-10 5e-05 1.46608e-10 
201 1 0.0377911 0.0179666 0.00694934 0.00595431 0.000718949 -1.3244e-07 4.17554e-10 5.49782e-12 6.02542e-11 5e-05 1.46608e-10 
202 1 0.0375204 0.017115 0.00734691 0.00572565 0.000678268 -0.000496488 -1.66036e-10 -3.17452e-11 1.98092e-11 5e-05 1.46608e-10 
203 1 0.0436181 0.017251 0.00743545 0.00542122 -0.000562951 0.000416893 2.09566e-11 4.11466e-12 4.37286e-12 5e-05 1.46608e-10 
204 1 0.0372645 0.0167873 0.00751799 0.00569571 0.000754148 -0.000533472 1.14303e-10 6.69527e-11 -3.89115e-11 5e-05 1.46608e-10 
205 1 0.0375732 0.0177785 0.00701537 0.00588581 0.000787257 -0.000196923 -2.75182e-10 -2.71895e-10 -3.77044e-10 5e-05 1.46608e-10 
206 1 0.037534 0.0176028 0.00710236 0.00582303 0.000663868 -0.000487915 -2.41613e-11 -3.94348e-11 1.04288e-10 5e-05 1.46608e-10 
207 1 0.0371064 0.0161295 0.00792684 0.00588706 0.000660099 -0.0005616 -1.97269e-10 -3.33025e-11 -6.97818e-11 5e-05 1.46608e-10 
208 1 0.0374951 0.0174278 0.00719103 0.00577573 0.000678116 -0.000497485 -2.83611e-10 1.45228e-11 -8.79184e-12 5e-05 1.46608e-10 
209 1 0.0373006 0.0165529 0.00763437 0.00557572 0.000719226 -0.000512465 -4.20328e-10 1.78907e-10 -7.66101e-11 5e-05 1.46608e-10 
210 1 0.043272 0.017103 0.00756313 0.00526278 -0.000360984 0.000339886 1.546e-10 1.56862e-10 -3.97243e-11 5e-05 1.46608e-10 
211 1 0.0436179 0.0180164 0.00718695 0.00579113 -0.000463691 0.000535246 3.77385e-11 -2.11454e-10 7.93658e-11 5e-05 1.46608e-10 
212 1 0.0376174 0.0175526 0.0071252 0.00580038 0.000650913 -0.000484121 -1.40401e-10 -2.1144e-10 1.66411e-10 5e-05 1.46608e-10 
213 1 0.0434298 0.0167427 0.00760208 0.00521393 -0.00037751 0.000344543 -2.78731e-10 1.55385e-10 -6.80342e-11 5e-05 1.46608e-10 
214 1 0.0435429 0.0180778 0.00716262 0.00580813 -0.000432168 0.000528516 1.21604e-10 3.75857e-11 4.67884e-11 5e-05 1.46608e-10 
215 1 0.0313286 0.0170177 0.00732381 0.00578802 0.000499095 3.79657e-05 -5.30171e-10 1.72573e-10 1.06284e-10 5e-05 1.46608e-10 
216 1 0.0373834 0.0177221 0.00704674 0.00585029 0.000697469 -0.0005108 7.14134e-11 3.84506e-11 -1.71536e-11 5e-05 1.46608e-10 
217 1 0.0432742 0.016433 0.00770193 0.00566102 -0.000436463 0.00038188 -2.36472e-12 1.24482e-10 -3.84088e-11 5e-05 1.46608e-10 
218 1 0.0374974 0.0178377 0.00698576 0.00587187 0.000670526 -0.000501952 -2.06245e-10 2.54502e-12 2.31886e-11 5e-05 1.46608e-10 
219 1 0.0435484 0.0185052 0.00702909 0.00597188 -0.000420844 0.000536349 1.32954e-10 2.10697e-11 2.24436e-11 5e-05 1.46608e-10 
220 1 0.0373446 0.0175471 0.00713542 0.00581485 0.000716662 -0.000517746 -5.58853e-11 -7.62284e-12 7.0455e-12 5e-05 1.46608e-10 
221 1 0.031258 0.0167323 0.00744644 0.00578608 0.000427349 7.39575e-05 1.23958e-10 1.75431e-12 1.44338e-11 5e-05 1.46608e-10 
222 1 0.0432949 0.0165258 0.00767095 0.00551915 -0.000413025 0.000372444 -3.39582e-10 1.65728e-10 -7.25453e-11 5e-05 1.46608e-10 
223 1 0.037437 0.0171653 0.00732405 0.00574043 0.000696723 -0.00050585 -6.09789e-11 -3.81324e-12 1.82827e-11 5e-05 1.46608e-10 
224 1 0.0372477 0.0171096 0.00735712 0.00570097 0.000772188 -0.000542427 8.64422e-11 1.65155e-10 -7.49073e-11 5e-05 1.46608e-10 
225 1 0.0437252 0.017704 0.00729208 0.00561867 -0.0004941 0.000535111 -2.79553e-10 -4.27107e-12 -1.72764e-11 5e-05 1.46608e-10 
226 1 0.0376351 0.0172311 0.00728565 0.00576118 0.00068661 -0.00050143 -2.14898e-10 1.61036e-10 -7.71216e-11 5e-05 1.46608e-10 
227 1 0.0313725 0.0168536 0.00739817 0.00577788 0.000593374 1.96217e-06 -3.94672e-10 2.18402e-10 -1.59341e-10 5e-05 1.46608e-10 
228 1 0.0313003 0.0173405 0.00720743 0.00572073 0.000281139 -0.000330527 -1.37421e-10 1.53016e-10 8.76986e-11 5e-05 1.46608e-10 
229 1 0.0372514 0.0170125 0.0074983 0.00571518 0.000779714 -0.000545867 8.57259e-11 2.54655e-10 -1.64132e-10 5e-05 1.46608e-10 
230 1 0.0376504 0.0181551 0.00693513 0.00625857 0.00072769 -0.000203615 -6.26535e-10 1.80229e-10 -5.69038e-11 5e-05 1.46608e-10 
231 1 0.0312613 0.0171523 0.00726261 0.00572461 0.00037018 -0.000322914 -1.69819e-10 6.43233e-10 -4.57087e-10 5e-05 1.46608e-10 
232 1 0.037201 0.0161516 0.00790315 0.00590202 0.000613127 -0.000528482 -4.87067e-10 -2.93048e-11 -1.94069e-10 5e-05 1.46608e-10 
233 1 0.03734 0.0167277 0.00754574 0.00564226 0.000714973 -0.000512661 -6.92522e-12 -1.99048e-11 9.01349e-12 5e-05 1.46608e-10 
234 1 0.0436782 0.0182893 0.00710553 0.00589386 -0.000454328 0.000541542 1.34367e-11 -1.07527e-10 3.8006e-11 5e-05 1.46608e-10 
235 1 0.037697 0.0183556 0.00695213 0.00612899 0.000501291 -0.000228782 -2.18971e-10 1.19637e-10 -3.81072e-11 5e-05 1.46608e-10 
236 1 0.0376723 0.0182532 0.00694349 0.00637912 0.000743713 -0.000205002 8.02389e-12 1.57005e-10 -5.60196e-11 5e-05 1.46608e-10 
237 1 0.0377563 0.0181977 0.00693448 0.00625768 0.000631164 -0.000216529 -2.82664e-10 2.2339e-10 9.7287e-11 5e-05 1.46608e-10 
239 1 0.0310906 0.0164311 0.00774074 0.00586669 3.01001e-05 -0.000331996 -5.23948e-11 1.74113e-10 -1.30034e-10 5e-05 1.46608e-10 
240 1 0.0311453 0.016632 0.00752487 0.00569188 0.000381289 -5.14745e-05 -2.96308e-11 1.04418e-11 -7.2143e-11 5e-05 1.46608e-10 
241 1 0.0310715 0.0163659 0.0078141 0.00579047 2.45152e-05 -0.000326262 -2.70254e-10 -2.0661e-11 3.09691e-11 5e-05 1.46608e-10 
242 1 0.0374545 0.0168431 0.00748485 0.00570467 0.000764322 -0.000538812 -6.52896e-11 4.13958e-11 -2.89985e-11 5e-05 1.46608e-10 
243 1 0.0372446 0.0166999 0.0075623 0.00571515 0.000751382 -0.000532614 -1.47339e-10 -2.57136e-11 1.9637e-11 5e-05 1.46608e-10 
244 1 0.0311089 0.0164964 0.00766729 0.00562907 6.84516e-05 -0.000361865 -2.33787e-11 1.19433e-10 -9.06193e-11 5e-05 1.46608e-10 
246 1 0.0312224 0.0169735 0.00734316 0.00570321 0.000508978 -1.45251e-06 -1.35452e-10 2.66998e-10 -5.28879e-11 5e-05 1.46608e-10 