ITEM: TIMESTEP
67000000
ITEM: NUMBER OF ATOMS
267
ITEM: BOX BOUNDS ff ff ff
-0.02 0.43
-0.02 0.06
-0.02 0.07
ITEM: ATOMS id type x y z vx vy vz fx fy fz radius mass 
1 1 0.383991 0.018743 5.17586e-05 7.86616e-19 1.20525e-21 -5.98258e-16 5.16988e-26 -1.29247e-26 0 5e-05 1.46608e-10 
2 1 0.384819 0.0170553 5.28427e-05 -9.20538e-19 8.69661e-21 7.02844e-16 0 -1.99026e-25 0 5e-05 1.46608e-10 
4 1 0.384087 0.0172099 5.18841e-05 -4.43848e-20 1.25977e-21 2.21762e-17 2.58494e-26 5.16988e-26 0 5e-05 1.46608e-10 
6 1 0.38485 0.0177728 5.2884e-05 4.87069e-19 -7.70118e-22 -3.71584e-16 0 -3.23117e-27 0 5e-05 1.46608e-10 
7 1 0.384289 0.0192285 5.21489e-05 2.81054e-18 7.54719e-22 -2.14593e-15 0 1.13236e-26 0 5e-05 1.46608e-10 
8 1 0.384427 0.0170974 5.23295e-05 2.24031e-18 1.10847e-21 -1.71051e-15 0 -2.55045e-27 0 5e-05 1.46608e-10 
9 1 0.383731 0.0178959 5.14179e-05 2.24031e-18 8.83888e-22 -1.71052e-15 0 2.6845e-26 0 5e-05 1.46608e-10 
10 1 0.384909 0.0174916 5.29614e-05 1.79756e-18 3.22467e-21 -1.37249e-15 0 -5.10789e-26 0 5e-05 1.46608e-10 
11 1 0.383705 0.0185838 5.13839e-05 2.81055e-18 -7.64256e-23 -2.14593e-15 0 -3.01609e-26 0 5e-05 1.46608e-10 
12 1 0.384274 0.0169453 5.213e-05 2.24035e-18 -1.78235e-21 -1.71052e-15 0 -5.10758e-26 0 5e-05 1.46608e-10 
13 1 0.384609 0.0178943 5.25685e-05 -4.33948e-12 2.9541e-13 7.16381e-13 -1.32304e-19 -1.40789e-17 1.20102e-17 5e-05 1.46608e-10 
14 1 0.383937 0.0189513 8.69758e-05 5.20067e-19 -6.15962e-21 -4.06396e-16 2.58494e-26 1.03398e-25 -2.06795e-25 5e-05 1.46608e-10 
16 1 0.384166 0.0169334 5.1988e-05 2.24036e-18 1.33232e-23 -1.71052e-15 0 1.82696e-27 0 5e-05 1.46608e-10 
17 1 0.384566 0.0170745 5.25117e-05 2.24034e-18 1.638e-22 -1.71052e-15 0 -9.54512e-27 0 5e-05 1.46608e-10 
19 1 0.384704 0.0183371 5.2693e-05 1.79762e-18 -2.72112e-20 -1.37251e-15 0 -4.34857e-25 0 5e-05 1.46608e-10 
21 1 0.384375 0.0179486 5.22621e-05 3.27627e-12 -8.46592e-14 5.86115e-13 -1.72673e-17 6.88184e-18 4.35553e-18 5e-05 1.46608e-10 
22 1 0.385006 0.0203197 5.3088e-05 8.71336e-19 3.70724e-21 -6.65298e-16 0 6.36079e-26 0 5e-05 1.46608e-10 
23 1 0.38429 0.0178938 5.21501e-05 5.92247e-13 1.16378e-13 -4.03916e-14 -4.34196e-18 -5.60046e-19 -1.58288e-18 5e-05 1.46608e-10 
24 1 0.384317 0.0180308 5.21862e-05 -1.24278e-14 3.65176e-14 -3.51563e-15 5.51669e-20 -3.55633e-19 3.28183e-19 5e-05 1.46608e-10 
25 1 0.384369 0.0166304 5.22533e-05 2.24035e-18 2.07969e-21 -1.71051e-15 0 1.10423e-26 0 5e-05 1.46608e-10 
26 1 0.383765 0.0178016 5.14632e-05 2.24031e-18 3.49555e-23 -1.71051e-15 0 -1.63385e-27 0 5e-05 1.46608e-10 
27 1 0.384682 0.0173846 0.000130728 -1.02149e-19 -9.28498e-21 9.01922e-17 0 -3.87741e-26 2.06795e-25 5e-05 1.46608e-10 
28 1 0.38392 0.0176635 5.16661e-05 2.24036e-18 1.63101e-21 -1.71052e-15 0 5.86522e-27 0 5e-05 1.46608e-10 
29 1 0.384334 0.0168628 5.2208e-05 2.24033e-18 -6.59072e-21 -1.71052e-15 4.03897e-28 1.45715e-26 0 5e-05 1.46608e-10 
30 1 0.38458 0.0173478 5.25303e-05 -1.12219e-19 9.21189e-22 9.01992e-17 -1.29247e-26 0 0 5e-05 1.46608e-10 
31 1 0.384267 0.018175 5.21197e-05 1.63123e-20 -8.89218e-22 -7.47559e-18 0 0 0 5e-05 1.46608e-10 
32 1 0.384809 0.0175939 5.28295e-05 1.05265e-19 -3.68436e-22 -7.99273e-17 0 2.58494e-26 0 5e-05 1.46608e-10 
33 1 0.384554 0.0172495 5.24957e-05 2.24034e-18 -1.4816e-23 -1.71052e-15 -4.03897e-28 -1.55334e-27 0 5e-05 1.46608e-10 
34 1 0.38474 0.0177115 5.27396e-05 1.02529e-19 -1.84378e-21 -7.99225e-17 0 0 0 5e-05 1.46608e-10 
35 1 0.383862 0.0177748 5.15892e-05 -2.16723e-19 -1.13157e-21 1.69475e-16 0 0 0 5e-05 1.46608e-10 
36 1 0.383928 0.0185154 5.16766e-05 -3.50221e-19 1.68129e-21 2.67381e-16 0 -1.69887e-26 0 5e-05 1.46608e-10 
37 1 0.384806 0.0179346 5.28267e-05 1.79764e-18 -2.89806e-21 -1.37251e-15 0 -1.00183e-25 0 5e-05 1.46608e-10 
38 1 0.384295 0.0179641 0.000123125 -1.13977e-14 -4.80556e-14 -3.18796e-14 7.5158e-19 2.4201e-19 1.36481e-18 5e-05 1.46608e-10 
39 1 0.383664 0.0197976 5.13305e-05 -3.50216e-19 3.47651e-22 2.67381e-16 0 -1.03795e-26 0 5e-05 1.46608e-10 
42 1 0.38332 0.0192284 0.00522714 1.28259e-16 -5.36473e-20 3.78515e-14 0 -2.51606e-25 0 5e-05 1.46608e-10 
44 1 0.384012 0.018459 5.17866e-05 1.79764e-18 5.57432e-23 -1.37251e-15 0 -3.02104e-28 0 5e-05 1.46608e-10 
45 1 0.384188 0.017154 5.20161e-05 -3.23312e-20 2.53743e-21 2.22114e-17 0 9.69352e-27 0 5e-05 1.46608e-10 
47 1 0.353705 0.0171862 0.00807709 0.0140516 0.020403 -0.0121123 -2.11607e-10 1.05359e-10 -1.33048e-10 5e-05 1.46608e-10 
48 1 0.383611 0.0181742 5.1261e-05 -8.00765e-19 -3.51059e-22 6.08849e-16 0 0 0 5e-05 1.46608e-10 
49 1 0.384194 0.0185569 5.20241e-05 1.79761e-18 4.80246e-23 -1.37251e-15 0 -3.32577e-26 0 5e-05 1.46608e-10 
50 1 0.384353 0.0181246 5.22331e-05 1.7976e-18 -6.57962e-22 -1.37249e-15 0 3.16534e-27 0 5e-05 1.46608e-10 
51 1 0.383985 0.019032 5.17502e-05 5.32786e-19 2.00814e-22 -4.06396e-16 -5.16988e-26 -1.03398e-25 0 5e-05 1.46608e-10 
52 1 0.38427 0.0217777 5.21238e-05 2.00505e-18 2.41297e-22 -1.5309e-15 0 -3.87899e-26 0 5e-05 1.46608e-10 
53 1 0.3849 0.0167228 5.29491e-05 2.24036e-18 1.16166e-20 -1.71052e-15 0 1.25405e-25 0 5e-05 1.46608e-10 
54 1 0.384094 0.0196551 5.18938e-05 2.81055e-18 -2.64144e-22 -2.14593e-15 0 9.43301e-27 0 5e-05 1.46608e-10 
55 1 0.383596 0.0188939 5.12421e-05 2.81058e-18 -3.00388e-22 -2.14593e-15 0 1.54067e-26 0 5e-05 1.46608e-10 
56 1 0.384074 0.0171039 5.18678e-05 -2.15732e-20 2.268e-21 2.22097e-17 -2.58494e-26 0 0 5e-05 1.46608e-10 
57 1 0.38361 0.0192266 5.12599e-05 -3.50169e-19 2.86887e-21 2.67381e-16 0 -3.7615e-26 0 5e-05 1.46608e-10 
59 1 0.378022 0.019866 0.005332 -5.01956e-15 -7.41216e-15 7.69802e-14 3.38627e-24 5.16988e-25 2.06795e-25 5e-05 1.46608e-10 
60 1 0.384997 0.0170277 5.3077e-05 2.24036e-18 -1.912e-21 -1.71052e-15 0 -3.83118e-26 0 5e-05 1.46608e-10 
62 1 0.384469 0.0166233 5.23854e-05 2.24036e-18 -3.18766e-21 -1.71052e-15 0 9.35976e-26 0 5e-05 1.46608e-10 
63 1 0.385119 0.0166834 5.32362e-05 2.24033e-18 2.27972e-21 -1.71052e-15 0 -2.32237e-26 0 5e-05 1.46608e-10 
64 1 0.383572 0.0182666 5.12106e-05 1.7976e-18 -1.7034e-22 -1.37249e-15 0 1.92921e-28 0 5e-05 1.46608e-10 
65 1 0.38415 0.0174668 5.19668e-05 2.24032e-18 -6.50416e-21 -1.71052e-15 0 2.36022e-25 0 5e-05 1.46608e-10 
66 1 0.384314 0.0196963 5.21813e-05 -3.50218e-19 4.21631e-22 2.67381e-16 0 -1.15511e-25 0 5e-05 1.46608e-10 
67 1 0.38401 0.0186182 5.17838e-05 -3.50181e-19 -4.49408e-22 2.67382e-16 0 2.59107e-26 0 5e-05 1.46608e-10 
68 1 0.384443 0.0179216 0.000120816 8.47898e-12 -3.62771e-12 1.63624e-12 -6.805e-18 4.01811e-17 6.3478e-18 5e-05 1.46608e-10 
69 1 0.383601 0.0187724 5.12477e-05 2.81059e-18 7.8073e-22 -2.14593e-15 0 2.17434e-26 0 5e-05 1.46608e-10 
70 1 0.383695 0.0199014 5.13714e-05 -3.50223e-19 -1.31002e-21 2.67381e-16 0 4.25906e-26 0 5e-05 1.46608e-10 
71 1 0.383708 0.0192011 5.13883e-05 2.81058e-18 -1.75794e-21 -2.14593e-15 0 1.06806e-26 0 5e-05 1.46608e-10 
72 1 0.383848 0.0178769 5.15715e-05 -2.19968e-19 -9.66423e-23 1.69475e-16 0 0 0 5e-05 1.46608e-10 
73 1 0.384751 0.0204726 5.27548e-05 2.00504e-18 8.93276e-22 -1.5309e-15 0 -1.62675e-26 0 5e-05 1.46608e-10 
74 1 0.384789 0.0203241 5.2804e-05 8.71377e-19 -5.56622e-21 -6.65298e-16 0 -1.339e-25 0 5e-05 1.46608e-10 
76 1 0.384148 0.0172907 5.19645e-05 2.24031e-18 -3.57508e-22 -1.71052e-15 0 -1.14915e-27 0 5e-05 1.46608e-10 
77 1 0.384899 0.0180553 5.29479e-05 1.79757e-18 -1.22775e-21 -1.37249e-15 0 4.00743e-26 0 5e-05 1.46608e-10 
78 1 0.384454 0.0177342 5.23646e-05 2.24036e-18 -4.17393e-22 -1.71052e-15 0 -9.19085e-27 0 5e-05 1.46608e-10 
79 1 0.384159 0.0206443 5.19783e-05 2.00508e-18 2.18301e-21 -1.5309e-15 0 2.76154e-25 0 5e-05 1.46608e-10 
80 1 0.383985 0.017428 5.1751e-05 2.24036e-18 -1.1489e-21 -1.71051e-15 0 -3.43192e-26 0 5e-05 1.46608e-10 
82 1 0.384471 0.0161368 5.23876e-05 2.24034e-18 1.24549e-22 -1.71051e-15 0 -1.23911e-25 0 5e-05 1.46608e-10 
83 1 0.384894 0.0205458 5.29418e-05 2.00507e-18 5.26976e-23 -1.5309e-15 0 9.76169e-27 0 5e-05 1.46608e-10 
84 1 0.383993 0.0188764 5.17615e-05 5.31638e-19 -6.61987e-21 -4.06404e-16 0 0 0 5e-05 1.46608e-10 
85 1 0.383849 0.0193448 5.15725e-05 1.06213e-19 -7.49296e-22 -8.03914e-17 0 0 0 5e-05 1.46608e-10 
86 1 0.383935 0.0179283 5.16858e-05 -9.20522e-19 -1.93082e-22 7.02843e-16 0 -9.23807e-27 0 5e-05 1.46608e-10 
87 1 0.384931 0.0175954 5.29902e-05 1.79761e-18 -4.19501e-22 -1.37249e-15 0 -1.95144e-26 0 5e-05 1.46608e-10 
88 1 0.383272 0.0191349 0.0052273 1.28258e-16 -3.83815e-21 3.78515e-14 0 -1.37495e-26 0 5e-05 1.46608e-10 
89 1 0.38382 0.0176837 5.15355e-05 2.24036e-18 4.00749e-21 -1.71051e-15 0 -4.45128e-27 0 5e-05 1.46608e-10 
90 1 0.384046 0.0179367 5.18308e-05 2.24031e-18 -1.06265e-21 -1.71052e-15 0 -7.43786e-27 0 5e-05 1.46608e-10 
91 1 0.384723 0.0172283 5.27177e-05 2.24036e-18 2.65571e-21 -1.71052e-15 0 1.20083e-26 0 5e-05 1.46608e-10 
92 1 0.384191 0.017054 5.20202e-05 -9.20571e-19 3.19931e-22 7.02843e-16 0 -2.1924e-26 0 5e-05 1.46608e-10 
93 1 0.383736 0.0207666 5.1425e-05 -1.15574e-18 -3.96276e-21 8.82406e-16 0 1.52032e-25 0 5e-05 1.46608e-10 
94 1 0.383683 0.0188356 5.13558e-05 -3.50172e-19 -9.86644e-21 2.67383e-16 0 1.28539e-25 0 5e-05 1.46608e-10 
95 1 0.384606 0.0176837 5.25637e-05 4.93337e-19 4.94503e-21 -3.71584e-16 2.58494e-26 0 0 5e-05 1.46608e-10 
96 1 0.38444 0.0183063 5.23472e-05 1.7976e-18 -2.54593e-24 -1.37251e-15 0 4.36226e-28 0 5e-05 1.46608e-10 
98 1 0.383724 0.0194164 5.14094e-05 -3.50211e-19 1.76555e-21 2.67382e-16 -4.03897e-28 2.56936e-26 0 5e-05 1.46608e-10 
99 1 0.384303 0.0183686 5.21674e-05 1.79758e-18 1.42357e-21 -1.37249e-15 0 3.54733e-27 0 5e-05 1.46608e-10 
100 1 0.384848 0.0173718 5.28812e-05 2.24031e-18 -2.06584e-21 -1.71052e-15 0 6.24836e-27 0 5e-05 1.46608e-10 
101 1 0.384322 0.0214999 5.21918e-05 2.00505e-18 -6.75368e-21 -1.5309e-15 0 -1.17193e-25 0 5e-05 1.46608e-10 
102 1 0.0643568 0.0187248 0.00531097 4.4467e-15 1.04566e-14 8.29562e-14 2.51506e-21 -4.27135e-22 -7.29987e-23 5e-05 1.46608e-10 
103 1 0.24257 0.0191927 0.00520306 1.19201e-22 4.86658e-23 1.23839e-22 0 0 0 5e-05 1.46608e-10 
104 1 0.384443 0.0190455 5.23502e-05 -3.50204e-19 1.18683e-21 2.67381e-16 0 -3.28479e-27 0 5e-05 1.46608e-10 
105 1 0.384764 0.0176468 0.000125094 1.11879e-19 8.42181e-21 -7.99325e-17 0 0 0 5e-05 1.46608e-10 
106 1 0.383893 0.0187182 5.16305e-05 7.79461e-19 2.91977e-21 -5.98255e-16 0 0 0 5e-05 1.46608e-10 
107 1 0.385147 0.0177812 0.000122873 -8.24881e-21 -3.69163e-21 -2.81824e-21 0 1.29247e-26 0 5e-05 1.46608e-10 
108 1 0.383662 0.0180867 5.13271e-05 -7.98141e-19 3.64882e-21 6.0885e-16 0 0 0 5e-05 1.46608e-10 
109 1 0.384177 0.0192838 5.20024e-05 2.81056e-18 7.17971e-21 -2.14593e-15 4.03897e-28 7.54402e-26 0 5e-05 1.46608e-10 
110 1 0.384493 0.0193015 5.24162e-05 2.81056e-18 -2.23065e-24 -2.14593e-15 0 -2.18429e-27 0 5e-05 1.46608e-10 
111 1 0.384709 0.0176058 5.26985e-05 1.03288e-19 -3.12525e-22 -7.99326e-17 0 0 0 5e-05 1.46608e-10 
112 1 0.384647 0.0185896 5.26184e-05 1.79764e-18 3.023e-21 -1.37251e-15 0 -1.30499e-25 0 5e-05 1.46608e-10 
113 1 0.383921 0.0178347 0.00010527 -2.22063e-19 9.93718e-21 1.69473e-16 0 6.46235e-27 0 5e-05 1.46608e-10 
114 1 0.384105 0.0183256 5.19082e-05 1.79757e-18 3.6496e-21 -1.37249e-15 0 8.07649e-26 0 5e-05 1.46608e-10 
115 1 0.38367 0.0183173 5.13384e-05 1.79759e-18 7.44282e-22 -1.37251e-15 0 2.45498e-27 0 5e-05 1.46608e-10 
116 1 0.383786 0.0180677 5.14897e-05 2.24035e-18 -1.91723e-21 -1.71052e-15 0 -5.27349e-27 0 5e-05 1.46608e-10 
117 1 0.384446 0.0168712 5.23543e-05 -8.94128e-19 -1.07712e-20 7.02812e-16 7.75482e-26 -3.87741e-26 0 5e-05 1.46608e-10 
118 1 0.383701 0.0187017 5.13793e-05 -3.502e-19 -2.47929e-22 2.67381e-16 0 -3.11886e-27 0 5e-05 1.46608e-10 
119 1 0.383906 0.018619 5.16476e-05 7.84783e-19 4.53956e-22 -5.98253e-16 0 0 0 5e-05 1.46608e-10 
120 1 0.384144 0.01791 5.19592e-05 2.65732e-15 -9.30286e-15 -1.33043e-16 8.72057e-20 -2.21704e-20 2.7522e-20 5e-05 1.46608e-10 
121 1 0.384817 0.0185465 5.28405e-05 1.79761e-18 -2.34998e-21 -1.37251e-15 0 2.00954e-25 0 5e-05 1.46608e-10 
122 1 0.384225 0.0179695 5.20647e-05 -3.63678e-14 -1.00069e-13 2.83216e-14 -4.53091e-19 4.95785e-19 2.2282e-19 5e-05 1.46608e-10 
123 1 0.383933 0.0192279 5.16831e-05 1.08164e-19 -4.47816e-21 -8.03909e-17 5.16988e-26 0 0 5e-05 1.46608e-10 
124 1 0.384096 0.0170045 5.18952e-05 -3.39362e-21 -1.09007e-20 -4.19865e-19 5.16988e-26 0 0 5e-05 1.46608e-10 
125 1 0.384626 0.016764 5.25911e-05 2.24037e-18 1.428e-21 -1.71052e-15 0 -3.84477e-26 0 5e-05 1.46608e-10 
127 1 0.384295 0.018231 0.000129802 1.54118e-20 1.36221e-20 -7.47673e-18 0 0 0 5e-05 1.46608e-10 
128 1 0.384383 0.0169852 5.22722e-05 -9.20521e-19 -2.92995e-22 7.02842e-16 0 -3.15763e-26 0 5e-05 1.46608e-10 
129 1 0.383806 0.0179676 5.15164e-05 -2.24264e-19 1.92356e-22 1.69475e-16 0 0 0 5e-05 1.46608e-10 
130 1 0.383859 0.0175842 5.15859e-05 2.24036e-18 9.05362e-24 -1.71052e-15 0 6.38614e-27 0 5e-05 1.46608e-10 
131 1 0.38345 0.0177196 0.00536012 2.60182e-17 2.72382e-14 8.96488e-14 -2.39262e-22 -3.04506e-22 9.24374e-23 5e-05 1.46608e-10 
132 1 0.384418 0.0164926 5.23174e-05 2.24032e-18 8.70874e-22 -1.71052e-15 0 8.41708e-28 0 5e-05 1.46608e-10 
133 1 0.383591 0.0185347 5.12355e-05 -3.5021e-19 1.04757e-20 2.67382e-16 4.03897e-28 -3.50436e-25 0 5e-05 1.46608e-10 
134 1 0.383574 0.0183691 5.12127e-05 2.81057e-18 9.06798e-22 -2.14593e-15 0 -4.26655e-26 0 5e-05 1.46608e-10 
135 1 0.383667 0.0199993 5.13343e-05 2.81055e-18 -1.23672e-23 -2.14593e-15 0 -4.93885e-27 0 5e-05 1.46608e-10 
136 1 0.384475 0.0176309 5.23931e-05 -9.20543e-19 1.32168e-20 7.02843e-16 0 -7.72958e-26 0 5e-05 1.46608e-10 
137 1 0.383925 0.0184105 5.16721e-05 1.79758e-18 1.4429e-23 -1.37249e-15 0 -3.60444e-28 0 5e-05 1.46608e-10 
138 1 0.384418 0.0178531 5.23181e-05 4.78843e-13 -1.60906e-12 -1.58267e-13 1.48342e-18 6.0514e-18 4.64829e-18 5e-05 1.46608e-10 
140 1 0.384798 0.0171606 5.28155e-05 2.24033e-18 1.95716e-21 -1.71052e-15 0 -1.57685e-25 0 5e-05 1.46608e-10 
141 1 0.384313 0.0171449 5.21807e-05 2.24031e-18 1.70319e-21 -1.71052e-15 0 -1.18713e-25 0 5e-05 1.46608e-10 
142 1 0.385769 0.0165473 5.40881e-05 1.45285e-18 1.659e-21 -1.10923e-15 4.03897e-28 -3.42605e-26 0 5e-05 1.46608e-10 
143 1 0.384333 0.0177947 5.22067e-05 -5.00365e-19 -3.46384e-21 3.87845e-16 -5.16988e-26 0 0 5e-05 1.46608e-10 
144 1 0.384385 0.0195542 5.22753e-05 -3.50182e-19 1.51716e-20 2.67381e-16 0 -1.42128e-25 0 5e-05 1.46608e-10 
146 1 0.384085 0.018684 5.18824e-05 2.81054e-18 4.93012e-22 -2.14593e-15 0 2.74559e-26 0 5e-05 1.46608e-10 
147 1 0.384719 0.0170987 5.27125e-05 2.24033e-18 -2.66666e-20 -1.71052e-15 0 9.72725e-26 0 5e-05 1.46608e-10 
148 1 0.383894 0.0174902 5.16321e-05 2.24033e-18 -1.73439e-21 -1.71052e-15 -4.03897e-28 -3.90644e-26 0 5e-05 1.46608e-10 
149 1 0.384744 0.0173967 5.27447e-05 -1.13586e-19 -2.21713e-21 9.01843e-17 0 -1.29247e-26 0 5e-05 1.46608e-10 
150 1 0.383756 0.0184867 5.14508e-05 2.81057e-18 -7.2582e-21 -2.14593e-15 0 -1.13355e-26 0 5e-05 1.46608e-10 
151 1 0.384727 0.0201861 5.27225e-05 8.71379e-19 -6.99767e-21 -6.65298e-16 -4.03897e-28 -1.39748e-26 0 5e-05 1.46608e-10 
153 1 0.384074 0.0170516 0.000137426 -3.47421e-20 -6.89191e-21 2.96434e-21 -2.58494e-26 -6.46235e-26 -2.86767e-26 5e-05 1.46608e-10 
154 1 0.384584 0.0177681 0.000101539 4.76549e-19 -1.9223e-21 -3.7158e-16 0 1.29247e-26 -2.06795e-25 5e-05 1.46608e-10 
155 1 0.384544 0.0163094 5.24825e-05 -9.20566e-19 -8.44149e-21 7.02844e-16 0 -2.23415e-25 0 5e-05 1.46608e-10 
156 1 0.384233 0.0168376 5.20754e-05 2.24035e-18 -3.49102e-22 -1.71051e-15 0 -1.99304e-27 0 5e-05 1.46608e-10 
157 1 0.0219312 0.0187687 0.00551176 -3.83443e-14 8.16625e-14 2.95887e-13 9.67569e-22 4.02113e-22 1.36485e-23 5e-05 1.46608e-10 
158 1 0.384319 0.0167636 5.21878e-05 2.24034e-18 -5.15414e-20 -1.71052e-15 0 9.72172e-25 0 5e-05 1.46608e-10 
159 1 0.384228 0.0177075 5.20694e-05 -5.09608e-19 -4.4209e-21 3.87861e-16 -5.16988e-26 0 -2.06795e-25 5e-05 1.46608e-10 
160 1 0.38353 0.0176621 0.00537757 -4.10967e-17 2.71528e-14 8.96747e-14 2.44173e-22 3.10606e-22 -9.40918e-23 5e-05 1.46608e-10 
162 1 0.38396 0.0191288 5.17179e-05 -3.50192e-19 -5.55713e-22 2.6738e-16 0 -4.85979e-27 0 5e-05 1.46608e-10 
165 1 0.384146 0.0189135 5.19615e-05 -3.50169e-19 1.6873e-21 2.6738e-16 0 -1.50035e-25 0 5e-05 1.46608e-10 
166 1 0.384895 0.0168866 5.2943e-05 -9.20536e-19 3.71136e-20 7.02845e-16 0 1.27288e-26 0 5e-05 1.46608e-10 
167 1 0.384921 0.0196039 5.29764e-05 8.71339e-19 4.83165e-20 -6.65297e-16 0 -6.42646e-25 0 5e-05 1.46608e-10 
168 1 0.383956 0.019484 5.17133e-05 2.81057e-18 -9.01687e-22 -2.14593e-15 0 -6.18921e-27 0 5e-05 1.46608e-10 
169 1 0.383755 0.019009 5.14493e-05 2.81059e-18 1.12494e-21 -2.14593e-15 0 -6.02739e-28 0 5e-05 1.46608e-10 
170 1 0.383888 0.0184727 0.00523166 6.88178e-16 -4.5769e-15 -5.98175e-14 1.67052e-24 3.36042e-25 0 5e-05 1.46608e-10 
171 1 0.384004 0.0193816 5.17764e-05 2.81059e-18 2.52108e-21 -2.14593e-15 0 1.11498e-26 0 5e-05 1.46608e-10 
172 1 0.384121 0.0171522 0.000126213 2.19407e-20 2.0531e-20 2.22039e-17 -2.58494e-26 -5.16988e-26 0 5e-05 1.46608e-10 
173 1 0.384268 0.0190399 5.21214e-05 -3.50204e-19 4.37315e-21 2.67381e-16 0 -1.20364e-25 0 5e-05 1.46608e-10 
174 1 0.384105 0.0178224 7.97669e-05 3.97339e-15 -1.70371e-15 -8.95703e-16 4.06595e-21 -3.3701e-20 1.15243e-20 5e-05 1.46608e-10 
176 1 0.384124 0.018008 5.19332e-05 4.95899e-15 5.07732e-15 -2.82976e-15 -2.4587e-20 -1.10201e-20 1.58885e-20 5e-05 1.46608e-10 
177 1 0.38435 0.018262 5.22293e-05 1.45743e-20 -2.15755e-22 -7.47398e-18 0 0 0 5e-05 1.46608e-10 
178 1 0.384053 0.0189567 5.184e-05 2.81054e-18 1.77823e-22 -2.14593e-15 0 -5.00313e-27 0 5e-05 1.46608e-10 
179 1 0.3843 0.0186551 5.2163e-05 1.79761e-18 -4.30339e-21 -1.37251e-15 0 -3.34202e-26 0 5e-05 1.46608e-10 
182 1 0.384992 0.0180145 5.30695e-05 1.7976e-18 -9.38305e-22 -1.37251e-15 0 5.76615e-26 0 5e-05 1.46608e-10 
183 1 0.386759 0.0152483 5.53836e-05 1.45285e-18 -6.56568e-22 -1.10923e-15 0 -6.91089e-26 0 5e-05 1.46608e-10 
184 1 0.383617 0.019327 5.12691e-05 2.81055e-18 -1.05717e-21 -2.14593e-15 0 2.24218e-26 0 5e-05 1.46608e-10 
185 1 0.384403 0.0192492 5.22987e-05 -3.50185e-19 -9.76766e-22 2.67381e-16 0 4.10886e-26 0 5e-05 1.46608e-10 
186 1 0.384249 0.018274 5.20972e-05 1.14818e-20 -3.40683e-22 -7.47483e-18 0 0 0 5e-05 1.46608e-10 
187 1 0.38373 0.0197118 5.14173e-05 -3.50204e-19 -2.34921e-21 2.67381e-16 0 -2.91382e-26 0 5e-05 1.46608e-10 
188 1 0.385076 0.0179467 5.31802e-05 1.7976e-18 2.85525e-20 -1.37249e-15 0 3.70865e-25 0 5e-05 1.46608e-10 
189 1 0.38396 0.0177554 5.17178e-05 2.24032e-18 -8.34402e-22 -1.71051e-15 0 -2.0045e-27 0 5e-05 1.46608e-10 
190 1 0.383867 0.0210849 5.15964e-05 -1.15573e-18 2.17769e-20 8.82406e-16 0 -1.43729e-25 0 5e-05 1.46608e-10 
191 1 0.384706 0.0184769 5.26952e-05 1.79755e-18 -1.32323e-21 -1.37249e-15 0 5.99504e-26 0 5e-05 1.46608e-10 
192 1 0.384023 0.0181084 5.1801e-05 -1.67452e-15 2.51792e-15 -2.2254e-16 1.00298e-20 -5.60498e-21 4.90146e-21 5e-05 1.46608e-10 
193 1 0.383672 0.0184195 5.13415e-05 -3.50216e-19 -2.19865e-21 2.67382e-16 0 1.039e-26 0 5e-05 1.46608e-10 
194 1 0.384122 0.0182248 5.1931e-05 1.79761e-18 1.84582e-20 -1.37249e-15 0 -7.94647e-26 0 5e-05 1.46608e-10 
195 1 0.383967 0.0181955 5.17273e-05 1.79764e-18 3.1322e-22 -1.37251e-15 0 6.93513e-27 0 5e-05 1.46608e-10 
196 1 0.384122 0.0181236 5.19307e-05 1.7976e-18 7.40149e-23 -1.37249e-15 0 1.68702e-28 0 5e-05 1.46608e-10 
197 1 0.383676 0.0181534 0.000124512 -8.10414e-19 2.14876e-21 6.08853e-16 0 0 0 5e-05 1.46608e-10 
198 1 0.383816 0.019228 5.15292e-05 1.02961e-19 -2.03373e-21 -8.03905e-17 0 0 0 5e-05 1.46608e-10 
199 1 0.38465 0.0174377 5.26211e-05 -1.19222e-19 1.47883e-21 9.01927e-17 0 2.58494e-26 0 5e-05 1.46608e-10 
200 1 0.3851 0.0177266 5.32113e-05 -5.63914e-22 3.18074e-21 1.10769e-20 0 0 0 5e-05 1.46608e-10 
201 1 0.385006 0.0158243 5.30884e-05 1.45284e-18 1.9749e-21 -1.10923e-15 0 1.1275e-26 0 5e-05 1.46608e-10 
202 1 0.385094 0.0174355 5.32031e-05 1.79759e-18 -4.64043e-22 -1.37251e-15 0 3.29576e-26 0 5e-05 1.46608e-10 
203 1 0.384504 0.0179623 5.24301e-05 1.28987e-12 2.58493e-13 9.25963e-13 4.42105e-18 6.75066e-18 -3.1562e-18 5e-05 1.46608e-10 
204 1 0.384109 0.0184302 5.19127e-05 1.79764e-18 -2.52924e-22 -1.37251e-15 0 -9.89383e-27 0 5e-05 1.46608e-10 
205 1 0.384524 0.0174713 5.24569e-05 2.24033e-18 -9.66741e-22 -1.71052e-15 0 -1.12325e-25 0 5e-05 1.46608e-10 
206 1 0.38435 0.0178614 0.000125081 4.87734e-12 1.97187e-12 1.68159e-13 6.99701e-18 8.83431e-18 7.64247e-18 5e-05 1.46608e-10 
207 1 0.385023 0.0181691 5.31107e-05 1.79761e-18 3.58333e-22 -1.37251e-15 0 1.48221e-27 0 5e-05 1.46608e-10 
208 1 0.385037 0.0175739 5.31289e-05 1.79756e-18 -2.02865e-21 -1.37249e-15 0 -6.70826e-28 0 5e-05 1.46608e-10 
209 1 0.383886 0.018028 5.16209e-05 1.26315e-16 -1.23033e-16 1.49139e-15 -8.76549e-21 6.9671e-21 7.49012e-22 5e-05 1.46608e-10 
210 1 0.384526 0.016716 5.24592e-05 2.24034e-18 -2.54072e-21 -1.71051e-15 4.03897e-28 9.66925e-26 0 5e-05 1.46608e-10 
211 1 0.384505 0.0171609 5.24316e-05 2.24035e-18 -8.37181e-21 -1.71052e-15 0 -4.18173e-26 0 5e-05 1.46608e-10 
212 1 0.383978 0.0185238 0.00522879 -2.82526e-15 1.87927e-14 2.4561e-13 -3.13424e-25 -7.75482e-26 0 5e-05 1.46608e-10 
213 1 0.383846 0.0191172 5.15692e-05 2.81058e-18 -1.81534e-21 -2.14593e-15 0 6.49801e-27 0 5e-05 1.46608e-10 
214 1 0.384625 0.017537 5.25895e-05 9.32318e-20 2.77366e-21 -7.992e-17 0 0 0 5e-05 1.46608e-10 
215 1 0.385553 0.0152374 5.38047e-05 1.45283e-18 3.10231e-21 -1.10923e-15 0 2.88841e-26 0 5e-05 1.46608e-10 
217 1 0.384411 0.0184417 5.23083e-05 1.79759e-18 -2.21147e-21 -1.37251e-15 0 7.54805e-27 0 5e-05 1.46608e-10 
218 1 0.384302 0.0165156 5.21656e-05 -9.2053e-19 6.81388e-21 7.02843e-16 -4.03897e-28 4.57909e-30 0 5e-05 1.46608e-10 
219 1 0.384399 0.0186101 5.22929e-05 1.79762e-18 6.64264e-21 -1.37251e-15 4.03897e-28 -1.42313e-25 0 5e-05 1.46608e-10 
220 1 0.384943 0.0187045 5.30057e-05 1.79761e-18 8.57282e-22 -1.37251e-15 0 -6.60803e-27 0 5e-05 1.46608e-10 
222 1 0.384205 0.0180675 5.20391e-05 2.25005e-14 -7.32273e-15 1.35439e-14 -2.08962e-19 3.69578e-19 -4.85336e-20 5e-05 1.46608e-10 
224 1 0.384058 0.0177382 5.18467e-05 7.55206e-15 -5.01202e-15 2.22248e-15 -1.11566e-19 1.2326e-19 -1.68261e-20 5e-05 1.46608e-10 
225 1 0.384811 0.0174713 5.28328e-05 1.05002e-19 -5.30807e-22 -7.99125e-17 0 0 0 5e-05 1.46608e-10 
226 1 0.383884 0.0196254 5.16191e-05 -3.50186e-19 -4.69083e-21 2.67381e-16 0 -4.02476e-26 0 5e-05 1.46608e-10 
227 1 0.384574 0.0160758 5.25222e-05 2.24036e-18 7.82367e-21 -1.71052e-15 4.03897e-28 5.85286e-26 0 5e-05 1.46608e-10 
228 1 0.384056 0.0180406 0.000117497 5.15202e-15 -3.50591e-15 -8.06238e-16 -5.38195e-21 -1.49418e-20 1.75104e-20 5e-05 1.46608e-10 
229 1 0.384183 0.0194731 5.201e-05 -3.50168e-19 -5.98116e-22 2.67382e-16 0 1.20333e-25 0 5e-05 1.46608e-10 
230 1 0.385084 0.0171004 5.31901e-05 -9.2054e-19 1.11746e-21 7.02844e-16 4.03897e-28 1.77784e-26 0 5e-05 1.46608e-10 
232 1 0.38345 0.0186594 0.00522432 -5.7411e-14 8.97059e-19 -1.77479e-13 0 -2.98658e-24 -2.06795e-25 5e-05 1.46608e-10 
233 1 0.384483 0.016964 5.24031e-05 -9.46894e-19 1.01449e-20 7.02812e-16 -7.59326e-26 3.23117e-26 0 5e-05 1.46608e-10 
234 1 0.384564 0.0189811 5.25095e-05 -3.50221e-19 7.84171e-22 2.67382e-16 0 5.55578e-26 0 5e-05 1.46608e-10 
235 1 0.385129 0.0178507 5.32485e-05 1.11177e-22 -8.43281e-22 -2.2895e-21 0 -2.58494e-26 0 5e-05 1.46608e-10 
236 1 0.385096 0.0164501 5.32056e-05 -9.2053e-19 1.25515e-20 7.02842e-16 0 -3.37845e-25 0 5e-05 1.46608e-10 
237 1 0.383933 0.0187648 0.000130442 7.6957e-19 3.75084e-21 -5.98258e-16 -2.58494e-26 0 0 5e-05 1.46608e-10 
239 1 0.384687 0.0169933 5.26707e-05 2.24035e-18 -2.24181e-22 -1.71051e-15 0 2.99174e-27 0 5e-05 1.46608e-10 
240 1 0.384262 0.0177729 0.000119547 -5.03737e-19 9.38297e-21 3.87861e-16 7.75482e-26 5.16988e-26 2.06795e-25 5e-05 1.46608e-10 
241 1 0.384801 0.0166583 5.28192e-05 2.24033e-18 1.37516e-21 -1.71051e-15 0 -4.76984e-27 0 5e-05 1.46608e-10 
242 1 0.383909 0.0188216 5.16519e-05 7.83014e-19 2.28287e-21 -5.98258e-16 0 0 0 5e-05 1.46608e-10 
243 1 0.38439 0.0209101 5.22816e-05 2.00506e-18 -7.37363e-21 -1.5309e-15 0 3.50905e-25 0 5e-05 1.46608e-10 
244 1 0.384493 0.0173689 9.64047e-05 -1.0857e-19 7.35127e-21 9.02104e-17 5.16988e-26 0 -2.06795e-25 5e-05 1.46608e-10 
246 1 0.38382 0.0188681 5.15345e-05 -3.50173e-19 -4.20551e-23 2.6738e-16 4.03897e-28 -7.38255e-28 0 5e-05 1.46608e-10 
247 1 0.384541 0.017902 0.000125062 -2.4433e-11 -1.35488e-12 6.16835e-12 4.44035e-17 2.53473e-16 8.77748e-18 5e-05 1.46608e-10 
248 1 0.383639 0.0189866 5.12974e-05 -3.5018e-19 1.34737e-21 2.67381e-16 0 -6.06581e-26 0 5e-05 1.46608e-10 
249 1 0.38453 0.020178 5.24643e-05 8.71352e-19 1.84132e-20 -6.65297e-16 0 1.20041e-25 0 5e-05 1.46608e-10 
250 1 0.384661 0.0178084 5.26366e-05 4.86817e-19 1.48439e-22 -3.71585e-16 0 0 0 5e-05 1.46608e-10 
251 1 0.384005 0.0178448 5.17769e-05 -2.21873e-19 -8.99495e-22 1.69486e-16 0 6.46235e-27 0 5e-05 1.46608e-10 
252 1 0.384145 0.0205426 5.19607e-05 8.71353e-19 -7.96079e-21 -6.65298e-16 -4.03897e-28 -1.12585e-25 0 5e-05 1.46608e-10 
253 1 0.383856 0.0203056 5.15822e-05 2.8106e-18 -2.30043e-20 -2.14593e-15 0 8.23799e-27 0 5e-05 1.46608e-10 
254 1 0.38515 0.0175249 5.32762e-05 1.79756e-18 -1.9515e-20 -1.37249e-15 0 -4.1512e-26 0 5e-05 1.46608e-10 
255 1 0.383703 0.0182157 5.13821e-05 -7.98206e-19 1.93859e-21 6.08848e-16 0 0 0 5e-05 1.46608e-10 
256 1 0.384352 0.0191511 5.22319e-05 -3.50183e-19 -2.60852e-22 2.67382e-16 0 6.93576e-27 0 5e-05 1.46608e-10 
257 1 0.384531 0.0168171 5.24664e-05 2.24036e-18 4.2559e-23 -1.71051e-15 0 7.50823e-28 0 5e-05 1.46608e-10 
258 1 0.383662 0.0204201 5.13284e-05 -5.14035e-22 1.92672e-23 1.03396e-21 0 0 0 5e-05 1.46608e-10 
259 1 0.384524 0.0216685 5.24571e-05 2.00503e-18 5.8956e-21 -1.5309e-15 0 -9.65099e-26 0 5e-05 1.46608e-10 
260 1 0.384677 0.0173224 5.2657e-05 -1.14034e-19 -1.02253e-21 9.01854e-17 0 0 0 5e-05 1.46608e-10 
261 1 0.383833 0.0185505 5.15522e-05 -3.50207e-19 1.73173e-22 2.67381e-16 0 1.27335e-29 0 5e-05 1.46608e-10 
262 1 0.384455 0.0172873 5.2367e-05 -1.16294e-19 -3.50445e-21 9.02036e-17 -1.29247e-26 0 0 5e-05 1.46608e-10 
263 1 0.384148 0.018808 5.1965e-05 -3.50205e-19 3.17313e-20 2.67382e-16 0 -6.78595e-26 0 5e-05 1.46608e-10 
264 1 0.383874 0.0192744 0.000117813 1.00497e-19 -1.20208e-20 -8.03864e-17 -2.58494e-26 0 0 5e-05 1.46608e-10 
265 1 0.384664 0.0180562 5.26402e-05 1.7976e-18 -7.9187e-22 -1.37251e-15 0 1.82352e-26 0 5e-05 1.46608e-10 
266 1 0.383681 0.0195344 5.13528e-05 -3.5022e-19 -2.92855e-21 2.67382e-16 0 1.44002e-26 0 5e-05 1.46608e-10 
267 1 0.384035 0.0173399 5.18167e-05 2.24034e-18 1.08519e-22 -1.71052e-15 4.03897e-28 7.98044e-29 0 5e-05 1.46608e-10 
268 1 0.384513 0.0181523 5.24423e-05 1.79761e-18 5.04107e-21 -1.37251e-15 0 8.38997e-26 0 5e-05 1.46608e-10 
269 1 0.383985 0.018016 5.17508e-05 8.6593e-16 -7.61897e-16 4.20283e-16 3.65337e-21 -3.693e-21 -8.08031e-21 5e-05 1.46608e-10 
270 1 0.384204 0.0178183 5.2038e-05 -5.06304e-19 1.07791e-21 3.87841e-16 -2.58494e-26 2.58494e-26 0 5e-05 1.46608e-10 
271 1 0.384204 0.0183848 5.20381e-05 1.79759e-18 1.93705e-22 -1.37251e-15 0 1.15466e-25 0 5e-05 1.46608e-10 
272 1 0.384044 0.0177752 0.000143609 2.80719e-15 1.04348e-14 -1.73207e-15 -5.79227e-20 2.75876e-20 -2.74092e-20 5e-05 1.46608e-10 
273 1 0.38425 0.0173241 5.20975e-05 2.24032e-18 -1.29183e-21 -1.71051e-15 0 2.04393e-27 0 5e-05 1.46608e-10 
274 1 0.383762 0.0206306 5.14594e-05 8.71378e-19 7.45684e-22 -6.65298e-16 0 -1.78455e-26 0 5e-05 1.46608e-10 
275 1 0.385192 0.0170617 5.33312e-05 -9.20522e-19 -4.29148e-22 7.02844e-16 0 5.08929e-27 0 5e-05 1.46608e-10 
276 1 0.3843 0.0175031 5.2164e-05 2.24036e-18 8.01397e-22 -1.71052e-15 0 8.56415e-27 0 5e-05 1.46608e-10 
277 1 0.384989 0.0177301 5.30663e-05 1.79757e-18 1.54819e-22 -1.37249e-15 0 -1.68172e-30 0 5e-05 1.46608e-10 
278 1 0.384608 0.0171655 5.25668e-05 2.24037e-18 -1.36432e-22 -1.71052e-15 0 -3.84663e-27 0 5e-05 1.46608e-10 
280 1 0.383746 0.0191087 5.14383e-05 2.81054e-18 2.79911e-22 -2.14593e-15 -4.03897e-28 -1.62034e-26 0 5e-05 1.46608e-10 
281 1 0.384897 0.0194055 5.2945e-05 8.71342e-19 -2.8511e-21 -6.65298e-16 0 3.24483e-26 0 5e-05 1.46608e-10 
283 1 0.384732 0.0167368 5.27299e-05 2.24032e-18 9.80496e-21 -1.71052e-15 4.03897e-28 -3.64128e-26 0 5e-05 1.46608e-10 
284 1 0.383859 0.0194467 5.15855e-05 2.81054e-18 1.59737e-21 -2.14593e-15 0 -2.11881e-27 0 5e-05 1.46608e-10 
285 1 0.384511 0.017816 5.24399e-05 4.81305e-19 2.41583e-21 -3.71583e-16 0 0 0 5e-05 1.46608e-10 
286 1 0.384761 0.017818 5.27671e-05 4.8674e-19 -4.19363e-22 -3.71584e-16 0 0 0 5e-05 1.46608e-10 
287 1 0.384417 0.0167417 5.23161e-05 2.24037e-18 -7.55605e-21 -1.71052e-15 0 -8.6931e-26 0 5e-05 1.46608e-10 
288 1 0.384905 0.0179551 5.29553e-05 1.79762e-18 -1.14646e-22 -1.37251e-15 0 3.40815e-27 0 5e-05 1.46608e-10 
290 1 0.38472 0.0175079 6.94547e-05 1.00474e-19 4.21994e-21 -7.99278e-17 0 1.29247e-26 0 5e-05 1.46608e-10 
291 1 0.38371 0.0179981 5.13903e-05 2.24034e-18 8.53258e-22 -1.71052e-15 0 1.42981e-29 0 5e-05 1.46608e-10 
292 1 0.384101 0.0193494 5.19028e-05 -3.50188e-19 3.82933e-21 2.67381e-16 0 -2.86398e-26 0 5e-05 1.46608e-10 
293 1 0.384429 0.0174321 5.23324e-05 -1.15139e-19 3.65516e-21 9.0189e-17 -5.16988e-26 -5.16988e-26 0 5e-05 1.46608e-10 
294 1 0.383845 0.0189654 5.1567e-05 5.33793e-19 5.59283e-22 -4.06399e-16 0 -6.46235e-27 0 5e-05 1.46608e-10 
295 1 0.383647 0.0190875 5.13083e-05 -3.50201e-19 2.17284e-24 2.67381e-16 0 2.09137e-28 0 5e-05 1.46608e-10 
296 1 0.384035 0.0172167 0.000137258 -5.69749e-18 6.67102e-19 3.08163e-17 1.03398e-25 0 0 5e-05 1.46608e-10 
297 1 0.383829 0.0183804 5.15472e-05 1.79762e-18 9.70382e-22 -1.37251e-15 4.03897e-28 2.84113e-26 0 5e-05 1.46608e-10 
298 1 0.384428 0.0175321 5.23311e-05 -1.18939e-19 7.29152e-22 9.01884e-17 0 0 0 5e-05 1.46608e-10 
299 1 0.38404 0.0171308 0.000188309 -9.96133e-18 2.33325e-17 1.5467e-17 -5.16988e-26 1.03398e-25 0 5e-05 1.46608e-10 
300 1 0.383994 0.0172487 5.17625e-05 -4.05418e-20 8.93883e-21 3.91279e-17 0 0 0 5e-05 1.46608e-10 
