ITEM: TIMESTEP
34000000
ITEM: NUMBER OF ATOMS
275
ITEM: BOX BOUNDS ff ff ff
-0.02 0.43
-0.02 0.06
-0.02 0.07
ITEM: ATOMS id type x y z vx vy vz fx fy fz radius mass 
1 1 0.211535 0.0183021 0.00695803 0.005852 0.000791918 -0.000432789 -1.47959e-10 -7.03374e-11 2.74894e-11 5e-05 1.46608e-10 
2 1 0.211162 0.0170591 0.00735064 0.0061331 0.000762514 -0.000434871 -5.42128e-10 -5.16517e-11 2.19765e-10 5e-05 1.46608e-10 
4 1 0.211312 0.0169301 0.00738513 0.0060155 0.000500751 -0.000347249 -8.91462e-11 5.63444e-11 -1.01967e-10 5e-05 1.46608e-10 
5 1 0.210704 0.0154846 0.00889852 0.00618456 0.000401969 -0.000876306 -3.40833e-11 -6.1562e-11 6.51069e-11 5e-05 1.46608e-10 
6 1 0.217139 0.0170045 0.00752125 0.0057104 -0.000824823 0.000269755 3.76321e-10 -1.9904e-11 3.16436e-11 5e-05 1.46608e-10 
7 1 0.211517 0.017658 0.00715572 0.00633549 0.000666619 -0.000410584 7.19956e-11 5.79426e-12 -8.01913e-13 5e-05 1.46608e-10 
8 1 0.211155 0.0166278 0.00750482 0.00597818 0.000915503 -0.000106482 1.8586e-10 1.547e-10 -1.49572e-10 5e-05 1.46608e-10 
9 1 0.21734 0.0178224 0.00704353 0.0060746 -0.000851782 0.000349243 4.83088e-11 6.55555e-11 -1.25065e-11 5e-05 1.46608e-10 
10 1 0.210833 0.0158548 0.00844503 0.00614389 0.000367895 -0.000856555 4.82501e-11 -3.45433e-12 1.34924e-11 5e-05 1.46608e-10 
11 1 0.211315 0.0177268 0.00722973 0.00635266 0.000716109 -0.000428285 5.09204e-11 -3.5064e-11 1.93955e-11 5e-05 1.46608e-10 
12 1 0.205396 0.0169363 0.0074411 0.00591705 -0.000744388 6.36732e-05 -1.56185e-10 3.33288e-11 -1.89403e-11 5e-05 1.46608e-10 
13 1 0.210683 0.0154266 0.00897721 0.00619987 0.000404221 -0.000876472 -7.41716e-12 -3.12341e-11 4.64271e-11 5e-05 1.46608e-10 
14 1 0.205375 0.0175666 0.007094 0.0061664 -0.000644321 0.000299065 -1.63554e-10 -1.04212e-10 1.07365e-10 5e-05 1.46608e-10 
16 1 0.205653 0.0180138 0.00704129 0.00609408 -0.000716572 0.000329711 1.08184e-09 -5.11634e-10 9.41615e-11 5e-05 1.46608e-10 
17 1 0.210812 0.0157965 0.00852359 0.00612816 0.000374486 -0.00086494 3.89977e-11 -4.23667e-11 8.28765e-11 5e-05 1.46608e-10 
19 1 0.210661 0.0153613 0.00904967 0.00622432 0.000401592 -0.000876088 -6.90671e-12 -9.47598e-12 1.24226e-11 5e-05 1.46608e-10 
21 1 0.211546 0.017844 0.00709785 0.00632174 0.000657916 -0.000407362 -1.63724e-10 7.51114e-11 -1.08349e-11 5e-05 1.46608e-10 
22 1 0.211124 0.0164974 0.00765296 0.00564794 0.000302325 -0.000723497 1.53294e-10 1.71601e-10 -2.28368e-10 5e-05 1.46608e-10 
23 1 0.20561 0.0178187 0.0070545 0.00604269 -0.00067881 0.000326268 2.92427e-10 -6.00629e-11 1.60593e-11 5e-05 1.46608e-10 
24 1 0.217258 0.017455 0.00714346 0.00605803 -0.00087765 0.000293772 4.41218e-10 -2.89582e-10 1.92705e-10 5e-05 1.46608e-10 
25 1 0.210875 0.0159784 0.00829359 0.0059581 0.000407253 -0.000868842 1.47713e-10 3.7181e-11 -3.5493e-11 5e-05 1.46608e-10 
26 1 0.217297 0.0176288 0.00706928 0.00610114 -0.000845711 0.000350836 -8.89809e-11 -7.38645e-11 -2.8043e-12 5e-05 1.46608e-10 
27 1 0.205205 0.0168874 0.00748102 0.00557936 -0.000418674 0.000351892 -7.25843e-11 -2.68845e-11 -1.04692e-10 5e-05 1.46608e-10 
28 1 0.211236 0.0169948 0.00736777 0.00603489 0.00060569 -0.000374222 1.74e-10 -1.41036e-10 3.37676e-11 5e-05 1.46608e-10 
29 1 0.210639 0.0152995 0.00912534 0.00624407 0.000399022 -0.000874897 5.16931e-12 -1.82188e-13 -5.70798e-13 5e-05 1.46608e-10 
30 1 0.210951 0.0162269 0.00798953 0.00543176 0.000503664 -0.000946753 -1.34566e-10 2.39063e-10 -2.35089e-10 5e-05 1.46608e-10 
31 1 0.211601 0.0176006 0.00717054 0.00630822 0.000669503 -0.000410268 1.87346e-10 -2.71524e-11 1.64874e-12 5e-05 1.46608e-10 
32 1 0.210895 0.0160416 0.00821881 0.00585969 0.000417047 -0.000889063 5.47791e-11 6.99876e-11 -5.12962e-11 5e-05 1.46608e-10 
33 1 0.217158 0.0170794 0.00745795 0.00573857 -0.000819067 0.000263194 -1.66747e-10 -1.70487e-10 2.05583e-11 5e-05 1.46608e-10 
34 1 0.210796 0.0157304 0.00859684 0.00612342 0.000392479 -0.000862825 -1.8047e-11 -7.83673e-11 9.90113e-11 5e-05 1.46608e-10 
35 1 0.211503 0.0174455 0.00722119 0.00628479 0.000657102 -0.000405951 -9.25807e-11 -8.58928e-12 6.40073e-12 5e-05 1.46608e-10 
36 1 0.217405 0.0181127 0.0070049 0.00603732 -0.000838151 0.000346047 5.61462e-12 2.82177e-11 -3.31914e-12 5e-05 1.46608e-10 
37 1 0.211291 0.0168367 0.00741437 0.00591406 0.000530965 -0.000354536 -1.42208e-10 2.39629e-10 -7.12579e-11 5e-05 1.46608e-10 
38 1 0.211375 0.0172102 0.00729735 0.00625021 0.00066637 -0.000406254 9.5384e-11 8.04968e-11 -2.8762e-11 5e-05 1.46608e-10 
39 1 0.217276 0.0175321 0.00708215 0.00609598 -0.000852343 0.00034881 1.35987e-10 -2.67981e-10 4.7584e-11 5e-05 1.46608e-10 
41 1 0.210747 0.0156083 0.00874736 0.00614448 0.000397508 -0.000875682 -2.15488e-11 -1.33564e-10 4.44543e-11 5e-05 1.46608e-10 
42 1 0.211407 0.0169591 0.00737315 0.00602108 0.000503729 -0.000348858 -1.84868e-10 1.16583e-10 -4.14649e-11 5e-05 1.46608e-10 
44 1 0.21147 0.0172392 0.00728539 0.00629359 0.000734785 -0.000429603 6.24959e-12 4.05264e-11 -7.32501e-12 5e-05 1.46608e-10 
45 1 0.217178 0.0171543 0.00739466 0.00582544 -0.000822201 0.000265778 -5.22031e-10 -7.91449e-11 -9.74956e-11 5e-05 1.46608e-10 
47 1 0.210768 0.0156698 0.00867152 0.00612608 0.000399862 -0.000869134 -4.10181e-11 -9.27242e-11 9.31894e-11 5e-05 1.46608e-10 
48 1 0.211406 0.0181224 0.00708282 0.00641663 0.000700759 -0.000423982 6.53956e-11 -2.4935e-12 2.29537e-11 5e-05 1.46608e-10 
49 1 0.217362 0.0179192 0.00703065 0.00606271 -0.000845516 0.000348035 -4.09418e-11 -4.75287e-11 4.49977e-12 5e-05 1.46608e-10 
50 1 0.210914 0.0161024 0.00814165 0.00571918 0.000445918 -0.00090491 2.76484e-11 1.12508e-10 -8.68585e-11 5e-05 1.46608e-10 
51 1 0.211608 0.0176959 0.00714114 0.00633055 0.000670916 -0.000411268 1.74678e-10 -3.31461e-11 8.0683e-13 5e-05 1.46608e-10 
52 1 0.205459 0.0171906 0.00729443 0.0059916 -0.000749049 6.6458e-05 -1.98858e-10 2.25474e-10 -1.28769e-10 5e-05 1.46608e-10 
53 1 0.217217 0.0173042 0.00726807 0.00592637 -0.000870351 0.00028529 1.84815e-10 1.02306e-10 -1.10952e-10 5e-05 1.46608e-10 
54 1 0.211725 0.0179295 0.00706585 0.00637196 0.000671229 -0.000412717 -8.34662e-11 4.53869e-12 3.2807e-14 5e-05 1.46608e-10 
55 1 0.205385 0.0172505 0.0072652 0.006005 -0.000738244 5.53322e-05 -4.98019e-11 1.12153e-10 -1.79188e-10 5e-05 1.46608e-10 
56 1 0.211723 0.0178338 0.0070952 0.00633772 0.000642867 -0.000402899 -5.35413e-11 2.85952e-11 -8.95498e-12 5e-05 1.46608e-10 
57 1 0.217197 0.0172293 0.00733136 0.00588764 -0.000845703 0.0002799 6.58273e-10 -3.19679e-11 -1.32131e-10 5e-05 1.46608e-10 
59 1 0.378022 0.019866 0.005332 -5.01917e-15 -7.41203e-15 7.69803e-14 -1.50056e-23 2.27475e-24 -8.27181e-25 5e-05 1.46608e-10 
60 1 0.211488 0.0173389 0.0072543 0.00631433 0.000745412 -0.000433585 -2.13228e-10 1.42856e-10 -3.23072e-11 5e-05 1.46608e-10 
61 1 0.210726 0.0155464 0.00882295 0.00616642 0.000395475 -0.000879437 -3.89988e-11 -1.15615e-10 4.07689e-11 5e-05 1.46608e-10 
62 1 0.211395 0.0173037 0.00726808 0.00631211 0.000742887 -0.000432858 -9.93311e-11 -5.81935e-11 1.58869e-11 5e-05 1.46608e-10 
63 1 0.21142 0.0181768 0.00700011 0.00639609 0.00070869 -0.000424493 -4.33198e-11 -7.92106e-11 2.43087e-11 5e-05 1.46608e-10 
64 1 0.217237 0.0173792 0.00720524 0.00600188 -0.000875325 0.000286653 -3.66931e-10 4.93635e-11 4.29442e-11 5e-05 1.46608e-10 
65 1 0.205428 0.0174196 0.00716759 0.00598205 -0.000772561 2.85918e-06 -1.07525e-10 2.44655e-10 -1.63848e-10 5e-05 1.46608e-10 
66 1 0.205365 0.0177084 0.0071375 0.00612191 -0.000657258 0.000316357 1.19379e-10 1.05382e-10 1.26505e-10 5e-05 1.46608e-10 
67 1 0.211568 0.0179537 0.00706357 0.00637663 0.000691009 -0.000419074 6.77584e-12 7.14645e-11 -2.02242e-11 5e-05 1.46608e-10 
68 1 0.2113 0.0172751 0.00728114 0.00631884 0.00072511 -0.000424054 -2.72861e-11 -1.9127e-11 -8.77437e-12 5e-05 1.46608e-10 
69 1 0.211637 0.0178844 0.00708252 0.0063601 0.000672864 -0.000412875 -4.04301e-11 5.00375e-11 -1.1998e-11 5e-05 1.46608e-10 
70 1 0.217319 0.0177256 0.0070564 0.00609335 -0.000848589 0.000349791 1.00113e-10 9.80698e-11 -1.25007e-11 5e-05 1.46608e-10 
71 1 0.205748 0.0180447 0.00704317 0.00602213 -0.00024569 0.000290195 2.87439e-09 -5.22228e-10 1.66237e-10 5e-05 1.46608e-10 
72 1 0.211592 0.0181428 0.00700492 0.00640141 0.000707119 -0.000424631 -1.19905e-10 -2.2194e-13 6.19795e-12 5e-05 1.46608e-10 
73 1 0.210854 0.0159165 0.00836927 0.006046 0.000393243 -0.000858952 8.25106e-11 3.40998e-11 -5.35355e-11 5e-05 1.46608e-10 
74 1 0.210932 0.0161648 0.00806559 0.00557833 0.00046825 -0.000928644 -3.31002e-12 2.40566e-10 -7.61251e-11 5e-05 1.46608e-10 
76 1 0.205322 0.0169969 0.00741253 0.00593193 -0.000730201 4.84161e-05 -6.38231e-11 1.17348e-10 -5.27797e-11 5e-05 1.46608e-10 
77 1 0.211182 0.0171524 0.0073213 0.00627139 0.000723047 -0.000426366 -1.14828e-10 -3.52974e-11 4.03789e-11 5e-05 1.46608e-10 
78 1 0.204659 0.0152606 0.0090059 0.00571071 -0.000370059 0.000355028 9.76721e-11 -2.55531e-11 -3.35155e-11 5e-05 1.46608e-10 
79 1 0.205715 0.0183075 0.0070213 0.00566025 -0.000720177 0.000310812 -4.29626e-10 3.18629e-10 -4.63673e-11 5e-05 1.46608e-10 
80 1 0.211257 0.0170882 0.00733852 0.0061645 0.00058704 -0.000381774 -6.19152e-11 -9.91927e-11 6.46443e-11 5e-05 1.46608e-10 
82 1 0.20546 0.0177559 0.00714107 0.00614268 -0.000678052 0.000326353 -1.89852e-11 1.1604e-10 2.26895e-11 5e-05 1.46608e-10 
83 1 0.205417 0.017021 0.00739224 0.00593771 -0.000751072 6.69016e-05 -7.33162e-11 2.59381e-10 -1.23286e-10 5e-05 1.46608e-10 
84 1 0.217384 0.018016 0.00701777 0.00604923 -0.000839584 0.000346725 -1.3724e-12 -4.0469e-11 5.0096e-12 5e-05 1.46608e-10 
85 1 0.205885 0.018273 0.00703161 0.0055874 -0.000639122 0.000301294 3.46466e-10 -1.16665e-09 1.05485e-10 5e-05 1.46608e-10 
86 1 0.211449 0.0171457 0.00731468 0.00610583 0.000528021 -0.000360086 -4.91504e-11 -7.95309e-11 2.68376e-11 5e-05 1.46608e-10 
87 1 0.211217 0.0169019 0.007399 0.00595576 0.00059545 -0.00040376 -2.84054e-10 -5.91676e-11 -2.65545e-10 5e-05 1.46608e-10 
88 1 0.21143 0.0176108 0.00717295 0.00633591 0.000668229 -0.00041084 3.59975e-12 4.71245e-11 1.03682e-13 5e-05 1.46608e-10 
89 1 0.211337 0.0174664 0.0072202 0.00628561 0.000717118 -0.000423875 -1.46676e-11 -1.35066e-10 1.07482e-10 5e-05 1.46608e-10 
90 1 0.211571 0.0180492 0.00703424 0.00639456 0.000696255 -0.000421098 -2.21427e-11 6.6045e-11 -1.84579e-11 5e-05 1.46608e-10 
91 1 0.205376 0.016857 0.007499 0.00578866 -0.000446272 0.000561528 -1.7766e-10 1.98662e-10 -1.58616e-10 5e-05 1.46608e-10 
92 1 0.211322 0.0177522 0.00713323 0.00636189 0.000709709 -0.000425729 2.01641e-11 3.40352e-11 -5.02719e-12 5e-05 1.46608e-10 
93 1 0.211008 0.0164135 0.00776195 0.00562276 0.000480066 -0.000961221 -2.12419e-10 2.49316e-10 -2.48848e-10 5e-05 1.46608e-10 
94 1 0.211354 0.0178193 0.00719998 0.00637325 0.000699787 -0.000427019 1.36197e-10 9.51405e-11 -6.46822e-11 5e-05 1.46608e-10 
95 1 0.211247 0.0174357 0.00725085 0.00630805 0.000717525 -0.000425559 -2.23826e-11 2.95213e-11 1.1498e-10 5e-05 1.46608e-10 
96 1 0.211343 0.0176587 0.00716113 0.0063485 0.000702999 -0.000422408 -5.75425e-11 7.79193e-12 -1.73663e-11 5e-05 1.46608e-10 
97 1 0.204758 0.0154748 0.00858079 0.0055475 -0.000360783 0.000474296 -5.62695e-11 -8.46421e-11 1.59789e-10 5e-05 1.46608e-10 
98 1 0.210989 0.0163511 0.00783766 0.00544984 0.00051168 -0.000964372 2.08904e-10 1.6206e-10 -2.79902e-10 5e-05 1.46608e-10 
99 1 0.205482 0.0180471 0.00703098 0.00606761 -0.00067645 0.000326025 -3.34384e-10 1.27595e-10 -9.82983e-12 5e-05 1.46608e-10 
100 1 0.211513 0.0177539 0.00712649 0.00635608 0.000649263 -0.000405424 3.58518e-11 4.76191e-11 -2.03156e-11 5e-05 1.46608e-10 
101 1 0.205503 0.0181446 0.00702437 0.00606224 -0.000684602 0.000325493 -5.65545e-10 -4.93786e-10 -1.77101e-12 5e-05 1.46608e-10 
102 1 0.0643568 0.0187248 0.00531097 4.38884e-15 1.04711e-14 8.29575e-14 6.32237e-22 -2.52885e-22 -6.20385e-25 5e-05 1.46608e-10 
103 1 0.24257 0.0191927 0.00520306 8.61412e-23 2.24983e-22 1.23839e-22 3.23117e-27 0 0 5e-05 1.46608e-10 
104 1 0.205674 0.0181116 0.00703466 0.00603006 -0.000561718 0.000315418 -1.44243e-09 3.1785e-10 -8.92163e-11 5e-05 1.46608e-10 
105 1 0.204718 0.0153402 0.00872288 0.00567048 -0.000415501 0.000385688 1.71776e-10 -3.17472e-10 2.78544e-12 5e-05 1.46608e-10 
106 1 0.205396 0.0176571 0.00705738 0.00615869 -0.00064734 0.000323716 -2.40023e-10 -1.49109e-10 5.26869e-11 5e-05 1.46608e-10 
107 1 0.204679 0.0152848 0.00891102 0.00554829 -0.000353635 0.000333844 4.04024e-12 -2.01043e-12 -4.04326e-11 5e-05 1.46608e-10 
108 1 0.211657 0.0179998 0.00704658 0.00638395 0.000679683 -0.000415713 -9.03178e-12 7.53009e-11 -2.06338e-11 5e-05 1.46608e-10 
109 1 0.211577 0.0173808 0.00723856 0.00633674 0.000706951 -0.000422614 -1.13453e-10 -7.28099e-11 2.35956e-11 5e-05 1.46608e-10 
110 1 0.211141 0.0169659 0.00738089 0.00599822 0.000793109 -0.000450129 -3.90388e-10 -1.57525e-10 2.38175e-10 5e-05 1.46608e-10 
111 1 0.211103 0.0167858 0.00745612 0.00581784 0.000834977 -0.000447193 -1.09931e-10 -1.04402e-10 4.2681e-11 5e-05 1.46608e-10 
112 1 0.204796 0.0156305 0.00846128 0.00556141 -0.000380215 0.000503203 7.79943e-12 -1.15462e-10 1.48383e-10 5e-05 1.46608e-10 
113 1 0.205279 0.0175408 0.00710834 0.0061414 -0.000712284 3.38764e-05 -4.55121e-11 -2.6462e-10 1.67975e-10 5e-05 1.46608e-10 
114 1 0.205364 0.0179176 0.00703572 0.00609163 -0.000676607 0.000338046 1.00484e-10 1.32016e-10 -1.65864e-10 5e-05 1.46608e-10 
115 1 0.211427 0.0170525 0.0073439 0.00614477 0.000483718 -0.000347987 -1.15526e-10 9.95624e-11 -2.09868e-11 5e-05 1.46608e-10 
116 1 0.211483 0.0180045 0.0070508 0.00638154 0.000695692 -0.000420004 2.96004e-11 9.1816e-11 -2.3912e-11 5e-05 1.46608e-10 
117 1 0.211513 0.0175558 0.00718713 0.0063219 0.00063655 -0.000400949 8.07434e-11 5.94063e-11 -4.47139e-12 5e-05 1.46608e-10 
118 1 0.205503 0.0173597 0.00719677 0.00581326 -0.000910345 0.000166168 -2.19174e-10 1.6059e-10 1.25853e-11 5e-05 1.46608e-10 
119 1 0.21168 0.0180961 0.00701633 0.00639802 0.000701158 -0.000422756 -1.3561e-10 1.78966e-11 2.54141e-13 5e-05 1.46608e-10 
120 1 0.211145 0.0165618 0.0075792 0.00593499 0.000481495 -0.000492162 2.79602e-10 7.69817e-11 -2.68665e-10 5e-05 1.46608e-10 
121 1 0.211559 0.0184026 0.00692648 0.00591343 0.00076699 -0.000427306 4.54827e-11 6.75278e-11 -2.32843e-11 5e-05 1.46608e-10 
122 1 0.211344 0.0175631 0.00719036 0.00631754 0.0007055 -0.00042182 -1.00245e-11 6.90706e-12 4.15081e-12 5e-05 1.46608e-10 
123 1 0.205769 0.0181433 0.00703647 0.00603972 -0.000301382 0.000295409 -2.54831e-10 -3.9926e-11 -8.03939e-12 5e-05 1.46608e-10 
124 1 0.211027 0.0164755 0.00768558 0.00573973 0.000481451 -0.000944236 -3.2229e-10 1.84086e-10 -2.06513e-10 5e-05 1.46608e-10 
125 1 0.211427 0.017508 0.00720453 0.00629701 0.000676464 -0.000412322 6.14102e-12 7.91459e-11 -2.10711e-11 5e-05 1.46608e-10 
127 1 0.204734 0.0154059 0.00864922 0.00567008 -0.000427103 0.000414558 -6.25584e-12 1.52444e-11 2.95116e-10 5e-05 1.46608e-10 
128 1 0.210972 0.0162912 0.00791583 0.00528129 0.000568178 -0.000945518 1.00436e-10 1.36076e-10 -3.275e-10 5e-05 1.46608e-10 
129 1 0.21129 0.0176306 0.00724113 0.00632751 0.000722892 -0.000429515 8.27459e-11 -2.12764e-11 5.50249e-12 5e-05 1.46608e-10 
130 1 0.205439 0.0178522 0.00704418 0.0060841 -0.000682422 0.000329916 1.42379e-10 6.68418e-11 -5.1703e-11 5e-05 1.46608e-10 
131 1 0.20546 0.0179497 0.00703758 0.00608101 -0.000682598 0.00032715 1.48583e-10 2.1966e-10 -3.47004e-11 5e-05 1.46608e-10 
132 1 0.211331 0.0170236 0.00735586 0.00609402 0.000487452 -0.000346548 -1.62642e-10 -8.24032e-11 4.47001e-11 5e-05 1.46608e-10 
133 1 0.211497 0.0181147 0.00701662 0.0063983 0.000705986 -0.000424413 -7.81982e-11 -4.26425e-11 1.64474e-11 5e-05 1.46608e-10 
134 1 0.211472 0.0179095 0.00708021 0.00635026 0.00069021 -0.000417998 -7.40545e-11 1.06888e-10 -1.8393e-11 5e-05 1.46608e-10 
135 1 0.21163 0.0177891 0.00711192 0.00634292 0.000670818 -0.000411629 -7.08787e-11 4.24792e-11 -1.05333e-11 5e-05 1.46608e-10 
136 1 0.205364 0.0171657 0.00731406 0.00597844 -0.00073444 5.62407e-05 -8.5505e-11 1.91313e-10 -1.05323e-10 5e-05 1.46608e-10 
137 1 0.211268 0.0175333 0.00724787 0.00630282 0.000725355 -0.000426733 -4.11994e-12 -1.18928e-12 4.0285e-11 5e-05 1.46608e-10 
138 1 0.211365 0.0179385 0.00707482 0.00637834 0.000708346 -0.000423449 3.06002e-12 9.50992e-11 -3.518e-11 5e-05 1.46608e-10 
140 1 0.211204 0.0172456 0.00729211 0.00633065 0.000714105 -0.0004236 6.93817e-11 3.19177e-11 -5.21898e-11 5e-05 1.46608e-10 
141 1 0.205202 0.0165229 0.00775954 0.00542949 -0.000347552 0.000471449 9.76812e-11 4.06424e-11 -1.42766e-11 5e-05 1.46608e-10 
142 1 0.205589 0.017721 0.00706111 0.00604536 -0.000698993 0.000329818 2.86733e-10 -2.65081e-10 3.1226e-11 5e-05 1.46608e-10 
143 1 0.204698 0.0153092 0.00881582 0.00555014 -0.000365873 0.000351256 -8.18952e-12 -5.05273e-11 -2.05694e-11 5e-05 1.46608e-10 
144 1 0.205544 0.01753 0.0070986 0.00616064 -0.000713875 4.34464e-05 2.40005e-10 1.23742e-10 -3.13939e-11 5e-05 1.46608e-10 
146 1 0.204836 0.0157846 0.00834059 0.00532286 -0.000363056 0.000475427 3.74489e-10 -1.25853e-10 6.80025e-11 5e-05 1.46608e-10 
147 1 0.205494 0.0176923 0.00707093 0.00605204 -0.000715303 0.000273426 1.70799e-10 6.54041e-11 4.31527e-11 5e-05 1.46608e-10 
148 1 0.205221 0.0165999 0.00769877 0.00543025 -0.000343623 0.000471451 2.74422e-10 4.82861e-11 1.7988e-11 5e-05 1.46608e-10 
149 1 0.211064 0.0166105 0.00754358 0.00592243 0.000641762 -0.000750788 6.10291e-11 -2.73153e-10 -3.03523e-10 5e-05 1.46608e-10 
150 1 0.205736 0.0184052 0.00701464 0.00557305 -0.000607502 0.000298178 4.07818e-10 9.1208e-11 9.87748e-12 5e-05 1.46608e-10 
151 1 0.205564 0.0184377 0.0070044 0.00566546 -0.000582601 0.000301208 3.58413e-11 1.95528e-11 9.547e-12 5e-05 1.46608e-10 
153 1 0.205241 0.0166771 0.00763827 0.0054418 -0.000341636 0.000470671 2.08925e-10 5.80471e-11 -2.20898e-11 5e-05 1.46608e-10 
154 1 0.204816 0.0157056 0.0083985 0.00541971 -0.00036912 0.000489363 -1.2328e-11 -1.34031e-10 1.20272e-10 5e-05 1.46608e-10 
155 1 0.204915 0.0160854 0.00809871 0.00530744 -0.000333286 0.000456257 6.8397e-11 -1.80229e-10 1.40604e-10 5e-05 1.46608e-10 
156 1 0.205182 0.016446 0.00782027 0.00541462 -0.000347682 0.000469959 1.80962e-11 2.51088e-11 -2.15803e-11 5e-05 1.46608e-10 
157 1 0.0219312 0.0187687 0.00551176 -3.82812e-14 8.17067e-14 2.95883e-13 -7.18406e-22 -2.73383e-22 -1.22009e-23 5e-05 1.46608e-10 
158 1 0.205281 0.0168357 0.00752358 0.00559653 -0.000439316 0.000360852 -1.75303e-10 1.15583e-10 -1.44205e-10 5e-05 1.46608e-10 
159 1 0.211353 0.0171169 0.00732662 0.00622956 0.000585834 -0.000382188 -1.50558e-10 -2.75805e-11 1.78385e-11 5e-05 1.46608e-10 
160 1 0.205469 0.0184053 0.00700261 0.00560653 -0.000577531 0.000297854 1.97199e-11 -8.20664e-11 5.34413e-12 5e-05 1.46608e-10 
162 1 0.205406 0.0181125 0.00702252 0.00605158 -0.000658074 0.00032217 -1.34029e-10 2.37927e-10 -1.6754e-11 5e-05 1.46608e-10 
164 1 0.204973 0.0163164 0.00791634 0.00538759 -0.000324991 0.000450923 4.94503e-11 -9.92367e-11 8.62715e-11 5e-05 1.46608e-10 
165 1 0.205641 0.0183736 0.00701281 0.00570578 -0.000626746 0.000305413 -3.07403e-10 6.72749e-11 -1.72129e-11 5e-05 1.46608e-10 
166 1 0.211387 0.0180316 0.00704561 0.00638307 0.000704898 -0.000423195 4.49371e-11 9.67013e-11 -2.4476e-11 5e-05 1.46608e-10 
167 1 0.205756 0.0185029 0.00700797 0.00559018 -0.000617764 0.000299711 -6.23887e-11 4.18048e-11 -1.00934e-11 5e-05 1.46608e-10 
168 1 0.20581 0.0183391 0.00702312 0.00557065 -0.000633296 0.000300122 5.21357e-10 -3.48629e-10 5.05762e-11 5e-05 1.46608e-10 
169 1 0.205661 0.0184713 0.00700615 0.00556138 -0.000594959 0.000296594 -2.18367e-10 -1.66917e-10 5.45449e-12 5e-05 1.46608e-10 
170 1 0.205681 0.0185689 0.00699949 0.0056082 -0.000592769 0.000298464 -2.79605e-10 -2.74405e-10 1.16899e-11 5e-05 1.46608e-10 
171 1 0.211617 0.018247 0.00697221 0.00584462 0.000788207 -0.000431376 -1.11542e-10 -6.47642e-11 2.35006e-11 5e-05 1.46608e-10 
172 1 0.205258 0.0174562 0.00715719 0.00611389 -0.000690877 2.43258e-05 -7.07423e-11 -1.94394e-10 1.18691e-10 5e-05 1.46608e-10 
173 1 0.211432 0.0179833 0.0071342 0.00637793 0.000700588 -0.00041873 -1.23599e-11 1.38464e-10 -2.78528e-11 5e-05 1.46608e-10 
174 1 0.205012 0.0164704 0.00779479 0.00541691 -0.000318649 0.000447201 -4.60654e-11 -9.61726e-11 7.42885e-11 5e-05 1.46608e-10 
176 1 0.20531 0.0173103 0.00723602 0.00604137 -0.000710876 3.62203e-05 -3.85791e-11 -6.70317e-11 -1.13528e-11 5e-05 1.46608e-10 
177 1 0.204895 0.01601 0.00816131 0.00530314 -0.000340013 0.000465069 -1.13397e-10 -1.86276e-10 1.52934e-10 5e-05 1.46608e-10 
178 1 0.205321 0.0177226 0.00704896 0.00613768 -0.000688224 0.000323286 -4.7741e-11 -2.33787e-11 1.88722e-10 5e-05 1.46608e-10 
179 1 0.205489 0.018503 0.00699595 0.00561105 -0.000550762 0.000296835 1.36278e-10 1.0268e-10 3.50772e-12 5e-05 1.46608e-10 
182 1 0.211636 0.0183407 0.00694293 0.00591439 0.000770245 -0.000428099 1.79886e-11 4.64272e-12 -5.70168e-13 5e-05 1.46608e-10 
183 1 0.205417 0.0177546 0.00705078 0.00612804 -0.000646057 0.00032641 1.18117e-11 -1.71621e-10 -2.94653e-12 5e-05 1.46608e-10 
184 1 0.21136 0.0179166 0.00717225 0.00634984 0.000707634 -0.000422172 1.70241e-10 8.15935e-11 -5.33486e-11 5e-05 1.46608e-10 
185 1 0.205565 0.0176228 0.00706767 0.00612966 -0.000619956 0.000321794 2.82167e-11 -3.45252e-11 -1.30043e-11 5e-05 1.46608e-10 
186 1 0.205843 0.0180765 0.00704498 0.00610529 -0.00026805 0.000295867 -2.53574e-10 5.79466e-11 -1.34665e-11 5e-05 1.46608e-10 
187 1 0.211517 0.0182081 0.00698736 0.00583944 0.000808887 -0.00043747 -2.1463e-11 -1.11532e-10 3.41816e-11 5e-05 1.46608e-10 
188 1 0.211413 0.0174036 0.00723692 0.00630205 0.000745757 -0.0004347 3.38856e-11 -2.21741e-10 6.08964e-11 5e-05 1.46608e-10 
189 1 0.211479 0.0184598 0.0069116 0.00591392 0.00076711 -0.000427938 8.75426e-12 5.47557e-11 -1.47889e-11 5e-05 1.46608e-10 
190 1 0.199449 0.0183211 0.0069034 0.00584697 0.000218185 -0.000109455 -3.17405e-11 -1.19149e-10 1.36261e-11 5e-05 1.46608e-10 
191 1 0.211083 0.0166961 0.00749533 0.00587517 0.000758862 -0.000564482 -1.0765e-11 -8.2968e-11 2.64713e-11 5e-05 1.46608e-10 
192 1 0.2053 0.0176255 0.00705949 0.00616367 -0.000730829 3.70917e-05 -4.70415e-11 -2.31221e-10 1.59295e-10 5e-05 1.46608e-10 
193 1 0.211698 0.0181901 0.00698701 0.00584336 0.000797927 -0.00043427 4.948e-11 -4.93821e-13 -2.11816e-12 5e-05 1.46608e-10 
194 1 0.205493 0.0178496 0.00712835 0.00607807 -0.000656043 0.000333732 1.0513e-10 1.18838e-10 -5.97054e-11 5e-05 1.46608e-10 
195 1 0.2056 0.0181782 0.00702614 0.0055861 -0.000617743 0.000299576 5.36502e-10 -3.05638e-10 4.83574e-11 5e-05 1.46608e-10 
196 1 0.205558 0.0179831 0.00703938 0.00607185 -0.000682107 0.000327562 6.16325e-10 3.74268e-11 4.25032e-11 5e-05 1.46608e-10 
197 1 0.199118 0.0168939 0.0074857 0.00612294 0.000277745 7.64575e-05 2.33007e-10 8.93589e-11 4.84962e-11 5e-05 1.46608e-10 
198 1 0.205438 0.0171056 0.0073434 0.00596273 -0.000751861 6.77789e-05 -1.24969e-10 2.06855e-10 -1.29707e-10 5e-05 1.46608e-10 
199 1 0.205342 0.0178201 0.00704234 0.00611001 -0.00068095 0.000333154 5.97421e-11 3.251e-11 -1.8622e-10 5e-05 1.46608e-10 
200 1 0.204775 0.0155521 0.00851979 0.00552899 -0.000360223 0.000496839 -7.34366e-11 -9.0331e-11 1.08283e-10 5e-05 1.46608e-10 
201 1 0.20562 0.0182759 0.00701948 0.005628 -0.000616836 0.000301313 -8.09025e-10 -1.16886e-10 -2.7998e-11 5e-05 1.46608e-10 
202 1 0.205301 0.0169151 0.00746635 0.00581731 -0.00064243 0.000147916 -1.73786e-10 9.99613e-11 -1.68781e-10 5e-05 1.46608e-10 
203 1 0.21144 0.0178193 0.00710885 0.00637276 0.000679073 -0.000415497 2.34751e-11 7.52315e-11 -3.28131e-11 5e-05 1.46608e-10 
204 1 0.205632 0.0179162 0.0070479 0.00606835 -0.000697826 0.000325745 2.84315e-10 -4.85059e-10 5.17771e-11 5e-05 1.46608e-10 
205 1 0.205146 0.016651 0.00765533 0.00543703 -0.000320397 0.000450401 7.15444e-12 -1.13082e-10 1.13878e-11 5e-05 1.46608e-10 
206 1 0.205184 0.016805 0.00753372 0.00546931 -0.000324201 0.000455448 -3.39211e-11 -1.80826e-11 -1.55159e-11 5e-05 1.46608e-10 
207 1 0.205068 0.0163431 0.0078984 0.00539119 -0.000334965 0.000458966 2.87362e-11 -5.83974e-11 4.66789e-11 5e-05 1.46608e-10 
208 1 0.205481 0.0172752 0.00724559 0.00577973 -0.000692829 4.44972e-05 -4.65403e-11 1.5982e-10 -7.22602e-11 5e-05 1.46608e-10 
209 1 0.205406 0.0173351 0.00721637 0.00578189 -0.000694439 4.47044e-05 9.27916e-11 2.51081e-10 -1.56336e-10 5e-05 1.46608e-10 
210 1 0.211173 0.016714 0.00745575 0.00586008 0.000931681 -0.000486103 3.40983e-11 -1.00579e-10 1.98597e-10 5e-05 1.46608e-10 
211 1 0.211196 0.0168074 0.00742642 0.00584778 0.000743342 -0.000415489 -3.74929e-11 6.93283e-11 -1.73535e-12 5e-05 1.46608e-10 
212 1 0.205695 0.0182098 0.00702797 0.00557747 -0.00070107 0.000305745 -4.11693e-10 7.57771e-10 -8.0498e-11 5e-05 1.46608e-10 
213 1 0.21146 0.0183661 0.0069409 0.00587404 0.000795444 -0.000434463 1.76777e-11 7.53078e-11 -1.78995e-11 5e-05 1.46608e-10 
214 1 0.211278 0.0171815 0.00730928 0.00630553 0.000677472 -0.000411735 -5.96995e-11 -4.97359e-11 1.68619e-11 5e-05 1.46608e-10 
215 1 0.199349 0.0178386 0.00698886 0.0057026 0.000197724 -9.05258e-05 -7.93669e-11 -8.50998e-10 4.0981e-10 5e-05 1.46608e-10 
216 1 0.205048 0.0162661 0.00795922 0.00536979 -0.000337942 0.000461433 1.09724e-10 -5.57805e-11 4.46073e-11 5e-05 1.46608e-10 
217 1 0.211717 0.0182838 0.00695772 0.00592446 0.000778253 -0.000430931 -8.72052e-11 -3.53754e-11 1.34349e-11 5e-05 1.46608e-10 
218 1 0.205385 0.018015 0.00702912 0.00607582 -0.000670532 0.000329041 3.80661e-11 2.48855e-10 -2.0126e-11 5e-05 1.46608e-10 
219 1 0.211044 0.0165383 0.00760969 0.00584917 0.000535188 -0.000884164 -6.84082e-11 -2.69623e-10 -3.89516e-10 5e-05 1.46608e-10 
220 1 0.205428 0.01821 0.00701592 0.00603514 -0.000660783 0.000320647 -3.3378e-11 -8.014e-12 -6.24536e-12 5e-05 1.46608e-10 
222 1 0.211594 0.0174988 0.00720192 0.00632197 0.000632541 -0.00039937 2.6927e-11 -4.22491e-12 -1.1509e-12 5e-05 1.46608e-10 
224 1 0.205226 0.0169717 0.00743163 0.0058041 -0.000598143 0.000143097 2.03239e-11 4.22933e-12 -1.09809e-10 5e-05 1.46608e-10 
225 1 0.211122 0.016872 0.00740907 0.00587492 0.000822008 -0.000445731 -1.66923e-10 -2.01639e-10 8.10262e-11 5e-05 1.46608e-10 
226 1 0.205304 0.0176233 0.00715939 0.00616083 -0.00071677 3.39647e-05 -3.22534e-11 -3.64204e-10 3.17272e-10 5e-05 1.46608e-10 
227 1 0.19937 0.017935 0.00697179 0.00571171 0.000235546 -0.000111928 -2.36408e-10 -3.62578e-10 7.26941e-11 5e-05 1.46608e-10 
228 1 0.199307 0.0176482 0.00703282 0.0063819 -7.02426e-05 0.000282154 3.21786e-09 7.84409e-10 2.6604e-09 5e-05 1.46608e-10 
229 1 0.20579 0.0182414 0.00702979 0.00549252 -0.000443622 0.000281854 -1.92801e-10 1.69246e-11 -1.11541e-11 5e-05 1.46608e-10 
230 1 0.205131 0.0169472 0.00745076 0.00591617 -0.000659095 1.78517e-05 -8.50736e-11 -2.69871e-11 1.41723e-11 5e-05 1.46608e-10 
232 1 0.205448 0.0183076 0.00700928 0.00557466 -0.000575518 0.000295241 3.48936e-10 -1.16458e-10 1.80435e-11 5e-05 1.46608e-10 
233 1 0.205606 0.0186338 0.00699105 0.00562417 -0.000557484 0.000296872 -2.11042e-10 -6.72654e-11 -2.6237e-12 5e-05 1.46608e-10 
234 1 0.211321 0.0173681 0.00725078 0.00631344 0.000730362 -0.000429263 -5.39269e-11 -3.31449e-11 3.30433e-11 5e-05 1.46608e-10 
235 1 0.20509 0.016784 0.00755959 0.00545974 -0.000310832 0.000440576 -2.06723e-11 -6.71776e-11 1.72076e-11 5e-05 1.46608e-10 
236 1 0.205194 0.0172013 0.00730418 0.00602408 -0.000643474 2.60716e-06 6.82173e-11 6.72905e-11 -3.46824e-11 5e-05 1.46608e-10 
237 1 0.205215 0.017286 0.00725533 0.0060421 -0.000663667 1.20759e-05 -5.16859e-11 -9.63333e-13 -2.81553e-11 5e-05 1.46608e-10 
239 1 0.199018 0.0164745 0.00773879 0.0056361 0.000359633 7.82271e-06 -1.19928e-12 1.11593e-11 -5.66616e-12 5e-05 1.46608e-10 
240 1 0.199077 0.0167263 0.00758677 0.00561863 0.000362248 5.05065e-06 -3.655e-12 -8.17477e-11 4.64844e-11 5e-05 1.46608e-10 
241 1 0.198998 0.0163906 0.00778947 0.00564045 0.000358995 8.38175e-06 4.03866e-12 7.70637e-12 -4.88049e-12 5e-05 1.46608e-10 
242 1 0.204879 0.0158538 0.00828239 0.0052648 -0.000343765 0.000461878 6.70347e-10 -1.49741e-10 1.30125e-10 5e-05 1.46608e-10 
243 1 0.205537 0.0178856 0.00704598 0.00607854 -0.000695926 0.000325147 1.69563e-10 -3.75384e-12 -1.56193e-11 5e-05 1.46608e-10 
244 1 0.199038 0.0165584 0.00768812 0.00563047 0.000361104 6.65292e-06 9.02499e-12 3.93148e-12 -4.1601e-12 5e-05 1.46608e-10 
246 1 0.199223 0.0173124 0.00723332 0.00622685 0.000259871 9.12724e-05 -3.33281e-11 -6.30005e-11 1.03441e-11 5e-05 1.46608e-10 
247 1 0.205031 0.0165473 0.00773402 0.00542938 -0.000316703 0.000445782 -3.59707e-11 -9.1726e-11 7.25774e-11 5e-05 1.46608e-10 
248 1 0.205353 0.0174806 0.00714026 0.00616881 -0.000666676 0.000224359 1.64115e-10 -1.51134e-10 1.32319e-10 5e-05 1.46608e-10 
249 1 0.19916 0.0170613 0.00738473 0.00616124 0.000278526 7.55198e-05 -1.60828e-10 -2.82328e-10 1.04721e-10 5e-05 1.46608e-10 
250 1 0.205106 0.016497 0.00777684 0.00542295 -0.000320606 0.000448925 -4.88373e-11 -1.04569e-10 8.46339e-11 5e-05 1.46608e-10 
251 1 0.211418 0.0177259 0.00713815 0.00635096 0.000687663 -0.000417541 3.36245e-11 6.20586e-11 -2.07335e-11 5e-05 1.46608e-10 
252 1 0.199244 0.0173962 0.00718281 0.00627703 0.000237066 0.000111814 -2.22835e-10 -4.89359e-10 4.78166e-10 5e-05 1.46608e-10 
253 1 0.199429 0.0182246 0.0069205 0.00582304 0.000221751 -0.000109034 2.44592e-10 1.05915e-10 -1.05409e-11 5e-05 1.46608e-10 
254 1 0.199181 0.017145 0.00733426 0.00624728 0.000274212 8.49952e-05 2.05952e-10 -5.57977e-11 2.80599e-11 5e-05 1.46608e-10 
255 1 0.204638 0.0152364 0.00910062 0.00599063 -0.000399301 0.000408928 5.45908e-11 -9.55127e-12 -3.407e-11 5e-05 1.46608e-10 
256 1 0.205727 0.0179468 0.00704981 0.00607008 -0.000691572 0.000326773 4.99279e-10 -3.99646e-10 4.89707e-11 5e-05 1.46608e-10 
257 1 0.20526 0.0167539 0.00757721 0.00546913 -0.000342293 0.000469961 3.01098e-11 8.50242e-11 -7.19024e-11 5e-05 1.46608e-10 
258 1 0.205332 0.0173953 0.00718772 0.00609883 -0.000698806 0.000105093 6.5766e-11 -1.44962e-10 2.64964e-11 5e-05 1.46608e-10 
259 1 0.199265 0.0174799 0.00713232 0.00633438 0.000177718 0.000157944 -9.61839e-10 -1.94975e-09 7.25987e-10 5e-05 1.46608e-10 