ITEM: TIMESTEP
48600000
ITEM: NUMBER OF ATOMS
275
ITEM: BOX BOUNDS ff ff ff
-0.02 0.43
-0.02 0.06
-0.02 0.07
ITEM: ATOMS id type x y z vx vy vz fx fy fz radius mass 
1 1 0.296669 0.0183271 0.00693065 0.00573587 0.000354717 9.49452e-05 -1.56503e-10 -8.93327e-11 2.15222e-11 5e-05 1.46608e-10 
2 1 0.296333 0.0171923 0.00730769 0.00630145 1.3658e-05 -0.000580136 8.77306e-11 2.58501e-11 -7.33664e-11 5e-05 1.46608e-10 
4 1 0.296484 0.0170906 0.00739029 0.00624313 -6.73839e-05 -0.000497914 -1.2817e-10 6.14959e-11 -1.14078e-10 5e-05 1.46608e-10 
5 1 0.295858 0.0155741 0.00884332 0.0068811 0.000125112 -0.000298175 -2.61715e-09 3.02032e-10 8.27882e-10 5e-05 1.46608e-10 
6 1 0.302225 0.0167489 0.00748215 0.00626627 0.000132226 7.45812e-05 2.26493e-12 -1.57433e-12 4.87695e-13 5e-05 1.46608e-10 
7 1 0.296619 0.0176927 0.00708768 0.00581986 0.000324879 0.000103058 -9.00147e-11 1.43686e-10 -9.34192e-11 5e-05 1.46608e-10 
8 1 0.296327 0.0168616 0.0076212 0.00610047 3.38363e-05 -0.000581885 2.38666e-12 -8.6976e-11 3.90999e-11 5e-05 1.46608e-10 
9 1 0.302435 0.0176308 0.00706061 0.00579121 0.000114653 -0.0001811 5.06811e-11 -4.1424e-11 2.44179e-11 5e-05 1.46608e-10 
10 1 0.296012 0.0160056 0.00845943 0.00552093 0.000327802 -0.000401053 2.40406e-10 -2.23486e-10 2.00036e-10 5e-05 1.46608e-10 
11 1 0.296578 0.0180168 0.00709247 0.00585143 0.000329329 0.000141931 7.74855e-11 -1.78945e-10 -9.56651e-11 5e-05 1.46608e-10 
12 1 0.290521 0.0169584 0.00760624 0.00589814 -0.000197054 0.00128653 -2.29388e-11 -4.59229e-11 2.12092e-11 5e-05 1.46608e-10 
13 1 0.295836 0.015501 0.0089082 0.00617674 0.00025711 -0.000366008 -6.9312e-10 8.56239e-10 -3.55627e-10 5e-05 1.46608e-10 
14 1 0.290504 0.0175532 0.00719859 0.00568 -1.63703e-05 0.00111946 -1.9548e-10 9.00576e-11 -4.22375e-11 5e-05 1.46608e-10 
16 1 0.290696 0.0180114 0.00695206 0.00518304 -0.000649319 9.37836e-07 -2.6426e-10 -1.07215e-10 1.53799e-10 5e-05 1.46608e-10 
17 1 0.295969 0.0159393 0.00852071 0.0056022 0.000271457 -0.000376561 -3.16324e-10 -2.38383e-10 1.626e-10 5e-05 1.46608e-10 
19 1 0.295817 0.0154277 0.00897332 0.00599353 0.000178674 -0.00029742 -4.93736e-11 7.26584e-10 -6.46321e-10 5e-05 1.46608e-10 
21 1 0.296666 0.0178818 0.0070419 0.00586393 0.000331686 0.000109864 -3.54464e-11 8.9271e-11 6.2943e-11 5e-05 1.46608e-10 
22 1 0.29632 0.0167172 0.0077586 0.00599264 3.86705e-05 -0.000577131 -1.96171e-10 6.02315e-11 3.21399e-11 5e-05 1.46608e-10 
23 1 0.29073 0.0177893 0.00707196 0.00561128 -0.000586992 0.000274823 6.30679e-10 2.71024e-11 -4.10465e-11 5e-05 1.46608e-10 
24 1 0.302356 0.0172824 0.00724037 0.00627201 0.000123967 8.98348e-05 2.95702e-10 1.61669e-11 2.16409e-10 5e-05 1.46608e-10 
25 1 0.296029 0.0161491 0.00832336 0.0056335 0.000179145 -0.000568562 -2.38152e-10 1.10008e-11 1.06712e-10 5e-05 1.46608e-10 
26 1 0.302397 0.0174566 0.00715141 0.00568065 0.000128054 -0.000187667 1.07079e-10 7.02595e-11 -4.49312e-11 5e-05 1.46608e-10 
27 1 0.290332 0.0168911 0.00761493 0.00588728 -0.000207524 0.00129101 -1.43145e-10 1.28405e-10 -1.28773e-10 5e-05 1.46608e-10 
28 1 0.29641 0.0171425 0.00734786 0.00626744 -1.41482e-05 -0.000551882 -3.30872e-11 -3.02334e-11 -5.46987e-11 5e-05 1.46608e-10 
29 1 0.295797 0.0153543 0.00903845 0.00593268 6.94266e-05 -0.000180542 5.83894e-10 -3.07487e-10 2.17129e-10 5e-05 1.46608e-10 
30 1 0.296114 0.0164285 0.0080504 0.00578945 7.77677e-05 -0.000593586 3.45078e-10 -1.68411e-10 1.01422e-10 5e-05 1.46608e-10 
31 1 0.296698 0.0176291 0.00710611 0.00579646 0.000348545 9.8706e-05 3.50388e-10 -1.34399e-10 4.23141e-11 5e-05 1.46608e-10 
32 1 0.296052 0.0162186 0.00825525 0.0057189 8.67722e-05 -0.000626006 3.40716e-10 7.2263e-11 7.37369e-11 5e-05 1.46608e-10 
33 1 0.302247 0.0168379 0.00744185 0.00626981 0.000131372 7.50234e-05 1.68571e-12 -4.88198e-12 2.8548e-12 5e-05 1.46608e-10 
34 1 0.295949 0.0158651 0.00858463 0.00592167 0.000218768 -0.000312569 -6.40327e-10 -2.01342e-10 2.29891e-10 5e-05 1.46608e-10 
35 1 0.296583 0.0175014 0.00713437 0.00576481 0.000350187 9.74524e-05 -4.78878e-11 9.38898e-11 -1.81874e-11 5e-05 1.46608e-10 
36 1 0.302494 0.0179086 0.00697075 0.0058987 0.000156166 5.76036e-05 -9.81788e-12 1.46537e-11 -6.06051e-12 5e-05 1.46608e-10 
37 1 0.296464 0.0170204 0.00745858 0.00617776 -5.67191e-05 -0.00050028 -2.58726e-10 1.12349e-10 -9.76612e-11 5e-05 1.46608e-10 
38 1 0.296544 0.0173217 0.00721112 0.00613098 0.000218777 -0.000122993 3.03079e-10 5.3543e-11 2.19664e-11 5e-05 1.46608e-10 
39 1 0.302378 0.0173697 0.00719673 0.00630517 2.82705e-05 -0.000153841 -3.56614e-10 2.58758e-11 -3.26133e-10 5e-05 1.46608e-10 
41 1 0.295905 0.0157193 0.00871419 0.00639793 0.000133825 -0.000259058 2.77023e-11 5.10255e-10 -4.35083e-10 5e-05 1.46608e-10 
42 1 0.296584 0.0171133 0.00735987 0.00627739 -9.6702e-05 -0.000474697 2.86e-11 -1.82874e-10 1.05241e-10 5e-05 1.46608e-10 
44 1 0.29664 0.0173426 0.00717589 0.00583014 0.000386859 8.96462e-05 4.61858e-13 -2.09146e-10 2.06607e-11 5e-05 1.46608e-10 
45 1 0.302269 0.0169268 0.00740155 0.00627324 0.000130074 7.5826e-05 -1.02529e-11 5.97146e-12 -1.22231e-12 5e-05 1.46608e-10 
47 1 0.295928 0.0157921 0.00864955 0.00638078 0.000130933 -0.000252228 -6.34511e-11 1.83819e-11 7.2117e-13 5e-05 1.46608e-10 
48 1 0.296534 0.018102 0.0069826 0.00568627 0.000389482 8.76708e-05 -8.92378e-11 1.02744e-10 -3.31004e-11 5e-05 1.46608e-10 
49 1 0.302453 0.0177179 0.00701519 0.00584186 0.000106216 -0.000178162 1.14575e-11 -1.85198e-11 -7.30552e-12 5e-05 1.46608e-10 
50 1 0.29607 0.0162889 0.00818657 0.00574331 8.7634e-05 -0.000606472 -3.15701e-10 1.17497e-10 -4.26264e-11 5e-05 1.46608e-10 
51 1 0.296722 0.0177235 0.00708328 0.00583603 0.000334355 0.000102542 4.8617e-11 -1.42447e-10 4.45026e-11 5e-05 1.46608e-10 
52 1 0.290588 0.0172096 0.00744871 0.00624199 6.11156e-05 0.00117807 2.15013e-10 -3.90428e-10 2.97559e-10 5e-05 1.46608e-10 
53 1 0.302312 0.0171046 0.00732096 0.00627882 0.000133351 7.3462e-05 2.23341e-11 2.66765e-12 -1.38978e-11 5e-05 1.46608e-10 
54 1 0.296875 0.0180416 0.00700866 0.00571672 0.000313318 0.000105547 1.93334e-11 1.26437e-10 -5.39356e-11 5e-05 1.46608e-10 
55 1 0.290514 0.0172569 0.00740194 0.00615749 -8.52291e-06 0.00121076 4.34309e-10 -9.37616e-12 9.8884e-11 5e-05 1.46608e-10 
56 1 0.296856 0.0179462 0.00703189 0.00569116 0.000324298 0.000101872 1.05951e-10 1.35458e-10 -2.18372e-11 5e-05 1.46608e-10 
57 1 0.302291 0.0170157 0.00736126 0.00627542 0.00013042 7.59277e-05 -1.38065e-11 3.8132e-11 -2.32879e-11 5e-05 1.46608e-10 
59 1 0.378022 0.019866 0.005332 -5.01973e-15 -7.41207e-15 7.69802e-14 8.10379e-24 2.42984e-24 8.27181e-25 5e-05 1.46608e-10 
60 1 0.296658 0.0174381 0.0071526 0.00579055 0.000385536 9.05905e-05 -1.21451e-10 -6.66166e-11 2.59283e-11 5e-05 1.46608e-10 
61 1 0.295881 0.0156467 0.00877879 0.00636426 0.000195234 -0.000307481 9.31122e-10 9.44626e-10 -7.5616e-10 5e-05 1.46608e-10 
62 1 0.296563 0.0174043 0.00715801 0.00584092 0.000440609 8.49117e-05 3.43691e-10 1.81026e-10 1.84184e-11 5e-05 1.46608e-10 
63 1 0.296627 0.0183068 0.00701897 0.00574014 0.000343793 9.33937e-05 -1.09947e-10 1.63082e-10 1.08614e-10 5e-05 1.46608e-10 
64 1 0.302334 0.0171935 0.00728066 0.00628194 0.000130189 7.30173e-05 -8.19911e-11 -1.02712e-10 8.31519e-11 5e-05 1.46608e-10 
65 1 0.290559 0.0174229 0.00729787 0.00566238 -4.73778e-05 0.00113831 1.26879e-10 1.82002e-10 -7.25519e-11 5e-05 1.46608e-10 
66 1 0.290723 0.0178859 0.0071001 0.00546819 -0.000406694 0.00027402 1.1921e-09 2.92848e-10 2.53217e-10 5e-05 1.46608e-10 
67 1 0.296686 0.0179773 0.00701868 0.00567799 0.000372202 9.84451e-05 7.62406e-11 6.08056e-11 -2.78723e-11 5e-05 1.46608e-10 
68 1 0.296467 0.0173738 0.00716255 0.00611346 0.000745555 1.20385e-05 -8.26281e-11 -3.79329e-12 -3.4084e-11 5e-05 1.46608e-10 
69 1 0.296762 0.017914 0.0070369 0.0056728 0.000362008 9.63316e-05 6.08591e-11 -8.67954e-12 1.1862e-11 5e-05 1.46608e-10 
70 1 0.302416 0.0175437 0.007106 0.00574132 0.000119719 -0.000182436 -2.3259e-11 -2.09318e-11 1.95183e-12 5e-05 1.46608e-10 
71 1 0.29086 0.0179715 0.00695079 0.00524213 -0.000703245 9.49318e-05 -6.55789e-10 1.44183e-10 3.07266e-11 5e-05 1.46608e-10 
72 1 0.296745 0.0182643 0.00694879 0.00572736 0.000350501 9.56488e-05 -1.12057e-10 3.15518e-11 -9.68087e-12 5e-05 1.46608e-10 
73 1 0.296008 0.0160787 0.0083914 0.00557188 0.000260377 -0.000486565 -8.08793e-11 -1.78414e-10 1.7424e-10 5e-05 1.46608e-10 
74 1 0.29609 0.0163596 0.00811872 0.00575748 8.6844e-05 -0.0005999 -1.40353e-10 -5.38222e-11 2.57653e-11 5e-05 1.46608e-10 
76 1 0.290448 0.0170073 0.00755866 0.00590215 -0.000188068 0.00128191 1.2416e-10 -4.52019e-11 4.86342e-11 5e-05 1.46608e-10 
77 1 0.296353 0.017265 0.00724225 0.00632532 -5.7491e-06 -0.000597555 5.47715e-11 -9.66226e-11 -2.18805e-10 5e-05 1.46608e-10 
78 1 0.289893 0.015638 0.00867456 0.00530996 -0.00101419 0.000399719 1.08866e-10 -5.68991e-11 2.51038e-10 5e-05 1.46608e-10 
79 1 0.290759 0.0183106 0.00697365 0.00548987 -0.000734118 0.000142359 -7.7034e-11 1.41849e-10 7.94548e-11 5e-05 1.46608e-10 
80 1 0.29643 0.0172132 0.0072791 0.00627812 -3.86481e-05 -0.000515949 2.60559e-10 7.43524e-11 1.36552e-10 5e-05 1.46608e-10 
82 1 0.290625 0.0179035 0.00710409 0.00559616 -0.000116245 0.000893855 9.6358e-11 -2.12079e-10 3.77856e-10 5e-05 1.46608e-10 
83 1 0.290543 0.0170417 0.00755391 0.00590469 -0.000197835 0.00128899 6.15956e-11 -1.6046e-10 1.23261e-10 5e-05 1.46608e-10 
84 1 0.302474 0.0178125 0.00698966 0.00587995 0.000160834 5.59635e-05 -1.36351e-11 1.19671e-11 6.78162e-12 5e-05 1.46608e-10 
85 1 0.290904 0.0181732 0.00696834 0.00541824 -0.000631522 0.000113037 3.6546e-10 -2.45013e-10 -1.83083e-10 5e-05 1.46608e-10 
86 1 0.296623 0.0172639 0.00723521 0.0060787 0.000138027 -0.000181316 -2.25296e-10 -2.01526e-10 1.03272e-10 5e-05 1.46608e-10 
87 1 0.296389 0.017072 0.00741643 0.00621655 -2.20368e-05 -0.000543901 -5.25799e-11 1.10838e-10 -1.13099e-10 5e-05 1.46608e-10 
88 1 0.296527 0.0176669 0.00711505 0.00580456 0.000347714 7.76419e-05 -1.18431e-10 9.02784e-11 3.11895e-10 5e-05 1.46608e-10 
89 1 0.296668 0.0180587 0.00708653 0.00580864 0.000420068 0.00014963 -1.9373e-10 4.10182e-12 -2.65414e-10 5e-05 1.46608e-10 
90 1 0.296706 0.0180736 0.00699524 0.00569818 0.000348779 9.12688e-05 -1.78919e-11 7.46904e-11 -1.03325e-10 5e-05 1.46608e-10 
91 1 0.290499 0.0168756 0.0076582 0.00588931 -0.000203434 0.00128919 3.24733e-11 -2.17269e-11 1.92636e-11 5e-05 1.46608e-10 
92 1 0.296454 0.0177223 0.00707497 0.00583394 0.000364459 8.99903e-05 -5.20631e-11 -1.05623e-10 7.11473e-12 5e-05 1.46608e-10 
93 1 0.296173 0.0166394 0.00784544 0.00593926 5.03562e-05 -0.000583419 3.22565e-10 -1.03671e-10 7.93181e-11 5e-05 1.46608e-10 
94 1 0.296589 0.0181159 0.00706541 0.00571614 0.000347756 8.57592e-05 6.11416e-11 1.40833e-10 -8.78889e-11 5e-05 1.46608e-10 
95 1 0.296459 0.0177409 0.00717306 0.00584869 0.000335117 9.37184e-05 1.34483e-11 -1.2983e-10 3.07431e-11 5e-05 1.46608e-10 
96 1 0.296434 0.0176271 0.00709815 0.00579212 0.000376988 7.93594e-05 8.83675e-11 -9.7626e-11 7.29355e-11 5e-05 1.46608e-10 
97 1 0.290078 0.0159015 0.00823801 0.0054185 -0.000244301 0.00122697 -1.28387e-10 -4.80588e-11 -5.59495e-11 5e-05 1.46608e-10 
98 1 0.296151 0.0165698 0.00791385 0.00590053 6.18372e-05 -0.000591468 -8.4011e-11 4.54825e-11 5.17127e-11 5e-05 1.46608e-10 
99 1 0.290482 0.0178509 0.00699196 0.00584293 -9.53369e-05 0.00120657 1.48967e-11 8.68159e-11 -5.67421e-11 5e-05 1.46608e-10 
100 1 0.296645 0.0177867 0.00706502 0.00585147 0.000327943 0.000105607 -8.26612e-11 1.29187e-10 -9.83754e-11 5e-05 1.46608e-10 
101 1 0.290501 0.017943 0.00695784 0.00558513 -0.000191987 0.000895212 -4.28361e-10 1.05274e-10 -9.91193e-10 5e-05 1.46608e-10 
102 1 0.0643568 0.0187248 0.00531097 4.15575e-15 1.05425e-14 8.29602e-14 -8.5524e-22 6.28787e-22 -4.19794e-23 5e-05 1.46608e-10 
103 1 0.24257 0.0191927 0.00520306 9.7161e-23 -1.27651e-22 1.23839e-22 0 0 0 5e-05 1.46608e-10 
104 1 0.29079 0.0180432 0.00695457 0.00518196 -0.000678257 9.14329e-05 -3.78097e-10 1.80156e-10 1.78282e-10 5e-05 1.46608e-10 
105 1 0.290051 0.0158196 0.00828833 0.00533431 -0.000220353 0.00118451 1.73952e-10 -3.6818e-12 -4.31471e-11 5e-05 1.46608e-10 
106 1 0.290562 0.0178319 0.00713514 0.00567498 -8.97606e-05 0.00113443 -5.14214e-10 -3.63125e-10 7.28034e-10 5e-05 1.46608e-10 
107 1 0.289909 0.0156668 0.00858024 0.00519611 -0.000993948 0.000397091 2.97001e-10 -1.18199e-10 2.26059e-10 5e-05 1.46608e-10 
108 1 0.296781 0.0180094 0.00701366 0.00570264 0.000348536 9.34459e-05 7.19017e-11 1.88423e-10 -3.24045e-11 5e-05 1.46608e-10 
109 1 0.296836 0.0178502 0.00705526 0.00579675 0.000509205 5.80233e-05 -1.03868e-10 -4.06335e-10 1.23205e-10 5e-05 1.46608e-10 
110 1 0.296313 0.0171221 0.00737599 0.00625354 1.54755e-05 -0.000581572 1.02769e-10 9.51188e-11 -2.23888e-11 5e-05 1.46608e-10 
111 1 0.296272 0.0169818 0.00751255 0.0061401 2.0622e-05 -0.000585693 -7.47872e-11 -3.93603e-11 -8.20607e-11 5e-05 1.46608e-10 
112 1 0.289964 0.01582 0.00833897 0.00531312 -0.000386637 0.00110608 1.89014e-11 3.82351e-11 -2.31518e-10 5e-05 1.46608e-10 
113 1 0.290409 0.0175218 0.00720885 0.00570283 -6.6316e-05 0.00114585 -7.48276e-11 1.72486e-11 -3.65982e-11 5e-05 1.46608e-10 
114 1 0.290445 0.0176848 0.00709885 0.0057395 -0.000100004 0.00117616 -5.53657e-10 -5.15632e-10 3.83765e-10 5e-05 1.46608e-10 
115 1 0.296605 0.0171834 0.00729163 0.0062796 -0.000101656 -0.000467752 -2.69142e-10 -1.11701e-10 2.08392e-10 5e-05 1.46608e-10 
116 1 0.29661 0.0180399 0.00700059 0.00568871 0.00038611 8.6314e-05 2.15759e-10 3.33419e-10 -6.19956e-11 5e-05 1.46608e-10 
117 1 0.296599 0.0175977 0.00711079 0.00577313 0.00032716 9.86604e-05 4.12812e-11 1.43935e-10 -4.25414e-11 5e-05 1.46608e-10 
118 1 0.290634 0.0173766 0.00734414 0.00557926 -7.928e-05 0.00114421 -7.20057e-10 5.69966e-10 -5.33555e-10 5e-05 1.46608e-10 
119 1 0.296801 0.0181057 0.00699024 0.00571681 0.000322723 0.000104331 -2.94259e-11 7.36884e-11 -2.85101e-11 5e-05 1.46608e-10 
120 1 0.296316 0.0167899 0.00769005 0.0060365 4.04156e-05 -0.00058261 -1.255e-10 -3.1975e-11 5.48579e-11 5e-05 1.46608e-10 
121 1 0.296611 0.0184834 0.00688971 0.00579459 0.000370035 9.30351e-05 -9.08148e-11 -1.78339e-10 3.62706e-11 5e-05 1.46608e-10 
122 1 0.296413 0.017532 0.00712126 0.0056283 0.000417576 7.28783e-05 2.31736e-10 -1.54658e-10 1.6182e-11 5e-05 1.46608e-10 
123 1 0.290885 0.0180753 0.00695989 0.00523429 -0.000796251 7.72331e-05 3.12541e-11 8.85037e-11 6.68948e-11 5e-05 1.46608e-10 
124 1 0.296225 0.0167025 0.00778811 0.00597131 3.16149e-05 -0.000572588 -6.51097e-11 -1.31194e-10 2.75746e-11 5e-05 1.46608e-10 
125 1 0.296506 0.017568 0.0071339 0.00576993 0.000343428 6.79425e-05 9.78063e-11 -6.36173e-11 9.76887e-11 5e-05 1.46608e-10 
127 1 0.290102 0.0159909 0.00820001 0.0055148 -0.000249182 0.00127526 -3.66798e-10 -1.07028e-10 4.58561e-11 5e-05 1.46608e-10 
128 1 0.296135 0.0164986 0.00798216 0.00583986 6.83448e-05 -0.000590475 -4.51391e-10 6.24897e-11 2.9815e-11 5e-05 1.46608e-10 
129 1 0.296548 0.0179226 0.00711228 0.00587819 0.000308092 8.97533e-05 7.14321e-11 8.11251e-11 -1.31933e-10 5e-05 1.46608e-10 
130 1 0.290541 0.0177191 0.00709313 0.00567766 -4.65877e-05 0.00114544 -4.84331e-10 1.47287e-10 1.2788e-10 5e-05 1.46608e-10 
131 1 0.290557 0.0178021 0.00703983 0.00567613 -6.12385e-05 0.00112855 -3.83811e-10 2.97899e-10 2.01638e-10 5e-05 1.46608e-10 
132 1 0.296504 0.0171608 0.00732204 0.00629 -7.26411e-05 -0.000502746 5.218e-11 3.14138e-12 -3.57719e-11 5e-05 1.46608e-10 
133 1 0.296631 0.0181364 0.0069771 0.00569952 0.000367928 9.05448e-05 -1.20522e-10 -3.15415e-11 -2.95133e-11 5e-05 1.46608e-10 
134 1 0.29659 0.017944 0.0070239 0.00588671 0.000349268 0.000101355 -1.19611e-10 8.66521e-11 -6.25544e-11 5e-05 1.46608e-10 
135 1 0.296741 0.0178189 0.00706005 0.00584794 0.000327939 0.000105484 -2.1908e-10 -1.20577e-11 5.30863e-11 5e-05 1.46608e-10 
136 1 0.290492 0.0171739 0.0074541 0.00610551 -4.2383e-05 0.00122207 3.47966e-10 2.08744e-11 4.99059e-11 5e-05 1.46608e-10 
137 1 0.296485 0.017843 0.00714783 0.00586313 0.000347436 0.000100628 -3.87931e-12 -3.19159e-11 -6.7352e-11 5e-05 1.46608e-10 
138 1 0.296494 0.0179126 0.00702869 0.00587863 0.000355181 9.72002e-05 -5.26588e-11 -1.03864e-11 -1.51312e-11 5e-05 1.46608e-10 
140 1 0.296375 0.0173495 0.0071933 0.00609689 0.000123121 -0.000482539 -9.40472e-11 -1.56685e-10 -2.75952e-10 5e-05 1.46608e-10 
141 1 0.290318 0.0165113 0.00787053 0.00581025 -0.000288953 0.00133181 7.07323e-10 1.23806e-10 5.32067e-11 5e-05 1.46608e-10 
142 1 0.29071 0.0177084 0.00713351 0.00541197 3.73349e-05 0.00103488 -9.94483e-11 4.4944e-10 -3.30976e-10 5e-05 1.46608e-10 
143 1 0.289926 0.0156955 0.00848596 0.00526757 -0.00101923 0.000419339 -2.96519e-10 -1.92683e-10 8.42775e-11 5e-05 1.46608e-10 
144 1 0.290673 0.0175424 0.00723898 0.00566152 2.58164e-05 0.00108833 -1.17124e-10 3.81084e-10 -2.52645e-10 5e-05 1.46608e-10 
146 1 0.290003 0.0159488 0.00819127 0.00540929 -0.000160275 0.00116798 -1.77298e-11 -4.28428e-11 -9.83213e-11 5e-05 1.46608e-10 
147 1 0.290522 0.0176361 0.00714588 0.00565922 -2.51834e-05 0.00112665 -6.79092e-10 -1.00332e-10 1.41156e-11 5e-05 1.46608e-10 
148 1 0.29034 0.0165939 0.00781856 0.00581788 -0.000276523 0.00132524 4.29963e-10 4.34432e-11 5.36656e-11 5e-05 1.46608e-10 
149 1 0.296231 0.0168418 0.00764952 0.00606328 3.38516e-05 -0.000573285 1.77992e-10 -4.48741e-11 5.52136e-11 5e-05 1.46608e-10 
150 1 0.290621 0.0185317 0.00698475 0.00527583 -0.000900907 0.000124472 8.8714e-12 6.68717e-11 1.88074e-11 5e-05 1.46608e-10 
151 1 0.290638 0.0181729 0.00695929 0.00543862 -0.000695212 0.000153038 -1.88461e-10 -4.35402e-10 1.61995e-10 5e-05 1.46608e-10 
153 1 0.290361 0.0166766 0.00776658 0.00580873 -0.000251269 0.00130577 -1.22826e-11 1.28613e-10 -8.68448e-11 5e-05 1.46608e-10 
154 1 0.289984 0.0158927 0.00827178 0.0053567 -0.000185782 0.0011507 -4.32346e-10 -1.90849e-10 -2.79386e-10 5e-05 1.46608e-10 
155 1 0.290022 0.0160377 0.0081496 0.00555192 -0.000203003 0.00122606 1.65756e-10 -1.20187e-10 -3.21328e-11 5e-05 1.46608e-10 
156 1 0.290296 0.0164283 0.00792266 0.0057155 -0.000238086 0.00127927 -1.14539e-10 -2.3473e-10 1.32993e-10 5e-05 1.46608e-10 
157 1 0.0219312 0.0187687 0.00551176 -3.83708e-14 8.1638e-14 2.9589e-13 -3.0647e-22 2.60717e-22 -1.08981e-22 5e-05 1.46608e-10 
158 1 0.290404 0.016842 0.00766258 0.00586508 -0.000226431 0.00130081 -2.53888e-10 -6.52343e-11 -5.71713e-12 5e-05 1.46608e-10 
159 1 0.296526 0.0172368 0.00726078 0.00630492 -1.7932e-05 -0.000439559 1.70182e-10 1.69667e-11 -8.89133e-11 5e-05 1.46608e-10 
160 1 0.290521 0.0180402 0.00694569 0.0055864 -0.000278269 0.000268666 -3.13434e-10 -4.02095e-10 2.81666e-10 5e-05 1.46608e-10 
162 1 0.290664 0.018081 0.00703901 0.00548287 -0.000661251 0.000133926 3.59666e-10 1.25687e-10 -9.95837e-10 5e-05 1.46608e-10 
164 1 0.290086 0.0162785 0.0079833 0.00572504 -0.000244083 0.00128185 3.57445e-10 -3.45184e-10 3.17305e-10 5e-05 1.46608e-10 
165 1 0.290735 0.0182071 0.00696525 0.00545419 -0.000733079 0.000151104 8.18602e-12 3.48255e-10 -1.36762e-10 5e-05 1.46608e-10 
166 1 0.296515 0.0180095 0.00701523 0.00589341 0.000355383 0.000101336 -6.9399e-11 1.95763e-11 -2.3916e-11 5e-05 1.46608e-10 
167 1 0.290581 0.0183354 0.00696907 0.00547081 -0.000750764 0.000144569 1.11016e-11 1.93642e-10 6.8069e-11 5e-05 1.46608e-10 
168 1 0.290697 0.0184663 0.00698272 0.00539815 -0.000747854 0.000139795 -1.58707e-10 3.98668e-11 -1.55595e-11 5e-05 1.46608e-10 
169 1 0.290601 0.0184331 0.00697688 0.00547556 -0.00074518 0.000143704 -5.38464e-11 1.31241e-10 -1.90086e-11 5e-05 1.46608e-10 
170 1 0.290678 0.0183685 0.00697493 0.00547936 -0.000752788 0.000144365 -7.4046e-11 1.42902e-10 3.72766e-11 5e-05 1.46608e-10 
171 1 0.296689 0.0184224 0.00690746 0.00562462 0.000372671 8.70928e-05 -1.27634e-10 -1.0626e-10 2.13938e-11 5e-05 1.46608e-10 
172 1 0.290388 0.0174361 0.00725555 0.00603629 -8.54321e-05 0.00124607 1.3511e-10 2.84224e-10 -1.63744e-10 5e-05 1.46608e-10 
173 1 0.296726 0.0181689 0.00697201 0.00572647 0.000345746 9.742e-05 -5.76979e-11 4.9977e-11 -1.06736e-11 5e-05 1.46608e-10 
174 1 0.290129 0.0164439 0.00787935 0.00577534 -0.000250608 0.00129954 -3.63319e-10 -1.50666e-10 6.99835e-11 5e-05 1.46608e-10 
176 1 0.29044 0.0173048 0.00735491 0.00606631 -7.78747e-05 0.00123896 3.25164e-10 1.14848e-10 -7.10621e-12 5e-05 1.46608e-10 
177 1 0.290117 0.016065 0.00813462 0.0056598 -0.000261348 0.00128909 3.12678e-10 -1.73178e-10 2.19001e-10 5e-05 1.46608e-10 
178 1 0.290478 0.017779 0.0071435 0.00580916 -6.03541e-05 0.00116811 1.2049e-10 5.75976e-10 7.25149e-10 5e-05 1.46608e-10 
179 1 0.290584 0.018155 0.00704175 0.00539198 8.70193e-05 0.000323659 -6.60515e-10 -1.50757e-10 3.93575e-10 5e-05 1.46608e-10 
182 1 0.296631 0.0185824 0.00687537 0.0056419 0.000316501 -0.000201426 3.41683e-11 -2.4982e-11 2.92056e-10 5e-05 1.46608e-10 
183 1 0.290545 0.0179591 0.0070463 0.00547192 3.81886e-05 0.0010045 -8.99438e-10 -2.20271e-10 2.56265e-10 5e-05 1.46608e-10 
184 1 0.296608 0.0182113 0.00704219 0.0057201 0.000344175 8.17727e-05 2.45528e-11 -2.59222e-11 -1.38706e-11 5e-05 1.46608e-10 
185 1 0.290691 0.0176253 0.00718626 0.00549867 6.0912e-05 0.00100239 2.12266e-10 -4.02865e-10 -1.35127e-10 5e-05 1.46608e-10 
186 1 0.290979 0.0181074 0.00696521 0.00515242 -0.000736162 8.73469e-05 4.93326e-10 4.90294e-12 -3.91929e-12 5e-05 1.46608e-10 
187 1 0.29665 0.0182317 0.00695388 0.00573218 0.000363651 9.31933e-05 -1.05421e-11 5.3022e-11 -2.47592e-11 5e-05 1.46608e-10 
188 1 0.296489 0.0174706 0.00714867 0.00574631 0.000342542 3.59553e-05 7.86381e-11 -1.1315e-10 2.28048e-11 5e-05 1.46608e-10 
189 1 0.296592 0.018388 0.00691294 0.00575551 0.000369768 9.22152e-05 -1.76089e-11 -5.6463e-12 9.44662e-12 5e-05 1.46608e-10 
190 1 0.284565 0.018256 0.0069904 0.00559633 -0.000112075 0.000246767 2.80284e-11 -9.34167e-11 -1.06264e-11 5e-05 1.46608e-10 
191 1 0.296251 0.0169117 0.00758071 0.00610026 2.77431e-05 -0.000577899 9.96697e-11 7.09169e-12 -9.83347e-12 5e-05 1.46608e-10 
192 1 0.290427 0.0176014 0.00715087 0.00568845 -7.3588e-05 0.00115695 -5.03327e-10 -2.87877e-10 4.50775e-11 5e-05 1.46608e-10 
193 1 0.296707 0.0185179 0.00688416 0.00564299 0.000364732 8.77508e-05 -1.27571e-10 -4.16379e-11 2.19084e-11 5e-05 1.46608e-10 
194 1 0.290643 0.0179836 0.00704708 0.00541874 -0.000624887 0.000180914 7.86188e-10 5.29924e-10 1.00803e-09 5e-05 1.46608e-10 
195 1 0.290617 0.0180729 0.00695128 0.00545548 -0.000456521 0.000140393 -4.64849e-10 -7.49137e-10 -1.90677e-10 5e-05 1.46608e-10 
196 1 0.290651 0.0178373 0.00703396 0.00556858 -0.000131233 0.000964907 -5.83197e-10 -3.04619e-10 -6.30417e-11 5e-05 1.46608e-10 
197 1 0.284245 0.0168864 0.00760244 0.0060017 0.000113239 0.000707724 6.30215e-10 1.88577e-10 4.31815e-11 5e-05 1.46608e-10 
198 1 0.290566 0.017126 0.00750112 0.00616463 2.77116e-06 0.00120353 1.53832e-10 -3.32397e-10 2.51846e-10 5e-05 1.46608e-10 
199 1 0.290565 0.0180569 0.00704042 0.00522148 9.6157e-05 0.000658006 1.11221e-10 -6.1209e-10 -5.76917e-11 5e-05 1.46608e-10 
200 1 0.289945 0.0157435 0.00840026 0.00533044 -0.000772108 0.000591419 -3.91803e-10 -2.11628e-10 -1.1181e-10 5e-05 1.46608e-10 
201 1 0.290715 0.0181093 0.00695745 0.0054001 -0.00071065 0.000147985 8.52549e-11 -5.68467e-11 -9.72945e-12 5e-05 1.46608e-10 
202 1 0.290426 0.0169247 0.00761059 0.00589859 -0.000193718 0.00128441 -4.57004e-11 -1.00241e-10 6.5334e-11 5e-05 1.46608e-10 
203 1 0.296569 0.0178489 0.00704702 0.00587027 0.000350171 9.86807e-05 -4.34827e-11 1.6186e-10 -6.16085e-11 5e-05 1.46608e-10 
204 1 0.290752 0.0178624 0.00700722 0.00524115 -0.000509955 0.00022937 -5.03487e-10 6.46311e-11 -2.71941e-10 5e-05 1.46608e-10 
205 1 0.290267 0.0166431 0.00777089 0.00583098 -0.000258732 0.00131395 2.19756e-10 1.29893e-10 -1.86283e-11 5e-05 1.46608e-10 
206 1 0.29031 0.0168085 0.00766695 0.00585763 -0.000223271 0.0012969 -2.36077e-10 1.13078e-10 -1.18153e-10 5e-05 1.46608e-10 
207 1 0.290181 0.016313 0.0079785 0.00571273 -0.000253223 0.00128887 -4.4548e-10 2.88543e-11 -1.83012e-10 5e-05 1.46608e-10 
208 1 0.290611 0.0172928 0.00739644 0.0062573 2.95261e-05 0.00120196 1.51382e-10 -3.01452e-10 2.61053e-10 5e-05 1.46608e-10 
209 1 0.290536 0.0173399 0.00734984 0.00619376 -1.49584e-05 0.00122186 3.31081e-10 -4.00381e-11 5.81721e-11 5e-05 1.46608e-10 
210 1 0.296348 0.0169317 0.00755295 0.00611116 -8.73726e-07 -0.000553345 1.00099e-10 3.85808e-11 -1.46106e-12 5e-05 1.46608e-10 
211 1 0.296368 0.017002 0.00748465 0.00615761 -8.59822e-06 -0.000549491 2.34194e-11 4.64921e-11 -1.09601e-10 5e-05 1.46608e-10 
212 1 0.29081 0.018141 0.00696302 0.00541202 -0.000744828 0.000111888 -3.25946e-10 -2.44803e-10 -2.14768e-10 5e-05 1.46608e-10 
213 1 0.296573 0.0182927 0.00693616 0.00573213 0.000378927 9.00326e-05 -9.58211e-14 7.40371e-11 -2.00082e-11 5e-05 1.46608e-10 
214 1 0.296451 0.017286 0.00720835 0.00615819 0.000168872 -0.000718123 -2.02041e-11 -2.94662e-11 1.99166e-13 5e-05 1.46608e-10 
215 1 0.284465 0.017771 0.00701632 0.005837 -0.000212812 -6.78179e-05 -1.12744e-10 1.20599e-10 -5.14449e-11 5e-05 1.46608e-10 
216 1 0.29016 0.0162304 0.00803049 0.00574559 -0.000261707 0.00130165 -2.74496e-10 -7.50046e-11 -5.56998e-12 5e-05 1.46608e-10 
217 1 0.29665 0.0186772 0.00684967 0.00562784 0.0001642 -0.000652778 -1.00081e-10 -1.47841e-10 -9.07559e-11 5e-05 1.46608e-10 
218 1 0.290463 0.0177672 0.00704525 0.00574322 -0.000126774 0.00119415 -1.55854e-10 -6.13896e-10 5.96037e-10 5e-05 1.46608e-10 
219 1 0.29621 0.0167714 0.00771722 0.00601751 4.06142e-05 -0.00057769 4.173e-11 -4.12e-11 5.40847e-11 5e-05 1.46608e-10 
220 1 0.290577 0.0178849 0.00698739 0.00560285 -2.87766e-05 0.00111126 -7.45791e-10 -6.21028e-11 -1.99783e-10 5e-05 1.46608e-10 
222 1 0.296677 0.0175342 0.00712918 0.00576682 0.000356756 9.5627e-05 2.4336e-11 6.2714e-12 -4.90267e-12 5e-05 1.46608e-10 
224 1 0.290353 0.0169738 0.00756296 0.00590426 -0.000189255 0.00128382 1.63341e-10 1.59458e-10 -5.57738e-11 5e-05 1.46608e-10 
225 1 0.296292 0.017052 0.0074442 0.0061966 1.62963e-05 -0.000587486 -1.22422e-11 3.76432e-11 -2.98917e-11 5e-05 1.46608e-10 
226 1 0.290567 0.0177459 0.00718588 0.00577399 5.36538e-05 0.0011072 -1.1892e-09 1.10461e-09 2.96148e-10 5e-05 1.46608e-10 
227 1 0.284486 0.017866 0.00699374 0.00574923 -0.000162714 9.03269e-05 9.70177e-13 7.77179e-11 2.63258e-11 5e-05 1.46608e-10 
228 1 0.284425 0.0175871 0.00708433 0.0057601 -0.000189009 -5.00746e-05 1.81665e-10 1.64264e-11 1.29181e-10 5e-05 1.46608e-10 
229 1 0.290829 0.0182392 0.00697098 0.00544184 -0.000781631 0.000140655 -4.31584e-10 -7.39429e-11 -4.61938e-11 5e-05 1.46608e-10 
230 1 0.290258 0.0169401 0.00756737 0.00589682 -0.000191782 0.0012835 3.96975e-11 2.78892e-10 -1.81466e-10 5e-05 1.46608e-10 
232 1 0.290685 0.0181784 0.00704729 0.00550675 -0.000696944 0.000221414 6.02958e-10 2.65601e-10 2.65632e-10 5e-05 1.46608e-10 
233 1 0.290561 0.018237 0.0069612 0.00547774 -0.000677595 0.000149769 5.40784e-11 -6.18037e-11 2.3951e-10 5e-05 1.46608e-10 
234 1 0.296653 0.0179538 0.00711016 0.00581957 0.000285073 0.000153467 5.5307e-10 2.59414e-10 1.99125e-10 5e-05 1.46608e-10 
235 1 0.290215 0.0167748 0.00767132 0.00583725 -0.000279295 0.0013297 1.87024e-11 1.42248e-10 -1.01639e-10 5e-05 1.46608e-10 
236 1 0.290323 0.0171881 0.00741146 0.00596291 -0.000133117 0.00125735 1.85595e-10 2.31426e-10 -1.28435e-10 5e-05 1.46608e-10 
237 1 0.290345 0.0172707 0.00735949 0.00599544 -0.000106398 0.00124934 1.66273e-10 2.949e-10 -1.28225e-10 5e-05 1.46608e-10 
239 1 0.284141 0.0165262 0.00793324 0.00582021 0.000123934 0.000686158 -3.3826e-10 -3.40308e-11 -3.61697e-11 5e-05 1.46608e-10 
240 1 0.284203 0.0167423 0.00773476 0.00591772 0.000126568 0.000695262 -6.89868e-10 -2.36491e-10 -2.03055e-10 5e-05 1.46608e-10 
241 1 0.28412 0.0164542 0.0079994 0.00576564 0.00011779 0.000675377 4.07769e-12 -5.85809e-11 1.70433e-11 5e-05 1.46608e-10 
242 1 0.290477 0.0167929 0.00771023 0.00584212 -0.000241565 0.00130582 -6.54017e-11 6.6809e-11 -5.39633e-11 5e-05 1.46608e-10 
243 1 0.290634 0.0177545 0.00708735 0.00540967 -9.47221e-06 0.00105448 1.05649e-10 -1.77925e-10 -5.76465e-11 5e-05 1.46608e-10 
244 1 0.284161 0.0165983 0.00786708 0.00586079 0.000106966 0.000698411 4.25848e-10 1.13417e-10 1.32215e-10 5e-05 1.46608e-10 
246 1 0.284349 0.0172465 0.00727164 0.00618889 0.000122233 0.000748161 -4.80631e-10 5.89049e-11 -2.88765e-10 5e-05 1.46608e-10 
247 1 0.290151 0.0165265 0.00782738 0.00580214 -0.000258006 0.00131255 -8.57045e-12 2.90489e-10 -2.1646e-10 5e-05 1.46608e-10 
248 1 0.290484 0.0174702 0.00725112 0.00567707 -5.47437e-05 0.00114415 1.03831e-11 2.0521e-10 -8.53835e-11 5e-05 1.46608e-10 
249 1 0.284287 0.0170304 0.00747012 0.00608401 0.000121083 0.000718502 -4.17928e-10 -1.48334e-10 -1.4118e-11 5e-05 1.46608e-10 
250 1 0.290224 0.0164778 0.00787484 0.00575023 -0.00024731 0.00129469 2.80942e-10 8.1678e-11 -1.00365e-12 5e-05 1.46608e-10 
251 1 0.296547 0.0177618 0.00709108 0.00584209 0.000344105 8.87877e-05 -1.13827e-10 5.57674e-11 8.87205e-12 5e-05 1.46608e-10 
252 1 0.284366 0.0173188 0.00720477 0.00571498 0.00013514 0.00065522 4.06199e-10 1.87155e-10 -3.69383e-11 5e-05 1.46608e-10 
253 1 0.284544 0.0181582 0.00698529 0.00560024 -0.000112394 0.000246566 3.77785e-11 -8.48146e-11 -1.3438e-11 5e-05 1.46608e-10 
254 1 0.284307 0.0171025 0.00740397 0.00612438 0.000129197 0.000726684 2.1944e-10 1.00625e-10 -1.94658e-10 5e-05 1.46608e-10 
255 1 0.289878 0.0156088 0.00876905 0.00581989 -0.001114 0.000442464 -2.91295e-10 -2.88222e-11 2.1972e-10 5e-05 1.46608e-10 
256 1 0.290765 0.0179399 0.00694551 0.00521787 -0.000612601 0.000100775 -3.73649e-10 -1.28864e-10 9.09133e-11 5e-05 1.46608e-10 
257 1 0.290383 0.0167593 0.00771462 0.00584723 -0.000239456 0.00130588 -1.0786e-10 1.42597e-10 -1.1694e-10 5e-05 1.46608e-10 
258 1 0.290461 0.0173875 0.00730293 0.00609831 -7.4161e-05 0.00124571 3.87594e-10 2.86772e-10 -4.73933e-11 5e-05 1.46608e-10 
259 1 0.284387 0.0174079 0.00716419 0.00574077 -3.14206e-05 0.000309319 -2.22586e-10 4.16051e-11 6.52317e-12 5e-05 1.46608e-10 
260 1 0.290658 0.0182708 0.00696712 0.00547466 -0.000732274 0.000149989 -9.06494e-11 2.0193e-10 -1.73739e-11 5e-05 1.46608e-10 