ITEM: TIMESTEP
11400000
ITEM: NUMBER OF ATOMS
287
ITEM: BOX BOUNDS ff ff ff
-0.02 0.43
-0.02 0.06
-0.02 0.07
ITEM: ATOMS id type x y z vx vy vz fx fy fz radius mass 
1 1 0.0792968 0.0162918 0.00782259 0.0058407 0.000104241 -4.30946e-05 -5.69166e-13 -3.73788e-11 2.17295e-11 5e-05 1.46608e-10 
2 1 0.0798289 0.0174227 0.00720106 0.00566081 0.000207505 0.000265346 -1.23179e-11 -4.33052e-11 1.69725e-11 5e-05 1.46608e-10 
3 1 0.0730702 0.0158532 0.00833046 0.00609184 -0.000180266 -8.07036e-05 1.01681e-11 -3.82833e-11 -3.4938e-11 5e-05 1.46608e-10 
4 1 0.0796099 0.0176683 0.00706888 0.00570423 0.000303312 0.00022341 -4.47224e-12 8.27912e-11 -3.71054e-11 5e-05 1.46608e-10 
5 1 0.0791606 0.016095 0.00793559 0.00583835 0.000119614 -5.17693e-05 -1.1768e-11 -3.07268e-12 4.45181e-12 5e-05 1.46608e-10 
6 1 0.0853407 0.016847 0.00747657 0.00546218 -0.000238276 5.69172e-05 -2.15123e-12 6.55681e-13 2.64551e-13 5e-05 1.46608e-10 
7 1 0.0793408 0.0168592 0.00749573 0.00552796 0.000174492 -8.4675e-05 -2.32816e-10 -3.27249e-10 1.81853e-10 5e-05 1.46608e-10 
8 1 0.0790644 0.015758 0.00827564 0.00628167 2.52966e-05 -0.000107244 -2.34045e-11 5.02602e-11 -1.42541e-10 5e-05 1.46608e-10 
9 1 0.0855988 0.0180424 0.00703569 0.00603107 -0.000354294 9.63729e-05 1.30848e-12 5.01196e-13 -1.07938e-12 5e-05 1.46608e-10 
10 1 0.079282 0.0166043 0.00764249 0.00561563 0.00015677 -7.40106e-05 -1.23849e-11 -5.60427e-11 3.49643e-11 5e-05 1.46608e-10 
11 1 0.0797613 0.0175542 0.00713347 0.00568908 0.000198976 0.000271142 3.45829e-11 2.83461e-11 7.53571e-12 5e-05 1.46608e-10 
12 1 0.0732578 0.0165312 0.00776918 0.00567636 -2.21491e-05 8.52347e-06 2.10101e-11 6.22264e-11 -6.93578e-11 5e-05 1.46608e-10 
13 1 0.07914 0.0160102 0.00798441 0.00583437 0.000123651 -5.4336e-05 -1.73807e-11 -3.02553e-11 1.82924e-11 5e-05 1.46608e-10 
14 1 0.0729851 0.0155406 0.00856496 0.00620737 -0.000300672 -0.000205143 7.28853e-12 2.46077e-11 -2.02515e-11 5e-05 1.46608e-10 
15 1 0.0794933 0.0171425 0.00733295 0.00562425 0.000126822 -5.55427e-05 2.46862e-11 -5.04656e-11 4.60661e-12 5e-05 1.46608e-10 
16 1 0.0729638 0.0154626 0.0086238 0.00623355 -0.00030684 -0.000202343 1.00778e-11 4.37176e-11 -3.21073e-11 5e-05 1.46608e-10 
17 1 0.0792622 0.0165193 0.00769138 0.0055301 0.000172438 -8.32052e-05 -4.62801e-12 2.01617e-11 -1.41198e-11 5e-05 1.46608e-10 
18 1 0.0854778 0.017491 0.00723905 0.00549926 -0.000248042 6.03141e-05 5.62288e-12 5.5019e-13 -6.10439e-13 5e-05 1.46608e-10 
19 1 0.0791194 0.0159254 0.00803323 0.00583056 0.000128887 -5.74741e-05 1.40079e-11 4.68321e-11 -2.33003e-11 5e-05 1.46608e-10 
21 1 0.0792762 0.016207 0.00787141 0.00584618 0.000112301 -4.80208e-05 4.3739e-11 -3.37507e-11 1.24185e-11 5e-05 1.46608e-10 
22 1 0.0793794 0.0170293 0.00739783 0.00557092 0.000169098 -8.10356e-05 4.86717e-12 3.78501e-11 -2.16932e-11 5e-05 1.46608e-10 
23 1 0.0733906 0.0167072 0.00762288 0.00560384 -1.71169e-05 4.17623e-06 -2.15827e-12 -7.34561e-11 4.14958e-11 5e-05 1.46608e-10 
24 1 0.0855368 0.017767 0.00713727 0.0055032 -0.000249265 6.07299e-05 -3.54421e-13 -2.15303e-14 -6.48671e-13 5e-05 1.46608e-10 
25 1 0.0793215 0.0167742 0.00754468 0.00550704 0.000172278 -8.31909e-05 -9.89091e-11 -2.23462e-10 1.23518e-10 5e-05 1.46608e-10 
26 1 0.0854189 0.017215 0.00734083 0.00549532 -0.000245751 5.94844e-05 2.59433e-13 1.31068e-12 -1.12436e-12 5e-05 1.46608e-10 
27 1 0.0733932 0.0169982 0.00748928 0.00555029 -1.28249e-05 1.32187e-05 -3.63285e-11 -1.12462e-10 -6.35196e-12 5e-05 1.46608e-10 
28 1 0.079591 0.0175796 0.00711127 0.00570114 0.000260922 0.000243644 -2.82448e-11 -5.0511e-12 2.23145e-11 5e-05 1.46608e-10 
29 1 0.0791005 0.0158635 0.00810962 0.00577986 9.21075e-05 -0.000208556 -2.28155e-10 2.96285e-11 -1.62526e-10 5e-05 1.46608e-10 
30 1 0.079552 0.0174027 0.00719602 0.00564604 0.000243754 0.000190268 -4.49984e-11 -5.38669e-11 -3.49846e-11 5e-05 1.46608e-10 
31 1 0.0793601 0.0169443 0.00744678 0.00556893 0.000249755 -0.000127986 6.14945e-11 1.20518e-10 -6.46292e-11 5e-05 1.46608e-10 
32 1 0.079474 0.0170574 0.0073819 0.005594 0.000133446 -6.05716e-05 3.24758e-12 -4.86368e-11 3.35434e-11 5e-05 1.46608e-10 
33 1 0.0853602 0.016939 0.00744263 0.00546238 -0.000238584 5.70295e-05 4.08275e-12 2.46984e-12 -1.79287e-12 5e-05 1.46608e-10 
34 1 0.0792423 0.0164344 0.00774026 0.00560543 0.000157107 -7.43225e-05 1.45643e-11 5.30464e-11 -3.28532e-11 5e-05 1.46608e-10 
35 1 0.0794547 0.0169724 0.00743084 0.00556808 0.000140524 -6.49502e-05 -6.08622e-11 -1.1388e-10 6.943e-11 5e-05 1.46608e-10 
36 1 0.0856402 0.0182259 0.00696797 0.00611043 -0.000369826 0.000101694 1.56256e-12 1.30284e-12 1.32326e-13 5e-05 1.46608e-10 
37 1 0.0794161 0.0168023 0.00752874 0.0055002 0.000157543 -7.47605e-05 -1.76868e-10 -3.76974e-12 2.97947e-12 5e-05 1.46608e-10 
38 1 0.0795881 0.0171708 0.00731733 0.00561199 0.000151805 1.58295e-05 3.75506e-11 2.62782e-11 3.63088e-11 5e-05 1.46608e-10 
39 1 0.0855574 0.0178588 0.0071034 0.00595166 -0.000338687 9.11095e-05 1.56566e-12 -4.41366e-13 -1.13618e-13 5e-05 1.46608e-10 
41 1 0.0792017 0.0162647 0.00783796 0.00584761 0.000113322 -4.82777e-05 2.55655e-11 8.46013e-12 -8.16638e-12 5e-05 1.46608e-10 
42 1 0.0793987 0.0171144 0.00734887 0.00559373 0.000201968 -0.00010015 5.28026e-13 -4.87112e-11 3.22659e-11 5e-05 1.46608e-10 
44 1 0.0796077 0.0172563 0.00726947 0.00563474 0.000225908 0.000161031 2.09427e-11 -5.84146e-12 -8.3855e-12 5e-05 1.46608e-10 
45 1 0.0853797 0.017031 0.00740869 0.00546123 -0.000238458 5.70119e-05 2.33809e-12 -2.43026e-12 1.22269e-12 5e-05 1.46608e-10 
46 1 0.0854582 0.017399 0.00727298 0.00549759 -0.000247123 5.99539e-05 -1.61099e-11 2.80592e-12 -5.50404e-13 5e-05 1.46608e-10 
47 1 0.0792222 0.0163495 0.00778914 0.00585152 0.000112527 -4.77098e-05 3.83807e-11 4.33348e-11 -2.43888e-11 5e-05 1.46608e-10 
48 1 0.0794374 0.0172844 0.00725098 0.00565354 0.000146002 -3.36979e-05 -7.47503e-13 2.83446e-11 6.2716e-11 5e-05 1.46608e-10 
49 1 0.0854385 0.017307 0.0073069 0.00549632 -0.00024656 5.97904e-05 1.03391e-11 -4.31822e-12 1.80666e-12 5e-05 1.46608e-10 
50 1 0.079496 0.0175475 0.00711962 0.00569572 0.00027498 0.000234218 4.22731e-11 1.03222e-11 1.63977e-11 5e-05 1.46608e-10 
51 1 0.0794764 0.0174586 0.00716107 0.00569391 0.000279819 0.000234011 -1.66245e-11 -3.45465e-12 1.3889e-11 5e-05 1.46608e-10 
52 1 0.0732376 0.0164559 0.00783174 0.00572177 -3.2349e-05 1.65602e-05 8.90984e-13 5.39511e-11 -4.87029e-11 5e-05 1.46608e-10 
53 1 0.0854975 0.017583 0.00720512 0.00550037 -0.000248513 6.04545e-05 -5.73094e-14 -2.02845e-12 6.1236e-13 5e-05 1.46608e-10 
54 1 0.0792556 0.0161222 0.00792023 0.00584241 0.000114156 -4.90361e-05 8.11617e-12 -4.63494e-11 3.44246e-11 5e-05 1.46608e-10 
55 1 0.0730277 0.0156966 0.00844728 0.00615141 -0.000291199 -0.000208426 -1.45079e-11 -3.1914e-13 1.81847e-11 5e-05 1.46608e-10 
56 1 0.0794354 0.0168874 0.00747979 0.00553316 0.000148014 -6.92818e-05 -1.58514e-10 -1.45751e-10 8.32585e-11 5e-05 1.46608e-10 
57 1 0.0853992 0.017123 0.00737476 0.00546121 -0.000238734 5.70666e-05 -1.42904e-12 1.60897e-12 -2.47544e-13 5e-05 1.46608e-10 
59 1 0.0795107 0.0168305 0.00751279 0.00549586 0.000133951 -6.13326e-05 1.34858e-10 1.21101e-10 -6.94991e-11 5e-05 1.46608e-10 
60 1 0.07953 0.0169155 0.00746385 0.00553778 0.000126935 -5.69017e-05 2.43384e-10 1.3384e-10 -7.91389e-11 5e-05 1.46608e-10 
61 1 0.0791811 0.0161799 0.00788677 0.00584272 0.000115454 -4.96469e-05 3.03401e-11 1.38631e-11 -4.80663e-12 5e-05 1.46608e-10 
62 1 0.0796274 0.0173441 0.00722583 0.00564265 0.000263061 0.00023682 -2.39664e-11 -3.30364e-12 -1.5946e-11 5e-05 1.46608e-10 
63 1 0.0795203 0.0175469 0.00721662 0.00568983 0.00027573 0.000233302 1.85252e-11 4.03641e-11 -4.35626e-12 5e-05 1.46608e-10 
64 1 0.0855171 0.017675 0.00717119 0.00550176 -0.000248912 6.06261e-05 3.21606e-13 -6.42903e-13 8.08158e-13 5e-05 1.46608e-10 
65 1 0.0734649 0.0172643 0.0073058 0.00567878 -4.34653e-05 7.8818e-06 -1.87833e-10 -4.56727e-11 5.87922e-12 5e-05 1.46608e-10 
66 1 0.0734969 0.0169733 0.00751205 0.00564768 -1.53107e-05 -3.37424e-06 2.2104e-10 -1.47325e-10 1.67252e-10 5e-05 1.46608e-10 
67 1 0.0797423 0.0174653 0.007175 0.00565895 0.00020609 0.000265594 8.71981e-12 -5.08726e-12 3.65866e-12 5e-05 1.46608e-10 
68 1 0.0796663 0.0175219 0.00714288 0.00567508 0.000227216 0.000256479 -2.70159e-11 -2.70463e-11 2.30947e-11 5e-05 1.46608e-10 
69 1 0.0793571 0.0165471 0.00767565 0.00555845 9.8367e-05 -4.06303e-05 3.24078e-11 1.54587e-10 -8.96103e-11 5e-05 1.46608e-10 
70 1 0.0855781 0.0179506 0.00706955 0.00599136 -0.000346537 9.36788e-05 4.75384e-13 6.78765e-13 8.16033e-14 5e-05 1.46608e-10 
71 1 0.0730064 0.0156186 0.00850612 0.00618135 -0.000295683 -0.000207311 6.34908e-12 5.21943e-12 -5.66531e-12 5e-05 1.46608e-10 
72 1 0.0796468 0.017433 0.00718434 0.00565414 0.000231937 0.000251718 -2.52592e-11 -4.12956e-11 1.99297e-11 5e-05 1.46608e-10 
73 1 0.0793018 0.0166892 0.00759359 0.0056518 0.000146336 -6.8128e-05 -1.22693e-10 -1.72866e-10 9.68549e-11 5e-05 1.46608e-10 
74 1 0.0795127 0.0172277 0.00728433 0.00564132 0.000146004 -1.41434e-05 1.33438e-11 -2.74945e-11 1.44743e-11 5e-05 1.46608e-10 
76 1 0.0735219 0.0172563 0.00722406 0.00567005 -3.85591e-05 1.0319e-05 -2.84776e-11 -1.73662e-12 1.59185e-11 5e-05 1.46608e-10 
77 1 0.0797372 0.0182444 0.00706323 0.00611368 0.000134405 -0.000519788 2.14272e-11 2.49486e-11 -7.28614e-13 5e-05 1.46608e-10 
78 1 0.0730916 0.0159292 0.008269 0.00606486 -7.1882e-05 4.78111e-05 -8.61783e-12 -9.21924e-12 -2.95819e-12 5e-05 1.46608e-10 
79 1 0.0733386 0.0167735 0.0076769 0.00545671 -2.35438e-05 4.35174e-06 -3.68295e-11 -3.01378e-11 1.34736e-11 5e-05 1.46608e-10 
80 1 0.0795525 0.0178037 0.00700007 0.00571783 0.000276062 0.000223445 -2.4839e-10 -1.95943e-10 4.18183e-11 5e-05 1.46608e-10 
81 1 0.0732934 0.0167011 0.00774197 0.00556286 -4.13735e-05 -2.50673e-06 -1.27792e-11 -5.27887e-11 -1.14525e-10 5e-05 1.46608e-10 
82 1 0.0733148 0.0167578 0.00758105 0.00545406 -1.47896e-05 2.47664e-06 -1.17439e-11 -1.11782e-11 5.00164e-12 5e-05 1.46608e-10 
83 1 0.0734282 0.0165059 0.00778988 0.00562876 -1.82329e-05 4.36563e-06 -1.27115e-10 -7.91707e-11 5.80579e-11 5e-05 1.46608e-10 
84 1 0.0856195 0.0181341 0.00700183 0.00607076 -0.000362051 9.89779e-05 7.77596e-13 1.41852e-12 -1.02106e-13 5e-05 1.46608e-10 
85 1 0.0732086 0.0160277 0.00818701 0.00604276 -5.32749e-05 3.02357e-05 6.41288e-11 -6.3656e-11 4.32246e-11 5e-05 1.46608e-10 
86 1 0.0795715 0.0174903 0.00715195 0.00568169 0.000260792 0.000240831 1.36601e-12 -2.57046e-11 3.49245e-11 5e-05 1.46608e-10 
87 1 0.0794914 0.0167454 0.00756174 0.00548123 0.000134542 -6.15702e-05 2.81861e-11 2.30846e-10 -1.34409e-10 5e-05 1.46608e-10 
88 1 0.0796147 0.0181108 0.00704168 0.00614826 0.000104295 -0.000523249 -1.45331e-11 9.79495e-11 -2.47382e-11 5e-05 1.46608e-10 
89 1 0.0795713 0.0179018 0.00699459 0.00573401 0.000229648 -0.000446339 2.79769e-10 1.13201e-10 -2.1306e-10 5e-05 1.46608e-10 
90 1 0.0798064 0.0173294 0.00724446 0.00562094 0.000193143 0.000269596 2.28381e-11 -5.44669e-11 1.057e-11 5e-05 1.46608e-10 
91 1 0.073277 0.0166067 0.0077065 0.00561803 -1.1042e-05 -8.44531e-07 2.97489e-11 8.27198e-11 -9.86026e-11 5e-05 1.46608e-10 
92 1 0.0797045 0.0176998 0.00705981 0.00575422 0.000227434 0.000265013 -2.09635e-11 1.36264e-11 -2.77273e-11 5e-05 1.46608e-10 
93 1 0.0796943 0.0180535 0.00702185 0.00616275 0.000103239 -0.00045515 -3.37508e-12 3.40641e-12 -1.8697e-11 5e-05 1.46608e-10 
94 1 0.0797667 0.0179881 0.00699801 0.00613083 -2.73569e-05 -0.000559764 6.15583e-11 -2.42064e-11 2.61382e-11 5e-05 1.46608e-10 
95 1 0.0795347 0.0177341 0.00706962 0.00568348 0.000281513 0.000210649 6.71798e-12 8.96004e-12 -2.29849e-11 5e-05 1.46608e-10 
96 1 0.0797141 0.0177898 0.0070172 0.00576283 0.000235037 0.000264999 -1.3446e-11 3.10926e-11 -1.19223e-12 5e-05 1.46608e-10 
97 1 0.0731982 0.016305 0.00795698 0.00586756 -5.98796e-05 3.84077e-05 8.53553e-11 -5.84024e-11 5.21695e-11 5e-05 1.46608e-10 
98 1 0.0796356 0.0182062 0.00706307 0.00611106 0.000108064 -0.000527495 4.41879e-12 1.02121e-10 -3.71514e-11 5e-05 1.46608e-10 
99 1 0.0734883 0.0170565 0.00745732 0.00564949 -1.95996e-05 -2.7454e-06 7.39726e-11 -2.8422e-10 7.45281e-11 5e-05 1.46608e-10 
100 1 0.0796835 0.0171991 0.00730088 0.00561891 9.48078e-05 -3.69968e-05 -7.11998e-12 -2.47552e-11 2.90657e-11 5e-05 1.46608e-10 
101 1 0.0732999 0.0166217 0.00780267 0.00565793 -1.3721e-05 -5.63428e-06 -2.00162e-11 -8.25521e-11 -8.43499e-11 5e-05 1.46608e-10 
102 1 0.0643568 0.0187248 0.00531097 4.18702e-15 1.05823e-14 8.29537e-14 -6.34202e-22 5.15799e-22 -2.87445e-23 5e-05 1.46608e-10 
103 1 0.24257 0.0191927 0.00520306 1.6328e-22 2.24983e-22 8.29106e-22 0 0 0 5e-05 1.46608e-10 
104 1 0.0735417 0.0169593 0.0074135 0.00562907 -4.40014e-05 2.4363e-05 -6.64572e-11 -4.14307e-11 1.06342e-11 5e-05 1.46608e-10 
105 1 0.0731559 0.0161546 0.00808184 0.00599508 -7.32905e-05 4.91861e-05 -2.5341e-11 -5.02641e-11 3.92841e-11 5e-05 1.46608e-10 
106 1 0.073618 0.0169094 0.0074547 0.0056048 -6.20349e-05 4.07424e-05 4.61927e-11 -5.87454e-11 4.19297e-11 5e-05 1.46608e-10 
107 1 0.073113 0.0160043 0.00820661 0.00604558 -7.10722e-05 4.89196e-05 2.59734e-11 -6.45845e-12 1.09603e-11 5e-05 1.46608e-10 
108 1 0.0793966 0.0167172 0.00757776 0.00550694 0.000154951 -7.32526e-05 7.51354e-11 1.69579e-10 -9.90783e-11 5e-05 1.46608e-10 
109 1 0.0794569 0.0173697 0.00720253 0.00567928 0.000283041 0.000226737 -5.60622e-11 -2.74177e-11 -9.98559e-12 5e-05 1.46608e-10 
110 1 0.0798238 0.0178236 0.00700803 0.00613433 -9.53497e-06 0.000397698 2.52437e-10 -3.20881e-11 3.96724e-11 5e-05 1.46608e-10 
111 1 0.0796772 0.0183954 0.00711222 0.00604425 0.000110416 -0.000519375 -1.05478e-11 6.23998e-11 2.84286e-11 5e-05 1.46608e-10 
112 1 0.0732182 0.0163804 0.00789439 0.00579217 -4.75245e-05 2.83236e-05 1.59503e-11 2.72498e-12 1.72723e-12 5e-05 1.46608e-10 
113 1 0.0738834 0.0172905 0.00722563 0.00578134 -0.000189327 5.67966e-06 2.36203e-11 1.95808e-10 6.47114e-12 5e-05 1.46608e-10 
114 1 0.0736314 0.0171513 0.00736454 0.00565134 -4.1122e-05 2.12044e-05 -1.36554e-10 4.46872e-11 -6.11457e-11 5e-05 1.46608e-10 
115 1 0.0795324 0.0173142 0.00723823 0.00564568 0.000195588 8.31669e-05 6.90613e-12 -5.90744e-11 -3.98637e-11 5e-05 1.46608e-10 
116 1 0.0793769 0.0166321 0.00762671 0.005611 0.000113829 -4.93628e-05 2.40488e-11 1.07172e-10 -6.39386e-11 5e-05 1.46608e-10 
117 1 0.0792351 0.0160374 0.00796905 0.00583577 0.000115999 -5.04166e-05 -1.30934e-11 -5.743e-11 2.64623e-11 5e-05 1.46608e-10 
118 1 0.0730489 0.0157757 0.0083899 0.00611865 -0.000285438 -0.000210598 -6.43645e-12 -2.5288e-11 -2.01935e-11 5e-05 1.46608e-10 
119 1 0.0795493 0.0170005 0.0074149 0.0055729 0.000119311 -5.29292e-05 5.54383e-11 2.58352e-12 -8.23505e-12 5e-05 1.46608e-10 
120 1 0.079083 0.0158107 0.00819271 0.00581135 8.11686e-05 -0.000193067 -2.22461e-10 9.7854e-11 -1.99921e-10 5e-05 1.46608e-10 
121 1 0.0790429 0.0157057 0.00835808 0.00624499 1.98686e-05 -0.000101966 1.00404e-11 1.06371e-10 -1.74827e-10 5e-05 1.46608e-10 
122 1 0.0798334 0.0179174 0.00697471 0.00579783 -0.000325602 -0.000601896 -4.60139e-11 -1.57755e-11 -2.10545e-11 5e-05 1.46608e-10 
123 1 0.0732518 0.0161783 0.00806198 0.00601656 -7.31022e-07 -1.10022e-05 -2.7841e-11 -1.05884e-10 8.93601e-11 5e-05 1.46608e-10 
124 1 0.0796542 0.0178624 0.00705083 0.00579042 0.000303839 0.000205614 -2.24007e-10 -1.34632e-11 1.16066e-11 5e-05 1.46608e-10 
125 1 0.0792145 0.0159525 0.00801786 0.00583368 0.000117374 -4.78072e-05 -5.01034e-11 -7.9206e-11 8.2542e-11 5e-05 1.46608e-10 
126 1 0.079418 0.0171994 0.00729991 0.00563752 0.000139226 -6.13719e-05 9.44249e-12 -1.72354e-11 1.21916e-11 5e-05 1.46608e-10 
127 1 0.0731773 0.0162298 0.00801944 0.00593865 -6.80277e-05 4.51146e-05 8.67303e-12 -7.01034e-11 5.12419e-11 5e-05 1.46608e-10 
128 1 0.0795156 0.0176363 0.00707816 0.00571149 0.000277702 0.000236902 -2.03201e-12 1.30464e-11 -1.42133e-11 5e-05 1.46608e-10 
129 1 0.0795932 0.0180131 0.00701979 0.00618469 0.000103519 -0.000529689 -2.09174e-11 -4.98898e-11 -6.17797e-11 5e-05 1.46608e-10 
130 1 0.0734096 0.0167828 0.00756018 0.0056176 -2.0169e-05 5.72976e-06 2.18878e-10 -4.98272e-11 3.33314e-11 5e-05 1.46608e-10 
131 1 0.0735454 0.0171185 0.00740352 0.00564494 -2.15541e-05 1.1184e-05 -2.0074e-10 -1.37827e-10 -4.09391e-11 5e-05 1.46608e-10 
132 1 0.0796292 0.0177663 0.00706447 0.00567455 0.000306393 0.000146309 -6.87889e-11 1.11324e-10 -2.06395e-10 5e-05 1.46608e-10 
133 1 0.0794126 0.0164053 0.00775754 0.00538006 1.91287e-05 4.60704e-06 -8.03268e-11 1.0966e-10 -6.34501e-11 5e-05 1.46608e-10 
134 1 0.0795686 0.0170856 0.00736595 0.00559136 0.00011786 -5.27827e-05 2.1088e-11 2.67488e-11 1.66859e-11 5e-05 1.46608e-10 
135 1 0.0791957 0.0158795 0.00808351 0.00582982 3.58462e-05 -0.00012337 -1.16907e-10 -1.03015e-10 1.8915e-10 5e-05 1.46608e-10 
136 1 0.0731871 0.0159519 0.00824859 0.00607303 -0.000225322 -0.000177626 -3.96656e-14 4.92278e-11 1.60118e-10 5e-05 1.46608e-10 
137 1 0.0796984 0.018492 0.00712715 0.00600576 0.000116695 -0.000514148 1.80295e-11 9.1943e-11 1.73461e-11 5e-05 1.46608e-10 
138 1 0.0793372 0.0164621 0.00772456 0.00546193 0.000103147 -4.36138e-05 -5.14804e-11 7.44993e-11 -4.0865e-11 5e-05 1.46608e-10 
140 1 0.0797893 0.0180844 0.00701946 0.00615978 9.15428e-05 -0.000533501 -8.19876e-11 -7.64076e-11 2.23968e-11 5e-05 1.46608e-10 
141 1 0.0732301 0.0161029 0.00812461 0.00601454 -5.90889e-05 3.74643e-05 2.63381e-13 -2.62143e-11 2.45433e-11 5e-05 1.46608e-10 
142 1 0.0735042 0.016808 0.00753905 0.0056109 -3.06179e-05 1.56925e-05 1.52295e-10 -1.0904e-10 9.42678e-11 5e-05 1.46608e-10 
143 1 0.0731345 0.0160795 0.00814422 0.00602433 -7.25217e-05 4.83235e-05 7.97404e-11 -3.59838e-11 3.67469e-11 5e-05 1.46608e-10 
144 1 0.0736354 0.0172311 0.00730441 0.00569011 -4.2237e-05 1.91101e-05 -2.95125e-12 -1.09462e-11 -1.95024e-11 5e-05 1.46608e-10 
146 1 0.0735236 0.0165316 0.00776833 0.0055778 -6.75361e-05 4.52041e-05 5.09e-11 -7.1448e-11 5.52671e-11 5e-05 1.46608e-10 
147 1 0.0731656 0.0158739 0.00830737 0.00610317 -0.000263344 -0.000220477 1.35762e-11 -3.11154e-11 6.48561e-11 5e-05 1.46608e-10 
148 1 0.0733707 0.0169846 0.0073928 0.00556426 -1.50765e-05 5.18781e-06 2.66368e-11 -4.45771e-12 -1.24856e-11 5e-05 1.46608e-10 
149 1 0.079756 0.0183402 0.00708492 0.00607066 0.000140491 -0.000515192 2.22259e-11 1.04948e-10 2.12605e-11 5e-05 1.46608e-10 
150 1 0.0733332 0.0164806 0.00781102 0.0056641 1.10351e-05 -2.02039e-05 8.27795e-11 -3.43171e-11 2.25262e-11 5e-05 1.46608e-10 
151 1 0.0737133 0.0169357 0.00743271 0.00560832 -6.56274e-05 4.30035e-05 -6.3283e-11 -3.99489e-11 3.89553e-11 5e-05 1.46608e-10 
153 1 0.0732936 0.0163298 0.00793623 0.00585593 -1.70784e-06 -9.80937e-06 9.30862e-11 1.14025e-10 -9.78303e-11 5e-05 1.46608e-10 
154 1 0.0734658 0.0170095 0.00737197 0.00564112 -3.17004e-05 1.14498e-05 -1.20961e-10 -3.29205e-11 2.40485e-11 5e-05 1.46608e-10 
155 1 0.0735406 0.0173545 0.00722673 0.00564933 -4.09637e-05 8.83001e-06 7.80395e-11 -4.96415e-12 -1.79289e-12 5e-05 1.46608e-10 
156 1 0.0734472 0.0169339 0.00743472 0.00562631 -2.70195e-05 1.17319e-05 3.74592e-11 -4.85055e-11 8.01671e-11 5e-05 1.46608e-10 
157 1 0.0219312 0.0187687 0.00551176 -3.83554e-14 8.16576e-14 2.95887e-13 -6.68982e-23 1.25525e-22 -3.90843e-23 5e-05 1.46608e-10 
158 1 0.0735602 0.0170349 0.00735072 0.00565665 -2.53611e-05 1.48273e-05 -2.17872e-10 -4.63389e-11 1.37822e-11 5e-05 1.46608e-10 
159 1 0.0796854 0.0176109 0.00710134 0.00571754 0.000228419 0.00026024 -1.50054e-11 -3.35952e-12 -2.53956e-12 5e-05 1.46608e-10 
160 1 0.0734456 0.0173209 0.00722566 0.00573398 -3.46573e-05 9.23399e-06 -1.10333e-10 -5.71311e-12 1.37131e-11 5e-05 1.46608e-10 
162 1 0.0734843 0.0170851 0.00730921 0.00564751 -3.49486e-05 1.15907e-05 -8.77386e-11 -3.96042e-11 3.81575e-12 5e-05 1.46608e-10 
164 1 0.0736978 0.0176805 0.00723574 0.00590475 -0.00010146 7.84572e-06 -5.12222e-11 -9.16917e-11 -2.7357e-11 5e-05 1.46608e-10 
165 1 0.0737695 0.0171624 0.00724452 0.00564012 -7.366e-05 4.68675e-05 2.32187e-11 1.52746e-10 -3.50478e-11 5e-05 1.46608e-10 
166 1 0.0793714 0.0162342 0.00785598 0.00582677 9.27635e-05 -3.65374e-05 2.81766e-12 -5.58704e-11 3.21399e-11 5e-05 1.46608e-10 
167 1 0.073313 0.0164053 0.00787358 0.00575726 4.80314e-06 -1.50036e-05 -1.40152e-10 4.85279e-11 -2.58624e-11 5e-05 1.46608e-10 
168 1 0.0736365 0.016985 0.00739194 0.00561148 -6.1335e-05 4.14909e-05 3.38833e-11 -5.09131e-11 2.35974e-11 5e-05 1.46608e-10 
169 1 0.0738291 0.0174543 0.00722992 0.00589755 -0.00012265 8.3272e-06 1.25234e-10 1.54531e-10 -3.32724e-11 5e-05 1.46608e-10 
170 1 0.0736724 0.0171374 0.00726546 0.00565364 -6.34236e-05 4.07028e-05 -1.12528e-10 -1.1165e-10 8.47903e-11 5e-05 1.46608e-10 
171 1 0.0793922 0.0163199 0.00780667 0.00598603 0.000525641 -0.000285531 -4.96459e-11 9.1042e-12 -5.0728e-12 5e-05 1.46608e-10 
172 1 0.0737484 0.0170872 0.00730696 0.00561739 -6.45075e-05 5.02876e-05 3.32695e-11 3.23773e-11 -9.48284e-12 5e-05 1.46608e-10 
173 1 0.0798559 0.0175862 0.0071242 0.00569686 0.000156624 0.000291133 2.344e-11 -6.6776e-11 2.15795e-11 5e-05 1.46608e-10 
174 1 0.0735956 0.0171887 0.00722308 0.00567714 -3.75744e-05 1.88158e-05 -2.41551e-11 1.50546e-11 -3.65471e-11 5e-05 1.46608e-10 
175 1 0.0674582 0.0173728 0.0071794 0.0055449 -0.000552888 0.000226402 -3.2692e-12 -6.83877e-11 4.30961e-11 5e-05 1.46608e-10 
176 1 0.0734285 0.0168583 0.00749746 0.00561868 -2.29311e-05 8.26017e-06 3.05046e-10 -5.81815e-11 7.04262e-11 5e-05 1.46608e-10 
177 1 0.0734829 0.0175173 0.00723098 0.00589182 -6.72909e-05 9.85409e-06 2.18245e-10 -3.33319e-11 3.52409e-11 5e-05 1.46608e-10 
178 1 0.0738627 0.0171914 0.00722294 0.00566585 -0.000192165 1.24776e-05 2.90552e-10 3.51814e-10 5.79267e-11 5e-05 1.46608e-10 
179 1 0.0738083 0.0173565 0.00722727 0.00584613 -0.000109687 8.99909e-06 3.15137e-11 1.17704e-10 5.85451e-12 5e-05 1.46608e-10 
181 1 0.07341 0.0171485 0.00728778 0.00566039 -2.53681e-05 6.96536e-06 -1.02224e-11 -5.33189e-11 -1.3405e-11 5e-05 1.46608e-10 
182 1 0.0793171 0.0163771 0.00777352 0.00578655 0.000331634 -0.000174259 4.53076e-11 1.02041e-10 -5.87019e-11 5e-05 1.46608e-10 
183 1 0.0736545 0.0170607 0.00732912 0.00561893 -6.10556e-05 3.96991e-05 -9.21956e-11 -3.98987e-11 6.60877e-11 5e-05 1.46608e-10 
184 1 0.0796551 0.0177137 0.00714566 0.00569387 0.000343266 0.000211817 7.70028e-11 5.89019e-11 -1.37398e-11 5e-05 1.46608e-10 
185 1 0.0733521 0.016909 0.00745555 0.00552717 -1.84199e-05 5.65985e-06 2.04836e-11 -5.06248e-12 -1.24091e-11 5e-05 1.46608e-10 
186 1 0.0733894 0.0170602 0.00733006 0.00562644 -2.03652e-05 6.52312e-06 1.48459e-10 -7.39455e-11 1.71287e-11 5e-05 1.46608e-10 
187 1 0.0796638 0.0171141 0.00734979 0.00559817 9.66839e-05 -4.04647e-05 -6.43949e-12 -2.81905e-11 2.16903e-11 5e-05 1.46608e-10 
188 1 0.0797151 0.0181492 0.007042 0.00613452 0.000126533 -0.000523174 -6.35721e-11 4.83946e-11 3.65995e-11 5e-05 1.46608e-10 
189 1 0.0797031 0.0172874 0.007258 0.00566854 0.000291607 0.000225517 9.18437e-11 7.68867e-11 -3.05589e-11 5e-05 1.46608e-10 
190 1 0.0675638 0.0174817 0.00710202 0.00553162 -0.000512626 0.000220441 2.19858e-11 -1.52485e-10 2.07094e-11 5e-05 1.46608e-10 
191 1 0.0797194 0.0185874 0.00714854 0.00596792 0.000121914 -0.000509105 4.38895e-11 1.46243e-10 3.18457e-11 5e-05 1.46608e-10 
192 1 0.0735806 0.0167583 0.0075802 0.00557727 -6.33944e-05 4.19956e-05 1.71216e-10 -1.45054e-10 1.23441e-10 5e-05 1.46608e-10 
193 1 0.0794721 0.0166604 0.00761069 0.00550099 0.000129531 -5.85674e-05 -2.09502e-10 1.42225e-10 -8.18727e-11 5e-05 1.46608e-10 
194 1 0.0734473 0.0165814 0.00772718 0.00562435 -1.72773e-05 3.50111e-06 -8.68926e-12 -9.15005e-11 9.41445e-11 5e-05 1.46608e-10 
195 1 0.0737886 0.0172585 0.00722464 0.00574143 -9.49908e-05 2.9807e-05 4.89744e-11 1.29983e-10 -2.00077e-11 5e-05 1.46608e-10 
196 1 0.0729426 0.0153846 0.00868264 0.00626007 -0.00031339 -0.000199419 1.76035e-11 5.86974e-11 -4.45763e-11 5e-05 1.46608e-10 
197 1 0.0675166 0.0176543 0.00709787 0.00548409 -0.000580238 0.000225783 4.00253e-10 -1.21556e-10 -1.72902e-12 5e-05 1.46608e-10 
198 1 0.0733307 0.0168533 0.00761626 0.00544516 -1.5922e-05 3.61793e-06 6.73277e-11 4.30439e-11 -4.08011e-12 5e-05 1.46608e-10 
199 1 0.0735024 0.0171608 0.00724639 0.00566893 -3.49071e-05 1.44132e-05 -3.99939e-11 -7.30683e-12 2.11675e-11 5e-05 1.46608e-10 
200 1 0.073296 0.0166822 0.0076438 0.00559143 -4.70738e-06 -5.44896e-06 -4.79926e-11 -3.41846e-11 -1.88463e-11 5e-05 1.46608e-10 
201 1 0.0737965 0.0177147 0.00723684 0.00586147 -0.00011344 7.62508e-06 1.10043e-10 -1.07101e-10 -8.83128e-13 5e-05 1.46608e-10 
202 1 0.0735993 0.0168338 0.00751746 0.00558348 -6.18233e-05 4.04381e-05 1.04416e-10 -1.10272e-10 1.03347e-10 5e-05 1.46608e-10 
203 1 0.0797227 0.0173764 0.00721646 0.00563358 0.000210797 0.000261847 -2.90521e-11 -7.43613e-11 5.53223e-11 5e-05 1.46608e-10 
204 1 0.0733715 0.0166317 0.0076856 0.00561838 -2.07434e-06 -8.3804e-06 2.66631e-10 1.67985e-10 -1.43577e-10 5e-05 1.46608e-10 
205 1 0.0736544 0.0174853 0.00723044 0.00590594 -7.36415e-05 8.70159e-06 3.86207e-10 1.52182e-10 3.98096e-11 5e-05 1.46608e-10 
206 1 0.0736164 0.017289 0.00722511 0.00568464 -4.24458e-05 8.14033e-06 1.03684e-10 1.13706e-10 1.38936e-11 5e-05 1.46608e-10 
207 1 0.0732734 0.0162542 0.00799899 0.0059534 1.38991e-05 -2.314e-05 1.00985e-10 -1.58299e-10 1.3222e-10 5e-05 1.46608e-10 
208 1 0.0735786 0.0171108 0.0072877 0.00564506 -4.80296e-05 2.639e-05 -9.78255e-11 -3.80891e-11 5.82355e-11 5e-05 1.46608e-10 
209 1 0.0733524 0.0165561 0.00774833 0.00564501 1.13561e-05 -2.006e-05 -1.91574e-10 -2.00059e-11 6.68377e-12 5e-05 1.46608e-10 
210 1 0.0794616 0.0172854 0.007348 0.00562739 0.000148358 -2.57589e-05 -5.13901e-11 -4.32078e-11 1.82007e-11 5e-05 1.46608e-10 
211 1 0.0797447 0.0178847 0.00700931 0.00621158 8.17242e-05 0.000159319 1.12648e-10 -5.404e-11 -1.03217e-10 5e-05 1.46608e-10 
212 1 0.073694 0.0172256 0.00722355 0.00568396 -8.28374e-05 9.84466e-06 -1.42944e-10 -1.4021e-10 -3.228e-11 5e-05 1.46608e-10 
213 1 0.0796444 0.0170291 0.00739872 0.00556948 0.000101607 -4.25589e-05 -4.25879e-11 -3.92469e-12 1.44231e-11 5e-05 1.46608e-10 
214 1 0.0796749 0.0179554 0.00702047 0.00618169 9.66037e-05 -0.000192979 -2.67753e-11 -7.33868e-11 -1.05848e-10 5e-05 1.46608e-10 
215 1 0.0675345 0.0173189 0.00721503 0.00553391 -0.000553934 0.000229999 2.54502e-11 3.28113e-11 -2.97664e-11 5e-05 1.46608e-10 
216 1 0.0734641 0.0174191 0.00722832 0.00583421 -5.42233e-05 8.93971e-06 1.10507e-10 -7.29376e-12 1.61537e-11 5e-05 1.46608e-10 
217 1 0.0794325 0.0164903 0.00770859 0.00547719 1.24129e-05 8.78341e-06 -1.68723e-10 1.10187e-10 -6.47865e-11 5e-05 1.46608e-10 
218 1 0.0735788 0.0175507 0.00723205 0.0059083 -7.62201e-05 8.08422e-06 1.54383e-10 4.67596e-11 2.269e-11 5e-05 1.46608e-10 
219 1 0.0796566 0.0183016 0.00708446 0.00607613 0.000109749 -0.000523041 -8.29543e-12 7.15846e-11 1.07094e-12 5e-05 1.46608e-10 
220 1 0.0734274 0.0172226 0.00722299 0.00567866 -2.82268e-05 8.57556e-06 -4.62797e-11 -5.7257e-11 3.84874e-12 5e-05 1.46608e-10 
221 1 0.0674766 0.0170782 0.00738561 0.00543007 -0.000546734 0.00023003 1.06434e-10 6.46005e-12 -4.10006e-12 5e-05 1.46608e-10 
222 1 0.0794524 0.0165754 0.0076596 0.00560039 0.000106483 -4.50916e-05 -1.82471e-10 1.75884e-11 -1.02837e-11 5e-05 1.46608e-10 
223 1 0.073523 0.0168836 0.00747631 0.00562178 -3.30186e-05 1.57391e-05 1.16473e-10 -6.8893e-11 1.58348e-11 5e-05 1.46608e-10 
224 1 0.0733334 0.0168334 0.0075183 0.00549151 -1.80981e-05 4.17033e-06 3.75591e-11 -6.95536e-12 5.35505e-13 5e-05 1.46608e-10 
225 1 0.0798939 0.0177611 0.00704256 0.00589124 -0.000228415 0.000489363 3.70059e-10 8.65499e-11 -1.77094e-11 5e-05 1.46608e-10 
226 1 0.0737314 0.0170114 0.0073699 0.00561378 -6.40057e-05 4.42633e-05 -6.55977e-11 -1.63754e-11 1.44157e-11 5e-05 1.46608e-10 
227 1 0.0676637 0.0174814 0.00710594 0.00553956 -0.000434103 0.000221907 8.34574e-11 -1.54286e-10 1.12612e-11 5e-05 1.46608e-10 
228 1 0.0674778 0.0174665 0.0071507 0.00553647 -0.000558819 0.000222001 -1.31093e-11 -7.17047e-11 -8.85151e-12 5e-05 1.46608e-10 
229 1 0.0734842 0.0171765 0.00734972 0.00565159 -3.90982e-05 5.20938e-06 -1.58963e-10 -6.46695e-11 -2.8973e-11 5e-05 1.46608e-10 
230 1 0.0737411 0.0178757 0.00724105 0.0058458 -8.26946e-05 7.69186e-06 1.54454e-10 -1.02629e-10 1.05324e-11 5e-05 1.46608e-10 
231 1 0.0674397 0.0172927 0.00723642 0.00552445 -0.00054316 0.000223449 3.88428e-11 -5.65297e-11 4.19183e-11 5e-05 1.46608e-10 
232 1 0.073409 0.0164304 0.00785257 0.00563758 -2.04187e-05 6.13715e-06 -4.7456e-12 -9.59618e-11 8.28108e-11 5e-05 1.46608e-10 
233 1 0.0734853 0.0167325 0.00760177 0.00561129 -2.63886e-05 1.12509e-05 -3.26625e-12 -1.25229e-10 1.05886e-10 5e-05 1.46608e-10 
234 1 0.0798343 0.0182683 0.00706029 0.00611736 0.000162762 -0.000512808 6.18073e-12 -3.07802e-11 -1.28912e-11 5e-05 1.46608e-10 
235 1 0.073784 0.018071 0.00724636 0.0058259 -7.20548e-05 8.57668e-06 6.66289e-11 -4.27e-11 -1.20934e-12 5e-05 1.46608e-10 
236 1 0.0737624 0.0179734 0.0072437 0.00583211 -7.6843e-05 8.45187e-06 1.09067e-10 -6.9062e-11 -7.21632e-12 5e-05 1.46608e-10 
237 1 0.0738577 0.0180035 0.00724468 0.00582788 -7.45482e-05 8.56181e-06 1.35174e-10 1.88267e-11 1.19494e-12 5e-05 1.46608e-10 
239 1 0.0672665 0.0165726 0.00774634 0.00543178 -0.000468621 0.000175092 1.3369e-10 -1.10887e-11 1.25877e-11 5e-05 1.46608e-10 
240 1 0.0673242 0.0168128 0.00757615 0.00535386 -0.000453324 0.000166667 -9.30298e-11 -8.58907e-11 5.23226e-11 5e-05 1.46608e-10 
241 1 0.0672468 0.0164926 0.00780304 0.0054133 -0.000462859 0.00017165 8.68453e-12 -6.02139e-11 5.10285e-11 5e-05 1.46608e-10 
242 1 0.0734663 0.0166569 0.00766448 0.00560599 -1.98907e-05 5.75403e-06 3.36511e-11 -9.78779e-11 6.84975e-11 5e-05 1.46608e-10 
243 1 0.0733738 0.016922 0.00755228 0.0055139 -1.48894e-05 9.13861e-06 -2.24072e-11 4.44878e-11 -1.43902e-11 5e-05 1.46608e-10 
244 1 0.067286 0.0166526 0.00768964 0.00531088 -0.000442609 0.000160537 -1.24708e-10 -4.958e-12 8.09755e-12 5e-05 1.46608e-10 
246 1 0.0674016 0.0171376 0.00735642 0.00546282 -0.000518877 0.000210072 3.03032e-11 -3.1346e-11 2.36619e-11 5e-05 1.46608e-10 