ITEM: TIMESTEP
42400000
ITEM: NUMBER OF ATOMS
275
ITEM: BOX BOUNDS ff ff ff
-0.02 0.43
-0.02 0.06
-0.02 0.07
ITEM: ATOMS id type x y z vx vy vz fx fy fz radius mass 
1 1 0.260438 0.0179475 0.00715303 0.00619055 0.000621931 -0.000201957 -2.58818e-11 -2.31427e-11 2.95508e-12 5e-05 1.46608e-10 
2 1 0.26009 0.0168497 0.00750571 0.00626849 0.000286038 -0.00053741 -2.66187e-11 2.25402e-11 -1.82296e-10 5e-05 1.46608e-10 
4 1 0.260243 0.0167608 0.00760022 0.00617791 0.000461525 -0.000201013 6.55512e-11 9.09619e-11 1.22237e-11 5e-05 1.46608e-10 
5 1 0.259608 0.0154538 0.00926438 0.00588758 0.000174886 -0.000764275 -1.60182e-11 2.51198e-10 1.15026e-10 5e-05 1.46608e-10 
6 1 0.2661 0.016885 0.00745893 0.00615929 4.35649e-05 0.000104906 -4.46327e-12 -4.26298e-11 3.31722e-11 5e-05 1.46608e-10 
7 1 0.260382 0.0172969 0.00720865 0.00637995 0.000561802 -0.000201995 4.45213e-11 -5.32217e-11 7.87008e-12 5e-05 1.46608e-10 
8 1 0.260091 0.0165555 0.00785533 0.0058626 0.000136014 -0.000703999 6.0723e-11 -7.87609e-11 1.18799e-10 5e-05 1.46608e-10 
9 1 0.26631 0.0177522 0.00702674 0.00571292 4.92227e-05 -8.89389e-05 -7.37131e-11 3.87624e-11 -8.4564e-12 5e-05 1.46608e-10 
10 1 0.259753 0.0158116 0.00880771 0.0064348 3.53354e-05 -0.000631288 2.74486e-10 7.69305e-11 -1.52497e-10 5e-05 1.46608e-10 
11 1 0.260315 0.0175227 0.00727268 0.00634095 0.000541436 -0.000206143 3.54306e-11 3.30314e-12 -8.61403e-12 5e-05 1.46608e-10 
12 1 0.254407 0.0170642 0.00745701 0.00602898 -0.000322194 0.000355184 -8.82364e-11 -1.6282e-11 7.57727e-12 5e-05 1.46608e-10 
13 1 0.259587 0.0153932 0.00934107 0.00590437 0.000176054 -0.000779048 -1.308e-10 1.84372e-10 2.57978e-10 5e-05 1.46608e-10 
14 1 0.254385 0.0176911 0.007102 0.00522458 -0.000210925 -0.000172307 1.73701e-10 1.46393e-10 -1.88447e-11 5e-05 1.46608e-10 
16 1 0.254575 0.0181758 0.00691833 0.00571736 -0.000216228 0.000154055 -4.21717e-10 -2.4013e-10 -1.05669e-10 5e-05 1.46608e-10 
17 1 0.25973 0.0157515 0.00888422 0.00639074 4.06931e-05 -0.000637299 -1.57773e-12 3.69073e-11 -1.99564e-10 5e-05 1.46608e-10 
19 1 0.259566 0.0153327 0.00941788 0.00595611 0.000218448 -0.000749216 -1.42356e-10 -5.39696e-10 -1.92921e-10 5e-05 1.46608e-10 
21 1 0.260428 0.0174907 0.00719137 0.00635871 0.000578428 -0.000202449 -4.53353e-11 2.56729e-11 -2.44925e-12 5e-05 1.46608e-10 
22 1 0.260056 0.0164334 0.00800978 0.00576619 0.000154824 -0.000715096 -2.1351e-10 -4.57299e-11 6.6631e-11 5e-05 1.46608e-10 
23 1 0.254611 0.0179242 0.00697932 0.00522581 -0.000376249 -9.7215e-05 -2.56159e-10 -1.81877e-11 5.93263e-11 5e-05 1.46608e-10 
24 1 0.266228 0.0173912 0.00716337 0.00630836 -9.42954e-07 0.000134228 6.01474e-11 -3.85615e-11 2.51538e-11 5e-05 1.46608e-10 
25 1 0.259798 0.015932 0.00865447 0.00639439 6.63098e-05 -0.000668198 -2.08075e-11 -2.44339e-11 2.2054e-11 5e-05 1.46608e-10 
26 1 0.26627 0.0175602 0.00706465 0.00567668 9.95531e-05 6.08164e-05 -7.90466e-11 4.21915e-11 -5.46491e-11 5e-05 1.46608e-10 
27 1 0.254215 0.0170084 0.00748614 0.0060211 -0.000331403 0.000360732 4.83129e-11 -5.66398e-11 4.66059e-11 5e-05 1.46608e-10 
28 1 0.260167 0.0168073 0.00755433 0.00621177 0.000214624 -0.000505665 1.33268e-10 1.77456e-10 -8.10004e-11 5e-05 1.46608e-10 
29 1 0.259545 0.01527 0.00949287 0.00592175 0.00105237 -3.93326e-05 2.24054e-10 4.72925e-11 9.181e-11 5e-05 1.46608e-10 
30 1 0.259889 0.0161724 0.00834829 0.00616543 0.00013943 -0.000733505 -1.05884e-10 -1.91171e-10 1.97647e-10 5e-05 1.46608e-10 
31 1 0.260463 0.0172386 0.00721154 0.00639757 0.000587081 -0.000203672 -1.28608e-11 -2.57055e-12 -1.60328e-11 5e-05 1.46608e-10 
32 1 0.259822 0.0159917 0.0085782 0.00641788 7.82585e-05 -0.000680753 -1.14088e-10 -1.94657e-10 2.20409e-10 5e-05 1.46608e-10 
33 1 0.266122 0.0169694 0.00740967 0.00618215 3.49442e-05 0.000109775 1.1249e-11 -4.3002e-11 1.70327e-11 5e-05 1.46608e-10 
34 1 0.259705 0.0156945 0.00896252 0.00627198 7.14658e-05 -0.000664715 6.28059e-11 9.58924e-11 -9.38123e-11 5e-05 1.46608e-10 
35 1 0.260342 0.0171075 0.00725145 0.00642041 0.000516267 -0.000252983 2.09628e-10 -1.72915e-10 4.27153e-11 5e-05 1.46608e-10 
36 1 0.266371 0.0180427 0.00698262 0.00577779 3.18134e-05 -8.7204e-05 -4.09701e-12 1.57204e-11 -1.5484e-12 5e-05 1.46608e-10 
37 1 0.260223 0.0166939 0.00767188 0.00610768 5.30285e-05 -0.000608623 -1.17075e-11 -7.95943e-11 -3.19512e-11 5e-05 1.46608e-10 
38 1 0.260302 0.0169686 0.00739119 0.00639571 0.000498081 -0.000225427 -1.96817e-10 1.31794e-10 -1.61932e-10 5e-05 1.46608e-10 
39 1 0.26625 0.0174756 0.00711411 0.00631357 -6.49459e-06 0.000136871 1.02936e-10 -7.89858e-11 5.87173e-12 5e-05 1.46608e-10 
41 1 0.259665 0.0155785 0.0091198 0.0060092 0.000125479 -0.000711557 -3.0016e-11 1.11179e-10 -5.80182e-11 5e-05 1.46608e-10 
42 1 0.260348 0.0167954 0.00756958 0.00638651 0.000579891 -0.000310119 3.82211e-12 -6.054e-11 1.01385e-10 5e-05 1.46608e-10 
44 1 0.260409 0.0170025 0.00736135 0.00648918 0.000562362 -0.000288254 -4.56558e-11 4.11488e-11 -7.04838e-11 5e-05 1.46608e-10 
45 1 0.266143 0.0170538 0.00736041 0.0061997 2.83901e-05 0.000114639 6.90372e-12 -3.05584e-11 1.61229e-11 5e-05 1.46608e-10 
47 1 0.25968 0.0156321 0.00903663 0.00615733 0.000103716 -0.000689294 -5.63021e-11 5.85552e-11 -1.35964e-10 5e-05 1.46608e-10 
48 1 0.260297 0.0177175 0.00717564 0.00627305 0.000563748 -0.00020079 3.35166e-12 1.1613e-11 -1.70767e-11 5e-05 1.46608e-10 
49 1 0.26633 0.017849 0.00701203 0.00573999 4.3235e-05 -8.83902e-05 -3.05335e-11 6.26697e-11 2.39338e-12 5e-05 1.46608e-10 
50 1 0.259843 0.0160523 0.00850132 0.00640496 8.80009e-05 -0.000692132 -3.56201e-10 -3.02248e-10 3.12619e-10 5e-05 1.46608e-10 
51 1 0.260488 0.0173351 0.00720289 0.00637659 0.000587367 -0.000203446 1.16783e-11 1.43514e-11 -3.44633e-13 5e-05 1.46608e-10 
52 1 0.254472 0.0173153 0.00730492 0.00625271 -0.000239615 0.000309758 1.45731e-10 -1.77094e-10 1.08997e-10 5e-05 1.46608e-10 
53 1 0.266186 0.0172225 0.00726189 0.00625457 1.53914e-05 0.000123736 4.28191e-11 6.5848e-13 -2.98105e-12 5e-05 1.46608e-10 
54 1 0.260646 0.0176577 0.00717216 0.0062989 0.000654052 -0.000207084 -2.88828e-11 2.50304e-11 -8.94026e-13 5e-05 1.46608e-10 
55 1 0.254397 0.0173708 0.00726896 0.00616551 -0.000327205 0.000360208 4.95994e-11 -5.71668e-11 6.71863e-11 5e-05 1.46608e-10 
56 1 0.260625 0.0175603 0.00718079 0.00631916 0.000637509 -0.000206316 1.97182e-10 -2.40271e-11 -2.00392e-12 5e-05 1.46608e-10 
57 1 0.266164 0.0171381 0.00731115 0.0062258 2.32723e-05 0.00011797 -9.19779e-11 -2.75291e-11 1.27438e-11 5e-05 1.46608e-10 
59 1 0.378022 0.019866 0.005332 -5.01974e-15 -7.41203e-15 7.69802e-14 7.22491e-24 -6.20385e-25 4.1359e-25 5e-05 1.46608e-10 
60 1 0.260426 0.0170719 0.00729143 0.00645901 0.00056784 -0.000295078 3.818e-11 3.27977e-11 -7.254e-11 5e-05 1.46608e-10 
61 1 0.25963 0.0155139 0.0091876 0.0059339 0.000160248 -0.000735357 1.80255e-10 7.35828e-11 2.25334e-11 5e-05 1.46608e-10 
62 1 0.260324 0.0170375 0.00732196 0.00645939 0.000531667 -0.000261967 8.02177e-11 6.03602e-11 -4.53192e-11 5e-05 1.46608e-10 
63 1 0.260399 0.0179121 0.00723811 0.00620708 0.000612116 -0.000199781 -2.57738e-11 -4.06672e-11 -7.50395e-12 5e-05 1.46608e-10 
64 1 0.266207 0.0173069 0.00721263 0.006271 6.97243e-06 0.000127919 3.55969e-11 -1.60533e-11 2.04415e-11 5e-05 1.46608e-10 
65 1 0.254441 0.0175421 0.00717004 0.00573366 -0.000209521 -0.000104507 3.11267e-10 1.6574e-10 7.79855e-10 5e-05 1.46608e-10 
66 1 0.254577 0.0179224 0.0070733 0.00547408 -0.000601539 -4.66989e-07 -7.88473e-11 -1.44396e-10 1.8236e-10 5e-05 1.46608e-10 
67 1 0.260449 0.0175883 0.00718272 0.00631789 0.00059433 -0.000202063 1.02223e-10 -5.80779e-11 -6.55962e-13 5e-05 1.46608e-10 
68 1 0.260226 0.0170124 0.00734323 0.00641655 0.000511997 -0.000240049 -4.22908e-11 1.83839e-10 -2.12849e-10 5e-05 1.46608e-10 
69 1 0.26053 0.0175299 0.00718563 0.00633208 0.000615204 -0.000204318 2.49917e-10 -2.13623e-11 -1.14364e-12 5e-05 1.46608e-10 
70 1 0.266289 0.0176554 0.00704144 0.00569899 5.52189e-05 -8.68714e-05 4.70079e-11 6.61189e-11 1.3677e-11 5e-05 1.46608e-10 
71 1 0.254744 0.018141 0.00692283 0.0055524 -0.000258047 0.000161352 2.82347e-10 -2.25546e-11 3.80142e-11 5e-05 1.46608e-10 
72 1 0.260512 0.0178805 0.00715682 0.00621262 0.000648365 -0.000204663 -3.00942e-11 -5.39793e-11 3.71107e-12 5e-05 1.46608e-10 
73 1 0.259775 0.0158724 0.00873142 0.00638269 5.40666e-05 -0.000655618 2.50453e-10 1.4282e-10 -1.06993e-10 5e-05 1.46608e-10 
74 1 0.259865 0.0161127 0.00842491 0.00631396 0.000103949 -0.000704914 8.40226e-11 -4.00148e-10 3.13425e-10 5e-05 1.46608e-10 
76 1 0.254332 0.01712 0.0074209 0.00604634 -0.00030968 0.000348195 1.30464e-11 5.02767e-11 -3.02427e-11 5e-05 1.46608e-10 
77 1 0.26011 0.0169183 0.0074357 0.00632888 0.000433541 -0.000365496 -2.171e-10 -7.34845e-12 -1.78364e-10 5e-05 1.46608e-10 
78 1 0.253718 0.0154505 0.00865192 0.00554397 -0.000204837 0.000229288 6.29087e-12 9.80456e-13 3.46172e-11 5e-05 1.46608e-10 
79 1 0.254632 0.0184712 0.00692462 0.00556905 -0.000299991 0.000161477 -1.56257e-10 7.43228e-11 3.75152e-11 5e-05 1.46608e-10 
80 1 0.260186 0.0168758 0.00748417 0.00628906 0.000440538 -0.00025722 -4.56536e-11 5.83307e-11 -2.22492e-10 5e-05 1.46608e-10 
82 1 0.254501 0.0179829 0.00704837 0.00552816 -0.000523049 -7.92562e-05 9.14102e-11 -2.06784e-10 4.52915e-11 5e-05 1.46608e-10 
83 1 0.254428 0.0171477 0.00740643 0.00601558 -0.000345417 0.000368361 1.16584e-10 6.86786e-11 -9.88854e-11 5e-05 1.46608e-10 
84 1 0.26635 0.0179459 0.00699732 0.00575422 3.55771e-05 -8.77606e-05 5.62118e-11 6.23647e-11 -1.51106e-11 5e-05 1.46608e-10 
85 1 0.254784 0.0183409 0.00692712 0.00561831 -0.000251075 0.000162977 8.45523e-11 1.02472e-10 8.16235e-14 5e-05 1.46608e-10 
86 1 0.260387 0.0169337 0.00743053 0.00645592 0.000565138 -0.00029189 -3.00302e-10 2.25833e-11 -4.01856e-11 5e-05 1.46608e-10 
87 1 0.260147 0.0167394 0.00762507 0.00613203 0.000112249 -0.000630824 -4.36293e-11 4.00717e-10 3.2308e-10 5e-05 1.46608e-10 
88 1 0.260287 0.0172666 0.00721348 0.00639397 0.000536347 -0.000201958 2.5637e-11 -6.93827e-11 -7.95314e-12 5e-05 1.46608e-10 
89 1 0.260413 0.0175525 0.00726855 0.00631925 0.000610208 -0.000193529 5.76745e-11 -2.50997e-10 -6.03877e-11 5e-05 1.46608e-10 
90 1 0.26047 0.0176857 0.00717409 0.00629562 0.000610228 -0.000202729 8.96006e-11 -1.00937e-10 -2.00164e-12 5e-05 1.46608e-10 
91 1 0.254385 0.0169799 0.00750809 0.00600219 -0.000394465 0.000398062 -1.73557e-12 2.6806e-11 -1.68564e-11 5e-05 1.46608e-10 
92 1 0.260212 0.0173317 0.00722773 0.00638328 0.000527116 -0.00022805 1.99784e-11 -1.12294e-11 3.7219e-11 5e-05 1.46608e-10 
93 1 0.259942 0.0163556 0.00811668 0.00567631 0.00021803 -0.000750697 1.08583e-10 9.47529e-11 -1.16143e-10 5e-05 1.46608e-10 
94 1 0.260332 0.0176315 0.00726609 0.0063089 0.000556846 -0.000202623 1.73599e-10 -7.06301e-11 -5.46195e-11 5e-05 1.46608e-10 
95 1 0.260236 0.0171898 0.00731506 0.00645022 0.000518596 -0.000202415 -2.53608e-11 -6.35194e-12 -1.26582e-10 5e-05 1.46608e-10 
96 1 0.260192 0.0172338 0.00722264 0.00643671 0.000519864 -0.000253799 4.59184e-11 1.62671e-11 -2.46548e-10 5e-05 1.46608e-10 
97 1 0.253812 0.0157285 0.00825958 0.00554567 -0.000189894 0.000256329 -3.60117e-11 7.06025e-11 -3.19833e-11 5e-05 1.46608e-10 
98 1 0.259925 0.0162944 0.00819391 0.00578437 0.000189813 -0.000764391 5.37564e-10 -8.71279e-13 -6.53668e-11 5e-05 1.46608e-10 
99 1 0.254366 0.0180196 0.0069546 0.0056419 -0.000428214 -1.11478e-05 1.5307e-10 -5.79331e-11 -2.83394e-10 5e-05 1.46608e-10 
100 1 0.260407 0.0173934 0.0072 0.00636537 0.000572997 -0.000202219 -2.16367e-11 5.77978e-11 3.84874e-12 5e-05 1.46608e-10 
101 1 0.254386 0.018114 0.00692826 0.00579136 -0.000421825 0.000112603 -7.28262e-11 -1.03159e-10 5.04005e-11 5e-05 1.46608e-10 
102 1 0.0643568 0.0187248 0.00531097 4.54874e-15 1.04658e-14 8.29498e-14 2.79694e-21 -4.41275e-22 -8.62336e-23 5e-05 1.46608e-10 
103 1 0.24257 0.0191927 0.00520306 -1.3037e-23 -1.27651e-22 -5.81428e-22 0 0 0 5e-05 1.46608e-10 
104 1 0.254669 0.0182077 0.00692165 0.00570989 -0.000172547 0.000165091 -4.40836e-10 -2.32564e-10 6.83892e-12 5e-05 1.46608e-10 
105 1 0.253774 0.0155903 0.00839243 0.00564399 -0.000216208 0.000251088 -5.50831e-11 3.22686e-11 6.45125e-11 5e-05 1.46608e-10 
106 1 0.254482 0.0178946 0.00709151 0.0052833 -0.000645431 2.39436e-05 -6.31489e-11 1.39132e-10 -5.79772e-11 5e-05 1.46608e-10 
107 1 0.253738 0.015497 0.00856563 0.00560635 -0.000212349 0.000240366 -2.50777e-11 -3.99271e-11 7.39784e-11 5e-05 1.46608e-10 
108 1 0.260551 0.0176273 0.007177 0.00630273 0.000621301 -0.000204296 6.18673e-11 -1.55281e-10 9.81332e-12 5e-05 1.46608e-10 
109 1 0.260605 0.0174629 0.00718942 0.00636138 0.000621499 -0.000206095 7.9954e-11 1.16507e-11 -4.16449e-12 5e-05 1.46608e-10 
110 1 0.260071 0.0167835 0.00757803 0.00616169 0.000201853 -0.000652038 1.55453e-10 1.52391e-10 -1.34825e-10 5e-05 1.46608e-10 
111 1 0.260033 0.0166603 0.00773101 0.0060086 0.000161062 -0.00072094 -9.26895e-11 7.67743e-11 -1.98938e-11 5e-05 1.46608e-10 
112 1 0.253851 0.0158963 0.00815783 0.00549868 -0.000191412 0.000259988 3.15625e-11 4.29684e-11 -4.22896e-11 5e-05 1.46608e-10 
113 1 0.25429 0.0176636 0.00712005 0.00554256 -0.000455438 -7.54665e-05 -1.5389e-10 -1.24313e-10 -1.96933e-11 5e-05 1.46608e-10 
114 1 0.254328 0.0178402 0.00703414 0.00500307 -0.000341511 -9.53194e-05 -7.98669e-11 1.05694e-10 -2.87303e-12 5e-05 1.46608e-10 
115 1 0.260367 0.0168646 0.00750005 0.00645393 0.000565593 -0.000292292 5.83746e-12 -5.01596e-11 6.86699e-11 5e-05 1.46608e-10 
116 1 0.260375 0.0176553 0.00717893 0.00630034 0.000587904 -0.000201934 4.66687e-11 3.94624e-11 -2.93969e-11 5e-05 1.46608e-10 
117 1 0.260361 0.0171995 0.00721729 0.00641124 0.000545799 -0.000197885 -1.9166e-11 -3.03846e-11 3.53369e-12 5e-05 1.46608e-10 
118 1 0.254515 0.0174838 0.00720284 0.00571154 -5.03865e-05 0.000165396 2.3041e-10 -5.95547e-10 3.72535e-10 5e-05 1.46608e-10 
119 1 0.260572 0.0177246 0.00716836 0.00620245 0.000606537 -0.000200808 8.96955e-11 1.56856e-10 -1.95536e-11 5e-05 1.46608e-10 
120 1 0.260073 0.0164946 0.00793246 0.00581132 0.000145425 -0.000712807 4.41489e-12 -8.88638e-11 1.18835e-10 5e-05 1.46608e-10 
121 1 0.260381 0.0181071 0.0071411 0.00613786 0.00060086 -0.000198765 -3.97963e-12 -1.17324e-11 1.10084e-12 5e-05 1.46608e-10 
122 1 0.260171 0.0171385 0.00724418 0.00644755 0.000519025 -0.000256822 2.27359e-11 -2.8958e-11 -2.4044e-10 5e-05 1.46608e-10 
123 1 0.254764 0.0182389 0.00692496 0.00571379 -0.000169635 0.000166468 -2.50863e-10 -2.33118e-10 -1.274e-11 5e-05 1.46608e-10 
124 1 0.259962 0.0164174 0.00804068 0.00573265 0.000197319 -0.000744038 -2.82011e-10 1.09585e-10 -1.22769e-10 5e-05 1.46608e-10 
125 1 0.260265 0.0171653 0.00722246 0.0064592 0.00053411 -0.00019969 -2.01511e-11 -1.23228e-11 -8.3394e-11 5e-05 1.46608e-10 
127 1 0.253796 0.0156444 0.00831114 0.00558752 -0.000202 0.000248805 -1.60496e-10 1.31382e-10 4.66565e-11 5e-05 1.46608e-10 
128 1 0.259906 0.0162336 0.00827108 0.00598804 0.000163186 -0.00075044 -2.73808e-10 3.44596e-11 -5.16218e-12 5e-05 1.46608e-10 
129 1 0.260297 0.0174062 0.00729487 0.00638965 0.000553238 -0.000217256 -6.30574e-11 -1.16452e-11 1.94836e-12 5e-05 1.46608e-10 
130 1 0.254422 0.017868 0.00701593 0.005302 -0.000571425 -1.36395e-05 3.57082e-11 1.84398e-10 3.68817e-11 5e-05 1.46608e-10 
131 1 0.254441 0.0179563 0.00697298 0.00547891 -0.000598412 1.43587e-06 5.94762e-11 -4.86794e-12 -3.18247e-11 5e-05 1.46608e-10 
132 1 0.260262 0.0168301 0.00753056 0.00629382 0.000476914 -0.000210833 2.6039e-10 2.46065e-10 -2.52809e-10 5e-05 1.46608e-10 
133 1 0.260396 0.0177527 0.0071703 0.00625589 0.000601993 -0.000201376 -8.61179e-11 -1.05017e-11 -1.78652e-12 5e-05 1.46608e-10 
134 1 0.260354 0.0175579 0.00718756 0.00632412 0.000575337 -0.000201003 3.73494e-11 -6.04093e-11 -1.45687e-11 5e-05 1.46608e-10 
135 1 0.260509 0.0174325 0.00719426 0.00636695 0.00058783 -0.000203702 2.52715e-11 4.83528e-11 -7.1481e-12 5e-05 1.46608e-10 
136 1 0.254375 0.017287 0.00731971 0.00609581 -0.000327038 0.000358579 -3.75869e-11 -3.89366e-11 3.36835e-11 5e-05 1.46608e-10 
137 1 0.260195 0.0172809 0.00731214 0.0062865 0.000437849 -0.000311231 -3.41612e-11 -3.44391e-11 3.9062e-11 5e-05 1.46608e-10 
138 1 0.260255 0.0175227 0.0071929 0.00633842 0.000546179 -0.000198876 -7.74495e-12 -8.42074e-12 -1.96556e-11 5e-05 1.46608e-10 
140 1 0.26013 0.0169866 0.0073653 0.00638312 0.000526493 -0.000257047 -3.42701e-11 3.05594e-11 -8.63125e-11 5e-05 1.46608e-10 
141 1 0.254203 0.016618 0.00772495 0.00590476 -0.000331465 0.000357243 2.62658e-11 1.25148e-11 -1.12874e-11 5e-05 1.46608e-10 
142 1 0.254593 0.0178353 0.00702255 0.00525765 -0.000793369 0.000100693 -3.3189e-11 -1.60447e-10 6.92883e-11 5e-05 1.46608e-10 
143 1 0.253756 0.0155437 0.00847895 0.00564153 -0.000214867 0.000247668 9.83129e-11 -2.15921e-11 7.40173e-11 5e-05 1.46608e-10 
144 1 0.254555 0.0176585 0.00710858 0.00516891 -0.000474619 -4.63191e-05 5.69188e-11 6.80852e-11 -3.77712e-11 5e-05 1.46608e-10 
146 1 0.253889 0.0160618 0.00805817 0.00548629 -0.000199871 0.000257874 1.34923e-11 1.95373e-11 -1.13429e-11 5e-05 1.46608e-10 
147 1 0.254404 0.0177797 0.0070589 0.00513153 -0.000541523 -1.34324e-05 -1.86626e-11 1.32684e-10 -6.7262e-13 5e-05 1.46608e-10 
148 1 0.254224 0.0167016 0.00767434 0.00592093 -0.000334841 0.000360112 8.28846e-11 1.8079e-11 -8.47641e-12 5e-05 1.46608e-10 
149 1 0.259996 0.0165385 0.00788516 0.00589093 0.000163829 -0.00074341 1.95819e-11 7.56495e-11 2.48198e-11 5e-05 1.46608e-10 
150 1 0.25459 0.0186367 0.00692593 0.00559435 -0.000296995 0.00016127 -1.27022e-10 5.70929e-11 -1.85386e-11 5e-05 1.46608e-10 
151 1 0.25452 0.0183418 0.00691928 0.00549945 -0.000275575 0.000157476 -9.35643e-11 1.58729e-10 -7.78328e-11 5e-05 1.46608e-10 
153 1 0.254246 0.0167853 0.00762361 0.00591744 -0.000352365 0.000370428 9.69988e-11 -1.37912e-11 1.34631e-11 5e-05 1.46608e-10 
154 1 0.253887 0.0159762 0.00810979 0.00549311 -0.000192177 0.0002611 -5.44232e-11 3.21369e-11 -6.15158e-11 5e-05 1.46608e-10 
155 1 0.253909 0.0161454 0.00800677 0.00548857 -0.000203558 0.000267518 -1.80982e-11 -2.02179e-11 1.86654e-11 5e-05 1.46608e-10 
156 1 0.254181 0.0165344 0.00777561 0.0059057 -0.000309257 0.000343626 5.40832e-11 -8.16196e-11 4.6e-11 5e-05 1.46608e-10 
157 1 0.0219312 0.0187687 0.00551176 -3.83673e-14 8.16621e-14 2.95884e-13 6.18059e-22 4.54381e-22 -4.3427e-23 5e-05 1.46608e-10 
158 1 0.254289 0.0169523 0.00752245 0.0059905 -0.000360377 0.000377407 4.0105e-11 -4.46938e-11 3.22668e-11 5e-05 1.46608e-10 
159 1 0.260282 0.0168995 0.00746071 0.00639978 0.000501071 -0.00022847 1.31066e-10 3.66627e-11 -5.9772e-11 5e-05 1.46608e-10 
160 1 0.254406 0.0182119 0.00692835 0.00566982 -0.000392339 0.000149371 -3.58994e-10 7.92628e-11 4.44382e-11 5e-05 1.46608e-10 
162 1 0.254536 0.0181724 0.00701062 0.0057214 -0.000272659 0.000117308 -3.10874e-10 7.45349e-11 -6.78221e-11 5e-05 1.46608e-10 
164 1 0.253969 0.0163967 0.00785442 0.00576168 -0.00025643 0.000307879 -8.19597e-11 8.36423e-11 -4.11953e-11 5e-05 1.46608e-10 
165 1 0.254615 0.0183726 0.0069226 0.00558924 -0.000302186 0.00016021 -2.94843e-10 1.29696e-10 -1.36927e-11 5e-05 1.46608e-10 
166 1 0.260276 0.0176201 0.00718427 0.00630623 0.000554675 -0.000199722 4.70785e-11 1.77655e-11 -5.3514e-12 5e-05 1.46608e-10 
167 1 0.254483 0.0185879 0.00692199 0.00557093 -0.000316591 0.00016046 -3.86534e-11 2.20787e-11 -7.28444e-12 5e-05 1.46608e-10 
168 1 0.254661 0.0185668 0.00692698 0.00557128 -0.000303406 0.00015843 -6.92692e-11 1.12456e-10 2.21101e-11 5e-05 1.46608e-10 
169 1 0.254503 0.0186858 0.0069241 0.00559605 -0.000302355 0.000162469 1.90943e-11 1.06957e-10 -4.55819e-12 5e-05 1.46608e-10 
170 1 0.254567 0.0185425 0.00695052 0.0055674 -0.000294797 0.000160681 3.61491e-11 2.05108e-10 3.96822e-11 5e-05 1.46608e-10 
171 1 0.260459 0.0180449 0.0071444 0.0061586 0.000628281 -0.00020176 -8.01606e-12 -1.80898e-11 1.14665e-12 5e-05 1.46608e-10 
172 1 0.254269 0.0175758 0.00716304 0.00609481 -0.000592326 -9.97471e-05 -6.66043e-11 -5.45519e-11 -3.19771e-13 5e-05 1.46608e-10 
173 1 0.260491 0.0177831 0.00716546 0.00623535 0.000646945 -0.000205002 -8.66309e-11 -8.20589e-11 8.40293e-12 5e-05 1.46608e-10 
174 1 0.254012 0.0165638 0.00775321 0.0058877 -0.000282183 0.000326925 3.25498e-11 6.70223e-11 -4.22228e-11 5e-05 1.46608e-10 
176 1 0.254322 0.0174277 0.00723433 0.00611941 -0.000444143 0.000257904 2.59367e-11 1.24009e-10 1.55344e-11 5e-05 1.46608e-10 
177 1 0.254004 0.0161724 0.00799267 0.00549126 -0.000219379 0.000278542 -3.43222e-11 -1.37899e-10 5.75847e-11 5e-05 1.46608e-10 
178 1 0.254344 0.0177505 0.00717107 0.00521881 -0.000274436 -0.000131432 1.80757e-10 -1.49641e-10 -8.01725e-12 5e-05 1.46608e-10 
179 1 0.254462 0.0182764 0.00700313 0.00561696 -0.000316712 0.000134396 -1.54523e-11 -1.78768e-10 -2.44101e-10 5e-05 1.46608e-10 
182 1 0.260402 0.0182044 0.00713247 0.00610437 0.000607473 -0.000198542 -2.32586e-12 -1.78382e-11 1.69716e-12 5e-05 1.46608e-10 
183 1 0.254391 0.0179972 0.00704891 0.00551547 -0.000586679 -1.27775e-06 4.36706e-11 1.82441e-11 -5.91481e-11 5e-05 1.46608e-10 
184 1 0.26034 0.0177664 0.00725169 0.00625042 0.000578053 -0.000200181 -1.12354e-10 8.11147e-11 -3.87996e-11 5e-05 1.46608e-10 
185 1 0.254574 0.0177468 0.00706561 0.00536777 -0.000506788 -4.06546e-05 -2.47754e-10 1.39247e-10 -5.80832e-11 5e-05 1.46608e-10 
186 1 0.254858 0.0182739 0.00692829 0.00570083 -0.000158532 0.000167295 2.51797e-10 -1.54019e-11 -5.75302e-12 5e-05 1.46608e-10 
187 1 0.260417 0.0178501 0.00716166 0.00622419 0.000611373 -0.000201616 -4.11623e-11 -5.40262e-11 -3.47824e-14 5e-05 1.46608e-10 
188 1 0.260248 0.0170817 0.00727442 0.00643548 0.000514393 -0.00024307 7.15727e-11 1.1047e-10 -3.46405e-11 5e-05 1.46608e-10 
189 1 0.26036 0.0180097 0.00714974 0.00617103 0.000593273 -0.000198921 -2.50338e-12 -1.0659e-11 7.84124e-13 5e-05 1.46608e-10 
190 1 0.248418 0.0182692 0.00700382 0.00596089 0.000763811 -0.000266023 9.78438e-11 -1.83812e-10 -5.88825e-11 5e-05 1.46608e-10 
191 1 0.260015 0.0165993 0.00780805 0.00596876 0.000151406 -0.000736553 -3.82031e-10 7.60198e-11 -4.47825e-11 5e-05 1.46608e-10 
192 1 0.25431 0.0177518 0.00707711 0.00506962 -0.000362491 -8.96977e-05 -8.3641e-11 1.44759e-11 8.15697e-12 5e-05 1.46608e-10 
193 1 0.26048 0.0181422 0.00713577 0.00612578 0.000634918 -0.000201351 -5.29112e-13 -1.81204e-11 1.17995e-12 5e-05 1.46608e-10 
194 1 0.254521 0.0180735 0.00701054 0.00571176 -0.000456359 0.000144036 4.24057e-11 -3.75941e-11 -3.55942e-10 5e-05 1.46608e-10 
195 1 0.254501 0.0182428 0.00691716 0.00565103 -0.00032504 0.000158777 -1.54043e-11 -2.18781e-10 -9.9583e-12 5e-05 1.46608e-10 
196 1 0.254536 0.0179866 0.00695363 0.00570527 -0.000565719 -3.43562e-05 -1.28358e-10 2.86597e-10 -1.75232e-10 5e-05 1.46608e-10 
197 1 0.248094 0.0168774 0.00757918 0.0061612 0.000333031 -0.000801221 -8.88498e-11 1.41891e-10 -9.54147e-11 5e-05 1.46608e-10 
198 1 0.25445 0.0172314 0.00735575 0.00606652 -0.000353601 0.000375428 1.05289e-10 -7.3088e-11 1.71939e-11 5e-05 1.46608e-10 
199 1 0.254438 0.0181563 0.00700514 0.0057345 -0.000401239 0.0001271 -1.32193e-10 1.06299e-10 4.38706e-11 5e-05 1.46608e-10 
200 1 0.253831 0.0158124 0.00820875 0.00552281 -0.000191119 0.000257071 1.14852e-10 2.88167e-11 -6.52531e-11 5e-05 1.46608e-10 
201 1 0.254595 0.0182747 0.00692048 0.00562722 -0.000295749 0.000164995 1.86671e-10 1.44277e-10 -2.32255e-11 5e-05 1.46608e-10 
202 1 0.25431 0.0170359 0.00747182 0.00602615 -0.000361957 0.000378608 -6.3006e-11 -5.77514e-11 3.80919e-11 5e-05 1.46608e-10 
203 1 0.260333 0.0174604 0.0071962 0.00635914 0.000565888 -0.000201352 -4.45255e-11 -2.35289e-11 -6.7518e-12 5e-05 1.46608e-10 
204 1 0.254631 0.0180123 0.00693639 0.00469164 -0.000267203 -0.000114642 4.23639e-10 -1.06851e-10 7.51386e-11 5e-05 1.46608e-10 
205 1 0.25415 0.0167579 0.00763791 0.00593278 -0.000320853 0.000351242 5.42867e-11 2.75551e-12 -6.1562e-12 5e-05 1.46608e-10 
206 1 0.254193 0.016925 0.00753671 0.00599013 -0.000328633 0.000358248 2.2709e-11 -3.13486e-11 2.64663e-11 5e-05 1.46608e-10 
207 1 0.254065 0.0164237 0.00784038 0.00575723 -0.000283828 0.000323967 1.55521e-10 -9.46324e-11 6.37846e-11 5e-05 1.46608e-10 
208 1 0.254494 0.0173991 0.00725415 0.00639072 -1.5706e-05 0.000176924 1.84334e-10 -2.56813e-10 1.79802e-10 5e-05 1.46608e-10 
209 1 0.254419 0.0174549 0.00721803 0.00624535 -0.000179077 0.000262166 6.19386e-11 -2.23312e-10 1.95115e-10 5e-05 1.46608e-10 
210 1 0.26011 0.0166164 0.00777822 0.00593111 0.000121754 -0.000691372 -1.87385e-10 -5.67532e-11 8.29346e-11 5e-05 1.46608e-10 
211 1 0.260129 0.0166772 0.00770114 0.00601203 0.000101855 -0.000676664 -4.33776e-11 3.34663e-11 1.93512e-10 5e-05 1.46608e-10 
212 1 0.25469 0.0183058 0.00692379 0.00558953 -0.000258413 0.000163553 4.03539e-10 2.72325e-10 1.6392e-11 5e-05 1.46608e-10 
213 1 0.260339 0.0179123 0.00715837 0.00620459 0.000584051 -0.000198807 -1.22872e-11 -1.67167e-11 -4.64624e-12 5e-05 1.46608e-10 
214 1 0.260206 0.0169432 0.00741283 0.00634914 0.000474128 -0.000206038 1.91768e-10 8.65372e-11 -1.12839e-10 5e-05 1.46608e-10 
215 1 0.248315 0.01778 0.00700594 0.00597806 0.000825191 -7.23274e-05 -8.29488e-11 -2.31352e-11 2.51452e-11 5e-05 1.46608e-10 
216 1 0.254044 0.01634 0.00789109 0.00560425 -0.000251953 0.000300727 1.11799e-10 -1.36795e-10 8.81905e-11 5e-05 1.46608e-10 
217 1 0.260423 0.0183018 0.00712384 0.00607073 0.000613777 -0.000198276 -9.53756e-12 -3.44792e-11 3.02974e-12 5e-05 1.46608e-10 
218 1 0.254347 0.0179285 0.00699116 0.00534191 -0.000397491 -7.6252e-05 -1.82229e-10 1.07868e-10 -1.31048e-10 5e-05 1.46608e-10 
219 1 0.259978 0.0164774 0.00796237 0.00580814 0.000179206 -0.000743071 1.50378e-10 8.28636e-11 1.32065e-11 5e-05 1.46608e-10 
220 1 0.254459 0.0180466 0.00692911 0.00576545 -0.000490084 -1.13457e-05 -1.92009e-10 -2.147e-11 -2.00508e-10 5e-05 1.46608e-10 
222 1 0.260442 0.0171414 0.00722136 0.00643519 0.000570938 -0.000300923 -1.18659e-10 2.18749e-11 1.05493e-11 5e-05 1.46608e-10 
224 1 0.254236 0.017092 0.00743552 0.0060469 -0.000337135 0.000362945 -3.79059e-11 -9.03515e-11 4.11361e-11 5e-05 1.46608e-10 
225 1 0.260052 0.0167211 0.00765388 0.00606708 0.000176485 -0.000698355 1.49919e-10 1.3671e-10 -5.60728e-11 5e-05 1.46608e-10 
226 1 0.254464 0.0178056 0.00713461 0.00512007 -0.000626218 2.38829e-05 1.75392e-10 2.12208e-10 6.39121e-11 5e-05 1.46608e-10 
227 1 0.248336 0.0178778 0.00700344 0.00598851 0.000820445 -0.0001553 -8.92557e-11 1.79856e-10 6.04596e-12 5e-05 1.46608e-10 
228 1 0.24828 0.0176045 0.00709127 0.00583819 0.000842365 -9.77706e-05 -6.38039e-10 9.06871e-11 -3.1195e-11 5e-05 1.46608e-10 
229 1 0.254709 0.0184074 0.00692593 0.00557258 -0.000301469 0.000161932 -1.03414e-10 5.70914e-11 -1.14939e-12 5e-05 1.46608e-10 
230 1 0.25414 0.017065 0.00744957 0.00602051 -0.000315514 0.000351422 -9.19899e-11 -5.54735e-11 3.79689e-11 5e-05 1.46608e-10 
232 1 0.254561 0.0182721 0.00701451 0.00553731 -0.000307795 0.000147375 1.43301e-10 1.31768e-11 -1.42275e-10 5e-05 1.46608e-10 
233 1 0.254463 0.0184899 0.00691987 0.00556225 -0.00033623 0.000160412 -1.45234e-10 -1.20594e-11 -7.961e-12 5e-05 1.46608e-10 
234 1 0.260391 0.017455 0.0072772 0.00636995 0.000559128 -0.000207509 1.01398e-11 -7.59878e-13 -6.91412e-12 5e-05 1.46608e-10 
235 1 0.254097 0.0168979 0.00755077 0.0059695 -0.000308392 0.0003446 1.83258e-11 -4.1756e-12 9.10594e-13 5e-05 1.46608e-10 
236 1 0.254205 0.0173189 0.00730375 0.00606248 -0.000378607 0.000256974 -3.52514e-11 5.406e-11 1.45875e-10 5e-05 1.46608e-10 
237 1 0.254226 0.0174036 0.00725519 0.00608534 -0.00048092 9.75889e-05 -3.77863e-11 1.69541e-10 1.444e-10 5e-05 1.46608e-10 
239 1 0.247987 0.0164971 0.00788587 0.0060246 0.000436661 -0.000869734 -8.59593e-11 -3.68274e-10 2.92773e-10 5e-05 1.46608e-10 
240 1 0.24805 0.0167256 0.00770175 0.00611556 0.000355096 -0.000812685 -2.54679e-10 3.5858e-11 -4.86238e-12 5e-05 1.46608e-10 
241 1 0.247966 0.016421 0.00794725 0.00598913 0.000459613 -0.000884681 -1.33373e-10 -2.65357e-10 2.19767e-10 5e-05 1.46608e-10 
242 1 0.254363 0.0168958 0.00755902 0.00594082 -0.000407794 0.000404693 8.07395e-11 -1.32438e-12 2.14884e-12 5e-05 1.46608e-10 
243 1 0.254517 0.0178958 0.00699775 0.00536144 -0.00070831 5.27625e-05 -1.04716e-10 3.8946e-11 -2.92301e-11 5e-05 1.46608e-10 
244 1 0.248008 0.0165733 0.0078245 0.00605171 0.000402221 -0.000845299 1.77219e-11 -4.00745e-10 3.17823e-10 5e-05 1.46608e-10 
246 1 0.248196 0.0172588 0.00727271 0.0064512 0.000637153 -0.000212066 5.09425e-11 3.28379e-10 -4.26743e-10 5e-05 1.46608e-10 
247 1 0.254033 0.0166473 0.0077026 0.00590579 -0.000293992 0.000334475 4.8705e-11 7.30684e-11 -3.69846e-11 5e-05 1.46608e-10 
248 1 0.254366 0.0176027 0.00714505 0.0056949 -0.000296556 -0.000156581 3.42489e-11 -1.52711e-11 1.07195e-11 5e-05 1.46608e-10 
249 1 0.248133 0.0170301 0.00745629 0.00629194 0.000281537 -0.000778824 -3.43666e-11 -8.48823e-11 -6.0069e-11 5e-05 1.46608e-10 
250 1 0.254107 0.0165908 0.00773913 0.00589827 -0.00031243 0.000345378 8.03718e-11 2.90515e-11 -6.94603e-12 5e-05 1.46608e-10 
251 1 0.260308 0.017364 0.00720485 0.00637339 0.000542015 -0.000204339 -1.17228e-10 -2.98233e-11 1.17554e-11 5e-05 1.46608e-10 
252 1 0.248217 0.0173405 0.00721911 0.00643497 0.000773944 -1.972e-05 -3.75056e-10 3.0225e-10 -2.77218e-10 5e-05 1.46608e-10 
253 1 0.248397 0.0181713 0.00700264 0.00597689 0.000783094 -0.000268154 -2.29589e-11 -1.65799e-10 -1.61866e-11 5e-05 1.46608e-10 
254 1 0.248157 0.0171055 0.0073952 0.00633024 0.000273938 -0.000739336 4.37746e-10 7.91399e-11 -6.53838e-11 5e-05 1.46608e-10 
255 1 0.2537 0.0154039 0.00873841 0.00551023 -0.000198292 0.000220348 6.61455e-11 4.30324e-11 -8.16455e-11 5e-05 1.46608e-10 
256 1 0.254649 0.0181091 0.00691952 0.00558395 -0.000380648 0.000160532 -1.03402e-10 3.54808e-11 -7.21212e-12 5e-05 1.46608e-10 
257 1 0.254267 0.0168688 0.00757302 0.00596523 -0.000359158 0.000375394 8.15475e-11 -2.48064e-11 2.48912e-11 5e-05 1.46608e-10 
258 1 0.254344 0.0175152 0.00719046 0.00614948 -0.000402026 0.00010685 -4.29241e-11 1.00402e-10 5.50749e-10 5e-05 1.46608e-10 