ITEM: TIMESTEP
58600000
ITEM: NUMBER OF ATOMS
275
ITEM: BOX BOUNDS ff ff ff
-0.02 0.43
-0.02 0.06
-0.02 0.07
ITEM: ATOMS id type x y z vx vy vz fx fy fz radius mass 
1 1 0.354889 0.0179262 0.00706789 0.00594441 -0.000572166 -4.71133e-05 -4.1425e-10 -2.02821e-10 1.17749e-10 5e-05 1.46608e-10 
2 1 0.354647 0.0172446 0.0075296 0.0056428 -0.000142008 -0.000197968 1.31184e-10 8.15756e-11 8.05324e-11 5e-05 1.46608e-10 
4 1 0.354768 0.0169818 0.00756196 0.00537022 -0.000214515 -0.000192639 1.99035e-10 -2.60321e-10 1.61875e-10 5e-05 1.46608e-10 
5 1 0.354336 0.0159749 0.00814822 0.00588218 0.000474095 0.000985949 -3.85498e-11 -6.79178e-11 2.97899e-11 5e-05 1.46608e-10 
6 1 0.360598 0.017053 0.00747586 0.00552277 0.000292961 -0.000106094 -1.36566e-12 4.61101e-11 -3.21356e-11 5e-05 1.46608e-10 
7 1 0.354934 0.0177043 0.0071798 0.00583395 -0.000505937 -7.94904e-05 -3.71077e-10 2.6299e-10 -2.97418e-11 5e-05 1.46608e-10 
8 1 0.354609 0.0166888 0.00772218 0.00549231 -0.000225545 -0.000198877 8.20551e-11 3.895e-10 -2.36552e-10 5e-05 1.46608e-10 
9 1 0.36079 0.0178883 0.00696087 0.00576087 0.000251542 -7.65107e-05 1.84746e-10 1.60225e-10 -1.02373e-10 5e-05 1.46608e-10 
10 1 0.354588 0.0166023 0.00776798 0.00565107 -0.000292576 -0.0001752 -2.4081e-10 6.5705e-10 -2.8859e-10 5e-05 1.46608e-10 
11 1 0.355016 0.018365 0.00692602 0.00614545 -0.000414337 0.000386292 -5.3865e-11 3.56676e-11 -1.44527e-11 5e-05 1.46608e-10 
12 1 0.348829 0.0172633 0.0073381 0.00550627 -5.14727e-05 -5.96277e-05 2.67393e-11 1.26618e-11 1.44253e-11 5e-05 1.46608e-10 
13 1 0.354315 0.0159071 0.00821854 0.00603581 0.000459865 0.00103585 3.09721e-10 -1.98339e-10 2.56631e-10 5e-05 1.46608e-10 
14 1 0.348781 0.0174335 0.00728138 0.0055485 -0.000436815 7.06951e-05 -8.02569e-11 1.99088e-11 -3.26166e-11 5e-05 1.46608e-10 
16 1 0.349033 0.0181753 0.00702777 0.006102 -0.000215309 -1.31574e-05 1.45764e-10 -7.28879e-11 2.05668e-11 5e-05 1.46608e-10 
17 1 0.354438 0.0163855 0.00788845 0.00565052 -0.000216333 -0.000216131 2.25747e-10 -1.55618e-10 6.09617e-11 5e-05 1.46608e-10 
19 1 0.354293 0.0158393 0.00828876 0.00606865 0.000482715 0.00103103 -9.80586e-11 -2.12527e-10 1.82305e-10 5e-05 1.46608e-10 
21 1 0.354821 0.0176538 0.00721229 0.00591157 -0.000236786 -0.000215267 -3.93235e-10 -1.68493e-10 1.65927e-10 5e-05 1.46608e-10 
22 1 0.354912 0.0172227 0.00742943 0.0058844 0.000379313 -0.000534945 -1.66584e-10 3.03494e-10 -1.77395e-10 5e-05 1.46608e-10 
23 1 0.349109 0.0181131 0.00704769 0.00607618 -0.000236112 -5.7368e-06 1.18414e-10 -1.58987e-10 5.12359e-11 5e-05 1.46608e-10 
24 1 0.360713 0.0175542 0.00716686 0.00567561 0.000277177 -9.08599e-05 6.44832e-11 1.46189e-10 -8.40641e-11 5e-05 1.46608e-10 
25 1 0.354707 0.0167193 0.00770081 0.00533787 -0.000131877 -0.000238718 -2.4847e-10 2.59598e-10 -8.75459e-11 5e-05 1.46608e-10 
26 1 0.360752 0.0177212 0.00706386 0.00570208 0.000260667 -8.78103e-05 -6.23868e-11 -1.98633e-10 5.76835e-11 5e-05 1.46608e-10 
27 1 0.348675 0.0169548 0.00744426 0.00553778 -6.63049e-05 -5.70126e-05 -7.61146e-11 -4.5853e-11 -5.07086e-12 5e-05 1.46608e-10 
28 1 0.35454 0.0168181 0.00765946 0.00533951 -0.000170142 -0.000209495 4.47192e-10 -3.31427e-11 1.22218e-12 5e-05 1.46608e-10 
29 1 0.354271 0.0157715 0.00835897 0.00606758 0.000484249 0.00102857 5.82416e-11 6.61608e-11 -1.81713e-11 5e-05 1.46608e-10 
30 1 0.354559 0.0169001 0.00771351 0.00536928 -0.000152743 -0.000203938 3.99389e-10 1.36376e-10 -2.18147e-11 5e-05 1.46608e-10 
31 1 0.354845 0.0177469 0.00716291 0.00591916 -0.000337489 -0.000169224 -3.77232e-10 2.8417e-10 2.18633e-11 5e-05 1.46608e-10 
32 1 0.354458 0.0164719 0.00784267 0.00565172 -0.000200369 -0.000217909 -4.6629e-11 1.08968e-10 -1.37024e-10 5e-05 1.46608e-10 
33 1 0.360617 0.0171365 0.00742436 0.00554247 0.000287446 -0.000102264 5.9249e-12 8.53177e-11 -4.88131e-11 5e-05 1.46608e-10 
34 1 0.354417 0.016299 0.00793424 0.00565065 -0.000209921 -0.000205311 2.57513e-10 -6.50672e-11 4.38947e-10 5e-05 1.46608e-10 
35 1 0.354865 0.0174325 0.00732388 0.00582599 -0.000164786 -0.000249789 1.57877e-10 -3.45114e-10 1.6712e-10 5e-05 1.46608e-10 
36 1 0.360849 0.0181821 0.00697293 0.00623466 0.0001831 -9.03465e-05 5.76895e-11 -1.04883e-10 -2.21022e-11 5e-05 1.46608e-10 
37 1 0.354747 0.0168939 0.00760847 0.00531252 -0.000156139 -0.000224654 -5.39005e-12 -1.10015e-10 5.375e-11 5e-05 1.46608e-10 
38 1 0.354821 0.0172604 0.00741524 0.00572296 4.17011e-05 -0.000360099 -5.61477e-10 1.68393e-11 -4.54133e-11 5e-05 1.46608e-10 
39 1 0.360732 0.0176377 0.00711536 0.00567824 0.000264103 -8.69787e-05 1.01955e-10 4.13078e-12 2.93325e-11 5e-05 1.46608e-10 
41 1 0.354376 0.0161264 0.00802646 0.00571835 -0.000127939 -4.13254e-05 -1.28129e-10 -2.02945e-10 -3.32282e-11 5e-05 1.46608e-10 
42 1 0.355033 0.0177345 0.00715851 0.00585434 -0.000639407 -6.5414e-06 1.12522e-10 3.81882e-11 -7.30983e-11 5e-05 1.46608e-10 
44 1 0.355058 0.017924 0.00705934 0.00597421 -0.000537581 -6.18575e-05 1.08131e-10 -3.01997e-10 9.73661e-11 5e-05 1.46608e-10 
45 1 0.360636 0.0172201 0.00737286 0.0055705 0.000286351 -0.000101048 2.32681e-11 9.63371e-11 -6.09515e-11 5e-05 1.46608e-10 
47 1 0.354397 0.0162125 0.00798003 0.00567251 -0.000181409 -0.000142628 -2.03579e-10 -8.18635e-11 3.81929e-10 5e-05 1.46608e-10 
48 1 0.354684 0.0174531 0.0073237 0.00573731 -0.000260808 -0.000190652 1.88125e-10 1.10069e-10 -1.61056e-11 5e-05 1.46608e-10 
49 1 0.360809 0.0179864 0.00696491 0.00600701 0.000206861 -8.58579e-05 -1.86511e-10 3.95667e-11 -6.95112e-11 5e-05 1.46608e-10 
50 1 0.354479 0.0165584 0.00779689 0.00566916 -0.000197843 -0.000221525 1.71451e-10 4.21623e-10 -2.38125e-10 5e-05 1.46608e-10 
51 1 0.355095 0.0184243 0.00694242 0.00616396 -0.000442783 0.00037745 1.71102e-10 2.71648e-10 1.41809e-11 5e-05 1.46608e-10 
52 1 0.349022 0.0189536 0.00686941 0.00564773 -2.69348e-05 -0.000143542 8.86346e-12 1.59364e-11 5.13177e-11 5e-05 1.46608e-10 
53 1 0.360675 0.0173871 0.00726986 0.00560934 0.000284505 -0.000101737 9.92235e-11 -1.06234e-10 4.71444e-11 5e-05 1.46608e-10 
54 1 0.354895 0.0182038 0.00702022 0.00582765 -0.000592781 0.000131126 5.15091e-10 -6.25218e-10 -3.81101e-10 5e-05 1.46608e-10 
55 1 0.349021 0.0174499 0.00727248 0.00563337 -0.000231594 7.71588e-07 -4.67065e-11 2.38563e-11 2.94503e-12 5e-05 1.46608e-10 
56 1 0.354823 0.0180594 0.00700299 0.00611598 -0.000343893 -0.000171607 6.82999e-11 9.05499e-10 -7.35918e-10 5e-05 1.46608e-10 
57 1 0.360655 0.0173036 0.00732136 0.00559675 0.000284169 -0.000100796 1.08428e-10 7.62499e-11 -1.1229e-12 5e-05 1.46608e-10 
59 1 0.378022 0.019866 0.005332 -5.02009e-15 -7.41204e-15 7.69802e-14 1.31832e-24 -1.55096e-25 2.06795e-25 5e-05 1.46608e-10 
60 1 0.355117 0.0180438 0.0069942 0.00606547 -0.000408151 -0.000140712 2.71e-10 -3.76198e-10 2.91512e-11 5e-05 1.46608e-10 
61 1 0.354356 0.0160428 0.00807736 0.00569222 0.000481352 0.00092828 -2.51554e-10 -1.97535e-10 -1.47308e-10 5e-05 1.46608e-10 
62 1 0.354845 0.0173459 0.0073697 0.00586834 -0.000160866 -0.000251394 -7.51275e-11 -2.51222e-10 9.54632e-11 5e-05 1.46608e-10 
63 1 0.354909 0.0180128 0.00702207 0.00594567 -0.000575234 -5.39361e-05 1.87586e-10 -3.04679e-10 -8.52118e-11 5e-05 1.46608e-10 
64 1 0.360694 0.0174707 0.00721836 0.00564574 0.000287446 -9.97337e-05 -2.402e-10 -3.12626e-11 -2.99318e-11 5e-05 1.46608e-10 
65 1 0.348754 0.0173262 0.00731797 0.00551147 -4.88745e-05 -5.7559e-05 -4.10167e-11 2.77976e-11 1.19259e-11 5e-05 1.46608e-10 
66 1 0.349004 0.0188555 0.00686374 0.00588781 -7.16074e-05 -0.000141992 -3.11148e-10 4.93827e-11 -1.73311e-12 5e-05 1.46608e-10 
67 1 0.355029 0.018089 0.00697596 0.00594969 -0.000503685 0.000104329 3.19307e-10 -1.5905e-10 3.39797e-10 5e-05 1.46608e-10 
68 1 0.354687 0.0170356 0.00753883 0.0053607 -0.000235274 -0.000183876 1.91642e-10 -1.86062e-10 2.44369e-11 5e-05 1.46608e-10 
69 1 0.354928 0.0185288 0.00694877 0.00611412 -0.000428212 0.000374857 -3.25842e-11 2.30069e-10 2.19348e-11 5e-05 1.46608e-10 
70 1 0.360772 0.0178046 0.00701248 0.00576212 0.000255279 -8.03895e-05 2.04851e-10 -5.19347e-11 -7.66047e-11 5e-05 1.46608e-10 
71 1 0.349096 0.0188881 0.00684556 0.00583402 0.000154664 -7.62577e-05 -1.94057e-10 -9.22311e-11 -3.31798e-11 5e-05 1.46608e-10 
72 1 0.354865 0.0182401 0.0069318 0.00611817 -0.000334349 0.000108391 4.30249e-10 4.83505e-10 4.98043e-10 5e-05 1.46608e-10 
73 1 0.35497 0.0174707 0.00729819 0.00636807 0.000445213 -0.000595344 9.10576e-11 7.18226e-11 -7.75135e-11 5e-05 1.46608e-10 
74 1 0.354538 0.0168136 0.00775935 0.00534024 -0.000152812 -0.000218568 1.10998e-10 1.46569e-10 1.81942e-10 5e-05 1.46608e-10 
76 1 0.348695 0.0170476 0.00741269 0.00553644 -6.65283e-05 -6.18486e-05 -2.11017e-10 -7.09312e-11 4.57861e-12 5e-05 1.46608e-10 
77 1 0.354784 0.0173722 0.00744446 0.00581093 -0.000269569 -0.000209981 -2.49245e-10 -2.64477e-10 -1.36578e-10 5e-05 1.46608e-10 
78 1 0.348296 0.015881 0.00831559 0.00607853 0.000260744 0.000263582 1.22573e-10 1.80394e-10 -2.32341e-10 5e-05 1.46608e-10 
79 1 0.348939 0.0185704 0.00689587 0.00624419 -0.000179698 -2.71443e-05 -7.19277e-11 -3.19353e-11 2.17112e-11 5e-05 1.46608e-10 
80 1 0.354648 0.0168622 0.0076305 0.00530736 -0.000206336 -0.000196839 -5.26245e-11 1.33431e-10 6.82627e-13 5e-05 1.46608e-10 
82 1 0.349227 0.0185982 0.00688222 0.00617995 -0.0001202 -6.10057e-05 -2.95013e-10 1.41553e-10 -9.73785e-11 5e-05 1.46608e-10 
83 1 0.348939 0.017397 0.00729149 0.00558129 -0.000165842 -2.32113e-05 -8.26532e-11 6.4232e-12 -3.94426e-11 5e-05 1.46608e-10 
84 1 0.360828 0.0180846 0.00696896 0.00625186 0.000171996 -9.05416e-05 4.64915e-11 -6.6891e-11 -3.48951e-11 5e-05 1.46608e-10 
85 1 0.349134 0.0186331 0.00687197 0.00618792 -0.00010308 -6.69165e-05 -1.94911e-10 3.23957e-10 -4.58356e-11 5e-05 1.46608e-10 
86 1 0.355055 0.0178239 0.00711115 0.00597117 -0.000600083 -3.37063e-05 3.1565e-10 1.37565e-10 -5.0308e-11 5e-05 1.46608e-10 
87 1 0.354628 0.0167755 0.00767634 0.00529405 -0.000189553 -0.000201315 2.89459e-10 2.31263e-10 -8.1464e-11 5e-05 1.46608e-10 
88 1 0.35496 0.017885 0.00718684 0.00587116 -0.00044768 -7.92578e-05 1.2605e-10 -2.40648e-10 1.05562e-10 5e-05 1.46608e-10 
89 1 0.35496 0.0182842 0.00690745 0.00603197 -0.00033895 0.000395892 4.25674e-11 -2.75205e-10 -1.03024e-10 5e-05 1.46608e-10 
90 1 0.355051 0.0181818 0.00694542 0.00602092 -0.00045152 0.000297311 4.93538e-10 -1.0054e-10 3.55711e-10 5e-05 1.46608e-10 
91 1 0.348809 0.0171705 0.00736968 0.00551384 -5.35898e-05 -5.94443e-05 1.32747e-11 -5.05693e-11 1.57066e-11 5e-05 1.46608e-10 
92 1 0.354723 0.0175292 0.00737545 0.0057642 -0.000257007 -0.0001991 1.18082e-10 2.54462e-10 1.827e-10 5e-05 1.46608e-10 
93 1 0.355045 0.0186546 0.00697986 0.00607551 -0.000387737 0.000379467 9.76954e-11 1.36839e-10 4.78192e-11 5e-05 1.46608e-10 
94 1 0.354789 0.017793 0.00723687 0.00594365 -0.00033727 -0.000198973 -9.86919e-11 -2.22611e-10 3.86719e-10 5e-05 1.46608e-10 
95 1 0.354869 0.0178396 0.00711371 0.00589335 -0.000549383 -5.70499e-05 -4.42381e-10 -5.01616e-10 2.17816e-10 5e-05 1.46608e-10 
96 1 0.354618 0.0171649 0.00747611 0.0055473 -0.000227221 -0.00019895 -1.14285e-10 -3.13276e-10 1.71056e-10 5e-05 1.46608e-10 
97 1 0.34851 0.016247 0.0078011 0.00561653 0.000261258 0.00020417 3.98433e-10 -9.68469e-11 5.5892e-10 5e-05 1.46608e-10 
98 1 0.35497 0.0187207 0.00698616 0.00604742 -0.000420517 0.000370933 1.88097e-10 4.28495e-10 6.36965e-11 5e-05 1.46608e-10 
99 1 0.348752 0.0177515 0.00720672 0.00591314 -0.000130395 -4.10486e-05 -1.62485e-11 -4.02312e-11 3.43031e-11 5e-05 1.46608e-10 
100 1 0.354954 0.0177908 0.00713401 0.00593634 -0.000540729 -6.75369e-05 -1.12651e-10 4.88666e-11 -5.49649e-11 5e-05 1.46608e-10 
101 1 0.348771 0.0178301 0.00714783 0.00592632 -0.000130051 -3.97139e-05 1.81538e-10 -1.07899e-10 3.20786e-11 5e-05 1.46608e-10 
102 1 0.0643568 0.0187248 0.00531097 4.07134e-15 1.05776e-14 8.296e-14 -1.71044e-21 3.24048e-22 4.63221e-23 5e-05 1.46608e-10 
103 1 0.24257 0.0191927 0.00520306 9.7161e-23 4.86658e-23 1.23839e-22 0 0 0 5e-05 1.46608e-10 
104 1 0.349088 0.0183523 0.00696733 0.00615439 -0.000226102 -1.02719e-05 6.26485e-11 -7.10015e-11 1.98182e-11 5e-05 1.46608e-10 
105 1 0.348496 0.0161905 0.00788253 0.0057105 0.000268112 0.000208509 1.32141e-10 -3.28592e-10 4.91756e-10 5e-05 1.46608e-10 
106 1 0.34886 0.0180203 0.00717286 0.00603728 -0.000168098 -2.98611e-05 7.94915e-11 7.29758e-11 -2.77771e-11 5e-05 1.46608e-10 
107 1 0.348317 0.015937 0.00823564 0.00609084 0.000259252 0.000266869 -2.70123e-11 7.98944e-11 -1.78342e-10 5e-05 1.46608e-10 
108 1 0.354843 0.018146 0.00695718 0.00607405 -0.000374178 -0.000191641 -4.75308e-10 6.93936e-10 -8.82114e-10 5e-05 1.46608e-10 
109 1 0.355002 0.0184627 0.00694246 0.00613344 -0.000410471 0.000380117 -1.19994e-10 8.31343e-11 1.87056e-11 5e-05 1.46608e-10 
110 1 0.35483 0.0175554 0.00735274 0.0059855 -0.000342749 -0.000247077 -9.50016e-11 -4.66589e-11 3.55594e-11 5e-05 1.46608e-10 
111 1 0.35461 0.0169774 0.00766158 0.00529515 -0.000218304 -0.000191336 2.86928e-11 2.57516e-11 5.83335e-11 5e-05 1.46608e-10 
112 1 0.34863 0.0163531 0.00770897 0.00558772 -0.000289599 -0.00042999 6.57219e-11 -2.41791e-10 8.41149e-11 5e-05 1.46608e-10 
113 1 0.348669 0.0173764 0.00730375 0.00550879 -5.70934e-05 -4.7506e-05 5.42398e-11 9.60729e-11 3.892e-11 5e-05 1.46608e-10 
114 1 0.348709 0.0175613 0.0072393 0.00589124 -0.000134237 -3.72891e-05 -1.82744e-11 -1.68342e-11 9.0158e-12 5e-05 1.46608e-10 
115 1 0.354812 0.017156 0.00746955 0.00571778 -0.000122577 -0.000265952 5.41002e-11 1.43431e-10 -6.99115e-11 5e-05 1.46608e-10 
116 1 0.3548 0.0175672 0.00725817 0.00580894 -0.000292994 -0.000185279 -1.97052e-10 -3.71853e-12 8.65155e-11 5e-05 1.46608e-10 
117 1 0.354907 0.0176068 0.00723163 0.00606018 -3.9157e-05 -0.000328617 -4.02459e-10 3.79126e-10 -1.41873e-10 5e-05 1.46608e-10 
118 1 0.348891 0.0174831 0.00726311 0.00590202 -0.000122261 -4.18854e-05 2.10549e-11 2.53167e-11 -3.20762e-11 5e-05 1.46608e-10 
119 1 0.354885 0.0183368 0.0069477 0.00611598 -0.000460703 0.000746552 3.55564e-10 2.84687e-10 -4.58108e-10 5e-05 1.46608e-10 
120 1 0.354886 0.017048 0.00752102 0.00574965 0.000363216 -0.000516612 4.68063e-10 -4.74727e-11 1.46856e-11 5e-05 1.46608e-10 
121 1 0.354744 0.0177127 0.00718629 0.00587342 -0.000290259 -0.000193839 -1.42276e-10 -2.74944e-10 1.67535e-10 5e-05 1.46608e-10 
122 1 0.354598 0.0170782 0.00752194 0.00531752 -0.000193088 -0.000210832 -6.43195e-10 -1.59037e-10 1.82795e-10 5e-05 1.46608e-10 
123 1 0.349063 0.0191393 0.00693129 0.0056446 -2.43193e-05 -0.000136752 -2.77291e-12 2.37089e-11 8.84837e-12 5e-05 1.46608e-10 
124 1 0.354939 0.0173127 0.00738146 0.00636982 0.000975258 -0.000867031 -2.67099e-11 -1.70557e-10 9.15745e-11 5e-05 1.46608e-10 
125 1 0.35473 0.0172082 0.00744735 0.00558177 -0.00029564 -0.000169755 4.15997e-11 -1.06456e-10 2.27623e-11 5e-05 1.46608e-10 
127 1 0.348375 0.0161055 0.0079944 0.00578975 0.000268 0.000219352 -1.37322e-10 -2.66586e-11 1.53649e-11 5e-05 1.46608e-10 
128 1 0.354847 0.0169258 0.00758631 0.00549411 -6.6381e-05 -0.000282254 8.00893e-11 -1.32668e-10 1.02187e-10 5e-05 1.46608e-10 
129 1 0.355009 0.0180025 0.00702167 0.00594149 -0.000564532 -3.47464e-05 3.08272e-10 -2.96317e-10 4.53217e-11 5e-05 1.46608e-10 
130 1 0.348824 0.0176194 0.00721813 0.00589252 -0.000139675 -3.51598e-05 -1.06426e-10 -2.93898e-11 1.01227e-11 5e-05 1.46608e-10 
131 1 0.348842 0.0177133 0.00718622 0.00591443 -0.000126318 -3.98426e-05 -3.97679e-11 -8.70851e-11 2.45282e-12 5e-05 1.46608e-10 
132 1 0.354789 0.0170701 0.00751519 0.00561142 -0.000154492 -0.000240814 2.51594e-10 -2.10853e-10 9.38074e-11 5e-05 1.46608e-10 
133 1 0.354741 0.0176163 0.00732994 0.00579506 -0.000267004 -0.000203615 1.30434e-10 1.13807e-10 2.03075e-10 5e-05 1.46608e-10 
134 1 0.35478 0.0174806 0.007304 0.00577542 -0.00026616 -0.000194028 -3.24631e-11 -7.43846e-11 7.08757e-11 5e-05 1.46608e-10 
135 1 0.354949 0.0186248 0.00696746 0.00608526 -0.000422588 0.000373535 7.86362e-11 3.17e-10 8.67681e-11 5e-05 1.46608e-10 
136 1 0.348734 0.0172333 0.00734954 0.00552801 -5.87705e-05 -5.91118e-05 2.32546e-11 2.09707e-11 2.64845e-11 5e-05 1.46608e-10 
137 1 0.35488 0.0177386 0.0072564 0.0058526 -0.000432485 -0.000130893 -8.78139e-10 1.8848e-10 1.66567e-10 5e-05 1.46608e-10 
138 1 0.354661 0.0173419 0.00746642 0.00578955 -0.000291004 -0.000175867 -3.04924e-10 -2.09899e-11 -2.72986e-10 5e-05 1.46608e-10 
140 1 0.354559 0.0169048 0.00761362 0.00533043 -0.000202761 -0.000197592 1.41512e-10 -4.48091e-11 1.29377e-13 5e-05 1.46608e-10 
141 1 0.348692 0.01662 0.00757615 0.00574454 -0.000103034 -0.000538154 7.30108e-11 -5.7968e-11 4.55245e-11 5e-05 1.46608e-10 
142 1 0.349086 0.0180187 0.00707983 0.00602102 -0.000226603 -9.11667e-06 9.07193e-12 -2.06266e-11 -7.91892e-14 5e-05 1.46608e-10 
143 1 0.348338 0.0159931 0.00815556 0.00568859 0.000284365 0.000187387 -1.5086e-10 9.34239e-11 -1.42863e-10 5e-05 1.46608e-10 
144 1 0.34903 0.0178224 0.00714678 0.00595282 -0.00023439 -3.38279e-06 1.03071e-10 1.68794e-11 -7.52156e-11 5e-05 1.46608e-10 
146 1 0.348683 0.0172423 0.00752467 0.00553412 -6.64967e-05 -6.10611e-05 -1.11603e-10 1.39561e-10 -3.90269e-11 5e-05 1.46608e-10 
147 1 0.348802 0.0175269 0.00724961 0.00589736 -0.000125805 -4.13061e-05 -1.754e-11 -8.28061e-12 -9.11248e-12 5e-05 1.46608e-10 
148 1 0.348712 0.016708 0.00753244 0.00552652 -0.000221373 -0.000456117 1.71388e-10 7.82464e-12 -3.40513e-12 5e-05 1.46608e-10 
149 1 0.3545 0.0166449 0.00775109 0.0056763 -0.000202154 -0.000222332 -3.01584e-10 5.32434e-10 -1.8924e-10 5e-05 1.46608e-10 
150 1 0.348897 0.0183854 0.00695884 0.00617727 -0.000180294 -2.54381e-05 1.47397e-11 -5.1791e-11 9.47311e-12 5e-05 1.46608e-10 
151 1 0.348812 0.0180153 0.00708482 0.00604707 -0.00016231 -3.10187e-05 -3.33834e-11 1.82066e-11 -7.53941e-12 5e-05 1.46608e-10 
153 1 0.348731 0.0167991 0.00749598 0.0055598 -6.01625e-05 -5.68732e-05 4.75631e-11 2.01436e-11 -2.23279e-11 5e-05 1.46608e-10 
154 1 0.348358 0.0160492 0.00807523 0.00573665 0.000277559 0.000204542 -3.03075e-10 5.95274e-11 -1.45583e-10 5e-05 1.46608e-10 
155 1 0.348684 0.0174585 0.0073702 0.00573131 -0.000136443 -5.14739e-05 2.46282e-11 1.37823e-10 -7.31749e-11 5e-05 1.46608e-10 
156 1 0.348648 0.0164413 0.00766536 0.00563472 -0.000295806 -0.000431385 2.51501e-10 -1.07535e-10 2.38392e-11 5e-05 1.46608e-10 
157 1 0.0219312 0.0187687 0.00551176 -3.826e-14 8.17036e-14 2.95887e-13 -1.15234e-21 -2.48361e-22 -7.94093e-23 5e-05 1.46608e-10 
158 1 0.34877 0.0169848 0.00743283 0.00553684 -5.67663e-05 -5.90285e-05 6.76023e-11 -2.22759e-11 2.02331e-11 5e-05 1.46608e-10 
159 1 0.354667 0.0169489 0.00758466 0.00530615 -0.000216131 -0.000190622 1.3651e-10 -1.13054e-10 1.21934e-10 5e-05 1.46608e-10 
160 1 0.348791 0.0179227 0.00711632 0.00601369 -0.00015462 -3.34038e-05 2.73945e-11 -5.16078e-11 -7.32634e-12 5e-05 1.46608e-10 
162 1 0.349043 0.0190464 0.00690034 0.00554658 -7.27265e-06 -0.000128301 1.2184e-10 1.86362e-11 -7.72414e-12 5e-05 1.46608e-10 
164 1 0.348529 0.0163231 0.00773343 0.00543803 -0.000325033 -0.000399229 -1.01875e-10 1.08278e-10 -1.09067e-10 5e-05 1.46608e-10 
165 1 0.348952 0.0182315 0.00700996 0.00612425 -0.000196631 -2.00028e-05 4.8935e-11 -1.41937e-10 4.36184e-11 5e-05 1.46608e-10 
166 1 0.354664 0.0173664 0.00736953 0.00567037 -0.000249484 -0.000181779 -2.67493e-10 1.31462e-10 -4.48589e-11 5e-05 1.46608e-10 
167 1 0.349035 0.0186005 0.00688438 0.00626085 -0.000186247 -2.51972e-05 8.5869e-11 -1.52635e-11 -5.59905e-12 5e-05 1.46608e-10 
168 1 0.34907 0.0187958 0.00681806 0.00603797 7.69107e-05 -0.000113005 -2.73825e-10 -4.06064e-11 3.46259e-11 5e-05 1.46608e-10 
169 1 0.348855 0.0182006 0.00702252 0.00613413 -0.000180781 -2.73113e-05 5.21842e-12 -3.33413e-11 1.34035e-12 5e-05 1.46608e-10 
170 1 0.349013 0.0185067 0.00691632 0.00621269 -0.000207185 -1.72467e-05 1.09314e-11 -1.92881e-11 5.77051e-12 5e-05 1.46608e-10 
171 1 0.35493 0.0181004 0.00697853 0.00600239 -0.000531208 2.67641e-05 4.72332e-11 4.30749e-12 2.63945e-11 5e-05 1.46608e-10 
172 1 0.348649 0.0172831 0.00733395 0.00552429 -6.54921e-05 -5.35243e-05 1.27964e-11 3.83083e-11 2.27729e-11 5e-05 1.46608e-10 
173 1 0.355023 0.0185586 0.00696116 0.00610716 -0.000400054 0.000376788 -8.7499e-11 1.13216e-10 -2.8582e-11 5e-05 1.46608e-10 
174 1 0.348639 0.0170761 0.00749034 0.00554586 -6.83403e-05 -6.87975e-05 -1.15105e-10 -4.56661e-11 2.49629e-11 5e-05 1.46608e-10 
176 1 0.348953 0.0179857 0.00718329 0.00602444 -0.000193066 -1.62973e-05 8.89116e-11 4.85243e-11 -8.83694e-12 5e-05 1.46608e-10 
177 1 0.348395 0.0161807 0.00793164 0.00580312 0.000251104 0.000225777 -2.0563e-11 4.8963e-11 3.70537e-10 5e-05 1.46608e-10 
178 1 0.348795 0.0179054 0.00721473 0.0060244 -0.000137086 -3.33376e-05 1.31422e-10 -2.04283e-11 2.43146e-11 5e-05 1.46608e-10 
179 1 0.349112 0.0185396 0.00690385 0.00625063 -0.000188174 -2.63552e-05 1.23634e-10 -3.95499e-11 2.07799e-11 5e-05 1.46608e-10 
182 1 0.354783 0.0178862 0.0070946 0.00599279 -0.000329581 -0.000179015 -7.19171e-10 2.85358e-10 -9.09067e-11 5e-05 1.46608e-10 
183 1 0.348974 0.0182035 0.00710345 0.00610872 -0.000192267 -1.67059e-05 1.57246e-10 -1.44936e-10 3.57005e-11 5e-05 1.46608e-10 
184 1 0.35506 0.0182761 0.00691336 0.00609704 -0.000434368 0.000370082 3.87553e-10 -3.63974e-12 1.43716e-10 5e-05 1.46608e-10 
185 1 0.349065 0.0179263 0.00711128 0.00600392 -0.000221364 -9.41566e-06 1.32404e-10 -6.83254e-11 1.21528e-11 5e-05 1.46608e-10 
186 1 0.348981 0.0187593 0.00684795 0.00615159 -0.000152656 -8.96489e-05 -2.11685e-10 1.35018e-11 -7.5464e-11 5e-05 1.46608e-10 
187 1 0.354763 0.0177996 0.00714042 0.00593048 -0.000318912 -0.000183019 -1.24946e-10 -2.40521e-10 8.13795e-11 5e-05 1.46608e-10 
188 1 0.354707 0.0171223 0.00749299 0.00550373 -0.000273105 -0.000172187 -6.78863e-11 -2.52401e-10 9.7084e-11 5e-05 1.46608e-10 
189 1 0.354723 0.0176263 0.00723206 0.00582783 -0.000269736 -0.000198817 -3.07363e-10 -7.19844e-11 1.78256e-10 5e-05 1.46608e-10 
190 1 0.342816 0.0180333 0.00712718 0.00597516 -0.000351567 -0.000588837 3.30355e-12 -2.14515e-11 2.11369e-12 5e-05 1.46608e-10 
191 1 0.354767 0.0172877 0.00749524 0.00574052 -0.000298957 -0.000291688 5.09766e-11 -2.97032e-10 -4.0441e-11 5e-05 1.46608e-10 
192 1 0.348688 0.0174687 0.00727082 0.00569428 -9.5755e-05 -4.7284e-05 2.49483e-11 5.10269e-11 -8.81976e-12 5e-05 1.46608e-10 
193 1 0.354951 0.0181898 0.00693905 0.00601928 -0.00042836 0.000201784 3.20809e-10 -6.35866e-11 -6.19631e-11 5e-05 1.46608e-10 
194 1 0.349059 0.018696 0.00685185 0.00621762 -7.10699e-05 -5.22294e-05 -7.19949e-11 2.62189e-10 -1.00325e-10 5e-05 1.46608e-10 
195 1 0.348908 0.0180445 0.0070736 0.00606844 -0.000185648 -2.32117e-05 1.4819e-10 -7.40549e-11 1.29529e-11 5e-05 1.46608e-10 
196 1 0.34899 0.0179903 0.00709075 0.00604548 -0.000211702 -1.18798e-05 2.3181e-10 -4.70674e-11 1.75891e-11 5e-05 1.46608e-10 
197 1 0.342493 0.0165969 0.00769828 0.00556533 0.000240683 0.000727581 2.99238e-11 1.65963e-11 -3.5188e-11 5e-05 1.46608e-10 
198 1 0.349026 0.0176376 0.00720915 0.00577926 -0.000231066 1.03206e-06 2.4037e-11 -1.24986e-11 -2.52631e-11 5e-05 1.46608e-10 
199 1 0.349082 0.0182577 0.0069993 0.0061202 -0.000224695 -1.02028e-05 6.84646e-11 -6.23513e-11 2.15343e-11 5e-05 1.46608e-10 
200 1 0.348478 0.0161343 0.00796317 0.00579969 0.000269726 0.000217018 -4.65222e-11 -2.68018e-10 5.07137e-10 5e-05 1.46608e-10 
201 1 0.348929 0.0181371 0.00704211 0.00611183 -0.000198058 -1.78853e-05 4.86686e-11 -1.26959e-10 1.27189e-11 5e-05 1.46608e-10 
202 1 0.34879 0.0170776 0.00740125 0.00552321 -5.4758e-05 -5.89594e-05 -1.51498e-11 -4.62916e-11 2.07452e-12 5e-05 1.46608e-10 
203 1 0.35476 0.0173939 0.00734982 0.00577218 -0.000253077 -0.000196617 1.71754e-10 6.54538e-11 -9.01558e-11 5e-05 1.46608e-10 
204 1 0.349178 0.0183995 0.00695005 0.00617762 -0.000241216 -2.00049e-05 2.56006e-11 -6.54451e-11 3.84163e-11 5e-05 1.46608e-10 
205 1 0.348617 0.0166822 0.00755445 0.00561111 -0.000219846 -0.000389121 8.00196e-11 -4.28907e-11 -2.26896e-11 5e-05 1.46608e-10 
206 1 0.348656 0.016862 0.00747584 0.00554011 -6.40622e-05 -5.71544e-05 2.48227e-11 -2.07501e-11 -2.03426e-11 5e-05 1.46608e-10 
207 1 0.348453 0.0163862 0.00772317 0.00560862 -7.44996e-05 -0.000205013 8.54102e-11 3.40809e-10 6.63971e-10 5e-05 1.46608e-10 
208 1 0.348848 0.0173574 0.00730612 0.00553428 -8.59035e-05 -4.80904e-05 -5.06931e-11 -3.01966e-12 3.44781e-11 5e-05 1.46608e-10 
209 1 0.34863 0.0171911 0.00736796 0.00552811 -7.27241e-05 -6.88804e-05 -9.4598e-11 -2.70524e-12 4.60421e-11 5e-05 1.46608e-10 
210 1 0.354728 0.0168067 0.00765459 0.0053457 -0.000154302 -0.000226671 -3.95859e-10 4.23863e-10 -1.92998e-10 5e-05 1.46608e-10 
211 1 0.35452 0.0167314 0.00770529 0.00546924 -0.000176945 -0.000222599 2.2109e-10 2.35365e-10 1.08702e-11 5e-05 1.46608e-10 
212 1 0.349091 0.018447 0.00693536 0.00618797 -0.000228244 -1.0214e-05 6.15406e-12 -6.35028e-11 7.55139e-12 5e-05 1.46608e-10 
213 1 0.354704 0.0175397 0.00727788 0.0057883 -0.000264639 -0.000196743 -1.45771e-11 9.86725e-12 9.43341e-11 5e-05 1.46608e-10 
214 1 0.354886 0.0175204 0.0072774 0.00597096 -8.0309e-05 -0.000303272 -1.84721e-10 -1.17426e-10 1.21152e-10 5e-05 1.46608e-10 
215 1 0.342708 0.0175545 0.00720945 0.0060112 0.000187744 0.00083002 -3.15736e-11 -2.49726e-11 -1.28634e-11 5e-05 1.46608e-10 
216 1 0.348433 0.0163078 0.00778197 0.00561685 0.000199673 0.00015196 1.14027e-10 1.90389e-10 6.27162e-10 5e-05 1.46608e-10 
217 1 0.354803 0.0179741 0.00705133 0.00607491 -0.000334475 -0.000177797 3.34872e-11 7.32496e-10 -1.75518e-10 5e-05 1.46608e-10 
218 1 0.34873 0.0176538 0.00720783 0.00589982 -0.000130465 -3.94706e-05 -6.80345e-11 -3.96681e-11 1.26283e-11 5e-05 1.46608e-10 
219 1 0.354909 0.0171339 0.00747537 0.00582375 0.000338784 -0.000507574 6.75635e-11 1.77104e-10 -1.27715e-10 5e-05 1.46608e-10 
220 1 0.348866 0.0178592 0.00713669 0.00599086 -0.000176284 -2.50569e-05 3.05303e-11 6.06982e-11 -2.49991e-11 5e-05 1.46608e-10 
222 1 0.354974 0.0178774 0.00708818 0.00598808 -0.0005603 -5.27343e-05 -1.63864e-10 -1.66459e-10 6.60915e-11 5e-05 1.46608e-10 
224 1 0.348551 0.0168216 0.00749929 0.00553722 -0.000188404 -0.000359234 1.857e-10 6.10113e-11 -9.81161e-11 5e-05 1.46608e-10 
225 1 0.354643 0.0170892 0.00761072 0.00533885 -0.00017669 -0.000220002 6.88266e-11 -1.70557e-10 7.02197e-11 5e-05 1.46608e-10 
226 1 0.348965 0.0180806 0.00714751 0.00605345 -0.00018216 -1.11722e-05 7.5619e-11 4.26545e-11 5.38296e-11 5e-05 1.46608e-10 
227 1 0.342731 0.0176454 0.00717416 0.00595721 -0.000350149 -0.000586532 -2.11187e-11 -2.15527e-11 1.97937e-11 5e-05 1.46608e-10 
228 1 0.342669 0.0173787 0.0072963 0.0056158 0.000237623 0.000743449 -4.02996e-11 1.98933e-11 -9.30988e-12 5e-05 1.46608e-10 
229 1 0.34896 0.018663 0.00686436 0.00627306 -0.000183345 -2.78986e-05 -1.78802e-11 -7.51148e-11 3.39925e-12 5e-05 1.46608e-10 
230 1 0.348661 0.017169 0.00746033 0.00551894 -6.5869e-05 -6.31246e-05 -2.65299e-11 1.2002e-11 4.18031e-11 5e-05 1.46608e-10 
232 1 0.348992 0.0184142 0.0069478 0.00621754 -0.000178866 -2.68503e-05 8.09735e-11 6.28479e-11 -2.18526e-11 5e-05 1.46608e-10 
233 1 0.348901 0.0182729 0.00708507 0.00612468 -0.000201158 -2.31198e-05 -6.3074e-11 -1.94681e-10 2.46098e-11 5e-05 1.46608e-10 
234 1 0.354907 0.0184329 0.00693007 0.00614656 -0.000498288 0.000373948 4.13044e-10 -9.16875e-10 -4.27709e-10 5e-05 1.46608e-10 
235 1 0.348532 0.0167322 0.00753943 0.00560992 -0.00024418 -0.000454813 1.80102e-10 8.2598e-11 -1.79305e-10 5e-05 1.46608e-10 
236 1 0.348856 0.0175981 0.00731054 0.00589968 -0.00016825 -4.39862e-05 -3.14117e-11 1.22314e-10 5.70074e-12 5e-05 1.46608e-10 
237 1 0.34861 0.0170975 0.00739708 0.00553459 -7.68138e-05 -6.70176e-05 -1.46322e-10 -1.91553e-11 5.00986e-11 5e-05 1.46608e-10 
239 1 0.342396 0.0162134 0.00798426 0.00559806 -0.00088365 -0.000429553 1.22412e-11 1.0061e-12 1.61518e-11 5e-05 1.46608e-10 
240 1 0.342453 0.0164159 0.007772 0.00557322 0.000239596 0.000738159 8.3289e-11 5.90657e-11 -4.86405e-11 5e-05 1.46608e-10 
241 1 0.342378 0.0161617 0.00806779 0.00554686 -0.000872504 -0.000432021 -4.04894e-12 -2.10513e-11 3.56225e-11 5e-05 1.46608e-10 
242 1 0.34901 0.0175441 0.00724088 0.00570686 -0.000222685 -5.67479e-06 -2.97711e-11 8.23163e-12 -4.55622e-12 5e-05 1.46608e-10 
243 1 0.348969 0.017898 0.00712305 0.00600112 -0.000200995 -1.66334e-05 1.21515e-10 -3.34036e-12 3.9423e-11 5e-05 1.46608e-10 
244 1 0.342415 0.0162721 0.00790539 0.00565949 -0.000849926 -0.000393935 2.60306e-11 1.06154e-11 -3.16309e-11 5e-05 1.46608e-10 
246 1 0.34259 0.0170271 0.00747004 0.00549568 0.000252111 0.000718603 -5.92855e-11 5.11309e-11 -6.64439e-11 5e-05 1.46608e-10 
247 1 0.348472 0.0164694 0.00767114 0.00564488 -0.000231268 -0.000432389 8.46801e-11 1.5604e-10 1.06404e-10 5e-05 1.46608e-10 
248 1 0.348838 0.017808 0.00721814 0.00591485 -0.00013105 -3.76096e-05 9.92422e-11 -1.31538e-10 5.81021e-11 5e-05 1.46608e-10 
249 1 0.342532 0.0167657 0.00759924 0.00544057 0.000257925 0.00070644 4.8208e-12 3.80056e-11 -5.34716e-13 5e-05 1.46608e-10 
250 1 0.348578 0.0165121 0.00765155 0.0056511 -0.000264031 -0.000442673 8.67772e-11 -4.5111e-11 2.78077e-11 5e-05 1.46608e-10 
251 1 0.354729 0.0172979 0.00740317 0.00561406 -0.000309646 -0.000225097 -3.17445e-10 2.8283e-11 -1.07716e-10 5e-05 1.46608e-10 
252 1 0.34261 0.017115 0.00742659 0.00550004 0.000248789 0.000720918 1.17789e-11 9.42021e-11 -4.18109e-11 5e-05 1.46608e-10 
253 1 0.342795 0.0179364 0.00713895 0.00596972 -0.000349332 -0.00058847 -4.27984e-11 -6.61275e-11 1.82147e-11 5e-05 1.46608e-10 
254 1 0.342555 0.0168589 0.0075709 0.00547047 0.000252295 0.000712336 3.36474e-11 2.75853e-11 -2.50946e-11 5e-05 1.46608e-10 
255 1 0.348934 0.0178638 0.00720999 0.00597888 -0.000190265 -1.822e-05 5.20916e-11 3.24052e-11 -2.127e-11 5e-05 1.46608e-10 
256 1 0.3492 0.0184932 0.00691807 0.00622841 -0.000221927 -2.56285e-05 1.79394e-10 -7.32506e-11 2.2775e-11 5e-05 1.46608e-10 
257 1 0.348751 0.0168919 0.0074644 0.00555724 -6.03055e-05 -5.75419e-05 6.67099e-11 9.43832e-12 1.08091e-11 5e-05 1.46608e-10 
258 1 0.3488 0.0176976 0.00727576 0.00590068 -0.000131652 -3.92522e-05 -1.27098e-10 -4.99182e-11 -5.23848e-12 5e-05 1.46608e-10 