ITEM: TIMESTEP
33600000
ITEM: NUMBER OF ATOMS
275
ITEM: BOX BOUNDS ff ff ff
-0.02 0.43
-0.02 0.06
-0.02 0.07
ITEM: ATOMS id type x y z vx vy vz fx fy fz radius mass 
1 1 0.209184 0.0182506 0.00694979 0.00631775 0.000190737 0.000136929 1.88927e-11 1.00074e-10 -1.63849e-11 5e-05 1.46608e-10 
2 1 0.208823 0.0170032 0.00732197 0.00570748 0.000260458 -4.0293e-05 -2.44565e-11 8.15011e-11 -6.6812e-11 5e-05 1.46608e-10 
4 1 0.208974 0.0168899 0.00738986 0.00572353 8.80081e-05 -0.000371455 7.65742e-11 -1.10197e-10 9.89349e-11 5e-05 1.46608e-10 
5 1 0.208363 0.015355 0.00884198 0.00621925 0.000425893 0.000123269 -2.42855e-11 -5.34732e-11 6.02076e-11 5e-05 1.46608e-10 
6 1 0.214806 0.0170161 0.00759352 0.00570633 0.00024227 0.000473 -7.10637e-11 -1.16142e-10 2.0114e-10 5e-05 1.46608e-10 
7 1 0.209186 0.0175703 0.00715049 0.00625016 4.07291e-05 0.000175374 8.88571e-11 -1.38746e-10 1.23098e-11 5e-05 1.46608e-10 
8 1 0.208822 0.0166399 0.00759931 0.00559873 5.65571e-05 -0.000340503 -2.55442e-11 9.75753e-13 2.0232e-12 5e-05 1.46608e-10 
9 1 0.214996 0.0177862 0.00700329 0.00627067 -0.000133404 -0.00015852 -7.16596e-11 9.35245e-11 1.27142e-10 5e-05 1.46608e-10 
10 1 0.208489 0.0157222 0.00838532 0.00567585 0.000448894 3.20689e-05 -6.64058e-11 -3.32941e-11 3.53981e-11 5e-05 1.46608e-10 
11 1 0.208966 0.0176707 0.00720266 0.00620662 0.000191191 0.000114613 3.23732e-10 -1.68577e-10 -6.90153e-12 5e-05 1.46608e-10 
12 1 0.203096 0.0171018 0.0074852 0.00580637 -0.000141967 -0.000266252 3.77374e-12 -1.67897e-11 7.66733e-12 5e-05 1.46608e-10 
13 1 0.208343 0.0153014 0.00892401 0.00622745 0.000427755 0.000122046 -1.70133e-11 -5.58091e-11 6.36306e-11 5e-05 1.46608e-10 
14 1 0.20307 0.0177301 0.00713363 0.00612808 -0.000131874 -0.000289525 -1.03974e-10 1.10897e-10 -4.15083e-11 5e-05 1.46608e-10 
16 1 0.203344 0.0181339 0.00693681 0.0058069 -0.000242813 -0.0017019 -4.91149e-10 5.62498e-10 -5.65421e-10 5e-05 1.46608e-10 
17 1 0.20847 0.0156647 0.00846477 0.00570042 0.000484628 6.1761e-05 1.16533e-11 -6.40875e-11 4.33028e-11 5e-05 1.46608e-10 
19 1 0.20832 0.0152332 0.00899335 0.0062362 0.00042864 0.000120597 -2.09106e-11 -5.17283e-11 6.51128e-11 5e-05 1.46608e-10 
21 1 0.209239 0.0177566 0.00709717 0.00621137 0.000124115 0.000151637 -1.86246e-12 -1.24909e-10 3.42023e-11 5e-05 1.46608e-10 
22 1 0.208783 0.0164881 0.00772368 0.00550533 7.05328e-05 -0.000346576 -3.56796e-11 1.15456e-11 -4.12855e-12 5e-05 1.46608e-10 
23 1 0.203301 0.0179505 0.00699596 0.00606369 -0.000128861 -0.000285199 -2.74689e-10 2.10572e-10 -7.09227e-11 5e-05 1.46608e-10 
24 1 0.214917 0.0174558 0.00720057 0.00617248 0.000185216 0.000583046 -5.03567e-10 -1.99719e-10 2.75249e-10 5e-05 1.46608e-10 
25 1 0.20853 0.0158603 0.00824668 0.00591195 0.000107416 -0.000238353 8.86412e-11 -6.53384e-11 -2.05981e-11 5e-05 1.46608e-10 
26 1 0.214953 0.0176024 0.00706946 0.00565078 0.000248835 0.000465597 -2.79502e-11 5.73451e-11 -5.80753e-11 5e-05 1.46608e-10 
27 1 0.202905 0.0170518 0.0075246 0.0058055 -6.79742e-05 -0.000307652 2.4067e-11 8.01779e-11 -4.262e-11 5e-05 1.46608e-10 
28 1 0.208899 0.0169439 0.00735029 0.00573056 0.000115203 -0.000393985 -8.37695e-12 -8.19509e-11 3.11929e-11 5e-05 1.46608e-10 
29 1 0.208298 0.015172 0.0090694 0.00624423 0.00042964 0.000120356 -1.781e-11 -4.95036e-11 5.96903e-11 5e-05 1.46608e-10 
30 1 0.208612 0.0161611 0.0079961 0.0057033 7.70787e-05 -0.00036375 -1.24684e-10 -3.05529e-11 3.04188e-11 5e-05 1.46608e-10 
31 1 0.209278 0.0175041 0.0071728 0.00602587 0.000127605 0.000146738 1.78802e-10 -1.08015e-10 3.84307e-11 5e-05 1.46608e-10 
32 1 0.20855 0.0159351 0.00818344 0.00588659 4.04822e-05 -0.000328787 1.14236e-10 -4.87332e-11 -2.65435e-11 5e-05 1.46608e-10 
33 1 0.214825 0.0170894 0.00752801 0.00576517 0.000232333 0.000488757 3.11981e-10 -1.26238e-10 -5.8205e-12 5e-05 1.46608e-10 
34 1 0.208455 0.0155993 0.00853892 0.00602544 0.000439788 8.71298e-05 6.37275e-11 -5.81285e-11 5.48089e-11 5e-05 1.46608e-10 
35 1 0.209164 0.0173798 0.00720598 0.00589488 3.46235e-05 0.000171211 4.17197e-10 -1.33573e-10 7.80368e-11 5e-05 1.46608e-10 
36 1 0.21506 0.0180762 0.00699743 0.00621562 -3.99137e-05 0.000456033 -5.46834e-11 -3.18828e-11 1.62337e-10 5e-05 1.46608e-10 
37 1 0.208955 0.016814 0.00745204 0.00566553 9.95256e-05 -0.000378472 6.32772e-11 -1.15273e-10 9.54373e-11 5e-05 1.46608e-10 
38 1 0.209032 0.0171559 0.00726797 0.005713 0.000370918 6.48139e-05 2.51867e-10 2.08095e-10 -5.62838e-11 5e-05 1.46608e-10 
39 1 0.214935 0.0175291 0.00713492 0.00621069 0.00019942 0.000579857 4.09018e-10 1.82791e-10 3.34811e-10 5e-05 1.46608e-10 
41 1 0.208407 0.0154774 0.00868988 0.00620248 0.000421156 0.000126248 -4.53015e-12 -3.45461e-11 4.34053e-11 5e-05 1.46608e-10 
42 1 0.20907 0.0169145 0.00736503 0.00569708 8.72925e-05 -0.000370973 7.40714e-11 1.3762e-11 -9.36855e-12 5e-05 1.46608e-10 
44 1 0.209127 0.0171881 0.00726139 0.00567998 0.000400487 5.52461e-05 -2.47618e-10 7.02275e-11 -2.87648e-11 5e-05 1.46608e-10 
45 1 0.214843 0.0171627 0.00746249 0.00582403 0.000235177 0.000497683 -4.51481e-10 -9.36341e-11 -1.05514e-10 5e-05 1.46608e-10 
47 1 0.208428 0.0155389 0.00861405 0.00619085 0.000413858 0.000121943 2.68367e-12 -2.82841e-11 4.41456e-11 5e-05 1.46608e-10 
48 1 0.209044 0.0179966 0.00711279 0.00627842 0.000228525 0.000122753 2.37646e-11 1.36041e-10 5.35144e-11 5e-05 1.46608e-10 
49 1 0.215018 0.0178829 0.00698983 0.00627045 -8.8479e-05 0.000141095 5.66671e-11 1.26002e-10 -2.02496e-10 5e-05 1.46608e-10 
50 1 0.208571 0.0160098 0.00812021 0.00582979 4.77824e-05 -0.000343938 3.22516e-11 8.99474e-12 2.28591e-12 5e-05 1.46608e-10 
51 1 0.209293 0.0175991 0.00714527 0.00614824 0.000113165 0.000155615 2.93318e-10 -1.45285e-10 2.32246e-11 5e-05 1.46608e-10 
52 1 0.203157 0.0173561 0.00733858 0.00592636 -0.000176491 -0.000254112 5.88513e-11 -8.86813e-13 -2.47065e-12 5e-05 1.46608e-10 
53 1 0.21488 0.0173093 0.00733146 0.00598867 0.000200499 0.000551085 7.47884e-10 2.92328e-10 1.9205e-10 5e-05 1.46608e-10 
54 1 0.209366 0.017879 0.00706493 0.00624642 0.000133131 0.000151761 -6.62521e-11 -2.1186e-12 -5.2764e-12 5e-05 1.46608e-10 
55 1 0.203083 0.0174161 0.00730928 0.00596019 -0.000146802 -0.000272568 1.3408e-11 -1.68419e-11 3.21136e-12 5e-05 1.46608e-10 
56 1 0.20944 0.0178153 0.00708598 0.00623567 0.000121062 0.000154508 -4.25795e-11 5.21644e-11 -1.44884e-11 5e-05 1.46608e-10 
57 1 0.214861 0.017236 0.00739698 0.00595151 0.000238312 0.000526656 -3.88468e-10 1.69578e-10 -1.03176e-10 5e-05 1.46608e-10 
59 1 0.378022 0.019866 0.005332 -5.0195e-15 -7.4121e-15 7.69802e-14 -8.86634e-24 2.92098e-24 -2.06795e-25 5e-05 1.46608e-10 
60 1 0.209145 0.017285 0.00723336 0.00568928 0.000329111 7.69587e-05 9.63308e-11 -1.16814e-10 4.51057e-11 5e-05 1.46608e-10 
61 1 0.208385 0.0154162 0.00876594 0.00621098 0.000424795 0.000126363 -4.86649e-12 -3.91266e-11 5.68354e-11 5e-05 1.46608e-10 
62 1 0.209051 0.0172502 0.00724076 0.00566203 0.000411042 5.10547e-05 -2.02526e-10 3.68304e-10 -1.40386e-10 5e-05 1.46608e-10 
63 1 0.209075 0.0181465 0.00703296 0.00630212 0.000193909 0.00013618 1.03965e-10 5.98214e-12 -7.20795e-11 5e-05 1.46608e-10 
64 1 0.214898 0.0173826 0.00726595 0.00603168 0.00017663 0.0005583 1.94631e-10 -2.46458e-10 4.82939e-10 5e-05 1.46608e-10 
65 1 0.203124 0.0175857 0.00721153 0.00606634 -0.000150227 -0.000276721 -3.64751e-11 9.88317e-11 -7.72251e-11 5e-05 1.46608e-10 
66 1 0.20304 0.0178687 0.00715227 0.00619668 -6.80556e-05 -0.000302757 -1.89735e-10 2.84716e-10 -6.33514e-11 5e-05 1.46608e-10 
67 1 0.209253 0.0178532 0.00706909 0.00626719 0.000152267 0.00014737 7.16654e-11 -4.38812e-11 -1.78558e-11 5e-05 1.46608e-10 
68 1 0.208957 0.0172186 0.00724721 0.00565762 0.00038808 5.58556e-05 -4.57713e-10 5.29805e-10 -2.10918e-10 5e-05 1.46608e-10 
69 1 0.209334 0.0177877 0.0070909 0.00619831 0.000142982 0.00014662 -1.89481e-10 1.85046e-12 2.25331e-11 5e-05 1.46608e-10 
70 1 0.214975 0.0176931 0.00703296 0.00600706 1.88586e-06 6.4328e-05 -8.08044e-11 1.19962e-10 1.15978e-10 5e-05 1.46608e-10 
71 1 0.203439 0.0181642 0.00692988 0.00580703 0.000306419 0.000241767 1.10857e-11 -4.45675e-11 6.77435e-11 5e-05 1.46608e-10 
72 1 0.209246 0.0181046 0.00701926 0.00630398 0.000176371 0.000141027 -5.06477e-11 7.98219e-12 -6.7692e-12 5e-05 1.46608e-10 
73 1 0.208509 0.0157889 0.00831358 0.00579279 0.000273101 -9.71907e-05 -1.08689e-11 -3.70705e-11 1.92803e-11 5e-05 1.46608e-10 
74 1 0.208591 0.0160855 0.00805814 0.00577595 6.03371e-05 -0.000353342 -9.67819e-13 -1.53422e-11 2.06039e-11 5e-05 1.46608e-10 
76 1 0.203021 0.0171618 0.00745591 0.00583983 -0.000117891 -0.000281808 7.14686e-11 -3.89391e-11 1.33817e-11 5e-05 1.46608e-10 
77 1 0.208843 0.0170923 0.00728095 0.00571147 0.00031827 7.70736e-05 3.92113e-11 2.80125e-10 -4.06539e-11 5e-05 1.46608e-10 
78 1 0.202352 0.0153914 0.00893411 0.00606156 -0.000299647 -0.000196978 2.65387e-13 2.28535e-10 -1.96781e-10 5e-05 1.46608e-10 
79 1 0.203406 0.0184279 0.00690794 0.00567951 8.67277e-05 0.000250278 4.11081e-11 -2.00079e-11 4.29647e-12 5e-05 1.46608e-10 
80 1 0.208918 0.0170295 0.00730177 0.00571624 0.00030656 8.4749e-05 -6.26592e-11 -2.29851e-11 1.27158e-11 5e-05 1.46608e-10 
82 1 0.203137 0.0178958 0.00713225 0.00619406 -0.000107001 -0.000291385 -2.29695e-10 -5.61005e-11 -5.70481e-11 5e-05 1.46608e-10 
83 1 0.203116 0.0171866 0.00743633 0.00585264 -0.000156948 -0.000260496 1.74815e-10 -5.35404e-12 -6.77908e-12 5e-05 1.46608e-10 
84 1 0.215039 0.0179799 0.00697977 0.00626932 -4.77568e-05 0.000466642 2.65634e-11 1.66287e-10 -1.12388e-10 5e-05 1.46608e-10 
85 1 0.203576 0.0183939 0.00691822 0.00567489 7.69769e-05 0.000249733 5.33428e-11 2.3081e-10 -5.18109e-11 5e-05 1.46608e-10 
86 1 0.209108 0.0170938 0.0072886 0.0057167 0.000383898 6.13065e-05 1.99145e-11 8.17278e-11 -2.70358e-11 5e-05 1.46608e-10 
87 1 0.208879 0.0168679 0.00741253 0.00573382 6.47153e-05 -0.000353311 3.1029e-11 -1.22676e-10 7.21483e-11 5e-05 1.46608e-10 
88 1 0.209086 0.0175608 0.00715026 0.00624395 8.03468e-05 0.000160925 5.16512e-11 7.90444e-11 2.56804e-11 5e-05 1.46608e-10 
89 1 0.208992 0.0174099 0.00719188 0.0061054 0.000223356 0.000123263 -5.62872e-11 -4.94781e-11 -1.33107e-11 5e-05 1.46608e-10 
90 1 0.209214 0.0180025 0.00702388 0.00629661 0.000188927 0.000136995 5.5368e-11 -4.66616e-11 2.43965e-14 5e-05 1.46608e-10 
91 1 0.203075 0.017017 0.00753408 0.00576334 -0.000133861 -0.000268255 1.16376e-11 -1.47214e-11 9.34982e-12 5e-05 1.46608e-10 
92 1 0.208974 0.0176973 0.00710656 0.0062449 0.000189999 0.00012837 -3.81572e-11 -7.13287e-11 -1.14877e-10 5e-05 1.46608e-10 
93 1 0.208669 0.0163891 0.00780976 0.00552854 0.000112826 -0.000382223 -5.12857e-11 -7.49975e-11 5.09348e-11 5e-05 1.46608e-10 
94 1 0.20899 0.017767 0.00717647 0.00626328 0.000229731 0.000156667 8.87787e-11 -5.20905e-12 8.20684e-11 5e-05 1.46608e-10 
95 1 0.2089 0.0173786 0.00721702 0.0055366 0.000356892 7.18445e-05 6.47865e-10 -1.29004e-10 -4.74863e-11 5e-05 1.46608e-10 
96 1 0.208998 0.0176044 0.00713469 0.00624413 0.000169076 0.00013645 -3.52126e-10 -3.57176e-11 -1.27983e-10 5e-05 1.46608e-10 
97 1 0.20245 0.0155372 0.00846728 0.00598469 6.67891e-05 -8.83291e-05 -1.43154e-10 -1.12542e-10 -7.65548e-11 5e-05 1.46608e-10 
98 1 0.208651 0.0163128 0.00787183 0.00554938 0.000109463 -0.000379568 -1.64936e-10 -5.74699e-11 5.94145e-11 5e-05 1.46608e-10 
99 1 0.203176 0.0181735 0.00694171 0.0058002 2.34622e-05 0.000128798 -5.57e-11 -3.53378e-11 2.40029e-11 5e-05 1.46608e-10 
100 1 0.209218 0.0176615 0.00712457 0.00614487 0.000108092 0.000153008 1.06484e-10 -5.72396e-11 8.36773e-12 5e-05 1.46608e-10 
101 1 0.203197 0.0182664 0.00691103 0.00567614 9.27204e-05 0.000251032 1.32723e-11 5.51799e-11 -4.52941e-12 5e-05 1.46608e-10 
102 1 0.0643568 0.0187248 0.00531097 4.21125e-15 1.05129e-14 8.29611e-14 1.32339e-21 -6.42099e-22 7.03104e-24 5e-05 1.46608e-10 
103 1 0.24257 0.0191927 0.00520306 2.95517e-22 3.13141e-22 8.29106e-22 0 -2.58494e-26 0 5e-05 1.46608e-10 
104 1 0.203365 0.0182309 0.00692137 0.005775 0.000233066 0.000246308 2.30818e-10 -7.11967e-11 1.04583e-11 5e-05 1.46608e-10 
105 1 0.202415 0.0154637 0.00864978 0.00603651 -0.0002442 -0.000200925 1.31442e-10 3.07979e-11 -1.84008e-10 5e-05 1.46608e-10 
106 1 0.20309 0.0178148 0.00708477 0.00615767 -0.00013433 -0.000285854 -1.69764e-10 4.88992e-11 -1.53879e-11 5e-05 1.46608e-10 
107 1 0.202374 0.0154154 0.0088395 0.00614865 -0.000327249 -0.000186358 -9.43087e-11 2.50239e-10 -2.62229e-10 5e-05 1.46608e-10 
108 1 0.209291 0.0179423 0.00704401 0.0062624 0.000153662 0.000144171 -1.04153e-10 -2.14304e-11 -5.74791e-12 5e-05 1.46608e-10 
109 1 0.20924 0.0173156 0.00722723 0.00572366 0.000195113 0.000116739 -1.41904e-10 1.18348e-10 -3.88085e-11 5e-05 1.46608e-10 
110 1 0.208803 0.0169205 0.00737446 0.00572468 0.000131731 -0.000244854 7.87495e-13 -4.92854e-11 -5.04778e-11 5e-05 1.46608e-10 
111 1 0.208766 0.0167695 0.00750013 0.00567076 7.30381e-05 -0.000359884 -3.91823e-11 -1.99939e-11 -4.27343e-12 5e-05 1.46608e-10 
112 1 0.202492 0.0156809 0.00833567 0.00579882 0.000237279 1.39865e-05 6.33226e-11 -8.6819e-11 8.47933e-11 5e-05 1.46608e-10 
113 1 0.202975 0.0177053 0.00715323 0.00611229 -0.000101419 -0.000306236 1.98921e-10 7.13048e-11 -3.7777e-11 5e-05 1.46608e-10 
114 1 0.203057 0.0180444 0.00695774 0.00628135 -0.000181998 -0.000420489 -4.97876e-10 6.35225e-10 1.08705e-09 5e-05 1.46608e-10 
115 1 0.209088 0.0169995 0.0073158 0.0057403 0.000336212 7.5294e-05 -3.68937e-11 1.21692e-11 6.57088e-12 5e-05 1.46608e-10 
116 1 0.209175 0.0179136 0.00704894 0.00628438 0.000190317 0.000135809 7.42209e-11 -3.93416e-11 -3.00896e-11 5e-05 1.46608e-10 
117 1 0.20918 0.0174745 0.00717858 0.00616153 1.41598e-05 0.000183383 9.59499e-11 -1.36958e-10 -9.7544e-12 5e-05 1.46608e-10 
118 1 0.203198 0.0175257 0.00724082 0.00605868 -0.000155744 -0.000273402 -7.00757e-11 5.08228e-11 -1.52136e-11 5e-05 1.46608e-10 
119 1 0.209318 0.0180349 0.00701748 0.00628904 0.000154733 0.00014693 -5.16264e-11 -6.35943e-11 3.11505e-11 5e-05 1.46608e-10 
120 1 0.208802 0.016564 0.00766149 0.00556012 6.17346e-05 -0.000342408 1.72326e-11 7.76167e-12 -6.9783e-12 5e-05 1.46608e-10 
121 1 0.209214 0.0183612 0.00694015 0.00628109 0.000127 -0.000242919 1.30166e-12 -5.88555e-12 5.93362e-11 5e-05 1.46608e-10 
122 1 0.209001 0.0175086 0.00716304 0.0061535 0.000178325 0.000152926 2.52802e-10 -3.37182e-10 -9.20663e-11 5e-05 1.46608e-10 
123 1 0.20346 0.0182625 0.0069232 0.00578066 0.000262347 0.000238181 1.71914e-10 6.2077e-11 6.10477e-11 5e-05 1.46608e-10 
124 1 0.208689 0.0164648 0.00774739 0.00552349 0.000113548 -0.00038216 -1.08409e-10 -3.24457e-11 2.80411e-11 5e-05 1.46608e-10 
125 1 0.209082 0.0174534 0.00718178 0.00608188 0.000105487 0.000153892 1.59435e-09 -1.39461e-09 8.0663e-10 5e-05 1.46608e-10 
127 1 0.202432 0.0154982 0.00855745 0.0058316 -8.52752e-05 -0.000182922 -8.76974e-11 -7.24357e-11 -1.52604e-10 5e-05 1.46608e-10 
128 1 0.208631 0.0162374 0.00793422 0.00560721 9.23128e-05 -0.00037886 -2.52717e-10 -3.19634e-11 4.48628e-11 5e-05 1.46608e-10 
129 1 0.208943 0.017574 0.00721245 0.00613075 0.000219683 9.85765e-05 2.73578e-10 -4.78838e-10 -4.47031e-10 5e-05 1.46608e-10 
130 1 0.203131 0.0179846 0.00698732 0.00626453 -0.000166447 -0.000314158 -2.79194e-10 5.28391e-11 -6.73074e-11 5e-05 1.46608e-10 
131 1 0.203153 0.0180774 0.00695729 0.00610695 -9.33507e-05 -0.000165582 -1.48341e-10 -5.81188e-11 1.03297e-10 5e-05 1.46608e-10 
132 1 0.208993 0.0169738 0.00733898 0.00572517 0.000221113 -0.00014725 -8.74151e-11 5.47687e-11 1.10198e-10 5e-05 1.46608e-10 
133 1 0.209144 0.0180745 0.00702971 0.00629717 0.000189584 0.000135843 4.48511e-11 -3.65167e-11 -1.22705e-12 5e-05 1.46608e-10 
134 1 0.209161 0.0178153 0.00707749 0.00625888 0.000173586 0.00012609 4.42402e-11 -1.54204e-10 -1.60735e-10 5e-05 1.46608e-10 
135 1 0.209314 0.0176931 0.00711817 0.00619645 0.000102815 0.00015861 -3.49343e-11 -1.65775e-10 5.69748e-11 5e-05 1.46608e-10 
136 1 0.203062 0.0173314 0.00735816 0.00592117 -0.000139931 -0.000274336 7.88922e-11 2.46558e-12 -1.56137e-11 5e-05 1.46608e-10 
137 1 0.208921 0.0174764 0.00721473 0.00613651 0.000230669 0.000173701 -1.31669e-10 -1.71371e-10 -4.2994e-10 5e-05 1.46608e-10 
138 1 0.209026 0.0179224 0.00704177 0.0062698 0.000212297 0.000126831 2.86886e-11 -2.66043e-11 2.29266e-11 5e-05 1.46608e-10 
140 1 0.208862 0.0171866 0.00725374 0.00572057 0.000331627 7.17543e-05 -1.23684e-10 3.64885e-10 -1.01793e-10 5e-05 1.46608e-10 
141 1 0.202898 0.016653 0.00774917 0.0055367 -5.68006e-05 -0.000297976 5.51843e-12 2.00596e-11 -1.0294e-11 5e-05 1.46608e-10 
142 1 0.203281 0.0178655 0.00704493 0.00631155 -0.000141423 -0.000296109 -7.63732e-11 -2.10593e-10 9.29449e-11 5e-05 1.46608e-10 
143 1 0.202393 0.0154397 0.00874429 0.00616198 -0.000254974 -0.000168688 5.92165e-11 6.44976e-11 -2.68462e-10 5e-05 1.46608e-10 
144 1 0.20324 0.0176953 0.00714304 0.00613316 -0.000158993 -0.000277004 3.06872e-11 -2.19632e-11 1.35502e-11 5e-05 1.46608e-10 
146 1 0.202529 0.0158476 0.00823188 0.00584646 6.64343e-05 -0.000272151 -1.05132e-11 -1.30858e-10 -3.59861e-11 5e-05 1.46608e-10 
147 1 0.203186 0.0178402 0.00706486 0.00616627 -0.000167134 -0.000271423 -3.56477e-11 -4.06861e-11 9.76681e-12 5e-05 1.46608e-10 
148 1 0.202918 0.0167378 0.00770029 0.00562673 -7.1621e-05 -0.000295235 -6.20595e-12 4.20255e-12 -5.59296e-12 5e-05 1.46608e-10 
149 1 0.208727 0.0166167 0.00762299 0.0055954 9.7984e-05 -0.00037308 -1.04427e-11 -1.13213e-11 1.28279e-11 5e-05 1.46608e-10 
150 1 0.203426 0.0185257 0.00690126 0.00571389 7.63885e-05 0.000251464 -4.65669e-11 3.02042e-11 -6.81215e-11 5e-05 1.46608e-10 
151 1 0.203256 0.0185597 0.00689096 0.00576384 0.000111987 0.000262965 3.45188e-10 -3.13615e-10 -5.87607e-11 5e-05 1.46608e-10 
153 1 0.202939 0.0168226 0.00765141 0.00566763 -7.69215e-05 -0.00029455 2.12576e-11 6.87841e-11 -4.11623e-11 5e-05 1.46608e-10 
154 1 0.202509 0.0157623 0.00828008 0.00587726 0.000120791 -0.000145107 -1.12854e-10 -3.59487e-11 7.31491e-11 5e-05 1.46608e-10 
155 1 0.20261 0.0161785 0.00803306 0.0056177 5.15141e-05 -0.000362051 1.61375e-10 -2.35549e-10 1.70275e-10 5e-05 1.46608e-10 
156 1 0.202878 0.0165682 0.00779807 0.00538335 -2.76631e-05 -0.000305218 -8.24769e-11 8.10795e-11 -3.83355e-11 5e-05 1.46608e-10 
157 1 0.0219312 0.0187687 0.00551176 -3.82575e-14 8.16807e-14 2.95893e-13 -4.00174e-22 -5.05769e-22 7.23783e-23 5e-05 1.46608e-10 
158 1 0.20298 0.0169922 0.00755366 0.00577436 -9.86574e-05 -0.000288708 5.59337e-11 4.89917e-11 -3.21958e-11 5e-05 1.46608e-10 
159 1 0.209012 0.0170617 0.00729517 0.00573526 0.000334281 7.61476e-05 7.23711e-11 2.22448e-10 9.19482e-12 5e-05 1.46608e-10 
160 1 0.20316 0.0185256 0.00688927 0.00570225 -1.79226e-05 0.000256029 -9.95627e-11 -4.75678e-10 1.59198e-11 5e-05 1.46608e-10 
162 1 0.203099 0.0182303 0.00690945 0.0063621 0.000177194 0.000272014 -9.38561e-11 7.51806e-11 1.0017e-11 5e-05 1.46608e-10 
164 1 0.202669 0.0164331 0.00788646 0.00544938 8.03187e-05 -0.000371575 -2.40734e-11 -1.15937e-10 9.30574e-11 5e-05 1.46608e-10 
165 1 0.203331 0.0184937 0.00689946 0.00570177 0.000111146 0.000247679 4.25794e-11 -1.45212e-11 -7.25821e-11 5e-05 1.46608e-10 
166 1 0.209047 0.0180162 0.00701477 0.00629045 0.000224088 0.000126932 -2.189e-11 -6.00113e-11 -1.07667e-11 5e-05 1.46608e-10 
167 1 0.203446 0.0186234 0.00689458 0.00577376 6.09755e-05 0.0002553 5.24661e-11 8.18204e-11 -3.03522e-11 5e-05 1.46608e-10 
168 1 0.203501 0.0184598 0.00690974 0.00568471 6.46398e-05 0.000252056 4.81678e-11 2.30626e-10 3.85199e-11 5e-05 1.46608e-10 
169 1 0.203351 0.0185914 0.00689279 0.00575765 0.000111742 0.000248759 3.34763e-11 6.93767e-11 9.44092e-11 5e-05 1.46608e-10 
170 1 0.203371 0.0186892 0.0068861 0.00580952 9.67024e-05 0.000250232 7.05504e-12 8.29634e-11 -2.03129e-11 5e-05 1.46608e-10 
171 1 0.209261 0.0181906 0.00696987 0.00631245 0.000186114 0.000137672 2.86086e-12 9.05178e-11 -1.47439e-11 5e-05 1.46608e-10 
172 1 0.202954 0.0176205 0.0072021 0.00607897 -0.000105976 -0.000303315 -4.20697e-11 1.26174e-10 -4.42195e-11 5e-05 1.46608e-10 
173 1 0.209096 0.0178867 0.00710335 0.0062707 0.000196821 0.000126259 7.51477e-11 -8.723e-11 -1.08163e-10 5e-05 1.46608e-10 
174 1 0.202708 0.016603 0.00778862 0.0055036 6.57063e-05 -0.00036493 1.63151e-11 1.66376e-11 -9.58115e-12 5e-05 1.46608e-10 
176 1 0.203008 0.0174758 0.00728024 0.00599648 -0.000117593 -0.000291624 6.92886e-11 -2.53963e-12 1.26529e-12 5e-05 1.46608e-10 
177 1 0.202589 0.0160936 0.00808197 0.00566793 4.32984e-05 -0.000365601 7.69565e-11 -2.58905e-10 1.61155e-10 5e-05 1.46608e-10 
178 1 0.203016 0.0178749 0.00705548 0.00621181 -9.50268e-05 -0.000308851 -1.34164e-10 1.90794e-11 -7.68307e-11 5e-05 1.46608e-10 
179 1 0.20318 0.0186246 0.00688491 0.00577252 0.000136083 3.58306e-05 5.67668e-12 -8.92341e-10 -2.87436e-10 5e-05 1.46608e-10 
182 1 0.209284 0.0182898 0.00694131 0.00631411 0.000168257 0.000143481 -4.24882e-14 -3.64818e-11 2.39412e-11 5e-05 1.46608e-10 
183 1 0.203111 0.0178997 0.00703588 0.00620826 -0.000144629 -0.000293032 -1.85806e-10 -4.0242e-11 -4.39826e-11 5e-05 1.46608e-10 
184 1 0.20901 0.0178626 0.00714799 0.00619622 0.00027638 5.07346e-05 -5.07837e-11 9.64922e-11 -1.07805e-10 5e-05 1.46608e-10 
185 1 0.20326 0.0177803 0.00709407 0.00616427 -0.000156425 -0.000278934 -3.72828e-11 6.05454e-11 -2.91491e-11 5e-05 1.46608e-10 
186 1 0.203534 0.0181957 0.00693171 0.00580926 0.000279013 0.000238489 6.09976e-11 -2.11041e-10 -2.4046e-11 5e-05 1.46608e-10 
187 1 0.20917 0.0181678 0.0070041 0.0063104 0.000186443 0.00013741 -2.20547e-11 3.36592e-11 -2.64685e-11 5e-05 1.46608e-10 
188 1 0.209069 0.0173485 0.00721231 0.00576567 0.000297098 9.19351e-05 5.59218e-10 -3.32418e-10 9.19366e-11 5e-05 1.46608e-10 
189 1 0.20914 0.0184294 0.00694342 0.00631613 0.000188989 -0.000849224 1.45966e-11 3.219e-11 -7.38106e-13 5e-05 1.46608e-10 
190 1 0.197106 0.018264 0.00689641 0.00568811 0.000171352 4.54945e-05 6.91843e-11 -6.70661e-11 -1.07236e-11 5e-05 1.46608e-10 
191 1 0.208746 0.0166926 0.00756081 0.00563376 8.68759e-05 -0.000366428 4.92552e-11 -2.6453e-11 7.67995e-12 5e-05 1.46608e-10 
192 1 0.202995 0.0177901 0.00710435 0.00616971 -9.7836e-05 -0.000307908 -1.69684e-10 -3.99187e-11 -2.65176e-11 5e-05 1.46608e-10 
193 1 0.209338 0.0181289 0.00699041 0.00630459 0.000164406 0.000143007 -6.52167e-11 -3.96772e-11 7.27574e-12 5e-05 1.46608e-10 
194 1 0.20316 0.0179823 0.00708319 0.00630545 -0.000107795 -0.000297903 -3.12618e-10 1.64244e-10 -2.78312e-10 5e-05 1.46608e-10 
195 1 0.203292 0.0182981 0.00691284 0.005674 0.000106964 0.000250253 1.19825e-10 -1.21856e-10 -2.24221e-11 5e-05 1.46608e-10 
196 1 0.203245 0.0181024 0.00692592 0.00612678 0.000323849 0.000245221 -2.01869e-10 -6.09332e-11 -5.25693e-11 5e-05 1.46608e-10 
197 1 0.196775 0.0168513 0.00753444 0.0055764 0.000101636 -0.000186598 8.6682e-11 2.22055e-13 1.21813e-10 5e-05 1.46608e-10 
198 1 0.203137 0.0172713 0.00738745 0.00588735 -0.000166554 -0.000257194 1.03476e-10 -1.16335e-11 3.76571e-12 5e-05 1.46608e-10 
199 1 0.203036 0.0179596 0.00700661 0.00625173 -0.000111583 -0.000321247 -1.77892e-10 1.43076e-10 2.86291e-11 5e-05 1.46608e-10 
200 1 0.202468 0.0156047 0.00839559 0.00583992 0.000229447 2.66212e-05 -3.2541e-11 -1.01188e-10 3.76709e-11 5e-05 1.46608e-10 
201 1 0.203312 0.0183959 0.00690616 0.00567645 0.000106551 0.000247921 1.47342e-10 -6.46332e-11 1.19422e-12 5e-05 1.46608e-10 
202 1 0.203001 0.017077 0.00750478 0.00579877 -0.000105491 -0.000286414 3.21117e-11 -1.10043e-11 1.64676e-12 5e-05 1.46608e-10 
203 1 0.209148 0.0177325 0.00713211 0.0061662 0.000170721 0.000116138 6.28882e-10 -3.0753e-10 4.61416e-10 5e-05 1.46608e-10 
204 1 0.203324 0.0180369 0.00695001 0.00610248 3.04524e-05 -4.25309e-06 -1.89769e-10 7.3255e-11 2.25308e-10 5e-05 1.46608e-10 
205 1 0.202844 0.0167975 0.00767122 0.00566877 -2.77354e-05 -0.00032216 2.19014e-11 1.07981e-11 -7.51891e-12 5e-05 1.46608e-10 
206 1 0.202885 0.016967 0.00757348 0.00576337 -5.69788e-05 -0.000311502 -2.92958e-13 6.64842e-11 -3.61536e-11 5e-05 1.46608e-10 
207 1 0.202764 0.0164579 0.00786684 0.00540905 3.39253e-05 -0.000341175 -1.6654e-10 2.84946e-11 -2.71302e-12 5e-05 1.46608e-10 
208 1 0.203178 0.0174409 0.0072897 0.00596666 -0.00018384 -0.000252268 1.64635e-11 1.96087e-11 -6.48339e-12 5e-05 1.46608e-10 
209 1 0.203103 0.0175009 0.00726041 0.00600049 -0.000156007 -0.000269632 3.39095e-11 3.33766e-11 -2.95116e-11 5e-05 1.46608e-10 
210 1 0.208842 0.0167156 0.00753722 0.00564376 4.92943e-05 -0.000337375 -8.47265e-11 -1.03727e-11 9.69626e-12 5e-05 1.46608e-10 
211 1 0.20886 0.0167917 0.00747499 0.00568646 4.21811e-05 -0.000333016 -4.30517e-11 -4.01617e-11 3.96996e-11 5e-05 1.46608e-10 
212 1 0.203387 0.0183297 0.00691467 0.00566072 0.000129415 0.000246209 1.51084e-10 -5.90953e-11 7.28981e-11 5e-05 1.46608e-10 
213 1 0.209118 0.0183231 0.00692975 0.00629779 -0.000107199 -0.000891909 2.01593e-11 1.10446e-10 1.27187e-11 5e-05 1.46608e-10 
214 1 0.208937 0.0171243 0.00727442 0.00573223 0.000345338 7.11443e-05 1.5696e-10 5.37518e-10 -1.3694e-10 5e-05 1.46608e-10 
215 1 0.197001 0.017791 0.00700916 0.00631721 -2.81975e-05 -0.000146239 -9.21796e-11 2.45437e-11 -9.56972e-12 5e-05 1.46608e-10 
216 1 0.202744 0.0163729 0.00791577 0.00550388 2.08028e-05 -0.000337454 -1.73763e-10 9.52987e-11 -2.13831e-11 5e-05 1.46608e-10 
217 1 0.209355 0.0182236 0.00696301 0.00631204 0.000166505 0.000143276 -1.38587e-12 -3.08554e-11 6.47177e-12 5e-05 1.46608e-10 
218 1 0.203078 0.0181328 0.00691603 0.0063821 0.000154504 0.000287477 7.01298e-11 1.52423e-10 1.84573e-11 5e-05 1.46608e-10 
219 1 0.208707 0.0165408 0.00768519 0.00554985 0.000108073 -0.000378871 -1.3595e-10 -3.49677e-12 1.0155e-11 5e-05 1.46608e-10 
220 1 0.20312 0.0183299 0.00690265 0.00568338 0.000111819 0.000243702 -3.74386e-11 1.50529e-11 -9.85677e-11 5e-05 1.46608e-10 
222 1 0.209261 0.0174094 0.00720022 0.00586629 0.000156407 0.000132628 -8.636e-11 -5.65038e-11 1.41781e-11 5e-05 1.46608e-10 
224 1 0.202926 0.0171366 0.00747573 0.00583672 -8.10375e-05 -0.000302271 3.43534e-11 -1.28952e-11 1.38025e-11 5e-05 1.46608e-10 
225 1 0.208785 0.0168444 0.00743652 0.00571013 6.32115e-05 -0.000347272 -4.17163e-12 -2.10727e-12 2.645e-11 5e-05 1.46608e-10 
226 1 0.203 0.0177876 0.00720422 0.00614733 -9.35225e-05 -0.000305478 -8.96139e-11 1.4499e-10 -1.31763e-10 5e-05 1.46608e-10 
227 1 0.197023 0.0178817 0.00697325 0.00633735 1.40293e-05 -4.31097e-05 -1.99207e-10 1.30312e-10 -1.05849e-10 5e-05 1.46608e-10 
228 1 0.19696 0.0176201 0.0071047 0.00620678 -1.885e-05 -0.00013846 2.12207e-10 4.04264e-11 -1.99417e-12 5e-05 1.46608e-10 
229 1 0.203481 0.018362 0.00691642 0.00567286 8.4085e-05 0.000246401 8.86331e-11 -5.41238e-11 2.26956e-11 5e-05 1.46608e-10 
230 1 0.202831 0.0171118 0.00749534 0.00582884 -4.40493e-05 -0.000322709 -4.73293e-11 -4.27552e-11 1.24734e-11 5e-05 1.46608e-10 
232 1 0.20314 0.0184276 0.00689597 0.00570842 8.70841e-05 0.000251429 1.05705e-10 3.37068e-10 -5.07125e-11 5e-05 1.46608e-10 
233 1 0.203297 0.0187555 0.00688952 0.00580717 9.49603e-05 0.000116122 -5.58887e-11 -3.37265e-12 -1.11819e-10 5e-05 1.46608e-10 
234 1 0.208976 0.0173129 0.00721998 0.00566013 0.000417603 5.28871e-05 2.79073e-10 -1.86675e-10 3.45175e-11 5e-05 1.46608e-10 
235 1 0.20279 0.0169422 0.00759309 0.00574936 -1.20966e-05 -0.000335837 -5.23287e-11 3.73298e-11 -1.82805e-11 5e-05 1.46608e-10 
236 1 0.202892 0.0173662 0.00734872 0.00595187 -8.0882e-05 -0.000309048 -2.59862e-10 -3.73656e-11 1.78759e-11 5e-05 1.46608e-10 
237 1 0.202913 0.0174509 0.00729985 0.00599575 -9.78071e-05 -0.000302706 5.1404e-11 8.49261e-11 -3.84205e-11 5e-05 1.46608e-10 
239 1 0.196677 0.0164088 0.00774533 0.00558592 0.000284651 0.000131719 -2.73215e-11 1.59759e-11 -6.0492e-12 5e-05 1.46608e-10 
240 1 0.196736 0.016676 0.00762221 0.00559595 0.000276337 0.00013724 3.55651e-11 9.72355e-11 -5.80193e-11 5e-05 1.46608e-10 
241 1 0.196658 0.0163197 0.00778638 0.00559603 0.000281769 0.000133598 1.334e-11 -1.5201e-12 -1.33293e-12 5e-05 1.46608e-10 
242 1 0.202572 0.0159214 0.00817979 0.00580482 3.12788e-05 -0.000364428 6.77974e-11 -2.02359e-10 3.82231e-11 5e-05 1.46608e-10 
243 1 0.203228 0.0180116 0.00696594 0.00609298 -0.000102032 -0.00031726 -2.39349e-10 3.94063e-11 3.36745e-10 5e-05 1.46608e-10 
244 1 0.196696 0.0164979 0.00770428 0.00557482 0.000283942 0.000131576 3.85198e-11 -4.30471e-11 2.05681e-11 5e-05 1.46608e-10 
246 1 0.196876 0.0172787 0.00729555 0.00610484 5.31493e-06 -0.000149727 4.43483e-10 -5.98891e-12 6.24975e-11 5e-05 1.46608e-10 
247 1 0.202728 0.0166879 0.00773971 0.00559624 4.11783e-05 -0.000356703 -6.6129e-11 6.73086e-11 -3.4235e-11 5e-05 1.46608e-10 
248 1 0.203049 0.0176453 0.0071825 0.00608638 -0.00012819 -0.000291715 -9.50929e-11 3.32216e-11 -6.36709e-12 5e-05 1.46608e-10 
249 1 0.196814 0.0170225 0.0074388 0.00577273 7.29764e-05 -0.000179507 -1.74537e-12 5.24432e-11 -4.71086e-11 5e-05 1.46608e-10 
250 1 0.202803 0.0166278 0.007769 0.00542296 2.80305e-05 -0.0003389 -6.0688e-11 -2.67509e-11 2.07913e-11 5e-05 1.46608e-10 
251 1 0.209079 0.0176608 0.00712053 0.00620161 0.000194372 0.00011445 2.8114e-10 -6.26514e-10 7.28812e-10 5e-05 1.46608e-10 
252 1 0.196897 0.0173641 0.00724782 0.00611523 -1.74139e-05 -0.000141092 2.68548e-10 -2.70683e-10 2.22622e-10 5e-05 1.46608e-10 
253 1 0.197086 0.0181671 0.00691125 0.0057046 0.000177122 4.61121e-05 -7.26358e-11 1.49605e-10 -1.48032e-11 5e-05 1.46608e-10 
254 1 0.196835 0.017108 0.00739102 0.00599352 3.43422e-05 -0.000162889 -2.63847e-10 1.54445e-11 -6.15622e-11 5e-05 1.46608e-10 
255 1 0.202331 0.0153671 0.00902879 0.00603048 -0.000243608 -0.000188678 4.23896e-11 5.83777e-11 -1.58693e-10 5e-05 1.46608e-10 
256 1 0.203418 0.0180666 0.0069365 0.00607396 0.000247464 0.000244368 5.0035e-10 -5.97782e-10 -2.63387e-10 5e-05 1.46608e-10 
257 1 0.20296 0.0169074 0.00760253 0.00572871 -8.92496e-05 -0.000291295 8.69232e-11 1.07208e-10 -6.63276e-11 5e-05 1.46608e-10 
258 1 0.203028 0.0175605 0.00723137 0.00603948 -0.000124761 -0.000290417 4.445e-11 3.18181e-11 -1.76851e-11 5e-05 1.46608e-10 
259 1 0.196918 0.0174495 0.00720008 0.00618053 -2.40212e-05 -0.000135362 -2.44378e-10 -2.10377e-10 1.83721e-10 5e-05 1.46608e-10 