ITEM: TIMESTEP
73800000
ITEM: NUMBER OF ATOMS
267
ITEM: BOX BOUNDS ff ff ff
-0.02 0.43
-0.02 0.06
-0.02 0.07
ITEM: ATOMS id type x y z vx vy vz fx fy fz radius mass 
1 1 0.383991 0.018743 5.17586e-05 7.86969e-19 8.96691e-22 -5.98258e-16 5.16988e-26 0 0 5e-05 1.46608e-10 
2 1 0.384819 0.0170553 5.28427e-05 -9.20538e-19 1.20241e-20 7.02844e-16 0 1.51369e-25 0 5e-05 1.46608e-10 
4 1 0.384087 0.0172099 5.18841e-05 -7.09204e-20 -2.09025e-21 2.81272e-17 0 0 0 5e-05 1.46608e-10 
6 1 0.38485 0.0177728 5.2884e-05 4.85967e-19 6.84496e-22 -3.71582e-16 1.29247e-26 3.23117e-27 0 5e-05 1.46608e-10 
7 1 0.384289 0.0192285 5.21489e-05 2.81055e-18 1.48747e-21 -2.14593e-15 0 1.72894e-27 0 5e-05 1.46608e-10 
8 1 0.384427 0.0170974 5.23295e-05 2.24032e-18 1.65844e-21 -1.71051e-15 0 -2.20466e-26 0 5e-05 1.46608e-10 
9 1 0.383731 0.0178959 5.14179e-05 2.24032e-18 1.39069e-21 -1.71052e-15 0 -4.41248e-27 0 5e-05 1.46608e-10 
10 1 0.384909 0.0174916 5.29614e-05 1.79759e-18 -2.64835e-21 -1.37249e-15 0 -2.02233e-26 0 5e-05 1.46608e-10 
11 1 0.383705 0.0185838 5.13839e-05 2.81056e-18 -3.90504e-22 -2.14593e-15 0 2.60187e-26 0 5e-05 1.46608e-10 
12 1 0.384274 0.0169453 5.213e-05 2.24033e-18 -5.67284e-21 -1.71052e-15 0 -2.52304e-26 0 5e-05 1.46608e-10 
13 1 0.384609 0.0178943 5.25685e-05 8.09842e-12 -2.63553e-12 -7.79531e-13 -5.11293e-17 -3.71509e-18 1.71502e-16 5e-05 1.46608e-10 
14 1 0.383937 0.0189513 8.69758e-05 5.35495e-19 -8.70113e-22 -4.06398e-16 0 0 2.06795e-25 5e-05 1.46608e-10 
16 1 0.384166 0.0169334 5.1988e-05 2.24033e-18 -2.29509e-23 -1.71052e-15 0 -3.07548e-27 0 5e-05 1.46608e-10 
17 1 0.384566 0.0170745 5.25117e-05 2.24032e-18 2.46309e-22 -1.71052e-15 -4.03897e-28 -2.83094e-27 0 5e-05 1.46608e-10 
19 1 0.384704 0.0183371 5.2693e-05 1.79762e-18 -4.52999e-20 -1.37251e-15 0 -2.09832e-25 0 5e-05 1.46608e-10 
21 1 0.384375 0.0179486 5.22621e-05 -1.4307e-12 -1.7035e-12 -2.0372e-13 1.85645e-17 1.3086e-18 1.66184e-17 5e-05 1.46608e-10 
22 1 0.385006 0.0203197 5.3088e-05 8.71339e-19 7.03479e-21 -6.65298e-16 0 2.07756e-25 0 5e-05 1.46608e-10 
23 1 0.38429 0.0178938 5.21501e-05 9.79782e-13 2.32139e-13 -8.72848e-14 1.84599e-18 -2.29533e-18 3.25585e-19 5e-05 1.46608e-10 
24 1 0.384317 0.0180308 5.21862e-05 -3.36903e-14 6.86874e-14 -1.45602e-14 1.51878e-18 -1.79512e-18 3.89206e-19 5e-05 1.46608e-10 
25 1 0.384369 0.0166304 5.22533e-05 2.24034e-18 -5.58286e-22 -1.71051e-15 4.03897e-28 3.6628e-26 0 5e-05 1.46608e-10 
26 1 0.383765 0.0178016 5.14632e-05 2.24032e-18 -7.48868e-23 -1.71051e-15 0 -4.75874e-28 0 5e-05 1.46608e-10 
27 1 0.384682 0.0173846 0.000130728 -1.39616e-19 -2.54086e-21 9.01971e-17 -2.58494e-26 -2.58494e-26 0 5e-05 1.46608e-10 
28 1 0.38392 0.0176635 5.16661e-05 2.24034e-18 5.43101e-22 -1.71052e-15 4.03897e-28 1.92281e-27 0 5e-05 1.46608e-10 
29 1 0.384334 0.0168628 5.2208e-05 2.24033e-18 1.63077e-21 -1.71052e-15 0 1.33586e-27 0 5e-05 1.46608e-10 
30 1 0.38458 0.0173478 5.25303e-05 -1.24605e-19 1.40606e-21 9.01879e-17 2.58494e-26 1.29247e-26 0 5e-05 1.46608e-10 
31 1 0.384267 0.018175 5.21197e-05 1.63123e-20 -8.89218e-22 -7.47559e-18 0 0 0 5e-05 1.46608e-10 
32 1 0.384809 0.0175939 5.28295e-05 1.04207e-19 2.01184e-21 -7.99273e-17 0 0 0 5e-05 1.46608e-10 
33 1 0.384554 0.0172495 5.24957e-05 2.24036e-18 1.69278e-23 -1.71052e-15 0 2.14419e-27 0 5e-05 1.46608e-10 
34 1 0.38474 0.0177115 5.27396e-05 1.03631e-19 2.38783e-21 -7.99197e-17 -1.29247e-26 0 0 5e-05 1.46608e-10 
35 1 0.383862 0.0177748 5.15892e-05 -2.2448e-19 9.84235e-22 1.69474e-16 0 0 0 5e-05 1.46608e-10 
36 1 0.383928 0.0185154 5.16766e-05 -3.50171e-19 2.56964e-22 2.67381e-16 0 -2.35012e-26 0 5e-05 1.46608e-10 
37 1 0.384806 0.0179346 5.28267e-05 1.7976e-18 -1.66929e-21 -1.37251e-15 0 1.36973e-25 0 5e-05 1.46608e-10 
38 1 0.384295 0.0179641 0.000123125 -2.20561e-13 1.95682e-13 -8.10743e-14 4.17417e-19 1.45628e-19 9.35201e-19 5e-05 1.46608e-10 
39 1 0.383664 0.0197976 5.13305e-05 -3.50172e-19 6.23078e-22 2.67381e-16 0 -2.70089e-27 0 5e-05 1.46608e-10 
42 1 0.38332 0.0192284 0.00522714 1.28259e-16 3.93365e-20 3.78515e-14 0 7.9122e-25 0 5e-05 1.46608e-10 
44 1 0.384012 0.018459 5.17866e-05 1.79759e-18 -2.92073e-23 -1.37251e-15 0 -1.09776e-28 0 5e-05 1.46608e-10 
45 1 0.384188 0.017154 5.20161e-05 -3.79734e-20 2.2327e-22 2.81441e-17 0 2.26182e-26 0 5e-05 1.46608e-10 
47 1 0.393158 0.0178668 0.00777502 -5.5933e-06 0.00376043 -0.000992944 1.89331e-11 -2.43479e-10 4.5682e-11 5e-05 1.46608e-10 
48 1 0.383611 0.0181742 5.1261e-05 -8.00765e-19 -3.51059e-22 6.08849e-16 0 0 0 5e-05 1.46608e-10 
49 1 0.384194 0.0185569 5.20241e-05 1.79759e-18 7.94957e-22 -1.37251e-15 0 2.91463e-26 0 5e-05 1.46608e-10 
50 1 0.384353 0.0181246 5.22331e-05 1.79761e-18 9.21668e-22 -1.37249e-15 0 4.04815e-27 0 5e-05 1.46608e-10 
51 1 0.383985 0.019032 5.17502e-05 5.35607e-19 -1.5182e-22 -4.06396e-16 0 0 0 5e-05 1.46608e-10 
52 1 0.38427 0.0217777 5.21238e-05 2.00509e-18 4.57552e-21 -1.5309e-15 0 -1.93595e-26 0 5e-05 1.46608e-10 
53 1 0.3849 0.0167228 5.29491e-05 2.24034e-18 -9.71478e-21 -1.71052e-15 0 7.67007e-26 0 5e-05 1.46608e-10 
54 1 0.384094 0.0196551 5.18938e-05 2.81059e-18 4.47843e-22 -2.14593e-15 0 -6.3473e-27 0 5e-05 1.46608e-10 
55 1 0.383596 0.0188939 5.12421e-05 2.81056e-18 -8.081e-22 -2.14593e-15 0 1.73123e-27 0 5e-05 1.46608e-10 
56 1 0.384074 0.0171039 5.18678e-05 -4.32602e-20 -2.05176e-21 2.81699e-17 -2.58494e-26 -7.75482e-26 -2.06795e-25 5e-05 1.46608e-10 
57 1 0.38361 0.0192266 5.12599e-05 -3.50191e-19 3.76541e-21 2.67381e-16 0 -5.06175e-26 0 5e-05 1.46608e-10 
59 1 0.378022 0.019866 0.005332 -5.01971e-15 -7.41185e-15 7.69802e-14 7.83237e-24 -5.94536e-25 4.1359e-25 5e-05 1.46608e-10 
60 1 0.384997 0.0170277 5.3077e-05 2.24037e-18 -6.80158e-23 -1.71052e-15 0 -1.09475e-26 0 5e-05 1.46608e-10 
62 1 0.384469 0.0166233 5.23854e-05 2.24034e-18 7.06173e-22 -1.71052e-15 0 6.60114e-26 0 5e-05 1.46608e-10 
63 1 0.385119 0.0166834 5.32362e-05 2.24033e-18 4.84045e-21 -1.71052e-15 -4.03897e-28 1.88908e-25 0 5e-05 1.46608e-10 
64 1 0.383572 0.0182666 5.12106e-05 1.7976e-18 -1.66268e-23 -1.37249e-15 0 -3.00058e-27 0 5e-05 1.46608e-10 
65 1 0.38415 0.0174668 5.19668e-05 2.24033e-18 7.49672e-22 -1.71052e-15 0 -1.59157e-25 0 5e-05 1.46608e-10 
66 1 0.384314 0.0196963 5.21813e-05 -3.50221e-19 1.35716e-20 2.67381e-16 0 1.46533e-25 0 5e-05 1.46608e-10 
67 1 0.38401 0.0186182 5.17838e-05 -3.50192e-19 2.50641e-21 2.67382e-16 0 2.19467e-26 0 5e-05 1.46608e-10 
68 1 0.384443 0.0179216 0.000120816 4.51599e-13 1.35724e-11 1.35238e-12 4.8315e-18 3.39783e-18 -1.31471e-17 5e-05 1.46608e-10 
69 1 0.383601 0.0187724 5.12477e-05 2.81058e-18 2.40189e-21 -2.14593e-15 0 1.92653e-26 0 5e-05 1.46608e-10 
70 1 0.383695 0.0199014 5.13714e-05 -3.50195e-19 -1.66564e-21 2.67381e-16 0 2.55444e-26 0 5e-05 1.46608e-10 
71 1 0.383708 0.0192011 5.13883e-05 2.81054e-18 1.02469e-21 -2.14593e-15 0 1.57981e-26 0 5e-05 1.46608e-10 
72 1 0.383848 0.0178769 5.15715e-05 -2.22084e-19 1.67833e-22 1.69475e-16 0 0 0 5e-05 1.46608e-10 
73 1 0.384751 0.0204726 5.27548e-05 2.00503e-18 8.09673e-23 -1.5309e-15 0 1.46304e-26 0 5e-05 1.46608e-10 
74 1 0.384789 0.0203241 5.2804e-05 8.71346e-19 -3.28701e-21 -6.65298e-16 0 -6.68963e-26 0 5e-05 1.46608e-10 
76 1 0.384148 0.0172907 5.19645e-05 2.24036e-18 1.26447e-22 -1.71052e-15 0 -5.13636e-27 0 5e-05 1.46608e-10 
77 1 0.384899 0.0180553 5.29479e-05 1.79757e-18 7.75026e-22 -1.37249e-15 0 -1.12797e-26 0 5e-05 1.46608e-10 
78 1 0.384454 0.0177342 5.23646e-05 2.24032e-18 7.42016e-22 -1.71052e-15 0 1.51648e-26 0 5e-05 1.46608e-10 
79 1 0.384159 0.0206443 5.19783e-05 2.00503e-18 -3.31e-21 -1.5309e-15 0 -6.54116e-26 0 5e-05 1.46608e-10 
80 1 0.383985 0.017428 5.1751e-05 2.24035e-18 -3.24348e-21 -1.71051e-15 0 -4.80066e-26 0 5e-05 1.46608e-10 
82 1 0.384471 0.0161368 5.23876e-05 2.24032e-18 5.73123e-21 -1.71051e-15 0 7.85939e-26 0 5e-05 1.46608e-10 
83 1 0.384894 0.0205458 5.29418e-05 2.00504e-18 6.17857e-22 -1.5309e-15 4.03897e-28 -6.42804e-27 0 5e-05 1.46608e-10 
84 1 0.383993 0.0188764 5.17615e-05 5.32343e-19 -6.61987e-21 -4.06404e-16 0 0 0 5e-05 1.46608e-10 
85 1 0.383849 0.0193448 5.15725e-05 1.03568e-19 -3.96662e-22 -8.03914e-17 0 0 0 5e-05 1.46608e-10 
86 1 0.383935 0.0179283 5.16858e-05 -9.20516e-19 -5.56418e-23 7.02843e-16 0 -1.15001e-26 0 5e-05 1.46608e-10 
87 1 0.384931 0.0175954 5.29902e-05 1.79757e-18 -2.00599e-21 -1.37249e-15 0 1.67077e-26 0 5e-05 1.46608e-10 
88 1 0.383272 0.0191349 0.0052273 1.28258e-16 -1.93668e-21 3.78515e-14 0 5.51069e-26 0 5e-05 1.46608e-10 
89 1 0.38382 0.0176837 5.15355e-05 2.24035e-18 -8.56243e-22 -1.71051e-15 0 5.33017e-26 0 5e-05 1.46608e-10 
90 1 0.384046 0.0179367 5.18308e-05 2.24035e-18 -5.03808e-22 -1.71052e-15 0 1.3875e-26 0 5e-05 1.46608e-10 
91 1 0.384723 0.0172283 5.27177e-05 2.24035e-18 -2.63488e-22 -1.71052e-15 0 -6.99811e-26 0 5e-05 1.46608e-10 
92 1 0.384191 0.017054 5.20202e-05 -9.20537e-19 8.26786e-22 7.02843e-16 0 -3.26605e-26 0 5e-05 1.46608e-10 
93 1 0.383736 0.0207666 5.1425e-05 -1.1557e-18 -1.82644e-21 8.82406e-16 0 -9.91848e-26 0 5e-05 1.46608e-10 
94 1 0.383683 0.0188356 5.13558e-05 -3.50219e-19 -4.65973e-21 2.67383e-16 0 -1.6809e-27 0 5e-05 1.46608e-10 
95 1 0.384606 0.0176837 5.25637e-05 4.8073e-19 4.23976e-21 -3.71582e-16 0 0 -4.1359e-25 5e-05 1.46608e-10 
96 1 0.38444 0.0183063 5.23472e-05 1.79759e-18 2.86646e-24 -1.37251e-15 0 1.27028e-28 0 5e-05 1.46608e-10 
98 1 0.383724 0.0194164 5.14094e-05 -3.50209e-19 -6.54524e-21 2.67382e-16 0 -2.50687e-26 0 5e-05 1.46608e-10 
99 1 0.384303 0.0183686 5.21674e-05 1.79756e-18 2.15926e-21 -1.37249e-15 0 -4.72916e-26 0 5e-05 1.46608e-10 
100 1 0.384848 0.0173718 5.28812e-05 2.24035e-18 -2.05201e-21 -1.71052e-15 0 -6.93102e-26 0 5e-05 1.46608e-10 
101 1 0.384322 0.0214999 5.21918e-05 2.00509e-18 8.54877e-21 -1.5309e-15 0 4.7026e-25 0 5e-05 1.46608e-10 
102 1 0.0643568 0.0187248 0.00531097 4.59514e-15 1.04121e-14 8.29542e-14 -1.35749e-21 1.08412e-21 -6.07978e-23 5e-05 1.46608e-10 
103 1 0.24257 0.0191927 0.00520306 9.7161e-23 -1.27651e-22 1.23839e-22 0 0 0 5e-05 1.46608e-10 
104 1 0.384443 0.0190455 5.23502e-05 -3.50173e-19 -7.73869e-22 2.67381e-16 4.03897e-28 -8.075e-27 0 5e-05 1.46608e-10 
105 1 0.384764 0.0176468 0.000125094 1.07868e-19 1.0185e-20 -7.9929e-17 -1.29247e-26 0 -2.06795e-25 5e-05 1.46608e-10 
106 1 0.383893 0.0187182 5.16305e-05 7.79813e-19 3.00793e-21 -5.98255e-16 0 0 0 5e-05 1.46608e-10 
107 1 0.385147 0.0177812 0.000122873 -8.24881e-21 -3.69163e-21 -2.81824e-21 0 1.29247e-26 0 5e-05 1.46608e-10 
108 1 0.383662 0.0180867 5.13271e-05 -7.97701e-19 3.64882e-21 6.0885e-16 0 0 0 5e-05 1.46608e-10 
109 1 0.384177 0.0192838 5.20024e-05 2.81055e-18 -1.8773e-21 -2.14593e-15 -4.03897e-28 -4.86857e-26 0 5e-05 1.46608e-10 
110 1 0.384493 0.0193015 5.24162e-05 2.81056e-18 -4.3845e-23 -2.14593e-15 0 -2.00681e-27 0 5e-05 1.46608e-10 
111 1 0.384709 0.0176058 5.26985e-05 1.07255e-19 1.02087e-21 -7.99326e-17 2.58494e-26 2.26182e-26 0 5e-05 1.46608e-10 
112 1 0.384647 0.0185896 5.26184e-05 1.79764e-18 -5.43793e-21 -1.37251e-15 0 1.12962e-25 0 5e-05 1.46608e-10 
113 1 0.383921 0.0178347 0.00010527 -2.33347e-19 2.64207e-21 1.69476e-16 0 0 0 5e-05 1.46608e-10 
114 1 0.384105 0.0183256 5.19082e-05 1.7976e-18 2.96036e-21 -1.37249e-15 0 5.9236e-26 0 5e-05 1.46608e-10 
115 1 0.38367 0.0183173 5.13384e-05 1.79761e-18 -5.60836e-22 -1.37251e-15 0 3.62524e-26 0 5e-05 1.46608e-10 
116 1 0.383786 0.0180677 5.14897e-05 2.24036e-18 6.62461e-22 -1.71052e-15 0 5.28165e-27 0 5e-05 1.46608e-10 
117 1 0.384446 0.0168712 5.23543e-05 -8.95764e-19 -1.0088e-20 7.02812e-16 9.20885e-26 -3.87741e-26 0 5e-05 1.46608e-10 
118 1 0.383701 0.0187017 5.13793e-05 -3.50197e-19 -7.05229e-23 2.67381e-16 0 4.84418e-27 0 5e-05 1.46608e-10 
119 1 0.383906 0.018619 5.16476e-05 7.84033e-19 4.53956e-22 -5.98253e-16 0 0 0 5e-05 1.46608e-10 
120 1 0.384144 0.01791 5.19592e-05 2.77111e-14 -1.35451e-14 -9.34646e-15 -7.78862e-20 1.89307e-19 5.2236e-20 5e-05 1.46608e-10 
121 1 0.384817 0.0185465 5.28405e-05 1.79762e-18 -6.83626e-22 -1.37251e-15 -4.03897e-28 1.09605e-25 0 5e-05 1.46608e-10 
122 1 0.384225 0.0179695 5.20647e-05 -1.42565e-13 -1.14699e-13 1.76876e-14 1.98114e-19 6.95606e-19 2.12081e-19 5e-05 1.46608e-10 
123 1 0.383933 0.0192279 5.16831e-05 1.05166e-19 1.69293e-21 -8.03881e-17 0 0 0 5e-05 1.46608e-10 
124 1 0.384096 0.0170045 5.18952e-05 1.1417e-20 -8.78486e-21 -4.17044e-19 5.16988e-26 0 0 5e-05 1.46608e-10 
125 1 0.384626 0.016764 5.25911e-05 2.24033e-18 1.30803e-21 -1.71052e-15 0 2.75394e-26 0 5e-05 1.46608e-10 
127 1 0.384295 0.018231 0.000129802 1.54118e-20 1.36221e-20 -7.47673e-18 0 0 0 5e-05 1.46608e-10 
128 1 0.384383 0.0169852 5.22722e-05 -9.20552e-19 -7.04414e-22 7.02842e-16 4.03897e-28 -4.67169e-27 0 5e-05 1.46608e-10 
129 1 0.383806 0.0179676 5.15164e-05 -2.17608e-19 -1.60278e-22 1.69475e-16 -1.29247e-26 0 0 5e-05 1.46608e-10 
130 1 0.383859 0.0175842 5.15859e-05 2.24035e-18 -3.09494e-23 -1.71052e-15 0 -1.82526e-26 0 5e-05 1.46608e-10 
131 1 0.38345 0.0177196 0.00536012 -3.72857e-17 2.71576e-14 8.96732e-14 2.72142e-22 3.46408e-22 -1.04845e-22 5e-05 1.46608e-10 
132 1 0.384418 0.0164926 5.23174e-05 2.24035e-18 1.72545e-21 -1.71052e-15 0 -9.40918e-27 0 5e-05 1.46608e-10 
133 1 0.383591 0.0185347 5.12355e-05 -3.50216e-19 3.48563e-20 2.67382e-16 0 1.92086e-25 0 5e-05 1.46608e-10 
134 1 0.383574 0.0183691 5.12127e-05 2.81056e-18 -5.08792e-21 -2.14593e-15 0 -4.21052e-26 0 5e-05 1.46608e-10 
135 1 0.383667 0.0199993 5.13343e-05 2.81055e-18 -3.11725e-23 -2.14593e-15 0 2.083e-27 0 5e-05 1.46608e-10 
136 1 0.384475 0.0176309 5.23931e-05 -9.20557e-19 2.7974e-21 7.02843e-16 0 2.61417e-25 0 5e-05 1.46608e-10 
137 1 0.383925 0.0184105 5.16721e-05 1.79759e-18 -3.39811e-23 -1.37249e-15 0 -1.98848e-29 0 5e-05 1.46608e-10 
138 1 0.384418 0.0178531 5.23181e-05 4.59693e-12 2.76309e-12 1.95884e-12 3.7963e-18 -1.28606e-17 2.39338e-18 5e-05 1.46608e-10 
140 1 0.384798 0.0171606 5.28155e-05 2.24036e-18 6.65471e-21 -1.71052e-15 0 4.42312e-26 0 5e-05 1.46608e-10 
141 1 0.384313 0.0171449 5.21807e-05 2.24035e-18 4.8817e-21 -1.71052e-15 -4.03897e-28 -5.28255e-26 0 5e-05 1.46608e-10 
142 1 0.385769 0.0165473 5.40881e-05 1.45285e-18 -5.38314e-21 -1.10923e-15 0 -5.89599e-26 0 5e-05 1.46608e-10 
143 1 0.384333 0.0177947 5.22067e-05 -5.05126e-19 -4.16911e-21 3.87842e-16 0 0 0 5e-05 1.46608e-10 
144 1 0.384385 0.0195542 5.22753e-05 -3.50224e-19 1.62533e-20 2.67381e-16 0 1.96801e-25 0 5e-05 1.46608e-10 
146 1 0.384085 0.018684 5.18824e-05 2.81059e-18 9.70257e-22 -2.14593e-15 0 1.51788e-26 0 5e-05 1.46608e-10 
147 1 0.384719 0.0170987 5.27125e-05 2.24036e-18 -1.37881e-20 -1.71052e-15 0 2.30342e-25 0 5e-05 1.46608e-10 
148 1 0.383894 0.0174902 5.16321e-05 2.24031e-18 4.44628e-21 -1.71052e-15 0 -1.93154e-26 0 5e-05 1.46608e-10 
149 1 0.384744 0.0173967 5.27447e-05 -1.22402e-19 -3.09872e-21 9.02083e-17 0 1.29247e-26 0 5e-05 1.46608e-10 
150 1 0.383756 0.0184867 5.14508e-05 2.81059e-18 -1.11613e-21 -2.14593e-15 0 -1.41116e-25 0 5e-05 1.46608e-10 
151 1 0.384727 0.0201861 5.27225e-05 8.71359e-19 -8.29477e-22 -6.65298e-16 0 -1.83778e-25 0 5e-05 1.46608e-10 
153 1 0.384074 0.0170516 0.000137426 -6.02746e-22 2.47492e-21 1.75767e-21 -1.35709e-25 -4.52364e-26 -9.49157e-26 5e-05 1.46608e-10 
154 1 0.384584 0.0177681 0.000101539 5.04936e-19 1.38364e-21 -3.71587e-16 5.16988e-26 0 0 5e-05 1.46608e-10 
155 1 0.384544 0.0163094 5.24825e-05 -9.20561e-19 -9.32468e-21 7.02844e-16 0 1.4971e-25 0 5e-05 1.46608e-10 
156 1 0.384233 0.0168376 5.20754e-05 2.24034e-18 5.35654e-22 -1.71051e-15 0 2.88719e-27 0 5e-05 1.46608e-10 
157 1 0.0219312 0.0187687 0.00551176 -3.82565e-14 8.17003e-14 2.95888e-13 8.82653e-22 2.23856e-23 1.21389e-22 5e-05 1.46608e-10 
158 1 0.384319 0.0167636 5.21878e-05 2.24031e-18 6.32622e-20 -1.71052e-15 0 3.80537e-25 0 5e-05 1.46608e-10 
159 1 0.384228 0.0177075 5.20694e-05 -5.07581e-19 -4.24458e-21 3.87838e-16 -2.58494e-26 -5.16988e-26 0 5e-05 1.46608e-10 
160 1 0.38353 0.0176621 0.00537757 2.54093e-17 2.72374e-14 8.9649e-14 -2.78501e-22 -3.54369e-22 1.07533e-22 5e-05 1.46608e-10 
162 1 0.38396 0.0191288 5.17179e-05 -3.50197e-19 2.11407e-22 2.6738e-16 0 4.11927e-27 0 5e-05 1.46608e-10 
165 1 0.384146 0.0189135 5.19615e-05 -3.50177e-19 2.23992e-21 2.6738e-16 0 1.30009e-25 0 5e-05 1.46608e-10 
166 1 0.384895 0.0168866 5.2943e-05 -9.20536e-19 -2.60502e-21 7.02845e-16 0 5.06818e-25 0 5e-05 1.46608e-10 
167 1 0.384921 0.0196039 5.29764e-05 8.71358e-19 7.00293e-21 -6.65297e-16 0 1.86944e-25 0 5e-05 1.46608e-10 
168 1 0.383956 0.019484 5.17133e-05 2.81055e-18 2.12262e-22 -2.14593e-15 0 -2.93063e-27 0 5e-05 1.46608e-10 
169 1 0.383755 0.019009 5.14493e-05 2.81055e-18 -1.33806e-21 -2.14593e-15 0 -1.148e-26 0 5e-05 1.46608e-10 
170 1 0.383888 0.0184727 0.00523166 6.88025e-16 -4.57693e-15 -5.98175e-14 -1.78038e-24 -6.46235e-26 0 5e-05 1.46608e-10 
171 1 0.384004 0.0193816 5.17764e-05 2.81059e-18 2.07436e-21 -2.14593e-15 0 1.56068e-27 0 5e-05 1.46608e-10 
172 1 0.384121 0.0171522 0.000126213 -6.16335e-20 -5.91654e-21 2.8169e-17 -2.58494e-26 5.16988e-26 0 5e-05 1.46608e-10 
173 1 0.384268 0.0190399 5.21214e-05 -3.50216e-19 -1.46723e-21 2.67381e-16 4.03897e-28 1.11754e-25 0 5e-05 1.46608e-10 
174 1 0.384105 0.0178224 7.97669e-05 -1.92663e-15 4.4905e-15 -1.24114e-14 6.68125e-20 -1.03144e-19 -2.58138e-20 5e-05 1.46608e-10 
176 1 0.384124 0.018008 5.19332e-05 1.83161e-14 5.65614e-15 -2.08878e-15 -1.21701e-19 3.81452e-20 1.41799e-20 5e-05 1.46608e-10 
177 1 0.38435 0.018262 5.22293e-05 1.45743e-20 -2.15755e-22 -7.47398e-18 0 0 0 5e-05 1.46608e-10 
178 1 0.384053 0.0189567 5.184e-05 2.81059e-18 -3.09131e-22 -2.14593e-15 0 3.17484e-27 0 5e-05 1.46608e-10 
179 1 0.3843 0.0186551 5.2163e-05 1.79759e-18 6.84997e-21 -1.37251e-15 0 -9.35589e-26 0 5e-05 1.46608e-10 
182 1 0.384992 0.0180145 5.30695e-05 1.79759e-18 -2.07535e-21 -1.37251e-15 0 7.38976e-26 0 5e-05 1.46608e-10 
183 1 0.386759 0.0152483 5.53836e-05 1.45287e-18 7.93146e-21 -1.10923e-15 0 1.48616e-25 0 5e-05 1.46608e-10 
184 1 0.383617 0.019327 5.12691e-05 2.81055e-18 -5.25267e-22 -2.14593e-15 0 1.95131e-27 0 5e-05 1.46608e-10 
185 1 0.384403 0.0192492 5.22987e-05 -3.50201e-19 -2.5148e-21 2.67381e-16 0 -1.28614e-26 0 5e-05 1.46608e-10 
186 1 0.384249 0.018274 5.20972e-05 1.14818e-20 -3.40683e-22 -7.47483e-18 0 0 0 5e-05 1.46608e-10 
187 1 0.38373 0.0197118 5.14173e-05 -3.50198e-19 2.10975e-21 2.67381e-16 0 1.13291e-26 0 5e-05 1.46608e-10 
188 1 0.385076 0.0179467 5.31802e-05 1.79757e-18 -2.15498e-20 -1.37249e-15 0 5.60579e-26 0 5e-05 1.46608e-10 
189 1 0.38396 0.0177554 5.17178e-05 2.24031e-18 1.65039e-21 -1.71051e-15 0 2.33506e-27 0 5e-05 1.46608e-10 
190 1 0.383867 0.0210849 5.15964e-05 -1.15573e-18 1.60986e-20 8.82406e-16 0 9.73566e-26 0 5e-05 1.46608e-10 
191 1 0.384706 0.0184769 5.26952e-05 1.79757e-18 -1.66825e-21 -1.37249e-15 0 -3.112e-26 0 5e-05 1.46608e-10 
192 1 0.384023 0.0181084 5.1801e-05 2.42513e-15 -4.4686e-15 2.39442e-17 -4.4363e-20 3.24401e-20 3.83928e-20 5e-05 1.46608e-10 
193 1 0.383672 0.0184195 5.13415e-05 -3.5018e-19 1.05221e-22 2.67382e-16 0 2.08824e-25 0 5e-05 1.46608e-10 
194 1 0.384122 0.0182248 5.1931e-05 1.79759e-18 -9.65225e-21 -1.37249e-15 0 2.48817e-25 0 5e-05 1.46608e-10 
195 1 0.383967 0.0181955 5.17273e-05 1.79764e-18 1.87281e-21 -1.37251e-15 0 1.21141e-26 0 5e-05 1.46608e-10 
196 1 0.384122 0.0181236 5.19307e-05 1.79759e-18 -1.29192e-23 -1.37249e-15 0 -9.32673e-28 0 5e-05 1.46608e-10 
197 1 0.383676 0.0181534 0.000124512 -8.10414e-19 2.14876e-21 6.08853e-16 0 0 0 5e-05 1.46608e-10 
198 1 0.383816 0.019228 5.15292e-05 1.08955e-19 8.20712e-23 -8.03862e-17 0 0 0 5e-05 1.46608e-10 
199 1 0.38465 0.0174377 5.26211e-05 -1.16489e-19 -2.13566e-21 9.01927e-17 2.58494e-26 0 0 5e-05 1.46608e-10 
200 1 0.3851 0.0177266 5.32113e-05 -5.63914e-22 3.18074e-21 1.10769e-20 0 0 0 5e-05 1.46608e-10 
201 1 0.385006 0.0158243 5.30884e-05 1.45283e-18 9.07285e-22 -1.10923e-15 0 -5.53885e-27 0 5e-05 1.46608e-10 
202 1 0.385094 0.0174355 5.32031e-05 1.79761e-18 -3.33674e-21 -1.37251e-15 0 1.00629e-26 0 5e-05 1.46608e-10 
203 1 0.384504 0.0179623 5.24301e-05 2.59458e-12 2.55639e-12 -5.9159e-13 2.6071e-17 -6.58185e-18 -9.59349e-19 5e-05 1.46608e-10 
204 1 0.384109 0.0184302 5.19127e-05 1.79759e-18 6.1415e-22 -1.37251e-15 0 -7.34908e-27 0 5e-05 1.46608e-10 
205 1 0.384524 0.0174713 5.24569e-05 2.24031e-18 -1.9906e-21 -1.71052e-15 0 -9.73805e-26 0 5e-05 1.46608e-10 
206 1 0.38435 0.0178614 0.000125081 8.22296e-12 2.61489e-12 2.0359e-12 -3.18922e-18 -1.4638e-17 1.37381e-17 5e-05 1.46608e-10 
207 1 0.385023 0.0181691 5.31107e-05 1.79764e-18 1.28032e-23 -1.37251e-15 0 5.1009e-27 0 5e-05 1.46608e-10 
208 1 0.385037 0.0175739 5.31289e-05 1.7976e-18 -1.07729e-22 -1.37249e-15 0 1.39395e-26 0 5e-05 1.46608e-10 
209 1 0.383886 0.018028 5.16209e-05 1.03973e-15 -3.04428e-16 -6.81579e-16 1.12171e-20 1.39996e-20 4.48063e-21 5e-05 1.46608e-10 
210 1 0.384526 0.016716 5.24592e-05 2.24032e-18 9.20198e-21 -1.71051e-15 0 1.46826e-27 0 5e-05 1.46608e-10 
211 1 0.384505 0.0171609 5.24316e-05 2.24035e-18 -1.08623e-20 -1.71052e-15 0 6.72704e-26 0 5e-05 1.46608e-10 
212 1 0.383978 0.0185238 0.00522879 -2.82523e-15 1.87927e-14 2.4561e-13 -4.52364e-26 6.46235e-26 0 5e-05 1.46608e-10 
213 1 0.383846 0.0191172 5.15692e-05 2.81059e-18 1.61327e-21 -2.14593e-15 0 -5.91462e-27 0 5e-05 1.46608e-10 
214 1 0.384625 0.017537 5.25895e-05 9.32318e-20 -4.74126e-23 -7.992e-17 0 0 0 5e-05 1.46608e-10 
215 1 0.385553 0.0152374 5.38047e-05 1.45286e-18 -1.98179e-21 -1.10923e-15 0 -1.68196e-26 0 5e-05 1.46608e-10 
217 1 0.384411 0.0184417 5.23083e-05 1.7976e-18 -7.63687e-22 -1.37251e-15 0 2.22945e-26 0 5e-05 1.46608e-10 
218 1 0.384302 0.0165156 5.21656e-05 -9.20557e-19 -1.57573e-20 7.02843e-16 4.03897e-28 2.22514e-26 0 5e-05 1.46608e-10 
219 1 0.384399 0.0186101 5.22929e-05 1.79761e-18 -3.9666e-21 -1.37251e-15 0 1.16976e-25 0 5e-05 1.46608e-10 
220 1 0.384943 0.0187045 5.30057e-05 1.79759e-18 2.48073e-22 -1.37251e-15 0 -7.02212e-27 0 5e-05 1.46608e-10 
222 1 0.384205 0.0180675 5.20391e-05 -2.22827e-14 3.72225e-16 4.66276e-15 -9.90872e-20 5.94401e-19 -2.44171e-19 5e-05 1.46608e-10 
224 1 0.384058 0.0177382 5.18467e-05 -7.38686e-16 6.66645e-15 -1.69268e-15 -2.99375e-20 3.54931e-20 -5.33126e-20 5e-05 1.46608e-10 
225 1 0.384811 0.0174713 5.28328e-05 1.03592e-19 6.52186e-21 -7.99125e-17 0 0 0 5e-05 1.46608e-10 
226 1 0.383884 0.0196254 5.16191e-05 -3.50222e-19 6.20939e-21 2.67381e-16 0 -1.16226e-26 0 5e-05 1.46608e-10 
227 1 0.384574 0.0160758 5.25222e-05 2.24034e-18 1.34701e-20 -1.71052e-15 0 1.08482e-26 0 5e-05 1.46608e-10 
228 1 0.384056 0.0180406 0.000117497 8.38696e-15 -5.22919e-15 5.40302e-15 2.52948e-20 -4.03475e-20 5.98078e-20 5e-05 1.46608e-10 
229 1 0.384183 0.0194731 5.201e-05 -3.50204e-19 5.34144e-22 2.67382e-16 0 -1.17313e-25 0 5e-05 1.46608e-10 
230 1 0.385084 0.0171004 5.31901e-05 -9.20528e-19 2.3853e-21 7.02844e-16 0 -5.03373e-28 0 5e-05 1.46608e-10 
232 1 0.38345 0.0186594 0.00522432 -5.74109e-14 2.17037e-20 -1.77479e-13 0 -4.2064e-24 -2.06795e-25 5e-05 1.46608e-10 
233 1 0.384483 0.016964 5.24031e-05 -9.45379e-19 9.51681e-21 7.02812e-16 -9.04729e-26 4.20053e-26 0 5e-05 1.46608e-10 
234 1 0.384564 0.0189811 5.25095e-05 -3.50202e-19 -5.07789e-21 2.67382e-16 0 -1.44292e-26 0 5e-05 1.46608e-10 
235 1 0.385129 0.0178507 5.32485e-05 1.11177e-22 -8.43281e-22 -2.2895e-21 0 -2.58494e-26 0 5e-05 1.46608e-10 
236 1 0.385096 0.0164501 5.32056e-05 -9.20555e-19 -2.08588e-20 7.02842e-16 0 1.02419e-25 0 5e-05 1.46608e-10 
237 1 0.383933 0.0187648 0.000130442 7.69923e-19 4.10347e-21 -5.98258e-16 -2.58494e-26 0 0 5e-05 1.46608e-10 
239 1 0.384687 0.0169933 5.26707e-05 2.24037e-18 3.79847e-22 -1.71051e-15 0 3.06196e-27 0 5e-05 1.46608e-10 
240 1 0.384262 0.0177729 0.000119547 -5.10173e-19 1.97766e-21 3.8785e-16 0 0 0 5e-05 1.46608e-10 
241 1 0.384801 0.0166583 5.28192e-05 2.24033e-18 4.64937e-22 -1.71051e-15 0 5.09008e-26 0 5e-05 1.46608e-10 
242 1 0.383909 0.0188216 5.16519e-05 7.81603e-19 2.28287e-21 -5.98258e-16 0 0 0 5e-05 1.46608e-10 
243 1 0.38439 0.0209101 5.22816e-05 2.00504e-18 -3.90542e-21 -1.5309e-15 0 -6.12713e-25 0 5e-05 1.46608e-10 
244 1 0.384493 0.0173689 9.64047e-05 -1.18973e-19 -2.8751e-21 9.01872e-17 0 0 0 5e-05 1.46608e-10 
246 1 0.38382 0.0188681 5.15345e-05 -3.50221e-19 -1.93493e-22 2.6738e-16 0 -8.16552e-28 0 5e-05 1.46608e-10 
247 1 0.384541 0.017902 0.000125062 2.38447e-11 9.10981e-11 8.67092e-12 6.04578e-17 1.04314e-16 7.19385e-18 5e-05 1.46608e-10 
248 1 0.383639 0.0189866 5.12974e-05 -3.50205e-19 3.02782e-21 2.67381e-16 0 -1.78445e-26 0 5e-05 1.46608e-10 
249 1 0.38453 0.020178 5.24643e-05 8.71336e-19 1.74374e-22 -6.65297e-16 0 -1.29558e-25 0 5e-05 1.46608e-10 
250 1 0.384661 0.0178084 5.26366e-05 4.90872e-19 -8.21304e-22 -3.71583e-16 0 2.58494e-26 -4.1359e-25 5e-05 1.46608e-10 
251 1 0.384005 0.0178448 5.17769e-05 -2.19052e-19 6.87356e-22 1.69486e-16 0 0 0 5e-05 1.46608e-10 
252 1 0.384145 0.0205426 5.19607e-05 8.71354e-19 -5.80789e-21 -6.65298e-16 0 -2.04567e-25 0 5e-05 1.46608e-10 
253 1 0.383856 0.0203056 5.15822e-05 2.81056e-18 2.75969e-20 -2.14593e-15 0 6.97017e-26 0 5e-05 1.46608e-10 
254 1 0.38515 0.0175249 5.32762e-05 1.79758e-18 2.21724e-21 -1.37249e-15 -4.03897e-28 -1.15725e-26 0 5e-05 1.46608e-10 
255 1 0.383703 0.0182157 5.13821e-05 -7.98206e-19 1.93859e-21 6.08848e-16 0 0 0 5e-05 1.46608e-10 
256 1 0.384352 0.0191511 5.22319e-05 -3.50222e-19 -4.80782e-22 2.67382e-16 0 -6.02959e-28 0 5e-05 1.46608e-10 
257 1 0.384531 0.0168171 5.24664e-05 2.24033e-18 6.68174e-23 -1.71051e-15 0 -4.1348e-28 0 5e-05 1.46608e-10 
258 1 0.383662 0.0204201 5.13284e-05 -5.14035e-22 1.92672e-23 1.03396e-21 0 0 0 5e-05 1.46608e-10 
259 1 0.384524 0.0216685 5.24571e-05 2.00505e-18 3.97019e-21 -1.5309e-15 0 -1.80939e-25 0 5e-05 1.46608e-10 
260 1 0.384677 0.0173224 5.2657e-05 -1.26376e-19 3.03276e-21 9.02023e-17 0 0 0 5e-05 1.46608e-10 
261 1 0.383833 0.0185505 5.15522e-05 -3.50169e-19 -1.68066e-22 2.67381e-16 0 -1.99293e-27 0 5e-05 1.46608e-10 
262 1 0.384455 0.0172873 5.2367e-05 -1.1506e-19 -5.07066e-22 9.01909e-17 1.29247e-26 0 0 5e-05 1.46608e-10 
263 1 0.384148 0.018808 5.1965e-05 -3.5018e-19 -3.63918e-20 2.67382e-16 0 5.27235e-25 0 5e-05 1.46608e-10 
264 1 0.383874 0.0192744 0.000117813 9.95276e-20 3.14243e-21 -8.03892e-17 0 0 0 5e-05 1.46608e-10 
265 1 0.384664 0.0180562 5.26402e-05 1.79764e-18 -5.601e-22 -1.37251e-15 0 -5.60766e-26 0 5e-05 1.46608e-10 
266 1 0.383681 0.0195344 5.13528e-05 -3.50168e-19 1.35574e-21 2.67382e-16 0 2.26828e-26 0 5e-05 1.46608e-10 
267 1 0.384035 0.0173399 5.18167e-05 2.24032e-18 1.00024e-22 -1.71052e-15 0 -2.22593e-27 0 5e-05 1.46608e-10 
268 1 0.384513 0.0181523 5.24423e-05 1.79759e-18 -1.23966e-20 -1.37251e-15 0 -1.33524e-25 0 5e-05 1.46608e-10 
269 1 0.383985 0.018016 5.17508e-05 4.8343e-15 -4.06423e-15 -2.16559e-15 3.03149e-20 -1.30798e-20 -9.94147e-21 5e-05 1.46608e-10 
270 1 0.384204 0.0178183 5.2038e-05 -5.10448e-19 3.28187e-21 3.87841e-16 0 0 0 5e-05 1.46608e-10 
271 1 0.384204 0.0183848 5.20381e-05 1.7976e-18 4.13696e-21 -1.37251e-15 0 -4.92911e-26 0 5e-05 1.46608e-10 
272 1 0.384044 0.0177752 0.000143609 1.4153e-14 2.55708e-15 6.62826e-15 -1.61471e-20 5.7984e-20 2.63749e-20 5e-05 1.46608e-10 
273 1 0.38425 0.0173241 5.20975e-05 2.24031e-18 3.31836e-21 -1.71051e-15 0 -6.70711e-27 0 5e-05 1.46608e-10 
274 1 0.383762 0.0206306 5.14594e-05 8.71367e-19 -6.0577e-22 -6.65298e-16 0 1.46375e-26 0 5e-05 1.46608e-10 
275 1 0.385192 0.0170617 5.33312e-05 -9.20557e-19 -6.33484e-22 7.02844e-16 0 -5.22942e-27 0 5e-05 1.46608e-10 
276 1 0.3843 0.0175031 5.2164e-05 2.24035e-18 6.47591e-24 -1.71052e-15 0 3.3777e-26 0 5e-05 1.46608e-10 
277 1 0.384989 0.0177301 5.30663e-05 1.79759e-18 -1.04446e-22 -1.37249e-15 0 -2.73433e-26 0 5e-05 1.46608e-10 
278 1 0.384608 0.0171655 5.25668e-05 2.24034e-18 3.49322e-22 -1.71052e-15 0 -2.69715e-27 0 5e-05 1.46608e-10 
280 1 0.383746 0.0191087 5.14383e-05 2.81054e-18 -6.84028e-22 -2.14593e-15 0 -9.78263e-27 0 5e-05 1.46608e-10 
281 1 0.384897 0.0194055 5.2945e-05 8.71345e-19 9.02349e-21 -6.65298e-16 0 8.3618e-26 0 5e-05 1.46608e-10 
283 1 0.384732 0.0167368 5.27299e-05 2.24032e-18 4.86676e-22 -1.71052e-15 0 5.07723e-27 0 5e-05 1.46608e-10 
284 1 0.383859 0.0194467 5.15855e-05 2.81055e-18 -1.61e-23 -2.14593e-15 0 -1.45497e-27 0 5e-05 1.46608e-10 
285 1 0.384511 0.017816 5.24399e-05 4.94e-19 4.00268e-21 -3.71581e-16 0 -5.16988e-26 0 5e-05 1.46608e-10 
286 1 0.384761 0.017818 5.27671e-05 4.84183e-19 2.14294e-23 -3.71584e-16 -2.58494e-26 0 0 5e-05 1.46608e-10 
287 1 0.384417 0.0167417 5.23161e-05 2.24037e-18 3.90796e-21 -1.71052e-15 0 7.87001e-26 0 5e-05 1.46608e-10 
288 1 0.384905 0.0179551 5.29553e-05 1.79759e-18 -4.81898e-21 -1.37251e-15 0 3.08925e-26 0 5e-05 1.46608e-10 
290 1 0.38472 0.0175079 6.94547e-05 1.14404e-19 3.47059e-21 -7.99292e-17 -1.29247e-26 0 0 5e-05 1.46608e-10 
291 1 0.38371 0.0179981 5.13903e-05 2.24031e-18 -6.21648e-22 -1.71052e-15 0 -2.73348e-27 0 5e-05 1.46608e-10 
292 1 0.384101 0.0193494 5.19028e-05 -3.50202e-19 1.83617e-21 2.67381e-16 0 -5.37658e-26 0 5e-05 1.46608e-10 
293 1 0.384429 0.0174321 5.23324e-05 -1.18312e-19 6.47623e-21 9.0189e-17 -5.16988e-26 0 0 5e-05 1.46608e-10 
294 1 0.383845 0.0189654 5.1567e-05 5.31324e-19 5.37244e-22 -4.06399e-16 0 0 0 5e-05 1.46608e-10 
295 1 0.383647 0.0190875 5.13083e-05 -3.50203e-19 6.68467e-24 2.67381e-16 4.03897e-28 1.04547e-29 0 5e-05 1.46608e-10 
296 1 0.384035 0.0172167 0.000137258 -7.3591e-18 9.16414e-19 3.91433e-17 1.03398e-25 1.03398e-25 2.06795e-25 5e-05 1.46608e-10 
297 1 0.383829 0.0183804 5.15472e-05 1.79762e-18 1.62102e-21 -1.37251e-15 0 -6.32661e-27 0 5e-05 1.46608e-10 
298 1 0.384428 0.0175321 5.23311e-05 -1.17463e-19 5.66602e-21 9.01757e-17 6.46235e-27 0 0 5e-05 1.46608e-10 
299 1 0.38404 0.0171308 0.000188309 -1.27152e-17 2.98986e-17 1.96986e-17 -2.06795e-25 1.03398e-25 0 5e-05 1.46608e-10 
300 1 0.383994 0.0172487 5.17625e-05 -5.78208e-20 -2.69808e-21 4.97506e-17 1.03398e-25 -1.03398e-25 -4.1359e-25 5e-05 1.46608e-10 
