ITEM: TIMESTEP
59600000
ITEM: NUMBER OF ATOMS
272
ITEM: BOX BOUNDS ff ff ff
-0.02 0.43
-0.02 0.06
-0.02 0.07
ITEM: ATOMS id type x y z vx vy vz fx fy fz radius mass 
1 1 0.360699 0.0178387 0.00702441 0.0056998 0.000238177 -7.1092e-05 -3.84026e-11 -2.30592e-11 7.53695e-11 5e-05 1.46608e-10 
2 1 0.360647 0.0174888 0.0073033 0.00565711 0.000268411 -8.92196e-05 1.34278e-10 -5.43868e-11 1.39485e-10 5e-05 1.46608e-10 
4 1 0.360606 0.0170178 0.00749781 0.00561834 9.89968e-05 1.52996e-05 -2.01199e-11 -1.19743e-10 7.55888e-11 5e-05 1.46608e-10 
6 1 0.366432 0.0170404 0.00750585 0.00594059 -9.44599e-05 0.000245466 4.30868e-12 6.0701e-11 -4.31591e-11 5e-05 1.46608e-10 
7 1 0.360759 0.017688 0.00708457 0.00569339 0.00024086 -7.23444e-05 4.73582e-11 1.78682e-13 2.62073e-11 5e-05 1.46608e-10 
8 1 0.360424 0.0166543 0.00772059 0.00608645 0.000169108 -2.18272e-05 -1.1953e-10 4.55201e-11 -3.11612e-11 5e-05 1.46608e-10 
9 1 0.36662 0.0178629 0.00696937 0.00563175 -0.000148603 4.28636e-05 -4.55259e-11 1.78386e-12 9.51755e-12 5e-05 1.46608e-10 
10 1 0.360402 0.0165712 0.00777181 0.00611012 0.000165776 -1.93393e-05 -1.29013e-10 8.40838e-12 -6.17769e-12 5e-05 1.46608e-10 
11 1 0.360855 0.0183357 0.00697964 0.00565421 0.000204189 -7.73485e-05 7.98543e-12 9.45778e-11 9.73549e-11 5e-05 1.46608e-10 
12 1 0.354623 0.0170813 0.00751896 0.00569895 -0.000127332 -0.000258728 3.25952e-10 -9.96276e-12 -1.84693e-12 5e-05 1.46608e-10 
13 1 0.360199 0.0161518 0.00806918 0.00613045 -0.000616607 -0.00108586 -1.99992e-10 3.52871e-10 -1.24695e-10 5e-05 1.46608e-10 
14 1 0.354571 0.0172312 0.00744458 0.00567322 -0.000175794 -0.000235256 -2.20401e-10 1.74668e-10 -7.53258e-11 5e-05 1.46608e-10 
16 1 0.354826 0.0179926 0.00703727 0.00550191 3.72351e-05 -0.000333884 -6.84809e-10 6.6736e-11 4.07604e-12 5e-05 1.46608e-10 
17 1 0.360263 0.0163787 0.0078892 0.00612058 0.000104762 1.754e-05 4.83343e-11 1.63876e-10 -1.08411e-10 5e-05 1.46608e-10 
19 1 0.36022 0.0162136 0.0079935 0.00615938 -0.000659605 -0.00111875 -6.32687e-11 8.42129e-11 -2.03369e-10 5e-05 1.46608e-10 
21 1 0.360644 0.0175735 0.00715396 0.00567043 0.00025676 -8.07656e-05 -2.81741e-11 -2.53125e-11 3.68866e-11 5e-05 1.46608e-10 
22 1 0.360819 0.0175514 0.00717004 0.00566255 0.000238396 -6.88712e-05 2.01402e-11 -1.34942e-11 -6.07773e-12 5e-05 1.46608e-10 
23 1 0.354902 0.018048 0.0070043 0.00545665 7.36033e-05 -0.000355 -4.69127e-10 -4.75483e-10 2.69364e-10 5e-05 1.46608e-10 
24 1 0.366548 0.0175328 0.00718329 0.00545495 -0.000107489 2.5747e-05 -8.11082e-11 -6.94478e-12 5.72161e-12 5e-05 1.46608e-10 
25 1 0.360542 0.0167655 0.00765327 0.0060205 0.000132606 -2.18272e-07 -1.23494e-10 7.51392e-11 -4.34828e-11 5e-05 1.46608e-10 
26 1 0.366584 0.0176978 0.00707629 0.00553648 -0.000123879 3.56545e-05 5.63385e-11 -4.42426e-11 2.815e-11 5e-05 1.46608e-10 
27 1 0.354463 0.016797 0.00767475 0.00594411 -0.000190477 -0.000241764 1.40894e-11 -4.86394e-11 4.0212e-11 5e-05 1.46608e-10 
28 1 0.360371 0.016794 0.00763329 0.00606146 0.000158788 -1.56662e-05 -4.81066e-12 5.56594e-11 -2.92292e-11 5e-05 1.46608e-10 
29 1 0.360178 0.01609 0.00814491 0.00609966 -0.000603849 -0.00108144 -6.05452e-11 2.00903e-10 -2.10205e-10 5e-05 1.46608e-10 
30 1 0.36049 0.0172965 0.00742502 0.00566004 0.000220133 -7.33317e-05 -1.54546e-10 -5.18337e-12 1.66841e-11 5e-05 1.46608e-10 
31 1 0.360663 0.0176571 0.0071024 0.00568697 0.000252162 -7.97009e-05 2.12149e-11 -1.57488e-11 2.0956e-11 5e-05 1.46608e-10 
32 1 0.360285 0.0164618 0.007838 0.00610753 0.000117516 9.96446e-06 -1.42508e-11 1.6989e-10 -1.06442e-10 5e-05 1.46608e-10 
33 1 0.366452 0.0171218 0.00745133 0.00565046 -4.78717e-05 0.000205179 1.25067e-11 3.52825e-11 -3.14313e-11 5e-05 1.46608e-10 
34 1 0.360241 0.0162955 0.00794041 0.00612927 9.60878e-05 2.62437e-05 4.79906e-11 1.59805e-10 -7.80775e-11 5e-05 1.46608e-10 
35 1 0.360703 0.0174369 0.00723941 0.00567342 0.000261151 -8.26257e-05 6.37679e-11 -6.25039e-11 6.29652e-11 5e-05 1.46608e-10 
36 1 0.366677 0.0181572 0.00697976 0.00559868 -0.000147403 4.2515e-05 -6.11204e-11 -1.10624e-11 6.3084e-12 5e-05 1.46608e-10 
37 1 0.360586 0.0169342 0.00754936 0.00550474 0.000150998 -1.84422e-05 -2.02266e-10 -1.71995e-12 -9.58469e-13 5e-05 1.46608e-10 
38 1 0.360666 0.0172697 0.00734254 0.00571656 0.00025955 -8.28038e-05 -3.11536e-11 -1.29654e-11 1.42435e-11 5e-05 1.46608e-10 
39 1 0.366566 0.0176153 0.00712976 0.00549944 -0.000114319 3.01728e-05 -8.15751e-12 -3.39269e-11 2.01021e-11 5e-05 1.46608e-10 
42 1 0.36087 0.0178046 0.00701383 0.00571065 0.000241798 -7.10976e-05 -6.40888e-11 -2.93061e-11 -1.85093e-11 5e-05 1.46608e-10 
44 1 0.360913 0.0179828 0.0069631 0.00566764 0.000231789 -7.96044e-05 -2.35903e-11 3.28012e-11 1.98512e-11 5e-05 1.46608e-10 
45 1 0.366472 0.0172034 0.007397 0.0057076 -0.000157663 5.58207e-05 -5.88389e-11 3.09249e-11 -7.19804e-12 5e-05 1.46608e-10 
47 1 0.290869 0.0172529 0.00804262 -1.48559e-10 -0.021366 0.0111159 -1.07638e-18 1.00729e-11 1.93715e-11 5e-05 1.46608e-10 
48 1 0.360512 0.0173776 0.00727357 0.00568412 0.000246302 -7.4233e-05 -2.92688e-11 2.34542e-11 9.91573e-12 5e-05 1.46608e-10 
49 1 0.366639 0.017961 0.00697283 0.00558785 -0.000143173 4.25167e-05 2.27733e-11 4.01459e-12 3.88445e-12 5e-05 1.46608e-10 
50 1 0.360306 0.0165449 0.00778677 0.0061017 0.000130129 2.96305e-06 3.24593e-11 1.2544e-10 -8.24875e-11 5e-05 1.46608e-10 
51 1 0.360928 0.0184046 0.00698153 0.00565358 0.000199837 -8.17174e-05 4.61678e-12 5.31974e-11 -5.03131e-11 5e-05 1.46608e-10 
52 1 0.354785 0.0186887 0.00697183 0.00590394 -0.000547437 0.000252935 -1.33645e-10 -7.28117e-10 8.07046e-10 5e-05 1.46608e-10 
53 1 0.36651 0.017368 0.00729023 0.00551386 -0.000119498 3.29359e-05 -1.31665e-11 -1.77079e-11 9.70675e-12 5e-05 1.46608e-10 
54 1 0.360739 0.0181623 0.00705476 0.00568476 0.000250537 -7.85415e-05 2.57275e-11 7.58827e-12 -3.1763e-11 5e-05 1.46608e-10 
55 1 0.354787 0.0173191 0.00738687 0.00559225 -5.2511e-05 -0.000293188 -9.71534e-11 2.99029e-10 -1.2828e-10 5e-05 1.46608e-10 
56 1 0.360641 0.0179757 0.00696739 0.00569709 0.000233669 -7.82747e-05 1.19138e-11 3.59481e-11 1.9362e-11 5e-05 1.46608e-10 
57 1 0.366491 0.0172856 0.00734363 0.0057141 -0.000156082 5.50682e-05 2.63288e-12 -1.41589e-12 1.19798e-12 5e-05 1.46608e-10 
59 1 0.378022 0.019866 0.005332 -5.02001e-15 -7.41177e-15 7.69802e-14 -2.27475e-24 2.48154e-24 2.06795e-25 5e-05 1.46608e-10 
60 1 0.360941 0.0180793 0.00696693 0.00562605 0.000294229 -7.68572e-05 1.72362e-10 -6.57782e-11 1.07071e-11 5e-05 1.46608e-10 
62 1 0.360685 0.0173533 0.00729099 0.00570074 0.00026065 -8.38292e-05 -1.0234e-10 -8.55683e-11 5.12448e-11 5e-05 1.46608e-10 
63 1 0.360721 0.0179148 0.00696314 0.00570084 0.000234649 -7.74873e-05 3.47797e-11 -7.79437e-12 2.22995e-11 5e-05 1.46608e-10 
64 1 0.366529 0.0174504 0.00723675 0.00536094 -9.32549e-05 1.70752e-05 -7.67252e-11 -6.33687e-12 4.1829e-12 5e-05 1.46608e-10 
65 1 0.354548 0.0171423 0.00749176 0.00569592 -0.000148221 -0.000251557 -2.67944e-11 9.39782e-11 -5.51422e-11 5e-05 1.46608e-10 
66 1 0.354764 0.0185918 0.00698489 0.00593534 -0.000484105 0.000552878 7.29636e-10 8.92566e-10 6.89551e-10 5e-05 1.46608e-10 
67 1 0.360843 0.0180572 0.0069675 0.00565195 0.000217792 -7.96105e-05 6.84112e-11 7.13941e-12 1.34144e-11 5e-05 1.46608e-10 
68 1 0.360509 0.0169879 0.00751503 0.00553811 0.000182125 -3.72645e-05 -1.80864e-10 -1.22011e-11 9.52337e-12 5e-05 1.46608e-10 
69 1 0.360732 0.0184396 0.00699003 0.00566146 0.000237561 -9.89158e-05 6.79383e-11 -2.62674e-11 -5.96661e-11 5e-05 1.46608e-10 
70 1 0.366605 0.0177798 0.00702305 0.00560216 -0.00014027 4.3585e-05 7.40936e-11 -2.55892e-11 1.8631e-11 5e-05 1.46608e-10 
71 1 0.354869 0.0186354 0.00696352 0.00592603 -0.000446933 0.00034854 7.80449e-10 4.14766e-10 5.16727e-10 5e-05 1.46608e-10 
72 1 0.36068 0.0181718 0.00697516 0.00568737 0.00024097 -8.12243e-05 -1.85346e-13 1.12224e-11 -1.20435e-11 5e-05 1.46608e-10 
73 1 0.360852 0.0177207 0.00706556 0.00573208 0.000272957 -8.96998e-05 2.52578e-11 8.62026e-11 -4.41841e-11 5e-05 1.46608e-10 
74 1 0.360775 0.0175696 0.0072583 0.00559151 0.00027297 -0.000107227 7.19153e-11 -5.04892e-11 -6.33854e-12 5e-05 1.46608e-10 
76 1 0.354484 0.0168833 0.007629 0.00591176 -0.00018539 -0.000240626 -1.75246e-10 -4.24172e-11 5.04012e-11 5e-05 1.46608e-10 
77 1 0.360739 0.0177058 0.00718079 0.00566181 0.000252431 -8.40905e-05 2.94972e-11 -1.91806e-11 2.4415e-11 5e-05 1.46608e-10 
78 1 0.354057 0.0156395 0.00845111 0.00612101 0.000647392 0.000863758 -1.58858e-10 -4.54445e-10 4.0214e-10 5e-05 1.46608e-10 
79 1 0.354707 0.0182951 0.0068907 0.00573819 0.000235041 0.000461432 7.36479e-11 4.27826e-10 9.82852e-11 5e-05 1.46608e-10 
80 1 0.360467 0.0168235 0.00762268 0.00603871 0.000148364 -1.04426e-05 -1.30495e-10 2.44601e-11 4.69457e-12 5e-05 1.46608e-10 
82 1 0.354936 0.0185118 0.00694636 0.00603417 -0.000387475 0.000388169 8.93376e-11 4.04512e-10 6.01926e-11 5e-05 1.46608e-10 
83 1 0.35473 0.0172088 0.00744699 0.0056499 -9.19698e-05 -0.000288768 -4.11228e-10 4.75235e-10 -1.72443e-10 5e-05 1.46608e-10 
84 1 0.366658 0.0180591 0.0069763 0.00558837 -0.000143217 4.25091e-05 -2.61003e-11 -1.0906e-11 4.26217e-12 5e-05 1.46608e-10 
85 1 0.354916 0.018414 0.0069451 0.00570909 -0.000322072 0.000257959 5.8515e-10 -7.90293e-10 -1.78601e-10 5e-05 1.46608e-10 
86 1 0.360876 0.0178899 0.00696102 0.00568887 0.000236011 -7.1315e-05 -6.02405e-11 4.85906e-12 -3.399e-11 5e-05 1.46608e-10 
87 1 0.360446 0.0167376 0.00766925 0.00607021 0.000171868 -2.37111e-05 2.21005e-11 8.66547e-11 -5.28131e-11 5e-05 1.46608e-10 
88 1 0.360737 0.0179596 0.00705217 0.00569471 0.000230396 -5.90627e-05 2.8944e-11 -4.85097e-11 8.89979e-11 5e-05 1.46608e-10 
89 1 0.360771 0.0182145 0.0069756 0.0056652 0.000254385 -7.98865e-05 -7.36939e-11 1.27911e-11 1.32733e-11 5e-05 1.46608e-10 
90 1 0.360873 0.0181526 0.00697125 0.00565507 0.000212016 -8.10534e-05 -2.13328e-12 4.11643e-11 3.65407e-12 5e-05 1.46608e-10 
91 1 0.354601 0.0169949 0.00756472 0.00588127 -0.000168442 -0.000249521 -8.80671e-11 -1.14977e-10 7.47173e-11 5e-05 1.46608e-10 
92 1 0.360615 0.0176715 0.00719577 0.00560337 0.000211901 -0.00020524 -2.0005e-11 3.79533e-11 6.17051e-11 5e-05 1.46608e-10 
93 1 0.360873 0.0186283 0.00699229 0.00604127 0.00015181 -8.89799e-05 8.86856e-11 9.67445e-11 4.58971e-13 5e-05 1.46608e-10 
94 1 0.360645 0.0179218 0.00705202 0.00569476 0.000242155 -7.03767e-05 9.95358e-14 1.42109e-11 7.41373e-11 5e-05 1.46608e-10 
95 1 0.360681 0.0177407 0.00705083 0.00570138 0.000244773 -7.42707e-05 1.56195e-11 3.58681e-12 1.90361e-11 5e-05 1.46608e-10 
96 1 0.360454 0.0171271 0.00742798 0.0057502 0.000224721 -6.1478e-05 6.67928e-11 1.28823e-11 -9.07659e-12 5e-05 1.46608e-10 
97 1 0.35429 0.0161043 0.00804196 0.0061538 -0.000208936 -0.000228218 4.36753e-10 -3.42645e-10 1.58759e-11 5e-05 1.46608e-10 
98 1 0.360774 0.0186352 0.00699418 0.00603213 0.000176902 -8.88454e-05 4.70479e-11 1.08653e-10 2.80547e-12 5e-05 1.46608e-10 
99 1 0.354543 0.0175481 0.00734103 0.00540164 -5.79702e-05 -0.000315505 6.43717e-12 1.97812e-10 -2.41577e-10 5e-05 1.46608e-10 
100 1 0.360774 0.0177733 0.0070319 0.00570984 0.000248343 -7.57561e-05 -1.03934e-10 -5.76763e-11 1.05731e-11 5e-05 1.46608e-10 
101 1 0.354556 0.0175988 0.00725583 0.00540359 -1.88565e-05 -0.000309183 1.95406e-11 2.71005e-10 -1.86946e-10 5e-05 1.46608e-10 
102 1 0.0643568 0.0187248 0.00531097 4.2196e-15 1.05308e-14 8.29583e-14 2.18705e-21 -4.34037e-22 -6.32793e-23 5e-05 1.46608e-10 
103 1 0.24257 0.0191927 0.00520306 8.61412e-23 4.86658e-23 1.23839e-22 -3.23117e-27 0 0 5e-05 1.46608e-10 
104 1 0.354864 0.018131 0.00696387 0.00509931 -0.000222737 -0.000551604 -4.66638e-10 -7.89415e-10 2.43641e-10 5e-05 1.46608e-10 
105 1 0.354268 0.016018 0.00808769 0.00611002 -0.000199613 -0.000230937 7.51361e-10 -3.51828e-10 1.39368e-10 5e-05 1.46608e-10 
106 1 0.354636 0.0178479 0.0072146 0.00556875 1.31123e-05 -0.000322065 9.11447e-11 3.3471e-10 -8.6459e-11 5e-05 1.46608e-10 
107 1 0.354079 0.0157073 0.00838085 0.00612782 0.000626491 0.000886832 -6.01158e-12 -8.27736e-11 1.3802e-10 5e-05 1.46608e-10 
108 1 0.360661 0.0180737 0.00697112 0.00569225 0.000235977 -7.8449e-05 2.26563e-11 2.34891e-11 -2.53797e-12 5e-05 1.46608e-10 
109 1 0.360832 0.0184328 0.0069843 0.00566088 0.000215071 -7.83566e-05 6.70053e-11 1.20303e-10 -7.84121e-12 5e-05 1.46608e-10 
110 1 0.360698 0.0177942 0.00713374 0.00568774 0.000243475 -7.33287e-05 8.21807e-11 -2.1379e-11 8.55712e-11 5e-05 1.46608e-10 
111 1 0.360509 0.0173801 0.00737348 0.00569892 0.000250159 -7.6924e-05 -6.45895e-11 3.70304e-12 3.50154e-12 5e-05 1.46608e-10 
112 1 0.35443 0.0163043 0.00793072 0.00607724 -0.000207773 -0.00024063 -8.50537e-11 -1.28086e-10 7.30084e-11 5e-05 1.46608e-10 
113 1 0.354463 0.0171933 0.00747667 0.00568682 -0.000158125 -0.00025729 -1.182e-10 1.34526e-10 -9.61533e-11 5e-05 1.46608e-10 
114 1 0.354504 0.0173635 0.00738017 0.0056861 -0.000137488 -0.000256473 -6.59875e-12 1.93108e-10 -1.15956e-10 5e-05 1.46608e-10 
115 1 0.360647 0.0171859 0.0073942 0.00583408 0.000407749 -0.000173014 -1.11797e-10 3.00761e-11 -1.88973e-11 5e-05 1.46608e-10 
116 1 0.360626 0.0174899 0.00720554 0.00566779 0.000256377 -8.1583e-05 7.3502e-11 -4.04469e-11 6.91246e-11 5e-05 1.46608e-10 
117 1 0.360741 0.0176044 0.00713614 0.00567037 0.000243394 -7.44554e-05 2.71064e-11 -1.0463e-11 3.60783e-11 5e-05 1.46608e-10 
118 1 0.35469 0.017291 0.00740696 0.00563027 -7.33128e-05 -0.000255444 2.03451e-10 5.10546e-10 -2.09978e-11 5e-05 1.46608e-10 
119 1 0.360696 0.0182547 0.00702844 0.00566646 0.000242638 -7.01756e-05 -1.09493e-10 -3.52186e-11 7.53834e-11 5e-05 1.46608e-10 
120 1 0.36078 0.017383 0.00727388 0.00568472 0.000272916 -9.08341e-05 1.98503e-11 -1.48936e-10 9.99023e-11 5e-05 1.46608e-10 
121 1 0.360568 0.0176285 0.00711887 0.00536489 0.000292907 -0.000105951 -7.21892e-11 6.46374e-11 9.29807e-12 5e-05 1.46608e-10 
122 1 0.360434 0.0170437 0.00747941 0.00561556 0.000246191 -7.63926e-05 -2.21857e-11 4.24418e-11 -2.76067e-11 5e-05 1.46608e-10 
123 1 0.354829 0.0188812 0.00700442 0.00592715 -0.000523771 0.000341954 -2.35334e-10 -6.39639e-10 -1.11896e-10 5e-05 1.46608e-10 
124 1 0.360837 0.017635 0.00711848 0.00568223 0.00023141 -6.57161e-05 2.22494e-11 -4.89549e-11 3.02849e-11 5e-05 1.46608e-10 
125 1 0.360549 0.0171548 0.0074121 0.00581882 0.000246349 -7.31454e-05 -7.39436e-13 -9.53194e-12 4.47486e-12 5e-05 1.46608e-10 
127 1 0.354143 0.0159107 0.00817006 0.00617361 0.000607424 0.000912738 2.28915e-11 7.80539e-11 2.23102e-10 5e-05 1.46608e-10 
128 1 0.360762 0.0172993 0.00732545 0.00571353 0.000263669 -8.56671e-05 -1.08037e-10 -9.46984e-11 5.61381e-11 5e-05 1.46608e-10 
129 1 0.360822 0.0179647 0.00699888 0.00568086 0.000224377 -6.61083e-05 2.68093e-11 -3.72429e-11 1.72156e-11 5e-05 1.46608e-10 
130 1 0.354616 0.0174141 0.00734768 0.00561675 -3.12692e-05 -0.000304118 -2.48387e-10 1.04649e-10 -4.68145e-12 5e-05 1.46608e-10 
131 1 0.354623 0.0175026 0.00730164 0.00543342 -3.71539e-06 -0.000309555 -3.11504e-11 1.54861e-10 -3.99259e-11 5e-05 1.46608e-10 
132 1 0.360627 0.0171021 0.00744583 0.00583935 0.000269694 -8.74541e-05 -8.35488e-12 -3.03021e-11 1.90831e-11 5e-05 1.46608e-10 
133 1 0.360597 0.0177606 0.00715409 0.00563755 0.000258277 -0.000110284 -1.27938e-11 -3.65816e-12 -3.78863e-12 5e-05 1.46608e-10 
134 1 0.360607 0.0174061 0.00725721 0.00568725 0.000254734 -8.08486e-05 -9.87649e-12 -3.93304e-11 5.37131e-11 5e-05 1.46608e-10 
135 1 0.360752 0.0185377 0.0069902 0.00601206 0.000170201 -8.84111e-05 3.20859e-11 -8.81086e-12 -4.86921e-12 5e-05 1.46608e-10 
136 1 0.354527 0.0170559 0.00753752 0.00587593 -0.000187417 -0.000240598 -1.4992e-11 4.59477e-13 -1.915e-11 5e-05 1.46608e-10 
137 1 0.360749 0.0178744 0.00710324 0.00569687 0.000233814 -6.71622e-05 1.31047e-10 -1.25483e-10 7.00915e-12 5e-05 1.46608e-10 
138 1 0.360605 0.0175828 0.00724538 0.00554918 0.000287831 -0.000128897 -4.71472e-12 8.72734e-11 1.05056e-10 5e-05 1.46608e-10 
140 1 0.360393 0.0168771 0.00758208 0.00605635 0.000162807 -1.84102e-05 -2.15239e-11 3.89362e-11 -2.45157e-11 5e-05 1.46608e-10 
141 1 0.354473 0.016477 0.00783923 0.00603293 -0.000192414 -0.000246778 1.83026e-10 -9.01863e-11 3.1421e-11 5e-05 1.46608e-10 
142 1 0.35492 0.0179601 0.00704865 0.00556091 0.000120063 -0.000382232 -5.89231e-10 5.63759e-10 -2.66661e-10 5e-05 1.46608e-10 
143 1 0.3541 0.0157751 0.00831059 0.00614296 0.000614658 0.000902083 5.75313e-11 9.04834e-11 -1.50349e-12 5e-05 1.46608e-10 
144 1 0.354874 0.0177747 0.00714689 0.00553368 -0.000140846 -0.00024227 1.4686e-10 1.91153e-10 -8.43715e-11 5e-05 1.46608e-10 
146 1 0.35454 0.0172058 0.00763664 0.00565568 -0.000150877 -0.000246059 6.78863e-11 6.37286e-12 -1.80386e-10 5e-05 1.46608e-10 
147 1 0.354596 0.0173273 0.00739358 0.00568368 -0.000148837 -0.000242793 5.91059e-11 1.64513e-10 -4.92649e-11 5e-05 1.46608e-10 
148 1 0.354494 0.0165633 0.00779348 0.00601484 -0.000182072 -0.000250435 6.98203e-11 -1.15327e-10 5.43965e-11 5e-05 1.46608e-10 
149 1 0.360328 0.016628 0.00773556 0.00608934 0.0001429 -5.28235e-06 7.06911e-12 8.06806e-11 -4.29413e-11 5e-05 1.46608e-10 
150 1 0.354669 0.0181205 0.00698071 0.00564109 -2.43975e-05 -0.000112642 -2.31499e-11 1.1184e-10 -1.87801e-10 5e-05 1.46608e-10 
151 1 0.354594 0.0177725 0.00716409 0.00554319 -4.08415e-09 -0.000315967 -7.18406e-11 2.76211e-10 -1.39772e-10 5e-05 1.46608e-10 
153 1 0.354516 0.0166496 0.00774774 0.00599174 -0.000172212 -0.000254462 1.09831e-10 -1.42792e-10 7.07189e-11 5e-05 1.46608e-10 
154 1 0.354122 0.0158429 0.00824033 0.00615122 0.000611001 0.000909238 -7.71189e-11 -5.33221e-11 -2.38433e-10 5e-05 1.46608e-10 
155 1 0.354486 0.0172777 0.00752596 0.0056504 -0.000163086 -0.000253147 4.38084e-11 1.5208e-10 -8.54447e-11 5e-05 1.46608e-10 
156 1 0.354452 0.0163906 0.00788498 0.00605988 -0.00020177 -0.00024327 2.08557e-10 -6.74884e-11 2.33049e-11 5e-05 1.46608e-10 
157 1 0.0219312 0.0187687 0.00551176 -3.84005e-14 8.17002e-14 2.95869e-13 -4.76017e-22 -3.59307e-23 -5.60415e-23 5e-05 1.46608e-10 
158 1 0.354559 0.0168222 0.00765625 0.00592516 -0.000158677 -0.000256786 -1.22685e-10 -9.48916e-11 6.55358e-11 5e-05 1.46608e-10 
159 1 0.360489 0.0169039 0.00756676 0.00605582 0.000506615 -0.000231298 -2.24345e-10 1.1155e-10 -7.14231e-11 5e-05 1.46608e-10 
160 1 0.354575 0.0176857 0.00720996 0.00545492 -1.88137e-06 -0.000310805 -9.04101e-11 3.17223e-10 -1.79919e-10 5e-05 1.46608e-10 
162 1 0.354807 0.0187854 0.0069857 0.0059279 -0.000565946 0.000340321 3.87611e-11 -8.35426e-10 -1.46487e-10 5e-05 1.46608e-10 
164 1 0.354311 0.016191 0.00799599 0.00611218 -0.000218268 -0.000236555 -2.13898e-10 2.21838e-10 -1.62193e-11 5e-05 1.46608e-10 
165 1 0.354727 0.0179747 0.00705219 0.00562287 -6.50786e-05 -0.000287169 -5.24072e-11 3.56027e-11 -1.46015e-11 5e-05 1.46608e-10 
166 1 0.360494 0.017294 0.00732511 0.00568221 0.000245351 -7.43229e-05 -6.87923e-11 1.46567e-11 -2.72214e-12 5e-05 1.46608e-10 
167 1 0.354803 0.0183479 0.00695261 0.0056049 -4.54232e-05 0.000415318 -3.42375e-10 -6.01509e-10 4.28719e-10 5e-05 1.46608e-10 
168 1 0.354841 0.0185415 0.00694462 0.00597192 -0.000450998 0.000380399 -2.673e-10 5.36917e-11 -3.72728e-11 5e-05 1.46608e-10 
169 1 0.354631 0.0179467 0.00707211 0.00556629 -8.89606e-05 -0.000270635 -3.77607e-11 5.07322e-11 -1.74138e-11 5e-05 1.46608e-10 
170 1 0.354783 0.0182503 0.00696192 0.00541479 1.1672e-05 0.000289354 -3.1209e-10 -9.06019e-10 -2.33025e-10 5e-05 1.46608e-10 
171 1 0.36074 0.0180128 0.00696717 0.00569388 0.000237307 -7.88586e-05 5.74574e-11 4.58764e-12 3.73619e-11 5e-05 1.46608e-10 
172 1 0.354442 0.0171045 0.00751736 0.00588177 -0.000202413 -0.000235767 2.06194e-11 4.51631e-11 -4.51388e-11 5e-05 1.46608e-10 
173 1 0.360852 0.0185307 0.00698832 0.00601653 0.000151668 -8.79679e-05 1.59419e-10 1.56465e-10 -1.58718e-11 5e-05 1.46608e-10 
174 1 0.354427 0.0169173 0.00770374 0.00591218 -0.000179584 -0.000233954 -2.17753e-10 2.12645e-10 -1.04895e-12 5e-05 1.46608e-10 
176 1 0.354724 0.0177919 0.00723734 0.00550677 -7.80286e-05 -0.000278563 7.68062e-11 3.03343e-10 -1.40693e-10 5e-05 1.46608e-10 
177 1 0.354164 0.016004 0.00814032 0.0061466 0.000589684 0.00082913 6.11945e-11 3.33424e-10 1.15922e-09 5e-05 1.46608e-10 
178 1 0.354589 0.0176874 0.00730886 0.00551913 -9.03522e-05 -0.000319529 2.57778e-11 2.7726e-10 -2.48339e-10 5e-05 1.46608e-10 
179 1 0.354888 0.0183214 0.00690882 0.00553206 -0.0001292 0.000357958 -9.55582e-10 -3.20957e-10 9.7723e-11 5e-05 1.46608e-10 
182 1 0.360606 0.0178026 0.00702944 0.00570317 0.000235677 -7.28419e-05 3.48861e-11 4.00848e-11 -3.68064e-11 5e-05 1.46608e-10 
183 1 0.354762 0.0179699 0.00714568 0.00565657 -1.01327e-05 -0.000302132 -7.52877e-11 5.96357e-11 2.6784e-12 5e-05 1.46608e-10 
184 1 0.360903 0.0182479 0.006975 0.00566653 0.000206471 -8.17919e-05 -4.51096e-11 6.96958e-11 -2.81734e-11 5e-05 1.46608e-10 
185 1 0.354895 0.0178632 0.00710006 0.00572494 0.000170585 -0.000416876 -1.31088e-10 2.50114e-10 -1.41955e-10 5e-05 1.46608e-10 
186 1 0.354747 0.0185084 0.00693257 0.00557318 -0.000204094 0.000285329 2.68728e-10 3.63558e-10 8.28886e-10 5e-05 1.46608e-10 
187 1 0.360586 0.0177121 0.00706728 0.00548472 0.000273113 -9.56404e-05 -1.57786e-10 1.21339e-10 -3.79835e-11 5e-05 1.46608e-10 
188 1 0.360529 0.0170713 0.0074636 0.00568269 0.000161316 -2.26655e-05 1.07131e-10 -1.77295e-11 4.61869e-12 5e-05 1.46608e-10 
189 1 0.36055 0.017545 0.00717085 0.00555184 0.000260594 -9.43226e-05 4.85205e-11 -2.61364e-11 2.63011e-11 5e-05 1.46608e-10 
190 1 0.348766 0.0185997 0.00688843 0.00560517 -0.000169061 -2.16642e-05 -8.91007e-13 5.62901e-12 -2.61552e-12 5e-05 1.46608e-10 
191 1 0.360699 0.0176244 0.00722456 0.00559977 0.000263908 -0.000116039 -8.4742e-12 -1.58461e-11 1.0776e-10 5e-05 1.46608e-10 
192 1 0.354484 0.017277 0.00742597 0.00568034 -0.000147642 -0.000252657 -9.80076e-11 1.94857e-10 -9.23822e-11 5e-05 1.46608e-10 
193 1 0.360759 0.0181109 0.00697121 0.00568932 0.000241446 -7.78015e-05 3.90756e-11 -1.54854e-11 8.67479e-14 5e-05 1.46608e-10 
194 1 0.354822 0.0184422 0.00692547 0.00564489 -0.000112728 0.000379273 3.73259e-10 3.07571e-10 -4.82826e-10 5e-05 1.46608e-10 
195 1 0.354689 0.017801 0.00714393 0.00554855 -4.4048e-05 -0.000296259 -1.65626e-11 1.70507e-10 -5.5966e-11 5e-05 1.46608e-10 
196 1 0.354786 0.0178193 0.00712893 0.00557159 -6.08601e-05 -0.000288842 6.39302e-11 2.70595e-10 -2.11828e-10 5e-05 1.46608e-10 
197 1 0.348453 0.0171142 0.00739364 0.00550149 -0.000139683 -3.01175e-05 -2.60658e-11 -2.11466e-12 1.57092e-12 5e-05 1.46608e-10 
198 1 0.354803 0.0175218 0.00728143 0.00537654 -0.000116835 -0.000247419 -3.54345e-10 1.78283e-10 -6.86139e-11 5e-05 1.46608e-10 
199 1 0.354756 0.0180588 0.00700708 0.00552054 -5.21452e-05 -0.000296667 -5.35461e-10 -1.76305e-10 -1.40763e-11 5e-05 1.46608e-10 
200 1 0.354238 0.0159407 0.00816113 0.00617993 0.000574156 0.000983083 3.78807e-10 1.04968e-10 6.53651e-10 5e-05 1.46608e-10 
201 1 0.354709 0.0178876 0.00709811 0.0056317 -6.15065e-05 -0.000289632 3.93298e-11 1.14416e-10 -3.83779e-11 5e-05 1.46608e-10 
202 1 0.35458 0.0169086 0.00761048 0.00590934 -0.000154077 -0.000258256 -1.05038e-10 4.60034e-11 1.0088e-12 5e-05 1.46608e-10 
203 1 0.360588 0.0173224 0.00730881 0.00569537 0.000249561 -7.68934e-05 -6.12883e-11 -3.28718e-11 1.02771e-11 5e-05 1.46608e-10 
204 1 0.354969 0.0182491 0.00690185 0.00538645 -0.000365268 0.000318369 4.69191e-11 -1.16914e-09 -1.46617e-10 5e-05 1.46608e-10 
205 1 0.354399 0.0165381 0.00781198 0.0060262 -0.000203221 -0.00024032 1.49775e-10 3.00189e-11 -1.64089e-11 5e-05 1.46608e-10 
206 1 0.354442 0.0167107 0.00772049 0.00597555 -0.000194587 -0.000242379 1.29445e-10 -5.88854e-11 -1.11439e-12 5e-05 1.46608e-10 
207 1 0.354228 0.016243 0.00797766 0.0061136 -0.000219964 -0.000231521 -2.34858e-10 -2.84653e-11 6.08028e-11 5e-05 1.46608e-10 
208 1 0.354643 0.0171678 0.00747317 0.00569277 -0.000124629 -0.000258334 1.14687e-10 1.55264e-10 -9.61046e-11 5e-05 1.46608e-10 
209 1 0.354421 0.0170182 0.0075631 0.00589059 -0.000207723 -0.000230298 -8.99611e-11 -1.33156e-11 -7.28157e-12 5e-05 1.46608e-10 
210 1 0.360565 0.0168495 0.00760155 0.00636386 0.000815367 -0.00041844 -2.06676e-10 1.59792e-10 -1.00948e-10 5e-05 1.46608e-10 
211 1 0.36035 0.0167139 0.00768923 0.0060718 0.000153659 -1.32036e-05 -6.93187e-11 8.43648e-11 -4.57743e-11 5e-05 1.46608e-10 
212 1 0.354879 0.0182267 0.00693964 0.0052461 -0.000125292 0.000110591 -6.2549e-11 -9.82831e-10 6.04993e-11 5e-05 1.46608e-10 
213 1 0.360531 0.0174626 0.00722439 0.00567216 0.000251373 -7.31288e-05 2.71007e-11 2.40907e-11 6.27967e-11 5e-05 1.46608e-10 
214 1 0.360722 0.0175206 0.00718783 0.00566864 0.000255707 -8.13322e-05 -2.54082e-11 1.11871e-11 3.12574e-11 5e-05 1.46608e-10 
215 1 0.348669 0.0181354 0.00704632 0.00553232 -0.000152516 -2.62456e-05 6.32479e-11 8.13334e-12 -1.31945e-12 5e-05 1.46608e-10 
216 1 0.354207 0.0161552 0.00802046 0.00614238 -0.000227345 -0.00021868 2.09479e-11 -3.46639e-10 2.24491e-11 5e-05 1.46608e-10 
217 1 0.360622 0.0178775 0.00696525 0.00571642 0.000230075 -6.74523e-05 4.46554e-11 3.27406e-11 -3.17444e-11 5e-05 1.46608e-10 
218 1 0.354524 0.0174502 0.00733435 0.00557965 -0.000108422 -0.000289059 -1.07927e-10 1.93026e-10 -1.93958e-10 5e-05 1.46608e-10 
219 1 0.3608 0.0174675 0.00722179 0.00565873 0.000239801 -7.18906e-05 -1.09224e-10 5.15489e-11 -3.63319e-11 5e-05 1.46608e-10 
220 1 0.354652 0.0176286 0.00723834 0.00539789 -3.36278e-05 -0.000288865 -4.89886e-11 2.60147e-10 7.43918e-11 5e-05 1.46608e-10 
222 1 0.360794 0.0178698 0.00701398 0.00569923 0.000233044 -6.93027e-05 -2.08707e-11 -6.19079e-11 1.10991e-11 5e-05 1.46608e-10 
224 1 0.354335 0.0166729 0.00774607 0.00599695 -0.000216564 -0.000231347 7.4981e-11 1.08039e-10 -9.09139e-11 5e-05 1.46608e-10 
225 1 0.360602 0.017417 0.00735646 0.00571781 0.000270312 -8.58978e-05 9.44374e-11 1.81328e-10 5.14049e-11 5e-05 1.46608e-10 
226 1 0.354742 0.0178824 0.00719244 0.00562581 -2.1975e-05 -0.00028584 3.69558e-10 2.69407e-10 -1.25297e-10 5e-05 1.46608e-10 
227 1 0.348688 0.0182283 0.00701475 0.00554902 -0.000154955 -2.55968e-05 -2.36163e-12 1.28501e-12 6.32773e-13 5e-05 1.46608e-10 
228 1 0.34863 0.0179497 0.00710948 0.00550119 -0.000146949 -2.77483e-05 2.84727e-11 2.93348e-11 -8.57052e-12 5e-05 1.46608e-10 
229 1 0.354726 0.0183953 0.00691002 0.00565633 8.34235e-05 0.000437174 -5.24239e-10 -2.19271e-09 9.21211e-12 5e-05 1.46608e-10 
230 1 0.354449 0.0170037 0.00765799 0.0058869 -0.000187494 -0.000232031 -3.49141e-10 3.2713e-10 -4.15619e-11 5e-05 1.46608e-10 
232 1 0.354764 0.0181528 0.00697374 0.00555082 -3.07935e-05 -0.000143807 -1.23713e-10 -6.09292e-10 2.59652e-10 5e-05 1.46608e-10 
233 1 0.354683 0.0180334 0.00712054 0.00560995 -9.4287e-05 -0.0002711 4.77495e-11 -3.58806e-11 -3.93549e-12 5e-05 1.46608e-10 
234 1 0.360713 0.0183418 0.00698215 0.00564786 0.000241167 -8.11002e-05 1.54964e-11 -5.81361e-11 -2.1511e-11 5e-05 1.46608e-10 
235 1 0.354314 0.0165866 0.00779181 0.00602471 -0.000214053 -0.000234003 1.08585e-10 1.7319e-10 -1.02979e-10 5e-05 1.46608e-10 
236 1 0.354652 0.0173967 0.0074397 0.00562409 -9.86919e-05 -0.000251472 1.72693e-10 2.63866e-10 -1.34426e-10 5e-05 1.46608e-10 
237 1 0.354399 0.0169319 0.00760884 0.00590665 -0.000211299 -0.000228199 -6.01798e-11 -6.27759e-11 3.59653e-11 5e-05 1.46608e-10 
239 1 0.348351 0.0166664 0.00758888 0.00569856 -0.000323131 -0.000426909 -2.89138e-11 2.34366e-11 -1.43119e-11 5e-05 1.46608e-10 
240 1 0.348412 0.0169293 0.00745805 0.00572324 -0.000330056 -0.000425659 1.14754e-11 -3.29869e-11 -1.86223e-12 5e-05 1.46608e-10 
241 1 0.34833 0.0165788 0.00763249 0.00567937 -0.000320007 -0.000426418 7.60708e-12 2.79184e-11 -1.06782e-11 5e-05 1.46608e-10 
242 1 0.354807 0.0174082 0.00733978 0.00557103 1.77248e-06 -0.000318953 -1.4076e-10 3.67915e-10 -1.33418e-10 5e-05 1.46608e-10 
243 1 0.35477 0.017726 0.00717797 0.00548419 -0.000106126 -0.000260928 -4.53811e-11 2.69709e-10 -1.37715e-10 5e-05 1.46608e-10 
244 1 0.348371 0.0167541 0.00754527 0.00571046 -0.000327265 -0.00042592 5.25909e-11 -1.04544e-11 7.36228e-12 5e-05 1.46608e-10 
246 1 0.348552 0.0175783 0.0072358 0.00542055 -0.000126996 -3.31895e-05 -4.82462e-11 -1.80394e-11 7.32509e-12 5e-05 1.46608e-10 
247 1 0.354249 0.0163277 0.00792903 0.00609381 -0.000218983 -0.000237438 -3.79375e-12 1.1618e-11 6.76143e-11 5e-05 1.46608e-10 
248 1 0.354629 0.0175981 0.00733064 0.0053484 9.50027e-06 -0.000282518 1.10683e-10 2.11049e-10 2.32147e-10 5e-05 1.46608e-10 
249 1 0.348493 0.0172998 0.00733053 0.00553533 -0.000146272 -2.84971e-05 -4.89095e-12 2.91439e-11 -7.95462e-12 5e-05 1.46608e-10 
250 1 0.354355 0.0163647 0.0079039 0.00608419 -0.00020208 -0.000245538 2.01475e-10 2.83177e-11 -5.8407e-11 5e-05 1.46608e-10 
251 1 0.360569 0.0172385 0.00736054 0.00572502 0.000289943 -0.000101602 -1.11378e-10 3.60797e-12 -5.54305e-12 5e-05 1.46608e-10 
252 1 0.348571 0.0176711 0.00720422 0.00546047 -0.0001355 -3.09355e-05 3.81537e-11 1.18041e-11 -5.16655e-12 5e-05 1.46608e-10 
253 1 0.348747 0.0185068 0.00692001 0.00559045 -0.00016598 -2.26408e-05 1.52549e-11 -1.21238e-11 6.65294e-12 5e-05 1.46608e-10 
254 1 0.348513 0.0173925 0.00729897 0.00554327 -0.00015109 -2.68941e-05 -1.07296e-11 2.1558e-12 -3.37301e-13 5e-05 1.46608e-10 
255 1 0.354734 0.0176856 0.00726251 0.00542127 -8.5313e-05 -0.000270382 -8.34701e-11 2.0623e-10 -5.76664e-11 5e-05 1.46608e-10 
256 1 0.354985 0.0183461 0.00692033 0.00564935 -0.000409617 0.000353877 2.00998e-10 -1.34369e-09 -5.02292e-10 5e-05 1.46608e-10 
257 1 0.354537 0.0167359 0.007702 0.00595882 -0.00016473 -0.000256471 6.02603e-11 -1.20932e-10 6.42674e-11 5e-05 1.46608e-10 
258 1 0.354607 0.0174986 0.00740024 0.00552133 -4.15628e-05 -0.000294495 -1.02457e-11 4.37402e-11 -6.66344e-12 5e-05 1.46608e-10 
259 1 0.348591 0.017764 0.00717264 0.00547151 -0.00013893 -2.99394e-05 2.60855e-12 1.35161e-12 -1.6485e-12 5e-05 1.46608e-10 
260 1 0.354612 0.0178594 0.00711822 0.00556496 9.23519e-06 -0.000321651 1.66352e-11 2.0066e-10 -1.01454e-10 5e-05 1.46608e-10 
261 1 0.354585 0.01709 0.00761134 0.00580624 -0.000143111 -0.000210013 -2.40736e-11 -2.466e-11 -1.81048e-10 5e-05 1.46608e-10 