ITEM: TIMESTEP
51800000
ITEM: NUMBER OF ATOMS
275
ITEM: BOX BOUNDS ff ff ff
-0.02 0.43
-0.02 0.06
-0.02 0.07
ITEM: ATOMS id type x y z vx vy vz fx fy fz radius mass 
1 1 0.315253 0.018013 0.00725884 0.00553881 -0.00123611 0.00093851 9.82164e-11 3.20795e-10 9.00136e-11 5e-05 1.46608e-10 
2 1 0.314908 0.01687 0.00743176 0.00538508 -0.000655899 0.00116011 -4.62859e-11 3.29851e-12 7.53408e-11 5e-05 1.46608e-10 
4 1 0.315063 0.0167963 0.00753958 0.0054327 -0.000625788 0.00111055 -1.16546e-10 -6.38723e-12 -1.56657e-11 5e-05 1.46608e-10 
5 1 0.314463 0.0155386 0.00909051 0.00546338 -0.000254389 0.00137963 -1.38032e-11 -1.25007e-10 1.81386e-10 5e-05 1.46608e-10 
6 1 0.320903 0.0168968 0.00758102 0.00625608 0.00142237 -0.0011053 1.73198e-12 3.78578e-13 -3.53393e-13 5e-05 1.46608e-10 
7 1 0.315205 0.0173658 0.00721264 0.00527487 -0.00165014 -0.0104264 4.76982e-11 -1.89796e-10 -1.40064e-09 5e-05 1.46608e-10 
8 1 0.314914 0.0165832 0.00778815 0.00549768 -0.000652945 0.00114985 4.23408e-10 -2.03588e-10 2.1516e-10 5e-05 1.46608e-10 
9 1 0.321116 0.0177749 0.00715282 0.00650746 0.00136575 -0.00109619 4.03439e-13 6.72562e-13 -5.21955e-13 5e-05 1.46608e-10 
10 1 0.314633 0.0158883 0.0086434 0.00571041 -0.000315563 0.0015126 2.68518e-10 2.051e-10 -1.31127e-10 5e-05 1.46608e-10 
11 1 0.315128 0.017742 0.00730647 0.00570049 -0.00132183 0.000959237 -2.15328e-10 -8.36541e-11 3.60242e-11 5e-05 1.46608e-10 
12 1 0.309185 0.0168932 0.00737005 0.00576886 -1.44001e-05 7.83747e-05 2.00987e-11 7.07006e-11 -1.19357e-10 5e-05 1.46608e-10 
13 1 0.314442 0.0154791 0.00916795 0.00548192 -0.000264103 0.00139514 6.15206e-11 -9.03948e-11 1.34924e-10 5e-05 1.46608e-10 
14 1 0.309165 0.0175691 0.00712809 0.00628079 0.000172161 0.000105786 -9.95555e-11 4.50262e-11 -1.78498e-11 5e-05 1.46608e-10 
16 1 0.309364 0.0180677 0.00697444 0.00574686 0.000223033 6.71044e-05 -9.46606e-11 1.46348e-11 5.86548e-11 5e-05 1.46608e-10 
17 1 0.314572 0.0158359 0.00870378 0.00552422 -0.000238889 0.00137345 -1.73696e-10 2.40698e-10 -3.07627e-10 5e-05 1.46608e-10 
19 1 0.31442 0.0154196 0.00924539 0.0055042 -0.000267547 0.00140494 -2.53747e-11 -2.41705e-11 3.74136e-11 5e-05 1.46608e-10 
21 1 0.315244 0.0175611 0.00724466 0.00576136 -0.00127199 0.000979549 -6.52638e-11 -1.74249e-10 9.78908e-11 5e-05 1.46608e-10 
22 1 0.315026 0.0166687 0.00768876 0.00554938 -0.000640327 0.00114067 3.59872e-10 -8.31471e-11 5.94347e-11 5e-05 1.46608e-10 
23 1 0.3094 0.0178173 0.00705522 0.00583329 0.000785197 -0.000112581 -8.98789e-11 -5.02007e-11 -4.34814e-11 5e-05 1.46608e-10 
24 1 0.321031 0.0174237 0.0073241 0.00640691 0.0013884 -0.00109985 8.38818e-13 6.6005e-13 -1.29568e-13 5e-05 1.46608e-10 
25 1 0.314641 0.0160092 0.00848985 0.00600946 -0.000533135 0.00141386 1.74671e-10 3.58266e-10 -1.53154e-10 5e-05 1.46608e-10 
26 1 0.321073 0.0175993 0.00723846 0.00645717 0.00137709 -0.00109796 1.01162e-12 6.66167e-13 8.44875e-15 5e-05 1.46608e-10 
27 1 0.308995 0.016845 0.00741046 0.00571524 0.000156922 -0.000280003 6.74112e-11 3.76537e-11 -4.7585e-12 5e-05 1.46608e-10 
28 1 0.314985 0.0168317 0.00748392 0.00539142 -0.000645725 0.00114239 -3.54892e-10 -2.03303e-11 8.11397e-11 5e-05 1.46608e-10 
29 1 0.314399 0.0153601 0.00932283 0.00551753 -0.000270466 0.00141128 5.93588e-14 2.66566e-11 -4.19163e-11 5e-05 1.46608e-10 
30 1 0.314731 0.0162536 0.00818623 0.00523141 -0.000659922 0.00110235 9.65808e-11 1.47168e-11 1.40019e-11 5e-05 1.46608e-10 
31 1 0.31528 0.017299 0.00721211 0.0058843 -0.00129188 0.00098964 -1.24851e-10 3.67429e-10 -1.0431e-10 5e-05 1.46608e-10 
32 1 0.314665 0.0160681 0.00841259 0.00603076 -0.000732373 0.0012772 3.49198e-11 1.00365e-10 -2.32843e-10 5e-05 1.46608e-10 
33 1 0.320924 0.0169846 0.0075382 0.00628122 0.00141671 -0.00110439 1.68991e-12 3.11387e-13 -5.62116e-13 5e-05 1.46608e-10 
34 1 0.314549 0.0157766 0.00878087 0.00541038 -0.000226988 0.00133767 -2.71968e-11 9.71326e-11 -1.6403e-10 5e-05 1.46608e-10 
35 1 0.315165 0.0171723 0.00724185 0.00589548 -0.00143868 0.000302676 2.96257e-10 3.14097e-11 -9.73496e-11 5e-05 1.46608e-10 
36 1 0.32118 0.0180384 0.00702436 0.00658287 0.00134878 -0.00109342 3.46389e-13 6.95903e-13 -3.6244e-13 5e-05 1.46608e-10 
37 1 0.315047 0.0167306 0.00761328 0.00551908 -0.000637357 0.001133 2.21996e-10 -4.43099e-11 5.82119e-11 5e-05 1.46608e-10 
38 1 0.315125 0.0169975 0.00732743 0.00542801 -0.00115192 0.000566605 3.2483e-10 1.05399e-10 6.95595e-11 5e-05 1.46608e-10 
39 1 0.321052 0.0175115 0.00728128 0.00643205 0.00138274 -0.00109892 9.9669e-13 3.85883e-13 -8.6812e-13 5e-05 1.46608e-10 
41 1 0.314506 0.0156576 0.00893569 0.00544995 -0.000237506 0.00135236 -1.94926e-10 -2.43558e-11 -5.25488e-13 5e-05 1.46608e-10 
42 1 0.315159 0.0168146 0.00751576 0.00549761 -0.000710841 0.00121942 1.2882e-10 -2.87238e-10 3.33103e-10 5e-05 1.46608e-10 
44 1 0.315216 0.0170119 0.00728838 0.00531561 -0.00169636 0.000373058 -3.93485e-11 -1.48789e-10 -2.59827e-10 5e-05 1.46608e-10 
45 1 0.320945 0.0170724 0.00749538 0.00630634 0.00141105 -0.00110347 1.51037e-12 5.50047e-13 1.26458e-13 5e-05 1.46608e-10 
47 1 0.31453 0.015717 0.00885885 0.00542491 -0.000229767 0.0013403 -8.71675e-11 7.21483e-11 -5.57458e-11 5e-05 1.46608e-10 
48 1 0.315115 0.0177842 0.00721668 0.00571752 -0.00130771 0.000965903 -8.43319e-11 -1.7338e-10 -4.13056e-11 5e-05 1.46608e-10 
49 1 0.321137 0.0178627 0.00711 0.0065326 0.00136009 -0.00109525 5.91357e-13 5.48287e-13 -7.95402e-13 5e-05 1.46608e-10 
50 1 0.314687 0.0161302 0.0083373 0.0058777 -0.00075767 0.00121436 4.56888e-11 -9.32724e-11 -2.6954e-10 5e-05 1.46608e-10 
51 1 0.315302 0.017396 0.00722318 0.00584792 -0.00127866 0.000993665 -2.43307e-10 2.08758e-10 7.40053e-11 5e-05 1.46608e-10 
52 1 0.309248 0.0171626 0.00725937 0.00616016 5.5418e-05 0.000140356 -8.88452e-12 2.13413e-11 -8.23975e-12 5e-05 1.46608e-10 
53 1 0.320988 0.017248 0.00740974 0.00635664 0.00139972 -0.00110165 1.48575e-12 1.31196e-13 -1.20547e-12 5e-05 1.46608e-10 
54 1 0.315455 0.0177175 0.007275 0.00568631 -0.00117349 0.000970919 -1.10943e-10 1.6613e-10 -2.71848e-11 5e-05 1.46608e-10 
55 1 0.309174 0.017226 0.00723734 0.00620715 0.000105337 0.000125809 3.80504e-11 4.26138e-11 -2.11828e-11 5e-05 1.46608e-10 
56 1 0.315434 0.0176188 0.00726395 0.00573642 -0.00120911 0.000983925 -2.04007e-11 3.44519e-10 3.45363e-11 5e-05 1.46608e-10 
57 1 0.320967 0.0171602 0.00745256 0.00633148 0.00140539 -0.00110256 1.35145e-12 6.44564e-13 1.43247e-13 5e-05 1.46608e-10 
59 1 0.378022 0.019866 0.005332 -5.01954e-15 -7.41215e-15 7.69802e-14 2.90806e-24 6.72084e-25 2.06795e-25 5e-05 1.46608e-10 
60 1 0.31524 0.0171079 0.0072593 0.00584851 -0.001494 0.000315002 5.31327e-10 -2.91976e-10 1.24425e-10 5e-05 1.46608e-10 
61 1 0.314485 0.0155981 0.00901307 0.00545827 -0.000244776 0.00136586 -4.3469e-11 -1.08927e-10 1.3341e-10 5e-05 1.46608e-10 
62 1 0.315144 0.0170804 0.00727508 0.00562507 -0.00139575 0.000252444 2.57997e-10 2.68047e-11 -9.07535e-11 5e-05 1.46608e-10 
63 1 0.315204 0.0180452 0.00733997 0.00554484 -0.00121489 0.00093938 -4.31885e-10 1.08395e-10 -1.62484e-11 5e-05 1.46608e-10 
64 1 0.321009 0.0173358 0.00736692 0.00638176 0.00139407 -0.00110072 1.2422e-12 6.36517e-13 4.09284e-14 5e-05 1.46608e-10 
65 1 0.309217 0.0174125 0.0071792 0.00622204 8.17731e-05 0.000133019 -2.02346e-10 5.41177e-11 -2.42681e-11 5e-05 1.46608e-10 
66 1 0.309418 0.0180824 0.00705674 0.00574859 0.000224675 7.46899e-05 1.31217e-12 8.08238e-11 5.40077e-12 5e-05 1.46608e-10 
67 1 0.315268 0.0176576 0.00723599 0.00572972 -0.00125188 0.000976008 -1.85097e-10 -2.01596e-10 1.27062e-12 5e-05 1.46608e-10 
68 1 0.315041 0.0170447 0.00728256 0.00433598 -0.00101858 0.000204504 -2.71908e-10 -4.38118e-10 1.27798e-10 5e-05 1.46608e-10 
69 1 0.315339 0.0175895 0.00725525 0.00574451 -0.0012358 0.000983945 -8.49692e-11 -3.33288e-11 5.03284e-12 5e-05 1.46608e-10 
70 1 0.321094 0.0176871 0.00719564 0.00648231 0.00137142 -0.00109709 5.17879e-13 8.53643e-13 2.15088e-13 5e-05 1.46608e-10 
71 1 0.309533 0.0180371 0.00698836 0.00575727 0.000137472 9.75574e-05 5.36601e-11 -2.92602e-11 1.73161e-11 5e-05 1.46608e-10 
72 1 0.315329 0.0179492 0.00726839 0.00554842 -0.00121149 0.000940109 6.12172e-11 8.87902e-11 7.29818e-11 5e-05 1.46608e-10 
73 1 0.314626 0.0159629 0.00857715 0.00597892 -0.000318638 0.00150526 2.94004e-10 2.23652e-10 -2.3011e-10 5e-05 1.46608e-10 
74 1 0.314709 0.0161917 0.00826177 0.00550651 -0.000675464 0.00117017 4.24337e-12 1.65649e-11 -7.56617e-11 5e-05 1.46608e-10 
76 1 0.30911 0.0169505 0.00733588 0.00588549 0.000124281 -4.73644e-06 2.10319e-11 2.09779e-10 9.93287e-11 5e-05 1.46608e-10 
77 1 0.314928 0.016954 0.00738124 0.00538253 -0.000765198 0.00093589 6.53055e-10 4.06432e-10 1.06666e-09 5e-05 1.46608e-10 
78 1 0.308568 0.0155417 0.00848421 0.0057061 0.000843304 0.000337674 -4.25481e-12 -3.79725e-11 -1.67076e-10 5e-05 1.46608e-10 
79 1 0.309441 0.0184456 0.00685559 0.00594545 0.000235767 7.35002e-05 3.38337e-11 -6.98251e-11 -2.51736e-11 5e-05 1.46608e-10 
80 1 0.315005 0.0168956 0.00740582 0.00566944 -0.000404855 0.000854473 8.14516e-10 -2.55364e-10 2.86399e-10 5e-05 1.46608e-10 
82 1 0.309286 0.0180091 0.00707698 0.00568328 0.000274304 6.00995e-05 -3.11619e-10 -3.80049e-10 2.35423e-11 5e-05 1.46608e-10 
83 1 0.309205 0.0169759 0.00731761 0.00592475 -4.08013e-06 0.000149303 -1.55688e-10 2.15314e-10 -2.8006e-11 5e-05 1.46608e-10 
84 1 0.321158 0.0179506 0.00706718 0.00655773 0.00135443 -0.00109434 3.97159e-13 6.64576e-13 -3.61022e-13 5e-05 1.46608e-10 
85 1 0.309512 0.0182827 0.00690937 0.00581815 0.000176142 8.63147e-05 4.25251e-11 -1.92437e-11 -2.24276e-11 5e-05 1.46608e-10 
86 1 0.315197 0.0169389 0.00736381 0.00547061 -0.000699976 0.0011955 7.72233e-13 -9.35907e-11 1.611e-10 5e-05 1.46608e-10 
87 1 0.314969 0.0167693 0.0075605 0.0054225 -0.000650906 0.00114867 -1.5687e-10 -7.71717e-11 1.80132e-10 5e-05 1.46608e-10 
88 1 0.315107 0.0173292 0.00720585 0.00589928 -0.00130737 0.000782732 3.08517e-11 2.05209e-10 1.29423e-10 5e-05 1.46608e-10 
89 1 0.315226 0.017726 0.00731883 0.00570293 -0.00125715 0.000975061 -2.00889e-10 -9.71441e-11 3.02867e-11 5e-05 1.46608e-10 
90 1 0.315289 0.0177549 0.00724681 0.00568545 -0.00123442 0.00096657 -1.16972e-10 -1.09683e-10 2.51041e-11 5e-05 1.46608e-10 
91 1 0.309165 0.0168147 0.00742866 0.00578539 -8.86762e-05 -1.60286e-05 3.02943e-10 -1.31133e-12 -9.30086e-11 5e-05 1.46608e-10 
92 1 0.315032 0.0173949 0.00720143 0.00589848 -0.00130627 0.00088318 9.63356e-11 9.21784e-11 -1.37053e-10 5e-05 1.46608e-10 
93 1 0.314805 0.0164378 0.00796305 0.00510998 -0.000657781 0.00111762 -1.94877e-10 2.98816e-11 4.68849e-11 5e-05 1.46608e-10 
94 1 0.315155 0.0178406 0.00731653 0.00570312 -0.00123785 0.000972324 2.83812e-10 -2.13377e-10 8.48473e-11 5e-05 1.46608e-10 
95 1 0.315088 0.0174393 0.00728447 0.00584323 -0.0012583 0.00102283 4.94107e-10 -7.15996e-10 6.31929e-10 5e-05 1.46608e-10 
96 1 0.315012 0.0172975 0.00721186 0.00591546 -0.00134969 0.00055177 1.5557e-10 1.3255e-10 -2.37769e-10 5e-05 1.46608e-10 
97 1 0.308759 0.0159082 0.0081233 0.00556165 7.71327e-05 -0.000220268 4.08433e-10 -2.5401e-10 2.10228e-10 5e-05 1.46608e-10 
98 1 0.314768 0.016378 0.00803409 0.00495883 -0.000619819 0.00106718 -8.06512e-11 -3.56922e-12 2.32361e-11 5e-05 1.46608e-10 
99 1 0.309155 0.0179106 0.0070193 0.00592931 0.000307807 5.36314e-05 -2.28076e-10 1.61166e-10 -1.28495e-10 5e-05 1.46608e-10 
100 1 0.315222 0.0174622 0.00723304 0.00639902 -0.00307648 -0.00469893 2.09495e-10 -4.93313e-10 -3.40023e-10 5e-05 1.46608e-10 
101 1 0.309174 0.0180043 0.00699003 0.00569633 0.000341547 3.7146e-05 -9.99677e-11 1.61758e-10 3.10466e-11 5e-05 1.46608e-10 
102 1 0.0643568 0.0187248 0.00531097 4.24808e-15 1.05097e-14 8.29595e-14 -1.26099e-21 1.18597e-21 -9.5953e-23 5e-05 1.46608e-10 
103 1 0.24257 0.0191927 0.00520306 -3.7669e-22 4.86658e-23 1.23839e-22 3.23117e-27 0 0 5e-05 1.46608e-10 
104 1 0.309458 0.0180994 0.00696662 0.00578459 0.000178329 8.43027e-05 -1.09626e-11 -6.12275e-11 -4.61513e-13 5e-05 1.46608e-10 
105 1 0.30874 0.0158302 0.00818269 0.00556697 8.36693e-05 -0.000224544 2.20284e-10 -3.2459e-10 3.30406e-10 5e-05 1.46608e-10 
106 1 0.30919 0.0179772 0.00708489 0.00585596 0.000384983 2.69935e-05 -3.44595e-10 -5.06781e-11 -3.37238e-11 5e-05 1.46608e-10 
107 1 0.308586 0.0155876 0.00839728 0.00576736 0.000332751 8.22803e-05 -2.37602e-11 1.67763e-11 -3.31627e-11 5e-05 1.46608e-10 
108 1 0.315362 0.0176874 0.00725549 0.00570767 -0.00119213 0.000973451 -1.78941e-10 4.81609e-11 -3.94923e-11 5e-05 1.46608e-10 
109 1 0.315412 0.0175208 0.00725266 0.00577273 -0.00120072 0.000983212 1.7062e-10 4.05014e-10 3.57102e-11 5e-05 1.46608e-10 
110 1 0.314892 0.0168271 0.00752056 0.0053766 -0.000656475 0.00116286 1.06845e-10 -1.57467e-10 -6.21247e-11 5e-05 1.46608e-10 
111 1 0.314854 0.0166867 0.00765593 0.00557251 -0.000687946 0.00118433 7.27169e-12 -2.95648e-11 9.43072e-11 5e-05 1.46608e-10 
112 1 0.308645 0.0158064 0.00820441 0.00572381 1.77143e-05 -0.000240607 2.13342e-10 3.32959e-12 3.39882e-10 5e-05 1.46608e-10 
113 1 0.309068 0.0175379 0.00713553 0.00631975 0.000232386 8.7592e-05 -2.62149e-11 3.58127e-11 -1.623e-11 5e-05 1.46608e-10 
114 1 0.309111 0.0177242 0.00707742 0.00632623 0.000241657 8.51584e-05 4.44411e-13 5.19338e-11 -2.46496e-11 5e-05 1.46608e-10 
115 1 0.315177 0.0168768 0.00743973 0.00550333 -0.000702499 0.00120785 6.50826e-11 -1.80219e-10 2.55388e-10 5e-05 1.46608e-10 
116 1 0.31519 0.0177184 0.0072258 0.00572744 -0.00127941 0.000969959 -1.54798e-10 -1.15896e-10 -4.74025e-11 5e-05 1.46608e-10 
117 1 0.315185 0.0172681 0.00722113 0.00588779 -0.0013516 0.000731873 1.39379e-10 1.47045e-10 2.07265e-10 5e-05 1.46608e-10 
118 1 0.309292 0.017349 0.00720126 0.00620896 4.82092e-05 0.000143261 -8.62706e-11 2.02269e-10 -6.50721e-11 5e-05 1.46608e-10 
119 1 0.315382 0.0177851 0.00726632 0.00566999 -0.00119034 0.000962747 -1.13629e-10 6.71009e-11 -1.11783e-11 5e-05 1.46608e-10 
120 1 0.314899 0.0165207 0.00786487 0.00521571 -0.000633076 0.00110498 -1.41225e-10 -4.6744e-12 2.64143e-11 5e-05 1.46608e-10 
121 1 0.315196 0.0181735 0.00725994 0.00555384 -0.0011834 0.00094462 -4.41602e-10 -8.56953e-10 -1.81581e-10 5e-05 1.46608e-10 
122 1 0.31499 0.0172032 0.00723663 0.00593573 -0.00142054 0.000294787 4.85404e-11 2.05394e-10 -1.99575e-10 5e-05 1.46608e-10 
123 1 0.309553 0.0181308 0.00695891 0.00579824 0.000155329 9.25383e-05 7.07832e-11 -2.21122e-12 1.26457e-11 5e-05 1.46608e-10 
124 1 0.314901 0.016458 0.00794278 0.00509032 -0.000638153 0.00110237 -3.3807e-10 1.32517e-10 -1.98739e-10 5e-05 1.46608e-10 
125 1 0.315088 0.0172332 0.00722574 0.00593095 -0.00138636 0.000320351 1.05632e-10 -1.44134e-11 -3.15639e-10 5e-05 1.46608e-10 
127 1 0.308779 0.0159863 0.0080639 0.0055417 6.66732e-05 -0.000210284 1.61302e-10 -3.06021e-10 2.33873e-10 5e-05 1.46608e-10 
128 1 0.314749 0.016317 0.00811097 0.00501827 -0.000645548 0.00106166 1.31934e-11 4.22788e-11 5.43648e-11 5e-05 1.46608e-10 
129 1 0.315113 0.0176439 0.00729429 0.00574705 -0.00131327 0.000977245 -1.88293e-10 1.25862e-10 -9.17534e-11 5e-05 1.46608e-10 
130 1 0.309209 0.0177556 0.00706994 0.0063025 0.000220214 9.12358e-05 2.0419e-10 2.08638e-10 -7.67289e-11 5e-05 1.46608e-10 
131 1 0.30923 0.0178489 0.00704086 0.00587206 0.000283378 6.8456e-05 -1.27644e-10 4.46062e-10 -1.89665e-10 5e-05 1.46608e-10 
132 1 0.315079 0.0168553 0.00746038 0.00536389 -0.000625906 0.00110647 -1.39727e-10 7.24723e-11 1.19539e-10 5e-05 1.46608e-10 
133 1 0.31521 0.0178158 0.00723662 0.00568162 -0.00125793 0.000964281 5.97457e-11 -1.18262e-10 2.92034e-11 5e-05 1.46608e-10 
134 1 0.315169 0.0176211 0.00721498 0.00576553 -0.00128755 0.000975905 -1.14594e-11 -2.01502e-10 9.77789e-11 5e-05 1.46608e-10 
135 1 0.315317 0.0174943 0.00723321 0.0057862 -0.00125654 0.000987765 5.1786e-11 -5.15234e-11 1.28945e-10 5e-05 1.46608e-10 
136 1 0.309152 0.0171327 0.00726644 0.0061503 0.000120393 0.000125746 -1.07922e-10 1.02904e-10 1.93204e-11 5e-05 1.46608e-10 
137 1 0.315065 0.0175514 0.00728746 0.00580627 -0.001289 0.00105045 1.20958e-10 -5.73038e-10 3.23671e-10 5e-05 1.46608e-10 
138 1 0.315074 0.0175895 0.00719541 0.00581499 -0.00131853 0.00102918 1.26097e-10 3.77211e-11 3.37145e-10 5e-05 1.46608e-10 
140 1 0.314947 0.0170231 0.00731167 0.00587576 -0.00131028 0.000509739 4.04112e-10 4.26575e-10 8.0765e-10 5e-05 1.46608e-10 
141 1 0.308991 0.0164786 0.00768668 0.0056771 4.68514e-05 -0.000198206 1.23975e-10 -8.69375e-11 6.35843e-11 5e-05 1.46608e-10 
142 1 0.309378 0.0177218 0.00708503 0.00575477 0.00016975 9.1755e-05 -5.21997e-10 1.64527e-10 -8.44295e-11 5e-05 1.46608e-10 
143 1 0.308605 0.0156481 0.00831993 0.00573915 0.00024913 1.76326e-05 5.61109e-11 -2.05646e-10 -4.57509e-11 5e-05 1.46608e-10 
144 1 0.309335 0.0175354 0.00714314 0.00618608 5.1936e-05 0.000141532 1.87106e-10 1.46022e-10 -4.17376e-11 5e-05 1.46608e-10 
146 1 0.308684 0.0159619 0.008085 0.00556024 7.0264e-05 -0.000212704 1.03403e-10 -2.60679e-10 1.12439e-10 5e-05 1.46608e-10 
147 1 0.309187 0.0176624 0.00709901 0.00629197 0.000190399 0.000100462 -1.62642e-10 -1.09127e-10 2.4379e-11 5e-05 1.46608e-10 
148 1 0.309011 0.0165567 0.00762728 0.00567376 4.96297e-05 -0.000201483 -2.07079e-10 -3.37462e-11 1.91422e-11 5e-05 1.46608e-10 
149 1 0.314818 0.0165623 0.00780824 0.00554736 -0.000666977 0.00116673 -6.81973e-11 -2.06757e-10 1.07618e-10 5e-05 1.46608e-10 
150 1 0.309292 0.0185761 0.00688293 0.00592267 0.000278726 -0.00016603 -6.93201e-12 -3.38246e-11 6.29985e-12 5e-05 1.46608e-10 
151 1 0.309307 0.0182235 0.00692325 0.00585057 0.000224108 7.39691e-05 -1.91878e-10 -8.08447e-12 4.43787e-12 5e-05 1.46608e-10 
153 1 0.30903 0.0166347 0.0075679 0.00567662 4.95601e-05 -0.000201441 -2.33046e-10 -1.15498e-11 4.78726e-11 5e-05 1.46608e-10 
154 1 0.308665 0.0158839 0.00814439 0.00557517 7.52222e-05 -0.000211158 1.48535e-10 -5.88857e-11 1.41807e-10 5e-05 1.46608e-10 
155 1 0.308704 0.0160406 0.00802645 0.00555951 7.22653e-05 -0.00021639 3.70964e-10 -2.18279e-10 1.73283e-10 5e-05 1.46608e-10 
156 1 0.308972 0.0164006 0.00774605 0.00567116 4.34849e-05 -0.000196138 3.3621e-10 -7.17923e-11 4.1858e-11 5e-05 1.46608e-10 
157 1 0.0219312 0.0187687 0.00551176 -3.82751e-14 8.16843e-14 2.9589e-13 9.71317e-22 2.33162e-22 4.88037e-23 5e-05 1.46608e-10 
158 1 0.30907 0.0167907 0.00744918 0.00575793 2.67154e-05 -0.000201093 1.18875e-10 -1.17467e-10 -2.7154e-10 5e-05 1.46608e-10 
159 1 0.315101 0.016928 0.00739549 0.00520767 -0.000776233 0.000884035 3.69204e-10 2.81504e-10 2.81748e-10 5e-05 1.46608e-10 
160 1 0.309193 0.0180979 0.00696062 0.00575055 0.000325886 4.51108e-05 8.0018e-11 1.024e-10 1.23464e-10 5e-05 1.46608e-10 
162 1 0.309324 0.0181966 0.00701804 0.00581213 0.000216418 7.60894e-05 6.65436e-11 9.93335e-11 -1.22071e-12 5e-05 1.46608e-10 
164 1 0.308762 0.0162741 0.00784744 0.00564094 5.26558e-05 -0.000202315 1.59772e-11 5.31331e-11 -4.43036e-11 5e-05 1.46608e-10 
165 1 0.309402 0.0182551 0.00691548 0.00587445 0.000184122 8.3484e-05 2.16937e-10 -6.43577e-11 -1.40476e-11 5e-05 1.46608e-10 
166 1 0.315095 0.0176868 0.00720587 0.00576711 -0.00131586 0.000978172 6.41872e-11 -1.4088e-10 7.35613e-11 5e-05 1.46608e-10 
167 1 0.309251 0.0183788 0.00687227 0.00591789 0.000245051 6.31429e-05 2.1885e-10 4.18876e-10 6.4785e-12 5e-05 1.46608e-10 
168 1 0.309368 0.0185123 0.00686856 0.0059583 0.000276983 -1.1619e-05 1.04787e-10 4.7786e-11 3.72596e-12 5e-05 1.46608e-10 
169 1 0.309271 0.0184762 0.00688073 0.00590746 0.000231721 8.79675e-05 9.21197e-11 2.84194e-10 5.71534e-10 5e-05 1.46608e-10 
170 1 0.309346 0.0184122 0.00686391 0.00590213 0.000232895 7.08303e-05 -1.70023e-11 1.70499e-10 6.85928e-11 5e-05 1.46608e-10 
171 1 0.315273 0.0181104 0.00726965 0.0054583 -0.00121398 0.000926292 1.05456e-11 1.4728e-10 1.45248e-11 5e-05 1.46608e-10 
172 1 0.309046 0.0174447 0.00716458 0.00631321 0.000223852 8.99284e-05 -4.59184e-11 3.24548e-11 -9.22682e-12 5e-05 1.46608e-10 
173 1 0.315307 0.0178517 0.0072635 0.0056428 -0.00122255 0.000955201 -1.691e-10 2.74281e-12 1.66874e-10 5e-05 1.46608e-10 
174 1 0.308802 0.0164301 0.00772869 0.0056631 3.77223e-05 -0.0001915 1.6459e-10 1.13633e-10 -8.55133e-11 5e-05 1.46608e-10 
176 1 0.3091 0.0172893 0.00721534 0.0062669 0.000162204 0.000108321 3.68869e-11 6.84125e-11 -4.78295e-11 5e-05 1.46608e-10 
177 1 0.308798 0.0160643 0.00800451 0.0055776 5.09937e-05 -0.000199681 5.10178e-10 -2.69471e-10 1.90997e-10 5e-05 1.46608e-10 
178 1 0.309171 0.017883 0.00711398 0.00596234 0.000416352 8.75134e-05 -3.24574e-10 1.06342e-10 -1.36569e-10 5e-05 1.46608e-10 
179 1 0.309249 0.0182586 0.00699655 0.00584998 0.000277215 7.22847e-05 9.81987e-11 1.5213e-10 -5.63979e-11 5e-05 1.46608e-10 
182 1 0.315216 0.0182708 0.00727076 0.00548938 -0.00122415 0.000931757 -4.9148e-10 -1.17125e-09 -1.72349e-10 5e-05 1.46608e-10 
183 1 0.30921 0.0180708 0.00705545 0.00573636 0.000281694 2.71454e-05 1.21411e-11 1.75847e-10 1.38756e-10 5e-05 1.46608e-10 
184 1 0.315179 0.0179427 0.00732838 0.00563136 -0.0011994 0.000955659 2.36624e-10 -4.89011e-11 2.788e-11 5e-05 1.46608e-10 
185 1 0.309357 0.0176286 0.00711409 0.00612176 2.6012e-05 0.000148114 1.37419e-10 -1.94196e-10 7.26626e-11 5e-05 1.46608e-10 
186 1 0.309587 0.0182205 0.00693108 0.00579385 0.000155049 9.24882e-05 1.70164e-10 2.92866e-11 -3.27173e-12 5e-05 1.46608e-10 
187 1 0.31523 0.0179131 0.00724743 0.00563607 -0.00124027 0.000960532 2.78325e-11 3.20972e-11 2.37258e-11 5e-05 1.46608e-10 
188 1 0.315064 0.017138 0.00725436 0.00589937 -0.00142687 0.000273829 -4.62545e-11 -3.01422e-10 1.92679e-10 5e-05 1.46608e-10 
189 1 0.315176 0.0180761 0.00724913 0.00558543 -0.00120623 0.000944956 -1.67177e-10 -2.41908e-10 -2.54482e-11 5e-05 1.46608e-10 
190 1 0.303218 0.0182185 0.00691964 0.0057906 -6.53496e-05 9.96902e-05 -4.2339e-11 3.16784e-11 -8.14481e-12 5e-05 1.46608e-10 
191 1 0.314835 0.0166246 0.00773201 0.00558268 -0.000686737 0.00118395 -5.86636e-11 -1.58704e-10 1.85233e-10 5e-05 1.46608e-10 
192 1 0.30909 0.0176311 0.00710647 0.00632388 0.000239204 8.59026e-05 -4.22463e-11 3.47079e-11 -6.24334e-12 5e-05 1.46608e-10 
193 1 0.315293 0.0182077 0.00728047 0.0054563 -0.0012066 0.00092486 -3.08134e-10 -1.4673e-10 -7.97522e-11 5e-05 1.46608e-10 
194 1 0.309305 0.018103 0.00704748 0.00577258 0.000240406 6.13228e-05 -9.34601e-11 2.61885e-10 -6.85324e-11 5e-05 1.46608e-10 
195 1 0.309288 0.0181299 0.00695269 0.00579795 0.000255112 6.02288e-05 -5.35562e-11 2.99063e-10 -8.67594e-11 5e-05 1.46608e-10 
196 1 0.309325 0.0178802 0.00703332 0.00572686 0.000597964 -6.59635e-05 -7.96977e-10 -4.43389e-11 7.31393e-10 5e-05 1.46608e-10 
197 1 0.302886 0.0167736 0.00748511 0.00588836 -6.96566e-05 0.000159145 -1.27321e-10 -4.77846e-11 1.21415e-11 5e-05 1.46608e-10 
198 1 0.309227 0.0170694 0.00728844 0.00608932 6.36372e-05 0.00013567 -1.15243e-10 6.30747e-11 -2.43113e-11 5e-05 1.46608e-10 
199 1 0.309229 0.0181645 0.00702593 0.00581022 0.000284719 5.53156e-05 -1.95813e-11 1.33045e-10 -3.91823e-11 5e-05 1.46608e-10 
200 1 0.308625 0.0157281 0.00826325 0.00578866 6.38713e-05 -0.000187508 5.49198e-11 -1.09416e-10 3.48437e-10 5e-05 1.46608e-10 
201 1 0.309383 0.0181613 0.00694499 0.0058156 0.000218555 7.08255e-05 2.54e-12 -6.62215e-11 -1.42034e-11 5e-05 1.46608e-10 
202 1 0.309089 0.0168692 0.00739046 0.00582665 4.70676e-05 -0.000147993 1.29541e-10 4.99558e-11 -1.04214e-10 5e-05 1.46608e-10 
203 1 0.315149 0.0175235 0.00720412 0.00541812 -0.00175401 0.000862343 -3.57516e-10 2.28329e-10 -3.58705e-10 5e-05 1.46608e-10 
204 1 0.30942 0.0179119 0.00702558 0.00581492 0.000407119 1.16097e-05 -2.99962e-10 -1.43667e-10 3.32607e-11 5e-05 1.46608e-10 
205 1 0.308936 0.0166106 0.00758883 0.00566978 6.13251e-05 -0.000209164 -1.93822e-10 -8.71039e-11 8.00398e-11 5e-05 1.46608e-10 
206 1 0.308975 0.0167669 0.00746989 0.00569915 0.000179953 -0.000299018 1.00999e-10 -5.06765e-12 3.69423e-11 5e-05 1.46608e-10 
207 1 0.308857 0.0162984 0.00782635 0.00567004 3.13314e-05 -0.000186645 2.89029e-10 -1.01236e-10 7.71736e-11 5e-05 1.46608e-10 
208 1 0.30927 0.0172558 0.00723031 0.00620548 5.03877e-05 0.00014291 -2.0907e-10 1.27351e-10 -4.36622e-11 5e-05 1.46608e-10 
209 1 0.309196 0.0173192 0.00720828 0.00622795 8.95638e-05 0.000130851 -2.28697e-10 9.34851e-11 -3.48059e-11 5e-05 1.46608e-10 
210 1 0.314931 0.0166455 0.00771187 0.00556261 -0.000666183 0.00116221 1.74307e-10 -2.3666e-10 1.42601e-10 5e-05 1.46608e-10 
211 1 0.31495 0.0167142 0.00764165 0.00545775 -0.00065972 0.00114864 1.57112e-10 -1.93789e-10 2.46679e-10 5e-05 1.46608e-10 
212 1 0.309477 0.0181931 0.00693715 0.0058547 0.000174494 8.73586e-05 8.77156e-11 -2.51222e-10 5.92719e-11 5e-05 1.46608e-10 
213 1 0.315155 0.0179788 0.00723831 0.0056314 -0.00125083 0.000950783 -1.09385e-10 -2.16005e-10 1.32086e-11 5e-05 1.46608e-10 
214 1 0.315022 0.0169582 0.00732902 0.00582457 -0.00102354 0.00159812 4.3926e-11 -1.46916e-10 4.95683e-10 5e-05 1.46608e-10 
215 1 0.303118 0.0177378 0.00701432 0.00575958 -6.04541e-05 9.90933e-05 -1.15361e-10 5.55241e-11 -3.21169e-12 5e-05 1.46608e-10 
216 1 0.308837 0.0162204 0.00788573 0.00563799 3.5638e-05 -0.000189208 6.60317e-12 -7.86208e-11 5.62735e-11 5e-05 1.46608e-10 
217 1 0.315236 0.0183681 0.00728158 0.00544659 -0.0012502 0.000918544 4.10457e-10 1.86387e-09 2.28792e-10 5e-05 1.46608e-10 
218 1 0.309133 0.0178174 0.00704836 0.00631735 0.000236953 8.64453e-05 6.27563e-11 1.53625e-10 -8.40199e-11 5e-05 1.46608e-10 
219 1 0.314802 0.0164999 0.00788476 0.00537268 -0.000643104 0.00113137 -2.27317e-10 -7.9312e-11 5.81594e-11 5e-05 1.46608e-10 
220 1 0.30925 0.0179425 0.00701158 0.0056476 0.000299977 5.5701e-05 -3.1323e-10 -2.10639e-10 -1.09296e-10 5e-05 1.46608e-10 
222 1 0.31526 0.0172027 0.00723068 0.00593783 -0.00137008 0.000275371 1.68846e-10 3.22633e-11 -1.70187e-10 5e-05 1.46608e-10 
224 1 0.309014 0.0169233 0.00735083 0.00572082 -0.000264899 3.16139e-05 -6.73877e-11 6.87498e-11 5.45723e-11 5e-05 1.46608e-10 
225 1 0.314873 0.0167489 0.00757987 0.00559009 -0.000689684 0.00118889 6.87076e-11 -3.53213e-11 -3.2433e-12 5e-05 1.46608e-10 
226 1 0.309266 0.0179153 0.00710632 0.00580399 0.000371203 6.74678e-05 -1.58216e-09 8.23547e-10 3.87282e-10 5e-05 1.46608e-10 
227 1 0.303138 0.017834 0.00699538 0.00568717 -4.25531e-05 9.40277e-05 5.9197e-12 1.18368e-10 -2.55686e-11 5e-05 1.46608e-10 
228 1 0.303077 0.0175567 0.00708533 0.00629314 -0.000210439 -2.4647e-05 2.37645e-10 -1.49596e-10 5.73664e-11 5e-05 1.46608e-10 
229 1 0.309442 0.0183504 0.00688604 0.00587342 0.000224938 6.94937e-05 -9.81972e-11 -8.95734e-11 -1.85224e-11 5e-05 1.46608e-10 
230 1 0.308919 0.0169002 0.00737443 0.00572374 -0.000435029 -0.00121153 -1.12539e-12 1.9647e-10 1.18611e-10 5e-05 1.46608e-10 
232 1 0.309343 0.0182903 0.00698861 0.0058945 0.000185145 8.84185e-05 1.96134e-10 -2.13659e-10 -9.73608e-11 5e-05 1.46608e-10 
233 1 0.309232 0.0182851 0.00690171 0.00588549 0.000282457 5.78681e-05 -2.77693e-10 6.66132e-11 -4.60163e-11 5e-05 1.46608e-10 
234 1 0.31521 0.0176275 0.00731144 0.00574562 -0.00127557 0.000982145 -2.77097e-10 -1.46584e-10 8.77244e-11 5e-05 1.46608e-10 
235 1 0.30888 0.0167425 0.00749099 0.0057154 0.000210641 -0.000323687 -6.88708e-11 -1.7116e-10 1.39665e-10 5e-05 1.46608e-10 
236 1 0.308981 0.0171651 0.00725175 0.00628774 0.00017612 0.000104506 3.39097e-12 6.76458e-11 -2.21785e-11 5e-05 1.46608e-10 
237 1 0.309003 0.0172583 0.00722269 0.00629598 0.000191828 9.97588e-05 6.22975e-11 3.69913e-11 -8.89487e-12 5e-05 1.46608e-10 
239 1 0.302789 0.0163455 0.00771525 0.00565514 -0.000133434 4.78269e-05 -2.40766e-11 3.20474e-11 2.15617e-11 5e-05 1.46608e-10 
240 1 0.302847 0.0165949 0.00756618 0.00564438 -3.44998e-05 0.000137716 6.8094e-12 -2.73161e-11 6.11552e-12 5e-05 1.46608e-10 
241 1 0.302769 0.0162761 0.00778458 0.00563757 -0.000225155 -4.62181e-05 1.11482e-11 6.72517e-12 -6.91204e-12 5e-05 1.46608e-10 
242 1 0.309145 0.0167365 0.00748785 0.00576982 -0.000127383 -7.66873e-05 3.9776e-11 6.00791e-11 -9.02291e-11 5e-05 1.46608e-10 
243 1 0.309304 0.0177854 0.00706292 0.0057818 0.000200926 8.0944e-05 -5.14865e-10 1.05424e-10 2.79845e-12 5e-05 1.46608e-10 
244 1 0.302808 0.0164162 0.00764728 0.0056852 -4.6045e-05 0.000144758 -1.1563e-12 4.22884e-12 1.49694e-11 5e-05 1.46608e-10 
246 1 0.302991 0.0172104 0.00726611 0.00618685 -0.000199125 -2.74851e-05 -2.85877e-10 -7.28641e-11 -7.3496e-12 5e-05 1.46608e-10 
247 1 0.308821 0.0165082 0.0076693 0.00565853 4.61974e-05 -0.000197643 4.241e-11 7.31975e-11 -5.28101e-11 5e-05 1.46608e-10 
248 1 0.309143 0.0174759 0.00715716 0.00627136 0.000158058 0.000109953 -6.84875e-11 1.12935e-10 -3.67683e-11 5e-05 1.46608e-10 
249 1 0.302927 0.0169506 0.00740171 0.0061193 -0.000198481 -1.17333e-05 6.35485e-11 -8.66395e-11 -3.33424e-11 5e-05 1.46608e-10 
250 1 0.308896 0.0164545 0.00770759 0.00566861 4.49301e-05 -0.000197469 1.34772e-10 -2.65453e-11 1.43601e-11 5e-05 1.46608e-10 
251 1 0.315127 0.0174265 0.00719295 0.00590233 -0.00126704 0.0010151 4.46089e-10 6.95632e-11 3.16785e-10 5e-05 1.46608e-10 
252 1 0.303012 0.0172969 0.00722093 0.00622108 -0.000203608 -2.57757e-05 2.94916e-10 -1.88679e-11 -1.36677e-11 5e-05 1.46608e-10 
253 1 0.303198 0.0181224 0.00693857 0.00576524 -5.5794e-05 9.80299e-05 2.3735e-10 1.43142e-10 -1.45594e-11 5e-05 1.46608e-10 
254 1 0.302948 0.0170372 0.00735651 0.0061478 -0.000205613 -1.95767e-05 1.91143e-10 9.42837e-12 9.8355e-11 5e-05 1.46608e-10 
255 1 0.308551 0.0155155 0.00857933 0.00568924 0.000838007 0.00034049 6.41997e-11 7.92992e-11 -2.00013e-10 5e-05 1.46608e-10 
256 1 0.309439 0.0180055 0.00699614 0.00569244 0.000170735 8.36725e-05 -2.57152e-10 -1.7105e-10 1.64117e-11 5e-05 1.46608e-10 
257 1 0.30905 0.0167127 0.00750853 0.00570695 4.38885e-05 -0.000194411 2.63273e-11 2.97235e-11 1.63418e-12 5e-05 1.46608e-10 
258 1 0.309122 0.0173826 0.00718623 0.00627796 0.000163655 0.000108547 -1.01235e-10 1.29737e-10 -4.57635e-11 5e-05 1.46608e-10 
259 1 0.303034 0.0173836 0.00717572 0.00623505 -0.000210056 -2.38973e-05 1.48249e-10 4.55726e-11 -1.99635e-11 5e-05 1.46608e-10 
260 1 0.309327 0.0183172 0.0068938 0.00589797 0.000208274 7.91394e-05 2.4132e-10 1.08421e-10 -4.38414e-11 5e-05 1.46608e-10 