ITEM: TIMESTEP
20000000
ITEM: NUMBER OF ATOMS
287
ITEM: BOX BOUNDS ff ff ff
-0.02 0.43
-0.02 0.06
-0.02 0.07
ITEM: ATOMS id type x y z vx vy vz fx fy fz radius mass 
1 1 0.129352 0.0160988 0.00824027 0.00575525 6.65616e-05 -0.0005697 -1.35845e-10 -2.3471e-10 2.82959e-10 5e-05 1.46608e-10 
2 1 0.129968 0.0177512 0.00712514 0.00568377 0.000914342 0.000149814 -2.5818e-10 1.71199e-11 -6.9844e-11 5e-05 1.46608e-10 
3 1 0.123577 0.0171258 0.00737347 0.00590879 0.000142576 7.69956e-05 -4.14672e-11 3.11082e-10 -1.93407e-10 5e-05 1.46608e-10 
4 1 0.129676 0.0173138 0.00729159 0.00581476 0.000611057 0.000257542 -7.7519e-11 1.04842e-10 -2.07602e-11 5e-05 1.46608e-10 
5 1 0.129211 0.01593 0.00839384 0.00600336 0.000678204 -3.63753e-05 -1.6591e-10 -1.07418e-11 -1.19178e-11 5e-05 1.46608e-10 
6 1 0.135337 0.0162536 0.0078577 0.00647975 0.00109744 -0.000444331 3.27208e-14 2.84581e-12 2.63547e-12 5e-05 1.46608e-10 
7 1 0.129404 0.0165596 0.00778108 0.00618185 8.09367e-05 -0.000671907 4.00534e-10 -1.91834e-10 -3.47319e-11 5e-05 1.46608e-10 
8 1 0.129103 0.0155652 0.00871836 0.0059462 0.000788918 -0.000152388 7.81548e-11 2.66265e-10 -2.43003e-10 5e-05 1.46608e-10 
9 1 0.135612 0.0174098 0.00736649 0.00617607 0.000837201 -0.000804109 -9.8169e-13 3.15674e-13 -2.33096e-14 5e-05 1.46608e-10 
10 1 0.12934 0.0163562 0.00799209 0.00610976 8.95367e-05 -0.000631235 -9.54735e-11 9.64065e-11 -6.19085e-11 5e-05 1.46608e-10 
11 1 0.129922 0.0175552 0.00718468 0.00569362 0.000834188 0.000180218 -8.80211e-11 1.40717e-10 -6.07516e-11 5e-05 1.46608e-10 
12 1 0.123441 0.0166231 0.00757181 0.00574451 0.000140977 7.60226e-05 -5.30043e-10 -2.18098e-11 -3.01095e-11 5e-05 1.46608e-10 
13 1 0.12919 0.015857 0.00845874 0.00598698 0.000691407 -5.87933e-05 -8.39206e-11 -9.58146e-11 6.3579e-11 5e-05 1.46608e-10 
14 1 0.123187 0.0157582 0.00834197 0.0061537 4.35891e-05 -0.000457714 -7.00303e-10 3.0142e-10 -3.37159e-10 5e-05 1.46608e-10 
15 1 0.129569 0.0167867 0.00753668 0.00620844 0.000183674 -0.00075203 1.90177e-10 -2.67139e-10 7.05478e-11 5e-05 1.46608e-10 
16 1 0.123166 0.0156944 0.00841607 0.00605236 4.05215e-05 -0.000448513 -5.70708e-10 5.00553e-10 -4.96106e-10 5e-05 1.46608e-10 
17 1 0.129319 0.0162883 0.00806231 0.00610299 0.000153276 -0.000537182 8.07789e-11 -1.30859e-10 -1.96552e-10 5e-05 1.46608e-10 
18 1 0.135485 0.0168566 0.0075613 0.00635743 0.000795441 -0.000805774 -1.09395e-12 -4.89821e-13 -9.546e-12 5e-05 1.46608e-10 
19 1 0.129168 0.0157841 0.00852364 0.00598484 0.000714572 -7.85539e-05 1.46159e-11 8.60309e-13 2.15556e-11 5e-05 1.46608e-10 
21 1 0.129331 0.0160306 0.00831011 0.00517375 0.000177493 -0.000628061 -5.18078e-10 -3.93517e-10 4.02761e-10 5e-05 1.46608e-10 
22 1 0.129446 0.0166952 0.00764042 0.00619135 8.67071e-05 -0.000654061 -4.39501e-10 5.2512e-11 1.61205e-11 5e-05 1.46608e-10 
23 1 0.123575 0.016821 0.00745858 0.00588304 0.000165887 6.58986e-05 -1.3361e-10 1.95529e-10 -1.06948e-10 5e-05 1.46608e-10 
24 1 0.135549 0.0171332 0.0074639 0.0062667 0.000816281 -0.000804925 -1.37939e-12 -3.84387e-13 -1.18955e-12 5e-05 1.46608e-10 
25 1 0.129383 0.0164931 0.00785264 0.0061503 5.54838e-05 -0.000698523 2.15959e-10 -4.38994e-12 4.24823e-11 5e-05 1.46608e-10 
26 1 0.135422 0.0165801 0.00765871 0.00644766 0.000774169 -0.000805713 1.91509e-11 -4.08736e-12 -3.70644e-11 5e-05 1.46608e-10 
27 1 0.123725 0.0174911 0.00720628 0.00577559 -4.52157e-05 -0.000242735 -1.03028e-10 3.32956e-11 -2.09865e-10 5e-05 1.46608e-10 
28 1 0.129657 0.0172137 0.00731296 0.00573314 0.00097277 0.000201539 2.95572e-10 1.61406e-11 1.45987e-10 5e-05 1.46608e-10 
29 1 0.129147 0.0157111 0.00858855 0.00596788 0.000733319 -9.81004e-05 -1.30139e-10 -8.91057e-11 2.04525e-11 5e-05 1.46608e-10 
30 1 0.129619 0.0170114 0.00733573 0.00588508 0.000627659 0.000268017 1.63588e-10 3.72962e-10 3.20387e-11 5e-05 1.46608e-10 
31 1 0.129425 0.0166259 0.00770928 0.00617773 0.000108003 -0.000643457 5.95747e-11 -1.04038e-10 1.72034e-10 5e-05 1.46608e-10 
32 1 0.129544 0.0167139 0.00761133 0.00624939 0.000128272 -0.000683224 -9.06788e-11 7.46356e-11 -1.66572e-10 5e-05 1.46608e-10 
33 1 0.135358 0.0163235 0.00778942 0.00650554 0.00109427 -0.000439323 -9.37199e-12 -1.22558e-11 -9.34033e-12 5e-05 1.46608e-10 
34 1 0.129297 0.0162195 0.00813169 0.00608755 0.000284691 -0.000377123 4.4766e-10 -1.63836e-10 1.02297e-10 5e-05 1.46608e-10 
35 1 0.129523 0.0166454 0.0076813 0.00634523 0.000227093 -0.000774823 -2.39787e-10 1.45659e-10 1.56058e-10 5e-05 1.46608e-10 
36 1 0.135654 0.0175943 0.00730156 0.00588619 0.000903005 -0.000801299 7.22386e-13 -3.15848e-13 5.955e-14 5e-05 1.46608e-10 
37 1 0.12948 0.0165088 0.007821 0.00619268 0.000147474 -0.000684227 4.70503e-10 -1.9738e-10 1.46353e-10 5e-05 1.46608e-10 
38 1 0.129703 0.0169618 0.00738167 0.00574758 0.000837458 -0.00018751 4.62566e-10 -3.00004e-10 2.18272e-10 5e-05 1.46608e-10 
39 1 0.13557 0.0172254 0.00743143 0.00623648 0.000823247 -0.000804521 -2.59081e-13 6.52771e-13 -1.3704e-12 5e-05 1.46608e-10 
41 1 0.129254 0.0160759 0.00826403 0.00603868 0.000651245 -1.94421e-05 -5.79133e-11 -9.91505e-11 -3.46639e-11 5e-05 1.46608e-10 
42 1 0.129468 0.0167674 0.00757461 0.0062378 6.33197e-05 -0.000663246 -1.11074e-10 1.85046e-11 -1.96665e-10 5e-05 1.46608e-10 
44 1 0.129713 0.0170477 0.0073316 0.00588041 0.00100922 0.000131437 2.9375e-10 -6.44208e-11 -2.10022e-11 5e-05 1.46608e-10 
45 1 0.13538 0.0163956 0.00772364 0.00647628 0.000767065 -0.000805541 1.29686e-11 2.76997e-11 7.36514e-12 5e-05 1.46608e-10 
46 1 0.135464 0.0167644 0.00759377 0.00638744 0.000788404 -0.000806309 -3.58037e-12 -1.81552e-12 1.16264e-11 5e-05 1.46608e-10 
47 1 0.129276 0.0161484 0.00819863 0.00604346 0.000517216 -0.000152781 2.33658e-10 8.252e-11 1.16493e-10 5e-05 1.46608e-10 
48 1 0.12951 0.0169224 0.00745574 0.00598735 0.000332025 -0.00037308 2.65116e-10 -1.89329e-10 -2.32749e-10 5e-05 1.46608e-10 
49 1 0.135443 0.0166723 0.00762624 0.00641761 0.000781388 -0.000805249 6.56594e-12 -3.43513e-12 1.38038e-11 5e-05 1.46608e-10 
50 1 0.129566 0.0171611 0.00728322 0.00598584 0.000807687 0.000223722 2.04528e-10 -4.52937e-11 3.24393e-11 5e-05 1.46608e-10 
51 1 0.129548 0.0170818 0.00734151 0.00595967 0.00072755 0.000120877 -4.86879e-10 2.04848e-10 -1.68116e-10 5e-05 1.46608e-10 
52 1 0.123421 0.0165386 0.00762121 0.00627094 3.88576e-05 0.000148254 -4.7122e-10 -2.33862e-10 2.11471e-10 5e-05 1.46608e-10 
53 1 0.135506 0.0169488 0.00752883 0.00632711 0.000802336 -0.000805062 1.5672e-12 1.45822e-12 -1.28604e-12 5e-05 1.46608e-10 
54 1 0.129308 0.0159578 0.00837756 0.00603447 0.000665632 -2.77504e-05 -1.51722e-10 1.017e-10 -1.09268e-10 5e-05 1.46608e-10 
55 1 0.123229 0.0158857 0.00819376 0.00619028 6.6451e-05 -0.000487621 2.60129e-10 -7.02877e-10 7.0441e-10 5e-05 1.46608e-10 
56 1 0.129501 0.0165771 0.00775115 0.00623492 0.000231952 -0.000780422 1.6395e-10 -7.15557e-10 6.87662e-10 5e-05 1.46608e-10 
57 1 0.135401 0.0164879 0.00769117 0.0064814 0.000767388 -0.000809528 -9.95499e-11 3.97791e-11 -3.81156e-11 5e-05 1.46608e-10 
59 1 0.129628 0.0166725 0.00764513 0.0062433 0.000154705 -0.000699619 -1.11822e-10 -1.11062e-10 5.75605e-11 5e-05 1.46608e-10 
60 1 0.129649 0.016741 0.00757518 0.00618211 0.000186704 -0.000734795 1.69023e-10 -1.41464e-10 2.81966e-10 5e-05 1.46608e-10 
61 1 0.129233 0.016003 0.00832896 0.00601969 0.000668174 -2.19941e-05 -8.45978e-11 -8.06336e-11 -7.24394e-11 5e-05 1.46608e-10 
62 1 0.129731 0.0171476 0.00730077 0.0058104 0.0011112 0.00010892 1.04821e-10 4.83952e-10 -1.95007e-10 5e-05 1.46608e-10 
63 1 0.129732 0.0174246 0.00730757 0.00580879 0.000607308 0.000258534 2.19668e-11 -7.33183e-11 -4.96719e-11 5e-05 1.46608e-10 
64 1 0.135527 0.017041 0.00749636 0.00629684 0.000809258 -0.000805093 -8.06173e-13 -1.78503e-13 4.4923e-12 5e-05 1.46608e-10 
65 1 0.12372 0.0177416 0.00714797 0.00565634 3.21362e-05 -0.000161687 -3.74675e-11 1.11912e-10 -2.38346e-11 5e-05 1.46608e-10 
66 1 0.123796 0.0176693 0.00716134 0.00569386 0.000104039 -0.000179815 -4.88622e-11 9.21211e-11 -4.74976e-11 5e-05 1.46608e-10 
67 1 0.129878 0.017469 0.00720892 0.00567421 0.000794041 0.000192815 -1.65023e-10 1.96719e-10 -3.14384e-11 5e-05 1.46608e-10 
68 1 0.129772 0.017338 0.007277 0.00582408 0.000652244 0.000245412 3.12654e-11 8.05688e-11 2.10244e-11 5e-05 1.46608e-10 
69 1 0.129416 0.0163038 0.00803069 0.0061016 4.61769e-05 -0.000574805 6.77188e-12 3.22287e-11 -9.74105e-11 5e-05 1.46608e-10 
70 1 0.135591 0.0173176 0.00739896 0.00620624 0.000830208 -0.000804297 -6.22603e-13 4.91967e-13 8.94412e-13 5e-05 1.46608e-10 
71 1 0.123208 0.0158219 0.00826786 0.00620411 5.99576e-05 -0.000477932 3.3354e-10 -1.48465e-10 1.38881e-10 5e-05 1.46608e-10 
72 1 0.129743 0.0172426 0.00727111 0.00585721 0.000651801 0.000257319 -9.09187e-12 2.22374e-10 -9.61008e-11 5e-05 1.46608e-10 
73 1 0.129361 0.016425 0.00792267 0.006127 6.57862e-05 -0.000682344 -2.04275e-10 8.89612e-11 1.30592e-10 5e-05 1.46608e-10 
74 1 0.129588 0.0168603 0.00746172 0.00577226 6.22014e-05 -0.000565774 5.86675e-10 2.8916e-10 -3.45808e-10 5e-05 1.46608e-10 
76 1 0.123712 0.0174241 0.00713315 0.005685 -2.50474e-05 -0.000238569 -3.07452e-11 1.30608e-11 2.94301e-11 5e-05 1.46608e-10 
77 1 0.129801 0.0178514 0.00713049 0.00547706 0.000617539 -0.000891079 -1.06548e-10 7.17717e-11 -1.15611e-11 5e-05 1.46608e-10 
78 1 0.123271 0.0160132 0.00804555 0.00624098 -3.86073e-06 -0.000411614 2.60862e-10 2.91759e-10 -2.02666e-10 5e-05 1.46608e-10 
79 1 0.123776 0.0175735 0.00718239 0.00597681 4.59888e-06 -0.000398036 3.09581e-12 -9.85989e-12 1.23704e-10 5e-05 1.46608e-10 
80 1 0.129607 0.0173484 0.00722611 0.00571106 0.000819501 0.00018292 3.37002e-11 3.61779e-11 -2.30924e-11 5e-05 1.46608e-10 
81 1 0.123576 0.0172158 0.00732542 0.00592164 0.000264257 6.76271e-05 1.60687e-10 2.61035e-10 -2.16881e-10 5e-05 1.46608e-10 
82 1 0.1235 0.016877 0.00742339 0.00585661 0.000136244 8.2931e-05 -3.85679e-10 -2.16761e-10 6.89752e-11 5e-05 1.46608e-10 
83 1 0.123611 0.0165958 0.0075927 0.00579456 0.00012337 8.97142e-05 1.72526e-10 1.65078e-10 -7.0313e-11 5e-05 1.46608e-10 
84 1 0.135633 0.017502 0.00733402 0.00614583 0.000844182 -0.000803811 -1.09476e-12 3.60894e-13 -2.24508e-13 5e-05 1.46608e-10 
85 1 0.123387 0.0160935 0.00794623 0.00640172 -7.67648e-05 -0.000383773 5.08827e-10 3.90218e-10 -9.47607e-11 5e-05 1.46608e-10 
86 1 0.129641 0.017117 0.00733284 0.00587859 0.000986045 0.000236606 9.05867e-11 5.01836e-11 1.99104e-10 5e-05 1.46608e-10 
87 1 0.129607 0.0166042 0.00771502 0.0063208 0.000129892 -0.000679973 -2.36784e-10 -8.9618e-11 1.01829e-10 5e-05 1.46608e-10 
88 1 0.129645 0.0174997 0.00729598 0.00565643 0.000554648 0.000348026 5.89312e-11 -3.01719e-10 7.1509e-10 5e-05 1.46608e-10 
89 1 0.129615 0.017405 0.00730805 0.00562971 0.000579967 0.000351492 -2.66659e-10 -3.42254e-10 6.15177e-11 5e-05 1.46608e-10 
90 1 0.130017 0.0175887 0.0071814 0.00571402 0.000952502 0.000146751 5.33298e-13 -5.06846e-10 2.97212e-10 5e-05 1.46608e-10 
91 1 0.123461 0.0167077 0.00752232 0.00564842 0.000166885 5.73361e-05 3.02772e-10 -4.40727e-10 2.04592e-10 5e-05 1.46608e-10 
92 1 0.129827 0.0175529 0.00722664 0.00563627 0.000772749 0.000166422 -6.2261e-11 -9.066e-11 5.13136e-11 5e-05 1.46608e-10 
93 1 0.129666 0.0176326 0.00716816 0.00569984 0.000509168 0.000281655 5.26405e-10 2.51679e-10 -8.20077e-11 5e-05 1.46608e-10 
94 1 0.129894 0.0178185 0.00711951 0.00565641 0.000814888 -0.000371902 -9.02329e-11 1.09574e-10 3.92241e-10 5e-05 1.46608e-10 
95 1 0.129742 0.017518 0.00727297 0.00576487 0.000619446 0.000270008 7.00794e-11 -5.07588e-12 2.0471e-10 5e-05 1.46608e-10 
96 1 0.129855 0.0176261 0.00716474 0.00571601 0.000787102 0.000224222 2.49299e-11 -1.94956e-10 1.9226e-10 5e-05 1.46608e-10 
97 1 0.123378 0.0163699 0.00771966 0.00614787 -4.75447e-05 0.000205707 2.37463e-09 -1.05717e-09 1.20225e-09 5e-05 1.46608e-10 
98 1 0.129646 0.0175418 0.00720531 0.00566974 0.000531224 0.000336018 5.30404e-11 2.11422e-10 1.47732e-10 5e-05 1.46608e-10 
99 1 0.12384 0.0177588 0.00715464 0.00567008 0.00011557 -0.000160685 7.55322e-12 5.79717e-11 -4.06368e-11 5e-05 1.46608e-10 
100 1 0.129822 0.0171872 0.00729534 0.00589146 0.000703873 0.00024602 -1.01465e-10 -4.97461e-11 -3.36879e-11 5e-05 1.46608e-10 
101 1 0.123694 0.0172311 0.00731824 0.00573979 0.000298961 -7.28888e-06 -7.42079e-11 -6.42268e-11 3.83177e-11 5e-05 1.46608e-10 
102 1 0.0643568 0.0187248 0.00531097 4.13894e-15 1.05296e-14 8.29627e-14 -1.47181e-21 7.6005e-22 -1.38553e-23 5e-05 1.46608e-10 
103 1 0.24257 0.0191927 0.00520306 3.06537e-22 5.77616e-22 -5.81428e-22 -3.23117e-27 0 0 5e-05 1.46608e-10 
104 1 0.12373 0.0171041 0.00729554 0.00593403 0.000220155 3.56388e-05 -5.21102e-11 1.27019e-11 4.93374e-12 5e-05 1.46608e-10 
105 1 0.123335 0.0162045 0.0078232 0.00610675 -0.000195798 -0.000335746 -1.00934e-10 -9.35553e-10 6.27302e-10 5e-05 1.46608e-10 
106 1 0.123825 0.0171333 0.00728095 0.00587107 0.000376179 -5.76711e-05 -5.645e-11 7.24887e-11 -4.28147e-11 5e-05 1.46608e-10 
107 1 0.123292 0.0160769 0.00797144 0.00632375 -3.89688e-05 -0.000376944 5.04828e-10 4.07362e-10 -2.07233e-10 5e-05 1.46608e-10 
108 1 0.129459 0.0164406 0.00789083 0.00616699 0.000109624 -0.000652109 -3.38055e-10 2.81593e-10 2.52092e-11 5e-05 1.46608e-10 
109 1 0.129529 0.0169994 0.00739495 0.00578285 0.000569493 -0.000156386 -1.32401e-10 3.16432e-10 -1.25966e-12 5e-05 1.46608e-10 
110 1 0.129786 0.0182184 0.00718078 0.00561554 0.000561006 -0.00104471 -7.50315e-11 1.42136e-10 4.24112e-11 5e-05 1.46608e-10 
111 1 0.129818 0.0179975 0.00722642 0.00553288 0.000574993 -0.000999191 7.26955e-11 1.75553e-10 2.43692e-10 5e-05 1.46608e-10 
112 1 0.1234 0.0164542 0.00767047 0.00625654 -2.35781e-05 0.00018809 7.71556e-10 -5.5905e-10 5.33066e-10 5e-05 1.46608e-10 
113 1 0.124001 0.017966 0.00701314 0.00560045 5.42291e-05 -0.000143351 -1.47836e-10 2.13817e-10 -2.55812e-11 5e-05 1.46608e-10 
114 1 0.124131 0.0177396 0.00705402 0.00569186 0.000139068 -0.000161584 -3.37291e-11 1.75441e-10 -3.61379e-11 5e-05 1.46608e-10 
115 1 0.129602 0.01693 0.00739125 0.00572024 0.00017081 -0.000467834 3.33737e-10 3.11428e-11 -3.87431e-10 5e-05 1.46608e-10 
116 1 0.129437 0.0163723 0.00796068 0.00609251 0.000116631 -0.000678128 1.57659e-10 3.90357e-10 -3.62903e-10 5e-05 1.46608e-10 
117 1 0.129286 0.0158848 0.00844251 0.0060269 0.000682553 -4.50678e-05 -2.03083e-10 5.61679e-11 -1.03468e-10 5e-05 1.46608e-10 
118 1 0.123536 0.0170465 0.00742438 0.00592639 0.000121053 7.42655e-05 -2.26836e-10 3.19622e-10 -5.01323e-11 5e-05 1.46608e-10 
119 1 0.129664 0.0168105 0.00750477 0.00598583 0.000268047 -0.000760975 1.91098e-10 -4.82525e-10 1.68437e-10 5e-05 1.46608e-10 
120 1 0.129125 0.0156381 0.00865345 0.00595587 0.000750524 -0.000116082 -2.89459e-11 -2.13259e-10 2.04167e-10 5e-05 1.46608e-10 
121 1 0.129082 0.0154922 0.00878326 0.00592531 0.000774115 -0.000140936 9.72999e-11 2.6203e-10 -2.31098e-10 5e-05 1.46608e-10 
122 1 0.129838 0.0180582 0.00714969 0.00557202 0.000533833 -0.00103203 4.31172e-11 1.50079e-10 1.17233e-10 5e-05 1.46608e-10 
123 1 0.123433 0.0162369 0.00781569 0.00644255 0.000178205 -0.000163725 -8.73221e-10 3.18229e-10 -1.55498e-11 5e-05 1.46608e-10 
124 1 0.129627 0.0174442 0.00719684 0.00569565 0.000532726 0.000300223 2.915e-10 2.46213e-10 -2.96477e-11 5e-05 1.46608e-10 
125 1 0.129264 0.0158117 0.00850749 0.00603821 0.000732772 -9.05492e-05 -1.26588e-10 -5.54662e-11 3.88175e-11 5e-05 1.46608e-10 
126 1 0.129489 0.0168428 0.00751263 0.00614636 0.000140207 -0.000581243 -1.66944e-11 -4.86417e-10 -5.48908e-10 5e-05 1.46608e-10 
127 1 0.123356 0.0162856 0.00776889 0.00626216 -4.43341e-05 0.000160122 3.97088e-10 -9.40694e-10 -7.1875e-11 5e-05 1.46608e-10 
128 1 0.129586 0.0172547 0.00725474 0.00574117 0.00083219 0.000143593 2.09752e-10 6.37377e-12 1.67563e-10 5e-05 1.46608e-10 
129 1 0.12974 0.0176201 0.00723447 0.00568408 0.000539888 0.000304816 5.52966e-10 -3.26516e-10 4.53915e-10 5e-05 1.46608e-10 
130 1 0.123595 0.0169056 0.00740912 0.00593063 0.000170143 6.32459e-05 1.04393e-10 8.36714e-11 -4.42959e-11 5e-05 1.46608e-10 
131 1 0.123832 0.0178661 0.00711998 0.00559964 8.89075e-05 -0.00014153 -1.01476e-10 -7.27151e-11 -5.62843e-12 5e-05 1.46608e-10 
132 1 0.129701 0.017382 0.00722279 0.00577789 0.000620104 0.000261543 -2.68731e-11 -5.65259e-11 -1.14982e-11 5e-05 1.46608e-10 
133 1 0.129522 0.016331 0.0079944 0.00642101 0.000537914 -0.00109545 -2.11471e-10 3.0806e-10 -3.42127e-10 5e-05 1.46608e-10 
134 1 0.129683 0.0168796 0.00743507 0.00570274 0.00055469 -0.000608353 -2.75052e-10 -5.08294e-10 -7.8409e-11 5e-05 1.46608e-10 
135 1 0.129243 0.0157388 0.0085724 0.00601217 0.000730449 -9.21436e-05 -3.38992e-11 -9.00115e-11 9.61992e-11 5e-05 1.46608e-10 
136 1 0.123366 0.0160297 0.00802033 0.00623498 -1.69944e-05 -0.000401945 9.49209e-10 -3.86072e-10 -2.13502e-10 5e-05 1.46608e-10 
137 1 0.129725 0.0179258 0.00715511 0.00555223 0.00052405 -0.00100223 6.98051e-11 -1.25559e-10 -5.06871e-10 5e-05 1.46608e-10 
138 1 0.129394 0.0162355 0.00810054 0.00605453 2.95454e-05 -0.000565128 1.67301e-10 2.09326e-11 3.92833e-11 5e-05 1.46608e-10 
140 1 0.129913 0.0179168 0.00711671 0.00562354 0.000801218 -0.0010223 -4.05361e-12 1.21968e-10 2.6582e-10 5e-05 1.46608e-10 
141 1 0.123409 0.0161595 0.00787418 0.0064666 1.02993e-05 -0.000317088 -1.04582e-09 7.75009e-10 -4.20543e-11 5e-05 1.46608e-10 
142 1 0.12369 0.0169343 0.00739482 0.00590879 0.000167108 6.6512e-05 1.42048e-10 2.59148e-10 -1.60207e-10 5e-05 1.46608e-10 
143 1 0.123313 0.0161407 0.00789725 0.00625382 -0.000231191 -0.000160951 -9.43972e-11 5.18543e-10 -6.19536e-10 5e-05 1.46608e-10 
144 1 0.123828 0.0175502 0.00709964 0.00579216 6.50725e-05 -0.000261269 1.14636e-10 8.18586e-12 -2.42265e-12 5e-05 1.46608e-10 
146 1 0.123726 0.0167091 0.00752893 0.00583347 0.00011022 9.77169e-05 -1.53875e-10 1.35982e-12 -1.81335e-12 5e-05 1.46608e-10 
147 1 0.123345 0.015966 0.00809443 0.00626153 9.51157e-06 -0.000417484 -4.80625e-10 3.77973e-10 -3.11091e-10 5e-05 1.46608e-10 
148 1 0.12356 0.0171308 0.00727501 0.00589445 0.000151621 7.81054e-05 -4.27106e-11 -8.2947e-12 -2.8718e-11 5e-05 1.46608e-10 
149 1 0.129706 0.0178278 0.00715063 0.00547973 0.000498143 -0.000772035 -1.93032e-10 4.14864e-11 -3.65473e-10 5e-05 1.46608e-10 
150 1 0.123516 0.016567 0.00760706 0.00594109 0.000283796 -5.15166e-06 -2.07688e-10 1.99047e-10 -1.16091e-10 5e-05 1.46608e-10 
151 1 0.124017 0.0176121 0.00708147 0.00574773 0.000187709 -0.00017188 -2.37856e-11 4.5498e-11 -1.59577e-11 5e-05 1.46608e-10 
153 1 0.123474 0.0163981 0.00770573 0.00652557 0.000278858 7.34046e-05 5.67978e-12 2.7324e-10 6.62541e-10 5e-05 1.46608e-10 
154 1 0.123655 0.0171597 0.00726058 0.00587981 0.000176757 5.9936e-05 -1.13405e-10 -5.70657e-11 2.95009e-11 5e-05 1.46608e-10 
155 1 0.123732 0.0175195 0.0071107 0.00573207 -1.67397e-05 -0.000241872 -2.19892e-11 7.40519e-11 -6.64166e-11 5e-05 1.46608e-10 
156 1 0.123635 0.0170749 0.00731016 0.00589733 0.000143955 7.84128e-05 1.85703e-11 1.60066e-10 -1.10714e-10 5e-05 1.46608e-10 
157 1 0.0219312 0.0187687 0.00551176 -3.83211e-14 8.16497e-14 2.95894e-13 8.36383e-22 4.60171e-22 -2.17135e-23 5e-05 1.46608e-10 
158 1 0.123749 0.0171889 0.00724598 0.0057512 0.000234671 2.93026e-05 2.0594e-11 4.74978e-11 -1.12713e-12 5e-05 1.46608e-10 
159 1 0.129773 0.0174496 0.00720673 0.00573791 0.000632508 0.000253449 -9.09484e-11 -2.43146e-10 1.42447e-10 5e-05 1.46608e-10 
160 1 0.123638 0.0174895 0.00712158 0.00569538 -8.43869e-06 -0.000246766 -2.69428e-11 4.63825e-11 3.20734e-11 5e-05 1.46608e-10 
162 1 0.123674 0.0172444 0.00721104 0.00572197 0.00018786 4.22127e-05 -1.29183e-10 -1.38448e-10 3.3333e-11 5e-05 1.46608e-10 
164 1 0.123811 0.0179037 0.00702971 0.0055915 6.8885e-05 -0.000146642 -6.37049e-11 2.07835e-11 -1.91565e-12 5e-05 1.46608e-10 
165 1 0.123922 0.0175809 0.00708977 0.00574803 0.0001924 -0.000181006 7.61626e-11 1.01208e-10 -1.09291e-11 5e-05 1.46608e-10 
166 1 0.129479 0.0161944 0.00813411 0.00642658 0.000421105 -0.000979596 2.16653e-10 -6.341e-11 -2.24358e-10 5e-05 1.46608e-10 
167 1 0.123496 0.0164824 0.00765646 0.00639057 0.000198837 5.81913e-05 3.85426e-10 3.45494e-10 4.9747e-11 5e-05 1.46608e-10 
168 1 0.123844 0.0172182 0.00723126 0.0057498 0.000205985 4.0593e-05 -1.87273e-11 7.83677e-11 -2.90583e-11 5e-05 1.46608e-10 
169 1 0.123981 0.0178698 0.00703228 0.00559232 5.31664e-05 -0.000141551 -3.48825e-11 1.97435e-10 -3.22222e-11 5e-05 1.46608e-10 
170 1 0.123882 0.0173894 0.00713367 0.00578927 3.27293e-05 -0.00026049 -2.51714e-11 -9.51064e-11 -7.88026e-11 5e-05 1.46608e-10 
171 1 0.129501 0.0162627 0.00806426 0.00649346 0.000463307 -0.00102306 3.53838e-10 -1.10214e-10 -6.32476e-11 5e-05 1.46608e-10 
172 1 0.124056 0.0178047 0.00704315 0.00567964 0.000140196 -0.000161459 3.448e-11 2.85148e-10 -5.87141e-11 5e-05 1.46608e-10 
173 1 0.129871 0.0177208 0.0071272 0.00548962 0.00172797 -0.000123841 -6.93519e-10 1.49043e-10 1.03815e-10 5e-05 1.46608e-10 
174 1 0.123788 0.0173617 0.00715261 0.00577415 0.000133229 -5.33022e-05 -2.00435e-10 1.31285e-10 2.55746e-11 5e-05 1.46608e-10 
175 1 0.117578 0.0172135 0.00721514 0.00566726 1.41736e-05 -0.000502271 3.57447e-11 -2.69198e-11 -7.24877e-12 5e-05 1.46608e-10 
176 1 0.123615 0.0169902 0.00735966 0.00594328 0.000183429 5.50845e-05 2.75438e-10 1.59254e-10 -1.40726e-10 5e-05 1.46608e-10 
177 1 0.123677 0.0176804 0.00707729 0.0057231 3.43505e-06 -0.000207742 2.39726e-11 8.83643e-12 1.50523e-12 5e-05 1.46608e-10 
178 1 0.12402 0.0180622 0.006994 0.0055788 5.88046e-05 -0.00014344 -7.75618e-11 5.04585e-11 -1.19358e-11 5e-05 1.46608e-10 
179 1 0.123961 0.0177736 0.00705144 0.0056802 0.000133598 -0.00016022 -2.89722e-11 2.25986e-10 -5.07498e-11 5e-05 1.46608e-10 
181 1 0.123599 0.0173067 0.00718937 0.00569501 0.000110008 -3.0136e-05 1.16859e-10 1.08538e-10 1.35341e-11 5e-05 1.46608e-10 
182 1 0.129373 0.0161672 0.0081704 0.00602783 2.3766e-05 -0.000561531 6.10496e-10 -1.81455e-10 9.09722e-11 5e-05 1.46608e-10 
183 1 0.123864 0.0173028 0.00718183 0.00578103 0.000191481 4.82472e-05 -1.29931e-10 5.43538e-11 5.76227e-11 5e-05 1.46608e-10 
184 1 0.12981 0.017708 0.0072055 0.00515847 0.00227054 -0.000761239 1.85624e-10 2.68707e-11 -1.08978e-09 5e-05 1.46608e-10 
185 1 0.12354 0.0170462 0.00732448 0.0059007 0.000144519 7.7423e-05 -1.18837e-10 -1.4931e-10 1.04814e-11 5e-05 1.46608e-10 
186 1 0.123579 0.0172156 0.00722545 0.00573611 0.000161629 6.14494e-05 6.28531e-10 3.70511e-11 -4.37523e-11 5e-05 1.46608e-10 
187 1 0.129811 0.0170924 0.00732499 0.00582458 0.000723242 0.000230849 -3.38047e-10 1.19664e-10 -6.12553e-11 5e-05 1.46608e-10 
188 1 0.129777 0.0177532 0.00712256 0.00530469 0.00107153 -0.00137176 -4.06798e-09 -1.7554e-09 1.22289e-08 5e-05 1.46608e-10 
189 1 0.129852 0.0172787 0.00726821 0.00586894 0.00070025 0.000241432 -1.21209e-10 -2.41101e-10 1.0794e-10 5e-05 1.46608e-10 
190 1 0.117753 0.0176264 0.00711903 0.00566966 0.00035226 0.00012322 -7.42836e-12 -2.74816e-11 4.19457e-12 5e-05 1.46608e-10 
191 1 0.129744 0.0180236 0.0071639 0.00555075 0.000560158 -0.00101733 -9.30204e-11 -3.20198e-10 -1.36952e-11 5e-05 1.46608e-10 
192 1 0.123785 0.0169632 0.00738037 0.00583437 5.79651e-05 0.0001288 -1.29318e-10 6.98205e-11 -5.04455e-11 5e-05 1.46608e-10 
193 1 0.129586 0.0165359 0.00778487 0.00634826 0.000123736 -0.000676974 -7.50641e-10 -6.01175e-11 1.25845e-10 5e-05 1.46608e-10 
194 1 0.123631 0.0166804 0.00754323 0.00584643 0.000126249 8.85814e-05 -4.15374e-11 2.5226e-10 -1.31885e-10 5e-05 1.46608e-10 
195 1 0.124076 0.0179009 0.007024 0.00559486 4.87335e-05 -0.000142157 -1.63052e-10 4.91038e-10 -9.49749e-11 5e-05 1.46608e-10 
196 1 0.123144 0.0156307 0.00849018 0.00598946 4.23202e-05 -0.000444517 5.98209e-11 1.29999e-10 -1.57411e-10 5e-05 1.46608e-10 
197 1 0.117638 0.017499 0.00714548 0.00570984 0.000181145 0.000166311 -2.71117e-11 -3.42883e-11 2.99497e-11 5e-05 1.46608e-10 
198 1 0.123626 0.0172958 0.00728495 0.00568953 0.000251684 -1.41711e-05 -1.16943e-10 -4.43221e-11 9.80232e-12 5e-05 1.46608e-10 
199 1 0.123692 0.0173294 0.00716132 0.00569573 9.26455e-05 9.72419e-05 -1.95031e-11 6.16852e-11 -1.03811e-10 5e-05 1.46608e-10 
200 1 0.123481 0.0167924 0.00747286 0.00572081 0.000149148 6.74365e-05 -1.36174e-10 -4.62704e-10 2.28055e-10 5e-05 1.46608e-10 
201 1 0.123945 0.0181272 0.00698314 0.00556035 2.67269e-05 -0.000135831 5.69166e-11 2.15276e-11 -1.76663e-11 5e-05 1.46608e-10 
202 1 0.123805 0.0170485 0.00733054 0.00600484 0.000282956 3.72693e-07 1.62368e-10 1.23943e-10 -6.95301e-11 5e-05 1.46608e-10 
203 1 0.129856 0.0173757 0.00723724 0.00577955 0.000762852 0.000215735 -1.18745e-11 1.10447e-10 -1.01521e-10 5e-05 1.46608e-10 
204 1 0.123556 0.0167364 0.00750804 0.00584451 0.000147013 7.73998e-05 -2.92183e-10 -1.4567e-11 2.68721e-12 5e-05 1.46608e-10 
205 1 0.123772 0.0177112 0.00706802 0.00569121 9.56652e-05 -0.000156783 -4.6736e-13 1.69821e-10 -1.12242e-11 5e-05 1.46608e-10 
206 1 0.123808 0.0174549 0.0071222 0.00581446 7.4069e-05 -0.000209418 2.19509e-11 2.38479e-11 -1.35619e-10 5e-05 1.46608e-10 
207 1 0.123453 0.0163138 0.00775491 0.00648721 0.000310048 6.58459e-06 -1.25393e-10 -4.5839e-10 5.00404e-10 5e-05 1.46608e-10 
208 1 0.123768 0.017274 0.00719622 0.00571197 0.000194053 4.04952e-05 -1.6657e-10 1.25665e-10 -8.8922e-13 5e-05 1.46608e-10 
209 1 0.123536 0.0166517 0.00755752 0.00580227 0.000121631 8.9823e-05 -1.3237e-10 -3.69815e-10 1.36381e-10 5e-05 1.46608e-10 
210 1 0.129591 0.0173006 0.00734343 0.00581985 0.000589091 0.000256948 -1.22446e-10 -2.50311e-10 8.35775e-11 5e-05 1.46608e-10 
211 1 0.129761 0.0176496 0.00714128 0.00568565 0.000580109 0.000282963 4.92778e-10 -5.11033e-10 -7.83793e-11 5e-05 1.46608e-10 
212 1 0.123902 0.0174849 0.0071112 0.00580779 6.78791e-05 -0.000269683 4.32528e-11 -2.65098e-12 6.13773e-11 5e-05 1.46608e-10 
213 1 0.129797 0.0169978 0.00735435 0.00571876 0.000746588 0.000216389 3.05776e-10 1.94698e-10 -1.6684e-10 5e-05 1.46608e-10 
214 1 0.129742 0.0175395 0.00717531 0.00564241 0.000594596 0.000259529 1.62143e-10 -1.07367e-10 2.17327e-11 5e-05 1.46608e-10 
215 1 0.117713 0.0174353 0.00716359 0.0057276 0.000201254 0.000163534 -1.20566e-10 -1.0218e-10 6.80959e-11 5e-05 1.46608e-10 
216 1 0.123657 0.0175849 0.00709915 0.0057263 -1.11021e-05 -0.00023982 -1.10897e-10 3.12141e-11 -5.29662e-12 5e-05 1.46608e-10 
217 1 0.129543 0.0163993 0.00792455 0.00617729 0.000168711 -0.000707956 -6.88764e-10 6.68661e-13 5.58907e-11 5e-05 1.46608e-10 
218 1 0.123852 0.0179626 0.00710089 0.00560026 9.13747e-05 -0.000145376 -2.15041e-11 1.65913e-12 2.85968e-11 5e-05 1.46608e-10 
219 1 0.129686 0.01773 0.00715735 0.00572716 0.000491208 -6.41072e-05 -4.73935e-10 3.92275e-10 -4.67585e-10 5e-05 1.46608e-10 
220 1 0.123618 0.0173944 0.00714509 0.00568687 2.23197e-05 -0.00016737 4.49799e-11 1.41325e-10 1.15093e-10 5e-05 1.46608e-10 
221 1 0.117657 0.0171596 0.00725833 0.00566982 -0.000141895 -0.000414277 -2.30042e-10 2.86975e-10 2.12672e-10 5e-05 1.46608e-10 
222 1 0.129565 0.0164676 0.00785471 0.00627783 0.000143674 -0.000690718 -3.49274e-10 -1.699e-10 1.74249e-10 5e-05 1.46608e-10 
223 1 0.12371 0.017019 0.00734529 0.00586996 0.000104828 0.000101142 -1.58179e-10 5.43368e-11 -3.57189e-11 5e-05 1.46608e-10 
224 1 0.12352 0.0169616 0.00737394 0.00590069 0.000135878 8.14574e-05 7.73323e-10 -5.97243e-11 7.16255e-11 5e-05 1.46608e-10 
225 1 0.129764 0.0181212 0.00717251 0.00560031 0.000554154 -0.00103029 7.2447e-11 -2.38123e-11 2.59446e-11 5e-05 1.46608e-10 
226 1 0.124037 0.0177084 0.00706231 0.00569292 0.000145446 -0.000162765 -5.38964e-11 3.30106e-10 -5.67792e-11 5e-05 1.46608e-10 
227 1 0.117773 0.0177219 0.00709674 0.00557571 0.000218408 0.000153642 4.09587e-11 4.88526e-11 1.91657e-11 5e-05 1.46608e-10 
228 1 0.117598 0.0173082 0.00718998 0.00569815 0.000184151 0.000165453 -5.93738e-12 -4.02799e-11 -5.08541e-12 5e-05 1.46608e-10 
229 1 0.123699 0.0176443 0.007168 0.00572576 -2.82576e-05 -0.000226585 4.30902e-12 -1.2569e-11 -5.64893e-11 5e-05 1.46608e-10 
230 1 0.123889 0.0182885 0.00695314 0.00560535 3.14654e-05 -0.000138869 1.35774e-10 -1.488e-10 2.95386e-11 5e-05 1.46608e-10 
231 1 0.117562 0.0171419 0.00728291 0.00561724 2.90676e-05 -0.000512074 2.38606e-10 -8.44239e-11 1.63873e-10 5e-05 1.46608e-10 
232 1 0.123591 0.0165109 0.00764231 0.0063667 0.000660372 -0.000211645 -1.32839e-10 4.43514e-11 -6.67191e-11 5e-05 1.46608e-10 
233 1 0.12367 0.0168496 0.0074443 0.00591221 0.000151256 7.54485e-05 1.2398e-10 3.95749e-11 -3.63259e-11 5e-05 1.46608e-10 
234 1 0.129821 0.0179489 0.00713908 0.00553912 0.000586018 -0.00101732 -1.43457e-11 -1.47175e-11 7.66088e-12 5e-05 1.46608e-10 
235 1 0.123853 0.0185458 0.00690401 0.00564028 -2.10474e-06 -0.000137946 1.64503e-10 -1.20342e-10 1.06192e-10 5e-05 1.46608e-10 
236 1 0.124004 0.0184158 0.00692572 0.00560564 1.87435e-05 -0.000135312 3.01989e-10 -3.12195e-10 5.69571e-11 5e-05 1.46608e-10 
237 1 0.123929 0.0184808 0.00691486 0.00563017 2.02962e-05 -0.000135387 1.87555e-10 -3.4622e-10 4.85873e-11 5e-05 1.46608e-10 
239 1 0.117381 0.016503 0.00789019 0.00605539 -8.42348e-05 -0.00044371 -3.97334e-11 1.39685e-10 -1.25271e-10 5e-05 1.46608e-10 
240 1 0.117445 0.0167152 0.00768815 0.00610466 -7.69517e-05 -0.000454453 -1.25122e-10 1.04695e-10 -9.8484e-11 5e-05 1.46608e-10 
241 1 0.117359 0.0164323 0.00795753 0.00602352 -8.16953e-05 -0.000443531 -5.56991e-11 9.92289e-11 -8.66688e-11 5e-05 1.46608e-10 
242 1 0.123651 0.016765 0.00749376 0.00586972 0.00014714 7.66239e-05 -2.60268e-10 7.61336e-11 -5.04771e-11 5e-05 1.46608e-10 
243 1 0.12362 0.0173872 0.00724481 0.00571517 0.000183163 -0.000164588 -1.81918e-10 3.1463e-11 2.58914e-10 5e-05 1.46608e-10 
244 1 0.117402 0.0165737 0.00782284 0.00606432 -8.82845e-05 -0.000441213 3.2547e-10 3.66328e-11 -5.48393e-11 5e-05 1.46608e-10 
246 1 0.117527 0.0169989 0.00741833 0.0057267 5.14589e-06 -0.000497089 -1.03926e-10 4.23326e-11 -3.93614e-11 5e-05 1.46608e-10 
247 1 0.123792 0.0178075 0.00704886 0.00559205 6.37093e-05 -0.000144594 -1.43039e-10 2.61103e-11 -6.15252e-12 5e-05 1.46608e-10 
248 1 0.123906 0.0179349 0.00702142 0.00559285 7.2751e-05 -0.00014642 -7.76315e-11 -1.91172e-11 5.78679e-13 5e-05 1.46608e-10 