ITEM: TIMESTEP
81000000
ITEM: NUMBER OF ATOMS
267
ITEM: BOX BOUNDS ff ff ff
-0.02 0.43
-0.02 0.06
-0.02 0.07
ITEM: ATOMS id type x y z vx vy vz fx fy fz radius mass 
1 1 0.383991 0.018743 5.17586e-05 7.86969e-19 1.02893e-21 -5.98258e-16 5.16988e-26 -1.29247e-26 0 5e-05 1.46608e-10 
2 1 0.384819 0.0170553 5.28427e-05 -9.20552e-19 6.60336e-21 7.02844e-16 0 -1.11191e-25 0 5e-05 1.46608e-10 
4 1 0.384087 0.0172099 5.18841e-05 -5.84901e-20 8.13612e-21 2.90384e-17 -2.58494e-26 0 0 5e-05 1.46608e-10 
6 1 0.38485 0.0177728 5.2884e-05 4.87157e-19 -8.25217e-22 -3.71584e-16 0 0 0 5e-05 1.46608e-10 
7 1 0.384289 0.0192285 5.21489e-05 2.81054e-18 -1.16101e-21 -2.14593e-15 0 1.94352e-27 0 5e-05 1.46608e-10 
8 1 0.384427 0.0170974 5.23295e-05 2.24033e-18 1.98018e-21 -1.71051e-15 0 -2.24457e-26 0 5e-05 1.46608e-10 
9 1 0.383731 0.0178959 5.14179e-05 2.24032e-18 -1.20555e-21 -1.71052e-15 0 -2.2384e-27 0 5e-05 1.46608e-10 
10 1 0.384909 0.0174916 5.29614e-05 1.79759e-18 2.62943e-21 -1.37249e-15 0 -1.38485e-27 0 5e-05 1.46608e-10 
11 1 0.383705 0.0185838 5.13839e-05 2.81059e-18 5.17854e-21 -2.14593e-15 0 -1.42156e-26 0 5e-05 1.46608e-10 
12 1 0.384274 0.0169453 5.213e-05 2.24035e-18 9.36043e-22 -1.71052e-15 0 -4.15803e-27 0 5e-05 1.46608e-10 
13 1 0.384609 0.0178943 5.25685e-05 7.59324e-13 2.64481e-12 -2.5168e-13 3.15432e-17 -4.83543e-18 3.29274e-17 5e-05 1.46608e-10 
14 1 0.383937 0.0189513 8.69758e-05 5.35495e-19 -8.70113e-22 -4.06398e-16 0 0 2.06795e-25 5e-05 1.46608e-10 
16 1 0.384166 0.0169334 5.1988e-05 2.24036e-18 -1.36092e-22 -1.71052e-15 0 2.04152e-27 0 5e-05 1.46608e-10 
17 1 0.384566 0.0170745 5.25117e-05 2.24033e-18 4.9807e-22 -1.71052e-15 0 -2.13673e-27 0 5e-05 1.46608e-10 
19 1 0.384704 0.0183371 5.2693e-05 1.79761e-18 7.54528e-21 -1.37251e-15 0 -6.86922e-25 0 5e-05 1.46608e-10 
21 1 0.384375 0.0179486 5.22621e-05 1.8317e-12 1.50553e-12 1.03671e-12 9.99963e-18 2.07724e-18 2.37906e-18 5e-05 1.46608e-10 
22 1 0.385006 0.0203197 5.3088e-05 8.71367e-19 2.26424e-20 -6.65298e-16 0 4.55486e-26 0 5e-05 1.46608e-10 
23 1 0.38429 0.0178938 5.21501e-05 -7.63845e-13 8.77267e-14 -2.70368e-13 4.5801e-18 1.79323e-19 2.59411e-18 5e-05 1.46608e-10 
24 1 0.384317 0.0180308 5.21862e-05 -8.16164e-14 3.48314e-14 -3.20307e-14 5.64513e-19 -1.64258e-19 -2.89528e-19 5e-05 1.46608e-10 
25 1 0.384369 0.0166304 5.22533e-05 2.24036e-18 -8.78606e-22 -1.71051e-15 -4.03897e-28 -5.88347e-26 0 5e-05 1.46608e-10 
26 1 0.383765 0.0178016 5.14632e-05 2.24033e-18 -3.01692e-23 -1.71051e-15 0 -1.97007e-27 0 5e-05 1.46608e-10 
27 1 0.384682 0.0173846 0.000130728 -1.23748e-19 1.03891e-22 9.01929e-17 -2.58494e-26 0 0 5e-05 1.46608e-10 
28 1 0.38392 0.0176635 5.16661e-05 2.24033e-18 -4.76033e-22 -1.71052e-15 0 -2.61272e-26 0 5e-05 1.46608e-10 
29 1 0.384334 0.0168628 5.2208e-05 2.24036e-18 1.74575e-21 -1.71052e-15 0 -2.69168e-28 0 5e-05 1.46608e-10 
30 1 0.38458 0.0173478 5.25303e-05 -1.12748e-19 -7.09742e-22 9.02076e-17 5.16988e-26 -1.29247e-26 0 5e-05 1.46608e-10 
31 1 0.384267 0.018175 5.21197e-05 1.63123e-20 -8.89218e-22 -7.47559e-18 0 0 0 5e-05 1.46608e-10 
32 1 0.384809 0.0175939 5.28295e-05 1.03678e-19 4.12764e-21 -7.99273e-17 -5.16988e-26 0 0 5e-05 1.46608e-10 
33 1 0.384554 0.0172495 5.24957e-05 2.24036e-18 -1.31025e-23 -1.71052e-15 4.03897e-28 -3.80212e-28 0 5e-05 1.46608e-10 
34 1 0.38474 0.0177115 5.27396e-05 1.04116e-19 -1.13851e-21 -7.99197e-17 0 0 0 5e-05 1.46608e-10 
35 1 0.383862 0.0177748 5.15892e-05 -2.17251e-19 -4.263e-22 1.69475e-16 0 0 0 5e-05 1.46608e-10 
36 1 0.383928 0.0185154 5.16766e-05 -3.50201e-19 1.14138e-21 2.67381e-16 0 2.83161e-26 0 5e-05 1.46608e-10 
37 1 0.384806 0.0179346 5.28267e-05 1.7976e-18 -5.49022e-21 -1.37251e-15 0 -1.14618e-25 0 5e-05 1.46608e-10 
38 1 0.384295 0.0179641 0.000123125 2.52829e-14 -1.773e-13 -1.75603e-13 -1.30607e-18 -1.04555e-18 -1.74575e-18 5e-05 1.46608e-10 
39 1 0.383664 0.0197976 5.13305e-05 -3.50169e-19 4.98696e-22 2.67381e-16 0 -3.47629e-27 0 5e-05 1.46608e-10 
42 1 0.38332 0.0192284 0.00522714 1.28259e-16 -5.274e-20 3.78515e-14 0 2.73574e-25 0 5e-05 1.46608e-10 
44 1 0.384012 0.018459 5.17866e-05 1.7976e-18 -5.83707e-23 -1.37251e-15 0 -1.47159e-27 0 5e-05 1.46608e-10 
45 1 0.384188 0.017154 5.20161e-05 -3.58576e-20 1.90211e-22 2.90722e-17 0 1.29247e-26 0 5e-05 1.46608e-10 
47 1 0.393265 0.0171105 0.00812098 1.3496e-09 -0.0208897 0.0119806 -1.64632e-19 1.0843e-11 1.89469e-11 5e-05 1.46608e-10 
48 1 0.383611 0.0181742 5.1261e-05 -8.00765e-19 -3.95138e-22 6.08849e-16 0 0 0 5e-05 1.46608e-10 
49 1 0.384194 0.0185569 5.20241e-05 1.79763e-18 -4.68895e-22 -1.37251e-15 0 -1.08042e-25 0 5e-05 1.46608e-10 
50 1 0.384353 0.0181246 5.22331e-05 1.79759e-18 -1.18052e-21 -1.37249e-15 0 -5.19916e-27 0 5e-05 1.46608e-10 
51 1 0.383985 0.019032 5.17502e-05 5.35607e-19 -1.5182e-22 -4.06396e-16 0 0 0 5e-05 1.46608e-10 
52 1 0.38427 0.0217777 5.21238e-05 2.00504e-18 -1.85122e-21 -1.5309e-15 0 -1.85418e-26 0 5e-05 1.46608e-10 
53 1 0.3849 0.0167228 5.29491e-05 2.24032e-18 -8.73758e-22 -1.71052e-15 0 -2.09456e-25 0 5e-05 1.46608e-10 
54 1 0.384094 0.0196551 5.18938e-05 2.81054e-18 2.24717e-22 -2.14593e-15 0 -5.18079e-27 0 5e-05 1.46608e-10 
55 1 0.383596 0.0188939 5.12421e-05 2.81058e-18 1.15313e-21 -2.14593e-15 0 9.68786e-27 0 5e-05 1.46608e-10 
56 1 0.384074 0.0171039 5.18678e-05 -3.79707e-20 -9.28075e-21 2.90776e-17 -2.58494e-26 2.58494e-26 0 5e-05 1.46608e-10 
57 1 0.38361 0.0192266 5.12599e-05 -3.50216e-19 1.96599e-21 2.67381e-16 0 6.82848e-27 0 5e-05 1.46608e-10 
59 1 0.378022 0.019866 0.005332 -5.0194e-15 -7.4121e-15 7.69802e-14 -3.65769e-24 -3.02438e-24 -6.20385e-25 5e-05 1.46608e-10 
60 1 0.384997 0.0170277 5.3077e-05 2.24032e-18 1.15982e-20 -1.71052e-15 0 6.31134e-26 0 5e-05 1.46608e-10 
62 1 0.384469 0.0166233 5.23854e-05 2.24036e-18 -2.93202e-21 -1.71052e-15 0 6.28551e-26 0 5e-05 1.46608e-10 
63 1 0.385119 0.0166834 5.32362e-05 2.24034e-18 5.06697e-21 -1.71052e-15 0 1.46616e-25 0 5e-05 1.46608e-10 
64 1 0.383572 0.0182666 5.12106e-05 1.7976e-18 -1.04719e-22 -1.37249e-15 4.03897e-28 4.84112e-27 0 5e-05 1.46608e-10 
65 1 0.38415 0.0174668 5.19668e-05 2.24034e-18 -1.15931e-20 -1.71052e-15 0 1.60092e-25 0 5e-05 1.46608e-10 
66 1 0.384314 0.0196963 5.21813e-05 -3.5018e-19 -1.41439e-20 2.67381e-16 0 -9.0497e-26 0 5e-05 1.46608e-10 
67 1 0.38401 0.0186182 5.17838e-05 -3.50192e-19 1.352e-21 2.67382e-16 0 3.15146e-26 0 5e-05 1.46608e-10 
68 1 0.384443 0.0179216 0.000120816 8.54138e-13 -1.27779e-11 -1.17071e-12 5.20401e-17 8.7848e-18 5.46587e-18 5e-05 1.46608e-10 
69 1 0.383601 0.0187724 5.12477e-05 2.81056e-18 -2.55714e-21 -2.14593e-15 -4.03897e-28 1.90983e-26 0 5e-05 1.46608e-10 
70 1 0.383695 0.0199014 5.13714e-05 -3.50211e-19 2.25389e-21 2.67381e-16 0 -5.97079e-26 0 5e-05 1.46608e-10 
71 1 0.383708 0.0192011 5.13883e-05 2.81059e-18 3.68077e-22 -2.14593e-15 0 -1.32607e-26 0 5e-05 1.46608e-10 
72 1 0.383848 0.0178769 5.15715e-05 -2.22437e-19 8.731e-22 1.69475e-16 0 0 0 5e-05 1.46608e-10 
73 1 0.384751 0.0204726 5.27548e-05 2.00504e-18 2.56675e-23 -1.5309e-15 0 6.495e-27 0 5e-05 1.46608e-10 
74 1 0.384789 0.0203241 5.2804e-05 8.71357e-19 3.58295e-22 -6.65298e-16 0 -9.32677e-26 0 5e-05 1.46608e-10 
76 1 0.384148 0.0172907 5.19645e-05 2.24034e-18 2.87358e-22 -1.71052e-15 0 6.81255e-28 0 5e-05 1.46608e-10 
77 1 0.384899 0.0180553 5.29479e-05 1.7976e-18 1.1215e-21 -1.37249e-15 0 2.74104e-26 0 5e-05 1.46608e-10 
78 1 0.384454 0.0177342 5.23646e-05 2.24034e-18 1.72566e-22 -1.71052e-15 0 2.14491e-26 0 5e-05 1.46608e-10 
79 1 0.384159 0.0206443 5.19783e-05 2.00508e-18 3.74019e-21 -1.5309e-15 0 7.90941e-26 0 5e-05 1.46608e-10 
80 1 0.383985 0.017428 5.1751e-05 2.24036e-18 9.2324e-22 -1.71051e-15 0 5.55198e-26 0 5e-05 1.46608e-10 
82 1 0.384471 0.0161368 5.23876e-05 2.24034e-18 7.8253e-21 -1.71051e-15 0 -4.31683e-26 0 5e-05 1.46608e-10 
83 1 0.384894 0.0205458 5.29418e-05 2.00506e-18 4.20874e-22 -1.5309e-15 0 -1.14525e-26 0 5e-05 1.46608e-10 
84 1 0.383993 0.0188764 5.17615e-05 5.32343e-19 -6.61987e-21 -4.06404e-16 0 0 0 5e-05 1.46608e-10 
85 1 0.383849 0.0193448 5.15725e-05 1.03568e-19 -3.96662e-22 -8.03914e-17 0 0 0 5e-05 1.46608e-10 
86 1 0.383935 0.0179283 5.16858e-05 -9.20516e-19 4.06844e-22 7.02843e-16 0 -5.22249e-27 0 5e-05 1.46608e-10 
87 1 0.384931 0.0175954 5.29902e-05 1.7976e-18 7.40352e-22 -1.37249e-15 -4.03897e-28 -3.64494e-26 0 5e-05 1.46608e-10 
88 1 0.383272 0.0191349 0.0052273 1.28258e-16 -1.05602e-21 3.78515e-14 0 -3.63196e-27 0 5e-05 1.46608e-10 
89 1 0.38382 0.0176837 5.15355e-05 2.24031e-18 -3.6201e-22 -1.71051e-15 0 -6.41351e-26 0 5e-05 1.46608e-10 
90 1 0.384046 0.0179367 5.18308e-05 2.24031e-18 1.43729e-21 -1.71052e-15 0 5.65374e-27 0 5e-05 1.46608e-10 
91 1 0.384723 0.0172283 5.27177e-05 2.24035e-18 8.17752e-22 -1.71052e-15 0 5.09668e-27 0 5e-05 1.46608e-10 
92 1 0.384191 0.017054 5.20202e-05 -9.20535e-19 -1.93832e-22 7.02843e-16 0 -2.0038e-26 0 5e-05 1.46608e-10 
93 1 0.383736 0.0207666 5.1425e-05 -1.15569e-18 2.62499e-21 8.82406e-16 0 -3.75803e-26 0 5e-05 1.46608e-10 
94 1 0.383683 0.0188356 5.13558e-05 -3.50222e-19 -2.71095e-21 2.67383e-16 0 -1.69999e-25 0 5e-05 1.46608e-10 
95 1 0.384606 0.0176837 5.25637e-05 4.82669e-19 2.47659e-21 -3.71584e-16 0 0 0 5e-05 1.46608e-10 
96 1 0.38444 0.0183063 5.23472e-05 1.79764e-18 -2.73616e-23 -1.37251e-15 0 1.08484e-29 0 5e-05 1.46608e-10 
98 1 0.383724 0.0194164 5.14094e-05 -3.50193e-19 -9.15723e-22 2.67382e-16 0 2.92793e-26 0 5e-05 1.46608e-10 
99 1 0.384303 0.0183686 5.21674e-05 1.79758e-18 -1.85682e-21 -1.37249e-15 0 4.04038e-26 0 5e-05 1.46608e-10 
100 1 0.384848 0.0173718 5.28812e-05 2.24034e-18 -4.28324e-21 -1.71052e-15 0 4.25553e-29 0 5e-05 1.46608e-10 
101 1 0.384322 0.0214999 5.21918e-05 2.00507e-18 1.52115e-20 -1.5309e-15 0 3.51117e-26 0 5e-05 1.46608e-10 
102 1 0.0643568 0.0187248 0.00531097 4.19841e-15 1.05324e-14 8.29593e-14 1.67805e-21 -2.26725e-22 -5.93502e-23 5e-05 1.46608e-10 
103 1 0.24257 0.0191927 0.00520306 1.19201e-22 4.86658e-23 -5.81428e-22 0 0 0 5e-05 1.46608e-10 
104 1 0.384443 0.0190455 5.23502e-05 -3.50204e-19 1.98721e-21 2.67381e-16 0 3.41798e-27 0 5e-05 1.46608e-10 
105 1 0.384764 0.0176468 0.000125094 1.16287e-19 3.1323e-21 -7.99347e-17 2.58494e-26 0 -2.06795e-25 5e-05 1.46608e-10 
106 1 0.383893 0.0187182 5.16305e-05 7.79813e-19 3.00793e-21 -5.98255e-16 0 0 0 5e-05 1.46608e-10 
107 1 0.385147 0.0177812 0.000122873 -8.24881e-21 -3.69163e-21 -2.81824e-21 0 1.29247e-26 0 5e-05 1.46608e-10 
108 1 0.383662 0.0180867 5.13271e-05 -7.97965e-19 3.64882e-21 6.0885e-16 0 0 0 5e-05 1.46608e-10 
109 1 0.384177 0.0192838 5.20024e-05 2.81057e-18 -1.19077e-20 -2.14593e-15 0 1.34334e-25 0 5e-05 1.46608e-10 
110 1 0.384493 0.0193015 5.24162e-05 2.81055e-18 1.48495e-22 -2.14593e-15 4.03897e-28 -7.36662e-28 0 5e-05 1.46608e-10 
111 1 0.384709 0.0176058 5.26985e-05 1.06285e-19 -1.17207e-21 -7.99326e-17 0 0 0 5e-05 1.46608e-10 
112 1 0.384647 0.0185896 5.26184e-05 1.79764e-18 -1.62678e-21 -1.37251e-15 0 -6.85732e-26 0 5e-05 1.46608e-10 
113 1 0.383921 0.0178347 0.00010527 -2.16773e-19 1.59099e-20 1.69474e-16 -1.03398e-25 -1.29247e-26 0 5e-05 1.46608e-10 
114 1 0.384105 0.0183256 5.19082e-05 1.79758e-18 9.46881e-21 -1.37249e-15 0 -1.15931e-25 0 5e-05 1.46608e-10 
115 1 0.38367 0.0183173 5.13384e-05 1.79759e-18 -8.83798e-22 -1.37251e-15 0 -9.48364e-27 0 5e-05 1.46608e-10 
116 1 0.383786 0.0180677 5.14897e-05 2.24037e-18 -6.43161e-22 -1.71052e-15 0 1.5806e-26 0 5e-05 1.46608e-10 
117 1 0.384446 0.0168712 5.23543e-05 -9.12801e-19 -3.34388e-21 7.02812e-16 2.01948e-25 -7.75482e-26 0 5e-05 1.46608e-10 
118 1 0.383701 0.0187017 5.13793e-05 -3.50203e-19 1.5016e-22 2.67381e-16 0 -7.90463e-27 0 5e-05 1.46608e-10 
119 1 0.383906 0.018619 5.16476e-05 7.8421e-19 4.53956e-22 -5.98253e-16 0 0 0 5e-05 1.46608e-10 
120 1 0.384144 0.01791 5.19592e-05 1.26039e-14 -1.23945e-14 -8.45562e-15 2.42096e-19 -5.46232e-20 -1.40615e-19 5e-05 1.46608e-10 
121 1 0.384817 0.0185465 5.28405e-05 1.79761e-18 -2.51301e-21 -1.37251e-15 0 1.49132e-25 0 5e-05 1.46608e-10 
122 1 0.384225 0.0179695 5.20647e-05 5.72796e-14 6.99345e-14 -8.82159e-14 -3.50618e-19 -6.21311e-19 -3.49547e-19 5e-05 1.46608e-10 
123 1 0.383933 0.0192279 5.16831e-05 1.05166e-19 1.69293e-21 -8.03881e-17 0 0 0 5e-05 1.46608e-10 
124 1 0.384096 0.0170045 5.18952e-05 -2.68835e-21 -7.37433e-21 -4.17044e-19 5.16988e-26 0 0 5e-05 1.46608e-10 
125 1 0.384626 0.016764 5.25911e-05 2.24037e-18 5.7871e-21 -1.71052e-15 0 8.59247e-26 0 5e-05 1.46608e-10 
127 1 0.384295 0.018231 0.000129802 1.54118e-20 1.36221e-20 -7.47673e-18 0 0 0 5e-05 1.46608e-10 
128 1 0.384383 0.0169852 5.22722e-05 -9.20548e-19 -5.39924e-22 7.02842e-16 0 7.69521e-28 0 5e-05 1.46608e-10 
129 1 0.383806 0.0179676 5.15164e-05 -2.25498e-19 -4.21556e-21 1.69475e-16 0 0 0 5e-05 1.46608e-10 
130 1 0.383859 0.0175842 5.15859e-05 2.24034e-18 8.28265e-22 -1.71052e-15 4.03897e-28 4.44887e-28 0 5e-05 1.46608e-10 
131 1 0.38345 0.0177196 0.00536012 -4.59753e-17 2.71465e-14 8.96766e-14 1.71123e-23 2.18686e-23 -6.82424e-24 5e-05 1.46608e-10 
132 1 0.384418 0.0164926 5.23174e-05 2.24032e-18 -1.3598e-22 -1.71052e-15 0 2.97663e-26 0 5e-05 1.46608e-10 
133 1 0.383591 0.0185347 5.12355e-05 -3.50183e-19 -7.20402e-21 2.67382e-16 0 -3.35822e-25 0 5e-05 1.46608e-10 
134 1 0.383574 0.0183691 5.12127e-05 2.81057e-18 8.70474e-22 -2.14593e-15 0 2.18588e-26 0 5e-05 1.46608e-10 
135 1 0.383667 0.0199993 5.13343e-05 2.81058e-18 2.4374e-22 -2.14593e-15 0 8.6508e-27 0 5e-05 1.46608e-10 
136 1 0.384475 0.0176309 5.23931e-05 -9.20543e-19 -1.76091e-20 7.02843e-16 0 -7.37073e-26 0 5e-05 1.46608e-10 
137 1 0.383925 0.0184105 5.16721e-05 1.79756e-18 -3.70616e-24 -1.37249e-15 0 -7.76943e-29 0 5e-05 1.46608e-10 
138 1 0.384418 0.0178531 5.23181e-05 -3.27159e-12 -2.14812e-12 -1.40173e-12 8.65656e-18 2.93708e-18 2.18831e-18 5e-05 1.46608e-10 
140 1 0.384798 0.0171606 5.28155e-05 2.24033e-18 7.97867e-22 -1.71052e-15 0 9.09984e-26 0 5e-05 1.46608e-10 
141 1 0.384313 0.0171449 5.21807e-05 2.24036e-18 -1.7255e-21 -1.71052e-15 0 1.6043e-25 0 5e-05 1.46608e-10 
142 1 0.385769 0.0165473 5.40881e-05 1.45281e-18 5.55752e-21 -1.10923e-15 0 -2.08344e-26 0 5e-05 1.46608e-10 
143 1 0.384333 0.0177947 5.22067e-05 -5.14647e-19 2.26645e-21 3.87842e-16 0 -2.58494e-26 0 5e-05 1.46608e-10 
144 1 0.384385 0.0195542 5.22753e-05 -3.50179e-19 5.19854e-21 2.67381e-16 0 1.72548e-25 0 5e-05 1.46608e-10 
146 1 0.384085 0.018684 5.18824e-05 2.81058e-18 1.15651e-21 -2.14593e-15 0 6.77881e-27 0 5e-05 1.46608e-10 
147 1 0.384719 0.0170987 5.27125e-05 2.24033e-18 4.09776e-22 -1.71052e-15 0 -3.91561e-25 0 5e-05 1.46608e-10 
148 1 0.383894 0.0174902 5.16321e-05 2.24034e-18 1.1687e-21 -1.71052e-15 0 -1.78543e-26 0 5e-05 1.46608e-10 
149 1 0.384744 0.0173967 5.27447e-05 -1.20639e-19 -2.34937e-21 9.01872e-17 0 0 0 5e-05 1.46608e-10 
150 1 0.383756 0.0184867 5.14508e-05 2.81058e-18 -5.06858e-21 -2.14593e-15 0 7.92761e-26 0 5e-05 1.46608e-10 
151 1 0.384727 0.0201861 5.27225e-05 8.71342e-19 -4.60963e-21 -6.65298e-16 0 8.87581e-26 0 5e-05 1.46608e-10 
153 1 0.384074 0.0170516 0.000137426 -4.85639e-21 -7.88369e-21 -1.28546e-20 5.16988e-26 3.23117e-26 -1.01378e-25 5e-05 1.46608e-10 
154 1 0.384584 0.0177681 0.000101539 4.88539e-19 5.04222e-21 -3.71591e-16 0 -3.87741e-26 0 5e-05 1.46608e-10 
155 1 0.384544 0.0163094 5.24825e-05 -9.2054e-19 -2.95162e-21 7.02844e-16 -4.03897e-28 3.05575e-25 0 5e-05 1.46608e-10 
156 1 0.384233 0.0168376 5.20754e-05 2.24032e-18 -5.34057e-22 -1.71051e-15 0 -2.70733e-28 0 5e-05 1.46608e-10 
157 1 0.0219312 0.0187687 0.00551176 -3.82696e-14 8.1673e-14 2.95894e-13 7.17036e-22 6.37446e-23 6.01774e-23 5e-05 1.46608e-10 
158 1 0.384319 0.0167636 5.21878e-05 2.24033e-18 -3.29949e-20 -1.71052e-15 0 7.53317e-25 0 5e-05 1.46608e-10 
159 1 0.384228 0.0177075 5.20694e-05 -5.11283e-19 7.92128e-21 3.87837e-16 -2.58494e-26 0 2.06795e-25 5e-05 1.46608e-10 
160 1 0.38353 0.0176621 0.00537757 3.41335e-17 2.72485e-14 8.96457e-14 -1.1839e-23 -1.5096e-23 4.54949e-24 5e-05 1.46608e-10 
162 1 0.38396 0.0191288 5.17179e-05 -3.50203e-19 -1.73757e-23 2.6738e-16 0 -4.71041e-27 0 5e-05 1.46608e-10 
165 1 0.384146 0.0189135 5.19615e-05 -3.50208e-19 -1.28613e-22 2.6738e-16 0 1.38883e-27 0 5e-05 1.46608e-10 
166 1 0.384895 0.0168866 5.2943e-05 -9.20558e-19 -3.5386e-21 7.02845e-16 0 4.67091e-25 0 5e-05 1.46608e-10 
167 1 0.384921 0.0196039 5.29764e-05 8.71333e-19 4.20905e-20 -6.65297e-16 0 -1.74147e-25 0 5e-05 1.46608e-10 
168 1 0.383956 0.019484 5.17133e-05 2.81058e-18 -6.58193e-22 -2.14593e-15 0 4.64598e-27 0 5e-05 1.46608e-10 
169 1 0.383755 0.019009 5.14493e-05 2.81059e-18 1.78773e-21 -2.14593e-15 0 8.09866e-27 0 5e-05 1.46608e-10 
170 1 0.383888 0.0184727 0.00523166 6.88133e-16 -4.5769e-15 -5.98175e-14 -5.94536e-25 2.32645e-25 0 5e-05 1.46608e-10 
171 1 0.384004 0.0193816 5.17764e-05 2.8106e-18 -4.12486e-22 -2.14593e-15 0 7.3477e-26 0 5e-05 1.46608e-10 
172 1 0.384121 0.0171522 0.000126213 -5.48453e-20 2.75837e-20 2.90774e-17 0 5.16988e-26 0 5e-05 1.46608e-10 
173 1 0.384268 0.0190399 5.21214e-05 -3.50223e-19 -1.43273e-20 2.67381e-16 0 -1.4917e-26 0 5e-05 1.46608e-10 
174 1 0.384105 0.0178224 7.97669e-05 -9.91932e-15 -1.74395e-15 -4.00513e-15 1.07479e-20 -7.48392e-21 -1.16563e-19 5e-05 1.46608e-10 
176 1 0.384124 0.018008 5.19332e-05 5.6106e-15 3.89443e-16 -7.91064e-16 4.18445e-20 9.10943e-21 -2.85584e-20 5e-05 1.46608e-10 
177 1 0.38435 0.018262 5.22293e-05 1.45743e-20 -2.15755e-22 -7.47398e-18 0 0 0 5e-05 1.46608e-10 
178 1 0.384053 0.0189567 5.184e-05 2.81055e-18 -4.85148e-22 -2.14593e-15 0 7.24427e-28 0 5e-05 1.46608e-10 
179 1 0.3843 0.0186551 5.2163e-05 1.79764e-18 -2.18397e-22 -1.37251e-15 0 1.36368e-25 0 5e-05 1.46608e-10 
182 1 0.384992 0.0180145 5.30695e-05 1.7976e-18 -8.06609e-22 -1.37251e-15 0 9.19242e-27 0 5e-05 1.46608e-10 
183 1 0.386759 0.0152483 5.53836e-05 1.45281e-18 2.64798e-21 -1.10923e-15 0 1.05324e-25 0 5e-05 1.46608e-10 
184 1 0.383617 0.019327 5.12691e-05 2.81056e-18 -1.57098e-22 -2.14593e-15 0 -3.14139e-27 0 5e-05 1.46608e-10 
185 1 0.384403 0.0192492 5.22987e-05 -3.50171e-19 -1.78214e-21 2.67381e-16 0 -6.20377e-26 0 5e-05 1.46608e-10 
186 1 0.384249 0.018274 5.20972e-05 1.14818e-20 -3.40683e-22 -7.47483e-18 0 0 0 5e-05 1.46608e-10 
187 1 0.38373 0.0197118 5.14173e-05 -3.50217e-19 -1.22107e-21 2.67381e-16 0 3.65057e-26 0 5e-05 1.46608e-10 
188 1 0.385076 0.0179467 5.31802e-05 1.79757e-18 -2.32192e-20 -1.37249e-15 0 8.42352e-26 0 5e-05 1.46608e-10 
189 1 0.38396 0.0177554 5.17178e-05 2.24036e-18 1.27331e-21 -1.71051e-15 0 -3.01066e-27 0 5e-05 1.46608e-10 
190 1 0.383867 0.0210849 5.15964e-05 -1.15568e-18 -1.38785e-21 8.82406e-16 0 3.22151e-25 0 5e-05 1.46608e-10 
191 1 0.384706 0.0184769 5.26952e-05 1.79759e-18 2.1892e-22 -1.37249e-15 0 -4.13676e-26 0 5e-05 1.46608e-10 
192 1 0.384023 0.0181084 5.1801e-05 5.31943e-15 -5.23004e-15 -2.42192e-15 2.19177e-21 -8.82679e-21 1.26509e-20 5e-05 1.46608e-10 
193 1 0.383672 0.0184195 5.13415e-05 -3.50202e-19 2.04661e-21 2.67382e-16 0 2.76759e-26 0 5e-05 1.46608e-10 
194 1 0.384122 0.0182248 5.1931e-05 1.79757e-18 -2.30886e-20 -1.37249e-15 0 5.28404e-26 0 5e-05 1.46608e-10 
195 1 0.383967 0.0181955 5.17273e-05 1.79759e-18 1.16831e-22 -1.37251e-15 0 -3.98602e-26 0 5e-05 1.46608e-10 
196 1 0.384122 0.0181236 5.19307e-05 1.7976e-18 -3.05439e-23 -1.37249e-15 0 -6.62957e-28 0 5e-05 1.46608e-10 
197 1 0.383676 0.0181534 0.000124512 -8.10414e-19 2.14876e-21 6.08853e-16 0 0 0 5e-05 1.46608e-10 
198 1 0.383816 0.019228 5.15292e-05 1.08955e-19 8.20712e-23 -8.03862e-17 0 0 0 5e-05 1.46608e-10 
199 1 0.38465 0.0174377 5.26211e-05 -1.20104e-19 -2.0475e-21 9.01927e-17 0 0 0 5e-05 1.46608e-10 
200 1 0.3851 0.0177266 5.32113e-05 -5.63914e-22 3.18074e-21 1.10769e-20 0 0 0 5e-05 1.46608e-10 
201 1 0.385006 0.0158243 5.30884e-05 1.45283e-18 -7.30754e-22 -1.10923e-15 0 1.74761e-26 0 5e-05 1.46608e-10 
202 1 0.385094 0.0174355 5.32031e-05 1.79762e-18 4.00467e-22 -1.37251e-15 0 3.85634e-27 0 5e-05 1.46608e-10 
203 1 0.384504 0.0179623 5.24301e-05 -5.3076e-13 -3.67553e-12 4.58176e-13 2.73964e-17 -1.42544e-17 -4.62243e-18 5e-05 1.46608e-10 
204 1 0.384109 0.0184302 5.19127e-05 1.79763e-18 -8.15784e-22 -1.37251e-15 -4.03897e-28 3.10156e-26 0 5e-05 1.46608e-10 
205 1 0.384524 0.0174713 5.24569e-05 2.24035e-18 6.26728e-21 -1.71052e-15 0 -1.08805e-25 0 5e-05 1.46608e-10 
206 1 0.38435 0.0178614 0.000125081 -6.06886e-12 -7.36417e-13 -1.73285e-12 2.04135e-17 4.40102e-18 1.37995e-17 5e-05 1.46608e-10 
207 1 0.385023 0.0181691 5.31107e-05 1.79763e-18 2.22558e-22 -1.37251e-15 -4.03897e-28 -2.14366e-27 0 5e-05 1.46608e-10 
208 1 0.385037 0.0175739 5.31289e-05 1.7976e-18 2.01331e-22 -1.37249e-15 0 -2.64078e-26 0 5e-05 1.46608e-10 
209 1 0.383886 0.018028 5.16209e-05 1.13958e-16 -1.06438e-15 6.54217e-16 1.45245e-20 1.2662e-21 5.39012e-21 5e-05 1.46608e-10 
210 1 0.384526 0.016716 5.24592e-05 2.24033e-18 -7.69912e-21 -1.71051e-15 0 5.23958e-26 0 5e-05 1.46608e-10 
211 1 0.384505 0.0171609 5.24316e-05 2.24034e-18 9.39508e-21 -1.71052e-15 -4.03897e-28 -8.8425e-26 0 5e-05 1.46608e-10 
212 1 0.383978 0.0185238 0.00522879 -2.82523e-15 1.87927e-14 2.4561e-13 3.23117e-25 0 0 5e-05 1.46608e-10 
213 1 0.383846 0.0191172 5.15692e-05 2.81056e-18 -2.68917e-21 -2.14593e-15 0 -2.44682e-26 0 5e-05 1.46608e-10 
214 1 0.384625 0.017537 5.25895e-05 9.60529e-20 -3.22112e-21 -7.992e-17 0 0 0 5e-05 1.46608e-10 
215 1 0.385553 0.0152374 5.38047e-05 1.45283e-18 -2.36804e-21 -1.10923e-15 0 -7.63032e-27 0 5e-05 1.46608e-10 
217 1 0.384411 0.0184417 5.23083e-05 1.7976e-18 -7.07914e-22 -1.37251e-15 0 7.16412e-26 0 5e-05 1.46608e-10 
218 1 0.384302 0.0165156 5.21656e-05 -9.20545e-19 -6.9017e-21 7.02843e-16 0 1.30683e-25 0 5e-05 1.46608e-10 
219 1 0.384399 0.0186101 5.22929e-05 1.79759e-18 8.84233e-21 -1.37251e-15 0 1.04817e-25 0 5e-05 1.46608e-10 
220 1 0.384943 0.0187045 5.30057e-05 1.79763e-18 -2.20243e-23 -1.37251e-15 0 -1.27066e-26 0 5e-05 1.46608e-10 
222 1 0.384205 0.0180675 5.20391e-05 -2.84053e-15 -3.48989e-14 -3.23046e-15 -5.92099e-20 1.05157e-19 -2.37653e-19 5e-05 1.46608e-10 
224 1 0.384058 0.0177382 5.18467e-05 -6.20824e-15 5.59061e-15 -8.14171e-16 -4.31214e-20 1.3354e-19 -5.31914e-20 5e-05 1.46608e-10 
225 1 0.384811 0.0174713 5.28328e-05 1.14876e-19 1.7446e-22 -7.99125e-17 0 0 0 5e-05 1.46608e-10 
226 1 0.383884 0.0196254 5.16191e-05 -3.50221e-19 -1.47544e-21 2.67381e-16 -4.03897e-28 -4.33591e-26 0 5e-05 1.46608e-10 
227 1 0.384574 0.0160758 5.25222e-05 2.24034e-18 -1.58713e-20 -1.71052e-15 0 -1.87306e-26 0 5e-05 1.46608e-10 
228 1 0.384056 0.0180406 0.000117497 -6.33056e-15 8.12846e-15 -3.1779e-15 4.16599e-20 -8.92585e-21 4.21546e-20 5e-05 1.46608e-10 
229 1 0.384183 0.0194731 5.201e-05 -3.50168e-19 -3.05688e-22 2.67382e-16 0 8.88159e-26 0 5e-05 1.46608e-10 
230 1 0.385084 0.0171004 5.31901e-05 -9.2052e-19 6.20041e-24 7.02844e-16 0 -3.18443e-26 0 5e-05 1.46608e-10 
232 1 0.38345 0.0186594 0.00522432 -5.74109e-14 4.09652e-19 -1.77479e-13 -5.16988e-26 -3.23217e-23 -2.06795e-25 5e-05 1.46608e-10 
233 1 0.384483 0.016964 5.24031e-05 -9.28089e-19 2.47515e-21 7.02812e-16 -2.03564e-25 7.10858e-26 0 5e-05 1.46608e-10 
234 1 0.384564 0.0189811 5.25095e-05 -3.50169e-19 -1.88437e-21 2.67382e-16 0 2.14076e-26 0 5e-05 1.46608e-10 
235 1 0.385129 0.0178507 5.32485e-05 1.11177e-22 -8.43281e-22 -2.2895e-21 0 -2.58494e-26 0 5e-05 1.46608e-10 
236 1 0.385096 0.0164501 5.32056e-05 -9.20533e-19 -1.28688e-20 7.02842e-16 0 -1.90353e-25 0 5e-05 1.46608e-10 
237 1 0.383933 0.0187648 0.000130442 7.70011e-19 4.4561e-21 -5.98258e-16 -2.58494e-26 0 0 5e-05 1.46608e-10 
239 1 0.384687 0.0169933 5.26707e-05 2.24036e-18 -1.10759e-22 -1.71051e-15 0 3.1635e-27 0 5e-05 1.46608e-10 
240 1 0.384262 0.0177729 0.000119547 -5.16256e-19 -2.78289e-21 3.87835e-16 2.58494e-26 0 -2.06795e-25 5e-05 1.46608e-10 
241 1 0.384801 0.0166583 5.28192e-05 2.24036e-18 1.29327e-21 -1.71051e-15 0 -1.74758e-26 0 5e-05 1.46608e-10 
242 1 0.383909 0.0188216 5.16519e-05 7.81515e-19 2.28287e-21 -5.98258e-16 0 0 0 5e-05 1.46608e-10 
243 1 0.38439 0.0209101 5.22816e-05 2.00503e-18 -3.1215e-20 -1.5309e-15 0 1.72133e-25 0 5e-05 1.46608e-10 
244 1 0.384493 0.0173689 9.64047e-05 -1.24968e-19 -3.22774e-21 9.02055e-17 0 0 0 5e-05 1.46608e-10 
246 1 0.38382 0.0188681 5.15345e-05 -3.50221e-19 -3.68855e-23 2.6738e-16 0 -3.74457e-27 0 5e-05 1.46608e-10 
247 1 0.384541 0.017902 0.000125062 -2.70167e-11 -1.0074e-10 -5.56182e-12 -7.61855e-18 -1.57555e-17 7.2104e-17 5e-05 1.46608e-10 
248 1 0.383639 0.0189866 5.12974e-05 -3.50197e-19 3.12411e-22 2.67381e-16 0 3.19541e-26 0 5e-05 1.46608e-10 
249 1 0.38453 0.020178 5.24643e-05 8.7136e-19 2.44881e-22 -6.65297e-16 0 -8.77256e-26 0 5e-05 1.46608e-10 
250 1 0.384661 0.0178084 5.26366e-05 4.86817e-19 2.36597e-22 -3.71585e-16 0 0 0 5e-05 1.46608e-10 
251 1 0.384005 0.0178448 5.17769e-05 -2.22226e-19 4.00842e-22 1.69483e-16 1.03398e-25 1.29247e-26 0 5e-05 1.46608e-10 
252 1 0.384145 0.0205426 5.19607e-05 8.71337e-19 -4.89407e-21 -6.65298e-16 0 1.19544e-25 0 5e-05 1.46608e-10 
253 1 0.383856 0.0203056 5.15822e-05 2.81055e-18 -9.32221e-22 -2.14593e-15 0 3.22499e-25 0 5e-05 1.46608e-10 
254 1 0.38515 0.0175249 5.32762e-05 1.79759e-18 -6.10411e-21 -1.37249e-15 0 4.62693e-26 0 5e-05 1.46608e-10 
255 1 0.383703 0.0182157 5.13821e-05 -7.98206e-19 1.93859e-21 6.08848e-16 0 0 0 5e-05 1.46608e-10 
256 1 0.384352 0.0191511 5.22319e-05 -3.50213e-19 6.1562e-22 2.67382e-16 0 3.79469e-27 0 5e-05 1.46608e-10 
257 1 0.384531 0.0168171 5.24664e-05 2.24033e-18 8.62429e-24 -1.71051e-15 0 1.4096e-28 0 5e-05 1.46608e-10 
258 1 0.383662 0.0204201 5.13284e-05 -5.14035e-22 1.92672e-23 1.03396e-21 0 0 0 5e-05 1.46608e-10 
259 1 0.384524 0.0216685 5.24571e-05 2.00508e-18 -8.29487e-21 -1.5309e-15 0 -5.99824e-26 0 5e-05 1.46608e-10 
260 1 0.384677 0.0173224 5.2657e-05 -1.21792e-19 -5.27832e-23 9.01939e-17 0 2.58494e-26 0 5e-05 1.46608e-10 
261 1 0.383833 0.0185505 5.15522e-05 -3.50169e-19 7.63729e-23 2.67381e-16 0 -1.42305e-27 0 5e-05 1.46608e-10 
262 1 0.384455 0.0172873 5.2367e-05 -1.15368e-19 -2.9755e-21 9.02008e-17 0 0 0 5e-05 1.46608e-10 
263 1 0.384148 0.018808 5.1965e-05 -3.50194e-19 2.28709e-20 2.67382e-16 0 -4.69058e-25 0 5e-05 1.46608e-10 
264 1 0.383874 0.0192744 0.000117813 9.95276e-20 3.14243e-21 -8.03892e-17 0 0 0 5e-05 1.46608e-10 
265 1 0.384664 0.0180562 5.26402e-05 1.79761e-18 -6.01321e-22 -1.37251e-15 0 5.09744e-26 0 5e-05 1.46608e-10 
266 1 0.383681 0.0195344 5.13528e-05 -3.50184e-19 1.9578e-21 2.67382e-16 0 -1.64141e-26 0 5e-05 1.46608e-10 
267 1 0.384035 0.0173399 5.18167e-05 2.24033e-18 1.27746e-22 -1.71052e-15 0 -6.72381e-28 0 5e-05 1.46608e-10 
268 1 0.384513 0.0181523 5.24423e-05 1.79763e-18 -8.02525e-21 -1.37251e-15 4.03897e-28 -8.0136e-26 0 5e-05 1.46608e-10 
269 1 0.383985 0.018016 5.17508e-05 1.72723e-15 6.09976e-16 1.02634e-15 6.01077e-20 -1.53708e-20 -1.94466e-20 5e-05 1.46608e-10 
270 1 0.384204 0.0178183 5.2038e-05 -5.07274e-19 1.34239e-21 3.87841e-16 0 0 0 5e-05 1.46608e-10 
271 1 0.384204 0.0183848 5.20381e-05 1.79764e-18 9.40141e-22 -1.37251e-15 0 -2.96062e-27 0 5e-05 1.46608e-10 
272 1 0.384044 0.0177752 0.000143609 -1.94415e-14 -7.88756e-15 -7.43862e-15 -1.22089e-20 1.49447e-20 2.78594e-20 5e-05 1.46608e-10 
273 1 0.38425 0.0173241 5.20975e-05 2.24033e-18 -1.47234e-22 -1.71051e-15 0 -5.49378e-26 0 5e-05 1.46608e-10 
274 1 0.383762 0.0206306 5.14594e-05 8.71364e-19 8.32248e-22 -6.65298e-16 0 -4.07612e-26 0 5e-05 1.46608e-10 
275 1 0.385192 0.0170617 5.33312e-05 -9.20571e-19 -7.14532e-23 7.02844e-16 0 -5.21703e-27 0 5e-05 1.46608e-10 
276 1 0.3843 0.0175031 5.2164e-05 2.24035e-18 -4.28916e-22 -1.71052e-15 0 -1.46285e-26 0 5e-05 1.46608e-10 
277 1 0.384989 0.0177301 5.30663e-05 1.79756e-18 -4.01217e-22 -1.37249e-15 0 -3.81233e-27 0 5e-05 1.46608e-10 
278 1 0.384608 0.0171655 5.25668e-05 2.24037e-18 -3.00263e-22 -1.71052e-15 0 1.90461e-27 0 5e-05 1.46608e-10 
280 1 0.383746 0.0191087 5.14383e-05 2.81054e-18 1.07199e-21 -2.14593e-15 0 1.05912e-26 0 5e-05 1.46608e-10 
281 1 0.384897 0.0194055 5.2945e-05 8.71345e-19 -2.06561e-21 -6.65298e-16 0 -3.72797e-26 0 5e-05 1.46608e-10 
283 1 0.384732 0.0167368 5.27299e-05 2.24033e-18 7.49186e-21 -1.71052e-15 0 8.21881e-26 0 5e-05 1.46608e-10 
284 1 0.383859 0.0194467 5.15855e-05 2.8106e-18 -1.60709e-21 -2.14593e-15 4.03897e-28 -1.14523e-26 0 5e-05 1.46608e-10 
285 1 0.384511 0.017816 5.24399e-05 4.89768e-19 2.76846e-21 -3.71592e-16 0 0 0 5e-05 1.46608e-10 
286 1 0.384761 0.017818 5.27671e-05 4.87092e-19 -6.6729e-23 -3.71584e-16 0 0 0 5e-05 1.46608e-10 
287 1 0.384417 0.0167417 5.23161e-05 2.24037e-18 9.33176e-21 -1.71052e-15 0 1.52995e-26 0 5e-05 1.46608e-10 
288 1 0.384905 0.0179551 5.29553e-05 1.7976e-18 -3.03153e-22 -1.37251e-15 -4.03897e-28 -3.87185e-27 0 5e-05 1.46608e-10 
290 1 0.38472 0.0175079 6.94547e-05 1.08894e-19 -7.19657e-21 -7.99377e-17 -1.29247e-26 -2.58494e-26 0 5e-05 1.46608e-10 
291 1 0.38371 0.0179981 5.13903e-05 2.24032e-18 -4.81088e-22 -1.71052e-15 0 1.05535e-26 0 5e-05 1.46608e-10 
292 1 0.384101 0.0193494 5.19028e-05 -3.50222e-19 1.59778e-21 2.67381e-16 0 6.27158e-26 0 5e-05 1.46608e-10 
293 1 0.384429 0.0174321 5.23324e-05 -1.21662e-19 -2.25145e-21 9.0189e-17 0 2.58494e-26 0 5e-05 1.46608e-10 
294 1 0.383845 0.0189654 5.1567e-05 5.31324e-19 2.72769e-22 -4.06399e-16 0 0 0 5e-05 1.46608e-10 
295 1 0.383647 0.0190875 5.13083e-05 -3.50176e-19 -2.19769e-23 2.67381e-16 0 2.22364e-29 0 5e-05 1.46608e-10 
296 1 0.384035 0.0172167 0.000137258 -7.51902e-18 9.79535e-19 4.04248e-17 -5.16988e-26 0 0 5e-05 1.46608e-10 
297 1 0.383829 0.0183804 5.15472e-05 1.79759e-18 -3.8819e-22 -1.37251e-15 0 -1.28887e-26 0 5e-05 1.46608e-10 
298 1 0.384428 0.0175321 5.23311e-05 -1.18719e-19 -4.20772e-21 9.0194e-17 0 0 0 5e-05 1.46608e-10 
299 1 0.38404 0.0171308 0.000188309 -1.3125e-17 3.09099e-17 2.03277e-17 -1.03398e-25 1.03398e-25 0 5e-05 1.46608e-10 
300 1 0.383994 0.0172487 5.17625e-05 -4.79471e-20 3.29669e-21 5.14136e-17 0 0 0 5e-05 1.46608e-10 
