ITEM: TIMESTEP
41200000
ITEM: NUMBER OF ATOMS
275
ITEM: BOX BOUNDS ff ff ff
-0.02 0.43
-0.02 0.06
-0.02 0.07
ITEM: ATOMS id type x y z vx vy vz fx fy fz radius mass 
1 1 0.253564 0.0185315 0.00689378 0.00622875 -0.000289475 0.000180749 -3.4013e-11 1.01536e-10 1.57377e-11 5e-05 1.46608e-10 
2 1 0.253218 0.0174151 0.00729454 0.00587518 -0.000267182 -0.000182301 -2.99112e-11 -2.41929e-11 -3.5267e-12 5e-05 1.46608e-10 
4 1 0.253368 0.0172923 0.00734507 0.00574018 -0.000372763 -0.000124558 -2.4767e-11 9.94075e-11 -7.71736e-11 5e-05 1.46608e-10 
5 1 0.252762 0.0155483 0.00849663 0.00620686 -0.00019379 0.00019772 1.94169e-11 -3.11914e-11 9.31355e-11 5e-05 1.46608e-10 
6 1 0.25902 0.0165517 0.00778605 0.00546237 8.45845e-05 0.00107135 3.18285e-10 3.10366e-10 -1.42834e-10 5e-05 1.46608e-10 
7 1 0.253513 0.0179095 0.00704403 0.00610526 -0.000389659 -0.000137704 3.13309e-11 -4.23077e-11 2.75895e-11 5e-05 1.46608e-10 
8 1 0.253213 0.0170014 0.00749146 0.00546217 -0.000214264 -0.000185592 8.54993e-11 -3.4175e-11 3.20332e-11 5e-05 1.46608e-10 
9 1 0.259204 0.0173083 0.00721944 0.00558435 -0.000260648 0.000402557 -3.21382e-10 8.38606e-11 -1.04968e-10 5e-05 1.46608e-10 
10 1 0.252879 0.0159567 0.00809548 0.00575494 -6.44009e-05 0.000189139 -3.05238e-11 9.56879e-11 -5.46653e-11 5e-05 1.46608e-10 
11 1 0.253401 0.0181053 0.00704878 0.00619944 -0.000343039 -0.000155343 2.68055e-12 -9.68831e-11 -2.65906e-11 5e-05 1.46608e-10 
12 1 0.247368 0.0169215 0.00760832 0.00532008 3.13312e-05 -0.000488986 -2.97954e-10 8.0819e-11 -6.24788e-11 5e-05 1.46608e-10 
13 1 0.252741 0.015502 0.00858265 0.00619822 -0.000195002 0.000195739 -3.7192e-11 -5.35952e-11 7.32506e-11 5e-05 1.46608e-10 
14 1 0.247329 0.0174866 0.00716102 0.00568808 8.95725e-06 -1.71997e-05 4.22475e-10 -5.64698e-10 4.02778e-10 5e-05 1.46608e-10 
16 1 0.247528 0.0179675 0.00703657 0.00616045 -3.76657e-05 -0.000116348 2.64844e-11 7.87831e-11 -5.0111e-11 5e-05 1.46608e-10 
17 1 0.25286 0.0158737 0.00814779 0.00575848 -7.2508e-05 0.000191614 -7.56438e-12 7.63545e-11 -3.36444e-11 5e-05 1.46608e-10 
19 1 0.252719 0.0154557 0.00866865 0.00615407 -0.000192305 0.000191484 3.05594e-11 -3.85599e-11 5.49926e-11 5e-05 1.46608e-10 
21 1 0.253554 0.0180855 0.00695831 0.00617073 -0.000442948 -0.000188004 5.88976e-11 1.57705e-10 3.81081e-10 5e-05 1.46608e-10 
22 1 0.253178 0.0168244 0.00757746 0.00543481 -0.000218631 -0.000180248 -5.12804e-11 -7.74707e-11 3.86848e-12 5e-05 1.46608e-10 
23 1 0.247559 0.0177053 0.00703215 0.00610207 -0.000161845 -0.000290926 2.72044e-11 -1.29484e-11 5.04204e-11 5e-05 1.46608e-10 
24 1 0.259127 0.0169497 0.00735405 0.00552575 -0.00044085 8.56349e-06 9.6351e-11 -2.3719e-10 -2.78777e-10 5e-05 1.46608e-10 
25 1 0.25292 0.016124 0.00799404 0.00577128 -5.63152e-05 0.000184474 -1.28548e-10 4.41512e-11 -3.81959e-11 5e-05 1.46608e-10 
26 1 0.259168 0.0171207 0.00725892 0.00564603 -0.000379546 0.000142768 -2.27517e-10 -2.13833e-10 1.00254e-09 5e-05 1.46608e-10 
27 1 0.247178 0.0168783 0.00765885 0.0055368 -0.000336459 -0.000681745 2.13443e-10 -3.38735e-10 -3.39255e-10 5e-05 1.46608e-10 
28 1 0.253293 0.0173537 0.00731979 0.00581111 -0.000295019 -0.000165496 1.3782e-12 1.54322e-10 -3.11459e-11 5e-05 1.46608e-10 
29 1 0.252698 0.0154094 0.00875466 0.00613909 -0.000190662 0.000190388 3.28169e-11 2.86241e-11 -2.45206e-11 5e-05 1.46608e-10 
30 1 0.253002 0.0164589 0.00779113 0.00540338 -3.77812e-05 0.000148628 -4.34075e-10 6.75345e-11 -5.78965e-11 5e-05 1.46608e-10 
31 1 0.253592 0.0178522 0.00706714 0.0060866 -0.000404885 -0.0001269 1.33696e-10 -7.95146e-12 -2.77205e-11 5e-05 1.46608e-10 
32 1 0.252943 0.0162083 0.00794502 0.00568864 -6.10773e-05 0.000158979 -5.4621e-10 7.00347e-11 -1.01768e-10 5e-05 1.46608e-10 
33 1 0.259037 0.0166152 0.00771087 0.00537541 0.000152969 0.000974507 -4.43393e-10 1.11574e-10 -7.05857e-10 5e-05 1.46608e-10 
34 1 0.252838 0.0157893 0.00819693 0.00575615 -7.65431e-05 0.000195511 3.33499e-11 2.02087e-11 6.88192e-12 5e-05 1.46608e-10 
35 1 0.253472 0.0177335 0.00712987 0.00602417 -0.000366371 -0.000142828 4.08216e-12 -5.40628e-11 2.98845e-11 5e-05 1.46608e-10 
36 1 0.259262 0.0176019 0.0072041 0.00592169 -0.000384917 -2.82269e-05 1.78258e-10 6.47825e-11 -6.89832e-11 5e-05 1.46608e-10 
37 1 0.253348 0.0172043 0.00738797 0.00562521 -0.000343826 -0.000132662 -9.55686e-11 5.45069e-11 -1.77757e-11 5e-05 1.46608e-10 
38 1 0.253431 0.0175575 0.00721568 0.00594853 -0.000349927 -0.000146715 -5.79395e-12 -2.50506e-11 1.21983e-11 5e-05 1.46608e-10 
39 1 0.259147 0.017033 0.00730242 0.00558488 -0.000534663 -0.000167339 -2.0707e-10 -4.97977e-10 -9.33539e-11 5e-05 1.46608e-10 
41 1 0.252801 0.0156491 0.0083284 0.00577819 -0.000116032 0.000163722 4.38362e-11 -9.97647e-11 7.89952e-11 5e-05 1.46608e-10 
42 1 0.253465 0.0173207 0.00732644 0.00583119 -0.000370481 -0.000130765 2.86396e-11 5.58068e-11 -2.8623e-11 5e-05 1.46608e-10 
44 1 0.253529 0.0175864 0.00719679 0.00595042 -0.00039027 -0.000127999 3.08123e-11 -7.1778e-12 4.47159e-12 5e-05 1.46608e-10 
45 1 0.259055 0.0166786 0.0076356 0.00543933 0.000183029 0.000943612 3.64551e-10 -2.60398e-10 4.01129e-10 5e-05 1.46608e-10 
47 1 0.252818 0.0157056 0.00824761 0.00575964 -7.60583e-05 0.000194886 3.8754e-11 -3.53081e-11 4.15288e-11 5e-05 1.46608e-10 
48 1 0.253427 0.0183071 0.00690346 0.00625953 -0.000337994 3.02005e-05 -2.71219e-11 6.66652e-11 5.26647e-11 5e-05 1.46608e-10 
49 1 0.259222 0.0174067 0.00722103 0.00552548 -0.000261181 0.000403577 2.42795e-10 1.97941e-10 -2.75379e-11 5e-05 1.46608e-10 
50 1 0.252961 0.0162914 0.00789258 0.00540776 -1.77742e-05 0.000151918 2.0902e-10 -6.5947e-11 3.20465e-11 5e-05 1.46608e-10 
51 1 0.253613 0.0179402 0.00702423 0.0061196 -0.000429638 -0.000117374 1.32529e-10 1.77423e-11 -3.00533e-11 5e-05 1.46608e-10 
52 1 0.247422 0.0171515 0.00742366 0.00581317 -9.17135e-05 -0.000431106 6.33255e-11 5.39409e-11 -1.15443e-10 5e-05 1.46608e-10 
53 1 0.25909 0.0168055 0.00748508 0.00551163 0.000123539 0.000939566 2.95018e-10 2.77469e-11 2.06522e-10 5e-05 1.46608e-10 
54 1 0.253784 0.0182644 0.00689617 0.00623149 -0.000389631 0.000179749 7.42806e-12 1.81714e-11 2.37751e-12 5e-05 1.46608e-10 
55 1 0.247347 0.0172074 0.00738885 0.0057739 -0.00019438 -0.000475836 -2.38627e-10 7.06103e-11 6.25506e-11 5e-05 1.46608e-10 
56 1 0.253762 0.0181675 0.00690831 0.00622206 -0.00043445 -0.00012185 -1.07698e-11 3.51446e-11 -1.12478e-11 5e-05 1.46608e-10 
57 1 0.259073 0.016742 0.00756044 0.00544497 0.000141131 0.000922973 3.10831e-10 -7.81681e-10 5.66048e-10 5e-05 1.46608e-10 
59 1 0.378022 0.019866 0.005332 -5.0196e-15 -7.41226e-15 7.69802e-14 3.3992e-24 -3.43797e-24 -2.06795e-25 5e-05 1.46608e-10 
60 1 0.25355 0.0176752 0.00715351 0.00599427 -0.000397387 -0.000126373 3.2849e-11 4.91165e-12 -9.36601e-12 5e-05 1.46608e-10 
61 1 0.252783 0.0155975 0.00841206 0.00607002 -0.000156737 0.00019375 -1.26358e-11 -7.65668e-11 9.73312e-11 5e-05 1.46608e-10 
62 1 0.253452 0.0176455 0.00717277 0.0059834 -0.000354189 -0.000146413 2.23517e-11 1.08655e-11 1.39668e-11 5e-05 1.46608e-10 
63 1 0.253507 0.0184823 0.00698106 0.00647348 -0.000405772 6.65725e-05 4.25111e-11 -1.5298e-11 -3.4613e-11 5e-05 1.46608e-10 
64 1 0.259108 0.0168689 0.00740982 0.00561767 0.000191126 0.000977327 9.33516e-12 8.57499e-11 -5.4978e-10 5e-05 1.46608e-10 
65 1 0.247385 0.0173597 0.00726489 0.00568184 5.14649e-05 -0.000205155 -1.75092e-12 4.35818e-11 1.20566e-10 5e-05 1.46608e-10 
66 1 0.247515 0.0176826 0.00711902 0.00635158 -8.98658e-05 -0.000162599 -1.42486e-10 -3.48333e-11 -3.5493e-10 5e-05 1.46608e-10 
67 1 0.253572 0.0181757 0.00691915 0.00622042 -0.000402237 -5.9949e-05 -1.83476e-11 5.1605e-11 9.35112e-11 5e-05 1.46608e-10 
68 1 0.253355 0.0176176 0.00719112 0.00597287 -0.000323231 -0.000160398 8.45916e-12 -5.7462e-12 -2.80252e-12 5e-05 1.46608e-10 
69 1 0.253666 0.018142 0.00692551 0.00620306 -0.000456434 -0.00010889 1.70694e-11 4.48742e-11 -3.2599e-11 5e-05 1.46608e-10 
70 1 0.259186 0.01721 0.00721783 0.00560282 -0.000278433 0.000373924 -2.51649e-11 -2.02579e-10 6.43709e-10 5e-05 1.46608e-10 
71 1 0.247698 0.01793 0.00703053 0.00604699 -0.000128178 -0.000286611 2.09185e-10 5.24569e-11 -8.099e-12 5e-05 1.46608e-10 
72 1 0.253639 0.0184654 0.00689498 0.00620037 -0.000326843 0.00017965 -1.3178e-10 -1.05246e-11 -7.25236e-12 5e-05 1.46608e-10 
73 1 0.2529 0.0160403 0.00804483 0.00575384 -5.7398e-05 0.000183252 8.97853e-11 8.27988e-11 -3.30734e-11 5e-05 1.46608e-10 
74 1 0.252982 0.0163751 0.00784184 0.00532175 -1.21709e-05 0.000147469 1.16876e-10 -4.07545e-11 6.00371e-11 5e-05 1.46608e-10 
76 1 0.247291 0.0169765 0.00757204 0.00569102 -0.000346434 -0.000595752 1.20051e-10 -2.23592e-10 -6.98038e-11 5e-05 1.46608e-10 
77 1 0.253239 0.0175031 0.00725164 0.00591811 -0.000279009 -0.000178515 6.08617e-13 4.18895e-11 -1.88203e-11 5e-05 1.46608e-10 
78 1 0.246662 0.0153376 0.00890888 0.00620468 -0.000143253 -0.00043202 1.21876e-11 5.04566e-11 -4.20745e-11 5e-05 1.46608e-10 
79 1 0.247592 0.0182605 0.00703919 0.00609148 -2.30113e-05 -9.89536e-05 2.16504e-11 -6.23587e-11 -5.68595e-13 5e-05 1.46608e-10 
80 1 0.253314 0.0174417 0.0072769 0.00589365 -0.000310531 -0.000163577 -5.44246e-11 7.67074e-11 -3.82397e-11 5e-05 1.46608e-10 
82 1 0.247427 0.017729 0.00712741 0.00633713 -3.2176e-07 -0.000116405 8.04674e-11 2.77956e-10 -3.23618e-10 5e-05 1.46608e-10 
83 1 0.247386 0.0169983 0.00754675 0.00543513 2.22274e-06 -0.000477202 1.00821e-10 -2.26141e-11 -8.95081e-11 5e-05 1.46608e-10 
84 1 0.25924 0.0175046 0.00721277 0.00554324 -0.000309307 -2.72594e-05 -1.44137e-10 1.77156e-10 2.65617e-10 5e-05 1.46608e-10 
85 1 0.24774 0.0181262 0.00703282 0.00599361 -0.000118741 -0.00028859 1.57633e-10 1.19732e-10 -1.34221e-11 5e-05 1.46608e-10 
86 1 0.253508 0.0174983 0.0072398 0.0059165 -0.000385539 -0.000127935 3.86455e-11 4.38792e-12 -5.33923e-12 5e-05 1.46608e-10 
87 1 0.253273 0.0172657 0.00736269 0.00569911 -0.000268609 -0.00017165 3.18684e-11 1.37643e-10 -4.88555e-11 5e-05 1.46608e-10 
88 1 0.253417 0.0178815 0.00706245 0.00609605 -0.000353405 -0.000152732 2.02671e-11 -2.29615e-11 1.75611e-11 5e-05 1.46608e-10 
89 1 0.253502 0.0181316 0.00702988 0.00620204 -0.000396008 -0.000140397 -1.41826e-10 -4.30781e-11 9.7707e-11 5e-05 1.46608e-10 
90 1 0.253595 0.0182688 0.00689061 0.00623225 -0.000334924 0.0001791 1.78344e-11 2.10996e-11 7.97507e-12 5e-05 1.46608e-10 
91 1 0.247349 0.016845 0.00766986 0.0053162 -0.000193552 -0.000307479 -1.66005e-10 1.29779e-10 -2.10231e-10 5e-05 1.46608e-10 
92 1 0.253342 0.0179429 0.00703719 0.00612925 -0.000322163 -0.000168788 -1.05231e-10 2.98042e-12 1.28453e-11 5e-05 1.46608e-10 
93 1 0.25306 0.0167112 0.00763959 0.00544009 -7.81436e-05 8.18962e-05 1.0657e-10 1.816e-10 -2.4998e-11 5e-05 1.46608e-10 
94 1 0.253476 0.0182304 0.00698648 0.00646358 -0.000369497 -0.000160957 9.31653e-12 1.3031e-11 2.22116e-11 5e-05 1.46608e-10 
95 1 0.253338 0.0178419 0.00717771 0.00607221 -0.000307812 -0.000169873 -2.78046e-11 -1.4315e-11 -1.70001e-11 5e-05 1.46608e-10 
96 1 0.253321 0.0178549 0.00708008 0.00608571 -0.000314002 -0.000170564 3.22037e-11 -6.32951e-11 1.8608e-11 5e-05 1.46608e-10 
97 1 0.246767 0.0157181 0.00860211 0.00604059 -0.000152859 -0.000411665 6.11976e-12 1.01366e-10 -7.44792e-11 5e-05 1.46608e-10 
98 1 0.253043 0.0166262 0.00768968 0.00544166 -3.58056e-05 0.000169166 2.00492e-10 1.09416e-10 -2.44842e-11 5e-05 1.46608e-10 
99 1 0.247313 0.017806 0.00703802 0.00623808 -1.62269e-05 -3.04936e-05 7.73064e-11 7.03935e-10 -8.0405e-11 5e-05 1.46608e-10 
100 1 0.253534 0.0179975 0.00700113 0.00614497 -0.000403882 -0.000133885 -6.66547e-11 -3.51128e-11 2.37252e-12 5e-05 1.46608e-10 
101 1 0.247334 0.0179036 0.00703907 0.00620688 -4.75814e-05 -0.000102897 -4.12398e-11 5.6968e-10 6.38016e-10 5e-05 1.46608e-10 
102 1 0.0643568 0.0187248 0.00531097 4.35867e-15 1.04187e-14 8.29655e-14 -1.09675e-21 1.03855e-21 -7.44463e-23 5e-05 1.46608e-10 
103 1 0.24257 0.0191927 0.00520306 -1.01195e-22 4.86658e-23 1.23839e-22 0 0 0 5e-05 1.46608e-10 
104 1 0.247624 0.0179983 0.0070354 0.00602558 -0.000147189 -9.58374e-05 1.08913e-10 1.78828e-12 7.33492e-11 5e-05 1.46608e-10 
105 1 0.246725 0.0155659 0.00872482 0.00610532 -0.000153869 -0.000414703 3.58013e-11 1.22988e-10 -1.01038e-10 5e-05 1.46608e-10 
106 1 0.247414 0.0176354 0.00715989 0.00610503 3.51486e-05 -0.000126213 -1.31146e-10 4.44589e-10 6.90878e-11 5e-05 1.46608e-10 
107 1 0.246683 0.0154137 0.00884752 0.00617102 -0.000148528 -0.000425171 2.13421e-11 6.7195e-11 -5.66429e-11 5e-05 1.46608e-10 
108 1 0.253689 0.0182338 0.00689286 0.00622282 -0.000360053 0.000179834 2.25917e-11 4.65902e-11 -8.57326e-12 5e-05 1.46608e-10 
109 1 0.253742 0.0180794 0.00695124 0.00615472 -0.000422242 -0.000122441 3.54089e-13 2.91291e-11 -1.77339e-11 5e-05 1.46608e-10 
110 1 0.253198 0.0173272 0.00733743 0.00583207 -0.000259399 -0.000183543 -1.22702e-11 -1.36303e-11 2.22476e-12 5e-05 1.46608e-10 
111 1 0.253158 0.017151 0.00742326 0.00548287 -0.00019266 -0.000196935 -4.50473e-12 6.07806e-11 -3.32092e-11 5e-05 1.46608e-10 
112 1 0.24681 0.0158702 0.00847942 0.00597869 -0.000148703 -0.000407735 4.34852e-11 6.23328e-11 -6.52589e-11 5e-05 1.46608e-10 
113 1 0.247234 0.0174613 0.00718206 0.00562162 3.14333e-05 -3.92169e-05 2.13853e-10 2.65763e-10 -1.39248e-10 5e-05 1.46608e-10 
114 1 0.247272 0.0176128 0.00705724 0.00598269 1.33943e-05 -4.55972e-05 5.66474e-10 2.95437e-10 -8.91603e-10 5e-05 1.46608e-10 
115 1 0.253486 0.0174094 0.00728317 0.00587164 -0.000381762 -0.000127144 5.31964e-12 1.79942e-11 -1.03363e-11 5e-05 1.46608e-10 
116 1 0.253497 0.0182375 0.00688897 0.00627416 -0.000283338 -0.000194641 -1.0346e-10 2.29687e-11 -3.23599e-11 5e-05 1.46608e-10 
117 1 0.253493 0.0178216 0.00708692 0.00606699 -0.000377981 -0.000140196 9.85543e-12 -1.06362e-10 6.04784e-11 5e-05 1.46608e-10 
118 1 0.247461 0.0173045 0.00730066 0.00563068 -6.0487e-05 -0.000451546 -2.59661e-10 -6.28081e-11 -8.36134e-13 5e-05 1.46608e-10 
119 1 0.25371 0.0183319 0.00689502 0.00624739 -0.00036645 0.000180562 -2.25149e-11 -2.39285e-11 1.66282e-11 5e-05 1.46608e-10 
120 1 0.253194 0.0169132 0.0075344 0.0054378 -0.000212402 -0.000184059 -1.38399e-10 -5.48035e-11 3.4264e-11 5e-05 1.46608e-10 
121 1 0.253512 0.0186966 0.00689478 0.00617617 -0.000283155 0.000179081 -1.94655e-10 1.18471e-10 -6.58653e-12 5e-05 1.46608e-10 
122 1 0.253301 0.017767 0.00712297 0.00604801 -0.000305751 -0.000172144 -7.77114e-11 -1.13902e-10 4.36616e-11 5e-05 1.46608e-10 
123 1 0.247719 0.0180285 0.00703168 0.00601928 -0.00012428 -0.0002879 1.75598e-10 2.85222e-11 -1.35369e-10 5e-05 1.46608e-10 
124 1 0.253083 0.0167983 0.00759663 0.00542537 -0.000169956 -0.000119987 -2.89265e-11 7.8555e-11 -2.5437e-11 5e-05 1.46608e-10 
125 1 0.253396 0.0177935 0.00710534 0.00605526 -0.000339542 -0.000157198 -2.46176e-11 -7.32453e-11 5.37339e-11 5e-05 1.46608e-10 
127 1 0.246746 0.015642 0.00866347 0.00607334 -0.000153505 -0.000412499 2.76502e-11 1.1699e-10 -9.90453e-11 5e-05 1.46608e-10 
128 1 0.253021 0.0165428 0.00774018 0.00542247 -3.37948e-05 0.000158089 7.18997e-11 5.81446e-11 -6.06249e-11 5e-05 1.46608e-10 
129 1 0.253385 0.018016 0.00709067 0.00615875 -0.000336443 -0.00015864 -5.80708e-11 -7.09501e-11 2.71691e-11 5e-05 1.46608e-10 
130 1 0.247366 0.0176422 0.00703285 0.00638608 -0.000130891 0.000174266 -3.79026e-10 3.91284e-10 -7.16469e-10 5e-05 1.46608e-10 
131 1 0.247388 0.0177405 0.00703599 0.00624758 -3.77072e-05 -8.29864e-05 -2.0737e-10 4.44978e-10 -2.43647e-10 5e-05 1.46608e-10 
132 1 0.253389 0.0173804 0.00730209 0.00586342 -0.000341162 -0.000146024 -1.71101e-11 -3.83585e-12 6.87437e-13 5e-05 1.46608e-10 
133 1 0.253522 0.0183369 0.00688949 0.00624596 -0.000321874 0.000181103 5.1542e-12 3.94164e-12 2.32156e-12 5e-05 1.46608e-10 
134 1 0.253478 0.0181455 0.0069337 0.00620583 -0.000388083 -0.000140025 -5.28679e-11 -3.62658e-11 7.12034e-11 5e-05 1.46608e-10 
135 1 0.253648 0.0180518 0.00696935 0.00615943 -0.000426799 -0.000123891 5.28507e-11 -1.96784e-11 -5.12766e-12 5e-05 1.46608e-10 
136 1 0.247328 0.0171308 0.00745032 0.00579268 -0.000285267 -0.000563072 8.40844e-11 8.16982e-11 1.2001e-10 5e-05 1.46608e-10 
137 1 0.253339 0.0179353 0.00713686 0.00611434 -0.000309634 -0.000166944 -1.05054e-11 -4.52527e-11 -3.4548e-11 5e-05 1.46608e-10 
138 1 0.253383 0.0181188 0.00695141 0.00619941 -0.000355259 -0.000159342 1.46518e-10 -9.39347e-11 5.60656e-11 5e-05 1.46608e-10 
140 1 0.25326 0.0175911 0.00720875 0.00596254 -0.000284719 -0.000177781 -3.04231e-11 3.55117e-11 2.07797e-11 5e-05 1.46608e-10 
141 1 0.247179 0.016517 0.00794121 0.0062817 -0.000318784 -0.000290125 -2.28822e-11 5.87345e-11 -1.3359e-10 5e-05 1.46608e-10 
142 1 0.247542 0.0176095 0.00705503 0.00616524 -0.000192585 -0.000380158 -5.21022e-11 -5.37231e-11 9.47806e-11 5e-05 1.46608e-10 
143 1 0.246704 0.0154898 0.00878617 0.00613755 -0.000152554 -0.000418935 2.4833e-11 1.04254e-10 -7.38359e-11 5e-05 1.46608e-10 
144 1 0.247501 0.0174572 0.00717789 0.00588251 -0.000116061 -0.000409947 -2.9698e-10 2.62634e-11 3.19493e-11 5e-05 1.46608e-10 
146 1 0.246851 0.0160196 0.00835894 0.00591534 -0.000142495 -0.000407919 -2.4045e-11 1.33467e-10 -6.34635e-11 5e-05 1.46608e-10 
147 1 0.247349 0.0175636 0.00709755 0.00585847 -0.000199636 0.000167844 -4.18897e-10 2.83208e-10 2.08087e-10 5e-05 1.46608e-10 
148 1 0.247199 0.0165934 0.00787975 0.00555665 -0.000181401 -0.000345228 -2.07832e-10 4.12262e-11 -4.96918e-11 5e-05 1.46608e-10 
149 1 0.253118 0.0169746 0.00750917 0.00547421 -0.000210129 -0.000189563 -9.43424e-11 2.9552e-11 -7.28004e-12 5e-05 1.46608e-10 
150 1 0.247539 0.0184242 0.00704211 0.00611326 2.20542e-05 -9.86358e-05 -1.24677e-10 -2.2833e-10 3.99501e-13 5e-05 1.46608e-10 
151 1 0.247474 0.0181311 0.00703949 0.00614835 -6.43242e-05 -0.000101922 -1.91547e-10 -1.40843e-10 4.95037e-12 5e-05 1.46608e-10 
153 1 0.247217 0.01667 0.00781821 0.00526344 -0.000129016 -0.000364595 -2.39894e-10 -4.4978e-11 7.87428e-13 5e-05 1.46608e-10 
154 1 0.246849 0.015941 0.00842065 0.00595882 -0.000144389 -0.000409883 -5.69023e-11 1.21227e-10 -6.59146e-11 5e-05 1.46608e-10 
155 1 0.246873 0.0160956 0.0082977 0.0058664 -0.000138625 -0.000424208 7.87086e-11 2.42843e-11 -2.34958e-10 5e-05 1.46608e-10 
156 1 0.247157 0.0164412 0.00800245 0.00620646 -0.000311601 -0.000297909 7.27233e-11 2.3162e-10 -1.7975e-10 5e-05 1.46608e-10 
157 1 0.0219312 0.0187687 0.00551176 -3.83504e-14 8.16504e-14 2.9589e-13 4.95507e-22 1.13737e-23 5.91434e-23 5e-05 1.46608e-10 
158 1 0.247255 0.0168232 0.00769514 0.00518623 -9.45243e-05 -0.000373569 -5.65973e-11 -8.63566e-11 2.59086e-11 5e-05 1.46608e-10 
159 1 0.25341 0.0174693 0.00725869 0.00590894 -0.000346046 -0.000146261 2.74729e-12 -1.80107e-11 5.28474e-12 5e-05 1.46608e-10 
160 1 0.247356 0.0180013 0.00703978 0.00616781 -7.91619e-05 -0.000106404 3.884e-11 3.44747e-10 -1.43203e-11 5e-05 1.46608e-10 
162 1 0.247489 0.0179237 0.00711824 0.00645065 0.000161371 -0.000270568 -2.56351e-10 8.9842e-11 3.86221e-10 5e-05 1.46608e-10 
164 1 0.246936 0.0163239 0.00811375 0.00611674 -0.00019836 -0.000430736 9.95234e-11 2.56047e-11 -4.58128e-11 5e-05 1.46608e-10 
165 1 0.247571 0.0181628 0.00703832 0.00613749 -1.81926e-05 -0.000100821 6.74813e-12 -2.23029e-10 3.18863e-11 5e-05 1.46608e-10 
166 1 0.253404 0.0182109 0.00691853 0.00623413 -0.000357578 -0.000140056 -7.35906e-11 -1.04556e-10 2.32241e-10 5e-05 1.46608e-10 
167 1 0.247442 0.018392 0.00704327 0.00611854 -4.88963e-06 -9.90475e-05 -5.32698e-11 -2.49258e-10 -3.09919e-12 5e-05 1.46608e-10 
168 1 0.247614 0.0183582 0.00704006 0.00607816 -1.53579e-05 -9.85773e-05 5.27669e-11 -4.99211e-11 -2.50429e-12 5e-05 1.46608e-10 
169 1 0.247463 0.0184897 0.00704415 0.0061073 1.62526e-05 -9.84378e-05 -8.78624e-11 -2.07486e-10 6.71873e-12 5e-05 1.46608e-10 
170 1 0.247517 0.0183265 0.00704123 0.00612556 8.29357e-06 -9.89336e-05 -7.29992e-11 -2.39667e-10 7.54317e-12 5e-05 1.46608e-10 
171 1 0.253586 0.0186291 0.00689593 0.00619908 -0.000280813 0.000180333 -1.56749e-10 1.66121e-10 -1.13705e-11 5e-05 1.46608e-10 
172 1 0.247215 0.0173855 0.00724447 0.00557679 3.1393e-05 -4.28175e-05 -1.62227e-10 1.70666e-10 -1.2e-10 5e-05 1.46608e-10 
173 1 0.253617 0.018368 0.0068928 0.00625384 -0.000341978 0.000182021 -1.76994e-11 -1.8651e-11 1.62779e-11 5e-05 1.46608e-10 
174 1 0.246982 0.0164753 0.0079915 0.00643468 -0.000278555 -0.000482204 -2.47312e-12 1.90552e-10 -1.22323e-11 5e-05 1.46608e-10 
176 1 0.247271 0.0172591 0.00734835 0.00579965 0.000146907 -0.000135663 -4.43664e-10 -2.22079e-10 1.44592e-10 5e-05 1.46608e-10 
177 1 0.246968 0.0161158 0.0082735 0.00585967 -0.000123027 -0.000417467 4.07281e-10 -2.151e-10 1.40321e-10 5e-05 1.46608e-10 
178 1 0.247274 0.0175531 0.00721602 0.00569239 3.93762e-05 -2.6889e-05 1.56203e-10 1.47738e-10 1.87915e-10 5e-05 1.46608e-10 
179 1 0.247386 0.0180451 0.0071244 0.00615874 -7.7161e-05 -0.000111981 7.60326e-11 -2.80491e-10 6.88762e-11 5e-05 1.46608e-10 
182 1 0.253532 0.0187945 0.00689691 0.00568822 -0.000178994 0.000166577 -2.10341e-10 5.25703e-11 -7.07801e-12 5e-05 1.46608e-10 
183 1 0.24733 0.0176742 0.00712042 0.00619518 -0.000156278 9.18379e-05 1.20854e-10 -2.25193e-11 -1.68494e-09 5e-05 1.46608e-10 
184 1 0.253476 0.0183616 0.00697458 0.00625111 -0.000318912 0.000184039 -9.30392e-11 4.21961e-11 3.32955e-11 5e-05 1.46608e-10 
185 1 0.247521 0.0175333 0.0071164 0.00612321 -0.000178268 -0.000397751 -1.10158e-10 1.94821e-11 -1.54619e-11 5e-05 1.46608e-10 
186 1 0.247793 0.0179611 0.00702671 0.0060353 -0.000110261 -0.000289852 3.56874e-10 1.22547e-10 2.03452e-11 5e-05 1.46608e-10 
187 1 0.253542 0.0184341 0.0069009 0.00626603 -0.000306896 5.43664e-05 -3.16683e-11 7.84958e-12 3.11116e-10 5e-05 1.46608e-10 
188 1 0.253376 0.0177055 0.00714824 0.00601082 -0.000329426 -0.000158971 5.66941e-11 -3.34465e-11 -2.84339e-11 5e-05 1.46608e-10 
189 1 0.253491 0.018599 0.00689263 0.00621118 -0.000304282 0.000180068 -2.47347e-12 6.02355e-11 6.95784e-12 5e-05 1.46608e-10 
190 1 0.241398 0.0181884 0.00704197 0.0061248 -0.000180146 -2.61425e-05 -1.76803e-11 -1.0622e-10 -5.96786e-13 5e-05 1.46608e-10 
191 1 0.253138 0.0170628 0.00746624 0.00548086 -0.000204457 -0.000190839 4.9418e-11 4.63784e-11 -5.60973e-11 5e-05 1.46608e-10 
192 1 0.247253 0.0175371 0.00711965 0.00569666 4.98126e-05 -4.34003e-05 6.10428e-11 5.3558e-10 -4.78021e-10 5e-05 1.46608e-10 
193 1 0.253607 0.0187267 0.00689809 0.00617545 -0.000261741 0.00017965 -1.8128e-10 8.98429e-11 -1.49283e-12 5e-05 1.46608e-10 
194 1 0.247467 0.0178261 0.00711774 0.0063817 0.00013624 -0.000210699 -1.81131e-10 1.17289e-10 -4.90829e-10 5e-05 1.46608e-10 
195 1 0.247453 0.0180334 0.00703861 0.00614972 -6.19921e-05 -0.000100523 6.24869e-12 -1.20874e-11 4.228e-11 5e-05 1.46608e-10 
196 1 0.247485 0.0177722 0.00703541 0.00620835 -5.2021e-05 -0.000117001 5.80021e-11 -2.52098e-11 9.25541e-12 5e-05 1.46608e-10 
197 1 0.241084 0.0168576 0.00768974 0.00549739 -6.03692e-05 0.00110679 8.32229e-10 -4.36596e-10 3.82055e-10 5e-05 1.46608e-10 
198 1 0.247404 0.0170749 0.00748519 0.00572853 -6.57033e-05 -0.000452799 3.51597e-10 -7.74863e-11 -8.55151e-11 5e-05 1.46608e-10 
199 1 0.24734 0.0177779 0.00713007 0.00626132 -0.000116645 -5.80391e-05 2.60668e-11 3.24343e-10 -5.4358e-10 5e-05 1.46608e-10 
200 1 0.24679 0.0157939 0.00854086 0.00600313 -0.000150872 -0.000411738 -2.96175e-12 7.98057e-11 -6.15809e-11 5e-05 1.46608e-10 
201 1 0.247549 0.0180651 0.00703744 0.00613063 -2.2138e-05 -0.000100956 -7.30624e-11 -7.7503e-11 -8.74164e-11 5e-05 1.46608e-10 
202 1 0.247273 0.0169 0.00763398 0.00537386 -0.000179029 -0.000445768 -1.69175e-10 -7.37217e-11 -3.16723e-11 5e-05 1.46608e-10 
203 1 0.253458 0.0180574 0.00697667 0.0061768 -0.00037192 -0.000147563 -2.04903e-11 -5.61535e-11 3.10923e-11 5e-05 1.46608e-10 
204 1 0.247581 0.017803 0.00703328 0.00608703 -0.000163292 -0.000292704 2.13248e-10 -1.19605e-10 -4.62166e-11 5e-05 1.46608e-10 
205 1 0.247123 0.0166484 0.0078434 0.00533828 -3.45312e-05 -0.000425643 2.04371e-10 3.24844e-11 -1.14828e-10 5e-05 1.46608e-10 
206 1 0.24716 0.0168016 0.00772036 0.00536951 -0.000238004 -0.000617625 -8.74946e-11 -1.22446e-10 -2.34732e-10 5e-05 1.46608e-10 
207 1 0.247033 0.0163436 0.00808961 0.00628575 -0.000232658 -0.000377352 -1.83463e-10 -2.05228e-10 1.28411e-11 5e-05 1.46608e-10 
208 1 0.247441 0.0172281 0.00736215 0.00576605 -8.56854e-05 -0.00044197 -3.61716e-10 7.53882e-11 8.81696e-11 5e-05 1.46608e-10 
209 1 0.247366 0.0172836 0.00732697 0.0057283 -6.71405e-05 -0.000337136 -1.94894e-10 4.59326e-11 7.70195e-12 5e-05 1.46608e-10 
210 1 0.253233 0.0170896 0.00744851 0.00549436 -0.000221462 -0.000183326 9.31489e-11 3.93829e-11 -2.18297e-11 5e-05 1.46608e-10 
211 1 0.253253 0.0171777 0.0074056 0.00557774 -0.000240384 -0.000179428 -5.516e-11 1.14403e-10 -5.97822e-11 5e-05 1.46608e-10 
212 1 0.247645 0.018096 0.00703628 0.00601256 -0.000141511 -0.000100714 2.31784e-10 -3.93038e-12 1.59628e-11 5e-05 1.46608e-10 
213 1 0.253469 0.0185013 0.00689047 0.00623598 -0.000312692 0.000183459 1.81869e-11 7.00643e-11 3.15783e-11 5e-05 1.46608e-10 
214 1 0.253334 0.0175301 0.00723502 0.00593464 -0.000318268 -0.000160326 1.72537e-11 7.13572e-11 -3.52926e-11 5e-05 1.46608e-10 
215 1 0.241294 0.0177018 0.00702973 0.00621072 -0.00042234 0.000433873 2.37212e-10 9.28746e-11 -9.20112e-10 5e-05 1.46608e-10 
216 1 0.24701 0.0162679 0.00815083 0.00616068 -0.000177853 -0.000396351 1.7541e-10 -7.57251e-11 -5.07791e-12 5e-05 1.46608e-10 
217 1 0.253552 0.0188924 0.00689903 0.00564923 -0.000173087 0.000164829 -4.83482e-12 -1.06672e-10 -6.88313e-13 5e-05 1.46608e-10 
218 1 0.247291 0.0177084 0.00703483 0.00629952 -4.58906e-06 -3.16461e-06 -6.40593e-10 6.19352e-11 -9.35916e-10 5e-05 1.46608e-10 
219 1 0.253099 0.0168865 0.0075521 0.00546502 -0.000211945 -0.000188656 -5.59519e-11 3.42358e-11 5.44651e-11 5e-05 1.46608e-10 
220 1 0.24741 0.0178381 0.00703688 0.00622029 -4.76458e-05 -9.11893e-05 -2.54105e-10 4.78131e-10 -3.02036e-11 5e-05 1.46608e-10 
222 1 0.253571 0.0177635 0.00711044 0.00604999 -0.000394236 -0.000130518 4.33243e-11 -3.17406e-11 6.03766e-12 5e-05 1.46608e-10 
224 1 0.247197 0.0169554 0.00759783 0.00567633 -0.000272993 -0.000570814 3.28389e-10 -2.10509e-10 -2.177e-10 5e-05 1.46608e-10 
225 1 0.253177 0.0172392 0.00738032 0.00548319 -0.000190841 -0.000197523 3.34276e-11 1.46892e-11 -4.84162e-12 5e-05 1.46608e-10 
226 1 0.247374 0.0175594 0.00721183 0.00571828 0.0001673 -0.00023266 -3.54971e-11 4.33906e-10 -5.20093e-10 5e-05 1.46608e-10 
227 1 0.241313 0.0177988 0.00701409 0.00619972 -0.000367433 0.000545788 -9.98399e-11 -2.14476e-10 -3.21883e-10 5e-05 1.46608e-10 
228 1 0.241251 0.0175228 0.00710722 0.0055639 1.07868e-05 0.00106036 5.27828e-11 4.28809e-10 9.37924e-11 5e-05 1.46608e-10 
229 1 0.247667 0.0181936 0.00703715 0.00598921 -0.000133462 -9.81976e-05 3.43515e-11 -5.91715e-12 9.61461e-12 5e-05 1.46608e-10 
230 1 0.247102 0.0169303 0.00761943 0.00564039 0.000194092 -0.000181285 1.61534e-10 -1.35425e-10 -1.0796e-10 5e-05 1.46608e-10 
232 1 0.247511 0.0180217 0.00711894 0.00617491 -3.83471e-05 -0.000102501 4.26347e-11 -2.43503e-10 -9.97603e-11 5e-05 1.46608e-10 
233 1 0.24742 0.0182943 0.0070424 0.0061339 -2.87444e-05 -9.81712e-05 4.25145e-11 -1.79142e-10 1.16671e-11 5e-05 1.46608e-10 
234 1 0.253481 0.0180437 0.00707289 0.00616207 -0.000382617 -0.000140135 -1.37188e-10 -1.2422e-10 -1.03682e-12 5e-05 1.46608e-10 
235 1 0.247066 0.0167786 0.00774448 0.00523007 0.000263013 -0.000217129 -1.13741e-10 3.54328e-11 -2.14716e-10 5e-05 1.46608e-10 
236 1 0.247158 0.017158 0.00743192 0.00585047 0.000155995 -0.000144382 6.38963e-11 1.54781e-10 -1.4778e-10 5e-05 1.46608e-10 
237 1 0.247177 0.017234 0.00736931 0.00589195 0.000138187 -0.000126066 -9.57056e-10 -1.45421e-09 9.46909e-10 5e-05 1.46608e-10 
239 1 0.240985 0.0164884 0.00801187 0.00608089 -6.82854e-05 0.00122761 5.27926e-11 3.1278e-10 9.16617e-11 5e-05 1.46608e-10 
240 1 0.241047 0.0167098 0.00781927 0.00540467 -1.0987e-05 0.00104488 7.01133e-11 -6.91852e-10 6.73192e-10 5e-05 1.46608e-10 
241 1 0.240961 0.0164148 0.00807542 0.00623882 -5.25593e-05 0.00123951 2.65058e-10 1.62636e-10 1.19024e-10 5e-05 1.46608e-10 
242 1 0.24733 0.0167684 0.00773137 0.00522807 -0.000189396 -0.000310361 -3.06481e-10 3.58841e-10 -2.24322e-10 5e-05 1.46608e-10 
243 1 0.247463 0.0176745 0.00703395 0.00624077 -4.99701e-05 -0.000109418 -2.43475e-10 2.18857e-10 5.31134e-11 5e-05 1.46608e-10 
244 1 0.241007 0.0165621 0.00794812 0.00615831 -8.5892e-06 0.00121238 -3.05511e-10 -1.62896e-10 1.24206e-11 5e-05 1.46608e-10 
246 1 0.241176 0.0172273 0.00736588 0.0059405 -6.28985e-05 0.00119374 3.79488e-10 3.00563e-10 1.12301e-10 5e-05 1.46608e-10 
247 1 0.247006 0.0165509 0.00793034 0.00641485 -0.00022199 -0.000448203 2.28997e-10 1.06811e-10 -2.06708e-10 5e-05 1.46608e-10 
248 1 0.247309 0.0174108 0.00722345 0.00562559 2.79449e-05 -3.9658e-05 1.79278e-11 -1.43567e-10 1.2279e-10 5e-05 1.46608e-10 
249 1 0.241121 0.0170054 0.00756035 0.00565487 -2.19584e-05 0.00111314 -7.32145e-10 4.52465e-10 -6.86636e-10 5e-05 1.46608e-10 
250 1 0.247081 0.0164959 0.00796634 0.00641488 -0.000165688 -0.000436064 -2.85274e-10 -3.10109e-11 7.37233e-12 5e-05 1.46608e-10 
251 1 0.253437 0.0179694 0.00701956 0.00613425 -0.000362315 -0.0001486 -1.11878e-11 -5.37013e-11 1.99338e-11 5e-05 1.46608e-10 
252 1 0.241194 0.0173012 0.00730104 0.00592721 -7.94508e-05 0.00119117 3.08006e-10 4.02907e-10 2.51979e-10 5e-05 1.46608e-10 
253 1 0.241376 0.0180907 0.0070385 0.00614418 -0.000200305 -2.59725e-05 -2.94808e-11 -2.29428e-10 -6.60313e-12 5e-05 1.46608e-10 
254 1 0.241139 0.0170794 0.00749536 0.0057651 -7.49983e-06 0.00112367 2.67973e-10 3.44948e-10 -4.36888e-10 5e-05 1.46608e-10 
255 1 0.246641 0.0152615 0.00897023 0.00623758 -0.000140514 -0.000437093 1.51997e-11 4.87794e-11 -3.87759e-11 5e-05 1.46608e-10 
256 1 0.247602 0.0179007 0.00703442 0.0060588 -0.000156247 -0.00028764 1.50635e-11 -4.44495e-11 -1.18178e-10 5e-05 1.46608e-10 
257 1 0.247236 0.0167466 0.00775666 0.00519891 -0.000114314 -0.000372953 -9.11195e-11 -1.2257e-10 -7.20456e-11 5e-05 1.46608e-10 
258 1 0.24729 0.0173349 0.00728593 0.00571343 0.000137737 -0.000140693 -2.48871e-10 -2.22775e-10 1.93044e-10 5e-05 1.46608e-10 