ITEM: TIMESTEP
57000000
ITEM: NUMBER OF ATOMS
275
ITEM: BOX BOUNDS ff ff ff
-0.02 0.43
-0.02 0.06
-0.02 0.07
ITEM: ATOMS id type x y z vx vy vz fx fy fz radius mass 
1 1 0.345575 0.0180025 0.00723824 0.00709281 0.00179635 -0.00157353 -5.22022e-10 -4.15752e-10 2.14473e-10 5e-05 1.46608e-10 
2 1 0.345287 0.0172127 0.00774211 0.00638314 0.00216386 -0.00171951 -3.32995e-11 -4.05505e-12 1.58986e-11 5e-05 1.46608e-10 
4 1 0.345412 0.0169494 0.00775389 0.00639594 0.00211169 -0.00165167 7.1494e-12 5.73432e-12 -3.38599e-12 5e-05 1.46608e-10 
5 1 0.344963 0.0159145 0.00829002 0.00649067 0.00206079 -0.00163911 -2.23163e-11 1.63343e-11 -1.80683e-11 5e-05 1.46608e-10 
6 1 0.351227 0.0168516 0.00753238 0.0061278 4.43678e-05 0.000412373 -1.31722e-12 6.71696e-12 -4.20275e-12 5e-05 1.46608e-10 
7 1 0.345599 0.0177312 0.00736432 0.00628053 0.0021127 -0.00164452 7.98896e-12 -1.82874e-10 6.53751e-11 5e-05 1.46608e-10 
8 1 0.345247 0.016656 0.00790971 0.00642778 0.00209907 -0.00164892 -4.4973e-11 -2.91172e-11 1.8042e-11 5e-05 1.46608e-10 
9 1 0.351436 0.0177429 0.00713431 0.00577478 -7.71899e-05 -6.91231e-05 -1.07186e-13 -3.05083e-12 1.04342e-12 5e-05 1.46608e-10 
10 1 0.345225 0.0165679 0.0079537 0.00643801 0.00209773 -0.00164939 -5.27233e-11 -3.1454e-11 2.11834e-11 5e-05 1.46608e-10 
11 1 0.345694 0.0183613 0.00715049 0.00586179 0.00198065 -0.0015212 3.2048e-11 2.14314e-11 1.97727e-11 5e-05 1.46608e-10 
12 1 0.339551 0.0170645 0.00740412 0.00586779 -0.00128162 0.000183366 -1.0304e-10 3.43916e-11 -8.94778e-12 5e-05 1.46608e-10 
13 1 0.344942 0.0158271 0.00833362 0.00649675 0.00205893 -0.00163911 -6.93937e-12 2.77958e-12 -5.24472e-12 5e-05 1.46608e-10 
14 1 0.339442 0.017367 0.00727274 0.00565724 -0.00127288 0.000193538 -1.97151e-10 6.9031e-11 1.70752e-11 5e-05 1.46608e-10 
16 1 0.339657 0.0179658 0.00716997 0.0052299 -0.00108623 0.000628908 3.69555e-11 8.83355e-11 1.81305e-11 5e-05 1.46608e-10 
17 1 0.345072 0.0163512 0.00807203 0.00644932 0.00207161 -0.00163797 1.11461e-11 2.75899e-11 -7.85795e-12 5e-05 1.46608e-10 
19 1 0.344923 0.0157391 0.00837723 0.00610385 0.00214309 -0.00163953 3.54488e-11 -4.09733e-11 -7.67997e-11 5e-05 1.46608e-10 
21 1 0.345506 0.0177043 0.00738661 0.00626138 0.00216504 -0.00165763 6.18773e-13 -1.08558e-10 8.41384e-11 5e-05 1.46608e-10 
22 1 0.345556 0.01718 0.00762996 0.0064038 0.00229767 -0.00174048 -1.79279e-11 4.72402e-11 -1.51859e-11 5e-05 1.46608e-10 
23 1 0.339711 0.0178017 0.00718106 0.00529496 -0.00106714 0.000634198 -2.41045e-11 4.15432e-11 -1.81999e-11 5e-05 1.46608e-10 
24 1 0.351355 0.017375 0.00726826 0.00570171 0.000116495 0.000344499 2.41749e-12 -5.6871e-12 9.73078e-12 5e-05 1.46608e-10 
25 1 0.345345 0.0166834 0.00788676 0.00643007 0.00210335 -0.00165119 6.78641e-11 -2.67588e-11 5.58526e-12 5e-05 1.46608e-10 
26 1 0.351395 0.0175575 0.0071975 0.00573116 -6.97e-05 -7.08591e-05 -5.75438e-13 -1.49951e-13 5.56896e-13 5e-05 1.46608e-10 
27 1 0.339316 0.0168372 0.00752467 0.00587095 -0.00135668 0.000215708 -1.97079e-11 -1.1107e-10 3.89808e-11 5e-05 1.46608e-10 
28 1 0.34518 0.0167879 0.00785404 0.00641317 0.00208891 -0.00164228 9.68604e-12 3.10454e-12 -1.22171e-11 5e-05 1.46608e-10 
29 1 0.344904 0.015651 0.00842085 0.0061476 0.00213591 -0.0016432 -8.18239e-11 4.67003e-11 -3.11387e-11 5e-05 1.46608e-10 
30 1 0.345204 0.0168718 0.00791036 0.00641071 0.00209636 -0.00164126 -1.5669e-12 -1.58122e-11 -2.04126e-11 5e-05 1.46608e-10 
31 1 0.345523 0.0177926 0.007343 0.00631283 0.00213607 -0.00165529 -2.269e-11 -9.81961e-11 1.61736e-11 5e-05 1.46608e-10 
32 1 0.345093 0.0164385 0.00802843 0.00644308 0.00207522 -0.00163959 -2.91174e-13 3.14252e-11 -1.20305e-11 5e-05 1.46608e-10 
33 1 0.351249 0.0169387 0.00748843 0.00612231 4.54638e-05 0.000411366 2.06712e-13 -1.84241e-12 1.96518e-12 5e-05 1.46608e-10 
34 1 0.34505 0.0162638 0.00811563 0.00645667 0.00206869 -0.00163728 1.77702e-12 -5.83643e-13 -7.55864e-12 5e-05 1.46608e-10 
35 1 0.345524 0.017448 0.00750625 0.00637633 0.00219116 -0.00168759 2.43387e-11 1.62924e-11 -1.80848e-11 5e-05 1.46608e-10 
36 1 0.351494 0.0180214 0.00703941 0.00561364 -4.39016e-05 -7.75802e-05 9.04081e-13 -4.01673e-12 5.71613e-13 5e-05 1.46608e-10 
37 1 0.345391 0.016862 0.0077975 0.00640453 0.00210673 -0.0016502 1.78905e-11 4.05961e-14 -1.71645e-12 5e-05 1.46608e-10 
38 1 0.345471 0.01723 0.00761499 0.00635765 0.00223052 -0.00170394 -1.19859e-11 2.55553e-11 -3.9909e-11 5e-05 1.46608e-10 
39 1 0.351375 0.0174648 0.00722909 0.00570988 -6.59243e-05 -7.20011e-05 4.47971e-12 -1.74972e-12 -5.56305e-12 5e-05 1.46608e-10 
41 1 0.345007 0.0160891 0.00820282 0.00647176 0.00206331 -0.00163555 1.02102e-11 -1.51402e-11 9.68792e-12 5e-05 1.46608e-10 
42 1 0.345636 0.0175638 0.00743993 0.00639289 0.00225956 -0.00172165 3.77072e-11 1.41498e-10 -8.97959e-11 5e-05 1.46608e-10 
44 1 0.345691 0.0177637 0.00733965 0.00646892 0.00171449 -0.00147115 -2.10632e-10 3.77407e-10 -1.11852e-10 5e-05 1.46608e-10 
45 1 0.351271 0.0170259 0.00744449 0.00611743 4.64792e-05 0.00041051 1.66273e-12 -1.07087e-12 -2.02406e-13 5e-05 1.46608e-10 
47 1 0.345028 0.0161765 0.00815922 0.00646467 0.0020656 -0.00163715 -6.04078e-12 -2.0996e-11 1.44213e-11 5e-05 1.46608e-10 
48 1 0.345353 0.0174834 0.00750686 0.00637746 0.00220011 -0.00169164 1.40773e-11 4.90929e-11 -2.58078e-11 5e-05 1.46608e-10 
49 1 0.351455 0.0178357 0.0071027 0.0055463 -3.17494e-05 -8.06381e-05 -2.53806e-13 -3.61347e-12 1.7197e-12 5e-05 1.46608e-10 
50 1 0.345115 0.0165258 0.00798484 0.00643915 0.0020789 -0.00164055 -2.75738e-11 3.22807e-11 -1.75101e-11 5e-05 1.46608e-10 
51 1 0.345799 0.0182351 0.00710523 0.00569342 0.00182335 -0.00144383 -1.57898e-10 3.32633e-11 -6.02721e-12 5e-05 1.46608e-10 
52 1 0.339888 0.0182248 0.00718851 0.00531317 -0.00114486 0.000638996 8.08075e-11 -2.26604e-11 2.95439e-14 5e-05 1.46608e-10 
53 1 0.351314 0.0172002 0.00735659 0.00610786 4.95439e-05 0.000408327 -6.00282e-12 6.61081e-12 -4.76094e-12 5e-05 1.46608e-10 
54 1 0.3456 0.0182656 0.00720242 0.00577701 0.00193896 -0.00151728 -3.88413e-11 1.97185e-10 -1.27821e-10 5e-05 1.46608e-10 
55 1 0.339476 0.0171269 0.00738064 0.00584844 -0.00129569 0.000190856 -1.50411e-10 2.4961e-11 5.50472e-12 5e-05 1.46608e-10 
56 1 0.345519 0.0181516 0.00717334 0.00573157 0.00193601 -0.0015006 -1.50476e-10 -5.76307e-11 4.01602e-11 5e-05 1.46608e-10 
57 1 0.351293 0.017113 0.00740054 0.00611243 4.77838e-05 0.000409484 -6.20993e-13 6.37033e-12 -2.71455e-12 5e-05 1.46608e-10 
59 1 0.378022 0.019866 0.005332 -5.01993e-15 -7.41197e-15 7.69802e-14 2.86928e-24 -4.31685e-24 -2.06795e-25 5e-05 1.46608e-10 
60 1 0.345701 0.0179408 0.0072546 0.00658851 0.0028178 -0.00200599 -1.77187e-10 2.30482e-10 -9.78235e-11 5e-05 1.46608e-10 
61 1 0.344985 0.0160018 0.00824642 0.00648009 0.00206202 -0.00163698 -1.12555e-11 -1.27733e-11 -3.07303e-11 5e-05 1.46608e-10 
62 1 0.345492 0.0173496 0.00755611 0.00637685 0.0021927 -0.00168887 2.17017e-11 4.712e-12 -9.02102e-12 5e-05 1.46608e-10 
63 1 0.345595 0.0180903 0.00719463 0.00577918 0.00197723 -0.00152526 4.11855e-10 3.8553e-10 -2.24363e-10 5e-05 1.46608e-10 
64 1 0.351335 0.0172875 0.00731254 0.0056627 0.000121687 0.00033873 3.96165e-12 -6.08636e-12 2.03746e-12 5e-05 1.46608e-10 
65 1 0.339422 0.0172785 0.00731476 0.00575538 -0.00129849 0.000198042 -2.16119e-10 -3.4258e-12 2.97505e-11 5e-05 1.46608e-10 
66 1 0.339763 0.0182477 0.00725707 0.00533539 -0.0010466 0.000624767 -6.77652e-11 3.48172e-13 -3.70688e-11 5e-05 1.46608e-10 
67 1 0.345688 0.0181173 0.00717232 0.00570815 0.00185036 -0.00145773 2.48096e-10 -1.36203e-10 3.92731e-11 5e-05 1.46608e-10 
68 1 0.345337 0.0170118 0.00773195 0.00639193 0.00210584 -0.00164846 3.31535e-13 -2.80133e-12 1.9731e-12 5e-05 1.46608e-10 
69 1 0.345608 0.0185925 0.00695527 0.00596463 0.00193971 -0.00153173 -1.27151e-10 -2.66674e-10 1.13321e-10 5e-05 1.46608e-10 
70 1 0.351415 0.0176502 0.00716591 0.00575292 -7.34183e-05 -6.98752e-05 2.7371e-14 -3.20317e-12 -3.49928e-13 5e-05 1.46608e-10 
71 1 0.339771 0.0180956 0.00717914 0.00525375 -0.00106562 0.000630815 1.00202e-11 -3.59832e-11 -5.41007e-11 5e-05 1.46608e-10 
72 1 0.345554 0.018328 0.00708611 0.00582389 0.00193972 -0.0015128 -1.30678e-10 -1.2652e-10 4.26526e-11 5e-05 1.46608e-10 
73 1 0.345588 0.0173763 0.00753372 0.00638731 0.00219554 -0.00169058 6.14562e-11 3.84102e-11 -2.67073e-11 5e-05 1.46608e-10 
74 1 0.34518 0.0167827 0.0079539 0.00641817 0.00209452 -0.00164144 -2.26574e-12 -2.97452e-11 -2.78928e-11 5e-05 1.46608e-10 
76 1 0.339338 0.0169254 0.00748271 0.00586466 -0.00134301 0.000212931 -6.47685e-11 -1.02806e-10 -6.18866e-12 5e-05 1.46608e-10 
77 1 0.34545 0.0173436 0.00764696 0.00634262 0.00217461 -0.00170803 -6.90375e-11 -6.7894e-11 -5.36399e-11 5e-05 1.46608e-10 
78 1 0.33889 0.0157063 0.00858542 0.00552774 -5.23871e-05 0.00164816 -1.5049e-10 2.34177e-10 -3.2533e-10 5e-05 1.46608e-10 
79 1 0.339609 0.0185845 0.00714611 0.00537763 -0.00109374 0.000644468 6.81455e-11 3.42663e-11 1.59281e-12 5e-05 1.46608e-10 
80 1 0.345293 0.0168355 0.00781998 0.0064069 0.00209811 -0.00164615 1.16829e-11 7.19037e-12 -6.15433e-12 5e-05 1.46608e-10 
82 1 0.3397 0.0180288 0.00725993 0.0052225 -0.00112202 0.000637591 6.55963e-11 -7.22077e-11 -5.92024e-11 5e-05 1.46608e-10 
83 1 0.339572 0.0171533 0.0073619 0.00585506 -0.00119881 0.000145872 -5.62233e-11 9.83275e-11 -4.36458e-11 5e-05 1.46608e-10 
84 1 0.351475 0.0179285 0.00707105 0.00558011 -3.779e-05 -7.92178e-05 -3.30221e-13 -3.28166e-12 1.37077e-12 5e-05 1.46608e-10 
85 1 0.339719 0.0182592 0.00716828 0.00529619 -0.00108821 0.000635168 4.23424e-11 8.27806e-11 -1.24314e-11 5e-05 1.46608e-10 
86 1 0.345674 0.0176684 0.00738648 0.00622783 0.00207817 -0.00161937 2.32917e-10 -1.01168e-10 1.89164e-11 5e-05 1.46608e-10 
87 1 0.345271 0.0167463 0.00786453 0.00641592 0.00209107 -0.0016438 2.48549e-11 -3.30572e-11 1.05504e-11 5e-05 1.46608e-10 
88 1 0.345584 0.01783 0.00741311 0.00631754 0.00191222 -0.00154814 -1.64016e-10 1.66806e-10 -6.50771e-11 5e-05 1.46608e-10 
89 1 0.345658 0.0183665 0.00705731 0.00586771 0.00194013 -0.00151639 8.24908e-11 -2.9678e-11 8.10963e-12 5e-05 1.46608e-10 
90 1 0.345707 0.0182056 0.00712864 0.00576177 0.00188606 -0.00148032 5.47917e-11 -6.36759e-11 8.1156e-12 5e-05 1.46608e-10 
91 1 0.339433 0.0169504 0.0074646 0.00588288 -0.00131027 0.000196068 1.33425e-10 4.71516e-11 -2.3651e-11 5e-05 1.46608e-10 
92 1 0.345371 0.0174751 0.00760479 0.00637878 0.00219294 -0.00169265 -2.16087e-11 6.7618e-11 -9.82657e-12 5e-05 1.46608e-10 
93 1 0.345736 0.0187317 0.00688644 0.00608365 0.00215527 -0.000814225 -9.96181e-11 6.4141e-11 -2.69483e-11 5e-05 1.46608e-10 
94 1 0.34547 0.0178312 0.0074183 0.0063501 0.00215395 -0.00165049 3.7402e-11 -2.38992e-10 7.05397e-12 5e-05 1.46608e-10 
95 1 0.345533 0.0178936 0.00733953 0.00632062 0.000592806 -0.00276038 -3.67111e-10 -1.32874e-10 2.46391e-11 5e-05 1.46608e-10 
96 1 0.345267 0.0171372 0.00767965 0.00638301 0.0021017 -0.00164545 -1.54249e-12 -5.54958e-12 7.92167e-12 5e-05 1.46608e-10 
97 1 0.339051 0.0159422 0.0082313 0.00554178 5.28931e-05 0.00145614 -5.80472e-10 4.04826e-10 -5.95695e-10 5e-05 1.46608e-10 
98 1 0.345645 0.0187716 0.00687428 0.00611338 0.00221261 -0.000836181 5.12129e-11 3.08419e-10 -4.88626e-11 5e-05 1.46608e-10 
99 1 0.339427 0.0177051 0.00715947 0.00528123 -0.00114104 0.000643556 1.3287e-10 1.5012e-10 1.69939e-11 5e-05 1.46608e-10 
100 1 0.345615 0.0178254 0.00731813 0.00648156 0.00172697 -0.00148361 -1.73738e-10 2.6636e-10 -4.39947e-11 5e-05 1.46608e-10 
101 1 0.339446 0.017803 0.00716441 0.00525278 -0.00113873 0.000648737 -3.72606e-10 -6.53508e-11 -5.59153e-10 5e-05 1.46608e-10 
102 1 0.0643568 0.0187248 0.00531097 4.36999e-15 1.04793e-14 8.29571e-14 1.35324e-21 -5.98413e-23 -6.1625e-23 5e-05 1.46608e-10 
103 1 0.24257 0.0191927 0.00520306 -1.45275e-22 -3.03968e-22 -5.81428e-22 0 0 0 5e-05 1.46608e-10 
104 1 0.339677 0.0180638 0.0071693 0.00525585 -0.00109106 0.000631777 4.70942e-11 8.4508e-11 8.39674e-12 5e-05 1.46608e-10 
105 1 0.339041 0.01589 0.00831681 0.00564773 5.34518e-05 0.00146223 8.38582e-12 -2.9767e-10 3.17309e-10 5e-05 1.46608e-10 
106 1 0.339503 0.0178795 0.00724126 0.00528369 -0.00114838 0.00065011 2.90534e-11 -3.65771e-11 -6.55069e-11 5e-05 1.46608e-10 
107 1 0.338909 0.0157585 0.0085024 0.00562702 -9.45811e-06 0.00165616 3.33203e-12 9.17991e-11 -4.08375e-10 5e-05 1.46608e-10 
108 1 0.345536 0.0182399 0.00712973 0.0057851 0.00193703 -0.00150746 1.06618e-10 -3.03915e-11 9.45541e-12 5e-05 1.46608e-10 
109 1 0.345687 0.0185338 0.00697508 0.00590946 0.00187613 -0.00149171 -2.28945e-10 -6.60087e-12 5.65589e-12 5e-05 1.46608e-10 
110 1 0.345494 0.0174479 0.00760171 0.00638192 0.00219071 -0.00168563 3.01477e-11 1.69339e-11 -3.16796e-11 5e-05 1.46608e-10 
111 1 0.345231 0.016958 0.00786647 0.00640329 0.00209996 -0.00164177 2.39379e-12 1.46615e-11 3.03534e-12 5e-05 1.46608e-10 
112 1 0.33926 0.0162453 0.00780033 0.00603747 -0.00139181 0.000215446 -4.38681e-10 3.38562e-10 9.5479e-11 5e-05 1.46608e-10 
113 1 0.339347 0.0173415 0.00729102 0.00568963 -0.00129126 0.000201411 7.66714e-11 -5.7129e-11 1.43637e-11 5e-05 1.46608e-10 
114 1 0.339386 0.0175186 0.00720697 0.00550396 -0.0012639 0.000199403 5.18725e-11 1.04377e-10 -5.43496e-11 5e-05 1.46608e-10 
115 1 0.345461 0.0171316 0.00766261 0.00644406 0.00221282 -0.00170469 3.91491e-12 2.01113e-11 3.45049e-11 5e-05 1.46608e-10 
116 1 0.345484 0.0176168 0.00743031 0.00636189 0.00218876 -0.00168393 -4.14793e-11 5.42863e-11 -1.52753e-11 5e-05 1.46608e-10 
117 1 0.345579 0.0176401 0.00740958 0.00634161 0.00223279 -0.00170404 -5.52169e-11 2.51465e-11 2.08777e-11 5e-05 1.46608e-10 
118 1 0.339517 0.0173036 0.00729666 0.00563329 -0.00123862 0.000180028 1.47319e-11 3.98743e-11 -4.35595e-12 5e-05 1.46608e-10 
119 1 0.345572 0.0184162 0.0070425 0.00588773 0.00194176 -0.0015202 -8.11277e-11 1.32995e-11 7.80516e-12 5e-05 1.46608e-10 
120 1 0.345518 0.0169849 0.00772628 0.00638703 0.00210582 -0.00164763 -2.05325e-11 -3.37701e-12 -1.5947e-12 5e-05 1.46608e-10 
121 1 0.34542 0.0177539 0.00737181 0.00634407 0.00217013 -0.00167606 -7.80755e-11 9.44288e-11 -1.16048e-10 5e-05 1.46608e-10 
122 1 0.345245 0.0170499 0.00772325 0.00639015 0.00209879 -0.00164474 4.48465e-12 1.55261e-12 1.65255e-13 5e-05 1.46608e-10 
123 1 0.339793 0.0181932 0.00717871 0.00530248 -0.00107229 0.000634926 -1.36192e-11 -1.23577e-11 -2.71663e-11 5e-05 1.46608e-10 
124 1 0.345554 0.0172764 0.00758453 0.00638101 0.0021954 -0.00168999 1.07717e-11 -1.0057e-11 1.02576e-11 5e-05 1.46608e-10 
125 1 0.345383 0.017191 0.00764241 0.00639737 0.00216014 -0.00167619 -1.01555e-11 1.82069e-11 -1.65519e-11 5e-05 1.46608e-10 
127 1 0.339067 0.0159943 0.00814749 0.00556523 6.44838e-05 0.00147684 -1.75836e-10 6.34204e-11 -4.87225e-10 5e-05 1.46608e-10 
128 1 0.345441 0.0167085 0.0078651 0.00640747 0.00210305 -0.00164877 1.89599e-11 -3.88402e-13 -1.70703e-12 5e-05 1.46608e-10 
129 1 0.345669 0.0180277 0.00721671 0.00589156 0.00208734 -0.00158875 1.56979e-11 -1.73061e-11 9.11136e-12 5e-05 1.46608e-10 
130 1 0.339481 0.017545 0.00719057 0.00548958 -0.00121674 0.000217583 5.51122e-11 4.3666e-11 -4.30805e-11 5e-05 1.46608e-10 
131 1 0.339501 0.0176388 0.00716202 0.00534494 -0.00106082 0.000638822 8.91551e-11 8.22504e-11 6.89699e-11 5e-05 1.46608e-10 
132 1 0.345436 0.017039 0.00770903 0.00638594 0.00210532 -0.00164837 1.25965e-12 3.59147e-11 -1.03442e-11 5e-05 1.46608e-10 
133 1 0.345455 0.0176016 0.00752478 0.00635706 0.00218315 -0.00168487 -8.68066e-12 -3.40694e-11 3.01155e-11 5e-05 1.46608e-10 
134 1 0.345449 0.0175104 0.00748433 0.00636921 0.00218692 -0.00168546 2.89118e-11 -6.39971e-13 -6.26385e-12 5e-05 1.46608e-10 
135 1 0.345626 0.0186807 0.00691166 0.00603663 0.00195335 -0.001527 -8.01471e-11 1.30775e-10 2.05695e-11 5e-05 1.46608e-10 
136 1 0.339455 0.0170386 0.00742263 0.00586926 -0.00129764 0.000190806 -8.97041e-11 4.96798e-12 1.19497e-11 5e-05 1.46608e-10 
137 1 0.34557 0.0177331 0.00745981 0.0062583 0.00211971 -0.00165504 -2.46903e-11 1.9908e-10 2.95992e-11 5e-05 1.46608e-10 
138 1 0.345311 0.0173395 0.00763048 0.00633395 0.00221918 -0.00169234 -1.41565e-11 4.82925e-11 1.88142e-12 5e-05 1.46608e-10 
140 1 0.345202 0.0168752 0.00781044 0.00640563 0.00209216 -0.0016427 8.67888e-12 1.40978e-11 -1.14505e-11 5e-05 1.46608e-10 
141 1 0.339303 0.0164215 0.0077164 0.0059914 -0.0013926 0.00022743 1.24506e-10 6.15616e-11 -6.73488e-12 5e-05 1.46608e-10 
142 1 0.339692 0.0177036 0.00718177 0.00535434 -0.00107141 0.000638228 1.04473e-10 4.01161e-11 -1.72735e-11 5e-05 1.46608e-10 
143 1 0.338931 0.0158132 0.00842143 0.00567012 -1.34749e-05 0.00161087 -2.30406e-10 -4.79706e-10 -6.8378e-10 5e-05 1.46608e-10 
144 1 0.339651 0.0175084 0.00719338 0.00549922 -0.00113458 0.000141577 1.56332e-10 -7.79139e-11 -2.54603e-11 5e-05 1.46608e-10 
146 1 0.338973 0.01596 0.0082957 0.00571402 0.000112848 0.00163743 -1.46332e-10 -1.72424e-10 1.76805e-10 5e-05 1.46608e-10 
147 1 0.339462 0.0174559 0.00723131 0.00554922 -0.00123992 0.000204584 -4.39314e-11 1.04505e-10 5.86255e-11 5e-05 1.46608e-10 
148 1 0.339325 0.0165097 0.00767444 0.00598195 -0.00138361 0.00022148 2.69004e-11 4.4264e-12 7.43475e-11 5e-05 1.46608e-10 
149 1 0.345137 0.0166132 0.00794124 0.00642933 0.00208398 -0.00164196 -8.72095e-12 1.6885e-11 -3.04048e-12 5e-05 1.46608e-10 
150 1 0.339568 0.0183893 0.00715587 0.00530087 -0.00108388 0.000634132 2.18678e-11 1.20827e-11 -1.27781e-12 5e-05 1.46608e-10 
151 1 0.339486 0.0179979 0.00714962 0.00527769 -0.00113658 0.000634633 -2.31325e-11 6.78348e-11 7.97179e-12 5e-05 1.46608e-10 
153 1 0.339347 0.0165978 0.00763247 0.00595634 -0.00136962 0.000214674 5.45877e-11 -1.32129e-10 3.57778e-11 5e-05 1.46608e-10 
154 1 0.338951 0.0158963 0.00836955 0.00567621 4.53217e-05 0.00162096 -1.28996e-10 -3.29145e-10 -9.26412e-12 5e-05 1.46608e-10 
155 1 0.338992 0.0160218 0.00821943 0.00576953 0.000165183 0.00168015 2.34902e-10 -2.53486e-10 1.12271e-10 5e-05 1.46608e-10 
156 1 0.339282 0.0163334 0.00775837 0.00600471 -0.00139512 0.000223803 8.17438e-11 1.31684e-10 -1.35858e-10 5e-05 1.46608e-10 
157 1 0.0219312 0.0187687 0.00551176 -3.82683e-14 8.16271e-14 2.95907e-13 2.79225e-22 -1.88649e-22 8.18909e-23 5e-05 1.46608e-10 
158 1 0.33939 0.0167741 0.00754854 0.00588486 -0.00134141 0.000210871 2.65959e-11 -1.68724e-10 8.49181e-11 5e-05 1.46608e-10 
159 1 0.345316 0.0169244 0.00777555 0.00640048 0.00210225 -0.00164747 4.32106e-12 -4.48087e-12 2.40162e-12 5e-05 1.46608e-10 
160 1 0.339466 0.0179 0.00715027 0.00528776 -0.00113732 0.000642231 -4.06931e-11 -2.49694e-11 -9.42266e-11 5e-05 1.46608e-10 
162 1 0.339669 0.0182913 0.0072487 0.00529957 -0.00108464 0.000635989 -6.87221e-13 -1.05523e-11 -1.95249e-11 5e-05 1.46608e-10 
164 1 0.33905 0.0161756 0.00796879 0.00597396 0.000338954 0.00178214 -3.68426e-10 -9.60766e-11 -3.97702e-11 5e-05 1.46608e-10 
165 1 0.339601 0.0181292 0.00715875 0.00513849 -0.00111988 0.000618405 5.44768e-11 -1.28453e-11 4.78732e-11 5e-05 1.46608e-10 
166 1 0.345331 0.0173961 0.00755046 0.00638329 0.0022007 -0.0016927 1.47826e-11 1.83249e-11 -1.33892e-11 5e-05 1.46608e-10 
167 1 0.339564 0.0182989 0.00724587 0.0052794 -0.00115079 0.000636281 9.86874e-12 4.94658e-11 -1.12671e-11 5e-05 1.46608e-10 
168 1 0.339665 0.0184232 0.00715723 0.00536645 -0.00107219 0.00064272 -2.15386e-11 -2.79768e-11 -3.36498e-12 5e-05 1.46608e-10 
169 1 0.339526 0.018194 0.00714823 0.00513818 -0.00112419 0.000618339 5.36338e-11 4.91588e-11 -2.46081e-12 5e-05 1.46608e-10 
170 1 0.339644 0.0183252 0.00715784 0.00530023 -0.00108345 0.0006355 3.78293e-11 6.28671e-11 3.51004e-12 5e-05 1.46608e-10 
171 1 0.345612 0.0181788 0.0071509 0.00576452 0.00191398 -0.00149376 1.1338e-10 -1.51507e-10 5.38954e-11 5e-05 1.46608e-10 
172 1 0.339327 0.017253 0.00733303 0.00577378 -0.00131219 0.000203532 -4.59583e-11 -4.94899e-11 2.12948e-11 5e-05 1.46608e-10 
173 1 0.345705 0.0186223 0.00693132 0.00599354 0.00189624 -0.0015088 -1.18394e-10 1.11855e-10 -1.96699e-11 5e-05 1.46608e-10 
174 1 0.339091 0.0162945 0.00781371 0.00593773 -0.00112421 0.000586165 1.35978e-12 2.2778e-10 1.34563e-10 5e-05 1.46608e-10 
176 1 0.339546 0.0177281 0.00725795 0.00530692 -0.0011263 0.000654981 1.21314e-10 -1.33306e-10 3.06954e-10 5e-05 1.46608e-10 
177 1 0.33909 0.0160475 0.00806362 0.00509817 -0.000222326 0.00180754 -6.14465e-10 1.35194e-10 -3.24997e-10 5e-05 1.46608e-10 
178 1 0.339437 0.0177788 0.00726099 0.00553528 -0.00122041 0.000689448 1.2752e-10 4.45863e-10 -5.27633e-10 5e-05 1.46608e-10 
179 1 0.339647 0.018119 0.00724714 0.00522812 -0.0010397 0.000581742 -1.9225e-11 7.60456e-12 9.02288e-11 5e-05 1.46608e-10 
182 1 0.345466 0.0179377 0.00728007 0.00632871 0.00214487 -0.00165731 2.04693e-11 1.27812e-10 -1.56267e-10 5e-05 1.46608e-10 
183 1 0.339609 0.0179249 0.0072478 0.00526436 -0.00110385 0.000644565 -1.12923e-10 4.87563e-11 2.61181e-12 5e-05 1.46608e-10 
184 1 0.345735 0.018307 0.00707765 0.00581867 0.00190671 -0.00149423 7.95862e-11 1.07791e-11 7.7231e-13 5e-05 1.46608e-10 
185 1 0.339672 0.0176057 0.00718239 0.00543769 -0.00106277 0.000649997 1.36544e-10 -8.2998e-11 4.35766e-11 5e-05 1.46608e-10 
186 1 0.339813 0.0182911 0.00717809 0.00537658 -0.00107558 0.000643501 1.23954e-11 -4.72503e-11 -2.57947e-13 5e-05 1.46608e-10 
187 1 0.345444 0.0178504 0.00732367 0.0063248 0.00214061 -0.00165303 3.42243e-11 1.09735e-10 -6.78829e-11 5e-05 1.46608e-10 
188 1 0.345359 0.0171001 0.00768782 0.00638514 0.00210554 -0.0016469 1.0328e-11 2.17962e-11 -1.69004e-11 5e-05 1.46608e-10 
189 1 0.345398 0.0176666 0.00741541 0.00634562 0.00216373 -0.00167044 -9.76726e-12 6.80082e-11 -5.35602e-12 5e-05 1.46608e-10 
190 1 0.333619 0.0186428 0.00684945 0.00576191 0.000236026 -2.15558e-05 -5.21521e-12 1.18631e-10 -1.47239e-10 5e-05 1.46608e-10 
191 1 0.345321 0.0173052 0.00772398 0.00630508 0.00219812 -0.00169688 -1.01333e-10 1.62759e-11 -4.92792e-12 5e-05 1.46608e-10 
192 1 0.339366 0.0174301 0.00724899 0.0055854 -0.00127175 0.000200528 1.13494e-10 2.71985e-12 -8.36283e-12 5e-05 1.46608e-10 
193 1 0.345631 0.018267 0.00710726 0.00580418 0.00192085 -0.00150322 1.37625e-10 1.12319e-10 -1.00978e-10 5e-05 1.46608e-10 
194 1 0.339741 0.0181501 0.00725738 0.00528623 -0.00104649 0.000632426 2.10957e-10 -2.14989e-10 2.48226e-11 5e-05 1.46608e-10 
195 1 0.339562 0.0179329 0.00716012 0.00528676 -0.0011259 0.000635718 1.75323e-11 1.13087e-10 -1.59812e-11 5e-05 1.46608e-10 
196 1 0.339617 0.0177698 0.00717126 0.00532211 -0.00110426 0.000641555 8.61814e-11 3.71709e-11 -6.10261e-12 5e-05 1.46608e-10 
197 1 0.333306 0.0172018 0.00745081 0.00602894 0.000187202 3.49768e-05 1.19078e-12 1.24135e-11 -4.28722e-12 5e-05 1.46608e-10 
198 1 0.339613 0.017331 0.00727747 0.00554808 -0.00121761 0.000175809 3.18461e-11 9.56871e-11 -5.00265e-11 5e-05 1.46608e-10 
199 1 0.3396 0.0180284 0.00725758 0.00524199 -0.0010877 0.000588961 -1.45163e-10 -6.45972e-11 1.34926e-10 5e-05 1.46608e-10 
200 1 0.339026 0.0158378 0.00840084 0.00563117 -1.54284e-05 0.00165018 2.65002e-10 -9.33388e-11 -7.80532e-11 5e-05 1.46608e-10 
201 1 0.339581 0.018031 0.00715943 0.00512627 -0.00111333 0.00061472 1.51925e-10 2.63668e-12 3.87373e-11 5e-05 1.46608e-10 
202 1 0.339412 0.0168623 0.00750657 0.00586947 -0.00133398 0.000207872 -1.55724e-10 -2.23508e-10 1.22592e-10 5e-05 1.46608e-10 
203 1 0.345429 0.0174225 0.00752795 0.00637499 0.00219265 -0.00168795 1.28431e-11 1.27041e-11 -1.00411e-11 5e-05 1.46608e-10 
204 1 0.339731 0.0178997 0.00718041 0.00525041 -0.00106322 0.000626554 -4.63022e-11 1.27609e-11 -3.38685e-11 5e-05 1.46608e-10 
205 1 0.339251 0.0165728 0.00765057 0.00595443 -0.00139056 0.000227903 6.33498e-11 6.38487e-11 -4.81994e-11 5e-05 1.46608e-10 
206 1 0.339294 0.0167491 0.00756664 0.00589463 -0.00137137 0.000221982 1.40872e-10 -6.08058e-11 5.50704e-11 5e-05 1.46608e-10 
207 1 0.339159 0.0162215 0.00781826 0.00569065 -0.00136316 0.00024206 4.43055e-11 3.10045e-11 -8.64947e-11 5e-05 1.46608e-10 
208 1 0.339497 0.0172152 0.00733865 0.00577307 -0.0012748 0.000186689 -8.59729e-11 3.54879e-11 7.65157e-12 5e-05 1.46608e-10 
209 1 0.339402 0.01719 0.00735677 0.00582489 -0.00131882 0.000203 -6.15408e-11 -6.99566e-11 4.60511e-11 5e-05 1.46608e-10 
210 1 0.345368 0.0167725 0.00784224 0.00640833 0.00210188 -0.00164826 -4.68824e-12 -1.71063e-11 8.53943e-12 5e-05 1.46608e-10 
211 1 0.345158 0.0167005 0.00789764 0.00642019 0.00208711 -0.00164245 -5.10874e-12 9.75029e-12 -9.63748e-13 5e-05 1.46608e-10 
212 1 0.339697 0.0181618 0.00716866 0.00529228 -0.00109128 0.000634591 4.54365e-11 8.83295e-11 2.70871e-11 5e-05 1.46608e-10 
213 1 0.345376 0.0175748 0.00746122 0.00636368 0.00218437 -0.0016829 4.83086e-12 -1.35786e-11 7.73576e-12 5e-05 1.46608e-10 
214 1 0.345541 0.0175405 0.00746065 0.00640601 0.00220392 -0.00169653 -3.59686e-11 6.32266e-11 -1.14123e-11 5e-05 1.46608e-10 
215 1 0.333525 0.018186 0.00701147 0.00557481 0.000276535 -1.4352e-05 1.75922e-11 3.70396e-11 -1.66147e-11 5e-05 1.46608e-10 
216 1 0.339132 0.016152 0.00789835 0.00577109 -0.000226534 0.0019841 -5.22643e-10 5.87467e-11 -3.3929e-10 5e-05 1.46608e-10 
217 1 0.345499 0.0180638 0.00721695 0.00695416 0.0016521 -0.00149062 -1.08531e-10 -1.26195e-10 7.54884e-11 5e-05 1.46608e-10 
218 1 0.339406 0.0176074 0.00716485 0.00554593 -0.00122125 0.000178295 -4.20976e-12 -1.85625e-11 -2.90416e-12 5e-05 1.46608e-10 
219 1 0.34555 0.017088 0.00767418 0.00648184 0.00228061 -0.00174066 1.07768e-11 -1.77883e-11 -2.27751e-11 5e-05 1.46608e-10 
220 1 0.339521 0.0177368 0.00716138 0.0052865 -0.00112986 0.000650986 1.37202e-10 1.73067e-10 -7.13212e-11 5e-05 1.46608e-10 
222 1 0.345607 0.0179158 0.0072761 0.00697554 0.00176064 -0.00155286 -1.67676e-10 7.11723e-12 5.12291e-11 5e-05 1.46608e-10 
224 1 0.33922 0.0168119 0.00754292 0.00588212 -0.00138462 0.000228885 4.88826e-11 3.46519e-12 -6.02703e-11 5e-05 1.46608e-10 
225 1 0.34525 0.017046 0.00782306 0.00639494 0.0020993 -0.00164526 1.95815e-12 6.48063e-12 2.13259e-12 5e-05 1.46608e-10 
226 1 0.339588 0.0178258 0.00724892 0.0052901 -0.00111072 0.000643183 7.73112e-11 -1.12352e-10 3.68561e-11 5e-05 1.46608e-10 
227 1 0.333544 0.0182757 0.00697139 0.00560539 0.000269528 -1.09495e-05 9.42304e-12 9.67191e-12 -1.58075e-12 5e-05 1.46608e-10 
228 1 0.333488 0.0180066 0.00709163 0.00550089 0.000291109 -2.25969e-05 -6.81357e-15 -1.14667e-11 6.98681e-12 5e-05 1.46608e-10 
229 1 0.339739 0.0183574 0.00716768 0.00539042 -0.00105173 0.000645065 -7.89483e-11 -1.35304e-10 -1.17459e-11 5e-05 1.46608e-10 
230 1 0.339322 0.017022 0.00753299 0.00585203 -0.00129195 0.00019325 -1.81929e-10 3.35389e-11 1.34081e-11 5e-05 1.46608e-10 
232 1 0.339622 0.0182272 0.00715818 0.00529263 -0.00110116 0.000634035 -1.07376e-10 -3.86234e-11 -4.21088e-12 5e-05 1.46608e-10 
233 1 0.339545 0.0181112 0.00723968 0.00512743 -0.00110419 0.00061687 -9.17056e-12 9.58232e-11 9.09616e-11 5e-05 1.46608e-10 
234 1 0.34559 0.0185043 0.00699889 0.00591754 0.00193353 -0.00152074 2.6596e-10 -2.88268e-11 8.34893e-13 5e-05 1.46608e-10 
235 1 0.339177 0.0166356 0.00762684 0.00591987 -0.0013966 0.000233057 9.07424e-11 1.58371e-10 -9.47539e-11 5e-05 1.46608e-10 
236 1 0.339426 0.0174559 0.00732484 0.0056018 -0.00129995 0.000215235 -7.30688e-11 4.56595e-11 1.12938e-10 5e-05 1.46608e-10 
237 1 0.339285 0.0170763 0.00741702 0.00585324 -0.00134795 0.000213168 -4.42511e-11 -6.8603e-11 6.09578e-12 5e-05 1.46608e-10 
239 1 0.333198 0.0167667 0.00767037 0.00609307 -0.000147807 -0.000539103 1.21622e-11 4.397e-12 -3.69798e-12 5e-05 1.46608e-10 
240 1 0.333263 0.0170234 0.00753036 0.00606423 0.000182824 3.76346e-05 1.32065e-11 -6.80092e-12 6.80154e-13 5e-05 1.46608e-10 
241 1 0.333176 0.0166835 0.00772139 0.00609394 -0.000146225 -0.000540063 -3.78621e-13 -4.03254e-12 3.78325e-12 5e-05 1.46608e-10 
242 1 0.339593 0.017242 0.00731971 0.00571887 -0.00115259 0.000134288 8.73963e-11 1.46704e-11 -1.64603e-11 5e-05 1.46608e-10 
243 1 0.339597 0.0176721 0.0071788 0.00538589 -0.00112854 0.000518669 1.38309e-10 -3.3856e-11 -1.76194e-10 5e-05 1.46608e-10 
244 1 0.33322 0.0168499 0.00761936 0.00609204 -0.000148853 -0.000536015 -1.0203e-11 2.12675e-12 8.127e-12 5e-05 1.46608e-10 
246 1 0.333411 0.0176482 0.00725166 0.00573761 0.000248918 1.298e-06 -1.29121e-11 -8.47622e-12 4.04529e-12 5e-05 1.46608e-10 
247 1 0.339112 0.0163718 0.00775413 0.00594059 -0.00146672 0.000148371 -9.86304e-11 2.72172e-10 2.75865e-10 5e-05 1.46608e-10 
248 1 0.339449 0.0176797 0.00725358 0.00547874 -0.00121985 0.000558446 -4.42622e-11 -6.24888e-11 -1.98457e-10 5e-05 1.46608e-10 
249 1 0.333349 0.0173801 0.00737126 0.00599613 0.000195972 3.04136e-05 -1.14567e-11 2.86655e-11 -1.26447e-11 5e-05 1.46608e-10 
250 1 0.339208 0.0163963 0.00773458 0.00596609 -0.00141115 0.000225422 -9.67447e-11 9.26473e-11 1.88408e-11 5e-05 1.46608e-10 
251 1 0.345387 0.0172831 0.00759824 0.0063073 0.00217001 -0.00167083 -1.34755e-10 -1.23637e-10 6.10095e-11 5e-05 1.46608e-10 
252 1 0.333431 0.0177376 0.00721173 0.00577754 0.000244684 4.15765e-06 9.97104e-12 3.43584e-12 7.3916e-12 5e-05 1.46608e-10 
253 1 0.333599 0.0185448 0.0068512 0.00572404 0.000243866 3.43094e-06 -6.28579e-11 8.9097e-11 -3.33273e-11 5e-05 1.46608e-10 
254 1 0.33337 0.0174693 0.00733148 0.00597906 0.0002002 2.81534e-05 4.99637e-12 2.18765e-11 -1.03401e-11 5e-05 1.46608e-10 
255 1 0.339519 0.0176087 0.00725775 0.00544349 -0.00125983 0.000295671 2.05152e-10 -3.94606e-10 2.5077e-10 5e-05 1.46608e-10 
256 1 0.339751 0.0179976 0.00717977 0.00523112 -0.00106349 0.000625611 6.2735e-11 -7.05921e-11 -1.5631e-11 5e-05 1.46608e-10 
257 1 0.339368 0.016686 0.0075905 0.00591932 -0.00135293 0.000213076 1.92258e-10 -2.05958e-10 3.69235e-11 5e-05 1.46608e-10 
258 1 0.339418 0.0175868 0.00727312 0.00543155 -0.00125729 0.000222946 1.13018e-10 -1.51771e-10 3.0223e-10 5e-05 1.46608e-10 
259 1 0.33345 0.0178272 0.00717174 0.00561977 0.000273374 -1.19829e-05 -1.66174e-10 6.65577e-12 -6.8435e-12 5e-05 1.46608e-10 
260 1 0.339506 0.018096 0.00714893 0.00512784 -0.00111302 0.000617012 8.19724e-11 3.74423e-11 3.13813e-11 5e-05 1.46608e-10 
261 1 0.339381 0.0171017 0.00739877 0.00584756 -0.00131692 0.000200159 -1.41465e-10 -6.60783e-11 6.30785e-11 5e-05 1.46608e-10 