ITEM: TIMESTEP
37400000
ITEM: NUMBER OF ATOMS
275
ITEM: BOX BOUNDS ff ff ff
-0.02 0.43
-0.02 0.06
-0.02 0.07
ITEM: ATOMS id type x y z vx vy vz fx fy fz radius mass 
1 1 0.231465 0.0188052 0.00681997 0.00570795 -5.47123e-05 0.000118523 1.76659e-11 2.88307e-10 -1.95995e-10 5e-05 1.46608e-10 
2 1 0.23113 0.0176614 0.00721615 0.00576392 -9.48986e-05 0.000136826 -3.60033e-11 9.47844e-13 -1.82487e-11 5e-05 1.46608e-10 
4 1 0.23128 0.0175372 0.00726249 0.00589789 -1.13544e-05 0.000108088 1.87241e-10 -8.17474e-11 2.77933e-11 5e-05 1.46608e-10 
5 1 0.230647 0.0157656 0.00834982 0.00560497 0.00035064 0.000133214 4.8394e-11 -1.78717e-11 3.47863e-11 5e-05 1.46608e-10 
6 1 0.23697 0.0169198 0.00740359 0.00611729 -0.0003584 0.000268943 -1.93345e-10 -2.16977e-11 3.14436e-12 5e-05 1.46608e-10 
7 1 0.231417 0.0181872 0.0070364 0.00552441 6.15184e-05 7.60319e-05 1.24729e-10 1.05098e-10 -2.03249e-11 5e-05 1.46608e-10 
8 1 0.231121 0.0172435 0.00740537 0.00599055 -0.000321926 -0.000218436 6.17681e-11 5.22873e-11 -1.62105e-11 5e-05 1.46608e-10 
9 1 0.237165 0.0178112 0.00702251 0.00559522 -0.000343806 2.7902e-05 7.27487e-11 -1.5839e-11 -1.82826e-12 5e-05 1.46608e-10 
10 1 0.230766 0.0161749 0.00795433 0.00610924 -0.000298559 -0.000237244 -1.45239e-11 2.1642e-11 1.9848e-11 5e-05 1.46608e-10 
11 1 0.23129 0.0182981 0.00708689 0.00561972 3.08632e-05 8.68367e-05 -1.27687e-10 -2.56756e-11 3.26484e-11 5e-05 1.46608e-10 
12 1 0.225282 0.0171484 0.00742326 0.0061311 7.02715e-06 -0.000674557 -2.2033e-10 3.83864e-11 2.17066e-11 5e-05 1.46608e-10 
13 1 0.230627 0.0157192 0.00843597 0.00559419 0.000355115 0.000132603 5.67159e-11 -6.88825e-11 1.24241e-10 5e-05 1.46608e-10 
14 1 0.22524 0.0177514 0.00703494 0.00581213 0.000607198 9.39234e-05 -8.18589e-11 1.91055e-11 3.92085e-11 5e-05 1.46608e-10 
16 1 0.225508 0.018205 0.00696397 0.00565126 0.000579168 -0.000212881 -2.14955e-10 2.16746e-11 -5.00761e-12 5e-05 1.46608e-10 
17 1 0.230744 0.0160879 0.00799857 0.00611563 -0.000293954 -0.000240866 4.45017e-11 2.94597e-11 4.42723e-12 5e-05 1.46608e-10 
19 1 0.230606 0.0156734 0.00852247 0.00553645 0.000356461 0.000120085 -9.6154e-11 -1.62358e-10 2.08612e-10 5e-05 1.46608e-10 
21 1 0.23146 0.0183716 0.00697233 0.00559084 -1.50251e-05 0.000103564 -1.33111e-10 -2.22658e-11 -2.96641e-11 5e-05 1.46608e-10 
22 1 0.231078 0.0170694 0.00749386 0.00598308 -0.000327061 -0.000214806 -1.41508e-10 -1.63091e-11 1.49179e-11 5e-05 1.46608e-10 
23 1 0.225471 0.0180046 0.00696677 0.00567015 0.00052649 -0.000207356 1.50333e-10 1.17132e-10 3.38944e-11 5e-05 1.46608e-10 
24 1 0.237086 0.0174299 0.00710974 0.00581581 -0.000313545 0.000248694 -1.70552e-10 1.18338e-11 -8.72253e-11 5e-05 1.46608e-10 
25 1 0.230809 0.016349 0.00786583 0.00608643 -0.000308249 -0.000230996 2.2142e-11 3.5329e-11 -1.70715e-11 5e-05 1.46608e-10 
26 1 0.237125 0.0176186 0.00705891 0.00557771 -0.00033836 2.71548e-05 1.49397e-11 -1.86249e-11 -1.34447e-12 5e-05 1.46608e-10 
27 1 0.225088 0.0171074 0.00747816 0.00610558 -1.91609e-06 -0.000664743 -1.64893e-10 4.70569e-10 -3.19015e-10 5e-05 1.46608e-10 
28 1 0.231205 0.0175994 0.00723931 0.00586161 -4.75353e-05 0.000122083 1.58558e-11 -3.34158e-11 5.9198e-12 5e-05 1.46608e-10 
29 1 0.230587 0.0156276 0.00860929 0.00550245 0.000354903 0.000113859 7.54631e-12 -1.48985e-10 2.84028e-10 5e-05 1.46608e-10 
30 1 0.230896 0.016697 0.00768885 0.00604881 -0.000323736 -0.000221024 -1.3624e-11 3.12876e-11 -1.38249e-11 5e-05 1.46608e-10 
31 1 0.231492 0.0181259 0.00705928 0.00554986 8.94608e-05 6.81915e-05 -3.87866e-11 6.18083e-11 -5.90966e-11 5e-05 1.46608e-10 
32 1 0.230831 0.016436 0.00782159 0.00607566 -0.000313876 -0.000226946 3.60848e-12 5.48164e-11 -2.17022e-11 5e-05 1.46608e-10 
33 1 0.236989 0.0170047 0.00735452 0.00561966 -0.000278428 0.000214645 7.48688e-11 9.12011e-11 3.02444e-11 5e-05 1.46608e-10 
34 1 0.230723 0.0160008 0.00804285 0.00595829 -0.000248019 -0.000243127 3.48276e-11 2.86204e-11 -1.99523e-11 5e-05 1.46608e-10 
35 1 0.231379 0.0180015 0.007101 0.00559488 2.20177e-05 9.15055e-05 1.48051e-10 3.89468e-11 7.51601e-12 5e-05 1.46608e-10 
36 1 0.237225 0.0181001 0.00696792 0.00562072 -0.000335808 2.66214e-05 -1.01269e-09 5.11029e-10 -7.77272e-11 5e-05 1.46608e-10 
37 1 0.231259 0.017445 0.00729734 0.00600057 -0.000151438 -0.000303547 1.60994e-11 -1.40604e-11 -3.37027e-12 5e-05 1.46608e-10 
38 1 0.23134 0.0178155 0.00716573 0.00570318 5.52391e-05 8.17537e-05 -6.57538e-11 2.43403e-11 -1.45029e-11 5e-05 1.46608e-10 
39 1 0.237105 0.0175223 0.00707711 0.00557892 -0.000340329 2.67362e-05 -1.04743e-11 -4.86756e-11 9.00311e-12 5e-05 1.46608e-10 
41 1 0.230683 0.015872 0.0081855 0.00563081 0.000185617 2.17798e-06 -5.21366e-11 8.19125e-11 1.44197e-11 5e-05 1.46608e-10 
42 1 0.231375 0.0175676 0.00725352 0.00589494 5.74403e-05 8.51079e-05 9.11638e-11 1.67713e-10 -5.41315e-11 5e-05 1.46608e-10 
44 1 0.231434 0.0178466 0.00715646 0.00568897 9.17097e-05 6.89643e-05 2.48877e-11 -8.35048e-11 2.38108e-11 5e-05 1.46608e-10 
45 1 0.237008 0.0170897 0.00730548 0.00564177 -0.000287579 0.000231356 2.8487e-10 -3.34896e-11 -3.00463e-11 5e-05 1.46608e-10 
47 1 0.230702 0.0159222 0.00810121 0.00563609 -0.000103619 -0.000168303 2.16732e-11 8.51172e-11 1.63805e-11 5e-05 1.46608e-10 
48 1 0.231319 0.018576 0.00689796 0.00564905 -3.37703e-05 0.000113843 2.93986e-11 -8.2987e-11 1.27404e-11 5e-05 1.46608e-10 
49 1 0.237185 0.0179075 0.00700432 0.00560962 -0.000344397 2.815e-05 -4.30002e-12 -7.79189e-11 1.42005e-11 5e-05 1.46608e-10 
50 1 0.230853 0.0165229 0.00777735 0.0060654 -0.000319188 -0.00022421 3.05225e-11 4.80736e-11 -2.72204e-11 5e-05 1.46608e-10 
51 1 0.231511 0.0182187 0.007027 0.00553805 3.71863e-05 8.63775e-05 1.29776e-10 8.6083e-12 -2.10231e-11 5e-05 1.46608e-10 
52 1 0.225337 0.0173825 0.00724543 0.00591375 0.000434659 -0.000116556 5.4692e-11 1.46837e-10 -1.67086e-10 5e-05 1.46608e-10 
53 1 0.237047 0.0172598 0.00720761 0.00573672 -0.000289586 0.000233385 -1.51682e-10 7.09585e-11 -1.21864e-10 5e-05 1.46608e-10 
54 1 0.23165 0.0184371 0.00695269 0.00565526 -9.46496e-05 0.00013361 3.47515e-10 -3.55702e-11 1.55035e-11 5e-05 1.46608e-10 
55 1 0.22526 0.0174344 0.00720441 0.0058766 0.000624649 0.000102072 -8.13237e-11 1.04053e-10 -6.29386e-11 5e-05 1.46608e-10 
56 1 0.231631 0.0183428 0.00698552 0.00559864 -0.000113801 0.00013954 -1.7172e-11 1.35205e-10 -4.58668e-11 5e-05 1.46608e-10 
57 1 0.237028 0.0171747 0.00725655 0.00567409 -0.000287647 0.000228695 -2.4599e-10 -1.42091e-10 1.21846e-11 5e-05 1.46608e-10 
59 1 0.378022 0.019866 0.005332 -5.01976e-15 -7.41208e-15 7.69802e-14 -4.12298e-24 -1.68021e-24 -4.1359e-25 5e-05 1.46608e-10 
60 1 0.231454 0.0179398 0.00712404 0.00563562 6.67999e-05 7.6256e-05 7.44386e-11 -6.73531e-11 2.93869e-11 5e-05 1.46608e-10 
61 1 0.230663 0.0158108 0.00826209 0.00562026 0.000355215 0.000138364 -5.18689e-11 -1.02896e-11 -8.8802e-12 5e-05 1.46608e-10 
62 1 0.231359 0.0179085 0.00713335 0.00565071 4.50573e-05 8.39239e-05 -3.5604e-11 -1.49963e-10 3.96324e-11 5e-05 1.46608e-10 
63 1 0.231339 0.0186739 0.00690274 0.00567631 -4.20691e-05 0.00011755 1.77591e-10 7.14613e-11 -8.39403e-11 5e-05 1.46608e-10 
64 1 0.237067 0.0173447 0.00715873 0.00577568 -0.000301368 0.00024243 1.61511e-10 1.67412e-10 -1.34864e-10 5e-05 1.46608e-10 
65 1 0.225297 0.0176091 0.00711444 0.00584522 0.000635826 6.99559e-05 -3.17883e-10 -7.12555e-11 -1.79839e-10 5e-05 1.46608e-10 
66 1 0.225439 0.0178992 0.0070688 0.00584867 0.000592034 9.94023e-05 -8.62673e-11 -1.86801e-10 -2.94121e-11 5e-05 1.46608e-10 
67 1 0.23148 0.0184648 0.00693992 0.00565054 -4.71954e-05 0.000117833 -7.37124e-11 -7.89211e-11 3.9025e-11 5e-05 1.46608e-10 
68 1 0.231265 0.0178774 0.00714261 0.00564989 -1.04213e-06 0.000100447 -1.07857e-10 9.05024e-11 -2.82818e-11 5e-05 1.46608e-10 
69 1 0.231555 0.0184031 0.00696295 0.00563931 -6.43347e-05 0.000122955 -1.63596e-10 -9.53514e-11 2.89483e-11 5e-05 1.46608e-10 
70 1 0.237145 0.0177149 0.00704071 0.00558816 -0.000338736 2.69698e-05 -1.33438e-11 3.85789e-11 -7.73675e-12 5e-05 1.46608e-10 
71 1 0.225602 0.01824 0.00696029 0.00564447 0.000598336 -0.00021248 -1.61082e-10 -7.92596e-11 8.44735e-12 5e-05 1.46608e-10 
72 1 0.231522 0.0186508 0.00687529 0.0056932 -7.56841e-05 0.0001285 -7.62495e-12 -2.98687e-11 1.92235e-11 5e-05 1.46608e-10 
73 1 0.230787 0.016262 0.00791008 0.00610045 -0.00030357 -0.000234485 8.45617e-13 1.52598e-11 -2.36606e-12 5e-05 1.46608e-10 
74 1 0.230874 0.01661 0.0077331 0.00605558 -0.000322483 -0.00022179 1.83207e-11 4.01714e-11 -2.12175e-11 5e-05 1.46608e-10 
76 1 0.225206 0.0172025 0.00738688 0.00616328 5.10276e-05 -0.000710329 1.77345e-12 1.51733e-10 9.86284e-12 5e-05 1.46608e-10 
77 1 0.23115 0.017754 0.00718421 0.00572894 -7.99625e-05 0.00013043 9.97231e-12 1.79244e-11 1.26251e-12 5e-05 1.46608e-10 
78 1 0.224563 0.015605 0.00877429 0.00569248 5.06604e-05 -0.000663074 2.68909e-12 2.83144e-10 -1.70388e-10 5e-05 1.46608e-10 
79 1 0.225567 0.0185042 0.00695971 0.00567668 0.000572919 -0.000212223 1.34479e-11 2.30944e-10 -5.94259e-12 5e-05 1.46608e-10 
80 1 0.231225 0.0176919 0.00720714 0.00578781 -3.05702e-05 0.000113768 5.77855e-12 6.04477e-12 4.0454e-12 5e-05 1.46608e-10 
82 1 0.225302 0.017942 0.00707156 0.00611669 0.000740732 -0.000316434 2.56663e-10 -3.18179e-10 2.1137e-10 5e-05 1.46608e-10 
83 1 0.225301 0.0172231 0.00735958 0.00604252 2.34346e-05 -0.000681567 5.02246e-11 6.43261e-11 3.42837e-12 5e-05 1.46608e-10 
84 1 0.237205 0.0180038 0.00698612 0.00563123 -0.000344447 2.80401e-05 -1.72164e-10 1.33512e-10 -1.95069e-11 5e-05 1.46608e-10 
85 1 0.225726 0.0183719 0.00695478 0.00561112 0.000652701 -0.000210901 3.72206e-10 -4.07389e-10 -6.17142e-12 5e-05 1.46608e-10 
86 1 0.231415 0.0177534 0.0071889 0.00574107 0.000106958 6.44859e-05 -2.14339e-11 -3.82477e-12 1.85393e-13 5e-05 1.46608e-10 
87 1 0.231185 0.0175074 0.00727318 0.00593435 -0.000141303 -7.6928e-05 2.36373e-11 -7.96608e-11 -1.55599e-10 5e-05 1.46608e-10 
88 1 0.231322 0.0181558 0.00704576 0.00554324 1.3034e-05 0.000110285 2.06418e-10 4.53577e-11 -1.5687e-10 5e-05 1.46608e-10 
89 1 0.231386 0.0183271 0.00707676 0.00555614 5.84737e-05 8.74775e-05 -1.13866e-10 1.56293e-10 4.36499e-11 5e-05 1.46608e-10 
90 1 0.231497 0.0185585 0.00690727 0.00566199 -6.66327e-05 0.000125619 2.34944e-11 -2.70911e-10 7.72901e-11 5e-05 1.46608e-10 
91 1 0.225262 0.0170739 0.00748686 0.00620319 -3.13485e-06 -0.000674697 -6.14765e-10 6.55936e-11 2.95276e-12 5e-05 1.46608e-10 
92 1 0.231247 0.0182188 0.00702749 0.00547328 -2.18174e-05 -5.44397e-05 -4.85101e-10 -5.51605e-10 -4.7348e-10 5e-05 1.46608e-10 
93 1 0.230961 0.0169593 0.00755894 0.0060394 -0.000324284 -0.000220657 -2.22962e-11 -6.07983e-12 -2.1892e-12 5e-05 1.46608e-10 
94 1 0.231371 0.0184352 0.00704856 0.00562728 -2.79605e-07 0.000121055 9.41629e-11 -3.28583e-10 1.10418e-10 5e-05 1.46608e-10 
95 1 0.231233 0.0180162 0.00718305 0.00563012 -2.07109e-05 0.000107874 9.31264e-11 -1.18433e-10 -4.33148e-11 5e-05 1.46608e-10 
96 1 0.231228 0.0181246 0.00705506 0.00542321 1.63601e-05 8.41571e-05 3.9782e-12 -1.05482e-10 -8.56495e-11 5e-05 1.46608e-10 
97 1 0.22467 0.0159759 0.00845671 0.00580976 3.41884e-05 -0.000665103 4.94201e-11 1.24019e-10 -1.57246e-10 5e-05 1.46608e-10 
98 1 0.230942 0.0168704 0.00760051 0.00605066 -0.000325938 -0.000219997 -5.70218e-11 2.77412e-11 -5.69338e-12 5e-05 1.46608e-10 
99 1 0.225224 0.0181022 0.00697516 0.00569095 0.000559935 -0.000270378 9.75867e-13 -2.86463e-11 -3.0425e-10 5e-05 1.46608e-10 
100 1 0.231436 0.0182801 0.00700406 0.00548144 1.89885e-05 8.38113e-05 -2.45926e-11 4.5863e-11 2.39486e-11 5e-05 1.46608e-10 
101 1 0.225243 0.0182002 0.00697374 0.00567783 0.000554582 -0.000215672 -1.98358e-10 -1.58647e-10 -3.3515e-11 5e-05 1.46608e-10 
102 1 0.0643568 0.0187248 0.00531097 4.42631e-15 1.04257e-14 8.29609e-14 -8.86479e-22 8.91287e-23 4.79765e-23 5e-05 1.46608e-10 
103 1 0.24257 0.0191927 0.00520306 2.29399e-22 4.86658e-23 1.23839e-22 0 0 0 5e-05 1.46608e-10 
104 1 0.225523 0.0183121 0.00696267 0.00562133 0.000579143 -0.000210396 1.27906e-10 -8.03151e-12 -7.24526e-12 5e-05 1.46608e-10 
105 1 0.224627 0.0158276 0.00858374 0.00574085 4.00402e-05 -0.000656887 -8.74156e-12 9.55414e-12 2.15192e-11 5e-05 1.46608e-10 
106 1 0.225293 0.0178344 0.00710022 0.00576569 0.000613586 3.94457e-05 -4.85375e-11 1.18713e-10 -2.51045e-10 5e-05 1.46608e-10 
107 1 0.224584 0.0156792 0.00871078 0.00571216 4.80566e-05 -0.000666451 -6.08548e-11 2.53305e-10 -1.25292e-10 5e-05 1.46608e-10 
108 1 0.231574 0.0184977 0.00693 0.00565863 -8.23035e-05 0.000129708 2.64602e-11 -3.44022e-10 1.42154e-10 5e-05 1.46608e-10 
109 1 0.231568 0.0180643 0.00708229 0.00555429 9.28834e-05 6.61045e-05 -4.59281e-11 2.31474e-10 -6.9713e-11 5e-05 1.46608e-10 
110 1 0.23111 0.01757 0.00725137 0.00582384 -0.000194916 -7.16485e-05 -6.43274e-11 -1.41233e-10 -3.29138e-10 5e-05 1.46608e-10 
111 1 0.231069 0.017393 0.00733496 0.00598004 -0.000313584 -0.000227171 -2.86684e-11 -7.17141e-11 8.06613e-11 5e-05 1.46608e-10 
112 1 0.224713 0.0161243 0.00832968 0.00583173 3.39486e-05 -0.000664753 -5.37538e-10 -3.37641e-12 9.58227e-11 5e-05 1.46608e-10 
113 1 0.225145 0.0177205 0.00704453 0.00580294 0.000562291 0.00011849 6.77901e-12 -1.76172e-11 3.11865e-11 5e-05 1.46608e-10 
114 1 0.225184 0.0179062 0.00698209 0.00585539 0.000535999 -8.52348e-05 6.23058e-11 1.95515e-11 3.17309e-10 5e-05 1.46608e-10 
115 1 0.231395 0.0176601 0.00722133 0.00582012 0.000106828 6.58594e-05 -8.3467e-12 1.63492e-10 -5.89374e-11 5e-05 1.46608e-10 
116 1 0.231404 0.0185256 0.00691719 0.00564262 -5.15734e-05 0.000120035 3.30847e-11 -4.52475e-11 2.77143e-11 5e-05 1.46608e-10 
117 1 0.231398 0.0180944 0.00706867 0.00557514 5.66291e-05 7.94435e-05 1.99572e-10 8.09859e-11 -9.95303e-12 5e-05 1.46608e-10 
118 1 0.225374 0.0175538 0.00714928 0.00586022 0.000589074 0.000106265 3.87292e-11 1.65068e-10 -6.14852e-11 5e-05 1.46608e-10 
119 1 0.231598 0.0185894 0.00689819 0.0057352 -3.00582e-05 0.000113057 4.7002e-11 -1.65346e-11 -9.02162e-12 5e-05 1.46608e-10 
120 1 0.231099 0.0171565 0.00744961 0.00599188 -0.000324271 -0.000216943 6.63799e-11 1.11978e-10 -5.84812e-11 5e-05 1.46608e-10 
121 1 0.231484 0.0189029 0.00682906 0.00574817 -4.52254e-05 -0.000145467 -2.0242e-10 6.15013e-11 6.757e-11 5e-05 1.46608e-10 
122 1 0.231209 0.0180318 0.00708734 0.00558878 -2.16115e-05 0.000109186 4.18122e-11 1.01211e-10 -3.13014e-11 5e-05 1.46608e-10 
123 1 0.225634 0.0183349 0.00695845 0.00562647 0.000596913 -0.000210422 1.88842e-10 -1.66951e-11 -1.21363e-11 5e-05 1.46608e-10 
124 1 0.230983 0.0170449 0.00751195 0.00601415 -0.000319329 -0.000221008 -1.43856e-11 -2.11944e-11 2.12705e-11 5e-05 1.46608e-10 
125 1 0.231303 0.0180631 0.00707803 0.00558158 1.09721e-06 0.000103266 1.55944e-10 6.66256e-11 -1.37668e-11 5e-05 1.46608e-10 
127 1 0.224649 0.0159018 0.00852023 0.00578038 3.81918e-05 -0.000663256 -3.56038e-10 1.03271e-10 3.38769e-12 5e-05 1.46608e-10 
128 1 0.230918 0.0167842 0.00764488 0.00604858 -0.00032492 -0.000220103 -5.5487e-11 3.86406e-11 -1.26524e-11 5e-05 1.46608e-10 
129 1 0.231279 0.0182048 0.00712124 0.00528983 4.7856e-06 2.45464e-05 4.99878e-10 -1.80569e-10 -4.15686e-10 5e-05 1.46608e-10 
130 1 0.225279 0.0179378 0.00697429 0.00581872 0.000611995 -0.000223426 3.23798e-10 6.84205e-11 -1.05424e-11 5e-05 1.46608e-10 
131 1 0.225299 0.0180362 0.00697292 0.00571955 0.000571405 -0.000170678 -1.56315e-11 -2.60159e-11 -9.21813e-12 5e-05 1.46608e-10 
132 1 0.2313 0.0176298 0.00723032 0.00584121 6.39838e-06 0.000101414 1.65273e-11 -8.56302e-11 2.91066e-11 5e-05 1.46608e-10 
133 1 0.231421 0.0186186 0.00688479 0.00566621 -5.94612e-05 0.000123501 7.99507e-11 -1.34036e-10 -4.59585e-12 5e-05 1.46608e-10 
134 1 0.231385 0.0184328 0.00694947 0.00558459 -3.47593e-05 0.000111355 -7.0331e-11 -4.78781e-12 3.22628e-11 5e-05 1.46608e-10 
135 1 0.231536 0.0183102 0.00699526 0.00560569 1.20797e-05 9.6006e-05 -2.35618e-11 1.29393e-11 -5.61672e-12 5e-05 1.46608e-10 
136 1 0.225243 0.0173526 0.00725919 0.00589687 0.000193893 -0.000804371 2.99164e-11 1.92922e-10 -1.91264e-10 5e-05 1.46608e-10 
137 1 0.231255 0.018112 0.00715048 0.00550362 1.26893e-05 5.44461e-05 -2.06749e-13 -4.3852e-12 -2.07449e-10 5e-05 1.46608e-10 
138 1 0.231286 0.0184076 0.00699403 0.00543665 -4.96639e-06 0.000116746 1.38161e-10 -4.46599e-12 7.4357e-11 5e-05 1.46608e-10 
140 1 0.23117 0.0178465 0.00715182 0.0056565 -5.62858e-05 0.000119868 -7.80619e-11 4.96821e-11 -1.10357e-11 5e-05 1.46608e-10 
141 1 0.225077 0.0167555 0.00776962 0.00604482 -2.65054e-05 -0.000636845 8.33175e-11 -1.93186e-10 1.50383e-10 5e-05 1.46608e-10 
142 1 0.225447 0.0179033 0.00696926 0.00574044 0.000595663 9.55996e-05 1.75783e-10 -5.56521e-12 1.30183e-12 5e-05 1.46608e-10 
143 1 0.224606 0.0157533 0.00864727 0.00572112 4.57455e-05 -0.000663183 5.67254e-11 1.31347e-10 -9.96267e-11 5e-05 1.46608e-10 
144 1 0.225412 0.0177284 0.00705946 0.005801 0.00059381 9.99855e-05 -2.70081e-10 9.09318e-11 -1.06384e-10 5e-05 1.46608e-10 
146 1 0.224758 0.0162724 0.00820276 0.00587311 3.23591e-05 -0.000665219 2.55559e-10 -9.30577e-11 1.9193e-11 5e-05 1.46608e-10 
147 1 0.225258 0.0178391 0.0069897 0.00581989 0.000567584 9.11131e-05 -2.09651e-10 -7.83058e-11 -8.49463e-11 5e-05 1.46608e-10 
148 1 0.225098 0.0168297 0.0077061 0.00605465 -3.33213e-05 -0.000632302 2.57136e-11 -2.44459e-10 1.98392e-10 5e-05 1.46608e-10 
149 1 0.231026 0.0172189 0.00742345 0.00599561 -0.000318211 -0.000220596 -5.32609e-11 -5.38408e-11 3.54055e-11 5e-05 1.46608e-10 
150 1 0.225605 0.0185963 0.00695763 0.00566598 0.000578036 -0.000212143 -8.93313e-11 2.85749e-10 4.18139e-12 5e-05 1.46608e-10 
151 1 0.22538 0.0184481 0.00696697 0.00564903 0.000577867 -0.000212273 -1.5183e-10 -1.53745e-10 -2.92545e-11 5e-05 1.46608e-10 
153 1 0.225121 0.016905 0.00764156 0.00610284 -3.91642e-05 -0.000632889 -2.26523e-10 1.06548e-10 -6.37754e-11 5e-05 1.46608e-10 
154 1 0.224735 0.0161985 0.00826616 0.00586822 3.13248e-05 -0.000666936 2.82692e-11 -1.3584e-11 -2.35985e-11 5e-05 1.46608e-10 
155 1 0.22478 0.0163464 0.00813929 0.0059028 2.78537e-05 -0.000665372 -1.12046e-10 -1.10562e-10 1.21294e-10 5e-05 1.46608e-10 
156 1 0.225055 0.0166813 0.00783313 0.00602091 -1.58852e-05 -0.000642842 2.16446e-10 -2.70886e-10 1.97563e-10 5e-05 1.46608e-10 
157 1 0.0219312 0.0187687 0.00551176 -3.82637e-14 8.16881e-14 2.95891e-13 1.45248e-21 8.42897e-22 -4.85969e-23 5e-05 1.46608e-10 
158 1 0.225164 0.0170533 0.00751453 0.00611345 7.50459e-06 -0.000673244 -3.32201e-10 3.15235e-10 -2.32474e-10 5e-05 1.46608e-10 
159 1 0.23132 0.0177224 0.0071981 0.00575836 4.41375e-05 8.67285e-05 -2.59881e-11 -1.26922e-11 4.19957e-12 5e-05 1.46608e-10 
160 1 0.225262 0.0182983 0.00697233 0.0056594 0.00055096 -0.000210672 -9.83917e-11 -2.57498e-10 8.33333e-11 5e-05 1.46608e-10 
162 1 0.225265 0.018073 0.00706122 0.00561462 0.000617152 -0.000221531 -2.82925e-10 -1.24997e-10 -1.38406e-10 5e-05 1.46608e-10 
164 1 0.224842 0.0165693 0.00794864 0.00595649 1.60478e-05 -0.000662554 -2.33685e-10 1.71947e-11 1.45906e-11 5e-05 1.46608e-10 
165 1 0.225467 0.0184971 0.00696342 0.00567189 0.000564384 -0.000211959 -1.27854e-10 -3.00432e-11 2.48751e-12 5e-05 1.46608e-10 
166 1 0.231301 0.0184833 0.00693024 0.00557868 -2.80517e-05 0.000109613 -1.90336e-10 -1.6053e-10 7.28613e-11 5e-05 1.46608e-10 
167 1 0.225351 0.0187407 0.00696595 0.00567686 0.000562995 -0.000212548 8.02862e-12 2.17572e-10 -3.47479e-12 5e-05 1.46608e-10 
168 1 0.225686 0.0185364 0.00695511 0.00562876 0.000554832 -0.000210778 9.11158e-11 3.73822e-10 -4.8434e-12 5e-05 1.46608e-10 
169 1 0.225524 0.0186542 0.00696021 0.00565525 0.000544118 -0.000211215 -3.96416e-11 3.16977e-10 -2.61749e-12 5e-05 1.46608e-10 
170 1 0.225426 0.018675 0.00696365 0.00565995 0.000541648 -0.000211904 -6.4967e-11 1.64745e-10 -5.07055e-13 5e-05 1.46608e-10 
171 1 0.231541 0.0187438 0.00684288 0.00570803 -6.16085e-05 0.00012568 -4.49232e-11 2.08484e-10 -1.28973e-10 5e-05 1.46608e-10 
172 1 0.225127 0.0176331 0.0070895 0.00575605 0.00057004 0.00011178 9.90241e-13 8.21877e-11 -4.24641e-11 5e-05 1.46608e-10 
173 1 0.231478 0.0186385 0.00696417 0.00567008 -6.34039e-05 0.00012278 6.42778e-11 -2.85429e-10 9.16313e-11 5e-05 1.46608e-10 
174 1 0.224885 0.0167178 0.00782158 0.00598694 -1.08606e-05 -0.000643293 1.74896e-11 -9.93321e-11 8.85403e-11 5e-05 1.46608e-10 
176 1 0.225184 0.0174927 0.00717569 0.00571848 0.000446116 -0.000241295 -1.40784e-10 2.75217e-10 1.27393e-10 5e-05 1.46608e-10 
177 1 0.224875 0.0163647 0.00811389 0.0059107 3.32999e-05 -0.000671911 1.60827e-10 1.01734e-10 -9.95501e-11 5e-05 1.46608e-10 
178 1 0.225175 0.0178084 0.00711626 0.00595974 0.000641578 3.9418e-05 -1.76299e-10 1.40613e-10 2.28324e-10 5e-05 1.46608e-10 
179 1 0.225277 0.0183649 0.00704549 0.00561856 0.000582227 -0.000229801 4.24944e-13 -1.88404e-10 -8.91781e-11 5e-05 1.46608e-10 
182 1 0.231559 0.0188386 0.00681319 0.00576266 -8.53127e-05 -0.00016017 -4.73955e-10 -2.01465e-10 -4.30593e-11 5e-05 1.46608e-10 
183 1 0.225214 0.0178913 0.00707638 0.00583883 0.000644616 -8.6053e-05 -6.33558e-10 3.66526e-11 4.82864e-10 5e-05 1.46608e-10 
184 1 0.231348 0.0185605 0.00699255 0.00562763 -3.99965e-05 0.000112854 8.98071e-11 1.8263e-10 3.88728e-11 5e-05 1.46608e-10 
185 1 0.225429 0.017816 0.0070142 0.00580093 0.000590183 0.000101964 -8.81276e-11 6.28384e-11 -4.42245e-11 5e-05 1.46608e-10 
186 1 0.225701 0.0182542 0.00695655 0.0056439 0.000616208 -0.000211414 -1.91696e-10 -1.61863e-10 5.21695e-12 5e-05 1.46608e-10 
187 1 0.231446 0.0187116 0.00685256 0.00569774 -6.77443e-05 0.000125802 8.73899e-11 1.66698e-10 -6.45077e-11 5e-05 1.46608e-10 
188 1 0.231284 0.0179703 0.00711032 0.00561802 7.99688e-06 9.54318e-05 -5.13278e-11 -8.63346e-11 5.6209e-12 5e-05 1.46608e-10 
189 1 0.231394 0.0189436 0.0068401 0.00571716 -2.16471e-05 -0.000128079 1.74581e-10 4.79595e-10 1.42204e-10 5e-05 1.46608e-10 
190 1 0.21925 0.0182467 0.00705545 0.00540518 -0.000448359 0.00026709 -1.65616e-14 1.50853e-11 -2.22811e-12 5e-05 1.46608e-10 
191 1 0.231048 0.0173059 0.00737921 0.00598756 -0.00031575 -0.000219768 -6.47798e-11 -6.51147e-11 7.81825e-11 5e-05 1.46608e-10 
192 1 0.225165 0.0178145 0.00701693 0.00582861 0.000604679 6.1463e-05 -1.7476e-10 -3.26312e-10 -8.82559e-11 5e-05 1.46608e-10 
193 1 0.231617 0.018683 0.00686563 0.00572084 -5.16059e-05 0.000120773 -4.09091e-10 -1.57767e-11 -3.54413e-11 5e-05 1.46608e-10 
194 1 0.225355 0.01803 0.00705696 0.00567376 0.000736698 -9.76748e-05 -6.17267e-11 -3.34579e-11 -8.57539e-11 5e-05 1.46608e-10 
195 1 0.225432 0.01827 0.0069663 0.00563598 0.000555763 -0.000210778 -7.1061e-11 8.71674e-11 2.83703e-11 5e-05 1.46608e-10 
196 1 0.225396 0.018071 0.00696924 0.00567635 0.000549165 -0.00014534 -7.38474e-11 3.93307e-11 -7.13999e-11 5e-05 1.46608e-10 
197 1 0.218937 0.0168181 0.00754676 0.00601776 -0.000699111 0.000147848 8.98867e-11 2.32379e-12 -9.8541e-12 5e-05 1.46608e-10 
198 1 0.225319 0.0172981 0.00729594 0.00597461 0.000157176 -0.000549594 2.86739e-10 1.73878e-10 4.43593e-11 5e-05 1.46608e-10 
199 1 0.22521 0.0179912 0.00707576 0.00567005 0.000593672 -0.000289172 2.86778e-12 3.58052e-10 -1.3796e-10 5e-05 1.46608e-10 
200 1 0.224692 0.0160501 0.00839322 0.0058027 3.62129e-05 -0.000662229 -2.21393e-11 3.2046e-11 -8.65573e-11 5e-05 1.46608e-10 
201 1 0.225462 0.0183914 0.00696435 0.00562348 0.000567491 -0.000210728 2.62447e-11 -4.98399e-11 1.01462e-11 5e-05 1.46608e-10 
202 1 0.225185 0.0171275 0.00745101 0.00616885 -1.51479e-07 -0.000672673 2.42417e-11 4.25648e-10 -2.89112e-10 5e-05 1.46608e-10 
203 1 0.23136 0.0183413 0.00698119 0.00548285 3.6842e-05 8.68082e-05 1.47236e-10 1.42045e-10 1.08291e-10 5e-05 1.46608e-10 
204 1 0.225491 0.0181032 0.00696534 0.00566554 0.000577321 -0.0002277 -2.77054e-10 2.22903e-10 2.39252e-11 5e-05 1.46608e-10 
205 1 0.225023 0.0168844 0.00766912 0.00603521 -4.76387e-05 -0.000618486 2.31294e-10 -3.69403e-11 1.27993e-11 5e-05 1.46608e-10 
206 1 0.225067 0.0170333 0.00754167 0.00605669 -1.43508e-05 -0.000649117 2.69149e-10 -1.13188e-10 4.56354e-11 5e-05 1.46608e-10 
207 1 0.224937 0.0165876 0.00792322 0.0059576 8.50159e-06 -0.0006561 -1.72016e-10 5.13303e-11 -2.35985e-11 5e-05 1.46608e-10 
208 1 0.225355 0.0174665 0.00719414 0.00589112 0.000586914 0.000114533 -8.1958e-11 1.5408e-10 -1.09821e-10 5e-05 1.46608e-10 
209 1 0.225279 0.0175218 0.0071594 0.00591049 0.000627586 9.31074e-05 9.83491e-11 -8.85142e-11 -3.29672e-11 5e-05 1.46608e-10 
210 1 0.231143 0.0173305 0.00736109 0.00594382 -0.000338679 -0.000207811 -4.96816e-11 -7.12782e-11 6.52812e-11 5e-05 1.46608e-10 
211 1 0.231165 0.0174185 0.00731638 0.00603007 -0.000219284 -0.000270955 -2.82537e-11 -2.25518e-11 -2.61286e-11 5e-05 1.46608e-10 
212 1 0.225562 0.0184043 0.0069606 0.00561578 0.000579805 -0.000210289 2.82316e-10 9.31337e-11 -8.40479e-12 5e-05 1.46608e-10 
213 1 0.231374 0.0188461 0.00682913 0.00570778 -5.19651e-05 0.000123858 4.25839e-11 3.18547e-10 1.56559e-10 5e-05 1.46608e-10 
214 1 0.231245 0.0177844 0.00717496 0.00570786 -9.16797e-06 0.00010451 2.15915e-11 5.38324e-11 -1.18247e-11 5e-05 1.46608e-10 
215 1 0.219157 0.0177635 0.00713676 0.00550484 -0.000466756 0.000272455 -2.39706e-12 -2.46522e-11 -4.71635e-12 5e-05 1.46608e-10 
216 1 0.224916 0.0165134 0.00798675 0.00595 2.04167e-05 -0.00066498 -1.21125e-10 -2.95184e-11 3.7911e-11 5e-05 1.46608e-10 
217 1 0.231635 0.0187762 0.0068332 0.00571108 -8.53426e-05 0.000136322 -1.1404e-10 3.59533e-10 -7.11893e-11 5e-05 1.46608e-10 
218 1 0.225204 0.0180041 0.00697676 0.00571526 0.000552611 -0.000290302 1.28565e-10 -2.71078e-11 -3.01577e-10 5e-05 1.46608e-10 
219 1 0.231004 0.0171319 0.00746771 0.00599761 -0.000316505 -0.000220901 -4.6073e-11 -2.0836e-11 1.46927e-11 5e-05 1.46608e-10 
220 1 0.225318 0.0181342 0.00697145 0.00569783 0.00057251 -0.000214508 -1.09752e-10 5.50397e-11 2.10701e-10 5e-05 1.46608e-10 
222 1 0.231473 0.0180329 0.00709166 0.00556744 6.86205e-05 7.49382e-05 1.3936e-10 -1.22672e-10 4.78784e-11 5e-05 1.46608e-10 
224 1 0.22511 0.0171817 0.00741461 0.00615445 -3.27544e-06 -0.00066504 4.33533e-11 2.43127e-10 -1.65858e-10 5e-05 1.46608e-10 
225 1 0.23109 0.0174806 0.00729179 0.00594764 -0.000310971 -0.000255135 -1.56081e-11 -1.7508e-10 -2.61901e-10 5e-05 1.46608e-10 
226 1 0.225255 0.0177429 0.00713355 0.00584737 0.000586904 8.3353e-05 -1.36486e-10 1.88145e-10 1.51997e-10 5e-05 1.46608e-10 
227 1 0.219172 0.0178579 0.0071075 0.00550977 -0.000467211 0.000273547 -1.22234e-11 -2.33688e-11 1.95745e-12 5e-05 1.46608e-10 
228 1 0.219112 0.0175695 0.00714606 0.00550144 -0.000466104 0.000273182 4.70017e-11 1.10323e-11 1.06033e-11 5e-05 1.46608e-10 
229 1 0.225654 0.0184413 0.00695693 0.0055981 0.000588845 -0.000209492 3.53033e-10 1.17245e-10 -1.21669e-11 5e-05 1.46608e-10 
230 1 0.225014 0.0171629 0.00744051 0.00607967 -2.0622e-05 -0.000642575 -9.93323e-12 2.20882e-10 -1.41652e-10 5e-05 1.46608e-10 
232 1 0.225285 0.0182442 0.00705337 0.00566071 0.000563086 -0.000203288 -8.7205e-11 -5.84504e-10 7.22333e-11 5e-05 1.46608e-10 
233 1 0.225331 0.0186427 0.00696737 0.00568023 0.000568278 -0.000212755 -4.03906e-11 3.38225e-11 1.77489e-11 5e-05 1.46608e-10 
234 1 0.231329 0.018049 0.00717364 0.00558011 -1.199e-05 0.000101077 1.33689e-10 1.3875e-10 1.3068e-12 5e-05 1.46608e-10 
235 1 0.224971 0.0170145 0.00756753 0.00607229 -3.52668e-05 -0.000631654 -1.95345e-10 1.86837e-11 -3.46253e-11 5e-05 1.46608e-10 
236 1 0.225072 0.0173869 0.00724953 0.00580906 3.77138e-05 -0.000679022 -1.76801e-11 -2.59614e-10 -3.96002e-10 5e-05 1.46608e-10 
237 1 0.22509 0.0174619 0.00718571 0.00586315 5.80879e-05 -0.000688423 3.82311e-11 1.37478e-10 -8.74929e-11 5e-05 1.46608e-10 
239 1 0.218829 0.0164456 0.00786226 0.00592528 -0.000677758 0.000136786 -7.67915e-11 8.84911e-12 -3.44802e-12 5e-05 1.46608e-10 
240 1 0.218894 0.0166691 0.00767296 0.00597615 -0.000687491 0.00014115 -1.30217e-10 5.18905e-11 -3.45492e-11 5e-05 1.46608e-10 
241 1 0.218808 0.0163711 0.00792536 0.00590437 -0.000678637 0.000139114 6.47436e-11 -3.23407e-11 2.38817e-11 5e-05 1.46608e-10 
242 1 0.22524 0.0169997 0.00755038 0.00622568 9.7351e-05 -0.000758286 -3.92241e-10 5.30995e-10 -4.04751e-10 5e-05 1.46608e-10 
243 1 0.225376 0.0179733 0.00697732 0.00569577 0.000558017 3.07362e-05 5.89139e-11 7.63985e-12 -1.50043e-10 5e-05 1.46608e-10 
244 1 0.218851 0.0165201 0.00779915 0.00595197 -0.000680744 0.000137436 8.68842e-11 7.9505e-12 -1.75482e-11 5e-05 1.46608e-10 
246 1 0.219036 0.0171992 0.00723912 0.00549212 -0.000504248 0.000227703 8.45018e-11 -1.12876e-11 3.02082e-11 5e-05 1.46608e-10 
247 1 0.224906 0.016792 0.00775807 0.00600392 -1.97748e-05 -0.000637894 5.15542e-11 -1.35796e-10 1.14677e-10 5e-05 1.46608e-10 
248 1 0.225221 0.0176641 0.00707984 0.0057966 0.000605075 8.65854e-05 -3.5152e-10 5.1916e-11 -3.2967e-11 5e-05 1.46608e-10 
249 1 0.218978 0.0169675 0.00742038 0.0059227 -0.000682412 0.000140973 9.9627e-12 -1.67243e-11 1.84166e-11 5e-05 1.46608e-10 
250 1 0.22498 0.0167361 0.00779616 0.00600338 -2.51832e-05 -0.000633705 4.30722e-10 -7.90226e-11 1.77764e-11 5e-05 1.46608e-10 
251 1 0.231341 0.0182485 0.00701349 0.00549795 2.50275e-05 9.45342e-05 4.32784e-11 9.57331e-11 1.38649e-10 5e-05 1.46608e-10 
252 1 0.219053 0.0172814 0.00718457 0.00576909 -0.000517569 0.000290497 1.22898e-11 1.95717e-11 9.0331e-12 5e-05 1.46608e-10 
253 1 0.21923 0.0181495 0.00706846 0.00537099 -0.000439924 0.000264686 -6.18528e-12 2.64476e-11 -3.99218e-12 5e-05 1.46608e-10 
254 1 0.218999 0.0170422 0.0073572 0.0057172 -0.000640763 0.000121544 5.37758e-12 -2.63471e-11 2.01082e-11 5e-05 1.46608e-10 
255 1 0.224541 0.0155308 0.00883781 0.00566935 5.1222e-05 -0.000658114 1.08975e-10 2.24502e-10 -2.02198e-10 5e-05 1.46608e-10 
256 1 0.225584 0.0181394 0.00696167 0.00567795 0.000585094 -0.000210104 -2.43818e-10 9.43469e-11 3.05636e-11 5e-05 1.46608e-10 
257 1 0.225142 0.0169791 0.00757804 0.0060887 5.14642e-06 -0.000667449 -1.0667e-10 7.66664e-11 -5.24237e-11 5e-05 1.46608e-10 
258 1 0.225202 0.0175803 0.0071307 0.00579796 0.000546795 -1.63308e-05 -2.15222e-10 2.54216e-10 1.84574e-10 5e-05 1.46608e-10 
259 1 0.219073 0.0173784 0.00717161 0.00568555 -0.000501155 0.000285226 -5.54268e-11 4.68336e-11 -4.93431e-12 5e-05 1.46608e-10 