ITEM: TIMESTEP
54000000
ITEM: NUMBER OF ATOMS
275
ITEM: BOX BOUNDS ff ff ff
-0.02 0.43
-0.02 0.06
-0.02 0.07
ITEM: ATOMS id type x y z vx vy vz fx fy fz radius mass 
1 1 0.328056 0.0178659 0.00713343 0.00617397 0.000138276 -0.000363073 3.73811e-11 2.7253e-10 -4.43483e-11 5e-05 1.46608e-10 
2 1 0.327731 0.016817 0.00762063 0.00614376 0.000459996 0.000539746 1.37443e-10 1.21137e-10 8.61652e-11 5e-05 1.46608e-10 
4 1 0.327884 0.0167835 0.00755969 0.00611532 0.000407652 0.00056356 8.38489e-11 4.8532e-11 -3.47042e-11 5e-05 1.46608e-10 
5 1 0.327458 0.0158032 0.00831521 0.0056249 0.000154964 0.000117714 -1.45238e-10 9.29826e-11 -9.39388e-11 5e-05 1.46608e-10 
6 1 0.33385 0.0173929 0.00737545 0.00602829 7.0388e-05 8.76369e-05 4.49093e-13 4.09025e-13 -2.71694e-13 5e-05 1.46608e-10 
7 1 0.328035 0.0173734 0.00721285 0.00616365 0.000214944 -0.000365053 -1.98974e-10 1.79167e-10 2.82885e-10 5e-05 1.46608e-10 
8 1 0.327748 0.0165907 0.00768075 0.00583854 0.000488047 0.00047663 1.01047e-11 -1.12382e-11 9.93886e-11 5e-05 1.46608e-10 
9 1 0.334061 0.0182856 0.00697716 0.00576057 0.000114321 6.25415e-05 1.17445e-12 -1.25674e-13 -1.08561e-14 5e-05 1.46608e-10 
10 1 0.327709 0.0164304 0.00779382 0.00552487 0.000383572 0.000207884 5.18133e-12 -1.68706e-12 8.68894e-11 5e-05 1.46608e-10 
11 1 0.328004 0.0176309 0.00725371 0.00624839 0.000201902 -0.000373927 -6.50562e-11 2.01328e-10 -2.60712e-10 5e-05 1.46608e-10 
12 1 0.322078 0.0171844 0.00736377 0.00592442 -0.000811735 -3.05426e-05 -1.74382e-10 1.16094e-10 -4.39097e-11 5e-05 1.46608e-10 
13 1 0.327438 0.0157286 0.00837871 0.00562246 0.000156288 0.000115615 1.16913e-10 1.3911e-10 -8.70293e-11 5e-05 1.46608e-10 
14 1 0.322003 0.0175846 0.00718061 0.00609605 -0.000772993 -6.60139e-05 -2.07206e-10 -7.27944e-11 -5.94048e-12 5e-05 1.46608e-10 
16 1 0.322198 0.0180874 0.00693784 0.00564049 -0.000648561 0.000248077 4.77405e-10 -9.10523e-11 2.08074e-10 5e-05 1.46608e-10 
17 1 0.327556 0.0161766 0.00799732 0.00555081 0.000193415 8.00482e-05 -1.07412e-10 -1.67156e-11 6.51044e-11 5e-05 1.46608e-10 
19 1 0.327418 0.015654 0.00844221 0.00561249 0.000166152 0.00010744 -6.4833e-11 9.37267e-11 -9.57403e-11 5e-05 1.46608e-10 
21 1 0.328057 0.0175982 0.00717591 0.00625612 0.00015106 -0.000364245 4.42185e-11 -1.60299e-10 1.75398e-11 5e-05 1.46608e-10 
22 1 0.327976 0.0167581 0.00759104 0.00615256 0.000500325 0.000502245 -2.77445e-11 -1.39959e-10 9.57707e-11 5e-05 1.46608e-10 
23 1 0.32227 0.0178616 0.00703158 0.00546488 -0.000613352 -8.68892e-05 -3.30016e-10 -4.73233e-11 1.73296e-10 5e-05 1.46608e-10 
24 1 0.33398 0.0179279 0.00713682 0.00611856 5.30874e-05 9.72287e-05 -1.624e-13 3.9292e-13 -4.49998e-13 5e-05 1.46608e-10 
25 1 0.32769 0.0163517 0.00785226 0.00556429 0.000251658 3.5553e-05 -2.45636e-11 5.48366e-11 4.15974e-11 5e-05 1.46608e-10 
26 1 0.334023 0.0181063 0.00705727 0.00614867 4.73485e-05 0.000100418 -4.21745e-13 4.77616e-13 -2.52196e-13 5e-05 1.46608e-10 
27 1 0.321863 0.0170533 0.00745814 0.00593569 -0.000687274 0.00013052 -9.79174e-11 1.53399e-10 1.90902e-10 5e-05 1.46608e-10 
28 1 0.327715 0.016801 0.00752324 0.006134 0.000425212 0.000550835 5.93694e-11 1.9882e-10 -8.615e-11 5e-05 1.46608e-10 
29 1 0.327398 0.0155794 0.00850571 0.00560424 0.000168716 0.000104541 1.22841e-10 2.06389e-10 -1.79112e-10 5e-05 1.46608e-10 
30 1 0.327634 0.0164782 0.00774652 0.00558918 0.000475656 0.00044122 -9.46647e-11 2.45122e-10 -1.98715e-10 5e-05 1.46608e-10 
31 1 0.328144 0.0174267 0.00719834 0.0062305 0.00022025 -0.00038064 -3.16892e-11 9.18288e-11 -4.67603e-12 5e-05 1.46608e-10 
32 1 0.327576 0.0162513 0.00793379 0.00556511 0.0002009 7.78262e-05 1.59122e-10 -1.74386e-10 6.94838e-11 5e-05 1.46608e-10 
33 1 0.333872 0.017482 0.00733568 0.00604331 6.74957e-05 8.92593e-05 4.08532e-13 5.29135e-13 8.90375e-14 5e-05 1.46608e-10 
34 1 0.327536 0.016102 0.00806089 0.00552554 0.000188165 8.2797e-05 1.80862e-11 2.22428e-12 1.04174e-11 5e-05 1.46608e-10 
35 1 0.327991 0.0171863 0.00728189 0.00629495 0.000343747 0.000642176 2.48165e-10 1.68311e-10 -1.12494e-10 5e-05 1.46608e-10 
36 1 0.334115 0.0185551 0.00685676 0.00564557 0.000118194 5.85169e-05 6.71228e-13 -3.39633e-12 1.52566e-12 5e-05 1.46608e-10 
37 1 0.327863 0.016703 0.0076153 0.00612764 0.000407251 0.000567668 -1.14061e-11 -2.25698e-11 2.74957e-11 5e-05 1.46608e-10 
38 1 0.327946 0.0170259 0.00739217 0.0061954 0.000368113 0.000602144 1.65452e-10 1.86708e-11 -6.59368e-11 5e-05 1.46608e-10 
39 1 0.334001 0.0180171 0.00709704 0.00613361 5.02204e-05 9.8817e-05 -4.52642e-13 6.12534e-13 1.49013e-14 5e-05 1.46608e-10 
41 1 0.327497 0.0159526 0.00818804 0.00547987 0.000175326 9.35705e-05 -7.87706e-11 -2.35781e-11 3.23082e-11 5e-05 1.46608e-10 
42 1 0.328037 0.0169996 0.00742413 0.00626945 0.000515642 0.000508439 2.74688e-10 -6.44019e-11 8.22577e-11 5e-05 1.46608e-10 
44 1 0.328082 0.01716 0.00731384 0.00642073 0.000564285 0.000491108 1.81366e-10 9.17905e-11 -2.55142e-11 5e-05 1.46608e-10 
45 1 0.333893 0.0175712 0.0072959 0.00605836 6.46014e-05 9.08621e-05 3.68261e-13 4.29455e-13 -7.51162e-14 5e-05 1.46608e-10 
47 1 0.327517 0.0160273 0.00812446 0.00550508 0.000182311 8.88362e-05 -5.52192e-12 -3.2433e-11 4.27672e-13 5e-05 1.46608e-10 
48 1 0.327886 0.0175067 0.00721028 0.00621625 0.00018693 -0.000336928 1.60439e-10 -2.41891e-10 5.87332e-10 5e-05 1.46608e-10 
49 1 0.334079 0.0183754 0.00693707 0.0058168 0.000105204 6.77625e-05 1.05407e-12 -1.44432e-13 -4.41038e-15 5e-05 1.46608e-10 
50 1 0.327595 0.0163263 0.00787063 0.00557786 0.0001773 4.3703e-05 9.10894e-11 -2.78889e-10 3.49632e-11 5e-05 1.46608e-10 
51 1 0.328136 0.017529 0.00718257 0.0063074 0.000211368 -0.000381645 2.90755e-10 1.38045e-10 -1.79911e-10 5e-05 1.46608e-10 
52 1 0.322284 0.017537 0.00718341 0.00618223 -0.00068188 -0.00011003 2.65887e-10 1.60225e-10 -8.88202e-11 5e-05 1.46608e-10 
53 1 0.333937 0.0177496 0.00721636 0.00608846 5.88353e-05 9.40588e-05 2.40623e-13 3.06182e-13 -3.98138e-13 5e-05 1.46608e-10 
54 1 0.328047 0.018222 0.00707735 0.00612663 0.000179226 -0.000367423 3.65302e-11 9.99841e-11 -2.05973e-11 5e-05 1.46608e-10 
55 1 0.322021 0.0173363 0.00729622 0.00599449 -0.000811787 -3.67365e-05 -1.70302e-10 8.67523e-11 -9.13406e-12 5e-05 1.46608e-10 
56 1 0.328068 0.0183183 0.00706088 0.0057073 0.000275163 -0.000359136 -2.8549e-11 5.78743e-11 -9.10232e-12 5e-05 1.46608e-10 
57 1 0.333915 0.0176604 0.00725613 0.00607343 6.16992e-05 9.2426e-05 -3.4908e-14 4.98889e-13 -5.48858e-13 5e-05 1.46608e-10 
59 1 0.378022 0.019866 0.005332 -5.01942e-15 -7.41199e-15 7.69803e-14 -5.36375e-24 3.98081e-24 0 5e-05 1.46608e-10 
60 1 0.328105 0.0172403 0.00725864 0.00483422 0.000747684 0.000129582 1.68293e-10 3.48288e-11 2.02327e-11 5e-05 1.46608e-10 
61 1 0.327478 0.0158779 0.00825165 0.00543228 0.00017803 8.90395e-05 -7.82604e-11 4.60117e-11 -5.66548e-11 5e-05 1.46608e-10 
62 1 0.327965 0.0171066 0.00733612 0.00622631 0.000359102 0.000614856 3.16354e-10 1.59126e-10 -6.16591e-11 5e-05 1.46608e-10 
63 1 0.328079 0.0179632 0.00711673 0.00619503 0.000181473 -0.000371616 -1.03928e-10 -1.04584e-11 1.22872e-11 5e-05 1.46608e-10 
64 1 0.333958 0.0178388 0.00717659 0.0061035 5.59656e-05 9.56468e-05 -2.3121e-14 5.07142e-13 2.608e-14 5e-05 1.46608e-10 
65 1 0.321981 0.0174968 0.00722343 0.00597878 -0.000751917 -6.53462e-05 7.09004e-11 8.96723e-12 2.87358e-11 5e-05 1.46608e-10 
66 1 0.322337 0.018134 0.00702938 0.00561849 -0.000522954 0.000258682 -2.47488e-10 -1.49595e-10 2.25003e-10 5e-05 1.46608e-10 
67 1 0.328094 0.0176897 0.00715933 0.00623852 0.000158283 -0.000368562 8.06699e-11 -1.1591e-10 2.76894e-11 5e-05 1.46608e-10 
68 1 0.327852 0.0169931 0.00740285 0.00618588 0.000417653 0.000565224 2.95117e-11 6.49749e-12 7.64083e-12 5e-05 1.46608e-10 
69 1 0.32819 0.0177195 0.00714929 0.00622524 0.00018953 -0.000371267 1.81083e-10 -1.30479e-10 1.76695e-11 5e-05 1.46608e-10 
70 1 0.334042 0.0181959 0.00701726 0.00570433 0.000123434 5.73164e-05 1.21197e-12 -1.0323e-13 1.57607e-13 5e-05 1.46608e-10 
71 1 0.322379 0.0180976 0.00694604 0.00556745 -0.000536564 0.000254776 9.77312e-11 -2.80463e-10 5.40103e-11 5e-05 1.46608e-10 
72 1 0.328143 0.0182523 0.00706723 0.00572678 0.000293217 -0.000363093 -8.71458e-11 6.94337e-11 -5.92931e-12 5e-05 1.46608e-10 
73 1 0.328019 0.0169189 0.00748017 0.00621341 0.000501097 0.000509917 1.59052e-10 5.36372e-11 -1.05351e-11 5e-05 1.46608e-10 
74 1 0.327615 0.016402 0.0078083 0.00556674 0.00015179 1.04606e-05 -4.61148e-11 -2.87576e-11 3.4124e-10 5e-05 1.46608e-10 
76 1 0.321885 0.0171327 0.00740154 0.00594588 -0.000780597 7.40744e-06 -1.99933e-11 1.73917e-10 2.18071e-10 5e-05 1.46608e-10 
77 1 0.327735 0.016902 0.00756498 0.00616772 0.000404136 0.000578386 4.72856e-12 1.01371e-10 1.9008e-10 5e-05 1.46608e-10 
78 1 0.321442 0.015674 0.00827157 0.00563238 -0.000516963 0.000419196 1.42919e-11 -1.78932e-11 2.21358e-11 5e-05 1.46608e-10 
79 1 0.32229 0.0185388 0.0069456 0.00556673 -0.000458488 0.00024717 8.47449e-11 2.18397e-11 1.1708e-11 5e-05 1.46608e-10 
80 1 0.32781 0.0168322 0.0075138 0.00613537 0.000420114 0.000557001 -2.4498e-11 1.33195e-11 1.28164e-11 5e-05 1.46608e-10 
82 1 0.322176 0.0180683 0.00703335 0.00559774 -0.000653302 0.00023997 2.27969e-10 2.30706e-10 -5.84346e-11 5e-05 1.46608e-10 
83 1 0.322099 0.0172745 0.00731989 0.00591636 -0.000769057 -5.05597e-05 1.8597e-10 1.24703e-10 -7.43191e-11 5e-05 1.46608e-10 
84 1 0.334097 0.0184651 0.00689697 0.00587302 9.60761e-05 7.2992e-05 9.20325e-13 -9.32126e-14 9.66886e-14 5e-05 1.46608e-10 
85 1 0.322305 0.0183397 0.00694467 0.0053832 -0.000472566 0.000239253 2.57903e-10 3.97639e-11 3.46946e-11 5e-05 1.46608e-10 
86 1 0.328056 0.0170803 0.00736807 0.00631112 0.000528313 0.000503016 8.2275e-11 1.53747e-10 -1.21253e-10 5e-05 1.46608e-10 
87 1 0.327789 0.0167518 0.00756941 0.00612493 0.000423573 0.000555165 -8.29964e-11 -4.71259e-12 -3.70506e-11 5e-05 1.46608e-10 
88 1 0.328001 0.0173501 0.00730482 0.00729594 -0.00134518 -0.00751527 1.60227e-10 -3.19527e-10 -3.93708e-10 5e-05 1.46608e-10 
89 1 0.328174 0.0179929 0.00710671 0.0061998 0.000207981 -0.000374458 -1.39095e-10 -2.32662e-12 9.74384e-12 5e-05 1.46608e-10 
90 1 0.328116 0.0177864 0.00714275 0.00620088 0.000165696 -0.000369649 1.40487e-10 -1.93417e-11 -1.6974e-11 5e-05 1.46608e-10 
91 1 0.321984 0.0171563 0.00738352 0.00596237 -0.000797423 -4.13974e-05 -1.20258e-10 8.38253e-11 -4.4865e-11 5e-05 1.46608e-10 
92 1 0.327906 0.0173241 0.00732377 0.00625633 0.000594865 0.000138467 5.14882e-10 9.11046e-14 2.77732e-10 5e-05 1.46608e-10 
93 1 0.328219 0.0173599 0.00720485 0.00624981 0.000269188 -0.000387459 -3.99109e-10 -8.87151e-11 -4.25144e-11 5e-05 1.46608e-10 
94 1 0.327922 0.0176893 0.00725651 0.00620675 0.000138597 -0.000353791 -1.43992e-10 3.26925e-10 -9.25098e-11 5e-05 1.46608e-10 
95 1 0.328021 0.0174465 0.00728705 0.00629649 0.000338526 -0.000401297 2.40034e-10 1.80616e-10 -2.31585e-11 5e-05 1.46608e-10 
96 1 0.327801 0.0171459 0.0073429 0.00623469 0.000444947 0.000552671 -1.84534e-10 -8.12589e-10 -5.24294e-10 5e-05 1.46608e-10 
97 1 0.321619 0.0160402 0.00804712 0.00544673 -0.0004623 0.000381686 -2.87345e-12 1.57018e-11 -9.59407e-12 5e-05 1.46608e-10 
98 1 0.328234 0.0175475 0.00717422 0.00629044 0.000209529 -0.000383557 1.45273e-10 -2.21454e-10 1.08263e-11 5e-05 1.46608e-10 
99 1 0.321982 0.0178977 0.00703485 0.00562295 -0.000766324 -7.34784e-05 1.53894e-10 -2.0743e-10 2.87526e-10 5e-05 1.46608e-10 
100 1 0.328055 0.0174714 0.00719618 0.00626919 0.000308166 -0.000405931 -2.50575e-10 -8.274e-11 2.82972e-10 5e-05 1.46608e-10 
101 1 0.321999 0.0179866 0.00699248 0.00559615 -0.000729323 1.04576e-05 3.00963e-10 -4.11245e-10 -4.43728e-10 5e-05 1.46608e-10 
102 1 0.0643568 0.0187248 0.00531097 4.49386e-15 1.04231e-14 8.29579e-14 -1.70562e-21 9.33318e-22 -2.70902e-23 5e-05 1.46608e-10 
103 1 0.24257 0.0191927 0.00520306 -1.01195e-22 -3.03968e-22 1.23839e-22 0 0 0 5e-05 1.46608e-10 
104 1 0.322288 0.018141 0.00694232 0.00564235 -0.000540003 0.000255087 3.1465e-10 -1.11471e-11 -6.81022e-11 5e-05 1.46608e-10 
105 1 0.321599 0.0159567 0.00809863 0.00543813 -0.000464017 0.000382311 -2.64848e-11 2.3699e-11 -1.8043e-11 5e-05 1.46608e-10 
106 1 0.322058 0.0180127 0.0070689 0.00555365 -0.000757507 5.72982e-05 3.06725e-11 -6.69084e-10 3.61672e-10 5e-05 1.46608e-10 
107 1 0.321462 0.0157575 0.00822005 0.00546519 -0.000487794 0.000397916 2.09722e-11 -2.70845e-12 -4.4377e-12 5e-05 1.46608e-10 
108 1 0.328217 0.0181855 0.00707375 0.00576647 0.000334516 -0.000371803 -2.66413e-10 -3.31551e-11 2.00269e-11 5e-05 1.46608e-10 
109 1 0.328211 0.0178159 0.00713281 0.00619796 0.000170358 -0.000367945 1.84018e-10 9.28733e-11 -3.47929e-11 5e-05 1.46608e-10 
110 1 0.327881 0.0170797 0.00744582 0.00625011 0.000408483 0.000552734 1.02382e-10 -2.50441e-10 -8.47041e-11 5e-05 1.46608e-10 
111 1 0.327674 0.01664 0.0076344 0.00559241 0.000477696 0.000441863 3.53506e-11 1.56728e-10 -1.29842e-10 5e-05 1.46608e-10 
112 1 0.321672 0.0158995 0.00813544 0.00544119 -0.000461403 0.000381 2.56009e-11 1.34448e-10 -7.83502e-11 5e-05 1.46608e-10 
113 1 0.321896 0.0175465 0.00720599 0.00604419 -0.000793654 -4.94698e-05 8.8148e-11 2.01897e-10 -1.0504e-10 5e-05 1.46608e-10 
114 1 0.321939 0.017722 0.00712038 0.00604069 -0.000802873 -4.3568e-05 1.23293e-10 -1.22521e-10 1.86708e-11 5e-05 1.46608e-10 
115 1 0.327928 0.0169452 0.00744822 0.00613192 0.000365202 0.00059786 1.83802e-10 4.67263e-11 -1.98131e-11 5e-05 1.46608e-10 
116 1 0.32798 0.0175368 0.00718995 0.0062167 0.000193353 -0.000367236 -1.85432e-10 -6.37958e-11 4.97697e-11 5e-05 1.46608e-10 
117 1 0.328015 0.0172783 0.00723661 0.00600382 -0.00118519 -0.00793355 -5.3666e-10 -4.19624e-10 -9.41106e-11 5e-05 1.46608e-10 
118 1 0.322061 0.0174407 0.00724424 0.00599805 -0.000747271 -6.80726e-05 -1.96337e-10 5.36625e-11 -3.70294e-11 5e-05 1.46608e-10 
119 1 0.328196 0.0180892 0.00709022 0.00619214 0.000224178 -0.000377669 1.34159e-11 -5.40663e-11 8.25623e-12 5e-05 1.46608e-10 
120 1 0.327843 0.0166225 0.00767096 0.005883 0.000326787 0.00059607 -4.1002e-11 1.04858e-10 -2.50375e-11 5e-05 1.46608e-10 
121 1 0.327982 0.0179332 0.00712681 0.00617663 0.00014601 -0.000365092 -5.64404e-11 3.85383e-11 7.83805e-12 5e-05 1.46608e-10 
122 1 0.327779 0.0170602 0.00739003 0.00620447 0.000432192 0.000537898 1.92787e-10 4.46095e-10 -1.20765e-10 5e-05 1.46608e-10 
123 1 0.322395 0.0181963 0.00694757 0.00543519 -0.000493692 0.000240707 1.52721e-10 -1.93841e-10 3.23063e-11 5e-05 1.46608e-10 
124 1 0.327999 0.0168383 0.00753593 0.00618556 0.00050016 0.000506623 4.84956e-12 9.40885e-11 -7.70172e-11 5e-05 1.46608e-10 
125 1 0.327889 0.0171545 0.0072906 0.00624067 0.000421017 0.000557726 -3.08084e-10 -1.446e-10 -1.08766e-10 5e-05 1.46608e-10 
127 1 0.321638 0.0161236 0.00799561 0.00545994 -0.000464211 0.000382882 5.57126e-11 4.57833e-13 4.32294e-12 5e-05 1.46608e-10 
128 1 0.327823 0.0165419 0.00772669 0.00569492 0.000345988 0.000550906 -3.65752e-11 1.42606e-10 -5.02038e-11 5e-05 1.46608e-10 
129 1 0.328048 0.0175421 0.00726654 0.00637754 0.000281543 -0.0003966 -9.75926e-11 1.70167e-10 -1.8235e-11 5e-05 1.46608e-10 
130 1 0.322046 0.0177602 0.00709497 0.00597137 -0.000655782 -0.000111108 3.84847e-10 -3.53545e-10 1.4272e-10 5e-05 1.46608e-10 
131 1 0.322067 0.0178483 0.00705203 0.00563568 -0.000715503 -4.82295e-05 4.38496e-10 -3.61888e-10 9.86044e-11 5e-05 1.46608e-10 
132 1 0.327907 0.0168637 0.00750459 0.00613085 0.000399759 0.000571891 -2.65328e-11 8.50993e-11 -6.59869e-11 5e-05 1.46608e-10 
133 1 0.32797 0.0176728 0.00716886 0.00622978 0.000139246 -0.000368517 9.00053e-11 -4.80419e-11 -1.17651e-12 5e-05 1.46608e-10 
134 1 0.327961 0.0174399 0.0072064 0.00628448 0.000306439 -0.000320307 6.63307e-10 -1.88672e-09 1.73221e-09 5e-05 1.46608e-10 
135 1 0.328168 0.0176223 0.00716598 0.00627213 0.000195632 -0.000378117 2.21923e-10 3.74845e-12 5.56555e-11 5e-05 1.46608e-10 
136 1 0.322004 0.0172475 0.00733916 0.00593302 -0.000798023 -3.74825e-05 -5.62945e-11 2.04927e-10 -6.8319e-11 5e-05 1.46608e-10 
137 1 0.327926 0.0174185 0.00729779 0.00629092 0.000473767 -0.000309763 2.25897e-10 8.75578e-12 -1.38512e-10 5e-05 1.46608e-10 
138 1 0.327843 0.0173155 0.00724594 0.00628074 0.00027243 0.000156133 1.71154e-10 2.3572e-10 2.90502e-12 5e-05 1.46608e-10 
140 1 0.327737 0.0168826 0.0074669 0.00616566 0.000393401 0.000581288 -7.02222e-11 -2.64883e-10 2.02756e-10 5e-05 1.46608e-10 
141 1 0.321855 0.0166503 0.00767212 0.00587419 -0.000542912 0.000439053 4.58252e-11 6.01385e-11 -4.15426e-11 5e-05 1.46608e-10 
142 1 0.322251 0.0177734 0.00707446 0.0056092 -0.000652117 -8.24022e-05 -2.3433e-10 -2.27056e-11 4.23645e-11 5e-05 1.46608e-10 
143 1 0.321481 0.0158409 0.00816853 0.00545892 -0.000482629 0.000393966 -4.44766e-12 -2.4033e-11 1.66238e-11 5e-05 1.46608e-10 
144 1 0.322208 0.0175978 0.0071601 0.00610936 -0.00076285 -6.58232e-05 7.28958e-11 8.5196e-11 -5.49136e-11 5e-05 1.46608e-10 
146 1 0.32152 0.0160089 0.00806719 0.00543454 -0.000473441 0.000382512 -3.08089e-11 -6.39473e-11 1.4981e-11 5e-05 1.46608e-10 
147 1 0.322024 0.0176724 0.0071378 0.00608218 -0.000774377 -5.91414e-05 -2.23235e-10 1.48493e-10 -6.58099e-11 5e-05 1.46608e-10 
148 1 0.321876 0.0167335 0.0076208 0.00587835 -0.000581221 0.000462927 -1.7369e-11 1.07145e-10 -6.90056e-11 5e-05 1.46608e-10 
149 1 0.327728 0.0165102 0.00773653 0.00562087 0.00051302 0.000418085 2.22903e-11 1.80837e-11 3.43164e-11 5e-05 1.46608e-10 
150 1 0.322124 0.018588 0.00700543 0.00561485 -0.000647635 0.000331351 -3.52176e-11 -1.52555e-10 -2.68101e-11 5e-05 1.46608e-10 
151 1 0.322106 0.01822 0.00693487 0.0055924 -0.000626133 0.000302111 -1.15026e-11 -3.01245e-10 1.81499e-10 5e-05 1.46608e-10 
153 1 0.321897 0.0168168 0.00756943 0.00591168 -0.000589432 0.000468418 1.31665e-12 1.00709e-10 -6.41864e-11 5e-05 1.46608e-10 
154 1 0.3215 0.0159244 0.008117 0.00544193 -0.000477304 0.000390685 -1.67069e-11 -5.73037e-11 2.39325e-11 5e-05 1.46608e-10 
155 1 0.321539 0.0160913 0.00801397 0.00546033 -0.000473213 0.000388343 -1.16421e-13 -4.91543e-11 3.19537e-11 5e-05 1.46608e-10 
156 1 0.321833 0.0165671 0.00772347 0.00582024 -0.000576534 0.000459182 2.23674e-12 -5.93197e-11 3.59025e-11 5e-05 1.46608e-10 
157 1 0.0219312 0.0187687 0.00551176 -3.83911e-14 8.16346e-14 2.95889e-13 -1.02415e-22 -4.11884e-22 1.06086e-22 5e-05 1.46608e-10 
158 1 0.321954 0.0169795 0.00746935 0.00585859 -0.000562648 0.000457108 3.87922e-11 7.7194e-11 -4.69504e-11 5e-05 1.46608e-10 
159 1 0.327833 0.0169125 0.0074587 0.00615004 0.000421401 0.00055753 -5.61191e-11 5.22213e-12 3.13121e-11 5e-05 1.46608e-10 
160 1 0.322016 0.0180759 0.0069507 0.00564726 -0.000671605 0.000187353 2.69448e-11 -3.36877e-10 -7.08568e-10 5e-05 1.46608e-10 
162 1 0.322246 0.0182664 0.00702596 0.0119821 -0.00118181 -0.00342329 7.84026e-11 -2.05377e-11 -3.37218e-10 5e-05 1.46608e-10 
164 1 0.321598 0.0163417 0.00785945 0.00542955 -0.00046831 0.000384923 -1.56164e-11 -3.06692e-11 1.84329e-11 5e-05 1.46608e-10 
165 1 0.322201 0.0182881 0.00693955 0.00534167 -0.000572515 0.000225535 4.92774e-11 -1.16483e-10 -3.4573e-11 5e-05 1.46608e-10 
166 1 0.327865 0.0174094 0.00721901 0.00628864 0.000158342 -0.000294532 -3.05318e-10 3.42308e-10 2.40609e-10 5e-05 1.46608e-10 
167 1 0.322078 0.0183663 0.00702013 0.00569991 -0.000573958 0.000266597 9.45881e-11 -2.34851e-11 2.11162e-10 5e-05 1.46608e-10 
168 1 0.322201 0.0185845 0.00694197 0.00555071 -0.00049324 0.000247563 4.7526e-11 -3.78306e-11 4.92682e-11 5e-05 1.46608e-10 
169 1 0.322088 0.0184186 0.00693554 0.00571167 -0.00059328 0.000255921 5.78864e-11 -1.08197e-10 4.63338e-11 5e-05 1.46608e-10 
170 1 0.322203 0.0184844 0.00694125 0.00548581 -0.000459951 0.000247286 1.37782e-10 -8.83211e-11 2.05782e-11 5e-05 1.46608e-10 
171 1 0.3281 0.0180595 0.00710024 0.00617272 0.000190826 -0.000371701 -8.54349e-11 6.6933e-11 9.07615e-14 5e-05 1.46608e-10 
172 1 0.321874 0.0174587 0.0072488 0.00600299 -0.000795752 -4.52852e-05 5.51693e-11 2.44755e-10 -1.3059e-10 5e-05 1.46608e-10 
173 1 0.328153 0.0178966 0.00712319 0.00620955 0.000188048 -0.000372049 -7.73866e-11 -2.29109e-11 3.39907e-12 5e-05 1.46608e-10 
174 1 0.321638 0.0165084 0.00775653 0.00572576 -0.000509069 0.000415438 -2.08281e-11 1.49521e-11 -9.59203e-12 5e-05 1.46608e-10 
176 1 0.321922 0.0173987 0.00735836 0.00596201 -0.000751164 -6.03741e-05 -1.43434e-10 4.56784e-12 9.28056e-11 5e-05 1.46608e-10 
177 1 0.321658 0.0162071 0.0079441 0.00545726 -0.000461561 0.000381417 -1.60558e-12 1.67031e-11 -1.56739e-11 5e-05 1.46608e-10 
178 1 0.322011 0.01788 0.00712875 0.00564245 -0.000649223 -6.62e-05 7.42984e-10 -2.88372e-10 8.69477e-11 5e-05 1.46608e-10 
179 1 0.32215 0.0182963 0.00702956 0.0104481 -0.000598208 -0.0187667 0 0 -1.43822e-09 5e-05 1.46608e-10 
182 1 0.328004 0.0180294 0.00711032 0.00616602 0.000163456 -0.00036766 -3.98284e-11 4.33563e-11 1.44232e-12 5e-05 1.46608e-10 
183 1 0.322085 0.0181067 0.00704737 0.00555758 -0.000723038 0.000232262 -1.75745e-10 -1.85763e-10 4.12446e-10 5e-05 1.46608e-10 
184 1 0.32812 0.0178601 0.00721027 0.00617254 0.000183742 -0.000377677 1.59877e-10 -1.78334e-10 1.37957e-11 5e-05 1.46608e-10 
185 1 0.32223 0.0176855 0.00711729 0.00588301 -0.000716058 -7.31128e-05 6.07051e-11 6.89778e-13 5.54321e-12 5e-05 1.46608e-10 
186 1 0.322395 0.0182963 0.00694837 0.00536019 -0.00048889 0.000236209 1.31943e-10 -1.05302e-10 9.96269e-12 5e-05 1.46608e-10 
187 1 0.328021 0.0177574 0.00715261 0.00621171 0.000139208 -0.000364399 1.23371e-10 -8.26468e-11 1.39667e-11 5e-05 1.46608e-10 
188 1 0.32787 0.0170738 0.00734661 0.00623067 0.000426953 0.000563806 -1.12809e-10 -3.04051e-10 -4.14059e-11 5e-05 1.46608e-10 
189 1 0.327961 0.0178369 0.00714329 0.00618932 0.000130192 -0.000362691 -1.30382e-11 5.46713e-11 9.37488e-12 5e-05 1.46608e-10 
190 1 0.315984 0.0180043 0.00732355 0.00582426 -0.000271305 -0.000938341 -1.33128e-09 -5.87754e-09 -3.38532e-10 5e-05 1.46608e-10 
191 1 0.327654 0.0165591 0.00769047 0.00568566 0.0008681 0.000168794 3.0386e-11 1.2512e-10 -8.6179e-11 5e-05 1.46608e-10 
192 1 0.321918 0.0176342 0.00716319 0.00605756 -0.000789297 -5.19002e-05 -6.51422e-11 2.43754e-11 4.88414e-12 5e-05 1.46608e-10 
193 1 0.328122 0.0181559 0.00708373 0.00616433 0.000207089 -0.000373751 1.47688e-10 1.34506e-10 -3.22169e-11 5e-05 1.46608e-10 
194 1 0.322203 0.0181645 0.00703585 0.0056416 -0.000599726 0.000266314 2.47209e-10 -1.18248e-10 2.875e-10 5e-05 1.46608e-10 
195 1 0.322104 0.01812 0.00693385 0.00563641 -0.000637411 0.000250983 -1.15267e-11 2.84733e-11 1.71143e-11 5e-05 1.46608e-10 
196 1 0.322176 0.0178981 0.00702101 0.00559123 -0.000605965 -0.00010132 2.60738e-10 -4.44169e-10 2.19832e-10 5e-05 1.46608e-10 
197 1 0.315674 0.0166801 0.00775511 0.00618313 0.00115275 -0.000400164 3.0278e-11 2.09625e-10 -1.80054e-10 5e-05 1.46608e-10 
198 1 0.322192 0.0174197 0.00724507 0.00601674 -0.00077829 -5.29059e-05 -1.77532e-10 1.49306e-10 -5.51569e-11 5e-05 1.46608e-10 
199 1 0.322113 0.0182021 0.00705669 0.00560703 -0.000721289 0.000336647 4.18134e-10 -2.6691e-10 3.05303e-10 5e-05 1.46608e-10 
200 1 0.321578 0.0158712 0.00815139 0.00544519 -0.000470993 0.000386944 4.22844e-11 4.66591e-11 -3.16848e-11 5e-05 1.46608e-10 
201 1 0.3222 0.0181881 0.00693874 0.00562585 -0.000554618 0.000257889 2.01174e-10 -1.42795e-10 1.17302e-10 5e-05 1.46608e-10 
202 1 0.321958 0.0170696 0.00742627 0.00595007 -0.000702194 0.000164741 -3.85367e-11 8.06215e-11 -3.8812e-11 5e-05 1.46608e-10 
203 1 0.32794 0.0173439 0.00722576 0.00595645 -0.000949588 -0.00655562 -1.92929e-09 -1.30299e-09 1.09643e-10 5e-05 1.46608e-10 
204 1 0.322288 0.0179502 0.00698866 0.00541965 -0.000607382 -0.000129026 -5.60672e-10 1.05304e-10 3.46196e-10 5e-05 1.46608e-10 
205 1 0.321801 0.0167921 0.00758786 0.00585963 -0.000544918 0.000441525 -1.37163e-10 2.33914e-11 -1.67559e-11 5e-05 1.46608e-10 
206 1 0.321844 0.0169598 0.00748826 0.00594774 -0.000621015 0.000344215 -1.05916e-10 5.27044e-11 -2.5729e-11 5e-05 1.46608e-10 
207 1 0.321717 0.0164573 0.0077897 0.00571146 -0.000512306 0.000417282 -2.58592e-10 2.03373e-11 -2.30598e-11 5e-05 1.46608e-10 
208 1 0.322115 0.0173633 0.00727695 0.00597722 -0.000771758 -5.3254e-05 -1.96396e-10 2.70565e-10 -1.14457e-10 5e-05 1.46608e-10 
209 1 0.321959 0.0174091 0.00726623 0.00599774 -0.000807643 -4.32675e-05 -1.51093e-10 -3.70756e-12 5.11809e-11 5e-05 1.46608e-10 
210 1 0.327769 0.0166713 0.00762505 0.00602075 0.000454472 0.000525476 -1.33045e-10 -7.89639e-11 -6.10072e-11 5e-05 1.46608e-10 
211 1 0.327694 0.0167205 0.00757882 0.00609602 0.000450398 0.000526487 5.50869e-11 -8.22211e-12 1.26752e-11 5e-05 1.46608e-10 
212 1 0.322304 0.0182397 0.00694383 0.00534963 -0.000484021 0.000237735 6.15617e-11 3.35092e-11 -2.33859e-11 5e-05 1.46608e-10 
213 1 0.327948 0.0177807 0.00722499 0.00618193 0.000138282 -0.000353663 -1.35088e-10 2.20156e-10 -2.05255e-12 5e-05 1.46608e-10 
214 1 0.327884 0.0171808 0.00738694 0.00619941 0.000438073 0.000537673 1.72987e-10 7.67299e-11 -2.79826e-10 5e-05 1.46608e-10 
215 1 0.315884 0.0175153 0.00729573 0.00604284 -0.000478919 -0.000973681 1.62717e-10 1.25768e-10 3.06243e-10 5e-05 1.46608e-10 
216 1 0.321697 0.0163739 0.00784113 0.00556362 -0.000483251 0.000396512 -1.32247e-10 2.29086e-11 -1.15233e-11 5e-05 1.46608e-10 
217 1 0.328025 0.0181257 0.00709384 0.00614703 0.00017397 -0.000367963 4.10208e-11 1.15969e-10 -1.74915e-11 5e-05 1.46608e-10 
218 1 0.321961 0.0178098 0.00707757 0.00585483 -0.000787921 -4.79167e-05 3.51621e-10 -3.09293e-10 1.42495e-10 5e-05 1.46608e-10 
219 1 0.327955 0.0166776 0.00764665 0.00618188 0.000497862 0.000508095 2.25311e-11 -8.78547e-11 7.35579e-11 5e-05 1.46608e-10 
220 1 0.322084 0.0179369 0.00700911 0.00556477 -0.000708785 -3.9195e-05 2.32858e-10 -4.10209e-10 1.41497e-10 5e-05 1.46608e-10 
222 1 0.328124 0.0173282 0.0072151 0.00622975 0.000203585 -0.000376331 -9.07415e-10 3.92326e-10 3.75666e-10 5e-05 1.46608e-10 
224 1 0.321767 0.01702 0.00746285 0.00591857 -0.000793759 -3.86272e-05 5.17043e-11 9.00193e-11 -3.61164e-11 5e-05 1.46608e-10 
225 1 0.327711 0.0167353 0.00767626 0.00608415 0.000523359 0.000505359 -1.06961e-10 2.40456e-10 -1.91175e-10 5e-05 1.46608e-10 
226 1 0.32212 0.0179194 0.00710101 0.0055961 -0.000647921 -7.53179e-05 6.69057e-11 -2.28218e-10 1.85237e-10 5e-05 1.46608e-10 
227 1 0.315904 0.0176131 0.0073013 0.00598691 -0.000467841 -0.000978961 4.12742e-10 -7.45501e-10 3.53428e-11 5e-05 1.46608e-10 
228 1 0.315844 0.0173196 0.00728461 0.00615116 -0.000512433 -0.00100501 9.20646e-11 -4.57053e-10 -3.50287e-10 5e-05 1.46608e-10 
229 1 0.322292 0.0184388 0.00694489 0.00547726 -0.0004632 0.000245357 2.54926e-10 2.23353e-11 2.0981e-11 5e-05 1.46608e-10 
230 1 0.321764 0.0170129 0.00756309 0.00595435 -0.000452631 0.000235751 -2.13238e-11 -1.07921e-10 -1.00914e-10 5e-05 1.46608e-10 
232 1 0.322183 0.0183865 0.00693956 0.00571933 -0.000521529 0.000208528 1.01979e-10 -2.09301e-10 3.86043e-10 5e-05 1.46608e-10 
233 1 0.322057 0.0182686 0.00700734 0.00560006 -0.000678907 0.000397282 1.56501e-10 -1.45047e-10 3.4015e-10 5e-05 1.46608e-10 
234 1 0.328155 0.0176902 0.00723837 0.00624088 0.000171098 -0.00037078 1.64042e-10 -7.91648e-11 4.02647e-12 5e-05 1.46608e-10 
235 1 0.321723 0.0168444 0.00754925 0.00591118 -0.000521916 0.000427663 2.50118e-11 8.60039e-11 -1.14389e-11 5e-05 1.46608e-10 
236 1 0.32186 0.0172695 0.00742925 0.00596319 -0.000800199 -3.86157e-05 -1.34766e-10 2.93664e-10 2.02672e-11 5e-05 1.46608e-10 
237 1 0.321831 0.0172832 0.00733442 0.0059688 -0.000796772 -4.15438e-05 -3.02798e-11 9.19957e-11 -2.62464e-11 5e-05 1.46608e-10 
239 1 0.315582 0.0163822 0.00814589 0.00579147 0.00114177 -0.000474799 -5.01753e-10 -1.72456e-09 2.11634e-09 5e-05 1.46608e-10 
240 1 0.315637 0.016561 0.00791142 0.00601661 0.00116094 -0.000456232 2.18128e-12 7.78598e-11 -3.3267e-10 5e-05 1.46608e-10 
241 1 0.315563 0.0163226 0.00822405 0.00572026 0.00109967 -0.000423469 -5.76964e-10 -1.64268e-09 2.15641e-09 5e-05 1.46608e-10 
242 1 0.322172 0.0172115 0.00734443 0.00588891 -0.000789621 -3.83589e-05 -1.45646e-10 1.0891e-10 -4.32776e-11 5e-05 1.46608e-10 
243 1 0.322158 0.0178084 0.00706448 0.0056454 -0.000626431 -0.00010078 4.36879e-10 -2.54033e-11 -2.99948e-11 5e-05 1.46608e-10 
244 1 0.3156 0.0164418 0.00806774 0.00587119 0.00115357 -0.00048105 -1.12137e-10 -3.3365e-10 6.20207e-10 5e-05 1.46608e-10 
246 1 0.315765 0.0169754 0.0073678 0.00652321 0.00112435 -0.00034402 7.35315e-10 5.95015e-10 -5.92256e-10 5e-05 1.46608e-10 
247 1 0.321659 0.0165917 0.00770518 0.00582327 -0.000521572 0.00042475 -4.58786e-11 8.0301e-12 -6.7899e-12 5e-05 1.46608e-10 
248 1 0.321958 0.0175932 0.00726947 0.0060721 -0.000774935 -9.80358e-05 -7.05153e-12 1.43759e-10 8.97244e-11 5e-05 1.46608e-10 
249 1 0.315711 0.0167997 0.00760131 0.00628811 0.00111734 -0.000358739 4.65023e-10 4.45018e-10 -1.24854e-09 5e-05 1.46608e-10 
250 1 0.321759 0.0166237 0.00768704 0.00585113 -0.000544046 0.000439791 8.15805e-12 -2.48805e-11 1.28375e-11 5e-05 1.46608e-10 
251 1 0.327917 0.0172489 0.00725889 0.00631128 0.000327565 0.000468511 1.10575e-10 2.37012e-10 2.06038e-10 5e-05 1.46608e-10 
252 1 0.315782 0.0170268 0.00728375 0.00630863 -0.000432757 -0.0013307 -4.64637e-12 4.15963e-10 -3.78981e-10 5e-05 1.46608e-10 
253 1 0.315964 0.0179065 0.00731799 0.00589034 -0.000274613 -0.000950434 -2.13028e-10 -2.64649e-10 1.1122e-10 5e-05 1.46608e-10 
254 1 0.315729 0.0168578 0.00752204 0.00638107 0.00115867 -0.000340118 1.3516e-09 9.67809e-10 -1.00926e-09 5e-05 1.46608e-10 
255 1 0.321902 0.0170209 0.00754418 0.0057765 -0.000396819 0.000316334 1.88417e-11 -2.16186e-11 -1.22676e-13 5e-05 1.46608e-10 
256 1 0.322296 0.0180414 0.00694857 0.00555051 -0.000577218 -8.83343e-05 -1.99533e-10 -6.24943e-11 -1.96091e-10 5e-05 1.46608e-10 
257 1 0.321918 0.0168999 0.00751816 0.00593202 -0.000587676 0.000473444 2.17562e-11 1.05992e-10 -4.43765e-11 5e-05 1.46608e-10 
258 1 0.321939 0.0174988 0.00731397 0.00602547 -0.000832754 -4.56771e-05 6.31868e-11 1.42885e-11 -2.86128e-11 5e-05 1.46608e-10 
259 1 0.315803 0.017124 0.00727348 0.00624506 -0.000452333 -0.00104005 -2.51171e-10 8.40661e-10 1.76183e-10 5e-05 1.46608e-10 