ITEM: TIMESTEP
3400000
ITEM: NUMBER OF ATOMS
287
ITEM: BOX BOUNDS ff ff ff
-0.02 0.43
-0.02 0.06
-0.02 0.07
ITEM: ATOMS id type x y z vx vy vz fx fy fz radius mass 
1 1 0.0326749 0.0163711 0.00772531 0.00573839 -0.000361743 9.96993e-05 -6.59265e-11 1.44224e-10 -2.26977e-10 5e-05 1.46608e-10 
2 1 0.0330192 0.0171259 0.00735299 0.00555644 -0.000163086 0.000324515 -2.04609e-10 -2.2352e-11 -4.0857e-12 5e-05 1.46608e-10 
3 1 0.0264833 0.0160112 0.00808658 0.00550587 7.63816e-06 0.000102566 -1.41817e-10 4.06587e-12 -4.69013e-12 5e-05 1.46608e-10 
4 1 0.0329865 0.0177843 0.0070612 0.00555781 -0.000130744 0.000310584 -1.0417e-10 -2.2861e-11 1.31068e-11 5e-05 1.46608e-10 
5 1 0.0325596 0.0162848 0.00782701 0.0057506 -0.000351841 9.28003e-05 -7.84058e-11 4.86107e-11 -3.81488e-11 5e-05 1.46608e-10 
6 1 0.0386701 0.0167311 0.0075076 0.00563741 -0.000163387 -7.28879e-05 -1.13298e-11 1.12634e-11 -7.29924e-12 5e-05 1.46608e-10 
7 1 0.0327353 0.0170329 0.00738109 0.00548865 -0.00013567 0.000308348 2.69074e-11 7.61136e-11 -3.39774e-11 5e-05 1.46608e-10 
8 1 0.0324594 0.0159595 0.0081932 0.00606628 -0.000416451 0.000147971 -1.07469e-10 -1.13699e-10 1.27478e-10 5e-05 1.46608e-10 
9 1 0.0389244 0.0179046 0.00701744 0.00563037 -1.64029e-05 0.000238219 4.40029e-12 1.70072e-11 -5.51217e-12 5e-05 1.46608e-10 
10 1 0.0326764 0.0167627 0.00749751 0.00562574 -0.000151671 0.000322827 -5.16573e-11 7.56984e-11 -4.07845e-11 5e-05 1.46608e-10 
11 1 0.0330584 0.017306 0.00727536 0.00555289 -0.000161157 0.000323441 -5.5854e-11 -1.03886e-10 4.48134e-11 5e-05 1.46608e-10 
12 1 0.0266813 0.0167869 0.00748786 0.00546213 -0.00023298 4.13312e-05 -2.77738e-10 -9.49697e-11 1.83226e-10 5e-05 1.46608e-10 
13 1 0.0325413 0.0162195 0.00790046 0.0056329 -0.000328071 7.11119e-05 -6.88583e-11 -5.21528e-12 2.59312e-11 5e-05 1.46608e-10 
14 1 0.0263999 0.0156982 0.00832127 0.0062111 -0.000113049 0.000208745 6.86225e-11 2.08671e-10 -5.15935e-11 5e-05 1.46608e-10 
15 1 0.0328689 0.017244 0.00729407 0.00553265 -0.000168274 0.00032547 9.99669e-11 6.12005e-11 -1.9522e-11 5e-05 1.46608e-10 
16 1 0.0263785 0.01562 0.00837987 0.0062373 -0.00012371 0.000224475 5.71619e-11 2.33684e-10 -1.35508e-11 5e-05 1.46608e-10 
17 1 0.0326564 0.0166728 0.00753627 0.00562257 -0.000151685 0.000324619 -1.97811e-10 2.06858e-10 -2.7324e-12 5e-05 1.46608e-10 
18 1 0.0388066 0.0173467 0.00720403 0.00558674 -1.14819e-05 0.000234451 -9.02027e-14 3.96861e-11 1.06717e-12 5e-05 1.46608e-10 
19 1 0.0325217 0.0161544 0.00797376 0.00556064 -0.000308623 5.37092e-05 4.88796e-11 -4.19808e-11 4.67936e-11 5e-05 1.46608e-10 
21 1 0.032656 0.0163058 0.0077987 0.00576222 -0.000359188 0.000100133 1.90398e-10 6.96915e-11 -1.22304e-10 5e-05 1.46608e-10 
22 1 0.0327743 0.0172131 0.00730342 0.00549674 -0.00016352 0.000322113 3.2036e-12 3.77785e-11 -1.8351e-11 5e-05 1.46608e-10 
23 1 0.0268513 0.0171423 0.00726968 0.00558323 -0.00017742 0.000113399 1.11277e-10 5.89491e-10 -8.22122e-11 5e-05 1.46608e-10 
24 1 0.0388655 0.0176256 0.00711073 0.00562471 -2.02304e-05 0.000239018 1.5189e-11 -3.86827e-11 1.23946e-11 5e-05 1.46608e-10 
25 1 0.0327158 0.0169428 0.00741992 0.00547818 -0.000131511 0.000306612 5.40698e-12 2.95119e-11 -8.48308e-12 5e-05 1.46608e-10 
26 1 0.0387485 0.017081 0.0073303 0.00552756 -0.000137638 -8.25318e-05 5.42989e-11 -2.79557e-11 1.30049e-11 5e-05 1.46608e-10 
27 1 0.0267563 0.0171102 0.00727632 0.0055824 -0.000178468 0.000125425 2.13888e-11 3.79689e-10 2.49322e-11 5e-05 1.46608e-10 
28 1 0.0329669 0.0176943 0.00710001 0.00554226 -0.00013936 0.000313473 -1.96129e-10 9.13008e-11 -3.96347e-11 5e-05 1.46608e-10 
29 1 0.0325021 0.0160892 0.00804707 0.00558151 -0.00031595 6.14584e-05 -1.88608e-10 -7.79345e-11 9.10643e-11 5e-05 1.46608e-10 
30 1 0.0330028 0.0174551 0.00720709 0.00556595 -0.000157771 0.000322813 8.00146e-11 2.81151e-11 -8.3762e-12 5e-05 1.46608e-10 
31 1 0.0327548 0.0171229 0.00734227 0.00549382 -0.000139066 0.000311083 3.29146e-11 1.03946e-10 -4.65104e-11 5e-05 1.46608e-10 
32 1 0.0328494 0.017154 0.00733289 0.00550264 -0.000161062 0.000322832 3.53973e-11 6.12557e-11 -1.8702e-11 5e-05 1.46608e-10 
33 1 0.0386899 0.0168186 0.00746329 0.00565055 -0.000170333 -6.96167e-05 2.33131e-11 5.98615e-11 -3.35479e-11 5e-05 1.46608e-10 
34 1 0.0326364 0.0165828 0.00757503 0.00561042 -0.000151071 0.00032238 -1.49246e-10 1.28824e-10 -8.24599e-11 5e-05 1.46608e-10 
35 1 0.0328299 0.0170639 0.00737172 0.00547598 -0.000160214 0.000320358 -3.04443e-11 1.18611e-10 -4.17345e-11 5e-05 1.46608e-10 
36 1 0.0389637 0.0180906 0.00695525 0.00563153 -2.03035e-05 0.000239578 8.80282e-12 4.04154e-11 -1.26397e-11 5e-05 1.46608e-10 
37 1 0.032791 0.0168836 0.00744943 0.00547935 -0.000122765 0.000303557 -1.98067e-12 9.79708e-11 -4.02969e-11 5e-05 1.46608e-10 
38 1 0.0329441 0.017185 0.00732353 0.00550173 -0.000160226 0.000320413 8.02581e-11 7.29954e-11 -2.1574e-11 5e-05 1.46608e-10 
39 1 0.0388851 0.0177186 0.00707963 0.00562788 -1.69915e-05 0.000238386 -3.49257e-11 -2.95266e-11 6.69188e-12 5e-05 1.46608e-10 
41 1 0.0325978 0.016421 0.00768584 0.00573807 -0.00029864 0.000152659 1.84199e-11 2.03318e-10 -1.62216e-10 5e-05 1.46608e-10 
42 1 0.0327938 0.0173031 0.0072646 0.00553903 -0.00016852 0.000325934 8.00205e-12 -1.28735e-11 9.79217e-12 5e-05 1.46608e-10 
44 1 0.0329636 0.017275 0.00728472 0.00553815 -0.000162391 0.000323363 7.69597e-11 2.39607e-11 3.52938e-12 5e-05 1.46608e-10 
45 1 0.0387098 0.016906 0.00741898 0.00552117 -0.000137735 -8.24842e-05 -2.7817e-10 9.55208e-11 -4.03212e-11 5e-05 1.46608e-10 
46 1 0.0387872 0.0172561 0.00724161 0.00555886 -0.000136983 -8.65084e-05 -7.99812e-11 1.26856e-10 2.41691e-10 5e-05 1.46608e-10 
47 1 0.032617 0.0164997 0.00762719 0.00565264 -0.000204906 0.00025698 1.05333e-11 1.88468e-10 -1.17981e-10 5e-05 1.46608e-10 
48 1 0.032833 0.0174832 0.00718698 0.00555291 -0.000173765 0.000328495 -3.63154e-11 -1.43725e-11 8.50423e-12 5e-05 1.46608e-10 
49 1 0.0387678 0.0171685 0.00728595 0.00555932 -0.000135906 -8.37394e-05 -1.52928e-10 -4.20358e-11 7.97971e-11 5e-05 1.46608e-10 
50 1 0.0328918 0.0177534 0.00707054 0.00559059 -0.00015141 0.000320963 -1.67825e-12 2.0195e-11 -1.06831e-11 5e-05 1.46608e-10 
51 1 0.0328722 0.0176633 0.00710935 0.00557945 -0.000159249 0.00032384 4.002e-12 1.98951e-11 -8.05667e-12 5e-05 1.46608e-10 
52 1 0.0266624 0.0167114 0.00755057 0.00534719 -0.000204369 1.87148e-05 -1.00926e-10 -3.68789e-10 4.61563e-10 5e-05 1.46608e-10 
53 1 0.0388262 0.0174397 0.00717292 0.00562258 -2.0382e-05 0.000239307 -1.41665e-11 1.3864e-11 -6.11395e-12 5e-05 1.46608e-10 
54 1 0.0326366 0.0162401 0.00787262 0.00582596 -0.000308129 4.08849e-05 -4.56674e-10 1.10476e-10 -1.21942e-11 5e-05 1.46608e-10 
55 1 0.0264426 0.0158545 0.00820407 0.00601077 -6.98991e-05 0.000174805 -3.45864e-11 1.26325e-10 -5.797e-11 5e-05 1.46608e-10 
56 1 0.0328105 0.0169737 0.00741058 0.00547986 -0.000144175 0.000313578 -3.26128e-11 1.07273e-10 -5.21869e-11 5e-05 1.46608e-10 
57 1 0.0387291 0.0169935 0.00737464 0.00552795 -0.000140372 -8.12461e-05 -6.58636e-11 8.54871e-11 -4.04762e-11 5e-05 1.46608e-10 
59 1 0.032866 0.0168245 0.00747892 0.00545823 -0.000129308 0.000304892 -9.30119e-11 1.01742e-10 -5.44438e-11 5e-05 1.46608e-10 
60 1 0.0328856 0.0169146 0.00744006 0.00549884 -0.000139381 0.000312252 -4.70063e-11 1.12975e-10 -6.7884e-11 5e-05 1.46608e-10 
61 1 0.0325785 0.0163501 0.00775362 0.00577763 -0.000348896 9.76885e-05 8.01626e-11 5.91362e-11 -1.47034e-10 5e-05 1.46608e-10 
62 1 0.0329832 0.0173651 0.0072459 0.00555416 -0.000160973 0.000323418 -5.95838e-13 -2.43101e-11 1.03305e-11 5e-05 1.46608e-10 
63 1 0.0329277 0.0175142 0.00717763 0.00556638 -0.000162591 0.000324675 7.58942e-11 5.63955e-11 -2.20158e-11 5e-05 1.46608e-10 
64 1 0.0388458 0.0175326 0.00714183 0.00562614 -2.1514e-05 0.000239886 1.85663e-11 6.67729e-12 7.00192e-12 5e-05 1.46608e-10 
65 1 0.0267765 0.016812 0.00746815 0.00546735 -0.000213236 2.90418e-05 1.35216e-10 -2.37816e-10 -2.90076e-11 5e-05 1.46608e-10 
66 1 0.0267191 0.016584 0.00765434 0.00539103 -8.47786e-05 9.72104e-05 8.35965e-11 -1.6445e-10 4.71456e-11 5e-05 1.46608e-10 
67 1 0.0330388 0.017216 0.00731418 0.00557363 -0.000166105 0.000326668 -9.74681e-11 -1.20866e-10 4.67058e-11 5e-05 1.46608e-10 
68 1 0.033042 0.0176352 0.00712947 0.00554295 -0.000142231 0.000314716 -2.22552e-10 1.60545e-10 -7.44057e-11 5e-05 1.46608e-10 
69 1 0.0327314 0.0166136 0.00756579 0.00568897 -0.000148391 0.00032012 -8.43381e-12 5.33457e-11 -1.03945e-11 5e-05 1.46608e-10 
70 1 0.0389048 0.0178116 0.00704854 0.00563 -1.58519e-05 0.000238005 6.61251e-12 -2.94409e-12 2.11568e-12 5e-05 1.46608e-10 
71 1 0.0264213 0.0157764 0.00826267 0.00620977 -0.000102252 0.000201651 1.3214e-10 1.38471e-10 -1.32809e-10 5e-05 1.46608e-10 
72 1 0.0330224 0.0175452 0.00716828 0.00555641 -0.000148998 0.000318072 -2.06654e-11 1.08221e-10 -5.41665e-11 5e-05 1.46608e-10 
73 1 0.0326964 0.0168527 0.00745874 0.00547287 -0.000123047 0.000303391 6.60002e-11 7.62541e-11 -1.28602e-11 5e-05 1.46608e-10 
74 1 0.0328885 0.0173341 0.00725526 0.00554017 -0.000170442 0.000326886 -1.07018e-11 4.99432e-11 -3.07919e-11 5e-05 1.46608e-10 
76 1 0.0269896 0.0178112 0.00711624 0.00599149 -0.000159195 0.000109772 -8.62149e-11 -2.7718e-10 4.94645e-11 5e-05 1.46608e-10 
77 1 0.033129 0.0184357 0.0069865 0.00613567 -4.5759e-05 0.000534973 -2.57002e-10 -1.12611e-10 -5.68969e-11 5e-05 1.46608e-10 
78 1 0.0265036 0.0160895 0.00802782 0.00567786 -2.56255e-05 0.000132203 -6.81123e-11 1.05528e-10 -6.25183e-11 5e-05 1.46608e-10 
79 1 0.0266997 0.0168626 0.00742511 0.00552838 -0.000245046 4.13461e-05 2.04969e-10 3.46134e-10 -2.98614e-10 5e-05 1.46608e-10 
80 1 0.0329507 0.0180272 0.00696406 0.00564567 -0.000140351 0.000320202 -4.65379e-10 -2.97804e-10 4.4989e-10 5e-05 1.46608e-10 
81 1 0.0266437 0.0166363 0.00761396 0.00530608 -0.000265922 -6.25314e-05 -4.69471e-10 -5.27644e-10 3.39837e-10 5e-05 1.46608e-10 
82 1 0.0267756 0.0172058 0.00725401 0.00558962 -0.000150486 9.20876e-05 2.36875e-11 4.59033e-10 -7.49538e-11 5e-05 1.46608e-10 
83 1 0.0267753 0.0164562 0.00775634 0.005532 -1.11818e-05 0.000106181 -1.86701e-10 -7.82699e-10 5.05079e-10 5e-05 1.46608e-10 
84 1 0.0389441 0.0179976 0.00698634 0.00563093 -1.80952e-05 0.000238786 4.32984e-12 2.97188e-11 -1.10636e-11 5e-05 1.46608e-10 
85 1 0.0265987 0.0161156 0.00801001 0.00569625 -4.6273e-05 0.000149069 -2.14146e-11 3.86175e-11 1.01333e-12 5e-05 1.46608e-10 
86 1 0.0329473 0.0176042 0.00713883 0.00554577 -0.000150372 0.000318679 -8.03693e-11 9.47989e-11 -3.46487e-11 5e-05 1.46608e-10 
87 1 0.0328463 0.0167343 0.00751777 0.00547326 -7.72243e-05 0.000282044 -1.43233e-10 -2.63603e-10 1.35561e-10 5e-05 1.46608e-10 
88 1 0.0330122 0.0183147 0.00695041 0.0061568 -0.000230803 0.000511846 -1.71491e-10 -6.40756e-10 -3.36404e-10 5e-05 1.46608e-10 
89 1 0.0329707 0.0181224 0.00694097 0.00589308 -0.000207496 0.000375932 1.26711e-09 -2.45849e-10 -4.36092e-10 5e-05 1.46608e-10 
90 1 0.0329997 0.0170358 0.00739181 0.00551865 -0.000154033 0.000318603 -1.29829e-10 6.32802e-11 -2.85725e-11 5e-05 1.46608e-10 
91 1 0.0267182 0.0169382 0.00736236 0.00554959 -0.00030059 9.60015e-05 1.10813e-10 -2.36315e-10 2.80384e-10 5e-05 1.46608e-10 
92 1 0.0330813 0.0178154 0.00705183 0.00549028 -0.0002315 0.000351409 -5.25444e-11 4.2833e-11 -7.79296e-12 5e-05 1.46608e-10 
93 1 0.0330641 0.0181518 0.00691922 0.00597813 -0.000377348 5.83546e-05 3.71243e-09 3.66285e-09 1.6519e-10 5e-05 1.46608e-10 
94 1 0.0331415 0.0180894 0.00693018 0.00587553 0.000184277 -0.000252016 9.90924e-10 -5.27784e-09 7.7903e-10 5e-05 1.46608e-10 
95 1 0.032931 0.0179335 0.00699292 0.00562109 -0.000110413 0.000301482 -4.91528e-11 -2.69166e-10 1.12899e-10 5e-05 1.46608e-10 
96 1 0.0331013 0.0179055 0.007013 0.00562241 -0.000159412 0.000325744 -9.68466e-10 -1.12751e-09 4.57543e-10 5e-05 1.46608e-10 
97 1 0.0266049 0.0164812 0.00773411 0.00551174 -0.000118842 0.000216192 3.34146e-10 -8.0708e-10 6.24496e-10 5e-05 1.46608e-10 
98 1 0.0330335 0.0184061 0.00698501 0.00617256 -0.000186351 0.000510461 -1.89674e-10 -5.4838e-10 -7.45025e-11 5e-05 1.46608e-10 
99 1 0.0267575 0.0167347 0.00752868 0.00539131 -0.000185706 1.28396e-05 -7.66318e-11 -1.14606e-10 8.79034e-11 5e-05 1.46608e-10 
100 1 0.0329802 0.0169458 0.00743063 0.00550643 -0.000148574 0.000315923 -5.85878e-11 9.60958e-11 -3.8336e-11 5e-05 1.46608e-10 
101 1 0.0266997 0.0165077 0.00771596 0.00547881 -5.76448e-05 0.000147926 -6.29019e-11 -2.26977e-10 6.11636e-11 5e-05 1.46608e-10 
102 1 0.0643568 0.0187248 0.00531097 4.18082e-15 1.0535e-14 8.29598e-14 -5.47762e-22 1.22526e-22 7.23783e-24 5e-05 1.46608e-10 
103 1 0.24257 0.0191927 0.00520306 2.29399e-22 4.86658e-23 1.23839e-22 0 0 0 5e-05 1.46608e-10 
104 1 0.0270046 0.0174608 0.00719773 0.00511821 -0.000239241 0.000119546 -4.91894e-11 1.68501e-09 -4.23738e-10 5e-05 1.46608e-10 
105 1 0.0265644 0.0163245 0.00785157 0.00571287 -0.000123872 0.000201512 3.77883e-10 -3.04926e-10 3.86271e-10 5e-05 1.46608e-10 
106 1 0.0270797 0.0173968 0.00721353 0.00499296 -2.3358e-05 6.78509e-05 3.19329e-09 1.39922e-09 -2.55281e-10 5e-05 1.46608e-10 
107 1 0.0265239 0.0161678 0.00796907 0.00569701 -4.84397e-05 0.000149328 1.91505e-10 -1.04618e-11 -6.85909e-12 5e-05 1.46608e-10 
108 1 0.0327714 0.0167935 0.00748825 0.00546943 -0.000101614 0.000293983 1.31089e-11 -9.20309e-11 1.95246e-11 5e-05 1.46608e-10 
109 1 0.0328526 0.0175733 0.00714817 0.0055618 -0.000177749 0.000330778 1.003e-11 -5.04368e-11 1.71255e-11 5e-05 1.46608e-10 
110 1 0.0331563 0.0177562 0.00708131 0.00528981 -0.000432976 0.000431589 1.19485e-11 2.06623e-10 -1.02486e-10 5e-05 1.46608e-10 
111 1 0.0330751 0.0185987 0.00701635 0.00605199 -0.000126654 0.000511662 -1.30316e-10 -9.67365e-11 2.22223e-11 5e-05 1.46608e-10 
112 1 0.0266242 0.0165597 0.00767517 0.00556145 -0.000139531 0.000245231 5.5699e-10 -1.34627e-10 3.50085e-10 5e-05 1.46608e-10 
113 1 0.0272443 0.0172892 0.00724056 0.00582789 0.000459029 -3.26281e-05 -8.07902e-10 2.07639e-10 -6.39387e-11 5e-05 1.46608e-10 
114 1 0.026946 0.017174 0.00726353 0.00558998 -0.000171702 0.000103747 -6.8159e-10 -6.95626e-10 2.40882e-10 5e-05 1.46608e-10 
115 1 0.0329081 0.0174241 0.00721645 0.00554649 -0.00016737 0.000326029 6.90638e-11 5.25198e-11 -2.99433e-11 5e-05 1.46608e-10 
116 1 0.0327514 0.0167035 0.00752702 0.00565034 -0.000134583 0.000315214 -1.50065e-10 5.72755e-11 -1.19544e-10 5e-05 1.46608e-10 
117 1 0.0326186 0.0161748 0.00794611 0.00564399 -0.000286472 2.50883e-05 -9.63248e-11 4.53916e-11 -4.81865e-11 5e-05 1.46608e-10 
118 1 0.026463 0.0159328 0.00814533 0.00544494 2.52026e-05 9.03108e-05 -8.61412e-11 6.0154e-11 -4.94513e-11 5e-05 1.46608e-10 
119 1 0.032905 0.0170048 0.00740117 0.00547913 -0.000154491 0.000316369 -7.29156e-11 1.65228e-10 -8.63032e-11 5e-05 1.46608e-10 
120 1 0.0324811 0.0160243 0.00812018 0.00606711 -0.000409124 0.000139471 1.85477e-10 -7.46106e-11 8.26505e-11 5e-05 1.46608e-10 
121 1 0.0324377 0.0158948 0.00826622 0.00604455 -0.000416171 0.000148878 -1.28465e-10 -1.05451e-10 1.23021e-10 5e-05 1.46608e-10 
122 1 0.0331763 0.0178462 0.00704254 0.00549968 -0.000465892 0.000455261 -6.01811e-10 3.39482e-10 -1.63196e-10 5e-05 1.46608e-10 
123 1 0.0266393 0.0162724 0.00789243 0.00572453 -7.99192e-05 0.000174841 9.36134e-11 -5.91307e-10 3.62645e-10 5e-05 1.46608e-10 
124 1 0.033026 0.0179644 0.00698362 0.00564139 -0.000141717 0.000314145 -2.03575e-10 -2.7779e-10 6.91902e-11 5e-05 1.46608e-10 
125 1 0.0325986 0.0161097 0.00801937 0.00558159 -0.000271343 1.17937e-05 -6.20066e-11 -7.27517e-11 7.67656e-11 5e-05 1.46608e-10 
126 1 0.0328134 0.0173932 0.00722579 0.0055475 -0.000170108 0.000327064 7.21327e-12 -9.69691e-13 -5.29608e-14 5e-05 1.46608e-10 
127 1 0.0265847 0.0164029 0.00779282 0.00568721 -0.000172022 0.000237339 1.40416e-09 -7.51105e-11 2.22538e-10 5e-05 1.46608e-10 
128 1 0.0329114 0.0178434 0.00703173 0.00558625 -9.86634e-05 0.000297564 -2.74236e-11 -6.00495e-11 1.95621e-11 5e-05 1.46608e-10 
129 1 0.0329911 0.0182195 0.0069283 0.00616164 -0.00026203 0.000458138 1.20902e-09 -1.86247e-10 -7.53846e-10 5e-05 1.46608e-10 
130 1 0.0268708 0.0172379 0.00724775 0.00560749 -0.000164531 0.000107664 4.05175e-10 8.26727e-10 -2.60792e-10 5e-05 1.46608e-10 
131 1 0.0267385 0.0166592 0.00759142 0.00535212 -0.00013489 4.17172e-05 -1.12772e-10 -1.22218e-10 8.43648e-11 5e-05 1.46608e-10 
132 1 0.0330061 0.0178744 0.00702239 0.00560055 -0.000132103 0.000311725 -8.24785e-11 -1.59417e-10 2.79763e-11 5e-05 1.46608e-10 
133 1 0.0327697 0.0163946 0.0077037 0.00575308 -0.000251487 0.00025215 3.32331e-11 8.43509e-11 -1.6682e-10 5e-05 1.46608e-10 
134 1 0.0329245 0.0170949 0.00736235 0.005477 -0.000156119 0.00031774 1.61441e-12 1.24876e-10 -4.77409e-11 5e-05 1.46608e-10 
135 1 0.0325791 0.0160445 0.00809268 0.00565171 -0.000271723 8.74118e-06 -2.43893e-10 -1.05504e-10 1.31538e-10 5e-05 1.46608e-10 
136 1 0.0265784 0.0160373 0.00806876 0.00566633 -2.74741e-05 0.000132497 -2.23902e-10 -1.53e-11 -3.7822e-13 5e-05 1.46608e-10 
137 1 0.0330961 0.0186939 0.00703845 0.00603853 -0.000119387 0.000510492 -5.9055e-11 2.56334e-11 -1.80562e-11 5e-05 1.46608e-10 
138 1 0.0327114 0.0165236 0.00760455 0.00562902 -0.000133397 0.000321689 1.31268e-10 -3.29242e-11 -6.14212e-11 5e-05 1.46608e-10 
140 1 0.033196 0.0179363 0.00700374 0.00564836 -0.00047037 0.000463946 2.58126e-10 4.70875e-10 -2.10965e-10 5e-05 1.46608e-10 
141 1 0.026619 0.0161939 0.00795126 0.00570384 -6.09606e-05 0.000159451 3.24881e-10 5.18724e-11 7.93431e-12 5e-05 1.46608e-10 
142 1 0.0269655 0.0172696 0.00724159 0.00554298 -0.000192554 0.000113107 -2.93793e-09 -1.2634e-09 2.00147e-10 5e-05 1.46608e-10 
143 1 0.0265442 0.0162462 0.00791033 0.00570958 -7.70909e-05 0.000173596 1.90401e-10 -2.41073e-10 9.99204e-11 5e-05 1.46608e-10 
144 1 0.0269266 0.0170784 0.00728547 0.0055854 -0.0002029 0.000131414 -3.69912e-10 1.12645e-10 -5.25877e-12 5e-05 1.46608e-10 
146 1 0.0267948 0.0165322 0.00769431 0.00532652 -0.000214077 5.01556e-06 -2.8268e-10 8.0742e-10 8.51263e-10 5e-05 1.46608e-10 
147 1 0.0265581 0.0159589 0.00812752 0.00546101 2.13088e-05 9.26487e-05 -5.80854e-10 3.26177e-10 -2.61373e-10 5e-05 1.46608e-10 
148 1 0.0268341 0.0174926 0.00718821 0.0055597 -8.21286e-05 9.12055e-05 3.86618e-10 7.47425e-10 -1.42925e-10 5e-05 1.46608e-10 
149 1 0.0332718 0.0178779 0.00703294 0.00574591 -0.000364416 0.000421373 -1.01325e-10 1.85768e-10 -7.57691e-11 5e-05 1.46608e-10 
150 1 0.0268332 0.0166832 0.00756897 0.00540525 -0.000225213 2.92604e-05 -4.33948e-10 -3.16881e-10 3.69474e-10 5e-05 1.46608e-10 
151 1 0.0271354 0.0172371 0.00725129 0.00553758 0.000140684 3.69979e-05 -6.25235e-12 -9.78489e-11 3.87005e-11 5e-05 1.46608e-10 
153 1 0.02668 0.0164292 0.00777484 0.00557433 -4.22514e-05 0.000147535 5.06042e-10 -1.33682e-10 1.62231e-10 5e-05 1.46608e-10 
154 1 0.0269293 0.0175247 0.00718194 0.00532197 -3.19602e-05 7.28695e-05 -1.24932e-09 1.52834e-09 -3.14232e-10 5e-05 1.46608e-10 
155 1 0.027011 0.0179065 0.00709441 0.00608952 -0.000940259 0.000294813 -5.03835e-11 -6.82793e-11 -1.33369e-12 5e-05 1.46608e-10 
156 1 0.0269098 0.0174291 0.00720388 0.00547805 -0.000147205 0.000104685 -1.11966e-09 -6.82539e-10 1.67263e-10 5e-05 1.46608e-10 
157 1 0.0219312 0.0187687 0.00551176 -3.83591e-14 8.16782e-14 2.95881e-13 -5.89366e-24 1.86167e-22 -5.21124e-23 5e-05 1.46608e-10 
158 1 0.0270241 0.0175564 0.0071758 0.00532885 -0.000358335 0.000151293 3.64808e-09 -3.42788e-09 8.38686e-10 5e-05 1.46608e-10 
159 1 0.0330616 0.0177253 0.00709066 0.00553885 -0.000156932 0.00032333 -5.44921e-11 1.25051e-10 -6.56176e-11 5e-05 1.46608e-10 
160 1 0.0269139 0.0178746 0.00710057 0.00597994 -0.000199818 0.000122972 -4.59567e-11 -8.74262e-11 9.98056e-12 5e-05 1.46608e-10 
162 1 0.0269488 0.0176203 0.00716001 0.00524248 -4.30474e-05 7.70904e-05 3.77095e-09 -4.50194e-09 1.0899e-09 5e-05 1.46608e-10 
164 1 0.027181 0.0182356 0.00702017 0.00597625 -0.00100824 0.000311237 -8.71919e-11 -3.78148e-11 -4.86813e-11 5e-05 1.46608e-10 
165 1 0.0271948 0.0175237 0.00718553 0.00481002 0.00028756 -5.52399e-06 5.1143e-09 1.73804e-09 -3.69538e-10 5e-05 1.46608e-10 
166 1 0.032731 0.0162597 0.00784607 0.00573333 -0.000372346 0.000112979 5.54598e-10 5.52495e-11 -1.34394e-10 5e-05 1.46608e-10 
167 1 0.0268141 0.0166077 0.00763165 0.00540834 -0.000229512 3.10912e-05 -9.90618e-10 -1.65296e-10 3.25859e-10 5e-05 1.46608e-10 
168 1 0.0270992 0.0174924 0.0071916 0.00541535 -0.000139364 9.9879e-05 -1.02575e-09 -1.39704e-09 3.00754e-10 5e-05 1.46608e-10 
169 1 0.0272646 0.0173864 0.00721827 0.0048568 0.000518194 -5.88542e-05 8.55597e-09 -2.33785e-09 6.48294e-10 5e-05 1.46608e-10 
170 1 0.0271404 0.0176831 0.00714785 0.00563001 -0.000201198 0.000118103 -1.91254e-10 6.59664e-11 -1.22936e-11 5e-05 1.46608e-10 
171 1 0.0327507 0.0163248 0.00777278 0.00577186 -0.000374266 0.000124964 2.82224e-10 6.75115e-11 -1.50412e-10 5e-05 1.46608e-10 
172 1 0.0271744 0.0174283 0.00720742 0.00478929 0.000411988 -3.56538e-05 2.68737e-09 -4.08412e-10 1.46297e-10 5e-05 1.46608e-10 
173 1 0.0330552 0.0168866 0.00746013 0.00547821 -0.000177841 0.00032734 1.51929e-13 2.3846e-10 -1.11894e-10 5e-05 1.46608e-10 
174 1 0.0270648 0.0177472 0.00713203 0.00571552 0.000169375 3.30196e-05 -7.07222e-10 2.9208e-10 -9.69841e-11 5e-05 1.46608e-10 
175 1 0.0209054 0.0178334 0.00709522 0.00571842 -0.00155279 0.000453019 5.56211e-12 -1.83368e-11 -1.24576e-12 5e-05 1.46608e-10 
176 1 0.0268903 0.0173336 0.00722581 0.00557896 -0.000121784 9.82216e-05 -3.90225e-09 -1.60121e-09 3.46706e-10 5e-05 1.46608e-10 
177 1 0.0269569 0.0180661 0.00706054 0.00586187 -0.00100309 0.000260533 1.9429e-11 1.68427e-10 -1.3874e-10 5e-05 1.46608e-10 
178 1 0.0272248 0.0171936 0.0072625 0.00563428 0.000312139 -1.53078e-06 -2.10509e-10 7.76353e-11 -2.93616e-11 5e-05 1.46608e-10 
179 1 0.0272364 0.0177143 0.00714182 0.00673842 -0.000258752 0.000144806 5.57244e-11 2.90522e-10 -6.92222e-11 5e-05 1.46608e-10 
181 1 0.0268731 0.0176838 0.00714434 0.00538073 -4.67509e-05 8.16463e-05 -1.80354e-10 1.55448e-09 -1.82566e-10 5e-05 1.46608e-10 
182 1 0.0326914 0.0164373 0.00765098 0.00565129 -0.000304527 4.7957e-05 -2.50525e-10 4.59275e-13 -1.52605e-10 5e-05 1.46608e-10 
183 1 0.0271195 0.0175878 0.00716971 0.0042326 0.000123357 2.49039e-05 2.20055e-09 -1.11085e-09 2.60054e-10 5e-05 1.46608e-10 
184 1 0.0330023 0.0177683 0.00715865 0.00554881 -0.000111641 0.000311257 1.25755e-10 1.82042e-10 2.28986e-11 5e-05 1.46608e-10 
185 1 0.0268146 0.017397 0.00721014 0.00559452 -9.41571e-05 9.3322e-05 -2.85376e-10 -8.32675e-11 2.42226e-11 5e-05 1.46608e-10 
186 1 0.0268536 0.0175882 0.00716627 0.00549607 1.1093e-06 6.89801e-05 -1.12505e-09 5.16083e-10 8.63076e-11 5e-05 1.46608e-10 
187 1 0.0329606 0.0168555 0.00746956 0.00546535 -0.000181327 0.00032876 -1.26056e-10 -3.6729e-11 7.87007e-12 5e-05 1.46608e-10 
188 1 0.0332165 0.01803 0.00695937 0.00598974 0.00044043 -0.000321745 -6.22598e-10 5.39292e-10 -2.58746e-10 5e-05 1.46608e-10 
189 1 0.0329201 0.016988 0.00749858 0.00552836 -0.000144693 0.00030967 -4.08217e-12 1.18431e-10 -1.08482e-10 5e-05 1.46608e-10 
190 1 0.0209804 0.0177687 0.00710842 0.00570328 -0.00156179 0.000454095 2.10169e-11 -4.4534e-11 7.98023e-12 5e-05 1.46608e-10 
191 1 0.0331171 0.0187892 0.00706055 0.00600808 -0.000114116 0.000510647 2.14895e-11 7.57723e-11 4.28952e-11 5e-05 1.46608e-10 
192 1 0.0270407 0.0172056 0.0072574 0.00563416 -0.000186909 0.000115092 -2.07933e-10 3.04365e-11 6.52266e-12 5e-05 1.46608e-10 
193 1 0.0328264 0.0166443 0.00755654 0.00567413 -0.000103143 0.000304695 -3.39978e-10 2.16499e-10 -9.6894e-11 5e-05 1.46608e-10 
194 1 0.0268708 0.0168344 0.00744354 0.00547756 -0.000204542 1.84359e-05 -3.59777e-10 -1.21547e-11 -3.64636e-11 5e-05 1.46608e-10 
195 1 0.0272158 0.017619 0.00716369 0.00600827 -8.03584e-05 9.4115e-05 -1.57138e-09 1.87549e-09 -4.56767e-10 5e-05 1.46608e-10 
196 1 0.026357 0.0155445 0.00844179 0.00625912 -0.00016427 0.000194546 1.00124e-10 1.07294e-10 -1.43203e-10 5e-05 1.46608e-10 
197 1 0.0209703 0.0181228 0.00705003 0.0057592 -0.0015641 0.000425968 4.0151e-12 5.58176e-11 -2.09137e-11 5e-05 1.46608e-10 
198 1 0.026737 0.0170147 0.00729886 0.0055958 -0.000239879 3.64009e-05 8.068e-11 3.85086e-10 -2.45199e-10 5e-05 1.46608e-10 
199 1 0.0269684 0.0177159 0.00713807 0.00549999 -9.2596e-05 9.24737e-05 8.1197e-10 -9.98756e-10 2.25401e-10 5e-05 1.46608e-10 
200 1 0.026832 0.0170467 0.00729162 0.00556945 -0.000200591 0.000122872 -1.0616e-10 2.44025e-10 -6.25469e-11 5e-05 1.46608e-10 
201 1 0.0273297 0.018111 0.00705097 0.00613897 -0.000868102 0.000279339 -7.28911e-11 -1.10314e-10 3.30774e-11 5e-05 1.46608e-10 
202 1 0.0270602 0.0173012 0.00723546 0.00547306 -0.000145387 0.000102022 -2.08232e-09 7.88145e-10 -1.92489e-10 5e-05 1.46608e-10 
203 1 0.0330748 0.0169768 0.00742127 0.00550632 -0.000163651 0.000322575 -7.62367e-11 1.34676e-10 -6.66654e-11 5e-05 1.46608e-10 
204 1 0.026813 0.0169616 0.00734052 0.00555715 -0.000241111 8.81561e-05 5.20874e-10 2.86897e-11 7.81371e-11 5e-05 1.46608e-10 
205 1 0.0271289 0.0179768 0.00707958 0.0059967 -0.000834285 0.000267404 -2.42264e-10 6.08653e-11 4.32343e-11 5e-05 1.46608e-10 
206 1 0.0270862 0.0178425 0.0071102 0.00634902 -0.00066172 0.000233763 3.64371e-10 4.65114e-10 -1.00764e-10 5e-05 1.46608e-10 
207 1 0.0266597 0.0163508 0.00783363 0.00565353 -9.90501e-05 0.000187422 1.55906e-09 -6.57288e-10 4.70766e-10 5e-05 1.46608e-10 
208 1 0.0270436 0.017652 0.00715386 0.00553614 -5.42925e-05 8.14893e-05 5.78659e-10 -7.66437e-10 1.78951e-10 5e-05 1.46608e-10 
209 1 0.0268521 0.0167588 0.00750626 0.00542019 -0.000224262 3.25925e-05 1.05646e-11 -4.24716e-10 2.03792e-10 5e-05 1.46608e-10 
210 1 0.0327712 0.0171079 0.00743975 0.0054688 -0.000181115 0.000308503 -5.47141e-11 1.72487e-10 -2.53825e-11 5e-05 1.46608e-10 
211 1 0.033122 0.0179965 0.00697382 0.00556472 -0.000544606 0.000499773 3.61792e-10 7.71172e-10 -1.72282e-10 5e-05 1.46608e-10 
212 1 0.0271613 0.0177784 0.00712601 0.00653734 -0.000439984 0.000184555 1.69674e-10 2.87896e-10 -5.53989e-11 5e-05 1.46608e-10 
213 1 0.032941 0.0167653 0.00750843 0.00546035 -0.00011279 0.000298255 -1.73081e-10 1.01953e-10 -5.78236e-11 5e-05 1.46608e-10 
214 1 0.0330462 0.0180576 0.00695106 0.0055289 -0.000560469 0.000532908 -2.10595e-10 -4.30133e-10 2.34218e-10 5e-05 1.46608e-10 
215 1 0.0209456 0.0175816 0.00713781 0.00531864 -0.00144911 0.000422069 -3.9763e-11 -4.15024e-11 5.21669e-12 5e-05 1.46608e-10 
216 1 0.0269353 0.0179699 0.00707874 0.0058059 -0.00121467 0.000356012 2.38449e-11 6.33528e-11 -1.60093e-11 5e-05 1.46608e-10 
217 1 0.0327864 0.0164644 0.00763407 0.00569798 -0.000160178 0.000327124 -2.26365e-10 1.08947e-10 -7.72402e-11 5e-05 1.46608e-10 
218 1 0.0270537 0.0180969 0.00705086 0.00588865 -0.00124911 -0.0011193 -1.96017e-10 4.6741e-11 1.69281e-11 5e-05 1.46608e-10 
219 1 0.0330539 0.0185035 0.00699424 0.00609781 -0.000149862 0.000512885 -9.72389e-11 -3.33382e-10 -6.48161e-11 5e-05 1.46608e-10 
220 1 0.0268927 0.0177794 0.0071224 0.00550624 -0.00014388 0.000105968 7.12794e-10 -3.8465e-10 1.14168e-10 5e-05 1.46608e-10 
221 1 0.0208831 0.0172912 0.00720684 0.00536463 -0.00145931 0.000526503 -5.39909e-13 1.71771e-11 -2.76203e-12 5e-05 1.46608e-10 
222 1 0.0328064 0.0165543 0.0075953 0.00569873 -0.000151451 0.000325027 -3.2341e-11 1.33723e-11 -1.17125e-11 5e-05 1.46608e-10 
223 1 0.026985 0.0173652 0.00721966 0.00523021 -0.000280799 0.00013141 -4.41479e-09 2.53215e-10 -6.04515e-11 5e-05 1.46608e-10 
224 1 0.0267951 0.0173014 0.00723207 0.00561688 -0.00011867 9.44541e-05 -1.00438e-10 2.6916e-10 -1.25932e-10 5e-05 1.46608e-10 
225 1 0.0331139 0.0171568 0.00734366 0.00560873 -0.000131983 0.000313252 4.08451e-11 -6.35561e-11 3.17032e-11 5e-05 1.46608e-10 
226 1 0.0271549 0.0173327 0.00722935 0.00557482 7.0442e-05 5.31627e-05 -1.40026e-09 1.22409e-09 -3.05245e-10 5e-05 1.46608e-10 
227 1 0.0209973 0.0174146 0.00716693 0.00536555 -0.00143948 0.000422182 1.20655e-12 -9.6629e-12 -3.83523e-13 5e-05 1.46608e-10 
228 1 0.020927 0.0179299 0.0070802 0.00572474 -0.00155307 0.000453041 -6.46268e-11 2.35726e-12 -4.85449e-12 5e-05 1.46608e-10 
229 1 0.0268064 0.0171096 0.00736792 0.00928311 0.00966492 -0.00421518 0 0 -1.43822e-09 5e-05 1.46608e-10 
230 1 0.0272177 0.0183854 0.00699004 0.0058892 -0.000693809 -5.20116e-05 3.28716e-11 7.76692e-11 6.71438e-13 5e-05 1.46608e-10 
231 1 0.0208853 0.0177367 0.00711035 0.00550186 -0.00151154 0.000438981 9.56595e-11 -4.52359e-11 1.15383e-11 5e-05 1.46608e-10 
232 1 0.0267557 0.0163777 0.00781518 0.00560756 -1.19994e-05 0.000120801 3.28279e-10 -2.26349e-10 2.51783e-10 5e-05 1.46608e-10 
233 1 0.0268888 0.0169101 0.00738069 0.00545414 3.08787e-05 -0.000149477 1.04499e-09 2.57706e-11 5.49084e-11 5e-05 1.46608e-10 
234 1 0.0332925 0.0179717 0.006988 0.00591717 0.000412145 -0.000304727 -6.19655e-10 5.39194e-10 -2.66179e-10 5e-05 1.46608e-10 
235 1 0.027259 0.0186078 0.00694738 0.00606567 -0.000831796 -3.00198e-05 -9.93983e-11 -7.81809e-11 -2.74269e-11 5e-05 1.46608e-10 
236 1 0.0272374 0.0185119 0.00696592 0.00599548 -0.000816498 -7.9575e-06 -2.18182e-11 -6.9558e-11 2.22153e-10 5e-05 1.46608e-10 
237 1 0.0273025 0.018437 0.00697834 0.00598896 -0.000809553 5.03191e-05 1.05758e-10 -7.51588e-11 3.74978e-10 5e-05 1.46608e-10 
239 1 0.0207101 0.0169094 0.00739323 0.00528753 -0.00144497 0.000521767 -4.21345e-11 1.11649e-11 -2.07013e-12 5e-05 1.46608e-10 
240 1 0.0207685 0.0171746 0.00726567 0.00531683 -0.00145089 0.000523654 -8.69748e-12 -1.89469e-11 9.34345e-12 5e-05 1.46608e-10 
241 1 0.0206906 0.016821 0.00743575 0.0052791 -0.00144406 0.000521657 -1.26756e-11 4.40987e-12 -1.13264e-12 5e-05 1.46608e-10 
242 1 0.0270018 0.0170144 0.00730127 0.00560365 -0.000204504 0.000133632 -7.67373e-11 4.502e-10 8.72013e-11 5e-05 1.46608e-10 
243 1 0.0267945 0.0168859 0.00740324 0.00554699 -0.000255199 5.7361e-05 8.54105e-10 -1.47223e-10 1.60518e-10 5e-05 1.46608e-10 
244 1 0.0207295 0.0169978 0.00735071 0.0052978 -0.00144723 0.000522519 -2.96984e-11 3.01924e-11 -1.25557e-11 5e-05 1.46608e-10 
246 1 0.0208464 0.0175432 0.00714065 0.00533214 -0.0014786 0.000427485 -1.13699e-11 -2.67018e-12 9.23812e-12 5e-05 1.46608e-10 