ITEM: TIMESTEP
60000000
ITEM: NUMBER OF ATOMS
272
ITEM: BOX BOUNDS ff ff ff
-0.02 0.43
-0.02 0.06
-0.02 0.07
ITEM: ATOMS id type x y z vx vy vz fx fy fz radius mass 
1 1 0.363039 0.0178884 0.00701058 0.00567103 -0.000170374 5.67333e-05 4.05571e-11 8.8024e-11 -4.62898e-11 5e-05 1.46608e-10 
2 1 0.362989 0.0175449 0.0073022 0.00554963 -0.000134932 5.16155e-05 8.65059e-11 5.46143e-11 -1.40223e-10 5e-05 1.46608e-10 
4 1 0.36295 0.017075 0.0074974 0.00546973 -5.65357e-05 0.000128728 1.75601e-11 -9.50385e-11 5.89699e-11 5e-05 1.46608e-10 
6 1 0.368754 0.0170119 0.00755022 0.00563659 -0.000113107 9.01887e-06 2.64697e-11 6.2118e-11 -3.89522e-11 5e-05 1.46608e-10 
7 1 0.363101 0.0177402 0.00707699 0.00564926 -0.000171162 6.30935e-05 -6.87472e-11 8.40006e-11 -8.0381e-12 5e-05 1.46608e-10 
8 1 0.362767 0.0167081 0.00772224 0.00589839 -7.46355e-05 0.000147221 -1.11517e-10 2.02225e-10 -1.27544e-10 5e-05 1.46608e-10 
9 1 0.36894 0.0178175 0.00698858 0.00565626 -8.92479e-05 5.03601e-05 -9.77434e-12 -1.16468e-11 3.80291e-12 5e-05 1.46608e-10 
10 1 0.362746 0.016625 0.00777353 0.00592562 -8.43312e-05 0.000153653 -4.78587e-11 1.97595e-10 -1.22846e-10 5e-05 1.46608e-10 
11 1 0.36315 0.0183903 0.00695746 0.00593699 -0.000126435 4.69239e-05 7.69973e-11 -9.73613e-10 -6.88646e-11 5e-05 1.46608e-10 
12 1 0.356936 0.0170734 0.00759296 0.00630952 0.000517096 0.00106878 -5.65502e-10 5.76128e-11 -3.87929e-10 5e-05 1.46608e-10 
13 1 0.362543 0.0161825 0.00804492 0.00604827 -0.000131311 0.000184922 2.01534e-11 5.67105e-11 -3.56116e-11 5e-05 1.46608e-10 
14 1 0.356875 0.0171783 0.00747191 0.00633877 0.000490865 0.00108151 -1.19192e-09 2.73106e-10 -1.73387e-10 5e-05 1.46608e-10 
16 1 0.357116 0.0178324 0.00698864 0.00541569 -0.000290668 -0.000184364 1.24629e-10 2.81983e-10 1.80964e-09 5e-05 1.46608e-10 
17 1 0.362608 0.016432 0.00789107 0.00598171 -0.000114848 0.000173616 1.27789e-11 2.88294e-11 -1.85875e-11 5e-05 1.46608e-10 
19 1 0.362565 0.0162657 0.00799364 0.00602568 -0.00012632 0.000181522 1.06991e-11 1.06456e-11 -7.88998e-12 5e-05 1.46608e-10 
21 1 0.362983 0.0176262 0.00715169 0.00558999 -0.000148351 5.16944e-05 4.53342e-11 -9.29113e-11 6.23735e-11 5e-05 1.46608e-10 
22 1 0.363163 0.0176091 0.00716127 0.00564598 -0.000160129 5.83169e-05 7.48799e-11 -5.38505e-12 -8.20485e-12 5e-05 1.46608e-10 
23 1 0.357207 0.0178726 0.00699967 0.00548318 -0.00056136 0.000301676 3.02817e-10 3.33863e-11 1.90042e-10 5e-05 1.46608e-10 
24 1 0.368868 0.0174911 0.00720757 0.0054711 -8.64442e-05 -7.71481e-06 3.30565e-11 -1.58657e-11 1.12495e-11 5e-05 1.46608e-10 
25 1 0.362886 0.0168201 0.00765467 0.00554058 0.00039506 -0.000150711 -8.74402e-11 1.26831e-10 -8.03054e-11 5e-05 1.46608e-10 
26 1 0.368904 0.0176514 0.00709354 0.00559613 -9.56365e-05 1.8328e-05 1.80705e-11 -1.34676e-11 -4.97701e-12 5e-05 1.46608e-10 
27 1 0.356773 0.0168337 0.00781894 0.00574258 0.000471314 0.00096156 2.09759e-10 -3.06462e-10 8.67647e-10 5e-05 1.46608e-10 
28 1 0.362715 0.0168476 0.00763464 0.00587641 -6.96969e-05 0.000143682 -5.4642e-11 7.10454e-11 -4.46064e-11 5e-05 1.46608e-10 
29 1 0.362522 0.0160994 0.00809621 0.00607012 -0.000136181 0.000188304 1.82505e-11 1.12126e-10 -6.63183e-11 5e-05 1.46608e-10 
30 1 0.36283 0.0173506 0.00742559 0.00535507 -4.38836e-05 0.00011413 -1.27571e-10 1.07274e-10 -5.76573e-11 5e-05 1.46608e-10 
31 1 0.363002 0.0177086 0.00709822 0.00561869 -0.000152145 5.48571e-05 8.49884e-11 -2.52744e-11 1.67445e-12 5e-05 1.46608e-10 
32 1 0.362629 0.0165151 0.00783978 0.00596054 -0.000107625 0.000168718 2.10944e-11 8.69174e-11 -5.23394e-11 5e-05 1.46608e-10 
33 1 0.368774 0.0170916 0.0074932 0.00567238 -0.000115892 1.10855e-05 -1.46593e-11 3.57985e-11 -2.92832e-11 5e-05 1.46608e-10 
34 1 0.362586 0.0163488 0.00794235 0.00600401 -0.000120803 0.000177657 -8.02169e-12 -2.85744e-12 1.94573e-12 5e-05 1.46608e-10 
35 1 0.363044 0.0174927 0.00723758 0.00555166 -0.00013791 6.11422e-05 8.12155e-11 -1.31886e-10 -1.33759e-12 5e-05 1.46608e-10 
36 1 0.368998 0.0181111 0.00696813 0.00563929 -9.10422e-05 5.04356e-05 6.18173e-12 -2.72281e-12 -9.96523e-13 5e-05 1.46608e-10 
37 1 0.36293 0.0169912 0.00754912 0.00547978 -4.66573e-06 9.64405e-05 1.19416e-10 -1.49115e-10 9.45812e-11 5e-05 1.46608e-10 
38 1 0.363007 0.0173264 0.00734218 0.00549008 -5.05193e-05 0.000127805 -2.96906e-10 -1.10394e-10 9.66679e-11 5e-05 1.46608e-10 
39 1 0.368885 0.0175712 0.0071503 0.00553852 -9.7118e-05 -1.068e-06 1.01645e-11 -2.7011e-12 8.50994e-12 5e-05 1.46608e-10 
42 1 0.363214 0.0178572 0.0070004 0.00570196 -0.000135435 4.28098e-05 4.03071e-11 7.05736e-12 4.36572e-11 5e-05 1.46608e-10 
44 1 0.363254 0.0180351 0.0069464 0.00566996 -9.55508e-05 4.60877e-05 -1.69634e-10 6.596e-11 -6.60476e-12 5e-05 1.46608e-10 
45 1 0.368793 0.0171714 0.00743616 0.00557912 -0.000100772 8.41346e-07 -1.02373e-10 2.75474e-11 -2.09093e-11 5e-05 1.46608e-10 
47 1 0.292752 0.0169457 0.00821917 -7.86486e-06 -0.0162037 0.0105563 -1.831e-13 1.10008e-10 -5.08045e-11 5e-05 1.46608e-10 
48 1 0.362851 0.0174318 0.00727405 0.00547628 -4.82409e-05 0.000116836 6.41575e-11 -3.23599e-12 -6.80567e-11 5e-05 1.46608e-10 
49 1 0.36896 0.0179154 0.00698176 0.00565835 -9.0949e-05 5.04758e-05 -1.59762e-11 -3.41655e-12 -9.08031e-13 5e-05 1.46608e-10 
50 1 0.36265 0.0165982 0.0077885 0.00593866 -9.90029e-05 0.000163012 2.9076e-11 1.51438e-10 -9.49411e-11 5e-05 1.46608e-10 
51 1 0.363245 0.0184202 0.00695928 0.00594671 -0.000110923 4.58242e-05 2.13376e-10 -9.34089e-10 -2.27322e-11 5e-05 1.46608e-10 
52 1 0.357087 0.0185286 0.00710799 0.00587195 -0.00024459 0.000393059 8.34412e-12 -5.35778e-10 -1.32865e-11 5e-05 1.46608e-10 
53 1 0.36883 0.0173313 0.00732185 0.0054154 -7.60809e-05 -1.45069e-05 2.62307e-11 2.5022e-12 1.06094e-11 5e-05 1.46608e-10 
54 1 0.363082 0.0182102 0.0070312 0.00568997 -0.000309211 0.000147812 -1.98311e-11 9.41224e-12 -1.44881e-10 5e-05 1.46608e-10 
55 1 0.357072 0.0172467 0.00743441 0.000623781 0.00328379 -0.00351072 -1.76046e-10 3.94806e-10 -4.87524e-10 5e-05 1.46608e-10 
56 1 0.362982 0.0180236 0.0069437 0.00568999 -0.000137951 4.31113e-05 -6.33314e-11 -1.17124e-11 -1.42361e-11 5e-05 1.46608e-10 
57 1 0.368812 0.0172513 0.00737902 0.0055262 -9.28321e-05 -3.54867e-06 9.20566e-12 1.17704e-11 -1.03826e-12 5e-05 1.46608e-10 
59 1 0.378022 0.019866 0.005332 -5.01933e-15 -7.41199e-15 7.69803e-14 -1.08567e-24 -4.1359e-25 -2.06795e-25 5e-05 1.46608e-10 
60 1 0.363277 0.0181397 0.00695013 0.00563326 -3.41587e-05 4.86877e-05 -1.76711e-10 -2.9938e-12 -1.04857e-11 5e-05 1.46608e-10 
62 1 0.363025 0.01741 0.00729055 0.00549398 -6.28662e-05 0.000130303 -2.27065e-11 -8.94322e-11 2.8764e-11 5e-05 1.46608e-10 
63 1 0.363058 0.0179586 0.00694216 0.00567755 -0.00017082 4.52901e-05 3.79687e-11 9.31773e-11 1.34311e-11 5e-05 1.46608e-10 
64 1 0.368849 0.0174112 0.00726469 0.00540318 -7.47383e-05 -1.51116e-05 -3.63366e-11 -8.18132e-12 4.13787e-12 5e-05 1.46608e-10 
65 1 0.356857 0.0171108 0.00754339 0.00635527 0.000493204 0.00102972 3.49336e-10 2.90693e-10 4.03017e-10 5e-05 1.46608e-10 
66 1 0.357066 0.0184323 0.00712535 0.00592418 -0.000265995 0.000382675 -7.2739e-11 -2.26831e-10 6.12094e-11 5e-05 1.46608e-10 
67 1 0.363183 0.0181061 0.00694819 0.00565029 -0.000108804 4.62564e-05 -1.48823e-10 2.89832e-11 -3.56034e-11 5e-05 1.46608e-10 
68 1 0.362851 0.0170427 0.0075158 0.005449 -4.83956e-05 0.000123103 1.26792e-11 -1.0309e-11 1.40655e-11 5e-05 1.46608e-10 
69 1 0.363073 0.0184748 0.00695972 0.00600869 -0.000441655 6.9309e-06 1.25941e-10 -7.67855e-11 -9.41963e-11 5e-05 1.46608e-10 
70 1 0.368924 0.0177325 0.0070386 0.00565828 -8.82884e-05 5.14703e-05 -7.01819e-12 -1.39285e-11 -7.49144e-12 5e-05 1.46608e-10 
71 1 0.35717 0.0184733 0.00710345 0.00592151 -7.79461e-05 -0.000440311 2.14368e-10 1.22228e-10 1.00139e-10 5e-05 1.46608e-10 
72 1 0.36302 0.0182198 0.00695299 0.00564097 -0.000140952 3.2152e-05 1.68252e-10 -3.34892e-11 1.85434e-10 5e-05 1.46608e-10 
73 1 0.363195 0.0177747 0.0070539 0.00570321 -0.000132052 3.97524e-05 -1.35939e-12 3.09227e-11 2.00228e-11 5e-05 1.46608e-10 
74 1 0.363118 0.0176312 0.0072474 0.00565124 -0.000154831 6.21845e-05 1.34297e-11 -7.42637e-11 -5.24236e-11 5e-05 1.46608e-10 
76 1 0.356795 0.0169015 0.00774875 0.00585749 0.000505575 0.000987743 -4.52203e-10 -6.25193e-10 5.19843e-10 5e-05 1.46608e-10 
77 1 0.363058 0.0177662 0.00716342 0.00559481 -0.000183897 3.66755e-05 -2.27254e-11 5.22531e-11 1.56871e-10 5e-05 1.46608e-10 
78 1 0.356375 0.0158552 0.00881004 0.00557026 0.000480633 0.000903913 7.15069e-12 3.3758e-10 -3.76897e-10 5e-05 1.46608e-10 
79 1 0.357004 0.018157 0.00703844 0.00589947 -0.00027892 0.000433685 3.87585e-10 -5.05807e-10 -7.94359e-10 5e-05 1.46608e-10 
80 1 0.36281 0.0168753 0.00761908 0.00528218 0.000125148 1.24891e-05 -3.93082e-10 -1.16934e-10 6.55301e-11 5e-05 1.46608e-10 
82 1 0.357232 0.0183366 0.00708438 0.00574653 -0.000424503 0.000348382 -1.11798e-10 7.16402e-11 -2.30514e-11 5e-05 1.46608e-10 
83 1 0.357049 0.0171781 0.00750515 0.007709 0.00189263 -0.000127648 -3.32669e-10 5.13425e-10 -5.97582e-10 5e-05 1.46608e-10 
84 1 0.368979 0.0180132 0.00697495 0.00565831 -9.23823e-05 5.05914e-05 -6.48189e-12 -1.47348e-12 -4.54938e-13 5e-05 1.46608e-10 
85 1 0.357211 0.0182406 0.0070657 0.00599628 -0.000502538 0.000348635 5.4839e-10 2.00326e-10 1.63483e-10 5e-05 1.46608e-10 
86 1 0.36322 0.0179411 0.00694607 0.00568906 -0.000105467 1.86462e-05 -1.14833e-10 6.97179e-11 -8.74539e-11 5e-05 1.46608e-10 
87 1 0.362789 0.0167912 0.00767095 0.00586423 -7.78488e-05 0.000148585 -5.61315e-11 1.63526e-10 -1.02284e-10 5e-05 1.46608e-10 
88 1 0.363077 0.0180117 0.00703524 0.00568519 -0.000165456 5.62723e-05 -3.38547e-11 3.52821e-11 -9.25889e-11 5e-05 1.46608e-10 
89 1 0.363108 0.0182665 0.00695294 0.00567259 -0.000218276 3.91304e-05 6.29245e-11 1.76978e-10 2.92336e-11 5e-05 1.46608e-10 
90 1 0.363188 0.0182059 0.00695159 0.00570519 -0.000105726 4.57232e-05 3.09674e-10 -1.15259e-10 8.78052e-13 5e-05 1.46608e-10 
91 1 0.356916 0.0170055 0.00766379 0.00605845 0.000512144 0.00100789 3.52241e-11 -1.10954e-10 1.62695e-10 5e-05 1.46608e-10 
92 1 0.362958 0.0177343 0.00718569 0.00565456 -0.000129362 4.72948e-05 1.12249e-10 3.16878e-11 -1.62788e-10 5e-05 1.46608e-10 
93 1 0.363215 0.0186829 0.00696786 0.00600683 -0.000112246 4.99526e-05 -4.55879e-10 5.14822e-10 -5.22958e-11 5e-05 1.46608e-10 
94 1 0.362981 0.0179856 0.0070362 0.0056652 -0.000133754 4.79252e-05 -2.62887e-11 -3.02443e-11 -1.16095e-10 5e-05 1.46608e-10 
95 1 0.363021 0.0177909 0.00704483 0.00564802 -0.000159368 5.53329e-05 -5.09734e-12 1.2063e-10 -8.9645e-11 5e-05 1.46608e-10 
96 1 0.362795 0.0171811 0.00742883 0.0055011 -4.77182e-05 0.000122 5.86631e-11 4.26894e-11 -6.20164e-12 5e-05 1.46608e-10 
97 1 0.3566 0.0162912 0.00838061 0.00559972 0.000512313 0.000875225 -7.6698e-11 9.07733e-11 -1.02867e-10 5e-05 1.46608e-10 
98 1 0.363116 0.0186699 0.00696658 0.00603572 -0.000446928 3.33698e-05 -1.32856e-10 -2.92941e-10 9.32796e-11 5e-05 1.46608e-10 
99 1 0.356851 0.0174447 0.00732316 0.00583734 0.0036444 0.000574966 2.48367e-10 -4.32781e-10 3.43686e-10 5e-05 1.46608e-10 
100 1 0.363114 0.0178236 0.00702297 0.00567982 -0.000158442 5.71573e-05 2.00922e-11 -2.39164e-12 -4.71958e-12 5e-05 1.46608e-10 
101 1 0.356853 0.0174341 0.00722375 0.00559495 0.000214281 0.000746747 6.75951e-10 2.01209e-09 3.05496e-10 5e-05 1.46608e-10 
102 1 0.0643568 0.0187248 0.00531097 4.40094e-15 1.04612e-14 8.29578e-14 -7.23977e-22 2.63586e-22 -9.30578e-24 5e-05 1.46608e-10 
103 1 0.24257 0.0191927 0.00520306 1.4124e-22 2.24983e-22 1.23839e-22 0 0 0 5e-05 1.46608e-10 
104 1 0.357153 0.0179559 0.00701055 0.00561807 -0.000462874 0.000332776 2.53907e-10 -2.03735e-10 1.49009e-10 5e-05 1.46608e-10 
105 1 0.356581 0.0162234 0.00845178 0.00558543 0.00053385 0.000853153 2.34211e-10 4.01582e-10 -3.84855e-10 5e-05 1.46608e-10 
106 1 0.356937 0.0176843 0.00717001 0.0062743 -5.92752e-05 -0.000228642 2.61506e-10 1.0762e-09 -2.2021e-10 5e-05 1.46608e-10 
107 1 0.356396 0.015923 0.00873982 0.00559708 0.000511227 0.000877872 1.04795e-10 -1.11774e-10 2.32353e-10 5e-05 1.46608e-10 
108 1 0.363001 0.0181217 0.00694716 0.00566341 -0.000137272 4.43394e-05 2.04679e-10 -6.49753e-11 9.0213e-12 5e-05 1.46608e-10 
109 1 0.363172 0.0184878 0.00696093 0.00597465 -0.000168572 4.54764e-05 3.44027e-10 -1.4513e-10 2.66966e-11 5e-05 1.46608e-10 
110 1 0.363037 0.0178541 0.00712063 0.00567844 -0.000160516 4.42466e-05 1.17216e-10 1.02362e-12 8.74849e-12 5e-05 1.46608e-10 
111 1 0.362849 0.0174342 0.00737399 0.00542028 -5.21558e-05 0.000122537 3.7315e-11 7.93948e-11 -6.55276e-11 5e-05 1.46608e-10 
112 1 0.356743 0.016463 0.0082256 0.00568205 0.000395787 0.00102902 2.45159e-10 -3.06856e-10 3.8403e-10 5e-05 1.46608e-10 
113 1 0.356783 0.0171405 0.00747829 0.00584398 0.00168793 -0.000374114 3.87514e-11 1.51652e-10 -1.61766e-10 5e-05 1.46608e-10 
114 1 0.356817 0.0172765 0.00733497 0.00546424 0.000329975 0.00105121 5.52524e-11 2.91418e-10 -3.36541e-10 5e-05 1.46608e-10 
115 1 0.362988 0.0172426 0.0073939 0.00547539 -3.94434e-05 0.000117928 1.85436e-11 -1.48153e-10 1.00663e-10 5e-05 1.46608e-10 
116 1 0.362964 0.0175438 0.00720516 0.00554842 -0.000134277 4.44992e-05 -1.09926e-10 2.99905e-11 -1.16366e-10 5e-05 1.46608e-10 
117 1 0.363082 0.0176577 0.0071305 0.00563268 -0.000158649 5.80753e-05 1.08049e-10 4.31477e-12 -2.98546e-11 5e-05 1.46608e-10 
118 1 0.356977 0.0172148 0.0074456 0.00665421 0.00106336 0.000531328 -5.2709e-10 5.08531e-12 -1.46741e-11 5e-05 1.46608e-10 
119 1 0.363036 0.0182973 0.00701418 0.00576907 -0.000273017 0.000163653 3.3984e-11 5.74107e-11 1.69732e-10 5e-05 1.46608e-10 
120 1 0.363126 0.0174438 0.00726851 0.005536 -0.000161588 6.24099e-05 1.34776e-10 -7.25348e-11 7.04363e-11 5e-05 1.46608e-10 
121 1 0.362907 0.0176812 0.00711698 0.00561981 -0.000113921 3.94153e-05 1.62927e-10 1.20862e-10 2.74711e-11 5e-05 1.46608e-10 
122 1 0.362775 0.0170976 0.00748038 0.00547394 -2.79173e-05 0.000111087 -1.18808e-10 -7.79031e-11 4.76635e-11 5e-05 1.46608e-10 
123 1 0.35713 0.0187227 0.00712838 0.00591055 -8.13037e-05 -0.000459136 -1.32412e-10 -1.46362e-10 -6.66715e-11 5e-05 1.46608e-10 
124 1 0.363183 0.0176914 0.0071079 0.00566647 -0.000163933 5.97457e-05 -7.3515e-11 8.88802e-12 6.15437e-12 5e-05 1.46608e-10 
125 1 0.362889 0.0172097 0.00741268 0.00548038 -4.97516e-05 0.000124209 1.8062e-11 -6.69386e-11 4.55711e-11 5e-05 1.46608e-10 
127 1 0.356462 0.0161264 0.00852921 0.00559999 0.000548427 0.000823627 -1.126e-10 -1.60111e-11 1.33009e-10 5e-05 1.46608e-10 
128 1 0.363107 0.0173614 0.00732195 0.00548207 -0.00015172 5.00014e-05 9.54284e-11 -1.03799e-10 6.00303e-12 5e-05 1.46608e-10 
129 1 0.363161 0.0180143 0.00698147 0.00568407 -0.000131341 4.02575e-05 -9.54627e-11 5.00037e-11 -1.35622e-10 5e-05 1.46608e-10 
130 1 0.356916 0.017308 0.00732546 0.00583502 0.000453308 0.000998284 1.28061e-09 1.30632e-10 -3.5265e-10 5e-05 1.46608e-10 
131 1 0.356929 0.0173757 0.00725302 0.00561802 0.000388245 0.0010049 3.71712e-11 -2.33805e-10 -1.1757e-09 5e-05 1.46608e-10 
132 1 0.362969 0.0171591 0.00744551 0.00549279 -3.97745e-05 0.000118623 -6.54536e-11 -1.56866e-10 9.39619e-11 5e-05 1.46608e-10 
133 1 0.362944 0.0178233 0.00714213 0.00562713 -0.000128673 4.46504e-05 1.60239e-10 5.11139e-11 -1.96839e-10 5e-05 1.46608e-10 
134 1 0.362946 0.0174606 0.00725777 0.00548727 -4.41172e-05 0.000125871 5.34114e-11 8.18216e-11 -4.82379e-11 5e-05 1.46608e-10 
135 1 0.363094 0.0185724 0.00696311 0.00601096 -0.00044934 3.37256e-05 1.19394e-10 -2.54025e-10 -2.14289e-10 5e-05 1.46608e-10 
136 1 0.356839 0.0170371 0.0076085 0.00610039 0.000491729 0.000987944 5.9313e-10 -5.17285e-11 4.74293e-10 5e-05 1.46608e-10 
137 1 0.363096 0.0179267 0.0070844 0.00569922 -0.00017912 4.41846e-05 1.34444e-10 8.15719e-11 1.03414e-10 5e-05 1.46608e-10 
138 1 0.362938 0.017652 0.00723891 0.00562339 -0.000126202 4.00038e-05 1.16034e-10 8.66031e-11 3.39479e-11 5e-05 1.46608e-10 
140 1 0.362735 0.0169309 0.00758326 0.00521726 3.97099e-05 6.44067e-05 -2.78771e-10 -6.53813e-13 -1.32078e-12 5e-05 1.46608e-10 
141 1 0.356785 0.0165987 0.00808489 0.00566947 0.000401997 0.00101774 1.3167e-09 -5.31976e-10 8.70526e-10 5e-05 1.46608e-10 
142 1 0.357194 0.0177745 0.00701403 0.00537117 -0.000606958 -7.40455e-06 1.01019e-10 2.65535e-10 -1.87968e-11 5e-05 1.46608e-10 
143 1 0.356418 0.0159908 0.0086696 0.00558421 0.000543507 0.000833798 -3.01149e-10 -5.04953e-10 4.06073e-10 5e-05 1.46608e-10 
144 1 0.357161 0.0175999 0.00710594 0.00526928 -0.00063402 3.71244e-05 3.62655e-10 1.96545e-10 -7.46957e-11 5e-05 1.46608e-10 
146 1 0.35685 0.0174485 0.00742759 0.0100846 0.0154181 -0.0245914 0 0 -1.43822e-09 5e-05 1.46608e-10 
147 1 0.356895 0.0172403 0.00739584 0.00609593 0.000479095 0.00107005 6.47261e-10 1.15858e-10 2.17994e-11 5e-05 1.46608e-10 
148 1 0.356807 0.0166665 0.00801468 0.00570677 0.000418504 0.00100684 8.43681e-10 -3.06574e-10 5.76825e-10 5e-05 1.46608e-10 
149 1 0.362672 0.0166814 0.00773721 0.00591829 -8.88036e-05 0.000156364 3.45422e-11 2.03693e-10 -1.24425e-10 5e-05 1.46608e-10 
150 1 0.356968 0.0179656 0.00700022 0.00555947 -0.00030193 0.000434326 4.04959e-10 -9.33482e-10 8.54319e-10 5e-05 1.46608e-10 
151 1 0.356891 0.0176024 0.00712016 0.00558866 -0.000282828 -0.0001744 3.83468e-11 1.71622e-10 -9.07153e-11 5e-05 1.46608e-10 
153 1 0.356829 0.0167343 0.00794446 0.00571486 0.000445645 0.000978566 -1.21183e-10 -3.46594e-10 5.51654e-10 5e-05 1.46608e-10 
154 1 0.356442 0.0160585 0.00860005 0.00556765 0.000556412 0.000810532 -2.81937e-11 -1.03533e-10 2.41339e-10 5e-05 1.46608e-10 
155 1 0.356804 0.017242 0.00750197 0.00633793 0.000410865 0.00124993 2.60341e-10 1.22258e-10 -5.30672e-10 5e-05 1.46608e-10 
156 1 0.356764 0.0165308 0.00815511 0.00568014 0.000404344 0.00101754 3.00375e-10 -4.96891e-10 6.46275e-10 5e-05 1.46608e-10 
157 1 0.0219312 0.0187687 0.00551176 -3.83107e-14 8.16758e-14 2.95888e-13 8.50548e-22 4.54587e-22 -3.10193e-23 5e-05 1.46608e-10 
158 1 0.356872 0.0168699 0.00780403 0.0058512 0.000490144 0.000992356 5.37824e-10 -2.93339e-10 1.3125e-10 5e-05 1.46608e-10 
159 1 0.362831 0.0169593 0.00756727 0.00534478 -3.13398e-05 0.00011083 6.40341e-11 1.27977e-12 4.22903e-12 5e-05 1.46608e-10 
160 1 0.356872 0.017515 0.00716791 0.00545208 -0.000681371 -0.000454651 6.36199e-10 2.01572e-09 6.47362e-10 5e-05 1.46608e-10 
162 1 0.357108 0.0186253 0.00712147 0.00590229 -8.00523e-05 -0.000690542 -6.43713e-10 -3.82906e-10 2.10501e-10 5e-05 1.46608e-10 
164 1 0.356621 0.016359 0.00831039 0.00562161 0.000497041 0.000896298 -5.40799e-10 -1.56136e-10 7.51626e-11 5e-05 1.46608e-10 
165 1 0.357026 0.0178077 0.00702304 0.00553078 -0.000396797 -5.57594e-05 8.44037e-10 -2.58715e-10 -6.49779e-10 5e-05 1.46608e-10 
166 1 0.362832 0.0173482 0.00732564 0.00539479 -3.90017e-05 0.000114853 -1.04068e-10 8.08535e-11 -5.94185e-11 5e-05 1.46608e-10 
167 1 0.357091 0.0181831 0.00708007 0.00588205 -0.000377969 0.000377695 5.18346e-10 1.33431e-10 2.99886e-10 5e-05 1.46608e-10 
168 1 0.357141 0.0183792 0.00708531 0.00589245 -0.00021221 0.000382835 -7.73247e-11 -7.5972e-11 -9.76793e-12 5e-05 1.46608e-10 
169 1 0.35693 0.0177785 0.0070271 0.00558101 -0.000630194 6.41176e-06 2.20581e-10 2.5779e-10 -3.71857e-10 5e-05 1.46608e-10 
170 1 0.357081 0.0180941 0.00702996 0.00583076 -0.000356906 0.000361261 -2.16667e-10 -1.19674e-09 -2.60574e-10 5e-05 1.46608e-10 
171 1 0.363077 0.0180567 0.00694562 0.00566099 -0.000165866 4.07386e-05 -2.80259e-11 -1.47066e-11 2.42682e-11 5e-05 1.46608e-10 
172 1 0.356764 0.0170727 0.00754934 0.00608303 0.00167524 -0.000298307 5.15653e-11 1.66187e-10 -1.72152e-10 5e-05 1.46608e-10 
173 1 0.363193 0.0185854 0.0069644 0.0059674 -0.000165394 4.56457e-05 3.00529e-10 1.15236e-09 8.0888e-12 5e-05 1.46608e-10 
174 1 0.35672 0.0169642 0.00778653 0.00630004 0.000214541 0.000564451 -6.97178e-10 -6.41599e-10 -1.15018e-09 5e-05 1.46608e-10 
176 1 0.357025 0.017634 0.00719394 0.00448711 0.000616669 -0.000675915 1.7629e-10 -1.03733e-09 1.07148e-09 5e-05 1.46608e-10 
177 1 0.356483 0.0162102 0.00847923 0.00562338 0.000544638 0.000864972 -3.52037e-11 2.85515e-10 3.5342e-10 5e-05 1.46608e-10 
178 1 0.356916 0.0175986 0.00721723 0.00582714 0.000378635 0.000216893 -1.33665e-09 1.87147e-09 -9.93105e-10 5e-05 1.46608e-10 
179 1 0.357179 0.0181479 0.00704675 0.00584789 -0.000479983 0.000344565 1.95959e-10 2.51206e-11 1.55221e-10 5e-05 1.46608e-10 
182 1 0.362946 0.0178529 0.00702316 0.00566211 -0.000136048 4.44751e-05 2.64865e-11 -1.89655e-11 -1.37868e-10 5e-05 1.46608e-10 
183 1 0.357098 0.0178338 0.00708695 0.00558995 -0.000510652 -6.06742e-05 -5.25873e-10 5.25946e-10 9.44697e-10 5e-05 1.46608e-10 
184 1 0.363202 0.0183049 0.00695504 0.00585425 -0.000132719 4.51287e-05 2.37986e-10 -4.60265e-10 -1.00222e-11 5e-05 1.46608e-10 
185 1 0.35718 0.0176869 0.00706006 0.00544095 -0.00062968 2.52473e-05 -1.0249e-09 9.65701e-11 -2.23309e-10 5e-05 1.46608e-10 
186 1 0.357046 0.0183494 0.00707301 0.00592769 -0.000272989 0.000385149 -1.18019e-10 1.76536e-10 9.22536e-11 5e-05 1.46608e-10 
187 1 0.362926 0.0177638 0.00706394 0.00562894 -0.000125568 4.11746e-05 1.15569e-10 2.80892e-11 -1.3241e-10 5e-05 1.46608e-10 
188 1 0.36287 0.0171262 0.00746425 0.0054868 -5.04671e-05 0.000124398 1.02017e-10 -6.2115e-11 4.62796e-11 5e-05 1.46608e-10 
189 1 0.362888 0.0175987 0.00717039 0.00556357 -8.95627e-05 4.72711e-05 -1.55409e-12 5.23375e-11 3.94516e-12 5e-05 1.46608e-10 
190 1 0.351068 0.0184491 0.00690219 0.00616634 -0.000266565 -1.1375e-05 8.15706e-12 1.39823e-11 4.54955e-12 5e-05 1.46608e-10 
191 1 0.363037 0.0176815 0.0072167 0.00564965 -0.000148187 6.28136e-05 4.39301e-11 -7.36402e-11 -1.27501e-10 5e-05 1.46608e-10 
192 1 0.3568 0.0172086 0.00740657 0.00561019 0.00117357 0.000140271 4.73228e-11 1.94491e-10 -2.06901e-10 5e-05 1.46608e-10 
193 1 0.363096 0.0181549 0.00694909 0.00562673 -0.000161348 4.46512e-05 -1.57946e-10 -1.23735e-10 7.93416e-12 5e-05 1.46608e-10 
194 1 0.35712 0.018282 0.00706639 0.00601921 -0.000403831 0.0003776 8.48105e-10 4.92121e-10 3.00169e-10 5e-05 1.46608e-10 
195 1 0.356986 0.0176282 0.00710183 0.00544392 -0.000827063 -0.00102633 -2.81501e-10 -5.15905e-11 4.6275e-10 5e-05 1.46608e-10 
196 1 0.357081 0.0176549 0.00708218 0.0054371 -0.00049547 -4.14981e-05 6.39981e-10 3.66385e-10 -3.21381e-10 5e-05 1.46608e-10 
197 1 0.350752 0.0169753 0.00743407 0.00559048 -9.00509e-06 0.000402471 -1.09875e-10 -2.90648e-11 9.61596e-12 5e-05 1.46608e-10 
198 1 0.357126 0.0174283 0.0072451 0.00622935 0.000379013 0.000953189 9.95864e-11 4.0399e-09 2.78502e-09 5e-05 1.46608e-10 
199 1 0.357044 0.0179012 0.00699273 0.00555974 -0.000258677 0.000397003 1.57218e-09 -1.50488e-10 -4.09788e-11 5e-05 1.46608e-10 
200 1 0.356557 0.0161557 0.00852111 0.00558214 0.000550516 0.000833151 -4.09136e-11 2.81284e-10 -4.85929e-10 5e-05 1.46608e-10 
201 1 0.357006 0.0177176 0.00706189 0.00549638 -0.000677086 -0.000720971 4.16512e-10 4.34296e-10 9.41898e-10 5e-05 1.46608e-10 
202 1 0.356894 0.0169377 0.00773389 0.00592795 0.000487787 0.00097763 -2.17175e-10 -2.82239e-10 -2.6348e-11 5e-05 1.46608e-10 
203 1 0.362927 0.0173769 0.00730947 0.00547797 -4.36302e-05 0.000122477 -2.49229e-12 7.18249e-11 -4.60651e-11 5e-05 1.46608e-10 
204 1 0.357268 0.0180608 0.00703778 0.00579682 -0.00051957 0.000342378 -3.08314e-10 -3.13251e-10 -1.33615e-11 5e-05 1.46608e-10 
205 1 0.356708 0.0166303 0.00802959 0.00566821 0.000425085 0.000995752 7.45123e-10 -2.2082e-10 4.93125e-10 5e-05 1.46608e-10 
206 1 0.356752 0.0167659 0.00788916 0.00570143 0.000454443 0.000970864 2.75874e-11 -4.30606e-10 5.02828e-10 5e-05 1.46608e-10 
207 1 0.356547 0.0163931 0.00825301 0.00563715 0.000519008 0.000881917 3.07176e-11 1.28546e-10 -4.04453e-11 5e-05 1.46608e-10 
208 1 0.356955 0.0171419 0.00752113 0.00653543 0.000698114 0.000891994 -8.93916e-10 9.19237e-10 -6.43748e-10 5e-05 1.46608e-10 
209 1 0.356743 0.0170045 0.0076199 0.00603333 0.00154202 -0.000162164 5.42857e-11 1.75762e-10 -1.82194e-10 5e-05 1.46608e-10 
210 1 0.36291 0.0169073 0.00760089 0.00542225 5.05575e-05 6.12374e-05 -4.23517e-12 -1.60249e-10 9.74546e-11 5e-05 1.46608e-10 
211 1 0.362693 0.0167645 0.00768593 0.00589456 -7.76966e-05 0.000149039 1.75607e-11 1.79306e-10 -1.1186e-10 5e-05 1.46608e-10 
212 1 0.357169 0.0180483 0.00704513 0.00575461 -0.000466846 0.000333893 -2.08343e-11 -2.26543e-10 -7.07912e-11 5e-05 1.46608e-10 
213 1 0.36287 0.0175154 0.00722242 0.00548278 -3.95231e-05 0.000122375 5.38411e-12 4.54003e-12 7.86067e-11 5e-05 1.46608e-10 
214 1 0.363063 0.0175751 0.00718408 0.00557953 -0.000157013 5.78555e-05 9.12649e-11 -1.1388e-10 5.39477e-11 5e-05 1.46608e-10 
215 1 0.350968 0.0179854 0.00706021 0.00555017 -0.000160764 -3.71485e-05 7.43775e-11 4.95402e-11 -1.18282e-11 5e-05 1.46608e-10 
216 1 0.356525 0.0163253 0.00832323 0.00562394 0.000506689 0.000882675 2.29021e-10 2.34468e-10 -1.61598e-10 5e-05 1.46608e-10 
217 1 0.362963 0.0179265 0.00695759 0.00569363 -0.000142468 4.51541e-05 -3.4151e-11 1.69739e-11 -4.48291e-11 5e-05 1.46608e-10 
218 1 0.356834 0.0173444 0.00726345 0.00556494 0.000401015 0.00105791 -4.67593e-11 -1.03871e-09 1.141e-09 5e-05 1.46608e-10 
219 1 0.363144 0.0175263 0.00721504 0.00557414 -0.000166835 6.19791e-05 1.50933e-10 -8.89175e-11 4.5483e-11 5e-05 1.46608e-10 
220 1 0.35695 0.0174588 0.00720145 0.00544417 1.71594e-05 0.000424058 1.00389e-09 -2.50466e-11 -1.17324e-09 5e-05 1.46608e-10 
222 1 0.363134 0.0179175 0.00699247 0.00569747 -0.000145631 4.61868e-05 2.50687e-11 6.19624e-11 5.00239e-11 5e-05 1.46608e-10 
224 1 0.356655 0.0167319 0.00790219 0.0056774 0.000458044 0.000970663 3.76831e-10 1.3526e-10 -1.81684e-12 5e-05 1.46608e-10 
225 1 0.362942 0.0174725 0.00735698 0.00550188 -2.39773e-05 0.000128957 -2.84943e-11 -2.34188e-10 -6.35816e-11 5e-05 1.46608e-10 
226 1 0.357073 0.0177427 0.00713209 0.00530767 -0.000387621 -0.000255651 4.27169e-11 3.20299e-10 -1.10107e-09 5e-05 1.46608e-10 
227 1 0.350987 0.0180783 0.00702858 0.00556311 -0.00015772 -3.82434e-05 5.66039e-11 -9.05725e-12 7.02399e-12 5e-05 1.46608e-10 
228 1 0.350928 0.0177998 0.00712346 0.00553523 -0.000153981 -3.92522e-05 -1.48513e-11 -4.31362e-11 1.15501e-11 5e-05 1.46608e-10 
229 1 0.357025 0.0182535 0.00705476 0.00595534 -0.000287627 0.000421059 2.85719e-10 3.56694e-10 6.78971e-11 5e-05 1.46608e-10 
230 1 0.356746 0.0170306 0.00771643 0.00577465 0.000187336 0.00041823 -1.59272e-10 -2.13006e-10 3.66335e-11 5e-05 1.46608e-10 
232 1 0.357062 0.0179977 0.00701165 0.005659 -0.000305925 0.000391273 1.93172e-10 -6.79983e-10 6.43604e-11 5e-05 1.46608e-10 
233 1 0.356981 0.0178959 0.00707059 0.00510048 -0.000361459 0.000154371 -1.84499e-10 -1.07106e-10 3.73114e-10 5e-05 1.46608e-10 
234 1 0.363051 0.0183773 0.00695618 0.00600207 -0.000428018 3.56979e-05 -5.05478e-11 -2.48163e-11 -9.49243e-11 5e-05 1.46608e-10 
235 1 0.356634 0.0166641 0.00797241 0.00565623 0.000446136 0.000976239 2.37096e-10 -1.13191e-11 9.94169e-11 5e-05 1.46608e-10 
236 1 0.356961 0.0173771 0.00738186 0.00866814 0.000360853 -0.00135369 -3.18737e-09 3.58333e-09 -1.62993e-09 5e-05 1.46608e-10 
237 1 0.356721 0.0169364 0.00769048 0.00589852 0.000715026 0.000344827 0 0 -1.43822e-09 5e-05 1.46608e-10 
239 1 0.350652 0.0165381 0.00765511 0.00576311 -3.20432e-05 0.000426448 -1.0296e-11 -2.91493e-11 1.93651e-11 5e-05 1.46608e-10 
240 1 0.350713 0.0168003 0.00752256 0.00555584 -2.76226e-06 0.000396218 1.21076e-10 -5.21983e-12 3.52023e-11 5e-05 1.46608e-10 
241 1 0.350632 0.0164508 0.00769924 0.00575492 -3.24493e-05 0.000425839 -5.78862e-12 -3.75114e-11 1.2261e-11 5e-05 1.46608e-10 
242 1 0.357123 0.0173104 0.00737627 0.00675156 0.00166686 -0.00010154 -4.59736e-10 2.83302e-10 -8.27605e-10 5e-05 1.46608e-10 
243 1 0.357062 0.0175684 0.00712831 0.00550684 -0.000128561 0.000508398 -1.21831e-09 -1.70068e-10 -1.18859e-09 5e-05 1.46608e-10 
244 1 0.350673 0.0166255 0.00761097 0.00577146 -3.21937e-05 0.000426874 -1.59849e-11 -2.92739e-11 1.56458e-11 5e-05 1.46608e-10 
246 1 0.35085 0.0174286 0.00724996 0.00551407 -0.000157478 -3.75842e-05 3.27342e-12 2.97685e-11 -1.52776e-11 5e-05 1.46608e-10 
247 1 0.356569 0.0164609 0.00818279 0.00565389 0.000500477 0.000875194 -4.8129e-10 -5.59865e-10 -1.33686e-10 5e-05 1.46608e-10 
248 1 0.356897 0.0175135 0.00726613 0.00566863 0.000578301 0.000252287 1.52629e-09 2.08238e-09 -3.97518e-10 5e-05 1.46608e-10 
249 1 0.350791 0.0171503 0.00734549 0.00547502 2.80637e-06 0.000388683 1.85106e-11 2.36807e-11 8.532e-12 5e-05 1.46608e-10 
250 1 0.356666 0.0164946 0.00817029 0.00568565 0.000424003 0.000999161 3.24256e-10 -1.45227e-10 2.20731e-10 5e-05 1.46608e-10 
251 1 0.362908 0.0172933 0.00736107 0.00547641 -4.58043e-05 0.000122602 6.16121e-11 -1.43504e-11 1.35615e-13 5e-05 1.46608e-10 
252 1 0.35087 0.0175214 0.00721834 0.00552242 -0.000156615 -3.80959e-05 -3.89845e-11 5.61975e-11 -1.2697e-11 5e-05 1.46608e-10 
253 1 0.351048 0.0183564 0.00693378 0.00612251 -0.000258641 -1.33583e-05 -3.32121e-12 3.98936e-12 -9.8311e-12 5e-05 1.46608e-10 
254 1 0.350811 0.0172429 0.00731322 0.00548133 -0.000147113 -3.98283e-05 -3.14799e-11 2.0311e-11 -5.124e-11 5e-05 1.46608e-10 
255 1 0.357036 0.0175351 0.00721912 0.0043384 0.00028224 0.000327739 -1.76695e-10 -3.21814e-10 -4.91844e-10 5e-05 1.46608e-10 
256 1 0.357278 0.0181587 0.00705599 0.0058472 -0.000506355 0.000338418 -2.33498e-10 -2.56358e-10 -5.44244e-11 5e-05 1.46608e-10 
257 1 0.356851 0.0168021 0.00787424 0.00573565 0.000473114 0.000973763 1.29752e-10 -2.85436e-10 4.80762e-10 5e-05 1.46608e-10 
258 1 0.356958 0.0174499 0.00731348 0.00637242 0.00115688 -0.000222985 2.24358e-10 -3.94508e-09 -1.43933e-09 5e-05 1.46608e-10 
259 1 0.350889 0.0176142 0.00718671 0.00553225 -0.000155856 -3.86587e-05 -1.06733e-11 8.58265e-11 -3.02823e-11 5e-05 1.46608e-10 
260 1 0.356911 0.0176905 0.00707361 0.0055423 -0.000602577 -2.78816e-05 4.1649e-10 2.10536e-09 -6.69181e-10 5e-05 1.46608e-10 
261 1 0.356884 0.0171499 0.00763152 0.00642248 0.000657316 0.00102299 -7.91805e-10 8.25936e-10 -4.16971e-10 5e-05 1.46608e-10 
262 1 0.35677 0.0170982 0.00764684 0.00620273 0.000496614 0.000828568 -3.66506e-10 3.93251e-10 1.55331e-09 5e-05 1.46608e-10 