ITEM: TIMESTEP
35200000
ITEM: NUMBER OF ATOMS
275
ITEM: BOX BOUNDS ff ff ff
-0.02 0.43
-0.02 0.06
-0.02 0.07
ITEM: ATOMS id type x y z vx vy vz fx fy fz radius mass 
1 1 0.21853 0.0183012 0.00702062 0.00545151 -0.000219699 0.000236075 7.47843e-11 -1.31934e-10 2.69538e-11 5e-05 1.46608e-10 
2 1 0.218174 0.0170822 0.00738311 0.00616016 -0.000386507 -0.000121384 -1.05459e-10 3.76261e-10 -2.72294e-10 5e-05 1.46608e-10 
4 1 0.218339 0.0169939 0.00744426 0.00628511 -0.000431515 -9.24328e-05 -2.36388e-10 3.7138e-10 -3.33057e-10 5e-05 1.46608e-10 
5 1 0.217693 0.0153642 0.00883444 0.00552727 -0.000257053 -0.00010096 -2.77706e-10 2.87206e-11 8.97411e-11 5e-05 1.46608e-10 
6 1 0.224163 0.017101 0.00751658 0.00601552 0.000131585 0.00035968 1.3809e-11 -5.16417e-11 5.63707e-11 5e-05 1.46608e-10 
7 1 0.218483 0.0176565 0.00712082 0.00577905 -0.000242009 0.000247624 -9.44844e-11 -1.46627e-10 -1.15723e-10 5e-05 1.46608e-10 
8 1 0.218163 0.0167294 0.00767533 0.00604684 -0.000383219 -0.000115484 -1.44071e-10 2.69186e-10 -2.02652e-10 5e-05 1.46608e-10 
9 1 0.224357 0.0178991 0.00698907 0.00561494 -0.000145491 0.000109104 2.85761e-11 -3.47075e-12 3.54145e-12 5e-05 1.46608e-10 
10 1 0.217813 0.0158145 0.00845647 0.00559564 -0.000328463 -0.000129726 4.55852e-10 -7.72421e-11 6.44251e-11 5e-05 1.46608e-10 
11 1 0.218341 0.0177401 0.00717684 0.00565169 -0.000251941 0.000350948 -2.99708e-10 -3.72306e-10 2.38721e-10 5e-05 1.46608e-10 
12 1 0.212413 0.0169477 0.00736323 0.00591065 0.000285831 0.000478719 3.97963e-10 -3.31508e-10 4.45788e-10 5e-05 1.46608e-10 
13 1 0.217674 0.0152886 0.00889694 0.00562688 -0.000271892 -0.000101442 -9.48054e-11 5.79818e-11 -5.57896e-11 5e-05 1.46608e-10 
14 1 0.212392 0.0176306 0.00713563 0.0055669 -8.31045e-05 -0.000170219 -2.92695e-10 1.21257e-10 -5.15529e-11 5e-05 1.46608e-10 
16 1 0.21267 0.0180699 0.00699217 0.00560015 -2.41513e-05 -0.000174989 7.30002e-11 -1.4803e-10 4.9334e-11 5e-05 1.46608e-10 
17 1 0.217792 0.0157398 0.00851947 0.00545083 -0.000298514 -0.000138103 2.31781e-10 -7.69078e-11 3.95683e-12 5e-05 1.46608e-10 
19 1 0.217654 0.0152131 0.0089594 0.00563752 -0.000275936 -9.45342e-05 1.36074e-10 1.35167e-10 -1.27854e-10 5e-05 1.46608e-10 
21 1 0.218524 0.0178487 0.00708439 0.00559145 -0.000189364 0.000240563 2.80903e-11 -1.40107e-10 5.43556e-11 5e-05 1.46608e-10 
22 1 0.21812 0.0165803 0.00780159 0.00593561 -0.000427381 -7.04421e-05 -8.64547e-11 -2.66647e-10 2.4957e-10 5e-05 1.46608e-10 
23 1 0.212639 0.0178813 0.00705085 0.00560293 -8.00349e-05 -0.000157084 1.11015e-10 -1.01613e-11 -4.85518e-12 5e-05 1.46608e-10 
24 1 0.224284 0.0175507 0.0071384 0.00582813 0.000154006 0.000326841 6.33926e-11 1.26091e-11 1.51001e-11 5e-05 1.46608e-10 
25 1 0.217855 0.0159636 0.00833002 0.00572987 -0.000353185 -0.000127678 -3.2736e-10 1.22046e-10 -6.48752e-11 5e-05 1.46608e-10 
26 1 0.224317 0.0177049 0.00701558 0.00558015 -0.000178832 -0.000189247 -1.05221e-12 -1.57518e-12 -7.98374e-12 5e-05 1.46608e-10 
27 1 0.212224 0.0168907 0.00739281 0.00627977 0.000324933 0.00048557 3.9268e-10 3.64899e-10 -5.67841e-10 5e-05 1.46608e-10 
28 1 0.218248 0.0170279 0.00742266 0.00617066 -0.000481949 -4.29713e-05 -1.16614e-09 -4.02875e-10 4.64195e-10 5e-05 1.46608e-10 
29 1 0.217634 0.0151376 0.00902185 0.00565671 -0.000283111 -9.10755e-05 1.09541e-12 1.42909e-10 -1.40089e-10 5e-05 1.46608e-10 
30 1 0.21794 0.016262 0.00807764 0.00584501 -0.000370307 -0.000110652 -1.40044e-10 1.87104e-11 -1.79961e-11 5e-05 1.46608e-10 
31 1 0.218559 0.0175892 0.00712244 0.00575605 -0.000159471 0.000237639 1.36333e-10 -1.83715e-10 -1.31882e-12 5e-05 1.46608e-10 
32 1 0.217877 0.0160381 0.00826722 0.00575378 -0.000358425 -0.000121196 9.82732e-12 1.66812e-10 -1.08308e-10 5e-05 1.46608e-10 
33 1 0.224184 0.0171758 0.00745373 0.00603828 0.000127515 0.000364972 -8.67191e-11 -4.43617e-11 -9.29343e-12 5e-05 1.46608e-10 
34 1 0.217771 0.0156651 0.00858267 0.00538496 -0.00030329 -0.000159481 9.29311e-11 -8.43424e-11 2.17555e-11 5e-05 1.46608e-10 
35 1 0.218473 0.0174598 0.00713749 0.00580126 -0.000280558 0.000268604 1.14822e-10 -1.91043e-10 7.55642e-11 5e-05 1.46608e-10 
36 1 0.224417 0.018193 0.00698326 0.00562192 -0.000144923 0.000108247 2.0103e-11 -2.1826e-11 -5.03976e-12 5e-05 1.46608e-10 
37 1 0.218318 0.0169193 0.00750739 0.006308 -0.000421995 -0.00010062 -5.49035e-10 7.57134e-11 -3.4763e-11 5e-05 1.46608e-10 
38 1 0.218404 0.0172249 0.00724875 0.00575642 -0.00024141 -0.000210744 1.82008e-10 9.80919e-11 -1.92081e-10 5e-05 1.46608e-10 
39 1 0.224299 0.0176261 0.00707457 0.00587323 0.00014898 0.000334127 5.33227e-11 4.06498e-11 -1.66281e-11 5e-05 1.46608e-10 
41 1 0.217732 0.0155153 0.00870922 0.00545454 -0.000298998 -0.00013983 -2.62292e-11 -3.02394e-11 1.74734e-10 5e-05 1.46608e-10 
42 1 0.21846 0.0170569 0.00738364 0.00580211 -0.000467043 -2.67541e-05 -3.25312e-10 -5.04123e-10 3.9696e-10 5e-05 1.46608e-10 
44 1 0.218517 0.0172817 0.00719376 0.00573892 -0.000426215 -0.0001103 7.82206e-11 -2.6918e-10 -3.33634e-10 5e-05 1.46608e-10 
45 1 0.224205 0.0172507 0.00739088 0.00608087 0.000125946 0.000373013 3.16533e-11 2.84093e-11 -6.08256e-12 5e-05 1.46608e-10 
47 1 0.217751 0.0155903 0.00864602 0.00544649 -0.000322186 -0.000164631 -6.24569e-11 7.93004e-11 2.57103e-10 5e-05 1.46608e-10 
48 1 0.218392 0.0180753 0.00707681 0.00548097 -0.000268949 0.000247448 -8.41235e-11 7.63017e-12 1.1623e-10 5e-05 1.46608e-10 
49 1 0.224377 0.017997 0.00698714 0.00561535 -0.000144197 0.000107933 -2.28264e-12 -4.65617e-12 7.48808e-13 5e-05 1.46608e-10 
50 1 0.217899 0.0161125 0.00820391 0.00575568 -0.000357834 -0.000116112 -3.27389e-10 1.99339e-10 -1.22532e-10 5e-05 1.46608e-10 
51 1 0.218579 0.0176864 0.00710943 0.00574655 -0.000160932 0.000240785 4.5855e-11 -1.6741e-10 2.37234e-11 5e-05 1.46608e-10 
52 1 0.212478 0.0172245 0.00725708 0.00554555 -2.95479e-05 -0.000173237 2.98454e-10 -1.92546e-10 8.15898e-11 5e-05 1.46608e-10 
53 1 0.224247 0.0174003 0.00726516 0.00567255 0.000171178 0.000296463 -9.47411e-11 5.42473e-11 -2.30473e-12 5e-05 1.46608e-10 
54 1 0.218716 0.0179116 0.00708274 0.00555485 3.10435e-06 0.000208705 -2.39765e-10 8.9472e-11 -2.04113e-11 5e-05 1.46608e-10 
55 1 0.212403 0.0172891 0.00723974 0.00548633 1.72505e-05 -0.000184372 -3.58761e-10 1.94633e-10 3.35339e-11 5e-05 1.46608e-10 
56 1 0.218694 0.0178151 0.00709555 0.00565857 -3.36864e-05 0.000218864 -1.56324e-10 4.80626e-11 -7.31476e-12 5e-05 1.46608e-10 
57 1 0.224226 0.0173255 0.00732803 0.00609836 0.000118548 0.000375765 5.33446e-11 -6.36754e-12 6.15117e-12 5e-05 1.46608e-10 
59 1 0.378022 0.019866 0.005332 -5.01947e-15 -7.41183e-15 7.69803e-14 1.21492e-24 -2.94683e-24 0 5e-05 1.46608e-10 
60 1 0.218521 0.0173735 0.0071543 0.0058519 -0.000324592 8.05525e-05 2.00776e-10 -2.27937e-10 -6.11095e-10 5e-05 1.46608e-10 
61 1 0.217712 0.0154398 0.00877193 0.00544168 -0.0002549 -0.000104608 -1.8452e-10 -9.78034e-11 6.47252e-11 5e-05 1.46608e-10 
62 1 0.218419 0.0173074 0.00717952 0.0055827 -0.00022896 -0.000213117 2.51427e-10 -2.82492e-10 2.65574e-10 5e-05 1.46608e-10 
63 1 0.21841 0.0181645 0.00703544 0.00555433 -0.000262119 0.000250396 -2.00542e-11 -4.69097e-11 -4.49357e-12 5e-05 1.46608e-10 
64 1 0.224266 0.0174755 0.00720181 0.00572656 0.000165466 0.000307815 -8.75375e-11 -1.57323e-11 6.53483e-12 5e-05 1.46608e-10 
65 1 0.212445 0.0174756 0.00718129 0.00549613 9.45941e-06 -0.000175035 -2.08049e-10 -7.16275e-12 4.99862e-11 5e-05 1.46608e-10 
66 1 0.212439 0.0177659 0.00719397 0.00567795 -8.86131e-05 -0.000247183 -1.62756e-10 4.2626e-10 2.22467e-11 5e-05 1.46608e-10 
67 1 0.218542 0.0179461 0.00707129 0.00539424 -0.0001407 0.000222724 -6.96208e-11 -5.96919e-11 3.37772e-11 5e-05 1.46608e-10 
68 1 0.21831 0.017256 0.00723812 0.00571471 -0.000260058 3.82603e-05 2.83292e-10 1.91639e-12 1.24705e-10 5e-05 1.46608e-10 
69 1 0.218618 0.0178811 0.00708336 0.00555151 -8.88902e-05 0.000221535 -4.67131e-11 -9.04875e-11 2.21455e-11 5e-05 1.46608e-10 
70 1 0.224337 0.0178019 0.00700185 0.00559699 -0.000161768 -4.02289e-05 -3.04185e-12 -1.6958e-11 1.13203e-11 5e-05 1.46608e-10 
71 1 0.212762 0.0181048 0.00697845 0.00563431 -6.61504e-05 -0.000163147 1.29769e-10 -1.7865e-10 5.27285e-11 5e-05 1.46608e-10 
72 1 0.218586 0.0181394 0.00704563 0.00545886 -0.000123782 0.000223326 6.18214e-11 1.80184e-11 5.43972e-12 5e-05 1.46608e-10 
73 1 0.217833 0.0158891 0.00839314 0.00566623 -0.000345116 -0.000122235 2.76976e-11 4.04084e-12 4.36517e-11 5e-05 1.46608e-10 
74 1 0.217919 0.0161874 0.00814063 0.00580021 -0.000363147 -0.000113584 -5.29398e-11 5.43604e-11 -3.68491e-11 5e-05 1.46608e-10 
76 1 0.212342 0.0170153 0.0073438 0.00575031 9.09146e-05 0.000306151 4.01777e-10 -6.43851e-12 3.3142e-10 5e-05 1.46608e-10 
77 1 0.218195 0.0171568 0.00731997 0.00570387 -0.000294272 -0.000154684 4.05558e-10 1.44118e-10 -2.86997e-10 5e-05 1.46608e-10 
78 1 0.211659 0.0153287 0.00902585 0.00534827 -0.000198202 -9.92697e-05 -1.2927e-10 1.96913e-10 -2.14118e-10 5e-05 1.46608e-10 
79 1 0.212713 0.0183619 0.0069059 0.00563116 -7.14224e-05 5.79926e-05 4.16672e-11 -8.66189e-11 1.09073e-11 5e-05 1.46608e-10 
80 1 0.218269 0.0171025 0.00735951 0.00570073 -0.000376296 -8.9125e-05 -3.94108e-10 -2.30207e-10 1.95952e-10 5e-05 1.46608e-10 
82 1 0.212464 0.0178441 0.00713697 0.0055195 9.22618e-07 -0.000209434 -2.79964e-10 -3.69356e-11 -1.95072e-10 5e-05 1.46608e-10 
83 1 0.212436 0.0170366 0.00731597 0.00567931 -8.83542e-05 -0.000141321 7.00143e-10 -4.64219e-10 -8.6551e-11 5e-05 1.46608e-10 
84 1 0.224397 0.018095 0.0069852 0.00562001 -0.000143501 0.000107664 -5.62744e-11 -4.87206e-12 -7.60578e-13 5e-05 1.46608e-10 
85 1 0.212888 0.0183338 0.00690431 0.00560336 -5.38828e-05 -0.000166812 8.93198e-12 -1.30591e-11 4.49395e-12 5e-05 1.46608e-10 
86 1 0.218502 0.017206 0.00725736 0.00573074 -0.000411588 -7.07145e-05 3.56209e-10 -2.1095e-10 1.91234e-10 5e-05 1.46608e-10 
87 1 0.218226 0.0169532 0.00748591 0.00623057 -0.000492124 -3.86953e-05 3.12879e-11 -3.46849e-11 8.03582e-12 5e-05 1.46608e-10 
88 1 0.218385 0.017619 0.00711168 0.0057937 -0.000212223 0.000244609 1.20881e-10 -7.57338e-11 -1.07826e-10 5e-05 1.46608e-10 
89 1 0.218334 0.0174576 0.00719483 0.00565979 -0.000177207 0.000298167 9.06787e-10 2.7494e-11 -3.22248e-10 5e-05 1.46608e-10 
90 1 0.218567 0.0180422 0.00705863 0.00531789 -0.000106402 0.000215296 1.37028e-10 -3.81558e-11 -7.9053e-12 5e-05 1.46608e-10 
91 1 0.212394 0.0168745 0.00742857 0.00620126 0.000236134 0.000535032 -4.01641e-10 -5.05256e-10 3.19368e-10 5e-05 1.46608e-10 
92 1 0.218311 0.0176843 0.00709962 0.00579154 -0.000190613 0.000239937 1.65383e-10 1.98479e-10 -4.91795e-11 5e-05 1.46608e-10 
93 1 0.218004 0.0164854 0.00788823 0.00593013 -0.000403434 -9.1575e-05 -2.83475e-11 5.10638e-11 -3.17368e-11 5e-05 1.46608e-10 
94 1 0.218398 0.017822 0.00718126 0.00533364 5.7867e-06 0.00027031 1.66762e-10 -5.24649e-10 6.48058e-10 5e-05 1.46608e-10 
95 1 0.21825 0.0174021 0.00716845 0.00554974 -0.000226792 0.000180578 -2.47296e-11 2.6777e-11 2.38449e-10 5e-05 1.46608e-10 
96 1 0.21829 0.0175873 0.00711257 0.00576893 -0.000206949 0.00025079 3.00994e-11 9.74565e-11 -3.20958e-11 5e-05 1.46608e-10 
97 1 0.211757 0.0156372 0.00864828 0.00557735 -0.000254922 -4.65265e-05 -7.05586e-11 -2.06686e-10 2.58769e-10 5e-05 1.46608e-10 
98 1 0.217985 0.0164105 0.00795156 0.00591704 -0.000392323 -9.80353e-05 1.75888e-10 -2.92248e-12 -1.19784e-11 5e-05 1.46608e-10 
99 1 0.212489 0.0180936 0.00699079 0.0056079 -1.52141e-05 -0.000177796 6.38858e-11 -1.48911e-10 3.92527e-11 5e-05 1.46608e-10 
100 1 0.218504 0.0177515 0.00709739 0.00570409 -0.000217593 0.000246471 -5.45127e-11 -2.08498e-10 -3.04859e-11 5e-05 1.46608e-10 
101 1 0.212511 0.0181874 0.00696138 0.00559195 -4.3342e-05 -0.000168846 1.21921e-10 -1.56569e-10 5.55275e-11 5e-05 1.46608e-10 
102 1 0.0643568 0.0187248 0.00531097 4.08729e-15 1.05197e-14 8.29667e-14 2.10813e-21 -1.11571e-21 3.28804e-23 5e-05 1.46608e-10 
103 1 0.24257 0.0191927 0.00520306 2.73478e-22 4.86658e-23 -5.81428e-22 0 0 0 5e-05 1.46608e-10 
104 1 0.212683 0.0181645 0.00696277 0.00563237 -1.70546e-05 -0.000178171 1.56016e-11 -4.82457e-11 1.07887e-11 5e-05 1.46608e-10 
105 1 0.211717 0.0155132 0.0088001 0.00538343 -0.000206205 -8.96376e-05 5.73645e-10 -2.38598e-10 2.57699e-10 5e-05 1.46608e-10 
106 1 0.212413 0.017724 0.0071071 0.00559121 -0.000105959 -0.000180573 -6.25483e-11 8.58208e-11 7.29878e-11 5e-05 1.46608e-10 
107 1 0.211679 0.0153907 0.00894992 0.00523149 -0.000174541 -0.000124255 -9.2335e-11 1.15187e-10 -2.02975e-10 5e-05 1.46608e-10 
108 1 0.218642 0.0179775 0.00707063 0.00547445 -6.62118e-05 0.000215335 -3.30828e-10 2.54718e-11 -1.63413e-11 5e-05 1.46608e-10 
109 1 0.218616 0.0174039 0.00715078 0.00580724 -0.00011064 0.000236814 -2.1232e-11 -1.55354e-10 -3.37021e-11 5e-05 1.46608e-10 
110 1 0.218152 0.0170076 0.00744625 0.00623615 -0.000430424 -8.75005e-05 9.91008e-10 2.52862e-10 -3.61472e-10 5e-05 1.46608e-10 
111 1 0.21811 0.0168593 0.00757347 0.00602903 -0.000424816 -8.24467e-05 -9.14956e-11 2.27059e-10 -2.26308e-10 5e-05 1.46608e-10 
112 1 0.211799 0.0157609 0.00849682 0.00573279 -0.000279914 -2.37764e-05 -1.83884e-10 3.19736e-10 -3.54126e-10 5e-05 1.46608e-10 
113 1 0.212292 0.0176028 0.00714737 0.00577458 -0.000134319 -0.000146719 4.94803e-11 -4.24731e-10 1.26677e-10 5e-05 1.46608e-10 
114 1 0.212357 0.017907 0.0070522 0.00558945 -0.000103294 -0.000154497 -1.63496e-10 -2.27407e-10 7.01844e-11 5e-05 1.46608e-10 
115 1 0.218482 0.0171312 0.00732061 0.00575613 -0.000431203 -5.64088e-05 -4.87005e-10 -3.49244e-10 2.67207e-10 5e-05 1.46608e-10 
116 1 0.218466 0.0180103 0.00705934 0.00548505 -0.000247935 0.000233712 -2.01505e-10 -2.84509e-11 -1.46419e-11 5e-05 1.46608e-10 
117 1 0.218464 0.0175584 0.00712326 0.0057959 -0.000253003 0.000246804 7.38595e-11 -1.9633e-10 -1.83712e-10 5e-05 1.46608e-10 
118 1 0.21252 0.0174111 0.00719863 0.00548765 -2.08215e-05 -0.000171656 4.58835e-10 1.23311e-10 -3.67605e-11 5e-05 1.46608e-10 
119 1 0.218662 0.0180746 0.00705762 0.00554296 -6.16716e-05 0.000217655 -8.32103e-11 1.37255e-11 -3.02151e-12 5e-05 1.46608e-10 
120 1 0.218141 0.0166549 0.00773845 0.00593953 -0.000431808 -6.89147e-05 -1.57693e-10 -8.30412e-11 2.10681e-10 5e-05 1.46608e-10 
121 1 0.218552 0.0184021 0.00700717 0.00547128 -0.00022655 0.000238211 1.85119e-10 -1.81894e-11 1.08686e-11 5e-05 1.46608e-10 
122 1 0.21827 0.0174903 0.00712551 0.00576291 -0.000213728 0.000257151 1.7916e-10 -2.31077e-11 -2.28274e-11 5e-05 1.46608e-10 
123 1 0.212781 0.0181987 0.00694914 0.00563339 -5.91007e-05 -0.000165552 1.89991e-10 -8.28331e-11 3.20055e-11 5e-05 1.46608e-10 
124 1 0.218025 0.0165602 0.00782502 0.00593225 -0.000409588 -8.40278e-05 1.8082e-11 3.40265e-11 1.81306e-11 5e-05 1.46608e-10 
125 1 0.218365 0.0175217 0.00712465 0.00573184 -0.000260983 0.000252077 2.4196e-10 4.78247e-10 -6.0926e-11 5e-05 1.46608e-10 
127 1 0.211737 0.0155752 0.00872421 0.00546505 -0.00022594 -7.46269e-05 -2.69045e-10 -2.82419e-10 3.55314e-10 5e-05 1.46608e-10 
128 1 0.217964 0.016336 0.00801463 0.00588596 -0.000380558 -0.000105422 -2.22689e-10 6.06205e-11 -1.44421e-11 5e-05 1.46608e-10 
129 1 0.218314 0.0176442 0.00719115 0.00580149 -0.000177145 0.000225532 -3.46814e-11 -4.39805e-11 -1.61962e-11 5e-05 1.46608e-10 
130 1 0.212456 0.0178965 0.00705216 0.00561633 3.9724e-05 -0.000197417 -3.23065e-10 -1.33989e-11 1.64529e-11 5e-05 1.46608e-10 
131 1 0.212476 0.0179933 0.00702189 0.00560723 -7.25131e-05 -0.000156552 7.37002e-11 -1.73315e-10 5.44218e-11 5e-05 1.46608e-10 
132 1 0.21836 0.0170685 0.00738112 0.00577781 -0.000318458 -0.000150316 -1.48737e-10 4.05154e-10 -2.82755e-10 5e-05 1.46608e-10 
133 1 0.218491 0.0181063 0.0070467 0.00554041 -0.000268151 0.000247257 -2.40298e-12 -1.16964e-10 -6.60754e-12 5e-05 1.46608e-10 
134 1 0.218447 0.0179122 0.00707253 0.00553444 -0.000252525 0.000249932 2.10191e-10 3.82322e-11 2.64672e-11 5e-05 1.46608e-10 
135 1 0.218599 0.0177836 0.00709643 0.00568415 -0.000137241 0.000234607 -1.34788e-10 -1.04546e-10 -3.19632e-12 5e-05 1.46608e-10 
136 1 0.212383 0.0171957 0.00726899 0.00560308 -3.42692e-05 -0.00016096 9.35766e-11 9.27311e-11 1.16176e-10 5e-05 1.46608e-10 
137 1 0.218281 0.01755 0.0072049 0.00574779 -0.000191531 0.000254878 -1.62174e-10 1.73895e-10 1.16302e-10 5e-05 1.46608e-10 
138 1 0.218352 0.0178791 0.0070736 0.00548235 -0.000203396 0.000236613 4.90945e-11 -1.91635e-10 -1.095e-11 5e-05 1.46608e-10 
140 1 0.218212 0.0172321 0.00725652 0.00552282 -0.000333476 -0.000113702 -4.38967e-10 1.94858e-10 3.79044e-11 5e-05 1.46608e-10 
141 1 0.212213 0.0165536 0.00770313 0.00631265 0.000278085 0.000512996 2.64124e-10 -1.96012e-10 8.22915e-11 5e-05 1.46608e-10 
142 1 0.212626 0.0177864 0.00708032 0.00557644 -6.71885e-05 -0.000158152 -1.56767e-11 1.01668e-10 -3.3489e-11 5e-05 1.46608e-10 
143 1 0.2117 0.0154642 0.00888561 0.00527419 -0.000180915 -0.000115481 5.90917e-10 -1.77601e-10 1.60015e-10 5e-05 1.46608e-10 
144 1 0.212565 0.0175985 0.00713981 0.00561592 -8.46482e-05 -0.000155644 3.50272e-12 -2.64051e-12 1.34009e-11 5e-05 1.46608e-10 
146 1 0.21184 0.0158846 0.0083453 0.00596521 -0.000298495 -1.63846e-05 9.35114e-11 3.38423e-10 -4.32405e-10 5e-05 1.46608e-10 
147 1 0.212503 0.0177641 0.00709114 0.0055423 -1.67676e-05 -0.000177184 -1.00722e-10 3.38375e-10 -1.31895e-10 5e-05 1.46608e-10 
148 1 0.212234 0.0166267 0.00763812 0.00622966 0.000106067 0.000657793 -6.76141e-10 7.68888e-10 -6.56413e-10 5e-05 1.46608e-10 
149 1 0.218067 0.0167093 0.00769875 0.00594338 -0.000425134 -7.36561e-05 -2.94376e-11 -8.86668e-11 -4.77284e-11 5e-05 1.46608e-10 
150 1 0.212733 0.0184579 0.00688708 0.00563921 -6.20847e-06 0.000420216 6.50708e-11 -4.27159e-11 -1.67927e-11 5e-05 1.46608e-10 
151 1 0.212564 0.0184935 0.00688039 0.00561098 -3.85019e-05 0.000413773 -1.38229e-11 -3.87378e-11 -4.46616e-11 5e-05 1.46608e-10 
153 1 0.212256 0.0166998 0.0075732 0.0065894 0.000349411 0.000479596 -6.54224e-10 7.23098e-10 -6.64619e-10 5e-05 1.46608e-10 
154 1 0.211817 0.0158231 0.00842078 0.00575802 -0.000268983 -3.66184e-05 3.26756e-10 3.86323e-10 -4.53175e-10 5e-05 1.46608e-10 
155 1 0.211918 0.0161341 0.00805886 0.00606234 0.000198024 0.00058605 -3.64408e-10 -3.06595e-10 1.59914e-11 5e-05 1.46608e-10 
156 1 0.212192 0.0164805 0.00776807 0.00615317 0.000170911 0.000597892 8.48188e-10 -3.93049e-10 4.53226e-10 5e-05 1.46608e-10 
157 1 0.0219312 0.0187687 0.00551176 -3.83606e-14 8.16348e-14 2.95893e-13 8.66782e-22 8.49411e-23 8.62336e-23 5e-05 1.46608e-10 
158 1 0.212299 0.0168467 0.00744269 0.00617687 0.0001571 0.000625801 -5.47901e-10 -8.21699e-11 7.43016e-11 5e-05 1.46608e-10 
159 1 0.218383 0.0171473 0.00731432 0.00572772 -0.000355858 -0.000124471 -4.70215e-11 3.29814e-10 -3.04796e-10 5e-05 1.46608e-10 
160 1 0.212451 0.0183666 0.0069085 0.00558721 -7.51069e-05 -0.00015775 -4.59889e-13 -5.49912e-12 5.79968e-12 5e-05 1.46608e-10 
162 1 0.212396 0.0180985 0.00702802 0.00561559 -9.47919e-05 -0.000140623 1.70731e-11 -1.16057e-10 -2.91645e-11 5e-05 1.46608e-10 
164 1 0.211981 0.016353 0.00786391 0.00609994 0.000139247 0.000610683 -1.18464e-10 3.76149e-10 5.25874e-11 5e-05 1.46608e-10 
165 1 0.212638 0.0184263 0.00688412 0.00565913 -1.21525e-05 -0.000180528 1.37847e-11 -2.01025e-11 1.52766e-11 5e-05 1.46608e-10 
166 1 0.218372 0.0179776 0.0070697 0.00551265 -0.000265778 0.000257808 3.16748e-11 -1.55934e-11 -1.27e-10 5e-05 1.46608e-10 
167 1 0.212678 0.018621 0.00691023 0.00561369 -3.82584e-05 0.000413955 -3.34283e-11 -3.96497e-11 7.91671e-12 5e-05 1.46608e-10 
168 1 0.212813 0.0183982 0.00688701 0.0056146 -3.95915e-05 -0.000173173 3.93124e-11 -4.4134e-11 5.18801e-11 5e-05 1.46608e-10 
169 1 0.212659 0.0185244 0.00689263 0.00561087 -3.79264e-05 0.000415351 5.41973e-11 -2.62969e-11 -7.25542e-12 5e-05 1.46608e-10 
170 1 0.212603 0.0186867 0.0069156 0.00560723 -5.59257e-05 0.00041048 1.0944e-10 9.57611e-11 2.77437e-11 5e-05 1.46608e-10 
171 1 0.218606 0.0182366 0.0070326 0.00552598 -0.000134476 0.000227238 1.29355e-10 -8.41851e-11 1.08512e-11 5e-05 1.46608e-10 
172 1 0.212272 0.0175093 0.00717663 0.00574961 -0.000147187 -0.000142175 -6.66801e-11 -1.6612e-11 9.86845e-12 5e-05 1.46608e-10 
173 1 0.21846 0.0179722 0.00715159 0.005528 -0.000227868 0.000230724 -1.82824e-11 1.72128e-10 6.28651e-11 5e-05 1.46608e-10 
174 1 0.212023 0.0164972 0.00773196 0.00612106 0.000123988 0.000637899 2.06308e-10 1.28215e-10 -1.79009e-10 5e-05 1.46608e-10 
176 1 0.212326 0.0173512 0.00722325 0.00543117 -6.5287e-05 -0.000160345 -1.36802e-10 -5.91158e-11 -5.40708e-12 5e-05 1.46608e-10 
177 1 0.211911 0.0160678 0.00813346 0.00631681 -9.92146e-05 0.000348477 -1.54107e-11 4.324e-11 7.84022e-11 5e-05 1.46608e-10 
178 1 0.21233 0.0177841 0.00716423 0.00572329 -0.000103582 -8.66235e-05 -6.76352e-11 -2.14244e-10 3.48682e-11 5e-05 1.46608e-10 
179 1 0.21247 0.0184612 0.00688247 0.00560343 -3.30152e-05 -2.58223e-05 -1.71681e-12 -1.35675e-11 3.70044e-11 5e-05 1.46608e-10 
182 1 0.218625 0.0183343 0.0070195 0.0055139 -0.000184309 0.000233833 3.81505e-11 -2.17822e-10 3.38822e-11 5e-05 1.46608e-10 
183 1 0.212376 0.0178129 0.00708037 0.00557666 -0.00011086 -0.000166826 -1.93802e-11 -8.06285e-11 1.00389e-10 5e-05 1.46608e-10 
184 1 0.218368 0.0179304 0.00715781 0.00554239 -0.000246809 0.000265331 -2.11263e-10 1.85943e-10 1.25691e-10 5e-05 1.46608e-10 
185 1 0.21258 0.017702 0.00710767 0.0056057 -8.56149e-05 -0.000157285 1.93264e-10 -1.82929e-10 3.23495e-11 5e-05 1.46608e-10 
186 1 0.212857 0.0181366 0.00696565 0.00563301 -5.96061e-05 -0.00016504 8.42171e-11 -1.90942e-10 5.32815e-11 5e-05 1.46608e-10 
187 1 0.218511 0.0182038 0.00703367 0.00546972 -0.000116314 0.000222538 -2.02526e-11 1.91639e-11 -4.92297e-12 5e-05 1.46608e-10 
188 1 0.218395 0.0173974 0.00714337 0.00562665 -7.92001e-05 0.000223365 3.76737e-10 -5.63423e-10 4.37991e-11 5e-05 1.46608e-10 
189 1 0.218469 0.0184561 0.00699639 0.00542155 -0.000299065 0.0002464 -7.97223e-12 -2.45932e-10 3.73878e-11 5e-05 1.46608e-10 
190 1 0.206417 0.0182118 0.00709502 0.0051164 -0.0013198 0.00135845 -1.96268e-10 6.12887e-11 -7.65943e-11 5e-05 1.46608e-10 
191 1 0.218089 0.0167839 0.00763565 0.00598578 -0.000425257 -7.28425e-05 -1.27087e-11 1.39444e-10 -1.10155e-10 5e-05 1.46608e-10 
192 1 0.212313 0.0176962 0.00711812 0.00577663 -0.000185864 -0.000131104 -4.56377e-11 2.81542e-10 -8.37721e-11 5e-05 1.46608e-10 
193 1 0.218681 0.0181719 0.0070446 0.00560402 -5.68171e-05 0.000219204 1.42618e-10 -6.11296e-11 1.2949e-11 5e-05 1.46608e-10 
194 1 0.212501 0.0179642 0.00711417 0.0056535 -1.8004e-05 -0.000147127 8.90551e-11 -2.00417e-10 1.54026e-11 5e-05 1.46608e-10 
195 1 0.212604 0.0182235 0.0069473 0.00561281 -3.96178e-05 -0.000171763 -2.99844e-11 -7.3398e-11 1.7082e-11 5e-05 1.46608e-10 
196 1 0.212569 0.0180353 0.00700603 0.00560146 -2.27552e-05 -0.000174764 -4.10413e-11 -2.26171e-10 6.37818e-11 5e-05 1.46608e-10 
197 1 0.206099 0.0167956 0.00757372 0.00583256 -0.0010858 0.00107679 -1.74645e-10 -2.68061e-10 1.96253e-10 5e-05 1.46608e-10 
198 1 0.212457 0.0171311 0.00728633 0.0056436 -4.89739e-05 -0.00017418 4.2789e-10 -3.4738e-10 2.30446e-10 5e-05 1.46608e-10 
199 1 0.212352 0.0178818 0.00714884 0.00558781 -0.000117553 -0.00015495 6.26291e-11 -4.58586e-10 2.89656e-11 5e-05 1.46608e-10 
200 1 0.211777 0.0156992 0.00857244 0.00564175 -0.000269495 -3.21351e-05 3.00262e-10 -4.76452e-12 -2.24906e-13 5e-05 1.46608e-10 
201 1 0.212624 0.0183181 0.00691795 0.00560414 -7.4772e-05 -0.000158301 4.61722e-11 -9.30425e-11 -9.23084e-12 5e-05 1.46608e-10 
202 1 0.212318 0.0169261 0.00738486 0.00585035 -0.00168703 -0.00187283 7.79982e-10 -3.31114e-10 -3.32979e-10 5e-05 1.46608e-10 
203 1 0.218426 0.0178139 0.00708565 0.00528432 -0.000357478 0.000263391 1.26593e-09 3.4559e-10 2.42801e-10 5e-05 1.46608e-10 
204 1 0.212649 0.0179765 0.00702141 0.00561176 -4.92601e-05 -0.000168258 1.385e-10 -1.18436e-10 2.85138e-11 5e-05 1.46608e-10 
205 1 0.21216 0.0166715 0.0075877 0.00627128 0.000206499 0.000551107 -5.90718e-11 1.20878e-10 2.16859e-10 5e-05 1.46608e-10 
206 1 0.212204 0.0168174 0.00745813 0.00656004 0.00022686 0.000555331 1.16863e-10 -6.42259e-10 4.18926e-10 5e-05 1.46608e-10 
207 1 0.212076 0.0163793 0.00784743 0.00610485 0.000168624 0.000596225 6.22195e-11 -1.17489e-10 2.59322e-10 5e-05 1.46608e-10 
208 1 0.212499 0.0173178 0.00722785 0.0054636 -1.17255e-05 -0.000174623 5.37672e-10 -5.55081e-11 -3.07129e-11 5e-05 1.46608e-10 
209 1 0.212424 0.0173824 0.00721051 0.00548872 2.79732e-05 -0.000189024 4.22972e-10 -1.32192e-10 -6.17076e-11 5e-05 1.46608e-10 
210 1 0.218184 0.016804 0.00761219 0.00603193 -0.000502168 -1.748e-05 -4.00376e-11 2.53472e-10 -2.09548e-10 5e-05 1.46608e-10 
211 1 0.218205 0.0168786 0.00754906 0.00619724 -0.000509472 -2.09715e-05 -4.17669e-10 2.01377e-10 -1.41189e-10 5e-05 1.46608e-10 
212 1 0.212704 0.018261 0.00693256 0.00560775 -7.938e-05 -0.000156117 1.38044e-10 -6.75666e-11 1.12215e-11 5e-05 1.46608e-10 
213 1 0.218449 0.0183589 0.00700941 0.00540238 -0.000297673 0.000245681 -8.01437e-11 -3.2977e-10 4.08792e-11 5e-05 1.46608e-10 
214 1 0.21829 0.0171772 0.00729636 0.00572461 -0.000366455 -9.28341e-05 5.77513e-10 -1.81211e-10 -1.07305e-11 5e-05 1.46608e-10 
215 1 0.206319 0.0177221 0.00709391 0.00539441 -0.00137971 0.000250449 -9.06925e-10 2.64989e-10 -2.51689e-10 5e-05 1.46608e-10 
216 1 0.212055 0.0163062 0.00791254 0.00603578 0.000203912 0.000554485 -5.01765e-10 -7.93315e-10 5.3131e-10 5e-05 1.46608e-10 
217 1 0.2187 0.0182697 0.00703148 0.00553846 -0.000158453 0.000231051 3.9973e-11 -2.60602e-10 3.82955e-11 5e-05 1.46608e-10 
218 1 0.212376 0.0180006 0.00702302 0.00560475 -9.8279e-05 -0.000149547 -8.48608e-11 -1.56576e-10 -8.91241e-12 5e-05 1.46608e-10 
219 1 0.218046 0.0166348 0.00776189 0.00593998 -0.000420455 -7.72891e-05 4.42866e-12 -1.0024e-10 2.24477e-13 5e-05 1.46608e-10 
220 1 0.212415 0.0181891 0.00699027 0.00560412 -8.62003e-05 -0.00014381 4.05899e-11 -5.64141e-11 8.01516e-11 5e-05 1.46608e-10 
222 1 0.218568 0.0174906 0.00713671 0.00575953 -0.000153128 0.000246121 1.79969e-10 -5.1345e-11 6.79299e-11 5e-05 1.46608e-10 
224 1 0.212244 0.0169774 0.00734028 0.00588184 -0.000134751 -0.000165834 9.14483e-10 1.50913e-10 -4.44942e-11 5e-05 1.46608e-10 
225 1 0.218131 0.0169331 0.00750937 0.00608618 -0.000415701 -8.97409e-05 3.24979e-10 3.033e-10 -3.5038e-10 5e-05 1.46608e-10 
226 1 0.212365 0.0176993 0.00720338 0.00570428 -0.000112423 -8.69645e-05 1.71432e-10 -1.43089e-11 7.783e-11 5e-05 1.46608e-10 
227 1 0.206338 0.0178201 0.00708836 0.00530371 -0.00135306 0.000443693 -1.48041e-10 6.2455e-11 -1.841e-10 5e-05 1.46608e-10 
228 1 0.206278 0.0175268 0.00710722 0.00557506 -0.00142065 0.000372855 5.09551e-11 6.07517e-11 -5.60785e-11 5e-05 1.46608e-10 
229 1 0.212793 0.0183037 0.00691658 0.00562725 -0.000121826 -0.000144947 1.94697e-10 9.58271e-11 -4.28679e-11 5e-05 1.46608e-10 
230 1 0.212151 0.0169538 0.00736699 0.00602876 -0.00015884 0.000245781 7.70629e-10 -5.18358e-10 -6.26164e-10 5e-05 1.46608e-10 
232 1 0.212434 0.0182826 0.00696 0.00559296 -7.80175e-05 -0.000149822 -7.16226e-12 1.32959e-11 1.30391e-10 5e-05 1.46608e-10 
233 1 0.212528 0.0187524 0.00692096 0.00557482 -0.000113973 0.000400064 4.86854e-11 5.76855e-11 1.50302e-11 5e-05 1.46608e-10 
234 1 0.218327 0.0173441 0.00719411 0.00563784 -0.000172031 0.000162435 1.26349e-10 -2.32651e-10 -8.4263e-11 5e-05 1.46608e-10 
235 1 0.212108 0.0167893 0.00747228 0.00623273 6.54413e-05 0.000694674 -4.72812e-10 2.01503e-11 -3.28062e-10 5e-05 1.46608e-10 
236 1 0.212211 0.017229 0.00726438 0.00568371 -0.000175017 -0.000128516 1.64747e-10 -1.73907e-10 2.73821e-11 5e-05 1.46608e-10 
237 1 0.212231 0.0173225 0.00723513 0.00570505 -0.000156378 -0.000136759 5.60077e-11 -1.07527e-10 3.44506e-11 5e-05 1.46608e-10 
239 1 0.205992 0.0164122 0.00787608 0.00577133 -0.000940444 0.000956295 7.86336e-11 1.37749e-10 -1.06636e-10 5e-05 1.46608e-10 
240 1 0.206056 0.0166422 0.00769467 0.00580165 -0.00103463 0.00103151 3.56711e-11 -2.99867e-10 3.01345e-10 5e-05 1.46608e-10 
241 1 0.20597 0.0163355 0.00793655 0.00575127 -0.000934272 0.000950677 1.15099e-10 3.19693e-10 -2.4158e-10 5e-05 1.46608e-10 
242 1 0.211892 0.0159376 0.00827817 0.00626256 -0.00041083 9.99289e-05 -2.10092e-10 3.97322e-10 -4.16722e-10 5e-05 1.46608e-10 
243 1 0.212558 0.0179378 0.0070362 0.0056125 -6.33397e-05 -0.000159843 1.40279e-10 -9.03927e-11 2.4967e-11 5e-05 1.46608e-10 
244 1 0.206013 0.0164889 0.00781561 0.00577613 -0.000961512 0.000972169 -6.78958e-11 -1.91814e-10 1.24719e-10 5e-05 1.46608e-10 
246 1 0.206201 0.0171798 0.00727048 0.00560077 -0.00106312 0.00106356 2.73715e-10 3.1178e-10 -1.91476e-11 5e-05 1.46608e-10 
247 1 0.212044 0.0165703 0.00766704 0.0061307 0.000115016 0.000642544 1.21323e-10 1.0729e-10 7.78542e-11 5e-05 1.46608e-10 
248 1 0.212369 0.0175377 0.0071648 0.00550386 -5.11641e-05 -0.000172512 -2.08013e-10 8.72534e-11 -3.57013e-11 5e-05 1.46608e-10 
249 1 0.206142 0.0169489 0.00745284 0.00590868 -0.00112718 0.00111666 -3.07661e-10 8.36573e-11 1.42525e-12 5e-05 1.46608e-10 
250 1 0.212118 0.0165254 0.00771758 0.00611369 0.000122033 0.000641254 3.01481e-10 -9.99728e-11 2.1075e-10 5e-05 1.46608e-10 
251 1 0.218406 0.0177161 0.0070987 0.00580069 -0.00019496 0.000243097 -1.18327e-10 -1.43664e-11 -4.69076e-12 5e-05 1.46608e-10 
252 1 0.206219 0.0172612 0.00721537 0.00553353 -0.00119447 0.000804865 2.03962e-10 3.32439e-10 -4.62358e-11 5e-05 1.46608e-10 
253 1 0.206398 0.0181138 0.00709062 0.00512738 -0.00131817 0.00136398 2.05621e-10 4.32107e-11 1.39767e-11 5e-05 1.46608e-10 
254 1 0.206164 0.0170256 0.00739232 0.00588984 -0.0010894 0.00115009 5.22747e-11 1.45192e-10 -6.98832e-11 5e-05 1.46608e-10 
255 1 0.211639 0.0152667 0.00910173 0.00548697 -0.000233899 -6.66549e-05 -2.55235e-13 1.60531e-10 -1.65191e-10 5e-05 1.46608e-10 
256 1 0.212744 0.0180054 0.00700949 0.00559491 -4.39745e-05 -0.000168451 2.2568e-10 -7.73099e-11 1.3715e-11 5e-05 1.46608e-10 
257 1 0.212279 0.016773 0.00750828 0.00632889 0.00053273 0.000289453 -6.30225e-10 6.81147e-10 -6.78263e-10 5e-05 1.46608e-10 
258 1 0.212347 0.0174445 0.00719401 0.00542383 -4.65106e-05 -0.000161176 -1.21442e-10 1.32251e-10 2.11988e-11 5e-05 1.46608e-10 