ITEM: TIMESTEP
68200000
ITEM: NUMBER OF ATOMS
267
ITEM: BOX BOUNDS ff ff ff
-0.02 0.43
-0.02 0.06
-0.02 0.07
ITEM: ATOMS id type x y z vx vy vz fx fy fz radius mass 
1 1 0.383991 0.018743 5.17586e-05 7.86792e-19 2.08683e-21 -5.98258e-16 -1.03398e-25 1.29247e-26 0 5e-05 1.46608e-10 
2 1 0.384819 0.0170553 5.28427e-05 -9.20538e-19 1.22166e-21 7.02844e-16 0 8.56482e-26 0 5e-05 1.46608e-10 
4 1 0.384087 0.0172099 5.18841e-05 -4.43848e-20 4.34531e-21 2.41933e-17 -2.58494e-26 2.58494e-26 0 5e-05 1.46608e-10 
6 1 0.38485 0.0177728 5.2884e-05 4.86804e-19 5.85317e-22 -3.71587e-16 0 0 0 5e-05 1.46608e-10 
7 1 0.384289 0.0192285 5.21489e-05 2.81054e-18 -7.04973e-22 -2.14593e-15 0 1.12463e-26 0 5e-05 1.46608e-10 
8 1 0.384427 0.0170974 5.23295e-05 2.24032e-18 1.30298e-21 -1.71051e-15 -4.03897e-28 -3.34018e-26 0 5e-05 1.46608e-10 
9 1 0.383731 0.0178959 5.14179e-05 2.24035e-18 1.90545e-22 -1.71052e-15 0 -5.89567e-26 0 5e-05 1.46608e-10 
10 1 0.384909 0.0174916 5.29614e-05 1.79756e-18 -1.79745e-21 -1.37249e-15 0 3.77246e-26 0 5e-05 1.46608e-10 
11 1 0.383705 0.0185838 5.13839e-05 2.81056e-18 -5.78323e-22 -2.14593e-15 0 -9.99149e-27 0 5e-05 1.46608e-10 
12 1 0.384274 0.0169453 5.213e-05 2.24031e-18 5.02209e-21 -1.71052e-15 0 -1.3514e-26 0 5e-05 1.46608e-10 
13 1 0.384609 0.0178943 5.25685e-05 -1.0334e-12 -2.45376e-12 -6.01564e-13 -2.54209e-17 5.93276e-18 1.96101e-17 5e-05 1.46608e-10 
14 1 0.383937 0.0189513 8.69758e-05 5.35495e-19 -8.70113e-22 -4.06398e-16 0 0 2.06795e-25 5e-05 1.46608e-10 
16 1 0.384166 0.0169334 5.1988e-05 2.24035e-18 1.20147e-22 -1.71052e-15 0 -2.75899e-27 0 5e-05 1.46608e-10 
17 1 0.384566 0.0170745 5.25117e-05 2.24035e-18 4.55179e-22 -1.71052e-15 0 -2.41043e-27 0 5e-05 1.46608e-10 
19 1 0.384704 0.0183371 5.2693e-05 1.7976e-18 -6.02998e-20 -1.37251e-15 0 -2.40964e-25 0 5e-05 1.46608e-10 
21 1 0.384375 0.0179486 5.22621e-05 -2.10768e-12 -1.22147e-12 -1.0272e-12 -1.00595e-17 -2.66048e-18 9.94599e-18 5e-05 1.46608e-10 
22 1 0.385006 0.0203197 5.3088e-05 8.71369e-19 -7.32508e-21 -6.65298e-16 0 1.11282e-25 0 5e-05 1.46608e-10 
23 1 0.38429 0.0178938 5.21501e-05 6.73019e-13 2.74301e-14 2.08282e-13 -2.6284e-18 1.60196e-19 -3.65107e-18 5e-05 1.46608e-10 
24 1 0.384317 0.0180308 5.21862e-05 3.91295e-14 9.51498e-15 3.46473e-14 -5.57526e-19 2.88101e-19 5.23698e-19 5e-05 1.46608e-10 
25 1 0.384369 0.0166304 5.22533e-05 2.24036e-18 2.69924e-21 -1.71051e-15 0 3.01023e-27 0 5e-05 1.46608e-10 
26 1 0.383765 0.0178016 5.14632e-05 2.24035e-18 -7.06378e-23 -1.71051e-15 -4.03897e-28 1.89467e-27 0 5e-05 1.46608e-10 
27 1 0.384682 0.0173846 0.000130728 -1.57072e-19 -5.05338e-21 9.01943e-17 2.58494e-26 -3.87741e-26 0 5e-05 1.46608e-10 
28 1 0.38392 0.0176635 5.16661e-05 2.24031e-18 2.03531e-21 -1.71052e-15 0 1.24517e-26 0 5e-05 1.46608e-10 
29 1 0.384334 0.0168628 5.2208e-05 2.24037e-18 -1.49722e-21 -1.71052e-15 0 8.20559e-26 0 5e-05 1.46608e-10 
30 1 0.38458 0.0173478 5.25303e-05 -1.27118e-19 -2.69331e-21 9.01879e-17 1.29247e-26 0 0 5e-05 1.46608e-10 
31 1 0.384267 0.018175 5.21197e-05 1.63123e-20 -8.89218e-22 -7.47559e-18 0 0 0 5e-05 1.46608e-10 
32 1 0.384809 0.0175939 5.28295e-05 1.06147e-19 2.18816e-21 -7.99245e-17 0 0 0 5e-05 1.46608e-10 
33 1 0.384554 0.0172495 5.24957e-05 2.24034e-18 1.50758e-22 -1.71052e-15 0 -1.10155e-27 0 5e-05 1.46608e-10 
34 1 0.38474 0.0177115 5.27396e-05 1.03498e-19 9.77291e-22 -7.99225e-17 0 0 0 5e-05 1.46608e-10 
35 1 0.383862 0.0177748 5.15892e-05 -2.21748e-19 -3.24737e-21 1.69475e-16 -2.58494e-26 0 0 5e-05 1.46608e-10 
36 1 0.383928 0.0185154 5.16766e-05 -3.50179e-19 -9.02511e-22 2.67381e-16 0 3.24896e-27 0 5e-05 1.46608e-10 
37 1 0.384806 0.0179346 5.28267e-05 1.7976e-18 5.29978e-21 -1.37251e-15 0 -3.6534e-26 0 5e-05 1.46608e-10 
38 1 0.384295 0.0179641 0.000123125 -3.11485e-13 3.50877e-13 1.64016e-13 -4.74045e-20 1.37039e-18 1.12007e-18 5e-05 1.46608e-10 
39 1 0.383664 0.0197976 5.13305e-05 -3.50204e-19 3.47706e-22 2.67381e-16 4.03897e-28 -6.022e-27 0 5e-05 1.46608e-10 
42 1 0.38332 0.0192284 0.00522714 1.28259e-16 -8.24808e-22 3.78515e-14 0 -8.58759e-25 0 5e-05 1.46608e-10 
44 1 0.384012 0.018459 5.17866e-05 1.79762e-18 8.68362e-23 -1.37251e-15 0 -4.34969e-28 0 5e-05 1.46608e-10 
45 1 0.384188 0.017154 5.20161e-05 -2.80996e-20 1.35112e-22 2.42143e-17 0 3.23117e-27 0 5e-05 1.46608e-10 
47 1 0.366338 0.0176894 0.00784851 0.0290307 0.0355885 -0.0126695 -1.6411e-10 -1.43045e-10 -4.2603e-11 5e-05 1.46608e-10 
48 1 0.383611 0.0181742 5.1261e-05 -8.00765e-19 -3.0698e-22 6.08849e-16 0 0 0 5e-05 1.46608e-10 
49 1 0.384194 0.0185569 5.20241e-05 1.79759e-18 -1.19257e-23 -1.37251e-15 0 -6.30982e-26 0 5e-05 1.46608e-10 
50 1 0.384353 0.0181246 5.22331e-05 1.7976e-18 3.30397e-22 -1.37249e-15 0 1.66135e-26 0 5e-05 1.46608e-10 
51 1 0.383985 0.019032 5.17502e-05 5.35607e-19 -1.5182e-22 -4.06396e-16 0 0 0 5e-05 1.46608e-10 
52 1 0.38427 0.0217777 5.21238e-05 2.00507e-18 2.07092e-21 -1.5309e-15 0 4.37458e-26 0 5e-05 1.46608e-10 
53 1 0.3849 0.0167228 5.29491e-05 2.24035e-18 1.0333e-20 -1.71052e-15 0 3.54296e-26 0 5e-05 1.46608e-10 
54 1 0.384094 0.0196551 5.18938e-05 2.81058e-18 6.54151e-22 -2.14593e-15 0 -6.59565e-27 0 5e-05 1.46608e-10 
55 1 0.383596 0.0188939 5.12421e-05 2.81059e-18 8.08575e-22 -2.14593e-15 0 -1.05461e-26 0 5e-05 1.46608e-10 
56 1 0.384074 0.0171039 5.18678e-05 -2.50114e-20 1.2101e-21 2.4231e-17 0 0 0 5e-05 1.46608e-10 
57 1 0.38361 0.0192266 5.12599e-05 -3.50169e-19 -3.53584e-21 2.67381e-16 0 3.33679e-26 0 5e-05 1.46608e-10 
59 1 0.378022 0.019866 0.005332 -5.0191e-15 -7.41203e-15 7.69803e-14 -4.75629e-24 -1.00813e-24 -4.1359e-25 5e-05 1.46608e-10 
60 1 0.384997 0.0170277 5.3077e-05 2.24036e-18 -7.17021e-21 -1.71052e-15 0 -3.0623e-26 0 5e-05 1.46608e-10 
62 1 0.384469 0.0166233 5.23854e-05 2.24036e-18 1.97033e-21 -1.71052e-15 0 -2.53967e-26 0 5e-05 1.46608e-10 
63 1 0.385119 0.0166834 5.32362e-05 2.24033e-18 2.99603e-21 -1.71052e-15 0 -1.23483e-25 0 5e-05 1.46608e-10 
64 1 0.383572 0.0182666 5.12106e-05 1.79761e-18 -9.19545e-23 -1.37249e-15 0 -1.78909e-27 0 5e-05 1.46608e-10 
65 1 0.38415 0.0174668 5.19668e-05 2.24031e-18 -1.82703e-20 -1.71052e-15 0 6.98913e-26 0 5e-05 1.46608e-10 
66 1 0.384314 0.0196963 5.21813e-05 -3.50218e-19 -9.07363e-21 2.67381e-16 0 4.01953e-25 0 5e-05 1.46608e-10 
67 1 0.38401 0.0186182 5.17838e-05 -3.50178e-19 1.00276e-21 2.67382e-16 0 -3.23721e-26 0 5e-05 1.46608e-10 
68 1 0.384443 0.0179216 0.000120816 -3.25704e-12 1.18393e-11 4.3498e-13 -7.5326e-17 3.38415e-19 -1.70371e-17 5e-05 1.46608e-10 
69 1 0.383601 0.0187724 5.12477e-05 2.81056e-18 -1.43068e-22 -2.14593e-15 0 -3.05162e-26 0 5e-05 1.46608e-10 
70 1 0.383695 0.0199014 5.13714e-05 -3.50181e-19 4.16249e-21 2.67381e-16 0 2.76929e-26 0 5e-05 1.46608e-10 
71 1 0.383708 0.0192011 5.13883e-05 2.81054e-18 1.4498e-21 -2.14593e-15 0 -1.05882e-26 0 5e-05 1.46608e-10 
72 1 0.383848 0.0178769 5.15715e-05 -2.24376e-19 -2.2888e-22 1.69474e-16 -5.16988e-26 3.87741e-26 -2.06795e-25 5e-05 1.46608e-10 
73 1 0.384751 0.0204726 5.27548e-05 2.00507e-18 8.4949e-22 -1.5309e-15 0 -2.24106e-26 0 5e-05 1.46608e-10 
74 1 0.384789 0.0203241 5.2804e-05 8.71335e-19 -1.89862e-21 -6.65298e-16 0 1.68336e-26 0 5e-05 1.46608e-10 
76 1 0.384148 0.0172907 5.19645e-05 2.24037e-18 -6.50302e-24 -1.71052e-15 0 -3.88695e-27 0 5e-05 1.46608e-10 
77 1 0.384899 0.0180553 5.29479e-05 1.79757e-18 5.39849e-22 -1.37249e-15 0 9.9494e-27 0 5e-05 1.46608e-10 
78 1 0.384454 0.0177342 5.23646e-05 2.24032e-18 7.90532e-22 -1.71052e-15 4.03897e-28 -6.70254e-27 0 5e-05 1.46608e-10 
79 1 0.384159 0.0206443 5.19783e-05 2.00506e-18 1.93777e-22 -1.5309e-15 0 -8.38173e-26 0 5e-05 1.46608e-10 
80 1 0.383985 0.017428 5.1751e-05 2.24031e-18 2.44682e-21 -1.71051e-15 0 5.36726e-27 0 5e-05 1.46608e-10 
82 1 0.384471 0.0161368 5.23876e-05 2.24034e-18 -9.50535e-21 -1.71051e-15 0 3.08993e-26 0 5e-05 1.46608e-10 
83 1 0.384894 0.0205458 5.29418e-05 2.00507e-18 1.69788e-22 -1.5309e-15 0 6.63627e-27 0 5e-05 1.46608e-10 
84 1 0.383993 0.0188764 5.17615e-05 5.32343e-19 -6.61987e-21 -4.06404e-16 0 0 0 5e-05 1.46608e-10 
85 1 0.383849 0.0193448 5.15725e-05 1.03568e-19 -3.96662e-22 -8.03914e-17 0 0 0 5e-05 1.46608e-10 
86 1 0.383935 0.0179283 5.16858e-05 -9.20549e-19 4.01221e-22 7.02843e-16 0 1.00938e-27 0 5e-05 1.46608e-10 
87 1 0.384931 0.0175954 5.29902e-05 1.79761e-18 -5.59666e-21 -1.37249e-15 0 -3.74695e-26 0 5e-05 1.46608e-10 
88 1 0.383272 0.0191349 0.0052273 1.28258e-16 -3.47223e-21 3.78515e-14 0 -1.1055e-25 0 5e-05 1.46608e-10 
89 1 0.38382 0.0176837 5.15355e-05 2.24035e-18 4.13765e-21 -1.71051e-15 0 3.07109e-26 0 5e-05 1.46608e-10 
90 1 0.384046 0.0179367 5.18308e-05 2.24033e-18 9.73703e-22 -1.71052e-15 0 -3.07947e-27 0 5e-05 1.46608e-10 
91 1 0.384723 0.0172283 5.27177e-05 2.24035e-18 2.12445e-21 -1.71052e-15 0 2.7521e-26 0 5e-05 1.46608e-10 
92 1 0.384191 0.017054 5.20202e-05 -9.20521e-19 -1.27496e-21 7.02843e-16 0 3.32915e-26 0 5e-05 1.46608e-10 
93 1 0.383736 0.0207666 5.1425e-05 -1.15573e-18 -1.30119e-21 8.82406e-16 0 8.86606e-26 0 5e-05 1.46608e-10 
94 1 0.383683 0.0188356 5.13558e-05 -3.50172e-19 -1.00418e-21 2.67383e-16 0 1.86199e-25 0 5e-05 1.46608e-10 
95 1 0.384606 0.0176837 5.25637e-05 4.92014e-19 1.11161e-20 -3.71582e-16 0 5.16988e-26 4.1359e-25 5e-05 1.46608e-10 
96 1 0.38444 0.0183063 5.23472e-05 1.79763e-18 -1.03514e-23 -1.37251e-15 4.03897e-28 4.81939e-28 0 5e-05 1.46608e-10 
98 1 0.383724 0.0194164 5.14094e-05 -3.50194e-19 4.31119e-21 2.67382e-16 -4.03897e-28 2.51789e-26 0 5e-05 1.46608e-10 
99 1 0.384303 0.0183686 5.21674e-05 1.79756e-18 -1.54925e-21 -1.37249e-15 0 6.1806e-26 0 5e-05 1.46608e-10 
100 1 0.384848 0.0173718 5.28812e-05 2.24034e-18 4.20714e-22 -1.71052e-15 0 5.78061e-26 0 5e-05 1.46608e-10 
101 1 0.384322 0.0214999 5.21918e-05 2.00504e-18 -2.1223e-20 -1.5309e-15 0 9.39577e-26 0 5e-05 1.46608e-10 
102 1 0.0643568 0.0187248 0.00531097 4.32579e-15 1.0487e-14 8.29585e-14 3.58199e-21 -1.43144e-21 -7.65142e-24 5e-05 1.46608e-10 
103 1 0.24257 0.0191927 0.00520306 -3.43631e-22 -1.27651e-22 1.23839e-22 0 0 0 5e-05 1.46608e-10 
104 1 0.384443 0.0190455 5.23502e-05 -3.50168e-19 -3.53929e-22 2.67381e-16 0 -2.23283e-26 0 5e-05 1.46608e-10 
105 1 0.384764 0.0176468 0.000125094 1.10468e-19 4.54284e-21 -7.99325e-17 0 0 0 5e-05 1.46608e-10 
106 1 0.383893 0.0187182 5.16305e-05 7.79637e-19 2.91977e-21 -5.98255e-16 0 0 0 5e-05 1.46608e-10 
107 1 0.385147 0.0177812 0.000122873 -8.24881e-21 -3.69163e-21 -2.81824e-21 0 1.29247e-26 0 5e-05 1.46608e-10 
108 1 0.383662 0.0180867 5.13271e-05 -7.98494e-19 3.64882e-21 6.0885e-16 0 0 0 5e-05 1.46608e-10 
109 1 0.384177 0.0192838 5.20024e-05 2.81056e-18 -1.28486e-20 -2.14593e-15 0 -3.12144e-25 0 5e-05 1.46608e-10 
110 1 0.384493 0.0193015 5.24162e-05 2.81058e-18 1.17392e-22 -2.14593e-15 4.03897e-28 -6.87144e-28 0 5e-05 1.46608e-10 
111 1 0.384709 0.0176058 5.26985e-05 1.06285e-19 1.06227e-22 -7.99284e-17 0 -3.23117e-27 0 5e-05 1.46608e-10 
112 1 0.384647 0.0185896 5.26184e-05 1.79759e-18 2.23909e-21 -1.37251e-15 0 -1.28967e-25 0 5e-05 1.46608e-10 
113 1 0.383921 0.0178347 0.00010527 -2.30526e-19 1.34194e-20 1.69473e-16 0 -3.23117e-26 0 5e-05 1.46608e-10 
114 1 0.384105 0.0183256 5.19082e-05 1.79758e-18 1.65727e-21 -1.37249e-15 0 -5.51971e-26 0 5e-05 1.46608e-10 
115 1 0.38367 0.0183173 5.13384e-05 1.79761e-18 1.65804e-21 -1.37251e-15 0 -4.7298e-27 0 5e-05 1.46608e-10 
116 1 0.383786 0.0180677 5.14897e-05 2.24037e-18 -1.04515e-21 -1.71052e-15 0 -1.44031e-26 0 5e-05 1.46608e-10 
117 1 0.384446 0.0168712 5.23543e-05 -9.44488e-19 9.65948e-21 7.02812e-16 1.06629e-25 -5.16988e-26 0 5e-05 1.46608e-10 
118 1 0.383701 0.0187017 5.13793e-05 -3.50175e-19 -1.15802e-22 2.67381e-16 0 -2.09895e-27 0 5e-05 1.46608e-10 
119 1 0.383906 0.018619 5.16476e-05 7.84562e-19 4.53956e-22 -5.98253e-16 0 0 0 5e-05 1.46608e-10 
120 1 0.384144 0.01791 5.19592e-05 -2.04723e-14 1.4933e-14 5.61927e-15 -1.72341e-19 -1.56771e-20 6.16473e-20 5e-05 1.46608e-10 
121 1 0.384817 0.0185465 5.28405e-05 1.79761e-18 -2.97877e-21 -1.37251e-15 0 -8.07177e-26 0 5e-05 1.46608e-10 
122 1 0.384225 0.0179695 5.20647e-05 -8.89096e-14 -5.00884e-14 8.12369e-14 -2.11771e-19 6.13086e-19 1.07561e-19 5e-05 1.46608e-10 
123 1 0.383933 0.0192279 5.16831e-05 1.05166e-19 1.69293e-21 -8.03881e-17 0 0 0 5e-05 1.46608e-10 
124 1 0.384096 0.0170045 5.18952e-05 -1.98309e-21 -1.73219e-21 -4.24097e-19 -5.16988e-26 0 -4.1359e-25 5e-05 1.46608e-10 
125 1 0.384626 0.016764 5.25911e-05 2.24032e-18 3.38547e-21 -1.71052e-15 0 -6.56605e-26 0 5e-05 1.46608e-10 
127 1 0.384295 0.018231 0.000129802 1.54118e-20 1.36221e-20 -7.47673e-18 0 0 0 5e-05 1.46608e-10 
128 1 0.384383 0.0169852 5.22722e-05 -9.20562e-19 8.68993e-22 7.02842e-16 0 -1.7298e-26 0 5e-05 1.46608e-10 
129 1 0.383806 0.0179676 5.15164e-05 -2.23427e-19 -5.12911e-22 1.69475e-16 1.29247e-26 0 0 5e-05 1.46608e-10 
130 1 0.383859 0.0175842 5.15859e-05 2.24037e-18 -6.30528e-23 -1.71052e-15 0 8.30702e-27 0 5e-05 1.46608e-10 
131 1 0.38345 0.0177196 0.00536012 -4.95904e-18 2.71987e-14 8.96608e-14 -4.32822e-22 -5.50851e-22 1.6709e-22 5e-05 1.46608e-10 
132 1 0.384418 0.0164926 5.23174e-05 2.24037e-18 -2.28095e-22 -1.71052e-15 0 7.2684e-27 0 5e-05 1.46608e-10 
133 1 0.383591 0.0185347 5.12355e-05 -3.50175e-19 1.78517e-20 2.67382e-16 0 -3.27398e-25 0 5e-05 1.46608e-10 
134 1 0.383574 0.0183691 5.12127e-05 2.81057e-18 -2.0948e-21 -2.14593e-15 -4.03897e-28 -4.95125e-26 0 5e-05 1.46608e-10 
135 1 0.383667 0.0199993 5.13343e-05 2.81055e-18 -3.57156e-22 -2.14593e-15 0 2.93316e-27 0 5e-05 1.46608e-10 
136 1 0.384475 0.0176309 5.23931e-05 -9.20567e-19 -8.46871e-21 7.02843e-16 4.03897e-28 2.26625e-25 0 5e-05 1.46608e-10 
137 1 0.383925 0.0184105 5.16721e-05 1.7976e-18 -2.55906e-23 -1.37249e-15 0 3.84911e-28 0 5e-05 1.46608e-10 
138 1 0.384418 0.0178531 5.23181e-05 2.94571e-12 1.7359e-12 1.05155e-12 -1.3922e-17 -1.09559e-17 -9.83307e-18 5e-05 1.46608e-10 
140 1 0.384798 0.0171606 5.28155e-05 2.24031e-18 7.85905e-23 -1.71052e-15 0 -5.7121e-27 0 5e-05 1.46608e-10 
141 1 0.384313 0.0171449 5.21807e-05 2.24035e-18 -9.29471e-21 -1.71052e-15 0 -4.51814e-26 0 5e-05 1.46608e-10 
142 1 0.385769 0.0165473 5.40881e-05 1.45285e-18 3.37223e-21 -1.10923e-15 0 -1.72031e-26 0 5e-05 1.46608e-10 
143 1 0.384333 0.0177947 5.22067e-05 -5.11826e-19 -3.46384e-21 3.87845e-16 0 0 0 5e-05 1.46608e-10 
144 1 0.384385 0.0195542 5.22753e-05 -3.50196e-19 -1.84025e-20 2.67381e-16 0 -4.23234e-26 0 5e-05 1.46608e-10 
146 1 0.384085 0.018684 5.18824e-05 2.81056e-18 9.65577e-22 -2.14593e-15 0 -8.60802e-27 0 5e-05 1.46608e-10 
147 1 0.384719 0.0170987 5.27125e-05 2.24031e-18 -2.55418e-20 -1.71052e-15 0 1.49312e-25 0 5e-05 1.46608e-10 
148 1 0.383894 0.0174902 5.16321e-05 2.24034e-18 1.78434e-21 -1.71052e-15 0 -4.95554e-26 0 5e-05 1.46608e-10 
149 1 0.384744 0.0173967 5.27447e-05 -1.32981e-19 -2.9224e-21 9.02083e-17 0 1.29247e-26 0 5e-05 1.46608e-10 
150 1 0.383756 0.0184867 5.14508e-05 2.81058e-18 -5.62473e-22 -2.14593e-15 0 -5.30131e-26 0 5e-05 1.46608e-10 
151 1 0.384727 0.0201861 5.27225e-05 8.71337e-19 -3.34514e-21 -6.65298e-16 0 1.52545e-26 0 5e-05 1.46608e-10 
153 1 0.384074 0.0170516 0.000137426 -3.59102e-20 -1.88815e-20 1.25364e-20 -6.46235e-27 1.42172e-25 2.76265e-25 5e-05 1.46608e-10 
154 1 0.384584 0.0177681 0.000101539 4.84836e-19 6.10012e-21 -3.71599e-16 -5.16988e-26 -3.87741e-26 -2.06795e-25 5e-05 1.46608e-10 
155 1 0.384544 0.0163094 5.24825e-05 -9.20519e-19 1.15012e-20 7.02844e-16 0 3.24767e-25 0 5e-05 1.46608e-10 
156 1 0.384233 0.0168376 5.20754e-05 2.24031e-18 5.38388e-22 -1.71051e-15 0 1.90284e-27 0 5e-05 1.46608e-10 
157 1 0.0219312 0.0187687 0.00551176 -3.83126e-14 8.16704e-14 2.95889e-13 7.63074e-22 3.55998e-22 1.7164e-23 5e-05 1.46608e-10 
158 1 0.384319 0.0167636 5.21878e-05 2.24032e-18 -7.95436e-20 -1.71052e-15 -4.03897e-28 -1.43062e-25 0 5e-05 1.46608e-10 
159 1 0.384228 0.0177075 5.20694e-05 -5.07492e-19 -5.12617e-21 3.87837e-16 0 0 0 5e-05 1.46608e-10 
160 1 0.38353 0.0176621 0.00537757 -9.10435e-18 2.71935e-14 8.96624e-14 4.50038e-22 5.72719e-22 -1.73708e-22 5e-05 1.46608e-10 
162 1 0.38396 0.0191288 5.17179e-05 -3.50181e-19 1.55861e-22 2.6738e-16 0 -5.41562e-27 0 5e-05 1.46608e-10 
165 1 0.384146 0.0189135 5.19615e-05 -3.5022e-19 6.79399e-21 2.6738e-16 -4.03897e-28 -1.60407e-25 0 5e-05 1.46608e-10 
166 1 0.384895 0.0168866 5.2943e-05 -9.20553e-19 -2.58236e-20 7.02845e-16 0 -1.797e-25 0 5e-05 1.46608e-10 
167 1 0.384921 0.0196039 5.29764e-05 8.71333e-19 2.02753e-20 -6.65297e-16 0 -2.12511e-26 0 5e-05 1.46608e-10 
168 1 0.383956 0.019484 5.17133e-05 2.81059e-18 -6.82477e-22 -2.14593e-15 0 -1.0405e-26 0 5e-05 1.46608e-10 
169 1 0.383755 0.019009 5.14493e-05 2.81055e-18 -2.17369e-22 -2.14593e-15 0 9.24516e-27 0 5e-05 1.46608e-10 
170 1 0.383888 0.0184727 0.00523166 6.88037e-16 -4.57691e-15 -5.98175e-14 -5.26681e-25 -1.80946e-25 0 5e-05 1.46608e-10 
171 1 0.384004 0.0193816 5.17764e-05 2.81055e-18 -2.53311e-21 -2.14593e-15 0 1.80782e-26 0 5e-05 1.46608e-10 
172 1 0.384121 0.0171522 0.000126213 5.36689e-21 1.52415e-20 2.42259e-17 -2.58494e-26 -5.16988e-26 -2.06795e-25 5e-05 1.46608e-10 
173 1 0.384268 0.0190399 5.21214e-05 -3.50212e-19 1.51044e-20 2.67381e-16 0 6.54093e-26 0 5e-05 1.46608e-10 
174 1 0.384105 0.0178224 7.97669e-05 -1.05371e-15 2.4162e-15 5.02534e-15 2.9804e-20 -3.7359e-20 4.97173e-20 5e-05 1.46608e-10 
176 1 0.384124 0.018008 5.19332e-05 -5.38038e-15 8.15904e-16 -3.15793e-15 -6.00527e-20 -3.78753e-20 1.03691e-20 5e-05 1.46608e-10 
177 1 0.38435 0.018262 5.22293e-05 1.45743e-20 -2.15755e-22 -7.47398e-18 0 0 0 5e-05 1.46608e-10 
178 1 0.384053 0.0189567 5.184e-05 2.81059e-18 2.47947e-22 -2.14593e-15 0 9.55192e-29 0 5e-05 1.46608e-10 
179 1 0.3843 0.0186551 5.2163e-05 1.79762e-18 3.6605e-21 -1.37251e-15 0 -7.97051e-26 0 5e-05 1.46608e-10 
182 1 0.384992 0.0180145 5.30695e-05 1.7976e-18 4.62385e-21 -1.37251e-15 0 -1.09757e-25 0 5e-05 1.46608e-10 
183 1 0.386759 0.0152483 5.53836e-05 1.45286e-18 5.99769e-22 -1.10923e-15 4.03897e-28 5.92456e-26 0 5e-05 1.46608e-10 
184 1 0.383617 0.019327 5.12691e-05 2.81055e-18 5.5329e-22 -2.14593e-15 0 -2.14528e-26 0 5e-05 1.46608e-10 
185 1 0.384403 0.0192492 5.22987e-05 -3.50215e-19 -2.20898e-21 2.67381e-16 0 1.49176e-26 0 5e-05 1.46608e-10 
186 1 0.384249 0.018274 5.20972e-05 1.14818e-20 -3.40683e-22 -7.47483e-18 0 0 0 5e-05 1.46608e-10 
187 1 0.38373 0.0197118 5.14173e-05 -3.50184e-19 2.57362e-21 2.67381e-16 0 -4.91458e-27 0 5e-05 1.46608e-10 
188 1 0.385076 0.0179467 5.31802e-05 1.79758e-18 -2.79987e-20 -1.37249e-15 0 -2.45643e-26 0 5e-05 1.46608e-10 
189 1 0.38396 0.0177554 5.17178e-05 2.24033e-18 -3.84778e-22 -1.71051e-15 0 -1.03326e-26 0 5e-05 1.46608e-10 
190 1 0.383867 0.0210849 5.15964e-05 -1.15574e-18 1.83662e-20 8.82406e-16 0 3.79117e-25 0 5e-05 1.46608e-10 
191 1 0.384706 0.0184769 5.26952e-05 1.79757e-18 1.21491e-21 -1.37249e-15 0 -2.98178e-26 0 5e-05 1.46608e-10 
192 1 0.384023 0.0181084 5.1801e-05 -3.21221e-15 1.83007e-15 3.29661e-15 -1.37306e-20 -1.08452e-20 4.43121e-21 5e-05 1.46608e-10 
193 1 0.383672 0.0184195 5.13415e-05 -3.50211e-19 -5.72375e-21 2.67382e-16 0 2.9441e-27 0 5e-05 1.46608e-10 
194 1 0.384122 0.0182248 5.1931e-05 1.79756e-18 3.02888e-21 -1.37249e-15 0 2.31819e-25 0 5e-05 1.46608e-10 
195 1 0.383967 0.0181955 5.17273e-05 1.79763e-18 5.43873e-22 -1.37251e-15 0 -2.25439e-26 0 5e-05 1.46608e-10 
196 1 0.384122 0.0181236 5.19307e-05 1.79755e-18 6.09691e-23 -1.37249e-15 0 -5.55779e-28 0 5e-05 1.46608e-10 
197 1 0.383676 0.0181534 0.000124512 -8.10414e-19 2.14876e-21 6.08853e-16 0 0 0 5e-05 1.46608e-10 
198 1 0.383816 0.019228 5.15292e-05 1.08955e-19 8.20712e-23 -8.03862e-17 0 0 0 5e-05 1.46608e-10 
199 1 0.38465 0.0174377 5.26211e-05 -1.15608e-19 -1.96175e-22 9.01927e-17 -2.58494e-26 0 0 5e-05 1.46608e-10 
200 1 0.3851 0.0177266 5.32113e-05 -5.63914e-22 3.18074e-21 1.10769e-20 0 0 0 5e-05 1.46608e-10 
201 1 0.385006 0.0158243 5.30884e-05 1.45281e-18 7.75272e-23 -1.10923e-15 0 6.74079e-27 0 5e-05 1.46608e-10 
202 1 0.385094 0.0174355 5.32031e-05 1.79759e-18 2.81731e-22 -1.37251e-15 -4.03897e-28 -6.03216e-26 0 5e-05 1.46608e-10 
203 1 0.384504 0.0179623 5.24301e-05 -8.47784e-13 4.04886e-12 -3.4092e-13 -2.84016e-17 9.17309e-18 4.19435e-18 5e-05 1.46608e-10 
204 1 0.384109 0.0184302 5.19127e-05 1.79763e-18 -1.72855e-21 -1.37251e-15 0 -3.18222e-26 0 5e-05 1.46608e-10 
205 1 0.384524 0.0174713 5.24569e-05 2.24035e-18 2.92959e-21 -1.71052e-15 0 -9.99343e-26 0 5e-05 1.46608e-10 
206 1 0.38435 0.0178614 0.000125081 5.32936e-12 9.32026e-13 1.42248e-12 -1.54276e-17 -4.92784e-18 -1.19494e-17 5e-05 1.46608e-10 
207 1 0.385023 0.0181691 5.31107e-05 1.79759e-18 -4.21113e-22 -1.37251e-15 0 -3.55699e-27 0 5e-05 1.46608e-10 
208 1 0.385037 0.0175739 5.31289e-05 1.79759e-18 -4.9782e-22 -1.37249e-15 0 4.12257e-27 0 5e-05 1.46608e-10 
209 1 0.383886 0.018028 5.16209e-05 -6.74109e-16 4.76921e-16 -1.00879e-15 -8.08029e-21 -1.5772e-21 -6.28306e-21 5e-05 1.46608e-10 
210 1 0.384526 0.016716 5.24592e-05 2.24036e-18 2.98147e-21 -1.71051e-15 0 1.29696e-25 0 5e-05 1.46608e-10 
211 1 0.384505 0.0171609 5.24316e-05 2.24031e-18 1.12991e-20 -1.71052e-15 0 2.20905e-26 0 5e-05 1.46608e-10 
212 1 0.383978 0.0185238 0.00522879 -2.82525e-15 1.87927e-14 2.4561e-13 3.23117e-27 -3.87741e-26 0 5e-05 1.46608e-10 
213 1 0.383846 0.0191172 5.15692e-05 2.81055e-18 1.92533e-21 -2.14593e-15 0 -1.86751e-26 0 5e-05 1.46608e-10 
214 1 0.384625 0.017537 5.25895e-05 1.01695e-19 5.24209e-21 -7.992e-17 0 0 0 5e-05 1.46608e-10 
215 1 0.385553 0.0152374 5.38047e-05 1.45284e-18 9.95813e-22 -1.10923e-15 -4.03897e-28 1.90218e-26 0 5e-05 1.46608e-10 
217 1 0.384411 0.0184417 5.23083e-05 1.79762e-18 1.84298e-22 -1.37251e-15 0 -2.03449e-26 0 5e-05 1.46608e-10 
218 1 0.384302 0.0165156 5.21656e-05 -9.20572e-19 -8.64646e-21 7.02843e-16 0 -2.05561e-26 0 5e-05 1.46608e-10 
219 1 0.384399 0.0186101 5.22929e-05 1.79764e-18 4.51395e-21 -1.37251e-15 0 -2.88641e-26 0 5e-05 1.46608e-10 
220 1 0.384943 0.0187045 5.30057e-05 1.79759e-18 1.6028e-22 -1.37251e-15 0 -9.37413e-27 0 5e-05 1.46608e-10 
222 1 0.384205 0.0180675 5.20391e-05 -1.23882e-14 1.83286e-14 1.08629e-14 -3.90155e-19 -6.51642e-20 2.35442e-19 5e-05 1.46608e-10 
224 1 0.384058 0.0177382 5.18467e-05 1.90058e-15 -4.27783e-15 -1.73374e-16 -3.80709e-20 -4.7123e-20 4.07101e-20 5e-05 1.46608e-10 
225 1 0.384811 0.0174713 5.28328e-05 1.14171e-19 1.7446e-22 -7.99125e-17 0 0 0 5e-05 1.46608e-10 
226 1 0.383884 0.0196254 5.16191e-05 -3.50189e-19 9.34126e-21 2.67381e-16 0 -1.92555e-26 0 5e-05 1.46608e-10 
227 1 0.384574 0.0160758 5.25222e-05 2.24031e-18 -4.34657e-21 -1.71052e-15 0 -1.13871e-25 0 5e-05 1.46608e-10 
228 1 0.384056 0.0180406 0.000117497 5.02596e-15 -2.76136e-15 -9.85294e-16 -3.008e-20 2.32157e-20 -1.89476e-20 5e-05 1.46608e-10 
229 1 0.384183 0.0194731 5.201e-05 -3.50206e-19 5.10704e-22 2.67382e-16 0 -8.63565e-26 0 5e-05 1.46608e-10 
230 1 0.385084 0.0171004 5.31901e-05 -9.2052e-19 2.49505e-21 7.02844e-16 0 1.84778e-27 0 5e-05 1.46608e-10 
232 1 0.38345 0.0186594 0.00522432 -5.74109e-14 2.32156e-19 -1.77479e-13 0 -1.48492e-23 2.06795e-25 5e-05 1.46608e-10 
233 1 0.384483 0.016964 5.24031e-05 -8.9611e-19 -9.71275e-21 7.02812e-16 -1.13091e-25 4.52364e-26 0 5e-05 1.46608e-10 
234 1 0.384564 0.0189811 5.25095e-05 -3.50169e-19 -5.459e-22 2.67382e-16 0 -3.67519e-26 0 5e-05 1.46608e-10 
235 1 0.385129 0.0178507 5.32485e-05 1.11177e-22 -8.43281e-22 -2.2895e-21 0 -2.58494e-26 0 5e-05 1.46608e-10 
236 1 0.385096 0.0164501 5.32056e-05 -9.20541e-19 -1.24342e-20 7.02842e-16 0 5.16845e-25 0 5e-05 1.46608e-10 
237 1 0.383933 0.0187648 0.000130442 7.6957e-19 4.10347e-21 -5.98258e-16 7.75482e-26 0 0 5e-05 1.46608e-10 
239 1 0.384687 0.0169933 5.26707e-05 2.24034e-18 3.02265e-22 -1.71051e-15 4.03897e-28 1.4448e-27 0 5e-05 1.46608e-10 
240 1 0.384262 0.0177729 0.000119547 -5.2851e-19 -8.42503e-21 3.87839e-16 0 0 0 5e-05 1.46608e-10 
241 1 0.384801 0.0166583 5.28192e-05 2.24032e-18 1.77126e-21 -1.71051e-15 -4.03897e-28 -1.47682e-26 0 5e-05 1.46608e-10 
242 1 0.383909 0.0188216 5.16519e-05 7.82837e-19 2.28287e-21 -5.98258e-16 0 0 0 5e-05 1.46608e-10 
243 1 0.38439 0.0209101 5.22816e-05 2.00508e-18 6.12269e-21 -1.5309e-15 0 -7.67399e-25 0 5e-05 1.46608e-10 
244 1 0.384493 0.0173689 9.64047e-05 -1.21441e-19 -7.45934e-21 9.01914e-17 0 0 0 5e-05 1.46608e-10 
246 1 0.38382 0.0188681 5.15345e-05 -3.50166e-19 2.14818e-22 2.6738e-16 0 -5.11789e-28 0 5e-05 1.46608e-10 
247 1 0.384541 0.017902 0.000125062 2.77279e-11 9.98812e-11 2.39366e-12 6.98002e-17 -5.78048e-18 -8.37583e-17 5e-05 1.46608e-10 
248 1 0.383639 0.0189866 5.12974e-05 -3.50221e-19 2.7819e-21 2.67381e-16 0 -3.97631e-26 0 5e-05 1.46608e-10 
249 1 0.38453 0.020178 5.24643e-05 8.71338e-19 9.00302e-22 -6.65297e-16 0 -4.49967e-26 0 5e-05 1.46608e-10 
250 1 0.384661 0.0178084 5.26366e-05 4.86641e-19 1.2945e-21 -3.71587e-16 0 0 0 5e-05 1.46608e-10 
251 1 0.384005 0.0178448 5.17769e-05 -2.23989e-19 -9.87653e-22 1.69486e-16 0 -6.46235e-27 0 5e-05 1.46608e-10 
252 1 0.384145 0.0205426 5.19607e-05 8.71361e-19 5.84176e-21 -6.65298e-16 4.03897e-28 5.18625e-26 0 5e-05 1.46608e-10 
253 1 0.383856 0.0203056 5.15822e-05 2.81058e-18 -3.96837e-21 -2.14593e-15 -4.03897e-28 2.30185e-25 0 5e-05 1.46608e-10 
254 1 0.38515 0.0175249 5.32762e-05 1.79756e-18 -6.54085e-21 -1.37249e-15 0 -3.76397e-26 0 5e-05 1.46608e-10 
255 1 0.383703 0.0182157 5.13821e-05 -7.98206e-19 1.93859e-21 6.08848e-16 0 0 0 5e-05 1.46608e-10 
256 1 0.384352 0.0191511 5.22319e-05 -3.50224e-19 -7.82323e-22 2.67382e-16 0 -3.40965e-27 0 5e-05 1.46608e-10 
257 1 0.384531 0.0168171 5.24664e-05 2.24035e-18 1.13673e-23 -1.71051e-15 -4.03897e-28 -1.01609e-28 0 5e-05 1.46608e-10 
258 1 0.383662 0.0204201 5.13284e-05 -5.14035e-22 1.92672e-23 1.03396e-21 0 0 0 5e-05 1.46608e-10 
259 1 0.384524 0.0216685 5.24571e-05 2.00504e-18 5.35375e-21 -1.5309e-15 0 -1.81274e-25 0 5e-05 1.46608e-10 
260 1 0.384677 0.0173224 5.2657e-05 -1.32371e-19 8.28801e-22 9.02023e-17 0 2.58494e-26 0 5e-05 1.46608e-10 
261 1 0.383833 0.0185505 5.15522e-05 -3.50221e-19 1.96778e-22 2.67381e-16 0 -3.03666e-28 0 5e-05 1.46608e-10 
262 1 0.384455 0.0172873 5.2367e-05 -1.21099e-19 -2.9755e-21 9.01966e-17 2.58494e-26 0 0 5e-05 1.46608e-10 
263 1 0.384148 0.018808 5.1965e-05 -3.50199e-19 4.94412e-20 2.67382e-16 0 1.98438e-25 0 5e-05 1.46608e-10 
264 1 0.383874 0.0192744 0.000117813 9.95276e-20 3.14243e-21 -8.03892e-17 0 0 0 5e-05 1.46608e-10 
265 1 0.384664 0.0180562 5.26402e-05 1.79761e-18 -4.08988e-22 -1.37251e-15 0 3.94398e-26 0 5e-05 1.46608e-10 
266 1 0.383681 0.0195344 5.13528e-05 -3.50217e-19 2.60111e-22 2.67382e-16 0 5.69248e-28 0 5e-05 1.46608e-10 
267 1 0.384035 0.0173399 5.18167e-05 2.24035e-18 -1.04888e-22 -1.71052e-15 0 -1.56673e-27 0 5e-05 1.46608e-10 
268 1 0.384513 0.0181523 5.24423e-05 1.79764e-18 -7.52578e-22 -1.37251e-15 0 1.87719e-25 0 5e-05 1.46608e-10 
269 1 0.383985 0.018016 5.17508e-05 -1.93826e-15 2.4091e-16 -1.29869e-15 -2.11459e-20 -2.18544e-21 1.00403e-20 5e-05 1.46608e-10 
270 1 0.384204 0.0178183 5.2038e-05 -5.09566e-19 1.5187e-21 3.87841e-16 0 0 0 5e-05 1.46608e-10 
271 1 0.384204 0.0183848 5.20381e-05 1.79761e-18 -1.25809e-21 -1.37251e-15 0 9.8196e-26 0 5e-05 1.46608e-10 
272 1 0.384044 0.0177752 0.000143609 2.1088e-15 6.9998e-15 -8.23367e-15 2.65924e-20 -1.26263e-20 3.08063e-21 5e-05 1.46608e-10 
273 1 0.38425 0.0173241 5.20975e-05 2.24034e-18 5.7352e-22 -1.71051e-15 0 2.88503e-26 0 5e-05 1.46608e-10 
274 1 0.383762 0.0206306 5.14594e-05 8.71342e-19 -1.4638e-21 -6.65298e-16 0 2.22105e-26 0 5e-05 1.46608e-10 
275 1 0.385192 0.0170617 5.33312e-05 -9.20524e-19 -6.41781e-22 7.02844e-16 0 -2.49813e-27 0 5e-05 1.46608e-10 
276 1 0.3843 0.0175031 5.2164e-05 2.24036e-18 5.49236e-22 -1.71052e-15 0 1.76327e-26 0 5e-05 1.46608e-10 
277 1 0.384989 0.0177301 5.30663e-05 1.79756e-18 6.53876e-22 -1.37249e-15 0 3.02336e-28 0 5e-05 1.46608e-10 
278 1 0.384608 0.0171655 5.25668e-05 2.24036e-18 -1.7626e-22 -1.71052e-15 -4.03897e-28 -2.58449e-27 0 5e-05 1.46608e-10 
280 1 0.383746 0.0191087 5.14383e-05 2.81059e-18 4.11603e-22 -2.14593e-15 4.03897e-28 4.53831e-27 0 5e-05 1.46608e-10 
281 1 0.384897 0.0194055 5.2945e-05 8.71338e-19 -2.06679e-21 -6.65298e-16 4.03897e-28 -8.10818e-27 0 5e-05 1.46608e-10 
283 1 0.384732 0.0167368 5.27299e-05 2.24035e-18 2.23522e-21 -1.71052e-15 0 1.20905e-25 0 5e-05 1.46608e-10 
284 1 0.383859 0.0194467 5.15855e-05 2.81059e-18 1.34559e-21 -2.14593e-15 0 3.6557e-27 0 5e-05 1.46608e-10 
285 1 0.384511 0.017816 5.24399e-05 4.91531e-19 1.71056e-21 -3.71592e-16 1.03398e-25 0 0 5e-05 1.46608e-10 
286 1 0.384761 0.017818 5.27671e-05 4.86563e-19 8.14855e-22 -3.71587e-16 0 0 0 5e-05 1.46608e-10 
287 1 0.384417 0.0167417 5.23161e-05 2.24031e-18 -5.82119e-21 -1.71052e-15 4.03897e-28 -8.57229e-26 0 5e-05 1.46608e-10 
288 1 0.384905 0.0179551 5.29553e-05 1.79764e-18 6.3379e-21 -1.37251e-15 0 2.31497e-26 0 5e-05 1.46608e-10 
290 1 0.38472 0.0175079 6.94547e-05 1.05301e-19 1.39887e-21 -7.99321e-17 0 1.29247e-26 0 5e-05 1.46608e-10 
291 1 0.38371 0.0179981 5.13903e-05 2.24035e-18 3.74234e-23 -1.71052e-15 -4.03897e-28 -5.04659e-27 0 5e-05 1.46608e-10 
292 1 0.384101 0.0193494 5.19028e-05 -3.50193e-19 -2.74502e-21 2.67381e-16 4.03897e-28 -4.57484e-26 0 5e-05 1.46608e-10 
293 1 0.384429 0.0174321 5.23324e-05 -1.19723e-19 1.28825e-22 9.0189e-17 -5.16988e-26 0 0 5e-05 1.46608e-10 
294 1 0.383845 0.0189654 5.1567e-05 5.31324e-19 -2.56182e-22 -4.06399e-16 0 0 0 5e-05 1.46608e-10 
295 1 0.383647 0.0190875 5.13083e-05 -3.50188e-19 8.31717e-24 2.67381e-16 0 1.27893e-28 0 5e-05 1.46608e-10 
296 1 0.384035 0.0172167 0.000137258 -6.20122e-18 7.45739e-19 3.36451e-17 -5.16988e-26 -1.03398e-25 -2.06795e-25 5e-05 1.46608e-10 
297 1 0.383829 0.0183804 5.15472e-05 1.79759e-18 -5.33716e-22 -1.37251e-15 0 -2.174e-27 0 5e-05 1.46608e-10 
298 1 0.384428 0.0175321 5.23311e-05 -1.18895e-19 -6.81383e-22 9.0194e-17 0 0 0 5e-05 1.46608e-10 
299 1 0.38404 0.0171308 0.000188309 -1.08979e-17 2.55316e-17 1.69036e-17 5.16988e-26 -1.03398e-25 -2.06795e-25 5e-05 1.46608e-10 
300 1 0.383994 0.0172487 5.17625e-05 -4.19523e-20 8.93883e-21 4.2736e-17 0 0 0 5e-05 1.46608e-10 
