ITEM: TIMESTEP
55600000
ITEM: NUMBER OF ATOMS
275
ITEM: BOX BOUNDS ff ff ff
-0.02 0.43
-0.02 0.06
-0.02 0.07
ITEM: ATOMS id type x y z vx vy vz fx fy fz radius mass 
1 1 0.337474 0.0183206 0.00697076 0.00542895 -0.000764442 -3.01112e-05 -6.65219e-10 -4.01118e-10 -4.23177e-10 5e-05 1.46608e-10 
2 1 0.337233 0.0174756 0.00744841 0.00551545 -0.000512563 0.000149939 1.11103e-10 4.32362e-10 -1.09837e-10 5e-05 1.46608e-10 
4 1 0.337336 0.0172739 0.00744146 0.00572357 -0.000565466 0.000171567 -9.42421e-11 1.03885e-10 -4.2501e-11 5e-05 1.46608e-10 
5 1 0.33687 0.0160498 0.00796701 0.00614578 -0.000639935 0.000195765 1.34623e-11 1.07025e-10 -2.83828e-11 5e-05 1.46608e-10 
6 1 0.342956 0.0164399 0.0078371 0.00602395 0.000131851 0.000862274 -3.22416e-13 3.24442e-12 -1.96809e-12 5e-05 1.46608e-10 
7 1 0.337478 0.0179074 0.00716025 0.00531234 -0.000611686 -8.86437e-05 -2.37232e-10 2.2118e-10 -1.02067e-10 5e-05 1.46608e-10 
8 1 0.337177 0.0169764 0.00756973 0.00579932 -0.000601294 0.000185996 -8.20359e-11 -1.12259e-10 5.03282e-11 5e-05 1.46608e-10 
9 1 0.343171 0.0173167 0.0074067 0.00581685 0.000155545 0.000817848 -4.81202e-12 3.09314e-12 -2.18416e-12 5e-05 1.46608e-10 
10 1 0.337135 0.0167967 0.00764657 0.00588786 -0.000607964 0.000187505 -6.34504e-11 -2.19069e-10 9.40326e-11 5e-05 1.46608e-10 
11 1 0.337533 0.0184828 0.00700406 0.00526052 -0.000759308 0.000612573 3.38342e-11 2.44998e-10 -2.17659e-10 5e-05 1.46608e-10 
12 1 0.331456 0.0174049 0.00747514 0.00546463 0.000148775 -0.000652262 -4.88271e-10 5.16704e-10 -1.64522e-10 5e-05 1.46608e-10 
13 1 0.336849 0.0159606 0.00800723 0.00617782 -0.000708869 5.56306e-05 3.43101e-11 5.21989e-11 -1.45808e-10 5e-05 1.46608e-10 
14 1 0.331341 0.0176879 0.00732106 0.00455752 0.000218201 -0.000601228 -3.48659e-10 -6.10013e-11 1.73408e-10 5e-05 1.46608e-10 
16 1 0.331543 0.0182183 0.00698942 0.00593267 0.00021856 -0.000729073 -6.64322e-11 2.43824e-10 -3.10398e-10 5e-05 1.46608e-10 
17 1 0.336976 0.0164991 0.00777489 0.00599252 -0.000630216 0.000195678 1.01462e-12 3.5231e-11 -1.56935e-11 5e-05 1.46608e-10 
19 1 0.336829 0.0159145 0.00809362 0.00618793 -6.6178e-05 0.000398979 -9.55481e-11 3.07982e-11 -1.28226e-10 5e-05 1.46608e-10 
21 1 0.337429 0.0180679 0.00708994 0.00535512 -0.000626937 -9.39323e-05 6.4909e-11 -1.98498e-10 1.41416e-10 5e-05 1.46608e-10 
22 1 0.337432 0.0173026 0.00742813 0.005572 -0.000455995 0.00012685 -1.79415e-10 1.76302e-11 -4.64313e-12 5e-05 1.46608e-10 
23 1 0.331603 0.0180773 0.00706586 0.00530211 -0.0001826 -0.000450009 -7.47535e-10 9.49349e-10 2.04998e-10 5e-05 1.46608e-10 
24 1 0.343085 0.0169659 0.00757886 0.00589978 0.000146098 0.000835555 -3.41438e-12 6.15781e-12 -4.62192e-12 5e-05 1.46608e-10 
25 1 0.337113 0.0167068 0.00768499 0.00591236 -0.000613012 0.00018952 -1.15604e-10 -2.2463e-10 9.75374e-11 5e-05 1.46608e-10 
26 1 0.343128 0.0171413 0.00749278 0.00585795 0.000150602 0.000826633 5.233e-13 -3.98543e-12 2.88904e-12 5e-05 1.46608e-10 
27 1 0.331209 0.0171879 0.00762775 0.005476 -0.000613835 -0.00107103 1.97208e-10 2.33392e-10 -4.21242e-10 5e-05 1.46608e-10 
28 1 0.337145 0.0172179 0.00746751 0.00575549 -0.000591799 0.000182348 -1.69997e-11 1.89542e-12 4.34838e-12 5e-05 1.46608e-10 
29 1 0.33681 0.0158745 0.00818329 0.00607617 -6.26182e-05 0.000379088 5.15619e-10 -1.98161e-10 9.49306e-11 5e-05 1.46608e-10 
30 1 0.33706 0.0168585 0.0076212 0.00587059 -0.000628179 0.000196838 -2.09939e-11 -1.6756e-10 7.2315e-11 5e-05 1.46608e-10 
31 1 0.33752 0.0181601 0.00704132 0.00541368 -0.000694243 -5.31695e-05 -1.4092e-10 -7.11187e-10 2.33802e-10 5e-05 1.46608e-10 
32 1 0.336997 0.0165889 0.00773647 0.0059613 -0.000631136 0.000196608 -1.03502e-11 -1.48356e-11 2.46179e-12 5e-05 1.46608e-10 
33 1 0.342977 0.0165276 0.00779406 0.00600349 0.000134086 0.000857954 4.24869e-12 5.84975e-12 -1.85751e-12 5e-05 1.46608e-10 
34 1 0.336954 0.0164092 0.00781331 0.00602327 -0.000629395 0.000194793 1.86645e-11 5.43066e-11 -2.08862e-11 5e-05 1.46608e-10 
35 1 0.337439 0.0177289 0.00724487 0.00542218 -0.000435691 -0.000168071 -7.05375e-11 1.3115e-10 -6.036e-11 5e-05 1.46608e-10 
36 1 0.343231 0.0175802 0.00727671 0.00551232 0.0001916 0.000751534 3.87246e-12 -8.37713e-12 7.74239e-12 5e-05 1.46608e-10 
37 1 0.337315 0.017184 0.00747989 0.00577454 -0.000530227 0.000155987 -1.04964e-10 -6.45144e-11 2.79074e-11 5e-05 1.46608e-10 
38 1 0.337398 0.0175459 0.00732516 0.00533079 -0.00052091 0.000157475 -3.04052e-10 2.19182e-10 -9.26537e-11 5e-05 1.46608e-10 
39 1 0.343106 0.0170536 0.00753582 0.00587884 0.000148422 0.000831087 -1.46738e-12 1.59813e-12 -1.36357e-12 5e-05 1.46608e-10 
41 1 0.336912 0.0162295 0.00789016 0.00608398 -0.000632058 0.000196244 3.52274e-11 5.01669e-11 -3.28898e-11 5e-05 1.46608e-10 
42 1 0.337494 0.0175768 0.00731088 0.00533982 -0.000549572 6.94506e-05 -4.93508e-11 1.05646e-10 -1.17605e-10 5e-05 1.46608e-10 
44 1 0.337536 0.0177593 0.00722421 0.00519131 -0.000636841 -7.32175e-05 -2.24232e-10 1.48634e-10 -7.70928e-11 5e-05 1.46608e-10 
45 1 0.342999 0.0166152 0.00775102 0.0059826 0.000136943 0.000853242 -3.072e-12 5.00293e-12 -3.67945e-12 5e-05 1.46608e-10 
47 1 0.336933 0.0163193 0.00785174 0.00605362 -0.000629576 0.000195237 1.94298e-12 5.4333e-11 -7.79371e-12 5e-05 1.46608e-10 
48 1 0.337305 0.0179384 0.00715865 0.0053324 -0.00055159 5.0929e-05 -2.00187e-10 -1.71339e-10 7.65967e-11 5e-05 1.46608e-10 
49 1 0.343191 0.0174045 0.00736342 0.00566605 0.000173839 0.00078458 -8.02399e-14 -3.4814e-12 -3.72327e-12 5e-05 1.46608e-10 
50 1 0.337018 0.0166788 0.00769805 0.00592789 -0.000630753 0.000197211 -5.36683e-11 -7.70999e-11 3.28723e-11 5e-05 1.46608e-10 
51 1 0.337663 0.0183752 0.00693268 0.00547828 -0.000828865 -1.11094e-05 9.02887e-10 -3.04547e-10 -2.0198e-10 5e-05 1.46608e-10 
52 1 0.331766 0.0183922 0.0068837 0.00580062 0.000624486 -0.000137654 1.51336e-09 -1.21292e-09 2.33693e-10 5e-05 1.46608e-10 
53 1 0.343042 0.0167906 0.00766494 0.00594125 0.000141328 0.000844431 1.61549e-12 2.40909e-12 -2.60561e-12 5e-05 1.46608e-10 
54 1 0.337467 0.0185573 0.00701599 0.00531944 -0.00064637 0.000447675 7.135e-10 7.93119e-10 2.00963e-10 5e-05 1.46608e-10 
55 1 0.331378 0.0174619 0.0074497 0.00542386 6.47043e-05 -0.000606246 1.60978e-10 3.21535e-10 -3.28509e-10 5e-05 1.46608e-10 
56 1 0.337438 0.0185743 0.00692198 0.0054887 -0.000433561 0.000549387 4.99899e-11 -5.79509e-10 7.08937e-10 5e-05 1.46608e-10 
57 1 0.34302 0.0167029 0.00770798 0.00596176 0.0001392 0.000848733 -1.31267e-13 2.23649e-12 -1.84266e-13 5e-05 1.46608e-10 
59 1 0.378022 0.019866 0.005332 -5.01985e-15 -7.41196e-15 7.69802e-14 -7.79359e-24 4.65289e-24 0 5e-05 1.46608e-10 
60 1 0.337558 0.017851 0.00718064 0.00529162 -0.000611616 -8.52294e-05 -3.1881e-10 3.66985e-10 -1.47422e-10 5e-05 1.46608e-10 
61 1 0.336891 0.0161396 0.00792858 0.00611406 -0.000635081 0.000197356 -1.75454e-11 6.84484e-11 -4.75204e-11 5e-05 1.46608e-10 
62 1 0.337418 0.0176373 0.00728613 0.00533044 -0.000521009 0.000157784 -5.86384e-11 1.98832e-10 -8.26487e-11 5e-05 1.46608e-10 
63 1 0.337492 0.0184117 0.00692932 0.00537476 -0.000906818 -0.00103605 6.39819e-10 5.56521e-10 -2.76463e-10 5e-05 1.46608e-10 
64 1 0.343063 0.0168783 0.0076219 0.00592027 0.000143622 0.000840049 1.30983e-12 1.5679e-12 7.30548e-13 5e-05 1.46608e-10 
65 1 0.331323 0.0176033 0.00737252 0.00505021 0.000544012 -0.000858239 3.80502e-10 9.2851e-12 2.15464e-10 5e-05 1.46608e-10 
66 1 0.331648 0.0184223 0.00696715 0.00551771 0.00281893 0.000426122 0 0 -1.43822e-09 5e-05 1.46608e-10 
67 1 0.337568 0.0183497 0.00695092 0.00547291 -0.000790951 2.51893e-05 2.8912e-10 1.71331e-10 -1.30752e-10 5e-05 1.46608e-10 
68 1 0.337283 0.017426 0.00737747 0.0055184 -0.000490513 0.0001411 -4.67822e-11 1.55978e-10 -5.72392e-11 5e-05 1.46608e-10 
69 1 0.337653 0.0187112 0.00691969 0.00521652 -0.000644348 0.000614396 -7.93005e-10 1.21413e-10 -2.13659e-10 5e-05 1.46608e-10 
70 1 0.343149 0.017229 0.00744974 0.00583738 0.000152861 0.000822284 7.20449e-13 -1.69747e-12 1.11314e-12 5e-05 1.46608e-10 
71 1 0.331656 0.0183298 0.00691246 0.00492024 -0.000246807 -0.000491693 -4.82696e-10 5.76081e-10 -3.48674e-10 5e-05 1.46608e-10 
72 1 0.337477 0.0187677 0.00689798 0.00528225 -0.000265114 0.000609756 -7.5873e-10 6.84836e-11 -2.72335e-10 5e-05 1.46608e-10 
73 1 0.337474 0.0174852 0.00735003 0.00535993 -0.000500724 0.000148359 -3.98579e-10 2.42085e-10 -9.83524e-11 5e-05 1.46608e-10 
74 1 0.337039 0.0167686 0.00765962 0.0058988 -0.000630275 0.000197013 -3.7298e-11 -1.41511e-10 6.00772e-11 5e-05 1.46608e-10 
76 1 0.331232 0.0172707 0.0075768 0.006187 -0.00043703 -0.000392069 1.22792e-10 6.99276e-10 -3.58616e-10 5e-05 1.46608e-10 
77 1 0.337259 0.0175724 0.00740879 0.00539726 -0.000490052 0.000142078 8.55094e-11 4.17916e-10 -1.25111e-10 5e-05 1.46608e-10 
78 1 0.330765 0.0158327 0.00846774 0.00605252 0.00015209 -0.000710708 6.29191e-11 2.42695e-10 -1.45536e-10 5e-05 1.46608e-10 
79 1 0.331485 0.0187962 0.0069611 0.00594824 -0.000474908 0.000538747 -1.92527e-11 -9.19971e-10 -3.36779e-10 5e-05 1.46608e-10 
80 1 0.337241 0.017246 0.00745445 0.00575021 -0.000560787 0.000169147 6.19736e-11 5.54788e-11 -2.23452e-11 5e-05 1.46608e-10 
82 1 0.331607 0.0182499 0.00705938 0.00886091 0.00118796 -0.000654463 0 0 -1.43822e-09 5e-05 1.46608e-10 
83 1 0.331478 0.0174881 0.00742411 0.00497359 0.000432806 -0.000764159 -4.99114e-10 5.69571e-10 -2.83864e-10 5e-05 1.46608e-10 
84 1 0.343211 0.0174923 0.0073201 0.00568961 0.00017128 0.000789751 -6.01503e-12 -5.05114e-12 3.69776e-12 5e-05 1.46608e-10 
85 1 0.331602 0.0184831 0.00690217 0.00547871 0.000236195 -0.000296253 3.95559e-09 -1.18221e-09 -2.09879e-09 5e-05 1.46608e-10 
86 1 0.337517 0.0176706 0.00726626 0.00546302 -0.00038502 -0.000200486 -8.282e-11 8.26728e-11 1.71949e-11 5e-05 1.46608e-10 
87 1 0.337219 0.0171561 0.00749287 0.00577239 -0.000572387 0.000173874 -5.09282e-11 -1.10705e-12 5.1658e-12 5e-05 1.46608e-10 
88 1 0.337425 0.0179494 0.0072341 0.00534139 -0.000559436 -9.34089e-05 -1.25878e-11 4.30104e-10 -1.92383e-11 5e-05 1.46608e-10 
89 1 0.337554 0.0187045 0.0069086 0.00512197 -0.00058401 0.000599824 -8.41273e-10 1.16581e-10 -1.41174e-10 5e-05 1.46608e-10 
90 1 0.337587 0.018443 0.00692018 0.00541642 -0.00056393 0.000643062 1.23269e-09 6.12127e-10 4.4003e-10 5e-05 1.46608e-10 
91 1 0.33133 0.0172921 0.00755421 0.00713425 0.0005675 -0.00107373 -2.11174e-10 2.15596e-10 -1.71544e-10 5e-05 1.46608e-10 
92 1 0.337325 0.0178568 0.00728968 0.00540021 -0.000452111 0.000101096 -1.22407e-10 6.94825e-11 -8.55858e-11 5e-05 1.46608e-10 
93 1 0.33772 0.018457 0.00693496 0.00530727 -0.000709666 0.000644531 5.88427e-10 -1.73287e-10 1.64291e-10 5e-05 1.46608e-10 
94 1 0.337434 0.0181678 0.00709193 0.00536225 -0.000625724 -0.000152145 -2.30807e-10 -4.56879e-10 1.69307e-10 5e-05 1.46608e-10 
95 1 0.337438 0.0180448 0.00718674 0.00536627 -0.000572255 -9.54309e-05 2.52382e-10 -1.29254e-10 1.30683e-10 5e-05 1.46608e-10 
96 1 0.337228 0.0175777 0.00731372 0.00537296 -0.000497359 0.000147583 -9.44116e-12 1.30465e-10 -6.13766e-11 5e-05 1.46608e-10 
97 1 0.330947 0.0161882 0.00824064 0.00599764 0.000238081 -0.000755449 -2.16761e-11 2.23069e-10 -1.33688e-10 5e-05 1.46608e-10 
98 1 0.337731 0.0186499 0.00693042 0.00528237 -0.000654833 0.000622472 -6.38728e-10 2.70854e-10 -1.56618e-10 5e-05 1.46608e-10 
99 1 0.331316 0.0180003 0.0071445 0.00550111 0.000244647 -0.000405705 -3.28532e-10 1.87749e-10 -2.48567e-10 5e-05 1.46608e-10 
100 1 0.337493 0.0179968 0.00711814 0.00535028 -0.000611998 -8.87236e-05 1.34255e-10 6.0853e-12 -2.79778e-11 5e-05 1.46608e-10 
101 1 0.331335 0.0180842 0.00709331 0.00562183 0.000422253 -0.000115138 -1.09317e-10 -1.50015e-10 -4.26689e-10 5e-05 1.46608e-10 
102 1 0.0643568 0.0187248 0.00531097 3.99295e-15 1.05677e-14 8.29654e-14 1.16506e-21 -4.90182e-22 5.16988e-24 5e-05 1.46608e-10 
103 1 0.24257 0.0191927 0.00520306 -1.45275e-22 4.86658e-23 1.23839e-22 0 0 0 5e-05 1.46608e-10 
104 1 0.331562 0.0183022 0.00693817 0.00573312 0.000497332 -0.000772277 -1.40594e-10 -1.31567e-10 -1.62821e-09 5e-05 1.46608e-10 
105 1 0.330926 0.0161049 0.00829166 0.00601194 0.00022237 -0.000747954 -4.96558e-11 2.09822e-10 -1.17307e-10 5e-05 1.46608e-10 
106 1 0.331374 0.0181656 0.00714036 0.00615006 0.000139565 8.89058e-05 1.25689e-10 -8.39432e-10 6.22633e-10 5e-05 1.46608e-10 
107 1 0.330786 0.015916 0.00841672 0.00604107 0.000159579 -0.000714025 6.32505e-11 2.3679e-10 -1.51191e-10 5e-05 1.46608e-10 
108 1 0.337457 0.0186696 0.00689869 0.00555072 -0.000377387 0.000607449 -5.36647e-10 -1.22962e-09 -3.20463e-10 5e-05 1.46608e-10 
109 1 0.337574 0.0188024 0.00690803 0.00564557 -0.000721986 0.000656485 -8.23058e-10 1.24354e-10 -1.67549e-10 5e-05 1.46608e-10 
110 1 0.337397 0.0177371 0.00733525 0.00556715 -0.000297646 -0.00010958 -7.90442e-11 8.15174e-11 -5.92787e-11 5e-05 1.46608e-10 
111 1 0.337103 0.0170382 0.00754436 0.00579714 -0.000611122 0.000190409 -6.24337e-11 -1.24247e-10 5.08127e-11 5e-05 1.46608e-10 
112 1 0.331151 0.0166267 0.00796264 0.0060876 0.000126519 -0.000698909 2.36655e-10 -2.94765e-10 1.60073e-10 5e-05 1.46608e-10 
113 1 0.331247 0.0176626 0.00734577 0.004766 0.00024794 -0.000633157 -7.30431e-10 1.37549e-10 6.99116e-11 5e-05 1.46608e-10 
114 1 0.331281 0.017831 0.00724336 0.0048568 0.000170403 -0.000684951 -5.32847e-10 7.82686e-10 4.9154e-10 5e-05 1.46608e-10 
115 1 0.337378 0.0174554 0.00736387 0.00539969 -0.000487993 0.000142069 -8.46588e-11 1.62726e-10 -6.5651e-11 5e-05 1.46608e-10 
116 1 0.337399 0.0179659 0.00713882 0.00532679 -0.000621692 -9.05252e-05 -3.28373e-10 6.57917e-11 1.21833e-10 5e-05 1.46608e-10 
117 1 0.337459 0.0178187 0.00720229 0.0052515 -0.000596488 -8.25583e-05 9.15378e-11 5.54681e-11 -3.57363e-11 5e-05 1.46608e-10 
118 1 0.331417 0.0176293 0.00734756 0.00459346 0.000319934 -0.000659987 -5.05898e-10 5.86234e-10 -2.78495e-10 5e-05 1.46608e-10 
119 1 0.337497 0.0188656 0.00690034 0.00612834 -0.000310324 0.000140275 0 0 -1.43822e-09 5e-05 1.46608e-10 
120 1 0.337294 0.0170941 0.00751832 0.00580428 -0.00054376 0.000161379 -8.05972e-11 -3.21145e-11 1.20161e-11 5e-05 1.46608e-10 
121 1 0.33738 0.018293 0.00698993 0.00544323 -0.000622647 -9.37755e-05 5.57533e-10 3.84692e-10 -1.06532e-10 5e-05 1.46608e-10 
122 1 0.337208 0.0174876 0.00735221 0.00546982 -0.000523103 0.000156428 -2.88796e-11 1.70188e-10 -7.09222e-11 5e-05 1.46608e-10 
123 1 0.331671 0.0184189 0.00686978 0.00572923 0.000298396 3.67025e-05 3.31949e-09 1.36529e-09 -4.82208e-09 5e-05 1.46608e-10 
124 1 0.337454 0.0173944 0.00738886 0.00545438 -0.000439173 0.000121102 -2.3855e-10 3.03171e-11 -9.65157e-12 5e-05 1.46608e-10 
125 1 0.337323 0.0176069 0.00730018 0.00532467 -0.000518401 0.000156922 -1.37292e-10 2.18258e-10 -7.78805e-11 5e-05 1.46608e-10 
127 1 0.330969 0.0162714 0.00818962 0.00599655 0.000274488 -0.000776782 2.77992e-11 2.04221e-10 -1.26871e-10 5e-05 1.46608e-10 
128 1 0.337272 0.0170043 0.00755675 0.00583911 -0.000548171 0.000162832 -8.68216e-11 1.17108e-11 -3.28189e-12 5e-05 1.46608e-10 
129 1 0.337551 0.0182606 0.00699301 0.00542425 -0.000836566 1.96483e-05 -1.56391e-10 3.51513e-10 -7.34977e-11 5e-05 1.46608e-10 
130 1 0.331375 0.0178562 0.00721889 0.00480201 0.000185621 -0.000603359 -4.80342e-10 7.98804e-10 -2.17839e-10 5e-05 1.46608e-10 
131 1 0.331393 0.0179403 0.00716777 0.00545457 7.01526e-05 -0.000595565 -5.77841e-10 6.85065e-10 -3.0195e-10 5e-05 1.46608e-10 
132 1 0.337357 0.0173644 0.00740277 0.00554317 -0.000477556 0.000136153 -1.54624e-10 4.47772e-11 -1.59749e-11 5e-05 1.46608e-10 
133 1 0.337324 0.0180271 0.00711669 0.00535164 -0.00064633 -0.000120032 -1.15981e-10 1.50032e-10 4.21837e-10 5e-05 1.46608e-10 
134 1 0.33738 0.0178771 0.00718086 0.00529401 -0.000614837 -8.382e-05 3.57119e-10 1.50288e-10 -2.30405e-11 5e-05 1.46608e-10 
135 1 0.3377 0.0185548 0.00692974 0.00533663 -0.000679517 0.000635048 1.35092e-10 2.50786e-10 -3.5793e-11 5e-05 1.46608e-10 
136 1 0.331354 0.0173759 0.00750263 0.00656124 0.000355328 -0.000880963 -3.19349e-11 3.86577e-11 1.5871e-11 5e-05 1.46608e-10 
137 1 0.337346 0.0180113 0.00721273 0.00551357 -0.000471437 -0.00012391 -2.99684e-10 -3.59318e-10 4.67062e-10 5e-05 1.46608e-10 
138 1 0.337267 0.0177582 0.00723664 0.00533783 -0.000493758 0.000148309 -1.47751e-10 6.18665e-11 2.83223e-11 5e-05 1.46608e-10 
140 1 0.337166 0.0173078 0.00742908 0.00572755 -0.000581516 0.000177974 6.28565e-12 6.89039e-11 -3.27734e-11 5e-05 1.46608e-10 
141 1 0.331194 0.0167932 0.0078606 0.0059738 0.000196397 -0.000727691 -5.40488e-11 7.53534e-11 -2.34032e-11 5e-05 1.46608e-10 
142 1 0.331585 0.0179932 0.00711699 0.00574084 0.000254158 -0.000738983 -4.10315e-10 3.73394e-10 -2.98589e-10 5e-05 1.46608e-10 
143 1 0.330808 0.0159992 0.0083657 0.00603107 0.000177036 -0.000723053 6.22644e-11 2.34543e-10 -1.40862e-10 5e-05 1.46608e-10 
144 1 0.331548 0.0178247 0.00721961 0.00568332 0.000522796 -0.00088993 -4.93541e-10 5.60671e-10 -2.93643e-10 5e-05 1.46608e-10 
146 1 0.330851 0.0161657 0.00826365 0.00601673 0.000227032 -0.000750653 7.81695e-11 3.02052e-10 -1.82757e-10 5e-05 1.46608e-10 
147 1 0.331358 0.0177741 0.00727332 0.00459686 -0.000189625 -0.00127292 -7.95196e-11 -1.23841e-10 -1.14535e-09 5e-05 1.46608e-10 
148 1 0.331216 0.0168765 0.00780957 0.00594006 0.000204536 -0.000731135 1.44986e-10 -1.35057e-10 1.04987e-10 5e-05 1.46608e-10 
149 1 0.337156 0.0168865 0.00760815 0.00585927 -0.000600779 0.000185091 -3.14871e-11 -1.90135e-10 8.58459e-11 5e-05 1.46608e-10 
150 1 0.331444 0.0186057 0.0068943 0.00583615 0.000883145 0.000955819 -5.1465e-10 -3.29182e-10 -6.92474e-10 5e-05 1.46608e-10 
151 1 0.331371 0.0182483 0.00698517 0.00574833 0.000679133 0.000319607 -9.36158e-10 -3.90442e-10 -1.62254e-10 5e-05 1.46608e-10 
153 1 0.331237 0.0169597 0.00775855 0.00572631 -0.000510857 -0.000286523 -4.50445e-10 1.06866e-09 -5.34888e-10 5e-05 1.46608e-10 
154 1 0.33083 0.0160825 0.00831467 0.00602574 0.000209359 -0.000741257 6.70901e-11 2.97498e-10 -1.91542e-10 5e-05 1.46608e-10 
155 1 0.330873 0.016249 0.00821263 0.00600812 0.000249447 -0.000763427 6.57726e-11 2.70425e-10 -1.5287e-10 5e-05 1.46608e-10 
156 1 0.331173 0.0167099 0.00791162 0.0059507 0.000139508 -0.000692507 8.86371e-11 -8.13235e-11 1.21756e-11 5e-05 1.46608e-10 
157 1 0.0219312 0.0187687 0.00551176 -3.83671e-14 8.16561e-14 2.95886e-13 8.32221e-22 4.48952e-22 -1.73708e-23 5e-05 1.46608e-10 
158 1 0.331282 0.0171259 0.00765655 0.00576782 -0.000132556 -0.0005162 -1.03972e-10 -1.37451e-09 4.75822e-10 5e-05 1.46608e-10 
159 1 0.337262 0.0173359 0.00741602 0.00571751 -0.00056293 0.000170512 -5.77861e-11 8.70509e-11 -3.51684e-11 5e-05 1.46608e-10 
160 1 0.331353 0.0181683 0.00704251 0.00568924 0.000601435 0.000196838 1.44636e-11 1.56296e-10 5.41436e-10 5e-05 1.46608e-10 
162 1 0.331548 0.0184389 0.00697394 0.00484728 -0.000240861 -0.00166001 0 0 -1.43822e-09 5e-05 1.46608e-10 
164 1 0.330938 0.0164987 0.00805956 0.00598736 0.000293032 -0.000783912 3.40311e-09 -3.55841e-09 2.1743e-09 5e-05 1.46608e-10 
165 1 0.331485 0.0183608 0.00691352 0.00555323 0.000316273 -9.02396e-05 6.38928e-09 -2.75623e-09 2.19591e-09 5e-05 1.46608e-10 
166 1 0.337286 0.0178484 0.00719801 0.0053195 -0.000496609 0.000145562 -8.1619e-11 -1.10598e-10 1.17455e-11 5e-05 1.46608e-10 
167 1 0.331427 0.0184889 0.00695908 0.00579745 0.000318253 0.000843472 -5.04271e-10 4.33705e-10 1.62685e-10 5e-05 1.46608e-10 
168 1 0.33154 0.0186423 0.0069124 0.00632532 -0.000136007 -0.00038582 -5.73223e-11 -5.91894e-11 -1.34882e-09 5e-05 1.46608e-10 
169 1 0.331408 0.0184177 0.00688655 0.00579321 0.000821594 0.000645184 4.10349e-09 -1.18218e-09 -1.49719e-09 5e-05 1.46608e-10 
170 1 0.331522 0.0185441 0.00690508 0.0053734 0.000190323 -0.000891351 -5.40389e-09 3.33578e-09 -6.6605e-10 5e-05 1.46608e-10 
171 1 0.337512 0.0185079 0.00690967 0.00540152 -0.000554885 0.000626774 1.69821e-10 -2.45972e-10 -1.44248e-10 5e-05 1.46608e-10 
172 1 0.331226 0.0175792 0.00739686 0.0054464 0.000107257 -0.000617735 1.30737e-10 4.81021e-10 1.67653e-10 5e-05 1.46608e-10 
173 1 0.337614 0.0186041 0.00691845 0.00535363 -0.000599958 0.000608506 -6.39933e-10 3.955e-10 1.04692e-10 5e-05 1.46608e-10 
174 1 0.330982 0.016665 0.00795756 0.00582908 -0.000106222 -0.000539337 -1.02088e-09 1.64162e-10 -3.83761e-11 5e-05 1.46608e-10 
176 1 0.331435 0.0179494 0.00725907 0.00571272 0.000396259 -0.000740587 1.52885e-10 5.49951e-10 -1.10536e-10 5e-05 1.46608e-10 
177 1 0.33099 0.0163547 0.00813859 0.00597319 0.000298261 -0.000788078 8.58044e-11 2.07086e-10 -1.28567e-10 5e-05 1.46608e-10 
178 1 0.331351 0.0180828 0.00719188 0.00574757 6.1092e-05 -0.00017314 -4.49827e-10 -5.42148e-10 -1.2831e-10 5e-05 1.46608e-10 
179 1 0.331491 0.0183667 0.00701318 0.00585535 -0.000948558 -0.000703576 0 0 -1.43822e-09 5e-05 1.46608e-10 
182 1 0.337399 0.0183836 0.00695199 0.00551112 -0.000633184 -0.000170679 2.69377e-10 1.81291e-10 -1.25121e-09 5e-05 1.46608e-10 
183 1 0.331471 0.0181916 0.00711422 0.00600192 -0.000234656 -0.00145521 0 0 -1.43822e-09 5e-05 1.46608e-10 
184 1 0.33762 0.0185275 0.00698245 0.0052656 -0.000679889 0.000607934 5.4232e-11 1.16936e-10 -2.31753e-10 5e-05 1.46608e-10 
185 1 0.331566 0.0179087 0.0071685 0.00586228 0.000517902 -0.000908121 -4.82588e-10 5.49385e-10 -3.20473e-10 5e-05 1.46608e-10 
186 1 0.331686 0.018517 0.00685774 0.00647077 -6.84626e-05 -0.000233884 -2.53792e-09 1.26037e-09 2.71007e-09 5e-05 1.46608e-10 
187 1 0.337456 0.0182318 0.00701281 0.00533489 -0.000747119 -2.25909e-05 5.18087e-11 -1.77699e-10 3.07753e-10 5e-05 1.46608e-10 
188 1 0.337303 0.0175165 0.00733878 0.00538583 -0.000493009 0.000143985 -3.31338e-11 1.66906e-10 -6.15331e-11 5e-05 1.46608e-10 
189 1 0.337362 0.0182048 0.00703327 0.00538999 -0.000665538 -0.000165296 1.51678e-10 5.09582e-10 3.33471e-10 5e-05 1.46608e-10 
190 1 0.325367 0.0182368 0.00700316 0.00558846 4.71876e-05 0.000280053 -1.02722e-11 -2.63874e-11 3.93024e-12 5e-05 1.46608e-10 
191 1 0.337081 0.0169484 0.00758277 0.0058361 -0.000623233 0.00019521 -4.2089e-11 -1.62617e-10 6.54209e-11 5e-05 1.46608e-10 
192 1 0.331264 0.0177467 0.00729449 0.0045595 0.000255621 -0.000634703 -8.84988e-10 3.94427e-10 2.27403e-10 5e-05 1.46608e-10 
193 1 0.337524 0.0186224 0.006957 0.00534715 -0.000673072 0.000625562 -4.48257e-10 6.07202e-10 3.07959e-10 5e-05 1.46608e-10 
194 1 0.331627 0.0183336 0.00700816 0.0072732 0.00104983 -0.00232711 0 0 -1.43822e-09 5e-05 1.46608e-10 
195 1 0.331448 0.0181936 0.00701691 0.0057465 9.6668e-05 -0.0013865 -1.18151e-10 -3.89883e-10 -1.62916e-10 5e-05 1.46608e-10 
196 1 0.331507 0.01805 0.00709176 0.00566072 0.000134867 -0.000668593 -4.05304e-10 7.35385e-10 -5.07459e-10 5e-05 1.46608e-10 
197 1 0.325056 0.0167931 0.00754425 0.00569457 -0.000227939 -0.000228317 -1.12326e-10 1.57801e-10 -1.10436e-10 5e-05 1.46608e-10 
198 1 0.331512 0.0176565 0.00732186 0.0051008 0.000527562 -0.000833095 -4.98676e-10 5.61311e-10 -2.75119e-10 5e-05 1.46608e-10 
199 1 0.331491 0.0182768 0.00706371 0.00673357 -0.000259281 -0.000481475 -2.27078e-10 6.56977e-11 -8.44522e-10 5e-05 1.46608e-10 
200 1 0.330904 0.0160217 0.00834268 0.00601995 0.000205691 -0.000738814 -1.95171e-11 2.08816e-10 -1.1519e-10 5e-05 1.46608e-10 
201 1 0.331466 0.0182784 0.006967 0.0059361 0.000389613 -0.000309924 3.83748e-10 1.10382e-09 -9.67317e-10 5e-05 1.46608e-10 
202 1 0.331305 0.0172088 0.00760556 0.00624701 -0.000533151 -0.000330501 -3.43603e-10 1.80336e-10 -3.11249e-10 5e-05 1.46608e-10 
203 1 0.337361 0.0177879 0.00722282 0.00530725 -0.000489238 0.000137221 3.59664e-11 1.59959e-10 -7.90525e-11 5e-05 1.46608e-10 
204 1 0.331621 0.0181614 0.00701473 0.00565279 -4.21223e-05 -0.000944977 3.35711e-10 -3.86185e-10 -1.58269e-09 5e-05 1.46608e-10 
205 1 0.331142 0.0169374 0.00778145 0.0058663 0.000107864 -0.000663254 7.06175e-11 -4.21839e-10 1.29196e-10 5e-05 1.46608e-10 
206 1 0.331186 0.0171048 0.00767876 0.00596923 -0.00013144 -0.000526335 -6.07407e-10 6.76279e-10 -2.8332e-10 5e-05 1.46608e-10 
207 1 0.331056 0.0166042 0.00798557 0.00575024 -0.000128676 -0.000515515 2.26202e-09 2.07021e-09 -1.44868e-09 5e-05 1.46608e-10 
208 1 0.3314 0.0175452 0.00739868 0.00477236 0.000253943 -0.000637909 -4.95169e-10 5.8077e-10 -3.10534e-10 5e-05 1.46608e-10 
209 1 0.331303 0.0175246 0.00743098 0.00560884 7.75325e-05 -0.00109842 3.96888e-10 3.83318e-10 -1.89887e-10 5e-05 1.46608e-10 
210 1 0.337198 0.0170663 0.0075313 0.00579469 -0.00058583 0.000179626 -1.12887e-10 -4.15506e-11 2.08513e-11 5e-05 1.46608e-10 
211 1 0.337124 0.0171281 0.00750593 0.00577903 -0.000603114 0.000187785 -4.80451e-11 -7.93046e-11 4.82646e-11 5e-05 1.46608e-10 
212 1 0.331578 0.0183871 0.00688682 0.00552403 0.00076491 -0.000495081 1.18345e-09 -4.34882e-09 1.26335e-09 5e-05 1.46608e-10 
213 1 0.337342 0.0181159 0.00707465 0.00537342 -0.00069682 -0.00018191 1.66622e-10 3.91433e-10 3.97716e-10 5e-05 1.46608e-10 
214 1 0.33742 0.0178265 0.00729407 0.00542642 -0.000391581 -2.6315e-05 -1.00102e-10 5.65131e-11 7.06831e-11 5e-05 1.46608e-10 
215 1 0.325269 0.0177547 0.0070921 0.005554 4.28927e-05 0.000279182 3.07659e-11 1.47844e-11 -1.07659e-11 5e-05 1.46608e-10 
216 1 0.331034 0.0165212 0.00803655 0.00566049 2.47534e-05 -0.000594424 8.48401e-10 -1.14516e-09 5.81596e-10 5e-05 1.46608e-10 
217 1 0.33742 0.0184813 0.00695419 0.00546335 -0.000589411 0.000135501 6.08356e-10 -8.3268e-10 -1.33127e-09 5e-05 1.46608e-10 
218 1 0.331299 0.0179198 0.00720121 0.0052725 0.000125693 -0.000615974 -1.74199e-10 5.31637e-10 1.28228e-10 5e-05 1.46608e-10 
219 1 0.33741 0.0172119 0.00746691 0.00574689 -0.000548784 0.000164213 -1.30835e-10 9.1763e-11 -3.76889e-11 5e-05 1.46608e-10 
220 1 0.331411 0.0180242 0.00711666 0.00538061 0.000339782 -0.00077511 -3.17506e-10 3.68598e-10 -7.11106e-10 5e-05 1.46608e-10 
222 1 0.337574 0.017942 0.0071377 0.00535378 -0.000603253 -9.17399e-05 1.04003e-10 2.46495e-12 -1.3687e-11 5e-05 1.46608e-10 
224 1 0.331111 0.0171646 0.00765146 0.006028 -7.17102e-05 -0.000709019 -4.62355e-10 2.41799e-10 3.73955e-10 5e-05 1.46608e-10 
225 1 0.337149 0.0172272 0.00756698 0.00577497 -0.000567534 0.000178728 8.90368e-11 1.19358e-10 -1.70253e-11 5e-05 1.46608e-10 
226 1 0.33146 0.0181043 0.00716176 0.0056111 6.63172e-05 -0.00067041 -4.19373e-10 3.68776e-10 -7.23983e-10 5e-05 1.46608e-10 
227 1 0.325289 0.0178511 0.00707433 0.00557182 4.19737e-05 0.000280411 -2.1716e-11 2.43215e-11 -2.8577e-12 5e-05 1.46608e-10 
228 1 0.32523 0.0175617 0.00712777 0.00555883 3.47965e-05 0.000279237 1.19568e-10 -6.08069e-11 1.60365e-11 5e-05 1.46608e-10 
229 1 0.331614 0.0185817 0.00688371 0.00656565 0.000181342 -0.000656591 -8.58644e-11 1.18298e-10 -1.40252e-09 5e-05 1.46608e-10 
230 1 0.331192 0.0173342 0.00764293 0.00698877 0.000844516 -0.000823393 5.93276e-10 -2.15216e-10 1.93829e-10 5e-05 1.46608e-10 
232 1 0.331501 0.0184457 0.00685978 0.00584463 0.000796292 -0.000293153 -7.66487e-10 6.87504e-10 -1.69184e-10 5e-05 1.46608e-10 
233 1 0.331392 0.018355 0.00702606 0.00593187 0.000657519 0.000336495 -5.68575e-10 1.71442e-10 -4.93436e-10 5e-05 1.46608e-10 
234 1 0.337519 0.0189632 0.00689689 0.00597422 -0.000243809 0.000667601 -9.42241e-10 8.01984e-11 9.3933e-12 5e-05 1.46608e-10 
235 1 0.331067 0.016999 0.00775485 0.00580735 3.61789e-05 -0.000662814 -4.86442e-10 -1.29911e-09 1.41377e-10 5e-05 1.46608e-10 
236 1 0.331254 0.0176823 0.00744352 0.00516571 0.000233617 -0.000683894 -4.70948e-10 8.33175e-11 2.88923e-10 5e-05 1.46608e-10 
237 1 0.331181 0.0174131 0.00749866 0.00640613 -9.19286e-05 -0.000566936 -2.17631e-11 2.56154e-10 1.62798e-11 5e-05 1.46608e-10 
239 1 0.324952 0.0163897 0.00782056 0.00613747 -0.000305032 -0.000205894 -4.12964e-11 -1.8837e-10 1.32546e-10 5e-05 1.46608e-10 
240 1 0.325016 0.0166313 0.00765491 0.00579816 -0.000244978 -0.000222793 3.15697e-10 7.62808e-11 -6.73382e-11 5e-05 1.46608e-10 
241 1 0.32493 0.0163092 0.00787576 0.0061497 -0.000303333 -0.000208649 -4.24804e-11 -1.59808e-10 1.1073e-10 5e-05 1.46608e-10 
242 1 0.331495 0.0175723 0.00737299 0.00480895 0.000529964 -0.000804723 -4.95976e-10 5.55005e-10 -2.7707e-10 5e-05 1.46608e-10 
243 1 0.331488 0.0179657 0.00714307 0.00570496 0.000440383 -0.000845657 -5.15451e-10 5.92924e-10 -2.51647e-10 5e-05 1.46608e-10 
244 1 0.324973 0.0164702 0.00776536 0.00613249 -0.000313707 -0.000199996 2.54375e-11 -9.09303e-11 4.84102e-11 5e-05 1.46608e-10 
246 1 0.325152 0.0171982 0.0072674 0.00561833 -0.000220343 -0.000226992 -1.43641e-10 -4.62458e-11 6.68402e-11 5e-05 1.46608e-10 
247 1 0.331003 0.0167484 0.00790651 0.00587485 -6.6901e-05 -0.000568136 -1.3231e-10 -6.26766e-10 3.51837e-10 5e-05 1.46608e-10 
248 1 0.331348 0.0179966 0.00724243 0.00537391 -7.96033e-05 -0.000363914 -3.25833e-10 4.63241e-11 -5.25861e-10 5e-05 1.46608e-10 
249 1 0.325095 0.016955 0.00743356 0.00577612 -0.000263544 -0.000210442 2.56721e-11 -6.0997e-11 3.78463e-11 5e-05 1.46608e-10 
250 1 0.331099 0.0167709 0.0078835 0.00588439 6.05269e-05 -0.000641672 -1.59e-10 -1.91949e-10 1.38259e-10 5e-05 1.46608e-10 
251 1 0.337342 0.0176975 0.00726143 0.00534891 -0.000495079 0.000149035 -1.5294e-10 1.32091e-10 -6.71018e-11 5e-05 1.46608e-10 
252 1 0.325172 0.0172837 0.0072193 0.00548499 -0.00017619 -0.000212031 -1.04283e-11 -8.4253e-11 4.01949e-11 5e-05 1.46608e-10 
253 1 0.325348 0.0181404 0.00702095 0.00558823 4.57657e-05 0.000280275 -2.53546e-12 -4.1571e-11 7.78024e-12 5e-05 1.46608e-10 
254 1 0.325115 0.0170359 0.00737822 0.00578854 -0.00026704 -0.000208699 1.2198e-10 -4.27143e-11 2.30762e-11 5e-05 1.46608e-10 
255 1 0.33141 0.0178588 0.00731253 0.00521416 0.000425231 -0.000757693 -1.48377e-10 1.81677e-10 -3.05708e-10 5e-05 1.46608e-10 
256 1 0.33164 0.0182452 0.00696361 0.00575757 0.000341225 -0.000757682 -3.75301e-10 4.39436e-10 -5.82747e-10 5e-05 1.46608e-10 
257 1 0.331259 0.0170429 0.00770754 0.00582353 -0.000368759 -0.000378334 -2.85145e-10 5.69072e-11 -6.30139e-10 5e-05 1.46608e-10 
258 1 0.331306 0.0179092 0.00730043 0.00531419 -3.24321e-05 -0.000606886 3.0378e-10 5.21382e-10 1.78424e-10 5e-05 1.46608e-10 
259 1 0.325191 0.0173736 0.00718021 0.00537702 -3.96472e-05 3.1765e-05 2.76009e-11 -1.08369e-10 7.3794e-13 5e-05 1.46608e-10 