ITEM: TIMESTEP
79400000
ITEM: NUMBER OF ATOMS
267
ITEM: BOX BOUNDS ff ff ff
-0.02 0.43
-0.02 0.06
-0.02 0.07
ITEM: ATOMS id type x y z vx vy vz fx fy fz radius mass 
1 1 0.383991 0.018743 5.17586e-05 7.86792e-19 1.55788e-21 -5.98258e-16 -1.03398e-25 1.29247e-26 0 5e-05 1.46608e-10 
2 1 0.384819 0.0170553 5.28427e-05 -9.20527e-19 -6.56393e-22 7.02844e-16 0 -5.56136e-27 0 5e-05 1.46608e-10 
4 1 0.384087 0.0172099 5.18841e-05 -5.44348e-20 9.72298e-21 2.88918e-17 -2.58494e-26 0 0 5e-05 1.46608e-10 
6 1 0.38485 0.0177728 5.2884e-05 4.8654e-19 -9.79494e-22 -3.71584e-16 0 0 0 5e-05 1.46608e-10 
7 1 0.384289 0.0192285 5.21489e-05 2.81059e-18 1.19361e-21 -2.14593e-15 0 -9.86164e-27 0 5e-05 1.46608e-10 
8 1 0.384427 0.0170974 5.23295e-05 2.24031e-18 1.22751e-21 -1.71051e-15 0 -3.86921e-27 0 5e-05 1.46608e-10 
9 1 0.383731 0.0178959 5.14179e-05 2.24035e-18 3.13306e-22 -1.71052e-15 0 -1.3369e-26 0 5e-05 1.46608e-10 
10 1 0.384909 0.0174916 5.29614e-05 1.79759e-18 -1.96311e-21 -1.37249e-15 0 1.4854e-26 0 5e-05 1.46608e-10 
11 1 0.383705 0.0185838 5.13839e-05 2.81056e-18 -7.16123e-22 -2.14593e-15 0 -6.06878e-26 0 5e-05 1.46608e-10 
12 1 0.384274 0.0169453 5.213e-05 2.24032e-18 9.58214e-22 -1.71052e-15 -4.03897e-28 -7.03389e-26 0 5e-05 1.46608e-10 
13 1 0.384609 0.0178943 5.25685e-05 -1.66761e-12 1.75172e-12 -1.24708e-12 -4.45532e-18 -3.31751e-18 -1.00353e-17 5e-05 1.46608e-10 
14 1 0.383937 0.0189513 8.69758e-05 5.35495e-19 -8.70113e-22 -4.06398e-16 0 0 2.06795e-25 5e-05 1.46608e-10 
16 1 0.384166 0.0169334 5.1988e-05 2.24031e-18 1.59383e-22 -1.71052e-15 0 -1.47187e-27 0 5e-05 1.46608e-10 
17 1 0.384566 0.0170745 5.25117e-05 2.24032e-18 2.35156e-22 -1.71052e-15 0 4.72337e-28 0 5e-05 1.46608e-10 
19 1 0.384704 0.0183371 5.2693e-05 1.79761e-18 6.00926e-20 -1.37251e-15 0 6.54847e-26 0 5e-05 1.46608e-10 
21 1 0.384375 0.0179486 5.22621e-05 1.70207e-12 2.82042e-13 -1.85657e-13 1.66159e-17 -5.09064e-18 -1.57158e-18 5e-05 1.46608e-10 
22 1 0.385006 0.0203197 5.3088e-05 8.71374e-19 1.70699e-20 -6.65298e-16 4.03897e-28 1.08259e-25 0 5e-05 1.46608e-10 
23 1 0.38429 0.0178938 5.21501e-05 4.04975e-13 2.71037e-13 -2.18777e-13 3.76477e-18 2.2395e-19 2.7719e-19 5e-05 1.46608e-10 
24 1 0.384317 0.0180308 5.21862e-05 -1.36378e-14 6.12331e-14 -4.17298e-14 1.00506e-19 -2.49536e-19 2.65484e-19 5e-05 1.46608e-10 
25 1 0.384369 0.0166304 5.22533e-05 2.24036e-18 -1.31416e-21 -1.71051e-15 0 4.23091e-26 0 5e-05 1.46608e-10 
26 1 0.383765 0.0178016 5.14632e-05 2.24035e-18 1.62163e-22 -1.71051e-15 0 -8.34572e-28 0 5e-05 1.46608e-10 
27 1 0.384682 0.0173846 0.000130728 -9.45673e-20 1.29403e-21 9.01915e-17 5.16988e-26 -1.29247e-26 0 5e-05 1.46608e-10 
28 1 0.38392 0.0176635 5.16661e-05 2.24032e-18 -7.03199e-22 -1.71052e-15 0 1.18864e-26 0 5e-05 1.46608e-10 
29 1 0.384334 0.0168628 5.2208e-05 2.24034e-18 -3.95721e-21 -1.71052e-15 0 6.85393e-26 0 5e-05 1.46608e-10 
30 1 0.38458 0.0173478 5.25303e-05 -1.14974e-19 -9.26328e-23 9.01992e-17 5.81611e-26 -1.29247e-26 0 5e-05 1.46608e-10 
31 1 0.384267 0.018175 5.21197e-05 1.63123e-20 -8.89218e-22 -7.47559e-18 0 0 0 5e-05 1.46608e-10 
32 1 0.384809 0.0175939 5.28295e-05 1.06323e-19 6.01307e-22 -7.99273e-17 0 0 0 5e-05 1.46608e-10 
33 1 0.384554 0.0172495 5.24957e-05 2.24033e-18 -9.57831e-23 -1.71052e-15 0 -1.86997e-27 0 5e-05 1.46608e-10 
34 1 0.38474 0.0177115 5.27396e-05 1.0341e-19 -2.90168e-21 -7.99197e-17 0 0 0 5e-05 1.46608e-10 
35 1 0.383862 0.0177748 5.15892e-05 -2.25891e-19 6.09742e-21 1.69475e-16 0 5.16988e-26 0 5e-05 1.46608e-10 
36 1 0.383928 0.0185154 5.16766e-05 -3.50182e-19 -1.27565e-21 2.67381e-16 0 -4.53026e-27 0 5e-05 1.46608e-10 
37 1 0.384806 0.0179346 5.28267e-05 1.7976e-18 3.13601e-21 -1.37251e-15 0 -7.96134e-26 0 5e-05 1.46608e-10 
38 1 0.384295 0.0179641 0.000123125 -2.46985e-13 1.02137e-15 -1.90973e-13 2.70552e-19 3.34829e-19 -1.0383e-19 5e-05 1.46608e-10 
39 1 0.383664 0.0197976 5.13305e-05 -3.50205e-19 -2.81888e-22 2.67381e-16 0 1.39079e-27 0 5e-05 1.46608e-10 
42 1 0.38332 0.0192284 0.00522714 1.28259e-16 6.59797e-20 3.78515e-14 0 2.36099e-25 0 5e-05 1.46608e-10 
44 1 0.384012 0.018459 5.17866e-05 1.79764e-18 6.41946e-24 -1.37251e-15 0 -3.72458e-28 0 5e-05 1.46608e-10 
45 1 0.384188 0.017154 5.20161e-05 -3.55049e-20 1.08281e-21 2.89086e-17 0 -3.23117e-27 0 5e-05 1.46608e-10 
47 1 0.393378 0.0176228 0.00788992 -0.000491336 0.0191363 -0.00692627 1.16433e-12 -1.44196e-10 -6.84756e-12 5e-05 1.46608e-10 
48 1 0.383611 0.0181742 5.1261e-05 -8.00765e-19 -3.29019e-22 6.08849e-16 0 0 0 5e-05 1.46608e-10 
49 1 0.384194 0.0185569 5.20241e-05 1.79763e-18 2.65113e-21 -1.37251e-15 0 1.02443e-25 0 5e-05 1.46608e-10 
50 1 0.384353 0.0181246 5.22331e-05 1.79757e-18 8.82619e-22 -1.37249e-15 0 -5.83336e-27 0 5e-05 1.46608e-10 
51 1 0.383985 0.019032 5.17502e-05 5.35607e-19 -1.5182e-22 -4.06396e-16 0 0 0 5e-05 1.46608e-10 
52 1 0.38427 0.0217777 5.21238e-05 2.00506e-18 5.12518e-22 -1.5309e-15 0 -9.94036e-26 0 5e-05 1.46608e-10 
53 1 0.3849 0.0167228 5.29491e-05 2.24034e-18 2.74563e-21 -1.71052e-15 0 2.79544e-25 0 5e-05 1.46608e-10 
54 1 0.384094 0.0196551 5.18938e-05 2.81058e-18 4.80593e-22 -2.14593e-15 0 5.34333e-27 0 5e-05 1.46608e-10 
55 1 0.383596 0.0188939 5.12421e-05 2.81057e-18 5.35884e-22 -2.14593e-15 0 -8.97038e-27 0 5e-05 1.46608e-10 
56 1 0.384074 0.0171039 5.18678e-05 -3.85878e-20 4.56012e-21 2.89464e-17 0 0 0 5e-05 1.46608e-10 
57 1 0.38361 0.0192266 5.12599e-05 -3.50197e-19 2.43752e-21 2.67381e-16 0 5.19964e-26 0 5e-05 1.46608e-10 
59 1 0.378022 0.019866 0.005332 -5.01972e-15 -7.4121e-15 7.69802e-14 2.85636e-24 -4.03251e-24 -2.06795e-25 5e-05 1.46608e-10 
60 1 0.384997 0.0170277 5.3077e-05 2.24033e-18 -1.1945e-21 -1.71052e-15 0 7.51118e-26 0 5e-05 1.46608e-10 
62 1 0.384469 0.0166233 5.23854e-05 2.24036e-18 1.60928e-21 -1.71052e-15 0 1.43561e-26 0 5e-05 1.46608e-10 
63 1 0.385119 0.0166834 5.32362e-05 2.24037e-18 -1.10699e-20 -1.71052e-15 0 7.15334e-26 0 5e-05 1.46608e-10 
64 1 0.383572 0.0182666 5.12106e-05 1.79758e-18 -2.64149e-22 -1.37249e-15 0 5.98587e-29 0 5e-05 1.46608e-10 
65 1 0.38415 0.0174668 5.19668e-05 2.24036e-18 -1.51107e-20 -1.71052e-15 0 -2.01406e-28 0 5e-05 1.46608e-10 
66 1 0.384314 0.0196963 5.21813e-05 -3.50194e-19 2.69465e-20 2.67381e-16 0 -5.85067e-25 0 5e-05 1.46608e-10 
67 1 0.38401 0.0186182 5.17838e-05 -3.50222e-19 -1.43616e-21 2.67382e-16 0 -2.42719e-26 0 5e-05 1.46608e-10 
68 1 0.384443 0.0179216 0.000120816 8.80976e-12 -8.37856e-12 -1.11412e-12 9.77661e-18 1.07177e-17 1.54196e-17 5e-05 1.46608e-10 
69 1 0.383601 0.0187724 5.12477e-05 2.81055e-18 -5.08682e-22 -2.14593e-15 0 2.96647e-26 0 5e-05 1.46608e-10 
70 1 0.383695 0.0199014 5.13714e-05 -3.50173e-19 2.00824e-22 2.67381e-16 0 -6.49268e-26 0 5e-05 1.46608e-10 
71 1 0.383708 0.0192011 5.13883e-05 2.81055e-18 4.71722e-22 -2.14593e-15 0 1.47704e-26 0 5e-05 1.46608e-10 
72 1 0.383848 0.0178769 5.15715e-05 -2.22084e-19 -1.19862e-21 1.69474e-16 0 1.29247e-26 0 5e-05 1.46608e-10 
73 1 0.384751 0.0204726 5.27548e-05 2.00507e-18 1.55416e-21 -1.5309e-15 0 7.96641e-27 0 5e-05 1.46608e-10 
74 1 0.384789 0.0203241 5.2804e-05 8.71335e-19 4.18285e-21 -6.65298e-16 0 -1.3092e-25 0 5e-05 1.46608e-10 
76 1 0.384148 0.0172907 5.19645e-05 2.24033e-18 -2.87506e-22 -1.71052e-15 0 -3.56288e-27 0 5e-05 1.46608e-10 
77 1 0.384899 0.0180553 5.29479e-05 1.79758e-18 -1.79881e-21 -1.37249e-15 -4.03897e-28 7.07864e-27 0 5e-05 1.46608e-10 
78 1 0.384454 0.0177342 5.23646e-05 2.24036e-18 -2.08455e-22 -1.71052e-15 0 2.60939e-26 0 5e-05 1.46608e-10 
79 1 0.384159 0.0206443 5.19783e-05 2.00507e-18 -2.98459e-21 -1.5309e-15 0 2.37687e-25 0 5e-05 1.46608e-10 
80 1 0.383985 0.017428 5.1751e-05 2.24032e-18 -4.21321e-21 -1.71051e-15 0 -1.89902e-26 0 5e-05 1.46608e-10 
82 1 0.384471 0.0161368 5.23876e-05 2.24035e-18 7.35033e-22 -1.71051e-15 0 -1.02187e-25 0 5e-05 1.46608e-10 
83 1 0.384894 0.0205458 5.29418e-05 2.00505e-18 -4.4573e-22 -1.5309e-15 -4.03897e-28 -1.13845e-26 0 5e-05 1.46608e-10 
84 1 0.383993 0.0188764 5.17615e-05 5.32343e-19 -6.61987e-21 -4.06404e-16 0 0 0 5e-05 1.46608e-10 
85 1 0.383849 0.0193448 5.15725e-05 1.03568e-19 -3.96662e-22 -8.03914e-17 0 0 0 5e-05 1.46608e-10 
86 1 0.383935 0.0179283 5.16858e-05 -9.2056e-19 -7.68218e-22 7.02843e-16 0 5.04583e-27 0 5e-05 1.46608e-10 
87 1 0.384931 0.0175954 5.29902e-05 1.79756e-18 -1.69628e-21 -1.37249e-15 0 3.12356e-26 0 5e-05 1.46608e-10 
88 1 0.383272 0.0191349 0.0052273 1.28258e-16 -3.68211e-21 3.78515e-14 0 1.91105e-25 0 5e-05 1.46608e-10 
89 1 0.38382 0.0176837 5.15355e-05 2.24032e-18 -5.58425e-22 -1.71051e-15 0 4.39377e-26 0 5e-05 1.46608e-10 
90 1 0.384046 0.0179367 5.18308e-05 2.24031e-18 1.19173e-21 -1.71052e-15 -4.03897e-28 2.21496e-27 0 5e-05 1.46608e-10 
91 1 0.384723 0.0172283 5.27177e-05 2.24035e-18 1.02654e-21 -1.71052e-15 0 1.01343e-26 0 5e-05 1.46608e-10 
92 1 0.384191 0.017054 5.20202e-05 -9.20531e-19 5.21271e-22 7.02843e-16 -4.03897e-28 -1.90189e-26 0 5e-05 1.46608e-10 
93 1 0.383736 0.0207666 5.1425e-05 -1.15571e-18 -3.5756e-21 8.82406e-16 4.03897e-28 -4.50917e-26 0 5e-05 1.46608e-10 
94 1 0.383683 0.0188356 5.13558e-05 -3.50202e-19 -9.06867e-21 2.67383e-16 0 -2.42118e-26 0 5e-05 1.46608e-10 
95 1 0.384606 0.0176837 5.25637e-05 4.8884e-19 1.06606e-21 -3.71584e-16 0 0 0 5e-05 1.46608e-10 
96 1 0.38444 0.0183063 5.23472e-05 1.79764e-18 -8.68512e-24 -1.37251e-15 0 -2.32431e-28 0 5e-05 1.46608e-10 
98 1 0.383724 0.0194164 5.14094e-05 -3.50221e-19 2.3435e-21 2.67382e-16 0 -5.06732e-26 0 5e-05 1.46608e-10 
99 1 0.384303 0.0183686 5.21674e-05 1.79756e-18 6.12413e-21 -1.37249e-15 0 6.25416e-26 0 5e-05 1.46608e-10 
100 1 0.384848 0.0173718 5.28812e-05 2.24037e-18 4.05075e-22 -1.71052e-15 0 2.42049e-26 0 5e-05 1.46608e-10 
101 1 0.384322 0.0214999 5.21918e-05 2.00507e-18 6.82217e-22 -1.5309e-15 0 -3.22231e-25 0 5e-05 1.46608e-10 
102 1 0.0643568 0.0187248 0.00531097 4.56082e-15 1.04409e-14 8.29522e-14 -2.94037e-22 5.34772e-22 -4.69425e-23 5e-05 1.46608e-10 
103 1 0.24257 0.0191927 0.00520306 1.19201e-22 -1.27651e-22 1.23839e-22 0 0 0 5e-05 1.46608e-10 
104 1 0.384443 0.0190455 5.23502e-05 -3.50196e-19 8.26299e-22 2.67381e-16 0 1.58657e-27 0 5e-05 1.46608e-10 
105 1 0.384764 0.0176468 0.000125094 1.09102e-19 4.01389e-21 -7.99304e-17 -1.29247e-26 -5.16988e-26 -2.06795e-25 5e-05 1.46608e-10 
106 1 0.383893 0.0187182 5.16305e-05 7.79813e-19 3.00793e-21 -5.98255e-16 0 0 0 5e-05 1.46608e-10 
107 1 0.385147 0.0177812 0.000122873 -8.24881e-21 -3.69163e-21 -2.81824e-21 0 1.29247e-26 0 5e-05 1.46608e-10 
108 1 0.383662 0.0180867 5.13271e-05 -7.98141e-19 3.64882e-21 6.0885e-16 0 0 0 5e-05 1.46608e-10 
109 1 0.384177 0.0192838 5.20024e-05 2.81054e-18 3.12225e-21 -2.14593e-15 0 3.65835e-26 0 5e-05 1.46608e-10 
110 1 0.384493 0.0193015 5.24162e-05 2.81054e-18 1.14925e-22 -2.14593e-15 0 1.94941e-27 0 5e-05 1.46608e-10 
111 1 0.384709 0.0176058 5.26985e-05 1.04258e-19 -1.19678e-22 -7.99333e-17 2.58494e-26 1.45403e-26 2.06795e-25 5e-05 1.46608e-10 
112 1 0.384647 0.0185896 5.26184e-05 1.7976e-18 -5.75202e-21 -1.37251e-15 0 1.30413e-25 0 5e-05 1.46608e-10 
113 1 0.383921 0.0178347 0.00010527 -2.29115e-19 -1.28098e-21 1.69476e-16 0 -2.58494e-26 0 5e-05 1.46608e-10 
114 1 0.384105 0.0183256 5.19082e-05 1.79758e-18 5.84015e-21 -1.37249e-15 0 1.16503e-25 0 5e-05 1.46608e-10 
115 1 0.38367 0.0183173 5.13384e-05 1.79759e-18 4.64117e-22 -1.37251e-15 0 1.23218e-26 0 5e-05 1.46608e-10 
116 1 0.383786 0.0180677 5.14897e-05 2.24031e-18 -4.40757e-22 -1.71052e-15 0 -2.12705e-26 0 5e-05 1.46608e-10 
117 1 0.384446 0.0168712 5.23543e-05 -9.23242e-19 7.88543e-22 7.02812e-16 -2.06795e-25 8.07794e-26 0 5e-05 1.46608e-10 
118 1 0.383701 0.0187017 5.13793e-05 -3.50216e-19 4.86837e-23 2.67381e-16 0 -2.44903e-27 0 5e-05 1.46608e-10 
119 1 0.383906 0.018619 5.16476e-05 7.84386e-19 4.53956e-22 -5.98253e-16 0 0 0 5e-05 1.46608e-10 
120 1 0.384144 0.01791 5.19592e-05 7.11749e-15 -6.16973e-16 -8.95296e-15 -1.82472e-19 1.12562e-19 3.12095e-21 5e-05 1.46608e-10 
121 1 0.384817 0.0185465 5.28405e-05 1.79759e-18 -5.2189e-22 -1.37251e-15 0 -1.66182e-26 0 5e-05 1.46608e-10 
122 1 0.384225 0.0179695 5.20647e-05 -5.49145e-14 -5.81094e-14 -3.26311e-14 1.81096e-20 -5.07599e-19 1.7377e-19 5e-05 1.46608e-10 
123 1 0.383933 0.0192279 5.16831e-05 1.05166e-19 1.69293e-21 -8.03881e-17 0 0 0 5e-05 1.46608e-10 
124 1 0.384096 0.0170045 5.18952e-05 -7.97786e-21 -5.25853e-21 -4.17044e-19 -5.16988e-26 0 0 5e-05 1.46608e-10 
125 1 0.384626 0.016764 5.25911e-05 2.24037e-18 -1.90459e-22 -1.71052e-15 0 -4.74366e-26 0 5e-05 1.46608e-10 
127 1 0.384295 0.018231 0.000129802 1.54118e-20 1.36221e-20 -7.47673e-18 0 0 0 5e-05 1.46608e-10 
128 1 0.384383 0.0169852 5.22722e-05 -9.20518e-19 1.17706e-21 7.02842e-16 0 4.91447e-27 0 5e-05 1.46608e-10 
129 1 0.383806 0.0179676 5.15164e-05 -2.21443e-19 1.25026e-21 1.69474e-16 0 0 0 5e-05 1.46608e-10 
130 1 0.383859 0.0175842 5.15859e-05 2.24031e-18 3.47078e-22 -1.71052e-15 0 7.13726e-27 0 5e-05 1.46608e-10 
131 1 0.38345 0.0177196 0.00536012 3.20062e-17 2.72458e-14 8.96465e-14 7.22491e-23 9.1817e-23 -2.79173e-23 5e-05 1.46608e-10 
132 1 0.384418 0.0164926 5.23174e-05 2.24031e-18 8.61674e-22 -1.71052e-15 0 -5.54912e-27 0 5e-05 1.46608e-10 
133 1 0.383591 0.0185347 5.12355e-05 -3.50219e-19 -3.80309e-20 2.67382e-16 0 1.97668e-27 0 5e-05 1.46608e-10 
134 1 0.383574 0.0183691 5.12127e-05 2.81055e-18 -4.173e-21 -2.14593e-15 0 6.50491e-26 0 5e-05 1.46608e-10 
135 1 0.383667 0.0199993 5.13343e-05 2.81059e-18 -2.72512e-22 -2.14593e-15 0 4.04976e-27 0 5e-05 1.46608e-10 
136 1 0.384475 0.0176309 5.23931e-05 -9.20551e-19 -4.32076e-21 7.02843e-16 0 -3.73091e-25 0 5e-05 1.46608e-10 
137 1 0.383925 0.0184105 5.16721e-05 1.79761e-18 7.5901e-24 -1.37249e-15 0 3.16781e-28 0 5e-05 1.46608e-10 
138 1 0.384418 0.0178531 5.23181e-05 -4.95984e-13 -1.95389e-12 -1.10304e-12 1.2661e-17 5.03991e-18 1.03369e-17 5e-05 1.46608e-10 
140 1 0.384798 0.0171606 5.28155e-05 2.24033e-18 9.06898e-21 -1.71052e-15 0 8.4995e-26 0 5e-05 1.46608e-10 
141 1 0.384313 0.0171449 5.21807e-05 2.24036e-18 -8.23272e-21 -1.71052e-15 -4.03897e-28 1.06948e-25 0 5e-05 1.46608e-10 
142 1 0.385769 0.0165473 5.40881e-05 1.45287e-18 -1.51376e-21 -1.10923e-15 0 1.0902e-25 0 5e-05 1.46608e-10 
143 1 0.384333 0.0177947 5.22067e-05 -5.13941e-19 2.3881e-22 3.87842e-16 0 0 0 5e-05 1.46608e-10 
144 1 0.384385 0.0195542 5.22753e-05 -3.50174e-19 1.36839e-20 2.67381e-16 0 2.43591e-25 0 5e-05 1.46608e-10 
146 1 0.384085 0.018684 5.18824e-05 2.81055e-18 4.11315e-22 -2.14593e-15 0 2.31498e-26 0 5e-05 1.46608e-10 
147 1 0.384719 0.0170987 5.27125e-05 2.24037e-18 -2.5553e-20 -1.71052e-15 0 1.47831e-25 0 5e-05 1.46608e-10 
148 1 0.383894 0.0174902 5.16321e-05 2.24037e-18 9.34126e-22 -1.71052e-15 0 4.05907e-26 0 5e-05 1.46608e-10 
149 1 0.384744 0.0173967 5.27447e-05 -1.1341e-19 1.17696e-21 9.01843e-17 -5.16988e-26 0 0 5e-05 1.46608e-10 
150 1 0.383756 0.0184867 5.14508e-05 2.81054e-18 4.20989e-21 -2.14593e-15 0 4.69256e-26 0 5e-05 1.46608e-10 
151 1 0.384727 0.0201861 5.27225e-05 8.71348e-19 3.17941e-21 -6.65298e-16 0 -1.99121e-26 0 5e-05 1.46608e-10 
153 1 0.384074 0.0170516 0.000137426 -2.42953e-20 -1.62587e-20 5.59394e-21 -6.46235e-26 1.22785e-25 -9.04729e-26 5e-05 1.46608e-10 
154 1 0.384584 0.0177681 0.000101539 4.74962e-19 -7.03549e-21 -3.71582e-16 -5.16988e-26 -1.29247e-26 0 5e-05 1.46608e-10 
155 1 0.384544 0.0163094 5.24825e-05 -9.20565e-19 -6.89594e-21 7.02844e-16 -4.03897e-28 -1.68061e-25 0 5e-05 1.46608e-10 
156 1 0.384233 0.0168376 5.20754e-05 2.24034e-18 1.75334e-23 -1.71051e-15 0 8.46321e-27 0 5e-05 1.46608e-10 
157 1 0.0219312 0.0187687 0.00551176 -3.83148e-14 8.16857e-14 2.95885e-13 6.91213e-22 3.94255e-22 -2.91581e-23 5e-05 1.46608e-10 
158 1 0.384319 0.0167636 5.21878e-05 2.24032e-18 3.73478e-21 -1.71052e-15 0 6.63548e-25 0 5e-05 1.46608e-10 
159 1 0.384228 0.0177075 5.20694e-05 -5.06258e-19 5.1597e-22 3.87838e-16 0 0 0 5e-05 1.46608e-10 
160 1 0.38353 0.0176621 0.00537757 -4.69343e-17 2.71453e-14 8.9677e-14 -8.09862e-23 -1.03191e-22 3.12261e-23 5e-05 1.46608e-10 
162 1 0.38396 0.0191288 5.17179e-05 -3.50181e-19 2.41399e-22 2.6738e-16 0 -4.60996e-27 0 5e-05 1.46608e-10 
165 1 0.384146 0.0189135 5.19615e-05 -3.5018e-19 -8.92202e-21 2.6738e-16 0 -8.21771e-26 0 5e-05 1.46608e-10 
166 1 0.384895 0.0168866 5.2943e-05 -9.20533e-19 1.04241e-21 7.02845e-16 0 3.14993e-25 0 5e-05 1.46608e-10 
167 1 0.384921 0.0196039 5.29764e-05 8.71385e-19 -1.43244e-20 -6.65297e-16 0 3.66155e-25 0 5e-05 1.46608e-10 
168 1 0.383956 0.019484 5.17133e-05 2.81059e-18 5.38261e-22 -2.14593e-15 0 4.14292e-27 0 5e-05 1.46608e-10 
169 1 0.383755 0.019009 5.14493e-05 2.81058e-18 -1.23916e-21 -2.14593e-15 -4.03897e-28 -7.85588e-27 0 5e-05 1.46608e-10 
170 1 0.383888 0.0184727 0.00523166 6.88174e-16 -4.5769e-15 -5.98175e-14 -1.13414e-24 -7.75482e-26 0 5e-05 1.46608e-10 
171 1 0.384004 0.0193816 5.17764e-05 2.81059e-18 -6.32455e-22 -2.14593e-15 0 -1.55377e-26 0 5e-05 1.46608e-10 
172 1 0.384121 0.0171522 0.000126213 -6.20743e-20 6.07301e-21 2.89307e-17 0 -5.16988e-26 0 5e-05 1.46608e-10 
173 1 0.384268 0.0190399 5.21214e-05 -3.50168e-19 8.23765e-22 2.67381e-16 0 -2.4635e-26 0 5e-05 1.46608e-10 
174 1 0.384105 0.0178224 7.97669e-05 -2.57899e-15 3.73237e-15 -8.17255e-15 8.94262e-20 -3.17894e-20 7.35572e-20 5e-05 1.46608e-10 
176 1 0.384124 0.018008 5.19332e-05 4.82964e-15 -1.93379e-15 -3.40696e-15 -4.1996e-20 7.37852e-20 1.21087e-20 5e-05 1.46608e-10 
177 1 0.38435 0.018262 5.22293e-05 1.45743e-20 -2.15755e-22 -7.47398e-18 0 0 0 5e-05 1.46608e-10 
178 1 0.384053 0.0189567 5.184e-05 2.81055e-18 -2.94527e-22 -2.14593e-15 0 -2.50878e-27 0 5e-05 1.46608e-10 
179 1 0.3843 0.0186551 5.2163e-05 1.79763e-18 -9.60271e-21 -1.37251e-15 0 4.23534e-26 0 5e-05 1.46608e-10 
182 1 0.384992 0.0180145 5.30695e-05 1.7976e-18 -1.04608e-21 -1.37251e-15 0 8.38325e-27 0 5e-05 1.46608e-10 
183 1 0.386759 0.0152483 5.53836e-05 1.45282e-18 9.08831e-21 -1.10923e-15 0 2.52006e-26 0 5e-05 1.46608e-10 
184 1 0.383617 0.019327 5.12691e-05 2.81058e-18 1.9123e-21 -2.14593e-15 0 2.70253e-26 0 5e-05 1.46608e-10 
185 1 0.384403 0.0192492 5.22987e-05 -3.50204e-19 1.28748e-21 2.67381e-16 0 1.87508e-26 0 5e-05 1.46608e-10 
186 1 0.384249 0.018274 5.20972e-05 1.14818e-20 -3.40683e-22 -7.47483e-18 0 0 0 5e-05 1.46608e-10 
187 1 0.38373 0.0197118 5.14173e-05 -3.50184e-19 -1.14921e-21 2.67381e-16 0 1.77968e-26 0 5e-05 1.46608e-10 
188 1 0.385076 0.0179467 5.31802e-05 1.79755e-18 -3.58667e-20 -1.37249e-15 0 -5.50188e-26 0 5e-05 1.46608e-10 
189 1 0.38396 0.0177554 5.17178e-05 2.24035e-18 5.89402e-22 -1.71051e-15 0 -1.15956e-26 0 5e-05 1.46608e-10 
190 1 0.383867 0.0210849 5.15964e-05 -1.15572e-18 -1.95444e-20 8.82406e-16 0 -1.53974e-26 0 5e-05 1.46608e-10 
191 1 0.384706 0.0184769 5.26952e-05 1.79756e-18 -3.61381e-21 -1.37249e-15 0 2.82399e-26 0 5e-05 1.46608e-10 
192 1 0.384023 0.0181084 5.1801e-05 3.83667e-15 -4.14706e-15 -1.2429e-15 -3.76346e-20 4.88353e-20 2.44763e-21 5e-05 1.46608e-10 
193 1 0.383672 0.0184195 5.13415e-05 -3.5018e-19 -2.95372e-21 2.67382e-16 0 -5.22866e-26 0 5e-05 1.46608e-10 
194 1 0.384122 0.0182248 5.1931e-05 1.79755e-18 -1.66303e-20 -1.37249e-15 0 2.18504e-25 0 5e-05 1.46608e-10 
195 1 0.383967 0.0181955 5.17273e-05 1.79764e-18 1.2154e-21 -1.37251e-15 0 -1.11831e-26 0 5e-05 1.46608e-10 
196 1 0.384122 0.0181236 5.19307e-05 1.79758e-18 -6.98497e-23 -1.37249e-15 0 9.1305e-28 0 5e-05 1.46608e-10 
197 1 0.383676 0.0181534 0.000124512 -8.10414e-19 2.14876e-21 6.08853e-16 0 0 0 5e-05 1.46608e-10 
198 1 0.383816 0.019228 5.15292e-05 1.08955e-19 8.20712e-23 -8.03862e-17 0 0 0 5e-05 1.46608e-10 
199 1 0.38465 0.0174377 5.26211e-05 -1.20104e-19 -6.36967e-22 9.01927e-17 0 0 0 5e-05 1.46608e-10 
200 1 0.3851 0.0177266 5.32113e-05 -5.63914e-22 3.18074e-21 1.10769e-20 0 0 0 5e-05 1.46608e-10 
201 1 0.385006 0.0158243 5.30884e-05 1.45282e-18 -1.24864e-21 -1.10923e-15 0 -2.40355e-26 0 5e-05 1.46608e-10 
202 1 0.385094 0.0174355 5.32031e-05 1.79759e-18 9.69574e-22 -1.37251e-15 0 2.111e-26 0 5e-05 1.46608e-10 
203 1 0.384504 0.0179623 5.24301e-05 -1.5087e-12 -7.03464e-13 8.27218e-13 1.13188e-17 6.73925e-18 5.15492e-18 5e-05 1.46608e-10 
204 1 0.384109 0.0184302 5.19127e-05 1.79762e-18 -2.30789e-21 -1.37251e-15 0 -8.09398e-27 0 5e-05 1.46608e-10 
205 1 0.384524 0.0174713 5.24569e-05 2.24034e-18 7.42806e-21 -1.71052e-15 0 -7.96052e-26 0 5e-05 1.46608e-10 
206 1 0.38435 0.0178614 0.000125081 2.87034e-12 9.37322e-13 -1.16145e-12 1.63124e-17 5.89812e-18 3.54229e-18 5e-05 1.46608e-10 
207 1 0.385023 0.0181691 5.31107e-05 1.79759e-18 -2.10824e-22 -1.37251e-15 0 -2.29351e-27 0 5e-05 1.46608e-10 
208 1 0.385037 0.0175739 5.31289e-05 1.79759e-18 -1.70572e-21 -1.37249e-15 0 -3.16363e-26 0 5e-05 1.46608e-10 
209 1 0.383886 0.018028 5.16209e-05 9.4012e-16 -2.42775e-16 9.93457e-16 7.86623e-21 -5.93005e-21 3.94338e-21 5e-05 1.46608e-10 
210 1 0.384526 0.016716 5.24592e-05 2.24036e-18 -4.61303e-21 -1.71051e-15 0 9.47209e-26 0 5e-05 1.46608e-10 
211 1 0.384505 0.0171609 5.24316e-05 2.24031e-18 -1.00611e-20 -1.71052e-15 0 7.9151e-26 0 5e-05 1.46608e-10 
212 1 0.383978 0.0185238 0.00522879 -2.82526e-15 1.87927e-14 2.4561e-13 1.90639e-25 -3.87741e-26 0 5e-05 1.46608e-10 
213 1 0.383846 0.0191172 5.15692e-05 2.81059e-18 7.92981e-22 -2.14593e-15 0 -2.74179e-26 0 5e-05 1.46608e-10 
214 1 0.384625 0.017537 5.25895e-05 8.23001e-20 4.18419e-21 -7.992e-17 1.03398e-25 0 0 5e-05 1.46608e-10 
215 1 0.385553 0.0152374 5.38047e-05 1.45285e-18 1.01635e-21 -1.10923e-15 0 -3.11342e-26 0 5e-05 1.46608e-10 
217 1 0.384411 0.0184417 5.23083e-05 1.79762e-18 1.56935e-21 -1.37251e-15 0 -2.47477e-26 0 5e-05 1.46608e-10 
218 1 0.384302 0.0165156 5.21656e-05 -9.20531e-19 -1.48025e-20 7.02843e-16 0 -7.82689e-26 0 5e-05 1.46608e-10 
219 1 0.384399 0.0186101 5.22929e-05 1.79759e-18 -2.16314e-21 -1.37251e-15 -4.03897e-28 -9.02348e-26 0 5e-05 1.46608e-10 
220 1 0.384943 0.0187045 5.30057e-05 1.79763e-18 -5.0218e-22 -1.37251e-15 0 6.4533e-27 0 5e-05 1.46608e-10 
222 1 0.384205 0.0180675 5.20391e-05 -7.83531e-15 -1.39065e-14 -3.35793e-18 3.07584e-19 -1.8952e-19 1.51731e-19 5e-05 1.46608e-10 
224 1 0.384058 0.0177382 5.18467e-05 -3.87074e-15 6.68063e-15 -4.22749e-16 1.61804e-19 -1.83649e-19 -2.32024e-20 5e-05 1.46608e-10 
225 1 0.384811 0.0174713 5.28328e-05 1.14876e-19 1.7446e-22 -7.99125e-17 0 0 0 5e-05 1.46608e-10 
226 1 0.383884 0.0196254 5.16191e-05 -3.50189e-19 -6.63514e-23 2.67381e-16 0 -1.2428e-26 0 5e-05 1.46608e-10 
227 1 0.384574 0.0160758 5.25222e-05 2.24034e-18 -3.63004e-21 -1.71052e-15 0 1.36926e-25 0 5e-05 1.46608e-10 
228 1 0.384056 0.0180406 0.000117497 3.84778e-15 -8.1404e-16 3.97277e-16 1.79396e-20 -1.08832e-20 -3.51883e-21 5e-05 1.46608e-10 
229 1 0.384183 0.0194731 5.201e-05 -3.50204e-19 8.2709e-21 2.67382e-16 0 6.40774e-26 0 5e-05 1.46608e-10 
230 1 0.385084 0.0171004 5.31901e-05 -9.20568e-19 1.00591e-21 7.02844e-16 -4.03897e-28 2.45173e-26 0 5e-05 1.46608e-10 
232 1 0.38345 0.0186594 0.00522432 -5.7411e-14 -1.53446e-18 -1.77479e-13 0 1.29415e-23 2.06795e-25 5e-05 1.46608e-10 
233 1 0.384483 0.016964 5.24031e-05 -9.17802e-19 -6.54471e-22 7.02812e-16 2.11642e-25 -8.40105e-26 0 5e-05 1.46608e-10 
234 1 0.384564 0.0189811 5.25095e-05 -3.50208e-19 -5.65183e-21 2.67382e-16 0 1.86018e-26 0 5e-05 1.46608e-10 
235 1 0.385129 0.0178507 5.32485e-05 1.11177e-22 -8.43281e-22 -2.2895e-21 0 -2.58494e-26 0 5e-05 1.46608e-10 
236 1 0.385096 0.0164501 5.32056e-05 -9.20569e-19 1.82683e-20 7.02842e-16 0 1.16271e-25 0 5e-05 1.46608e-10 
237 1 0.383933 0.0187648 0.000130442 7.69746e-19 4.4561e-21 -5.98258e-16 7.75482e-26 0 0 5e-05 1.46608e-10 
239 1 0.384687 0.0169933 5.26707e-05 2.24034e-18 2.60074e-22 -1.71051e-15 0 1.62344e-27 0 5e-05 1.46608e-10 
240 1 0.384262 0.0177729 0.000119547 -5.13523e-19 -9.31567e-22 3.87837e-16 0 -2.58494e-26 0 5e-05 1.46608e-10 
241 1 0.384801 0.0166583 5.28192e-05 2.24036e-18 -2.45954e-23 -1.71051e-15 0 4.0958e-26 0 5e-05 1.46608e-10 
242 1 0.383909 0.0188216 5.16519e-05 7.81868e-19 2.28287e-21 -5.98258e-16 0 0 0 5e-05 1.46608e-10 
243 1 0.38439 0.0209101 5.22816e-05 2.00506e-18 2.52295e-20 -1.5309e-15 0 2.84254e-25 0 5e-05 1.46608e-10 
244 1 0.384493 0.0173689 9.64047e-05 -1.2867e-19 4.00125e-21 9.01914e-17 -5.16988e-26 5.16988e-26 0 5e-05 1.46608e-10 
246 1 0.38382 0.0188681 5.15345e-05 -3.50166e-19 1.08149e-22 2.6738e-16 0 -2.31926e-27 0 5e-05 1.46608e-10 
247 1 0.384541 0.017902 0.000125062 -2.64198e-11 -4.20106e-11 -1.31983e-12 -2.3331e-17 2.34213e-16 6.22341e-17 5e-05 1.46608e-10 
248 1 0.383639 0.0189866 5.12974e-05 -3.50208e-19 -2.99153e-21 2.67381e-16 0 3.13691e-26 0 5e-05 1.46608e-10 
249 1 0.38453 0.020178 5.24643e-05 8.71371e-19 1.92261e-20 -6.65297e-16 0 2.09354e-26 0 5e-05 1.46608e-10 
250 1 0.384661 0.0178084 5.26366e-05 4.85583e-19 -1.79105e-21 -3.71585e-16 5.16988e-26 2.58494e-26 0 5e-05 1.46608e-10 
251 1 0.384005 0.0178448 5.17769e-05 -2.27868e-19 -1.21907e-21 1.69486e-16 -1.03398e-25 3.23117e-27 0 5e-05 1.46608e-10 
252 1 0.384145 0.0205426 5.19607e-05 8.71337e-19 6.00617e-21 -6.65298e-16 0 2.84541e-25 0 5e-05 1.46608e-10 
253 1 0.383856 0.0203056 5.15822e-05 2.81057e-18 -9.32881e-21 -2.14593e-15 0 -1.68582e-26 0 5e-05 1.46608e-10 
254 1 0.38515 0.0175249 5.32762e-05 1.79761e-18 -3.55509e-21 -1.37249e-15 0 -6.5102e-26 0 5e-05 1.46608e-10 
255 1 0.383703 0.0182157 5.13821e-05 -7.98206e-19 1.93859e-21 6.08848e-16 0 0 0 5e-05 1.46608e-10 
256 1 0.384352 0.0191511 5.22319e-05 -3.50202e-19 5.74838e-22 2.67382e-16 0 3.42391e-27 0 5e-05 1.46608e-10 
257 1 0.384531 0.0168171 5.24664e-05 2.24036e-18 6.67488e-23 -1.71051e-15 0 -4.51567e-28 0 5e-05 1.46608e-10 
258 1 0.383662 0.0204201 5.13284e-05 -5.14035e-22 2.33996e-23 1.03396e-21 0 -4.03897e-28 0 5e-05 1.46608e-10 
259 1 0.384524 0.0216685 5.24571e-05 2.00507e-18 -1.55066e-20 -1.5309e-15 0 -9.75248e-26 0 5e-05 1.46608e-10 
260 1 0.384677 0.0173224 5.2657e-05 -1.08392e-19 -3.93175e-21 9.01854e-17 0 2.58494e-26 0 5e-05 1.46608e-10 
261 1 0.383833 0.0185505 5.15522e-05 -3.5018e-19 -7.19019e-23 2.67381e-16 0 -2.10758e-27 0 5e-05 1.46608e-10 
262 1 0.384455 0.0172873 5.2367e-05 -1.19688e-19 -2.09392e-21 9.01881e-17 0 0 0 5e-05 1.46608e-10 
263 1 0.384148 0.018808 5.1965e-05 -3.50169e-19 -2.07404e-20 2.67382e-16 0 4.30508e-25 0 5e-05 1.46608e-10 
264 1 0.383874 0.0192744 0.000117813 9.95276e-20 3.14243e-21 -8.03892e-17 0 0 0 5e-05 1.46608e-10 
265 1 0.384664 0.0180562 5.26402e-05 1.79762e-18 -9.03897e-23 -1.37251e-15 0 1.37514e-26 0 5e-05 1.46608e-10 
266 1 0.383681 0.0195344 5.13528e-05 -3.50223e-19 -1.50347e-21 2.67382e-16 0 -1.33585e-26 0 5e-05 1.46608e-10 
267 1 0.384035 0.0173399 5.18167e-05 2.24036e-18 3.90277e-23 -1.71052e-15 0 1.09628e-27 0 5e-05 1.46608e-10 
268 1 0.384513 0.0181523 5.24423e-05 1.79761e-18 2.37495e-21 -1.37251e-15 0 3.51998e-26 0 5e-05 1.46608e-10 
269 1 0.383985 0.018016 5.17508e-05 2.05007e-15 -3.73381e-16 7.61988e-16 -6.12421e-21 -2.22227e-21 -2.2458e-22 5e-05 1.46608e-10 
270 1 0.384204 0.0178183 5.2038e-05 -5.07186e-19 1.69502e-21 3.87841e-16 2.58494e-26 0 0 5e-05 1.46608e-10 
271 1 0.384204 0.0183848 5.20381e-05 1.79764e-18 -5.63185e-21 -1.37251e-15 0 -1.0799e-26 0 5e-05 1.46608e-10 
272 1 0.384044 0.0177752 0.000143609 -2.07783e-15 7.86395e-15 -1.71153e-16 7.40624e-20 1.83293e-20 -3.47753e-20 5e-05 1.46608e-10 
273 1 0.38425 0.0173241 5.20975e-05 2.24036e-18 -1.01396e-21 -1.71051e-15 0 6.28259e-27 0 5e-05 1.46608e-10 
274 1 0.383762 0.0206306 5.14594e-05 8.71378e-19 -5.54694e-22 -6.65298e-16 0 9.9337e-27 0 5e-05 1.46608e-10 
275 1 0.385192 0.0170617 5.33312e-05 -9.20574e-19 -2.77917e-22 7.02844e-16 0 2.23678e-27 0 5e-05 1.46608e-10 
276 1 0.3843 0.0175031 5.2164e-05 2.24035e-18 -1.29422e-21 -1.71052e-15 0 -3.96558e-27 0 5e-05 1.46608e-10 
277 1 0.384989 0.0177301 5.30663e-05 1.79756e-18 3.02337e-22 -1.37249e-15 0 -3.17598e-27 0 5e-05 1.46608e-10 
278 1 0.384608 0.0171655 5.25668e-05 2.24032e-18 4.14275e-22 -1.71052e-15 0 9.93595e-28 0 5e-05 1.46608e-10 
280 1 0.383746 0.0191087 5.14383e-05 2.81056e-18 7.54086e-22 -2.14593e-15 0 8.3828e-27 0 5e-05 1.46608e-10 
281 1 0.384897 0.0194055 5.2945e-05 8.7135e-19 1.22226e-21 -6.65298e-16 0 2.81243e-26 0 5e-05 1.46608e-10 
283 1 0.384732 0.0167368 5.27299e-05 2.24036e-18 -7.53691e-22 -1.71052e-15 0 1.75683e-26 0 5e-05 1.46608e-10 
284 1 0.383859 0.0194467 5.15855e-05 2.81059e-18 -4.96824e-22 -2.14593e-15 0 3.17434e-27 0 5e-05 1.46608e-10 
285 1 0.384511 0.017816 5.24399e-05 4.81305e-19 3.1211e-21 -3.71595e-16 0 0 0 5e-05 1.46608e-10 
286 1 0.384761 0.017818 5.27671e-05 4.85858e-19 -8.60155e-22 -3.71583e-16 0 0 0 5e-05 1.46608e-10 
287 1 0.384417 0.0167417 5.23161e-05 2.24036e-18 -9.34861e-21 -1.71052e-15 0 7.33784e-26 0 5e-05 1.46608e-10 
288 1 0.384905 0.0179551 5.29553e-05 1.79764e-18 -3.81968e-21 -1.37251e-15 0 -6.286e-26 0 5e-05 1.46608e-10 
290 1 0.38472 0.0175079 6.94547e-05 1.05687e-19 -2.39194e-21 -7.99363e-17 -1.00166e-25 1.29247e-26 0 5e-05 1.46608e-10 
291 1 0.38371 0.0179981 5.13903e-05 2.24036e-18 3.7368e-22 -1.71052e-15 0 4.08362e-27 0 5e-05 1.46608e-10 
292 1 0.384101 0.0193494 5.19028e-05 -3.50205e-19 1.69537e-21 2.67381e-16 0 -4.99442e-26 0 5e-05 1.46608e-10 
293 1 0.384429 0.0174321 5.23324e-05 -1.16373e-19 2.15647e-21 9.0189e-17 0 -2.58494e-26 0 5e-05 1.46608e-10 
294 1 0.383845 0.0189654 5.1567e-05 5.31324e-19 4.05006e-22 -4.06399e-16 0 0 0 5e-05 1.46608e-10 
295 1 0.383647 0.0190875 5.13083e-05 -3.5019e-19 8.71608e-24 2.67381e-16 0 1.58449e-28 0 5e-05 1.46608e-10 
296 1 0.384035 0.0172167 0.000137258 -7.45907e-18 9.66488e-19 4.02295e-17 -1.55096e-25 -1.03398e-25 2.06795e-25 5e-05 1.46608e-10 
297 1 0.383829 0.0183804 5.15472e-05 1.79764e-18 -1.35493e-22 -1.37251e-15 0 4.11656e-26 0 5e-05 1.46608e-10 
298 1 0.384428 0.0175321 5.23311e-05 -1.18498e-19 3.55022e-21 9.01799e-17 -1.29247e-26 0 0 5e-05 1.46608e-10 
299 1 0.38404 0.0171308 0.000188309 -1.30599e-17 3.07121e-17 2.02423e-17 5.16988e-26 0 -2.06795e-25 5e-05 1.46608e-10 
300 1 0.383994 0.0172487 5.17625e-05 -5.46471e-20 -3.05072e-21 5.114e-17 0 0 0 5e-05 1.46608e-10 
