ITEM: TIMESTEP
62600000
ITEM: NUMBER OF ATOMS
267
ITEM: BOX BOUNDS ff ff ff
-0.02 0.43
-0.02 0.06
-0.02 0.07
ITEM: ATOMS id type x y z vx vy vz fx fy fz radius mass 
1 1 0.378128 0.0175938 0.00725759 0.00590065 -0.000178413 0.000697152 -4.15957e-11 1.73627e-10 -4.39119e-10 5e-05 1.46608e-10 
2 1 0.378077 0.017305 0.00746633 0.00570301 -5.61845e-05 0.000613058 2.21073e-10 -9.53715e-11 7.04369e-11 5e-05 1.46608e-10 
4 1 0.378023 0.0167192 0.00762329 0.00531465 -6.758e-05 0.000574902 6.58822e-11 5.83779e-11 -1.79659e-11 5e-05 1.46608e-10 
6 1 0.384712 0.0177329 0.000231721 0.0143373 0.00548369 0.0253286 0 0 -1.43822e-09 5e-05 1.46608e-10 
7 1 0.378182 0.0174451 0.00732715 0.00586331 -0.000193385 0.000683858 -3.11866e-11 1.7289e-10 -8.90192e-11 5e-05 1.46608e-10 
8 1 0.37785 0.0163414 0.00780846 0.0055278 -0.00039008 0.000204369 6.1823e-10 -2.09625e-10 2.6973e-10 5e-05 1.46608e-10 
9 1 0.383669 0.0180959 5.1337e-05 5.16467e-13 9.91078e-13 -1.03404e-15 -9.92231e-19 -2.0147e-18 -1.29971e-21 5e-05 1.46608e-10 
10 1 0.377831 0.0162798 0.00788482 0.00562283 -0.000573211 9.15307e-05 5.89283e-10 -3.0031e-10 2.18262e-10 5e-05 1.46608e-10 
11 1 0.378231 0.0180478 0.00707284 0.00607724 -0.000228761 0.000724767 -8.22413e-12 1.53407e-10 -9.21321e-11 5e-05 1.46608e-10 
12 1 0.372113 0.0171101 0.00739357 0.0055833 0.000151791 -0.000366957 -2.46322e-11 1.34638e-10 -8.2615e-11 5e-05 1.46608e-10 
13 1 0.377634 0.0159588 0.00829601 0.00594726 -0.000559084 2.64799e-05 3.21895e-11 -2.30188e-10 2.72116e-10 5e-05 1.46608e-10 
14 1 0.372037 0.0171655 0.00736003 0.0056133 0.000181091 -0.000389015 -1.37063e-10 6.67013e-11 -3.4435e-11 5e-05 1.46608e-10 
16 1 0.372295 0.0178899 0.00699472 0.00592988 0.000210829 0.000136565 -1.35523e-10 3.5384e-11 -5.37754e-11 5e-05 1.46608e-10 
17 1 0.377699 0.0161415 0.00806712 0.00580818 -0.000593265 8.23597e-05 4.00506e-11 -2.97598e-10 3.50685e-10 5e-05 1.46608e-10 
19 1 0.377655 0.0160197 0.00821973 0.00597219 -0.000585776 5.53699e-05 6.69069e-11 -2.8895e-10 3.56774e-10 5e-05 1.46608e-10 
21 1 0.378066 0.0173217 0.00736839 0.00575438 -7.90606e-05 0.000615894 -3.74101e-11 -2.04968e-10 8.46504e-11 5e-05 1.46608e-10 
22 1 0.378236 0.0172965 0.00739665 0.00572861 -0.000326066 0.000725817 -1.07875e-10 4.82349e-11 -1.06621e-10 5e-05 1.46608e-10 
23 1 0.37239 0.0179207 0.00699019 0.00610441 6.69487e-05 0.000186773 8.96576e-11 -5.54691e-11 1.97946e-11 5e-05 1.46608e-10 
24 1 0.383954 0.0180551 5.17103e-05 0.00402604 -0.00358876 5.27302e-06 -4.61464e-10 4.10144e-10 -6.04392e-13 5e-05 1.46608e-10 
25 1 0.377964 0.0164467 0.00773456 0.00560067 -8.32307e-05 0.000615622 3.60637e-10 -8.57002e-11 1.72178e-10 5e-05 1.46608e-10 
26 1 0.383912 0.0178827 5.16551e-05 -1.30653e-14 3.77528e-14 -1.72762e-15 -1.33502e-19 3.53985e-19 -1.74742e-22 5e-05 1.46608e-10 
27 1 0.37194 0.0167604 0.00763692 0.00547508 0.000169938 -0.00040215 -6.24098e-11 1.10246e-10 -9.00203e-11 5e-05 1.46608e-10 
28 1 0.377793 0.0164716 0.00770631 0.00554496 -0.00011394 0.000617863 -4.97457e-11 1.04017e-10 -8.44787e-11 5e-05 1.46608e-10 
29 1 0.377612 0.0158979 0.0083723 0.00593911 -0.000543291 7.81698e-06 -1.12882e-10 -1.88614e-10 2.39053e-10 5e-05 1.46608e-10 
30 1 0.377939 0.0170188 0.00758032 0.00540545 -7.68252e-05 0.000589288 -4.85708e-11 1.3838e-10 -2.9145e-11 5e-05 1.46608e-10 
31 1 0.378086 0.0174126 0.00733137 0.00582503 -0.000159162 0.000663644 -3.06773e-10 -5.9753e-11 5.42316e-11 5e-05 1.46608e-10 
32 1 0.377719 0.0162027 0.00799066 0.00567004 -0.000580601 8.22049e-05 4.85564e-10 -2.8125e-10 3.12779e-10 5e-05 1.46608e-10 
33 1 0.384065 0.0174999 0.000255801 -0.0010151 -0.000695197 0.00111695 0 0 -1.43822e-09 5e-05 1.46608e-10 
34 1 0.377677 0.0160806 0.00814344 0.00593078 -0.000598361 7.57418e-05 -8.1162e-11 -3.03919e-10 3.64788e-10 5e-05 1.46608e-10 
35 1 0.378121 0.017173 0.00743807 0.00551492 -0.000131091 0.000623212 1.57482e-10 2.14218e-10 -6.78533e-11 5e-05 1.46608e-10 
36 1 0.383592 0.018448 0.00523014 6.88087e-16 -4.5769e-15 -5.98175e-14 6.13923e-26 0 0 5e-05 1.46608e-10 
37 1 0.378003 0.0166283 0.00766039 0.00541637 -7.62185e-05 0.000589783 1.56052e-10 3.84649e-12 2.23268e-12 5e-05 1.46608e-10 
38 1 0.378081 0.0169915 0.0075121 0.0053478 -8.10565e-05 0.00058484 3.75744e-11 -1.53953e-10 5.81396e-11 5e-05 1.46608e-10 
39 1 0.383631 0.0197738 0.000202822 0.00244345 0.00255865 -0.0439098 0 0 -1.43822e-09 5e-05 1.46608e-10 
42 1 0.378298 0.0175683 0.00728611 0.00579073 -0.00024785 0.000701071 -1.24833e-10 2.63632e-10 -1.67317e-10 5e-05 1.46608e-10 
44 1 0.378339 0.0177497 0.0072122 0.00597734 -0.000246997 0.00072082 -6.78002e-10 4.43579e-10 -2.64657e-10 5e-05 1.46608e-10 
45 1 0.384049 0.0172554 0.000565664 -0.000901882 -0.000834468 -0.0696521 0 0 -1.43822e-09 5e-05 1.46608e-10 
47 1 0.309692 0.016956 0.00821452 0.0168967 0.0157051 -0.00917553 2.80048e-10 1.31573e-10 -1.53228e-10 5e-05 1.46608e-10 
48 1 0.377932 0.017107 0.00744701 0.00542192 -6.3947e-05 0.000583969 -6.76757e-11 7.40106e-11 -3.78774e-11 5e-05 1.46608e-10 
49 1 0.383962 0.0183612 5.17211e-05 1.79758e-18 6.31954e-22 -1.37251e-15 0 2.86809e-26 0 5e-05 1.46608e-10 
50 1 0.377737 0.0162643 0.00791394 0.00561924 -0.00057865 8.69075e-05 4.98892e-10 -2.08482e-10 1.58346e-10 5e-05 1.46608e-10 
51 1 0.378327 0.0180806 0.00706852 0.00611472 -0.000176358 0.000703831 -1.65461e-12 8.46698e-11 -2.95837e-11 5e-05 1.46608e-10 
52 1 0.372268 0.0185934 0.00690351 0.00632414 0.000210725 -0.00020597 -3.0689e-11 -3.46236e-11 1.06935e-11 5e-05 1.46608e-10 
53 1 0.384589 0.0168963 0.00103925 -0.0120177 0.010334 -0.107985 0 0 -1.43822e-09 5e-05 1.46608e-10 
54 1 0.378221 0.0179396 0.00720763 0.00611272 -0.000296831 0.000736323 -5.39205e-10 4.24562e-10 -2.32497e-10 5e-05 1.46608e-10 
55 1 0.372437 0.017754 0.00703311 0.00589123 1.27105e-05 0.000192413 7.34904e-11 -8.82067e-11 4.4652e-11 5e-05 1.46608e-10 
56 1 0.378074 0.0177463 0.00719631 0.00590556 -0.000137988 0.000624935 -1.98119e-10 -2.00345e-10 -1.71618e-11 5e-05 1.46608e-10 
57 1 0.383633 0.0191385 5.99036e-05 0.00236725 0.0111015 0.0147017 0 0 -1.43822e-09 5e-05 1.46608e-10 
59 1 0.378022 0.019866 0.005332 -5.01958e-15 -7.41204e-15 7.69802e-14 1.26662e-24 -4.78214e-24 -2.06795e-25 5e-05 1.46608e-10 
60 1 0.37836 0.0178417 0.00717481 0.00607201 -0.000293033 0.000747552 -7.78553e-10 5.42226e-10 -3.02358e-10 5e-05 1.46608e-10 
62 1 0.378101 0.0170823 0.00747504 0.00540617 -0.000104572 0.000600457 -1.99635e-10 1.59764e-10 -1.05384e-10 5e-05 1.46608e-10 
63 1 0.378149 0.0176844 0.00722081 0.00587768 -0.000165662 0.000677124 -2.49474e-10 1.75474e-10 -2.67273e-10 5e-05 1.46608e-10 
64 1 0.383554 0.018382 0.00103457 -0.000362227 -0.00687165 -0.00924588 0 0 -1.43822e-09 5e-05 1.46608e-10 
65 1 0.372017 0.0170844 0.00741534 0.00561468 0.000180924 -0.000388266 -4.382e-11 1.22566e-10 -5.51255e-11 5e-05 1.46608e-10 
66 1 0.372247 0.0184964 0.00691428 0.00632213 0.000211101 -0.000205082 2.155e-11 -4.38393e-12 1.94223e-12 5e-05 1.46608e-10 
67 1 0.378265 0.0178085 0.00717929 0.00594443 -0.000252753 0.000718261 -5.79168e-10 4.73435e-10 -2.57861e-10 5e-05 1.46608e-10 
68 1 0.377928 0.0166862 0.00762778 0.00534405 -6.33882e-05 0.000575915 5.80049e-10 -5.56612e-10 3.46607e-10 5e-05 1.46608e-10 
69 1 0.378157 0.0181059 0.00704016 0.00608103 -0.000210537 0.000718082 2.19211e-11 2.26751e-10 -7.85285e-11 5e-05 1.46608e-10 
70 1 0.383631 0.0194323 5.1287e-05 -3.50172e-19 -1.74514e-20 2.67382e-16 0 -7.04128e-26 0 5e-05 1.46608e-10 
71 1 0.37235 0.0185356 0.00690718 0.0062738 0.00014437 -0.000197525 -7.10498e-12 -5.55394e-11 6.77621e-12 5e-05 1.46608e-10 
72 1 0.378115 0.017924 0.00711419 0.00602595 -8.83212e-05 0.000656404 -1.50592e-10 1.84175e-10 -1.54541e-10 5e-05 1.46608e-10 
73 1 0.378277 0.0174778 0.00732289 0.00598214 -0.000219938 0.000714739 -6.53277e-10 1.9492e-10 -1.12013e-10 5e-05 1.46608e-10 
74 1 0.378198 0.0174352 0.00742529 0.00578588 -0.000197136 0.000667782 3.28801e-10 7.94739e-11 2.19137e-10 5e-05 1.46608e-10 
76 1 0.37196 0.0168413 0.00758141 0.00552197 0.000168031 -0.000405545 -1.45594e-10 1.15328e-10 -9.5759e-11 5e-05 1.46608e-10 
77 1 0.378118 0.0174864 0.00739251 0.00585678 -0.00022628 0.000696217 -2.00137e-10 -1.44916e-11 -3.52269e-10 5e-05 1.46608e-10 
78 1 0.37156 0.015606 0.00843431 0.00633331 4.92737e-05 -0.000365108 1.76555e-11 1.20761e-10 -7.39881e-11 5e-05 1.46608e-10 
79 1 0.372181 0.0182054 0.00694662 0.00631312 0.000215371 -0.000142986 -3.60351e-11 -9.97761e-12 2.49205e-10 5e-05 1.46608e-10 
80 1 0.377889 0.0165047 0.00770182 0.00557908 -9.4729e-05 0.000615695 2.69909e-10 9.43467e-11 2.01784e-11 5e-05 1.46608e-10 
82 1 0.372403 0.0183726 0.00692267 0.00619925 5.98608e-05 -0.000186598 -8.24991e-11 8.72249e-11 -1.20891e-12 5e-05 1.46608e-10 
83 1 0.37227 0.0173824 0.00720338 0.00553314 2.51507e-05 -0.000286039 2.88412e-10 1.95332e-10 -1.27556e-10 5e-05 1.46608e-10 
84 1 0.383748 0.0189174 8.10406e-05 -0.00174872 -0.00320734 0.000580153 0 0 -1.43822e-09 5e-05 1.46608e-10 
85 1 0.372381 0.0182756 0.00693343 0.00619053 6.10722e-05 -0.000185418 -1.17171e-10 6.73411e-11 -5.17489e-12 5e-05 1.46608e-10 
86 1 0.378318 0.017659 0.0072491 0.00585673 -0.000200403 0.000687709 -4.88219e-10 3.24206e-10 -1.99457e-10 5e-05 1.46608e-10 
87 1 0.377869 0.016417 0.00774593 0.00560059 -0.00016486 0.000481077 2.76299e-10 2.60474e-12 2.58008e-10 5e-05 1.46608e-10 
88 1 0.378169 0.0177634 0.00728282 0.00596661 -0.000227855 0.000677295 -3.21022e-10 -2.09024e-10 -2.4399e-11 5e-05 1.46608e-10 
89 1 0.37821 0.017957 0.00710975 0.0060775 -0.000207152 0.000719369 -4.93913e-10 3.51467e-10 -1.89741e-10 5e-05 1.46608e-10 
90 1 0.378285 0.0178993 0.00714229 0.00607404 -0.00025795 0.000725858 -5.02207e-10 3.75072e-10 -1.14006e-10 5e-05 1.46608e-10 
91 1 0.372094 0.0170289 0.00744891 0.00555532 0.000152164 -0.000366695 9.7566e-11 8.0884e-11 -8.25717e-11 5e-05 1.46608e-10 
92 1 0.378022 0.0174534 0.0073967 0.00581368 -0.000176779 0.000660279 8.70735e-11 1.24468e-10 1.18685e-10 5e-05 1.46608e-10 
93 1 0.37822 0.0183843 0.0069465 0.00614547 -0.000390418 7.51208e-05 -5.80532e-13 -5.78216e-11 2.99172e-11 5e-05 1.46608e-10 
94 1 0.378073 0.0177349 0.00729565 0.00591846 -0.000155692 0.000620296 2.86506e-11 1.37987e-10 -2.96048e-10 5e-05 1.46608e-10 
95 1 0.378107 0.0175032 0.00729447 0.00588534 -0.000168114 0.000682521 2.79154e-10 4.29682e-10 -2.88682e-10 5e-05 1.46608e-10 
96 1 0.377873 0.0168346 0.00755821 0.00538001 -6.38332e-05 0.000579956 -7.111e-11 -5.15655e-10 2.07621e-10 5e-05 1.46608e-10 
98 1 0.378199 0.0182902 0.00697258 0.00612387 -0.000384033 7.19978e-05 1.74177e-11 -6.67545e-11 -2.40015e-11 5e-05 1.46608e-10 
99 1 0.372032 0.0175523 0.00720643 0.00562178 0.000125311 -0.000368433 -1.08119e-10 2.57615e-10 -4.72728e-10 5e-05 1.46608e-10 
100 1 0.378202 0.0175358 0.00729025 0.00597724 -0.00016379 0.000697927 -4.55962e-10 7.80394e-12 -3.74977e-10 5e-05 1.46608e-10 
101 1 0.372019 0.0174648 0.00716004 0.00570827 0.000168794 -0.000434516 -3.74628e-10 -1.64081e-10 1.88653e-10 5e-05 1.46608e-10 
102 1 0.0643568 0.0187248 0.00531097 4.22993e-15 1.05332e-14 8.29574e-14 -5.21382e-22 -2.53815e-22 5.35599e-23 5e-05 1.46608e-10 
103 1 0.24257 0.0191927 0.00520306 9.7161e-23 -1.27651e-22 -5.81428e-22 0 0 0 5e-05 1.46608e-10 
104 1 0.372316 0.0179849 0.00697179 0.00619435 0.000152929 0.000170901 1.47861e-10 9.06921e-12 1.03442e-10 5e-05 1.46608e-10 
105 1 0.371705 0.0161705 0.00804656 0.00573972 0.000143686 -0.00039889 -1.68179e-10 2.15174e-10 -1.04419e-10 5e-05 1.46608e-10 
106 1 0.372117 0.0178505 0.00709841 0.00617982 0.000410935 -3.66225e-05 2.28578e-11 -3.0549e-11 -1.04179e-10 5e-05 1.46608e-10 
107 1 0.371581 0.0156866 0.00837894 0.0063011 5.06587e-05 -0.000363437 3.26008e-12 -5.37023e-11 -1.46342e-11 5e-05 1.46608e-10 
108 1 0.378094 0.0178332 0.00715113 0.00597678 -0.000108312 0.000662182 -3.11358e-10 -2.93278e-10 7.70932e-11 5e-05 1.46608e-10 
109 1 0.378252 0.0181384 0.00703596 0.00609213 -0.000220891 0.000720731 -9.08358e-11 -1.71834e-10 7.59952e-11 5e-05 1.46608e-10 
110 1 0.378139 0.017577 0.00735556 0.00589004 -0.000236191 0.000740953 4.07273e-10 -5.60663e-11 -9.36336e-10 5e-05 1.46608e-10 
111 1 0.377936 0.0171294 0.00754436 0.00542484 -6.53809e-05 0.000584354 -1.9142e-11 -1.18151e-10 -3.53633e-13 5e-05 1.46608e-10 
112 1 0.371939 0.0163814 0.00789226 0.00576628 7.15943e-05 -0.000350635 -1.28828e-10 2.93727e-10 -1.92181e-10 5e-05 1.46608e-10 
113 1 0.371942 0.0171405 0.00738125 0.00563257 0.000210535 -0.00040822 -5.63288e-12 8.19153e-11 -7.74351e-12 5e-05 1.46608e-10 
114 1 0.37198 0.0173027 0.00727064 0.00567034 0.000211977 -0.000418161 -6.44457e-11 -1.49177e-10 3.1812e-11 5e-05 1.46608e-10 
115 1 0.378062 0.0169007 0.00754916 0.00532269 -7.58139e-05 0.000579479 6.60626e-10 -2.15278e-10 1.75694e-10 5e-05 1.46608e-10 
116 1 0.378046 0.0172309 0.00740547 0.00542146 -6.18537e-05 0.000585509 7.34963e-11 9.98246e-11 -5.19917e-11 5e-05 1.46608e-10 
117 1 0.378161 0.0173545 0.00736402 0.00582392 -0.000186001 0.000673465 -3.61698e-10 -9.91101e-11 -9.48986e-12 5e-05 1.46608e-10 
118 1 0.372151 0.0172722 0.00728296 0.00567248 0.000158052 -0.000376267 -1.28248e-10 8.25821e-12 -1.58744e-11 5e-05 1.46608e-10 
119 1 0.378147 0.0179986 0.00717502 0.0060449 -0.000277622 0.000705706 -1.42513e-10 4.39841e-10 -2.79515e-10 5e-05 1.46608e-10 
120 1 0.378196 0.017115 0.00747069 0.00549687 -0.000159883 0.000633426 -1.71839e-10 6.83728e-11 -5.67982e-11 5e-05 1.46608e-10 
121 1 0.377991 0.017379 0.00733598 0.0057623 -9.45134e-05 0.000632489 2.97086e-11 -5.19842e-11 6.56067e-11 5e-05 1.46608e-10 
122 1 0.377853 0.0167438 0.00759529 0.00536858 -0.000129838 0.000606254 4.53554e-10 -2.08284e-10 1.25897e-10 5e-05 1.46608e-10 
123 1 0.372312 0.0187874 0.00688198 0.00633154 0.000210088 -0.000205943 8.90493e-12 5.74723e-11 -6.90339e-12 5e-05 1.46608e-10 
124 1 0.378256 0.0173871 0.00735977 0.00576638 -0.000282097 0.000706882 -3.76368e-10 2.84362e-10 -1.13102e-10 5e-05 1.46608e-10 
125 1 0.377967 0.0168678 0.00755362 0.00538905 -7.23047e-05 0.000586368 -9.02724e-11 3.22667e-10 -1.3563e-10 5e-05 1.46608e-10 
127 1 0.371644 0.0159284 0.00821279 0.00578961 0.000141424 -0.000395323 -3.53617e-10 -3.21575e-10 2.08403e-10 5e-05 1.46608e-10 
128 1 0.378176 0.0170243 0.00750768 0.00538802 -0.000158074 0.000621792 -4.40703e-10 2.07862e-10 -1.32994e-10 5e-05 1.46608e-10 
129 1 0.378244 0.0177171 0.00721643 0.00586554 -0.000207742 0.000689548 -3.34011e-10 3.87336e-10 -2.02747e-10 5e-05 1.46608e-10 
130 1 0.372075 0.0173276 0.00724942 0.00564908 0.000166422 -0.000384496 -1.35613e-10 1.39077e-10 -4.99497e-11 5e-05 1.46608e-10 
131 1 0.372094 0.0174086 0.00719412 0.00566875 0.000153326 -0.000379572 -9.33723e-12 9.59673e-11 -7.46877e-11 5e-05 1.46608e-10 
132 1 0.378042 0.01681 0.00758622 0.0053089 -7.27233e-05 0.000576845 2.59871e-10 -1.20305e-10 5.98901e-11 5e-05 1.46608e-10 
133 1 0.378043 0.0175441 0.00735982 0.00585599 -0.000204266 0.000699799 -1.66427e-10 1.02303e-11 -1.25973e-10 5e-05 1.46608e-10 
134 1 0.378026 0.0171401 0.00744245 0.00543242 -6.21257e-05 0.000584458 -3.39185e-11 -7.71217e-12 1.79092e-11 5e-05 1.46608e-10 
135 1 0.378177 0.0181965 0.00700328 0.00609484 -0.000251237 0.000731242 -1.63279e-10 -4.08135e-10 1.61359e-10 5e-05 1.46608e-10 
136 1 0.371998 0.0170033 0.00747065 0.00557851 0.000178008 -0.000382603 5.11309e-11 8.90484e-11 -9.54179e-11 5e-05 1.46608e-10 
137 1 0.378162 0.0176697 0.00731891 0.00582528 -0.000205345 0.000691035 -2.17513e-10 -1.29544e-11 -1.67957e-10 5e-05 1.46608e-10 
138 1 0.378002 0.0173644 0.00743757 0.00571792 -0.000243628 0.000481373 2.82174e-10 -2.17437e-10 -4.06707e-11 5e-05 1.46608e-10 
140 1 0.377814 0.0165623 0.00766932 0.00555428 -0.000108256 0.000617866 1.51104e-11 1.85327e-10 -4.88641e-11 5e-05 1.46608e-10 
141 1 0.371978 0.016543 0.00778132 0.00535906 0.000145318 -0.000378815 -4.1204e-10 1.23551e-10 -5.50586e-11 5e-05 1.46608e-10 
142 1 0.37237 0.0178256 0.00701312 0.00598298 9.19939e-05 0.000175049 5.41362e-11 -4.70943e-11 -2.50394e-11 5e-05 1.46608e-10 
143 1 0.371602 0.0157672 0.00832357 0.00627506 5.55124e-05 -0.000366633 -2.11172e-11 -9.12511e-11 -1.12921e-10 5e-05 1.46608e-10 
144 1 0.372318 0.0176379 0.00705804 0.00571256 0.000164274 0.000158243 3.18735e-11 7.88833e-11 2.76185e-11 5e-05 1.46608e-10 
146 1 0.372114 0.017921 0.00716926 0.00603737 0.000369386 0.000112542 -1.84908e-11 1.32031e-11 8.49796e-11 5e-05 1.46608e-10 
147 1 0.372056 0.0172465 0.00730473 0.00563336 0.000166385 -0.00038713 -1.3943e-10 9.30735e-11 -1.58235e-10 5e-05 1.46608e-10 
148 1 0.371997 0.016624 0.00772582 0.00540226 0.000139445 -0.00037684 -3.12206e-10 1.5429e-10 -8.87325e-11 5e-05 1.46608e-10 
149 1 0.377755 0.0163258 0.00783731 0.00568179 -0.000594393 9.81321e-05 7.49193e-12 3.08002e-11 2.79818e-11 5e-05 1.46608e-10 
150 1 0.372138 0.0180115 0.00696957 0.00629548 0.000238493 9.59737e-05 -1.01225e-10 -4.67931e-11 2.21507e-10 5e-05 1.46608e-10 
151 1 0.372058 0.0176321 0.00705769 0.00575073 0.000237193 -0.000272713 -4.90891e-11 -1.44302e-10 5.01677e-11 5e-05 1.46608e-10 
153 1 0.372017 0.0167049 0.0076703 0.0054508 0.000130425 -0.000383966 -3.80482e-11 5.2409e-11 -1.75867e-10 5e-05 1.46608e-10 
154 1 0.371623 0.0158477 0.00826819 0.00599434 0.000107348 -0.000385016 -2.51263e-10 -2.84107e-10 1.58264e-10 5e-05 1.46608e-10 
155 1 0.371997 0.0173915 0.00731498 0.00574219 0.000193579 -0.00042568 2.15916e-11 -3.16355e-11 -1.59021e-10 5e-05 1.46608e-10 
156 1 0.371959 0.0164622 0.00783681 0.0053506 0.000148727 -0.000380754 -5.27687e-10 1.48029e-10 -7.25198e-11 5e-05 1.46608e-10 
157 1 0.0219312 0.0187687 0.00551176 -3.82849e-14 8.17086e-14 2.95882e-13 8.09034e-22 3.06626e-22 2.06795e-23 5e-05 1.46608e-10 
158 1 0.372055 0.0168669 0.00755949 0.00552878 0.000150104 -0.000362065 -1.80036e-10 6.85724e-11 -9.72109e-11 5e-05 1.46608e-10 
159 1 0.377909 0.0165954 0.00766483 0.00556208 -9.41355e-05 0.000612506 -5.74154e-11 -8.61184e-11 2.95065e-11 5e-05 1.46608e-10 
160 1 0.372038 0.0175471 0.00710672 0.00573049 0.000171379 -0.00041109 -1.90342e-10 -2.05979e-10 7.04155e-11 5e-05 1.46608e-10 
162 1 0.37229 0.0186904 0.00689275 0.00632836 0.000210006 -0.000205815 3.36016e-12 2.54211e-12 -1.85427e-12 5e-05 1.46608e-10 
165 1 0.372194 0.0178744 0.00703321 0.00597402 0.000299686 0.000194552 -3.37828e-10 1.07539e-10 -1.89334e-10 5e-05 1.46608e-10 
166 1 0.377912 0.0170162 0.00748407 0.00542051 -8.69183e-05 0.000592081 -5.35722e-11 -6.18699e-11 1.06026e-11 5e-05 1.46608e-10 
167 1 0.372285 0.0182445 0.00693949 0.00627975 0.000146038 -0.000199377 5.21428e-11 6.28532e-11 -5.32386e-11 5e-05 1.46608e-10 
168 1 0.372328 0.0184386 0.00691795 0.00628643 0.000160559 -0.000199112 3.72626e-11 1.35724e-10 -9.15746e-12 5e-05 1.46608e-10 
169 1 0.372096 0.0178195 0.00700563 0.0056641 0.000363465 9.19455e-05 -5.42245e-11 -1.2348e-11 -1.69942e-11 5e-05 1.46608e-10 
170 1 0.372263 0.0181475 0.00695026 0.00629352 0.00017287 -0.000201748 -1.09701e-10 -5.60563e-12 7.49855e-12 5e-05 1.46608e-10 
171 1 0.37817 0.0177757 0.00718359 0.00588938 -0.0001931 0.000683857 -2.71663e-10 3.06643e-10 -1.41533e-10 5e-05 1.46608e-10 
172 1 0.371923 0.0170595 0.00743654 0.00561683 0.000209059 -0.000409802 -5.18222e-11 1.00324e-10 -6.7351e-11 5e-05 1.46608e-10 
173 1 0.378273 0.0182289 0.00699916 0.00601606 -0.000237731 0.000721851 1.58888e-10 1.04538e-11 2.78824e-11 5e-05 1.46608e-10 
174 1 0.371947 0.0170622 0.00753345 0.00559176 0.000207017 -0.000403006 -1.24617e-10 6.27537e-11 -1.37495e-10 5e-05 1.46608e-10 
176 1 0.372275 0.0178245 0.00711122 0.00602696 0.000227902 0.000111545 -3.13032e-11 -3.01679e-11 8.12702e-11 5e-05 1.46608e-10 
177 1 0.371685 0.0160898 0.00810197 0.00573526 0.000142295 -0.000394559 3.28415e-10 -1.51391e-11 1.10924e-11 5e-05 1.46608e-10 
178 1 0.372123 0.0177155 0.00713198 0.00564802 0.000364358 -3.33237e-05 -1.08311e-11 -1.82911e-13 -9.70886e-11 5e-05 1.46608e-10 
179 1 0.37236 0.0181786 0.0069442 0.00620427 5.6194e-05 -0.000185036 2.47875e-11 4.61936e-11 -3.72313e-11 5e-05 1.46608e-10 
182 1 0.378032 0.017561 0.00726189 0.00586988 -0.000142985 0.000678156 6.62324e-12 2.2723e-10 -1.09199e-10 5e-05 1.46608e-10 
183 1 0.372278 0.0179622 0.0070616 0.00601452 0.000227368 0.000123991 -7.85521e-11 -2.01452e-11 3.03651e-11 5e-05 1.46608e-10 
184 1 0.378306 0.01799 0.00710541 0.00610498 -0.000204042 0.00071509 -1.1329e-10 1.61985e-10 -7.38541e-11 5e-05 1.46608e-10 
185 1 0.372339 0.0177331 0.00703508 0.00585544 0.000134616 0.00016163 -3.8905e-11 1.36462e-11 4.54127e-12 5e-05 1.46608e-10 
186 1 0.372225 0.0183994 0.00692505 0.00632379 0.000213968 -0.000205841 1.42434e-12 5.87065e-12 -2.62862e-11 5e-05 1.46608e-10 
187 1 0.378012 0.0174704 0.00729877 0.00581776 -0.000136085 0.000658815 -4.96254e-12 2.75426e-10 -2.47002e-11 5e-05 1.46608e-10 
188 1 0.377948 0.016777 0.0075907 0.0053683 -5.48376e-05 0.000574767 4.62595e-10 2.27268e-10 -5.28869e-11 5e-05 1.46608e-10 
189 1 0.377971 0.0172905 0.00737803 0.0054232 -0.000110879 0.000466891 1.91053e-11 -2.64879e-11 -1.12053e-10 5e-05 1.46608e-10 
190 1 0.366233 0.0184358 0.00698533 0.00618265 -1.35173e-05 5.2407e-05 -1.02742e-11 -3.6603e-11 -1.51838e-12 5e-05 1.46608e-10 
191 1 0.378097 0.0173958 0.00742934 0.00584007 -0.000160151 0.000656288 -7.71068e-11 4.26074e-11 -1.2902e-10 5e-05 1.46608e-10 
192 1 0.371961 0.0172216 0.00732594 0.0056468 0.000214813 -0.000412662 -5.57559e-11 -1.89862e-11 1.55126e-11 5e-05 1.46608e-10 
193 1 0.37819 0.0178663 0.0071467 0.00597383 -0.000192704 0.000695558 -2.6559e-10 3.54566e-10 -1.1077e-10 5e-05 1.46608e-10 
194 1 0.372306 0.0183416 0.00692872 0.0062761 0.000153246 -0.000198137 -5.53066e-11 6.4135e-12 -1.10615e-11 5e-05 1.46608e-10 
195 1 0.372152 0.0176629 0.00704635 0.00573834 0.000387284 8.47405e-05 -1.24544e-10 -2.32977e-11 3.39647e-12 5e-05 1.46608e-10 
196 1 0.372243 0.0177033 0.00703932 0.00580879 0.00024726 0.000130491 -1.61382e-10 9.95537e-11 -3.79904e-11 5e-05 1.46608e-10 
197 1 0.365911 0.0170301 0.00751363 0.00549113 0.000120863 -0.000122131 9.76342e-11 3.95285e-11 -3.43889e-11 5e-05 1.46608e-10 
198 1 0.372465 0.0178564 0.00700862 0.0060128 -1.70579e-05 0.00020253 1.28501e-10 -8.43083e-11 2.88347e-11 5e-05 1.46608e-10 
199 1 0.372219 0.017953 0.00697651 0.00624235 0.000187816 0.000156213 -1.9338e-10 8.09786e-11 -1.12236e-10 5e-05 1.46608e-10 
200 1 0.371664 0.0160091 0.00815738 0.00572583 0.000145284 -0.000393429 1.8932e-10 -1.78379e-10 7.43188e-11 5e-05 1.46608e-10 
201 1 0.37217 0.0177732 0.00705509 0.00575751 0.000138688 -0.000252717 -2.06834e-10 -1.50436e-10 3.3887e-11 5e-05 1.46608e-10 
202 1 0.372074 0.0169479 0.00750419 0.00555642 0.00014926 -0.00036633 1.00318e-10 3.86603e-11 -3.25626e-11 5e-05 1.46608e-10 
203 1 0.378007 0.0170494 0.00747951 0.00539137 -5.78268e-05 0.000578233 -4.06999e-10 -1.90921e-10 3.54819e-11 5e-05 1.46608e-10 
204 1 0.372412 0.0180156 0.00696735 0.00613295 6.85253e-05 0.000185986 -1.80839e-10 -9.10681e-11 8.94307e-12 5e-05 1.46608e-10 
205 1 0.371882 0.0165177 0.00780343 0.00537641 0.000167398 -0.000394882 -1.21575e-10 1.75618e-10 -1.18002e-10 5e-05 1.46608e-10 
206 1 0.371921 0.0166795 0.00769244 0.0054208 0.000171544 -0.000400615 -2.68996e-10 1.30836e-10 -8.21055e-11 5e-05 1.46608e-10 
207 1 0.371726 0.0162511 0.00799116 0.00572 0.000147724 -0.000401035 2.46762e-10 2.55059e-10 -1.61161e-10 5e-05 1.46608e-10 
208 1 0.372132 0.0171911 0.00733827 0.00562925 0.00015763 -0.000370785 -1.94047e-10 9.44238e-11 -6.51239e-11 5e-05 1.46608e-10 
209 1 0.371903 0.0169785 0.00749197 0.00557716 0.000205768 -0.000421066 -5.449e-11 9.02014e-11 -3.19708e-11 5e-05 1.46608e-10 
210 1 0.377983 0.0165376 0.00769742 0.005563 -8.26754e-05 0.000607535 1.51764e-10 -1.2446e-11 9.79279e-12 5e-05 1.46608e-10 
211 1 0.377774 0.0163952 0.00776789 0.00560926 -0.000415162 0.000267923 2.2826e-11 3.85035e-10 2.86711e-10 5e-05 1.46608e-10 
212 1 0.372338 0.0180818 0.0069571 0.00618273 -5.67144e-06 -0.000645839 3.58509e-12 7.60992e-11 -1.80516e-10 5e-05 1.46608e-10 
213 1 0.377951 0.0171977 0.00740996 0.0054266 -7.05335e-05 0.0005901 4.9103e-11 7.83823e-11 -7.23837e-11 5e-05 1.46608e-10 
214 1 0.378141 0.0172638 0.00740102 0.00568899 -0.000155677 0.000650974 6.33263e-11 6.83084e-11 9.19875e-12 5e-05 1.46608e-10 
215 1 0.366127 0.0179478 0.00696947 0.00595284 3.29247e-05 -5.31429e-05 3.3124e-11 9.22575e-12 -6.74056e-13 5e-05 1.46608e-10 
217 1 0.378053 0.0176517 0.00722501 0.00588311 -0.000175877 0.000698054 8.79054e-11 3.28851e-10 -1.37876e-10 5e-05 1.46608e-10 
218 1 0.372 0.0173837 0.00721533 0.00568722 0.000196813 -0.00041575 -1.53038e-10 -1.9513e-10 8.81071e-11 5e-05 1.46608e-10 
219 1 0.378216 0.0172058 0.00743364 0.00556987 -0.000259606 0.000683845 1.63021e-11 3.84409e-13 2.06224e-11 5e-05 1.46608e-10 
220 1 0.372114 0.0174904 0.00713993 0.00568651 0.000153343 -0.00038336 1.3109e-11 -4.60601e-11 4.26938e-11 5e-05 1.46608e-10 
222 1 0.378224 0.0176264 0.00725344 0.00582973 -0.000201524 0.000689032 -3.25397e-11 4.15419e-10 -2.17069e-10 5e-05 1.46608e-10 
224 1 0.371827 0.0166548 0.007714 0.00543228 0.000214531 -0.000429339 1.03953e-10 4.95621e-11 -3.6542e-11 5e-05 1.46608e-10 
225 1 0.378057 0.0172133 0.00750334 0.00543331 -6.97137e-05 0.0005855 -5.29806e-11 3.0803e-11 1.65804e-11 5e-05 1.46608e-10 
226 1 0.372355 0.0178977 0.00708082 0.00606055 0.000104536 0.000181389 1.39197e-11 -2.30864e-10 7.18614e-13 5e-05 1.46608e-10 
227 1 0.366147 0.0180459 0.00697148 0.0062527 -2.92383e-05 5.19438e-05 1.95008e-11 1.50924e-11 -4.45998e-12 5e-05 1.46608e-10 
228 1 0.366096 0.0177676 0.00703505 0.00560427 0.000100064 -0.000110253 -2.24984e-11 8.01425e-12 -2.06269e-11 5e-05 1.46608e-10 
229 1 0.372203 0.0183024 0.00693581 0.00631935 0.000210723 -0.000208848 -4.18065e-11 -8.50503e-12 8.34029e-12 5e-05 1.46608e-10 
230 1 0.371967 0.0171432 0.00747817 0.00561406 0.000206674 -0.000401228 9.43972e-11 1.52807e-11 -6.42515e-11 5e-05 1.46608e-10 
232 1 0.372241 0.0180507 0.00696313 0.00626789 0.000212728 0.000110056 2.46695e-11 4.57095e-11 1.62466e-10 5e-05 1.46608e-10 
233 1 0.372198 0.0180223 0.00704877 0.00620622 0.000362755 0.000137433 -2.07654e-10 4.31897e-11 1.43929e-10 5e-05 1.46608e-10 
234 1 0.378136 0.0180153 0.00707704 0.00605907 -0.000183753 0.000708532 -1.70726e-10 1.17873e-11 -1.74245e-10 5e-05 1.46608e-10 
235 1 0.371807 0.0165739 0.00776948 0.00544422 0.000217625 -0.000432034 8.87448e-11 9.74109e-11 -7.38051e-11 5e-05 1.46608e-10 
236 1 0.37219 0.0174343 0.00717237 0.00565855 0.00015683 -0.000366747 1.69436e-10 8.93284e-12 1.77219e-10 5e-05 1.46608e-10 
237 1 0.371884 0.0168976 0.00754747 0.00553895 0.000199851 -0.000425855 -1.69157e-10 1.2066e-10 -1.71803e-11 5e-05 1.46608e-10 
239 1 0.365813 0.0166187 0.00778054 0.00536017 0.000151481 -0.000141478 -9.49097e-11 -7.40802e-11 4.05187e-11 5e-05 1.46608e-10 
240 1 0.365872 0.0168656 0.00762035 0.0054434 0.00013175 -0.000129729 -7.83148e-11 -4.46786e-11 6.86275e-12 5e-05 1.46608e-10 
241 1 0.365794 0.0165365 0.00783389 0.00572469 8.84498e-05 -0.000103735 -6.48017e-11 1.34831e-10 -8.80043e-11 5e-05 1.46608e-10 
242 1 0.372532 0.0177847 0.00702861 0.00592833 -7.76336e-05 0.000214575 1.37327e-10 -1.30071e-10 2.30303e-11 5e-05 1.46608e-10 
243 1 0.372227 0.0175988 0.00706474 0.00565438 0.000303226 0.000108799 -3.22681e-11 3.87581e-11 9.85874e-12 5e-05 1.46608e-10 
244 1 0.365833 0.016701 0.00772714 0.00537601 0.000149567 -0.000140578 9.5371e-11 -4.49415e-11 2.39834e-11 5e-05 1.46608e-10 
246 1 0.366008 0.0174412 0.00724691 0.00558976 0.00010537 -0.000113344 -3.21692e-11 2.98129e-11 -2.24475e-11 5e-05 1.46608e-10 
247 1 0.371746 0.0163318 0.00793575 0.00574668 0.000142229 -0.000397362 -9.80762e-11 2.08718e-10 -1.4436e-10 5e-05 1.46608e-10 
248 1 0.372076 0.0176269 0.00715592 0.00572882 0.000150287 -0.000255073 2.58528e-10 1.92654e-10 -2.21318e-10 5e-05 1.46608e-10 
249 1 0.365949 0.0171948 0.00740679 0.00552128 0.000113685 -0.00011796 -6.07314e-11 -1.16699e-11 4.61881e-12 5e-05 1.46608e-10 
250 1 0.371841 0.0163554 0.00791487 0.00578402 9.14678e-05 -0.000364717 -1.34636e-10 1.48053e-10 -8.90386e-11 5e-05 1.46608e-10 
251 1 0.377987 0.0169586 0.00751657 0.00542974 -7.91197e-05 0.000595192 -1.29337e-11 7.40082e-11 -5.58716e-12 5e-05 1.46608e-10 
252 1 0.366034 0.0175221 0.0071944 0.00560954 9.98092e-05 -0.000109461 4.59259e-11 7.17259e-12 -7.84439e-12 5e-05 1.46608e-10 
253 1 0.366211 0.0183382 0.00698187 0.00619989 -1.76333e-05 5.24509e-05 9.60126e-12 -2.38782e-11 -1.45897e-12 5e-05 1.46608e-10 
254 1 0.365975 0.0172757 0.0073542 0.00553837 0.000112072 -0.000117395 6.81299e-11 -2.42392e-11 1.25666e-11 5e-05 1.46608e-10 
255 1 0.372223 0.0177391 0.00713265 0.00580537 0.000277354 -0.00022212 -1.40052e-10 -1.04717e-10 -1.09247e-10 5e-05 1.46608e-10 
256 1 0.372434 0.0181115 0.00694905 0.00615612 9.9648e-07 -0.000179959 -1.92977e-10 -1.22214e-10 3.70263e-11 5e-05 1.46608e-10 
257 1 0.372036 0.0167858 0.00761483 0.00548971 0.000137734 -0.000373144 -2.83052e-11 5.36854e-12 -2.4045e-10 5e-05 1.46608e-10 
258 1 0.372189 0.0176415 0.00714676 0.00565393 0.000386673 4.94725e-05 -6.19313e-11 8.56316e-11 -1.79302e-10 5e-05 1.46608e-10 
259 1 0.366046 0.0176055 0.00714047 0.00562104 9.73294e-05 -0.000106601 -3.28511e-12 -1.16874e-11 -1.15828e-11 5e-05 1.46608e-10 
260 1 0.372077 0.0177292 0.00704411 0.00567566 0.000294573 -4.77552e-05 -1.77809e-10 -4.685e-11 5.6372e-11 5e-05 1.46608e-10 
261 1 0.37212 0.0174123 0.00729066 0.00569638 0.000125537 -0.00037496 -3.18756e-11 -4.82832e-11 -2.30672e-10 5e-05 1.46608e-10 
262 1 0.371962 0.0172283 0.0074257 0.00566194 0.000234194 -0.000419537 -2.1335e-11 1.06491e-10 -5.58897e-12 5e-05 1.46608e-10 
263 1 0.36593 0.0171125 0.00746018 0.00550334 0.000114174 -0.00011886 -1.89394e-11 -4.88902e-12 -7.26658e-12 5e-05 1.46608e-10 
264 1 0.372043 0.0174668 0.00725711 0.00557292 8.53159e-05 -0.000401047 -1.68595e-10 3.83612e-10 -8.85508e-11 5e-05 1.46608e-10 
265 1 0.366307 0.0183683 0.00698369 0.00619396 -2.85222e-07 5.29322e-05 7.94469e-12 -2.80842e-11 -7.84114e-13 5e-05 1.46608e-10 
266 1 0.372133 0.0175759 0.00709181 0.00572758 0.000197326 -0.000287184 1.14046e-10 -2.52397e-10 -1.06848e-10 5e-05 1.46608e-10 