ITEM: TIMESTEP
58800000
ITEM: NUMBER OF ATOMS
275
ITEM: BOX BOUNDS ff ff ff
-0.02 0.43
-0.02 0.06
-0.02 0.07
ITEM: ATOMS id type x y z vx vy vz fx fy fz radius mass 
1 1 0.356038 0.0178172 0.00705828 0.00552162 -0.000433 -9.63761e-05 -4.08552e-10 4.32355e-10 -2.00554e-10 5e-05 1.46608e-10 
2 1 0.355816 0.0171747 0.00749739 0.00618819 -0.000502756 -0.000138231 1.35502e-10 2.57281e-10 7.96023e-11 5e-05 1.46608e-10 
4 1 0.355933 0.0169503 0.00751146 0.0058996 -3.70968e-05 -0.000316836 -7.37559e-10 1.7139e-10 -1.00083e-10 5e-05 1.46608e-10 
5 1 0.355485 0.0160727 0.00833632 0.00566652 0.000357469 0.00106749 5.02736e-10 3.52284e-10 -2.77942e-11 5e-05 1.46608e-10 
6 1 0.361779 0.0171062 0.00745904 0.00613316 0.000193546 -3.62179e-05 -4.12735e-12 -1.76821e-12 8.9134e-13 5e-05 1.46608e-10 
7 1 0.356099 0.0176454 0.00714339 0.00551424 -6.18738e-05 -0.000286225 4.66096e-11 -3.35475e-10 2.35981e-10 5e-05 1.46608e-10 
8 1 0.355745 0.0166472 0.00776116 0.00592743 0.000434143 0.00104116 -2.28162e-11 8.4944e-11 -2.03186e-10 5e-05 1.46608e-10 
9 1 0.361974 0.0179409 0.00694445 0.00575596 0.000256617 -8.00876e-05 5.46843e-12 -4.32523e-12 2.0334e-12 5e-05 1.46608e-10 
10 1 0.355724 0.0165794 0.00783155 0.00594013 0.000433911 0.00104729 -1.02433e-10 2.31853e-10 -2.95091e-10 5e-05 1.46608e-10 
11 1 0.356169 0.0182766 0.0069953 0.0055047 -0.00019751 0.000368267 -1.2548e-10 8.12065e-11 3.9608e-11 5e-05 1.46608e-10 
12 1 0.349995 0.017193 0.00734347 0.00560968 -0.00029917 7.60526e-06 3.43972e-11 2.82125e-11 -8.62158e-12 5e-05 1.46608e-10 
13 1 0.355464 0.0160048 0.00840681 0.00562638 0.000361655 0.00106082 -1.66434e-10 1.28609e-10 -2.87842e-10 5e-05 1.46608e-10 
14 1 0.349946 0.0173592 0.00728824 0.00555813 -0.000398632 4.23063e-05 -1.25823e-11 2.5528e-11 -3.05426e-12 5e-05 1.46608e-10 
16 1 0.350189 0.0181077 0.00703179 0.00549502 -0.000303114 1.00424e-05 -1.35943e-10 -1.07353e-10 2.53257e-11 5e-05 1.46608e-10 
17 1 0.355588 0.0164118 0.00798385 0.00585978 0.000403265 0.00105392 -3.98033e-10 -3.32911e-10 -1.62198e-10 5e-05 1.46608e-10 
19 1 0.355443 0.015937 0.00847731 0.0055719 0.000345993 0.00105541 -5.65322e-11 1.07632e-10 -4.83209e-11 5e-05 1.46608e-10 
21 1 0.35598 0.017555 0.00719684 0.00549456 -0.000315104 -0.000156159 -2.50358e-11 4.44699e-11 -4.38938e-11 5e-05 1.46608e-10 
22 1 0.356117 0.0173275 0.00730634 0.00599278 -5.83516e-06 -0.000338979 1.66995e-11 -2.79649e-10 1.3827e-10 5e-05 1.46608e-10 
23 1 0.350266 0.0180462 0.00705127 0.0055327 -0.000259009 -4.61175e-06 -1.6086e-11 -1.18731e-11 -7.78798e-13 5e-05 1.46608e-10 
24 1 0.361902 0.017606 0.00715099 0.00581158 0.000251961 -7.67559e-05 -4.92771e-13 6.05843e-12 -4.24335e-12 5e-05 1.46608e-10 
25 1 0.355854 0.0166937 0.00773736 0.00592074 0.000389055 0.00109765 -2.75916e-10 2.98893e-10 -4.77936e-10 5e-05 1.46608e-10 
26 1 0.36194 0.0177732 0.00704787 0.00591389 0.000234048 -6.43669e-05 5.06638e-12 5.02395e-13 1.80783e-13 5e-05 1.46608e-10 
27 1 0.349835 0.0168857 0.00744977 0.00613 -0.000453895 5.01883e-05 -7.87185e-11 1.06551e-10 -1.1516e-11 5e-05 1.46608e-10 
28 1 0.355693 0.0167627 0.00764531 0.00601056 9.75878e-05 0.000714601 -4.26934e-10 -3.50365e-10 2.70025e-11 5e-05 1.46608e-10 
29 1 0.355423 0.0158692 0.0085478 0.00552658 0.000337842 0.00105291 -2.77981e-11 -1.53402e-10 7.49198e-11 5e-05 1.46608e-10 
30 1 0.355706 0.0168538 0.00768802 0.00593861 3.53987e-06 5.78072e-05 1.63933e-10 -3.45194e-10 4.01326e-10 5e-05 1.46608e-10 
31 1 0.356 0.017643 0.00715033 0.0055217 -0.000344925 -0.000140349 9.28624e-11 5.16107e-11 2.24645e-11 5e-05 1.46608e-10 
32 1 0.355609 0.0164797 0.00791342 0.00597188 0.000409254 0.00109222 4.12002e-10 -6.30866e-11 1.358e-10 5e-05 1.46608e-10 
33 1 0.361801 0.0171893 0.00740783 0.00614243 0.000191388 -3.48264e-05 2.7812e-13 6.64306e-12 -3.02013e-12 5e-05 1.46608e-10 
34 1 0.355568 0.016344 0.00805434 0.00580131 0.00040347 0.00104553 3.84705e-10 1.22958e-10 -1.34684e-10 5e-05 1.46608e-10 
35 1 0.356039 0.0173855 0.00728085 0.00590679 -0.000115476 -0.00027656 6.33139e-11 -2.45994e-11 2.98562e-11 5e-05 1.46608e-10 
36 1 0.362035 0.0182345 0.00695647 0.00573933 0.000262611 -7.929e-05 2.69539e-14 -2.5653e-12 -6.84594e-14 5e-05 1.46608e-10 
37 1 0.355899 0.0168293 0.00759753 0.00615773 0.000436878 0.00113154 -5.13734e-11 2.22069e-11 -2.01581e-10 5e-05 1.46608e-10 
38 1 0.355997 0.0172088 0.00737447 0.00597177 -0.000436158 -0.000109034 -1.20226e-10 -6.57264e-11 3.71469e-11 5e-05 1.46608e-10 
39 1 0.361921 0.0176896 0.00709945 0.00588199 0.000239841 -6.83623e-05 2.02107e-11 7.7969e-14 5.89197e-13 5e-05 1.46608e-10 
41 1 0.355526 0.0162083 0.00819533 0.00573833 0.000395644 0.00105456 -6.65409e-10 -2.44097e-10 -2.80386e-10 5e-05 1.46608e-10 
42 1 0.356195 0.0176737 0.00712324 0.00546761 -8.55257e-05 -0.000271727 -1.13232e-10 -7.73279e-11 5.45166e-11 5e-05 1.46608e-10 
44 1 0.356235 0.0178515 0.00702927 0.00561312 -7.97623e-05 -0.000282384 7.78303e-10 -3.73409e-10 4.3997e-11 5e-05 1.46608e-10 
45 1 0.361822 0.0172724 0.00735662 0.00615221 0.00018977 -3.37235e-05 7.68942e-12 1.11822e-11 -9.26116e-12 5e-05 1.46608e-10 
47 1 0.355547 0.0162762 0.00812484 0.00581452 0.000414605 0.00105557 3.65059e-10 3.68191e-10 -2.07665e-10 5e-05 1.46608e-10 
48 1 0.355845 0.0173558 0.00730735 0.00602852 -0.000457682 -0.00010779 2.91875e-11 5.59516e-11 -6.7782e-11 5e-05 1.46608e-10 
49 1 0.361995 0.0180387 0.00694843 0.00574865 0.000258813 -7.97365e-05 2.25492e-11 -9.20398e-12 8.11362e-13 5e-05 1.46608e-10 
50 1 0.35563 0.0165475 0.00784287 0.00595933 0.000406364 0.00109755 2.63285e-10 1.6627e-10 1.18975e-11 5e-05 1.46608e-10 
51 1 0.356248 0.0183363 0.00701176 0.00548456 -0.000152183 0.000376517 -1.98106e-10 3.00258e-10 -3.70591e-12 5e-05 1.46608e-10 
52 1 0.350164 0.0188876 0.00687336 0.00558282 -0.000402859 3.42287e-05 1.47169e-12 -5.36947e-11 -2.87261e-11 5e-05 1.46608e-10 
53 1 0.361865 0.0174388 0.00725411 0.00570817 0.000268714 -8.86388e-05 -1.33049e-11 9.16001e-12 -6.34082e-12 5e-05 1.46608e-10 
54 1 0.356071 0.018136 0.00704508 0.00559003 -0.000301038 0.000371265 -1.66335e-10 1.23141e-10 -3.2359e-11 5e-05 1.46608e-10 
55 1 0.350186 0.0173819 0.00727664 0.00561071 -0.000305216 1.03238e-05 -4.09698e-11 2.18991e-10 -8.54624e-11 5e-05 1.46608e-10 
56 1 0.35598 0.0179712 0.00700586 0.00557304 -0.000364334 -6.10872e-05 -1.94539e-11 1.46233e-10 -1.07796e-10 5e-05 1.46608e-10 
57 1 0.361844 0.0173555 0.00730541 0.00616294 0.000188595 -3.27205e-05 -1.18505e-13 1.21371e-11 -6.90696e-12 5e-05 1.46608e-10 
59 1 0.378022 0.019866 0.005332 -5.0195e-15 -7.41213e-15 7.69802e-14 -1.2007e-23 6.20385e-24 0 5e-05 1.46608e-10 
60 1 0.356263 0.0180216 0.00695665 0.00560673 -0.00023151 0.000376096 1.41547e-10 -5.41148e-12 -1.18887e-10 5e-05 1.46608e-10 
61 1 0.355506 0.0161405 0.00826583 0.00567405 0.000352851 0.00105332 2.13462e-10 1.38487e-11 9.92936e-11 5e-05 1.46608e-10 
62 1 0.356018 0.0172991 0.00732661 0.00608172 -0.000171414 -0.000258975 1.49493e-10 -9.20326e-12 4.44195e-11 5e-05 1.46608e-10 
63 1 0.356055 0.0179054 0.0070118 0.00560349 -0.000320963 -0.000167748 2.83207e-11 1.56558e-10 -1.7775e-10 5e-05 1.46608e-10 
64 1 0.361884 0.0175223 0.00720258 0.00574077 0.000263261 -8.48598e-05 -4.08964e-11 1.3502e-11 -1.06347e-11 5e-05 1.46608e-10 
65 1 0.34992 0.0172557 0.00732359 0.00559293 -0.000320347 1.52914e-05 7.79144e-11 7.19125e-11 -2.24198e-11 5e-05 1.46608e-10 
66 1 0.350146 0.0187894 0.00686811 0.00557882 -0.000401394 3.50007e-05 2.88861e-11 -4.47472e-11 -3.67012e-11 5e-05 1.46608e-10 
67 1 0.356167 0.017994 0.00695974 0.00556335 -0.000133595 -0.000192423 4.77827e-10 -8.14112e-11 8.1625e-10 5e-05 1.46608e-10 
68 1 0.355833 0.0169509 0.00751774 0.00598017 -0.000573153 -0.000271156 1.71839e-10 -2.64531e-10 3.4064e-11 5e-05 1.46608e-10 
69 1 0.356073 0.0184307 0.00701572 0.00540624 -0.000206502 0.000363794 -5.22972e-11 -2.38856e-10 2.69888e-11 5e-05 1.46608e-10 
70 1 0.361958 0.017857 0.0069962 0.00576698 0.000254987 -7.9318e-05 -2.55296e-12 -3.4213e-12 2.58582e-12 5e-05 1.46608e-10 
71 1 0.350239 0.0188233 0.00685525 0.0055893 -0.000429134 2.81443e-05 -4.97234e-13 -5.76474e-11 -1.2985e-11 5e-05 1.46608e-10 
72 1 0.356019 0.0181623 0.00696381 0.00561094 -0.000300527 0.000361721 5.05627e-11 -1.63416e-10 -1.09153e-10 5e-05 1.46608e-10 
73 1 0.356176 0.0175867 0.00716924 0.00562808 7.46682e-05 -0.0003645 3.90021e-10 -3.27502e-10 2.01776e-10 5e-05 1.46608e-10 
74 1 0.355685 0.016774 0.00774433 0.00590325 0.000519167 0.00061546 -5.76143e-10 9.40276e-10 1.24931e-09 5e-05 1.46608e-10 
76 1 0.349857 0.0169781 0.00741823 0.006107 -0.000442823 4.88415e-05 2.83339e-11 4.10348e-12 -1.30652e-11 5e-05 1.46608e-10 
77 1 0.355961 0.0172871 0.00742524 0.00631832 -0.000196261 -0.000210565 -1.51822e-10 -5.88588e-11 4.61968e-11 5e-05 1.46608e-10 
78 1 0.349444 0.0158815 0.00837097 0.00566164 -0.000542947 0.000192734 -2.40818e-10 -1.09187e-11 -3.56131e-11 5e-05 1.46608e-10 
79 1 0.350087 0.0185033 0.00690005 0.0055304 -0.000397064 4.30938e-05 1.34551e-10 2.32042e-10 -6.95091e-11 5e-05 1.46608e-10 
80 1 0.355788 0.0167831 0.00762042 0.00589417 0.000180248 0.00131715 1.48799e-10 -6.92123e-11 2.10582e-10 5e-05 1.46608e-10 
82 1 0.350295 0.0186722 0.00683969 0.00557997 -0.000410651 4.58945e-05 8.23992e-11 8.25533e-11 -7.32061e-12 5e-05 1.46608e-10 
83 1 0.350105 0.0173274 0.00729635 0.00559891 -0.000301319 9.6004e-06 -1.64054e-11 2.56699e-10 -8.29574e-11 5e-05 1.46608e-10 
84 1 0.362015 0.0181366 0.00695246 0.00574439 0.000260474 -7.94402e-05 3.58012e-12 -4.30484e-12 -9.8748e-14 5e-05 1.46608e-10 
85 1 0.350282 0.018572 0.00687367 0.00563011 -0.000329959 1.84768e-05 -1.00113e-10 -1.42161e-10 4.43257e-11 5e-05 1.46608e-10 
86 1 0.356215 0.017761 0.00707715 0.00550696 -0.000150694 -0.000236165 -3.32297e-10 8.57497e-11 -3.68991e-11 5e-05 1.46608e-10 
87 1 0.355768 0.016715 0.00769124 0.00595507 0.000418062 0.00104732 -8.29051e-11 6.06066e-12 -1.26844e-10 5e-05 1.46608e-10 
88 1 0.356122 0.0178297 0.00714984 0.00544199 -4.84895e-05 -0.000269821 1.87565e-10 1.43227e-10 3.72738e-10 5e-05 1.46608e-10 
89 1 0.356112 0.0181965 0.00697679 0.00556509 -0.000238361 0.000365924 3.77317e-12 -5.01016e-11 -2.66054e-11 5e-05 1.46608e-10 
90 1 0.356191 0.0180909 0.00696374 0.00561726 -0.000187947 0.000369208 3.22167e-10 1.48811e-10 7.07804e-11 5e-05 1.46608e-10 
91 1 0.349975 0.0171004 0.00737504 0.00607155 -0.000421824 4.23589e-05 6.42577e-11 -2.36961e-11 2.48384e-12 5e-05 1.46608e-10 
92 1 0.355888 0.0174303 0.0073584 0.00587135 -0.000386388 -0.000145578 -6.14937e-11 1.63973e-10 -1.39887e-10 5e-05 1.46608e-10 
93 1 0.356192 0.0185673 0.00704891 0.00539842 -0.00019375 0.000363762 -1.11127e-10 -2.34821e-11 -2.55612e-13 5e-05 1.46608e-10 
94 1 0.35595 0.0176952 0.00722008 0.0054508 -0.00043218 -0.000121343 1.04019e-10 -6.0116e-11 -3.84847e-11 5e-05 1.46608e-10 
95 1 0.356019 0.01773 0.00710437 0.00545911 -0.000403271 -0.000104687 -1.12969e-10 5.18559e-11 -8.34365e-12 5e-05 1.46608e-10 
96 1 0.35578 0.0170971 0.00744452 0.00603462 -0.000464035 -0.000108476 -1.22558e-10 -2.10351e-10 6.31771e-11 5e-05 1.46608e-10 
97 1 0.349664 0.0162323 0.00784688 0.00608224 -0.000592266 0.000228351 -1.59408e-10 -3.52744e-10 4.62143e-10 5e-05 1.46608e-10 
98 1 0.356112 0.018627 0.00705368 0.00541057 -0.000171059 0.00036815 2.67193e-11 1.93515e-10 1.92443e-11 5e-05 1.46608e-10 
99 1 0.349916 0.0176816 0.00721252 0.00567723 -0.000358879 3.36814e-05 -3.66796e-11 -1.73895e-11 2.44184e-11 5e-05 1.46608e-10 
100 1 0.356118 0.0177321 0.00709753 0.00547539 -7.64543e-05 -0.000275005 -2.01668e-10 -2.36109e-10 1.55319e-10 5e-05 1.46608e-10 
101 1 0.349934 0.01776 0.00715325 0.00568027 -0.000369413 2.57854e-05 2.68167e-10 8.77939e-11 -3.0719e-10 5e-05 1.46608e-10 
102 1 0.0643568 0.0187248 0.00531097 4.07069e-15 1.05288e-14 8.29664e-14 1.61389e-21 -3.85208e-22 -3.16397e-23 5e-05 1.46608e-10 
103 1 0.24257 0.0191927 0.00520306 -1.01195e-22 -6.56601e-22 -5.81428e-22 0 0 0 5e-05 1.46608e-10 
104 1 0.350226 0.018293 0.00696869 0.00551779 -0.000313176 1.47288e-05 1.28392e-10 -1.65143e-10 4.57756e-11 5e-05 1.46608e-10 
105 1 0.349645 0.0161769 0.00792798 0.00596635 -0.000586367 0.000217781 -4.30449e-10 -3.61046e-10 5.2131e-10 5e-05 1.46608e-10 
106 1 0.350023 0.0179533 0.00717647 0.0056285 -0.000132369 -9.51631e-05 -7.06809e-10 3.70351e-10 2.70532e-10 5e-05 1.46608e-10 
107 1 0.349463 0.0159368 0.00828995 0.00575488 -0.000560796 0.000215535 -3.05618e-10 8.8128e-11 -4.27136e-11 5e-05 1.46608e-10 
108 1 0.356001 0.0180678 0.00699108 0.0055884 -0.000333269 0.000210397 2.40751e-10 -3.30613e-12 5.25452e-11 5e-05 1.46608e-10 
109 1 0.356155 0.0183742 0.00701171 0.00542671 -0.000211929 0.000364447 -2.07019e-10 9.78417e-11 1.0676e-11 5e-05 1.46608e-10 
110 1 0.356017 0.0174722 0.00732517 0.00578282 -0.000124626 -0.000291339 2.67399e-10 2.4762e-10 -5.48165e-11 5e-05 1.46608e-10 
111 1 0.355754 0.0169247 0.00763589 0.00547881 0.000225281 -1.38206e-05 3.74405e-10 -8.96282e-10 -3.37625e-10 5e-05 1.46608e-10 
112 1 0.349799 0.0163254 0.00770551 0.00630907 0.000210829 0.000323056 9.30258e-11 5.56844e-11 7.88964e-11 5e-05 1.46608e-10 
113 1 0.349835 0.017306 0.00730932 0.00557494 -0.000346735 2.09818e-05 3.38369e-11 3.14464e-11 -3.12127e-11 5e-05 1.46608e-10 
114 1 0.349875 0.017491 0.00724496 0.00562448 -0.000346068 2.49858e-05 2.86108e-11 2.04874e-11 -8.27537e-13 5e-05 1.46608e-10 
115 1 0.35599 0.0171189 0.00742121 0.00593417 -4.0929e-05 -0.000311551 2.59902e-10 -6.5697e-11 -2.13259e-11 5e-05 1.46608e-10 
116 1 0.35596 0.0174683 0.00724267 0.00558927 -0.000328686 -0.000148774 -6.14329e-11 4.29669e-12 3.22698e-11 5e-05 1.46608e-10 
117 1 0.35608 0.0175587 0.00718923 0.00564058 -7.50164e-05 -0.000280856 -3.33929e-10 -1.08977e-11 4.66689e-11 5e-05 1.46608e-10 
118 1 0.350058 0.0174135 0.00726808 0.00562291 -0.00036317 2.99575e-05 4.92678e-11 2.29038e-11 -2.04416e-11 5e-05 1.46608e-10 
119 1 0.356036 0.0182399 0.00702465 0.00557044 -0.000266812 0.00036525 -1.61416e-10 -5.31572e-10 3.77741e-10 5e-05 1.46608e-10 
120 1 0.356082 0.017151 0.00739936 0.00593077 -5.12078e-05 -0.000314196 1.27352e-10 1.51692e-10 -4.12081e-11 5e-05 1.46608e-10 
121 1 0.355905 0.0176155 0.00716993 0.00545919 -0.000353244 -0.000131266 5.85946e-11 7.6597e-11 -6.00185e-11 5e-05 1.46608e-10 
122 1 0.355758 0.0170108 0.00749024 0.00602705 -0.00047741 -0.000129177 -1.11911e-10 -1.83652e-10 -4.38251e-13 5e-05 1.46608e-10 
123 1 0.350201 0.0190747 0.0069335 0.00550497 -0.000391186 3.68738e-05 -2.18838e-11 -1.02256e-10 -2.98567e-11 5e-05 1.46608e-10 
124 1 0.356156 0.0174991 0.00721559 0.00569436 -3.47897e-05 -0.000309387 -1.76714e-10 2.00331e-10 -7.16007e-11 5e-05 1.46608e-10 
125 1 0.35589 0.0171191 0.0074268 0.00597353 -0.000486119 -9.05921e-05 -2.72506e-10 -1.4601e-10 6.01842e-11 5e-05 1.46608e-10 
127 1 0.349522 0.0161026 0.00804693 0.00590586 -0.000622016 0.000274546 -4.76988e-10 1.97381e-11 -1.47099e-11 5e-05 1.46608e-10 
128 1 0.356057 0.0170509 0.00745246 0.00588698 -3.58186e-05 -0.000321767 3.62437e-10 -2.23465e-11 7.50007e-11 5e-05 1.46608e-10 
129 1 0.356155 0.017906 0.00700575 0.00558695 -0.000138033 -0.000251737 2.47785e-10 -3.95074e-10 2.85458e-10 5e-05 1.46608e-10 
130 1 0.349989 0.0175478 0.00722392 0.0056315 -0.000370908 2.95591e-05 4.60306e-12 1.92867e-11 1.13721e-11 5e-05 1.46608e-10 
131 1 0.350006 0.0176425 0.00719172 0.00567553 -0.000370482 3.30543e-05 1.03754e-10 -1.22449e-10 5.4934e-11 5e-05 1.46608e-10 
132 1 0.355956 0.0170361 0.00746584 0.00593229 -4.4326e-05 -0.000314079 -1.27785e-10 -2.11361e-11 1.68008e-11 5e-05 1.46608e-10 
133 1 0.355908 0.0175171 0.00731248 0.00560659 -0.00033864 -0.000129724 -9.76046e-11 1.45297e-10 -8.80042e-12 5e-05 1.46608e-10 
134 1 0.35594 0.0173811 0.00728884 0.00591134 -0.000266041 -0.000201476 4.16879e-11 1.5999e-10 -4.83253e-11 5e-05 1.46608e-10 
135 1 0.356092 0.0185271 0.00703435 0.00542954 -0.000187492 0.000366795 -7.80748e-11 -1.7721e-10 -1.89376e-11 5e-05 1.46608e-10 
136 1 0.349899 0.0171631 0.00735517 0.006072 -0.00042606 4.43381e-05 6.42447e-11 2.05238e-11 -5.45333e-12 5e-05 1.46608e-10 
137 1 0.356055 0.0176451 0.00723325 0.00561959 -9.92977e-05 -0.000219799 6.55219e-11 2.69624e-10 1.28045e-10 5e-05 1.46608e-10 
138 1 0.355826 0.0172637 0.00745286 0.00605225 -0.00044048 -0.000110444 -3.0917e-11 -4.33635e-11 7.89456e-11 5e-05 1.46608e-10 
140 1 0.355714 0.0168425 0.007589 0.00602274 -0.000256553 0.000217086 -1.02566e-10 1.25334e-11 4.86294e-10 5e-05 1.46608e-10 
141 1 0.349845 0.0165545 0.00758914 0.006169 -0.000268144 0.000576215 -2.56566e-10 1.44583e-10 -7.99543e-11 5e-05 1.46608e-10 
142 1 0.350246 0.0179518 0.00708345 0.00551471 -0.000303204 1.08668e-05 -4.07002e-10 -3.3447e-11 1.16058e-12 5e-05 1.46608e-10 
143 1 0.349483 0.0159921 0.00820894 0.00579877 -0.000591142 0.000246616 5.01619e-10 5.37735e-11 2.15405e-11 5e-05 1.46608e-10 
144 1 0.350194 0.0177543 0.00715091 0.00548732 -0.000275876 2.20024e-06 -3.85167e-10 1.33637e-11 -5.74491e-11 5e-05 1.46608e-10 
146 1 0.349849 0.0171697 0.00752972 0.0060635 -0.000470697 5.16669e-05 -6.85738e-12 6.64803e-11 -3.58111e-11 5e-05 1.46608e-10 
147 1 0.349968 0.0174552 0.00725549 0.00562069 -0.000360874 2.91424e-05 3.00484e-11 -1.05261e-11 7.04594e-12 5e-05 1.46608e-10 
148 1 0.349867 0.0166417 0.00754524 0.00618789 -0.000254671 0.000571797 -2.8899e-10 1.3296e-10 -1.11512e-10 5e-05 1.46608e-10 
149 1 0.355651 0.0166153 0.00777237 0.00597614 0.000383397 0.00110638 -2.80499e-10 -5.23142e-11 -1.49502e-10 5e-05 1.46608e-10 
150 1 0.35005 0.0183173 0.00696339 0.00545569 -0.000396853 4.30376e-05 5.00633e-11 6.54277e-11 -1.40797e-11 5e-05 1.46608e-10 
151 1 0.349974 0.0179456 0.00709001 0.00547082 -0.000331643 1.40909e-05 -1.17758e-10 4.76921e-12 -8.67071e-11 5e-05 1.46608e-10 
153 1 0.349889 0.0167306 0.00750118 0.00616344 -0.00046352 4.81655e-05 -3.00737e-10 2.65191e-10 -3.09946e-12 5e-05 1.46608e-10 
154 1 0.349503 0.0160471 0.00812809 0.00581809 -0.000605593 0.000264551 -3.18497e-10 -1.40257e-12 1.62927e-10 5e-05 1.46608e-10 
155 1 0.34985 0.0173879 0.00737589 0.00553112 -0.000349452 2.00487e-05 -3.8908e-11 3.69246e-11 -9.24417e-12 5e-05 1.46608e-10 
156 1 0.349823 0.0164145 0.00766069 0.00652907 0.000988935 -5.16098e-05 6.47242e-10 -1.64661e-10 8.30463e-11 5e-05 1.46608e-10 
157 1 0.0219312 0.0187687 0.00551176 -3.82778e-14 8.1675e-14 2.95893e-13 9.94452e-22 6.04359e-22 -3.57756e-23 5e-05 1.46608e-10 
158 1 0.349932 0.0169155 0.00743811 0.00611203 -0.000432685 4.55314e-05 4.32547e-11 -1.21885e-11 -3.72621e-12 5e-05 1.46608e-10 
159 1 0.355812 0.0168712 0.00757424 0.00608556 0.000106642 0.000710143 -1.48251e-10 -2.62664e-10 -4.53783e-10 5e-05 1.46608e-10 
160 1 0.349954 0.0178527 0.00712165 0.0054981 -0.000301182 1.64447e-05 -7.47964e-10 8.54043e-10 1.09016e-10 5e-05 1.46608e-10 
162 1 0.350183 0.0189811 0.00690342 0.00556291 -0.000401385 3.51552e-05 1.3696e-10 -1.05615e-10 -2.81955e-11 5e-05 1.46608e-10 
164 1 0.349684 0.0162875 0.00776592 0.00618247 -0.00060703 0.000213509 3.87298e-10 1.75638e-11 2.80716e-10 5e-05 1.46608e-10 
165 1 0.350108 0.0181636 0.00701429 0.00546703 -0.000342683 2.76326e-05 -7.73702e-12 8.05866e-11 -3.26826e-11 5e-05 1.46608e-10 
166 1 0.355823 0.0172695 0.00735308 0.00602066 -0.000457885 -0.000106592 -1.80954e-10 -2.68308e-11 1.89521e-11 5e-05 1.46608e-10 
167 1 0.350182 0.0185342 0.00688808 0.0055499 -0.000385944 3.84828e-05 2.3508e-10 1.29392e-10 -4.97208e-11 5e-05 1.46608e-10 
168 1 0.350214 0.0187298 0.006825 0.00558597 -0.000399354 3.86406e-05 7.90288e-12 3.89012e-11 7.8993e-12 5e-05 1.46608e-10 
169 1 0.350012 0.0181314 0.00702672 0.00554735 -0.000421824 4.96197e-05 8.8472e-12 2.47163e-11 -4.14218e-11 5e-05 1.46608e-10 
170 1 0.350163 0.0184412 0.00691974 0.00554493 -0.000378003 3.63753e-05 1.8959e-10 1.57605e-10 -5.31325e-11 5e-05 1.46608e-10 
171 1 0.356067 0.0179968 0.00696395 0.00549342 -0.000270701 -0.000180884 4.78685e-11 -6.41463e-11 1.42277e-10 5e-05 1.46608e-10 
172 1 0.349814 0.017213 0.00733971 0.00606074 -0.000447053 5.15564e-05 1.42715e-11 3.93814e-11 -1.83369e-11 5e-05 1.46608e-10 
173 1 0.356175 0.0184706 0.00703034 0.00537932 -0.000194267 0.000362537 -2.56459e-10 2.34187e-12 -1.64566e-11 5e-05 1.46608e-10 
174 1 0.3498 0.0170054 0.00749591 0.00609988 -0.000448349 4.97719e-05 2.80503e-11 3.41272e-11 -4.70785e-11 5e-05 1.46608e-10 
176 1 0.350116 0.0179168 0.00718837 0.0055358 -0.000305222 2.69767e-05 -5.65208e-10 2.58708e-10 -1.74703e-11 5e-05 1.46608e-10 
177 1 0.349542 0.0161688 0.00797485 0.0059614 -0.000643139 0.000267706 4.65329e-10 2.27086e-10 -3.40061e-10 5e-05 1.46608e-10 
178 1 0.34996 0.017834 0.00721975 0.005598 -0.000317507 1.6786e-05 -1.94505e-10 3.27289e-10 3.1865e-11 5e-05 1.46608e-10 
179 1 0.350264 0.018479 0.00690534 0.00561892 -0.000328256 1.83738e-05 7.67242e-11 -1.6042e-10 5.4945e-11 5e-05 1.46608e-10 
182 1 0.355942 0.0177892 0.00707818 0.00549273 -0.000364344 -0.000124355 -3.97716e-11 5.90835e-11 -4.93533e-11 5e-05 1.46608e-10 
183 1 0.35013 0.0181358 0.00710772 0.0055209 -0.000324411 2.57837e-05 -1.13195e-10 2.77191e-11 -3.08548e-11 5e-05 1.46608e-10 
184 1 0.356212 0.018187 0.00698242 0.00555372 -0.000178921 0.000376106 -3.21133e-11 1.928e-10 9.6626e-11 5e-05 1.46608e-10 
185 1 0.350227 0.0178589 0.00711508 0.00547885 -0.000297336 1.0225e-05 -5.28256e-10 1.44539e-12 -2.39211e-11 5e-05 1.46608e-10 
186 1 0.350125 0.018693 0.00685157 0.00557889 -0.00039893 3.88271e-05 -3.55738e-11 6.87659e-11 -5.22134e-11 5e-05 1.46608e-10 
187 1 0.355924 0.0177024 0.00712405 0.00549196 -0.000361698 -0.000125285 5.2015e-11 -9.42668e-12 -7.58197e-11 5e-05 1.46608e-10 
188 1 0.355856 0.0170364 0.00747143 0.00592373 -0.000470998 -9.83424e-05 -8.1421e-11 -9.29397e-11 1.48356e-10 5e-05 1.46608e-10 
189 1 0.355885 0.0175288 0.00721576 0.00554056 -0.000367504 -0.000128246 -3.20516e-11 1.31124e-10 -5.73956e-11 5e-05 1.46608e-10 
190 1 0.343984 0.0180034 0.00716943 0.0054883 0.00010357 0.00079461 -7.11972e-11 5.09768e-11 -8.86517e-11 5e-05 1.46608e-10 
191 1 0.355947 0.0171969 0.00746648 0.00602259 -0.000115249 -6.47855e-05 2.55952e-11 -4.87687e-11 -3.24407e-11 5e-05 1.46608e-10 
192 1 0.349855 0.0173983 0.00727655 0.00558599 -0.000342892 2.36973e-05 -2.49696e-11 3.88373e-11 -1.07715e-11 5e-05 1.46608e-10 
193 1 0.356092 0.0180935 0.00695686 0.00562226 -0.000277967 0.000363491 3.0806e-10 -1.04138e-10 2.46801e-11 5e-05 1.46608e-10 
194 1 0.350204 0.0186309 0.0068551 0.00560175 -0.000368822 3.16077e-05 -1.43422e-10 -1.32768e-10 3.64873e-11 5e-05 1.46608e-10 
195 1 0.350068 0.0179758 0.00707826 0.00554946 -0.000313331 2.04631e-05 1.35389e-10 7.78424e-11 3.57412e-11 5e-05 1.46608e-10 
196 1 0.350151 0.0179218 0.00709511 0.00547276 -0.000301454 1.0397e-05 -5.88565e-10 1.2587e-11 -1.14581e-11 5e-05 1.46608e-10 
197 1 0.343639 0.0166008 0.00785775 0.00586385 5.95228e-05 0.000875742 8.28198e-12 1.73723e-11 -7.70896e-12 5e-05 1.46608e-10 
198 1 0.35019 0.0175697 0.00721323 0.00557974 -0.000289228 4.45112e-06 -2.79832e-10 1.3894e-10 -5.27645e-11 5e-05 1.46608e-10 
199 1 0.350199 0.0182019 0.00699985 0.0054822 -0.000302039 1.1319e-05 6.88641e-11 -1.38584e-10 5.85678e-11 5e-05 1.46608e-10 
200 1 0.349624 0.0161219 0.00800876 0.00609847 -0.000557689 0.000157018 4.80144e-10 -3.46753e-10 5.24453e-10 5e-05 1.46608e-10 
201 1 0.350088 0.0180692 0.00704647 0.00556453 -0.00040143 4.45129e-05 -6.49482e-11 -1.09112e-10 5.61819e-11 5e-05 1.46608e-10 
202 1 0.349953 0.017008 0.00740658 0.00610291 -0.000413754 3.86992e-05 2.64172e-11 -6.75036e-11 7.75623e-12 5e-05 1.46608e-10 
203 1 0.355919 0.0172945 0.00733468 0.00611125 -0.000350635 -0.000128939 7.64711e-11 -1.11093e-11 -7.20368e-11 5e-05 1.46608e-10 
204 1 0.35033 0.0183363 0.00695237 0.0055539 -0.000358655 2.94741e-05 1.82615e-10 -1.2499e-10 4.04696e-11 5e-05 1.46608e-10 
205 1 0.349771 0.0166117 0.00755402 0.00618124 -0.000257428 0.000567979 -2.82749e-10 3.04527e-11 -4.89618e-11 5e-05 1.46608e-10 
206 1 0.349814 0.0167931 0.00748136 0.00618 -0.000441251 4.69249e-05 -1.46413e-10 1.13916e-10 -4.3371e-11 5e-05 1.46608e-10 
207 1 0.3496 0.0163269 0.00772774 0.00614775 -0.000385162 0.000479975 1.98225e-10 -6.53481e-11 8.92679e-11 5e-05 1.46608e-10 
208 1 0.350014 0.0172878 0.0073112 0.00559347 -0.000307227 1.12761e-05 4.53858e-11 1.66492e-10 -5.97509e-11 5e-05 1.46608e-10 
209 1 0.349793 0.0171206 0.00737124 0.0060801 -0.000453426 5.1096e-05 5.67918e-11 5.4519e-11 -2.78234e-11 5e-05 1.46608e-10 
210 1 0.355877 0.0167615 0.00766752 0.00608034 0.00040859 0.00111539 -3.58612e-10 2.83676e-10 -3.81878e-10 5e-05 1.46608e-10 
211 1 0.355671 0.0166832 0.00770188 0.00600043 0.000379516 0.0011246 8.32704e-11 6.33461e-10 1.114e-09 5e-05 1.46608e-10 
212 1 0.350245 0.0183861 0.006937 0.00557252 -0.000326351 1.8249e-05 1.0607e-10 -1.44524e-10 4.33485e-11 5e-05 1.46608e-10 
213 1 0.355866 0.0174422 0.00726158 0.00576166 -0.000406802 -0.000122679 -3.09621e-11 1.36552e-10 -9.11449e-11 5e-05 1.46608e-10 
214 1 0.35606 0.017472 0.00723506 0.00577455 -9.392e-05 -0.000284007 -3.00978e-10 5.47683e-11 -6.18371e-12 5e-05 1.46608e-10 
215 1 0.343878 0.0175649 0.0073849 0.00577177 7.85421e-05 0.000851488 8.48146e-12 -1.01167e-11 8.72554e-12 5e-05 1.46608e-10 
216 1 0.34958 0.0162685 0.00780637 0.00606808 -0.000504506 0.000369562 2.6869e-10 -3.666e-10 -3.27597e-10 5e-05 1.46608e-10 
217 1 0.355961 0.0178774 0.00703485 0.00553243 -0.00039123 -0.000152519 -2.73847e-10 1.51667e-10 -3.33582e-10 5e-05 1.46608e-10 
218 1 0.349896 0.0175836 0.00721339 0.00564579 -0.000348095 2.8269e-05 1.37979e-11 -3.08756e-11 2.68156e-11 5e-05 1.46608e-10 
219 1 0.356094 0.017239 0.0073533 0.0061898 -7.5182e-05 -0.000315353 2.59409e-10 5.59154e-11 -4.49779e-11 5e-05 1.46608e-10 
220 1 0.350029 0.0177895 0.00714177 0.00558948 -0.000247259 -9.4669e-06 -7.179e-11 -3.14131e-11 1.40343e-11 5e-05 1.46608e-10 
222 1 0.356137 0.017819 0.00705167 0.00553527 -0.000106977 -0.000258611 -2.17719e-10 -1.80729e-10 1.25124e-10 5e-05 1.46608e-10 
224 1 0.349707 0.0167513 0.00749885 0.00618077 -0.000457242 0.000109126 -2.75493e-10 -2.64419e-10 -6.64922e-10 5e-05 1.46608e-10 
225 1 0.355811 0.0170633 0.00755654 0.00591891 -0.000358628 -0.000124043 -4.10787e-10 -1.85481e-10 -1.09376e-10 5e-05 1.46608e-10 
226 1 0.350124 0.0180153 0.00715159 0.0055413 -0.000294537 2.14683e-05 -7.92757e-11 1.56221e-10 1.43263e-10 5e-05 1.46608e-10 
227 1 0.3439 0.0176525 0.00734192 0.00576406 7.97363e-05 0.00084963 3.22556e-12 6.22822e-12 -3.26946e-12 5e-05 1.46608e-10 
228 1 0.343834 0.0173896 0.00747088 0.00578939 7.72761e-05 0.000854941 -8.63635e-12 3.72866e-12 -4.99938e-12 5e-05 1.46608e-10 
229 1 0.350106 0.0185963 0.00686838 0.00555174 -0.000399615 4.20538e-05 1.8197e-10 1.93188e-10 -6.94698e-11 5e-05 1.46608e-10 
230 1 0.349822 0.0170988 0.00746444 0.00607764 -0.00046246 4.48113e-05 7.97794e-11 4.38496e-11 1.1862e-11 5e-05 1.46608e-10 
232 1 0.350144 0.0183482 0.00695144 0.00551267 -0.000378768 3.69636e-05 -4.23276e-11 6.2762e-11 -2.08166e-11 5e-05 1.46608e-10 
233 1 0.350057 0.0182046 0.00708966 0.00547382 -0.000347199 3.72809e-05 -7.88927e-11 -2.23173e-11 -2.8976e-11 5e-05 1.46608e-10 
234 1 0.356054 0.0183343 0.00699709 0.00545172 -0.000239885 0.000349828 9.45523e-10 -2.49713e-10 -1.2418e-12 5e-05 1.46608e-10 
235 1 0.349686 0.0166605 0.00753464 0.00617223 -0.000450029 0.000182971 -1.08056e-10 -2.99182e-10 -3.8411e-10 5e-05 1.46608e-10 
236 1 0.350021 0.0175256 0.00731586 0.00562182 -0.000378899 2.58376e-05 -1.56817e-11 -4.4584e-11 -7.86512e-12 5e-05 1.46608e-10 
237 1 0.349771 0.0170281 0.00740277 0.00610204 -0.000459886 5.25999e-05 3.4907e-11 6.18455e-11 -1.37605e-11 5e-05 1.46608e-10 
239 1 0.343531 0.0161625 0.00807269 0.00590546 4.92626e-05 0.000887617 2.14299e-12 4.98544e-12 -2.28044e-12 5e-05 1.46608e-10 
240 1 0.343596 0.0164255 0.00794373 0.00588033 5.47686e-05 0.000880811 5.94902e-12 1.35971e-11 -6.2067e-12 5e-05 1.46608e-10 
241 1 0.343509 0.0160749 0.00811567 0.0059139 4.7938e-05 0.000889626 1.83283e-12 3.54437e-12 -1.60673e-12 5e-05 1.46608e-10 
242 1 0.350175 0.0174761 0.00724504 0.00560904 -0.000299155 9.23702e-06 -2.33547e-11 1.66664e-10 -4.5588e-11 5e-05 1.46608e-10 
243 1 0.350132 0.017829 0.00712674 0.00544594 -0.000297091 1.12938e-05 -4.58471e-10 1.45743e-11 -1.75496e-11 5e-05 1.46608e-10 
244 1 0.343553 0.0162502 0.0080297 0.00589691 5.08082e-05 0.000885478 2.31306e-12 7.24921e-12 -3.48003e-12 5e-05 1.46608e-10 
246 1 0.343748 0.017039 0.00764282 0.00582254 7.12619e-05 0.000863105 1.16578e-11 1.23554e-11 -4.16332e-12 5e-05 1.46608e-10 
247 1 0.349621 0.0163943 0.00765681 0.00618916 -0.000288863 0.000582206 -2.78052e-10 -2.52526e-11 1.38779e-10 5e-05 1.46608e-10 
248 1 0.350002 0.0177373 0.00722312 0.00567222 -0.000363754 2.85435e-05 -2.31346e-10 -1.73937e-10 1.61023e-10 5e-05 1.46608e-10 
249 1 0.343683 0.016776 0.00777178 0.00584726 6.44799e-05 0.000870539 4.39875e-12 1.47871e-11 -7.17057e-12 5e-05 1.46608e-10 
250 1 0.349727 0.0164374 0.00764192 0.0061407 -0.000274016 0.000569241 4.59838e-10 7.2194e-11 -3.52983e-11 5e-05 1.46608e-10 
251 1 0.355897 0.0172076 0.00738077 0.00598985 -0.000486839 -9.27499e-05 -4.56751e-12 -4.90486e-11 -4.80874e-11 5e-05 1.46608e-10 
252 1 0.343769 0.0171266 0.00759983 0.00581556 7.39348e-05 0.000860803 -7.79585e-12 4.85484e-12 -3.80361e-12 5e-05 1.46608e-10 
253 1 0.343964 0.0179155 0.00721286 0.00565532 9.46616e-05 0.000824467 1.85541e-12 -1.11152e-11 7.88473e-12 5e-05 1.46608e-10 
254 1 0.343704 0.0168637 0.00772879 0.00583977 6.71682e-05 0.00086801 7.21785e-12 1.59552e-11 -6.98651e-12 5e-05 1.46608e-10 
255 1 0.350098 0.0177933 0.00721393 0.00554418 -0.000321971 2.64262e-05 -3.6842e-10 2.77592e-10 -3.28384e-11 5e-05 1.46608e-10 
256 1 0.350351 0.018433 0.00691943 0.00559844 -0.000352316 2.65849e-05 1.25142e-10 -1.39949e-10 4.62146e-11 5e-05 1.46608e-10 
257 1 0.349911 0.0168231 0.00746965 0.00615073 -0.000430515 4.37894e-05 -1.16583e-10 9.87971e-11 -2.30842e-11 5e-05 1.46608e-10 
258 1 0.349963 0.0176259 0.00728082 0.00566903 -0.000363833 2.85718e-05 3.12727e-11 -1.50395e-11 3.93174e-11 5e-05 1.46608e-10 
259 1 0.343791 0.0172143 0.00755685 0.00580529 7.40874e-05 0.000858888 -3.37913e-12 -7.80113e-12 3.34559e-12 5e-05 1.46608e-10 