ITEM: TIMESTEP
36400000
ITEM: NUMBER OF ATOMS
275
ITEM: BOX BOUNDS ff ff ff
-0.02 0.43
-0.02 0.06
-0.02 0.07
ITEM: ATOMS id type x y z vx vy vz fx fy fz radius mass 
1 1 0.225568 0.0185126 0.0069596 0.00610603 -1.10154e-05 -0.000223979 2.43895e-10 2.09984e-11 -7.28302e-12 5e-05 1.46608e-10 
2 1 0.225229 0.0173614 0.00725334 0.00549356 -0.000207146 -0.000380834 5.98171e-10 -9.4447e-10 -3.66898e-10 5e-05 1.46608e-10 
4 1 0.225385 0.0172469 0.00733091 0.0055523 -7.80477e-05 -0.00029759 1.91355e-11 1.23094e-10 -1.72936e-10 5e-05 1.46608e-10 
5 1 0.224747 0.015653 0.00871464 0.00586934 -0.00042828 -0.000286337 -2.42283e-11 -8.80016e-11 7.47166e-11 5e-05 1.46608e-10 
6 1 0.231223 0.0173478 0.00734755 0.00529455 -0.000522254 -7.57782e-05 -6.18055e-12 -3.0204e-12 -3.23921e-12 5e-05 1.46608e-10 
7 1 0.225522 0.0178676 0.00701043 0.00573121 0.000186054 0.000141158 5.28602e-12 -1.48493e-11 2.57165e-10 5e-05 1.46608e-10 
8 1 0.225234 0.0170073 0.00754484 0.00559661 -0.00016034 -0.000477133 -4.09895e-10 -3.24477e-10 1.72169e-10 5e-05 1.46608e-10 
9 1 0.231418 0.0182672 0.0070083 0.00546744 -0.000448707 0.000255457 1.20074e-11 4.37149e-11 -7.37115e-12 5e-05 1.46608e-10 
10 1 0.224877 0.0160978 0.00833368 0.00587916 -0.000342657 -0.000358063 5.41897e-11 2.72557e-10 -2.2764e-10 5e-05 1.46608e-10 
11 1 0.225413 0.0179395 0.0070689 0.00593182 0.000181498 2.34477e-05 -8.34094e-11 -1.53085e-10 -1.72471e-10 5e-05 1.46608e-10 
12 1 0.219384 0.0168479 0.00749027 0.00554664 -0.000459013 -1.6271e-05 5.1443e-11 3.8945e-11 -3.90157e-11 5e-05 1.46608e-10 
13 1 0.224725 0.0155789 0.00877814 0.00586541 -0.00045157 -0.000266728 -3.21223e-11 -1.10084e-10 9.45988e-11 5e-05 1.46608e-10 
14 1 0.219343 0.0174734 0.0071706 0.00549874 -0.000297579 0.000248534 5.9801e-11 -1.74176e-10 3.91174e-11 5e-05 1.46608e-10 
16 1 0.219619 0.0179122 0.00711667 0.00560207 -0.000292581 0.000252251 -2.74432e-10 9.06438e-11 -4.7497e-11 5e-05 1.46608e-10 
17 1 0.224855 0.0160237 0.00839716 0.00587898 -0.000351973 -0.000350546 4.91468e-11 2.03363e-10 -1.76517e-10 5e-05 1.46608e-10 
19 1 0.224703 0.0155048 0.00884163 0.00586178 -0.000473227 -0.000248494 -3.32141e-11 -1.18712e-10 1.01467e-10 5e-05 1.46608e-10 
21 1 0.225562 0.0180558 0.00696307 0.00581267 9.00244e-05 -0.000215927 8.3039e-11 1.14878e-10 -1.11435e-10 5e-05 1.46608e-10 
22 1 0.225191 0.016858 0.00767262 0.00574444 -3.59436e-05 -0.000601713 -2.23468e-10 1.44853e-10 3.98195e-11 5e-05 1.46608e-10 
23 1 0.219602 0.0177164 0.00714373 0.00543218 -0.000274266 0.00024414 -1.02757e-10 -1.47663e-11 -4.23611e-12 5e-05 1.46608e-10 
24 1 0.23134 0.0178967 0.00713717 0.0054249 -0.000423941 0.000245416 -3.12882e-11 -2.66308e-11 1.85641e-11 5e-05 1.46608e-10 
25 1 0.22492 0.0162461 0.00820667 0.00587695 -0.000319545 -0.000377147 9.78434e-11 3.65036e-10 -3.14807e-10 5e-05 1.46608e-10 
26 1 0.231379 0.0180819 0.00707273 0.00544823 -0.000436545 0.000250537 -1.85474e-11 -1.11166e-10 5.07107e-11 5e-05 1.46608e-10 
27 1 0.219194 0.016803 0.00754086 0.00552978 -0.000450275 -2.28136e-05 2.7468e-11 -2.28238e-11 2.2793e-11 5e-05 1.46608e-10 
28 1 0.225306 0.0173088 0.00729203 0.00545106 0.000299262 0.000145197 3.42411e-11 -1.28167e-10 -3.04892e-10 5e-05 1.46608e-10 
29 1 0.224681 0.0154306 0.00890513 0.00585998 -0.000488965 -0.000235315 -3.37761e-11 -1.18933e-10 1.02394e-10 5e-05 1.46608e-10 
30 1 0.225007 0.0165426 0.00795274 0.00587947 -0.000240584 -0.000440637 1.86789e-10 4.06075e-10 -3.53733e-10 5e-05 1.46608e-10 
31 1 0.225596 0.0178046 0.0070323 0.00573381 0.000217571 0.000295768 6.79627e-11 -1.47921e-10 2.30411e-11 5e-05 1.46608e-10 
32 1 0.224942 0.0163202 0.00814319 0.00585367 -0.000297598 -0.000392604 3.13384e-10 3.47373e-10 -3.22498e-10 5e-05 1.46608e-10 
33 1 0.231242 0.0174354 0.00730319 0.00531986 -0.000527539 -7.44779e-05 4.2143e-12 8.8171e-12 -3.43657e-12 5e-05 1.46608e-10 
34 1 0.224834 0.0159496 0.00846065 0.00587816 -0.00036158 -0.000342268 4.52726e-11 1.39465e-10 -1.21698e-10 5e-05 1.46608e-10 
35 1 0.225496 0.0176864 0.00708777 0.00564044 0.000241439 0.000277714 -4.11296e-11 -1.58737e-10 1.90937e-10 5e-05 1.46608e-10 
36 1 0.231477 0.0185449 0.00691169 0.00603638 -0.000600924 0.000318628 -9.22767e-12 -4.48341e-11 1.55658e-11 5e-05 1.46608e-10 
37 1 0.225366 0.017172 0.00739459 0.00565496 -0.000238337 -0.000416605 -3.56118e-10 3.03542e-10 -2.1278e-10 5e-05 1.46608e-10 
38 1 0.225441 0.0175018 0.0071856 0.00551531 0.000279802 0.000251531 2.31503e-10 -3.81738e-11 -3.83791e-11 5e-05 1.46608e-10 
39 1 0.231359 0.0179893 0.00710495 0.0054349 -0.000428363 0.000247368 -1.43439e-11 -8.25175e-11 1.84882e-11 5e-05 1.46608e-10 
41 1 0.22479 0.0158013 0.00858765 0.00587587 -0.000387949 -0.000320326 -7.81332e-13 8.06933e-12 -7.86323e-12 5e-05 1.46608e-10 
42 1 0.22548 0.0172736 0.00731495 0.00555912 -0.00106215 -0.00176671 -3.2871e-10 -5.23078e-10 -2.79558e-10 5e-05 1.46608e-10 
44 1 0.225538 0.0175311 0.00717311 0.00555095 0.000239634 0.000267047 -3.43347e-10 -2.29177e-10 1.1138e-10 5e-05 1.46608e-10 
45 1 0.231261 0.0175262 0.00726605 0.00537592 -0.000411344 0.000240355 8.27522e-12 1.47635e-11 1.78084e-12 5e-05 1.46608e-10 
47 1 0.224812 0.0158754 0.00852416 0.00587692 -0.000373057 -0.000332803 1.27612e-11 7.70876e-11 -6.47782e-11 5e-05 1.46608e-10 
48 1 0.22542 0.018273 0.00696672 0.00564117 5.6979e-05 -0.000202468 -6.54413e-12 4.05409e-12 2.8407e-11 5e-05 1.46608e-10 
49 1 0.231437 0.0183598 0.00697608 0.00547987 -0.000462796 0.000259943 5.83314e-11 1.57247e-10 -6.32088e-11 5e-05 1.46608e-10 
50 1 0.224964 0.0163943 0.00807972 0.00584779 -0.000277088 -0.000408804 5.2684e-10 3.03026e-10 -3.15825e-10 5e-05 1.46608e-10 
51 1 0.225616 0.0178918 0.0069875 0.00578136 0.000219471 0.000305209 9.09127e-11 -9.80644e-11 7.52229e-11 5e-05 1.46608e-10 
52 1 0.219439 0.0170756 0.00730302 0.00554141 -0.000392652 6.91142e-05 -8.49139e-11 4.99898e-11 -2.81431e-11 5e-05 1.46608e-10 
53 1 0.231301 0.0177114 0.00720161 0.00539936 -0.000418597 0.00024297 3.4507e-12 1.41308e-11 9.94017e-12 5e-05 1.46608e-10 
54 1 0.225751 0.0181193 0.00695565 0.00588416 -0.000108723 -0.000218365 -1.48222e-10 8.97658e-11 7.8415e-12 5e-05 1.46608e-10 
55 1 0.219361 0.0171316 0.00725751 0.00556131 -0.000463181 -2.33316e-05 -1.48856e-10 1.70896e-11 -3.025e-11 5e-05 1.46608e-10 
56 1 0.225732 0.0180213 0.00695708 0.005787 -0.000102239 -0.000206877 2.80221e-10 7.46009e-12 2.50902e-10 5e-05 1.46608e-10 
57 1 0.231281 0.0176188 0.00723383 0.00538838 -0.000414625 0.000241509 3.97978e-12 1.27316e-11 -1.06862e-11 5e-05 1.46608e-10 
59 1 0.378022 0.019866 0.005332 -5.01935e-15 -7.41201e-15 7.69803e-14 -3.47674e-24 1.96455e-24 0 5e-05 1.46608e-10 
60 1 0.225557 0.0176183 0.00712822 0.00560928 0.000226612 0.000283607 -1.24067e-10 -1.90005e-10 1.10975e-10 5e-05 1.46608e-10 
61 1 0.224768 0.0157272 0.00865114 0.00587303 -0.000406461 -0.000304766 -1.12428e-11 -4.76748e-11 4.0581e-11 5e-05 1.46608e-10 
62 1 0.225461 0.0175873 0.00713775 0.00556683 0.000266661 0.000265175 1.80448e-11 9.73155e-12 -3.92578e-11 5e-05 1.46608e-10 
63 1 0.22544 0.018371 0.0069653 0.00607602 -4.19083e-05 -0.00022235 2.74564e-11 1.6523e-11 -1.02324e-11 5e-05 1.46608e-10 
64 1 0.23132 0.0178041 0.00716939 0.00541203 -0.000421579 0.000244913 4.5167e-12 -1.03098e-11 -1.31214e-11 5e-05 1.46608e-10 
65 1 0.219398 0.0173138 0.00720625 0.00549867 -0.000301544 0.000251072 1.10353e-10 -1.52697e-10 3.02028e-11 5e-05 1.46608e-10 
66 1 0.219524 0.0176144 0.00723044 0.00538734 -0.000259022 0.00019772 -1.67716e-10 -1.78892e-10 2.61814e-10 5e-05 1.46608e-10 
67 1 0.225581 0.0181538 0.00696165 0.0059178 8.59796e-05 -0.000214987 -8.75351e-11 3.49241e-10 -1.54845e-11 5e-05 1.46608e-10 
68 1 0.225362 0.0175625 0.00714383 0.00559481 0.000340977 0.000216386 1.50103e-11 -2.90435e-10 1.15941e-10 5e-05 1.46608e-10 
69 1 0.225657 0.0180875 0.00695936 0.00585914 -1.2926e-05 -0.000216343 6.43854e-11 2.01723e-10 -7.27462e-11 5e-05 1.46608e-10 
70 1 0.231398 0.0181746 0.00704051 0.00545621 -0.000447959 0.000253976 -9.83986e-12 -1.72066e-11 -4.2438e-12 5e-05 1.46608e-10 
71 1 0.219715 0.0179398 0.00711639 0.00561288 -0.000342513 0.000260188 -2.77099e-10 2.11102e-10 -4.04055e-11 5e-05 1.46608e-10 
72 1 0.225622 0.0183496 0.00695878 0.00616312 7.90543e-05 -0.000227552 4.94318e-10 2.41985e-10 -3.30471e-11 5e-05 1.46608e-10 
73 1 0.224899 0.016172 0.00827016 0.00588179 -0.000332528 -0.000366838 9.55696e-11 3.18833e-10 -2.84286e-10 5e-05 1.46608e-10 
74 1 0.224989 0.0164678 0.00801645 0.00586757 -0.000260795 -0.000424134 3.0136e-10 3.75443e-10 -3.28255e-10 5e-05 1.46608e-10 
76 1 0.219307 0.0169018 0.00745123 0.00557903 -0.000454559 -2.27075e-05 1.28091e-10 8.55953e-11 -8.59496e-11 5e-05 1.46608e-10 
77 1 0.225248 0.0174433 0.00719879 0.00559661 0.000313893 0.000234721 -1.92456e-11 4.99724e-11 -5.32493e-11 5e-05 1.46608e-10 
78 1 0.21867 0.0153301 0.00887302 0.00585587 0.000259345 0.00104187 -3.51979e-10 2.90367e-10 -3.75912e-10 5e-05 1.46608e-10 
79 1 0.219693 0.0181982 0.00707901 0.00591186 -0.000393742 0.000279047 2.78996e-11 5.78951e-11 -1.63612e-11 5e-05 1.46608e-10 
80 1 0.225324 0.0173879 0.0072336 0.00549902 0.000360969 0.000241046 -9.58469e-11 1.39228e-10 -2.63619e-10 5e-05 1.46608e-10 
82 1 0.219401 0.0176269 0.00723182 0.00541229 -0.000357266 0.000244697 7.98112e-11 8.21302e-11 -3.68031e-11 5e-05 1.46608e-10 
83 1 0.219402 0.016923 0.00742689 0.00555645 -0.000461285 -1.5862e-05 -6.00092e-11 8.26447e-11 -8.67702e-11 5e-05 1.46608e-10 
84 1 0.231457 0.0184524 0.00694387 0.00598519 -0.000575758 0.0003083 -2.72612e-12 6.42696e-11 -1.79056e-11 5e-05 1.46608e-10 
85 1 0.219843 0.0180679 0.00710308 0.00581344 -0.000453431 0.000283202 -1.31834e-10 -1.41281e-10 1.05791e-11 5e-05 1.46608e-10 
86 1 0.225517 0.0174441 0.00721764 0.0054888 0.000251378 0.000256993 -4.26256e-10 -2.34532e-10 2.76996e-10 5e-05 1.46608e-10 
87 1 0.225288 0.0172323 0.0073539 0.00556239 3.35548e-05 -0.000158191 -3.69414e-10 1.07867e-10 -1.2921e-10 5e-05 1.46608e-10 
88 1 0.225426 0.0178316 0.00700575 0.00579062 0.000177614 0.000319968 -3.42827e-10 3.98096e-10 -2.02325e-10 5e-05 1.46608e-10 
89 1 0.225411 0.0177601 0.00714927 0.00570616 0.00031013 0.000245354 1.00538e-10 -2.24908e-10 1.46509e-10 5e-05 1.46608e-10 
90 1 0.225602 0.0182517 0.00696022 0.00600174 8.37538e-05 -0.000221385 2.03602e-11 4.21484e-10 3.95314e-11 5e-05 1.46608e-10 
91 1 0.219366 0.0167728 0.00755365 0.00552762 -0.000454232 -1.94511e-05 1.12332e-10 -7.50633e-12 1.33028e-12 5e-05 1.46608e-10 
92 1 0.225343 0.0178786 0.00697491 0.00568899 -2.68686e-05 0.000425693 1.40457e-11 3.03112e-10 -3.2268e-10 5e-05 1.46608e-10 
93 1 0.225074 0.0167643 0.00776261 0.00572846 -0.000125199 -0.000520909 -1.8839e-10 3.04952e-10 -2.30003e-10 5e-05 1.46608e-10 
94 1 0.225424 0.0180381 0.00705677 0.00584144 0.00017037 -9.0677e-05 1.0741e-10 -2.02953e-11 -1.81192e-10 5e-05 1.46608e-10 
95 1 0.225309 0.0177057 0.00716402 0.00562353 0.000323155 0.000235463 -2.40089e-10 -1.82044e-10 3.40743e-10 5e-05 1.46608e-10 
96 1 0.225325 0.0178017 0.00704668 0.0057103 0.000304436 0.000182518 7.06529e-11 -1.72578e-10 -1.81358e-10 5e-05 1.46608e-10 
97 1 0.218778 0.0156616 0.00851478 0.00554732 0.000498887 0.000828754 4.84328e-11 -1.62902e-09 -1.91036e-09 5e-05 1.46608e-10 
98 1 0.225057 0.0166905 0.00782785 0.00576871 -0.000156743 -0.000509024 1.57017e-11 3.60297e-10 -2.86852e-10 5e-05 1.46608e-10 
99 1 0.219326 0.0178295 0.00711733 0.00549273 -0.000284814 0.000247127 -1.27992e-10 -3.32814e-10 4.7153e-11 5e-05 1.46608e-10 
100 1 0.225543 0.0179581 0.00697337 0.00573581 9.63047e-05 -9.603e-05 1.25205e-10 -4.07262e-11 -5.15196e-11 5e-05 1.46608e-10 
101 1 0.219346 0.0179268 0.0071043 0.00547299 -0.000311654 0.000249552 -2.42338e-11 -6.04417e-11 5.73431e-12 5e-05 1.46608e-10 
102 1 0.0643568 0.0187248 0.00531097 4.33406e-15 1.04427e-14 8.29638e-14 -1.25055e-21 2.67593e-22 2.00591e-23 5e-05 1.46608e-10 
103 1 0.24257 0.0191927 0.00520306 9.00258e-24 4.86658e-23 1.23839e-22 0 0 0 5e-05 1.46608e-10 
104 1 0.219635 0.0180101 0.00710343 0.00575729 -0.000319156 0.000260956 -2.00085e-10 1.2946e-10 -2.36463e-11 5e-05 1.46608e-10 
105 1 0.218735 0.015529 0.00865807 0.00602413 0.000391985 0.000922562 -1.07673e-10 -1.37098e-09 -6.3621e-10 5e-05 1.46608e-10 
106 1 0.21938 0.01753 0.00724522 0.00545196 -0.000366099 0.000230564 1.87578e-10 8.18216e-11 9.0408e-11 5e-05 1.46608e-10 
107 1 0.218692 0.0153964 0.00880136 0.00606073 0.000345617 0.000976677 1.66893e-10 4.67136e-10 -1.76614e-10 5e-05 1.46608e-10 
108 1 0.225676 0.0181855 0.00695794 0.00594401 -1.70809e-05 -0.000218741 -1.03716e-10 1.98077e-10 -6.704e-13 5e-05 1.46608e-10 
109 1 0.225652 0.0176482 0.00711923 0.00569947 0.000228549 0.000287492 7.96243e-11 -1.87117e-10 7.64522e-11 5e-05 1.46608e-10 
110 1 0.225212 0.0172862 0.00731726 0.00551168 9.10833e-05 -0.000675149 9.75953e-11 3.23614e-10 -2.74377e-10 5e-05 1.46608e-10 
111 1 0.225176 0.0171363 0.00744476 0.00545271 1.3778e-05 -0.000617597 -7.65891e-10 6.90487e-10 2.70628e-10 5e-05 1.46608e-10 
112 1 0.218822 0.01581 0.0083879 0.0060909 -0.000404646 -3.30719e-05 -6.76537e-10 5.03801e-10 2.19303e-10 5e-05 1.46608e-10 
113 1 0.219248 0.0174404 0.00716944 0.00551423 -0.000320495 0.000253219 3.27341e-11 6.30171e-12 3.23162e-11 5e-05 1.46608e-10 
114 1 0.219287 0.017635 0.00714338 0.00552446 -0.000295791 0.000251034 -4.00514e-11 -1.66567e-10 -1.13984e-11 5e-05 1.46608e-10 
115 1 0.225497 0.0173569 0.00726247 0.00536716 0.000263659 0.000251552 -5.39496e-10 -2.45091e-10 8.38675e-11 5e-05 1.46608e-10 
116 1 0.225504 0.0182186 0.00696403 0.00562692 3.58905e-05 -0.000209042 -3.33319e-12 3.33719e-11 -1.50257e-11 5e-05 1.46608e-10 
117 1 0.225501 0.0177748 0.00704128 0.00569289 0.000229835 0.000277946 5.73056e-13 -1.87355e-10 2.25901e-10 5e-05 1.46608e-10 
118 1 0.219472 0.0172467 0.00720529 0.00551576 -0.000287788 0.000248656 9.99485e-12 -1.67004e-10 -1.05178e-11 5e-05 1.46608e-10 
119 1 0.225697 0.0182834 0.0069565 0.00603981 -4.1595e-05 -0.00022119 2.07556e-10 -3.26185e-11 -1.32159e-11 5e-05 1.46608e-10 
120 1 0.225213 0.0169329 0.00760842 0.00562331 -0.00019738 -0.000452911 -5.72112e-10 7.97065e-11 7.45479e-11 5e-05 1.46608e-10 
121 1 0.22559 0.0186102 0.00695811 0.00613975 -1.18897e-05 -0.000225473 -9.56421e-11 -2.0312e-10 7.09922e-12 5e-05 1.46608e-10 
122 1 0.225305 0.0177052 0.00706408 0.00567109 0.000328441 0.000233214 -5.87226e-11 -1.75931e-10 2.24368e-10 5e-05 1.46608e-10 
123 1 0.219749 0.0180332 0.00710446 0.00581154 -0.000481721 0.000287456 -1.86633e-10 1.8734e-11 -5.45902e-12 5e-05 1.46608e-10 
124 1 0.225094 0.0168388 0.00769898 0.00571588 -0.000108079 -0.00053436 -3.29556e-10 3.35915e-10 -2.703e-10 5e-05 1.46608e-10 
125 1 0.225407 0.0177443 0.00705061 0.00568323 0.000265258 0.000260042 -6.19531e-11 -3.63759e-10 2.11685e-10 5e-05 1.46608e-10 
127 1 0.218757 0.0155953 0.00858643 0.00583738 0.000495891 0.000945643 -2.20526e-09 1.17503e-09 7.50741e-10 5e-05 1.46608e-10 
128 1 0.225029 0.0166167 0.00788925 0.0058256 -0.000195877 -0.000472843 2.4597e-10 3.73998e-10 -3.40247e-10 5e-05 1.46608e-10 
129 1 0.225396 0.0178464 0.00710124 0.00583261 0.000224472 7.05216e-05 -7.11198e-11 -3.24018e-10 -8.63442e-11 5e-05 1.46608e-10 
130 1 0.219382 0.0176675 0.00714235 0.00549485 -0.000304083 0.000250239 -1.51788e-10 -1.76852e-10 2.08385e-11 5e-05 1.46608e-10 
131 1 0.219401 0.0177647 0.00712933 0.00548354 -0.000304679 0.000248615 -6.42841e-11 -1.74735e-10 3.36171e-11 5e-05 1.46608e-10 
132 1 0.225402 0.0173259 0.00727221 0.00546834 0.000201743 6.42417e-05 -8.03686e-11 -1.98295e-10 -1.36484e-11 5e-05 1.46608e-10 
133 1 0.225524 0.0183166 0.0069626 0.00606184 -5.18641e-05 -0.000221393 2.16482e-10 1.02865e-10 -1.07979e-11 5e-05 1.46608e-10 
134 1 0.225484 0.018119 0.00696547 0.00568689 8.37913e-05 -0.000203165 3.81454e-10 -1.2945e-11 -9.88323e-12 5e-05 1.46608e-10 
135 1 0.225637 0.0179885 0.00696078 0.00575517 -1.21044e-06 -0.000188687 1.94656e-10 -2.12174e-10 7.95281e-11 5e-05 1.46608e-10 
136 1 0.219344 0.0170524 0.00732415 0.00557963 -0.000433217 -3.39939e-05 1.83858e-10 1.87025e-10 -1.91604e-10 5e-05 1.46608e-10 
137 1 0.22532 0.0178042 0.00715148 0.00559665 0.000256614 -0.000254996 1.98803e-10 1.6513e-10 1.05817e-09 5e-05 1.46608e-10 
138 1 0.225382 0.0180762 0.00696953 0.00568906 6.08799e-05 -0.000207461 1.46627e-10 4.46191e-10 -2.4136e-10 5e-05 1.46608e-10 
140 1 0.225267 0.017531 0.00715461 0.00562046 0.0003137 0.000199736 1.91316e-10 -1.94262e-10 2.19774e-10 5e-05 1.46608e-10 
141 1 0.219193 0.0164513 0.00783154 0.00584532 -0.000514625 7.85048e-06 -2.68123e-11 4.45422e-11 -3.22638e-11 5e-05 1.46608e-10 
142 1 0.219592 0.0176178 0.00715729 0.00545595 -0.000280999 0.000246583 -1.16163e-11 -8.35295e-11 7.1333e-12 5e-05 1.46608e-10 
143 1 0.218714 0.0154627 0.00872985 0.00584413 0.000408741 0.000905448 -4.01975e-10 -9.63156e-12 1.83278e-10 5e-05 1.46608e-10 
144 1 0.219513 0.0174408 0.00717937 0.00550036 -0.000295531 0.000249197 1.14736e-10 -1.73838e-10 3.03388e-11 5e-05 1.46608e-10 
146 1 0.218865 0.0159589 0.00826173 0.00599637 -0.00045768 -0.000106205 -8.88151e-11 3.06081e-10 1.69184e-10 5e-05 1.46608e-10 
147 1 0.219362 0.0175703 0.00715537 0.00551124 -0.000303058 0.000250074 -3.11321e-11 -1.7923e-10 1.41521e-11 5e-05 1.46608e-10 
148 1 0.219213 0.016526 0.00776836 0.00561771 -0.000468976 -1.40067e-05 5.06312e-11 -3.18841e-12 -2.84719e-13 5e-05 1.46608e-10 
149 1 0.225137 0.016987 0.00757209 0.00572966 -9.26055e-05 -0.000550366 -2.23002e-10 1.20965e-10 1.7443e-11 5e-05 1.46608e-10 
150 1 0.219705 0.0182966 0.00706552 0.00592356 -0.000437986 0.000285324 9.3094e-11 1.91766e-10 -9.68712e-12 5e-05 1.46608e-10 
151 1 0.219502 0.018196 0.00707209 0.00585489 -0.000390014 0.000276762 6.38575e-11 2.473e-10 1.01853e-11 5e-05 1.46608e-10 
153 1 0.219233 0.0166009 0.00770508 0.00552412 -0.000450659 -2.20331e-05 -4.64118e-11 -8.54698e-12 6.26533e-12 5e-05 1.46608e-10 
154 1 0.218844 0.0158845 0.00832487 0.00608167 -0.000486973 -0.00012994 7.54035e-10 3.11736e-10 7.79663e-10 5e-05 1.46608e-10 
155 1 0.218887 0.0160334 0.00819864 0.00599541 -0.000456059 -3.22491e-05 -1.50321e-10 5.71336e-10 -8.91172e-10 5e-05 1.46608e-10 
156 1 0.219171 0.0163768 0.00789466 0.0059506 -0.000537313 1.88596e-05 -9.86514e-13 6.63347e-11 -6.01457e-11 5e-05 1.46608e-10 
157 1 0.0219312 0.0187687 0.00551176 -3.82839e-14 8.16654e-14 2.95894e-13 -9.23289e-22 -5.52763e-22 3.74299e-23 5e-05 1.46608e-10 
158 1 0.219271 0.0167509 0.00757842 0.00552923 -0.000451909 -2.16375e-05 8.81252e-11 -2.59504e-11 9.93156e-12 5e-05 1.46608e-10 
159 1 0.22542 0.0174133 0.00722707 0.00549922 0.000291253 0.000255725 -1.97637e-10 -2.12681e-10 1.65334e-10 5e-05 1.46608e-10 
160 1 0.219365 0.018024 0.00709128 0.0054636 -0.000303673 0.00025025 -7.81487e-11 -4.30471e-11 2.54176e-11 5e-05 1.46608e-10 
162 1 0.219342 0.0177869 0.00720645 0.00548839 -0.000283225 0.000248263 -1.20267e-10 -2.01338e-10 4.16231e-11 5e-05 1.46608e-10 
164 1 0.218952 0.0162569 0.00800938 0.00595702 -0.00056072 3.88693e-05 1.12405e-11 -2.91907e-11 -2.75918e-11 5e-05 1.46608e-10 
165 1 0.21961 0.0182532 0.00706811 0.00590413 -0.000388103 0.000276895 1.24605e-10 1.32269e-10 -1.87047e-11 5e-05 1.46608e-10 
166 1 0.225401 0.0181748 0.00696812 0.00565556 4.35653e-05 -0.000206322 1.67857e-10 2.2409e-11 4.1997e-11 5e-05 1.46608e-10 
167 1 0.219469 0.0184948 0.0070286 0.00594642 -0.000424413 0.00028519 -1.20655e-11 1.08995e-10 -1.80887e-11 5e-05 1.46608e-10 
168 1 0.219785 0.0182379 0.00707685 0.00592455 -0.000449422 0.000286515 5.74974e-11 6.51167e-11 -8.55772e-12 5e-05 1.46608e-10 
169 1 0.219632 0.0183646 0.00705318 0.00591384 -0.00044474 0.00028651 1.04563e-10 9.18426e-11 -2.77976e-12 5e-05 1.46608e-10 
170 1 0.219546 0.0184143 0.0070429 0.00591392 -0.000431675 0.00028476 1.12782e-10 -5.05431e-13 -2.25124e-11 5e-05 1.46608e-10 
171 1 0.225644 0.0184472 0.00695729 0.00619376 7.67615e-05 -0.000227941 1.52584e-10 2.05457e-10 -5.53437e-12 5e-05 1.46608e-10 
172 1 0.219229 0.0173485 0.00720393 0.00552445 -0.000325546 0.000239877 -1.30319e-11 3.8419e-11 2.45389e-10 5e-05 1.46608e-10 
173 1 0.225531 0.0181693 0.00704673 0.00576439 -7.56023e-06 -0.000284131 2.24811e-10 1.90746e-10 1.62333e-11 5e-05 1.46608e-10 
174 1 0.218996 0.0164058 0.00788321 0.00595017 -0.000535971 1.68666e-05 -1.02202e-10 -1.12373e-10 7.67188e-11 5e-05 1.46608e-10 
176 1 0.219282 0.0171844 0.00721954 0.005458 -0.000366337 -8.6238e-05 -9.28185e-11 -8.7214e-11 6.81197e-11 5e-05 1.46608e-10 
177 1 0.218984 0.0160544 0.00817438 0.005997 -0.000559569 3.29795e-05 -1.04187e-10 1.70464e-10 -2.85294e-11 5e-05 1.46608e-10 
178 1 0.219259 0.0175053 0.00725063 0.00549891 -0.000320048 0.000254885 3.33995e-11 -2.39524e-11 -1.83463e-11 5e-05 1.46608e-10 
179 1 0.219386 0.0181163 0.00712387 0.0058069 -0.00039159 0.000293683 -9.1969e-12 1.01062e-10 8.3913e-11 5e-05 1.46608e-10 
182 1 0.225665 0.0185449 0.0069558 0.00612895 -2.4949e-05 -0.000224865 -3.49617e-11 -1.81517e-10 -1.36538e-12 5e-05 1.46608e-10 
183 1 0.219305 0.0175959 0.00723357 0.00541839 -0.000400067 0.00023224 1.27639e-10 -1.4548e-11 -8.18775e-11 5e-05 1.46608e-10 
184 1 0.225437 0.0181373 0.00705374 0.00573669 0.000168732 -0.000176193 3.0824e-10 -6.33747e-13 2.99944e-11 5e-05 1.46608e-10 
185 1 0.219532 0.0175381 0.00716632 0.00548498 -0.00029893 0.000249219 1.71522e-11 -1.14751e-10 1.98753e-11 5e-05 1.46608e-10 
186 1 0.219814 0.0179579 0.00711753 0.00573036 -0.000572674 0.000296914 -2.93486e-10 -7.5318e-11 -1.81495e-12 5e-05 1.46608e-10 
187 1 0.225546 0.0184148 0.0069611 0.00619517 0.000117157 -0.000227788 1.62272e-11 -3.57051e-10 -6.67624e-12 5e-05 1.46608e-10 
188 1 0.225401 0.0176594 0.00710315 0.00561241 0.000293035 0.000274972 -1.1199e-10 -1.93126e-10 2.87044e-10 5e-05 1.46608e-10 
189 1 0.225505 0.0186638 0.00696083 0.00612636 -2.19857e-05 -0.000225194 -1.3595e-10 -4.13282e-10 7.7904e-12 5e-05 1.46608e-10 
190 1 0.213433 0.0183294 0.00691794 0.00560088 -3.99339e-05 0.000416309 4.73059e-11 5.3353e-11 -6.69389e-12 5e-05 1.46608e-10 
191 1 0.225158 0.0170618 0.00750898 0.00547688 -5.71229e-05 -0.0005707 1.01861e-10 2.35345e-11 -1.94914e-11 5e-05 1.46608e-10 
192 1 0.219268 0.0175377 0.00715641 0.00550011 -0.000319237 0.000253081 8.04164e-12 2.43591e-11 -1.29376e-12 5e-05 1.46608e-10 
193 1 0.225718 0.018381 0.00695501 0.00605545 -4.4804e-05 -0.000222135 -1.5202e-10 5.84604e-12 1.40627e-11 5e-05 1.46608e-10 
194 1 0.21942 0.0177241 0.00721876 0.00537769 -0.000356472 0.000236307 2.73618e-10 4.71603e-11 1.11229e-10 5e-05 1.46608e-10 
195 1 0.219536 0.0179952 0.00710181 0.00576553 -0.000446828 0.00028005 -2.30763e-10 1.31702e-10 4.07372e-11 5e-05 1.46608e-10 
196 1 0.219499 0.0178004 0.00712798 0.00546864 -0.000378872 0.000260821 -6.96868e-11 2.73554e-10 -6.49458e-11 5e-05 1.46608e-10 
197 1 0.213124 0.0168981 0.00749637 0.005621 0.000286972 0.00042781 8.42485e-11 -3.11249e-10 3.29357e-10 5e-05 1.46608e-10 
198 1 0.219421 0.0169981 0.00736353 0.00554635 -0.000457943 -1.66427e-05 3.15662e-11 1.10307e-10 -4.73168e-11 5e-05 1.46608e-10 
199 1 0.219297 0.0176951 0.00722267 0.00547805 -0.000303255 0.000253892 1.74274e-11 -7.41984e-11 -1.42569e-11 5e-05 1.46608e-10 
200 1 0.2188 0.0157355 0.00845105 0.00586143 -4.33552e-05 0.00030346 -1.95843e-09 6.43047e-10 3.63719e-11 5e-05 1.46608e-10 
201 1 0.21959 0.0181505 0.00708187 0.00587958 -0.000359251 0.000272311 -5.85372e-11 7.44817e-11 -1.64472e-11 5e-05 1.46608e-10 
202 1 0.219289 0.0168265 0.00751471 0.00554103 -0.000454074 -2.06339e-05 5.42518e-11 -1.47943e-11 1.25726e-11 5e-05 1.46608e-10 
203 1 0.225465 0.0180208 0.0069673 0.00570584 7.45317e-05 -0.000165917 7.55107e-11 3.05834e-11 -1.7287e-10 5e-05 1.46608e-10 
204 1 0.219598 0.0178153 0.00712959 0.00548173 -0.000267944 0.000244857 -1.16286e-10 3.18972e-11 -4.60371e-12 5e-05 1.46608e-10 
205 1 0.219137 0.0165781 0.00773079 0.00561122 -0.000452157 -2.70134e-05 -4.19391e-11 -3.78031e-11 3.13851e-11 5e-05 1.46608e-10 
206 1 0.219176 0.016728 0.0076042 0.00552275 -0.000444333 -2.73002e-05 5.90763e-13 -2.19273e-11 1.70961e-11 5e-05 1.46608e-10 
207 1 0.21905 0.0162783 0.00798469 0.00595884 -0.000538942 1.97318e-05 -1.8274e-12 -6.58503e-11 4.46655e-11 5e-05 1.46608e-10 
208 1 0.219459 0.0171609 0.00725489 0.00551338 -0.000286773 0.000247797 -1.61754e-10 -8.1612e-11 -9.86497e-11 5e-05 1.46608e-10 
209 1 0.219377 0.0172158 0.00720609 0.00551649 -0.000289302 0.000248377 -3.23183e-12 -8.04663e-11 -3.31569e-12 5e-05 1.46608e-10 
210 1 0.225252 0.0170822 0.0074811 0.00554594 -0.00014569 -0.000494773 9.49777e-11 -3.69442e-10 9.91563e-11 5e-05 1.46608e-10 
211 1 0.22527 0.0171571 0.00741737 0.00558824 -0.000116808 -0.00042068 -4.01929e-10 2.26382e-10 1.21488e-11 5e-05 1.46608e-10 
212 1 0.219676 0.0181005 0.00709218 0.00587569 -0.000377397 0.000274655 -7.23176e-11 6.93416e-11 -3.53275e-11 5e-05 1.46608e-10 
213 1 0.225483 0.0185662 0.00696232 0.00609417 -3.80321e-05 -0.000222839 -1.07988e-10 -2.9559e-10 1.59202e-11 5e-05 1.46608e-10 
214 1 0.225343 0.0174752 0.00718869 0.00561503 0.000326863 0.000227869 3.65225e-10 -1.54825e-10 6.60488e-11 5e-05 1.46608e-10 
215 1 0.213335 0.0178549 0.00703631 0.00563159 -0.000141602 -0.000141023 -9.62346e-11 4.36011e-11 -9.1198e-12 5e-05 1.46608e-10 
216 1 0.219028 0.0162039 0.00804777 0.00596878 -0.000544932 2.52392e-05 1.34043e-10 -7.93171e-11 5.94885e-11 5e-05 1.46608e-10 
217 1 0.22574 0.0184786 0.00695352 0.00610057 -5.5937e-05 -0.000223667 1.74874e-11 -6.74365e-11 -1.31101e-12 5e-05 1.46608e-10 
218 1 0.219307 0.0177323 0.00713035 0.00550558 -0.000304079 0.000250855 -6.71186e-11 -1.11885e-10 -1.12535e-11 5e-05 1.46608e-10 
219 1 0.225116 0.0169156 0.0076389 0.0057193 -9.353e-05 -0.000550712 -1.16597e-10 2.26047e-10 -2.55254e-10 5e-05 1.46608e-10 
220 1 0.219421 0.0178619 0.00711631 0.00547564 -0.000304093 0.000249078 -6.6303e-11 -1.09224e-10 1.38828e-11 5e-05 1.46608e-10 
222 1 0.225591 0.0177162 0.00707878 0.00567059 0.000212368 0.000292779 -9.21785e-12 -1.46736e-10 9.25338e-11 5e-05 1.46608e-10 
224 1 0.219212 0.0168783 0.00747743 0.00554187 -0.00045378 -2.09245e-05 2.17131e-11 -7.57049e-12 -1.53386e-12 5e-05 1.46608e-10 
225 1 0.225194 0.0172112 0.00738102 0.00538165 3.45913e-05 -0.000630609 -1.45551e-10 2.39963e-10 -6.23596e-12 5e-05 1.46608e-10 
226 1 0.219335 0.0174338 0.00726211 0.0054426 -0.00028408 0.000248174 1.69611e-10 -2.19457e-10 5.90287e-11 5e-05 1.46608e-10 
227 1 0.213354 0.0179485 0.00700704 0.00563655 -0.000145663 -0.000138877 1.15637e-10 7.52246e-11 1.61804e-11 5e-05 1.46608e-10 
228 1 0.213295 0.0176677 0.00709486 0.00561102 -0.00011964 -0.000145688 3.70347e-10 -7.6724e-11 1.13347e-11 5e-05 1.46608e-10 
229 1 0.21977 0.0181359 0.00709073 0.00587975 -0.000407262 0.000279112 -1.87439e-11 -2.41682e-11 1.28553e-11 5e-05 1.46608e-10 
230 1 0.219117 0.0168545 0.00750389 0.0055374 -0.000441929 -3.02941e-05 -3.39823e-11 1.30946e-11 -1.55603e-11 5e-05 1.46608e-10 
232 1 0.219368 0.0179843 0.00718298 0.00546426 -0.00030955 0.000248971 5.37791e-12 -1.03286e-10 4.1405e-12 5e-05 1.46608e-10 
233 1 0.219449 0.0184026 0.00706162 0.0059032 -0.000413771 0.000277617 8.57212e-11 1.70286e-10 -6.89426e-11 5e-05 1.46608e-10 
234 1 0.225379 0.0176439 0.00719941 0.00559667 0.000312358 0.000286381 -2.96599e-10 -4.4792e-10 2.65681e-10 5e-05 1.46608e-10 
235 1 0.219079 0.0167045 0.00763053 0.00550765 -0.000434946 -3.35608e-05 1.19893e-11 7.87548e-13 -8.85801e-12 5e-05 1.46608e-10 
236 1 0.219172 0.0170802 0.00731408 0.00556678 -0.000442296 -1.5404e-05 3.9733e-11 6.68594e-11 1.657e-10 5e-05 1.46608e-10 
237 1 0.21919 0.0171601 0.00725674 0.00553647 -0.000388233 6.03494e-05 -6.91999e-11 7.35415e-12 8.75851e-11 5e-05 1.46608e-10 
239 1 0.213026 0.0165322 0.00782255 0.00596263 0.000391206 0.00036604 -1.72487e-10 -7.49447e-10 6.3335e-10 5e-05 1.46608e-10 
240 1 0.213087 0.0167516 0.00762717 0.0057567 0.000320099 0.000414302 -2.81028e-10 -1.92096e-10 1.59196e-10 5e-05 1.46608e-10 
241 1 0.213004 0.0164593 0.00788737 0.0059973 0.000419987 0.000347262 7.87372e-11 2.59329e-10 -2.29099e-10 5e-05 1.46608e-10 
242 1 0.219228 0.0163114 0.00794465 0.0059373 -0.000544894 2.62063e-05 2.93037e-12 9.24425e-11 -7.61445e-11 5e-05 1.46608e-10 
243 1 0.219479 0.0177033 0.00714096 0.00541268 -0.000356374 0.000257708 1.83221e-10 2.43226e-10 -3.14275e-11 5e-05 1.46608e-10 
244 1 0.213047 0.0166052 0.00775772 0.00579141 0.000365654 0.000371648 -1.79131e-10 1.71553e-10 -1.85981e-10 5e-05 1.46608e-10 
246 1 0.213221 0.0172926 0.0072121 0.00556863 -0.000111142 -0.000192143 -1.86604e-10 5.98567e-12 3.29781e-10 5e-05 1.46608e-10 
247 1 0.219017 0.0164803 0.00782012 0.00595695 -0.000527998 1.17706e-05 -4.72239e-11 -7.67035e-11 5.10453e-11 5e-05 1.46608e-10 
248 1 0.219324 0.0173758 0.00718143 0.00549902 -0.000296344 0.000248737 1.55546e-10 -1.5591e-10 4.04385e-11 5e-05 1.46608e-10 
249 1 0.213161 0.0170447 0.00736545 0.00561674 0.000240325 0.000470651 5.60765e-10 -1.15166e-11 2.3415e-10 5e-05 1.46608e-10 
250 1 0.219093 0.0164274 0.00785844 0.00595694 -0.000527628 1.02194e-05 -5.55173e-11 -8.62457e-12 1.89616e-11 5e-05 1.46608e-10 
251 1 0.225446 0.017922 0.00696826 0.00569419 -6.80045e-05 -0.000211465 -1.35657e-10 -2.90078e-11 -2.13269e-11 5e-05 1.46608e-10 
252 1 0.213237 0.017387 0.00718268 0.00558862 -0.000105552 -0.000154969 -1.04819e-11 -1.70173e-10 2.17727e-11 5e-05 1.46608e-10 
253 1 0.213413 0.0182323 0.0069323 0.00558361 -9.13762e-05 7.00293e-05 -6.99719e-11 2.04532e-12 -1.30288e-10 5e-05 1.46608e-10 
254 1 0.213179 0.017118 0.0072997 0.00559136 0.000239311 0.000468802 1.71109e-12 2.90828e-11 -9.88213e-11 5e-05 1.46608e-10 
255 1 0.218649 0.0152637 0.00894472 0.00539759 0.0001692 0.00102437 2.36579e-10 3.40606e-10 -2.82272e-10 5e-05 1.46608e-10 
256 1 0.219694 0.0178429 0.00712931 0.00550096 -0.0003193 0.000252452 -1.74752e-10 1.55395e-10 -2.78111e-11 5e-05 1.46608e-10 
257 1 0.219252 0.0166759 0.00764178 0.00554186 -0.000454083 -2.05921e-05 6.42931e-11 -2.96708e-11 2.35404e-11 5e-05 1.46608e-10 
258 1 0.219301 0.0172793 0.00719422 0.00551099 -0.000292809 0.000249875 6.14283e-11 -9.26016e-11 4.65258e-11 5e-05 1.46608e-10 