ITEM: TIMESTEP
52800000
ITEM: NUMBER OF ATOMS
275
ITEM: BOX BOUNDS ff ff ff
-0.02 0.43
-0.02 0.06
-0.02 0.07
ITEM: ATOMS id type x y z vx vy vz fx fy fz radius mass 
1 1 0.32115 0.0182547 0.00692474 0.00625654 -0.000222638 -0.000318148 9.77224e-12 -1.35318e-12 -3.05128e-10 5e-05 1.46608e-10 
2 1 0.320821 0.0171878 0.00753761 0.00562366 0.000265601 -0.000506855 -6.21057e-11 2.12135e-10 -3.73505e-10 5e-05 1.46608e-10 
4 1 0.320962 0.0170956 0.00748328 0.00570704 0.000145011 -0.000466105 -5.74237e-10 5.43868e-10 -1.93227e-10 5e-05 1.46608e-10 
5 1 0.320525 0.0159783 0.00806666 0.00586494 0.000448621 -0.000177754 -9.1212e-12 -2.34165e-11 -1.62874e-11 5e-05 1.46608e-10 
6 1 0.326685 0.0166027 0.0075907 0.00549421 -0.000625576 0.000784928 1.78249e-12 -2.60339e-12 -4.82501e-12 5e-05 1.46608e-10 
7 1 0.321124 0.0177953 0.00714267 0.0059961 -0.000199174 -0.000323705 8.39776e-11 -2.13366e-10 7.92583e-11 5e-05 1.46608e-10 
8 1 0.320846 0.0169626 0.007554 0.00550929 0.000288559 -0.000519512 -2.98766e-11 1.15853e-10 -5.6282e-11 5e-05 1.46608e-10 
9 1 0.326877 0.0174888 0.00722715 0.00536865 -0.000873912 0.000448225 -9.36195e-14 -3.16213e-12 2.99744e-12 5e-05 1.46608e-10 
10 1 0.320797 0.016762 0.00765178 0.00552588 0.000347657 -0.000548445 2.13792e-10 2.07449e-10 -1.07761e-10 5e-05 1.46608e-10 
11 1 0.321057 0.0180323 0.0071243 0.00608401 -0.000126975 -0.00034465 3.25575e-11 -2.81366e-11 -2.61353e-11 5e-05 1.46608e-10 
12 1 0.314982 0.0167565 0.00757711 0.0052441 -0.000554478 0.00100605 -6.27779e-11 -1.31624e-10 1.25364e-10 5e-05 1.46608e-10 
13 1 0.320505 0.015895 0.00811805 0.00585098 0.000421468 -0.000160124 7.41381e-12 2.38573e-11 1.56988e-11 5e-05 1.46608e-10 
14 1 0.314938 0.0173406 0.00719698 0.00542715 -0.000810086 0.000124674 4.33089e-10 -4.94172e-11 2.00094e-10 5e-05 1.46608e-10 
16 1 0.315138 0.0178611 0.0072266 0.00580664 -0.000740793 0.00102476 3.6583e-10 2.08041e-10 1.05234e-10 5e-05 1.46608e-10 
17 1 0.320628 0.0164065 0.00783091 0.00586731 0.000294843 -0.000549717 -3.1179e-11 1.26412e-11 3.5648e-11 5e-05 1.46608e-10 
19 1 0.320484 0.0158117 0.00816944 0.00584098 0.000404564 -0.000150391 -9.53989e-12 -2.84519e-11 -7.80798e-12 5e-05 1.46608e-10 
21 1 0.321162 0.0179772 0.00705438 0.0060264 -0.000224942 -0.000314776 3.55654e-11 -5.28833e-11 3.01103e-11 5e-05 1.46608e-10 
22 1 0.320998 0.01692 0.00756341 0.0054702 0.000300169 -0.000522212 -4.68937e-10 5.16039e-10 -2.07973e-10 5e-05 1.46608e-10 
23 1 0.31517 0.0176012 0.00721363 0.00588836 -0.000704285 0.00104065 -1.29026e-10 7.07404e-11 -1.31895e-11 5e-05 1.46608e-10 
24 1 0.326799 0.0171028 0.00729841 0.00541769 -0.000883361 0.000452703 -3.97689e-12 1.90656e-11 1.40294e-11 5e-05 1.46608e-10 
25 1 0.320694 0.0164723 0.00779532 0.00580678 0.000340396 -0.000565552 3.59878e-11 -3.68126e-11 -4.68399e-11 5e-05 1.46608e-10 
26 1 0.326838 0.0172958 0.00726278 0.00541222 -0.000881897 0.000451966 -9.35184e-12 1.22025e-11 -1.09239e-11 5e-05 1.46608e-10 
27 1 0.314788 0.0167178 0.00763208 0.00532482 -0.000537588 0.00101029 -3.29479e-11 -2.13114e-10 1.95768e-10 5e-05 1.46608e-10 
28 1 0.320809 0.0172126 0.00743887 0.00568135 -2.98591e-05 -0.000380389 7.72636e-11 1.10386e-10 -4.30302e-11 5e-05 1.46608e-10 
29 1 0.320463 0.0157284 0.00822083 0.00583448 0.000398477 -0.00014653 -1.16014e-11 -9.84103e-11 6.97602e-11 5e-05 1.46608e-10 
30 1 0.320722 0.0168236 0.00762804 0.00551157 0.000332318 -0.000540158 1.64372e-10 8.70506e-11 -7.27877e-11 5e-05 1.46608e-10 
31 1 0.321206 0.017742 0.00716204 0.00598483 -0.000210079 -0.000318029 2.04451e-10 -1.06788e-10 3.46997e-11 5e-05 1.46608e-10 
32 1 0.320663 0.0165591 0.00775665 0.0056965 0.000303111 -0.000539585 1.26597e-10 4.46397e-11 -6.17085e-12 5e-05 1.46608e-10 
33 1 0.326704 0.0166775 0.00752705 0.00553193 -0.000630074 0.000790911 1.03249e-11 4.08744e-12 -1.11599e-12 5e-05 1.46608e-10 
34 1 0.320607 0.0163185 0.00787376 0.00588391 0.000294025 -0.000558987 -1.59326e-10 7.67637e-11 -4.33502e-11 5e-05 1.46608e-10 
35 1 0.321082 0.0176185 0.00722879 0.00595709 -0.000136557 -0.00035062 -1.50237e-10 -1.1265e-10 3.80358e-11 5e-05 1.46608e-10 
36 1 0.326939 0.0177774 0.00717407 0.00575234 -0.000951858 0.000483113 6.70163e-13 2.13942e-12 -5.32739e-12 5e-05 1.46608e-10 
37 1 0.32095 0.0170002 0.00752904 0.00522345 0.000184249 -0.000464143 -2.64177e-10 3.46587e-10 -3.02234e-10 5e-05 1.46608e-10 
38 1 0.321041 0.0174421 0.00731468 0.00579995 -0.000156773 -0.000330329 -6.59424e-11 8.2651e-11 -6.8452e-11 5e-05 1.46608e-10 
39 1 0.326819 0.0171993 0.00728059 0.00541048 -0.00088276 0.000451977 -1.502e-11 2.82182e-12 -1.40537e-12 5e-05 1.46608e-10 
41 1 0.320566 0.0161449 0.00796388 0.00588359 0.000489084 -0.000201692 4.70927e-11 2.08699e-10 -1.31508e-10 5e-05 1.46608e-10 
42 1 0.321037 0.0171668 0.00744452 0.00542599 0.000389701 -0.000564421 -1.44507e-10 5.13896e-11 -6.03596e-11 5e-05 1.46608e-10 
44 1 0.321136 0.0174682 0.00729579 0.00589077 -0.000155136 -0.000337415 -1.37362e-11 -2.04492e-11 9.64951e-12 5e-05 1.46608e-10 
45 1 0.326722 0.0167522 0.00746333 0.00541517 -0.000615715 0.000773036 -7.01911e-12 -8.66399e-12 -2.57152e-12 5e-05 1.46608e-10 
47 1 0.320587 0.0162305 0.00791661 0.00588834 0.000279247 -0.000594431 2.84572e-11 2.11385e-11 -4.92974e-10 5e-05 1.46608e-10 
48 1 0.320972 0.0179168 0.00709606 0.00608606 -9.71833e-05 -0.000380748 9.55282e-11 1.67912e-11 -4.80025e-11 5e-05 1.46608e-10 
49 1 0.326896 0.0175853 0.00720934 0.0053478 -0.000869931 0.000446418 1.58875e-13 1.84777e-12 7.0787e-13 5e-05 1.46608e-10 
50 1 0.320683 0.0166472 0.00771379 0.00562363 0.000312248 -0.000538085 1.51646e-11 5.24633e-11 -5.67957e-11 5e-05 1.46608e-10 
51 1 0.321237 0.0179153 0.0070783 0.00596463 -0.000276037 -0.000285737 5.26915e-11 -1.40141e-10 5.63881e-11 5e-05 1.46608e-10 
52 1 0.315031 0.0169436 0.00734773 0.00539435 -0.000563798 0.00103331 2.1415e-10 -1.55177e-10 1.91304e-10 5e-05 1.46608e-10 
53 1 0.326761 0.0169181 0.0073592 0.00542423 -0.00092717 0.000366404 1.31482e-11 2.9165e-11 -2.37425e-11 5e-05 1.46608e-10 
54 1 0.321136 0.0186429 0.00689447 0.00624875 -0.000119869 0.000280091 -4.14832e-12 -1.00066e-10 3.12547e-11 5e-05 1.46608e-10 
55 1 0.314955 0.0170025 0.00731869 0.00547622 -0.000510057 0.000928308 2.94498e-10 -5.34111e-10 -1.04984e-09 5e-05 1.46608e-10 
56 1 0.321413 0.0185639 0.00690629 0.00625314 8.62569e-05 0.000282217 9.02462e-11 -6.88486e-11 7.26398e-12 5e-05 1.46608e-10 
57 1 0.326741 0.0168318 0.0074058 0.0054147 -0.000970012 0.000284008 -2.50534e-11 2.32884e-11 2.84117e-11 5e-05 1.46608e-10 
59 1 0.378022 0.019866 0.005332 -5.01979e-15 -7.41201e-15 7.69802e-14 1.11152e-24 7.75482e-25 2.06795e-25 5e-05 1.46608e-10 
60 1 0.321156 0.0175564 0.00725283 0.00595008 -0.000166348 -0.000335895 6.2616e-11 1.11328e-10 -5.68533e-11 5e-05 1.46608e-10 
61 1 0.320546 0.0160616 0.00801527 0.00587652 0.00047519 -0.000193188 4.36133e-11 7.68669e-11 -3.17362e-11 5e-05 1.46608e-10 
62 1 0.321061 0.0175302 0.00727182 0.00586683 -0.000167365 -0.000329552 6.83181e-11 5.60773e-11 -1.77712e-11 5e-05 1.46608e-10 
63 1 0.321171 0.0183474 0.00689365 0.00632249 -2.77243e-05 0.000287719 -1.39194e-11 -3.71642e-11 -1.71832e-11 5e-05 1.46608e-10 
64 1 0.32678 0.0170063 0.00731624 0.00544117 -0.000885902 0.000453442 -7.83711e-11 1.55227e-11 -4.28336e-11 5e-05 1.46608e-10 
65 1 0.314995 0.0171835 0.0072424 0.00525858 -0.000904975 0.000151849 -1.31086e-10 2.39188e-10 -1.09628e-10 5e-05 1.46608e-10 
66 1 0.31518 0.0178448 0.00731599 0.00581355 -0.00073487 0.00102737 4.6452e-10 7.98648e-11 1.18377e-10 5e-05 1.46608e-10 
67 1 0.321191 0.0180632 0.00701193 0.006119 -0.000237574 -0.000314941 -5.66998e-12 4.66155e-11 -5.01591e-12 5e-05 1.46608e-10 
68 1 0.320945 0.0174147 0.00733429 0.0057869 -6.43346e-05 -0.000373588 -2.47132e-11 9.03623e-11 -6.26861e-11 5e-05 1.46608e-10 
69 1 0.321274 0.0181108 0.0069837 0.00614421 -0.000310485 -0.000283215 1.4777e-10 9.50365e-12 2.61387e-12 5e-05 1.46608e-10 
70 1 0.326857 0.0173923 0.00724496 0.00538935 -0.000877981 0.00045028 1.55796e-12 -9.70528e-13 -1.04358e-12 5e-05 1.46608e-10 
71 1 0.315307 0.0178239 0.00725516 0.00584775 -0.0006539 0.00103749 1.46459e-10 -4.62723e-11 8.14913e-12 5e-05 1.46608e-10 
72 1 0.321314 0.018548 0.00690172 0.00626247 8.37812e-06 0.000282877 1.03006e-10 -1.2495e-11 1.24534e-11 5e-05 1.46608e-10 
73 1 0.321082 0.0168681 0.00758202 0.00558501 0.000458568 -0.000604253 -5.51644e-10 4.8393e-10 -2.01228e-10 5e-05 1.46608e-10 
74 1 0.320703 0.0167353 0.00767092 0.00556467 0.00032079 -0.000537804 1.4263e-10 6.80055e-11 -1.45188e-11 5e-05 1.46608e-10 
76 1 0.314901 0.016793 0.00752684 0.00533534 -0.000552757 0.00100201 -1.91097e-10 6.88409e-12 2.00472e-10 5e-05 1.46608e-10 
77 1 0.320824 0.0172857 0.00751725 0.00565713 0.000314926 -0.000280659 -6.62621e-11 3.54848e-10 -2.59319e-10 5e-05 1.46608e-10 
78 1 0.314335 0.0156334 0.00893653 0.00552769 -0.000240002 0.00138221 -1.71486e-11 -2.37198e-10 4.02404e-10 5e-05 1.46608e-10 
79 1 0.315224 0.0182502 0.00727073 0.00566012 -0.000704387 0.000999693 4.56042e-12 1.33828e-10 2.14638e-11 5e-05 1.46608e-10 
80 1 0.320912 0.0172916 0.00747002 0.00570399 0.000212978 -0.000210437 1.90795e-10 -3.94837e-11 3.29653e-10 5e-05 1.46608e-10 
82 1 0.315068 0.0177783 0.00730288 0.00579555 -0.000848367 0.00100701 1.14806e-10 4.40512e-10 5.68289e-11 5e-05 1.46608e-10 
83 1 0.315 0.0168188 0.00750093 0.00527747 -0.000558513 0.00100902 -1.30327e-10 -1.30156e-10 2.17673e-10 5e-05 1.46608e-10 
84 1 0.326917 0.0176814 0.00719168 0.00573669 -0.000948628 0.000482126 2.41275e-12 1.38214e-13 3.49166e-12 5e-05 1.46608e-10 
85 1 0.315277 0.0180865 0.00726863 0.00567544 -0.000684534 0.00100296 -8.0346e-11 2.23354e-10 -3.49086e-12 5e-05 1.46608e-10 
86 1 0.321116 0.0173801 0.00733865 0.00581971 -0.000150741 -0.000334308 -1.22718e-10 1.02072e-10 -3.57797e-11 5e-05 1.46608e-10 
87 1 0.320876 0.0171433 0.00746683 0.00570341 7.43685e-06 -0.00040741 6.13064e-11 1.2556e-10 9.35916e-11 5e-05 1.46608e-10 
88 1 0.321065 0.0177141 0.00727793 0.00595332 -6.73592e-05 -0.000374077 -2.89263e-11 -2.28856e-10 2.30484e-11 5e-05 1.46608e-10 
89 1 0.321339 0.0183517 0.00690127 0.00627427 9.78388e-06 0.000279469 1.55405e-10 8.78424e-11 8.24175e-11 5e-05 1.46608e-10 
90 1 0.321204 0.0181776 0.00695708 0.00618499 -0.000273727 -0.000300429 2.20343e-10 1.81832e-10 -9.92014e-11 5e-05 1.46608e-10 
91 1 0.314962 0.0166945 0.00765289 0.00526719 -0.000557688 0.00101385 -8.67549e-12 2.73393e-11 1.24074e-10 5e-05 1.46608e-10 
92 1 0.320935 0.0177359 0.00728153 0.00595219 -0.000114737 -0.000405076 -6.00694e-11 -1.6268e-10 -4.65342e-11 5e-05 1.46608e-10 
93 1 0.321077 0.0170829 0.00748123 0.00537721 0.00037733 -0.000552282 -1.24869e-10 1.92492e-11 -8.31249e-12 5e-05 1.46608e-10 
94 1 0.321013 0.0181026 0.00705091 0.00612348 -0.00012039 -0.000372824 -5.20393e-11 8.97634e-11 -2.46515e-10 5e-05 1.46608e-10 
95 1 0.321081 0.0178513 0.00721376 0.0060225 -0.00016186 -0.000338809 1.37017e-10 -1.62014e-10 -2.41789e-12 5e-05 1.46608e-10 
96 1 0.32089 0.0175649 0.00726762 0.00587162 -6.51216e-05 -0.000380095 7.22968e-12 -1.38415e-10 4.32033e-11 5e-05 1.46608e-10 
97 1 0.314542 0.0159639 0.00853442 0.005568 -0.000570387 0.00104739 4.71971e-12 -1.14824e-10 1.49396e-10 5e-05 1.46608e-10 
98 1 0.321146 0.0170157 0.00750807 0.00536203 0.000365234 -0.000545348 -2.7372e-10 -8.75971e-11 2.96014e-11 5e-05 1.46608e-10 
99 1 0.314922 0.0176979 0.00717508 0.0058239 -0.000810285 0.00103913 4.83851e-11 3.30299e-10 6.14347e-11 5e-05 1.46608e-10 
100 1 0.321144 0.0178839 0.00709958 0.00616819 -5.12507e-05 -0.000404977 -8.46845e-11 -3.35938e-11 1.22139e-11 5e-05 1.46608e-10 
101 1 0.314943 0.017795 0.00718561 0.00581205 -0.000808299 0.00103039 7.10464e-11 5.29871e-10 -1.49323e-11 5e-05 1.46608e-10 
102 1 0.0643568 0.0187248 0.00531097 4.21271e-15 1.05025e-14 8.29622e-14 2.42783e-21 -2.96415e-22 -8.16841e-23 5e-05 1.46608e-10 
103 1 0.24257 0.0191927 0.00520306 -1.01195e-22 -1.27651e-22 1.23839e-22 0 0 0 5e-05 1.46608e-10 
104 1 0.315234 0.0178923 0.00724665 0.00578926 -0.000698283 0.00102499 3.26127e-10 1.41225e-10 7.97433e-11 5e-05 1.46608e-10 
105 1 0.31452 0.0159021 0.00860992 0.00556463 -0.000572162 0.00105021 7.76539e-11 -1.05229e-10 1.55914e-10 5e-05 1.46608e-10 
106 1 0.314936 0.0177364 0.00726629 0.0057785 -0.000809733 0.00104391 4.04314e-10 2.77849e-10 -3.6664e-11 5e-05 1.46608e-10 
107 1 0.314357 0.0156932 0.00885938 0.00553316 -0.000462835 0.00119515 -1.93497e-10 -1.234e-10 5.25021e-10 5e-05 1.46608e-10 
108 1 0.321389 0.0184667 0.00690444 0.00626704 7.04445e-05 0.000282916 -1.11362e-10 8.2495e-11 -1.14547e-13 5e-05 1.46608e-10 
109 1 0.321296 0.0182117 0.0069347 0.00608037 -0.000138456 -0.000359977 -1.27732e-10 -1.83708e-10 1.86086e-10 5e-05 1.46608e-10 
110 1 0.320903 0.0171329 0.00756244 0.00582493 -2.59287e-05 -0.000455977 -9.86524e-11 8.86191e-11 4.69272e-10 5e-05 1.46608e-10 
111 1 0.320766 0.017019 0.007533 0.00553174 0.00032754 -0.000540413 -1.73561e-11 -2.49088e-11 1.86505e-11 5e-05 1.46608e-10 
112 1 0.314423 0.0158787 0.008633 0.00558821 -0.000609657 0.00109164 4.87072e-10 -3.06705e-10 1.21936e-10 5e-05 1.46608e-10 
113 1 0.314844 0.0173104 0.00720945 0.00546118 -0.000802889 4.02765e-05 -6.69205e-11 -7.19603e-11 3.14128e-10 5e-05 1.46608e-10 
114 1 0.314882 0.0175034 0.00717621 0.00543294 -0.000741193 0.000594376 3.47048e-11 5.46805e-11 2.82432e-10 5e-05 1.46608e-10 
115 1 0.321021 0.017354 0.00735756 0.00574243 -7.77182e-05 -0.000362888 -2.21452e-10 2.88692e-10 -1.21235e-10 5e-05 1.46608e-10 
116 1 0.321069 0.0179458 0.00707564 0.00611976 -0.000101796 -0.00037975 -6.66595e-11 -3.65071e-11 2.98574e-11 5e-05 1.46608e-10 
117 1 0.321103 0.0177073 0.00718556 0.00597986 -0.000118507 -0.000360217 1.95316e-11 -4.96056e-11 1.57332e-11 5e-05 1.46608e-10 
118 1 0.315071 0.017124 0.00727332 0.00556992 -0.000614323 0.00102999 2.52516e-10 5.66281e-11 7.61855e-10 5e-05 1.46608e-10 
119 1 0.321293 0.0184402 0.00689989 0.00628483 2.18625e-05 0.000281128 5.19683e-12 -1.65716e-11 -4.1146e-11 5e-05 1.46608e-10 
120 1 0.320906 0.0168889 0.0075845 0.00545995 0.000247582 -0.000496547 -4.47828e-10 9.51913e-11 -1.58867e-11 5e-05 1.46608e-10 
121 1 0.321071 0.0183502 0.00689837 0.00628757 -0.000134197 -0.000289232 -1.05745e-11 1.05799e-10 1.66006e-11 5e-05 1.46608e-10 
122 1 0.32087 0.0174767 0.0073103 0.00583128 -5.69275e-05 -0.000379882 4.56092e-11 5.68872e-11 -5.57703e-11 5e-05 1.46608e-10 
123 1 0.315328 0.017921 0.00726614 0.00577433 -0.000632702 0.00102631 2.18801e-10 -3.41765e-11 4.55714e-11 5e-05 1.46608e-10 
124 1 0.321049 0.0169968 0.00752371 0.00525897 0.000339137 -0.000527596 -5.71156e-10 5.17116e-10 -1.82879e-10 5e-05 1.46608e-10 
125 1 0.320985 0.0175908 0.00724857 0.00589838 -0.000119923 -0.000355046 -1.63523e-10 -1.21986e-10 2.24343e-11 5e-05 1.46608e-10 
127 1 0.314564 0.0160257 0.00845902 0.00558692 -0.000563384 0.00104015 -2.79725e-11 -8.24071e-11 9.35394e-11 5e-05 1.46608e-10 
128 1 0.320888 0.0168004 0.00762741 0.00555218 0.000357502 -0.00055545 -5.7491e-11 1.35656e-10 -5.62611e-11 5e-05 1.46608e-10 
129 1 0.3211 0.0179395 0.00717041 0.0061266 -0.000105086 -0.000383507 4.13048e-12 -3.08099e-11 3.49052e-11 5e-05 1.46608e-10 
130 1 0.314976 0.0175361 0.00717302 0.00542549 -0.000617437 0.000968008 1.55302e-10 -3.07779e-10 3.28499e-10 5e-05 1.46608e-10 
131 1 0.314998 0.0176333 0.00718399 0.00586546 -0.000782024 0.00103107 -9.47754e-11 1.16042e-10 -2.96117e-11 5e-05 1.46608e-10 
132 1 0.320977 0.0172406 0.00741396 0.00553827 0.000452969 -0.000602178 -1.1405e-10 1.35361e-11 7.33339e-11 5e-05 1.46608e-10 
133 1 0.321089 0.0180403 0.00702979 0.00609196 -0.000169417 -0.000343979 -1.58475e-11 2.70777e-11 -3.38201e-12 5e-05 1.46608e-10 
134 1 0.321047 0.017855 0.00711993 0.00604446 -0.000146143 -0.000350488 2.56789e-10 6.99093e-11 -5.00387e-11 5e-05 1.46608e-10 
135 1 0.32128 0.0180203 0.00702587 0.00609444 -0.000305021 -0.000281652 -1.41253e-10 -1.2896e-10 7.27465e-11 5e-05 1.46608e-10 
136 1 0.314939 0.0169257 0.00738218 0.00537425 -0.000543267 0.00100229 1.70857e-10 -1.30294e-10 1.31391e-10 5e-05 1.46608e-10 
137 1 0.32098 0.0178218 0.00723445 0.00602078 -5.64131e-05 -0.000388482 -5.63007e-11 -2.27264e-10 -9.0873e-11 5e-05 1.46608e-10 
138 1 0.320931 0.0177409 0.00718174 0.00598514 -6.42783e-05 -0.000390233 -6.16428e-11 -1.26394e-10 2.74488e-11 5e-05 1.46608e-10 
140 1 0.320829 0.0173006 0.00739601 0.00573463 -3.9542e-05 -0.000380748 -8.13184e-11 1.81568e-11 1.50624e-11 5e-05 1.46608e-10 
141 1 0.314791 0.01642 0.00798332 0.00545556 -0.000571148 0.00104167 4.78468e-10 -5.91815e-11 1.26417e-10 5e-05 1.46608e-10 
142 1 0.315149 0.017504 0.00720271 0.00592839 -0.000705845 0.00104757 -2.83069e-10 3.1074e-11 -2.85533e-11 5e-05 1.46608e-10 
143 1 0.314379 0.0157551 0.00878386 0.00552998 -0.000577544 0.00109692 -7.2471e-11 1.85873e-10 8.01281e-10 5e-05 1.46608e-10 
144 1 0.315109 0.0173115 0.00721554 0.00595464 -0.00069335 0.00106632 -5.39173e-11 -6.15673e-11 7.35079e-11 5e-05 1.46608e-10 
146 1 0.314466 0.0160025 0.0084819 0.00552832 -0.00059931 0.00108091 -7.56422e-11 -1.17093e-10 1.52766e-10 5e-05 1.46608e-10 
147 1 0.314956 0.017437 0.00716795 0.00541209 -0.000758678 -0.000231197 -6.05009e-10 4.39632e-10 -2.25257e-10 5e-05 1.46608e-10 
148 1 0.314811 0.016482 0.00790754 0.00542104 -0.000565432 0.00103235 8.16352e-10 -7.01541e-11 1.23832e-10 5e-05 1.46608e-10 
149 1 0.320812 0.016861 0.00760417 0.00552776 0.000331165 -0.000540293 3.94104e-11 8.19864e-11 -3.1699e-11 5e-05 1.46608e-10 
150 1 0.315071 0.0183775 0.00725156 0.00564207 -0.000744929 0.000992855 -1.06647e-11 5.27611e-11 -4.12085e-13 5e-05 1.46608e-10 
151 1 0.315084 0.0180234 0.00722835 0.00572404 -0.000768404 0.00100685 -1.82671e-11 -9.52413e-11 -1.87733e-12 5e-05 1.46608e-10 
153 1 0.31483 0.0165441 0.00783157 0.00535451 -0.000559836 0.00102107 6.71235e-11 2.16951e-11 1.04323e-13 5e-05 1.46608e-10 
154 1 0.314444 0.0159406 0.00855739 0.00553909 -0.000600835 0.00108714 3.12829e-10 -5.60335e-11 1.31361e-10 5e-05 1.46608e-10 
155 1 0.314488 0.0160643 0.0084065 0.00553439 -0.000594226 0.00107518 -1.15952e-10 -1.50762e-10 1.80556e-10 5e-05 1.46608e-10 
156 1 0.314769 0.0163581 0.00805886 0.0055264 -0.000583498 0.00106065 3.35247e-10 -1.28899e-11 3.96615e-11 5e-05 1.46608e-10 
157 1 0.0219312 0.0187687 0.00551176 -3.84129e-14 8.16625e-14 2.95878e-13 -2.47379e-23 -1.15754e-22 2.70902e-23 5e-05 1.46608e-10 
158 1 0.314869 0.0166689 0.00768027 0.00526039 -0.000537606 0.00101812 9.93414e-11 3.40608e-11 1.12204e-10 5e-05 1.46608e-10 
159 1 0.320924 0.0173266 0.00737717 0.00568828 -0.000111992 -0.000340462 -1.41197e-10 -3.28549e-10 1.16567e-10 5e-05 1.46608e-10 
160 1 0.314964 0.0178921 0.0071966 0.00576414 -0.000823198 0.00101226 1.82821e-10 2.79304e-10 3.20246e-11 5e-05 1.46608e-10 
162 1 0.315113 0.0179928 0.00731909 0.00575284 -0.000726364 0.00100985 -3.04037e-10 -3.0372e-10 1.45633e-12 5e-05 1.46608e-10 
164 1 0.314553 0.01625 0.00817992 0.00554627 -0.000580243 0.00105813 -5.92753e-11 -7.84848e-11 8.03459e-11 5e-05 1.46608e-10 
165 1 0.315181 0.0180553 0.00724858 0.00571645 -0.000735913 0.00100322 -3.35247e-11 1.24935e-10 2.09922e-11 5e-05 1.46608e-10 
166 1 0.320951 0.0178289 0.00713889 0.00602714 -7.37297e-05 -0.000386837 -1.97276e-11 -7.03355e-11 -9.8112e-12 5e-05 1.46608e-10 
167 1 0.315028 0.0181833 0.00722958 0.00569591 -0.000762841 0.00100263 -1.44251e-11 -4.11805e-11 8.09569e-12 5e-05 1.46608e-10 
168 1 0.315148 0.0183152 0.00726145 0.00565209 -0.000721223 0.000997393 5.28966e-11 1.64794e-10 1.36811e-11 5e-05 1.46608e-10 
169 1 0.31505 0.0182804 0.00724057 0.00566602 -0.000750698 0.000998034 -7.97783e-12 4.02706e-11 -2.26709e-12 5e-05 1.46608e-10 
170 1 0.315127 0.0182181 0.00725045 0.00566977 -0.00072413 0.000999562 -6.36364e-11 1.48986e-10 -2.23947e-11 5e-05 1.46608e-10 
171 1 0.321193 0.0184448 0.00689809 0.00628614 -1.56554e-05 0.000187855 1.07682e-10 -1.06693e-10 -1.23683e-10 5e-05 1.46608e-10 
172 1 0.314824 0.0172162 0.00723653 0.00550469 -0.000792467 0.000113223 -2.96285e-10 -4.36196e-10 1.16957e-10 5e-05 1.46608e-10 
173 1 0.321256 0.0182958 0.00689785 0.00634758 -4.22965e-05 -0.000408079 4.7296e-11 -9.04348e-11 -4.18749e-11 5e-05 1.46608e-10 
174 1 0.314596 0.0163737 0.00802894 0.00552764 -0.000568426 0.00104339 6.44177e-11 -9.28321e-11 9.90489e-11 5e-05 1.46608e-10 
176 1 0.31488 0.0170611 0.00728931 0.0055184 -0.00057242 0.000705442 1.93178e-10 -6.06792e-10 -1.03659e-09 5e-05 1.46608e-10 
177 1 0.314585 0.0160877 0.00838342 0.0055546 -0.000560958 0.00103522 -1.31934e-10 -7.44786e-11 8.81387e-11 5e-05 1.46608e-10 
178 1 0.314926 0.0176362 0.00725371 0.00580831 -0.000985533 0.000925707 -1.34367e-10 1.11423e-10 1.30823e-10 5e-05 1.46608e-10 
179 1 0.315031 0.0180502 0.0073087 0.00572679 -0.000766922 0.00100893 -1.21163e-10 1.01714e-12 -2.47443e-11 5e-05 1.46608e-10 
182 1 0.321093 0.0184477 0.00689661 0.00628172 -0.000132771 3.27453e-05 8.69502e-11 6.05889e-11 -9.02305e-11 5e-05 1.46608e-10 
183 1 0.314968 0.0178545 0.00728922 0.00576013 -0.000876624 0.000999764 -1.04503e-10 1.03236e-10 -1.1705e-10 5e-05 1.46608e-10 
184 1 0.321224 0.0182704 0.00698917 0.00634947 -0.000163034 -0.000436456 -1.51559e-10 -3.75016e-11 -9.96486e-11 5e-05 1.46608e-10 
185 1 0.315128 0.0174069 0.00719176 0.00596441 -0.000705468 0.00105483 -3.05467e-10 -7.57201e-12 -4.16227e-11 5e-05 1.46608e-10 
186 1 0.315349 0.0180181 0.00727714 0.0057055 -0.000655062 0.00101131 1.2566e-10 3.03174e-10 5.35879e-11 5e-05 1.46608e-10 
187 1 0.321117 0.0181263 0.00698735 0.0061543 -0.000190206 -0.000337906 8.22771e-11 8.47562e-11 -2.05993e-11 5e-05 1.46608e-10 
188 1 0.320965 0.0175028 0.00729143 0.005828 -0.00011269 -0.000354132 1.74332e-11 7.07706e-12 4.38569e-11 5e-05 1.46608e-10 
189 1 0.32105 0.0182578 0.00693025 0.00624537 -0.000170889 -0.000406998 1.30464e-11 7.25289e-11 -4.94038e-11 5e-05 1.46608e-10 
190 1 0.309055 0.0182696 0.00690235 0.00637133 0.000222254 8.48943e-05 -3.32286e-11 8.69184e-11 -9.91573e-12 5e-05 1.46608e-10 
191 1 0.320746 0.0169309 0.00757587 0.00551517 0.000325318 -0.000536854 -8.51148e-11 -1.12804e-10 6.47736e-11 5e-05 1.46608e-10 
192 1 0.314863 0.0174057 0.00718604 0.00546929 -0.00078787 0.000182884 2.27973e-10 1.66344e-10 6.42157e-10 5e-05 1.46608e-10 
193 1 0.321214 0.0185434 0.00689719 0.00626233 -5.64972e-05 0.00028566 8.75672e-11 -9.15321e-11 1.54418e-11 5e-05 1.46608e-10 
194 1 0.315079 0.0178801 0.0073047 0.00579376 -0.00077543 0.00102034 -1.33686e-10 -2.24519e-11 -5.9899e-11 5e-05 1.46608e-10 
195 1 0.315062 0.0179258 0.00721724 0.00578179 -0.000768305 0.00102009 1.57458e-10 9.38703e-11 1.34412e-11 5e-05 1.46608e-10 
196 1 0.315094 0.0176674 0.00720434 0.00588404 -0.000746551 0.00103395 -2.99453e-10 1.46517e-10 -1.197e-10 5e-05 1.46608e-10 
197 1 0.308735 0.0168099 0.00744433 0.00567509 0.000234113 -0.000340202 -8.04443e-11 1.43994e-10 -9.71773e-11 5e-05 1.46608e-10 
198 1 0.315017 0.0168812 0.00742473 0.00533559 -0.00055057 0.00102997 3.47236e-11 -1.5785e-10 2.45584e-10 5e-05 1.46608e-10 
199 1 0.315009 0.0179516 0.00729741 0.00573184 -0.000829345 0.00100895 -1.39999e-10 -8.87131e-12 -6.32833e-11 5e-05 1.46608e-10 
200 1 0.314402 0.0158167 0.00870868 0.00556484 -0.000614459 0.00107603 -2.03314e-10 -3.52624e-11 3.83206e-10 5e-05 1.46608e-10 
201 1 0.315159 0.0179582 0.00723759 0.00574991 -0.000738933 0.00101435 1.8126e-10 1.07417e-10 6.44225e-11 5e-05 1.46608e-10 
202 1 0.314883 0.0167321 0.0076041 0.00532002 -0.000548218 0.00101378 -1.28423e-10 1.18101e-10 2.0197e-10 5e-05 1.46608e-10 
203 1 0.321026 0.017767 0.0071628 0.00600417 -9.34316e-05 -0.000374467 -1.10296e-10 -1.54419e-10 5.53782e-11 5e-05 1.46608e-10 
204 1 0.315189 0.0176988 0.0072242 0.00587196 -0.000710622 0.00103762 -1.63384e-11 9.20513e-11 1.24575e-11 5e-05 1.46608e-10 
205 1 0.314736 0.016521 0.0078545 0.00535399 -0.000540381 0.000999686 2.82884e-10 -2.20853e-10 3.28557e-10 5e-05 1.46608e-10 
206 1 0.314774 0.0166467 0.0077008 0.00535238 -0.000532926 0.000998482 -3.94441e-11 -3.27636e-10 4.41594e-10 5e-05 1.46608e-10 
207 1 0.31465 0.0162733 0.00815688 0.00555569 -0.000555949 0.00102905 -7.34961e-11 -1.29503e-10 1.46567e-10 5e-05 1.46608e-10 
208 1 0.315052 0.0170304 0.00730278 0.00547324 -0.000591479 0.00102436 2.58486e-10 7.07984e-12 5.7466e-10 5e-05 1.46608e-10 
209 1 0.314975 0.0170894 0.00727078 0.00545682 -0.000845134 0.000123811 4.48314e-12 7.6798e-11 -4.08239e-11 5e-05 1.46608e-10 
210 1 0.320867 0.0170539 0.00751074 0.00514476 -8.22778e-05 -0.00072674 -8.89983e-11 -6.36079e-11 -8.08429e-10 5e-05 1.46608e-10 
211 1 0.320785 0.0171072 0.00749012 0.00554123 0.0003292 -0.000545519 1.235e-11 -6.94057e-11 -5.23587e-11 5e-05 1.46608e-10 
212 1 0.315255 0.0179894 0.00725765 0.00572169 -0.000690199 0.00101213 1.84038e-10 1.37545e-10 2.57886e-11 5e-05 1.46608e-10 
213 1 0.321032 0.0181787 0.0069889 0.00616959 -0.000149483 -0.000390813 2.21967e-11 2.35148e-11 -1.9377e-10 5e-05 1.46608e-10 
214 1 0.320912 0.0174155 0.0074287 0.00572281 -6.03358e-05 -0.000392649 -1.67602e-11 -1.22272e-10 -1.53306e-10 5e-05 1.46608e-10 
215 1 0.308949 0.0178034 0.00704811 0.00624842 0.000266309 7.36674e-05 1.89013e-10 -3.30465e-10 1.15625e-10 5e-05 1.46608e-10 
216 1 0.314629 0.0162115 0.00823237 0.0055797 -0.000556027 0.00103087 -3.20731e-11 -1.49039e-10 1.77195e-10 5e-05 1.46608e-10 
217 1 0.321114 0.0185453 0.0068927 0.00626161 -0.000120064 0.000279857 5.62103e-11 4.86088e-11 -4.01472e-11 5e-05 1.46608e-10 
218 1 0.314901 0.0176008 0.00716366 0.00538642 -0.000692263 0.000952644 4.22546e-10 2.54693e-10 2.00142e-11 5e-05 1.46608e-10 
219 1 0.320984 0.0168308 0.00760637 0.00522617 0.000268491 -0.000490423 -5.63237e-10 5.18188e-10 -2.06566e-10 5e-05 1.46608e-10 
220 1 0.315017 0.0177307 0.00720733 0.00575899 -0.000896565 0.00102789 -1.89011e-10 3.27413e-10 -6.37682e-11 5e-05 1.46608e-10 
222 1 0.321177 0.0176445 0.00720996 0.00593902 -0.000158437 -0.000338678 1.38422e-10 1.11784e-11 -1.17679e-11 5e-05 1.46608e-10 
224 1 0.314806 0.0167705 0.00754904 0.00533511 -0.000550422 0.00100905 -2.9204e-10 -1.02395e-10 1.54964e-10 5e-05 1.46608e-10 
225 1 0.320801 0.0170947 0.00758801 0.00555365 0.000317226 -0.000553369 -1.00621e-10 1.01142e-10 2.52598e-11 5e-05 1.46608e-10 
226 1 0.315028 0.0176623 0.00727942 0.00451809 -0.00258868 -0.000339218 -1.5346e-10 1.85535e-10 -3.70425e-10 5e-05 1.46608e-10 
227 1 0.30897 0.0178967 0.00701902 0.00626601 0.000255672 7.70424e-05 1.43062e-10 -2.49478e-10 1.07439e-10 5e-05 1.46608e-10 
228 1 0.308908 0.0176166 0.00710642 0.00604071 0.000286454 6.35067e-05 -2.8864e-10 -1.82432e-11 -1.85927e-12 5e-05 1.46608e-10 
229 1 0.315203 0.0181532 0.00725974 0.00566857 -0.00070556 0.00100042 -1.26987e-10 1.45614e-10 -1.98483e-11 5e-05 1.46608e-10 
230 1 0.314713 0.0167462 0.00757344 0.00533752 -0.000548304 0.00100545 -1.40276e-10 -2.16241e-10 2.51807e-10 5e-05 1.46608e-10 
232 1 0.315141 0.0180973 0.00733004 0.00575845 -0.0007094 0.00100123 -1.69579e-10 -6.24531e-11 5.63945e-12 5e-05 1.46608e-10 
233 1 0.315007 0.0180863 0.00721859 0.0057171 -0.000779922 0.00100605 -4.73599e-11 -7.52632e-11 -1.46527e-11 5e-05 1.46608e-10 
234 1 0.321225 0.0180576 0.00710583 0.00614237 -0.000267562 -0.000325049 -3.22055e-11 -5.87138e-12 -4.83601e-12 5e-05 1.46608e-10 
235 1 0.314678 0.0166217 0.00772604 0.00530534 -0.00054608 0.0010023 4.41137e-10 -1.90244e-10 2.81028e-10 5e-05 1.46608e-10 
236 1 0.314766 0.0169543 0.00736246 0.00544271 -0.000477692 0.000985922 1.33218e-10 -3.35145e-10 -6.22706e-10 5e-05 1.46608e-10 
237 1 0.314785 0.0170314 0.00730169 0.00548783 -0.000551636 0.000849674 -1.11701e-11 -1.28212e-10 2.15008e-10 5e-05 1.46608e-10 
239 1 0.308637 0.0164198 0.00774125 0.00570287 0.000205424 -0.00031918 -2.73038e-11 -2.09766e-10 1.60157e-10 5e-05 1.46608e-10 
240 1 0.308695 0.016654 0.00756302 0.00566095 0.000217242 -0.000326677 2.39285e-10 6.90506e-11 -5.82354e-11 5e-05 1.46608e-10 
241 1 0.308617 0.0163417 0.00780063 0.00568396 0.000216881 -0.000327123 -4.50579e-11 -2.06108e-10 1.56182e-10 5e-05 1.46608e-10 
242 1 0.314948 0.016632 0.00772968 0.00523598 -0.000560637 0.00101463 3.70252e-10 4.28758e-11 -5.91677e-11 5e-05 1.46608e-10 
243 1 0.315074 0.0175699 0.00719364 0.00590292 -0.000744876 0.00103922 -2.77776e-10 1.25051e-11 -1.33047e-10 5e-05 1.46608e-10 
244 1 0.308656 0.0164978 0.00768186 0.00573189 0.000197141 -0.000313665 -5.29688e-11 -9.21931e-11 7.88731e-11 5e-05 1.46608e-10 
246 1 0.30883 0.0172421 0.00722342 0.0057401 0.000351725 3.897e-05 -2.61832e-10 6.05135e-11 -7.21359e-11 5e-05 1.46608e-10 
247 1 0.314618 0.0164356 0.00795345 0.00554539 -0.000565568 0.0010435 -5.57134e-11 -1.47712e-10 1.1748e-10 5e-05 1.46608e-10 
248 1 0.314919 0.0172464 0.0072254 0.00540002 -0.000783649 0.000111212 -2.63515e-10 -1.06763e-10 3.1934e-10 5e-05 1.46608e-10 
249 1 0.308771 0.0169665 0.00732528 0.00572983 0.000230524 -0.000337851 4.66399e-12 -1.51312e-11 7.37665e-11 5e-05 1.46608e-10 
250 1 0.314694 0.0163971 0.00800586 0.00554021 -0.000564567 0.0010407 2.31006e-10 -5.33767e-11 1.11991e-10 5e-05 1.46608e-10 
251 1 0.321006 0.0176789 0.00720568 0.00597155 -9.35789e-05 -0.000373458 -5.30873e-11 -6.81936e-11 4.89294e-12 5e-05 1.46608e-10 
252 1 0.308849 0.0173358 0.00719416 0.00573607 0.00035379 3.56875e-05 -3.30452e-10 3.28887e-10 -1.32506e-10 5e-05 1.46608e-10 
253 1 0.309034 0.0181764 0.00693161 0.00635243 0.000238512 8.24974e-05 4.88646e-11 1.20667e-10 -1.22247e-11 5e-05 1.46608e-10 
254 1 0.30879 0.0170561 0.0072854 0.00574524 0.000300978 -0.000158798 -6.79561e-11 -5.37657e-11 2.04371e-10 5e-05 1.46608e-10 
255 1 0.314314 0.0155739 0.00901392 0.00552541 -0.000248149 0.0013867 -3.12179e-11 -2.92906e-10 3.80839e-10 5e-05 1.46608e-10 
256 1 0.315213 0.0177952 0.00723567 0.00585086 -0.000707948 0.00103358 1.90447e-10 1.04202e-10 4.7558e-11 5e-05 1.46608e-10 
257 1 0.314849 0.0166063 0.00775558 0.00528139 -0.000552491 0.00101768 8.45525e-11 3.47993e-11 4.16578e-11 5e-05 1.46608e-10 
258 1 0.314899 0.0171525 0.00725377 0.00552286 -0.000783919 8.87698e-05 -2.85975e-11 -5.81596e-12 -2.07754e-10 5e-05 1.46608e-10 
259 1 0.308869 0.0174294 0.00716491 0.00574789 0.000357445 3.23871e-05 -4.53091e-10 5.98922e-10 -2.18663e-10 5e-05 1.46608e-10 