ITEM: TIMESTEP
45800000
ITEM: NUMBER OF ATOMS
275
ITEM: BOX BOUNDS ff ff ff
-0.02 0.43
-0.02 0.06
-0.02 0.07
ITEM: ATOMS id type x y z vx vy vz fx fy fz radius mass 
1 1 0.280317 0.0182433 0.00690626 0.00575835 0.000379398 -9.16597e-05 1.57929e-11 -7.79214e-11 1.23259e-10 5e-05 1.46608e-10 
2 1 0.27999 0.0171008 0.00729951 0.00587207 0.000360136 -9.3083e-05 -5.30661e-11 3.46348e-12 -7.9609e-11 5e-05 1.46608e-10 
4 1 0.280139 0.0169787 0.00735188 0.00585296 0.000571984 -0.000231104 -7.02687e-11 2.71552e-10 -1.15933e-10 5e-05 1.46608e-10 
5 1 0.279515 0.015476 0.00879499 0.00596289 0.000244193 -0.000362849 2.68176e-10 -8.04724e-11 1.06463e-10 5e-05 1.46608e-10 
6 1 0.285957 0.0170392 0.00756832 0.0060001 -0.000218004 -0.000872086 6.12594e-11 2.10046e-10 -2.11396e-10 5e-05 1.46608e-10 
7 1 0.280277 0.0176205 0.00710495 0.00564719 0.000436604 1.14695e-05 -6.349e-11 6.5239e-11 -2.92749e-11 5e-05 1.46608e-10 
8 1 0.279983 0.0166798 0.00748024 0.00587115 0.00031795 -0.000120166 -8.44195e-12 8.23956e-12 2.88259e-11 5e-05 1.46608e-10 
9 1 0.286143 0.0178157 0.00701369 0.00566449 0.00028978 -8.94227e-05 2.73571e-12 -3.26599e-12 1.16205e-11 5e-05 1.46608e-10 
10 1 0.279642 0.0158562 0.00834961 0.00611379 0.000186379 -0.000296345 1.60595e-10 1.43839e-10 -1.14678e-10 5e-05 1.46608e-10 
11 1 0.280197 0.0178606 0.00710154 0.00569359 0.000456012 -5.20241e-06 9.05361e-11 -9.71223e-11 -5.8285e-11 5e-05 1.46608e-10 
12 1 0.274211 0.0168517 0.00743551 0.00601637 -0.000425821 0.000144708 -1.03492e-10 -7.05771e-11 8.43032e-11 5e-05 1.46608e-10 
13 1 0.279494 0.0154125 0.00886937 0.00584528 0.000262847 -0.00038159 -5.28314e-10 4.05091e-11 -1.68626e-11 5e-05 1.46608e-10 
14 1 0.274164 0.0175151 0.00721387 0.00554154 -0.000227963 0.000283903 3.06201e-11 -9.98343e-12 4.00643e-12 5e-05 1.46608e-10 
16 1 0.27436 0.0180332 0.0071225 0.00545865 -0.000202687 0.00027641 9.89114e-11 4.77264e-12 -3.34068e-12 5e-05 1.46608e-10 
17 1 0.279621 0.0157928 0.00842401 0.00610901 0.000192701 -0.000304224 6.17024e-11 5.62287e-11 -5.5533e-11 5e-05 1.46608e-10 
19 1 0.279473 0.0153489 0.00894383 0.00562535 0.000297101 -0.000418493 -3.0476e-11 -1.96158e-11 5.12609e-11 5e-05 1.46608e-10 
21 1 0.280315 0.0178046 0.0070366 0.00570178 0.000421209 1.86587e-05 -5.81729e-11 5.9823e-11 -5.50753e-11 5e-05 1.46608e-10 
22 1 0.279944 0.0165126 0.00757968 0.00576045 0.000197934 -0.00030091 -9.08317e-11 -4.89474e-11 6.18352e-11 5e-05 1.46608e-10 
23 1 0.274396 0.0177762 0.0071736 0.0054673 -0.000211763 0.000277698 -5.75673e-11 -5.61953e-11 6.99237e-12 5e-05 1.46608e-10 
24 1 0.286069 0.0174662 0.00716221 0.00568685 -0.000151576 -0.000871396 -1.54612e-10 -2.72901e-11 5.11174e-11 5e-05 1.46608e-10 
25 1 0.279684 0.0159838 0.00820161 0.00616269 0.000181168 -0.000288238 -2.62869e-10 1.31031e-10 -8.1377e-11 5e-05 1.46608e-10 
26 1 0.286108 0.0176315 0.00705766 0.00579188 0.000102917 -0.000392206 2.18137e-11 -1.85478e-11 5.11961e-11 5e-05 1.46608e-10 
27 1 0.27401 0.0168056 0.00749664 0.00582964 -0.000417364 3.1607e-05 4.93054e-11 2.89401e-11 -3.41008e-11 5e-05 1.46608e-10 
28 1 0.280064 0.0170398 0.0073254 0.00592493 0.000403203 -0.000157326 -3.59974e-11 6.35962e-11 1.49606e-12 5e-05 1.46608e-10 
29 1 0.279454 0.0152852 0.0090184 0.00560761 0.000299261 -0.000418494 1.30321e-10 -7.4686e-11 1.31508e-10 5e-05 1.46608e-10 
30 1 0.27977 0.0162367 0.00790384 0.00632099 0.000173116 -0.00028372 -1.15457e-10 3.09191e-11 -4.66844e-11 5e-05 1.46608e-10 
31 1 0.280352 0.0175597 0.0071303 0.00561758 0.000399134 2.37478e-05 -8.5961e-11 1.25201e-10 -4.14432e-11 5e-05 1.46608e-10 
32 1 0.279705 0.0160465 0.00812666 0.00619997 0.000181999 -0.000289773 3.8507e-11 1.26495e-10 -9.59914e-11 5e-05 1.46608e-10 
33 1 0.285978 0.0171097 0.00750074 0.00602575 -0.000218945 -0.000874858 1.00785e-11 1.87226e-10 -1.66812e-10 5e-05 1.46608e-10 
34 1 0.279608 0.0157283 0.0084993 0.00607421 0.00020877 -0.000322787 -6.77152e-11 -3.89175e-11 9.94744e-12 5e-05 1.46608e-10 
35 1 0.280238 0.0174361 0.00717345 0.00562242 0.000485998 -8.56516e-06 -1.07773e-10 -1.99612e-10 7.11776e-11 5e-05 1.46608e-10 
36 1 0.2862 0.0181099 0.00702614 0.00564523 0.000296976 -9.05284e-05 -1.90871e-11 8.98641e-11 -4.17417e-12 5e-05 1.46608e-10 
37 1 0.280119 0.0168885 0.0073907 0.00596695 0.000348235 -0.000134498 2.46657e-10 -1.69298e-10 7.62332e-11 5e-05 1.46608e-10 
38 1 0.280199 0.0172523 0.00724171 0.00580178 0.000534499 -2.16529e-05 -6.86674e-11 7.29159e-11 -2.4723e-11 5e-05 1.46608e-10 
39 1 0.286086 0.0175448 0.00710289 0.00573403 -4.76659e-05 -0.000712034 -1.96084e-11 -3.37495e-11 5.97924e-11 5e-05 1.46608e-10 
41 1 0.279557 0.0156028 0.00864636 0.00599427 0.000241734 -0.00035759 -3.85234e-10 -1.62355e-10 1.81313e-10 5e-05 1.46608e-10 
42 1 0.280234 0.0170083 0.00733942 0.00590801 0.000462912 -0.000176889 1.53366e-10 -6.10971e-11 3.09264e-11 5e-05 1.46608e-10 
44 1 0.280293 0.0172832 0.00723297 0.00573941 0.00060643 -5.04879e-05 -9.10092e-10 -3.43557e-10 9.57078e-11 5e-05 1.46608e-10 
45 1 0.285999 0.0171804 0.00743312 0.00586668 -0.00017912 -0.000882658 -2.80353e-10 1.71736e-10 -1.0231e-10 5e-05 1.46608e-10 
47 1 0.279578 0.0156667 0.00857235 0.00603855 0.00023251 -0.000346394 3.00219e-11 -1.04282e-10 1.36562e-10 5e-05 1.46608e-10 
48 1 0.280184 0.0180179 0.00695187 0.00574737 0.000478873 -1.34297e-06 -7.52863e-13 -1.47349e-11 -2.06152e-11 5e-05 1.46608e-10 
49 1 0.286162 0.0179138 0.00701785 0.00565156 0.000290914 -9.03247e-05 -1.01243e-12 1.75411e-11 2.13192e-11 5e-05 1.46608e-10 
50 1 0.279728 0.0161098 0.00805253 0.00624694 0.000175953 -0.000285818 1.17819e-10 7.93742e-11 -8.44395e-11 5e-05 1.46608e-10 
51 1 0.280372 0.0176519 0.00709606 0.00565943 0.000406754 2.28288e-05 -9.94292e-11 8.56958e-11 -3.08554e-11 5e-05 1.46608e-10 
52 1 0.274272 0.0171016 0.0072982 0.00557801 -0.000237989 0.000287471 -1.88548e-11 3.09344e-11 -2.19372e-12 5e-05 1.46608e-10 
53 1 0.286035 0.0173231 0.00729769 0.00579598 -0.00017137 -0.000878219 -4.80837e-11 -3.65729e-11 3.8077e-11 5e-05 1.46608e-10 
54 1 0.280523 0.0179617 0.00698366 0.00571468 0.000356422 4.31378e-05 8.87985e-11 7.83138e-11 -2.71775e-11 5e-05 1.46608e-10 
55 1 0.274175 0.0171727 0.00731474 0.00558053 -0.000240129 0.000288628 -1.80949e-11 4.72039e-11 -2.44607e-11 5e-05 1.46608e-10 
56 1 0.280505 0.0178671 0.00701883 0.00571257 0.000390753 3.0212e-05 -1.2386e-10 -4.71014e-11 6.83851e-12 5e-05 1.46608e-10 
57 1 0.286017 0.0172517 0.00736542 0.00585581 -0.000179658 -0.000880927 -1.6872e-10 5.81854e-11 -1.88063e-11 5e-05 1.46608e-10 
59 1 0.378022 0.019866 0.005332 -5.01999e-15 -7.41193e-15 7.69802e-14 1.39587e-24 -4.73044e-24 -2.06795e-25 5e-05 1.46608e-10 
60 1 0.280313 0.0173751 0.00719885 0.00559235 0.000453351 2.74383e-06 8.08099e-10 4.38201e-10 -1.28402e-10 5e-05 1.46608e-10 
61 1 0.279536 0.0155394 0.00872067 0.00595678 0.00024089 -0.000359411 6.98461e-11 -2.46472e-10 2.42203e-10 5e-05 1.46608e-10 
62 1 0.280218 0.0173442 0.00720759 0.00570209 0.000557098 -3.32153e-05 -2.40737e-10 7.22651e-11 -4.57586e-11 5e-05 1.46608e-10 
63 1 0.280288 0.0181984 0.00699078 0.00581561 0.000485729 -2.1426e-05 7.06827e-12 -1.4757e-11 7.47847e-11 5e-05 1.46608e-10 
64 1 0.286052 0.0173947 0.00722995 0.00571317 -0.000156455 -0.000876666 -1.88032e-10 -1.67258e-11 5.43057e-11 5e-05 1.46608e-10 
65 1 0.274223 0.0173581 0.00724665 0.00558667 -0.000237334 0.000287722 -1.20555e-10 8.22925e-12 -1.06114e-11 5e-05 1.46608e-10 
66 1 0.274336 0.0178011 0.00724986 0.00546282 -0.00022389 0.000277181 -9.59414e-11 -9.22611e-11 -1.50356e-11 5e-05 1.46608e-10 
67 1 0.280335 0.0178965 0.00700244 0.00571986 0.000413587 2.29281e-05 6.40789e-11 5.27727e-11 -4.03079e-11 5e-05 1.46608e-10 
68 1 0.280124 0.0173132 0.00721633 0.00575804 0.000454984 6.21308e-06 -2.11378e-10 1.78584e-10 -9.43039e-11 5e-05 1.46608e-10 
69 1 0.28041 0.0178358 0.00702772 0.00571045 0.000400143 2.71849e-05 -7.97512e-11 3.31876e-11 -3.86992e-11 5e-05 1.46608e-10 
70 1 0.286124 0.0177176 0.00700955 0.00569769 0.000286589 -9.06099e-05 8.07136e-12 -1.17225e-11 1.04404e-11 5e-05 1.46608e-10 
71 1 0.274528 0.0180037 0.00713551 0.0054932 -0.000318068 0.000299344 1.22633e-10 -5.47972e-11 1.78417e-11 5e-05 1.46608e-10 
72 1 0.28039 0.0181753 0.00689882 0.00574971 0.000362643 4.03088e-05 1.70414e-11 -1.46688e-11 2.83926e-12 5e-05 1.46608e-10 
73 1 0.279663 0.0159196 0.0082753 0.00613692 0.000179382 -0.000288283 6.95213e-11 1.22047e-10 -9.28933e-11 5e-05 1.46608e-10 
74 1 0.279748 0.0161734 0.00797804 0.00629463 0.000173554 -0.000283105 -6.6727e-11 5.01936e-11 -6.86059e-11 5e-05 1.46608e-10 
76 1 0.274133 0.0169018 0.00738716 0.00563915 -0.000322949 -5.57047e-05 -8.39214e-12 2.51031e-12 3.42264e-12 5e-05 1.46608e-10 
77 1 0.280009 0.0171915 0.00726227 0.00579174 0.000412633 -1.37722e-05 -1.66632e-11 3.47063e-11 -2.14561e-11 5e-05 1.46608e-10 
78 1 0.273557 0.0157021 0.00877343 0.00561828 -0.000738616 -0.00031912 3.09704e-10 -1.82317e-10 1.31976e-10 5e-05 1.46608e-10 
79 1 0.274426 0.0183335 0.00706753 0.00585502 -0.000279706 0.000307727 1.36061e-11 7.91736e-12 -2.50847e-12 5e-05 1.46608e-10 
80 1 0.280084 0.0171304 0.00728727 0.0058562 0.000463886 -5.06746e-05 -2.96101e-11 4.46271e-11 -1.05639e-10 5e-05 1.46608e-10 
82 1 0.274259 0.0178625 0.00723379 0.00546432 -0.000213412 0.000281022 9.29882e-12 3.08721e-11 1.09597e-11 5e-05 1.46608e-10 
83 1 0.274228 0.0169277 0.00737285 0.00560459 -0.000346961 0.000132014 -1.63089e-10 -2.12803e-11 7.30655e-11 5e-05 1.46608e-10 
84 1 0.286181 0.0180118 0.00702199 0.00564765 0.000292598 -9.05722e-05 -5.90062e-11 5.91969e-11 -2.54743e-12 5e-05 1.46608e-10 
85 1 0.274567 0.0181966 0.00710003 0.00574051 -0.00036975 0.000320177 -4.66554e-11 -7.21091e-11 7.89387e-12 5e-05 1.46608e-10 
86 1 0.280274 0.0171912 0.00726711 0.00583434 0.000553152 -2.72789e-05 -1.65244e-11 -9.87681e-12 -3.92133e-12 5e-05 1.46608e-10 
87 1 0.280044 0.0169496 0.00736418 0.00593971 0.000323601 -0.000123476 9.88756e-11 -1.58053e-10 6.64993e-11 5e-05 1.46608e-10 
88 1 0.280182 0.0175892 0.00711387 0.00563445 0.000470095 -3.20802e-06 -4.77293e-11 4.85152e-11 -8.00701e-12 5e-05 1.46608e-10 
89 1 0.280293 0.0178881 0.00709297 0.0056872 0.000416257 1.1818e-05 2.06481e-10 -1.21764e-10 -1.12407e-10 5e-05 1.46608e-10 
90 1 0.280354 0.0179886 0.00696824 0.00570617 0.000380437 3.34587e-05 9.61238e-11 9.47893e-11 -4.25905e-11 5e-05 1.46608e-10 
91 1 0.274191 0.0167842 0.00750649 0.00600019 -0.000477362 8.79697e-05 5.57006e-11 -1.10732e-10 1.12259e-10 5e-05 1.46608e-10 
92 1 0.280107 0.0176499 0.00708856 0.0056476 0.00048681 -1.04629e-05 -7.03939e-11 2.71158e-12 -3.51932e-11 5e-05 1.46608e-10 
93 1 0.279832 0.0164272 0.00768074 0.00613853 0.000202786 -0.000318573 -7.64074e-11 2.78285e-11 -4.48575e-11 5e-05 1.46608e-10 
94 1 0.280212 0.0179659 0.00706468 0.00573583 0.000426201 3.01186e-05 1.24898e-10 1.02938e-10 -5.85428e-11 5e-05 1.46608e-10 
95 1 0.280141 0.0175804 0.00720443 0.00563037 0.00047864 -7.80542e-06 -1.29988e-10 9.41263e-11 -2.58284e-11 5e-05 1.46608e-10 
96 1 0.280088 0.0175579 0.00712273 0.00563364 0.000482469 -8.09916e-06 -5.7747e-12 4.45843e-11 -3.55865e-11 5e-05 1.46608e-10 
97 1 0.273757 0.0160067 0.00835441 0.00584008 -0.000555917 -7.82556e-05 3.96986e-11 3.30945e-11 6.56684e-11 5e-05 1.46608e-10 
98 1 0.279812 0.0163648 0.00775611 0.00633239 0.000174695 -0.00028939 1.0744e-11 3.9075e-11 -4.75123e-11 5e-05 1.46608e-10 
99 1 0.274147 0.0178679 0.00714514 0.00545234 -0.000183066 0.0002717 -2.39507e-11 -3.06722e-11 2.67708e-12 5e-05 1.46608e-10 
100 1 0.280296 0.0177126 0.00707077 0.0056673 0.00042699 1.53513e-05 -6.30516e-11 9.27049e-11 -4.05969e-11 5e-05 1.46608e-10 
101 1 0.274167 0.0179644 0.0071274 0.00545502 -0.000203687 0.000277906 2.79041e-11 9.94614e-11 -1.90292e-11 5e-05 1.46608e-10 
102 1 0.0643568 0.0187248 0.00531097 4.2137e-15 1.05268e-14 8.29593e-14 -3.9331e-21 8.65541e-22 8.74743e-23 5e-05 1.46608e-10 
103 1 0.24257 0.0191927 0.00520306 7.51214e-23 -1.27651e-22 1.23839e-22 0 0 0 5e-05 1.46608e-10 
104 1 0.274453 0.0180679 0.00711988 0.00550521 -0.000306078 0.000297976 1.16607e-10 -1.27881e-11 6.93453e-12 5e-05 1.46608e-10 
105 1 0.273736 0.0159458 0.00843082 0.0057733 -0.000798404 -0.000285445 -2.28026e-11 -2.1578e-11 5.98806e-11 5e-05 1.46608e-10 
106 1 0.274239 0.017766 0.00725144 0.00545286 -0.000209417 0.000287923 -3.89502e-11 4.47637e-11 4.85368e-11 5e-05 1.46608e-10 
107 1 0.273578 0.015761 0.00869545 0.00565029 -0.000747761 -0.000318386 -3.87285e-11 -1.53989e-10 2.53951e-10 5e-05 1.46608e-10 
108 1 0.280429 0.0179278 0.00699355 0.00569996 0.000374882 3.54932e-05 6.05089e-11 1.30785e-10 -3.87983e-11 5e-05 1.46608e-10 
109 1 0.280485 0.0177751 0.00705301 0.00569167 0.000383098 3.24573e-05 -9.57275e-11 1.08689e-10 -4.30624e-11 5e-05 1.46608e-10 
110 1 0.27997 0.0170106 0.00733772 0.00593626 0.000326665 -0.000125993 5.62946e-11 -2.63571e-11 -1.05183e-11 5e-05 1.46608e-10 
111 1 0.279929 0.0168307 0.00741509 0.00589449 0.000331666 -0.000126263 1.37372e-11 6.97423e-12 -2.87138e-12 5e-05 1.46608e-10 
112 1 0.273641 0.0159372 0.00846243 0.00575348 -0.000779104 -0.000309573 -3.62065e-11 6.14692e-11 -5.96533e-11 5e-05 1.46608e-10 
113 1 0.274069 0.0174821 0.00721609 0.00557175 -0.000240314 0.000287757 9.29252e-12 5.3459e-11 -9.51019e-12 5e-05 1.46608e-10 
114 1 0.274108 0.017675 0.00718061 0.00540966 -0.000220625 0.000276869 5.23492e-11 8.07575e-11 -2.45671e-11 5e-05 1.46608e-10 
115 1 0.280254 0.0170991 0.00730129 0.00588186 0.000557127 -2.82266e-05 2.45131e-11 1.82815e-11 -1.66026e-12 5e-05 1.46608e-10 
116 1 0.280259 0.0179573 0.00697715 0.00571804 0.000403088 2.61601e-05 1.65443e-10 9.7562e-11 -5.66665e-11 5e-05 1.46608e-10 
117 1 0.280258 0.0175283 0.00713922 0.00560703 0.000440697 7.71029e-06 -6.09885e-11 1.1978e-10 -4.54607e-11 5e-05 1.46608e-10 
118 1 0.274297 0.0172927 0.00726247 0.0055861 -0.000241986 0.000288766 -8.27789e-11 1.03809e-10 -2.71295e-11 5e-05 1.46608e-10 
119 1 0.280448 0.0180227 0.00695829 0.00573185 0.00036574 4.00729e-05 -4.16196e-11 -3.97492e-11 1.483e-11 5e-05 1.46608e-10 
120 1 0.279963 0.0165898 0.00751895 0.00584396 0.000315514 -0.000122456 1.47772e-11 -3.76316e-11 5.15424e-11 5e-05 1.46608e-10 
121 1 0.280262 0.0184069 0.00692006 0.00574635 0.000385266 -0.000241015 -2.75911e-11 -3.76219e-11 -2.20819e-11 5e-05 1.46608e-10 
122 1 0.280068 0.017466 0.00715685 0.00562806 0.000480668 -7.05464e-06 -7.25451e-11 1.052e-10 -5.16202e-11 5e-05 1.46608e-10 
123 1 0.274548 0.0181001 0.00711779 0.00560368 -0.000342562 0.000308864 1.59493e-11 -6.92689e-11 1.45759e-11 5e-05 1.46608e-10 
124 1 0.279849 0.0164913 0.00760587 0.00576292 0.000237557 -0.00037186 -2.35145e-10 -5.705e-12 -9.14886e-11 5e-05 1.46608e-10 
125 1 0.280163 0.017497 0.00714809 0.00563243 0.000497188 -1.3356e-05 -5.55837e-11 -6.13238e-11 9.99959e-12 5e-05 1.46608e-10 
127 1 0.273787 0.0160704 0.00828352 0.00587813 -0.000432978 4.1562e-05 -6.86147e-11 6.15281e-11 2.07503e-11 5e-05 1.46608e-10 
128 1 0.279793 0.0162998 0.0078299 0.00632756 0.00017296 -0.000287507 -3.03781e-10 6.93594e-11 -7.97214e-11 5e-05 1.46608e-10 
129 1 0.280179 0.0177668 0.0071359 0.00569535 0.000455989 -4.86792e-06 -6.27527e-11 -5.99418e-12 -2.21447e-11 5e-05 1.46608e-10 
130 1 0.274203 0.0177081 0.00717837 0.00541923 -0.00020274 0.000274639 -3.27978e-11 1.62261e-11 -2.34376e-12 5e-05 1.46608e-10 
131 1 0.274223 0.0178045 0.00716064 0.00543849 -0.000204103 0.000275841 -3.84223e-11 2.40666e-11 3.1668e-12 5e-05 1.46608e-10 
132 1 0.280159 0.0170693 0.00731295 0.0058979 0.000471735 -0.000137547 2.25096e-11 3.06468e-11 3.53808e-11 5e-05 1.46608e-10 
133 1 0.280279 0.0180493 0.00694298 0.00571892 0.000393401 2.94185e-05 8.14923e-11 6.2483e-11 -1.45089e-11 5e-05 1.46608e-10 
134 1 0.28024 0.0178653 0.00701132 0.0057076 0.000463194 -1.72055e-06 2.23605e-11 1.08286e-10 -6.45624e-11 5e-05 1.46608e-10 
135 1 0.280391 0.0177438 0.00706189 0.00568417 0.000401516 2.55519e-05 -6.57313e-11 5.10207e-11 -4.31698e-11 5e-05 1.46608e-10 
136 1 0.274166 0.0170743 0.00729889 0.00557875 -0.00023938 0.000287438 1.13637e-11 3.43075e-11 -1.04798e-11 5e-05 1.46608e-10 
137 1 0.28016 0.0176738 0.00717015 0.00563439 0.000443844 -1.64443e-06 -2.85864e-10 7.96807e-11 -3.94028e-11 5e-05 1.46608e-10 
138 1 0.280146 0.0178339 0.00702022 0.00569921 0.00047342 -4.73721e-06 -5.14688e-11 -3.00422e-11 4.81999e-11 5e-05 1.46608e-10 
140 1 0.280029 0.0172822 0.00722508 0.00576315 0.00044056 1.5678e-05 1.037e-10 6.49875e-11 2.31881e-12 5e-05 1.46608e-10 
141 1 0.274013 0.0164987 0.00781839 0.00598486 -0.000450157 5.63383e-05 5.40682e-11 6.06682e-11 -6.73127e-11 5e-05 1.46608e-10 
142 1 0.274376 0.0176797 0.00719134 0.00549279 -0.000217226 0.000279773 -1.53715e-10 -3.58489e-11 5.79235e-13 5e-05 1.46608e-10 
143 1 0.273599 0.01582 0.00861746 0.00571055 -0.000762934 -0.000317077 -1.23374e-11 -4.36946e-11 6.33125e-11 5e-05 1.46608e-10 
144 1 0.274337 0.0174868 0.00722682 0.00553844 -0.000224101 0.000283315 -2.55205e-11 -3.4351e-11 4.90415e-12 5e-05 1.46608e-10 
146 1 0.273683 0.0160553 0.00830655 0.00584675 -0.000389048 -3.75987e-06 2.7181e-11 6.80732e-11 1.59316e-12 5e-05 1.46608e-10 
147 1 0.274184 0.0176116 0.00719612 0.00546234 -0.000213184 0.000277788 2.92674e-11 -1.94857e-12 -2.88676e-12 5e-05 1.46608e-10 
148 1 0.274035 0.0165653 0.00774697 0.00601398 -0.00045179 5.57226e-05 1.0919e-10 6.36721e-11 -7.59626e-11 5e-05 1.46608e-10 
149 1 0.279888 0.0166527 0.00749648 0.00586331 0.000303498 -0.000206244 3.07221e-11 -1.08983e-11 -4.51686e-11 5e-05 1.46608e-10 
150 1 0.274289 0.0185486 0.00702015 0.00588944 -0.000315215 0.000316176 1.23736e-11 -1.83388e-11 7.21359e-12 5e-05 1.46608e-10 
151 1 0.2743 0.0181931 0.0070891 0.00542529 -0.000203952 0.000275581 -3.96214e-12 8.0548e-12 1.3506e-11 5e-05 1.46608e-10 
153 1 0.274056 0.016632 0.00767553 0.00601498 -0.000444913 4.87333e-05 -8.59164e-11 7.99797e-11 -8.6963e-11 5e-05 1.46608e-10 
154 1 0.273662 0.0159962 0.00838446 0.00579038 -0.000803332 -0.000316864 -2.22201e-11 9.84961e-11 -1.09377e-10 5e-05 1.46608e-10 
155 1 0.273715 0.0161252 0.00824223 0.0059519 -0.000530649 -9.3819e-05 3.89292e-12 1.5408e-11 -5.16662e-11 5e-05 1.46608e-10 
156 1 0.273992 0.0164321 0.00788979 0.00595823 -0.000445108 5.29406e-05 -6.30991e-11 7.09492e-11 -7.12087e-11 5e-05 1.46608e-10 
157 1 0.0219312 0.0187687 0.00551176 -3.83743e-14 8.16553e-14 2.95885e-13 -6.10537e-22 -4.23672e-22 3.72231e-23 5e-05 1.46608e-10 
158 1 0.274096 0.0167672 0.00753091 0.0059225 -0.000318053 -7.80023e-05 1.82492e-11 -8.89155e-11 8.35702e-11 5e-05 1.46608e-10 
159 1 0.280179 0.0171603 0.00727583 0.0058482 0.000525142 -1.42806e-05 3.09075e-12 5.04564e-11 2.17536e-11 5e-05 1.46608e-10 
160 1 0.274186 0.0180613 0.0071096 0.00544721 -0.000222334 0.000279859 2.8767e-11 -2.1375e-11 1.48746e-11 5e-05 1.46608e-10 
162 1 0.274298 0.0180558 0.0071979 0.00545288 -0.000220827 0.00027937 1.39285e-10 1.20375e-10 2.67727e-12 5e-05 1.46608e-10 
164 1 0.273769 0.0163208 0.00802205 0.00593048 -0.000427435 3.78296e-05 -3.58617e-11 -4.54219e-11 1.04512e-10 5e-05 1.46608e-10 
165 1 0.274405 0.0182372 0.00708517 0.00580131 -0.000271675 0.000303866 1.48388e-10 2.49157e-11 7.34592e-12 5e-05 1.46608e-10 
166 1 0.280165 0.0179259 0.00698604 0.00572496 0.000473575 2.32187e-06 1.87049e-11 -3.45585e-11 -3.16785e-11 5e-05 1.46608e-10 
167 1 0.274247 0.0183561 0.00705543 0.00580525 -0.000291459 0.000306239 -3.27971e-11 -1.22623e-10 1.77424e-11 5e-05 1.46608e-10 
168 1 0.274364 0.0184847 0.00703573 0.00591436 -0.000298931 0.000314158 -2.01622e-11 -5.55889e-11 6.97339e-12 5e-05 1.46608e-10 
169 1 0.274268 0.0184523 0.00703779 0.00585095 -0.000299835 0.000311231 -1.03819e-11 -6.43123e-11 1.43805e-11 5e-05 1.46608e-10 
170 1 0.274344 0.0183884 0.00705337 0.00585317 -0.000290153 0.000309757 2.83521e-11 -1.48984e-11 3.70315e-12 5e-05 1.46608e-10 
171 1 0.280337 0.0183415 0.00691111 0.00575641 0.000378408 -0.000238142 -4.03771e-11 -7.58562e-11 8.93816e-13 5e-05 1.46608e-10 
172 1 0.274049 0.0173858 0.00723378 0.00557284 -0.000238049 0.000287359 6.87905e-13 2.63767e-11 -4.00025e-12 5e-05 1.46608e-10 
173 1 0.280372 0.0180831 0.00693309 0.00573632 0.000360122 4.34043e-05 4.4088e-11 2.03607e-11 -1.01817e-11 5e-05 1.46608e-10 
174 1 0.273812 0.0164561 0.00788121 0.00596121 -0.000441995 4.90338e-05 1.1594e-10 -6.5294e-11 6.21367e-11 5e-05 1.46608e-10 
176 1 0.274105 0.017226 0.00726725 0.0055839 -0.000237286 0.000288099 -6.04631e-11 1.52657e-11 -2.19466e-11 5e-05 1.46608e-10 
177 1 0.27381 0.0161368 0.00821224 0.00591186 -0.000436336 4.18408e-05 2.23394e-11 -6.58932e-12 -3.31203e-11 5e-05 1.46608e-10 
178 1 0.274123 0.0176368 0.00727173 0.00541287 -0.000215215 0.000277343 3.28376e-11 1.16099e-10 -2.64714e-12 5e-05 1.46608e-10 
179 1 0.274222 0.0181194 0.00718281 0.0054603 -0.000208291 0.000287343 3.74629e-11 -9.75331e-12 3.42339e-11 5e-05 1.46608e-10 
182 1 0.280281 0.0185048 0.00692724 0.00571315 0.000389389 -0.000237611 1.40072e-11 3.02027e-11 -8.51963e-12 5e-05 1.46608e-10 
183 1 0.274182 0.0179262 0.00721854 0.00547026 -0.000210284 0.00028082 -6.6361e-11 -2.46385e-11 -5.41049e-11 5e-05 1.46608e-10 
184 1 0.280228 0.0180759 0.007025 0.00573709 0.000405397 3.77064e-05 1.40696e-11 -1.20616e-10 6.41202e-12 5e-05 1.46608e-10 
185 1 0.274356 0.0175832 0.00720908 0.0055268 -0.000223058 0.000282576 -1.04705e-10 -3.47956e-11 2.41807e-12 5e-05 1.46608e-10 
186 1 0.274643 0.0181327 0.00711561 0.00564439 -0.000474922 0.000336163 2.43102e-11 8.27477e-12 2.23001e-12 5e-05 1.46608e-10 
187 1 0.280296 0.0181423 0.00690832 0.00575397 0.000365111 4.23868e-05 2.57258e-11 -2.37145e-11 1.63567e-11 5e-05 1.46608e-10 
188 1 0.280143 0.0174051 0.00718221 0.00564606 0.000497669 -1.31044e-05 -2.13455e-10 2.1949e-11 -5.30229e-13 5e-05 1.46608e-10 
189 1 0.280242 0.0183089 0.00691558 0.00575674 0.000379537 -0.00018387 -3.07165e-11 -9.41072e-11 -2.29235e-10 5e-05 1.46608e-10 
190 1 0.26825 0.0183539 0.00692762 0.00565024 -5.02403e-06 2.20672e-05 2.53192e-11 9.17847e-11 -1.14554e-11 5e-05 1.46608e-10 
191 1 0.279908 0.0167408 0.00745376 0.00588736 0.000332486 -0.000129323 1.06695e-11 1.73744e-11 -2.13203e-11 5e-05 1.46608e-10 
192 1 0.274088 0.0175786 0.00719835 0.00542195 -0.000216471 0.000276666 1.32622e-11 1.05627e-10 -2.1628e-11 5e-05 1.46608e-10 
193 1 0.280356 0.0184397 0.00691831 0.00573596 0.000431319 -0.000234368 1.90736e-12 -8.9007e-11 -1.70177e-11 5e-05 1.46608e-10 
194 1 0.274278 0.017959 0.00721595 0.00546104 -0.000213272 0.000277227 5.13408e-11 -1.83214e-11 1.74107e-11 5e-05 1.46608e-10 
195 1 0.274283 0.0180959 0.00710711 0.00544863 -0.000213329 0.000277625 8.81397e-11 2.79341e-11 -1.09648e-11 5e-05 1.46608e-10 
196 1 0.27432 0.0178403 0.00715798 0.00546051 -0.000216311 0.000278225 -2.69284e-11 -9.78547e-12 2.14189e-12 5e-05 1.46608e-10 
197 1 0.267942 0.0169159 0.00747972 0.00575056 1.557e-06 0.000120114 -1.77346e-10 9.07004e-11 -6.13282e-11 5e-05 1.46608e-10 
198 1 0.27424 0.0170083 0.0073148 0.00558206 -0.000236305 0.000286646 -2.83277e-11 -9.59903e-12 2.48264e-11 5e-05 1.46608e-10 
199 1 0.274202 0.0180231 0.00720077 0.00545651 -0.000213808 0.000282292 -3.00258e-11 -1.38268e-10 -7.50028e-12 5e-05 1.46608e-10 
200 1 0.273631 0.015876 0.00854083 0.00571775 -0.000767025 -0.000312728 1.21856e-10 2.52042e-11 -6.94553e-11 5e-05 1.46608e-10 
201 1 0.274377 0.0181313 0.00710435 0.00543678 -0.000179089 0.000272069 1.02989e-10 1.67768e-10 -9.11909e-12 5e-05 1.46608e-10 
202 1 0.274113 0.0168347 0.00745884 0.0057352 -0.000341993 -4.03517e-05 2.17392e-11 -7.91956e-12 -1.99574e-11 5e-05 1.46608e-10 
203 1 0.280221 0.0177732 0.00704549 0.00568938 0.000461951 -6.23446e-07 -4.3074e-13 8.92619e-11 -1.86178e-11 5e-05 1.46608e-10 
204 1 0.274415 0.0178726 0.00715586 0.00545442 -0.000208231 0.000276553 8.57207e-11 -6.36258e-11 1.87832e-11 5e-05 1.46608e-10 
205 1 0.27395 0.0166049 0.00771136 0.00602071 -0.00044288 4.5818e-05 1.16852e-10 5.44996e-11 -5.81601e-11 5e-05 1.46608e-10 
206 1 0.273992 0.016739 0.00756917 0.00594132 -0.000432393 4.10761e-05 -4.87685e-11 4.34537e-11 -4.82094e-11 5e-05 1.46608e-10 
207 1 0.273864 0.0163384 0.00799695 0.00594582 -0.000433659 3.96712e-05 -4.80825e-11 -6.72028e-11 1.07983e-10 5e-05 1.46608e-10 
208 1 0.274264 0.0171995 0.00727902 0.00558126 -0.000240049 0.000288457 -2.60436e-11 6.3607e-11 -9.16109e-12 5e-05 1.46608e-10 
209 1 0.274199 0.0172738 0.00729525 0.00558573 -0.000236248 0.000289191 -6.92447e-11 2.83448e-11 -1.17005e-11 5e-05 1.46608e-10 
210 1 0.280003 0.0167698 0.00744155 0.00588184 0.000315419 -0.000120216 -1.92981e-11 -1.91413e-11 -4.72886e-12 5e-05 1.46608e-10 
211 1 0.280024 0.0168597 0.00740287 0.0058974 0.000309813 -0.000117144 -5.80141e-11 -2.8202e-11 2.57843e-11 5e-05 1.46608e-10 
212 1 0.274472 0.0181646 0.00710206 0.00572249 -0.000341754 0.000314116 1.86124e-10 1.58245e-11 3.75422e-12 5e-05 1.46608e-10 
213 1 0.280223 0.0182108 0.00691595 0.00577033 0.000375371 1.14e-05 7.70552e-15 -3.07098e-11 5.54866e-11 5e-05 1.46608e-10 
214 1 0.280104 0.0172213 0.00725046 0.0057685 0.000459912 2.19813e-06 -5.02399e-11 2.01496e-10 -1.20535e-10 5e-05 1.46608e-10 
215 1 0.268152 0.0178669 0.00698476 0.00566031 8.72307e-06 1.73547e-05 6.94508e-12 -2.05147e-11 5.44002e-11 5e-05 1.46608e-10 
216 1 0.273843 0.0162718 0.00806837 0.00592939 -0.000430517 3.97077e-05 -2.25224e-11 -3.93399e-11 7.63119e-11 5e-05 1.46608e-10 
217 1 0.2803 0.0186027 0.00693441 0.0056863 0.000393119 -0.000235551 9.5802e-12 9.6569e-11 6.71342e-12 5e-05 1.46608e-10 
218 1 0.274127 0.0177715 0.00716287 0.00541004 -0.000224189 0.00027738 1.57968e-11 8.62515e-11 -1.00926e-11 5e-05 1.46608e-10 
219 1 0.279868 0.016566 0.00754229 0.0058078 0.000247061 -0.000343882 -9.9212e-11 -1.76766e-11 -9.46849e-11 5e-05 1.46608e-10 
220 1 0.274242 0.017901 0.00714291 0.0054573 -0.000212623 0.000277877 8.85774e-12 2.34902e-11 8.15819e-13 5e-05 1.46608e-10 
222 1 0.280333 0.0174673 0.00716459 0.00563364 0.000472638 -3.41497e-06 -1.46846e-10 -5.30999e-11 8.76978e-12 5e-05 1.46608e-10 
224 1 0.274027 0.0168738 0.00742567 0.00569136 -0.000398935 1.85679e-05 5.88014e-11 1.12047e-11 -3.50984e-11 5e-05 1.46608e-10 
225 1 0.279949 0.0169207 0.0073764 0.00591701 0.000329072 -0.00012566 1.52469e-11 3.81829e-12 -5.31756e-12 5e-05 1.46608e-10 
226 1 0.27422 0.0176696 0.00726917 0.00543845 -0.000205333 0.00028173 7.42901e-12 1.05476e-11 -3.27973e-12 5e-05 1.46608e-10 
227 1 0.268172 0.0179643 0.00697333 0.0056748 3.35527e-07 2.09128e-05 -1.79807e-11 7.79796e-12 1.02544e-11 5e-05 1.46608e-10 
228 1 0.268113 0.0176778 0.00703439 0.00565087 5.04756e-05 8.6512e-05 1.44776e-12 -8.19433e-11 6.03382e-11 5e-05 1.46608e-10 
229 1 0.274501 0.0182697 0.00708308 0.00582629 -0.000302684 0.000310927 -2.96515e-11 -4.65687e-11 8.27466e-12 5e-05 1.46608e-10 
230 1 0.273932 0.0168563 0.00744883 0.00570864 -0.000443846 6.90284e-05 4.85882e-11 5.30433e-11 -4.66324e-11 5e-05 1.46608e-10 
232 1 0.274316 0.0181555 0.00718027 0.00542815 -0.000218828 0.000286645 -2.94842e-11 2.13066e-11 2.29067e-12 5e-05 1.46608e-10 
233 1 0.274227 0.0182599 0.00707308 0.0054118 -0.000212466 0.000275855 -1.09279e-10 -1.19243e-10 1.6442e-11 5e-05 1.46608e-10 
234 1 0.280274 0.0177961 0.00712715 0.00567289 0.000441041 7.90197e-06 1.97893e-10 -1.99645e-10 -3.49879e-11 5e-05 1.46608e-10 
235 1 0.273896 0.0167218 0.00759243 0.00558861 -0.000420867 5.33744e-05 -1.6466e-11 2.88972e-11 -2.72715e-11 5e-05 1.46608e-10 
236 1 0.273987 0.0170883 0.00728841 0.0055831 -0.000207121 0.000281848 -1.01677e-11 -3.31291e-11 4.08646e-12 5e-05 1.46608e-10 
237 1 0.274009 0.0171932 0.00726974 0.00557586 -0.00023589 0.000287628 -1.63633e-12 1.13411e-11 -4.05182e-12 5e-05 1.46608e-10 
239 1 0.26784 0.0164931 0.00772671 0.00613671 -5.71744e-05 0.000163557 -7.79568e-11 -7.73138e-11 5.22395e-11 5e-05 1.46608e-10 
240 1 0.267901 0.0167467 0.00757854 0.00571559 2.39563e-05 0.000108022 -2.01277e-10 1.20171e-10 -9.01334e-11 5e-05 1.46608e-10 
241 1 0.267819 0.0164088 0.00777595 0.00615734 -6.42344e-05 0.00016841 4.5877e-11 -4.05083e-11 2.66617e-11 5e-05 1.46608e-10 
242 1 0.274172 0.0167172 0.00757812 0.00595849 -0.000470326 7.88294e-05 1.15227e-10 -1.28199e-10 1.21006e-10 5e-05 1.46608e-10 
243 1 0.274301 0.0177439 0.00717571 0.0054276 -0.000215554 0.000274503 -9.60068e-11 4.86713e-11 -2.15681e-11 5e-05 1.46608e-10 
244 1 0.267861 0.0165776 0.00767737 0.00563985 2.6748e-05 0.000102641 3.25295e-10 -3.03295e-11 3.50967e-11 5e-05 1.46608e-10 
246 1 0.268039 0.0173392 0.00723235 0.00557182 6.91115e-05 7.56845e-05 2.0657e-11 -7.41664e-11 4.58467e-11 5e-05 1.46608e-10 
247 1 0.273833 0.0165206 0.00780789 0.00599289 -0.000450585 5.59305e-05 -1.40389e-10 -1.14484e-10 1.26005e-10 5e-05 1.46608e-10 
248 1 0.274145 0.0174187 0.00723158 0.0055809 -0.000236282 0.000287497 -6.86673e-11 6.12934e-12 -6.58563e-12 5e-05 1.46608e-10 
249 1 0.267982 0.0170851 0.00738089 0.00574325 2.47885e-05 0.000107328 -1.72518e-10 3.93591e-11 -2.13328e-11 5e-05 1.46608e-10 
250 1 0.273907 0.0164716 0.00785417 0.00597425 -0.000431824 3.77934e-05 -5.4004e-11 8.90889e-11 -1.02986e-10 5e-05 1.46608e-10 
251 1 0.280202 0.0176812 0.00707967 0.00566068 0.000456775 3.28141e-06 -3.86945e-11 3.12378e-11 -7.37755e-12 5e-05 1.46608e-10 
252 1 0.268058 0.0174241 0.00718274 0.00554031 7.38581e-05 7.27646e-05 2.67515e-11 -2.89835e-11 5.31546e-12 5e-05 1.46608e-10 
253 1 0.26823 0.0182565 0.00693905 0.00565899 -6.82325e-06 2.24198e-05 1.94922e-11 8.60356e-11 -9.39982e-12 5e-05 1.46608e-10 
254 1 0.268001 0.0171698 0.00733136 0.00570635 3.70929e-05 9.85439e-05 -4.04181e-11 -5.92713e-11 4.01902e-11 5e-05 1.46608e-10 
255 1 0.273536 0.0156431 0.00885141 0.00560913 -0.000732721 -0.000331645 7.09586e-13 2.45693e-11 -5.51503e-11 5e-05 1.46608e-10 
256 1 0.274435 0.017969 0.00713812 0.0054556 -0.00020711 0.000276545 1.12037e-10 -4.48938e-11 1.87502e-11 5e-05 1.46608e-10 
257 1 0.274077 0.0166988 0.00760405 0.0059392 -0.00042665 3.47218e-05 1.11638e-11 5.58996e-11 -6.64877e-11 5e-05 1.46608e-10 
258 1 0.274125 0.0173223 0.00724934 0.00558739 -0.000237409 0.000287966 -1.10109e-10 1.2603e-11 -1.69143e-11 5e-05 1.46608e-10 