ITEM: TIMESTEP
55200000
ITEM: NUMBER OF ATOMS
275
ITEM: BOX BOUNDS ff ff ff
-0.02 0.43
-0.02 0.06
-0.02 0.07
ITEM: ATOMS id type x y z vx vy vz fx fy fz radius mass 
1 1 0.335166 0.0183685 0.00696171 0.00560782 -1.66995e-05 0.000119936 -5.18516e-11 -2.08908e-11 7.83471e-12 5e-05 1.46608e-10 
2 1 0.334924 0.0175866 0.00740166 0.00588102 -7.19171e-05 0.000156325 -5.30856e-11 -2.04092e-10 9.98962e-11 5e-05 1.46608e-10 
4 1 0.335029 0.0173862 0.00740181 0.00588083 -7.25567e-05 0.000149317 1.45805e-10 -7.96663e-11 4.02045e-11 5e-05 1.46608e-10 
5 1 0.334557 0.0161693 0.00794101 0.00611973 -0.000167499 0.000196693 8.70284e-12 2.69037e-11 -1.12594e-11 5e-05 1.46608e-10 
6 1 0.340654 0.0165292 0.00768854 0.00611143 0.000236732 0.00136114 -4.50113e-11 -1.54664e-11 -4.47853e-12 5e-05 1.46608e-10 
7 1 0.33517 0.0180166 0.00712042 0.00548767 3.82345e-05 9.01872e-05 6.7081e-11 2.96101e-11 -3.31974e-12 5e-05 1.46608e-10 
8 1 0.334869 0.0170899 0.00753219 0.0059497 -8.87383e-05 0.000157836 -1.94152e-12 -3.2979e-11 1.48237e-11 5e-05 1.46608e-10 
9 1 0.340857 0.0173769 0.0073241 0.00537581 -0.00126652 0.000649187 -1.52624e-11 -2.58324e-11 -2.25307e-11 5e-05 1.46608e-10 
10 1 0.334826 0.0169115 0.00761174 0.00598181 -9.42087e-05 0.000160924 1.36687e-11 -1.40572e-13 3.46022e-13 5e-05 1.46608e-10 
11 1 0.335183 0.0185613 0.00697726 0.00556297 3.34894e-05 0.00013595 9.13436e-11 -1.59228e-10 2.12906e-10 5e-05 1.46608e-10 
12 1 0.329045 0.017072 0.00751324 0.00674602 0.00152977 -0.000162616 -2.58865e-10 8.2112e-11 -1.07057e-10 5e-05 1.46608e-10 
13 1 0.334536 0.0160801 0.00798079 0.00613656 -0.000174001 0.000200469 5.11729e-12 2.9739e-11 -1.68094e-11 5e-05 1.46608e-10 
14 1 0.328935 0.0173296 0.00731049 0.00563433 0.000947463 0.000103644 -3.59129e-10 3.21222e-10 -2.67288e-10 5e-05 1.46608e-10 
16 1 0.329146 0.0178935 0.00706881 0.00552582 0.000764623 -0.000433633 -4.63918e-10 -7.39218e-13 -6.2924e-11 5e-05 1.46608e-10 
17 1 0.334665 0.0166152 0.00774213 0.00603828 -0.000128908 0.000177681 2.69517e-13 3.94937e-12 -1.71852e-12 5e-05 1.46608e-10 
19 1 0.334514 0.0159908 0.00802027 0.00615899 -0.000256077 3.43821e-05 1.06546e-11 4.65704e-11 -1.64964e-11 5e-05 1.46608e-10 
21 1 0.335123 0.0181784 0.00704654 0.00550022 -3.9696e-05 0.000125823 1.66156e-11 1.9147e-10 -9.41336e-11 5e-05 1.46608e-10 
22 1 0.335126 0.0174161 0.00739023 0.00588588 -6.88951e-05 0.000147603 1.02212e-10 -8.58477e-11 4.25055e-11 5e-05 1.46608e-10 
23 1 0.329202 0.0177317 0.00709585 0.00563505 0.000837411 -0.00058976 -3.74373e-10 3.19949e-12 -5.04085e-10 5e-05 1.46608e-10 
24 1 0.340775 0.0169878 0.00735481 0.00542972 -0.00131122 0.000219906 -9.15634e-12 7.65363e-11 -1.17133e-10 5e-05 1.46608e-10 
25 1 0.334804 0.0168224 0.00765152 0.00599885 -0.000101006 0.000164321 2.81012e-11 2.36338e-12 -7.70192e-13 5e-05 1.46608e-10 
26 1 0.340816 0.0171811 0.00732532 0.00541142 -0.00127322 0.000651846 -4.4323e-11 2.20092e-11 -2.06853e-11 5e-05 1.46608e-10 
27 1 0.328809 0.0168461 0.00764429 0.00612124 0.000679765 0.000366162 2.23927e-11 1.97326e-10 -1.30379e-10 5e-05 1.46608e-10 
28 1 0.334837 0.0173287 0.00742391 0.00589717 -0.000108165 0.000165485 2.34153e-12 -3.88793e-11 1.54887e-11 5e-05 1.46608e-10 
29 1 0.334495 0.0159005 0.00805884 0.00564496 -0.000163328 1.70181e-06 1.27315e-11 5.82572e-11 -2.54579e-11 5e-05 1.46608e-10 
30 1 0.334751 0.016972 0.00758302 0.00597082 -0.000107311 0.000166614 -3.32716e-12 -1.71621e-11 7.58057e-12 5e-05 1.46608e-10 
31 1 0.335277 0.0181575 0.00705901 0.00553855 -4.56304e-05 0.000127327 -8.87745e-11 6.3043e-11 -9.83952e-12 5e-05 1.46608e-10 
32 1 0.334687 0.0167044 0.00770235 0.00602161 -0.000122105 0.000174297 2.68808e-12 4.20017e-12 -2.06372e-12 5e-05 1.46608e-10 
33 1 0.340674 0.0165815 0.00760552 0.00616837 0.000235076 0.00136559 2.33386e-10 2.83722e-10 8.78549e-11 5e-05 1.46608e-10 
34 1 0.334644 0.0165261 0.00778191 0.00605453 -0.000136423 0.00018141 9.97977e-13 4.41018e-12 -1.90879e-12 5e-05 1.46608e-10 
35 1 0.335132 0.0178362 0.00720101 0.0055159 0.000111634 5.92908e-05 -1.49253e-10 -3.39914e-12 -4.16746e-11 5e-05 1.46608e-10 
36 1 0.340914 0.0176713 0.00732184 0.00550808 -0.00129365 0.0006655 9.65898e-12 1.23429e-11 2.69814e-12 5e-05 1.46608e-10 
37 1 0.335007 0.017297 0.00744159 0.0059057 -8.34054e-05 0.000154549 2.8131e-11 -5.91712e-11 2.83142e-11 5e-05 1.46608e-10 
38 1 0.335092 0.0176552 0.00728177 0.00567546 -4.59437e-05 0.000132955 1.79928e-10 -9.59805e-11 4.40854e-11 5e-05 1.46608e-10 
39 1 0.340796 0.0170837 0.00733574 0.00543273 -0.00131965 0.000205981 1.39167e-11 8.57418e-11 5.28824e-11 5e-05 1.46608e-10 
41 1 0.3346 0.0163477 0.00786146 0.00608706 -0.000152437 0.000189235 2.28541e-12 1.34671e-11 -5.73078e-12 5e-05 1.46608e-10 
42 1 0.335188 0.0176862 0.00726972 0.00574401 0.000130232 5.54142e-05 3.34679e-10 -5.27287e-11 5.42516e-11 5e-05 1.46608e-10 
44 1 0.335228 0.0178683 0.00718841 0.00529486 -7.83701e-05 0.000138211 -1.93761e-11 1.70447e-11 -4.91118e-11 5e-05 1.46608e-10 
45 1 0.340693 0.0166341 0.00752282 0.00601051 -0.0014514 0.000249705 1.60489e-11 -1.0759e-10 8.11414e-11 5e-05 1.46608e-10 
47 1 0.334622 0.0164369 0.00782168 0.00607086 -0.000144351 0.000185286 3.3152e-12 8.12557e-12 -3.87141e-12 5e-05 1.46608e-10 
48 1 0.335 0.018044 0.00710467 0.00543145 -8.97032e-06 0.000113145 6.871e-12 -2.24408e-10 1.09052e-10 5e-05 1.46608e-10 
49 1 0.340876 0.0174749 0.00732341 0.00563899 -0.00131702 0.000680574 -1.56115e-11 -2.18951e-11 -1.31568e-12 5e-05 1.46608e-10 
50 1 0.334708 0.0167936 0.00766258 0.00600517 -0.00011591 0.000171153 -5.35187e-13 2.02787e-12 -1.00711e-12 5e-05 1.46608e-10 
51 1 0.335337 0.018283 0.00700365 0.00572383 0.000159871 4.17708e-05 -5.59582e-11 -5.54453e-11 1.89221e-11 5e-05 1.46608e-10 
52 1 0.329277 0.0176679 0.00711265 0.00564504 0.00103802 3.1429e-05 -3.88325e-10 2.02655e-10 -3.1893e-10 5e-05 1.46608e-10 
53 1 0.340736 0.0168106 0.00743886 0.00541282 -0.00130399 0.00022522 -1.22929e-11 -9.52054e-11 4.90607e-11 5e-05 1.46608e-10 
54 1 0.335126 0.0186637 0.0069496 0.00560231 3.06951e-05 -2.25627e-05 7.45747e-11 5.06414e-11 1.02923e-10 5e-05 1.46608e-10 
55 1 0.32897 0.0171203 0.00746761 0.00640966 0.00118027 4.0454e-05 -1.98321e-10 1.48039e-10 -1.71084e-10 5e-05 1.46608e-10 
56 1 0.335129 0.0186716 0.00683156 0.00568746 -0.000219388 -0.000111982 1.49131e-10 -6.00165e-11 7.71795e-11 5e-05 1.46608e-10 
57 1 0.340715 0.0167223 0.00748085 0.00600723 -0.00144074 0.000246961 -2.24057e-11 -2.17859e-10 8.84821e-11 5e-05 1.46608e-10 
59 1 0.378022 0.019866 0.005332 -5.01928e-15 -7.41201e-15 7.69803e-14 8.29766e-24 -5.60932e-24 -2.06795e-25 5e-05 1.46608e-10 
60 1 0.335247 0.0179587 0.00714804 0.00554842 0.00010775 6.06304e-05 5.03028e-11 -1.505e-10 5.85146e-11 5e-05 1.46608e-10 
61 1 0.334579 0.0162585 0.00790124 0.00610324 -0.000160335 0.000193138 6.70451e-12 2.00667e-11 -9.24606e-12 5e-05 1.46608e-10 
62 1 0.335112 0.0177452 0.00724162 0.00567576 0.000103865 6.99143e-05 -1.10829e-10 -4.0729e-10 1.66739e-10 5e-05 1.46608e-10 
63 1 0.335184 0.0184582 0.00692162 0.00566749 -2.17656e-05 0.000131914 3.34229e-10 -2.09631e-11 -1.09279e-11 5e-05 1.46608e-10 
64 1 0.340755 0.0168992 0.00739683 0.00541887 -0.00130474 0.000225137 1.6472e-10 -1.69127e-12 -3.45815e-11 5e-05 1.46608e-10 
65 1 0.328915 0.0172491 0.00736627 0.0057778 0.000924837 0.000141443 -3.72965e-10 3.13859e-10 -2.6059e-10 5e-05 1.46608e-10 
66 1 0.329247 0.0180882 0.00711466 0.00559434 0.000679018 -0.000408999 -9.75331e-11 -6.6547e-11 -2.08506e-11 5e-05 1.46608e-10 
67 1 0.335242 0.0183104 0.00698942 0.00569671 7.44605e-05 7.6889e-05 -1.04831e-10 -3.07441e-11 3.26604e-11 5e-05 1.46608e-10 
68 1 0.334976 0.017536 0.00733325 0.00585936 -8.18582e-05 0.000152379 2.95124e-11 -1.23144e-10 6.10811e-11 5e-05 1.46608e-10 
69 1 0.335398 0.0185684 0.00687617 0.00566367 0.000330324 -2.51619e-05 3.05687e-10 -3.92781e-10 -3.41888e-11 5e-05 1.46608e-10 
70 1 0.340837 0.0172788 0.00732479 0.00538685 -0.00126961 0.000645246 2.05349e-12 -2.40832e-11 -3.78891e-11 5e-05 1.46608e-10 
71 1 0.329262 0.0180208 0.00704219 0.00551522 0.000673492 -0.000413265 7.78494e-11 -3.49204e-11 3.33484e-11 5e-05 1.46608e-10 
72 1 0.335244 0.0187404 0.00684068 0.005725 -6.66615e-05 -9.14036e-05 4.76555e-11 1.09691e-11 -2.92569e-12 5e-05 1.46608e-10 
73 1 0.335168 0.0175963 0.00730983 0.0056434 -6.84775e-05 0.000142628 1.21457e-10 -4.18823e-11 2.1957e-11 5e-05 1.46608e-10 
74 1 0.33473 0.0168828 0.0076228 0.00598831 -0.000111026 0.000168604 3.55085e-12 -6.68848e-12 2.79945e-12 5e-05 1.46608e-10 
76 1 0.328831 0.0169264 0.00758897 0.00610673 0.000686753 0.000360441 2.37031e-11 2.40676e-10 -1.99952e-10 5e-05 1.46608e-10 
77 1 0.334948 0.0176818 0.00736127 0.00572305 -5.37956e-05 0.000139147 1.47167e-10 -3.95931e-11 5.82602e-11 5e-05 1.46608e-10 
78 1 0.328371 0.0155524 0.00857248 0.00569845 0.00057208 -0.000242108 -1.57115e-11 3.52511e-10 -3.27098e-10 5e-05 1.46608e-10 
79 1 0.329093 0.0185083 0.00697402 0.00571492 0.000668714 -0.000422175 4.68765e-11 6.59516e-11 -1.97835e-11 5e-05 1.46608e-10 
80 1 0.334933 0.0173575 0.00741285 0.00589162 -9.66497e-05 0.000160429 3.69521e-11 -4.36351e-11 1.77865e-11 5e-05 1.46608e-10 
82 1 0.329147 0.0178576 0.00716213 0.00555786 0.00064964 -0.000482657 -3.24102e-10 -7.18118e-11 -2.05045e-10 5e-05 1.46608e-10 
83 1 0.329065 0.0171529 0.00745726 0.00608054 0.00123017 -3.88073e-05 -2.59644e-10 2.60713e-10 -2.20622e-10 5e-05 1.46608e-10 
84 1 0.340895 0.0175731 0.00732262 0.0055733 -0.0013049 0.000673023 -1.47549e-11 -1.19944e-11 -5.14923e-12 5e-05 1.46608e-10 
85 1 0.329206 0.0181848 0.00701923 0.00565413 0.000700978 -0.000422876 -1.56399e-12 3.10514e-12 -1.6302e-11 5e-05 1.46608e-10 
86 1 0.335209 0.0177781 0.00722868 0.00560395 0.000206605 1.79917e-05 -2.09973e-10 6.57164e-11 -1.98458e-11 5e-05 1.46608e-10 
87 1 0.334912 0.0172683 0.00745263 0.00590403 -0.000101863 0.000162807 2.80207e-11 -2.29705e-11 1.49944e-11 5e-05 1.46608e-10 
88 1 0.335122 0.0180357 0.00720567 0.00536916 0.000111338 5.36071e-05 -7.8254e-11 2.21549e-11 -5.7717e-11 5e-05 1.46608e-10 
89 1 0.335291 0.0186351 0.00684398 0.00569914 0.000271009 -7.49999e-06 -5.9041e-11 -1.21708e-10 -1.43083e-11 5e-05 1.46608e-10 
90 1 0.335261 0.0184003 0.00694926 0.00574619 7.51143e-05 8.24689e-05 9.04142e-11 -1.11973e-10 1.51231e-10 5e-05 1.46608e-10 
91 1 0.328926 0.0169573 0.00757989 0.00608989 0.000659969 0.000376525 -2.28158e-10 1.25001e-10 -1.23907e-10 5e-05 1.46608e-10 
92 1 0.335016 0.017961 0.00723809 0.00541513 2.21968e-05 9.91875e-05 1.17838e-12 4.32552e-11 -3.17378e-11 5e-05 1.46608e-10 
93 1 0.335356 0.0183727 0.00696357 0.00577581 0.000159061 4.12759e-05 -7.1903e-11 -1.0352e-10 7.28685e-11 5e-05 1.46608e-10 
94 1 0.335088 0.0183049 0.00707831 0.00554807 -5.40997e-05 0.000127702 -1.18899e-10 -1.15963e-10 2.60487e-11 5e-05 1.46608e-10 
95 1 0.335143 0.0181245 0.0071651 0.00547075 8.27837e-05 5.17113e-05 -9.42022e-12 4.28766e-11 -9.50731e-11 5e-05 1.46608e-10 
96 1 0.334923 0.0176856 0.0072647 0.00570142 -8.63994e-05 0.000149868 4.66418e-11 -7.66002e-11 3.63438e-11 5e-05 1.46608e-10 
97 1 0.328549 0.0158815 0.00830901 0.00609909 0.000761893 0.000324939 5.39551e-10 -1.54262e-10 -4.16248e-11 5e-05 1.46608e-10 
98 1 0.335437 0.0184846 0.00691475 0.0056942 0.000332673 -4.15135e-05 -5.52779e-11 3.05784e-10 -9.13608e-11 5e-05 1.46608e-10 
99 1 0.328917 0.0176397 0.00712956 0.00577992 0.000861357 -3.94838e-05 -2.79468e-11 3.34435e-11 -1.90566e-10 5e-05 1.46608e-10 
100 1 0.33519 0.0181115 0.00707804 0.0055357 -1.97553e-05 0.00011519 -8.43862e-11 1.09694e-10 -7.43168e-11 5e-05 1.46608e-10 
101 1 0.328937 0.0177348 0.00710612 0.00580492 0.000804582 -0.00042072 2.11468e-10 3.58508e-12 -1.9681e-10 5e-05 1.46608e-10 
102 1 0.0643568 0.0187248 0.00531097 4.50545e-15 1.04327e-14 8.29559e-14 -1.79789e-21 2.465e-22 7.05171e-23 5e-05 1.46608e-10 
103 1 0.24257 0.0191927 0.00520306 3.10422e-23 -1.27651e-22 1.23839e-22 0 0 0 5e-05 1.46608e-10 
104 1 0.329167 0.0179914 0.00705211 0.00550905 0.000746976 -0.000421715 -5.79231e-11 -2.77043e-12 2.20205e-11 5e-05 1.46608e-10 
105 1 0.328527 0.0158013 0.00836463 0.0060534 0.000337703 -0.000248417 -6.56879e-10 1.42519e-09 2.03295e-09 5e-05 1.46608e-10 
106 1 0.328995 0.0177457 0.00718673 0.0058167 0.000843023 -0.000424282 4.51218e-10 -1.33729e-10 4.79397e-10 5e-05 1.46608e-10 
107 1 0.32839 0.0156271 0.00850888 0.00573936 0.000577014 -0.000245882 1.23319e-10 -6.77403e-10 4.92161e-10 5e-05 1.46608e-10 
108 1 0.335148 0.0187686 0.00684651 0.00567039 -0.000203921 -0.000114946 -3.95872e-11 -1.29237e-10 -9.29714e-11 5e-05 1.46608e-10 
109 1 0.335417 0.0186581 0.00683611 0.00591298 0.000267196 -1.1007e-05 -1.34128e-10 -1.12573e-10 1.55359e-10 5e-05 1.46608e-10 
110 1 0.335089 0.0178411 0.00729089 0.00557887 0.000111318 9.22688e-05 2.88717e-10 1.26057e-10 6.23921e-11 5e-05 1.46608e-10 
111 1 0.334794 0.0171503 0.00750347 0.00593505 -0.000105433 0.00016502 -3.37633e-12 -2.49135e-11 1.09862e-11 5e-05 1.46608e-10 
112 1 0.328752 0.016314 0.00802321 0.00610693 0.000716789 0.000338137 9.64819e-11 -2.93286e-10 2.29863e-10 5e-05 1.46608e-10 
113 1 0.32884 0.0172982 0.00731995 0.00580233 0.000513826 0.000441933 6.8512e-11 4.11152e-11 9.05945e-12 5e-05 1.46608e-10 
114 1 0.328878 0.0174595 0.00720803 0.00590196 0.000500593 0.000469195 9.26612e-11 -7.6606e-13 1.53978e-10 5e-05 1.46608e-10 
115 1 0.335071 0.0175651 0.00732201 0.00580702 4.66635e-05 9.40507e-05 4.28528e-11 -1.4066e-10 5.44919e-11 5e-05 1.46608e-10 
116 1 0.335095 0.0180759 0.00709221 0.00545851 -5.80638e-06 0.000112165 6.19642e-11 7.00978e-11 -5.82515e-11 5e-05 1.46608e-10 
117 1 0.335152 0.0179268 0.00716052 0.00543025 5.93663e-05 8.16366e-05 5.15589e-11 3.27435e-11 3.14541e-11 5e-05 1.46608e-10 
118 1 0.32901 0.0172817 0.00735591 0.00561288 0.000917654 0.000123417 -5.79228e-10 2.49208e-10 -2.34331e-10 5e-05 1.46608e-10 
119 1 0.335343 0.0187247 0.00683676 0.00577094 0.000121379 -6.51114e-05 1.64003e-10 3.38543e-10 4.83479e-11 5e-05 1.46608e-10 
120 1 0.334986 0.0172075 0.00748151 0.00591377 -9.42706e-05 0.000159666 -9.76968e-12 -3.81519e-11 1.53491e-11 5e-05 1.46608e-10 
121 1 0.335074 0.0184029 0.00694435 0.00556878 -6.32434e-05 0.000137609 5.4628e-11 4.26918e-11 8.98571e-11 5e-05 1.46608e-10 
122 1 0.334902 0.0175963 0.00730459 0.00583932 -0.000106401 0.000162945 -3.59326e-11 -2.10249e-10 8.8635e-11 5e-05 1.46608e-10 
123 1 0.329281 0.018119 0.00702553 0.0056258 0.000660814 -0.000412372 -7.68861e-11 2.151e-11 1.67317e-11 5e-05 1.46608e-10 
124 1 0.335147 0.017506 0.00735013 0.00598589 0.00025106 5.10534e-06 -1.52908e-11 -1.65658e-11 2.06064e-11 5e-05 1.46608e-10 
125 1 0.335017 0.0177152 0.00725327 0.00569961 -4.26903e-05 0.000131365 1.10842e-10 -2.06237e-10 1.08608e-10 5e-05 1.46608e-10 
127 1 0.32857 0.0159619 0.00825363 0.00606846 0.000753442 0.000309723 4.00475e-10 -1.31413e-10 1.25344e-10 5e-05 1.46608e-10 
128 1 0.334964 0.0171183 0.00752129 0.0059529 -6.97684e-05 0.000149359 1.7847e-11 -2.28242e-11 1.04217e-11 5e-05 1.46608e-10 
129 1 0.335214 0.0182349 0.00706223 0.00566311 6.67258e-05 7.15629e-05 -7.38497e-11 7.09107e-11 -2.32278e-11 5e-05 1.46608e-10 
130 1 0.328973 0.017491 0.00719842 0.0057294 0.000947295 0.000124165 7.15136e-11 1.27345e-10 -4.21205e-11 5e-05 1.46608e-10 
131 1 0.328989 0.0175719 0.00714191 0.00581866 0.000898919 0.000163838 -2.14047e-11 -1.24806e-10 -2.75157e-11 5e-05 1.46608e-10 
132 1 0.335051 0.0174754 0.00736202 0.00587413 -7.38074e-05 0.000149245 2.11402e-10 5.23157e-11 -2.20114e-11 5e-05 1.46608e-10 
133 1 0.335018 0.0181338 0.00706459 0.00545457 -2.06662e-05 0.000119158 2.3349e-11 9.13765e-12 -9.25892e-13 5e-05 1.46608e-10 
134 1 0.335075 0.0179851 0.00713274 0.00536459 8.00841e-05 6.95383e-05 -3.42648e-10 -3.75774e-11 2.11015e-11 5e-05 1.46608e-10 
135 1 0.33534 0.0184625 0.00692276 0.0057274 0.000155626 4.38725e-05 8.79131e-11 3.4368e-11 1.12205e-10 5e-05 1.46608e-10 
136 1 0.328948 0.0170378 0.00752445 0.00612218 0.000725108 0.000334174 -2.75883e-10 6.52845e-11 -8.50139e-11 5e-05 1.46608e-10 
137 1 0.335037 0.0181183 0.00716163 0.00545477 -1.48071e-05 0.000120598 -6.11996e-11 7.81354e-11 1.94326e-11 5e-05 1.46608e-10 
138 1 0.334962 0.0178646 0.0071848 0.00540907 -4.61955e-05 0.000127699 -1.51624e-10 1.06431e-10 -5.35322e-11 5e-05 1.46608e-10 
140 1 0.334859 0.0174179 0.00738414 0.00588031 -0.000106464 0.000164702 -7.79012e-12 -1.01258e-10 4.05819e-11 5e-05 1.46608e-10 
141 1 0.328796 0.0164749 0.00791238 0.00610173 0.000625701 0.000403198 2.22556e-10 -6.40135e-12 2.28954e-11 5e-05 1.46608e-10 
142 1 0.329182 0.017637 0.00712177 0.00563274 0.000957293 8.27008e-05 -4.65777e-10 2.81853e-10 -3.87609e-10 5e-05 1.46608e-10 
143 1 0.32841 0.0157017 0.00844531 0.00603383 0.000488953 -0.000153555 -2.53604e-10 -2.29564e-10 3.88899e-10 5e-05 1.46608e-10 
144 1 0.329142 0.0174759 0.00723331 0.00566121 0.000985994 7.9466e-05 7.299e-11 2.15191e-10 -1.46314e-10 5e-05 1.46608e-10 
146 1 0.328453 0.015851 0.00831934 0.00608457 0.000600876 3.36639e-05 1.91092e-10 -2.22488e-10 6.03282e-11 5e-05 1.46608e-10 
147 1 0.328955 0.0174102 0.00725462 0.0056889 0.000950015 0.000110353 4.40728e-11 1.86685e-10 -1.25468e-10 5e-05 1.46608e-10 
148 1 0.328817 0.0165552 0.00785696 0.0061059 0.000632677 0.000399728 1.12135e-10 1.40864e-11 1.6257e-11 5e-05 1.46608e-10 
149 1 0.334847 0.0170007 0.00757196 0.00597045 -9.10061e-05 0.000159242 -2.16255e-12 -3.52585e-11 1.58974e-11 5e-05 1.46608e-10 
150 1 0.329054 0.0183149 0.00700691 0.00570332 0.000726208 -0.000430974 -5.13172e-11 -1.01877e-11 6.99259e-12 5e-05 1.46608e-10 
151 1 0.328976 0.017928 0.00707271 0.00563547 0.000870222 -0.000430641 -6.65438e-10 -2.76639e-10 9.98679e-11 5e-05 1.46608e-10 
153 1 0.328839 0.0166356 0.00780156 0.00612471 0.000641495 0.000394441 1.92556e-10 1.22159e-10 -7.31875e-11 5e-05 1.46608e-10 
154 1 0.328432 0.0157761 0.00838206 0.00608968 0.000467324 -0.000119735 3.06585e-10 3.16077e-11 -3.16701e-10 5e-05 1.46608e-10 
155 1 0.328475 0.0159306 0.00826291 0.00609282 0.000766785 0.000282238 -1.99033e-10 -3.04842e-10 2.20969e-10 5e-05 1.46608e-10 
156 1 0.328774 0.0163945 0.00796777 0.006103 0.000650219 0.000385339 1.9328e-10 -3.14773e-10 2.68448e-10 5e-05 1.46608e-10 
157 1 0.0219312 0.0187687 0.00551176 -3.82696e-14 8.1696e-14 2.95888e-13 4.26567e-22 2.72401e-22 -1.88184e-23 5e-05 1.46608e-10 
158 1 0.328882 0.0167965 0.00769071 0.00611905 0.00067768 0.000367695 -4.63745e-11 1.42743e-10 -1.10988e-10 5e-05 1.46608e-10 
159 1 0.334955 0.0174467 0.00737307 0.00586917 -8.92277e-05 0.000156655 1.19301e-10 -8.44352e-11 3.75556e-11 5e-05 1.46608e-10 
160 1 0.328957 0.0178313 0.00708916 0.00581529 0.000805182 -0.000442748 -1.30991e-10 1.28962e-10 -2.1519e-10 5e-05 1.46608e-10 
162 1 0.329138 0.0181168 0.00711833 0.00556184 0.00074427 -0.000432294 -1.37623e-10 9.00486e-11 8.63862e-11 5e-05 1.46608e-10 
164 1 0.32854 0.0161718 0.00809676 0.00610897 0.00075253 0.00030625 -3.25025e-10 -4.49159e-10 1.67526e-10 5e-05 1.46608e-10 
165 1 0.329092 0.0180572 0.00704581 0.00556334 0.000763441 -0.000432021 -2.46231e-10 3.73068e-11 3.54287e-11 5e-05 1.46608e-10 
166 1 0.334981 0.0179543 0.00714476 0.00538195 -1.94352e-05 0.000115346 -1.86657e-10 -2.35124e-10 7.20769e-11 5e-05 1.46608e-10 
167 1 0.329013 0.0180861 0.00713333 0.00567822 0.000862326 -0.000418731 -1.11584e-10 -1.05176e-10 -2.20015e-10 5e-05 1.46608e-10 
168 1 0.329151 0.0183479 0.00699634 0.00570078 0.00068803 -0.000424191 5.93742e-11 3.06754e-11 -5.34383e-12 5e-05 1.46608e-10 
169 1 0.329015 0.0181215 0.00703982 0.00566964 0.000802738 -0.000445177 -1.66964e-10 -1.42954e-10 -6.96284e-11 5e-05 1.46608e-10 
170 1 0.329131 0.0182505 0.00701293 0.00568606 0.000728425 -0.000430433 -5.6393e-11 9.10012e-12 1.76576e-11 5e-05 1.46608e-10 
171 1 0.335204 0.0185512 0.00688009 0.00567158 -7.38915e-05 0.000150552 -1.09586e-10 -4.98647e-11 7.81438e-13 5e-05 1.46608e-10 
172 1 0.328821 0.0172175 0.00737593 0.00581863 0.000800996 0.000230415 -1.48616e-11 -1.42555e-11 3.54462e-11 5e-05 1.46608e-10 
173 1 0.335302 0.0185521 0.00689868 0.00570131 0.000148008 4.2768e-05 9.8303e-11 -1.59211e-12 -1.37087e-10 5e-05 1.46608e-10 
174 1 0.328583 0.0163325 0.00798599 0.00610476 0.000694746 0.000352712 1.61656e-10 2.77024e-10 -1.58996e-10 5e-05 1.46608e-10 
176 1 0.328916 0.0173452 0.00740732 0.00563936 0.000973423 9.62551e-05 -1.03943e-10 9.33939e-11 -2.32907e-10 5e-05 1.46608e-10 
177 1 0.328592 0.0160423 0.00819824 0.00609765 0.000740369 0.000318583 -1.62921e-10 -3.7855e-11 2.05042e-11 5e-05 1.46608e-10 
178 1 0.32898 0.0176479 0.00720631 0.00577232 0.0011257 -0.000103299 7.73956e-11 2.79631e-10 -3.2019e-10 5e-05 1.46608e-10 
179 1 0.329091 0.0180214 0.00713921 0.00552998 0.000787337 -0.00043239 -1.32641e-10 4.59635e-11 6.60141e-11 5e-05 1.46608e-10 
182 1 0.335092 0.0184927 0.00690427 0.00564314 -7.5423e-05 0.000151757 2.16164e-10 5.64029e-11 8.5622e-11 5e-05 1.46608e-10 
183 1 0.329052 0.0178266 0.00717246 0.00580193 0.000856845 -0.00046424 -8.12021e-11 4.38251e-10 -1.97817e-10 5e-05 1.46608e-10 
184 1 0.335261 0.0184987 0.00697214 0.00568654 0.000216572 -6.80539e-05 1.97771e-10 1.30748e-10 2.61469e-10 5e-05 1.46608e-10 
185 1 0.329163 0.0175563 0.00717776 0.00559556 0.000983093 7.26232e-05 -2.31996e-10 2.79587e-10 -3.2573e-10 5e-05 1.46608e-10 
186 1 0.3293 0.0182157 0.00700908 0.0056799 0.000667259 -0.000419593 7.04819e-11 -7.09472e-11 1.93122e-11 5e-05 1.46608e-10 
187 1 0.335147 0.0182788 0.00700179 0.00554143 -2.23795e-05 0.000120817 -7.98017e-11 -2.74398e-11 -3.18146e-11 5e-05 1.46608e-10 
188 1 0.334997 0.0176254 0.00729333 0.00571933 -5.54149e-05 0.00013734 2.23529e-10 -4.10841e-11 1.60713e-11 5e-05 1.46608e-10 
189 1 0.335055 0.0183132 0.00698443 0.00553005 -4.81377e-05 0.00013092 -6.7942e-11 4.42375e-12 -1.73204e-11 5e-05 1.46608e-10 
190 1 0.32305 0.0182934 0.00697785 0.0054439 -0.000749862 0.000239241 -6.8234e-12 2.09476e-12 -3.47718e-12 5e-05 1.46608e-10 
191 1 0.334773 0.0170612 0.00754324 0.00595394 -0.000105618 0.000165506 -5.85263e-12 -2.64351e-11 1.1682e-11 5e-05 1.46608e-10 
192 1 0.328859 0.0173789 0.00726399 0.00585549 0.000509285 0.000452602 4.20655e-11 5.39384e-12 6.90504e-11 5e-05 1.46608e-10 
193 1 0.335208 0.018663 0.00689254 0.00562772 5.14588e-05 8.88744e-06 1.46952e-10 -7.04103e-12 9.41275e-11 5e-05 1.46608e-10 
194 1 0.329167 0.0179547 0.00714513 0.00547985 0.0007575 -0.00041662 -3.27914e-10 -8.64553e-11 -1.23427e-11 5e-05 1.46608e-10 
195 1 0.329051 0.0178622 0.00707902 0.00558183 0.000830134 -0.000447644 -3.99247e-10 5.0504e-10 -1.60468e-10 5e-05 1.46608e-10 
196 1 0.329107 0.0177006 0.00710462 0.00562576 0.000707697 -0.000639087 -3.07377e-10 -2.34088e-11 -7.63602e-10 5e-05 1.46608e-10 
197 1 0.322739 0.0168764 0.00754693 0.00589782 -0.000739421 0.000561262 1.01223e-11 3.22098e-11 -1.75629e-11 5e-05 1.46608e-10 
198 1 0.329105 0.0173144 0.00734544 0.0056059 0.000890521 0.000141055 2.34491e-11 3.64618e-10 -2.77834e-10 5e-05 1.46608e-10 
199 1 0.329071 0.0179237 0.00715525 0.00560831 0.000780792 -0.000421898 -3.33377e-10 -1.14656e-10 4.07774e-11 5e-05 1.46608e-10 
200 1 0.328506 0.0157269 0.00842787 0.00608526 0.000440013 -0.00010517 1.4998e-10 -1.47094e-10 4.07068e-10 5e-05 1.46608e-10 
201 1 0.329072 0.0179605 0.00706226 0.00553233 0.000770401 -0.00042444 -8.59915e-11 1.30125e-10 7.13129e-11 5e-05 1.46608e-10 
202 1 0.328904 0.0168768 0.00763538 0.00611097 0.000684541 0.000362433 -8.88372e-11 2.15766e-10 -1.56206e-10 5e-05 1.46608e-10 
203 1 0.335057 0.0178952 0.00717288 0.00545689 5.36309e-05 8.37645e-05 8.0023e-11 1.00195e-10 -5.75809e-11 5e-05 1.46608e-10 
204 1 0.329221 0.0178277 0.00707511 0.00554742 0.000768068 -0.000434187 -2.67621e-10 -6.54591e-11 5.17157e-11 5e-05 1.46608e-10 
205 1 0.328744 0.0166049 0.00781052 0.00612698 0.000648692 0.000390503 4.23835e-11 -8.50494e-11 6.91309e-11 5e-05 1.46608e-10 
206 1 0.328787 0.0167657 0.00769968 0.00611871 0.000669459 0.000374673 -3.04798e-12 1.09893e-10 -8.96752e-11 5e-05 1.46608e-10 
207 1 0.328657 0.0162834 0.00803209 0.00610771 0.000696 0.000351772 2.22799e-10 1.22457e-10 -4.05615e-11 5e-05 1.46608e-10 
208 1 0.32899 0.0172009 0.0074118 0.00596344 0.00110788 3.37848e-05 -2.12913e-10 3.7364e-10 -3.06908e-10 5e-05 1.46608e-10 
209 1 0.328895 0.0171685 0.00742201 0.00611995 0.00088405 0.000215996 -2.29557e-10 1.77689e-10 -1.82302e-10 5e-05 1.46608e-10 
210 1 0.33489 0.0171791 0.00749241 0.00593317 -8.94196e-05 0.000157711 -1.85645e-11 -5.17985e-11 2.3463e-11 5e-05 1.46608e-10 
211 1 0.334816 0.0172395 0.00746369 0.00591578 -0.000106813 0.000165043 -2.81642e-12 -2.70482e-11 1.59342e-11 5e-05 1.46608e-10 
212 1 0.329186 0.0180881 0.00703567 0.0055647 0.000725609 -0.000423411 -1.36223e-10 -2.9176e-11 5.37355e-11 5e-05 1.46608e-10 
213 1 0.335037 0.0182235 0.00702451 0.00549039 -3.74936e-05 0.000127753 -4.12584e-11 2.2102e-11 -3.47534e-11 5e-05 1.46608e-10 
214 1 0.335111 0.0179304 0.00725149 0.0054532 0.000135044 8.08638e-05 9.7898e-11 2.1918e-10 4.604e-11 5e-05 1.46608e-10 
215 1 0.322954 0.0178115 0.00701173 0.00546007 -0.000812308 0.00018317 2.38228e-11 3.01686e-11 1.25872e-10 5e-05 1.46608e-10 
216 1 0.328636 0.016203 0.00808747 0.00614338 0.000726233 0.000336975 -3.61393e-11 1.57222e-11 -5.62267e-11 5e-05 1.46608e-10 
217 1 0.335112 0.0185888 0.00688483 0.00565157 -8.64341e-05 0.000113804 -5.13289e-11 -1.50635e-12 7.38852e-11 5e-05 1.46608e-10 
218 1 0.328898 0.0175558 0.0071808 0.00577922 0.000997505 0.000132791 6.7567e-11 1.60817e-10 -2.28132e-10 5e-05 1.46608e-10 
219 1 0.335103 0.0173258 0.00743048 0.00590062 -5.05907e-05 0.000139585 1.04811e-10 -1.2881e-10 6.07183e-11 5e-05 1.46608e-10 
220 1 0.329011 0.0176688 0.00711353 0.00576014 0.00085733 -0.000219323 1.15273e-10 -1.2264e-10 8.93095e-10 5e-05 1.46608e-10 
222 1 0.335266 0.0180526 0.0071061 0.00557458 3.13176e-06 0.000108608 -5.03905e-11 -2.65927e-12 -9.19183e-12 5e-05 1.46608e-10 
224 1 0.328714 0.0168155 0.00765321 0.00612249 0.000680733 0.000366661 -3.79833e-11 1.84299e-10 -1.62385e-10 5e-05 1.46608e-10 
225 1 0.334841 0.0173377 0.00752343 0.00588488 -0.000118489 0.000167159 1.04705e-12 2.19106e-10 -1.2861e-11 5e-05 1.46608e-10 
226 1 0.329073 0.0176843 0.00719716 0.00582247 0.000876688 -0.00053467 4.63712e-10 -2.86164e-10 -5.65295e-10 5e-05 1.46608e-10 
227 1 0.322972 0.017901 0.0069712 0.00546349 -0.000781336 0.000243279 3.79154e-11 -2.36601e-11 1.98392e-11 5e-05 1.46608e-10 
228 1 0.322916 0.0176333 0.00709408 0.00550175 -0.000895263 3.24866e-05 -2.84161e-11 -6.47205e-12 -8.28207e-11 5e-05 1.46608e-10 
229 1 0.329225 0.0182815 0.00700278 0.00569565 0.000686137 -0.000423994 1.24945e-10 9.05676e-11 -1.62458e-11 5e-05 1.46608e-10 
230 1 0.32875 0.0169254 0.00769234 0.00613243 0.000689933 0.000359912 3.43814e-11 1.44403e-11 -9.0098e-11 5e-05 1.46608e-10 
232 1 0.329111 0.0181539 0.00702937 0.0056294 0.000751135 -0.000432313 -8.00149e-11 8.39593e-12 3.2697e-11 5e-05 1.46608e-10 
233 1 0.328992 0.0179897 0.00714987 0.00569901 0.000913649 -0.000458624 -2.55853e-10 -3.79301e-10 6.29743e-12 5e-05 1.46608e-10 
234 1 0.335514 0.0186815 0.00682748 0.00591943 0.000341376 -3.44456e-05 -5.53973e-12 7.37347e-11 -2.50069e-12 5e-05 1.46608e-10 
235 1 0.32867 0.0166547 0.00776398 0.00610238 0.000651218 0.000384567 5.36674e-11 1.11084e-10 -8.18258e-11 5e-05 1.46608e-10 
236 1 0.328859 0.017274 0.00744899 0.00586539 0.000844547 0.000166 -4.99576e-11 1.70007e-10 -7.69967e-11 5e-05 1.46608e-10 
237 1 0.328779 0.0170566 0.00748706 0.00614412 0.000730838 0.000332915 -3.96239e-11 1.60676e-10 -1.19537e-10 5e-05 1.46608e-10 
239 1 0.32263 0.016461 0.00780314 0.00592713 -0.000732464 0.000557569 -2.02486e-11 -6.19124e-11 3.94308e-11 5e-05 1.46608e-10 
240 1 0.322696 0.0167103 0.00764941 0.00591011 -0.000740248 0.000562235 -1.96979e-12 -1.02024e-11 2.05838e-12 5e-05 1.46608e-10 
241 1 0.322609 0.016378 0.00785439 0.00593149 -0.000733392 0.000558353 -3.69048e-12 -1.99792e-11 1.18177e-11 5e-05 1.46608e-10 
242 1 0.329085 0.0172338 0.00740132 0.0055606 0.000856913 0.000158009 -3.81368e-10 4.04065e-10 -3.18182e-10 5e-05 1.46608e-10 
243 1 0.329087 0.0176059 0.00713098 0.00567188 0.000915987 0.00010749 -9.85402e-11 -5.80242e-10 3.93266e-10 5e-05 1.46608e-10 
244 1 0.322652 0.0165441 0.0077519 0.00592119 -0.000734696 0.000558992 -1.47558e-11 -8.46988e-11 5.04937e-11 5e-05 1.46608e-10 
246 1 0.322842 0.0172928 0.00729011 0.00558168 -0.000691476 0.000495679 7.54836e-12 1.1183e-10 2.92341e-12 5e-05 1.46608e-10 
247 1 0.328605 0.0164129 0.00793061 0.00609604 0.000661853 0.000378198 9.99176e-12 2.37956e-10 -2.36194e-10 5e-05 1.46608e-10 
248 1 0.328931 0.0175417 0.00727416 0.00577193 0.000925707 0.000143898 -1.67849e-10 3.29385e-10 -2.29137e-11 5e-05 1.46608e-10 
249 1 0.322782 0.0170427 0.00744434 0.00578112 -0.000712369 0.000542448 8.26338e-11 1.86089e-11 -1.48436e-11 5e-05 1.46608e-10 
250 1 0.328701 0.0164442 0.00792132 0.00609153 0.000647427 0.000387736 9.69208e-11 -1.05915e-10 1.31292e-10 5e-05 1.46608e-10 
251 1 0.335037 0.017805 0.00721317 0.005625 9.80613e-05 6.89676e-05 5.14279e-10 1.81741e-10 -1.08059e-10 5e-05 1.46608e-10 
252 1 0.32286 0.0173765 0.00723832 0.00564825 -0.000688822 0.000519145 1.60455e-11 7.74888e-11 -3.82403e-11 5e-05 1.46608e-10 
253 1 0.32303 0.0181953 0.00697619 0.0054369 -0.00075163 0.000238591 -2.42337e-11 -2.26382e-12 1.12445e-13 5e-05 1.46608e-10 
254 1 0.322801 0.0171262 0.00739282 0.00552941 -0.000666876 0.000515712 -1.24132e-10 3.06711e-11 -3.58037e-11 5e-05 1.46608e-10 
255 1 0.328906 0.0171856 0.00751994 0.00628634 0.000913387 0.000188192 2.02594e-11 2.46577e-12 -1.02791e-10 5e-05 1.46608e-10 
256 1 0.329241 0.0179244 0.00705867 0.00550495 0.000762531 -0.000426004 -7.33308e-11 -4.50469e-11 2.50853e-11 5e-05 1.46608e-10 
257 1 0.328861 0.0167161 0.00774611 0.00608329 0.000638825 0.000391275 -1.04509e-10 2.49109e-11 -3.45787e-11 5e-05 1.46608e-10 
258 1 0.328933 0.0174263 0.0073508 0.00568364 0.000951477 0.000114033 8.04939e-11 1.84615e-10 -1.02469e-10 5e-05 1.46608e-10 
259 1 0.322878 0.0174601 0.00718671 0.00549277 -0.000656824 0.0005049 -2.28258e-10 1.15722e-10 -5.92435e-11 5e-05 1.46608e-10 