ITEM: TIMESTEP
46000000
ITEM: NUMBER OF ATOMS
275
ITEM: BOX BOUNDS ff ff ff
-0.02 0.43
-0.02 0.06
-0.02 0.07
ITEM: ATOMS id type x y z vx vy vz fx fy fz radius mass 
1 1 0.281499 0.0182826 0.00689266 0.00583953 0.00011884 -0.000184452 -4.61867e-11 -2.00974e-10 1.50882e-11 5e-05 1.46608e-10 
2 1 0.281155 0.017151 0.00730973 0.00621325 0.00013775 0.000140979 1.1554e-10 -1.00989e-10 5.45666e-11 5e-05 1.46608e-10 
4 1 0.281304 0.0170277 0.00736095 0.00619801 9.19932e-05 0.000157217 2.51352e-10 -4.2027e-11 1.73226e-11 5e-05 1.46608e-10 
5 1 0.280704 0.0154993 0.00876205 0.00586015 0.000187997 -9.49693e-05 -2.61532e-10 1.00244e-10 -1.61922e-10 5e-05 1.46608e-10 
6 1 0.287111 0.0169797 0.0074165 0.00597371 -0.000678732 -0.000446309 2.74231e-10 -6.36831e-11 1.80461e-10 5e-05 1.46608e-10 
7 1 0.281457 0.0176691 0.00712212 0.00629727 4.89814e-05 -0.000306328 -5.69048e-11 8.00742e-11 -4.1183e-10 5e-05 1.46608e-10 
8 1 0.281148 0.0167228 0.00747134 0.0058945 0.000109612 0.000136416 1.0066e-10 -2.63303e-10 2.3814e-10 5e-05 1.46608e-10 
9 1 0.287324 0.0178529 0.0069938 0.0059682 -0.000228805 -5.73574e-05 4.34729e-10 7.59596e-11 1.78772e-11 5e-05 1.46608e-10 
10 1 0.280825 0.0158768 0.00831274 0.00549567 0.000201314 -0.000112254 2.83401e-10 -8.70155e-11 2.14233e-10 5e-05 1.46608e-10 
11 1 0.28138 0.0179112 0.00711951 0.00602803 0.000254476 0.000252016 1.97748e-11 1.50526e-11 -9.61602e-11 5e-05 1.46608e-10 
12 1 0.275332 0.016752 0.00746103 0.00556081 -0.000687148 0.000274799 -1.50076e-10 5.59133e-11 -7.93354e-10 5e-05 1.46608e-10 
13 1 0.280683 0.0154364 0.00883685 0.00608347 0.000173565 -7.4855e-05 -2.24205e-10 2.92507e-10 -3.63284e-10 5e-05 1.46608e-10 
14 1 0.27531 0.0174378 0.00727843 0.00603522 -0.000354585 0.000330561 1.03315e-10 -7.04125e-11 -1.96386e-11 5e-05 1.46608e-10 
16 1 0.275514 0.01795 0.0071886 0.0059419 -0.000326223 0.00031917 2.28274e-11 -1.22114e-12 -1.11004e-12 5e-05 1.46608e-10 
17 1 0.280805 0.0158138 0.00838788 0.00554441 0.000216347 -8.8775e-05 4.75962e-11 -2.92887e-10 4.86569e-11 5e-05 1.46608e-10 
19 1 0.280661 0.0153735 0.00891164 0.00610795 0.000174693 -7.37955e-05 -6.52441e-11 2.8194e-10 -3.29373e-10 5e-05 1.46608e-10 
21 1 0.281499 0.0178527 0.00705275 0.00587678 0.000284998 -0.000249038 -4.44431e-11 2.33393e-10 -6.56119e-11 5e-05 1.46608e-10 
22 1 0.28111 0.0165402 0.00754336 0.00572522 0.000108406 3.70033e-06 -5.73339e-11 -2.2478e-11 -2.18442e-10 5e-05 1.46608e-10 
23 1 0.275545 0.0176924 0.00723957 0.00589503 -0.000395099 0.000328114 -2.74207e-11 -8.13011e-11 3.8243e-11 5e-05 1.46608e-10 
24 1 0.287239 0.0174967 0.00713998 0.00619347 -0.000293998 0.000225768 -1.48466e-10 -2.46628e-10 1.05041e-10 5e-05 1.46608e-10 
25 1 0.280863 0.0160041 0.00816319 0.00547116 9.89271e-05 -0.000203773 7.03387e-11 8.90482e-12 1.00297e-10 5e-05 1.46608e-10 
26 1 0.287283 0.017669 0.00704858 0.00627021 -0.000277025 0.000220259 -3.04006e-10 8.83724e-11 -9.64675e-11 5e-05 1.46608e-10 
27 1 0.275142 0.0167129 0.00751512 0.00592778 -0.00045796 6.84151e-05 7.29362e-10 -2.2709e-10 8.08363e-11 5e-05 1.46608e-10 
28 1 0.28123 0.0170899 0.00733515 0.00621191 0.000123954 0.000147091 2.3051e-10 -2.23928e-11 5.65154e-12 5e-05 1.46608e-10 
29 1 0.28064 0.0153107 0.00898644 0.00612514 0.000173538 -7.05788e-05 9.69919e-11 2.95574e-10 -3.53691e-10 5e-05 1.46608e-10 
30 1 0.280939 0.0162583 0.00786387 0.0056579 9.07685e-05 -0.000182723 -9.20296e-11 -5.80162e-11 1.4968e-10 5e-05 1.46608e-10 
31 1 0.281532 0.0176067 0.0071436 0.00622022 3.27556e-05 -0.000158487 -2.51823e-10 1.15213e-10 -4.98523e-11 5e-05 1.46608e-10 
32 1 0.280882 0.0160669 0.00808777 0.00546521 9.32671e-05 -0.000213969 7.56574e-12 -1.18438e-10 3.54924e-11 5e-05 1.46608e-10 
33 1 0.287132 0.0170651 0.007369 0.00603289 -0.000312251 0.000229977 5.41963e-11 -2.30858e-10 1.17973e-10 5e-05 1.46608e-10 
34 1 0.280794 0.0157499 0.00846398 0.00556593 0.000199058 -0.000114058 -9.58352e-11 -1.87571e-10 1.62413e-10 5e-05 1.46608e-10 
35 1 0.281413 0.0174862 0.00719106 0.00622841 0.000112243 0.000148845 -4.21501e-11 7.878e-11 -5.15712e-11 5e-05 1.46608e-10 
36 1 0.287385 0.0181463 0.00700613 0.00560598 -0.000165894 -0.000111095 -1.77885e-11 1.66059e-10 1.74315e-11 5e-05 1.46608e-10 
37 1 0.281283 0.0169361 0.00739493 0.00613054 9.27558e-05 0.000156404 -6.01788e-11 7.68538e-11 7.34954e-12 5e-05 1.46608e-10 
38 1 0.28137 0.0173032 0.0072589 0.00621808 0.000117037 0.000150073 -2.43219e-11 8.80117e-11 1.25816e-11 5e-05 1.46608e-10 
39 1 0.28726 0.017583 0.00709418 0.00623003 -0.000280019 0.000222 3.22452e-11 -9.34748e-11 5.29337e-11 5e-05 1.46608e-10 
41 1 0.280745 0.0156252 0.00861226 0.00558261 0.000200217 -0.000120844 -3.10564e-10 -4.27649e-11 5.09207e-11 5e-05 1.46608e-10 
42 1 0.281401 0.017057 0.00735133 0.00603911 1.93187e-05 -0.000143896 9.22348e-11 -1.55722e-10 1.08476e-10 5e-05 1.46608e-10 
44 1 0.281467 0.0173325 0.00724721 0.00626158 5.45418e-05 -0.000161885 -7.88386e-11 3.81281e-11 -2.03484e-11 5e-05 1.46608e-10 
45 1 0.287154 0.0171514 0.00732319 0.0060704 -0.000304193 0.000231074 -6.38217e-10 -2.12081e-10 2.0261e-11 5e-05 1.46608e-10 
47 1 0.280766 0.0156881 0.00853736 0.00558051 0.000186718 -0.000128251 1.04199e-11 -1.01047e-10 1.98463e-10 5e-05 1.46608e-10 
48 1 0.281368 0.0180672 0.00697008 0.00576078 0.00020859 0.000101268 5.26742e-12 1.05328e-10 -6.07536e-11 5e-05 1.46608e-10 
49 1 0.287344 0.0179507 0.00699791 0.0057365 -0.000179813 -0.000109828 4.18694e-10 1.64602e-10 5.41313e-12 5e-05 1.46608e-10 
50 1 0.280902 0.0161305 0.00801323 0.00552317 0.00010675 -0.000192167 4.76487e-11 -1.77799e-10 3.28827e-11 5e-05 1.46608e-10 
51 1 0.281554 0.017698 0.0071091 0.00628526 2.5766e-05 -0.000164048 -4.1834e-10 2.13694e-10 -1.93149e-11 5e-05 1.46608e-10 
52 1 0.275394 0.0170205 0.00736247 0.00595379 -0.000417101 0.000339134 -5.74795e-10 -4.12289e-11 -4.66394e-11 5e-05 1.46608e-10 
53 1 0.287196 0.017324 0.00723159 0.00614402 -0.000316443 0.000237304 3.35544e-10 -1.54353e-10 1.3419e-10 5e-05 1.46608e-10 
54 1 0.281708 0.0180045 0.00699142 0.00575784 -4.73765e-06 -0.000130341 -4.42975e-11 -5.31782e-11 2.74796e-11 5e-05 1.46608e-10 
55 1 0.275317 0.0170875 0.00736607 0.00600702 -0.000452077 0.000276583 2.39514e-10 1.28468e-10 -2.65274e-11 5e-05 1.46608e-10 
56 1 0.281689 0.0179121 0.00702629 0.00570162 -1.25543e-08 -0.000131568 6.27002e-11 1.53322e-11 -8.37341e-12 5e-05 1.46608e-10 
57 1 0.287175 0.0172377 0.00727739 0.00612862 -0.000307318 0.000236478 -1.71404e-10 -7.89441e-11 7.97342e-11 5e-05 1.46608e-10 
59 1 0.378022 0.019866 0.005332 -5.01942e-15 -7.41219e-15 7.69802e-14 -3.10193e-25 -3.07608e-24 -4.1359e-25 5e-05 1.46608e-10 
60 1 0.281489 0.0174241 0.00721261 0.00623559 2.32031e-05 -0.00015014 6.61356e-12 4.17172e-11 4.42574e-12 5e-05 1.46608e-10 
61 1 0.280725 0.0155622 0.0086872 0.00562542 0.000203153 -0.00011678 -5.98956e-10 6.49568e-11 -8.35928e-11 5e-05 1.46608e-10 
62 1 0.281392 0.0173947 0.00722498 0.0062176 0.000112199 0.000149381 -3.65477e-11 8.43157e-11 -3.10436e-11 5e-05 1.46608e-10 
63 1 0.281475 0.0182688 0.00698875 0.00571523 0.00039729 -0.000182633 -1.09592e-10 1.31714e-10 -1.4205e-10 5e-05 1.46608e-10 
64 1 0.287217 0.0174104 0.00718578 0.00615382 -0.000310021 0.000233236 -2.58799e-11 -3.213e-10 1.39163e-10 5e-05 1.46608e-10 
65 1 0.275363 0.0172767 0.00731176 0.00604653 -0.000344439 0.000330306 -7.13688e-11 -1.23289e-10 -2.01376e-10 5e-05 1.46608e-10 
66 1 0.275486 0.0177201 0.00731553 0.00595717 -0.000316648 0.000335476 -5.14205e-11 -1.04944e-10 1.03839e-10 5e-05 1.46608e-10 
67 1 0.281519 0.017945 0.0070181 0.0057262 9.53661e-05 -0.000128037 -2.28025e-11 -2.26659e-11 -6.70959e-11 5e-05 1.46608e-10 
68 1 0.281295 0.0173645 0.00723339 0.00622302 0.000125974 0.00014556 1.38476e-12 6.51303e-11 -2.12115e-11 5e-05 1.46608e-10 
69 1 0.281594 0.0178824 0.00703951 0.00574806 0.000110436 -0.000170921 4.98586e-12 9.69982e-12 -2.23736e-12 5e-05 1.46608e-10 
70 1 0.287302 0.0177556 0.00700259 0.00629001 -0.000278751 0.000217919 2.47974e-10 2.17682e-10 4.60305e-11 5e-05 1.46608e-10 
71 1 0.275683 0.0179167 0.00720235 0.00592259 -0.000312143 0.000316823 -3.05006e-11 6.2927e-11 -1.3648e-11 5e-05 1.46608e-10 
72 1 0.281577 0.0182223 0.00691332 0.00580072 6.1965e-05 -0.000157497 1.81087e-10 -1.54898e-10 1.00576e-11 5e-05 1.46608e-10 
73 1 0.280844 0.0159399 0.00823767 0.00546315 0.00015114 -0.000161734 3.58903e-10 1.34627e-11 2.25372e-10 5e-05 1.46608e-10 
74 1 0.280919 0.0161944 0.00793841 0.00560072 0.000100152 -0.000185097 -1.7778e-10 -5.28028e-11 1.17676e-10 5e-05 1.46608e-10 
76 1 0.275256 0.0168021 0.00741913 0.00617331 -0.00042812 0.000295777 2.07191e-10 3.26229e-10 4.99569e-12 5e-05 1.46608e-10 
77 1 0.281177 0.0172425 0.00727582 0.00622212 0.000136696 0.00014144 7.8403e-11 -8.14458e-11 2.51525e-11 5e-05 1.46608e-10 
78 1 0.274711 0.0155572 0.00875772 0.00586676 -0.000462496 7.73703e-05 -2.14911e-11 2.44902e-11 -1.75258e-11 5e-05 1.46608e-10 
79 1 0.275585 0.0182474 0.00713435 0.00590538 -0.000259319 0.000306137 -7.3393e-12 6.15342e-11 -9.68901e-12 5e-05 1.46608e-10 
80 1 0.281252 0.0171814 0.00730125 0.00607487 0.000149347 0.000133052 4.12716e-12 -6.11816e-11 4.87752e-11 5e-05 1.46608e-10 
82 1 0.275411 0.0177835 0.00729968 0.0059602 -0.000329823 0.000319703 6.64979e-11 5.5976e-11 2.5315e-10 5e-05 1.46608e-10 
83 1 0.27535 0.0168273 0.00739781 0.00607432 -0.000674213 0.000406474 -8.99166e-11 5.10154e-10 -1.61477e-10 5e-05 1.46608e-10 
84 1 0.287365 0.0180485 0.00700202 0.00560935 -0.000160897 -0.000110098 2.18548e-10 2.8899e-10 -3.04094e-11 5e-05 1.46608e-10 
85 1 0.275725 0.0181093 0.00716705 0.00590029 -0.00025895 0.000305679 -1.74619e-11 6.93989e-11 -1.80765e-11 5e-05 1.46608e-10 
86 1 0.281445 0.0172411 0.00728176 0.0062615 4.59787e-05 -0.000161201 -8.64237e-11 7.73156e-11 -7.74364e-11 5e-05 1.46608e-10 
87 1 0.281209 0.0169984 0.00736907 0.00618389 0.000140583 0.000139301 1.07849e-10 -1.36405e-10 6.67763e-11 5e-05 1.46608e-10 
88 1 0.28136 0.0176391 0.00713163 0.00624505 0.000126212 0.000142344 -1.15447e-10 2.80592e-11 -2.5383e-11 5e-05 1.46608e-10 
89 1 0.281478 0.01794 0.00710938 0.00588544 0.000290199 -4.37222e-05 -6.83216e-11 -4.29282e-11 -3.61986e-11 5e-05 1.46608e-10 
90 1 0.281538 0.018037 0.00698366 0.00577694 0.000107295 -8.08586e-05 2.98696e-11 1.27278e-10 -1.07278e-10 5e-05 1.46608e-10 
91 1 0.275314 0.0166847 0.00753275 0.00511349 -0.000588049 0.00026935 -4.80279e-10 5.65063e-10 -6.59389e-10 5e-05 1.46608e-10 
92 1 0.281285 0.0177002 0.00710622 0.00625429 0.000122741 0.000148534 -1.01406e-10 -1.10013e-10 6.24245e-11 5e-05 1.46608e-10 
93 1 0.280997 0.0164493 0.00764014 0.00570261 5.43474e-05 -0.000186567 2.96424e-10 -2.8124e-10 2.09002e-10 5e-05 1.46608e-10 
94 1 0.281384 0.0180452 0.00706619 0.00573506 0.000213655 0.000105242 6.43207e-11 1.86267e-10 -1.06501e-10 5e-05 1.46608e-10 
95 1 0.281317 0.0176308 0.00722153 0.00626283 0.00011836 0.000148247 -1.41044e-10 1.25002e-10 1.80785e-11 5e-05 1.46608e-10 
96 1 0.281264 0.0176087 0.00714014 0.00625374 0.000124635 0.000147837 -2.64121e-11 -6.25549e-11 3.19913e-11 5e-05 1.46608e-10 
97 1 0.27491 0.0159093 0.00837442 0.00560242 -0.000422316 5.36097e-05 -2.15623e-10 -2.3726e-10 2.69994e-10 5e-05 1.46608e-10 
98 1 0.280976 0.0163857 0.00771447 0.00569906 7.58963e-05 -0.000178836 5.71604e-11 -3.37338e-10 -4.10189e-11 5e-05 1.46608e-10 
99 1 0.275298 0.017789 0.00721026 0.00597093 -0.000362326 0.000328764 4.58261e-11 1.346e-10 -2.25682e-11 5e-05 1.46608e-10 
100 1 0.281479 0.0177605 0.00708759 0.00632921 2.7757e-05 -0.000301042 -3.84732e-12 1.07298e-10 -7.24237e-10 5e-05 1.46608e-10 
101 1 0.27532 0.0178851 0.00719267 0.00595791 -0.000348246 0.000322163 -4.19962e-11 -2.14742e-10 7.40793e-11 5e-05 1.46608e-10 
102 1 0.0643568 0.0187248 0.00531097 4.13238e-15 1.05509e-14 8.29602e-14 -4.09739e-22 1.03038e-21 -1.03398e-22 5e-05 1.46608e-10 
103 1 0.24257 0.0191927 0.00520306 1.08181e-22 1.36824e-22 8.29106e-22 3.23117e-27 -2.58494e-26 0 5e-05 1.46608e-10 
104 1 0.275609 0.0179817 0.00718661 0.005934 -0.000294186 0.000312999 -5.15446e-12 9.42085e-11 -9.44842e-12 5e-05 1.46608e-10 
105 1 0.27489 0.0158424 0.00844601 0.00562 -0.000419579 4.94281e-05 1.25389e-11 -3.67639e-10 3.8235e-10 5e-05 1.46608e-10 
106 1 0.275389 0.0176874 0.00731682 0.00597721 -0.000331339 0.000315117 3.75136e-11 -2.3795e-11 1.22836e-10 5e-05 1.46608e-10 
107 1 0.274732 0.0156239 0.00868625 0.00582892 -0.000458831 7.62293e-05 -1.82727e-11 -3.52993e-11 4.47686e-11 5e-05 1.46608e-10 
108 1 0.281614 0.0179746 0.00700472 0.00574135 3.77838e-05 -0.000147037 1.47991e-11 5.68061e-11 -2.08396e-11 5e-05 1.46608e-10 
109 1 0.281669 0.0178197 0.00706113 0.0058106 0.000187966 -0.000202688 -6.75258e-11 2.61402e-11 7.42485e-12 5e-05 1.46608e-10 
110 1 0.281134 0.0170595 0.00734365 0.00621175 0.000139711 0.000140806 1.14375e-10 5.26585e-12 -8.59565e-12 5e-05 1.46608e-10 
111 1 0.281093 0.0168759 0.00741173 0.0060688 0.000168165 0.000123321 -4.28413e-11 -1.2656e-10 -3.89661e-11 5e-05 1.46608e-10 
112 1 0.274795 0.015824 0.00847202 0.00566973 -0.000427316 5.25045e-05 -2.45734e-10 -1.62633e-10 1.71468e-10 5e-05 1.46608e-10 
113 1 0.275212 0.0174042 0.00728066 0.0060497 -0.000326325 0.000325032 3.70199e-11 -4.17958e-11 -6.50916e-12 5e-05 1.46608e-10 
114 1 0.275255 0.0175965 0.00724548 0.00600212 -0.000367989 0.000330942 4.61918e-11 3.54364e-11 2.14138e-11 5e-05 1.46608e-10 
115 1 0.281423 0.0171495 0.00731635 0.0061869 1.39379e-05 -0.000152166 -2.80956e-10 2.13464e-10 1.34708e-11 5e-05 1.46608e-10 
116 1 0.281443 0.0180064 0.00699541 0.00573047 0.000191275 0.000108874 2.78494e-11 6.223e-12 -3.50163e-11 5e-05 1.46608e-10 
117 1 0.281435 0.0175777 0.00715665 0.00630425 3.65638e-05 -0.000303689 -8.33624e-11 1.34124e-10 -9.04388e-11 5e-05 1.46608e-10 
118 1 0.275438 0.0172119 0.00732752 0.00598198 -0.00041188 0.000338312 2.72494e-11 9.23273e-12 -3.81022e-11 5e-05 1.46608e-10 
119 1 0.281633 0.0180669 0.00696991 0.0057893 3.24286e-05 -0.00014744 -6.35089e-11 1.3143e-10 -8.32744e-11 5e-05 1.46608e-10 
120 1 0.281129 0.0166309 0.00750549 0.00577322 0.000134263 0.000125256 2.68367e-10 -2.90231e-10 3.74785e-11 5e-05 1.46608e-10 
121 1 0.281446 0.0184464 0.00687331 0.00589647 0.000136367 -7.34984e-05 1.91853e-11 9.83318e-11 1.20368e-10 5e-05 1.46608e-10 
122 1 0.281242 0.0175171 0.00717406 0.00624393 0.000126899 0.00014646 -1.39736e-10 -7.05044e-11 1.8932e-11 5e-05 1.46608e-10 
123 1 0.275704 0.0180131 0.00718466 0.0059271 -0.000269301 0.000308967 -2.17684e-12 7.98521e-11 -2.32142e-11 5e-05 1.46608e-10 
124 1 0.281017 0.016519 0.00757118 0.00572253 9.66826e-05 -0.000122535 4.30909e-10 -4.01576e-10 2.11642e-10 5e-05 1.46608e-10 
125 1 0.281339 0.0175476 0.00716555 0.00624561 0.00012574 0.000146243 -4.57134e-11 2.8606e-11 -5.56637e-12 5e-05 1.46608e-10 
127 1 0.27494 0.0159741 0.00830438 0.00557349 -0.000418987 5.23491e-05 -4.34046e-10 -2.40936e-10 2.76509e-10 5e-05 1.46608e-10 
128 1 0.280959 0.0163217 0.00778938 0.00568719 8.78073e-05 -0.000176129 -6.68744e-11 -1.9632e-10 7.41196e-11 5e-05 1.46608e-10 
129 1 0.28136 0.0178167 0.00715347 0.00629351 8.48302e-05 0.000148654 -5.84554e-11 1.78159e-10 1.694e-12 5e-05 1.46608e-10 
130 1 0.275353 0.01763 0.00724326 0.00599586 -0.000347291 0.000325997 -1.24211e-10 -9.20319e-12 1.84072e-11 5e-05 1.46608e-10 
131 1 0.275375 0.017726 0.00722569 0.0059806 -0.000340595 0.000324142 -4.31619e-11 1.70658e-11 4.28935e-12 5e-05 1.46608e-10 
132 1 0.281326 0.0171193 0.00732702 0.00601192 9.05871e-05 0.000150275 1.7699e-10 4.1051e-12 -2.42258e-11 5e-05 1.46608e-10 
133 1 0.281463 0.0180984 0.00696125 0.00577437 0.000187609 0.00011022 -9.97516e-11 7.92932e-12 -7.50542e-12 5e-05 1.46608e-10 
134 1 0.281424 0.0179142 0.00702964 0.00571864 0.000225248 9.41213e-05 -5.05345e-11 9.02242e-11 -8.44796e-11 5e-05 1.46608e-10 
135 1 0.281574 0.0177901 0.00707434 0.0058029 0.00018672 -0.000199943 -1.98345e-10 1.00447e-10 -1.1777e-11 5e-05 1.46608e-10 
136 1 0.275299 0.0169893 0.00736438 0.00603225 -0.000460738 0.000343117 -1.11261e-10 8.26548e-11 -5.62112e-11 5e-05 1.46608e-10 
137 1 0.281339 0.0177242 0.00718748 0.00627165 0.000100168 0.000146705 -1.87897e-10 2.24595e-10 3.29942e-11 5e-05 1.46608e-10 
138 1 0.281329 0.0178833 0.00703838 0.0062721 0.000119103 0.000147542 -4.56259e-11 -8.72441e-13 -2.24598e-11 5e-05 1.46608e-10 
140 1 0.281199 0.0173341 0.0072419 0.00622873 0.000135409 0.000142321 1.30133e-10 9.21219e-12 -2.55723e-13 5e-05 1.46608e-10 
141 1 0.27514 0.0163973 0.00784641 0.00528473 -0.00047692 0.000134505 8.34569e-10 2.50469e-12 -1.28152e-10 5e-05 1.46608e-10 
142 1 0.275524 0.0175964 0.00725713 0.00594001 -0.000376662 0.000329932 4.09498e-12 2.41301e-10 -4.85966e-11 5e-05 1.46608e-10 
143 1 0.274753 0.0156907 0.00861478 0.00579644 -0.000455337 7.45682e-05 -4.33653e-11 -6.73579e-11 6.88849e-11 5e-05 1.46608e-10 
144 1 0.275481 0.0174042 0.00729229 0.0059656 -0.000384137 0.000332331 -1.46995e-10 -5.60843e-12 -3.6951e-12 5e-05 1.46608e-10 
146 1 0.274835 0.0159578 0.00832883 0.00528722 -0.000384284 3.90448e-05 -1.25109e-10 -3.96271e-10 2.80693e-10 5e-05 1.46608e-10 
147 1 0.275332 0.0175339 0.00726085 0.00600946 -0.000350667 0.000328195 -8.21145e-12 -4.62425e-11 3.56733e-11 5e-05 1.46608e-10 
148 1 0.275159 0.0164644 0.00777473 0.00542075 -0.000486996 0.000132313 4.16516e-10 1.078e-10 -1.77989e-10 5e-05 1.46608e-10 
149 1 0.281053 0.0166931 0.00748253 0.00574204 0.000196028 1.6781e-05 -1.61577e-10 1.6983e-10 2.10969e-10 5e-05 1.46608e-10 
150 1 0.27545 0.018464 0.00708678 0.0058775 -0.00026919 0.000306589 -1.85266e-11 -3.69104e-11 6.07895e-12 5e-05 1.46608e-10 
151 1 0.275459 0.0181105 0.00715529 0.00592552 -0.000305548 0.000315158 -2.90731e-12 2.01503e-11 -9.67232e-12 5e-05 1.46608e-10 
153 1 0.275178 0.0165314 0.00770303 0.00552501 -0.000498889 0.0001376 -8.81935e-10 1.86574e-10 -9.63518e-11 5e-05 1.46608e-10 
154 1 0.274816 0.0158908 0.0084005 0.0056035 -0.000417431 4.81885e-05 2.16511e-11 -3.49375e-10 3.50869e-10 5e-05 1.46608e-10 
155 1 0.274865 0.0160273 0.00826352 0.00535258 -0.000445685 -4.11665e-07 -1.04399e-10 -3.29487e-10 2.38256e-10 5e-05 1.46608e-10 
156 1 0.27512 0.0163303 0.00791805 0.00513936 -0.000464293 0.000129322 1.38883e-10 2.4348e-11 -3.73826e-11 5e-05 1.46608e-10 
157 1 0.0219312 0.0187687 0.00551176 -3.8313e-14 8.16589e-14 2.95892e-13 -6.44296e-22 -3.6763e-22 1.69572e-23 5e-05 1.46608e-10 
158 1 0.275218 0.0166653 0.00755984 0.00550033 -0.000493743 0.00012999 6.72884e-10 2.96164e-11 -1.55083e-10 5e-05 1.46608e-10 
159 1 0.281348 0.0172116 0.00729285 0.00616143 9.13464e-05 0.000159447 -1.00348e-10 -1.35575e-11 -1.31322e-10 5e-05 1.46608e-10 
160 1 0.275342 0.0179812 0.00717509 0.00594847 -0.000336142 0.000324501 9.1238e-11 4.69679e-11 8.90958e-12 5e-05 1.46608e-10 
162 1 0.275454 0.0179756 0.00726414 0.00593723 -0.000340772 0.000313468 -6.49106e-11 -1.40218e-10 -2.54562e-13 5e-05 1.46608e-10 
164 1 0.274912 0.0162248 0.00804332 0.00538476 -0.000417778 6.11901e-05 1.27323e-10 3.88369e-11 -1.60154e-11 5e-05 1.46608e-10 
165 1 0.275563 0.0181506 0.00715204 0.00592181 -0.000268745 0.00030863 -2.53901e-11 -5.55654e-11 9.50979e-12 5e-05 1.46608e-10 
166 1 0.281349 0.0179751 0.00700431 0.00571377 0.000224905 0.000104191 2.96145e-11 1.44126e-10 -4.98425e-11 5e-05 1.46608e-10 
167 1 0.275407 0.0182719 0.00712192 0.00590787 -0.000291682 0.000312734 -2.90388e-12 -2.44196e-11 9.24771e-13 5e-05 1.46608e-10 
168 1 0.275525 0.0183996 0.00710243 0.00587973 -0.00026295 0.000305523 -2.96897e-11 -5.94511e-11 9.54487e-12 5e-05 1.46608e-10 
169 1 0.275428 0.0183679 0.00710435 0.00589495 -0.000278813 0.000309345 -1.67074e-12 -3.48982e-12 6.28312e-13 5e-05 1.46608e-10 
170 1 0.275503 0.0183036 0.00712 0.0059002 -0.000270159 0.000308489 -7.09088e-11 -2.89742e-11 1.16623e-11 5e-05 1.46608e-10 
171 1 0.281516 0.018377 0.00685912 0.00588344 8.59634e-05 -7.06498e-05 -2.24215e-10 2.64361e-11 -3.55336e-11 5e-05 1.46608e-10 
172 1 0.27519 0.017308 0.00729825 0.00604803 -0.000402405 0.000339694 -4.8538e-11 -2.17035e-10 3.91414e-11 5e-05 1.46608e-10 
173 1 0.281558 0.0181294 0.00694878 0.00584423 9.51421e-05 -0.000200832 -1.13738e-10 2.64306e-11 -3.71414e-10 5e-05 1.46608e-10 
174 1 0.27495 0.0163588 0.00789998 0.00539923 -0.000413811 5.5402e-05 3.10785e-10 -1.06766e-11 -1.74098e-13 5e-05 1.46608e-10 
176 1 0.275247 0.0171495 0.00733158 0.00605832 -0.000383126 0.000303777 -2.01281e-10 -2.22043e-10 4.0595e-11 5e-05 1.46608e-10 
177 1 0.274959 0.0160412 0.00823269 0.00556444 -0.000420123 5.32949e-05 -8.33593e-11 -2.61246e-10 2.83637e-10 5e-05 1.46608e-10 
178 1 0.275271 0.0175581 0.00733647 0.00602434 -0.000343797 0.000335178 8.00446e-11 1.15374e-10 8.38204e-11 5e-05 1.46608e-10 
179 1 0.275378 0.0180392 0.00724874 0.00596327 -0.000308508 0.000324186 1.17598e-11 -3.31453e-11 1.69752e-11 5e-05 1.46608e-10 
182 1 0.281466 0.0185442 0.00687789 0.00589526 0.000123281 -5.59292e-05 1.47798e-10 2.52231e-10 1.87995e-11 5e-05 1.46608e-10 
183 1 0.275335 0.017847 0.00728386 0.00595818 -0.000343959 0.000315894 -6.78645e-11 -4.50102e-11 1.87405e-10 5e-05 1.46608e-10 
184 1 0.281403 0.0181372 0.00703193 0.00578717 0.000163698 0.00010438 -6.91862e-11 2.90482e-11 -2.60698e-11 5e-05 1.46608e-10 
185 1 0.275502 0.0175003 0.0072747 0.00596217 -0.000379425 0.000331863 -4.31838e-11 1.03578e-10 -2.80595e-11 5e-05 1.46608e-10 
186 1 0.275799 0.0180439 0.00718284 0.00591523 -0.000242971 0.000303168 -4.79309e-12 6.87902e-11 -8.24429e-12 5e-05 1.46608e-10 
187 1 0.281482 0.0181904 0.00692706 0.00581265 0.000181699 0.000103127 -1.71069e-10 -5.58834e-11 8.4728e-11 5e-05 1.46608e-10 
188 1 0.281317 0.0174561 0.00719947 0.00623501 0.000127203 0.000146299 -3.02785e-11 7.95222e-11 -3.00239e-11 5e-05 1.46608e-10 
189 1 0.281426 0.0183503 0.00689231 0.00586615 0.000151114 -8.47397e-05 -5.01663e-11 -6.98651e-11 2.76378e-11 5e-05 1.46608e-10 
190 1 0.269418 0.0183092 0.00694646 0.00577265 -0.000174806 0.000186002 1.11231e-10 6.01721e-11 6.5829e-12 5e-05 1.46608e-10 
191 1 0.281073 0.0167841 0.00744585 0.00586635 0.000203686 9.32594e-05 -1.37469e-11 -4.59397e-11 -2.72143e-11 5e-05 1.46608e-10 
192 1 0.275234 0.0175003 0.00726308 0.00602798 -0.000355933 0.000330345 4.54922e-11 -2.54057e-11 -1.84005e-12 5e-05 1.46608e-10 
193 1 0.281541 0.0184778 0.00686978 0.00589619 0.000126907 -6.02882e-05 7.53271e-11 3.98212e-11 -4.41499e-11 5e-05 1.46608e-10 
194 1 0.275432 0.0178795 0.00728181 0.00594614 -0.000337308 0.000320391 1.74492e-10 2.88924e-11 4.3586e-11 5e-05 1.46608e-10 
195 1 0.275439 0.0180142 0.00717297 0.00594528 -0.000316591 0.000317956 4.84456e-11 6.01073e-12 8.47742e-12 5e-05 1.46608e-10 
196 1 0.275471 0.0177577 0.00722378 0.00595067 -0.00033614 0.000322545 2.72084e-11 -6.15591e-11 9.84088e-12 5e-05 1.46608e-10 
197 1 0.269085 0.0168681 0.00748375 0.0060272 -0.000293681 -1.65452e-05 -4.80621e-11 2.5778e-11 -1.54014e-11 5e-05 1.46608e-10 
198 1 0.275372 0.0169233 0.00738027 0.00577888 -0.000715392 0.000384443 -3.16116e-10 -6.61551e-12 6.94892e-11 5e-05 1.46608e-10 
199 1 0.275357 0.017943 0.00726626 0.00594522 -0.000338164 0.00032709 1.05884e-10 -1.06741e-10 -3.79975e-12 5e-05 1.46608e-10 
200 1 0.274779 0.0157564 0.00854401 0.0057297 -0.000440258 6.33585e-05 1.32903e-11 -1.06915e-10 9.94181e-11 5e-05 1.46608e-10 
201 1 0.275534 0.0180464 0.0071709 0.00594148 -0.000286246 0.000312073 -1.93645e-11 9.31326e-12 -5.36833e-12 5e-05 1.46608e-10 
202 1 0.275238 0.0167326 0.00748878 0.0057115 -0.000484977 0.000154469 1.02385e-10 2.61558e-10 -1.80758e-10 5e-05 1.46608e-10 
203 1 0.281404 0.0178222 0.00706379 0.00627476 0.000129783 0.000144811 -5.7472e-11 1.13188e-10 -5.89831e-11 5e-05 1.46608e-10 
204 1 0.275567 0.0177885 0.00722198 0.00588389 -0.000405195 0.000332423 4.83213e-11 -1.10725e-11 -5.87839e-12 5e-05 1.46608e-10 
205 1 0.275083 0.016512 0.00773003 0.00550932 -0.000407148 4.41349e-05 2.66307e-10 2.74812e-10 -3.16368e-10 5e-05 1.46608e-10 
206 1 0.275122 0.016646 0.00758671 0.00569247 -0.000415702 6.41563e-05 -7.63608e-11 -4.38342e-11 -1.14097e-10 5e-05 1.46608e-10 
207 1 0.275007 0.0162437 0.00801678 0.00544278 -0.000402385 4.2602e-05 2.98119e-10 -6.84425e-11 5.92186e-11 5e-05 1.46608e-10 
208 1 0.27541 0.0171175 0.00734448 0.00601411 -0.000427939 0.000342401 1.79107e-10 3.91611e-11 -6.83402e-11 5e-05 1.46608e-10 
209 1 0.27534 0.0171883 0.00735246 0.00605348 -0.000382303 0.000280718 7.6107e-11 -7.77131e-11 6.82442e-11 5e-05 1.46608e-10 
210 1 0.281168 0.0168148 0.0074372 0.0060194 9.48663e-05 0.000148686 3.01547e-10 -2.09048e-10 2.20028e-10 5e-05 1.46608e-10 
211 1 0.281188 0.0169066 0.00740309 0.00613976 8.38659e-05 0.000157068 4.46269e-11 -1.95139e-10 3.21707e-11 5e-05 1.46608e-10 
212 1 0.275629 0.018078 0.00716892 0.00593468 -0.000256186 0.000306537 -8.74285e-12 1.17543e-12 -3.04105e-12 5e-05 1.46608e-10 
213 1 0.281406 0.0182555 0.0069176 0.00583599 0.000194628 1.31166e-05 -9.92712e-11 -1.4671e-10 1.60421e-10 5e-05 1.46608e-10 
214 1 0.281274 0.017273 0.00726731 0.00620139 0.000123137 0.000146499 9.50394e-11 -6.61443e-11 5.96913e-11 5e-05 1.46608e-10 
215 1 0.269317 0.0178245 0.00701571 0.00566531 -0.000164197 0.000178784 -3.58028e-11 4.3987e-12 -1.49426e-11 5e-05 1.46608e-10 
216 1 0.274989 0.0161765 0.00808856 0.00551256 -0.000412961 5.01968e-05 3.50405e-10 -1.54926e-10 1.17459e-10 5e-05 1.46608e-10 
217 1 0.281487 0.0186415 0.00688822 0.00561621 0.000174783 -4.80653e-05 -1.68054e-11 1.60401e-10 3.21899e-11 5e-05 1.46608e-10 
218 1 0.275277 0.017693 0.00722783 0.00598947 -0.000361957 0.000329613 -1.60164e-11 9.29994e-11 -1.8423e-11 5e-05 1.46608e-10 
219 1 0.281034 0.0166011 0.00751692 0.00574644 0.000157332 -4.87876e-05 2.42578e-10 -7.48453e-11 3.07299e-11 5e-05 1.46608e-10 
220 1 0.275396 0.0178221 0.00720812 0.00595986 -0.000332853 0.000322394 8.95159e-11 1.55415e-11 -8.19744e-12 5e-05 1.46608e-10 
222 1 0.28151 0.0175154 0.00717811 0.00623394 1.89053e-05 -0.000148467 -1.48418e-10 -2.32503e-12 1.23208e-11 5e-05 1.46608e-10 
224 1 0.275162 0.0167806 0.00744426 0.00613815 -0.00050907 5.84459e-05 5.63094e-10 1.17218e-10 3.54354e-10 5e-05 1.46608e-10 
225 1 0.281113 0.0169677 0.00737767 0.00618335 0.000141563 0.000139717 1.0171e-10 -5.49313e-11 2.40307e-11 5e-05 1.46608e-10 
226 1 0.275367 0.0175914 0.00733441 0.00598764 -0.000331815 0.000326433 6.35571e-12 -8.77684e-11 1.16763e-10 5e-05 1.46608e-10 
227 1 0.269337 0.0179214 0.00700182 0.00568468 -0.000163374 0.000181521 -2.29334e-11 -6.25026e-11 -4.2359e-13 5e-05 1.46608e-10 
228 1 0.269278 0.0176312 0.00704933 0.00592125 -0.000233908 7.10485e-05 -3.79322e-11 5.48221e-11 -2.59033e-11 5e-05 1.46608e-10 
229 1 0.27566 0.0181831 0.00715 0.00590363 -0.000257668 0.000305499 1.83873e-11 1.00034e-10 -1.66383e-11 5e-05 1.46608e-10 
230 1 0.275066 0.0167626 0.00746822 0.00561683 -0.000242193 -0.000139102 2.69572e-10 3.16333e-10 -3.40277e-10 5e-05 1.46608e-10 
232 1 0.275474 0.0180722 0.00724645 0.00593702 -0.000299359 0.00031125 1.33911e-11 -3.10218e-13 1.15495e-11 5e-05 1.46608e-10 
233 1 0.275385 0.0181758 0.0071395 0.0059202 -0.000306841 0.000315664 -1.25797e-11 -2.49744e-11 -6.6244e-13 5e-05 1.46608e-10 
234 1 0.281458 0.0178471 0.00714381 0.006313 0.000608275 -3.16155e-05 8.4776e-12 3.61869e-11 -1.17324e-10 5e-05 1.46608e-10 
235 1 0.275027 0.0166273 0.00761291 0.0055691 -0.000269066 -0.000100034 -1.42986e-10 5.25645e-10 -6.50993e-10 5e-05 1.46608e-10 
236 1 0.275126 0.0170199 0.00735097 0.00609047 -0.000428181 0.000363611 -1.96547e-10 -5.4929e-10 2.16094e-10 5e-05 1.46608e-10 
237 1 0.275147 0.0171159 0.00733348 0.00607003 -0.000448396 0.000349646 -1.69053e-10 -4.06563e-10 3.46726e-10 5e-05 1.46608e-10 
239 1 0.268983 0.0164463 0.00773196 0.00557454 -0.000207739 -5.24996e-05 -1.84719e-12 7.31116e-12 -4.63279e-12 5e-05 1.46608e-10 
240 1 0.269043 0.0166997 0.00758292 0.00579232 -0.000250774 -3.40951e-05 2.59955e-11 5.80053e-12 -2.03217e-12 5e-05 1.46608e-10 
241 1 0.268964 0.0163618 0.00778167 0.00558612 -0.000208435 -5.24212e-05 -4.69012e-12 -2.12628e-11 1.24251e-11 5e-05 1.46608e-10 
242 1 0.275294 0.0166179 0.0076043 0.00532126 -0.000659882 0.000337337 1.52824e-09 1.76283e-10 -4.5758e-10 5e-05 1.46608e-10 
243 1 0.275449 0.0176616 0.00724135 0.00597568 -0.000341823 0.000323178 -9.5078e-11 2.57313e-11 -1.29768e-11 5e-05 1.46608e-10 
244 1 0.269003 0.0165309 0.00768225 0.00556469 -0.00020569 -5.34943e-05 -8.09157e-12 2.38616e-11 -1.37503e-11 5e-05 1.46608e-10 
246 1 0.269194 0.0172886 0.00723613 0.00616097 -0.000317377 -6.79892e-06 -1.7112e-10 1.08327e-10 -5.56567e-11 5e-05 1.46608e-10 
247 1 0.274969 0.0164259 0.00782831 0.00540154 -0.000380758 2.28108e-05 6.46703e-11 -1.62184e-11 1.57408e-11 5e-05 1.46608e-10 
248 1 0.275289 0.0173418 0.007296 0.00604058 -0.000353541 0.000324083 -6.5858e-12 -1.21739e-10 1.07201e-11 5e-05 1.46608e-10 
249 1 0.269129 0.0170364 0.00738467 0.00609795 -0.000305542 -1.17689e-05 -1.60674e-11 -4.03415e-12 3.28165e-12 5e-05 1.46608e-10 
250 1 0.275045 0.016378 0.00787335 0.00535426 -0.000385955 3.20335e-05 1.11114e-10 1.05207e-10 -1.46781e-10 5e-05 1.46608e-10 
251 1 0.281382 0.0177307 0.00709771 0.00624554 0.000124004 0.000140655 -1.73837e-10 2.01716e-11 -1.25249e-11 5e-05 1.46608e-10 
252 1 0.269213 0.0173733 0.00718635 0.00621826 -0.000325921 -3.3129e-06 -1.03657e-10 8.80427e-11 -5.00283e-11 5e-05 1.46608e-10 
253 1 0.269397 0.0182123 0.0069603 0.00575589 -0.000164601 0.000184569 -1.62011e-10 1.96544e-11 -8.71665e-12 5e-05 1.46608e-10 
254 1 0.269149 0.0171208 0.00733503 0.00612762 -0.00031183 -9.17322e-06 5.03518e-11 1.48467e-11 -4.55962e-12 5e-05 1.46608e-10 
255 1 0.27469 0.0154905 0.00882919 0.00590219 -0.00046792 8.05615e-05 3.32118e-11 7.22604e-11 -8.47924e-11 5e-05 1.46608e-10 
256 1 0.275588 0.0178846 0.0072044 0.00589619 -0.000375089 0.00032805 8.44411e-12 1.49706e-11 -7.3284e-13 5e-05 1.46608e-10 
257 1 0.275198 0.0165984 0.0076314 0.00554216 -0.000503229 0.000138897 -7.11777e-10 3.10943e-10 -1.93798e-10 5e-05 1.46608e-10 
258 1 0.275268 0.0172456 0.00731365 0.00604959 -0.000367499 0.000304926 -1.9232e-10 -1.44165e-10 -5.82007e-11 5e-05 1.46608e-10 
259 1 0.269238 0.0174566 0.00713719 0.00626508 -0.000339283 2.54576e-06 2.78096e-11 5.56889e-11 -4.42243e-11 5e-05 1.46608e-10 