ITEM: TIMESTEP
71800000
ITEM: NUMBER OF ATOMS
267
ITEM: BOX BOUNDS ff ff ff
-0.02 0.43
-0.02 0.06
-0.02 0.07
ITEM: ATOMS id type x y z vx vy vz fx fy fz radius mass 
1 1 0.383991 0.018743 5.17586e-05 7.86792e-19 1.99867e-21 -5.98258e-16 0 -1.29247e-26 0 5e-05 1.46608e-10 
2 1 0.384819 0.0170553 5.28427e-05 -9.20521e-19 1.92824e-21 7.02844e-16 0 -4.93874e-26 0 5e-05 1.46608e-10 
4 1 0.384087 0.0172099 5.18841e-05 -5.17901e-20 4.52163e-21 2.74121e-17 2.58494e-26 2.58494e-26 0 5e-05 1.46608e-10 
6 1 0.38485 0.0177728 5.2884e-05 4.86187e-19 -7.59098e-22 -3.71582e-16 0 0 0 5e-05 1.46608e-10 
7 1 0.384289 0.0192285 5.21489e-05 2.81059e-18 9.4276e-22 -2.14593e-15 0 7.32641e-27 0 5e-05 1.46608e-10 
8 1 0.384427 0.0170974 5.23295e-05 2.24032e-18 1.1015e-21 -1.71051e-15 0 1.72079e-26 0 5e-05 1.46608e-10 
9 1 0.383731 0.0178959 5.14179e-05 2.24037e-18 1.04131e-21 -1.71052e-15 0 -3.00702e-26 0 5e-05 1.46608e-10 
10 1 0.384909 0.0174916 5.29614e-05 1.79761e-18 3.32957e-21 -1.37249e-15 0 -1.93477e-26 0 5e-05 1.46608e-10 
11 1 0.383705 0.0185838 5.13839e-05 2.81056e-18 3.57905e-21 -2.14593e-15 0 7.28429e-26 0 5e-05 1.46608e-10 
12 1 0.384274 0.0169453 5.213e-05 2.24033e-18 2.11405e-21 -1.71052e-15 0 2.58189e-27 0 5e-05 1.46608e-10 
13 1 0.384609 0.0178943 5.25685e-05 -5.41366e-12 2.53474e-12 -3.00922e-12 6.94829e-17 1.86733e-18 -1.39265e-16 5e-05 1.46608e-10 
14 1 0.383937 0.0189513 8.69758e-05 5.35495e-19 -8.70113e-22 -4.06398e-16 0 0 2.06795e-25 5e-05 1.46608e-10 
16 1 0.384166 0.0169334 5.1988e-05 2.24034e-18 -1.09639e-22 -1.71052e-15 0 -1.85697e-27 0 5e-05 1.46608e-10 
17 1 0.384566 0.0170745 5.25117e-05 2.24037e-18 3.69262e-22 -1.71052e-15 0 -2.05639e-27 0 5e-05 1.46608e-10 
19 1 0.384704 0.0183371 5.2693e-05 1.79763e-18 2.23058e-20 -1.37251e-15 0 6.11617e-25 0 5e-05 1.46608e-10 
21 1 0.384375 0.0179486 5.22621e-05 1.9862e-12 1.6535e-12 1.27626e-13 8.89883e-18 -9.28378e-18 -3.39346e-18 5e-05 1.46608e-10 
22 1 0.385006 0.0203197 5.3088e-05 8.71356e-19 -8.36132e-21 -6.65298e-16 0 1.98373e-25 0 5e-05 1.46608e-10 
23 1 0.38429 0.0178938 5.21501e-05 -9.43945e-13 -5.86201e-14 -4.22635e-15 -5.02364e-18 2.87409e-18 -4.29289e-18 5e-05 1.46608e-10 
24 1 0.384317 0.0180308 5.21862e-05 5.09404e-15 -1.56605e-14 9.59534e-15 -1.34145e-18 1.50494e-18 -3.84671e-19 5e-05 1.46608e-10 
25 1 0.384369 0.0166304 5.22533e-05 2.24034e-18 -3.48481e-21 -1.71051e-15 0 5.9789e-26 0 5e-05 1.46608e-10 
26 1 0.383765 0.0178016 5.14632e-05 2.24036e-18 1.16404e-22 -1.71051e-15 0 -2.14942e-27 0 5e-05 1.46608e-10 
27 1 0.384682 0.0173846 0.000130728 -1.2075e-19 -1.26791e-20 9.01971e-17 -2.58494e-26 0 0 5e-05 1.46608e-10 
28 1 0.38392 0.0176635 5.16661e-05 2.24031e-18 3.74367e-22 -1.71052e-15 0 5.9795e-27 0 5e-05 1.46608e-10 
29 1 0.384334 0.0168628 5.2208e-05 2.24035e-18 4.14929e-21 -1.71052e-15 0 -1.41495e-27 0 5e-05 1.46608e-10 
30 1 0.38458 0.0173478 5.25303e-05 -1.1742e-19 1.97909e-21 9.01907e-17 0 0 0 5e-05 1.46608e-10 
31 1 0.384267 0.018175 5.21197e-05 1.63123e-20 -8.89218e-22 -7.47559e-18 0 0 0 5e-05 1.46608e-10 
32 1 0.384809 0.0175939 5.28295e-05 1.0456e-19 4.30396e-21 -7.99245e-17 0 0 0 5e-05 1.46608e-10 
33 1 0.384554 0.0172495 5.24957e-05 2.24036e-18 1.19585e-22 -1.71052e-15 0 1.66309e-27 0 5e-05 1.46608e-10 
34 1 0.38474 0.0177115 5.27396e-05 1.05791e-19 2.74046e-21 -7.99197e-17 0 0 0 5e-05 1.46608e-10 
35 1 0.383862 0.0177748 5.15892e-05 -2.16634e-19 -2.89474e-21 1.69475e-16 2.58494e-26 0 0 5e-05 1.46608e-10 
36 1 0.383928 0.0185154 5.16766e-05 -3.50221e-19 -3.27785e-22 2.67381e-16 0 -1.54103e-26 0 5e-05 1.46608e-10 
37 1 0.384806 0.0179346 5.28267e-05 1.79762e-18 4.84106e-23 -1.37251e-15 0 2.80267e-25 0 5e-05 1.46608e-10 
38 1 0.384295 0.0179641 0.000123125 -1.31714e-13 -1.24928e-14 5.10524e-14 -1.3866e-18 -2.68981e-20 -1.31709e-18 5e-05 1.46608e-10 
39 1 0.383664 0.0197976 5.13305e-05 -3.50169e-19 8.26249e-23 2.67381e-16 0 2.09667e-27 0 5e-05 1.46608e-10 
42 1 0.38332 0.0192284 0.00522714 1.28259e-16 6.31939e-20 3.78515e-14 0 3.34308e-25 0 5e-05 1.46608e-10 
44 1 0.384012 0.018459 5.17866e-05 1.79759e-18 8.00141e-23 -1.37251e-15 0 4.95912e-28 0 5e-05 1.46608e-10 
45 1 0.384188 0.017154 5.20161e-05 -3.72681e-20 3.77547e-22 2.74275e-17 0 -9.69352e-27 0 5e-05 1.46608e-10 
47 1 0.39343 0.016776 0.00834273 -0.000341873 -0.0136614 0.010392 -6.52836e-12 1.29092e-10 -6.95814e-11 5e-05 1.46608e-10 
48 1 0.383611 0.0181742 5.1261e-05 -8.00765e-19 -3.95138e-22 6.08849e-16 0 0 0 5e-05 1.46608e-10 
49 1 0.384194 0.0185569 5.20241e-05 1.7976e-18 -1.73685e-21 -1.37251e-15 0 2.49582e-26 0 5e-05 1.46608e-10 
50 1 0.384353 0.0181246 5.22331e-05 1.79756e-18 -4.10144e-23 -1.37249e-15 0 1.15474e-26 0 5e-05 1.46608e-10 
51 1 0.383985 0.019032 5.17502e-05 5.35607e-19 -1.5182e-22 -4.06396e-16 0 0 0 5e-05 1.46608e-10 
52 1 0.38427 0.0217777 5.21238e-05 2.00505e-18 3.10055e-22 -1.5309e-15 0 -1.24209e-26 0 5e-05 1.46608e-10 
53 1 0.3849 0.0167228 5.29491e-05 2.24035e-18 8.91257e-21 -1.71052e-15 0 1.8978e-25 0 5e-05 1.46608e-10 
54 1 0.384094 0.0196551 5.18938e-05 2.81059e-18 -8.40926e-23 -2.14593e-15 -4.03897e-28 -2.93926e-27 0 5e-05 1.46608e-10 
55 1 0.383596 0.0188939 5.12421e-05 2.81054e-18 -7.11222e-22 -2.14593e-15 0 -7.61951e-27 0 5e-05 1.46608e-10 
56 1 0.384074 0.0171039 5.18678e-05 -3.15351e-20 7.69307e-22 2.74597e-17 0 2.58494e-26 0 5e-05 1.46608e-10 
57 1 0.38361 0.0192266 5.12599e-05 -3.50204e-19 2.36307e-21 2.67381e-16 4.03897e-28 -2.86228e-26 0 5e-05 1.46608e-10 
59 1 0.378022 0.019866 0.005332 -5.01965e-15 -7.41206e-15 7.69802e-14 -6.61744e-24 6.82424e-24 2.06795e-25 5e-05 1.46608e-10 
60 1 0.384997 0.0170277 5.3077e-05 2.24036e-18 5.79212e-21 -1.71052e-15 0 6.76969e-26 0 5e-05 1.46608e-10 
62 1 0.384469 0.0166233 5.23854e-05 2.24035e-18 -1.18399e-22 -1.71052e-15 0 -5.92184e-26 0 5e-05 1.46608e-10 
63 1 0.385119 0.0166834 5.32362e-05 2.24036e-18 2.66757e-21 -1.71052e-15 0 -1.70338e-25 0 5e-05 1.46608e-10 
64 1 0.383572 0.0182666 5.12106e-05 1.79759e-18 8.82702e-23 -1.37249e-15 0 -1.36473e-27 0 5e-05 1.46608e-10 
65 1 0.38415 0.0174668 5.19668e-05 2.24035e-18 1.01943e-20 -1.71052e-15 0 2.22892e-25 0 5e-05 1.46608e-10 
66 1 0.384314 0.0196963 5.21813e-05 -3.50216e-19 -6.21877e-21 2.67381e-16 0 -1.68007e-25 0 5e-05 1.46608e-10 
67 1 0.38401 0.0186182 5.17838e-05 -3.50186e-19 2.84727e-21 2.67382e-16 0 2.17983e-26 0 5e-05 1.46608e-10 
68 1 0.384443 0.0179216 0.000120816 1.063e-12 -1.33104e-11 -1.10071e-12 2.08774e-17 -5.8231e-18 2.01888e-17 5e-05 1.46608e-10 
69 1 0.383601 0.0187724 5.12477e-05 2.81059e-18 -1.90756e-21 -2.14593e-15 0 1.6107e-26 0 5e-05 1.46608e-10 
70 1 0.383695 0.0199014 5.13714e-05 -3.50199e-19 -3.3835e-21 2.67381e-16 4.03897e-28 2.78012e-27 0 5e-05 1.46608e-10 
71 1 0.383708 0.0192011 5.13883e-05 2.8106e-18 5.34462e-22 -2.14593e-15 0 -1.65377e-26 0 5e-05 1.46608e-10 
72 1 0.383848 0.0178769 5.15715e-05 -2.18029e-19 -2.72959e-22 1.69475e-16 5.16988e-26 -2.58494e-26 0 5e-05 1.46608e-10 
73 1 0.384751 0.0204726 5.27548e-05 2.00507e-18 -5.28899e-23 -1.5309e-15 0 9.32285e-27 0 5e-05 1.46608e-10 
74 1 0.384789 0.0203241 5.2804e-05 8.71388e-19 -6.1358e-21 -6.65298e-16 0 -5.66822e-27 0 5e-05 1.46608e-10 
76 1 0.384148 0.0172907 5.19645e-05 2.24036e-18 -3.85833e-22 -1.71052e-15 0 -4.87948e-27 0 5e-05 1.46608e-10 
77 1 0.384899 0.0180553 5.29479e-05 1.79759e-18 5.44015e-22 -1.37249e-15 0 1.37086e-27 0 5e-05 1.46608e-10 
78 1 0.384454 0.0177342 5.23646e-05 2.24033e-18 -9.95536e-22 -1.71052e-15 0 9.87428e-27 0 5e-05 1.46608e-10 
79 1 0.384159 0.0206443 5.19783e-05 2.00508e-18 -1.16087e-20 -1.5309e-15 0 -3.95343e-26 0 5e-05 1.46608e-10 
80 1 0.383985 0.017428 5.1751e-05 2.24031e-18 8.69211e-22 -1.71051e-15 0 -1.26947e-26 0 5e-05 1.46608e-10 
82 1 0.384471 0.0161368 5.23876e-05 2.24036e-18 -2.56013e-21 -1.71051e-15 4.03897e-28 -7.77079e-26 0 5e-05 1.46608e-10 
83 1 0.384894 0.0205458 5.29418e-05 2.00504e-18 4.14658e-22 -1.5309e-15 0 -1.76178e-26 0 5e-05 1.46608e-10 
84 1 0.383993 0.0188764 5.17615e-05 5.32343e-19 -6.61987e-21 -4.06404e-16 0 0 0 5e-05 1.46608e-10 
85 1 0.383849 0.0193448 5.15725e-05 1.03568e-19 -3.96662e-22 -8.03914e-17 0 0 0 5e-05 1.46608e-10 
86 1 0.383935 0.0179283 5.16858e-05 -9.20566e-19 -5.05433e-22 7.02843e-16 0 5.64375e-27 0 5e-05 1.46608e-10 
87 1 0.384931 0.0175954 5.29902e-05 1.79757e-18 3.0268e-21 -1.37249e-15 0 2.53699e-26 0 5e-05 1.46608e-10 
88 1 0.383272 0.0191349 0.0052273 1.28258e-16 -3.95334e-21 3.78515e-14 0 -8.70365e-27 0 5e-05 1.46608e-10 
89 1 0.38382 0.0176837 5.15355e-05 2.24033e-18 1.08944e-21 -1.71051e-15 0 4.1558e-26 0 5e-05 1.46608e-10 
90 1 0.384046 0.0179367 5.18308e-05 2.24036e-18 -7.29573e-23 -1.71052e-15 0 -1.33515e-26 0 5e-05 1.46608e-10 
91 1 0.384723 0.0172283 5.27177e-05 2.24035e-18 1.93802e-22 -1.71052e-15 0 -1.26262e-27 0 5e-05 1.46608e-10 
92 1 0.384191 0.017054 5.20202e-05 -9.20551e-19 -1.96773e-22 7.02843e-16 0 6.63778e-27 0 5e-05 1.46608e-10 
93 1 0.383736 0.0207666 5.1425e-05 -1.15573e-18 4.58403e-21 8.82406e-16 4.03897e-28 -4.63442e-26 0 5e-05 1.46608e-10 
94 1 0.383683 0.0188356 5.13558e-05 -3.50189e-19 8.8464e-21 2.67383e-16 0 6.78166e-26 0 5e-05 1.46608e-10 
95 1 0.384606 0.0176837 5.25637e-05 4.88929e-19 -1.68162e-22 -3.71581e-16 -2.58494e-26 -5.16988e-26 0 5e-05 1.46608e-10 
96 1 0.38444 0.0183063 5.23472e-05 1.79759e-18 -2.32344e-23 -1.37251e-15 0 3.95686e-28 0 5e-05 1.46608e-10 
98 1 0.383724 0.0194164 5.14094e-05 -3.5019e-19 3.30899e-21 2.67382e-16 0 -2.5668e-26 0 5e-05 1.46608e-10 
99 1 0.384303 0.0183686 5.21674e-05 1.79761e-18 5.67117e-21 -1.37249e-15 0 -1.35387e-25 0 5e-05 1.46608e-10 
100 1 0.384848 0.0173718 5.28812e-05 2.24035e-18 1.82252e-21 -1.71052e-15 0 3.41778e-26 0 5e-05 1.46608e-10 
101 1 0.384322 0.0214999 5.21918e-05 2.00508e-18 -2.54144e-22 -1.5309e-15 -4.03897e-28 7.88596e-26 0 5e-05 1.46608e-10 
102 1 0.0643568 0.0187248 0.00531097 4.10198e-15 1.05694e-14 8.29595e-14 -1.43383e-21 1.04364e-21 -7.23783e-23 5e-05 1.46608e-10 
103 1 0.24257 0.0191927 0.00520306 9.00258e-24 -1.27651e-22 1.23839e-22 0 0 0 5e-05 1.46608e-10 
104 1 0.384443 0.0190455 5.23502e-05 -3.50221e-19 9.39368e-22 2.67381e-16 0 -4.55813e-27 0 5e-05 1.46608e-10 
105 1 0.384764 0.0176468 0.000125094 1.06193e-19 6.65864e-21 -7.99311e-17 3.87741e-26 0 0 5e-05 1.46608e-10 
106 1 0.383893 0.0187182 5.16305e-05 7.79813e-19 3.00793e-21 -5.98255e-16 0 0 0 5e-05 1.46608e-10 
107 1 0.385147 0.0177812 0.000122873 -8.24881e-21 -3.69163e-21 -2.81824e-21 0 1.29247e-26 0 5e-05 1.46608e-10 
108 1 0.383662 0.0180867 5.13271e-05 -7.98141e-19 3.64882e-21 6.0885e-16 0 0 0 5e-05 1.46608e-10 
109 1 0.384177 0.0192838 5.20024e-05 2.81059e-18 3.44163e-21 -2.14593e-15 0 -1.94409e-25 0 5e-05 1.46608e-10 
110 1 0.384493 0.0193015 5.24162e-05 2.81059e-18 -1.55623e-22 -2.14593e-15 0 9.03347e-28 0 5e-05 1.46608e-10 
111 1 0.384709 0.0176058 5.26985e-05 1.03993e-19 -1.84979e-21 -7.99326e-17 0 -4.84676e-27 0 5e-05 1.46608e-10 
112 1 0.384647 0.0185896 5.26184e-05 1.79759e-18 -6.14972e-21 -1.37251e-15 0 -1.40274e-25 0 5e-05 1.46608e-10 
113 1 0.383921 0.0178347 0.00010527 -2.26647e-19 8.92335e-21 1.69473e-16 -1.03398e-25 4.52364e-26 0 5e-05 1.46608e-10 
114 1 0.384105 0.0183256 5.19082e-05 1.79756e-18 -3.11392e-21 -1.37249e-15 0 -1.1818e-25 0 5e-05 1.46608e-10 
115 1 0.38367 0.0183173 5.13384e-05 1.79761e-18 -2.30414e-22 -1.37251e-15 0 -1.20847e-26 0 5e-05 1.46608e-10 
116 1 0.383786 0.0180677 5.14897e-05 2.24031e-18 1.14976e-21 -1.71052e-15 0 1.30094e-26 0 5e-05 1.46608e-10 
117 1 0.384446 0.0168712 5.23543e-05 -9.48042e-19 1.08827e-20 7.02811e-16 2.7465e-26 -1.61559e-26 0 5e-05 1.46608e-10 
118 1 0.383701 0.0187017 5.13793e-05 -3.50189e-19 -1.61998e-22 2.67381e-16 0 4.15121e-27 0 5e-05 1.46608e-10 
119 1 0.383906 0.018619 5.16476e-05 7.84298e-19 4.53956e-22 -5.98253e-16 0 0 0 5e-05 1.46608e-10 
120 1 0.384144 0.01791 5.19592e-05 -2.52685e-14 8.92359e-15 4.21804e-15 1.17341e-19 -1.88729e-19 -1.76295e-19 5e-05 1.46608e-10 
121 1 0.384817 0.0185465 5.28405e-05 1.7976e-18 5.09592e-21 -1.37251e-15 0 1.46983e-25 0 5e-05 1.46608e-10 
122 1 0.384225 0.0179695 5.20647e-05 8.85716e-14 7.99423e-14 -2.53933e-14 -6.14123e-19 -1.52717e-19 -4.66902e-19 5e-05 1.46608e-10 
123 1 0.383933 0.0192279 5.16831e-05 1.05166e-19 1.69293e-21 -8.03881e-17 0 0 0 5e-05 1.46608e-10 
124 1 0.384096 0.0170045 5.18952e-05 1.89588e-21 -8.0796e-21 -4.25507e-19 5.16988e-26 0 0 5e-05 1.46608e-10 
125 1 0.384626 0.016764 5.25911e-05 2.24035e-18 -5.47835e-21 -1.71052e-15 0 8.53656e-26 0 5e-05 1.46608e-10 
127 1 0.384295 0.018231 0.000129802 1.54118e-20 1.36221e-20 -7.47673e-18 0 0 0 5e-05 1.46608e-10 
128 1 0.384383 0.0169852 5.22722e-05 -9.20551e-19 6.89153e-22 7.02842e-16 0 1.82431e-26 0 5e-05 1.46608e-10 
129 1 0.383806 0.0179676 5.15164e-05 -2.20077e-19 3.68673e-22 1.69475e-16 1.29247e-26 0 0 5e-05 1.46608e-10 
130 1 0.383859 0.0175842 5.15859e-05 2.24033e-18 -4.43538e-22 -1.71052e-15 0 1.44558e-27 0 5e-05 1.46608e-10 
131 1 0.38345 0.0177196 0.00536012 -2.07298e-17 2.71787e-14 8.96668e-14 4.04724e-22 5.15101e-22 -1.5613e-22 5e-05 1.46608e-10 
132 1 0.384418 0.0164926 5.23174e-05 2.24035e-18 3.50703e-22 -1.71052e-15 -4.03897e-28 -1.04736e-26 0 5e-05 1.46608e-10 
133 1 0.383591 0.0185347 5.12355e-05 -3.50175e-19 2.66893e-20 2.67382e-16 0 -1.24455e-25 0 5e-05 1.46608e-10 
134 1 0.383574 0.0183691 5.12127e-05 2.81057e-18 -3.62917e-21 -2.14593e-15 0 2.69092e-26 0 5e-05 1.46608e-10 
135 1 0.383667 0.0199993 5.13343e-05 2.81058e-18 2.84587e-23 -2.14593e-15 0 -5.68149e-27 0 5e-05 1.46608e-10 
136 1 0.384475 0.0176309 5.23931e-05 -9.20532e-19 -1.39339e-20 7.02843e-16 0 1.70788e-25 0 5e-05 1.46608e-10 
137 1 0.383925 0.0184105 5.16721e-05 1.79755e-18 -4.42459e-23 -1.37249e-15 0 1.58228e-28 0 5e-05 1.46608e-10 
138 1 0.384418 0.0178531 5.23181e-05 -4.06326e-12 -2.4957e-12 -1.9754e-12 8.39454e-18 1.91835e-18 2.9388e-18 5e-05 1.46608e-10 
140 1 0.384798 0.0171606 5.28155e-05 2.24035e-18 8.70901e-21 -1.71052e-15 0 2.7989e-26 0 5e-05 1.46608e-10 
141 1 0.384313 0.0171449 5.21807e-05 2.24036e-18 -3.67132e-21 -1.71052e-15 0 -1.23564e-25 0 5e-05 1.46608e-10 
142 1 0.385769 0.0165473 5.40881e-05 1.45281e-18 4.23278e-22 -1.10923e-15 0 -9.69079e-27 0 5e-05 1.46608e-10 
143 1 0.384333 0.0177947 5.22067e-05 -5.12884e-19 -1.70067e-21 3.87842e-16 0 0 0 5e-05 1.46608e-10 
144 1 0.384385 0.0195542 5.22753e-05 -3.50171e-19 6.99277e-21 2.67381e-16 0 -1.90535e-25 0 5e-05 1.46608e-10 
146 1 0.384085 0.018684 5.18824e-05 2.81056e-18 8.3763e-22 -2.14593e-15 0 1.38522e-26 0 5e-05 1.46608e-10 
147 1 0.384719 0.0170987 5.27125e-05 2.24035e-18 2.9321e-20 -1.71052e-15 0 -2.35084e-25 0 5e-05 1.46608e-10 
148 1 0.383894 0.0174902 5.16321e-05 2.24033e-18 -3.0693e-21 -1.71052e-15 0 2.75084e-26 0 5e-05 1.46608e-10 
149 1 0.384744 0.0173967 5.27447e-05 -1.20286e-19 4.35067e-21 9.02083e-17 0 0 0 5e-05 1.46608e-10 
150 1 0.383756 0.0184867 5.14508e-05 2.81057e-18 -4.06726e-21 -2.14593e-15 0 -1.27574e-25 0 5e-05 1.46608e-10 
151 1 0.384727 0.0201861 5.27225e-05 8.71378e-19 -2.74078e-21 -6.65298e-16 0 1.90485e-25 0 5e-05 1.46608e-10 
153 1 0.384074 0.0170516 0.000137426 -1.33416e-20 -2.08727e-21 -2.3045e-21 6.46235e-27 -2.58494e-26 2.26182e-26 5e-05 1.46608e-10 
154 1 0.384584 0.0177681 0.000101539 4.86423e-19 7.95144e-21 -3.71582e-16 0 1.29247e-26 0 5e-05 1.46608e-10 
155 1 0.384544 0.0163094 5.24825e-05 -9.20555e-19 1.0042e-20 7.02844e-16 0 9.3836e-26 0 5e-05 1.46608e-10 
156 1 0.384233 0.0168376 5.20754e-05 2.24035e-18 4.85497e-24 -1.71051e-15 0 9.24971e-27 0 5e-05 1.46608e-10 
157 1 0.0219312 0.0187687 0.00551176 -3.83414e-14 8.16455e-14 2.95892e-13 -1.04282e-21 -2.70798e-22 -6.20385e-23 5e-05 1.46608e-10 
158 1 0.384319 0.0167636 5.21878e-05 2.24035e-18 6.08008e-20 -1.71052e-15 0 9.38403e-25 0 5e-05 1.46608e-10 
159 1 0.384228 0.0177075 5.20694e-05 -5.10842e-19 1.9265e-21 3.87838e-16 0 0 0 5e-05 1.46608e-10 
160 1 0.38353 0.0176621 0.00537757 8.36529e-18 2.72157e-14 8.96556e-14 -4.18915e-22 -5.33195e-22 1.61507e-22 5e-05 1.46608e-10 
162 1 0.38396 0.0191288 5.17179e-05 -3.50206e-19 -2.55799e-22 2.6738e-16 0 2.4637e-28 0 5e-05 1.46608e-10 
165 1 0.384146 0.0189135 5.19615e-05 -3.50166e-19 4.19128e-21 2.6738e-16 0 -2.16179e-26 0 5e-05 1.46608e-10 
166 1 0.384895 0.0168866 5.2943e-05 -9.20572e-19 -4.05026e-20 7.02845e-16 0 9.553e-26 0 5e-05 1.46608e-10 
167 1 0.384921 0.0196039 5.29764e-05 8.71369e-19 2.639e-20 -6.65297e-16 0 -3.6258e-25 0 5e-05 1.46608e-10 
168 1 0.383956 0.019484 5.17133e-05 2.81054e-18 8.75721e-22 -2.14593e-15 0 -4.01746e-27 0 5e-05 1.46608e-10 
169 1 0.383755 0.019009 5.14493e-05 2.81055e-18 8.8957e-22 -2.14593e-15 0 5.38335e-27 0 5e-05 1.46608e-10 
170 1 0.383888 0.0184727 0.00523166 6.88045e-16 -4.57683e-15 -5.98175e-14 -3.68354e-25 -6.46235e-25 0 5e-05 1.46608e-10 
171 1 0.384004 0.0193816 5.17764e-05 2.81059e-18 3.10064e-21 -2.14593e-15 0 -1.5506e-26 0 5e-05 1.46608e-10 
172 1 0.384121 0.0171522 0.000126213 -5.36992e-20 1.78862e-20 2.74468e-17 -2.58494e-26 0 0 5e-05 1.46608e-10 
173 1 0.384268 0.0190399 5.21214e-05 -3.50184e-19 -5.37004e-21 2.67381e-16 0 1.97866e-26 0 5e-05 1.46608e-10 
174 1 0.384105 0.0178224 7.97669e-05 -1.26031e-15 -8.30374e-15 9.48483e-15 -1.12111e-19 1.22025e-19 -2.89974e-20 5e-05 1.46608e-10 
176 1 0.384124 0.018008 5.19332e-05 -9.15583e-15 -4.26586e-15 1.45918e-15 1.68171e-19 3.37447e-20 -3.03691e-20 5e-05 1.46608e-10 
177 1 0.38435 0.018262 5.22293e-05 1.45743e-20 -2.15755e-22 -7.47398e-18 0 0 0 5e-05 1.46608e-10 
178 1 0.384053 0.0189567 5.184e-05 2.81058e-18 2.77855e-23 -2.14593e-15 0 1.03542e-27 0 5e-05 1.46608e-10 
179 1 0.3843 0.0186551 5.2163e-05 1.79763e-18 -7.7269e-22 -1.37251e-15 0 -1.28057e-25 0 5e-05 1.46608e-10 
182 1 0.384992 0.0180145 5.30695e-05 1.79762e-18 -3.52193e-21 -1.37251e-15 -4.03897e-28 -1.03157e-25 0 5e-05 1.46608e-10 
183 1 0.386759 0.0152483 5.53836e-05 1.45281e-18 -7.74782e-22 -1.10923e-15 0 9.7398e-26 0 5e-05 1.46608e-10 
184 1 0.383617 0.019327 5.12691e-05 2.81056e-18 7.06497e-22 -2.14593e-15 0 1.76525e-26 0 5e-05 1.46608e-10 
185 1 0.384403 0.0192492 5.22987e-05 -3.50171e-19 1.45625e-21 2.67381e-16 0 3.70329e-26 0 5e-05 1.46608e-10 
186 1 0.384249 0.018274 5.20972e-05 1.14818e-20 -3.40683e-22 -7.47483e-18 0 0 0 5e-05 1.46608e-10 
187 1 0.38373 0.0197118 5.14173e-05 -3.50204e-19 2.41943e-21 2.67381e-16 0 1.05102e-26 0 5e-05 1.46608e-10 
188 1 0.385076 0.0179467 5.31802e-05 1.79756e-18 1.68652e-20 -1.37249e-15 4.03897e-28 5.2373e-25 0 5e-05 1.46608e-10 
189 1 0.38396 0.0177554 5.17178e-05 2.24031e-18 5.16231e-22 -1.71051e-15 0 -5.13142e-28 0 5e-05 1.46608e-10 
190 1 0.383867 0.0210849 5.15964e-05 -1.15571e-18 -8.51386e-21 8.82406e-16 0 4.567e-25 0 5e-05 1.46608e-10 
191 1 0.384706 0.0184769 5.26952e-05 1.79757e-18 2.29803e-21 -1.37249e-15 0 -2.80306e-26 0 5e-05 1.46608e-10 
192 1 0.384023 0.0181084 5.1801e-05 -2.85955e-15 1.86682e-15 9.6269e-16 3.6981e-20 -3.78063e-20 -4.00914e-20 5e-05 1.46608e-10 
193 1 0.383672 0.0184195 5.13415e-05 -3.50169e-19 1.4848e-21 2.67382e-16 0 -1.15174e-25 0 5e-05 1.46608e-10 
194 1 0.384122 0.0182248 5.1931e-05 1.79758e-18 2.72353e-20 -1.37249e-15 0 4.04784e-25 0 5e-05 1.46608e-10 
195 1 0.383967 0.0181955 5.17273e-05 1.79759e-18 9.43093e-22 -1.37251e-15 0 7.03615e-27 0 5e-05 1.46608e-10 
196 1 0.384122 0.0181236 5.19307e-05 1.79756e-18 -6.65382e-23 -1.37249e-15 -4.03897e-28 -2.1519e-28 0 5e-05 1.46608e-10 
197 1 0.383676 0.0181534 0.000124512 -8.10414e-19 2.14876e-21 6.08853e-16 0 0 0 5e-05 1.46608e-10 
198 1 0.383816 0.019228 5.15292e-05 1.08955e-19 8.20712e-23 -8.03862e-17 0 0 0 5e-05 1.46608e-10 
199 1 0.38465 0.0174377 5.26211e-05 -1.18164e-19 -3.28413e-22 9.01927e-17 0 -1.29247e-26 0 5e-05 1.46608e-10 
200 1 0.3851 0.0177266 5.32113e-05 -5.63914e-22 3.18074e-21 1.10769e-20 0 0 0 5e-05 1.46608e-10 
201 1 0.385006 0.0158243 5.30884e-05 1.45282e-18 1.76092e-21 -1.10923e-15 0 -1.72125e-26 0 5e-05 1.46608e-10 
202 1 0.385094 0.0174355 5.32031e-05 1.79759e-18 4.54374e-22 -1.37251e-15 0 9.73829e-27 0 5e-05 1.46608e-10 
203 1 0.384504 0.0179623 5.24301e-05 -2.04647e-12 -2.86937e-12 6.72933e-13 3.82562e-18 -7.24104e-19 8.36351e-18 5e-05 1.46608e-10 
204 1 0.384109 0.0184302 5.19127e-05 1.79763e-18 2.17578e-21 -1.37251e-15 0 -4.03764e-26 0 5e-05 1.46608e-10 
205 1 0.384524 0.0174713 5.24569e-05 2.24036e-18 -1.47529e-21 -1.71052e-15 0 -4.38291e-26 0 5e-05 1.46608e-10 
206 1 0.38435 0.0178614 0.000125081 -7.69079e-12 -1.24939e-12 -2.08126e-12 1.33067e-17 9.22981e-18 -8.62944e-18 5e-05 1.46608e-10 
207 1 0.385023 0.0181691 5.31107e-05 1.7976e-18 3.43092e-23 -1.37251e-15 0 2.15241e-27 0 5e-05 1.46608e-10 
208 1 0.385037 0.0175739 5.31289e-05 1.79761e-18 1.783e-21 -1.37249e-15 0 -1.07643e-26 0 5e-05 1.46608e-10 
209 1 0.383886 0.018028 5.16209e-05 -7.20631e-16 9.8972e-17 -2.14229e-17 5.14543e-21 -3.43761e-21 1.95297e-21 5e-05 1.46608e-10 
210 1 0.384526 0.016716 5.24592e-05 2.24034e-18 8.68554e-21 -1.71051e-15 0 2.47697e-26 0 5e-05 1.46608e-10 
211 1 0.384505 0.0171609 5.24316e-05 2.24032e-18 -9.19913e-21 -1.71052e-15 0 7.91006e-27 0 5e-05 1.46608e-10 
212 1 0.383978 0.0185238 0.00522879 -2.82526e-15 1.87927e-14 2.4561e-13 -1.48634e-25 6.46235e-26 0 5e-05 1.46608e-10 
213 1 0.383846 0.0191172 5.15692e-05 2.81059e-18 1.08085e-21 -2.14593e-15 0 3.08577e-26 0 5e-05 1.46608e-10 
214 1 0.384625 0.017537 5.25895e-05 1.07337e-19 3.83156e-21 -7.992e-17 0 0 0 5e-05 1.46608e-10 
215 1 0.385553 0.0152374 5.38047e-05 1.45282e-18 1.6979e-21 -1.10923e-15 0 -5.54085e-27 0 5e-05 1.46608e-10 
217 1 0.384411 0.0184417 5.23083e-05 1.7976e-18 -6.27565e-22 -1.37251e-15 0 2.19657e-26 0 5e-05 1.46608e-10 
218 1 0.384302 0.0165156 5.21656e-05 -9.20548e-19 -9.77489e-21 7.02843e-16 0 -5.7716e-26 0 5e-05 1.46608e-10 
219 1 0.384399 0.0186101 5.22929e-05 1.79763e-18 -5.12166e-21 -1.37251e-15 0 -1.31897e-25 0 5e-05 1.46608e-10 
220 1 0.384943 0.0187045 5.30057e-05 1.79758e-18 4.51533e-22 -1.37251e-15 0 -4.68637e-27 0 5e-05 1.46608e-10 
222 1 0.384205 0.0180675 5.20391e-05 1.49304e-14 -1.93586e-14 2.64301e-16 -1.54801e-19 -3.58394e-19 2.01909e-19 5e-05 1.46608e-10 
224 1 0.384058 0.0177382 5.18467e-05 -1.47315e-15 -8.26327e-15 2.80584e-15 -1.64503e-20 -1.8681e-20 7.09779e-20 5e-05 1.46608e-10 
225 1 0.384811 0.0174713 5.28328e-05 1.18402e-19 2.29026e-21 -7.99125e-17 0 0 0 5e-05 1.46608e-10 
226 1 0.383884 0.0196254 5.16191e-05 -3.50193e-19 -6.32331e-23 2.67381e-16 4.03897e-28 -5.3954e-26 0 5e-05 1.46608e-10 
227 1 0.384574 0.0160758 5.25222e-05 2.24032e-18 -1.15879e-20 -1.71052e-15 4.03897e-28 -5.66864e-26 0 5e-05 1.46608e-10 
228 1 0.384056 0.0180406 0.000117497 -3.84191e-15 7.25558e-15 -2.41507e-15 9.88755e-21 1.36371e-21 -3.05683e-20 5e-05 1.46608e-10 
229 1 0.384183 0.0194731 5.201e-05 -3.50168e-19 -1.60461e-20 2.67382e-16 0 1.45956e-25 0 5e-05 1.46608e-10 
230 1 0.385084 0.0171004 5.31901e-05 -9.20572e-19 -1.65529e-21 7.02844e-16 0 -2.11132e-26 0 5e-05 1.46608e-10 
232 1 0.38345 0.0186594 0.00522432 -5.74109e-14 2.90089e-19 -1.77479e-13 0 -3.73757e-24 2.06795e-25 5e-05 1.46608e-10 
233 1 0.384483 0.016964 5.24031e-05 -8.92815e-19 -1.0385e-20 7.02813e-16 -3.55429e-26 9.69352e-27 0 5e-05 1.46608e-10 
234 1 0.384564 0.0189811 5.25095e-05 -3.50221e-19 -1.51335e-21 2.67382e-16 0 5.35287e-26 0 5e-05 1.46608e-10 
235 1 0.385129 0.0178507 5.32485e-05 1.11177e-22 -8.43281e-22 -2.2895e-21 0 -2.58494e-26 0 5e-05 1.46608e-10 
236 1 0.385096 0.0164501 5.32056e-05 -9.20541e-19 -9.69994e-21 7.02842e-16 0 8.71914e-26 0 5e-05 1.46608e-10 
237 1 0.383933 0.0187648 0.000130442 7.69482e-19 4.10347e-21 -5.98258e-16 -2.58494e-26 0 0 5e-05 1.46608e-10 
239 1 0.384687 0.0169933 5.26707e-05 2.24035e-18 -4.1745e-23 -1.71051e-15 0 6.49506e-27 0 5e-05 1.46608e-10 
240 1 0.384262 0.0177729 0.000119547 -5.23044e-19 -6.83818e-21 3.87839e-16 0 0 0 5e-05 1.46608e-10 
241 1 0.384801 0.0166583 5.28192e-05 2.24036e-18 -6.66844e-23 -1.71051e-15 0 -2.4154e-26 0 5e-05 1.46608e-10 
242 1 0.383909 0.0188216 5.16519e-05 7.81956e-19 2.28287e-21 -5.98258e-16 0 0 0 5e-05 1.46608e-10 
243 1 0.38439 0.0209101 5.22816e-05 2.00508e-18 -9.63967e-21 -1.5309e-15 0 -3.04141e-25 0 5e-05 1.46608e-10 
244 1 0.384493 0.0173689 9.64047e-05 -1.30962e-19 -1.99352e-21 9.019e-17 0 5.16988e-26 0 5e-05 1.46608e-10 
246 1 0.38382 0.0188681 5.15345e-05 -3.50188e-19 -6.22688e-23 2.6738e-16 0 -1.59985e-28 0 5e-05 1.46608e-10 
247 1 0.384541 0.017902 0.000125062 -2.65768e-11 -9.04791e-11 -7.04183e-12 -1.11869e-16 -9.34283e-17 2.42395e-17 5e-05 1.46608e-10 
248 1 0.383639 0.0189866 5.12974e-05 -3.50175e-19 9.51276e-22 2.67381e-16 0 -9.85274e-27 0 5e-05 1.46608e-10 
249 1 0.38453 0.020178 5.24643e-05 8.71347e-19 9.27652e-21 -6.65297e-16 0 3.63548e-26 0 5e-05 1.46608e-10 
250 1 0.384661 0.0178084 5.26366e-05 4.86641e-19 -6.44987e-22 -3.71585e-16 0 0 0 5e-05 1.46608e-10 
251 1 0.384005 0.0178448 5.17769e-05 -2.29631e-19 -3.37485e-22 1.69486e-16 0 9.69352e-27 0 5e-05 1.46608e-10 
252 1 0.384145 0.0205426 5.19607e-05 8.71335e-19 -3.95994e-21 -6.65298e-16 0 -1.4186e-25 0 5e-05 1.46608e-10 
253 1 0.383856 0.0203056 5.15822e-05 2.81059e-18 -5.2515e-22 -2.14593e-15 0 2.74307e-25 0 5e-05 1.46608e-10 
254 1 0.38515 0.0175249 5.32762e-05 1.79755e-18 1.66363e-20 -1.37249e-15 0 -1.40078e-25 0 5e-05 1.46608e-10 
255 1 0.383703 0.0182157 5.13821e-05 -7.98206e-19 1.93859e-21 6.08848e-16 0 0 0 5e-05 1.46608e-10 
256 1 0.384352 0.0191511 5.22319e-05 -3.50183e-19 2.82934e-24 2.67382e-16 0 -1.09768e-26 0 5e-05 1.46608e-10 
257 1 0.384531 0.0168171 5.24664e-05 2.24031e-18 4.39658e-23 -1.71051e-15 0 -3.66463e-28 0 5e-05 1.46608e-10 
258 1 0.383662 0.0204201 5.13284e-05 -5.14035e-22 2.20221e-23 1.03396e-21 0 0 0 5e-05 1.46608e-10 
259 1 0.384524 0.0216685 5.24571e-05 2.00506e-18 3.1465e-21 -1.5309e-15 -4.03897e-28 3.76415e-26 0 5e-05 1.46608e-10 
260 1 0.384677 0.0173224 5.2657e-05 -1.24965e-19 -1.99227e-21 9.01939e-17 0 -2.58494e-26 0 5e-05 1.46608e-10 
261 1 0.383833 0.0185505 5.15522e-05 -3.50194e-19 1.53611e-22 2.67381e-16 0 6.57157e-28 0 5e-05 1.46608e-10 
262 1 0.384455 0.0172873 5.2367e-05 -1.19644e-19 -4.18907e-22 9.01923e-17 -1.29247e-26 -2.58494e-26 0 5e-05 1.46608e-10 
263 1 0.384148 0.018808 5.1965e-05 -3.50179e-19 -4.50853e-21 2.67382e-16 -4.03897e-28 1.25854e-25 0 5e-05 1.46608e-10 
264 1 0.383874 0.0192744 0.000117813 9.95276e-20 3.14243e-21 -8.03892e-17 0 0 0 5e-05 1.46608e-10 
265 1 0.384664 0.0180562 5.26402e-05 1.79764e-18 -8.95174e-22 -1.37251e-15 0 -3.1561e-26 0 5e-05 1.46608e-10 
266 1 0.383681 0.0195344 5.13528e-05 -3.50215e-19 -3.57461e-22 2.67382e-16 0 1.4198e-26 0 5e-05 1.46608e-10 
267 1 0.384035 0.0173399 5.18167e-05 2.24034e-18 1.32722e-22 -1.71052e-15 0 1.77333e-28 0 5e-05 1.46608e-10 
268 1 0.384513 0.0181523 5.24423e-05 1.79763e-18 -1.67624e-21 -1.37251e-15 0 -1.16038e-25 0 5e-05 1.46608e-10 
269 1 0.383985 0.018016 5.17508e-05 -3.31248e-15 1.72497e-15 2.80235e-15 1.00644e-20 -6.13373e-21 5.50861e-21 5e-05 1.46608e-10 
270 1 0.384204 0.0178183 5.2038e-05 -5.05158e-19 4.25161e-21 3.87841e-16 0 -2.58494e-26 0 5e-05 1.46608e-10 
271 1 0.384204 0.0183848 5.20381e-05 1.7976e-18 2.01114e-21 -1.37251e-15 0 5.51816e-26 0 5e-05 1.46608e-10 
272 1 0.384044 0.0177752 0.000143609 -1.77862e-14 -7.45607e-15 -1.10305e-14 2.51695e-20 -1.87771e-20 3.79692e-20 5e-05 1.46608e-10 
273 1 0.38425 0.0173241 5.20975e-05 2.24032e-18 2.9598e-21 -1.71051e-15 0 1.33383e-26 0 5e-05 1.46608e-10 
274 1 0.383762 0.0206306 5.14594e-05 8.71384e-19 -1.04308e-21 -6.65298e-16 0 7.42618e-27 0 5e-05 1.46608e-10 
275 1 0.385192 0.0170617 5.33312e-05 -9.20563e-19 -4.32406e-22 7.02844e-16 0 4.30217e-27 0 5e-05 1.46608e-10 
276 1 0.3843 0.0175031 5.2164e-05 2.24033e-18 -1.32991e-21 -1.71052e-15 0 1.8777e-26 0 5e-05 1.46608e-10 
277 1 0.384989 0.0177301 5.30663e-05 1.79757e-18 -6.10635e-22 -1.37249e-15 0 -7.05147e-27 0 5e-05 1.46608e-10 
278 1 0.384608 0.0171655 5.25668e-05 2.24035e-18 1.25601e-23 -1.71052e-15 4.03897e-28 -4.75783e-27 0 5e-05 1.46608e-10 
280 1 0.383746 0.0191087 5.14383e-05 2.81058e-18 2.62836e-22 -2.14593e-15 0 6.73629e-27 0 5e-05 1.46608e-10 
281 1 0.384897 0.0194055 5.2945e-05 8.71346e-19 -3.45906e-21 -6.65298e-16 4.03897e-28 -1.88212e-25 0 5e-05 1.46608e-10 
283 1 0.384732 0.0167368 5.27299e-05 2.24034e-18 4.47799e-21 -1.71052e-15 0 4.69461e-26 0 5e-05 1.46608e-10 
284 1 0.383859 0.0194467 5.15855e-05 2.81056e-18 4.34158e-22 -2.14593e-15 -4.03897e-28 -1.0062e-26 0 5e-05 1.46608e-10 
285 1 0.384511 0.017816 5.24399e-05 4.87652e-19 1.35793e-21 -3.71578e-16 0 0 0 5e-05 1.46608e-10 
286 1 0.384761 0.017818 5.27671e-05 4.86563e-19 1.34381e-21 -3.71584e-16 0 0 0 5e-05 1.46608e-10 
287 1 0.384417 0.0167417 5.23161e-05 2.24031e-18 -2.85939e-21 -1.71052e-15 0 -1.09022e-25 0 5e-05 1.46608e-10 
288 1 0.384905 0.0179551 5.29553e-05 1.79762e-18 -1.13102e-21 -1.37251e-15 4.03897e-28 3.48549e-26 0 5e-05 1.46608e-10 
290 1 0.38472 0.0175079 6.94547e-05 1.11627e-19 4.29129e-22 -7.99335e-17 0 -1.29247e-26 0 5e-05 1.46608e-10 
291 1 0.38371 0.0179981 5.13903e-05 2.24036e-18 -5.08374e-22 -1.71052e-15 4.03897e-28 2.76564e-28 0 5e-05 1.46608e-10 
292 1 0.384101 0.0193494 5.19028e-05 -3.50219e-19 4.12833e-21 2.67381e-16 0 1.41519e-26 0 5e-05 1.46608e-10 
293 1 0.384429 0.0174321 5.23324e-05 -1.23602e-19 2.16983e-22 9.0189e-17 5.16988e-26 -2.58494e-26 0 5e-05 1.46608e-10 
294 1 0.383845 0.0189654 5.1567e-05 5.31324e-19 6.69481e-22 -4.06399e-16 0 0 0 5e-05 1.46608e-10 
295 1 0.383647 0.0190875 5.13083e-05 -3.50203e-19 -5.74142e-24 2.67381e-16 4.03897e-28 2.73505e-28 0 5e-05 1.46608e-10 
296 1 0.384035 0.0172167 0.000137258 -7.05037e-18 9.20998e-19 3.81637e-17 -5.16988e-26 0 0 5e-05 1.46608e-10 
297 1 0.383829 0.0183804 5.15472e-05 1.79763e-18 7.35658e-22 -1.37251e-15 0 -1.62052e-26 0 5e-05 1.46608e-10 
298 1 0.384428 0.0175321 5.23311e-05 -1.17595e-19 -2.09192e-21 9.0194e-17 -6.46235e-27 0 0 5e-05 1.46608e-10 
299 1 0.38404 0.0171308 0.000188309 -1.23843e-17 2.91245e-17 1.91823e-17 -5.16988e-26 0 0 5e-05 1.46608e-10 
300 1 0.383994 0.0172487 5.17625e-05 -5.2355e-20 -4.10862e-21 4.85446e-17 -5.16988e-26 1.03398e-25 0 5e-05 1.46608e-10 
