ITEM: TIMESTEP
43000000
ITEM: NUMBER OF ATOMS
275
ITEM: BOX BOUNDS ff ff ff
-0.02 0.43
-0.02 0.06
-0.02 0.07
ITEM: ATOMS id type x y z vx vy vz fx fy fz radius mass 
1 1 0.263987 0.0182043 0.00701565 0.00623579 0.000260799 -0.000353427 -2.11906e-10 2.01386e-10 -1.58406e-10 5e-05 1.46608e-10 
2 1 0.26365 0.0171101 0.00739412 0.00560774 0.000454689 -0.000220106 2.74227e-10 -9.0385e-11 4.93516e-11 5e-05 1.46608e-10 
4 1 0.263802 0.0170227 0.00748986 0.00540814 0.000408538 -0.000127368 -3.49108e-10 1.76993e-10 3.67115e-11 5e-05 1.46608e-10 
5 1 0.263169 0.0155261 0.00898653 0.00592614 0.000331934 -7.78276e-05 6.30994e-11 2.22781e-10 -2.27177e-10 5e-05 1.46608e-10 
6 1 0.269599 0.0168602 0.00747244 0.00547089 -0.000300083 4.26209e-06 6.86587e-11 1.13401e-10 -6.79676e-11 5e-05 1.46608e-10 
7 1 0.263934 0.0175576 0.00709291 0.00575088 0.000291349 -0.000403236 -4.05717e-11 5.46427e-11 -2.36525e-10 5e-05 1.46608e-10 
8 1 0.263656 0.0167891 0.00772135 0.0054463 0.000397421 -0.000166566 4.90191e-11 -3.72961e-11 1.02203e-11 5e-05 1.46608e-10 
9 1 0.269793 0.0177332 0.00704241 0.00562258 -0.000263233 0.000196886 6.06294e-10 -8.4476e-11 -5.10654e-11 5e-05 1.46608e-10 
10 1 0.2633 0.015938 0.00857386 0.00584304 0.000370832 -0.000122677 4.28697e-11 -2.26267e-11 3.21878e-11 5e-05 1.46608e-10 
11 1 0.263863 0.0177841 0.00715163 0.00597372 0.000421193 -0.000389916 -5.20152e-11 -8.76936e-11 1.89749e-11 5e-05 1.46608e-10 
12 1 0.257823 0.0166919 0.00759477 0.00533293 -0.000816079 0.000216054 -9.4551e-11 2.05331e-11 -4.23134e-12 5e-05 1.46608e-10 
13 1 0.263147 0.0154572 0.00905573 0.00593368 0.000328126 -7.35332e-05 7.67815e-11 2.45748e-10 -2.43942e-10 5e-05 1.46608e-10 
14 1 0.257788 0.0172985 0.00720742 0.00552228 -0.000738995 0.000208623 5.86939e-11 1.13596e-10 3.68164e-12 5e-05 1.46608e-10 
16 1 0.257982 0.0178043 0.00713266 0.00582772 -0.000782428 0.000418951 -4.23101e-12 1.31447e-10 -2.12807e-12 5e-05 1.46608e-10 
17 1 0.263276 0.0158688 0.0086422 0.00587545 0.000360895 -0.00010857 -2.60233e-11 -3.89114e-11 3.50516e-11 5e-05 1.46608e-10 
19 1 0.263125 0.0153884 0.00912492 0.00594375 0.000327384 -7.2308e-05 7.21172e-11 2.27991e-10 -2.30611e-10 5e-05 1.46608e-10 
21 1 0.263976 0.0177516 0.00706836 0.00608319 0.000240341 -0.000339279 1.19966e-10 8.96124e-11 4.26881e-11 5e-05 1.46608e-10 
22 1 0.263617 0.0166509 0.00786047 0.00592628 0.000322527 -6.79675e-05 -3.72481e-11 7.55007e-11 -8.1173e-11 5e-05 1.46608e-10 
23 1 0.258013 0.0175416 0.00713442 0.00573884 -0.000827581 0.00044657 -9.01797e-11 2.78834e-10 -5.12892e-11 5e-05 1.46608e-10 
24 1 0.269715 0.0173676 0.00717407 0.00562508 -0.000289991 -3.01642e-06 -4.14553e-11 8.62029e-11 -6.95389e-11 5e-05 1.46608e-10 
25 1 0.263341 0.0160762 0.00843553 0.00587053 0.000387126 -0.000138237 3.45385e-12 -5.35993e-11 3.24047e-11 5e-05 1.46608e-10 
26 1 0.269754 0.0175431 0.00708776 0.00563264 -0.000329705 -5.01811e-05 9.62652e-11 -2.66105e-10 -1.25657e-10 5e-05 1.46608e-10 
27 1 0.257633 0.0166414 0.0076382 0.00541068 -0.000761524 0.0001771 -1.47146e-10 -5.91329e-11 7.71561e-11 5e-05 1.46608e-10 
28 1 0.263726 0.0170665 0.00744192 0.00558417 0.000457298 -0.000217745 2.22592e-11 2.06956e-10 -1.99068e-10 5e-05 1.46608e-10 
29 1 0.263104 0.0153195 0.00919412 0.00595549 0.000329901 -7.43836e-05 6.55902e-11 2.00779e-10 -2.01639e-10 5e-05 1.46608e-10 
30 1 0.26343 0.0163506 0.00815817 0.00564932 0.000426961 -0.000182027 -3.1309e-10 -1.61344e-10 1.67662e-10 5e-05 1.46608e-10 
31 1 0.26401 0.0174924 0.00709828 0.00571172 0.000254967 -0.000117229 3.10406e-11 -1.08037e-11 -2.33102e-11 5e-05 1.46608e-10 
32 1 0.263363 0.0161442 0.00836545 0.0058474 0.000398885 -0.00014869 -2.86686e-11 -9.11536e-11 9.00953e-11 5e-05 1.46608e-10 
33 1 0.269618 0.0169448 0.00742271 0.00549518 -0.000297144 1.91117e-06 3.50114e-11 1.16085e-10 -6.40553e-11 5e-05 1.46608e-10 
34 1 0.263255 0.0158007 0.00871213 0.00588932 0.000357586 -0.000105114 -5.1015e-11 -1.6458e-11 4.09225e-11 5e-05 1.46608e-10 
35 1 0.263896 0.0173663 0.00713549 0.00570325 0.00013428 -0.000921271 9.11047e-11 3.03798e-11 -2.75836e-12 5e-05 1.46608e-10 
36 1 0.269853 0.018024 0.00700088 0.00611538 -0.000321926 0.00021709 3.5969e-11 -5.27979e-11 9.11817e-12 5e-05 1.46608e-10 
37 1 0.263785 0.0169534 0.00755971 0.00536059 0.000389995 -0.00015699 -1.3433e-10 8.97405e-11 -1.38684e-10 5e-05 1.46608e-10 
38 1 0.263857 0.0172292 0.00727936 0.00579674 -5.13871e-05 -0.000613098 1.67677e-10 1.24393e-10 -5.77723e-12 5e-05 1.46608e-10 
39 1 0.269734 0.0174521 0.00712437 0.00559959 -0.000292807 -4.08449e-06 2.32493e-10 -9.35046e-11 2.42071e-11 5e-05 1.46608e-10 
41 1 0.263227 0.015661 0.0088517 0.00587893 0.0003527 -0.000100961 2.16266e-11 9.29472e-11 -9.73862e-11 5e-05 1.46608e-10 
42 1 0.2639 0.0170438 0.00745674 0.00547036 -0.000180479 -0.000583219 -2.26383e-10 1.85686e-10 -2.56714e-10 5e-05 1.46608e-10 
44 1 0.263956 0.0172492 0.0072454 0.0057299 -9.79912e-05 -0.00043385 -1.33954e-10 2.6782e-10 -1.28151e-11 5e-05 1.46608e-10 
45 1 0.269637 0.0170293 0.00737298 0.00550751 -0.00029562 3.97656e-07 5.63298e-11 1.3545e-10 -7.77061e-11 5e-05 1.46608e-10 
47 1 0.263233 0.015731 0.00878063 0.00587188 0.000356695 -0.000106546 2.41019e-11 2.20228e-11 -6.20608e-12 5e-05 1.46608e-10 
48 1 0.263842 0.0179741 0.00704958 0.00621469 0.000320468 -0.000349779 -6.57794e-11 -2.58294e-10 4.29232e-11 5e-05 1.46608e-10 
49 1 0.269812 0.0178303 0.00702851 0.00554989 -0.00023036 0.000188598 -2.62153e-10 -2.53461e-10 2.71492e-11 5e-05 1.46608e-10 
50 1 0.263385 0.0162131 0.00829628 0.00578781 0.000410588 -0.00016316 1.34258e-11 -1.79347e-10 1.40813e-10 5e-05 1.46608e-10 
51 1 0.264031 0.017589 0.00708432 0.00583817 0.00019664 -0.000317633 -1.59898e-10 9.10091e-13 -1.98774e-11 5e-05 1.46608e-10 
52 1 0.257881 0.0169381 0.00743341 0.00534444 -0.000828424 0.00022298 1.87625e-10 -8.19446e-11 6.24258e-11 5e-05 1.46608e-10 
53 1 0.269676 0.0171985 0.00727352 0.00558881 -0.000287574 -7.06504e-06 2.95231e-12 2.04353e-10 -1.21957e-10 5e-05 1.46608e-10 
54 1 0.26419 0.0179091 0.00703924 0.00605583 0.000184857 -0.000331941 4.37638e-10 -4.74401e-10 2.78316e-11 5e-05 1.46608e-10 
55 1 0.257806 0.0169955 0.00740089 0.00541314 -0.000821622 0.000215511 -3.87586e-10 -2.8402e-10 2.03202e-10 5e-05 1.46608e-10 
56 1 0.264168 0.0178122 0.00705151 0.00605599 0.00015092 -0.000328492 -2.23728e-10 2.98718e-11 -1.84833e-12 5e-05 1.46608e-10 
57 1 0.269656 0.0171139 0.00732325 0.00552283 -0.00028476 -5.98666e-06 -1.20334e-10 2.13836e-10 -1.23159e-10 5e-05 1.46608e-10 
59 1 0.378022 0.019866 0.005332 -5.01967e-15 -7.41195e-15 7.69802e-14 -8.36228e-24 1.88701e-24 -2.06795e-25 5e-05 1.46608e-10 
60 1 0.263976 0.0173231 0.0071811 0.00561774 0.000174515 -0.000159958 -1.2946e-10 1.29134e-10 -7.68434e-11 5e-05 1.46608e-10 
61 1 0.26319 0.015595 0.00891733 0.00591132 0.00033735 -8.36374e-05 7.44302e-11 1.73347e-10 -1.68713e-10 5e-05 1.46608e-10 
62 1 0.263877 0.0172982 0.00720614 0.00603911 7.17229e-05 -0.000928285 -2.84969e-10 -2.31124e-11 -5.4736e-11 5e-05 1.46608e-10 
63 1 0.263949 0.0181722 0.00710235 0.00624999 0.000302557 -0.000340179 1.09688e-10 -3.16251e-10 -6.21925e-12 5e-05 1.46608e-10 
64 1 0.269696 0.017283 0.00722382 0.00559653 -0.000285223 -7.75065e-06 -1.46786e-10 1.93763e-10 -9.93543e-11 5e-05 1.46608e-10 
65 1 0.257845 0.0171594 0.00729338 0.0054394 -0.000830287 0.000220709 4.23695e-11 -2.2078e-10 1.81789e-10 5e-05 1.46608e-10 
66 1 0.257963 0.0175583 0.00721899 0.0056671 -0.000806768 0.000399564 -1.74674e-10 2.09014e-10 -9.13617e-11 5e-05 1.46608e-10 
67 1 0.263998 0.0178486 0.00705607 0.00608661 0.000204485 -0.000339506 1.37934e-10 -5.22374e-11 -3.56373e-11 5e-05 1.46608e-10 
68 1 0.263781 0.0172743 0.0072327 0.00580862 0.000439301 -0.00018327 7.93529e-11 6.15254e-11 2.18998e-10 5e-05 1.46608e-10 
69 1 0.264073 0.017783 0.00705976 0.00603682 0.00016045 -0.000329315 -9.9653e-11 -3.42927e-10 6.07902e-11 5e-05 1.46608e-10 
70 1 0.269773 0.017636 0.00705631 0.00564264 -0.000256652 0.00019258 4.65484e-11 -3.28167e-10 -7.0745e-11 5e-05 1.46608e-10 
71 1 0.258152 0.0177629 0.00714483 0.00585646 -0.000854623 0.000420965 5.60623e-11 8.84267e-14 5.96473e-12 5e-05 1.46608e-10 
72 1 0.264063 0.0181391 0.00701927 0.00621138 0.000206037 -0.000338158 -4.88094e-11 2.09065e-10 4.6615e-11 5e-05 1.46608e-10 
73 1 0.263321 0.0160064 0.00850397 0.00585637 0.00037962 -0.000129316 2.27478e-11 -2.22942e-11 1.6174e-11 5e-05 1.46608e-10 
74 1 0.263406 0.016282 0.00822717 0.00570699 0.000418181 -0.000178051 -1.75259e-10 -1.69176e-10 1.8474e-10 5e-05 1.46608e-10 
76 1 0.257747 0.0167492 0.00756239 0.00529861 -0.000819752 0.000220301 3.42686e-11 6.74614e-11 -5.37334e-11 5e-05 1.46608e-10 
77 1 0.263668 0.0171794 0.00732433 0.00567894 0.000442314 -0.000201367 -2.00483e-10 -1.07225e-10 1.04872e-11 5e-05 1.46608e-10 
78 1 0.257124 0.0152619 0.00903298 0.00592236 -0.000357819 0.000917148 3.52978e-11 5.17028e-13 3.43864e-10 5e-05 1.46608e-10 
79 1 0.258056 0.0180989 0.00713887 0.0058671 -0.000801983 0.000426086 6.30689e-11 -1.18995e-11 -5.29571e-11 5e-05 1.46608e-10 
80 1 0.263744 0.0171358 0.00737213 0.00569393 0.000454433 -0.000217031 -3.53571e-10 -1.93283e-11 -2.74343e-10 5e-05 1.46608e-10 
82 1 0.257875 0.0176199 0.00721191 0.00542699 -0.000592102 5.30717e-05 9.99857e-11 -5.07529e-11 2.01006e-10 5e-05 1.46608e-10 
83 1 0.257843 0.0167739 0.00754102 0.00535792 -0.000824546 0.000220454 -1.56951e-12 -3.50404e-11 1.04199e-11 5e-05 1.46608e-10 
84 1 0.269831 0.0179274 0.00701464 0.0061101 -0.000323846 0.000217223 -1.79772e-11 -1.89105e-10 2.86499e-11 5e-05 1.46608e-10 
85 1 0.2582 0.0179597 0.00714883 0.00576144 -0.000821333 0.000413803 -1.73656e-10 1.0197e-10 -3.38112e-12 5e-05 1.46608e-10 
86 1 0.263937 0.0171803 0.00731537 0.00567806 -0.000222916 -0.000568796 2.08813e-10 1.12326e-10 -1.43162e-10 5e-05 1.46608e-10 
87 1 0.263708 0.0169972 0.0075117 0.00547384 0.000447533 -0.000213699 -2.17748e-10 3.4813e-10 -2.47419e-10 5e-05 1.46608e-10 
88 1 0.26384 0.0175256 0.0071035 0.00571983 0.00037008 -0.000343707 -4.7856e-11 -1.49163e-10 -8.33861e-11 5e-05 1.46608e-10 
89 1 0.263962 0.0178161 0.00714352 0.00611933 0.00024371 -0.000314531 -2.49238e-10 -2.28453e-11 1.2869e-10 5e-05 1.46608e-10 
90 1 0.264019 0.0179455 0.0070438 0.00611875 0.000207285 -0.000340881 1.87546e-10 1.41952e-11 1.42949e-11 5e-05 1.46608e-10 
91 1 0.257804 0.0166099 0.00764856 0.00532825 -0.000810922 0.000212825 4.14388e-11 1.17937e-11 -9.44039e-12 5e-05 1.46608e-10 
92 1 0.263761 0.017587 0.00709908 0.00574282 0.000398187 -0.000555652 -9.92758e-12 -1.89323e-10 7.80593e-11 5e-05 1.46608e-10 
93 1 0.263495 0.016557 0.00795073 0.00638522 0.000317655 -3.98696e-05 -2.17485e-10 -2.39284e-11 2.7093e-11 5e-05 1.46608e-10 
94 1 0.263883 0.0178847 0.00713976 0.00615885 0.000334357 -0.000326273 -2.2446e-10 -2.13297e-10 6.90255e-11 5e-05 1.46608e-10 
95 1 0.263768 0.0174459 0.0071969 0.00576353 0.000386208 -0.000325998 -9.28352e-11 -1.11691e-10 -2.97956e-12 5e-05 1.46608e-10 
96 1 0.263742 0.0174895 0.00711089 0.00579406 0.000412991 -0.000336361 1.61973e-11 -6.40922e-11 -6.28225e-11 5e-05 1.46608e-10 
97 1 0.257231 0.0155534 0.00865102 0.00592327 2.03209e-05 0.00122439 8.0225e-11 1.54791e-10 -1.47491e-10 5e-05 1.46608e-10 
98 1 0.263474 0.0164881 0.00802007 0.00609351 0.00035239 -9.50979e-05 -1.13198e-10 -1.18222e-10 1.21893e-10 5e-05 1.46608e-10 
99 1 0.257769 0.0176434 0.00711677 0.00544439 -0.000669051 0.000390085 4.39563e-11 7.06307e-12 6.95026e-11 5e-05 1.46608e-10 
100 1 0.263955 0.0176545 0.0070806 0.00581569 0.000285372 -0.000328965 -4.71298e-11 7.69535e-11 -4.31068e-11 5e-05 1.46608e-10 
101 1 0.25779 0.0177412 0.00711856 0.0059221 -0.000764595 0.000425412 3.10048e-11 3.99258e-11 2.38321e-12 5e-05 1.46608e-10 
102 1 0.0643568 0.0187248 0.00531097 4.4452e-15 1.04229e-14 8.29604e-14 -3.1734e-22 -3.96426e-22 6.59677e-23 5e-05 1.46608e-10 
103 1 0.24257 0.0191927 0.00520306 -3.10572e-22 -1.00924e-21 8.29106e-22 3.23117e-27 0 0 5e-05 1.46608e-10 
104 1 0.258077 0.0178346 0.00713962 0.00582797 -0.000818514 0.000419567 -4.65854e-11 1.4618e-10 -7.76808e-12 5e-05 1.46608e-10 
105 1 0.257189 0.015445 0.0088122 0.00593931 4.52171e-05 0.0012097 1.45856e-11 -8.11967e-12 -1.97736e-11 5e-05 1.46608e-10 
106 1 0.257856 0.0175222 0.00720429 0.00555409 -0.00072861 0.000401951 -9.67511e-11 -2.99076e-10 -1.76699e-10 5e-05 1.46608e-10 
107 1 0.257145 0.0153032 0.00894432 0.00593888 6.43614e-05 0.00115585 -5.82406e-11 -1.54603e-10 2.21817e-10 5e-05 1.46608e-10 
108 1 0.264095 0.0178799 0.00704749 0.00607345 0.000153925 -0.000330307 1.81182e-10 -1.96538e-10 1.81824e-12 5e-05 1.46608e-10 
109 1 0.264147 0.0177154 0.00706378 0.00599627 0.00012592 -0.00032207 -1.18354e-10 2.41167e-11 7.8831e-12 5e-05 1.46608e-10 
110 1 0.263632 0.0170409 0.0074639 0.005595 0.000455383 -0.00021494 -3.25312e-10 -6.49274e-11 -2.36312e-11 5e-05 1.46608e-10 
111 1 0.263596 0.0169022 0.00760353 0.00547021 0.000445887 -0.000210788 3.77138e-11 -5.51113e-12 -4.69637e-11 5e-05 1.46608e-10 
112 1 0.257274 0.0156808 0.00850305 0.00591453 1.27906e-05 0.00123068 -1.66215e-11 3.93592e-11 -1.29763e-10 5e-05 1.46608e-10 
113 1 0.257693 0.0172723 0.00722994 0.00550992 -0.000759138 0.00019902 8.56359e-11 -2.14062e-11 -3.4219e-11 5e-05 1.46608e-10 
114 1 0.257731 0.0174507 0.00715094 0.00550787 -0.000680924 0.000374419 2.07596e-11 4.18088e-11 -8.65958e-14 5e-05 1.46608e-10 
115 1 0.263918 0.0171121 0.00738605 0.00559137 -0.000210754 -0.000578278 8.01591e-11 3.70442e-11 -2.33643e-10 5e-05 1.46608e-10 
116 1 0.263922 0.0179138 0.00705245 0.00616274 0.000272673 -0.000345963 4.06075e-11 -2.52098e-10 8.87888e-11 5e-05 1.46608e-10 
117 1 0.263915 0.0174605 0.00710765 0.00569481 0.000345901 -0.000158004 9.83481e-11 -3.39567e-11 -1.53118e-10 5e-05 1.46608e-10 
118 1 0.257921 0.0171019 0.00732591 0.00539252 -0.000840915 0.000232698 2.84868e-10 -9.82182e-11 4.67995e-11 5e-05 1.46608e-10 
119 1 0.264117 0.0179768 0.0070352 0.00605622 4.25788e-05 -0.000315521 1.26063e-10 6.8481e-10 -8.90304e-11 5e-05 1.46608e-10 
120 1 0.263638 0.0167198 0.0077912 0.00561837 0.000371463 -0.000131846 -1.45253e-10 3.29624e-11 -2.99776e-11 5e-05 1.46608e-10 
121 1 0.263929 0.0183615 0.00700051 0.00624376 0.000319673 -0.00035662 8.34265e-11 2.92814e-10 -2.3043e-11 5e-05 1.46608e-10 
122 1 0.263723 0.0173917 0.00711981 0.00582115 0.000423387 -0.000175765 2.15607e-10 9.58498e-11 -8.42235e-12 5e-05 1.46608e-10 
123 1 0.258175 0.0178604 0.00714673 0.00575233 -0.000823959 0.000413147 -1.85584e-10 9.20825e-11 -1.53209e-12 5e-05 1.46608e-10 
124 1 0.263518 0.0166257 0.00788175 0.00651884 0.000298339 -1.55204e-05 1.04151e-11 4.49477e-11 -4.33309e-12 5e-05 1.46608e-10 
125 1 0.26382 0.017428 0.00711361 0.00574355 0.000369883 -0.00033517 2.53902e-11 -2.42523e-10 -1.36896e-11 5e-05 1.46608e-10 
127 1 0.257209 0.01549 0.00872523 0.00592987 3.02775e-05 0.00121821 4.03239e-11 1.08622e-10 -1.07946e-10 5e-05 1.46608e-10 
128 1 0.26345 0.0164201 0.00808918 0.00579482 0.000395821 -0.000163203 -2.12671e-10 -1.62547e-10 1.49761e-10 5e-05 1.46608e-10 
129 1 0.26385 0.0176828 0.00716893 0.00578088 0.000551582 -0.000476512 -2.96224e-11 -1.4809e-10 1.27713e-11 5e-05 1.46608e-10 
130 1 0.257821 0.017481 0.00712003 0.00550887 -0.000658373 0.000395524 -1.59273e-11 4.65155e-12 -8.8945e-11 5e-05 1.46608e-10 
131 1 0.257845 0.0175781 0.00712206 0.00561207 -0.000677531 0.000408374 3.93289e-12 8.3664e-11 1.58756e-11 5e-05 1.46608e-10 
132 1 0.26382 0.0170919 0.00741988 0.00562742 0.000244024 -0.000262381 -3.73425e-10 1.27863e-10 1.63216e-10 5e-05 1.46608e-10 
133 1 0.263944 0.0180106 0.00704018 0.00617932 0.000273423 -0.000348356 1.17896e-10 -9.68054e-11 7.10128e-11 5e-05 1.46608e-10 
134 1 0.2639 0.0178169 0.00706473 0.00616567 0.000308609 -0.00035 4.17429e-12 -7.37585e-11 2.81256e-11 5e-05 1.46608e-10 
135 1 0.264051 0.0176862 0.00707203 0.00599738 0.00016158 -0.000327697 -1.51707e-10 -8.21201e-11 -1.54559e-11 5e-05 1.46608e-10 
136 1 0.257787 0.0169132 0.00745484 0.00534256 -0.00082373 0.000221565 9.46635e-11 -2.10252e-11 -2.45533e-11 5e-05 1.46608e-10 
137 1 0.263752 0.0175485 0.00719097 0.00578086 0.000609937 -0.0004725 -7.66739e-11 -1.41706e-10 -6.6603e-11 5e-05 1.46608e-10 
138 1 0.2638 0.0177802 0.00707408 0.00590601 0.000397884 -0.000343646 3.78454e-11 -2.21599e-10 -1.92774e-12 5e-05 1.46608e-10 
140 1 0.263686 0.0172487 0.00725456 0.00579511 0.000435966 -0.000173673 -2.14802e-10 -1.38804e-10 8.38029e-14 5e-05 1.46608e-10 
141 1 0.257631 0.016257 0.0078851 0.00548239 -0.000861492 0.000234936 -1.35417e-10 -7.85406e-11 -7.35756e-12 5e-05 1.46608e-10 
142 1 0.257993 0.0174437 0.00713234 0.00562669 -0.00080575 0.000404256 -3.84423e-11 2.35002e-10 9.05522e-12 5e-05 1.46608e-10 
143 1 0.257166 0.0153665 0.00887006 0.00594391 5.83258e-05 0.00118742 -9.69203e-11 -1.12306e-10 9.0207e-11 5e-05 1.46608e-10 
144 1 0.257959 0.0172678 0.00722079 0.00548722 -0.000826288 0.000303096 -6.14347e-11 1.05561e-10 3.08371e-11 5e-05 1.46608e-10 
146 1 0.257317 0.0158184 0.00836768 0.0058716 1.41684e-05 0.00125319 -1.3804e-10 -2.01381e-12 1.12095e-10 5e-05 1.46608e-10 
147 1 0.257805 0.0173832 0.00715204 0.00544673 -0.000750665 0.000162739 6.28589e-11 3.70534e-11 -5.49403e-11 5e-05 1.46608e-10 
148 1 0.25765 0.016339 0.00783134 0.00541701 -0.00084731 0.000233828 3.90524e-10 -1.74044e-10 4.82007e-12 5e-05 1.46608e-10 
149 1 0.263561 0.0167635 0.00774338 0.00541471 0.000446847 -0.000216872 8.41595e-12 8.93544e-11 -7.23467e-11 5e-05 1.46608e-10 
150 1 0.258005 0.0182649 0.00713569 0.00580371 -0.000765396 0.000417834 2.04011e-11 -2.44547e-10 -6.85947e-12 5e-05 1.46608e-10 
151 1 0.257928 0.0179701 0.00712922 0.00577636 -0.000787089 0.000413362 1.62996e-10 9.4548e-11 1.32585e-11 5e-05 1.46608e-10 
153 1 0.25767 0.016421 0.00777757 0.00543644 -0.000851166 0.000237153 1.38018e-10 -9.27238e-11 1.1136e-11 5e-05 1.46608e-10 
154 1 0.257308 0.0157424 0.00843206 0.00591258 9.5138e-06 0.00123666 -5.57987e-11 2.11766e-12 -4.44046e-11 5e-05 1.46608e-10 
155 1 0.25734 0.0158805 0.00829273 0.00579377 2.39121e-05 0.00124823 7.05624e-11 3.4124e-12 1.29176e-10 5e-05 1.46608e-10 
156 1 0.257611 0.0161815 0.00794927 0.00565693 -0.000113857 0.00134987 4.27524e-10 -1.32618e-11 6.59062e-11 5e-05 1.46608e-10 
157 1 0.0219312 0.0187687 0.00551176 -3.83618e-14 8.16537e-14 2.95887e-13 -2.52523e-22 -5.83317e-22 1.24697e-22 5e-05 1.46608e-10 
158 1 0.257709 0.016585 0.00767002 0.00533803 -0.000835884 0.000228704 6.26809e-12 2.89923e-11 -1.37773e-11 5e-05 1.46608e-10 
159 1 0.263839 0.0171607 0.00734976 0.00573018 5.28839e-05 -0.000477537 -6.01618e-11 -1.24239e-10 6.2097e-11 5e-05 1.46608e-10 
160 1 0.257812 0.0178389 0.00712042 0.00590441 -0.000720552 0.000420248 2.54253e-11 1.78015e-11 -5.47308e-12 5e-05 1.46608e-10 
162 1 0.25792 0.017816 0.00721001 0.0058513 -0.00077008 0.000443433 4.50854e-11 -2.19552e-11 -1.62331e-11 5e-05 1.46608e-10 
164 1 0.257398 0.0160653 0.00806615 0.00560371 -0.000169147 0.00101917 -2.72023e-11 -1.17342e-10 -7.48795e-11 5e-05 1.46608e-10 
165 1 0.258033 0.0180015 0.00713694 0.00580321 -0.00078504 0.000416805 1.91202e-10 4.75714e-11 -5.58034e-12 5e-05 1.46608e-10 
166 1 0.26382 0.0178773 0.00706185 0.00620613 0.00032626 -0.000350369 -1.43292e-10 -2.89764e-10 9.32955e-11 5e-05 1.46608e-10 
167 1 0.257894 0.0182117 0.00712751 0.00583129 -0.000780519 0.000415362 -8.8494e-11 -4.24396e-10 8.88345e-11 5e-05 1.46608e-10 
168 1 0.258078 0.0181971 0.00714078 0.00577018 -0.000728557 0.000410261 7.93801e-10 -2.01178e-10 1.33951e-10 5e-05 1.46608e-10 
169 1 0.257916 0.0183093 0.00712937 0.00581825 -0.000796377 0.000417485 -1.06393e-10 -4.3936e-10 2.03244e-11 5e-05 1.46608e-10 
170 1 0.257983 0.0181672 0.00713876 0.00581585 -0.000854815 0.000147155 3.81154e-10 -9.63032e-11 1.57923e-10 5e-05 1.46608e-10 
171 1 0.264009 0.0183011 0.00700338 0.00623686 0.000255075 -0.000350528 -2.2522e-10 1.62836e-10 -4.74143e-12 5e-05 1.46608e-10 
172 1 0.257673 0.0171903 0.00728347 0.00548712 -0.000766825 0.000178359 1.02089e-10 1.49441e-11 -2.44151e-11 5e-05 1.46608e-10 
173 1 0.264041 0.0180423 0.00703154 0.00619694 0.000212806 -0.000342408 2.99399e-10 1.07697e-10 -3.38951e-11 5e-05 1.46608e-10 
174 1 0.257438 0.01621 0.00793421 0.00563063 -0.000536486 0.000615759 4.49104e-11 1.94871e-10 4.69571e-10 5e-05 1.46608e-10 
176 1 0.257729 0.0170517 0.00736921 0.00545317 -0.00077643 0.000182152 -5.5149e-12 3.89298e-11 -2.8874e-11 5e-05 1.46608e-10 
177 1 0.257434 0.0158981 0.00826486 0.00560045 -3.70545e-05 0.00123292 4.13301e-10 -8.03512e-11 1.94402e-10 5e-05 1.46608e-10 
178 1 0.257769 0.0174225 0.00723897 0.00554689 -0.000842701 0.000306588 -3.09192e-11 3.17213e-11 -2.25927e-12 5e-05 1.46608e-10 
179 1 0.257863 0.0179026 0.00721117 0.00589517 -0.000748756 0.000432538 -9.23026e-12 3.60153e-10 8.60713e-12 5e-05 1.46608e-10 
182 1 0.263951 0.0184584 0.00698823 0.00623568 0.000257696 -0.000349262 -4.42488e-11 -2.04253e-10 2.90032e-11 5e-05 1.46608e-10 
183 1 0.257778 0.0176436 0.00721635 0.00543755 -0.000602995 0.000382824 3.66815e-11 1.0942e-10 1.57504e-10 5e-05 1.46608e-10 
184 1 0.263889 0.0180252 0.00712264 0.00620402 0.000340346 -0.000339667 -1.81268e-10 -1.3558e-10 3.40324e-11 5e-05 1.46608e-10 
185 1 0.257977 0.0173541 0.00717359 0.00556266 -0.000816649 0.000354797 -4.89527e-11 1.89024e-10 1.48498e-11 5e-05 1.46608e-10 
186 1 0.25827 0.0178891 0.00715373 0.0057578 -0.000818288 0.000413386 -2.08868e-10 1.99136e-10 -2.0611e-11 5e-05 1.46608e-10 
187 1 0.263965 0.0181075 0.00702791 0.00623513 0.000270184 -0.000352423 1.93372e-10 2.08328e-10 -8.62341e-11 5e-05 1.46608e-10 
188 1 0.263799 0.0173436 0.00716288 0.00582205 0.000431357 -0.000179891 -1.62244e-10 -1.04057e-10 1.71829e-10 5e-05 1.46608e-10 
189 1 0.263907 0.0182646 0.00701278 0.00624591 0.000309079 -0.000358284 -1.86831e-11 1.94152e-10 -2.24745e-11 5e-05 1.46608e-10 
190 1 0.251939 0.0183851 0.00690083 0.00654108 0.000949969 -0.000795584 5.28942e-13 5.91682e-13 -2.89098e-13 5e-05 1.46608e-10 
191 1 0.263578 0.0168329 0.00767339 0.00540852 0.000445947 -0.000216541 -5.72047e-11 8.82788e-11 -6.60258e-11 5e-05 1.46608e-10 
192 1 0.257711 0.0173572 0.00718049 0.00551978 -0.000720565 0.000263364 2.58488e-11 2.45156e-11 -2.75248e-11 5e-05 1.46608e-10 
193 1 0.26403 0.018398 0.00699111 0.00623953 0.000258244 -0.000349884 -3.91675e-11 -2.85792e-11 -8.90467e-12 5e-05 1.46608e-10 
194 1 0.257899 0.0177178 0.00720841 0.00583694 -0.00075044 0.000421109 2.5533e-11 5.48638e-11 5.40635e-11 5e-05 1.46608e-10 
195 1 0.257908 0.0178713 0.00712751 0.00590009 -0.000728252 0.000427363 -1.25874e-11 2.00886e-11 4.27588e-13 5e-05 1.46608e-10 
196 1 0.257939 0.0176091 0.00713597 0.00578555 -0.000771302 0.000383109 -1.78239e-10 1.30335e-10 -2.47371e-11 5e-05 1.46608e-10 
197 1 0.251609 0.0169738 0.00758896 0.00593222 0.00138279 -0.000969292 5.84211e-12 1.40536e-11 -7.0437e-12 5e-05 1.46608e-10 
198 1 0.257862 0.0168559 0.00748722 0.00536069 -0.00082837 0.000222099 1.29713e-10 -7.15579e-11 4.73995e-11 5e-05 1.46608e-10 
199 1 0.257824 0.017784 0.00720301 0.00585972 -0.000732428 0.000408175 -1.14375e-11 5.19757e-11 2.08522e-11 5e-05 1.46608e-10 
200 1 0.257252 0.0156167 0.00857673 0.0059251 1.62575e-05 0.00123073 2.54831e-11 1.10637e-10 -1.60912e-10 5e-05 1.46608e-10 
201 1 0.258003 0.0179039 0.00713442 0.00588817 -0.000670588 0.000425962 3.48602e-11 2.90473e-10 9.10037e-12 5e-05 1.46608e-10 
202 1 0.257728 0.0166671 0.00761618 0.00527991 -0.000816949 0.000219434 4.77003e-10 2.561e-11 -4.45959e-11 5e-05 1.46608e-10 
203 1 0.26388 0.0177197 0.00707697 0.00585907 0.000339294 -0.000338863 3.53302e-11 -6.53274e-11 1.02839e-11 5e-05 1.46608e-10 
204 1 0.258035 0.0176392 0.00713596 0.00580269 -0.000813584 0.000416518 -1.69795e-10 1.24646e-10 -1.53792e-11 5e-05 1.46608e-10 
205 1 0.257574 0.0163954 0.00779951 0.0055017 -0.000769603 0.000186328 9.06139e-11 -2.07992e-10 6.79066e-11 5e-05 1.46608e-10 
206 1 0.257614 0.0165594 0.00769197 0.00546064 -0.000766018 0.000174644 -1.01282e-10 -7.97403e-11 2.79189e-11 5e-05 1.46608e-10 
207 1 0.257495 0.0160882 0.00804093 0.00566974 -2.12433e-05 0.00124667 8.56855e-11 -1.05519e-10 2.10712e-10 5e-05 1.46608e-10 
208 1 0.257901 0.0170201 0.00737963 0.0053525 -0.000832186 0.000224952 2.73854e-10 -1.04992e-10 5.70657e-11 5e-05 1.46608e-10 
209 1 0.257825 0.0170776 0.0073471 0.00542202 -0.00082379 0.000215913 -2.19976e-10 -2.7404e-10 1.88607e-10 5e-05 1.46608e-10 
210 1 0.263673 0.0168585 0.00765147 0.0053772 0.000417354 -0.000188462 1.65418e-10 5.51478e-11 5.182e-11 5e-05 1.46608e-10 
211 1 0.26369 0.0169279 0.00758158 0.00536594 0.000433685 -0.000205849 1.54622e-10 1.61572e-10 -8.79009e-11 5e-05 1.46608e-10 
212 1 0.258104 0.017931 0.00714184 0.00576562 -0.000810382 0.000414806 -4.19341e-12 8.5547e-11 -7.14117e-12 5e-05 1.46608e-10 
213 1 0.263886 0.0181678 0.00702505 0.00624525 0.00031274 -0.000357387 6.03958e-11 5.96688e-11 -6.26075e-11 5e-05 1.46608e-10 
214 1 0.263763 0.017205 0.0073024 0.00577761 0.000448081 -0.000194172 -7.2008e-11 -2.04533e-11 -1.56964e-10 5e-05 1.46608e-10 
215 1 0.251836 0.0179437 0.00711604 0.00633023 0.000998024 -0.000807334 1.2135e-12 8.99155e-13 -5.11885e-13 5e-05 1.46608e-10 
216 1 0.257475 0.0160248 0.00811568 0.00567496 -3.72785e-05 0.00124732 -1.07339e-10 -1.01757e-10 1.69208e-10 5e-05 1.46608e-10 
217 1 0.263972 0.0185553 0.00697597 0.00624868 0.000267594 -0.000351334 -7.22778e-11 -2.46022e-10 3.64673e-11 5e-05 1.46608e-10 
218 1 0.25775 0.0175484 0.00714188 0.00545885 -0.000666726 0.00041816 -5.46532e-12 9.46757e-12 7.76044e-11 5e-05 1.46608e-10 
219 1 0.26354 0.0166945 0.00781267 0.00598757 0.00036568 -0.000112298 2.85428e-09 -2.04126e-09 1.08999e-09 5e-05 1.46608e-10 
220 1 0.257866 0.0176759 0.00712385 0.00577551 -0.000710711 0.000408591 2.54349e-12 1.00457e-10 2.43422e-10 5e-05 1.46608e-10 
222 1 0.263991 0.0173953 0.00711359 0.0056345 0.000283219 -4.636e-05 1.24698e-10 3.15113e-11 -4.01725e-11 5e-05 1.46608e-10 
224 1 0.257652 0.0167235 0.00758437 0.00535975 -0.000757552 0.00017642 7.06678e-12 -7.797e-11 8.21547e-11 5e-05 1.46608e-10 
225 1 0.263614 0.0169716 0.00753368 0.00554935 0.000447973 -0.000209671 -4.16394e-11 -3.73208e-11 -2.43e-11 5e-05 1.46608e-10 
226 1 0.257868 0.0174204 0.00722322 0.00553746 -0.000802357 0.000216792 -1.51099e-11 8.09185e-12 -4.86555e-11 5e-05 1.46608e-10 
227 1 0.251856 0.0180319 0.00707304 0.00637152 0.000984851 -0.000803244 1.08215e-12 8.68673e-13 -4.43757e-13 5e-05 1.46608e-10 
228 1 0.251794 0.0177673 0.00720206 0.00624853 0.00102833 -0.000817441 1.48072e-12 1.32508e-12 -6.79381e-13 5e-05 1.46608e-10 
229 1 0.258129 0.0180305 0.00714392 0.00582671 -0.000836544 0.00041993 1.64606e-10 -7.93192e-11 2.19215e-11 5e-05 1.46608e-10 
230 1 0.257557 0.016698 0.00760624 0.00541046 -0.000761973 0.000179117 2.89022e-11 7.31049e-11 -4.77108e-11 5e-05 1.46608e-10 
232 1 0.257962 0.0179061 0.00722589 0.00590003 -0.000744998 0.000433503 -5.01785e-11 2.42487e-10 -1.30334e-11 5e-05 1.46608e-10 
233 1 0.257872 0.018114 0.00712565 0.00585388 -0.000752915 0.000419441 -9.53985e-11 -5.06757e-10 -7.48372e-12 5e-05 1.46608e-10 
234 1 0.263942 0.0177183 0.00715655 0.00587197 0.000363315 -0.000377115 -4.01746e-11 -1.31952e-10 1.17756e-10 5e-05 1.46608e-10 
235 1 0.257518 0.016534 0.00771379 0.0054544 -0.000773235 0.000181821 1.6459e-11 -8.41086e-11 8.37254e-11 5e-05 1.46608e-10 
236 1 0.257615 0.0169441 0.00744493 0.00538727 -0.000750891 0.000172249 1.02389e-10 3.45017e-11 -2.71414e-11 5e-05 1.46608e-10 
237 1 0.257634 0.0170262 0.00739109 0.00542323 -0.000756348 0.000172452 6.57347e-12 3.8667e-11 -1.72906e-11 5e-05 1.46608e-10 
239 1 0.251509 0.0165332 0.00780364 0.0058945 0.00155188 -0.00104767 4.90638e-12 1.77206e-11 -8.6389e-12 5e-05 1.46608e-10 
240 1 0.251568 0.0167978 0.00767477 0.00573601 0.00142183 -0.000977569 2.06376e-12 9.31484e-12 -4.59849e-12 5e-05 1.46608e-10 
241 1 0.251489 0.0164451 0.00784656 0.00590147 0.00159219 -0.0010672 5.26902e-12 1.81109e-11 -8.91102e-12 5e-05 1.46608e-10 
242 1 0.257785 0.0165278 0.00770237 0.00537001 -0.000808194 0.000208695 1.71332e-10 5.86262e-11 -4.75941e-11 5e-05 1.46608e-10 
243 1 0.257918 0.0175101 0.00712714 0.00551214 -0.000778814 0.000396762 -1.06832e-10 9.67802e-11 -8.12342e-11 5e-05 1.46608e-10 
244 1 0.251529 0.0166215 0.00776063 0.00569923 0.0014286 -0.000978798 1.4739e-12 5.97321e-12 -2.65837e-12 5e-05 1.46608e-10 
246 1 0.251712 0.0174145 0.0073741 0.00608847 0.00110315 -0.000844585 2.19286e-12 2.43691e-12 -1.24574e-12 5e-05 1.46608e-10 
247 1 0.257459 0.0162887 0.00787605 0.00561456 -0.000727532 0.000352513 4.11959e-11 3.08544e-11 2.80785e-10 5e-05 1.46608e-10 
248 1 0.257769 0.0172156 0.0072617 0.00547357 -0.000803505 0.000202165 1.0243e-10 -9.34775e-11 7.54543e-11 5e-05 1.46608e-10 
249 1 0.25165 0.0171499 0.00750307 0.00597007 0.00116608 -0.000868269 2.95616e-12 3.8461e-12 -1.98246e-12 5e-05 1.46608e-10 
250 1 0.257535 0.0162362 0.00791381 0.00569669 -0.000248843 0.000955754 2.17538e-10 -4.36753e-11 1.83225e-10 5e-05 1.46608e-10 
251 1 0.263858 0.0176229 0.00708924 0.00578236 0.000360097 -0.000337018 -2.91221e-11 -1.13659e-10 -7.72428e-11 5e-05 1.46608e-10 
252 1 0.251733 0.0175026 0.0073311 0.00612814 0.00108298 -0.000837087 1.99521e-12 2.063e-12 -1.04343e-12 5e-05 1.46608e-10 
253 1 0.251918 0.0182967 0.0069439 0.00649811 0.000956237 -0.000796301 6.99677e-13 5.6365e-13 -2.96317e-13 5e-05 1.46608e-10 
254 1 0.251671 0.0172381 0.00746007 0.0060097 0.0011457 -0.000860669 2.65472e-12 3.17609e-12 -1.64903e-12 5e-05 1.46608e-10 
255 1 0.257102 0.0152178 0.00912013 0.00583417 -0.00119959 0.000440727 -7.08851e-11 -5.65214e-11 2.8758e-10 5e-05 1.46608e-10 
256 1 0.258056 0.0177369 0.00713779 0.00584482 -0.000813233 0.000419573 -4.28935e-11 1.2757e-10 -4.55784e-12 5e-05 1.46608e-10 
257 1 0.25769 0.0165029 0.0077238 0.00538053 -0.000842053 0.000232189 4.48145e-11 -1.7582e-11 4.26102e-11 5e-05 1.46608e-10 
258 1 0.257749 0.0171338 0.00731542 0.00545997 -0.000794116 0.000194919 1.5818e-11 -6.3863e-11 4.65491e-11 5e-05 1.46608e-10 
259 1 0.251753 0.0175908 0.0072881 0.00616798 0.00106359 -0.000829965 1.88284e-12 1.5644e-12 -8.76918e-13 5e-05 1.46608e-10 