ITEM: TIMESTEP
44600000
ITEM: NUMBER OF ATOMS
275
ITEM: BOX BOUNDS ff ff ff
-0.02 0.43
-0.02 0.06
-0.02 0.07
ITEM: ATOMS id type x y z vx vy vz fx fy fz radius mass 
1 1 0.27332 0.0181993 0.00704776 0.00570765 -0.00027955 0.00013887 2.79556e-10 1.52748e-10 5.80097e-11 5e-05 1.46608e-10 
2 1 0.272975 0.0170456 0.00733948 0.00614455 -0.000355701 0.000260102 -1.7702e-10 3.722e-10 6.90243e-11 5e-05 1.46608e-10 
4 1 0.273126 0.0169391 0.00741793 0.00605048 -0.000438335 3.58742e-05 -4.8618e-10 -2.00737e-10 1.6302e-10 5e-05 1.46608e-10 
5 1 0.272505 0.015636 0.00908847 0.00610118 -0.000895005 -0.000237743 -8.43723e-11 -5.11174e-11 8.49327e-11 5e-05 1.46608e-10 
6 1 0.278865 0.0165795 0.00752052 0.00576462 0.000420103 -0.000165758 7.59157e-12 4.04483e-11 -1.74108e-11 5e-05 1.46608e-10 
7 1 0.273271 0.0175548 0.0071675 0.00568054 -0.000261043 0.000291823 5.07558e-10 -4.09239e-10 7.78004e-11 5e-05 1.46608e-10 
8 1 0.272971 0.0167195 0.00765916 0.00593449 -0.00051243 9.92208e-05 2.5104e-10 -6.04323e-11 -4.46813e-11 5e-05 1.46608e-10 
9 1 0.279079 0.0174769 0.00713448 0.00571529 0.000282777 -0.000106766 7.70851e-13 -6.73598e-13 -4.88636e-13 5e-05 1.46608e-10 
10 1 0.272645 0.0159859 0.00862236 0.00604997 -0.000886619 -0.000235321 -1.37605e-11 7.7547e-11 -1.0407e-10 5e-05 1.46608e-10 
11 1 0.273195 0.0177864 0.00720356 0.00565343 -0.00019788 0.000278479 2.01344e-10 1.80372e-10 2.21314e-10 5e-05 1.46608e-10 
12 1 0.267242 0.0170556 0.00738257 0.00626281 -0.000126572 0.000206986 9.17231e-11 -1.95535e-10 1.15876e-10 5e-05 1.46608e-10 
13 1 0.272481 0.0155779 0.00916613 0.00605196 -0.000878152 -0.000246783 1.97956e-10 -1.50133e-10 1.43996e-10 5e-05 1.46608e-10 
14 1 0.267212 0.017684 0.00702976 0.00579877 -6.64408e-05 -7.6634e-05 1.63641e-10 -1.29481e-10 -3.95143e-11 5e-05 1.46608e-10 
16 1 0.267407 0.0181988 0.00694456 0.00560835 -9.98958e-06 -8.00867e-05 1.52644e-11 -1.17219e-10 -5.50323e-12 5e-05 1.46608e-10 
17 1 0.27262 0.0159278 0.00870003 0.00607647 -0.000900295 -0.000233714 -1.57609e-11 2.5586e-11 -3.13888e-11 5e-05 1.46608e-10 
19 1 0.272456 0.0155199 0.00924375 0.00666119 -0.00104102 -0.000178849 -2.11133e-11 -8.62688e-11 1.40307e-10 5e-05 1.46608e-10 
21 1 0.273312 0.0177474 0.00713215 0.0056366 -0.000236386 0.000291941 2.97184e-11 -3.78128e-10 1.1584e-10 5e-05 1.46608e-10 
22 1 0.272931 0.0165908 0.00780672 0.00585625 -0.00084189 -0.000227563 -1.24173e-10 -2.70836e-10 4.58773e-10 5e-05 1.46608e-10 
23 1 0.267443 0.017939 0.00698275 0.00559863 -5.03836e-05 -7.17471e-05 5.55328e-12 7.47807e-11 1.66343e-11 5e-05 1.46608e-10 
24 1 0.278993 0.0171179 0.0072889 0.00632818 0.000167471 -5.54222e-05 -1.46811e-12 -5.26012e-12 3.09484e-12 5e-05 1.46608e-10 
25 1 0.272688 0.0161035 0.00846653 0.00593706 -0.000847783 -0.000258954 -4.60237e-11 1.76019e-10 -2.07036e-10 5e-05 1.46608e-10 
26 1 0.279037 0.0172973 0.00721175 0.00633328 0.000166952 -5.52063e-05 -6.24152e-12 -1.52232e-13 -1.93357e-13 5e-05 1.46608e-10 
27 1 0.26705 0.0170006 0.00741096 0.00620579 -0.000157256 0.00022413 -1.45921e-10 1.23234e-10 -7.68872e-11 5e-05 1.46608e-10 
28 1 0.27305 0.0169879 0.00737204 0.00619711 -0.000489762 7.80131e-05 -3.87845e-10 -1.21722e-10 4.26352e-10 5e-05 1.46608e-10 
29 1 0.272429 0.0154625 0.00932108 0.00659896 -0.00102032 -0.000191085 8.66758e-11 -3.40851e-11 8.91453e-12 5e-05 1.46608e-10 
30 1 0.272762 0.0163415 0.00815401 0.00556838 -0.000743455 -0.000308252 2.22891e-10 -4.12853e-12 -3.20535e-11 5e-05 1.46608e-10 
31 1 0.273345 0.01749 0.00718322 0.00574666 -0.00021404 0.000291647 8.11256e-13 -9.05729e-10 1.54594e-10 5e-05 1.46608e-10 
32 1 0.27271 0.0161624 0.00838884 0.00587156 -0.000823688 -0.000274016 1.69632e-10 1.17209e-10 -1.71067e-10 5e-05 1.46608e-10 
33 1 0.278885 0.0166696 0.00748175 0.00631416 0.000164844 -5.43172e-05 1.19373e-12 -2.22535e-12 -2.02042e-13 5e-05 1.46608e-10 
34 1 0.272605 0.015871 0.00878078 0.00609148 -0.0009113 -0.000239742 -6.76247e-11 -3.89207e-11 3.80886e-11 5e-05 1.46608e-10 
35 1 0.27323 0.0173619 0.00720288 0.0055544 -0.00025663 0.000288912 -2.86319e-10 -1.70258e-10 3.30672e-11 5e-05 1.46608e-10 
36 1 0.279136 0.0177485 0.00702109 0.00585744 0.000318378 6.18368e-05 9.79825e-13 1.16224e-12 -2.36715e-13 5e-05 1.46608e-10 
37 1 0.273107 0.0168721 0.00748962 0.00621923 -0.000312195 -9.95053e-05 -3.5969e-10 6.0344e-10 -8.39075e-10 5e-05 1.46608e-10 
38 1 0.273186 0.0171731 0.00725246 0.00614874 -0.000378589 0.000345207 -1.6844e-10 -2.30877e-11 -1.53013e-11 5e-05 1.46608e-10 
39 1 0.279015 0.0172076 0.00725033 0.00633079 0.00016731 -5.53745e-05 -1.77723e-13 -3.58288e-12 1.05833e-12 5e-05 1.46608e-10 
41 1 0.272551 0.0157529 0.0089329 0.00606772 -0.000890177 -0.000240145 -8.61616e-11 -7.39823e-11 1.48846e-10 5e-05 1.46608e-10 
42 1 0.273225 0.0169611 0.00738799 0.00614486 -0.000581492 0.000182963 3.88321e-10 1.9148e-11 -3.75589e-11 5e-05 1.46608e-10 
44 1 0.273282 0.0172005 0.00723625 0.00615602 -0.000422333 0.00034183 1.54447e-10 9.94142e-11 5.3119e-11 5e-05 1.46608e-10 
45 1 0.278906 0.0167593 0.00744318 0.00631695 0.000165288 -5.45484e-05 -9.10707e-13 -3.1349e-12 3.56578e-12 5e-05 1.46608e-10 
47 1 0.272575 0.0158113 0.00885513 0.00607828 -0.000894305 -0.000235536 -1.02945e-10 -6.6272e-11 1.12031e-10 5e-05 1.46608e-10 
48 1 0.273183 0.0179732 0.00708364 0.00568033 -0.000195562 0.000238369 -1.57461e-10 -2.93312e-10 2.13481e-10 5e-05 1.46608e-10 
49 1 0.279098 0.0175671 0.00709569 0.00575996 0.000274642 -0.000103031 2.49997e-12 -5.34769e-13 -3.64983e-14 5e-05 1.46608e-10 
50 1 0.272725 0.0162225 0.00831031 0.00577242 -0.000796312 -0.000285814 -1.16111e-10 1.71083e-10 -1.68955e-10 5e-05 1.46608e-10 
51 1 0.273366 0.0175863 0.00716555 0.00581641 -0.000260572 0.000301867 -3.93485e-10 -3.75454e-10 4.35162e-11 5e-05 1.46608e-10 
52 1 0.267306 0.0173111 0.00723338 0.00610411 8.45572e-05 7.85902e-05 -2.34596e-10 2.46197e-10 -1.63076e-10 5e-05 1.46608e-10 
53 1 0.27895 0.0169386 0.00736604 0.00632263 0.000166728 -5.51222e-05 -2.40349e-12 -7.29481e-12 4.49387e-12 5e-05 1.46608e-10 
54 1 0.273522 0.0179066 0.0071106 0.00565879 -0.000318574 0.000307287 -2.01714e-11 6.83884e-11 -2.74591e-12 5e-05 1.46608e-10 
55 1 0.26723 0.0173669 0.00719889 0.00606875 5.25941e-05 9.87751e-05 -3.08316e-10 7.30968e-11 -1.1581e-11 5e-05 1.46608e-10 
56 1 0.273502 0.0178103 0.00712826 0.00561038 -0.000324175 0.000305567 -1.80895e-10 8.89948e-11 -3.53773e-11 5e-05 1.46608e-10 
57 1 0.278928 0.0168489 0.00740461 0.00631983 0.000166001 -5.4824e-05 -2.68217e-13 -6.85119e-12 8.86048e-13 5e-05 1.46608e-10 
59 1 0.378022 0.019866 0.005332 -5.01976e-15 -7.41204e-15 7.69802e-14 -1.4243e-23 4.65289e-24 -4.1359e-25 5e-05 1.46608e-10 
60 1 0.273304 0.0172965 0.00721869 0.00552481 -0.000316294 0.00030026 -1.05785e-10 -1.05849e-10 6.36033e-12 5e-05 1.46608e-10 
61 1 0.272528 0.0156944 0.0090107 0.00609288 -0.000895349 -0.000237092 -2.64199e-10 -9.66441e-12 8.55859e-11 5e-05 1.46608e-10 
62 1 0.273208 0.0172678 0.00722918 0.00617629 -0.000376422 0.000320313 -8.18101e-11 -9.32794e-11 -9.79811e-11 5e-05 1.46608e-10 
63 1 0.27328 0.0181699 0.00713423 0.00570654 -0.000280059 0.000144631 4.73505e-11 8.45455e-11 -6.64719e-12 5e-05 1.46608e-10 
64 1 0.278972 0.0170283 0.00732747 0.00632549 0.000167239 -5.53641e-05 -1.22736e-12 -7.04871e-12 2.19272e-12 5e-05 1.46608e-10 
65 1 0.267269 0.0175365 0.00709984 0.0058619 4.21331e-05 0.000110772 -2.35995e-10 1.47416e-10 -1.3825e-10 5e-05 1.46608e-10 
66 1 0.267387 0.0179625 0.0070626 0.0056541 5.54706e-05 -6.25302e-05 -1.70578e-10 7.96032e-11 -4.08891e-11 5e-05 1.46608e-10 
67 1 0.273332 0.0178438 0.00711448 0.00563882 -0.000228937 0.000287817 -6.80461e-12 2.05315e-10 -6.7352e-11 5e-05 1.46608e-10 
68 1 0.273113 0.0172345 0.00722238 0.00619939 -0.000322195 0.000331894 6.46427e-11 1.36029e-10 -1.63594e-11 5e-05 1.46608e-10 
69 1 0.273407 0.0177789 0.0071302 0.00563516 -0.000256717 0.000293355 -3.93075e-12 2.25136e-10 -3.52278e-11 5e-05 1.46608e-10 
70 1 0.279058 0.0173869 0.00717318 0.0063357 0.000166301 -5.49092e-05 6.11005e-12 -1.7814e-12 1.43366e-12 5e-05 1.46608e-10 
71 1 0.267579 0.0181584 0.00694816 0.00563104 -2.67933e-05 2.28131e-05 4.82536e-11 1.71621e-11 8.05067e-12 5e-05 1.46608e-10 
72 1 0.273394 0.0181329 0.00706144 0.00570067 -0.000224714 0.000285033 1.23201e-12 -1.43002e-10 -5.52161e-11 5e-05 1.46608e-10 
73 1 0.272665 0.016045 0.00854437 0.00600673 -0.000872122 -0.00024443 -5.50537e-11 1.29175e-10 -1.65772e-10 5e-05 1.46608e-10 
74 1 0.272743 0.0162821 0.00823215 0.00563472 -0.000761536 -0.00030207 -2.00941e-10 1.36352e-10 -1.65614e-10 5e-05 1.46608e-10 
76 1 0.267168 0.0171124 0.00734753 0.00622639 -0.00015612 0.00022394 1.6659e-10 -6.68657e-11 4.97493e-11 5e-05 1.46608e-10 
77 1 0.272998 0.0171218 0.00727894 0.00621707 -0.000339561 0.000293658 -3.76814e-10 2.71736e-10 1.63216e-10 5e-05 1.46608e-10 
78 1 0.266549 0.0154782 0.00864897 0.0055925 -0.000742545 -0.000665046 3.14679e-10 5.52363e-09 -1.51415e-09 5e-05 1.46608e-10 
79 1 0.26748 0.0184965 0.00690786 0.00536271 -9.15985e-05 3.11986e-05 -2.75891e-10 -7.96939e-11 4.63058e-12 5e-05 1.46608e-10 
80 1 0.273073 0.0170671 0.00731559 0.00623482 -0.000441498 0.000160839 -2.9476e-10 4.44375e-12 -5.04893e-12 5e-05 1.46608e-10 
82 1 0.267312 0.0180283 0.00705389 0.00560415 -3.53808e-05 -0.000101364 4.10502e-11 3.32026e-11 -1.1252e-10 5e-05 1.46608e-10 
83 1 0.267264 0.0171404 0.00733306 0.0063856 -1.40287e-05 0.000143418 3.72478e-11 -4.56479e-11 2.96724e-11 5e-05 1.46608e-10 
84 1 0.279117 0.0176572 0.0070569 0.00580472 0.00026647 -9.94607e-05 1.56e-12 2.93337e-13 4.76726e-13 5e-05 1.46608e-10 
85 1 0.267623 0.0183575 0.00692481 0.00563973 3.85436e-05 1.69688e-05 -1.40017e-11 9.56715e-11 -1.81683e-11 5e-05 1.46608e-10 
86 1 0.273259 0.0171047 0.00725372 0.00610435 -0.000426135 0.000350654 1.87525e-11 6.30372e-11 3.31579e-11 5e-05 1.46608e-10 
87 1 0.273032 0.0169199 0.00744463 0.00607446 -0.000403841 2.53592e-05 -3.15679e-10 4.07501e-10 2.97427e-10 5e-05 1.46608e-10 
88 1 0.273176 0.0175233 0.00716945 0.00552951 -0.000238436 0.000281393 -2.27249e-10 -6.71623e-11 1.53686e-11 5e-05 1.46608e-10 
89 1 0.273291 0.0178165 0.00720134 0.00565034 -0.000217066 0.000289851 1.23559e-10 2.38433e-10 -9.34029e-11 5e-05 1.46608e-10 
90 1 0.273353 0.01794 0.00709681 0.00565092 -0.000252168 0.00029334 4.32591e-11 2.91559e-10 -4.67605e-11 5e-05 1.46608e-10 
91 1 0.267221 0.0169713 0.00743181 0.0062619 -0.000146613 0.000218918 -1.03332e-10 4.33007e-11 -3.14779e-11 5e-05 1.46608e-10 
92 1 0.273101 0.0175879 0.00715376 0.00562641 -0.000164405 0.000271433 -3.77901e-11 -4.31e-11 5.13612e-11 5e-05 1.46608e-10 
93 1 0.272817 0.0165204 0.00791948 0.00566194 -0.000802801 -0.000276267 7.13968e-10 -1.13584e-10 1.51329e-10 5e-05 1.46608e-10 
94 1 0.273215 0.0178828 0.00718562 0.00564579 -0.000185147 0.000267818 1.96559e-10 1.04587e-10 -1.03793e-10 5e-05 1.46608e-10 
95 1 0.273127 0.0174895 0.00725996 0.00569734 -9.55913e-05 0.000235631 -1.78774e-10 1.4106e-10 1.46457e-10 5e-05 1.46608e-10 
96 1 0.273081 0.0174917 0.00717143 0.00561753 -0.000157219 0.000274629 -4.36444e-11 1.01436e-10 1.53984e-11 5e-05 1.46608e-10 
97 1 0.266645 0.015813 0.00830159 0.00550962 -0.000494445 -0.000273048 1.40709e-10 -1.6976e-10 1.78181e-10 5e-05 1.46608e-10 
98 1 0.2728 0.0164604 0.00799775 0.00566199 -0.000779841 -0.000284005 7.30838e-11 -1.81446e-10 1.468e-10 5e-05 1.46608e-10 
99 1 0.267197 0.0180386 0.00697141 0.00556757 -0.000111011 -6.41866e-05 -1.622e-11 1.63038e-10 -2.50423e-11 5e-05 1.46608e-10 
100 1 0.273291 0.0176511 0.00714983 0.00569186 -0.000323331 0.000307697 8.85606e-11 -2.14357e-10 1.26858e-10 5e-05 1.46608e-10 
101 1 0.267217 0.0181356 0.00695669 0.00559318 -0.000116784 -6.30935e-05 3.07512e-11 1.96978e-10 -2.5421e-11 5e-05 1.46608e-10 
102 1 0.0643568 0.0187248 0.00531097 4.3224e-15 1.04923e-14 8.29579e-14 -2.11187e-21 7.38982e-22 1.28213e-23 5e-05 1.46608e-10 
103 1 0.24257 0.0191927 0.00520306 -1.12215e-22 -2.15809e-22 -5.81428e-22 -3.23117e-27 -2.58494e-26 0 5e-05 1.46608e-10 
104 1 0.267502 0.0182299 0.00693942 0.00562913 -4.68521e-06 2.14063e-05 1.23026e-10 1.36449e-10 -2.19887e-11 5e-05 1.46608e-10 
105 1 0.266635 0.0156737 0.00844196 0.00542427 -0.000496762 -0.000260855 4.1918e-11 -2.64283e-10 1.85393e-10 5e-05 1.46608e-10 
106 1 0.267292 0.0179314 0.00706862 0.00565572 2.16889e-05 -6.48247e-05 -1.01506e-10 3.73371e-11 3.46818e-12 5e-05 1.46608e-10 
107 1 0.266569 0.0155463 0.00857832 0.00535235 -0.000462635 -0.000284805 5.07402e-10 -1.31553e-10 -6.74934e-10 5e-05 1.46608e-10 
108 1 0.273427 0.0178752 0.00711254 0.00565195 -0.000272175 0.000297173 1.70872e-11 2.36941e-10 -4.38005e-11 5e-05 1.46608e-10 
109 1 0.273481 0.017714 0.00714593 0.00553716 -0.000322048 0.000302215 -2.73981e-10 1.34482e-10 -3.56858e-11 5e-05 1.46608e-10 
110 1 0.272957 0.0169745 0.00740734 0.00604187 -0.000335935 0.000243015 1.08001e-10 2.03556e-10 -1.80694e-10 5e-05 1.46608e-10 
111 1 0.272914 0.0168341 0.00754286 0.00602798 -0.000466351 9.81057e-05 2.43394e-10 1.91662e-10 -8.3467e-11 5e-05 1.46608e-10 
112 1 0.266685 0.0159489 0.00816059 0.00555859 -0.000489127 -0.000304953 -2.36461e-10 -2.41889e-10 1.16988e-10 5e-05 1.46608e-10 
113 1 0.267115 0.0176503 0.00703041 0.00583556 7.26927e-06 -8.44158e-05 2.52266e-12 4.45514e-12 -5.82103e-13 5e-05 1.46608e-10 
114 1 0.267157 0.0178447 0.00700088 0.00582437 -0.000167902 -6.32517e-05 -1.83631e-10 -1.18366e-10 1.04617e-11 5e-05 1.46608e-10 
115 1 0.273245 0.0170281 0.00731643 0.00605619 -0.000507239 0.000233228 2.53826e-10 7.42761e-11 7.75602e-11 5e-05 1.46608e-10 
116 1 0.273258 0.0179085 0.00709877 0.00566411 -0.000197718 0.00027926 -4.22417e-12 -8.99219e-11 -2.23708e-11 5e-05 1.46608e-10 
117 1 0.27325 0.0174584 0.00718518 0.00545035 0.000147671 0.000207361 1.16741e-10 -2.57526e-11 2.28065e-11 5e-05 1.46608e-10 
118 1 0.267344 0.0174806 0.00713434 0.00592975 3.69391e-05 0.000106204 -2.43884e-10 2.10711e-10 -1.17427e-10 5e-05 1.46608e-10 
119 1 0.273448 0.0179714 0.00709488 0.0056742 -0.000292158 0.000302022 8.14782e-11 2.23899e-10 -6.09919e-11 5e-05 1.46608e-10 
120 1 0.27295 0.0166528 0.00773064 0.00588032 -0.000497962 8.83257e-05 -1.33752e-10 1.17342e-11 3.51862e-10 5e-05 1.46608e-10 
121 1 0.273264 0.0183598 0.00702151 0.00551707 -0.000262527 0.000130122 3.1205e-10 1.33398e-10 -2.78017e-11 5e-05 1.46608e-10 
122 1 0.27306 0.0173955 0.0071891 0.00619037 -0.000277344 0.000320024 1.15886e-11 3.35906e-11 4.63039e-11 5e-05 1.46608e-10 
123 1 0.267599 0.0182556 0.00693676 0.00565346 -3.99209e-05 2.49239e-05 4.40007e-11 -2.201e-11 5.57624e-12 5e-05 1.46608e-10 
124 1 0.272837 0.0165797 0.00784139 0.00564965 -0.000829753 -0.000296699 4.64424e-10 9.41169e-11 4.25139e-10 5e-05 1.46608e-10 
125 1 0.273156 0.017427 0.00718711 0.0055907 -0.000181341 0.00027426 -5.38154e-11 1.09533e-10 4.17536e-11 5e-05 1.46608e-10 
127 1 0.266626 0.0157449 0.00837222 0.00547585 -0.000493262 -0.000270171 6.44923e-11 -1.74133e-10 1.72251e-10 5e-05 1.46608e-10 
128 1 0.272782 0.016401 0.00807597 0.00559497 -0.000751339 -0.000299797 7.66663e-11 -8.44013e-11 9.49917e-11 5e-05 1.46608e-10 
129 1 0.273175 0.0176896 0.00722081 0.00561713 -0.000150654 0.00028528 8.69995e-11 -1.01237e-10 4.64487e-10 5e-05 1.46608e-10 
130 1 0.267253 0.0178767 0.00699475 0.00586611 -6.49399e-05 -7.5358e-05 -4.78211e-11 2.38378e-11 -1.83886e-11 5e-05 1.46608e-10 
131 1 0.267273 0.0179735 0.00698003 0.00564988 -1.50639e-05 -7.60547e-05 -6.62261e-11 4.74302e-11 -1.64858e-11 5e-05 1.46608e-10 
132 1 0.273146 0.017006 0.00734634 0.0062682 -0.000473113 5.60756e-05 -2.25805e-10 -1.83802e-10 1.9316e-10 5e-05 1.46608e-10 
133 1 0.273278 0.0180049 0.00708108 0.00565217 -0.000246732 0.000295503 1.28244e-11 1.41522e-10 1.87974e-11 5e-05 1.46608e-10 
134 1 0.273237 0.0178122 0.00711643 0.00567031 -0.000208109 0.00028502 1.78333e-10 -3.30089e-10 1.47659e-10 5e-05 1.46608e-10 
135 1 0.273386 0.0176826 0.00714787 0.00554438 -0.000277397 0.000294614 2.58657e-10 2.1531e-10 3.08703e-11 5e-05 1.46608e-10 
136 1 0.26721 0.0172823 0.00724833 0.0063173 1.27274e-05 0.000124013 -3.28293e-10 -1.68588e-11 6.63988e-12 5e-05 1.46608e-10 
137 1 0.273154 0.0175931 0.00723846 0.00562602 -0.00018328 0.000280873 -1.82492e-10 5.31831e-12 3.3019e-10 5e-05 1.46608e-10 
138 1 0.273142 0.0177807 0.0071192 0.00566488 -0.000187242 0.000270845 1.95646e-10 -3.77127e-10 -6.21899e-12 5e-05 1.46608e-10 
140 1 0.273018 0.0172032 0.00722425 0.0062432 -0.00030391 0.000330997 4.93147e-11 2.53497e-11 -5.42111e-11 5e-05 1.46608e-10 
141 1 0.267037 0.0166059 0.00764328 0.00609355 -0.000186593 0.000239104 -2.34528e-10 2.14109e-10 -1.27462e-10 5e-05 1.46608e-10 
142 1 0.267423 0.0178421 0.00699746 0.00575758 8.3181e-05 -9.03635e-05 -1.27816e-10 -6.41243e-11 5.00702e-11 5e-05 1.46608e-10 
143 1 0.266588 0.0156143 0.0085077 0.00543503 -0.000497425 -0.000257856 6.42571e-11 -1.42742e-10 2.7267e-10 5e-05 1.46608e-10 
144 1 0.267382 0.0176501 0.00703523 0.00591542 5.18418e-05 9.47262e-05 -9.21251e-11 -2.20231e-10 3.9691e-11 5e-05 1.46608e-10 
146 1 0.266724 0.0160849 0.0080195 0.00556567 -0.000428098 -0.000256424 -3.16501e-10 4.158e-11 2.71479e-10 5e-05 1.46608e-10 
147 1 0.267232 0.0177799 0.00700967 0.00587895 -6.97682e-05 -0.00011788 -2.29689e-11 -8.02749e-11 -3.83824e-11 5e-05 1.46608e-10 
148 1 0.26706 0.0166907 0.00759376 0.00609218 -0.000206516 0.000250732 -2.37298e-10 2.75367e-10 -1.65665e-10 5e-05 1.46608e-10 
149 1 0.272875 0.0167034 0.00768896 0.00591593 -0.000622872 -6.77779e-05 2.1454e-10 -6.79316e-11 -1.81626e-11 5e-05 1.46608e-10 
150 1 0.267424 0.018659 0.00688845 0.00557518 -9.42234e-06 2.22634e-05 -2.56477e-11 -1.22077e-10 1.01901e-11 5e-05 1.46608e-10 
151 1 0.267349 0.0183682 0.00692251 0.00568598 -1.07583e-05 2.04654e-05 -1.52177e-11 4.24057e-11 1.1166e-11 5e-05 1.46608e-10 
153 1 0.267081 0.016775 0.00754453 0.00611383 -0.000207733 0.000251751 -2.12016e-10 1.31597e-10 -8.07398e-11 5e-05 1.46608e-10 
154 1 0.266708 0.0160161 0.00809031 0.00557045 -0.000478982 -0.000302258 -4.30447e-10 3.28109e-11 1.65969e-10 5e-05 1.46608e-10 
155 1 0.266749 0.016157 0.007955 0.00556911 -0.000348393 -0.000145377 1.04744e-10 8.18749e-11 1.9434e-10 5e-05 1.46608e-10 
156 1 0.267016 0.0165215 0.00769251 0.0060808 -0.00018944 0.000240894 -3.25311e-10 2.61598e-10 -1.62272e-10 5e-05 1.46608e-10 
157 1 0.0219312 0.0187687 0.00551176 -3.82923e-14 8.16724e-14 2.95891e-13 8.5029e-22 4.92328e-22 -1.05466e-23 5e-05 1.46608e-10 
158 1 0.267125 0.0169438 0.00744599 0.00625987 -0.000138176 0.000213961 -6.79648e-11 1.17937e-10 -7.11063e-11 5e-05 1.46608e-10 
159 1 0.273166 0.017079 0.00727999 0.00505191 -0.00152349 -0.00437975 -3.8287e-10 -1.46444e-10 -9.14855e-10 5e-05 1.46608e-10 
160 1 0.267237 0.0182325 0.00694198 0.00561303 -0.000126213 -6.01972e-05 6.22289e-11 2.22379e-10 -5.90987e-11 5e-05 1.46608e-10 
162 1 0.267351 0.0182222 0.00702442 0.0056174 -3.85889e-06 -8.01089e-05 1.12711e-11 1.64356e-10 -8.00272e-11 5e-05 1.46608e-10 
164 1 0.266803 0.016384 0.00777197 0.00595932 -9.73419e-05 0.000218253 8.68929e-11 -1.68733e-10 -3.80529e-11 5e-05 1.46608e-10 
165 1 0.267457 0.0183949 0.00691976 0.00566392 -2.89094e-05 2.5152e-05 6.2443e-11 5.00001e-12 2.10451e-11 5e-05 1.46608e-10 
166 1 0.273162 0.0178768 0.0071009 0.00567719 -0.000194514 0.000262968 -8.17655e-12 -4.48438e-10 -8.15179e-11 5e-05 1.46608e-10 
167 1 0.26731 0.0185919 0.00689594 0.00540751 3.5998e-05 1.62646e-05 -5.88689e-10 2.45954e-12 -9.04014e-13 5e-05 1.46608e-10 
168 1 0.2675 0.0185939 0.00689642 0.00550196 -9.52939e-05 3.22633e-05 -5.53192e-11 -1.11569e-11 9.22046e-13 5e-05 1.46608e-10 
169 1 0.267329 0.0186893 0.00688451 0.00557963 1.26502e-05 1.98016e-05 -2.94987e-11 -1.52415e-10 1.71405e-11 5e-05 1.46608e-10 
170 1 0.267405 0.0185616 0.00689988 0.005459 1.21451e-05 1.89632e-05 -2.97539e-10 -1.05006e-10 1.30968e-11 5e-05 1.46608e-10 
171 1 0.273341 0.0182961 0.00703279 0.00560029 -0.000238736 0.000127575 -7.87717e-11 1.74537e-10 -1.12017e-11 5e-05 1.46608e-10 
172 1 0.267097 0.0175651 0.00707931 0.0057972 0.00010046 6.34956e-05 1.92278e-12 3.7825e-12 -2.21176e-12 5e-05 1.46608e-10 
173 1 0.273373 0.0180364 0.00707913 0.00567719 -0.000283768 0.000300874 1.36377e-11 4.99591e-11 4.60493e-11 5e-05 1.46608e-10 
174 1 0.266846 0.0165514 0.0076713 0.00608754 -0.000132579 0.000207598 2.02488e-11 4.55808e-11 -4.90174e-11 5e-05 1.46608e-10 
176 1 0.267155 0.017423 0.00716429 0.00597494 -2.62214e-05 0.00019416 -4.33851e-10 -4.65868e-11 -2.05041e-11 5e-05 1.46608e-10 
177 1 0.266843 0.0161709 0.00792379 0.00551507 -0.000424406 -0.000255581 1.78967e-10 2.22714e-10 2.66461e-10 5e-05 1.46608e-10 
178 1 0.267176 0.0178026 0.00708942 0.00583625 -0.000225493 -7.71898e-05 8.11908e-11 -1.28009e-10 -2.36829e-10 5e-05 1.46608e-10 
179 1 0.267277 0.0182888 0.00701611 0.00566509 1.98069e-05 -8.39914e-05 -5.09651e-11 -1.37102e-10 -2.86009e-11 5e-05 1.46608e-10 
182 1 0.273284 0.0184567 0.00700652 0.00550543 -0.000264704 0.000129596 -9.00413e-11 -6.02503e-11 -4.19162e-11 5e-05 1.46608e-10 
183 1 0.267218 0.0180578 0.00706743 0.00557065 -0.000111331 -6.57477e-05 -1.22887e-11 1.43303e-10 -4.87372e-12 5e-05 1.46608e-10 
184 1 0.273219 0.0180298 0.00715772 0.00561996 -0.000179835 0.000250919 -4.29678e-10 -1.48867e-11 6.08977e-11 5e-05 1.46608e-10 
185 1 0.267402 0.0177453 0.00701217 0.00591403 1.4658e-05 -0.000101705 -1.42512e-10 -1.71247e-10 3.76841e-10 5e-05 1.46608e-10 
186 1 0.267694 0.0182875 0.00693335 0.00563348 1.92725e-05 1.91926e-05 -4.31946e-12 8.67679e-11 -1.76285e-11 5e-05 1.46608e-10 
187 1 0.273299 0.0181016 0.00706365 0.00569845 -0.000269662 0.000225753 -2.94297e-12 5.72246e-11 9.89713e-11 5e-05 1.46608e-10 
188 1 0.273135 0.0173307 0.00720477 0.00619962 -0.0002979 0.000319386 -1.01328e-10 -1.91114e-11 8.09658e-11 5e-05 1.46608e-10 
189 1 0.273244 0.018263 0.00703648 0.00569683 -0.000279505 0.000135915 1.32342e-11 1.35547e-10 -8.46466e-12 5e-05 1.46608e-10 
190 1 0.26119 0.0180115 0.00712948 0.00578283 0.000418106 -0.000175044 -2.12297e-11 3.52359e-11 2.09153e-12 5e-05 1.46608e-10 
191 1 0.272895 0.0167683 0.00761575 0.00599174 -0.000529524 3.25167e-05 1.7288e-10 -2.06793e-10 -2.02641e-10 5e-05 1.46608e-10 
192 1 0.267136 0.0177471 0.00701571 0.00584393 -1.67098e-05 -7.90009e-05 1.27538e-10 -4.43102e-11 -5.3864e-11 5e-05 1.46608e-10 
193 1 0.27336 0.018393 0.00701779 0.0055213 -0.000253359 0.000127963 7.49526e-11 1.92123e-10 -2.83294e-11 5e-05 1.46608e-10 
194 1 0.267332 0.0181252 0.00703911 0.00559185 5.44724e-06 -8.10464e-05 6.71339e-11 1.27943e-10 -5.78818e-11 5e-05 1.46608e-10 
195 1 0.267332 0.0182643 0.00693588 0.00564885 3.1736e-07 -8.26826e-05 -1.68658e-12 8.28928e-11 -3.06388e-11 5e-05 1.46608e-10 
196 1 0.267368 0.0180047 0.00697404 0.00564663 -1.57154e-06 -8.12829e-05 -1.55314e-11 7.65012e-11 -4.18715e-11 5e-05 1.46608e-10 
197 1 0.260864 0.01666 0.00773027 0.00616482 0.00037997 -0.000115217 -4.68284e-10 1.92782e-10 -1.6789e-10 5e-05 1.46608e-10 
198 1 0.267286 0.0172265 0.00728283 0.00643244 0.000108097 7.22882e-05 -1.96417e-10 9.15749e-11 -6.83525e-11 5e-05 1.46608e-10 
199 1 0.267257 0.0181903 0.00703047 0.00557709 -0.000149328 -6.12148e-05 -1.30207e-10 2.31323e-11 -1.47112e-10 5e-05 1.46608e-10 
200 1 0.26667 0.0158798 0.00823148 0.00552018 -0.000487476 -0.00028752 -1.8895e-10 -2.42252e-10 1.37575e-10 5e-05 1.46608e-10 
201 1 0.267425 0.0183009 0.00693074 0.00567557 -3.40659e-05 2.85907e-05 -1.65743e-11 4.8357e-11 -2.91035e-11 5e-05 1.46608e-10 
202 1 0.267146 0.0170281 0.00739676 0.00624431 -0.000149802 0.000220371 -3.58049e-11 4.36018e-12 5.35004e-13 5e-05 1.46608e-10 
203 1 0.273217 0.0177159 0.0071341 0.00566033 -0.000236247 0.000288854 1.27431e-10 -3.25975e-10 1.74829e-10 5e-05 1.46608e-10 
204 1 0.267462 0.018036 0.00696802 0.00564449 -4.79495e-07 -8.02431e-05 1.45739e-10 4.35144e-11 -1.57614e-11 5e-05 1.46608e-10 
205 1 0.266985 0.0167476 0.00755866 0.00612627 -0.00015933 0.000223706 -1.29986e-10 3.07122e-10 -2.00731e-10 5e-05 1.46608e-10 
206 1 0.267028 0.0169162 0.00746021 0.00615963 -0.000141048 0.00021352 2.8816e-11 3.50926e-10 -2.05444e-10 5e-05 1.46608e-10 
207 1 0.266899 0.0164103 0.00775557 0.00600674 -0.000157002 0.000221765 2.22596e-10 5.57922e-11 -1.13699e-10 5e-05 1.46608e-10 
208 1 0.267325 0.0173958 0.00718386 0.00603664 0.00010469 6.64774e-05 -5.11475e-10 4.26398e-10 -2.23505e-10 5e-05 1.46608e-10 
209 1 0.26725 0.0174518 0.0071493 0.00594435 2.45141e-05 0.00011945 -4.3826e-10 3.25618e-10 -2.34858e-10 5e-05 1.46608e-10 
210 1 0.27299 0.0167866 0.00758745 0.00601724 -0.000509624 9.55378e-05 -8.02112e-11 -6.14871e-11 1.71886e-11 5e-05 1.46608e-10 
211 1 0.273012 0.0168558 0.00751881 0.0060094 -0.00149258 -0.000931256 -8.44195e-11 -4.8592e-12 -1.67412e-10 5e-05 1.46608e-10 
212 1 0.267529 0.0183257 0.00692821 0.0056605 -2.53036e-05 2.32599e-05 4.73863e-11 6.06104e-11 1.25872e-11 5e-05 1.46608e-10 
213 1 0.273224 0.0181663 0.00705147 0.00570953 -0.0002482 0.000148199 1.24079e-10 2.2634e-10 -3.02614e-11 5e-05 1.46608e-10 
214 1 0.273089 0.0171356 0.00724041 0.00623331 -0.000316691 0.000332556 -1.09032e-10 -1.99696e-10 6.74029e-11 5e-05 1.46608e-10 
215 1 0.261087 0.0175241 0.00717263 0.00578607 0.000440652 -0.000177876 -3.45431e-11 -2.5022e-11 -1.53829e-11 5e-05 1.46608e-10 
216 1 0.26688 0.0163262 0.0078063 0.00579184 -0.000108273 0.000195619 7.53539e-10 -5.23042e-11 -2.11555e-11 5e-05 1.46608e-10 
217 1 0.273304 0.0185536 0.00699152 0.00552535 -0.000276212 0.000131484 -8.67292e-11 -1.60143e-10 3.02931e-11 5e-05 1.46608e-10 
218 1 0.267177 0.0179416 0.00698615 0.00585204 -8.09138e-05 -7.30643e-05 1.08978e-10 2.76481e-10 -3.08506e-11 5e-05 1.46608e-10 
219 1 0.272855 0.0166402 0.00776393 0.00581401 -0.000761223 -0.000202995 -2.08989e-10 1.59321e-10 4.02913e-10 5e-05 1.46608e-10 
220 1 0.267293 0.0180704 0.00696532 0.00560836 -8.83772e-07 -8.28462e-05 -1.1851e-10 8.39756e-11 -3.66657e-11 5e-05 1.46608e-10 
222 1 0.273325 0.0173934 0.00720093 0.00534619 7.77389e-05 0.000216687 -2.23258e-11 1.1862e-10 -3.36159e-11 5e-05 1.46608e-10 
224 1 0.267072 0.0170849 0.00736173 0.00622103 -0.000156392 0.000224151 1.14494e-10 4.72442e-11 -1.86223e-11 5e-05 1.46608e-10 
225 1 0.272935 0.0169009 0.00747159 0.00600537 -0.000369596 0.000190388 3.98271e-10 3.67973e-10 -3.0815e-11 5e-05 1.46608e-10 
226 1 0.267272 0.0178346 0.00708338 0.00574396 -9.85647e-06 -5.85155e-05 -2.81052e-10 8.76843e-12 9.41239e-11 5e-05 1.46608e-10 
227 1 0.261108 0.0176214 0.00716399 0.00578737 0.000441434 -0.000177092 1.00931e-11 -1.90759e-11 -7.07544e-12 5e-05 1.46608e-10 
228 1 0.261046 0.0173294 0.00719249 0.00560021 0.000469343 -0.000177576 -1.37493e-11 -5.79574e-11 -6.88028e-12 5e-05 1.46608e-10 
229 1 0.267552 0.0184268 0.00691635 0.00561158 9.2987e-05 1.02235e-05 9.2247e-12 1.04028e-10 -5.99566e-12 5e-05 1.46608e-10 
230 1 0.266976 0.0170573 0.00737594 0.00617694 -0.000146478 0.000218084 -3.07941e-11 1.92602e-10 -1.17842e-10 5e-05 1.46608e-10 
232 1 0.26737 0.018326 0.00701062 0.00566881 -1.04278e-05 2.25118e-05 1.16579e-10 -2.68291e-11 -3.08184e-12 5e-05 1.46608e-10 
233 1 0.26729 0.0184945 0.00690737 0.00568693 -3.28741e-05 2.40584e-05 -2.06298e-11 -7.18109e-11 1.15648e-11 5e-05 1.46608e-10 
234 1 0.27327 0.0177203 0.0072188 0.00561844 -0.000186236 0.000299092 2.41509e-10 1.45478e-10 3.56588e-10 5e-05 1.46608e-10 
235 1 0.266932 0.0168887 0.0074744 0.0061575 -0.000133662 0.000209734 4.7805e-11 3.18316e-10 -1.9279e-10 5e-05 1.46608e-10 
236 1 0.26704 0.0173102 0.00722826 0.00621409 -0.000158422 0.000223983 -1.00307e-10 -1.34407e-10 6.06804e-11 5e-05 1.46608e-10 
237 1 0.26706 0.0173951 0.00717868 0.00577573 0.000526629 -0.000188098 2.06659e-11 8.67113e-11 -5.0451e-11 5e-05 1.46608e-10 
239 1 0.260762 0.0163217 0.00808367 0.00580787 1.78424e-05 -0.00054717 1.83051e-11 -4.1786e-10 4.36417e-11 5e-05 1.46608e-10 
240 1 0.260822 0.016522 0.00786899 0.00604188 0.000415339 -0.000152539 7.04633e-11 3.18142e-10 -2.91389e-10 5e-05 1.46608e-10 
241 1 0.260742 0.0162609 0.00816068 0.00576322 1.36514e-05 -0.000547039 1.65109e-11 1.84995e-11 3.38968e-10 5e-05 1.46608e-10 
242 1 0.267199 0.016887 0.00748105 0.00629107 -0.000128285 0.000208762 -8.89915e-11 5.49947e-12 -5.31873e-12 5e-05 1.46608e-10 
243 1 0.267348 0.0179078 0.00698876 0.00571209 4.3107e-05 -8.4268e-05 -1.76409e-11 7.57208e-11 -2.28346e-13 5e-05 1.46608e-10 
244 1 0.260781 0.0163849 0.00800876 0.00590411 0.000263331 -0.000332851 -4.67618e-10 2.06768e-10 3.04609e-10 5e-05 1.46608e-10 
246 1 0.260965 0.0170051 0.00738318 0.00634015 0.000357647 -8.48393e-05 -2.35546e-10 1.90577e-11 -4.81187e-11 5e-05 1.46608e-10 
247 1 0.266867 0.0166357 0.00762208 0.00609789 -0.000140085 0.000211528 5.90789e-11 1.15988e-10 -6.64653e-11 5e-05 1.46608e-10 
248 1 0.267193 0.0175926 0.00706511 0.00563437 2.91714e-05 0.000106204 -1.88742e-10 -8.90994e-11 -1.21099e-12 5e-05 1.46608e-10 
249 1 0.260904 0.0167981 0.00759137 0.0061877 0.000374419 -0.000110225 3.30951e-10 9.98417e-11 -4.76489e-11 5e-05 1.46608e-10 
250 1 0.266942 0.016579 0.00765711 0.00608401 -0.000158058 0.000221631 -1.08633e-10 1.38405e-10 -7.78174e-11 5e-05 1.46608e-10 
251 1 0.273196 0.0176196 0.00715177 0.00565248 -0.00023605 0.000283844 5.13591e-10 -5.61096e-10 2.73428e-10 5e-05 1.46608e-10 
252 1 0.260986 0.0170741 0.00731373 0.00637493 0.000359757 -8.43507e-05 -1.53602e-11 -2.29624e-11 2.98666e-11 5e-05 1.46608e-10 
253 1 0.261169 0.017914 0.00713811 0.00578526 0.000426024 -0.000175813 4.57733e-11 6.10987e-11 -1.31149e-11 5e-05 1.46608e-10 
254 1 0.260924 0.0168671 0.00752195 0.00623025 0.000364489 -9.90462e-05 3.55837e-11 9.44187e-11 -8.70623e-11 5e-05 1.46608e-10 
255 1 0.26653 0.0154198 0.0087277 0.00585589 0.000772096 1.54253e-05 -2.72573e-10 -4.0628e-09 3.74238e-09 5e-05 1.46608e-10 
256 1 0.267482 0.0181328 0.00695338 0.00562842 1.6765e-06 -1.17439e-05 -7.47882e-12 1.60982e-10 1.08436e-10 5e-05 1.46608e-10 
257 1 0.267103 0.0168594 0.00749529 0.00617682 -0.000126525 0.000205306 -2.18669e-10 1.11613e-10 -7.14199e-11 5e-05 1.46608e-10 
258 1 0.267174 0.0175079 0.00711504 0.00572754 5.01475e-05 0.000201712 -5.26622e-10 -2.2953e-11 4.94998e-12 5e-05 1.46608e-10 