ITEM: TIMESTEP
66400000
ITEM: NUMBER OF ATOMS
267
ITEM: BOX BOUNDS ff ff ff
-0.02 0.43
-0.02 0.06
-0.02 0.07
ITEM: ATOMS id type x y z vx vy vz fx fy fz radius mass 
1 1 0.383991 0.018743 5.17586e-05 7.86792e-19 8.52611e-22 -5.98258e-16 0 -1.29247e-26 0 5e-05 1.46608e-10 
2 1 0.384819 0.0170553 5.28427e-05 -9.20546e-19 -4.6822e-21 7.02844e-16 0 2.20175e-26 0 5e-05 1.46608e-10 
4 1 0.384087 0.0172099 5.18841e-05 -4.6765e-20 2.05319e-21 2.09702e-17 0 -2.58494e-26 0 5e-05 1.46608e-10 
6 1 0.38485 0.0177728 5.2884e-05 4.86893e-19 1.44525e-22 -3.71584e-16 0 0 0 5e-05 1.46608e-10 
7 1 0.384289 0.0192285 5.21489e-05 2.81059e-18 6.95678e-22 -2.14593e-15 0 1.17191e-26 0 5e-05 1.46608e-10 
8 1 0.384427 0.0170974 5.23295e-05 2.24034e-18 -6.771e-22 -1.71051e-15 0 -3.12772e-26 0 5e-05 1.46608e-10 
9 1 0.383731 0.0178959 5.14179e-05 2.24031e-18 1.13905e-21 -1.71052e-15 0 -1.92301e-26 0 5e-05 1.46608e-10 
10 1 0.384909 0.0174916 5.29614e-05 1.79757e-18 -2.15402e-21 -1.37249e-15 0 3.13556e-26 0 5e-05 1.46608e-10 
11 1 0.383705 0.0185838 5.13839e-05 2.81055e-18 5.14082e-21 -2.14593e-15 4.03897e-28 -3.13342e-27 0 5e-05 1.46608e-10 
12 1 0.384274 0.0169453 5.213e-05 2.24031e-18 8.97854e-22 -1.71052e-15 0 4.17748e-26 0 5e-05 1.46608e-10 
13 1 0.384609 0.0178943 5.25685e-05 -3.28034e-12 1.53333e-12 -7.38482e-13 2.66629e-17 -4.32506e-18 -4.45911e-17 5e-05 1.46608e-10 
14 1 0.383937 0.0189513 8.69758e-05 5.18833e-19 -4.57277e-21 -4.06396e-16 2.58494e-26 5.16988e-26 -2.06795e-25 5e-05 1.46608e-10 
16 1 0.384166 0.0169334 5.1988e-05 2.24034e-18 8.99448e-23 -1.71052e-15 0 4.58341e-29 0 5e-05 1.46608e-10 
17 1 0.384566 0.0170745 5.25117e-05 2.24033e-18 1.53468e-22 -1.71052e-15 0 -2.41219e-29 0 5e-05 1.46608e-10 
19 1 0.384704 0.0183371 5.2693e-05 1.79759e-18 -2.80671e-20 -1.37251e-15 0 1.14367e-25 0 5e-05 1.46608e-10 
21 1 0.384375 0.0179486 5.22621e-05 3.84083e-12 7.26408e-13 1.25661e-12 -2.22785e-17 -6.06488e-19 1.66775e-19 5e-05 1.46608e-10 
22 1 0.385006 0.0203197 5.3088e-05 8.71345e-19 1.13922e-20 -6.65298e-16 0 2.727e-25 0 5e-05 1.46608e-10 
23 1 0.38429 0.0178938 5.21501e-05 -2.82496e-13 -1.20891e-13 3.24277e-14 1.35154e-18 3.69579e-19 -1.52939e-18 5e-05 1.46608e-10 
24 1 0.384317 0.0180308 5.21862e-05 3.58875e-14 -6.56427e-14 5.41319e-14 -1.74195e-19 1.02202e-18 -3.79806e-19 5e-05 1.46608e-10 
25 1 0.384369 0.0166304 5.22533e-05 2.24036e-18 1.7551e-21 -1.71051e-15 0 -6.84964e-26 0 5e-05 1.46608e-10 
26 1 0.383765 0.0178016 5.14632e-05 2.24032e-18 2.8183e-23 -1.71051e-15 0 -2.50223e-27 0 5e-05 1.46608e-10 
27 1 0.384682 0.0173846 0.000130728 -1.24541e-19 -7.52181e-21 9.01964e-17 -5.16988e-26 3.87741e-26 2.06795e-25 5e-05 1.46608e-10 
28 1 0.38392 0.0176635 5.16661e-05 2.24033e-18 -1.35366e-21 -1.71052e-15 0 4.86715e-27 0 5e-05 1.46608e-10 
29 1 0.384334 0.0168628 5.2208e-05 2.24031e-18 -3.58877e-21 -1.71052e-15 0 3.07178e-26 0 5e-05 1.46608e-10 
30 1 0.38458 0.0173478 5.25303e-05 -1.22974e-19 9.65268e-22 9.01907e-17 1.29247e-26 1.29247e-26 0 5e-05 1.46608e-10 
31 1 0.384267 0.018175 5.21197e-05 1.63123e-20 -8.89218e-22 -7.47559e-18 0 0 0 5e-05 1.46608e-10 
32 1 0.384809 0.0175939 5.28295e-05 9.99756e-20 1.0421e-21 -7.99132e-17 0 2.58494e-26 0 5e-05 1.46608e-10 
33 1 0.384554 0.0172495 5.24957e-05 2.24034e-18 1.24506e-22 -1.71052e-15 0 5.82592e-28 0 5e-05 1.46608e-10 
34 1 0.38474 0.0177115 5.27396e-05 1.03102e-19 -2.19641e-21 -7.99225e-17 1.29247e-26 0 0 5e-05 1.46608e-10 
35 1 0.383862 0.0177748 5.15892e-05 -2.23246e-19 5.56847e-21 1.69474e-16 0 0 0 5e-05 1.46608e-10 
36 1 0.383928 0.0185154 5.16766e-05 -3.50207e-19 2.51116e-22 2.67381e-16 0 1.39438e-26 0 5e-05 1.46608e-10 
37 1 0.384806 0.0179346 5.28267e-05 1.79764e-18 2.36953e-21 -1.37251e-15 0 1.49495e-25 0 5e-05 1.46608e-10 
38 1 0.384295 0.0179641 0.000123125 -7.86509e-14 -1.73405e-13 1.33486e-13 -1.34365e-18 1.08759e-18 -1.22708e-18 5e-05 1.46608e-10 
39 1 0.383664 0.0197976 5.13305e-05 -3.50221e-19 -6.59762e-22 2.67381e-16 0 3.32193e-27 0 5e-05 1.46608e-10 
42 1 0.38332 0.0192284 0.00522714 1.28259e-16 -4.76134e-21 3.78515e-14 0 5.64518e-25 0 5e-05 1.46608e-10 
44 1 0.384012 0.018459 5.17866e-05 1.79762e-18 9.40421e-23 -1.37251e-15 0 -6.35072e-28 0 5e-05 1.46608e-10 
45 1 0.384188 0.017154 5.20161e-05 -2.98628e-20 1.13072e-22 2.10152e-17 0 2.26182e-26 0 5e-05 1.46608e-10 
47 1 0.347821 0.018229 0.00768984 0.0212572 0.00446344 -0.00059412 -4.71127e-10 -2.20375e-10 1.44103e-11 5e-05 1.46608e-10 
48 1 0.383611 0.0181742 5.1261e-05 -8.00765e-19 -3.29019e-22 6.08849e-16 0 0 0 5e-05 1.46608e-10 
49 1 0.384194 0.0185569 5.20241e-05 1.7976e-18 3.04372e-21 -1.37251e-15 0 -2.86827e-26 0 5e-05 1.46608e-10 
50 1 0.384353 0.0181246 5.22331e-05 1.7976e-18 5.6017e-22 -1.37249e-15 0 6.69783e-27 0 5e-05 1.46608e-10 
51 1 0.383985 0.019032 5.17502e-05 5.33051e-19 7.29764e-22 -4.06396e-16 -2.58494e-26 -5.16988e-26 0 5e-05 1.46608e-10 
52 1 0.38427 0.0217777 5.21238e-05 2.00507e-18 -3.22603e-21 -1.5309e-15 0 1.33509e-26 0 5e-05 1.46608e-10 
53 1 0.3849 0.0167228 5.29491e-05 2.24031e-18 5.25188e-21 -1.71052e-15 0 5.71524e-26 0 5e-05 1.46608e-10 
54 1 0.384094 0.0196551 5.18938e-05 2.81059e-18 4.9474e-22 -2.14593e-15 0 1.52752e-27 0 5e-05 1.46608e-10 
55 1 0.383596 0.0188939 5.12421e-05 2.81054e-18 -5.81316e-22 -2.14593e-15 0 7.75266e-27 0 5e-05 1.46608e-10 
56 1 0.384074 0.0171039 5.18678e-05 -1.97219e-20 6.67592e-21 2.09924e-17 0 0 0 5e-05 1.46608e-10 
57 1 0.38361 0.0192266 5.12599e-05 -3.50191e-19 -1.67725e-21 2.67381e-16 0 1.09544e-26 0 5e-05 1.46608e-10 
59 1 0.378022 0.019866 0.005332 -5.02024e-15 -7.41202e-15 7.69802e-14 4.07128e-24 -9.30578e-25 2.06795e-25 5e-05 1.46608e-10 
60 1 0.384997 0.0170277 5.3077e-05 2.24032e-18 1.03057e-21 -1.71052e-15 -4.03897e-28 1.64556e-25 0 5e-05 1.46608e-10 
62 1 0.384469 0.0166233 5.23854e-05 2.24035e-18 2.02793e-21 -1.71052e-15 0 3.09516e-26 0 5e-05 1.46608e-10 
63 1 0.385119 0.0166834 5.32362e-05 2.24037e-18 2.90418e-21 -1.71052e-15 0 1.03692e-25 0 5e-05 1.46608e-10 
64 1 0.383572 0.0182666 5.12106e-05 1.79758e-18 -2.18214e-23 -1.37249e-15 -4.03897e-28 -1.85566e-27 0 5e-05 1.46608e-10 
65 1 0.38415 0.0174668 5.19668e-05 2.24032e-18 -1.81888e-20 -1.71052e-15 4.03897e-28 -1.02141e-25 0 5e-05 1.46608e-10 
66 1 0.384314 0.0196963 5.21813e-05 -3.50188e-19 -9.74504e-21 2.67381e-16 0 1.34614e-25 0 5e-05 1.46608e-10 
67 1 0.38401 0.0186182 5.17838e-05 -3.50211e-19 2.05691e-21 2.67382e-16 0 -1.31948e-26 0 5e-05 1.46608e-10 
68 1 0.384443 0.0179216 0.000120816 9.10808e-12 -9.90909e-12 1.75639e-12 4.35146e-17 -3.79039e-18 -9.32996e-18 5e-05 1.46608e-10 
69 1 0.383601 0.0187724 5.12477e-05 2.81055e-18 1.56803e-21 -2.14593e-15 4.03897e-28 2.35972e-26 0 5e-05 1.46608e-10 
70 1 0.383695 0.0199014 5.13714e-05 -3.50223e-19 -2.78868e-21 2.67381e-16 0 -1.23496e-26 0 5e-05 1.46608e-10 
71 1 0.383708 0.0192011 5.13883e-05 2.81059e-18 9.89073e-23 -2.14593e-15 0 4.84501e-27 0 5e-05 1.46608e-10 
72 1 0.383848 0.0178769 5.15715e-05 -2.22084e-19 -1.59534e-21 1.69475e-16 0 0 0 5e-05 1.46608e-10 
73 1 0.384751 0.0204726 5.27548e-05 2.00509e-18 -4.18014e-22 -1.5309e-15 0 -1.29535e-27 0 5e-05 1.46608e-10 
74 1 0.384789 0.0203241 5.2804e-05 8.71352e-19 2.43026e-21 -6.65298e-16 0 7.22844e-26 0 5e-05 1.46608e-10 
76 1 0.384148 0.0172907 5.19645e-05 2.24031e-18 3.52749e-22 -1.71052e-15 0 1.02816e-27 0 5e-05 1.46608e-10 
77 1 0.384899 0.0180553 5.29479e-05 1.79756e-18 -1.50908e-21 -1.37249e-15 0 -8.87697e-27 0 5e-05 1.46608e-10 
78 1 0.384454 0.0177342 5.23646e-05 2.24032e-18 -1.10404e-21 -1.71052e-15 0 -1.35587e-26 0 5e-05 1.46608e-10 
79 1 0.384159 0.0206443 5.19783e-05 2.00507e-18 3.58416e-21 -1.5309e-15 0 3.32827e-26 0 5e-05 1.46608e-10 
80 1 0.383985 0.017428 5.1751e-05 2.24031e-18 -3.97842e-22 -1.71051e-15 0 -7.70123e-26 0 5e-05 1.46608e-10 
82 1 0.384471 0.0161368 5.23876e-05 2.24033e-18 -6.14244e-22 -1.71051e-15 -4.03897e-28 1.56658e-25 0 5e-05 1.46608e-10 
83 1 0.384894 0.0205458 5.29418e-05 2.00506e-18 4.15788e-22 -1.5309e-15 0 -5.8098e-27 0 5e-05 1.46608e-10 
84 1 0.383993 0.0188764 5.17615e-05 5.29522e-19 -5.20933e-21 -4.06404e-16 0 0 0 5e-05 1.46608e-10 
85 1 0.383849 0.0193448 5.15725e-05 1.07359e-19 4.18757e-21 -8.03914e-17 0 0 0 5e-05 1.46608e-10 
86 1 0.383935 0.0179283 5.16858e-05 -9.2056e-19 3.39853e-22 7.02843e-16 0 -5.83672e-27 0 5e-05 1.46608e-10 
87 1 0.384931 0.0175954 5.29902e-05 1.79758e-18 5.37319e-22 -1.37249e-15 0 -2.17135e-26 0 5e-05 1.46608e-10 
88 1 0.383272 0.0191349 0.0052273 1.28258e-16 -1.12514e-21 3.78515e-14 0 -5.58771e-26 0 5e-05 1.46608e-10 
89 1 0.38382 0.0176837 5.15355e-05 2.24034e-18 -1.66982e-21 -1.71051e-15 0 -4.85784e-26 0 5e-05 1.46608e-10 
90 1 0.384046 0.0179367 5.18308e-05 2.24034e-18 3.96912e-22 -1.71052e-15 0 -1.02254e-26 0 5e-05 1.46608e-10 
91 1 0.384723 0.0172283 5.27177e-05 2.24036e-18 -2.02585e-21 -1.71052e-15 0 -3.8894e-26 0 5e-05 1.46608e-10 
92 1 0.384191 0.017054 5.20202e-05 -9.20521e-19 2.9873e-23 7.02843e-16 0 -1.95179e-26 0 5e-05 1.46608e-10 
93 1 0.383736 0.0207666 5.1425e-05 -1.15569e-18 -2.32236e-21 8.82406e-16 0 -3.20457e-26 0 5e-05 1.46608e-10 
94 1 0.383683 0.0188356 5.13558e-05 -3.50205e-19 1.96543e-20 2.67383e-16 0 -6.38936e-26 0 5e-05 1.46608e-10 
95 1 0.384606 0.0176837 5.25637e-05 4.91485e-19 1.02345e-20 -3.71584e-16 0 0 0 5e-05 1.46608e-10 
96 1 0.38444 0.0183063 5.23472e-05 1.79762e-18 -1.64539e-23 -1.37251e-15 0 -7.7806e-29 0 5e-05 1.46608e-10 
98 1 0.383724 0.0194164 5.14094e-05 -3.50218e-19 3.46024e-21 2.67382e-16 0 2.46548e-26 0 5e-05 1.46608e-10 
99 1 0.384303 0.0183686 5.21674e-05 1.7976e-18 7.57533e-21 -1.37249e-15 4.03897e-28 1.42678e-26 0 5e-05 1.46608e-10 
100 1 0.384848 0.0173718 5.28812e-05 2.24034e-18 -6.79429e-22 -1.71052e-15 0 -3.32601e-26 0 5e-05 1.46608e-10 
101 1 0.384322 0.0214999 5.21918e-05 2.00508e-18 -9.29413e-22 -1.5309e-15 0 1.0414e-25 0 5e-05 1.46608e-10 
102 1 0.0643568 0.0187248 0.00531097 4.10451e-15 1.0561e-14 8.29605e-14 1.58572e-21 -2.64103e-22 -5.23192e-23 5e-05 1.46608e-10 
103 1 0.24257 0.0191927 0.00520306 9.7161e-23 4.86658e-23 1.23839e-22 0 0 0 5e-05 1.46608e-10 
104 1 0.384443 0.0190455 5.23502e-05 -3.50174e-19 -5.55517e-22 2.67381e-16 0 1.94789e-26 0 5e-05 1.46608e-10 
105 1 0.384764 0.0176468 0.000125094 1.12143e-19 1.0185e-20 -7.99255e-17 0 0 0 5e-05 1.46608e-10 
106 1 0.383893 0.0187182 5.16305e-05 7.79813e-19 2.91977e-21 -5.98255e-16 0 0 0 5e-05 1.46608e-10 
107 1 0.385147 0.0177812 0.000122873 -8.24881e-21 -3.69163e-21 -2.81824e-21 0 1.29247e-26 0 5e-05 1.46608e-10 
108 1 0.383662 0.0180867 5.13271e-05 -7.9823e-19 3.64882e-21 6.0885e-16 0 0 0 5e-05 1.46608e-10 
109 1 0.384177 0.0192838 5.20024e-05 2.81058e-18 -1.63512e-20 -2.14593e-15 -4.03897e-28 -1.9341e-25 0 5e-05 1.46608e-10 
110 1 0.384493 0.0193015 5.24162e-05 2.81057e-18 -1.11018e-22 -2.14593e-15 0 -1.78088e-27 0 5e-05 1.46608e-10 
111 1 0.384709 0.0176058 5.26985e-05 1.01701e-19 1.73716e-21 -7.99326e-17 0 -1.61559e-26 0 5e-05 1.46608e-10 
112 1 0.384647 0.0185896 5.26184e-05 1.79759e-18 -4.79276e-21 -1.37251e-15 0 -4.94247e-26 0 5e-05 1.46608e-10 
113 1 0.383921 0.0178347 0.00010527 -2.31231e-19 2.48779e-21 1.69477e-16 0 1.9387e-26 0 5e-05 1.46608e-10 
114 1 0.384105 0.0183256 5.19082e-05 1.79756e-18 4.81645e-21 -1.37249e-15 0 7.19821e-26 0 5e-05 1.46608e-10 
115 1 0.38367 0.0183173 5.13384e-05 1.79762e-18 -3.04914e-22 -1.37251e-15 4.03897e-28 -1.77564e-26 0 5e-05 1.46608e-10 
116 1 0.383786 0.0180677 5.14897e-05 2.24031e-18 -1.1122e-21 -1.71052e-15 0 4.20735e-27 0 5e-05 1.46608e-10 
117 1 0.384446 0.0168712 5.23543e-05 -9.40631e-19 8.43628e-21 7.02812e-16 1.45403e-25 -5.493e-26 0 5e-05 1.46608e-10 
118 1 0.383701 0.0187017 5.13793e-05 -3.50186e-19 -1.11506e-22 2.67381e-16 0 -8.55446e-27 0 5e-05 1.46608e-10 
119 1 0.383906 0.018619 5.16476e-05 7.84827e-19 4.53956e-22 -5.98253e-16 0 0 0 5e-05 1.46608e-10 
120 1 0.384144 0.01791 5.19592e-05 -2.94041e-14 9.15203e-15 3.37147e-15 1.40174e-19 -4.55056e-20 -1.45275e-19 5e-05 1.46608e-10 
121 1 0.384817 0.0185465 5.28405e-05 1.7976e-18 4.49412e-21 -1.37251e-15 -4.03897e-28 9.30488e-26 0 5e-05 1.46608e-10 
122 1 0.384225 0.0179695 5.20647e-05 5.64894e-15 -1.29122e-14 2.3423e-14 -2.99575e-19 -3.23086e-20 -5.11127e-19 5e-05 1.46608e-10 
123 1 0.383933 0.0192279 5.16831e-05 1.05519e-19 1.06078e-22 -8.03937e-17 0 0 0 5e-05 1.46608e-10 
124 1 0.384096 0.0170045 5.18952e-05 -5.15679e-21 -1.79533e-20 -3.88833e-19 -5.16988e-26 0 0 5e-05 1.46608e-10 
125 1 0.384626 0.016764 5.25911e-05 2.24033e-18 -1.36676e-21 -1.71052e-15 -4.03897e-28 1.07263e-26 0 5e-05 1.46608e-10 
127 1 0.384295 0.018231 0.000129802 1.54118e-20 1.36221e-20 -7.47673e-18 0 0 0 5e-05 1.46608e-10 
128 1 0.384383 0.0169852 5.22722e-05 -9.20518e-19 1.04023e-21 7.02842e-16 0 -9.86615e-27 0 5e-05 1.46608e-10 
129 1 0.383806 0.0179676 5.15164e-05 -2.23294e-19 8.97623e-22 1.69474e-16 0 0 0 5e-05 1.46608e-10 
130 1 0.383859 0.0175842 5.15859e-05 2.24035e-18 2.37919e-22 -1.71052e-15 0 3.67079e-27 0 5e-05 1.46608e-10 
131 1 0.38345 0.0177196 0.00536012 3.22958e-17 2.72461e-14 8.96464e-14 -4.97342e-23 -6.32535e-23 1.90252e-23 5e-05 1.46608e-10 
132 1 0.384418 0.0164926 5.23174e-05 2.24036e-18 6.64944e-22 -1.71052e-15 -4.03897e-28 1.41238e-26 0 5e-05 1.46608e-10 
133 1 0.383591 0.0185347 5.12355e-05 -3.50167e-19 -3.00238e-20 2.67382e-16 0 -2.3642e-25 0 5e-05 1.46608e-10 
134 1 0.383574 0.0183691 5.12127e-05 2.81054e-18 -5.21294e-21 -2.14593e-15 0 2.92356e-26 0 5e-05 1.46608e-10 
135 1 0.383667 0.0199993 5.13343e-05 2.81055e-18 -3.13076e-22 -2.14593e-15 0 -4.43499e-27 0 5e-05 1.46608e-10 
136 1 0.384475 0.0176309 5.23931e-05 -9.20524e-19 2.15199e-20 7.02843e-16 0 5.75193e-26 0 5e-05 1.46608e-10 
137 1 0.383925 0.0184105 5.16721e-05 1.79759e-18 2.01575e-23 -1.37249e-15 0 -6.93084e-28 0 5e-05 1.46608e-10 
138 1 0.384418 0.0178531 5.23181e-05 -2.09611e-12 -1.98428e-12 -2.97052e-13 2.90555e-18 -1.21451e-18 -6.32869e-18 5e-05 1.46608e-10 
140 1 0.384798 0.0171606 5.28155e-05 2.24033e-18 -9.06165e-21 -1.71052e-15 0 2.73908e-26 0 5e-05 1.46608e-10 
141 1 0.384313 0.0171449 5.21807e-05 2.24035e-18 -5.64458e-21 -1.71052e-15 0 1.63971e-25 0 5e-05 1.46608e-10 
142 1 0.385769 0.0165473 5.40881e-05 1.45287e-18 6.77031e-21 -1.10923e-15 0 -2.22784e-26 0 5e-05 1.46608e-10 
143 1 0.384333 0.0177947 5.22067e-05 -5.08476e-19 1.29671e-21 3.87845e-16 5.16988e-26 0 0 5e-05 1.46608e-10 
144 1 0.384385 0.0195542 5.22753e-05 -3.50204e-19 2.10158e-20 2.67381e-16 0 -3.42166e-26 0 5e-05 1.46608e-10 
146 1 0.384085 0.018684 5.18824e-05 2.81057e-18 8.17743e-22 -2.14593e-15 0 -1.67368e-27 0 5e-05 1.46608e-10 
147 1 0.384719 0.0170987 5.27125e-05 2.24033e-18 3.92737e-21 -1.71052e-15 0 -5.8032e-25 0 5e-05 1.46608e-10 
148 1 0.383894 0.0174902 5.16321e-05 2.24031e-18 -3.98516e-22 -1.71052e-15 0 5.35627e-26 0 5e-05 1.46608e-10 
149 1 0.384744 0.0173967 5.27447e-05 -1.22931e-19 -1.37963e-21 9.02055e-17 5.16988e-26 0 0 5e-05 1.46608e-10 
150 1 0.383756 0.0184867 5.14508e-05 2.81054e-18 8.73761e-21 -2.14593e-15 -4.03897e-28 3.35398e-26 0 5e-05 1.46608e-10 
151 1 0.384727 0.0201861 5.27225e-05 8.71364e-19 5.41332e-21 -6.65298e-16 0 1.5447e-25 0 5e-05 1.46608e-10 
153 1 0.384074 0.0170516 0.000137426 -2.55957e-20 -1.12557e-20 1.30448e-21 -1.9387e-26 -3.87741e-26 -5.65455e-27 5e-05 1.46608e-10 
154 1 0.384584 0.0177681 0.000101539 4.91712e-19 2.97049e-21 -3.71594e-16 0 0 0 5e-05 1.46608e-10 
155 1 0.384544 0.0163094 5.24825e-05 -9.20558e-19 -1.53358e-21 7.02844e-16 0 3.34836e-25 0 5e-05 1.46608e-10 
156 1 0.384233 0.0168376 5.20754e-05 2.24034e-18 -1.38128e-22 -1.71051e-15 0 -7.38894e-27 0 5e-05 1.46608e-10 
157 1 0.0219312 0.0187687 0.00551176 -3.82864e-14 8.17055e-14 2.95883e-13 -1.23483e-22 -1.88752e-22 3.35008e-23 5e-05 1.46608e-10 
158 1 0.384319 0.0167636 5.21878e-05 2.24032e-18 4.35141e-20 -1.71052e-15 0 4.78253e-25 0 5e-05 1.46608e-10 
159 1 0.384228 0.0177075 5.20694e-05 -5.1719e-19 3.16072e-21 3.87838e-16 0 -5.16988e-26 0 5e-05 1.46608e-10 
160 1 0.38353 0.0176621 0.00537757 -4.73929e-17 2.71447e-14 8.96771e-14 4.57276e-23 5.8187e-23 -1.75776e-23 5e-05 1.46608e-10 
162 1 0.38396 0.0191288 5.17179e-05 -3.50167e-19 -3.47755e-23 2.6738e-16 0 8.3173e-27 0 5e-05 1.46608e-10 
165 1 0.384146 0.0189135 5.19615e-05 -3.50222e-19 5.59335e-21 2.6738e-16 0 1.07572e-25 0 5e-05 1.46608e-10 
166 1 0.384895 0.0168866 5.2943e-05 -9.20542e-19 2.87745e-20 7.02845e-16 0 -4.70193e-25 0 5e-05 1.46608e-10 
167 1 0.384921 0.0196039 5.29764e-05 8.71374e-19 1.49151e-20 -6.65297e-16 0 -2.22392e-25 0 5e-05 1.46608e-10 
168 1 0.383956 0.019484 5.17133e-05 2.81056e-18 -5.37871e-22 -2.14593e-15 0 -1.81989e-27 0 5e-05 1.46608e-10 
169 1 0.383755 0.019009 5.14493e-05 2.81057e-18 -8.8759e-22 -2.14593e-15 0 -5.9204e-27 0 5e-05 1.46608e-10 
170 1 0.383888 0.0184727 0.00523166 6.88164e-16 -4.5769e-15 -5.98175e-14 -3.61892e-25 -1.29247e-25 0 5e-05 1.46608e-10 
171 1 0.384004 0.0193816 5.17764e-05 2.8106e-18 -5.18956e-22 -2.14593e-15 0 -3.97953e-26 0 5e-05 1.46608e-10 
172 1 0.384121 0.0171522 0.000126213 1.80617e-20 4.2218e-20 2.0988e-17 2.58494e-26 0 0 5e-05 1.46608e-10 
173 1 0.384268 0.0190399 5.21214e-05 -3.50215e-19 -1.4943e-21 2.67381e-16 0 1.38315e-25 0 5e-05 1.46608e-10 
174 1 0.384105 0.0178224 7.97669e-05 -6.44595e-15 -5.32863e-15 4.71803e-15 -4.76337e-20 -4.7292e-21 5.06458e-20 5e-05 1.46608e-10 
176 1 0.384124 0.018008 5.19332e-05 -1.12878e-14 -1.62709e-16 -2.08508e-15 -2.43198e-20 -1.14787e-19 3.87121e-21 5e-05 1.46608e-10 
177 1 0.38435 0.018262 5.22293e-05 1.45743e-20 -2.15755e-22 -7.47398e-18 0 0 0 5e-05 1.46608e-10 
178 1 0.384053 0.0189567 5.184e-05 2.81054e-18 -7.63935e-23 -2.14593e-15 0 -6.39463e-27 0 5e-05 1.46608e-10 
179 1 0.3843 0.0186551 5.2163e-05 1.79762e-18 -8.33362e-21 -1.37251e-15 0 -1.62606e-25 0 5e-05 1.46608e-10 
182 1 0.384992 0.0180145 5.30695e-05 1.79761e-18 1.00386e-21 -1.37251e-15 0 8.7684e-26 0 5e-05 1.46608e-10 
183 1 0.386759 0.0152483 5.53836e-05 1.45282e-18 -8.11754e-21 -1.10923e-15 0 -1.29113e-26 0 5e-05 1.46608e-10 
184 1 0.383617 0.019327 5.12691e-05 2.81058e-18 1.63888e-21 -2.14593e-15 0 2.16635e-27 0 5e-05 1.46608e-10 
185 1 0.384403 0.0192492 5.22987e-05 -3.50185e-19 2.82021e-21 2.67381e-16 0 9.15313e-27 0 5e-05 1.46608e-10 
186 1 0.384249 0.018274 5.20972e-05 1.14818e-20 -3.40683e-22 -7.47483e-18 0 0 0 5e-05 1.46608e-10 
187 1 0.38373 0.0197118 5.14173e-05 -3.50179e-19 1.32981e-21 2.67381e-16 0 3.1057e-26 0 5e-05 1.46608e-10 
188 1 0.385076 0.0179467 5.31802e-05 1.79757e-18 -2.16999e-20 -1.37249e-15 0 -2.17469e-27 0 5e-05 1.46608e-10 
189 1 0.38396 0.0177554 5.17178e-05 2.24035e-18 1.31297e-22 -1.71051e-15 -4.03897e-28 1.57497e-27 0 5e-05 1.46608e-10 
190 1 0.383867 0.0210849 5.15964e-05 -1.15571e-18 9.50782e-21 8.82406e-16 0 -1.16112e-25 0 5e-05 1.46608e-10 
191 1 0.384706 0.0184769 5.26952e-05 1.79757e-18 -6.37725e-22 -1.37249e-15 0 4.06829e-26 0 5e-05 1.46608e-10 
192 1 0.384023 0.0181084 5.1801e-05 -3.29951e-15 2.71525e-15 1.63967e-15 2.3753e-20 -1.3291e-20 1.48748e-20 5e-05 1.46608e-10 
193 1 0.383672 0.0184195 5.13415e-05 -3.50202e-19 7.40951e-21 2.67382e-16 0 -2.96994e-27 0 5e-05 1.46608e-10 
194 1 0.384122 0.0182248 5.1931e-05 1.79756e-18 -1.5758e-20 -1.37249e-15 0 -2.23746e-25 0 5e-05 1.46608e-10 
195 1 0.383967 0.0181955 5.17273e-05 1.79761e-18 5.30714e-22 -1.37251e-15 0 -3.39723e-26 0 5e-05 1.46608e-10 
196 1 0.384122 0.0181236 5.19307e-05 1.79759e-18 5.52293e-23 -1.37249e-15 0 -1.2021e-28 0 5e-05 1.46608e-10 
197 1 0.383676 0.0181534 0.000124512 -8.10414e-19 2.14876e-21 6.08853e-16 0 0 0 5e-05 1.46608e-10 
198 1 0.383816 0.019228 5.15292e-05 1.04636e-19 1.40445e-21 -8.03905e-17 -2.58494e-26 2.58494e-26 0 5e-05 1.46608e-10 
199 1 0.38465 0.0174377 5.26211e-05 -1.17635e-19 -4.16571e-22 9.01927e-17 0 -1.29247e-26 0 5e-05 1.46608e-10 
200 1 0.3851 0.0177266 5.32113e-05 -5.63914e-22 3.18074e-21 1.10769e-20 0 0 0 5e-05 1.46608e-10 
201 1 0.385006 0.0158243 5.30884e-05 1.45282e-18 -2.22125e-21 -1.10923e-15 -4.03897e-28 -2.19717e-26 0 5e-05 1.46608e-10 
202 1 0.385094 0.0174355 5.32031e-05 1.79759e-18 -1.20017e-21 -1.37251e-15 0 7.2277e-27 0 5e-05 1.46608e-10 
203 1 0.384504 0.0179623 5.24301e-05 2.84038e-12 -3.79478e-12 1.03861e-12 -3.187e-17 1.83063e-17 -6.56589e-18 5e-05 1.46608e-10 
204 1 0.384109 0.0184302 5.19127e-05 1.7976e-18 3.90823e-22 -1.37251e-15 0 -3.3809e-27 0 5e-05 1.46608e-10 
205 1 0.384524 0.0174713 5.24569e-05 2.24036e-18 6.37074e-21 -1.71052e-15 0 -2.64922e-26 0 5e-05 1.46608e-10 
206 1 0.38435 0.0178614 0.000125081 -4.00968e-13 -1.0458e-13 -5.45796e-13 1.45644e-17 4.08781e-18 -4.17698e-18 5e-05 1.46608e-10 
207 1 0.385023 0.0181691 5.31107e-05 1.79759e-18 -3.89505e-22 -1.37251e-15 0 4.55492e-27 0 5e-05 1.46608e-10 
208 1 0.385037 0.0175739 5.31289e-05 1.79758e-18 -1.00713e-21 -1.37249e-15 0 3.57848e-26 0 5e-05 1.46608e-10 
209 1 0.383886 0.018028 5.16209e-05 -7.84045e-16 4.91119e-16 1.72982e-15 -1.10322e-20 2.17532e-21 -4.96432e-21 5e-05 1.46608e-10 
210 1 0.384526 0.016716 5.24592e-05 2.24032e-18 7.23299e-21 -1.71051e-15 0 4.68962e-26 0 5e-05 1.46608e-10 
211 1 0.384505 0.0171609 5.24316e-05 2.24034e-18 3.66968e-21 -1.71052e-15 0 -8.80431e-26 0 5e-05 1.46608e-10 
212 1 0.383978 0.0185238 0.00522879 -2.82525e-15 1.87927e-14 2.4561e-13 -1.61559e-26 -7.75482e-26 0 5e-05 1.46608e-10 
213 1 0.383846 0.0191172 5.15692e-05 2.81058e-18 7.27669e-23 -2.14593e-15 0 -3.13399e-26 0 5e-05 1.46608e-10 
214 1 0.384625 0.017537 5.25895e-05 9.32318e-20 -4.00046e-22 -7.992e-17 0 0 0 5e-05 1.46608e-10 
215 1 0.385553 0.0152374 5.38047e-05 1.45282e-18 6.20577e-22 -1.10923e-15 0 -8.64722e-27 0 5e-05 1.46608e-10 
217 1 0.384411 0.0184417 5.23083e-05 1.79764e-18 4.5689e-22 -1.37251e-15 0 -5.45081e-26 0 5e-05 1.46608e-10 
218 1 0.384302 0.0165156 5.21656e-05 -9.20564e-19 8.37233e-21 7.02843e-16 0 -3.0966e-26 0 5e-05 1.46608e-10 
219 1 0.384399 0.0186101 5.22929e-05 1.79763e-18 2.43156e-21 -1.37251e-15 0 -2.79207e-25 0 5e-05 1.46608e-10 
220 1 0.384943 0.0187045 5.30057e-05 1.79759e-18 7.24677e-22 -1.37251e-15 -4.03897e-28 -1.14183e-26 0 5e-05 1.46608e-10 
222 1 0.384205 0.0180675 5.20391e-05 2.79578e-15 2.10861e-14 1.30501e-14 -3.83864e-19 4.48666e-20 -2.76174e-19 5e-05 1.46608e-10 
224 1 0.384058 0.0177382 5.18467e-05 7.65916e-15 -8.25702e-15 -1.4615e-15 -1.44513e-19 1.22021e-19 8.48481e-21 5e-05 1.46608e-10 
225 1 0.384811 0.0174713 5.28328e-05 9.58337e-20 6.16923e-21 -7.99125e-17 0 0 0 5e-05 1.46608e-10 
226 1 0.383884 0.0196254 5.16191e-05 -3.50222e-19 -1.02638e-21 2.67381e-16 0 -7.41241e-26 0 5e-05 1.46608e-10 
227 1 0.384574 0.0160758 5.25222e-05 2.24031e-18 -8.4064e-21 -1.71052e-15 0 1.37374e-25 0 5e-05 1.46608e-10 
228 1 0.384056 0.0180406 0.000117497 -2.06611e-16 1.44919e-15 -2.4166e-15 -2.51975e-21 1.39118e-20 -3.4025e-20 5e-05 1.46608e-10 
229 1 0.384183 0.0194731 5.201e-05 -3.50168e-19 -8.53096e-21 2.67382e-16 0 -1.46444e-26 0 5e-05 1.46608e-10 
230 1 0.385084 0.0171004 5.31901e-05 -9.2052e-19 2.14409e-21 7.02844e-16 0 8.49804e-27 0 5e-05 1.46608e-10 
232 1 0.38345 0.0186594 0.00522432 -5.74109e-14 3.19049e-19 -1.77479e-13 0 1.61172e-24 -2.06795e-25 5e-05 1.46608e-10 
233 1 0.384483 0.016964 5.24031e-05 -8.99911e-19 -7.77326e-21 7.02812e-16 -1.42172e-25 5.16988e-26 0 5e-05 1.46608e-10 
234 1 0.384564 0.0189811 5.25095e-05 -3.50221e-19 4.38337e-21 2.67382e-16 0 1.63341e-26 0 5e-05 1.46608e-10 
235 1 0.385129 0.0178507 5.32485e-05 1.11177e-22 -8.43281e-22 -2.2895e-21 0 -2.58494e-26 0 5e-05 1.46608e-10 
236 1 0.385096 0.0164501 5.32056e-05 -9.20541e-19 1.62709e-21 7.02842e-16 0 -3.40773e-25 0 5e-05 1.46608e-10 
237 1 0.383933 0.0187648 0.000130442 7.69746e-19 4.10347e-21 -5.98258e-16 -2.58494e-26 0 0 5e-05 1.46608e-10 
239 1 0.384687 0.0169933 5.26707e-05 2.24033e-18 6.88475e-23 -1.71051e-15 4.03897e-28 1.14885e-27 0 5e-05 1.46608e-10 
240 1 0.384262 0.0177729 0.000119547 -4.97919e-19 -1.98947e-21 3.87839e-16 -2.58494e-26 -2.58494e-26 0 5e-05 1.46608e-10 
241 1 0.384801 0.0166583 5.28192e-05 2.24033e-18 9.45532e-22 -1.71051e-15 4.03897e-28 1.045e-26 0 5e-05 1.46608e-10 
242 1 0.383909 0.0188216 5.16519e-05 7.83278e-19 2.28287e-21 -5.98258e-16 0 0 0 5e-05 1.46608e-10 
243 1 0.38439 0.0209101 5.22816e-05 2.00504e-18 1.38374e-20 -1.5309e-15 0 9.38366e-26 0 5e-05 1.46608e-10 
244 1 0.384493 0.0173689 9.64047e-05 -1.1862e-19 2.23809e-21 9.01928e-17 0 5.16988e-26 0 5e-05 1.46608e-10 
246 1 0.38382 0.0188681 5.15345e-05 -3.50174e-19 -4.80869e-23 2.6738e-16 0 2.59827e-27 0 5e-05 1.46608e-10 
247 1 0.384541 0.017902 0.000125062 -2.7567e-11 -8.37044e-11 -2.52086e-12 -6.12548e-17 1.54367e-16 -1.85771e-17 5e-05 1.46608e-10 
248 1 0.383639 0.0189866 5.12974e-05 -3.50199e-19 -1.25593e-21 2.67381e-16 0 2.54979e-26 0 5e-05 1.46608e-10 
249 1 0.38453 0.020178 5.24643e-05 8.71385e-19 3.08218e-21 -6.65297e-16 0 2.04763e-27 0 5e-05 1.46608e-10 
250 1 0.384661 0.0178084 5.26366e-05 4.86817e-19 -1.43841e-21 -3.71585e-16 0 0 0 5e-05 1.46608e-10 
251 1 0.384005 0.0178448 5.17769e-05 -2.19052e-19 -1.26315e-21 1.69486e-16 0 -3.23117e-27 0 5e-05 1.46608e-10 
252 1 0.384145 0.0205426 5.19607e-05 8.71335e-19 2.02358e-21 -6.65298e-16 0 7.88053e-26 0 5e-05 1.46608e-10 
253 1 0.383856 0.0203056 5.15822e-05 2.81057e-18 1.86615e-20 -2.14593e-15 0 -2.92286e-25 0 5e-05 1.46608e-10 
254 1 0.38515 0.0175249 5.32762e-05 1.7976e-18 6.32962e-21 -1.37249e-15 0 -9.12105e-26 0 5e-05 1.46608e-10 
255 1 0.383703 0.0182157 5.13821e-05 -7.98206e-19 1.93859e-21 6.08848e-16 0 0 0 5e-05 1.46608e-10 
256 1 0.384352 0.0191511 5.22319e-05 -3.50169e-19 -2.44567e-22 2.67382e-16 0 -1.22027e-26 0 5e-05 1.46608e-10 
257 1 0.384531 0.0168171 5.24664e-05 2.24036e-18 1.29587e-23 -1.71051e-15 0 -3.15668e-29 0 5e-05 1.46608e-10 
258 1 0.383662 0.0204201 5.13284e-05 -5.14035e-22 1.92672e-23 1.03396e-21 0 0 0 5e-05 1.46608e-10 
259 1 0.384524 0.0216685 5.24571e-05 2.00505e-18 -5.62977e-21 -1.5309e-15 0 -8.79854e-26 0 5e-05 1.46608e-10 
260 1 0.384677 0.0173224 5.2657e-05 -1.1615e-19 -1.72779e-21 9.02038e-17 0 -5.16988e-26 -4.1359e-25 5e-05 1.46608e-10 
261 1 0.383833 0.0185505 5.15522e-05 -3.50169e-19 -1.0229e-22 2.67381e-16 0 -8.29036e-28 0 5e-05 1.46608e-10 
262 1 0.384455 0.0172873 5.2367e-05 -1.19909e-19 -8.59699e-22 9.01938e-17 1.29247e-26 0 0 5e-05 1.46608e-10 
263 1 0.384148 0.018808 5.1965e-05 -3.50221e-19 -2.77773e-20 2.67382e-16 0 -2.19223e-25 0 5e-05 1.46608e-10 
264 1 0.383874 0.0192744 0.000117813 9.42821e-20 4.20033e-21 -8.0392e-17 -1.29247e-26 0 0 5e-05 1.46608e-10 
265 1 0.384664 0.0180562 5.26402e-05 1.79759e-18 1.60296e-21 -1.37251e-15 0 -2.87598e-26 0 5e-05 1.46608e-10 
266 1 0.383681 0.0195344 5.13528e-05 -3.50187e-19 -1.0329e-21 2.67382e-16 0 2.08382e-26 0 5e-05 1.46608e-10 
267 1 0.384035 0.0173399 5.18167e-05 2.24035e-18 1.03959e-22 -1.71052e-15 4.03897e-28 -4.75276e-28 0 5e-05 1.46608e-10 
268 1 0.384513 0.0181523 5.24423e-05 1.7976e-18 -3.75084e-21 -1.37251e-15 0 -8.16157e-26 0 5e-05 1.46608e-10 
269 1 0.383985 0.018016 5.17508e-05 -2.26068e-15 1.50819e-15 1.49309e-15 -4.55461e-21 2.90416e-20 1.26972e-22 5e-05 1.46608e-10 
270 1 0.384204 0.0178183 5.2038e-05 -5.09919e-19 2.22397e-21 3.87841e-16 0 0 0 5e-05 1.46608e-10 
271 1 0.384204 0.0183848 5.20381e-05 1.79764e-18 5.75872e-22 -1.37251e-15 0 -1.05633e-26 0 5e-05 1.46608e-10 
272 1 0.384044 0.0177752 0.000143609 2.55079e-14 -5.22384e-15 -9.29322e-15 7.68836e-21 8.30815e-21 -1.12526e-20 5e-05 1.46608e-10 
273 1 0.38425 0.0173241 5.20975e-05 2.24036e-18 4.32821e-21 -1.71051e-15 0 -2.22708e-26 0 5e-05 1.46608e-10 
274 1 0.383762 0.0206306 5.14594e-05 8.71339e-19 9.27605e-22 -6.65298e-16 0 1.18199e-26 0 5e-05 1.46608e-10 
275 1 0.385192 0.0170617 5.33312e-05 -9.20527e-19 -3.32209e-22 7.02844e-16 0 5.84183e-27 0 5e-05 1.46608e-10 
276 1 0.3843 0.0175031 5.2164e-05 2.24035e-18 -1.95668e-22 -1.71052e-15 0 -1.34953e-27 0 5e-05 1.46608e-10 
277 1 0.384989 0.0177301 5.30663e-05 1.7976e-18 -7.22009e-22 -1.37249e-15 4.03897e-28 -3.93407e-28 0 5e-05 1.46608e-10 
278 1 0.384608 0.0171655 5.25668e-05 2.24036e-18 1.14174e-22 -1.71052e-15 0 2.67661e-27 0 5e-05 1.46608e-10 
280 1 0.383746 0.0191087 5.14383e-05 2.81059e-18 -1.10799e-21 -2.14593e-15 0 1.76225e-27 0 5e-05 1.46608e-10 
281 1 0.384897 0.0194055 5.2945e-05 8.71345e-19 2.99282e-21 -6.65298e-16 0 -1.19272e-25 0 5e-05 1.46608e-10 
283 1 0.384732 0.0167368 5.27299e-05 2.24033e-18 -3.97413e-21 -1.71052e-15 0 4.72176e-26 0 5e-05 1.46608e-10 
284 1 0.383859 0.0194467 5.15855e-05 2.81054e-18 -1.59102e-22 -2.14593e-15 0 -1.4891e-26 0 5e-05 1.46608e-10 
285 1 0.384511 0.017816 5.24399e-05 4.88358e-19 -2.52104e-21 -3.71589e-16 0 0 0 5e-05 1.46608e-10 
286 1 0.384761 0.017818 5.27671e-05 4.87445e-19 -6.83838e-22 -3.71584e-16 0 0 0 5e-05 1.46608e-10 
287 1 0.384417 0.0167417 5.23161e-05 2.24036e-18 -6.65901e-21 -1.71052e-15 0 4.00444e-26 0 5e-05 1.46608e-10 
288 1 0.384905 0.0179551 5.29553e-05 1.79761e-18 -3.01489e-21 -1.37251e-15 -4.03897e-28 2.30412e-26 0 5e-05 1.46608e-10 
290 1 0.38472 0.0175079 6.94547e-05 1.09709e-19 -3.67024e-21 -7.99292e-17 -5.81611e-26 0 0 5e-05 1.46608e-10 
291 1 0.38371 0.0179981 5.13903e-05 2.24035e-18 -1.65587e-22 -1.71052e-15 0 -4.00141e-27 0 5e-05 1.46608e-10 
292 1 0.384101 0.0193494 5.19028e-05 -3.50183e-19 1.39517e-21 2.67381e-16 0 -3.97662e-26 0 5e-05 1.46608e-10 
293 1 0.384429 0.0174321 5.23324e-05 -1.17078e-19 -7.80543e-21 9.01862e-17 0 0 0 5e-05 1.46608e-10 
294 1 0.383845 0.0189654 5.1567e-05 5.30972e-19 -8.73291e-22 -4.06399e-16 0 0 0 5e-05 1.46608e-10 
295 1 0.383647 0.0190875 5.13083e-05 -3.50168e-19 -2.77896e-24 2.67381e-16 0 6.22722e-29 0 5e-05 1.46608e-10 
296 1 0.384035 0.0172167 0.000137258 -5.46916e-18 5.6907e-19 2.90982e-17 5.16988e-26 0 0 5e-05 1.46608e-10 
297 1 0.383829 0.0183804 5.15472e-05 1.79764e-18 -4.78013e-22 -1.37251e-15 0 -2.44942e-26 0 5e-05 1.46608e-10 
298 1 0.384428 0.0175321 5.23311e-05 -1.15501e-19 -3.50245e-21 9.0194e-17 0 0 0 5e-05 1.46608e-10 
299 1 0.38404 0.0171308 0.000188309 -9.37684e-18 2.19996e-17 1.46235e-17 0 1.03398e-25 0 5e-05 1.46608e-10 
300 1 0.383994 0.0172487 5.17625e-05 -4.42444e-20 6.11776e-21 3.69302e-17 -5.16988e-26 0 0 5e-05 1.46608e-10 
