ITEM: TIMESTEP
42600000
ITEM: NUMBER OF ATOMS
275
ITEM: BOX BOUNDS ff ff ff
-0.02 0.43
-0.02 0.06
-0.02 0.07
ITEM: ATOMS id type x y z vx vy vz fx fy fz radius mass 
1 1 0.261613 0.0180371 0.00711709 0.00602802 0.000318389 -0.000172051 1.02923e-10 -7.70431e-11 -7.60659e-12 5e-05 1.46608e-10 
2 1 0.261285 0.0169385 0.00746505 0.00571726 0.000427618 -0.00018291 2.57211e-12 1.88735e-11 -2.26546e-11 5e-05 1.46608e-10 
4 1 0.261439 0.0168497 0.00756225 0.00569568 0.000397965 -0.000154569 -5.84056e-11 -7.18428e-12 -4.04377e-12 5e-05 1.46608e-10 
5 1 0.2608 0.0154589 0.00914877 0.00580501 2.58474e-05 -0.000561628 3.43372e-11 -5.01477e-11 5.64145e-11 5e-05 1.46608e-10 
6 1 0.26728 0.0169121 0.00746798 0.00571031 0.000469271 -0.00015568 7.65124e-12 3.01537e-11 -1.97105e-11 5e-05 1.46608e-10 
7 1 0.261564 0.0173873 0.00717247 0.00572794 0.000381467 -0.000169654 -5.32523e-11 1.01144e-10 1.38465e-11 5e-05 1.46608e-10 
8 1 0.261285 0.0166165 0.00779301 0.00567203 0.000404284 -0.000162376 -5.70407e-11 -5.65809e-11 5.85391e-11 5e-05 1.46608e-10 
9 1 0.267472 0.0177716 0.00700725 0.00580126 0.000453349 -0.000149785 3.6492e-11 -2.99842e-11 3.18086e-12 5e-05 1.46608e-10 
10 1 0.26093 0.0158193 0.00869059 0.00589432 7.71249e-06 -0.000547994 -1.77637e-11 -1.38465e-10 1.57657e-10 5e-05 1.46608e-10 
11 1 0.261492 0.0176105 0.00723679 0.00568037 0.000361185 -0.000168733 -3.06641e-11 2.19052e-10 3.41136e-11 5e-05 1.46608e-10 
12 1 0.255557 0.0169993 0.00752679 0.00538368 -0.000460049 0.000423179 7.88735e-11 -7.22663e-11 8.9448e-11 5e-05 1.46608e-10 
13 1 0.260779 0.0153985 0.00922552 0.00580113 2.80842e-05 -0.000565638 -5.66382e-12 -4.51827e-11 3.6644e-11 5e-05 1.46608e-10 
14 1 0.255519 0.0176052 0.00714139 0.00549778 -0.000668233 0.000115218 2.51357e-10 -1.24498e-11 -5.0676e-11 5e-05 1.46608e-10 
16 1 0.255715 0.0180836 0.00696966 0.00581201 -0.000679766 0.000411281 4.27124e-10 -2.406e-10 -1.27971e-10 5e-05 1.46608e-10 
17 1 0.260909 0.0157587 0.00876748 0.0058899 1.14522e-05 -0.000553317 4.32314e-11 -1.02496e-10 1.2609e-10 5e-05 1.46608e-10 
19 1 0.260757 0.0153381 0.00930229 0.00578245 3.20794e-05 -0.000568672 -8.559e-11 -2.83726e-11 3.79891e-11 5e-05 1.46608e-10 
21 1 0.261606 0.0175822 0.00715521 0.00571412 0.000375416 -0.000171548 -8.6391e-11 2.01214e-10 -1.85897e-11 5e-05 1.46608e-10 
22 1 0.261243 0.0164783 0.00793197 0.00597336 0.000464471 -0.000210599 2.83323e-11 3.68168e-11 -3.78362e-11 5e-05 1.46608e-10 
23 1 0.255746 0.0178218 0.00698921 0.00557471 -0.000678748 8.17522e-05 -4.27118e-10 1.08564e-10 -1.38076e-10 5e-05 1.46608e-10 
24 1 0.267395 0.0174205 0.00717081 0.00571162 0.000462108 -0.00014889 2.25602e-10 1.85995e-10 -9.39289e-12 5e-05 1.46608e-10 
25 1 0.260973 0.0159399 0.00853716 0.0059273 -6.01347e-06 -0.000534233 -1.73746e-11 -1.37703e-10 1.78596e-10 5e-05 1.46608e-10 
26 1 0.267433 0.01759 0.00707175 0.00579474 0.000456639 -0.000150086 -2.69338e-10 -1.83859e-10 1.27875e-10 5e-05 1.46608e-10 
27 1 0.255366 0.0169398 0.00755822 0.00538911 -0.000408641 0.000389389 7.14808e-11 5.18034e-12 -2.19849e-11 5e-05 1.46608e-10 
28 1 0.261362 0.0168931 0.00751468 0.00570083 0.000405057 -0.000162963 1.65504e-11 4.68808e-12 -1.0527e-11 5e-05 1.46608e-10 
29 1 0.260735 0.0152778 0.009379 0.00576834 3.61614e-05 -0.00057264 -1.37063e-11 -2.61121e-11 3.19051e-11 5e-05 1.46608e-10 
30 1 0.26106 0.016183 0.00823179 0.00591388 0.000147294 -0.000400848 4.70419e-11 1.18661e-10 1.34921e-10 5e-05 1.46608e-10 
31 1 0.261644 0.0173266 0.0071756 0.00572049 0.000364177 -0.000142795 -3.7844e-10 5.26234e-11 4.87141e-11 5e-05 1.46608e-10 
32 1 0.260997 0.0159997 0.00846083 0.00593793 -1.12374e-05 -0.000529381 1.61801e-11 -1.17113e-10 1.38943e-10 5e-05 1.46608e-10 
33 1 0.2673 0.0169967 0.0074185 0.00573869 0.00046701 -0.000153873 -5.64463e-12 2.53887e-11 -1.72279e-11 5e-05 1.46608e-10 
34 1 0.260886 0.0157 0.00884503 0.00586754 1.82445e-05 -0.000559923 -7.5005e-11 -6.34126e-11 7.52365e-11 5e-05 1.46608e-10 
35 1 0.261529 0.0171963 0.00721319 0.00571436 0.000388901 -0.000148196 1.56809e-10 3.28539e-11 5.23014e-12 5e-05 1.46608e-10 
36 1 0.26753 0.0180626 0.0069631 0.00576125 0.000462224 -0.000151029 -2.04335e-12 -5.91235e-11 6.44735e-12 5e-05 1.46608e-10 
37 1 0.261421 0.0167804 0.00763211 0.00568346 0.000396068 -0.000153817 4.65261e-11 -6.20218e-11 2.95358e-11 5e-05 1.46608e-10 
38 1 0.261492 0.0170577 0.00735277 0.00568744 0.000397345 -0.000154549 -1.66719e-11 2.15433e-11 -4.30407e-11 5e-05 1.46608e-10 
39 1 0.267414 0.0175052 0.00712127 0.00573155 0.000457846 -0.000150604 1.39493e-10 -9.84352e-11 9.31611e-11 5e-05 1.46608e-10 
41 1 0.26086 0.0155775 0.00900027 0.00583655 1.55677e-05 -0.000563354 1.46726e-12 -3.23446e-11 5.8825e-11 5e-05 1.46608e-10 
42 1 0.261539 0.0168819 0.0075339 0.00567783 0.00037403 -0.000131376 -2.57251e-10 -6.01493e-11 5.29282e-11 5e-05 1.46608e-10 
44 1 0.261595 0.0170896 0.00732472 0.00568962 0.000377955 -0.000135983 -1.09127e-10 2.63669e-11 -2.81672e-11 5e-05 1.46608e-10 
45 1 0.267319 0.0170815 0.00736897 0.00560193 0.000487792 -0.000169299 4.39853e-11 8.42033e-12 -7.48715e-12 5e-05 1.46608e-10 
47 1 0.260866 0.015638 0.00892087 0.00584497 2.15153e-05 -0.000561733 -1.26723e-10 -3.69762e-11 4.42652e-11 5e-05 1.46608e-10 
48 1 0.26147 0.0178061 0.00713983 0.005621 0.000344342 -0.000165076 -1.35573e-11 5.15798e-11 -6.84259e-12 5e-05 1.46608e-10 
49 1 0.267491 0.0178686 0.00699253 0.00579342 0.000455248 -0.000149493 3.45344e-12 -1.38341e-11 -3.15671e-13 5e-05 1.46608e-10 
50 1 0.261016 0.0160607 0.00838368 0.00594595 -1.44534e-05 -0.000526319 -9.98301e-11 -7.06415e-11 9.48348e-11 5e-05 1.46608e-10 
51 1 0.261666 0.0174238 0.00716696 0.0057329 0.000358986 -0.000164448 3.37016e-11 2.83874e-11 3.10049e-11 5e-05 1.46608e-10 
52 1 0.255614 0.0172462 0.00736637 0.00540351 -0.000647271 0.000102336 -3.52941e-11 -2.02768e-10 1.30112e-10 5e-05 1.46608e-10 
53 1 0.267357 0.017251 0.00726989 0.0056506 0.000480895 -0.000164717 -3.56077e-11 -4.51362e-11 -1.26086e-11 5e-05 1.46608e-10 
54 1 0.261821 0.0177475 0.0071362 0.0060131 0.000189356 -0.00016156 1.37623e-10 3.02434e-10 -3.22038e-11 5e-05 1.46608e-10 
55 1 0.255537 0.0173034 0.0073381 0.00541777 -0.000511122 0.000318863 8.83854e-11 -3.60527e-11 1.23837e-10 5e-05 1.46608e-10 
56 1 0.261801 0.0176498 0.00714484 0.00589922 0.000299529 -0.000168071 3.21757e-10 4.81022e-10 -4.70468e-11 5e-05 1.46608e-10 
57 1 0.267338 0.0171662 0.00731943 0.00562933 0.000484481 -0.000166856 1.01342e-11 -4.89032e-13 1.9896e-11 5e-05 1.46608e-10 
59 1 0.378022 0.019866 0.005332 -5.02014e-15 -7.41199e-15 7.69802e-14 1.58974e-24 -4.26515e-24 -2.06795e-25 5e-05 1.46608e-10 
60 1 0.261612 0.017159 0.00725473 0.00571012 0.000375185 -0.000133259 6.26385e-11 -1.51749e-11 6.57595e-12 5e-05 1.46608e-10 
61 1 0.260822 0.0155192 0.00907204 0.0058106 2.62962e-05 -0.000563413 -2.70627e-11 -3.84044e-11 5.18883e-11 5e-05 1.46608e-10 
62 1 0.261511 0.0171269 0.00728309 0.00569095 0.000394826 -0.000151783 2.29935e-10 1.1746e-11 7.47069e-12 5e-05 1.46608e-10 
63 1 0.261573 0.0180018 0.00720183 0.0060112 0.000317617 -0.000172109 -1.02744e-10 1.87202e-10 -6.94607e-11 5e-05 1.46608e-10 
64 1 0.267376 0.0173357 0.00722035 0.00568721 0.000475767 -0.000157382 -2.11056e-10 1.00574e-10 -8.36658e-11 5e-05 1.46608e-10 
65 1 0.255576 0.017468 0.00723122 0.00543205 -0.000606723 0.00018319 -2.46024e-10 -1.95524e-10 -2.33128e-10 5e-05 1.46608e-10 
66 1 0.255721 0.0178325 0.00708522 0.005489 -0.000667422 2.32887e-05 -2.64245e-10 2.08061e-10 -4.52693e-10 5e-05 1.46608e-10 
67 1 0.261625 0.0176798 0.00714659 0.00584893 0.000343026 -0.00016934 -6.25429e-11 1.48453e-10 3.71044e-12 5e-05 1.46608e-10 
68 1 0.261416 0.017101 0.00730522 0.00569274 0.000408388 -0.000167552 3.36009e-10 1.89173e-11 -3.03905e-11 5e-05 1.46608e-10 
69 1 0.261706 0.0176191 0.00714972 0.00578586 0.000369708 -0.000171107 4.71899e-10 4.03035e-11 -2.25965e-11 5e-05 1.46608e-10 
70 1 0.267452 0.0176747 0.00702221 0.0058247 0.000449289 -0.000145781 2.59396e-10 -2.77797e-11 1.12018e-10 5e-05 1.46608e-10 
71 1 0.255885 0.0180456 0.00698183 0.00572027 -0.000843806 0.00041136 1.69888e-10 9.19972e-12 -1.04732e-10 5e-05 1.46608e-10 
72 1 0.261689 0.0179719 0.00712069 0.00601965 0.000307739 -0.000170621 4.68353e-11 -1.44389e-10 -1.44749e-12 5e-05 1.46608e-10 
73 1 0.260951 0.0158797 0.00861377 0.00590564 1.34684e-06 -0.000541801 -7.72496e-11 -1.44694e-10 1.91741e-10 5e-05 1.46608e-10 
74 1 0.261037 0.0161211 0.0083069 0.00595654 -1.39484e-05 -0.000520078 -1.66884e-10 -3.31732e-11 8.24037e-11 5e-05 1.46608e-10 
76 1 0.25548 0.0170526 0.00749216 0.00539433 -0.000455623 0.000408764 7.73378e-11 -3.33199e-11 3.2595e-11 5e-05 1.46608e-10 
77 1 0.261302 0.0170078 0.00739518 0.00563421 0.000431392 -0.000190675 1.16899e-10 5.15613e-11 -3.5523e-11 5e-05 1.46608e-10 
78 1 0.254857 0.0153916 0.00873075 0.00602518 -0.000449225 0.000673793 3.01155e-11 7.07899e-11 -3.43305e-11 5e-05 1.46608e-10 
79 1 0.255778 0.0183765 0.00697506 0.00602992 -0.000695676 0.000438345 1.38407e-10 -7.95216e-12 2.65343e-11 5e-05 1.46608e-10 
80 1 0.26138 0.0169637 0.00744605 0.00572057 0.000409508 -0.000164695 1.20412e-11 2.92095e-11 -5.80876e-11 5e-05 1.46608e-10 
82 1 0.255622 0.0178949 0.00706943 0.00540741 -0.00058444 0.00020764 -7.2735e-11 -1.69928e-10 1.49996e-10 5e-05 1.46608e-10 
83 1 0.255576 0.017082 0.00747398 0.0053824 -0.000649512 0.000110073 2.30333e-10 -1.96276e-10 -1.90715e-10 5e-05 1.46608e-10 
84 1 0.267511 0.0179656 0.00697781 0.00577566 0.000457926 -0.000151034 -1.19295e-11 -6.14892e-11 1.8693e-11 5e-05 1.46608e-10 
85 1 0.255928 0.0182444 0.00698548 0.00599094 -0.000719764 0.000431131 -3.46622e-11 -1.09251e-10 7.30866e-12 5e-05 1.46608e-10 
86 1 0.261575 0.0170205 0.0073943 0.00567709 0.000379271 -0.00013637 -8.92849e-11 2.12583e-11 -2.82781e-11 5e-05 1.46608e-10 
87 1 0.261345 0.0168238 0.00758454 0.00569485 0.000404037 -0.000161665 1.17319e-10 -9.94523e-13 4.07856e-11 5e-05 1.46608e-10 
88 1 0.26147 0.0173535 0.00717758 0.00572612 0.00037929 -0.000169881 3.90375e-11 1.01407e-10 7.38461e-12 5e-05 1.46608e-10 
89 1 0.261589 0.0176436 0.00723226 0.005659 0.000395564 -0.00021744 -5.9817e-11 1.52089e-10 6.15588e-11 5e-05 1.46608e-10 
90 1 0.261646 0.0177774 0.00713796 0.00600419 0.000311013 -0.000172506 -2.32792e-11 6.82926e-11 1.3265e-11 5e-05 1.46608e-10 
91 1 0.255538 0.0169154 0.00757769 0.00542159 -0.000427953 0.000404359 6.59317e-11 -8.90717e-11 3.45242e-11 5e-05 1.46608e-10 
92 1 0.261393 0.0174173 0.0071832 0.00571577 0.000364745 -0.000167274 1.09215e-11 5.50585e-11 5.08726e-12 5e-05 1.46608e-10 
93 1 0.261124 0.0163861 0.00802062 0.00598871 0.00040084 -0.000147408 1.42068e-10 2.27746e-11 2.37319e-11 5e-05 1.46608e-10 
94 1 0.261507 0.0177194 0.00723026 0.00563745 0.00031417 -0.000169682 1.95963e-10 8.10894e-11 -5.11927e-11 5e-05 1.46608e-10 
95 1 0.261423 0.0172772 0.00727938 0.00569543 0.000393427 -0.000160297 1.07108e-10 -8.50469e-12 6.16009e-11 5e-05 1.46608e-10 
96 1 0.261374 0.017319 0.00718279 0.00572215 0.000393218 -0.000169991 6.11294e-11 9.46137e-11 -9.68741e-11 5e-05 1.46608e-10 
97 1 0.254962 0.01566 0.00833475 0.0061349 -0.000485526 0.000592215 5.68763e-12 3.23949e-12 -1.42328e-10 5e-05 1.46608e-10 
98 1 0.261104 0.016317 0.00809014 0.00594928 0.000406298 -0.000149678 1.15987e-10 5.64893e-11 7.75718e-12 5e-05 1.46608e-10 
99 1 0.255501 0.0179124 0.00695365 0.00561599 -0.000424769 0.000410666 -1.77451e-12 -1.35624e-10 -5.14981e-11 5e-05 1.46608e-10 
100 1 0.261587 0.0174844 0.00716383 0.00572593 0.000377527 -0.000171621 -5.17854e-11 1.58648e-10 -4.20964e-11 5e-05 1.46608e-10 
101 1 0.25552 0.0180142 0.00695688 0.00555139 -0.000535343 0.000393472 -2.48943e-10 -3.78643e-10 4.16506e-11 5e-05 1.46608e-10 
102 1 0.0643568 0.0187248 0.00531097 4.03704e-15 1.05969e-14 8.29592e-14 2.2893e-21 2.73228e-23 -1.11669e-22 5e-05 1.46608e-10 
103 1 0.24257 0.0191927 0.00520306 -1.45275e-22 -1.27651e-22 1.23839e-22 0 0 0 5e-05 1.46608e-10 
104 1 0.255812 0.0181132 0.00697673 0.00582351 -0.00072211 0.000415397 -2.20179e-11 -1.88814e-10 4.62122e-11 5e-05 1.46608e-10 
105 1 0.25492 0.0155308 0.00847256 0.00612542 -0.000436174 0.00068923 1.11085e-10 2.30291e-11 -8.52155e-11 5e-05 1.46608e-10 
106 1 0.255614 0.0178047 0.00711199 0.00543878 -0.000631387 0.000104888 -6.66798e-11 4.18642e-11 -2.06165e-11 5e-05 1.46608e-10 
107 1 0.254878 0.0154379 0.00864466 0.00605029 -0.000454554 0.000680198 -8.6661e-11 2.39001e-11 -2.07205e-11 5e-05 1.46608e-10 
108 1 0.261726 0.0177165 0.00714109 0.00596887 0.000351484 -0.000173813 2.04931e-10 2.71088e-11 2.23933e-12 5e-05 1.46608e-10 
109 1 0.26178 0.0175524 0.00715347 0.00575882 0.00033507 -0.000167211 4.19519e-10 3.06931e-10 -3.17143e-11 5e-05 1.46608e-10 
110 1 0.261267 0.0168692 0.00753487 0.00571574 0.000431235 -0.000187775 -2.00145e-10 -1.57003e-11 1.5308e-11 5e-05 1.46608e-10 
111 1 0.261231 0.0167306 0.00767449 0.00568987 0.000431814 -0.000190592 1.33695e-10 -2.0265e-10 1.9935e-10 5e-05 1.46608e-10 
112 1 0.255004 0.0158257 0.00823114 0.00604295 -0.000525716 0.000483637 1.62177e-10 -1.46856e-11 -7.43996e-12 5e-05 1.46608e-10 
113 1 0.255425 0.0175804 0.00716298 0.00548033 -0.000607992 0.000144544 4.82485e-11 -7.59246e-11 -1.96572e-11 5e-05 1.46608e-10 
114 1 0.255463 0.0177445 0.00705525 0.00552498 -0.000631232 0.00012159 3.16696e-11 -3.22577e-10 -1.04115e-11 5e-05 1.46608e-10 
115 1 0.261557 0.0169512 0.00746411 0.00566611 0.000378029 -0.000136465 -1.24424e-10 -1.86584e-11 2.10888e-11 5e-05 1.46608e-10 
116 1 0.261549 0.0177447 0.00714303 0.00556058 0.000448578 -0.000170112 1.13493e-10 9.53496e-11 -5.277e-11 5e-05 1.46608e-10 
117 1 0.261546 0.0172893 0.00718119 0.00572965 0.000380786 -0.000155472 -6.61433e-11 4.08909e-11 8.9277e-11 5e-05 1.46608e-10 
118 1 0.255653 0.0174104 0.00725876 0.00541677 -0.000650616 0.000103067 -1.92089e-10 6.75994e-11 2.71331e-12 5e-05 1.46608e-10 
119 1 0.261747 0.017814 0.00713246 0.00604563 0.0003444 -0.000175186 -1.21528e-10 -1.88382e-10 1.38533e-11 5e-05 1.46608e-10 
120 1 0.261264 0.0165473 0.00786259 0.00595462 0.000471141 -0.000217666 -3.10322e-10 7.41621e-11 -9.39927e-11 5e-05 1.46608e-10 
121 1 0.261556 0.0181959 0.00710523 0.00604145 0.000320341 -0.000172954 4.76446e-11 5.28892e-11 -3.70479e-12 5e-05 1.46608e-10 
122 1 0.261355 0.0172212 0.00719139 0.00574714 0.000383224 -0.000171191 -2.90761e-11 2.15456e-12 -4.08725e-11 5e-05 1.46608e-10 
123 1 0.255907 0.0181432 0.0069837 0.00588291 -0.000875702 0.00042278 1.1082e-10 -2.82016e-10 4.12579e-11 5e-05 1.46608e-10 
124 1 0.261148 0.0164547 0.00795187 0.00600727 0.000397985 -0.000142924 6.99794e-11 -1.14525e-10 1.1139e-10 5e-05 1.46608e-10 
125 1 0.261452 0.0172555 0.00718619 0.00572159 0.000389794 -0.000167631 1.36322e-10 1.1094e-10 -2.26173e-11 5e-05 1.46608e-10 
127 1 0.254942 0.0155768 0.00838662 0.00611127 -0.000444103 0.000668598 4.37454e-11 3.33198e-11 -1.09702e-10 5e-05 1.46608e-10 
128 1 0.261084 0.0162502 0.00816168 0.0058681 0.00042564 -0.000151295 1.6e-10 1.53528e-10 1.26201e-10 5e-05 1.46608e-10 
129 1 0.26148 0.017504 0.00725367 0.00570978 0.000364353 -0.000169689 -1.74551e-11 1.63278e-10 1.35034e-11 5e-05 1.46608e-10 
130 1 0.255557 0.0177697 0.00703357 0.00550431 -0.00064327 7.34204e-05 2.59444e-11 1.64797e-10 2.20378e-10 5e-05 1.46608e-10 
131 1 0.255578 0.0178538 0.00697836 0.00551988 -0.000690409 0.0001113 -1.11064e-10 -2.11587e-10 -1.28407e-10 5e-05 1.46608e-10 
132 1 0.261456 0.0169191 0.00749236 0.00570015 0.000399612 -0.000156315 -7.74728e-11 9.28172e-12 -1.842e-11 5e-05 1.46608e-10 
133 1 0.261569 0.0178422 0.0071344 0.00601583 0.00032577 -0.000174538 8.41935e-12 2.24712e-11 2.17057e-11 5e-05 1.46608e-10 
134 1 0.26153 0.017647 0.00715165 0.00567896 0.000358489 -0.000168914 -8.78934e-11 1.49357e-10 1.51475e-12 5e-05 1.46608e-10 
135 1 0.261685 0.0175216 0.00715835 0.00573219 0.000365842 -0.000169755 7.3844e-11 2.13824e-10 -1.69906e-11 5e-05 1.46608e-10 
136 1 0.255518 0.0172202 0.00739005 0.00540478 -0.000476638 0.000372198 3.88828e-12 -4.66139e-11 2.41103e-11 5e-05 1.46608e-10 
137 1 0.261382 0.0173681 0.00726956 0.00572538 0.000392807 -0.000162492 3.16052e-11 -5.83184e-11 -2.59947e-11 5e-05 1.46608e-10 
138 1 0.261431 0.0176106 0.00715706 0.00567104 0.000352637 -0.000165932 -2.45076e-11 3.73771e-11 1.98007e-11 5e-05 1.46608e-10 
140 1 0.26132 0.0170772 0.0073253 0.00565771 0.000419861 -0.000179932 6.20642e-11 4.45428e-11 -4.98605e-11 5e-05 1.46608e-10 
141 1 0.255361 0.0165487 0.00779765 0.00544779 -0.000502302 0.000449856 -1.49895e-10 1.83243e-10 -1.09727e-10 5e-05 1.46608e-10 
142 1 0.255729 0.0177393 0.00704314 0.00557826 -0.000729535 0.000147983 1.31689e-10 -8.36143e-11 1.13443e-10 5e-05 1.46608e-10 
143 1 0.254899 0.0154843 0.00855868 0.00610156 -0.000455688 0.000685662 1.63867e-11 -3.26291e-11 -4.3368e-11 5e-05 1.46608e-10 
144 1 0.255691 0.0175746 0.00715114 0.00547747 -0.000677985 0.000118516 7.76609e-11 -1.81399e-10 -9.77664e-12 5e-05 1.46608e-10 
146 1 0.255045 0.0159907 0.00813155 0.0059966 -0.00052488 0.000479302 -2.20669e-11 -1.09081e-10 7.90646e-11 5e-05 1.46608e-10 
147 1 0.255538 0.0176873 0.00708756 0.0054929 -0.000659917 0.000123027 7.22171e-10 -3.06911e-11 -1.17273e-12 5e-05 1.46608e-10 
148 1 0.255382 0.016633 0.00774658 0.00570319 -0.000381804 0.000382747 -1.27821e-10 8.46526e-11 -5.34936e-11 5e-05 1.46608e-10 
149 1 0.261189 0.0165929 0.00781342 0.00586836 0.000410587 -0.00016329 -4.41055e-10 -1.69896e-10 1.1481e-10 5e-05 1.46608e-10 
150 1 0.255732 0.0185405 0.00697228 0.00600708 -0.000690056 0.0004318 -1.35442e-11 -6.17131e-11 1.90048e-12 5e-05 1.46608e-10 
151 1 0.255656 0.0182461 0.00696584 0.00600926 -0.000681707 0.00044324 2.68438e-10 1.66914e-10 6.06187e-12 5e-05 1.46608e-10 
153 1 0.255403 0.016717 0.00769569 0.00553584 -0.000495134 0.000447707 2.16446e-10 1.16161e-10 -6.43474e-11 5e-05 1.46608e-10 
154 1 0.255041 0.0159053 0.0081834 0.00601193 -0.00052038 0.00047643 1.331e-10 -5.85074e-11 2.28969e-11 5e-05 1.46608e-10 
155 1 0.255066 0.0160741 0.00808063 0.00597397 -0.00052785 0.000479616 -5.77896e-12 -2.19417e-10 1.18193e-10 5e-05 1.46608e-10 
156 1 0.255341 0.0164649 0.00784843 0.00527854 -0.00047834 0.00043115 -7.74283e-11 -5.72823e-12 -2.38716e-12 5e-05 1.46608e-10 
157 1 0.0219312 0.0187687 0.00551176 -3.83208e-14 8.16768e-14 2.95886e-13 -2.37892e-22 -6.08133e-22 1.32969e-22 5e-05 1.46608e-10 
158 1 0.255441 0.0168847 0.00759395 0.00537743 -0.000455402 0.0004194 -7.91502e-11 -3.97263e-11 -4.91638e-12 5e-05 1.46608e-10 
159 1 0.261474 0.0169884 0.00742257 0.00569185 0.000398485 -0.000156446 -7.92228e-11 2.70644e-11 -2.6529e-11 5e-05 1.46608e-10 
160 1 0.255539 0.0181124 0.00695699 0.00545997 -0.00051935 0.000405775 1.50962e-10 -5.37665e-10 4.6527e-10 5e-05 1.46608e-10 
162 1 0.255651 0.018091 0.007046 0.0058996 -0.000793388 0.000457111 -5.03838e-10 9.8632e-10 4.91154e-10 5e-05 1.46608e-10 
164 1 0.255129 0.016325 0.00792864 0.00578926 -0.000532397 0.000481169 4.46794e-10 -2.84129e-10 2.45318e-10 5e-05 1.46608e-10 
165 1 0.25576 0.0182781 0.0069744 0.00605854 -0.000706121 0.000445728 2.76829e-10 -1.09926e-10 -3.84316e-11 5e-05 1.46608e-10 
166 1 0.261451 0.0177083 0.00714845 0.00564757 0.000339322 -0.000167364 -2.47773e-11 7.36786e-11 2.08062e-11 5e-05 1.46608e-10 
167 1 0.255622 0.0184885 0.00696412 0.00601995 -0.000710623 0.000432412 -1.52617e-11 -2.35839e-12 3.94737e-11 5e-05 1.46608e-10 
168 1 0.255806 0.0184725 0.00697736 0.00601301 -0.000679383 0.000431745 4.92015e-11 9.56083e-11 5.45445e-13 5e-05 1.46608e-10 
169 1 0.255643 0.018586 0.00696899 0.00600477 -0.000699659 0.000427374 -3.80285e-11 -2.25157e-10 1.2978e-11 5e-05 1.46608e-10 
170 1 0.255708 0.0184457 0.00699227 0.00602139 -0.000702907 0.000433525 6.89217e-11 -3.29067e-11 3.87193e-11 5e-05 1.46608e-10 
171 1 0.261634 0.0181343 0.00710846 0.00603624 0.000317155 -0.000172129 1.22446e-10 -1.33325e-11 -1.49571e-11 5e-05 1.46608e-10 
172 1 0.255406 0.0174983 0.00721686 0.00546259 -0.000525196 0.00026563 -5.0382e-12 1.21472e-10 4.0526e-10 5e-05 1.46608e-10 
173 1 0.261667 0.0178746 0.00712933 0.0060204 0.000310425 -0.000171401 1.89271e-10 4.83143e-12 2.54358e-11 5e-05 1.46608e-10 
174 1 0.25517 0.0164924 0.00782718 0.00524435 -0.000460988 0.000419045 6.8001e-10 -1.44667e-10 5.23599e-11 5e-05 1.46608e-10 
176 1 0.255462 0.0173589 0.00730282 0.00553006 -0.000606499 -0.00012712 -1.03483e-09 1.38401e-09 4.81941e-10 5e-05 1.46608e-10 
177 1 0.255162 0.0161015 0.00806634 0.00596242 -0.000489974 0.000455942 3.19036e-11 -3.52658e-10 2.3221e-10 5e-05 1.46608e-10 
178 1 0.255489 0.0177347 0.00716091 0.00272932 0.00501541 -0.00531102 -1.11785e-10 8.09411e-11 -6.49151e-10 5e-05 1.46608e-10 
179 1 0.255595 0.0181796 0.00704916 0.00605304 -0.000506237 0.000469937 -1.70039e-09 3.64704e-10 5.46043e-10 5e-05 1.46608e-10 
182 1 0.261577 0.0182937 0.00709655 0.00605246 0.000312274 -0.000172563 -1.25461e-11 -2.98263e-11 4.34365e-12 5e-05 1.46608e-10 
183 1 0.255518 0.0179126 0.00705226 0.00561971 -0.000511893 0.000415156 2.60532e-11 1.21517e-10 -1.89067e-10 5e-05 1.46608e-10 
184 1 0.261513 0.0178554 0.0072159 0.00603481 0.000305611 -0.000172733 -3.94818e-11 1.24181e-10 2.85829e-11 5e-05 1.46608e-10 
185 1 0.25571 0.0176567 0.00709733 0.00553212 -0.000673076 0.000102314 -5.70942e-11 -3.07106e-11 4.21227e-11 5e-05 1.46608e-10 
186 1 0.256001 0.0181768 0.00699059 0.00587243 -0.000874293 0.000421365 -5.53697e-11 -4.08781e-11 -2.59958e-11 5e-05 1.46608e-10 
187 1 0.261591 0.0179394 0.00712577 0.00601711 0.000312233 -0.000171017 1.81061e-11 -8.37592e-11 2.3371e-11 5e-05 1.46608e-10 
188 1 0.261435 0.0171703 0.00723558 0.00570371 0.000400164 -0.000167755 2.99407e-10 4.12529e-11 1.23026e-11 5e-05 1.46608e-10 
189 1 0.261534 0.0180984 0.00711389 0.00603216 0.000321495 -0.000173137 2.86622e-11 -6.34419e-11 -2.10566e-11 5e-05 1.46608e-10 
190 1 0.249591 0.0183435 0.00694982 0.00620329 -4.02126e-05 -0.000294572 2.22944e-11 -1.22863e-10 2.15373e-12 5e-05 1.46608e-10 
191 1 0.26121 0.0166616 0.00774386 0.00574372 0.000423465 -0.000182072 -1.54038e-10 -2.04848e-10 1.89459e-10 5e-05 1.46608e-10 
192 1 0.255444 0.0176624 0.00710904 0.00550241 -0.000646126 9.90008e-05 1.14749e-10 -8.00544e-11 1.29012e-10 5e-05 1.46608e-10 
193 1 0.261656 0.0182316 0.00709982 0.00604739 0.000312766 -0.000172368 -9.64876e-12 2.32801e-11 -1.59871e-12 5e-05 1.46608e-10 
194 1 0.255631 0.0179926 0.00704486 0.00546785 -0.000425206 0.000305859 -1.23118e-10 -2.11966e-11 -3.05367e-10 5e-05 1.46608e-10 
195 1 0.255636 0.0181465 0.00696413 0.00591352 -0.000765652 0.000448824 -3.28641e-10 9.34132e-10 3.64534e-10 5e-05 1.46608e-10 
196 1 0.255673 0.0178894 0.00698373 0.00554584 -0.000628658 0.000330405 -5.5247e-10 -1.22655e-10 1.43723e-10 5e-05 1.46608e-10 
197 1 0.249274 0.0168995 0.00749778 0.00554991 0.000206719 0.00020826 -1.08632e-11 -1.30392e-10 4.87689e-11 5e-05 1.46608e-10 
198 1 0.255595 0.0171641 0.00742017 0.00539363 -0.000644793 0.000103618 6.7969e-11 -1.48804e-10 -3.19218e-11 5e-05 1.46608e-10 
199 1 0.255554 0.0180586 0.00703996 0.00566937 -0.000475502 0.000330939 -2.59963e-10 3.55439e-10 -1.39114e-10 5e-05 1.46608e-10 
200 1 0.254983 0.0157426 0.0082828 0.00609676 -0.000526294 0.000503206 3.79712e-11 -1.04948e-11 -1.24741e-10 5e-05 1.46608e-10 
201 1 0.255732 0.0181821 0.00697118 0.005997 -0.000701929 0.000426252 1.78051e-10 -1.6326e-10 -1.2393e-10 5e-05 1.46608e-10 
202 1 0.255461 0.0169686 0.00754305 0.00540099 -0.000456195 0.000408671 5.78753e-11 -9.76095e-11 -1.01119e-10 5e-05 1.46608e-10 
203 1 0.26151 0.0175486 0.00716033 0.00568033 0.00037158 -0.000168758 4.4065e-11 1.47423e-10 3.69217e-11 5e-05 1.46608e-10 
204 1 0.255768 0.0179181 0.00697297 0.00556997 -0.000644425 0.000397463 -3.14122e-10 -2.0804e-10 1.38709e-10 5e-05 1.46608e-10 
205 1 0.255307 0.0166881 0.00771085 0.005633 -0.000437798 0.000415683 5.45341e-13 1.38223e-10 -9.10077e-11 5e-05 1.46608e-10 
206 1 0.255347 0.0168559 0.00760913 0.00541529 -0.000398837 0.000385458 -7.48786e-11 -6.61453e-11 5.47825e-11 5e-05 1.46608e-10 
207 1 0.255224 0.0163529 0.00791399 0.0057415 -0.000247636 0.00029904 1.84018e-09 -1.59978e-09 9.17282e-10 5e-05 1.46608e-10 
208 1 0.255634 0.0173283 0.00731257 0.00538859 -0.000652272 0.000108685 -7.49031e-11 3.82025e-11 -7.75124e-11 5e-05 1.46608e-10 
209 1 0.255557 0.0173862 0.00728537 0.00540911 -0.000553653 0.000255365 -6.18726e-11 -1.41939e-10 -7.25675e-11 5e-05 1.46608e-10 
210 1 0.261306 0.0166855 0.00772367 0.00569492 0.000401181 -0.0001589 8.788e-12 -4.97584e-11 5.94704e-11 5e-05 1.46608e-10 
211 1 0.261326 0.0167546 0.00765422 0.00569474 0.000404617 -0.000162181 3.63639e-11 -8.66079e-12 3.21097e-11 5e-05 1.46608e-10 
212 1 0.255834 0.0182108 0.00697859 0.00599968 -0.000765829 0.000430876 1.32443e-10 -2.21112e-10 -6.30569e-11 5e-05 1.46608e-10 
213 1 0.261512 0.0180008 0.00712256 0.00602055 0.000318144 -0.000174019 -1.43579e-11 -4.79771e-11 -4.85552e-11 5e-05 1.46608e-10 
214 1 0.261398 0.0170317 0.00737502 0.00571433 0.000409275 -0.000164172 1.40326e-10 4.50261e-11 -5.9146e-11 5e-05 1.46608e-10 
215 1 0.249488 0.0178684 0.00702775 0.00567363 0.000205579 0.000215867 3.33516e-11 -5.27258e-11 2.66902e-11 5e-05 1.46608e-10 
216 1 0.255204 0.0162692 0.00796476 0.00599216 -0.000283467 0.000327845 4.26211e-10 -1.17435e-09 6.84816e-10 5e-05 1.46608e-10 
217 1 0.261599 0.0183909 0.00708791 0.00606342 0.000307224 -0.000172467 -8.86901e-13 -3.72063e-11 3.07728e-12 5e-05 1.46608e-10 
218 1 0.255482 0.0178281 0.0070038 0.005571 -0.000528614 0.000243853 5.43295e-11 -2.43197e-10 -1.10731e-10 5e-05 1.46608e-10 
219 1 0.261167 0.0165238 0.00788229 0.00597962 0.000398729 -0.000144857 -1.76018e-10 -2.05847e-10 1.51783e-10 5e-05 1.46608e-10 
220 1 0.255597 0.0179504 0.00696071 0.00551954 -0.000620381 0.000391968 1.87731e-10 1.68892e-11 1.9045e-11 5e-05 1.46608e-10 
222 1 0.261626 0.0172287 0.00718441 0.00572594 0.000372546 -0.000130969 -2.03531e-10 2.6885e-11 2.79503e-11 5e-05 1.46608e-10 
224 1 0.255385 0.0170238 0.00750731 0.00534351 -0.000435281 0.000407556 4.77452e-11 -2.01124e-10 1.46749e-10 5e-05 1.46608e-10 
225 1 0.261249 0.0167999 0.00760467 0.00570138 0.000433352 -0.000191161 -1.17208e-10 -1.02618e-10 9.3864e-11 5e-05 1.46608e-10 
226 1 0.255597 0.0177195 0.00716151 0.00546954 -0.000651558 0.000113378 3.38705e-10 6.14153e-12 -7.84415e-11 5e-05 1.46608e-10 
227 1 0.249507 0.0179567 0.00698486 0.00567926 0.000206804 0.000214595 4.33102e-12 -2.10901e-11 1.73647e-11 5e-05 1.46608e-10 
228 1 0.249449 0.0176937 0.00711246 0.005635 0.000199377 0.000216308 5.97988e-11 5.30521e-12 1.44284e-11 5e-05 1.46608e-10 
229 1 0.255854 0.0183118 0.00698036 0.00604621 -0.000664201 0.000436766 2.81537e-10 1.35979e-10 5.96584e-11 5e-05 1.46608e-10 
230 1 0.255291 0.016995 0.00752249 0.00532617 -0.000417017 0.000395234 5.8112e-11 -2.71925e-11 -1.06307e-11 5e-05 1.46608e-10 
232 1 0.255694 0.01818 0.00706364 0.00609222 -0.000659294 0.000415916 2.09676e-09 -3.5663e-10 5.37055e-10 5e-05 1.46608e-10 
233 1 0.2556 0.0183909 0.00696226 0.00602404 -0.000724305 0.000440618 1.56792e-11 8.74953e-12 -5.75598e-11 5e-05 1.46608e-10 
234 1 0.26157 0.0175456 0.00724108 0.00572041 0.000350174 -0.000175292 6.53099e-11 -1.60881e-11 -7.47381e-11 5e-05 1.46608e-10 
235 1 0.255252 0.0168272 0.00762423 0.00555049 -0.000446706 0.000418281 -3.84359e-11 6.42843e-11 -7.53144e-11 5e-05 1.46608e-10 
236 1 0.255348 0.0172467 0.00736981 0.00539758 -0.00042179 0.000443493 4.57813e-10 1.20378e-10 -2.06708e-12 5e-05 1.46608e-10 
237 1 0.255367 0.0173306 0.00731895 0.00540848 -0.000417113 0.000442345 -1.28374e-10 -1.78522e-10 -3.30517e-10 5e-05 1.46608e-10 
239 1 0.249176 0.0165002 0.00777924 0.00572322 -0.000211242 -0.000335168 -3.17955e-11 1.61881e-10 -1.00667e-10 5e-05 1.46608e-10 
240 1 0.249235 0.0167306 0.00759637 0.00563928 3.52061e-06 -5.67741e-05 -2.27984e-10 8.09364e-11 1.85288e-10 5e-05 1.46608e-10 
241 1 0.249156 0.0164239 0.00784067 0.00570634 -0.000199212 -0.000345219 -1.11985e-12 8.13531e-11 -6.62235e-11 5e-05 1.46608e-10 
242 1 0.255519 0.0168314 0.00762864 0.00542352 -0.000415497 0.000396087 -1.09733e-10 -3.52288e-11 3.22564e-11 5e-05 1.46608e-10 
243 1 0.255652 0.0177984 0.00701977 0.00557294 -0.000696956 0.000164793 -4.53508e-11 -4.5799e-11 2.75226e-10 5e-05 1.46608e-10 
244 1 0.249196 0.0165765 0.00771781 0.00575778 -0.000222323 -0.000326862 -1.09989e-11 1.2902e-10 -2.62857e-10 5e-05 1.46608e-10 
246 1 0.249371 0.0173408 0.00728368 0.00559032 0.00020031 0.000214957 -3.79799e-11 9.05239e-11 -5.39204e-11 5e-05 1.46608e-10 
247 1 0.255191 0.0165761 0.00777645 0.00528557 -0.000449111 0.000415083 -1.95073e-10 -1.68158e-10 9.76839e-11 5e-05 1.46608e-10 
248 1 0.2555 0.017524 0.00719662 0.00546623 -0.000587516 0.000205461 -4.657e-11 1.13434e-10 2.29751e-10 5e-05 1.46608e-10 
249 1 0.249312 0.0170761 0.00741211 0.00551837 0.000204151 0.000207842 1.36704e-10 -9.72798e-11 4.9951e-11 5e-05 1.46608e-10 
250 1 0.255266 0.0165205 0.00781244 0.00524725 -0.000497275 0.000440682 -9.02598e-11 -3.53825e-11 4.59672e-11 5e-05 1.46608e-10 
251 1 0.261488 0.0174515 0.00716897 0.00570472 0.000373725 -0.000171309 8.82347e-11 1.20857e-10 2.12372e-11 5e-05 1.46608e-10 
252 1 0.24939 0.017429 0.00724087 0.00560991 0.000199165 0.000216025 -1.92316e-11 1.53247e-10 -7.92839e-11 5e-05 1.46608e-10 
253 1 0.249569 0.0182459 0.0069487 0.00620847 -3.77423e-05 -0.000293871 8.61057e-11 -6.66123e-11 -1.4944e-11 5e-05 1.46608e-10 
254 1 0.249332 0.0171643 0.00736929 0.00555057 0.000195298 0.000213759 1.84161e-11 -3.66744e-11 1.8201e-11 5e-05 1.46608e-10 
255 1 0.254836 0.0153452 0.00881685 0.0059857 -0.000444855 0.000666682 -1.93902e-10 2.36574e-11 -3.77783e-11 5e-05 1.46608e-10 
256 1 0.25579 0.0180156 0.00697487 0.00568634 -0.000686341 0.000407012 1.07495e-11 -1.93113e-10 1.44866e-10 5e-05 1.46608e-10 
257 1 0.255422 0.0168008 0.00764485 0.00534345 -0.000462248 0.000423037 -6.51872e-11 5.78495e-12 -8.10769e-12 5e-05 1.46608e-10 
258 1 0.255481 0.017441 0.00724901 0.00547168 -0.000664392 0.000114926 4.13132e-10 -2.29726e-10 -7.38231e-10 5e-05 1.46608e-10 
259 1 0.24941 0.0175173 0.00719807 0.00561634 0.000202602 0.000215334 9.31636e-12 1.40445e-10 -7.18642e-11 5e-05 1.46608e-10 