ITEM: TIMESTEP
26600000
ITEM: NUMBER OF ATOMS
275
ITEM: BOX BOUNDS ff ff ff
-0.02 0.43
-0.02 0.06
-0.02 0.07
ITEM: ATOMS id type x y z vx vy vz fx fy fz radius mass 
1 1 0.168443 0.0170353 0.00766036 0.00562631 -0.00148412 0.0011968 -2.90879e-10 1.50044e-10 -9.16053e-11 5e-05 1.46608e-10 
2 1 0.168073 0.0173422 0.00752322 0.0058613 -0.00122464 0.00115529 1.06532e-10 -1.21482e-10 3.4673e-11 5e-05 1.46608e-10 
4 1 0.168001 0.0166184 0.00771515 0.00533118 -0.00117694 0.00107172 -1.64932e-10 3.58368e-10 -7.83112e-11 5e-05 1.46608e-10 
5 1 0.167627 0.0157905 0.00872893 0.00535136 -0.00140497 0.000998914 -1.10169e-10 2.398e-10 -1.35127e-11 5e-05 1.46608e-10 
6 1 0.174112 0.0174923 0.00725233 0.00523109 -0.0012474 -0.00020076 4.45999e-13 -7.41317e-11 6.72672e-11 5e-05 1.46608e-10 
7 1 0.168111 0.0163096 0.00781663 0.00534538 -0.00126845 0.00109997 -9.61159e-11 9.98849e-11 4.42945e-12 5e-05 1.46608e-10 
8 1 0.167939 0.0163335 0.00778605 0.00534615 -0.00120827 0.00107637 -1.07591e-10 3.0511e-10 4.87431e-11 5e-05 1.46608e-10 
9 1 0.174309 0.0184251 0.00696095 0.00585056 -0.00111698 0.000325308 -1.43246e-11 -2.36021e-11 8.86155e-12 5e-05 1.46608e-10 
10 1 0.167747 0.0160564 0.0082046 0.00566116 -0.00139411 0.00103064 2.29872e-11 -2.09096e-10 3.49996e-10 5e-05 1.46608e-10 
11 1 0.168159 0.0177228 0.007429 0.00517202 -0.00126856 0.00104813 -1.88395e-09 -6.67301e-10 -7.2765e-10 5e-05 1.46608e-10 
12 1 0.161771 0.0160485 0.00817947 0.0060224 2.857e-05 0.000430069 -5.31008e-11 -9.86555e-11 2.94732e-11 5e-05 1.46608e-10 
13 1 0.167604 0.0157409 0.0088125 0.00532227 -0.00136918 0.00102964 1.88596e-10 4.75897e-11 -1.53564e-10 5e-05 1.46608e-10 
14 1 0.162107 0.0172216 0.00746998 0.0053397 -0.000426734 -1.13019e-05 -3.57922e-10 -1.22391e-10 -2.18431e-10 5e-05 1.46608e-10 
16 1 0.162586 0.0172093 0.00738083 0.00545245 -0.000513981 4.51758e-05 3.87242e-10 -2.32629e-10 6.09006e-11 5e-05 1.46608e-10 
17 1 0.167726 0.0160112 0.00829151 0.00564263 -0.00140504 0.00101883 4.50196e-11 -2.51013e-10 3.04896e-10 5e-05 1.46608e-10 
19 1 0.167584 0.0156957 0.00889948 0.00528047 -0.00136223 0.00102201 1.45669e-10 5.88827e-11 -3.85671e-10 5e-05 1.46608e-10 
21 1 0.168229 0.0168771 0.00767466 0.00563194 -0.00130471 0.0011481 -4.49801e-10 3.31174e-10 -1.41811e-10 5e-05 1.46608e-10 
22 1 0.167936 0.0162418 0.00782563 0.00560101 -0.00130736 0.000831025 -3.29233e-11 3.25068e-10 1.10623e-10 5e-05 1.46608e-10 
23 1 0.162318 0.0172184 0.00738246 0.00537546 -0.000323171 3.41545e-06 -3.80556e-11 2.25498e-12 -3.69633e-11 5e-05 1.46608e-10 
24 1 0.174229 0.0180479 0.0070677 0.00535153 -0.000985319 0.000287286 3.76695e-11 7.67599e-11 -1.2905e-11 5e-05 1.46608e-10 
25 1 0.167789 0.0161462 0.00803097 0.00578597 -0.00143407 0.00105215 -2.25555e-11 -3.75795e-11 3.42377e-10 5e-05 1.46608e-10 
26 1 0.174268 0.0182366 0.0070143 0.00535416 -0.00101741 0.000296324 1.81538e-11 4.65361e-11 -1.15644e-11 5e-05 1.46608e-10 
27 1 0.162124 0.0171462 0.00740236 0.00537531 -0.000250797 -1.37238e-05 -6.76824e-10 3.5542e-10 -8.06861e-11 5e-05 1.46608e-10 
28 1 0.168076 0.0165577 0.00774248 0.00532221 -0.00122745 0.00108419 -9.29612e-11 2.8051e-10 -7.94143e-11 5e-05 1.46608e-10 
29 1 0.167563 0.0156507 0.00898628 0.00525913 -0.00135107 0.00102475 9.65409e-11 2.98008e-10 -5.32537e-10 5e-05 1.46608e-10 
30 1 0.167884 0.0164882 0.00773522 0.00537397 -0.00122571 0.00109638 2.81587e-11 2.29357e-10 -6.842e-12 5e-05 1.46608e-10 
31 1 0.167808 0.0161918 0.00794403 0.00579567 -0.00142973 0.00106406 1.72518e-10 4.38487e-10 5.3019e-10 5e-05 1.46608e-10 
32 1 0.167843 0.016239 0.00786336 0.00568903 -0.00140621 0.00103912 2.48162e-10 1.10504e-09 9.34242e-10 5e-05 1.46608e-10 
33 1 0.174131 0.0175762 0.00720122 0.00533224 -0.000971229 0.000283964 -2.68018e-11 -7.68643e-11 2.18347e-11 5e-05 1.46608e-10 
34 1 0.167706 0.0159662 0.00837847 0.00558378 -0.00140149 0.0010088 -1.23779e-10 -2.72775e-10 1.49272e-10 5e-05 1.46608e-10 
35 1 0.168055 0.0164627 0.00776612 0.0053527 -0.0012469 0.00109102 7.35042e-14 2.46377e-10 -7.77408e-11 5e-05 1.46608e-10 
36 1 0.17437 0.0187076 0.00688099 0.00598043 -0.00113716 0.000331231 -4.18146e-12 -4.76541e-11 1.57196e-11 5e-05 1.46608e-10 
37 1 0.16796 0.0164285 0.00776239 0.00536463 -0.00121878 0.00109625 -5.87226e-11 2.60339e-10 -7.48685e-11 5e-05 1.46608e-10 
38 1 0.168096 0.0166528 0.00771872 0.00534968 -0.00122286 0.00108692 -2.05193e-10 2.85448e-10 -9.368e-11 5e-05 1.46608e-10 
39 1 0.174249 0.0181423 0.007041 0.00535407 -0.0010027 0.000292388 3.4359e-11 1.77526e-10 -5.49002e-11 5e-05 1.46608e-10 
41 1 0.167665 0.015876 0.00855211 0.00548729 -0.00138438 0.00101077 -1.69881e-11 -4.07781e-11 1.68884e-11 5e-05 1.46608e-10 
42 1 0.167918 0.0161932 0.00791124 0.00583547 -0.00135408 0.000877038 7.1006e-10 -8.02318e-11 -1.15192e-10 5e-05 1.46608e-10 
44 1 0.168115 0.0167479 0.00769488 0.00545031 -0.00121319 0.00109826 2.0532e-10 2.69835e-10 -5.37587e-11 5e-05 1.46608e-10 
45 1 0.174151 0.0176705 0.00717451 0.00533578 -0.000970956 0.000282978 -4.2025e-11 -3.75592e-11 1.95804e-11 5e-05 1.46608e-10 
47 1 0.167687 0.0159225 0.00846622 0.0055121 -0.0013873 0.00100595 -1.63855e-10 -5.7058e-11 1.01258e-10 5e-05 1.46608e-10 
48 1 0.16818 0.0178177 0.00740542 0.00519321 -0.00130826 0.00109317 4.47426e-10 2.6204e-09 -5.68509e-10 5e-05 1.46608e-10 
49 1 0.174329 0.0185193 0.00693429 0.00589282 -0.0011269 0.000328304 -1.28086e-11 -1.77495e-11 -2.37872e-12 5e-05 1.46608e-10 
50 1 0.167843 0.016298 0.0077826 0.00539418 -0.0013084 0.00111284 9.94856e-11 5.14701e-11 4.13941e-11 5e-05 1.46608e-10 
51 1 0.167846 0.0163497 0.00786811 0.00536524 -0.0012794 0.00108549 8.10096e-12 -1.1344e-11 1.41032e-10 5e-05 1.46608e-10 
52 1 0.16173 0.01599 0.00824944 0.00599828 2.41518e-05 0.000430473 -3.73086e-10 9.52129e-11 -1.59844e-10 5e-05 1.46608e-10 
53 1 0.17419 0.0178592 0.00712111 0.00534465 -0.000974588 0.000284141 -5.03677e-11 4.85628e-11 3.35628e-12 5e-05 1.46608e-10 
54 1 0.168324 0.0169095 0.00767881 0.00575311 -0.00142592 0.00119862 -1.36266e-10 -1.74127e-10 3.43499e-11 5e-05 1.46608e-10 
55 1 0.162192 0.0170095 0.00749245 0.00544761 -0.000401908 1.71605e-05 1.81382e-10 -1.71109e-10 -2.44493e-10 5e-05 1.46608e-10 
56 1 0.168036 0.0162438 0.00782451 0.00560589 -0.00100154 0.00106245 3.149e-11 -7.77998e-11 5.46548e-12 5e-05 1.46608e-10 
57 1 0.17417 0.0177649 0.00714781 0.00534049 -0.000972877 0.000284 2.15713e-11 -2.02018e-11 -1.28788e-11 5e-05 1.46608e-10 
59 1 0.378022 0.019866 0.005332 -5.0193e-15 -7.412e-15 7.69803e-14 -1.23948e-23 4.00666e-24 -4.1359e-25 5e-05 1.46608e-10 
60 1 0.16819 0.0166869 0.00772227 0.00536951 -0.00126123 0.00109977 -3.47657e-10 1.16911e-10 -8.29866e-11 5e-05 1.46608e-10 
61 1 0.167645 0.0158335 0.0086404 0.00543283 -0.00141304 0.00099721 6.07477e-11 -4.78276e-11 -5.93803e-11 5e-05 1.46608e-10 
62 1 0.168134 0.0168431 0.00767105 0.00548746 -0.00119369 0.00109916 -4.84719e-10 4.13126e-10 -2.03635e-10 5e-05 1.46608e-10 
63 1 0.168276 0.0178534 0.00740882 0.00542825 -0.00124542 0.000864472 1.6646e-10 -7.01618e-11 8.80899e-12 5e-05 1.46608e-10 
64 1 0.17421 0.0179536 0.0070944 0.00535114 -0.00097994 0.000285914 2.77768e-11 2.31538e-11 -1.90205e-11 5e-05 1.46608e-10 
65 1 0.162215 0.0174718 0.00741396 0.00554764 -0.000541456 -4.538e-05 2.34405e-11 1.50762e-10 -5.29359e-10 5e-05 1.46608e-10 
66 1 0.16221 0.0177846 0.00732182 0.00568949 -0.000721067 0.000435993 1.33746e-11 -3.89796e-11 5.04652e-10 5e-05 1.46608e-10 
67 1 0.168223 0.0172222 0.00757765 0.00576978 -0.00128833 0.00116385 6.26498e-11 2.10737e-10 -5.64384e-11 5e-05 1.46608e-10 
68 1 0.168154 0.0169382 0.00764725 0.00552081 -0.00118857 0.00109996 -2.35121e-10 2.23974e-10 -7.96579e-11 5e-05 1.46608e-10 
69 1 0.16825 0.0169719 0.00765123 0.0058782 -0.00134252 0.00119287 -4.1007e-10 2.49002e-10 -1.40384e-10 5e-05 1.46608e-10 
70 1 0.174288 0.0183309 0.0069876 0.00580571 -0.00110917 0.000323074 -2.3927e-12 -1.37569e-11 3.54335e-12 5e-05 1.46608e-10 
71 1 0.162396 0.0171555 0.00739632 0.00543187 -0.000351584 8.38942e-06 -2.55633e-11 -6.78307e-11 3.08451e-12 5e-05 1.46608e-10 
72 1 0.168344 0.0173497 0.00755882 0.00538149 -0.00120955 0.00108896 -3.38662e-10 2.59175e-11 -1.26323e-10 5e-05 1.46608e-10 
73 1 0.167767 0.0161014 0.00811773 0.00571726 -0.00139273 0.00104938 -3.33841e-10 -2.85778e-10 1.96279e-10 5e-05 1.46608e-10 
74 1 0.167864 0.0163932 0.00775889 0.00536395 -0.00136173 0.00112665 -4.77864e-12 -2.74273e-11 6.95436e-12 5e-05 1.46608e-10 
76 1 0.162112 0.0169091 0.00754439 0.0054664 -0.000377667 2.06825e-05 -9.14755e-11 8.19354e-11 2.83306e-12 5e-05 1.46608e-10 
77 1 0.168125 0.0171881 0.00757351 0.00584024 -0.0012255 0.00115508 1.29502e-10 1.56351e-10 -1.21233e-11 5e-05 1.46608e-10 
78 1 0.161579 0.0155583 0.00877787 0.00586169 -1.67437e-05 0.000474771 1.05169e-10 5.48472e-11 -7.1451e-11 5e-05 1.46608e-10 
79 1 0.162306 0.0177595 0.00733596 0.00574336 -0.00072364 3.95905e-06 1.23192e-10 1.1831e-11 -8.37971e-12 5e-05 1.46608e-10 
80 1 0.167991 0.0167877 0.00775202 0.00538332 -0.00126411 0.00103014 -7.38789e-11 1.26076e-10 -2.86319e-10 5e-05 1.46608e-10 
82 1 0.161828 0.0162325 0.00795359 0.00590703 4.68226e-05 0.000393384 -2.62376e-10 -1.20677e-10 1.5639e-10 5e-05 1.46608e-10 
83 1 0.162083 0.0164951 0.00761547 0.00588302 -8.05646e-05 0.000230061 -2.54822e-10 4.41026e-11 7.83002e-11 5e-05 1.46608e-10 
84 1 0.17435 0.0186135 0.00690764 0.00593731 -0.00113129 0.000329665 -5.79253e-12 -4.43099e-11 1.5287e-11 5e-05 1.46608e-10 
85 1 0.162611 0.0173303 0.00735167 0.0055234 -0.000399319 1.76867e-05 -3.4209e-10 3.75059e-10 -7.63891e-11 5e-05 1.46608e-10 
86 1 0.167981 0.0165235 0.00773879 0.00533893 -0.0011996 0.00108037 -9.00344e-11 3.24855e-10 -1.13841e-10 5e-05 1.46608e-10 
87 1 0.168 0.0163238 0.00787276 0.00530725 -0.00116629 0.00110557 4.50702e-11 -1.62787e-10 7.95738e-12 5e-05 1.46608e-10 
88 1 0.168143 0.017453 0.00758711 0.00576584 -0.00122254 0.00123795 -5.88183e-10 1.85542e-10 -1.25431e-10 5e-05 1.46608e-10 
89 1 0.168119 0.0173583 0.00761025 0.005845 -0.00123704 0.00115262 1.15792e-10 2.32687e-10 2.82491e-11 5e-05 1.46608e-10 
90 1 0.168167 0.0176928 0.00752407 0.00532852 -0.00158031 0.000838333 2.92705e-11 4.80541e-10 3.10298e-10 5e-05 1.46608e-10 
91 1 0.161772 0.0161109 0.00810137 0.00603221 3.7325e-05 0.000433097 2.65871e-10 -1.64357e-10 1.98793e-10 5e-05 1.46608e-10 
92 1 0.168247 0.0173166 0.00755452 0.0058399 -0.00128591 0.00117623 -1.8057e-11 7.19004e-11 -6.37471e-11 5e-05 1.46608e-10 
93 1 0.167925 0.0166782 0.0076879 0.00535034 -0.00121023 0.00108432 1.69062e-11 1.76049e-11 -2.26014e-11 5e-05 1.46608e-10 
94 1 0.168234 0.0176631 0.00745615 0.00515095 -0.00109484 0.00101817 -1.62086e-11 -3.48936e-10 -1.094e-10 5e-05 1.46608e-10 
95 1 0.168145 0.0175971 0.00754747 0.00538461 -0.00115678 0.00108508 -2.07585e-11 -9.22505e-11 8.58616e-11 5e-05 1.46608e-10 
96 1 0.16827 0.0174112 0.00753139 0.00544589 -0.00114436 0.00107046 -1.48257e-11 3.01881e-10 -1.05339e-11 5e-05 1.46608e-10 
97 1 0.161689 0.0158745 0.00840691 0.00595316 3.10672e-06 0.000455902 -3.43489e-11 -1.33101e-10 1.02348e-10 5e-05 1.46608e-10 
98 1 0.167905 0.0165832 0.00771156 0.00535705 -0.00121784 0.00108138 -1.75544e-11 -6.15883e-11 7.21218e-12 5e-05 1.46608e-10 
99 1 0.162264 0.0179743 0.0072765 0.00574584 -0.000704061 0.000361346 3.59842e-10 -8.44319e-11 -1.74578e-10 5e-05 1.46608e-10 
100 1 0.168176 0.017033 0.00762385 0.00598021 -0.00127979 0.00118938 -6.64523e-10 -2.82014e-10 -1.06265e-11 5e-05 1.46608e-10 
101 1 0.162354 0.0179323 0.00729241 0.00602541 -0.000120094 -8.46424e-05 2.29912e-10 1.00693e-09 2.13895e-09 5e-05 1.46608e-10 
102 1 0.0643568 0.0187248 0.00531097 4.36489e-15 1.04722e-14 8.29584e-14 8.41928e-22 -5.8081e-22 2.7297e-23 5e-05 1.46608e-10 
103 1 0.24257 0.0191927 0.00520306 -2.99552e-22 2.24983e-22 -5.81428e-22 0 0 0 5e-05 1.46608e-10 
104 1 0.162461 0.017459 0.00732317 0.00560361 -0.000314335 -5.57369e-06 3.78032e-10 -3.98308e-10 9.847e-11 5e-05 1.46608e-10 
105 1 0.161644 0.0157437 0.00855099 0.00592407 -1.89822e-05 0.000480406 2.49487e-10 9.38992e-11 -6.61106e-13 5e-05 1.46608e-10 
106 1 0.162372 0.0174134 0.00733527 0.00554054 -0.000438557 2.84249e-05 6.9087e-11 -1.68149e-10 6.94823e-11 5e-05 1.46608e-10 
107 1 0.161601 0.0156201 0.00870224 0.00587937 -1.48956e-05 0.000475313 -1.18459e-10 1.3203e-11 -9.1651e-11 5e-05 1.46608e-10 
108 1 0.168274 0.0170663 0.00762821 0.00574315 -0.00132035 0.00116793 -1.14276e-10 1.78468e-10 -6.51807e-11 5e-05 1.46608e-10 
109 1 0.168034 0.0163678 0.00778971 0.00535026 -0.00124726 0.00109351 -1.65757e-10 1.48853e-10 2.93957e-12 5e-05 1.46608e-10 
110 1 0.16805 0.0172477 0.00754636 0.00587365 -0.00122096 0.00115816 3.18103e-11 -1.51188e-10 5.29649e-11 5e-05 1.46608e-10 
111 1 0.168004 0.0170586 0.00759275 0.00557064 -0.00115811 0.00109864 1.83956e-10 1.36081e-10 5.46959e-13 5e-05 1.46608e-10 
112 1 0.161708 0.0159283 0.00832493 0.00598424 1.41817e-05 0.00044415 1.18401e-10 5.38404e-11 -3.30702e-12 5e-05 1.46608e-10 
113 1 0.162342 0.0176586 0.00727735 0.00552543 -0.000519587 -1.09153e-05 -8.98874e-10 5.10743e-10 8.62307e-10 5e-05 1.46608e-10 
114 1 0.162318 0.0179902 0.00719364 0.00571354 -0.000275109 0.000427965 -4.91223e-10 1.89011e-10 -1.48978e-10 5e-05 1.46608e-10 
115 1 0.167884 0.0164604 0.00783127 0.00535802 -0.00122675 0.00110545 4.23474e-11 -4.05595e-11 -4.01423e-11 5e-05 1.46608e-10 
116 1 0.168347 0.017004 0.00765578 0.00571648 -0.00136722 0.00117677 -2.37992e-10 2.38819e-10 -9.46811e-11 5e-05 1.46608e-10 
117 1 0.168284 0.0167223 0.00772559 0.0053081 -0.00139251 0.00112755 -3.55798e-10 4.28132e-10 -1.6408e-10 5e-05 1.46608e-10 
118 1 0.162263 0.0168406 0.00747314 0.00549693 -0.000377561 1.51596e-05 1.82774e-10 -1.30028e-10 5.57548e-11 5e-05 1.46608e-10 
119 1 0.168297 0.0171608 0.00760508 0.00574698 -0.00132776 0.0011708 -2.51533e-11 7.65418e-11 -1.02152e-11 5e-05 1.46608e-10 
120 1 0.168034 0.0161808 0.0079022 0.00564611 -0.00130111 0.00081357 -1.92742e-10 1.12991e-10 -9.98169e-11 5e-05 1.46608e-10 
121 1 0.168467 0.0171306 0.00763711 0.00567996 -0.00150965 0.00121112 -4.35157e-10 2.11942e-10 -1.25374e-10 5e-05 1.46608e-10 
122 1 0.168172 0.0173773 0.00752721 0.00589678 -0.0012185 0.0011638 1.07747e-10 3.27921e-11 5.38542e-11 5e-05 1.46608e-10 
123 1 0.162487 0.017194 0.00738587 0.00546566 -0.000431738 2.55416e-05 -8.21417e-11 6.728e-11 -4.55525e-12 5e-05 1.46608e-10 
124 1 0.167924 0.0166499 0.00778379 0.00534301 -0.00122737 0.00108427 -6.14851e-11 -1.17462e-10 -1.00913e-10 5e-05 1.46608e-10 
125 1 0.168209 0.0167821 0.00769843 0.00543631 -0.00127026 0.00111202 -1.64393e-10 2.65284e-10 -1.11317e-10 5e-05 1.46608e-10 
127 1 0.161665 0.0158054 0.00847536 0.00591333 -1.18951e-05 0.000467539 3.5104e-11 -2.28139e-10 1.49011e-10 5e-05 1.46608e-10 
128 1 0.16786 0.0164316 0.00792395 0.00533612 -0.00128865 0.00109129 4.25936e-11 6.2842e-11 5.36417e-11 5e-05 1.46608e-10 
129 1 0.168221 0.0175374 0.00757491 0.00550979 -0.00113021 0.00103405 -8.52521e-10 -5.05274e-12 7.00313e-10 5e-05 1.46608e-10 
130 1 0.162448 0.0173504 0.00735078 0.00556262 -0.000436011 2.21865e-05 1.20832e-11 -4.29102e-11 -8.29598e-12 5e-05 1.46608e-10 
131 1 0.162233 0.017878 0.00729479 0.00571532 -0.000708048 0.000398486 2.86615e-10 7.18815e-11 -3.00812e-10 5e-05 1.46608e-10 
132 1 0.168021 0.0167135 0.00769139 0.00542456 -0.00116144 0.00108652 7.04554e-12 2.13988e-10 -1.49531e-10 5e-05 1.46608e-10 
133 1 0.168309 0.0176026 0.00748346 0.00541418 -0.000882906 0.00100052 -8.59235e-10 4.79609e-10 -2.36336e-10 5e-05 1.46608e-10 
134 1 0.168321 0.0172552 0.00758195 0.00578042 -0.00136422 0.00118738 -3.03562e-10 2.14851e-10 -6.91202e-11 5e-05 1.46608e-10 
135 1 0.16817 0.0165915 0.00774613 0.00534035 -0.00127506 0.00109845 -2.2554e-10 -1.45582e-10 4.39666e-13 5e-05 1.46608e-10 
136 1 0.162243 0.0167453 0.00749608 0.00553885 -0.000389179 1.39445e-05 3.08587e-10 -1.69701e-10 3.56867e-11 5e-05 1.46608e-10 
137 1 0.168138 0.0176278 0.00745258 0.00514353 -0.00122376 0.00106681 8.25258e-10 -2.10606e-10 2.94186e-10 5e-05 1.46608e-10 
138 1 0.16849 0.0172254 0.00761394 0.00509172 -0.00130808 0.0010738 -8.40303e-10 5.37197e-10 -2.55868e-10 5e-05 1.46608e-10 
140 1 0.168096 0.0174367 0.0075001 0.0059054 -0.00123538 0.00116572 -1.27632e-10 -3.27987e-10 -7.53043e-12 5e-05 1.46608e-10 
141 1 0.161949 0.0163749 0.00777001 0.00572973 3.82611e-05 8.47038e-05 9.8892e-11 3.71869e-11 -1.46811e-10 5e-05 1.46608e-10 
142 1 0.162069 0.016435 0.007694 0.00596794 -7.42018e-05 0.000230464 1.19513e-10 -7.1814e-11 1.0839e-10 5e-05 1.46608e-10 
143 1 0.161622 0.0156819 0.00862661 0.00591808 -1.60513e-05 0.000480356 7.37402e-11 1.59429e-10 -1.20258e-10 5e-05 1.46608e-10 
144 1 0.162222 0.0171823 0.00739796 0.0053796 -0.000357251 1.30659e-05 -2.61603e-11 3.19527e-11 -6.94237e-11 5e-05 1.46608e-10 
146 1 0.161873 0.0164248 0.00772962 0.00551972 -0.00023362 0.000134066 -8.99685e-12 6.77655e-11 2.19952e-10 5e-05 1.46608e-10 
147 1 0.162302 0.0171224 0.00740552 0.0054211 -0.000335085 5.65477e-06 -3.18953e-12 -7.04086e-11 -1.33261e-11 5e-05 1.46608e-10 
148 1 0.161969 0.0164347 0.00769212 0.00596128 -5.26958e-05 0.00021021 -2.49368e-11 -2.27989e-10 2.50859e-10 5e-05 1.46608e-10 
149 1 0.167965 0.0168683 0.00764039 0.00551039 -0.00115674 0.00109499 -9.38469e-11 -2.34981e-10 3.5401e-11 5e-05 1.46608e-10 
150 1 0.162602 0.0175776 0.00729297 0.00569576 -0.000433867 2.2091e-05 -3.50216e-10 1.02753e-10 -4.96279e-12 5e-05 1.46608e-10 
151 1 0.162496 0.0179035 0.00721691 0.00614796 0.000206352 -0.000132304 -4.28243e-10 1.76514e-10 -1.38624e-10 5e-05 1.46608e-10 
153 1 0.161996 0.016571 0.00754105 0.00573855 -0.000329461 -4.46332e-06 -3.38522e-11 -3.43785e-11 -7.89429e-11 5e-05 1.46608e-10 
154 1 0.161853 0.0163531 0.00779644 0.00529368 -7.95194e-05 0.000219631 1.79491e-10 -1.09056e-10 1.00906e-10 5e-05 1.46608e-10 
155 1 0.161949 0.016735 0.00750484 0.00554651 -0.000392884 1.88118e-05 -1.11735e-10 -8.67207e-12 4.28137e-11 5e-05 1.46608e-10 
156 1 0.161835 0.0162956 0.0078763 0.00560885 -3.06938e-05 0.000315134 -3.00698e-11 -1.22559e-10 9.73215e-11 5e-05 1.46608e-10 
157 1 0.0219312 0.0187687 0.00551176 -3.83011e-14 8.16921e-14 2.95885e-13 -1.00425e-22 -2.65318e-22 6.12114e-23 5e-05 1.46608e-10 
158 1 0.162123 0.0166554 0.00751918 0.00557159 -0.000296629 -1.14403e-05 -1.40823e-10 2.20434e-10 -1.04359e-11 5e-05 1.46608e-10 
159 1 0.16804 0.0168087 0.00766755 0.0054976 -0.00115715 0.00109552 8.34179e-11 8.48282e-11 -7.13269e-11 5e-05 1.46608e-10 
160 1 0.162428 0.0180458 0.00718402 0.00599401 -0.000159924 -0.000120797 -5.16922e-10 3.38942e-10 -8.45896e-10 5e-05 1.46608e-10 
162 1 0.16228 0.0182854 0.00710736 0.00583734 -0.000517506 0.000518358 -1.75781e-10 4.61316e-10 -5.77706e-10 5e-05 1.46608e-10 
164 1 0.16201 0.0170202 0.00743398 0.00549236 -0.000396898 1.95596e-05 6.17965e-11 2.94692e-11 2.04536e-11 5e-05 1.46608e-10 
165 1 0.162447 0.0177018 0.00726558 0.00566162 -0.000488363 2.89069e-05 -3.22401e-10 2.52236e-10 1.79904e-11 5e-05 1.46608e-10 
166 1 0.1682 0.0179126 0.00738184 0.00519024 -0.00143164 0.00112005 -8.19721e-11 2.40999e-10 -4.94511e-11 5e-05 1.46608e-10 
167 1 0.162523 0.0172848 0.00736375 0.00554409 -0.000452737 2.87488e-05 1.02207e-11 -1.44818e-10 -9.99112e-12 5e-05 1.46608e-10 
168 1 0.162506 0.0175463 0.00730176 0.00569338 -0.000496933 3.83764e-05 -5.81994e-10 2.97354e-10 1.63742e-11 5e-05 1.46608e-10 
169 1 0.16247 0.0178 0.00724191 0.00575728 -0.000350104 -2.69751e-06 -4.68998e-10 1.84442e-10 -5.02289e-10 5e-05 1.46608e-10 
170 1 0.162526 0.0176419 0.00727872 0.00566087 -0.000484286 3.71757e-05 -3.27432e-10 6.01459e-11 -2.34858e-11 5e-05 1.46608e-10 
171 1 0.168417 0.0172878 0.00758635 0.00530182 -0.00129289 0.00109759 -3.28473e-10 2.57811e-10 -1.09702e-10 5e-05 1.46608e-10 
172 1 0.162198 0.0179131 0.007208 0.00563721 -0.000550136 0.000502319 -4.64768e-10 5.57746e-11 -9.93383e-11 5e-05 1.46608e-10 
173 1 0.168288 0.0175076 0.00750706 0.00535232 -0.000913296 0.000997224 -6.0464e-10 4.06275e-10 -2.08384e-10 5e-05 1.46608e-10 
174 1 0.162134 0.016939 0.00745154 0.00540743 -0.000385161 1.54266e-05 6.29774e-11 -1.02615e-11 -2.92232e-11 5e-05 1.46608e-10 
176 1 0.162334 0.0173215 0.0073577 0.00535973 -0.000360932 1.2237e-05 2.2034e-10 2.33931e-10 -7.01692e-11 5e-05 1.46608e-10 
177 1 0.16193 0.0166456 0.00754513 0.00564546 -0.000412156 2.31807e-05 -2.12026e-10 -1.90362e-10 -2.92586e-10 5e-05 1.46608e-10 
178 1 0.162275 0.0178015 0.00724444 0.0056972 -0.000372387 0.000186818 -1.24082e-10 9.77367e-11 -5.83807e-10 5e-05 1.46608e-10 
179 1 0.162519 0.0180045 0.00719255 0.00613036 0.000124815 -0.000120202 -1.79407e-10 -1.20621e-11 1.03656e-10 5e-05 1.46608e-10 
182 1 0.168419 0.0169403 0.00768356 0.0056021 -0.00150585 0.00120014 -3.33499e-10 2.41616e-10 -1.17529e-10 5e-05 1.46608e-10 
183 1 0.162379 0.0175154 0.00731091 0.00553785 -0.000400114 1.14631e-05 5.96119e-11 -3.3128e-10 1.59404e-10 5e-05 1.46608e-10 
184 1 0.168363 0.0174471 0.00753435 0.00556156 -0.000650397 0.00095884 -6.52682e-10 5.18565e-10 -2.48081e-10 5e-05 1.46608e-10 
185 1 0.162281 0.0170272 0.00742846 0.00546682 -0.000354278 1.13138e-05 1.60417e-10 -1.19044e-10 -9.44606e-13 5e-05 1.46608e-10 
186 1 0.162211 0.0169193 0.00754285 0.00546807 -0.000316145 3.4417e-05 -7.88148e-11 -2.72629e-10 -4.51241e-11 5e-05 1.46608e-10 
187 1 0.168255 0.0177581 0.00743256 0.0052719 -0.00102933 0.00101878 -3.93838e-10 -5.15362e-10 1.13046e-10 5e-05 1.46608e-10 
188 1 0.168101 0.0170937 0.00759653 0.00603169 -0.0012674 0.00119183 -2.93681e-10 -1.28402e-10 -9.41915e-12 5e-05 1.46608e-10 
189 1 0.16833 0.0176975 0.00745987 0.00555267 -0.00084305 0.00100581 -8.56133e-10 4.69625e-10 -2.40917e-10 5e-05 1.46608e-10 
190 1 0.156158 0.0173019 0.00725803 0.00570261 0.00101357 -0.000257502 5.37797e-10 3.44957e-11 4.14365e-10 5e-05 1.46608e-10 
191 1 0.167984 0.0169635 0.00761654 0.00547476 -0.0011425 0.00108108 -8.00263e-12 -9.80161e-11 1.03503e-11 5e-05 1.46608e-10 
192 1 0.16224 0.0181006 0.00715732 0.00571557 -0.000511409 0.000509199 -3.44891e-10 -3.95491e-10 -1.93237e-10 5e-05 1.46608e-10 
193 1 0.168371 0.0170986 0.00763263 0.00573176 -0.00135508 0.00117623 7.40534e-11 3.92824e-10 -7.74508e-11 5e-05 1.46608e-10 
194 1 0.161905 0.0165706 0.00768773 0.00575513 -0.000403978 5.22898e-05 -1.00711e-10 -1.62213e-10 -4.71894e-10 5e-05 1.46608e-10 
195 1 0.162384 0.0178498 0.00723185 0.0057891 -0.000262668 -8.75658e-05 -1.97778e-10 1.90758e-10 -1.2406e-09 5e-05 1.46608e-10 
196 1 0.162537 0.0173955 0.00733722 0.00553673 -0.00035624 6.374e-06 -2.5666e-10 3.52309e-10 -1.00392e-10 5e-05 1.46608e-10 
197 1 0.155949 0.0167419 0.00752817 0.00576594 0.000806835 -0.000174407 4.26265e-11 -2.36441e-11 1.20905e-11 5e-05 1.46608e-10 
198 1 0.162098 0.0165612 0.00754196 0.00563879 -0.000297956 -3.37318e-07 -1.78084e-10 1.38502e-10 3.05254e-12 5e-05 1.46608e-10 
199 1 0.162261 0.0181981 0.00715221 0.00577257 -0.000500094 0.00049505 -3.96053e-10 -9.63136e-11 -3.2465e-10 5e-05 1.46608e-10 
200 1 0.161793 0.0161737 0.0080266 0.00604815 5.2659e-05 0.000457657 -1.29452e-10 -2.09605e-10 1.87155e-10 5e-05 1.46608e-10 
201 1 0.162363 0.0177543 0.0072543 0.00569061 -0.00046038 -4.21382e-05 -2.12265e-10 2.94117e-10 -4.48278e-10 5e-05 1.46608e-10 
202 1 0.162143 0.0167506 0.00749624 0.00554832 -0.000398801 1.60978e-05 -1.1634e-11 1.49055e-11 1.79659e-12 5e-05 1.46608e-10 
203 1 0.1682 0.0171277 0.00760078 0.00578226 -0.00127606 0.00116062 3.01334e-11 1.77364e-10 -3.17202e-11 5e-05 1.46608e-10 
204 1 0.162409 0.0172576 0.00737184 0.0053819 -0.000335971 4.14651e-06 7.65822e-11 1.04932e-10 -1.41636e-11 5e-05 1.46608e-10 
205 1 0.162064 0.0168601 0.00747131 0.00551905 -0.000397136 1.45366e-05 -4.61579e-11 6.15895e-12 -2.74156e-11 5e-05 1.46608e-10 
206 1 0.162104 0.0170506 0.00742539 0.0053964 -0.000316819 4.85866e-06 -3.51198e-11 1.91e-10 -1.7761e-10 5e-05 1.46608e-10 
207 1 0.161983 0.0164952 0.00761304 0.00589477 -0.000190836 0.000401374 -1.41184e-10 2.74282e-10 -4.72204e-10 5e-05 1.46608e-10 
208 1 0.162163 0.0168458 0.00747329 0.00551019 -0.000396641 1.65496e-05 -9.51476e-11 -7.52262e-11 3.32e-11 5e-05 1.46608e-10 
209 1 0.162214 0.0170975 0.00745031 0.00542732 -0.000375971 2.6984e-05 -7.30745e-11 -2.3447e-10 -4.18113e-10 5e-05 1.46608e-10 
210 1 0.167913 0.016553 0.00780652 0.00537873 -0.00122555 0.00106813 -2.63571e-11 -2.84404e-11 -3.21043e-11 5e-05 1.46608e-10 
211 1 0.16808 0.0169989 0.00761992 0.00559677 -0.00112982 0.00109498 -1.73984e-10 1.04485e-10 -7.3417e-11 5e-05 1.46608e-10 
212 1 0.162424 0.0176024 0.00728957 0.00561666 -0.000516414 7.52622e-05 -8.01528e-10 3.18616e-10 1.3723e-10 5e-05 1.46608e-10 
213 1 0.168354 0.017794 0.00743144 0.00588095 -0.000922096 0.000148422 1.7984e-10 -1.755e-10 7.60539e-11 5e-05 1.46608e-10 
214 1 0.16806 0.0169038 0.00764372 0.00552835 -0.0011364 0.00108423 -2.86616e-10 1.92152e-10 -1.19726e-10 5e-05 1.46608e-10 
215 1 0.156117 0.0171255 0.00734411 0.00564259 0.000841726 -0.000197572 -3.09036e-11 4.05906e-11 -5.33871e-11 5e-05 1.46608e-10 
216 1 0.162024 0.0166695 0.00751722 0.00554863 -0.000407861 1.93417e-05 -8.87462e-11 1.6988e-10 -7.2141e-11 5e-05 1.46608e-10 
217 1 0.168394 0.0171932 0.00760948 0.00575924 -0.00141094 0.00119523 -3.70576e-10 2.71874e-10 -9.76727e-11 5e-05 1.46608e-10 
218 1 0.162338 0.0180867 0.00716749 0.0057406 -0.000368784 0.000497327 -5.17701e-10 3.78015e-10 9.28046e-10 5e-05 1.46608e-10 
219 1 0.167946 0.0167732 0.00766423 0.00533474 -0.0012455 0.00108145 -5.67998e-12 -1.25786e-10 -8.58214e-11 5e-05 1.46608e-10 
220 1 0.162301 0.0183798 0.00708183 0.00588853 -0.000501723 0.000522598 4.21667e-10 1.70433e-09 -4.6975e-10 5e-05 1.46608e-10 
222 1 0.167989 0.0164325 0.00785799 0.00538283 -0.0012259 0.00109258 -5.13083e-11 1.32914e-11 -4.38421e-11 5e-05 1.46608e-10 
224 1 0.162246 0.0169364 0.00745057 0.0054818 -0.000371965 1.69298e-05 1.3999e-10 -1.53446e-10 -1.58727e-12 5e-05 1.46608e-10 
225 1 0.168026 0.0171533 0.00756937 0.00607594 -0.00125687 0.00119534 -9.39149e-11 5.18783e-11 -7.24147e-12 5e-05 1.46608e-10 
226 1 0.16222 0.0180098 0.00719424 0.00568196 -0.000521913 0.000503273 8.60527e-11 5.27254e-11 -3.43904e-11 5e-05 1.46608e-10 
227 1 0.156087 0.0173636 0.00722455 0.00571346 0.000948638 -0.000246075 -1.22154e-10 -6.64915e-10 5.45027e-10 5e-05 1.46608e-10 
228 1 0.156101 0.0170368 0.00738755 0.00574491 0.000883916 -0.000209258 6.58208e-11 2.98558e-11 1.96808e-11 5e-05 1.46608e-10 
229 1 0.162347 0.0176286 0.00737259 0.00578889 -0.000753255 -0.000144807 -1.31852e-10 2.28824e-11 2.38428e-10 5e-05 1.46608e-10 
230 1 0.162168 0.0174378 0.00733235 0.00532193 -0.00031666 2.72963e-07 -4.78378e-11 1.27948e-10 -1.12908e-10 5e-05 1.46608e-10 
232 1 0.162376 0.0183174 0.00710432 0.00581007 -0.000645231 0.00055262 -4.43175e-10 4.0935e-10 -1.53486e-10 5e-05 1.46608e-10 
233 1 0.162581 0.0174824 0.00731591 0.00577109 -0.000462697 2.74963e-05 -5.44533e-10 3.35078e-10 -8.49973e-11 5e-05 1.46608e-10 
234 1 0.168148 0.0172826 0.00755037 0.00583005 -0.00122754 0.00115264 5.59953e-11 1.37827e-11 6.9073e-12 5e-05 1.46608e-10 
235 1 0.162087 0.0174032 0.00738011 0.00535949 -0.000311552 5.12873e-05 -8.28293e-11 3.24008e-10 1.1684e-10 5e-05 1.46608e-10 
236 1 0.162147 0.0176748 0.00734542 0.00554893 -0.000525298 0.000608007 1.99102e-11 -7.0305e-10 4.3775e-10 5e-05 1.46608e-10 
237 1 0.162157 0.0177243 0.00725904 0.00555814 -0.000618957 0.000532629 -3.40518e-11 -2.63877e-10 3.89304e-10 5e-05 1.46608e-10 
239 1 0.155847 0.016302 0.0077429 0.00598937 0.000778133 -0.000150122 -5.43457e-12 4.09622e-11 -2.48179e-11 5e-05 1.46608e-10 
240 1 0.155909 0.0165658 0.00761415 0.00600189 0.000776919 -0.000149964 -5.20382e-11 -8.55988e-11 4.47756e-11 5e-05 1.46608e-10 
241 1 0.155828 0.0162354 0.0078151 0.00585438 6.61493e-05 -0.000836487 2.63842e-11 5.14093e-11 -5.01555e-11 5e-05 1.46608e-10 
242 1 0.161891 0.0164795 0.00764792 0.0058196 -0.000400107 9.85377e-05 -1.33036e-10 -2.68336e-10 -9.61187e-12 5e-05 1.46608e-10 
243 1 0.162351 0.0174848 0.00740183 0.00557018 -0.000393249 1.26081e-05 1.92089e-10 -1.68965e-10 1.34283e-10 5e-05 1.46608e-10 
244 1 0.155868 0.0163899 0.00769998 0.0059936 0.000779585 -0.000151154 1.05454e-11 1.31443e-11 -1.21784e-11 5e-05 1.46608e-10 
246 1 0.156063 0.01686 0.00747398 0.00579634 0.000783075 -0.00016085 1.40688e-10 -7.11974e-11 4.72155e-11 5e-05 1.46608e-10 
247 1 0.162073 0.0169953 0.00750725 0.00547434 -0.000338904 5.67155e-05 2.23942e-10 1.94717e-11 -1.99678e-10 5e-05 1.46608e-10 
248 1 0.162297 0.0175709 0.00729886 0.0055088 -0.000440412 3.04024e-05 3.42167e-10 4.70994e-10 1.72767e-10 5e-05 1.46608e-10 
249 1 0.155969 0.01683 0.00748517 0.00578406 0.000800082 -0.000169503 1.78893e-11 4.23916e-11 -1.6605e-11 5e-05 1.46608e-10 
250 1 0.162044 0.0167648 0.00749425 0.00554839 -0.000400149 1.68012e-05 -6.46462e-11 -4.97675e-11 1.33246e-11 5e-05 1.46608e-10 
251 1 0.168195 0.0174718 0.00750408 0.0054602 -0.00112873 0.00107524 -2.6229e-10 2.09211e-11 -3.67033e-11 5e-05 1.46608e-10 
252 1 0.156008 0.0170134 0.00741884 0.00578876 0.000769132 -0.000156341 2.17947e-11 -1.45147e-11 1.95104e-12 5e-05 1.46608e-10 
253 1 0.156181 0.0174001 0.00721015 0.00570024 0.00122245 -0.000388448 5.88911e-11 -2.05131e-10 3.729e-10 5e-05 1.46608e-10 
254 1 0.156044 0.0167719 0.00751699 0.00578235 0.000783515 -0.000161905 2.23371e-10 9.04875e-11 -3.26291e-11 5e-05 1.46608e-10 
255 1 0.161557 0.0154965 0.00885349 0.00585495 -1.38986e-05 0.000471857 8.72862e-11 1.151e-10 -1.30674e-10 5e-05 1.46608e-10 
256 1 0.16224 0.0172793 0.00736907 0.00535027 -0.00033974 7.31354e-06 -1.63411e-10 1.55142e-10 -9.58911e-11 5e-05 1.46608e-10 
257 1 0.162014 0.016892 0.00755131 0.00545941 -0.000426844 -1.16935e-05 -9.74807e-11 2.17757e-11 -3.06821e-10 5e-05 1.46608e-10 
258 1 0.16221 0.0176195 0.00728852 0.00552179 -0.000404263 2.18544e-05 1.33384e-11 5.86434e-10 2.21073e-10 5e-05 1.46608e-10 
259 1 0.156028 0.0171058 0.00738597 0.00563027 0.000770077 -0.00025794 1.72944e-11 -6.81985e-11 3.70402e-11 5e-05 1.46608e-10 
260 1 0.162406 0.0179454 0.00720822 0.00595504 -0.000219403 -0.000323422 -3.88412e-10 1.95168e-10 -1.20716e-09 5e-05 1.46608e-10 