ITEM: TIMESTEP
63400000
ITEM: NUMBER OF ATOMS
267
ITEM: BOX BOUNDS ff ff ff
-0.02 0.43
-0.02 0.06
-0.02 0.07
ITEM: ATOMS id type x y z vx vy vz fx fy fz radius mass 
1 1 0.382864 0.0178392 0.00700071 0.00622235 -0.00041411 -9.51946e-05 -1.46529e-11 -1.12509e-10 5.00248e-11 5e-05 1.46608e-10 
2 1 0.382979 0.0175754 0.00717436 0.00587036 -0.000596536 -3.79123e-05 -6.27397e-11 -5.01294e-11 2.42106e-10 5e-05 1.46608e-10 
4 1 0.382772 0.017084 0.00736281 0.00592047 -0.000606936 -0.000398126 -3.39643e-11 -1.3502e-10 7.72154e-11 5e-05 1.46608e-10 
6 1 0.384828 0.0177774 5.28557e-05 1.79757e-18 1.41141e-22 -1.37249e-15 0 -5.36573e-27 0 5e-05 1.46608e-10 
7 1 0.382938 0.017774 0.00701897 0.0061045 -0.000538418 -5.46436e-05 2.90239e-11 4.83792e-11 -1.55881e-11 5e-05 1.46608e-10 
8 1 0.382556 0.0165553 0.00768703 0.00554342 -0.000461381 -0.000430734 -2.27211e-10 -2.78073e-10 1.42336e-10 5e-05 1.46608e-10 
9 1 0.383669 0.0180959 5.1337e-05 2.24031e-18 -4.35047e-21 -1.71051e-15 0 2.88381e-25 0 5e-05 1.46608e-10 
10 1 0.382536 0.016471 0.00773695 0.00554748 -0.0004465 -0.000439367 1.54336e-11 -3.61921e-10 1.50879e-10 5e-05 1.46608e-10 
11 1 0.382908 0.0184732 0.00684646 0.00577069 -0.000179263 1.68071e-05 1.12653e-11 -8.27605e-12 -2.71241e-11 5e-05 1.46608e-10 
12 1 0.376756 0.0170003 0.00737251 0.00608643 0.000287934 0.000514354 4.93391e-10 3.90299e-10 1.47968e-10 5e-05 1.46608e-10 
13 1 0.382324 0.0159467 0.00807011 0.00562206 -0.000388553 -0.00035453 -1.70544e-10 2.89671e-10 -1.44454e-10 5e-05 1.46608e-10 
14 1 0.376681 0.0170581 0.00733954 0.00614055 0.000367276 0.000489928 1.43355e-10 8.48721e-11 5.87622e-11 5e-05 1.46608e-10 
16 1 0.376952 0.0178379 0.0071039 0.00620024 4.40756e-05 -4.4616e-05 5.60045e-11 -1.06681e-11 7.95579e-13 5e-05 1.46608e-10 
17 1 0.382383 0.0161968 0.0079155 0.00547144 -0.000339798 -0.000368877 -3.04278e-10 1.06612e-10 -5.26939e-11 5e-05 1.46608e-10 
19 1 0.382344 0.01603 0.00801858 0.00565729 -0.000393918 -0.000355472 6.52889e-11 1.96574e-10 -1.31857e-10 5e-05 1.46608e-10 
21 1 0.382799 0.0175132 0.00711791 0.0062358 -0.000352812 -0.000567496 5.5153e-10 -1.40433e-10 -2.61699e-10 5e-05 1.46608e-10 
22 1 0.383039 0.0182437 0.00686975 0.00583166 -0.000224961 2.03493e-05 1.81275e-10 1.40521e-10 -3.55951e-11 5e-05 1.46608e-10 
23 1 0.37705 0.0178692 0.00709476 0.00620822 3.46207e-05 -4.03111e-05 6.01564e-11 -7.98285e-11 2.60425e-11 5e-05 1.46608e-10 
24 1 0.383957 0.0180528 5.17137e-05 1.79763e-18 6.94431e-21 -1.37251e-15 0 3.75374e-26 0 5e-05 1.46608e-10 
25 1 0.382709 0.0168313 0.00751269 0.00549903 -0.000543089 -0.000380857 1.39791e-10 -4.74542e-10 2.67268e-10 5e-05 1.46608e-10 
26 1 0.383912 0.0178827 5.16551e-05 2.24031e-18 -1.72796e-21 -1.71052e-15 0 3.86782e-28 0 5e-05 1.46608e-10 
27 1 0.37658 0.0166392 0.00758583 0.00567944 -0.000176983 -0.000428449 -1.10512e-10 -2.4896e-11 8.29851e-11 5e-05 1.46608e-10 
28 1 0.382481 0.0166165 0.00766201 0.0055405 -0.000447727 -0.000433885 -9.12174e-11 -2.48397e-10 9.25939e-11 5e-05 1.46608e-10 
29 1 0.382304 0.0158658 0.00812542 0.00565085 -0.000155527 -5.41034e-06 5.28603e-12 2.52411e-10 -2.35222e-10 5e-05 1.46608e-10 
30 1 0.382686 0.0172388 0.00738199 0.00607551 -0.000554818 -0.000450498 -1.24912e-10 4.39796e-11 -5.46643e-11 5e-05 1.46608e-10 
31 1 0.382751 0.0176232 0.00707459 0.00616447 -0.000393618 -0.000120962 -1.17615e-10 -2.29507e-10 3.413e-10 5e-05 1.46608e-10 
32 1 0.382403 0.0162803 0.00786395 0.00550488 -0.000346138 -0.000372824 -4.13347e-11 -3.96321e-11 5.87701e-11 5e-05 1.46608e-10 
33 1 0.384061 0.0174974 5.18505e-05 2.24036e-18 2.32607e-21 -1.71052e-15 0 -3.84791e-26 0 5e-05 1.46608e-10 
34 1 0.382363 0.0161134 0.00796704 0.00537566 -0.000325137 -0.000367192 -3.15107e-10 2.17938e-10 -7.6902e-11 5e-05 1.46608e-10 
35 1 0.382935 0.0174759 0.00712202 0.00603617 -0.000560225 -0.000426351 3.41868e-10 4.12767e-11 -9.78205e-11 5e-05 1.46608e-10 
36 1 0.383592 0.018448 0.00523014 6.88105e-16 -4.5769e-15 -5.98175e-14 9.04729e-26 0 0 5e-05 1.46608e-10 
37 1 0.382751 0.0169996 0.00741288 0.00583257 -0.000638118 -0.000368293 -1.57167e-10 -5.1139e-11 4.06122e-11 5e-05 1.46608e-10 
38 1 0.382836 0.0173386 0.00721155 0.00609298 -0.000509749 -0.000484992 1.1649e-10 -2.63444e-10 2.19749e-10 5e-05 1.46608e-10 
39 1 0.383634 0.0197725 5.12915e-05 2.81057e-18 -3.66848e-22 -2.14593e-15 0 -5.20414e-27 0 5e-05 1.46608e-10 
42 1 0.383193 0.0185678 0.00683685 0.00583056 -0.000217487 2.20925e-05 3.21026e-11 -1.8821e-11 -5.78012e-14 5e-05 1.46608e-10 
44 1 0.383138 0.0187321 0.00682019 0.00580277 -2.38891e-05 2.39091e-06 2.75929e-10 6.08629e-11 -4.80811e-12 5e-05 1.46608e-10 
45 1 0.384049 0.017256 5.18348e-05 2.24031e-18 1.04413e-20 -1.71052e-15 0 -7.64189e-26 0 5e-05 1.46608e-10 
47 1 0.317363 0.0176175 0.00787107 0.0222091 0.0305155 -0.0147329 -2.86168e-10 3.55941e-12 -9.16254e-11 5e-05 1.46608e-10 
48 1 0.382622 0.0172065 0.00731263 0.00602336 -0.000540612 -0.000442337 1.06016e-11 -7.76908e-11 8.83251e-11 5e-05 1.46608e-10 
49 1 0.383962 0.0183612 5.17211e-05 1.79761e-18 6.57639e-22 -1.37251e-15 0 1.40695e-26 0 5e-05 1.46608e-10 
50 1 0.382422 0.0163637 0.0078124 0.00550213 -0.000349002 -0.000369909 -3.12139e-11 -1.84356e-10 5.14622e-11 5e-05 1.46608e-10 
51 1 0.383025 0.0190586 0.00678704 0.0056904 -0.000166941 1.48701e-05 6.7968e-11 -2.15025e-10 1.07929e-11 5e-05 1.46608e-10 
52 1 0.376921 0.0185277 0.00691383 0.00579667 0.000127774 -6.62532e-05 -2.80667e-11 -7.38936e-11 1.91156e-11 5e-05 1.46608e-10 
53 1 0.384582 0.0169035 5.25335e-05 2.24033e-18 -7.43053e-21 -1.71051e-15 0 -4.74692e-27 0 5e-05 1.46608e-10 
54 1 0.383043 0.0186997 0.00682347 0.0058673 -0.000192333 1.95274e-05 1.59387e-10 9.4586e-11 -9.14942e-12 5e-05 1.46608e-10 
55 1 0.377098 0.0177063 0.0071394 0.00619037 3.40462e-05 -4.16762e-05 6.72031e-11 -5.28941e-11 1.76878e-11 5e-05 1.46608e-10 
56 1 0.38279 0.0179032 0.00698289 0.00626814 -0.000355946 -0.00011585 1.55477e-11 8.77156e-12 1.81158e-11 5e-05 1.46608e-10 
57 1 0.383641 0.0191786 5.13005e-05 2.81054e-18 7.9636e-21 -2.14593e-15 0 6.931e-26 0 5e-05 1.46608e-10 
59 1 0.378022 0.019866 0.005332 -5.02e-15 -7.412e-15 7.69802e-14 2.22305e-24 3.41212e-24 4.1359e-25 5e-05 1.46608e-10 
60 1 0.383172 0.0188517 0.00680805 0.00557267 -0.000362901 3.70791e-05 6.95244e-10 -3.94351e-10 4.34974e-11 5e-05 1.46608e-10 
62 1 0.38285 0.0174352 0.00715554 0.00607324 -0.000578917 -0.000429498 2.94886e-10 1.30017e-10 -1.64288e-10 5e-05 1.46608e-10 
63 1 0.382906 0.0180257 0.00693904 0.00619279 -8.55153e-05 -0.000205692 8.93215e-11 3.18238e-10 -1.13517e-10 5e-05 1.46608e-10 
64 1 0.383571 0.0183315 5.12084e-05 -5.6703e-22 2.64684e-23 -5.04318e-22 0 -4.03897e-28 0 5e-05 1.46608e-10 
65 1 0.37666 0.0169731 0.00738789 0.00590069 0.000294309 0.000332447 8.09637e-11 -2.11655e-10 -9.7628e-10 5e-05 1.46608e-10 
66 1 0.376902 0.0184331 0.00694001 0.00574592 0.000128831 -6.68723e-05 6.27875e-11 -4.45204e-11 1.81874e-11 5e-05 1.46608e-10 
67 1 0.383003 0.0185047 0.00684327 0.00580925 -0.000195126 1.90647e-05 -2.77353e-11 3.12974e-11 -1.30117e-11 5e-05 1.46608e-10 
68 1 0.382635 0.0168929 0.00748737 0.00554144 -0.000520461 -0.000398565 2.2785e-10 9.97114e-11 -6.38051e-11 5e-05 1.46608e-10 
69 1 0.382888 0.0183758 0.00685635 0.00575536 -0.000189179 2.22212e-05 -7.88026e-11 3.23151e-11 -6.45641e-11 5e-05 1.46608e-10 
70 1 0.383631 0.0194323 5.1287e-05 -3.50222e-19 -2.52208e-20 2.67382e-16 0 -2.48049e-25 0 5e-05 1.46608e-10 
71 1 0.377001 0.0184689 0.00692963 0.00579228 0.000124818 -6.51435e-05 5.98095e-11 -1.38581e-12 1.11826e-12 5e-05 1.46608e-10 
72 1 0.38283 0.018089 0.00692145 0.00595121 -0.000285511 -0.000131429 -1.22133e-10 2.86036e-10 -1.03953e-10 5e-05 1.46608e-10 
73 1 0.383173 0.0184703 0.00684675 0.00579901 -0.000215298 2.11428e-05 1.73349e-10 -1.21587e-10 2.47022e-11 5e-05 1.46608e-10 
74 1 0.383268 0.0185018 0.00684356 0.00580659 -0.000238147 2.40053e-05 1.31536e-10 2.26367e-10 -2.59461e-11 5e-05 1.46608e-10 
76 1 0.3766 0.0167096 0.00751743 0.00578023 -4.35347e-07 -0.00021344 9.7566e-11 -1.31574e-10 7.53305e-11 5e-05 1.46608e-10 
77 1 0.382862 0.0176518 0.0070612 0.00608438 -0.00041878 -7.73143e-05 5.11737e-10 -7.59749e-11 -1.28249e-10 5e-05 1.46608e-10 
78 1 0.376208 0.0157113 0.00863942 0.00587976 0.000367638 0.0002649 1.034e-10 3.54969e-10 -3.97805e-10 5e-05 1.46608e-10 
79 1 0.376842 0.0181499 0.00701844 0.00621631 4.35997e-05 -4.48388e-05 -4.95405e-11 -1.03851e-11 -2.08937e-12 5e-05 1.46608e-10 
80 1 0.382595 0.0167242 0.0075872 0.00551356 -0.000505037 -0.000405509 -3.36089e-11 -1.02412e-10 3.35702e-11 5e-05 1.46608e-10 
82 1 0.377057 0.0183108 0.00697292 0.00573569 0.000134031 -6.73923e-05 3.53637e-11 -1.1546e-10 3.24539e-11 5e-05 1.46608e-10 
83 1 0.376917 0.0173025 0.00725854 0.00611214 0.000285727 0.000502671 8.1462e-11 2.9904e-11 -2.18263e-11 5e-05 1.46608e-10 
84 1 0.383744 0.0189112 5.14355e-05 2.81059e-18 4.41918e-21 -2.14593e-15 0 7.27084e-27 0 5e-05 1.46608e-10 
85 1 0.377038 0.0182161 0.00699914 0.00580781 0.00028061 -0.000108155 -4.41564e-11 -1.41334e-10 3.9026e-11 5e-05 1.46608e-10 
86 1 0.383118 0.0186337 0.00683017 0.00586381 -0.000189933 1.9302e-05 1.31567e-10 1.55004e-11 -2.081e-12 5e-05 1.46608e-10 
87 1 0.382576 0.0166398 0.00763711 0.00552001 -0.00048094 -0.000419637 -9.23035e-11 -2.61362e-10 2.01193e-10 5e-05 1.46608e-10 
88 1 0.383098 0.0185362 0.00684007 0.00583038 -0.000193926 1.84577e-05 1.68377e-10 -3.57773e-11 1.23545e-12 5e-05 1.46608e-10 
89 1 0.382869 0.018279 0.00687244 0.00576383 -0.000218957 -8.77345e-05 5.54305e-11 4.22639e-11 -3.87298e-10 5e-05 1.46608e-10 
90 1 0.383063 0.018798 0.00681349 0.00577273 -7.97882e-07 2.38819e-08 -1.99775e-10 1.77254e-11 2.46401e-12 5e-05 1.46608e-10 
91 1 0.376735 0.0169097 0.00740907 0.0059135 0.000308361 0.000489682 3.63241e-10 2.35946e-10 1.11222e-10 5e-05 1.46608e-10 
92 1 0.382823 0.0176073 0.00714193 0.00606948 -0.000408922 -4.69396e-05 3.86254e-10 -1.31919e-10 -3.9603e-10 5e-05 1.46608e-10 
93 1 0.383006 0.018961 0.00679695 0.00566427 -0.000168311 1.89327e-05 -9.94886e-11 -4.82349e-10 3.15832e-11 5e-05 1.46608e-10 
94 1 0.383058 0.0183412 0.00685987 0.00576801 -0.000196951 4.65888e-05 -6.80001e-11 1.08365e-10 1.56667e-11 5e-05 1.46608e-10 
95 1 0.382841 0.0177451 0.00703189 0.00618523 -0.000409201 -0.000112891 2.09473e-10 -2.62312e-10 2.04606e-10 5e-05 1.46608e-10 
96 1 0.38256 0.016954 0.00746235 0.00562761 -0.00046238 -0.000441708 8.08876e-10 -2.06311e-10 1.06027e-12 5e-05 1.46608e-10 
98 1 0.382969 0.0187656 0.00681678 0.00585933 -0.000216687 2.138e-05 -6.92963e-11 -6.383e-11 -2.61541e-12 5e-05 1.46608e-10 
99 1 0.376692 0.0174975 0.00730054 0.00621788 0.000144639 -6.16382e-05 3.87764e-11 -4.10126e-11 -2.49913e-10 5e-05 1.46608e-10 
100 1 0.382985 0.0179617 0.00695669 0.00613153 -0.000368796 -0.000111742 -2.23991e-10 5.60347e-11 -2.51838e-11 5e-05 1.46608e-10 
101 1 0.376668 0.0173977 0.00722678 0.00622478 0.000142855 -5.73391e-05 -4.14485e-11 5.4328e-10 -1.48904e-10 5e-05 1.46608e-10 
102 1 0.0643568 0.0187248 0.00531097 4.40293e-15 1.04765e-14 8.2956e-14 2.7624e-22 -1.86684e-22 9.09899e-24 5e-05 1.46608e-10 
103 1 0.24257 0.0191927 0.00520306 1.4124e-22 4.86658e-23 1.23839e-22 0 0 0 5e-05 1.46608e-10 
104 1 0.376974 0.0179322 0.00707776 0.00621461 4.29107e-05 -4.39919e-05 8.25895e-11 -7.33085e-11 8.20134e-12 5e-05 1.46608e-10 
105 1 0.376356 0.0161779 0.008139 0.00579159 0.000486828 0.000132266 -3.32511e-11 -1.29481e-10 1.52785e-10 5e-05 1.46608e-10 
106 1 0.376811 0.0178012 0.00720198 0.00620964 4.18316e-05 -5.16136e-05 3.16808e-11 1.52184e-10 9.41637e-12 5e-05 1.46608e-10 
107 1 0.376229 0.015778 0.00856795 0.00586442 0.000407437 0.000217304 -3.64276e-11 4.24345e-10 -4.68754e-10 5e-05 1.46608e-10 
108 1 0.382811 0.0179959 0.00695224 0.00627617 -0.000353496 -0.000122284 2.62373e-10 1.59403e-10 -1.3429e-11 5e-05 1.46608e-10 
109 1 0.382948 0.0186681 0.00682667 0.00584196 -0.000203719 2.06629e-05 -3.83812e-11 -8.72915e-11 1.71245e-11 5e-05 1.46608e-10 
110 1 0.382958 0.0178704 0.00698715 0.00624048 -0.000418894 -0.000104591 -1.19621e-10 6.38294e-12 -1.89415e-12 5e-05 1.46608e-10 
111 1 0.382726 0.0174209 0.00727729 0.0060679 -0.000395704 -0.00044592 -2.5286e-10 -8.06786e-11 -3.98791e-10 5e-05 1.46608e-10 
112 1 0.376582 0.0163475 0.00793967 0.00545613 -0.000211135 -0.000334638 -3.13143e-10 1.05872e-10 -2.36151e-10 5e-05 1.46608e-10 
113 1 0.376583 0.0170213 0.00734527 0.00567216 0.000471051 0.000383933 -8.75955e-11 5.44045e-11 -1.32634e-10 5e-05 1.46608e-10 
114 1 0.376625 0.0172103 0.0072813 0.00623664 0.000305784 0.000363299 -1.96407e-10 -8.79425e-10 -9.99569e-10 5e-05 1.46608e-10 
115 1 0.382814 0.0172522 0.00726295 0.00604012 -0.000561401 -0.000447765 9.36368e-11 2.73846e-11 1.42835e-10 5e-05 1.46608e-10 
116 1 0.382761 0.0174 0.00718635 0.00605848 -0.000559443 -0.000425515 2.1171e-10 -1.86219e-10 -1.6259e-10 5e-05 1.46608e-10 
117 1 0.382959 0.0176807 0.00704829 0.00600531 -0.000562718 -4.03712e-05 -4.91459e-11 8.52158e-11 -6.3434e-11 5e-05 1.46608e-10 
118 1 0.376798 0.0171825 0.00730142 0.00615327 0.000187403 0.000334054 2.15762e-10 1.76178e-10 5.58951e-11 5e-05 1.46608e-10 
119 1 0.383023 0.0186022 0.00683337 0.00583708 -0.000198235 2.02042e-05 5.33767e-11 -1.69143e-10 2.44831e-11 5e-05 1.46608e-10 
120 1 0.383001 0.0180556 0.00692586 0.0060228 -0.000341555 -0.000142148 -1.60561e-11 7.9568e-11 -1.67215e-10 5e-05 1.46608e-10 
121 1 0.382685 0.0174605 0.00716605 0.0061142 -0.000480944 -0.000311365 7.77931e-11 -1.33075e-10 1.67622e-10 5e-05 1.46608e-10 
122 1 0.38254 0.0168696 0.00751227 0.00554038 -0.000447559 -0.000440984 9.43137e-11 -8.01276e-11 1.58883e-11 5e-05 1.46608e-10 
123 1 0.37696 0.0187169 0.00686145 0.00589841 0.000135724 -6.78643e-05 1.05437e-11 2.75753e-11 -3.29028e-12 5e-05 1.46608e-10 
124 1 0.383153 0.0183728 0.00685665 0.00576606 -0.000209514 2.21022e-05 -1.51658e-10 -5.18385e-11 4.53842e-11 5e-05 1.46608e-10 
125 1 0.382676 0.0170611 0.00738755 0.00589815 -0.000584779 -0.000407781 9.81549e-11 9.87191e-11 -8.14687e-11 5e-05 1.46608e-10 
127 1 0.376293 0.0159779 0.00835358 0.00600546 0.000425865 0.000215104 -3.54093e-10 -3.25213e-11 -4.1418e-12 5e-05 1.46608e-10 
128 1 0.382991 0.0175903 0.00707622 0.00588992 -0.000595567 -3.21502e-05 -6.2325e-10 4.45574e-11 4.14415e-11 5e-05 1.46608e-10 
129 1 0.382983 0.0184072 0.00685316 0.0057494 -0.000180461 1.83883e-05 -8.89452e-11 6.87063e-11 -1.81908e-11 5e-05 1.46608e-10 
130 1 0.376723 0.0172414 0.00727082 0.00623664 0.000242198 0.000196727 -7.82537e-11 -6.63722e-11 1.29178e-10 5e-05 1.46608e-10 
131 1 0.376745 0.0173351 0.00724364 0.00623885 0.000124584 -7.29363e-05 -1.6255e-10 1.99005e-10 7.66263e-11 5e-05 1.46608e-10 
132 1 0.382792 0.0171681 0.0073129 0.00602941 -0.000625393 -0.000400106 -2.51931e-10 -2.3787e-11 6.51432e-11 5e-05 1.46608e-10 
133 1 0.382822 0.0177304 0.00712882 0.00619308 -0.000401631 -0.000104857 7.3554e-11 -7.38017e-11 1.1274e-11 5e-05 1.46608e-10 
134 1 0.382739 0.0173137 0.00723768 0.00607453 -0.000556525 -0.000439195 4.27301e-11 -3.48513e-11 -2.01151e-10 5e-05 1.46608e-10 
135 1 0.382928 0.0185707 0.00683657 0.00581382 -0.000191501 1.96166e-05 -5.05682e-11 -1.08703e-10 4.44839e-12 5e-05 1.46608e-10 
136 1 0.376638 0.0168854 0.00743066 0.00562948 0.000218251 0.00016785 5.6225e-10 1.61736e-10 -1.02548e-10 5e-05 1.46608e-10 
137 1 0.383078 0.0184388 0.00684996 0.0058016 -0.000199233 2.11126e-05 -4.03705e-11 2.19922e-11 4.26152e-11 5e-05 1.46608e-10 
138 1 0.382784 0.0174975 0.00721542 0.00624085 -0.000374991 -0.000535718 1.84815e-10 -1.64916e-11 -2.27962e-10 5e-05 1.46608e-10 
140 1 0.382501 0.0167009 0.0076121 0.00552556 -0.000455089 -0.000433074 8.72575e-11 -1.10272e-10 1.00512e-10 5e-05 1.46608e-10 
141 1 0.376619 0.0164714 0.00778716 0.00560778 -0.000259325 -0.000305405 5.47863e-10 -2.28514e-10 1.67628e-10 5e-05 1.46608e-10 
142 1 0.377025 0.0177716 0.00712179 0.00619351 3.91584e-05 -4.3286e-05 8.75889e-11 4.67291e-13 -5.03724e-12 5e-05 1.46608e-10 
143 1 0.37625 0.0158446 0.00849649 0.00582212 0.000402808 0.000214915 7.10935e-10 -7.74053e-11 1.90965e-10 5e-05 1.46608e-10 
144 1 0.376981 0.0175832 0.00717397 0.00617509 3.95374e-05 -4.41742e-05 8.0358e-11 -5.68031e-11 7.11911e-12 5e-05 1.46608e-10 
146 1 0.376765 0.0178574 0.00727093 0.005973 -8.92897e-06 -0.000174657 1.27207e-11 8.48153e-11 3.58981e-11 5e-05 1.46608e-10 
147 1 0.376701 0.0171489 0.00730253 0.00628819 0.000362195 0.000481285 2.03693e-10 -8.00357e-11 -8.02461e-10 5e-05 1.46608e-10 
148 1 0.376638 0.0165319 0.00770974 0.00567719 -0.000276334 -0.000294954 2.52537e-10 -6.06064e-11 1.93502e-10 5e-05 1.46608e-10 
149 1 0.382442 0.0164478 0.00776194 0.00553328 -0.0004381 -0.000488958 -1.13411e-10 -1.30521e-10 2.62949e-10 5e-05 1.46608e-10 
150 1 0.376799 0.0179617 0.00707055 0.00621052 5.12806e-05 -4.75224e-05 2.42488e-11 6.1389e-11 -1.04581e-11 5e-05 1.46608e-10 
151 1 0.376712 0.0175859 0.00717467 0.00623261 0.000112014 -6.14934e-05 3.70364e-10 7.70197e-10 -2.81929e-10 5e-05 1.46608e-10 
153 1 0.376656 0.0165934 0.00763312 0.00570281 -0.000267485 -0.000273404 -1.58145e-10 1.39517e-10 1.31102e-10 5e-05 1.46608e-10 
154 1 0.376272 0.0159113 0.00842502 0.00574325 0.000431566 0.000177176 -7.70756e-10 -1.46348e-11 -4.43756e-11 5e-05 1.46608e-10 
155 1 0.376647 0.0173153 0.00735244 0.00602871 0.000250426 1.53629e-05 -1.38919e-10 -6.38018e-10 -1.16244e-09 5e-05 1.46608e-10 
156 1 0.376601 0.0164089 0.00786303 0.00550502 -0.000223004 -0.000324674 3.12766e-10 -2.55761e-11 -3.24789e-11 5e-05 1.46608e-10 
157 1 0.0219312 0.0187687 0.00551176 -3.84331e-14 8.16009e-14 2.95893e-13 -5.55323e-22 3.00628e-22 -1.66884e-22 5e-05 1.46608e-10 
158 1 0.376696 0.0167469 0.00751261 0.0054996 0.000230106 0.000304687 2.25699e-10 -3.63469e-10 -4.41408e-10 5e-05 1.46608e-10 
159 1 0.382615 0.0168085 0.00753728 0.00548191 -0.000508604 -0.000397807 -8.25982e-11 2.23956e-10 -1.39425e-10 5e-05 1.46608e-10 
160 1 0.37669 0.0174918 0.00720072 0.00621944 0.000110327 -6.78634e-05 1.52358e-10 6.62832e-10 -1.55219e-10 5e-05 1.46608e-10 
162 1 0.37694 0.0186223 0.00688764 0.00584658 0.000132513 -6.74422e-05 1.49327e-11 -1.68245e-11 4.59636e-12 5e-05 1.46608e-10 
165 1 0.376856 0.0178079 0.00711268 0.00620471 4.77436e-05 -4.76025e-05 -2.63108e-11 7.65119e-12 7.47775e-12 5e-05 1.46608e-10 
166 1 0.382601 0.0171223 0.00736254 0.0059533 -0.000534674 -0.000443955 -1.83806e-10 -1.64544e-10 7.40665e-11 5e-05 1.46608e-10 
167 1 0.376943 0.018185 0.00700823 0.00586219 0.000133065 -6.78756e-05 -1.06346e-10 4.23061e-11 -1.06413e-11 5e-05 1.46608e-10 
168 1 0.376981 0.0183742 0.00695585 0.00574599 0.00014259 -6.98774e-05 7.47017e-11 -4.85016e-11 1.529e-11 5e-05 1.46608e-10 
169 1 0.376755 0.0177736 0.00712266 0.00620487 5.54676e-05 -4.69694e-05 2.58595e-11 1.207e-11 -1.11099e-12 5e-05 1.46608e-10 
170 1 0.376921 0.0180909 0.00703429 0.00622636 4.44496e-05 -4.50746e-05 -1.07815e-10 -1.11858e-10 2.86339e-11 5e-05 1.46608e-10 
171 1 0.382925 0.018119 0.00690827 0.00594853 -0.000292339 -0.000145901 1.23576e-10 4.38213e-10 -1.75854e-10 5e-05 1.46608e-10 
172 1 0.376563 0.0169305 0.00738237 0.00567151 0.000439043 0.000385945 1.51632e-11 -6.02354e-11 6.37702e-11 5e-05 1.46608e-10 
173 1 0.382988 0.0188633 0.00680687 0.00554282 -0.000152092 1.5592e-05 -1.37533e-10 -3.46601e-10 4.06885e-11 5e-05 1.46608e-10 
174 1 0.376574 0.0169446 0.00748081 0.00569045 0.000400031 0.000393268 5.02748e-12 1.70648e-10 5.46725e-11 5e-05 1.46608e-10 
176 1 0.376945 0.0177836 0.00721984 0.00621332 2.63524e-05 -3.53215e-05 -1.19288e-10 2.56059e-11 -3.0392e-11 5e-05 1.46608e-10 
177 1 0.376336 0.0161111 0.00821081 0.00640267 0.000435655 0.000254992 -1.3212e-10 -2.71632e-10 1.7796e-10 5e-05 1.46608e-10 
178 1 0.376784 0.0176779 0.00724378 0.00618072 5.85712e-05 -9.8845e-05 8.67883e-11 -4.13559e-11 -1.60508e-10 5e-05 1.46608e-10 
179 1 0.377018 0.018121 0.00702548 0.0058575 0.00014498 -7.0971e-05 -1.42897e-10 7.96897e-12 -1.27672e-12 5e-05 1.46608e-10 
182 1 0.382746 0.0177201 0.00705061 0.00620022 -0.00038466 -0.000109841 1.72694e-11 -1.63915e-10 6.6954e-11 5e-05 1.46608e-10 
183 1 0.376935 0.0179129 0.00716772 0.00620896 4.93927e-05 -4.62912e-05 4.07699e-11 -7.445e-11 3.72019e-11 5e-05 1.46608e-10 
184 1 0.383082 0.0188958 0.00680356 0.0055912 -0.000279298 2.89327e-05 2.25069e-10 -4.31357e-10 3.85336e-11 5e-05 1.46608e-10 
185 1 0.377003 0.0176775 0.00714785 0.00618904 3.19527e-05 -4.10754e-05 -2.70033e-12 -2.46778e-11 -2.3118e-12 5e-05 1.46608e-10 
186 1 0.376883 0.0183385 0.0069662 0.0056893 0.000138806 -6.85056e-05 -1.47877e-10 -1.13828e-10 3.784e-11 5e-05 1.46608e-10 
187 1 0.382705 0.017547 0.00712025 0.00616936 -0.000440759 -0.000195358 3.73815e-13 -3.936e-11 7.41427e-10 5e-05 1.46608e-10 
188 1 0.382655 0.0169771 0.00743746 0.00574911 -0.000553742 -0.000405957 3.66923e-10 3.16627e-12 -5.3696e-11 5e-05 1.46608e-10 
189 1 0.382664 0.0173749 0.00721343 0.0060757 -0.000515756 -0.000387852 2.76641e-11 -2.58456e-10 -2.53563e-10 5e-05 1.46608e-10 
190 1 0.370884 0.0183431 0.00696631 0.00569185 -6.18867e-05 4.88501e-05 -5.40785e-11 3.10783e-12 1.25294e-12 5e-05 1.46608e-10 
191 1 0.382922 0.0176836 0.00714121 0.00541369 -0.000442432 -0.000270194 4.41034e-12 -1.068e-11 -1.69497e-10 5e-05 1.46608e-10 
192 1 0.376602 0.0171121 0.0073082 0.00620818 0.000322898 0.000497813 6.04232e-11 1.5045e-11 4.91321e-11 5e-05 1.46608e-10 
193 1 0.382964 0.0183096 0.00686306 0.00575585 -0.00017204 1.32108e-05 2.74321e-11 1.26682e-10 -3.15522e-11 5e-05 1.46608e-10 
194 1 0.376962 0.0182796 0.00698204 0.00570492 0.00015858 -7.39796e-05 1.4998e-10 7.29388e-11 -1.9871e-11 5e-05 1.46608e-10 
195 1 0.37681 0.0176178 0.00716536 0.006202 5.07428e-05 -5.64189e-05 -7.03207e-12 3.27158e-10 -1.52735e-10 5e-05 1.46608e-10 
196 1 0.376907 0.0176478 0.00715655 0.00618515 4.02873e-05 -4.42509e-05 3.22803e-11 -1.14268e-10 9.94897e-13 5e-05 1.46608e-10 
197 1 0.370558 0.0169596 0.00756465 0.00591817 -0.000124718 1.31224e-05 -5.33981e-10 -8.55371e-11 4.80193e-11 5e-05 1.46608e-10 
198 1 0.37712 0.0178007 0.00711326 0.00619498 3.01049e-05 -4.10699e-05 1.30406e-10 -1.09875e-10 4.39319e-11 5e-05 1.46608e-10 
199 1 0.376877 0.0179021 0.00708659 0.00620724 4.85404e-05 -4.61744e-05 4.16432e-11 8.89696e-12 2.58579e-13 5e-05 1.46608e-10 
200 1 0.376315 0.0160445 0.00828221 0.00633921 0.0004207 0.000264117 -6.98794e-11 -9.58106e-11 7.98471e-11 5e-05 1.46608e-10 
201 1 0.376832 0.0177122 0.00713919 0.00619654 4.83097e-05 -4.51919e-05 2.80835e-11 -8.56297e-11 -4.66091e-12 5e-05 1.46608e-10 
202 1 0.376712 0.0168194 0.00744547 0.00571119 0.000338814 0.000451193 1.3937e-10 2.63163e-11 -4.10922e-11 5e-05 1.46608e-10 
203 1 0.382718 0.0172297 0.00728759 0.00606658 -0.000572852 -0.000435541 -2.40841e-10 2.51376e-10 -1.10953e-10 5e-05 1.46608e-10 
204 1 0.377071 0.0179632 0.0070687 0.00622825 3.8118e-05 -4.31995e-05 9.18787e-11 -1.17254e-11 3.98124e-12 5e-05 1.46608e-10 
205 1 0.376525 0.0164547 0.00781577 0.0055372 -0.000153377 -0.000428988 2.42912e-10 3.57116e-11 3.05493e-11 5e-05 1.46608e-10 
206 1 0.376562 0.0165777 0.00766247 0.00562337 -0.000163936 -0.000422327 -8.51561e-11 3.99252e-11 1.18685e-10 5e-05 1.46608e-10 
207 1 0.376375 0.0162447 0.00806703 0.00531987 0.000527439 5.62627e-05 -2.24578e-10 -2.01427e-10 2.35414e-10 5e-05 1.46608e-10 
208 1 0.376777 0.0170907 0.00733536 0.00614024 0.000260757 0.00051517 5.15848e-10 2.14921e-10 -7.15683e-12 5e-05 1.46608e-10 
209 1 0.376544 0.0168397 0.00741947 0.00568746 0.000412706 0.000396187 -5.98133e-11 -2.24648e-10 1.67841e-10 5e-05 1.46608e-10 
210 1 0.38273 0.0169155 0.00746278 0.00568038 -0.000599734 -0.000372126 -9.52814e-11 -2.47403e-10 1.49786e-10 5e-05 1.46608e-10 
211 1 0.382461 0.0165321 0.00771193 0.0055408 -0.000437434 -0.000459878 -1.00432e-10 -5.17249e-10 -2.64722e-10 5e-05 1.46608e-10 
212 1 0.376996 0.0180263 0.00705171 0.00622818 4.15183e-05 -4.45287e-05 -8.97651e-12 -3.16387e-11 1.06038e-11 5e-05 1.46608e-10 
213 1 0.382642 0.0172906 0.00726272 0.00606281 -0.00053868 -0.000432425 7.16843e-11 -1.28613e-10 3.3387e-12 5e-05 1.46608e-10 
214 1 0.382896 0.0175618 0.007089 0.00591687 -0.000586568 -0.00041063 7.90177e-10 7.72984e-11 1.65528e-10 5e-05 1.46608e-10 
215 1 0.370781 0.0178551 0.00700024 0.00627552 -0.000185598 6.30906e-05 2.06029e-11 -1.14191e-10 2.62384e-11 5e-05 1.46608e-10 
217 1 0.382768 0.0178105 0.00701359 0.00623053 -0.000366405 -0.000107565 5.84258e-11 -1.33666e-10 6.39057e-11 5e-05 1.46608e-10 
218 1 0.376647 0.0173037 0.00725311 0.00621935 0.000212703 8.9482e-05 -1.2503e-10 -7.69335e-11 2.21709e-10 5e-05 1.46608e-10 
219 1 0.383019 0.0181489 0.00689517 0.00594756 -0.000289082 -8.89687e-05 3.40493e-10 1.04402e-10 -1.44737e-10 5e-05 1.46608e-10 
220 1 0.376767 0.0174295 0.0072175 0.006236 0.000107764 -6.40657e-05 -3.42699e-10 1.59696e-10 -8.34832e-11 5e-05 1.46608e-10 
222 1 0.382944 0.0182127 0.00687735 0.00581329 -0.000190298 -0.000153396 3.88044e-11 1.22551e-10 -7.62181e-12 5e-05 1.46608e-10 
224 1 0.376468 0.0165618 0.00769213 0.00560088 -0.000129409 -0.000450447 1.80925e-11 -3.12958e-11 -8.03421e-11 5e-05 1.46608e-10 
225 1 0.383029 0.0175021 0.00710321 0.00604422 -0.000532432 -7.87141e-05 1.18179e-10 4.58504e-10 -4.09783e-10 5e-05 1.46608e-10 
226 1 0.377011 0.01785 0.00718519 0.00621675 2.87047e-05 -3.28281e-05 -9.77322e-11 2.62249e-12 -1.42415e-11 5e-05 1.46608e-10 
227 1 0.370805 0.0179517 0.00699355 0.0060533 -0.000130956 5.62335e-05 1.85397e-10 -4.71633e-11 3.24401e-11 5e-05 1.46608e-10 
228 1 0.37076 0.0176707 0.00705651 0.00631531 -0.000199698 5.30947e-05 5.6085e-11 -3.86376e-11 1.76768e-11 5e-05 1.46608e-10 
229 1 0.376864 0.018244 0.00699238 0.00586155 0.000111395 -6.22846e-05 -1.71886e-10 -1.01388e-11 5.62236e-12 5e-05 1.46608e-10 
230 1 0.376601 0.0170334 0.00744278 0.00573072 0.000292959 0.00039687 3.81252e-11 -5.5915e-12 -2.49084e-10 5e-05 1.46608e-10 
232 1 0.3769 0.0179968 0.00706034 0.00621363 4.52816e-05 -4.59052e-05 2.9402e-11 -7.16019e-11 1.10828e-11 5e-05 1.46608e-10 
233 1 0.376858 0.0179795 0.00714941 0.00620556 5.36952e-05 -4.75473e-05 9.74683e-11 -6.67297e-11 2.62988e-11 5e-05 1.46608e-10 
234 1 0.38285 0.0181833 0.0068941 0.00584443 -0.000264587 -0.000160645 -1.5119e-10 1.84282e-10 -3.58044e-10 5e-05 1.46608e-10 
235 1 0.376449 0.0165003 0.00776878 0.00554783 -0.000137268 -0.00045474 7.55955e-11 5.14281e-12 -2.20387e-10 5e-05 1.46608e-10 
236 1 0.376843 0.0173654 0.00723477 0.00609409 5.42866e-05 -4.42183e-05 1.74555e-11 -9.65257e-11 -4.26297e-11 5e-05 1.46608e-10 
237 1 0.376524 0.0167495 0.00745811 0.0057489 -1.23932e-05 -0.000610966 -1.02031e-10 -4.39972e-10 5.13054e-10 5e-05 1.46608e-10 
239 1 0.370454 0.0165617 0.00784873 0.00563923 -0.000177688 -0.000173671 2.67317e-13 -2.40812e-12 -3.45061e-11 5e-05 1.46608e-10 
240 1 0.370515 0.0168008 0.00767827 0.00579246 -0.000108197 -1.15088e-07 5.80156e-10 -5.39073e-11 1.15836e-10 5e-05 1.46608e-10 
241 1 0.370433 0.016481 0.00790413 0.00560001 -0.000169365 -0.000180145 -1.34897e-12 1.02348e-11 -2.41292e-11 5e-05 1.46608e-10 
242 1 0.377194 0.0177353 0.0071309 0.00619279 4.03215e-05 -4.39536e-05 1.5679e-10 -1.08794e-10 3.02039e-11 5e-05 1.46608e-10 
243 1 0.376885 0.0175538 0.00718259 0.00617696 3.96662e-05 -4.46311e-05 8.82415e-11 -1.64831e-10 1.58669e-11 5e-05 1.46608e-10 
244 1 0.370474 0.0166416 0.00779217 0.00568811 -7.86654e-05 -1.51171e-05 -2.03899e-10 1.02175e-10 -5.08925e-11 5e-05 1.46608e-10 
246 1 0.370658 0.0173574 0.00728014 0.00609934 -0.000136716 1.8114e-05 -6.84082e-10 -4.4246e-11 1.81298e-11 5e-05 1.46608e-10 
247 1 0.376393 0.0163116 0.00799501 0.00545282 0.000493159 7.44777e-05 -2.63856e-10 -3.48884e-10 3.95947e-10 5e-05 1.46608e-10 
248 1 0.376756 0.0175841 0.00726431 0.00625652 5.13082e-05 -6.22483e-05 8.92908e-11 2.08272e-10 7.50413e-11 5e-05 1.46608e-10 
249 1 0.370597 0.0171191 0.00745056 0.00591397 -0.000127226 1.3952e-05 -2.33294e-10 2.92641e-10 -1.22045e-10 5e-05 1.46608e-10 
250 1 0.376488 0.016333 0.00797006 0.00541983 -0.000141371 -0.000402824 -1.70488e-10 -6.71709e-10 -1.53474e-10 5e-05 1.46608e-10 
251 1 0.382697 0.0171454 0.00733759 0.00598443 -0.000561742 -0.000431081 -2.56786e-11 -1.66275e-10 1.10653e-10 5e-05 1.46608e-10 
252 1 0.370686 0.0174353 0.00722428 0.00616074 -0.000150611 2.64081e-05 5.71973e-10 -1.79129e-10 1.09687e-10 5e-05 1.46608e-10 
253 1 0.370863 0.0182454 0.0069731 0.00566885 -6.60303e-05 4.9038e-05 8.12929e-11 -7.67704e-11 5.68508e-12 5e-05 1.46608e-10 
254 1 0.370626 0.0171969 0.00739483 0.00595954 -0.000138383 1.899e-05 1.85401e-10 -1.5031e-10 7.91919e-11 5e-05 1.46608e-10 
255 1 0.376877 0.0177107 0.0072285 0.00620422 2.80503e-05 -4.65177e-05 1.03884e-10 -1.92233e-10 -6.93835e-11 5e-05 1.46608e-10 
256 1 0.377093 0.0180573 0.00704264 0.00582752 0.00012412 -6.50827e-05 -1.89144e-10 -3.44687e-11 1.02538e-11 5e-05 1.46608e-10 
257 1 0.376676 0.0166649 0.00756604 0.00571224 -8.23291e-05 -7.78579e-05 3.94902e-11 -2.3459e-10 -2.8985e-10 5e-05 1.46608e-10 
258 1 0.376855 0.0176089 0.00726034 0.00618411 6.99158e-05 -5.92587e-05 8.92426e-11 -1.10862e-10 -1.41287e-10 5e-05 1.46608e-10 
259 1 0.370698 0.0175161 0.00716662 0.0061819 -0.000161385 3.15589e-05 2.38868e-10 3.93724e-11 -6.00676e-12 5e-05 1.46608e-10 
260 1 0.376734 0.0176824 0.00715759 0.00617593 -6.71262e-06 -9.89249e-05 -2.35549e-11 1.14818e-11 4.55688e-11 5e-05 1.46608e-10 
261 1 0.376805 0.0174029 0.00731946 0.00621851 0.00010155 8.32176e-06 1.33143e-11 -4.32956e-11 -8.53245e-11 5e-05 1.46608e-10 
262 1 0.376604 0.0171268 0.00740711 0.0062235 0.000322366 0.000498063 4.63589e-11 2.0205e-10 1.34992e-11 5e-05 1.46608e-10 
263 1 0.370576 0.0170396 0.00750745 0.00595103 -0.000118425 1.3736e-05 2.84553e-10 3.18914e-10 -1.75637e-10 5e-05 1.46608e-10 
264 1 0.376706 0.0173886 0.007319 0.00617977 0.00016352 -2.86484e-05 7.30917e-11 -3.26681e-10 -1.46741e-10 5e-05 1.46608e-10 
265 1 0.370958 0.0182767 0.00697161 0.00567345 -8.30203e-05 5.00301e-05 -1.16962e-10 -1.03862e-10 7.42707e-12 5e-05 1.46608e-10 
266 1 0.376788 0.0175236 0.00719144 0.00623216 6.08883e-05 -4.66468e-05 1.86428e-10 2.56167e-10 -6.45544e-11 5e-05 1.46608e-10 