ITEM: TIMESTEP
11800000
ITEM: NUMBER OF ATOMS
287
ITEM: BOX BOUNDS ff ff ff
-0.02 0.43
-0.02 0.06
-0.02 0.07
ITEM: ATOMS id type x y z vx vy vz fx fy fz radius mass 
1 1 0.0816362 0.0163489 0.00783377 0.0056141 0.000223239 0.000254749 1.00364e-11 -5.04157e-11 2.64296e-11 5e-05 1.46608e-10 
2 1 0.082176 0.0175225 0.00730443 0.0059837 6.45649e-05 0.000354897 -2.30465e-10 2.59032e-10 -1.45534e-10 5e-05 1.46608e-10 
3 1 0.0754267 0.0158628 0.0081605 0.0060356 0.000439613 -0.000699605 -5.80816e-11 -1.07086e-10 -1.30594e-10 5e-05 1.46608e-10 
4 1 0.0819615 0.0177692 0.007172 0.00609039 0.000185842 0.000303608 4.79377e-11 2.46428e-10 -1.05655e-10 5e-05 1.46608e-10 
5 1 0.081501 0.0161402 0.00792541 0.00562287 0.000216973 0.000259815 -1.10894e-11 1.00399e-11 7.76042e-12 5e-05 1.46608e-10 
6 1 0.0876375 0.0167293 0.00760212 0.00542637 -0.000153769 0.000303046 6.1259e-12 2.65331e-11 -1.05337e-11 5e-05 1.46608e-10 
7 1 0.081679 0.0169399 0.00755245 0.0054991 0.000273204 0.000223342 -1.64347e-11 -2.17167e-11 1.10653e-11 5e-05 1.46608e-10 
8 1 0.0814027 0.01577 0.0082306 0.00582031 -2.7794e-06 -6.02833e-05 -4.64183e-11 4.0999e-11 -6.10291e-11 5e-05 1.46608e-10 
9 1 0.0879215 0.0179841 0.00707012 0.00644152 0.00122563 -0.000957259 1.04958e-12 3.58289e-13 -2.46137e-13 5e-05 1.46608e-10 
10 1 0.08162 0.0166731 0.00767688 0.00549088 0.000238517 0.000239407 3.98673e-11 3.0056e-11 -1.11415e-11 5e-05 1.46608e-10 
11 1 0.082111 0.0176531 0.00723747 0.00605738 0.000114499 0.000335429 -1.05135e-10 -4.36605e-11 1.72969e-11 5e-05 1.46608e-10 
12 1 0.0756045 0.0165676 0.00762965 0.00571826 0.000439217 -0.000692995 -2.05424e-10 -7.09545e-10 -3.74522e-10 5e-05 1.46608e-10 
13 1 0.0814811 0.0160525 0.0079692 0.0056133 0.000160851 0.000149629 -1.06159e-10 5.58101e-12 -5.92921e-11 5e-05 1.46608e-10 
14 1 0.0753487 0.015606 0.00845165 0.00566206 0.000575532 -0.000555976 -8.38999e-11 1.66348e-10 -2.45607e-10 5e-05 1.46608e-10 
15 1 0.0818359 0.0172372 0.00741964 0.00588425 0.000209329 0.000278802 5.22243e-11 1.23527e-11 2.2853e-12 5e-05 1.46608e-10 
16 1 0.0753291 0.0155521 0.00853355 0.0057935 0.000556421 -0.000516069 8.57837e-11 1.53438e-10 -2.38923e-10 5e-05 1.46608e-10 
17 1 0.0816005 0.0165843 0.00771834 0.00546175 0.000243203 0.000235327 -7.7318e-11 -2.95232e-11 6.357e-12 5e-05 1.46608e-10 
18 1 0.0877778 0.0173667 0.00734916 0.00579492 -0.000282449 0.000371984 1.0861e-12 -4.29335e-12 -1.34192e-12 5e-05 1.46608e-10 
19 1 0.0814609 0.0159666 0.00801627 0.0056109 6.13563e-05 -2.38224e-05 -3.97734e-11 6.09249e-11 2.32781e-11 5e-05 1.46608e-10 
21 1 0.0816161 0.0162601 0.00787517 0.00561163 0.000218968 0.000256722 -6.93365e-12 -1.76232e-11 6.63674e-12 5e-05 1.46608e-10 
22 1 0.0817194 0.0171174 0.00746971 0.00581137 0.000204447 0.000276169 2.2091e-11 -8.31418e-11 5.12902e-11 5e-05 1.46608e-10 
23 1 0.0757377 0.0167559 0.00750087 0.00574797 0.000719014 -0.000294017 2.17016e-10 -1.3501e-10 6.62161e-11 5e-05 1.46608e-10 
24 1 0.0878409 0.0176394 0.00724109 0.00589341 -0.00029814 0.000382411 -4.84151e-12 -2.70087e-11 1.10766e-11 5e-05 1.46608e-10 
25 1 0.0816593 0.0168509 0.00759398 0.00548709 0.000234567 0.000240824 -2.2546e-11 -8.99092e-11 4.16738e-11 5e-05 1.46608e-10 
26 1 0.0877159 0.0170939 0.00745737 0.00542152 -0.000227576 0.000332918 2.33005e-12 -3.53757e-12 2.02386e-12 5e-05 1.46608e-10 
27 1 0.0757481 0.017072 0.0074108 0.00555123 0.000705306 -0.000431439 -5.61913e-10 -1.00093e-10 -8.86034e-10 5e-05 1.46608e-10 
28 1 0.0819399 0.0176807 0.00721317 0.00607019 0.000196617 0.000296224 -6.151e-11 1.45515e-10 -5.26039e-11 5e-05 1.46608e-10 
29 1 0.0814411 0.0158876 0.0080743 0.00562553 -5.45726e-05 -0.000174647 2.24745e-11 9.50777e-11 3.51531e-11 5e-05 1.46608e-10 
30 1 0.0818984 0.0175033 0.00729575 0.00599259 0.000169006 0.000305224 6.00873e-10 -4.76053e-11 5.75735e-11 5e-05 1.46608e-10 
31 1 0.0816986 0.0170288 0.007511 0.00549835 0.000278954 0.000220387 2.99969e-11 5.78239e-12 -1.31236e-13 5e-05 1.46608e-10 
32 1 0.0818151 0.0171486 0.00746092 0.00583439 0.000216182 0.000272316 7.62487e-11 4.62346e-12 5.39265e-12 5e-05 1.46608e-10 
33 1 0.087657 0.0168205 0.00756593 0.00543702 -0.000231219 0.000335014 -4.88119e-12 1.09101e-11 -4.31396e-12 5e-05 1.46608e-10 
34 1 0.081581 0.0164954 0.00775981 0.00546143 0.000243835 0.000234869 -1.00218e-11 -1.63316e-11 1.12575e-11 5e-05 1.46608e-10 
35 1 0.0817944 0.0170599 0.00750222 0.00580404 0.00019935 0.000278444 1.5001e-10 -6.43552e-11 4.17936e-11 5e-05 1.46608e-10 
36 1 0.0879768 0.0182199 0.00695166 0.0065572 0.00119511 -0.000948747 7.47742e-13 3.14555e-13 -2.12153e-13 5e-05 1.46608e-10 
37 1 0.081754 0.0168823 0.00758496 0.00549208 0.000263821 0.000227299 6.46846e-11 4.34969e-11 -1.71481e-11 5e-05 1.46608e-10 
38 1 0.0819315 0.0172681 0.00741098 0.00589459 0.000159069 0.000303957 1.03478e-11 2.5307e-11 -1.34106e-11 5e-05 1.46608e-10 
39 1 0.0878661 0.0177471 0.00718915 0.00632759 0.00126611 -0.000970747 1.43054e-12 6.58168e-13 -4.05664e-13 5e-05 1.46608e-10 
41 1 0.0815411 0.0163178 0.00784264 0.00561987 0.000220867 0.000256725 -1.64163e-11 -2.03131e-11 5.95714e-12 5e-05 1.46608e-10 
42 1 0.0817402 0.0172062 0.00742839 0.00585644 0.000234876 0.000264371 5.01106e-11 5.78853e-11 -2.2333e-11 5e-05 1.46608e-10 
44 1 0.0819523 0.0173567 0.00736969 0.00593022 0.000149359 0.000310686 -4.56529e-11 4.60639e-11 -2.15549e-11 5e-05 1.46608e-10 
45 1 0.0876766 0.0169116 0.00752974 0.00543214 -0.000231603 0.00033501 2.21746e-11 -8.51101e-12 3.57923e-12 5e-05 1.46608e-10 
46 1 0.0877568 0.0172759 0.00738519 0.00576077 -0.00027997 0.000369182 -1.03303e-13 -2.08842e-12 3.62547e-12 5e-05 1.46608e-10 
47 1 0.0815612 0.0164065 0.00780125 0.00561835 0.000221659 0.000255993 6.78267e-12 -2.40358e-11 1.16477e-11 5e-05 1.46608e-10 
48 1 0.0817818 0.0173835 0.00734581 0.00594122 0.000224459 0.000275446 -9.2748e-12 -6.32059e-11 4.25581e-11 5e-05 1.46608e-10 
49 1 0.0877358 0.017185 0.00742121 0.00572716 -0.000277448 0.000366447 9.64886e-13 -2.71375e-12 9.59095e-13 5e-05 1.46608e-10 
50 1 0.0818441 0.0176496 0.00722194 0.00602934 0.000168018 0.000302472 -6.73159e-11 -2.7618e-10 1.54218e-10 5e-05 1.46608e-10 
51 1 0.0818233 0.0175609 0.00726324 0.0060013 0.00017951 0.000301006 1.46484e-10 -5.29101e-11 1.0418e-10 5e-05 1.46608e-10 
52 1 0.0755852 0.0164892 0.00768865 0.00566003 0.00040692 -0.000685215 -1.85268e-10 7.99358e-12 3.66168e-10 5e-05 1.46608e-10 
53 1 0.0877988 0.0174576 0.00731314 0.00582822 -0.000286788 0.000374889 2.03001e-12 1.69369e-12 -7.40228e-13 5e-05 1.46608e-10 
54 1 0.0815961 0.0161712 0.00791661 0.00560869 0.000219329 0.000255754 -1.86886e-11 2.65563e-11 -2.06245e-11 5e-05 1.46608e-10 
55 1 0.0753859 0.015714 0.00828749 0.00596039 0.000577199 -0.000528346 4.14873e-11 5.53844e-11 -2.05792e-10 5e-05 1.46608e-10 
56 1 0.0817737 0.0169712 0.00754351 0.00548159 0.000265421 0.000225796 6.30046e-11 -2.41223e-11 1.61965e-11 5e-05 1.46608e-10 
57 1 0.0876963 0.0170027 0.00749356 0.0054283 -0.000229297 0.000333738 -1.91975e-11 1.519e-11 -7.0181e-12 5e-05 1.46608e-10 
59 1 0.0818489 0.0169133 0.0075762 0.00555215 0.000213931 0.000255165 5.45321e-11 -3.37095e-11 2.02831e-11 5e-05 1.46608e-10 
60 1 0.0818694 0.017002 0.00753487 0.00570767 0.000190056 0.000276657 6.60496e-11 -7.55168e-12 8.4194e-12 5e-05 1.46608e-10 
61 1 0.0815211 0.0162295 0.00788519 0.0056171 0.000221296 0.000256636 -4.60995e-12 3.3192e-12 4.81747e-13 5e-05 1.46608e-10 
62 1 0.0819731 0.0174454 0.0073284 0.0059565 0.000146971 0.000313518 -7.97611e-11 8.62617e-11 -5.57822e-11 5e-05 1.46608e-10 
63 1 0.0818701 0.0176511 0.0073185 0.00604589 0.000235221 0.000285012 3.45976e-10 -5.06281e-11 1.08492e-10 5e-05 1.46608e-10 
64 1 0.0878199 0.0175485 0.00727711 0.00586072 -0.000292682 0.000378823 -5.65801e-13 -4.538e-12 1.76615e-12 5e-05 1.46608e-10 
65 1 0.0758142 0.0173723 0.00726053 0.00578801 0.00153506 -0.000752588 -9.88159e-11 9.6067e-11 -2.99877e-10 5e-05 1.46608e-10 
66 1 0.0758474 0.0170641 0.00742009 0.00551003 0.000652224 -0.000292125 6.09669e-10 5.60526e-10 2.18714e-11 5e-05 1.46608e-10 
67 1 0.0820891 0.0175646 0.00727858 0.006007 0.000113807 0.000332448 -3.34754e-10 -7.70275e-12 -1.88085e-11 5e-05 1.46608e-10 
68 1 0.0820148 0.0176229 0.00724576 0.00602831 0.000150707 0.000315611 -3.06973e-10 3.9879e-11 -4.60506e-11 5e-05 1.46608e-10 
69 1 0.081695 0.0166156 0.00770939 0.00546129 0.000244557 0.000234579 8.64707e-11 -6.1226e-11 3.57044e-11 5e-05 1.46608e-10 
70 1 0.0878936 0.0178649 0.00713 0.00638431 0.00124641 -0.000964253 1.22825e-12 3.28833e-13 -2.23822e-13 5e-05 1.46608e-10 
71 1 0.0753683 0.01566 0.0083698 0.00586334 0.00056601 -0.000535626 -7.63141e-12 1.75703e-10 -1.98817e-10 5e-05 1.46608e-10 
72 1 0.0819938 0.0175341 0.00728711 0.00599792 0.000149756 0.000315073 5.80047e-11 9.06249e-11 -4.13677e-11 5e-05 1.46608e-10 
73 1 0.0816396 0.016762 0.00763543 0.00549156 0.00024162 0.000238009 5.21548e-12 4.51382e-11 -2.15694e-11 5e-05 1.46608e-10 
74 1 0.0818567 0.0173259 0.00737835 0.00592407 0.000200673 0.000285738 -2.99719e-11 -5.24788e-11 1.79871e-11 5e-05 1.46608e-10 
76 1 0.0758745 0.0173575 0.00718217 0.00585472 0.000668507 -0.000546638 4.75409e-11 2.31258e-10 1.83302e-10 5e-05 1.46608e-10 
77 1 0.0820886 0.0183045 0.00692288 0.0063249 6.80282e-05 0.000405956 4.98765e-10 6.89687e-10 2.91903e-12 5e-05 1.46608e-10 
78 1 0.0754472 0.0159409 0.00810143 0.00599487 0.000435022 -0.000729199 -3.24975e-11 -2.61961e-11 8.10691e-12 5e-05 1.46608e-10 
79 1 0.0757033 0.01683 0.0075585 0.0057458 0.00071578 -0.000274057 7.41043e-11 7.86916e-11 4.90541e-11 5e-05 1.46608e-10 
80 1 0.0819044 0.0179066 0.00710229 0.00615274 0.000153101 0.000322097 1.49569e-10 2.74278e-10 -5.16766e-11 5e-05 1.46608e-10 
81 1 0.0756403 0.0167521 0.00761258 0.00575471 0.000814228 -0.00033062 -8.86168e-12 1.99103e-10 1.06905e-10 5e-05 1.46608e-10 
82 1 0.0756625 0.0168115 0.00746542 0.00578889 0.000747159 -0.000305419 -5.37151e-11 -5.00942e-10 3.89969e-10 5e-05 1.46608e-10 
83 1 0.0757746 0.0165362 0.0076432 0.00577156 0.000336371 -0.000794466 -3.90052e-10 1.52491e-10 4.65865e-10 5e-05 1.46608e-10 
84 1 0.0879492 0.0181021 0.00701084 0.006499 0.0012086 -0.000952118 9.14698e-13 2.99356e-13 -1.8367e-13 5e-05 1.46608e-10 
85 1 0.0755624 0.0160418 0.00801925 0.00518005 0.000548093 -0.000758842 2.61711e-10 2.05849e-10 -1.69766e-10 5e-05 1.46608e-10 
86 1 0.0819191 0.017592 0.00725446 0.00602397 0.00018438 0.000300942 1.04291e-10 -9.72249e-12 1.91277e-12 5e-05 1.46608e-10 
87 1 0.0818289 0.0168245 0.0076176 0.00547409 0.00022573 0.000244507 7.67557e-12 -5.41214e-11 2.70688e-11 5e-05 1.46608e-10 
88 1 0.0819668 0.018173 0.00697826 0.00627033 0.000139842 0.000335791 -6.67021e-12 -3.83649e-11 6.39107e-11 5e-05 1.46608e-10 
89 1 0.0819252 0.0179954 0.00706092 0.0061969 0.000162203 0.000320651 1.78209e-10 3.36425e-10 -1.4386e-10 5e-05 1.46608e-10 
90 1 0.0821512 0.0174279 0.00734833 0.00594406 8.02754e-05 0.000344847 -5.06409e-11 1.00849e-10 -5.13235e-11 5e-05 1.46608e-10 
91 1 0.0756237 0.016646 0.00757066 0.00574696 0.000628058 -0.00048147 1.43645e-10 -2.93055e-10 7.50274e-10 5e-05 1.46608e-10 
92 1 0.0820583 0.0178 0.00716344 0.00613262 0.000148372 0.000322603 1.03278e-11 -2.0617e-10 1.03236e-10 5e-05 1.46608e-10 
93 1 0.0820478 0.0181223 0.00700782 0.006276 0.000144643 0.000334751 -2.50192e-11 -1.59703e-11 -1.675e-11 5e-05 1.46608e-10 
94 1 0.0821235 0.0180654 0.00704005 0.00623402 8.21297e-05 0.000361281 -1.67904e-10 -2.57026e-10 1.13355e-10 5e-05 1.46608e-10 
95 1 0.0818867 0.0178355 0.00717042 0.00606712 0.000154158 0.000315743 7.01949e-12 1.9033e-10 -8.28442e-11 5e-05 1.46608e-10 
96 1 0.0820778 0.0178889 0.00712196 0.0061785 0.000127739 0.000338676 -9.12707e-11 -2.20756e-10 9.51558e-11 5e-05 1.46608e-10 
97 1 0.0755466 0.0163323 0.00780667 0.00552412 0.000561065 -0.000792228 -9.72398e-11 -6.8196e-11 5.17439e-11 5e-05 1.46608e-10 
98 1 0.0819876 0.0182616 0.00693697 0.00631774 0.000162658 0.00033517 -9.1445e-11 3.21827e-11 -8.38044e-11 5e-05 1.46608e-10 
99 1 0.0758358 0.0171534 0.00737663 0.00557557 0.000676184 -0.000297016 -1.68968e-11 2.5012e-10 1.493e-10 5e-05 1.46608e-10 
100 1 0.0820267 0.0172986 0.00740245 0.00590819 0.000120058 0.000323331 -7.64121e-11 3.35922e-11 -2.11173e-11 5e-05 1.46608e-10 
101 1 0.0756629 0.0166676 0.00766104 0.00507767 0.000361275 -0.000823869 -2.72529e-10 4.52476e-11 -1.72293e-10 5e-05 1.46608e-10 
102 1 0.0643568 0.0187248 0.00531097 4.34518e-15 1.04972e-14 8.29562e-14 -3.54757e-22 1.67427e-22 -7.23783e-24 5e-05 1.46608e-10 
103 1 0.24257 0.0191927 0.00520306 9.7161e-23 4.86658e-23 1.23839e-22 0 0 0 5e-05 1.46608e-10 
104 1 0.0758925 0.0170371 0.00733502 0.00564937 0.000629367 -0.000234616 1.81262e-10 -1.84591e-10 8.90989e-11 5e-05 1.46608e-10 
105 1 0.0755071 0.0161757 0.00792459 0.00510068 0.000627447 -0.000811673 -2.55332e-10 2.95387e-11 -3.0338e-12 5e-05 1.46608e-10 
106 1 0.0759681 0.016982 0.00737019 0.00564007 0.000591901 -0.000206963 4.56727e-10 -1.94021e-10 9.39991e-11 5e-05 1.46608e-10 
107 1 0.0754675 0.0160191 0.00804251 0.00572007 0.000490131 -0.000751758 1.91425e-10 7.01146e-12 -2.14501e-11 5e-05 1.46608e-10 
108 1 0.0817343 0.0167933 0.00762649 0.00547523 0.000231495 0.00024183 -1.29473e-11 -1.09852e-10 4.97097e-11 5e-05 1.46608e-10 
109 1 0.0818025 0.0174722 0.00730453 0.00597282 0.000202832 0.000286935 -1.00046e-10 -1.78788e-10 6.13614e-11 5e-05 1.46608e-10 
110 1 0.0821779 0.0179193 0.0071138 0.0061899 0.000122138 0.000341374 1.90288e-10 -1.51359e-10 1.00579e-10 5e-05 1.46608e-10 
111 1 0.0820297 0.0184491 0.00691134 0.0062527 -0.000353706 -0.000574049 4.84778e-11 -1.54754e-11 -1.14067e-09 5e-05 1.46608e-10 
112 1 0.075566 0.0164107 0.00774769 0.0056688 0.000526449 -0.000777085 -8.69094e-11 -1.17077e-10 1.02996e-10 5e-05 1.46608e-10 
113 1 0.0762352 0.0173846 0.0071506 0.006 0.000183793 -0.000318491 -1.40003e-10 7.82462e-11 6.25676e-11 5e-05 1.46608e-10 
114 1 0.0759953 0.0172519 0.00731198 0.00566288 0.000549954 -0.000178608 -2.59242e-10 1.68675e-10 -4.36478e-11 5e-05 1.46608e-10 
115 1 0.0818776 0.0174146 0.00733704 0.00595377 0.000177073 0.000298956 -1.02557e-10 -1.11067e-10 4.07141e-11 5e-05 1.46608e-10 
116 1 0.0817147 0.0167044 0.00766794 0.00548262 0.000234562 0.000240826 -8.79064e-14 -2.08543e-11 6.86511e-12 5e-05 1.46608e-10 
117 1 0.0815759 0.0160825 0.00795798 0.00560943 0.000210418 0.000260827 -2.30949e-12 1.89761e-11 -1.38599e-12 5e-05 1.46608e-10 
118 1 0.0754062 0.0157863 0.00822144 0.00598776 0.000500468 -0.000623231 1.84378e-10 -2.72047e-10 -3.6389e-10 5e-05 1.46608e-10 
119 1 0.0818899 0.0170907 0.00749355 0.00579931 0.000177159 0.000288774 9.66024e-11 7.02277e-12 3.75431e-12 5e-05 1.46608e-10 
120 1 0.081421 0.0158227 0.00814763 0.00585808 -2.99803e-07 -6.06024e-05 -3.44393e-11 1.14191e-11 -6.66908e-11 5e-05 1.46608e-10 
121 1 0.0813837 0.0157173 0.00831346 0.0057471 8.82193e-07 -6.59413e-05 -2.70181e-12 2.01739e-11 -2.5932e-11 5e-05 1.46608e-10 
122 1 0.0822006 0.0180102 0.00707159 0.00619599 4.41211e-05 0.000378147 1.39891e-10 -3.37586e-10 1.66732e-10 5e-05 1.46608e-10 
123 1 0.0756021 0.0161984 0.00790135 0.00507304 0.000532937 -0.000740199 3.23271e-10 -2.16381e-10 1.47006e-10 5e-05 1.46608e-10 
124 1 0.0820037 0.0179545 0.00710741 0.00619755 0.000144486 0.000331387 7.79341e-11 -1.32104e-11 -1.65148e-11 5e-05 1.46608e-10 
125 1 0.081556 0.0159942 0.00800067 0.00560089 5.52983e-05 -1.5187e-05 -8.53721e-11 8.85481e-11 -6.24009e-11 5e-05 1.46608e-10 
126 1 0.081761 0.0172949 0.0073871 0.00589953 0.000231403 0.000269223 4.8275e-11 3.38403e-11 -5.15011e-12 5e-05 1.46608e-10 
127 1 0.075527 0.016254 0.00786565 0.00534443 0.000589929 -0.000800945 -4.271e-10 2.99738e-10 -1.9491e-10 5e-05 1.46608e-10 
128 1 0.0818649 0.0177383 0.00718065 0.00610046 0.000245691 0.000275371 1.41629e-11 1.33579e-10 -7.73037e-11 5e-05 1.46608e-10 
129 1 0.081946 0.0180843 0.00701955 0.00621063 8.95308e-05 0.000356222 3.64201e-11 6.84807e-11 -3.9923e-11 5e-05 1.46608e-10 
130 1 0.0757576 0.016841 0.00745235 0.00580763 0.00070411 -0.000291713 -1.41607e-10 -1.04835e-10 2.0172e-10 5e-05 1.46608e-10 
131 1 0.0759084 0.0172082 0.00733494 0.00565442 0.000581753 -0.000214445 -2.98705e-10 2.97487e-10 2.95701e-10 5e-05 1.46608e-10 
132 1 0.0819837 0.0178643 0.00714597 0.00615169 0.000165002 0.000313069 -3.37678e-11 -1.81698e-10 1.40281e-10 5e-05 1.46608e-10 
133 1 0.0817505 0.016469 0.00778342 0.00545817 0.000235569 0.000238731 -8.23635e-11 7.80332e-11 -4.31235e-11 5e-05 1.46608e-10 
134 1 0.0819107 0.0171794 0.00745226 0.00584815 0.000168511 0.000296158 6.15057e-11 2.05207e-11 -5.4348e-12 5e-05 1.46608e-10 
135 1 0.0815356 0.0159091 0.00804962 0.00562858 8.00106e-05 -3.07463e-05 -1.58636e-11 1.5814e-10 -1.21785e-10 5e-05 1.46608e-10 
136 1 0.0755425 0.0159635 0.00807828 0.00601095 0.000759545 -0.000971276 2.00152e-10 -1.34148e-10 8.91224e-11 5e-05 1.46608e-10 
137 1 0.0820505 0.0185456 0.00692769 0.00620457 -0.000291434 -0.000620975 -7.39752e-11 -3.31072e-10 -3.83725e-11 5e-05 1.46608e-10 
138 1 0.0816755 0.0165267 0.00775086 0.00545042 0.00025321 0.000229703 -1.86705e-11 -7.92719e-11 3.77358e-11 5e-05 1.46608e-10 
140 1 0.0821422 0.0181544 0.00699848 0.00623287 5.51658e-05 0.000375972 4.03769e-11 -1.43813e-10 8.47709e-11 5e-05 1.46608e-10 
141 1 0.0755822 0.0161201 0.0079603 0.0049102 0.000585447 -0.000767933 -3.40376e-10 2.55076e-10 -1.66704e-10 5e-05 1.46608e-10 
142 1 0.0758523 0.0168689 0.00743553 0.00571888 0.000636305 -0.000250014 -9.61044e-10 -3.30636e-10 2.53025e-10 5e-05 1.46608e-10 
143 1 0.0754873 0.0160974 0.00798355 0.00522837 0.000592548 -0.000795004 -5.56414e-11 2.1579e-11 -1.87183e-11 5e-05 1.46608e-10 
144 1 0.0759962 0.0173451 0.00725255 0.00577394 0.000623699 -0.000231012 2.73131e-10 5.94742e-11 9.51097e-11 5e-05 1.46608e-10 
146 1 0.0758694 0.016561 0.0076218 0.00569538 0.000720754 -0.000292157 -3.09704e-10 3.13632e-10 -1.21949e-10 5e-05 1.46608e-10 
147 1 0.075522 0.0158851 0.00813734 0.00609943 0.000534117 -0.000810579 3.50338e-12 -2.84317e-11 2.68692e-11 5e-05 1.46608e-10 
148 1 0.0757213 0.017064 0.00731445 0.00580968 0.00070006 -0.000287209 -1.39759e-10 -3.0519e-10 2.15298e-10 5e-05 1.46608e-10 
149 1 0.0821096 0.0183949 0.00688556 0.00620087 -0.000356021 -0.000654413 -7.39919e-10 -3.75518e-10 4.06212e-10 5e-05 1.46608e-10 
150 1 0.0756798 0.0165121 0.00766563 0.00579858 0.000429561 -0.000659862 4.11711e-11 2.68117e-10 -4.33866e-11 5e-05 1.46608e-10 
151 1 0.0760645 0.0170125 0.00735421 0.00575794 0.000596604 -0.000211077 -3.67711e-10 1.96952e-10 -1.21694e-10 5e-05 1.46608e-10 
153 1 0.0756411 0.0163552 0.00778339 0.00553974 0.000430325 -0.000698308 3.776e-11 8.78639e-11 -6.43782e-11 5e-05 1.46608e-10 
154 1 0.0758169 0.0170923 0.00729976 0.00566451 0.000680893 -0.000288305 7.87118e-11 2.21196e-11 -4.3054e-11 5e-05 1.46608e-10 
155 1 0.0758937 0.0174549 0.00717001 0.00595674 0.000574821 -0.00124184 9.32927e-11 1.27792e-10 -6.14353e-10 5e-05 1.46608e-10 
156 1 0.0757974 0.0170088 0.00735105 0.00570438 0.000700648 -0.000299495 5.50699e-10 -1.1876e-10 1.08014e-10 5e-05 1.46608e-10 
157 1 0.0219312 0.0187687 0.00551176 -3.82577e-14 8.17213e-14 2.95882e-13 -1.06011e-21 -4.91914e-22 -2.06795e-25 5e-05 1.46608e-10 
158 1 0.0759118 0.0171213 0.00728467 0.00570176 0.000607449 -0.000224872 -2.36985e-11 1.06687e-10 -1.52107e-10 5e-05 1.46608e-10 
159 1 0.0820364 0.0177115 0.00720456 0.00608256 0.00017497 0.000301633 -2.69303e-10 -7.97223e-11 -2.09467e-12 5e-05 1.46608e-10 
160 1 0.0757987 0.0174228 0.0071754 0.00604714 0.000653521 -0.000317812 -1.01256e-10 -1.25103e-10 -2.361e-11 5e-05 1.46608e-10 
162 1 0.0758362 0.0171766 0.00724947 0.00574856 0.000665941 -0.000292415 -2.15072e-10 -2.105e-10 -9.79817e-11 5e-05 1.46608e-10 
164 1 0.076054 0.0177786 0.00715304 0.00615996 0.00052038 -0.000339927 5.17039e-11 -3.69323e-11 3.67028e-11 5e-05 1.46608e-10 
165 1 0.0761201 0.0172656 0.00720278 0.00573506 0.000406045 -9.9735e-05 2.22583e-10 -1.10415e-10 1.329e-10 5e-05 1.46608e-10 
166 1 0.0817108 0.016291 0.00786645 0.00560518 0.000216003 0.000257569 5.53982e-11 4.95373e-12 9.29433e-13 5e-05 1.46608e-10 
167 1 0.0756605 0.0164335 0.0077244 0.00571806 0.00041146 -0.000691267 -3.42957e-11 1.79538e-10 -7.14616e-11 5e-05 1.46608e-10 
168 1 0.0759875 0.0170663 0.00731979 0.00571254 0.000577764 -0.000205998 -2.18658e-10 2.59855e-10 -1.87889e-10 5e-05 1.46608e-10 
169 1 0.0761814 0.0175478 0.00715049 0.00604662 0.000331537 -0.000325485 -4.08435e-10 3.49361e-11 3.51192e-11 5e-05 1.46608e-10 
170 1 0.0760256 0.0172366 0.00721792 0.00571881 0.000516615 -0.000169354 2.08866e-10 -3.20605e-10 -7.23559e-11 5e-05 1.46608e-10 
171 1 0.0817308 0.01638 0.00782492 0.00556507 0.000361861 0.000184901 8.90324e-12 6.88408e-11 -3.27295e-11 5e-05 1.46608e-10 
172 1 0.0761011 0.0171813 0.0072532 0.00559646 0.00043176 -0.000122799 5.15102e-10 -6.91942e-10 5.47427e-10 5e-05 1.46608e-10 
173 1 0.0822068 0.0176832 0.00722917 0.006096 0.000126131 0.000332569 2.91098e-10 -2.82457e-10 1.52299e-10 5e-05 1.46608e-10 
174 1 0.0759489 0.0172906 0.00718342 0.00582079 0.000614404 -0.000230114 2.73532e-11 7.968e-11 -8.9798e-11 5e-05 1.46608e-10 
175 1 0.0697412 0.0171543 0.00726804 0.0055507 -0.000546868 0.000227485 1.2717e-11 2.97316e-11 -3.14957e-11 5e-05 1.46608e-10 
176 1 0.0757768 0.0169242 0.00740026 0.00579458 0.000706114 -0.000289705 -1.61396e-10 -2.12804e-10 3.42891e-10 5e-05 1.46608e-10 
177 1 0.0758396 0.0176184 0.00716731 0.00624871 0.000588598 -0.000342373 2.18906e-10 1.87389e-10 -1.28886e-10 5e-05 1.46608e-10 
178 1 0.0762148 0.0172941 0.00718798 0.0057482 0.000344596 -6.76379e-05 3.41976e-11 7.38957e-11 -6.93403e-11 5e-05 1.46608e-10 
179 1 0.0761598 0.0174502 0.0071534 0.00611171 0.000326752 -0.000336116 -6.24181e-11 1.9423e-10 -8.10621e-11 5e-05 1.46608e-10 
181 1 0.0757612 0.0172389 0.0072273 0.00579756 0.000723346 -0.000277205 -9.12038e-11 -5.6409e-11 4.71281e-10 5e-05 1.46608e-10 
182 1 0.0816559 0.0164378 0.00779234 0.0054598 0.000246282 0.000233651 -8.35948e-11 -9.49329e-12 -5.88087e-13 5e-05 1.46608e-10 
183 1 0.076006 0.0171509 0.00726915 0.00566165 0.000552954 -0.000188197 2.16684e-10 2.00097e-10 -1.06084e-10 5e-05 1.46608e-10 
184 1 0.0820016 0.0178325 0.0072391 0.00610731 0.000151853 0.000302439 2.80485e-10 -1.50129e-10 2.35339e-10 5e-05 1.46608e-10 
185 1 0.0757017 0.0169799 0.00736477 0.005797 0.000694029 -0.000280117 -1.89131e-10 -3.06476e-10 1.97817e-10 5e-05 1.46608e-10 
186 1 0.0757409 0.0171482 0.00726413 0.00581222 0.000708194 -0.000285792 -9.90821e-11 -3.8767e-10 3.13904e-10 5e-05 1.46608e-10 
187 1 0.0820059 0.0172099 0.00744374 0.00586499 0.000123155 0.000318963 -1.30597e-11 2.73139e-11 -1.39236e-11 5e-05 1.46608e-10 
188 1 0.0820711 0.0182201 0.00697352 0.00627377 6.40115e-05 0.000374978 2.72429e-10 3.26416e-10 -3.24163e-10 5e-05 1.46608e-10 
189 1 0.0820475 0.0173873 0.00736116 0.00593787 0.000119118 0.000325653 -1.29761e-10 2.83609e-11 -2.41468e-11 5e-05 1.46608e-10 
190 1 0.0698494 0.0172659 0.0071945 0.00551317 -0.000496377 0.000222196 7.11415e-12 1.31351e-11 -1.80361e-11 5e-05 1.46608e-10 
191 1 0.082071 0.0186411 0.00694915 0.0061753 -0.000248811 -0.000619045 -1.35975e-11 -2.09352e-10 -2.46788e-10 5e-05 1.46608e-10 
192 1 0.0759279 0.0168138 0.00747072 0.00578516 0.000692068 -0.000269102 -5.32489e-10 4.12533e-10 -2.65214e-10 5e-05 1.46608e-10 
193 1 0.0818092 0.0167356 0.00765905 0.00548414 0.000222856 0.000246481 -5.09337e-11 -4.31462e-11 2.06276e-11 5e-05 1.46608e-10 
194 1 0.0757939 0.0166163 0.00758655 0.00569517 0.000714739 -0.000277693 -1.648e-11 1.94595e-11 -2.70482e-11 5e-05 1.46608e-10 
195 1 0.0761383 0.0173523 0.00715632 0.00580794 0.000230806 -0.000306048 1.03644e-10 2.26181e-10 5.20501e-10 5e-05 1.46608e-10 
196 1 0.075308 0.0154983 0.00861516 0.00635337 0.000502488 -0.000398432 5.87158e-11 1.7739e-10 -2.61304e-10 5e-05 1.46608e-10 
197 1 0.0697996 0.0174367 0.00719028 0.00552286 -0.000556282 0.000224945 1.30082e-10 -2.43956e-11 -2.14727e-11 5e-05 1.46608e-10 
198 1 0.0756805 0.0169161 0.00751298 0.00582945 0.000725248 -0.000276899 -8.05905e-11 8.38177e-11 -2.91458e-11 5e-05 1.46608e-10 
199 1 0.0758546 0.0172609 0.00719895 0.00580044 0.000680025 -0.000272721 -5.28098e-11 -1.60051e-11 -8.93813e-12 5e-05 1.46608e-10 
200 1 0.075643 0.0167273 0.00751575 0.00574537 0.000760094 -0.000308264 2.73172e-11 -4.81935e-10 3.4482e-10 5e-05 1.46608e-10 
201 1 0.0761496 0.0178091 0.00714742 0.00606538 0.000384369 -0.000328147 -2.05745e-11 -1.19709e-10 1.39581e-11 5e-05 1.46608e-10 
202 1 0.0759486 0.0168978 0.00742051 0.00557012 0.000596979 -0.00022136 1.4005e-10 -1.97854e-10 9.69411e-11 5e-05 1.46608e-10 
203 1 0.0820683 0.0174759 0.00731987 0.00596654 0.000114975 0.000329229 -1.30182e-10 2.2971e-12 -1.27125e-11 5e-05 1.46608e-10 
204 1 0.0757185 0.0166732 0.00755366 0.00570555 0.000651046 -0.000409001 5.37575e-11 -3.1752e-11 -2.30425e-10 5e-05 1.46608e-10 
205 1 0.0760108 0.0175835 0.00715887 0.00623424 0.000516078 -0.000340559 -1.99623e-11 9.82124e-11 -6.79518e-11 5e-05 1.46608e-10 
206 1 0.0759684 0.0173881 0.00716665 0.00593595 0.000527737 -0.00037774 1.33366e-10 1.97099e-10 3.27292e-10 5e-05 1.46608e-10 
207 1 0.0756217 0.0162768 0.00784237 0.00538227 0.000456547 -0.000705206 -1.81489e-10 6.53523e-11 -4.71022e-11 5e-05 1.46608e-10 
208 1 0.0759306 0.0172081 0.00723692 0.0057434 0.000627272 -0.000240019 3.3585e-11 7.78446e-11 -1.51928e-10 5e-05 1.46608e-10 
209 1 0.0756991 0.0165912 0.00760758 0.00576797 0.000517625 -0.000572799 -1.78749e-10 1.17733e-10 -2.40491e-10 5e-05 1.46608e-10 
210 1 0.0818082 0.0173856 0.00744223 0.00592991 0.000219139 0.000276897 -5.40932e-11 -1.44976e-10 6.46615e-11 5e-05 1.46608e-10 
211 1 0.0821027 0.0179776 0.00708308 0.00620439 0.000113935 0.000347799 7.09525e-11 -1.84229e-10 9.60836e-11 5e-05 1.46608e-10 
212 1 0.0760427 0.0173212 0.00716731 0.00587048 0.000497067 -0.00014785 1.29868e-10 3.26069e-11 -7.71168e-11 5e-05 1.46608e-10 
213 1 0.0819852 0.0171212 0.00748502 0.00581409 0.000129006 0.000312877 4.60729e-11 2.36442e-11 -8.76821e-12 5e-05 1.46608e-10 
214 1 0.0820263 0.0180328 0.00704948 0.00621215 0.0001178 0.000343941 -1.28946e-11 -7.71178e-11 1.02257e-10 5e-05 1.46608e-10 
215 1 0.0698175 0.0171004 0.00730373 0.00554902 -0.000550262 0.0002291 -4.78741e-11 -8.63423e-12 1.4722e-11 5e-05 1.46608e-10 
216 1 0.075818 0.0175208 0.00717022 0.00626327 0.000593203 -0.000338977 2.3911e-10 2.51836e-11 -5.24688e-12 5e-05 1.46608e-10 
217 1 0.0817701 0.0165579 0.00774196 0.00546511 0.000228592 0.00024249 -5.95255e-11 4.32169e-11 -2.48024e-11 5e-05 1.46608e-10 
218 1 0.0759363 0.0176501 0.00716161 0.00625279 0.00056781 -0.000340037 1.88582e-12 4.69414e-11 -2.94243e-11 5e-05 1.46608e-10 
219 1 0.0820087 0.0183588 0.00694863 0.00627654 5.03906e-05 0.000514074 2.68699e-10 9.12351e-10 7.55141e-11 5e-05 1.46608e-10 
220 1 0.0757801 0.0173247 0.00717951 0.00582544 0.000704183 -0.000280536 -1.99121e-11 -2.15801e-11 1.51733e-10 5e-05 1.46608e-10 
221 1 0.0697589 0.0168598 0.0074742 0.00548567 -0.00054318 0.000226181 -4.26145e-11 -7.60688e-12 9.96436e-12 5e-05 1.46608e-10 
222 1 0.0817897 0.0166468 0.0077005 0.0054769 0.00022365 0.000245611 2.45652e-13 -3.16665e-11 1.51634e-11 5e-05 1.46608e-10 
223 1 0.0758729 0.0169529 0.00738534 0.00563182 0.000647683 -0.000247771 1.47025e-10 -3.75452e-10 3.18239e-10 5e-05 1.46608e-10 
224 1 0.0756821 0.0168957 0.0074151 0.00580552 0.000714656 -0.000283545 -1.13591e-10 -6.01808e-12 4.67332e-12 5e-05 1.46608e-10 
225 1 0.0822499 0.0178587 0.00714757 0.00609854 4.97603e-05 0.000368985 1.69416e-10 -1.54446e-10 7.98208e-11 5e-05 1.46608e-10 
226 1 0.0760828 0.017097 0.00730366 0.00558282 0.000473548 -0.000147641 1.09247e-10 6.1443e-11 6.97979e-12 5e-05 1.46608e-10 
227 1 0.0699491 0.0172722 0.00719833 0.0055047 -0.000399843 0.00022117 9.21472e-12 1.26714e-10 -1.19223e-12 5e-05 1.46608e-10 
228 1 0.0697607 0.0172473 0.0072367 0.00552759 -0.000549563 0.000224138 5.37091e-12 -1.6278e-12 -2.20488e-11 5e-05 1.46608e-10 
229 1 0.0758397 0.0172704 0.00729737 0.00574656 0.000649615 -0.000278055 2.11902e-10 4.88874e-12 7.85347e-12 5e-05 1.46608e-10 
230 1 0.0760971 0.0179739 0.00714721 0.00612994 0.000511663 -0.000332943 3.01479e-10 1.8794e-11 2.881e-11 5e-05 1.46608e-10 
231 1 0.0697222 0.0170742 0.00732479 0.0055416 -0.000542878 0.000224358 -6.49008e-12 4.25875e-11 -1.83269e-11 5e-05 1.46608e-10 
232 1 0.0757553 0.0164568 0.00770081 0.00577897 0.000408584 -0.000686792 -3.11951e-10 -6.2102e-11 1.36481e-10 5e-05 1.46608e-10 
233 1 0.075833 0.0167846 0.00748593 0.00578542 0.000680843 -0.00026093 3.99357e-10 2.18435e-10 -9.87959e-11 5e-05 1.46608e-10 
234 1 0.0821658 0.0182493 0.0069544 0.00637755 5.94704e-05 0.000391472 2.17014e-10 -2.08765e-10 6.72886e-11 5e-05 1.46608e-10 
235 1 0.0761403 0.0181691 0.00714137 0.00613358 0.000515903 -0.000334136 -6.20158e-11 -1.2065e-10 -2.04652e-12 5e-05 1.46608e-10 
236 1 0.0761187 0.0180715 0.00714429 0.00612783 0.000508945 -0.000334874 1.06517e-10 -6.84404e-13 5.32934e-12 5e-05 1.46608e-10 
237 1 0.0762139 0.0181015 0.0071387 0.00613537 0.000506452 -0.000333918 9.60702e-11 2.73787e-11 -9.5168e-12 5e-05 1.46608e-10 
239 1 0.069548 0.0163701 0.0078559 0.00535728 -0.000307039 0.00042037 -2.5768e-11 2.46163e-11 -2.13147e-11 5e-05 1.46608e-10 
240 1 0.0696057 0.0166009 0.00767316 0.00542867 -0.000324609 0.000437275 -1.64348e-11 -2.56394e-11 2.20909e-11 5e-05 1.46608e-10 
241 1 0.0695285 0.0162932 0.00791677 0.0054694 -0.00032165 0.000435643 7.7322e-12 3.30286e-11 -2.56624e-11 5e-05 1.46608e-10 
242 1 0.0758131 0.0167014 0.0075377 0.00575982 0.000697307 -0.000254355 3.74293e-10 9.27463e-11 -7.34662e-11 5e-05 1.46608e-10 
243 1 0.0757287 0.0169876 0.00746075 0.00578405 0.000693285 -0.000285118 -2.45781e-10 5.20948e-10 1.56762e-10 5e-05 1.46608e-10 
244 1 0.0695672 0.0164471 0.00779497 0.00535971 -0.000309201 0.000422189 -2.68071e-12 4.4201e-12 -3.57924e-12 5e-05 1.46608e-10 
246 1 0.069684 0.0169192 0.00744488 0.00549645 -0.000529972 0.000215562 -7.53492e-12 -1.49664e-12 -2.96043e-12 5e-05 1.46608e-10 
247 1 0.0760324 0.0176811 0.00715596 0.00620694 0.000514701 -0.000336233 -1.62351e-10 3.04059e-11 2.49403e-11 5e-05 1.46608e-10 