ITEM: TIMESTEP
49400000
ITEM: NUMBER OF ATOMS
275
ITEM: BOX BOUNDS ff ff ff
-0.02 0.43
-0.02 0.06
-0.02 0.07
ITEM: ATOMS id type x y z vx vy vz fx fy fz radius mass 
1 1 0.30132 0.0182917 0.00694677 0.00553112 -0.000449309 0.000177099 2.10247e-10 -9.19677e-11 1.1956e-11 5e-05 1.46608e-10 
2 1 0.300991 0.0171431 0.00727479 0.00573721 -0.000340257 0.00027918 7.24962e-11 1.07815e-10 -4.15128e-11 5e-05 1.46608e-10 
4 1 0.301141 0.0170239 0.00733266 0.00570159 -0.000371014 0.000292491 1.02824e-10 -2.00169e-11 9.40011e-12 5e-05 1.46608e-10 
5 1 0.30052 0.015492 0.00872551 0.00549876 -0.000276233 0.00018643 2.34198e-11 -2.17598e-11 5.32287e-11 5e-05 1.46608e-10 
6 1 0.30689 0.0167211 0.0075356 0.00629142 0.000260589 3.66369e-05 4.15119e-11 1.53123e-10 -1.00679e-10 5e-05 1.46608e-10 
7 1 0.301278 0.0176501 0.00704852 0.00561443 -0.000427826 0.000323265 -2.09952e-10 -1.93472e-11 1.66657e-11 5e-05 1.46608e-10 
8 1 0.300985 0.0167268 0.00746552 0.00564822 -0.00035076 0.000282026 -2.01678e-11 5.35521e-11 -3.9019e-11 5e-05 1.46608e-10 
9 1 0.307086 0.0175759 0.00707872 0.00570653 0.000247911 -0.000182204 -1.41812e-10 3.30186e-11 -3.08146e-11 5e-05 1.46608e-10 
10 1 0.300669 0.0158867 0.00830319 0.00589218 -0.000492276 0.000224594 9.72954e-11 -1.45215e-10 8.04479e-11 5e-05 1.46608e-10 
11 1 0.30122 0.017979 0.00704639 0.00551454 -0.000422286 0.000149965 -2.5578e-11 -2.66842e-11 1.33628e-10 5e-05 1.46608e-10 
12 1 0.295182 0.0169059 0.00768251 0.00622406 0.00062361 -0.00117567 2.03834e-10 -2.17278e-10 6.79023e-11 5e-05 1.46608e-10 
13 1 0.300501 0.0154239 0.00879609 0.00547233 -0.000262902 0.000163188 1.38728e-11 -3.66215e-11 9.03501e-11 5e-05 1.46608e-10 
14 1 0.295144 0.0174308 0.00718908 0.00572483 0.000561105 -0.00106769 -6.15156e-11 -5.12688e-11 -4.00322e-10 5e-05 1.46608e-10 
16 1 0.295334 0.0179106 0.00700889 0.00580284 0.00124225 -0.000154336 -2.4558e-10 -4.17742e-11 -1.85966e-10 5e-05 1.46608e-10 
17 1 0.300623 0.0158274 0.00836945 0.00584825 -0.000470379 0.000201562 -7.4988e-12 -1.02309e-10 7.84779e-11 5e-05 1.46608e-10 
19 1 0.300481 0.0153558 0.00886667 0.00547434 -0.000251945 0.00015232 1.67023e-11 -2.76102e-11 4.22516e-11 5e-05 1.46608e-10 
21 1 0.301317 0.0178361 0.00698481 0.00552135 -0.000422986 -8.57947e-05 -1.44043e-10 1.24163e-10 -8.91296e-11 5e-05 1.46608e-10 
22 1 0.300988 0.0165624 0.00757206 0.00558688 -0.000444231 0.00018955 -3.64522e-11 2.19905e-11 8.35944e-11 5e-05 1.46608e-10 
23 1 0.295366 0.0176537 0.00705728 0.0059053 0.00125881 -0.000120505 3.29738e-10 -6.63511e-11 3.19966e-12 5e-05 1.46608e-10 
24 1 0.307007 0.0172029 0.0071979 0.00580173 0.000161773 -0.000247711 5.32561e-11 4.4478e-11 -1.51435e-10 5e-05 1.46608e-10 
25 1 0.300685 0.0160221 0.00815928 0.00592269 -0.000496347 0.000232549 6.96504e-11 -2.59907e-10 1.75266e-10 5e-05 1.46608e-10 
26 1 0.307046 0.0173872 0.00713175 0.00568619 0.000315305 4.92795e-05 1.1433e-10 5.07462e-11 -5.75172e-11 5e-05 1.46608e-10 
27 1 0.294982 0.0168546 0.00773229 0.00617135 0.000842013 -0.000877009 9.86444e-11 -2.5778e-10 2.40468e-10 5e-05 1.46608e-10 
28 1 0.301066 0.0170835 0.00730371 0.00571213 -0.000359898 0.000288056 6.6845e-11 2.22991e-12 4.14453e-11 5e-05 1.46608e-10 
29 1 0.300461 0.0152877 0.00893726 0.00546638 -0.000241265 0.000136914 1.10871e-10 9.19241e-11 -1.1119e-10 5e-05 1.46608e-10 
30 1 0.30077 0.0162896 0.00787436 0.00612095 -0.000551244 0.000269693 6.64895e-11 9.87793e-11 -8.87989e-11 5e-05 1.46608e-10 
31 1 0.301354 0.017591 0.00707724 0.00557253 -0.000489976 0.000338183 -4.23892e-11 3.97218e-10 -9.58605e-11 5e-05 1.46608e-10 
32 1 0.300709 0.016088 0.00808809 0.00593975 -0.000507058 0.000237009 2.83857e-10 -2.08556e-10 1.95567e-10 5e-05 1.46608e-10 
33 1 0.306912 0.0168023 0.00748138 0.00596089 0.000320624 -1.57944e-05 -2.04734e-10 8.55649e-11 -7.11394e-11 5e-05 1.46608e-10 
34 1 0.300602 0.0157602 0.00844041 0.00581199 -0.000459773 0.000186598 -2.41549e-10 -1.33047e-10 1.55028e-10 5e-05 1.46608e-10 
35 1 0.30124 0.0174713 0.00712963 0.00540157 -0.000386592 0.000296036 4.50902e-11 1.08898e-10 -6.82681e-11 5e-05 1.46608e-10 
36 1 0.307145 0.0178615 0.00700889 0.00578076 0.000243012 -0.000181357 -1.57315e-11 -8.51821e-11 2.1324e-11 5e-05 1.46608e-10 
37 1 0.301121 0.0169346 0.00737316 0.0056393 -0.000389154 0.000300165 1.5015e-10 -8.83075e-11 3.78387e-11 5e-05 1.46608e-10 
38 1 0.301201 0.0172922 0.00721094 0.00555219 2.18428e-05 0.000109611 -1.14293e-10 -5.84797e-10 1.39441e-10 5e-05 1.46608e-10 
39 1 0.307027 0.0172936 0.00716098 0.00567672 0.000316348 4.57721e-05 2.44319e-11 1.26798e-10 -7.11886e-11 5e-05 1.46608e-10 
41 1 0.30056 0.0156273 0.00858378 0.00575755 -0.000406973 0.000177382 -1.6594e-10 5.09791e-11 2.88381e-10 5e-05 1.46608e-10 
42 1 0.301236 0.0170534 0.00732119 0.00580426 -0.000346073 0.000283792 3.07645e-10 -3.13703e-10 1.4589e-10 5e-05 1.46608e-10 
44 1 0.301296 0.0173225 0.00719908 0.00558119 -4.48212e-05 0.000141055 -9.87023e-12 3.66165e-13 1.04825e-11 5e-05 1.46608e-10 
45 1 0.306931 0.0168839 0.0074268 0.00577374 0.000345372 -3.79583e-05 -1.01558e-10 -5.44367e-11 1.17712e-11 5e-05 1.46608e-10 
47 1 0.300582 0.0156936 0.00851202 0.00579383 -0.00045646 0.000164841 1.33614e-10 -1.47952e-10 2.45804e-10 5e-05 1.46608e-10 
48 1 0.301186 0.0180632 0.00695232 0.005527 -0.000430571 0.00017858 -6.17403e-12 -3.58701e-11 3.93564e-11 5e-05 1.46608e-10 
49 1 0.307106 0.0176711 0.00705544 0.00574204 0.00024183 -0.00017697 1.44755e-11 -2.38558e-11 -8.30373e-12 5e-05 1.46608e-10 
50 1 0.300728 0.0161552 0.00801626 0.00598801 -0.000520409 0.000247288 2.03808e-10 -5.50215e-11 5.63749e-12 5e-05 1.46608e-10 
51 1 0.301373 0.0176803 0.0070367 0.00545474 -0.000401017 0.000295352 9.12033e-12 -1.51322e-10 8.24997e-11 5e-05 1.46608e-10 
52 1 0.295245 0.017116 0.00747792 0.00608871 0.000675664 -0.0011837 2.3604e-10 -1.73644e-10 2.06953e-10 5e-05 1.46608e-10 
53 1 0.306969 0.0170465 0.00731687 0.00586657 0.000140835 -0.000260975 1.05474e-11 -2.72171e-12 -4.76316e-12 5e-05 1.46608e-10 
54 1 0.301526 0.0179963 0.00696481 0.00551486 -0.000402189 0.000174612 -2.10908e-11 -7.77362e-11 5.914e-12 5e-05 1.46608e-10 
55 1 0.295169 0.0171665 0.00743696 0.00612702 0.000599428 -0.0011185 7.53998e-11 -4.86639e-11 5.40824e-11 5e-05 1.46608e-10 
56 1 0.301506 0.017898 0.00696828 0.00552953 -0.000384873 0.000172288 5.61695e-11 -2.94971e-11 2.72069e-11 5e-05 1.46608e-10 
57 1 0.30695 0.0169655 0.00737222 0.00578653 0.000327838 -3.37484e-05 -9.19768e-11 -1.182e-10 1.01333e-10 5e-05 1.46608e-10 
59 1 0.378022 0.019866 0.005332 -5.01935e-15 -7.41217e-15 7.69802e-14 2.53324e-24 -5.42837e-24 -4.1359e-25 5e-05 1.46608e-10 
60 1 0.301315 0.0174121 0.00715842 0.00548156 -0.000330704 0.000270458 9.96201e-11 -2.93681e-11 2.97064e-11 5e-05 1.46608e-10 
61 1 0.30054 0.01556 0.00865493 0.00559554 -0.00031048 0.000203333 -1.26189e-11 -5.29381e-11 7.12488e-11 5e-05 1.46608e-10 
62 1 0.30122 0.0173818 0.0071703 0.00545129 -0.000177268 0.000196358 3.40748e-11 2.74022e-10 -1.83068e-10 5e-05 1.46608e-10 
63 1 0.30127 0.0182783 0.00703253 0.00552949 -0.000445418 0.000176748 1.27851e-10 -1.38515e-10 -8.39126e-12 5e-05 1.46608e-10 
64 1 0.306988 0.0171247 0.00725738 0.00587215 0.000135656 -0.000262283 7.25023e-11 1.37262e-10 4.14875e-11 5e-05 1.46608e-10 
65 1 0.295204 0.0173081 0.00729982 0.00572155 0.000638876 -0.00113474 -7.24977e-11 5.12456e-10 2.48132e-10 5e-05 1.46608e-10 
66 1 0.295379 0.0178646 0.00710453 0.00580837 0.00124764 -0.000115047 2.25027e-10 -1.0841e-10 -7.8348e-11 5e-05 1.46608e-10 
67 1 0.301336 0.0179316 0.00696203 0.00551543 -0.00041286 0.000173535 -6.32126e-11 -2.81183e-11 -3.48454e-12 5e-05 1.46608e-10 
68 1 0.301126 0.0173515 0.00718212 0.00543202 -0.000132908 0.000161232 -1.21221e-10 -1.22587e-10 3.24134e-11 5e-05 1.46608e-10 
69 1 0.301411 0.0178661 0.00697113 0.0055376 -0.000424073 -8.47183e-05 -9.41236e-11 -1.37299e-10 -7.1408e-11 5e-05 1.46608e-10 
70 1 0.307066 0.0174808 0.00710251 0.00570782 0.00030419 4.71754e-05 -2.74426e-11 5.28213e-12 4.18739e-11 5e-05 1.46608e-10 
71 1 0.295502 0.0178767 0.00700586 0.00580948 0.00119785 -0.000111515 3.25724e-14 2.74119e-11 -5.81693e-11 5e-05 1.46608e-10 
72 1 0.301395 0.0182258 0.00695163 0.00553285 -0.000434495 0.00017624 2.51972e-10 -2.71894e-11 8.3028e-12 5e-05 1.46608e-10 
73 1 0.300664 0.0159554 0.00823074 0.00593763 -0.000492513 0.00022878 -1.97045e-10 -1.4125e-10 1.6809e-10 5e-05 1.46608e-10 
74 1 0.300749 0.0162216 0.00794475 0.00605489 -0.000537662 0.000261432 -3.2406e-10 1.02817e-10 -1.04929e-10 5e-05 1.46608e-10 
76 1 0.2951 0.0169502 0.00764541 0.00619452 0.000829767 -0.000850297 5.68875e-10 -5.70903e-10 -1.1755e-10 5e-05 1.46608e-10 
77 1 0.301011 0.0172323 0.00723436 0.00576849 -0.000347214 0.000273367 9.89358e-11 1.71329e-10 -1.24054e-11 5e-05 1.46608e-10 
78 1 0.29452 0.0155921 0.00885573 0.00587672 0.000881841 -0.000902443 -7.53885e-11 -2.06791e-10 1.8979e-10 5e-05 1.46608e-10 
79 1 0.295402 0.0182169 0.00696082 0.00581166 0.00121739 -0.000592037 -1.79457e-11 8.30189e-11 7.38269e-11 5e-05 1.46608e-10 
80 1 0.301086 0.0171727 0.00726324 0.00578219 -0.000347961 0.000282611 1.26392e-10 -1.91029e-11 3.13429e-11 5e-05 1.46608e-10 
82 1 0.295259 0.0178116 0.00710551 0.00588986 0.0012587 -8.91081e-05 2.28201e-10 -9.10278e-11 -6.79514e-11 5e-05 1.46608e-10 
83 1 0.295203 0.0169758 0.00761438 0.00628559 0.000622509 -0.00116649 2.73631e-10 -5.4145e-11 6.60641e-11 5e-05 1.46608e-10 
84 1 0.307126 0.0177663 0.00703217 0.00576238 0.000242254 -0.000180528 -4.18195e-11 -7.47179e-11 2.47017e-11 5e-05 1.46608e-10 
85 1 0.295538 0.0180734 0.00695782 0.00581485 0.00128942 -0.000135462 -8.19028e-11 1.45278e-11 6.99653e-12 5e-05 1.46608e-10 
86 1 0.301276 0.0172328 0.00723978 0.00558705 9.96686e-05 7.61695e-05 6.1948e-10 -8.40943e-11 7.57543e-11 5e-05 1.46608e-10 
87 1 0.301046 0.0169943 0.00734417 0.00568511 -0.000352117 0.000283915 1.5752e-10 -6.57521e-12 3.0339e-11 5e-05 1.46608e-10 
88 1 0.301184 0.0176219 0.00706517 0.00561916 -0.000438253 6.44909e-05 -4.8811e-10 -5.47244e-11 3.21264e-10 5e-05 1.46608e-10 
89 1 0.301315 0.0180115 0.0070478 0.00549717 -0.000378388 0.00016239 -2.81191e-11 3.66669e-11 -5.07507e-11 5e-05 1.46608e-10 
90 1 0.301356 0.0180298 0.00695857 0.00552276 -0.000382035 0.000173904 -6.46631e-12 -6.24384e-11 -2.31527e-12 5e-05 1.46608e-10 
91 1 0.29516 0.016833 0.00774751 0.00617997 0.000862557 -0.000882103 4.96751e-10 -1.64244e-10 2.12486e-10 5e-05 1.46608e-10 
92 1 0.301108 0.0176842 0.00704399 0.00563278 -0.00050625 -0.000127755 -1.26773e-10 2.68273e-11 4.66472e-11 5e-05 1.46608e-10 
93 1 0.300834 0.016488 0.00765893 0.00601463 -0.000537454 0.000230114 3.46174e-10 1.14605e-10 -1.92939e-10 5e-05 1.46608e-10 
94 1 0.301233 0.0180784 0.00703957 0.00553079 -0.000448202 0.000176477 1.18842e-12 1.23583e-10 3.50624e-11 5e-05 1.46608e-10 
95 1 0.301162 0.0177181 0.00712096 0.00558928 -0.000502655 -7.05758e-05 1.31087e-10 -3.63658e-10 -3.69275e-10 5e-05 1.46608e-10 
96 1 0.301089 0.0175927 0.00707945 0.00553017 -0.000466325 -8.21696e-05 -2.30086e-10 9.61198e-11 9.65375e-11 5e-05 1.46608e-10 
97 1 0.294723 0.0159784 0.0085107 0.00596141 0.000825918 -0.000854385 8.36144e-11 1.12037e-10 -1.01381e-10 5e-05 1.46608e-10 
98 1 0.300812 0.016422 0.00773078 0.0061087 -0.000546569 0.000256501 5.65381e-11 1.66032e-10 -2.19103e-10 5e-05 1.46608e-10 
99 1 0.295121 0.0177475 0.00702597 0.00599933 0.00116462 -9.70912e-05 1.69517e-11 -2.88502e-11 -3.70575e-12 5e-05 1.46608e-10 
100 1 0.301298 0.0177429 0.00701636 0.00553057 -0.00046093 -9.71391e-05 3.08155e-11 -3.0149e-11 2.8518e-10 5e-05 1.46608e-10 
101 1 0.295141 0.0178428 0.00700277 0.00584187 0.00119705 -0.000108623 4.39682e-11 -8.65984e-12 2.25204e-11 5e-05 1.46608e-10 
102 1 0.0643568 0.0187248 0.00531097 4.18919e-15 1.05478e-14 8.29578e-14 1.51702e-21 -3.72464e-22 -2.54358e-23 5e-05 1.46608e-10 
103 1 0.24257 0.0191927 0.00520306 3.17557e-22 4.01299e-22 8.29106e-22 0 0 0 5e-05 1.46608e-10 
104 1 0.295427 0.0179403 0.00698756 0.00582531 0.00121325 -0.000118472 -1.04058e-10 -4.2354e-11 6.60567e-11 5e-05 1.46608e-10 
105 1 0.294702 0.0159053 0.00857563 0.00594582 0.000828493 -0.000857155 1.91882e-10 7.61635e-11 -8.29735e-11 5e-05 1.46608e-10 
106 1 0.295165 0.0177776 0.00711082 0.00592016 0.00120961 -8.02568e-05 1.80477e-10 5.47455e-11 -1.77859e-11 5e-05 1.46608e-10 
107 1 0.294542 0.015665 0.00879094 0.00588848 0.000868337 -0.000890638 5.84085e-11 -1.33674e-10 1.18136e-10 5e-05 1.46608e-10 
108 1 0.301431 0.017964 0.00696342 0.00551448 -0.00040358 0.000174215 -5.83621e-12 -1.40567e-10 -7.11354e-13 5e-05 1.46608e-10 
109 1 0.301487 0.0178021 0.00698902 0.00553842 -0.00043811 -7.96325e-05 1.19833e-10 3.40387e-11 7.95181e-12 5e-05 1.46608e-10 
110 1 0.300971 0.0170539 0.00731525 0.00570372 -0.000341477 0.000279093 4.82391e-11 2.75429e-12 -1.31793e-11 5e-05 1.46608e-10 
111 1 0.30093 0.0168755 0.00739618 0.00566833 -0.000340107 0.000277436 -1.00937e-10 -7.94894e-11 -5.61628e-11 5e-05 1.46608e-10 
112 1 0.294607 0.0158892 0.00860304 0.00594212 0.000842046 -0.000868035 3.12402e-11 1.03376e-10 -9.23457e-11 5e-05 1.46608e-10 
113 1 0.295049 0.017408 0.00722276 0.00571607 0.000587496 -0.00119876 -8.80375e-11 3.27088e-10 -3.60356e-11 5e-05 1.46608e-10 
114 1 0.295084 0.0175738 0.00711771 0.00597184 0.00111291 -0.000313897 -6.9779e-11 -2.99451e-12 -2.56961e-10 5e-05 1.46608e-10 
115 1 0.301256 0.0171431 0.00728051 0.00571869 -5.66621e-05 0.000149719 4.72327e-10 -1.17816e-10 7.48971e-11 5e-05 1.46608e-10 
116 1 0.301261 0.0179975 0.00695717 0.00552627 -0.000417929 0.000172781 -1.11548e-11 -6.84945e-11 2.50956e-11 5e-05 1.46608e-10 
117 1 0.301259 0.0175607 0.00708909 0.00555928 -0.000402703 0.000292424 -1.45843e-10 3.6938e-10 -4.76416e-11 5e-05 1.46608e-10 
118 1 0.295281 0.0172572 0.00734098 0.00581906 0.000708784 -0.00119794 -1.8928e-11 1.73649e-11 -1.60207e-10 5e-05 1.46608e-10 
119 1 0.301451 0.0180621 0.00695995 0.00551273 -0.000411049 0.000175327 -3.66842e-11 -1.46717e-10 1.57717e-12 5e-05 1.46608e-10 
120 1 0.300973 0.0166365 0.00750666 0.00563645 -0.000351151 0.000283033 -5.78278e-11 7.88692e-11 -4.16918e-11 5e-05 1.46608e-10 
121 1 0.301264 0.0184553 0.00693845 0.00552709 -0.000451235 0.000177163 -1.88334e-11 -5.37355e-11 1.3581e-12 5e-05 1.46608e-10 
122 1 0.30107 0.0175024 0.00711783 0.00530779 -0.000362647 3.95485e-05 -3.14612e-10 1.17397e-10 -1.12571e-10 5e-05 1.46608e-10 
123 1 0.295521 0.0179739 0.00698218 0.00579373 0.0011745 -0.000107732 -4.41022e-11 1.30716e-11 8.31288e-13 5e-05 1.46608e-10 
124 1 0.300893 0.0165415 0.00759897 0.00582795 -0.000413936 0.000146391 1.36138e-10 2.17857e-10 -2.2154e-10 5e-05 1.46608e-10 
125 1 0.301164 0.0175305 0.00710088 0.00538614 -0.000509373 0.000345453 6.60722e-12 -1.03985e-10 1.45485e-10 5e-05 1.46608e-10 
127 1 0.294745 0.0160513 0.00844587 0.00597513 0.000828349 -0.000857098 5.01062e-11 1.08339e-10 -9.33034e-11 5e-05 1.46608e-10 
128 1 0.300795 0.0163541 0.00780219 0.00610904 -0.000544696 0.000266485 1.46451e-10 1.21762e-10 -1.60333e-10 5e-05 1.46608e-10 
129 1 0.301204 0.0178818 0.00706276 0.00548779 -0.000433581 2.35278e-05 1.55345e-10 -1.50102e-10 2.53127e-10 5e-05 1.46608e-10 
130 1 0.29517 0.0175863 0.00706782 0.00612525 0.00119532 -8.69323e-05 3.32252e-10 3.08755e-10 3.69401e-11 5e-05 1.46608e-10 
131 1 0.295196 0.017684 0.00704425 0.00599977 0.001144 -8.7346e-05 1.14599e-10 7.4804e-11 2.90062e-11 5e-05 1.46608e-10 
132 1 0.301161 0.0171131 0.00729218 0.00581272 -0.000330034 0.000276839 2.04197e-10 -2.04458e-10 1.06697e-10 5e-05 1.46608e-10 
133 1 0.301281 0.0180955 0.00695371 0.00551956 -0.000417781 0.000174838 2.13551e-11 -3.1026e-12 1.40298e-11 5e-05 1.46608e-10 
134 1 0.301242 0.0178996 0.00696727 0.00550332 -0.000430071 -6.54414e-05 -1.405e-10 6.36811e-11 -3.62558e-11 5e-05 1.46608e-10 
135 1 0.301392 0.0177725 0.0070026 0.00554051 -0.000448027 -7.43419e-05 1.65472e-11 7.94932e-11 -5.06362e-11 5e-05 1.46608e-10 
136 1 0.295145 0.0170933 0.00750841 0.00626429 0.000628437 -0.00111721 9.45848e-12 -7.93667e-10 2.54627e-10 5e-05 1.46608e-10 
137 1 0.301142 0.0178144 0.00710352 0.00549466 -0.000505415 -8.74553e-05 1.68759e-10 -2.38065e-10 1.77181e-10 5e-05 1.46608e-10 
138 1 0.301147 0.0178699 0.00698096 0.00551672 -0.000474474 -2.36768e-05 -4.31716e-13 -5.62621e-11 1.47775e-10 5e-05 1.46608e-10 
140 1 0.301031 0.0173215 0.00719385 0.00551552 -0.000293441 0.0002577 6.3986e-12 1.544e-10 4.89552e-11 5e-05 1.46608e-10 
141 1 0.29497 0.0165115 0.00803517 0.00607779 0.000838707 -0.000868413 -7.76246e-11 7.14931e-11 -6.60754e-11 5e-05 1.46608e-10 
142 1 0.295358 0.0175678 0.00710778 0.00581476 0.00109047 -0.000418851 8.01529e-11 -1.23173e-10 -1.22676e-10 5e-05 1.46608e-10 
143 1 0.294563 0.0157381 0.00872602 0.00590556 0.000856097 -0.000879703 7.01772e-11 -7.02562e-11 6.40581e-11 5e-05 1.46608e-10 
144 1 0.295314 0.017399 0.00720381 0.00564043 0.000723957 -0.00119933 -2.78053e-10 4.69063e-11 -8.80049e-11 5e-05 1.46608e-10 
146 1 0.294649 0.0160296 0.00846708 0.0059732 0.000837099 -0.000865066 -9.01664e-12 1.42954e-10 -1.25973e-10 5e-05 1.46608e-10 
147 1 0.295154 0.0175025 0.00712026 0.00561422 0.000697964 -0.000959049 -8.61294e-11 1.64495e-10 -4.1997e-10 5e-05 1.46608e-10 
148 1 0.294992 0.016585 0.00796983 0.0061208 0.000845061 -0.000875085 3.09098e-10 -1.3334e-11 1.08736e-12 5e-05 1.46608e-10 
149 1 0.300891 0.0167053 0.00749331 0.00558969 -0.000375853 0.000212108 -3.43698e-11 4.04526e-11 -1.39895e-10 5e-05 1.46608e-10 
150 1 0.295256 0.0184242 0.0069938 0.00582053 0.00128229 -0.000584308 -2.26777e-10 -1.2819e-10 1.6365e-11 5e-05 1.46608e-10 
151 1 0.295276 0.0180693 0.00696685 0.00585023 0.00123083 -0.000225212 2.22184e-11 -1.03042e-11 -1.45996e-11 5e-05 1.46608e-10 
153 1 0.295014 0.016658 0.00790498 0.00612479 0.000845344 -0.000875633 1.08383e-10 -1.21382e-12 9.11364e-12 5e-05 1.46608e-10 
154 1 0.294627 0.0159566 0.00853193 0.00595455 0.000837264 -0.000864518 1.00832e-10 1.56018e-10 -1.39545e-10 5e-05 1.46608e-10 
155 1 0.294671 0.0161026 0.00840223 0.00599568 0.000835861 -0.00086438 1.50027e-10 1.17536e-10 -1.13159e-10 5e-05 1.46608e-10 
156 1 0.294948 0.0164382 0.00810026 0.00604953 0.000840061 -0.000868996 4.26659e-12 1.57744e-10 -1.38075e-10 5e-05 1.46608e-10 
157 1 0.0219312 0.0187687 0.00551176 -3.83185e-14 8.16642e-14 2.9589e-13 1.18189e-21 4.80385e-22 3.03989e-23 5e-05 1.46608e-10 
158 1 0.295057 0.0168041 0.0077752 0.0061733 0.000854572 -0.000885719 3.23757e-10 -1.38895e-10 1.50379e-10 5e-05 1.46608e-10 
159 1 0.301181 0.0172026 0.00725159 0.00570421 -8.54115e-05 0.000162095 1.43646e-10 -1.36664e-10 4.31132e-11 5e-05 1.46608e-10 
160 1 0.29516 0.0179405 0.00701229 0.00581196 0.00120698 -0.000151601 -3.25767e-11 -2.51374e-11 -5.31613e-11 5e-05 1.46608e-10 
162 1 0.29533 0.0179922 0.0070667 0.00580784 0.00127709 -0.000110618 1.03168e-11 9.61176e-11 8.01431e-11 5e-05 1.46608e-10 
164 1 0.294735 0.0163216 0.00820768 0.00605159 0.000849369 -0.000877352 1.20468e-10 8.7852e-11 -7.78027e-11 5e-05 1.46608e-10 
165 1 0.29537 0.0181022 0.00695571 0.00580775 0.00120887 -0.000587167 -1.93135e-11 -2.63563e-11 5.58548e-11 5e-05 1.46608e-10 
166 1 0.301167 0.0179652 0.00695797 0.00549865 -0.000433774 0.000121008 -1.38858e-10 -4.64636e-11 7.3183e-11 5e-05 1.46608e-10 
167 1 0.295217 0.0182283 0.00698345 0.0058299 0.00125899 -0.000550883 -2.84549e-11 6.4353e-11 -2.05795e-10 5e-05 1.46608e-10 
168 1 0.295336 0.0183651 0.00697994 0.00580211 0.00124427 -0.000586242 -9.85447e-11 2.62407e-10 2.45219e-11 5e-05 1.46608e-10 
169 1 0.295237 0.0183263 0.00698856 0.00584655 0.00126435 -0.000589381 -7.75268e-11 -7.99853e-11 6.85069e-11 5e-05 1.46608e-10 
170 1 0.295316 0.0182672 0.0069747 0.00583229 0.00124638 -0.000590209 7.41247e-13 1.27108e-10 2.91029e-11 5e-05 1.46608e-10 
171 1 0.301339 0.0183897 0.00694331 0.00552139 -0.000451232 0.000176865 4.40361e-11 -4.44548e-11 5.34104e-12 5e-05 1.46608e-10 
172 1 0.295032 0.0173354 0.00728949 0.00577642 0.000396525 -0.001362 3.63497e-10 2.97373e-10 -5.47245e-12 5e-05 1.46608e-10 
173 1 0.301376 0.0181278 0.0069551 0.00551767 -0.000420293 0.000175205 9.50613e-11 -4.9477e-11 -2.64092e-12 5e-05 1.46608e-10 
174 1 0.294778 0.0164676 0.00807796 0.00607918 0.000853449 -0.000881688 2.61151e-11 -1.84221e-11 6.17588e-12 5e-05 1.46608e-10 
176 1 0.295091 0.0172155 0.00739756 0.00612749 0.00061319 -0.00112798 3.71018e-10 -1.99514e-11 -4.08342e-11 5e-05 1.46608e-10 
177 1 0.294766 0.0161244 0.00838099 0.00599408 0.000831546 -0.000860272 3.69204e-11 9.85479e-11 -8.65778e-11 5e-05 1.46608e-10 
178 1 0.295136 0.0176808 0.00716572 0.00594845 0.00121017 -4.88478e-05 -5.08106e-10 -2.91538e-10 -2.40896e-11 5e-05 1.46608e-10 
179 1 0.295236 0.0180802 0.00705754 0.00574683 0.00130996 -0.000290927 -9.79619e-11 9.45149e-11 8.85878e-11 5e-05 1.46608e-10 
182 1 0.301284 0.0185532 0.00693499 0.00552538 -0.000453249 0.000177092 -1.19306e-11 -1.36527e-11 -4.0559e-13 5e-05 1.46608e-10 
183 1 0.295173 0.0178791 0.00709036 0.00584276 0.00122747 -0.00011906 -2.80294e-11 -2.51576e-10 6.72341e-11 5e-05 1.46608e-10 
184 1 0.301251 0.0181801 0.00703603 0.00550134 -0.000429387 0.000175564 7.43934e-12 9.15073e-11 -3.2151e-11 5e-05 1.46608e-10 
185 1 0.295336 0.0174786 0.00714759 0.00556439 0.000901513 -0.000976161 2.49518e-11 -4.76158e-11 -6.06059e-11 5e-05 1.46608e-10 
186 1 0.295614 0.0180111 0.00697584 0.0057713 0.0012435 -0.000125765 -1.18911e-10 -4.51491e-11 9.32297e-12 5e-05 1.46608e-10 
187 1 0.3013 0.0181936 0.00695024 0.00550996 -0.000446583 0.00017729 -2.46884e-11 5.96996e-11 -2.98592e-11 5e-05 1.46608e-10 
188 1 0.301145 0.017441 0.00714151 0.00534054 -0.00027374 0.000258197 -2.19782e-10 2.69252e-10 -1.1336e-11 5e-05 1.46608e-10 
189 1 0.301245 0.0183573 0.00694192 0.00553529 -0.000439066 0.000176825 -1.47104e-11 2.12779e-11 -5.36075e-12 5e-05 1.46608e-10 
190 1 0.289228 0.0182852 0.00697878 0.00554716 -0.000293333 -0.000114718 -3.40539e-12 -2.93684e-11 -3.27535e-12 5e-05 1.46608e-10 
191 1 0.300911 0.0167924 0.00744833 0.00564689 -0.000361549 0.000250329 -1.664e-10 -8.38038e-11 -2.12563e-10 5e-05 1.46608e-10 
192 1 0.295065 0.0174873 0.00716424 0.00584916 0.000921058 -0.000734147 -9.27041e-12 1.62128e-10 -4.07113e-12 5e-05 1.46608e-10 
193 1 0.301359 0.0184877 0.00693985 0.00552353 -0.000458014 0.000177308 -7.59315e-11 -4.20717e-11 8.97531e-13 5e-05 1.46608e-10 
194 1 0.295288 0.0179068 0.00709822 0.00583335 0.0012737 -7.919e-05 1.59623e-10 -3.59914e-11 -1.8724e-10 5e-05 1.46608e-10 
195 1 0.295259 0.0179759 0.00699788 0.00580928 0.00124359 -0.000185154 -2.93272e-10 4.93844e-12 -2.21424e-10 5e-05 1.46608e-10 
196 1 0.2953 0.0177277 0.00707049 0.00590005 0.00126105 -0.00011103 1.63453e-10 -7.44404e-11 6.91966e-11 5e-05 1.46608e-10 
197 1 0.288918 0.0168455 0.00750626 0.00560246 -0.000226097 0.000183769 4.70502e-11 -8.78837e-11 5.5209e-11 5e-05 1.46608e-10 
198 1 0.295225 0.0170458 0.0075462 0.00627264 0.000644708 -0.00116814 2.75459e-10 -2.31262e-10 4.82727e-11 5e-05 1.46608e-10 
199 1 0.295211 0.017987 0.00708477 0.00582387 0.00124371 -0.000186731 1.54605e-10 1.7761e-10 -2.45426e-10 5e-05 1.46608e-10 
200 1 0.294585 0.0158111 0.00866117 0.00591814 0.000848211 -0.000873335 -3.63312e-11 -1.90703e-11 3.26336e-11 5e-05 1.46608e-10 
201 1 0.295351 0.0180027 0.00696951 0.00583788 0.00122214 -0.000119053 -6.4229e-11 -1.3097e-10 5.27018e-11 5e-05 1.46608e-10 
202 1 0.295078 0.0168772 0.00771029 0.0061925 0.000857855 -0.000889946 2.58293e-10 -2.4809e-10 2.65593e-10 5e-05 1.46608e-10 
203 1 0.301223 0.0178064 0.0069984 0.00553321 -0.000463565 -6.75382e-05 6.00835e-11 -1.6213e-11 5.92123e-11 5e-05 1.46608e-10 
204 1 0.295393 0.0177473 0.00703475 0.00585749 0.00125581 -0.000125158 5.66234e-10 3.14709e-11 4.24689e-11 5e-05 1.46608e-10 
205 1 0.294917 0.0166355 0.00792688 0.00613779 0.000855467 -0.000884642 -3.79212e-12 -1.57276e-10 1.36867e-10 5e-05 1.46608e-10 
206 1 0.29496 0.0167816 0.00779709 0.00619106 0.00084857 -0.000879619 4.75795e-11 -7.10107e-11 1.38437e-10 5e-05 1.46608e-10 
207 1 0.294831 0.0163434 0.00818642 0.00605317 0.000843232 -0.000872016 4.57232e-11 6.63487e-11 -6.01169e-11 5e-05 1.46608e-10 
208 1 0.295263 0.0171865 0.00740949 0.00593903 0.000695004 -0.00119107 2.78985e-10 -1.24293e-10 5.33201e-11 5e-05 1.46608e-10 
209 1 0.295187 0.0172371 0.00736849 0.00585598 0.000641567 -0.00113808 2.85398e-10 -8.84903e-11 5.6556e-11 5e-05 1.46608e-10 
210 1 0.301006 0.0168159 0.00742512 0.00564528 -0.00034737 0.000280912 6.44532e-11 -2.94255e-11 -1.03581e-11 5e-05 1.46608e-10 
211 1 0.301026 0.0169051 0.00738465 0.00566014 -0.000347319 0.000281441 1.72962e-10 -6.66506e-11 4.14093e-11 5e-05 1.46608e-10 
212 1 0.295445 0.0180362 0.00696416 0.00583837 0.00123094 -0.000120333 -6.46912e-11 4.71095e-12 -1.42453e-11 5e-05 1.46608e-10 
213 1 0.301225 0.0182592 0.00694538 0.00551932 -0.000425913 0.000175463 1.0475e-11 2.80889e-11 -1.25122e-11 5e-05 1.46608e-10 
214 1 0.301106 0.0172621 0.0072227 0.00564185 -0.000158175 0.000195588 1.60259e-10 1.54129e-10 -5.37219e-11 5e-05 1.46608e-10 
215 1 0.289132 0.0177985 0.0070003 0.00557704 -0.000219766 0.000182191 2.45102e-11 1.9245e-11 -1.59968e-11 5e-05 1.46608e-10 
216 1 0.294809 0.0162704 0.00825129 0.00603905 0.000839487 -0.000868355 2.80704e-11 5.54e-11 -4.80158e-11 5e-05 1.46608e-10 
217 1 0.301303 0.0186512 0.00693153 0.00551422 -0.000456449 0.000176905 -2.18699e-11 5.72135e-11 -2.60236e-12 5e-05 1.46608e-10 
218 1 0.295104 0.0176612 0.00707328 0.00600966 0.0011606 -8.07671e-05 -5.31963e-11 -3.8116e-11 -2.82414e-10 5e-05 1.46608e-10 
219 1 0.300878 0.0166139 0.00753162 0.005624 -0.000402965 0.00019215 -1.23536e-11 1.23941e-10 -1.40405e-10 5e-05 1.46608e-10 
220 1 0.295216 0.0177794 0.00702103 0.00592299 0.00136787 -0.000153248 1.34923e-10 1.00819e-10 2.03871e-11 5e-05 1.46608e-10 
222 1 0.301334 0.0175015 0.00711784 0.00544516 -0.000514997 0.000351756 -4.04903e-10 5.64179e-10 -2.84124e-10 5e-05 1.46608e-10 
224 1 0.295003 0.0169276 0.00766737 0.00619785 0.000839642 -0.0008724 1.94218e-10 -3.82696e-10 3.15313e-10 5e-05 1.46608e-10 
225 1 0.300951 0.0169647 0.00735573 0.00568609 -0.000341243 0.000279315 2.02236e-10 -3.31212e-11 5.90107e-11 5e-05 1.46608e-10 
226 1 0.295229 0.0177051 0.00713652 0.00593737 0.00126754 -7.05028e-05 -1.48129e-10 -4.00949e-10 1.32685e-10 5e-05 1.46608e-10 
227 1 0.289151 0.0178934 0.0069755 0.00558331 -0.000288951 -8.9501e-05 -1.88027e-11 8.07908e-12 -4.59075e-11 5e-05 1.46608e-10 
228 1 0.289094 0.017625 0.00709242 0.00565283 -0.000235772 0.000189126 5.25354e-11 7.75036e-12 9.99245e-12 5e-05 1.46608e-10 
229 1 0.295463 0.0181389 0.00694766 0.00580138 0.00120409 -0.000591772 -6.26155e-11 5.48165e-11 1.41706e-11 5e-05 1.46608e-10 
230 1 0.294908 0.0169055 0.00768893 0.00618392 0.000821346 -0.00088247 1.96484e-11 -1.72812e-11 4.77938e-10 5e-05 1.46608e-10 
232 1 0.295337 0.0180905 0.00705004 0.00601462 0.00118227 -0.000565304 4.9578e-12 1.6833e-10 2.18779e-10 5e-05 1.46608e-10 
233 1 0.295198 0.0181303 0.00697954 0.00583655 0.00124374 -0.000373318 -4.32875e-12 1.06627e-11 2.37224e-12 5e-05 1.46608e-10 
234 1 0.301298 0.0179121 0.00705246 0.00549535 -0.000420071 0.000155436 7.49619e-11 -1.44643e-10 -5.12828e-11 5e-05 1.46608e-10 
235 1 0.294864 0.0167596 0.00781856 0.00615257 0.000851166 -0.000880327 4.20699e-11 -9.6852e-11 1.63273e-10 5e-05 1.46608e-10 
236 1 0.294972 0.0171246 0.00749431 0.00619955 0.000715784 -0.000904406 -3.44748e-10 -2.16258e-10 2.18569e-10 5e-05 1.46608e-10 
237 1 0.294994 0.0171964 0.00742808 0.00621674 0.000574287 -0.00103943 1.66677e-11 -2.08316e-10 1.83582e-10 5e-05 1.46608e-10 
239 1 0.288812 0.016414 0.00773527 0.00615478 -0.000322855 0.000241616 7.72521e-12 3.10907e-11 -1.63044e-11 5e-05 1.46608e-10 
240 1 0.288877 0.0166727 0.00759797 0.00610767 -0.000315775 0.000237153 -5.23443e-11 -4.86783e-11 2.56072e-11 5e-05 1.46608e-10 
241 1 0.288791 0.0163277 0.00778104 0.00617066 -0.000326259 0.000243554 1.09538e-11 5.00067e-11 -2.63679e-11 5e-05 1.46608e-10 
242 1 0.295139 0.01676 0.00781242 0.00616984 0.00085783 -0.000888982 2.49186e-10 -3.32133e-10 2.34811e-10 5e-05 1.46608e-10 
243 1 0.295272 0.017621 0.00706244 0.00595833 0.00110178 -8.70249e-05 3.0238e-10 -2.11972e-10 8.01455e-11 5e-05 1.46608e-10 
244 1 0.288834 0.0165002 0.0076895 0.00614017 -0.000319787 0.00023975 7.94783e-12 1.8102e-11 -1.03509e-11 5e-05 1.46608e-10 
246 1 0.289018 0.0172782 0.00727657 0.00575347 -0.000237744 0.000190541 5.78706e-11 -1.00657e-11 -2.84089e-12 5e-05 1.46608e-10 
247 1 0.2948 0.0165406 0.00801311 0.00609822 0.000856113 -0.000884169 -1.00155e-10 -9.53944e-11 7.89914e-11 5e-05 1.46608e-10 
248 1 0.295126 0.0173574 0.00726005 0.00567697 0.000613963 -0.00108969 -9.64043e-11 1.91e-10 -1.71453e-10 5e-05 1.46608e-10 
249 1 0.288958 0.0170186 0.00741438 0.00565304 -0.000228894 0.000185771 4.48018e-12 1.17175e-11 -7.01501e-12 5e-05 1.46608e-10 
250 1 0.294874 0.0164893 0.00805675 0.00606899 0.000850411 -0.000878448 4.4909e-11 8.72769e-11 -7.8792e-11 5e-05 1.46608e-10 
251 1 0.301203 0.0177134 0.00702976 0.00564548 -0.000501505 -8.35936e-05 -1.82677e-10 -8.01802e-11 -2.97552e-10 5e-05 1.46608e-10 
252 1 0.289038 0.0173648 0.00723063 0.00557757 -0.000207243 0.000173195 8.24594e-12 -2.11419e-11 1.81864e-12 5e-05 1.46608e-10 
253 1 0.289209 0.0181872 0.00697463 0.00555231 -0.000288374 -0.000114873 3.77092e-12 -2.22903e-11 -3.32639e-14 5e-05 1.46608e-10 
254 1 0.288978 0.0171052 0.00736844 0.00569578 -0.00022973 0.000186908 -2.19087e-11 -3.15307e-12 -8.62577e-12 5e-05 1.46608e-10 
255 1 0.294498 0.0155191 0.00892058 0.00586832 0.000892647 -0.000911877 -1.24853e-10 -2.67368e-10 2.42163e-10 5e-05 1.46608e-10 
256 1 0.295408 0.0178433 0.00701118 0.00580072 0.00124776 -0.000126939 -9.93564e-13 1.93633e-10 -9.53398e-11 5e-05 1.46608e-10 
257 1 0.295035 0.0167312 0.00784 0.0062508 0.000890121 -0.000919778 2.40035e-10 5.08722e-11 -2.71857e-11 5e-05 1.46608e-10 
258 1 0.295109 0.0172865 0.00732871 0.00587345 0.00067732 -0.0011548 6.33036e-10 2.82943e-10 -1.85977e-10 5e-05 1.46608e-10 
259 1 0.289057 0.0174516 0.00718451 0.00558127 -0.000212525 0.000176418 2.80612e-11 -1.2493e-11 7.40747e-13 5e-05 1.46608e-10 