ITEM: TIMESTEP
76400000
ITEM: NUMBER OF ATOMS
267
ITEM: BOX BOUNDS ff ff ff
-0.02 0.43
-0.02 0.06
-0.02 0.07
ITEM: ATOMS id type x y z vx vy vz fx fy fz radius mass 
1 1 0.383991 0.018743 5.17586e-05 7.86792e-19 2.08683e-21 -5.98258e-16 0 -1.29247e-26 0 5e-05 1.46608e-10 
2 1 0.384819 0.0170553 5.28427e-05 -9.20566e-19 -5.53423e-21 7.02844e-16 0 -2.24254e-26 0 5e-05 1.46608e-10 
4 1 0.384087 0.0172099 5.18841e-05 -5.91072e-20 4.69795e-21 2.85941e-17 -5.16988e-26 2.58494e-26 0 5e-05 1.46608e-10 
6 1 0.38485 0.0177728 5.2884e-05 4.86716e-19 5.52258e-22 -3.71585e-16 0 -3.23117e-27 0 5e-05 1.46608e-10 
7 1 0.384289 0.0192285 5.21489e-05 2.81059e-18 -2.23547e-22 -2.14593e-15 0 8.87392e-27 0 5e-05 1.46608e-10 
8 1 0.384427 0.0170974 5.23295e-05 2.24036e-18 -1.54086e-21 -1.71051e-15 -4.03897e-28 -1.12113e-26 0 5e-05 1.46608e-10 
9 1 0.383731 0.0178959 5.14179e-05 2.24035e-18 -1.45464e-21 -1.71052e-15 0 2.7557e-26 0 5e-05 1.46608e-10 
10 1 0.384909 0.0174916 5.29614e-05 1.79759e-18 -3.03267e-21 -1.37249e-15 -4.03897e-28 -1.17714e-26 0 5e-05 1.46608e-10 
11 1 0.383705 0.0185838 5.13839e-05 2.81057e-18 -1.61345e-21 -2.14593e-15 -4.03897e-28 -3.09354e-27 0 5e-05 1.46608e-10 
12 1 0.384274 0.0169453 5.213e-05 2.24031e-18 3.79317e-21 -1.71052e-15 0 -5.93606e-26 0 5e-05 1.46608e-10 
13 1 0.384609 0.0178943 5.25685e-05 2.90841e-12 -1.90202e-12 1.75419e-13 2.58929e-17 1.21342e-18 -7.85614e-18 5e-05 1.46608e-10 
14 1 0.383937 0.0189513 8.69758e-05 5.35495e-19 -8.70113e-22 -4.06398e-16 0 0 2.06795e-25 5e-05 1.46608e-10 
16 1 0.384166 0.0169334 5.1988e-05 2.24036e-18 1.40569e-22 -1.71052e-15 0 -4.99004e-28 0 5e-05 1.46608e-10 
17 1 0.384566 0.0170745 5.25117e-05 2.24036e-18 4.35924e-22 -1.71052e-15 0 3.11941e-27 0 5e-05 1.46608e-10 
19 1 0.384704 0.0183371 5.2693e-05 1.79764e-18 -5.96089e-20 -1.37251e-15 0 1.13115e-25 0 5e-05 1.46608e-10 
21 1 0.384375 0.0179486 5.22621e-05 -4.91607e-12 -8.3277e-13 -8.71912e-13 2.46554e-18 4.33818e-18 -1.26075e-17 5e-05 1.46608e-10 
22 1 0.385006 0.0203197 5.3088e-05 8.71364e-19 1.14133e-21 -6.65298e-16 0 5.25732e-26 0 5e-05 1.46608e-10 
23 1 0.38429 0.0178938 5.21501e-05 3.66498e-13 1.54758e-13 -7.0931e-14 -2.19364e-18 7.83888e-19 1.20988e-18 5e-05 1.46608e-10 
24 1 0.384317 0.0180308 5.21862e-05 -2.59914e-14 1.33298e-13 -4.10336e-14 -7.63848e-20 -2.99316e-19 -9.03904e-19 5e-05 1.46608e-10 
25 1 0.384369 0.0166304 5.22533e-05 2.24034e-18 2.06363e-21 -1.71051e-15 0 -3.94709e-26 0 5e-05 1.46608e-10 
26 1 0.383765 0.0178016 5.14632e-05 2.24031e-18 1.23613e-22 -1.71051e-15 0 -6.8862e-28 0 5e-05 1.46608e-10 
27 1 0.384682 0.0173846 0.000130728 -1.2507e-19 -1.89383e-20 9.01887e-17 0 -2.58494e-26 0 5e-05 1.46608e-10 
28 1 0.38392 0.0176635 5.16661e-05 2.24033e-18 1.85978e-21 -1.71052e-15 0 -1.93328e-27 0 5e-05 1.46608e-10 
29 1 0.384334 0.0168628 5.2208e-05 2.24036e-18 -4.96831e-21 -1.71052e-15 0 5.49621e-26 0 5e-05 1.46608e-10 
30 1 0.38458 0.0173478 5.25303e-05 -1.10235e-19 -4.23608e-21 9.0202e-17 0 -1.29247e-26 0 5e-05 1.46608e-10 
31 1 0.384267 0.018175 5.21197e-05 1.63123e-20 -8.89218e-22 -7.47559e-18 0 0 0 5e-05 1.46608e-10 
32 1 0.384809 0.0175939 5.28295e-05 1.03326e-19 -3.80661e-21 -7.99273e-17 0 0 0 5e-05 1.46608e-10 
33 1 0.384554 0.0172495 5.24957e-05 2.24032e-18 1.03007e-22 -1.71052e-15 0 -7.29974e-28 0 5e-05 1.46608e-10 
34 1 0.38474 0.0177115 5.27396e-05 1.02881e-19 -8.06095e-23 -7.99197e-17 0 0 0 5e-05 1.46608e-10 
35 1 0.383862 0.0177748 5.15892e-05 -2.16899e-19 -2.5421e-21 1.69475e-16 0 0 0 5e-05 1.46608e-10 
36 1 0.383928 0.0185154 5.16766e-05 -3.5019e-19 3.3144e-22 2.67381e-16 0 9.02243e-27 0 5e-05 1.46608e-10 
37 1 0.384806 0.0179346 5.28267e-05 1.79759e-18 1.31225e-22 -1.37251e-15 0 -3.83131e-26 0 5e-05 1.46608e-10 
38 1 0.384295 0.0179641 0.000123125 7.51437e-14 2.47901e-13 -1.50658e-13 5.66215e-19 -6.94921e-19 -8.03358e-19 5e-05 1.46608e-10 
39 1 0.383664 0.0197976 5.13305e-05 -3.50183e-19 3.96065e-22 2.67381e-16 0 6.00994e-27 0 5e-05 1.46608e-10 
42 1 0.38332 0.0192284 0.00522714 1.28259e-16 -1.7571e-20 3.78515e-14 0 5.45457e-25 0 5e-05 1.46608e-10 
44 1 0.384012 0.018459 5.17866e-05 1.79763e-18 -8.61682e-23 -1.37251e-15 0 -3.6847e-28 0 5e-05 1.46608e-10 
45 1 0.384188 0.017154 5.20161e-05 -3.65628e-20 -6.32445e-23 2.8618e-17 0 1.61559e-26 0 5e-05 1.46608e-10 
47 1 0.393341 0.0166616 0.0084382 -0.000226734 0.000931034 0.000211429 -2.1787e-12 2.13937e-10 -1.84557e-10 5e-05 1.46608e-10 
48 1 0.383611 0.0181742 5.1261e-05 -8.00765e-19 -3.0698e-22 6.08849e-16 0 0 0 5e-05 1.46608e-10 
49 1 0.384194 0.0185569 5.20241e-05 1.79759e-18 -3.30189e-21 -1.37251e-15 0 6.12171e-26 0 5e-05 1.46608e-10 
50 1 0.384353 0.0181246 5.22331e-05 1.7976e-18 1.22526e-21 -1.37249e-15 0 -1.76248e-26 0 5e-05 1.46608e-10 
51 1 0.383985 0.019032 5.17502e-05 5.35607e-19 -1.5182e-22 -4.06396e-16 0 0 0 5e-05 1.46608e-10 
52 1 0.38427 0.0217777 5.21238e-05 2.00508e-18 -1.41412e-21 -1.5309e-15 0 -9.44299e-27 0 5e-05 1.46608e-10 
53 1 0.3849 0.0167228 5.29491e-05 2.24032e-18 -7.85303e-21 -1.71052e-15 0 -8.94051e-26 0 5e-05 1.46608e-10 
54 1 0.384094 0.0196551 5.18938e-05 2.81055e-18 -2.72372e-22 -2.14593e-15 4.03897e-28 -5.76708e-27 0 5e-05 1.46608e-10 
55 1 0.383596 0.0188939 5.12421e-05 2.81055e-18 9.59939e-23 -2.14593e-15 0 1.23396e-26 0 5e-05 1.46608e-10 
56 1 0.384074 0.0171039 5.18678e-05 -3.63838e-20 5.9299e-22 2.8646e-17 -2.58494e-26 -2.58494e-26 0 5e-05 1.46608e-10 
57 1 0.38361 0.0192266 5.12599e-05 -3.50168e-19 3.36726e-21 2.67381e-16 -4.03897e-28 -3.36933e-27 0 5e-05 1.46608e-10 
59 1 0.378022 0.019866 0.005332 -5.01975e-15 -7.41198e-15 7.69802e-14 1.07275e-24 -1.55096e-24 0 5e-05 1.46608e-10 
60 1 0.384997 0.0170277 5.3077e-05 2.24032e-18 2.91391e-21 -1.71052e-15 0 -1.10865e-25 0 5e-05 1.46608e-10 
62 1 0.384469 0.0166233 5.23854e-05 2.24033e-18 3.88499e-22 -1.71052e-15 0 1.96852e-26 0 5e-05 1.46608e-10 
63 1 0.385119 0.0166834 5.32362e-05 2.24031e-18 -1.13505e-20 -1.71052e-15 0 1.34924e-25 0 5e-05 1.46608e-10 
64 1 0.383572 0.0182666 5.12106e-05 1.79761e-18 -8.95112e-24 -1.37249e-15 0 4.60739e-27 0 5e-05 1.46608e-10 
65 1 0.38415 0.0174668 5.19668e-05 2.24033e-18 7.84404e-22 -1.71052e-15 -4.03897e-28 3.77956e-25 0 5e-05 1.46608e-10 
66 1 0.384314 0.0196963 5.21813e-05 -3.50185e-19 -4.04798e-20 2.67381e-16 0 -4.45707e-25 0 5e-05 1.46608e-10 
67 1 0.38401 0.0186182 5.17838e-05 -3.50219e-19 -2.09477e-21 2.67382e-16 0 1.72426e-27 0 5e-05 1.46608e-10 
68 1 0.384443 0.0179216 0.000120816 -7.7729e-12 9.78431e-12 -2.46211e-12 -1.04574e-17 -1.01704e-17 2.23246e-18 5e-05 1.46608e-10 
69 1 0.383601 0.0187724 5.12477e-05 2.81057e-18 7.37675e-22 -2.14593e-15 0 4.80341e-27 0 5e-05 1.46608e-10 
70 1 0.383695 0.0199014 5.13714e-05 -3.5017e-19 -4.18946e-21 2.67381e-16 0 -1.36512e-26 0 5e-05 1.46608e-10 
71 1 0.383708 0.0192011 5.13883e-05 2.81058e-18 -1.36434e-21 -2.14593e-15 0 -1.63884e-27 0 5e-05 1.46608e-10 
72 1 0.383848 0.0178769 5.15715e-05 -2.19263e-19 1.84284e-21 1.69475e-16 0 0 0 5e-05 1.46608e-10 
73 1 0.384751 0.0204726 5.27548e-05 2.00505e-18 -1.08499e-21 -1.5309e-15 0 4.96636e-27 0 5e-05 1.46608e-10 
74 1 0.384789 0.0203241 5.2804e-05 8.71371e-19 8.09985e-21 -6.65298e-16 0 -5.65964e-26 0 5e-05 1.46608e-10 
76 1 0.384148 0.0172907 5.19645e-05 2.24034e-18 -8.19873e-23 -1.71052e-15 0 -3.26646e-27 0 5e-05 1.46608e-10 
77 1 0.384899 0.0180553 5.29479e-05 1.7976e-18 -1.37712e-22 -1.37249e-15 0 1.75645e-26 0 5e-05 1.46608e-10 
78 1 0.384454 0.0177342 5.23646e-05 2.24035e-18 -1.28591e-21 -1.71052e-15 0 -3.4131e-27 0 5e-05 1.46608e-10 
79 1 0.384159 0.0206443 5.19783e-05 2.00508e-18 2.88257e-21 -1.5309e-15 0 2.80774e-25 0 5e-05 1.46608e-10 
80 1 0.383985 0.017428 5.1751e-05 2.24034e-18 -3.06714e-21 -1.71051e-15 0 -3.47507e-26 0 5e-05 1.46608e-10 
82 1 0.384471 0.0161368 5.23876e-05 2.24035e-18 -5.58474e-21 -1.71051e-15 0 1.26534e-25 0 5e-05 1.46608e-10 
83 1 0.384894 0.0205458 5.29418e-05 2.00509e-18 -2.9382e-24 -1.5309e-15 0 -9.53107e-27 0 5e-05 1.46608e-10 
84 1 0.383993 0.0188764 5.17615e-05 5.32343e-19 -6.61987e-21 -4.06404e-16 0 0 0 5e-05 1.46608e-10 
85 1 0.383849 0.0193448 5.15725e-05 1.03568e-19 -3.96662e-22 -8.03914e-17 0 0 0 5e-05 1.46608e-10 
86 1 0.383935 0.0179283 5.16858e-05 -9.20519e-19 6.23171e-22 7.02843e-16 0 -3.68915e-27 0 5e-05 1.46608e-10 
87 1 0.384931 0.0175954 5.29902e-05 1.79759e-18 1.32717e-21 -1.37249e-15 0 2.6401e-26 0 5e-05 1.46608e-10 
88 1 0.383272 0.0191349 0.0052273 1.28258e-16 -6.36445e-21 3.78515e-14 0 -1.06969e-25 0 5e-05 1.46608e-10 
89 1 0.38382 0.0176837 5.15355e-05 2.24036e-18 -3.21437e-21 -1.71051e-15 0 4.25007e-26 0 5e-05 1.46608e-10 
90 1 0.384046 0.0179367 5.18308e-05 2.24035e-18 -3.09589e-22 -1.71052e-15 0 2.68119e-26 0 5e-05 1.46608e-10 
91 1 0.384723 0.0172283 5.27177e-05 2.24036e-18 1.30041e-21 -1.71052e-15 0 3.33209e-26 0 5e-05 1.46608e-10 
92 1 0.384191 0.017054 5.20202e-05 -9.20526e-19 -6.46055e-22 7.02843e-16 0 1.37824e-26 0 5e-05 1.46608e-10 
93 1 0.383736 0.0207666 5.1425e-05 -1.15569e-18 6.71444e-22 8.82406e-16 0 -5.43777e-26 0 5e-05 1.46608e-10 
94 1 0.383683 0.0188356 5.13558e-05 -3.50202e-19 2.07905e-20 2.67383e-16 0 -1.27227e-25 0 5e-05 1.46608e-10 
95 1 0.384606 0.0176837 5.25637e-05 4.84256e-19 5.29766e-21 -3.71584e-16 0 0 0 5e-05 1.46608e-10 
96 1 0.38444 0.0183063 5.23472e-05 1.79761e-18 -1.08187e-23 -1.37251e-15 0 4.92729e-28 0 5e-05 1.46608e-10 
98 1 0.383724 0.0194164 5.14094e-05 -3.50193e-19 7.02566e-22 2.67382e-16 0 8.23075e-26 0 5e-05 1.46608e-10 
99 1 0.384303 0.0183686 5.21674e-05 1.7976e-18 1.47591e-21 -1.37249e-15 0 -6.38458e-26 0 5e-05 1.46608e-10 
100 1 0.384848 0.0173718 5.28812e-05 2.24037e-18 6.06007e-21 -1.71052e-15 0 -4.10444e-26 0 5e-05 1.46608e-10 
101 1 0.384322 0.0214999 5.21918e-05 2.00504e-18 -2.74883e-21 -1.5309e-15 0 7.09012e-26 0 5e-05 1.46608e-10 
102 1 0.0643568 0.0187248 0.00531097 4.22086e-15 1.05599e-14 8.29545e-14 -5.90465e-22 6.14052e-22 -4.63221e-23 5e-05 1.46608e-10 
103 1 0.24257 0.0191927 0.00520306 5.30818e-23 4.86658e-23 1.23839e-22 0 0 0 5e-05 1.46608e-10 
104 1 0.384443 0.0190455 5.23502e-05 -3.50166e-19 -1.35273e-22 2.67381e-16 0 1.60992e-26 0 5e-05 1.46608e-10 
105 1 0.384764 0.0176468 0.000125094 1.12011e-19 3.83757e-21 -7.99276e-17 3.87741e-26 0 2.06795e-25 5e-05 1.46608e-10 
106 1 0.383893 0.0187182 5.16305e-05 7.79461e-19 2.91977e-21 -5.98255e-16 0 0 0 5e-05 1.46608e-10 
107 1 0.385147 0.0177812 0.000122873 -8.24881e-21 -3.69163e-21 -2.81824e-21 0 1.29247e-26 0 5e-05 1.46608e-10 
108 1 0.383662 0.0180867 5.13271e-05 -7.98494e-19 3.64882e-21 6.0885e-16 0 0 0 5e-05 1.46608e-10 
109 1 0.384177 0.0192838 5.20024e-05 2.81059e-18 1.57939e-20 -2.14593e-15 0 -2.61193e-26 0 5e-05 1.46608e-10 
110 1 0.384493 0.0193015 5.24162e-05 2.81054e-18 1.53781e-22 -2.14593e-15 0 -6.80205e-28 0 5e-05 1.46608e-10 
111 1 0.384709 0.0176058 5.26985e-05 1.06285e-19 -1.71204e-21 -7.99227e-17 0 -6.46235e-27 0 5e-05 1.46608e-10 
112 1 0.384647 0.0185896 5.26184e-05 1.79764e-18 -1.13353e-21 -1.37251e-15 0 1.00571e-25 0 5e-05 1.46608e-10 
113 1 0.383921 0.0178347 0.00010527 -2.24531e-19 1.21632e-20 1.69473e-16 1.03398e-25 2.58494e-26 0 5e-05 1.46608e-10 
114 1 0.384105 0.0183256 5.19082e-05 1.79755e-18 2.68645e-22 -1.37249e-15 0 1.82316e-25 0 5e-05 1.46608e-10 
115 1 0.38367 0.0183173 5.13384e-05 1.7976e-18 1.03103e-21 -1.37251e-15 0 -1.64112e-26 0 5e-05 1.46608e-10 
116 1 0.383786 0.0180677 5.14897e-05 2.24037e-18 1.91677e-22 -1.71052e-15 0 1.60164e-26 0 5e-05 1.46608e-10 
117 1 0.384446 0.0168712 5.23543e-05 -9.36333e-19 6.68414e-21 7.02812e-16 1.74483e-25 -6.46235e-26 0 5e-05 1.46608e-10 
118 1 0.383701 0.0187017 5.13793e-05 -3.502e-19 1.44932e-22 2.67381e-16 0 -1.09693e-27 0 5e-05 1.46608e-10 
119 1 0.383906 0.018619 5.16476e-05 7.84562e-19 4.53956e-22 -5.98253e-16 0 0 0 5e-05 1.46608e-10 
120 1 0.384144 0.01791 5.19592e-05 2.50227e-14 -9.76567e-15 -6.72007e-15 2.49999e-19 -7.98877e-20 -2.4712e-21 5e-05 1.46608e-10 
121 1 0.384817 0.0185465 5.28405e-05 1.79759e-18 -1.05544e-21 -1.37251e-15 0 9.18808e-26 0 5e-05 1.46608e-10 
122 1 0.384225 0.0179695 5.20647e-05 -4.0153e-14 3.66276e-14 -4.48338e-14 1.84587e-19 1.00665e-20 4.08433e-20 5e-05 1.46608e-10 
123 1 0.383933 0.0192279 5.16831e-05 1.05166e-19 1.60477e-21 -8.03881e-17 0 2.58494e-26 0 5e-05 1.46608e-10 
124 1 0.384096 0.0170045 5.18952e-05 -4.98047e-21 -8.78486e-21 -4.17044e-19 0 0 0 5e-05 1.46608e-10 
125 1 0.384626 0.016764 5.25911e-05 2.24036e-18 1.04484e-20 -1.71052e-15 -4.03897e-28 4.34464e-26 0 5e-05 1.46608e-10 
127 1 0.384295 0.018231 0.000129802 1.54118e-20 1.36221e-20 -7.47673e-18 0 0 0 5e-05 1.46608e-10 
128 1 0.384383 0.0169852 5.22722e-05 -9.20523e-19 1.40955e-22 7.02842e-16 0 -2.82078e-26 0 5e-05 1.46608e-10 
129 1 0.383806 0.0179676 5.15164e-05 -2.20385e-19 1.60392e-23 1.69475e-16 0 0 0 5e-05 1.46608e-10 
130 1 0.383859 0.0175842 5.15859e-05 2.24036e-18 -5.19709e-22 -1.71052e-15 0 -7.51707e-27 0 5e-05 1.46608e-10 
131 1 0.38345 0.0177196 0.00536012 -3.86291e-17 2.71559e-14 8.96737e-14 2.5273e-22 3.21566e-22 -9.76073e-23 5e-05 1.46608e-10 
132 1 0.384418 0.0164926 5.23174e-05 2.24037e-18 -7.82697e-22 -1.71052e-15 0 1.34146e-26 0 5e-05 1.46608e-10 
133 1 0.383591 0.0185347 5.12355e-05 -3.50208e-19 -2.29305e-20 2.67382e-16 0 3.29063e-25 0 5e-05 1.46608e-10 
134 1 0.383574 0.0183691 5.12127e-05 2.81058e-18 6.55603e-22 -2.14593e-15 0 -6.16389e-26 0 5e-05 1.46608e-10 
135 1 0.383667 0.0199993 5.13343e-05 2.81056e-18 -1.14811e-22 -2.14593e-15 0 3.43413e-27 0 5e-05 1.46608e-10 
136 1 0.384475 0.0176309 5.23931e-05 -9.20551e-19 2.24693e-20 7.02843e-16 0 7.96241e-27 0 5e-05 1.46608e-10 
137 1 0.383925 0.0184105 5.16721e-05 1.79755e-18 -4.76112e-23 -1.37249e-15 0 -2.02424e-28 0 5e-05 1.46608e-10 
138 1 0.384418 0.0178531 5.23181e-05 1.95872e-12 2.00097e-12 3.12436e-14 1.13709e-18 2.92951e-18 -4.22175e-18 5e-05 1.46608e-10 
140 1 0.384798 0.0171606 5.28155e-05 2.24032e-18 8.44384e-21 -1.71052e-15 0 3.00087e-26 0 5e-05 1.46608e-10 
141 1 0.384313 0.0171449 5.21807e-05 2.24031e-18 -2.14504e-21 -1.71052e-15 0 -8.6113e-26 0 5e-05 1.46608e-10 
142 1 0.385769 0.0165473 5.40881e-05 1.45286e-18 6.48511e-21 -1.10923e-15 0 -2.08102e-26 0 5e-05 1.46608e-10 
143 1 0.384333 0.0177947 5.22067e-05 -5.13236e-19 -2.75858e-21 3.87842e-16 0 0 0 5e-05 1.46608e-10 
144 1 0.384385 0.0195542 5.22753e-05 -3.50221e-19 1.89873e-20 2.67381e-16 0 -1.98733e-25 0 5e-05 1.46608e-10 
146 1 0.384085 0.018684 5.18824e-05 2.81059e-18 1.46362e-21 -2.14593e-15 0 -3.95656e-27 0 5e-05 1.46608e-10 
147 1 0.384719 0.0170987 5.27125e-05 2.24033e-18 -2.70127e-20 -1.71052e-15 0 -1.12945e-25 0 5e-05 1.46608e-10 
148 1 0.383894 0.0174902 5.16321e-05 2.24034e-18 1.73331e-21 -1.71052e-15 0 -4.97498e-27 0 5e-05 1.46608e-10 
149 1 0.384744 0.0173967 5.27447e-05 -1.1676e-19 -5.86205e-22 9.01843e-17 0 0 0 5e-05 1.46608e-10 
150 1 0.383756 0.0184867 5.14508e-05 2.81059e-18 -2.99317e-21 -2.14593e-15 0 -1.4323e-25 0 5e-05 1.46608e-10 
151 1 0.384727 0.0201861 5.27225e-05 8.71348e-19 1.29356e-20 -6.65298e-16 0 -2.51124e-26 0 5e-05 1.46608e-10 
153 1 0.384074 0.0170516 0.000137426 -3.37944e-20 -8.45672e-21 -3.85003e-21 -8.40105e-26 9.69352e-26 1.30863e-25 5e-05 1.46608e-10 
154 1 0.384584 0.0177681 0.000101539 4.9947e-19 -1.96638e-21 -3.71584e-16 0 2.58494e-26 -2.06795e-25 5e-05 1.46608e-10 
155 1 0.384544 0.0163094 5.24825e-05 -9.20532e-19 7.04561e-21 7.02844e-16 4.03897e-28 2.6222e-25 0 5e-05 1.46608e-10 
156 1 0.384233 0.0168376 5.20754e-05 2.24036e-18 4.54487e-23 -1.71051e-15 0 -4.379e-27 0 5e-05 1.46608e-10 
157 1 0.0219312 0.0187687 0.00551176 -3.82729e-14 8.16614e-14 2.95897e-13 -9.86878e-22 -3.86293e-22 -2.27475e-23 5e-05 1.46608e-10 
158 1 0.384319 0.0167636 5.21878e-05 2.24034e-18 6.34016e-20 -1.71052e-15 0 -4.80289e-25 0 5e-05 1.46608e-10 
159 1 0.384228 0.0177075 5.20694e-05 -5.02203e-19 -1.07088e-21 3.87838e-16 0 -5.16988e-26 0 5e-05 1.46608e-10 
160 1 0.38353 0.0176621 0.00537757 2.67915e-17 2.72391e-14 8.96485e-14 -2.58158e-22 -3.28339e-22 9.98821e-23 5e-05 1.46608e-10 
162 1 0.38396 0.0191288 5.17179e-05 -3.50186e-19 -1.52733e-22 2.6738e-16 0 2.18867e-27 0 5e-05 1.46608e-10 
165 1 0.384146 0.0189135 5.19615e-05 -3.50186e-19 4.29417e-21 2.6738e-16 0 -5.23155e-26 0 5e-05 1.46608e-10 
166 1 0.384895 0.0168866 5.2943e-05 -9.20553e-19 6.6272e-21 7.02845e-16 0 4.7429e-25 0 5e-05 1.46608e-10 
167 1 0.384921 0.0196039 5.29764e-05 8.71366e-19 1.0644e-20 -6.65297e-16 0 -6.31144e-26 0 5e-05 1.46608e-10 
168 1 0.383956 0.019484 5.17133e-05 2.81058e-18 -2.73607e-22 -2.14593e-15 -4.03897e-28 -8.71473e-27 0 5e-05 1.46608e-10 
169 1 0.383755 0.019009 5.14493e-05 2.81055e-18 -9.16662e-23 -2.14593e-15 0 -2.63428e-26 0 5e-05 1.46608e-10 
170 1 0.383888 0.0184727 0.00523166 6.88188e-16 -4.57689e-15 -5.98175e-14 -1.74483e-24 1.16322e-25 0 5e-05 1.46608e-10 
171 1 0.384004 0.0193816 5.17764e-05 2.81059e-18 1.75692e-21 -2.14593e-15 0 -3.04084e-26 0 5e-05 1.46608e-10 
172 1 0.384121 0.0171522 0.000126213 -4.22386e-20 4.13352e-21 2.86317e-17 2.58494e-26 0 0 5e-05 1.46608e-10 
173 1 0.384268 0.0190399 5.21214e-05 -3.50211e-19 6.36536e-21 2.67381e-16 -4.03897e-28 1.99715e-25 0 5e-05 1.46608e-10 
174 1 0.384105 0.0178224 7.97669e-05 4.02476e-15 1.53013e-15 3.56611e-16 4.36643e-20 -3.97968e-20 -1.17205e-19 5e-05 1.46608e-10 
176 1 0.384124 0.018008 5.19332e-05 5.22632e-15 -4.87156e-15 2.09015e-15 1.08394e-19 1.89773e-20 -6.8656e-21 5e-05 1.46608e-10 
177 1 0.38435 0.018262 5.22293e-05 1.45743e-20 -2.15755e-22 -7.47398e-18 0 0 0 5e-05 1.46608e-10 
178 1 0.384053 0.0189567 5.184e-05 2.81059e-18 6.58204e-23 -2.14593e-15 0 -2.72601e-27 0 5e-05 1.46608e-10 
179 1 0.3843 0.0186551 5.2163e-05 1.79759e-18 -3.99014e-21 -1.37251e-15 0 9.62482e-26 0 5e-05 1.46608e-10 
182 1 0.384992 0.0180145 5.30695e-05 1.79759e-18 -3.10371e-21 -1.37251e-15 0 6.22006e-26 0 5e-05 1.46608e-10 
183 1 0.386759 0.0152483 5.53836e-05 1.45281e-18 6.31992e-21 -1.10923e-15 0 7.68719e-26 0 5e-05 1.46608e-10 
184 1 0.383617 0.019327 5.12691e-05 2.81058e-18 -2.73959e-22 -2.14593e-15 0 2.66412e-26 0 5e-05 1.46608e-10 
185 1 0.384403 0.0192492 5.22987e-05 -3.50193e-19 3.44866e-21 2.67381e-16 0 1.64344e-26 0 5e-05 1.46608e-10 
186 1 0.384249 0.018274 5.20972e-05 1.14818e-20 -3.40683e-22 -7.47483e-18 0 0 0 5e-05 1.46608e-10 
187 1 0.38373 0.0197118 5.14173e-05 -3.50223e-19 -1.0282e-21 2.67381e-16 0 -5.44162e-26 0 5e-05 1.46608e-10 
188 1 0.385076 0.0179467 5.31802e-05 1.7976e-18 -2.52673e-20 -1.37249e-15 0 7.80542e-26 0 5e-05 1.46608e-10 
189 1 0.38396 0.0177554 5.17178e-05 2.24036e-18 8.87432e-22 -1.71051e-15 0 4.6358e-27 0 5e-05 1.46608e-10 
190 1 0.383867 0.0210849 5.15964e-05 -1.1557e-18 -1.70363e-20 8.82406e-16 0 -2.43148e-25 0 5e-05 1.46608e-10 
191 1 0.384706 0.0184769 5.26952e-05 1.79755e-18 -1.83781e-21 -1.37249e-15 0 -2.84934e-26 0 5e-05 1.46608e-10 
192 1 0.384023 0.0181084 5.1801e-05 2.04811e-15 -1.69312e-15 2.2725e-16 1.44015e-20 1.42802e-21 -1.34897e-20 5e-05 1.46608e-10 
193 1 0.383672 0.0184195 5.13415e-05 -3.50175e-19 3.19443e-21 2.67382e-16 0 1.34491e-26 0 5e-05 1.46608e-10 
194 1 0.384122 0.0182248 5.1931e-05 1.79755e-18 2.74319e-20 -1.37249e-15 0 9.42516e-26 0 5e-05 1.46608e-10 
195 1 0.383967 0.0181955 5.17273e-05 1.79763e-18 1.70929e-21 -1.37251e-15 0 -2.19736e-26 0 5e-05 1.46608e-10 
196 1 0.384122 0.0181236 5.19307e-05 1.79759e-18 6.71731e-23 -1.37249e-15 0 -3.2115e-28 0 5e-05 1.46608e-10 
197 1 0.383676 0.0181534 0.000124512 -8.10414e-19 2.14876e-21 6.08853e-16 0 0 0 5e-05 1.46608e-10 
198 1 0.383816 0.019228 5.15292e-05 1.08955e-19 8.20712e-23 -8.03862e-17 0 0 0 5e-05 1.46608e-10 
199 1 0.38465 0.0174377 5.26211e-05 -1.2028e-19 -3.72492e-22 9.01927e-17 0 2.58494e-26 0 5e-05 1.46608e-10 
200 1 0.3851 0.0177266 5.32113e-05 -5.63914e-22 3.18074e-21 1.10769e-20 0 0 0 5e-05 1.46608e-10 
201 1 0.385006 0.0158243 5.30884e-05 1.45284e-18 5.05828e-22 -1.10923e-15 4.03897e-28 -1.05096e-26 0 5e-05 1.46608e-10 
202 1 0.385094 0.0174355 5.32031e-05 1.7976e-18 -9.16876e-22 -1.37251e-15 0 2.24296e-26 0 5e-05 1.46608e-10 
203 1 0.384504 0.0179623 5.24301e-05 -4.45539e-12 4.74772e-12 -1.26649e-12 5.78498e-18 -1.20036e-17 -1.33266e-18 5e-05 1.46608e-10 
204 1 0.384109 0.0184302 5.19127e-05 1.79762e-18 -2.57114e-23 -1.37251e-15 0 -4.06684e-26 0 5e-05 1.46608e-10 
205 1 0.384524 0.0174713 5.24569e-05 2.24031e-18 2.53692e-22 -1.71052e-15 0 7.464e-26 0 5e-05 1.46608e-10 
206 1 0.38435 0.0178614 0.000125081 1.26203e-12 5.30988e-13 5.17639e-13 -1.82362e-17 -2.81782e-19 -1.33945e-18 5e-05 1.46608e-10 
207 1 0.385023 0.0181691 5.31107e-05 1.79764e-18 -4.34707e-22 -1.37251e-15 0 1.71139e-27 0 5e-05 1.46608e-10 
208 1 0.385037 0.0175739 5.31289e-05 1.79761e-18 9.53816e-22 -1.37249e-15 0 -4.39147e-26 0 5e-05 1.46608e-10 
209 1 0.383886 0.018028 5.16209e-05 1.82003e-16 8.04936e-17 -1.39512e-15 1.39098e-20 -2.83904e-21 1.58467e-21 5e-05 1.46608e-10 
210 1 0.384526 0.016716 5.24592e-05 2.24031e-18 -3.52518e-22 -1.71051e-15 0 -1.80201e-25 0 5e-05 1.46608e-10 
211 1 0.384505 0.0171609 5.24316e-05 2.24032e-18 9.17805e-21 -1.71052e-15 0 -7.94892e-26 0 5e-05 1.46608e-10 
212 1 0.383978 0.0185238 0.00522879 -2.82525e-15 1.87927e-14 2.4561e-13 -1.29247e-25 3.87741e-26 0 5e-05 1.46608e-10 
213 1 0.383846 0.0191172 5.15692e-05 2.81055e-18 1.46444e-21 -2.14593e-15 0 2.11844e-26 0 5e-05 1.46608e-10 
214 1 0.384625 0.017537 5.25895e-05 9.18212e-20 -1.63426e-21 -7.992e-17 0 -5.16988e-26 0 5e-05 1.46608e-10 
215 1 0.385553 0.0152374 5.38047e-05 1.45282e-18 -1.21618e-21 -1.10923e-15 0 -6.59881e-27 0 5e-05 1.46608e-10 
217 1 0.384411 0.0184417 5.23083e-05 1.79759e-18 -2.18805e-21 -1.37251e-15 0 4.47514e-26 0 5e-05 1.46608e-10 
218 1 0.384302 0.0165156 5.21656e-05 -9.2057e-19 1.31103e-20 7.02843e-16 0 -9.86434e-26 0 5e-05 1.46608e-10 
219 1 0.384399 0.0186101 5.22929e-05 1.79759e-18 -6.37082e-22 -1.37251e-15 0 -1.11456e-25 0 5e-05 1.46608e-10 
220 1 0.384943 0.0187045 5.30057e-05 1.79761e-18 1.63622e-22 -1.37251e-15 0 1.05352e-26 0 5e-05 1.46608e-10 
222 1 0.384205 0.0180675 5.20391e-05 -4.5428e-14 -1.92731e-15 -2.86306e-14 2.89806e-19 -1.98754e-19 -1.23489e-19 5e-05 1.46608e-10 
224 1 0.384058 0.0177382 5.18467e-05 -1.16204e-14 9.59174e-15 1.39661e-15 6.66056e-21 6.64894e-20 -1.7159e-20 5e-05 1.46608e-10 
225 1 0.384811 0.0174713 5.28328e-05 9.65389e-20 5.46396e-21 -7.99125e-17 0 0 0 5e-05 1.46608e-10 
226 1 0.383884 0.0196254 5.16191e-05 -3.50175e-19 2.40757e-21 2.67381e-16 0 -1.04109e-25 0 5e-05 1.46608e-10 
227 1 0.384574 0.0160758 5.25222e-05 2.24035e-18 1.55413e-20 -1.71052e-15 4.03897e-28 -6.96196e-26 0 5e-05 1.46608e-10 
228 1 0.384056 0.0180406 0.000117497 -2.3662e-15 -1.06882e-15 1.7749e-15 1.02119e-20 -2.39541e-21 2.03203e-20 5e-05 1.46608e-10 
229 1 0.384183 0.0194731 5.201e-05 -3.50168e-19 -8.57386e-21 2.67382e-16 0 3.79756e-26 0 5e-05 1.46608e-10 
230 1 0.385084 0.0171004 5.31901e-05 -9.20547e-19 1.975e-21 7.02844e-16 0 -8.15602e-27 0 5e-05 1.46608e-10 
232 1 0.38345 0.0186594 0.00522432 -5.74109e-14 6.89342e-19 -1.77479e-13 0 1.73666e-23 2.06795e-25 5e-05 1.46608e-10 
233 1 0.384483 0.016964 5.24031e-05 -9.04149e-19 -6.64924e-21 7.02812e-16 -1.7933e-25 6.46235e-26 0 5e-05 1.46608e-10 
234 1 0.384564 0.0189811 5.25095e-05 -3.50169e-19 6.38232e-21 2.67382e-16 0 2.87235e-26 0 5e-05 1.46608e-10 
235 1 0.385129 0.0178507 5.32485e-05 1.11177e-22 -8.43281e-22 -2.2895e-21 0 -2.58494e-26 0 5e-05 1.46608e-10 
236 1 0.385096 0.0164501 5.32056e-05 -9.20539e-19 -1.51709e-20 7.02842e-16 0 -3.17114e-26 0 5e-05 1.46608e-10 
237 1 0.383933 0.0187648 0.000130442 7.6957e-19 4.10347e-21 -5.98258e-16 -2.58494e-26 0 0 5e-05 1.46608e-10 
239 1 0.384687 0.0169933 5.26707e-05 2.24037e-18 -2.26016e-22 -1.71051e-15 0 2.20992e-27 0 5e-05 1.46608e-10 
240 1 0.384262 0.0177729 0.000119547 -5.1749e-19 -6.83818e-21 3.87839e-16 2.58494e-26 0 0 5e-05 1.46608e-10 
241 1 0.384801 0.0166583 5.28192e-05 2.24031e-18 -2.57562e-21 -1.71051e-15 0 -1.63161e-26 0 5e-05 1.46608e-10 
242 1 0.383909 0.0188216 5.16519e-05 7.81691e-19 2.28287e-21 -5.98258e-16 0 0 0 5e-05 1.46608e-10 
243 1 0.38439 0.0209101 5.22816e-05 2.00503e-18 -1.65505e-20 -1.5309e-15 0 -4.53956e-25 0 5e-05 1.46608e-10 
244 1 0.384493 0.0173689 9.64047e-05 -1.28847e-19 3.82494e-21 9.019e-17 0 0 0 5e-05 1.46608e-10 
246 1 0.38382 0.0188681 5.15345e-05 -3.5019e-19 2.3615e-22 2.6738e-16 0 1.34216e-27 0 5e-05 1.46608e-10 
247 1 0.384541 0.017902 0.000125062 2.75193e-11 9.31442e-11 1.36445e-13 -1.13118e-17 -1.05805e-16 4.00493e-17 5e-05 1.46608e-10 
248 1 0.383639 0.0189866 5.12974e-05 -3.50175e-19 -1.18997e-21 2.67381e-16 0 -2.38915e-26 0 5e-05 1.46608e-10 
249 1 0.38453 0.020178 5.24643e-05 8.71342e-19 1.19096e-20 -6.65297e-16 -4.03897e-28 1.39326e-25 0 5e-05 1.46608e-10 
250 1 0.384661 0.0178084 5.26366e-05 4.86993e-19 -9.09462e-22 -3.71585e-16 0 0 0 5e-05 1.46608e-10 
251 1 0.384005 0.0178448 5.17769e-05 -2.26458e-19 4.33901e-22 1.69486e-16 -1.03398e-25 -3.23117e-27 0 5e-05 1.46608e-10 
252 1 0.384145 0.0205426 5.19607e-05 8.71373e-19 -8.04254e-21 -6.65298e-16 0 2.13837e-25 0 5e-05 1.46608e-10 
253 1 0.383856 0.0203056 5.15822e-05 2.81054e-18 1.43356e-20 -2.14593e-15 0 2.52691e-25 0 5e-05 1.46608e-10 
254 1 0.38515 0.0175249 5.32762e-05 1.79757e-18 1.42301e-21 -1.37249e-15 4.03897e-28 1.81929e-25 0 5e-05 1.46608e-10 
255 1 0.383703 0.0182157 5.13821e-05 -7.98206e-19 1.93859e-21 6.08848e-16 0 0 0 5e-05 1.46608e-10 
256 1 0.384352 0.0191511 5.22319e-05 -3.50198e-19 6.19246e-22 2.67382e-16 4.03897e-28 4.12117e-27 0 5e-05 1.46608e-10 
257 1 0.384531 0.0168171 5.24664e-05 2.24036e-18 4.97191e-23 -1.71051e-15 4.03897e-28 7.33369e-28 0 5e-05 1.46608e-10 
258 1 0.383662 0.0204201 5.13284e-05 -5.14035e-22 2.47771e-23 1.03396e-21 0 0 0 5e-05 1.46608e-10 
259 1 0.384524 0.0216685 5.24571e-05 2.00508e-18 -7.865e-21 -1.5309e-15 0 -1.39151e-25 0 5e-05 1.46608e-10 
260 1 0.384677 0.0173224 5.2657e-05 -1.16855e-19 -3.49096e-21 9.01854e-17 0 0 0 5e-05 1.46608e-10 
261 1 0.383833 0.0185505 5.15522e-05 -3.50221e-19 1.80499e-22 2.67381e-16 0 -4.78178e-28 0 5e-05 1.46608e-10 
262 1 0.384455 0.0172873 5.2367e-05 -1.18013e-19 7.27152e-22 9.01923e-17 2.58494e-26 0 0 5e-05 1.46608e-10 
263 1 0.384148 0.018808 5.1965e-05 -3.50208e-19 2.18608e-20 2.67382e-16 0 -2.42258e-25 0 5e-05 1.46608e-10 
264 1 0.383874 0.0192744 0.000117813 9.95276e-20 3.14243e-21 -8.03892e-17 0 0 0 5e-05 1.46608e-10 
265 1 0.384664 0.0180562 5.26402e-05 1.7976e-18 -1.09418e-21 -1.37251e-15 0 -2.9238e-26 0 5e-05 1.46608e-10 
266 1 0.383681 0.0195344 5.13528e-05 -3.50209e-19 -9.87495e-22 2.67382e-16 0 -3.7156e-26 0 5e-05 1.46608e-10 
267 1 0.384035 0.0173399 5.18167e-05 2.24037e-18 1.32347e-22 -1.71052e-15 0 -1.30162e-29 0 5e-05 1.46608e-10 
268 1 0.384513 0.0181523 5.24423e-05 1.7976e-18 -2.61826e-21 -1.37251e-15 0 -3.41466e-26 0 5e-05 1.46608e-10 
269 1 0.383985 0.018016 5.17508e-05 7.86025e-16 -7.18079e-17 -6.31717e-16 2.72129e-20 -9.13652e-21 -4.96391e-21 5e-05 1.46608e-10 
270 1 0.384204 0.0178183 5.2038e-05 -5.04277e-19 2.75292e-21 3.87841e-16 0 0 0 5e-05 1.46608e-10 
271 1 0.384204 0.0183848 5.20381e-05 1.79763e-18 9.92724e-22 -1.37251e-15 -4.03897e-28 1.08408e-26 0 5e-05 1.46608e-10 
272 1 0.384044 0.0177752 0.000143609 -1.68196e-14 4.23224e-15 4.6038e-15 -1.24067e-19 -6.21859e-21 5.17701e-20 5e-05 1.46608e-10 
273 1 0.38425 0.0173241 5.20975e-05 2.24032e-18 2.0569e-21 -1.71051e-15 4.03897e-28 4.62109e-26 0 5e-05 1.46608e-10 
274 1 0.383762 0.0206306 5.14594e-05 8.71386e-19 2.48016e-22 -6.65298e-16 0 3.43338e-28 0 5e-05 1.46608e-10 
275 1 0.385192 0.0170617 5.33312e-05 -9.20524e-19 5.26281e-22 7.02844e-16 0 -4.53453e-27 0 5e-05 1.46608e-10 
276 1 0.3843 0.0175031 5.2164e-05 2.24035e-18 -1.86125e-21 -1.71052e-15 0 -1.57176e-26 0 5e-05 1.46608e-10 
277 1 0.384989 0.0177301 5.30663e-05 1.79759e-18 4.38782e-23 -1.37249e-15 0 -6.06805e-28 0 5e-05 1.46608e-10 
278 1 0.384608 0.0171655 5.25668e-05 2.24031e-18 1.69996e-22 -1.71052e-15 0 3.02383e-27 0 5e-05 1.46608e-10 
280 1 0.383746 0.0191087 5.14383e-05 2.81056e-18 1.43929e-22 -2.14593e-15 0 -2.27836e-26 0 5e-05 1.46608e-10 
281 1 0.384897 0.0194055 5.2945e-05 8.71334e-19 1.70719e-21 -6.65298e-16 0 5.64749e-26 0 5e-05 1.46608e-10 
283 1 0.384732 0.0167368 5.27299e-05 2.24035e-18 -8.696e-21 -1.71052e-15 0 4.00692e-26 0 5e-05 1.46608e-10 
284 1 0.383859 0.0194467 5.15855e-05 2.81055e-18 1.03187e-22 -2.14593e-15 0 1.09197e-26 0 5e-05 1.46608e-10 
285 1 0.384511 0.017816 5.24399e-05 4.89768e-19 -2.16841e-21 -3.71586e-16 0 0 0 5e-05 1.46608e-10 
286 1 0.384761 0.017818 5.27671e-05 4.87798e-19 -1.8299e-21 -3.71586e-16 0 0 0 5e-05 1.46608e-10 
287 1 0.384417 0.0167417 5.23161e-05 2.24033e-18 -4.01442e-21 -1.71052e-15 0 -1.24686e-25 0 5e-05 1.46608e-10 
288 1 0.384905 0.0179551 5.29553e-05 1.79762e-18 3.32536e-22 -1.37251e-15 0 -8.77317e-26 0 5e-05 1.46608e-10 
290 1 0.38472 0.0175079 6.94547e-05 1.09621e-19 -7.7696e-21 -7.99229e-17 3.23117e-26 3.87741e-26 2.06795e-25 5e-05 1.46608e-10 
291 1 0.38371 0.0179981 5.13903e-05 2.24036e-18 8.53999e-22 -1.71052e-15 0 -3.43237e-27 0 5e-05 1.46608e-10 
292 1 0.384101 0.0193494 5.19028e-05 -3.50213e-19 3.38528e-21 2.67381e-16 0 -5.70532e-26 0 5e-05 1.46608e-10 
293 1 0.384429 0.0174321 5.23324e-05 -1.22015e-19 4.06667e-23 9.0189e-17 0 -2.58494e-26 0 5e-05 1.46608e-10 
294 1 0.383845 0.0189654 5.1567e-05 5.31324e-19 -3.4434e-22 -4.06399e-16 0 0 0 5e-05 1.46608e-10 
295 1 0.383647 0.0190875 5.13083e-05 -3.50168e-19 1.0627e-23 2.67381e-16 0 1.20466e-28 0 5e-05 1.46608e-10 
296 1 0.384035 0.0172167 0.000137258 -7.39806e-18 9.55204e-19 3.97739e-17 1.55096e-25 1.03398e-25 2.06795e-25 5e-05 1.46608e-10 
297 1 0.383829 0.0183804 5.15472e-05 1.7976e-18 -1.38481e-21 -1.37251e-15 0 6.46686e-27 0 5e-05 1.46608e-10 
298 1 0.384428 0.0175321 5.23311e-05 -1.1808e-19 3.55022e-21 9.01785e-17 -6.46235e-27 0 0 5e-05 1.46608e-10 
299 1 0.38404 0.0171308 0.000188309 -1.29386e-17 3.0405e-17 1.99969e-17 5.16988e-26 -1.03398e-25 -2.06795e-25 5e-05 1.46608e-10 
300 1 0.383994 0.0172487 5.17625e-05 -5.78208e-20 1.88615e-21 5.06124e-17 0 0 0 5e-05 1.46608e-10 
