ITEM: TIMESTEP
65400000
ITEM: NUMBER OF ATOMS
267
ITEM: BOX BOUNDS ff ff ff
-0.02 0.43
-0.02 0.06
-0.02 0.07
ITEM: ATOMS id type x y z vx vy vz fx fy fz radius mass 
1 1 0.383991 0.0187433 5.17579e-05 6.24039e-13 7.47253e-12 -2.65899e-12 5.31e-17 3.82102e-19 -2.61211e-17 5e-05 1.46608e-10 
2 1 0.384819 0.0170553 5.28427e-05 -9.20544e-19 1.73255e-20 7.02844e-16 0 1.85737e-25 0 5e-05 1.46608e-10 
4 1 0.384087 0.0172078 5.1884e-05 -2.17307e-20 6.33523e-23 -3.98409e-20 0 0 0 5e-05 1.46608e-10 
6 1 0.38485 0.0177728 5.28839e-05 1.79763e-18 1.50774e-21 -1.37251e-15 4.03897e-28 9.5698e-27 0 5e-05 1.46608e-10 
7 1 0.384289 0.0192285 5.21489e-05 2.81059e-18 -6.16647e-22 -2.14593e-15 0 9.65093e-27 0 5e-05 1.46608e-10 
8 1 0.384427 0.0170974 5.23295e-05 2.24032e-18 -6.89766e-22 -1.71051e-15 4.03897e-28 1.37184e-26 0 5e-05 1.46608e-10 
9 1 0.383728 0.017891 5.14147e-05 -2.15185e-21 -1.42558e-20 6.87807e-20 2.58494e-26 0 0 5e-05 1.46608e-10 
10 1 0.384909 0.0174916 5.29614e-05 1.79757e-18 1.56051e-21 -1.37249e-15 0 3.24342e-27 0 5e-05 1.46608e-10 
11 1 0.383705 0.0185838 5.13839e-05 2.81055e-18 5.91011e-21 -2.14593e-15 0 -5.45632e-27 0 5e-05 1.46608e-10 
12 1 0.384273 0.0169429 5.21284e-05 2.24034e-18 -4.17098e-22 -1.71052e-15 0 1.04436e-26 0 5e-05 1.46608e-10 
13 1 0.384606 0.017892 5.25648e-05 -1.13367e-18 -6.68889e-21 8.63001e-16 0 0 0 5e-05 1.46608e-10 
14 1 0.383935 0.0189496 0.000113452 1.47033e-18 -7.83221e-21 -1.12234e-15 6.46235e-27 0 0 5e-05 1.46608e-10 
16 1 0.384161 0.0169297 5.19818e-05 2.24036e-18 7.32516e-22 -1.71051e-15 0 4.43944e-28 0 5e-05 1.46608e-10 
17 1 0.384582 0.0170831 5.25323e-05 1.3267e-19 -7.84181e-21 -9.99063e-17 0 0 0 5e-05 1.46608e-10 
19 1 0.384704 0.0183371 5.2693e-05 1.7976e-18 -4.15938e-20 -1.37251e-15 0 7.63014e-25 0 5e-05 1.46608e-10 
21 1 0.384377 0.0179474 5.22643e-05 1.15088e-20 -2.48354e-21 -9.94839e-18 2.58494e-26 2.58494e-26 0 5e-05 1.46608e-10 
22 1 0.385006 0.0203197 5.3088e-05 8.71386e-19 5.03302e-21 -6.65298e-16 0 6.97561e-26 0 5e-05 1.46608e-10 
23 1 0.384292 0.0178949 5.21526e-05 1.79761e-18 -1.13273e-22 -1.37251e-15 0 2.34413e-27 0 5e-05 1.46608e-10 
24 1 0.38432 0.0180292 5.21891e-05 1.06546e-20 -1.36547e-21 -9.95007e-18 0 0 0 5e-05 1.46608e-10 
25 1 0.384338 0.0166656 5.22136e-05 2.24031e-18 1.16639e-21 -1.71052e-15 0 2.02783e-26 0 5e-05 1.46608e-10 
26 1 0.38377 0.0178002 5.14693e-05 -2.69198e-22 -7.26783e-21 5.94807e-20 0 0 0 5e-05 1.46608e-10 
27 1 0.384682 0.0173845 0.000130928 1.22156e-19 -1.01328e-20 -9.98945e-17 0 0 0 5e-05 1.46608e-10 
28 1 0.383925 0.0176563 5.16716e-05 2.26221e-20 -5.99853e-21 7.08679e-20 -1.03398e-25 -1.03398e-25 4.1359e-25 5e-05 1.46608e-10 
29 1 0.384333 0.0168571 5.22063e-05 2.24034e-18 -2.80927e-21 -1.71052e-15 0 1.26983e-25 0 5e-05 1.46608e-10 
30 1 0.384576 0.0173464 5.25248e-05 1.31462e-19 -4.52111e-21 -9.98863e-17 0 0 0 5e-05 1.46608e-10 
31 1 0.384257 0.0181707 5.21076e-05 1.79762e-18 -1.34932e-22 -1.37251e-15 0 -1.65016e-26 0 5e-05 1.46608e-10 
32 1 0.384809 0.0175939 5.28295e-05 1.03237e-19 -9.85544e-22 -7.99273e-17 -2.58494e-26 0 0 5e-05 1.46608e-10 
33 1 0.384554 0.0172487 5.24964e-05 1.30431e-19 7.07254e-22 -9.98861e-17 5.16988e-26 0 0 5e-05 1.46608e-10 
34 1 0.38474 0.0177115 5.27396e-05 1.04027e-19 -8.06095e-23 -7.99225e-17 0 0 0 5e-05 1.46608e-10 
35 1 0.383862 0.017769 7.54807e-05 -3.15491e-21 -4.01751e-21 6.2372e-20 -5.16988e-26 0 0 5e-05 1.46608e-10 
36 1 0.383928 0.0185148 5.16764e-05 -6.0664e-19 8.41717e-23 4.63868e-16 0 0 0 5e-05 1.46608e-10 
37 1 0.384806 0.0179346 5.28267e-05 1.79762e-18 -2.52023e-21 -1.37251e-15 0 -2.30687e-25 0 5e-05 1.46608e-10 
38 1 0.384135 0.0176706 5.19473e-05 2.24032e-18 -4.5707e-21 -1.71052e-15 0 7.78411e-26 0 5e-05 1.46608e-10 
39 1 0.383665 0.0197914 5.13324e-05 -3.5017e-19 -2.24958e-21 2.67381e-16 0 -6.25716e-26 0 5e-05 1.46608e-10 
42 1 0.38332 0.0192284 0.00522714 1.28259e-16 3.55094e-21 3.78515e-14 0 7.36949e-25 0 5e-05 1.46608e-10 
44 1 0.384002 0.0184479 5.17737e-05 1.79759e-18 3.97091e-22 -1.37251e-15 0 -4.11721e-27 0 5e-05 1.46608e-10 
45 1 0.384187 0.017154 5.20157e-05 -5.26008e-21 -6.27922e-22 -3.62963e-20 0 1.29247e-26 0 5e-05 1.46608e-10 
47 1 0.337903 0.0177593 0.00781261 -3.90218e-10 -0.0227773 0.00800922 -1.87038e-18 7.27879e-12 2.06409e-11 5e-05 1.46608e-10 
48 1 0.383616 0.0181668 5.12679e-05 2.24032e-18 -1.99539e-23 -1.71052e-15 0 -3.91682e-27 0 5e-05 1.46608e-10 
49 1 0.384194 0.0185569 5.20241e-05 1.79759e-18 -1.65544e-21 -1.37251e-15 0 6.67113e-26 0 5e-05 1.46608e-10 
50 1 0.384349 0.0181265 5.22275e-05 1.79761e-18 -5.72733e-25 -1.37251e-15 0 2.45984e-28 0 5e-05 1.46608e-10 
51 1 0.383929 0.019028 5.16774e-05 1.47092e-18 -4.49561e-22 -1.12233e-15 0 0 0 5e-05 1.46608e-10 
52 1 0.38427 0.0217777 5.21238e-05 2.00505e-18 3.75042e-22 -1.5309e-15 0 1.69887e-27 0 5e-05 1.46608e-10 
53 1 0.384858 0.0167638 5.28945e-05 2.24032e-18 -7.55554e-23 -1.71052e-15 0 8.36175e-27 0 5e-05 1.46608e-10 
54 1 0.384094 0.0196551 5.18938e-05 2.81054e-18 -1.23073e-22 -2.14593e-15 0 6.56676e-27 0 5e-05 1.46608e-10 
55 1 0.383596 0.0188939 5.12421e-05 2.81058e-18 2.58313e-21 -2.14593e-15 0 1.00674e-26 0 5e-05 1.46608e-10 
56 1 0.384075 0.0171037 5.18691e-05 5.81299e-21 2.38308e-21 -1.33268e-21 0 5.16988e-26 0 5e-05 1.46608e-10 
57 1 0.383611 0.0192258 5.12615e-05 -3.50206e-19 1.28835e-23 2.67381e-16 0 1.50604e-27 0 5e-05 1.46608e-10 
59 1 0.378022 0.019866 0.005332 -5.0198e-15 -7.4121e-15 7.69802e-14 8.40105e-25 -3.36042e-24 -2.06795e-25 5e-05 1.46608e-10 
60 1 0.384997 0.0170277 5.3077e-05 2.24035e-18 2.74714e-23 -1.71052e-15 0 1.76912e-26 0 5e-05 1.46608e-10 
62 1 0.384457 0.0166248 5.23696e-05 2.24032e-18 -1.47195e-20 -1.71051e-15 0 -3.01449e-26 0 5e-05 1.46608e-10 
63 1 0.385119 0.0166834 5.32362e-05 2.24037e-18 8.43705e-21 -1.71052e-15 0 -1.02132e-26 0 5e-05 1.46608e-10 
64 1 0.383574 0.0182638 5.12125e-05 1.79763e-18 -1.81492e-22 -1.37251e-15 0 2.71169e-26 0 5e-05 1.46608e-10 
65 1 0.383949 0.0175591 5.17029e-05 2.67844e-20 6.51265e-21 -2.29093e-20 0 5.16988e-26 -4.1359e-25 5e-05 1.46608e-10 
66 1 0.384314 0.0196963 5.21813e-05 -3.50203e-19 1.89362e-21 2.67381e-16 -4.03897e-28 3.09184e-25 0 5e-05 1.46608e-10 
67 1 0.38401 0.0186182 5.17838e-05 -3.50178e-19 1.54168e-21 2.67382e-16 0 2.65254e-26 0 5e-05 1.46608e-10 
68 1 0.384428 0.0179137 0.00013121 3.11533e-21 -2.43486e-21 -9.95545e-18 0 2.58494e-26 0 5e-05 1.46608e-10 
69 1 0.3836 0.0187796 5.12464e-05 2.81057e-18 7.80017e-22 -2.14593e-15 -4.03897e-28 -2.07493e-26 0 5e-05 1.46608e-10 
70 1 0.383619 0.0194304 5.12716e-05 -3.5021e-19 3.11662e-21 2.67381e-16 0 2.44551e-27 0 5e-05 1.46608e-10 
71 1 0.383704 0.0191871 5.13827e-05 7.77632e-19 6.11353e-21 -5.9467e-16 0 0 0 5e-05 1.46608e-10 
72 1 0.383855 0.0178691 5.15812e-05 1.39919e-21 -2.56559e-22 5.14166e-20 0 -2.58494e-26 0 5e-05 1.46608e-10 
73 1 0.384751 0.0204726 5.27548e-05 2.00509e-18 -8.96402e-22 -1.5309e-15 0 1.1829e-26 0 5e-05 1.46608e-10 
74 1 0.384789 0.0203241 5.2804e-05 8.71381e-19 -4.22617e-21 -6.65298e-16 -4.03897e-28 9.77081e-27 0 5e-05 1.46608e-10 
76 1 0.384146 0.0172895 5.19613e-05 2.24032e-18 -2.98276e-23 -1.71051e-15 4.03897e-28 -8.16792e-27 0 5e-05 1.46608e-10 
77 1 0.384899 0.0180553 5.29479e-05 1.79761e-18 1.68494e-21 -1.37249e-15 0 6.47615e-27 0 5e-05 1.46608e-10 
78 1 0.384444 0.0177368 5.23522e-05 2.24036e-18 4.97929e-22 -1.71052e-15 0 -9.15315e-27 0 5e-05 1.46608e-10 
79 1 0.384159 0.0206443 5.19783e-05 2.00506e-18 -4.84974e-21 -1.5309e-15 -4.03897e-28 -1.17192e-25 0 5e-05 1.46608e-10 
80 1 0.383954 0.017379 5.171e-05 2.24034e-18 4.04138e-21 -1.71052e-15 0 2.13961e-26 0 5e-05 1.46608e-10 
82 1 0.384441 0.0162146 5.23483e-05 2.24036e-18 2.38674e-22 -1.71051e-15 0 -2.6386e-27 0 5e-05 1.46608e-10 
83 1 0.384894 0.0205458 5.29418e-05 2.00507e-18 -1.05383e-21 -1.5309e-15 0 1.50094e-26 0 5e-05 1.46608e-10 
84 1 0.383979 0.0188839 5.17425e-05 1.46968e-18 -1.1287e-21 -1.12233e-15 0 0 0 5e-05 1.46608e-10 
85 1 0.383847 0.019338 5.15705e-05 4.65962e-20 -2.51805e-22 -3.58022e-17 1.61559e-27 -5.16988e-26 0 5e-05 1.46608e-10 
86 1 0.383942 0.0179197 5.16946e-05 2.24035e-18 -4.74558e-23 -1.71051e-15 0 5.63256e-27 0 5e-05 1.46608e-10 
87 1 0.384951 0.0175929 5.30159e-05 1.79762e-18 1.31416e-22 -1.37251e-15 0 -6.92721e-27 0 5e-05 1.46608e-10 
88 1 0.383272 0.0191349 0.0052273 1.28258e-16 3.74236e-21 3.78515e-14 0 1.22861e-26 0 5e-05 1.46608e-10 
89 1 0.383814 0.0176844 5.15274e-05 2.48853e-22 1.76221e-22 6.46395e-20 -3.23117e-27 0 0 5e-05 1.46608e-10 
90 1 0.384041 0.0179331 5.18246e-05 -9.20519e-19 2.856e-22 7.02844e-16 0 1.17945e-27 0 5e-05 1.46608e-10 
91 1 0.38469 0.0172237 5.26739e-05 1.37364e-19 -1.29677e-22 -9.98888e-17 0 0 0 5e-05 1.46608e-10 
92 1 0.384191 0.017054 5.20202e-05 2.24037e-18 1.51348e-21 -1.71052e-15 0 4.37034e-27 0 5e-05 1.46608e-10 
93 1 0.383774 0.0207735 5.14742e-05 2.00504e-18 2.25691e-20 -1.5309e-15 0 2.99947e-26 0 5e-05 1.46608e-10 
94 1 0.383805 0.0188339 5.15157e-05 -2.01962e-12 2.05289e-12 -3.67301e-13 1.51922e-17 1.06784e-17 2.94099e-17 5e-05 1.46608e-10 
95 1 0.384606 0.0176839 5.25635e-05 -1.13153e-18 1.34846e-20 8.62999e-16 0 0 0 5e-05 1.46608e-10 
96 1 0.384427 0.0183031 5.23293e-05 1.7976e-18 -9.72903e-21 -1.37251e-15 0 -4.73716e-26 0 5e-05 1.46608e-10 
98 1 0.383724 0.0194164 5.14094e-05 -3.50168e-19 2.41948e-21 2.67382e-16 0 -7.2466e-26 0 5e-05 1.46608e-10 
99 1 0.384302 0.018357 5.21657e-05 1.79762e-18 -2.29486e-22 -1.37251e-15 0 7.57503e-27 0 5e-05 1.46608e-10 
100 1 0.384848 0.0173718 5.28812e-05 2.24036e-18 -7.0893e-21 -1.71052e-15 0 -6.13071e-27 0 5e-05 1.46608e-10 
101 1 0.384322 0.0214999 5.21918e-05 2.00504e-18 6.30532e-21 -1.5309e-15 0 -1.41632e-25 0 5e-05 1.46608e-10 
102 1 0.0643568 0.0187248 0.00531097 4.31481e-15 1.04985e-14 8.29577e-14 -1.86657e-21 6.08546e-22 1.92319e-23 5e-05 1.46608e-10 
103 1 0.24257 0.0191927 0.00520306 -2.40568e-23 4.86658e-23 1.23839e-22 -3.23117e-27 0 0 5e-05 1.46608e-10 
104 1 0.384443 0.0190455 5.23502e-05 -3.50166e-19 9.26761e-22 2.67381e-16 0 3.62262e-27 0 5e-05 1.46608e-10 
105 1 0.384764 0.0176468 0.000125094 1.0584e-19 5.60074e-21 -7.99297e-17 -1.29247e-26 0 0 5e-05 1.46608e-10 
106 1 0.383893 0.0187178 5.16304e-05 2.81054e-18 5.7247e-24 -2.14593e-15 0 -3.24635e-29 0 5e-05 1.46608e-10 
107 1 0.385147 0.0177812 0.000122873 -8.24881e-21 -3.69163e-21 -2.81824e-21 0 1.29247e-26 0 5e-05 1.46608e-10 
108 1 0.383669 0.0180817 5.13366e-05 -9.20572e-19 -4.40148e-23 7.02843e-16 0 3.21711e-27 0 5e-05 1.46608e-10 
109 1 0.384177 0.0192838 5.20024e-05 2.81057e-18 -1.95944e-20 -2.14593e-15 0 1.77515e-26 0 5e-05 1.46608e-10 
110 1 0.384493 0.0193015 5.24162e-05 2.81058e-18 -1.10066e-22 -2.14593e-15 0 -2.05662e-27 0 5e-05 1.46608e-10 
111 1 0.384709 0.0176058 5.26985e-05 1.07519e-19 -8.08416e-22 -7.9927e-17 0 3.23117e-27 0 5e-05 1.46608e-10 
112 1 0.384647 0.0185896 5.26184e-05 1.79763e-18 -2.36415e-21 -1.37251e-15 0 -1.38607e-25 0 5e-05 1.46608e-10 
113 1 0.383926 0.0178356 0.000114619 5.96491e-22 1.40832e-22 6.33856e-20 5.16988e-26 1.9387e-26 0 5e-05 1.46608e-10 
114 1 0.384105 0.0183256 5.19082e-05 1.79755e-18 5.82391e-21 -1.37249e-15 0 -8.79936e-26 0 5e-05 1.46608e-10 
115 1 0.38367 0.0183173 5.13384e-05 1.79761e-18 1.03875e-22 -1.37251e-15 -4.03897e-28 -1.8389e-26 0 5e-05 1.46608e-10 
116 1 0.383789 0.0180604 5.14949e-05 2.24034e-18 1.05017e-22 -1.71052e-15 0 -3.46566e-27 0 5e-05 1.46608e-10 
117 1 0.384446 0.0168712 5.23543e-05 -9.44736e-19 9.7807e-21 7.02812e-16 -1.05013e-25 4.20053e-26 0 5e-05 1.46608e-10 
118 1 0.383701 0.0187015 5.13788e-05 2.81059e-18 1.08387e-22 -2.14593e-15 0 -5.33126e-27 0 5e-05 1.46608e-10 
119 1 0.383905 0.0186185 5.16457e-05 -6.09017e-19 -2.0223e-21 4.63868e-16 0 0 0 5e-05 1.46608e-10 
120 1 0.384136 0.0179009 5.19484e-05 -2.60913e-19 -5.60502e-20 1.48629e-16 5.16988e-26 1.03398e-25 0 5e-05 1.46608e-10 
121 1 0.384817 0.0185465 5.28405e-05 1.79764e-18 -5.83991e-21 -1.37251e-15 -4.03897e-28 1.31277e-25 0 5e-05 1.46608e-10 
122 1 0.384225 0.0179691 5.20648e-05 1.79764e-18 2.15906e-22 -1.37251e-15 0 5.37339e-27 0 5e-05 1.46608e-10 
123 1 0.383905 0.0192124 5.16465e-05 4.61538e-20 3.67923e-21 -3.58104e-17 0 -2.58494e-26 0 5e-05 1.46608e-10 
124 1 0.384095 0.0170051 5.18952e-05 -7.79433e-22 2.85451e-21 2.32699e-20 -2.58494e-26 5.16988e-26 0 5e-05 1.46608e-10 
125 1 0.384627 0.0167641 5.25918e-05 -9.20523e-19 2.08936e-20 7.02843e-16 0 7.01026e-26 0 5e-05 1.46608e-10 
127 1 0.383942 0.017609 0.000138079 3.26364e-20 2.41155e-20 2.05414e-20 5.16988e-26 -5.16988e-26 0 5e-05 1.46608e-10 
128 1 0.384383 0.0169852 5.22722e-05 -9.20565e-19 -2.01332e-21 7.02842e-16 0 -5.77498e-27 0 5e-05 1.46608e-10 
129 1 0.383813 0.0179614 5.15263e-05 2.24033e-18 1.40666e-21 -1.71052e-15 0 -2.27882e-26 0 5e-05 1.46608e-10 
130 1 0.383854 0.0175873 6.4962e-05 6.41954e-20 1.92887e-20 1.07852e-20 0 -1.03398e-25 0 5e-05 1.46608e-10 
131 1 0.38345 0.0177196 0.00536012 -4.3222e-17 2.71501e-14 8.96755e-14 1.60034e-22 2.03693e-22 -6.18318e-23 5e-05 1.46608e-10 
132 1 0.384418 0.0164926 5.23174e-05 2.24033e-18 -1.16898e-21 -1.71052e-15 0 -6.51001e-27 0 5e-05 1.46608e-10 
133 1 0.383616 0.0186492 5.12671e-05 2.81059e-18 -3.93251e-22 -2.14593e-15 0 5.94243e-26 0 5e-05 1.46608e-10 
134 1 0.383574 0.0183691 5.12127e-05 2.81059e-18 -3.39205e-21 -2.14593e-15 0 -3.60336e-26 0 5e-05 1.46608e-10 
135 1 0.383664 0.019973 5.13305e-05 -3.50209e-19 -5.88471e-23 2.67382e-16 0 -2.73746e-27 0 5e-05 1.46608e-10 
136 1 0.384465 0.0176381 5.23794e-05 -9.20527e-19 1.72236e-22 7.02844e-16 0 -8.84271e-26 0 5e-05 1.46608e-10 
137 1 0.383805 0.0186702 5.15152e-05 -3.50213e-19 4.31674e-24 2.67381e-16 0 2.33198e-28 0 5e-05 1.46608e-10 
138 1 0.384419 0.017853 5.23189e-05 1.33783e-20 4.90741e-23 -9.9469e-18 0 0 0 5e-05 1.46608e-10 
140 1 0.384788 0.0171565 5.28028e-05 2.24037e-18 1.57374e-22 -1.71051e-15 0 -4.91793e-27 0 5e-05 1.46608e-10 
141 1 0.384313 0.0171449 5.21807e-05 2.24035e-18 5.71778e-21 -1.71052e-15 0 2.31448e-25 0 5e-05 1.46608e-10 
142 1 0.385769 0.0165473 5.40881e-05 1.45284e-18 7.18233e-21 -1.10923e-15 0 -3.30695e-27 0 5e-05 1.46608e-10 
143 1 0.384324 0.0177942 5.21946e-05 2.24035e-18 6.44201e-22 -1.71052e-15 0 -2.48317e-26 0 5e-05 1.46608e-10 
144 1 0.384385 0.0195542 5.22753e-05 -3.50196e-19 -9.34825e-21 2.67381e-16 0 1.79993e-25 0 5e-05 1.46608e-10 
146 1 0.384085 0.018684 5.18824e-05 2.81058e-18 -3.98166e-22 -2.14593e-15 0 -1.71554e-26 0 5e-05 1.46608e-10 
147 1 0.384691 0.0171235 5.26751e-05 1.32145e-19 -8.16358e-23 -9.98856e-17 0 -6.46235e-27 0 5e-05 1.46608e-10 
148 1 0.383902 0.0174706 5.56916e-05 9.10239e-21 -1.93063e-21 -1.84705e-20 0 0 0 5e-05 1.46608e-10 
149 1 0.384743 0.017396 5.27442e-05 1.23264e-19 2.9051e-21 -9.98833e-17 0 0 0 5e-05 1.46608e-10 
150 1 0.383772 0.0184692 5.14723e-05 2.81055e-18 -2.75076e-23 -2.14593e-15 0 4.84936e-28 0 5e-05 1.46608e-10 
151 1 0.384713 0.0201694 5.27044e-05 8.71374e-19 2.4e-20 -6.65297e-16 4.03897e-28 1.20123e-25 0 5e-05 1.46608e-10 
153 1 0.384074 0.0170521 0.000137497 4.10289e-21 2.24075e-21 5.41979e-22 2.58494e-26 -7.75482e-26 0 5e-05 1.46608e-10 
154 1 0.38458 0.0177648 0.000105544 -1.13844e-18 -1.28062e-20 8.62998e-16 0 0 0 5e-05 1.46608e-10 
155 1 0.384544 0.0163094 5.24825e-05 -9.20533e-19 9.10474e-21 7.02844e-16 0 -2.18227e-25 0 5e-05 1.46608e-10 
156 1 0.384226 0.0168457 5.20671e-05 2.24036e-18 -7.66371e-23 -1.71051e-15 0 -6.7974e-27 0 5e-05 1.46608e-10 
157 1 0.0219312 0.0187687 0.00551176 -3.83919e-14 8.16374e-14 2.95888e-13 1.87641e-22 2.51721e-22 -4.52881e-23 5e-05 1.46608e-10 
158 1 0.384291 0.016765 5.21522e-05 2.24036e-18 -5.93005e-21 -1.71052e-15 0 -1.70359e-27 0 5e-05 1.46608e-10 
159 1 0.383961 0.0175053 0.000135043 3.30327e-20 4.53226e-21 -1.26311e-20 -5.16988e-26 0 0 5e-05 1.46608e-10 
160 1 0.38353 0.0176621 0.00537757 3.14507e-17 2.72451e-14 8.96467e-14 -1.60912e-22 -2.04779e-22 6.22453e-23 5e-05 1.46608e-10 
162 1 0.383856 0.0190966 5.15818e-05 7.78906e-19 -1.21727e-23 -5.94676e-16 0 0 0 5e-05 1.46608e-10 
165 1 0.38415 0.0189073 5.19675e-05 2.81057e-18 -2.73638e-20 -2.14593e-15 0 1.09153e-25 0 5e-05 1.46608e-10 
166 1 0.384886 0.0168834 5.29315e-05 2.24035e-18 -1.6022e-20 -1.71051e-15 -4.03897e-28 -1.77802e-25 0 5e-05 1.46608e-10 
167 1 0.384925 0.0196064 5.29823e-05 8.7138e-19 2.00521e-23 -6.65298e-16 0 3.32821e-28 0 5e-05 1.46608e-10 
168 1 0.383956 0.019484 5.17133e-05 2.81059e-18 -1.16094e-21 -2.14593e-15 0 -8.12769e-28 0 5e-05 1.46608e-10 
169 1 0.383741 0.0190291 5.14309e-05 7.79242e-19 2.5523e-21 -5.94681e-16 0 0 0 5e-05 1.46608e-10 
170 1 0.383888 0.0184727 0.00523166 6.88067e-16 -4.57688e-15 -5.98175e-14 6.10692e-25 -1.80946e-25 0 5e-05 1.46608e-10 
171 1 0.384004 0.0193816 5.17764e-05 2.81057e-18 -1.89518e-21 -2.14593e-15 0 -2.29467e-26 0 5e-05 1.46608e-10 
172 1 0.384121 0.0171513 0.000126982 -1.13995e-20 -8.37133e-21 -2.79228e-20 0 -5.16988e-26 0 5e-05 1.46608e-10 
173 1 0.384268 0.0190399 5.21214e-05 -3.50213e-19 7.14051e-21 2.67381e-16 -4.03897e-28 -1.70084e-26 0 5e-05 1.46608e-10 
174 1 0.38409 0.0178273 0.000101332 4.92939e-17 1.21996e-16 7.36552e-17 2.06795e-25 -1.03398e-25 0 5e-05 1.46608e-10 
176 1 0.384122 0.0180103 5.19299e-05 1.79761e-18 -5.60828e-24 -1.37251e-15 0 -9.77263e-29 0 5e-05 1.46608e-10 
177 1 0.383922 0.0177101 0.00013591 2.25875e-20 -2.10611e-22 9.1736e-20 -1.29247e-26 0 0 5e-05 1.46608e-10 
178 1 0.384017 0.0189789 5.17927e-05 2.81057e-18 -6.13955e-21 -2.14593e-15 0 2.00158e-26 0 5e-05 1.46608e-10 
179 1 0.3843 0.0186551 5.2163e-05 1.79759e-18 -6.79901e-21 -1.37251e-15 0 2.08609e-25 0 5e-05 1.46608e-10 
182 1 0.384992 0.0180145 5.30695e-05 1.7976e-18 1.89465e-21 -1.37251e-15 4.03897e-28 3.00507e-26 0 5e-05 1.46608e-10 
183 1 0.386759 0.0152483 5.53836e-05 1.45286e-18 -3.99898e-21 -1.10923e-15 0 -6.86568e-26 0 5e-05 1.46608e-10 
184 1 0.383617 0.0193258 5.12696e-05 -3.50173e-19 1.27236e-23 2.67381e-16 -4.03897e-28 -8.40769e-28 0 5e-05 1.46608e-10 
185 1 0.384403 0.0192492 5.22987e-05 -3.50179e-19 3.56875e-21 2.67381e-16 0 -6.23019e-26 0 5e-05 1.46608e-10 
186 1 0.384249 0.0182715 5.20973e-05 1.79761e-18 7.11521e-23 -1.37251e-15 -4.03897e-28 1.86051e-27 0 5e-05 1.46608e-10 
187 1 0.38373 0.0197118 5.14173e-05 -3.50215e-19 1.57425e-24 2.67381e-16 0 -5.38367e-26 0 5e-05 1.46608e-10 
188 1 0.385076 0.0179467 5.31802e-05 1.79761e-18 2.4139e-21 -1.37249e-15 0 -3.46914e-25 0 5e-05 1.46608e-10 
189 1 0.383957 0.0177508 5.17145e-05 1.06179e-21 2.38924e-20 6.12747e-20 0 0 -4.1359e-25 5e-05 1.46608e-10 
190 1 0.382611 0.0187165 0.00682177 0.00567298 -0.00015012 1.52511e-05 -1.15054e-11 -3.04767e-11 2.88566e-12 5e-05 1.46608e-10 
191 1 0.384706 0.0184769 5.26952e-05 1.79759e-18 -9.55862e-22 -1.37249e-15 0 -3.90709e-26 0 5e-05 1.46608e-10 
192 1 0.384018 0.018112 5.17943e-05 1.7976e-18 1.60975e-22 -1.37251e-15 0 2.84133e-26 0 5e-05 1.46608e-10 
193 1 0.383672 0.0184195 5.13415e-05 -3.50224e-19 -6.00914e-21 2.67382e-16 0 -9.11019e-26 0 5e-05 1.46608e-10 
194 1 0.384129 0.0182229 5.19401e-05 1.79762e-18 -7.95622e-23 -1.37251e-15 0 1.56425e-27 0 5e-05 1.46608e-10 
195 1 0.383808 0.018285 5.15191e-05 1.79759e-18 -6.07772e-24 -1.37249e-15 0 7.582e-30 0 5e-05 1.46608e-10 
196 1 0.384121 0.0181233 5.19289e-05 1.79756e-18 1.25428e-21 -1.37249e-15 0 -3.29892e-26 0 5e-05 1.46608e-10 
197 1 0.382304 0.0172514 0.00732701 0.00552407 -0.000306351 -0.000517109 -2.35598e-10 1.71734e-10 -7.18826e-11 5e-05 1.46608e-10 
198 1 0.383804 0.0192031 5.15138e-05 4.39087e-20 -3.16649e-21 -3.58131e-17 0 0 0 5e-05 1.46608e-10 
199 1 0.38465 0.0174375 5.26212e-05 1.31684e-19 -3.1696e-21 -9.98823e-17 0 0 0 5e-05 1.46608e-10 
200 1 0.3851 0.0177266 5.32113e-05 -5.63914e-22 3.18074e-21 1.10769e-20 0 0 0 5e-05 1.46608e-10 
201 1 0.385006 0.0158243 5.30884e-05 1.45283e-18 5.26045e-22 -1.10923e-15 0 -1.06835e-26 0 5e-05 1.46608e-10 
202 1 0.385094 0.0174355 5.32031e-05 1.79762e-18 7.85284e-22 -1.37251e-15 0 2.83689e-26 0 5e-05 1.46608e-10 
203 1 0.384481 0.0179454 5.24006e-05 9.1592e-21 9.54526e-22 -9.95348e-18 0 -2.58494e-26 0 5e-05 1.46608e-10 
204 1 0.384101 0.0184312 5.19029e-05 1.79759e-18 1.44741e-21 -1.37251e-15 0 7.05936e-26 0 5e-05 1.46608e-10 
205 1 0.384514 0.0174831 5.24438e-05 2.24036e-18 -1.24614e-20 -1.71052e-15 0 2.81634e-25 0 5e-05 1.46608e-10 
206 1 0.384002 0.0174677 5.1773e-05 2.4069e-21 -1.26788e-21 2.37976e-20 0 0 0 5e-05 1.46608e-10 
207 1 0.385023 0.0181691 5.31107e-05 1.79763e-18 2.88682e-22 -1.37251e-15 0 2.912e-27 0 5e-05 1.46608e-10 
208 1 0.385061 0.0175857 5.31604e-05 1.79763e-18 2.5086e-21 -1.37251e-15 0 1.95957e-26 0 5e-05 1.46608e-10 
209 1 0.383887 0.0180398 5.16231e-05 2.24034e-18 5.19883e-23 -1.71052e-15 0 1.47197e-27 0 5e-05 1.46608e-10 
210 1 0.384526 0.016716 5.24592e-05 2.24033e-18 8.78205e-21 -1.71051e-15 0 1.92082e-26 0 5e-05 1.46608e-10 
211 1 0.384505 0.0171609 5.24316e-05 2.24031e-18 -8.15506e-21 -1.71052e-15 0 7.25801e-26 0 5e-05 1.46608e-10 
212 1 0.383978 0.0185238 0.00522879 -2.82525e-15 1.87927e-14 2.4561e-13 6.13923e-26 0 0 5e-05 1.46608e-10 
213 1 0.383766 0.0191182 8.91366e-05 7.81301e-19 -1.81334e-21 -5.9467e-16 0 0 0 5e-05 1.46608e-10 
214 1 0.384625 0.017537 5.25895e-05 9.7816e-20 -4.74126e-23 -7.992e-17 1.03398e-25 0 0 5e-05 1.46608e-10 
215 1 0.382514 0.0182324 0.00688989 0.00568711 -0.00020364 -0.000105924 -8.93374e-11 -2.25426e-10 -1.27691e-10 5e-05 1.46608e-10 
217 1 0.384411 0.0184417 5.23083e-05 1.79763e-18 -1.8432e-21 -1.37251e-15 0 6.74096e-27 0 5e-05 1.46608e-10 
218 1 0.384302 0.0165156 5.21656e-05 -9.20519e-19 7.47906e-21 7.02843e-16 4.03897e-28 1.39067e-25 0 5e-05 1.46608e-10 
219 1 0.384399 0.0186101 5.22929e-05 1.79759e-18 2.7249e-21 -1.37251e-15 0 -2.09179e-25 0 5e-05 1.46608e-10 
220 1 0.384943 0.0187045 5.30057e-05 1.7976e-18 3.09469e-22 -1.37251e-15 0 7.83235e-27 0 5e-05 1.46608e-10 
222 1 0.384204 0.018067 5.20379e-05 1.79761e-18 9.46887e-23 -1.37251e-15 0 -1.00691e-27 0 5e-05 1.46608e-10 
224 1 0.384057 0.0177466 5.18456e-05 5.83733e-20 4.27639e-20 1.01552e-20 5.16988e-26 5.16988e-26 0 5e-05 1.46608e-10 
225 1 0.384811 0.0174713 5.28328e-05 1.12407e-19 -1.78174e-22 -7.99125e-17 1.03398e-25 0 0 5e-05 1.46608e-10 
226 1 0.383884 0.0196254 5.16191e-05 -3.50222e-19 -6.11826e-21 2.67381e-16 0 -1.71896e-25 0 5e-05 1.46608e-10 
227 1 0.382533 0.0183262 0.00686138 0.00570941 -0.000163095 2.01362e-05 1.30187e-11 -8.2939e-11 4.82949e-12 5e-05 1.46608e-10 
228 1 0.382475 0.0180453 0.00694886 0.00558833 -0.000230512 -0.000131798 1.61809e-09 -6.78264e-10 2.01217e-10 5e-05 1.46608e-10 
229 1 0.384183 0.0194731 5.201e-05 -3.50205e-19 -1.34801e-23 2.67382e-16 -4.03897e-28 6.98809e-26 0 5e-05 1.46608e-10 
230 1 0.385084 0.0171004 5.31901e-05 -9.20572e-19 9.14961e-23 7.02844e-16 0 2.73874e-26 0 5e-05 1.46608e-10 
232 1 0.38345 0.0186594 0.00522432 -5.74109e-14 4.26206e-20 -1.77479e-13 0 -2.02756e-24 -2.06795e-25 5e-05 1.46608e-10 
233 1 0.384483 0.016964 5.24031e-05 -8.96121e-19 -9.15074e-21 7.02812e-16 1.06629e-25 -4.84676e-26 0 5e-05 1.46608e-10 
234 1 0.384564 0.0189811 5.25095e-05 -3.50169e-19 -1.87288e-21 2.67382e-16 0 -1.54377e-26 0 5e-05 1.46608e-10 
235 1 0.385129 0.0178507 5.32485e-05 1.11177e-22 -8.43281e-22 -2.2895e-21 0 -2.58494e-26 0 5e-05 1.46608e-10 
236 1 0.385096 0.0164501 5.32056e-05 -9.20569e-19 1.89142e-20 7.02842e-16 0 5.66496e-25 0 5e-05 1.46608e-10 
237 1 0.383942 0.0187739 0.000133457 2.25036e-11 6.22075e-13 -1.36213e-12 -5.41282e-17 -1.47745e-16 -3.33575e-17 5e-05 1.46608e-10 
239 1 0.382204 0.0168298 0.00757658 0.00561483 -0.000381259 -0.000486136 2.06521e-10 1.27432e-10 -1.17419e-10 5e-05 1.46608e-10 
240 1 0.382264 0.0170827 0.00742684 0.00570723 -0.000360065 -0.000509709 3.26273e-12 1.41667e-10 -7.93841e-11 5e-05 1.46608e-10 
241 1 0.382183 0.0167457 0.00762649 0.00605077 -0.00048835 -0.000479745 2.12156e-11 2.38761e-11 8.42707e-12 5e-05 1.46608e-10 
242 1 0.383904 0.0188174 5.16447e-05 -1.53538e-12 3.21813e-12 1.11757e-12 9.70002e-18 -1.71922e-17 4.99732e-18 5e-05 1.46608e-10 
243 1 0.384078 0.0207283 5.18725e-05 2.00505e-18 -2.35096e-20 -1.5309e-15 0 -2.62819e-25 0 5e-05 1.46608e-10 
244 1 0.382224 0.0169141 0.00752667 0.00561374 -0.000366052 -0.000494498 -2.92398e-11 1.22816e-10 -7.36479e-11 5e-05 1.46608e-10 
246 1 0.382397 0.0176751 0.0070785 0.00555152 -0.000297992 -0.000448549 6.53651e-12 -7.50643e-11 -2.91389e-10 5e-05 1.46608e-10 
247 1 0.384178 0.0174758 5.20043e-05 2.24036e-18 -1.00954e-21 -1.71051e-15 0 5.39712e-26 0 5e-05 1.46608e-10 
248 1 0.383639 0.0189942 5.12976e-05 2.81054e-18 6.35831e-22 -2.14593e-15 0 2.57377e-26 0 5e-05 1.46608e-10 
249 1 0.382342 0.0174206 0.00722717 0.00558666 -0.000332662 -0.000509066 5.80814e-11 1.41759e-11 -1.74561e-11 5e-05 1.46608e-10 
250 1 0.384662 0.0178117 7.29452e-05 -1.11873e-18 -3.2048e-21 8.63026e-16 0 0 0 5e-05 1.46608e-10 
251 1 0.384003 0.0178398 5.17746e-05 4.89039e-21 5.79786e-22 6.11433e-20 -5.16988e-26 -3.23117e-27 0 5e-05 1.46608e-10 
252 1 0.382417 0.0177657 0.00704114 0.00557153 -0.000177935 -0.000150392 -4.04377e-11 -3.49563e-11 -4.8449e-12 5e-05 1.46608e-10 
253 1 0.382592 0.0186189 0.00683167 0.00568091 -0.000153368 1.54956e-05 4.90746e-12 -2.6386e-11 1.15856e-12 5e-05 1.46608e-10 
254 1 0.38236 0.0175051 0.00717725 0.00553314 -0.000327009 -0.000506019 3.4188e-12 1.8928e-11 3.65583e-13 5e-05 1.46608e-10 
255 1 0.383724 0.0182309 5.14089e-05 1.79764e-18 -5.51644e-24 -1.37251e-15 0 1.07236e-30 0 5e-05 1.46608e-10 
256 1 0.384352 0.0191511 5.22319e-05 -3.50191e-19 -1.24971e-23 2.67382e-16 0 5.78718e-27 0 5e-05 1.46608e-10 
257 1 0.384531 0.0168171 5.24664e-05 2.24031e-18 7.89377e-23 -1.71051e-15 0 -3.10472e-28 0 5e-05 1.46608e-10 
258 1 0.383662 0.0204201 5.13284e-05 -5.14035e-22 2.33996e-23 1.03396e-21 0 -4.03897e-28 0 5e-05 1.46608e-10 
259 1 0.382436 0.017859 0.00701037 0.00558726 -0.000185142 -0.000149142 -2.34544e-10 -2.09997e-10 6.15795e-11 5e-05 1.46608e-10 
260 1 0.384675 0.0173227 5.2655e-05 1.33019e-19 -2.03916e-21 -9.98886e-17 0 0 0 5e-05 1.46608e-10 
261 1 0.383834 0.018548 5.15529e-05 -6.07175e-19 7.82525e-22 4.6387e-16 0 0 0 5e-05 1.46608e-10 
262 1 0.384455 0.0172898 5.23661e-05 2.24032e-18 -1.07507e-20 -1.71052e-15 0 4.03624e-26 0 5e-05 1.46608e-10 
263 1 0.382323 0.017336 0.00727709 0.00555477 -0.000316908 -0.000515168 -1.56087e-10 8.51345e-11 -1.4495e-11 5e-05 1.46608e-10 
264 1 0.383849 0.0192628 0.00011754 4.28044e-20 6.08518e-21 -3.58115e-17 0 1.03398e-25 0 5e-05 1.46608e-10 
265 1 0.382631 0.018814 0.00681186 0.00566283 -0.000147694 1.50256e-05 -1.06494e-11 -5.277e-11 5.3987e-12 5e-05 1.46608e-10 
266 1 0.383681 0.0195344 5.13528e-05 -3.50204e-19 -3.38279e-22 2.67382e-16 0 -1.73457e-27 0 5e-05 1.46608e-10 
267 1 0.384065 0.0173483 5.18553e-05 2.24033e-18 -1.58797e-21 -1.71052e-15 0 -4.00427e-25 0 5e-05 1.46608e-10 
268 1 0.384519 0.0181423 5.24506e-05 1.79756e-18 1.06629e-20 -1.37249e-15 0 -3.23358e-26 0 5e-05 1.46608e-10 
269 1 0.383984 0.0180154 5.17501e-05 1.79759e-18 2.03368e-21 -1.37251e-15 0 3.07853e-27 0 5e-05 1.46608e-10 
270 1 0.384184 0.017813 5.20112e-05 -9.20568e-19 -5.97229e-23 7.02843e-16 0 -1.46619e-27 0 5e-05 1.46608e-10 
271 1 0.384205 0.0183852 5.20395e-05 1.79757e-18 -7.84351e-21 -1.37249e-15 0 1.31475e-26 0 5e-05 1.46608e-10 
272 1 0.382494 0.0181385 0.00691818 0.00567602 -0.00026973 -0.000285188 1.72847e-10 -4.87529e-10 3.55586e-11 5e-05 1.46608e-10 
273 1 0.384245 0.0173268 5.20911e-05 2.24035e-18 -7.83575e-22 -1.71052e-15 0 -1.53135e-26 0 5e-05 1.46608e-10 
274 1 0.382455 0.0179521 0.00697962 0.00557179 -0.000195934 -0.000149105 7.84665e-10 -6.6856e-10 1.92651e-10 5e-05 1.46608e-10 
275 1 0.385192 0.0170617 5.33312e-05 -9.20557e-19 -7.11867e-23 7.02844e-16 0 2.44278e-27 0 5e-05 1.46608e-10 
276 1 0.3843 0.0175031 5.2164e-05 2.24032e-18 1.88059e-21 -1.71052e-15 0 -2.1754e-26 0 5e-05 1.46608e-10 
277 1 0.384989 0.0177301 5.30663e-05 1.79755e-18 2.4106e-22 -1.37249e-15 0 1.96221e-26 0 5e-05 1.46608e-10 
278 1 0.38461 0.017173 8.59484e-05 1.37427e-19 -5.06782e-21 -9.98868e-17 0 0 0 5e-05 1.46608e-10 
280 1 0.382553 0.0184238 0.00685148 0.00570309 -0.000159836 1.61283e-05 3.12842e-11 -6.54636e-11 5.93706e-12 5e-05 1.46608e-10 
281 1 0.384897 0.0194055 5.2945e-05 8.71353e-19 -2.10766e-21 -6.65298e-16 0 6.35392e-26 0 5e-05 1.46608e-10 
283 1 0.382244 0.0169984 0.00747675 0.00567853 -0.000365409 -0.000503179 9.08471e-11 9.17239e-11 -6.51697e-11 5e-05 1.46608e-10 
284 1 0.383859 0.0194467 5.15855e-05 2.81058e-18 6.28829e-22 -2.14593e-15 0 -9.91432e-27 0 5e-05 1.46608e-10 
285 1 0.38451 0.0178127 5.24389e-05 -1.13207e-18 4.81172e-21 8.63016e-16 -1.03398e-25 0 0 5e-05 1.46608e-10 
286 1 0.38476 0.0178178 5.2766e-05 -1.13016e-18 -2.7019e-21 8.63057e-16 0 -1.29247e-26 0 5e-05 1.46608e-10 
287 1 0.384415 0.0167383 5.23141e-05 -9.20571e-19 1.24537e-21 7.02844e-16 0 -1.00055e-26 0 5e-05 1.46608e-10 
288 1 0.384905 0.0179551 5.29553e-05 1.79764e-18 -1.4125e-21 -1.37251e-15 0 -8.00433e-27 0 5e-05 1.46608e-10 
290 1 0.38472 0.0175079 6.94547e-05 1.07175e-19 1.22256e-21 -7.99264e-17 -4.52364e-26 -1.29247e-26 0 5e-05 1.46608e-10 
291 1 0.383718 0.0179905 5.1401e-05 2.24036e-18 6.86935e-22 -1.71052e-15 0 1.50899e-26 0 5e-05 1.46608e-10 
292 1 0.384101 0.0193494 5.19028e-05 -3.50219e-19 4.13277e-21 2.67381e-16 0 -3.53324e-26 0 5e-05 1.46608e-10 
293 1 0.384427 0.0174336 5.23298e-05 2.24035e-18 1.3605e-21 -1.71051e-15 0 4.63366e-26 0 5e-05 1.46608e-10 
294 1 0.383865 0.0189144 5.15937e-05 1.4722e-18 -6.65251e-22 -1.12233e-15 -2.58494e-26 0 0 5e-05 1.46608e-10 
295 1 0.382572 0.0185214 0.00684157 0.00568966 -0.000156095 1.58222e-05 2.81629e-12 -4.17286e-11 5.86954e-12 5e-05 1.46608e-10 
296 1 0.384019 0.0171848 0.000121619 -5.82116e-20 -2.46199e-20 -1.19362e-21 0 0 0 5e-05 1.46608e-10 
297 1 0.383824 0.0183837 5.15402e-05 1.7976e-18 -4.26435e-24 -1.37251e-15 0 2.11852e-31 0 5e-05 1.46608e-10 
298 1 0.382284 0.017167 0.00737692 0.00573545 -0.000359178 -0.000513762 1.13622e-10 1.72631e-10 -1.12925e-10 5e-05 1.46608e-10 
299 1 0.382379 0.0175899 0.00712736 0.00552924 -0.000353194 -0.000547978 6.83296e-11 8.77162e-12 -9.70831e-11 5e-05 1.46608e-10 
300 1 0.383998 0.0172542 5.17674e-05 -9.20558e-19 5.30768e-22 7.02844e-16 4.03897e-28 1.46805e-26 0 5e-05 1.46608e-10 
