ITEM: TIMESTEP
36800000
ITEM: NUMBER OF ATOMS
275
ITEM: BOX BOUNDS ff ff ff
-0.02 0.43
-0.02 0.06
-0.02 0.07
ITEM: ATOMS id type x y z vx vy vz fx fy fz radius mass 
1 1 0.227926 0.0185979 0.00687243 0.00640313 0.000146348 -0.000227768 -3.31376e-10 1.29351e-10 -3.62051e-11 5e-05 1.46608e-10 
2 1 0.22758 0.0174967 0.00733784 0.00577971 0.000438382 0.000182907 -3.10524e-10 -2.30954e-10 -1.15185e-10 5e-05 1.46608e-10 
4 1 0.22773 0.0173845 0.00740811 0.00571867 0.000329943 0.000235105 -1.1935e-10 -1.73905e-11 5.53707e-11 5e-05 1.46608e-10 
5 1 0.227104 0.0155903 0.00850955 0.00626688 -0.00017625 -0.00053751 -7.23071e-12 -2.39161e-11 2.07096e-11 5e-05 1.46608e-10 
6 1 0.233496 0.0170936 0.00744189 0.00552958 0.000361256 -0.000539959 7.68368e-13 2.53169e-13 -1.79263e-13 5e-05 1.46608e-10 
7 1 0.227868 0.0179949 0.00709443 0.00612494 0.000331811 0.000258838 1.76569e-10 -2.75329e-10 1.32794e-10 5e-05 1.46608e-10 
8 1 0.227577 0.0170917 0.00755233 0.00553238 0.000410087 0.000179216 1.10687e-10 -1.68738e-10 9.68384e-11 5e-05 1.46608e-10 
9 1 0.233701 0.0180357 0.00709143 0.00597721 -8.74779e-05 -0.000413578 1.35578e-12 -3.15106e-14 -8.07069e-14 5e-05 1.46608e-10 
10 1 0.227234 0.0160352 0.00812853 0.0061883 -0.000167616 -0.000535395 6.16648e-12 8.644e-13 -6.10519e-13 5e-05 1.46608e-10 
11 1 0.227732 0.0180981 0.00712321 0.00618818 0.000358649 0.000250754 -5.51485e-11 -3.85163e-10 2.58836e-10 5e-05 1.46608e-10 
12 1 0.22173 0.0169478 0.00745718 0.00578408 0.000736493 -0.000180367 7.6096e-11 1.31761e-10 -1.21905e-10 5e-05 1.46608e-10 
13 1 0.227082 0.0155162 0.00857305 0.00628031 -0.000176814 -0.0005385 -2.14067e-12 -1.12904e-11 9.43768e-12 5e-05 1.46608e-10 
14 1 0.221695 0.0175671 0.00713663 0.00577625 0.000713669 -0.00032851 9.9791e-12 1.20966e-11 -9.793e-12 5e-05 1.46608e-10 
16 1 0.221965 0.0180205 0.00706089 0.0062114 0.000594884 -0.000324917 -6.26413e-12 -1.0155e-10 1.00511e-11 5e-05 1.46608e-10 
17 1 0.227212 0.0159611 0.00819202 0.00620073 -0.000170249 -0.000535312 2.15946e-12 -1.83392e-12 2.40219e-13 5e-05 1.46608e-10 
19 1 0.22706 0.015442 0.00863656 0.00629368 -0.000177707 -0.000539226 2.45767e-12 7.35263e-12 -6.2652e-12 5e-05 1.46608e-10 
21 1 0.227914 0.0181688 0.00700551 0.00622887 0.000218897 0.000332286 1.55987e-10 -4.20103e-10 2.48642e-10 5e-05 1.46608e-10 
22 1 0.227536 0.0169164 0.00764238 0.00549542 0.00046126 0.000150387 9.57825e-10 5.5032e-10 -2.03276e-10 5e-05 1.46608e-10 
23 1 0.221926 0.0178214 0.00709108 0.00603895 0.000509834 -0.000307709 2.29862e-11 -2.10356e-11 8.97289e-12 5e-05 1.46608e-10 
24 1 0.233617 0.0176601 0.00723133 0.00580663 -8.83064e-06 -0.000428927 -5.13973e-13 1.77556e-12 -3.55797e-13 5e-05 1.46608e-10 
25 1 0.227276 0.0161938 0.00801463 0.00611098 0.000253479 3.78314e-05 -1.44629e-12 1.19742e-11 2.35848e-12 5e-05 1.46608e-10 
26 1 0.233659 0.0178475 0.00716151 0.00589131 -5.15428e-05 -0.000419974 1.61183e-12 -3.85636e-14 -1.27886e-13 5e-05 1.46608e-10 
27 1 0.22154 0.0168902 0.00749184 0.0056505 0.000786365 -0.000232186 8.13214e-11 -2.72355e-11 -5.75425e-11 5e-05 1.46608e-10 
28 1 0.227655 0.0174406 0.00737297 0.00576098 0.000386532 0.000211354 -6.23129e-11 1.89054e-10 -2.3325e-10 5e-05 1.46608e-10 
29 1 0.227039 0.0153678 0.00870006 0.00630681 -0.000179288 -0.000539346 8.17334e-12 2.45252e-11 -2.11378e-11 5e-05 1.46608e-10 
30 1 0.22736 0.0165385 0.00783001 0.00593761 0.000407146 0.000209882 -5.50048e-11 5.34228e-11 -3.9985e-11 5e-05 1.46608e-10 
31 1 0.227944 0.017939 0.00712944 0.00607059 0.000285521 0.000284366 2.62302e-10 -3.56749e-10 1.91934e-10 5e-05 1.46608e-10 
32 1 0.227297 0.0162774 0.00796392 0.00606473 0.000383017 0.000231993 3.73497e-12 1.66804e-11 -1.06086e-11 5e-05 1.46608e-10 
33 1 0.233516 0.0171883 0.0074067 0.00555526 0.000314819 -0.000525343 8.68341e-13 5.06827e-13 -2.40029e-13 5e-05 1.46608e-10 
34 1 0.22719 0.0158869 0.00825553 0.00621372 -0.000172326 -0.000534969 -1.53649e-12 -8.252e-12 6.73452e-12 5e-05 1.46608e-10 
35 1 0.22783 0.0178204 0.00718417 0.00596628 0.000364529 0.000233895 1.40137e-10 -1.32147e-10 5.85664e-11 5e-05 1.46608e-10 
36 1 0.233764 0.0183196 0.0069857 0.00610901 -0.000131914 -0.00040757 1.01862e-12 -3.92464e-14 -7.0328e-14 5e-05 1.46608e-10 
37 1 0.227711 0.0172972 0.00745297 0.00566825 0.000340041 0.000226482 -1.92675e-10 -8.14287e-11 3.00697e-11 5e-05 1.46608e-10 
38 1 0.227789 0.0176461 0.00727363 0.00593883 0.000320069 0.000255753 -5.12745e-11 -2.04157e-11 -5.05053e-11 5e-05 1.46608e-10 
39 1 0.233638 0.0177537 0.00719644 0.00584881 -3.2117e-05 -0.000423725 1.73777e-12 9.32099e-14 -1.59075e-13 5e-05 1.46608e-10 
41 1 0.227147 0.0157386 0.00838254 0.00624 -0.000174999 -0.000535608 -7.78856e-12 -2.54991e-11 2.19925e-11 5e-05 1.46608e-10 
42 1 0.227825 0.0174156 0.00739841 0.00578688 0.000292977 0.000259581 -1.7159e-10 1.30805e-10 -1.19445e-10 5e-05 1.46608e-10 
44 1 0.227884 0.0176772 0.00726395 0.00586663 0.000251423 0.000287002 2.46575e-10 -1.51048e-10 1.17898e-10 5e-05 1.46608e-10 
45 1 0.233536 0.0172829 0.00737157 0.00555601 0.000291557 -0.000517121 6.9692e-13 2.59706e-13 -1.48649e-13 5e-05 1.46608e-10 
47 1 0.227169 0.0158128 0.00831903 0.0062268 -0.00017389 -0.00053509 -4.36769e-12 -1.73956e-11 1.48664e-11 5e-05 1.46608e-10 
48 1 0.227773 0.0183551 0.00689665 0.00632165 0.000225297 0.000339399 1.14504e-10 8.7977e-11 1.17099e-10 5e-05 1.46608e-10 
49 1 0.233722 0.0181301 0.00705628 0.00602071 -0.000103665 -0.000411055 1.23658e-12 -7.04004e-14 -7.54001e-14 5e-05 1.46608e-10 
50 1 0.227318 0.0163645 0.00791927 0.00602498 0.00038892 0.000223102 2.57958e-11 1.32926e-11 -5.11223e-11 5e-05 1.46608e-10 
51 1 0.227965 0.018026 0.00708489 0.00620922 0.000275987 0.000298039 2.53731e-10 -2.29273e-10 1.37915e-10 5e-05 1.46608e-10 
52 1 0.221789 0.0171728 0.00726783 0.0058464 0.000757248 -0.000192403 -1.42537e-10 -4.50835e-11 1.89054e-11 5e-05 1.46608e-10 
53 1 0.233577 0.0174716 0.0073014 0.00555734 0.000244411 -0.000500443 4.53867e-13 3.31115e-13 -1.52252e-13 5e-05 1.46608e-10 
54 1 0.228104 0.0182305 0.00698639 0.00625526 0.000268083 0.0003049 4.73685e-10 -4.78239e-10 2.05507e-10 5e-05 1.46608e-10 
55 1 0.221713 0.0172188 0.00722214 0.00582841 0.000741197 -0.000179467 -1.64637e-11 3.05157e-11 -1.59774e-11 5e-05 1.46608e-10 
56 1 0.228083 0.0181434 0.00703114 0.00625779 0.000306286 0.000286678 1.02959e-09 -1.25735e-09 7.2889e-10 5e-05 1.46608e-10 
57 1 0.233557 0.0173773 0.00733647 0.00555654 0.000267341 -0.000508544 5.69148e-13 3.39173e-13 -1.66331e-13 5e-05 1.46608e-10 
59 1 0.378022 0.019866 0.005332 -5.01934e-15 -7.41197e-15 7.69803e-14 -1.05207e-23 1.68021e-24 -6.20385e-25 5e-05 1.46608e-10 
60 1 0.227905 0.0177643 0.0072193 0.0058743 0.000284614 0.000271472 1.10969e-10 -5.98427e-11 2.43159e-11 5e-05 1.46608e-10 
61 1 0.227125 0.0156645 0.00844604 0.00625341 -0.000175728 -0.000536457 -7.44703e-12 -2.87967e-11 2.44205e-11 5e-05 1.46608e-10 
62 1 0.227809 0.0177333 0.00722882 0.00594738 0.000332212 0.000250904 1.96458e-10 -1.387e-10 2.78318e-11 5e-05 1.46608e-10 
63 1 0.227795 0.0184521 0.00688507 0.00632411 0.000212152 0.000273869 6.11731e-11 1.53664e-10 6.54659e-10 5e-05 1.46608e-10 
64 1 0.233597 0.0175659 0.00726635 0.00555845 0.000222929 -0.000492881 3.46183e-13 3.12894e-13 -1.38479e-13 5e-05 1.46608e-10 
65 1 0.221751 0.0174035 0.00715802 0.00589329 0.000568864 -0.000309155 -2.82217e-11 3.2378e-12 7.67212e-12 5e-05 1.46608e-10 
66 1 0.221876 0.0177011 0.00718888 0.00595522 0.000543328 -0.000310571 -3.41755e-11 -1.24483e-10 2.89317e-11 5e-05 1.46608e-10 
67 1 0.227934 0.0182565 0.00696047 0.00638485 0.000269839 0.000315377 1.75639e-10 -4.71826e-10 1.92255e-10 5e-05 1.46608e-10 
68 1 0.227714 0.0177022 0.0072385 0.00597197 0.000395008 0.000216481 2.38811e-10 2.23086e-10 -1.123e-10 5e-05 1.46608e-10 
69 1 0.228009 0.0182 0.00699575 0.00638562 0.000266125 0.000318364 7.02095e-10 -6.52762e-11 8.06601e-11 5e-05 1.46608e-10 
70 1 0.23368 0.0179415 0.0071265 0.00593409 -7.00333e-05 -0.000416577 1.48496e-12 -4.87858e-14 -8.58524e-14 5e-05 1.46608e-10 
71 1 0.22206 0.0180519 0.00705272 0.00621769 0.000566141 -0.000321282 -6.8736e-11 4.58506e-12 5.42986e-12 5e-05 1.46608e-10 
72 1 0.227982 0.0184397 0.00688704 0.00641137 0.000156803 0.000114821 4.01092e-11 1.68675e-10 6.33736e-10 5e-05 1.46608e-10 
73 1 0.227255 0.0161124 0.00806873 0.00616011 -1.67246e-05 -0.000349945 -4.31137e-12 5.1721e-12 -1.18553e-12 5e-05 1.46608e-10 
74 1 0.227338 0.0164516 0.00787458 0.00598273 0.000397063 0.000215771 1.02841e-12 2.98608e-11 -6.22712e-11 5e-05 1.46608e-10 
76 1 0.221654 0.0169958 0.00741373 0.00578229 0.000747625 -0.000188465 -1.63433e-10 1.06993e-10 -5.39692e-11 5e-05 1.46608e-10 
77 1 0.2276 0.0175839 0.00729302 0.0058777 0.000458177 0.000188861 -1.39474e-10 4.89563e-10 -2.14254e-10 5e-05 1.46608e-10 
78 1 0.221027 0.0155935 0.00898721 0.00592239 8.41866e-06 -0.000930694 -3.62007e-11 -4.80102e-11 7.03748e-11 5e-05 1.46608e-10 
79 1 0.222054 0.0183089 0.00701593 0.00624607 0.000629285 -0.000332254 -8.8764e-12 6.82549e-11 -1.47915e-11 5e-05 1.46608e-10 
80 1 0.227675 0.0175278 0.00732815 0.00583331 0.000382324 0.000221026 -9.20939e-11 1.61722e-10 -7.14604e-11 5e-05 1.46608e-10 
82 1 0.221757 0.0177179 0.00719478 0.0059715 0.000654485 -0.0003307 -1.81953e-10 -2.30849e-11 6.10018e-11 5e-05 1.46608e-10 
83 1 0.221749 0.0170229 0.00739392 0.00581379 0.000738833 -0.000179971 -1.10356e-10 1.97178e-10 -1.82918e-10 5e-05 1.46608e-10 
84 1 0.233743 0.0182247 0.00702104 0.00606464 -0.000118494 -0.000409046 1.12117e-12 -5.65099e-14 -7.86148e-14 5e-05 1.46608e-10 
85 1 0.2222 0.0181745 0.00702963 0.00618415 0.00062831 -0.000329317 -7.93855e-11 -1.2955e-11 1.8004e-12 5e-05 1.46608e-10 
86 1 0.227864 0.01759 0.00730876 0.00588566 0.000235623 0.000297505 1.99741e-10 8.48797e-11 -1.98519e-11 5e-05 1.46608e-10 
87 1 0.227635 0.0173534 0.00741779 0.00569467 0.000395563 0.000199298 -6.20463e-11 -4.16159e-11 -5.35805e-11 5e-05 1.46608e-10 
88 1 0.227774 0.0179637 0.00710418 0.00612746 0.00035963 0.000245381 -3.64669e-11 -2.72059e-10 1.2129e-10 5e-05 1.46608e-10 
89 1 0.227771 0.0178973 0.00724552 0.00599498 0.000398205 0.000216523 -3.79372e-11 2.71945e-10 -5.85458e-11 5e-05 1.46608e-10 
90 1 0.227955 0.0183436 0.00691576 0.00620388 0.000111988 0.000384993 -2.34803e-10 -3.58477e-10 2.0081e-10 5e-05 1.46608e-10 
91 1 0.221711 0.0168727 0.00752042 0.00576127 0.000736982 -0.000181281 7.08463e-11 1.18909e-10 -6.79237e-11 5e-05 1.46608e-10 
92 1 0.227698 0.0180185 0.00706967 0.00613069 0.000355338 0.000250647 -2.69663e-10 -5.36416e-10 2.0306e-10 5e-05 1.46608e-10 
93 1 0.22742 0.0168019 0.00770013 0.0058028 0.00042663 0.000190243 -3.8088e-10 -1.88614e-10 9.18296e-11 5e-05 1.46608e-10 
94 1 0.227793 0.0181877 0.00709884 0.00622829 0.000306559 0.000295164 1.55013e-10 -3.06491e-10 1.51354e-11 5e-05 1.46608e-10 
95 1 0.227672 0.0178362 0.00725718 0.00604786 0.000393144 0.000261684 1.1626e-10 -2.41277e-10 1.02195e-10 5e-05 1.46608e-10 
96 1 0.22768 0.017939 0.00712766 0.00602211 0.000339102 0.000223549 1.30128e-10 -2.56021e-10 1.50746e-10 5e-05 1.46608e-10 
97 1 0.221135 0.0158882 0.00859813 0.00599214 1.76907e-05 -0.000954237 5.8554e-12 2.14393e-10 -2.73728e-10 5e-05 1.46608e-10 
98 1 0.2274 0.0167126 0.00774062 0.00583976 0.000424885 0.000194038 1.74851e-10 -7.70842e-11 5.24929e-11 5e-05 1.46608e-10 
99 1 0.221676 0.0179188 0.00708671 0.00618015 0.000588025 -0.000324845 -3.20561e-11 -4.82345e-11 -2.47478e-11 5e-05 1.46608e-10 
100 1 0.22789 0.0180821 0.00704978 0.00624249 0.000323345 0.00028128 2.30613e-10 -9.3477e-11 1.38293e-10 5e-05 1.46608e-10 
101 1 0.221697 0.0180153 0.00707198 0.00619574 0.000581962 -0.0003234 -9.9657e-14 -4.40044e-11 8.18646e-12 5e-05 1.46608e-10 
102 1 0.0643568 0.0187248 0.00531097 4.29221e-15 1.04856e-14 8.29601e-14 2.02914e-21 -4.27704e-22 -4.61153e-23 5e-05 1.46608e-10 
103 1 0.24257 0.0191927 0.00520306 2.00224e-23 -1.27651e-22 1.23839e-22 -3.23117e-27 0 0 5e-05 1.46608e-10 
104 1 0.221979 0.0181323 0.00704425 0.00625561 0.000619658 -0.00033004 -6.06496e-11 3.11643e-11 -1.02586e-12 5e-05 1.46608e-10 
105 1 0.221094 0.0157701 0.00875415 0.00596302 1.01876e-05 -0.000940198 5.63046e-11 7.13162e-11 -1.02344e-10 5e-05 1.46608e-10 
106 1 0.221737 0.017621 0.00720956 0.00581379 0.00069013 -0.000336681 -9.9082e-12 -5.79234e-11 2.59993e-11 5e-05 1.46608e-10 
107 1 0.221049 0.0156524 0.00890939 0.00593645 6.38834e-06 -0.000930823 6.51764e-11 -6.21057e-13 -1.40862e-11 5e-05 1.46608e-10 
108 1 0.228029 0.0182871 0.00695104 0.00622298 0.000164736 0.000356082 2.00197e-10 -3.0154e-10 3.06104e-10 5e-05 1.46608e-10 
109 1 0.228 0.0177961 0.00720923 0.0058695 0.000347841 0.000236903 -1.30604e-10 1.13005e-10 -6.76361e-11 5e-05 1.46608e-10 
110 1 0.227561 0.0174095 0.00738266 0.00573242 0.000424013 0.000178103 5.82848e-10 5.39666e-11 7.83437e-11 5e-05 1.46608e-10 
111 1 0.227521 0.0172359 0.0074738 0.00563003 0.000450932 0.000165146 -2.25346e-10 -5.88839e-11 8.02664e-12 5e-05 1.46608e-10 
112 1 0.221179 0.016006 0.00844261 0.00602163 2.79502e-05 -0.000971877 -1.23183e-10 3.01871e-10 -3.65453e-10 5e-05 1.46608e-10 
113 1 0.221596 0.0175308 0.00714567 0.0057971 0.000708088 -0.000328955 5.98329e-12 6.42282e-11 -2.64081e-11 5e-05 1.46608e-10 
114 1 0.221635 0.0177252 0.00711617 0.00574091 0.000667338 -0.000317136 1.6945e-11 2.81391e-11 9.82712e-12 5e-05 1.46608e-10 
115 1 0.227844 0.0175028 0.00735359 0.00585505 0.000276594 0.000274954 -1.17997e-10 1.12477e-10 -9.44898e-11 5e-05 1.46608e-10 
116 1 0.227859 0.0183127 0.00692531 0.00634981 0.000247211 0.000326916 1.86942e-10 -2.29623e-10 9.03167e-11 5e-05 1.46608e-10 
117 1 0.227849 0.0179076 0.00713931 0.00600973 0.000372335 0.000232173 1.22365e-10 -1.69851e-10 9.04719e-11 5e-05 1.46608e-10 
118 1 0.221827 0.0173381 0.0071647 0.00584893 0.000521665 -0.000549098 -1.35155e-10 9.67058e-12 2.68427e-10 5e-05 1.46608e-10 
119 1 0.228054 0.0183734 0.00690714 0.00633994 0.000148529 0.000393495 -4.11276e-10 -5.6285e-10 3.75925e-10 5e-05 1.46608e-10 
120 1 0.227557 0.0170044 0.00759722 0.00546506 0.000422479 0.00016808 9.33906e-11 4.28395e-11 -1.04357e-11 5e-05 1.46608e-10 
121 1 0.227948 0.0186968 0.0068709 0.00632703 5.62413e-05 -0.000236319 1.97083e-10 7.53841e-10 -6.5972e-12 5e-05 1.46608e-10 
122 1 0.227659 0.0178456 0.00715855 0.00601294 0.000338486 0.000257236 1.23146e-10 5.25124e-11 2.09598e-11 5e-05 1.46608e-10 
123 1 0.222107 0.0181388 0.00703836 0.00619938 0.000576594 -0.000322483 -1.97865e-10 4.85864e-11 9.703e-12 5e-05 1.46608e-10 
124 1 0.227441 0.0168865 0.00765136 0.00562311 0.000438658 0.000170516 -7.82113e-10 -3.17918e-10 1.01296e-10 5e-05 1.46608e-10 
125 1 0.227755 0.0178764 0.00714907 0.00601316 0.000382486 0.000223788 2.18177e-10 -2.23597e-10 9.98694e-11 5e-05 1.46608e-10 
127 1 0.221114 0.0158292 0.00867595 0.00597309 1.35662e-05 -0.00094572 7.70047e-11 1.25197e-10 -1.72642e-10 5e-05 1.46608e-10 
128 1 0.227379 0.0166269 0.00778756 0.00588765 0.000415768 0.00020237 9.94871e-12 1.3127e-11 -6.93863e-12 5e-05 1.46608e-10 
129 1 0.227725 0.0180135 0.00717615 0.00608808 0.000358842 0.000213435 4.30804e-11 -5.06569e-10 1.72353e-10 5e-05 1.46608e-10 
130 1 0.221734 0.0177609 0.00710719 0.00579086 0.000719655 -0.000327308 -1.89079e-10 9.82433e-12 1.15489e-11 5e-05 1.46608e-10 
131 1 0.221756 0.0178575 0.00709245 0.00601652 0.000672699 -0.000329513 -1.22289e-10 -4.50421e-11 1.38148e-11 5e-05 1.46608e-10 
132 1 0.22775 0.0174717 0.00736328 0.00580213 0.000324386 0.000243397 -5.02165e-11 8.08589e-11 4.82496e-11 5e-05 1.46608e-10 
133 1 0.227881 0.0184009 0.00688009 0.00626958 0.000153676 0.000354476 1.58662e-10 2.51527e-10 1.26422e-11 5e-05 1.46608e-10 
134 1 0.227839 0.0182252 0.00697029 0.00622862 0.000206669 0.00034147 8.59805e-11 -2.5061e-10 1.20563e-10 5e-05 1.46608e-10 
135 1 0.227989 0.0181125 0.00704075 0.00626515 0.000268624 0.000306897 5.87896e-10 -2.89417e-10 2.28889e-10 5e-05 1.46608e-10 
136 1 0.221692 0.017144 0.00728496 0.00581509 0.000742552 -0.000179077 -2.50093e-10 1.06311e-10 -1.03894e-10 5e-05 1.46608e-10 
137 1 0.227679 0.0179321 0.00722742 0.00595547 0.000378262 0.000222123 -1.8928e-10 5.30891e-11 4.46835e-10 5e-05 1.46608e-10 
138 1 0.227739 0.0182032 0.00701632 0.00621086 0.000299624 0.000291678 -2.09447e-11 -8.74402e-11 1.3818e-10 5e-05 1.46608e-10 
140 1 0.227619 0.0176711 0.0072482 0.00592963 0.000438318 0.000193386 4.40733e-10 5.02572e-10 -3.14517e-11 5e-05 1.46608e-10 
141 1 0.221541 0.0165433 0.007791 0.00568625 0.000707977 -0.000166453 -2.07267e-10 1.61315e-11 4.44202e-11 5e-05 1.46608e-10 
142 1 0.221927 0.0177224 0.00710531 0.0059755 0.000509431 -0.000304992 -1.10707e-10 5.39545e-11 -1.0829e-11 5e-05 1.46608e-10 
143 1 0.221071 0.0157113 0.0088316 0.00594815 8.11248e-06 -0.000934765 1.96623e-11 3.6454e-11 -6.44814e-11 5e-05 1.46608e-10 
144 1 0.221866 0.017532 0.00713508 0.00587406 0.000536579 -0.000314955 -3.84825e-10 6.39598e-11 8.87017e-11 5e-05 1.46608e-10 
146 1 0.221222 0.0161244 0.00828732 0.0060548 2.8609e-05 -0.000977678 1.76307e-10 8.92803e-11 -1.38024e-10 5e-05 1.46608e-10 
147 1 0.221714 0.0176641 0.00712191 0.00570753 0.00073256 -0.000325936 -1.115e-10 3.17196e-11 9.36207e-12 5e-05 1.46608e-10 
148 1 0.22156 0.0166183 0.00772786 0.00566405 0.00073422 -0.000186084 -5.55867e-10 -1.11877e-10 -3.25295e-11 5e-05 1.46608e-10 
149 1 0.227482 0.0170615 0.00756352 0.00551822 0.000471306 0.000146376 -5.9519e-11 -1.23178e-10 5.57767e-11 5e-05 1.46608e-10 
150 1 0.222062 0.0184074 0.0070014 0.00626296 0.000626524 -0.00032893 1.62606e-10 2.1992e-11 3.91434e-11 5e-05 1.46608e-10 
151 1 0.221855 0.0182903 0.00702627 0.00623168 0.000640413 -0.000332529 -1.01492e-10 -5.9005e-12 -4.19482e-13 5e-05 1.46608e-10 
153 1 0.221579 0.0166934 0.00766456 0.0057131 0.000745875 -0.00019076 -2.04145e-10 -1.14146e-11 3.19378e-11 5e-05 1.46608e-10 
154 1 0.2212 0.016065 0.00836473 0.00603984 3.09705e-05 -0.000978433 -2.66218e-11 2.2255e-10 -2.46635e-10 5e-05 1.46608e-10 
155 1 0.221243 0.0161829 0.00820909 0.00605279 2.57322e-05 -0.00097436 1.13567e-11 6.37469e-11 -7.27678e-11 5e-05 1.46608e-10 
156 1 0.221522 0.0164682 0.00785428 0.00553915 0.000719023 -0.000185615 4.50339e-10 6.19703e-11 -2.16925e-10 5e-05 1.46608e-10 
157 1 0.0219312 0.0187687 0.00551176 -3.83692e-14 8.16506e-14 2.95887e-13 -3.94333e-22 3.31389e-23 -5.79026e-23 5e-05 1.46608e-10 
158 1 0.221616 0.0168437 0.0075379 0.00576647 0.000750775 -0.000194861 -5.12887e-11 5.89364e-11 -1.19774e-10 5e-05 1.46608e-10 
159 1 0.227769 0.0175589 0.00731846 0.00586957 0.000317082 0.000249107 -1.01003e-10 1.31428e-10 -8.50842e-11 5e-05 1.46608e-10 
160 1 0.221719 0.0181132 0.00705702 0.00622528 0.000631488 -0.000333554 -2.09567e-11 -7.03786e-11 -3.92696e-12 5e-05 1.46608e-10 
162 1 0.221699 0.0178759 0.00717407 0.00621427 0.000756163 -0.000258099 -1.51814e-10 -1.64507e-11 -1.9256e-11 5e-05 1.46608e-10 
164 1 0.221309 0.0163602 0.00797622 0.00607617 -1.04138e-05 -0.000979791 -5.00409e-11 3.28603e-10 1.72373e-10 5e-05 1.46608e-10 
165 1 0.221967 0.0183582 0.00701219 0.00624543 0.000662711 -0.000336539 -5.36951e-11 2.59005e-11 -7.16339e-12 5e-05 1.46608e-10 
166 1 0.227754 0.0182679 0.00694147 0.00627047 0.00026065 0.000312402 3.45442e-11 -7.06749e-11 3.52688e-11 5e-05 1.46608e-10 
167 1 0.221824 0.0185822 0.00698542 0.00628786 0.000616679 -0.00033198 -9.07012e-11 -2.70961e-10 -4.02296e-11 5e-05 1.46608e-10 
168 1 0.222144 0.0183503 0.00700646 0.00625095 0.0006179 -0.000331305 6.51218e-11 -3.16618e-11 -6.39262e-12 5e-05 1.46608e-10 
169 1 0.221993 0.0184795 0.00699368 0.00627915 0.000631391 -0.000337604 -5.67133e-12 -4.34025e-11 -1.41044e-10 5e-05 1.46608e-10 
170 1 0.221901 0.0185188 0.00699157 0.00628288 0.000624777 -0.000329859 2.7291e-11 -2.08788e-10 2.25144e-10 5e-05 1.46608e-10 
171 1 0.228004 0.0185358 0.00687 0.00641024 9.46834e-05 -0.000187966 -3.20198e-11 2.04894e-10 4.60472e-11 5e-05 1.46608e-10 
172 1 0.221577 0.0174338 0.00716046 0.0058216 0.000703327 -0.000354597 -2.97129e-11 -3.08946e-11 -1.63015e-11 5e-05 1.46608e-10 
173 1 0.227888 0.018322 0.00702053 0.00646304 0.000358267 0.000289716 1.74888e-10 -5.33045e-10 1.29216e-10 5e-05 1.46608e-10 
174 1 0.221351 0.0164948 0.00783451 0.00573262 0.000451108 -0.000624709 -5.57772e-10 4.2639e-10 2.90622e-11 5e-05 1.46608e-10 
176 1 0.221637 0.0172818 0.00720407 0.00583727 0.000729612 -0.000253825 1.36306e-11 6.87825e-11 -9.67499e-11 5e-05 1.46608e-10 
177 1 0.221343 0.016196 0.00817704 0.00594178 -4.92978e-05 -0.000864094 -2.89476e-11 -1.36897e-11 5.86015e-11 5e-05 1.46608e-10 
178 1 0.221612 0.0175912 0.00722374 0.00579778 0.000683384 -0.000317617 9.30549e-11 1.22821e-10 6.73665e-11 5e-05 1.46608e-10 
179 1 0.22174 0.0182058 0.00708841 0.00623738 0.000630082 -0.000331915 -1.39978e-10 -3.55355e-11 3.97627e-11 5e-05 1.46608e-10 
182 1 0.228025 0.0186335 0.00686851 0.00634085 9.5853e-05 -0.00024809 2.31513e-10 5.7752e-10 -2.56073e-10 5e-05 1.46608e-10 
183 1 0.221658 0.0176824 0.00720362 0.00576411 0.000673887 -0.000321242 -8.07805e-11 2.17134e-11 4.79175e-11 5e-05 1.46608e-10 
184 1 0.227794 0.0183439 0.00699394 0.00633833 0.000243744 0.000354099 1.14467e-10 -5.32723e-10 1.67965e-11 5e-05 1.46608e-10 
185 1 0.221886 0.0176289 0.00712035 0.00590713 0.000533142 -0.000304931 -1.16222e-10 6.85371e-12 -5.15362e-11 5e-05 1.46608e-10 
186 1 0.222159 0.0180539 0.00704857 0.00621412 0.000583252 -0.000323999 -1.20632e-10 9.47889e-11 -1.08883e-11 5e-05 1.46608e-10 
187 1 0.227904 0.0185 0.00687394 0.00637711 0.000168398 4.01885e-05 3.64708e-10 3.8906e-10 4.27901e-10 5e-05 1.46608e-10 
188 1 0.227734 0.0177894 0.00719369 0.00600313 0.000387201 0.000223114 3.08959e-10 -9.29469e-13 -2.81927e-12 5e-05 1.46608e-10 
189 1 0.22786 0.0187445 0.00687379 0.00634759 0.000151883 -0.000241816 1.53081e-10 1.08585e-09 9.78327e-11 5e-05 1.46608e-10 
190 1 0.215748 0.0182381 0.00706073 0.00620103 0.000489677 -0.000574448 2.43143e-11 1.15215e-10 2.01617e-11 5e-05 1.46608e-10 
191 1 0.227502 0.0171479 0.00751712 0.0055697 0.00046228 0.000154563 1.42709e-10 -7.83773e-11 2.03725e-11 5e-05 1.46608e-10 
192 1 0.221616 0.0176282 0.00713089 0.00576288 0.000674055 -0.000317947 6.40166e-12 -3.43315e-11 -4.84554e-11 5e-05 1.46608e-10 
193 1 0.228076 0.0184671 0.00686782 0.00641165 0.000138969 -0.000248266 -1.83532e-11 -6.78933e-11 -4.74863e-11 5e-05 1.46608e-10 
194 1 0.221778 0.0178146 0.00718028 0.00611611 0.000627822 -0.000282235 -1.00877e-10 -3.88929e-11 9.94258e-11 5e-05 1.46608e-10 
195 1 0.22189 0.0180867 0.00705424 0.00624417 0.000630649 -0.000330422 -3.21887e-11 -8.16768e-11 4.29661e-12 5e-05 1.46608e-10 
196 1 0.221852 0.0178878 0.00708439 0.00610595 0.000575628 -0.000319087 8.01111e-12 -3.50733e-11 1.46455e-11 5e-05 1.46608e-10 
197 1 0.215444 0.0169096 0.00770539 0.00630704 -1.32534e-05 -0.000343642 2.56309e-11 1.28169e-10 -9.61213e-11 5e-05 1.46608e-10 
198 1 0.221768 0.017098 0.00733065 0.00582601 0.000741465 -0.000180743 -3.14883e-10 1.87777e-10 -2.03212e-10 5e-05 1.46608e-10 
199 1 0.22165 0.0177856 0.00719442 0.00572596 0.000660068 -0.000315329 3.94699e-11 1.25839e-11 -6.44127e-12 5e-05 1.46608e-10 
200 1 0.22116 0.0159476 0.0085215 0.00601554 2.061e-05 -0.000962238 1.54176e-10 2.43532e-10 -3.39896e-10 5e-05 1.46608e-10 
201 1 0.221948 0.0182532 0.00702802 0.00621841 0.000619863 -0.000329332 -1.02461e-10 2.9204e-11 2.59232e-13 5e-05 1.46608e-10 
202 1 0.221635 0.0169188 0.00747466 0.00578443 0.000749961 -0.000190119 2.09924e-11 7.32995e-11 -8.48014e-11 5e-05 1.46608e-10 
203 1 0.227815 0.0181379 0.0070148 0.00622259 0.000327615 0.00028973 9.77748e-12 -1.26142e-10 1.04447e-10 5e-05 1.46608e-10 
204 1 0.221947 0.0179183 0.00707632 0.00612771 0.000512719 -0.000310346 -1.22062e-11 1.25273e-11 1.9615e-12 5e-05 1.46608e-10 
205 1 0.221484 0.0166698 0.00768721 0.00567912 0.000696043 -0.000318272 -4.70994e-11 4.10557e-11 -1.76371e-10 5e-05 1.46608e-10 
206 1 0.221522 0.0168151 0.00755518 0.00575635 0.000777749 -0.000218925 -8.95393e-11 6.27671e-11 -1.25564e-10 5e-05 1.46608e-10 
207 1 0.221406 0.0163785 0.00794757 0.00602227 0.000460597 -0.000408605 1.78115e-10 4.47875e-11 -2.70849e-10 5e-05 1.46608e-10 
208 1 0.221807 0.0172484 0.00720401 0.00582831 0.000708911 -0.000157247 1.29962e-10 -1.04797e-10 7.35761e-11 5e-05 1.46608e-10 
209 1 0.22173 0.0173054 0.007173 0.00580696 0.00067826 -0.000324175 -1.5973e-10 1.92349e-11 5.36526e-12 5e-05 1.46608e-10 
210 1 0.227597 0.0171789 0.00750749 0.00560062 0.000396415 0.000191356 -8.37455e-11 -1.73136e-10 8.51556e-11 5e-05 1.46608e-10 
211 1 0.227616 0.0172662 0.00746266 0.00564967 0.000390589 0.000199097 -8.29126e-11 -3.30038e-11 1.28925e-11 5e-05 1.46608e-10 
212 1 0.222039 0.0182111 0.00703059 0.00625121 0.000625527 -0.000330864 -1.39212e-10 9.48655e-11 -7.45609e-12 5e-05 1.46608e-10 
213 1 0.227838 0.0186469 0.00687528 0.00636387 0.000193858 -0.000226842 -1.67584e-10 8.20738e-11 -3.19685e-10 5e-05 1.46608e-10 
214 1 0.227694 0.017615 0.00728332 0.00590726 0.000389499 0.000217389 1.66109e-10 3.19251e-10 -5.7266e-11 5e-05 1.46608e-10 
215 1 0.215649 0.0177602 0.00704267 0.00576237 0.000415824 0.00018021 3.92453e-11 -8.08985e-11 -6.35388e-11 5e-05 1.46608e-10 
216 1 0.221386 0.0163157 0.00802252 0.005982 4.72528e-05 -0.000760321 -1.5693e-10 6.20899e-11 -2.12824e-10 5e-05 1.46608e-10 
217 1 0.228099 0.018566 0.00686628 0.00640603 7.17843e-05 -0.000233076 6.76824e-10 4.57957e-10 -3.14448e-11 5e-05 1.46608e-10 
218 1 0.221654 0.0178222 0.00710145 0.00572076 0.000664232 -0.000316022 1.21278e-11 5.37767e-11 -4.14643e-12 5e-05 1.46608e-10 
219 1 0.227463 0.0169735 0.00760677 0.00549305 0.000474653 0.000142564 9.51926e-11 -1.08644e-10 4.29595e-11 5e-05 1.46608e-10 
220 1 0.221777 0.0179541 0.00707771 0.00616147 0.000642865 -0.000329494 -7.4345e-11 -6.39131e-11 1.70475e-11 5e-05 1.46608e-10 
222 1 0.227924 0.0178516 0.00717438 0.00593851 0.000366514 0.000231319 3.46973e-11 -1.15612e-10 4.94555e-11 5e-05 1.46608e-10 
224 1 0.221559 0.0169654 0.0074285 0.00567448 0.000775532 -0.000224047 4.05022e-11 -9.6609e-11 -1.18822e-10 5e-05 1.46608e-10 
225 1 0.227541 0.0173223 0.00742748 0.00570126 0.000439448 0.000174337 2.86485e-11 7.96814e-11 1.11085e-10 5e-05 1.46608e-10 
226 1 0.221699 0.0175289 0.00722898 0.00580161 0.000705282 -0.000335456 1.121e-10 -7.78931e-11 1.87605e-11 5e-05 1.46608e-10 
227 1 0.215666 0.0178509 0.0070031 0.00575767 0.000477055 1.97699e-06 -3.20023e-12 -6.76758e-11 -4.24182e-11 5e-05 1.46608e-10 
228 1 0.215608 0.0175918 0.00714201 0.00567676 8.89791e-05 -0.000390929 -8.42798e-11 -2.66405e-11 5.49074e-11 5e-05 1.46608e-10 
229 1 0.222132 0.0182468 0.00702186 0.00623994 0.000639991 -0.000333089 -1.89935e-10 -4.44783e-11 1.53379e-11 5e-05 1.46608e-10 
230 1 0.221464 0.0169368 0.00744573 0.00566843 0.000785387 -0.000233539 4.00728e-12 1.00305e-10 2.73159e-11 5e-05 1.46608e-10 
232 1 0.221741 0.0180693 0.00714424 0.00620459 0.000624835 -0.000339862 -1.19453e-10 -4.41496e-11 -4.30904e-11 5e-05 1.46608e-10 
233 1 0.221803 0.0184856 0.00700015 0.00627894 0.000620751 -0.000334025 -7.59721e-11 -1.70366e-10 2.28952e-11 5e-05 1.46608e-10 
234 1 0.227747 0.0177799 0.00729234 0.00597173 0.000368513 0.000230175 3.81619e-10 6.53271e-11 -9.82354e-11 5e-05 1.46608e-10 
235 1 0.221427 0.0167865 0.00757238 0.00575075 0.000788783 -0.000229156 -2.45421e-11 2.67738e-11 -2.0868e-11 5e-05 1.46608e-10 
236 1 0.22152 0.0171624 0.00725556 0.00579425 0.000796918 -0.000228119 -1.32842e-11 9.04673e-11 -3.35978e-11 5e-05 1.46608e-10 
237 1 0.221538 0.0172377 0.0071921 0.00581181 0.000684644 -0.000130788 -5.01051e-11 1.10018e-10 -2.1348e-10 5e-05 1.46608e-10 
239 1 0.215328 0.0165354 0.00801593 0.00644421 -5.35554e-05 -0.000317806 1.91221e-11 -6.10314e-14 -4.84767e-11 5e-05 1.46608e-10 
240 1 0.2154 0.0167595 0.00782986 0.00618328 1.02473e-05 -0.000355928 -1.67569e-10 2.1195e-10 -1.54389e-10 5e-05 1.46608e-10 
241 1 0.215306 0.0164602 0.00807821 0.00580328 6.50541e-05 -0.000378115 1.68026e-10 5.07557e-11 -8.48485e-11 5e-05 1.46608e-10 
242 1 0.221692 0.0167976 0.00758366 0.00575392 0.000739762 -0.000184293 2.12473e-10 1.76914e-10 -1.26898e-10 5e-05 1.46608e-10 
243 1 0.221831 0.017791 0.00709912 0.00604259 0.000584673 -0.000317361 -4.98669e-11 -3.283e-11 3.59444e-11 5e-05 1.46608e-10 
244 1 0.215351 0.0166102 0.00795384 0.00723275 -0.000225968 -0.000225494 5.83265e-11 4.64566e-11 -6.81848e-11 5e-05 1.46608e-10 
246 1 0.215533 0.0172892 0.00739244 0.0055544 0.000108445 -0.000400645 -3.23969e-11 -7.64828e-11 7.84275e-11 5e-05 1.46608e-10 
247 1 0.221371 0.0165666 0.00776787 0.00566234 0.000721062 -0.00036285 -2.30166e-10 2.15749e-10 -8.15885e-11 5e-05 1.46608e-10 
248 1 0.221676 0.01747 0.00715137 0.00581191 0.000709691 -0.000346461 -4.76886e-11 5.1666e-11 -3.42478e-11 5e-05 1.46608e-10 
249 1 0.21548 0.0170613 0.00758016 0.00567332 9.17873e-05 -0.000393554 -1.08982e-10 4.51283e-11 -3.54748e-11 5e-05 1.46608e-10 
250 1 0.221446 0.0165172 0.00781106 0.00562653 0.000749239 -0.00033082 5.97327e-11 9.42541e-11 1.54176e-10 5e-05 1.46608e-10 
251 1 0.227793 0.0180509 0.00705934 0.00617315 0.000344446 0.000252535 -3.66901e-11 -1.79525e-10 1.43976e-10 5e-05 1.46608e-10 
252 1 0.215552 0.0173647 0.00732962 0.00554956 0.000108325 -0.000401683 -3.93288e-11 -1.03644e-10 7.55788e-11 5e-05 1.46608e-10 
253 1 0.215727 0.0181416 0.00704597 0.00623418 0.000481713 -0.000579163 -2.37157e-11 6.48754e-11 1.5717e-11 5e-05 1.46608e-10 
254 1 0.215498 0.0171373 0.00751747 0.00556898 0.000106026 -0.000400171 -1.09583e-11 -2.75255e-11 1.63084e-11 5e-05 1.46608e-10 
255 1 0.221005 0.0155345 0.00906503 0.00591005 1.1932e-05 -0.00093414 -1.57469e-12 -7.40151e-11 8.54325e-11 5e-05 1.46608e-10 
256 1 0.222039 0.0179541 0.00706758 0.00613486 0.000515788 -0.000311234 4.08843e-11 -2.4108e-11 6.44066e-12 5e-05 1.46608e-10 
257 1 0.221597 0.0167686 0.00760123 0.00574023 0.000750034 -0.000194512 -1.11122e-10 6.58301e-11 -2.56484e-11 5e-05 1.46608e-10 
258 1 0.221657 0.0173736 0.00716954 0.00583097 0.000712068 -0.000330116 -3.7029e-11 5.09165e-11 -8.03212e-11 5e-05 1.46608e-10 
259 1 0.215573 0.0174405 0.00726782 0.00561233 2.02205e-05 -0.000487379 -3.86207e-11 -5.20692e-11 1.07561e-10 5e-05 1.46608e-10 