ITEM: TIMESTEP
74200000
ITEM: NUMBER OF ATOMS
267
ITEM: BOX BOUNDS ff ff ff
-0.02 0.43
-0.02 0.06
-0.02 0.07
ITEM: ATOMS id type x y z vx vy vz fx fy fz radius mass 
1 1 0.383991 0.018743 5.17586e-05 7.86792e-19 2.21907e-21 -5.98258e-16 0 0 0 5e-05 1.46608e-10 
2 1 0.384819 0.0170553 5.28427e-05 -9.2056e-19 1.05831e-20 7.02844e-16 0 -4.59508e-26 0 5e-05 1.46608e-10 
4 1 0.384087 0.0172099 5.18841e-05 -5.67269e-20 3.90452e-21 2.82076e-17 -2.58494e-26 0 0 5e-05 1.46608e-10 
6 1 0.38485 0.0177728 5.2884e-05 4.85658e-19 -3.84425e-22 -3.71584e-16 0 0 0 5e-05 1.46608e-10 
7 1 0.384289 0.0192285 5.21489e-05 2.81054e-18 1.29732e-21 -2.14593e-15 0 -2.30112e-27 0 5e-05 1.46608e-10 
8 1 0.384427 0.0170974 5.23295e-05 2.24033e-18 -1.00739e-22 -1.71051e-15 0 2.01367e-26 0 5e-05 1.46608e-10 
9 1 0.383731 0.0178959 5.14179e-05 2.24034e-18 9.53451e-22 -1.71052e-15 0 -1.85048e-26 0 5e-05 1.46608e-10 
10 1 0.384909 0.0174916 5.29614e-05 1.79756e-18 2.11795e-22 -1.37249e-15 0 2.86228e-26 0 5e-05 1.46608e-10 
11 1 0.383705 0.0185838 5.13839e-05 2.81059e-18 3.2293e-21 -2.14593e-15 0 9.10384e-26 0 5e-05 1.46608e-10 
12 1 0.384274 0.0169453 5.213e-05 2.24035e-18 3.06481e-21 -1.71052e-15 -4.03897e-28 -1.49991e-26 0 5e-05 1.46608e-10 
13 1 0.384609 0.0178943 5.25685e-05 9.97148e-13 -1.98072e-12 -4.92663e-13 4.22372e-17 2.95276e-18 2.79653e-18 5e-05 1.46608e-10 
14 1 0.383937 0.0189513 8.69758e-05 5.35495e-19 -8.70113e-22 -4.06398e-16 0 0 2.06795e-25 5e-05 1.46608e-10 
16 1 0.384166 0.0169334 5.1988e-05 2.24035e-18 -6.22142e-24 -1.71052e-15 0 4.1907e-28 0 5e-05 1.46608e-10 
17 1 0.384566 0.0170745 5.25117e-05 2.24036e-18 1.99272e-23 -1.71052e-15 0 -4.6081e-27 0 5e-05 1.46608e-10 
19 1 0.384704 0.0183371 5.2693e-05 1.79764e-18 6.87971e-20 -1.37251e-15 0 1.03474e-25 0 5e-05 1.46608e-10 
21 1 0.384375 0.0179486 5.22621e-05 -4.49224e-12 -1.14287e-12 -3.7675e-13 -1.70928e-17 8.43333e-18 -1.50552e-18 5e-05 1.46608e-10 
22 1 0.385006 0.0203197 5.3088e-05 8.71345e-19 -7.72902e-21 -6.65298e-16 0 1.60113e-25 0 5e-05 1.46608e-10 
23 1 0.38429 0.0178938 5.21501e-05 5.29342e-13 9.16634e-14 -1.40763e-13 -8.85937e-19 1.01287e-18 -2.8972e-19 5e-05 1.46608e-10 
24 1 0.384317 0.0180308 5.21862e-05 -3.182e-14 1.08687e-13 3.07003e-14 -3.59431e-19 1.02625e-18 -9.83939e-19 5e-05 1.46608e-10 
25 1 0.384369 0.0166304 5.22533e-05 2.24036e-18 1.17282e-21 -1.71051e-15 -4.03897e-28 -4.78952e-26 0 5e-05 1.46608e-10 
26 1 0.383765 0.0178016 5.14632e-05 2.24035e-18 1.92365e-22 -1.71051e-15 0 -6.79092e-28 0 5e-05 1.46608e-10 
27 1 0.384682 0.0173846 0.000130728 -1.35649e-19 1.17408e-20 9.02014e-17 0 0 0 5e-05 1.46608e-10 
28 1 0.38392 0.0176635 5.16661e-05 2.24037e-18 -6.32866e-22 -1.71052e-15 0 -7.26608e-27 0 5e-05 1.46608e-10 
29 1 0.384334 0.0168628 5.2208e-05 2.24034e-18 3.49959e-21 -1.71052e-15 0 -1.05797e-26 0 5e-05 1.46608e-10 
30 1 0.38458 0.0173478 5.25303e-05 -1.20329e-19 -1.81172e-21 9.01935e-17 0 0 0 5e-05 1.46608e-10 
31 1 0.384267 0.018175 5.21197e-05 1.63123e-20 -8.89218e-22 -7.47559e-18 0 0 0 5e-05 1.46608e-10 
32 1 0.384809 0.0175939 5.28295e-05 1.03326e-19 2.18816e-21 -7.99188e-17 0 0 0 5e-05 1.46608e-10 
33 1 0.384554 0.0172495 5.24957e-05 2.24036e-18 2.42115e-23 -1.71052e-15 0 -5.7956e-28 0 5e-05 1.46608e-10 
34 1 0.38474 0.0177115 5.27396e-05 1.03058e-19 -8.06095e-23 -7.99197e-17 0 0 0 5e-05 1.46608e-10 
35 1 0.383862 0.0177748 5.15892e-05 -2.2307e-19 1.33687e-21 1.69474e-16 0 0 -2.06795e-25 5e-05 1.46608e-10 
36 1 0.383928 0.0185154 5.16766e-05 -3.50223e-19 4.02395e-22 2.67381e-16 0 -1.31347e-26 0 5e-05 1.46608e-10 
37 1 0.384806 0.0179346 5.28267e-05 1.79764e-18 -2.4303e-21 -1.37251e-15 0 -5.50342e-26 0 5e-05 1.46608e-10 
38 1 0.384295 0.0179641 0.000123125 5.83352e-14 2.89755e-13 -2.73415e-14 7.68427e-19 -5.61935e-19 -3.09372e-18 5e-05 1.46608e-10 
39 1 0.383664 0.0197976 5.13305e-05 -3.50208e-19 -5.34035e-22 2.67381e-16 0 -2.27853e-27 0 5e-05 1.46608e-10 
42 1 0.38332 0.0192284 0.00522714 1.28259e-16 -4.62746e-20 3.78515e-14 0 4.55157e-25 0 5e-05 1.46608e-10 
44 1 0.384012 0.018459 5.17866e-05 1.79759e-18 5.8345e-24 -1.37251e-15 0 1.7139e-27 0 5e-05 1.46608e-10 
45 1 0.384188 0.017154 5.20161e-05 -3.42707e-20 9.39557e-22 2.824e-17 5.16988e-26 1.29247e-26 0 5e-05 1.46608e-10 
47 1 0.393126 0.0171619 0.00810302 -0.000180805 -0.00485154 0.00178093 -1.04811e-12 1.18338e-10 -8.69718e-11 5e-05 1.46608e-10 
48 1 0.383611 0.0181742 5.1261e-05 -8.00765e-19 -9.44495e-24 6.08849e-16 0 -3.23117e-27 0 5e-05 1.46608e-10 
49 1 0.384194 0.0185569 5.20241e-05 1.79761e-18 1.52552e-21 -1.37251e-15 0 5.39855e-26 0 5e-05 1.46608e-10 
50 1 0.384353 0.0181246 5.22331e-05 1.79761e-18 -1.27011e-21 -1.37249e-15 0 -1.43836e-26 0 5e-05 1.46608e-10 
51 1 0.383985 0.019032 5.17502e-05 5.35607e-19 -1.5182e-22 -4.06396e-16 0 0 0 5e-05 1.46608e-10 
52 1 0.38427 0.0217777 5.21238e-05 2.00508e-18 -2.55686e-22 -1.5309e-15 0 2.67585e-26 0 5e-05 1.46608e-10 
53 1 0.3849 0.0167228 5.29491e-05 2.24031e-18 -1.13133e-20 -1.71052e-15 0 -1.08654e-25 0 5e-05 1.46608e-10 
54 1 0.384094 0.0196551 5.18938e-05 2.81059e-18 4.53619e-22 -2.14593e-15 0 7.76964e-27 0 5e-05 1.46608e-10 
55 1 0.383596 0.0188939 5.12421e-05 2.81056e-18 -1.75534e-21 -2.14593e-15 -4.03897e-28 1.60008e-26 0 5e-05 1.46608e-10 
56 1 0.384074 0.0171039 5.18678e-05 -3.4268e-20 -6.90047e-21 2.82665e-17 2.58494e-26 0 0 5e-05 1.46608e-10 
57 1 0.38361 0.0192266 5.12599e-05 -3.5021e-19 2.83011e-21 2.67381e-16 0 2.5408e-26 0 5e-05 1.46608e-10 
59 1 0.378022 0.019866 0.005332 -5.01953e-15 -7.41191e-15 7.69803e-14 -2.18427e-24 3.41212e-24 2.06795e-25 5e-05 1.46608e-10 
60 1 0.384997 0.0170277 5.3077e-05 2.24034e-18 6.35914e-21 -1.71052e-15 0 -2.66293e-26 0 5e-05 1.46608e-10 
62 1 0.384469 0.0166233 5.23854e-05 2.24036e-18 -3.98791e-21 -1.71052e-15 0 -1.59059e-26 0 5e-05 1.46608e-10 
63 1 0.385119 0.0166834 5.32362e-05 2.24037e-18 6.78288e-22 -1.71052e-15 0 -2.94799e-26 0 5e-05 1.46608e-10 
64 1 0.383572 0.0182666 5.12106e-05 1.79758e-18 6.8827e-23 -1.37249e-15 -4.03897e-28 1.30519e-27 0 5e-05 1.46608e-10 
65 1 0.38415 0.0174668 5.19668e-05 2.24032e-18 1.8736e-20 -1.71052e-15 0 4.76894e-27 0 5e-05 1.46608e-10 
66 1 0.384314 0.0196963 5.21813e-05 -3.50169e-19 -4.97814e-21 2.67381e-16 0 3.47868e-25 0 5e-05 1.46608e-10 
67 1 0.38401 0.0186182 5.17838e-05 -3.50184e-19 -1.01598e-21 2.67382e-16 0 3.17051e-26 0 5e-05 1.46608e-10 
68 1 0.384443 0.0179216 0.000120816 -6.75472e-12 1.09777e-11 -1.6141e-12 -9.98769e-18 -1.36893e-17 -2.42063e-17 5e-05 1.46608e-10 
69 1 0.383601 0.0187724 5.12477e-05 2.81055e-18 -2.1903e-21 -2.14593e-15 0 -2.87252e-26 0 5e-05 1.46608e-10 
70 1 0.383695 0.0199014 5.13714e-05 -3.50173e-19 -2.33528e-21 2.67381e-16 0 -4.05924e-26 0 5e-05 1.46608e-10 
71 1 0.383708 0.0192011 5.13883e-05 2.81054e-18 -1.196e-22 -2.14593e-15 0 1.41336e-26 0 5e-05 1.46608e-10 
72 1 0.383848 0.0178769 5.15715e-05 -2.22084e-19 1.67833e-22 1.69475e-16 0 0 0 5e-05 1.46608e-10 
73 1 0.384751 0.0204726 5.27548e-05 2.00509e-18 -1.02059e-21 -1.5309e-15 0 1.52407e-27 0 5e-05 1.46608e-10 
74 1 0.384789 0.0203241 5.2804e-05 8.71368e-19 -1.34323e-21 -6.65298e-16 0 -1.02053e-25 0 5e-05 1.46608e-10 
76 1 0.384148 0.0172907 5.19645e-05 2.24031e-18 3.83329e-22 -1.71052e-15 0 2.08558e-27 0 5e-05 1.46608e-10 
77 1 0.384899 0.0180553 5.29479e-05 1.79756e-18 3.03946e-22 -1.37249e-15 0 -8.44466e-27 0 5e-05 1.46608e-10 
78 1 0.384454 0.0177342 5.23646e-05 2.24036e-18 -1.02825e-21 -1.71052e-15 0 1.99513e-26 0 5e-05 1.46608e-10 
79 1 0.384159 0.0206443 5.19783e-05 2.00509e-18 -5.97891e-21 -1.5309e-15 0 -1.26898e-25 0 5e-05 1.46608e-10 
80 1 0.383985 0.017428 5.1751e-05 2.24036e-18 -1.81643e-21 -1.71051e-15 0 -4.37356e-26 0 5e-05 1.46608e-10 
82 1 0.384471 0.0161368 5.23876e-05 2.24035e-18 -1.12359e-22 -1.71051e-15 0 -9.51772e-26 0 5e-05 1.46608e-10 
83 1 0.384894 0.0205458 5.29418e-05 2.00503e-18 4.55884e-22 -1.5309e-15 0 2.76286e-27 0 5e-05 1.46608e-10 
84 1 0.383993 0.0188764 5.17615e-05 5.32343e-19 -6.61987e-21 -4.06404e-16 0 0 0 5e-05 1.46608e-10 
85 1 0.383849 0.0193448 5.15725e-05 1.03568e-19 -3.96662e-22 -8.03914e-17 0 0 0 5e-05 1.46608e-10 
86 1 0.383935 0.0179283 5.16858e-05 -9.2056e-19 1.14318e-22 7.02843e-16 0 -3.86419e-27 0 5e-05 1.46608e-10 
87 1 0.384931 0.0175954 5.29902e-05 1.79761e-18 -2.97962e-21 -1.37249e-15 0 2.07457e-26 0 5e-05 1.46608e-10 
88 1 0.383272 0.0191349 0.0052273 1.28258e-16 -2.1071e-21 3.78515e-14 0 1.53815e-26 0 5e-05 1.46608e-10 
89 1 0.38382 0.0176837 5.15355e-05 2.24036e-18 2.40991e-21 -1.71051e-15 -4.03897e-28 1.97316e-26 0 5e-05 1.46608e-10 
90 1 0.384046 0.0179367 5.18308e-05 2.24036e-18 2.57291e-22 -1.71052e-15 0 6.94357e-27 0 5e-05 1.46608e-10 
91 1 0.384723 0.0172283 5.27177e-05 2.24035e-18 6.12476e-22 -1.71052e-15 0 -6.51439e-26 0 5e-05 1.46608e-10 
92 1 0.384191 0.017054 5.20202e-05 -9.2056e-19 3.23098e-22 7.02843e-16 0 1.05187e-26 0 5e-05 1.46608e-10 
93 1 0.383736 0.0207666 5.1425e-05 -1.15574e-18 1.40311e-21 8.82406e-16 0 6.59142e-26 0 5e-05 1.46608e-10 
94 1 0.383683 0.0188356 5.13558e-05 -3.50202e-19 1.18326e-20 2.67383e-16 0 2.73502e-25 0 5e-05 1.46608e-10 
95 1 0.384606 0.0176837 5.25637e-05 4.8743e-19 5.29766e-21 -3.71581e-16 0 0 0 5e-05 1.46608e-10 
96 1 0.38444 0.0183063 5.23472e-05 1.79764e-18 -2.62361e-23 -1.37251e-15 0 1.43496e-28 0 5e-05 1.46608e-10 
98 1 0.383724 0.0194164 5.14094e-05 -3.50185e-19 -9.33537e-22 2.67382e-16 0 -9.76001e-27 0 5e-05 1.46608e-10 
99 1 0.384303 0.0183686 5.21674e-05 1.7976e-18 -8.50907e-21 -1.37249e-15 0 2.55315e-26 0 5e-05 1.46608e-10 
100 1 0.384848 0.0173718 5.28812e-05 2.24031e-18 -1.86802e-21 -1.71052e-15 0 5.27579e-26 0 5e-05 1.46608e-10 
101 1 0.384322 0.0214999 5.21918e-05 2.00506e-18 1.35867e-21 -1.5309e-15 0 1.09093e-25 0 5e-05 1.46608e-10 
102 1 0.0643568 0.0187248 0.00531097 4.05655e-15 1.05663e-14 8.29624e-14 -1.69165e-21 8.31446e-22 -1.92319e-23 5e-05 1.46608e-10 
103 1 0.24257 0.0191927 0.00520306 3.06537e-22 -3.03968e-22 8.29106e-22 -3.23117e-27 0 0 5e-05 1.46608e-10 
104 1 0.384443 0.0190455 5.23502e-05 -3.50221e-19 1.30843e-21 2.67381e-16 0 -1.85551e-26 0 5e-05 1.46608e-10 
105 1 0.384764 0.0176468 0.000125094 9.38945e-20 9.12707e-21 -7.99241e-17 2.58494e-26 0 0 5e-05 1.46608e-10 
106 1 0.383893 0.0187182 5.16305e-05 7.79989e-19 3.00793e-21 -5.98255e-16 0 0 0 5e-05 1.46608e-10 
107 1 0.385147 0.0177812 0.000122873 -8.24881e-21 -3.69163e-21 -2.81824e-21 0 1.29247e-26 0 5e-05 1.46608e-10 
108 1 0.383662 0.0180867 5.13271e-05 -7.98494e-19 3.64882e-21 6.0885e-16 0 0 0 5e-05 1.46608e-10 
109 1 0.384177 0.0192838 5.20024e-05 2.81058e-18 1.58135e-21 -2.14593e-15 0 -1.09079e-25 0 5e-05 1.46608e-10 
110 1 0.384493 0.0193015 5.24162e-05 2.81059e-18 5.24194e-23 -2.14593e-15 0 2.23227e-27 0 5e-05 1.46608e-10 
111 1 0.384709 0.0176058 5.26985e-05 1.0126e-19 -1.26023e-21 -7.99256e-17 -2.58494e-26 -3.23117e-27 0 5e-05 1.46608e-10 
112 1 0.384647 0.0185896 5.26184e-05 1.79761e-18 -5.05484e-21 -1.37251e-15 0 -6.46922e-26 0 5e-05 1.46608e-10 
113 1 0.383921 0.0178347 0.00010527 -2.21005e-19 4.31708e-21 1.69474e-16 -1.03398e-25 -1.29247e-26 0 5e-05 1.46608e-10 
114 1 0.384105 0.0183256 5.19082e-05 1.79757e-18 2.33199e-21 -1.37249e-15 0 7.70435e-26 0 5e-05 1.46608e-10 
115 1 0.38367 0.0183173 5.13384e-05 1.79764e-18 -1.92382e-23 -1.37251e-15 0 3.8861e-26 0 5e-05 1.46608e-10 
116 1 0.383786 0.0180677 5.14897e-05 2.24033e-18 -1.65255e-21 -1.71052e-15 0 1.01608e-26 0 5e-05 1.46608e-10 
117 1 0.384446 0.0168712 5.23543e-05 -9.109e-19 -4.20343e-21 7.02812e-16 1.97102e-25 -8.40105e-26 0 5e-05 1.46608e-10 
118 1 0.383701 0.0187017 5.13793e-05 -3.5019e-19 1.75232e-22 2.67381e-16 4.03897e-28 -1.04906e-27 0 5e-05 1.46608e-10 
119 1 0.383906 0.018619 5.16476e-05 7.84717e-19 4.53956e-22 -5.98253e-16 6.46235e-27 0 0 5e-05 1.46608e-10 
120 1 0.384144 0.01791 5.19592e-05 3.51695e-16 1.7225e-16 6.05046e-17 4.19562e-19 -2.32723e-19 -1.9519e-19 5e-05 1.46608e-10 
121 1 0.384817 0.0185465 5.28405e-05 1.79762e-18 2.75948e-21 -1.37251e-15 -4.03897e-28 -1.77029e-25 0 5e-05 1.46608e-10 
122 1 0.384225 0.0179695 5.20647e-05 -4.89967e-14 7.94464e-15 -1.53597e-14 1.80624e-19 2.1407e-19 -9.6952e-19 5e-05 1.46608e-10 
123 1 0.383933 0.0192279 5.16831e-05 1.05166e-19 1.69293e-21 -8.03881e-17 0 0 0 5e-05 1.46608e-10 
124 1 0.384096 0.0170045 5.18952e-05 -6.74364e-21 -7.37433e-21 -4.17044e-19 0 0 0 5e-05 1.46608e-10 
125 1 0.384626 0.016764 5.25911e-05 2.24032e-18 4.36465e-21 -1.71052e-15 -4.03897e-28 -1.56631e-25 0 5e-05 1.46608e-10 
127 1 0.384295 0.018231 0.000129802 1.54118e-20 1.36221e-20 -7.47673e-18 0 0 0 5e-05 1.46608e-10 
128 1 0.384383 0.0169852 5.22722e-05 -9.20543e-19 8.51242e-22 7.02842e-16 0 1.19167e-26 0 5e-05 1.46608e-10 
129 1 0.383806 0.0179676 5.15164e-05 -2.24132e-19 -6.89228e-22 1.69475e-16 1.29247e-26 0 0 5e-05 1.46608e-10 
130 1 0.383859 0.0175842 5.15859e-05 2.24036e-18 -2.63765e-22 -1.71052e-15 0 7.24342e-27 0 5e-05 1.46608e-10 
131 1 0.38345 0.0177196 0.00536012 3.24894e-17 2.72464e-14 8.96463e-14 2.35746e-23 2.99077e-23 -9.09899e-24 5e-05 1.46608e-10 
132 1 0.384418 0.0164926 5.23174e-05 2.24034e-18 6.21865e-22 -1.71052e-15 0 -1.7255e-26 0 5e-05 1.46608e-10 
133 1 0.383591 0.0185347 5.12355e-05 -3.50215e-19 -2.32038e-20 2.67382e-16 -4.03897e-28 3.16086e-25 0 5e-05 1.46608e-10 
134 1 0.383574 0.0183691 5.12127e-05 2.81055e-18 -9.20401e-22 -2.14593e-15 0 9.63841e-27 0 5e-05 1.46608e-10 
135 1 0.383667 0.0199993 5.13343e-05 2.81054e-18 -2.94832e-23 -2.14593e-15 0 -3.89121e-27 0 5e-05 1.46608e-10 
136 1 0.384475 0.0176309 5.23931e-05 -9.2056e-19 1.58362e-20 7.02843e-16 0 -1.0445e-26 0 5e-05 1.46608e-10 
137 1 0.383925 0.0184105 5.16721e-05 1.7976e-18 1.05647e-23 -1.37249e-15 0 4.06749e-29 0 5e-05 1.46608e-10 
138 1 0.384418 0.0178531 5.23181e-05 2.1111e-12 1.74788e-12 3.11911e-13 -5.56559e-18 2.33191e-18 -9.83946e-18 5e-05 1.46608e-10 
140 1 0.384798 0.0171606 5.28155e-05 2.24033e-18 1.16235e-20 -1.71052e-15 0 1.35701e-25 0 5e-05 1.46608e-10 
141 1 0.384313 0.0171449 5.21807e-05 2.24036e-18 6.11142e-21 -1.71052e-15 0 4.64518e-27 0 5e-05 1.46608e-10 
142 1 0.385769 0.0165473 5.40881e-05 1.45285e-18 -2.503e-21 -1.10923e-15 0 -8.47966e-26 0 5e-05 1.46608e-10 
143 1 0.384333 0.0177947 5.22067e-05 -5.08828e-19 2.61909e-21 3.87842e-16 -5.16988e-26 -2.58494e-26 0 5e-05 1.46608e-10 
144 1 0.384385 0.0195542 5.22753e-05 -3.50171e-19 -6.62389e-21 2.67381e-16 0 2.67042e-25 0 5e-05 1.46608e-10 
146 1 0.384085 0.018684 5.18824e-05 2.81054e-18 6.82916e-22 -2.14593e-15 0 1.8876e-26 0 5e-05 1.46608e-10 
147 1 0.384719 0.0170987 5.27125e-05 2.24034e-18 2.6735e-20 -1.71052e-15 0 -9.74135e-26 0 5e-05 1.46608e-10 
148 1 0.383894 0.0174902 5.16321e-05 2.24036e-18 3.42932e-21 -1.71052e-15 -4.03897e-28 1.57507e-26 0 5e-05 1.46608e-10 
149 1 0.384744 0.0173967 5.27447e-05 -1.22755e-19 -3.53951e-21 9.02055e-17 0 1.29247e-26 0 5e-05 1.46608e-10 
150 1 0.383756 0.0184867 5.14508e-05 2.81058e-18 9.39815e-21 -2.14593e-15 0 7.45774e-27 0 5e-05 1.46608e-10 
151 1 0.384727 0.0201861 5.27225e-05 8.71334e-19 2.58587e-20 -6.65298e-16 0 -5.00979e-26 0 5e-05 1.46608e-10 
153 1 0.384074 0.0170516 0.000137426 -7.6995e-21 -9.3383e-21 -1.09853e-20 4.52364e-26 -6.46235e-27 7.27014e-27 5e-05 1.46608e-10 
154 1 0.384584 0.0177681 0.000101539 4.79723e-19 2.81661e-22 -3.71589e-16 0 1.29247e-26 -2.06795e-25 5e-05 1.46608e-10 
155 1 0.384544 0.0163094 5.24825e-05 -9.20561e-19 6.2409e-21 7.02844e-16 0 6.87629e-26 0 5e-05 1.46608e-10 
156 1 0.384233 0.0168376 5.20754e-05 2.24036e-18 7.48781e-23 -1.71051e-15 0 1.13423e-26 0 5e-05 1.46608e-10 
157 1 0.0219312 0.0187687 0.00551176 -3.82923e-14 8.1684e-14 2.95888e-13 2.01884e-23 2.29853e-22 -3.03989e-23 5e-05 1.46608e-10 
158 1 0.384319 0.0167636 5.21878e-05 2.24035e-18 -4.34972e-20 -1.71052e-15 0 5.69459e-25 0 5e-05 1.46608e-10 
159 1 0.384228 0.0177075 5.20694e-05 -5.0855e-19 2.27914e-21 3.87838e-16 0 0 0 5e-05 1.46608e-10 
160 1 0.38353 0.0176621 0.00537757 -4.75071e-17 2.71446e-14 8.96772e-14 -3.05798e-23 -3.87999e-23 1.19941e-23 5e-05 1.46608e-10 
162 1 0.38396 0.0191288 5.17179e-05 -3.50203e-19 3.78517e-22 2.6738e-16 0 6.29601e-27 0 5e-05 1.46608e-10 
165 1 0.384146 0.0189135 5.19615e-05 -3.50191e-19 7.36712e-21 2.6738e-16 0 -5.95941e-26 0 5e-05 1.46608e-10 
166 1 0.384895 0.0168866 5.2943e-05 -9.20554e-19 4.38811e-20 7.02845e-16 4.03897e-28 -1.31279e-25 0 5e-05 1.46608e-10 
167 1 0.384921 0.0196039 5.29764e-05 8.71385e-19 1.05067e-20 -6.65297e-16 0 -2.93358e-25 0 5e-05 1.46608e-10 
168 1 0.383956 0.019484 5.17133e-05 2.81058e-18 -1.69742e-22 -2.14593e-15 0 1.06433e-27 0 5e-05 1.46608e-10 
169 1 0.383755 0.019009 5.14493e-05 2.81058e-18 -7.45298e-22 -2.14593e-15 0 2.39786e-26 0 5e-05 1.46608e-10 
170 1 0.383888 0.0184727 0.00523166 6.88246e-16 -4.57689e-15 -5.98175e-14 1.68021e-24 -2.84343e-25 0 5e-05 1.46608e-10 
171 1 0.384004 0.0193816 5.17764e-05 2.81055e-18 3.15312e-21 -2.14593e-15 0 -1.44586e-26 0 5e-05 1.46608e-10 
172 1 0.384121 0.0171522 0.000126213 -6.48072e-20 -1.38508e-20 2.82551e-17 -1.29247e-25 0 0 5e-05 1.46608e-10 
173 1 0.384268 0.0190399 5.21214e-05 -3.50204e-19 -5.54304e-21 2.67381e-16 0 -1.22009e-25 0 5e-05 1.46608e-10 
174 1 0.384105 0.0178224 7.97669e-05 8.13925e-15 3.88625e-16 7.24893e-15 6.9418e-21 -1.32342e-20 -8.6751e-20 5e-05 1.46608e-10 
176 1 0.384124 0.018008 5.19332e-05 -4.26094e-15 -5.42123e-15 2.64316e-15 1.25409e-19 -5.23301e-20 -3.94193e-20 5e-05 1.46608e-10 
177 1 0.38435 0.018262 5.22293e-05 1.45743e-20 -2.15755e-22 -7.47398e-18 0 0 0 5e-05 1.46608e-10 
178 1 0.384053 0.0189567 5.184e-05 2.81057e-18 1.16382e-22 -2.14593e-15 0 6.03422e-28 0 5e-05 1.46608e-10 
179 1 0.3843 0.0186551 5.2163e-05 1.79761e-18 5.11896e-21 -1.37251e-15 0 -5.77263e-27 0 5e-05 1.46608e-10 
182 1 0.384992 0.0180145 5.30695e-05 1.7976e-18 2.48158e-21 -1.37251e-15 0 3.84385e-26 0 5e-05 1.46608e-10 
183 1 0.386759 0.0152483 5.53836e-05 1.45281e-18 -3.55896e-22 -1.10923e-15 0 2.81295e-26 0 5e-05 1.46608e-10 
184 1 0.383617 0.019327 5.12691e-05 2.81058e-18 -1.05022e-22 -2.14593e-15 0 1.68133e-26 0 5e-05 1.46608e-10 
185 1 0.384403 0.0192492 5.22987e-05 -3.50204e-19 1.14079e-21 2.67381e-16 0 9.11417e-27 0 5e-05 1.46608e-10 
186 1 0.384249 0.018274 5.20972e-05 1.14818e-20 -3.40683e-22 -7.47483e-18 0 0 0 5e-05 1.46608e-10 
187 1 0.38373 0.0197118 5.14173e-05 -3.50206e-19 4.79738e-22 2.67381e-16 0 -1.26432e-26 0 5e-05 1.46608e-10 
188 1 0.385076 0.0179467 5.31802e-05 1.79757e-18 2.24724e-21 -1.37249e-15 0 3.42165e-26 0 5e-05 1.46608e-10 
189 1 0.38396 0.0177554 5.17178e-05 2.24034e-18 6.88794e-22 -1.71051e-15 0 -5.03796e-27 0 5e-05 1.46608e-10 
190 1 0.383867 0.0210849 5.15964e-05 -1.15569e-18 2.57203e-20 8.82406e-16 -4.03897e-28 3.74293e-26 0 5e-05 1.46608e-10 
191 1 0.384706 0.0184769 5.26952e-05 1.7976e-18 -2.49557e-21 -1.37249e-15 0 2.96287e-26 0 5e-05 1.46608e-10 
192 1 0.384023 0.0181084 5.1801e-05 2.21164e-15 -1.57883e-15 -2.25809e-15 3.18936e-20 -3.72596e-20 -2.55429e-20 5e-05 1.46608e-10 
193 1 0.383672 0.0184195 5.13415e-05 -3.50191e-19 -3.67407e-21 2.67382e-16 0 9.66592e-26 0 5e-05 1.46608e-10 
194 1 0.384122 0.0182248 5.1931e-05 1.7976e-18 1.0124e-20 -1.37249e-15 0 -1.79894e-25 0 5e-05 1.46608e-10 
195 1 0.383967 0.0181955 5.17273e-05 1.79761e-18 1.48876e-21 -1.37251e-15 0 -4.31875e-27 0 5e-05 1.46608e-10 
196 1 0.384122 0.0181236 5.19307e-05 1.79758e-18 5.79608e-23 -1.37249e-15 0 -9.85342e-28 0 5e-05 1.46608e-10 
197 1 0.383676 0.0181534 0.000124512 -8.10414e-19 2.14876e-21 6.08853e-16 0 0 0 5e-05 1.46608e-10 
198 1 0.383816 0.019228 5.15292e-05 1.08955e-19 8.20712e-23 -8.03862e-17 0 0 0 5e-05 1.46608e-10 
199 1 0.38465 0.0174377 5.26211e-05 -1.16489e-19 -1.34223e-21 9.01927e-17 -2.58494e-26 2.58494e-26 0 5e-05 1.46608e-10 
200 1 0.3851 0.0177266 5.32113e-05 -5.63914e-22 3.18074e-21 1.10769e-20 0 0 0 5e-05 1.46608e-10 
201 1 0.385006 0.0158243 5.30884e-05 1.45282e-18 1.91037e-21 -1.10923e-15 0 7.48907e-27 0 5e-05 1.46608e-10 
202 1 0.385094 0.0174355 5.32031e-05 1.79764e-18 -8.63464e-22 -1.37251e-15 -4.03897e-28 -2.35334e-26 0 5e-05 1.46608e-10 
203 1 0.384504 0.0179623 5.24301e-05 -4.02587e-12 5.33442e-12 -9.25663e-13 -2.54661e-17 -1.68099e-18 -4.10522e-18 5e-05 1.46608e-10 
204 1 0.384109 0.0184302 5.19127e-05 1.79761e-18 -7.68759e-22 -1.37251e-15 0 4.43538e-26 0 5e-05 1.46608e-10 
205 1 0.384524 0.0174713 5.24569e-05 2.24034e-18 4.8413e-21 -1.71052e-15 0 1.19273e-26 0 5e-05 1.46608e-10 
206 1 0.38435 0.0178614 0.000125081 2.87595e-12 5.94307e-13 5.81168e-13 -2.32302e-17 -1.23071e-18 -4.56697e-18 5e-05 1.46608e-10 
207 1 0.385023 0.0181691 5.31107e-05 1.79763e-18 3.18885e-22 -1.37251e-15 0 -3.10983e-27 0 5e-05 1.46608e-10 
208 1 0.385037 0.0175739 5.31289e-05 1.79756e-18 -1.50818e-21 -1.37249e-15 0 -3.37727e-27 0 5e-05 1.46608e-10 
209 1 0.383886 0.018028 5.16209e-05 -1.11493e-15 -9.92928e-17 -1.1561e-15 1.16521e-20 -3.65626e-21 -3.68654e-21 5e-05 1.46608e-10 
210 1 0.384526 0.016716 5.24592e-05 2.24035e-18 3.07474e-21 -1.71051e-15 -4.03897e-28 9.22228e-26 0 5e-05 1.46608e-10 
211 1 0.384505 0.0171609 5.24316e-05 2.24032e-18 -1.18156e-21 -1.71052e-15 0 -1.31199e-25 0 5e-05 1.46608e-10 
212 1 0.383978 0.0185238 0.00522879 -2.82528e-15 1.87927e-14 2.4561e-13 4.20053e-26 5.16988e-26 0 5e-05 1.46608e-10 
213 1 0.383846 0.0191172 5.15692e-05 2.81056e-18 2.73414e-21 -2.14593e-15 0 1.35941e-26 0 5e-05 1.46608e-10 
214 1 0.384625 0.017537 5.25895e-05 9.32318e-20 3.05221e-22 -7.992e-17 0 0 0 5e-05 1.46608e-10 
215 1 0.385553 0.0152374 5.38047e-05 1.45282e-18 1.07935e-21 -1.10923e-15 0 -3.21267e-26 0 5e-05 1.46608e-10 
217 1 0.384411 0.0184417 5.23083e-05 1.7976e-18 5.10978e-22 -1.37251e-15 0 4.34382e-26 0 5e-05 1.46608e-10 
218 1 0.384302 0.0165156 5.21656e-05 -9.20559e-19 -4.10602e-21 7.02843e-16 0 2.64781e-25 0 5e-05 1.46608e-10 
219 1 0.384399 0.0186101 5.22929e-05 1.79759e-18 -1.07028e-20 -1.37251e-15 0 2.14292e-26 0 5e-05 1.46608e-10 
220 1 0.384943 0.0187045 5.30057e-05 1.79761e-18 -2.70646e-22 -1.37251e-15 0 -1.99694e-27 0 5e-05 1.46608e-10 
222 1 0.384205 0.0180675 5.20391e-05 -4.34031e-14 7.13166e-15 9.07868e-17 -1.88663e-19 -2.87739e-19 -4.22349e-19 5e-05 1.46608e-10 
224 1 0.384058 0.0177382 5.18467e-05 -4.3574e-15 3.24441e-16 2.16734e-15 -1.12758e-19 1.53836e-19 -5.65792e-21 5e-05 1.46608e-10 
225 1 0.384811 0.0174713 5.28328e-05 1.05002e-19 -1.05976e-21 -7.99125e-17 0 -5.16988e-26 0 5e-05 1.46608e-10 
226 1 0.383884 0.0196254 5.16191e-05 -3.50211e-19 1.12295e-21 2.67381e-16 0 -3.39212e-26 0 5e-05 1.46608e-10 
227 1 0.384574 0.0160758 5.25222e-05 2.24035e-18 7.09641e-21 -1.71052e-15 -4.03897e-28 1.8425e-25 0 5e-05 1.46608e-10 
228 1 0.384056 0.0180406 0.000117497 -2.30935e-15 -1.8524e-15 -1.20115e-16 -2.1398e-20 2.82582e-20 -1.14048e-21 5e-05 1.46608e-10 
229 1 0.384183 0.0194731 5.201e-05 -3.50179e-19 -1.00845e-21 2.67382e-16 0 5.22402e-26 0 5e-05 1.46608e-10 
230 1 0.385084 0.0171004 5.31901e-05 -9.20533e-19 -1.22535e-23 7.02844e-16 0 -2.40045e-26 0 5e-05 1.46608e-10 
232 1 0.38345 0.0186594 0.00522432 -5.7411e-14 -4.43356e-19 -1.77479e-13 0 4.35704e-25 -2.06795e-25 5e-05 1.46608e-10 
233 1 0.384483 0.016964 5.24031e-05 -9.30442e-19 3.01512e-21 7.02812e-16 -1.98717e-25 7.4317e-26 0 5e-05 1.46608e-10 
234 1 0.384564 0.0189811 5.25095e-05 -3.50213e-19 3.80628e-21 2.67382e-16 0 -8.28085e-26 0 5e-05 1.46608e-10 
235 1 0.385129 0.0178507 5.32485e-05 1.11177e-22 -8.43281e-22 -2.2895e-21 0 -2.58494e-26 0 5e-05 1.46608e-10 
236 1 0.385096 0.0164501 5.32056e-05 -9.20539e-19 -7.59045e-21 7.02842e-16 0 2.35911e-25 0 5e-05 1.46608e-10 
237 1 0.383933 0.0187648 0.000130442 7.69746e-19 4.4561e-21 -5.98258e-16 -2.58494e-26 0 0 5e-05 1.46608e-10 
239 1 0.384687 0.0169933 5.26707e-05 2.24031e-18 -1.20046e-22 -1.71051e-15 0 2.69877e-29 0 5e-05 1.46608e-10 
240 1 0.384262 0.0177729 0.000119547 -4.99153e-19 8.85402e-21 3.87838e-16 7.75482e-26 0 -2.06795e-25 5e-05 1.46608e-10 
241 1 0.384801 0.0166583 5.28192e-05 2.24031e-18 -2.38751e-22 -1.71051e-15 0 -4.61074e-26 0 5e-05 1.46608e-10 
242 1 0.383909 0.0188216 5.16519e-05 7.81691e-19 2.28287e-21 -5.98258e-16 0 0 0 5e-05 1.46608e-10 
243 1 0.38439 0.0209101 5.22816e-05 2.00506e-18 9.42359e-21 -1.5309e-15 0 4.81697e-25 0 5e-05 1.46608e-10 
244 1 0.384493 0.0173689 9.64047e-05 -1.17915e-19 -3.933e-21 9.01914e-17 0 0 0 5e-05 1.46608e-10 
246 1 0.38382 0.0188681 5.15345e-05 -3.50221e-19 2.68293e-23 2.6738e-16 0 1.0489e-27 0 5e-05 1.46608e-10 
247 1 0.384541 0.017902 0.000125062 2.80999e-11 9.87068e-11 -1.79125e-12 -3.49491e-18 -6.71475e-17 8.1234e-18 5e-05 1.46608e-10 
248 1 0.383639 0.0189866 5.12974e-05 -3.50216e-19 3.78019e-22 2.67381e-16 0 1.88315e-26 0 5e-05 1.46608e-10 
249 1 0.38453 0.020178 5.24643e-05 8.71347e-19 -4.92302e-21 -6.65297e-16 0 -3.02598e-26 0 5e-05 1.46608e-10 
250 1 0.384661 0.0178084 5.26366e-05 4.86817e-19 7.65547e-22 -3.71585e-16 0 0 0 5e-05 1.46608e-10 
251 1 0.384005 0.0178448 5.17769e-05 -2.25752e-19 1.31549e-21 1.69486e-16 1.03398e-25 -3.23117e-27 0 5e-05 1.46608e-10 
252 1 0.384145 0.0205426 5.19607e-05 8.71384e-19 -4.06609e-21 -6.65298e-16 0 1.81248e-25 0 5e-05 1.46608e-10 
253 1 0.383856 0.0203056 5.15822e-05 2.81058e-18 -2.41638e-21 -2.14593e-15 0 1.34649e-25 0 5e-05 1.46608e-10 
254 1 0.38515 0.0175249 5.32762e-05 1.79756e-18 6.71664e-21 -1.37249e-15 0 -1.48264e-25 0 5e-05 1.46608e-10 
255 1 0.383703 0.0182157 5.13821e-05 -7.98206e-19 1.93859e-21 6.08848e-16 0 0 0 5e-05 1.46608e-10 
256 1 0.384352 0.0191511 5.22319e-05 -3.50172e-19 8.83339e-22 2.67382e-16 0 -4.14196e-27 0 5e-05 1.46608e-10 
257 1 0.384531 0.0168171 5.24664e-05 2.24036e-18 6.65072e-23 -1.71051e-15 0 -3.54433e-28 0 5e-05 1.46608e-10 
258 1 0.383662 0.0204201 5.13284e-05 -5.14035e-22 2.20221e-23 1.03396e-21 0 0 0 5e-05 1.46608e-10 
259 1 0.384524 0.0216685 5.24571e-05 2.00505e-18 -1.10954e-20 -1.5309e-15 0 -7.58427e-27 0 5e-05 1.46608e-10 
260 1 0.384677 0.0173224 5.2657e-05 -1.25142e-19 2.41565e-21 9.02023e-17 5.16988e-26 2.58494e-26 0 5e-05 1.46608e-10 
261 1 0.383833 0.0185505 5.15522e-05 -3.50191e-19 -1.20983e-22 2.67381e-16 0 -5.74406e-28 0 5e-05 1.46608e-10 
262 1 0.384455 0.0172873 5.2367e-05 -1.15413e-19 -8.59699e-22 9.01938e-17 1.29247e-26 0 0 5e-05 1.46608e-10 
263 1 0.384148 0.018808 5.1965e-05 -3.5022e-19 2.46506e-20 2.67382e-16 4.03897e-28 -1.74735e-25 0 5e-05 1.46608e-10 
264 1 0.383874 0.0192744 0.000117813 9.95276e-20 3.14243e-21 -8.03892e-17 0 0 0 5e-05 1.46608e-10 
265 1 0.384664 0.0180562 5.26402e-05 1.79759e-18 -1.66567e-22 -1.37251e-15 0 -2.54953e-26 0 5e-05 1.46608e-10 
266 1 0.383681 0.0195344 5.13528e-05 -3.50212e-19 1.88987e-21 2.67382e-16 0 3.44058e-26 0 5e-05 1.46608e-10 
267 1 0.384035 0.0173399 5.18167e-05 2.24037e-18 -1.12134e-22 -1.71052e-15 0 1.20892e-27 0 5e-05 1.46608e-10 
268 1 0.384513 0.0181523 5.24423e-05 1.79761e-18 4.34652e-21 -1.37251e-15 4.03897e-28 -9.51475e-26 0 5e-05 1.46608e-10 
269 1 0.383985 0.018016 5.17508e-05 -2.68052e-15 9.80239e-16 5.40758e-16 5.10231e-20 -9.70283e-21 -7.61585e-21 5e-05 1.46608e-10 
270 1 0.384204 0.0178183 5.2038e-05 -5.10448e-19 -3.32622e-22 3.87841e-16 0 2.58494e-26 0 5e-05 1.46608e-10 
271 1 0.384204 0.0183848 5.20381e-05 1.79761e-18 2.79161e-22 -1.37251e-15 0 -5.15795e-26 0 5e-05 1.46608e-10 
272 1 0.384044 0.0177752 0.000143609 1.13613e-14 -2.29812e-15 5.62977e-15 -1.36165e-19 -4.70918e-20 7.81082e-20 5e-05 1.46608e-10 
273 1 0.38425 0.0173241 5.20975e-05 2.24035e-18 -2.07989e-21 -1.71051e-15 0 3.77244e-27 0 5e-05 1.46608e-10 
274 1 0.383762 0.0206306 5.14594e-05 8.71375e-19 1.42971e-21 -6.65298e-16 0 -1.85155e-27 0 5e-05 1.46608e-10 
275 1 0.385192 0.0170617 5.33312e-05 -9.2053e-19 -3.44575e-22 7.02844e-16 0 7.61057e-27 0 5e-05 1.46608e-10 
276 1 0.3843 0.0175031 5.2164e-05 2.24035e-18 -4.46025e-22 -1.71052e-15 0 6.6767e-27 0 5e-05 1.46608e-10 
277 1 0.384989 0.0177301 5.30663e-05 1.7976e-18 4.39195e-22 -1.37249e-15 0 5.1667e-27 0 5e-05 1.46608e-10 
278 1 0.384608 0.0171655 5.25668e-05 2.24033e-18 -1.54669e-22 -1.71052e-15 4.03897e-28 3.22578e-27 0 5e-05 1.46608e-10 
280 1 0.383746 0.0191087 5.14383e-05 2.81058e-18 7.89324e-22 -2.14593e-15 0 2.67861e-27 0 5e-05 1.46608e-10 
281 1 0.384897 0.0194055 5.2945e-05 8.71383e-19 -1.30124e-21 -6.65298e-16 0 -9.354e-26 0 5e-05 1.46608e-10 
283 1 0.384732 0.0167368 5.27299e-05 2.24032e-18 -3.64285e-21 -1.71052e-15 0 -2.07727e-26 0 5e-05 1.46608e-10 
284 1 0.383859 0.0194467 5.15855e-05 2.81054e-18 -2.61573e-22 -2.14593e-15 0 -9.06156e-27 0 5e-05 1.46608e-10 
285 1 0.384511 0.017816 5.24399e-05 4.81305e-19 -7.63423e-21 -3.71583e-16 0 -5.16988e-26 0 5e-05 1.46608e-10 
286 1 0.384761 0.017818 5.27671e-05 4.83742e-19 1.97746e-22 -3.71584e-16 0 0 0 5e-05 1.46608e-10 
287 1 0.384417 0.0167417 5.23161e-05 2.24032e-18 -1.00593e-20 -1.71052e-15 0 5.71984e-26 0 5e-05 1.46608e-10 
288 1 0.384905 0.0179551 5.29553e-05 1.79762e-18 -2.15173e-21 -1.37251e-15 0 -3.55326e-26 0 5e-05 1.46608e-10 
290 1 0.38472 0.0175079 6.94547e-05 1.07086e-19 -4.68406e-21 -7.99187e-17 0 3.87741e-26 -2.06795e-25 5e-05 1.46608e-10 
291 1 0.38371 0.0179981 5.13903e-05 2.24036e-18 5.56073e-22 -1.71052e-15 0 -1.5951e-28 0 5e-05 1.46608e-10 
292 1 0.384101 0.0193494 5.19028e-05 -3.50175e-19 -5.24627e-21 2.67381e-16 0 -2.66207e-26 0 5e-05 1.46608e-10 
293 1 0.384429 0.0174321 5.23324e-05 -1.23073e-19 -6.13042e-21 9.0189e-17 0 2.58494e-26 0 5e-05 1.46608e-10 
294 1 0.383845 0.0189654 5.1567e-05 5.31324e-19 5.37244e-22 -4.06399e-16 0 0 0 5e-05 1.46608e-10 
295 1 0.383647 0.0190875 5.13083e-05 -3.50199e-19 9.67259e-24 2.67381e-16 0 1.69503e-28 0 5e-05 1.46608e-10 
296 1 0.384035 0.0172167 0.000137258 -7.26106e-18 9.37219e-19 3.92562e-17 0 0 -6.20385e-25 5e-05 1.46608e-10 
297 1 0.383829 0.0183804 5.15472e-05 1.79764e-18 -3.57554e-22 -1.37251e-15 0 -7.76097e-27 0 5e-05 1.46608e-10 
298 1 0.384428 0.0175321 5.23311e-05 -1.17617e-19 -3.50245e-21 9.0194e-17 1.29247e-26 0 0 5e-05 1.46608e-10 
299 1 0.38404 0.0171308 0.000188309 -1.27189e-17 2.99698e-17 1.97381e-17 -5.16988e-26 -1.03398e-25 0 5e-05 1.46608e-10 
300 1 0.383994 0.0172487 5.17625e-05 -4.98866e-20 -1.50403e-20 4.9917e-17 5.16988e-26 0 4.1359e-25 5e-05 1.46608e-10 
