ITEM: TIMESTEP
21000000
ITEM: NUMBER OF ATOMS
287
ITEM: BOX BOUNDS ff ff ff
-0.02 0.43
-0.02 0.06
-0.02 0.07
ITEM: ATOMS id type x y z vx vy vz fx fy fz radius mass 
1 1 0.135237 0.0162201 0.00788133 0.0058608 0.00110792 -0.000515946 2.12358e-11 -9.45368e-11 -3.98655e-11 5e-05 1.46608e-10 
2 1 0.135716 0.0186636 0.00694051 0.00564471 0.000829951 -0.000756861 3.21165e-11 -1.3218e-10 6.22062e-11 5e-05 1.46608e-10 
3 1 0.129359 0.0169051 0.00756303 0.00612068 -0.000384394 -0.000282172 3.83527e-10 8.19821e-10 2.32764e-09 5e-05 1.46608e-10 
4 1 0.135587 0.017664 0.00732677 0.00623003 0.000829063 -0.000805752 -2.60592e-11 -1.1561e-11 2.47877e-12 5e-05 1.46608e-10 
5 1 0.135108 0.0160525 0.0080372 0.00584397 0.00110894 -0.000520733 -5.57697e-12 1.26893e-12 -9.91873e-13 5e-05 1.46608e-10 
6 1 0.141204 0.0164456 0.00777982 0.00572787 -0.00109497 0.000660626 1.05884e-10 4.92187e-10 -6.29715e-10 5e-05 1.46608e-10 
7 1 0.135293 0.0167983 0.00759703 0.00630963 0.000803125 -0.000802139 -3.49541e-12 9.10558e-12 1.73319e-11 5e-05 1.46608e-10 
8 1 0.13501 0.015703 0.00837972 0.00576656 0.00111585 -0.000535625 1.56606e-11 -1.31199e-11 2.67042e-11 5e-05 1.46608e-10 
9 1 0.141473 0.0175578 0.0073069 0.00584846 -0.000741353 0.000469443 -3.37208e-11 -2.08109e-10 4.35064e-11 5e-05 1.46608e-10 
10 1 0.135228 0.0165227 0.00769554 0.00631511 0.000786493 -0.000833821 4.93747e-11 7.36957e-11 2.34633e-10 5e-05 1.46608e-10 
11 1 0.13584 0.0179862 0.00715532 0.00619155 0.000950297 -0.000842769 8.42997e-11 -3.19636e-11 -1.27503e-12 5e-05 1.46608e-10 
12 1 0.129182 0.0164075 0.00795089 0.00591432 0.000326887 -0.000349072 -1.51167e-10 -4.88232e-11 -9.62992e-11 5e-05 1.46608e-10 
13 1 0.135088 0.0159824 0.00810584 0.0058318 0.001107 -0.000520627 3.06058e-13 -2.621e-11 1.95867e-11 5e-05 1.46608e-10 
14 1 0.128937 0.0155314 0.00873333 0.00567053 0.00082424 -0.000211222 3.74871e-11 1.88495e-10 -1.70663e-10 5e-05 1.46608e-10 
15 1 0.135454 0.0171011 0.00748264 0.0062839 0.000816491 -0.000806383 -8.15276e-12 8.95736e-12 -1.32516e-12 5e-05 1.46608e-10 
16 1 0.128917 0.0154583 0.00879853 0.00567016 0.000822051 -0.000209146 6.1303e-11 2.07976e-10 -1.78519e-10 5e-05 1.46608e-10 
17 1 0.135207 0.0164324 0.00773305 0.00607249 6.74585e-05 -0.00268452 -5.06975e-11 -1.41948e-10 -3.17225e-10 5e-05 1.46608e-10 
18 1 0.141345 0.0169827 0.00742011 0.00598698 -0.000842164 0.000495891 -1.21315e-10 -7.73515e-11 -1.45935e-11 5e-05 1.46608e-10 
19 1 0.135069 0.0159124 0.00817447 0.00582387 0.00110593 -0.000520068 3.27548e-12 -1.80457e-11 1.85761e-11 5e-05 1.46608e-10 
21 1 0.135224 0.0161497 0.00795109 0.00586045 0.00110738 -0.000513052 -3.85836e-11 -2.56945e-11 1.15787e-11 5e-05 1.46608e-10 
22 1 0.135336 0.0169826 0.00753209 0.00629556 0.000806201 -0.000804181 5.24211e-12 -5.64919e-12 -1.14479e-13 5e-05 1.46608e-10 
23 1 0.129317 0.0165614 0.0077829 0.00609031 7.08054e-05 -0.000596746 -4.48046e-11 -3.10031e-10 1.31258e-10 5e-05 1.46608e-10 
24 1 0.141409 0.0172702 0.0073635 0.0059126 -0.000796576 0.000484607 -2.34537e-11 -1.61117e-10 2.99448e-11 5e-05 1.46608e-10 
25 1 0.135271 0.0167064 0.00762951 0.00632005 0.000801526 -0.000795562 -1.73601e-11 1.07781e-11 2.67739e-11 5e-05 1.46608e-10 
26 1 0.141281 0.0166951 0.00747671 0.0058023 -0.000677769 0.000398604 -2.2092e-09 5.51506e-10 8.17187e-10 5e-05 1.46608e-10 
27 1 0.129478 0.0171679 0.00737821 0.0062418 0.000583649 0.000301478 2.39657e-10 -1.03515e-10 6.58868e-10 5e-05 1.46608e-10 
28 1 0.135566 0.0175674 0.00734172 0.00623808 0.0008277 -0.000804877 -6.70835e-12 -2.47917e-11 6.65254e-12 5e-05 1.46608e-10 
29 1 0.135049 0.0158424 0.0082431 0.00581455 0.00110677 -0.000521697 -9.16218e-12 -1.86052e-11 2.94167e-11 5e-05 1.46608e-10 
30 1 0.135521 0.0173783 0.00738472 0.006239 0.000833188 -0.000808633 -3.75609e-11 -6.10296e-11 2.51907e-11 5e-05 1.46608e-10 
31 1 0.135314 0.0168905 0.00756456 0.00630257 0.000804245 -0.000804259 6.46803e-12 2.0672e-12 -5.57562e-13 5e-05 1.46608e-10 
32 1 0.135432 0.0170091 0.00751512 0.00629343 0.000814448 -0.000806468 2.22634e-11 1.42855e-11 -4.53276e-12 5e-05 1.46608e-10 
33 1 0.141223 0.0165079 0.007704 0.00555062 -0.000797603 0.000334969 -3.44302e-10 6.7831e-10 -9.39901e-10 5e-05 1.46608e-10 
34 1 0.135186 0.0163493 0.00778466 0.00595629 0.000201833 -0.00251481 -2.42609e-11 -2.03622e-10 -3.19406e-10 5e-05 1.46608e-10 
35 1 0.13541 0.016917 0.00754759 0.00630232 0.000812522 -0.00080662 3.79277e-11 1.60728e-11 -1.04398e-11 5e-05 1.46608e-10 
36 1 0.141516 0.0177495 0.00726916 0.00580557 -0.000708044 0.000460253 -5.62268e-11 -1.58211e-10 3.0267e-11 5e-05 1.46608e-10 
37 1 0.135367 0.0167325 0.00761265 0.00631561 0.000809111 -0.000806198 1.69399e-12 1.97104e-11 -3.27752e-12 5e-05 1.46608e-10 
38 1 0.135595 0.0173132 0.00740007 0.00624417 0.000846725 -0.000813325 1.75063e-12 -2.27126e-11 6.38321e-12 5e-05 1.46608e-10 
39 1 0.14143 0.0173661 0.00734463 0.00589139 -0.000780684 0.000479996 -4.26337e-11 -1.41567e-10 2.79614e-11 5e-05 1.46608e-10 
41 1 0.135147 0.0162092 0.00792253 0.00583163 0.00107771 -0.000584875 -1.40764e-12 -3.42832e-11 -1.10278e-10 5e-05 1.46608e-10 
42 1 0.135358 0.0170746 0.00749962 0.00628706 0.000808045 -0.000803634 -5.01377e-12 -1.23322e-11 3.22285e-12 5e-05 1.46608e-10 
44 1 0.135621 0.0174042 0.00736759 0.00624367 0.000831789 -0.000807963 3.9778e-11 4.15774e-11 -1.81193e-11 5e-05 1.46608e-10 
45 1 0.141242 0.0165703 0.00762818 0.00586761 -0.000711832 0.000225115 -5.48358e-10 1.06111e-09 -6.31809e-10 5e-05 1.46608e-10 
46 1 0.141324 0.0168868 0.00743898 0.00613874 -0.000787241 0.000476181 5.25024e-10 3.6763e-09 -1.21162e-09 5e-05 1.46608e-10 
47 1 0.135167 0.0162883 0.0078615 0.00596283 0.000759259 -0.0020707 2.88085e-11 -2.55452e-10 -3.61049e-10 5e-05 1.46608e-10 
48 1 0.135401 0.0172587 0.00743468 0.00626795 0.00081127 -0.000803084 -1.71642e-11 -3.34549e-11 1.30232e-11 5e-05 1.46608e-10 
49 1 0.141302 0.0167909 0.00745784 0.00606318 -0.000752078 0.000480875 -1.84799e-09 -7.05805e-10 -1.64621e-10 5e-05 1.46608e-10 
50 1 0.135464 0.0175245 0.00734093 0.00624415 0.000818986 -0.000803485 -1.22478e-11 -5.138e-11 1.90777e-11 5e-05 1.46608e-10 
51 1 0.135446 0.0174439 0.00739749 0.00624007 0.000821199 -0.000806633 -3.32061e-11 -4.74198e-11 3.07312e-11 5e-05 1.46608e-10 
52 1 0.129161 0.0163353 0.00801694 0.00594499 0.000635135 -1.74331e-05 -3.47276e-12 1.56102e-10 8.18383e-11 5e-05 1.46608e-10 
53 1 0.141366 0.0170785 0.00740124 0.00595247 -0.000815957 0.000491741 1.37607e-11 -2.00151e-10 5.23255e-11 5e-05 1.46608e-10 
54 1 0.135202 0.0160798 0.00801927 0.0058542 0.00110199 -0.000513409 -1.87985e-11 -2.81789e-11 4.39432e-11 5e-05 1.46608e-10 
55 1 0.128976 0.0156777 0.00860278 0.00553785 0.000839683 -0.000237855 3.57341e-11 1.83765e-10 -1.58529e-10 5e-05 1.46608e-10 
56 1 0.135388 0.016825 0.00758007 0.00630796 0.000810105 -0.000806475 1.15449e-11 7.16723e-12 -3.74455e-12 5e-05 1.46608e-10 
57 1 0.141262 0.0166326 0.00755248 0.00611571 -0.000865083 0.0002229 -6.54073e-10 -1.81301e-09 1.40068e-09 5e-05 1.46608e-10 
59 1 0.135505 0.0169431 0.00753083 0.00629977 0.000820577 -0.000809057 5.11971e-11 3.54254e-11 -1.7261e-11 5e-05 1.46608e-10 
60 1 0.135527 0.0170351 0.00749836 0.00629042 0.000822798 -0.000809025 2.71774e-11 4.58473e-11 -1.75196e-11 5e-05 1.46608e-10 
61 1 0.135127 0.0161225 0.00796857 0.00585114 0.00110854 -0.000519238 3.03175e-11 4.12896e-11 -2.20771e-11 5e-05 1.46608e-10 
62 1 0.13564 0.0175003 0.00733401 0.00623963 0.000833189 -0.000807878 5.37844e-12 -3.589e-12 -2.01519e-13 5e-05 1.46608e-10 
63 1 0.135652 0.0178001 0.00731861 0.00621928 0.000829693 -0.000806046 -1.87878e-11 6.14562e-11 -1.27531e-11 5e-05 1.46608e-10 
64 1 0.141388 0.0171744 0.00738237 0.0059349 -0.000803007 0.000487072 -7.00589e-11 -1.2298e-10 2.42909e-11 5e-05 1.46608e-10 
65 1 0.129499 0.0174106 0.00733065 0.00596066 0.000585196 0.000102661 -1.80619e-10 1.42787e-10 -1.24974e-10 5e-05 1.46608e-10 
66 1 0.129599 0.0173476 0.00731959 0.00683524 0.00116232 -0.00037769 -3.10886e-11 -4.19982e-10 -1.03423e-09 5e-05 1.46608e-10 
67 1 0.135726 0.0178599 0.00720706 0.00621612 0.000833882 -0.000806077 -1.48956e-11 5.8144e-11 -1.88299e-11 5e-05 1.46608e-10 
68 1 0.135683 0.0176895 0.00729801 0.00622553 0.000832846 -0.000807423 -2.06016e-11 4.56077e-11 -6.08503e-13 5e-05 1.46608e-10 
69 1 0.135301 0.0164561 0.00771021 0.00633132 0.000811154 -0.000815898 8.90041e-12 -1.77586e-11 -1.13805e-11 5e-05 1.46608e-10 
70 1 0.141452 0.0174619 0.00732577 0.00586941 -0.000761777 0.000475081 -1.22912e-11 -1.97312e-10 4.26137e-11 5e-05 1.46608e-10 
71 1 0.128956 0.0156045 0.00866808 0.00546876 0.000845757 -0.000249937 -2.58892e-11 2.11156e-10 -2.02725e-10 5e-05 1.46608e-10 
72 1 0.135654 0.0175939 0.00730167 0.00623385 0.000834192 -0.000807777 -2.17377e-11 -6.11283e-12 4.52737e-12 5e-05 1.46608e-10 
73 1 0.135249 0.0166143 0.00766197 0.00632434 0.000796105 -0.000803424 -9.97728e-12 1.1389e-11 3.26204e-11 5e-05 1.46608e-10 
74 1 0.135476 0.0171938 0.00745042 0.00626952 0.000817484 -0.000804642 9.6082e-12 -4.29151e-12 2.13441e-13 5e-05 1.46608e-10 
76 1 0.129456 0.0170592 0.00730736 0.00648536 0.00060538 0.000367192 2.78616e-10 8.07398e-10 -2.80667e-10 5e-05 1.46608e-10 
77 1 0.135689 0.0182063 0.00709497 0.00605901 0.000937204 -0.000828915 -9.27676e-11 -1.5991e-12 3.10942e-12 5e-05 1.46608e-10 
78 1 0.129016 0.0158239 0.0084724 0.00571976 0.000829173 -0.000211528 9.63605e-11 1.28373e-10 -1.13722e-10 5e-05 1.46608e-10 
79 1 0.129549 0.0172356 0.00735628 0.00639822 0.000666203 0.000437239 -3.86365e-10 2.5607e-10 -2.3343e-10 5e-05 1.46608e-10 
80 1 0.135507 0.0177086 0.00727599 0.00623122 0.000822655 -0.000803875 5.98726e-12 -3.15747e-11 1.04746e-11 5e-05 1.46608e-10 
81 1 0.129339 0.0169773 0.00749683 0.00618577 -8.83781e-05 -9.30396e-06 4.00614e-10 9.50507e-10 1.43161e-09 5e-05 1.46608e-10 
82 1 0.129243 0.0166136 0.00774176 0.00608116 3.34945e-05 -0.000579909 -2.66332e-11 -1.05453e-10 3.39741e-10 5e-05 1.46608e-10 
83 1 0.129352 0.0163745 0.00796591 0.00590389 9.54256e-05 -0.000615853 2.76509e-10 -3.58373e-10 3.6874e-10 5e-05 1.46608e-10 
84 1 0.141494 0.0176536 0.00728803 0.0058295 -0.000722812 0.000464586 -4.41123e-11 -1.78131e-10 3.24779e-11 5e-05 1.46608e-10 
85 1 0.129132 0.0159247 0.00839103 0.00578075 0.000790864 -0.000171071 -3.7613e-11 -2.26155e-10 2.25484e-10 5e-05 1.46608e-10 
86 1 0.135547 0.0174701 0.00735459 0.00624215 0.000824819 -0.000804655 1.73142e-11 -5.85862e-12 7.51802e-13 5e-05 1.46608e-10 
87 1 0.135484 0.016851 0.0075633 0.00630837 0.000818309 -0.000809057 4.27234e-11 2.95794e-11 -1.46825e-11 5e-05 1.46608e-10 
88 1 0.135575 0.0178632 0.0073065 0.00621962 0.000827743 -0.000805012 -2.59859e-11 3.94222e-11 -1.589e-11 5e-05 1.46608e-10 
89 1 0.13553 0.0177807 0.00734149 0.00623285 0.000822005 -0.000803884 -9.37821e-11 -2.72388e-11 -1.11044e-11 5e-05 1.46608e-10 
90 1 0.135847 0.0181024 0.00711605 0.00617455 0.0010103 -0.000859835 7.21627e-11 -1.38529e-10 4.87941e-11 5e-05 1.46608e-10 
91 1 0.129202 0.0164779 0.00788293 0.00596093 0.0001612 -0.00048157 -3.25059e-10 6.2255e-10 8.17671e-10 5e-05 1.46608e-10 
92 1 0.135748 0.017952 0.00717457 0.00620265 0.000845457 -0.000809575 -4.41506e-11 2.86227e-11 -1.09856e-11 5e-05 1.46608e-10 
93 1 0.135572 0.0179847 0.00717862 0.00621124 0.000827729 -0.000804628 1.5899e-11 4.55572e-11 -2.48182e-11 5e-05 1.46608e-10 
94 1 0.13583 0.0183505 0.00703497 0.00597194 0.00112263 -0.000881474 -1.17962e-11 6.52908e-11 -8.29607e-12 5e-05 1.46608e-10 
95 1 0.135674 0.0178921 0.00728613 0.00621445 0.000831179 -0.0008052 -2.14799e-11 6.04349e-11 -2.35226e-11 5e-05 1.46608e-10 
96 1 0.135765 0.0180506 0.00714031 0.00618482 0.000948942 -0.000841991 -3.25461e-11 -3.55192e-11 8.98365e-12 5e-05 1.46608e-10 
97 1 0.12912 0.0161892 0.00814708 0.00588731 0.000714157 -9.21286e-05 2.48044e-10 -1.78515e-10 2.70125e-10 5e-05 1.46608e-10 
98 1 0.135551 0.0178939 0.00721451 0.00621636 0.00082609 -0.000803938 -3.51124e-11 3.81062e-11 -4.23156e-12 5e-05 1.46608e-10 
99 1 0.12964 0.0174343 0.00729184 0.00704486 0.00105527 -0.000464591 -9.28394e-11 -1.48833e-10 -1.70417e-10 5e-05 1.46608e-10 
100 1 0.135732 0.0175334 0.00731512 0.00623579 0.000838786 -0.000809697 4.86203e-12 2.66655e-11 -8.76209e-12 5e-05 1.46608e-10 
101 1 0.129488 0.0170711 0.00740147 0.00651455 0.000568449 0.000381909 -2.68474e-11 1.59706e-10 7.62997e-10 5e-05 1.46608e-10 
102 1 0.0643568 0.0187248 0.00531097 4.289e-15 1.04975e-14 8.2959e-14 -4.67905e-21 1.27301e-21 7.44463e-23 5e-05 1.46608e-10 
103 1 0.24257 0.0191927 0.00520306 3.39597e-22 4.86658e-23 1.53437e-21 0 0 0 5e-05 1.46608e-10 
104 1 0.129475 0.0167862 0.00754537 0.00624642 -0.000156305 -0.000409816 -2.56849e-10 -4.29558e-10 4.7081e-10 5e-05 1.46608e-10 
105 1 0.129078 0.0160431 0.00827721 0.00584517 0.000782452 -0.000155926 -1.93035e-10 -1.27411e-10 1.35426e-10 5e-05 1.46608e-10 
106 1 0.129575 0.0168091 0.0075138 0.0062576 -0.000213573 -0.00038521 8.25462e-12 2.50242e-10 4.08762e-10 5e-05 1.46608e-10 
107 1 0.129037 0.015897 0.00840734 0.00576308 0.000824219 -0.000200945 -3.11907e-11 7.99785e-11 -5.27375e-11 5e-05 1.46608e-10 
108 1 0.135345 0.0166405 0.00764514 0.00632544 0.000804567 -0.000805719 -2.66015e-11 4.93346e-12 -7.7828e-12 5e-05 1.46608e-10 
109 1 0.135425 0.0173558 0.00743952 0.00625793 0.000815478 -0.00080692 -4.73113e-11 -3.68287e-11 2.84658e-11 5e-05 1.46608e-10 
110 1 0.135698 0.0185708 0.00697295 0.00575702 0.000799653 -0.000756385 -6.40342e-12 1.92698e-11 -2.76575e-12 5e-05 1.46608e-10 
111 1 0.13566 0.0183841 0.0070417 0.00594119 0.000867861 -0.000787405 1.40986e-10 3.46234e-10 -1.61845e-10 5e-05 1.46608e-10 
112 1 0.129141 0.0162622 0.00808203 0.00592499 0.000665537 -4.49661e-05 -3.75096e-11 -1.87718e-10 1.29008e-10 5e-05 1.46608e-10 
113 1 0.12976 0.0176071 0.00715496 0.00616051 0.000158509 0.00044192 3.83607e-11 -2.21386e-10 5.30535e-11 5e-05 1.46608e-10 
114 1 0.129891 0.0173851 0.007237 0.00628863 0.000313998 0.000401704 -2.67868e-10 -9.42234e-11 8.39249e-11 5e-05 1.46608e-10 
115 1 0.135495 0.0172872 0.00741719 0.00625855 0.000829941 -0.000808797 -2.67896e-11 -5.95456e-11 2.05327e-11 5e-05 1.46608e-10 
116 1 0.135323 0.0165484 0.00767765 0.00632639 0.000801743 -0.000805577 -1.30126e-11 4.04937e-11 -1.77635e-11 5e-05 1.46608e-10 
117 1 0.135183 0.0160098 0.0080879 0.00583825 0.00110074 -0.000513501 -5.81713e-11 -7.30053e-12 -1.96262e-12 5e-05 1.46608e-10 
118 1 0.129302 0.0168506 0.00762388 0.00592909 -0.000337684 -0.000409802 -5.94146e-10 -1.53847e-09 9.32294e-10 5e-05 1.46608e-10 
119 1 0.13555 0.0171282 0.00746546 0.00626718 0.000815912 -0.000804683 -8.6649e-12 -1.59427e-12 5.98363e-13 5e-05 1.46608e-10 
120 1 0.13503 0.0157796 0.00831855 0.00581003 0.00110781 -0.000525098 1.60006e-11 -2.57081e-11 3.27433e-11 5e-05 1.46608e-10 
121 1 0.134991 0.0156329 0.00844838 0.00576023 0.00111868 -0.00053967 4.97323e-12 -1.84986e-11 1.52295e-11 5e-05 1.46608e-10 
122 1 0.135754 0.0184131 0.00702065 0.00588303 0.00101325 -0.000832749 1.57765e-11 6.86354e-11 -8.8715e-11 5e-05 1.46608e-10 
123 1 0.129174 0.0160708 0.00826089 0.00590456 0.000763301 -0.000130692 1.71775e-10 -2.90244e-10 2.93076e-10 5e-05 1.46608e-10 
124 1 0.135529 0.0178007 0.00724352 0.00622384 0.000823828 -0.000803633 -1.16276e-11 -5.23143e-12 7.78221e-13 5e-05 1.46608e-10 
125 1 0.135163 0.0159398 0.00815654 0.00583102 0.00109744 -0.000510709 -1.19606e-10 2.10831e-11 -3.39692e-11 5e-05 1.46608e-10 
126 1 0.13538 0.0171667 0.00746742 0.00627771 0.000809894 -0.000802765 -1.56828e-11 -1.89987e-11 8.74575e-12 5e-05 1.46608e-10 
127 1 0.129099 0.0161161 0.00821214 0.0058761 0.000759451 -0.000128228 2.46954e-11 -6.09492e-11 8.78165e-11 5e-05 1.46608e-10 
128 1 0.135486 0.0176166 0.00730846 0.00623932 0.000820544 -0.000803399 -1.11525e-11 -4.16583e-11 1.35737e-11 5e-05 1.46608e-10 
129 1 0.135637 0.0180048 0.00725214 0.00622946 0.00081041 -0.00080925 3.86827e-11 1.16554e-10 -2.66244e-11 5e-05 1.46608e-10 
130 1 0.129338 0.0166299 0.00771294 0.00611875 2.19566e-05 -0.000558714 2.71085e-10 -4.29548e-10 2.67538e-10 5e-05 1.46608e-10 
131 1 0.129632 0.0175318 0.00731275 0.00629914 0.000845356 0.000256518 2.0697e-10 -1.59994e-10 -7.72316e-12 5e-05 1.46608e-10 
132 1 0.135603 0.0177356 0.00725884 0.00622481 0.000829052 -0.000805767 -1.74202e-11 9.73866e-12 3.37682e-14 5e-05 1.46608e-10 
133 1 0.135396 0.0164821 0.00769348 0.00633707 0.000817976 -0.000809514 3.33356e-11 1.13026e-10 -1.54867e-11 5e-05 1.46608e-10 
134 1 0.13557 0.017222 0.00743254 0.00626417 0.000825101 -0.00080757 -7.3022e-12 3.98521e-11 -1.31339e-11 5e-05 1.46608e-10 
135 1 0.135143 0.0158697 0.00822517 0.00581727 0.00109674 -0.000511669 2.10558e-11 3.03612e-11 -2.45292e-11 5e-05 1.46608e-10 
136 1 0.129111 0.0158517 0.0084561 0.00572163 0.000802483 -0.000186734 1.36018e-10 -1.02202e-10 1.19272e-10 5e-05 1.46608e-10 
137 1 0.135649 0.0182669 0.00716782 0.00601491 0.000878091 -0.000799946 2.58432e-11 -1.67373e-11 3.95094e-11 5e-05 1.46608e-10 
138 1 0.135282 0.0163733 0.00776277 0.00611881 0.000955594 -0.00066481 -4.84413e-11 2.73027e-11 -6.19365e-12 5e-05 1.46608e-10 
140 1 0.135846 0.0184459 0.00700186 0.00592092 0.00100863 -0.000839033 6.67411e-11 1.63404e-11 -7.11995e-12 5e-05 1.46608e-10 
141 1 0.129153 0.0159978 0.00832598 0.00582598 0.000776602 -0.0001536 -4.1417e-11 -2.23046e-10 1.85639e-10 5e-05 1.46608e-10 
142 1 0.129434 0.0166492 0.00768532 0.00600391 -0.000113077 -0.000406114 -7.28848e-11 -3.55697e-10 3.73468e-10 5e-05 1.46608e-10 
143 1 0.129058 0.01597 0.00834227 0.00580455 0.000807482 -0.00018312 1.26396e-10 3.61683e-11 8.76338e-12 5e-05 1.46608e-10 
144 1 0.129579 0.0171825 0.00727744 0.00616425 0.000509365 0.000377962 4.51604e-10 3.29873e-10 -6.8193e-10 5e-05 1.46608e-10 
146 1 0.129474 0.0164666 0.00786358 0.00586028 -0.000131704 -0.000382236 6.03466e-10 -1.84406e-10 1.39177e-10 5e-05 1.46608e-10 
147 1 0.129091 0.0157785 0.00852132 0.00569798 0.000819394 -0.000203359 1.28706e-10 2.44485e-11 1.34953e-11 5e-05 1.46608e-10 
148 1 0.129303 0.016817 0.00752971 0.0062172 -1.16642e-05 -0.000501125 3.38875e-10 3.82486e-10 -6.89456e-11 5e-05 1.46608e-10 
149 1 0.135613 0.0181746 0.00715276 0.00614299 0.000830375 -0.000789939 -5.58758e-11 4.58971e-11 5.77649e-11 5e-05 1.46608e-10 
150 1 0.129257 0.0163573 0.00799425 0.00585972 0.000116106 -0.000726042 3.80298e-10 3.50826e-10 1.11339e-09 5e-05 1.46608e-10 
151 1 0.129761 0.0172586 0.00726738 0.00628874 0.000340299 0.000402881 7.62389e-10 4.82419e-10 -7.22659e-10 5e-05 1.46608e-10 
153 1 0.129215 0.016217 0.0081307 0.00599125 0.000719022 -9.0118e-05 8.53369e-11 -4.72358e-10 4.38204e-10 5e-05 1.46608e-10 
154 1 0.129398 0.0168354 0.00750305 0.00625852 -5.96995e-05 -0.000416719 1.87795e-11 -3.43695e-10 3.55387e-10 5e-05 1.46608e-10 
155 1 0.129482 0.0171517 0.00727961 0.00638348 0.000519466 0.000341044 -6.07969e-10 -2.84397e-10 1.66981e-10 5e-05 1.46608e-10 
156 1 0.129378 0.0167669 0.00757301 0.00615092 -8.01673e-05 -0.000469403 -8.83642e-11 -2.27858e-10 -5.58909e-11 5e-05 1.46608e-10 
157 1 0.0219312 0.0187687 0.00551176 -3.83213e-14 8.16666e-14 2.95889e-13 5.33531e-23 -3.61892e-24 8.06501e-24 5e-05 1.46608e-10 
158 1 0.1295 0.0168588 0.00747091 0.00837645 0.00169523 -0.00238947 -3.894e-10 5.60371e-10 -6.87869e-10 5e-05 1.46608e-10 
159 1 0.135625 0.0178277 0.00722637 0.0062191 0.000830004 -0.000805596 -3.8735e-11 3.22763e-11 -9.52661e-12 5e-05 1.46608e-10 
160 1 0.129388 0.0171321 0.00730642 0.00640544 0.000565964 0.000378083 9.53448e-12 5.43439e-10 1.02295e-10 5e-05 1.46608e-10 
162 1 0.129422 0.016907 0.00743119 0.00697199 0.000481395 -0.00114115 1.46352e-11 -3.69197e-12 -1.41769e-09 5e-05 1.46608e-10 
164 1 0.129569 0.0175398 0.00723513 0.00630393 0.000502379 0.000214501 -7.49684e-11 -7.66752e-11 -1.49901e-10 5e-05 1.46608e-10 
165 1 0.129671 0.017244 0.00730964 0.00609126 0.000291844 0.0002433 0 0 -1.43822e-09 5e-05 1.46608e-10 
166 1 0.135356 0.0163158 0.00779701 0.00595375 0.000941592 -0.000336089 -7.96677e-11 1.1099e-11 2.26275e-12 5e-05 1.46608e-10 
167 1 0.129236 0.0162879 0.00806326 0.0058853 4.97542e-05 -0.000834171 -7.88787e-10 -1.60886e-10 -2.2034e-10 5e-05 1.46608e-10 
168 1 0.129595 0.0168806 0.00744661 0.00618198 4.79263e-05 -0.000139192 1.11182e-10 -3.94385e-10 -1.73884e-10 5e-05 1.46608e-10 
169 1 0.129742 0.0175105 0.00718463 0.00630831 0.000351592 0.000397053 2.34607e-10 3.58958e-10 -5.82695e-11 5e-05 1.46608e-10 
170 1 0.129633 0.0170371 0.00732859 0.00635039 0.000440173 0.000376418 -6.03195e-10 -2.68325e-12 -2.34503e-11 5e-05 1.46608e-10 
171 1 0.135374 0.0163898 0.00772604 0.00632726 0.000807969 -0.000807122 3.33729e-11 -2.45007e-11 -4.48683e-11 5e-05 1.46608e-10 
172 1 0.129825 0.0174548 0.00720924 0.00629759 0.000328932 0.000403869 2.22221e-10 -4.08323e-11 -9.78641e-11 5e-05 1.46608e-10 
173 1 0.135783 0.018235 0.00707743 0.0060783 0.000957556 -0.000836614 -1.78115e-10 -1.59643e-11 5.4615e-11 5e-05 1.46608e-10 
174 1 0.129534 0.0170006 0.0073324 0.0062846 0.000396018 0.000382209 3.23705e-11 5.5931e-10 -3.42517e-10 5e-05 1.46608e-10 
175 1 0.123402 0.0171701 0.00724737 0.00635364 0.000205607 5.49262e-05 -5.35533e-11 6.92139e-11 -3.84361e-11 5e-05 1.46608e-10 
176 1 0.129358 0.0166988 0.00764333 0.00606846 -6.73977e-05 -0.000475353 3.98296e-11 -2.85656e-10 4.30483e-11 5e-05 1.46608e-10 
177 1 0.129428 0.0173121 0.00726211 0.00633091 0.000528311 0.000260426 -3.05543e-10 3.68652e-10 9.57638e-10 5e-05 1.46608e-10 
178 1 0.129775 0.0177015 0.00712575 0.0064027 0.000139527 0.00046556 2.68827e-10 -3.18534e-10 1.55554e-10 5e-05 1.46608e-10 
179 1 0.129733 0.0174222 0.00723064 0.00626672 0.000360318 0.000393236 -4.86521e-10 3.52051e-10 1.08791e-10 5e-05 1.46608e-10 
181 1 0.129344 0.0169579 0.00739394 0.0063313 0.000431997 1.2949e-05 -2.8875e-11 -2.73835e-10 -5.42867e-10 5e-05 1.46608e-10 
182 1 0.135261 0.0162897 0.00781358 0.00588366 0.00110024 -0.000514558 -6.40173e-11 -3.47758e-12 -5.99148e-12 5e-05 1.46608e-10 
183 1 0.129615 0.0169553 0.00738335 0.00628725 0.000375204 0.000264841 4.19154e-10 -3.46747e-10 9.07869e-11 5e-05 1.46608e-10 
184 1 0.135771 0.018161 0.00714368 0.00615264 0.000963097 -0.000839943 5.08541e-11 -9.86829e-11 9.41789e-12 5e-05 1.46608e-10 
185 1 0.129283 0.0167488 0.00759996 0.00614121 -4.36881e-05 -0.000562333 -1.03253e-10 1.70128e-10 -1.02266e-10 5e-05 1.46608e-10 
186 1 0.129324 0.0168856 0.00745987 0.0062847 0.000168724 -0.000286044 6.79811e-10 -6.10223e-10 -5.91948e-10 5e-05 1.46608e-10 
187 1 0.135714 0.0174352 0.00734936 0.00625239 0.00084858 -0.000814383 -1.95958e-11 -4.89823e-11 1.78171e-11 5e-05 1.46608e-10 
188 1 0.135686 0.0181107 0.00712699 0.0061674 0.000938019 -0.00083627 -6.21566e-12 1.29957e-10 -1.4203e-11 5e-05 1.46608e-10 
189 1 0.135757 0.0176246 0.00728265 0.00622915 0.000839122 -0.00080947 -2.68685e-11 5.55552e-11 -1.34249e-11 5e-05 1.46608e-10 
190 1 0.123576 0.017567 0.00710669 0.00582197 0.000220823 -0.000301008 -1.2332e-10 3.0712e-11 1.52656e-11 5e-05 1.46608e-10 
191 1 0.13564 0.0182906 0.00707105 0.00592172 0.000875726 -0.000792732 -1.12923e-10 1.36831e-10 -6.86241e-12 5e-05 1.46608e-10 
192 1 0.129535 0.0166721 0.00765371 0.00618796 -0.000188378 -0.000362167 -2.56452e-10 -1.83211e-10 5.32401e-11 5e-05 1.46608e-10 
193 1 0.135462 0.016759 0.00759578 0.00631444 0.000816169 -0.000808931 4.46827e-12 3.35919e-11 -1.03202e-11 5e-05 1.46608e-10 
194 1 0.129372 0.016443 0.00789594 0.00602632 6.98451e-05 -0.000593409 -1.11074e-10 -2.66193e-10 4.27159e-10 5e-05 1.46608e-10 
195 1 0.129838 0.0175495 0.00717975 0.00632885 0.000345268 0.000392526 6.22572e-11 1.12995e-12 1.35929e-10 5e-05 1.46608e-10 
196 1 0.128896 0.0153851 0.00886373 0.00567302 0.00081975 -0.00020669 4.85901e-11 2.03284e-10 -1.86263e-10 5e-05 1.46608e-10 
197 1 0.123461 0.0174418 0.00713998 0.00578069 0.000213643 -0.000293846 5.21553e-11 -7.44112e-12 4.04361e-11 5e-05 1.46608e-10 
198 1 0.129383 0.0170502 0.00744489 0.00626448 0.00021206 0.000369553 2.09962e-10 1.69745e-10 3.69102e-11 5e-05 1.46608e-10 
199 1 0.129439 0.0169759 0.00735979 0.00619695 2.12878e-05 -0.000546952 0 0 -1.43822e-09 5e-05 1.46608e-10 
200 1 0.129223 0.0165469 0.00781343 0.0060442 6.74686e-05 -0.000552552 -6.2455e-11 1.76263e-10 7.24555e-10 5e-05 1.46608e-10 
201 1 0.129695 0.0177577 0.00714425 0.00633194 0.000274926 -0.000269349 2.80007e-10 -2.06828e-10 1.60295e-10 5e-05 1.46608e-10 
202 1 0.129555 0.0167407 0.00758374 0.00625228 -0.000204885 -0.000378299 2.72152e-10 2.12661e-10 4.31019e-10 5e-05 1.46608e-10 
203 1 0.135704 0.0177679 0.00723953 0.0062206 0.000833426 -0.00080664 -3.10822e-11 4.8253e-11 -1.49484e-11 5e-05 1.46608e-10 
204 1 0.129297 0.0164929 0.00785287 0.006084 9.76914e-05 -0.000627005 -2.03454e-10 -3.29965e-10 2.40391e-10 5e-05 1.46608e-10 
205 1 0.129522 0.0173468 0.00725551 0.00630427 0.000490286 0.000306023 -1.78542e-10 1.03943e-09 1.23486e-09 5e-05 1.46608e-10 
206 1 0.129554 0.0170983 0.00732491 0.0063764 0.00048381 0.00035302 -6.96021e-10 -4.84454e-10 3.40233e-10 5e-05 1.46608e-10 
207 1 0.129194 0.0161439 0.00819583 0.00587232 0.000748175 -0.000121862 1.3907e-10 -4.751e-10 2.54795e-10 5e-05 1.46608e-10 
208 1 0.129517 0.0169287 0.00739987 0.00599337 -0.000158149 -0.000300118 -3.11411e-10 3.12612e-10 -3.15209e-10 5e-05 1.46608e-10 
209 1 0.129277 0.0164255 0.00792393 0.00599261 0.000144969 -0.000655919 -8.35538e-11 -2.5226e-11 8.48901e-10 5e-05 1.46608e-10 
210 1 0.135503 0.01769 0.00737413 0.00623383 0.000824268 -0.000804053 -9.4647e-11 -1.74904e-11 1.538e-11 5e-05 1.46608e-10 
211 1 0.135673 0.0180165 0.00715947 0.00621002 0.000844536 -0.000810682 -7.34213e-12 6.93817e-11 -2.62996e-11 5e-05 1.46608e-10 
212 1 0.129647 0.0171359 0.00733529 0.0062001 0.000434929 0.00015522 -2.70067e-11 -1.6215e-11 1.33253e-10 5e-05 1.46608e-10 
213 1 0.135692 0.0173357 0.00738436 0.00624675 0.00083863 -0.00081058 1.78545e-11 4.78015e-11 -1.7495e-11 5e-05 1.46608e-10 
214 1 0.135647 0.0179197 0.0071939 0.00621332 0.000830363 -0.000805255 -1.16739e-11 5.6509e-11 -1.87582e-11 5e-05 1.46608e-10 
215 1 0.123535 0.0173764 0.00715168 0.00578086 0.000233741 -0.00024672 1.11797e-10 -3.28721e-11 -1.0028e-10 5e-05 1.46608e-10 
216 1 0.129409 0.0172143 0.00725354 0.00636017 0.000524694 0.000326647 1.68087e-10 7.0328e-10 -1.9391e-10 5e-05 1.46608e-10 
217 1 0.135418 0.0165744 0.00766091 0.00632457 0.000803538 -0.000805508 -2.25678e-11 1.24707e-11 -2.10981e-12 5e-05 1.46608e-10 
218 1 0.12967 0.0176452 0.00726177 0.00653232 0.000634982 -0.000578198 3.4436e-11 -1.38593e-10 -1.09847e-10 5e-05 1.46608e-10 
219 1 0.135594 0.0180767 0.00714614 0.00620325 0.000829281 -0.000803203 -5.03782e-12 2.94732e-11 5.50293e-11 5e-05 1.46608e-10 
220 1 0.129366 0.0170433 0.00734669 0.00638779 0.000558665 0.000265848 -1.03693e-10 7.64296e-10 1.44509e-10 5e-05 1.46608e-10 
221 1 0.123476 0.0171131 0.00728315 0.00633882 0.000195054 6.15393e-05 -1.9183e-10 9.07354e-11 -7.51171e-11 5e-05 1.46608e-10 
222 1 0.13544 0.0166664 0.0076284 0.00631582 0.000809626 -0.000806851 -1.26506e-11 1.7805e-11 -6.23366e-12 5e-05 1.46608e-10 
223 1 0.129454 0.0167177 0.00761534 0.00607848 -0.000121224 -0.000412992 -2.59439e-10 -1.59424e-10 1.84409e-10 5e-05 1.46608e-10 
224 1 0.129263 0.0166806 0.0076703 0.00610527 -3.99019e-06 -0.000570259 1.51092e-10 -2.6858e-10 -1.36599e-10 5e-05 1.46608e-10 
225 1 0.135679 0.0184781 0.00700538 0.00570171 0.000795832 -0.00075109 3.14475e-11 1.13214e-10 -3.693e-11 5e-05 1.46608e-10 
226 1 0.129798 0.0173476 0.00724171 0.00624661 0.000328054 0.00040903 1.19767e-10 6.4256e-10 -2.0324e-10 5e-05 1.46608e-10 
227 1 0.123596 0.0176623 0.00708425 0.00584091 0.00021564 -0.000300224 4.19784e-11 1.1817e-11 4.88383e-11 5e-05 1.46608e-10 
228 1 0.123421 0.017255 0.00719772 0.00576368 0.000368891 -5.71399e-05 -1.53561e-10 2.2416e-10 -2.33778e-10 5e-05 1.46608e-10 
229 1 0.129486 0.0173125 0.0073439 0.00635676 0.000578558 0.000304574 -1.0409e-09 8.76437e-10 1.41323e-09 5e-05 1.46608e-10 
230 1 0.129645 0.0179232 0.00717063 0.006114 0.000312707 -0.00116791 -1.53576e-11 -1.69473e-12 -1.42497e-10 5e-05 1.46608e-10 
231 1 0.123381 0.0170963 0.00731161 0.0063516 0.000202026 5.43131e-05 -1.54755e-11 9.55932e-11 -4.36155e-11 5e-05 1.46608e-10 
232 1 0.129332 0.016306 0.00803587 0.00578232 0.00013854 -0.000654898 2.95705e-10 -4.70058e-10 2.8522e-10 5e-05 1.46608e-10 
233 1 0.129413 0.01658 0.00775602 0.00615827 5.17494e-05 -0.000588048 2.92e-10 -4.63073e-10 4.95767e-10 5e-05 1.46608e-10 
234 1 0.135736 0.0183199 0.00705314 0.00599205 0.000915167 -0.00081199 4.53967e-12 1.72283e-10 -1.74322e-11 5e-05 1.46608e-10 
235 1 0.12961 0.0181836 0.00721104 0.00597445 0.000314205 -0.00114194 -4.95221e-11 -4.15905e-11 -6.34065e-12 5e-05 1.46608e-10 
236 1 0.12976 0.0180497 0.00716406 0.00602363 0.000383064 -0.00114473 9.64776e-11 1.31248e-10 1.09134e-11 5e-05 1.46608e-10 
237 1 0.129684 0.0181199 0.00718821 0.00601699 0.000328425 -0.00114911 1.77971e-11 -1.89055e-12 -8.79332e-12 5e-05 1.46608e-10 
239 1 0.123188 0.0163296 0.00773823 0.0056934 0.000311898 -2.50889e-05 3.97857e-11 3.64074e-11 -2.92144e-11 5e-05 1.46608e-10 
240 1 0.123251 0.0165828 0.00759032 0.00626288 0.000213393 4.81291e-05 -1.24881e-10 -9.62614e-11 3.1933e-11 5e-05 1.46608e-10 
241 1 0.123169 0.016245 0.00778794 0.00573688 5.49304e-05 -0.000442996 -1.76225e-12 4.68964e-11 -4.54701e-11 5e-05 1.46608e-10 
242 1 0.129393 0.0165115 0.00782598 0.00608031 6.9988e-05 -0.000588498 1.55985e-10 -4.40395e-10 4.48177e-10 5e-05 1.46608e-10 
243 1 0.129382 0.0171466 0.00740518 0.00629249 0.000534119 0.000400124 2.23883e-10 -3.48272e-11 1.84072e-10 5e-05 1.46608e-10 
244 1 0.123208 0.0164142 0.00768878 0.00624831 0.000223705 4.20425e-05 -1.86821e-11 -9.94578e-13 -1.28318e-11 5e-05 1.46608e-10 
246 1 0.123338 0.01692 0.00739341 0.00631613 0.000196263 6.0478e-05 -2.0549e-11 6.41279e-11 -1.89375e-11 5e-05 1.46608e-10 
247 1 0.129547 0.0174432 0.00724926 0.00627162 0.000507084 0.000271955 -5.13018e-10 4.35123e-10 -2.27456e-10 5e-05 1.46608e-10 
248 1 0.12966 0.0175653 0.00720049 0.0062805 0.000377867 0.000222217 3.15106e-10 2.76029e-10 -1.99124e-10 5e-05 1.46608e-10 