ITEM: TIMESTEP
49800000
ITEM: NUMBER OF ATOMS
275
ITEM: BOX BOUNDS ff ff ff
-0.02 0.43
-0.02 0.06
-0.02 0.07
ITEM: ATOMS id type x y z vx vy vz fx fy fz radius mass 
1 1 0.303643 0.018255 0.00691876 0.00570183 7.33161e-05 7.12671e-05 1.22813e-11 3.33684e-11 -7.53195e-12 5e-05 1.46608e-10 
2 1 0.303317 0.0171202 0.00730584 0.00569167 2.42631e-05 -0.000133012 1.06904e-10 1.82927e-10 -9.51103e-11 5e-05 1.46608e-10 
4 1 0.303467 0.0170018 0.00736384 0.00568194 -2.84803e-06 -0.000118275 5.39451e-11 9.17094e-11 -5.14513e-11 5e-05 1.46608e-10 
5 1 0.302846 0.0154516 0.00871285 0.00576066 0.000187529 -6.33752e-05 -3.53169e-10 2.13889e-11 -4.95719e-11 5e-05 1.46608e-10 
6 1 0.309222 0.0167088 0.00750654 0.00565 -0.000474094 0.000195103 3.24317e-13 -1.96344e-12 -6.63484e-12 5e-05 1.46608e-10 
7 1 0.303601 0.017613 0.00704657 0.00568498 0.000133215 6.16992e-05 -2.40998e-10 -3.64622e-10 4.866e-11 5e-05 1.46608e-10 
8 1 0.303312 0.0167134 0.00751616 0.0057536 -7.44364e-05 -8.02526e-05 4.0884e-11 6.15555e-11 -4.40358e-11 5e-05 1.46608e-10 
9 1 0.30942 0.0175988 0.00712514 0.00545159 -0.000378957 0.000259622 1.95231e-12 7.10157e-12 1.46676e-12 5e-05 1.46608e-10 
10 1 0.302998 0.0158196 0.00826851 0.00618499 0.000130567 1.11274e-05 6.52064e-11 -1.173e-10 2.90784e-10 5e-05 1.46608e-10 
11 1 0.303538 0.0179614 0.00706399 0.00564529 7.1662e-05 7.65981e-05 -3.16066e-11 5.21468e-11 4.30366e-12 5e-05 1.46608e-10 
12 1 0.29756 0.0170043 0.00737829 0.00570936 -9.00725e-06 -0.000292859 1.599e-10 -5.99527e-11 -7.34337e-11 5e-05 1.46608e-10 
13 1 0.302826 0.0153891 0.00878842 0.00561391 0.000185553 -6.59693e-05 -4.69366e-11 4.37108e-11 -4.74968e-11 5e-05 1.46608e-10 
14 1 0.297521 0.0176643 0.00712368 0.00561266 0.000321362 9.96555e-05 -2.89317e-10 2.41106e-10 -5.80888e-11 5e-05 1.46608e-10 
16 1 0.297715 0.0181727 0.00700277 0.00569358 0.000289222 0.000112016 1.18031e-10 -3.85722e-11 1.53e-11 5e-05 1.46608e-10 
17 1 0.302951 0.015763 0.00833615 0.00616643 0.000171562 -1.56622e-05 -1.44277e-11 -9.56589e-11 7.73348e-11 5e-05 1.46608e-10 
19 1 0.302807 0.0153266 0.008864 0.00561025 0.000168274 -4.48087e-05 3.2527e-11 8.56823e-11 -1.10352e-10 5e-05 1.46608e-10 
21 1 0.30364 0.0178057 0.00700862 0.00566085 0.000101459 6.47832e-05 9.64503e-12 -5.98118e-11 2.16118e-11 5e-05 1.46608e-10 
22 1 0.303318 0.0165393 0.00760186 0.0056838 7.23875e-05 9.07265e-05 9.94341e-11 -2.13357e-10 9.7076e-11 5e-05 1.46608e-10 
23 1 0.297749 0.0179187 0.0070674 0.00568552 0.000316191 0.000103444 -6.47412e-11 -5.52214e-11 1.34346e-11 5e-05 1.46608e-10 
24 1 0.30934 0.0172246 0.00724202 0.00554713 -0.00039258 0.00026653 2.72237e-11 1.28976e-11 -4.21326e-12 5e-05 1.46608e-10 
25 1 0.303014 0.0159495 0.00811986 0.00625705 -9.30238e-05 -7.04076e-05 -1.45318e-10 7.88975e-11 4.4701e-10 5e-05 1.46608e-10 
26 1 0.30938 0.0174117 0.00718358 0.00557637 -0.000401112 0.000269833 3.41495e-12 8.28707e-12 -5.99492e-12 5e-05 1.46608e-10 
27 1 0.297368 0.0169618 0.00743261 0.00577437 -8.11139e-06 -0.000514985 3.52511e-10 4.23015e-11 -5.6594e-11 5e-05 1.46608e-10 
28 1 0.303392 0.017061 0.00733484 0.00568308 5.32756e-06 -0.000122738 -9.94132e-12 6.57392e-11 -3.21774e-11 5e-05 1.46608e-10 
29 1 0.302787 0.0152642 0.00893959 0.00561506 0.000156973 -3.05543e-05 7.97721e-11 9.07835e-11 -1.07084e-10 5e-05 1.46608e-10 
30 1 0.3031 0.0162145 0.00783297 0.00614124 -0.000187911 -0.000122782 6.26643e-10 -1.96783e-11 2.63753e-10 5e-05 1.46608e-10 
31 1 0.303677 0.0175533 0.0070768 0.00563651 -1.52436e-05 -8.60883e-05 -4.66293e-11 -1.16923e-10 -2.55784e-10 5e-05 1.46608e-10 
32 1 0.303039 0.0160143 0.00804791 0.00630006 -0.000188544 -0.000111011 -1.19131e-10 -6.24905e-11 1.86128e-10 5e-05 1.46608e-10 
33 1 0.309242 0.0167869 0.00744712 0.00569369 -0.000481737 0.000197558 -9.98109e-12 -1.12629e-11 6.90582e-12 5e-05 1.46608e-10 
34 1 0.30293 0.0157011 0.00841173 0.00616677 0.000179744 -3.37537e-05 6.81895e-12 4.52411e-11 4.07339e-11 5e-05 1.46608e-10 
35 1 0.303563 0.0174377 0.00713658 0.00566478 -3.01098e-06 -0.000107576 6.60488e-11 5.63792e-13 -1.99161e-10 5e-05 1.46608e-10 
36 1 0.309478 0.0178798 0.00703727 0.00549655 -0.000386331 0.000258283 -1.69383e-12 -9.72955e-12 3.95536e-12 5e-05 1.46608e-10 
37 1 0.303447 0.0169146 0.0074093 0.00583056 3.59915e-05 -0.000141452 -5.05164e-10 4.34338e-10 -2.18509e-10 5e-05 1.46608e-10 
38 1 0.303525 0.0172633 0.0072275 0.00571212 -2.32606e-05 -0.000108395 6.16158e-11 2.19253e-10 -1.13137e-10 5e-05 1.46608e-10 
39 1 0.30936 0.0173182 0.0072128 0.00556124 -0.000397009 0.000268328 -2.09889e-13 1.24195e-11 1.24143e-12 5e-05 1.46608e-10 
41 1 0.302888 0.0155763 0.00856216 0.00608809 0.000183058 -4.46773e-05 -5.2097e-11 -5.71786e-11 2.46938e-11 5e-05 1.46608e-10 
42 1 0.303562 0.0170302 0.00734719 0.00558477 -9.60362e-05 -6.81621e-05 4.78259e-11 -1.32219e-10 6.94805e-11 5e-05 1.46608e-10 
44 1 0.303619 0.0172913 0.00721102 0.00573565 -2.88706e-05 -0.00010624 -6.25917e-12 1.13487e-10 -6.45252e-11 5e-05 1.46608e-10 
45 1 0.309261 0.0168654 0.00738834 0.00574015 -0.000459898 0.00024309 -1.35024e-11 -2.05277e-11 4.7146e-12 5e-05 1.46608e-10 
47 1 0.302909 0.0156385 0.00848676 0.00615732 0.00017952 -4.16005e-05 -6.41264e-11 4.71074e-12 -2.58177e-11 5e-05 1.46608e-10 
48 1 0.303509 0.0180308 0.0069616 0.00567521 8.09768e-05 6.99515e-05 -5.14215e-12 1.80135e-11 -2.53745e-12 5e-05 1.46608e-10 
49 1 0.309439 0.0176925 0.00709587 0.00546649 -0.000381195 0.000260838 1.70515e-12 -4.09513e-13 -3.42147e-12 5e-05 1.46608e-10 
50 1 0.303056 0.0160816 0.00797605 0.00630236 -0.000209736 -0.000112494 4.65739e-11 -1.91933e-10 3.76982e-11 5e-05 1.46608e-10 
51 1 0.303696 0.017645 0.00704159 0.00564119 5.2215e-05 7.45556e-05 1.87353e-11 -1.40934e-10 -5.31987e-11 5e-05 1.46608e-10 
52 1 0.297611 0.0172521 0.00722963 0.00576097 0.000317116 0.000117914 -4.47794e-11 4.84735e-11 4.05794e-12 5e-05 1.46608e-10 
53 1 0.3093 0.0170376 0.00730045 0.00553906 -0.000390247 0.000265639 -6.78464e-11 1.42073e-11 3.34452e-12 5e-05 1.46608e-10 
54 1 0.303849 0.0179654 0.0069798 0.00568725 4.91996e-05 7.5844e-05 -5.15895e-11 9.21841e-13 -8.94303e-13 5e-05 1.46608e-10 
55 1 0.297537 0.0173194 0.00722424 0.00574239 0.000332531 8.96544e-05 -1.31575e-10 4.95326e-11 -3.99449e-11 5e-05 1.46608e-10 
56 1 0.30383 0.0178692 0.00699875 0.00566094 5.34239e-05 7.46122e-05 -1.02238e-10 5.20659e-13 5.09355e-13 5e-05 1.46608e-10 
57 1 0.30928 0.0169441 0.00732964 0.00578894 -0.000438283 0.000288349 5.04738e-11 2.05264e-11 -1.21032e-11 5e-05 1.46608e-10 
59 1 0.378022 0.019866 0.005332 -5.01979e-15 -7.41203e-15 7.69802e-14 -3.69646e-24 4.3944e-24 2.06795e-25 5e-05 1.46608e-10 
60 1 0.303639 0.0173784 0.00716564 0.0057198 -3.91043e-05 -0.000101217 3.15567e-11 9.24086e-11 -6.21845e-11 5e-05 1.46608e-10 
61 1 0.302867 0.0155139 0.00863739 0.00596896 0.000181613 -4.90737e-05 -3.17558e-10 -2.00596e-11 -1.16938e-11 5e-05 1.46608e-10 
62 1 0.303544 0.0173503 0.00718213 0.00572382 -3.051e-05 -0.000104909 3.86358e-11 2.14651e-10 -8.41269e-11 5e-05 1.46608e-10 
63 1 0.303586 0.0182819 0.00699578 0.00569946 7.01367e-05 7.05343e-05 -1.509e-11 9.80082e-13 -1.44292e-11 5e-05 1.46608e-10 
64 1 0.30932 0.0171311 0.00727123 0.00553322 -0.000388068 0.000264366 -3.85351e-11 4.47611e-12 -3.86826e-12 5e-05 1.46608e-10 
65 1 0.297576 0.0175058 0.00716511 0.00522412 0.000431737 5.97625e-05 1.40052e-10 -7.49897e-11 7.6932e-12 5e-05 1.46608e-10 
66 1 0.297766 0.0181779 0.00708957 0.00568188 0.000302621 0.000113115 1.34619e-10 -4.14271e-12 5.60535e-12 5e-05 1.46608e-10 
67 1 0.30366 0.0179019 0.00698964 0.00566674 8.02045e-05 6.97588e-05 -1.89604e-11 2.78957e-11 -1.29629e-11 5e-05 1.46608e-10 
68 1 0.303449 0.0173223 0.00719861 0.00572969 -9.70396e-08 -0.000120752 8.1036e-11 1.9461e-10 -9.04314e-11 5e-05 1.46608e-10 
69 1 0.303735 0.0178375 0.00700367 0.00564821 6.62216e-05 7.21834e-05 -5.26875e-11 -1.09225e-10 2.38811e-11 5e-05 1.46608e-10 
70 1 0.3094 0.0175053 0.00715437 0.00559122 -0.000404695 0.000271435 4.26898e-12 7.93437e-12 -4.80126e-12 5e-05 1.46608e-10 
71 1 0.297884 0.0181408 0.00701617 0.00571931 0.000315003 0.000103976 2.34982e-10 -8.98091e-11 1.23209e-11 5e-05 1.46608e-10 
72 1 0.303719 0.0181906 0.00693279 0.00570175 7.33022e-05 7.13007e-05 2.83143e-11 3.75844e-11 -6.15182e-12 5e-05 1.46608e-10 
73 1 0.302992 0.0158867 0.00819458 0.00619621 5.62856e-05 -7.70361e-06 -2.10799e-11 4.82419e-11 5.24876e-10 5e-05 1.46608e-10 
74 1 0.303078 0.016148 0.00790443 0.00626001 -0.000201194 -0.000107374 4.15566e-11 -8.10296e-11 9.75676e-11 5e-05 1.46608e-10 
76 1 0.297481 0.0170549 0.00733434 0.00569506 -1.15537e-05 -0.000400206 -1.38709e-10 5.11834e-11 -1.20785e-10 5e-05 1.46608e-10 
77 1 0.303336 0.0172072 0.00726047 0.00571248 2.58788e-05 -0.000133633 2.08556e-10 1.51421e-10 -9.57353e-11 5e-05 1.46608e-10 
78 1 0.296911 0.0157535 0.00861763 0.00595304 8.17327e-05 -0.000613984 1.58257e-11 1.85038e-10 -1.49167e-10 5e-05 1.46608e-10 
79 1 0.297789 0.0184779 0.00691838 0.00570891 0.000190382 -0.000294832 5.22178e-11 2.22385e-11 2.61581e-11 5e-05 1.46608e-10 
80 1 0.303411 0.0171482 0.00728935 0.00569416 6.3368e-06 -0.000123328 1.83268e-10 1.34964e-10 -7.63446e-11 5e-05 1.46608e-10 
82 1 0.297643 0.0180827 0.00711226 0.00567224 0.000299221 0.00010527 -6.61286e-12 5.48186e-11 -3.16509e-11 5e-05 1.46608e-10 
83 1 0.297576 0.0170818 0.00731728 0.00569248 0.000206942 -2.81115e-05 1.48974e-10 -1.13482e-10 -8.24073e-12 5e-05 1.46608e-10 
84 1 0.309458 0.0177861 0.00706661 0.00548162 -0.000383013 0.000261793 -2.07828e-12 -6.63159e-12 1.41619e-12 5e-05 1.46608e-10 
85 1 0.297921 0.0183357 0.00695957 0.00569487 0.000173355 -0.000288885 -3.43123e-11 -4.95822e-11 5.9782e-11 5e-05 1.46608e-10 
86 1 0.3036 0.0172043 0.00725639 0.00569386 -4.65546e-05 -9.61895e-05 9.09594e-13 2.39503e-10 -1.23433e-10 5e-05 1.46608e-10 
87 1 0.303372 0.016974 0.00738019 0.00579574 2.81518e-05 -0.000138007 -4.58075e-10 3.25684e-10 -1.58473e-10 5e-05 1.46608e-10 
88 1 0.303506 0.0175842 0.00706239 0.00568817 3.32839e-05 -4.25764e-05 -1.64775e-10 6.64946e-11 4.71224e-11 5e-05 1.46608e-10 
89 1 0.303637 0.017981 0.00705959 0.0056698 5.47236e-05 5.75307e-05 -2.58126e-11 3.85347e-11 -7.23472e-13 5e-05 1.46608e-10 
90 1 0.303679 0.0179982 0.00697069 0.00569101 7.51013e-05 7.0815e-05 -2.82678e-11 1.11491e-11 -3.30511e-13 5e-05 1.46608e-10 
91 1 0.297542 0.0169321 0.00744508 0.00581672 -0.000141419 -0.000416154 4.01101e-10 9.6032e-11 -1.09064e-10 5e-05 1.46608e-10 
92 1 0.303432 0.0176504 0.00705353 0.0056281 4.32573e-05 -7.11389e-05 -3.41353e-10 4.86276e-11 2.18008e-10 5e-05 1.46608e-10 
93 1 0.303161 0.0164382 0.00764544 0.00562925 0.000134303 9.11663e-05 -1.96899e-10 -2.58042e-10 -1.05916e-10 5e-05 1.46608e-10 
94 1 0.303557 0.0180603 0.00704462 0.00569129 6.58232e-05 6.8097e-05 -1.58312e-11 6.13248e-11 -4.95502e-12 5e-05 1.46608e-10 
95 1 0.303492 0.0176928 0.0071253 0.00566952 8.4815e-05 7.15398e-05 -1.11943e-10 -7.13607e-11 7.52488e-11 5e-05 1.46608e-10 
96 1 0.303412 0.0175562 0.00708062 0.00566878 4.69038e-06 -0.000193372 4.52084e-11 7.88705e-11 3.29225e-10 5e-05 1.46608e-10 
97 1 0.297116 0.0161212 0.00825108 0.0059208 -5.44291e-06 -0.000528406 -5.58477e-10 2.30581e-10 -1.67597e-10 5e-05 1.46608e-10 
98 1 0.30314 0.0163572 0.00769977 0.00570184 4.55694e-05 -4.31656e-06 1.40981e-10 -2.3412e-10 -1.15184e-10 5e-05 1.46608e-10 
99 1 0.297502 0.0180113 0.00703632 0.00565344 0.000288382 0.000109077 5.30534e-11 1.60511e-10 -2.01906e-11 5e-05 1.46608e-10 
100 1 0.303621 0.0177094 0.00702758 0.00566246 7.63529e-05 7.02827e-05 -9.7535e-11 -2.93303e-10 6.1405e-11 5e-05 1.46608e-10 
101 1 0.297522 0.0181069 0.00701303 0.00566016 0.000296527 0.00010843 -5.87669e-12 -8.3938e-12 3.19079e-11 5e-05 1.46608e-10 
102 1 0.0643568 0.0187248 0.00531097 4.09116e-15 1.05624e-14 8.2961e-14 -6.00404e-22 3.58893e-22 -1.03398e-24 5e-05 1.46608e-10 
103 1 0.24257 0.0191927 0.00520306 -2.55473e-22 -4.80285e-22 8.29106e-22 0 0 0 5e-05 1.46608e-10 
104 1 0.297809 0.0182045 0.00699786 0.00569625 0.000289566 0.000110118 5.32138e-11 -1.11227e-10 2.90589e-11 5e-05 1.46608e-10 
105 1 0.297094 0.0160513 0.00831922 0.00580013 2.58606e-05 -0.000546988 -4.61091e-10 3.91736e-10 -3.30941e-10 5e-05 1.46608e-10 
106 1 0.297544 0.0180602 0.00711303 0.00565088 0.000302981 9.64919e-05 7.05785e-11 7.95031e-11 6.90563e-11 5e-05 1.46608e-10 
107 1 0.296933 0.0158234 0.00854949 0.00596793 6.51228e-05 -0.0006013 -9.26606e-11 3.76017e-11 -2.30979e-11 5e-05 1.46608e-10 
108 1 0.303754 0.0179337 0.00698472 0.00567797 6.59785e-05 7.21679e-05 -9.36732e-11 -5.49423e-11 1.43048e-11 5e-05 1.46608e-10 
109 1 0.30381 0.017773 0.00701771 0.00563543 6.08987e-05 7.32137e-05 1.91656e-11 -3.61169e-12 1.04696e-11 5e-05 1.46608e-10 
110 1 0.303297 0.0170332 0.00735118 0.00575211 1.21618e-05 -0.000129963 -4.48469e-10 2.80853e-10 -1.13961e-10 5e-05 1.46608e-10 
111 1 0.303257 0.0168605 0.00744356 0.00586085 -1.33328e-05 -0.000109363 -2.84791e-10 -1.64862e-12 -2.25827e-10 5e-05 1.46608e-10 
112 1 0.296998 0.0160331 0.00834508 0.00597775 -5.39546e-06 -0.00053301 -7.34635e-11 -2.06364e-10 2.00073e-10 5e-05 1.46608e-10 
113 1 0.297424 0.0176301 0.00712913 0.00560389 0.000317911 9.98921e-05 3.39713e-12 1.16181e-11 3.18117e-12 5e-05 1.46608e-10 
114 1 0.297463 0.0178207 0.00708273 0.00562729 0.000394156 8.18835e-05 3.11071e-11 1.60106e-10 -3.92478e-11 5e-05 1.46608e-10 
115 1 0.303581 0.0171173 0.00730177 0.00566942 -4.77343e-05 -9.49203e-05 1.15701e-10 1.92855e-10 -1.00898e-10 5e-05 1.46608e-10 
116 1 0.303584 0.0179664 0.00697562 0.00564711 5.31803e-05 7.48217e-05 -1.3739e-11 2.95195e-11 -4.25645e-12 5e-05 1.46608e-10 
117 1 0.303582 0.0175253 0.00709089 0.00576787 8.34563e-05 -0.000167903 -2.34935e-10 -6.3469e-11 6.8833e-11 5e-05 1.46608e-10 
118 1 0.297652 0.0174423 0.0071834 0.00547826 0.00035573 8.58306e-05 2.72327e-10 -1.10128e-10 4.0319e-11 5e-05 1.46608e-10 
119 1 0.303774 0.0180299 0.00696576 0.00569681 6.34214e-05 7.32265e-05 -1.11642e-11 4.26092e-11 -8.15174e-12 5e-05 1.46608e-10 
120 1 0.303291 0.0166265 0.00756129 0.00572789 8.02302e-05 8.57164e-05 9.3212e-11 -1.30877e-10 9.1553e-11 5e-05 1.46608e-10 
121 1 0.303588 0.0184156 0.00688579 0.0057061 7.38295e-05 7.12755e-05 1.04846e-11 3.14619e-11 -6.58527e-12 5e-05 1.46608e-10 
122 1 0.303393 0.0174683 0.00712436 0.0057574 2.23199e-05 -0.000137372 -8.58974e-11 4.90623e-11 -6.90529e-11 5e-05 1.46608e-10 
123 1 0.297904 0.0182362 0.00699283 0.00570411 0.000213381 -0.000160353 7.83949e-11 -4.37506e-11 -7.52301e-11 5e-05 1.46608e-10 
124 1 0.303223 0.0165098 0.00761332 0.00567041 0.000104451 7.89712e-05 -1.73401e-10 -2.63703e-10 2.2699e-11 5e-05 1.46608e-10 
125 1 0.303488 0.0174966 0.00710775 0.00566595 1.61693e-05 -0.000118769 -2.78029e-11 -1.082e-11 -2.87073e-10 5e-05 1.46608e-10 
127 1 0.297137 0.0161912 0.00818294 0.00600515 -3.35166e-05 -0.00050951 -3.62035e-10 5.98501e-11 -2.75306e-11 5e-05 1.46608e-10 
128 1 0.303125 0.0162804 0.007762 0.00587359 -0.000112742 -0.000147351 8.07817e-10 -1.51241e-10 1.64481e-10 5e-05 1.46608e-10 
129 1 0.30352 0.0178611 0.00708335 0.00565028 8.60255e-05 7.13141e-05 1.06794e-10 -7.50958e-11 1.17416e-11 5e-05 1.46608e-10 
130 1 0.29756 0.0178549 0.00707727 0.00566806 0.000357897 9.29393e-05 -4.8579e-11 -1.07296e-10 2.70385e-11 5e-05 1.46608e-10 
131 1 0.297579 0.0179502 0.00705407 0.00567403 0.000313774 0.000103717 -4.37604e-11 -4.92061e-12 -8.38255e-12 5e-05 1.46608e-10 
132 1 0.303486 0.0170892 0.00731825 0.00565343 -3.12353e-05 -0.000103148 2.40174e-10 1.01369e-10 -6.06243e-11 5e-05 1.46608e-10 
133 1 0.303604 0.0180626 0.00695666 0.00569546 7.7067e-05 7.0612e-05 1.11544e-11 3.34847e-11 -1.15764e-12 5e-05 1.46608e-10 
134 1 0.303565 0.0178702 0.00699458 0.00565764 8.70366e-05 6.9934e-05 5.39799e-11 5.37514e-11 -6.85712e-12 5e-05 1.46608e-10 
135 1 0.303715 0.0177413 0.00702264 0.00563878 6.02462e-05 7.27674e-05 1.72071e-11 -1.41528e-10 7.41997e-13 5e-05 1.46608e-10 
136 1 0.297515 0.0172222 0.00723405 0.00576523 0.000326969 9.86698e-05 -1.08511e-10 8.2038e-11 -5.24002e-11 5e-05 1.46608e-10 
137 1 0.303459 0.0177857 0.00710811 0.0056473 8.05176e-05 6.65826e-05 1.91182e-11 -4.05155e-11 9.11101e-12 5e-05 1.46608e-10 
138 1 0.30347 0.0178384 0.00699952 0.00565832 8.43924e-05 6.82249e-05 8.02053e-12 -4.30821e-11 1.17737e-11 5e-05 1.46608e-10 
140 1 0.303355 0.0172942 0.00721509 0.00572784 2.74172e-05 -0.000135262 2.15787e-10 1.42608e-10 -6.41632e-11 5e-05 1.46608e-10 
141 1 0.297367 0.0166322 0.00774467 0.00597429 -0.00010029 -0.000443216 -1.56742e-10 2.37522e-12 8.82945e-12 5e-05 1.46608e-10 
142 1 0.29773 0.0178234 0.00709058 0.00566183 0.000317808 0.000102214 2.53484e-12 -8.83324e-11 7.89375e-12 5e-05 1.46608e-10 
143 1 0.296955 0.0158933 0.00848135 0.00597309 3.97672e-05 -0.000577323 -1.36927e-11 -1.11775e-10 8.17669e-11 5e-05 1.46608e-10 
144 1 0.297691 0.0176329 0.00713699 0.00553743 0.000342235 9.21135e-05 8.79012e-11 -1.56993e-10 4.49811e-11 5e-05 1.46608e-10 
146 1 0.297041 0.016173 0.0082088 0.00600696 -4.01794e-05 -0.000504055 -1.50733e-11 4.13771e-11 -5.50586e-11 5e-05 1.46608e-10 
147 1 0.29754 0.0177596 0.00710047 0.00563077 0.00040067 8.0275e-05 9.87783e-12 1.0152e-10 -2.60877e-11 5e-05 1.46608e-10 
148 1 0.297388 0.0167023 0.00767648 0.00592258 -7.61104e-05 -0.000461723 -3.91742e-10 -8.28635e-12 5.34379e-11 5e-05 1.46608e-10 
149 1 0.303216 0.0166875 0.00753514 0.00576472 7.82946e-05 1.34379e-05 4.52128e-11 3.487e-11 3.48602e-10 5e-05 1.46608e-10 
150 1 0.297639 0.0186726 0.00686069 0.00570505 0.000172787 -0.000289173 -2.07387e-11 5.90829e-11 -2.22482e-11 5e-05 1.46608e-10 
151 1 0.297659 0.0183311 0.00696137 0.00568128 0.00028044 0.000111607 1.02307e-11 1.72405e-11 -7.86173e-12 5e-05 1.46608e-10 
153 1 0.297408 0.0167725 0.0076082 0.00583448 -5.02581e-05 -0.000477915 -2.31121e-10 -1.08983e-10 1.17296e-10 5e-05 1.46608e-10 
154 1 0.297019 0.0161031 0.00827694 0.00598919 -2.50475e-05 -0.000516626 -1.10044e-10 -8.8101e-11 1.08559e-10 5e-05 1.46608e-10 
155 1 0.297063 0.0162429 0.00814066 0.00601542 -4.98663e-05 -0.000494672 1.0851e-10 9.50304e-11 -1.22099e-10 5e-05 1.46608e-10 
156 1 0.297345 0.0165623 0.00781281 0.00601868 -0.000123925 -0.000425007 -5.88289e-11 1.2729e-11 -5.26527e-12 5e-05 1.46608e-10 
157 1 0.0219312 0.0187687 0.00551176 -3.83615e-14 8.16679e-14 2.95884e-13 -7.8944e-23 -1.83634e-22 2.75038e-23 5e-05 1.46608e-10 
158 1 0.297447 0.0169134 0.00747135 0.00569561 -6.47693e-05 -0.000452149 3.08001e-11 -9.51372e-11 9.82837e-11 5e-05 1.46608e-10 
159 1 0.303506 0.0171763 0.00727287 0.00569769 -1.79092e-05 -0.000110943 1.55766e-10 2.20889e-10 -1.17671e-10 5e-05 1.46608e-10 
160 1 0.297541 0.018205 0.00700588 0.00565647 0.000301872 0.00011011 -2.31977e-11 -2.05683e-11 7.30122e-11 5e-05 1.46608e-10 
162 1 0.297715 0.0182629 0.00707747 0.00568204 0.000305022 0.000111794 1.10634e-10 -4.18709e-11 3.41843e-11 5e-05 1.46608e-10 
164 1 0.297128 0.0164526 0.00793628 0.00602569 -3.34769e-05 -0.000511443 1.51894e-10 -6.34102e-11 3.43605e-11 5e-05 1.46608e-10 
165 1 0.297754 0.0183633 0.00695636 0.00569169 0.000292196 0.000108799 -6.21998e-11 -4.33694e-11 -4.44324e-12 5e-05 1.46608e-10 
166 1 0.30349 0.0179346 0.00698056 0.00565618 8.3968e-05 6.85105e-05 1.10066e-11 2.80946e-12 -5.81178e-12 5e-05 1.46608e-10 
167 1 0.2976 0.0184857 0.00692082 0.00568737 0.000300114 0.00010701 -2.6657e-11 -2.99197e-11 -1.50719e-12 5e-05 1.46608e-10 
168 1 0.297718 0.0186139 0.00687669 0.00570537 0.00017489 -0.000289648 -1.31006e-10 7.0705e-12 3.88979e-12 5e-05 1.46608e-10 
169 1 0.297619 0.0185795 0.00689201 0.00569287 0.000177459 -0.000289517 1.8107e-11 -1.54632e-11 1.51269e-11 5e-05 1.46608e-10 
170 1 0.297699 0.018521 0.00690813 0.00570321 0.000182201 -0.000292932 5.38316e-12 -5.05204e-11 7.18814e-12 5e-05 1.46608e-10 
171 1 0.303663 0.0183512 0.00689981 0.00570399 7.25127e-05 7.15393e-05 4.57985e-12 1.94158e-11 -4.52518e-12 5e-05 1.46608e-10 
172 1 0.297404 0.0175348 0.00715234 0.00560323 0.000325892 9.81697e-05 4.24299e-11 9.20785e-11 -2.81277e-11 5e-05 1.46608e-10 
173 1 0.303699 0.0180944 0.00695174 0.00570068 7.24318e-05 7.16199e-05 -4.35706e-12 2.9453e-11 -7.07067e-12 5e-05 1.46608e-10 
174 1 0.297171 0.0165925 0.00779997 0.00605151 -2.57086e-05 -0.000520693 -7.28921e-10 -8.61596e-11 1.4422e-10 5e-05 1.46608e-10 
176 1 0.297462 0.0173784 0.00719329 0.00562333 0.000350004 9.3119e-05 1.3679e-10 1.43294e-10 -1.63886e-11 5e-05 1.46608e-10 
177 1 0.297159 0.0162611 0.0081148 0.00603438 -4.17193e-05 -0.000504101 1.27672e-11 2.26507e-11 -1.80955e-11 5e-05 1.46608e-10 
178 1 0.29753 0.017949 0.00714108 0.00565844 0.000376563 9.251e-05 1.86103e-12 -1.09879e-11 -1.98914e-12 5e-05 1.46608e-10 
179 1 0.297599 0.0183581 0.00703676 0.00569306 0.000281986 0.000112811 1.02157e-10 3.21941e-11 9.84825e-12 5e-05 1.46608e-10 
182 1 0.303608 0.0185118 0.00686683 0.0057074 7.30612e-05 7.16952e-05 1.11255e-11 1.13118e-11 3.49506e-12 5e-05 1.46608e-10 
183 1 0.297563 0.0181555 0.00709 0.0056603 0.000301824 0.000106448 -5.80042e-11 4.60592e-11 4.19111e-11 5e-05 1.46608e-10 
184 1 0.303572 0.0181676 0.00702303 0.00569873 7.72112e-05 6.97392e-05 -3.30264e-12 3.93837e-11 -5.43231e-12 5e-05 1.46608e-10 
185 1 0.29771 0.0177282 0.00711378 0.00561158 0.000327675 9.81153e-05 1.8811e-10 -1.6432e-10 5.04952e-11 5e-05 1.46608e-10 
186 1 0.297996 0.0182719 0.00697741 0.00569554 0.000169208 -0.00028756 6.53504e-11 6.53758e-11 -3.22159e-11 5e-05 1.46608e-10 
187 1 0.303624 0.0181588 0.00693771 0.0057014 7.45784e-05 7.09498e-05 9.18886e-13 3.35705e-11 -5.85839e-12 5e-05 1.46608e-10 
188 1 0.303469 0.0174093 0.00715323 0.00574854 4.60329e-06 -0.000122892 -6.82258e-11 4.59966e-11 -4.60795e-11 5e-05 1.46608e-10 
189 1 0.303568 0.0183194 0.00690474 0.00570311 7.45836e-05 7.1127e-05 -4.52525e-12 2.64948e-11 -6.46946e-12 5e-05 1.46608e-10 
190 1 0.291536 0.0181744 0.00698669 0.00553532 -0.00041397 0.0001267 3.98423e-11 6.09354e-11 5.17223e-12 5e-05 1.46608e-10 
191 1 0.303237 0.0167728 0.00748716 0.00581945 2.40126e-05 -5.57406e-05 -1.10905e-10 2.14618e-11 1.20619e-10 5e-05 1.46608e-10 
192 1 0.297443 0.0177254 0.00710593 0.00560742 0.000315307 0.000100985 -3.2225e-12 3.97691e-12 -3.96426e-12 5e-05 1.46608e-10 
193 1 0.303683 0.0184474 0.00688085 0.00570665 7.24009e-05 7.15705e-05 7.08348e-12 1.33526e-11 -3.27826e-12 5e-05 1.46608e-10 
194 1 0.297663 0.0181782 0.00708901 0.00566513 0.000308311 9.56681e-05 -1.68956e-11 4.41768e-11 -6.1442e-11 5e-05 1.46608e-10 
195 1 0.297639 0.0182358 0.00698456 0.00567346 0.000274361 0.000116487 8.46088e-11 7.25568e-11 2.00106e-11 5e-05 1.46608e-10 
196 1 0.297674 0.0179822 0.00704909 0.00567245 0.000322285 9.96472e-05 -1.05383e-10 -5.95152e-11 1.95668e-11 5e-05 1.46608e-10 
197 1 0.291228 0.0169061 0.00777997 0.00565738 0.000225269 0.000952712 -7.68883e-12 -4.26551e-11 3.42462e-11 5e-05 1.46608e-10 
198 1 0.297592 0.0171566 0.00725293 0.00570955 0.000324091 0.000103824 2.96578e-10 -1.14686e-11 4.16693e-11 5e-05 1.46608e-10 
199 1 0.297593 0.0182635 0.00706865 0.0056653 0.000285661 0.000117594 2.39466e-10 4.68767e-11 1.00166e-10 5e-05 1.46608e-10 
200 1 0.296978 0.0159629 0.00841336 0.00597378 1.61798e-05 -0.0005536 -2.09841e-11 -2.1749e-10 1.95237e-10 5e-05 1.46608e-10 
201 1 0.297734 0.018268 0.00697957 0.00568311 0.000282998 0.000111093 -3.57323e-11 -3.41787e-11 8.82663e-12 5e-05 1.46608e-10 
202 1 0.297465 0.016984 0.00740288 0.00567537 -6.28657e-05 -0.000454181 -1.86199e-11 -7.15776e-11 -1.36311e-11 5e-05 1.46608e-10 
203 1 0.303545 0.0177739 0.00701354 0.00566205 8.2836e-05 6.87022e-05 -5.71871e-12 -1.17846e-10 3.00521e-11 5e-05 1.46608e-10 
204 1 0.297769 0.0180139 0.00704424 0.00571275 0.000313948 0.000104709 9.45598e-11 -4.91693e-11 2.3667e-11 5e-05 1.46608e-10 
205 1 0.29731 0.0167508 0.00763762 0.00572743 -3.32195e-07 -0.000516003 2.21546e-10 6.08413e-11 -7.9124e-11 5e-05 1.46608e-10 
206 1 0.297349 0.0168913 0.007501 0.00582948 -1.8039e-05 -0.000508422 6.78631e-11 -4.02639e-11 -2.43931e-13 5e-05 1.46608e-10 
207 1 0.297224 0.0164708 0.00791038 0.00603756 -2.59175e-06 -0.00054114 -5.71756e-11 -3.82849e-11 4.72391e-11 5e-05 1.46608e-10 
208 1 0.297632 0.017347 0.0072066 0.00567649 0.000324244 0.000102667 3.64898e-10 -4.80496e-11 8.91462e-11 5e-05 1.46608e-10 
209 1 0.297557 0.0174105 0.00718832 0.00533039 0.000413705 6.51766e-05 3.04742e-13 -9.79404e-12 -6.77765e-12 5e-05 1.46608e-10 
210 1 0.303332 0.0168003 0.00747081 0.00582927 -5.43539e-05 -9.53951e-05 -7.2928e-11 3.60259e-10 -7.35901e-11 5e-05 1.46608e-10 
211 1 0.303352 0.0168871 0.00742555 0.00582217 -1.13578e-05 -0.000114182 -1.48475e-10 3.60005e-10 -1.76052e-10 5e-05 1.46608e-10 
212 1 0.297829 0.0182998 0.00697466 0.00569726 0.000291094 0.000111064 3.468e-11 -3.74804e-11 2.26817e-11 5e-05 1.46608e-10 
213 1 0.303549 0.0182232 0.00692369 0.00570046 7.51867e-05 7.06373e-05 3.94338e-12 2.36283e-11 -5.02279e-12 5e-05 1.46608e-10 
214 1 0.30343 0.0172353 0.00724398 0.00570903 3.87039e-06 -0.000122665 1.32244e-10 1.43741e-10 -8.34415e-11 5e-05 1.46608e-10 
215 1 0.291447 0.0177329 0.00709192 0.00549024 -0.000398656 0.000124601 1.01936e-10 1.60934e-11 -1.33735e-11 5e-05 1.46608e-10 
216 1 0.297202 0.0164008 0.00797855 0.00601984 -2.33925e-05 -0.000520281 3.24829e-11 -3.70763e-11 2.46884e-11 5e-05 1.46608e-10 
217 1 0.303627 0.0186096 0.00686011 0.00570147 5.63317e-05 -0.000206844 -2.08573e-12 8.89279e-12 -3.53697e-12 5e-05 1.46608e-10 
218 1 0.297483 0.017916 0.00705953 0.00566642 0.000363449 9.16679e-05 -2.19835e-11 -8.26077e-11 2.30293e-11 5e-05 1.46608e-10 
219 1 0.303196 0.0165972 0.00757303 0.00572051 0.000103712 4.51401e-05 5.69775e-11 -5.46667e-11 2.74832e-10 5e-05 1.46608e-10 
220 1 0.297599 0.0180455 0.00703086 0.00566355 0.000307397 0.000104122 -6.90722e-11 -2.87654e-11 1.12886e-11 5e-05 1.46608e-10 
222 1 0.303658 0.0174654 0.00712031 0.00567384 -0.000106401 -0.000246751 -7.03185e-11 -1.42825e-10 -5.03218e-10 5e-05 1.46608e-10 
224 1 0.297386 0.0170323 0.00736415 0.00571538 1.26058e-07 -0.000514933 3.00915e-10 1.0657e-10 -8.64599e-11 5e-05 1.46608e-10 
225 1 0.303277 0.0169473 0.00739827 0.00581417 -7.62151e-06 -0.000127826 -3.55446e-10 1.64264e-10 -2.1676e-10 5e-05 1.46608e-10 
226 1 0.297624 0.0179871 0.00713555 0.00567268 0.000344295 9.34288e-05 -1.14745e-10 -9.51677e-11 6.71992e-11 5e-05 1.46608e-10 
227 1 0.291464 0.0178067 0.00702676 0.00555943 -0.000411433 0.000130089 9.75805e-11 1.02343e-12 -8.60619e-12 5e-05 1.46608e-10 
228 1 0.291412 0.0175853 0.00722226 0.00546549 -0.000391495 0.000119308 -1.55773e-10 8.5153e-11 -7.986e-11 5e-05 1.46608e-10 
229 1 0.297847 0.0183998 0.0069416 0.00570347 0.000184483 -0.000292061 2.96504e-11 -2.68602e-12 -2.73392e-11 5e-05 1.46608e-10 
230 1 0.297291 0.0170142 0.00738998 0.00589295 0.00011548 -0.000637016 -7.02637e-11 3.41465e-10 -2.5039e-10 5e-05 1.46608e-10 
232 1 0.297708 0.0183572 0.00704474 0.00568106 0.000307546 0.00010555 6.11944e-11 -5.26581e-11 1.27324e-11 5e-05 1.46608e-10 
233 1 0.29758 0.0183904 0.00694401 0.00567933 0.000282754 0.000112625 1.3996e-11 2.38426e-12 -9.2724e-13 5e-05 1.46608e-10 
234 1 0.30362 0.0178753 0.00707765 0.00565484 9.42479e-05 6.95597e-05 9.71127e-12 2.23818e-11 -1.63261e-11 5e-05 1.46608e-10 
235 1 0.297254 0.0168731 0.00752684 0.00579015 0.000149582 -0.000661322 3.64887e-11 1.09248e-10 -9.38554e-11 5e-05 1.46608e-10 
236 1 0.297345 0.0172491 0.00722187 0.00575988 0.000330704 0.000101805 -2.94507e-11 4.85158e-11 -1.03145e-10 5e-05 1.46608e-10 
237 1 0.297365 0.0173443 0.00719871 0.00575497 0.000323428 0.000105366 8.52167e-12 9.12335e-11 -4.14152e-11 5e-05 1.46608e-10 
239 1 0.29112 0.0164928 0.00803984 0.00573616 0.000211734 0.000977167 -1.66221e-11 -4.16592e-11 2.38521e-11 5e-05 1.46608e-10 
240 1 0.291185 0.0167408 0.00788392 0.00568833 0.000217964 0.000963616 -9.5761e-12 -5.04912e-11 2.9433e-11 5e-05 1.46608e-10 
241 1 0.291099 0.0164101 0.00809181 0.00575264 0.000210473 0.000981353 -1.57598e-12 -2.47776e-11 1.78682e-11 5e-05 1.46608e-10 
242 1 0.297522 0.0168617 0.00751345 0.00583351 -0.000122453 -0.000414689 1.76879e-10 1.60968e-10 -2.77712e-10 5e-05 1.46608e-10 
243 1 0.297655 0.0178869 0.00707231 0.0056757 0.000327084 9.99504e-05 -1.27929e-10 -1.04672e-10 2.22118e-11 5e-05 1.46608e-10 
244 1 0.291142 0.0165755 0.00798786 0.00572006 0.00021318 0.000973123 -1.62503e-11 -4.97436e-11 3.04177e-11 5e-05 1.46608e-10 
246 1 0.291336 0.0172911 0.00748231 0.00563099 -0.000414757 0.000133183 -5.26244e-11 1.14534e-11 -1.85458e-11 5e-05 1.46608e-10 
247 1 0.297193 0.0166624 0.00773184 0.00610059 -3.31721e-05 -0.000517734 -4.50372e-10 -2.99766e-10 3.20954e-10 5e-05 1.46608e-10 
248 1 0.297501 0.017569 0.00714688 0.00560734 0.000319899 9.96877e-05 -2.98783e-12 -2.86291e-11 7.01679e-12 5e-05 1.46608e-10 
249 1 0.291271 0.0170714 0.00767594 0.00563485 7.08854e-05 0.000693946 -4.01124e-12 -3.94659e-11 1.40491e-11 5e-05 1.46608e-10 
250 1 0.297267 0.0166107 0.0077741 0.00620688 1.63069e-05 -0.000574622 7.75154e-11 2.3978e-11 -2.18348e-11 5e-05 1.46608e-10 
251 1 0.303526 0.0176776 0.00703252 0.00565157 8.49804e-05 6.98589e-05 -8.11341e-11 -9.69499e-11 6.01067e-11 5e-05 1.46608e-10 
252 1 0.291358 0.0173642 0.00741759 0.00564718 -0.000416926 0.000133344 -1.3852e-11 7.40622e-12 -1.26303e-11 5e-05 1.46608e-10 
253 1 0.291517 0.0180765 0.00697825 0.00554056 -0.000413321 0.000126859 6.65408e-11 3.80073e-11 4.08896e-12 5e-05 1.46608e-10 
254 1 0.291293 0.017145 0.00761176 0.00563433 -0.000260361 0.000314731 5.82849e-12 1.82464e-10 1.9324e-10 5e-05 1.46608e-10 
255 1 0.29689 0.0156835 0.00868577 0.00593708 8.22611e-05 -0.000611431 1.9626e-10 2.96748e-10 -2.97762e-10 5e-05 1.46608e-10 
256 1 0.29779 0.018109 0.00702109 0.00571375 0.000315851 0.000105829 1.83948e-10 -3.01542e-11 2.17119e-11 5e-05 1.46608e-10 
257 1 0.297428 0.0168428 0.00753984 0.00581831 -4.65068e-05 -0.000479654 2.27898e-10 -2.03175e-10 1.82117e-10 5e-05 1.46608e-10 
258 1 0.297482 0.0174737 0.00717009 0.00560194 0.000323263 9.86654e-05 6.11196e-14 8.19478e-11 -1.55776e-11 5e-05 1.46608e-10 
259 1 0.291378 0.0174376 0.00735267 0.00563824 -0.000415252 0.000132033 -6.52094e-11 4.76242e-11 -3.86702e-11 5e-05 1.46608e-10 