ITEM: TIMESTEP
38200000
ITEM: NUMBER OF ATOMS
275
ITEM: BOX BOUNDS ff ff ff
-0.02 0.43
-0.02 0.06
-0.02 0.07
ITEM: ATOMS id type x y z vx vy vz fx fy fz radius mass 
1 1 0.236095 0.0187018 0.00685162 0.00605231 -0.000726328 0.000150261 1.80313e-10 2.98081e-11 -1.09643e-11 5e-05 1.46608e-10 
2 1 0.235764 0.0175213 0.00712099 0.00530616 -0.000571284 -0.000137221 2.04459e-10 1.99726e-10 -7.39679e-11 5e-05 1.46608e-10 
4 1 0.235914 0.0173937 0.00715521 0.00529874 -0.000605955 -0.000178923 -2.45939e-10 4.57189e-11 2.55648e-11 5e-05 1.46608e-10 
5 1 0.235299 0.0157198 0.00839622 0.00597404 -0.000452303 0.000442855 9.87011e-11 6.45826e-11 -6.72675e-11 5e-05 1.46608e-10 
6 1 0.24163 0.0170012 0.00760745 0.00602836 0.000464481 -0.000596 4.69045e-11 4.85482e-12 -2.96189e-12 5e-05 1.46608e-10 
7 1 0.236051 0.0180553 0.00697669 0.00555052 -0.000576131 0.000121051 -1.93112e-10 -6.06181e-11 1.57984e-11 5e-05 1.46608e-10 
8 1 0.235761 0.0170953 0.00728963 0.00558874 -0.000438318 0.000311404 -4.6281e-11 -5.66725e-11 1.68256e-10 5e-05 1.46608e-10 
9 1 0.241816 0.0177661 0.00702622 0.00575498 0.000612849 3.09131e-05 1.36936e-12 -1.22027e-11 2.88676e-13 5e-05 1.46608e-10 
10 1 0.235433 0.0160847 0.00793963 0.00578605 -0.000365193 0.000357479 7.83892e-11 -7.18547e-11 8.88629e-11 5e-05 1.46608e-10 
11 1 0.235937 0.0181681 0.00704285 0.00558327 -0.000526261 0.000109735 -2.86167e-10 -1.37309e-10 1.91945e-11 5e-05 1.46608e-10 
12 1 0.229983 0.0173499 0.00742452 0.00596622 0.0002564 -0.000501575 3.31651e-11 1.87558e-10 -9.18975e-11 5e-05 1.46608e-10 
13 1 0.235278 0.0156589 0.00847262 0.00597854 -0.000448914 0.00044091 -6.359e-11 1.61673e-10 -2.08333e-10 5e-05 1.46608e-10 
14 1 0.229944 0.0179965 0.00710828 0.00561815 0.000405272 -0.000565186 -3.79337e-10 3.17719e-11 2.13805e-11 5e-05 1.46608e-10 
16 1 0.230141 0.0184789 0.00691115 0.00569214 0.000549267 -9.55206e-05 3.1012e-10 2.32633e-10 -9.81989e-11 5e-05 1.46608e-10 
17 1 0.235406 0.0160241 0.00801443 0.00601197 -0.0004174 0.000400123 2.9805e-11 -1.04913e-10 1.22687e-10 5e-05 1.46608e-10 
19 1 0.235256 0.015598 0.00854902 0.00594809 -0.000448311 0.000439616 -2.23736e-10 1.80902e-10 -2.39287e-10 5e-05 1.46608e-10 
21 1 0.236093 0.0182471 0.00693962 0.00553756 -0.000572161 0.000118583 -2.96844e-10 4.43124e-12 3.22525e-12 5e-05 1.46608e-10 
22 1 0.235722 0.0169254 0.00738775 0.00569974 -0.000464708 0.000327159 4.19036e-11 -2.92044e-10 1.61327e-10 5e-05 1.46608e-10 
23 1 0.230172 0.0182335 0.00699798 0.00573789 0.0005305 -8.6894e-05 -5.841e-11 1.02858e-10 -5.10047e-11 5e-05 1.46608e-10 
24 1 0.241745 0.0174432 0.00721845 0.00562723 0.000539431 -0.000626639 1.82307e-11 2.12653e-11 -1.39837e-11 5e-05 1.46608e-10 
25 1 0.235468 0.0162206 0.00779874 0.00528321 -0.000308981 0.000300609 -5.112e-11 -7.35689e-11 1.11832e-10 5e-05 1.46608e-10 
26 1 0.241781 0.0175917 0.00708931 0.00574156 0.000608979 -0.000516193 -1.63503e-11 -4.55177e-12 -6.67502e-12 5e-05 1.46608e-10 
27 1 0.229792 0.0172942 0.00746395 0.00607977 0.000361709 -0.000560365 -1.04428e-09 9.24938e-10 -4.06319e-10 5e-05 1.46608e-10 
28 1 0.235839 0.0174576 0.00713809 0.00529922 -0.000601681 -0.000176206 -9.06121e-11 6.44088e-11 -5.77423e-11 5e-05 1.46608e-10 
29 1 0.235235 0.0155371 0.00862542 0.00591179 -0.00044957 0.0004397 1.38486e-10 1.1685e-10 -1.48458e-10 5e-05 1.46608e-10 
30 1 0.235547 0.0165577 0.00759948 0.00571435 -0.00043537 0.000309647 -4.18264e-11 -2.08501e-11 7.48573e-11 5e-05 1.46608e-10 
31 1 0.236126 0.0179905 0.00698936 0.00554217 -0.000599066 0.000125368 -1.75713e-10 7.08038e-11 -1.37029e-11 5e-05 1.46608e-10 
32 1 0.235494 0.0163036 0.00774931 0.00546035 -0.000414452 0.000228532 -2.88515e-11 -6.25019e-11 1.00149e-10 5e-05 1.46608e-10 
33 1 0.241652 0.0170744 0.00754287 0.00603152 0.000462097 -0.000594018 -5.0271e-11 -1.5293e-11 1.20406e-11 5e-05 1.46608e-10 
34 1 0.235384 0.015965 0.00809214 0.00610067 -0.000436779 0.000422703 -1.04219e-10 -1.89525e-10 1.72837e-10 5e-05 1.46608e-10 
35 1 0.236011 0.0178627 0.00701389 0.005523 -0.000566831 0.000118362 -3.39101e-10 1.45652e-10 -2.73038e-11 5e-05 1.46608e-10 
36 1 0.241873 0.0180604 0.00703583 0.00571292 0.000619027 3.08538e-05 1.94609e-12 9.66952e-12 1.10839e-13 5e-05 1.46608e-10 
37 1 0.235894 0.0173015 0.00718947 0.00559428 -0.000298228 -0.000310944 -1.14952e-10 3.47687e-11 8.62041e-12 5e-05 1.46608e-10 
38 1 0.235972 0.0176704 0.00705246 0.00528505 -0.000533651 -0.000216061 -3.51701e-09 3.16307e-09 1.18455e-08 5e-05 1.46608e-10 
39 1 0.241762 0.0175176 0.0071539 0.00565515 0.000582698 -0.000569486 2.11433e-11 8.81458e-12 -6.91082e-12 5e-05 1.46608e-10 
41 1 0.235345 0.0158411 0.00824409 0.00605532 -0.000450833 0.000436446 -1.60054e-10 -1.09667e-10 1.53954e-10 5e-05 1.46608e-10 
42 1 0.236008 0.0174219 0.00713815 0.0052906 -0.000713773 -0.000141172 1.83118e-10 -2.4203e-10 1.19874e-10 5e-05 1.46608e-10 
44 1 0.236067 0.0177014 0.00704521 0.0055027 -0.000626904 0.000130577 -4.06347e-10 1.94885e-10 -4.64281e-11 5e-05 1.46608e-10 
45 1 0.241673 0.0171478 0.00747821 0.0058077 0.000499147 -0.000619433 1.4969e-11 -2.34257e-11 2.3713e-11 5e-05 1.46608e-10 
47 1 0.235363 0.0159024 0.00816713 0.00607083 -0.00043924 0.000426275 2.48748e-11 -1.73552e-10 2.1074e-10 5e-05 1.46608e-10 
48 1 0.235958 0.0184675 0.00689673 0.0055423 -0.000539065 0.000111247 -2.80192e-11 -5.92833e-11 -2.77637e-12 5e-05 1.46608e-10 
49 1 0.241835 0.0178642 0.00702942 0.00574972 0.000613415 3.08952e-05 4.17404e-12 -6.50414e-12 -5.21515e-13 5e-05 1.46608e-10 
50 1 0.235508 0.0163879 0.00769732 0.00559009 -0.000405347 0.000288193 -3.27717e-12 -4.59909e-11 4.80013e-11 5e-05 1.46608e-10 
51 1 0.236145 0.0180867 0.00697076 0.00556782 -0.000585486 0.000122539 -2.47124e-10 -1.73403e-11 3.10219e-12 5e-05 1.46608e-10 
52 1 0.230039 0.0176129 0.00729141 0.00556409 0.000353624 -0.000524265 2.89665e-11 1.81992e-10 -8.07617e-11 5e-05 1.46608e-10 
53 1 0.24171 0.0172952 0.00734834 0.00566831 0.000521248 -0.000633341 2.29982e-11 8.84962e-12 8.79702e-13 5e-05 1.46608e-10 
54 1 0.23628 0.0183161 0.00692659 0.00554084 -0.000551524 0.000116194 -3.15328e-10 -2.96441e-11 5.38841e-12 5e-05 1.46608e-10 
55 1 0.229963 0.0176732 0.00726647 0.00559977 0.000388599 -0.000544041 9.22702e-11 1.46565e-11 -2.2832e-11 5e-05 1.46608e-10 
56 1 0.236263 0.0182137 0.00694639 0.00555074 -0.000558368 0.00011794 -9.8633e-12 4.28555e-11 -1.23852e-11 5e-05 1.46608e-10 
57 1 0.241692 0.0172214 0.00741336 0.00568993 0.000517378 -0.000631308 2.29189e-11 -1.88264e-11 1.72797e-11 5e-05 1.46608e-10 
59 1 0.378022 0.019866 0.005332 -5.01972e-15 -7.412e-15 7.69802e-14 6.29433e-24 -1.68021e-24 4.1359e-25 5e-05 1.46608e-10 
60 1 0.236087 0.0177979 0.00702657 0.00552689 -0.000562115 0.000117332 -2.61084e-10 2.84145e-10 -9.19632e-11 5e-05 1.46608e-10 
61 1 0.23532 0.0157807 0.00831981 0.00601488 -0.000455702 0.000444878 -8.65522e-11 -6.79666e-11 7.54348e-11 5e-05 1.46608e-10 
62 1 0.235992 0.0177664 0.0070325 0.00553514 -0.000579978 0.00012171 -3.21104e-10 3.86234e-10 -3.80877e-11 5e-05 1.46608e-10 
63 1 0.23598 0.0185345 0.00696779 0.00555239 -0.000543758 0.000109943 -8.41279e-11 -2.08097e-11 -1.35313e-12 5e-05 1.46608e-10 
64 1 0.241728 0.017369 0.00728336 0.0056477 0.000524386 -0.000635668 -1.16141e-12 1.48546e-11 -1.72616e-11 5e-05 1.46608e-10 
65 1 0.230001 0.0178483 0.00717775 0.00558652 0.000399331 -0.000545734 -2.21013e-10 2.52662e-10 -1.01911e-10 5e-05 1.46608e-10 
66 1 0.230129 0.0181379 0.00712722 0.00567553 0.000540678 -6.54951e-05 -4.03136e-11 -3.31482e-10 -9.94433e-11 5e-05 1.46608e-10 
67 1 0.236113 0.0183434 0.00692102 0.00554463 -0.000554918 0.000117421 -1.38835e-10 -8.23407e-11 2.83285e-11 5e-05 1.46608e-10 
68 1 0.235897 0.0177362 0.00704391 0.00550658 -0.000590661 -8.49214e-05 -1.03018e-09 1.60855e-09 8.35782e-10 5e-05 1.46608e-10 
69 1 0.236188 0.0182786 0.0069337 0.00554378 -0.000562894 0.000118412 -1.69999e-10 -1.16191e-10 2.7644e-11 5e-05 1.46608e-10 
70 1 0.241797 0.0176679 0.00702657 0.00580067 0.000601903 -0.000510985 -1.49436e-11 -1.20468e-11 4.99219e-12 5e-05 1.46608e-10 
71 1 0.230315 0.0184623 0.00692009 0.00448805 -0.000922733 0.000404867 2.61499e-10 -3.62004e-10 1.56213e-10 5e-05 1.46608e-10 
72 1 0.23617 0.0186364 0.00686439 0.00590236 -0.000895256 0.000183269 3.15976e-10 -5.80269e-11 1.78288e-11 5e-05 1.46608e-10 
73 1 0.235447 0.0161458 0.00786176 0.00554065 -0.000353875 0.000325819 -7.01582e-11 -8.40634e-11 8.18754e-11 5e-05 1.46608e-10 
74 1 0.235527 0.0164729 0.00764833 0.00566209 -0.000412004 0.000312384 3.90116e-12 -1.6388e-11 4.92681e-11 5e-05 1.46608e-10 
76 1 0.229907 0.0174102 0.00739958 0.00602522 0.000278908 -0.000516057 -3.76299e-10 -1.846e-10 1.08744e-10 5e-05 1.46608e-10 
77 1 0.235783 0.0176134 0.00708701 0.00544114 -0.000587941 -0.000133107 -1.13322e-10 1.95319e-10 -1.87803e-10 5e-05 1.46608e-10 
78 1 0.229273 0.0156089 0.00845187 0.00637875 0.000676577 -0.000375907 6.13809e-11 1.23504e-10 -2.1607e-10 5e-05 1.46608e-10 
79 1 0.230208 0.0187737 0.00682981 0.00596494 5.7766e-05 5.19488e-06 6.65652e-10 1.75455e-10 1.02332e-09 5e-05 1.46608e-10 
80 1 0.235858 0.0175495 0.00710392 0.00536272 -0.000675459 -0.000154794 4.02578e-11 -4.27087e-11 1.1757e-10 5e-05 1.46608e-10 
82 1 0.230031 0.0182239 0.00709665 0.00566881 0.000405116 -9.16397e-05 1.76789e-10 -2.08092e-10 -6.08383e-10 5e-05 1.46608e-10 
83 1 0.230001 0.0174376 0.00738015 0.00584166 0.000282251 -0.000506467 -2.02202e-11 1.85859e-10 -9.31806e-11 5e-05 1.46608e-10 
84 1 0.241854 0.0179623 0.00703263 0.00573839 0.000614624 3.08358e-05 6.85319e-13 2.58547e-12 4.59539e-13 5e-05 1.46608e-10 
85 1 0.230369 0.0186589 0.00685191 0.00549715 -0.000446794 0.000252518 1.82605e-09 -1.62538e-09 6.6182e-10 5e-05 1.46608e-10 
86 1 0.236047 0.0176064 0.00706963 0.00543167 -0.000605165 -0.000187187 -6.26486e-10 4.02133e-10 -8.41592e-10 5e-05 1.46608e-10 
87 1 0.235819 0.0173655 0.0071723 0.00546171 -0.000439086 -0.0002485 1.98797e-11 4.97971e-11 6.44873e-12 5e-05 1.46608e-10 
88 1 0.235956 0.0180238 0.00698262 0.00552747 -0.000566104 0.000118087 -9.02065e-11 1.28574e-10 -5.65139e-11 5e-05 1.46608e-10 
89 1 0.236052 0.0182216 0.00702722 0.00553161 -0.000591055 0.000117488 -3.93929e-11 8.86173e-11 4.86185e-11 5e-05 1.46608e-10 
90 1 0.236132 0.0184474 0.00690092 0.00555269 -0.000527065 0.000113058 -5.22273e-11 7.08455e-11 -3.29847e-11 5e-05 1.46608e-10 
91 1 0.229964 0.0172623 0.00746889 0.00622697 0.000405822 -0.000591564 -4.3464e-11 -2.44591e-12 6.36422e-12 5e-05 1.46608e-10 
92 1 0.235881 0.0180885 0.00696996 0.00556397 -0.00050179 0.000109075 1.41538e-13 2.71262e-10 -3.16959e-11 5e-05 1.46608e-10 
93 1 0.235608 0.016812 0.00745237 0.00574755 -0.000444933 0.000315409 1.66244e-11 -1.69626e-11 2.34673e-11 5e-05 1.46608e-10 
94 1 0.236004 0.018317 0.00702578 0.00557211 -0.000600266 0.000112619 -2.01447e-10 3.96251e-12 1.19407e-10 5e-05 1.46608e-10 
95 1 0.235866 0.0178656 0.00709913 0.00550634 -0.000589914 9.78229e-05 -3.23962e-10 1.07177e-10 -1.00979e-10 5e-05 1.46608e-10 
96 1 0.235861 0.0179922 0.00698857 0.00556343 -0.00050689 0.000104496 -5.96684e-11 5.94271e-11 -4.17054e-11 5e-05 1.46608e-10 
97 1 0.229377 0.0159627 0.00814627 0.00632086 0.000284378 -0.000542741 3.43443e-11 3.52304e-10 -2.02075e-10 5e-05 1.46608e-10 
98 1 0.235588 0.0167272 0.00750136 0.00577373 -0.000451351 0.000319657 2.4156e-11 -6.50806e-11 2.61676e-11 5e-05 1.46608e-10 
99 1 0.229927 0.0183274 0.00696814 0.00572153 0.000559659 -7.9471e-05 1.47462e-11 2.6408e-10 -1.05899e-11 5e-05 1.46608e-10 
100 1 0.23607 0.0181516 0.00695808 0.00554697 -0.000572004 0.000116261 -1.06864e-10 8.28008e-11 -1.01682e-11 5e-05 1.46608e-10 
101 1 0.229948 0.0184249 0.00696173 0.00577192 0.000547029 -7.28186e-05 -6.55906e-11 5.18607e-10 -3.0682e-10 5e-05 1.46608e-10 
102 1 0.0643568 0.0187248 0.00531097 4.08835e-15 1.05723e-14 8.29598e-14 1.09149e-22 -5.0975e-23 -4.54949e-24 5e-05 1.46608e-10 
103 1 0.24257 0.0191927 0.00520306 3.06537e-22 -3.92126e-22 8.29106e-22 -3.23117e-27 2.58494e-26 0 5e-05 1.46608e-10 
104 1 0.230242 0.0185264 0.00689625 0.00505744 -0.000382262 0.000224457 5.57464e-10 1.81144e-10 -9.99823e-11 5e-05 1.46608e-10 
105 1 0.229335 0.0157884 0.00823482 0.00638188 0.000296312 -0.000553545 -5.11481e-11 3.21998e-10 -1.44258e-10 5e-05 1.46608e-10 
106 1 0.230019 0.018132 0.00713407 0.00579436 0.000274749 -0.000427557 7.30707e-10 3.04096e-10 4.96227e-10 5e-05 1.46608e-10 
107 1 0.229293 0.0156547 0.00836518 0.00640693 0.00066693 -0.000368237 6.14758e-11 1.06504e-10 -2.30879e-10 5e-05 1.46608e-10 
108 1 0.236206 0.0183812 0.00691387 0.00554361 -0.000539647 0.0001146 -1.95258e-10 4.04002e-11 -1.24152e-12 5e-05 1.46608e-10 
109 1 0.236201 0.0179257 0.00700204 0.00554248 -0.000603773 0.000126461 -6.37563e-11 4.7378e-10 -9.18149e-11 5e-05 1.46608e-10 
110 1 0.235744 0.0174293 0.00715515 0.00532034 -0.000596185 -0.000177411 2.47786e-10 6.28809e-11 -7.23304e-11 5e-05 1.46608e-10 
111 1 0.235705 0.0172462 0.00722523 0.00560567 -0.000616524 -9.61932e-05 4.50654e-13 5.21988e-11 -1.52246e-11 5e-05 1.46608e-10 
112 1 0.229419 0.016137 0.00805772 0.0062524 0.000275913 -0.000528312 1.11802e-10 2.29048e-10 -1.09359e-10 5e-05 1.46608e-10 
113 1 0.22985 0.0179696 0.00712747 0.00563072 0.000458617 -0.000581213 -1.09599e-10 -1.8095e-10 1.01254e-10 5e-05 1.46608e-10 
114 1 0.229888 0.018145 0.00703863 0.00575758 0.000803813 -0.000758303 1.08454e-11 5.02169e-11 -2.52871e-11 5e-05 1.46608e-10 
115 1 0.236028 0.017514 0.00710396 0.00542025 -0.000674347 -0.000166044 -1.7062e-10 2.61738e-10 -4.59397e-11 5e-05 1.46608e-10 
116 1 0.236038 0.0184082 0.00690835 0.00554148 -0.000551893 0.000116117 -4.86978e-11 -1.07249e-11 2.09763e-11 5e-05 1.46608e-10 
117 1 0.236031 0.017959 0.00699529 0.00552759 -0.000568199 0.000118868 -1.68017e-10 5.52365e-11 -7.4938e-12 5e-05 1.46608e-10 
118 1 0.230077 0.017788 0.00720269 0.00557333 0.000367129 -0.000533259 -2.20848e-10 2.97518e-10 -1.19012e-10 5e-05 1.46608e-10 
119 1 0.236212 0.0185067 0.00688958 0.00559345 -0.000560566 0.000117217 1.37854e-10 -1.05839e-10 -3.39516e-11 5e-05 1.46608e-10 
120 1 0.235742 0.0170103 0.00733874 0.0056411 -0.000452202 0.000317923 6.09681e-12 -2.1541e-10 1.34595e-10 5e-05 1.46608e-10 
121 1 0.23604 0.0188618 0.00682055 0.00614036 -0.000683876 0.000141258 1.41734e-10 7.77642e-11 -2.2314e-11 5e-05 1.46608e-10 
122 1 0.235841 0.017896 0.00700717 0.00556805 -0.000514997 0.000102297 -8.30353e-11 1.2206e-10 -1.4702e-10 5e-05 1.46608e-10 
123 1 0.230339 0.0185579 0.00688688 0.00571057 -0.000480586 0.000269462 1.53015e-10 -1.06862e-10 -1.47245e-11 5e-05 1.46608e-10 
124 1 0.235628 0.016897 0.00740354 0.00568281 -0.000433664 0.000310548 -8.31958e-11 3.51261e-12 1.11132e-11 5e-05 1.46608e-10 
125 1 0.235936 0.0179275 0.00700122 0.005516 -0.000571159 0.000117632 -2.19461e-10 2.65022e-10 -2.12082e-11 5e-05 1.46608e-10 
127 1 0.229356 0.0158756 0.00819055 0.0063577 0.000290116 -0.000550804 -8.60494e-11 3.76987e-10 -1.00892e-10 5e-05 1.46608e-10 
128 1 0.235569 0.0166421 0.0075505 0.00576243 -0.000448439 0.000318135 -1.65649e-12 -7.1644e-11 4.86544e-11 5e-05 1.46608e-10 
129 1 0.235909 0.0180626 0.00706219 0.0055227 -0.000558106 0.000108684 8.25164e-11 1.74848e-10 -5.35233e-11 5e-05 1.46608e-10 
130 1 0.229983 0.018174 0.00702468 0.00571885 0.00051181 -0.000244087 -1.17483e-11 -2.47757e-10 -2.9553e-10 5e-05 1.46608e-10 
131 1 0.230002 0.0182635 0.00698442 0.00574535 0.000571395 -9.24293e-05 -5.4128e-11 -2.35875e-11 -4.83579e-11 5e-05 1.46608e-10 
132 1 0.235933 0.0174857 0.00712103 0.00532134 -0.000700808 -0.000146323 4.1674e-10 -7.63927e-12 -4.09677e-11 5e-05 1.46608e-10 
133 1 0.236051 0.0185055 0.00688953 0.00554591 -0.000541115 0.000115759 -4.04882e-11 -1.01093e-11 1.26215e-11 5e-05 1.46608e-10 
134 1 0.236018 0.018312 0.00692694 0.0055332 -0.000565248 0.00011489 -1.41924e-10 4.39656e-11 6.04726e-12 5e-05 1.46608e-10 
135 1 0.236168 0.0181823 0.0069523 0.00555517 -0.000572078 0.000119936 -2.4169e-10 -5.84037e-11 -4.8983e-12 5e-05 1.46608e-10 
136 1 0.229944 0.0175855 0.00731083 0.00571166 0.000361069 -0.000537084 8.00536e-11 -1.37526e-10 5.81855e-11 5e-05 1.46608e-10 
137 1 0.235888 0.0179645 0.00708074 0.00551197 -0.000545509 9.63799e-05 -3.76842e-10 2.66666e-10 2.5165e-11 5e-05 1.46608e-10 
138 1 0.235921 0.0182824 0.00695779 0.00554069 -0.0005531 0.000110437 -4.68156e-11 8.9297e-11 8.35127e-11 5e-05 1.46608e-10 
140 1 0.235802 0.0177058 0.00705411 0.0055166 -0.000609314 -0.000176628 -2.76753e-11 2.34323e-10 -4.74704e-10 5e-05 1.46608e-10 
141 1 0.229778 0.0168841 0.00766693 0.00612667 0.000207984 -0.000487607 -2.86602e-11 -1.43363e-10 7.57491e-11 5e-05 1.46608e-10 
142 1 0.230153 0.0181407 0.00703029 0.00570267 0.000520349 -7.22019e-05 6.43708e-11 6.85787e-11 -1.22223e-10 5e-05 1.46608e-10 
143 1 0.229314 0.0157013 0.0082791 0.00636308 0.000317773 -0.000553102 3.01727e-10 2.59563e-10 -1.37913e-10 5e-05 1.46608e-10 
144 1 0.230115 0.0179632 0.00711398 0.00564698 0.000353005 -0.000522982 -2.41833e-10 3.59237e-10 -1.4888e-10 5e-05 1.46608e-10 
146 1 0.229462 0.0163113 0.00796918 0.00586658 0.000300057 -0.000523263 -1.15837e-11 -2.37871e-10 1.25196e-10 5e-05 1.46608e-10 
147 1 0.229964 0.0180848 0.00706547 0.00566582 0.000415143 -0.000490957 3.1574e-10 1.15492e-10 2.13869e-10 5e-05 1.46608e-10 
148 1 0.2298 0.0169712 0.00762267 0.00610021 0.000241027 -0.000502499 -1.85108e-10 1.65991e-10 -6.22084e-11 5e-05 1.46608e-10 
149 1 0.235666 0.017069 0.00730923 0.00553407 -0.000448804 0.000227013 1.1047e-10 9.27881e-11 2.15233e-10 5e-05 1.46608e-10 
150 1 0.230296 0.0188195 0.00683787 0.00615335 -0.000105288 -0.000171469 5.93023e-11 4.24629e-11 2.87884e-10 5e-05 1.46608e-10 
151 1 0.230077 0.0186314 0.00685727 0.0057746 0.000529418 -7.95609e-05 -3.81356e-10 -3.41479e-10 2.8644e-11 5e-05 1.46608e-10 
153 1 0.229822 0.0170582 0.00757842 0.00609033 0.000269886 -0.000516072 -3.12938e-11 2.07633e-10 -1.07007e-10 5e-05 1.46608e-10 
154 1 0.22944 0.0162241 0.00801345 0.006208 0.00026115 -0.000520686 -2.12629e-10 3.65714e-11 2.10461e-11 5e-05 1.46608e-10 
155 1 0.229483 0.0163986 0.00792534 0.00613383 0.000143657 -0.000633706 -8.67128e-11 -7.81488e-11 4.70022e-10 5e-05 1.46608e-10 
156 1 0.229757 0.016797 0.0077112 0.00598855 0.000216339 -0.00048273 1.64438e-10 -3.67734e-10 1.56401e-10 5e-05 1.46608e-10 
157 1 0.0219312 0.0187687 0.00551176 -3.83848e-14 8.16472e-14 2.95886e-13 -8.38451e-22 -2.85688e-22 -3.03989e-23 5e-05 1.46608e-10 
158 1 0.229866 0.0172324 0.00748973 0.00616364 0.000532191 -0.000649414 -1.08105e-09 6.79088e-10 -2.61583e-10 5e-05 1.46608e-10 
159 1 0.235953 0.0175778 0.00708683 0.00546134 -0.000637507 -0.00017813 -2.65842e-10 5.88449e-11 2.91176e-11 5e-05 1.46608e-10 
160 1 0.229964 0.0185019 0.00689993 0.00576481 0.000568213 -7.96426e-05 -1.05715e-10 3.77307e-10 -2.75419e-10 5e-05 1.46608e-10 
162 1 0.230021 0.0184061 0.00703905 0.00607614 0.000498307 -6.06498e-05 1.80293e-10 -1.35843e-10 2.8572e-10 5e-05 1.46608e-10 
164 1 0.229546 0.0166598 0.00779208 0.00603743 0.000216317 -0.000484452 -7.80787e-11 -7.74027e-11 3.2656e-11 5e-05 1.46608e-10 
165 1 0.230184 0.0186773 0.00684218 0.00615698 8.17326e-05 7.33769e-05 -6.8553e-10 -5.33893e-10 3.44767e-10 5e-05 1.46608e-10 
166 1 0.235939 0.0183712 0.00691533 0.00554644 -0.000544948 0.000113845 -8.63675e-11 -4.95423e-11 3.11622e-11 5e-05 1.46608e-10 
167 1 0.230048 0.0188893 0.00685892 0.00626732 0.000271225 -6.52459e-05 6.37261e-10 -1.20817e-09 1.57596e-10 5e-05 1.46608e-10 
168 1 0.230374 0.0187583 0.00682261 0.00569082 -0.00049824 -0.000222252 1.39508e-09 1.12161e-10 2.33007e-10 5e-05 1.46608e-10 
169 1 0.23021 0.0188718 0.00685134 0.00618579 0.000144755 -0.000112412 2.24927e-09 9.10449e-10 3.27481e-10 5e-05 1.46608e-10 
170 1 0.230122 0.0188241 0.00684286 0.00612825 0.000272948 -5.81254e-05 1.52513e-09 -1.52146e-09 8.60284e-11 5e-05 1.46608e-10 
171 1 0.236116 0.0187978 0.00683307 0.00612265 -0.000701408 0.000145935 1.90558e-11 6.95947e-11 -1.0846e-11 5e-05 1.46608e-10 
172 1 0.229831 0.017882 0.00717182 0.00560525 0.000441269 -0.000569312 9.44614e-11 -1.51333e-10 6.09745e-11 5e-05 1.46608e-10 
173 1 0.236131 0.0185494 0.00693076 0.00557295 -0.000590606 0.000118876 1.47463e-10 6.20132e-11 -1.29064e-10 5e-05 1.46608e-10 
174 1 0.229588 0.0168341 0.00770354 0.005965 0.000248265 -0.000496899 -4.58733e-10 -2.53902e-10 2.90003e-10 5e-05 1.46608e-10 
176 1 0.229887 0.0177338 0.00724135 0.00568747 0.000407742 -0.000558304 -1.9461e-10 3.00659e-10 -1.48137e-10 5e-05 1.46608e-10 
177 1 0.229578 0.0164234 0.00790659 0.00612713 0.000251722 -0.000511285 -4.21396e-11 -3.53488e-10 1.92279e-10 5e-05 1.46608e-10 
178 1 0.229898 0.0180507 0.00717851 0.00562839 0.000431799 -0.000577486 1.77345e-10 2.72616e-10 -1.06542e-10 5e-05 1.46608e-10 
179 1 0.229982 0.0185827 0.006967 0.00620142 0.000474689 -9.50823e-05 -5.72111e-11 -1.85512e-10 -4.11969e-10 5e-05 1.46608e-10 
182 1 0.236061 0.0189578 0.006802 0.00620026 -0.000686973 0.000145866 -2.76188e-12 -2.71914e-11 5.61406e-11 5e-05 1.46608e-10 
183 1 0.229927 0.0182184 0.00709444 0.00564051 0.000367574 -0.000226182 2.76348e-10 -4.21571e-10 -4.50659e-10 5e-05 1.46608e-10 
184 1 0.235985 0.0184367 0.00698808 0.00552146 -0.000548082 0.000105314 -1.95534e-11 1.65905e-10 2.5675e-11 5e-05 1.46608e-10 
185 1 0.230134 0.0180507 0.00706962 0.00563655 0.000339883 -0.000519831 -2.40172e-10 3.00154e-10 -1.09145e-10 5e-05 1.46608e-10 
186 1 0.230421 0.0185054 0.00690681 0.00552827 -0.000726716 0.00035459 3.02856e-10 5.66489e-11 5.8624e-12 5e-05 1.46608e-10 
187 1 0.236075 0.0186057 0.00687019 0.00555365 -0.00060887 0.000121839 -2.23607e-11 5.48405e-11 -7.55516e-11 5e-05 1.46608e-10 
188 1 0.235917 0.0178313 0.00701982 0.0055268 -0.00057263 0.000117573 -5.24685e-10 5.77056e-10 -1.68279e-10 5e-05 1.46608e-10 
189 1 0.236019 0.0187658 0.0068391 0.00612246 -0.000667784 0.000139003 2.72691e-11 3.16763e-11 -1.20342e-12 5e-05 1.46608e-10 
190 1 0.223942 0.0184001 0.00696952 0.00616839 0.000213486 0.000101056 -1.68294e-10 2.64817e-10 -4.27914e-11 5e-05 1.46608e-10 
191 1 0.235686 0.0171566 0.00726518 0.00557562 -0.000534567 7.941e-05 -2.83719e-11 1.517e-10 2.58662e-10 5e-05 1.46608e-10 
192 1 0.229869 0.0180572 0.00708311 0.00565316 0.000450136 -0.000580517 -1.02188e-10 4.78452e-11 -2.30317e-11 5e-05 1.46608e-10 
193 1 0.236137 0.0188941 0.00681447 0.00617489 -0.000697345 0.000144886 1.20629e-10 -1.98602e-10 6.11734e-11 5e-05 1.46608e-10 
194 1 0.230055 0.0183153 0.00706343 0.00576145 0.000389842 -5.64068e-05 1.39486e-10 -2.76299e-10 -9.53848e-11 5e-05 1.46608e-10 
195 1 0.230063 0.0185375 0.00688916 0.00567931 0.000523678 -8.60813e-05 3.46432e-11 -1.5266e-10 6.72719e-11 5e-05 1.46608e-10 
196 1 0.230097 0.0182949 0.00697504 0.00575669 0.00055782 -9.50564e-05 1.47096e-10 -2.68272e-11 -1.85006e-12 5e-05 1.46608e-10 
197 1 0.223641 0.0170172 0.00754771 0.00580118 0.000481622 3.68183e-05 -7.06791e-11 1.59948e-10 -2.03492e-10 5e-05 1.46608e-10 
198 1 0.23002 0.0175252 0.00733578 0.00566667 0.000322822 -0.00051569 2.15466e-10 1.39438e-10 -7.96858e-11 5e-05 1.46608e-10 
199 1 0.229924 0.0183146 0.00706728 0.00601165 0.000400473 -8.33414e-05 9.98601e-11 -1.97814e-10 1.66941e-10 5e-05 1.46608e-10 
200 1 0.229398 0.0160499 0.008102 0.006285 0.000281889 -0.000534018 5.70398e-11 2.53423e-10 -1.95747e-10 5e-05 1.46608e-10 
201 1 0.230164 0.0185848 0.00687431 0.00557435 0.000198325 3.14981e-05 -2.41644e-10 -3.10868e-10 6.53188e-11 5e-05 1.46608e-10 
202 1 0.229887 0.0173212 0.00744473 0.00611129 0.000278693 -0.000521545 -3.48883e-10 8.67074e-11 -2.19546e-11 5e-05 1.46608e-10 
203 1 0.235995 0.0182164 0.00694541 0.0055365 -0.000570962 0.000119214 6.52187e-11 2.51121e-10 -5.49437e-11 5e-05 1.46608e-10 
204 1 0.230193 0.018326 0.00696584 0.00578344 0.00056511 -9.85573e-05 1.36824e-10 -8.10745e-11 1.3323e-11 5e-05 1.46608e-10 
205 1 0.229726 0.0170333 0.00759669 0.00572253 0.000221353 -0.000468882 -3.13084e-10 -5.57875e-11 3.63979e-11 5e-05 1.46608e-10 
206 1 0.22977 0.0172073 0.00750821 0.00603366 0.000233731 -0.000494 -4.82942e-10 -5.0898e-12 3.10288e-11 5e-05 1.46608e-10 
207 1 0.229641 0.0166849 0.00777377 0.00601649 0.000263865 -0.000506917 -2.40934e-10 9.87478e-11 -4.11173e-11 5e-05 1.46608e-10 
208 1 0.230058 0.0177005 0.00724705 0.00556436 0.000367729 -0.00053115 -3.56264e-10 2.59762e-10 -1.12312e-10 5e-05 1.46608e-10 
209 1 0.229982 0.0177608 0.00722211 0.00556346 0.000397004 -0.000545361 -1.19544e-10 1.82769e-10 -6.36231e-11 5e-05 1.46608e-10 
210 1 0.23578 0.0171812 0.00724083 0.00564825 -0.000606389 -0.000206441 4.62054e-11 -2.77957e-11 -4.82055e-11 5e-05 1.46608e-10 
211 1 0.2358 0.0172734 0.00720651 0.00567531 -0.000510556 -0.000242047 -1.50218e-12 -9.43964e-11 4.01026e-11 5e-05 1.46608e-10 
212 1 0.230263 0.0186195 0.00686389 0.00597614 -0.000176145 0.000168226 -1.11273e-10 8.94948e-12 -4.52697e-12 5e-05 1.46608e-10 
213 1 0.236 0.018672 0.00686797 0.00558718 -0.000563633 9.29658e-05 2.67305e-11 -6.26708e-13 6.64619e-11 5e-05 1.46608e-10 
214 1 0.235878 0.0176419 0.00707079 0.00548563 -0.000629424 -0.000171952 -1.76455e-10 1.51108e-10 -1.32932e-10 5e-05 1.46608e-10 
215 1 0.223858 0.0179105 0.00700761 0.00571618 0.000117605 -0.000286988 -2.43226e-10 -2.51149e-10 4.00077e-10 5e-05 1.46608e-10 
216 1 0.22962 0.0165977 0.00781804 0.00606326 0.000245442 -0.000501078 -2.51993e-11 -2.3954e-11 4.14901e-12 5e-05 1.46608e-10 
217 1 0.23615 0.019003 0.0067934 0.00580988 7.58213e-05 -1.23563e-05 -1.52708e-10 -1.89849e-11 -1.89575e-11 5e-05 1.46608e-10 
218 1 0.229907 0.0182328 0.00699414 0.00570826 0.000443117 -0.000577164 9.50821e-13 9.13223e-11 -5.29552e-11 5e-05 1.46608e-10 
219 1 0.235647 0.0169819 0.00735425 0.00558607 -0.000420212 0.000300884 5.84794e-11 -9.11764e-12 3.65111e-11 5e-05 1.46608e-10 
220 1 0.230021 0.0183573 0.00695177 0.00576217 0.000441856 -4.40396e-05 1.44845e-10 6.19019e-11 9.7681e-11 5e-05 1.46608e-10 
222 1 0.236106 0.0178942 0.00700797 0.00552686 -0.00058443 0.000122216 -1.02505e-10 1.01563e-10 -1.99913e-11 5e-05 1.46608e-10 
224 1 0.229813 0.0173831 0.00741889 0.00604785 0.000244321 -0.000499664 -5.28397e-10 1.75941e-10 -5.82581e-11 5e-05 1.46608e-10 
225 1 0.235725 0.0173374 0.00718941 0.00552733 -0.000639775 -0.00018337 -6.19269e-12 1.46945e-11 -2.0567e-10 5e-05 1.46608e-10 
226 1 0.229977 0.017994 0.00720271 0.00561292 0.000406464 -0.000565517 -2.23625e-10 4.09938e-10 -2.63563e-10 5e-05 1.46608e-10 
227 1 0.223863 0.0180087 0.00698932 0.00569467 0.000141078 -0.000257116 -3.11573e-10 -1.55752e-10 6.4029e-10 5e-05 1.46608e-10 
228 1 0.223805 0.0177199 0.00703316 0.00567838 9.80479e-05 -0.000238012 9.26361e-11 -8.37558e-11 2.90167e-10 5e-05 1.46608e-10 
229 1 0.230286 0.0187115 0.00683196 0.00567495 -0.000200889 0.000144312 8.54448e-10 -7.99372e-10 2.72467e-11 5e-05 1.46608e-10 
230 1 0.229718 0.0173562 0.00743805 0.00602142 0.000300345 -0.0005256 -5.7273e-10 2.26132e-10 -1.01534e-10 5e-05 1.46608e-10 
232 1 0.230011 0.0185041 0.00702173 0.006653 0.000506005 -0.000289813 -7.30138e-11 -9.92982e-11 -9.52768e-11 5e-05 1.46608e-10 
233 1 0.230027 0.0187939 0.00683843 0.00633581 0.000346725 -3.21403e-05 -5.68455e-10 -8.05174e-10 -7.63949e-12 5e-05 1.46608e-10 
234 1 0.235979 0.0179175 0.00709104 0.00553682 -0.000557927 0.000114154 -3.40995e-10 1.87539e-10 -2.68877e-11 5e-05 1.46608e-10 
235 1 0.229673 0.0171825 0.00752648 0.00601436 0.000266552 -0.000511711 -1.0828e-09 7.53239e-11 4.21344e-11 5e-05 1.46608e-10 
236 1 0.229774 0.0176192 0.00730493 0.00564529 0.000445542 -0.000573979 -1.80262e-11 -1.86062e-10 1.26577e-10 5e-05 1.46608e-10 
237 1 0.229793 0.0177069 0.00726054 0.00552033 0.000375626 -0.000532575 2.95614e-11 8.4579e-11 -4.15694e-11 5e-05 1.46608e-10 
239 1 0.223533 0.0166433 0.00786163 0.0059209 0.000421371 0.000102214 -1.83321e-10 -6.18299e-10 5.01881e-10 5e-05 1.46608e-10 
240 1 0.223598 0.0168676 0.00767338 0.00591562 0.000442831 8.6377e-05 1.61656e-10 4.67236e-10 -4.69691e-10 5e-05 1.46608e-10 
241 1 0.223511 0.0165685 0.00792438 0.00597778 0.000601457 -4.80048e-05 6.74917e-11 2.35921e-10 -1.9819e-10 5e-05 1.46608e-10 
242 1 0.229945 0.0171746 0.00751331 0.00625963 0.000651971 -0.000715187 1.35561e-09 -9.93839e-10 4.09605e-10 5e-05 1.46608e-10 
243 1 0.230078 0.0182033 0.00701049 0.00573502 0.000563161 -8.35722e-05 6.28191e-11 -1.73299e-10 -2.07748e-10 5e-05 1.46608e-10 
244 1 0.223555 0.016718 0.00779888 0.00593201 0.000466564 6.49681e-05 -1.74209e-10 -5.92062e-10 5.10974e-10 5e-05 1.46608e-10 
246 1 0.223739 0.0173916 0.00723265 0.00559568 0.000476844 3.74947e-05 1.55494e-10 -1.13553e-11 7.84685e-11 5e-05 1.46608e-10 
247 1 0.229609 0.0169213 0.00765926 0.00596924 0.000234663 -0.000490156 -2.26416e-10 -4.17519e-10 9.01508e-11 5e-05 1.46608e-10 
248 1 0.229925 0.0179091 0.00715307 0.00560363 0.000423697 -0.000553155 -9.79847e-11 1.32386e-10 -1.64862e-10 5e-05 1.46608e-10 
249 1 0.223679 0.0171674 0.00742121 0.00564396 0.000512206 1.40725e-05 1.04767e-10 1.26834e-10 -2.39524e-10 5e-05 1.46608e-10 
250 1 0.229683 0.0168591 0.00768522 0.00592234 0.000157574 -0.000449647 -2.38747e-10 -2.35286e-10 1.52524e-10 5e-05 1.46608e-10 
251 1 0.235976 0.0181201 0.00696402 0.00554871 -0.000564233 0.000117674 -8.00523e-11 4.31921e-11 -1.60245e-11 5e-05 1.46608e-10 
252 1 0.22375 0.0174673 0.00716827 0.00561311 0.000425947 7.60439e-05 -1.12388e-10 -4.3285e-11 9.67886e-11 5e-05 1.46608e-10 
253 1 0.223922 0.0183022 0.00697146 0.00597943 0.000215828 0.000115478 -4.14266e-10 2.71287e-10 3.27478e-12 5e-05 1.46608e-10 
254 1 0.223702 0.0172462 0.0073641 0.00561331 0.000530238 2.26982e-05 -2.20211e-10 -8.49802e-11 -1.98528e-10 5e-05 1.46608e-10 
255 1 0.229253 0.0155632 0.00853831 0.00632342 0.000679828 -0.000393491 7.97178e-11 1.3584e-10 -1.67231e-10 5e-05 1.46608e-10 
256 1 0.230217 0.0184176 0.00693405 0.00574778 0.00061115 -0.000115541 1.02881e-11 4.8715e-11 -1.29609e-11 5e-05 1.46608e-10 
257 1 0.229844 0.0171452 0.00753418 0.00608372 0.000280967 -0.000521285 -3.45087e-10 1.91914e-12 2.00035e-11 5e-05 1.46608e-10 
258 1 0.229906 0.0178214 0.00719699 0.00565315 0.000428214 -0.000565426 3.07033e-10 1.12546e-10 -1.08401e-10 5e-05 1.46608e-10 