ITEM: TIMESTEP
53600000
ITEM: NUMBER OF ATOMS
275
ITEM: BOX BOUNDS ff ff ff
-0.02 0.43
-0.02 0.06
-0.02 0.07
ITEM: ATOMS id type x y z vx vy vz fx fy fz radius mass 
1 1 0.325755 0.0180076 0.00706791 0.00606669 -0.000483808 0.000408534 -1.15995e-12 3.67039e-12 -2.66063e-14 5e-05 1.46608e-10 
2 1 0.325442 0.0169387 0.00752052 0.0055231 -0.000510028 -1.94526e-05 -4.41584e-12 5.93488e-11 -3.78085e-11 5e-05 1.46608e-10 
4 1 0.325586 0.0169026 0.00743575 0.00552438 -0.000527979 -1.68163e-05 -9.05515e-11 1.07572e-11 -1.42824e-11 5e-05 1.46608e-10 
5 1 0.325162 0.0158832 0.00814467 0.0056086 -0.000512483 -6.90869e-05 3.1183e-11 -4.45135e-10 -4.79357e-10 5e-05 1.46608e-10 
6 1 0.331506 0.017373 0.00748871 0.00595682 0.000435203 -0.000866454 -7.85607e-11 3.18757e-11 -7.61411e-12 5e-05 1.46608e-10 
7 1 0.325735 0.0175194 0.00716211 0.00609533 -0.000471518 0.000407819 4.80015e-11 -5.97301e-13 3.71267e-12 5e-05 1.46608e-10 
8 1 0.325453 0.0167162 0.00756907 0.0055058 -0.000498881 -3.50985e-05 8.4589e-11 -4.6893e-12 -1.01022e-11 5e-05 1.46608e-10 
9 1 0.331712 0.0182077 0.00697819 0.00635966 0.000361845 -0.000867446 -3.15309e-10 3.66985e-11 -1.16491e-10 5e-05 1.46608e-10 
10 1 0.325414 0.0165543 0.00767977 0.00549494 -0.000493019 -3.80074e-05 -1.95366e-10 1.39128e-11 1.84273e-12 5e-05 1.46608e-10 
11 1 0.325698 0.017769 0.007193 0.00603004 -0.000471474 0.000383459 3.75378e-11 -3.03457e-11 9.05775e-12 5e-05 1.46608e-10 
12 1 0.319704 0.0170978 0.00756986 0.00596747 0.000324609 -0.000569092 1.09807e-11 -4.97759e-11 8.20348e-11 5e-05 1.46608e-10 
13 1 0.325142 0.0158081 0.0082076 0.00557153 -0.000140022 0.000381292 9.82519e-11 5.81822e-11 -9.1544e-11 5e-05 1.46608e-10 
14 1 0.319635 0.0175225 0.00737508 0.00655698 0.000798063 -0.000480699 8.74684e-11 -5.63902e-10 -1.58625e-11 5e-05 1.46608e-10 
16 1 0.319851 0.0180172 0.00712689 0.0063309 0.000908691 -0.000870123 -4.44914e-12 -1.27198e-11 3.05019e-11 5e-05 1.46608e-10 
17 1 0.32526 0.0162878 0.00786796 0.00543489 -0.000463129 -5.28599e-05 2.36513e-10 3.80453e-11 -5.56359e-11 5e-05 1.46608e-10 
19 1 0.325122 0.0157334 0.00827113 0.00551849 -0.000142082 0.000366248 -2.44666e-10 1.70141e-10 -6.50371e-11 5e-05 1.46608e-10 
21 1 0.32576 0.017737 0.00712094 0.00605192 -0.000463087 0.00040335 6.51408e-11 3.30928e-11 -1.41091e-11 5e-05 1.46608e-10 
22 1 0.325668 0.0167635 0.00752317 0.00552586 -0.000516547 -2.42273e-05 6.28754e-11 -3.35862e-11 1.58351e-11 5e-05 1.46608e-10 
23 1 0.3199 0.017788 0.00723136 0.00634245 0.000910272 -0.000870289 7.04861e-11 3.66596e-11 -1.56763e-11 5e-05 1.46608e-10 
24 1 0.33163 0.0178738 0.0071824 0.00616158 0.000393667 -0.000866652 2.61893e-10 -2.52121e-10 1.08722e-10 5e-05 1.46608e-10 
25 1 0.325394 0.0164734 0.00773512 0.00548142 -0.00050126 -3.15241e-05 -1.16275e-10 1.01595e-10 -6.11067e-11 5e-05 1.46608e-10 
26 1 0.331671 0.0180408 0.0070803 0.00630529 0.000400443 -0.000876181 9.1898e-12 1.88315e-10 -1.62334e-10 5e-05 1.46608e-10 
27 1 0.319491 0.0169669 0.00769207 0.00590768 0.000747051 9.87283e-05 9.56556e-11 -4.74653e-11 -4.51955e-11 5e-05 1.46608e-10 
28 1 0.325418 0.0169376 0.00742363 0.00551815 -0.0005259 -1.87031e-05 1.18241e-11 1.03955e-10 -5.73417e-11 5e-05 1.46608e-10 
29 1 0.325102 0.0156588 0.00833465 0.00552472 -0.000142347 0.000368889 -4.4192e-11 1.42297e-10 -1.53845e-10 5e-05 1.46608e-10 
30 1 0.325339 0.0166116 0.00764656 0.00550084 -0.000488057 -4.18696e-05 -9.64502e-11 -1.07928e-11 1.30234e-11 5e-05 1.46608e-10 
31 1 0.325845 0.017575 0.00715693 0.00605083 -0.000465379 0.000403555 3.06085e-11 -5.01349e-11 1.52178e-11 5e-05 1.46608e-10 
32 1 0.32528 0.0163687 0.00781262 0.00542937 -0.000470331 -4.74137e-05 2.3251e-10 8.80576e-12 -1.81547e-11 5e-05 1.46608e-10 
33 1 0.331527 0.0174564 0.00743766 0.00600547 0.000423138 -0.000864527 9.85068e-11 3.81196e-11 -1.39608e-11 5e-05 1.46608e-10 
34 1 0.325241 0.0162068 0.00792332 0.00546238 -0.00045878 -5.96988e-05 1.66571e-10 -1.88845e-11 -1.14947e-11 5e-05 1.46608e-10 
35 1 0.325692 0.0173274 0.00719729 0.00611074 -0.00047373 0.000408279 -7.74477e-11 4.78357e-12 -1.10195e-11 5e-05 1.46608e-10 
36 1 0.331766 0.0184728 0.00684965 0.00598426 0.000880066 4.83282e-05 -1.22825e-10 6.57473e-11 7.33932e-11 5e-05 1.46608e-10 
37 1 0.325567 0.0168209 0.00749158 0.00551061 -0.000511725 -2.67588e-05 -2.42676e-11 3.2056e-12 -8.70316e-13 5e-05 1.46608e-10 
38 1 0.325649 0.0171489 0.00727695 0.00577875 -0.000537097 8.93092e-05 9.5664e-11 -7.29065e-11 -1.02972e-11 5e-05 1.46608e-10 
39 1 0.33165 0.0179573 0.00713135 0.00623781 0.000404267 -0.000877746 -7.80171e-10 -1.74208e-10 5.46127e-11 5e-05 1.46608e-10 
41 1 0.325202 0.0160449 0.00803403 0.00557737 -0.000482841 -4.73582e-05 4.88202e-11 -3.28894e-11 1.02996e-10 5e-05 1.46608e-10 
42 1 0.32574 0.0171094 0.00728739 0.00584445 -0.000437972 -9.85955e-05 5.55018e-11 3.45372e-14 -6.34066e-11 5e-05 1.46608e-10 
44 1 0.325781 0.0172854 0.00721012 0.00610188 -0.000475556 0.000404356 -2.09528e-10 -5.25095e-11 1.85803e-11 5e-05 1.46608e-10 
45 1 0.331547 0.0175399 0.00738661 0.00601935 0.00041728 -0.000864758 4.1474e-10 -2.84023e-10 1.27241e-10 5e-05 1.46608e-10 
47 1 0.325221 0.0161258 0.00797868 0.00547581 -0.000458551 -5.96171e-05 7.77568e-11 -2.72584e-11 8.1055e-11 5e-05 1.46608e-10 
48 1 0.325583 0.0176477 0.00714281 0.00607579 -0.000489183 0.000411856 2.79173e-11 1.02377e-11 -6.51979e-11 5e-05 1.46608e-10 
49 1 0.331733 0.0182922 0.00692875 0.00629179 0.000505449 -0.000659093 2.38497e-11 2.00923e-11 2.31822e-11 5e-05 1.46608e-10 
50 1 0.325299 0.0164497 0.00775726 0.00547485 -0.000486379 -4.06056e-05 -1.88278e-11 1.35086e-11 -3.2147e-12 5e-05 1.46608e-10 
51 1 0.325836 0.0176727 0.00713745 0.00606147 -0.000473874 0.000405726 -6.75943e-11 2.78274e-11 -7.38562e-12 5e-05 1.46608e-10 
52 1 0.319844 0.0173275 0.00745202 0.00638863 0.000654057 -0.000750575 -4.41169e-11 -7.79462e-11 3.15174e-11 5e-05 1.46608e-10 
53 1 0.331588 0.0177069 0.00728451 0.00615392 0.000422983 -0.000876063 -3.36951e-10 1.90579e-10 -9.97628e-11 5e-05 1.46608e-10 
54 1 0.325745 0.0183604 0.00699863 0.00603899 -0.000486872 0.000407551 -6.23696e-12 -1.39735e-11 1.395e-12 5e-05 1.46608e-10 
55 1 0.319648 0.0172703 0.00749262 0.00608507 0.000347119 -0.00058345 1.81217e-11 6.57464e-11 -3.44582e-11 5e-05 1.46608e-10 
56 1 0.325765 0.0184568 0.0069809 0.00558916 -0.000400796 0.000367531 -1.38819e-13 -2.01539e-11 3.79941e-12 5e-05 1.46608e-10 
57 1 0.331568 0.0176234 0.00733556 0.00605663 0.000429859 -0.000874851 -5.7251e-10 -1.84076e-10 1.21983e-10 5e-05 1.46608e-10 
59 1 0.378022 0.019866 0.005332 -5.01994e-15 -7.41181e-15 7.69802e-14 8.91804e-24 -2.92098e-24 2.06795e-25 5e-05 1.46608e-10 
60 1 0.325804 0.0173815 0.00719256 0.00611149 -0.000452224 0.000403511 8.25078e-12 6.07047e-11 -1.95555e-12 5e-05 1.46608e-10 
61 1 0.325182 0.0159641 0.00808935 0.0056287 -0.000497753 -5.04268e-05 -2.49436e-10 -4.69323e-11 9.38201e-11 5e-05 1.46608e-10 
62 1 0.32567 0.0172374 0.00723534 0.00599769 -0.000493612 0.000296353 7.45651e-11 -2.64677e-11 -8.98943e-12 5e-05 1.46608e-10 
63 1 0.325777 0.0181041 0.00705025 0.00606035 -0.000483728 0.000407959 -8.57763e-12 -1.43831e-11 3.37092e-12 5e-05 1.46608e-10 
64 1 0.331609 0.0177904 0.00723345 0.00617257 0.000396887 -0.000865095 4.83377e-10 2.80245e-10 -1.19623e-10 5e-05 1.46608e-10 
65 1 0.319613 0.017433 0.00741538 0.00613072 0.000715949 0.000186624 3.57396e-11 1.03903e-11 -5.635e-11 5e-05 1.46608e-10 
66 1 0.319959 0.0180463 0.00719878 0.00628077 0.000900298 -0.000858038 1.19554e-11 -3.15383e-11 -1.08806e-10 5e-05 1.46608e-10 
67 1 0.325789 0.017831 0.00710415 0.00608091 -0.000476444 0.000407754 1.09016e-11 3.78782e-11 -1.71821e-11 5e-05 1.46608e-10 
68 1 0.325553 0.0171229 0.00729124 0.00575157 -0.000597523 4.56365e-05 -1.24973e-10 3.17949e-11 -2.30515e-10 5e-05 1.46608e-10 
69 1 0.325886 0.0178633 0.00710286 0.00607834 -0.000474523 0.000407024 2.7801e-13 -3.71747e-11 4.91533e-12 5e-05 1.46608e-10 
70 1 0.331692 0.0181242 0.00702926 0.00631518 0.000383949 -0.000866634 2.25687e-10 3.20129e-10 -2.41335e-10 5e-05 1.46608e-10 
71 1 0.320041 0.0180106 0.00711676 0.00630621 0.000875529 -0.000850915 8.56653e-11 -6.58689e-11 2.26295e-11 5e-05 1.46608e-10 
72 1 0.325841 0.0183931 0.00699722 0.00559584 -0.000395769 0.000366868 -2.59699e-11 -6.09348e-11 1.13716e-11 5e-05 1.46608e-10 
73 1 0.32572 0.0170285 0.00734271 0.00571855 -0.000415878 -0.000102527 2.34282e-12 4.89459e-11 -4.59523e-11 5e-05 1.46608e-10 
74 1 0.325319 0.0165306 0.00770191 0.00548821 -0.0004886 -4.05235e-05 -1.63689e-10 -4.10942e-13 8.84034e-12 5e-05 1.46608e-10 
76 1 0.319519 0.017047 0.00758594 0.00599084 0.000732999 0.000170857 -7.46037e-11 -1.22453e-10 4.96887e-11 5e-05 1.46608e-10 
77 1 0.325434 0.0170268 0.00746787 0.00551422 -0.000544504 -1.615e-05 -1.37879e-11 4.35642e-11 -5.7805e-11 5e-05 1.46608e-10 
78 1 0.319067 0.0156266 0.00856771 0.00620512 0.000662002 -0.00306739 7.61918e-12 1.23097e-11 -1.6389e-11 5e-05 1.46608e-10 
79 1 0.319935 0.0184634 0.00691097 0.00660434 0.000865991 -0.000868165 3.47147e-10 -9.02925e-11 4.17349e-12 5e-05 1.46608e-10 
80 1 0.325537 0.0170186 0.00744336 0.00545462 -0.000562794 1.91893e-05 1.62695e-10 1.50576e-10 -1.36966e-10 5e-05 1.46608e-10 
82 1 0.31981 0.01803 0.00721732 0.006334 0.000910383 -0.000873806 -4.61322e-11 -3.70567e-12 4.07833e-11 5e-05 1.46608e-10 
83 1 0.319755 0.0172065 0.00751522 0.00599755 0.000380859 -0.000598225 6.41624e-11 -6.84019e-11 8.52218e-11 5e-05 1.46608e-10 
84 1 0.331751 0.0183816 0.00688816 0.00609687 0.000753994 -0.000214739 7.10955e-11 9.17328e-11 8.06764e-11 5e-05 1.46608e-10 
85 1 0.319987 0.0182991 0.00698476 0.00593376 0.000854581 -0.000814077 -3.46228e-10 -1.82408e-10 8.05303e-11 5e-05 1.46608e-10 
86 1 0.325759 0.0171906 0.00723196 0.00596728 -0.000532156 -4.32511e-05 2.85153e-11 -1.11838e-10 7.07625e-11 5e-05 1.46608e-10 
87 1 0.325492 0.0168781 0.00745838 0.00551608 -0.000503226 -3.36245e-05 -1.30074e-11 -6.19497e-12 2.38033e-11 5e-05 1.46608e-10 
88 1 0.325682 0.0174829 0.00725315 0.0061218 -0.000473312 0.000417615 -5.9834e-11 2.57615e-13 2.21346e-11 5e-05 1.46608e-10 
89 1 0.325874 0.0181369 0.00704889 0.00606067 -0.000478693 0.000407072 -4.25734e-11 -2.03609e-11 1.66686e-12 5e-05 1.46608e-10 
90 1 0.325811 0.0179271 0.00708652 0.00607386 -0.00047922 0.000407404 2.43172e-11 1.19471e-11 -1.36107e-12 5e-05 1.46608e-10 
91 1 0.319624 0.0170443 0.0075961 0.00593754 0.00073974 0.000160137 -9.03805e-11 1.17704e-12 -3.24953e-11 5e-05 1.46608e-10 
92 1 0.325574 0.0174326 0.00726179 0.00609734 -0.000495816 0.000412739 -8.63906e-11 4.51839e-11 -1.75998e-11 5e-05 1.46608e-10 
93 1 0.325929 0.0175231 0.0071714 0.00603745 -0.0004749 0.000404934 1.18196e-10 -9.00789e-11 2.20052e-11 5e-05 1.46608e-10 
94 1 0.325622 0.0178337 0.00718472 0.00602561 -0.000476897 0.000411825 -1.47732e-11 -5.89898e-11 -1.81173e-11 5e-05 1.46608e-10 
95 1 0.325691 0.0175818 0.00724078 0.00608873 -0.000461973 0.000410583 1.76496e-11 3.96373e-12 -7.57049e-12 5e-05 1.46608e-10 
96 1 0.325497 0.0172624 0.0072015 0.00612191 -0.000576176 -2.45787e-05 -1.9453e-11 3.11909e-11 -3.411e-11 5e-05 1.46608e-10 
97 1 0.31927 0.0159005 0.00811643 0.00570339 0.000756764 0.0001778 1.83707e-10 -1.66445e-10 8.57009e-11 5e-05 1.46608e-10 
98 1 0.325933 0.0176966 0.00713781 0.00606447 -0.000497803 0.00041095 -3.30449e-11 -8.33754e-12 -8.99795e-13 5e-05 1.46608e-10 
99 1 0.319624 0.0178536 0.00723093 0.00627932 0.000902317 -0.000882221 9.45943e-11 2.17666e-10 2.09123e-10 5e-05 1.46608e-10 
100 1 0.325754 0.0176159 0.00714428 0.00604781 -0.000459665 0.000401914 2.95001e-11 -3.42521e-12 6.52857e-12 5e-05 1.46608e-10 
101 1 0.319645 0.0179366 0.00717918 0.00630006 0.000891768 -0.000861539 1.74125e-10 1.96384e-10 -9.21467e-12 5e-05 1.46608e-10 
102 1 0.0643568 0.0187248 0.00531097 4.26078e-15 1.05285e-14 8.29565e-14 -2.61623e-21 1.11284e-21 -1.03398e-23 5e-05 1.46608e-10 
103 1 0.24257 0.0191927 0.00520306 -1.01195e-22 -8.32918e-22 8.29106e-22 0 0 0 5e-05 1.46608e-10 
104 1 0.319955 0.0180595 0.00709971 0.00632157 0.000893241 -0.000860871 1.0738e-10 5.95059e-11 -5.474e-11 5e-05 1.46608e-10 
105 1 0.319263 0.0158288 0.00818574 0.00974777 9.53201e-05 -5.86815e-05 7.01294e-12 -2.01468e-10 7.25611e-11 5e-05 1.46608e-10 
106 1 0.319667 0.0179667 0.00727197 0.00669443 0.00144105 -0.00114378 4.02409e-11 3.92863e-11 1.3883e-10 5e-05 1.46608e-10 
107 1 0.319087 0.0156741 0.0084822 0.00625031 0.000649101 -0.00305948 1.92285e-10 -7.81798e-11 5.83385e-11 5e-05 1.46608e-10 
108 1 0.325916 0.0183292 0.00701356 0.00560233 -0.000390335 0.000366066 6.50392e-12 -2.81999e-11 6.11361e-12 5e-05 1.46608e-10 
109 1 0.325907 0.0179594 0.00708522 0.00607232 -0.000474856 0.000407053 -1.76253e-12 -3.53099e-11 1.57693e-11 5e-05 1.46608e-10 
110 1 0.325553 0.0169123 0.00752963 0.00550901 -0.000511562 -2.4148e-05 -8.48848e-12 -3.50199e-11 2.65506e-11 5e-05 1.46608e-10 
111 1 0.325378 0.0167735 0.00753587 0.00551032 -0.000493789 -3.78585e-05 7.81524e-11 1.26011e-11 -1.04655e-11 5e-05 1.46608e-10 
112 1 0.319243 0.015774 0.00826696 0.00840892 -0.000950843 -0.00108837 1.0136e-10 -1.37154e-10 1.98516e-10 5e-05 1.46608e-10 
113 1 0.319537 0.0174898 0.00738269 0.00608136 0.000664833 0.000207485 9.86424e-12 -2.24649e-11 1.30058e-10 5e-05 1.46608e-10 
114 1 0.31958 0.0176685 0.00730372 0.00612618 0.00062699 0.000241566 1.38538e-10 4.53463e-10 -6.37788e-11 5e-05 1.46608e-10 
115 1 0.325628 0.0170641 0.00732563 0.00563706 -0.000557367 -9.44769e-06 -8.96696e-11 -5.09281e-11 -2.2027e-11 5e-05 1.46608e-10 
116 1 0.325678 0.0176792 0.00712801 0.00606099 -0.000470876 0.000406654 9.44484e-12 4.60672e-11 -3.7618e-11 5e-05 1.46608e-10 
117 1 0.325714 0.0174232 0.00717983 0.00610131 -0.000472577 0.000410242 -3.29358e-11 2.74667e-12 1.35967e-11 5e-05 1.46608e-10 
118 1 0.319688 0.017373 0.00744146 0.00618378 0.000425514 -0.000622719 5.69324e-12 3.90154e-11 -5.54445e-11 5e-05 1.46608e-10 
119 1 0.325896 0.0182329 0.00703129 0.00605248 -0.000477022 0.000406274 -4.0281e-11 -2.95574e-11 3.60074e-12 5e-05 1.46608e-10 
120 1 0.32555 0.0166931 0.00757805 0.0055095 -0.000512869 -2.57823e-05 1.68875e-10 -8.3017e-11 4.64547e-11 5e-05 1.46608e-10 
121 1 0.32568 0.0180724 0.00705143 0.00606071 -0.000487304 0.000409077 -7.54422e-12 -4.42616e-12 4.04606e-12 5e-05 1.46608e-10 
122 1 0.325477 0.0171816 0.0072568 0.00555827 -0.000457207 -6.49381e-05 6.48712e-11 9.5625e-11 -7.87868e-11 5e-05 1.46608e-10 
123 1 0.320064 0.0181071 0.00706975 0.00633807 0.000893681 -0.000862133 -3.11656e-11 6.52482e-11 -2.92998e-11 5e-05 1.46608e-10 
124 1 0.325663 0.0168467 0.00746796 0.00553523 -0.000516452 -2.51637e-05 -8.38552e-12 1.21542e-11 -1.87356e-11 5e-05 1.46608e-10 
125 1 0.325594 0.0172944 0.00719867 0.00611345 -0.000484761 0.000410066 -2.08166e-12 5.02859e-13 -1.21323e-11 5e-05 1.46608e-10 
127 1 0.319281 0.0159813 0.00805853 0.00566749 0.000749179 0.000143235 1.2896e-10 -1.2477e-10 4.72446e-11 5e-05 1.46608e-10 
128 1 0.32553 0.0166121 0.0076334 0.00548406 -0.000510439 -2.5689e-05 -7.93822e-11 -4.56908e-11 3.39288e-11 5e-05 1.46608e-10 
129 1 0.325728 0.0176771 0.00721885 0.00604885 -0.000459368 0.000398127 2.54355e-11 -8.77352e-12 3.27505e-11 5e-05 1.46608e-10 
130 1 0.31968 0.0177009 0.00728894 0.0064268 0.000587231 -0.000622757 -7.70125e-11 4.53327e-11 -1.70515e-10 5e-05 1.46608e-10 
131 1 0.3197 0.0177905 0.00724411 0.00629668 0.00090949 -0.000866936 -2.95902e-11 -1.13807e-10 2.03971e-10 5e-05 1.46608e-10 
132 1 0.325608 0.0169831 0.00738055 0.00556898 -0.000539395 -1.29808e-05 -7.3813e-11 -1.05936e-11 -1.21644e-13 5e-05 1.46608e-10 
133 1 0.325673 0.0178072 0.00710278 0.00603008 -0.000461533 0.000403289 4.2914e-11 3.88685e-12 -1.23722e-11 5e-05 1.46608e-10 
134 1 0.325659 0.0175827 0.00714584 0.00609015 -0.000476051 0.000409067 7.63731e-11 3.16277e-11 -2.19898e-11 5e-05 1.46608e-10 
135 1 0.325865 0.0177671 0.0071205 0.00607952 -0.000480081 0.000408384 -1.26042e-11 1.45158e-11 -6.95616e-12 5e-05 1.46608e-10 
136 1 0.31966 0.0171803 0.00753447 0.00601638 0.000337564 -0.00058769 1.99831e-11 6.83391e-11 1.07773e-10 5e-05 1.46608e-10 
137 1 0.325596 0.017546 0.00724131 0.00610424 -0.000482387 0.000413708 6.21589e-12 3.53891e-11 -1.30914e-11 5e-05 1.46608e-10 
138 1 0.32554 0.0174553 0.00717055 0.0060984 -0.000492873 0.000412127 -1.23777e-11 -8.54552e-12 -2.33091e-11 5e-05 1.46608e-10 
140 1 0.325437 0.0170185 0.00736829 0.0055245 -0.000525676 -1.79041e-05 2.5702e-11 1.01108e-10 -7.16149e-11 5e-05 1.46608e-10 
141 1 0.319495 0.0165216 0.00782684 0.00569679 0.000713763 0.000154249 -1.78174e-10 1.49796e-10 -9.37911e-11 5e-05 1.46608e-10 
142 1 0.319864 0.0176824 0.00728359 0.00656518 0.00122928 -0.00103212 1.18792e-12 -2.09303e-11 1.16929e-12 5e-05 1.46608e-10 
143 1 0.319105 0.0157224 0.00839642 0.0062851 0.000637216 -0.00305148 -8.29294e-12 -5.2668e-11 1.01287e-10 5e-05 1.46608e-10 
144 1 0.319819 0.0175013 0.00737195 0.00715521 0.00142071 -0.0011657 1.04691e-10 -1.8997e-11 -2.56304e-11 5e-05 1.46608e-10 
146 1 0.319159 0.0158678 0.00813776 0.0058151 -0.000266265 -0.00140108 -1.18251e-11 1.0564e-11 -8.18737e-11 5e-05 1.46608e-10 
147 1 0.319657 0.0176115 0.00733239 0.00645715 0.000659395 -0.000545291 -8.25972e-11 -1.2793e-10 -7.04029e-11 5e-05 1.46608e-10 
148 1 0.319513 0.0166115 0.00778681 0.00586776 0.000710284 0.000173593 -3.57323e-10 9.78101e-11 -9.66628e-11 5e-05 1.46608e-10 
149 1 0.325433 0.0166353 0.00762442 0.00549312 -0.000494495 -3.68323e-05 -3.18509e-11 3.17137e-11 -1.79606e-11 5e-05 1.46608e-10 
150 1 0.319791 0.0185865 0.00690706 0.00566167 -0.000623074 -0.000118323 3.1505e-11 7.88652e-11 4.01314e-11 5e-05 1.46608e-10 
151 1 0.319789 0.0181625 0.00706278 0.00634451 0.000912239 -0.000874354 -8.69228e-11 -1.40931e-10 7.87367e-11 5e-05 1.46608e-10 
153 1 0.31953 0.0167014 0.00774673 0.00590931 0.000717753 0.000170792 6.10395e-11 1.86695e-11 -2.42288e-11 5e-05 1.46608e-10 
154 1 0.319141 0.0158195 0.00822352 0.00574473 -0.000246061 -0.0014167 -3.85971e-10 -1.94277e-11 1.65896e-10 5e-05 1.46608e-10 
155 1 0.319179 0.0159452 0.00807776 0.0058223 4.60056e-05 -0.000970651 2.26936e-10 6.64123e-11 -1.17333e-10 5e-05 1.46608e-10 
156 1 0.319477 0.0164316 0.00786696 0.00564858 0.000709051 0.000152354 -1.21351e-11 2.13385e-10 -1.05933e-10 5e-05 1.46608e-10 
157 1 0.0219312 0.0187687 0.00551176 -3.82289e-14 8.17097e-14 2.95889e-13 5.87867e-22 3.92135e-22 -2.58494e-23 5e-05 1.46608e-10 
158 1 0.319579 0.0168789 0.0076688 0.00593563 0.000717442 0.000169416 1.68299e-11 -3.97754e-12 -9.85441e-12 5e-05 1.46608e-10 
159 1 0.325532 0.017042 0.00734629 0.00554376 -0.000571747 1.06661e-05 -1.50404e-11 1.55466e-10 -1.05481e-10 5e-05 1.46608e-10 
160 1 0.319666 0.0180244 0.00713636 0.00632906 0.000880433 -0.000856581 -5.46407e-11 1.13369e-11 2.26498e-11 5e-05 1.46608e-10 
162 1 0.319859 0.0182045 0.00712471 0.00635461 0.000906013 -0.000864347 -9.02413e-11 -1.40897e-10 1.88298e-11 5e-05 1.46608e-10 
164 1 0.319238 0.0162097 0.0079492 0.0055844 0.000732547 0.000136444 -1.25425e-10 1.63935e-11 -5.13496e-12 5e-05 1.46608e-10 
165 1 0.319897 0.0182111 0.00703241 0.00634311 0.000890026 -0.000861762 4.42079e-11 1.72871e-10 -3.5912e-11 5e-05 1.46608e-10 
166 1 0.325562 0.0175501 0.00714716 0.00610089 -0.000494411 0.000413537 8.76091e-12 -5.17487e-12 -1.31019e-11 5e-05 1.46608e-10 
167 1 0.319734 0.0183174 0.00704269 0.00635541 0.000905622 -0.000874068 2.95709e-11 1.47391e-10 2.3476e-10 5e-05 1.46608e-10 
168 1 0.319873 0.0185356 0.00688136 0.00620463 0.00057228 -0.000702744 -2.20973e-10 -5.17823e-10 2.72635e-10 5e-05 1.46608e-10 
169 1 0.319749 0.01838 0.00696327 0.00592227 0.00117639 -0.00096627 1.36851e-12 -1.83026e-12 7.516e-13 5e-05 1.46608e-10 
170 1 0.319839 0.0184202 0.00693802 0.00599398 0.00118165 -0.000977066 -5.52029e-10 3.47759e-10 -1.91186e-10 5e-05 1.46608e-10 
171 1 0.325798 0.0182001 0.00703265 0.00605551 -0.000482051 0.000407419 -1.77981e-11 -1.06477e-13 -8.54686e-13 5e-05 1.46608e-10 
172 1 0.319516 0.0174005 0.00742218 0.00607368 0.000739912 0.000175081 -5.5892e-11 -1.03933e-10 4.74539e-11 5e-05 1.46608e-10 
173 1 0.325852 0.0180409 0.00706649 0.00606601 -0.000479595 0.000407932 -8.80844e-12 -1.96183e-11 4.13343e-12 5e-05 1.46608e-10 
174 1 0.319276 0.016389 0.00786958 0.00560917 0.000781044 0.000115597 4.09237e-11 3.13569e-10 -1.30516e-10 5e-05 1.46608e-10 
176 1 0.319555 0.0173082 0.00754117 0.0060413 0.000742742 0.000168137 5.55168e-11 -2.59251e-11 1.87686e-11 5e-05 1.46608e-10 
177 1 0.319301 0.0160709 0.0080188 0.00565282 0.000763709 0.000129409 2.84817e-10 -1.01171e-10 6.42968e-11 5e-05 1.46608e-10 
178 1 0.319649 0.0178235 0.00732305 0.0065406 0.00124753 -0.000846819 -1.29448e-10 6.64435e-11 3.47688e-10 5e-05 1.46608e-10 
179 1 0.319795 0.0182804 0.00711292 0.00636066 0.000911067 -0.000872314 6.09667e-11 -3.40578e-11 1.18894e-10 5e-05 1.46608e-10 
182 1 0.325702 0.0181684 0.00703383 0.00605484 -0.000486399 0.000408277 3.24876e-12 4.19709e-12 -2.0258e-12 5e-05 1.46608e-10 
183 1 0.319725 0.0180783 0.00719645 0.00632726 0.000903134 -0.000868354 -7.1092e-11 1.73227e-11 3.00969e-11 5e-05 1.46608e-10 
184 1 0.325811 0.0180043 0.00715008 0.00606904 -0.000484112 0.000408457 -5.3379e-12 -1.13306e-11 6.43148e-12 5e-05 1.46608e-10 
185 1 0.319845 0.0175941 0.00732648 0.00691296 0.00113758 -0.00101644 2.04971e-10 -4.76321e-11 -1.57507e-12 5e-05 1.46608e-10 
186 1 0.320048 0.0182261 0.00701486 0.00619667 0.00102122 -0.000911406 5.96841e-12 7.74783e-11 -4.40703e-11 5e-05 1.46608e-10 
187 1 0.325716 0.0178965 0.00708757 0.00607708 -0.000482449 0.000408534 2.66346e-11 2.14913e-11 -1.23053e-11 5e-05 1.46608e-10 
188 1 0.325574 0.0172045 0.00723773 0.00606674 -0.00054348 0.000251508 -7.92209e-11 -2.59593e-11 -2.07483e-10 5e-05 1.46608e-10 
189 1 0.325658 0.0179764 0.00706903 0.0060681 -0.000488945 0.000410164 6.04689e-12 -6.8822e-12 2.12411e-12 5e-05 1.46608e-10 
190 1 0.31374 0.018336 0.00700155 0.00567872 -3.80964e-05 0.00105088 -9.48806e-12 -2.8743e-11 -5.94749e-12 5e-05 1.46608e-10 
191 1 0.325358 0.0166925 0.00759122 0.00550809 -0.00049042 -4.0542e-05 4.72586e-11 3.40925e-11 -2.85035e-11 5e-05 1.46608e-10 
192 1 0.319559 0.0175792 0.0073432 0.0061152 0.000652458 0.000232292 1.31491e-10 3.05665e-11 4.28257e-11 5e-05 1.46608e-10 
193 1 0.32582 0.0182962 0.00701502 0.006045 -0.000482899 0.000407021 -4.38606e-11 -4.55408e-11 6.40522e-12 5e-05 1.46608e-10 
194 1 0.319836 0.0181132 0.00716832 0.00633525 0.000915387 -0.000873395 -3.14794e-11 6.60262e-11 4.96932e-12 5e-05 1.46608e-10 
195 1 0.319769 0.0180715 0.00710701 0.00633166 0.000921264 -0.000873721 -2.32476e-11 -1.77399e-11 2.21583e-11 5e-05 1.46608e-10 
196 1 0.319812 0.0178332 0.00721623 0.00633324 0.000911246 -0.000868886 -4.84319e-11 -1.09116e-10 7.01359e-11 5e-05 1.46608e-10 
197 1 0.313403 0.0168322 0.00738677 0.00569725 9.011e-05 0.000245599 1.45212e-11 9.37638e-11 -3.55112e-12 5e-05 1.46608e-10 
198 1 0.319848 0.0172369 0.00749439 0.00587656 0.000646216 -0.000713408 -1.87053e-11 -9.37463e-11 5.7532e-11 5e-05 1.46608e-10 
199 1 0.319763 0.0181905 0.00715507 0.006331 0.000913748 -0.000878442 6.00464e-11 -4.23358e-11 9.2675e-11 5e-05 1.46608e-10 
200 1 0.31916 0.0157574 0.00832075 0.00719911 0.000186865 -0.00259374 4.42327e-11 -9.6164e-11 1.50443e-10 5e-05 1.46608e-10 
201 1 0.319878 0.0181184 0.0070774 0.0063415 0.000908793 -0.000869749 -5.50569e-11 -8.70178e-11 4.77797e-12 5e-05 1.46608e-10 
202 1 0.319566 0.0169684 0.00762628 0.00596713 0.000725415 0.000171076 7.11742e-11 -7.97667e-12 2.59008e-11 5e-05 1.46608e-10 
203 1 0.325638 0.0174865 0.00716347 0.00612685 -0.000477679 0.000411554 2.23586e-11 -4.18934e-12 -9.91137e-12 5e-05 1.46608e-10 
204 1 0.319921 0.0178758 0.00718854 0.00635815 0.000905409 -0.000869188 6.16681e-11 7.29568e-11 -4.1481e-11 5e-05 1.46608e-10 
205 1 0.319433 0.0167093 0.00776653 0.00592337 0.000737537 0.000162892 8.79264e-12 3.07175e-10 -1.97647e-10 5e-05 1.46608e-10 
206 1 0.319479 0.0168717 0.00766363 0.00594958 0.000719373 0.000173923 2.70073e-11 8.1537e-11 -1.8944e-11 5e-05 1.46608e-10 
207 1 0.319358 0.0163399 0.00789924 0.00561959 0.000801101 0.000108127 -2.40725e-11 9.30494e-11 -3.76871e-11 5e-05 1.46608e-10 
208 1 0.319744 0.0172967 0.00747343 0.00613292 0.000394037 -0.000611222 -1.10626e-10 1.63655e-12 1.39752e-10 5e-05 1.46608e-10 
209 1 0.319591 0.0173437 0.00745487 0.00606396 0.000727132 0.000177355 3.82322e-11 4.14353e-11 -2.12373e-11 5e-05 1.46608e-10 
210 1 0.325472 0.0167972 0.00751373 0.00551257 -0.000500972 -3.357e-05 3.80745e-11 4.64935e-12 -1.55817e-12 5e-05 1.46608e-10 
211 1 0.325397 0.0168544 0.00748052 0.00551624 -0.000496371 -3.6993e-05 -3.81452e-12 4.33117e-12 -2.71473e-14 5e-05 1.46608e-10 
212 1 0.319981 0.0181603 0.00705043 0.00633689 0.000889915 -0.000861337 -4.20853e-12 1.37329e-10 -6.66063e-11 5e-05 1.46608e-10 
213 1 0.325647 0.0179258 0.00715452 0.00606919 -0.000484467 0.000415599 -1.18594e-11 -4.93438e-11 -1.78083e-12 5e-05 1.46608e-10 
214 1 0.325513 0.0171944 0.00734895 0.00612983 -6.96957e-05 -0.000347125 8.35278e-11 -4.0614e-11 -2.94007e-11 5e-05 1.46608e-10 
215 1 0.313635 0.0178601 0.00707205 0.00621264 -0.000121836 -0.000103864 -9.31167e-12 -2.09198e-11 1.02669e-11 5e-05 1.46608e-10 
216 1 0.31934 0.0162502 0.00793915 0.0056538 0.00078712 0.000117394 -1.11602e-10 1.19809e-10 -7.20468e-11 5e-05 1.46608e-10 
217 1 0.325724 0.0182644 0.00701623 0.00604688 -0.000486493 0.000407962 -8.88671e-12 -7.92173e-12 2.18563e-12 5e-05 1.46608e-10 
218 1 0.319601 0.0177578 0.00726423 0.00612103 0.000587084 0.000249865 3.26668e-10 6.04863e-10 -3.70097e-10 5e-05 1.46608e-10 
219 1 0.325649 0.0166824 0.00757857 0.00551784 -0.000517366 -2.33742e-05 2.96808e-10 -1.16999e-10 5.83075e-11 5e-05 1.46608e-10 
220 1 0.319728 0.0178844 0.00719798 0.00630753 0.000894299 -0.000858798 -4.55586e-11 -1.13383e-10 7.53206e-11 5e-05 1.46608e-10 
222 1 0.325825 0.0174784 0.00717476 0.00609358 -0.000461862 0.000405811 8.44077e-12 -7.53652e-11 1.69813e-11 5e-05 1.46608e-10 
224 1 0.319402 0.0169261 0.00763185 0.00594838 0.000708813 0.000179891 3.10343e-11 5.61086e-11 -2.02168e-12 5e-05 1.46608e-10 
225 1 0.325421 0.0168546 0.00757764 0.00552664 -0.000482708 -3.92167e-05 -1.7079e-11 -1.12484e-10 4.14083e-11 5e-05 1.46608e-10 
226 1 0.319754 0.0178633 0.00729218 0.00648221 0.00078496 -0.000932444 -9.53385e-12 -3.52762e-11 8.82999e-11 5e-05 1.46608e-10 
227 1 0.313657 0.0179535 0.00704381 0.00621527 -0.000121907 -0.000103865 2.34945e-11 -4.50101e-12 -5.15573e-12 5e-05 1.46608e-10 
228 1 0.313592 0.0176733 0.00712855 0.00620065 -0.000124151 -0.000103106 3.12736e-11 -2.46625e-11 3.73513e-12 5e-05 1.46608e-10 
229 1 0.319927 0.0183735 0.00695387 0.00603433 0.000926498 -0.000848215 2.24354e-10 8.93416e-11 -6.32157e-11 5e-05 1.46608e-10 
230 1 0.3194 0.0169205 0.00773168 0.00596561 0.000706776 0.000184848 7.02524e-11 -1.28574e-10 -2.10537e-11 5e-05 1.46608e-10 
232 1 0.319848 0.0183524 0.00701101 0.00581985 0.00112017 -0.00102457 6.20728e-11 2.24822e-10 -5.1917e-10 5e-05 1.46608e-10 
233 1 0.319713 0.0182256 0.00707591 0.00634344 0.000906141 -0.000882227 -1.00951e-11 -4.2035e-11 7.26084e-11 5e-05 1.46608e-10 
234 1 0.325842 0.0178368 0.00718882 0.00608025 -0.000470494 0.000408387 -2.7531e-11 -1.05388e-10 -1.29366e-11 5e-05 1.46608e-10 
235 1 0.319359 0.0167475 0.00771083 0.00591783 0.000735075 0.000164368 1.41957e-10 5.59216e-10 -2.31817e-10 5e-05 1.46608e-10 
236 1 0.319478 0.0171791 0.00761113 0.00601226 0.000754549 0.000152627 -5.87321e-11 -1.30393e-10 4.90188e-11 5e-05 1.46608e-10 
237 1 0.319476 0.0172447 0.00753569 0.0059851 0.000760858 0.000161929 4.60481e-11 3.17057e-11 1.11844e-11 5e-05 1.46608e-10 
239 1 0.313309 0.0165215 0.00776694 0.00550594 9.96171e-05 0.000206757 3.81206e-10 9.59189e-11 1.29231e-11 5e-05 1.46608e-10 
240 1 0.313368 0.0167076 0.00753939 0.0056226 9.9034e-05 0.000222815 3.40911e-10 1.192e-10 -5.34242e-11 5e-05 1.46608e-10 
241 1 0.31329 0.0164593 0.00784299 0.00548446 0.000110079 0.000199825 -9.16659e-11 6.93405e-11 -3.32711e-11 5e-05 1.46608e-10 
242 1 0.319816 0.0171336 0.00754522 0.0059054 0.000317486 -0.000562221 1.47415e-10 -1.19942e-10 2.07544e-11 5e-05 1.46608e-10 
243 1 0.31978 0.0177338 0.00726522 0.00639454 0.00100538 -0.00092128 -5.9257e-11 -6.08701e-11 4.09573e-11 5e-05 1.46608e-10 
244 1 0.313328 0.0165836 0.00769089 0.00552726 0.000104644 0.000201416 -1.82841e-10 -1.48987e-10 -6.26e-11 5e-05 1.46608e-10 
246 1 0.313505 0.0172995 0.00724153 0.00618338 -0.000125138 -0.000101344 -4.74689e-11 -9.68415e-11 3.99388e-11 5e-05 1.46608e-10 
247 1 0.319296 0.0164788 0.00782971 0.00561088 0.000838817 8.79185e-05 -1.0781e-10 -4.6412e-11 2.72113e-11 5e-05 1.46608e-10 
248 1 0.319588 0.0175182 0.0074637 0.00686582 0.000867209 -0.000290699 -3.05479e-10 -1.98977e-10 -3.21999e-10 5e-05 1.46608e-10 
249 1 0.313442 0.0170189 0.007327 0.00597123 -6.01704e-05 -4.07559e-05 -1.79738e-10 -3.79169e-11 -5.10701e-11 5e-05 1.46608e-10 
250 1 0.319395 0.0165245 0.007833 0.00567015 0.000788811 8.60944e-05 -3.04354e-10 1.77659e-10 -1.15932e-10 5e-05 1.46608e-10 
251 1 0.325616 0.0173904 0.00718107 0.00610709 -0.000480108 0.000410213 -2.53141e-11 8.11167e-12 -2.48096e-12 5e-05 1.46608e-10 
252 1 0.313527 0.017393 0.00721329 0.00619354 -0.000121168 -0.000103563 -4.33188e-11 -5.37942e-11 3.04448e-11 5e-05 1.46608e-10 
253 1 0.313719 0.0182387 0.00699068 0.00568175 -4.09616e-05 0.00105168 -1.25925e-11 4.85984e-12 -1.32541e-11 5e-05 1.46608e-10 
254 1 0.313462 0.0171125 0.00729806 0.00612481 -0.000113833 -0.000100855 1.7822e-10 -1.34396e-10 5.53217e-11 5e-05 1.46608e-10 
255 1 0.319525 0.016873 0.00775264 0.00595064 0.000718657 0.000171035 1.66236e-10 -6.85873e-12 -2.90776e-11 5e-05 1.46608e-10 
256 1 0.319934 0.0179652 0.00714558 0.0063408 0.000908071 -0.000869963 3.27475e-11 6.92875e-11 -3.79832e-11 5e-05 1.46608e-10 
257 1 0.319558 0.0167895 0.00770827 0.00591492 0.000719378 0.000170303 1.55522e-10 1.54268e-11 8.98423e-12 5e-05 1.46608e-10 
258 1 0.319567 0.0174273 0.00750397 0.00608969 0.000733435 0.00017066 1.22498e-11 -2.08285e-11 -4.02463e-11 5e-05 1.46608e-10 