ITEM: TIMESTEP
55400000
ITEM: NUMBER OF ATOMS
275
ITEM: BOX BOUNDS ff ff ff
-0.02 0.43
-0.02 0.06
-0.02 0.07
ITEM: ATOMS id type x y z vx vy vz fx fy fz radius mass 
1 1 0.336342 0.0183631 0.00698742 0.00620788 -5.10593e-05 0.000147187 2.55531e-10 5.80171e-12 1.33221e-10 5e-05 1.46608e-10 
2 1 0.336077 0.0175699 0.00742272 0.0059181 -0.0001383 -1.25235e-05 -4.31557e-11 -5.42058e-11 3.49461e-11 5e-05 1.46608e-10 
4 1 0.336181 0.0173676 0.00741549 0.005868 -0.00016321 -9.7025e-07 -3.95067e-13 -9.73795e-12 -7.73596e-12 5e-05 1.46608e-10 
5 1 0.335725 0.016142 0.00794153 0.00566035 -7.45336e-05 -3.62209e-05 6.2788e-12 -2.9763e-12 -2.27764e-12 5e-05 1.46608e-10 
6 1 0.341807 0.0164982 0.00774154 0.00528373 -0.00116019 8.29221e-05 -2.90532e-12 -8.74388e-12 1.45e-11 5e-05 1.46608e-10 
7 1 0.336334 0.0179996 0.00714523 0.00605203 -0.000130909 3.71996e-06 -1.0713e-11 -3.18084e-11 -2.46047e-10 5e-05 1.46608e-10 
8 1 0.336022 0.0170704 0.00754364 0.00578391 -0.000123774 -1.68229e-05 -4.88543e-12 -2.47803e-11 1.3689e-11 5e-05 1.46608e-10 
9 1 0.342 0.017326 0.00728171 0.00599142 -0.000455802 -0.000580291 1.1638e-11 -1.23285e-11 -6.55975e-12 5e-05 1.46608e-10 
10 1 0.335979 0.0168907 0.00762046 0.00573255 -0.000108941 -2.23825e-05 5.0088e-12 9.52184e-12 -2.66266e-12 5e-05 1.46608e-10 
11 1 0.336341 0.0185602 0.00699706 0.00587115 -2.44475e-05 0.000108411 -4.23241e-11 9.0462e-11 6.63235e-11 5e-05 1.46608e-10 
12 1 0.330234 0.0172516 0.00755 0.00601332 0.00096902 0.000141357 -1.99354e-10 8.17512e-11 -9.92112e-11 5e-05 1.46608e-10 
13 1 0.335705 0.0160519 0.00798004 0.00567523 -7.63717e-05 -3.56699e-05 5.70963e-12 -6.40914e-12 4.12494e-12 5e-05 1.46608e-10 
14 1 0.330126 0.0175095 0.00734718 0.00621894 0.00100048 0.000148804 -4.12981e-10 6.80664e-12 -4.50482e-11 5e-05 1.46608e-10 
16 1 0.330346 0.0180252 0.00700325 0.00635374 0.00102666 0.000137328 3.77128e-09 8.04261e-10 -4.38677e-10 5e-05 1.46608e-10 
17 1 0.335822 0.016593 0.00774881 0.00546967 -3.75588e-05 -4.98211e-05 -2.8253e-11 -1.45264e-11 7.29516e-12 5e-05 1.46608e-10 
19 1 0.335685 0.0159618 0.00801856 0.00568855 -7.67407e-05 -3.46266e-05 5.79934e-12 -9.26659e-12 4.27722e-12 5e-05 1.46608e-10 
21 1 0.336289 0.0181616 0.00707694 0.00611586 -0.000153437 -1.19837e-05 1.04732e-12 5.55504e-11 -1.68901e-10 5e-05 1.46608e-10 
22 1 0.336277 0.0173953 0.00740256 0.00587684 -0.000195771 1.26126e-05 8.12168e-11 -1.85423e-11 -9.94634e-12 5e-05 1.46608e-10 
23 1 0.3304 0.0178985 0.00710289 0.00623347 0.00145387 -0.000179848 -6.95705e-10 5.47102e-10 -4.9126e-10 5e-05 1.46608e-10 
24 1 0.34192 0.0169577 0.00740309 0.00554321 -1.07256e-05 0.000863287 -3.18461e-12 -1.57971e-11 8.21407e-12 5e-05 1.46608e-10 
25 1 0.335958 0.0168009 0.00765887 0.00570961 -0.000106271 -2.31733e-05 6.1599e-11 -3.40691e-11 1.50235e-11 5e-05 1.46608e-10 
26 1 0.34196 0.0171335 0.00731621 0.00553551 -1.07937e-05 0.000862093 1.14959e-12 -1.21349e-11 4.94758e-12 5e-05 1.46608e-10 
27 1 0.330004 0.0170263 0.00768149 0.00590462 0.00101581 9.22466e-05 -5.95044e-12 -6.47698e-11 3.58684e-11 5e-05 1.46608e-10 
28 1 0.335991 0.0173121 0.00744134 0.00584892 -0.000116597 -2.05499e-05 -1.52552e-10 -9.9678e-13 -4.47629e-13 5e-05 1.46608e-10 
29 1 0.335666 0.0158948 0.00809028 0.00566469 6.28883e-05 8.70558e-05 -1.66462e-11 -1.0385e-11 8.30236e-12 5e-05 1.46608e-10 
30 1 0.335905 0.0169528 0.00759499 0.00575577 -9.74542e-05 -2.78477e-05 1.82276e-10 4.98256e-11 -3.23901e-11 5e-05 1.46608e-10 
31 1 0.336429 0.0181498 0.00708028 0.0060528 -7.23312e-05 -4.64319e-05 -1.3479e-10 7.27257e-11 -1.94325e-11 5e-05 1.46608e-10 
32 1 0.335842 0.0166831 0.0077103 0.00553288 -5.07214e-05 -4.48198e-05 7.81791e-12 -1.48486e-11 5.69725e-12 5e-05 1.46608e-10 
33 1 0.341825 0.0165526 0.00765947 0.00543623 -0.000415045 0.00061054 -9.56763e-12 -8.95444e-12 1.4906e-11 5e-05 1.46608e-10 
34 1 0.335803 0.0165028 0.00778736 0.00546758 -3.75526e-05 -4.96427e-05 5.65267e-11 -2.84105e-12 -1.49245e-12 5e-05 1.46608e-10 
35 1 0.33629 0.017819 0.00722244 0.00598263 -0.000196978 1.15584e-05 -1.33147e-11 -6.97171e-11 6.57395e-11 5e-05 1.46608e-10 
36 1 0.342065 0.0176167 0.00724641 0.00596567 -0.000450352 -0.000578284 -8.99402e-13 -6.82451e-12 -5.00495e-14 5e-05 1.46608e-10 
37 1 0.33616 0.0172778 0.0074539 0.00584654 -0.000156424 -3.35068e-06 4.61056e-11 -4.01405e-11 7.98803e-12 5e-05 1.46608e-10 
38 1 0.336246 0.0176376 0.00730003 0.00590894 -0.000200997 1.33748e-05 1.92461e-11 -3.66788e-11 1.97456e-12 5e-05 1.46608e-10 
39 1 0.34194 0.0170456 0.00735965 0.00553928 -1.07764e-05 0.000862695 -3.52379e-12 -1.3197e-11 7.12676e-12 5e-05 1.46608e-10 
41 1 0.335764 0.0163224 0.00786444 0.00547637 -4.01074e-05 -4.86381e-05 2.88301e-13 -6.89622e-12 6.0752e-12 5e-05 1.46608e-10 
42 1 0.336341 0.0176652 0.00728718 0.00591555 -0.000225105 2.52471e-05 1.98149e-11 -6.33758e-11 4.20721e-12 5e-05 1.46608e-10 
44 1 0.336387 0.0178486 0.00720873 0.0059845 -0.00020746 1.48009e-05 -1.55418e-10 1.24012e-10 2.68559e-11 5e-05 1.46608e-10 
45 1 0.341842 0.0166062 0.00757683 0.00551292 -3.82489e-05 0.000872348 -4.0616e-12 -1.82441e-11 1.0494e-11 5e-05 1.46608e-10 
47 1 0.335783 0.0164126 0.00782589 0.00546575 -3.80173e-05 -4.93718e-05 1.6269e-11 2.96755e-12 -4.09728e-13 5e-05 1.46608e-10 
48 1 0.336161 0.0180306 0.00713371 0.00606057 -8.19179e-05 0.000154845 -1.60828e-10 7.19154e-11 -1.89881e-11 5e-05 1.46608e-10 
49 1 0.342022 0.0174229 0.00726994 0.00598277 -0.000453908 -0.000579645 -3.75137e-12 -1.0531e-11 2.37992e-12 5e-05 1.46608e-10 
50 1 0.335863 0.0167731 0.00767182 0.0056577 -7.4787e-05 -3.59712e-05 -1.04019e-10 5.71511e-11 -2.55407e-11 5e-05 1.46608e-10 
51 1 0.336533 0.0183627 0.0069886 0.00594546 0.000155907 -0.000133388 -3.11447e-11 -3.08809e-11 -4.43855e-12 5e-05 1.46608e-10 
52 1 0.330481 0.0178571 0.00714437 0.00646261 0.0015822 -0.0002412 -6.91956e-10 5.38458e-10 -4.88325e-10 5e-05 1.46608e-10 
53 1 0.341881 0.0167819 0.00748997 0.00555093 -1.11053e-05 0.000864658 -2.07806e-12 -1.97881e-11 1.1121e-11 5e-05 1.46608e-10 
54 1 0.336307 0.0186641 0.00695496 0.0058109 -4.53377e-05 0.000134994 -7.30338e-11 3.011e-11 -1.74588e-11 5e-05 1.46608e-10 
55 1 0.33016 0.0173 0.00750435 0.00605986 0.000997174 0.000126244 5.04654e-12 1.77745e-10 -1.31827e-10 5e-05 1.46608e-10 
56 1 0.336299 0.018653 0.0068559 0.00580404 -3.81362e-05 0.000132201 1.11444e-11 1.06651e-11 -8.62761e-12 5e-05 1.46608e-10 
57 1 0.341864 0.0166937 0.007534 0.00494369 4.34419e-05 0.000741918 1.28722e-10 -3.56595e-11 3.89142e-11 5e-05 1.46608e-10 
59 1 0.378022 0.019866 0.005332 -5.0195e-15 -7.41202e-15 7.69802e-14 -1.84823e-24 3.25702e-24 2.06795e-25 5e-05 1.46608e-10 
60 1 0.336409 0.0179393 0.00716992 0.00601302 -0.0001851 2.75782e-07 -7.1446e-10 5.93048e-10 -9.32474e-11 5e-05 1.46608e-10 
61 1 0.335745 0.0162322 0.00790299 0.00549684 -4.39664e-05 -4.72539e-05 4.3485e-11 -1.55165e-11 6.37888e-12 5e-05 1.46608e-10 
62 1 0.336267 0.0177277 0.0072615 0.00595094 -0.000194872 8.92185e-06 -4.12901e-11 -6.5751e-11 3.90319e-11 5e-05 1.46608e-10 
63 1 0.336361 0.0184527 0.0069474 0.00584527 4.69566e-05 9.78407e-05 -1.31075e-10 -1.79491e-11 -1.55837e-11 5e-05 1.46608e-10 
64 1 0.341901 0.0168698 0.00744653 0.00554721 -1.07474e-05 0.000863946 -7.15068e-12 -1.90126e-11 7.76961e-12 5e-05 1.46608e-10 
65 1 0.330105 0.017429 0.0074029 0.00615314 0.00101396 0.000128576 -2.30772e-10 7.13082e-11 -9.37601e-11 5e-05 1.46608e-10 
66 1 0.330449 0.0182207 0.00702706 0.00575327 0.00133802 -0.000497472 -1.3744e-10 -7.59179e-11 -1.97463e-10 5e-05 1.46608e-10 
67 1 0.336434 0.0183286 0.00700425 0.00627497 -1.66459e-05 -7.39357e-05 4.09649e-10 6.87585e-11 -8.27622e-11 5e-05 1.46608e-10 
68 1 0.336129 0.0175197 0.00735151 0.00590998 -0.000155617 -3.5594e-06 -2.77579e-11 -1.16163e-12 2.2073e-11 5e-05 1.46608e-10 
69 1 0.336558 0.0186542 0.00686047 0.0059464 0.000327007 -2.96517e-05 1.47493e-11 -1.27725e-10 5.97418e-11 5e-05 1.46608e-10 
70 1 0.34198 0.0172287 0.00729333 0.00599337 -0.00045574 -0.000580676 -1.30153e-11 -1.576e-11 4.52617e-12 5e-05 1.46608e-10 
71 1 0.330461 0.0181524 0.00695497 0.00590637 0.00142271 -0.00054767 -3.56291e-10 -1.14701e-10 -5.17809e-11 5e-05 1.46608e-10 
72 1 0.336411 0.0187818 0.00683008 0.00574549 9.29127e-05 -6.94785e-05 4.0016e-11 5.55211e-11 -6.05701e-12 5e-05 1.46608e-10 
73 1 0.33632 0.0175751 0.00732568 0.00587628 -0.000227095 2.68225e-05 2.98796e-11 -2.17472e-11 6.40885e-12 5e-05 1.46608e-10 
74 1 0.335884 0.016863 0.0076334 0.00573291 -8.68883e-05 -3.20799e-05 -8.16229e-11 6.19322e-11 -2.72488e-11 5e-05 1.46608e-10 
76 1 0.330025 0.0171068 0.00762577 0.0059706 0.00101454 0.000101508 1.09168e-11 2.07566e-11 1.04614e-12 5e-05 1.46608e-10 
77 1 0.336104 0.017666 0.00738352 0.00594035 -0.000146622 -3.67882e-06 4.79711e-11 8.82647e-11 1.46823e-11 5e-05 1.46608e-10 
78 1 0.329571 0.0157065 0.00858013 0.00600221 0.000779682 0.000277589 4.88929e-11 2.0056e-10 -1.3893e-10 5e-05 1.46608e-10 
79 1 0.330298 0.0186436 0.00688597 0.00595928 0.000874241 -0.000468586 2.23707e-10 8.4452e-10 -1.56313e-10 5e-05 1.46608e-10 
80 1 0.336086 0.0173399 0.0074284 0.00586551 -0.000144472 -9.89822e-06 -2.92947e-11 -5.17987e-11 2.59544e-11 5e-05 1.46608e-10 
82 1 0.330359 0.0180218 0.00711061 0.00592703 0.0013383 -0.000168111 -3.55958e-10 -1.18854e-10 -2.12961e-10 5e-05 1.46608e-10 
83 1 0.330255 0.0173322 0.00749427 0.00606706 0.000932464 0.00017583 -3.92297e-10 2.876e-10 -2.68403e-10 5e-05 1.46608e-10 
84 1 0.342043 0.0175198 0.00725817 0.00597409 -0.000452147 -0.000579119 -1.19843e-12 -7.08043e-12 2.67007e-12 5e-05 1.46608e-10 
85 1 0.33041 0.0183195 0.0069313 0.00556526 0.00141702 -0.000534791 -5.22586e-10 -6.05399e-12 2.72534e-11 5e-05 1.46608e-10 
86 1 0.336365 0.0177575 0.00724768 0.005942 -0.000234384 2.65377e-05 2.92992e-11 -1.71663e-11 2.17254e-11 5e-05 1.46608e-10 
87 1 0.336065 0.0172501 0.00746681 0.0058392 -0.000135053 -1.26575e-05 1.38011e-10 -2.1912e-11 6.3995e-12 5e-05 1.46608e-10 
88 1 0.336275 0.0180421 0.00721749 0.00631112 -0.000184735 -0.000235418 -1.50417e-10 6.85379e-11 -9.59487e-10 5e-05 1.46608e-10 
89 1 0.336477 0.0187069 0.00683509 0.00586586 0.000211175 2.27247e-05 4.6019e-11 6.16403e-12 -1.83934e-11 5e-05 1.46608e-10 
90 1 0.336454 0.0184184 0.00696469 0.0058845 0.000142002 5.27519e-05 -1.02812e-10 -3.75724e-11 -1.10843e-11 5e-05 1.46608e-10 
91 1 0.330119 0.0171389 0.0076158 0.00599464 0.000977078 0.000132991 9.04302e-11 1.21876e-11 -1.61343e-12 5e-05 1.46608e-10 
92 1 0.336176 0.0179477 0.0072653 0.00601808 -0.000162296 6.37937e-07 -3.97977e-11 3.20873e-11 -1.11632e-10 5e-05 1.46608e-10 
93 1 0.336543 0.0184591 0.00694751 0.00592687 1.44401e-05 -8.58716e-05 -2.42782e-10 2.16589e-11 4.48568e-11 5e-05 1.46608e-10 
94 1 0.336262 0.0182876 0.00710665 0.00613848 -0.000119329 0.000161331 -1.03291e-10 5.86675e-11 5.63851e-11 5e-05 1.46608e-10 
95 1 0.336292 0.0181401 0.00717454 0.00643785 -0.000390304 -6.0091e-05 1.67973e-10 -9.54045e-11 -1.60053e-10 5e-05 1.46608e-10 
96 1 0.336076 0.0176715 0.00728769 0.00595675 -0.00014033 -1.15201e-05 -1.43057e-10 -1.16236e-11 5.14505e-11 5e-05 1.46608e-10 
97 1 0.329747 0.0160606 0.00834741 0.00763359 0.000869503 0.000450762 -7.00073e-10 6.07932e-10 -5.48548e-10 5e-05 1.46608e-10 
98 1 0.336601 0.0185723 0.00689823 0.0058715 0.000298042 -1.79609e-05 1.78304e-10 8.86907e-12 -3.47796e-12 5e-05 1.46608e-10 
99 1 0.330111 0.0177971 0.00713599 0.00635263 0.000942547 0.000204218 -9.77682e-11 -2.43181e-10 -1.20408e-10 5e-05 1.46608e-10 
100 1 0.336353 0.0180908 0.00710653 0.00611135 -0.000282089 -0.000378485 -1.40616e-10 1.11368e-10 -5.20888e-10 5e-05 1.46608e-10 
101 1 0.330131 0.0178777 0.00708023 0.00642947 0.000904467 0.000280561 -1.95392e-10 1.90393e-10 -5.1409e-10 5e-05 1.46608e-10 
102 1 0.0643568 0.0187248 0.00531097 4.56012e-15 1.04426e-14 8.29521e-14 -7.03969e-22 3.93557e-22 -1.92319e-23 5e-05 1.46608e-10 
103 1 0.24257 0.0191927 0.00520306 -1.3037e-23 4.86658e-23 -5.81428e-22 0 0 0 5e-05 1.46608e-10 
104 1 0.330367 0.0181225 0.00696582 0.00570266 0.00156915 -0.00180383 -4.52258e-10 7.3825e-10 -1.0096e-09 5e-05 1.46608e-10 
105 1 0.329726 0.0159801 0.00840292 0.00573041 0.000927829 0.000133099 4.04186e-11 -6.21115e-10 4.97314e-10 5e-05 1.46608e-10 
106 1 0.330172 0.017939 0.00714757 0.0064585 0.00103336 0.000225222 3.18718e-11 7.57742e-10 -3.10357e-10 5e-05 1.46608e-10 
107 1 0.329591 0.0157871 0.0085243 0.00599504 0.000954796 0.000149251 4.43349e-11 1.8348e-10 -1.27123e-10 5e-05 1.46608e-10 
108 1 0.336317 0.0187465 0.00682591 0.00583324 -0.000122806 -0.000103801 1.53272e-11 4.80791e-11 5.87187e-12 5e-05 1.46608e-10 
109 1 0.336568 0.018746 0.00682215 0.00580156 0.000348412 -3.79876e-05 -1.00952e-10 -1.4238e-11 1.2502e-11 5e-05 1.46608e-10 
110 1 0.336247 0.0178251 0.00731241 0.00597197 -0.000174175 -1.0287e-06 -1.75471e-12 -3.34509e-11 8.64597e-11 5e-05 1.46608e-10 
111 1 0.335948 0.0171325 0.00751817 0.00581092 -0.000104911 -2.48387e-05 -1.01844e-10 -7.17448e-11 3.64514e-11 5e-05 1.46608e-10 
112 1 0.329959 0.0164944 0.00806182 0.00459034 0.00103878 -0.000110217 -5.75732e-10 -2.15462e-10 7.88258e-11 5e-05 1.46608e-10 
113 1 0.330031 0.0174772 0.00735729 0.00617092 0.0010277 0.000120565 -1.78696e-10 -7.05813e-11 -4.58801e-11 5e-05 1.46608e-10 
114 1 0.330071 0.0176383 0.00724585 0.00629737 0.00104537 0.000137476 -8.20033e-11 4.45841e-11 -1.68692e-10 5e-05 1.46608e-10 
115 1 0.336224 0.0175476 0.00733853 0.00592294 -0.0001739 1.89019e-06 1.05913e-10 -2.88476e-11 -8.58647e-13 5e-05 1.46608e-10 
116 1 0.336258 0.01806 0.00712069 0.00611186 -0.000120413 -0.000155775 -2.99177e-11 -3.34333e-11 -5.88837e-10 5e-05 1.46608e-10 
117 1 0.336312 0.0179097 0.00718364 0.00602582 -0.000159536 9.61864e-06 1.54495e-10 1.79888e-11 2.62823e-11 5e-05 1.46608e-10 
118 1 0.3302 0.017461 0.00739291 0.00618584 0.000949483 0.000180163 -4.77103e-10 1.05709e-10 -1.35827e-10 5e-05 1.46608e-10 
119 1 0.336502 0.0188235 0.00683529 0.00563363 0.000327255 -3.07353e-05 6.2736e-11 4.03833e-11 4.49024e-13 5e-05 1.46608e-10 
120 1 0.336139 0.0171879 0.00749234 0.00581995 -0.000152415 -5.01682e-06 4.28949e-12 1.42562e-11 -6.39815e-12 5e-05 1.46608e-10 
121 1 0.336246 0.0183876 0.00697448 0.00618056 -9.88039e-05 0.000165714 9.79402e-11 4.50475e-11 9.832e-12 5e-05 1.46608e-10 
122 1 0.336054 0.0175816 0.0073261 0.00591965 -0.0001411 -1.00134e-05 -1.02693e-10 -1.74726e-10 3.41229e-11 5e-05 1.46608e-10 
123 1 0.330483 0.0182516 0.00693803 0.00560869 0.00141022 -0.000526688 -4.81439e-10 1.76425e-10 -7.85582e-11 5e-05 1.46608e-10 
124 1 0.336298 0.0174853 0.00736409 0.0059089 -0.000185533 8.68676e-06 4.51768e-11 -5.47416e-11 2.12735e-11 5e-05 1.46608e-10 
125 1 0.336172 0.0176996 0.0072746 0.00594931 -0.000169823 -1.55108e-06 -2.33768e-11 -3.47119e-11 3.15219e-11 5e-05 1.46608e-10 
127 1 0.329772 0.0161406 0.0082928 0.00660663 0.000834198 0.000323441 1.11997e-09 -4.26866e-10 4.9124e-10 5e-05 1.46608e-10 
128 1 0.336117 0.0170981 0.00753075 0.0057942 -0.000148554 -6.42674e-06 2.92195e-11 3.88174e-11 -1.90793e-11 5e-05 1.46608e-10 
129 1 0.336413 0.0182451 0.00705465 0.00626311 -5.9544e-05 -0.00014348 2.37783e-11 -4.16575e-12 -2.07155e-10 5e-05 1.46608e-10 
130 1 0.330168 0.0176703 0.00723625 0.00628142 0.000942548 0.00018873 2.71395e-10 -1.27401e-10 1.6931e-10 5e-05 1.46608e-10 
131 1 0.330188 0.017751 0.00718036 0.00635938 0.000940304 0.000206427 5.52587e-11 -3.70894e-10 -4.07727e-12 5e-05 1.46608e-10 
132 1 0.336203 0.0174577 0.00737695 0.00589844 -0.00017295 2.13889e-06 -6.79124e-11 -8.13337e-11 6.35639e-11 5e-05 1.46608e-10 
133 1 0.336182 0.0181199 0.0070939 0.00608643 -8.36705e-05 0.000152368 -7.03083e-12 4.45039e-11 -1.48192e-10 5e-05 1.46608e-10 
134 1 0.336236 0.0179702 0.00715996 0.00603539 -0.000125193 8.23328e-05 -5.84502e-11 5.87547e-11 -3.20154e-11 5e-05 1.46608e-10 
135 1 0.336506 0.0185436 0.00690928 0.00593724 0.000100401 7.2194e-05 -7.0097e-11 -5.90965e-11 1.38745e-11 5e-05 1.46608e-10 
136 1 0.33014 0.0172194 0.00756008 0.00604036 0.000981289 0.000136381 1.50614e-10 2.26527e-11 -4.10326e-12 5e-05 1.46608e-10 
137 1 0.336199 0.0181033 0.00719106 0.00606975 -0.000107205 0.0001548 -1.19308e-10 8.92816e-11 -1.77518e-10 5e-05 1.46608e-10 
138 1 0.336118 0.0178512 0.00721114 0.00599557 -0.000156154 -3.8873e-06 -9.31619e-11 1.31041e-10 3.98391e-11 5e-05 1.46608e-10 
140 1 0.336012 0.017402 0.00740293 0.00588681 -0.000121542 -1.94775e-05 -1.13117e-10 1.16452e-10 -2.21761e-11 5e-05 1.46608e-10 
141 1 0.329998 0.0166556 0.00795014 0.00525168 0.000989184 1.93966e-05 -4.1429e-11 -1.75484e-10 1.19333e-10 5e-05 1.46608e-10 
142 1 0.330378 0.0178161 0.00715978 0.00645421 0.000990477 0.000178776 2.13617e-09 -1.41004e-09 1.27359e-09 5e-05 1.46608e-10 
143 1 0.329611 0.0158677 0.00846853 0.00589679 0.000775865 0.000265368 2.31245e-11 2.09636e-10 -1.21901e-10 5e-05 1.46608e-10 
144 1 0.330337 0.0176544 0.00727165 0.00631417 0.00089674 0.000236732 1.55022e-09 -9.54561e-10 9.29059e-10 5e-05 1.46608e-10 
146 1 0.329651 0.0160289 0.00835699 0.0056146 0.000865093 0.000160577 -4.19245e-10 -4.18784e-10 2.86865e-10 5e-05 1.46608e-10 
147 1 0.330146 0.0175901 0.00729146 0.0062683 0.000979478 0.000168549 -3.75991e-10 -1.21581e-10 -1.44606e-11 5e-05 1.46608e-10 
148 1 0.330018 0.0167362 0.00789439 0.00556031 0.000969385 7.7428e-05 3.06607e-10 -2.2689e-10 2.07366e-10 5e-05 1.46608e-10 
149 1 0.336001 0.0169806 0.00758205 0.00575787 -0.000115709 -1.98326e-05 8.0483e-12 4.61082e-11 -2.0885e-11 5e-05 1.46608e-10 
150 1 0.330258 0.0184503 0.00691886 0.0058861 0.000880707 -0.000463973 -1.91392e-10 2.2681e-10 -1.5873e-10 5e-05 1.46608e-10 
151 1 0.330174 0.0180594 0.0070023 0.00646251 0.000926272 3.86725e-05 -6.8729e-10 -6.60558e-10 1.51361e-10 5e-05 1.46608e-10 
153 1 0.330039 0.0168167 0.00783867 0.00574569 0.000964008 0.000107501 3.59538e-10 -1.44975e-10 1.54797e-10 5e-05 1.46608e-10 
154 1 0.329631 0.0159484 0.00841269 0.00590159 0.000877194 0.000186019 -7.10277e-10 5.96783e-10 -5.16708e-10 5e-05 1.46608e-10 
155 1 0.329673 0.0161094 0.00830147 0.00764029 0.00070604 0.000587236 2.86694e-10 1.04287e-10 -9.19286e-11 5e-05 1.46608e-10 
156 1 0.329978 0.016575 0.00800593 0.00493428 0.00101408 -4.38412e-05 -3.24323e-10 -1.30268e-10 5.03601e-11 5e-05 1.46608e-10 
157 1 0.0219312 0.0187687 0.00551176 -3.8249e-14 8.17211e-14 2.95883e-13 1.99635e-22 -1.88132e-22 6.94832e-23 5e-05 1.46608e-10 
158 1 0.330079 0.0169778 0.00772723 0.00585896 0.000972779 0.000117054 5.25367e-11 -4.80517e-11 4.16252e-11 5e-05 1.46608e-10 
159 1 0.336107 0.0174298 0.00738997 0.00588693 -0.000144505 -9.6339e-06 8.65803e-11 -5.62158e-11 2.30247e-11 5e-05 1.46608e-10 
160 1 0.330154 0.0179785 0.00705753 0.00643389 0.0010631 0.00018055 -3.78776e-10 5.93636e-10 -7.40658e-11 5e-05 1.46608e-10 
162 1 0.330344 0.018255 0.00703095 0.00591735 0.000982903 -0.000417968 -2.17612e-10 -1.86813e-11 1.26592e-10 5e-05 1.46608e-10 
164 1 0.329745 0.0163496 0.00813693 0.00639646 0.000951993 0.000212742 4.55029e-10 2.42156e-10 -1.06076e-10 5e-05 1.46608e-10 
165 1 0.330293 0.0181896 0.00695837 0.00534716 0.000261795 -0.000337403 -6.36273e-10 1.89803e-10 2.02109e-11 5e-05 1.46608e-10 
166 1 0.33614 0.0179409 0.00717246 0.00602664 -0.000156101 -6.64509e-06 6.90456e-11 6.67701e-11 -9.80462e-11 5e-05 1.46608e-10 
167 1 0.330221 0.0182324 0.00704867 0.00580668 0.00103326 -0.000478954 -4.63184e-10 -6.98023e-10 4.63553e-10 5e-05 1.46608e-10 
168 1 0.330354 0.0184823 0.00690848 0.00583676 0.000750875 -0.000442245 -2.73778e-10 2.11043e-10 -1.27695e-11 5e-05 1.46608e-10 
169 1 0.330219 0.0182569 0.00695175 0.00582376 0.000928702 -0.000478852 4.85391e-11 -2.68939e-10 2.77145e-10 5e-05 1.46608e-10 
170 1 0.330335 0.0183857 0.00692492 0.00583779 0.000782918 -0.000451629 -2.2936e-10 2.61777e-10 -2.54256e-11 5e-05 1.46608e-10 
171 1 0.336381 0.0185431 0.00690707 0.00583431 6.41187e-05 8.48396e-05 7.57166e-11 -3.22014e-11 5.74907e-11 5e-05 1.46608e-10 
172 1 0.33001 0.0173967 0.007413 0.00611751 0.001018 0.000118901 -2.12412e-11 5.92431e-11 -1.16119e-10 5e-05 1.46608e-10 
173 1 0.336446 0.0186164 0.00687532 0.00594512 0.000104248 6.71355e-05 -8.53243e-12 4.98087e-11 -2.05531e-13 5e-05 1.46608e-10 
174 1 0.32979 0.0165101 0.00802668 0.00486163 0.00115996 -0.000167124 2.58893e-11 -2.68076e-10 3.22304e-10 5e-05 1.46608e-10 
176 1 0.330106 0.0175303 0.00744309 0.0062225 0.00100409 0.000146942 3.08733e-11 8.03439e-11 8.03081e-11 5e-05 1.46608e-10 
177 1 0.329796 0.0162207 0.00823787 0.00633155 0.000918939 0.00022369 -3.74392e-10 -2.13621e-10 8.57168e-11 5e-05 1.46608e-10 
178 1 0.330158 0.0178461 0.0072096 0.0063068 0.000990014 0.00021132 4.54862e-11 -8.30554e-11 -9.65198e-11 5e-05 1.46608e-10 
179 1 0.330299 0.0181702 0.00705911 0.00580811 0.00107255 -0.000336743 -3.03516e-10 -4.0079e-10 -1.04987e-10 5e-05 1.46608e-10 
182 1 0.336265 0.0184772 0.00693448 0.00581631 -3.64292e-05 0.000130771 -9.70536e-11 -4.10716e-11 5.18248e-12 5e-05 1.46608e-10 
183 1 0.330258 0.017987 0.00712786 0.00631342 0.00112091 9.13489e-05 -3.56748e-10 3.81758e-10 -3.51225e-10 5e-05 1.46608e-10 
184 1 0.336442 0.0185164 0.00698132 0.00591101 0.000143478 4.73858e-05 -1.55562e-11 -1.24615e-10 1.51443e-10 5e-05 1.46608e-10 
185 1 0.330358 0.0177349 0.00721601 0.00633434 0.000978921 0.000176497 3.87592e-10 -5.23191e-10 3.15557e-10 5e-05 1.46608e-10 
186 1 0.330504 0.0183505 0.00692113 0.00573921 0.000615664 -0.000415043 -5.80629e-10 2.42731e-11 2.70369e-11 5e-05 1.46608e-10 
187 1 0.336321 0.0182737 0.00702729 0.00614993 -9.45447e-05 0.000166411 7.40118e-11 -6.4468e-11 -3.84488e-12 5e-05 1.46608e-10 
188 1 0.33615 0.0176097 0.00731304 0.00593724 -0.000163287 -2.33166e-06 -1.42047e-11 -8.50542e-11 5.12663e-11 5e-05 1.46608e-10 
189 1 0.336225 0.0182983 0.00701429 0.00614709 -9.4861e-05 0.000161993 3.47771e-11 6.36271e-11 -1.40819e-11 5e-05 1.46608e-10 
190 1 0.324213 0.0182298 0.0069628 0.00555931 -0.000165275 -0.000116493 3.34187e-10 5.31207e-10 3.45282e-10 5e-05 1.46608e-10 
191 1 0.335927 0.0170426 0.00755658 0.00577182 -0.000103663 -2.49667e-05 5.82229e-11 -1.34594e-10 4.90276e-11 5e-05 1.46608e-10 
192 1 0.330051 0.0175578 0.00730157 0.0062413 0.00104224 0.000125961 -1.45238e-10 -3.48922e-12 -2.38231e-11 5e-05 1.46608e-10 
193 1 0.336387 0.0186967 0.00687761 0.00587185 4.74382e-05 4.88319e-06 6.35616e-11 1.02339e-10 -2.06556e-11 5e-05 1.46608e-10 
194 1 0.330387 0.0181066 0.00706235 0.0052766 0.00261075 -0.000808521 -7.89242e-11 3.70771e-11 -1.04493e-09 5e-05 1.46608e-10 
195 1 0.330251 0.0179959 0.00701121 0.00643795 0.000905655 0.000237479 -3.29461e-10 -2.12641e-09 6.07717e-10 5e-05 1.46608e-10 
196 1 0.330303 0.0178639 0.00711443 0.00630842 0.000960633 0.000172817 1.83098e-09 -7.57816e-10 5.74084e-10 5e-05 1.46608e-10 
197 1 0.32388 0.0168362 0.00759169 0.00579146 -0.000259872 0.000261225 -7.18773e-11 7.86196e-12 6.04329e-11 5e-05 1.46608e-10 
198 1 0.330295 0.0174934 0.00738275 0.00621496 0.000915861 0.000208154 -1.18048e-10 1.85753e-10 -1.6396e-10 5e-05 1.46608e-10 
199 1 0.330278 0.0180773 0.00709012 0.00579002 0.00112947 -0.000199815 -1.28513e-10 -3.41898e-10 -6.55501e-10 5e-05 1.46608e-10 
200 1 0.329705 0.0158996 0.00845863 0.0058823 0.000889557 0.000180194 -6.82722e-10 5.72712e-10 -5.51522e-10 5e-05 1.46608e-10 
201 1 0.330273 0.0180886 0.0069774 0.0060769 0.000627819 -0.00147738 -3.43062e-10 7.62031e-11 -1.43552e-09 5e-05 1.46608e-10 
202 1 0.330099 0.0170583 0.00767151 0.00592674 0.000973706 0.00012571 9.06415e-11 -2.87278e-11 2.78724e-11 5e-05 1.46608e-10 
203 1 0.336215 0.0178803 0.0071987 0.00602646 -0.000151229 2.40051e-06 -6.80455e-11 -3.25849e-11 1.15347e-10 5e-05 1.46608e-10 
204 1 0.330424 0.0179787 0.00704805 0.00596899 0.00142312 -0.000194685 -4.91229e-10 7.48755e-12 -1.32145e-10 5e-05 1.46608e-10 
205 1 0.329944 0.0167846 0.00784864 0.00578768 0.00101412 7.71977e-05 1.39458e-10 -1.35834e-10 1.24058e-10 5e-05 1.46608e-10 
206 1 0.329984 0.0169457 0.00773721 0.00584344 0.001011 8.62481e-05 2.36329e-11 -1.2499e-10 8.51914e-11 5e-05 1.46608e-10 
207 1 0.329865 0.0164616 0.00807243 0.00516626 0.00154955 -0.000400265 -7.05923e-10 5.2714e-10 -4.33703e-10 5e-05 1.46608e-10 
208 1 0.33018 0.0173805 0.00744863 0.00611676 0.000981406 0.000146798 -3.62494e-10 1.909e-10 -1.8198e-10 5e-05 1.46608e-10 
209 1 0.330085 0.0173484 0.00745862 0.00610206 0.00101418 0.000118582 -4.92015e-12 8.87776e-11 -7.17166e-11 5e-05 1.46608e-10 
210 1 0.336043 0.0171602 0.00750522 0.00581185 -0.000126572 -1.5927e-05 3.54747e-11 2.13699e-12 5.16162e-12 5e-05 1.46608e-10 
211 1 0.335969 0.0172223 0.00747975 0.00582789 -0.000113821 -2.14699e-05 1.05709e-10 4.05957e-11 -1.47732e-11 5e-05 1.46608e-10 
212 1 0.330388 0.0182204 0.00694825 0.00571453 0.000933623 -0.000471537 -9.65524e-11 3.49622e-11 -3.35655e-11 5e-05 1.46608e-10 
213 1 0.336204 0.0182091 0.0070541 0.00611185 -8.95567e-05 0.000157194 -2.34508e-11 5.50259e-11 4.88077e-12 5e-05 1.46608e-10 
214 1 0.33627 0.0179152 0.0072743 0.00602899 -0.000128568 5.44729e-06 -4.99839e-11 -9.53423e-13 1.34112e-10 5e-05 1.46608e-10 
215 1 0.324106 0.0177478 0.00703328 0.00624428 -0.000402239 0.00040452 8.65918e-10 5.22974e-10 -5.31723e-11 5e-05 1.46608e-10 
216 1 0.329842 0.0163811 0.00812776 0.00645292 0.000952517 0.000216849 2.89752e-10 -1.17295e-11 3.4098e-11 5e-05 1.46608e-10 
217 1 0.336286 0.018573 0.00691454 0.00580876 -3.5099e-05 0.000133206 1.04476e-11 -4.62074e-11 -3.0259e-11 5e-05 1.46608e-10 
218 1 0.330092 0.0177281 0.007206 0.00629345 0.000944671 0.000159854 5.44902e-10 5.40369e-10 -6.98558e-11 5e-05 1.46608e-10 
219 1 0.336255 0.0173054 0.00744104 0.00585364 -0.000183746 8.01253e-06 -3.50441e-12 1.85597e-12 4.45414e-12 5e-05 1.46608e-10 
220 1 0.330209 0.0178314 0.00712479 0.00631406 0.000935901 0.000210077 -3.11414e-10 7.16374e-11 -3.48339e-10 5e-05 1.46608e-10 
222 1 0.336428 0.0180298 0.00713127 0.00606408 -0.000165364 -5.43508e-06 -3.76822e-10 2.39543e-10 -2.04049e-10 5e-05 1.46608e-10 
224 1 0.329909 0.016994 0.0076916 0.00586939 0.00103049 7.44675e-05 -8.11214e-11 -1.91354e-10 1.08417e-10 5e-05 1.46608e-10 
225 1 0.335995 0.0173211 0.00754085 0.00584279 -0.000120706 -1.90871e-05 -7.00596e-11 -2.27724e-11 -1.93181e-12 5e-05 1.46608e-10 
226 1 0.330248 0.0178926 0.0071932 0.0063878 0.00092421 0.000216822 9.5634e-10 -7.24909e-10 -4.18672e-10 5e-05 1.46608e-10 
227 1 0.324128 0.0178437 0.0070157 0.00622593 -0.000333728 0.000385659 -3.88714e-10 1.1104e-09 -3.45977e-10 5e-05 1.46608e-10 
228 1 0.324064 0.0175692 0.00710342 0.00615413 -0.000421551 0.000298179 -2.32705e-10 -6.97622e-10 1.21383e-10 5e-05 1.46608e-10 
229 1 0.330429 0.0184166 0.00691477 0.00573967 0.000626714 -0.000416639 -4.2158e-10 1.06146e-10 8.09096e-12 5e-05 1.46608e-10 
230 1 0.329961 0.0171666 0.00767881 0.00597624 0.000983073 8.98025e-05 -6.00345e-11 4.52609e-11 9.62887e-12 5e-05 1.46608e-10 
232 1 0.330315 0.018289 0.00694137 0.00574727 0.000784768 -0.000440821 -3.3122e-10 2.91638e-10 7.51667e-11 5e-05 1.46608e-10 
233 1 0.330196 0.0181422 0.00708401 0.00598523 0.00106875 -0.000288285 2.13945e-10 -3.04673e-10 5.42411e-10 5e-05 1.46608e-10 
234 1 0.336668 0.0187509 0.00682146 0.00580949 0.000424479 -1.48262e-05 -6.17804e-11 -2.51364e-12 1.75223e-11 5e-05 1.46608e-10 
235 1 0.329869 0.0168329 0.00780304 0.00576954 0.000984629 9.59796e-05 2.92348e-11 -1.2766e-10 1.18339e-10 5e-05 1.46608e-10 
236 1 0.330049 0.0174579 0.00748185 0.00617345 0.00101686 8.84672e-05 -2.47347e-11 1.19248e-10 -2.02109e-10 5e-05 1.46608e-10 
237 1 0.32997 0.0172356 0.00752444 0.00603192 0.00102353 0.000108122 1.96862e-10 3.96727e-10 -2.38442e-10 5e-05 1.46608e-10 
239 1 0.32378 0.0164193 0.007849 0.00543113 -0.000196182 0.000215826 4.2584e-12 2.20121e-11 -1.2991e-11 5e-05 1.46608e-10 
240 1 0.323839 0.0166696 0.0076945 0.00547179 -0.000201945 0.000220352 -4.87184e-11 -9.3899e-12 -1.01936e-11 5e-05 1.46608e-10 
241 1 0.323761 0.0163358 0.0079005 0.00542803 -0.00019815 0.00021708 2.78621e-12 3.25746e-11 -2.10441e-11 5e-05 1.46608e-10 
242 1 0.330275 0.0174128 0.00743853 0.00615363 0.000904391 0.000208172 -3.82725e-10 3.17186e-10 -2.71905e-10 5e-05 1.46608e-10 
243 1 0.330283 0.017783 0.00717049 0.00630197 0.00090192 0.000215124 7.16758e-10 3.60776e-11 2.41344e-10 5e-05 1.46608e-10 
244 1 0.3238 0.0165027 0.0077975 0.00543076 -0.000195583 0.000215453 1.9648e-11 -1.48509e-11 1.25847e-11 5e-05 1.46608e-10 
246 1 0.323982 0.0172412 0.00731686 0.00598528 -0.000513482 -5.61258e-05 -1.3574e-10 -1.02286e-10 2.2871e-11 5e-05 1.46608e-10 
247 1 0.329808 0.0165913 0.0079702 0.00563957 0.00106733 1.75186e-05 1.55762e-11 7.30969e-11 -5.35451e-11 5e-05 1.46608e-10 
248 1 0.330166 0.0177635 0.00727724 0.00632821 0.000992718 0.000186884 9.79286e-11 -1.67227e-11 -4.99781e-11 5e-05 1.46608e-10 
249 1 0.323921 0.0169988 0.00748275 0.00585263 -0.00048799 -6.83883e-05 -2.01934e-10 9.89842e-11 -1.03588e-11 5e-05 1.46608e-10 
250 1 0.329903 0.0166236 0.00796008 0.00569773 0.00106316 2.95883e-05 -3.75874e-10 -1.44685e-10 4.89685e-11 5e-05 1.46608e-10 
251 1 0.336193 0.0177894 0.00723619 0.00597403 -0.000176754 2.54263e-06 -2.35584e-13 8.37388e-12 5.92808e-11 5e-05 1.46608e-10 
252 1 0.324003 0.0173219 0.00726158 0.00604098 -0.000526695 -5.50667e-05 -8.36561e-12 -1.68603e-10 6.49191e-11 5e-05 1.46608e-10 
253 1 0.324193 0.0181319 0.00696284 0.00562562 -0.0001751 0.00033314 -3.72322e-10 4.26274e-10 2.21426e-10 5e-05 1.46608e-10 
254 1 0.323941 0.0170796 0.00742747 0.00591063 -0.000495634 -6.30462e-05 -9.97798e-11 9.34415e-11 -6.09052e-11 5e-05 1.46608e-10 
255 1 0.330103 0.0173758 0.00755304 0.00611216 0.00098168 0.000122743 2.50598e-11 1.386e-11 -5.57066e-11 5e-05 1.46608e-10 
256 1 0.33044 0.0180596 0.00699146 0.00545473 0.0017437 -0.000368128 -5.23198e-10 -6.87426e-11 -3.90694e-10 5e-05 1.46608e-10 
257 1 0.330059 0.0168972 0.00778295 0.00580267 0.000969944 0.000111193 8.43746e-11 -7.80061e-11 7.33911e-11 5e-05 1.46608e-10 
258 1 0.330085 0.017715 0.00730856 0.00614605 0.00119445 3.34616e-06 -1.21367e-10 1.86066e-10 -2.83412e-10 5e-05 1.46608e-10 
259 1 0.324023 0.0174028 0.00720627 0.00608338 -0.000541046 -4.2431e-05 -7.20924e-11 -1.74518e-10 2.83088e-10 5e-05 1.46608e-10 