ITEM: TIMESTEP
49600000
ITEM: NUMBER OF ATOMS
275
ITEM: BOX BOUNDS ff ff ff
-0.02 0.43
-0.02 0.06
-0.02 0.07
ITEM: ATOMS id type x y z vx vy vz fx fy fz radius mass 
1 1 0.302488 0.0182572 0.00692064 0.005664 -0.000116532 -0.000197104 8.15841e-11 -3.59256e-11 -5.21717e-11 5e-05 1.46608e-10 
2 1 0.302139 0.0171284 0.00730632 0.00562958 0.000117765 6.75112e-05 -8.26283e-12 5.71088e-11 -2.80664e-11 5e-05 1.46608e-10 
4 1 0.30229 0.017009 0.00736431 0.00578592 4.01715e-05 0.000106092 5.02764e-11 2.24423e-10 -8.43916e-11 5e-05 1.46608e-10 
5 1 0.301695 0.0154479 0.00871544 0.00569565 -8.20204e-05 -0.000202576 1.48532e-10 2.37091e-10 -3.09508e-10 5e-05 1.46608e-10 
6 1 0.308057 0.0167606 0.00750103 0.00568164 0.00010163 -0.000239972 -4.76345e-11 7.53596e-12 -6.49027e-12 5e-05 1.46608e-10 
7 1 0.302437 0.0176238 0.00706417 0.00615198 8.5031e-06 -0.00012163 -1.85287e-10 1.10046e-09 -5.33899e-10 5e-05 1.46608e-10 
8 1 0.302136 0.0167117 0.00749731 0.00571484 0.000113597 7.13856e-05 1.88916e-10 -2.47717e-11 3.70345e-11 5e-05 1.46608e-10 
9 1 0.308257 0.0176322 0.00708484 0.00628185 9.72328e-05 0.00012978 6.24495e-11 3.61487e-11 -4.59409e-12 5e-05 1.46608e-10 
10 1 0.301843 0.0158415 0.00829148 0.00564562 -3.67583e-05 -0.00024772 -2.56703e-10 1.52714e-10 -1.70432e-10 5e-05 1.46608e-10 
11 1 0.30238 0.0179594 0.00704586 0.0063113 -3.44299e-05 0.000141748 -9.58497e-11 3.59669e-10 2.85695e-10 5e-05 1.46608e-10 
12 1 0.296371 0.0169953 0.00749069 0.00603747 0.000252121 -0.000783078 9.51826e-12 9.91805e-11 -9.35516e-11 5e-05 1.46608e-10 
13 1 0.301674 0.0153812 0.00878703 0.00618293 -0.000178521 -0.000120015 3.53017e-10 8.10501e-11 -9.74837e-11 5e-05 1.46608e-10 
14 1 0.296335 0.0175891 0.00710448 0.00638263 0.000654885 3.98048e-05 -1.74935e-12 -1.09691e-10 3.88209e-11 5e-05 1.46608e-10 
16 1 0.296544 0.0180951 0.00699072 0.0057539 0.000550484 -0.000603109 1.28399e-10 -1.13595e-10 -1.71097e-10 5e-05 1.46608e-10 
17 1 0.301797 0.0157816 0.00835733 0.00572236 -6.87774e-05 -0.000220331 -5.19311e-10 2.18766e-10 -2.15539e-10 5e-05 1.46608e-10 
19 1 0.301653 0.0153147 0.00885854 0.00622365 -0.000183133 -0.000120996 4.27945e-11 4.36293e-11 -3.41559e-11 5e-05 1.46608e-10 
21 1 0.30248 0.0178042 0.00699142 0.00616336 -0.000222674 0.000135732 2.00824e-10 4.17379e-10 -1.4787e-10 5e-05 1.46608e-10 
22 1 0.302145 0.0165352 0.00757841 0.00572163 9.10627e-05 8.56635e-05 -9.18804e-11 -2.69063e-11 6.91485e-11 5e-05 1.46608e-10 
23 1 0.296575 0.0178389 0.00704971 0.00640601 0.000669504 3.76006e-05 1.54279e-10 -7.66083e-11 3.75411e-11 5e-05 1.46608e-10 
24 1 0.308173 0.017259 0.00720129 0.00569077 0.00021227 7.77097e-05 -2.38279e-11 2.01476e-11 -1.07256e-11 5e-05 1.46608e-10 
25 1 0.301855 0.0159771 0.0081474 0.00547693 -2.89936e-05 -0.000247795 -7.03417e-11 1.4457e-10 -1.35614e-10 5e-05 1.46608e-10 
26 1 0.308214 0.0174458 0.00714297 0.00625196 0.000103643 0.000126559 -5.15539e-11 -2.31679e-11 2.40885e-12 5e-05 1.46608e-10 
27 1 0.296181 0.0169588 0.0075424 0.00603431 0.000294434 -0.000821901 8.55015e-11 7.47058e-11 -7.02328e-11 5e-05 1.46608e-10 
28 1 0.302215 0.0170688 0.00733524 0.00568216 0.000140815 4.4774e-05 -3.16914e-10 -2.42678e-10 2.37908e-10 5e-05 1.46608e-10 
29 1 0.301632 0.0152481 0.00893005 0.00623094 -0.000183816 -0.000122281 4.87368e-11 1.60014e-10 -1.69012e-10 5e-05 1.46608e-10 
30 1 0.301931 0.0162453 0.00786095 0.00547157 -4.93899e-05 -0.000221494 4.24767e-10 -2.5493e-10 2.11982e-10 5e-05 1.46608e-10 
31 1 0.302512 0.017564 0.00709348 0.00612406 -0.000290473 1.28566e-05 -3.90897e-10 3.70721e-10 -2.71013e-10 5e-05 1.46608e-10 
32 1 0.301877 0.0160434 0.00807603 0.00551896 -3.57384e-05 -0.000241734 -1.11519e-10 5.84413e-11 -5.94975e-11 5e-05 1.46608e-10 
33 1 0.308076 0.0168387 0.00744163 0.00569504 9.62998e-05 -0.000236724 7.5096e-11 2.74983e-11 -4.24236e-12 5e-05 1.46608e-10 
34 1 0.301776 0.0157148 0.00842885 0.00575358 -7.2893e-05 -0.00021481 -6.11795e-11 4.63495e-11 -4.98749e-11 5e-05 1.46608e-10 
35 1 0.302394 0.0174508 0.00715486 0.0061289 -8.34476e-05 -2.94646e-05 1.48559e-10 1.00018e-09 -6.64124e-10 5e-05 1.46608e-10 
36 1 0.308322 0.0179118 0.00699765 0.0063169 8.89909e-05 0.000132864 5.55964e-12 -1.0128e-11 2.83917e-12 5e-05 1.46608e-10 
37 1 0.30227 0.0169198 0.00740477 0.00572768 6.6276e-05 9.37506e-05 -4.12266e-11 3.54632e-10 -1.6793e-10 5e-05 1.46608e-10 
38 1 0.302352 0.0172764 0.00724304 0.00606795 -4.85898e-05 0.000158243 6.53092e-11 2.04466e-10 2.80173e-11 5e-05 1.46608e-10 
39 1 0.308193 0.0173524 0.00717211 0.00596275 0.000161014 0.000101202 2.74639e-12 -3.62574e-12 -2.11992e-14 5e-05 1.46608e-10 
41 1 0.301736 0.0155813 0.00857222 0.00541347 -2.77713e-05 -0.000245589 -2.58192e-10 4.50052e-12 1.45245e-11 5e-05 1.46608e-10 
42 1 0.302385 0.0170381 0.00735304 0.00580113 -2.43895e-05 0.000136241 1.17374e-10 6.48013e-11 -6.94661e-12 5e-05 1.46608e-10 
44 1 0.302448 0.0173042 0.00722909 0.00589115 -0.000400332 8.0283e-05 -2.58951e-10 1.23813e-10 -4.94848e-11 5e-05 1.46608e-10 
45 1 0.308095 0.0169168 0.00738224 0.00570865 9.4959e-05 -0.000236528 6.27413e-11 -2.61603e-11 1.81914e-11 5e-05 1.46608e-10 
47 1 0.301756 0.015648 0.00850054 0.00566147 -6.28743e-05 -0.000220745 8.55261e-11 -2.86804e-11 1.75184e-11 5e-05 1.46608e-10 
48 1 0.302352 0.0180301 0.00694604 0.00632828 -2.40307e-05 1.67835e-05 2.94379e-10 1.41201e-10 -7.27163e-10 5e-05 1.46608e-10 
49 1 0.308279 0.0177254 0.00705578 0.00629321 9.31462e-05 0.000131111 -2.34958e-11 -7.6692e-12 -1.02714e-12 5e-05 1.46608e-10 
50 1 0.301893 0.0161108 0.00800393 0.00549892 -3.57086e-05 -0.00023979 -1.49671e-10 -5.71365e-11 6.98203e-11 5e-05 1.46608e-10 
51 1 0.302533 0.0176511 0.00704909 0.00621288 -0.000229682 8.18901e-05 -3.85283e-10 -2.30543e-11 -5.60894e-10 5e-05 1.46608e-10 
52 1 0.296428 0.0172067 0.00728548 0.00624504 0.000224235 -0.00077529 -5.88617e-11 6.20035e-11 -8.1474e-11 5e-05 1.46608e-10 
53 1 0.308134 0.0170729 0.00726345 0.00573999 9.10274e-05 -0.000234858 -2.14391e-11 -2.75888e-12 5.90299e-11 5e-05 1.46608e-10 
54 1 0.302692 0.0179628 0.00696288 0.00597032 0.00063777 -3.89851e-05 -7.23432e-10 2.03159e-10 -4.87132e-11 5e-05 1.46608e-10 
55 1 0.296351 0.0172616 0.00724046 0.00624056 0.00042826 -0.000966009 -2.22747e-11 1.54369e-11 1.83187e-11 5e-05 1.46608e-10 
56 1 0.302671 0.0178651 0.00698211 0.00605977 0.000212452 4.7872e-05 -7.29365e-10 2.53151e-10 -5.38627e-11 5e-05 1.46608e-10 
57 1 0.308115 0.0169948 0.00732284 0.00572561 9.52274e-05 -0.000237664 -8.51134e-12 -5.1653e-11 2.01869e-11 5e-05 1.46608e-10 
59 1 0.378022 0.019866 0.005332 -5.01947e-15 -7.41209e-15 7.69803e-14 1.80946e-24 1.05983e-24 2.06795e-25 5e-05 1.46608e-10 
60 1 0.302469 0.0173909 0.00718387 0.00582747 -0.000334968 5.20615e-05 -4.33149e-10 3.93833e-10 -5.69424e-11 5e-05 1.46608e-10 
61 1 0.301716 0.0155145 0.00864387 0.00534883 -2.26378e-05 -0.000247562 -1.22695e-10 7.15378e-11 -8.10143e-11 5e-05 1.46608e-10 
62 1 0.302373 0.0173646 0.00720096 0.00614355 -6.232e-05 0.000114406 5.8564e-10 8.25148e-10 -5.37266e-11 5e-05 1.46608e-10 
63 1 0.302441 0.0182536 0.00700857 0.00573866 0.000110359 -0.000161901 -9.00968e-11 1.48183e-10 -3.98315e-10 5e-05 1.46608e-10 
64 1 0.308154 0.0171653 0.00723056 0.00571056 0.000205659 7.8175e-05 5.03564e-11 1.74041e-11 1.10949e-11 5e-05 1.46608e-10 
65 1 0.296386 0.017429 0.00714616 0.00638408 0.000684053 3.0711e-05 -4.07437e-11 -1.24245e-10 1.34965e-11 5e-05 1.46608e-10 
66 1 0.296583 0.0180624 0.00709099 0.00629808 0.000758934 0.000134841 -7.56875e-11 -1.58757e-10 -1.852e-10 5e-05 1.46608e-10 
67 1 0.302502 0.0179007 0.00697244 0.00619948 -0.000189643 0.000131374 -1.29545e-10 1.35492e-11 -1.04419e-10 5e-05 1.46608e-10 
68 1 0.302277 0.0173361 0.00721405 0.00616689 3.62235e-05 0.000136697 1.99807e-10 2.15819e-10 5.58038e-11 5e-05 1.46608e-10 
69 1 0.302576 0.0178346 0.00698678 0.00622445 -0.0002484 0.00014094 -7.29378e-10 3.06222e-10 -6.39075e-11 5e-05 1.46608e-10 
70 1 0.308236 0.017539 0.0071139 0.00627509 0.000102401 0.000128199 -7.69666e-11 4.65521e-11 -1.89353e-11 5e-05 1.46608e-10 
71 1 0.296713 0.0180599 0.00699885 0.00583849 0.00110957 -8.79396e-05 -1.85134e-10 3.01258e-10 -6.20769e-11 5e-05 1.46608e-10 
72 1 0.302563 0.0181909 0.00692172 0.00558301 -0.000194369 -0.000189704 -7.6641e-11 9.07479e-12 1.3732e-10 5e-05 1.46608e-10 
73 1 0.301835 0.0159102 0.00821917 0.00551271 -3.71718e-05 -0.00024047 -9.44893e-11 1.79353e-10 -1.72819e-10 5e-05 1.46608e-10 
74 1 0.301912 0.0161777 0.00793216 0.00544524 -3.71558e-05 -0.000237094 -3.59428e-10 -1.0571e-10 1.26547e-10 5e-05 1.46608e-10 
76 1 0.296294 0.0170493 0.00744652 0.0061547 0.000266126 -0.000806439 6.10493e-11 3.27623e-11 -3.40425e-11 5e-05 1.46608e-10 
77 1 0.30216 0.0172175 0.00726587 0.0061611 2.43641e-05 0.000122224 1.95402e-11 7.62273e-11 -3.76086e-11 5e-05 1.46608e-10 
78 1 0.29573 0.0157276 0.0087106 0.00600851 0.00055847 -0.000620005 -5.55117e-11 -1.86729e-10 1.65594e-10 5e-05 1.46608e-10 
79 1 0.296616 0.018398 0.00691122 0.00589211 0.000614102 3.64352e-05 -1.70418e-10 3.52736e-10 -8.11166e-11 5e-05 1.46608e-10 
80 1 0.302236 0.017158 0.00729484 0.00585525 8.99575e-05 4.05955e-05 -1.6724e-10 -3.48047e-10 1.97697e-10 5e-05 1.46608e-10 
82 1 0.296473 0.0179994 0.0070954 0.00639866 0.000655354 4.65344e-05 1.46592e-10 -6.51441e-11 1.4123e-11 5e-05 1.46608e-10 
83 1 0.29639 0.0170658 0.00742228 0.00614411 0.000235084 -0.000776111 -2.28413e-11 9.42714e-11 -7.6258e-11 5e-05 1.46608e-10 
84 1 0.308301 0.0178186 0.00702671 0.0063062 9.14592e-05 0.000132186 1.55238e-11 -1.68827e-11 1.233e-11 5e-05 1.46608e-10 
85 1 0.296752 0.018258 0.00695057 0.00588752 0.000563853 4.72944e-05 -3.51846e-10 -3.18409e-10 1.72208e-10 5e-05 1.46608e-10 
86 1 0.302427 0.0172164 0.00727215 0.00597483 -0.000150926 0.000200462 -1.63301e-10 -6.16349e-11 4.71952e-11 5e-05 1.46608e-10 
87 1 0.302195 0.0169796 0.00737573 0.00565467 0.000147783 5.31093e-05 -2.7613e-10 -1.20092e-10 6.08085e-11 5e-05 1.46608e-10 
88 1 0.302341 0.0175969 0.0070801 0.00612767 0.000105826 -0.000167436 -1.76445e-10 8.91426e-11 -3.37659e-11 5e-05 1.46608e-10 
89 1 0.30248 0.0179816 0.00704224 0.00621387 -8.0502e-05 0.000163843 -3.65835e-10 3.56388e-12 -1.28877e-10 5e-05 1.46608e-10 
90 1 0.302523 0.0179971 0.00695346 0.00580659 0.000241435 3.44039e-05 -3.53681e-10 -7.60179e-11 -6.72801e-11 5e-05 1.46608e-10 
91 1 0.296353 0.0169248 0.00755912 0.005924 0.000272127 -0.000791288 -4.44615e-11 1.24252e-10 -1.18692e-10 5e-05 1.46608e-10 
92 1 0.302265 0.0176563 0.00705102 0.00598665 -2.8156e-05 -0.00011656 4.22169e-10 -1.45767e-10 -5.84347e-12 5e-05 1.46608e-10 
93 1 0.301991 0.016445 0.00764544 0.00568262 -0.000102915 -0.000190889 3.51622e-10 -2.02585e-10 2.19301e-10 5e-05 1.46608e-10 
94 1 0.302402 0.0180567 0.00702801 0.00600997 -0.000107884 0.000311662 -1.49914e-09 -3.13408e-10 -5.15501e-10 5e-05 1.46608e-10 
95 1 0.302319 0.0176983 0.00712397 0.00601786 -0.000105351 -0.000106679 1.60579e-10 4.48977e-10 -4.31682e-10 5e-05 1.46608e-10 
96 1 0.302244 0.0175696 0.00709625 0.00599206 1.31932e-06 -8.01981e-05 -2.15764e-10 3.75535e-11 1.97199e-10 5e-05 1.46608e-10 
97 1 0.295943 0.0161156 0.00836201 0.00646554 0.000182374 -0.000756514 1.47607e-12 -7.88903e-12 6.99267e-12 5e-05 1.46608e-10 
98 1 0.301968 0.0163785 0.00771681 0.00561725 -8.35618e-05 -0.00019464 1.72717e-10 -6.11925e-11 1.51693e-10 5e-05 1.46608e-10 
99 1 0.296329 0.0179354 0.00701768 0.00640983 0.000626942 4.81034e-05 7.00885e-11 -4.70502e-11 6.82095e-12 5e-05 1.46608e-10 
100 1 0.302458 0.0177105 0.00701892 0.00631754 1.90871e-05 -0.000158375 -4.93902e-10 7.67545e-10 -6.0008e-10 5e-05 1.46608e-10 
101 1 0.296351 0.0180303 0.00699466 0.00640476 0.00062506 4.7834e-05 -2.05804e-11 -3.65252e-11 4.03465e-11 5e-05 1.46608e-10 
102 1 0.0643568 0.0187248 0.00531097 4.44255e-15 1.04003e-14 8.29634e-14 1.17718e-22 -3.53129e-22 3.55688e-23 5e-05 1.46608e-10 
103 1 0.24257 0.0191927 0.00520306 1.19201e-22 -1.27651e-22 1.23839e-22 0 0 0 5e-05 1.46608e-10 
104 1 0.296639 0.0181249 0.00698024 0.0056612 0.00102125 -7.1646e-05 1.1347e-10 2.1827e-10 -6.22659e-11 5e-05 1.46608e-10 
105 1 0.295916 0.0160406 0.00843059 0.00677785 0.000514567 -0.000596067 9.4402e-11 -4.52497e-11 2.84097e-11 5e-05 1.46608e-10 
106 1 0.296375 0.0179724 0.0070984 0.0063931 0.000646108 4.3821e-05 2.2207e-11 -1.24553e-10 2.7098e-11 5e-05 1.46608e-10 
107 1 0.29575 0.0158007 0.00864565 0.00597595 0.000569395 -0.000629385 -6.48322e-11 -1.44214e-10 1.33126e-10 5e-05 1.46608e-10 
108 1 0.302597 0.0179312 0.00696778 0.00608324 0.000263014 4.02666e-05 -7.40919e-10 2.51629e-10 -3.04071e-11 5e-05 1.46608e-10 
109 1 0.302649 0.0177687 0.00700109 0.00622515 -0.000315457 0.000156603 -6.8593e-10 2.96661e-10 -1.46655e-10 5e-05 1.46608e-10 
110 1 0.30212 0.017039 0.00734685 0.00563986 0.000112459 7.0129e-05 3.1232e-11 -1.1013e-11 7.21137e-12 5e-05 1.46608e-10 
111 1 0.302081 0.0168604 0.0074279 0.00566993 0.000108143 7.24208e-05 -9.00399e-11 1.2879e-10 -6.0985e-11 5e-05 1.46608e-10 
112 1 0.295818 0.0160226 0.00845534 0.00740597 0.000213331 -0.000514603 1.99791e-11 7.38031e-11 2.35623e-10 5e-05 1.46608e-10 
113 1 0.296243 0.017565 0.00713407 0.00637832 0.000666792 6.43726e-05 6.50931e-11 1.09736e-10 5.01086e-10 5e-05 1.46608e-10 
114 1 0.296287 0.0177542 0.00708678 0.0064075 0.000654976 7.30633e-05 3.18758e-11 -1.60197e-11 4.92468e-11 5e-05 1.46608e-10 
115 1 0.302406 0.0171272 0.0073126 0.0058848 -5.02112e-05 0.000153604 8.80178e-11 1.46144e-10 -1.07364e-11 5e-05 1.46608e-10 
116 1 0.302428 0.0179662 0.00695822 0.00631011 -0.000114653 0.000116712 -4.50035e-10 4.18776e-10 1.41485e-10 5e-05 1.46608e-10 
117 1 0.302415 0.0175373 0.00710934 0.00613305 -5.69918e-05 -0.000108727 -1.14382e-10 1.03629e-09 -6.65814e-10 5e-05 1.46608e-10 
118 1 0.296466 0.0173698 0.00717759 0.0064585 0.000579371 -0.000153968 -2.17266e-11 -3.09878e-11 -5.4129e-11 5e-05 1.46608e-10 
119 1 0.302618 0.0180285 0.00694861 0.00578727 0.000315214 3.20367e-05 -4.51124e-11 2.05965e-10 8.62127e-11 5e-05 1.46608e-10 
120 1 0.302117 0.0166224 0.00753786 0.00571728 0.000103567 7.71512e-05 -6.2531e-11 -2.86179e-11 6.36815e-12 5e-05 1.46608e-10 
121 1 0.302433 0.0184204 0.00691341 0.00568127 -0.000131275 -0.000193157 1.44784e-10 4.80045e-11 -3.401e-12 5e-05 1.46608e-10 
122 1 0.302223 0.017483 0.00714162 0.00606625 1.55122e-05 -3.63614e-06 3.02884e-10 9.46741e-11 1.50553e-10 5e-05 1.46608e-10 
123 1 0.296734 0.0181575 0.00697513 0.00582546 0.000586253 3.90741e-05 4.05841e-12 -2.03653e-10 4.72413e-11 5e-05 1.46608e-10 
124 1 0.30205 0.0165116 0.00760041 0.00570017 3.00659e-05 1.22367e-05 -1.57163e-10 7.90096e-11 1.36549e-11 5e-05 1.46608e-10 
125 1 0.302319 0.0175104 0.00712554 0.00624828 -1.45321e-05 -0.000221912 -7.57735e-11 5.49848e-11 -7.92212e-10 5e-05 1.46608e-10 
127 1 0.295967 0.0161852 0.00829404 0.00647378 0.000181976 -0.000756294 -1.04844e-10 2.77369e-11 -1.79891e-11 5e-05 1.46608e-10 
128 1 0.301955 0.0163108 0.00778915 0.00556706 -7.54518e-05 -0.000200707 3.8289e-10 -1.62471e-10 1.82182e-10 5e-05 1.46608e-10 
129 1 0.30236 0.0178592 0.00706497 0.00624677 -5.67836e-05 0.00017742 4.42755e-10 1.85119e-10 -1.47522e-10 5e-05 1.46608e-10 
130 1 0.296383 0.0177778 0.00705882 0.00641829 0.000642588 4.82544e-05 1.18715e-10 -2.15826e-11 2.47799e-11 5e-05 1.46608e-10 
131 1 0.296405 0.0178727 0.0070358 0.00641894 0.000635633 4.74145e-05 1.03523e-10 -1.35445e-10 2.84034e-11 5e-05 1.46608e-10 
132 1 0.302311 0.0170981 0.00732388 0.0058571 1.15646e-05 0.000121142 1.48284e-10 2.47602e-11 1.22233e-10 5e-05 1.46608e-10 
133 1 0.302448 0.0180622 0.00693932 0.0055448 -4.297e-05 8.21643e-05 -2.73332e-10 -2.24403e-10 2.63772e-10 5e-05 1.46608e-10 
134 1 0.302406 0.0178703 0.00697707 0.00616015 -0.000165782 0.000125039 -9.59748e-10 4.17068e-10 -9.23973e-11 5e-05 1.46608e-10 
135 1 0.302554 0.0177387 0.00700565 0.00620282 -0.000170236 0.000148125 6.57926e-11 -3.58827e-10 -7.8354e-11 5e-05 1.46608e-10 
136 1 0.296332 0.0171903 0.0073096 0.00620738 0.000303365 -0.000843876 -8.13482e-11 1.90727e-10 -2.24022e-10 5e-05 1.46608e-10 
137 1 0.302294 0.0177901 0.00709378 0.00613665 -0.000143438 -0.000156382 3.88261e-10 7.96778e-10 -1.27353e-10 5e-05 1.46608e-10 
138 1 0.302308 0.0178376 0.00698214 0.0063298 -7.53608e-05 0.000128722 1.24993e-10 -5.28738e-10 3.73725e-10 5e-05 1.46608e-10 
140 1 0.302181 0.0173065 0.00722552 0.00618584 1.98543e-05 0.000124326 1.01514e-12 5.95574e-11 -2.75104e-11 5e-05 1.46608e-10 
141 1 0.296183 0.0166261 0.0078572 0.00572947 0.000301012 -0.000800979 -1.78775e-10 5.92213e-11 -4.1482e-11 5e-05 1.46608e-10 
142 1 0.296563 0.0177425 0.00707342 0.00640015 0.000673079 3.65382e-05 -1.1051e-11 -9.99132e-11 2.87898e-11 5e-05 1.46608e-10 
143 1 0.295772 0.0158738 0.00858074 0.00627524 0.000517315 -0.000588788 -6.17498e-12 -1.13471e-10 1.01296e-10 5e-05 1.46608e-10 
144 1 0.296507 0.0175561 0.00711907 0.00639463 0.000672548 3.63117e-05 -1.40642e-11 -9.40457e-11 2.33662e-11 5e-05 1.46608e-10 
146 1 0.295865 0.0161642 0.00832258 0.00653759 0.000466921 -0.00055185 -1.71356e-11 3.77012e-11 5.95736e-11 5e-05 1.46608e-10 
147 1 0.296357 0.0176838 0.00708151 0.00638816 0.000649774 4.34974e-05 -3.66919e-11 -9.90292e-11 1.50191e-11 5e-05 1.46608e-10 
148 1 0.2962 0.0166968 0.0077887 0.00577247 0.000292963 -0.000797356 -1.09907e-10 6.73894e-11 -5.23026e-11 5e-05 1.46608e-10 
149 1 0.302041 0.0166847 0.00751483 0.00567668 9.72125e-05 7.61942e-05 6.47362e-11 8.08355e-12 -5.4668e-11 5e-05 1.46608e-10 
150 1 0.296469 0.0186024 0.00686515 0.00602413 0.000819721 -0.000214622 1.25886e-10 7.80684e-10 -9.54613e-10 5e-05 1.46608e-10 
151 1 0.296489 0.0182527 0.00694348 0.00586423 0.000704734 1.11153e-05 3.01254e-11 -3.73394e-10 1.10511e-10 5e-05 1.46608e-10 
153 1 0.296219 0.0167673 0.00772026 0.00583414 0.000281822 -0.000792636 6.31772e-12 7.6557e-11 -6.71082e-11 5e-05 1.46608e-10 
154 1 0.295842 0.0160916 0.00838717 0.00668807 0.000441932 -0.000529787 5.00335e-11 -6.61782e-11 5.04968e-11 5e-05 1.46608e-10 
155 1 0.295889 0.0162348 0.0082557 0.00646344 0.000391392 -0.00065271 -6.80922e-11 2.57186e-10 1.5904e-10 5e-05 1.46608e-10 
156 1 0.296164 0.0165557 0.00792557 0.00568179 0.000311206 -0.000806378 -1.885e-10 4.51823e-11 -3.53693e-11 5e-05 1.46608e-10 
157 1 0.0219312 0.0187687 0.00551176 -3.83357e-14 8.16573e-14 2.9589e-13 1.10436e-21 4.42438e-22 1.94387e-23 5e-05 1.46608e-10 
158 1 0.296257 0.0169081 0.00758351 0.00597985 0.00025453 -0.000779993 -4.38623e-11 1.39165e-10 -1.20833e-10 5e-05 1.46608e-10 
159 1 0.302331 0.0171873 0.0072835 0.00593696 -1.53562e-05 0.000135553 -1.57517e-10 9.23109e-12 -8.41014e-11 5e-05 1.46608e-10 
160 1 0.296372 0.018128 0.00699252 0.00637332 0.00061747 4.03214e-05 2.42323e-11 -2.81462e-11 8.65368e-11 5e-05 1.46608e-10 
162 1 0.296542 0.0181818 0.00705882 0.00617722 0.000783196 0.000154871 9.31847e-11 -1.28469e-10 5.83867e-11 5e-05 1.46608e-10 
164 1 0.295955 0.0164434 0.00805065 0.00620558 0.000223481 -0.00090484 1.09863e-10 2.55114e-11 -1.39543e-10 5e-05 1.46608e-10 
165 1 0.296584 0.0182848 0.00693849 0.0058538 0.000652038 2.80005e-05 1.66613e-11 1.21714e-10 6.97963e-11 5e-05 1.46608e-10 
166 1 0.30233 0.0179334 0.0069633 0.00633026 -7.83306e-05 0.000122802 1.63587e-11 1.94961e-10 1.02771e-11 5e-05 1.46608e-10 
167 1 0.29643 0.018407 0.0069038 0.00588612 0.000680494 5.64879e-06 1.39823e-10 1.60649e-10 1.16309e-11 5e-05 1.46608e-10 
168 1 0.296546 0.0185389 0.00687375 0.00601839 0.000771616 -6.94936e-06 -3.51088e-10 -1.70618e-11 4.71949e-11 5e-05 1.46608e-10 
169 1 0.296449 0.0185022 0.0068798 0.00594076 0.000675676 1.36481e-05 6.40106e-11 5.36864e-10 2.46525e-11 5e-05 1.46608e-10 
170 1 0.296528 0.0184434 0.00689704 0.00593042 0.000705717 1.97314e-06 -4.66084e-10 1.55382e-10 1.01584e-10 5e-05 1.46608e-10 
171 1 0.302508 0.018355 0.0069144 0.00551282 -0.000115185 -0.000191182 1.37538e-10 -9.62031e-11 -3.42061e-11 5e-05 1.46608e-10 
172 1 0.296221 0.0174703 0.00715802 0.00637549 0.000617228 -0.000116039 2.00497e-11 1.66612e-10 5.16045e-10 5e-05 1.46608e-10 
173 1 0.302543 0.0180936 0.00693447 0.00557743 7.21224e-05 8.06865e-05 -1.85287e-10 3.85021e-11 -4.36616e-10 5e-05 1.46608e-10 
174 1 0.295991 0.0165846 0.00791372 0.00567726 0.000387126 -0.000877869 -1.50966e-10 8.33618e-11 -3.60237e-11 5e-05 1.46608e-10 
176 1 0.296274 0.0173123 0.0072004 0.00626542 0.000438695 -0.000986738 -5.90661e-11 2.22997e-11 -7.14311e-11 5e-05 1.46608e-10 
177 1 0.29599 0.0162548 0.00822605 0.00645109 0.000189621 -0.000760693 -2.41992e-11 1.02861e-11 -1.82046e-11 5e-05 1.46608e-10 
178 1 0.296356 0.017869 0.00712315 0.00642032 0.000631358 4.91696e-05 1.16755e-10 -1.27292e-10 3.01702e-11 5e-05 1.46608e-10 
179 1 0.296428 0.0182783 0.00701874 0.00591133 0.000770458 2.20251e-05 1.34836e-10 -2.46163e-10 1.62533e-10 5e-05 1.46608e-10 
182 1 0.302453 0.0185182 0.00690716 0.00569784 -0.000203693 -0.00019164 -2.51504e-11 -8.39525e-11 4.24935e-12 5e-05 1.46608e-10 
183 1 0.296394 0.0180732 0.00707407 0.00628593 0.000655115 0.000104107 1.43661e-10 -1.16145e-12 -1.25487e-10 5e-05 1.46608e-10 
184 1 0.302421 0.0181556 0.00701619 0.00380023 -0.000120574 -0.00158847 -1.6714e-10 6.52399e-11 -5.29167e-10 5e-05 1.46608e-10 
185 1 0.296533 0.0176498 0.00709564 0.00639375 0.000675778 3.62097e-05 -2.74142e-12 -1.20604e-10 2.41569e-11 5e-05 1.46608e-10 
186 1 0.296826 0.0181941 0.00696895 0.00585693 0.000508251 6.05786e-05 8.88148e-11 -1.92994e-10 2.13896e-11 5e-05 1.46608e-10 
187 1 0.302468 0.0181595 0.00692814 0.0054842 -0.000116379 -0.00068062 -2.51905e-10 -3.20675e-10 -3.69771e-10 5e-05 1.46608e-10 
188 1 0.302298 0.0174238 0.00717103 0.0062778 -5.49532e-05 -0.000135445 -7.80591e-11 -2.13382e-10 -1.16115e-09 5e-05 1.46608e-10 
189 1 0.302413 0.0183227 0.00691965 0.00566369 -0.000127498 -0.000197011 -1.35032e-10 2.8423e-11 -1.52484e-10 5e-05 1.46608e-10 
190 1 0.290398 0.0182539 0.00695658 0.0055763 -0.000585388 0.000161708 3.04733e-11 2.81061e-11 -1.21632e-12 5e-05 1.46608e-10 
191 1 0.302061 0.0167711 0.00746845 0.00568346 0.00011096 7.18403e-05 1.05586e-10 4.73856e-11 -4.8882e-11 5e-05 1.46608e-10 
192 1 0.296264 0.0176597 0.00711068 0.0063878 0.000665697 8.62853e-05 5.41931e-11 2.34713e-11 2.44723e-10 5e-05 1.46608e-10 
193 1 0.302529 0.0184527 0.00690816 0.00570893 -0.000179722 -0.000194068 -1.40747e-10 -1.21536e-10 1.50537e-11 5e-05 1.46608e-10 
194 1 0.296491 0.0180974 0.00707537 0.00627315 0.000725743 0.000200062 6.05662e-11 -1.53243e-10 4.13249e-11 5e-05 1.46608e-10 
195 1 0.29647 0.0181573 0.00696672 0.00575797 0.000771004 -1.17957e-05 -3.7309e-11 -3.1778e-10 7.18842e-11 5e-05 1.46608e-10 
196 1 0.2965 0.0179027 0.00703136 0.0064061 0.000655884 4.16827e-05 1.44978e-10 -1.59953e-11 2.17319e-11 5e-05 1.46608e-10 
197 1 0.290067 0.0168624 0.00758282 0.00580293 -3.05472e-05 0.00114348 2.46553e-11 -1.42445e-10 1.26141e-10 5e-05 1.46608e-10 
198 1 0.296409 0.0171363 0.00735385 0.00622018 0.000225192 -0.000772436 -4.68263e-11 6.70139e-11 -7.88764e-11 5e-05 1.46608e-10 
199 1 0.296428 0.0181844 0.00705329 0.00606977 0.000815606 0.000124194 2.35476e-10 -2.7018e-10 1.18166e-10 5e-05 1.46608e-10 
200 1 0.295794 0.0159467 0.00851599 0.006884 0.000399911 -0.000501171 4.20762e-10 -1.76168e-10 1.32276e-10 5e-05 1.46608e-10 
201 1 0.296564 0.0181894 0.00696172 0.00583191 0.00066468 2.09024e-05 1.30458e-10 -3.5028e-10 -8.20873e-11 5e-05 1.46608e-10 
202 1 0.296276 0.0169786 0.00751508 0.00604627 0.000243773 -0.000775816 3.88777e-11 1.18394e-10 -1.20903e-10 5e-05 1.46608e-10 
203 1 0.302385 0.0177779 0.00700857 0.00603335 -0.000212237 1.14273e-05 -7.60134e-10 -5.80894e-11 -3.41031e-10 5e-05 1.46608e-10 
204 1 0.296596 0.0179339 0.00702663 0.00640469 0.000676903 3.4618e-05 2.32945e-10 -5.4507e-11 4.36117e-11 5e-05 1.46608e-10 
205 1 0.296124 0.0167475 0.00774754 0.00581554 0.000328701 -0.000835626 5.92208e-11 4.16261e-11 -4.43118e-11 5e-05 1.46608e-10 
206 1 0.296162 0.0168884 0.00761074 0.00595905 0.000310308 -0.000829843 -8.02299e-12 6.94313e-11 -7.45869e-11 5e-05 1.46608e-10 
207 1 0.296052 0.0164651 0.00802138 0.00583056 0.000313834 -0.000822275 -1.97189e-10 5.53107e-11 -4.48509e-11 5e-05 1.46608e-10 
208 1 0.296447 0.0172837 0.00722459 0.00630931 0.000371518 -0.000584242 -4.84579e-11 -1.19962e-12 -1.07158e-10 5e-05 1.46608e-10 
209 1 0.296367 0.017334 0.00717046 0.00626129 0.000453642 -0.000993348 -1.75111e-12 -1.01117e-10 9.01137e-11 5e-05 1.46608e-10 
210 1 0.302156 0.016801 0.00745677 0.00569482 0.000120021 6.82409e-05 2.33447e-10 3.56328e-12 4.62432e-12 5e-05 1.46608e-10 
211 1 0.302175 0.0168903 0.00741625 0.00571083 0.000126487 6.52145e-05 8.9542e-11 5.09428e-12 -2.49059e-11 5e-05 1.46608e-10 
212 1 0.296659 0.0182214 0.00695675 0.00585222 0.000631305 3.00608e-05 -2.4956e-10 -6.93286e-11 4.5708e-11 5e-05 1.46608e-10 
213 1 0.302392 0.0182248 0.0069259 0.00572872 0.000221682 -0.00025946 -1.52959e-09 5.70407e-10 1.18942e-09 5e-05 1.46608e-10 
214 1 0.302256 0.017247 0.00725449 0.00603064 4.66555e-05 7.18109e-05 -1.45654e-10 -2.48889e-10 4.73296e-11 5e-05 1.46608e-10 
215 1 0.290297 0.0177805 0.00702303 0.00615695 -0.000569153 0.00037049 -1.4134e-10 5.85752e-11 -6.91471e-12 5e-05 1.46608e-10 
216 1 0.296033 0.0163946 0.00808983 0.00620164 0.000245783 -0.000790201 -1.32063e-10 3.49629e-11 -2.26822e-11 5e-05 1.46608e-10 
217 1 0.302473 0.0186159 0.00690092 0.00571971 -0.000217595 -0.000191747 -8.58572e-11 -3.45947e-10 2.35144e-11 5e-05 1.46608e-10 
218 1 0.296307 0.0178406 0.00704071 0.00641012 0.000635349 5.17033e-05 3.84951e-11 -6.20732e-12 1.55618e-11 5e-05 1.46608e-10 
219 1 0.302022 0.0165929 0.00754932 0.00570299 8.57404e-05 8.67792e-05 -3.12404e-11 5.21398e-11 -4.80539e-11 5e-05 1.46608e-10 
220 1 0.296426 0.0179676 0.00701277 0.00640433 0.000638499 4.66863e-05 3.16094e-11 -3.66625e-11 3.82566e-11 5e-05 1.46608e-10 
222 1 0.30249 0.0174775 0.00713865 0.00595066 -0.000298271 3.63608e-05 -4.56294e-10 4.77811e-10 -3.09788e-10 5e-05 1.46608e-10 
224 1 0.2962 0.0170293 0.00747397 0.00609533 0.000280878 -0.000815039 4.23201e-11 8.80777e-11 -8.84118e-11 5e-05 1.46608e-10 
225 1 0.3021 0.0169497 0.00738737 0.00565371 0.000108101 7.24306e-05 -2.80464e-12 1.58932e-11 -7.92813e-12 5e-05 1.46608e-10 
226 1 0.296451 0.0179033 0.00711869 0.00641477 0.000660188 4.42054e-05 -4.05413e-12 -1.24729e-10 2.58291e-11 5e-05 1.46608e-10 
227 1 0.290318 0.0178669 0.0069772 0.00620406 -0.000576842 0.000376739 2.58353e-11 1.50777e-11 -1.10722e-11 5e-05 1.46608e-10 
228 1 0.290254 0.0176079 0.00711464 0.00612728 -0.000553566 0.000395879 5.09127e-12 1.41289e-10 -9.79841e-11 5e-05 1.46608e-10 
229 1 0.296677 0.0183217 0.00693225 0.00585154 0.000553839 5.43834e-05 -5.02757e-10 -9.54547e-11 -5.73104e-11 5e-05 1.46608e-10 
230 1 0.296103 0.0170081 0.00750381 0.00606652 0.000332018 -0.000854332 8.81575e-12 4.19747e-11 3.07368e-11 5e-05 1.46608e-10 
232 1 0.296539 0.0182767 0.00702729 0.0059733 0.000774495 0.00011359 3.3755e-11 8.49699e-11 2.62593e-10 5e-05 1.46608e-10 
233 1 0.29641 0.0183115 0.00692624 0.00586051 0.000697875 1.43287e-05 3.75096e-12 -6.52367e-11 1.0698e-10 5e-05 1.46608e-10 
234 1 0.302461 0.0178775 0.00706059 0.00622813 -0.000360363 8.60021e-05 -7.18391e-10 1.31332e-10 -9.51456e-11 5e-05 1.46608e-10 
235 1 0.296065 0.0168668 0.00763997 0.0059144 0.000352874 -0.000866991 3.53125e-11 3.98781e-11 -3.76262e-11 5e-05 1.46608e-10 
236 1 0.296159 0.0172191 0.00729796 0.00624269 0.000299898 -0.000841995 -1.06452e-11 2.04549e-11 6.64816e-13 5e-05 1.46608e-10 
237 1 0.296178 0.0172915 0.00723176 0.00622213 0.000413247 -0.000723799 -7.92654e-11 5.05482e-11 -1.15691e-11 5e-05 1.46608e-10 
239 1 0.289965 0.0164485 0.00784424 0.00535948 1.73536e-05 0.00103215 3.43957e-10 -2.94416e-10 2.05045e-10 5e-05 1.46608e-10 
240 1 0.290026 0.0166969 0.00768717 0.00576245 1.37001e-05 0.00112095 -2.51135e-10 2.20426e-10 -1.47152e-10 5e-05 1.46608e-10 
241 1 0.289946 0.0163656 0.0078967 0.00537221 1.37881e-05 0.0010396 -1.33274e-11 4.73311e-13 -8.31229e-13 5e-05 1.46608e-10 
242 1 0.296333 0.0168545 0.00762745 0.00590902 0.000274494 -0.000792481 -4.53307e-11 1.355e-10 -1.27824e-10 5e-05 1.46608e-10 
243 1 0.296478 0.0178077 0.00705441 0.00643173 0.00065014 4.38826e-05 1.63822e-10 -1.52948e-10 3.11891e-11 5e-05 1.46608e-10 
244 1 0.289985 0.0165313 0.00779178 0.00544969 3.8009e-05 0.00103857 1.57457e-10 -4.95445e-10 4.14294e-10 5e-05 1.46608e-10 
246 1 0.290171 0.0172761 0.00732192 0.00603522 -3.34651e-05 0.00121008 -3.16872e-10 -1.36568e-10 7.6656e-11 5e-05 1.46608e-10 
247 1 0.296008 0.0166554 0.00784516 0.00572966 0.000378954 -0.000874974 -2.52234e-11 4.04914e-11 -4.15408e-11 5e-05 1.46608e-10 
248 1 0.296313 0.0174943 0.00712748 0.00638463 0.000683756 3.43175e-05 2.98696e-11 -4.58483e-11 1.17076e-10 5e-05 1.46608e-10 
249 1 0.290109 0.0170278 0.00747846 0.00593958 -2.35946e-05 0.00118272 3.34912e-10 3.48763e-10 -8.7799e-12 5e-05 1.46608e-10 
250 1 0.296086 0.0166066 0.00788434 0.00570188 0.000345339 -0.00084103 -6.24731e-11 4.59721e-11 -3.82891e-11 5e-05 1.46608e-10 
251 1 0.302362 0.0176841 0.00703461 0.00615394 -0.000235808 -2.62804e-05 -1.17369e-10 -9.1487e-11 -3.70109e-10 5e-05 1.46608e-10 
252 1 0.290192 0.0173588 0.00726974 0.00607553 -3.67767e-05 0.00122483 -1.18168e-10 1.7304e-10 -3.5463e-11 5e-05 1.46608e-10 
253 1 0.290378 0.0181561 0.00695182 0.00557048 -0.000581486 -0.000111685 7.44776e-11 3.21456e-11 -2.7931e-10 5e-05 1.46608e-10 
254 1 0.290129 0.0171106 0.00742628 0.00594101 -5.08742e-05 0.00119517 3.38415e-10 1.52005e-10 1.07635e-10 5e-05 1.46608e-10 
255 1 0.295709 0.0156545 0.00877555 0.00604408 0.000545528 -0.00060909 -6.29836e-11 -2.16831e-10 1.90336e-10 5e-05 1.46608e-10 
256 1 0.296618 0.0180287 0.00700364 0.00593646 0.00078642 -1.25634e-05 3.80485e-11 -3.41915e-11 -1.74754e-11 5e-05 1.46608e-10 
257 1 0.296238 0.0168378 0.00765185 0.00590942 0.00026717 -0.000785629 -6.13713e-12 1.07705e-10 -9.08497e-11 5e-05 1.46608e-10 
258 1 0.296291 0.0173995 0.00715048 0.0063926 0.000682981 3.43525e-05 2.11143e-12 -7.9062e-11 1.67399e-11 5e-05 1.46608e-10 
259 1 0.290212 0.0174415 0.00721757 0.00609933 -5.86788e-05 0.00122828 -4.52763e-10 3.13211e-10 -4.7732e-11 5e-05 1.46608e-10 