ITEM: TIMESTEP
1000000
ITEM: NUMBER OF ATOMS
482
ITEM: BOX BOUNDS ff ff ff
-0.02 0.43
-0.02 0.06
-0.02 0.07
ITEM: ATOMS id type x y z vx vy vz fx fy fz radius mass 
1 1 0.0219228 0.0230168 0.0150477 -0.00173131 0.00358395 -0.00381025 9.31956e-06 -2.88841e-05 9.9905e-06 0.0005 5.23599e-07 
2 1 0.0187871 0.0149147 0.0131275 0.0111937 0.00317557 -0.00321103 -2.28543e-05 -1.71394e-05 -2.90868e-05 0.0005 5.23599e-07 
3 1 0.0126465 0.0180358 0.0158344 0.000710492 0.00974442 0.00245925 0 0 -5.1365e-06 0.0005 5.23599e-07 
4 1 0.01783 0.0148368 0.0128495 -0.00187379 0.00593102 0.0214409 -1.93662e-06 1.0418e-05 0.000119927 0.0005 5.23599e-07 
5 1 0.024896 0.0167426 0.015316 -0.0011824 0.0188462 0.00761753 0 0 -5.1365e-06 0.0005 5.23599e-07 
6 1 0.0174136 0.0158287 0.0145591 -0.00184813 -0.000868297 0.00232638 5.52681e-05 1.32491e-05 2.59388e-05 0.0005 5.23599e-07 
7 1 0.0178335 0.0142491 0.0135936 -0.000713043 0.00129367 0.0119651 7.01372e-05 -1.46121e-05 9.47485e-05 0.0005 5.23599e-07 
8 1 0.0250658 0.0218781 0.0165104 0.00254668 -0.000481913 0.00105487 -7.19884e-05 -2.25524e-05 -8.71e-07 0.0005 5.23599e-07 
9 1 0.0216481 0.0240647 0.0137013 3.18824e-05 0.00403175 -0.00612311 1.39903e-05 -2.62315e-05 3.10814e-05 0.0005 5.23599e-07 
10 1 0.0182631 0.0240764 0.0129047 -0.00025208 0.000116383 0.00296381 6.31235e-05 -1.23005e-05 -9.77888e-05 0.0005 5.23599e-07 
11 1 0.0153947 0.0226812 0.0154891 0.00159866 -0.000400796 0.00184007 -4.24362e-05 -4.28973e-05 -3.26065e-05 0.0005 5.23599e-07 
12 1 0.0199658 0.0190571 0.00717941 -0.000493653 -0.0041534 -0.00163804 5.47659e-06 5.92735e-05 -3.90174e-06 0.0005 5.23599e-07 
13 1 0.0173293 0.0240464 0.0132098 0.000439709 -0.0119366 0.00188331 -7.37871e-05 4.97208e-05 9.73399e-06 0.0005 5.23599e-07 
14 1 0.0211946 0.0234319 0.0119945 0.00128109 -0.0010255 -0.015702 1.08277e-05 -2.5383e-06 2.2938e-05 0.0005 5.23599e-07 
15 1 0.0230188 0.0173471 0.0156088 -0.00578914 0.0140448 0.00279457 -0.000238698 -0.000948357 -0.000203188 0.0005 5.23599e-07 
16 1 0.0185904 0.0137571 0.0139072 -0.00118508 -0.00218327 -0.00152714 8.88993e-05 5.12501e-05 8.22754e-05 0.0005 5.23599e-07 
17 1 0.0218782 0.0239 0.0147052 -0.00376604 0.00137627 -0.00392554 -4.66414e-05 -2.49854e-07 -1.18404e-05 0.0005 5.23599e-07 
18 1 0.0207169 0.0236172 0.014901 0.00138385 -0.00104147 -0.0196117 -3.22977e-05 1.0681e-05 7.70586e-05 0.0005 5.23599e-07 
19 1 0.0192851 0.0175351 0.00754817 -0.0249476 -3.68115 -5.19321 -0.0181422 -0.419152 -1.08403 0.0005 5.23599e-07 
20 1 0.0234749 0.0155164 0.014408 0.0014515 0.0211679 -0.000816122 0 0 -5.1365e-06 0.0005 5.23599e-07 
21 1 0.0198692 0.0230651 0.0149329 0.00544426 0.0113616 -0.016357 0 0 -5.1365e-06 0.0005 5.23599e-07 
22 1 0.022705 0.0187992 0.0159356 0.0072766 -0.00310728 -0.00614609 0 0 -5.1365e-06 0.0005 5.23599e-07 
23 1 0.0181796 0.0244396 0.0138072 0.00212387 0.00106604 -0.00150559 -1.1785e-05 -2.99785e-05 -8.00531e-05 0.0005 5.23599e-07 
24 1 0.023258 0.0164251 0.0150855 0.00217825 0.0150447 0.00990192 0 0 -5.1365e-06 0.0005 5.23599e-07 
25 1 0.0224567 0.0175183 0.0170651 0.0871761 -0.0365755 0.182827 0 0 -5.1365e-06 0.0005 5.23599e-07 
26 1 0.01928 0.0238717 0.0147927 0.00314554 -0.0014513 -0.00152202 1.1238e-05 4.06189e-05 1.0752e-05 0.0005 5.23599e-07 
27 1 0.0199643 0.0244652 0.0135949 0.000734656 -0.00217169 -0.00584763 4.56584e-05 -6.82638e-05 0.000193501 0.0005 5.23599e-07 
28 1 0.0211894 0.014183 0.0134577 0.00186149 -0.00202791 0.0156488 0 0 -5.1365e-06 0.0005 5.23599e-07 
29 1 0.0175027 0.0229505 0.0140703 0.0096838 0.00194922 0.0027942 0.000100276 -7.9416e-06 -2.90601e-05 0.0005 5.23599e-07 
30 1 0.0207693 0.0242253 0.0141103 -0.00048304 0.00667249 -0.00977851 -3.17296e-05 1.73417e-05 5.32234e-05 0.0005 5.23599e-07 
31 1 0.0197595 0.0199626 0.00730073 -0.000238618 -0.0233318 -0.00611548 -6.28428e-06 2.34206e-06 -7.47894e-06 0.0005 5.23599e-07 
32 1 0.0217016 0.0233994 0.0111435 7.60784e-05 0.000294808 -0.0113566 -1.77549e-06 -2.59648e-07 1.1705e-06 0.0005 5.23599e-07 
33 1 0.0241852 0.0160035 0.0149521 0.00901589 0.0136038 0.00216059 -4.07357e-05 3.23912e-06 1.08269e-05 0.0005 5.23599e-07 
34 1 0.020849 0.0232447 0.0104589 0.000425421 -0.00597638 -0.0241983 1.50465e-07 -2.44964e-06 -9.1052e-06 0.0005 5.23599e-07 
35 1 0.0222894 0.0231952 0.0130932 0.000197289 -0.000793532 -4.33866e-06 -1.95863e-05 2.0806e-05 -8.78641e-07 0.0005 5.23599e-07 
36 1 0.0207839 0.0240606 0.0131489 0.00169266 0.000779341 -0.00291595 -6.79584e-05 -5.59301e-06 4.67048e-05 0.0005 5.23599e-07 
37 1 0.0234673 0.0174056 0.0165475 -0.0643523 -0.0190352 0.011001 1.62594e-05 -9.96916e-05 2.71095e-05 0.0005 5.23599e-07 
38 1 0.0196063 0.0147661 0.0136819 -0.00118166 0.0071614 0.0206224 0 0 -5.1365e-06 0.0005 5.23599e-07 
39 1 0.0265094 0.0226448 0.00908693 0.00308528 -0.00651307 -0.0100533 2.77099e-05 4.11317e-06 6.22045e-07 0.0005 5.23599e-07 
40 1 0.0238385 0.0227725 0.0152661 -9.65456e-05 0.00412465 0.00139769 -7.33174e-06 3.39067e-05 2.16835e-05 0.0005 5.23599e-07 
41 1 0.0167232 0.0240775 0.0139834 -0.000122355 -0.0016141 0.00233685 3.86794e-05 4.43915e-05 1.74392e-05 0.0005 5.23599e-07 
42 1 0.0234983 0.0147994 0.0152821 0.0210047 0.00432433 0.0243762 2.81358e-06 -6.70729e-06 -9.81105e-06 0.0005 5.23599e-07 
43 1 0.0150198 0.0232296 0.0147449 0.000783619 -0.00208569 0.00114628 -1.67044e-05 2.16164e-05 1.4172e-05 0.0005 5.23599e-07 
44 1 0.0187752 0.0152343 0.0150771 -0.00568382 -0.0233105 -0.00217916 8.26793e-05 0.000161649 0.000123951 0.0005 5.23599e-07 
45 1 0.0236012 0.0151917 0.013461 0.000940614 0.0143375 0.0227819 -1.87774e-05 -9.61136e-05 -9.20049e-05 0.0005 5.23599e-07 
46 1 0.0205793 0.0234598 0.0158783 -0.0140949 0.00764677 -0.0180253 -6.26957e-06 -7.25678e-06 2.1097e-05 0.0005 5.23599e-07 
47 1 0.0163103 0.0177075 0.0166286 0.00742522 0.00646421 -0.00335205 0 0 -5.1365e-06 0.0005 5.23599e-07 
48 1 0.0239972 0.0170998 0.0155959 0.0145592 0.08123 0.00582598 0 0 -5.1365e-06 0.0005 5.23599e-07 
49 1 0.0187056 0.0146224 0.0119369 5.41003e-06 -0.00108694 0.00179574 2.23866e-10 -2.74095e-08 -1.79691e-08 0.0005 5.23599e-07 
50 1 0.0231651 0.0233089 0.0147162 -0.00102793 0.00173852 0.000256041 2.40984e-05 3.3768e-05 2.51804e-05 0.0005 5.23599e-07 
51 1 0.0157685 0.0223078 0.016337 0.00399557 0.0105654 0.00748318 -1.43773e-06 -6.19073e-05 -4.50246e-05 0.0005 5.23599e-07 
52 1 0.0207612 0.0229112 0.009554 0.000408615 -0.0111736 -0.0215636 -1.78398e-06 -1.37895e-06 -1.78246e-06 0.0005 5.23599e-07 
53 1 0.0243701 0.0149699 0.0101598 0.000394098 -0.00920305 0.0221173 -9.36099e-08 1.16608e-07 -4.42256e-07 0.0005 5.23599e-07 
54 1 0.0213898 0.0232634 0.0128863 0.0032226 0.00626655 -0.0139991 -7.83203e-06 -5.82196e-06 1.46918e-05 0.0005 5.23599e-07 
55 1 0.0244972 0.0221849 0.0157565 0.00133468 0.00162293 0.000165914 -3.65932e-05 4.58123e-05 -7.46515e-07 0.0005 5.23599e-07 
56 1 0.0260989 0.0212509 0.0078482 -0.000119025 -0.0215803 -0.0143345 -8.7685e-09 -3.85359e-08 3.82084e-08 0.0005 5.23599e-07 
57 1 0.0181722 0.0235881 0.0141093 0.00761017 0.00235349 6.807e-05 -6.40055e-05 2.32829e-05 -7.57466e-05 0.0005 5.23599e-07 
58 1 0.0190021 0.0165633 0.0079788 0.000396144 -0.017718 0.0122868 -1.50377e-07 -7.04622e-08 2.80006e-07 0.0005 5.23599e-07 
59 1 0.0131495 0.0215818 0.0193183 -0.0136522 -0.0143474 -0.0393546 0 0 -5.1365e-06 0.0005 5.23599e-07 
60 1 0.0187725 0.0157472 0.00871446 0.000253262 -0.0165918 0.0189073 8.96977e-08 1.48706e-07 -1.63394e-07 0.0005 5.23599e-07 
61 1 0.0176205 0.0152384 0.0137809 0.00210138 0.00251276 -0.00257385 -8.65883e-05 -8.04291e-05 1.45953e-06 0.0005 5.23599e-07 
62 1 0.0224969 0.0235592 0.0139816 -0.00353476 0.00183806 -0.00147216 -3.22627e-05 -4.24746e-06 -2.23743e-05 0.0005 5.23599e-07 
63 1 0.0236327 0.0218844 0.0155006 0.00123805 0.00863023 -0.000366825 -2.49417e-05 1.84459e-05 3.09032e-05 0.0005 5.23599e-07 
64 1 0.0202729 0.0140552 0.0130529 0.0154102 -0.0285085 0.0276478 -3.79641e-05 0.000431397 -0.000136217 0.0005 5.23599e-07 
65 1 0.0195364 0.0136636 0.0136017 0.00185446 -0.000342128 -0.00107498 -5.94208e-05 -2.53623e-05 0.000112932 0.0005 5.23599e-07 
66 1 0.0222935 0.0240617 0.0182488 -0.0208822 0.0301451 0.0816575 0 0 -5.1365e-06 0.0005 5.23599e-07 
67 1 0.0238652 0.0219354 0.0164771 0.00751963 0.00291973 -0.00664876 -0.000144562 7.19824e-05 -1.4913e-05 0.0005 5.23599e-07 
68 1 0.0246781 0.020899 0.01817 0.00267832 -0.00777309 -5.21789e-05 -1.51851e-06 5.18212e-06 3.60226e-06 0.0005 5.23599e-07 
69 1 0.0193181 0.0241155 0.0129209 0.00371027 -0.0028187 0.0113799 6.97818e-05 -3.81856e-05 0.000182677 0.0005 5.23599e-07 
70 1 0.0250662 0.0169187 0.00775254 0.00125428 -0.0199076 0.0124601 -8.3422e-07 1.21472e-05 -7.99952e-06 0.0005 5.23599e-07 
71 1 0.0176701 0.0230841 0.0151447 -0.00689043 -0.0025501 -0.00342393 8.1937e-06 -9.45078e-06 2.98275e-05 0.0005 5.23599e-07 
72 1 0.0201522 0.0146894 0.0145197 0.00493352 0.0458193 0.0241115 0 0 -5.1365e-06 0.0005 5.23599e-07 
73 1 0.0174049 0.0201123 0.0159373 0.00345442 0.012832 0.00201364 -1.01451e-05 3.19782e-05 -2.37166e-05 0.0005 5.23599e-07 
74 1 0.0190745 0.0237948 0.0138172 0.0033255 0.00284215 0.00579823 0.000118483 0.000134372 5.48119e-05 0.0005 5.23599e-07 
75 1 0.0183428 0.0238465 0.0188346 0.0228246 -0.0210849 -0.0496792 0 0 -5.1365e-06 0.0005 5.23599e-07 
76 1 0.0204146 0.0224619 0.0155268 0.014739 -0.00952308 0.00107824 0 0 -5.1365e-06 0.0005 5.23599e-07 
77 1 0.0165893 0.022783 0.0139148 0.00594245 0.00596073 -0.00153664 3.12967e-05 6.02653e-05 0.000113506 0.0005 5.23599e-07 
78 1 0.0228054 0.020504 0.0165897 0.0197495 -0.0090309 -0.0294938 3.77659e-05 -0.000203135 4.98734e-05 0.0005 5.23599e-07 
79 1 0.0213216 0.0177203 0.0173876 -0.317688 -0.410192 0.612499 0 0 -5.1365e-06 0.0005 5.23599e-07 
80 1 0.0230034 0.02237 0.0144694 -0.00118387 0.00347569 -0.00136047 1.78576e-05 2.77492e-05 -4.90302e-06 0.0005 5.23599e-07 
81 1 0.0158059 0.0235593 0.0152598 -0.00136586 -0.000779478 0.00143191 1.80279e-05 2.39965e-05 -3.36558e-06 0.0005 5.23599e-07 
82 1 0.0212312 0.0238937 0.0169779 -0.0124262 -0.000460458 -0.00892199 -2.20725e-06 -8.64392e-06 2.71637e-06 0.0005 5.23599e-07 
83 1 0.0233377 0.0174725 0.0200936 -0.119234 -0.0376179 0.570388 0 0 -5.1365e-06 0.0005 5.23599e-07 
84 1 0.0234085 0.0172243 0.0182371 -0.0750774 -0.0813579 0.172515 0 0 -5.1365e-06 0.0005 5.23599e-07 
85 1 0.0204412 0.0137937 0.0140064 0.0100241 0.00868255 -0.00623328 -1.47946e-05 4.38726e-05 -7.59216e-05 0.0005 5.23599e-07 
86 1 0.0129629 0.0170032 0.0209021 0.0415058 -0.0357929 -0.0229082 0 0 -5.1365e-06 0.0005 5.23599e-07 
87 1 0.0229061 0.0146653 0.014488 0.011129 0.00461902 0.0138248 -2.81358e-06 6.70729e-06 -4.61953e-07 0.0005 5.23599e-07 
88 1 0.0222747 0.0207359 0.0158127 0.00281745 0.00692331 -0.0170371 -4.2163e-05 3.4619e-05 0.000166929 0.0005 5.23599e-07 
89 1 0.0168812 0.0221312 0.0148432 0.00320152 0.00524534 -0.00463943 9.13587e-05 -2.06069e-05 1.29847e-06 0.0005 5.23599e-07 
90 1 0.0223556 0.0228644 0.0163862 -0.0196041 -0.00219495 -0.0155996 0 0 -5.1365e-06 0.0005 5.23599e-07 
91 1 0.0184801 0.0168792 0.0162948 0.0111853 0.0278737 0.00913268 0.000144724 1.59009e-05 3.5572e-05 0.0005 5.23599e-07 
92 1 0.0164936 0.0197328 0.0159109 0.00293039 0.0194625 0.000205715 5.61287e-05 -2.58298e-05 -2.48705e-05 0.0005 5.23599e-07 
93 1 0.0199944 0.0236197 0.0141091 0.00450786 0.00241742 0.00265707 -5.14793e-06 -0.000145926 6.65379e-05 0.0005 5.23599e-07 
94 1 0.0175645 0.023057 0.0163767 -0.000757973 0.0144523 0.00224603 0 0 -5.1365e-06 0.0005 5.23599e-07 
95 1 0.0179161 0.0172035 0.0155379 -0.00152339 0.0267651 0.0126691 5.70773e-06 4.34549e-05 8.4301e-05 0.0005 5.23599e-07 
96 1 0.0193318 0.0234256 0.0158201 -0.0354028 0.0067756 -0.0445308 0 0 -5.1365e-06 0.0005 5.23599e-07 
97 1 0.0187423 0.0177381 0.0157507 0.00928155 0.00855403 0.0142068 -1.75015e-05 -1.2606e-05 6.57192e-05 0.0005 5.23599e-07 
98 1 0.0142325 0.0228101 0.0151963 -0.000377532 -0.00134007 -0.00165389 -5.67893e-06 -6.71453e-06 2.23999e-06 0.0005 5.23599e-07 
99 1 0.0251272 0.0205909 0.019032 0.0122303 -0.0226061 -0.000218272 0 0 -5.1365e-06 0.0005 5.23599e-07 
100 1 0.01805 0.0207119 0.0175921 0.000380244 0.0182333 0.0145748 0 0 -5.1365e-06 0.0005 5.23599e-07 
101 1 0.0226983 0.0222189 0.0154817 0.00178292 0.00806761 -0.000923799 9.28399e-06 3.47e-05 1.27939e-05 0.0005 5.23599e-07 
102 1 0.0169617 0.0175637 0.0157025 -0.00117589 0.0300248 0.00645105 2.3382e-05 5.82455e-06 2.46521e-05 0.0005 5.23599e-07 
103 1 0.0212726 0.0234452 0.014075 -0.00038955 0.0116974 -0.0174471 1.06527e-06 -1.89999e-06 5.49457e-05 0.0005 5.23599e-07 
104 1 0.0183732 0.0244083 0.0172086 -0.00939255 0.00355935 -0.000498534 -6.59268e-06 1.1829e-06 -8.92073e-06 0.0005 5.23599e-07 
105 1 0.0175951 0.0220187 0.0181274 -0.0266762 -0.00150527 0.00723794 -3.34325e-06 2.19332e-05 6.67881e-05 0.0005 5.23599e-07 
106 1 0.0183319 0.0161054 0.0148461 -0.00663296 0.00576703 0.00777348 6.48194e-05 -4.51211e-06 0.000179777 0.0005 5.23599e-07 
107 1 0.0156241 0.0230578 0.0135204 0.00153427 -0.00043892 -0.000996201 -4.10754e-06 6.50871e-06 1.2932e-05 0.0005 5.23599e-07 
108 1 0.0163043 0.0250587 0.0204942 0.017715 -0.146943 -0.156254 0 0 -5.1365e-06 0.0005 5.23599e-07 
109 1 0.0247931 0.0178957 0.0157878 0.0170851 -0.0697286 -0.017644 -2.53798e-06 6.45706e-06 2.67152e-05 0.0005 5.23599e-07 
110 1 0.0219806 0.0227691 0.0139343 -0.004699 0.00305542 -0.0018897 -4.57729e-05 -3.17668e-06 2.45446e-06 0.0005 5.23599e-07 
111 1 0.0170485 0.0236139 0.0157226 -0.0163482 0.0108734 -0.0181376 0 0 -5.1365e-06 0.0005 5.23599e-07 
112 1 0.0184245 0.0196917 0.0159391 0.00317831 0.0148541 0.00459803 -5.02385e-05 5.70264e-05 5.31395e-05 0.0005 5.23599e-07 
113 1 0.0138608 0.0213608 0.0163074 -0.00159643 -0.00582476 -0.00456645 7.51478e-06 4.91174e-05 -4.00267e-05 0.0005 5.23599e-07 
114 1 0.0159083 0.023616 0.0142829 -0.000962889 -6.36519e-05 0.00102717 5.90828e-05 5.65748e-06 4.21718e-05 0.0005 5.23599e-07 
115 1 0.0174252 0.0239332 0.0146792 0.0015787 -0.000916153 0.00321161 -3.21531e-05 -7.9701e-06 -3.02215e-05 0.0005 5.23599e-07 
116 1 0.0183857 0.0237047 0.0156032 -0.000440345 0.00177307 0.00543441 -1.17478e-07 7.38687e-08 -4.34867e-06 0.0005 5.23599e-07 
117 1 0.0192116 0.0155271 0.0142265 0.0164807 0.0137785 -0.00168203 -0.000128743 -0.000161515 0.000173336 0.0005 5.23599e-07 
118 1 0.0220491 0.0221603 0.0146552 0.000955989 0.00632673 -0.00429931 -3.74678e-07 -1.6482e-05 8.25776e-06 0.0005 5.23599e-07 
119 1 0.0242985 0.0201501 0.0158058 0.00757973 0.0150912 -0.00344829 -9.07779e-06 -3.80195e-05 -1.18928e-06 0.0005 5.23599e-07 
120 1 0.0224766 0.0197836 0.0159983 0.00572069 0.00766704 -0.0447417 -1.8082e-06 -1.82075e-05 -0.000123543 0.0005 5.23599e-07 
121 1 0.0246666 0.0159389 0.0158719 0.0113188 0.0168988 -0.0021295 4.12357e-06 1.4362e-05 -8.70388e-06 0.0005 5.23599e-07 
122 1 0.0199557 0.0228416 0.0163555 -0.00381774 0.00155524 -0.0072167 -1.90221e-05 -5.48798e-06 3.01841e-06 0.0005 5.23599e-07 
123 1 0.0214124 0.0223125 0.0156645 -0.00124059 0.022235 -0.0141295 -3.42439e-08 2.71313e-07 -3.9623e-06 0.0005 5.23599e-07 
124 1 0.0220699 0.0144321 0.0150159 -0.0138563 0.029399 0.0197724 0 0 -5.1365e-06 0.0005 5.23599e-07 
125 1 0.0220569 0.0144194 0.0140152 0.0155629 0.00489555 0.0103611 0 0 -5.1365e-06 0.0005 5.23599e-07 
126 1 0.0125152 0.0190319 0.0159749 0.0126896 -0.0137507 -0.01162 0 0 -5.1365e-06 0.0005 5.23599e-07 
127 1 0.0229941 0.0231038 0.0156488 0.000144942 0.00319028 0.00141118 2.04326e-05 2.82836e-05 1.47531e-05 0.0005 5.23599e-07 
128 1 0.0251018 0.0182011 0.0172625 -0.0296954 0.0313262 0.00608785 0 0 -5.1365e-06 0.0005 5.23599e-07 
129 1 0.0138235 0.0222947 0.0159509 -0.000410299 -0.00193143 0.000336445 -1.37506e-06 2.67698e-06 -1.36241e-05 0.0005 5.23599e-07 
130 1 0.0236318 0.018096 0.0158441 -0.0094739 -0.0930448 -0.0183979 0.000220899 0.000987646 0.000208445 0.0005 5.23599e-07 
131 1 0.0186432 0.0231037 0.0148466 -0.00145052 -0.00255416 0.00966305 -1.10237e-05 3.60111e-05 -1.97418e-06 0.0005 5.23599e-07 
132 1 0.019308 0.0224675 0.0155059 -0.027633 0.00437135 -0.0219815 3.17745e-05 -2.04242e-05 3.91176e-06 0.0005 5.23599e-07 
133 1 0.0215732 0.0233665 0.0159165 -0.0067294 0.00927621 -0.00358884 5.12749e-05 -8.14594e-07 8.61192e-06 0.0005 5.23599e-07 
134 1 0.0237578 0.0155246 0.0159201 0.0156237 0.0391346 -0.000976915 -4.12357e-06 -1.4362e-05 -1.56913e-06 0.0005 5.23599e-07 
135 1 0.026118 0.0193194 0.01726 -0.00304971 0.000772286 -0.00925661 -8.58023e-06 -3.26062e-07 6.15689e-06 0.0005 5.23599e-07 
136 1 0.0233465 0.0208567 0.0173798 -0.00848634 -0.00335921 -0.0163139 0 0 -5.1365e-06 0.0005 5.23599e-07 
137 1 0.0197156 0.0146232 0.0119356 5.43099e-06 -0.0010915 0.0018008 2.36565e-10 -4.3099e-08 3.6577e-08 0.0005 5.23599e-07 
138 1 0.0230657 0.0213935 0.0162753 0.00814006 0.00654344 -0.00882693 -9.69393e-05 -0.000163695 0.000182096 0.0005 5.23599e-07 
139 1 0.0220327 0.0215469 0.015355 0.00203489 0.0103756 -0.00743522 1.33409e-05 -8.91457e-06 3.84849e-05 0.0005 5.23599e-07 
140 1 0.0167395 0.023214 0.0148035 -0.0121866 0.0048812 -0.0022659 4.53238e-05 5.61435e-06 6.01931e-05 0.0005 5.23599e-07 
141 1 0.0248593 0.0198051 0.0181008 -0.00606384 0.0105064 0.0112758 2.44661e-05 3.40876e-05 -7.25309e-06 0.0005 5.23599e-07 
142 1 0.0256782 0.0175226 0.0167179 0.0110112 1.69532e-05 0.0234221 -3.93259e-07 1.27563e-06 -4.76741e-06 0.0005 5.23599e-07 
143 1 0.0235662 0.0194661 0.0159296 0.0017181 0.0275163 0.0686025 0 0 -5.1365e-06 0.0005 5.23599e-07 
144 1 0.0147763 0.0220009 0.0158813 0.00120634 -0.00401869 0.001901 -4.55845e-06 -1.13115e-05 -4.27832e-06 0.0005 5.23599e-07 
145 1 0.0216022 0.0245538 0.019019 0.00295955 0.0506651 0.0143022 0 0 -5.1365e-06 0.0005 5.23599e-07 
146 1 0.0200759 0.0156087 0.0155282 0.0531624 0.152489 0.177815 0 0 -5.1365e-06 0.0005 5.23599e-07 
147 1 0.0192469 0.016089 0.0158905 0.03215 -0.013535 -0.0272163 3.42324e-05 -0.000109671 0.000154335 0.0005 5.23599e-07 
148 1 0.0183703 0.0227115 0.0157518 -0.00969104 -0.00227585 -0.00177397 -1.81929e-05 5.95953e-05 3.90348e-05 0.0005 5.23599e-07 
149 1 0.0219676 0.0156871 0.0160072 0.00830456 -0.0143287 -0.00103276 0 0 -5.1365e-06 0.0005 5.23599e-07 
150 1 0.0199278 0.0241498 0.0162405 -0.00293384 0.000886188 -0.0115814 0 0 -5.1365e-06 0.0005 5.23599e-07 
151 1 0.0196579 0.021884 0.0162426 0.00729285 0.00737123 -0.0139626 -2.92321e-05 -1.24715e-05 -1.63608e-05 0.0005 5.23599e-07 
153 1 0.017482 0.0147619 0.0161464 -0.0359368 -0.0613283 0.0238811 -2.01266e-05 0.000231792 3.19221e-05 0.0005 5.23599e-07 
154 1 0.018839 0.0248146 0.018033 0.00391493 -0.00385996 0.000251224 0 0 -5.1365e-06 0.0005 5.23599e-07 
155 1 0.0166079 0.0206641 0.0162759 0.00294296 0.0166732 -0.00746881 -2.33741e-05 -5.15054e-05 2.24176e-06 0.0005 5.23599e-07 
156 1 0.0184896 0.0148476 0.0140786 0.00413284 0.00758408 -0.00510603 -6.76848e-05 -4.61018e-05 -2.29391e-05 0.0005 5.23599e-07 
157 1 0.00961482 0.0156783 0.041379 -0.043019 -0.152298 0.650556 0 0 -5.1365e-06 0.0005 5.23599e-07 
159 1 0.0146428 0.018035 0.0171996 0.0166243 0.0461439 -0.0982292 0 0 -5.1365e-06 0.0005 5.23599e-07 
160 1 0.0168601 0.0238939 0.0166659 0.000247089 0.00054043 0.00318212 -4.91728e-06 1.66382e-05 -2.57358e-05 0.0005 5.23599e-07 
161 1 0.016186 0.0210776 0.0154697 0.00148575 0.010591 0.00104267 -2.8577e-05 -1.73045e-05 -2.02795e-05 0.0005 5.23599e-07 
162 1 0.0239079 0.0209817 0.015508 0.00654608 0.0140334 -0.00617062 -4.75175e-05 1.26322e-06 -2.12061e-06 0.0005 5.23599e-07 
163 1 0.0155423 0.0213373 0.0162774 -0.0108942 0.0104649 0.00211656 -3.39747e-05 -5.40828e-06 2.04054e-05 0.0005 5.23599e-07 
164 1 0.0182088 0.0206295 0.0156924 0.0031887 0.0127423 0.00530063 -1.44055e-05 7.70582e-05 -1.09682e-05 0.0005 5.23599e-07 
165 1 0.0181319 0.0221816 0.0167874 -0.0141069 0.0110089 -0.00162838 2.54686e-05 1.93335e-05 -2.89761e-05 0.0005 5.23599e-07 
166 1 0.023438 0.0163311 0.0176204 0.058341 -0.0637181 0.0459467 0 0 -5.1365e-06 0.0005 5.23599e-07 
168 1 0.0257899 0.0200601 0.0166552 0.00155475 0.00428567 0.0053869 -8.79207e-06 -4.50696e-05 -7.92991e-06 0.0005 5.23599e-07 
169 1 0.0175077 0.0235226 0.0181781 -0.0168442 -0.0153585 0.0162482 0 0 -5.1365e-06 0.0005 5.23599e-07 
170 1 0.0165713 0.0218858 0.0159134 -0.00947857 0.00409227 0.00180881 -7.99875e-05 -1.37879e-05 9.71426e-06 0.0005 5.23599e-07 
171 1 0.0171802 0.0209914 0.0155231 0.00267275 0.0108 0.00567721 -2.664e-05 1.92201e-05 -1.58366e-05 0.0005 5.23599e-07 
172 1 0.0178122 0.0222151 0.0146148 0.00526691 0.00111998 -0.00149743 8.85994e-05 -7.00427e-05 0.000119304 0.0005 5.23599e-07 
173 1 0.0180021 0.0214844 0.0152474 0.00159614 0.00887342 -0.00285673 6.2863e-05 -1.8554e-05 4.67085e-05 0.0005 5.23599e-07 
174 1 0.0154376 0.0212304 0.0172654 -0.0143418 -0.00360146 0.00255133 -1.2412e-05 6.73145e-06 4.14827e-05 0.0005 5.23599e-07 
175 1 0.0159635 0.0219718 0.0150829 0.00386687 0.00360928 -0.00390644 -2.33738e-05 6.87788e-06 -9.73291e-05 0.0005 5.23599e-07 
176 1 0.0232543 0.0215073 0.0182115 -0.0168176 -0.00685562 0.00192902 1.73203e-06 -1.402e-05 2.40293e-05 0.0005 5.23599e-07 
177 1 0.0157687 0.0225033 0.014278 0.00556765 0.00278617 -0.00241127 -1.19803e-05 5.19529e-05 6.21137e-05 0.0005 5.23599e-07 
178 1 0.0221511 0.0147729 0.0166181 0.0236259 -0.0166385 -0.00741809 0 0 -5.1365e-06 0.0005 5.23599e-07 
179 1 0.0233347 0.0164848 0.0161036 0.0151125 -0.119894 -0.0791749 0 0 -5.1365e-06 0.0005 5.23599e-07 
180 1 0.0245375 0.0192246 0.0159253 0.00324656 0.0208214 -0.00258776 1.54595e-05 -3.05389e-05 2.662e-06 0.0005 5.23599e-07 
181 1 0.0193664 0.0245229 0.0172184 -0.0116053 -0.00459921 3.55452e-05 -6.64801e-07 5.2525e-06 -2.59408e-06 0.0005 5.23599e-07 
182 1 0.0131269 0.0194583 0.0189743 0.112773 -0.0240709 0.0177747 0 0 -5.1365e-06 0.0005 5.23599e-07 
183 1 0.0213513 0.0216945 0.0169595 0.0419192 0.0427019 -0.00705438 2.29746e-05 -4.04426e-05 8.00191e-06 0.0005 5.23599e-07 
184 1 0.0229364 0.0212851 0.0153078 0.00101929 0.0117276 -0.00795691 1.21686e-06 -2.28581e-05 8.0676e-05 0.0005 5.23599e-07 
186 1 0.0199773 0.0217319 0.0171779 -0.0273559 -0.00835895 -0.0289881 3.46275e-05 2.29378e-05 8.89763e-06 0.0005 5.23599e-07 
187 1 0.0258996 0.0184975 0.0167299 0.00278514 0.0124384 -0.00227859 7.21577e-06 -1.23386e-05 -1.08899e-05 0.0005 5.23599e-07 
188 1 0.0230158 0.0195898 0.0167717 -0.00395845 -0.0116888 -0.0586794 6.56843e-05 -0.000287276 -0.000285235 0.0005 5.23599e-07 
189 1 0.0161453 0.0232026 0.0165697 0.00081439 0.0077576 0.00290382 3.97067e-05 -1.89263e-05 2.8244e-05 0.0005 5.23599e-07 
190 1 0.022636 0.0147918 0.0174964 0.033633 -0.0214922 0.0455467 0 0 -5.1365e-06 0.0005 5.23599e-07 
191 1 0.0165148 0.020335 0.0187044 0.0125646 0.0516539 -0.0361578 0 0 -5.1365e-06 0.0005 5.23599e-07 
192 1 0.0168349 0.0146629 0.0145168 0.00488143 -0.00650953 -0.0121503 0 0 -5.1365e-06 0.0005 5.23599e-07 
193 1 0.0205004 0.0208588 0.0173379 -0.0182212 0.0316577 0.0225869 3.90302e-05 -2.242e-05 -8.52551e-06 0.0005 5.23599e-07 
194 1 0.0242473 0.016579 0.0165611 0.00911103 0.0406149 0.0217717 0 0 -5.1365e-06 0.0005 5.23599e-07 
195 1 0.0195992 0.0146098 0.0153502 0.00357099 0.0495173 0.0241625 -1.17141e-06 -1.11486e-06 -4.14497e-06 0.0005 5.23599e-07 
196 1 0.0225888 0.015283 0.0152425 0.0111658 0.00135393 0.0151977 0 0 -5.1365e-06 0.0005 5.23599e-07 
197 1 0.0188858 0.0136559 0.0171542 -0.048149 -0.0850922 0.0810391 0 0 -5.1365e-06 0.0005 5.23599e-07 
198 1 0.0206271 0.0147203 0.0154184 -0.0236833 0.0476998 0.0681585 0 0 -5.1365e-06 0.0005 5.23599e-07 
200 1 0.0188273 0.0168228 0.0153596 0.00415676 0.0087593 0.0135733 -5.09346e-05 2.1968e-05 8.32519e-05 0.0005 5.23599e-07 
201 1 0.0254847 0.0209818 0.0164143 0.00207347 0.00174782 0.00329615 -1.40896e-05 -2.51358e-05 -2.83405e-05 0.0005 5.23599e-07 
202 1 0.0211447 0.0146362 0.0143708 0.0213408 0.0254534 0.0308379 0 0 -5.1365e-06 0.0005 5.23599e-07 
203 1 0.0174793 0.0222589 0.0157307 -0.0116574 -0.00161111 -0.00288806 0.000108579 6.73071e-05 -1.18813e-05 0.0005 5.23599e-07 
204 1 0.018803 0.0142679 0.0148272 0.00392264 0.00418708 -0.00396467 1.79297e-05 -0.000105273 -0.000102459 0.0005 5.23599e-07 
205 1 0.0180605 0.0203798 0.0166488 0.00458099 0.00574942 0.00913659 -1.30916e-05 -6.44131e-06 -2.20828e-06 0.0005 5.23599e-07 
206 1 0.0252299 0.0166892 0.0163833 0.0130567 0.00393121 0.00524406 0 0 -5.1365e-06 0.0005 5.23599e-07 
207 1 0.0243106 0.0182933 0.0166224 -0.00160422 -0.0582786 -0.0277988 0 0 -5.1365e-06 0.0005 5.23599e-07 
208 1 0.0168262 0.0141772 0.013609 0.000790042 -0.00288865 0.0146169 0 0 -5.1365e-06 0.0005 5.23599e-07 
209 1 0.0203438 0.0181627 0.0171135 -0.0168313 0.112561 0.275638 0 0 -5.1365e-06 0.0005 5.23599e-07 
210 1 0.0199097 0.0247972 0.0181477 -0.11752 0.0531157 0.00710782 0 0 -5.1365e-06 0.0005 5.23599e-07 
211 1 0.0177082 0.0141008 0.0145558 0.00959654 -0.00452478 0.00918281 -7.20029e-05 -8.37726e-05 -5.3686e-05 0.0005 5.23599e-07 
212 1 0.0207523 0.0171011 0.0167037 -0.0734459 -0.195984 0.183039 0 0 -5.1365e-06 0.0005 5.23599e-07 
213 1 0.0231805 0.02038 0.0157114 0.00760401 0.0192652 -0.0131985 -2.53235e-05 -5.48602e-06 1.69414e-05 0.0005 5.23599e-07 
214 1 0.0233834 0.0188607 0.0179039 -0.162033 0.0331186 -0.137482 -6.8969e-05 0.000237612 -5.82313e-06 0.0005 5.23599e-07 
215 1 0.0171047 0.0222138 0.0166939 -0.00948601 0.0250055 0.00142451 0 0 -5.1365e-06 0.0005 5.23599e-07 
216 1 0.0157322 0.0159948 0.0164632 -0.0244822 0.00516071 0.0114435 -0.000391931 5.13449e-05 0.000158956 0.0005 5.23599e-07 
217 1 0.0184647 0.0157058 0.0175712 0.0948899 0.142733 0.0442015 0 0 -5.1365e-06 0.0005 5.23599e-07 
219 1 0.0190015 0.0225947 0.0165172 -0.00420884 -0.00669881 0.00363387 4.39121e-06 -8.60233e-06 1.44389e-05 0.0005 5.23599e-07 
220 1 0.0180055 0.0180287 0.0173928 -0.0192975 -3.60579e-05 0.0102543 0 0 -5.1365e-06 0.0005 5.23599e-07 
221 1 0.0157516 0.0189904 0.0168729 -0.0226787 0.00870135 -0.0478312 0 0 -5.1365e-06 0.0005 5.23599e-07 
222 1 0.0235161 0.0230341 0.0188241 0.0104803 0.0774171 0.135982 0 0 -5.1365e-06 0.0005 5.23599e-07 
223 1 0.0145506 0.0206665 0.0165101 -0.0403718 0.00527033 -0.0197905 2.02764e-05 3.41508e-05 8.90199e-07 0.0005 5.23599e-07 
225 1 0.0221633 0.0218753 0.0163069 -0.0131363 0.00214232 0.0214119 0 0 -5.1365e-06 0.0005 5.23599e-07 
226 1 0.012318 0.0197719 0.0167255 0.0189472 0.0309211 0.0147557 0 0 -5.1365e-06 0.0005 5.23599e-07 
227 1 0.0251577 0.0189339 0.0185442 0.00684366 0.0280533 0.0269484 0 0 -5.1365e-06 0.0005 5.23599e-07 
228 1 0.0198767 0.0209507 0.0165264 -0.00364635 0.00455823 0.00153669 -2.51351e-05 6.49048e-05 -9.98849e-07 0.0005 5.23599e-07 
229 1 0.012964 0.0170859 0.015962 0.0131459 0.00635708 -0.0303166 0 0 -5.1365e-06 0.0005 5.23599e-07 
230 1 0.0243337 0.0218776 0.018342 0.0142103 0.00679211 0.0137212 0 0 -5.1365e-06 0.0005 5.23599e-07 
231 1 0.0162858 0.0198496 0.0169147 -0.0108239 0.0482334 0.0132466 3.05828e-05 -3.74569e-05 8.40475e-07 0.0005 5.23599e-07 
232 1 0.0156994 0.0150944 0.0153666 0.0011645 0.00416217 0.0241773 0 0 -5.1365e-06 0.0005 5.23599e-07 
233 1 0.012953 0.0209524 0.0163855 -0.00409221 -0.00906308 0.00960224 -0.000113642 -5.03666e-05 1.27722e-05 0.0005 5.23599e-07 
234 1 0.0173235 0.0183809 0.0167498 0.0189358 0.0651415 0.0399119 -1.24754e-05 1.07408e-05 9.2099e-05 0.0005 5.23599e-07 
235 1 0.019403 0.0234515 0.016942 -0.012604 -0.00511198 -0.000563671 0 0 -5.1365e-06 0.0005 5.23599e-07 
236 1 0.0180165 0.0146209 0.0153319 -0.00224564 -0.0259991 0.0293174 -8.98214e-05 -0.00012744 -3.08194e-05 0.0005 5.23599e-07 
238 1 0.0237651 0.0204812 0.0165319 0.00340333 0.0135638 -0.0174872 4.83355e-05 -0.000101363 5.7975e-05 0.0005 5.23599e-07 
239 1 0.0163738 0.0228332 0.015653 0.00337917 -0.00357442 -0.000775958 0 0 -5.1365e-06 0.0005 5.23599e-07 
240 1 0.0244513 0.021152 0.0163191 0.00437235 0.00560201 -0.00123151 -0.000136517 -1.28644e-05 -4.31163e-05 0.0005 5.23599e-07 
241 1 0.0145817 0.0184369 0.0226362 -0.00615883 -0.143321 -0.0871953 0 0 -5.1365e-06 0.0005 5.23599e-07 
242 1 0.0237041 0.0195175 0.0174111 -0.0296371 0.0148815 -0.0492411 -0.000124435 0.000136211 -0.000130688 0.0005 5.23599e-07 
243 1 0.0174073 0.0242463 0.0174248 -0.009042 -0.00552651 0.00143246 1.37332e-05 9.17641e-06 2.56378e-06 0.0005 5.23599e-07 
244 1 0.0203447 0.0243357 0.0171319 -0.0106148 0.0079094 -0.00537893 7.25748e-06 -6.43541e-06 -3.89471e-06 0.0005 5.23599e-07 
245 1 0.0171761 0.0153393 0.0153938 -0.020403 -0.0562332 -0.0105976 -3.53153e-05 -7.22266e-05 -6.8484e-06 0.0005 5.23599e-07 
246 1 0.0192456 0.0183237 0.0167113 0.0286939 0.0349851 0.000582485 -1.78206e-06 1.21868e-06 -9.05652e-07 0.0005 5.23599e-07 
247 1 0.0252096 0.0192204 0.0167518 -0.00373209 0.0146078 0.000377295 9.67013e-05 4.10215e-05 9.23282e-05 0.0005 5.23599e-07 
248 1 0.0146617 0.0216768 0.01682 -0.0102438 -0.00564028 -0.000269832 -1.30422e-06 -4.86942e-06 9.39825e-06 0.0005 5.23599e-07 
249 1 0.018481 0.0236272 0.0178406 -0.0456434 0.0288622 0.0113861 -9.95606e-06 -2.5939e-05 1.74552e-06 0.0005 5.23599e-07 
250 1 0.0144063 0.0152004 0.0150634 -0.0268318 -0.011527 -0.00926522 0 0 -5.1365e-06 0.0005 5.23599e-07 
251 1 0.0192117 0.015047 0.0178397 0.0637678 0.000598626 -0.448201 -0.000684356 0.000191422 0.00285211 0.0005 5.23599e-07 
252 1 0.0177585 0.018967 0.0179831 -0.0503863 -0.0558454 -0.0700215 0 0 -5.1365e-06 0.0005 5.23599e-07 
253 1 0.0182909 0.0221515 0.018885 0.0677971 -0.0300064 -0.0649077 0 0 -5.1365e-06 0.0005 5.23599e-07 
254 1 0.02368 0.0221271 0.0175531 0.00845112 0.00608882 0.0263236 -1.73203e-06 1.402e-05 -3.43023e-05 0.0005 5.23599e-07 
255 1 0.0243675 0.0167617 0.01857 0.0370081 -0.0185412 0.194282 0 0 -5.1365e-06 0.0005 5.23599e-07 
256 1 0.0244073 0.0174213 0.0174071 -0.0122279 0.0140897 0.11675 0 0 -5.1365e-06 0.0005 5.23599e-07 
257 1 0.0221809 0.0235822 0.0170654 -0.00129035 -0.00133619 -0.00115533 -2.55326e-05 1.4171e-05 1.96376e-05 0.0005 5.23599e-07 
259 1 0.0174307 0.0199238 0.0177794 0.00848016 0.0555995 0.0465975 0 0 -5.1365e-06 0.0005 5.23599e-07 
260 1 0.0198023 0.0174261 0.0165143 -0.0321886 0.0160466 0.0149207 0 0 -5.1365e-06 0.0005 5.23599e-07 