ITEM: TIMESTEP
2000000
ITEM: NUMBER OF ATOMS
763
ITEM: BOX BOUNDS ff ff ff
-0.02 0.43
-0.02 0.06
-0.02 0.07
ITEM: ATOMS id type x y z vx vy vz fx fy fz radius mass 
1 1 0.018899 0.0238769 0.0160342 0.00526362 0.013342 0.00709462 0 0 -5.1365e-06 0.0005 5.23599e-07 
2 1 0.0212368 0.0232671 0.0130496 0.00483035 -0.00113907 -0.00208168 3.41014e-06 -8.41582e-06 9.97926e-06 0.0005 5.23599e-07 
3 1 0.0157288 0.0224407 0.0143987 0.00994183 0.000762825 -0.00281237 2.60501e-07 -1.69108e-06 -6.3498e-06 0.0005 5.23599e-07 
4 1 0.0204585 0.0221415 0.00854759 -0.00433787 -0.0109732 -0.00959121 5.02238e-05 8.64012e-06 5.59238e-05 0.0005 5.23599e-07 
5 1 0.0370004 0.0186565 0.0057314 -2.3676e-14 4.23972e-11 8.51872e-12 -3.03557e-14 1.51534e-13 3.21315e-14 0.0005 5.23599e-07 
6 1 0.0167748 0.0229557 0.0148639 0.00409523 0.00137148 -0.00233296 -1.54784e-05 1.07405e-06 -8.75189e-06 0.0005 5.23599e-07 
7 1 0.0148092 0.0192835 0.0174131 -0.0326632 0.00741633 -0.00639679 4.15414e-05 -1.35798e-05 1.04395e-05 0.0005 5.23599e-07 
8 1 0.0250012 0.0219955 0.0165646 -0.000377118 -0.00108382 0.000804839 1.51094e-05 -3.26659e-05 2.67819e-05 0.0005 5.23599e-07 
9 1 0.021468 0.0240676 0.0134848 0.000655496 -0.000879124 0.000141822 -4.85562e-06 -3.59828e-06 9.47909e-07 0.0005 5.23599e-07 
10 1 0.0187918 0.0240563 0.0124745 -0.000248893 0.00279304 -0.00823203 3.73894e-08 1.18764e-07 6.76165e-07 0.0005 5.23599e-07 
11 1 0.020094 0.0240787 0.0260426 0.13184 -0.121528 -0.0394066 0 0 -5.1365e-06 0.0005 5.23599e-07 
12 1 0.0211344 0.0224401 0.0155507 0.00783064 0.00709508 -0.00414758 5.90894e-06 -3.42815e-06 3.59902e-06 0.0005 5.23599e-07 
13 1 0.017258 0.0240048 0.0130036 0.0010239 0.000814613 -0.00129331 -2.88119e-07 -3.98045e-07 2.61088e-06 0.0005 5.23599e-07 
14 1 0.0223379 0.017791 0.0166237 0.00784043 -0.00231979 0.00710839 0 0 -5.1365e-06 0.0005 5.23599e-07 
15 1 0.0242657 0.0224402 0.0190563 -0.0446177 0.00751632 -0.0239798 0 0 -5.1365e-06 0.0005 5.23599e-07 
16 1 0.0184364 0.0146185 0.0119431 0.0018346 -0.00122929 0.00147654 3.22799e-06 -1.73771e-06 -1.93506e-06 0.0005 5.23599e-07 
17 1 0.0217603 0.0237589 0.0149624 -0.000922106 -6.81902e-05 0.000868143 4.58744e-05 1.38952e-05 -1.47686e-05 0.0005 5.23599e-07 
18 1 0.0203318 0.0244341 0.0173872 -0.00401235 -0.00654062 -0.0106633 -0.000117997 -0.000217174 0.000304972 0.0005 5.23599e-07 
19 1 0.0200137 0.0140271 0.0129973 0.00292353 -0.000173318 0.00119313 2.57038e-06 -1.36296e-06 -5.81167e-07 0.0005 5.23599e-07 
20 1 0.0264195 0.0179603 0.00594902 -3.86246e-16 -6.16795e-17 6.30453e-15 -7.94093e-22 6.75641e-21 0 0.0005 5.23599e-07 
21 1 0.0172816 0.0247148 0.0189506 0.00628854 -0.00486589 -0.0155925 -7.89145e-06 9.5453e-06 5.18171e-05 0.0005 5.23599e-07 
23 1 0.0186337 0.0244818 0.0137279 0.000357588 0.00035946 -0.0018595 1.02691e-06 -9.53443e-07 -6.34004e-07 0.0005 5.23599e-07 
24 1 0.0254769 0.0194507 0.00719587 0.00129753 -0.0218013 -0.00308639 1.9932e-08 2.1291e-08 7.60623e-08 0.0005 5.23599e-07 
25 1 0.0135318 0.0216298 0.0185342 -0.00365306 0.00311948 0.010021 1.31922e-05 -2.51255e-06 -7.16945e-06 0.0005 5.23599e-07 
26 1 0.0225797 0.0206268 0.0183944 -0.0175283 0.00827108 -0.0651283 0 0 -5.1365e-06 0.0005 5.23599e-07 
27 1 0.0200688 0.0245056 0.0136448 -0.000395913 -9.21494e-05 -0.000626118 3.67969e-08 -2.9699e-07 -1.51772e-06 0.0005 5.23599e-07 
28 1 0.0234832 0.017538 0.016494 0.00350035 -0.0111052 -0.0317304 0 0 -5.1365e-06 0.0005 5.23599e-07 
29 1 0.020231 0.0195328 0.0071937 0.000158252 -0.0183494 -0.00348094 -3.48738e-07 -1.71103e-05 6.10844e-07 0.0005 5.23599e-07 
30 1 0.0208459 0.0241777 0.0142408 -6.38891e-05 -0.000425517 -0.00118568 -1.58928e-06 -4.22312e-06 2.40165e-06 0.0005 5.23599e-07 
31 1 0.0220464 0.0209263 0.0155726 0.00658629 -0.00792978 0.00470453 -1.13624e-05 2.27029e-05 -1.06412e-05 0.0005 5.23599e-07 
32 1 0.023174 0.0169538 0.0154244 0.00378372 0.0142792 0.00828571 -4.55169e-08 3.81836e-08 -3.77524e-06 0.0005 5.23599e-07 
33 1 0.0246182 0.0220249 0.0156986 -0.000462071 -0.0028102 0.000443321 4.43886e-06 -9.22654e-05 6.23614e-05 0.0005 5.23599e-07 
34 1 0.0224859 0.0190197 0.0159447 0.0107097 -0.00223899 -0.000736047 7.96357e-07 -1.09507e-06 -5.58225e-06 0.0005 5.23599e-07 
35 1 0.0234738 0.0152116 0.0134996 0.000390499 0.00417343 0.0113647 2.61472e-05 -0.000103204 -0.000136806 0.0005 5.23599e-07 
36 1 0.020889 0.0239924 0.01263 -0.00298165 -1.05863e-05 -0.00270961 6.00838e-07 -1.11846e-06 4.18512e-07 0.0005 5.23599e-07 
37 1 0.0211106 0.012687 0.0201036 0.0343457 0.0251363 -0.029811 0 0 -5.1365e-06 0.0005 5.23599e-07 
38 1 0.0127 0.019857 0.0193735 0.00197653 0.00979782 0.0120687 3.52937e-05 -1.65929e-05 -0.00015173 0.0005 5.23599e-07 
39 1 0.0276773 0.022022 0.0145221 0.000403322 0.017005 -0.0175456 -9.56035e-09 -1.59305e-08 -5.83321e-08 0.0005 5.23599e-07 
40 1 0.0221599 0.0230045 0.0154951 0.014375 0.00998109 -0.00282438 3.28153e-05 -9.05772e-06 -5.14731e-05 0.0005 5.23599e-07 
41 1 0.0171104 0.0243407 0.0139314 -0.000848027 -0.000647968 -1.47462e-05 9.25929e-06 5.93774e-06 -5.64108e-06 0.0005 5.23599e-07 
42 1 0.0241358 0.0153998 0.0155361 -0.00932246 -0.00241269 -0.00942972 3.33557e-06 1.93324e-06 -3.44104e-06 0.0005 5.23599e-07 
43 1 0.0160012 0.0236093 0.0141019 -0.000543889 -0.000354691 -0.000395961 2.61592e-06 2.79279e-06 -6.40164e-07 0.0005 5.23599e-07 
44 1 0.0182177 0.0221018 0.0161416 -0.00150603 0.0120954 -0.00818161 6.20042e-06 1.05111e-05 -1.67592e-05 0.0005 5.23599e-07 
45 1 0.0259607 0.0213255 0.00793972 -5.46063e-05 -0.0210418 -0.0146289 -6.08432e-09 -4.81198e-08 3.62234e-08 0.0005 5.23599e-07 
46 1 0.0244805 0.0200594 0.0174123 0.0016129 -0.0213638 0.00850886 5.69633e-05 0.00022223 -0.00021714 0.0005 5.23599e-07 
48 1 0.0199981 0.0146668 0.0204476 -0.0827807 0.125081 -0.183516 0 0 -5.1365e-06 0.0005 5.23599e-07 
49 1 0.0187708 0.0209485 0.0163858 0.0176477 0.013214 -0.00509079 -2.67477e-06 -1.93523e-06 7.2744e-06 0.0005 5.23599e-07 
50 1 0.0227522 0.0238217 0.0148026 0.000677559 -3.14006e-05 -0.000470075 -1.28921e-05 3.2007e-06 -1.5128e-05 0.0005 5.23599e-07 
51 1 0.0168427 0.0190847 0.0174853 0.0195415 -0.00376716 0.00238334 -4.7543e-05 3.13818e-05 -4.01549e-05 0.0005 5.23599e-07 
52 1 0.0218366 0.020646 0.0165082 0.00331827 -0.00420373 0.00560658 -1.74073e-05 -2.95516e-05 5.3681e-05 0.0005 5.23599e-07 
53 1 0.0251111 0.0214109 0.016094 -0.000540376 -0.00243059 0.00165435 1.43176e-05 -9.87039e-05 6.56682e-05 0.0005 5.23599e-07 
54 1 0.0233024 0.0155564 0.0144925 -0.0120274 0.0122902 0.0456791 0 0 -5.1365e-06 0.0005 5.23599e-07 
55 1 0.0243061 0.022589 0.0160557 -0.000246488 -0.000716265 -0.000246133 -2.23514e-05 -4.74987e-05 2.72338e-05 0.0005 5.23599e-07 
56 1 0.0271976 0.0232157 0.0127043 0.000983338 0.00563285 -0.0134752 3.50554e-08 -1.01412e-07 7.99941e-08 0.0005 5.23599e-07 
57 1 0.0186495 0.0236045 0.0140234 -0.000292322 8.16345e-05 -0.00351019 1.91466e-06 8.93317e-07 -1.56826e-06 0.0005 5.23599e-07 
58 1 0.0221908 0.0217803 0.0150858 -0.00493624 -0.00883562 0.00166275 -1.13504e-05 -8.71795e-06 -8.1061e-06 0.0005 5.23599e-07 
59 1 0.0169408 0.018372 0.0167918 0.0244588 0.0120336 0.00630182 8.9124e-06 -1.84302e-05 -8.7689e-05 0.0005 5.23599e-07 
60 1 0.0201418 0.0225625 0.0154291 0.00466233 0.00841488 -0.00933583 -2.55e-06 -1.2483e-05 1.53548e-05 0.0005 5.23599e-07 
61 1 0.0235321 0.0147687 0.0217495 -0.0922182 0.0969129 -0.0597595 0 0 -5.1365e-06 0.0005 5.23599e-07 
62 1 0.0222852 0.0237053 0.0139095 0.000957573 0.000346672 0.000122692 -6.0294e-06 -4.27887e-06 -2.74031e-06 0.0005 5.23599e-07 
63 1 0.0211797 0.0206796 0.0189846 0.0757538 -0.00153612 -0.0290237 0 0 -5.1365e-06 0.0005 5.23599e-07 
64 1 0.0230205 0.0221433 0.014679 -0.0027645 -0.00254685 0.00284987 -1.1623e-05 -2.00655e-05 1.76739e-05 0.0005 5.23599e-07 
65 1 0.0191614 0.0142652 0.012533 0.00424863 -0.000703357 -0.000884075 1.78497e-05 3.66487e-06 -5.72697e-06 0.0005 5.23599e-07 
66 1 0.0219978 0.023496 0.0201185 -0.0908151 0.00168909 -0.348181 0.000587391 -0.000343201 0.00185992 0.0005 5.23599e-07 
67 1 0.0137505 0.0161202 0.0198331 0.0438323 0.0277708 -0.00509627 0 0 -5.1365e-06 0.0005 5.23599e-07 
69 1 0.019878 0.0241117 0.0127364 -0.000390668 -0.00322615 -0.00105308 -2.22872e-06 -1.07997e-06 1.68957e-06 0.0005 5.23599e-07 
70 1 0.0264423 0.0228223 0.00936055 0.00219653 -0.00723101 -0.0123073 6.48408e-08 -4.82522e-07 -5.50447e-07 0.0005 5.23599e-07 
71 1 0.0181867 0.0231454 0.0147783 -0.00195797 0.00457767 -0.00293567 1.68973e-05 1.00744e-05 -1.17469e-05 0.0005 5.23599e-07 
72 1 0.0209609 0.0141116 0.0133059 0.00199092 -3.2779e-05 0.00262806 5.48791e-06 -8.02451e-07 -3.0643e-06 0.0005 5.23599e-07 
73 1 0.0228802 0.0189718 0.0257851 0.0527065 0.148895 -0.233 0 0 -5.1365e-06 0.0005 5.23599e-07 
74 1 0.0194028 0.0241614 0.0142616 -0.000449819 0.000221027 -0.00100058 1.36573e-06 -3.02454e-06 -6.58876e-06 0.0005 5.23599e-07 
75 1 0.0247852 0.0161163 0.0197631 -0.0647308 0.03155 0.0180502 0 0 -5.1365e-06 0.0005 5.23599e-07 
77 1 0.0197104 0.0188285 0.00717085 -0.000101298 -0.0218021 0.00206675 3.69245e-07 3.36399e-07 -5.01844e-06 0.0005 5.23599e-07 
78 1 0.0128449 0.0170419 0.0198291 -0.00406323 -0.00929784 0.00764377 -5.88069e-06 -2.59859e-06 1.92206e-05 0.0005 5.23599e-07 
79 1 0.020014 0.0137352 0.0175649 0.00220868 0.00566776 -0.0148493 -2.51219e-06 1.70455e-06 -6.06434e-06 0.0005 5.23599e-07 
80 1 0.0247359 0.016219 0.00826392 1.30748e-06 -0.0198925 0.0164075 1.42871e-08 4.34522e-08 2.8397e-08 0.0005 5.23599e-07 
81 1 0.0166562 0.0239249 0.0147187 -7.26383e-05 8.82293e-05 -0.000410571 -3.54756e-06 2.96794e-06 -3.69161e-06 0.0005 5.23599e-07 
82 1 0.0125938 0.0228923 0.0222373 0.0467614 -0.0620016 0.0178653 0 0 -5.1365e-06 0.0005 5.23599e-07 
83 1 0.0159176 0.0171854 0.0201254 0.103973 -0.0528154 -0.0260063 0 0 -5.1365e-06 0.0005 5.23599e-07 
85 1 0.0221218 0.0140384 0.0147275 0.00329007 0.00107683 0.0017902 3.17897e-06 -3.93162e-06 2.31009e-06 0.0005 5.23599e-07 
86 1 0.0141309 0.0153827 0.015254 -0.000759549 0.00177184 0.000126764 2.35436e-06 -1.73861e-07 -3.55875e-06 0.0005 5.23599e-07 
87 1 0.0244254 0.0170687 0.0154762 3.62368e-06 0.00404333 0.00817351 -3.84535e-06 -4.26832e-07 1.17834e-05 0.0005 5.23599e-07 
88 1 0.0207352 0.0251794 0.0196517 0.0471522 0.00427123 -0.0468645 0 0 -5.1365e-06 0.0005 5.23599e-07 
89 1 0.0199702 0.021504 0.00796787 0.000989329 -0.0131381 -0.00945329 -6.95583e-06 1.76733e-05 4.32364e-05 0.0005 5.23599e-07 
90 1 0.0171711 0.0129617 0.0196693 -0.00654013 -0.00221574 -0.00914166 0 0 -5.1365e-06 0.0005 5.23599e-07 
91 1 0.0175277 0.0238158 0.0162232 -0.00111958 0.00367518 -0.0005591 1.9068e-05 -5.52027e-06 -1.77914e-05 0.0005 5.23599e-07 
92 1 0.0189497 0.0237331 0.0150421 -0.00135762 0.00176909 -0.000606887 2.20194e-05 -2.25712e-06 -1.56784e-05 0.0005 5.23599e-07 
93 1 0.0204892 0.0238987 0.0134035 -0.000984808 -0.000275692 -0.00420107 -1.26946e-06 -1.13371e-06 5.53712e-07 0.0005 5.23599e-07 
94 1 0.0159596 0.0196373 0.0175026 0.00479765 -0.00968028 0.00016665 0 0 -5.1365e-06 0.0005 5.23599e-07 
95 1 0.0207886 0.0232173 0.0150255 0.0024998 0.00674416 -0.00569484 9.06899e-06 -2.97535e-05 1.34884e-05 0.0005 5.23599e-07 
96 1 0.0206495 0.0207738 0.0168811 0.0117819 0.00670869 -0.00587158 -4.72771e-06 2.17702e-05 -8.36524e-06 0.0005 5.23599e-07 
97 1 0.0243578 0.0161709 0.0216658 -0.00408935 0.031069 -0.187606 0 0 -5.1365e-06 0.0005 5.23599e-07 
98 1 0.0151741 0.0232464 0.014606 0.00444442 -0.00192253 -0.00442662 -1.36711e-05 2.49407e-07 -8.06791e-06 0.0005 5.23599e-07 
99 1 0.0159248 0.0250422 0.0204022 0.0224447 -0.000932968 -0.0113571 8.8843e-06 -1.02909e-05 4.70243e-05 0.0005 5.23599e-07 
101 1 0.0224919 0.0229776 0.0144854 0.00166263 0.00061473 -0.00130032 2.76611e-06 -1.63653e-05 -7.28648e-06 0.0005 5.23599e-07 
102 1 0.0188506 0.0288921 0.0407515 -0.156821 -0.169539 0.480164 0 0 -5.1365e-06 0.0005 5.23599e-07 
103 1 0.0214431 0.0234759 0.0140924 0.0021214 -0.000703927 0.000969261 -6.55023e-06 -9.14007e-06 1.09102e-05 0.0005 5.23599e-07 
104 1 0.0219163 0.0170946 0.0188529 -0.0206081 0.046049 -0.122597 0 0 -5.1365e-06 0.0005 5.23599e-07 
105 1 0.0174033 0.0140813 0.0144797 0.00220441 0.00119275 0.00274309 -6.68725e-06 -1.08457e-05 -1.45206e-05 0.0005 5.23599e-07 
106 1 0.0157871 0.0238949 0.0203426 0.0315635 -0.01798 -0.00148187 -1.75456e-05 1.35669e-05 -2.33858e-05 0.0005 5.23599e-07 
107 1 0.0189113 0.0167875 0.00784403 0.000245003 -0.0218213 0.012504 9.12166e-09 2.46946e-09 5.57196e-08 0.0005 5.23599e-07 
108 1 0.0232074 0.0219866 0.0328939 -0.210033 -0.038913 -0.404588 0 0 -5.1365e-06 0.0005 5.23599e-07 
109 1 0.0262432 0.0220502 0.00869013 0.11562 -3.123 -3.55037 -0.106819 0.652281 -0.859798 0.0005 5.23599e-07 
110 1 0.0236612 0.0148716 0.0125204 0.000264104 0.00583936 0.0248122 3.62761e-06 -9.23857e-07 -1.07875e-05 0.0005 5.23599e-07 
113 1 0.0144528 0.0222043 0.0157447 0.010978 -0.00351979 0.00246049 -1.53234e-05 -3.08329e-05 2.30672e-05 0.0005 5.23599e-07 
114 1 0.0166652 0.0233518 0.0125803 0.00128029 0.000832864 -0.000759882 1.23221e-06 -1.06829e-06 3.7813e-06 0.0005 5.23599e-07 
115 1 0.0178949 0.0240585 0.0144697 2.01423e-05 -0.000156759 -0.00126916 5.39563e-06 8.32324e-06 -9.52668e-06 0.0005 5.23599e-07 
116 1 0.0123661 0.0190893 0.0199227 -0.00161275 -0.00717255 0.00939146 -6.71582e-06 1.95311e-05 -6.43063e-06 0.0005 5.23599e-07 
117 1 0.0222513 0.023252 0.0164603 0.0103946 0.0115604 -0.0215845 0 0 -5.1365e-06 0.0005 5.23599e-07 
118 1 0.0240944 0.0148171 0.0107879 0.000296284 -0.00458881 0.0246312 -4.20926e-09 4.92064e-08 4.01795e-08 0.0005 5.23599e-07 
119 1 0.0263067 0.0196078 0.00719261 0.000838227 -0.0181941 -0.00313873 -1.16216e-08 -1.13307e-07 1.03026e-07 0.0005 5.23599e-07 
120 1 0.0162351 0.0214298 0.0192412 0.00952023 -0.0246089 -0.023338 0 0 -5.1365e-06 0.0005 5.23599e-07 
121 1 0.0255807 0.0207737 0.0163496 -0.00159938 0.00116945 0.00438737 5.77736e-07 -0.000110446 8.03679e-05 0.0005 5.23599e-07 
123 1 0.0191938 0.0227778 0.0151975 -0.00114417 0.00144711 -0.000784358 8.49883e-06 -3.96506e-07 -2.06939e-06 0.0005 5.23599e-07 
124 1 0.0239954 0.0206614 0.0156444 0.00763271 -0.00140996 -0.0129956 0 0 -5.1365e-06 0.0005 5.23599e-07 
125 1 0.023646 0.018877 0.0159385 -0.000848802 -0.00219023 -0.00451043 0 0 -5.1365e-06 0.0005 5.23599e-07 
126 1 0.0154118 0.0229586 0.013604 0.0050358 0.00317119 -0.00141839 -6.09699e-07 -4.5123e-07 -4.72897e-07 0.0005 5.23599e-07 
127 1 0.0190216 0.0224382 0.0186092 0.014197 -0.0299541 -0.0155991 7.81102e-07 1.96024e-05 -6.17942e-07 0.0005 5.23599e-07 
128 1 0.0249955 0.0195293 0.0167299 -0.00774406 0.00157386 -0.00275613 0 0 -5.1365e-06 0.0005 5.23599e-07 
129 1 0.0143459 0.0229424 0.0150795 0.00704952 0.000183392 -0.0024396 -8.60603e-06 1.66002e-05 -1.73216e-05 0.0005 5.23599e-07 
130 1 0.0228191 0.0150772 0.0170866 0.0148728 0.0116298 -0.0209715 4.46979e-06 -2.12781e-06 -1.17493e-06 0.0005 5.23599e-07 
131 1 0.0200785 0.0240857 0.019081 0.0231733 0.0156186 -0.127286 0 0 -5.1365e-06 0.0005 5.23599e-07 
132 1 0.0145249 0.0237128 0.0215979 0.0411277 0.108666 -0.218198 0 0 -5.1365e-06 0.0005 5.23599e-07 
133 1 0.0131217 0.01821 0.0184434 0.0012109 0.00171635 -0.000574056 3.9099e-06 4.22804e-06 -6.48314e-06 0.0005 5.23599e-07 
134 1 0.024773 0.0205196 0.018262 -0.00630185 0.0054511 0.00236493 0 0 -5.1365e-06 0.0005 5.23599e-07 
135 1 0.0259588 0.019349 0.0169616 -0.0201664 0.00937372 0.0174957 0 0 -5.1365e-06 0.0005 5.23599e-07 
136 1 0.0181557 0.0126919 0.0195818 -0.000930991 -0.0112883 -0.0195127 0 0 -5.1365e-06 0.0005 5.23599e-07 
137 1 0.0191753 0.0210346 0.0172953 0.0300849 -0.031341 -0.00707626 -6.40716e-06 -7.19912e-07 2.21626e-05 0.0005 5.23599e-07 
138 1 0.0212971 0.0239911 0.0190871 -0.00418244 -0.0152006 -0.0615311 0 0 -5.1365e-06 0.0005 5.23599e-07 
139 1 0.0233477 0.0230639 0.0145907 -6.11169e-05 -0.000497064 0.000568246 2.66838e-06 1.04454e-05 1.75536e-05 0.0005 5.23599e-07 
140 1 0.0181812 0.0239786 0.0131422 0.00130017 0.00340905 -0.00659517 3.11636e-07 -1.15376e-06 3.23636e-06 0.0005 5.23599e-07 
141 1 0.0188624 0.0231974 0.0192392 0.0172613 -0.0157338 -0.0309376 -8.11599e-06 2.75928e-05 2.64895e-05 0.0005 5.23599e-07 
142 1 0.0256991 0.0174737 0.0167658 -0.00175886 -0.00905834 0.00897559 2.29279e-06 -5.78557e-06 -8.73206e-06 0.0005 5.23599e-07 
143 1 0.0218456 0.0221108 0.0178301 -0.0251219 -0.00983476 -0.0264319 3.40407e-05 -1.40157e-05 2.46679e-05 0.0005 5.23599e-07 
144 1 0.0158945 0.0235352 0.0152358 0.00279214 -0.00218903 -0.001349 7.42698e-06 3.90057e-06 7.56235e-06 0.0005 5.23599e-07 
146 1 0.021221 0.0158056 0.0181119 0.044133 0.00400934 -0.0691312 3.53461e-06 -4.06299e-06 4.45605e-06 0.0005 5.23599e-07 
147 1 0.0156972 0.0229204 0.0188993 -0.000668872 0.00134726 -0.0161071 0 0 -5.1365e-06 0.0005 5.23599e-07 
148 1 -0.00769037 0.0416497 0.0451017 -0.187125 0.147442 -0.39327 0 0 -5.1365e-06 0.0005 5.23599e-07 
149 1 0.0230389 0.0209524 0.0155426 0.0057635 -0.0032113 0.00646062 -1.70374e-05 -2.13656e-05 -5.7383e-07 0.0005 5.23599e-07 
150 1 0.0214779 0.0173004 0.0164796 0.0146555 -0.00181938 0.0127724 0 0 -5.1365e-06 0.0005 5.23599e-07 
151 1 0.0149908 0.0223308 0.0171571 -0.00202006 -0.000175129 0.000487635 -2.12768e-05 3.71258e-06 2.54417e-05 0.0005 5.23599e-07 
153 1 0.0148124 0.0215602 0.017781 -0.00483274 -0.000815527 -0.00410851 -1.08489e-06 -1.24212e-05 1.5576e-05 0.0005 5.23599e-07 
154 1 0.0455247 0.0055655 0.0512133 0.163736 -0.126031 -0.332199 0 0 -5.1365e-06 0.0005 5.23599e-07 
155 1 0.0154022 0.0172947 0.0181953 0.0269284 0.00563067 -0.0102278 -1.00036e-05 8.50652e-06 1.31855e-05 0.0005 5.23599e-07 
156 1 0.021638 0.0233751 0.0124144 0.00165514 0.00013273 -0.00411993 -4.80254e-06 -1.05908e-05 -7.60586e-06 0.0005 5.23599e-07 
159 1 0.0624976 0.0343486 -0.0189005 0.202348 0.074668 -1.12217 0 0 -5.1365e-06 0.0005 5.23599e-07 
160 1 0.020141 0.0250702 0.0188414 0.0248558 0.0762326 -0.0652048 0 0 -5.1365e-06 0.0005 5.23599e-07 
161 1 0.0182682 0.0231012 0.0160811 -0.00283089 0.0110076 -0.0159579 0 0 -5.1365e-06 0.0005 5.23599e-07 
162 1 0.0238188 0.022514 0.0152319 -0.00111983 1.5111e-05 0.000705136 -5.52191e-05 -1.23263e-05 1.22262e-06 0.0005 5.23599e-07 
163 1 0.0207863 0.0153302 0.0152035 -0.00364471 0.0124758 0.0139208 -3.70979e-06 1.06348e-06 -3.40677e-06 0.0005 5.23599e-07 
164 1 0.0205547 0.0213673 0.0207092 0.103875 -0.116731 -0.0306771 0 0 -5.1365e-06 0.0005 5.23599e-07 
166 1 0.025551 0.0184619 0.0167321 -0.0103058 -0.00862016 0.0101788 -2.45153e-06 5.69168e-06 -1.85875e-06 0.0005 5.23599e-07 
168 1 0.0256861 0.0202993 0.0171184 -0.00712539 -5.35377e-05 0.00256654 -0.000173338 -0.000132646 0.000204621 0.0005 5.23599e-07 
169 1 0.0129757 0.0220029 0.0200826 0.0028502 0.00464707 0.0180545 -7.91383e-07 2.80728e-06 -7.72995e-06 0.0005 5.23599e-07 
171 1 0.0211494 0.022603 0.00909823 0.00102756 -0.00712459 -0.00976718 -4.39685e-05 -2.30393e-05 -4.13292e-05 0.0005 5.23599e-07 
172 1 0.0197648 0.0205338 0.00750053 0.000332073 -0.0229048 -0.00881376 4.57538e-08 -6.2767e-07 -9.3459e-08 0.0005 5.23599e-07 
173 1 0.0206941 0.0203827 0.00740833 0.000463011 -0.0132166 -0.00615268 9.29383e-07 -5.72434e-07 -2.31113e-07 0.0005 5.23599e-07 
174 1 0.0136759 0.0215393 0.0206545 0.00431575 0.0202436 -0.0107626 0 0 -5.1365e-06 0.0005 5.23599e-07 
175 1 0.0172921 0.023098 0.0133244 0.00507633 0.000644233 -0.00150794 1.47446e-06 -3.14552e-06 7.98647e-06 0.0005 5.23599e-07 
177 1 0.0190931 0.0176483 0.00741419 0.00108454 -0.0218969 0.00802132 -5.31852e-08 -5.16885e-08 6.42887e-08 0.0005 5.23599e-07 
178 1 0.0208413 0.0188004 0.0167735 0.0110597 -0.00144601 -0.00509168 -1.34363e-05 -1.21139e-05 -1.36204e-06 0.0005 5.23599e-07 
179 1 0.0238756 0.0215059 0.01618 0.000665311 -0.0065408 0.00994308 7.6585e-06 8.34255e-06 -3.79944e-05 0.0005 5.23599e-07 
180 1 0.0228921 0.0217023 0.0164182 -0.00876646 0.00644838 -0.00680973 0 0 -5.1365e-06 0.0005 5.23599e-07 
181 1 0.0229481 0.0226319 0.0168331 0.00812158 -0.00830903 -0.00843061 4.72313e-05 -1.34453e-05 -2.56864e-05 0.0005 5.23599e-07 
182 1 0.0159142 0.0215597 0.015401 0.00668502 -2.24257e-06 -2.58237e-05 -4.50253e-06 7.51896e-06 5.05524e-06 0.0005 5.23599e-07 
184 1 0.0232907 0.0232926 0.0154756 -0.00068403 0.000977158 0.000217811 4.09207e-06 3.80379e-05 1.46523e-05 0.0005 5.23599e-07 
186 1 0.0153382 0.0219515 0.0190334 -0.0182842 -0.00226949 -0.0024221 0 0 -5.1365e-06 0.0005 5.23599e-07 
187 1 0.0191082 0.0181755 0.0212185 0.085567 -0.0421373 -0.227997 0 0 -5.1365e-06 0.0005 5.23599e-07 
188 1 0.0180716 0.0257818 0.0255165 -0.0883474 -0.0735262 0.0378083 0 0 -5.1365e-06 0.0005 5.23599e-07 
189 1 0.0134407 0.0179853 0.0175233 -0.00282264 -0.00250383 0.00100868 -4.76259e-06 5.28535e-06 1.31272e-05 0.0005 5.23599e-07 
192 1 0.0172198 0.0165515 0.017006 0.00448731 0.00157893 -0.00233552 -5.01751e-07 9.49796e-06 -1.65764e-06 0.0005 5.23599e-07 
194 1 0.0172056 0.0136627 0.0178821 0.00229212 -0.00111008 0.00104997 4.36211e-06 4.33224e-06 -1.2474e-05 0.0005 5.23599e-07 
195 1 0.0200731 0.0207961 0.0179245 0.0449588 -0.0445863 -0.0527189 0 0 -5.1365e-06 0.0005 5.23599e-07 
196 1 0.0242341 0.016203 0.0149201 -0.00603431 -0.000970842 0.00688029 -5.42003e-07 1.38488e-05 -1.34313e-05 0.0005 5.23599e-07 
197 1 0.0193489 0.0164847 0.0160876 0.00425969 0.000252608 0.00430383 -1.74585e-05 5.06617e-06 5.36861e-06 0.0005 5.23599e-07 
198 1 0.0215203 0.0248127 0.0432546 -0.00955279 0.0456249 0.00941439 0 0 -5.1365e-06 0.0005 5.23599e-07 
200 1 0.0201329 0.0234922 0.0143232 -0.00149924 0.00264857 -0.00118049 -4.44876e-06 -1.18793e-05 1.27173e-05 0.0005 5.23599e-07 
201 1 0.0256189 0.0213096 0.0168968 -3.97279e-05 -0.000276405 0.00175461 5.08782e-06 -3.77126e-05 3.09077e-05 0.0005 5.23599e-07 
202 1 0.0242341 0.0197216 0.0158899 0.00145409 0.0141875 -0.00109528 7.98325e-06 -7.68186e-07 -5.36323e-06 0.0005 5.23599e-07 
203 1 0.0171687 0.0218877 0.0159339 -0.00482825 0.00262744 -0.00297713 7.83584e-06 1.15828e-05 -1.5665e-05 0.0005 5.23599e-07 
204 1 0.0192942 0.0136375 0.0135718 0.00136235 -0.000582882 4.74212e-05 -2.44244e-06 9.67608e-07 -2.40661e-06 0.0005 5.23599e-07 
206 1 0.0249645 0.0169689 0.0163125 -0.00343146 -0.00306087 0.00284303 2.91357e-06 2.12045e-06 -9.30107e-07 0.0005 5.23599e-07 
207 1 0.0237771 0.0183349 0.0174518 -0.0696374 0.00677774 -0.0335773 0 0 -5.1365e-06 0.0005 5.23599e-07 
208 1 0.0174743 0.0143605 0.0135227 0.00342536 0.00240232 0.00394415 -4.97853e-06 -6.91859e-06 4.48922e-07 0.0005 5.23599e-07 
209 1 0.0106216 0.0179382 0.0583321 0.0683287 0.155805 0.227617 0 0 -5.1365e-06 0.0005 5.23599e-07 
210 1 0.0267753 0.0271821 0.0322603 -0.0678376 -0.0181315 -0.209415 0 0 -5.1365e-06 0.0005 5.23599e-07 
211 1 0.0183276 0.0138662 0.0136858 0.00184381 0.000361102 0.0024973 -7.30261e-08 6.02652e-06 1.06462e-06 0.0005 5.23599e-07 
212 1 0.020112 0.0145989 0.0149012 0.00165061 0.00344234 0.00328276 4.2715e-08 7.57046e-06 -2.08654e-06 0.0005 5.23599e-07 
214 1 0.0191283 0.0137323 0.0170708 -0.00443951 0.000568319 -0.00473031 3.90776e-06 6.4057e-06 -3.98904e-06 0.0005 5.23599e-07 
215 1 0.0150446 0.0187859 0.0167226 -0.00444663 0.0244968 -0.000825344 3.48393e-08 -3.42867e-05 4.7855e-06 0.0005 5.23599e-07 
216 1 0.0177982 0.021397 0.0152722 0.00820568 -0.0156492 0.00605031 0 0 -5.1365e-06 0.0005 5.23599e-07 
217 1 0.0218939 0.0230758 0.0182429 0.0391269 -0.00100624 -0.019993 0 0 -5.1365e-06 0.0005 5.23599e-07 
219 1 0.0209791 0.014048 0.0174482 0.00844869 0.00415736 -0.00415557 -2.36923e-06 2.49763e-06 -6.40343e-07 0.0005 5.23599e-07 
220 1 0.0188313 0.0250137 0.0202266 0.0366537 -0.0537062 -0.0335089 8.50169e-06 1.36549e-05 -1.22547e-05 0.0005 5.23599e-07 
222 1 0.0138117 0.0189363 0.0184981 -0.00098545 -0.00107128 0.00367886 0 0 -5.1365e-06 0.0005 5.23599e-07 
226 1 0.0129106 0.0213532 0.0166754 -0.00171965 0.00369253 -0.00161465 1.32353e-05 -2.60921e-06 5.41058e-07 0.0005 5.23599e-07 
227 1 0.0238045 0.0166509 0.0161445 0.00629535 -0.0193011 -0.00677923 0 0 -5.1365e-06 0.0005 5.23599e-07 
228 1 0.0216125 0.0227185 0.0147051 0.00346028 0.00268916 -0.00245593 2.70921e-06 -4.07108e-05 1.41752e-05 0.0005 5.23599e-07 
229 1 0.0143409 0.0217091 0.0166148 -0.00019976 0.00186553 0.00129794 -2.07885e-05 -1.73111e-05 9.46071e-06 0.0005 5.23599e-07 
230 1 0.0252505 0.0238008 0.0267609 -0.0510295 -0.132603 -0.140039 0 0 -5.1365e-06 0.0005 5.23599e-07 
231 1 0.0200151 0.0253503 0.0204088 0.0228165 -0.0140943 -0.0460308 0 0 -5.1365e-06 0.0005 5.23599e-07 
232 1 0.0165011 0.0142414 0.0137183 0.00115287 0.00067766 -0.00269845 -4.46537e-06 9.27129e-07 2.3786e-06 0.0005 5.23599e-07 
233 1 0.0135677 0.0217991 0.0159728 0.00193102 0.006534 -0.00448318 1.48306e-06 -1.06647e-05 9.35836e-07 0.0005 5.23599e-07 
234 1 0.017831 0.0242881 0.0217426 0.038288 0.0647199 -0.128943 0 0 -5.1365e-06 0.0005 5.23599e-07 
236 1 0.0213419 0.0150212 0.0174441 -0.0163957 -0.00660398 -0.00814016 0 0 -5.1365e-06 0.0005 5.23599e-07 
238 1 0.0162232 0.0228301 0.018047 0.00919815 -0.00730608 -0.00544637 9.49646e-06 -4.51536e-06 1.52312e-06 0.0005 5.23599e-07 
239 1 0.0174397 0.0236086 0.0152503 -0.00230868 0.00045635 -0.00273026 1.6006e-05 5.79346e-06 -1.33634e-05 0.0005 5.23599e-07 
240 1 0.0135875 0.0221072 0.0235537 -0.004994 -0.0641179 -0.0461575 0 0 -5.1365e-06 0.0005 5.23599e-07 
242 1 0.0131759 0.0188409 0.0167352 -0.016597 -0.00182469 0.000706942 -5.52056e-06 3.75258e-05 -6.09867e-06 0.0005 5.23599e-07 
243 1 0.0143071 0.0176871 0.018298 0.00282557 -0.00242887 0.00624697 -5.85426e-06 4.74747e-06 1.82323e-05 0.0005 5.23599e-07 
244 1 0.0185613 0.0192218 0.0172748 0.00780508 0.0168026 -0.00551394 -4.68837e-07 1.74236e-07 -3.75022e-06 0.0005 5.23599e-07 
246 1 0.0152717 0.0198826 0.0167139 -0.00434297 0.0124603 -0.00278557 0 0 -5.1365e-06 0.0005 5.23599e-07 
247 1 0.0246003 0.0178829 0.0179031 -0.0439329 -0.0221127 -0.108039 0 0 -5.1365e-06 0.0005 5.23599e-07 
248 1 0.0210512 0.0225118 0.0165466 -0.000858407 0.0218738 -0.00612794 0 0 -5.1365e-06 0.0005 5.23599e-07 
250 1 0.0182278 0.0157367 0.0144608 0.0056941 -0.00654214 -0.000342674 -1.13111e-05 9.8739e-06 8.15279e-05 0.0005 5.23599e-07 
251 1 0.0131984 0.0232077 0.0264623 0.0957049 -0.153419 -0.362025 0 0 -5.1365e-06 0.0005 5.23599e-07 
256 1 0.0211406 0.0145193 0.0165797 0.00944337 0.00575535 -0.00641083 -1.53904e-06 1.68495e-06 -3.32145e-06 0.0005 5.23599e-07 
259 1 0.018277 0.0168418 0.0153733 0.00267282 0.0159328 0.0102129 6.53356e-06 2.36118e-05 -0.000148459 0.0005 5.23599e-07 
260 1 0.0183113 0.0210487 0.017801 0.0342803 -0.057769 -0.0260096 0 0 -5.1365e-06 0.0005 5.23599e-07 
262 1 0.0189696 0.0182319 0.026638 0.163344 0.155305 -0.373092 0 0 -5.1365e-06 0.0005 5.23599e-07 
265 1 0.0166699 0.0234773 0.0186664 0.0339086 -0.0223683 -0.0295758 0 0 -5.1365e-06 0.0005 5.23599e-07 
266 1 0.0218233 0.0218742 0.0160101 -0.00484785 -0.00395712 0.000240245 4.42453e-06 -3.88652e-05 1.19851e-05 0.0005 5.23599e-07 
267 1 0.0151081 0.023813 0.0190971 0.00771629 -0.00398343 0.00236556 3.40971e-05 7.49909e-06 1.87446e-05 0.0005 5.23599e-07 
268 1 0.0128545 0.0225955 0.0212093 -0.0309455 -0.00343945 0.0114771 -3.19535e-07 -6.28882e-07 -4.56996e-06 0.0005 5.23599e-07 
269 1 0.0191599 0.0219993 0.0158236 0.00264363 0.00280481 0.00137832 -1.4862e-06 9.39795e-06 -5.98044e-06 0.0005 5.23599e-07 
270 1 0.0213459 0.0228785 0.0174298 0.00832514 0.00401053 -0.00788448 -9.48573e-05 3.51302e-05 1.67567e-05 0.0005 5.23599e-07 
271 1 0.0132419 0.0196266 0.0202302 0.00331996 -0.00835381 -0.0126342 0 0 -5.1365e-06 0.0005 5.23599e-07 
272 1 0.0177222 0.014739 0.0126317 0.00474089 0.000837246 0.00380301 -1.09959e-06 -1.01921e-05 -4.09965e-07 0.0005 5.23599e-07 
273 1 0.016343 0.0230166 0.0134419 0.00474156 0.00199059 -0.000940378 -7.02e-07 -1.23914e-06 4.92907e-06 0.0005 5.23599e-07 
274 1 0.0173986 0.0153778 0.0140048 0.00739433 -0.00472003 -0.00800551 6.67987e-07 -1.43606e-06 -1.4404e-06 0.0005 5.23599e-07 
275 1 0.0152253 0.0270979 0.026203 0.0560403 -0.119544 -0.279195 0 0 -5.1365e-06 0.0005 5.23599e-07 
276 1 0.0191628 0.0133044 0.0179737 0.000191342 0.00296357 -0.00455577 5.54007e-06 -8.52933e-06 1.37505e-06 0.0005 5.23599e-07 
277 1 0.0361876 0.0506752 0.0439841 0.196677 0.19128 -0.420792 0 0 -5.1365e-06 0.0005 5.23599e-07 
278 1 0.0195623 0.0255182 0.0195267 0.0149389 0.0421813 -0.0398476 0 0 -5.1365e-06 0.0005 5.23599e-07 
279 1 0.0182419 0.0148382 0.0140236 0.00480153 -0.00933077 -0.00287428 1.49703e-06 5.17364e-06 1.6013e-05 0.0005 5.23599e-07 
280 1 0.017301 0.0198723 0.0162846 0.00524007 0.01436 -0.00432272 -2.96978e-06 1.16843e-05 -2.1512e-05 0.0005 5.23599e-07 
281 1 0.0119816 0.019282 0.0208253 -0.00756383 -0.0140998 0.010021 5.57711e-06 9.78817e-06 1.12103e-06 0.0005 5.23599e-07 
282 1 0.0202327 0.0231946 0.0161976 0.0016753 0.00373009 -0.00346461 2.19642e-06 -1.24815e-05 -1.18e-06 0.0005 5.23599e-07 
284 1 0.0181175 0.0154404 0.016677 0.00502692 0.00398514 0.00124799 -4.28796e-06 -4.82833e-05 5.98695e-05 0.0005 5.23599e-07 
287 1 0.0167226 0.0146621 0.0186968 -0.00327802 0.00730834 -0.000590269 -5.39117e-07 -7.86665e-08 -5.47635e-06 0.0005 5.23599e-07 
288 1 0.018115 0.0203223 0.0159201 0.00547405 0.0102931 -0.00558761 -2.37059e-05 1.96601e-05 -3.93812e-06 0.0005 5.23599e-07 
290 1 0.023637 0.0152692 0.0189277 0.0243271 0.0533887 -0.289448 0 0 -5.1365e-06 0.0005 5.23599e-07 
292 1 0.0217714 0.0143452 0.0138428 0.00205898 0.000770498 0.00286763 3.85889e-06 -1.87981e-06 -2.14858e-06 0.0005 5.23599e-07 
294 1 0.0470402 -0.0196617 0.0368288 0.313273 -0.384673 -0.501888 0 0 -5.1365e-06 0.0005 5.23599e-07 
295 1 0.0152888 0.0135405 0.0198739 0.00277455 0.00808732 -0.00011488 0 0 -5.1365e-06 0.0005 5.23599e-07 
296 1 0.024748 0.0161536 0.015776 -0.00552057 -0.00262824 -0.000579859 -1.03325e-06 -1.97173e-05 2.80427e-05 0.0005 5.23599e-07 
298 1 0.0162787 0.0207993 0.0159324 0.0120124 -0.00026703 -0.00791198 -5.812e-06 1.80977e-05 -1.44257e-05 0.0005 5.23599e-07 
299 1 0.0137689 0.0209239 0.0164022 -0.00381673 0.00889174 -0.00419621 2.00169e-05 -1.34794e-05 6.42873e-06 0.0005 5.23599e-07 
300 1 0.0199346 0.0237378 0.0152713 -0.00013124 0.00188698 0.00042083 -1.63759e-05 7.31074e-06 -2.17506e-06 0.0005 5.23599e-07 