# vtk DataFile Version 3.0
LIGGGHTS particles timestep 58200000
ASCII
DATASET POLYDATA
POINTS 275 float
0.352499 0.018105 0.00699467
0.352246 0.0169563 0.00755013
0.352431 0.0169721 0.00755504
0.351934 0.0157355 0.00832277
0.358257 0.017057 0.00760948
0.3526 0.0176485 0.00721398
0.35226 0.0166383 0.00771706
0.358441 0.0178054 0.00699441
0.352378 0.0167094 0.00768832
0.352713 0.0180878 0.00700645
0.346708 0.0177312 0.00725153
0.351913 0.0156804 0.00840358
0.346811 0.018551 0.00700357
0.34675 0.0188431 0.00683466
0.352164 0.0166072 0.00772649
0.352538 0.0182907 0.0069314
0.352639 0.0178236 0.00712536
0.352401 0.0167964 0.00764454
0.346853 0.0183642 0.00699465
0.358366 0.0174669 0.00719253
0.352041 0.0160861 0.00799527
0.358403 0.0176329 0.00708749
0.346305 0.016881 0.0076954
0.352459 0.0172702 0.00748697
0.351892 0.0156255 0.00848431
0.352123 0.0164328 0.00781462
0.352757 0.0179404 0.00707281
0.352062 0.016171 0.00794694
0.358279 0.0171186 0.00753376
0.352021 0.0159966 0.00803496
0.352561 0.0174735 0.00730262
0.358498 0.0180998 0.00700654
0.352422 0.0168836 0.0076006
0.352517 0.0172707 0.0074053
0.358384 0.0175489 0.00713837
0.351977 0.0158534 0.00816736
0.352489 0.0171686 0.00745663
0.352695 0.0176784 0.00720513
0.358297 0.0171813 0.00745794
0.352001 0.015922 0.00809846
0.35244 0.0178315 0.00710712
0.35846 0.0179035 0.00699845
0.352082 0.0162592 0.0079041
0.352787 0.0180258 0.00703041
0.346769 0.0179942 0.0071207
0.358329 0.0173081 0.0073068
0.3527 0.0186102 0.00685967
0.346436 0.0173612 0.00745451
0.352579 0.0184772 0.00687
0.358313 0.0172446 0.00738228
0.378022 0.019866 0.005332
0.352715 0.0177659 0.00716088
0.351957 0.0157903 0.00824216
0.352542 0.0173859 0.00734692
0.352774 0.0185452 0.00684167
0.358347 0.0173818 0.00724141
0.346403 0.0174463 0.00749625
0.346611 0.018155 0.00706858
0.352658 0.0179111 0.00708111
0.352404 0.0172114 0.00742819
0.352793 0.0182131 0.00695337
0.358427 0.0177199 0.00704423
0.346729 0.0187502 0.00686626
0.3527 0.0181786 0.00696654
0.352466 0.0170748 0.00750393
0.352109 0.0163446 0.0078596
0.346375 0.0170979 0.00758547
0.352266 0.0170438 0.00750588
0.345907 0.0156425 0.00841147
0.346765 0.0189373 0.00680268
0.352365 0.0170363 0.00751681
0.346737 0.0182904 0.00702117
0.346728 0.017819 0.00720791
0.358479 0.0180016 0.0070025
0.346593 0.0185357 0.00694061
0.352603 0.0173178 0.00738686
0.352327 0.0169066 0.00758182
0.352462 0.017474 0.00729524
0.352791 0.0183579 0.00690458
0.352681 0.0179981 0.00703728
0.346534 0.0173904 0.00743077
0.352363 0.0174813 0.00728436
0.352381 0.0173815 0.00742054
0.352617 0.0182317 0.00695001
0.352505 0.0179095 0.00715771
0.352343 0.0173938 0.00732867
0.345991 0.0159405 0.00817304
0.352219 0.0164634 0.00780542
0.346435 0.0178222 0.00723624
0.352619 0.0177361 0.00716967
0.346454 0.01791 0.00719263
0.0643568 0.0187248 0.00531097
0.24257 0.0191927 0.00520306
0.346718 0.019099 0.00686058
0.346012 0.0160281 0.00812943
0.346475 0.017537 0.00736728
0.345928 0.0156986 0.00833147
0.352757 0.0184471 0.00687504
0.3526 0.0185717 0.00684462
0.352299 0.017121 0.00756019
0.352226 0.0168721 0.00760021
0.346454 0.0176734 0.00740039
0.346338 0.0173827 0.0074543
0.346396 0.0176463 0.00732346
0.352604 0.0172291 0.00743314
0.352539 0.0178242 0.00711798
0.352581 0.0175609 0.00725838
0.34656 0.0174861 0.00738276
0.352727 0.018285 0.00693019
0.352334 0.0165812 0.00775212
0.352636 0.0183245 0.00691838
0.352324 0.0173076 0.00737561
0.346634 0.0187209 0.00687747
0.352239 0.0165507 0.00776128
0.352442 0.0173864 0.00733957
0.345971 0.0158529 0.00821665
0.352144 0.0165225 0.00777543
0.352543 0.0180781 0.00708008
0.346514 0.0177125 0.00728006
0.346532 0.0178007 0.00723644
0.352584 0.0171417 0.00747735
0.352559 0.017912 0.00707356
0.35252 0.0177366 0.00716229
0.352805 0.018119 0.0069849
0.346417 0.0172733 0.00749812
0.352642 0.0187605 0.00690544
0.352401 0.0176564 0.00719574
0.352286 0.0171312 0.00746161
0.346327 0.0165709 0.0078401
0.346814 0.0181784 0.00705783
0.34595 0.0157653 0.00826026
0.346608 0.0177396 0.00725768
0.346136 0.016149 0.00805955
0.346496 0.0176245 0.00732367
0.346332 0.016661 0.00779691
0.352185 0.0166946 0.00768234
0.346576 0.0184572 0.00700025
0.346494 0.0180886 0.00711212
0.346368 0.0167441 0.00775388
0.346216 0.0162041 0.00802529
0.346485 0.0178192 0.00732258
0.346305 0.0164836 0.0078837
0.0219312 0.0187687 0.00551176
0.346414 0.0169195 0.0076661
0.352534 0.0173616 0.00744353
0.346474 0.0179979 0.00714919
0.346742 0.0187261 0.00696252
0.346296 0.0169677 0.00774634
0.346652 0.0183403 0.00700553
0.35242 0.0177439 0.00715143
0.346533 0.0182671 0.0070319
0.346688 0.0185648 0.00692936
0.346554 0.0183597 0.00700038
0.346669 0.0184336 0.00697385
0.352681 0.0185122 0.00686695
0.346319 0.0172948 0.00749791
0.352558 0.018384 0.00689959
0.346085 0.0163424 0.00799167
0.346436 0.0173539 0.00755424
0.34617 0.0167026 0.00790117
0.34656 0.0181504 0.00715447
0.346566 0.0182453 0.00712377
0.352518 0.0181978 0.00696304
0.346376 0.0175586 0.00736707
0.352598 0.0180922 0.00699736
0.346628 0.0178273 0.00721406
0.346614 0.0186283 0.006909
0.352578 0.0179995 0.0070293
0.352423 0.0172988 0.00738394
0.352588 0.0181849 0.00703362
0.340486 0.0180538 0.0072617
0.352205 0.0167823 0.00763898
0.346357 0.0174706 0.00741069
0.35262 0.0186646 0.00688675
0.346805 0.0186875 0.00688635
0.346755 0.0183843 0.00698925
0.346691 0.018098 0.00708669
0.340164 0.0165585 0.00759407
0.346747 0.0179069 0.0071643
0.346847 0.0184688 0.00695948
0.346264 0.0163082 0.00797102
0.34675 0.0184898 0.00695376
0.346413 0.0170128 0.00762202
0.3525 0.0176491 0.00720661
0.346877 0.0185595 0.00692849
0.346242 0.0166215 0.00782476
0.346283 0.0167939 0.00773899
0.346132 0.0162559 0.00800929
0.34679 0.0180866 0.00708914
0.346455 0.0174492 0.00741089
0.35228 0.0167256 0.00767296
0.352304 0.0168158 0.00762757
0.346784 0.0185948 0.00691788
0.352479 0.0180104 0.0070269
0.352385 0.0171238 0.00747259
0.340378 0.0175655 0.00726404
0.346053 0.0162032 0.00804222
0.352658 0.0184173 0.0068877
0.346417 0.017734 0.00727985
0.352342 0.0172063 0.00750918
0.346552 0.0178885 0.00719283
0.352734 0.0178534 0.00711659
0.346328 0.0169685 0.00765161
0.352305 0.0170229 0.00759574
0.346835 0.018271 0.00702632
0.340399 0.0176634 0.00726345
0.34034 0.0173692 0.00726557
0.346709 0.0186574 0.00689784
0.346209 0.0168584 0.00771587
0.346698 0.0190076 0.0068255
0.346513 0.0181754 0.00706653
0.352305 0.0172188 0.00741726
0.346167 0.0166835 0.00780307
0.346278 0.0171196 0.00758513
0.346299 0.0172071 0.00754153
0.340074 0.0162634 0.00797545
0.340128 0.0164199 0.00772532
0.340053 0.0162111 0.00805801
0.346285 0.0163958 0.00792734
0.346669 0.0180061 0.00712517
0.340094 0.0163156 0.00789247
0.340264 0.0170011 0.00738396
0.346105 0.0164214 0.0079336
0.346542 0.0180606 0.00719504
0.340204 0.0167355 0.00751003
0.3462 0.0164461 0.00791216
0.352481 0.0175615 0.00725098
0.340284 0.0170902 0.00734291
0.340464 0.0179562 0.00726214
0.340224 0.0168241 0.00746801
0.346677 0.0189111 0.00684102
0.346655 0.0188137 0.00684636
0.346391 0.0168313 0.00771026
0.346671 0.0181879 0.0071413
0.340303 0.0171808 0.00730541
0.346631 0.0182478 0.00703716
0.346365 0.0172711 0.00758345
0.346508 0.0179221 0.00727602
0.340184 0.016647 0.00755205
0.346338 0.0173753 0.00755403
0.340508 0.0181514 0.00726126
0.346571 0.0179765 0.00714942
0.34622 0.0165339 0.00786854
0.34659 0.0176504 0.00730181
0.346647 0.0179153 0.00717045
0.352459 0.0177327 0.00724292
0.346595 0.018334 0.00708766
0.340359 0.0174674 0.00726478
0.34626 0.0167277 0.00781346
0.340322 0.0172709 0.00726637
0.34607 0.0162949 0.00807841
0.346178 0.0163571 0.0079566
0.346126 0.0165089 0.00788999
0.346422 0.0175344 0.00745231
0.340559 0.0179864 0.00727203
0.340421 0.017761 0.00726302
0.346591 0.0180649 0.00710689
0.340113 0.0163678 0.00780932
0.346232 0.0169455 0.00767229
0.346337 0.0170673 0.0076728
0.346933 0.0184202 0.00697465
0.346188 0.0167711 0.00775946
0.346716 0.0181978 0.00705268
0.346033 0.0161155 0.00808583
0.346397 0.0171857 0.00754173
0.346795 0.0190268 0.00683554
0.346702 0.0185408 0.00702544
0.346345 0.0171835 0.00762722
0.346255 0.0170326 0.0076287
0.340442 0.0178586 0.00726258
0.346147 0.0165998 0.00785393
0.352459 0.017922 0.00706951
0.340145 0.0164732 0.00764241
0.340244 0.0169126 0.00742598
0.352382 0.0175693 0.00724103

VERTICES 275 550
1 0
1 1
1 2
1 3
1 4
1 5
1 6
1 7
1 8
1 9
1 10
1 11
1 12
1 13
1 14
1 15
1 16
1 17
1 18
1 19
1 20
1 21
1 22
1 23
1 24
1 25
1 26
1 27
1 28
1 29
1 30
1 31
1 32
1 33
1 34
1 35
1 36
1 37
1 38
1 39
1 40
1 41
1 42
1 43
1 44
1 45
1 46
1 47
1 48
1 49
1 50
1 51
1 52
1 53
1 54
1 55
1 56
1 57
1 58
1 59
1 60
1 61
1 62
1 63
1 64
1 65
1 66
1 67
1 68
1 69
1 70
1 71
1 72
1 73
1 74
1 75
1 76
1 77
1 78
1 79
1 80
1 81
1 82
1 83
1 84
1 85
1 86
1 87
1 88
1 89
1 90
1 91
1 92
1 93
1 94
1 95
1 96
1 97
1 98
1 99
1 100
1 101
1 102
1 103
1 104
1 105
1 106
1 107
1 108
1 109
1 110
1 111
1 112
1 113
1 114
1 115
1 116
1 117
1 118
1 119
1 120
1 121
1 122
1 123
1 124
1 125
1 126
1 127
1 128
1 129
1 130
1 131
1 132
1 133
1 134
1 135
1 136
1 137
1 138
1 139
1 140
1 141
1 142
1 143
1 144
1 145
1 146
1 147
1 148
1 149
1 150
1 151
1 152
1 153
1 154
1 155
1 156
1 157
1 158
1 159
1 160
1 161
1 162
1 163
1 164
1 165
1 166
1 167
1 168
1 169
1 170
1 171
1 172
1 173
1 174
1 175
1 176
1 177
1 178
1 179
1 180
1 181
1 182
1 183
1 184
1 185
1 186
1 187
1 188
1 189
1 190
1 191
1 192
1 193
1 194
1 195
1 196
1 197
1 198
1 199
1 200
1 201
1 202
1 203
1 204
1 205
1 206
1 207
1 208
1 209
1 210
1 211
1 212
1 213
1 214
1 215
1 216
1 217
1 218
1 219
1 220
1 221
1 222
1 223
1 224
1 225
1 226
1 227
1 228
1 229
1 230
1 231
1 232
1 233
1 234
1 235
1 236
1 237
1 238
1 239
1 240
1 241
1 242
1 243
1 244
1 245
1 246
1 247
1 248
1 249
1 250
1 251
1 252
1 253
1 254
1 255
1 256
1 257
1 258
1 259
1 260
1 261
1 262
1 263
1 264
1 265
1 266
1 267
1 268
1 269
1 270
1 271
1 272
1 273
1 274

POINT_DATA 275
SCALARS id int 1
LOOKUP_TABLE default
1
2
4
5
6
7
8
9
10
11
12
13
14
16
17
19
21
22
23
24
25
26
27
28
29
30
31
32
33
34
35
36
37
38
39
41
42
44
45
47
48
49
50
51
52
53
54
55
56
57
59
60
61
62
63
64
65
66
67
68
69
70
71
72
73
74
76
77
78
79
80
82
83
84
85
86
87
88
89
90
91
92
93
94
95
96
97
98
99
100
101
102
103
104
105
106
107
108
109
110
111
112
113
114
115
116
117
118
119
120
121
122
123
124
125
127
128
129
130
131
132
133
134
135
136
137
138
140
141
142
143
144
146
147
148
149
150
151
153
154
155
156
157
158
159
160
162
164
165
166
167
168
169
170
171
172
173
174
176
177
178
179
182
183
184
185
186
187
188
189
190
191
192
193
194
195
196
197
198
199
200
201
202
203
204
205
206
207
208
209
210
211
212
213
214
215
216
217
218
219
220
222
224
225
226
227
228
229
230
232
233
234
235
236
237
239
240
241
242
243
244
246
247
248
249
250
251
252
253
254
255
256
257
258
259
260
261
262
263
264
265
266
267
268
269
270
271
272
273
274
275
276
277
278
279
280
281
283
284
285
286
287
288
289
290
291
292
293
294
295
296
297
298
299
300

SCALARS type int 1
LOOKUP_TABLE default
1
1
1
1
1
1
1
1
1
1
1
1
1
1
1
1
1
1
1
1
1
1
1
1
1
1
1
1
1
1
1
1
1
1
1
1
1
1
1
1
1
1
1
1
1
1
1
1
1
1
1
1
1
1
1
1
1
1
1
1
1
1
1
1
1
1
1
1
1
1
1
1
1
1
1
1
1
1
1
1
1
1
1
1
1
1
1
1
1
1
1
1
1
1
1
1
1
1
1
1
1
1
1
1
1
1
1
1
1
1
1
1
1
1
1
1
1
1
1
1
1
1
1
1
1
1
1
1
1
1
1
1
1
1
1
1
1
1
1
1
1
1
1
1
1
1
1
1
1
1
1
1
1
1
1
1
1
1
1
1
1
1
1
1
1
1
1
1
1
1
1
1
1
1
1
1
1
1
1
1
1
1
1
1
1
1
1
1
1
1
1
1
1
1
1
1
1
1
1
1
1
1
1
1
1
1
1
1
1
1
1
1
1
1
1
1
1
1
1
1
1
1
1
1
1
1
1
1
1
1
1
1
1
1
1
1
1
1
1
1
1
1
1
1
1
1
1
1
1
1
1
1
1
1
1
1
1
1
1
1
1
1
1
1
1
1
1
1
1
1
1
1
1
1
1

SCALARS radius float 1
LOOKUP_TABLE default
5e-05
5e-05
5e-05
5e-05
5e-05
5e-05
5e-05
5e-05
5e-05
5e-05
5e-05
5e-05
5e-05
5e-05
5e-05
5e-05
5e-05
5e-05
5e-05
5e-05
5e-05
5e-05
5e-05
5e-05
5e-05
5e-05
5e-05
5e-05
5e-05
5e-05
5e-05
5e-05
5e-05
5e-05
5e-05
5e-05
5e-05
5e-05
5e-05
5e-05
5e-05
5e-05
5e-05
5e-05
5e-05
5e-05
5e-05
5e-05
5e-05
5e-05
5e-05
5e-05
5e-05
5e-05
5e-05
5e-05
5e-05
5e-05
5e-05
5e-05
5e-05
5e-05
5e-05
5e-05
5e-05
5e-05
5e-05
5e-05
5e-05
5e-05
5e-05
5e-05
5e-05
5e-05
5e-05
5e-05
5e-05
5e-05
5e-05
5e-05
5e-05
5e-05
5e-05
5e-05
5e-05
5e-05
5e-05
5e-05
5e-05
5e-05
5e-05
5e-05
5e-05
5e-05
5e-05
5e-05
5e-05
5e-05
5e-05
5e-05
5e-05
5e-05
5e-05
5e-05
5e-05
5e-05
5e-05
5e-05
5e-05
5e-05
5e-05
5e-05
5e-05
5e-05
5e-05
5e-05
5e-05
5e-05
5e-05
5e-05
5e-05
5e-05
5e-05
5e-05
5e-05
5e-05
5e-05
5e-05
5e-05
5e-05
5e-05
5e-05
5e-05
5e-05
5e-05
5e-05
5e-05
5e-05
5e-05
5e-05
5e-05
5e-05
5e-05
5e-05
5e-05
5e-05
5e-05
5e-05
5e-05
5e-05
5e-05
5e-05
5e-05
5e-05
5e-05
5e-05
5e-05
5e-05
5e-05
5e-05
5e-05
5e-05
5e-05
5e-05
5e-05
5e-05
5e-05
5e-05
5e-05
5e-05
5e-05
5e-05
5e-05
5e-05
5e-05
5e-05
5e-05
5e-05
5e-05
5e-05
5e-05
5e-05
5e-05
5e-05
5e-05
5e-05
5e-05
5e-05
5e-05
5e-05
5e-05
5e-05
5e-05
5e-05
5e-05
5e-05
5e-05
5e-05
5e-05
5e-05
5e-05
5e-05
5e-05
5e-05
5e-05
5e-05
5e-05
5e-05
5e-05
5e-05
5e-05
5e-05
5e-05
5e-05
5e-05
5e-05
5e-05
5e-05
5e-05
5e-05
5e-05
5e-05
5e-05
5e-05
5e-05
5e-05
5e-05
5e-05
5e-05
5e-05
5e-05
5e-05
5e-05
5e-05
5e-05
5e-05
5e-05
5e-05
5e-05
5e-05
5e-05
5e-05
5e-05
5e-05
5e-05
5e-05
5e-05
5e-05
5e-05
5e-05
5e-05
5e-05
5e-05
5e-05
5e-05
5e-05
5e-05
5e-05
5e-05
5e-05
5e-05
5e-05
5e-05
5e-05
5e-05
5e-05
5e-05
5e-05
5e-05
5e-05
5e-05
5e-05
5e-05
5e-05
5e-05

SCALARS mass float 1
LOOKUP_TABLE default
1.46608e-10
1.46608e-10
1.46608e-10
1.46608e-10
1.46608e-10
1.46608e-10
1.46608e-10
1.46608e-10
1.46608e-10
1.46608e-10
1.46608e-10
1.46608e-10
1.46608e-10
1.46608e-10
1.46608e-10
1.46608e-10
1.46608e-10
1.46608e-10
1.46608e-10
1.46608e-10
1.46608e-10
1.46608e-10
1.46608e-10
1.46608e-10
1.46608e-10
1.46608e-10
1.46608e-10
1.46608e-10
1.46608e-10
1.46608e-10
1.46608e-10
1.46608e-10
1.46608e-10
1.46608e-10
1.46608e-10
1.46608e-10
1.46608e-10
1.46608e-10
1.46608e-10
1.46608e-10
1.46608e-10
1.46608e-10
1.46608e-10
1.46608e-10
1.46608e-10
1.46608e-10
1.46608e-10
1.46608e-10
1.46608e-10
1.46608e-10
1.46608e-10
1.46608e-10
1.46608e-10
1.46608e-10
1.46608e-10
1.46608e-10
1.46608e-10
1.46608e-10
1.46608e-10
1.46608e-10
1.46608e-10
1.46608e-10
1.46608e-10
1.46608e-10
1.46608e-10
1.46608e-10
1.46608e-10
1.46608e-10
1.46608e-10
1.46608e-10
1.46608e-10
1.46608e-10
1.46608e-10
1.46608e-10
1.46608e-10
1.46608e-10
1.46608e-10
1.46608e-10
1.46608e-10
1.46608e-10
1.46608e-10
1.46608e-10
1.46608e-10
1.46608e-10
1.46608e-10
1.46608e-10
1.46608e-10
1.46608e-10
1.46608e-10
1.46608e-10
1.46608e-10
1.46608e-10
1.46608e-10
1.46608e-10
1.46608e-10
1.46608e-10
1.46608e-10
1.46608e-10
1.46608e-10
1.46608e-10
1.46608e-10
1.46608e-10
1.46608e-10
1.46608e-10
1.46608e-10
1.46608e-10
1.46608e-10
1.46608e-10
1.46608e-10
1.46608e-10
1.46608e-10
1.46608e-10
1.46608e-10
1.46608e-10
1.46608e-10
1.46608e-10
1.46608e-10
1.46608e-10
1.46608e-10
1.46608e-10
1.46608e-10
1.46608e-10
1.46608e-10
1.46608e-10
1.46608e-10
1.46608e-10
1.46608e-10
1.46608e-10
1.46608e-10
1.46608e-10
1.46608e-10
1.46608e-10
1.46608e-10
1.46608e-10
1.46608e-10
1.46608e-10
1.46608e-10
1.46608e-10
1.46608e-10
1.46608e-10
1.46608e-10
1.46608e-10
1.46608e-10
1.46608e-10
1.46608e-10
1.46608e-10
1.46608e-10
1.46608e-10
1.46608e-10
1.46608e-10
1.46608e-10
1.46608e-10
1.46608e-10
1.46608e-10
1.46608e-10
1.46608e-10
1.46608e-10
1.46608e-10
1.46608e-10
1.46608e-10
1.46608e-10
1.46608e-10
1.46608e-10
1.46608e-10
1.46608e-10
1.46608e-10
1.46608e-10
1.46608e-10
1.46608e-10
1.46608e-10
1.46608e-10
1.46608e-10
1.46608e-10
1.46608e-10
1.46608e-10
1.46608e-10
1.46608e-10
1.46608e-10
1.46608e-10
1.46608e-10
1.46608e-10
1.46608e-10
1.46608e-10
1.46608e-10
1.46608e-10
1.46608e-10
1.46608e-10
1.46608e-10
1.46608e-10
1.46608e-10
1.46608e-10
1.46608e-10
1.46608e-10
1.46608e-10
1.46608e-10
1.46608e-10
1.46608e-10
1.46608e-10
1.46608e-10
1.46608e-10
1.46608e-10
1.46608e-10
1.46608e-10
1.46608e-10
1.46608e-10
1.46608e-10
1.46608e-10
1.46608e-10
1.46608e-10
1.46608e-10
1.46608e-10
1.46608e-10
1.46608e-10
1.46608e-10
1.46608e-10
1.46608e-10
1.46608e-10
1.46608e-10
1.46608e-10
1.46608e-10
1.46608e-10
1.46608e-10
1.46608e-10
1.46608e-10
1.46608e-10
1.46608e-10
1.46608e-10
1.46608e-10
1.46608e-10
1.46608e-10
1.46608e-10
1.46608e-10
1.46608e-10
1.46608e-10
1.46608e-10
1.46608e-10
1.46608e-10
1.46608e-10
1.46608e-10
1.46608e-10
1.46608e-10
1.46608e-10
1.46608e-10
1.46608e-10
1.46608e-10
1.46608e-10
1.46608e-10
1.46608e-10
1.46608e-10
1.46608e-10
1.46608e-10
1.46608e-10
1.46608e-10
1.46608e-10
1.46608e-10
1.46608e-10
1.46608e-10
1.46608e-10
1.46608e-10
1.46608e-10
1.46608e-10
1.46608e-10
1.46608e-10
1.46608e-10
1.46608e-10
1.46608e-10
1.46608e-10
1.46608e-10
1.46608e-10
1.46608e-10
1.46608e-10
1.46608e-10
1.46608e-10
1.46608e-10
1.46608e-10

VECTORS velocity float
0.00557987 -0.000127921 -5.21499e-05
0.00546392 9.43339e-05 0.000340697
0.00548082 0.000188517 0.000287194
0.00615243 -0.000474976 4.4208e-05
0.00571929 -0.000720424 -0.000839423
0.00562284 8.58707e-05 0.000355154
0.0056796 6.64801e-05 0.000370471
0.00574261 0.000116157 -8.71268e-05
0.00563693 0.000156915 0.000318684
0.00571396 -1.55624e-05 0.000291803
0.00574073 0.000127829 -0.000644719
0.00612278 -0.000463934 3.22441e-05
0.00624492 0.000108282 -0.000123307
0.00633453 0.000179088 -0.000151359
0.00566051 1.95955e-05 0.000392757
0.00559501 -0.000173262 -3.37086e-05
0.00562718 2.82315e-05 0.000381676
0.00557475 0.000178774 0.000302718
0.00616756 0.00013884 -0.000132127
0.00558299 0.000192708 -4.45595e-05
0.00560717 1.24568e-05 0.000396208
0.00564824 0.000167933 -5.57381e-05
0.00624643 -0.000155117 -0.000561317
0.00535255 0.000214608 0.000262875
0.00609818 -0.000457124 2.42858e-05
0.00564523 8.65711e-06 0.000396619
0.0057986 3.22119e-05 0.000391602
0.00559523 1.3928e-06 0.000397262
0.00574148 -0.000727225 -0.000837419
0.0056531 -1.65473e-05 0.00041321
0.00553456 4.74968e-05 0.000368599
0.005638 0.000123611 -8.38754e-05
0.00549504 0.000196423 0.000286568
0.00538806 0.000173443 0.000294934
0.00561694 0.000181743 -4.17314e-05
0.00618962 -0.000478535 7.98478e-05
0.00532535 0.000138297 0.000307394
0.00566397 3.18713e-05 0.000387324
0.00554955 -0.000678877 -0.000841556
0.00592663 -0.000238583 0.000240657
0.00558253 6.77482e-05 0.000366309
0.0056961 0.000117813 -8.51705e-05
0.00559832 4.80445e-06 0.00039069
0.00572663 5.32336e-05 0.00037612
0.0059569 5.13038e-05 -0.000626605
0.0055232 1.48087e-06 -0.000272243
0.0061893 -0.000340173 6.67296e-05
0.00547525 0.000183146 -0.000646214
0.00620017 -0.000225072 3.42136e-05
0.0054709 -0.000438424 -0.000654602
-5.0195e-15 -7.41203e-15 7.69802e-14
0.00578619 2.50661e-05 0.000398162
0.00619971 -0.000487523 6.35412e-05
0.00545844 4.23195e-05 0.000364455
0.00617662 -0.000331422 -2.50389e-06
0.0055678 0.000194297 -4.47521e-05
0.00548815 3.2234e-06 -0.000676498
0.00608617 0.000242606 -0.000167064
0.00554467 5.71882e-05 0.000357558
0.00535693 0.000159522 0.000302609
0.00605855 -0.000329439 8.27499e-06
0.00574447 0.000108509 -0.000111339
0.00634612 0.000169363 -0.000152746
0.00568139 -0.000163932 -1.4944e-05
0.00541293 0.000208899 0.000275281
0.00563831 6.2871e-06 0.000396959
0.0064592 0.000685775 -0.0010029
0.00547575 9.01191e-05 0.000342728
0.00634375 0.000549538 -0.000132061
0.00627295 0.000246734 -0.000172137
0.0054653 0.000145748 0.000309899
0.00615396 0.000175024 -0.000143441
0.00580612 0.000101653 -0.00063912
0.00567307 0.000118961 -8.48554e-05
0.00623744 0.000220232 -0.000164647
0.00540348 -1.43909e-05 0.000393969
0.00544964 8.9371e-05 0.00035024
0.00546989 2.50547e-05 0.00037636
0.00617163 -0.000314563 1.18914e-06
0.00555882 6.39721e-05 0.000378173
0.00548351 0.000175778 -0.000643324
0.0054759 5.39036e-05 0.000364502
0.00540953 0.000155243 0.000412143
0.0056707 -0.000189817 -3.89161e-05
0.00553931 -2.27338e-05 0.000379723
0.00544389 4.72183e-05 0.000358961
0.00628115 -5.09789e-06 -0.000638302
0.00558421 -3.82686e-05 0.000416782
0.0058143 0.000125143 -0.000651467
0.00560668 2.48202e-05 0.000386322
0.00587062 0.000109749 -0.000641763
4.16004e-15 1.05318e-14 8.29614e-14
1.19201e-22 -1.27651e-22 1.23839e-22
0.00636041 0.00025427 0.000279635
0.00624539 7.87863e-06 -0.000640337
0.00558188 0.000179744 -0.000656496
0.00636434 0.000539556 -0.000129437
0.00617945 -0.000317293 3.77532e-06
0.00627605 -0.000168246 0.00013361
0.00623145 -0.000149156 0.000198532
0.00549911 8.95001e-05 0.000355681
0.00573178 0.000195934 -0.000657613
0.00529188 0.00024025 -0.000658843
0.0057406 0.000152033 -0.000654942
0.00534103 -1.72143e-05 0.000389867
0.00561124 3.11121e-05 0.000386332
0.00557821 6.32594e-05 0.000363673
0.00551587 0.000123112 -0.000622707
0.0061334 -0.000285315 -1.45021e-07
0.00564825 4.72356e-05 0.000376859
0.00614722 -0.000281072 3.78945e-06
0.00537789 5.8842e-05 0.000328626
0.00633287 0.000204563 -0.000151158
0.00563032 -1.59213e-05 0.000408641
0.00544569 0.000124663 0.00032109
0.00632703 -1.45186e-05 -0.000636102
0.00563802 1.16117e-05 0.00039459
0.00548094 0.000238598 9.44332e-05
0.00575475 0.000134871 -0.000650901
0.00581083 0.00011336 -0.00064919
0.00524251 8.13784e-06 0.000369618
0.00553724 1.34934e-05 0.000389148
0.00559147 6.57296e-05 0.000364537
0.0058166 -0.000363188 1.80711e-05
0.0055701 0.000154423 -0.000650157
0.00615905 -0.000392129 5.05872e-05
0.00554459 6.58259e-05 0.000360851
0.00538657 8.28998e-05 0.000334473
0.00606948 0.000193059 -0.000709548
0.00611531 0.000153174 -0.000137199
0.00634196 -4.81037e-06 -0.000633027
0.00573922 5.17502e-05 -0.000610182
0.00621157 7.88638e-05 -0.000670235
0.0056751 0.000157023 -0.00065523
0.0060456 7.69172e-05 -0.000649938
0.00566937 3.42272e-05 0.000385619
0.00620645 0.000226479 -0.000164701
0.00597958 0.000129472 -0.000496842
0.00596749 -0.000302185 -0.000463832
0.00616395 9.9085e-05 -0.000674199
0.00582498 9.12129e-05 -0.000653465
0.00607896 0.000122766 -0.000676056
-3.83171e-14 8.16705e-14 2.95888e-13
0.00656682 -5.64321e-05 -0.000638532
0.00539986 3.88243e-05 0.000355558
0.00592767 0.000118301 -0.000583186
0.00640262 0.000106439 -0.000173149
0.00632855 -6.91199e-05 -0.00070868
0.00616625 0.000207854 -0.000156892
0.00557218 8.02562e-05 0.000361031
0.00612026 0.000232017 -0.000170482
0.00625749 0.000166395 -0.000144341
0.00616345 0.000232533 -0.000164131
0.00619975 0.000192794 -0.000153092
0.00618148 -0.000326161 2.0388e-05
0.00531744 0.000234467 -0.000662096
0.00614881 -0.000283669 -1.34543e-05
0.00609463 2.9729e-05 -0.000631452
0.00630224 -5.79736e-07 -0.000651019
0.0059706 6.55587e-05 -0.000621129
0.00582983 0.000152011 -0.000322752
0.00610957 0.000186999 -0.000167855
0.0055889 -0.000161722 -3.73007e-05
0.00564891 0.000175458 -0.000658354
0.00555517 -0.000185873 -2.65405e-05
0.00581052 4.66095e-05 -0.000613734
0.006279 0.000211292 -0.000157914
0.00533411 1.18114e-05 0.000362102
0.00536606 0.000147308 0.000305826
0.00564404 -0.000180589 -4.94629e-05
0.00546077 -0.001383 0.000662736
0.00558872 5.78722e-05 0.000378448
0.00550962 0.000199145 -0.00065526
0.00616786 -0.000412339 0.000149291
0.00632687 0.000149635 -0.000137131
0.00617572 0.000160926 -0.000142097
0.00607439 0.000197448 -0.000149928
0.00531093 -0.00143252 0.000273393
0.00588636 7.34582e-05 -0.000634026
0.0062325 9.2522e-05 -0.0001158
0.00613657 0.000130847 -0.000687848
0.00623246 0.000140529 -0.000140835
0.00624831 0.000468871 -0.00085648
0.00558918 5.23031e-05 0.000369941
0.00627168 0.000108643 -0.000124047
0.0059862 9.29861e-05 -0.000654931
0.0060392 -0.000139997 -0.000547399
0.00613353 5.39069e-05 -0.000648595
0.00608626 0.000171327 -0.000145886
0.00550588 0.000187335 -0.000649031
0.00564015 9.86591e-05 0.000346333
0.00554244 0.000136504 0.000324572
0.0062798 0.000127648 -0.000130817
0.00557973 -0.000167154 -3.54677e-05
0.00538888 0.000162613 0.000305343
0.00544484 -0.00142362 0.00066203
0.00616555 2.19417e-05 -0.000638786
0.00614279 -0.000290554 5.10706e-05
0.00578859 0.000135763 -0.000651648
0.00536232 0.000149785 0.000317456
0.00585882 8.91584e-05 -0.00063836
0.00586395 1.96622e-05 0.000407559
0.00652726 -8.12976e-05 -0.000633409
0.00554104 6.30322e-05 0.000345828
0.00615084 0.000142936 -0.000134972
0.00545979 -0.0014237 0.000663674
0.00533185 -0.00138343 0.000654098
0.0062984 0.000154981 -0.00013851
0.00602213 4.48333e-05 -0.00062984
0.00640951 0.000244719 0.000275338
0.00606725 0.00018696 -0.00032304
0.00536208 7.2983e-05 0.000331864
0.00594325 3.95487e-05 -0.000625395
0.00629911 -1.2416e-05 -0.000644392
0.00566428 0.000151982 -0.000655588
0.00583659 4.95607e-05 0.00157093
0.00574816 0.000155897 0.00140142
0.00577296 2.45927e-05 0.00158844
0.00608251 0.000109072 -0.000671742
0.00594337 3.38211e-05 -0.000627365
0.00583489 7.51846e-05 0.00151492
0.00519846 -0.0014049 0.000293293
0.00605963 3.11942e-05 -0.000632821
0.00594032 5.71744e-05 -0.000500521
0.00536162 -0.00141773 0.000285485
0.00605563 6.94393e-05 -0.00064768
0.00551202 3.63253e-05 0.000376683
0.00519767 -0.00140058 0.000347274
0.00545918 -0.0013933 0.000662909
0.00530773 -0.0014138 0.000277327
0.00638556 0.00020567 3.80523e-05
0.00636325 0.000196658 -0.000144242
0.00618008 -0.00028377 -0.000493468
0.00610713 0.000196975 -0.000152632
0.0052338 -0.00137397 0.000492499
0.00613062 0.000229834 -0.000165674
0.00548238 0.000254608 -0.000737989
0.00586364 8.60053e-05 -0.000633107
0.00535915 -0.00141559 0.000291475
0.00628969 -3.13627e-05 -0.000645708
0.005462 -0.00137804 0.00066267
0.00590705 9.50864e-05 -0.000579687
0.00604519 8.6721e-05 -0.000657172
0.00568117 5.5058e-05 -0.00060489
0.00587968 3.78374e-05 -0.000613961
0.00552612 2.04374e-05 0.000389922
0.00614022 0.000211169 -0.000155495
0.00539457 -0.00140906 0.000657139
0.00601207 3.61805e-05 -0.000631096
0.00526525 -0.00135109 0.000624653
0.00612927 1.96661e-05 -0.000632009
0.00610146 7.62115e-05 -0.000654463
0.00602111 3.33565e-05 -0.000629941
0.00562527 0.000104198 -0.000652694
0.00546052 -0.00138211 0.000662614
0.00545615 -0.00141853 0.000662866
0.00599657 0.00018279 -0.000352223
0.00584803 0.000107429 0.00146221
0.00629398 -9.71824e-06 -0.000637932
0.0067489 2.97632e-05 -0.000984752
0.00622343 6.26995e-05 -0.000107977
0.00595988 4.11858e-05 -0.00062143
0.00611613 0.000187862 -0.000148004
0.00621222 1.66696e-05 -0.000640751
0.00564358 0.000142415 -0.000626886
0.0064601 5.44077e-05 0.000202417
0.00623136 0.000121307 -0.000148698
0.00561753 0.000219393 -0.000626754
0.00656661 -4.94309e-05 -0.000650006
0.0054566 -0.00140815 0.000662852
0.00597932 3.4855e-05 -0.000627323
0.00556203 4.31497e-05 0.000390361
0.00533038 -0.00152029 0.000191534
0.00524301 -0.00140583 0.000282466
0.00550617 6.04267e-05 0.00036231

VECTORS force float
-4.67281e-11 -3.42944e-11 3.68166e-11
9.46922e-11 5.2019e-11 -4.75954e-11
2.55403e-11 4.34422e-11 -2.56424e-11
-1.2582e-10 -1.02975e-10 1.53777e-10
-1.0779e-10 1.62341e-10 -1.46333e-10
-1.21376e-10 6.56613e-10 -3.72613e-10
1.20256e-10 -2.13124e-11 -1.20603e-12
-1.62158e-11 -2.98476e-11 -5.54808e-11
-3.9165e-10 -1.97351e-10 5.95537e-11
-3.21582e-10 2.28642e-10 7.66127e-10
-1.91289e-10 2.57495e-10 -1.04392e-10
-2.26337e-10 -1.43407e-10 2.04254e-10
6.1138e-11 5.72772e-11 -5.27666e-11
3.02198e-11 1.74684e-11 2.34298e-11
1.27991e-10 1.38375e-10 -6.11284e-11
-8.9277e-12 -4.28309e-11 1.47311e-11
3.96985e-11 3.19236e-10 -1.65687e-10
-1.369e-10 1.11868e-10 -4.13933e-11
2.59956e-11 -2.07777e-11 -4.65224e-12
1.48874e-10 -9.59338e-11 5.90958e-11
-4.56241e-10 4.22298e-10 -2.603e-10
-7.41012e-11 -6.24839e-11 1.69942e-10
1.41333e-10 1.45593e-09 -7.6428e-10
-1.45526e-10 1.41179e-11 -4.25066e-11
-2.28585e-10 -2.28792e-10 3.47546e-10
-1.08945e-11 3.15673e-11 -2.93437e-11
-3.83487e-10 7.54249e-12 -2.4767e-11
9.17793e-11 1.99347e-10 -1.44982e-10
-5.20668e-11 6.12093e-11 -7.10452e-11
-3.95404e-10 3.58502e-10 -1.94742e-10
-3.54732e-10 3.86929e-10 -2.01712e-10
-3.71512e-11 -1.52243e-10 -6.96121e-12
5.93125e-11 6.35346e-11 -3.97801e-11
-2.25677e-11 -1.17279e-10 6.94263e-11
-5.79132e-11 -1.51532e-10 9.72635e-11
4.91642e-11 8.83128e-11 7.83142e-12
-2.09378e-10 -3.01741e-10 1.8181e-10
-1.17301e-10 5.35455e-10 -2.90784e-10
-2.91207e-10 1.19849e-10 -3.379e-11
2.30854e-10 2.00836e-11 4.45983e-11
-4.68568e-11 1.10371e-10 -1.22759e-10
5.06457e-11 -7.60467e-11 3.70376e-11
-1.12451e-10 -7.18011e-11 1.52253e-11
6.61609e-11 7.17606e-11 4.90111e-10
2.69276e-11 -1.20997e-10 -4.62123e-11
2.82144e-10 -7.8167e-11 -5.82283e-11
1.13904e-10 1.38613e-10 -1.21357e-10
4.9003e-12 -2.29795e-10 1.32621e-10
-1.44692e-10 -8.70133e-11 -2.33419e-10
1.47258e-10 2.66696e-11 2.62247e-13
5.68687e-25 4.70459e-24 6.20385e-25
6.69526e-11 3.43784e-10 -2.06446e-10
1.45027e-10 -4.7456e-11 5.00425e-11
-6.27382e-11 2.29034e-10 -1.59025e-10
7.71807e-11 -1.81245e-10 -3.30085e-11
1.32325e-10 1.87846e-11 -5.0232e-12
-7.0754e-11 7.8301e-11 -7.9733e-11
-1.53773e-10 1.21235e-10 -7.45603e-11
-1.82032e-10 1.8039e-10 -1.36573e-10
-1.04057e-10 -3.58373e-11 1.68264e-11
-5.56949e-10 2.25924e-10 -3.66244e-11
1.49767e-10 -6.33851e-11 4.18386e-11
2.11198e-11 6.81176e-11 -2.05171e-11
-3.00005e-10 -9.44258e-11 -6.77777e-11
2.24586e-10 7.35632e-12 -7.04411e-11
-1.23234e-10 -1.96477e-11 -1.28814e-11
7.65614e-10 -9.81925e-10 3.68714e-10
-3.01781e-10 -3.85248e-10 -5.86441e-12
-2.66101e-11 8.77536e-11 -2.58035e-10
8.29082e-11 -5.94225e-12 3.03462e-12
-1.5782e-10 -1.35662e-10 8.82607e-11
4.60316e-11 -1.19691e-11 8.22774e-12
-3.05432e-11 5.40854e-11 -2.55203e-11
-1.12463e-11 -1.2048e-10 -1.58103e-11
6.1457e-11 1.03873e-10 -1.95002e-10
-3.44885e-10 -5.54699e-11 -4.78794e-11
-9.33782e-11 5.06241e-10 -3.23673e-10
-2.25122e-11 2.72403e-10 -1.1145e-10
-1.84842e-10 -1.92912e-10 1.93677e-10
-3.58323e-10 1.1117e-10 -1.14657e-11
5.41619e-10 -2.23523e-10 3.12035e-11
-8.15379e-11 6.07666e-11 -9.70263e-11
-1.82293e-10 2.82752e-11 -2.89972e-11
-1.04628e-10 6.93853e-11 -2.12311e-10
-6.31226e-11 6.58066e-11 -1.00227e-10
-4.01517e-11 -4.3671e-11 4.13643e-11
-6.75152e-12 -1.23381e-11 1.91469e-11
3.01024e-11 -2.16907e-11 1.42582e-11
5.28742e-11 9.01012e-11 -1.8903e-11
-3.58235e-10 4.61261e-10 -3.11757e-10
1.86257e-10 1.02958e-11 -1.98078e-11
1.93802e-21 -5.89831e-22 -2.46086e-23
0.0 0.0 0.0
4.00437e-11 -8.37302e-11 -3.18153e-11
-3.6943e-11 -1.04331e-10 4.75684e-11
1.1863e-10 -2.55687e-10 1.46493e-10
-2.24404e-10 1.25343e-11 -9.53319e-11
3.32751e-10 -6.08595e-11 6.19676e-11
-6.76741e-10 -2.68844e-10 1.14379e-10
8.6902e-12 -6.71663e-10 4.16382e-10