# vtk DataFile Version 3.0
LIGGGHTS particles timestep 44800000
ASCII
DATASET POLYDATA
POINTS 275 float
0.274461 0.0181354 0.00710722
0.274122 0.0169505 0.00733679
0.274279 0.0168531 0.00742942
0.273737 0.0157144 0.00871837
0.280041 0.0165904 0.00751892
0.274409 0.0174943 0.00722848
0.27413 0.0166279 0.00767472
0.280238 0.0174985 0.00714986
0.274227 0.0166504 0.00764433
0.274315 0.017776 0.00725329
0.268495 0.0174637 0.00715612
0.273715 0.0156557 0.00879626
0.268428 0.0178138 0.00708038
0.26868 0.0183009 0.00693551
0.274092 0.0164938 0.0078181
0.273693 0.0155969 0.00887419
0.27445 0.0176867 0.00719321
0.274245 0.0167176 0.00757258
0.268636 0.018107 0.00695825
0.280159 0.0171308 0.00728645
0.273845 0.0160168 0.00833719
0.280198 0.0173146 0.00721812
0.268189 0.0169025 0.00749163
0.2742 0.0169048 0.00739538
0.273672 0.0155381 0.00895211
0.273931 0.0162828 0.00805341
0.274484 0.0174298 0.00724419
0.273866 0.0160826 0.00826515
0.280061 0.0166804 0.0074802
0.273834 0.0159478 0.00840885
0.274369 0.0173014 0.00726394
0.280296 0.0177742 0.00704748
0.274262 0.016785 0.00750065
0.27433 0.0171084 0.00729944
0.280179 0.0172227 0.00725226
0.27378 0.0158325 0.00856275
0.274372 0.0168772 0.0074024
0.274425 0.0171405 0.00729735
0.280081 0.0167704 0.00744149
0.273804 0.0158913 0.00848543
0.274321 0.0179101 0.00714455
0.280257 0.0175904 0.00711574
0.273896 0.0161545 0.00820241
0.274504 0.0175261 0.0072265
0.268552 0.0177194 0.00701011
0.28012 0.0169506 0.00736397
0.274685 0.0179411 0.00715437
0.268381 0.0173522 0.00722444
0.274664 0.0178449 0.00717196
0.280101 0.0168605 0.00740274
0.378022 0.019866 0.005332
0.274445 0.0172369 0.00727963
0.273758 0.0157733 0.00864044
0.27435 0.0172049 0.00728169
0.274343 0.0180064 0.00712694
0.28014 0.0170407 0.00732521
0.268305 0.01741 0.00719339
0.268387 0.0180662 0.00704427
0.274472 0.0177827 0.00717564
0.274255 0.0171727 0.00728383
0.274547 0.0177184 0.00719129
0.280218 0.0174065 0.00718399
0.268723 0.0184948 0.00691278
0.274515 0.0179749 0.00714047
0.274357 0.0168066 0.00747146
0.273914 0.0162147 0.00812459
0.268323 0.0170985 0.00737361
0.274141 0.0170429 0.00730385
0.267741 0.0156249 0.00862123
0.268649 0.0185612 0.00690466
0.274216 0.0169853 0.00733819
0.268468 0.018008 0.00705425
0.268514 0.0175483 0.00710638
0.280277 0.0176823 0.00708161
0.268521 0.0187897 0.00687718
0.274405 0.0170441 0.00731508
0.274183 0.0168307 0.0074601
0.274314 0.0174621 0.00723055
0.274391 0.017713 0.00726902
0.274493 0.0178788 0.00715806
0.268476 0.0173791 0.00720585
0.274238 0.0175251 0.00721511
0.273995 0.0164815 0.00783778
0.274336 0.0178719 0.00723564
0.274253 0.017487 0.0073062
0.274218 0.0174287 0.00723286
0.267836 0.0157966 0.00817624
0.273975 0.0164147 0.00790952
0.268327 0.0179167 0.00697954
0.274429 0.0175905 0.00721083
0.268348 0.018014 0.00696813
0.0643568 0.0187248 0.00531097
0.24257 0.0191927 0.00520306
0.268701 0.0183979 0.00692415
0.26783 0.0157097 0.00835191
0.268344 0.0175797 0.00709502
0.26776 0.0156528 0.00852707
0.274568 0.0178144 0.00717371
0.274621 0.0176527 0.00720715
0.274104 0.0168828 0.00740903
0.274069 0.016748 0.00755298
0.267873 0.0159461 0.00805478
0.26823 0.017467 0.00716104
0.268288 0.0177272 0.00702492
0.274385 0.0169478 0.00733276
0.274397 0.0178471 0.00716
0.274389 0.0173979 0.00724619
0.26842 0.0175213 0.00712499
0.27459 0.0179105 0.00715612
0.274209 0.0165831 0.00771616
0.274483 0.0182316 0.00708964
0.274199 0.0173322 0.00725061
0.26867 0.0186581 0.00689329
0.274112 0.0165606 0.00774656
0.274294 0.0173656 0.0072483
0.267818 0.015765 0.0082695
0.273956 0.0163475 0.00798105
0.274293 0.0176798 0.00727081
0.268382 0.0177526 0.00700047
0.268403 0.0178509 0.00698773
0.274291 0.0169216 0.00735531
0.274418 0.0179431 0.00714241
0.274375 0.017751 0.00717758
0.274525 0.0176223 0.00720886
0.268361 0.0172677 0.00727416
0.274273 0.0175834 0.00728843
0.274278 0.017718 0.00717971
0.27416 0.017142 0.00729724
0.268206 0.0165911 0.00767197
0.268593 0.0179132 0.00698247
0.26778 0.0156809 0.0084332
0.268458 0.0176908 0.00702589
0.267968 0.0159717 0.00803668
0.268363 0.0176637 0.00704409
0.268226 0.0166756 0.00762227
0.274034 0.0166268 0.00770726
0.268499 0.0186928 0.00688855
0.268487 0.0182393 0.00694206
0.268245 0.0167603 0.00757252
0.267948 0.0158871 0.00808609
0.267894 0.0160283 0.00800173
0.268187 0.0165066 0.00772168
0.0219312 0.0187687 0.00551176
0.268284 0.0169294 0.00747306
0.27431 0.0170121 0.00731712
0.268369 0.0181111 0.00695675
0.268447 0.0182068 0.00702772
0.267955 0.0162818 0.00785366
0.268531 0.0184332 0.00691932
0.274299 0.0178141 0.00716212
0.268456 0.0184989 0.00691128
0.268574 0.0186272 0.00689658
0.268477 0.0185958 0.00689992
0.268552 0.0185302 0.00690795
0.274536 0.0180713 0.00712284
0.26821 0.0173824 0.00721053
0.274455 0.0180013 0.00721607
0.267996 0.0164508 0.00775492
0.268286 0.0173255 0.00724329
0.267989 0.0160562 0.00798735
0.268335 0.0177805 0.00709556
0.26839 0.018208 0.00694538
0.274558 0.0181673 0.00710527
0.268269 0.0176364 0.00706205
0.274358 0.0179682 0.00721803
0.268477 0.0177849 0.00699831
0.268542 0.0188867 0.00686581
0.27444 0.0180393 0.00712481
0.274275 0.0172692 0.00726605
0.274407 0.0182952 0.0070741
0.262375 0.0181455 0.00708958
0.274051 0.0166807 0.00762477
0.268249 0.0175517 0.00711155
0.274611 0.0180066 0.00713854
0.268522 0.0181406 0.00703587
0.268583 0.0182702 0.00693877
0.26854 0.0180762 0.00696152
0.262065 0.0167853 0.00765537
0.268533 0.017633 0.00705666
0.268349 0.0178757 0.00706815
0.267853 0.0158595 0.00810036
0.268605 0.0183672 0.00692741
0.268303 0.017014 0.00742333
0.274354 0.0176548 0.00719517
0.268658 0.018204 0.00694688
0.268131 0.0166488 0.00764084
0.26817 0.016818 0.00754138
0.268051 0.0163098 0.00783921
0.268573 0.0178163 0.00699633
0.2684 0.0174368 0.00717472
0.274147 0.0166952 0.00760288
0.274166 0.0167623 0.00753114
0.268627 0.0184641 0.00691604
0.274386 0.0181991 0.00709168
0.274235 0.0170764 0.00730148
0.262284 0.0176571 0.00713254
0.26803 0.0162252 0.0078886
0.274633 0.0181028 0.00712094
0.268308 0.0178194 0.0069916
0.274015 0.0165483 0.00776624
0.268423 0.0179482 0.00697618
0.274465 0.0173334 0.00726191
0.268208 0.0169871 0.0074419
0.274086 0.0168153 0.00748111
0.268615 0.0180101 0.00696962
0.262288 0.0177566 0.00712413
0.26223 0.0174659 0.00714979
0.268596 0.0187242 0.00688521
0.268114 0.0169589 0.00745803
0.268526 0.0182911 0.00701824
0.268434 0.0184019 0.00692265
0.274179 0.0172357 0.00726836
0.268075 0.0167894 0.00755706
0.268172 0.017213 0.00730952
0.268191 0.0172977 0.00726003
0.261963 0.0164403 0.00800233
0.262028 0.0166469 0.00779474
0.261941 0.0163714 0.00807153
0.268167 0.016422 0.0077714
0.268519 0.0179792 0.00697299
0.261985 0.0165092 0.00793314
0.262158 0.0171316 0.0073069
0.268016 0.0165354 0.0077055
0.268334 0.0176764 0.00713938
0.262102 0.0169239 0.00751587
0.268092 0.0164793 0.00774015
0.274333 0.0175586 0.00721282
0.262179 0.0172005 0.00723747
0.262353 0.0180483 0.00709822
0.26212 0.0169932 0.00744602
0.26772 0.015597 0.00871497
0.268797 0.0184277 0.00692098
0.268265 0.0168448 0.00752279
0.268421 0.0177199 0.00711409
0.262192 0.0172702 0.00716702
0.268509 0.0183363 0.00693069
0.268267 0.0172408 0.00729272
0.268258 0.0176251 0.00717896
0.262084 0.0168546 0.00758559
0.267915 0.0161128 0.00795243
0.262397 0.0182428 0.00708094
0.268444 0.0180454 0.00696479
0.268111 0.0165642 0.00769055
0.268439 0.017606 0.00707525
0.268498 0.0178821 0.00698445
0.274234 0.0173905 0.00732396
0.268412 0.018305 0.00693402
0.262249 0.0175637 0.00714117
0.268151 0.0167333 0.0075911
0.262212 0.0173679 0.0071584
0.267976 0.0163663 0.0078043
0.268071 0.0163946 0.00778965
0.268036 0.0166201 0.007656
0.268325 0.0174947 0.00714399
0.262427 0.0179808 0.00710207
0.26231 0.0178538 0.00711549
0.268465 0.0181424 0.00695342
0.262007 0.016578 0.00786397
0.268133 0.0170436 0.00740851
0.268228 0.0170719 0.00739254
0.267935 0.0161973 0.00790305
0.268094 0.0168742 0.00750752
0.268562 0.0181732 0.00695014
0.26801 0.0161407 0.00793799
0.268342 0.0171831 0.00732389
0.268448 0.0179108 0.0070662
0.268452 0.0183576 0.0070104
0.268247 0.0171563 0.0073426
0.268152 0.0171283 0.00735903
0.262332 0.0179511 0.00710685
0.268056 0.0167048 0.00760654
0.274364 0.0181027 0.00710931
0.262048 0.0167159 0.00772532
0.262138 0.0170625 0.00737624
0.274257 0.0176216 0.00719736

VERTICES 275 550
1 0
1 1
1 2
1 3
1 4
1 5
1 6
1 7
1 8
1 9
1 10
1 11
1 12
1 13
1 14
1 15
1 16
1 17
1 18
1 19
1 20
1 21
1 22
1 23
1 24
1 25
1 26
1 27
1 28
1 29
1 30
1 31
1 32
1 33
1 34
1 35
1 36
1 37
1 38
1 39
1 40
1 41
1 42
1 43
1 44
1 45
1 46
1 47
1 48
1 49
1 50
1 51
1 52
1 53
1 54
1 55
1 56
1 57
1 58
1 59
1 60
1 61
1 62
1 63
1 64
1 65
1 66
1 67
1 68
1 69
1 70
1 71
1 72
1 73
1 74
1 75
1 76
1 77
1 78
1 79
1 80
1 81
1 82
1 83
1 84
1 85
1 86
1 87
1 88
1 89
1 90
1 91
1 92
1 93
1 94
1 95
1 96
1 97
1 98
1 99
1 100
1 101
1 102
1 103
1 104
1 105
1 106
1 107
1 108
1 109
1 110
1 111
1 112
1 113
1 114
1 115
1 116
1 117
1 118
1 119
1 120
1 121
1 122
1 123
1 124
1 125
1 126
1 127
1 128
1 129
1 130
1 131
1 132
1 133
1 134
1 135
1 136
1 137
1 138
1 139
1 140
1 141
1 142
1 143
1 144
1 145
1 146
1 147
1 148
1 149
1 150
1 151
1 152
1 153
1 154
1 155
1 156
1 157
1 158
1 159
1 160
1 161
1 162
1 163
1 164
1 165
1 166
1 167
1 168
1 169
1 170
1 171
1 172
1 173
1 174
1 175
1 176
1 177
1 178
1 179
1 180
1 181
1 182
1 183
1 184
1 185
1 186
1 187
1 188
1 189
1 190
1 191
1 192
1 193
1 194
1 195
1 196
1 197
1 198
1 199
1 200
1 201
1 202
1 203
1 204
1 205
1 206
1 207
1 208
1 209
1 210
1 211
1 212
1 213
1 214
1 215
1 216
1 217
1 218
1 219
1 220
1 221
1 222
1 223
1 224
1 225
1 226
1 227
1 228
1 229
1 230
1 231
1 232
1 233
1 234
1 235
1 236
1 237
1 238
1 239
1 240
1 241
1 242
1 243
1 244
1 245
1 246
1 247
1 248
1 249
1 250
1 251
1 252
1 253
1 254
1 255
1 256
1 257
1 258
1 259
1 260
1 261
1 262
1 263
1 264
1 265
1 266
1 267
1 268
1 269
1 270
1 271
1 272
1 273
1 274

POINT_DATA 275
SCALARS id int 1
LOOKUP_TABLE default
1
2
4
5
6
7
8
9
10
11
12
13
14
16
17
19
21
22
23
24
25
26
27
28
29
30
31
32
33
34
35
36
37
38
39
41
42
44
45
47
48
49
50
51
52
53
54
55
56
57
59
60
61
62
63
64
65
66
67
68
69
70
71
72
73
74
76
77
78
79
80
82
83
84
85
86
87
88
89
90
91
92
93
94
95
96
97
98
99
100
101
102
103
104
105
106
107
108
109
110
111
112
113
114
115
116
117
118
119
120
121
122
123
124
125
127
128
129
130
131
132
133
134
135
136
137
138
140
141
142
143
144
146
147
148
149
150
151
153
154
155
156
157
158
159
160
162
164
165
166
167
168
169
170
171
172
173
174
176
177
178
179
182
183
184
185
186
187
188
189
190
191
192
193
194
195
196
197
198
199
200
201
202
203
204
205
206
207
208
209
210
211
212
213
214
215
216
217
218
219
220
222
224
225
226
227
228
229
230
232
233
234
235
236
237
239
240
241
242
243
244
246
247
248
249
250
251
252
253
254
255
256
257
258
259
260
261
262
263
264
265
266
267
268
269
270
271
272
273
274
275
276
277
278
279
280
281
283
284
285
286
287
288
289
290
291
292
293
294
295
296
297
298
299
300

SCALARS type int 1
LOOKUP_TABLE default
1
1
1
1
1
1
1
1
1
1
1
1
1
1
1
1
1
1
1
1
1
1
1
1
1
1
1
1
1
1
1
1
1
1
1
1
1
1
1
1
1
1
1
1
1
1
1
1
1
1
1
1
1
1
1
1
1
1
1
1
1
1
1
1
1
1
1
1
1
1
1
1
1
1
1
1
1
1
1
1
1
1
1
1
1
1
1
1
1
1
1
1
1
1
1
1
1
1
1
1
1
1
1
1
1
1
1
1
1
1
1
1
1
1
1
1
1
1
1
1
1
1
1
1
1
1
1
1
1
1
1
1
1
1
1
1
1
1
1
1
1
1
1
1
1
1
1
1
1
1
1
1
1
1
1
1
1
1
1
1
1
1
1
1
1
1
1
1
1
1
1
1
1
1
1
1
1
1
1
1
1
1
1
1
1
1
1
1
1
1
1
1
1
1
1
1
1
1
1
1
1
1
1
1
1
1
1
1
1
1
1
1
1
1
1
1
1
1
1
1
1
1
1
1
1
1
1
1
1
1
1
1
1
1
1
1
1
1
1
1
1
1
1
1
1
1
1
1
1
1
1
1
1
1
1
1
1
1
1
1
1
1
1
1
1
1
1
1
1
1
1
1
1
1
1

SCALARS radius float 1
LOOKUP_TABLE default
5e-05
5e-05
5e-05
5e-05
5e-05
5e-05
5e-05
5e-05
5e-05
5e-05
5e-05
5e-05
5e-05
5e-05
5e-05
5e-05
5e-05
5e-05
5e-05
5e-05
5e-05
5e-05
5e-05
5e-05
5e-05
5e-05
5e-05
5e-05
5e-05
5e-05
5e-05
5e-05
5e-05
5e-05
5e-05
5e-05
5e-05
5e-05
5e-05
5e-05
5e-05
5e-05
5e-05
5e-05
5e-05
5e-05
5e-05
5e-05
5e-05
5e-05
5e-05
5e-05
5e-05
5e-05
5e-05
5e-05
5e-05
5e-05
5e-05
5e-05
5e-05
5e-05
5e-05
5e-05
5e-05
5e-05
5e-05
5e-05
5e-05
5e-05
5e-05
5e-05
5e-05
5e-05
5e-05
5e-05
5e-05
5e-05
5e-05
5e-05
5e-05
5e-05
5e-05
5e-05
5e-05
5e-05
5e-05
5e-05
5e-05
5e-05
5e-05
5e-05
5e-05
5e-05
5e-05
5e-05
5e-05
5e-05
5e-05
5e-05
5e-05
5e-05
5e-05
5e-05
5e-05
5e-05
5e-05
5e-05
5e-05
5e-05
5e-05
5e-05
5e-05
5e-05
5e-05
5e-05
5e-05
5e-05
5e-05
5e-05
5e-05
5e-05
5e-05
5e-05
5e-05
5e-05
5e-05
5e-05
5e-05
5e-05
5e-05
5e-05
5e-05
5e-05
5e-05
5e-05
5e-05
5e-05
5e-05
5e-05
5e-05
5e-05
5e-05
5e-05
5e-05
5e-05
5e-05
5e-05
5e-05
5e-05
5e-05
5e-05
5e-05
5e-05
5e-05
5e-05
5e-05
5e-05
5e-05
5e-05
5e-05
5e-05
5e-05
5e-05
5e-05
5e-05
5e-05
5e-05
5e-05
5e-05
5e-05
5e-05
5e-05
5e-05
5e-05
5e-05
5e-05
5e-05
5e-05
5e-05
5e-05
5e-05
5e-05
5e-05
5e-05
5e-05
5e-05
5e-05
5e-05
5e-05
5e-05
5e-05
5e-05
5e-05
5e-05
5e-05
5e-05
5e-05
5e-05
5e-05
5e-05
5e-05
5e-05
5e-05
5e-05
5e-05
5e-05
5e-05
5e-05
5e-05
5e-05
5e-05
5e-05
5e-05
5e-05
5e-05
5e-05
5e-05
5e-05
5e-05
5e-05
5e-05
5e-05
5e-05
5e-05
5e-05
5e-05
5e-05
5e-05
5e-05
5e-05
5e-05
5e-05
5e-05
5e-05
5e-05
5e-05
5e-05
5e-05
5e-05
5e-05
5e-05
5e-05
5e-05
5e-05
5e-05
5e-05
5e-05
5e-05
5e-05
5e-05
5e-05
5e-05
5e-05
5e-05
5e-05
5e-05
5e-05
5e-05
5e-05
5e-05
5e-05
5e-05
5e-05
5e-05
5e-05
5e-05
5e-05
5e-05
5e-05
5e-05
5e-05
5e-05
5e-05
5e-05

SCALARS mass float 1
LOOKUP_TABLE default
1.46608e-10
1.46608e-10
1.46608e-10
1.46608e-10
1.46608e-10
1.46608e-10
1.46608e-10
1.46608e-10
1.46608e-10
1.46608e-10
1.46608e-10
1.46608e-10
1.46608e-10
1.46608e-10
1.46608e-10
1.46608e-10
1.46608e-10
1.46608e-10
1.46608e-10
1.46608e-10
1.46608e-10
1.46608e-10
1.46608e-10
1.46608e-10
1.46608e-10
1.46608e-10
1.46608e-10
1.46608e-10
1.46608e-10
1.46608e-10
1.46608e-10
1.46608e-10
1.46608e-10
1.46608e-10
1.46608e-10
1.46608e-10
1.46608e-10
1.46608e-10
1.46608e-10
1.46608e-10
1.46608e-10
1.46608e-10
1.46608e-10
1.46608e-10
1.46608e-10
1.46608e-10
1.46608e-10
1.46608e-10
1.46608e-10
1.46608e-10
1.46608e-10
1.46608e-10
1.46608e-10
1.46608e-10
1.46608e-10
1.46608e-10
1.46608e-10
1.46608e-10
1.46608e-10
1.46608e-10
1.46608e-10
1.46608e-10
1.46608e-10
1.46608e-10
1.46608e-10
1.46608e-10
1.46608e-10
1.46608e-10
1.46608e-10
1.46608e-10
1.46608e-10
1.46608e-10
1.46608e-10
1.46608e-10
1.46608e-10
1.46608e-10
1.46608e-10
1.46608e-10
1.46608e-10
1.46608e-10
1.46608e-10
1.46608e-10
1.46608e-10
1.46608e-10
1.46608e-10
1.46608e-10
1.46608e-10
1.46608e-10
1.46608e-10
1.46608e-10
1.46608e-10
1.46608e-10
1.46608e-10
1.46608e-10
1.46608e-10
1.46608e-10
1.46608e-10
1.46608e-10
1.46608e-10
1.46608e-10
1.46608e-10
1.46608e-10
1.46608e-10
1.46608e-10
1.46608e-10
1.46608e-10
1.46608e-10
1.46608e-10
1.46608e-10
1.46608e-10
1.46608e-10
1.46608e-10
1.46608e-10
1.46608e-10
1.46608e-10
1.46608e-10
1.46608e-10
1.46608e-10
1.46608e-10
1.46608e-10
1.46608e-10
1.46608e-10
1.46608e-10
1.46608e-10
1.46608e-10
1.46608e-10
1.46608e-10
1.46608e-10
1.46608e-10
1.46608e-10
1.46608e-10
1.46608e-10
1.46608e-10
1.46608e-10
1.46608e-10
1.46608e-10
1.46608e-10
1.46608e-10
1.46608e-10
1.46608e-10
1.46608e-10
1.46608e-10
1.46608e-10
1.46608e-10
1.46608e-10
1.46608e-10
1.46608e-10
1.46608e-10
1.46608e-10
1.46608e-10
1.46608e-10
1.46608e-10
1.46608e-10
1.46608e-10
1.46608e-10
1.46608e-10
1.46608e-10
1.46608e-10
1.46608e-10
1.46608e-10
1.46608e-10
1.46608e-10
1.46608e-10
1.46608e-10
1.46608e-10
1.46608e-10
1.46608e-10
1.46608e-10
1.46608e-10
1.46608e-10
1.46608e-10
1.46608e-10
1.46608e-10
1.46608e-10
1.46608e-10
1.46608e-10
1.46608e-10
1.46608e-10
1.46608e-10
1.46608e-10
1.46608e-10
1.46608e-10
1.46608e-10
1.46608e-10
1.46608e-10
1.46608e-10
1.46608e-10
1.46608e-10
1.46608e-10
1.46608e-10
1.46608e-10
1.46608e-10
1.46608e-10
1.46608e-10
1.46608e-10
1.46608e-10
1.46608e-10
1.46608e-10
1.46608e-10
1.46608e-10
1.46608e-10
1.46608e-10
1.46608e-10
1.46608e-10
1.46608e-10
1.46608e-10
1.46608e-10
1.46608e-10
1.46608e-10
1.46608e-10
1.46608e-10
1.46608e-10
1.46608e-10
1.46608e-10
1.46608e-10
1.46608e-10
1.46608e-10
1.46608e-10
1.46608e-10
1.46608e-10
1.46608e-10
1.46608e-10
1.46608e-10
1.46608e-10
1.46608e-10
1.46608e-10
1.46608e-10
1.46608e-10
1.46608e-10
1.46608e-10
1.46608e-10
1.46608e-10
1.46608e-10
1.46608e-10
1.46608e-10
1.46608e-10
1.46608e-10
1.46608e-10
1.46608e-10
1.46608e-10
1.46608e-10
1.46608e-10
1.46608e-10
1.46608e-10
1.46608e-10
1.46608e-10
1.46608e-10
1.46608e-10
1.46608e-10
1.46608e-10
1.46608e-10
1.46608e-10
1.46608e-10
1.46608e-10
1.46608e-10
1.46608e-10
1.46608e-10
1.46608e-10
1.46608e-10
1.46608e-10
1.46608e-10
1.46608e-10
1.46608e-10
1.46608e-10
1.46608e-10
1.46608e-10
1.46608e-10
1.46608e-10
1.46608e-10
1.46608e-10
1.46608e-10
1.46608e-10
1.46608e-10
1.46608e-10
1.46608e-10

VECTORS velocity float
0.00591272 -0.000521721 0.000356728
0.00551999 -0.00054036 0.000182608
0.0054678 -0.000503355 0.00019676
0.00576605 -0.00107709 -5.93674e-05
0.00572501 -2.6377e-05 2.64859e-05
0.00547947 -0.000413834 0.000317295
0.00543592 -0.000542602 0.000191293
0.0056467 4.10738e-05 0.000160084
0.0054493 -0.000520191 0.000166348
0.00586965 -0.000486718 0.000344544
0.00554559 -0.000384939 4.14399e-05
0.00573711 -0.00102395 1.1781e-05
0.00557277 -0.000174209 0.000211457
0.00610467 -0.000491432 7.99447e-05
0.00580544 -0.000634996 0.000262669
0.00571922 -0.00103669 2.93306e-05
0.00586181 -0.000491612 0.000347908
0.00542214 -0.000515371 0.000162975
0.00619186 -0.000495793 8.26312e-05
0.00560366 -3.51151e-06 1.62609e-05
0.00583197 -0.000549459 0.000167019
0.00564253 4.17634e-05 0.000159613
0.00530097 -0.000250117 -2.61357e-05
0.00548141 -0.000467675 0.000196919
0.00569983 -0.0010457 3.76357e-05
0.00587497 -0.000504353 0.000134622
0.00572567 -0.000483583 0.000341389
0.00581947 -0.000530861 0.000150967
0.00573127 -2.74527e-05 2.69629e-05
0.00579779 -0.00055936 0.000184151
0.00549014 -0.000405612 0.00031703
0.00565295 3.98625e-05 0.000160788
0.0054351 -0.000517577 0.000167917
0.00550111 -0.000423284 0.000320435
0.00560362 4.86445e-05 0.000156052
0.00578506 -0.000874934 1.2737e-05
0.00547906 -0.000460787 0.000276187
0.0055086 -0.000445531 0.000324393
0.0057376 -2.85111e-05 2.74173e-05
0.00577425 -0.000626179 0.000158429
0.00587291 -0.000489979 0.000349058
0.00564879 4.06815e-05 0.00016036
0.00598681 -0.00064126 7.44217e-05
0.00580967 -0.00049509 0.000347226
0.00558273 -0.000284241 0.000194359
0.00559122 -1.47896e-06 1.53718e-05
0.00589786 -0.000529666 0.000357755
0.00549214 -0.000323746 8.86644e-06
0.00587709 -0.000526845 0.000356468
0.00558501 -5.0979e-07 1.49892e-05
-5.01971e-15 -7.41222e-15 7.69802e-14
0.00555444 -0.00045496 0.00032828
0.00578684 -0.00106503 -8.84394e-05
0.00552399 -0.000408258 0.000321381
0.00587219 -0.000525001 0.000353323
0.0055973 -2.44651e-06 1.58377e-05
0.00551303 -0.000349595 -3.71122e-05
0.00613927 -0.000404131 5.77375e-05
0.00587634 -0.000487734 0.00034867
0.00552019 -0.000406963 0.000316713
0.00584139 -0.000491658 0.000347713
0.00564458 4.14952e-05 0.000159981
0.00612088 -0.000505207 8.30064e-05
0.00589116 -0.000460782 0.000344537
0.00544941 -0.000542953 0.000188205
0.00583389 -0.000559372 8.45573e-05
0.00551235 -0.000313303 1.64171e-05
0.00551588 -0.000484611 0.000333444
0.00603557 0.000649283 0.00086067
0.00612476 -0.000495518 8.18096e-05
0.0054723 -0.000417131 0.000276221
0.0062116 -0.000370292 5.98239e-05
0.00498935 -0.000271047 6.0165e-06
0.00565087 4.02598e-05 0.000160544
0.00618638 -0.000446954 7.59413e-05
0.0054807 -0.000434358 0.000318742
0.00545922 -0.000498561 0.000146588
0.0054525 -0.000391614 0.000311084
0.00587159 -0.000482641 0.000345579
0.00587337 -0.000474028 0.000346733
0.00546747 -0.000379701 4.7411e-05
0.00547226 -0.000360049 0.000306881
0.00573938 -0.000480933 0.000105827
0.0058678 -0.000491831 0.000348631
0.00546724 -0.000353962 0.000311317
0.00548598 -0.000373859 0.000309955
0.00560742 -0.000131122 0.00045031
0.0058377 -0.000498502 0.000118796
0.00562737 -0.000259132 6.53754e-05
0.00574035 -0.00046771 0.000338844
0.0056537 -0.000267879 5.17503e-05
4.05686e-15 1.05287e-14 8.29669e-14
3.17557e-22 -3.03968e-22 -5.81428e-22
0.00613426 -0.000500969 8.24871e-05
0.00595737 0.000660841 0.000789412
0.00557968 -0.000252889 0.000156102
0.00610156 0.000650931 0.000881734
0.0058594 -0.000493853 0.000349062
0.0058473 -0.000470137 0.000344017
0.00547989 -0.000520296 0.000177603
0.00541183 -0.00044145 8.71567e-05
0.00569313 -0.00031963 0.000308707
0.00555122 -0.000182258 0.000225592
0.00561769 -0.000217925 0.000207514
0.00547981 -0.000427449 0.000317432
0.0058753 -0.000492053 0.000350293
0.00540065 -0.000394304 0.000310097
0.00557005 -0.000322636 4.2462e-05
0.0058968 -0.00050378 0.000351878
0.00548165 -0.000526435 0.000170861
0.00593688 -0.000536152 0.000360694
0.00550341 -0.000386084 0.00031309
0.00615264 -0.000509538 8.3558e-05
0.00564948 -0.000592334 0.000228721
0.00547313 -0.000380842 0.000314504
0.0056656 0.000349408 0.000617928
0.00588091 -0.000508533 0.000126072
0.00587722 -0.000444901 0.00035531
0.00561965 -0.000163367 0.000186692
0.00556203 -0.000265732 0.000116725
0.00544592 -0.00049126 0.000134314
0.0058705 -0.000501065 0.000352798
0.0058631 -0.000483666 0.000346409
0.00585404 -0.000497622 0.000349135
0.00547698 -0.000318534 2.40714e-06
0.00548103 -0.00035215 0.000301307
0.00585405 -0.000438423 0.000345829
0.00549679 -0.000392249 0.000324655
0.0052455 -0.000329345 5.99217e-05
0.00589563 -0.000383695 0.000216806
0.0061332 0.000648513 0.000893398
0.00557746 -0.000238811 0.000133921
0.00572496 -0.000296034 0.000296154
0.00558573 -0.000289692 5.93639e-05
0.00516491 -0.000304812 3.27764e-05
0.00540826 -0.000443528 7.99657e-05
0.00619365 -0.000415862 7.28219e-05
0.00609777 -0.00040599 7.22059e-05
0.00520889 -0.000294644 1.55847e-05
0.00567373 -0.000338659 0.000317038
0.00570267 -0.00031428 0.000305573
0.00531701 -0.000375232 6.34345e-05
-3.8304e-14 8.16977e-14 2.95883e-13
0.00537152 -0.000305954 1.25012e-05
0.00548099 -0.000420344 0.000318907
0.00615409 -0.000382452 6.67316e-05
0.00612618 -0.000424151 8.48855e-05
0.00568193 -0.000291609 0.000292248
0.00615941 -0.000425141 7.4308e-05
0.0058619 -0.000478948 0.000346074
0.00618155 -0.000401626 7.19438e-05
0.00616699 -0.000444849 7.6102e-05
0.00619161 -0.000406234 7.19588e-05
0.00617736 -0.000446547 7.62008e-05
0.00591741 -0.000513462 0.000355425
0.00556431 -0.000197737 0.000223693
0.00589473 -0.000419372 0.000332812
0.00561263 -0.000248063 0.000264837
0.00552192 -0.000302125 3.73077e-05
0.0056999 -0.000289623 0.000291871
0.00558005 -0.000168453 0.000208285
0.0061587 -0.000393628 6.92187e-05
0.00594794 -0.000521705 0.00035836
0.00560929 -0.000208432 0.000231116
0.00586542 -0.000491493 0.000356225
0.00559465 -0.000210169 0.000199291
0.00558122 -0.0003268 6.15947e-05
0.00592643 -0.000406187 0.00033389
0.00551698 -0.000362308 0.000310882
0.00593034 -0.000544855 0.000362034
0.00615573 0.000350721 -0.00017885
0.00538499 -0.000435598 8.06166e-05
0.00557727 -0.000190393 0.000222688
0.00592077 -0.000507737 0.000354413
0.00606392 -0.000469675 0.000126333
0.00610793 -0.000505618 8.22206e-05
0.00617977 -0.000379412 7.71595e-05
0.00549786 0.000463675 -0.000231883
0.00535921 -0.000385066 -6.78003e-05
0.00560479 -0.000193703 0.000109426
0.00569304 -0.000322924 0.000311724
0.00612938 -0.000459501 7.84396e-05
0.00547659 -0.000319424 1.27533e-05
0.00582281 -0.000477352 0.000342696
0.00613309 -0.000492903 8.09722e-05
0.005436 -0.000239939 0.000201366
0.00526085 -0.000246463 3.78219e-06
0.00570219 -0.000314529 0.0003061
0.00570316 -0.000323082 0.000222646
0.00551832 -0.000335744 1.37056e-05
0.00534541 -0.000512969 0.000164044
0.00541537 -0.00050475 0.000158916
0.00615088 -0.000489678 8.12903e-05
0.00591573 -0.000523539 0.000357137
0.00548786 -0.000402375 0.000317389
0.0060265 0.000336206 -0.000175311
0.00566043 -0.000301557 0.000297145
0.00594848 -0.00051997 0.000358046
0.00558331 -0.000236067 0.000141528
0.00560959 -0.000467122 9.56092e-05
0.00563291 -0.000284921 6.48838e-05
0.00563492 -0.000469174 0.000334566
0.0054208 -0.000266891 -1.08805e-05
0.00544306 -0.00045282 9.84445e-05
0.00610833 -0.00045715 0.000134781
0.00614739 0.000335101 -0.000180872
0.00571721 0.000437684 -0.000174343
0.00617853 -0.000469387 7.8972e-05
0.00544224 -0.000166818 0.000214497
0.00610038 -0.000478852 7.4239e-05
0.00617581 -0.000397697 7.17501e-05
0.00552818 -0.000398899 0.000314334
0.00533645 -0.000160503 0.000198981
0.00554101 -0.000179859 0.000222763
0.00557136 -0.00019077 0.000231024
0.00586548 0.000415449 -0.000165492
0.00583681 0.000431078 -0.000182198
0.0058742 0.000411621 -0.000161179
0.00537481 -0.000403813 7.04334e-05
0.00584191 -0.000408927 -0.000497212
0.00585381 0.00042099 -0.000171765
0.00572945 0.000433231 -0.000197707
0.00547485 -0.000195936 0.000225617
0.00543921 -0.00019161 -7.42962e-05
0.00555165 0.000465849 -0.000226702
0.00547158 -0.000195226 0.000224322
0.00555708 -0.000418913 0.000321471
0.00581515 0.000421636 -0.00017652
0.00614753 0.000343971 -0.000177317
0.00564957 0.000462452 -0.000213204
0.00597577 0.000643675 0.00084062
0.00613682 -0.00048712 8.09956e-05
0.00526705 -0.00029872 1.11117e-05
0.0055025 -0.000269476 0.000103543
0.00583399 0.000424014 -0.000175204
0.00615204 -0.000434563 7.39039e-05
0.00559223 -0.000288413 6.68738e-05
0.00553647 -0.000129361 0.000117825
0.00543981 0.000471996 -0.000241893
0.0056819 -0.000305372 0.000301579
0.00615281 0.000360715 -0.000178505
0.00616393 -0.000372056 6.88621e-05
0.00535966 -0.000222825 0.000145185
0.00558397 -0.000275649 9.48056e-05
0.00552823 -0.000326441 0.000190554
0.00546244 -0.000361375 0.000311258
0.00616517 -0.000396423 7.11908e-05
0.00578981 0.00042229 -0.000175178
0.00525633 -0.000266622 1.48219e-05
0.00579477 0.000425694 -0.000175216
0.00572483 -0.000289803 0.000292403
0.00576348 -0.000105293 0.000185457
0.00539398 -0.000171094 0.000232708
0.0055446 -0.000306926 4.649e-05
0.00615345 0.000354802 -0.000180086
0.00614552 0.000337946 -0.000179721
0.00616768 -0.000384579 6.66263e-05
0.00584285 0.000427286 -0.000178626
0.00549505 -0.000167121 0.000217827
0.00550768 -0.00026823 4.02957e-05
0.00566359 -0.000296584 0.000294465
0.00543843 -0.000173323 0.000201626
0.00600996 -0.000494254 8.42774e-05
0.00567047 -0.000292432 0.000292246
0.00546975 -0.000307697 7.78675e-06
0.00553882 -0.000214935 0.000177877
0.00614356 -0.000426133 6.94415e-05
0.00554113 -0.00025855 9.1393e-05
0.00552414 -0.000168058 0.00021489
0.00615141 0.000340453 -0.000178082
0.00539269 -0.00020332 0.000264022
0.00593818 -0.000377435 0.000330331
0.00572388 0.000444093 -0.000201078
0.00569432 0.000450474 -0.000204792
0.00545592 -0.000352373 0.000304666

VECTORS force float
-2.76337e-11 6.64435e-11 -1.31202e-11
1.12139e-11 3.6426e-11 -5.042e-11
-5.11286e-12 -7.89328e-11 1.21649e-10
-1.0944e-10 2.28106e-10 -4.48894e-10
1.02944e-12 -3.62694e-13 2.54188e-13
-1.91989e-10 8.3291e-13 -8.929e-12
-3.45086e-10 4.06861e-10 -4.09979e-10
5.48418e-13 6.5191e-13 -7.34976e-13
-3.96645e-10 2.00699e-11 3.58706e-11
-1.31004e-11 -6.59735e-11 -4.37265e-11
-5.06837e-11 -1.60226e-11 2.8308e-10
7.65198e-11 2.45111e-10 -2.52427e-10
-3.76235e-10 7.31249e-11 8.50457e-11
-7.15757e-11 2.21148e-10 -2.95155e-11
-1.94961e-10 4.16151e-10 -4.23608e-10
1.91132e-10 1.22488e-10 -1.93658e-10
-2.44594e-12 -7.55577e-11 -1.32653e-12
-2.33126e-10 2.98752e-11 -2.2081e-11
1.14157e-10 6.74561e-11 -2.87054e-11
2.97031e-12 4.98415e-13 -3.07909e-12
1.28785e-10 3.13447e-10 -1.6087e-10
-3.96969e-13 1.204e-12 -1.6296e-13
-3.64068e-10 6.14392e-11 2.4468e-10
1.12643e-10 3.5731e-10 2.30592e-10
-3.09323e-11 4.51098e-11 -5.4903e-11
-5.28606e-10 9.36611e-11 -2.7016e-11
-6.55661e-11 1.19304e-11 -5.68155e-12
-4.86514e-10 3.26383e-10 -1.36321e-10
9.40316e-13 -3.94599e-13 2.87849e-14
3.66088e-10 1.77435e-10 -2.67385e-10
-3.39248e-10 1.2144e-10 -4.0174e-11
1.97746e-13 1.31383e-12 -8.9344e-13
-3.5725e-11 -7.35944e-11 5.63745e-11
2.04828e-11 2.99661e-11 7.1379e-12
-1.45534e-12 -1.06217e-12 8.9048e-13
-1.12548e-10 -5.03332e-11 -5.64719e-10
4.7529e-11 -4.14249e-11 -2.75669e-11
-4.77986e-11 1.64423e-11 1.24868e-11
7.43743e-13 -3.26399e-13 -6.60959e-14
1.93575e-10 2.98823e-10 -2.42377e-10
3.90239e-11 6.51617e-11 -4.46551e-13
-2.76444e-13 1.23666e-12 -3.49698e-13
-5.88391e-10 2.60468e-11 -2.84686e-10
-5.28979e-11 1.17537e-11 -8.79517e-12
-7.5168e-12 4.41683e-11 -2.07233e-11
7.58593e-13 -6.23816e-13 -1.38891e-12
-2.37742e-11 4.35357e-11 -1.08688e-11
3.15697e-10 -2.86601e-10 1.61135e-10
9.12993e-11 -9.63086e-11 1.82428e-11
7.12921e-13 -5.41827e-15 4.36259e-13
-3.23117e-24 7.49632e-25 0.0
-1.60267e-10 1.98104e-11 -6.87866e-12
5.62297e-11 -3.69438e-10 -8.82866e-10
-1.08095e-10 8.79079e-11 -8.05438e-11
-2.76369e-11 -1.91006e-10 3.82593e-11
-6.89497e-14 9.38977e-13 3.34993e-12
-1.06929e-10 1.53406e-10 1.45518e-09
2.71135e-10 -2.65529e-10 1.3074e-10
-7.01231e-11 -7.76409e-11 1.41675e-11
-1.08304e-10 -7.96175e-11 -4.10287e-11
1.38494e-11 3.75643e-12 1.17425e-12
1.12872e-13 3.64217e-13 -1.45915e-13
-1.15727e-10 1.41869e-10 -1.57598e-11
-5.04171e-11 2.9658e-11 -2.33939e-11
9.95415e-11 1.28367e-11 -3.20243e-11
-3.29504e-10 4.01313e-11 -9.00079e-11
3.13199e-10 -1.05924e-10 -7.82955e-11
3.24979e-11 6.8761e-11 1.54147e-11
-5.38008e-11 3.3276e-12 -1.3341e-10
-2.42615e-10 2.29814e-13 2.13439e-13
1.87989e-10 1.48085e-10 2.11019e-10
-9.45159e-11 4.37406e-11 4.04266e-10
-2.46888e-10 9.3955e-12 3.51444e-11
-2.31644e-13 1.54881e-12 -8.98594e-15
6.77151e-11 -2.07203e-11 3.17385e-12
6.48296e-11 -1.71393e-11 4.07887e-11
3.16546e-11 1.09003e-10 4.32838e-12
6.69137e-11 -1.21207e-10 2.39656e-11
2.13117e-11 -3.12262e-11 -3.37926e-11
1.95203e-11 -7.45636e-11 2.65157e-12
-2.42388e-12 -3.01978e-10 1.35686e-10
-3.99008e-11 -4.313e-11 1.07994e-12
-5.93883e-11 -6.48397e-11 7.81363e-11
3.55051e-11 5.54227e-11 3.43276e-11
-1.05923e-10 4.03855e-11 4.81536e-11
-3.22461e-11 -1.47166e-10 -1.71482e-12
1.91452e-10 3.833e-12 -9.88208e-11
1.44784e-11 -1.79917e-11 4.90771e-11
5.50836e-11 -3.06066e-11 2.88566e-11
-7.53069e-11 -5.8994e-11 3.61491e-13
1.90538e-10 -7.03628e-11 3.24456e-11
-3.11485e-24 3.09081e-22 -5.0458e-23
0.0 0.0 0.0
6.13983e-12 2.36434e-10 -5.54265e-11
-1.37865e-11 3.45532e-12 -2.20061e-10
-1.68183e-10 -2.67271e-10 5.30871e-10
-1.57721e-10 4.1533e-11 -2.10626e-10
4.12567e-11 8.03649e-12 -3.64373e-12
6.87104e-11 -8.48285e-11 1.75657e-11