# vtk DataFile Version 3.0
LIGGGHTS particles timestep 59400000
ASCII
DATASET POLYDATA
POINTS 273 float
0.359471 0.0179322 0.0069837
0.359203 0.0168328 0.00759331
0.359415 0.0169706 0.00751082
0.358989 0.0161449 0.00842611
0.365259 0.0170696 0.00749337
0.359558 0.0175538 0.00715135
0.359228 0.0165867 0.00785923
0.365462 0.0178909 0.00696042
0.359357 0.0167316 0.00768029
0.359664 0.0179971 0.00698351
0.353638 0.0175489 0.0073342
0.358967 0.0160834 0.0085018
0.353801 0.018357 0.00699229
0.353693 0.0185517 0.00686175
0.359135 0.0165778 0.00789604
0.359513 0.0181275 0.00699168
0.359603 0.0177198 0.00704909
0.359374 0.016804 0.00761346
0.353803 0.0181793 0.0069996
0.365381 0.0175623 0.00717364
0.365421 0.0177267 0.00706697
0.353236 0.0166202 0.00779589
0.359605 0.0178723 0.007068
0.358943 0.0160224 0.0085774
0.3591 0.0164522 0.00804769
0.359717 0.0178318 0.00698126
0.247416 0.0184546 0.00545114
0.365279 0.0171517 0.00744007
0.359517 0.0173873 0.00725397
0.365525 0.0181839 0.00697082
0.359397 0.0168868 0.00756249
0.359475 0.0172208 0.00735659
0.365401 0.0176446 0.00712027
0.359034 0.0162676 0.00827477
0.359454 0.0171378 0.0074084
0.359655 0.0175802 0.00713633
0.365299 0.0172338 0.00738677
0.359057 0.016329 0.0081991
0.359408 0.0176654 0.00708012
0.365483 0.0179886 0.00696389
0.35178 0.0167716 0.00833676
0.359739 0.0179298 0.00697936
0.353708 0.0178155 0.00719267
0.36534 0.0173981 0.00728017
0.359671 0.0184546 0.00700366
0.353361 0.0171418 0.00753255
0.359555 0.0183229 0.00699966
0.36532 0.017316 0.00733347
0.378022 0.019866 0.005332
0.359677 0.0176638 0.00708478
0.359012 0.0162062 0.00835045
0.359496 0.017304 0.00730528
0.359747 0.0183891 0.00699955
0.36536 0.0174803 0.00722687
0.353338 0.0172292 0.00757803
0.353553 0.017927 0.00713636
0.359622 0.0178034 0.00699756
0.359358 0.0171104 0.00742337
0.359781 0.0181254 0.00698735
0.365444 0.0178083 0.007014
0.353671 0.0184544 0.00687111
0.359686 0.0180947 0.0069875
0.359435 0.017054 0.0074594
0.359079 0.0163903 0.00812343
0.353298 0.0168801 0.00766465
0.359223 0.0169161 0.00754196
0.352862 0.0154905 0.00857719
0.353713 0.0186473 0.00688252
0.35932 0.0169466 0.00753133
0.353673 0.0180457 0.00707598
0.353659 0.0176354 0.00728843
0.365504 0.0180863 0.00696735
0.35354 0.0182453 0.00696938
0.359633 0.0174972 0.00718748
0.359279 0.0167857 0.00764106
0.359421 0.0173601 0.00726949
0.359802 0.0182231 0.00699134
0.359643 0.0178994 0.00697979
0.353478 0.0172589 0.00747973
0.359328 0.0173431 0.00730158
0.359428 0.0177365 0.00714772
0.35959 0.0180632 0.00698762
0.359507 0.0178924 0.00706815
0.359307 0.0172604 0.00735388
0.35294 0.0157204 0.00825979
0.359193 0.016461 0.00801089
0.353372 0.0175478 0.0073214
0.359581 0.0176382 0.00710279
0.353393 0.0176351 0.00727734
0.0643568 0.0187248 0.00531097
0.24257 0.0191927 0.00520306
0.353655 0.0188017 0.00692352
0.352961 0.0158007 0.00820408
0.353404 0.0173163 0.00744449
0.352882 0.0155457 0.00849619
0.359728 0.0182901 0.00699548
0.359576 0.0184205 0.00700365
0.359431 0.0175679 0.00725204
0.359185 0.0167672 0.00766821
0.353401 0.0174912 0.00744587
0.353266 0.0171115 0.00754158
0.353329 0.0173733 0.00740948
0.359612 0.017414 0.00723874
0.359504 0.0176932 0.00706423
0.359538 0.0174705 0.00720271
0.353499 0.0173462 0.00743566
0.359707 0.0181924 0.00699149
0.359337 0.0166591 0.0077462
0.359611 0.0181609 0.00699161
0.359287 0.0171792 0.00740864
0.353575 0.0184209 0.00688013
0.359211 0.0165238 0.00793506
0.3594 0.0172769 0.0073208
0.352921 0.0156563 0.00833418
0.359118 0.0165148 0.00797187
0.359556 0.0179785 0.00708198
0.353446 0.0174908 0.00735642
0.353468 0.017578 0.00731244
0.359591 0.0173308 0.00729
0.359528 0.017785 0.00703291
0.359484 0.0176099 0.00711557
0.35976 0.0180277 0.00698336
0.35334 0.0170546 0.00757658
0.359617 0.0186099 0.00701138
0.359369 0.0175071 0.00719468
0.359244 0.0170033 0.00749773
0.353275 0.0163705 0.00792903
0.353758 0.0179978 0.00709577
0.352902 0.015601 0.0084152
0.353542 0.0175206 0.00734765
0.353075 0.0159186 0.00815064
0.353425 0.0174036 0.00740045
0.35329 0.0164586 0.00788405
0.359151 0.0166411 0.00782021
0.35352 0.018158 0.00701347
0.353435 0.0178093 0.00718944
0.353314 0.0165454 0.00784048
0.353195 0.0160208 0.00810578
0.353423 0.0175788 0.00740172
0.353255 0.0162831 0.00797322
0.0219312 0.0187687 0.00551176
0.353366 0.016718 0.00775409
0.359684 0.0179371 0.00706291
0.353414 0.017725 0.00723899
0.353701 0.0184348 0.00696439
0.353208 0.0167203 0.0078373
0.353595 0.0181016 0.0070482
0.359388 0.0175821 0.00713147
0.353478 0.0179844 0.00710108
0.353634 0.0182783 0.00695819
0.353499 0.0180757 0.00706648
0.353616 0.0181898 0.00700371
0.359653 0.0183562 0.00699959
0.353245 0.0170243 0.00758561
0.359534 0.0182252 0.00699567
0.35302 0.0160631 0.00807128
0.353449 0.0171019 0.00755963
0.3531 0.0164429 0.00798963
0.353507 0.0179273 0.00722562
0.353514 0.0180549 0.00716316
0.359492 0.0180298 0.00698771
0.353308 0.017286 0.00745351
0.359569 0.0179655 0.00698364
0.353563 0.0176079 0.00730364
0.353558 0.0183332 0.00692491
0.359547 0.0178676 0.00697968
0.359379 0.0171936 0.00737212
0.35954 0.0180769 0.00707354
0.347612 0.018599 0.00690484
0.359168 0.0167041 0.00774438
0.353287 0.0171988 0.00749754
0.359596 0.0185144 0.00703202
0.353756 0.0184037 0.00688657
0.353695 0.0181338 0.00702926
0.353627 0.0178693 0.00717022
0.347277 0.017144 0.00747187
0.35368 0.0177218 0.00724265
0.35382 0.0182665 0.00695365
0.353214 0.0161083 0.00806152
0.353716 0.0182246 0.00698126
0.353347 0.0168046 0.00770759
0.359463 0.0175266 0.00716692
0.353846 0.0183623 0.00690277
0.353176 0.0163598 0.00792755
0.353215 0.0165324 0.00784017
0.353096 0.0160074 0.00810574
0.353732 0.0179041 0.00714564
0.353383 0.0172291 0.00748852
0.359245 0.0166498 0.00778343
0.359261 0.0167161 0.00771039
0.353733 0.0183117 0.00693532
0.35945 0.0178334 0.00697967
0.359339 0.0170269 0.00747487
0.347513 0.0181352 0.00706263
0.353001 0.0159756 0.00811561
0.359632 0.0182586 0.0069956
0.353351 0.0174606 0.00736543
0.359416 0.0176509 0.00719821
0.353489 0.0176653 0.00726843
0.359697 0.0177481 0.00703281
0.353258 0.0167077 0.00775176
0.359298 0.0168605 0.00757745
0.35378 0.0180849 0.00704962
0.347535 0.0182276 0.00703116
0.34747 0.0179503 0.00712555
0.353652 0.0183655 0.00691228
0.353139 0.016588 0.00780581
0.353635 0.0187064 0.00690127
0.353456 0.0178965 0.0071454
0.359266 0.0170931 0.00745803
0.353098 0.0164132 0.00789416
0.353202 0.0168497 0.00767371
0.353224 0.016937 0.00762965
0.34717 0.0167068 0.00768989
0.347234 0.0169691 0.00755908
0.347149 0.0166193 0.00773349
0.353234 0.0161958 0.00801724
0.353605 0.0177825 0.00721546
0.347192 0.0167943 0.00764629
0.347384 0.0175832 0.00725825
0.35304 0.0161506 0.00802701
0.353486 0.0178399 0.00726978
0.347319 0.0173189 0.00738467
0.353135 0.0161826 0.00801709
0.359442 0.0174434 0.00721818
0.347405 0.0176731 0.00721993
0.347594 0.018506 0.00693645
0.347341 0.0174063 0.00734107
0.353614 0.0186104 0.00688221
0.353594 0.0185161 0.00685603
0.353337 0.0166323 0.00779673
0.353606 0.0179648 0.00721219
0.347426 0.0177655 0.00718847
0.353574 0.0180142 0.00709232
0.353296 0.0170541 0.0076662
0.353471 0.0177519 0.00731665
0.347298 0.0172315 0.00742827
0.353279 0.0171641 0.00762566
0.347631 0.018692 0.00687322
0.35351 0.0177526 0.00722434
0.353156 0.0162718 0.00797206
0.35352 0.0174334 0.00739163
0.353584 0.0176952 0.00725955
0.359443 0.0178211 0.00709648
0.353542 0.018166 0.00711055
0.347491 0.0180427 0.00709409
0.353191 0.0164547 0.00790008
0.347448 0.0178579 0.00715701
0.35307 0.0163213 0.00803798
0.353115 0.016095 0.00806143
0.353059 0.0162382 0.00798272
0.353359 0.0173165 0.00753397
0.347711 0.0186345 0.00689149
0.347556 0.01832 0.00699969
0.353531 0.0178398 0.00718031
0.347213 0.0168817 0.00760268
0.35316 0.0166752 0.00776178
0.353258 0.0168196 0.00775079
0.353932 0.0183154 0.00692202
0.353118 0.0165007 0.00784989
0.35365 0.0179573 0.00712286
0.35298 0.0158883 0.00815971
0.353319 0.0169673 0.00762061
0.353734 0.0187426 0.00690477
0.353652 0.0182707 0.00705631
0.353275 0.0169667 0.00771024
0.353181 0.0167629 0.00771864
0.347575 0.018413 0.00696808
0.353079 0.0163257 0.00793843
0.359429 0.0177487 0.00702878
0.347255 0.0170566 0.00751548
0.347362 0.0174938 0.00729746
0.359348 0.0174253 0.00724845

VERTICES 273 546
1 0
1 1
1 2
1 3
1 4
1 5
1 6
1 7
1 8
1 9
1 10
1 11
1 12
1 13
1 14
1 15
1 16
1 17
1 18
1 19
1 20
1 21
1 22
1 23
1 24
1 25
1 26
1 27
1 28
1 29
1 30
1 31
1 32
1 33
1 34
1 35
1 36
1 37
1 38
1 39
1 40
1 41
1 42
1 43
1 44
1 45
1 46
1 47
1 48
1 49
1 50
1 51
1 52
1 53
1 54
1 55
1 56
1 57
1 58
1 59
1 60
1 61
1 62
1 63
1 64
1 65
1 66
1 67
1 68
1 69
1 70
1 71
1 72
1 73
1 74
1 75
1 76
1 77
1 78
1 79
1 80
1 81
1 82
1 83
1 84
1 85
1 86
1 87
1 88
1 89
1 90
1 91
1 92
1 93
1 94
1 95
1 96
1 97
1 98
1 99
1 100
1 101
1 102
1 103
1 104
1 105
1 106
1 107
1 108
1 109
1 110
1 111
1 112
1 113
1 114
1 115
1 116
1 117
1 118
1 119
1 120
1 121
1 122
1 123
1 124
1 125
1 126
1 127
1 128
1 129
1 130
1 131
1 132
1 133
1 134
1 135
1 136
1 137
1 138
1 139
1 140
1 141
1 142
1 143
1 144
1 145
1 146
1 147
1 148
1 149
1 150
1 151
1 152
1 153
1 154
1 155
1 156
1 157
1 158
1 159
1 160
1 161
1 162
1 163
1 164
1 165
1 166
1 167
1 168
1 169
1 170
1 171
1 172
1 173
1 174
1 175
1 176
1 177
1 178
1 179
1 180
1 181
1 182
1 183
1 184
1 185
1 186
1 187
1 188
1 189
1 190
1 191
1 192
1 193
1 194
1 195
1 196
1 197
1 198
1 199
1 200
1 201
1 202
1 203
1 204
1 205
1 206
1 207
1 208
1 209
1 210
1 211
1 212
1 213
1 214
1 215
1 216
1 217
1 218
1 219
1 220
1 221
1 222
1 223
1 224
1 225
1 226
1 227
1 228
1 229
1 230
1 231
1 232
1 233
1 234
1 235
1 236
1 237
1 238
1 239
1 240
1 241
1 242
1 243
1 244
1 245
1 246
1 247
1 248
1 249
1 250
1 251
1 252
1 253
1 254
1 255
1 256
1 257
1 258
1 259
1 260
1 261
1 262
1 263
1 264
1 265
1 266
1 267
1 268
1 269
1 270
1 271
1 272

POINT_DATA 273
SCALARS id int 1
LOOKUP_TABLE default
1
2
4
5
6
7
8
9
10
11
12
13
14
16
17
19
21
22
23
24
26
27
28
29
30
31
32
33
35
36
37
38
39
41
42
44
45
47
48
49
50
51
52
53
54
55
56
57
59
60
61
62
63
64
65
66
67
68
69
70
71
72
73
74
76
77
78
79
80
82
83
84
85
86
87
88
89
90
91
92
93
94
95
96
97
98
99
100
101
102
103
104
105
106
107
108
109
110
111
112
113
114
115
116
117
118
119
120
121
122
123
124
125
127
128
129
130
131
132
133
134
135
136
137
138
140
141
142
143
144
146
147
148
149
150
151
153
154
155
156
157
158
159
160
162
164
165
166
167
168
169
170
171
172
173
174
176
177
178
179
182
183
184
185
186
187
188
189
190
191
192
193
194
195
196
197
198
199
200
201
202
203
204
205
206
207
208
209
210
211
212
213
214
215
216
217
218
219
220
222
224
225
226
227
228
229
230
232
233
234
235
236
237
239
240
241
242
243
244
246
247
248
249
250
251
252
253
254
255
256
257
258
259
260
261
262
263
264
265
266
267
268
269
270
271
272
273
274
275
276
277
278
279
280
281
283
284
285
286
287
288
289
290
291
292
293
294
295
296
297
298
299
300

SCALARS type int 1
LOOKUP_TABLE default
1
1
1
1
1
1
1
1
1
1
1
1
1
1
1
1
1
1
1
1
1
1
1
1
1
1
1
1
1
1
1
1
1
1
1
1
1
1
1
1
1
1
1
1
1
1
1
1
1
1
1
1
1
1
1
1
1
1
1
1
1
1
1
1
1
1
1
1
1
1
1
1
1
1
1
1
1
1
1
1
1
1
1
1
1
1
1
1
1
1
1
1
1
1
1
1
1
1
1
1
1
1
1
1
1
1
1
1
1
1
1
1
1
1
1
1
1
1
1
1
1
1
1
1
1
1
1
1
1
1
1
1
1
1
1
1
1
1
1
1
1
1
1
1
1
1
1
1
1
1
1
1
1
1
1
1
1
1
1
1
1
1
1
1
1
1
1
1
1
1
1
1
1
1
1
1
1
1
1
1
1
1
1
1
1
1
1
1
1
1
1
1
1
1
1
1
1
1
1
1
1
1
1
1
1
1
1
1
1
1
1
1
1
1
1
1
1
1
1
1
1
1
1
1
1
1
1
1
1
1
1
1
1
1
1
1
1
1
1
1
1
1
1
1
1
1
1
1
1
1
1
1
1
1
1
1
1
1
1
1
1
1
1
1
1
1
1
1
1
1
1
1
1

SCALARS radius float 1
LOOKUP_TABLE default
5e-05
5e-05
5e-05
5e-05
5e-05
5e-05
5e-05
5e-05
5e-05
5e-05
5e-05
5e-05
5e-05
5e-05
5e-05
5e-05
5e-05
5e-05
5e-05
5e-05
5e-05
5e-05
5e-05
5e-05
5e-05
5e-05
5e-05
5e-05
5e-05
5e-05
5e-05
5e-05
5e-05
5e-05
5e-05
5e-05
5e-05
5e-05
5e-05
5e-05
5e-05
5e-05
5e-05
5e-05
5e-05
5e-05
5e-05
5e-05
5e-05
5e-05
5e-05
5e-05
5e-05
5e-05
5e-05
5e-05
5e-05
5e-05
5e-05
5e-05
5e-05
5e-05
5e-05
5e-05
5e-05
5e-05
5e-05
5e-05
5e-05
5e-05
5e-05
5e-05
5e-05
5e-05
5e-05
5e-05
5e-05
5e-05
5e-05
5e-05
5e-05
5e-05
5e-05
5e-05
5e-05
5e-05
5e-05
5e-05
5e-05
5e-05
5e-05
5e-05
5e-05
5e-05
5e-05
5e-05
5e-05
5e-05
5e-05
5e-05
5e-05
5e-05
5e-05
5e-05
5e-05
5e-05
5e-05
5e-05
5e-05
5e-05
5e-05
5e-05
5e-05
5e-05
5e-05
5e-05
5e-05
5e-05
5e-05
5e-05
5e-05
5e-05
5e-05
5e-05
5e-05
5e-05
5e-05
5e-05
5e-05
5e-05
5e-05
5e-05
5e-05
5e-05
5e-05
5e-05
5e-05
5e-05
5e-05
5e-05
5e-05
5e-05
5e-05
5e-05
5e-05
5e-05
5e-05
5e-05
5e-05
5e-05
5e-05
5e-05
5e-05
5e-05
5e-05
5e-05
5e-05
5e-05
5e-05
5e-05
5e-05
5e-05
5e-05
5e-05
5e-05
5e-05
5e-05
5e-05
5e-05
5e-05
5e-05
5e-05
5e-05
5e-05
5e-05
5e-05
5e-05
5e-05
5e-05
5e-05
5e-05
5e-05
5e-05
5e-05
5e-05
5e-05
5e-05
5e-05
5e-05
5e-05
5e-05
5e-05
5e-05
5e-05
5e-05
5e-05
5e-05
5e-05
5e-05
5e-05
5e-05
5e-05
5e-05
5e-05
5e-05
5e-05
5e-05
5e-05
5e-05
5e-05
5e-05
5e-05
5e-05
5e-05
5e-05
5e-05
5e-05
5e-05
5e-05
5e-05
5e-05
5e-05
5e-05
5e-05
5e-05
5e-05
5e-05
5e-05
5e-05
5e-05
5e-05
5e-05
5e-05
5e-05
5e-05
5e-05
5e-05
5e-05
5e-05
5e-05
5e-05
5e-05
5e-05
5e-05
5e-05
5e-05
5e-05
5e-05
5e-05
5e-05
5e-05
5e-05
5e-05
5e-05
5e-05
5e-05
5e-05
5e-05
5e-05
5e-05
5e-05
5e-05
5e-05
5e-05
5e-05
5e-05
5e-05
5e-05
5e-05
5e-05
5e-05
5e-05
5e-05

SCALARS mass float 1
LOOKUP_TABLE default
1.46608e-10
1.46608e-10
1.46608e-10
1.46608e-10
1.46608e-10
1.46608e-10
1.46608e-10
1.46608e-10
1.46608e-10
1.46608e-10
1.46608e-10
1.46608e-10
1.46608e-10
1.46608e-10
1.46608e-10
1.46608e-10
1.46608e-10
1.46608e-10
1.46608e-10
1.46608e-10
1.46608e-10
1.46608e-10
1.46608e-10
1.46608e-10
1.46608e-10
1.46608e-10
1.46608e-10
1.46608e-10
1.46608e-10
1.46608e-10
1.46608e-10
1.46608e-10
1.46608e-10
1.46608e-10
1.46608e-10
1.46608e-10
1.46608e-10
1.46608e-10
1.46608e-10
1.46608e-10
1.46608e-10
1.46608e-10
1.46608e-10
1.46608e-10
1.46608e-10
1.46608e-10
1.46608e-10
1.46608e-10
1.46608e-10
1.46608e-10
1.46608e-10
1.46608e-10
1.46608e-10
1.46608e-10
1.46608e-10
1.46608e-10
1.46608e-10
1.46608e-10
1.46608e-10
1.46608e-10
1.46608e-10
1.46608e-10
1.46608e-10
1.46608e-10
1.46608e-10
1.46608e-10
1.46608e-10
1.46608e-10
1.46608e-10
1.46608e-10
1.46608e-10
1.46608e-10
1.46608e-10
1.46608e-10
1.46608e-10
1.46608e-10
1.46608e-10
1.46608e-10
1.46608e-10
1.46608e-10
1.46608e-10
1.46608e-10
1.46608e-10
1.46608e-10
1.46608e-10
1.46608e-10
1.46608e-10
1.46608e-10
1.46608e-10
1.46608e-10
1.46608e-10
1.46608e-10
1.46608e-10
1.46608e-10
1.46608e-10
1.46608e-10
1.46608e-10
1.46608e-10
1.46608e-10
1.46608e-10
1.46608e-10
1.46608e-10
1.46608e-10
1.46608e-10
1.46608e-10
1.46608e-10
1.46608e-10
1.46608e-10
1.46608e-10
1.46608e-10
1.46608e-10
1.46608e-10
1.46608e-10
1.46608e-10
1.46608e-10
1.46608e-10
1.46608e-10
1.46608e-10
1.46608e-10
1.46608e-10
1.46608e-10
1.46608e-10
1.46608e-10
1.46608e-10
1.46608e-10
1.46608e-10
1.46608e-10
1.46608e-10
1.46608e-10
1.46608e-10
1.46608e-10
1.46608e-10
1.46608e-10
1.46608e-10
1.46608e-10
1.46608e-10
1.46608e-10
1.46608e-10
1.46608e-10
1.46608e-10
1.46608e-10
1.46608e-10
1.46608e-10
1.46608e-10
1.46608e-10
1.46608e-10
1.46608e-10
1.46608e-10
1.46608e-10
1.46608e-10
1.46608e-10
1.46608e-10
1.46608e-10
1.46608e-10
1.46608e-10
1.46608e-10
1.46608e-10
1.46608e-10
1.46608e-10
1.46608e-10
1.46608e-10
1.46608e-10
1.46608e-10
1.46608e-10
1.46608e-10
1.46608e-10
1.46608e-10
1.46608e-10
1.46608e-10
1.46608e-10
1.46608e-10
1.46608e-10
1.46608e-10
1.46608e-10
1.46608e-10
1.46608e-10
1.46608e-10
1.46608e-10
1.46608e-10
1.46608e-10
1.46608e-10
1.46608e-10
1.46608e-10
1.46608e-10
1.46608e-10
1.46608e-10
1.46608e-10
1.46608e-10
1.46608e-10
1.46608e-10
1.46608e-10
1.46608e-10
1.46608e-10
1.46608e-10
1.46608e-10
1.46608e-10
1.46608e-10
1.46608e-10
1.46608e-10
1.46608e-10
1.46608e-10
1.46608e-10
1.46608e-10
1.46608e-10
1.46608e-10
1.46608e-10
1.46608e-10
1.46608e-10
1.46608e-10
1.46608e-10
1.46608e-10
1.46608e-10
1.46608e-10
1.46608e-10
1.46608e-10
1.46608e-10
1.46608e-10
1.46608e-10
1.46608e-10
1.46608e-10
1.46608e-10
1.46608e-10
1.46608e-10
1.46608e-10
1.46608e-10
1.46608e-10
1.46608e-10
1.46608e-10
1.46608e-10
1.46608e-10
1.46608e-10
1.46608e-10
1.46608e-10
1.46608e-10
1.46608e-10
1.46608e-10
1.46608e-10
1.46608e-10
1.46608e-10
1.46608e-10
1.46608e-10
1.46608e-10
1.46608e-10
1.46608e-10
1.46608e-10
1.46608e-10
1.46608e-10
1.46608e-10
1.46608e-10
1.46608e-10
1.46608e-10
1.46608e-10
1.46608e-10
1.46608e-10
1.46608e-10
1.46608e-10
1.46608e-10
1.46608e-10
1.46608e-10
1.46608e-10
1.46608e-10
1.46608e-10
1.46608e-10
1.46608e-10
1.46608e-10
1.46608e-10
1.46608e-10
1.46608e-10
1.46608e-10
1.46608e-10
1.46608e-10
1.46608e-10
1.46608e-10

VECTORS velocity float
0.00636823 0.000205788 -9.29653e-05
0.00592492 0.000354102 -0.000136045
0.00598755 0.000296976 -0.000103276
0.00622388 -0.000606218 -0.00111222
0.00585592 -7.15863e-05 -1.49934e-06
0.00624643 0.000210868 -4.49872e-05
0.00548172 -0.000465859 -0.00105245
0.00634234 -0.000159504 5.21016e-05
0.00575205 -0.000121948 -0.000599299
0.00630744 0.000258692 -8.7538e-05
0.00633193 0.000196948 -0.000462903
0.00621903 -0.000602855 -0.00111623
0.00615983 0.000788942 -0.00133588
0.00576921 1.09273e-05 0.000452282
0.00545452 -0.000412908 -0.00110892
0.00629972 0.00022082 -8.912e-05
0.00634718 0.000223245 -5.26446e-05
0.0059417 0.000303984 -9.42283e-05
0.00663631 0.000734636 -0.000759031
0.00614735 -0.000128474 3.13335e-05
0.00622948 -0.000144889 4.30897e-05
0.00568713 8.88533e-05 0.000357999
0.00638357 0.000251294 -6.82667e-05
0.00687386 -0.000805642 -0.00107671
0.00628609 -0.000635302 -0.00109942
0.00635774 0.000259744 -7.64243e-05
-0.431616 0.0701894 -0.0254924
0.00589624 -8.12322e-05 2.93826e-06
0.00618778 0.000256136 -7.35442e-05
0.00623546 -0.000132859 4.84119e-05
0.00599164 0.000294703 -9.94847e-05
0.00608623 0.000279021 -8.9605e-05
0.00620707 -0.000120125 3.14063e-05
0.00631645 -0.000647121 -0.00109187
0.00603716 0.000287211 -9.51489e-05
0.00626006 0.000195076 -3.57353e-05
0.00593718 -7.98447e-05 3.5983e-06
0.00643888 -0.000687393 -0.00108353
0.00633175 0.000287147 -9.43335e-05
0.0062969 -0.000152319 5.00438e-05
4.13843e-05 0.00534959 -0.00490515
0.00634956 0.000267345 -8.76616e-05
0.00662806 0.000313973 -0.000544286
0.00606426 -0.000117696 3.11808e-05
0.00620032 0.000277164 -8.63233e-05
0.00586783 0.000109658 0.000359283
0.00623973 0.000243154 -8.75299e-05
0.0060141 -8.55097e-05 1.36433e-05
-5.01963e-15 -7.41209e-15 7.69802e-14
0.00631518 0.000195327 -3.5592e-05
0.00625151 -0.000617895 -0.00110567
0.00613849 0.000267753 -8.1932e-05
0.00621527 0.000292495 -8.56033e-05
0.00608281 -0.000140905 3.38611e-05
0.00587667 0.000117712 0.000351534
0.00611075 9.21971e-05 0.000384546
0.0063908 0.00024326 -6.20396e-05
0.00604726 0.000315217 -0.000115512
0.00626267 0.000300952 -8.5838e-05
0.00629334 -0.000164325 5.46933e-05
0.00578701 -7.0579e-05 6.69835e-05
0.00628085 0.00026788 -8.75408e-05
0.00599017 0.00029749 -0.000101597
0.00657672 -0.00072984 -0.00107632
0.00578079 9.98649e-05 0.000359242
0.00594675 0.000334572 -0.000125081
0.00571934 -0.000335949 -0.000109837
0.00584115 0.000144865 -0.000220618
0.00594664 0.000329205 -0.000126396
0.00676018 0.000353153 -0.000459987
0.00629428 0.000335029 -0.000532106
0.00625817 -0.000141524 4.95759e-05
0.00560238 0.000154239 0.000327205
0.00620437 0.000209303 -4.46747e-05
0.0058711 0.000149081 -0.000350388
0.00616892 0.000286696 -9.19447e-05
0.00624114 0.000301877 -8.55515e-05
0.00635406 0.000247606 -8.3782e-05
0.00590064 9.8995e-05 0.000367506
0.00614596 0.000326055 -0.00011266
0.00633957 0.000273338 -8.89288e-05
0.00630675 0.000240422 -8.92164e-05
0.00638073 0.000244798 -8.21337e-05
0.00610072 0.000329375 -0.000110718
0.00561656 -1.44586e-05 0.000104646
0.00563501 -0.000508668 -0.00105519
0.00599871 0.000121368 0.000362129
0.00629971 0.000224119 -6.81107e-05
0.00602164 7.17418e-05 0.000390524
4.37659e-15 1.05003e-14 8.29542e-14
-1.45275e-22 4.01299e-22 -5.81428e-22
0.00578539 9.56874e-05 -0.000291204
0.00555895 0.000150767 0.000318319
0.00593175 0.000122624 0.000356914
0.00574713 -0.000335116 -0.000113304
0.00622552 0.000275333 -8.65604e-05
0.00621079 0.000255744 -8.68789e-05
0.00624162 0.000276933 -8.87148e-05
0.00571788 -0.000486524 -0.00113314
0.00598375 0.000108053 0.000358539
0.00584807 0.000112628 0.000357711
0.00594396 0.000122352 0.000358986
0.00617689 0.000219352 -5.18067e-05
0.0063479 0.000261313 -7.80389e-05
0.00622662 0.000247676 -6.60321e-05
0.005958 0.000119655 0.000360663
0.00625084 0.000274011 -8.64286e-05
0.00557013 -0.000490996 -0.00105317
0.00627368 0.000248598 -8.85157e-05
0.00606389 0.000320784 -0.000141102
0.00587817 0.000148689 0.000367729
0.00550793 -0.000478723 -0.0010573
0.00612347 0.000299787 -9.49502e-05
0.00574915 -0.00028268 -9.13291e-05
0.0056807 -0.000477898 -0.00110474
0.00636796 0.000249108 -8.61381e-05
0.00595573 0.000135748 0.000351625
0.00598123 0.000136683 0.000353945
0.00615126 0.000229124 -5.88403e-05
0.00637637 0.000246294 -7.98909e-05
0.00630866 0.000268879 -8.07599e-05
0.00629224 0.000296262 -8.59651e-05
0.00584114 0.000106076 0.000360888
0.0061485 0.000277572 -8.48532e-05
0.00623738 0.000297432 -0.000112836
0.00596995 0.000229942 -0.000332351
0.00535221 0.000155071 0.00030506
0.00728014 0.0010977 -0.000971843
0.00579791 -0.000341901 -0.000112657
0.0059437 0.000122789 0.000357401
0.00562818 0.000166614 0.000313325
0.00596926 0.000124747 0.000358199
0.00535792 0.000153444 0.000316303
0.0055441 -0.000431144 -0.00111365
0.00622195 5.67847e-05 0.000427127
0.00609057 9.93126e-05 0.000379075
0.00544837 0.000122615 0.000327528
0.00553123 9.86402e-05 0.000341963
0.00599776 0.000101447 0.00036328
0.0053832 0.000150551 0.000302598
-3.83656e-14 8.16807e-14 2.9588e-13
0.0057149 6.44666e-05 0.000372246
0.00635017 0.000265671 -8.67836e-05
0.00603343 9.01983e-05 0.000343202
0.00613917 -0.000368951 -0.000151998
0.00567459 0.000154595 0.000332494
0.00629403 0.000137257 0.000373762
0.00628586 0.000297536 -9.88455e-05
0.00615168 0.000101666 0.000384145
0.00566529 -0.000353032 -0.000154902
0.00597812 6.29878e-05 0.000432342
0.00580033 0.000331037 0.000280001
0.00622035 0.000270493 -8.63564e-05
0.00581622 0.000113827 0.000355748
0.00626947 0.000230659 -8.83336e-05
0.00559825 0.000152258 0.000319456
0.00585999 8.99553e-05 0.000369479
0.00544159 0.000198175 0.000282178
0.0061199 0.000118455 0.000383871
0.00606935 7.93543e-05 0.000466035
0.00633218 0.000211558 -8.95873e-05
0.00590968 0.000118426 0.000358811
0.00634532 0.000231244 -8.98262e-05
0.00598225 0.000140366 0.000351376
0.00571126 0.000109422 0.000336063
0.00639018 0.000236095 -8.2582e-05
0.00608072 0.000311176 -0.000106687
0.00631063 0.000236068 -8.71268e-05
0.00585424 0.000292801 -0.000180966
0.0056276 -0.000458207 -0.0011214
0.00587627 0.000112864 0.00035726
0.00619103 0.000264622 -8.6179e-05
0.00618611 0.000298489 -0.000466377
0.00636041 0.000647607 -0.000596277
0.00634141 -2.24819e-05 -0.000294186
0.00598243 4.89177e-05 -0.000632042
0.00641584 0.000104391 -0.000421272
0.00647309 0.000875593 -0.000826689
0.0054198 0.000130958 0.000317064
0.00622845 0.000125832 -0.000430898
0.00575879 7.8777e-05 0.000368286
0.00625996 0.000273 -8.35601e-05
0.00679427 0.00121052 -0.00102358
0.00542838 0.000179776 0.000280535
0.005651 9.3148e-05 0.000353031
0.00553031 9.75887e-05 0.000341816
0.00652299 0.000266303 -0.000506375
0.00589064 0.000118004 0.000356729
0.00556581 -0.000480915 -0.00104686
0.00571105 -0.000263703 -0.000817273
0.0061005 0.000124555 -0.000448801
0.00642943 0.000299528 -8.72194e-05
0.00599408 0.000324247 -0.000120949
0.00621095 0.00021767 -0.000160171
0.00560522 0.000146369 0.000322933
0.00624775 0.000258262 -8.76488e-05
0.00597367 0.000129652 0.000357149
0.00630446 0.000281681 -8.75926e-05
0.00599961 0.000118878 0.00035543
0.0063974 0.000248734 -6.69049e-05
0.00571629 7.83771e-05 0.000365298
0.00593079 0.000329676 -0.000123722
0.00685164 0.00123699 -0.0010165
0.00621796 0.000210766 -0.000158523
0.00617902 0.000215166 -0.00015983
0.00579634 -0.000305758 -0.000272743
0.00566075 0.000102493 0.000349048
0.0058799 0.000157116 -0.000223074
0.00612121 0.000101149 0.000383798
0.00601427 0.000320654 -0.00024781
0.00542793 0.00016565 0.000297914
0.00575274 8.29518e-05 0.000370596
0.00579327 0.000129977 0.000346441
0.00585898 9.2473e-05 -0.000639716
0.00595639 6.85467e-05 -0.000641243
0.0055782 0.000158688 -0.000642901
0.00538251 0.00014628 0.0003055
0.00621069 9.46892e-05 0.000133162
0.0058806 8.61833e-05 -0.000637905
0.00610929 0.000130688 -0.000408575
0.00543129 0.000186936 0.000288489
0.00610796 0.000107732 0.000371427
0.00605046 3.62059e-05 -0.000633655
0.00538438 0.00017353 0.000292408
0.00621588 0.000280246 -8.98812e-05
0.00614675 0.000226005 -0.000161687
0.0058031 0.0003056 -0.000184609
0.00607036 2.84843e-05 -0.000631091
0.00577944 2.44596e-05 0.000351132
0.00588012 0.000114209 0.000282656
0.00561306 8.6965e-05 0.000351783
0.00677 0.000603188 -0.000331025
0.00616613 0.000223642 -0.000161287
0.0060717 0.000110233 0.000380933
0.0058242 0.000132761 0.000350955
0.0060323 0.000106807 0.00033701
0.00602694 4.94274e-05 -0.000637737
0.00584434 0.000139871 0.000343699
0.00590653 0.000282536 -0.000177961
0.00610518 0.00010787 0.000374236
0.00539524 0.000160258 0.000298749
0.00594519 0.000124691 0.000355724
0.00593736 0.000250109 0.000286395
0.00635751 0.000267464 -8.62457e-05
0.00622359 0.000141686 0.000417388
0.00618967 0.000221011 -0.000161432
0.00538673 0.000145474 0.00032746
0.00618136 0.000217617 -0.000160015
0.00545519 0.000184236 0.000282483
0.0054532 0.000211438 0.00027733
0.00542055 0.000190305 0.000285517
0.00592534 0.000122294 0.000349357
0.00590752 0.000283349 -0.000178352
0.0056958 0.000323722 -0.000189292
0.00611324 0.000101065 0.000379349
0.00589901 8.3953e-05 -0.000640049
0.00569269 9.59104e-05 0.000354301
0.00576673 0.000109085 0.000377753
0.00746334 0.00210031 -0.00151431
0.00542813 0.000159149 0.000311581
0.0064737 0.00019215 -0.000448274
0.00562464 0.000143377 0.000324919
0.00581181 0.000104465 0.000361975
0.00580252 0.00014196 -0.000270785
0.00670949 -0.000137005 -0.000380377
0.00578549 0.000132857 0.00035403
0.00571639 8.62221e-05 0.000364409
0.00552317 0.000360095 -0.000198741
0.00543464 0.000175163 0.000291638
0.00637761 0.000289403 -8.80431e-05
0.00597008 5.15966e-05 -0.000633863
0.00610119 2.94661e-05 -0.000635512
0.00619226 0.000307548 -0.000121952

VECTORS force float
9.77008e-13 9.76121e-12 -2.99003e-12
2.8662e-11 -1.29448e-10 5.40138e-11
1.43933e-10 -2.66289e-11 3.50044e-11
5.64762e-12 -6.07659e-11 6.56827e-11
1.23421e-11 -2.79719e-11 3.8368e-12
3.26064e-12 -4.57678e-11 3.71954e-11
2.66011e-11 -1.15047e-10 -1.23302e-10
3.83807e-11 1.72422e-10 -4.59322e-11
-2.13871e-11 -4.8506e-12 -3.17618e-10
5.61755e-11 -3.28823e-11 -2.99416e-11
1.05559e-11 -2.6294e-11 1.80523e-11
-1.44664e-10 1.14719e-10 -7.405e-11
9.53148e-11 -3.63533e-11 -6.35372e-10
-2.63156e-10 -7.64988e-10 4.15318e-10
3.20793e-10 -3.97336e-12 5.17468e-11
-2.04593e-12 -5.21123e-11 -5.61864e-12
-1.47083e-10 1.28303e-11 -4.0512e-11
5.37854e-11 -1.1076e-11 -3.38984e-11
-5.70905e-10 5.19974e-10 -2.21653e-10
-7.54389e-10 -1.52357e-10 1.75304e-10
3.62815e-10 7.02856e-11 9.0268e-11
-2.43076e-11 -4.99653e-11 3.4263e-11
6.69444e-11 3.74184e-11 2.45198e-11
2.13367e-11 1.48036e-10 -1.77706e-10
-1.79934e-09 1.1569e-09 -8.82352e-10
3.67086e-11 -7.92733e-11 7.37628e-11
0.0 0.0 -1.43822e-09
2.2096e-10 -3.01898e-11 3.2958e-11
1.33743e-11 5.9621e-13 -2.73853e-11
4.09497e-11 3.36855e-11 -3.15652e-12
2.27318e-11 4.86924e-13 -1.52857e-12
-5.37862e-11 -4.27538e-11 -2.23198e-12
7.25546e-11 -3.09718e-11 1.24566e-10
5.01684e-10 -3.03007e-10 1.63842e-10
-5.40775e-11 -5.09851e-11 -8.6605e-12
-9.01072e-12 7.61714e-11 -7.00099e-11
-3.38105e-10 -2.29781e-11 -6.40256e-11
-1.67987e-11 -1.75587e-10 2.07655e-10
3.48479e-11 -9.69492e-12 1.30788e-11
4.65522e-11 -1.23603e-11 4.67372e-12
3.47218e-13 2.3239e-10 -2.20558e-10
1.10427e-11 3.64846e-11 -8.52724e-12
6.25003e-11 7.85716e-11 3.8945e-11
5.20145e-10 2.31708e-10 1.71408e-11
3.4224e-11 -5.18445e-11 3.908e-12
3.50583e-11 4.35946e-11 -2.36846e-11
-2.37998e-11 3.39743e-12 6.31093e-12
-3.80503e-10 1.11598e-10 -1.00522e-10
-2.97268e-24 2.97268e-24 0.0
-1.75788e-10 1.07167e-10 -9.11706e-11
2.39088e-10 -2.45054e-10 1.85068e-10
-1.02694e-10 1.49119e-11 8.30806e-12
-1.05953e-10 -4.7543e-11 3.46949e-13
4.5903e-10 -1.06709e-10 3.14206e-10
2.83188e-11 8.22088e-11 -3.55746e-11
-4.16599e-11 2.21966e-10 -2.01952e-13
4.49079e-12 5.63059e-12 3.18662e-11
-8.41535e-11 -5.47298e-11 -3.27907e-11
1.07521e-10 -2.79173e-11 -1.79198e-12
-4.40888e-10 1.87016e-10 -6.40169e-11
-5.58298e-10 -1.42831e-09 -6.13078e-10
9.9724e-11 4.45924e-11 -1.85438e-11
1.74607e-11 -3.02871e-12 6.15239e-11
-2.30432e-10 3.86175e-11 5.7073e-11
1.62729e-11 5.43281e-12 -2.8938e-12
7.19045e-11 -1.39948e-10 1.72452e-10
2.00162e-11 1.20303e-10 -1.76253e-10
-3.68456e-11 -2.63167e-10 -9.1493e-11
-3.30701e-11 -1.60061e-10 1.11192e-10
2.3466e-10 -1.38396e-10 2.43129e-09
1.03602e-10 9.54186e-11 -3.32033e-11
-8.15414e-11 -8.91438e-11 2.1902e-11
2.08297e-10 -8.25361e-10 -6.35045e-10
1.39957e-10 3.79844e-11 -2.32721e-11
2.37203e-10 2.75948e-10 6.86157e-10
5.84162e-11 1.84254e-10 -8.56442e-11
1.24175e-10 -3.23219e-11 -4.60593e-12
1.73077e-11 -1.83749e-11 3.97e-12
3.49037e-11 1.44576e-10 -9.04959e-11
-1.05677e-11 1.34811e-10 3.25265e-11
-7.31517e-11 -2.83452e-11 -1.7737e-11
4.54935e-13 -2.69074e-11 -5.68382e-12
3.41376e-11 -5.85032e-11 -6.5916e-11
1.12063e-10 6.32566e-11 -5.13466e-12
-3.0485e-12 -1.54702e-10 7.54238e-11
2.75018e-10 3.66836e-11 -1.05219e-11
8.48999e-11 1.06553e-10 -6.99937e-11
-8.10598e-11 3.76721e-11 2.78064e-12
5.46368e-12 2.13034e-11 -1.07454e-11
-2.53991e-21 8.28913e-22 2.7297e-23
0.0 0.0 0.0
-1.60945e-11 -2.70251e-10 -1.14379e-10
2.09039e-10 -1.28927e-10 7.72864e-11
5.84059e-12 7.26395e-11 -3.17735e-11
1.06437e-10 5.78218e-11 -1.13249e-10
2.136e-11 3.80375e-11 1.22891e-12
-3.61795e-13 1.72902e-11 4.18289e-12
-9.81741e-11 -1.13853e-10 4.82115e-11
-4.77138e-11 -1.52962e-10 -1.0595e-10
-9.29486e-11 1.20324e-10 -3.81605e-11
-4.50387e-13 -5.15794e-11 2.8383e-11
1.59894e-11 3.65352e-11 -2.33684e-11
6.89864e-11 3.72869e-13 -3.41089e-12
-6.31547e-11 6.60553e-11 -3.54135e-11
1.85774e-10 3.72234e-11 -1.73672e-11
-9.59898e-12 1.5409e-10 -8.77282e-11