# vtk DataFile Version 3.0
LIGGGHTS particles timestep 37600000
ASCII
DATASET POLYDATA
POINTS 275 float
0.232625 0.0187785 0.00684998
0.232279 0.0176343 0.00724613
0.232428 0.0175091 0.0072928
0.231827 0.0158186 0.0084186
0.238119 0.0169002 0.0074277
0.232578 0.0181549 0.00706841
0.232267 0.0172026 0.00739771
0.238319 0.0177809 0.00702068
0.231933 0.0161124 0.00791182
0.232468 0.018348 0.00708523
0.226465 0.0172611 0.00738277
0.231802 0.0157731 0.00850417
0.226419 0.0178131 0.00718498
0.226691 0.0181765 0.00692076
0.231917 0.0160467 0.00798554
0.231781 0.0157273 0.00859055
0.232621 0.0183394 0.00700429
0.232225 0.0170179 0.00746189
0.226647 0.0179978 0.00700526
0.238237 0.0174101 0.00713433
0.231973 0.0162871 0.0078231
0.238277 0.0175888 0.007057
0.226246 0.0171162 0.00744382
0.232353 0.0175718 0.00726941
0.231759 0.0156816 0.00867672
0.232053 0.0166367 0.00764581
0.232652 0.018092 0.00709184
0.231993 0.0163746 0.00777875
0.238138 0.0169852 0.0073788
0.2319 0.0160142 0.00807846
0.232535 0.0179703 0.00713253
0.238384 0.0180686 0.00696627
0.232406 0.0174164 0.007325
0.232492 0.0177858 0.00719664
0.238256 0.0174951 0.0070854
0.231865 0.0159118 0.00824586
0.232523 0.0175381 0.00728429
0.232588 0.0178151 0.00718803
0.238158 0.0170702 0.0073299
0.23188 0.0159561 0.00815753
0.232492 0.0185572 0.00692542
0.23834 0.0178768 0.00700254
0.232012 0.0164621 0.00773441
0.232674 0.0181843 0.00705979
0.226538 0.0175209 0.00725021
0.238197 0.0172401 0.0072321
0.23283 0.0184979 0.00695227
0.226443 0.0174912 0.00725913
0.23281 0.0184028 0.00698538
0.238177 0.0171552 0.007281
0.378022 0.019866 0.005332
0.232609 0.0179074 0.00715597
0.231845 0.0158645 0.00833157
0.232514 0.0178781 0.00716459
0.23251 0.0186501 0.00689307
0.238217 0.0173251 0.0071832
0.226373 0.0176417 0.00717435
0.226443 0.0180064 0.00709353
0.232642 0.0184329 0.00697181
0.232418 0.0178486 0.00717325
0.232716 0.0183703 0.00699512
0.238297 0.017685 0.00703882
0.226787 0.018207 0.00691702
0.23268 0.018622 0.00690598
0.231953 0.0161997 0.00786742
0.232032 0.0165495 0.00769009
0.226362 0.0172333 0.00739008
0.2323 0.0177265 0.00721407
0.225745 0.0155643 0.00867908
0.226751 0.0184854 0.00691634
0.232375 0.0176641 0.00723736
0.226521 0.018056 0.00705387
0.226493 0.0173467 0.00733936
0.238362 0.0179727 0.00698441
0.226898 0.0183498 0.00691191
0.232566 0.0177229 0.00722009
0.232332 0.0174796 0.00730146
0.232482 0.0181254 0.00707709
0.232508 0.0181113 0.00717281
0.232661 0.0185276 0.00693883
0.226437 0.0171756 0.00742603
0.232408 0.0181878 0.00705381
0.23211 0.0169002 0.0075143
0.232496 0.0184483 0.00705347
0.232388 0.0179865 0.00721376
0.232386 0.0180956 0.00708586
0.225849 0.0159359 0.0083613
0.23209 0.0168119 0.0075571
0.226404 0.0181483 0.00695153
0.2326 0.0182471 0.00703635
0.226426 0.0182437 0.00693097
0.0643568 0.0187248 0.00531097
0.24257 0.0191927 0.00520306
0.226714 0.0182752 0.00691922
0.225807 0.0157872 0.00848841
0.226415 0.0178157 0.00708511
0.225765 0.0156386 0.00861552
0.232736 0.0184653 0.00696207
0.232704 0.0179365 0.00714746
0.232257 0.0175421 0.00727818
0.232214 0.0173575 0.00734229
0.225891 0.0160845 0.00823419
0.226298 0.0176978 0.00713925
0.226361 0.0179645 0.00701932
0.232544 0.0176304 0.00725223
0.232567 0.0184952 0.00694856
0.232557 0.0180626 0.00710047
0.226469 0.0176758 0.00717212
0.232755 0.0185599 0.00692917
0.232246 0.0171103 0.00742977
0.232646 0.018876 0.00681607
0.232365 0.0180033 0.00711791
0.226809 0.0183044 0.0069155
0.23213 0.0169896 0.00747416
0.232461 0.0180331 0.00710914
0.225828 0.0158616 0.00842485
0.232071 0.0167245 0.00760141
0.232455 0.0182285 0.00713182
0.226455 0.0179899 0.00699565
0.226478 0.0180812 0.00696169
0.232449 0.0176013 0.00726075
0.232586 0.0185896 0.00691571
0.232547 0.0184021 0.00698092
0.232695 0.0182765 0.00702773
0.226418 0.0174045 0.00730337
0.232386 0.018088 0.00718557
0.232451 0.0183723 0.0069897
0.232322 0.0178188 0.00718202
0.226239 0.0167201 0.00767279
0.226622 0.0179095 0.00705028
0.225786 0.0157129 0.00855197
0.226578 0.0178172 0.00709601
0.225934 0.016233 0.00810712
0.226437 0.0179025 0.0070407
0.226259 0.0167981 0.00761338
0.232171 0.0171731 0.0074064
0.226765 0.0185845 0.00691513
0.226576 0.018491 0.00692275
0.226279 0.0168855 0.0075691
0.225912 0.0161587 0.00817065
0.225955 0.0163072 0.00804358
0.22622 0.0166451 0.00773611
0.0219312 0.0187687 0.00551176
0.22632 0.0170593 0.00747932
0.232471 0.0176936 0.00722869
0.226447 0.0183416 0.00692855
0.226439 0.0181255 0.00704261
0.226012 0.0165313 0.00785255
0.22666 0.0185441 0.00691927
0.232472 0.0184646 0.00695765
0.226536 0.0187736 0.0069222
0.226844 0.018523 0.00691267
0.226683 0.0186415 0.00691774
0.22662 0.0187189 0.00691952
0.232699 0.0187161 0.00687326
0.226277 0.0176108 0.00718387
0.232642 0.0186067 0.00699694
0.22605 0.0166807 0.00772517
0.226346 0.0175495 0.00722136
0.226049 0.0163271 0.00801688
0.226341 0.0178654 0.0071498
0.226467 0.0184394 0.0069271
0.232719 0.0188126 0.00683966
0.22634 0.0178718 0.00705001
0.232518 0.0185439 0.00702098
0.226527 0.0179028 0.00708384
0.226882 0.0182362 0.0069133
0.232605 0.0186838 0.00688294
0.232439 0.0179409 0.00714119
0.232566 0.0189363 0.00681167
0.220396 0.0181362 0.00710479
0.232193 0.0172653 0.00737434
0.226319 0.0177848 0.00709463
0.232775 0.0186543 0.0068963
0.226533 0.0181487 0.00701819
0.226639 0.0183434 0.00692148
0.226596 0.0181496 0.00694069
0.220069 0.0167151 0.00759102
0.226516 0.0174334 0.00729503
0.226359 0.017959 0.00711913
0.22587 0.0160102 0.00829774
0.226662 0.0184406 0.00691994
0.226341 0.0171463 0.0074347
0.232525 0.0183099 0.00701298
0.22667 0.0180845 0.00696095
0.226184 0.0168552 0.00757772
0.226225 0.0170292 0.00748848
0.226106 0.0165513 0.00782584
0.226536 0.0176092 0.0072033
0.226441 0.0175795 0.00721223
0.232289 0.0172948 0.00736566
0.23231 0.0173873 0.00733352
0.226735 0.0183728 0.00691772
0.232546 0.0188359 0.00682839
0.232396 0.0177564 0.0072053
0.220294 0.0176579 0.00719929
0.226087 0.0164765 0.00788953
0.232793 0.0187494 0.00686321
0.226383 0.0180594 0.00699241
0.23215 0.0170807 0.00743847
0.226501 0.0181774 0.00692772
0.232631 0.0179997 0.00712389
0.226267 0.0172033 0.00739921
0.232236 0.0174498 0.00731023
0.226535 0.0179916 0.00712917
0.220309 0.0177502 0.00716375
0.220245 0.0174654 0.00720348
0.226825 0.0184176 0.00691413
0.226171 0.0171725 0.00740864
0.226469 0.0182877 0.00700966
0.226516 0.0186757 0.00692364
0.232343 0.017911 0.00714997
0.226129 0.0169985 0.00749788
0.226234 0.0174335 0.00727478
0.226256 0.0175298 0.00725909
0.219975 0.0163832 0.00795294
0.220031 0.0165823 0.00773576
0.219956 0.0163168 0.00802542
0.226201 0.0165704 0.00779974
0.226574 0.0180562 0.00696906
0.219994 0.0164496 0.00788055
0.220165 0.0170881 0.0072817
0.22607 0.0167562 0.00766249
0.226334 0.0177644 0.00720453
0.220107 0.0168513 0.00744956
0.226145 0.016701 0.00769894
0.232504 0.0182176 0.00704503
0.220184 0.0171779 0.00724184
0.220374 0.0180397 0.00711953
0.220125 0.0169191 0.00737851
0.225724 0.01549 0.00874264
0.226764 0.0181157 0.00695119
0.2263 0.0169723 0.00752396
0.22642 0.0176654 0.00725909
0.220203 0.0172751 0.00722882
0.226571 0.0185921 0.00692221
0.226344 0.0174611 0.00726804
0.226291 0.0176855 0.00724877
0.220087 0.0167815 0.00751859
0.225974 0.0163819 0.00797992
0.220417 0.0182327 0.00709005
0.226524 0.0182778 0.00692618
0.226164 0.0167778 0.00763794
0.226489 0.017759 0.00712052
0.226551 0.0179696 0.00701335
0.232356 0.0178877 0.00724638
0.226487 0.0185374 0.00692567
0.220267 0.0175622 0.0071906
0.226204 0.0169423 0.00753317
0.220232 0.0173708 0.0072331
0.226031 0.0166061 0.00778884
0.226125 0.016626 0.00776218
0.226089 0.0168314 0.00759917
0.226394 0.0177287 0.00712973
0.220386 0.0176863 0.00716999
0.220331 0.0178467 0.00714901
0.226544 0.0183756 0.00692473
0.220012 0.0165159 0.0078082
0.226192 0.0172595 0.00736402
0.226288 0.0172903 0.00735459
0.225993 0.0164566 0.00791623
0.22615 0.0170855 0.00745326
0.226618 0.0182455 0.00692293
0.226068 0.0164018 0.00795321
0.226384 0.0173204 0.00734548
0.226511 0.0178464 0.00716478
0.226504 0.018607 0.00699541
0.226309 0.0173772 0.00730997
0.226213 0.0173465 0.0073194
0.220352 0.0179432 0.00713427
0.226109 0.0169115 0.00754251
0.232528 0.018743 0.00686073
0.22005 0.0166487 0.00766342
0.220145 0.0169983 0.0073207
0.232429 0.0182801 0.00702176

VERTICES 275 550
1 0
1 1
1 2
1 3
1 4
1 5
1 6
1 7
1 8
1 9
1 10
1 11
1 12
1 13
1 14
1 15
1 16
1 17
1 18
1 19
1 20
1 21
1 22
1 23
1 24
1 25
1 26
1 27
1 28
1 29
1 30
1 31
1 32
1 33
1 34
1 35
1 36
1 37
1 38
1 39
1 40
1 41
1 42
1 43
1 44
1 45
1 46
1 47
1 48
1 49
1 50
1 51
1 52
1 53
1 54
1 55
1 56
1 57
1 58
1 59
1 60
1 61
1 62
1 63
1 64
1 65
1 66
1 67
1 68
1 69
1 70
1 71
1 72
1 73
1 74
1 75
1 76
1 77
1 78
1 79
1 80
1 81
1 82
1 83
1 84
1 85
1 86
1 87
1 88
1 89
1 90
1 91
1 92
1 93
1 94
1 95
1 96
1 97
1 98
1 99
1 100
1 101
1 102
1 103
1 104
1 105
1 106
1 107
1 108
1 109
1 110
1 111
1 112
1 113
1 114
1 115
1 116
1 117
1 118
1 119
1 120
1 121
1 122
1 123
1 124
1 125
1 126
1 127
1 128
1 129
1 130
1 131
1 132
1 133
1 134
1 135
1 136
1 137
1 138
1 139
1 140
1 141
1 142
1 143
1 144
1 145
1 146
1 147
1 148
1 149
1 150
1 151
1 152
1 153
1 154
1 155
1 156
1 157
1 158
1 159
1 160
1 161
1 162
1 163
1 164
1 165
1 166
1 167
1 168
1 169
1 170
1 171
1 172
1 173
1 174
1 175
1 176
1 177
1 178
1 179
1 180
1 181
1 182
1 183
1 184
1 185
1 186
1 187
1 188
1 189
1 190
1 191
1 192
1 193
1 194
1 195
1 196
1 197
1 198
1 199
1 200
1 201
1 202
1 203
1 204
1 205
1 206
1 207
1 208
1 209
1 210
1 211
1 212
1 213
1 214
1 215
1 216
1 217
1 218
1 219
1 220
1 221
1 222
1 223
1 224
1 225
1 226
1 227
1 228
1 229
1 230
1 231
1 232
1 233
1 234
1 235
1 236
1 237
1 238
1 239
1 240
1 241
1 242
1 243
1 244
1 245
1 246
1 247
1 248
1 249
1 250
1 251
1 252
1 253
1 254
1 255
1 256
1 257
1 258
1 259
1 260
1 261
1 262
1 263
1 264
1 265
1 266
1 267
1 268
1 269
1 270
1 271
1 272
1 273
1 274

POINT_DATA 275
SCALARS id int 1
LOOKUP_TABLE default
1
2
4
5
6
7
8
9
10
11
12
13
14
16
17
19
21
22
23
24
25
26
27
28
29
30
31
32
33
34
35
36
37
38
39
41
42
44
45
47
48
49
50
51
52
53
54
55
56
57
59
60
61
62
63
64
65
66
67
68
69
70
71
72
73
74
76
77
78
79
80
82
83
84
85
86
87
88
89
90
91
92
93
94
95
96
97
98
99
100
101
102
103
104
105
106
107
108
109
110
111
112
113
114
115
116
117
118
119
120
121
122
123
124
125
127
128
129
130
131
132
133
134
135
136
137
138
140
141
142
143
144
146
147
148
149
150
151
153
154
155
156
157
158
159
160
162
164
165
166
167
168
169
170
171
172
173
174
176
177
178
179
182
183
184
185
186
187
188
189
190
191
192
193
194
195
196
197
198
199
200
201
202
203
204
205
206
207
208
209
210
211
212
213
214
215
216
217
218
219
220
222
224
225
226
227
228
229
230
232
233
234
235
236
237
239
240
241
242
243
244
246
247
248
249
250
251
252
253
254
255
256
257
258
259
260
261
262
263
264
265
266
267
268
269
270
271
272
273
274
275
276
277
278
279
280
281
283
284
285
286
287
288
289
290
291
292
293
294
295
296
297
298
299
300

SCALARS type int 1
LOOKUP_TABLE default
1
1
1
1
1
1
1
1
1
1
1
1
1
1
1
1
1
1
1
1
1
1
1
1
1
1
1
1
1
1
1
1
1
1
1
1
1
1
1
1
1
1
1
1
1
1
1
1
1
1
1
1
1
1
1
1
1
1
1
1
1
1
1
1
1
1
1
1
1
1
1
1
1
1
1
1
1
1
1
1
1
1
1
1
1
1
1
1
1
1
1
1
1
1
1
1
1
1
1
1
1
1
1
1
1
1
1
1
1
1
1
1
1
1
1
1
1
1
1
1
1
1
1
1
1
1
1
1
1
1
1
1
1
1
1
1
1
1
1
1
1
1
1
1
1
1
1
1
1
1
1
1
1
1
1
1
1
1
1
1
1
1
1
1
1
1
1
1
1
1
1
1
1
1
1
1
1
1
1
1
1
1
1
1
1
1
1
1
1
1
1
1
1
1
1
1
1
1
1
1
1
1
1
1
1
1
1
1
1
1
1
1
1
1
1
1
1
1
1
1
1
1
1
1
1
1
1
1
1
1
1
1
1
1
1
1
1
1
1
1
1
1
1
1
1
1
1
1
1
1
1
1
1
1
1
1
1
1
1
1
1
1
1
1
1
1
1
1
1
1
1
1
1
1
1

SCALARS radius float 1
LOOKUP_TABLE default
5e-05
5e-05
5e-05
5e-05
5e-05
5e-05
5e-05
5e-05
5e-05
5e-05
5e-05
5e-05
5e-05
5e-05
5e-05
5e-05
5e-05
5e-05
5e-05
5e-05
5e-05
5e-05
5e-05
5e-05
5e-05
5e-05
5e-05
5e-05
5e-05
5e-05
5e-05
5e-05
5e-05
5e-05
5e-05
5e-05
5e-05
5e-05
5e-05
5e-05
5e-05
5e-05
5e-05
5e-05
5e-05
5e-05
5e-05
5e-05
5e-05
5e-05
5e-05
5e-05
5e-05
5e-05
5e-05
5e-05
5e-05
5e-05
5e-05
5e-05
5e-05
5e-05
5e-05
5e-05
5e-05
5e-05
5e-05
5e-05
5e-05
5e-05
5e-05
5e-05
5e-05
5e-05
5e-05
5e-05
5e-05
5e-05
5e-05
5e-05
5e-05
5e-05
5e-05
5e-05
5e-05
5e-05
5e-05
5e-05
5e-05
5e-05
5e-05
5e-05
5e-05
5e-05
5e-05
5e-05
5e-05
5e-05
5e-05
5e-05
5e-05
5e-05
5e-05
5e-05
5e-05
5e-05
5e-05
5e-05
5e-05
5e-05
5e-05
5e-05
5e-05
5e-05
5e-05
5e-05
5e-05
5e-05
5e-05
5e-05
5e-05
5e-05
5e-05
5e-05
5e-05
5e-05
5e-05
5e-05
5e-05
5e-05
5e-05
5e-05
5e-05
5e-05
5e-05
5e-05
5e-05
5e-05
5e-05
5e-05
5e-05
5e-05
5e-05
5e-05
5e-05
5e-05
5e-05
5e-05
5e-05
5e-05
5e-05
5e-05
5e-05
5e-05
5e-05
5e-05
5e-05
5e-05
5e-05
5e-05
5e-05
5e-05
5e-05
5e-05
5e-05
5e-05
5e-05
5e-05
5e-05
5e-05
5e-05
5e-05
5e-05
5e-05
5e-05
5e-05
5e-05
5e-05
5e-05
5e-05
5e-05
5e-05
5e-05
5e-05
5e-05
5e-05
5e-05
5e-05
5e-05
5e-05
5e-05
5e-05
5e-05
5e-05
5e-05
5e-05
5e-05
5e-05
5e-05
5e-05
5e-05
5e-05
5e-05
5e-05
5e-05
5e-05
5e-05
5e-05
5e-05
5e-05
5e-05
5e-05
5e-05
5e-05
5e-05
5e-05
5e-05
5e-05
5e-05
5e-05
5e-05
5e-05
5e-05
5e-05
5e-05
5e-05
5e-05
5e-05
5e-05
5e-05
5e-05
5e-05
5e-05
5e-05
5e-05
5e-05
5e-05
5e-05
5e-05
5e-05
5e-05
5e-05
5e-05
5e-05
5e-05
5e-05
5e-05
5e-05
5e-05
5e-05
5e-05
5e-05
5e-05
5e-05
5e-05
5e-05
5e-05
5e-05
5e-05
5e-05
5e-05
5e-05
5e-05
5e-05
5e-05
5e-05
5e-05
5e-05
5e-05
5e-05
5e-05
5e-05
5e-05
5e-05
5e-05

SCALARS mass float 1
LOOKUP_TABLE default
1.46608e-10
1.46608e-10
1.46608e-10
1.46608e-10
1.46608e-10
1.46608e-10
1.46608e-10
1.46608e-10
1.46608e-10
1.46608e-10
1.46608e-10
1.46608e-10
1.46608e-10
1.46608e-10
1.46608e-10
1.46608e-10
1.46608e-10
1.46608e-10
1.46608e-10
1.46608e-10
1.46608e-10
1.46608e-10
1.46608e-10
1.46608e-10
1.46608e-10
1.46608e-10
1.46608e-10
1.46608e-10
1.46608e-10
1.46608e-10
1.46608e-10
1.46608e-10
1.46608e-10
1.46608e-10
1.46608e-10
1.46608e-10
1.46608e-10
1.46608e-10
1.46608e-10
1.46608e-10
1.46608e-10
1.46608e-10
1.46608e-10
1.46608e-10
1.46608e-10
1.46608e-10
1.46608e-10
1.46608e-10
1.46608e-10
1.46608e-10
1.46608e-10
1.46608e-10
1.46608e-10
1.46608e-10
1.46608e-10
1.46608e-10
1.46608e-10
1.46608e-10
1.46608e-10
1.46608e-10
1.46608e-10
1.46608e-10
1.46608e-10
1.46608e-10
1.46608e-10
1.46608e-10
1.46608e-10
1.46608e-10
1.46608e-10
1.46608e-10
1.46608e-10
1.46608e-10
1.46608e-10
1.46608e-10
1.46608e-10
1.46608e-10
1.46608e-10
1.46608e-10
1.46608e-10
1.46608e-10
1.46608e-10
1.46608e-10
1.46608e-10
1.46608e-10
1.46608e-10
1.46608e-10
1.46608e-10
1.46608e-10
1.46608e-10
1.46608e-10
1.46608e-10
1.46608e-10
1.46608e-10
1.46608e-10
1.46608e-10
1.46608e-10
1.46608e-10
1.46608e-10
1.46608e-10
1.46608e-10
1.46608e-10
1.46608e-10
1.46608e-10
1.46608e-10
1.46608e-10
1.46608e-10
1.46608e-10
1.46608e-10
1.46608e-10
1.46608e-10
1.46608e-10
1.46608e-10
1.46608e-10
1.46608e-10
1.46608e-10
1.46608e-10
1.46608e-10
1.46608e-10
1.46608e-10
1.46608e-10
1.46608e-10
1.46608e-10
1.46608e-10
1.46608e-10
1.46608e-10
1.46608e-10
1.46608e-10
1.46608e-10
1.46608e-10
1.46608e-10
1.46608e-10
1.46608e-10
1.46608e-10
1.46608e-10
1.46608e-10
1.46608e-10
1.46608e-10
1.46608e-10
1.46608e-10
1.46608e-10
1.46608e-10
1.46608e-10
1.46608e-10
1.46608e-10
1.46608e-10
1.46608e-10
1.46608e-10
1.46608e-10
1.46608e-10
1.46608e-10
1.46608e-10
1.46608e-10
1.46608e-10
1.46608e-10
1.46608e-10
1.46608e-10
1.46608e-10
1.46608e-10
1.46608e-10
1.46608e-10
1.46608e-10
1.46608e-10
1.46608e-10
1.46608e-10
1.46608e-10
1.46608e-10
1.46608e-10
1.46608e-10
1.46608e-10
1.46608e-10
1.46608e-10
1.46608e-10
1.46608e-10
1.46608e-10
1.46608e-10
1.46608e-10
1.46608e-10
1.46608e-10
1.46608e-10
1.46608e-10
1.46608e-10
1.46608e-10
1.46608e-10
1.46608e-10
1.46608e-10
1.46608e-10
1.46608e-10
1.46608e-10
1.46608e-10
1.46608e-10
1.46608e-10
1.46608e-10
1.46608e-10
1.46608e-10
1.46608e-10
1.46608e-10
1.46608e-10
1.46608e-10
1.46608e-10
1.46608e-10
1.46608e-10
1.46608e-10
1.46608e-10
1.46608e-10
1.46608e-10
1.46608e-10
1.46608e-10
1.46608e-10
1.46608e-10
1.46608e-10
1.46608e-10
1.46608e-10
1.46608e-10
1.46608e-10
1.46608e-10
1.46608e-10
1.46608e-10
1.46608e-10
1.46608e-10
1.46608e-10
1.46608e-10
1.46608e-10
1.46608e-10
1.46608e-10
1.46608e-10
1.46608e-10
1.46608e-10
1.46608e-10
1.46608e-10
1.46608e-10
1.46608e-10
1.46608e-10
1.46608e-10
1.46608e-10
1.46608e-10
1.46608e-10
1.46608e-10
1.46608e-10
1.46608e-10
1.46608e-10
1.46608e-10
1.46608e-10
1.46608e-10
1.46608e-10
1.46608e-10
1.46608e-10
1.46608e-10
1.46608e-10
1.46608e-10
1.46608e-10
1.46608e-10
1.46608e-10
1.46608e-10
1.46608e-10
1.46608e-10
1.46608e-10
1.46608e-10
1.46608e-10
1.46608e-10
1.46608e-10
1.46608e-10
1.46608e-10
1.46608e-10
1.46608e-10
1.46608e-10
1.46608e-10
1.46608e-10
1.46608e-10
1.46608e-10
1.46608e-10
1.46608e-10
1.46608e-10
1.46608e-10
1.46608e-10
1.46608e-10

VECTORS velocity float
0.00584533 -0.000129637 0.000150266
0.00598897 -0.000195735 0.00017541
0.00595067 -0.000243019 0.000191348
0.00592789 0.000238434 0.00040967
0.00564881 9.24336e-05 1.1062e-05
0.00609102 -0.000237534 0.000192792
0.00589335 -0.000189035 0.000167925
0.00625776 -0.000117377 -2.29183e-05
0.00565881 -0.000230086 -9.56368e-06
0.0061239 -0.000201041 0.000183609
0.00588043 -9.63818e-05 0.000472996
0.00593473 0.000244499 0.000399755
0.00613279 -5.49007e-05 0.000469632
0.0059194 -7.91986e-06 -0.000214913
0.00532519 0.000232051 0.000340253
0.00592659 0.000249683 0.000388148
0.00611283 -0.000257833 0.000198828
0.00561031 -0.000103718 0.00013481
0.00626719 -2.41549e-05 0.000460595
0.00567934 3.73767e-05 4.13793e-05
0.00552567 -0.000282132 -0.000208472
0.005986 -5.80371e-05 -1.83681e-05
0.00589884 -4.42096e-05 0.000447742
0.00597168 -0.000216575 0.000182044
0.00591036 0.000254137 0.000375766
0.00540359 -0.000262367 -0.00021071
0.00608665 -0.000241439 0.000193117
0.00539657 -0.000252313 -0.000215066
0.00565388 8.67872e-05 1.44532e-05
0.00568765 0.000362726 0.000458527
0.00605205 -0.000226756 0.000187738
0.00626454 -0.000138769 -1.50074e-05
0.00593092 -0.000248989 0.000192982
0.0060129 -0.000230717 0.000188485
0.00567436 3.14416e-05 4.68988e-05
0.00585521 0.000211741 0.000395513
0.00595585 -0.000263009 0.000198374
0.0060199 -0.000238147 0.000190863
0.00565694 7.89519e-05 1.89938e-05
0.0057869 0.000264581 0.000412188
0.00565466 -0.000110796 0.000146363
0.00626395 -0.000122293 -1.74858e-05
0.00527722 -0.000227619 -0.000219741
0.00613098 -0.000219682 0.000186297
0.00606916 -0.00014217 0.000509213
0.0056651 5.85371e-05 3.06139e-05
0.00615463 0.000253586 2.05883e-05
0.00604934 -9.49667e-05 0.000484376
0.00608015 0.000248647 2.17652e-05
0.00566206 6.92418e-05 2.46441e-05
-5.01982e-15 -7.41197e-15 7.69802e-14
0.00603906 -0.000238151 0.000191153
0.00589233 0.000230953 0.000408961
0.00603777 -0.000221136 0.000185226
0.00571548 -9.66888e-05 0.000136351
0.00567304 4.99541e-05 3.67552e-05
0.0061175 -6.10295e-05 0.000468005
0.00619806 -9.37511e-05 0.000482803
0.00629325 8.19212e-05 8.33941e-05
0.00602967 -0.000214712 0.000182608
0.00640123 0.000201319 4.30158e-05
0.00626146 -0.000114285 -2.40647e-05
0.00587654 0.000160403 -0.000602389
0.00594131 5.62476e-05 9.03123e-05
0.00566305 -0.000318018 -0.000202404
0.00526904 -0.000228646 -0.00021864
0.0059321 -7.43946e-05 0.000466853
0.00600227 -0.000200129 0.000176722
0.00602157 -0.000605032 -0.000158075
0.00564036 -0.000199661 -0.00020646
0.00599221 -0.00021437 0.000181843
0.00618782 -6.81439e-05 0.000459024
0.00592175 -0.000104026 0.000480202
0.00626499 -0.000133499 -1.52469e-05
0.00561087 -0.000262905 -0.000204096
0.00599122 -0.000252969 0.000195277
0.00595283 -0.000215612 0.000181725
0.00608422 -0.000219234 0.000185105
0.00606977 -0.000223634 0.000186444
0.00601948 0.000192127 3.76688e-05
0.00588588 -9.62466e-05 0.000474761
0.0061021 -0.000206297 0.000180524
0.00554849 -0.000235624 -9.29895e-05
0.00617161 -0.000192665 0.000185934
0.00604535 -0.00021275 0.000180363
0.00607784 -0.000203747 0.000180417
0.00586189 -0.000450605 -0.000266931
0.00550189 -0.000275021 -0.000189803
0.0062706 -0.000114638 -9.03511e-05
0.00610805 -0.000240809 0.000193511
0.00626869 -0.00015011 -0.000281455
4.01273e-15 1.05823e-14 8.29625e-14
9.7161e-23 -2.15809e-22 1.23839e-22
0.00574988 -4.77898e-06 -0.000203707
0.00583162 -0.00051537 -0.000210611
0.0061754 -5.53525e-05 0.000471949
0.00598867 -0.000593196 -0.000161993
0.00612763 0.000301441 1.04878e-06
0.00604295 -0.000249921 0.000195243
0.00596338 -0.000192557 0.000174105
0.00592277 -0.000187251 0.000170202
0.00557177 -0.000326147 -0.000337438
0.00613274 -4.46153e-05 0.000459173
0.00622335 -4.89334e-05 0.000448794
0.00597631 -0.000248076 0.000193527
0.00612685 -9.80397e-05 0.000142428
0.00606536 -0.000235388 0.000190539
0.00610472 -9.90946e-05 0.000484476
0.00603293 0.000143158 5.59997e-05
0.00556605 -0.000110523 0.000138443
0.00579608 -0.000311578 0.000207983
0.00605746 -0.000207587 0.00018004
0.00573022 5.81551e-05 -0.000212277
0.00563735 -0.000175779 7.66565e-05
0.00606273 -0.000218199 0.000184105
0.00579827 -0.000473265 -0.000241935
0.00550634 -0.000284627 -0.000202811
0.00609227 -0.000204228 0.000180386
0.00623095 -4.60448e-05 0.000473795
0.00626101 -6.72584e-05 0.000355098
0.00597292 -0.000241001 0.000191137
0.00570219 -0.000120315 0.000143115
0.00613495 -0.000239776 0.000193379
0.00613825 -0.000227109 0.000188872
0.00602409 -9.94595e-05 0.000484275
0.0060682 -0.000212917 0.000179965
0.00613966 -0.000207736 0.000182332
0.0060189 -0.00019744 0.000176782
0.00562962 -0.000196301 0.000191325
0.00616124 -0.000152133 0.000526077
0.00589509 -0.000562163 -0.000172847
0.00616543 -7.70448e-05 0.000488822
0.00458239 -7.3304e-05 -0.00043952
0.00620699 -5.48035e-05 0.000465757
0.00566032 -2.40255e-05 0.000420561
0.00588557 -0.00018603 0.000163444
0.00567199 -0.000190186 -0.00020699
0.00560833 -9.80417e-05 -0.000204673
0.0057569 -3.11295e-05 0.000440753
0.00511456 -0.000205158 -0.000387637
0.00454973 -5.80218e-05 -0.000447364
0.0056065 -0.000546038 -0.000230823
-3.83374e-14 8.16682e-14 2.95887e-13
0.00588654 -5.73714e-05 0.000448179
0.00599908 -0.000225644 0.000185775
0.00584519 -6.5577e-05 -0.000216343
0.00614574 0.000151553 8.70648e-05
0.00545289 -0.000299357 -0.000351803
0.00562512 -0.00021325 -0.000203984
0.0061631 -0.000210609 0.000184166
0.00572609 -3.64278e-05 -0.000210775
0.00573293 -0.000174516 -0.000209372
0.00562441 -0.000208708 -0.000205142
0.00565041 -0.000166548 -0.000206098
0.00584061 -0.0001318 0.000151012
0.00610807 -4.16782e-05 0.000456868
0.00584929 0.000115128 6.88644e-05
0.00546859 -0.000160053 -0.000502723
0.00608258 -6.05965e-05 0.00046586
0.00480157 -0.000256346 -0.000311586
0.0061894 -7.23546e-05 0.000452621
0.00570751 -5.14256e-05 -0.000209304
0.00581508 -0.000271443 0.000198167
0.00621256 -3.74607e-05 0.000460849
0.00603627 2.93659e-05 7.16468e-05
0.00618129 -6.18474e-05 0.000509863
0.00581203 0.000416502 -0.000217456
0.00588612 2.41211e-06 0.000105693
0.00604795 -0.000213768 0.00018217
0.00579022 -0.000394546 -0.00029493
0.00601766 -0.000408702 -0.000173367
0.00590466 -0.000186232 0.00016251
0.00616968 -3.58367e-05 0.000460858
0.00594612 -9.15525e-06 0.000109351
0.00620731 -0.00016264 6.70957e-05
0.00556858 -8.11288e-05 -0.000199067
0.00602463 -0.000176152 -6.58321e-05
0.00558266 0.000470104 0.000723417
0.0060209 -0.000120684 0.000496284
0.00622395 -0.000117944 0.000432375
0.00585896 -0.000416348 -0.000295201
0.00555936 -9.59007e-05 -0.000202885
0.00588945 -6.35091e-05 0.000454022
0.00612075 -0.000229194 0.000190733
0.00618016 0.000179232 0.000374296
0.00573793 -2.26645e-05 0.000417166
0.0058877 -3.27832e-05 0.000456821
0.00547012 -0.000383451 -0.000277328
0.0060809 -0.00012897 0.000504012
0.00608571 -9.41791e-05 0.000482785
0.00591166 -0.000203043 0.000176433
0.00593469 -0.00020663 0.000178146
0.00561454 2.87196e-07 -0.000206641
0.00584014 -0.000128117 0.000152689
0.00601098 -0.000213344 0.000182862
0.00609429 -0.000343459 3.36122e-05
0.0052524 -0.000316666 -0.000312128
0.00587361 -0.000207844 0.000177667
0.00622148 -0.000105999 0.000352349
0.00577339 -0.00016579 0.000164003
0.00536785 -0.00111684 -0.000188632
0.00605137 -0.000246287 0.000194511
0.00592714 -4.62425e-05 0.000448446
0.00594268 -0.000190497 0.000172769
0.00625356 -2.4007e-05 0.000482802
0.00604963 -0.000416288 -0.000176515
0.0059653 -0.00034072 0.000274661
0.00560909 -0.000202367 -0.000204075
0.00591698 -4.0131e-05 0.00044439
0.00589742 5.14535e-05 -0.00016794
0.0057011 -4.06758e-05 -0.000212203
0.00604739 -0.000199432 0.000177974
0.00587156 -1.8546e-05 0.000437541
0.00601371 -8.08414e-05 0.000472122
0.00601618 -0.000116061 0.000269457
0.00543607 0.000486832 0.000681662
0.00551375 0.000470031 0.000712388
0.00545713 0.000470134 0.000685722
0.00551676 -0.000503132 -0.00018215
0.0062487 -7.28715e-05 0.000491888
0.00543547 0.000465965 0.000691049
0.00560087 -0.000346564 7.76353e-05
0.00545014 -0.000691954 -0.00109756
0.00611214 -3.12521e-05 0.000448229
0.00559894 0.000189687 0.00044185
0.0056436 -0.000324492 -3.5832e-05
0.00610241 -0.000221662 0.000186394
0.0055978 -0.000262767 0.00024793
0.00602676 -0.000410609 -0.000173421
0.0056083 -0.000377722 -8.29556e-05
0.00605434 -0.000631176 -0.000138954
0.00620383 0.000404394 0.000218561
0.00586308 -5.06335e-05 0.000452079
0.00610054 -0.000102205 0.000477815
0.00559675 -0.00027108 0.000245239
0.00568504 -4.78487e-05 -0.000206382
0.00607507 -5.55244e-05 0.000465657
0.00607223 -2.14906e-05 0.00042332
0.00562593 0.000481125 0.000731791
0.00491217 -0.000134902 -0.000424203
0.00601027 -0.000407353 -0.00017335
0.00575384 -0.000177726 -0.00022047
0.00565001 -0.000143314 0.000217632
0.00613651 -9.51229e-05 0.000490222
0.0062179 -7.31228e-05 0.000494926
0.00603162 -0.000192862 0.000183861
0.00567022 -5.05285e-05 -0.000205036
0.00607052 -0.000358842 0.000284813
0.00586535 -2.19773e-05 0.000477862
0.00573199 -0.000318372 0.000233974
0.0055338 -0.000178386 -0.00044876
0.00560861 -0.000413888 -0.00019745
0.00544634 -0.0019627 -0.00261519
0.00614256 -6.08048e-05 0.000471568
0.00605632 -0.00041124 -0.000173066
0.00604317 -0.000413983 -0.00017271
0.00562264 -0.000147918 -0.000202982
0.00545245 0.000465454 0.00069818
0.0059524 -4.57898e-05 0.000451125
0.00597479 -4.30493e-05 0.000451408
0.00523229 -0.000218763 -0.000392784
0.00589228 -3.35549e-05 0.000441532
0.00579057 -0.000135507 -0.000207673
0.00498382 -0.000232651 -0.000351009
0.000191391 0.00145016 -0.000755035
0.00615127 -7.4205e-05 0.000490634
0.00568058 -3.38412e-05 -0.000206789
0.0060428 -4.82143e-05 0.000459663
0.00598307 -6.61347e-05 0.000461298
0.0060346 -0.00041289 -0.000172819
0.00594657 0.000510933 0.0001551
0.0057561 -0.000154265 0.000152445
0.00554489 0.000464051 0.000716991
0.0056225 -0.000491705 -0.00023248
0.00611521 -0.000211981 0.000182668

VECTORS force float
-8.22112e-12 5.82323e-11 -5.20486e-11
3.85072e-11 1.19746e-10 -2.83486e-11
8.30403e-11 9.03034e-11 -3.17082e-11
1.55444e-10 -1.75712e-11 5.27222e-11
5.95184e-12 3.25867e-11 -1.70887e-11
-3.57438e-11 -5.25507e-11 -1.24496e-12
-1.40591e-10 -2.50686e-11 8.50231e-12
3.10881e-11 1.01878e-11 1.97887e-11
3.20141e-11 7.22243e-11 -8.36675e-11
-7.47131e-11 9.19458e-11 -2.14867e-11
6.02882e-10 -2.00896e-10 1.67209e-10
1.58515e-11 -2.36852e-11 4.57593e-11
1.33798e-10 3.57786e-12 -3.84882e-11
5.44094e-10 3.09559e-10 -1.20452e-10
1.61135e-10 3.40196e-11 -9.76373e-11
-4.63513e-11 -4.85854e-11 8.71108e-11
5.05826e-11 -8.85182e-11 3.17359e-11
-1.42396e-11 -2.07195e-11 -4.53311e-11
-4.58684e-10 2.24586e-10 -1.87566e-10
3.31025e-11 -8.30064e-11 4.97974e-11
-1.04686e-10 1.1474e-10 -3.80029e-11
6.5588e-11 -9.27797e-12 1.46367e-10
9.87953e-11 -9.12185e-11 1.24919e-10
2.68518e-11 2.53688e-11 -1.21846e-11
-4.97236e-11 -9.35864e-11 1.53162e-10
-7.68667e-11 5.11731e-11 -1.92943e-11
6.18887e-11 1.78526e-11 -1.07826e-12
1.70867e-10 5.84979e-11 -3.07993e-11
9.622e-12 2.14195e-11 -1.61114e-11
2.91999e-10 -6.70634e-11 -9.86614e-11
3.98868e-11 -5.10142e-11 1.99992e-11
-6.98876e-12 -2.24381e-11 4.81059e-13
-6.17177e-12 4.46344e-11 -1.84708e-11
-2.83769e-11 1.08379e-11 7.44323e-12
9.68262e-11 -1.66259e-11 1.54988e-10
3.07976e-11 -1.09493e-11 -4.08849e-11
1.20893e-10 1.70493e-11 -3.18112e-12
-8.1044e-11 -6.8268e-11 2.59197e-11
-1.64023e-11 -9.00826e-12 9.53913e-12
1.4117e-11 -4.52732e-11 -1.03777e-10
-6.8574e-12 1.97435e-10 -9.44273e-11
-1.23366e-10 1.10344e-10 -7.95788e-11
-2.12836e-11 8.11916e-11 -4.46339e-11
3.86554e-11 -8.74667e-11 3.02452e-11
-2.32565e-10 2.43679e-11 -3.37888e-11
9.21521e-12 -5.87277e-11 4.0174e-11
2.03387e-10 4.96131e-11 -3.39815e-11
-1.64623e-10 -3.09426e-10 1.4086e-10
-4.53445e-12 2.48533e-11 1.05602e-11
-2.04846e-11 -4.93277e-11 2.22754e-11
-1.62851e-24 3.87741e-25 -2.06795e-25
1.17709e-10 -2.27552e-11 1.85849e-11
1.18328e-10 -4.04547e-12 2.20056e-11
-9.10464e-12 1.32302e-11 -2.15417e-11
-1.00791e-10 6.96681e-11 -9.57277e-12
3.90097e-11 -2.33107e-11 1.67335e-11
-5.11346e-11 -9.00422e-11 3.6565e-11
-1.01047e-10 -5.36621e-11 -2.81969e-10
6.94214e-11 1.5631e-10 -5.41091e-11
-2.02125e-11 -1.60287e-11 -5.52477e-12
-1.39069e-10 8.71447e-11 -3.59485e-11
-1.25255e-10 -1.60011e-11 2.75217e-10
-4.36953e-10 -6.46745e-11 -1.08995e-09
1.36352e-10 -2.20465e-10 1.61742e-10
-2.7248e-11 9.48456e-11 -2.32005e-11
-3.97592e-10 1.41565e-10 -4.51593e-11
-1.14571e-10 1.22603e-10 -4.87607e-11
1.59492e-10 4.51775e-11 -2.12641e-11
5.38961e-11 4.55464e-10 -3.57335e-10
-6.85853e-10 -4.84754e-11 3.00017e-11
4.92373e-11 3.59242e-11 -2.20462e-11
3.24705e-12 1.24234e-10 1.89369e-10
1.65911e-10 -1.73004e-10 9.60212e-11
7.07566e-11 7.42253e-11 7.27639e-12
-6.65101e-10 4.19451e-11 2.49931e-11
-9.52524e-11 -2.56713e-11 5.62197e-12
1.6046e-11 8.59033e-11 -2.34636e-11
-3.86411e-11 -3.97533e-11 1.80522e-11
8.88847e-11 1.05147e-10 -1.30911e-11
-1.3632e-10 -4.79375e-11 4.2955e-11
4.83377e-10 -2.16511e-10 1.43169e-10
-2.10681e-12 5.21103e-11 -1.78629e-11
3.70595e-11 -1.36678e-10 -2.07712e-10
5.88604e-11 7.77299e-11 3.75735e-12
-5.16919e-11 -6.45563e-11 -2.22721e-12
-1.13632e-10 -7.07825e-11 5.98755e-12
-2.28408e-10 1.97772e-10 -1.26516e-10
-7.41372e-12 -6.17707e-11 -9.54296e-11
-4.45216e-11 -7.26629e-11 -6.1105e-10
8.65575e-12 -8.3107e-11 5.13634e-11
-1.34173e-10 -1.24208e-10 2.73831e-10
2.50093e-22 -1.60783e-23 -7.03104e-24
0.0 2.58494e-26 0.0
6.36035e-10 2.41175e-10 5.17516e-11
-4.61107e-10 4.24967e-10 -2.75748e-10
-3.31658e-11 -8.24684e-11 2.59688e-11