# vtk DataFile Version 3.0
LIGGGHTS particles timestep 4800000
ASCII
DATASET POLYDATA
POINTS 287 float
0.0408586 0.0164433 0.00768786
0.0412247 0.0173033 0.00731877
0.0345832 0.0158066 0.00825293
0.0411719 0.0178911 0.00711489
0.0407438 0.0163698 0.00779432
0.0467025 0.0162385 0.00792043
0.0409199 0.0171147 0.0073709
0.0406374 0.0160688 0.00817902
0.0469674 0.0173693 0.00742493
0.0408595 0.0168358 0.00746412
0.0412831 0.0175823 0.00722545
0.0347926 0.0165755 0.00767631
0.0407227 0.0163116 0.00787283
0.034498 0.0155584 0.00855454
0.041055 0.017333 0.00730157
0.0344761 0.015499 0.008632
0.0408389 0.0167429 0.00749516
0.0468453 0.0167999 0.00756925
0.0407014 0.0162516 0.00794994
0.0408387 0.0163848 0.00776646
0.04096 0.017301 0.00730866
0.0349695 0.0169518 0.0074831
0.0469068 0.0170845 0.00749707
0.0409 0.0170218 0.00740196
0.0467837 0.016516 0.00764408
0.0348743 0.0169243 0.00749901
0.0411523 0.0177981 0.007146
0.0406801 0.0161906 0.00802631
0.0411885 0.0175507 0.00723238
0.04094 0.0172079 0.00733975
0.0410355 0.01724 0.00733269
0.0467241 0.0163078 0.00785161
0.0408182 0.0166497 0.00752628
0.0410157 0.0171471 0.00736377
0.0470114 0.0175585 0.00737663
0.0409759 0.0169612 0.0074259
0.0411302 0.0172715 0.00732578
0.0469274 0.0171794 0.007473
0.0407793 0.0164902 0.00762958
0.0409796 0.0173942 0.00727747
0.0411495 0.0173647 0.00729461
0.0467457 0.016377 0.00778279
0.0468248 0.016705 0.00759332
0.0407976 0.0165568 0.00755728
0.0410185 0.0175803 0.00721521
0.0468042 0.0166102 0.00761741
0.0410771 0.0178594 0.00712186
0.0410575 0.0177664 0.00715298
0.0347721 0.0164856 0.00771519
0.0468658 0.0168948 0.00754519
0.0408183 0.0163264 0.00784508
0.0345402 0.0156786 0.0084004
0.0409958 0.0170541 0.00739484
0.0467656 0.0164465 0.0077136
0.0410506 0.0168993 0.0074502
0.0410707 0.0169924 0.0074191
0.0407619 0.0164305 0.0077099
0.041169 0.0174577 0.00726349
0.0411133 0.0176121 0.00720822
0.0468863 0.0169896 0.00752113
0.034888 0.0166041 0.00766356
0.0348262 0.0163361 0.00778335
0.0412626 0.0174258 0.0072783
0.0412275 0.0177368 0.00717016
0.040915 0.0166826 0.00751897
0.0469476 0.0172743 0.00744896
0.0345188 0.0156178 0.00847689
0.041208 0.0176438 0.00720127
0.04088 0.0169288 0.00743304
0.0410744 0.0174261 0.00727045
0.0351048 0.0175643 0.00717073
0.0412876 0.018439 0.00693166
0.0346048 0.0158714 0.0081799
0.0348133 0.0166647 0.00763626
0.0411357 0.0181384 0.00702854
0.0347515 0.0163958 0.0077539
0.0348946 0.0170112 0.00745392
0.0348808 0.0161872 0.00785148
0.0469905 0.0174636 0.00740074
0.0347037 0.0158919 0.00815207
0.0411328 0.0177051 0.00717711
0.0410304 0.0168062 0.00748132
0.0411921 0.0184065 0.00693888
0.0411554 0.0182356 0.00701446
0.0412053 0.0172101 0.00734996
0.0348336 0.0167529 0.00759372
0.0412666 0.0179228 0.00710795
0.0412477 0.0182649 0.00698978
0.0413241 0.0182048 0.00701354
0.0411162 0.0180454 0.00705965
0.0412861 0.0180158 0.00707684
0.0347111 0.0162231 0.007845
0.0412116 0.0184995 0.00690778
0.0348673 0.0165159 0.00770595
0.0411654 0.0170236 0.00741229
0.0348056 0.0162463 0.00782205
0.0643568 0.0187248 0.00531097
0.24257 0.0191927 0.00520306
0.0351237 0.0172427 0.00733184
0.0346695 0.0160666 0.00796145
0.0352011 0.0171859 0.0073597
0.0346263 0.0159363 0.00810688
0.0409558 0.0168683 0.00745695
0.041038 0.0176734 0.00718409
0.0413613 0.0179544 0.007101
0.0412507 0.0186855 0.00684556
0.0347309 0.0163058 0.00779239
0.0353596 0.0170763 0.00741324
0.0350656 0.0169808 0.00746674
0.0410938 0.0175191 0.00723933
0.0409354 0.0167761 0.00748992
0.0407972 0.0162682 0.0079236
0.0345617 0.0157421 0.00832625
0.0410906 0.0170854 0.00738802
0.0406587 0.0161297 0.00810266
0.0406161 0.0160078 0.00825537
0.0413812 0.0180476 0.00706984
0.0347468 0.0160215 0.00800599
0.041211 0.0180771 0.00705268
0.0407759 0.01621 0.0080021
0.0409991 0.0174873 0.00724634
0.0346909 0.0161405 0.00789756
0.0410966 0.0179524 0.00709075
0.041176 0.0183329 0.00700465
0.0349896 0.0170391 0.00743812
0.0348468 0.016426 0.00774466
0.0411914 0.0179841 0.00708379
0.0409576 0.0164673 0.00765324
0.0411104 0.0171784 0.00735693
0.0407546 0.0161507 0.00807975
0.0346822 0.0158271 0.00822511
0.0412721 0.0187825 0.00683384
0.0408946 0.016595 0.00756261
0.0414011 0.0181455 0.00703707
0.0347257 0.0159566 0.00807908
0.035085 0.0170681 0.0074218
0.0346483 0.016001 0.00803387
0.0350451 0.016893 0.00751199
0.0349014 0.0162771 0.0078128
0.0346606 0.0157623 0.00829815
0.0349531 0.0172727 0.00731919
0.0413072 0.018532 0.00690056
0.0349424 0.0164569 0.00773539
0.0352606 0.0170431 0.00743177
0.034784 0.0161565 0.00786061
0.0350477 0.0173011 0.00730319
0.0351239 0.0176507 0.00712421
0.0350284 0.0172137 0.00734822
0.0219312 0.0187687 0.00551176
0.0351427 0.01733 0.00728688
0.041247 0.0178298 0.00713906
0.0350293 0.0176218 0.00713941
0.0350667 0.0173885 0.00725819
0.0352769 0.0179421 0.00697167
0.0353179 0.017305 0.00729693
0.0409211 0.0163486 0.00781
0.034922 0.016367 0.0077741
0.03522 0.0172732 0.00731475
0.0353786 0.0171637 0.00736823
0.035258 0.0174477 0.00722485
0.040941 0.0164071 0.00773138
0.0352987 0.0172177 0.00734187
0.0412401 0.0169618 0.00743659
0.0351807 0.0175046 0.00719698
0.0289512 0.0172546 0.0072701
0.035009 0.0171265 0.00739314
0.0350678 0.0177963 0.00704955
0.0353401 0.0169887 0.00745837
0.0353566 0.0174803 0.0072066
0.0349912 0.0174473 0.0072293
0.0408766 0.0165188 0.00762484
0.0352392 0.0173604 0.00726981
0.0411927 0.017873 0.00721101
0.0349337 0.0171855 0.00736411
0.0349722 0.01736 0.00727425
0.0411454 0.0169305 0.0074434
0.0413804 0.0182837 0.00698882
0.0411189 0.0170763 0.00748348
0.0290265 0.0171908 0.00728587
0.0412928 0.01888 0.00684218
0.0351617 0.0170105 0.00745004
0.04101 0.0167133 0.00751234
0.0349834 0.0166315 0.00764677
0.0353374 0.0173931 0.00725154
0.0344548 0.0154396 0.00870956
0.0290097 0.0175414 0.0072043
0.0348542 0.0168384 0.00754609
0.0350859 0.0174762 0.00721418
0.0349491 0.0168646 0.00752804
0.0354485 0.0179201 0.00698018
0.0351819 0.0170986 0.00740465
0.0413146 0.0173457 0.00730793
0.034929 0.0167783 0.00757434
0.0352396 0.0177661 0.00706228
0.0351998 0.0175919 0.00715204
0.0347674 0.0160865 0.00793277
0.0351618 0.0174173 0.00724193
0.0349632 0.0165444 0.00769162
0.0409673 0.0171974 0.00743536
0.0413065 0.0181095 0.00704552
0.0352772 0.017535 0.00717991
0.0411254 0.0168375 0.00747451
0.0412306 0.0181701 0.00702159
0.0289963 0.0170121 0.00732694
0.0350483 0.0177091 0.00709455
0.0409677 0.0165278 0.00757427
0.0351637 0.0178245 0.00703361
0.0412312 0.0185925 0.00687667
0.0350103 0.0175345 0.00718436
0.0289302 0.0167456 0.007459
0.0409894 0.0166204 0.00754339
0.0351044 0.0171553 0.00737688
0.0349144 0.0170983 0.00740904
0.0414168 0.0177999 0.0071563
0.0352797 0.0171304 0.00738682
0.0290463 0.016847 0.00737231
0.0289707 0.0173502 0.00724817
0.0349142 0.0169997 0.00755128
0.0353184 0.018134 0.00695138
0.0289317 0.017159 0.00729203
0.0348619 0.0161059 0.00790643
0.0350042 0.0167185 0.00760193
0.0413615 0.0183763 0.00695625
0.0353571 0.0183236 0.00700201
0.035336 0.0182291 0.00697674
0.0354135 0.0181652 0.00696118
0.0287573 0.0164186 0.00773284
0.028816 0.016645 0.00754493
0.0287377 0.0163432 0.00779546
0.0351199 0.0168335 0.00754126
0.0349082 0.0166906 0.0076177
0.0287768 0.0164941 0.0076702
0.0288916 0.0169682 0.00733581
0.0352595 0.0178541 0.00701694
0.03543 0.0178266 0.00702828
0.029085 0.0174775 0.00722008
0.0351433 0.0177375 0.00707845
0.0413417 0.0178614 0.00713212
0.029049 0.0177326 0.00716045
0.0289698 0.0169077 0.00735082
0.0288716 0.0168727 0.00735771
0.0346392 0.0156998 0.00837321
0.0352193 0.0176791 0.00710712
0.0351252 0.0180643 0.00692984
0.035183 0.0179147 0.00699504
0.0290687 0.0178281 0.00713853
0.0350245 0.0168057 0.007557
0.0352814 0.018387 0.00701748
0.0353941 0.0180705 0.00693588
0.0288536 0.0167962 0.00741958
0.0351433 0.0181593 0.00695522
0.0289902 0.0174458 0.00722623
0.0352382 0.0169526 0.00747842
0.0352241 0.018102 0.00694141
0.034867 0.0169224 0.00759872
0.0351079 0.0179705 0.00695987
0.0413222 0.0177683 0.00716324
0.0352966 0.0176222 0.00713499
0.0291439 0.0177641 0.00715432
0.0352002 0.0184438 0.00703114
0.0290883 0.0179237 0.0071166
0.0352013 0.0180062 0.00695878
0.0350882 0.0178837 0.00700538
0.0352217 0.0185382 0.00705637
0.0353345 0.0177947 0.00704614
0.0289116 0.0170644 0.00731741
0.0290646 0.0169412 0.00734426
0.0350993 0.016746 0.00758631
0.0289482 0.0168213 0.0073962
0.0287966 0.0165695 0.00760758
0.03526 0.0182921 0.00699212
0.0352418 0.0181971 0.00696677
0.035161 0.0182544 0.00698055
0.0353694 0.0179751 0.00695328
0.0351792 0.0183494 0.0070059
0.0350789 0.0166588 0.00763128
0.0351409 0.0169218 0.00749573
0.0353546 0.0178855 0.00699935
0.0348428 0.0160407 0.00797979
0.0353934 0.0177224 0.00708217
0.0352429 0.0186326 0.0070816
0.0291405 0.016878 0.00735988
0.0354328 0.0182601 0.00698649
0.0411049 0.0167441 0.00750569
0.0288351 0.0167205 0.00748225
0.0290294 0.017637 0.00718238
0.0410735 0.0173121 0.00739759

VERTICES 287 574
1 0
1 1
1 2
1 3
1 4
1 5
1 6
1 7
1 8
1 9
1 10
1 11
1 12
1 13
1 14
1 15
1 16
1 17
1 18
1 19
1 20
1 21
1 22
1 23
1 24
1 25
1 26
1 27
1 28
1 29
1 30
1 31
1 32
1 33
1 34
1 35
1 36
1 37
1 38
1 39
1 40
1 41
1 42
1 43
1 44
1 45
1 46
1 47
1 48
1 49
1 50
1 51
1 52
1 53
1 54
1 55
1 56
1 57
1 58
1 59
1 60
1 61
1 62
1 63
1 64
1 65
1 66
1 67
1 68
1 69
1 70
1 71
1 72
1 73
1 74
1 75
1 76
1 77
1 78
1 79
1 80
1 81
1 82
1 83
1 84
1 85
1 86
1 87
1 88
1 89
1 90
1 91
1 92
1 93
1 94
1 95
1 96
1 97
1 98
1 99
1 100
1 101
1 102
1 103
1 104
1 105
1 106
1 107
1 108
1 109
1 110
1 111
1 112
1 113
1 114
1 115
1 116
1 117
1 118
1 119
1 120
1 121
1 122
1 123
1 124
1 125
1 126
1 127
1 128
1 129
1 130
1 131
1 132
1 133
1 134
1 135
1 136
1 137
1 138
1 139
1 140
1 141
1 142
1 143
1 144
1 145
1 146
1 147
1 148
1 149
1 150
1 151
1 152
1 153
1 154
1 155
1 156
1 157
1 158
1 159
1 160
1 161
1 162
1 163
1 164
1 165
1 166
1 167
1 168
1 169
1 170
1 171
1 172
1 173
1 174
1 175
1 176
1 177
1 178
1 179
1 180
1 181
1 182
1 183
1 184
1 185
1 186
1 187
1 188
1 189
1 190
1 191
1 192
1 193
1 194
1 195
1 196
1 197
1 198
1 199
1 200
1 201
1 202
1 203
1 204
1 205
1 206
1 207
1 208
1 209
1 210
1 211
1 212
1 213
1 214
1 215
1 216
1 217
1 218
1 219
1 220
1 221
1 222
1 223
1 224
1 225
1 226
1 227
1 228
1 229
1 230
1 231
1 232
1 233
1 234
1 235
1 236
1 237
1 238
1 239
1 240
1 241
1 242
1 243
1 244
1 245
1 246
1 247
1 248
1 249
1 250
1 251
1 252
1 253
1 254
1 255
1 256
1 257
1 258
1 259
1 260
1 261
1 262
1 263
1 264
1 265
1 266
1 267
1 268
1 269
1 270
1 271
1 272
1 273
1 274
1 275
1 276
1 277
1 278
1 279
1 280
1 281
1 282
1 283
1 284
1 285
1 286

POINT_DATA 287
SCALARS id int 1
LOOKUP_TABLE default
1
2
3
4
5
6
7
8
9
10
11
12
13
14
15
16
17
18
19
21
22
23
24
25
26
27
28
29
30
31
32
33
34
35
36
37
38
39
41
42
44
45
46
47
48
49
50
51
52
53
54
55
56
57
59
60
61
62
63
64
65
66
67
68
69
70
71
72
73
74
76
77
78
79
80
81
82
83
84
85
86
87
88
89
90
91
92
93
94
95
96
97
98
99
100
101
102
103
104
105
106
107
108
109
110
111
112
113
114
115
116
117
118
119
120
121
122
123
124
125
126
127
128
129
130
131
132
133
134
135
136
137
138
140
141
142
143
144
146
147
148
149
150
151
153
154
155
156
157
158
159
160
162
164
165
166
167
168
169
170
171
172
173
174
175
176
177
178
179
181
182
183
184
185
186
187
188
189
190
191
192
193
194
195
196
197
198
199
200
201
202
203
204
205
206
207
208
209
210
211
212
213
214
215
216
217
218
219
220
221
222
223
224
225
226
227
228
229
230
231
232
233
234
235
236
237
239
240
241
242
243
244
246
247
248
249
250
251
252
253
254
255
256
257
258
259
260
261
262
263
264
265
266
267
268
269
270
271
272
273
274
275
276
277
278
279
280
281
282
283
284
285
286
287
288
289
290
291
292
293
294
295
296
297
298
299
300

SCALARS type int 1
LOOKUP_TABLE default
1
1
1
1
1
1
1
1
1
1
1
1
1
1
1
1
1
1
1
1
1
1
1
1
1
1
1
1
1
1
1
1
1
1
1
1
1
1
1
1
1
1
1
1
1
1
1
1
1
1
1
1
1
1
1
1
1
1
1
1
1
1
1
1
1
1
1
1
1
1
1
1
1
1
1
1
1
1
1
1
1
1
1
1
1
1
1
1
1
1
1
1
1
1
1
1
1
1
1
1
1
1
1
1
1
1
1
1
1
1
1
1
1
1
1
1
1
1
1
1
1
1
1
1
1
1
1
1
1
1
1
1
1
1
1
1
1
1
1
1
1
1
1
1
1
1
1
1
1
1
1
1
1
1
1
1
1
1
1
1
1
1
1
1
1
1
1
1
1
1
1
1
1
1
1
1
1
1
1
1
1
1
1
1
1
1
1
1
1
1
1
1
1
1
1
1
1
1
1
1
1
1
1
1
1
1
1
1
1
1
1
1
1
1
1
1
1
1
1
1
1
1
1
1
1
1
1
1
1
1
1
1
1
1
1
1
1
1
1
1
1
1
1
1
1
1
1
1
1
1
1
1
1
1
1
1
1
1
1
1
1
1
1
1
1
1
1
1
1
1
1
1
1
1
1
1
1
1
1
1
1
1
1
1
1
1
1

SCALARS radius float 1
LOOKUP_TABLE default
5e-05
5e-05
5e-05
5e-05
5e-05
5e-05
5e-05
5e-05
5e-05
5e-05
5e-05
5e-05
5e-05
5e-05
5e-05
5e-05
5e-05
5e-05
5e-05
5e-05
5e-05
5e-05
5e-05
5e-05
5e-05
5e-05
5e-05
5e-05
5e-05
5e-05
5e-05
5e-05
5e-05
5e-05
5e-05
5e-05
5e-05
5e-05
5e-05
5e-05
5e-05
5e-05
5e-05
5e-05
5e-05
5e-05
5e-05
5e-05
5e-05
5e-05
5e-05
5e-05
5e-05
5e-05
5e-05
5e-05
5e-05
5e-05
5e-05
5e-05
5e-05
5e-05
5e-05
5e-05
5e-05
5e-05
5e-05
5e-05
5e-05
5e-05
5e-05
5e-05
5e-05
5e-05
5e-05
5e-05
5e-05
5e-05
5e-05
5e-05
5e-05
5e-05
5e-05
5e-05
5e-05
5e-05
5e-05
5e-05
5e-05
5e-05
5e-05
5e-05
5e-05
5e-05
5e-05
5e-05
5e-05
5e-05
5e-05
5e-05
5e-05
5e-05
5e-05
5e-05
5e-05
5e-05
5e-05
5e-05
5e-05
5e-05
5e-05
5e-05
5e-05
5e-05
5e-05
5e-05
5e-05
5e-05
5e-05
5e-05
5e-05
5e-05
5e-05
5e-05
5e-05
5e-05
5e-05
5e-05
5e-05
5e-05
5e-05
5e-05
5e-05
5e-05
5e-05
5e-05
5e-05
5e-05
5e-05
5e-05
5e-05
5e-05
5e-05
5e-05
5e-05
5e-05
5e-05
5e-05
5e-05
5e-05
5e-05
5e-05
5e-05
5e-05
5e-05
5e-05
5e-05
5e-05
5e-05
5e-05
5e-05
5e-05
5e-05
5e-05
5e-05
5e-05
5e-05
5e-05
5e-05
5e-05
5e-05
5e-05
5e-05
5e-05
5e-05
5e-05
5e-05
5e-05
5e-05
5e-05
5e-05
5e-05
5e-05
5e-05
5e-05
5e-05
5e-05
5e-05
5e-05
5e-05
5e-05
5e-05
5e-05
5e-05
5e-05
5e-05
5e-05
5e-05
5e-05
5e-05
5e-05
5e-05
5e-05
5e-05
5e-05
5e-05
5e-05
5e-05
5e-05
5e-05
5e-05
5e-05
5e-05
5e-05
5e-05
5e-05
5e-05
5e-05
5e-05
5e-05
5e-05
5e-05
5e-05
5e-05
5e-05
5e-05
5e-05
5e-05
5e-05
5e-05
5e-05
5e-05
5e-05
5e-05
5e-05
5e-05
5e-05
5e-05
5e-05
5e-05
5e-05
5e-05
5e-05
5e-05
5e-05
5e-05
5e-05
5e-05
5e-05
5e-05
5e-05
5e-05
5e-05
5e-05
5e-05
5e-05
5e-05
5e-05
5e-05
5e-05
5e-05
5e-05
5e-05
5e-05
5e-05
5e-05
5e-05
5e-05
5e-05
5e-05
5e-05
5e-05
5e-05
5e-05
5e-05
5e-05
5e-05
5e-05
5e-05
5e-05
5e-05
5e-05
5e-05
5e-05
5e-05
5e-05
5e-05

SCALARS mass float 1
LOOKUP_TABLE default
1.46608e-10
1.46608e-10
1.46608e-10
1.46608e-10
1.46608e-10
1.46608e-10
1.46608e-10
1.46608e-10
1.46608e-10
1.46608e-10
1.46608e-10
1.46608e-10
1.46608e-10
1.46608e-10
1.46608e-10
1.46608e-10
1.46608e-10
1.46608e-10
1.46608e-10
1.46608e-10
1.46608e-10
1.46608e-10
1.46608e-10
1.46608e-10
1.46608e-10
1.46608e-10
1.46608e-10
1.46608e-10
1.46608e-10
1.46608e-10
1.46608e-10
1.46608e-10
1.46608e-10
1.46608e-10
1.46608e-10
1.46608e-10
1.46608e-10
1.46608e-10
1.46608e-10
1.46608e-10
1.46608e-10
1.46608e-10
1.46608e-10
1.46608e-10
1.46608e-10
1.46608e-10
1.46608e-10
1.46608e-10
1.46608e-10
1.46608e-10
1.46608e-10
1.46608e-10
1.46608e-10
1.46608e-10
1.46608e-10
1.46608e-10
1.46608e-10
1.46608e-10
1.46608e-10
1.46608e-10
1.46608e-10
1.46608e-10
1.46608e-10
1.46608e-10
1.46608e-10
1.46608e-10
1.46608e-10
1.46608e-10
1.46608e-10
1.46608e-10
1.46608e-10
1.46608e-10
1.46608e-10
1.46608e-10
1.46608e-10
1.46608e-10
1.46608e-10
1.46608e-10
1.46608e-10
1.46608e-10
1.46608e-10
1.46608e-10
1.46608e-10
1.46608e-10
1.46608e-10
1.46608e-10
1.46608e-10
1.46608e-10
1.46608e-10
1.46608e-10
1.46608e-10
1.46608e-10
1.46608e-10
1.46608e-10
1.46608e-10
1.46608e-10
1.46608e-10
1.46608e-10
1.46608e-10
1.46608e-10
1.46608e-10
1.46608e-10
1.46608e-10
1.46608e-10
1.46608e-10
1.46608e-10
1.46608e-10
1.46608e-10
1.46608e-10
1.46608e-10
1.46608e-10
1.46608e-10
1.46608e-10
1.46608e-10
1.46608e-10
1.46608e-10
1.46608e-10
1.46608e-10
1.46608e-10
1.46608e-10
1.46608e-10
1.46608e-10
1.46608e-10
1.46608e-10
1.46608e-10
1.46608e-10
1.46608e-10
1.46608e-10
1.46608e-10
1.46608e-10
1.46608e-10
1.46608e-10
1.46608e-10
1.46608e-10
1.46608e-10
1.46608e-10
1.46608e-10
1.46608e-10
1.46608e-10
1.46608e-10
1.46608e-10
1.46608e-10
1.46608e-10
1.46608e-10
1.46608e-10
1.46608e-10
1.46608e-10
1.46608e-10
1.46608e-10
1.46608e-10
1.46608e-10
1.46608e-10
1.46608e-10
1.46608e-10
1.46608e-10
1.46608e-10
1.46608e-10
1.46608e-10
1.46608e-10
1.46608e-10
1.46608e-10
1.46608e-10
1.46608e-10
1.46608e-10
1.46608e-10
1.46608e-10
1.46608e-10
1.46608e-10
1.46608e-10
1.46608e-10
1.46608e-10
1.46608e-10
1.46608e-10
1.46608e-10
1.46608e-10
1.46608e-10
1.46608e-10
1.46608e-10
1.46608e-10
1.46608e-10
1.46608e-10
1.46608e-10
1.46608e-10
1.46608e-10
1.46608e-10
1.46608e-10
1.46608e-10
1.46608e-10
1.46608e-10
1.46608e-10
1.46608e-10
1.46608e-10
1.46608e-10
1.46608e-10
1.46608e-10
1.46608e-10
1.46608e-10
1.46608e-10
1.46608e-10
1.46608e-10
1.46608e-10
1.46608e-10
1.46608e-10
1.46608e-10
1.46608e-10
1.46608e-10
1.46608e-10
1.46608e-10
1.46608e-10
1.46608e-10
1.46608e-10
1.46608e-10
1.46608e-10
1.46608e-10
1.46608e-10
1.46608e-10
1.46608e-10
1.46608e-10
1.46608e-10
1.46608e-10
1.46608e-10
1.46608e-10
1.46608e-10
1.46608e-10
1.46608e-10
1.46608e-10
1.46608e-10
1.46608e-10
1.46608e-10
1.46608e-10
1.46608e-10
1.46608e-10
1.46608e-10
1.46608e-10
1.46608e-10
1.46608e-10
1.46608e-10
1.46608e-10
1.46608e-10
1.46608e-10
1.46608e-10
1.46608e-10
1.46608e-10
1.46608e-10
1.46608e-10
1.46608e-10
1.46608e-10
1.46608e-10
1.46608e-10
1.46608e-10
1.46608e-10
1.46608e-10
1.46608e-10
1.46608e-10
1.46608e-10
1.46608e-10
1.46608e-10
1.46608e-10
1.46608e-10
1.46608e-10
1.46608e-10
1.46608e-10
1.46608e-10
1.46608e-10
1.46608e-10
1.46608e-10
1.46608e-10
1.46608e-10
1.46608e-10
1.46608e-10
1.46608e-10
1.46608e-10
1.46608e-10
1.46608e-10
1.46608e-10
1.46608e-10
1.46608e-10
1.46608e-10
1.46608e-10
1.46608e-10
1.46608e-10
1.46608e-10
1.46608e-10
1.46608e-10
1.46608e-10
1.46608e-10
1.46608e-10

VECTORS velocity float
0.00585228 -0.000353118 0.000140527
0.00550477 -9.50235e-05 0.000258948
0.00616018 -0.000347444 5.82169e-05
0.00552079 -0.000150303 0.00027946
0.00592517 -0.000361107 0.000198339
0.00643071 0.00109771 -0.000397769
0.00550147 -0.000310313 0.000333427
0.0059871 -0.000115809 0.000380427
0.00611058 0.00103124 -0.000891091
0.00576624 -0.000196508 0.000305825
0.00546174 -0.000160453 0.000280516
0.00567349 -8.50103e-05 0.000294998
0.00601366 -0.00017481 0.000363806
0.00609577 -2.24581e-05 0.000250878
0.00543757 -0.000177952 0.000285008
0.00607514 -1.04896e-05 0.000233967
0.00575005 -0.000237025 0.000320208
0.00596002 0.00104752 -0.000871232
0.00605732 -0.000128271 0.000410087
0.00592101 -0.000357935 0.000151466
0.0055525 -0.000187812 0.000293299
0.0055698 -6.14394e-05 -5.76063e-05
0.00597109 0.00104768 -0.000881755
0.00549034 -0.000311051 0.000333222
0.00601467 0.00123586 -0.000633756
0.00571493 -0.000244406 -2.9021e-07
0.00549947 -0.000142906 0.00027543
0.00603757 -0.000127824 0.000398749
0.00544035 -0.000154763 0.000277947
0.00555592 -9.86595e-05 0.000264588
0.00555532 -0.000193129 0.000294204
0.00647372 0.00111341 -0.000406997
0.00584383 0.000113292 0.000202218
0.00547613 -0.000169002 0.000284175
0.00494202 0.00132995 -0.00079881
0.00539271 -0.000130452 0.000267203
0.00551208 -9.98138e-05 0.000260944
0.00606406 0.00102796 -0.000886969
0.00575078 -0.000173288 -8.53126e-05
0.0054128 -0.000183883 0.0002881
0.0054329 -0.000170745 0.000280976
0.00650609 0.00115897 -0.000446226
0.00597129 0.00107034 -0.000881036
0.00584611 0.000112867 0.000202443
0.00544722 -8.37353e-05 0.000253758
0.00596046 0.001132 -0.000853704
0.00550515 -0.000130803 0.000272085
0.00548931 -0.000141738 0.000275349
0.00566546 -8.91276e-05 0.000297623
0.00594875 0.0010394 -0.000877901
0.00596345 -0.000374659 0.000161052
0.0061258 -0.000338599 3.88975e-05
0.00532367 -0.000129686 0.000264919
0.00631704 0.00122222 -0.000537642
0.00557557 3.18779e-05 0.000218976
0.00538463 -5.142e-05 0.000239867
0.00572055 -2.09679e-05 -0.000287937
0.00542998 -0.00015988 0.000278061
0.00547342 -0.000123213 0.000268393
0.00594322 0.00104045 -0.000878766
0.00571098 -0.000171201 0.000102869
0.00569567 -4.49839e-05 0.000278478
0.00544617 -0.000108579 0.000261769
0.00549115 -0.000161869 0.000281582
0.00573548 -0.000205398 0.000308186
0.00609961 0.00102798 -0.000890396
0.0061095 -3.70478e-05 0.000263287
0.00546944 -0.000155792 0.000279331
0.00547646 -0.000341757 0.000342903
0.00542032 -0.00015966 0.000278688
0.00548355 -0.000219973 2.74115e-05
0.00558248 -0.000163769 0.000286751
0.00617279 -0.000347251 7.08735e-05
0.00568669 -0.000118115 0.000229444
0.005543 -0.000147498 0.000280343
0.00565825 -8.35587e-05 0.000297438
0.00544614 -0.000180953 4.184e-06
0.00568156 -6.78478e-05 0.00028491
0.00658317 0.000913043 -0.000914132
0.00617984 -0.000334696 5.07933e-05
0.00548769 -0.000138637 0.000274049
0.00574485 -5.24298e-05 0.000254804
0.00558024 -0.000172018 0.000293451
0.00551292 -0.000202844 0.000289087
0.00557559 -2.34662e-05 0.000237786
0.00572 -0.00018532 0.000105578
0.00554387 -0.000188557 0.000294114
0.00549304 -0.000171158 0.000279111
0.00550167 -0.000155805 0.000278687
0.00553944 -0.000136489 0.000276662
0.00555098 -0.000172297 0.000288575
0.00568955 -0.000132877 0.000222485
0.00558532 -0.000166216 0.000286975
0.00568432 -7.32527e-05 0.000290171
0.00538838 -0.000246716 0.000306902
0.00568829 -5.03758e-05 0.000282069
4.16027e-15 1.05633e-14 8.29574e-14
5.30818e-23 5.77616e-22 -5.81428e-22
0.00541993 -0.000218327 2.5811e-05
0.00621303 -0.000375337 7.81971e-05
0.00540577 -0.000240397 3.69554e-05
0.00618191 -0.000354771 7.27393e-05
0.0056423 -0.000172307 0.00029176
0.00549189 -8.86457e-05 0.000257345
0.00553543 -0.000202392 0.000298101
0.00561217 -0.000158698 0.000286868
0.0056549 -7.89081e-05 0.000293649
0.00537563 -0.000276785 5.62929e-05
0.00544555 -5.73173e-05 -5.70862e-05
0.00542748 -0.000129277 0.000268897
0.00575284 -0.00020123 0.000307234
0.00600147 -0.000385834 0.000182496
0.00615455 -0.000361219 3.72994e-05
0.00538162 -0.000267877 0.000313149
0.00601258 -0.000123054 0.000388607
0.00595999 -0.000112323 0.000372403
0.00550995 -0.00016332 0.000283732
0.00625959 -0.000327741 4.08538e-05
0.00554539 -0.000160342 0.000284377
0.00604008 -0.000395537 0.000201241
0.0054136 -0.000174652 0.000283552
0.005814 -0.000257186 7.80485e-05
0.00552565 -0.000130841 0.00027436
0.00547904 -0.000181951 0.00028076
0.00536998 -0.000142875 -1.22805e-05
0.00572479 -4.15646e-05 0.0002763
0.00554566 -0.000157599 0.000283943
0.00584344 -0.000252644 0.00023961
0.00561236 -0.000174419 0.000291008
0.00608603 -9.45973e-05 0.000353913
0.00623351 -0.000301991 1.39605e-05
0.0058985 -0.000290917 -0.00028802
0.00572585 -0.00022542 0.000261099
0.0055218 -0.000120959 0.000269862
0.00623111 -0.000332866 4.52108e-05
0.00534044 -0.000219272 2.74551e-05
0.00618964 -0.000361587 7.96656e-05
0.00566422 3.25672e-05 -0.000106694
0.00567519 -6.87026e-05 0.000289021
0.00621891 -0.000298507 9.49066e-06
0.00541801 -0.000180722 6.74528e-06
0.00560457 -0.000151831 0.000283681
0.00567573 -7.32608e-05 0.000290059
0.00539855 -0.000221936 2.77492e-05
0.00575053 -4.42558e-05 0.000277467
0.00542952 -0.000202257 1.73369e-05
0.00551411 -0.000223948 2.90077e-05
0.00540325 -0.000198782 1.59238e-05
-3.82733e-14 8.16931e-14 2.95888e-13
0.00544133 -0.000231595 3.20913e-05
0.00551006 -0.000171636 0.000286081
0.00551521 -0.000205005 1.71684e-05
0.00545225 -0.000214418 2.33984e-05
0.00565882 -0.000258103 4.67282e-05
0.00544259 -0.000263579 4.85092e-05
0.00593522 -0.000364023 0.000162523
0.00565987 -6.73597e-05 0.000289427
0.00543336 -0.000247552 4.05592e-05
0.0054258 -0.000266055 5.00007e-05
0.0054439 -0.00025922 4.59512e-05
0.00590847 -0.00030947 0.000199016
0.005423 -0.000263082 4.84523e-05
0.0055914 -1.16749e-05 0.000234798
0.0054609 -0.000240082 3.65441e-05
0.00545312 -0.000345302 0.000148593
0.00536832 -0.000190152 1.22013e-05
0.00559493 -0.000213006 2.09336e-05
0.00544688 -0.00017089 1.02805e-06
0.00544744 -0.000286858 6.0235e-05
0.00546433 -0.000196084 1.35412e-05
0.00574564 -0.000300595 0.000178027
0.00544334 -0.000255506 4.44974e-05
0.0054887 -0.000189501 0.00028142
0.00538828 -0.000172918 2.877e-06
0.00544326 -0.000188842 1.03613e-05
0.0055443 0.00012924 0.000184355
0.00551057 -0.000174661 0.000287874
0.00531329 -0.000331452 0.000328253
0.00546198 -0.000338127 0.000147241
0.00619692 -0.000354866 -0.000310504
0.0053763 -0.00018346 8.48331e-06
0.00572662 -0.000223347 0.000312976
0.00573731 -0.00021791 2.45233e-05
0.005419 -0.000279237 5.67998e-05
0.00604478 -3.13885e-06 0.000222372
0.00547151 -0.000350653 0.000150337
0.00571854 -0.000226374 3.01328e-05
0.00545807 -0.000218197 2.40805e-05
0.0057102 -0.000237808 3.20795e-05
0.00565267 -0.000274471 5.1015e-05
0.0053781 -0.000238531 3.68851e-05
0.00549004 -8.28621e-05 0.000255114
0.00572558 -0.000216421 2.77133e-05
0.00556999 -0.000268596 4.88028e-05
0.00549069 -0.000247219 3.94178e-05
0.00585598 -0.000259084 4.55616e-07
0.00544517 -0.000233211 3.3106e-05
0.00575572 -0.000218861 3.35035e-05
0.00555247 -8.08218e-05 0.000267785
0.00552131 -0.000162783 0.000284205
0.00546693 -0.000268454 5.05487e-05
0.00572307 0.000189566 0.000171032
0.00552431 -0.000174001 0.000287213
0.00560381 -0.000372853 0.000156951
0.0055553 -0.000209335 1.85585e-05
0.00576204 -0.000183602 0.000298349
0.00560155 -0.000240212 3.625e-05
0.0055996 -0.000159147 0.000286489
0.0054806 -0.000199587 1.49889e-05
0.00557248 -0.000389526 0.000165173
0.00572342 -0.000191011 0.000303441
0.00538674 -0.000222227 2.82021e-05
0.00535659 -0.000165036 -1.32787e-06
0.00555854 -0.00022927 0.000307982
0.00539117 -0.000260145 4.75494e-05
0.00566396 -0.000363178 0.000136937
0.00544762 -0.000344811 0.000148665
0.00556147 -0.000134913 -1.47359e-05
0.00570079 -0.00020147 4.37448e-05
0.00560994 -0.00037742 0.000158519
0.00587401 -0.000273101 4.44768e-05
0.00572643 -0.000215774 2.05307e-05
0.00557466 -0.000167486 0.000287659
0.00598588 -0.000255023 3.06138e-05
0.00567459 -0.000191452 4.26427e-05
0.0057682 -0.000282849 1.85432e-05
0.0056257 -0.000396726 0.000169074
0.00576034 -0.000414069 0.000179842
0.00560487 -0.000392395 0.000166324
0.00574384 0.000111042 -0.000147929
0.00573301 -0.000221213 2.24196e-05
0.00568094 -0.000405429 0.000174692
0.00561943 -0.000384517 0.000159793
0.00562315 -0.000287988 5.91699e-05
0.00565341 -0.00027312 4.99925e-05
0.00546775 -0.000352656 0.000150757
0.00555578 -0.000231431 3.06139e-05
0.00554348 -0.000222963 0.000305543
0.00546595 -0.000353379 0.000150895
0.0056299 -0.000383395 0.000161433
0.00562082 -0.000384055 0.000159425
0.00622883 -1.66141e-05 0.000239936
0.00552722 -0.000256752 4.36597e-05
0.00567705 -0.000221501 3.39425e-05
0.00564794 -0.000247451 4.35788e-05
0.00546222 -0.00035611 0.000151501
0.0057141 -0.000236665 3.02711e-05
0.00594959 -0.000288341 2.14576e-05
0.00562235 -0.000257676 2.41455e-05
0.00559346 -0.000378418 0.000155335
0.00568089 -0.000231018 3.09657e-05
0.0054576 -0.000347607 0.000149517
0.00548374 -7.26772e-05 -4.98239e-05
0.00569928 -0.000226635 3.50122e-05
0.00571049 -0.00020132 -3.74472e-06
0.00566736 -0.000218868 3.3894e-05
0.00549643 -0.000192044 0.000292721
0.00550173 -0.000278866 5.52992e-05
0.00546324 -0.000356112 0.000151503
0.00592807 -0.000307575 1.60972e-05
0.00545977 -0.000357196 0.000151697
0.00567736 -0.000233874 3.92185e-05
0.00563363 -0.000215179 2.69607e-05
0.00590115 -0.000306571 1.58071e-05
0.00560949 -0.000312836 7.11112e-05
0.00560832 -0.000378493 0.000159012
0.00561899 -0.000348817 0.000152819
0.00573455 -0.00021784 2.05685e-05
0.0056113 -0.000388725 0.000163146
0.00573189 -0.000412546 0.000179259
0.00565221 -0.000219309 3.4747e-05
0.00568367 -0.000223962 3.40115e-05
0.00566665 -0.000237249 2.98422e-05
0.00565887 -0.000264668 4.61621e-05
0.00564142 -0.000240376 2.89891e-05
0.00570992 -0.000230058 2.6865e-05
0.00558369 8.72953e-05 -0.000133262
0.00565294 -0.000270931 4.95293e-05
0.00581991 -0.000294974 3.45014e-05
0.00562071 -0.00031176 7.04021e-05
0.00587827 -0.000304816 1.60489e-05
0.00565071 -0.000301281 0.000142619
0.00593883 -0.000313202 1.44395e-05
0.00576922 -1.9868e-05 0.000244744
0.00560022 -0.000384373 0.000159684
0.00546975 -0.000351343 0.000150446
0.00540361 -0.000166469 0.000298655

VECTORS force float
5.10399e-11 1.57881e-10 6.30809e-11
-1.8578e-11 -4.73583e-11 4.09691e-12
1.54137e-11 2.89158e-11 -1.12829e-10
4.06763e-11 1.32861e-10 -4.42744e-11
-1.17605e-10 1.11611e-10 -1.38558e-10
-1.0017e-10 -4.2847e-11 1.88928e-11
-8.91885e-12 -4.55719e-11 1.53131e-11
-1.36717e-10 -2.94487e-10 3.56303e-10
1.84957e-10 9.98835e-11 -2.34759e-11
-9.176e-12 -1.48486e-10 7.14466e-11
-1.36244e-10 1.90999e-10 -7.1584e-11
-1.92226e-12 -2.7159e-11 -1.48564e-11
-1.03973e-10 1.35284e-10 -3.6529e-11
2.84337e-12 -7.94772e-11 1.08702e-10
1.48088e-10 4.48866e-11 9.04658e-11
-9.2477e-11 -8.82961e-11 1.06013e-10
6.05841e-11 7.43642e-11 -4.31298e-11
8.12599e-11 2.15044e-10 1.5754e-10
-3.62952e-11 3.61139e-11 -1.45163e-11
-9.6554e-11 1.49854e-10 -3.3135e-11
7.79818e-11 3.61612e-10 -1.12931e-10
3.86599e-11 -6.74831e-11 3.20559e-11
5.53444e-11 -1.13673e-11 -1.20902e-10
-7.97586e-12 -4.17237e-11 1.40071e-11
3.82186e-10 5.32091e-11 3.77152e-10
5.5584e-14 -2.57349e-12 3.62677e-11
-2.07498e-11 1.28545e-10 -4.49735e-11
-6.23616e-11 -4.59848e-11 4.86126e-11
-2.51412e-10 1.0776e-12 -1.62789e-11
3.2432e-11 1.72315e-11 -6.45767e-12
-9.50978e-11 1.41104e-10 -3.9757e-11
6.39656e-11 -2.72312e-10 3.2803e-10
1.72889e-12 2.69567e-12 -8.47115e-13
-1.04223e-10 4.75138e-11 -2.55246e-11
2.18793e-08 -1.70237e-08 3.43397e-09
-6.30691e-11 -1.70975e-10 5.34004e-11
9.63706e-11 -2.57649e-10 1.01624e-10
7.48792e-11 2.64888e-11 1.11555e-11
1.76979e-12 1.63649e-12 -2.33065e-12
1.20217e-10 1.90883e-10 -6.73081e-11
2.8742e-10 -1.74564e-11 6.32312e-11
2.51352e-10 -5.526e-10 7.88015e-10
1.51653e-10 6.12236e-10 -1.13657e-10
1.5755e-12 2.79384e-12 -7.31411e-13
-9.69638e-11 -2.37088e-10 6.95977e-11
-2.48954e-10 9.68474e-10 8.53442e-10
-1.00877e-11 1.36709e-10 -4.44104e-11
-1.36671e-11 4.9532e-11 -2.19575e-11
3.69154e-11 -2.38405e-11 1.98509e-11
-2.65282e-10 -5.91066e-11 2.66344e-10
-1.41348e-10 1.05275e-10 -1.60583e-10
-8.24961e-12 3.77761e-10 3.4811e-10
-7.14985e-11 -1.07402e-10 4.40072e-11
-1.63914e-10 -6.7746e-10 9.82213e-10
7.00472e-11 1.71274e-10 -5.36584e-11
-9.39623e-11 -2.28462e-10 7.46168e-11
2.32799e-11 1.99138e-10 -2.80993e-10
-2.66488e-11 -3.929e-11 6.61421e-12
5.42497e-11 -8.57226e-11 4.03522e-11
-5.65342e-11 -7.63248e-11 -3.05557e-11