# vtk DataFile Version 3.0
LIGGGHTS particles timestep 56600000
ASCII
DATASET POLYDATA
POINTS 275 float
0.343207 0.0179747 0.00709319
0.342867 0.0167806 0.00764315
0.342978 0.0167578 0.00772196
0.342561 0.0157297 0.00865904
0.348926 0.0169792 0.00743254
0.343167 0.0172864 0.00742218
0.342877 0.016448 0.00784094
0.349138 0.0179042 0.0071177
0.342981 0.0164767 0.00782154
0.343279 0.0177273 0.00720634
0.337342 0.0176465 0.00728311
0.342541 0.0156783 0.00874249
0.337449 0.0184115 0.00702208
0.337537 0.018557 0.00691105
0.342767 0.0163775 0.00784079
0.343194 0.0181658 0.00707481
0.343208 0.017462 0.00733563
0.342993 0.0165689 0.00777454
0.337482 0.0182783 0.00698967
0.349056 0.0175337 0.00724376
0.342653 0.0159887 0.00824129
0.349098 0.0177186 0.00718081
0.336999 0.0169638 0.00757721
0.343 0.0168964 0.00769584
0.34252 0.0156274 0.00882578
0.342726 0.0162145 0.00792073
0.343263 0.0173204 0.00741903
0.342673 0.0160401 0.00815789
0.348947 0.0170716 0.00740108
0.342632 0.0159375 0.00832468
0.343124 0.017111 0.00750828
0.349198 0.0181826 0.00702288
0.342985 0.0166565 0.00772699
0.343067 0.0169509 0.00762337
0.349077 0.0176261 0.0072123
0.342596 0.0158336 0.00849186
0.343127 0.0168022 0.00767199
0.343199 0.0170573 0.00754816
0.348969 0.017164 0.00736961
0.342614 0.0158857 0.00840824
0.343083 0.0176516 0.00721601
0.349158 0.017997 0.00708613
0.342693 0.0160918 0.00807466
0.343282 0.0174085 0.00737544
0.337409 0.0179227 0.00715793
0.349012 0.0173489 0.00730669
0.343338 0.0180289 0.00708945
0.337203 0.0174398 0.0073726
0.343345 0.0182768 0.00704809
0.348991 0.0172564 0.00733815
0.378022 0.019866 0.005332
0.34322 0.017145 0.00750519
0.34258 0.0157815 0.00857549
0.343094 0.0170526 0.00758358
0.343257 0.0179141 0.00719477
0.349034 0.0174413 0.00727522
0.33713 0.0175023 0.00734692
0.337311 0.0183102 0.0069879
0.343233 0.0175491 0.00729351
0.343006 0.0169893 0.00755431
0.343329 0.0175834 0.00729017
0.349118 0.0178114 0.00714925
0.337429 0.0188832 0.00688907
0.343286 0.0178271 0.00715472
0.343071 0.0167258 0.00770374
0.342707 0.0161502 0.00799476
0.337138 0.0171705 0.00748774
0.342888 0.0168683 0.00760015
0.336579 0.01574 0.00847796
0.337505 0.0188189 0.00689962
0.342962 0.0168134 0.00764048
0.337405 0.0183384 0.00696737
0.337365 0.0177376 0.00724415
0.349178 0.0180897 0.00705452
0.33731 0.0187505 0.00687952
0.343156 0.0169746 0.00758536
0.342902 0.0167003 0.00769108
0.343071 0.0172521 0.00742551
0.343351 0.0176712 0.00724715
0.343254 0.0176368 0.00725039
0.33732 0.0175567 0.0073215
0.342997 0.0173056 0.00738568
0.343002 0.0170844 0.00760761
0.343294 0.0179276 0.0071028
0.343122 0.0177042 0.00729162
0.342975 0.017218 0.00742866
0.336652 0.0159001 0.00811885
0.342875 0.0162659 0.00791651
0.337162 0.0180137 0.00712939
0.343189 0.017374 0.00737915
0.33718 0.018104 0.00709054
0.0643568 0.0187248 0.00531097
0.24257 0.0191927 0.00520306
0.337579 0.0187525 0.00691003
0.336786 0.0160655 0.00796134
0.337173 0.0176818 0.00727015
0.336598 0.0157801 0.00838816
0.343366 0.0177792 0.0071923
0.343421 0.0182087 0.00704687
0.342898 0.0169427 0.00766622
0.342838 0.0166972 0.00776761
0.337115 0.017657 0.00737546
0.337056 0.0175645 0.00732139
0.337121 0.0178337 0.00720624
0.343163 0.0168869 0.00763281
0.343158 0.0176089 0.0072665
0.343146 0.0171986 0.0074653
0.337247 0.0176193 0.00729583
0.343373 0.0178752 0.00714272
0.342954 0.0163878 0.00786427
0.343176 0.0180251 0.00717644
0.342954 0.017135 0.00748024
0.337348 0.0189412 0.00687816
0.34286 0.0163533 0.007868
0.34305 0.0171645 0.00746848
0.336638 0.0158599 0.00820923
0.342782 0.0162912 0.00788882
0.343163 0.0178524 0.00722744
0.337216 0.0178618 0.00719316
0.337238 0.0179535 0.00715397
0.343053 0.0168221 0.00773644
0.343179 0.0176893 0.00721097
0.343132 0.0175156 0.00729557
0.343308 0.0174956 0.00733331
0.337182 0.01735 0.00741098
0.343409 0.01796 0.00710344
0.34304 0.0174943 0.00732916
0.34291 0.0169559 0.00755717
0.337008 0.016632 0.00771804
0.337447 0.0181003 0.00707382
0.336618 0.01582 0.00829872
0.33729 0.0177997 0.00721866
0.336672 0.0159729 0.00805332
0.337195 0.0177715 0.00723177
0.33703 0.0167217 0.00767966
0.342789 0.0164654 0.00779832
0.337291 0.0186525 0.00688023
0.337218 0.0182824 0.00700838
0.337051 0.0168115 0.00764128
0.336764 0.0159758 0.0079997
0.337186 0.0179326 0.00725704
0.336986 0.0165422 0.00775643
0.0219312 0.0187687 0.00551176
0.337095 0.016991 0.00756451
0.3431 0.0169072 0.00770722
0.337199 0.0181934 0.00705003
0.337402 0.0186756 0.00698814
0.336752 0.016308 0.00785874
0.337347 0.0184906 0.0069015
0.343063 0.0175876 0.00729018
0.337253 0.0184622 0.00692871
0.337386 0.0186862 0.00689007
0.337273 0.0185575 0.00690614
0.337367 0.018588 0.00689083
0.343288 0.0181961 0.00706199
0.337034 0.0174747 0.00735977
0.343214 0.0182631 0.00706317
0.336795 0.0164875 0.00778198
0.337108 0.0174125 0.0073853
0.336692 0.0160428 0.0079844
0.337254 0.0182773 0.00710143
0.337239 0.0183707 0.0070643
0.343173 0.0180687 0.00708648
0.337099 0.017744 0.00724463
0.343208 0.0178761 0.00711667
0.337313 0.0178926 0.0071784
0.33733 0.018846 0.00690224
0.3432 0.0177786 0.00717146
0.343029 0.0170767 0.00751163
0.343143 0.0179311 0.007169
0.331247 0.0184355 0.00686657
0.34281 0.0165528 0.00775484
0.337077 0.0176542 0.00728301
0.343362 0.018129 0.00706082
0.337484 0.0187206 0.00690014
0.337423 0.0184283 0.0069271
0.33737 0.0181601 0.0070517
0.330928 0.0171129 0.00770055
0.33739 0.0178324 0.00720077
0.337499 0.0183674 0.0069477
0.336746 0.0159155 0.00808796
0.337442 0.0185254 0.00691316
0.337116 0.0170807 0.00752613
0.343114 0.0174275 0.00733935
0.337516 0.0184591 0.00691169
0.336934 0.0166945 0.00769236
0.336978 0.016874 0.0076156
0.336848 0.0163353 0.00784596
0.337428 0.0180115 0.00711588
0.337225 0.0175295 0.00733421
0.342903 0.0165257 0.0077835
0.342887 0.0166146 0.0077404
0.337462 0.0186233 0.0069078
0.343121 0.0178238 0.00713089
0.342984 0.0169016 0.00759729
0.331161 0.0180187 0.00712265
0.336828 0.0162453 0.00788444
0.343268 0.0180989 0.0070747
0.337142 0.0179236 0.00716783
0.342919 0.0170305 0.00762315
0.337256 0.0180432 0.00711346
0.343241 0.0172327 0.00746207
0.337021 0.0170535 0.00753883
0.342889 0.0168527 0.00770882
0.337465 0.0181892 0.00703175
0.331179 0.0180995 0.00706634
0.331123 0.0178575 0.00723446
0.337408 0.0187853 0.00688962
0.336925 0.017026 0.00755168
0.337524 0.018917 0.00689893
0.337235 0.0183706 0.00696437
0.342932 0.0170435 0.0075142
0.336882 0.0168465 0.00762845
0.33699 0.0172952 0.00743654
0.337012 0.017385 0.00739815
0.330819 0.0166967 0.00795563
0.330884 0.0169464 0.00780258
0.330798 0.0166135 0.00800665
0.336965 0.0164525 0.00779481
0.337351 0.0180713 0.00709376
0.330841 0.01678 0.00790462
0.331036 0.017529 0.00744547
0.336817 0.0165772 0.0077436
0.337224 0.0181757 0.00714523
0.330971 0.0172793 0.00759852
0.336891 0.016515 0.00776913
0.343092 0.0173398 0.00738238
0.331058 0.0176128 0.00739538
0.331228 0.0183421 0.00689697
0.330993 0.0173626 0.0075475
0.337449 0.0189813 0.00688839
0.337368 0.0190393 0.00687747
0.337073 0.0169012 0.00760289
0.337358 0.0182561 0.00710459
0.33108 0.0176958 0.00734402
0.337329 0.0183989 0.00694526
0.337086 0.0173228 0.00742368
0.337167 0.0180265 0.00722843
0.33095 0.0171961 0.00764953
0.336711 0.016128 0.00793569
0.331266 0.0185323 0.00685013
0.337275 0.0181318 0.00707121
0.336913 0.0166048 0.00773075
0.337268 0.017709 0.00725744
0.337332 0.0179825 0.00713581
0.343116 0.0175144 0.00739425
0.337287 0.0184476 0.00702179
0.331143 0.017938 0.00717877
0.336956 0.0167843 0.00765398
0.331101 0.0177771 0.00728988
0.336773 0.0163977 0.00782036
0.336869 0.0164253 0.00780751
0.336839 0.016667 0.00770521
0.337151 0.017592 0.00730853
0.331323 0.0183738 0.00688723
0.331195 0.0181804 0.0070099
0.337293 0.0182207 0.00702913
0.330863 0.0168632 0.0078536
0.336947 0.0171157 0.0075133
0.337043 0.0171433 0.00750045
0.33673 0.0162182 0.00789713
0.336904 0.0169362 0.00759007
0.337388 0.0182493 0.0070095
0.336807 0.0161553 0.00792291
0.33716 0.0172602 0.00744936
0.337558 0.0186546 0.00691062
0.3373 0.018639 0.0069789
0.337064 0.017233 0.00746207
0.336969 0.0172055 0.00747492
0.331212 0.0182612 0.00695348
0.33686 0.0167567 0.00766683
0.343104 0.0177559 0.00720782
0.330906 0.0170297 0.00775157
0.331015 0.0174458 0.00749648
0.343019 0.0173943 0.00734219

VERTICES 275 550
1 0
1 1
1 2
1 3
1 4
1 5
1 6
1 7
1 8
1 9
1 10
1 11
1 12
1 13
1 14
1 15
1 16
1 17
1 18
1 19
1 20
1 21
1 22
1 23
1 24
1 25
1 26
1 27
1 28
1 29
1 30
1 31
1 32
1 33
1 34
1 35
1 36
1 37
1 38
1 39
1 40
1 41
1 42
1 43
1 44
1 45
1 46
1 47
1 48
1 49
1 50
1 51
1 52
1 53
1 54
1 55
1 56
1 57
1 58
1 59
1 60
1 61
1 62
1 63
1 64
1 65
1 66
1 67
1 68
1 69
1 70
1 71
1 72
1 73
1 74
1 75
1 76
1 77
1 78
1 79
1 80
1 81
1 82
1 83
1 84
1 85
1 86
1 87
1 88
1 89
1 90
1 91
1 92
1 93
1 94
1 95
1 96
1 97
1 98
1 99
1 100
1 101
1 102
1 103
1 104
1 105
1 106
1 107
1 108
1 109
1 110
1 111
1 112
1 113
1 114
1 115
1 116
1 117
1 118
1 119
1 120
1 121
1 122
1 123
1 124
1 125
1 126
1 127
1 128
1 129
1 130
1 131
1 132
1 133
1 134
1 135
1 136
1 137
1 138
1 139
1 140
1 141
1 142
1 143
1 144
1 145
1 146
1 147
1 148
1 149
1 150
1 151
1 152
1 153
1 154
1 155
1 156
1 157
1 158
1 159
1 160
1 161
1 162
1 163
1 164
1 165
1 166
1 167
1 168
1 169
1 170
1 171
1 172
1 173
1 174
1 175
1 176
1 177
1 178
1 179
1 180
1 181
1 182
1 183
1 184
1 185
1 186
1 187
1 188
1 189
1 190
1 191
1 192
1 193
1 194
1 195
1 196
1 197
1 198
1 199
1 200
1 201
1 202
1 203
1 204
1 205
1 206
1 207
1 208
1 209
1 210
1 211
1 212
1 213
1 214
1 215
1 216
1 217
1 218
1 219
1 220
1 221
1 222
1 223
1 224
1 225
1 226
1 227
1 228
1 229
1 230
1 231
1 232
1 233
1 234
1 235
1 236
1 237
1 238
1 239
1 240
1 241
1 242
1 243
1 244
1 245
1 246
1 247
1 248
1 249
1 250
1 251
1 252
1 253
1 254
1 255
1 256
1 257
1 258
1 259
1 260
1 261
1 262
1 263
1 264
1 265
1 266
1 267
1 268
1 269
1 270
1 271
1 272
1 273
1 274

POINT_DATA 275
SCALARS id int 1
LOOKUP_TABLE default
1
2
4
5
6
7
8
9
10
11
12
13
14
16
17
19
21
22
23
24
25
26
27
28
29
30
31
32
33
34
35
36
37
38
39
41
42
44
45
47
48
49
50
51
52
53
54
55
56
57
59
60
61
62
63
64
65
66
67
68
69
70
71
72
73
74
76
77
78
79
80
82
83
84
85
86
87
88
89
90
91
92
93
94
95
96
97
98
99
100
101
102
103
104
105
106
107
108
109
110
111
112
113
114
115
116
117
118
119
120
121
122
123
124
125
127
128
129
130
131
132
133
134
135
136
137
138
140
141
142
143
144
146
147
148
149
150
151
153
154
155
156
157
158
159
160
162
164
165
166
167
168
169
170
171
172
173
174
176
177
178
179
182
183
184
185
186
187
188
189
190
191
192
193
194
195
196
197
198
199
200
201
202
203
204
205
206
207
208
209
210
211
212
213
214
215
216
217
218
219
220
222
224
225
226
227
228
229
230
232
233
234
235
236
237
239
240
241
242
243
244
246
247
248
249
250
251
252
253
254
255
256
257
258
259
260
261
262
263
264
265
266
267
268
269
270
271
272
273
274
275
276
277
278
279
280
281
283
284
285
286
287
288
289
290
291
292
293
294
295
296
297
298
299
300

SCALARS type int 1
LOOKUP_TABLE default
1
1
1
1
1
1
1
1
1
1
1
1
1
1
1
1
1
1
1
1
1
1
1
1
1
1
1
1
1
1
1
1
1
1
1
1
1
1
1
1
1
1
1
1
1
1
1
1
1
1
1
1
1
1
1
1
1
1
1
1
1
1
1
1
1
1
1
1
1
1
1
1
1
1
1
1
1
1
1
1
1
1
1
1
1
1
1
1
1
1
1
1
1
1
1
1
1
1
1
1
1
1
1
1
1
1
1
1
1
1
1
1
1
1
1
1
1
1
1
1
1
1
1
1
1
1
1
1
1
1
1
1
1
1
1
1
1
1
1
1
1
1
1
1
1
1
1
1
1
1
1
1
1
1
1
1
1
1
1
1
1
1
1
1
1
1
1
1
1
1
1
1
1
1
1
1
1
1
1
1
1
1
1
1
1
1
1
1
1
1
1
1
1
1
1
1
1
1
1
1
1
1
1
1
1
1
1
1
1
1
1
1
1
1
1
1
1
1
1
1
1
1
1
1
1
1
1
1
1
1
1
1
1
1
1
1
1
1
1
1
1
1
1
1
1
1
1
1
1
1
1
1
1
1
1
1
1
1
1
1
1
1
1
1
1
1
1
1
1
1
1
1
1
1
1

SCALARS radius float 1
LOOKUP_TABLE default
5e-05
5e-05
5e-05
5e-05
5e-05
5e-05
5e-05
5e-05
5e-05
5e-05
5e-05
5e-05
5e-05
5e-05
5e-05
5e-05
5e-05
5e-05
5e-05
5e-05
5e-05
5e-05
5e-05
5e-05
5e-05
5e-05
5e-05
5e-05
5e-05
5e-05
5e-05
5e-05
5e-05
5e-05
5e-05
5e-05
5e-05
5e-05
5e-05
5e-05
5e-05
5e-05
5e-05
5e-05
5e-05
5e-05
5e-05
5e-05
5e-05
5e-05
5e-05
5e-05
5e-05
5e-05
5e-05
5e-05
5e-05
5e-05
5e-05
5e-05
5e-05
5e-05
5e-05
5e-05
5e-05
5e-05
5e-05
5e-05
5e-05
5e-05
5e-05
5e-05
5e-05
5e-05
5e-05
5e-05
5e-05
5e-05
5e-05
5e-05
5e-05
5e-05
5e-05
5e-05
5e-05
5e-05
5e-05
5e-05
5e-05
5e-05
5e-05
5e-05
5e-05
5e-05
5e-05
5e-05
5e-05
5e-05
5e-05
5e-05
5e-05
5e-05
5e-05
5e-05
5e-05
5e-05
5e-05
5e-05
5e-05
5e-05
5e-05
5e-05
5e-05
5e-05
5e-05
5e-05
5e-05
5e-05
5e-05
5e-05
5e-05
5e-05
5e-05
5e-05
5e-05
5e-05
5e-05
5e-05
5e-05
5e-05
5e-05
5e-05
5e-05
5e-05
5e-05
5e-05
5e-05
5e-05
5e-05
5e-05
5e-05
5e-05
5e-05
5e-05
5e-05
5e-05
5e-05
5e-05
5e-05
5e-05
5e-05
5e-05
5e-05
5e-05
5e-05
5e-05
5e-05
5e-05
5e-05
5e-05
5e-05
5e-05
5e-05
5e-05
5e-05
5e-05
5e-05
5e-05
5e-05
5e-05
5e-05
5e-05
5e-05
5e-05
5e-05
5e-05
5e-05
5e-05
5e-05
5e-05
5e-05
5e-05
5e-05
5e-05
5e-05
5e-05
5e-05
5e-05
5e-05
5e-05
5e-05
5e-05
5e-05
5e-05
5e-05
5e-05
5e-05
5e-05
5e-05
5e-05
5e-05
5e-05
5e-05
5e-05
5e-05
5e-05
5e-05
5e-05
5e-05
5e-05
5e-05
5e-05
5e-05
5e-05
5e-05
5e-05
5e-05
5e-05
5e-05
5e-05
5e-05
5e-05
5e-05
5e-05
5e-05
5e-05
5e-05
5e-05
5e-05
5e-05
5e-05
5e-05
5e-05
5e-05
5e-05
5e-05
5e-05
5e-05
5e-05
5e-05
5e-05
5e-05
5e-05
5e-05
5e-05
5e-05
5e-05
5e-05
5e-05
5e-05
5e-05
5e-05
5e-05
5e-05
5e-05
5e-05
5e-05
5e-05
5e-05
5e-05
5e-05
5e-05
5e-05
5e-05
5e-05
5e-05
5e-05
5e-05
5e-05
5e-05
5e-05
5e-05
5e-05
5e-05
5e-05

SCALARS mass float 1
LOOKUP_TABLE default
1.46608e-10
1.46608e-10
1.46608e-10
1.46608e-10
1.46608e-10
1.46608e-10
1.46608e-10
1.46608e-10
1.46608e-10
1.46608e-10
1.46608e-10
1.46608e-10
1.46608e-10
1.46608e-10
1.46608e-10
1.46608e-10
1.46608e-10
1.46608e-10
1.46608e-10
1.46608e-10
1.46608e-10
1.46608e-10
1.46608e-10
1.46608e-10
1.46608e-10
1.46608e-10
1.46608e-10
1.46608e-10
1.46608e-10
1.46608e-10
1.46608e-10
1.46608e-10
1.46608e-10
1.46608e-10
1.46608e-10
1.46608e-10
1.46608e-10
1.46608e-10
1.46608e-10
1.46608e-10
1.46608e-10
1.46608e-10
1.46608e-10
1.46608e-10
1.46608e-10
1.46608e-10
1.46608e-10
1.46608e-10
1.46608e-10
1.46608e-10
1.46608e-10
1.46608e-10
1.46608e-10
1.46608e-10
1.46608e-10
1.46608e-10
1.46608e-10
1.46608e-10
1.46608e-10
1.46608e-10
1.46608e-10
1.46608e-10
1.46608e-10
1.46608e-10
1.46608e-10
1.46608e-10
1.46608e-10
1.46608e-10
1.46608e-10
1.46608e-10
1.46608e-10
1.46608e-10
1.46608e-10
1.46608e-10
1.46608e-10
1.46608e-10
1.46608e-10
1.46608e-10
1.46608e-10
1.46608e-10
1.46608e-10
1.46608e-10
1.46608e-10
1.46608e-10
1.46608e-10
1.46608e-10
1.46608e-10
1.46608e-10
1.46608e-10
1.46608e-10
1.46608e-10
1.46608e-10
1.46608e-10
1.46608e-10
1.46608e-10
1.46608e-10
1.46608e-10
1.46608e-10
1.46608e-10
1.46608e-10
1.46608e-10
1.46608e-10
1.46608e-10
1.46608e-10
1.46608e-10
1.46608e-10
1.46608e-10
1.46608e-10
1.46608e-10
1.46608e-10
1.46608e-10
1.46608e-10
1.46608e-10
1.46608e-10
1.46608e-10
1.46608e-10
1.46608e-10
1.46608e-10
1.46608e-10
1.46608e-10
1.46608e-10
1.46608e-10
1.46608e-10
1.46608e-10
1.46608e-10
1.46608e-10
1.46608e-10
1.46608e-10
1.46608e-10
1.46608e-10
1.46608e-10
1.46608e-10
1.46608e-10
1.46608e-10
1.46608e-10
1.46608e-10
1.46608e-10
1.46608e-10
1.46608e-10
1.46608e-10
1.46608e-10
1.46608e-10
1.46608e-10
1.46608e-10
1.46608e-10
1.46608e-10
1.46608e-10
1.46608e-10
1.46608e-10
1.46608e-10
1.46608e-10
1.46608e-10
1.46608e-10
1.46608e-10
1.46608e-10
1.46608e-10
1.46608e-10
1.46608e-10
1.46608e-10
1.46608e-10
1.46608e-10
1.46608e-10
1.46608e-10
1.46608e-10
1.46608e-10
1.46608e-10
1.46608e-10
1.46608e-10
1.46608e-10
1.46608e-10
1.46608e-10
1.46608e-10
1.46608e-10
1.46608e-10
1.46608e-10
1.46608e-10
1.46608e-10
1.46608e-10
1.46608e-10
1.46608e-10
1.46608e-10
1.46608e-10
1.46608e-10
1.46608e-10
1.46608e-10
1.46608e-10
1.46608e-10
1.46608e-10
1.46608e-10
1.46608e-10
1.46608e-10
1.46608e-10
1.46608e-10
1.46608e-10
1.46608e-10
1.46608e-10
1.46608e-10
1.46608e-10
1.46608e-10
1.46608e-10
1.46608e-10
1.46608e-10
1.46608e-10
1.46608e-10
1.46608e-10
1.46608e-10
1.46608e-10
1.46608e-10
1.46608e-10
1.46608e-10
1.46608e-10
1.46608e-10
1.46608e-10
1.46608e-10
1.46608e-10
1.46608e-10
1.46608e-10
1.46608e-10
1.46608e-10
1.46608e-10
1.46608e-10
1.46608e-10
1.46608e-10
1.46608e-10
1.46608e-10
1.46608e-10
1.46608e-10
1.46608e-10
1.46608e-10
1.46608e-10
1.46608e-10
1.46608e-10
1.46608e-10
1.46608e-10
1.46608e-10
1.46608e-10
1.46608e-10
1.46608e-10
1.46608e-10
1.46608e-10
1.46608e-10
1.46608e-10
1.46608e-10
1.46608e-10
1.46608e-10
1.46608e-10
1.46608e-10
1.46608e-10
1.46608e-10
1.46608e-10
1.46608e-10
1.46608e-10
1.46608e-10
1.46608e-10
1.46608e-10
1.46608e-10
1.46608e-10
1.46608e-10
1.46608e-10
1.46608e-10
1.46608e-10
1.46608e-10
1.46608e-10
1.46608e-10
1.46608e-10
1.46608e-10
1.46608e-10
1.46608e-10
1.46608e-10
1.46608e-10
1.46608e-10
1.46608e-10
1.46608e-10
1.46608e-10
1.46608e-10

VECTORS velocity float
0.00575122 -3.07542e-05 -0.000632055
0.00601333 0.000179934 0.000831146
0.0060233 0.000191334 0.000830063
0.00400593 -0.000676769 -0.000240986
0.00606519 -0.000594437 0.000115283
0.00604089 0.000162601 0.000848836
0.00600758 0.000162193 0.000843844
0.00560457 -0.000498578 8.95018e-05
0.0059814 0.000134812 0.000853802
0.00586122 0.000249829 0.000773221
0.00582643 -0.000588429 0.000180135
0.00455813 -0.000817697 -0.000203607
0.0053423 -0.00118823 0.000332406
0.00559799 -0.000431858 0.000650594
0.00600452 0.000167843 0.000840433
0.00577514 -2.82199e-05 -0.000606657
0.00604627 0.000157906 0.000851843
0.00599768 0.000157748 0.000843722
0.00539803 -0.000694186 -5.39174e-05
0.00598915 -0.000579205 0.000111216
0.00549133 -0.0010291 -0.000141761
0.00554307 -0.000485931 8.60465e-05
0.00589223 -0.000605976 0.000186762
0.0060152 0.000218191 0.000830427
0.00605594 -0.00122204 -6.62774e-05
0.00600197 0.000168289 0.000842287
0.00605256 0.000159143 0.000852087
0.00543547 -0.000947091 -0.000101656
0.00605176 -0.000591027 0.000114406
0.00552067 -0.00105729 -0.000154522
0.00603964 0.000156805 0.000851287
0.00544555 -0.000502412 7.97668e-05
0.00601043 0.000162536 0.000845119
0.00603453 0.00017568 0.000842628
0.00597667 -0.000577107 0.000110751
0.00486754 -0.000895351 -0.000185108
0.00600763 0.000195183 0.000830618
0.00603816 0.000152931 0.000853611
0.00604002 -0.000589788 0.000114157
0.00531242 -0.00100245 -0.000161762
0.00602609 0.000165536 0.000842642
0.00563483 -0.00050879 7.88143e-05
0.00536666 -0.000764388 -4.23447e-06
0.00604484 0.000145149 0.000858512
0.0055371 -0.000737258 -4.40606e-05
0.00601375 -0.00058399 0.000112594
0.00586204 0.000105438 0.000202232
0.00585182 -0.000599338 0.000184416
0.00294595 0.00201536 -0.000505561
0.00602759 -0.000586477 0.000113055
-5.01957e-15 -7.41204e-15 7.69802e-14
0.00603796 0.000148761 0.000855455
0.00440276 -0.000780932 -0.000211129
0.00604074 0.000158702 0.000850088
0.00560765 0.000143989 0.000866035
0.00600248 -0.00058221 0.000112071
0.00584762 -0.000605758 0.000187393
0.00541245 -0.000569758 -9.72392e-05
0.00602956 0.000157417 0.000848193
0.00603074 0.000178021 0.000839866
0.00609884 0.000308596 0.000780205
0.00557371 -0.000492294 8.77828e-05
0.00555782 -0.00042922 0.000644964
0.00577536 0.000246837 0.000763436
0.00604173 0.000228141 0.000817259
0.00583765 -0.000149452 0.000526575
0.0058719 -0.000602854 0.000185664
0.00601388 0.000185603 0.00082962
0.0053831 -0.000129464 0.000507045
0.00555134 -0.00043967 0.000644807
0.0060108 0.000188568 0.000829583
0.00536809 -0.000605394 -8.74318e-05
0.00585184 -0.000422122 0.000108953
0.00566584 -0.000514913 8.03235e-05
0.00553301 -0.000405829 0.000644226
0.00603947 0.000160205 0.00084746
0.00601971 0.000177496 0.000837318
0.00603195 0.00015661 0.000850681
0.00592554 0.000325802 0.000744473
0.00604418 0.00022615 0.000815103
0.00585014 -0.000581627 0.000176918
0.006013 0.000131896 0.000860976
0.00600495 0.000228142 0.000820038
0.00562095 2.88478e-05 0.000855241
0.00597416 6.48294e-05 0.000856169
0.00602555 0.000165529 0.000845549
0.00555195 -0.000140819 0.000543293
0.00604031 0.000257014 0.000798485
0.00565929 -0.000606811 5.12377e-05
0.00603817 0.000163688 0.000848272
0.00560568 -0.000659039 -9.19184e-05
4.40537e-15 1.04025e-14 8.29651e-14
8.61412e-23 4.86658e-23 1.23839e-22
0.0055861 -0.000413307 0.000648225
0.00556958 -0.000528588 0.000154513
0.00582942 -0.000597742 0.00018367
0.00542054 -0.000132514 0.000515914
0.0058054 0.000276321 0.000751771
0.00306861 0.00199447 -0.000518158
0.0059487 0.000284907 0.000713586
0.00591203 0.000149185 0.00074924
0.00584262 -0.000600874 0.00018515
0.00584298 -0.00061091 0.000189473
0.00582594 -0.000594769 0.000184468
0.00603943 0.000168409 0.000844776
0.00602673 0.000150359 0.000847972
0.00604156 0.000157662 0.000851149
0.00583765 -0.000591667 0.000181181
0.00580047 0.000234487 0.000773386
0.00600653 0.000153164 0.000848444
0.00591603 0.000107604 -0.000536432
0.00603466 0.000165839 0.00083823
0.00556917 -0.000415027 0.000646179
0.00600312 0.0001621 0.000843416
0.00603705 0.000159584 0.00084862
0.00552436 -0.000135826 0.000536541
0.00600254 0.000165803 0.00084188
0.00576511 0.000121957 0.000825302
0.00574117 -0.000520495 0.00015248
0.00572708 -0.000494118 0.000146772
0.00600162 0.000211156 0.00083091
0.00599382 0.000143056 0.00084727
0.00600214 0.000176216 0.00083225
0.00604222 0.000170142 0.000844721
0.00585797 -0.000601687 0.000185364
0.00589113 0.000223529 0.000801411
0.00599433 0.00017701 0.000812984
0.00602354 0.000193817 0.00083482
0.00592037 -0.000602115 0.000184814
0.00538422 -0.000696648 -5.29091e-05
0.00549778 -0.000133636 0.000530751
0.00579578 -0.000471925 0.000131122
0.00551603 -0.000259402 0.000400416
0.00582527 -0.000594479 0.000182685
0.00591418 -0.000601276 0.000184521
0.00600794 0.000170548 0.00084126
0.00551541 -0.000404684 0.000628937
0.00540865 -0.000615799 -0.000135998
0.00590754 -0.000601448 0.000184672
0.00544392 -0.000583143 0.000179825
0.00584962 -0.000408283 7.69415e-05
0.0059237 -0.000603902 0.000185577
-3.828e-14 8.16765e-14 2.95892e-13
0.00588747 -0.000601391 0.000184879
0.00606309 0.000204183 0.000854847
0.00549554 -0.000658312 -0.000158837
0.00550045 -0.000445804 0.000652015
0.00595732 -0.000585551 0.000176763
0.00536089 -0.000493535 -0.000142802
0.00599288 0.000167358 0.000832519
0.00543281 -0.000516133 7.72425e-05
0.00553112 -0.000430781 0.000648289
0.00547597 -0.000443873 0.000421521
0.00550311 -0.000426194 0.000650028
0.00578749 -3.05161e-05 -0.000602835
0.00584963 -0.000613076 0.000190324
0.00552496 3.02654e-05 -0.000578902
0.00593234 -0.00059541 0.000182245
0.00585378 -0.00060756 0.000187929
0.00556546 -0.000449353 0.00021961
0.00545626 -0.00053534 -0.000134468
0.00529181 -0.000857113 -9.4748e-05
0.00574606 -3.17118e-05 -0.000603232
0.00582493 -0.000600703 0.00018498
0.00570047 0.000155719 0.000800231
0.00595407 -0.000375776 -0.000244562
0.00556384 -0.000413314 0.00064425
0.0058078 0.000172498 0.000805351
0.00603781 0.000168289 0.000843564
0.00566392 9.22397e-05 0.000826042
0.00605133 0.00210265 -0.000668366
0.00601121 0.000176213 0.000840419
0.00583423 -0.000607249 0.000188134
0.00578667 -3.27423e-05 -0.000599419
0.00554042 -0.00046844 0.000643689
0.00547895 -0.000406389 0.000423476
0.00542881 -0.000522193 -0.00013691
0.00625292 0.0015148 -0.00153126
0.00613272 -0.000190334 -0.000335775
0.00548863 -0.000628434 0.00012083
0.00559479 -0.000115578 0.000495699
0.00548073 -0.000477981 0.000541869
0.00587858 -0.000602151 0.000185324
0.00601401 0.00017198 0.000836657
0.00553713 -0.00042697 0.000648982
0.00591638 -0.000604574 0.000185869
0.00590184 -0.00060552 0.00018646
0.00578728 -0.000565296 0.000170959
0.00543867 -0.000710473 -4.89791e-05
0.00584648 -0.000597251 0.000183521
0.00600375 0.000162882 0.000841902
0.00601744 0.000172729 0.000842596
0.00552154 -0.000474224 0.000597625
0.0057313 9.52539e-05 0.000839559
0.00602201 0.000188885 0.000834981
0.00593459 0.00211085 -0.000699907
0.00552393 -0.000510988 0.000150819
0.00581164 -4.18545e-05 -0.000469209
0.0056936 -0.000565145 0.000170054
0.00594392 0.000308782 0.000746477
0.00561921 -0.000639678 -7.28921e-05
0.00604626 0.000159728 0.000850942
0.0058829 -0.000607028 0.000187313
0.00604181 0.000272462 0.000709567
0.0053448 -0.000687131 -5.44708e-05
0.00601306 0.00210439 -0.000683911
0.00636472 0.00206747 -0.000607581
0.00555259 -0.000441758 0.000643416
0.00588711 -0.000611521 0.000189184
0.00556591 -0.000437477 0.000646369
0.00538728 -0.000587691 -0.000106068
0.00603062 0.000191437 0.000834158
0.00590384 -0.000608421 0.000187608
0.00586399 -0.000614268 0.000190621
0.00585659 -0.000614168 0.00019071
0.0062052 0.00153503 -0.00153693
0.00622912 0.0015236 -0.00153188
0.00619972 0.00153956 -0.00153931
0.00592081 -0.000605281 0.000186206
0.00550088 -0.000637808 -8.544e-05
0.00621486 0.00153103 -0.00153586
0.00628896 0.00149474 -0.00152151
0.00592652 -0.000600324 0.000184095
0.0054535 -0.000700858 -0.000146724
0.00626632 0.00150683 -0.00152637
0.00592516 -0.000601035 0.000184232
0.00603184 0.000167296 0.0008451
0.00631078 0.00141367 -0.00164938
0.00603793 0.00210193 -0.000678348
0.00627749 0.00150388 -0.00152603
0.00556667 -0.000430771 0.000646111
0.00557091 -0.000420739 0.000646335
0.00589853 -0.00060165 0.000184845
0.00545594 -0.000599029 -8.45479e-05
0.0063201 0.00172926 -0.00113308
0.00541954 -0.000484636 7.63655e-05
0.00586075 -0.00060839 0.00018813
0.00544847 -0.0003679 2.92552e-05
0.00625541 0.00150885 -0.00152718
0.00583493 -0.000546193 0.000168109
0.00606806 0.00209799 -0.000668691
0.00552042 -0.000613137 -9.7813e-05
0.00592226 -0.000603446 0.000185323
0.00582858 -0.000588378 0.000179952
0.00559046 -0.000679749 -7.25903e-05
0.00601336 0.000144336 0.000827644
0.00523679 -0.000697977 0.000146735
0.00612799 0.0020938 -0.000660148
0.0059094 -0.000604761 0.000186023
0.00634918 0.00206825 -0.000611276
0.00594344 -0.000590506 0.00017988
0.00592116 -0.000596603 0.000182446
0.00591963 -0.000603893 0.000185513
0.00583984 -0.000601886 0.000185447
0.00605701 0.00210483 -0.000678606
0.00605321 0.00210133 -0.00067549
0.00542996 -0.000540538 -0.000130012
0.00622743 0.00152734 -0.00153494
0.00587914 -0.00061266 0.000189797
0.00587535 -0.00060782 0.000187766
0.00596521 -0.000579176 0.000171832
0.00589565 -0.000610044 0.000188452
0.00540703 -0.00058412 -0.000104272
0.00543354 -0.000494462 0.000144483
0.00586522 -0.000602734 0.000185722
0.00562839 -0.000430536 0.000653192
0.00552457 -0.000469927 0.000628424
0.00586814 -0.000608337 0.000188079
0.00587153 -0.000613606 0.000190281
0.0060258 0.00210239 -0.000680757
0.00591178 -0.00060644 0.000186612
0.00593605 4.34025e-05 0.000861486
0.0062396 0.00152157 -0.00153269
0.00628001 0.00149915 -0.00152389
0.00603105 0.000184651 0.000837233

VECTORS force float
-5.29688e-11 5.4534e-11 4.32591e-11
-3.95699e-11 -1.17946e-11 4.28523e-11
-5.64046e-11 -1.27435e-10 3.18025e-11
-2.16515e-10 9.13478e-11 -7.75519e-11
1.80562e-12 3.26204e-12 -2.14931e-12
8.10067e-11 8.52194e-11 -3.48765e-11
2.75485e-12 4.04544e-11 -2.22504e-11
1.21965e-12 -5.66854e-13 5.00634e-13
-3.99389e-11 -1.67259e-10 7.93333e-11
-6.86924e-11 -6.15432e-11 1.70525e-11
4.71476e-11 -4.60031e-11 1.65496e-11
-2.99412e-10 1.46847e-10 -1.17621e-10
-3.64636e-10 2.4083e-10 -1.8284e-10
-6.08294e-11 1.0903e-10 -1.91223e-11
-1.11267e-11 -8.36076e-12 1.19096e-11
2.40285e-11 5.78798e-12 -3.01542e-11
3.33952e-12 9.92429e-11 -4.7771e-11
1.10535e-10 1.02836e-11 1.86297e-11
-3.07124e-10 -2.81406e-11 -4.31856e-11
-8.20648e-12 -6.68056e-13 1.12743e-12
3.82566e-11 4.55341e-12 -1.98394e-11
-7.82679e-14 -1.45957e-12 -8.07761e-13
2.95397e-12 -1.12627e-11 5.04418e-12
-2.88291e-11 -1.69294e-10 6.65288e-11
4.4492e-11 8.2573e-11 -1.39163e-10
-4.16476e-11 -9.81396e-11 1.78011e-11
-5.19062e-11 2.595e-11 -2.79185e-11
7.03998e-11 2.27502e-11 4.52524e-11
-7.64881e-12 -3.93925e-12 4.20215e-12
-1.20131e-10 -3.82151e-11 -1.02225e-10
2.69475e-11 3.27701e-11 -1.72353e-11
-9.08401e-13 -1.03104e-11 3.53892e-12
9.18486e-11 9.73107e-12 7.16049e-12
3.71215e-11 -4.30688e-11 7.21849e-11
4.21481e-12 -2.7946e-12 3.51867e-13
-2.19722e-10 1.18136e-10 -7.22846e-11
2.131e-10 2.18214e-11 7.33447e-11
-2.22453e-11 -3.574e-11 1.0898e-11
1.49395e-11 -2.81295e-12 -1.69045e-12
-1.77359e-10 7.89673e-11 -1.03055e-10
-1.49106e-10 -3.34513e-10 1.41054e-10
9.56053e-13 8.9014e-14 4.88701e-13
-8.95775e-11 -8.25437e-11 -1.97204e-11
-4.44077e-11 5.16329e-11 -3.52538e-11
4.54142e-11 -6.98951e-11 5.16578e-11
1.7922e-12 -1.13439e-11 5.09635e-12
2.13742e-10 8.25336e-11 -1.508e-10
5.15948e-11 -5.05187e-11 2.02207e-11
7.19462e-11 -1.29644e-11 2.89121e-12
-1.26745e-11 1.04292e-11 -3.27619e-12
5.42837e-24 -5.71272e-24 -2.06795e-25
1.16141e-10 -1.41116e-11 4.51326e-11
-3.03529e-11 3.45985e-11 -5.72575e-11
-7.2039e-11 1.47281e-11 -3.67088e-11
6.05936e-11 -1.00418e-10 1.54047e-11
5.68811e-12 4.56698e-12 -2.67541e-12
1.99247e-11 -7.56378e-13 -1.24695e-12
-2.99691e-10 3.23335e-10 -3.21846e-11
-1.06188e-10 1.22314e-10 -8.69501e-11
2.42328e-11 -4.71812e-11 3.4128e-11
1.43778e-10 -2.11637e-10 1.40302e-10
5.04915e-13 -3.9012e-13 1.11087e-12
-9.22582e-11 1.17424e-10 -9.42527e-12
8.25089e-11 1.13954e-11 -5.8083e-12
-1.3196e-10 -1.25132e-10 -1.31271e-11
-2.66182e-11 -1.65491e-10 -4.38561e-11
1.59163e-12 -2.4775e-11 9.76284e-12
3.2331e-12 -4.08117e-12 2.57965e-11
8.94597e-11 -2.90664e-11 1.22006e-10
-1.95673e-10 4.53062e-11 -2.46524e-11
-1.7421e-11 -6.72002e-11 2.73681e-11
-2.01177e-10 3.06535e-10 -1.3436e-10
-7.05749e-11 4.68179e-11 -1.6072e-11
5.65705e-13 1.26245e-13 -6.24293e-13
-1.23922e-11 1.17389e-10 6.40225e-11
-6.77726e-11 -2.66555e-11 -4.08425e-12
1.66666e-11 -2.18062e-11 -4.26409e-12
8.9967e-11 7.60947e-11 -1.99834e-11
-2.2592e-12 1.27489e-10 -6.27279e-11
-2.74948e-11 -2.59963e-10 1.2022e-10
-1.93611e-11 2.94006e-11 -1.2508e-11
6.9417e-11 1.74323e-10 -7.6691e-11
1.63874e-10 1.03537e-10 1.27679e-10
-5.92665e-11 3.22802e-11 -9.59919e-12
8.58234e-11 -2.03366e-10 6.83173e-11
1.00052e-10 2.60785e-10 -1.32498e-10
-7.47416e-11 -1.31374e-11 -2.38888e-11
-5.29149e-11 2.97503e-11 -9.33355e-12
9.03734e-11 4.88476e-11 2.50194e-11
-5.88078e-12 6.4794e-11 -1.93767e-11
-5.58905e-11 -6.17527e-11 -1.38183e-10
-6.4754e-22 -2.62294e-22 6.47269e-23
-3.23117e-27 0.0 0.0
-1.85502e-10 5.5463e-11 -2.00472e-11
-4.32131e-11 -4.7573e-11 1.51686e-11
-1.91628e-11 9.35624e-12 -2.52228e-12
9.6914e-12 -7.10056e-11 7.83084e-11
-5.47011e-11 -1.96844e-10 7.89231e-11
-1.65962e-10 -1.39937e-10 4.34235e-12
-6.45128e-11 -7.12142e-11 1.0375e-10
6.17002e-12 -9.89392e-11 -9.55331e-12