# vtk DataFile Version 3.0
LIGGGHTS particles timestep 58600000
ASCII
DATASET POLYDATA
POINTS 275 float
0.354821 0.0180542 0.00700578
0.354564 0.0169277 0.00760152
0.354764 0.0169936 0.00755609
0.354255 0.0157216 0.00841056
0.360598 0.017053 0.00747586
0.354912 0.0176732 0.00719707
0.354584 0.0166118 0.00776331
0.36079 0.0178883 0.00696087
0.3547 0.0167257 0.00769793
0.355013 0.0181074 0.00696737
0.349027 0.0177297 0.0071781
0.354234 0.0156538 0.00848077
0.349161 0.0185672 0.00698469
0.34908 0.0188173 0.00682159
0.354484 0.0165814 0.00778472
0.354862 0.0182337 0.00692942
0.354951 0.0178465 0.00710543
0.354719 0.0168125 0.00765207
0.349177 0.0184054 0.00694806
0.360713 0.0175542 0.00716686
0.354361 0.0160643 0.00806225
0.360752 0.0177212 0.00706386
0.348633 0.0167869 0.0075031
0.354797 0.0173154 0.00747825
0.354212 0.015586 0.00855099
0.354443 0.0164085 0.00787628
0.355067 0.0179589 0.00704082
0.354382 0.0161491 0.00801355
0.360617 0.0171365 0.00742436
0.354341 0.0159929 0.00812939
0.354872 0.0174999 0.00728873
0.360849 0.0181821 0.00697293
0.354736 0.0169089 0.00760134
0.354836 0.0173155 0.00738595
0.360732 0.0176377 0.00711536
0.354299 0.0158573 0.00827014
0.354816 0.0172289 0.00743177
0.355006 0.0176992 0.00717825
0.360636 0.0172201 0.00737286
0.354321 0.0159251 0.00819992
0.354762 0.0177942 0.00714325
0.360809 0.0179864 0.00696491
0.354402 0.0162357 0.00796775
0.355087 0.0180455 0.006995
0.34909 0.0180097 0.00708282
0.360675 0.0173871 0.00726986
0.355022 0.0185564 0.00696064
0.348755 0.0173018 0.00732618
0.354905 0.0184253 0.00692865
0.360655 0.0173036 0.00732136
0.378022 0.019866 0.005332
0.355026 0.0177858 0.00713242
0.354277 0.0157895 0.00834035
0.354852 0.0174133 0.00733455
0.355099 0.0184912 0.00695467
0.360694 0.0174707 0.00721836
0.34872 0.0173804 0.00737757
0.348942 0.0181352 0.00704258
0.354972 0.017933 0.00705963
0.354718 0.0172139 0.00744509
0.355126 0.0182216 0.00690848
0.360772 0.0178046 0.00701247
0.349061 0.0187215 0.0068433
0.355029 0.0181999 0.00692218
0.354796 0.0171422 0.0074776
0.354427 0.0163211 0.00792225
0.348696 0.0170233 0.00742091
0.354584 0.0170144 0.00755568
0.34826 0.0157899 0.00844556
0.349101 0.0189099 0.00685283
0.354678 0.0170406 0.00753675
0.349059 0.0182832 0.00699102
0.349049 0.0178232 0.00714627
0.360828 0.0180846 0.00696896
0.348924 0.0185063 0.00691769
0.354926 0.0173516 0.00736217
0.354645 0.0168741 0.0076245
0.354777 0.0174738 0.00730762
0.355145 0.018318 0.00692711
0.354992 0.0180196 0.00701381
0.348859 0.0173432 0.00731074
0.354683 0.0174477 0.00732654
0.354697 0.0173623 0.0074664
0.354937 0.01817 0.00694804
0.354839 0.0179174 0.00717066
0.354663 0.0173611 0.00737237
0.348347 0.016014 0.00812569
0.354539 0.0164348 0.00785722
0.348758 0.0177764 0.00716611
0.354932 0.0177599 0.00715125
0.348779 0.0178689 0.00713462
0.0643568 0.0187248 0.00531097
0.24257 0.0191927 0.00520306
0.349047 0.0190657 0.00690676
0.348367 0.0160702 0.00804546
0.348795 0.0174873 0.00726307
0.348282 0.0158459 0.0083656
0.355078 0.0183917 0.00693532
0.354926 0.0185212 0.00694729
0.35463 0.0170941 0.00760599
0.354545 0.0168428 0.00765077
0.348782 0.0176589 0.00728318
0.348655 0.0173132 0.00732373
0.348716 0.0175913 0.0072291
0.35493 0.0172627 0.00740779
0.354857 0.0178204 0.00712433
0.354892 0.0175866 0.00724291
0.34889 0.0175161 0.00725203
0.355047 0.0182984 0.00691639
0.35468 0.016639 0.00774376
0.354955 0.0182682 0.00694356
0.354643 0.0172744 0.00741819
0.348966 0.0186914 0.0068547
0.354562 0.0165239 0.00780994
0.354757 0.0173872 0.00735345
0.348325 0.015958 0.0082057
0.354464 0.0164958 0.0078321
0.354881 0.0180837 0.00708017
0.348836 0.0176725 0.00720005
0.348857 0.017765 0.00716856
0.3549 0.0171787 0.00745286
0.354877 0.017907 0.00707851
0.354837 0.0177337 0.00717016
0.355108 0.0181327 0.00695063
0.348735 0.0172089 0.00735775
0.354965 0.018698 0.00698173
0.354722 0.017621 0.00723489
0.354603 0.0171011 0.00750985
0.348668 0.0164849 0.00764265
0.349149 0.0182181 0.00701169
0.348304 0.0159019 0.00828566
0.348932 0.0177012 0.00718902
0.348478 0.0161504 0.00793956
0.348815 0.0175799 0.00723156
0.348674 0.0165749 0.00759938
0.354505 0.0166679 0.00773893
0.348907 0.0184289 0.00697846
0.348822 0.0180555 0.00707654
0.348705 0.0166595 0.00755612
0.348593 0.0161933 0.0078888
0.348805 0.0177682 0.00725386
0.348645 0.0163978 0.00768624
0.0219312 0.0187687 0.00551176
0.348744 0.0168409 0.00748169
0.354852 0.0174017 0.00743386
0.3488 0.0179615 0.00710312
0.349082 0.0186947 0.00693741
0.34862 0.0168764 0.0075646
0.348983 0.0183452 0.00697119
0.354742 0.0177076 0.00718907
0.348863 0.0182389 0.00700872
0.34902 0.0185353 0.00690659
0.348884 0.0183314 0.00697722
0.348998 0.0184396 0.00693914
0.355005 0.0184597 0.00694209
0.348636 0.0172203 0.0073553
0.354884 0.0183293 0.00690989
0.348421 0.0162495 0.00781213
0.348767 0.0172917 0.00742492
0.348503 0.0166073 0.0077098
0.348887 0.018121 0.00712606
0.348908 0.0182138 0.00709452
0.354841 0.0181408 0.00695996
0.348695 0.0174987 0.00726061
0.354917 0.0180801 0.00698692
0.348953 0.0177937 0.00715755
0.348945 0.0185989 0.0068862
0.354897 0.0179935 0.00703271
0.354738 0.0173006 0.00739927
0.354894 0.0181736 0.00703827
0.342818 0.0180421 0.00712611
0.354525 0.0167544 0.00769313
0.348675 0.017406 0.00729216
0.354944 0.0186025 0.00700277
0.349139 0.0186615 0.00686232
0.349077 0.0183765 0.00695933
0.349024 0.0180814 0.00705957
0.342495 0.0166004 0.00768095
0.34907 0.0179157 0.00711478
0.349188 0.0184995 0.00691615
0.348608 0.0162497 0.00780755
0.349093 0.0184701 0.00692755
0.348733 0.0169351 0.00745009
0.354817 0.0176471 0.00721598
0.349214 0.0185989 0.00688218
0.348576 0.0165248 0.00763308
0.348614 0.0166986 0.00754688
0.348498 0.0162065 0.00785924
0.349117 0.0181151 0.00704688
0.348774 0.0173946 0.00729461
0.354605 0.0166987 0.00771734
0.354625 0.0167859 0.00767122
0.349119 0.0185685 0.00689398
0.354802 0.0179675 0.0070516
0.354698 0.0171273 0.00749092
0.34271 0.0175623 0.00720559
0.348401 0.0161828 0.00788369
0.354983 0.0183633 0.00695776
0.348737 0.0176839 0.0071976
0.354659 0.0171912 0.00755724
0.348879 0.0178575 0.00713709
0.355047 0.0178724 0.00708662
0.348652 0.0168793 0.00747006
0.354659 0.0169716 0.00760635
0.349158 0.0183124 0.00697973
0.342732 0.0176543 0.0071731
0.342671 0.0173866 0.00729241
0.349041 0.0186279 0.00687507
0.348538 0.0167615 0.00752705
0.349026 0.0189728 0.00687581
0.348842 0.0181463 0.00704021
0.354623 0.0171878 0.00746401
0.348499 0.016585 0.0076124
0.348597 0.0170348 0.00741846
0.348616 0.0171287 0.00739023
0.342398 0.01622 0.00797379
0.342455 0.0164247 0.00776765
0.34238 0.0161681 0.00805737
0.348626 0.0163099 0.00772985
0.348995 0.0179792 0.00709442
0.342416 0.0162733 0.00789119
0.342592 0.0170354 0.00746597
0.348439 0.016326 0.00775017
0.34887 0.0180285 0.00715996
0.342534 0.0167733 0.00759549
0.348534 0.0163483 0.007721
0.354797 0.0175604 0.00726181
0.342618 0.0171223 0.00742403
0.342797 0.0179452 0.00713788
0.342553 0.0168612 0.00755202
0.349006 0.018879 0.00684798
0.348985 0.0187844 0.00682309
0.348725 0.01675 0.00751886
0.349004 0.0181762 0.0071089
0.342631 0.0172108 0.00737927
0.348963 0.0182277 0.00701108
0.348681 0.0171988 0.00744157
0.348845 0.017936 0.00718885
0.342519 0.0166941 0.00765457
0.34865 0.0172997 0.00742268
0.34284 0.018139 0.00711434
0.348899 0.0179501 0.00710557
0.348553 0.0164365 0.00767724
0.348911 0.0176087 0.00722052
0.348974 0.0178867 0.00712591
0.354798 0.0177497 0.00726075
0.348932 0.0183083 0.00706192
0.342691 0.0174744 0.00724902
0.348594 0.0166319 0.00761945
0.342651 0.0172987 0.00733583
0.348419 0.0162801 0.0079073
0.348514 0.0162654 0.00777461
0.348459 0.0164121 0.00770354
0.34874 0.0174732 0.0073461
0.342891 0.017974 0.00712515
0.342753 0.0177514 0.00716142
0.348921 0.0180426 0.00707408
0.342437 0.0163436 0.00782312
0.348558 0.0168513 0.00748757
0.348657 0.0169761 0.00749985
0.349283 0.0184704 0.0069244
0.348518 0.0166728 0.00756879
0.349054 0.0181885 0.00702301
0.348385 0.0161265 0.00796477
0.348716 0.0171161 0.00738933
0.349121 0.0190028 0.00688377
0.349037 0.0185087 0.00700138
0.348664 0.0171019 0.00747387
0.348577 0.0169419 0.00744998
0.342775 0.0178483 0.00714965
0.348479 0.016502 0.00766438
0.354782 0.0178809 0.00709742
0.342476 0.0165126 0.00772433
0.342584 0.0169493 0.00751632
0.354702 0.0175343 0.00728072

VERTICES 275 550
1 0
1 1
1 2
1 3
1 4
1 5
1 6
1 7
1 8
1 9
1 10
1 11
1 12
1 13
1 14
1 15
1 16
1 17
1 18
1 19
1 20
1 21
1 22
1 23
1 24
1 25
1 26
1 27
1 28
1 29
1 30
1 31
1 32
1 33
1 34
1 35
1 36
1 37
1 38
1 39
1 40
1 41
1 42
1 43
1 44
1 45
1 46
1 47
1 48
1 49
1 50
1 51
1 52
1 53
1 54
1 55
1 56
1 57
1 58
1 59
1 60
1 61
1 62
1 63
1 64
1 65
1 66
1 67
1 68
1 69
1 70
1 71
1 72
1 73
1 74
1 75
1 76
1 77
1 78
1 79
1 80
1 81
1 82
1 83
1 84
1 85
1 86
1 87
1 88
1 89
1 90
1 91
1 92
1 93
1 94
1 95
1 96
1 97
1 98
1 99
1 100
1 101
1 102
1 103
1 104
1 105
1 106
1 107
1 108
1 109
1 110
1 111
1 112
1 113
1 114
1 115
1 116
1 117
1 118
1 119
1 120
1 121
1 122
1 123
1 124
1 125
1 126
1 127
1 128
1 129
1 130
1 131
1 132
1 133
1 134
1 135
1 136
1 137
1 138
1 139
1 140
1 141
1 142
1 143
1 144
1 145
1 146
1 147
1 148
1 149
1 150
1 151
1 152
1 153
1 154
1 155
1 156
1 157
1 158
1 159
1 160
1 161
1 162
1 163
1 164
1 165
1 166
1 167
1 168
1 169
1 170
1 171
1 172
1 173
1 174
1 175
1 176
1 177
1 178
1 179
1 180
1 181
1 182
1 183
1 184
1 185
1 186
1 187
1 188
1 189
1 190
1 191
1 192
1 193
1 194
1 195
1 196
1 197
1 198
1 199
1 200
1 201
1 202
1 203
1 204
1 205
1 206
1 207
1 208
1 209
1 210
1 211
1 212
1 213
1 214
1 215
1 216
1 217
1 218
1 219
1 220
1 221
1 222
1 223
1 224
1 225
1 226
1 227
1 228
1 229
1 230
1 231
1 232
1 233
1 234
1 235
1 236
1 237
1 238
1 239
1 240
1 241
1 242
1 243
1 244
1 245
1 246
1 247
1 248
1 249
1 250
1 251
1 252
1 253
1 254
1 255
1 256
1 257
1 258
1 259
1 260
1 261
1 262
1 263
1 264
1 265
1 266
1 267
1 268
1 269
1 270
1 271
1 272
1 273
1 274

POINT_DATA 275
SCALARS id int 1
LOOKUP_TABLE default
1
2
4
5
6
7
8
9
10
11
12
13
14
16
17
19
21
22
23
24
25
26
27
28
29
30
31
32
33
34
35
36
37
38
39
41
42
44
45
47
48
49
50
51
52
53
54
55
56
57
59
60
61
62
63
64
65
66
67
68
69
70
71
72
73
74
76
77
78
79
80
82
83
84
85
86
87
88
89
90
91
92
93
94
95
96
97
98
99
100
101
102
103
104
105
106
107
108
109
110
111
112
113
114
115
116
117
118
119
120
121
122
123
124
125
127
128
129
130
131
132
133
134
135
136
137
138
140
141
142
143
144
146
147
148
149
150
151
153
154
155
156
157
158
159
160
162
164
165
166
167
168
169
170
171
172
173
174
176
177
178
179
182
183
184
185
186
187
188
189
190
191
192
193
194
195
196
197
198
199
200
201
202
203
204
205
206
207
208
209
210
211
212
213
214
215
216
217
218
219
220
222
224
225
226
227
228
229
230
232
233
234
235
236
237
239
240
241
242
243
244
246
247
248
249
250
251
252
253
254
255
256
257
258
259
260
261
262
263
264
265
266
267
268
269
270
271
272
273
274
275
276
277
278
279
280
281
283
284
285
286
287
288
289
290
291
292
293
294
295
296
297
298
299
300

SCALARS type int 1
LOOKUP_TABLE default
1
1
1
1
1
1
1
1
1
1
1
1
1
1
1
1
1
1
1
1
1
1
1
1
1
1
1
1
1
1
1
1
1
1
1
1
1
1
1
1
1
1
1
1
1
1
1
1
1
1
1
1
1
1
1
1
1
1
1
1
1
1
1
1
1
1
1
1
1
1
1
1
1
1
1
1
1
1
1
1
1
1
1
1
1
1
1
1
1
1
1
1
1
1
1
1
1
1
1
1
1
1
1
1
1
1
1
1
1
1
1
1
1
1
1
1
1
1
1
1
1
1
1
1
1
1
1
1
1
1
1
1
1
1
1
1
1
1
1
1
1
1
1
1
1
1
1
1
1
1
1
1
1
1
1
1
1
1
1
1
1
1
1
1
1
1
1
1
1
1
1
1
1
1
1
1
1
1
1
1
1
1
1
1
1
1
1
1
1
1
1
1
1
1
1
1
1
1
1
1
1
1
1
1
1
1
1
1
1
1
1
1
1
1
1
1
1
1
1
1
1
1
1
1
1
1
1
1
1
1
1
1
1
1
1
1
1
1
1
1
1
1
1
1
1
1
1
1
1
1
1
1
1
1
1
1
1
1
1
1
1
1
1
1
1
1
1
1
1
1
1
1
1
1
1

SCALARS radius float 1
LOOKUP_TABLE default
5e-05
5e-05
5e-05
5e-05
5e-05
5e-05
5e-05
5e-05
5e-05
5e-05
5e-05
5e-05
5e-05
5e-05
5e-05
5e-05
5e-05
5e-05
5e-05
5e-05
5e-05
5e-05
5e-05
5e-05
5e-05
5e-05
5e-05
5e-05
5e-05
5e-05
5e-05
5e-05
5e-05
5e-05
5e-05
5e-05
5e-05
5e-05
5e-05
5e-05
5e-05
5e-05
5e-05
5e-05
5e-05
5e-05
5e-05
5e-05
5e-05
5e-05
5e-05
5e-05
5e-05
5e-05
5e-05
5e-05
5e-05
5e-05
5e-05
5e-05
5e-05
5e-05
5e-05
5e-05
5e-05
5e-05
5e-05
5e-05
5e-05
5e-05
5e-05
5e-05
5e-05
5e-05
5e-05
5e-05
5e-05
5e-05
5e-05
5e-05
5e-05
5e-05
5e-05
5e-05
5e-05
5e-05
5e-05
5e-05
5e-05
5e-05
5e-05
5e-05
5e-05
5e-05
5e-05
5e-05
5e-05
5e-05
5e-05
5e-05
5e-05
5e-05
5e-05
5e-05
5e-05
5e-05
5e-05
5e-05
5e-05
5e-05
5e-05
5e-05
5e-05
5e-05
5e-05
5e-05
5e-05
5e-05
5e-05
5e-05
5e-05
5e-05
5e-05
5e-05
5e-05
5e-05
5e-05
5e-05
5e-05
5e-05
5e-05
5e-05
5e-05
5e-05
5e-05
5e-05
5e-05
5e-05
5e-05
5e-05
5e-05
5e-05
5e-05
5e-05
5e-05
5e-05
5e-05
5e-05
5e-05
5e-05
5e-05
5e-05
5e-05
5e-05
5e-05
5e-05
5e-05
5e-05
5e-05
5e-05
5e-05
5e-05
5e-05
5e-05
5e-05
5e-05
5e-05
5e-05
5e-05
5e-05
5e-05
5e-05
5e-05
5e-05
5e-05
5e-05
5e-05
5e-05
5e-05
5e-05
5e-05
5e-05
5e-05
5e-05
5e-05
5e-05
5e-05
5e-05
5e-05
5e-05
5e-05
5e-05
5e-05
5e-05
5e-05
5e-05
5e-05
5e-05
5e-05
5e-05
5e-05
5e-05
5e-05
5e-05
5e-05
5e-05
5e-05
5e-05
5e-05
5e-05
5e-05
5e-05
5e-05
5e-05
5e-05
5e-05
5e-05
5e-05
5e-05
5e-05
5e-05
5e-05
5e-05
5e-05
5e-05
5e-05
5e-05
5e-05
5e-05
5e-05
5e-05
5e-05
5e-05
5e-05
5e-05
5e-05
5e-05
5e-05
5e-05
5e-05
5e-05
5e-05
5e-05
5e-05
5e-05
5e-05
5e-05
5e-05
5e-05
5e-05
5e-05
5e-05
5e-05
5e-05
5e-05
5e-05
5e-05
5e-05
5e-05
5e-05
5e-05
5e-05
5e-05
5e-05
5e-05
5e-05
5e-05
5e-05
5e-05
5e-05
5e-05
5e-05
5e-05
5e-05
5e-05

SCALARS mass float 1
LOOKUP_TABLE default
1.46608e-10
1.46608e-10
1.46608e-10
1.46608e-10
1.46608e-10
1.46608e-10
1.46608e-10
1.46608e-10
1.46608e-10
1.46608e-10
1.46608e-10
1.46608e-10
1.46608e-10
1.46608e-10
1.46608e-10
1.46608e-10
1.46608e-10
1.46608e-10
1.46608e-10
1.46608e-10
1.46608e-10
1.46608e-10
1.46608e-10
1.46608e-10
1.46608e-10
1.46608e-10
1.46608e-10
1.46608e-10
1.46608e-10
1.46608e-10
1.46608e-10
1.46608e-10
1.46608e-10
1.46608e-10
1.46608e-10
1.46608e-10
1.46608e-10
1.46608e-10
1.46608e-10
1.46608e-10
1.46608e-10
1.46608e-10
1.46608e-10
1.46608e-10
1.46608e-10
1.46608e-10
1.46608e-10
1.46608e-10
1.46608e-10
1.46608e-10
1.46608e-10
1.46608e-10
1.46608e-10
1.46608e-10
1.46608e-10
1.46608e-10
1.46608e-10
1.46608e-10
1.46608e-10
1.46608e-10
1.46608e-10
1.46608e-10
1.46608e-10
1.46608e-10
1.46608e-10
1.46608e-10
1.46608e-10
1.46608e-10
1.46608e-10
1.46608e-10
1.46608e-10
1.46608e-10
1.46608e-10
1.46608e-10
1.46608e-10
1.46608e-10
1.46608e-10
1.46608e-10
1.46608e-10
1.46608e-10
1.46608e-10
1.46608e-10
1.46608e-10
1.46608e-10
1.46608e-10
1.46608e-10
1.46608e-10
1.46608e-10
1.46608e-10
1.46608e-10
1.46608e-10
1.46608e-10
1.46608e-10
1.46608e-10
1.46608e-10
1.46608e-10
1.46608e-10
1.46608e-10
1.46608e-10
1.46608e-10
1.46608e-10
1.46608e-10
1.46608e-10
1.46608e-10
1.46608e-10
1.46608e-10
1.46608e-10
1.46608e-10
1.46608e-10
1.46608e-10
1.46608e-10
1.46608e-10
1.46608e-10
1.46608e-10
1.46608e-10
1.46608e-10
1.46608e-10
1.46608e-10
1.46608e-10
1.46608e-10
1.46608e-10
1.46608e-10
1.46608e-10
1.46608e-10
1.46608e-10
1.46608e-10
1.46608e-10
1.46608e-10
1.46608e-10
1.46608e-10
1.46608e-10
1.46608e-10
1.46608e-10
1.46608e-10
1.46608e-10
1.46608e-10
1.46608e-10
1.46608e-10
1.46608e-10
1.46608e-10
1.46608e-10
1.46608e-10
1.46608e-10
1.46608e-10
1.46608e-10
1.46608e-10
1.46608e-10
1.46608e-10
1.46608e-10
1.46608e-10
1.46608e-10
1.46608e-10
1.46608e-10
1.46608e-10
1.46608e-10
1.46608e-10
1.46608e-10
1.46608e-10
1.46608e-10
1.46608e-10
1.46608e-10
1.46608e-10
1.46608e-10
1.46608e-10
1.46608e-10
1.46608e-10
1.46608e-10
1.46608e-10
1.46608e-10
1.46608e-10
1.46608e-10
1.46608e-10
1.46608e-10
1.46608e-10
1.46608e-10
1.46608e-10
1.46608e-10
1.46608e-10
1.46608e-10
1.46608e-10
1.46608e-10
1.46608e-10
1.46608e-10
1.46608e-10
1.46608e-10
1.46608e-10
1.46608e-10
1.46608e-10
1.46608e-10
1.46608e-10
1.46608e-10
1.46608e-10
1.46608e-10
1.46608e-10
1.46608e-10
1.46608e-10
1.46608e-10
1.46608e-10
1.46608e-10
1.46608e-10
1.46608e-10
1.46608e-10
1.46608e-10
1.46608e-10
1.46608e-10
1.46608e-10
1.46608e-10
1.46608e-10
1.46608e-10
1.46608e-10
1.46608e-10
1.46608e-10
1.46608e-10
1.46608e-10
1.46608e-10
1.46608e-10
1.46608e-10
1.46608e-10
1.46608e-10
1.46608e-10
1.46608e-10
1.46608e-10
1.46608e-10
1.46608e-10
1.46608e-10
1.46608e-10
1.46608e-10
1.46608e-10
1.46608e-10
1.46608e-10
1.46608e-10
1.46608e-10
1.46608e-10
1.46608e-10
1.46608e-10
1.46608e-10
1.46608e-10
1.46608e-10
1.46608e-10
1.46608e-10
1.46608e-10
1.46608e-10
1.46608e-10
1.46608e-10
1.46608e-10
1.46608e-10
1.46608e-10
1.46608e-10
1.46608e-10
1.46608e-10
1.46608e-10
1.46608e-10
1.46608e-10
1.46608e-10
1.46608e-10
1.46608e-10
1.46608e-10
1.46608e-10
1.46608e-10
1.46608e-10
1.46608e-10
1.46608e-10
1.46608e-10
1.46608e-10
1.46608e-10
1.46608e-10
1.46608e-10
1.46608e-10
1.46608e-10
1.46608e-10
1.46608e-10
1.46608e-10
1.46608e-10
1.46608e-10
1.46608e-10

VECTORS velocity float
0.00602638 -0.000640232 -1.81412e-05
0.00530218 -0.00046876 -6.41535e-05
0.00531707 -0.000528822 -2.6733e-05
0.00603992 0.000391412 0.00112603
0.00552955 0.000317503 -0.000121127
0.00579035 -0.000649385 2.89159e-06
0.00561392 -0.000540036 -4.32826e-05
0.0057551 0.000250396 -7.27985e-05
0.0053897 -0.000424833 -8.98482e-05
0.00603637 -0.000745394 3.95513e-05
0.00597192 -0.000198613 -1.65658e-05
0.00605083 0.000404939 0.00111403
0.00635099 -0.000134425 -4.61025e-05
0.00585292 2.74796e-05 0.00017912
0.00560931 -0.000557368 -3.39131e-05
0.00612792 -0.000624454 0.000174624
0.00594433 -0.000688592 1.32093e-05
0.00534763 -0.000453108 -7.30437e-05
0.00536027 -3.40864e-05 -7.81204e-05
0.00564825 0.000284924 -0.000103639
0.00559714 -0.000453202 0.000117957
0.00573339 0.000270462 -8.37929e-05
0.00548591 -0.000189231 -0.000468598
0.00550374 -0.000451564 -4.05649e-05
0.00605957 0.00041709 0.00110264
0.00559345 -0.000542773 -4.04931e-05
0.00600591 -0.000754555 4.39563e-05
0.00560081 -0.000537755 -3.39612e-05
0.00554958 0.00030775 -0.000115217
0.00562634 0.000386361 0.00102616
0.00559531 -0.000593017 -1.45764e-05
0.00623021 0.000185346 -9.10316e-05
0.00526307 -0.00051797 -2.37909e-05
0.00545795 -0.000435641 -8.10401e-05
0.00569352 0.00028271 -9.59806e-05
0.0060235 0.000378751 0.00113614
0.00538333 -0.000425216 -9.25658e-05
0.00581971 -0.000716664 3.61671e-05
0.00556767 0.000302507 -0.000111724
0.00602368 0.000380423 0.00113696
0.00587906 -0.000585786 -3.48171e-05
0.00598715 0.000218407 -8.29221e-05
0.00559935 -0.000540219 -4.16588e-05
0.0060264 -0.000761774 5.04987e-05
0.00607192 -0.000228555 -8.03069e-06
0.00563467 0.000298162 -0.000106443
0.00604469 -0.000601214 0.000337178
0.00550993 -7.11603e-05 -5.49067e-05
0.00610642 -0.000615077 0.000379918
0.00559702 0.000302829 -0.000109819
-5.01988e-15 -7.4119e-15 7.69802e-14
0.00594512 -0.000744062 4.27922e-05
0.00603361 0.000382651 0.00113449
0.00555973 -0.000578924 -1.90329e-05
0.00606852 -0.000602005 0.00034027
0.0056418 0.000286424 -0.000103946
0.00555125 -6.59192e-05 -5.17445e-05
0.00609336 -0.000191524 -2.13213e-05
0.00600513 -0.000697909 1.49854e-05
0.00544887 -0.000548196 -3.07681e-05
0.00614096 -0.000655721 0.000336908
0.00576159 0.000248532 -7.13666e-05
0.00625818 -9.46993e-05 2.05817e-05
0.00613991 -0.000762291 0.000150718
0.00532512 -0.000422763 -9.04095e-05
0.00559753 -0.000540696 -4.17915e-05
0.00548525 -6.16805e-05 -6.31251e-05
0.00530833 -0.000467506 -6.49908e-05
0.00602427 0.000175502 0.000382944
0.00551035 0.000162651 -1.85182e-05
0.00533173 -0.000510154 -3.97605e-05
0.00612313 -0.000190558 -2.16857e-05
0.00598953 -0.000214248 -1.15468e-05
0.00623835 0.000177278 -9.07677e-05
0.00622365 -0.000181874 -2.3052e-05
0.00553056 -0.000609467 -5.73375e-06
0.00531695 -0.000478554 -5.74196e-05
0.00560101 -0.000547783 -3.6881e-05
0.00605908 -0.000635485 0.000333449
0.00602079 -0.000719916 2.77837e-05
0.0054972 -0.000222972 -2.16662e-06
0.00563955 -0.000592436 -2.19983e-05
0.00557098 -0.000508272 -4.55335e-05
0.00609406 -0.000677006 6.72476e-05
0.00596542 -0.00064189 -1.58689e-05
0.00557025 -0.000582249 -2.56134e-05
0.00599749 0.000158324 0.000404604
0.00558193 -0.00054219 -4.02642e-05
0.0059645 -0.000138037 -3.67139e-05
0.00586149 -0.000671861 1.02951e-05
0.00600776 -0.000141773 -3.64844e-05
4.29195e-15 1.04954e-14 8.29592e-14
-4.75869e-22 2.24983e-22 8.29106e-22
0.00564487 -2.50479e-05 -0.000137507
0.00593491 0.000160672 0.000395862
0.00572836 -0.000114259 -3.69129e-05
0.00603972 0.000173848 0.000387707
0.00604966 -0.000632213 0.000333151
0.00607515 -0.000603388 0.000341064
0.00535115 -0.000492361 -4.5332e-05
0.0053117 -0.000481393 -5.45022e-05
0.00593925 -9.72435e-05 -3.12395e-05
0.00552787 -4.70087e-05 -6.00187e-05
0.00591332 -0.000127104 -4.29106e-05
0.00541849 -0.000607231 1.65135e-06
0.00591049 -0.000625183 -1.43444e-05
0.00567354 -0.000617362 -8.37738e-06
0.00575412 -0.000179211 -2.08477e-05
0.00608461 -0.000630849 0.000329714
0.00544369 -0.000394344 -0.000108868
0.00610815 -0.000676741 0.000262967
0.00550676 -0.000541184 -3.59254e-05
0.00628241 -0.000206362 -2.3213e-05
0.00560388 -0.000566379 -2.91551e-05
0.00555376 -0.000544486 -3.24489e-05
0.00605018 0.000156538 0.000409841
0.00559141 -0.000546086 -3.85818e-05
0.00601152 -0.000675242 7.6845e-06
0.00591756 -0.000158049 -2.87997e-05
0.00596256 -0.000165536 -2.616e-05
0.00524076 -0.000549104 -1.79678e-05
0.0059805 -0.000648789 -7.10279e-06
0.00585664 -0.000606686 -2.68579e-05
0.00606121 -0.000760846 7.96265e-05
0.00549135 -6.43086e-05 -5.49866e-05
0.00602023 -0.000589567 0.00033771
0.00574332 -0.000591982 -2.47616e-05
0.00540791 -0.000486387 -5.62812e-05
0.00562927 -0.000245435 -0.000456954
0.0060619 -4.2319e-05 -8.56784e-05
0.00605981 0.000165828 0.000400399
0.00593455 -0.000198152 -1.65058e-05
0.00584979 0.000221125 0.000297878
0.00584414 -0.000138827 -3.54659e-05
0.00550573 -0.000225516 -0.000453447
0.00559913 -0.000555998 -3.36015e-05
0.00618783 -0.000172836 -2.33399e-05
0.0060588 -0.000150468 -3.52184e-05
0.00545572 -0.000196632 -0.000449865
0.0058661 0.000342945 0.000119058
0.00594784 -0.00016187 -3.1681e-05
0.00566508 -0.000259437 -0.000448636
-3.83495e-14 8.16599e-14 2.95888e-13
0.00552607 -4.54907e-05 -6.1619e-05
0.00557871 -0.000494614 -1.11812e-05
0.00603232 -0.000146955 -3.54837e-05
0.00631003 -0.000170871 -9.41676e-06
0.00550302 -2.18838e-05 -6.24892e-05
0.00615627 -0.00016389 -3.08344e-05
0.00580713 -0.000592831 -2.94733e-05
0.00613605 -0.000161346 -3.21077e-05
0.00620149 -0.00021016 -1.7091e-05
0.00616339 -0.000166436 -2.92847e-05
0.00612072 9.20677e-05 -0.000118778
0.00607118 -0.000602868 0.000339013
0.00553177 -5.20234e-05 -6.04999e-05
0.00613564 -0.000612637 0.00034091
0.00571391 0.000187769 0.000388454
0.00552526 -3.96057e-05 -5.40733e-05
0.00564506 -0.000244363 -0.000452376
0.00607682 -0.000166952 -3.10817e-05
0.00611748 -0.000177406 -2.70259e-05
0.00608571 -0.000642481 3.48136e-05
0.00577876 -9.58662e-05 -5.23001e-05
0.00605638 -0.00068101 8.0099e-06
0.00597572 -0.000195635 -1.76496e-05
0.00624834 -0.000190223 -2.33471e-05
0.00603182 -0.000668765 -2.47569e-06
0.00552714 -0.000556609 -2.64427e-05
0.00610154 -0.000691253 4.9427e-05
0.0059802 -0.000321874 -0.000591682
0.00538081 -0.000504285 -4.73169e-05
0.00558401 -5.73512e-05 -5.95386e-05
0.0060455 -0.00059314 0.00033087
0.00626269 -0.000136071 -6.11171e-05
0.00616653 -0.000194402 -2.12022e-05
0.0060748 -0.000221751 -1.07707e-05
0.00558456 0.000246206 0.000733894
0.0060179 -0.000214567 -1.19231e-05
0.00635875 -0.000136029 -4.7637e-05
0.00578707 0.000356344 0.000108427
0.00618616 -0.000203926 -1.77605e-05
0.00550612 -4.80797e-05 -6.00662e-05
0.00576244 -0.000578172 -3.36071e-05
0.0061796 -0.000236123 -2.19441e-05
0.00564315 -0.000161311 -0.000497168
0.00545424 -0.000220868 -0.000448413
0.00580037 0.000227233 0.000284921
0.00609204 -0.000266597 4.47185e-06
0.00558582 -8.65161e-05 -4.5264e-05
0.00541245 -0.000445804 -7.97128e-05
0.00534109 -0.000447048 -7.40278e-05
0.00633397 -0.00015275 -3.62061e-05
0.00598929 -0.000609531 -2.86904e-05
0.00537417 -0.000530877 -3.71725e-05
0.00601175 0.000171493 0.000839646
0.00582616 0.000158159 0.000385023
0.00595238 -0.000609995 8.13487e-05
0.0059295 -0.000136147 -3.72263e-05
0.00549253 -0.000478519 -4.98751e-05
0.00599783 -0.000169808 -2.54235e-05
0.00601982 -0.000760953 4.79738e-05
0.00550955 -5.10806e-05 -6.06916e-05
0.00529393 -0.000482488 -4.92822e-05
0.00458389 0.000103078 -0.000110067
0.00596482 -0.000320551 -0.000592596
0.00563595 0.000219607 0.00075533
0.00629739 -0.000195376 -2.67224e-05
0.00547473 -0.000175057 -0.00036961
0.00565386 -3.56305e-05 -0.0001373
0.00609682 -0.000155584 -3.39732e-05
0.00549283 -0.000515867 -4.60306e-05
0.00558936 -0.000231966 -0.000456892
0.00548752 -4.70265e-05 -5.79743e-05
0.00550301 -4.91597e-05 -6.70917e-05
0.0057587 -0.000472985 -0.00109844
0.00557282 0.000246428 0.000732725
0.00575761 -0.000473518 -0.00109787
0.00559576 -0.00026437 -0.000445476
0.0060346 -0.000197675 -1.83913e-05
0.00562081 -0.00219692 -0.00224172
0.00549384 0.000246402 0.000720249
0.00564352 0.000114234 0.000270897
0.00603897 -0.000160506 -3.28742e-05
0.00549341 0.000253314 0.000717198
0.00551859 -0.000277838 -0.00043119
0.00565586 -0.000551676 -3.94774e-05
0.00549662 0.000242011 0.000723481
0.00597583 -0.0003226 -0.000591222
0.0054803 0.000252475 0.000714589
0.00565897 -6.36304e-05 -0.000105098
0.00564167 -8.35022e-05 -4.82278e-05
0.00551053 -0.000104755 -0.000209867
0.00611336 -0.000239587 -8.99243e-06
0.00550544 0.000238481 0.000726063
0.00613538 -0.000199576 -1.85919e-05
0.00550543 -6.9381e-05 -4.48808e-05
0.00601523 -0.00015479 -3.08229e-05
0.00557035 0.000245278 0.000723215
0.00552887 -4.38749e-06 -5.06751e-05
0.00598704 -0.00031913 -0.000594221
0.00602691 -0.000172678 -2.62951e-05
0.00567124 -0.000190019 -0.000449243
0.00588077 -0.000199335 -1.58539e-05
0.00600917 -0.000192199 -1.93452e-05
0.00581004 -0.000608102 -4.27019e-05
0.00616328 -0.000176035 -2.81233e-05
0.00588533 0.000187485 0.000810405
0.00551785 -0.000201428 -0.000465759
0.00551301 0.00023614 0.0007283
0.00578995 0.000225566 0.000379639
0.00564161 0.000141551 0.000403729
0.00563646 -3.09464e-05 -2.05443e-05
0.00567337 -7.18356e-05 -1.55544e-06
0.00597364 -0.000333154 -0.000590568
0.00596981 -0.00031933 -0.00059141
0.00605482 -0.000179987 -2.48905e-05
0.00551706 -0.000839408 -0.000872312
0.00550129 -9.95268e-05 -0.000177348
0.00550283 -5.90021e-05 -4.99829e-05
0.00635926 -0.000132585 -5.74861e-05
0.00550304 -0.00022014 -0.000458584
0.00612475 -0.000236204 -5.40377e-06
0.00589095 0.000158066 0.000389896
0.00547928 -6.05954e-05 -5.68817e-05
0.00557895 0.000171068 -6.1699e-05
0.00615821 -0.000235588 -2.01191e-05
0.00547679 -5.17528e-05 -5.96021e-05
0.00550981 -5.57746e-05 -5.99767e-05
0.00597567 -0.000320949 -0.000591913
0.00565164 -0.000157228 -0.00031904
0.00593756 -0.000587509 -3.56944e-05
0.00557786 0.000246524 0.000732571
0.00549118 0.000242365 0.000708018
0.00570299 -0.000589046 -2.11866e-05

VECTORS force float
2.85174e-11 -2.47716e-10 1.7422e-10
3.94707e-11 1.42024e-10 -1.13055e-10
-1.47409e-11 2.97582e-10 -1.37494e-10
-9.47061e-12 -5.49018e-11 5.7612e-11
-2.13569e-11 -7.80794e-12 8.29525e-12
-5.85204e-10 2.57193e-10 -1.2831e-10
-3.286e-11 -1.36707e-10 7.12767e-11
7.97008e-13 -1.73812e-11 2.42149e-11
3.46432e-10 -3.28152e-10 1.61453e-10
1.38316e-10 2.34974e-11 -1.91715e-11
-1.63845e-10 5.40569e-11 -1.69076e-11
-5.04959e-11 -1.32722e-10 1.33981e-10
3.67404e-11 -1.66398e-11 -1.11175e-11
-1.15158e-10 -1.41366e-10 -1.16882e-10
-1.41367e-10 -1.86932e-11 2.72383e-11
2.75016e-11 2.71025e-11 2.52901e-11
-1.40874e-10 7.48959e-11 -2.2688e-11
5.60331e-11 -6.79263e-11 3.63035e-11
-2.08572e-11 5.53052e-12 -1.89549e-11
-3.76008e-11 -3.67819e-10 1.70082e-10
9.6776e-11 8.83112e-11 3.26167e-11
1.9943e-10 2.51371e-10 -9.13937e-11
-5.19979e-12 9.53175e-11 -2.12112e-11
5.04373e-10 1.28235e-10 7.90584e-11
-5.91728e-11 -1.92487e-10 2.01165e-10
-5.98861e-11 -7.17152e-11 4.39576e-11
-1.369e-10 1.2517e-10 -5.22408e-11
1.24335e-10 2.74436e-12 -5.32774e-11
1.30305e-11 3.50143e-11 -2.19741e-11
1.98071e-11 4.49155e-11 -4.63863e-11
-3.73122e-10 3.79596e-10 -8.94772e-11
-1.28041e-10 8.61545e-12 4.56064e-11
1.0443e-10 2.8937e-10 -1.11034e-10
3.58302e-10 2.10343e-11 3.74763e-11
-3.27499e-10 -1.03771e-10 1.17359e-11
-5.3638e-11 4.28416e-11 -6.98943e-11
-5.12918e-11 -1.05964e-10 1.03756e-11
-5.97083e-10 5.58241e-11 7.70301e-12
4.09774e-11 5.17688e-11 -4.83878e-11
-3.35391e-11 5.42635e-11 -5.79193e-11
3.48298e-11 -1.20019e-11 2.46745e-11
-4.57795e-11 3.50564e-12 3.07075e-11
5.76899e-11 2.57269e-11 -3.83416e-11
2.09717e-10 7.91813e-11 -9.5267e-12
-1.47564e-10 -8.90766e-14 -2.20612e-13
6.43716e-11 1.82504e-10 -8.57556e-11
1.26128e-10 1.01351e-10 1.14649e-11
1.73612e-11 -7.02593e-12 4.78509e-11
-1.01034e-11 -4.08561e-11 8.00895e-11
-7.7762e-11 1.10786e-10 -8.13853e-11
1.29247e-24 -5.16988e-26 2.06795e-25
-1.82419e-10 1.31676e-10 -6.67721e-11
1.23785e-11 2.16451e-11 -7.04191e-12
-2.70706e-10 3.80612e-10 -2.56336e-10
6.76602e-11 1.46505e-11 3.79048e-12
2.68711e-10 -5.99601e-11 1.18712e-10
-1.38505e-11 5.9515e-12 -3.28605e-11
7.92875e-12 6.32694e-11 -2.25834e-11
2.00984e-10 1.30437e-12 -1.27216e-11
7.77634e-12 7.74124e-11 3.40423e-11
1.21731e-12 3.20614e-11 -6.60561e-11
3.02841e-10 1.15957e-10 -3.93095e-11
-1.46503e-10 6.84964e-12 6.84816e-11
1.1075e-10 8.83434e-11 -1.56242e-12
1.90622e-10 -8.55578e-11 -4.13612e-11
5.08472e-11 -1.73473e-11 2.53294e-12
-5.1566e-11 -3.76463e-11 -5.33286e-11
8.6269e-11 2.26061e-10 -8.044e-11
-3.61754e-12 -5.16415e-11 6.96568e-11
-7.6424e-10 -4.38525e-10 1.74628e-09
-3.9944e-12 3.30521e-10 -2.13609e-10
-1.10005e-10 -3.76346e-11 1.63759e-11
-1.71448e-10 1.27196e-10 -4.07712e-11
-9.7906e-11 -3.71223e-11 6.23104e-11
-1.43866e-11 1.60595e-11 3.63588e-12
-3.33445e-10 3.24419e-10 -9.58401e-11
-1.45758e-10 -4.53357e-11 -4.78041e-11
9.71993e-11 -1.56132e-10 5.42609e-11
-1.2041e-10 8.22239e-11 5.06874e-11
1.36021e-10 2.15456e-10 -4.6264e-11
-1.6049e-10 5.95872e-11 4.84231e-12
-2.8156e-10 -3.73917e-10 1.81233e-10
2.29107e-10 -1.5523e-10 1.05621e-10
1.71587e-10 3.17663e-11 1.81012e-10
-1.33145e-10 2.34709e-10 -3.16758e-11
-6.77775e-11 -2.84128e-10 1.87324e-10
7.98408e-11 -5.61386e-11 6.63322e-11
-3.84015e-11 -1.45873e-10 9.14534e-11
-7.03252e-11 -1.72575e-10 5.8536e-11
7.27455e-11 1.91501e-10 -8.514e-11
-1.6147e-11 -7.85236e-11 2.21885e-11
-1.13507e-21 1.03036e-22 4.05319e-23
0.0 0.0 0.0
2.39464e-12 1.34133e-10 1.30623e-10