# vtk DataFile Version 3.0
LIGGGHTS particles timestep 48200000
ASCII
DATASET POLYDATA
POINTS 275 float
0.294288 0.0180506 0.00705621
0.293943 0.017042 0.00759332
0.294098 0.0169433 0.00767327
0.293536 0.0156534 0.00882269
0.299886 0.0167139 0.00746764
0.294244 0.0174575 0.00721817
0.293937 0.016698 0.00789407
0.300098 0.0176177 0.00710606
0.294037 0.0167233 0.00786809
0.294162 0.0177492 0.00710835
0.288312 0.0173805 0.00721407
0.293516 0.0155802 0.00888753
0.288292 0.0177701 0.0071149
0.288495 0.0182092 0.0069887
0.293896 0.0165506 0.00802447
0.293496 0.0155069 0.00895255
0.294278 0.0176077 0.0070856
0.294057 0.0167966 0.00780303
0.288454 0.0180134 0.00698047
0.300011 0.0172478 0.00723081
0.293655 0.0160163 0.00850097
0.300055 0.0174327 0.00716844
0.287988 0.0168055 0.00751715
0.294019 0.0169913 0.00763458
0.293476 0.0154337 0.00901759
0.293744 0.016308 0.00824252
0.294319 0.0174063 0.00725981
0.293677 0.0160891 0.00843641
0.299905 0.0167942 0.00741133
0.293638 0.0159466 0.00857082
0.2942 0.0173115 0.0073475
0.300159 0.017896 0.00701238
0.294077 0.01687 0.00773809
0.294159 0.0171643 0.0074777
0.300033 0.0173403 0.00719963
0.293584 0.0157988 0.0086938
0.294194 0.0169675 0.0076493
0.294255 0.0171872 0.00745427
0.299925 0.0168835 0.00737078
0.293608 0.0158714 0.0086294
0.294141 0.0178113 0.00703272
0.30012 0.0177102 0.00707487
0.293703 0.0161615 0.00837219
0.294341 0.0174794 0.00719509
0.288371 0.0176434 0.00707449
0.299968 0.0170628 0.00729319
0.294511 0.0178522 0.00703729
0.288195 0.0172659 0.00727385
0.294491 0.0177542 0.00703216
0.299946 0.0169725 0.00733043
0.378022 0.019866 0.005332
0.294275 0.0172604 0.00738923
0.29356 0.0157262 0.0087582
0.29418 0.0172381 0.00741239
0.294162 0.0179088 0.00704113
0.299989 0.0171553 0.007262
0.288118 0.0173228 0.00724267
0.288216 0.0179628 0.00706789
0.294297 0.0176866 0.00702709
0.294079 0.0172113 0.00743993
0.294381 0.0176331 0.00707384
0.300076 0.0175252 0.00713725
0.288536 0.0184048 0.00699692
0.294342 0.0178864 0.00704451
0.294174 0.0168942 0.00771441
0.293724 0.0162347 0.00830741
0.288129 0.0170072 0.00741113
0.293963 0.0171155 0.00752837
0.287554 0.0155398 0.00863958
0.288462 0.0184714 0.00700134
0.294038 0.0170647 0.00756962
0.288318 0.0179478 0.00706515
0.288332 0.0174676 0.00716784
0.30014 0.017803 0.00704364
0.288326 0.018694 0.00701403
0.294235 0.0171139 0.00751933
0.293998 0.016918 0.0076994
0.294142 0.0174315 0.00724501
0.294257 0.0177129 0.00711496
0.294321 0.0177889 0.00703606
0.28829 0.0172937 0.00726008
0.294065 0.0174822 0.00720577
0.293801 0.0165287 0.00804748
0.294184 0.0178465 0.00711633
0.294109 0.0175195 0.00728789
0.294043 0.0174083 0.00726938
0.287633 0.0158235 0.00836895
0.293782 0.0164552 0.00811246
0.288142 0.0178138 0.00698099
0.294266 0.0175306 0.00715342
0.288163 0.0179115 0.00698296
0.0643568 0.0187248 0.00531097
0.24257 0.0191927 0.00520306
0.288516 0.018307 0.00699281
0.287727 0.0158389 0.00833833
0.288161 0.0174955 0.00715098
0.287574 0.0156107 0.00857192
0.294396 0.017723 0.00703289
0.294471 0.0176564 0.0070358
0.293922 0.0169688 0.00765814
0.293882 0.016822 0.00778798
0.287672 0.0159655 0.00823361
0.288044 0.0173832 0.00721504
0.288106 0.01764 0.00707328
0.294215 0.0170406 0.00758444
0.294225 0.0177557 0.00703058
0.294222 0.0173845 0.00728281
0.288237 0.017439 0.00718202
0.294417 0.0178204 0.00704136
0.294016 0.01665 0.00793315
0.294308 0.0181481 0.00706467
0.294023 0.0173349 0.00733428
0.288482 0.0185692 0.00700545
0.293917 0.0166239 0.00795957
0.29412 0.0173583 0.00730986
0.287614 0.0157525 0.00843662
0.293763 0.0163816 0.0081775
0.294151 0.0176703 0.00716863
0.2882 0.0176693 0.00705875
0.288218 0.0177596 0.00701514
0.294117 0.0170168 0.00760824
0.294247 0.0178556 0.00703928
0.294202 0.0176589 0.00704397
0.29436 0.0175531 0.00713026
0.288173 0.0171796 0.00731967
0.294147 0.0175903 0.00722861
0.29411 0.0176349 0.00708448
0.293985 0.0171943 0.00747089
0.288002 0.0164995 0.00770326
0.288411 0.0178164 0.00698264
0.287594 0.0156816 0.00850427
0.288277 0.0176145 0.00709193
0.287766 0.0159809 0.00820299
0.288181 0.0175825 0.00710485
0.288021 0.016575 0.00764042
0.293842 0.0166753 0.00791777
0.288306 0.0185961 0.00700991
0.288305 0.0181469 0.00698932
0.288041 0.0166619 0.00759433
0.287747 0.0159099 0.00827066
0.287692 0.0160365 0.00816595
0.28798 0.0164237 0.00776455
0.0219312 0.0187687 0.00551176
0.288086 0.0168345 0.00750274
0.294139 0.0170902 0.00754332
0.288183 0.0180094 0.00698579
0.288259 0.0181159 0.00707225
0.287751 0.0162494 0.00796295
0.288346 0.0183424 0.00699754
0.294121 0.0177138 0.00702421
0.288265 0.0184005 0.00700169
0.288387 0.018538 0.00700576
0.288286 0.0184983 0.0070058
0.288367 0.0184402 0.00700165
0.294362 0.0179841 0.00705299
0.288022 0.0172947 0.00725654
0.294321 0.0179347 0.00712971
0.28779 0.0163914 0.0078276
0.288097 0.0172365 0.00728847
0.287786 0.0160518 0.00813532
0.288154 0.0177698 0.0071128
0.288203 0.0181072 0.00698937
0.294383 0.0180816 0.00706145
0.288086 0.0175535 0.00711924
0.294204 0.017944 0.00712479
0.288294 0.0177003 0.00704324
0.288346 0.0187919 0.00701816
0.294267 0.0179531 0.00704774
0.2941 0.0172849 0.00737482
0.294224 0.0182013 0.00706651
0.282233 0.0182546 0.00688619
0.293862 0.0167487 0.00785281
0.288065 0.0174672 0.00716501
0.294437 0.017918 0.00704982
0.28834 0.0180573 0.00707366
0.2884 0.018178 0.00698901
0.288359 0.0179824 0.00698079
0.281904 0.0167924 0.0074383
0.288352 0.0175553 0.00712124
0.288161 0.0178589 0.00706803
0.287653 0.0158945 0.00830128
0.288421 0.0182758 0.00699312
0.288108 0.0169209 0.0074569
0.294187 0.0175791 0.00711525
0.288475 0.0181114 0.00698459
0.287925 0.0165561 0.00767086
0.287966 0.0167193 0.00756285
0.287844 0.0162648 0.00793233
0.288389 0.0177303 0.00702831
0.288216 0.0173524 0.00722794
0.293958 0.0167712 0.00782924
0.293978 0.0168446 0.00776433
0.288441 0.0183736 0.00699723
0.294203 0.0181038 0.00705805
0.29406 0.0171378 0.00750488
0.282137 0.0177955 0.00705938
0.287826 0.0161937 0.00800002
0.294458 0.0180156 0.00705614
0.288125 0.0177268 0.0070273
0.293822 0.016602 0.0079826
0.288243 0.0178582 0.00701006
0.294297 0.0173333 0.00732446
0.28801 0.0168916 0.00747143
0.293903 0.0168954 0.00772308
0.288433 0.0179147 0.00697633
0.282157 0.0178872 0.00702477
0.282099 0.0176119 0.00712863
0.288407 0.0186359 0.00700988
0.287914 0.016869 0.0074942
0.288345 0.0181861 0.00707214
0.288244 0.0183028 0.00699758
0.294003 0.0172615 0.00739919
0.287871 0.0166925 0.00757889
0.287979 0.017124 0.00735099
0.288 0.0172087 0.0073022
0.281803 0.016405 0.00772922
0.281862 0.0166214 0.00752994
0.281784 0.0163329 0.00779564
0.28796 0.0163527 0.00783221
0.288338 0.0178841 0.00697729
0.281823 0.0164772 0.00766279
0.282012 0.0172467 0.00726663
0.287809 0.0164627 0.00775964
0.288147 0.0176569 0.0071626
0.281947 0.016975 0.00736929
0.287884 0.0164067 0.00779701
0.294164 0.0175045 0.00718035
0.282033 0.017338 0.00723213
0.282215 0.0181626 0.00692087
0.281969 0.0170663 0.00733479
0.287535 0.0154937 0.00872616
0.288611 0.0183382 0.0069925
0.288064 0.0167482 0.00754857
0.28824 0.0176914 0.00714775
0.282055 0.0174293 0.00719763
0.288326 0.0182447 0.00699343
0.288075 0.0171504 0.00733413
0.288083 0.0175587 0.00721906
0.281925 0.0168837 0.00740379
0.287711 0.0161075 0.00809828
0.282253 0.0183525 0.00689074
0.288264 0.0179516 0.00698115
0.287904 0.0164789 0.00773077
0.288258 0.017526 0.00713582
0.288313 0.0177876 0.00699688
0.294089 0.0174442 0.00735075
0.288224 0.018205 0.00699348
0.282118 0.0177036 0.00709402
0.287947 0.0166386 0.00761867
0.282077 0.0175206 0.00716313
0.28777 0.0163204 0.00789527
0.287864 0.0163357 0.00786468
0.287829 0.0165345 0.00769117
0.288139 0.0174091 0.00719683
0.282291 0.0181016 0.00694185
0.282176 0.017979 0.00699013
0.288285 0.018049 0.00699051
0.281843 0.0165493 0.00759641
0.287935 0.01695 0.00743945
0.288031 0.0169779 0.00742566
0.287731 0.0161784 0.00803061
0.287893 0.0167863 0.00754631
0.28838 0.0180802 0.0069849
0.287805 0.0161228 0.00806766
0.288151 0.0170935 0.00736533
0.288336 0.0178495 0.00707205
0.288287 0.01827 0.00708201
0.288053 0.0170641 0.00737993
0.287957 0.0170362 0.00739368
0.282196 0.0180707 0.00695552
0.287849 0.0166055 0.00762334
0.294183 0.0180063 0.00704959
0.281882 0.0167011 0.0074728
0.282005 0.0171532 0.00730159
0.294088 0.0175578 0.00714436

VERTICES 275 550
1 0
1 1
1 2
1 3
1 4
1 5
1 6
1 7
1 8
1 9
1 10
1 11
1 12
1 13
1 14
1 15
1 16
1 17
1 18
1 19
1 20
1 21
1 22
1 23
1 24
1 25
1 26
1 27
1 28
1 29
1 30
1 31
1 32
1 33
1 34
1 35
1 36
1 37
1 38
1 39
1 40
1 41
1 42
1 43
1 44
1 45
1 46
1 47
1 48
1 49
1 50
1 51
1 52
1 53
1 54
1 55
1 56
1 57
1 58
1 59
1 60
1 61
1 62
1 63
1 64
1 65
1 66
1 67
1 68
1 69
1 70
1 71
1 72
1 73
1 74
1 75
1 76
1 77
1 78
1 79
1 80
1 81
1 82
1 83
1 84
1 85
1 86
1 87
1 88
1 89
1 90
1 91
1 92
1 93
1 94
1 95
1 96
1 97
1 98
1 99
1 100
1 101
1 102
1 103
1 104
1 105
1 106
1 107
1 108
1 109
1 110
1 111
1 112
1 113
1 114
1 115
1 116
1 117
1 118
1 119
1 120
1 121
1 122
1 123
1 124
1 125
1 126
1 127
1 128
1 129
1 130
1 131
1 132
1 133
1 134
1 135
1 136
1 137
1 138
1 139
1 140
1 141
1 142
1 143
1 144
1 145
1 146
1 147
1 148
1 149
1 150
1 151
1 152
1 153
1 154
1 155
1 156
1 157
1 158
1 159
1 160
1 161
1 162
1 163
1 164
1 165
1 166
1 167
1 168
1 169
1 170
1 171
1 172
1 173
1 174
1 175
1 176
1 177
1 178
1 179
1 180
1 181
1 182
1 183
1 184
1 185
1 186
1 187
1 188
1 189
1 190
1 191
1 192
1 193
1 194
1 195
1 196
1 197
1 198
1 199
1 200
1 201
1 202
1 203
1 204
1 205
1 206
1 207
1 208
1 209
1 210
1 211
1 212
1 213
1 214
1 215
1 216
1 217
1 218
1 219
1 220
1 221
1 222
1 223
1 224
1 225
1 226
1 227
1 228
1 229
1 230
1 231
1 232
1 233
1 234
1 235
1 236
1 237
1 238
1 239
1 240
1 241
1 242
1 243
1 244
1 245
1 246
1 247
1 248
1 249
1 250
1 251
1 252
1 253
1 254
1 255
1 256
1 257
1 258
1 259
1 260
1 261
1 262
1 263
1 264
1 265
1 266
1 267
1 268
1 269
1 270
1 271
1 272
1 273
1 274

POINT_DATA 275
SCALARS id int 1
LOOKUP_TABLE default
1
2
4
5
6
7
8
9
10
11
12
13
14
16
17
19
21
22
23
24
25
26
27
28
29
30
31
32
33
34
35
36
37
38
39
41
42
44
45
47
48
49
50
51
52
53
54
55
56
57
59
60
61
62
63
64
65
66
67
68
69
70
71
72
73
74
76
77
78
79
80
82
83
84
85
86
87
88
89
90
91
92
93
94
95
96
97
98
99
100
101
102
103
104
105
106
107
108
109
110
111
112
113
114
115
116
117
118
119
120
121
122
123
124
125
127
128
129
130
131
132
133
134
135
136
137
138
140
141
142
143
144
146
147
148
149
150
151
153
154
155
156
157
158
159
160
162
164
165
166
167
168
169
170
171
172
173
174
176
177
178
179
182
183
184
185
186
187
188
189
190
191
192
193
194
195
196
197
198
199
200
201
202
203
204
205
206
207
208
209
210
211
212
213
214
215
216
217
218
219
220
222
224
225
226
227
228
229
230
232
233
234
235
236
237
239
240
241
242
243
244
246
247
248
249
250
251
252
253
254
255
256
257
258
259
260
261
262
263
264
265
266
267
268
269
270
271
272
273
274
275
276
277
278
279
280
281
283
284
285
286
287
288
289
290
291
292
293
294
295
296
297
298
299
300

SCALARS type int 1
LOOKUP_TABLE default
1
1
1
1
1
1
1
1
1
1
1
1
1
1
1
1
1
1
1
1
1
1
1
1
1
1
1
1
1
1
1
1
1
1
1
1
1
1
1
1
1
1
1
1
1
1
1
1
1
1
1
1
1
1
1
1
1
1
1
1
1
1
1
1
1
1
1
1
1
1
1
1
1
1
1
1
1
1
1
1
1
1
1
1
1
1
1
1
1
1
1
1
1
1
1
1
1
1
1
1
1
1
1
1
1
1
1
1
1
1
1
1
1
1
1
1
1
1
1
1
1
1
1
1
1
1
1
1
1
1
1
1
1
1
1
1
1
1
1
1
1
1
1
1
1
1
1
1
1
1
1
1
1
1
1
1
1
1
1
1
1
1
1
1
1
1
1
1
1
1
1
1
1
1
1
1
1
1
1
1
1
1
1
1
1
1
1
1
1
1
1
1
1
1
1
1
1
1
1
1
1
1
1
1
1
1
1
1
1
1
1
1
1
1
1
1
1
1
1
1
1
1
1
1
1
1
1
1
1
1
1
1
1
1
1
1
1
1
1
1
1
1
1
1
1
1
1
1
1
1
1
1
1
1
1
1
1
1
1
1
1
1
1
1
1
1
1
1
1
1
1
1
1
1
1

SCALARS radius float 1
LOOKUP_TABLE default
5e-05
5e-05
5e-05
5e-05
5e-05
5e-05
5e-05
5e-05
5e-05
5e-05
5e-05
5e-05
5e-05
5e-05
5e-05
5e-05
5e-05
5e-05
5e-05
5e-05
5e-05
5e-05
5e-05
5e-05
5e-05
5e-05
5e-05
5e-05
5e-05
5e-05
5e-05
5e-05
5e-05
5e-05
5e-05
5e-05
5e-05
5e-05
5e-05
5e-05
5e-05
5e-05
5e-05
5e-05
5e-05
5e-05
5e-05
5e-05
5e-05
5e-05
5e-05
5e-05
5e-05
5e-05
5e-05
5e-05
5e-05
5e-05
5e-05
5e-05
5e-05
5e-05
5e-05
5e-05
5e-05
5e-05
5e-05
5e-05
5e-05
5e-05
5e-05
5e-05
5e-05
5e-05
5e-05
5e-05
5e-05
5e-05
5e-05
5e-05
5e-05
5e-05
5e-05
5e-05
5e-05
5e-05
5e-05
5e-05
5e-05
5e-05
5e-05
5e-05
5e-05
5e-05
5e-05
5e-05
5e-05
5e-05
5e-05
5e-05
5e-05
5e-05
5e-05
5e-05
5e-05
5e-05
5e-05
5e-05
5e-05
5e-05
5e-05
5e-05
5e-05
5e-05
5e-05
5e-05
5e-05
5e-05
5e-05
5e-05
5e-05
5e-05
5e-05
5e-05
5e-05
5e-05
5e-05
5e-05
5e-05
5e-05
5e-05
5e-05
5e-05
5e-05
5e-05
5e-05
5e-05
5e-05
5e-05
5e-05
5e-05
5e-05
5e-05
5e-05
5e-05
5e-05
5e-05
5e-05
5e-05
5e-05
5e-05
5e-05
5e-05
5e-05
5e-05
5e-05
5e-05
5e-05
5e-05
5e-05
5e-05
5e-05
5e-05
5e-05
5e-05
5e-05
5e-05
5e-05
5e-05
5e-05
5e-05
5e-05
5e-05
5e-05
5e-05
5e-05
5e-05
5e-05
5e-05
5e-05
5e-05
5e-05
5e-05
5e-05
5e-05
5e-05
5e-05
5e-05
5e-05
5e-05
5e-05
5e-05
5e-05
5e-05
5e-05
5e-05
5e-05
5e-05
5e-05
5e-05
5e-05
5e-05
5e-05
5e-05
5e-05
5e-05
5e-05
5e-05
5e-05
5e-05
5e-05
5e-05
5e-05
5e-05
5e-05
5e-05
5e-05
5e-05
5e-05
5e-05
5e-05
5e-05
5e-05
5e-05
5e-05
5e-05
5e-05
5e-05
5e-05
5e-05
5e-05
5e-05
5e-05
5e-05
5e-05
5e-05
5e-05
5e-05
5e-05
5e-05
5e-05
5e-05
5e-05
5e-05
5e-05
5e-05
5e-05
5e-05
5e-05
5e-05
5e-05
5e-05
5e-05
5e-05
5e-05
5e-05
5e-05
5e-05
5e-05
5e-05
5e-05
5e-05
5e-05
5e-05
5e-05
5e-05
5e-05
5e-05
5e-05
5e-05
5e-05
5e-05
5e-05
5e-05
5e-05

SCALARS mass float 1
LOOKUP_TABLE default
1.46608e-10
1.46608e-10
1.46608e-10
1.46608e-10
1.46608e-10
1.46608e-10
1.46608e-10
1.46608e-10
1.46608e-10
1.46608e-10
1.46608e-10
1.46608e-10
1.46608e-10
1.46608e-10
1.46608e-10
1.46608e-10
1.46608e-10
1.46608e-10
1.46608e-10
1.46608e-10
1.46608e-10
1.46608e-10
1.46608e-10
1.46608e-10
1.46608e-10
1.46608e-10
1.46608e-10
1.46608e-10
1.46608e-10
1.46608e-10
1.46608e-10
1.46608e-10
1.46608e-10
1.46608e-10
1.46608e-10
1.46608e-10
1.46608e-10
1.46608e-10
1.46608e-10
1.46608e-10
1.46608e-10
1.46608e-10
1.46608e-10
1.46608e-10
1.46608e-10
1.46608e-10
1.46608e-10
1.46608e-10
1.46608e-10
1.46608e-10
1.46608e-10
1.46608e-10
1.46608e-10
1.46608e-10
1.46608e-10
1.46608e-10
1.46608e-10
1.46608e-10
1.46608e-10
1.46608e-10
1.46608e-10
1.46608e-10
1.46608e-10
1.46608e-10
1.46608e-10
1.46608e-10
1.46608e-10
1.46608e-10
1.46608e-10
1.46608e-10
1.46608e-10
1.46608e-10
1.46608e-10
1.46608e-10
1.46608e-10
1.46608e-10
1.46608e-10
1.46608e-10
1.46608e-10
1.46608e-10
1.46608e-10
1.46608e-10
1.46608e-10
1.46608e-10
1.46608e-10
1.46608e-10
1.46608e-10
1.46608e-10
1.46608e-10
1.46608e-10
1.46608e-10
1.46608e-10
1.46608e-10
1.46608e-10
1.46608e-10
1.46608e-10
1.46608e-10
1.46608e-10
1.46608e-10
1.46608e-10
1.46608e-10
1.46608e-10
1.46608e-10
1.46608e-10
1.46608e-10
1.46608e-10
1.46608e-10
1.46608e-10
1.46608e-10
1.46608e-10
1.46608e-10
1.46608e-10
1.46608e-10
1.46608e-10
1.46608e-10
1.46608e-10
1.46608e-10
1.46608e-10
1.46608e-10
1.46608e-10
1.46608e-10
1.46608e-10
1.46608e-10
1.46608e-10
1.46608e-10
1.46608e-10
1.46608e-10
1.46608e-10
1.46608e-10
1.46608e-10
1.46608e-10
1.46608e-10
1.46608e-10
1.46608e-10
1.46608e-10
1.46608e-10
1.46608e-10
1.46608e-10
1.46608e-10
1.46608e-10
1.46608e-10
1.46608e-10
1.46608e-10
1.46608e-10
1.46608e-10
1.46608e-10
1.46608e-10
1.46608e-10
1.46608e-10
1.46608e-10
1.46608e-10
1.46608e-10
1.46608e-10
1.46608e-10
1.46608e-10
1.46608e-10
1.46608e-10
1.46608e-10
1.46608e-10
1.46608e-10
1.46608e-10
1.46608e-10
1.46608e-10
1.46608e-10
1.46608e-10
1.46608e-10
1.46608e-10
1.46608e-10
1.46608e-10
1.46608e-10
1.46608e-10
1.46608e-10
1.46608e-10
1.46608e-10
1.46608e-10
1.46608e-10
1.46608e-10
1.46608e-10
1.46608e-10
1.46608e-10
1.46608e-10
1.46608e-10
1.46608e-10
1.46608e-10
1.46608e-10
1.46608e-10
1.46608e-10
1.46608e-10
1.46608e-10
1.46608e-10
1.46608e-10
1.46608e-10
1.46608e-10
1.46608e-10
1.46608e-10
1.46608e-10
1.46608e-10
1.46608e-10
1.46608e-10
1.46608e-10
1.46608e-10
1.46608e-10
1.46608e-10
1.46608e-10
1.46608e-10
1.46608e-10
1.46608e-10
1.46608e-10
1.46608e-10
1.46608e-10
1.46608e-10
1.46608e-10
1.46608e-10
1.46608e-10
1.46608e-10
1.46608e-10
1.46608e-10
1.46608e-10
1.46608e-10
1.46608e-10
1.46608e-10
1.46608e-10
1.46608e-10
1.46608e-10
1.46608e-10
1.46608e-10
1.46608e-10
1.46608e-10
1.46608e-10
1.46608e-10
1.46608e-10
1.46608e-10
1.46608e-10
1.46608e-10
1.46608e-10
1.46608e-10
1.46608e-10
1.46608e-10
1.46608e-10
1.46608e-10
1.46608e-10
1.46608e-10
1.46608e-10
1.46608e-10
1.46608e-10
1.46608e-10
1.46608e-10
1.46608e-10
1.46608e-10
1.46608e-10
1.46608e-10
1.46608e-10
1.46608e-10
1.46608e-10
1.46608e-10
1.46608e-10
1.46608e-10
1.46608e-10
1.46608e-10
1.46608e-10
1.46608e-10
1.46608e-10
1.46608e-10
1.46608e-10
1.46608e-10
1.46608e-10
1.46608e-10
1.46608e-10
1.46608e-10
1.46608e-10
1.46608e-10
1.46608e-10
1.46608e-10
1.46608e-10
1.46608e-10

VECTORS velocity float
0.00563209 -0.000238063 0.000143632
0.00584051 -0.000361581 7.9855e-05
0.00583833 -0.00036431 0.000136725
0.00576922 -0.000359922 9.89742e-05
0.00570232 -1.75374e-05 -0.000270826
0.0058728 -0.000365156 8.13135e-05
0.005631 -0.000330027 0.000123224
0.0062843 -5.34648e-05 -0.000238682
0.00569898 -0.000362009 0.000197767
0.00570805 -0.000266936 0.000155374
0.00633102 0.0001377 -2.09562e-06
0.00574248 -0.000314547 0.00011126
0.00586087 0.000258517 -6.76103e-05
0.00582074 0.00027647 -9.3921e-05
0.00561861 -0.000330222 5.90077e-05
0.00579862 -0.000282293 0.000126982
0.0057513 -0.000272923 8.25765e-06
0.00576609 -0.000375914 8.66332e-05
0.0058376 0.000278144 -9.23282e-05
0.00628165 -5.28065e-05 -0.00023877
0.006134 -0.000467175 0.000157544
0.00628299 -5.31485e-05 -0.00023872
0.00619576 0.000182373 -3.32201e-05
0.00581136 -0.000394055 0.000111435
0.00584402 -0.000275528 0.000120518
0.00564582 -0.000351892 7.56995e-05
0.00590432 -0.000344086 5.68491e-05
0.00604789 -0.000446539 0.000142574
0.00570007 0.000196056 3.2986e-05
0.00621453 -0.000479095 0.000172691
0.00601833 -0.000410995 6.63148e-05
0.00570822 6.80849e-05 -0.00025502
0.0058364 -0.000374846 9.78827e-05
0.00596089 -0.00036941 0.000113676
0.00628228 -5.29702e-05 -0.00023876
0.00623256 -0.000483751 0.000163688
0.0059034 -0.000261293 0.000106109
0.00613349 -0.000241129 8.6144e-05
0.0056771 0.000199993 3.08935e-05
0.00624969 -0.000492666 0.000175222
0.00564886 -0.000246709 0.000146079
0.00628488 -5.36705e-05 -0.000238617
0.00591959 -0.000411804 0.000118006
0.00584985 -0.000337357 5.97491e-05
0.00589156 0.000302132 -9.53552e-05
0.00628027 -5.2629e-05 -0.00023887
0.00559673 -0.000115939 -0.000665167
0.00624564 6.39481e-05 3.62877e-05
0.00564843 -0.00010809 -0.000671985
0.00627689 8.63177e-05 9.58837e-05
-5.01926e-15 -7.41166e-15 7.69803e-14
0.00603281 -0.000296859 0.000114301
0.00608065 -0.000443678 0.000140411
0.00609459 -0.00029727 6.41316e-05
0.00564482 -0.000241272 0.000140252
0.00628097 -5.26849e-05 -0.000238777
0.00629492 0.000123702 4.62622e-06
0.00585477 0.000255635 -8.90925e-05
0.00565031 -0.000135122 0.000149615
0.00591382 -0.000433694 0.000123256
0.00571879 -0.000252488 0.00013348
0.00628365 -5.33077e-05 -0.0002387
0.00582 0.000276692 -9.38015e-05
0.0056673 -0.000255097 0.000143693
0.00594151 -0.000268998 0.000109247
0.00576173 -0.000376484 9.38186e-05
0.00616154 0.000119677 5.49957e-06
0.00586633 -0.000384345 9.24476e-05
0.00558723 -6.43143e-05 -0.000512494
0.00581301 0.000257971 -9.45918e-05
0.00584254 -0.000402639 0.000113605
0.00583709 0.000263907 -9.26671e-05
0.00597116 0.000310295 -9.83464e-05
0.00566535 7.66662e-05 -0.000256063
0.00559256 0.000267926 -9.04408e-05
0.00605497 -0.000259365 9.82763e-05
0.005795 -0.000388595 0.00010519
0.00600233 -0.000366489 6.88003e-05
0.00557285 -0.000251869 0.000154991
0.00567757 -0.000258671 0.000138597
0.00634929 0.000140759 -3.59002e-06
0.00595903 -0.00041289 0.0001154
0.00548435 -0.000292075 3.09199e-05
0.00566108 -0.000250143 0.00013788
0.00596924 -0.000403182 7.64692e-05
0.00604051 -0.000441402 0.000126172
0.00553941 -0.000153479 -0.000839955
0.00543362 -0.000296113 3.59384e-05
0.00584017 0.000239902 -6.07009e-05
0.00577856 -0.000348198 7.68902e-05
0.00583868 0.000243802 -6.98484e-05
4.39367e-15 1.04282e-14 8.29626e-14
-1.67314e-22 4.86658e-23 1.23839e-22
0.0058326 0.000276433 -9.4079e-05
0.00553225 -0.000220527 -0.000783725
0.00630902 0.000125235 4.55439e-06
0.00565097 -9.35274e-05 -0.000727311
0.00570257 -0.000254453 0.000144407
0.00581014 -0.000173068 3.64501e-05
0.00581127 -0.000335242 6.12555e-05
0.00575554 -0.000322437 4.69874e-05
0.00554144 -0.000221779 -0.000789198
0.00631242 0.000148003 -7.32181e-06
0.00586935 0.000226638 -5.61123e-05
0.00597177 -0.000269188 0.000101573
0.00567591 -0.000215046 0.000140618
0.00597545 -0.000374588 8.42325e-05
0.00630184 0.000112281 1.11773e-05
0.00567603 -0.000252544 0.000144687
0.0056054 -0.00034802 0.000188908
0.00562997 -0.000220824 0.000144185
0.00599909 -0.000424318 0.000122873
0.0057919 0.000273428 -9.33846e-05
0.00566579 -0.000260666 -2.64843e-06
0.00601683 -0.000425564 0.000110828
0.00551709 -0.00013323 -0.000906736
0.00554053 -0.000324954 5.80459e-05
0.00578171 -0.000292074 0.000145465
0.00586637 0.000247562 -6.65202e-05
0.00584067 0.000257872 -7.49141e-05
0.00590801 -0.000419192 -7.3982e-05
0.00566035 -0.000247757 0.000137137
0.00568707 -0.000266937 1.46655e-05
0.0057723 -0.000290381 9.51184e-05
0.00624996 0.000123394 4.61537e-06
0.00587433 -0.000340829 8.30934e-05
0.00575788 -0.000295691 0.000147698
0.00589307 -0.000399087 9.90647e-05
0.00590405 -0.000129229 -0.000318941
0.00588159 0.000299479 -9.33549e-05
0.00556827 -0.000128511 -0.000877941
0.00589896 0.000280029 -8.23111e-05
0.00554916 -0.000236355 -0.000775051
0.00589839 0.000249434 -6.55767e-05
0.00600155 0.000133579 -1.00263e-08
0.00563282 -0.00029622 3.15616e-05
0.0058013 0.000231616 -9.55974e-05
0.00583108 0.000251252 -9.54139e-05
0.00608392 0.000122997 -8.96165e-07
0.0055489 -0.00023373 -0.000779002
0.00555163 -0.000237223 -0.000772775
0.00565908 -0.000376844 -0.000688308
-3.83072e-14 8.16813e-14 2.95887e-13
0.00615354 0.000144158 -7.19548e-06
0.00593241 -0.000356921 0.000106447
0.00583545 0.000246036 -8.78721e-05
0.00583194 0.000243193 -9.72542e-05
0.00557428 -0.000243558 -0.000773456
0.00582548 0.000245214 -9.56186e-05
0.00565388 -0.000256697 0.00015063
0.00581764 0.000240651 -9.58082e-05
0.0058105 0.000245311 -9.52316e-05
0.00581341 0.00023675 -9.55928e-05
0.00581805 0.000241178 -9.53761e-05
0.00563388 -0.000251182 0.00014198
0.00628518 0.000156064 -1.2059e-05
0.00564976 -0.000248157 0.000146001
0.00560821 -0.000199253 -0.000813389
0.00626414 0.000137534 -2.57404e-06
0.00554711 -0.000234674 -0.000777259
0.00588048 0.000238598 -7.31271e-05
0.00583018 0.000247476 -9.56239e-05
0.00562964 -0.000244454 0.000144441
0.00632284 0.000145636 -5.91862e-06
0.00564875 -0.000248172 0.000140632
0.00586199 0.000263745 -7.39056e-05
0.00557862 0.00026927 -8.98022e-05
0.00564994 -0.000242815 0.000143642
0.00601368 -0.000401853 0.000111808
0.00562696 -0.000204639 0.000144856
0.00568558 0.000294519 -0.000241398
0.0056623 -0.000296339 3.53031e-05
0.00632284 0.000143517 -5.08329e-06
0.00565217 -0.000246289 0.000146043
0.00582884 0.000261446 -9.52602e-05
0.00582804 0.0002577 -9.49034e-05
0.00584045 0.000255994 -9.56052e-05
0.00632342 0.000162209 -0.000211053
0.00592994 0.000314695 -0.000100675
0.0058527 0.000244357 -6.66665e-05
0.00553546 -0.000198968 -0.000806679
0.00583194 0.000262684 -9.46066e-05
0.00614596 0.000129334 2.39715e-07
0.00578466 -0.0003195 6.75216e-05
0.0058313 0.000259016 -9.49117e-05
0.00586262 2.02721e-05 -0.000389365
0.00620279 0.000202779 -7.04942e-05
0.005578 -0.000239179 -0.000780571
0.00589139 0.000299887 -9.37154e-05
0.00629513 9.46847e-05 2.04768e-05
0.0057115 -0.000375611 0.000107452
0.00577063 -0.000383064 9.85257e-05
0.00582446 0.000256802 -9.49055e-05
0.00563163 -0.000216555 0.00014529
0.00588104 -0.000421828 0.000122954
0.00577186 0.000301822 -0.000245459
0.00555157 -0.000230522 -0.000779241
0.00563571 -0.000185574 -0.000681389
0.00585176 0.000232871 -6.01642e-05
0.00561596 -0.000305378 3.70314e-05
0.00584582 0.000256449 -7.17634e-05
0.005994 -0.000333052 7.6326e-05
0.00618238 0.00017007 -2.00397e-05
0.00580233 -0.000337704 5.90913e-05
0.00585298 0.000305014 -9.2491e-05
0.00579352 0.000293166 -0.000242827
0.00622828 0.000225311 -0.000227392
0.00563769 0.000292343 -9.00801e-05
0.00617609 0.000165989 -1.72465e-05
0.00583146 0.000251531 -9.39469e-05
0.00582392 0.000244812 -9.57763e-05
0.00593682 -0.000409443 0.000111722
0.00601504 -0.00182049 -0.0050977
0.00622193 0.00017065 -2.12871e-05
0.00625393 0.000165143 -1.76215e-05
0.00570346 0.000636689 0.000170178
0.00572648 0.00061613 0.000191176
0.00569887 0.000648995 0.000159542
0.00547968 -0.000326694 -0.000673884
0.00586 0.000273647 -9.24449e-05
0.00571491 0.000626867 0.000182581
0.00630594 0.000203684 -0.000222826
0.00564428 -0.00012774 -0.000887358
0.00586244 0.000261992 -6.17119e-05
0.00631377 0.000169937 -0.000207488
0.00560968 -0.000213423 -0.000758379
0.00586593 -0.000358807 7.8157e-05
0.00631699 0.000207562 -0.000222252
0.00594225 0.000255982 -0.000232041
0.00630341 0.000175107 -0.000206419
0.00597057 0.000743052 0.000336798
0.00583054 0.000296105 -9.31173e-05
0.00613061 0.0001328 -2.86905e-06
0.00586759 0.000251185 -6.77778e-05
0.00630944 0.00020439 -0.000220712
0.00583005 0.000250713 -9.48211e-05
0.00623681 0.000146946 -8.46798e-06
0.0063054 0.000152665 -6.24514e-06
0.00631736 0.0001704 -0.000216499
0.00554661 -0.000243162 -0.000768229
0.00571311 0.000267578 0.000268321
0.00584029 0.000252081 -9.34587e-05
0.00571874 -0.000123013 -0.000621421
0.00593957 0.000283207 -8.37593e-05
0.00584321 0.000255063 -6.9476e-05
0.00603041 -0.000407606 9.89371e-05
0.00582761 0.000246947 -9.5306e-05
0.00577046 0.000309141 -0.000247849
0.00603737 0.000134624 -0.00016787
0.00629584 0.000208544 -0.000222689
0.00560715 -0.000184441 -0.000832158
0.005582 -0.000233108 -0.000780865
0.00534687 -4.35466e-06 -0.000948372
0.00630367 0.000113535 1.0717e-05
0.00594407 0.000255717 -0.000232093
0.00585818 0.000275975 -0.00023733
0.00583561 0.000252744 -9.84733e-05
0.00572528 0.000617977 0.000193459
0.00619352 0.000168855 -1.82656e-05
0.00618703 0.000165565 -1.79545e-05
0.00555833 -0.000245702 -0.000767494
0.00612094 0.000157276 -2.06908e-05
0.00583313 0.000255587 -9.55876e-05
0.00553747 -0.000229803 -0.000777858
0.00621678 0.000126003 2.98212e-06
0.00584386 0.000264719 -7.52597e-05
0.00583524 0.000265259 -9.49554e-05
0.00620411 0.000156514 -1.35761e-05
0.00619979 0.000171988 -2.17363e-05
0.00592039 0.000260813 -0.000233715
0.00575172 7.58574e-05 -0.000933452
0.00563869 -0.000229838 0.000145374
0.00630721 0.000171426 -0.000212036
0.00630798 0.000189128 -0.000216229
0.00584083 -0.000348524 0.000135474

VECTORS force float
1.51015e-11 2.73095e-10 2.48278e-11
4.81301e-10 -2.71963e-11 4.42357e-11
4.99818e-10 -2.83774e-10 -5.26125e-10
2.90375e-10 -1.49035e-10 1.56611e-10
-1.60987e-12 2.25964e-12 -5.14488e-13
-9.17798e-12 -2.09811e-10 1.40535e-10
-1.58068e-10 -1.94731e-10 -1.16741e-10
-7.82043e-13 -1.12679e-12 4.0383e-13
-7.28639e-11 1.203e-10 -4.35794e-11
-2.2371e-10 -3.93271e-12 -2.85446e-11
-4.39912e-11 -1.07099e-11 5.99539e-12
2.18928e-10 -1.38988e-10 -3.90749e-10
-7.14567e-12 -4.01371e-11 -3.54016e-11
7.24006e-12 4.36298e-11 3.36018e-12
-3.62847e-10 3.55566e-10 -3.00486e-10
-5.08384e-11 4.2074e-11 -1.88725e-10
-1.04365e-10 5.36161e-11 -1.06419e-10
-5.40059e-11 1.67711e-10 -6.27451e-11
6.50306e-12 -3.28842e-11 -1.01219e-11
9.55173e-13 -1.11569e-13 -6.13598e-14
-1.1841e-10 -7.60628e-11 7.53598e-11
-7.76603e-13 -1.76726e-13 -3.86014e-13
7.51457e-10 3.25389e-10 -4.53739e-10
3.60869e-10 -1.57336e-10 -2.53027e-10
9.68771e-11 -1.07647e-10 2.18666e-11
-2.67291e-10 9.63035e-11 -7.71437e-11
3.83169e-10 2.82043e-11 -8.95719e-11
-1.6225e-10 -1.11274e-10 1.10259e-10
1.75735e-12 -1.40037e-12 -7.38017e-12
2.76223e-11 -7.33471e-11 2.96062e-11
3.01297e-10 5.40859e-10 3.47385e-10
8.61369e-13 -2.41907e-12 1.07941e-12
4.70361e-11 2.1026e-11 6.25647e-11
-8.57369e-11 -2.66855e-11 1.37301e-10
1.26782e-12 -3.22701e-13 4.79389e-13
1.23862e-10 -4.73216e-11 6.29989e-11
-9.25755e-12 4.5912e-11 1.52482e-11
-2.56369e-10 -3.11493e-10 3.29679e-10
-1.84677e-13 3.86908e-12 4.11986e-12
4.5601e-11 -7.32752e-11 3.96263e-12
-6.48744e-11 -1.23866e-10 1.04076e-11
4.13054e-13 -2.21415e-12 9.29209e-13
-1.61361e-10 -5.24077e-11 5.4197e-11
9.56584e-11 -1.02878e-10 2.4576e-11
-1.55976e-10 4.61033e-11 -1.78418e-11
1.26416e-13 6.61808e-13 1.18198e-12
8.01232e-11 3.1438e-11 -5.85288e-11
2.37279e-12 1.03966e-10 -5.79317e-11
-1.02978e-10 -2.99981e-12 1.30227e-10
6.89531e-13 1.3928e-12 -2.35187e-12
8.14256e-25 -8.27181e-25 0.0
-2.51218e-10 -2.13837e-10 4.41059e-10
-1.92661e-10 -7.80106e-11 1.24125e-10
1.3317e-10 -2.31322e-10 1.34489e-11
-4.15797e-11 -3.06047e-11 -2.52435e-11
9.10702e-13 -3.93978e-13 5.60453e-14
-1.97366e-11 8.67875e-11 -4.00375e-11
-5.04933e-11 6.93644e-11 6.61744e-11
-2.78728e-11 2.64438e-11 3.37196e-11
-5.29403e-11 1.96104e-11 7.4131e-11
-2.72196e-10 1.26916e-10 3.12985e-10
-2.02384e-13 -5.23851e-13 1.0814e-13
-2.51543e-11 6.22898e-11 3.44487e-12
3.8967e-11 2.17289e-10 -9.5361e-12
2.56421e-10 -2.24623e-10 -2.27389e-10
-1.47561e-10 3.0699e-11 -9.68348e-12
-1.30891e-10 1.36281e-10 -7.52242e-11
-3.9256e-11 -1.41662e-10 1.21071e-10
3.23358e-10 -1.80435e-09 -3.39949e-10
-5.69471e-11 7.97445e-11 4.7352e-12
2.42875e-10 2.87763e-11 -2.28708e-10
-3.79045e-11 1.50806e-11 4.09724e-11
-3.8345e-12 7.42534e-11 -4.0137e-11
1.34198e-12 -2.66037e-12 5.21206e-13
1.05803e-10 6.10157e-11 6.82111e-12
8.87613e-11 1.73098e-10 -2.36603e-12
4.12841e-11 -6.26291e-11 -7.23747e-11
1.86745e-11 -1.46792e-10 1.00309e-10
7.61547e-11 1.53637e-10 -2.54217e-11
2.98441e-11 1.64565e-10 -2.52091e-11
-1.20737e-10 -9.23539e-11 4.49504e-11
-1.54443e-10 -1.25328e-10 2.26533e-10
-1.06539e-10 2.23149e-10 -1.94693e-10
-1.10601e-11 -4.84029e-11 -5.91478e-11
-3.1523e-10 -1.0986e-10 3.29702e-11
-2.65573e-11 -2.68719e-10 2.23992e-10
1.86371e-10 2.29285e-10 -7.34687e-10
1.92063e-10 1.74686e-10 -1.45657e-10
-1.82188e-12 2.32345e-11 -1.9091e-11
-2.54265e-10 -9.67859e-12 4.66451e-11
-1.77971e-12 1.82757e-11 3.16677e-12
1.03192e-21 -3.61168e-22 -8.89219e-24
0.0 0.0 0.0
-2.19261e-11 4.75913e-11 3.09116e-12
-1.14459e-10 4.1524e-10 -2.66828e-10
-2.12952e-11 2.80032e-11 -1.51327e-11
-5.52291e-10 -1.21379e-09 6.24224e-10
-4.24391e-11 1.1887e-10 7.69965e-11