# vtk DataFile Version 3.0
LIGGGHTS particles timestep 38200000
ASCII
DATASET POLYDATA
POINTS 275 float
0.236095 0.0187046 0.00685106
0.235765 0.0175275 0.00711869
0.235915 0.0173998 0.00715295
0.235302 0.0157283 0.00838552
0.24163 0.0170015 0.00760719
0.236052 0.018062 0.00697538
0.235762 0.0171012 0.00728625
0.241816 0.0177664 0.00702623
0.235428 0.01609 0.00793171
0.235948 0.0182596 0.00702358
0.230025 0.0174602 0.00736753
0.235281 0.0156674 0.00846192
0.229953 0.0179787 0.0072172
0.230231 0.0184349 0.0069282
0.235426 0.016038 0.00801709
0.235259 0.0156065 0.00853833
0.236091 0.0182546 0.00693818
0.235724 0.0169313 0.00738439
0.230189 0.0182468 0.00699361
0.241745 0.0174435 0.00721818
0.235481 0.0162232 0.00779253
0.241781 0.017592 0.00708906
0.229787 0.0172755 0.00747349
0.23584 0.0174637 0.00713581
0.235238 0.0155457 0.00861473
0.235548 0.0165635 0.00759591
0.236127 0.0179972 0.00698806
0.235488 0.0163095 0.00774254
0.241652 0.0170747 0.00754261
0.235408 0.0159672 0.00808536
0.236013 0.0178695 0.00701259
0.241873 0.0180607 0.00703584
0.235896 0.0173079 0.00718712
0.235973 0.0176768 0.00705011
0.241763 0.0175179 0.00715362
0.235344 0.0158501 0.00823274
0.23601 0.0174282 0.00713582
0.236068 0.0177081 0.00704392
0.241673 0.0171481 0.00747795
0.235366 0.0159125 0.00815775
0.235961 0.0184804 0.00689424
0.241835 0.0178645 0.00702943
0.235509 0.0163978 0.00770069
0.236147 0.0180935 0.00696946
0.230085 0.0177435 0.00722411
0.24171 0.0172955 0.00734808
0.2363 0.0184137 0.00690773
0.229966 0.017663 0.00727127
0.236281 0.0183175 0.00692633
0.241692 0.0172217 0.0074131
0.378022 0.019866 0.005332
0.236088 0.0178044 0.00702532
0.235325 0.015789 0.00830938
0.235993 0.0177729 0.00703124
0.23598 0.0185767 0.00687563
0.241728 0.0173694 0.00728309
0.229902 0.0178022 0.00720667
0.229945 0.0182951 0.00706547
0.236111 0.0183508 0.00691958
0.235898 0.0177417 0.00703712
0.236186 0.018286 0.00693225
0.241797 0.0176682 0.00702632
0.230341 0.01849 0.00691082
0.23615 0.0185435 0.00688235
0.235452 0.0161538 0.00785825
0.235529 0.0164788 0.00764568
0.22991 0.0174 0.00740438
0.235784 0.0176195 0.00708456
0.229268 0.0155974 0.00847365
0.230276 0.0187176 0.00682964
0.23586 0.0175558 0.0071016
0.230053 0.0182744 0.0070724
0.230046 0.0175586 0.00731771
0.241854 0.0179626 0.00703264
0.230461 0.0186479 0.00685743
0.236048 0.0176129 0.00706725
0.235821 0.0173717 0.00716998
0.235957 0.0180306 0.00698131
0.236009 0.0180507 0.00706474
0.236131 0.0184471 0.00690098
0.230005 0.0173696 0.00741339
0.235882 0.0180954 0.00696864
0.23561 0.0168178 0.00744904
0.235968 0.018356 0.00700499
0.23587 0.0178756 0.00709804
0.235863 0.0179991 0.00698724
0.229372 0.0159437 0.00815594
0.235589 0.0167331 0.00749803
0.229923 0.0183048 0.00696847
0.236072 0.0181583 0.00695678
0.229942 0.0183975 0.00693625
0.0643568 0.0187248 0.00531097
0.24257 0.0191927 0.00520306
0.23025 0.0185277 0.00689593
0.22933 0.0157724 0.00824988
0.22994 0.0179774 0.00711796
0.229288 0.0156431 0.0083871
0.236206 0.0183823 0.00691365
0.236182 0.0178359 0.00701939
0.235746 0.0174355 0.00715285
0.235707 0.0172521 0.00722213
0.229415 0.016118 0.00806739
0.229827 0.0178629 0.00718153
0.229884 0.0181263 0.00704996
0.236029 0.0175205 0.00710155
0.236036 0.0184157 0.0069069
0.236032 0.0179658 0.00699398
0.230004 0.0178381 0.00718256
0.236225 0.0184786 0.00689505
0.235743 0.0170162 0.00733535
0.236117 0.0188018 0.0068323
0.235843 0.0179028 0.00700584
0.230358 0.0185836 0.00687818
0.235629 0.0169029 0.00740025
0.235938 0.0179343 0.00699991
0.229351 0.0158569 0.00820082
0.235569 0.0166482 0.00754695
0.235924 0.0181583 0.00704164
0.229979 0.018153 0.00702953
0.229998 0.0182444 0.0069941
0.235935 0.017492 0.0071187
0.236056 0.0185119 0.0068883
0.236016 0.0183194 0.0069255
0.236166 0.0181898 0.00695086
0.229947 0.0175754 0.00731563
0.235858 0.0179769 0.00708466
0.235921 0.0182879 0.00693144
0.235804 0.0177127 0.00705415
0.229777 0.0168679 0.00767504
0.230169 0.0181538 0.00702597
0.229308 0.0156889 0.00830052
0.230071 0.0180045 0.00709634
0.229457 0.0162922 0.00797885
0.229959 0.018065 0.00707358
0.229798 0.0169556 0.00763045
0.235668 0.017074 0.0073044
0.230333 0.0187993 0.00683257
0.230079 0.0186186 0.00686608
0.22982 0.0170429 0.00758602
0.229436 0.0162051 0.00802312
0.229478 0.0163794 0.00793457
0.229755 0.0167799 0.00771979
0.0219312 0.0187687 0.00551176
0.229866 0.0172179 0.00749694
0.235954 0.0175842 0.00708446
0.229963 0.0184925 0.00691293
0.229985 0.0184128 0.00702531
0.229541 0.0166408 0.00780175
0.230183 0.0187551 0.00682647
0.235941 0.0183842 0.00691284
0.230046 0.0188796 0.00685682
0.230423 0.0187564 0.00682108
0.230241 0.0188353 0.00684262
0.230144 0.0188594 0.00685013
0.23617 0.0186397 0.00686376
0.229808 0.0177753 0.00722588
0.23611 0.0185243 0.00697157
0.229584 0.0168151 0.00771321
0.229883 0.0177147 0.00725102
0.229573 0.0164045 0.00791623
0.22987 0.0180299 0.00719285
0.229982 0.0185838 0.00687684
0.236191 0.0187358 0.00684521
0.229865 0.018038 0.0070928
0.235998 0.0184637 0.00698574
0.230055 0.0180935 0.00705349
0.230452 0.0185538 0.00689034
0.236075 0.0186085 0.00686965
0.235918 0.017838 0.00701851
0.236041 0.0188652 0.0068199
0.223939 0.0183858 0.0069698
0.235687 0.0171621 0.00726104
0.229846 0.0179504 0.00713717
0.236245 0.0185748 0.00687647
0.230076 0.0183743 0.00704119
0.230154 0.0185542 0.00688488
0.230115 0.0183689 0.00694938
0.223639 0.0170101 0.00755369
0.230066 0.0176555 0.00726867
0.229893 0.0181167 0.00714906
0.229393 0.0160308 0.00811167
0.230172 0.0186531 0.00685045
0.229887 0.0173072 0.00745161
0.235997 0.0182231 0.0069441
0.230211 0.0183423 0.00696042
0.229721 0.0170144 0.00760633
0.229765 0.0171883 0.00751786
0.229636 0.0166659 0.00778341
0.230104 0.0178324 0.00717911
0.229985 0.0177505 0.00722692
0.235781 0.0171874 0.00723851
0.235801 0.0172796 0.0072042
0.230266 0.0186208 0.00686348
0.23602 0.0187692 0.00683845
0.235879 0.0176479 0.00706751
0.223855 0.0178996 0.00702247
0.229615 0.0165787 0.00782769
0.236266 0.0186708 0.00685791
0.229903 0.0182151 0.00700807
0.235648 0.0169878 0.00735087
0.230018 0.0183375 0.00696319
0.236107 0.0179009 0.00700666
0.229808 0.0173637 0.00742872
0.235726 0.0173436 0.00718702
0.230147 0.0182421 0.00708393
0.223861 0.0179945 0.00699147
0.223803 0.0177082 0.00703494
0.230366 0.0186777 0.00684525
0.229713 0.0173373 0.0074477
0.23005 0.0185147 0.00699435
0.230025 0.0187841 0.00683629
0.235823 0.0178081 0.00703111
0.229669 0.0171635 0.00753615
0.22977 0.0176001 0.00731461
0.229788 0.0176878 0.00727024
0.223531 0.0166362 0.00786757
0.223596 0.0168605 0.00767932
0.223509 0.0165614 0.00793032
0.229732 0.016691 0.00776505
0.230094 0.0182762 0.00698158
0.223553 0.016711 0.00780482
0.223738 0.0173844 0.00723884
0.229605 0.0169022 0.00766893
0.229862 0.0179396 0.00723525
0.223677 0.0171603 0.00742721
0.229679 0.0168402 0.00769486
0.235977 0.0181269 0.00696271
0.223748 0.0174601 0.00717429
0.223919 0.0182879 0.00697174
0.223701 0.0172393 0.00737076
0.229247 0.0155516 0.00856021
0.230322 0.0183972 0.00694308
0.229843 0.0171303 0.00754156
0.22995 0.0178745 0.00725801
0.223767 0.0175353 0.00711095
0.230093 0.0187116 0.00683213
0.229864 0.0176271 0.00729539
0.22983 0.0178555 0.00728118
0.22366 0.017085 0.00749072
0.229499 0.0164665 0.0078903
0.223961 0.0184834 0.0069679
0.230038 0.0184285 0.00692705
0.2297 0.0169273 0.00765059
0.230023 0.0179257 0.0071382
0.230075 0.0181833 0.00701391
0.235851 0.0177715 0.00712009
0.230001 0.0186747 0.0068398
0.223822 0.0178051 0.00702022
0.229743 0.0171014 0.00756209
0.223794 0.0176098 0.00705028
0.229562 0.0167279 0.00775748
0.229658 0.016753 0.00773914
0.229626 0.0169894 0.00762466
0.229921 0.0178904 0.00716347
0.223943 0.0179388 0.00699629
0.22388 0.018092 0.00698117
0.230058 0.0185211 0.00689482
0.223575 0.0167857 0.00774207
0.229733 0.0174248 0.00740336
0.229827 0.0174517 0.00738414
0.22952 0.0165537 0.00784603
0.229691 0.0172504 0.00749193
0.230135 0.0184615 0.00691716
0.229594 0.0164916 0.00787196
0.229929 0.0174877 0.00736001
0.230004 0.0180426 0.00716011
0.230028 0.0187287 0.00691949
0.229846 0.0175394 0.00733976
0.229751 0.0175124 0.00735899
0.223899 0.0181898 0.00697368
0.229647 0.0170765 0.00758039
0.236 0.018673 0.00685703
0.223618 0.0169353 0.00761657
0.223715 0.0173098 0.00730129
0.235902 0.0181916 0.00695004

VERTICES 275 550
1 0
1 1
1 2
1 3
1 4
1 5
1 6
1 7
1 8
1 9
1 10
1 11
1 12
1 13
1 14
1 15
1 16
1 17
1 18
1 19
1 20
1 21
1 22
1 23
1 24
1 25
1 26
1 27
1 28
1 29
1 30
1 31
1 32
1 33
1 34
1 35
1 36
1 37
1 38
1 39
1 40
1 41
1 42
1 43
1 44
1 45
1 46
1 47
1 48
1 49
1 50
1 51
1 52
1 53
1 54
1 55
1 56
1 57
1 58
1 59
1 60
1 61
1 62
1 63
1 64
1 65
1 66
1 67
1 68
1 69
1 70
1 71
1 72
1 73
1 74
1 75
1 76
1 77
1 78
1 79
1 80
1 81
1 82
1 83
1 84
1 85
1 86
1 87
1 88
1 89
1 90
1 91
1 92
1 93
1 94
1 95
1 96
1 97
1 98
1 99
1 100
1 101
1 102
1 103
1 104
1 105
1 106
1 107
1 108
1 109
1 110
1 111
1 112
1 113
1 114
1 115
1 116
1 117
1 118
1 119
1 120
1 121
1 122
1 123
1 124
1 125
1 126
1 127
1 128
1 129
1 130
1 131
1 132
1 133
1 134
1 135
1 136
1 137
1 138
1 139
1 140
1 141
1 142
1 143
1 144
1 145
1 146
1 147
1 148
1 149
1 150
1 151
1 152
1 153
1 154
1 155
1 156
1 157
1 158
1 159
1 160
1 161
1 162
1 163
1 164
1 165
1 166
1 167
1 168
1 169
1 170
1 171
1 172
1 173
1 174
1 175
1 176
1 177
1 178
1 179
1 180
1 181
1 182
1 183
1 184
1 185
1 186
1 187
1 188
1 189
1 190
1 191
1 192
1 193
1 194
1 195
1 196
1 197
1 198
1 199
1 200
1 201
1 202
1 203
1 204
1 205
1 206
1 207
1 208
1 209
1 210
1 211
1 212
1 213
1 214
1 215
1 216
1 217
1 218
1 219
1 220
1 221
1 222
1 223
1 224
1 225
1 226
1 227
1 228
1 229
1 230
1 231
1 232
1 233
1 234
1 235
1 236
1 237
1 238
1 239
1 240
1 241
1 242
1 243
1 244
1 245
1 246
1 247
1 248
1 249
1 250
1 251
1 252
1 253
1 254
1 255
1 256
1 257
1 258
1 259
1 260
1 261
1 262
1 263
1 264
1 265
1 266
1 267
1 268
1 269
1 270
1 271
1 272
1 273
1 274

POINT_DATA 275
SCALARS id int 1
LOOKUP_TABLE default
1
2
4
5
6
7
8
9
10
11
12
13
14
16
17
19
21
22
23
24
25
26
27
28
29
30
31
32
33
34
35
36
37
38
39
41
42
44
45
47
48
49
50
51
52
53
54
55
56
57
59
60
61
62
63
64
65
66
67
68
69
70
71
72
73
74
76
77
78
79
80
82
83
84
85
86
87
88
89
90
91
92
93
94
95
96
97
98
99
100
101
102
103
104
105
106
107
108
109
110
111
112
113
114
115
116
117
118
119
120
121
122
123
124
125
127
128
129
130
131
132
133
134
135
136
137
138
140
141
142
143
144
146
147
148
149
150
151
153
154
155
156
157
158
159
160
162
164
165
166
167
168
169
170
171
172
173
174
176
177
178
179
182
183
184
185
186
187
188
189
190
191
192
193
194
195
196
197
198
199
200
201
202
203
204
205
206
207
208
209
210
211
212
213
214
215
216
217
218
219
220
222
224
225
226
227
228
229
230
232
233
234
235
236
237
239
240
241
242
243
244
246
247
248
249
250
251
252
253
254
255
256
257
258
259
260
261
262
263
264
265
266
267
268
269
270
271
272
273
274
275
276
277
278
279
280
281
283
284
285
286
287
288
289
290
291
292
293
294
295
296
297
298
299
300

SCALARS type int 1
LOOKUP_TABLE default
1
1
1
1
1
1
1
1
1
1
1
1
1
1
1
1
1
1
1
1
1
1
1
1
1
1
1
1
1
1
1
1
1
1
1
1
1
1
1
1
1
1
1
1
1
1
1
1
1
1
1
1
1
1
1
1
1
1
1
1
1
1
1
1
1
1
1
1
1
1
1
1
1
1
1
1
1
1
1
1
1
1
1
1
1
1
1
1
1
1
1
1
1
1
1
1
1
1
1
1
1
1
1
1
1
1
1
1
1
1
1
1
1
1
1
1
1
1
1
1
1
1
1
1
1
1
1
1
1
1
1
1
1
1
1
1
1
1
1
1
1
1
1
1
1
1
1
1
1
1
1
1
1
1
1
1
1
1
1
1
1
1
1
1
1
1
1
1
1
1
1
1
1
1
1
1
1
1
1
1
1
1
1
1
1
1
1
1
1
1
1
1
1
1
1
1
1
1
1
1
1
1
1
1
1
1
1
1
1
1
1
1
1
1
1
1
1
1
1
1
1
1
1
1
1
1
1
1
1
1
1
1
1
1
1
1
1
1
1
1
1
1
1
1
1
1
1
1
1
1
1
1
1
1
1
1
1
1
1
1
1
1
1
1
1
1
1
1
1
1
1
1
1
1
1

SCALARS radius float 1
LOOKUP_TABLE default
5e-05
5e-05
5e-05
5e-05
5e-05
5e-05
5e-05
5e-05
5e-05
5e-05
5e-05
5e-05
5e-05
5e-05
5e-05
5e-05
5e-05
5e-05
5e-05
5e-05
5e-05
5e-05
5e-05
5e-05
5e-05
5e-05
5e-05
5e-05
5e-05
5e-05
5e-05
5e-05
5e-05
5e-05
5e-05
5e-05
5e-05
5e-05
5e-05
5e-05
5e-05
5e-05
5e-05
5e-05
5e-05
5e-05
5e-05
5e-05
5e-05
5e-05
5e-05
5e-05
5e-05
5e-05
5e-05
5e-05
5e-05
5e-05
5e-05
5e-05
5e-05
5e-05
5e-05
5e-05
5e-05
5e-05
5e-05
5e-05
5e-05
5e-05
5e-05
5e-05
5e-05
5e-05
5e-05
5e-05
5e-05
5e-05
5e-05
5e-05
5e-05
5e-05
5e-05
5e-05
5e-05
5e-05
5e-05
5e-05
5e-05
5e-05
5e-05
5e-05
5e-05
5e-05
5e-05
5e-05
5e-05
5e-05
5e-05
5e-05
5e-05
5e-05
5e-05
5e-05
5e-05
5e-05
5e-05
5e-05
5e-05
5e-05
5e-05
5e-05
5e-05
5e-05
5e-05
5e-05
5e-05
5e-05
5e-05
5e-05
5e-05
5e-05
5e-05
5e-05
5e-05
5e-05
5e-05
5e-05
5e-05
5e-05
5e-05
5e-05
5e-05
5e-05
5e-05
5e-05
5e-05
5e-05
5e-05
5e-05
5e-05
5e-05
5e-05
5e-05
5e-05
5e-05
5e-05
5e-05
5e-05
5e-05
5e-05
5e-05
5e-05
5e-05
5e-05
5e-05
5e-05
5e-05
5e-05
5e-05
5e-05
5e-05
5e-05
5e-05
5e-05
5e-05
5e-05
5e-05
5e-05
5e-05
5e-05
5e-05
5e-05
5e-05
5e-05
5e-05
5e-05
5e-05
5e-05
5e-05
5e-05
5e-05
5e-05
5e-05
5e-05
5e-05
5e-05
5e-05
5e-05
5e-05
5e-05
5e-05
5e-05
5e-05
5e-05
5e-05
5e-05
5e-05
5e-05
5e-05
5e-05
5e-05
5e-05
5e-05
5e-05
5e-05
5e-05
5e-05
5e-05
5e-05
5e-05
5e-05
5e-05
5e-05
5e-05
5e-05
5e-05
5e-05
5e-05
5e-05
5e-05
5e-05
5e-05
5e-05
5e-05
5e-05
5e-05
5e-05
5e-05
5e-05
5e-05
5e-05
5e-05
5e-05
5e-05
5e-05
5e-05
5e-05
5e-05
5e-05
5e-05
5e-05
5e-05
5e-05
5e-05
5e-05
5e-05
5e-05
5e-05
5e-05
5e-05
5e-05
5e-05
5e-05
5e-05
5e-05
5e-05
5e-05
5e-05
5e-05
5e-05
5e-05
5e-05
5e-05
5e-05
5e-05
5e-05
5e-05
5e-05
5e-05
5e-05
5e-05
5e-05
5e-05
5e-05

SCALARS mass float 1
LOOKUP_TABLE default
1.46608e-10
1.46608e-10
1.46608e-10
1.46608e-10
1.46608e-10
1.46608e-10
1.46608e-10
1.46608e-10
1.46608e-10
1.46608e-10
1.46608e-10
1.46608e-10
1.46608e-10
1.46608e-10
1.46608e-10
1.46608e-10
1.46608e-10
1.46608e-10
1.46608e-10
1.46608e-10
1.46608e-10
1.46608e-10
1.46608e-10
1.46608e-10
1.46608e-10
1.46608e-10
1.46608e-10
1.46608e-10
1.46608e-10
1.46608e-10
1.46608e-10
1.46608e-10
1.46608e-10
1.46608e-10
1.46608e-10
1.46608e-10
1.46608e-10
1.46608e-10
1.46608e-10
1.46608e-10
1.46608e-10
1.46608e-10
1.46608e-10
1.46608e-10
1.46608e-10
1.46608e-10
1.46608e-10
1.46608e-10
1.46608e-10
1.46608e-10
1.46608e-10
1.46608e-10
1.46608e-10
1.46608e-10
1.46608e-10
1.46608e-10
1.46608e-10
1.46608e-10
1.46608e-10
1.46608e-10
1.46608e-10
1.46608e-10
1.46608e-10
1.46608e-10
1.46608e-10
1.46608e-10
1.46608e-10
1.46608e-10
1.46608e-10
1.46608e-10
1.46608e-10
1.46608e-10
1.46608e-10
1.46608e-10
1.46608e-10
1.46608e-10
1.46608e-10
1.46608e-10
1.46608e-10
1.46608e-10
1.46608e-10
1.46608e-10
1.46608e-10
1.46608e-10
1.46608e-10
1.46608e-10
1.46608e-10
1.46608e-10
1.46608e-10
1.46608e-10
1.46608e-10
1.46608e-10
1.46608e-10
1.46608e-10
1.46608e-10
1.46608e-10
1.46608e-10
1.46608e-10
1.46608e-10
1.46608e-10
1.46608e-10
1.46608e-10
1.46608e-10
1.46608e-10
1.46608e-10
1.46608e-10
1.46608e-10
1.46608e-10
1.46608e-10
1.46608e-10
1.46608e-10
1.46608e-10
1.46608e-10
1.46608e-10
1.46608e-10
1.46608e-10
1.46608e-10
1.46608e-10
1.46608e-10
1.46608e-10
1.46608e-10
1.46608e-10
1.46608e-10
1.46608e-10
1.46608e-10
1.46608e-10
1.46608e-10
1.46608e-10
1.46608e-10
1.46608e-10
1.46608e-10
1.46608e-10
1.46608e-10
1.46608e-10
1.46608e-10
1.46608e-10
1.46608e-10
1.46608e-10
1.46608e-10
1.46608e-10
1.46608e-10
1.46608e-10
1.46608e-10
1.46608e-10
1.46608e-10
1.46608e-10
1.46608e-10
1.46608e-10
1.46608e-10
1.46608e-10
1.46608e-10
1.46608e-10
1.46608e-10
1.46608e-10
1.46608e-10
1.46608e-10
1.46608e-10
1.46608e-10
1.46608e-10
1.46608e-10
1.46608e-10
1.46608e-10
1.46608e-10
1.46608e-10
1.46608e-10
1.46608e-10
1.46608e-10
1.46608e-10
1.46608e-10
1.46608e-10
1.46608e-10
1.46608e-10
1.46608e-10
1.46608e-10
1.46608e-10
1.46608e-10
1.46608e-10
1.46608e-10
1.46608e-10
1.46608e-10
1.46608e-10
1.46608e-10
1.46608e-10
1.46608e-10
1.46608e-10
1.46608e-10
1.46608e-10
1.46608e-10
1.46608e-10
1.46608e-10
1.46608e-10
1.46608e-10
1.46608e-10
1.46608e-10
1.46608e-10
1.46608e-10
1.46608e-10
1.46608e-10
1.46608e-10
1.46608e-10
1.46608e-10
1.46608e-10
1.46608e-10
1.46608e-10
1.46608e-10
1.46608e-10
1.46608e-10
1.46608e-10
1.46608e-10
1.46608e-10
1.46608e-10
1.46608e-10
1.46608e-10
1.46608e-10
1.46608e-10
1.46608e-10
1.46608e-10
1.46608e-10
1.46608e-10
1.46608e-10
1.46608e-10
1.46608e-10
1.46608e-10
1.46608e-10
1.46608e-10
1.46608e-10
1.46608e-10
1.46608e-10
1.46608e-10
1.46608e-10
1.46608e-10
1.46608e-10
1.46608e-10
1.46608e-10
1.46608e-10
1.46608e-10
1.46608e-10
1.46608e-10
1.46608e-10
1.46608e-10
1.46608e-10
1.46608e-10
1.46608e-10
1.46608e-10
1.46608e-10
1.46608e-10
1.46608e-10
1.46608e-10
1.46608e-10
1.46608e-10
1.46608e-10
1.46608e-10
1.46608e-10
1.46608e-10
1.46608e-10
1.46608e-10
1.46608e-10
1.46608e-10
1.46608e-10
1.46608e-10
1.46608e-10
1.46608e-10
1.46608e-10
1.46608e-10
1.46608e-10
1.46608e-10
1.46608e-10
1.46608e-10
1.46608e-10
1.46608e-10
1.46608e-10
1.46608e-10
1.46608e-10
1.46608e-10
1.46608e-10

VECTORS velocity float
0.00608953 -0.000653485 0.000136732
0.00522626 -0.000576929 -0.000183295
0.00521829 -0.000579595 -0.00018148
0.00600331 -0.000416461 0.000394496
0.00603295 0.000468492 -0.000599339
0.00555166 -0.000561127 0.000116965
0.00561844 -0.000399832 0.000286975
0.00575559 0.000614327 3.08531e-05
0.0061586 -0.000431293 0.000409567
0.00551966 -0.000558643 0.00011653
0.00602636 0.00167748 -0.00120569
0.00597379 -0.000413198 0.000392495
0.00562195 0.000485376 -0.00055193
0.00501441 -0.000186931 0.000149723
0.00614209 -0.00042979 0.000410043
0.00596737 -0.000416145 0.000398477
0.00551071 -0.000559248 0.000116797
0.00558388 -0.000368143 0.00026674
0.00576918 0.000529964 -8.35401e-05
0.0056281 0.000548318 -0.000631959
0.00586851 -0.000424513 0.000307102
0.00574204 0.000613088 -0.00052093
0.00640264 0.000316851 -0.00055879
0.00517792 -0.000614439 -0.000166317
0.00593712 -0.000417853 0.000400755
0.0056236 -0.000410842 0.000297207
0.00554427 -0.000582914 0.000122117
0.00560535 -0.000416479 0.000300034
0.0060309 0.000463469 -0.000595649
0.00612432 -0.000432465 0.000412535
0.00552429 -0.000582622 0.000122866
0.00571355 0.0006236 3.10239e-05
0.00522598 -0.000556588 -0.000190538
0.00546557 -0.000641268 -0.000180675
0.00565928 0.000589789 -0.000573696
0.00606409 -0.000421669 0.000404366
0.00536972 -0.000620151 -0.000177613
0.00550537 -0.000580044 0.000121048
0.00581067 0.000502808 -0.000622159
0.00607795 -0.0004219 0.000402749
0.00553378 -0.000556547 0.000118533
0.00575121 0.000615403 3.08782e-05
0.00535854 -0.000374087 0.00026419
0.00554172 -0.000530781 0.000111893
0.00582546 0.0036052 -0.00214329
0.00567086 0.000528512 -0.000639531
0.00551914 -0.000557144 0.000117338
0.00561922 0.000435407 -0.000567657
0.00550999 -0.000561202 0.000118564
0.00569847 0.000521804 -0.000635139
-5.01976e-15 -7.41204e-15 7.69802e-14
0.00550972 -0.000591331 0.000124275
0.00605265 -0.000420901 0.000399628
0.00551181 -0.000584555 0.000124316
0.00553777 -0.000551825 0.000118807
0.00564135 0.000533176 -0.000643979
0.00565681 0.00043124 -0.000566732
0.00569771 0.000581387 -7.24813e-05
0.00551755 -0.000559724 0.000118006
0.00548203 -0.000557363 0.000108821
0.00550849 -0.000550645 0.000116309
0.00580004 0.000604979 -0.00051389
0.00474815 0.000155057 3.01372e-05
0.00555563 -0.000496242 0.000107374
0.00614097 -0.000487295 0.000353834
0.00556784 -0.000407245 0.000287534
0.00559266 0.00044865 -0.000572841
0.00540171 -0.000622909 -0.000176998
0.00627902 0.000509403 -6.35879e-05
0.00604219 5.72181e-05 7.61403e-05
0.00534639 -0.000673904 -0.00016022
0.00576209 0.000643135 -0.000128492
0.0060136 0.00264973 -0.00168408
0.0057392 0.000618005 3.09652e-05
0.0060772 0.00017245 5.46765e-05
0.00538659 -0.000624904 -0.000178213
0.00520295 -0.000599618 -0.000173789
0.00554838 -0.000553917 0.000117118
0.00555762 -0.000544 0.000114679
0.00552179 -0.000548434 0.000115062
0.00609128 0.0017787 -0.00125975
0.00555635 -0.000543637 0.00011492
0.00568188 -0.000420981 0.000302701
0.00553375 -0.000539847 0.000118031
0.00553219 -0.0005442 0.000124163
0.00555307 -0.000555476 0.000114936
0.00632847 0.000284974 -0.000540796
0.00572165 -0.000429099 0.000306022
0.00572943 0.000555565 -8.88123e-05
0.00551759 -0.000557537 0.000116041
0.00573027 0.000550099 -0.00010583
4.36252e-15 1.04944e-14 8.29555e-14
2.29399e-22 -1.27651e-22 1.23839e-22
0.00467488 2.62112e-05 7.38848e-05
0.00637719 0.000352963 -0.00038217
0.00564256 0.000405225 -0.000553081
0.00634079 0.000513059 -6.67289e-05
0.00550854 -0.000545981 0.000114867
0.00552375 -0.00058072 0.000122186
0.00523266 -0.000576234 -0.000182694
0.00559141 -0.000639981 -0.000168614
0.00626052 0.000315615 -0.000548744
0.00558622 0.000435815 -0.000563968
0.00565339 0.000340273 -0.000578662
0.00541377 -0.000677283 -0.000163321
0.00552548 -0.000555909 0.000115197
0.00553382 -0.000567855 0.000118945
0.00565589 0.00041941 -0.000562882
0.005521 -0.00054012 0.000113868
0.00561351 -0.00037178 0.00027409
0.00617105 -0.000621361 0.000130608
0.00554142 -0.000566998 0.000124226
0.006354 -8.42574e-05 0.000141252
0.00559195 -0.000406911 0.000294852
0.00553986 -0.000567202 0.000118721
0.00635676 0.000252986 -0.000576374
0.00568784 -0.000422184 0.000302547
0.0055529 -0.000550117 0.000120008
0.00570217 0.000303002 -0.000652237
0.00573543 0.00054299 -8.98355e-05
0.00536086 -0.000643809 -0.000170472
0.00552546 -0.000558042 0.000114752
0.00552194 -0.000555177 0.00011838
0.00550977 -0.000554868 0.000117463
0.00561804 0.000440233 -0.000570866
0.0055698 -0.000565355 0.00011163
0.00554816 -0.000539171 0.000114808
0.00549163 -0.000618337 -7.16781e-05
0.00600239 0.000479337 -0.000613867
0.00574882 0.000566904 -9.91234e-05
0.00638384 0.000527136 -7.2549e-05
0.00568107 0.000323166 -0.000517532
0.00620719 0.000332779 -0.000554464
0.00566126 0.000331205 -0.000523774
0.00581818 0.00021427 -0.000471611
0.00554996 -0.000479966 0.000166324
0.00624818 -5.78838e-05 -0.00015307
0.00525022 -0.0003397 -0.000141848
0.00611232 0.000154242 -0.000460431
0.00623664 0.000325695 -0.000552515
0.00617553 0.000335331 -0.00055356
0.00606196 0.000408393 -0.000582553
-3.82204e-14 8.17029e-14 2.95892e-13
0.00637467 0.000295591 -0.000546729
0.00542233 -0.000675614 -0.000162935
0.00569568 0.000570308 -0.000151395
0.0054874 0.000728504 -4.73229e-05
0.00608598 0.000344508 -0.000553816
0.00603622 3.75575e-05 4.56683e-05
0.00553889 -0.000549251 0.000116065
0.00617407 -0.000433277 -0.000226498
0.00617046 -0.000167016 -0.000175645
0.00625474 -6.73613e-05 -0.000157366
0.00623144 -0.000173527 -0.00017688
0.00609205 -0.000618075 0.000129803
0.00557007 0.000452609 -0.000572299
0.00554702 -0.000535221 9.8284e-05
0.00603538 0.000351333 -0.000553689
0.00564292 0.000440076 -0.000571769
0.00617001 0.000358066 -0.000564767
0.00563675 0.000407027 -0.000566576
0.00571814 0.000606618 -0.000131658
0.00614349 -0.000610683 0.000128958
0.00563136 0.000377947 -0.000537543
0.0055285 -0.000571092 0.000120429
0.00567953 0.000323233 -0.000525905
0.00644702 0.000141213 6.31342e-05
0.00553679 -0.000535395 0.000108978
0.00552458 -0.000574155 0.000124212
0.00614957 -0.000685575 0.000141627
0.00611188 5.23911e-05 0.000111936
0.00561163 -0.000586165 -4.82142e-05
0.00561319 0.000412463 -0.000556616
0.00606605 -0.000636345 0.000133535
0.00513381 3.42273e-05 0.000372324
0.00510501 -0.000381799 0.000177406
0.00487268 -0.000356294 0.000235951
0.00573017 0.000465504 5.01911e-05
0.00579821 0.0035637 -0.00212108
0.00566256 0.000390958 -0.000573147
0.0062963 0.000300606 -0.000542476
0.00626803 -0.000330146 0.000227861
0.00638244 0.00144078 -0.00111149
0.00551518 -0.000569396 0.000120292
0.00482249 -0.00014086 0.000134649
0.00599878 0.000399834 -0.000574443
0.00643193 0.000324087 -0.000564339
0.00608681 0.000359715 -0.000560566
0.00578753 0.00381744 -0.00224595
0.00564161 0.000424449 -0.000563404
0.00567235 -0.000562144 -0.000216897
0.00560022 -0.000444749 -0.000258859
0.00630434 -0.000205928 0.000199124
0.00610428 -0.000681631 0.000139946
0.00546508 -0.000646638 -0.000142576
0.00570403 0.000106897 -0.000245183
0.00610473 0.000357477 -0.000559926
0.00607778 -0.00063705 0.000133573
0.00570215 0.000441525 -0.000357068
0.00552868 -0.000408625 0.000289276
0.0057481 0.000566101 -0.00011291
0.00552649 -0.00057696 0.00012114
0.00615924 0.001038 -0.000899054
0.00544599 -0.000620629 -0.000186523
0.0056106 0.00059759 -0.000151085
0.00570462 0.000108616 -0.000234179
0.0056913 0.000135757 -0.000242377
0.006029 1.96736e-05 0.000100497
0.00643108 0.000321571 -0.00056311
0.00575422 0.000594962 -0.000106088
0.00619103 -0.000449183 -0.000240208
0.00550184 -0.000577005 8.08305e-05
0.0061905 0.00035491 -0.000564372
0.00561694 0.000470588 -0.000585535
0.00567433 0.000439959 -0.000574109
0.00589522 0.000332734 0.000176765
0.00589605 0.000405283 0.000115721
0.00589269 0.000303362 0.00020238
0.00608145 0.000353416 -0.000556619
0.0057789 0.000583329 -0.000112877
0.00590077 0.000363963 0.000150454
0.00562895 0.000449306 5.70397e-05
0.0059987 0.000366008 -0.000559111
0.00561907 0.000384395 -0.000561091
0.00560518 0.00047788 2.41972e-05
0.00602632 0.000382581 -0.000568031
0.00552873 -0.000575767 0.000120333
0.00564649 0.000433302 7.27214e-05
0.00584736 9.70518e-05 0.0001081
0.00550872 0.000491207 1.43218e-05
0.00622458 0.000504327 -6.43929e-05
0.00515213 0.000107583 5.62694e-05
0.00644633 0.000332282 -0.000569217
0.00569589 0.000447192 -0.000557794
0.00552313 0.000417541 6.10568e-05
0.00623923 -0.000422039 0.000113658
0.00562405 0.000450177 -0.000575764
0.00556506 0.000457797 -0.000560854
0.00566184 0.00047941 2.9606e-05
0.00614408 0.000335895 -0.00055196
0.00610718 4.80067e-05 0.000113285
0.00571969 0.000595499 -0.000119705
0.00592971 0.000406719 -0.000573396
0.00564794 0.000418308 -0.000562278
0.00573174 0.000526539 -8.10132e-05
0.00537329 -0.0006586 8.92213e-05
0.00577897 0.000633328 -0.000109155
0.0056909 0.000120094 -0.000237744
0.00627535 0.000348692 -0.0005666
0.00561221 0.000177976 -0.000154298
0.00605958 0.000350351 -0.000555216
0.00606999 0.000364817 -0.000562146
0.0059669 0.000380963 -0.000563548
0.00566132 0.000422959 -0.00056101
0.00571665 0.000103634 -0.000234632
0.00567591 0.000122784 -6.82804e-05
0.00569684 0.000620877 -0.000113542
0.00590061 0.000384883 0.000131961
0.00555957 0.000501097 -0.000596822
0.0055866 0.000467267 -0.000581719
0.00611417 0.000337352 -0.000551077
0.00639986 0.00031577 -0.000558083
0.00495944 -0.000357855 0.000187744
0.00613674 0.000356983 -0.000561904
0.00560943 0.000437859 -0.000568814
0.00570562 0.000362595 -0.000515497
0.00623172 9.16771e-05 0.000143323
0.00561878 0.000457197 -0.000578818
0.00558766 0.000486989 -0.000591757
0.00564452 0.000134861 0.000102353
0.00595841 0.000395127 -0.000569471
0.00552447 -0.000558466 0.000120141
0.0059158 0.000427182 0.00010214
0.00553321 0.000475807 2.50186e-05
0.00555553 -0.000537683 0.000115286

VECTORS force float
2.27826e-10 -4.57593e-11 1.67872e-11
-9.04111e-11 -1.39114e-10 -2.73383e-11
-2.47908e-10 -8.99914e-11 4.98983e-11
1.99774e-11 -1.06459e-10 5.73112e-11
-2.62328e-11 -3.29046e-11 3.08766e-11
-8.28052e-11 1.00509e-10 -2.56845e-12
1.93993e-10 6.28871e-11 6.83535e-11
1.78294e-14 -1.71478e-11 -1.74274e-12
-1.09524e-10 -1.37353e-10 1.31596e-10
-1.67959e-10 1.09665e-10 -3.49638e-11
-3.87753e-10 2.68178e-10 -1.08444e-10
2.23476e-11 1.59484e-11 -4.69788e-11
-5.75547e-11 3.89296e-11 1.05765e-12
-5.77409e-10 3.13648e-10 -2.26447e-10
1.95784e-10 -9.49103e-11 1.69231e-10
8.60143e-11 1.49011e-10 -1.71856e-10
-6.57054e-11 3.12211e-12 -1.02675e-11
-1.63396e-10 3.35959e-11 -1.1066e-11
3.82637e-10 -4.78621e-10 1.48857e-10
-4.51491e-11 5.03183e-11 -1.23654e-12
2.42456e-10 -7.06531e-11 -2.61866e-11
7.85844e-12 -3.66973e-12 -3.87023e-12
-1.15146e-10 2.38354e-10 -1.15279e-10
-1.19576e-10 -7.43697e-11 1.5816e-11
-1.13611e-10 8.68142e-11 -9.31784e-11
-5.02729e-11 -3.17495e-13 4.09504e-11
3.00275e-11 2.2399e-10 -4.37691e-11
1.07734e-10 -1.31372e-12 1.75277e-11
4.62337e-11 -3.36348e-11 2.78698e-11
-1.85151e-10 -1.93082e-12 8.1052e-11
1.27673e-13 7.08426e-11 -3.21097e-11
-1.51777e-12 1.4617e-11 1.22356e-12
-7.33876e-11 -2.37213e-10 8.64506e-11
1.52444e-10 -3.94552e-11 6.79243e-11
9.8826e-12 3.37701e-11 9.10465e-12
2.90822e-10 8.44742e-11 -2.84296e-11
1.03559e-10 -3.5968e-10 1.27039e-10
-1.71436e-11 -9.63897e-11 1.08898e-11
-1.77428e-13 1.3536e-11 -9.6375e-12
2.52254e-11 -4.41489e-11 -1.70314e-11
7.45303e-11 -6.46006e-13 1.74459e-11
8.08879e-12 -1.29563e-11 -2.58282e-12
-5.51709e-11 2.52521e-12 9.29632e-11
-1.28525e-10 3.35555e-10 -5.53971e-11
-9.88644e-11 1.70271e-11 6.39564e-12
-1.97451e-11 3.9161e-11 -4.62818e-11
2.45796e-12 3.28521e-10 -6.64185e-11
-5.17779e-12 -1.69654e-10 8.18094e-11
7.89538e-11 2.0748e-10 -3.35958e-11
2.66755e-11 3.66791e-11 -3.36062e-11
3.67061e-24 -3.74816e-24 0.0
-7.47833e-11 -3.66863e-11 3.11661e-12
2.07762e-10 -5.54429e-11 8.20754e-11
5.40404e-11 1.28595e-11 -2.77564e-12
-3.8671e-11 -1.13843e-10 3.64815e-11
-1.5518e-10 6.21968e-11 -5.77206e-11
-2.91538e-11 -2.6018e-11 -2.36154e-11
-6.57294e-11 -5.70778e-11 8.30205e-11
-3.41281e-11 7.779e-11 -7.37224e-13
2.00751e-10 1.42912e-10 1.73456e-10
-3.76637e-12 6.33019e-11 -2.4827e-11
-9.04783e-12 -1.22672e-11 9.85078e-12
-4.45499e-10 1.29084e-10 -5.79116e-11
6.30204e-10 -4.58562e-10 -2.73431e-11
-4.23695e-11 -8.26076e-11 -2.61599e-11
-5.60043e-11 -8.03538e-12 9.78007e-11
-3.42128e-10 1.6834e-10 -5.92977e-11
-6.96963e-11 -9.24039e-11 1.3365e-10
-7.63623e-13 1.4904e-10 -1.92128e-10
2.14211e-10 1.9204e-10 -9.42575e-11
9.36047e-11 -1.79802e-10 7.90691e-11
8.86949e-10 1.51756e-10 -1.74848e-10
-1.52228e-11 -8.7958e-11 4.43954e-11
7.06999e-12 1.02961e-12 -3.51486e-13
1.0227e-09 -7.07599e-10 3.0858e-10
1.12399e-10 -8.08906e-11 4.08715e-11
-5.11552e-11 -1.186e-10 5.71695e-11
8.89079e-13 6.57774e-11 1.59522e-11
-1.04679e-10 2.20901e-11 5.34565e-11
-1.5507e-12 -1.25435e-10 6.46845e-12
-4.00198e-10 1.94605e-10 -7.1915e-11
-1.7289e-11 2.61414e-12 -1.03876e-11
1.83581e-10 -8.24834e-11 3.08387e-11
-7.98549e-13 5.94682e-11 1.38872e-11
1.59855e-10 -3.11724e-11 4.97389e-11
-1.69455e-11 -7.65283e-11 4.46325e-12
4.95007e-11 1.66775e-10 -1.08189e-10
4.89407e-11 7.97571e-12 4.53766e-12
3.99609e-10 2.11226e-10 -9.15069e-11
-1.52024e-10 4.77086e-11 -3.02106e-12
5.61059e-11 1.39578e-10 2.71224e-10
-3.07939e-21 9.33137e-22 4.48745e-23
0.0 0.0 0.0
-5.45084e-10 -1.39729e-10 3.58458e-11
7.95173e-11 1.05183e-10 -2.75016e-10
1.80049e-10 1.09933e-10 -3.23336e-11
-1.78863e-10 1.27213e-10 -2.9517e-10
-1.27285e-10 1.58003e-10 -2.8362e-11
-8.06994e-11 2.05198e-11 -1.30589e-12