# vtk DataFile Version 3.0
LIGGGHTS particles timestep 10200000
ASCII
DATASET POLYDATA
POINTS 287 float
0.0722522 0.0161593 0.00807966
0.0727961 0.0171419 0.00726342
0.0661494 0.0161463 0.0080707
0.0725791 0.0174245 0.00722686
0.0721129 0.0160309 0.00818649
0.0782965 0.016645 0.00761613
0.0723077 0.0167069 0.00762525
0.0720048 0.0156553 0.00849831
0.0785527 0.0177597 0.00702104
0.0722432 0.0164816 0.0078125
0.0727307 0.0172941 0.00722364
0.066345 0.0168659 0.00756684
0.0720913 0.0159558 0.00824885
0.0660625 0.0158264 0.00829454
0.0724655 0.016911 0.00745561
0.0660407 0.0157464 0.0083505
0.0722211 0.0164065 0.00787469
0.0784398 0.0172388 0.00727435
0.0720697 0.0158807 0.00831121
0.0722305 0.0160842 0.00814202
0.0723498 0.0168575 0.00750057
0.0664808 0.0170504 0.00743331
0.0784959 0.017493 0.00712528
0.0722861 0.0166318 0.00768762
0.07838 0.0169841 0.007421
0.0664707 0.0173523 0.00732593
0.0725592 0.0173265 0.0072242
0.072048 0.0158055 0.00837357
0.0725208 0.0171405 0.00726514
0.0723294 0.016782 0.0075629
0.0724458 0.0168356 0.00751824
0.0783182 0.0167296 0.00756744
0.0721996 0.0163313 0.00793706
0.0724254 0.0167603 0.00758076
0.0785918 0.0179557 0.0070154
0.0723821 0.01661 0.0077055
0.0725636 0.0169396 0.00743168
0.0785146 0.0175774 0.00707486
0.0721562 0.0161811 0.00806177
0.0723694 0.0169328 0.00743774
0.0725766 0.0170159 0.00736837
0.0783399 0.0168142 0.00751874
0.0784195 0.017154 0.00732319
0.0721779 0.0162562 0.00799941
0.0724088 0.0171049 0.00735688
0.0783998 0.017069 0.0073721
0.0724593 0.0173278 0.00722405
0.0724399 0.0172297 0.0072219
0.0663232 0.0167861 0.00762301
0.0784589 0.0173239 0.00722538
0.0722089 0.0160091 0.00820438
0.0661059 0.0159863 0.00818262
0.0724037 0.0166851 0.00764313
0.0783603 0.0168991 0.00746991
0.072483 0.0166382 0.00768192
0.0725047 0.0167133 0.00761956
0.0721346 0.016106 0.00812413
0.0726024 0.0170902 0.00730665
0.072474 0.0172138 0.00731453
0.0784777 0.0174087 0.00717576
0.0665508 0.0176337 0.00714006
0.0665607 0.0172939 0.00736063
0.0727098 0.0171949 0.00722095
0.0726359 0.0172623 0.00722262
0.0723171 0.0163847 0.00789257
0.0785327 0.0176618 0.00702436
0.0660842 0.0159064 0.00823858
0.0726155 0.0171666 0.00724347
0.0722644 0.0165567 0.00774998
0.0724842 0.0169866 0.00739288
0.066614 0.017627 0.00706285
0.0727004 0.018013 0.00724284
0.0661711 0.0162263 0.00801473
0.0664261 0.0171074 0.00749458
0.0725187 0.0176217 0.00723203
0.0663836 0.0170343 0.00755308
0.0664054 0.0171055 0.00739678
0.066517 0.0168355 0.00758307
0.0785724 0.0178577 0.00701821
0.0662884 0.0163301 0.00794021
0.0725399 0.0172284 0.00722154
0.0724614 0.0165631 0.00774429
0.0725787 0.0179155 0.00724002
0.0725385 0.0177197 0.00723469
0.0727726 0.0170671 0.00732551
0.0663667 0.0169455 0.00751031
0.0726756 0.0174582 0.00722794
0.0726583 0.017817 0.00723752
0.0727346 0.0177523 0.00723592
0.0724989 0.0175237 0.00722937
0.0726953 0.0175562 0.0072306
0.0662798 0.0166261 0.00773493
0.0726004 0.0180131 0.00724266
0.0665666 0.0173773 0.00730567
0.0726578 0.0169653 0.00741023
0.0663866 0.0169479 0.00760828
0.0643568 0.0187248 0.00531097
0.24257 0.0191927 0.00520306
0.0666333 0.0173157 0.00724277
0.0662363 0.0164662 0.00784685
0.0667106 0.0172628 0.00727773
0.0661928 0.0163062 0.00795877
0.0723604 0.0165349 0.00776786
0.0724197 0.0171415 0.00726448
0.0727901 0.0175881 0.00723163
0.0726431 0.0182084 0.00724797
0.0663015 0.0167061 0.00767898
0.066976 0.0176616 0.00707658
0.0666966 0.017483 0.0072255
0.0724959 0.017066 0.00732701
0.0723392 0.0164597 0.00783028
0.0721872 0.015934 0.00826674
0.0661276 0.0160663 0.00812666
0.0725251 0.0167886 0.00755704
0.0720264 0.0157304 0.00843593
0.0719845 0.01558 0.00856085
0.0728096 0.0176862 0.00723429
0.0663319 0.0164901 0.00782828
0.0726187 0.0176205 0.00723218
0.0721656 0.0158589 0.0083291
0.0723883 0.0170088 0.00737558
0.066258 0.0165462 0.00779089
0.0724791 0.0174257 0.00722687
0.0725583 0.0178177 0.00723735
0.0665004 0.0171304 0.00737661
0.0666579 0.0174121 0.00728454
0.0725989 0.0175224 0.00722952
0.0723748 0.0162626 0.00799373
0.0725448 0.0168641 0.00749442
0.072144 0.0157837 0.00839147
0.0662667 0.0162502 0.00799617
0.0726646 0.018306 0.00725063
0.0722955 0.0163096 0.00795494
0.0727549 0.0178501 0.00723858
0.0663102 0.0164101 0.00788425
0.066595 0.0171556 0.00735625
0.0662146 0.0163862 0.00790281
0.0667081 0.0175722 0.00716662
0.0666139 0.0168625 0.00756137
0.066245 0.0161702 0.00805213
0.0664622 0.0173458 0.0072265
0.0727216 0.0181107 0.0072455
0.0664196 0.0168103 0.00760348
0.066808 0.0172909 0.00725523
0.0663754 0.01665 0.00771636
0.0665572 0.0173708 0.00720633
0.0666333 0.0177251 0.00706239
0.0665387 0.0172906 0.00726313
0.0219312 0.0187687 0.00551176
0.0666525 0.0173958 0.00718603
0.0726557 0.0173603 0.00722528
0.066537 0.0176907 0.00705903
0.0665759 0.0174509 0.00714956
0.066786 0.0180517 0.00706393
0.0668615 0.0175318 0.00708468
0.0723315 0.0161124 0.00811845
0.0663975 0.0167303 0.00766017
0.0667298 0.0173429 0.00722099
0.0669204 0.0178258 0.00707221
0.0667638 0.0175043 0.00710679
0.0723531 0.0161875 0.00805609
0.0668417 0.0174519 0.00714136
0.0728091 0.017232 0.00722212
0.0666888 0.0175609 0.00706915
0.0604632 0.0173449 0.00717529
0.0665195 0.0172105 0.00731986
0.0665756 0.0178869 0.00705788
0.0669562 0.0175632 0.00707712
0.066901 0.0177277 0.00707276
0.0665016 0.0175147 0.0071284
0.0722738 0.0162344 0.0080173
0.0667482 0.0174235 0.00716391
0.0726364 0.017413 0.00730802
0.066444 0.0172656 0.00728333
0.0664802 0.0174261 0.00716966
0.0726398 0.0168896 0.00747306
0.0726787 0.0179148 0.00724017
0.0726788 0.0170405 0.00734778
0.0605811 0.0174786 0.00717132
0.072686 0.0184037 0.00725328
0.0666723 0.0171026 0.00739123
0.0724397 0.016488 0.00780665
0.0665367 0.0169155 0.00752638
0.0668814 0.0176295 0.0070733
0.066019 0.0156664 0.00840646
0.0605226 0.0176389 0.00716882
0.0664221 0.0171943 0.00743963
0.0665961 0.017539 0.00710677
0.0663861 0.0170254 0.00745351
0.066884 0.0180879 0.00706729
0.0666915 0.0171827 0.00733448
0.0726956 0.0171181 0.00728338
0.0664614 0.0169704 0.00749002
0.0667473 0.0178555 0.00706503
0.0667086 0.0176593 0.00706613
0.0663536 0.0165701 0.00777232
0.0666705 0.0174761 0.0071292
0.0664413 0.01689 0.00754698
0.0723972 0.0170737 0.00745118
0.0727148 0.0176543 0.00723326
0.0667868 0.0175982 0.00708125
0.0726208 0.016814 0.00753577
0.0726385 0.0177188 0.00723485
0.0605406 0.017286 0.00719822
0.0665563 0.0177888 0.00705843
0.0723964 0.0163377 0.00793136
0.066672 0.0179214 0.0070612
0.0726216 0.0181108 0.00724532
0.0665159 0.0175858 0.00705955
0.0604888 0.0170774 0.00740748
0.0724185 0.0164128 0.00786906
0.0666142 0.0172357 0.00729951
0.0664247 0.0171855 0.00734005
0.0728651 0.017522 0.00722999
0.0668261 0.0173712 0.0071984
0.0606341 0.017312 0.00717402
0.0604831 0.0174429 0.0071731
0.0665762 0.0174739 0.00724688
0.0668254 0.0182478 0.00706286
0.0604446 0.0172593 0.00722352
0.0664953 0.0167559 0.00763956
0.0665758 0.0170755 0.00741297
0.0727959 0.0180426 0.00724381
0.0668664 0.0184435 0.00706186
0.0668459 0.0183456 0.00706236
0.0669409 0.0183769 0.00706567
0.0602684 0.0166389 0.00784355
0.0603329 0.0168468 0.00763711
0.0602468 0.0165677 0.00791033
0.0665561 0.0169955 0.00746967
0.0664656 0.0172685 0.00738094
0.0602899 0.0167089 0.00777536
0.0604146 0.0171373 0.00737747
0.0667666 0.0179536 0.00706448
0.0669398 0.0179242 0.00707166
0.0605422 0.0177369 0.00716695
0.0666527 0.0178232 0.00706175
0.0727703 0.0174901 0.00722896
0.0605805 0.0179332 0.00716723
0.0605232 0.0172165 0.00726796
0.0603939 0.0170543 0.0074292
0.0662233 0.0160902 0.00810809
0.0667279 0.0177574 0.00706558
0.0666338 0.0181812 0.00705624
0.0666914 0.0180195 0.00706065
0.0606007 0.0180312 0.00716785
0.066817 0.0175615 0.00716921
0.0667915 0.0185097 0.00705804
0.0669204 0.018279 0.00706617
0.0603753 0.0169849 0.00749876
0.0666533 0.0182793 0.00705569
0.0605029 0.0175409 0.00717095
0.0667889 0.0172109 0.00731198
0.0667303 0.0182156 0.00705956
0.06648 0.0174373 0.00726903
0.0666143 0.0180831 0.00705678
0.0727505 0.0173921 0.0072263
0.0668064 0.0176955 0.00706948
0.0606426 0.0182267 0.00716914
0.066715 0.018574 0.00705418
0.0606211 0.018129 0.00716847
0.0667109 0.0181175 0.00706011
0.0665949 0.017985 0.00705733
0.0667365 0.0186721 0.00705372
0.0668453 0.0178917 0.00706839
0.0604278 0.0171897 0.00729334
0.0605613 0.0173806 0.00717347
0.0667698 0.0171308 0.00736872
0.0605065 0.0171469 0.00733778
0.0603114 0.0167778 0.00770624
0.0667701 0.0184116 0.00705851
0.06675 0.0183137 0.00705903
0.0666728 0.0183774 0.00705515
0.0668055 0.0181498 0.00706339
0.0666935 0.0184758 0.00705465
0.0666334 0.0169426 0.00750465
0.066653 0.0170226 0.00744796
0.0668645 0.0179898 0.00706783
0.0664721 0.0166749 0.00769704
0.0668258 0.0177936 0.00706893
0.0667579 0.0187698 0.00705326
0.0606367 0.0177693 0.0071697
0.0668127 0.0186074 0.00705757
0.0726012 0.0167386 0.0075984
0.0603544 0.0169158 0.00756798
0.0605615 0.0178351 0.00716666
0.0726746 0.0172284 0.00730837

VERTICES 287 574
1 0
1 1
1 2
1 3
1 4
1 5
1 6
1 7
1 8
1 9
1 10
1 11
1 12
1 13
1 14
1 15
1 16
1 17
1 18
1 19
1 20
1 21
1 22
1 23
1 24
1 25
1 26
1 27
1 28
1 29
1 30
1 31
1 32
1 33
1 34
1 35
1 36
1 37
1 38
1 39
1 40
1 41
1 42
1 43
1 44
1 45
1 46
1 47
1 48
1 49
1 50
1 51
1 52
1 53
1 54
1 55
1 56
1 57
1 58
1 59
1 60
1 61
1 62
1 63
1 64
1 65
1 66
1 67
1 68
1 69
1 70
1 71
1 72
1 73
1 74
1 75
1 76
1 77
1 78
1 79
1 80
1 81
1 82
1 83
1 84
1 85
1 86
1 87
1 88
1 89
1 90
1 91
1 92
1 93
1 94
1 95
1 96
1 97
1 98
1 99
1 100
1 101
1 102
1 103
1 104
1 105
1 106
1 107
1 108
1 109
1 110
1 111
1 112
1 113
1 114
1 115
1 116
1 117
1 118
1 119
1 120
1 121
1 122
1 123
1 124
1 125
1 126
1 127
1 128
1 129
1 130
1 131
1 132
1 133
1 134
1 135
1 136
1 137
1 138
1 139
1 140
1 141
1 142
1 143
1 144
1 145
1 146
1 147
1 148
1 149
1 150
1 151
1 152
1 153
1 154
1 155
1 156
1 157
1 158
1 159
1 160
1 161
1 162
1 163
1 164
1 165
1 166
1 167
1 168
1 169
1 170
1 171
1 172
1 173
1 174
1 175
1 176
1 177
1 178
1 179
1 180
1 181
1 182
1 183
1 184
1 185
1 186
1 187
1 188
1 189
1 190
1 191
1 192
1 193
1 194
1 195
1 196
1 197
1 198
1 199
1 200
1 201
1 202
1 203
1 204
1 205
1 206
1 207
1 208
1 209
1 210
1 211
1 212
1 213
1 214
1 215
1 216
1 217
1 218
1 219
1 220
1 221
1 222
1 223
1 224
1 225
1 226
1 227
1 228
1 229
1 230
1 231
1 232
1 233
1 234
1 235
1 236
1 237
1 238
1 239
1 240
1 241
1 242
1 243
1 244
1 245
1 246
1 247
1 248
1 249
1 250
1 251
1 252
1 253
1 254
1 255
1 256
1 257
1 258
1 259
1 260
1 261
1 262
1 263
1 264
1 265
1 266
1 267
1 268
1 269
1 270
1 271
1 272
1 273
1 274
1 275
1 276
1 277
1 278
1 279
1 280
1 281
1 282
1 283
1 284
1 285
1 286

POINT_DATA 287
SCALARS id int 1
LOOKUP_TABLE default
1
2
3
4
5
6
7
8
9
10
11
12
13
14
15
16
17
18
19
21
22
23
24
25
26
27
28
29
30
31
32
33
34
35
36
37
38
39
41
42
44
45
46
47
48
49
50
51
52
53
54
55
56
57
59
60
61
62
63
64
65
66
67
68
69
70
71
72
73
74
76
77
78
79
80
81
82
83
84
85
86
87
88
89
90
91
92
93
94
95
96
97
98
99
100
101
102
103
104
105
106
107
108
109
110
111
112
113
114
115
116
117
118
119
120
121
122
123
124
125
126
127
128
129
130
131
132
133
134
135
136
137
138
140
141
142
143
144
146
147
148
149
150
151
153
154
155
156
157
158
159
160
162
164
165
166
167
168
169
170
171
172
173
174
175
176
177
178
179
181
182
183
184
185
186
187
188
189
190
191
192
193
194
195
196
197
198
199
200
201
202
203
204
205
206
207
208
209
210
211
212
213
214
215
216
217
218
219
220
221
222
223
224
225
226
227
228
229
230
231
232
233
234
235
236
237
239
240
241
242
243
244
246
247
248
249
250
251
252
253
254
255
256
257
258
259
260
261
262
263
264
265
266
267
268
269
270
271
272
273
274
275
276
277
278
279
280
281
282
283
284
285
286
287
288
289
290
291
292
293
294
295
296
297
298
299
300

SCALARS type int 1
LOOKUP_TABLE default
1
1
1
1
1
1
1
1
1
1
1
1
1
1
1
1
1
1
1
1
1
1
1
1
1
1
1
1
1
1
1
1
1
1
1
1
1
1
1
1
1
1
1
1
1
1
1
1
1
1
1
1
1
1
1
1
1
1
1
1
1
1
1
1
1
1
1
1
1
1
1
1
1
1
1
1
1
1
1
1
1
1
1
1
1
1
1
1
1
1
1
1
1
1
1
1
1
1
1
1
1
1
1
1
1
1
1
1
1
1
1
1
1
1
1
1
1
1
1
1
1
1
1
1
1
1
1
1
1
1
1
1
1
1
1
1
1
1
1
1
1
1
1
1
1
1
1
1
1
1
1
1
1
1
1
1
1
1
1
1
1
1
1
1
1
1
1
1
1
1
1
1
1
1
1
1
1
1
1
1
1
1
1
1
1
1
1
1
1
1
1
1
1
1
1
1
1
1
1
1
1
1
1
1
1
1
1
1
1
1
1
1
1
1
1
1
1
1
1
1
1
1
1
1
1
1
1
1
1
1
1
1
1
1
1
1
1
1
1
1
1
1
1
1
1
1
1
1
1
1
1
1
1
1
1
1
1
1
1
1
1
1
1
1
1
1
1
1
1
1
1
1
1
1
1
1
1
1
1
1
1
1
1
1
1
1
1

SCALARS radius float 1
LOOKUP_TABLE default
5e-05
5e-05
5e-05
5e-05
5e-05
5e-05
5e-05
5e-05
5e-05
5e-05
5e-05
5e-05
5e-05
5e-05
5e-05
5e-05
5e-05
5e-05
5e-05
5e-05
5e-05
5e-05
5e-05
5e-05
5e-05
5e-05
5e-05
5e-05
5e-05
5e-05
5e-05
5e-05
5e-05
5e-05
5e-05
5e-05
5e-05
5e-05
5e-05
5e-05
5e-05
5e-05
5e-05
5e-05
5e-05
5e-05
5e-05
5e-05
5e-05
5e-05
5e-05
5e-05
5e-05
5e-05
5e-05
5e-05
5e-05
5e-05
5e-05
5e-05
5e-05
5e-05
5e-05
5e-05
5e-05
5e-05
5e-05
5e-05
5e-05
5e-05
5e-05
5e-05
5e-05
5e-05
5e-05
5e-05
5e-05
5e-05
5e-05
5e-05
5e-05
5e-05
5e-05
5e-05
5e-05
5e-05
5e-05
5e-05
5e-05
5e-05
5e-05
5e-05
5e-05
5e-05
5e-05
5e-05
5e-05
5e-05
5e-05
5e-05
5e-05
5e-05
5e-05
5e-05
5e-05
5e-05
5e-05
5e-05
5e-05
5e-05
5e-05
5e-05
5e-05
5e-05
5e-05
5e-05
5e-05
5e-05
5e-05
5e-05
5e-05
5e-05
5e-05
5e-05
5e-05
5e-05
5e-05
5e-05
5e-05
5e-05
5e-05
5e-05
5e-05
5e-05
5e-05
5e-05
5e-05
5e-05
5e-05
5e-05
5e-05
5e-05
5e-05
5e-05
5e-05
5e-05
5e-05
5e-05
5e-05
5e-05
5e-05
5e-05
5e-05
5e-05
5e-05
5e-05
5e-05
5e-05
5e-05
5e-05
5e-05
5e-05
5e-05
5e-05
5e-05
5e-05
5e-05
5e-05
5e-05
5e-05
5e-05
5e-05
5e-05
5e-05
5e-05
5e-05
5e-05
5e-05
5e-05
5e-05
5e-05
5e-05
5e-05
5e-05
5e-05
5e-05
5e-05
5e-05
5e-05
5e-05
5e-05
5e-05
5e-05
5e-05
5e-05
5e-05
5e-05
5e-05
5e-05
5e-05
5e-05
5e-05
5e-05
5e-05
5e-05
5e-05
5e-05
5e-05
5e-05
5e-05
5e-05
5e-05
5e-05
5e-05
5e-05
5e-05
5e-05
5e-05
5e-05
5e-05
5e-05
5e-05
5e-05
5e-05
5e-05
5e-05
5e-05
5e-05
5e-05
5e-05
5e-05
5e-05
5e-05
5e-05
5e-05
5e-05
5e-05
5e-05
5e-05
5e-05
5e-05
5e-05
5e-05
5e-05
5e-05
5e-05
5e-05
5e-05
5e-05
5e-05
5e-05
5e-05
5e-05
5e-05
5e-05
5e-05
5e-05
5e-05
5e-05
5e-05
5e-05
5e-05
5e-05
5e-05
5e-05
5e-05
5e-05
5e-05
5e-05
5e-05
5e-05
5e-05
5e-05
5e-05
5e-05
5e-05
5e-05
5e-05
5e-05
5e-05
5e-05
5e-05
5e-05
5e-05
5e-05
5e-05
5e-05

SCALARS mass float 1
LOOKUP_TABLE default
1.46608e-10
1.46608e-10
1.46608e-10
1.46608e-10
1.46608e-10
1.46608e-10
1.46608e-10
1.46608e-10
1.46608e-10
1.46608e-10
1.46608e-10
1.46608e-10
1.46608e-10
1.46608e-10
1.46608e-10
1.46608e-10
1.46608e-10
1.46608e-10
1.46608e-10
1.46608e-10
1.46608e-10
1.46608e-10
1.46608e-10
1.46608e-10
1.46608e-10
1.46608e-10
1.46608e-10
1.46608e-10
1.46608e-10
1.46608e-10
1.46608e-10
1.46608e-10
1.46608e-10
1.46608e-10
1.46608e-10
1.46608e-10
1.46608e-10
1.46608e-10
1.46608e-10
1.46608e-10
1.46608e-10
1.46608e-10
1.46608e-10
1.46608e-10
1.46608e-10
1.46608e-10
1.46608e-10
1.46608e-10
1.46608e-10
1.46608e-10
1.46608e-10
1.46608e-10
1.46608e-10
1.46608e-10
1.46608e-10
1.46608e-10
1.46608e-10
1.46608e-10
1.46608e-10
1.46608e-10
1.46608e-10
1.46608e-10
1.46608e-10
1.46608e-10
1.46608e-10
1.46608e-10
1.46608e-10
1.46608e-10
1.46608e-10
1.46608e-10
1.46608e-10
1.46608e-10
1.46608e-10
1.46608e-10
1.46608e-10
1.46608e-10
1.46608e-10
1.46608e-10
1.46608e-10
1.46608e-10
1.46608e-10
1.46608e-10
1.46608e-10
1.46608e-10
1.46608e-10
1.46608e-10
1.46608e-10
1.46608e-10
1.46608e-10
1.46608e-10
1.46608e-10
1.46608e-10
1.46608e-10
1.46608e-10
1.46608e-10
1.46608e-10
1.46608e-10
1.46608e-10
1.46608e-10
1.46608e-10
1.46608e-10
1.46608e-10
1.46608e-10
1.46608e-10
1.46608e-10
1.46608e-10
1.46608e-10
1.46608e-10
1.46608e-10
1.46608e-10
1.46608e-10
1.46608e-10
1.46608e-10
1.46608e-10
1.46608e-10
1.46608e-10
1.46608e-10
1.46608e-10
1.46608e-10
1.46608e-10
1.46608e-10
1.46608e-10
1.46608e-10
1.46608e-10
1.46608e-10
1.46608e-10
1.46608e-10
1.46608e-10
1.46608e-10
1.46608e-10
1.46608e-10
1.46608e-10
1.46608e-10
1.46608e-10
1.46608e-10
1.46608e-10
1.46608e-10
1.46608e-10
1.46608e-10
1.46608e-10
1.46608e-10
1.46608e-10
1.46608e-10
1.46608e-10
1.46608e-10
1.46608e-10
1.46608e-10
1.46608e-10
1.46608e-10
1.46608e-10
1.46608e-10
1.46608e-10
1.46608e-10
1.46608e-10
1.46608e-10
1.46608e-10
1.46608e-10
1.46608e-10
1.46608e-10
1.46608e-10
1.46608e-10
1.46608e-10
1.46608e-10
1.46608e-10
1.46608e-10
1.46608e-10
1.46608e-10
1.46608e-10
1.46608e-10
1.46608e-10
1.46608e-10
1.46608e-10
1.46608e-10
1.46608e-10
1.46608e-10
1.46608e-10
1.46608e-10
1.46608e-10
1.46608e-10
1.46608e-10
1.46608e-10
1.46608e-10
1.46608e-10
1.46608e-10
1.46608e-10
1.46608e-10
1.46608e-10
1.46608e-10
1.46608e-10
1.46608e-10
1.46608e-10
1.46608e-10
1.46608e-10
1.46608e-10
1.46608e-10
1.46608e-10
1.46608e-10
1.46608e-10
1.46608e-10
1.46608e-10
1.46608e-10
1.46608e-10
1.46608e-10
1.46608e-10
1.46608e-10
1.46608e-10
1.46608e-10
1.46608e-10
1.46608e-10
1.46608e-10
1.46608e-10
1.46608e-10
1.46608e-10
1.46608e-10
1.46608e-10
1.46608e-10
1.46608e-10
1.46608e-10
1.46608e-10
1.46608e-10
1.46608e-10
1.46608e-10
1.46608e-10
1.46608e-10
1.46608e-10
1.46608e-10
1.46608e-10
1.46608e-10
1.46608e-10
1.46608e-10
1.46608e-10
1.46608e-10
1.46608e-10
1.46608e-10
1.46608e-10
1.46608e-10
1.46608e-10
1.46608e-10
1.46608e-10
1.46608e-10
1.46608e-10
1.46608e-10
1.46608e-10
1.46608e-10
1.46608e-10
1.46608e-10
1.46608e-10
1.46608e-10
1.46608e-10
1.46608e-10
1.46608e-10
1.46608e-10
1.46608e-10
1.46608e-10
1.46608e-10
1.46608e-10
1.46608e-10
1.46608e-10
1.46608e-10
1.46608e-10
1.46608e-10
1.46608e-10
1.46608e-10
1.46608e-10
1.46608e-10
1.46608e-10
1.46608e-10
1.46608e-10
1.46608e-10
1.46608e-10
1.46608e-10
1.46608e-10
1.46608e-10
1.46608e-10
1.46608e-10
1.46608e-10
1.46608e-10
1.46608e-10
1.46608e-10
1.46608e-10
1.46608e-10
1.46608e-10
1.46608e-10
1.46608e-10
1.46608e-10
1.46608e-10
1.46608e-10

VECTORS velocity float
0.00604297 -0.000117005 8.54779e-05
0.00539276 -4.24094e-05 2.18965e-05
0.00594368 -0.000581009 0.000280697
0.00552274 -7.79032e-05 6.46135e-06
0.00596612 -0.000206663 0.000159752
0.00636348 0.000632311 -0.000345889
0.00611704 -0.000177212 0.000139837
0.00552976 -3.82059e-05 2.06931e-05
0.00584781 0.000765438 -0.00032735
0.00612637 -0.000227172 0.000176029
0.00553828 -5.75765e-06 1.00714e-05
0.00590618 -0.000647977 0.000310588
0.00598394 -0.000184496 0.000141082
0.00593366 -0.000591894 0.000291221
0.0054112 2.20099e-05 -3.44852e-05
0.00592579 -0.000605922 0.000302091
0.00605973 -0.000235532 0.0001855
0.00597001 0.000679868 -0.000374563
0.00596661 -0.000166685 0.000126709
0.00600128 -0.000108995 7.89112e-05
0.00564093 -0.000104068 6.79797e-05
0.00559974 -0.000560768 0.0002419
0.00582022 0.000757053 -0.000310726
0.00608927 -0.000185994 0.000144477
0.00586137 0.000723843 -0.000400029
0.00544791 -0.000606603 0.000260511
0.00551262 -7.01509e-05 9.17125e-06
0.00594704 -0.000149543 0.000112988
0.00565172 -6.96087e-05 4.26054e-05
0.00598051 -0.000153223 0.00011492
0.00567719 -1.48467e-05 2.1467e-07
0.00635834 0.000632297 -0.000345894
0.00604461 -0.000252794 0.000198574
0.00602533 -6.93892e-05 4.37951e-05
0.00572291 0.000800027 -0.000320553
0.00615545 -0.000109938 7.92333e-05
0.00527219 2.28176e-05 -3.09024e-05
0.00585692 0.000754337 -0.000307822
0.00597701 -0.000253839 0.000199225
0.0053219 -6.24784e-05 3.86638e-05
0.0053024 2.68817e-05 -3.80129e-05
0.00634765 0.000639865 -0.000350316
0.0059255 0.000695058 -0.000383271
0.00600503 -0.000255478 0.000200507
0.00560783 -0.00012498 0.000168224
0.00587401 0.000713804 -0.000394447
0.00552084 -0.00023569 7.0252e-06
0.00567728 -0.00026651 4.49002e-05
0.00591974 -0.000638977 0.000321584
0.00600044 0.000676031 -0.000370581
0.00598252 -0.000103843 7.47707e-05
0.00595115 -0.000567826 0.00027062
0.00620038 -7.74176e-05 5.31134e-05
0.00577155 0.00072753 -0.000405214
0.00616647 -0.000141 0.000104488
0.00595343 -0.000110646 7.98932e-05
0.0059683 -0.000234376 0.000182989
0.0054492 1.38222e-05 -2.58577e-05
0.00568875 -7.48636e-05 8.01906e-05
0.00584245 0.000749947 -0.000305619
0.00547963 -0.000523792 0.000225069
0.00563262 -0.000556544 0.00024639
0.0055263 -3.26256e-05 8.41969e-06
0.00555581 6.87383e-07 7.12533e-06
0.006142 -0.000116873 8.50725e-05
0.00591901 0.00074999 -0.000300445
0.00594629 -0.00057667 0.000276939
0.00556721 -1.66681e-08 -1.6985e-05
0.00608685 -0.000200539 0.000154461
0.00527928 3.82706e-05 -5.3181e-05
0.00547523 -0.000523749 0.000225991
0.00536823 -0.000191671 4.65338e-06
0.00593946 -0.00059232 0.000288952
0.0055702 -0.000605787 0.000275716
0.00548117 -0.000207552 3.25505e-06
0.0055856 -0.000583769 0.000271316
0.00558136 -0.00062994 0.000278935
0.00594506 -0.000589583 0.000245568
0.00575835 0.000787633 -0.000319714
0.00593849 -0.000604997 0.00029753
0.00567909 -0.00010229 8.49376e-06
0.00621827 -0.000128174 9.41597e-05
0.00536988 -0.000162761 4.16284e-06
0.00547467 -0.000192259 6.5446e-07
0.00540906 -4.94814e-05 3.19308e-05
0.00586171 -0.000653703 0.000292427
0.00556533 -1.01035e-05 9.36819e-06
0.00545124 -8.46247e-05 6.87097e-06
0.00550786 -1.8978e-05 9.64547e-06
0.00549886 -0.000219309 -9.97975e-07
0.00554213 -1.0361e-05 8.94095e-06
0.00592454 -0.00063187 0.000317896
0.0053661 -0.00016641 4.59267e-06
0.00558578 -0.000561499 0.000232369
0.00530125 -1.87253e-05 5.27103e-06
0.00585899 -0.000647436 0.000293969
4.1516e-15 1.06061e-14 8.29522e-14
3.10422e-23 -1.27651e-22 1.23839e-22
0.00559414 -0.00054546 0.00022183
0.00592728 -0.000616417 0.000305823
0.00561208 -0.000535256 0.000216499
0.00593619 -0.000600099 0.000294053
0.00609174 -0.000119765 8.77095e-05
0.00579749 -0.00022543 0.000168066
0.00553659 1.50524e-05 1.01394e-05
0.00542073 -0.000175226 5.08375e-06
0.00592484 -0.000636449 0.000321966
0.0054691 -0.000417103 0.000219831
0.00550881 -0.00053372 0.000200834
0.00558827 -5.34512e-05 3.14924e-05
0.00615442 -0.000131862 9.75351e-05
0.00602929 -9.03068e-05 6.32495e-05
0.0059437 -0.000568597 0.000272795
0.00564814 -5.55829e-05 3.55183e-05
0.00593336 -0.000133498 9.99282e-05
0.0055677 2.73777e-05 -3.31394e-05
0.00553575 -1.25102e-05 9.69163e-06
0.00590212 -0.000636713 0.000320438
0.00549298 -4.91668e-05 9.00889e-06
0.00602087 -7.15428e-05 4.73672e-05
0.00526058 -3.86293e-05 7.55906e-05
0.00592262 -0.000625397 0.000312161
0.00552118 -0.000225709 -1.10628e-06
0.0054398 -0.000180009 3.50422e-06
0.00557691 -0.00055692 0.000234485
0.0055236 -0.000539489 0.000216019
0.0055073 -8.3126e-05 6.96535e-06
0.00611743 -0.000151399 0.000113867
0.00539859 -6.38808e-06 -5.57191e-06
0.00597854 -6.10191e-05 3.87467e-05
0.00593954 -0.000600419 0.000294317
0.00544582 -0.00017429 5.07201e-06
0.00611026 -0.000129115 9.52e-05
0.00543763 -5.05239e-06 9.95254e-06
0.00593242 -0.000606945 0.000299171
0.00557758 -0.000538685 0.000220742
0.00593368 -0.00060792 0.000299674
0.00556337 -0.000497143 0.000186627
0.00593296 -0.000573126 0.000234434
0.00594103 -0.000595089 0.000290608
0.0054663 -0.000591908 0.000259312
0.00540019 -0.000190292 4.70628e-06
0.00592976 -0.000635039 0.000280509
0.00561879 -0.000515296 0.000203664
0.00592597 -0.000640267 0.000322494
0.0055177 -0.000564348 0.000237498
0.00543054 -0.000511748 0.000216553
0.00562659 -0.00058848 0.000253806
-3.83025e-14 8.16847e-14 2.95887e-13
0.00555367 -0.000542959 0.000220133
0.00555053 -7.69972e-07 1.15237e-05
0.0054704 -0.00051913 0.000227198
0.0054322 -0.000536817 0.000228473
0.00540772 -0.000490921 0.000218585
0.00547975 -0.000466061 0.000167902
0.00598718 -0.000186536 0.000143231
0.0060308 -0.000532212 0.000244431
0.00559038 -0.000532683 0.000215597
0.00541043 -0.00044894 0.000218376
0.00547903 -0.000484164 0.000184095
0.0060803 -0.000169264 0.00012877
0.00549212 -0.000468076 0.000171883
0.00548731 -5.84995e-05 8.90346e-06
0.00550118 -0.000500549 0.000196865
0.00571173 0.000136207 -5.44799e-05
0.00561811 -0.000572228 0.000246132
0.00543859 -0.000503735 0.000220433
0.00548116 -0.000445089 0.000221553
0.00544301 -0.000448332 0.000219175
0.00549453 -0.000607861 0.000227676
0.00606042 -0.000131981 9.77044e-05
0.00551263 -0.000496208 0.000190603
0.0055817 1.20138e-05 1.84934e-05
0.00566086 -0.000649792 0.000296388
0.00552505 -0.000597835 0.000262316
0.00533676 -1.74812e-05 4.36546e-06
0.0053723 -7.63553e-05 7.37935e-06
0.00538346 -4.07806e-05 2.21297e-05
0.00567978 0.000158004 -6.49764e-05
0.00546885 -0.000176245 5.32068e-06
0.00559421 -0.000508928 0.000198462
0.00612451 -0.000112279 8.12734e-05
0.00590303 -0.000589757 0.000246617
0.00547372 -0.000452695 0.000220605
0.00588647 -0.000614659 0.000306835
0.00560162 0.000172454 -5.5528e-06
0.00561412 -0.000628094 0.000302072
0.0054697 -0.000532993 0.000229048
0.00562645 -0.000623494 0.000274802
0.0054043 -0.000493275 0.00021832
0.00558203 -0.000536491 0.000215799
0.00546346 -1.91473e-05 6.39368e-06
0.00586256 -0.00061262 0.000265999
0.00539933 -0.00049794 0.000218129
0.00547577 -0.000519714 0.000222286
0.00591947 -0.000639345 0.000321945
0.00549148 -0.000521946 0.000211878
0.00591369 -0.000612839 0.000265362
0.00523158 -0.000101738 0.000146975
0.0055282 -1.00096e-05 9.93179e-06
0.00547303 -0.00047566 0.00020354
0.00542587 -3.15506e-05 1.55259e-05
0.00548851 -3.45978e-05 1.01373e-05
0.00572621 0.000148208 -5.58699e-05
0.00544366 -0.000513521 0.000218915
0.00613763 -0.000139158 0.000103674
0.00541295 -0.000499666 0.000218774
0.00540298 -0.00017463 5.25422e-06
0.0056243 -0.000633167 0.000228198
0.00556374 0.000185314 -9.48531e-05
0.00614141 -0.000122239 8.96788e-05
0.0055924 -0.000540635 0.000220363
0.00562668 -0.000641563 0.000293095
0.00556591 4.79549e-05 1.1471e-05
0.00554269 -0.00048197 0.00018076
0.00571528 0.000152618 -6.57874e-05
0.00568967 0.000144187 -6.4449e-05
0.00609304 -0.000696714 0.000265438
0.00551432 -0.000507725 0.000222934
0.00567692 0.000143871 -5.34045e-05
0.00596851 -0.000598899 0.000250511
0.00554963 -0.00052944 0.000214823
0.00535729 -0.000162711 5.31362e-06
0.00571434 -0.000550853 0.000232196
0.00565953 -0.000540566 0.000229123
0.00567954 -0.000617111 0.000230506
0.00596207 -0.000112344 -0.000265684
0.00602277 0.000102681 -5.80147e-06
0.00592927 -0.000275625 -0.000443812
0.00553546 -0.000524454 0.000211123
0.00567291 -0.000554507 0.000301408
0.00598741 0.000112864 -2.06034e-05
0.00555249 0.000164271 -5.93224e-05
0.00539721 -0.000494994 0.000218109
0.00539468 -0.000481008 0.000217903
0.00542892 0.000214199 0.000128958
0.00541931 -0.000504983 0.000219135
0.00557015 2.84279e-06 9.25719e-06
0.00548176 0.000212329 0.000211369
0.0056898 0.000166334 -7.56854e-05
0.00557119 0.000157864 -7.03996e-05
0.00593786 -0.000590571 0.000287644
0.00542431 -0.000503458 0.00021897
0.00542455 -0.000484076 0.000219244
0.00542467 -0.000497381 0.000219218
0.00558221 0.000189507 0.000216008
0.00548834 -0.000502062 0.000189191
0.00573252 -0.000529324 0.000231203
0.00556879 -0.000662622 0.000227157
0.00567541 0.000148236 -5.78489e-05
0.00541476 -0.000484105 0.000218382
0.00568033 0.000149935 -6.39417e-05
0.00561797 -0.000539859 0.000219354
0.0054222 -0.000481937 0.000218937
0.00551114 -0.000572521 0.000260401
0.00543826 -0.000491368 0.000219739
0.00555441 -2.71369e-05 9.53028e-06
0.00544814 -0.000477109 0.000218388
0.00568836 0.000175466 0.000220975
0.00575496 -0.000473223 0.000231704
0.00565146 0.000169013 0.000219473
0.00541684 -0.000487599 0.000218884
0.00543671 -0.000496102 0.000219776
0.00574876 -0.000587957 0.000233224
0.00539643 -0.000479479 0.0002182
0.00560976 0.000153493 -5.78549e-05
0.00570484 0.000153939 -6.21308e-05
0.00555373 -0.00054461 0.000224885
0.00557568 0.000185345 -9.63735e-05
0.00600356 0.000108311 -1.11821e-05
0.00571831 -0.000510863 0.000231397
0.00547811 -0.000475361 0.000221025
0.0053951 -0.000490813 0.00021795
0.00541628 -0.000488621 0.000218926
0.00573143 -0.000469925 0.000230849
0.00559647 -0.000477577 0.000176752
0.00557992 -0.00049397 0.000188471
0.00539863 -0.000487631 0.000218349
0.00629678 -0.000302834 3.46774e-05
0.0054136 -0.000478046 0.00021948
0.0057564 -0.000599607 0.000232817
0.0054229 0.000255733 0.000211272
0.00576806 -0.000553193 0.000234057
0.00562505 -6.35613e-05 4.17347e-05
0.00604024 9.961e-05 -1.0531e-06
0.00538487 0.00022447 0.00020884
0.00553817 4.65115e-06 8.45775e-06

VECTORS force float
-6.40686e-11 -4.36931e-11 3.67828e-11
2.47978e-10 -1.7587e-10 1.75582e-10
2.11782e-11 2.08683e-10 -1.46559e-10
6.85828e-11 -3.81893e-11 -1.71911e-12
2.09595e-10 1.75184e-10 -1.51214e-10
1.54005e-11 9.49228e-11 -5.33939e-11
-2.61445e-10 -7.06303e-11 1.83879e-11
-1.05957e-10 -8.9123e-10 7.43502e-10
2.34661e-11 6.61672e-11 -3.71967e-11
8.47392e-11 2.35624e-10 -2.01461e-10
2.34665e-11 -1.92442e-10 -1.9032e-11
6.01507e-11 -1.20348e-10 5.2267e-11
1.47943e-10 1.64643e-11 -1.20371e-11
7.85112e-12 2.63318e-11 7.44822e-12
-4.03481e-10 -7.08652e-11 1.00876e-10
3.01215e-10 -8.15255e-11 -3.24229e-11
3.45235e-10 2.88582e-10 -2.33021e-10
-2.28773e-11 -5.0058e-11 1.79162e-11
-1.48618e-10 -1.26976e-10 1.09147e-10
-5.03966e-10 -1.09748e-10 9.42493e-11
-9.3841e-11 -2.2199e-10 5.56552e-11
3.62111e-10 3.59451e-12 4.92689e-11
1.66058e-11 4.69443e-11 -1.01453e-11
-6.92043e-11 4.35114e-11 -4.17027e-11
-2.12319e-11 -1.31533e-10 7.7793e-11
-4.30838e-11 9.74808e-12 4.04058e-12
-3.2623e-11 6.22262e-11 -4.31887e-11
-1.81837e-10 -2.75262e-10 2.38436e-10
4.23116e-11 1.48187e-11 -1.65911e-11
-5.81659e-10 -5.6544e-11 -4.65291e-11
-2.40585e-10 -1.77564e-10 1.31076e-10
5.02251e-11 1.04952e-10 -6.3841e-11
-2.54397e-10 2.74153e-10 -2.20159e-10
-1.77882e-10 -4.41908e-10 3.47056e-10
-1.40121e-10 6.31853e-11 8.36476e-11
4.49972e-11 7.15729e-10 -5.9519e-10
-2.16111e-10 9.8442e-11 -1.07259e-10
-1.30226e-10 3.34766e-11 -5.85742e-12
6.36487e-11 1.43618e-11 -2.19468e-11
-1.99572e-10 -4.82548e-11 3.25439e-11
2.57343e-11 -7.57498e-11 3.51016e-11
-9.23609e-11 -1.39376e-12 2.24425e-12
-1.24075e-10 -1.24882e-10 8.34715e-11
-7.77935e-11 8.61968e-11 -7.97926e-11
1.2277e-10 6.83095e-10 6.56261e-11
1.00726e-10 -1.57344e-10 8.73126e-11
-1.27428e-10 6.50739e-11 -5.05503e-11
4.81052e-12 1.73472e-10 4.36679e-12
6.82155e-12 -1.05534e-10 6.01753e-11
-4.58246e-11 5.04855e-11 -2.34544e-11
1.49605e-10 -2.83281e-10 2.34562e-10
8.74941e-11 8.06481e-11 -8.20294e-11
-6.57898e-10 4.46783e-10 -3.63054e-10
7.63805e-10 -5.09229e-10 2.26704e-10
-7.93109e-10 5.81384e-10 -4.79373e-10
-3.72942e-10 4.50871e-10 -3.66059e-10
-5.78758e-12 1.90536e-10 -1.6104e-10
5.89298e-11 -9.59866e-11 6.37193e-11
-5.79905e-11 3.98037e-11 -1.49379e-10