# vtk DataFile Version 3.0
LIGGGHTS particles timestep 64000000
ASCII
DATASET POLYDATA
POINTS 269 float
0.383849 0.0181766 5.15723e-05
0.384161 0.0168553 5.19814e-05
0.384337 0.018343 5.22125e-05
0.384985 0.0167532 5.30605e-05
0.385042 0.017898 5.31356e-05
0.384332 0.0189209 5.22048e-05
0.384815 0.0184943 5.2838e-05
0.383699 0.0197065 5.13762e-05
0.384897 0.0166342 5.29453e-05
0.383873 0.0188963 5.1604e-05
0.380519 0.0177099 0.00729194
0.384297 0.0184546 5.21599e-05
0.380695 0.0189101 0.00680211
0.380529 0.0186681 0.00682668
0.384181 0.0175773 5.20076e-05
0.383665 0.0199562 5.13319e-05
0.383587 0.0186072 5.12303e-05
0.384631 0.0163672 5.25967e-05
0.380736 0.0187402 0.00681936
0.384067 0.0187379 5.18589e-05
0.383579 0.0183141 5.12198e-05
0.380014 0.0164425 0.00794705
0.384165 0.0187755 5.19868e-05
0.384177 0.0169565 5.20019e-05
0.384041 0.0178782 5.18242e-05
0.383781 0.0180165 5.14835e-05
0.247451 0.0181454 0.00545794
0.383853 0.017754 5.1578e-05
0.384811 0.0177235 5.28325e-05
0.383685 0.0180481 5.13583e-05
0.383887 0.0178555 5.16226e-05
0.384669 0.0171089 5.26472e-05
0.383732 0.0198062 5.1419e-05
0.383743 0.0180641 0.0001311
0.384095 0.0180237 5.18945e-05
0.384132 0.0181747 5.19429e-05
0.384081 0.0172848 5.18767e-05
0.384499 0.0170282 5.24241e-05
0.383947 0.0192116 5.17008e-05
0.384007 0.0193518 5.17792e-05
0.381208 0.0174198 0.00795405
0.384413 0.0178972 5.23119e-05
0.380574 0.0180446 0.00709679
0.384683 0.0175025 5.26645e-05
0.383667 0.0188287 5.1335e-05
0.380145 0.0169857 0.00772663
0.383629 0.0195694 5.12842e-05
0.383629 0.019709 0.000122679
0.378022 0.019866 0.005332
0.383908 0.0180619 5.16502e-05
0.38486 0.0175718 5.28966e-05
0.38382 0.018374 5.15343e-05
0.383581 0.018454 5.12221e-05
0.383269 0.0178073 0.0053438
0.380251 0.0175866 0.00748183
0.380352 0.0179043 0.00720341
0.384069 0.018253 5.18613e-05
0.384886 0.0183819 5.29308e-05
0.383709 0.0207704 5.1389e-05
0.384524 0.0161893 5.24575e-05
0.380491 0.0184859 0.00688111
0.384013 0.0194938 5.17876e-05
0.385165 0.0173714 5.3297e-05
0.384184 0.0179479 5.20117e-05
0.380073 0.0167189 0.00784748
0.384208 0.0182441 5.2043e-05
0.379624 0.0153739 0.00878743
0.380552 0.0187685 0.00681649
0.384015 0.0173598 5.17901e-05
0.380405 0.018132 0.00706868
0.380543 0.0178751 0.00719595
0.383996 0.0188405 5.17657e-05
0.380367 0.0182937 0.00704584
0.384473 0.0190617 5.239e-05
0.38418 0.0172542 5.20058e-05
0.384642 0.0180833 5.26118e-05
0.383831 0.0209331 5.15494e-05
0.384426 0.0180813 5.23291e-05
0.380326 0.0172413 0.00757957
0.383766 0.0181204 5.14635e-05
0.384798 0.0189219 5.28158e-05
0.383762 0.0184943 5.14585e-05
0.38366 0.0185154 5.13256e-05
0.385068 0.0173509 5.31688e-05
0.37971 0.0156177 0.0084822
0.384429 0.0175728 5.23326e-05
0.380164 0.0174018 0.00750953
0.383719 0.0184039 5.14023e-05
0.380181 0.0174905 0.00745745
0.0643568 0.0187248 0.00531097
0.230779 0.0182774 0.00551293
0.380456 0.0187361 0.00682046
0.379732 0.0156785 0.00840607
0.380207 0.0171806 0.00762855
0.379645 0.0154349 0.00871112
0.383672 0.0190653 5.13415e-05
0.38383 0.0193287 5.15482e-05
0.384903 0.0182202 5.29528e-05
0.38386 0.017954 5.15869e-05
0.380248 0.0176776 0.00743997
0.380045 0.0169529 0.00773051
0.380116 0.0172212 0.00761699
0.38433 0.0192224 5.22022e-05
0.383833 0.0187126 5.15519e-05
0.383548 0.0176887 0.00536951
0.380345 0.0173258 0.00752966
0.383723 0.0179338 5.14079e-05
0.384201 0.0170737 5.2034e-05
0.385676 0.0164514 5.39659e-05
0.384717 0.0178049 5.27096e-05
0.380367 0.0183393 0.00695684
0.38514 0.0150589 5.32639e-05
0.384385 0.0182228 5.22753e-05
0.379688 0.0155567 0.00855851
0.384137 0.0173755 5.19503e-05
0.384098 0.0171633 5.18995e-05
0.380248 0.0173505 0.00752795
0.380281 0.0174856 0.00744778
0.385057 0.0180859 5.31545e-05
0.38396 0.0179528 5.17179e-05
0.384148 0.0183693 5.19642e-05
0.383888 0.0195362 5.16234e-05
0.38012 0.0168956 0.00776289
0.383834 0.0196942 5.15529e-05
0.384267 0.0171493 5.21198e-05
0.384697 0.0179052 5.26838e-05
0.38013 0.0165659 0.00790578
0.380571 0.0181727 0.00702515
0.379667 0.0154958 0.00863482
0.380386 0.0175196 0.00741554
0.379838 0.016047 0.00809918
0.380229 0.0172658 0.00757791
0.380149 0.0166576 0.00786827
0.385009 0.0182995 5.30925e-05
0.380399 0.0180836 0.00715595
0.380224 0.0176845 0.00734303
0.380167 0.0167487 0.0078309
0.368263 0.0178167 0.00698335
0.380286 0.0177535 0.00738182
0.380109 0.0164751 0.00794277
0.0219312 0.0187687 0.00551176
0.38022 0.0169279 0.0077592
0.383767 0.018816 5.14655e-05
0.380205 0.0175987 0.00739363
0.380638 0.0187179 0.00682163
0.38019 0.0173875 0.00760496
0.380287 0.0179742 0.00717215
0.383754 0.0192528 5.1449e-05
0.380466 0.0180393 0.00721682
0.380337 0.0181986 0.00703982
0.380319 0.0179739 0.00726714
0.380309 0.0180727 0.00711403
0.383731 0.0186905 5.14178e-05
0.380021 0.0168628 0.00776679
0.384719 0.0172091 5.27122e-05
0.379796 0.0158736 0.0081882
0.380299 0.0171425 0.00763846
0.380153 0.0173027 0.00766236
0.380386 0.0179845 0.00715409
0.380525 0.0182005 0.0071093
0.384102 0.0184964 5.1904e-05
0.380093 0.0171329 0.007658
0.384595 0.0179247 5.255e-05
0.380404 0.0176044 0.00736562
0.380523 0.0183551 0.00699159
0.384415 0.0170853 5.23146e-05
0.383828 0.017652 5.15458e-05
0.383928 0.0174091 5.16761e-05
0.374369 0.0183418 0.00695088
0.384138 0.0174868 5.19518e-05
0.38007 0.0170428 0.00769431
0.384008 0.0190136 5.17811e-05
0.380595 0.0189066 0.00680247
0.380445 0.0182802 0.00698046
0.380475 0.0179425 0.00716652
0.374055 0.0168766 0.00745787
0.380572 0.0179576 0.00714596
0.380683 0.0185453 0.00685478
0.380068 0.0162934 0.00801677
0.380616 0.0184751 0.00687991
0.380248 0.0170193 0.00771415
0.384546 0.016623 5.24856e-05
0.380498 0.0189306 0.00680003
0.379994 0.0163518 0.007984
0.379953 0.0161699 0.00805806
0.380642 0.0181079 0.00705273
0.380169 0.0170762 0.00769017
0.384245 0.0173487 5.20914e-05
0.383892 0.0175594 5.16296e-05
0.380639 0.0188174 0.00681152
0.384483 0.0183628 5.2403e-05
0.384694 0.0169414 5.26791e-05
0.374268 0.0178658 0.00706574
0.379775 0.0158022 0.00825486
0.384003 0.0191287 5.17745e-05
0.380141 0.0173111 0.00756343
0.384925 0.0197338 5.29819e-05
0.380302 0.0175705 0.0073974
0.384753 0.0202044 5.27567e-05
0.380035 0.0165332 0.0079101
0.384935 0.0176618 5.29946e-05
0.380545 0.0182581 0.00698037
0.374287 0.0179611 0.00704272
0.374228 0.0176751 0.0071118
0.380453 0.0183793 0.00692429
0.379919 0.0164095 0.00795147
0.380434 0.0186397 0.00683389
0.380243 0.0177691 0.0072931
0.383776 0.0178205 5.14777e-05
0.379879 0.0162283 0.00802528
0.37998 0.0166815 0.00784063
0.38 0.0167722 0.00780368
0.373956 0.0164717 0.00773425
0.374016 0.0167145 0.00756849
0.373936 0.0163909 0.00778947
0.380089 0.0163842 0.00797977
0.380442 0.0178623 0.00721584
0.373977 0.0165526 0.00767902
0.37415 0.0172941 0.00720546
0.380474 0.0180297 0.00711762
0.374094 0.0170387 0.0073473
0.383361 0.0172764 0.00802154
0.384235 0.017459 5.20777e-05
0.37417 0.0173891 0.00718087
0.374348 0.0182468 0.00697378
0.374112 0.01712 0.00729189
0.380413 0.0185467 0.00686442
0.380393 0.0184537 0.00689515
0.380195 0.0168378 0.00779545
0.380511 0.0182921 0.00706823
0.374189 0.0174844 0.00715784
0.380264 0.0178679 0.00723485
0.380471 0.0181947 0.0070253
0.380365 0.017833 0.00727232
0.374074 0.0169577 0.00740256
0.380239 0.0174842 0.00753874
0.37439 0.0184368 0.00692797
0.38032 0.0176553 0.00734749
0.380374 0.0174338 0.00746534
0.38044 0.0177672 0.00726958
0.38397 0.0186996 5.17315e-05
0.380547 0.0184068 0.0069045
0.374248 0.0177704 0.00708877
0.379974 0.0162605 0.00802126
0.374209 0.0175798 0.00713482
0.380317 0.0174203 0.00754631
0.379818 0.0159563 0.00813612
0.38043 0.0176978 0.00734088
0.374465 0.018373 0.00694628
0.374307 0.0180564 0.00701969
0.380338 0.01774 0.00729757
0.373997 0.0166335 0.00762379
0.379939 0.0165002 0.00791452
0.380055 0.0166239 0.00787315
0.380533 0.0185714 0.00685194
0.379899 0.0163206 0.00799279
0.380505 0.018111 0.00706808
0.379753 0.0157395 0.0083296
0.380094 0.0168155 0.00781644
0.380477 0.0188335 0.00680989
0.380701 0.0186403 0.0068295
0.3806 0.0183275 0.00693442
0.37996 0.0165909 0.00787757
0.374327 0.0181517 0.00699669
0.379858 0.0161377 0.00806223
0.383631 0.0187173 5.12867e-05
0.374036 0.0167956 0.00751318
0.374131 0.0172011 0.00723655
0.384681 0.0189793 5.2662e-05

VERTICES 269 538
1 0
1 1
1 2
1 3
1 4
1 5
1 6
1 7
1 8
1 9
1 10
1 11
1 12
1 13
1 14
1 15
1 16
1 17
1 18
1 19
1 20
1 21
1 22
1 23
1 24
1 25
1 26
1 27
1 28
1 29
1 30
1 31
1 32
1 33
1 34
1 35
1 36
1 37
1 38
1 39
1 40
1 41
1 42
1 43
1 44
1 45
1 46
1 47
1 48
1 49
1 50
1 51
1 52
1 53
1 54
1 55
1 56
1 57
1 58
1 59
1 60
1 61
1 62
1 63
1 64
1 65
1 66
1 67
1 68
1 69
1 70
1 71
1 72
1 73
1 74
1 75
1 76
1 77
1 78
1 79
1 80
1 81
1 82
1 83
1 84
1 85
1 86
1 87
1 88
1 89
1 90
1 91
1 92
1 93
1 94
1 95
1 96
1 97
1 98
1 99
1 100
1 101
1 102
1 103
1 104
1 105
1 106
1 107
1 108
1 109
1 110
1 111
1 112
1 113
1 114
1 115
1 116
1 117
1 118
1 119
1 120
1 121
1 122
1 123
1 124
1 125
1 126
1 127
1 128
1 129
1 130
1 131
1 132
1 133
1 134
1 135
1 136
1 137
1 138
1 139
1 140
1 141
1 142
1 143
1 144
1 145
1 146
1 147
1 148
1 149
1 150
1 151
1 152
1 153
1 154
1 155
1 156
1 157
1 158
1 159
1 160
1 161
1 162
1 163
1 164
1 165
1 166
1 167
1 168
1 169
1 170
1 171
1 172
1 173
1 174
1 175
1 176
1 177
1 178
1 179
1 180
1 181
1 182
1 183
1 184
1 185
1 186
1 187
1 188
1 189
1 190
1 191
1 192
1 193
1 194
1 195
1 196
1 197
1 198
1 199
1 200
1 201
1 202
1 203
1 204
1 205
1 206
1 207
1 208
1 209
1 210
1 211
1 212
1 213
1 214
1 215
1 216
1 217
1 218
1 219
1 220
1 221
1 222
1 223
1 224
1 225
1 226
1 227
1 228
1 229
1 230
1 231
1 232
1 233
1 234
1 235
1 236
1 237
1 238
1 239
1 240
1 241
1 242
1 243
1 244
1 245
1 246
1 247
1 248
1 249
1 250
1 251
1 252
1 253
1 254
1 255
1 256
1 257
1 258
1 259
1 260
1 261
1 262
1 263
1 264
1 265
1 266
1 267
1 268

POINT_DATA 269
SCALARS id int 1
LOOKUP_TABLE default
1
2
4
5
6
7
8
9
10
11
12
13
14
16
17
19
21
22
23
24
26
27
28
29
30
31
32
33
35
36
37
38
39
41
42
44
45
47
48
49
50
51
52
53
54
55
56
57
59
60
61
62
63
64
65
66
67
68
69
70
71
72
73
74
76
77
78
79
80
82
83
84
85
86
87
88
89
90
91
92
93
94
95
96
97
98
99
100
101
102
103
104
105
106
107
108
109
110
111
112
113
114
115
116
117
118
119
120
121
122
123
124
125
127
128
129
130
131
132
133
134
135
136
137
138
140
141
142
143
144
146
147
148
149
150
151
153
154
155
156
157
158
159
160
162
164
165
166
167
168
169
170
171
172
173
174
176
177
178
179
182
183
184
185
186
187
188
189
190
191
192
193
194
195
196
197
198
199
200
201
202
203
204
206
207
208
209
210
211
212
213
214
215
216
217
218
219
220
222
224
225
226
227
228
229
230
232
233
234
235
236
237
239
240
241
242
243
244
246
248
249
250
251
252
253
254
255
256
257
258
259
260
261
262
263
264
265
266
268
269
270
271
272
273
274
275
276
278
279
280
281
283
284
285
286
287
288
289
290
291
292
293
294
295
296
297
298
299
300

SCALARS type int 1
LOOKUP_TABLE default
1
1
1
1
1
1
1
1
1
1
1
1
1
1
1
1
1
1
1
1
1
1
1
1
1
1
1
1
1
1
1
1
1
1
1
1
1
1
1
1
1
1
1
1
1
1
1
1
1
1
1
1
1
1
1
1
1
1
1
1
1
1
1
1
1
1
1
1
1
1
1
1
1
1
1
1
1
1
1
1
1
1
1
1
1
1
1
1
1
1
1
1
1
1
1
1
1
1
1
1
1
1
1
1
1
1
1
1
1
1
1
1
1
1
1
1
1
1
1
1
1
1
1
1
1
1
1
1
1
1
1
1
1
1
1
1
1
1
1
1
1
1
1
1
1
1
1
1
1
1
1
1
1
1
1
1
1
1
1
1
1
1
1
1
1
1
1
1
1
1
1
1
1
1
1
1
1
1
1
1
1
1
1
1
1
1
1
1
1
1
1
1
1
1
1
1
1
1
1
1
1
1
1
1
1
1
1
1
1
1
1
1
1
1
1
1
1
1
1
1
1
1
1
1
1
1
1
1
1
1
1
1
1
1
1
1
1
1
1
1
1
1
1
1
1
1
1
1
1
1
1
1
1
1
1
1
1
1
1
1
1
1
1
1
1
1
1
1
1

SCALARS radius float 1
LOOKUP_TABLE default
5e-05
5e-05
5e-05
5e-05
5e-05
5e-05
5e-05
5e-05
5e-05
5e-05
5e-05
5e-05
5e-05
5e-05
5e-05
5e-05
5e-05
5e-05
5e-05
5e-05
5e-05
5e-05
5e-05
5e-05
5e-05
5e-05
5e-05
5e-05
5e-05
5e-05
5e-05
5e-05
5e-05
5e-05
5e-05
5e-05
5e-05
5e-05
5e-05
5e-05
5e-05
5e-05
5e-05
5e-05
5e-05
5e-05
5e-05
5e-05
5e-05
5e-05
5e-05
5e-05
5e-05
5e-05
5e-05
5e-05
5e-05
5e-05
5e-05
5e-05
5e-05
5e-05
5e-05
5e-05
5e-05
5e-05
5e-05
5e-05
5e-05
5e-05
5e-05
5e-05
5e-05
5e-05
5e-05
5e-05
5e-05
5e-05
5e-05
5e-05
5e-05
5e-05
5e-05
5e-05
5e-05
5e-05
5e-05
5e-05
5e-05
5e-05
5e-05
5e-05
5e-05
5e-05
5e-05
5e-05
5e-05
5e-05
5e-05
5e-05
5e-05
5e-05
5e-05
5e-05
5e-05
5e-05
5e-05
5e-05
5e-05
5e-05
5e-05
5e-05
5e-05
5e-05
5e-05
5e-05
5e-05
5e-05
5e-05
5e-05
5e-05
5e-05
5e-05
5e-05
5e-05
5e-05
5e-05
5e-05
5e-05
5e-05
5e-05
5e-05
5e-05
5e-05
5e-05
5e-05
5e-05
5e-05
5e-05
5e-05
5e-05
5e-05
5e-05
5e-05
5e-05
5e-05
5e-05
5e-05
5e-05
5e-05
5e-05
5e-05
5e-05
5e-05
5e-05
5e-05
5e-05
5e-05
5e-05
5e-05
5e-05
5e-05
5e-05
5e-05
5e-05
5e-05
5e-05
5e-05
5e-05
5e-05
5e-05
5e-05
5e-05
5e-05
5e-05
5e-05
5e-05
5e-05
5e-05
5e-05
5e-05
5e-05
5e-05
5e-05
5e-05
5e-05
5e-05
5e-05
5e-05
5e-05
5e-05
5e-05
5e-05
5e-05
5e-05
5e-05
5e-05
5e-05
5e-05
5e-05
5e-05
5e-05
5e-05
5e-05
5e-05
5e-05
5e-05
5e-05
5e-05
5e-05
5e-05
5e-05
5e-05
5e-05
5e-05
5e-05
5e-05
5e-05
5e-05
5e-05
5e-05
5e-05
5e-05
5e-05
5e-05
5e-05
5e-05
5e-05
5e-05
5e-05
5e-05
5e-05
5e-05
5e-05
5e-05
5e-05
5e-05
5e-05
5e-05
5e-05
5e-05
5e-05
5e-05
5e-05
5e-05
5e-05
5e-05
5e-05
5e-05
5e-05
5e-05
5e-05
5e-05
5e-05
5e-05
5e-05
5e-05
5e-05
5e-05
5e-05
5e-05
5e-05
5e-05
5e-05
5e-05
5e-05
5e-05
5e-05
5e-05

SCALARS mass float 1
LOOKUP_TABLE default
1.46608e-10
1.46608e-10
1.46608e-10
1.46608e-10
1.46608e-10
1.46608e-10
1.46608e-10
1.46608e-10
1.46608e-10
1.46608e-10
1.46608e-10
1.46608e-10
1.46608e-10
1.46608e-10
1.46608e-10
1.46608e-10
1.46608e-10
1.46608e-10
1.46608e-10
1.46608e-10
1.46608e-10
1.46608e-10
1.46608e-10
1.46608e-10
1.46608e-10
1.46608e-10
1.46608e-10
1.46608e-10
1.46608e-10
1.46608e-10
1.46608e-10
1.46608e-10
1.46608e-10
1.46608e-10
1.46608e-10
1.46608e-10
1.46608e-10
1.46608e-10
1.46608e-10
1.46608e-10
1.46608e-10
1.46608e-10
1.46608e-10
1.46608e-10
1.46608e-10
1.46608e-10
1.46608e-10
1.46608e-10
1.46608e-10
1.46608e-10
1.46608e-10
1.46608e-10
1.46608e-10
1.46608e-10
1.46608e-10
1.46608e-10
1.46608e-10
1.46608e-10
1.46608e-10
1.46608e-10
1.46608e-10
1.46608e-10
1.46608e-10
1.46608e-10
1.46608e-10
1.46608e-10
1.46608e-10
1.46608e-10
1.46608e-10
1.46608e-10
1.46608e-10
1.46608e-10
1.46608e-10
1.46608e-10
1.46608e-10
1.46608e-10
1.46608e-10
1.46608e-10
1.46608e-10
1.46608e-10
1.46608e-10
1.46608e-10
1.46608e-10
1.46608e-10
1.46608e-10
1.46608e-10
1.46608e-10
1.46608e-10
1.46608e-10
1.46608e-10
1.46608e-10
1.46608e-10
1.46608e-10
1.46608e-10
1.46608e-10
1.46608e-10
1.46608e-10
1.46608e-10
1.46608e-10
1.46608e-10
1.46608e-10
1.46608e-10
1.46608e-10
1.46608e-10
1.46608e-10
1.46608e-10
1.46608e-10
1.46608e-10
1.46608e-10
1.46608e-10
1.46608e-10
1.46608e-10
1.46608e-10
1.46608e-10
1.46608e-10
1.46608e-10
1.46608e-10
1.46608e-10
1.46608e-10
1.46608e-10
1.46608e-10
1.46608e-10
1.46608e-10
1.46608e-10
1.46608e-10
1.46608e-10
1.46608e-10
1.46608e-10
1.46608e-10
1.46608e-10
1.46608e-10
1.46608e-10
1.46608e-10
1.46608e-10
1.46608e-10
1.46608e-10
1.46608e-10
1.46608e-10
1.46608e-10
1.46608e-10
1.46608e-10
1.46608e-10
1.46608e-10
1.46608e-10
1.46608e-10
1.46608e-10
1.46608e-10
1.46608e-10
1.46608e-10
1.46608e-10
1.46608e-10
1.46608e-10
1.46608e-10
1.46608e-10
1.46608e-10
1.46608e-10
1.46608e-10
1.46608e-10
1.46608e-10
1.46608e-10
1.46608e-10
1.46608e-10
1.46608e-10
1.46608e-10
1.46608e-10
1.46608e-10
1.46608e-10
1.46608e-10
1.46608e-10
1.46608e-10
1.46608e-10
1.46608e-10
1.46608e-10
1.46608e-10
1.46608e-10
1.46608e-10
1.46608e-10
1.46608e-10
1.46608e-10
1.46608e-10
1.46608e-10
1.46608e-10
1.46608e-10
1.46608e-10
1.46608e-10
1.46608e-10
1.46608e-10
1.46608e-10
1.46608e-10
1.46608e-10
1.46608e-10
1.46608e-10
1.46608e-10
1.46608e-10
1.46608e-10
1.46608e-10
1.46608e-10
1.46608e-10
1.46608e-10
1.46608e-10
1.46608e-10
1.46608e-10
1.46608e-10
1.46608e-10
1.46608e-10
1.46608e-10
1.46608e-10
1.46608e-10
1.46608e-10
1.46608e-10
1.46608e-10
1.46608e-10
1.46608e-10
1.46608e-10
1.46608e-10
1.46608e-10
1.46608e-10
1.46608e-10
1.46608e-10
1.46608e-10
1.46608e-10
1.46608e-10
1.46608e-10
1.46608e-10
1.46608e-10
1.46608e-10
1.46608e-10
1.46608e-10
1.46608e-10
1.46608e-10
1.46608e-10
1.46608e-10
1.46608e-10
1.46608e-10
1.46608e-10
1.46608e-10
1.46608e-10
1.46608e-10
1.46608e-10
1.46608e-10
1.46608e-10
1.46608e-10
1.46608e-10
1.46608e-10
1.46608e-10
1.46608e-10
1.46608e-10
1.46608e-10
1.46608e-10
1.46608e-10
1.46608e-10
1.46608e-10
1.46608e-10
1.46608e-10
1.46608e-10
1.46608e-10
1.46608e-10
1.46608e-10
1.46608e-10
1.46608e-10
1.46608e-10
1.46608e-10
1.46608e-10
1.46608e-10
1.46608e-10
1.46608e-10
1.46608e-10
1.46608e-10
1.46608e-10

VECTORS velocity float
1.79762e-18 3.39211e-22 -1.37251e-15
-9.20541e-19 -2.2941e-20 7.02843e-16
1.79762e-18 2.79834e-21 -1.37251e-15
2.24033e-18 4.27512e-21 -1.71052e-15
1.79755e-18 -9.7291e-23 -1.37249e-15
2.81057e-18 1.92308e-21 -2.14593e-15
1.7976e-18 6.72037e-21 -1.37249e-15
-7.41244e-19 -2.4061e-22 5.74805e-16
2.24033e-18 1.21195e-20 -1.71052e-15
2.81059e-18 -3.6799e-22 -2.14593e-15
0.00638935 0.00126077 -0.0014958
1.79764e-18 1.41654e-20 -1.37251e-15
0.00655481 0.000766652 -7.78618e-05
0.00652442 0.000768702 -7.61932e-05
2.24036e-18 6.56526e-23 -1.71052e-15
2.81057e-18 5.38254e-21 -2.14593e-15
-3.50217e-19 5.39411e-21 2.67381e-16
2.24036e-18 -1.30305e-21 -1.71052e-15
0.00653421 0.000721848 -7.4037e-05
2.81055e-18 1.52571e-22 -2.14593e-15
-3.5022e-19 4.22883e-22 2.67381e-16
0.00604205 0.000856397 0.000252201
-3.50171e-19 -9.74289e-21 2.67381e-16
-9.20519e-19 2.28534e-21 7.02844e-16
2.24031e-18 -3.53337e-21 -1.71052e-15
3.74848e-20 -1.1447e-22 -2.78777e-17
3.92259e-15 -5.32171e-14 -2.74081e-13
2.24036e-18 -3.10285e-23 -1.71052e-15
1.7976e-18 -3.9098e-21 -1.37251e-15
3.51677e-20 -7.49114e-22 -2.78781e-17
2.24035e-18 2.59639e-22 -1.71051e-15
2.24034e-18 7.78193e-21 -1.71051e-15
-3.50222e-19 -1.58176e-21 2.67381e-16
3.26108e-20 -5.21805e-22 -2.78706e-17
1.79764e-18 -1.14544e-21 -1.37251e-15
1.79763e-18 -3.24106e-21 -1.37251e-15
2.24034e-18 1.03265e-22 -1.71052e-15
2.24035e-18 5.97513e-21 -1.71051e-15
-3.50194e-19 -2.304e-20 2.67382e-16
-3.50182e-19 2.65467e-21 2.67381e-16
0.0266912 0.030716 -0.011731
1.79764e-18 2.10194e-21 -1.37251e-15
0.00609447 0.000507147 -0.0010466
-9.20539e-19 -5.17618e-21 7.02843e-16
2.81056e-18 5.77719e-22 -2.14593e-15
0.00650592 0.000741326 0.000349417
-3.50172e-19 -3.54135e-22 2.67382e-16
5.48525e-16 -2.40724e-17 1.56592e-17
-5.01944e-15 -7.41204e-15 7.69803e-14
1.79757e-18 8.69194e-22 -1.37249e-15
1.79762e-18 3.50198e-22 -1.37251e-15
1.79757e-18 7.18506e-21 -1.37249e-15
2.81057e-18 4.52367e-22 -2.14593e-15
-1.4681e-15 -3.32019e-15 -2.09204e-14
0.00561229 0.000737292 -0.00111366
0.00595263 0.000642263 -0.00111368
1.79756e-18 -2.4331e-21 -1.37249e-15
1.79762e-18 -5.55691e-21 -1.37251e-15
2.00505e-18 5.69366e-22 -1.5309e-15
2.24034e-18 1.28182e-21 -1.71051e-15
0.00637299 0.000679258 -0.000458812
2.81054e-18 -7.21985e-21 -2.14593e-15
1.7976e-18 -2.02003e-23 -1.37251e-15
1.79763e-18 5.91607e-22 -1.37251e-15
0.00589688 0.000874451 0.000208384
1.79756e-18 2.07447e-21 -1.37249e-15
0.00621124 -3.51265e-05 -0.000638044
0.00652864 0.000740862 -6.96927e-05
2.75339e-17 4.95501e-17 4.11998e-16
0.00614796 0.000600349 -0.00110283
0.00596704 0.000525369 -0.00104085
-3.50176e-19 2.82673e-21 2.6738e-16
0.00626329 0.000542591 -0.00107238
-3.50217e-19 5.12429e-22 2.67381e-16
2.24035e-18 -3.35482e-22 -1.71052e-15
1.7976e-18 2.12779e-20 -1.37249e-15
2.00509e-18 3.69494e-21 -1.5309e-15
1.79763e-18 1.25408e-20 -1.37251e-15
0.00712564 0.00180457 -0.00190296
3.92919e-20 4.50752e-21 -2.7879e-17
1.79761e-18 -6.24876e-21 -1.37251e-15
-3.5021e-19 3.27954e-21 2.67381e-16
-3.50179e-19 -9.42863e-23 2.67381e-16
2.24034e-18 2.7068e-21 -1.71052e-15
0.00627812 -5.15798e-05 -0.000624442
2.24034e-18 -3.19589e-21 -1.71052e-15
0.00398417 0.00150342 -0.00134982
-3.50215e-19 -3.32561e-23 2.67382e-16
0.00566919 0.00109119 -0.00132068
4.36574e-15 1.04675e-14 8.29588e-14
-5.40357e-15 6.61458e-15 4.46794e-14
0.00650936 0.000726881 -0.000197835
0.00630183 -6.49044e-05 -0.000625274
0.00780089 0.00316472 -0.00275348
0.00621307 -3.33788e-05 -0.0006398
-3.50175e-19 2.0047e-20 2.67381e-16
2.81054e-18 -7.82918e-22 -2.14593e-15
1.79761e-18 1.90127e-20 -1.37249e-15
-9.20543e-19 1.06213e-22 7.02843e-16
0.00589817 0.000390498 -0.00067634
0.00752016 0.000549443 0.000537031
0.00634063 0.000405515 -0.00101951
2.81056e-18 -1.68864e-21 -2.14593e-15
-3.50179e-19 8.43773e-21 2.6738e-16
1.66305e-18 -1.80377e-14 -5.94669e-14
0.00493221 0.00222459 -0.00187741
2.24036e-18 -1.85854e-22 -1.71051e-15
2.24035e-18 -1.3538e-23 -1.71051e-15
1.45282e-18 -1.65005e-20 -1.10923e-15
1.79763e-18 -5.72226e-21 -1.37251e-15
0.00626386 0.000540741 -0.00108488
-6.70511e-20 -8.9807e-21 5.11809e-17
1.79759e-18 1.24686e-21 -1.37249e-15
0.00626211 -4.42699e-05 -0.000632284
2.24032e-18 -5.04141e-21 -1.71052e-15
2.24034e-18 -8.79388e-22 -1.71052e-15
0.0041544 0.00181489 -0.00153939
0.00563672 0.00698071 -0.00462892
1.79761e-18 -1.27874e-21 -1.37249e-15
2.24036e-18 -2.81975e-21 -1.71052e-15
1.79758e-18 5.57006e-21 -1.37249e-15
2.81055e-18 -1.73475e-21 -2.14593e-15
0.00752599 0.000548538 0.000538322
-3.50174e-19 -5.34447e-22 2.67381e-16
2.24036e-18 -1.3384e-20 -1.71052e-15
1.79757e-18 2.14352e-22 -1.37249e-15
0.00593073 0.000856734 0.000240387
0.006174 0.000560381 -0.00108212
0.0062386 -3.66003e-05 -0.000640848
0.00589806 0.0007001 -0.00116966
0.00624219 0.000785079 0.000303811
0.0068606 0.000960282 -0.00140141
0.00593529 0.000892267 0.000225184
1.79757e-18 1.61851e-21 -1.37249e-15
0.00610949 0.000631884 -0.00111002
0.00569087 -0.000123304 -0.000696565
0.00589176 0.000899236 0.000219549
0.00568375 -0.000181252 5.71939e-05
0.00574113 0.00065257 -0.00107714
0.00601116 0.000884018 0.000237156
-3.82974e-14 8.16859e-14 2.95887e-13
0.00649198 0.000728703 0.000353435
2.81055e-18 1.17116e-21 -2.14593e-15
0.0056712 0.000745286 -0.00113377
0.00652847 0.000721662 -7.29647e-05
0.00611013 0.0010259 -0.00202119
0.00599623 0.000689431 -0.0011349
2.81059e-18 -5.11557e-22 -2.14593e-15
0.0060646 0.000523827 -0.00108152
0.00614551 0.000583811 -0.00109947
0.00600444 0.000679591 -0.00112614
0.00658015 0.00302689 -0.00252362
2.81054e-18 2.9971e-21 -2.14593e-15
0.00585569 0.000869275 0.000225447
2.24033e-18 -6.11423e-21 -1.71052e-15
0.00632207 0.00060645 4.56489e-05
0.00916136 0.00599457 -0.00451476
0.00684987 0.000296505 -0.000952489
0.00605557 0.000658148 -0.00112091
0.0062017 0.000574485 -0.00107363
1.79759e-18 -9.96468e-21 -1.37249e-15
0.0065236 0.000740119 0.000351671
1.79756e-18 -1.0014e-21 -1.37249e-15
0.00685473 0.000518226 -0.00116366
0.00650092 0.000642562 -0.00113611
2.24035e-18 5.23735e-21 -1.71052e-15
2.24036e-18 1.99666e-22 -1.71052e-15
-2.85697e-17 -4.95578e-17 4.12036e-16
0.00620457 0.000170651 0.000160718
-9.20568e-19 -4.90238e-24 7.02843e-16
0.00651642 0.000749078 0.000347086
-3.50193e-19 8.47285e-22 2.67381e-16
0.00655313 0.000764875 -7.9602e-05
0.00626403 0.000549785 -0.00109047
0.00601947 0.0005616 -0.00107111
0.00565836 6.84082e-05 -0.000317375
0.00603292 0.000517482 -0.00104405
0.0064151 0.000625128 -0.000440473
0.00611007 0.000886581 0.000246289
0.00637761 0.000650557 -0.000449004
0.00774476 0.00151414 -0.00181816
2.24034e-18 2.69685e-21 -1.71051e-15
0.00654753 0.000750204 -8.23703e-05
0.00607899 0.000849019 0.000259241
0.00617836 0.00083527 0.000274617
0.0061129 0.00052178 -0.00106072
0.00651596 0.000732052 0.000354343
2.24033e-18 -7.30662e-21 -1.71051e-15
2.24036e-18 4.84755e-22 -1.71052e-15
0.00652193 0.000742394 -7.47178e-05
1.79759e-18 2.09598e-21 -1.37251e-15
2.24032e-18 6.30981e-22 -1.71051e-15
0.00559726 -1.58531e-05 0.000188535
0.00632474 0.000184551 -0.000410652
-3.50219e-19 -1.50358e-21 2.67381e-16
0.00634663 0.000218712 -0.000908211
8.71363e-19 -3.76447e-22 -6.65297e-16
0.00575874 0.000456572 -0.000969856
8.71383e-19 7.95905e-21 -6.65296e-16
0.00599369 0.000867525 0.000242464
1.7976e-18 5.37885e-21 -1.37249e-15
0.00627885 0.000582972 -0.00111169
0.00560353 4.87245e-05 0.000172686
0.00557869 -0.000141984 0.000216935
0.00629202 0.000526919 -0.000990175
0.00605521 0.000818012 0.000270676
0.00647041 0.000693965 -0.000400514
0.00584837 0.000439747 -0.00102004
2.24031e-18 -3.01328e-23 -1.71052e-15
0.00614739 0.000798244 0.000287918
0.00592468 0.000857837 0.000239366
0.00587587 0.000867034 0.000230727
0.00573023 -0.000213663 -0.000129048
0.0055224 -0.000255262 -8.64034e-05
0.005707 -0.000216264 -0.000126248
0.00607012 0.000883127 0.000243596
0.00592883 0.00056843 -0.00105836
0.00575359 -0.00021001 -0.000132642
0.0053509 -0.000431305 -0.00143582
0.00608623 0.000568749 -0.00108344
0.00492092 1.32476e-05 -0.000247459
-0.000310163 -0.0161889 0.00880884
2.24035e-18 1.23099e-21 -1.71052e-15
0.00548551 -1.50458e-05 0.000229432
0.00615791 6.81383e-05 0.000187811
0.00566679 -5.68553e-05 -0.000213869
0.00641676 0.000706227 -0.000460456
0.00636117 0.000755571 -0.000466919
0.00754024 0.000566715 0.000530845
0.00628707 0.000640583 -0.00113105
0.00561309 -0.000231648 0.000236924
0.00591429 0.000772895 -0.00117299
0.0062344 0.000555799 -0.00108943
0.00588296 0.00058464 -0.00106088
0.00569756 5.3907e-05 -0.000306912
0.00871449 0.00390712 -0.00327215
0.00627408 0.000269109 0.00014467
0.0063752 0.000421751 -0.00106082
0.00475754 0.000757523 -0.00101976
0.00599367 0.000831539 -0.00122101
-3.50183e-19 1.71309e-21 2.6738e-16
0.00636143 0.000657284 -0.000455052
0.00558383 -0.000114488 0.000212585
0.00612645 0.000844068 0.000266088
0.00561068 -0.000128488 0.000217316
0.00393224 0.00179336 -0.00140832
0.00628801 0.000779966 0.000309041
0.00652266 0.000385098 -0.00159365
0.00544788 -0.000105873 0.000206273
0.00548962 5.33218e-06 0.000181269
0.00605859 0.000512439 -0.00100758
0.00578856 -0.000161562 -0.000166813
0.00601345 0.000829954 0.000260438
0.00594211 0.000871913 0.000235169
0.00641837 0.000667275 -0.000449056
0.0060967 0.000809289 0.000278403
0.00616379 0.000546475 -0.00107538
0.00631161 -5.61158e-05 -0.000618641
0.00586293 0.000875126 0.000216864
0.00652539 0.000745129 -6.21983e-05
0.00652057 0.000706709 -7.22443e-05
0.00650479 0.000516977 -0.00109275
0.00596943 0.000844348 0.000249601
0.00607979 -2.86046e-06 0.000206043
0.00619445 0.000790263 0.000295813
2.81058e-18 -5.34758e-21 -2.14593e-15
0.00553005 -6.14807e-07 -0.00025647
0.00562933 0.000153532 -0.000328996
-3.50206e-19 -8.70936e-22 2.67381e-16

VECTORS force float
0.0 2.08493e-26 0.0
0.0 4.16984e-26 0.0
4.03897e-28 -1.61406e-26 0.0
0.0 -2.2328e-25 0.0
0.0 4.99008e-27 0.0
0.0 1.99134e-26 0.0
0.0 -1.12958e-26 0.0
0.0 0.0 0.0
0.0 -3.55857e-25 0.0
0.0 -1.16568e-25 0.0
-2.48993e-10 2.48896e-10 -2.71525e-10
0.0 -3.59947e-26 0.0
5.44169e-11 -6.22143e-11 2.37352e-12
7.58771e-11 -1.08693e-10 -2.18265e-10
0.0 -1.04228e-28 0.0
4.03897e-28 3.92136e-26 0.0
-4.03897e-28 1.08273e-25 0.0
0.0 -8.06741e-27 0.0
-9.33039e-11 -3.87071e-11 1.41534e-11
-4.03897e-28 -4.0855e-27 0.0
0.0 9.39567e-27 0.0
2.59192e-11 1.4441e-11 -1.99132e-12
0.0 8.57855e-26 0.0
0.0 9.70374e-26 0.0
0.0 -3.26664e-27 0.0
-2.58494e-26 0.0 0.0
3.98361e-21 1.1503e-22 2.10931e-23
0.0 -1.10797e-26 0.0
0.0 -1.47573e-25 0.0
0.0 2.58494e-26 0.0
0.0 5.68347e-26 0.0
4.03897e-28 6.39317e-26 0.0
0.0 1.91884e-26 0.0
0.0 0.0 0.0
0.0 3.32682e-26 0.0
0.0 2.61496e-26 0.0
0.0 3.06867e-28 0.0
0.0 -6.49003e-26 0.0
0.0 -3.42459e-25 0.0
0.0 2.88669e-26 0.0
4.20485e-10 4.98184e-11 -1.07801e-10
0.0 -8.51859e-27 0.0
2.4295e-10 -5.58295e-11 8.31132e-12
0.0 -1.64871e-26 0.0
0.0 2.12155e-26 0.0
-3.13734e-11 -1.0648e-11 6.28779e-13
0.0 -2.90755e-27 0.0
0.0 0.0 0.0
8.23303e-24 -2.11965e-24 4.1359e-25
0.0 -7.1711e-26 0.0
0.0 -8.56357e-27 0.0
0.0 4.18231e-27 0.0
0.0 1.3167e-27 0.0
-1.53545e-23 8.4269e-24 -2.06795e-25
1.85496e-10 -1.61047e-10 1.7918e-10
-8.63926e-10 -1.01883e-09 6.48593e-10
0.0 -7.29587e-26 0.0
0.0 5.0283e-26 0.0
0.0 -8.4568e-28 0.0
0.0 8.39835e-27 0.0
-1.76385e-10 1.21976e-10 4.53459e-11
0.0 8.67979e-26 0.0
0.0 -1.42376e-26 0.0
4.03897e-28 -1.63151e-26 0.0
-7.79568e-11 -6.85725e-12 -5.0728e-11
0.0 -1.26483e-25 0.0
1.31657e-10 9.57435e-12 -3.46562e-11
1.26582e-10 -2.09501e-11 1.0878e-10
1.18599e-21 2.09508e-21 2.06795e-24
9.89643e-13 2.40504e-10 -1.21284e-10
3.67576e-11 8.3866e-11 -7.31438e-11
0.0 -2.20592e-26 0.0
-3.1216e-10 2.79392e-10 -1.96516e-10
0.0 -1.59878e-25 0.0
0.0 3.54716e-27 0.0
0.0 5.38588e-25 0.0
0.0 6.57279e-26 0.0
0.0 -3.69838e-25 0.0
7.25902e-10 -6.47027e-10 2.39774e-10
0.0 0.0 0.0
0.0 -5.00244e-26 0.0
0.0 -7.81472e-27 0.0
0.0 9.27361e-28 0.0
0.0 -5.50469e-26 0.0
1.68963e-10 -3.38767e-11 -8.87127e-11
0.0 2.68241e-27 0.0
-4.70993e-10 -6.53203e-11 9.7126e-11
0.0 -1.8695e-28 0.0
9.3307e-12 3.2908e-11 -2.07814e-11
-8.27943e-22 7.26601e-22 -4.92172e-23
9.86361e-22 7.27609e-22 1.34417e-23
1.55824e-10 -1.79435e-10 2.55316e-11
-1.0119e-10 8.42348e-12 -8.89717e-12
-3.27405e-11 7.71366e-11 -3.97688e-11
2.60893e-11 -5.72805e-11 8.44723e-11
0.0 2.82968e-26 0.0
0.0 -5.17573e-27 0.0
0.0 8.66565e-26 0.0
0.0 1.89218e-27 0.0
2.66876e-09 -1.82213e-09 6.75537e-09
3.07203e-11 4.21142e-12 7.96953e-12
1.72748e-11 9.58441e-11 -5.40787e-11
0.0 6.20158e-26 0.0
0.0 -2.13992e-27 0.0
-2.56083e-23 0.0 0.0
-5.47794e-11 -1.88403e-09 1.02024e-09
0.0 1.51657e-26 0.0
0.0 -2.35312e-27 0.0
0.0 7.52926e-26 0.0
0.0 1.99877e-26 0.0
-1.49979e-10 -1.67441e-10 -2.21438e-10
0.0 3.70439e-26 0.0
0.0 3.88009e-26 0.0
1.58033e-10 -1.00869e-11 -4.2639e-12
0.0 8.38196e-26 0.0
0.0 -2.71147e-26 0.0
-1.46152e-09 -1.33452e-09 5.56818e-10
-5.67272e-11 1.3653e-10 -7.04678e-11
0.0 1.34064e-26 0.0
0.0 1.68337e-26 0.0
0.0 3.76286e-26 0.0
0.0 -6.48261e-27 0.0
8.29136e-11 -3.39828e-11 2.81477e-11
0.0 -8.09573e-27 0.0
0.0 4.19174e-27 0.0
-4.03897e-28 -2.90302e-27 0.0
1.10439e-10 7.75473e-11 -2.1096e-11
-3.47096e-11 1.94026e-10 -6.77831e-11
-2.1401e-10 -2.80086e-11 7.53327e-11
2.87065e-09 -3.58498e-10 6.19051e-10
3.0954e-11 -8.77304e-12 2.82351e-11
5.92018e-10 4.74146e-10 -2.22786e-10
-1.94245e-11 -5.79223e-12 1.21127e-11
0.0 -8.30766e-26 0.0
2.83193e-11 3.81986e-10 7.32183e-11
2.20432e-09 1.49237e-09 1.75927e-09
-5.76905e-11 6.16503e-11 6.98566e-12
-2.24425e-13 1.46964e-14 3.98508e-15
1.15639e-09 -9.07435e-10 7.96012e-10
-5.31474e-12 1.00136e-11 -5.7606e-12
1.17796e-22 2.46913e-22 -6.49337e-23
1.2967e-11 4.17065e-11 -1.66814e-11
0.0 2.1998e-26 0.0
2.00731e-10 -5.02573e-10 2.53503e-11
-1.3775e-11 7.99373e-12 1.98998e-11
-3.80941e-10 1.49396e-10 8.43597e-11
2.86296e-10 4.07407e-10 -1.20001e-10