# vtk DataFile Version 3.0
LIGGGHTS particles timestep 64200000
ASCII
DATASET POLYDATA
POINTS 269 float
0.383849 0.0181766 5.15723e-05
0.384161 0.0168553 5.19814e-05
0.384337 0.018343 5.22125e-05
0.384985 0.0167532 5.30605e-05
0.385042 0.017898 5.31356e-05
0.384332 0.0189209 5.22048e-05
0.384815 0.0184943 5.2838e-05
0.383699 0.0197065 5.13762e-05
0.384897 0.0166342 5.29453e-05
0.383873 0.0188963 5.1604e-05
0.381747 0.0178828 0.0070414
0.384297 0.0184546 5.21599e-05
0.381884 0.0190333 0.00679406
0.381724 0.0187931 0.00681399
0.384181 0.0175773 5.20076e-05
0.383665 0.0199562 5.13319e-05
0.383587 0.0186072 5.12303e-05
0.384631 0.0163672 5.25967e-05
0.381916 0.018897 0.00680344
0.384067 0.0187379 5.18589e-05
0.383579 0.0183141 5.12198e-05
0.381236 0.016627 0.00781154
0.384165 0.0187755 5.19868e-05
0.384177 0.0169565 5.20019e-05
0.384041 0.0178782 5.18242e-05
0.383781 0.0180165 5.14835e-05
0.247451 0.0181454 0.00545794
0.383853 0.017754 5.1578e-05
0.384811 0.0177235 5.28325e-05
0.383685 0.0180481 5.13583e-05
0.383887 0.0178555 5.16226e-05
0.384669 0.0171089 5.26472e-05
0.383732 0.0198062 5.1419e-05
0.383743 0.0180641 0.0001311
0.384095 0.0180237 5.18945e-05
0.384132 0.0181747 5.19429e-05
0.384081 0.0172848 5.18767e-05
0.384499 0.0170282 5.24241e-05
0.383947 0.0192116 5.17008e-05
0.384007 0.0193518 5.17792e-05
0.383696 0.017623 0.00787095
0.384413 0.0178972 5.23119e-05
0.381797 0.0181567 0.00693832
0.384683 0.0175025 5.26645e-05
0.383667 0.0188287 5.1335e-05
0.381368 0.0171408 0.007506
0.383629 0.0195694 5.12842e-05
0.383629 0.019709 0.000122679
0.378022 0.019866 0.005332
0.383908 0.0180619 5.16502e-05
0.38486 0.0175718 5.28966e-05
0.38382 0.018374 5.15343e-05
0.383581 0.018454 5.12221e-05
0.383269 0.0178073 0.0053438
0.381452 0.0176875 0.0072763
0.38156 0.0180091 0.00700036
0.384069 0.018253 5.18613e-05
0.384886 0.0183819 5.29308e-05
0.383709 0.0207704 5.1389e-05
0.384524 0.0161893 5.24575e-05
0.381685 0.0185979 0.00683381
0.384013 0.0194938 5.17876e-05
0.385165 0.0173714 5.3297e-05
0.384184 0.0179479 5.20117e-05
0.381303 0.016889 0.00765569
0.384208 0.0182441 5.2043e-05
0.380838 0.0154531 0.00860222
0.381743 0.0188908 0.00680407
0.384015 0.0173598 5.17901e-05
0.381624 0.0182344 0.00691975
0.381748 0.0179735 0.00699922
0.383996 0.0188405 5.17657e-05
0.381548 0.0183575 0.00688293
0.384473 0.0190617 5.239e-05
0.38418 0.0172542 5.20058e-05
0.384642 0.0180833 5.26118e-05
0.383831 0.0209331 5.15494e-05
0.384426 0.0180813 5.23291e-05
0.381527 0.0173678 0.00735854
0.383766 0.0181204 5.14635e-05
0.384798 0.0189219 5.28158e-05
0.383762 0.0184943 5.14585e-05
0.38366 0.0185154 5.13256e-05
0.385068 0.0173509 5.31688e-05
0.380913 0.01573 0.00834612
0.384429 0.0175728 5.23326e-05
0.381363 0.0175207 0.00729305
0.383719 0.0184039 5.14023e-05
0.381384 0.0176046 0.00724315
0.0643568 0.0187248 0.00531097
0.230779 0.0182774 0.00551293
0.381648 0.018858 0.0068074
0.380932 0.0158187 0.008304
0.381408 0.0173093 0.00740619
0.380856 0.0154903 0.00851111
0.383672 0.0190653 5.13415e-05
0.38383 0.0193287 5.15482e-05
0.384903 0.0182202 5.29528e-05
0.38386 0.017954 5.15869e-05
0.381472 0.0177743 0.00722593
0.381249 0.0170793 0.00755547
0.381319 0.0173528 0.00739285
0.38433 0.0192224 5.22022e-05
0.383833 0.0187126 5.15519e-05
0.383548 0.0176887 0.00536951
0.381549 0.0174515 0.00730868
0.383723 0.0179338 5.14079e-05
0.384201 0.0170737 5.2034e-05
0.385676 0.0164514 5.39659e-05
0.384717 0.0178049 5.27096e-05
0.381566 0.0184508 0.00685215
0.38514 0.0150589 5.32639e-05
0.384385 0.0182228 5.22753e-05
0.380895 0.0156391 0.00838338
0.384137 0.0173755 5.19503e-05
0.384098 0.0171633 5.18995e-05
0.381452 0.0174772 0.00730639
0.381482 0.0175836 0.00724279
0.385057 0.0180859 5.31545e-05
0.38396 0.0179528 5.17179e-05
0.384148 0.0183693 5.19642e-05
0.383888 0.0195362 5.16234e-05
0.381347 0.0170569 0.00755589
0.383834 0.0196942 5.15529e-05
0.384267 0.0171493 5.21198e-05
0.384697 0.0179052 5.26838e-05
0.38138 0.0167794 0.00770785
0.381791 0.0183004 0.00689222
0.380876 0.0155629 0.0084452
0.381591 0.0176194 0.00720911
0.381034 0.0162399 0.00805445
0.38143 0.0173933 0.00735629
0.3814 0.0168636 0.00765794
0.385009 0.0182995 5.30925e-05
0.381622 0.0181888 0.00700873
0.381428 0.0177842 0.00713664
0.381422 0.0169475 0.00760805
0.369429 0.0177795 0.00699509
0.381479 0.0178648 0.00716741
0.381357 0.0166957 0.00775773
0.0219312 0.0187687 0.00551176
0.381466 0.0171152 0.00750827
0.383767 0.018816 5.14655e-05
0.381408 0.0176993 0.0071869
0.381831 0.0188442 0.0068088
0.381399 0.0175087 0.00738539
0.381492 0.0180776 0.00697524
0.383754 0.0192528 5.1449e-05
0.381728 0.0181173 0.0070344
0.381529 0.0182642 0.0069137
0.381546 0.0181068 0.00705366
0.38151 0.0181709 0.00694447
0.383731 0.0186905 5.14178e-05
0.381228 0.0169953 0.00760537
0.384719 0.0172091 5.27122e-05
0.380991 0.0160719 0.00815425
0.381507 0.0172835 0.00740845
0.381377 0.0174244 0.00743531
0.381586 0.018108 0.00696191
0.381744 0.0183053 0.00698047
0.384102 0.0184964 5.1904e-05
0.381298 0.0172689 0.00744275
0.384595 0.0179247 5.255e-05
0.38161 0.0177038 0.00715917
0.38173 0.0184755 0.0069169
0.384415 0.0170853 5.23146e-05
0.383828 0.017652 5.15458e-05
0.383928 0.0174091 5.16761e-05
0.375531 0.0182735 0.00699129
0.384138 0.0174868 5.19518e-05
0.381271 0.0171632 0.00750558
0.384008 0.0190136 5.17811e-05
0.381784 0.0190339 0.00679517
0.381653 0.0184049 0.00687075
0.381683 0.0180464 0.00697817
0.3752 0.0167906 0.00746115
0.381781 0.0180629 0.00696914
0.381888 0.0186849 0.00682497
0.381311 0.0165286 0.00785747
0.381817 0.0186142 0.00683214
0.381487 0.0171992 0.00745836
0.384546 0.016623 5.24856e-05
0.381686 0.019054 0.00679825
0.381211 0.0165371 0.0078651
0.381159 0.0163545 0.00797437
0.381859 0.0182304 0.00691224
0.38139 0.0172247 0.00745611
0.384245 0.0173487 5.20914e-05
0.383892 0.0175594 5.16296e-05
0.381827 0.0189436 0.00679872
0.384483 0.0183628 5.2403e-05
0.384694 0.0169414 5.26791e-05
0.375432 0.0178008 0.00712025
0.380971 0.0159876 0.00820416
0.384003 0.0191287 5.17745e-05
0.381341 0.0174368 0.00734295
0.384925 0.0197338 5.29819e-05
0.381503 0.0176676 0.00719289
0.384753 0.0202044 5.27567e-05
0.381259 0.0167166 0.00775819
0.384935 0.0176618 5.29946e-05
0.381752 0.0183893 0.00686762
0.375452 0.0178957 0.0070959
0.375391 0.0176104 0.00716619
0.381665 0.0185004 0.0068437
0.38112 0.0165757 0.00785486
0.381628 0.0187604 0.00681731
0.381451 0.0178895 0.00707458
0.383776 0.0178205 5.14777e-05
0.381077 0.0164078 0.00795465
0.381184 0.0168275 0.00770517
0.381206 0.0169114 0.00765527
0.375094 0.0163984 0.00775025
0.375157 0.0166293 0.00757139
0.375073 0.0163316 0.00782196
0.381334 0.016612 0.00780761
0.381646 0.0179625 0.00701871
0.375114 0.0164681 0.00768164
0.375307 0.0172302 0.00725786
0.381685 0.0181415 0.00694742
0.375243 0.0169548 0.00735532
0.383326 0.0172618 0.00803034
0.384235 0.017459 5.20777e-05
0.375329 0.0173252 0.00723498
0.375512 0.0181789 0.00701748
0.375265 0.0170444 0.00731704
0.381609 0.0186628 0.00682722
0.38159 0.0185652 0.00683712
0.381444 0.0170313 0.00755816
0.381697 0.0183912 0.00695948
0.37535 0.0174201 0.00721211
0.381469 0.0179742 0.00702466
0.381682 0.0183117 0.00689293
0.381562 0.0179286 0.00705975
0.375221 0.0168713 0.00740598
0.381435 0.0176046 0.00732956
0.37555 0.0183681 0.0069651
0.381523 0.0177519 0.00714297
0.381577 0.0175338 0.00725894
0.38165 0.0178728 0.00706269
0.38397 0.0186996 5.17315e-05
0.38176 0.0185325 0.00684044
0.375411 0.0177056 0.00714322
0.381182 0.0164393 0.0079238
0.375371 0.0175152 0.00718918
0.381516 0.0175471 0.00733726
0.381012 0.0161559 0.00810435
0.381641 0.0177849 0.00710966
0.375626 0.0183048 0.00698215
0.375472 0.0179901 0.00706976
0.38154 0.017837 0.00709317
0.375135 0.0165488 0.00762648
0.381141 0.0166596 0.00780496
0.381282 0.0168051 0.00770559
0.381704 0.0186955 0.0068239
0.381099 0.0164916 0.00790476
0.381729 0.0182273 0.00691985
0.380952 0.0159032 0.00825411
0.381325 0.016973 0.00760579
0.381667 0.018956 0.00679746
0.381909 0.0187821 0.00681511
0.381824 0.0184559 0.00684822
0.381163 0.0167435 0.00775506
0.375492 0.0180845 0.00704363
0.381055 0.0163239 0.00800455
0.383631 0.0187173 5.12867e-05
0.375178 0.0167101 0.00751623
0.375286 0.0171352 0.00728074
0.384681 0.0189793 5.2662e-05

VERTICES 269 538
1 0
1 1
1 2
1 3
1 4
1 5
1 6
1 7
1 8
1 9
1 10
1 11
1 12
1 13
1 14
1 15
1 16
1 17
1 18
1 19
1 20
1 21
1 22
1 23
1 24
1 25
1 26
1 27
1 28
1 29
1 30
1 31
1 32
1 33
1 34
1 35
1 36
1 37
1 38
1 39
1 40
1 41
1 42
1 43
1 44
1 45
1 46
1 47
1 48
1 49
1 50
1 51
1 52
1 53
1 54
1 55
1 56
1 57
1 58
1 59
1 60
1 61
1 62
1 63
1 64
1 65
1 66
1 67
1 68
1 69
1 70
1 71
1 72
1 73
1 74
1 75
1 76
1 77
1 78
1 79
1 80
1 81
1 82
1 83
1 84
1 85
1 86
1 87
1 88
1 89
1 90
1 91
1 92
1 93
1 94
1 95
1 96
1 97
1 98
1 99
1 100
1 101
1 102
1 103
1 104
1 105
1 106
1 107
1 108
1 109
1 110
1 111
1 112
1 113
1 114
1 115
1 116
1 117
1 118
1 119
1 120
1 121
1 122
1 123
1 124
1 125
1 126
1 127
1 128
1 129
1 130
1 131
1 132
1 133
1 134
1 135
1 136
1 137
1 138
1 139
1 140
1 141
1 142
1 143
1 144
1 145
1 146
1 147
1 148
1 149
1 150
1 151
1 152
1 153
1 154
1 155
1 156
1 157
1 158
1 159
1 160
1 161
1 162
1 163
1 164
1 165
1 166
1 167
1 168
1 169
1 170
1 171
1 172
1 173
1 174
1 175
1 176
1 177
1 178
1 179
1 180
1 181
1 182
1 183
1 184
1 185
1 186
1 187
1 188
1 189
1 190
1 191
1 192
1 193
1 194
1 195
1 196
1 197
1 198
1 199
1 200
1 201
1 202
1 203
1 204
1 205
1 206
1 207
1 208
1 209
1 210
1 211
1 212
1 213
1 214
1 215
1 216
1 217
1 218
1 219
1 220
1 221
1 222
1 223
1 224
1 225
1 226
1 227
1 228
1 229
1 230
1 231
1 232
1 233
1 234
1 235
1 236
1 237
1 238
1 239
1 240
1 241
1 242
1 243
1 244
1 245
1 246
1 247
1 248
1 249
1 250
1 251
1 252
1 253
1 254
1 255
1 256
1 257
1 258
1 259
1 260
1 261
1 262
1 263
1 264
1 265
1 266
1 267
1 268

POINT_DATA 269
SCALARS id int 1
LOOKUP_TABLE default
1
2
4
5
6
7
8
9
10
11
12
13
14
16
17
19
21
22
23
24
26
27
28
29
30
31
32
33
35
36
37
38
39
41
42
44
45
47
48
49
50
51
52
53
54
55
56
57
59
60
61
62
63
64
65
66
67
68
69
70
71
72
73
74
76
77
78
79
80
82
83
84
85
86
87
88
89
90
91
92
93
94
95
96
97
98
99
100
101
102
103
104
105
106
107
108
109
110
111
112
113
114
115
116
117
118
119
120
121
122
123
124
125
127
128
129
130
131
132
133
134
135
136
137
138
140
141
142
143
144
146
147
148
149
150
151
153
154
155
156
157
158
159
160
162
164
165
166
167
168
169
170
171
172
173
174
176
177
178
179
182
183
184
185
186
187
188
189
190
191
192
193
194
195
196
197
198
199
200
201
202
203
204
206
207
208
209
210
211
212
213
214
215
216
217
218
219
220
222
224
225
226
227
228
229
230
232
233
234
235
236
237
239
240
241
242
243
244
246
248
249
250
251
252
253
254
255
256
257
258
259
260
261
262
263
264
265
266
268
269
270
271
272
273
274
275
276
278
279
280
281
283
284
285
286
287
288
289
290
291
292
293
294
295
296
297
298
299
300

SCALARS type int 1
LOOKUP_TABLE default
1
1
1
1
1
1
1
1
1
1
1
1
1
1
1
1
1
1
1
1
1
1
1
1
1
1
1
1
1
1
1
1
1
1
1
1
1
1
1
1
1
1
1
1
1
1
1
1
1
1
1
1
1
1
1
1
1
1
1
1
1
1
1
1
1
1
1
1
1
1
1
1
1
1
1
1
1
1
1
1
1
1
1
1
1
1
1
1
1
1
1
1
1
1
1
1
1
1
1
1
1
1
1
1
1
1
1
1
1
1
1
1
1
1
1
1
1
1
1
1
1
1
1
1
1
1
1
1
1
1
1
1
1
1
1
1
1
1
1
1
1
1
1
1
1
1
1
1
1
1
1
1
1
1
1
1
1
1
1
1
1
1
1
1
1
1
1
1
1
1
1
1
1
1
1
1
1
1
1
1
1
1
1
1
1
1
1
1
1
1
1
1
1
1
1
1
1
1
1
1
1
1
1
1
1
1
1
1
1
1
1
1
1
1
1
1
1
1
1
1
1
1
1
1
1
1
1
1
1
1
1
1
1
1
1
1
1
1
1
1
1
1
1
1
1
1
1
1
1
1
1
1
1
1
1
1
1
1
1
1
1
1
1
1
1
1
1
1
1

SCALARS radius float 1
LOOKUP_TABLE default
5e-05
5e-05
5e-05
5e-05
5e-05
5e-05
5e-05
5e-05
5e-05
5e-05
5e-05
5e-05
5e-05
5e-05
5e-05
5e-05
5e-05
5e-05
5e-05
5e-05
5e-05
5e-05
5e-05
5e-05
5e-05
5e-05
5e-05
5e-05
5e-05
5e-05
5e-05
5e-05
5e-05
5e-05
5e-05
5e-05
5e-05
5e-05
5e-05
5e-05
5e-05
5e-05
5e-05
5e-05
5e-05
5e-05
5e-05
5e-05
5e-05
5e-05
5e-05
5e-05
5e-05
5e-05
5e-05
5e-05
5e-05
5e-05
5e-05
5e-05
5e-05
5e-05
5e-05
5e-05
5e-05
5e-05
5e-05
5e-05
5e-05
5e-05
5e-05
5e-05
5e-05
5e-05
5e-05
5e-05
5e-05
5e-05
5e-05
5e-05
5e-05
5e-05
5e-05
5e-05
5e-05
5e-05
5e-05
5e-05
5e-05
5e-05
5e-05
5e-05
5e-05
5e-05
5e-05
5e-05
5e-05
5e-05
5e-05
5e-05
5e-05
5e-05
5e-05
5e-05
5e-05
5e-05
5e-05
5e-05
5e-05
5e-05
5e-05
5e-05
5e-05
5e-05
5e-05
5e-05
5e-05
5e-05
5e-05
5e-05
5e-05
5e-05
5e-05
5e-05
5e-05
5e-05
5e-05
5e-05
5e-05
5e-05
5e-05
5e-05
5e-05
5e-05
5e-05
5e-05
5e-05
5e-05
5e-05
5e-05
5e-05
5e-05
5e-05
5e-05
5e-05
5e-05
5e-05
5e-05
5e-05
5e-05
5e-05
5e-05
5e-05
5e-05
5e-05
5e-05
5e-05
5e-05
5e-05
5e-05
5e-05
5e-05
5e-05
5e-05
5e-05
5e-05
5e-05
5e-05
5e-05
5e-05
5e-05
5e-05
5e-05
5e-05
5e-05
5e-05
5e-05
5e-05
5e-05
5e-05
5e-05
5e-05
5e-05
5e-05
5e-05
5e-05
5e-05
5e-05
5e-05
5e-05
5e-05
5e-05
5e-05
5e-05
5e-05
5e-05
5e-05
5e-05
5e-05
5e-05
5e-05
5e-05
5e-05
5e-05
5e-05
5e-05
5e-05
5e-05
5e-05
5e-05
5e-05
5e-05
5e-05
5e-05
5e-05
5e-05
5e-05
5e-05
5e-05
5e-05
5e-05
5e-05
5e-05
5e-05
5e-05
5e-05
5e-05
5e-05
5e-05
5e-05
5e-05
5e-05
5e-05
5e-05
5e-05
5e-05
5e-05
5e-05
5e-05
5e-05
5e-05
5e-05
5e-05
5e-05
5e-05
5e-05
5e-05
5e-05
5e-05
5e-05
5e-05
5e-05
5e-05
5e-05
5e-05
5e-05
5e-05
5e-05
5e-05
5e-05
5e-05
5e-05
5e-05
5e-05
5e-05
5e-05
5e-05
5e-05
5e-05

SCALARS mass float 1
LOOKUP_TABLE default
1.46608e-10
1.46608e-10
1.46608e-10
1.46608e-10
1.46608e-10
1.46608e-10
1.46608e-10
1.46608e-10
1.46608e-10
1.46608e-10
1.46608e-10
1.46608e-10
1.46608e-10
1.46608e-10
1.46608e-10
1.46608e-10
1.46608e-10
1.46608e-10
1.46608e-10
1.46608e-10
1.46608e-10
1.46608e-10
1.46608e-10
1.46608e-10
1.46608e-10
1.46608e-10
1.46608e-10
1.46608e-10
1.46608e-10
1.46608e-10
1.46608e-10
1.46608e-10
1.46608e-10
1.46608e-10
1.46608e-10
1.46608e-10
1.46608e-10
1.46608e-10
1.46608e-10
1.46608e-10
1.46608e-10
1.46608e-10
1.46608e-10
1.46608e-10
1.46608e-10
1.46608e-10
1.46608e-10
1.46608e-10
1.46608e-10
1.46608e-10
1.46608e-10
1.46608e-10
1.46608e-10
1.46608e-10
1.46608e-10
1.46608e-10
1.46608e-10
1.46608e-10
1.46608e-10
1.46608e-10
1.46608e-10
1.46608e-10
1.46608e-10
1.46608e-10
1.46608e-10
1.46608e-10
1.46608e-10
1.46608e-10
1.46608e-10
1.46608e-10
1.46608e-10
1.46608e-10
1.46608e-10
1.46608e-10
1.46608e-10
1.46608e-10
1.46608e-10
1.46608e-10
1.46608e-10
1.46608e-10
1.46608e-10
1.46608e-10
1.46608e-10
1.46608e-10
1.46608e-10
1.46608e-10
1.46608e-10
1.46608e-10
1.46608e-10
1.46608e-10
1.46608e-10
1.46608e-10
1.46608e-10
1.46608e-10
1.46608e-10
1.46608e-10
1.46608e-10
1.46608e-10
1.46608e-10
1.46608e-10
1.46608e-10
1.46608e-10
1.46608e-10
1.46608e-10
1.46608e-10
1.46608e-10
1.46608e-10
1.46608e-10
1.46608e-10
1.46608e-10
1.46608e-10
1.46608e-10
1.46608e-10
1.46608e-10
1.46608e-10
1.46608e-10
1.46608e-10
1.46608e-10
1.46608e-10
1.46608e-10
1.46608e-10
1.46608e-10
1.46608e-10
1.46608e-10
1.46608e-10
1.46608e-10
1.46608e-10
1.46608e-10
1.46608e-10
1.46608e-10
1.46608e-10
1.46608e-10
1.46608e-10
1.46608e-10
1.46608e-10
1.46608e-10
1.46608e-10
1.46608e-10
1.46608e-10
1.46608e-10
1.46608e-10
1.46608e-10
1.46608e-10
1.46608e-10
1.46608e-10
1.46608e-10
1.46608e-10
1.46608e-10
1.46608e-10
1.46608e-10
1.46608e-10
1.46608e-10
1.46608e-10
1.46608e-10
1.46608e-10
1.46608e-10
1.46608e-10
1.46608e-10
1.46608e-10
1.46608e-10
1.46608e-10
1.46608e-10
1.46608e-10
1.46608e-10
1.46608e-10
1.46608e-10
1.46608e-10
1.46608e-10
1.46608e-10
1.46608e-10
1.46608e-10
1.46608e-10
1.46608e-10
1.46608e-10
1.46608e-10
1.46608e-10
1.46608e-10
1.46608e-10
1.46608e-10
1.46608e-10
1.46608e-10
1.46608e-10
1.46608e-10
1.46608e-10
1.46608e-10
1.46608e-10
1.46608e-10
1.46608e-10
1.46608e-10
1.46608e-10
1.46608e-10
1.46608e-10
1.46608e-10
1.46608e-10
1.46608e-10
1.46608e-10
1.46608e-10
1.46608e-10
1.46608e-10
1.46608e-10
1.46608e-10
1.46608e-10
1.46608e-10
1.46608e-10
1.46608e-10
1.46608e-10
1.46608e-10
1.46608e-10
1.46608e-10
1.46608e-10
1.46608e-10
1.46608e-10
1.46608e-10
1.46608e-10
1.46608e-10
1.46608e-10
1.46608e-10
1.46608e-10
1.46608e-10
1.46608e-10
1.46608e-10
1.46608e-10
1.46608e-10
1.46608e-10
1.46608e-10
1.46608e-10
1.46608e-10
1.46608e-10
1.46608e-10
1.46608e-10
1.46608e-10
1.46608e-10
1.46608e-10
1.46608e-10
1.46608e-10
1.46608e-10
1.46608e-10
1.46608e-10
1.46608e-10
1.46608e-10
1.46608e-10
1.46608e-10
1.46608e-10
1.46608e-10
1.46608e-10
1.46608e-10
1.46608e-10
1.46608e-10
1.46608e-10
1.46608e-10
1.46608e-10
1.46608e-10
1.46608e-10
1.46608e-10
1.46608e-10
1.46608e-10
1.46608e-10
1.46608e-10
1.46608e-10
1.46608e-10
1.46608e-10
1.46608e-10
1.46608e-10
1.46608e-10
1.46608e-10
1.46608e-10
1.46608e-10
1.46608e-10
1.46608e-10

VECTORS velocity float
1.79759e-18 9.04612e-22 -1.37251e-15
-9.20522e-19 5.97516e-21 7.02843e-16
1.7976e-18 1.12131e-21 -1.37251e-15
2.24035e-18 -1.8735e-20 -1.71052e-15
1.79758e-18 -3.34227e-23 -1.37249e-15
2.81056e-18 -3.80914e-21 -2.14593e-15
1.79756e-18 -1.36032e-21 -1.37249e-15
-7.41244e-19 -2.4061e-22 5.74805e-16
2.24031e-18 -8.41457e-21 -1.71052e-15
2.81054e-18 3.77163e-21 -2.14593e-15
0.0059684 8.07814e-05 -0.000787883
1.7976e-18 -1.12243e-20 -1.37251e-15
0.00575681 0.000338689 -2.5834e-05
0.00573716 0.000380565 -3.86741e-05
2.24031e-18 9.73156e-23 -1.71052e-15
2.81054e-18 1.404e-21 -2.14593e-15
-3.50183e-19 1.5287e-20 2.67381e-16
2.24035e-18 1.38494e-21 -1.71052e-15
0.00572102 0.000390316 -3.97607e-05
2.81055e-18 -2.51357e-22 -2.14593e-15
-3.50203e-19 -4.39254e-22 2.67381e-16
0.00599877 0.000109369 -0.000810404
-3.50216e-19 -9.23929e-21 2.67381e-16
-9.20544e-19 1.86658e-21 7.02844e-16
2.24034e-18 4.81781e-21 -1.71052e-15
3.58539e-20 -1.525e-21 -2.78833e-17
3.7595e-15 -5.32096e-14 -2.74084e-13
2.24033e-18 -2.18803e-21 -1.71052e-15
1.7976e-18 1.8759e-20 -1.37251e-15
4.32782e-20 -6.60956e-22 -2.78781e-17
2.24031e-18 -6.41564e-22 -1.71051e-15
2.24036e-18 9.80875e-21 -1.71051e-15
-3.50222e-19 -2.2048e-22 2.67381e-16
5.56202e-20 3.45652e-20 -2.78811e-17
1.79759e-18 6.38065e-21 -1.37251e-15
1.7976e-18 -1.32643e-21 -1.37251e-15
2.24031e-18 1.30506e-22 -1.71052e-15
2.24035e-18 1.27064e-20 -1.71051e-15
-3.50222e-19 1.2601e-20 2.67382e-16
-3.50201e-19 4.28886e-21 2.67381e-16
-2.47501e-10 -0.0224203 0.00884312
1.79761e-18 -2.84764e-21 -1.37251e-15
0.00593618 0.000311419 -0.000322566
-9.20517e-19 -3.57843e-21 7.02843e-16
2.81057e-18 5.57683e-22 -2.14593e-15
0.0060846 8.70798e-05 -0.000808048
-3.50222e-19 5.09019e-22 2.67382e-16
5.48525e-16 -2.40724e-17 1.56592e-17
-5.01954e-15 -7.41191e-15 7.69803e-14
1.79759e-18 -7.7159e-22 -1.37249e-15
1.79764e-18 6.05282e-22 -1.37251e-15
1.7976e-18 1.25478e-21 -1.37249e-15
2.81059e-18 -6.41301e-22 -2.14593e-15
-1.4681e-15 -3.32008e-15 -2.09204e-14
0.00618314 9.88209e-06 -0.000724052
0.00596169 0.000222272 -0.000370577
1.79755e-18 -6.37127e-22 -1.37249e-15
1.7976e-18 -4.46363e-21 -1.37251e-15
2.00506e-18 -1.86944e-22 -1.5309e-15
2.24035e-18 -1.09425e-21 -1.71051e-15
0.00575159 0.000384305 -4.17795e-05
2.81059e-18 -4.04127e-21 -2.14593e-15
1.79764e-18 -5.37905e-22 -1.37251e-15
1.7976e-18 -7.40812e-22 -1.37251e-15
0.00604496 0.000105825 -0.000814137
1.79756e-18 -4.53323e-21 -1.37249e-15
0.00566874 0.000722244 -0.000148732
0.00574072 0.000375446 -4.24145e-05
1.29023e-16 2.28902e-16 4.12258e-16
0.00577284 0.000412249 -0.000348458
0.00598271 0.000297799 -0.00032092
-3.50179e-19 -5.94261e-21 2.6738e-16
0.00575402 0.000231622 -0.00028999
-3.50203e-19 6.95717e-21 2.67381e-16
2.24033e-18 -3.02546e-22 -1.71052e-15
1.79757e-18 4.26981e-20 -1.37249e-15
2.00505e-18 5.44874e-22 -1.5309e-15
1.79761e-18 -1.05402e-20 -1.37251e-15
0.006124 6.39532e-05 -0.000800356
4.28183e-20 1.10312e-20 -2.78804e-17
1.7976e-18 2.30714e-21 -1.37251e-15
-3.50169e-19 1.57666e-22 2.67381e-16
-3.50193e-19 1.8391e-22 2.67381e-16
2.24032e-18 -3.62947e-21 -1.71052e-15
0.00559142 0.000708199 0.000267522
2.24034e-18 4.6158e-21 -1.71052e-15
0.00617125 0.000113492 -0.00083102
-3.50174e-19 7.10618e-23 2.67382e-16
0.00617591 8.9733e-05 -0.000822554
4.22324e-15 1.04738e-14 8.29654e-14
-5.45171e-15 6.55163e-15 4.46828e-14
0.00574738 0.000382542 -3.87239e-05
0.00567692 0.000221522 -0.000699428
0.006122 8.88398e-05 -0.000813668
0.00570372 9.42254e-05 -0.00052767
-3.50169e-19 4.09431e-20 2.67381e-16
2.81057e-18 2.02826e-22 -2.14593e-15
1.79756e-18 1.11991e-20 -1.37249e-15
-9.20562e-19 -3.69402e-22 7.02843e-16
0.00587962 0.000170618 -0.000887237
0.00606707 9.36932e-05 -0.000809525
0.00613008 9.98994e-05 -0.000820913
2.81058e-18 4.6521e-21 -2.14593e-15
-3.50165e-19 4.35135e-21 2.6738e-16
4.85584e-18 -1.80378e-14 -5.94669e-14
0.00613673 5.76816e-05 -0.000799123
2.24035e-18 -2.0974e-21 -1.71051e-15
2.24035e-18 6.40817e-22 -1.71051e-15
1.45283e-18 -2.26287e-20 -1.10923e-15
1.79762e-18 2.65297e-21 -1.37251e-15
0.00578721 0.00021106 -0.000285289
-6.70152e-20 8.53935e-21 5.11809e-17
1.79759e-18 8.40833e-22 -1.37249e-15
0.00560677 0.00070607 0.000206884
2.24031e-18 5.64567e-21 -1.71052e-15
2.24031e-18 -3.54597e-22 -1.71052e-15
0.00616055 9.36944e-05 -0.000821438
0.00614295 -3.2876e-05 -0.000748854
1.79757e-18 -8.05046e-22 -1.37249e-15
2.24036e-18 -3.08741e-21 -1.71052e-15
1.7976e-18 -1.42926e-21 -1.37249e-15
2.81056e-18 2.59677e-21 -2.14593e-15
0.00606601 9.1576e-05 -0.000808648
-3.50215e-19 2.84241e-22 2.67381e-16
2.24033e-18 8.23868e-21 -1.71052e-15
1.79759e-18 -1.28384e-22 -1.37249e-15
0.00601735 0.000100763 -0.000807811
0.00590573 0.000314935 -0.000332
0.00565571 0.000344865 -0.000313084
0.00610215 5.51359e-05 -0.000794975
0.00592818 0.000142723 -0.000823872
0.00613899 9.2075e-05 -0.000818995
0.00603647 9.6301e-05 -0.000807444
1.79755e-18 3.65364e-21 -1.37249e-15
0.00593086 0.000375966 -0.000363305
0.00573087 0.000252513 -0.000857464
0.00605385 9.09937e-05 -0.000806781
0.00585367 -0.000186671 5.8904e-05
0.00594558 0.000126155 -0.000889873
0.00601018 0.00010205 -0.000807402
-3.83431e-14 8.16663e-14 2.95886e-13
0.00608827 7.78453e-05 -0.000804096
2.81054e-18 -5.83192e-22 -2.14593e-15
0.00617402 -3.95964e-05 -0.000742863
0.00573174 0.000384963 -3.90962e-05
0.00616102 9.89786e-05 -0.000829278
0.00590987 0.000212248 -0.000287834
2.81057e-18 1.02625e-21 -2.14593e-15
0.00595711 0.0002832 -0.000318105
0.00571382 0.000249835 -0.000294257
0.00588931 0.000339271 -0.000325465
0.00566851 0.00026392 -0.000297226
2.81058e-18 4.67247e-22 -2.14593e-15
0.00605778 0.000104771 -0.000815029
2.24032e-18 -2.31365e-20 -1.71052e-15
0.00569061 0.000175804 -0.000802731
0.00611018 6.88763e-05 -0.000801675
0.0061453 0.000104339 -0.000823396
0.00581174 0.000427368 -0.00035596
0.00598745 0.000246112 -0.000280318
1.7976e-18 -7.80253e-21 -1.37249e-15
0.0061112 0.000103879 -0.00082126
1.79756e-18 -2.84641e-21 -1.37249e-15
0.00607394 5.7295e-05 -0.000789744
0.00573251 0.000337192 -7.34989e-05
2.24037e-18 4.29333e-21 -1.71052e-15
2.24036e-18 3.33518e-22 -1.71052e-15
-1.3009e-16 -2.28824e-16 4.11776e-16
0.00556625 -9.51228e-05 -3.37273e-06
-9.20563e-19 -1.3096e-23 7.02843e-16
0.00608618 8.50103e-05 -0.000807298
-3.5017e-19 8.57855e-22 2.67381e-16
0.00575894 0.000389886 -2.13107e-05
0.00588002 0.000338391 -0.000112978
0.00597159 0.000293555 -0.000319989
0.00620847 -0.000278997 -0.000108817
0.00596645 0.000306249 -0.000323292
0.00570484 0.000394476 -4.07568e-05
0.00597122 0.000112252 -0.000808308
0.0057165 0.000389037 -3.84438e-05
0.00609746 7.25901e-05 -0.000803366
2.24033e-18 -4.15732e-22 -1.71051e-15
0.00576625 0.000362973 -2.24379e-05
0.00597223 0.000125285 -0.0008164
0.00594395 0.000141054 -0.000819748
0.00592323 0.00032326 -0.000322561
0.00610093 8.81708e-05 -0.000809081
2.24032e-18 -9.43048e-21 -1.71051e-15
2.24036e-18 2.9385e-22 -1.71052e-15
0.00572828 0.000381745 -0.000122328
1.7976e-18 -1.75565e-21 -1.37251e-15
2.24032e-18 6.3287e-22 -1.71051e-15
0.0057034 -8.7934e-05 0.000211556
0.00562962 0.000180469 -0.00078875
-3.50219e-19 -4.08786e-22 2.67381e-16
0.00614528 0.000109016 -0.000828785
8.71363e-19 -2.714e-22 -6.65297e-16
0.00617682 -4.42161e-05 -0.000747721
8.71351e-19 -2.61303e-22 -6.65296e-16
0.00601087 0.000108835 -0.000811067
1.79759e-18 7.73997e-21 -1.37249e-15
0.00589263 0.000364327 -0.000172157
0.00570764 -0.000133829 6.1065e-06
0.00545821 -5.42815e-05 0.000194935
0.00585905 0.00036229 -3.73508e-05
0.00597374 0.000125406 -0.00081605
0.00573485 0.000385267 -3.89077e-05
0.00579034 0.000189537 -0.000827886
2.24032e-18 2.88506e-23 -1.71052e-15
0.00593673 0.000130989 -0.000812041
0.00603242 0.00011977 -0.000820219
0.00604871 0.000112286 -0.000818134
0.00612176 0.000252803 0.000406348
0.00613548 -0.000280712 -0.000103537
0.00609322 0.000253816 0.000421204
0.00600162 0.000103342 -0.00080684
0.00599026 0.000244559 -0.000420045
0.00603285 -0.000222467 -0.000118256
0.00619033 -0.00017862 0.000244457
0.00594793 0.000291231 -0.000317426
0.00624791 -0.000471253 -0.000443639
-4.74505e-05 0.0291482 -0.011336
2.24032e-18 -4.97905e-22 -1.71052e-15
0.00618167 -0.000177022 0.00024693
0.00532907 -4.22314e-05 -1.68975e-05
0.00620059 -0.000339486 -0.000161056
0.00574022 0.00038187 -3.82789e-05
0.00585563 0.000361276 -3.36153e-05
0.00607079 8.51456e-05 -0.000805263
0.00591575 0.000234694 -0.000148362
0.00616449 -0.000174071 0.000248602
0.00585101 0.000179476 -0.000831865
0.00592186 0.000308695 -0.000291358
0.00600842 0.000105616 -0.000513576
0.00624238 -0.000274583 -0.000109448
0.00617422 4.0547e-05 -0.00066662
0.00560483 -0.000106819 4.49886e-07
0.00606233 -2.39199e-05 -0.000738716
0.00613123 5.4431e-05 -0.000797813
0.00600909 0.000154343 -0.000616318
-3.50208e-19 -5.88429e-21 2.6738e-16
0.0057423 0.000373021 -3.73618e-05
0.00569105 -9.96347e-05 0.000208941
0.00598271 0.000178321 -0.000847498
0.00549073 -4.50373e-05 0.000192427
0.00618932 4.08609e-05 -0.000755349
0.0058505 0.00014811 -0.000818135
0.00602883 6.54347e-05 -0.00079087
0.00562325 -9.61598e-05 -2.87446e-06
0.00573941 -0.000133104 7.10178e-06
0.00606546 2.48658e-05 -0.000669952
0.00614107 -0.00027631 -0.00011199
0.00599572 0.000122462 -0.00081803
0.00603735 0.00010865 -0.000814798
0.0057441 0.000382585 -3.89207e-05
0.00595119 0.000129925 -0.00081436
0.00592497 0.000300254 -0.00032046
0.00565763 0.00018405 -0.000759832
0.00605582 9.83174e-05 -0.000811054
0.00575068 0.000362334 -5.4294e-05
0.00572024 0.000384655 -3.87675e-05
0.00585266 0.000459036 -4.51769e-05
0.00601222 0.000121077 -0.000818831
0.00575946 -0.000138049 7.98435e-06
0.0059351 0.000138493 -0.000816896
2.81059e-18 -4.68771e-21 -2.14593e-15
0.00619209 -0.000288589 -0.000100208
0.0062266 -0.000188689 0.000248515
-3.50193e-19 -5.30905e-21 2.67381e-16

VECTORS force float
0.0 -1.97186e-27 0.0
0.0 6.13646e-26 0.0
-4.03897e-28 4.61571e-26 0.0
0.0 -4.45726e-26 0.0
4.03897e-28 4.65759e-27 0.0
0.0 -2.04151e-26 0.0
0.0 -8.54552e-27 0.0
0.0 0.0 0.0
0.0 -9.70514e-26 0.0
0.0 -3.6078e-26 0.0
1.65506e-10 1.33024e-10 -6.25089e-11
4.03897e-28 2.88842e-26 0.0
2.19221e-11 8.52573e-11 1.5941e-11
2.8321e-10 -1.5604e-10 9.14344e-12
0.0 -1.20055e-27 0.0
0.0 2.40057e-26 0.0
0.0 1.73985e-25 0.0
0.0 -8.47863e-27 0.0
3.70892e-10 8.55152e-11 1.51817e-11
0.0 5.2452e-27 0.0
0.0 1.88385e-26 0.0
2.47058e-11 -8.39194e-11 2.99613e-11
4.03897e-28 7.71108e-26 0.0
0.0 -3.23373e-26 0.0
0.0 9.42069e-27 0.0
1.29247e-26 0.0 0.0
-2.31005e-21 -2.74779e-22 1.84048e-23
0.0 2.80356e-26 0.0
0.0 2.37105e-25 0.0
1.03398e-25 0.0 0.0
0.0 -2.21105e-26 0.0
0.0 1.73041e-26 0.0
0.0 -3.26967e-27 0.0
-7.75482e-26 -5.16988e-26 -2.06795e-25
0.0 1.00565e-25 0.0
4.03897e-28 -2.38819e-26 0.0
0.0 -1.0821e-28 0.0
0.0 5.41422e-26 0.0
0.0 3.63285e-25 0.0
0.0 1.15844e-25 0.0
-1.51192e-18 8.02696e-12 2.03206e-11
0.0 5.27893e-26 0.0
1.25551e-10 3.23154e-12 -3.10217e-11
0.0 9.46922e-26 0.0
0.0 5.46236e-27 0.0
3.38673e-11 -9.14855e-11 5.39844e-11
0.0 -5.74775e-27 0.0
0.0 0.0 0.0
1.22785e-24 4.47195e-24 6.20385e-25
0.0 2.90743e-26 0.0
0.0 -4.91523e-27 0.0
0.0 9.34264e-26 0.0
4.03897e-28 -2.67661e-27 0.0
7.31538e-24 -2.61079e-24 0.0
1.23793e-10 9.79265e-11 9.21134e-11
1.52025e-11 -7.22726e-11 1.3851e-10
0.0 -7.10565e-26 0.0
0.0 2.17784e-25 0.0
0.0 -5.35921e-27 0.0
0.0 1.17795e-26 0.0
-1.02284e-10 6.69525e-11 -4.59232e-11
0.0 -1.77626e-25 0.0
0.0 -2.90188e-26 0.0
0.0 -2.14609e-26 0.0
4.83695e-11 -5.64548e-11 2.42693e-11
0.0 4.4346e-26 0.0
3.22303e-09 -9.60814e-10 2.38623e-09
1.74713e-10 -2.23107e-10 6.76511e-12
-8.02084e-22 -1.41665e-21 -1.03398e-24
-7.15941e-11 -1.14577e-11 2.33827e-12
-1.3254e-11 1.46901e-10 -5.39385e-11
0.0 4.96388e-26 0.0
2.67812e-11 6.33251e-11 -1.36396e-11
0.0 -1.25884e-26 0.0
0.0 7.97741e-27 0.0
0.0 -9.45779e-27 0.0
0.0 8.08385e-26 0.0
0.0 5.33122e-25 0.0
-9.36518e-12 -1.06196e-11 1.87357e-11
0.0 5.16988e-26 0.0
0.0 -3.96729e-26 0.0
0.0 -2.68222e-26 0.0
0.0 6.02511e-28 0.0
0.0 -3.07495e-26 0.0
-2.45485e-10 1.68439e-10 2.93646e-10
0.0 -4.80032e-26 0.0
-9.14443e-11 2.59429e-11 3.09459e-11
0.0 2.39467e-28 0.0
-3.34927e-11 5.65161e-11 -5.48892e-11
3.15781e-21 -1.01265e-21 -3.78435e-23
1.79007e-22 1.33099e-22 3.92911e-24
6.75806e-11 2.28073e-10 -2.72491e-11
-1.54118e-10 3.69512e-10 4.44954e-10
-1.6637e-11 2.08684e-11 -6.24436e-12
9.50252e-11 -1.46584e-09 5.04319e-10
0.0 -3.04019e-25 0.0
0.0 2.35446e-27 0.0
-4.03897e-28 -9.17872e-26 0.0
0.0 -2.05236e-27 0.0
-3.21833e-10 -3.01435e-11 5.4439e-11
1.08719e-10 -1.49513e-11 -1.9779e-11
-2.89337e-11 -3.4649e-11 2.64144e-11
0.0 3.00375e-26 0.0
0.0 6.45969e-26 0.0
7.65112e-24 0.0 0.0
-1.75314e-11 -1.11573e-11 2.4924e-11
0.0 6.79881e-27 0.0
0.0 -4.81618e-28 0.0
0.0 1.90011e-25 0.0
0.0 5.71224e-26 0.0
5.71473e-11 1.67065e-10 -6.20634e-11
0.0 8.00657e-26 0.0
0.0 -2.00108e-26 0.0
-2.53888e-10 -2.33641e-10 2.29796e-10
0.0 3.17537e-26 0.0
0.0 7.09394e-26 0.0
-1.00971e-10 1.54464e-10 -1.048e-10
-8.93324e-11 -7.47856e-11 3.31404e-11
0.0 1.31675e-26 0.0
0.0 -7.13197e-27 0.0
0.0 2.07218e-26 0.0
0.0 -5.07012e-26 0.0
5.63739e-11 -1.0426e-10 4.76368e-11
0.0 -8.65113e-27 0.0
0.0 1.99898e-25 0.0
0.0 7.29053e-28 0.0
-2.14907e-11 5.97686e-11 -2.72245e-11
8.65283e-11 -1.28963e-12 -9.94735e-11
-2.07869e-10 -3.04851e-10 1.02644e-09
1.5202e-10 -3.92877e-11 5.14326e-12
-2.18022e-11 4.54937e-12 -1.50039e-10
-6.26145e-11 8.98187e-11 -4.39469e-11
1.40143e-10 -2.21843e-11 -1.24246e-11
0.0 -2.70976e-26 0.0
-8.92303e-12 -1.40773e-11 2.25533e-11
5.42941e-11 5.42098e-11 -2.6841e-11
6.09165e-11 -4.21416e-11 2.10303e-11
1.0123e-12 -4.00633e-14 1.38926e-14
-4.72724e-12 1.01079e-10 -9.8355e-11
-1.14453e-10 9.99888e-11 -3.64311e-11
-5.37021e-22 -2.77622e-23 -7.54802e-23
-1.49031e-11 -3.63676e-11 1.70871e-11
0.0 -1.72803e-26 0.0
-3.0124e-11 5.31455e-11 3.80408e-11