# vtk DataFile Version 3.0
LIGGGHTS particles timestep 43200000
ASCII
DATASET POLYDATA
POINTS 275 float
0.265169 0.0182819 0.00696414
0.264838 0.0171354 0.00728468
0.264989 0.0170208 0.00735542
0.264445 0.0158231 0.00859831
0.270748 0.0167651 0.00749199
0.265126 0.0176348 0.00706114
0.264834 0.0167883 0.00758134
0.27095 0.0176434 0.00708778
0.264886 0.0166176 0.0077444
0.265035 0.0179157 0.00710289
0.259074 0.0169815 0.00733668
0.264424 0.0157554 0.00866882
0.258988 0.0173141 0.00729048
0.259255 0.0178309 0.00718433
0.264781 0.0165936 0.00778297
0.264403 0.0156876 0.00873933
0.265166 0.0178285 0.00703171
0.264945 0.0166817 0.00767214
0.259214 0.0176356 0.0072017
0.270871 0.0172711 0.00719419
0.264554 0.0161609 0.00824621
0.270909 0.0174497 0.00711542
0.258757 0.0165092 0.00778355
0.264915 0.0170793 0.00732226
0.264383 0.0156198 0.00880984
0.264635 0.0164324 0.00796408
0.265201 0.0175691 0.00706987
0.26457 0.0162296 0.00817542
0.27077 0.0168492 0.00744246
0.264529 0.0160941 0.00831634
0.265086 0.0174446 0.00710772
0.27101 0.0179344 0.00704622
0.264969 0.0169402 0.00741099
0.265047 0.0172752 0.00720671
0.270889 0.017356 0.00714454
0.264489 0.0159581 0.0084575
0.265084 0.0170489 0.00734084
0.265143 0.0173042 0.00719165
0.270791 0.0169333 0.00739293
0.264508 0.0160264 0.00838681
0.265034 0.018055 0.00699987
0.27097 0.0177404 0.00707394
0.264591 0.0162973 0.00810491
0.265221 0.0176659 0.00705514
0.259133 0.0172424 0.00721412
0.270831 0.0171022 0.00729357
0.265395 0.0180858 0.00699012
0.258959 0.0168749 0.00741236
0.265375 0.0179884 0.00700492
0.270812 0.0170176 0.0073433
0.378022 0.019866 0.005332
0.265161 0.0173891 0.00714206
0.264467 0.0158906 0.00852793
0.265066 0.01736 0.00715735
0.265054 0.0181519 0.00698515
0.27085 0.0171869 0.0072438
0.258882 0.0169305 0.00738051
0.258962 0.0175833 0.0072863
0.265186 0.0179254 0.007017
0.264971 0.0173325 0.00717136
0.265261 0.0178598 0.00702571
0.270929 0.0175466 0.0071016
0.259295 0.0180267 0.00716693
0.265225 0.0181196 0.00698752
0.264863 0.0165485 0.00781645
0.264614 0.0163648 0.00803454
0.258896 0.0166672 0.00761622
0.264858 0.0172266 0.0072486
0.258292 0.0153433 0.00913679
0.259219 0.0180925 0.00716205
0.264934 0.0171636 0.00727158
0.259035 0.017515 0.00728926
0.259093 0.0170637 0.00728282
0.27099 0.0178374 0.00706008
0.259085 0.0183166 0.0071441
0.265124 0.0172194 0.00724124
0.264892 0.0169939 0.00736921
0.265031 0.0176035 0.00706714
0.265111 0.0178514 0.00711192
0.265206 0.0180224 0.00700228
0.259054 0.0168995 0.00739048
0.264955 0.0176673 0.00705874
0.264695 0.0166361 0.0077524
0.265055 0.0180126 0.00708817
0.264993 0.0175733 0.00715466
0.264935 0.0175702 0.00707348
0.258394 0.015657 0.00876771
0.264675 0.0165684 0.00782291
0.258903 0.0174377 0.00719812
0.265146 0.0177316 0.00704642
0.258924 0.0175356 0.00719988
0.0643568 0.0187248 0.00531097
0.24257 0.0191927 0.00520306
0.259275 0.0179287 0.00717564
0.258362 0.0155458 0.00892946
0.258922 0.0170947 0.00727355
0.258312 0.0154067 0.00906221
0.265281 0.0179568 0.00701098
0.265336 0.0177941 0.00703442
0.264821 0.0170604 0.00734842
0.264779 0.016909 0.00747224
0.258435 0.0157836 0.00861872
0.258807 0.0169885 0.00734762
0.258863 0.0172401 0.00719457
0.265105 0.0171348 0.00729071
0.265111 0.017991 0.00700829
0.265106 0.0175403 0.00708725
0.258998 0.0170386 0.00730453
0.2653 0.018054 0.00699622
0.264855 0.0167176 0.00764899
0.265189 0.018379 0.00694941
0.264915 0.0174733 0.00708819
0.25924 0.0181899 0.00715338
0.264802 0.0166613 0.00771248
0.265011 0.0175065 0.00708187
0.258373 0.0155936 0.00884227
0.264656 0.0165001 0.0078936
0.265015 0.0178187 0.00711757
0.258961 0.0172764 0.00720177
0.258981 0.0173744 0.00720388
0.26501 0.0171062 0.00730553
0.265131 0.018088 0.00699358
0.265091 0.0178942 0.00702301
0.265241 0.0177628 0.00704042
0.258938 0.0167939 0.00746737
0.265013 0.0176703 0.00713984
0.264994 0.0178611 0.00702931
0.264878 0.0173118 0.00720014
0.258767 0.0162847 0.00806521
0.259173 0.0174405 0.0072176
0.258333 0.01547 0.00898765
0.259035 0.0172091 0.00720691
0.25853 0.0158128 0.00860253
0.258941 0.0171824 0.00722952
0.258789 0.0163483 0.00799051
0.264737 0.0167717 0.00761138
0.259065 0.0182191 0.00715277
0.259062 0.0177654 0.00719212
0.258812 0.0164116 0.00791663
0.258509 0.0157494 0.00867712
0.258455 0.015847 0.00854416
0.258749 0.0162213 0.00814036
0.0219312 0.0187687 0.00551176
0.258856 0.0165404 0.00776556
0.265029 0.0171952 0.00726387
0.258944 0.0176335 0.00720164
0.25902 0.0177271 0.00727894
0.258517 0.0160372 0.00832049
0.259103 0.0179604 0.00717477
0.265014 0.017958 0.00701459
0.259025 0.0180238 0.00717013
0.259142 0.0181562 0.00715737
0.259045 0.0181215 0.00716145
0.259122 0.0180581 0.00716609
0.265245 0.0182167 0.00697278
0.258787 0.0169083 0.00740398
0.26517 0.0181429 0.00706739
0.258558 0.0161636 0.00817171
0.258861 0.0168492 0.00743549
0.25855 0.0158762 0.00852783
0.258903 0.0172618 0.00728333
0.258964 0.0177312 0.00719615
0.265264 0.0183137 0.00695806
0.258846 0.0171535 0.00724165
0.265074 0.0181096 0.00707346
0.259061 0.0173112 0.00722178
0.259106 0.0184141 0.00713543
0.26515 0.018185 0.00697886
0.26499 0.0174172 0.00712185
0.265112 0.0184431 0.00694096
0.253118 0.0184706 0.00687953
0.264758 0.0168394 0.00754089
0.258827 0.0170705 0.00729395
0.26532 0.0181514 0.00698143
0.2591 0.017667 0.00728195
0.25916 0.0177996 0.00718808
0.259119 0.0176047 0.00720585
0.252804 0.0170417 0.00749386
0.259112 0.0171458 0.00722903
0.258917 0.0173834 0.00728102
0.258414 0.0157234 0.00869589
0.25918 0.0178972 0.00717986
0.258876 0.0166038 0.00769077
0.265071 0.0177973 0.00703772
0.259234 0.0177331 0.00719303
0.258694 0.0163194 0.00800654
0.258735 0.0164508 0.00786138
0.258613 0.0160663 0.00830446
0.259156 0.0173419 0.00721607
0.258979 0.0169566 0.00735824
0.264855 0.016856 0.00751082
0.264875 0.0169241 0.00744019
0.2592 0.0179948 0.00717073
0.265093 0.018346 0.00695569
0.264952 0.0172478 0.00722085
0.253024 0.0180103 0.00702183
0.258592 0.0160029 0.00837891
0.265339 0.0182484 0.0069667
0.258883 0.0173391 0.00719651
0.264717 0.0167039 0.00768191
0.259001 0.0174723 0.00720529
0.26518 0.0174738 0.00709251
0.258778 0.0165815 0.00771771
0.2648 0.0169831 0.00740856
0.259193 0.0175381 0.00721038
0.253042 0.0180988 0.00697884
0.252987 0.0178337 0.00710777
0.259163 0.018254 0.00714867
0.258683 0.0165552 0.00773249
0.259102 0.0178151 0.00726905
0.259005 0.0179262 0.00717881
0.264896 0.0173937 0.00714583
0.258641 0.0164181 0.00787236
0.258745 0.0167543 0.00752421
0.258766 0.0168305 0.00746314
0.252696 0.016603 0.00770805
0.25276 0.0168662 0.00757954
0.252674 0.0165153 0.00775089
0.258728 0.0161579 0.00821463
0.259098 0.017507 0.00721242
0.252717 0.0166907 0.00766521
0.252909 0.0174809 0.00727955
0.258579 0.016227 0.00809714
0.25887 0.0171522 0.0073388
0.252847 0.0172171 0.00740819
0.258653 0.0161982 0.00815998
0.265051 0.0177004 0.00705243
0.252929 0.017569 0.00723662
0.253098 0.0183726 0.00687743
0.252869 0.0173049 0.00736535
0.258269 0.01528 0.00921072
0.259369 0.0179606 0.00717183
0.258831 0.016475 0.00784177
0.259004 0.0172106 0.00730226
0.252949 0.0176571 0.0071937
0.259082 0.0178629 0.00718345
0.25884 0.0167726 0.00749686
0.25885 0.0170692 0.0073911
0.252825 0.0171294 0.00745103
0.258476 0.0159104 0.0084696
0.253137 0.0185687 0.00688163
0.259021 0.0175702 0.00720702
0.258671 0.0162624 0.00808546
0.259017 0.0171209 0.00725049
0.259078 0.0174091 0.00721066
0.264944 0.0174908 0.00718215
0.258985 0.0178287 0.00718748
0.253006 0.017922 0.00706481
0.258715 0.0163828 0.00793205
0.252968 0.0177453 0.00715075
0.258538 0.0161053 0.00825041
0.258633 0.0161296 0.00822982
0.258599 0.0162912 0.00802168
0.258902 0.0170124 0.00732677
0.253175 0.018249 0.00690048
0.253063 0.0181867 0.00693596
0.259041 0.0176679 0.00720122
0.252739 0.0167785 0.00762238
0.258702 0.0166075 0.00764952
0.258798 0.016635 0.0076356
0.258496 0.0159738 0.00839505
0.258661 0.016482 0.00779719
0.259139 0.0177021 0.00719676
0.25857 0.0159395 0.00845327
0.258919 0.0167305 0.0075422
0.259015 0.0174171 0.0072876
0.259024 0.0178785 0.00726459
0.258819 0.0166984 0.00756105
0.258723 0.0166709 0.00757496
0.253079 0.0182758 0.00689322
0.25862 0.0163546 0.00794704
0.265074 0.0182489 0.00697042
0.252782 0.0169539 0.0075367
0.252889 0.0173928 0.00732247
0.264975 0.0177642 0.00704402

VERTICES 275 550
1 0
1 1
1 2
1 3
1 4
1 5
1 6
1 7
1 8
1 9
1 10
1 11
1 12
1 13
1 14
1 15
1 16
1 17
1 18
1 19
1 20
1 21
1 22
1 23
1 24
1 25
1 26
1 27
1 28
1 29
1 30
1 31
1 32
1 33
1 34
1 35
1 36
1 37
1 38
1 39
1 40
1 41
1 42
1 43
1 44
1 45
1 46
1 47
1 48
1 49
1 50
1 51
1 52
1 53
1 54
1 55
1 56
1 57
1 58
1 59
1 60
1 61
1 62
1 63
1 64
1 65
1 66
1 67
1 68
1 69
1 70
1 71
1 72
1 73
1 74
1 75
1 76
1 77
1 78
1 79
1 80
1 81
1 82
1 83
1 84
1 85
1 86
1 87
1 88
1 89
1 90
1 91
1 92
1 93
1 94
1 95
1 96
1 97
1 98
1 99
1 100
1 101
1 102
1 103
1 104
1 105
1 106
1 107
1 108
1 109
1 110
1 111
1 112
1 113
1 114
1 115
1 116
1 117
1 118
1 119
1 120
1 121
1 122
1 123
1 124
1 125
1 126
1 127
1 128
1 129
1 130
1 131
1 132
1 133
1 134
1 135
1 136
1 137
1 138
1 139
1 140
1 141
1 142
1 143
1 144
1 145
1 146
1 147
1 148
1 149
1 150
1 151
1 152
1 153
1 154
1 155
1 156
1 157
1 158
1 159
1 160
1 161
1 162
1 163
1 164
1 165
1 166
1 167
1 168
1 169
1 170
1 171
1 172
1 173
1 174
1 175
1 176
1 177
1 178
1 179
1 180
1 181
1 182
1 183
1 184
1 185
1 186
1 187
1 188
1 189
1 190
1 191
1 192
1 193
1 194
1 195
1 196
1 197
1 198
1 199
1 200
1 201
1 202
1 203
1 204
1 205
1 206
1 207
1 208
1 209
1 210
1 211
1 212
1 213
1 214
1 215
1 216
1 217
1 218
1 219
1 220
1 221
1 222
1 223
1 224
1 225
1 226
1 227
1 228
1 229
1 230
1 231
1 232
1 233
1 234
1 235
1 236
1 237
1 238
1 239
1 240
1 241
1 242
1 243
1 244
1 245
1 246
1 247
1 248
1 249
1 250
1 251
1 252
1 253
1 254
1 255
1 256
1 257
1 258
1 259
1 260
1 261
1 262
1 263
1 264
1 265
1 266
1 267
1 268
1 269
1 270
1 271
1 272
1 273
1 274

POINT_DATA 275
SCALARS id int 1
LOOKUP_TABLE default
1
2
4
5
6
7
8
9
10
11
12
13
14
16
17
19
21
22
23
24
25
26
27
28
29
30
31
32
33
34
35
36
37
38
39
41
42
44
45
47
48
49
50
51
52
53
54
55
56
57
59
60
61
62
63
64
65
66
67
68
69
70
71
72
73
74
76
77
78
79
80
82
83
84
85
86
87
88
89
90
91
92
93
94
95
96
97
98
99
100
101
102
103
104
105
106
107
108
109
110
111
112
113
114
115
116
117
118
119
120
121
122
123
124
125
127
128
129
130
131
132
133
134
135
136
137
138
140
141
142
143
144
146
147
148
149
150
151
153
154
155
156
157
158
159
160
162
164
165
166
167
168
169
170
171
172
173
174
176
177
178
179
182
183
184
185
186
187
188
189
190
191
192
193
194
195
196
197
198
199
200
201
202
203
204
205
206
207
208
209
210
211
212
213
214
215
216
217
218
219
220
222
224
225
226
227
228
229
230
232
233
234
235
236
237
239
240
241
242
243
244
246
247
248
249
250
251
252
253
254
255
256
257
258
259
260
261
262
263
264
265
266
267
268
269
270
271
272
273
274
275
276
277
278
279
280
281
283
284
285
286
287
288
289
290
291
292
293
294
295
296
297
298
299
300

SCALARS type int 1
LOOKUP_TABLE default
1
1
1
1
1
1
1
1
1
1
1
1
1
1
1
1
1
1
1
1
1
1
1
1
1
1
1
1
1
1
1
1
1
1
1
1
1
1
1
1
1
1
1
1
1
1
1
1
1
1
1
1
1
1
1
1
1
1
1
1
1
1
1
1
1
1
1
1
1
1
1
1
1
1
1
1
1
1
1
1
1
1
1
1
1
1
1
1
1
1
1
1
1
1
1
1
1
1
1
1
1
1
1
1
1
1
1
1
1
1
1
1
1
1
1
1
1
1
1
1
1
1
1
1
1
1
1
1
1
1
1
1
1
1
1
1
1
1
1
1
1
1
1
1
1
1
1
1
1
1
1
1
1
1
1
1
1
1
1
1
1
1
1
1
1
1
1
1
1
1
1
1
1
1
1
1
1
1
1
1
1
1
1
1
1
1
1
1
1
1
1
1
1
1
1
1
1
1
1
1
1
1
1
1
1
1
1
1
1
1
1
1
1
1
1
1
1
1
1
1
1
1
1
1
1
1
1
1
1
1
1
1
1
1
1
1
1
1
1
1
1
1
1
1
1
1
1
1
1
1
1
1
1
1
1
1
1
1
1
1
1
1
1
1
1
1
1
1
1
1
1
1
1
1
1

SCALARS radius float 1
LOOKUP_TABLE default
5e-05
5e-05
5e-05
5e-05
5e-05
5e-05
5e-05
5e-05
5e-05
5e-05
5e-05
5e-05
5e-05
5e-05
5e-05
5e-05
5e-05
5e-05
5e-05
5e-05
5e-05
5e-05
5e-05
5e-05
5e-05
5e-05
5e-05
5e-05
5e-05
5e-05
5e-05
5e-05
5e-05
5e-05
5e-05
5e-05
5e-05
5e-05
5e-05
5e-05
5e-05
5e-05
5e-05
5e-05
5e-05
5e-05
5e-05
5e-05
5e-05
5e-05
5e-05
5e-05
5e-05
5e-05
5e-05
5e-05
5e-05
5e-05
5e-05
5e-05
5e-05
5e-05
5e-05
5e-05
5e-05
5e-05
5e-05
5e-05
5e-05
5e-05
5e-05
5e-05
5e-05
5e-05
5e-05
5e-05
5e-05
5e-05
5e-05
5e-05
5e-05
5e-05
5e-05
5e-05
5e-05
5e-05
5e-05
5e-05
5e-05
5e-05
5e-05
5e-05
5e-05
5e-05
5e-05
5e-05
5e-05
5e-05
5e-05
5e-05
5e-05
5e-05
5e-05
5e-05
5e-05
5e-05
5e-05
5e-05
5e-05
5e-05
5e-05
5e-05
5e-05
5e-05
5e-05
5e-05
5e-05
5e-05
5e-05
5e-05
5e-05
5e-05
5e-05
5e-05
5e-05
5e-05
5e-05
5e-05
5e-05
5e-05
5e-05
5e-05
5e-05
5e-05
5e-05
5e-05
5e-05
5e-05
5e-05
5e-05
5e-05
5e-05
5e-05
5e-05
5e-05
5e-05
5e-05
5e-05
5e-05
5e-05
5e-05
5e-05
5e-05
5e-05
5e-05
5e-05
5e-05
5e-05
5e-05
5e-05
5e-05
5e-05
5e-05
5e-05
5e-05
5e-05
5e-05
5e-05
5e-05
5e-05
5e-05
5e-05
5e-05
5e-05
5e-05
5e-05
5e-05
5e-05
5e-05
5e-05
5e-05
5e-05
5e-05
5e-05
5e-05
5e-05
5e-05
5e-05
5e-05
5e-05
5e-05
5e-05
5e-05
5e-05
5e-05
5e-05
5e-05
5e-05
5e-05
5e-05
5e-05
5e-05
5e-05
5e-05
5e-05
5e-05
5e-05
5e-05
5e-05
5e-05
5e-05
5e-05
5e-05
5e-05
5e-05
5e-05
5e-05
5e-05
5e-05
5e-05
5e-05
5e-05
5e-05
5e-05
5e-05
5e-05
5e-05
5e-05
5e-05
5e-05
5e-05
5e-05
5e-05
5e-05
5e-05
5e-05
5e-05
5e-05
5e-05
5e-05
5e-05
5e-05
5e-05
5e-05
5e-05
5e-05
5e-05
5e-05
5e-05
5e-05
5e-05
5e-05
5e-05
5e-05
5e-05
5e-05
5e-05
5e-05
5e-05
5e-05
5e-05
5e-05
5e-05
5e-05
5e-05
5e-05
5e-05
5e-05
5e-05
5e-05
5e-05
5e-05
5e-05
5e-05
5e-05

SCALARS mass float 1
LOOKUP_TABLE default
1.46608e-10
1.46608e-10
1.46608e-10
1.46608e-10
1.46608e-10
1.46608e-10
1.46608e-10
1.46608e-10
1.46608e-10
1.46608e-10
1.46608e-10
1.46608e-10
1.46608e-10
1.46608e-10
1.46608e-10
1.46608e-10
1.46608e-10
1.46608e-10
1.46608e-10
1.46608e-10
1.46608e-10
1.46608e-10
1.46608e-10
1.46608e-10
1.46608e-10
1.46608e-10
1.46608e-10
1.46608e-10
1.46608e-10
1.46608e-10
1.46608e-10
1.46608e-10
1.46608e-10
1.46608e-10
1.46608e-10
1.46608e-10
1.46608e-10
1.46608e-10
1.46608e-10
1.46608e-10
1.46608e-10
1.46608e-10
1.46608e-10
1.46608e-10
1.46608e-10
1.46608e-10
1.46608e-10
1.46608e-10
1.46608e-10
1.46608e-10
1.46608e-10
1.46608e-10
1.46608e-10
1.46608e-10
1.46608e-10
1.46608e-10
1.46608e-10
1.46608e-10
1.46608e-10
1.46608e-10
1.46608e-10
1.46608e-10
1.46608e-10
1.46608e-10
1.46608e-10
1.46608e-10
1.46608e-10
1.46608e-10
1.46608e-10
1.46608e-10
1.46608e-10
1.46608e-10
1.46608e-10
1.46608e-10
1.46608e-10
1.46608e-10
1.46608e-10
1.46608e-10
1.46608e-10
1.46608e-10
1.46608e-10
1.46608e-10
1.46608e-10
1.46608e-10
1.46608e-10
1.46608e-10
1.46608e-10
1.46608e-10
1.46608e-10
1.46608e-10
1.46608e-10
1.46608e-10
1.46608e-10
1.46608e-10
1.46608e-10
1.46608e-10
1.46608e-10
1.46608e-10
1.46608e-10
1.46608e-10
1.46608e-10
1.46608e-10
1.46608e-10
1.46608e-10
1.46608e-10
1.46608e-10
1.46608e-10
1.46608e-10
1.46608e-10
1.46608e-10
1.46608e-10
1.46608e-10
1.46608e-10
1.46608e-10
1.46608e-10
1.46608e-10
1.46608e-10
1.46608e-10
1.46608e-10
1.46608e-10
1.46608e-10
1.46608e-10
1.46608e-10
1.46608e-10
1.46608e-10
1.46608e-10
1.46608e-10
1.46608e-10
1.46608e-10
1.46608e-10
1.46608e-10
1.46608e-10
1.46608e-10
1.46608e-10
1.46608e-10
1.46608e-10
1.46608e-10
1.46608e-10
1.46608e-10
1.46608e-10
1.46608e-10
1.46608e-10
1.46608e-10
1.46608e-10
1.46608e-10
1.46608e-10
1.46608e-10
1.46608e-10
1.46608e-10
1.46608e-10
1.46608e-10
1.46608e-10
1.46608e-10
1.46608e-10
1.46608e-10
1.46608e-10
1.46608e-10
1.46608e-10
1.46608e-10
1.46608e-10
1.46608e-10
1.46608e-10
1.46608e-10
1.46608e-10
1.46608e-10
1.46608e-10
1.46608e-10
1.46608e-10
1.46608e-10
1.46608e-10
1.46608e-10
1.46608e-10
1.46608e-10
1.46608e-10
1.46608e-10
1.46608e-10
1.46608e-10
1.46608e-10
1.46608e-10
1.46608e-10
1.46608e-10
1.46608e-10
1.46608e-10
1.46608e-10
1.46608e-10
1.46608e-10
1.46608e-10
1.46608e-10
1.46608e-10
1.46608e-10
1.46608e-10
1.46608e-10
1.46608e-10
1.46608e-10
1.46608e-10
1.46608e-10
1.46608e-10
1.46608e-10
1.46608e-10
1.46608e-10
1.46608e-10
1.46608e-10
1.46608e-10
1.46608e-10
1.46608e-10
1.46608e-10
1.46608e-10
1.46608e-10
1.46608e-10
1.46608e-10
1.46608e-10
1.46608e-10
1.46608e-10
1.46608e-10
1.46608e-10
1.46608e-10
1.46608e-10
1.46608e-10
1.46608e-10
1.46608e-10
1.46608e-10
1.46608e-10
1.46608e-10
1.46608e-10
1.46608e-10
1.46608e-10
1.46608e-10
1.46608e-10
1.46608e-10
1.46608e-10
1.46608e-10
1.46608e-10
1.46608e-10
1.46608e-10
1.46608e-10
1.46608e-10
1.46608e-10
1.46608e-10
1.46608e-10
1.46608e-10
1.46608e-10
1.46608e-10
1.46608e-10
1.46608e-10
1.46608e-10
1.46608e-10
1.46608e-10
1.46608e-10
1.46608e-10
1.46608e-10
1.46608e-10
1.46608e-10
1.46608e-10
1.46608e-10
1.46608e-10
1.46608e-10
1.46608e-10
1.46608e-10
1.46608e-10
1.46608e-10
1.46608e-10
1.46608e-10
1.46608e-10
1.46608e-10
1.46608e-10
1.46608e-10
1.46608e-10
1.46608e-10
1.46608e-10
1.46608e-10
1.46608e-10
1.46608e-10
1.46608e-10
1.46608e-10
1.46608e-10

VECTORS velocity float
0.0056254 0.000428022 -0.00014447
0.00580753 0.000362798 -8.96387e-05
0.00584626 0.000405425 -0.000117873
0.00564473 -5.20547e-05 -0.000733669
0.00609459 -0.000748901 0.000245794
0.00572613 0.000426628 -0.000141959
0.0061384 -0.00020776 -0.00064796
0.00571878 -0.000632329 0.000252031
0.00871911 0.00246852 -0.00367831
0.00570448 0.00033897 -0.000145761
0.00569288 -0.000593398 5.84731e-05
0.00558207 -3.67025e-05 -0.00074162
0.00564009 -0.000619901 0.000433559
0.00552997 -0.000433382 -2.36285e-05
0.00605427 -0.000214514 -0.000631311
0.00559342 -4.20525e-05 -0.000741946
0.0057598 0.000425136 -0.000144841
0.00950012 0.00475317 -0.00606629
0.00562148 -0.000607742 -9.31474e-06
0.00561865 -0.000629426 0.000189534
0.00583751 -0.000135039 -0.000679615
0.00571519 -0.000633225 0.000252601
0.00597106 -3.93131e-06 0.00125449
0.00582562 0.00036191 -0.000138324
0.00555483 -3.79808e-05 -0.000738971
0.00599138 -0.000160755 -0.00067588
0.00573351 0.000435752 -0.000134514
0.00587951 -0.000137106 -0.000683343
0.00609791 -0.000745838 0.000243862
0.00579516 -0.000122753 -0.000685814
0.0057452 0.00041972 -0.000126142
0.00548572 -0.000595053 0.000240452
0.00629149 -0.000129079 -0.000743368
0.00580524 0.000408825 -0.000119831
0.00567912 -0.000646538 0.000180469
0.00573372 -8.55168e-05 -0.000714857
0.00584658 0.000404394 -0.000115664
0.00573765 0.000419125 -0.000125206
0.00610803 -0.00074244 0.000241528
0.00575542 -0.000104382 -0.000698566
0.00576776 0.000405423 -0.000142296
0.00544072 -0.0005812 0.000237241
0.00591773 -0.000140527 -0.000684451
0.00574917 0.000438413 -0.00014714
0.00562241 -0.000578184 0.000398996
0.00556622 -0.000626288 0.00019065
0.00577963 0.000611448 -0.000173899
0.00598665 -0.000319817 0.000788764
0.00580538 0.000539999 -0.00016358
0.00550279 -0.000619879 0.000188517
-5.01973e-15 -7.4121e-15 7.69802e-14
0.00572487 0.000425057 -0.000129865
0.005715 -7.06234e-05 -0.000726819
0.00577275 0.000413455 -0.000121999
0.00561655 0.000435843 -0.000146104
0.00560412 -0.000629655 0.000191976
0.00595697 -0.000804292 0.000166876
0.00562903 -0.000638933 0.000406427
0.00579863 0.000422405 -0.000144907
0.00578179 0.000382135 -0.000103288
0.00577029 0.000393787 -0.000141391
0.00571887 -0.000632535 0.00025203
0.00534363 -0.000596528 -7.11246e-06
0.00562377 0.000514141 -0.00015595
0.0084014 0.00211913 -0.00328546
0.00594224 -0.000149302 -0.000679001
0.00613182 -5.44594e-05 0.00135633
0.00582959 0.000357132 -8.69652e-05
0.00611407 2.65554e-06 0.00128486
0.00533536 -0.000589773 -7.20028e-06
0.00583622 0.000368237 -0.00011465
0.00562947 -0.000618604 0.000406717
0.00562604 -0.000648968 0.000101978
0.00547329 -0.000591108 0.000238884
0.00532491 -0.000663669 -6.62112e-07
0.00578415 0.000408066 -0.000118382
0.00579663 0.000276667 -3.96407e-05
0.00572987 0.000414359 -0.000145421
0.00576902 0.000423898 -0.000135524
0.00580468 0.000468309 -0.000152739
0.00585742 -0.000596647 4.46101e-05
0.00570517 0.000369961 -0.000135698
0.0061073 -0.000159464 -0.000689327
0.00581223 0.00043486 -0.000135476
0.00577154 0.000396692 -0.00013694
0.00568753 0.000338747 -0.000132125
0.00541251 3.07516e-05 0.00110804
0.00605125 -0.000156404 -0.000686331
0.00564665 -0.00064654 0.000407766
0.00573165 0.000426808 -0.000145108
0.0056243 -0.000639085 0.000402533
4.37688e-15 1.04499e-14 8.29605e-14
-2.00374e-22 5.77616e-22 8.29106e-22
0.00536839 -0.000415349 -2.34652e-05
0.00537589 -1.0178e-05 0.00110677
0.00556391 -0.000712806 0.00019978
0.00518718 2.71397e-05 0.00106512
0.0058268 0.000484931 -0.00015538
0.00574617 0.000370869 -0.00013726
0.00583082 0.000257905 -0.000210172
0.0062385 -0.000211173 -0.000681022
0.00549796 5.07932e-05 0.00110131
0.00561871 -0.000700311 0.000108712
0.00569145 -0.000570455 0.000405663
0.00581837 0.000399857 -0.00011317
0.00580026 0.000427626 -0.000145501
0.00573129 0.000424927 -0.000132895
0.00563483 -0.000659815 0.000108712
0.00579567 0.000537763 -0.000162746
0.00614023 -0.000214617 -0.000642265
0.00564109 0.000436179 -0.000145563
0.00597339 0.000295174 -0.000130157
0.00539507 -0.000604102 -6.64422e-06
0.00614341 -0.000219293 -0.000639492
0.00572008 0.000375417 -0.000136548
0.00535928 1.09301e-05 0.00111299
0.0060372 -0.000164354 -0.000678121
0.00572017 0.000437856 -0.000149298
0.00567069 -0.00065983 0.000405145
0.00565377 -0.000643848 0.000405253
0.00582443 0.000382095 -0.000101922
0.00565069 0.000443819 -0.000147767
0.00577496 0.000427212 -0.00014466
0.00573854 0.000400888 -0.00014157
0.00612771 -1.30059e-05 0.00132457
0.00572445 0.000409413 -0.000145949
0.00574423 0.000435006 -0.000148388
0.00578688 0.000351972 -0.00011135
0.00583259 2.56733e-05 0.00119926
0.00564809 -0.000601219 0.000408202
0.00529352 1.97041e-05 0.00108955
0.00564573 -0.000646307 0.000402191
0.00551484 3.52963e-05 0.00112197
0.00562631 -0.000690183 0.000310908
0.00590123 -2.29888e-05 0.00127496
0.0061598 -0.000181483 -0.000677592
0.00532646 -0.000588359 -7.29592e-06
0.00559832 -0.000640451 -3.61386e-06
0.00596055 -2.55597e-05 0.0012941
0.00546479 3.36075e-05 0.00111846
0.00556713 6.1824e-05 0.00110909
0.00576832 4.59206e-05 0.00116071
-3.82606e-14 8.17343e-14 2.95878e-13
0.00593619 -4.64734e-05 0.00132003
0.00582576 0.000270913 -0.000313599
0.00559892 -0.000646488 0.000403286
0.0056609 -0.000382725 -4.40068e-05
0.00567667 5.86246e-05 0.00113499
0.00538058 -0.000597737 -7.22799e-06
0.0057369 0.000360745 -0.000136784
0.00536748 -0.000600444 -7.02555e-06
0.00534733 -0.000560857 -1.00641e-05
0.0052328 -0.000567878 -7.76352e-06
0.0052294 -0.000562613 -8.50077e-06
0.00560749 0.000418738 -0.000142648
0.0059576 -0.000681378 0.000243837
0.00559535 0.000451949 -0.000131645
0.00577179 4.63651e-05 0.00115695
0.00613195 -0.000209437 0.000855001
0.00555329 3.25689e-05 0.0011267
0.00567312 -0.000668243 0.000422782
0.00559332 -0.00066806 -5.6866e-06
0.00562405 0.000418911 -0.000142697
0.00558685 -0.000618081 0.000234409
0.00563295 0.000426554 -0.000151216
0.00562441 -0.000594685 0.000414535
0.00535728 -0.000722263 3.71022e-06
0.00561711 0.000435257 -0.000144789
0.00576008 0.000383573 -0.000104502
0.00565137 0.000444019 -0.000146831
0.00566141 3.63929e-05 0.000169191
0.00617552 -0.000185511 -0.000676976
0.00549197 -0.000683994 9.0419e-05
0.00564093 0.000449817 -0.000147437
0.00570477 -0.000585416 5.63477e-05
0.00558918 -0.000622173 -8.10223e-06
0.00562916 -0.000625633 6.3085e-06
0.00607478 -0.000121691 -0.000261679
0.00563307 -0.000604863 0.000194577
0.00562198 -0.000643078 0.000417837
0.00546031 4.30266e-05 0.00109879
0.00544188 -0.000599636 -2.10444e-05
0.006013 -5.35238e-05 0.00133346
0.00572781 0.000428317 -0.000144648
0.00560865 -0.000599879 -9.45567e-06
0.00585958 3.23297e-05 0.00120549
0.00593276 1.81379e-05 0.00124479
0.00572131 4.12366e-05 0.00116237
0.00563837 -0.000605606 0.000406507
0.00576562 -0.000645702 0.00018352
0.00621606 -0.000219828 -0.00064568
0.00630056 -0.000161692 -0.000722314
0.00533629 -0.000584546 -9.28235e-06
0.00563484 0.000430017 -0.00014454
0.00581974 0.000375952 -0.000100131
0.00553154 -1.30561e-05 -0.00028484
0.00566798 4.02813e-05 0.00115168
0.00559033 0.000385629 -0.000137389
0.00565091 -0.000713445 0.000353197
0.00616127 -0.000181195 -0.000677005
0.00563431 -0.000628641 0.000400762
0.00573361 0.00042939 -0.000128754
0.00599878 -7.78743e-06 0.00125753
0.00625447 -0.000121736 -0.00056519
0.00563723 -0.00061128 -1.04045e-05
0.00556729 -1.58635e-05 -0.000285022
0.00559531 -2.85384e-05 -0.000280282
0.00536412 -0.000635449 -4.04692e-06
0.0059714 -2.6056e-05 0.00106614
0.00559634 -0.00062611 -9.32953e-06
0.00557474 -0.0006512 -3.60376e-06
0.00576383 0.000346103 -0.000128408
0.00592669 2.81241e-05 0.0012144
0.00618743 0.000142754 0.0013577
0.00612593 -0.000372098 0.000683804
0.00613401 -0.000137438 -0.000257313
0.00609922 -0.000124727 -0.000261517
0.00614561 -0.000141833 -0.000255834
0.00569856 7.10023e-05 0.00111715
0.0056392 -0.000603746 0.0004082
0.00612254 -0.000132538 -0.00025903
0.00575787 -5.69553e-05 -0.000275831
0.00580239 4.35923e-05 0.00116989
0.00558864 -0.000810036 0.000223278
0.00605192 -0.000120551 -0.000261035
0.00575372 3.72524e-05 0.00117672
0.00572573 0.000423594 -0.000143666
0.00572909 -5.27587e-05 -0.000276458
0.00566256 3.75712e-05 0.000168253
0.00603891 -0.000117553 -0.000261805
0.00550595 5.63075e-05 0.00109365
0.0053989 -0.00054749 -1.18417e-05
0.00595783 -2.15758e-05 0.00128894
0.00565278 -0.000659749 0.00040978
0.00569792 -4.75172e-05 -0.000277243
0.00557994 -0.000638047 -7.1828e-06
0.0066564 -0.000683018 -0.00108562
0.00551771 -0.000759959 0.000105146
0.00606264 -0.000121428 -0.000261166
0.00560772 5.34099e-05 0.00111309
0.00567894 3.16761e-05 0.000169526
0.00562382 -0.000620184 0.000405749
0.00581251 3.35933e-05 0.00119757
0.00562571 -0.000747376 0.000160619
0.00564761 -0.000607372 0.000407213
0.005975 0.000276546 -0.00012733
0.00558609 -0.000655833 -4.35183e-06
0.00554157 -1.78692e-05 -0.000282897
0.00589697 2.78627e-05 0.0012277
0.00564622 -3.86256e-05 -0.00027849
0.00574737 5.54089e-05 0.00115186
0.00572953 4.29355e-05 0.0011587
0.00585204 4.35194e-05 0.00118789
0.00562286 -0.000737022 0.000160548
0.00604373 0.00122346 -0.000899833
0.00561597 -2.5373e-05 -0.00028387
0.0056136 -0.000632929 0.000122255
0.00611131 -0.000128034 -0.000260595
0.00609993 9.79995e-05 0.00117479
0.00607861 8.06501e-06 0.00127533
0.00561788 4.40569e-05 0.00112103
0.00597931 4.29671e-05 0.00120962
0.00561239 -0.000623668 -4.49172e-06
0.00560577 3.83158e-05 0.00113586
0.00609216 -3.83254e-05 0.00132921
0.00564014 -0.000622802 0.000400451
0.00561375 -0.000662239 -1.57768e-05
0.00617967 2.90008e-05 0.00129634
0.00604026 8.31075e-05 0.00107966
0.00564736 -3.07317e-05 -0.000282133
0.00589402 3.86919e-05 0.00120547
0.00562273 0.000430288 -0.000144777
0.00608747 -0.000122521 -0.000261965
0.00579961 -6.5815e-05 -0.000273792
0.00572643 0.000425388 -0.000144643

VECTORS force float
-7.29034e-11 1.83673e-11 1.77787e-12
6.88706e-11 -1.09917e-12 2.92153e-11
-8.35475e-11 1.13515e-10 -8.65267e-11
-3.21504e-10 -4.60852e-11 1.35246e-10
-1.20789e-11 3.41218e-11 -1.93717e-11
-4.2662e-11 3.12833e-11 -1.42473e-11
6.12778e-11 1.94973e-11 -3.93601e-11
-5.94795e-11 -1.28694e-11 7.08492e-12
9.14314e-11 5.09208e-11 -7.55162e-11
5.41424e-11 -2.04482e-10 1.64765e-10
-1.11577e-10 1.66819e-10 -2.59703e-10
-1.87904e-11 9.07328e-11 -1.05461e-10
-5.30548e-11 1.21273e-10 -1.82988e-11
-1.54358e-10 1.1853e-10 -1.7621e-11
-8.34406e-11 1.59403e-10 -1.26659e-10
-2.10045e-10 2.42082e-10 -2.22873e-10
2.08741e-11 6.03332e-11 2.23337e-12
2.31161e-10 3.57681e-11 -6.90204e-11
-4.11667e-11 3.03932e-11 1.19039e-11
-7.00841e-11 3.34016e-11 -5.7888e-11
-1.87391e-10 -4.7003e-12 2.4533e-11
-7.81411e-12 -1.22232e-11 -1.49429e-11
-7.34009e-11 9.05163e-11 -2.01157e-11
-5.7014e-11 2.398e-11 -1.05343e-10
-1.4698e-10 1.84654e-10 -1.41425e-10
6.03311e-11 1.47368e-10 -1.60406e-10
-1.71112e-11 6.11485e-11 -2.62377e-11
-2.29688e-10 6.1591e-11 -3.18113e-11
-9.90755e-12 3.30988e-11 -1.83278e-11
9.06214e-11 -1.42839e-10 1.34682e-10
-4.22009e-11 7.85362e-12 2.99383e-12
1.57045e-11 -4.59855e-11 1.57658e-11
-1.92784e-11 1.02118e-10 -1.03705e-10
-4.37084e-12 2.62428e-11 -1.49887e-12
3.06442e-12 1.25149e-11 -3.85383e-11
2.68258e-10 -1.49844e-10 1.0734e-10
-8.73207e-11 5.22285e-11 -4.49061e-12
-5.64541e-11 1.54372e-11 -6.29911e-12
1.85351e-11 2.99069e-11 -1.88011e-11
-6.84481e-11 -1.37069e-10 1.42079e-10
-6.75686e-11 -5.56728e-11 -2.82921e-11
3.0945e-11 -1.60481e-11 1.63999e-12
-4.48904e-11 1.14891e-10 -1.03448e-10
-5.15548e-11 6.48666e-11 -1.64855e-12
-1.07826e-11 2.29512e-10 -1.83775e-11
5.12827e-11 1.01441e-11 -4.82954e-12
-5.8638e-11 -1.20851e-10 1.67779e-11
1.26255e-10 9.64391e-11 -1.46783e-10
-2.79874e-10 1.17229e-10 -8.85502e-12
-8.8623e-11 3.05088e-11 -1.74316e-11
4.75629e-24 -3.46382e-24 0.0
5.1371e-11 2.0874e-11 -1.97989e-11
-5.89785e-12 -8.10162e-11 1.06994e-10
-2.05407e-11 1.77833e-11 6.26193e-12
-7.63137e-12 -4.82353e-11 2.14401e-12
8.61053e-12 1.96585e-11 -1.97878e-11
-3.77002e-10 5.80922e-10 -2.51872e-10
-1.25128e-10 1.03749e-10 9.52451e-12
-4.41605e-11 7.51655e-11 5.12226e-12
5.52577e-12 -3.45184e-12 -3.87897e-13
-2.07461e-11 9.24086e-11 -1.50961e-11
-1.47304e-11 -6.43904e-12 -1.02191e-12
-9.50028e-11 4.80293e-11 -5.22432e-12
1.97778e-10 -6.99035e-11 1.41819e-11
-1.68558e-10 2.63947e-10 -2.51775e-10
1.54937e-10 1.00238e-10 -1.19967e-10
4.61747e-10 -1.59304e-10 4.23522e-10
-5.86371e-13 2.43824e-11 3.45909e-11
-2.72817e-11 -2.66583e-10 2.39686e-10
1.15973e-11 5.94024e-12 -1.15134e-12
-6.19007e-11 6.88561e-11 1.20191e-11
-2.12576e-10 2.34797e-11 -5.11352e-11
-1.87666e-10 1.34546e-10 2.01041e-10
6.35825e-12 -6.10364e-12 -9.42513e-12
4.75034e-10 5.9672e-10 -5.21668e-11
-5.60491e-11 -2.40702e-11 2.41799e-12
7.28681e-11 -1.77069e-11 1.63096e-12
-6.62776e-11 -1.46097e-11 2.60593e-12
2.10413e-10 -1.49989e-11 1.34521e-10
-1.42752e-10 9.97734e-11 -1.67154e-11
-1.67371e-10 2.29037e-10 -1.14579e-10
1.21411e-11 4.43816e-11 7.70315e-12
-2.06756e-10 2.38196e-10 -2.10906e-10
-2.81727e-10 1.5391e-10 -1.56884e-11
-1.04729e-10 6.49836e-12 2.38498e-12
2.34288e-11 1.03821e-10 -8.35921e-12
-3.16669e-10 -1.69118e-10 9.63962e-11
-1.67178e-10 2.47825e-10 -2.06817e-10
3.79074e-11 -4.84152e-11 -4.27677e-11
-4.50267e-11 6.1935e-11 -1.27684e-11
-7.95917e-11 -1.70011e-10 2.274e-11
-8.33565e-22 6.05445e-22 -3.18465e-23
3.23117e-27 0.0 0.0
-3.25597e-12 -1.35915e-10 2.6157e-11
6.90551e-10 9.95404e-11 3.07101e-10
4.1691e-10 3.05181e-10 -1.57792e-10
9.82457e-10 -8.34182e-12 1.89415e-10
-2.62382e-10 5.36798e-11 -1.95397e-12