# vtk DataFile Version 3.0
LIGGGHTS particles timestep 39200000
ASCII
DATASET POLYDATA
POINTS 275 float
0.241837 0.0182399 0.00704241
0.241511 0.017185 0.00745084
0.241662 0.0170838 0.00753436
0.241024 0.015504 0.00892902
0.247454 0.0169602 0.00757059
0.241795 0.0176032 0.00707985
0.241501 0.0168408 0.00775148
0.24765 0.017754 0.00702909
0.24115 0.0159402 0.00854854
0.241705 0.0177862 0.00711306
0.235822 0.0173201 0.00718827
0.241003 0.0154302 0.00899315
0.235778 0.0177925 0.00711463
0.236038 0.018364 0.00691691
0.241153 0.015866 0.00861553
0.240982 0.0153564 0.00905726
0.241832 0.0177819 0.00702677
0.241458 0.0166943 0.00788075
0.235999 0.0181711 0.00695417
0.247576 0.0174175 0.00720218
0.241201 0.016085 0.00842056
0.247617 0.0175733 0.00708372
0.235592 0.0170827 0.00729524
0.241586 0.017135 0.0074939
0.240962 0.0152826 0.00912164
0.241277 0.0163794 0.00816127
0.241875 0.0175497 0.00712392
0.241214 0.0161606 0.00835631
0.247475 0.0170362 0.00750926
0.241111 0.0158067 0.00868423
0.24176 0.0174531 0.00720899
0.24771 0.0180479 0.00703253
0.241641 0.0170105 0.00759899
0.241723 0.0173044 0.00733996
0.247595 0.0174949 0.00714186
0.241073 0.0156509 0.00880265
0.241759 0.0171067 0.00751134
0.241818 0.0173273 0.00731694
0.247496 0.0171122 0.00744792
0.241088 0.015725 0.00873707
0.241702 0.0180118 0.00703459
0.24767 0.017852 0.00703012
0.241237 0.0162324 0.00829081
0.241891 0.0176258 0.00706094
0.235882 0.0175978 0.00708499
0.247539 0.0172643 0.00732525
0.242043 0.0179448 0.00703243
0.235767 0.0174764 0.00713669
0.242024 0.0178469 0.00702923
0.247518 0.0171883 0.00738658
0.378022 0.019866 0.005332
0.241837 0.017401 0.00725202
0.241046 0.0155778 0.00886494
0.241742 0.0173786 0.00727456
0.241722 0.0181097 0.00703806
0.247559 0.0173407 0.00726378
0.235712 0.0176328 0.00708524
0.235758 0.0181462 0.00704717
0.241852 0.0178798 0.00702996
0.241648 0.0173559 0.00729958
0.241929 0.0178152 0.00702804
0.24763 0.0176561 0.00702913
0.236096 0.0187328 0.00684561
0.241893 0.0180771 0.0070364
0.241172 0.0160137 0.00848431
0.241256 0.0163061 0.00822594
0.235707 0.0172007 0.00723932
0.241532 0.0172583 0.00738619
0.235088 0.0155993 0.00855088
0.236014 0.0188561 0.00682161
0.241607 0.0172085 0.00742947
0.235854 0.0181731 0.00703943
0.235842 0.0174124 0.00715391
0.24769 0.01795 0.00703133
0.236168 0.0190042 0.00679355
0.241799 0.0172536 0.00738184
0.241565 0.0170608 0.00755749
0.241701 0.0175816 0.00710722
0.24177 0.0177087 0.00711059
0.241872 0.0179778 0.00703316
0.235802 0.0172283 0.00722244
0.241623 0.0176271 0.00706151
0.241341 0.0165999 0.00796821
0.241725 0.0178841 0.00711636
0.2416 0.0175032 0.00728828
0.241607 0.0175531 0.00712685
0.235205 0.0159014 0.00817161
0.241321 0.0165257 0.00803216
0.235735 0.0181723 0.00695348
0.241812 0.017684 0.00702357
0.235754 0.0182687 0.00693487
0.0643568 0.0187248 0.00531097
0.24257 0.0191927 0.00520306
0.236054 0.01847 0.00689642
0.235147 0.0157827 0.00832087
0.235751 0.0178187 0.00702196
0.235108 0.0156604 0.00847422
0.241949 0.0179132 0.00703122
0.241997 0.017671 0.0070235
0.24149 0.0171117 0.00751544
0.241447 0.0169652 0.00764474
0.235226 0.0160272 0.00801891
0.235637 0.017697 0.00707028
0.235696 0.0179798 0.00699072
0.24178 0.01718 0.00744672
0.241777 0.0179459 0.00703199
0.241778 0.0175278 0.00714327
0.235807 0.0176614 0.00706793
0.241969 0.0180111 0.00703442
0.24148 0.0167676 0.00781612
0.241856 0.0183379 0.0070459
0.24159 0.017479 0.00719173
0.236113 0.018849 0.00682315
0.241364 0.0166778 0.00790965
0.241684 0.0175033 0.00716763
0.235168 0.0158449 0.00824547
0.2413 0.0164526 0.00809702
0.241657 0.0176988 0.00712232
0.23579 0.0180112 0.00698477
0.23581 0.0181075 0.00696617
0.241683 0.0171572 0.00746964
0.241797 0.0180439 0.00703545
0.241757 0.017848 0.00702875
0.241909 0.0177173 0.00702482
0.235747 0.0173844 0.00717097
0.241615 0.017578 0.00722343
0.241662 0.0178159 0.00702782
0.241553 0.0173339 0.00732426
0.235585 0.0166852 0.0075257
0.23596 0.0179777 0.00699155
0.235128 0.0157216 0.00839754
0.235846 0.01785 0.00701606
0.235286 0.0161487 0.00787988
0.235771 0.0179149 0.00700337
0.235607 0.0167698 0.00747687
0.241405 0.0168187 0.00777406
0.235903 0.0190097 0.00681394
0.235887 0.0184931 0.00689166
0.235629 0.016856 0.00742706
0.235278 0.0160779 0.00794999
0.235284 0.016208 0.00779938
0.235563 0.0166004 0.00757461
0.0219312 0.0187687 0.00551176
0.235668 0.0170264 0.00732869
0.241705 0.0172306 0.00740493
0.235773 0.018365 0.00691625
0.235793 0.0183285 0.00700721
0.235349 0.0164623 0.00765422
0.235929 0.0186893 0.00685375
0.241682 0.0179139 0.00703123
0.235851 0.0187502 0.00684183
0.235982 0.0189491 0.00680354
0.235883 0.0189117 0.00681061
0.235921 0.0188206 0.00682832
0.241913 0.0181751 0.00703981
0.235618 0.0176044 0.00710246
0.241855 0.0180307 0.00711619
0.235393 0.0166307 0.00755538
0.235693 0.0175405 0.00711948
0.23538 0.0162345 0.00778494
0.235703 0.0178592 0.0071022
0.235793 0.0184613 0.00689764
0.241932 0.0182731 0.0070433
0.235676 0.0178836 0.00700927
0.241759 0.0179979 0.00711555
0.235865 0.0179463 0.00699747
0.236193 0.018909 0.00681167
0.241817 0.0181419 0.00703891
0.241666 0.0174322 0.00723657
0.241781 0.0184037 0.00704853
0.229827 0.0186269 0.00685367
0.241426 0.0168919 0.00770939
0.235657 0.0177905 0.0070402
0.241988 0.0181091 0.00703762
0.235873 0.0182695 0.00702078
0.235963 0.0184286 0.00690428
0.235924 0.0182359 0.00694151
0.229509 0.0172111 0.00752273
0.235862 0.0175049 0.00711948
0.235737 0.0179678 0.00708112
0.235205 0.0159639 0.00809358
0.235999 0.0185525 0.00688035
0.235687 0.0171113 0.0072796
0.241737 0.01775 0.00702555
0.236019 0.0182677 0.00693552
0.235533 0.0168273 0.00744278
0.235573 0.0169976 0.00734442
0.235446 0.0164891 0.007638
0.235901 0.01769 0.00705073
0.235787 0.0175689 0.0071023
0.241522 0.0169143 0.00768675
0.241543 0.0169875 0.00762212
0.236 0.0187589 0.0068404
0.241761 0.0183057 0.00704504
0.241629 0.0172824 0.00736528
0.229734 0.0181712 0.00703544
0.235424 0.0164044 0.0076869
0.242008 0.0182073 0.00704082
0.235715 0.0180761 0.00697209
0.241383 0.0167453 0.00783858
0.23583 0.018204 0.00694752
0.241855 0.017475 0.00718729
0.235612 0.0171734 0.00725762
0.241468 0.0170385 0.0075801
0.23598 0.0180744 0.00697287
0.229751 0.0182591 0.00699103
0.229697 0.0179958 0.0071242
0.236082 0.0189544 0.00680269
0.235517 0.0171479 0.00727966
0.235869 0.0183961 0.00701026
0.235832 0.0186546 0.00686419
0.241572 0.0174052 0.00725673
0.235478 0.0169691 0.00736
0.235577 0.0174208 0.00717063
0.235598 0.0175126 0.00713646
0.2294 0.0167761 0.00774397
0.229465 0.0170371 0.00761123
0.229379 0.016689 0.00778822
0.235542 0.0165159 0.00762341
0.235905 0.0181392 0.00696018
0.229422 0.0168631 0.00769972
0.229617 0.0176462 0.00730149
0.235414 0.0167152 0.00750658
0.235682 0.0177632 0.00713309
0.229552 0.0173852 0.00743424
0.235489 0.0166582 0.0075404
0.241717 0.017653 0.00703903
0.229639 0.0177332 0.00725724
0.229807 0.0185342 0.00688577
0.229574 0.0174722 0.00738999
0.235069 0.0155381 0.00862754
0.236129 0.0184053 0.00690907
0.235649 0.016941 0.00737799
0.235758 0.0176997 0.00714627
0.229659 0.0178206 0.00721292
0.235907 0.0185894 0.00687304
0.235672 0.0174485 0.00715371
0.235662 0.0176699 0.00716341
0.22953 0.0172981 0.00747848
0.235306 0.0162925 0.00775056
0.229845 0.0187214 0.00682658
0.235849 0.0183004 0.00692888
0.235511 0.0167427 0.0074916
0.235826 0.0177538 0.00703466
0.235885 0.0180426 0.00697885
0.241587 0.0174277 0.00735302
0.235812 0.0185577 0.00687903
0.229715 0.0180836 0.00707981
0.235553 0.0169127 0.00739344
0.229678 0.0179082 0.00716857
0.235371 0.0165461 0.00760418
0.235468 0.0165736 0.0075892
0.235436 0.0167997 0.00745779
0.235731 0.0177251 0.0070513
0.229853 0.0182972 0.00696993
0.229769 0.0183492 0.0069518
0.235868 0.0183968 0.00691027
0.229444 0.0169501 0.00765547
0.235537 0.0172379 0.00724064
0.235632 0.0172647 0.00722215
0.235327 0.0163771 0.00770177
0.235498 0.0170587 0.00732028
0.235943 0.0183322 0.00692289
0.235402 0.0163199 0.00773569
0.235727 0.0172925 0.00720515
0.2358 0.0178902 0.00709562
0.235851 0.0186127 0.00695282
0.235652 0.0173566 0.00718793
0.235557 0.017329 0.0072048
0.229788 0.0184415 0.00691804
0.235458 0.0168843 0.00740898
0.241742 0.0182076 0.00704155
0.229487 0.0171241 0.00756698
0.229596 0.0175592 0.00734574
0.241642 0.017718 0.00702434

VERTICES 275 550
1 0
1 1
1 2
1 3
1 4
1 5
1 6
1 7
1 8
1 9
1 10
1 11
1 12
1 13
1 14
1 15
1 16
1 17
1 18
1 19
1 20
1 21
1 22
1 23
1 24
1 25
1 26
1 27
1 28
1 29
1 30
1 31
1 32
1 33
1 34
1 35
1 36
1 37
1 38
1 39
1 40
1 41
1 42
1 43
1 44
1 45
1 46
1 47
1 48
1 49
1 50
1 51
1 52
1 53
1 54
1 55
1 56
1 57
1 58
1 59
1 60
1 61
1 62
1 63
1 64
1 65
1 66
1 67
1 68
1 69
1 70
1 71
1 72
1 73
1 74
1 75
1 76
1 77
1 78
1 79
1 80
1 81
1 82
1 83
1 84
1 85
1 86
1 87
1 88
1 89
1 90
1 91
1 92
1 93
1 94
1 95
1 96
1 97
1 98
1 99
1 100
1 101
1 102
1 103
1 104
1 105
1 106
1 107
1 108
1 109
1 110
1 111
1 112
1 113
1 114
1 115
1 116
1 117
1 118
1 119
1 120
1 121
1 122
1 123
1 124
1 125
1 126
1 127
1 128
1 129
1 130
1 131
1 132
1 133
1 134
1 135
1 136
1 137
1 138
1 139
1 140
1 141
1 142
1 143
1 144
1 145
1 146
1 147
1 148
1 149
1 150
1 151
1 152
1 153
1 154
1 155
1 156
1 157
1 158
1 159
1 160
1 161
1 162
1 163
1 164
1 165
1 166
1 167
1 168
1 169
1 170
1 171
1 172
1 173
1 174
1 175
1 176
1 177
1 178
1 179
1 180
1 181
1 182
1 183
1 184
1 185
1 186
1 187
1 188
1 189
1 190
1 191
1 192
1 193
1 194
1 195
1 196
1 197
1 198
1 199
1 200
1 201
1 202
1 203
1 204
1 205
1 206
1 207
1 208
1 209
1 210
1 211
1 212
1 213
1 214
1 215
1 216
1 217
1 218
1 219
1 220
1 221
1 222
1 223
1 224
1 225
1 226
1 227
1 228
1 229
1 230
1 231
1 232
1 233
1 234
1 235
1 236
1 237
1 238
1 239
1 240
1 241
1 242
1 243
1 244
1 245
1 246
1 247
1 248
1 249
1 250
1 251
1 252
1 253
1 254
1 255
1 256
1 257
1 258
1 259
1 260
1 261
1 262
1 263
1 264
1 265
1 266
1 267
1 268
1 269
1 270
1 271
1 272
1 273
1 274

POINT_DATA 275
SCALARS id int 1
LOOKUP_TABLE default
1
2
4
5
6
7
8
9
10
11
12
13
14
16
17
19
21
22
23
24
25
26
27
28
29
30
31
32
33
34
35
36
37
38
39
41
42
44
45
47
48
49
50
51
52
53
54
55
56
57
59
60
61
62
63
64
65
66
67
68
69
70
71
72
73
74
76
77
78
79
80
82
83
84
85
86
87
88
89
90
91
92
93
94
95
96
97
98
99
100
101
102
103
104
105
106
107
108
109
110
111
112
113
114
115
116
117
118
119
120
121
122
123
124
125
127
128
129
130
131
132
133
134
135
136
137
138
140
141
142
143
144
146
147
148
149
150
151
153
154
155
156
157
158
159
160
162
164
165
166
167
168
169
170
171
172
173
174
176
177
178
179
182
183
184
185
186
187
188
189
190
191
192
193
194
195
196
197
198
199
200
201
202
203
204
205
206
207
208
209
210
211
212
213
214
215
216
217
218
219
220
222
224
225
226
227
228
229
230
232
233
234
235
236
237
239
240
241
242
243
244
246
247
248
249
250
251
252
253
254
255
256
257
258
259
260
261
262
263
264
265
266
267
268
269
270
271
272
273
274
275
276
277
278
279
280
281
283
284
285
286
287
288
289
290
291
292
293
294
295
296
297
298
299
300

SCALARS type int 1
LOOKUP_TABLE default
1
1
1
1
1
1
1
1
1
1
1
1
1
1
1
1
1
1
1
1
1
1
1
1
1
1
1
1
1
1
1
1
1
1
1
1
1
1
1
1
1
1
1
1
1
1
1
1
1
1
1
1
1
1
1
1
1
1
1
1
1
1
1
1
1
1
1
1
1
1
1
1
1
1
1
1
1
1
1
1
1
1
1
1
1
1
1
1
1
1
1
1
1
1
1
1
1
1
1
1
1
1
1
1
1
1
1
1
1
1
1
1
1
1
1
1
1
1
1
1
1
1
1
1
1
1
1
1
1
1
1
1
1
1
1
1
1
1
1
1
1
1
1
1
1
1
1
1
1
1
1
1
1
1
1
1
1
1
1
1
1
1
1
1
1
1
1
1
1
1
1
1
1
1
1
1
1
1
1
1
1
1
1
1
1
1
1
1
1
1
1
1
1
1
1
1
1
1
1
1
1
1
1
1
1
1
1
1
1
1
1
1
1
1
1
1
1
1
1
1
1
1
1
1
1
1
1
1
1
1
1
1
1
1
1
1
1
1
1
1
1
1
1
1
1
1
1
1
1
1
1
1
1
1
1
1
1
1
1
1
1
1
1
1
1
1
1
1
1
1
1
1
1
1
1

SCALARS radius float 1
LOOKUP_TABLE default
5e-05
5e-05
5e-05
5e-05
5e-05
5e-05
5e-05
5e-05
5e-05
5e-05
5e-05
5e-05
5e-05
5e-05
5e-05
5e-05
5e-05
5e-05
5e-05
5e-05
5e-05
5e-05
5e-05
5e-05
5e-05
5e-05
5e-05
5e-05
5e-05
5e-05
5e-05
5e-05
5e-05
5e-05
5e-05
5e-05
5e-05
5e-05
5e-05
5e-05
5e-05
5e-05
5e-05
5e-05
5e-05
5e-05
5e-05
5e-05
5e-05
5e-05
5e-05
5e-05
5e-05
5e-05
5e-05
5e-05
5e-05
5e-05
5e-05
5e-05
5e-05
5e-05
5e-05
5e-05
5e-05
5e-05
5e-05
5e-05
5e-05
5e-05
5e-05
5e-05
5e-05
5e-05
5e-05
5e-05
5e-05
5e-05
5e-05
5e-05
5e-05
5e-05
5e-05
5e-05
5e-05
5e-05
5e-05
5e-05
5e-05
5e-05
5e-05
5e-05
5e-05
5e-05
5e-05
5e-05
5e-05
5e-05
5e-05
5e-05
5e-05
5e-05
5e-05
5e-05
5e-05
5e-05
5e-05
5e-05
5e-05
5e-05
5e-05
5e-05
5e-05
5e-05
5e-05
5e-05
5e-05
5e-05
5e-05
5e-05
5e-05
5e-05
5e-05
5e-05
5e-05
5e-05
5e-05
5e-05
5e-05
5e-05
5e-05
5e-05
5e-05
5e-05
5e-05
5e-05
5e-05
5e-05
5e-05
5e-05
5e-05
5e-05
5e-05
5e-05
5e-05
5e-05
5e-05
5e-05
5e-05
5e-05
5e-05
5e-05
5e-05
5e-05
5e-05
5e-05
5e-05
5e-05
5e-05
5e-05
5e-05
5e-05
5e-05
5e-05
5e-05
5e-05
5e-05
5e-05
5e-05
5e-05
5e-05
5e-05
5e-05
5e-05
5e-05
5e-05
5e-05
5e-05
5e-05
5e-05
5e-05
5e-05
5e-05
5e-05
5e-05
5e-05
5e-05
5e-05
5e-05
5e-05
5e-05
5e-05
5e-05
5e-05
5e-05
5e-05
5e-05
5e-05
5e-05
5e-05
5e-05
5e-05
5e-05
5e-05
5e-05
5e-05
5e-05
5e-05
5e-05
5e-05
5e-05
5e-05
5e-05
5e-05
5e-05
5e-05
5e-05
5e-05
5e-05
5e-05
5e-05
5e-05
5e-05
5e-05
5e-05
5e-05
5e-05
5e-05
5e-05
5e-05
5e-05
5e-05
5e-05
5e-05
5e-05
5e-05
5e-05
5e-05
5e-05
5e-05
5e-05
5e-05
5e-05
5e-05
5e-05
5e-05
5e-05
5e-05
5e-05
5e-05
5e-05
5e-05
5e-05
5e-05
5e-05
5e-05
5e-05
5e-05
5e-05
5e-05
5e-05
5e-05
5e-05
5e-05
5e-05
5e-05
5e-05
5e-05
5e-05
5e-05
5e-05
5e-05
5e-05
5e-05
5e-05

SCALARS mass float 1
LOOKUP_TABLE default
1.46608e-10
1.46608e-10
1.46608e-10
1.46608e-10
1.46608e-10
1.46608e-10
1.46608e-10
1.46608e-10
1.46608e-10
1.46608e-10
1.46608e-10
1.46608e-10
1.46608e-10
1.46608e-10
1.46608e-10
1.46608e-10
1.46608e-10
1.46608e-10
1.46608e-10
1.46608e-10
1.46608e-10
1.46608e-10
1.46608e-10
1.46608e-10
1.46608e-10
1.46608e-10
1.46608e-10
1.46608e-10
1.46608e-10
1.46608e-10
1.46608e-10
1.46608e-10
1.46608e-10
1.46608e-10
1.46608e-10
1.46608e-10
1.46608e-10
1.46608e-10
1.46608e-10
1.46608e-10
1.46608e-10
1.46608e-10
1.46608e-10
1.46608e-10
1.46608e-10
1.46608e-10
1.46608e-10
1.46608e-10
1.46608e-10
1.46608e-10
1.46608e-10
1.46608e-10
1.46608e-10
1.46608e-10
1.46608e-10
1.46608e-10
1.46608e-10
1.46608e-10
1.46608e-10
1.46608e-10
1.46608e-10
1.46608e-10
1.46608e-10
1.46608e-10
1.46608e-10
1.46608e-10
1.46608e-10
1.46608e-10
1.46608e-10
1.46608e-10
1.46608e-10
1.46608e-10
1.46608e-10
1.46608e-10
1.46608e-10
1.46608e-10
1.46608e-10
1.46608e-10
1.46608e-10
1.46608e-10
1.46608e-10
1.46608e-10
1.46608e-10
1.46608e-10
1.46608e-10
1.46608e-10
1.46608e-10
1.46608e-10
1.46608e-10
1.46608e-10
1.46608e-10
1.46608e-10
1.46608e-10
1.46608e-10
1.46608e-10
1.46608e-10
1.46608e-10
1.46608e-10
1.46608e-10
1.46608e-10
1.46608e-10
1.46608e-10
1.46608e-10
1.46608e-10
1.46608e-10
1.46608e-10
1.46608e-10
1.46608e-10
1.46608e-10
1.46608e-10
1.46608e-10
1.46608e-10
1.46608e-10
1.46608e-10
1.46608e-10
1.46608e-10
1.46608e-10
1.46608e-10
1.46608e-10
1.46608e-10
1.46608e-10
1.46608e-10
1.46608e-10
1.46608e-10
1.46608e-10
1.46608e-10
1.46608e-10
1.46608e-10
1.46608e-10
1.46608e-10
1.46608e-10
1.46608e-10
1.46608e-10
1.46608e-10
1.46608e-10
1.46608e-10
1.46608e-10
1.46608e-10
1.46608e-10
1.46608e-10
1.46608e-10
1.46608e-10
1.46608e-10
1.46608e-10
1.46608e-10
1.46608e-10
1.46608e-10
1.46608e-10
1.46608e-10
1.46608e-10
1.46608e-10
1.46608e-10
1.46608e-10
1.46608e-10
1.46608e-10
1.46608e-10
1.46608e-10
1.46608e-10
1.46608e-10
1.46608e-10
1.46608e-10
1.46608e-10
1.46608e-10
1.46608e-10
1.46608e-10
1.46608e-10
1.46608e-10
1.46608e-10
1.46608e-10
1.46608e-10
1.46608e-10
1.46608e-10
1.46608e-10
1.46608e-10
1.46608e-10
1.46608e-10
1.46608e-10
1.46608e-10
1.46608e-10
1.46608e-10
1.46608e-10
1.46608e-10
1.46608e-10
1.46608e-10
1.46608e-10
1.46608e-10
1.46608e-10
1.46608e-10
1.46608e-10
1.46608e-10
1.46608e-10
1.46608e-10
1.46608e-10
1.46608e-10
1.46608e-10
1.46608e-10
1.46608e-10
1.46608e-10
1.46608e-10
1.46608e-10
1.46608e-10
1.46608e-10
1.46608e-10
1.46608e-10
1.46608e-10
1.46608e-10
1.46608e-10
1.46608e-10
1.46608e-10
1.46608e-10
1.46608e-10
1.46608e-10
1.46608e-10
1.46608e-10
1.46608e-10
1.46608e-10
1.46608e-10
1.46608e-10
1.46608e-10
1.46608e-10
1.46608e-10
1.46608e-10
1.46608e-10
1.46608e-10
1.46608e-10
1.46608e-10
1.46608e-10
1.46608e-10
1.46608e-10
1.46608e-10
1.46608e-10
1.46608e-10
1.46608e-10
1.46608e-10
1.46608e-10
1.46608e-10
1.46608e-10
1.46608e-10
1.46608e-10
1.46608e-10
1.46608e-10
1.46608e-10
1.46608e-10
1.46608e-10
1.46608e-10
1.46608e-10
1.46608e-10
1.46608e-10
1.46608e-10
1.46608e-10
1.46608e-10
1.46608e-10
1.46608e-10
1.46608e-10
1.46608e-10
1.46608e-10
1.46608e-10
1.46608e-10
1.46608e-10
1.46608e-10
1.46608e-10
1.46608e-10
1.46608e-10
1.46608e-10
1.46608e-10
1.46608e-10
1.46608e-10
1.46608e-10
1.46608e-10
1.46608e-10
1.46608e-10
1.46608e-10
1.46608e-10
1.46608e-10
1.46608e-10

VECTORS velocity float
0.00545224 1.30769e-05 -1.88402e-05
0.00598403 -0.000182548 -2.8645e-05
0.00595412 -0.000217071 2.71962e-06
0.00542865 0.000515649 0.000565474
0.00620592 0.000375808 -0.000837884
0.0056402 -3.81787e-06 -1.17293e-05
0.005874 -0.000188054 -2.02649e-05
0.00580539 0.00112098 -0.000250389
0.00554462 -9.7954e-05 -8.87615e-05
0.00563565 -4.01184e-05 6.96622e-06
0.00571806 -0.000531797 -0.000236262
0.00541205 0.000513523 0.000563576
0.0061071 -0.000690531 -0.000123291
0.00552948 -0.000409274 8.85503e-05
0.00549069 -0.000116943 -9.91799e-05
0.00544518 0.000508089 0.000574487
0.00564121 -2.554e-05 1.19045e-05
0.00582153 -0.000184043 -2.36788e-05
0.00558498 -0.000313128 7.09725e-05
0.00588308 0.000539284 -0.000950434
0.0055748 -0.000112718 -8.01471e-05
0.00554739 0.000666084 -0.00093612
0.00567782 -0.000319865 0.000252171
0.00597477 -0.00019952 -6.91038e-06
0.00566005 0.000497957 0.000625058
0.00570734 -0.000130653 -6.67397e-05
0.00585677 -7.62494e-05 2.14046e-05
0.00561498 -0.000119459 -7.39619e-05
0.00624345 0.000379799 -0.000844326
0.0055886 0.000368194 0.000388841
0.00581587 0.00016763 -0.000316936
0.00584065 0.00115996 -0.000250274
0.00592965 -0.000214095 -4.07083e-07
0.0060781 -0.000168346 -4.44532e-05
0.00573181 0.000539524 -0.00102067
0.00547684 0.000501732 0.000574337
0.00611878 -0.000132718 -7.81796e-05
0.00606817 -0.000164995 -5.11215e-05
0.00625201 0.000393513 -0.000856938
0.0055052 0.000512245 0.000587354
0.00561411 -4.45098e-05 -1.53282e-05
0.00579238 0.00113765 -0.00025223
0.00565412 -0.000125087 -6.84084e-05
0.00569727 -4.66842e-05 2.39519e-05
0.00553365 -0.000514497 -0.000221116
0.00633064 0.000436373 -0.000895306
0.00554944 -5.82945e-06 1.14684e-05
0.00579432 -0.00032434 -0.000314514
0.0056311 6.95158e-07 1.41124e-05
0.00627976 0.000421499 -0.000879999
-5.01991e-15 -7.41201e-15 7.69802e-14
0.00603896 -0.000157001 -4.09746e-05
0.00544526 0.000511197 0.000571737
0.00605121 -0.000177946 -3.77376e-05
0.00560441 -4.36832e-05 -1.7534e-05
0.00619038 0.000480553 -0.000917471
0.00551774 -0.000491181 -0.000202939
0.00552554 -0.00038905 8.03739e-05
0.00562786 -2.21375e-05 1.05669e-05
0.00605965 -0.000178473 -3.26971e-05
0.00563117 -3.83567e-05 1.47659e-05
0.0058411 0.00109816 -0.000225105
0.00508418 -0.00037453 8.12775e-05
0.00540182 -0.000144008 6.22259e-06
0.00556129 -0.000110348 -9.19263e-05
0.00567491 -0.000126503 -6.85388e-05
0.00562596 -0.00061135 -0.000201751
0.00603428 -0.000187969 -2.58503e-05
0.00548801 -0.000255655 0.000207203
0.00563793 -0.000397388 8.63474e-05
0.00600485 -0.000211502 -4.71795e-06
0.00552537 -0.000390354 8.36733e-05
0.00587459 -0.000240789 -0.000351799
0.00582916 0.0011423 -0.000250116
0.00537391 0.00026919 2.61983e-05
0.00607348 -0.000161122 -5.38975e-05
0.0059527 -0.000196682 -1.66476e-05
0.00500325 -0.00018242 -0.00233003
0.00564034 -3.7542e-05 8.76931e-06
0.00560716 -2.52893e-05 6.26773e-06
0.00563794 -0.000638799 -0.000191966
0.00560501 -5.66792e-05 -1.34385e-05
0.00579929 -0.000150759 -4.89983e-05
0.00561649 -2.79532e-05 -2.08607e-06
0.00586175 -0.000104148 -0.000100359
0.00550945 -7.78244e-05 -5.81425e-05
0.00552983 -0.000255821 0.000205475
0.00575715 -0.00014838 -5.18588e-05
0.0055225 -0.000386083 8.36022e-05
0.00562826 -9.05295e-06 4.87288e-06
0.00551447 -0.000384836 8.43746e-05
4.21487e-15 1.05261e-14 8.29592e-14
2.29399e-22 -1.27651e-22 1.23839e-22
0.00553677 -0.000425434 9.16806e-05
0.00551206 -0.000253121 0.000203522
0.00557154 -0.000414443 9.46957e-05
0.00549072 -0.000255449 0.000206943
0.00558846 -3.26063e-05 1.25542e-05
0.00566665 -2.49735e-05 9.94719e-06
0.00596517 -0.000183563 -3.0096e-05
0.0059151 -0.000184548 -2.59364e-05
0.00563747 -0.000265936 0.000220352
0.00551957 -0.000450416 -0.000114385
0.00562473 -0.000404549 8.44362e-05
0.00608269 -0.000144277 -6.56976e-05
0.00561796 -3.39231e-05 -1.44703e-05
0.00562075 -4.51649e-05 -6.25645e-05
0.00553372 -0.000492913 -0.00025255
0.00552116 -1.26853e-05 1.16813e-05
0.0058522 -0.000187328 -2.20265e-05
0.00539857 -4.59454e-05 -1.89835e-05
0.00562229 -0.000115136 -7.0578e-05
0.00564545 -0.000166892 4.21286e-05
0.00580932 -0.000154218 -4.83247e-05
0.00558966 -4.42201e-05 -0.000160068
0.00552376 -0.000255424 0.000203478
0.00572187 -0.000137716 -5.82063e-05
0.00559251 -2.41332e-05 -4.66658e-05
0.00563804 -0.000413472 8.8714e-05
0.00560488 -0.000361067 7.91533e-05
0.00604376 -0.000178197 -3.5153e-05
0.00561142 -3.22998e-05 -9.51832e-06
0.00563191 -3.52066e-05 7.49479e-06
0.00564565 -3.5515e-05 1.10321e-05
0.00568943 -0.000566534 -0.00022138
0.00554134 -0.000140024 -3.6419e-05
0.00562948 -5.3428e-05 4.67582e-06
0.0060636 -0.000188935 -2.36407e-05
0.0061342 -0.00034917 0.000264066
0.00560449 -0.000344722 7.67448e-05
0.00549896 -0.000254379 0.000205441
0.00558774 -0.000445188 9.77052e-05
0.00605771 -0.000393195 0.000281574
0.00561021 -0.000417985 8.67641e-05
0.006073 -0.000359202 0.000269392
0.00588018 -0.00016775 -3.93523e-05
0.00564069 -0.000415985 8.35253e-05
0.00553413 -0.000400552 8.68213e-05
0.00570192 -0.000327975 0.000247059
0.00582372 -0.000340277 0.000305814
0.00612235 -0.000387673 0.000286244
0.00618441 -0.000363261 0.000272838
-3.83077e-14 8.1679e-14 2.95888e-13
0.00567851 -0.000353017 0.000262369
0.0060745 -0.000171815 -4.09566e-05
0.0055208 -0.000385517 8.38827e-05
0.00551478 -0.000380629 8.58736e-05
0.00617547 -0.000399753 0.00029385
0.005433 -0.000634699 0.000131808
0.00562044 -4.99256e-05 -7.35034e-06
0.00562503 -0.000403405 8.63273e-05
0.00563493 -0.000405661 8.69163e-05
0.00565028 -0.000417214 9.02544e-05
0.0056433 -0.000414057 8.9773e-05
0.00523619 -0.000108553 -2.74672e-05
0.0056283 -0.000495449 -0.000216169
0.00549564 -0.000148025 5.15012e-05
0.00617035 -0.000404264 0.000296507
0.0057352 -0.000389059 -0.000287018
0.00616128 -0.000406186 0.000297417
0.0057899 -0.000584359 -1.07507e-05
0.00553616 -0.000386514 8.44826e-05
0.00533263 -0.000129812 -2.58063e-05
0.00559904 -0.000399338 9.21318e-05
0.00561292 -5.22418e-05 -1.41139e-05
0.00561105 -0.000447884 9.60823e-05
0.00531554 0.000237135 -3.69494e-05
0.00550002 2.3158e-06 -2.25244e-05
0.00579506 -0.000674567 -0.000969017
0.00542658 -1.02577e-05 -1.79164e-05
0.00576319 0.000412027 -5.33907e-05
0.00589899 -0.000180399 -3.19491e-05
0.0055543 -0.000412965 3.68811e-05
0.00536118 2.87616e-05 1.59082e-05
0.00552072 -0.000387779 8.54311e-05
0.00552893 -0.000407835 8.86358e-05
0.00552038 -0.000384359 8.43308e-05
0.00600866 0.00017215 -0.000462813
0.00552114 -0.000551151 -0.000217848
0.00563236 -0.000390099 7.56629e-05
0.0055367 -0.000255356 0.000204234
0.00554267 -0.00042297 9.17411e-05
0.00569955 -0.000355036 0.000263746
0.00563065 -5.26444e-05 9.65965e-06
0.00552018 -0.000401578 8.74824e-05
0.00606494 -0.000374495 0.000277613
0.00566574 -0.000323041 0.000244679
0.00618206 -0.000397259 0.000292477
0.00564166 -0.000424839 -0.000267657
0.0055189 -0.000526486 -0.000220519
0.00590049 -0.00019579 -1.59105e-05
0.00592619 -0.000197972 -1.6291e-05
0.00510314 -0.000319214 7.05713e-05
0.00543082 -1.27798e-05 -1.85788e-05
0.00606412 -0.000185076 -2.5798e-05
0.0055205 0.000272715 -0.00048033
0.00617693 -0.000397076 0.000292367
0.00527853 -0.000206635 7.39236e-06
0.00562813 -0.00040791 8.57021e-05
0.00583358 -0.000157976 -4.36174e-05
0.00552213 -0.000380475 8.35169e-05
0.00597671 -0.000134049 -1.32763e-05
0.0056883 -0.000407583 0.00013298
0.00594377 -0.00018542 -3.0171e-05
0.00562703 -0.000263897 6.20909e-05
0.00558229 0.000261377 -0.000483093
0.00553513 0.000270554 -0.000481548
0.00562233 -0.000164792 4.13181e-05
0.00565751 -0.000383457 5.39006e-05
0.0055147 -0.000397266 8.58229e-05
0.00556548 -0.000390773 8.22148e-05
0.00591976 -0.000164097 -4.05855e-05
0.00570713 -0.000319225 0.000244082
0.00574271 -0.000525815 -0.00024
0.00574326 -0.000526317 -0.000239348
0.00605105 0.000169375 -0.000464102
0.00602571 0.000172327 -0.000463959
0.00605883 0.000166514 -0.000463143
0.00620206 -0.000369189 0.000276426
0.00558274 -0.000303343 6.9592e-05
0.0060427 0.000171607 -0.000464677
0.00596925 0.000176 -0.000462224
0.00613967 -0.000400945 0.000294408
0.00564929 -0.000454181 1.15262e-05
0.00599096 0.000173228 -0.000462227
0.00616178 -0.000383437 0.000284423
0.00561534 -5.10767e-05 2.64958e-05
0.00574715 0.000227614 -0.00047375
0.00570707 0.000426562 -4.88849e-05
0.00598407 0.000173067 -0.000461708
0.00547538 -0.000255252 0.00020681
0.00553597 -0.000423547 9.17743e-05
0.0056687 -0.000324336 0.00024484
0.00556763 -0.000599552 -0.000184898
0.00565649 0.000249256 -0.000478735
0.00555018 -0.000405163 8.6855e-05
0.0057203 -0.00054342 -0.000231814
0.00559158 -0.000511624 -0.000139063
0.00599985 0.000172876 -0.000462583
0.00617071 -0.000397893 0.000292799
0.00580055 0.000397743 -3.87565e-05
0.00551277 -0.000391682 8.61434e-05
0.00611703 -0.000366217 0.000273611
0.0055469 -0.000442634 9.60934e-05
0.00562912 -0.000323393 7.21531e-05
0.00618577 -0.000158961 -8.11217e-05
0.00555327 -0.000387928 8.54351e-05
0.00550484 0.000277144 -0.000481285
0.00569545 -0.00033023 0.000249816
0.00556522 0.000268068 -0.000482385
0.00617562 -0.000401525 0.000294854
0.00617953 -0.000392194 0.000289555
0.00609194 -0.00039119 0.000288025
0.00553162 -0.000434345 6.63645e-06
0.00555942 0.000303498 -1.12773e-05
0.00564403 0.000349349 -0.000262967
0.00552225 -0.000395813 8.61454e-05
0.00603446 0.000172451 -0.000464577
0.00568057 -0.000453787 -0.000102316
0.00569759 -0.000545111 -0.000225085
0.00617448 -0.000398448 0.000292972
0.00565701 -0.000339053 0.000165964
0.00551406 -0.000406952 8.84419e-05
0.00617853 -0.000396933 0.00029223
0.00567433 -0.000604137 -0.000207944
0.00557295 -0.000427953 8.99734e-05
0.00555657 -0.000380886 8.41608e-05
0.00572239 -0.00055319 -0.000230148
0.00572413 -0.000512091 -0.000221825
0.00569059 0.000428039 -4.39326e-05
0.00606311 -0.000384026 0.000282895
0.00545715 -1.604e-05 -1.93257e-05
0.00601693 0.000171914 -0.000463174
0.0059754 0.000173124 -0.0004612
0.00563682 -5.37711e-05 9.66274e-06

VECTORS force float
9.09209e-11 1.43409e-10 -1.8689e-11
1.04945e-10 1.92401e-11 -2.98257e-11
-7.3167e-11 -4.30556e-11 8.5391e-11
6.18655e-11 1.81179e-11 3.381e-11
-7.22456e-11 1.59556e-10 -1.22971e-10
4.41311e-11 -1.59707e-10 2.92796e-10
9.7485e-11 6.2315e-12 -1.03645e-11
-2.27535e-11 3.37366e-11 4.98632e-11
-1.72919e-11 -2.55047e-11 3.60859e-11
1.38772e-11 -8.57887e-11 -5.43137e-11
-2.35467e-10 1.74219e-11 1.15495e-11
-6.07786e-11 4.37197e-14 -1.13242e-13
3.92124e-12 -8.98904e-11 -8.86715e-11
-6.70497e-11 3.10857e-11 -6.71732e-12
-1.06406e-10 -1.07798e-11 2.95493e-11
6.85253e-11 -2.20122e-11 3.96726e-11
-1.02569e-10 -6.00316e-11 -3.7773e-11
-9.64968e-11 -1.69712e-11 3.93097e-11
2.22917e-10 1.91062e-10 -4.08187e-11
-4.69951e-10 1.02846e-10 4.9645e-11
-2.32683e-11 -8.15424e-12 5.65245e-11
2.02834e-11 3.98734e-11 1.84177e-10
-3.62137e-11 6.69094e-11 4.98197e-12
2.73169e-11 -7.15329e-11 6.61925e-11
-5.27538e-11 -7.73576e-12 -7.43018e-12
-1.74958e-10 3.60429e-11 -2.01956e-12
1.17943e-10 -2.94093e-10 3.57204e-10
-5.24699e-11 -6.29467e-11 -1.80468e-11
1.14361e-10 1.22748e-10 -1.03721e-10
8.45208e-11 -1.24829e-11 1.15308e-10
-9.76848e-11 1.09712e-10 1.72273e-10
6.45385e-12 1.15271e-10 3.34134e-11
-3.09011e-11 -5.25225e-11 4.99189e-11
-1.72553e-10 1.78451e-10 -1.4339e-10
-2.28348e-11 1.13045e-10 2.33547e-10
-9.77612e-11 -1.09784e-10 9.76338e-11
-1.43868e-10 -4.14516e-10 3.7948e-10
-5.53138e-11 1.13539e-10 4.12797e-11
1.37281e-10 3.89214e-11 -2.55797e-11
1.30488e-10 1.92366e-11 1.3822e-10
-2.51557e-11 7.41974e-12 2.43026e-11
9.53367e-11 4.93153e-11 3.58899e-11
5.71399e-11 -1.17766e-11 -4.57411e-12
-6.8461e-11 -2.98944e-10 1.16659e-10
-1.69266e-10 9.44652e-11 -9.46377e-11
-1.373e-10 -8.46333e-11 4.7263e-11
-1.86284e-10 7.31894e-12 7.66134e-12
8.01694e-11 1.76116e-10 -7.89273e-11
2.71599e-11 2.3839e-10 -1.17259e-10
9.11535e-11 -2.64859e-11 7.70068e-12
-2.71419e-24 5.76441e-24 4.1359e-25
-7.71055e-11 3.20457e-12 2.54918e-10
5.3519e-11 -7.8669e-11 9.67245e-11
-2.91391e-10 -4.8524e-11 2.83881e-11
-2.16501e-11 6.98398e-11 -1.74294e-11
-6.25925e-10 7.29403e-11 1.77592e-11
1.04598e-10 -9.01915e-11 -2.01443e-10
-7.40325e-11 -2.50593e-12 -5.25635e-11
1.1908e-11 -1.31023e-11 1.17271e-11
-2.24922e-10 5.57251e-11 -3.59403e-11
-1.12703e-10 7.9734e-11 -1.68671e-10
7.36806e-11 -3.06631e-11 1.52665e-10
-1.75185e-10 1.37545e-10 -2.70755e-11
1.22845e-10 1.52941e-10 2.33005e-11
-4.44045e-11 -3.09592e-12 5.70355e-11
-5.48846e-11 2.52977e-11 3.34053e-11
-8.56516e-11 -1.88318e-10 1.01067e-10
-1.21586e-10 2.51434e-11 1.35077e-11
2.80928e-11 1.82995e-10 -2.25014e-10
1.50223e-11 6.10933e-11 -1.36466e-11
-1.10921e-11 -1.08199e-10 1.21625e-10
-5.92642e-11 -6.91909e-11 -9.09702e-11
-1.49573e-10 1.68255e-10 -3.5185e-11
1.02964e-11 5.52187e-11 2.09854e-11
7.86914e-11 5.12954e-12 2.89579e-12
-6.73655e-11 2.31504e-10 -2.28549e-10
-4.11644e-11 -5.46896e-11 1.67771e-11
-3.85315e-10 -8.90941e-11 -9.84716e-10
-1.48359e-10 1.41614e-10 5.17525e-11
-5.86172e-11 6.24246e-11 -3.81389e-12
-5.21212e-11 -2.27369e-11 3.48757e-12
-4.08997e-11 -3.212e-11 -1.83426e-11
-8.06151e-11 1.28772e-10 -8.14664e-11
-2.06998e-11 3.01142e-11 -1.84034e-11
9.09369e-11 -7.96273e-11 1.02462e-10
-9.94836e-11 6.94703e-12 2.08767e-11
-1.04503e-10 1.0143e-10 -1.26191e-10
-2.23128e-10 9.37288e-11 -8.61573e-11
-7.21146e-11 4.56341e-11 -1.62678e-11
-2.36982e-10 -7.57824e-15 4.21535e-11
-4.248e-11 3.37292e-11 -1.1703e-11
-3.02333e-21 6.36154e-22 7.34123e-23
0.0 0.0 0.0
-1.20211e-10 4.95533e-11 2.27712e-11
-3.00355e-11 8.48201e-11 -1.13094e-10
-4.16204e-11 5.50105e-11 -7.05495e-11