# vtk DataFile Version 3.0
LIGGGHTS particles timestep 22600000
ASCII
DATASET POLYDATA
POINTS 285 float
0.144531 0.0163259 0.00844346
0.145003 0.0185041 0.0069412
0.138819 0.0172331 0.00732783
0.144909 0.0176475 0.00754005
0.144348 0.0159944 0.00864091
0.150734 0.0172344 0.00737137
0.144598 0.0168476 0.00805767
0.14424 0.0155929 0.00891861
0.15091 0.0180694 0.00708555
0.144483 0.016476 0.00830957
0.145223 0.0182454 0.0071438
0.138607 0.0167151 0.00770255
0.144326 0.0159141 0.00869645
0.138348 0.0158812 0.0085136
0.144781 0.0171647 0.00787173
0.138326 0.0158112 0.00858166
0.144456 0.0163959 0.00836341
0.144305 0.0158338 0.00875199
0.144498 0.0162117 0.0085216
0.144644 0.0170115 0.00794506
0.138742 0.0168804 0.00754278
0.150851 0.0177911 0.00718083
0.144533 0.0166363 0.00820131
0.150949 0.0178252 0.00716711
0.138892 0.0175734 0.00726504
0.144889 0.0175658 0.00759439
0.144283 0.0157535 0.00880753
0.144853 0.0174053 0.00770789
0.144569 0.0167482 0.00812569
0.144702 0.0170839 0.0079082
0.150753 0.0173271 0.00733963
0.144435 0.0163156 0.00841883
0.144621 0.0169311 0.00800034
0.150949 0.018255 0.00702204
0.14466 0.0169183 0.00809168
0.144944 0.01745 0.00770361
0.150871 0.0178838 0.00714907
0.144391 0.016155 0.00852984
0.144698 0.0171817 0.00794037
0.144966 0.0175303 0.00764816
0.150773 0.0174199 0.00730786
0.144413 0.0162353 0.00847432
0.144708 0.0172389 0.00778878
0.150988 0.0180101 0.00710385
0.144771 0.0174668 0.00763168
0.144754 0.0174146 0.00771528
0.138585 0.0166452 0.0077706
0.150812 0.0176055 0.00724434
0.144468 0.0161195 0.00858358
0.138392 0.0160211 0.00837765
0.144663 0.0171067 0.00799733
0.150792 0.0175127 0.0072761
0.144799 0.0170905 0.00793612
0.14488 0.0172094 0.00787033
0.14437 0.0160747 0.00858538
0.144986 0.0176107 0.00759203
0.145046 0.0182132 0.00725471
0.150831 0.0176983 0.00721259
0.138903 0.0178101 0.00720408
0.138984 0.0177365 0.00722086
0.145076 0.0180241 0.00729899
0.145012 0.0178046 0.00744924
0.144604 0.0165665 0.00828011
0.15089 0.0179766 0.00711731
0.13837 0.0159512 0.00844555
0.145011 0.0176951 0.00753472
0.144508 0.0165562 0.00825549
0.144804 0.017245 0.00781656
0.138869 0.0174398 0.00719142
0.145027 0.0182074 0.00713881
0.138435 0.0161611 0.00824139
0.138961 0.0176407 0.00723852
0.144827 0.0176744 0.00748838
0.138754 0.0173162 0.00731203
0.138665 0.0169332 0.00750569
0.138781 0.0166989 0.00772834
0.150929 0.0181622 0.0070538
0.138552 0.016255 0.00815493
0.144867 0.0174855 0.00764984
0.144741 0.0170182 0.00797281
0.144899 0.0179373 0.00741226
0.144868 0.0177531 0.00755544
0.145274 0.0184283 0.00699317
0.138627 0.0167854 0.00763428
0.145093 0.0181046 0.00724186
0.144877 0.0179147 0.00731724
0.145168 0.0184271 0.00701483
0.14495 0.0181995 0.00723316
0.145113 0.0181856 0.00718507
0.138542 0.0165429 0.00794397
0.14486 0.0178344 0.00737434
0.139063 0.017829 0.00720677
0.145089 0.0177699 0.00750257
0.138916 0.0174629 0.00727656
0.0643568 0.0187248 0.00531097
0.24257 0.0191927 0.00520306
0.138883 0.0170963 0.00729323
0.1385 0.016371 0.00803722
0.138977 0.0171183 0.00726436
0.138457 0.0162311 0.00817333
0.144665 0.016802 0.00811617
0.14473 0.0173192 0.00773361
0.144981 0.0184053 0.00696842
0.144945 0.0182364 0.0070885
0.138569 0.0166221 0.00786652
0.139083 0.0180502 0.00707547
0.139288 0.0177628 0.00714648
0.144826 0.0173252 0.00776139
0.14463 0.0166466 0.00822594
0.144444 0.0160373 0.00864007
0.138729 0.0172168 0.00736828
0.144903 0.0172897 0.00781516
0.144262 0.0156732 0.00886307
0.144218 0.0155125 0.00897416
0.145061 0.0183747 0.0070196
0.138596 0.0163949 0.00801891
0.144855 0.017787 0.00746225
0.144423 0.0159569 0.00869564
0.144685 0.0171586 0.00784395
0.138521 0.016457 0.00799066
0.144793 0.0175471 0.00757623
0.144907 0.0180235 0.00735515
0.138756 0.0169414 0.00746128
0.139094 0.0179339 0.00719083
0.144932 0.0177264 0.00748316
0.144671 0.0167246 0.00817909
0.14493 0.0173698 0.00776166
0.144401 0.0158766 0.0087512
0.13853 0.0161851 0.00822298
0.145059 0.0183986 0.00712106
0.144579 0.0164863 0.00833419
0.145017 0.0185689 0.00686457
0.138574 0.016325 0.00808687
0.13885 0.0169574 0.00743199
0.138478 0.0163011 0.00810528
0.138984 0.0175694 0.00717053
0.138896 0.0167869 0.00762865
0.138508 0.0161151 0.00829103
0.138721 0.0171439 0.00730025
0.144911 0.0180753 0.00720301
0.138683 0.0166716 0.00775002
0.139173 0.0176342 0.00716719
0.138619 0.0165366 0.00787997
0.138807 0.0171475 0.00724913
0.138888 0.017536 0.00717238
0.138787 0.0170687 0.00730729
0.0219312 0.0187687 0.00551176
0.138905 0.0171873 0.0072577
0.144956 0.0178595 0.00738726
0.138794 0.0175035 0.00717407
0.13883 0.0172473 0.00722951
0.138967 0.017923 0.00710386
0.139079 0.0176017 0.00716888
0.144699 0.0165965 0.00828884
0.138663 0.0166033 0.00782029
0.139 0.0172163 0.00724512
0.139137 0.0178903 0.00711177
0.13904 0.0174093 0.00720696
0.144735 0.0166756 0.00823893
0.139213 0.0178266 0.00712913
0.145143 0.0183467 0.00706936
0.138945 0.017377 0.00720868
0.13265 0.0169157 0.00763382
0.138771 0.0170049 0.00738445
0.138833 0.017696 0.00713597
0.139194 0.0181894 0.00705238
0.139118 0.0177941 0.00713081
0.138755 0.017311 0.00721217
0.144553 0.0164062 0.00838804
0.13902 0.0173131 0.007226
0.145126 0.0182662 0.00712654
0.138704 0.017078 0.00737339
0.138735 0.0172148 0.00723121
0.145098 0.0176749 0.00757999
0.145003 0.0181182 0.00720063
0.145155 0.0179908 0.00735076
0.132831 0.0173118 0.00749562
0.144928 0.0181557 0.00714589
0.138946 0.0169767 0.00740166
0.144739 0.0169391 0.00803397
0.1388 0.0167691 0.00765981
0.139158 0.0179863 0.00709283
0.138304 0.0157413 0.00864972
0.132715 0.0171863 0.0075268
0.138827 0.0174135 0.00727815
0.13885 0.0173435 0.00721047
0.138646 0.0168556 0.00756563
0.139104 0.0181463 0.00705753
0.138964 0.0170439 0.0073299
0.145058 0.0179393 0.0073593
0.138723 0.0168119 0.00761319
0.138928 0.017729 0.0071342
0.138965 0.0174732 0.00718972
0.138612 0.0164655 0.00794996
0.138925 0.0172821 0.00723329
0.138704 0.0167421 0.00768212
0.144816 0.0176445 0.00758316
0.144985 0.0180367 0.00725844
0.139059 0.0175055 0.00718791
0.14506 0.0175726 0.00764706
0.144969 0.0179549 0.00731679
0.132789 0.0171246 0.00755264
0.138813 0.0175997 0.00715503
0.144753 0.0167844 0.00815983
0.139179 0.0180822 0.00707395
0.144894 0.017995 0.00726013
0.138774 0.0174073 0.00719312
0.13272 0.016844 0.0076376
0.144743 0.0168611 0.00809641
0.138866 0.0170204 0.00735587
0.138684 0.0170081 0.00744208
0.144964 0.018325 0.00702552
0.139193 0.0177304 0.00714816
0.132852 0.0174055 0.00746707
0.132671 0.0169995 0.00758355
0.138885 0.0177094 0.00722208
0.13905 0.0183061 0.00702609
0.132629 0.0168278 0.00767665
0.138761 0.0166288 0.00779662
0.138835 0.0168947 0.00750828
0.145043 0.0182927 0.00707759
0.139018 0.0185631 0.00700706
0.139057 0.0187468 0.00694499
0.13911 0.0185851 0.00697616
0.132451 0.0160492 0.00801928
0.132511 0.0162705 0.00782926
0.132429 0.015981 0.00808909
0.138819 0.0168352 0.00758717
0.138794 0.017517 0.00727315
0.132471 0.0161177 0.00794933
0.132592 0.0166361 0.00769441
0.138948 0.0178255 0.00711613
0.139062 0.0179551 0.00709853
0.132736 0.0172798 0.00749838
0.138908 0.0176323 0.00715331
0.145086 0.0184549 0.00696528
0.132777 0.017467 0.00744129
0.132766 0.0170314 0.00758084
0.132572 0.0165425 0.00772296
0.138413 0.0160911 0.00830944
0.139004 0.0176656 0.00715151
0.138872 0.0178885 0.00709861
0.1391 0.0182299 0.00711214
0.1328 0.017568 0.00744053
0.139133 0.018065 0.00716086
0.139071 0.0184023 0.00700888
0.139166 0.0183704 0.00701715
0.132551 0.0164489 0.00775151
0.138892 0.0179852 0.00708126
0.132691 0.0170933 0.00755493
0.139154 0.017538 0.00718623
0.138932 0.0181781 0.00704671
0.138818 0.0176388 0.00724692
0.138887 0.0179513 0.00717518
0.145039 0.0186753 0.00683425
0.139098 0.017698 0.00714984
0.132838 0.0177432 0.00735709
0.138953 0.0182744 0.00702949
0.132817 0.0176496 0.00738562
0.138987 0.0180174 0.00707773
0.138853 0.0177927 0.00711942
0.138975 0.0183715 0.00701907
0.139042 0.0178582 0.00711336
0.132613 0.0167298 0.00766587
0.132811 0.0172181 0.0075242
0.139134 0.0174418 0.00720527
0.132745 0.0169375 0.00760948
0.132491 0.0161864 0.0078793
0.139122 0.0184874 0.00699446
0.139028 0.0182103 0.0070449
0.138911 0.0180818 0.00706395
0.139007 0.0181139 0.00706104
0.139111 0.0183868 0.0070993
0.138912 0.0168498 0.00755254
0.138928 0.0169127 0.00747642
0.139144 0.0182742 0.00703437
0.138719 0.0165437 0.00787848
0.139023 0.0177618 0.00713247
0.139036 0.0186506 0.0069622
0.132872 0.0174991 0.00743852
0.138996 0.0184663 0.00699515
0.145039 0.0174914 0.00770356
0.132531 0.0163553 0.00778006
0.132757 0.0173734 0.00746982
0.145117 0.0186149 0.0068505

VERTICES 285 570
1 0
1 1
1 2
1 3
1 4
1 5
1 6
1 7
1 8
1 9
1 10
1 11
1 12
1 13
1 14
1 15
1 16
1 17
1 18
1 19
1 20
1 21
1 22
1 23
1 24
1 25
1 26
1 27
1 28
1 29
1 30
1 31
1 32
1 33
1 34
1 35
1 36
1 37
1 38
1 39
1 40
1 41
1 42
1 43
1 44
1 45
1 46
1 47
1 48
1 49
1 50
1 51
1 52
1 53
1 54
1 55
1 56
1 57
1 58
1 59
1 60
1 61
1 62
1 63
1 64
1 65
1 66
1 67
1 68
1 69
1 70
1 71
1 72
1 73
1 74
1 75
1 76
1 77
1 78
1 79
1 80
1 81
1 82
1 83
1 84
1 85
1 86
1 87
1 88
1 89
1 90
1 91
1 92
1 93
1 94
1 95
1 96
1 97
1 98
1 99
1 100
1 101
1 102
1 103
1 104
1 105
1 106
1 107
1 108
1 109
1 110
1 111
1 112
1 113
1 114
1 115
1 116
1 117
1 118
1 119
1 120
1 121
1 122
1 123
1 124
1 125
1 126
1 127
1 128
1 129
1 130
1 131
1 132
1 133
1 134
1 135
1 136
1 137
1 138
1 139
1 140
1 141
1 142
1 143
1 144
1 145
1 146
1 147
1 148
1 149
1 150
1 151
1 152
1 153
1 154
1 155
1 156
1 157
1 158
1 159
1 160
1 161
1 162
1 163
1 164
1 165
1 166
1 167
1 168
1 169
1 170
1 171
1 172
1 173
1 174
1 175
1 176
1 177
1 178
1 179
1 180
1 181
1 182
1 183
1 184
1 185
1 186
1 187
1 188
1 189
1 190
1 191
1 192
1 193
1 194
1 195
1 196
1 197
1 198
1 199
1 200
1 201
1 202
1 203
1 204
1 205
1 206
1 207
1 208
1 209
1 210
1 211
1 212
1 213
1 214
1 215
1 216
1 217
1 218
1 219
1 220
1 221
1 222
1 223
1 224
1 225
1 226
1 227
1 228
1 229
1 230
1 231
1 232
1 233
1 234
1 235
1 236
1 237
1 238
1 239
1 240
1 241
1 242
1 243
1 244
1 245
1 246
1 247
1 248
1 249
1 250
1 251
1 252
1 253
1 254
1 255
1 256
1 257
1 258
1 259
1 260
1 261
1 262
1 263
1 264
1 265
1 266
1 267
1 268
1 269
1 270
1 271
1 272
1 273
1 274
1 275
1 276
1 277
1 278
1 279
1 280
1 281
1 282
1 283
1 284

POINT_DATA 285
SCALARS id int 1
LOOKUP_TABLE default
1
2
3
4
5
6
7
8
9
10
11
12
13
14
15
16
17
19
21
22
23
24
25
26
27
28
29
30
31
32
33
34
35
36
37
38
39
41
42
44
45
47
48
49
50
51
52
53
54
55
56
57
59
60
61
62
63
64
65
66
67
68
69
70
71
72
73
74
76
77
78
79
80
81
82
83
84
85
86
87
88
89
90
91
92
93
94
95
96
97
98
99
100
101
102
103
104
105
106
107
108
109
110
111
112
113
114
115
116
117
118
119
120
121
122
123
124
125
126
127
128
129
130
131
132
133
134
135
136
137
138
140
141
142
143
144
146
147
148
149
150
151
153
154
155
156
157
158
159
160
162
164
165
166
167
168
169
170
171
172
173
174
175
176
177
178
179
181
182
183
184
185
186
187
188
189
190
191
192
193
194
195
196
197
198
199
200
201
202
203
204
205
206
207
208
209
210
211
212
213
214
215
216
217
218
219
220
221
222
223
224
225
226
227
228
229
230
231
232
233
234
235
236
237
239
240
241
242
243
244
246
247
248
249
250
251
252
253
254
255
256
257
258
259
260
261
262
263
264
265
266
267
268
269
270
271
272
273
274
275
276
277
278
279
280
281
282
283
284
285
286
287
288
289
290
291
292
293
294
295
296
297
298
299
300

SCALARS type int 1
LOOKUP_TABLE default
1
1
1
1
1
1
1
1
1
1
1
1
1
1
1
1
1
1
1
1
1
1
1
1
1
1
1
1
1
1
1
1
1
1
1
1
1
1
1
1
1
1
1
1
1
1
1
1
1
1
1
1
1
1
1
1
1
1
1
1
1
1
1
1
1
1
1
1
1
1
1
1
1
1
1
1
1
1
1
1
1
1
1
1
1
1
1
1
1
1
1
1
1
1
1
1
1
1
1
1
1
1
1
1
1
1
1
1
1
1
1
1
1
1
1
1
1
1
1
1
1
1
1
1
1
1
1
1
1
1
1
1
1
1
1
1
1
1
1
1
1
1
1
1
1
1
1
1
1
1
1
1
1
1
1
1
1
1
1
1
1
1
1
1
1
1
1
1
1
1
1
1
1
1
1
1
1
1
1
1
1
1
1
1
1
1
1
1
1
1
1
1
1
1
1
1
1
1
1
1
1
1
1
1
1
1
1
1
1
1
1
1
1
1
1
1
1
1
1
1
1
1
1
1
1
1
1
1
1
1
1
1
1
1
1
1
1
1
1
1
1
1
1
1
1
1
1
1
1
1
1
1
1
1
1
1
1
1
1
1
1
1
1
1
1
1
1
1
1
1
1
1
1
1
1
1
1
1
1
1
1
1
1
1
1

SCALARS radius float 1
LOOKUP_TABLE default
5e-05
5e-05
5e-05
5e-05
5e-05
5e-05
5e-05
5e-05
5e-05
5e-05
5e-05
5e-05
5e-05
5e-05
5e-05
5e-05
5e-05
5e-05
5e-05
5e-05
5e-05
5e-05
5e-05
5e-05
5e-05
5e-05
5e-05
5e-05
5e-05
5e-05
5e-05
5e-05
5e-05
5e-05
5e-05
5e-05
5e-05
5e-05
5e-05
5e-05
5e-05
5e-05
5e-05
5e-05
5e-05
5e-05
5e-05
5e-05
5e-05
5e-05
5e-05
5e-05
5e-05
5e-05
5e-05
5e-05
5e-05
5e-05
5e-05
5e-05
5e-05
5e-05
5e-05
5e-05
5e-05
5e-05
5e-05
5e-05
5e-05
5e-05
5e-05
5e-05
5e-05
5e-05
5e-05
5e-05
5e-05
5e-05
5e-05
5e-05
5e-05
5e-05
5e-05
5e-05
5e-05
5e-05
5e-05
5e-05
5e-05
5e-05
5e-05
5e-05
5e-05
5e-05
5e-05
5e-05
5e-05
5e-05
5e-05
5e-05
5e-05
5e-05
5e-05
5e-05
5e-05
5e-05
5e-05
5e-05
5e-05
5e-05
5e-05
5e-05
5e-05
5e-05
5e-05
5e-05
5e-05
5e-05
5e-05
5e-05
5e-05
5e-05
5e-05
5e-05
5e-05
5e-05
5e-05
5e-05
5e-05
5e-05
5e-05
5e-05
5e-05
5e-05
5e-05
5e-05
5e-05
5e-05
5e-05
5e-05
5e-05
5e-05
5e-05
5e-05
5e-05
5e-05
5e-05
5e-05
5e-05
5e-05
5e-05
5e-05
5e-05
5e-05
5e-05
5e-05
5e-05
5e-05
5e-05
5e-05
5e-05
5e-05
5e-05
5e-05
5e-05
5e-05
5e-05
5e-05
5e-05
5e-05
5e-05
5e-05
5e-05
5e-05
5e-05
5e-05
5e-05
5e-05
5e-05
5e-05
5e-05
5e-05
5e-05
5e-05
5e-05
5e-05
5e-05
5e-05
5e-05
5e-05
5e-05
5e-05
5e-05
5e-05
5e-05
5e-05
5e-05
5e-05
5e-05
5e-05
5e-05
5e-05
5e-05
5e-05
5e-05
5e-05
5e-05
5e-05
5e-05
5e-05
5e-05
5e-05
5e-05
5e-05
5e-05
5e-05
5e-05
5e-05
5e-05
5e-05
5e-05
5e-05
5e-05
5e-05
5e-05
5e-05
5e-05
5e-05
5e-05
5e-05
5e-05
5e-05
5e-05
5e-05
5e-05
5e-05
5e-05
5e-05
5e-05
5e-05
5e-05
5e-05
5e-05
5e-05
5e-05
5e-05
5e-05
5e-05
5e-05
5e-05
5e-05
5e-05
5e-05
5e-05
5e-05
5e-05
5e-05
5e-05
5e-05
5e-05
5e-05
5e-05
5e-05
5e-05
5e-05
5e-05
5e-05
5e-05
5e-05
5e-05
5e-05
5e-05
5e-05
5e-05
5e-05
5e-05
5e-05
5e-05
5e-05
5e-05
5e-05
5e-05
5e-05
5e-05
5e-05

SCALARS mass float 1
LOOKUP_TABLE default
1.46608e-10
1.46608e-10
1.46608e-10
1.46608e-10
1.46608e-10
1.46608e-10
1.46608e-10
1.46608e-10
1.46608e-10
1.46608e-10
1.46608e-10
1.46608e-10
1.46608e-10
1.46608e-10
1.46608e-10
1.46608e-10
1.46608e-10
1.46608e-10
1.46608e-10
1.46608e-10
1.46608e-10
1.46608e-10
1.46608e-10
1.46608e-10
1.46608e-10
1.46608e-10
1.46608e-10
1.46608e-10
1.46608e-10
1.46608e-10
1.46608e-10
1.46608e-10
1.46608e-10
1.46608e-10
1.46608e-10
1.46608e-10
1.46608e-10
1.46608e-10
1.46608e-10
1.46608e-10
1.46608e-10
1.46608e-10
1.46608e-10
1.46608e-10
1.46608e-10
1.46608e-10
1.46608e-10
1.46608e-10
1.46608e-10
1.46608e-10
1.46608e-10
1.46608e-10
1.46608e-10
1.46608e-10
1.46608e-10
1.46608e-10
1.46608e-10
1.46608e-10
1.46608e-10
1.46608e-10
1.46608e-10
1.46608e-10
1.46608e-10
1.46608e-10
1.46608e-10
1.46608e-10
1.46608e-10
1.46608e-10
1.46608e-10
1.46608e-10
1.46608e-10
1.46608e-10
1.46608e-10
1.46608e-10
1.46608e-10
1.46608e-10
1.46608e-10
1.46608e-10
1.46608e-10
1.46608e-10
1.46608e-10
1.46608e-10
1.46608e-10
1.46608e-10
1.46608e-10
1.46608e-10
1.46608e-10
1.46608e-10
1.46608e-10
1.46608e-10
1.46608e-10
1.46608e-10
1.46608e-10
1.46608e-10
1.46608e-10
1.46608e-10
1.46608e-10
1.46608e-10
1.46608e-10
1.46608e-10
1.46608e-10
1.46608e-10
1.46608e-10
1.46608e-10
1.46608e-10
1.46608e-10
1.46608e-10
1.46608e-10
1.46608e-10
1.46608e-10
1.46608e-10
1.46608e-10
1.46608e-10
1.46608e-10
1.46608e-10
1.46608e-10
1.46608e-10
1.46608e-10
1.46608e-10
1.46608e-10
1.46608e-10
1.46608e-10
1.46608e-10
1.46608e-10
1.46608e-10
1.46608e-10
1.46608e-10
1.46608e-10
1.46608e-10
1.46608e-10
1.46608e-10
1.46608e-10
1.46608e-10
1.46608e-10
1.46608e-10
1.46608e-10
1.46608e-10
1.46608e-10
1.46608e-10
1.46608e-10
1.46608e-10
1.46608e-10
1.46608e-10
1.46608e-10
1.46608e-10
1.46608e-10
1.46608e-10
1.46608e-10
1.46608e-10
1.46608e-10
1.46608e-10
1.46608e-10
1.46608e-10
1.46608e-10
1.46608e-10
1.46608e-10
1.46608e-10
1.46608e-10
1.46608e-10
1.46608e-10
1.46608e-10
1.46608e-10
1.46608e-10
1.46608e-10
1.46608e-10
1.46608e-10
1.46608e-10
1.46608e-10
1.46608e-10
1.46608e-10
1.46608e-10
1.46608e-10
1.46608e-10
1.46608e-10
1.46608e-10
1.46608e-10
1.46608e-10
1.46608e-10
1.46608e-10
1.46608e-10
1.46608e-10
1.46608e-10
1.46608e-10
1.46608e-10
1.46608e-10
1.46608e-10
1.46608e-10
1.46608e-10
1.46608e-10
1.46608e-10
1.46608e-10
1.46608e-10
1.46608e-10
1.46608e-10
1.46608e-10
1.46608e-10
1.46608e-10
1.46608e-10
1.46608e-10
1.46608e-10
1.46608e-10
1.46608e-10
1.46608e-10
1.46608e-10
1.46608e-10
1.46608e-10
1.46608e-10
1.46608e-10
1.46608e-10
1.46608e-10
1.46608e-10
1.46608e-10
1.46608e-10
1.46608e-10
1.46608e-10
1.46608e-10
1.46608e-10
1.46608e-10
1.46608e-10
1.46608e-10
1.46608e-10
1.46608e-10
1.46608e-10
1.46608e-10
1.46608e-10
1.46608e-10
1.46608e-10
1.46608e-10
1.46608e-10
1.46608e-10
1.46608e-10
1.46608e-10
1.46608e-10
1.46608e-10
1.46608e-10
1.46608e-10
1.46608e-10
1.46608e-10
1.46608e-10
1.46608e-10
1.46608e-10
1.46608e-10
1.46608e-10
1.46608e-10
1.46608e-10
1.46608e-10
1.46608e-10
1.46608e-10
1.46608e-10
1.46608e-10
1.46608e-10
1.46608e-10
1.46608e-10
1.46608e-10
1.46608e-10
1.46608e-10
1.46608e-10
1.46608e-10
1.46608e-10
1.46608e-10
1.46608e-10
1.46608e-10
1.46608e-10
1.46608e-10
1.46608e-10
1.46608e-10
1.46608e-10
1.46608e-10
1.46608e-10
1.46608e-10
1.46608e-10
1.46608e-10
1.46608e-10
1.46608e-10
1.46608e-10
1.46608e-10
1.46608e-10
1.46608e-10
1.46608e-10
1.46608e-10
1.46608e-10
1.46608e-10
1.46608e-10
1.46608e-10
1.46608e-10

VECTORS velocity float
0.00566039 -9.77712e-06 0.00192802
0.00591384 -0.00214404 0.00176452
0.00544954 -0.000614612 0.000431698
0.00613356 0.000250294 0.00187943
0.00534233 -0.000154715 0.00193438
0.00546534 -0.00041594 1.94161e-05
0.00572239 1.86406e-05 0.00191135
0.0054475 -6.10624e-05 0.00189662
0.00544809 -0.000420913 2.14493e-05
0.00618952 -0.000229778 0.00229139
0.0129013 0.0115196 -0.011779
0.00577729 -0.000409663 0.000747095
0.00536243 -0.000110445 0.00190421
0.00575011 -0.00031384 0.000630409
0.005917 0.000242321 0.00181868
0.00574917 -0.000320461 0.000637097
0.00617327 -0.000223404 0.00229195
0.00538782 -9.57316e-05 0.00190322
0.00555648 0.000133933 0.00178162
0.00586803 0.000124781 0.00189383
0.00545687 -0.000480324 0.000517467
0.00541259 -0.000407953 1.78731e-05
0.00624712 -0.000251357 0.0023137
0.00542361 -0.000413458 1.94754e-05
0.00545746 -0.000577447 0.00041423
0.00592589 0.000240315 0.00183281
0.00542049 -5.20397e-05 0.00188033
0.0060403 0.000189861 0.00190464
0.00633376 -0.000422782 0.00248055
0.0059305 9.82631e-05 0.00192389
0.00532519 -0.000388863 1.33502e-05
0.00571611 -0.000235938 0.00213492
0.00574056 -0.000151869 0.00206627
0.00547202 -0.000430944 2.43178e-05
0.00586819 -3.70445e-06 0.00203067
0.00607368 0.000247494 0.00187119
0.00542374 -0.000412174 1.90214e-05
0.0052999 -0.000245067 0.00199028
0.00596245 7.68524e-05 0.00191853
0.0060489 0.000295846 0.00181455
0.0053354 -0.000391566 1.40516e-05
0.0053097 -0.000255236 0.00200099
0.00598345 1.46442e-05 0.00201871
0.00544532 -0.000423762 2.24846e-05
0.00595621 -7.28205e-05 0.00212555
0.0059923 -6.59494e-05 0.00213607
0.00576992 -0.000430819 0.000758576
0.00538768 -0.000401901 1.63825e-05
0.0053599 -0.000184762 0.00196321
0.00576768 -0.000304979 0.000622881
0.0055747 0.000286272 0.00169461
0.00534575 -0.000393954 1.46269e-05
0.00571664 0.000223243 0.00176454
0.00610952 0.000227686 0.00189425
0.00531998 -0.000209778 0.00196989
0.00609935 0.000254321 0.00187245
0.00682013 0.0111608 -0.00544117
0.00540053 -0.000404132 1.68536e-05
0.00541774 -0.000501549 0.000404562
0.00544082 -0.000582292 0.000411773
0.00776152 0.00286232 0.000392827
0.00542221 0.00283715 -0.000387238
0.00626278 2.25618e-05 0.00211165
0.00543886 -0.000411612 1.86177e-05
0.00575782 -0.00030718 0.000624445
0.00674425 0.00105257 0.00148351
0.00620906 -0.000221025 0.00230205
0.00605144 0.000217875 0.00188325
0.00545803 -0.000591383 0.000416019
0.00699506 0.00154506 0.00116465
0.00577161 -0.000314074 0.000632166
0.00546934 -0.000587581 0.000415064
0.00613719 0.00030847 0.00182307
0.00540319 -0.000662692 0.000421388
0.00539471 -0.000530232 0.00050841
0.00573218 -0.000352551 0.000678448
0.00546009 -0.000426219 2.2987e-05
0.0057642 -0.000331742 0.000648841
0.00600133 0.000223843 0.00187662
0.00591179 9.50871e-05 0.00193021
0.00534731 0.00225506 0.00125885
0.00568823 1.82163e-05 0.00142292
0.0154298 0.0276289 -0.0245726
0.00567848 -0.000394338 0.00072477
0.00750234 0.00289918 0.000280306
0.00561827 0.000123437 0.00177891
0.0103029 0.00330833 -4.58502e-05
0.00664703 0.0039989 -0.000289999
0.00867831 0.00418113 -0.000331175
0.00572471 -0.000344701 0.000559985
0.00571572 4.62633e-05 0.00191682
0.00550992 -0.000711804 0.000384395
0.00527935 0.00260866 -0.000248485
0.0054855 -0.00058609 0.000394674
4.39946e-15 1.04108e-14 8.29642e-14
-1.45275e-22 -8.32918e-22 8.29106e-22
0.00541284 -0.000611412 0.000287253
0.00577325 -0.000342767 0.00065929
0.00548978 -0.000577953 0.000416611
0.00577218 -0.000323532 0.000641426
0.00572361 6.99262e-05 0.00188911
0.00601748 -2.29454e-05 0.002066
0.00609229 -0.000517782 0.002458
0.00583606 -0.000946162 0.00281509
0.00573402 -0.000402645 0.000780534
0.00586534 -0.000636272 0.000457731
0.00571442 -0.000652606 0.000447669
0.00603729 0.000191437 0.00190316
0.00627859 1.15858e-05 0.00212395
0.00535548 -0.000172025 0.00195222
0.00533282 -0.000446321 0.000264743
0.006042 0.000218094 0.00187695
0.00543328 -5.88821e-05 0.00189001
0.00545504 -8.7246e-05 0.00191964
0.00720305 0.00122423 0.0014871
0.00577216 -0.000349831 0.000669555
0.00595202 4.11943e-05 0.00201226
0.0053563 -0.000119947 0.00191148
0.00593137 7.11785e-05 0.00194565
0.00574986 -0.00034257 0.000646153
0.00592631 -0.000148025 0.00213841
0.00407085 0.00259243 0.00126058
0.00529469 -0.000690343 0.000220764
0.00557889 -0.000722105 0.000378132
0.00624976 0.00027464 0.00190502
0.00588247 0.000109311 0.00191084
0.00609291 0.000228237 0.00188339
0.0053596 -6.8557e-05 0.00187161
0.00577028 -0.00032143 0.000639172
0.00808293 0.0140886 -0.00301692
0.00620673 1.81228e-05 0.00209313
0.00547192 -0.000548877 -0.000121153
0.00576924 -0.000342503 0.000659191
0.00530633 -0.000671218 0.000222824
0.00577207 -0.000334552 0.000651526
0.00544198 -0.000574029 0.000409776
0.00544574 -0.000767676 0.00030932
0.00576978 -0.000314849 0.000632513
0.00540536 -0.000598429 0.000431963
0.00537516 7.35332e-06 0.00177916
0.00582227 -0.000361812 0.000732583
0.00557161 -0.000665462 0.000439325
0.00581826 -0.000369301 0.000683936
0.00546832 -0.000628518 0.000442419
0.00545412 -0.00059117 0.000416513
0.00523412 -0.00073325 0.000275407
-3.84358e-14 8.16075e-14 2.95891e-13
0.00548177 -0.000566858 0.000425218
0.00533898 0.00279284 -0.000369313
0.00542266 -0.00061069 0.000419312
0.00546922 -0.000583112 0.000421497
0.00543173 -0.000612907 0.000270385
0.00543176 -0.000500532 0.000397533
0.00619749 0.000342149 0.00183696
0.00585512 -0.000387068 0.000710248
0.00548111 -0.000557918 0.000412796
0.00569743 -0.000641789 0.000434796
0.00550149 -0.000510417 0.000402634
0.00615449 0.000343102 0.00182045
0.00573682 -0.00063868 0.0004134
0.00913667 0.00394929 1.00985e-05
0.0054999 -0.000564847 0.000382022
0.00562238 -0.000517524 0.00062127
0.00531393 -0.000654537 0.000200382
0.0054491 -0.000585322 0.000416865
0.00580872 -0.000703981 0.000454649
0.00561714 -0.000577884 0.000400058
0.00544456 -0.00060861 0.000419533
0.00624804 5.30584e-06 0.00211433
0.00552596 -0.000530972 0.000406756
0.00946335 0.00421797 -8.99637e-05
0.00533723 -0.000592326 0.000425696
0.00546003 -0.000608614 0.000423678
0.0073928 0.00228495 0.000725191
0.00640993 0.000945547 0.00141525
0.0125501 0.00563278 -0.00353884
0.00527764 -0.000688664 0.000635725
0.00586704 0.000153831 0.00181921
0.00519136 -0.00066736 0.000293902
0.00581807 7.65257e-05 0.00192604
0.00566005 -0.000443158 0.000534298
0.00584186 -0.000650807 0.00043681
0.00574108 -0.000324825 0.000641065
0.00613671 -0.000607208 0.000687123
0.00544728 -0.000595945 0.000411646
0.00544643 -0.000589381 0.000415486
0.00558645 -0.000406687 0.000703905
0.0058231 -0.000731755 0.00026692
0.00543547 -0.000606716 0.000390759
0.00588986 0.00848494 -0.00464405
0.00558143 -0.000368356 0.000685556
0.00546736 -0.000572322 0.000419582
0.00547055 -0.000568272 0.000386081
0.0057771 -0.000358118 0.000679808
0.00550678 -0.000543269 0.000449378
0.00571044 -0.000340652 0.000741622
0.00608449 7.85808e-05 0.00173066
0.00608168 -0.000169535 0.00222325
0.00544853 -0.000504899 0.000396809
0.0066366 0.000834497 0.00159228
0.00385827 0.00427307 -0.00203669
0.00606295 -0.00069493 0.00070886
0.00544558 -0.000613974 0.000419503
0.00567758 4.27902e-05 0.00189184
0.00587372 -0.000633064 0.000450118
0.00553372 -0.000175279 0.00198277
0.00542902 -0.000607313 0.000419408
0.0056657 -0.00047323 0.000609617
0.00575115 5.20568e-05 0.00191018
0.0052741 -0.00065649 0.000210248
0.00533018 -0.000579543 0.000430925
0.005819 -0.00062099 0.00246141
0.00566834 -0.000645913 0.000439707
0.00532317 -0.000487809 0.000581317
0.00561777 -0.000524945 0.000616728
0.00544682 -0.000589217 0.000420946
0.00586581 -0.000697197 0.000278232
0.00567184 -0.000517378 0.000626068
0.00584217 -0.000381597 0.000701475
0.00538777 -0.000641996 0.000277637
0.00737704 0.00131798 0.00148181
0.00596143 -0.000662653 0.000247294
0.0060112 -0.000642699 0.000268231
0.00597874 -0.00068843 0.000272875
0.00606929 -0.0007629 0.000229973
0.00533021 -0.000536142 0.000367188
0.00609554 -0.000748235 0.000212825
0.00552979 -0.000568008 0.000371866
0.00540931 -0.00063551 0.000421356
0.0055178 -0.000666973 0.000177002
0.0055724 -0.000480187 0.000599345
0.00542679 -0.00060646 0.000371536
0.0056875 -0.000698021 0.000141531
0.00409096 -0.000210212 0.000393598
0.00544355 -0.000583905 0.0004156
0.00757662 0.000234725 0.00236547
0.0053517 -0.000404907 0.000554975
0.00566357 -0.000618759 0.000651661
0.00556688 -0.000484652 0.000601373
0.00576884 -0.000307755 0.000625628
0.00545828 -0.000579419 0.000415227
0.00543703 -0.000624096 0.000257715
0.00585812 -0.000747264 0.000281804
0.00532824 -0.000505915 0.000582437
0.00586501 -0.00060165 0.000450085
0.00592572 -0.000696051 0.000278608
0.00591258 -0.000720047 0.000281265
0.00557031 -0.00048156 0.000602437
0.00543799 -0.000593174 0.000252357
0.00578088 -0.000550187 0.000639093
0.00552963 -0.000692365 0.000442249
0.00580944 -0.000758573 0.0002799
0.00544852 -0.000608137 0.000413627
0.0054681 -0.000691129 0.000218532
0.0060851 -0.00026518 -0.00115369
0.00550587 -0.000523789 0.000406029
0.00546485 -0.000485484 0.000593668
0.00586614 -0.000672857 0.000276065
0.00542329 -0.000492699 0.000595199
0.00542097 -0.000617356 0.000252185
0.00544605 -0.000588793 0.000397111
0.00586881 -0.000696013 0.000276608
0.0054335 -0.000609802 0.000427071
0.00556217 -0.00048832 0.000599664
0.00401201 -0.00032773 0.000426119
0.00559455 -0.000730844 0.000453617
0.00563125 -0.000502904 0.00061177
0.00497771 -0.000566478 0.000145542
0.00594447 -0.000703906 0.000280567
0.00583926 -0.000701947 0.000283773
0.00542003 -0.000607763 0.00024936
0.00582792 -0.000690504 0.000415938
0.00592672 -0.00071258 0.000282347
0.00531759 -0.000742319 0.000295586
0.00523605 -0.000720752 0.00027985
0.00586703 -0.000709874 0.000283866
0.00579023 -0.000430158 0.000748786
0.00544628 -0.000578906 0.000417559
0.00599192 -0.000650608 0.000265913
0.00533438 -0.000494792 0.000585632
0.00592852 -0.000683582 0.000272747
0.00615959 0.000360147 0.00180546
0.00559207 -0.000475997 0.000598625
0.00526814 -0.000432054 0.000547904
0.00554481 0.000107371 0.00175884

VECTORS force float
1.6735e-10 1.44387e-10 -6.66693e-11
0.0 0.0 -1.43822e-09
9.74742e-11 2.60603e-10 5.00272e-11
-1.46834e-10 3.82708e-10 -5.70003e-11
-2.55215e-10 -5.54601e-10 2.86593e-10
1.85391e-12 5.45413e-12 -1.64326e-12
4.84051e-12 -1.41714e-10 -8.10819e-11
5.7688e-11 2.15039e-10 -1.49119e-10
-8.80943e-13 -5.95959e-12 1.99137e-12
-8.18419e-11 5.38609e-10 -3.65466e-10
-1.38061e-10 3.58106e-10 -2.38336e-10
-1.47192e-10 -1.5087e-10 -3.22182e-12
-2.14744e-10 -6.67403e-10 4.40513e-10
8.70871e-11 6.94621e-11 -6.90954e-11
-2.77591e-10 -3.3764e-11 -6.10857e-12
6.50323e-11 9.93241e-11 -9.16783e-11
-3.99895e-10 2.11372e-10 -5.95651e-10
4.55897e-12 -1.54102e-10 7.95973e-11
2.41685e-10 8.74008e-12 8.2574e-11
3.88466e-12 1.1612e-11 -7.69156e-12
2.77581e-10 2.68696e-10 -4.41147e-11
-1.64841e-11 -2.06377e-11 7.0554e-12
4.44463e-11 4.84951e-10 -3.21935e-10
4.743e-12 1.60805e-11 -5.68932e-12
-1.98112e-10 2.67319e-10 1.81823e-11
5.87772e-10 7.96306e-10 -3.22391e-10
5.57607e-11 2.01059e-10 -1.37747e-10
7.01786e-10 8.44128e-10 -3.02946e-10
2.20576e-12 -2.95984e-13 9.8913e-13
-4.17537e-10 -3.14631e-10 -1.95356e-12
2.27379e-12 4.45958e-12 -1.60369e-12
-4.31538e-10 4.41972e-10 -4.28595e-10
4.14712e-11 -5.84717e-11 1.80528e-11
-1.70762e-12 -7.1121e-12 2.4448e-12
-4.73566e-11 -4.63127e-11 2.16387e-10
1.13183e-09 3.96199e-10 7.15089e-13
9.75845e-12 1.31104e-11 -3.87418e-12
2.67766e-10 1.65218e-10 9.04659e-11
-1.12205e-10 -3.52617e-11 8.81666e-11
-4.8465e-10 5.9007e-10 -2.63603e-10
1.42627e-12 2.55532e-12 -1.07887e-12
4.57361e-10 2.48845e-10 -1.31008e-10
7.44651e-11 -3.16957e-10 3.18503e-10
-4.81297e-13 -5.16628e-12 1.77591e-12
3.99866e-10 2.48191e-11 5.75015e-10
1.47036e-10 -9.21659e-11 8.15772e-10
3.37119e-10 1.38449e-10 -1.06838e-11
3.23649e-13 -8.14558e-12 2.65085e-12
2.20035e-10 -4.78876e-10 4.87393e-10
-1.65722e-12 3.02447e-11 -2.90194e-11
-8.1465e-11 1.14699e-10 -8.51068e-11
1.2546e-12 -4.70614e-13 2.03727e-13
-5.87867e-12 -8.17032e-10 6.64492e-10
-7.39464e-10 -5.95717e-10 2.17128e-10
1.51749e-11 -1.81625e-10 1.88204e-10
-3.43517e-10 -2.86477e-11 7.7706e-11
1.77385e-10 4.91064e-11 -1.25506e-09
-3.56464e-12 -1.87823e-11 6.56475e-12
1.1488e-10 -2.64207e-10 -8.44133e-11
-2.42141e-10 6.33417e-11 -2.6115e-11
-7.96123e-10 4.63198e-10 -6.31132e-10
-2.4522e-10 -2.72302e-10 6.2702e-11
1.876e-10 -1.80434e-10 1.17214e-10
7.80476e-12 3.05557e-11 -9.66389e-12
-1.56953e-11 4.5831e-11 -5.42492e-11
-3.80962e-10 -4.98611e-10 8.0038e-11
4.01173e-11 5.64829e-10 -5.51731e-10
3.0388e-10 -7.45101e-11 2.21191e-10
-2.93548e-11 2.43009e-10 -3.76581e-11
-3.73069e-10 -7.2616e-10 5.68262e-10
-3.62804e-11 -8.28235e-11 8.15627e-11
-2.32647e-11 5.23395e-11 6.06368e-11
-1.78295e-10 -9.23963e-13 -1.88957e-10
1.16992e-10 -4.12387e-12 2.29335e-11
-8.86825e-11 -1.26474e-10 5.87937e-11
-1.77343e-10 -2.62635e-10 2.89549e-10
-1.43353e-12 -6.30705e-12 2.15311e-12