# vtk DataFile Version 3.0
LIGGGHTS particles timestep 45800000
ASCII
DATASET POLYDATA
POINTS 275 float
0.280312 0.0182029 0.00690083
0.279981 0.0170639 0.00731484
0.280131 0.0169418 0.00736779
0.279591 0.0157049 0.0085268
0.285957 0.0170393 0.00756829
0.280269 0.0175829 0.00711894
0.279974 0.016643 0.00749608
0.286143 0.0178157 0.00701369
0.280069 0.0166718 0.00748392
0.280175 0.0178691 0.00709635
0.27429 0.0172687 0.00726679
0.27957 0.0156415 0.00860112
0.274214 0.0176485 0.00727356
0.274467 0.0181368 0.00710721
0.27994 0.0164876 0.00760892
0.279549 0.015578 0.00867544
0.280308 0.017767 0.00705054
0.28009 0.0167617 0.00744524
0.274427 0.017944 0.00714263
0.286069 0.0174663 0.00716218
0.279697 0.0160215 0.00815644
0.286108 0.0176312 0.00705727
0.273987 0.0167209 0.00758699
0.280056 0.0170028 0.00734128
0.279528 0.0155146 0.00874976
0.279782 0.0162743 0.00786063
0.280344 0.017522 0.0071443
0.279718 0.0160847 0.00808192
0.285978 0.0171098 0.00750071
0.279688 0.0159565 0.00823189
0.28023 0.0173985 0.0071874
0.2862 0.0181099 0.00702614
0.28011 0.0168517 0.00740655
0.280191 0.0172147 0.00725564
0.286086 0.0175447 0.00710267
0.279634 0.0158318 0.00837816
0.280226 0.0169712 0.00735535
0.280285 0.0172456 0.00724693
0.285999 0.0171805 0.00743309
0.279656 0.0158955 0.00830427
0.280176 0.0179804 0.00696582
0.286162 0.0179138 0.00701785
0.279753 0.0161488 0.00801331
0.280364 0.0176142 0.00711005
0.274349 0.0175582 0.00721357
0.286035 0.0173231 0.00729767
0.280536 0.0180132 0.00696458
0.274175 0.0171403 0.00728657
0.280516 0.0179213 0.00699871
0.286017 0.0172517 0.00736539
0.378022 0.019866 0.005332
0.280305 0.0173375 0.0072128
0.279613 0.0157683 0.00845251
0.28021 0.0173066 0.00722152
0.280195 0.0180724 0.00693165
0.286052 0.0173947 0.00722992
0.2741 0.0172046 0.00727106
0.274178 0.0179047 0.00722253
0.280327 0.017859 0.00701637
0.280115 0.0172756 0.00723028
0.280402 0.0177983 0.00704165
0.286124 0.0177176 0.00700955
0.274508 0.0183293 0.00707192
0.280365 0.0180431 0.00694801
0.280205 0.0168806 0.00739432
0.279763 0.0162101 0.00793498
0.274123 0.0168833 0.00740714
0.280001 0.0171541 0.0072766
0.273515 0.0155793 0.00893548
0.274434 0.0183936 0.00705628
0.280076 0.0170933 0.00730239
0.274255 0.0178435 0.00723873
0.27431 0.0173652 0.00724907
0.286181 0.0180118 0.00702199
0.274304 0.0186179 0.00700744
0.280266 0.0171537 0.00728105
0.280036 0.0169128 0.00738002
0.280175 0.0175516 0.00712784
0.280257 0.0178166 0.00712141
0.280346 0.017951 0.00698219
0.27427 0.017172 0.00728457
0.280099 0.0176124 0.0071025
0.279845 0.0164716 0.00764403
0.280195 0.0179614 0.00706219
0.280118 0.0175931 0.00719888
0.28008 0.0175204 0.00713666
0.273614 0.0158622 0.00856163
0.279824 0.0164022 0.00771295
0.274123 0.01775 0.00716682
0.280288 0.017675 0.00708472
0.274143 0.0178464 0.00714909
0.0643568 0.0187248 0.00531097
0.24257 0.0191927 0.00520306
0.274488 0.018233 0.00708958
0.273621 0.0157383 0.00871421
0.27414 0.0173973 0.00723552
0.273535 0.0156386 0.00885738
0.280421 0.0178903 0.00700748
0.280478 0.0177376 0.00706694
0.279961 0.0169739 0.0073535
0.27992 0.0167941 0.00743086
0.273658 0.0159808 0.00840648
0.274024 0.0172679 0.00725543
0.274084 0.0175571 0.0072023
0.280246 0.0170616 0.00731645
0.280251 0.0179197 0.00699109
0.28025 0.0174907 0.00715319
0.274215 0.017333 0.00725116
0.280441 0.0179823 0.00697331
0.280049 0.0165819 0.00752261
0.280332 0.0183007 0.006908
0.28006 0.0174285 0.00717077
0.274454 0.0184898 0.00703864
0.279954 0.0165531 0.00753476
0.280155 0.0174595 0.00716204
0.273602 0.015806 0.00864332
0.279805 0.016337 0.00778637
0.280155 0.0177773 0.00713074
0.274179 0.0175902 0.00720005
0.274199 0.0176867 0.00718232
0.280151 0.0170322 0.00732887
0.280271 0.0180119 0.00695687
0.280232 0.0178277 0.00702526
0.280383 0.0177063 0.00707583
0.274155 0.017044 0.00730422
0.280137 0.0176851 0.00716469
0.280138 0.0177964 0.00703416
0.280021 0.0172447 0.00723901
0.274009 0.0164812 0.00783706
0.274388 0.0177511 0.0071781
0.273558 0.015697 0.0087796
0.274254 0.0175259 0.0072157
0.273752 0.0159892 0.00837334
0.27416 0.0174937 0.00721779
0.27403 0.0165478 0.00776567
0.279879 0.0166142 0.00750823
0.274283 0.0185216 0.00702508
0.274277 0.0180724 0.00711138
0.274051 0.0166147 0.00769411
0.273731 0.0159301 0.00845137
0.273678 0.016042 0.00833014
0.273986 0.0164148 0.00790831
0.0219312 0.0187687 0.00551176
0.274092 0.0167482 0.00755113
0.280171 0.0171227 0.00728997
0.274162 0.0179429 0.00713136
0.274235 0.018045 0.00719798
0.273742 0.0162372 0.00811162
0.274317 0.0182652 0.00707596
0.280157 0.0178884 0.00699999
0.274242 0.0183291 0.00706038
0.274358 0.0184577 0.00704067
0.274262 0.0184254 0.00704273
0.274338 0.0183615 0.00705831
0.280388 0.0181402 0.00691931
0.274004 0.0171737 0.00728224
0.280346 0.0181208 0.00700771
0.273785 0.0163706 0.00796881
0.27408 0.0171083 0.00728857
0.273773 0.016056 0.0083021
0.274119 0.0176154 0.00727572
0.274182 0.0180396 0.00711358
0.280408 0.0182367 0.00689914
0.274064 0.0174606 0.00722003
0.28025 0.018092 0.00701302
0.274274 0.0176224 0.00719794
0.274325 0.0187141 0.0069898
0.280293 0.0181073 0.00692308
0.280135 0.0173675 0.00719617
0.280253 0.0183618 0.00691675
0.268251 0.01836 0.0069269
0.2799 0.0167041 0.00746956
0.274044 0.0173643 0.00723773
0.280461 0.0180742 0.00693921
0.274311 0.0179808 0.00721371
0.274372 0.0181047 0.00710927
0.274333 0.0179118 0.00714474
0.267943 0.0169239 0.00747507
0.274329 0.0174616 0.00723133
0.274138 0.0177119 0.00725802
0.273635 0.0159212 0.00848364
0.274392 0.018201 0.00709158
0.27411 0.0168154 0.00747934
0.280213 0.0177357 0.00705944
0.274447 0.0180405 0.00712489
0.273924 0.0165208 0.00780137
0.273966 0.0166544 0.00765853
0.273838 0.0162545 0.00808679
0.274369 0.0176547 0.00719583
0.274195 0.0172366 0.00726888
0.279995 0.0167329 0.00745739
0.280015 0.0168229 0.00741871
0.274413 0.0182972 0.00707394
0.280234 0.0182639 0.00690957
0.280096 0.017184 0.00726539
0.268166 0.0178714 0.00698428
0.273817 0.0161879 0.00815819
0.280482 0.01817 0.00690366
0.274103 0.0176535 0.00718456
0.279863 0.0165438 0.00757733
0.274218 0.0177831 0.00716458
0.280325 0.0174297 0.00717857
0.274007 0.0167879 0.00751561
0.279941 0.016884 0.00739218
0.274408 0.0178476 0.00716036
0.268173 0.0179704 0.00697261
0.268115 0.0176841 0.00703073
0.274379 0.018554 0.00702302
0.27391 0.0167756 0.00753496
0.274312 0.0181307 0.0071849
0.274221 0.0182327 0.00707808
0.28004 0.0173366 0.0072049
0.273871 0.016637 0.00768313
0.273964 0.0169813 0.00731543
0.273984 0.0170761 0.00729066
0.267842 0.0165011 0.00772207
0.267903 0.0167547 0.00757389
0.267821 0.0164167 0.00777131
0.273966 0.016348 0.00797986
0.274313 0.0178153 0.00716248
0.267863 0.0165856 0.00767271
0.268041 0.0173472 0.00722765
0.273806 0.0164372 0.00789735
0.274099 0.0175188 0.00729341
0.267983 0.017093 0.00737622
0.273881 0.0163876 0.00794411
0.280194 0.0176437 0.00709362
0.268076 0.0174282 0.00718064
0.268232 0.0182626 0.00693833
0.268005 0.0171773 0.00732703
0.273493 0.0155207 0.00901333
0.274583 0.0182645 0.00708764
0.274072 0.0166813 0.00762267
0.274194 0.0175519 0.00729136
0.268078 0.0175144 0.00712992
0.274297 0.0181689 0.00709364
0.274065 0.0170267 0.00734432
0.274058 0.0174273 0.00731411
0.267964 0.0170084 0.00742566
0.273699 0.0161051 0.0082554
0.268271 0.0184574 0.00691548
0.274238 0.0178795 0.00714685
0.273902 0.0164566 0.00787464
0.274235 0.0174295 0.00723343
0.274294 0.0177189 0.00718021
0.280098 0.0175011 0.00723304
0.274202 0.0181361 0.00709583
0.268138 0.0177771 0.00700224
0.273946 0.0165874 0.00773
0.268098 0.017599 0.00708049
0.273763 0.016304 0.00804022
0.273859 0.0163243 0.00801815
0.273828 0.0165038 0.00782595
0.27412 0.0173009 0.00725327
0.268307 0.0181971 0.00694635
0.268193 0.0180678 0.00696119
0.274258 0.017976 0.00712911
0.267883 0.0166701 0.00762331
0.273929 0.0168443 0.00746162
0.274026 0.0168622 0.00745142
0.273722 0.0161704 0.00818311
0.273891 0.016705 0.00761042
0.274352 0.0180082 0.007127
0.273795 0.0161213 0.00822959
0.27413 0.0169519 0.00733468
0.274233 0.017745 0.0072558
0.274236 0.0181946 0.00716929
0.274044 0.0169438 0.00739649
0.273947 0.0169139 0.00738732
0.268212 0.0181652 0.00694976
0.27385 0.0165703 0.00775461
0.280215 0.018166 0.00690239
0.267923 0.0168393 0.00752449
0.268022 0.0172624 0.00727722
0.280118 0.0177044 0.00706833

VERTICES 275 550
1 0
1 1
1 2
1 3
1 4
1 5
1 6
1 7
1 8
1 9
1 10
1 11
1 12
1 13
1 14
1 15
1 16
1 17
1 18
1 19
1 20
1 21
1 22
1 23
1 24
1 25
1 26
1 27
1 28
1 29
1 30
1 31
1 32
1 33
1 34
1 35
1 36
1 37
1 38
1 39
1 40
1 41
1 42
1 43
1 44
1 45
1 46
1 47
1 48
1 49
1 50
1 51
1 52
1 53
1 54
1 55
1 56
1 57
1 58
1 59
1 60
1 61
1 62
1 63
1 64
1 65
1 66
1 67
1 68
1 69
1 70
1 71
1 72
1 73
1 74
1 75
1 76
1 77
1 78
1 79
1 80
1 81
1 82
1 83
1 84
1 85
1 86
1 87
1 88
1 89
1 90
1 91
1 92
1 93
1 94
1 95
1 96
1 97
1 98
1 99
1 100
1 101
1 102
1 103
1 104
1 105
1 106
1 107
1 108
1 109
1 110
1 111
1 112
1 113
1 114
1 115
1 116
1 117
1 118
1 119
1 120
1 121
1 122
1 123
1 124
1 125
1 126
1 127
1 128
1 129
1 130
1 131
1 132
1 133
1 134
1 135
1 136
1 137
1 138
1 139
1 140
1 141
1 142
1 143
1 144
1 145
1 146
1 147
1 148
1 149
1 150
1 151
1 152
1 153
1 154
1 155
1 156
1 157
1 158
1 159
1 160
1 161
1 162
1 163
1 164
1 165
1 166
1 167
1 168
1 169
1 170
1 171
1 172
1 173
1 174
1 175
1 176
1 177
1 178
1 179
1 180
1 181
1 182
1 183
1 184
1 185
1 186
1 187
1 188
1 189
1 190
1 191
1 192
1 193
1 194
1 195
1 196
1 197
1 198
1 199
1 200
1 201
1 202
1 203
1 204
1 205
1 206
1 207
1 208
1 209
1 210
1 211
1 212
1 213
1 214
1 215
1 216
1 217
1 218
1 219
1 220
1 221
1 222
1 223
1 224
1 225
1 226
1 227
1 228
1 229
1 230
1 231
1 232
1 233
1 234
1 235
1 236
1 237
1 238
1 239
1 240
1 241
1 242
1 243
1 244
1 245
1 246
1 247
1 248
1 249
1 250
1 251
1 252
1 253
1 254
1 255
1 256
1 257
1 258
1 259
1 260
1 261
1 262
1 263
1 264
1 265
1 266
1 267
1 268
1 269
1 270
1 271
1 272
1 273
1 274

POINT_DATA 275
SCALARS id int 1
LOOKUP_TABLE default
1
2
4
5
6
7
8
9
10
11
12
13
14
16
17
19
21
22
23
24
25
26
27
28
29
30
31
32
33
34
35
36
37
38
39
41
42
44
45
47
48
49
50
51
52
53
54
55
56
57
59
60
61
62
63
64
65
66
67
68
69
70
71
72
73
74
76
77
78
79
80
82
83
84
85
86
87
88
89
90
91
92
93
94
95
96
97
98
99
100
101
102
103
104
105
106
107
108
109
110
111
112
113
114
115
116
117
118
119
120
121
122
123
124
125
127
128
129
130
131
132
133
134
135
136
137
138
140
141
142
143
144
146
147
148
149
150
151
153
154
155
156
157
158
159
160
162
164
165
166
167
168
169
170
171
172
173
174
176
177
178
179
182
183
184
185
186
187
188
189
190
191
192
193
194
195
196
197
198
199
200
201
202
203
204
205
206
207
208
209
210
211
212
213
214
215
216
217
218
219
220
222
224
225
226
227
228
229
230
232
233
234
235
236
237
239
240
241
242
243
244
246
247
248
249
250
251
252
253
254
255
256
257
258
259
260
261
262
263
264
265
266
267
268
269
270
271
272
273
274
275
276
277
278
279
280
281
283
284
285
286
287
288
289
290
291
292
293
294
295
296
297
298
299
300

SCALARS type int 1
LOOKUP_TABLE default
1
1
1
1
1
1
1
1
1
1
1
1
1
1
1
1
1
1
1
1
1
1
1
1
1
1
1
1
1
1
1
1
1
1
1
1
1
1
1
1
1
1
1
1
1
1
1
1
1
1
1
1
1
1
1
1
1
1
1
1
1
1
1
1
1
1
1
1
1
1
1
1
1
1
1
1
1
1
1
1
1
1
1
1
1
1
1
1
1
1
1
1
1
1
1
1
1
1
1
1
1
1
1
1
1
1
1
1
1
1
1
1
1
1
1
1
1
1
1
1
1
1
1
1
1
1
1
1
1
1
1
1
1
1
1
1
1
1
1
1
1
1
1
1
1
1
1
1
1
1
1
1
1
1
1
1
1
1
1
1
1
1
1
1
1
1
1
1
1
1
1
1
1
1
1
1
1
1
1
1
1
1
1
1
1
1
1
1
1
1
1
1
1
1
1
1
1
1
1
1
1
1
1
1
1
1
1
1
1
1
1
1
1
1
1
1
1
1
1
1
1
1
1
1
1
1
1
1
1
1
1
1
1
1
1
1
1
1
1
1
1
1
1
1
1
1
1
1
1
1
1
1
1
1
1
1
1
1
1
1
1
1
1
1
1
1
1
1
1
1
1
1
1
1
1

SCALARS radius float 1
LOOKUP_TABLE default
5e-05
5e-05
5e-05
5e-05
5e-05
5e-05
5e-05
5e-05
5e-05
5e-05
5e-05
5e-05
5e-05
5e-05
5e-05
5e-05
5e-05
5e-05
5e-05
5e-05
5e-05
5e-05
5e-05
5e-05
5e-05
5e-05
5e-05
5e-05
5e-05
5e-05
5e-05
5e-05
5e-05
5e-05
5e-05
5e-05
5e-05
5e-05
5e-05
5e-05
5e-05
5e-05
5e-05
5e-05
5e-05
5e-05
5e-05
5e-05
5e-05
5e-05
5e-05
5e-05
5e-05
5e-05
5e-05
5e-05
5e-05
5e-05
5e-05
5e-05
5e-05
5e-05
5e-05
5e-05
5e-05
5e-05
5e-05
5e-05
5e-05
5e-05
5e-05
5e-05
5e-05
5e-05
5e-05
5e-05
5e-05
5e-05
5e-05
5e-05
5e-05
5e-05
5e-05
5e-05
5e-05
5e-05
5e-05
5e-05
5e-05
5e-05
5e-05
5e-05
5e-05
5e-05
5e-05
5e-05
5e-05
5e-05
5e-05
5e-05
5e-05
5e-05
5e-05
5e-05
5e-05
5e-05
5e-05
5e-05
5e-05
5e-05
5e-05
5e-05
5e-05
5e-05
5e-05
5e-05
5e-05
5e-05
5e-05
5e-05
5e-05
5e-05
5e-05
5e-05
5e-05
5e-05
5e-05
5e-05
5e-05
5e-05
5e-05
5e-05
5e-05
5e-05
5e-05
5e-05
5e-05
5e-05
5e-05
5e-05
5e-05
5e-05
5e-05
5e-05
5e-05
5e-05
5e-05
5e-05
5e-05
5e-05
5e-05
5e-05
5e-05
5e-05
5e-05
5e-05
5e-05
5e-05
5e-05
5e-05
5e-05
5e-05
5e-05
5e-05
5e-05
5e-05
5e-05
5e-05
5e-05
5e-05
5e-05
5e-05
5e-05
5e-05
5e-05
5e-05
5e-05
5e-05
5e-05
5e-05
5e-05
5e-05
5e-05
5e-05
5e-05
5e-05
5e-05
5e-05
5e-05
5e-05
5e-05
5e-05
5e-05
5e-05
5e-05
5e-05
5e-05
5e-05
5e-05
5e-05
5e-05
5e-05
5e-05
5e-05
5e-05
5e-05
5e-05
5e-05
5e-05
5e-05
5e-05
5e-05
5e-05
5e-05
5e-05
5e-05
5e-05
5e-05
5e-05
5e-05
5e-05
5e-05
5e-05
5e-05
5e-05
5e-05
5e-05
5e-05
5e-05
5e-05
5e-05
5e-05
5e-05
5e-05
5e-05
5e-05
5e-05
5e-05
5e-05
5e-05
5e-05
5e-05
5e-05
5e-05
5e-05
5e-05
5e-05
5e-05
5e-05
5e-05
5e-05
5e-05
5e-05
5e-05
5e-05
5e-05
5e-05
5e-05
5e-05
5e-05
5e-05
5e-05
5e-05
5e-05
5e-05
5e-05
5e-05
5e-05
5e-05
5e-05
5e-05
5e-05
5e-05
5e-05
5e-05

SCALARS mass float 1
LOOKUP_TABLE default
1.46608e-10
1.46608e-10
1.46608e-10
1.46608e-10
1.46608e-10
1.46608e-10
1.46608e-10
1.46608e-10
1.46608e-10
1.46608e-10
1.46608e-10
1.46608e-10
1.46608e-10
1.46608e-10
1.46608e-10
1.46608e-10
1.46608e-10
1.46608e-10
1.46608e-10
1.46608e-10
1.46608e-10
1.46608e-10
1.46608e-10
1.46608e-10
1.46608e-10
1.46608e-10
1.46608e-10
1.46608e-10
1.46608e-10
1.46608e-10
1.46608e-10
1.46608e-10
1.46608e-10
1.46608e-10
1.46608e-10
1.46608e-10
1.46608e-10
1.46608e-10
1.46608e-10
1.46608e-10
1.46608e-10
1.46608e-10
1.46608e-10
1.46608e-10
1.46608e-10
1.46608e-10
1.46608e-10
1.46608e-10
1.46608e-10
1.46608e-10
1.46608e-10
1.46608e-10
1.46608e-10
1.46608e-10
1.46608e-10
1.46608e-10
1.46608e-10
1.46608e-10
1.46608e-10
1.46608e-10
1.46608e-10
1.46608e-10
1.46608e-10
1.46608e-10
1.46608e-10
1.46608e-10
1.46608e-10
1.46608e-10
1.46608e-10
1.46608e-10
1.46608e-10
1.46608e-10
1.46608e-10
1.46608e-10
1.46608e-10
1.46608e-10
1.46608e-10
1.46608e-10
1.46608e-10
1.46608e-10
1.46608e-10
1.46608e-10
1.46608e-10
1.46608e-10
1.46608e-10
1.46608e-10
1.46608e-10
1.46608e-10
1.46608e-10
1.46608e-10
1.46608e-10
1.46608e-10
1.46608e-10
1.46608e-10
1.46608e-10
1.46608e-10
1.46608e-10
1.46608e-10
1.46608e-10
1.46608e-10
1.46608e-10
1.46608e-10
1.46608e-10
1.46608e-10
1.46608e-10
1.46608e-10
1.46608e-10
1.46608e-10
1.46608e-10
1.46608e-10
1.46608e-10
1.46608e-10
1.46608e-10
1.46608e-10
1.46608e-10
1.46608e-10
1.46608e-10
1.46608e-10
1.46608e-10
1.46608e-10
1.46608e-10
1.46608e-10
1.46608e-10
1.46608e-10
1.46608e-10
1.46608e-10
1.46608e-10
1.46608e-10
1.46608e-10
1.46608e-10
1.46608e-10
1.46608e-10
1.46608e-10
1.46608e-10
1.46608e-10
1.46608e-10
1.46608e-10
1.46608e-10
1.46608e-10
1.46608e-10
1.46608e-10
1.46608e-10
1.46608e-10
1.46608e-10
1.46608e-10
1.46608e-10
1.46608e-10
1.46608e-10
1.46608e-10
1.46608e-10
1.46608e-10
1.46608e-10
1.46608e-10
1.46608e-10
1.46608e-10
1.46608e-10
1.46608e-10
1.46608e-10
1.46608e-10
1.46608e-10
1.46608e-10
1.46608e-10
1.46608e-10
1.46608e-10
1.46608e-10
1.46608e-10
1.46608e-10
1.46608e-10
1.46608e-10
1.46608e-10
1.46608e-10
1.46608e-10
1.46608e-10
1.46608e-10
1.46608e-10
1.46608e-10
1.46608e-10
1.46608e-10
1.46608e-10
1.46608e-10
1.46608e-10
1.46608e-10
1.46608e-10
1.46608e-10
1.46608e-10
1.46608e-10
1.46608e-10
1.46608e-10
1.46608e-10
1.46608e-10
1.46608e-10
1.46608e-10
1.46608e-10
1.46608e-10
1.46608e-10
1.46608e-10
1.46608e-10
1.46608e-10
1.46608e-10
1.46608e-10
1.46608e-10
1.46608e-10
1.46608e-10
1.46608e-10
1.46608e-10
1.46608e-10
1.46608e-10
1.46608e-10
1.46608e-10
1.46608e-10
1.46608e-10
1.46608e-10
1.46608e-10
1.46608e-10
1.46608e-10
1.46608e-10
1.46608e-10
1.46608e-10
1.46608e-10
1.46608e-10
1.46608e-10
1.46608e-10
1.46608e-10
1.46608e-10
1.46608e-10
1.46608e-10
1.46608e-10
1.46608e-10
1.46608e-10
1.46608e-10
1.46608e-10
1.46608e-10
1.46608e-10
1.46608e-10
1.46608e-10
1.46608e-10
1.46608e-10
1.46608e-10
1.46608e-10
1.46608e-10
1.46608e-10
1.46608e-10
1.46608e-10
1.46608e-10
1.46608e-10
1.46608e-10
1.46608e-10
1.46608e-10
1.46608e-10
1.46608e-10
1.46608e-10
1.46608e-10
1.46608e-10
1.46608e-10
1.46608e-10
1.46608e-10
1.46608e-10
1.46608e-10
1.46608e-10
1.46608e-10
1.46608e-10
1.46608e-10
1.46608e-10
1.46608e-10
1.46608e-10
1.46608e-10
1.46608e-10
1.46608e-10
1.46608e-10
1.46608e-10
1.46608e-10
1.46608e-10
1.46608e-10
1.46608e-10
1.46608e-10

VECTORS velocity float
0.00582809 4.09864e-05 -0.000203871
0.00567518 6.67922e-05 -0.000147567
0.00592394 0.000145335 -4.96176e-05
0.00599377 5.57536e-05 -0.000141129
0.00600897 -0.000208199 -0.000882695
0.00565148 0.000421598 1.69014e-05
0.00582691 8.79278e-05 -2.2814e-05
0.00566674 0.000294205 -9.24989e-05
0.00583479 7.90964e-05 -1.85805e-05
0.0056375 0.000109264 0.000107819
0.00563271 -0.000108702 0.000266656
0.00596176 5.85472e-05 -0.000144856
0.00540519 -0.000139144 0.00028212
0.00585741 -0.000281588 0.000307802
0.00588955 1.5206e-05 -8.86131e-05
0.00593085 6.44676e-05 -0.000151897
0.0057016 0.000161432 0.000114364
0.00585501 7.38473e-05 -1.63721e-05
0.00559549 -0.000258624 0.000292157
0.00572576 -0.000170345 -0.000865038
0.00612696 3.13972e-05 -0.000109253
0.00577254 7.30359e-05 -0.000444018
0.00592811 -0.000396036 -1.81951e-05
0.00583821 0.000107763 -3.20706e-05
0.00590555 7.19731e-05 -0.000160035
0.00622859 5.6726e-06 -8.65364e-05
0.00569954 0.00047073 -2.89644e-07
0.00614041 2.44324e-05 -0.000106516
0.00601444 -0.000217557 -0.000874219
0.00609659 2.97306e-05 -0.000110792
0.00571432 0.000155534 0.000119312
0.0056465 0.000306255 -8.86156e-05
0.00592349 0.000124593 -3.77552e-05
0.00567427 0.000190037 9.93369e-05
0.00573548 -7.20767e-05 -0.000734774
0.00603778 3.73344e-05 -0.000121868
0.00562284 0.000133702 -4.5195e-05
0.00568506 0.000181914 0.000108769
0.00588179 -0.000189482 -0.00087671
0.00608505 2.90881e-05 -0.000112821
0.00570794 0.000198699 0.000106527
0.00565361 0.00030003 -8.90329e-05
0.00614957 8.62298e-06 -0.00011061
0.00571907 0.000231034 9.02599e-05
0.00538537 -0.000177767 0.000267106
0.00579419 -0.000182069 -0.000867646
0.0058975 5.00579e-05 0.0001594
0.0055414 -0.000149511 0.000264092
0.00579553 6.72604e-05 0.000158641
0.00583299 -0.000184421 -0.000872221
-5.0197e-15 -7.41197e-15 7.69802e-14
0.00570449 0.000147 0.000121707
0.00600851 4.79998e-05 -0.000132547
0.00569665 0.00018298 0.000109744
0.00574085 0.000218461 0.000132439
0.00574985 -0.000175018 -0.000865373
0.00555577 -7.8055e-05 0.000243156
0.00547209 -0.000154558 0.000262106
0.00571086 0.000153695 0.000118285
0.0056868 0.000194536 9.7629e-05
0.00570927 0.000118014 0.000133065
0.005695 0.000285143 -8.90768e-05
0.00590103 -0.000253746 0.000304607
0.00572419 0.000189345 0.000123511
0.00602031 0.000200279 -7.01629e-05
0.00619762 1.21384e-05 -9.58536e-05
0.00584951 -1.90046e-05 -0.000320938
0.00567207 0.00011502 -6.22484e-05
0.00552603 -0.000756753 -0.000282959
0.00588285 -0.00028371 0.000309857
0.00567887 0.000126753 -7.46283e-05
0.00548076 -0.000160378 0.000257751
0.00560473 -2.61048e-05 0.000245645
0.00564974 0.000303747 -8.9055e-05
0.00591925 -0.000309224 0.000317356
0.00567323 0.000200038 9.54307e-05
0.00586989 6.79793e-05 -1.41243e-05
0.00565667 0.000389585 2.40188e-05
0.0057264 0.00017632 0.000112261
0.00576911 0.000157282 0.000120928
0.00561001 -8.3351e-05 0.000266586
0.00566922 0.000197341 0.000104764
0.00614367 -8.25238e-06 -9.72528e-05
0.00567187 0.000117031 0.00010853
0.00570008 0.000212397 0.000108594
0.00573166 0.000182517 0.000109555
0.0057249 -0.000766608 -0.00031575
0.00627954 -2.85199e-05 -8.76505e-05
0.00544245 -0.000106133 0.000260646
0.00566064 0.00017605 0.000109635
0.00546756 -0.000102636 0.000256293
4.1716e-15 1.0527e-14 8.29613e-14
-1.01195e-22 -1.27651e-22 8.29106e-22
0.00588707 -0.000265143 0.00030494
0.00565492 -0.00076024 -0.000306153
0.00558837 -0.000122912 0.000258078
0.00558928 -0.000755686 -0.000294726
0.00576583 0.00012631 0.000131136
0.00568805 6.96565e-05 0.000150162
0.00586766 6.19858e-05 -1.47716e-05
0.00584514 8.50281e-05 -2.1353e-05
0.00577559 -0.000724807 -0.000246309
0.00554355 -0.000102202 0.000178901
0.00539885 -0.00014848 0.000267122
0.00580788 0.00029143 -0.000108846
0.00570454 0.000166817 0.000112617
0.00565245 0.00042658 1.03171e-05
0.00562089 -0.000100355 0.000262983
0.00575614 0.000199404 0.000103804
0.00582415 8.09179e-05 -1.9692e-05
0.00579641 0.00010256 -0.000277901
0.00572403 0.000191696 0.00010616
0.00594542 -0.000301069 0.000315664
0.00581644 9.46044e-05 -2.76392e-05
0.00572765 0.000171361 0.000113722
0.00568116 -0.000753354 -0.000313375
0.00625789 -2.4528e-06 -7.84834e-05
0.00561362 0.000194659 0.000112049
0.00537069 -0.000136261 0.000258848
0.0054105 -0.000148313 0.000262341
0.00578309 0.000226067 -8.06325e-05
0.00574587 0.00017124 0.000122546
0.00567752 0.000163519 0.000112684
0.00566986 0.000125805 0.000128249
0.00541769 -0.000204754 0.000281759
0.00557495 0.000217791 0.000125129
0.0056362 0.00019033 0.000104836
0.00567149 0.000191775 0.000106471
0.00612062 -0.000313337 -0.00010105
0.0053612 -0.000200668 0.00027095
0.00562658 -0.000754959 -0.00030893
0.00538155 -0.000132517 0.000263784
0.00575756 -0.000756231 -0.000330962
0.00540401 -0.00013265 0.000252697
0.00609574 -0.000301768 -0.000109661
0.00581865 0.00010865 -3.27242e-05
0.00587596 -0.000303711 0.000312912
0.00546958 -0.000165811 0.000270442
0.00600661 -0.000286742 -0.000114581
0.00580741 -0.000765519 -0.000335258
0.00585442 -0.000617525 -0.000156172
0.00607605 -0.000306523 -0.000100596
-3.83598e-14 8.161e-14 2.959e-13
0.00609551 -0.000262538 -0.000144934
0.00565813 0.000129395 -3.68151e-05
0.00547995 -0.000129573 0.000264363
0.00543692 -0.000156257 0.000265446
0.00588072 -0.000396456 2.2682e-06
0.00589765 -0.000237089 0.000301501
0.00566667 0.000189817 0.000105431
0.00581449 -0.000302079 0.000313192
0.00586773 -0.000306803 0.000313043
0.00582856 -0.000368438 0.000324996
0.00589788 -0.000294896 0.000312255
0.00582971 8.17177e-06 4.12531e-05
0.00553918 -6.6384e-05 0.000204092
0.00567373 0.000396009 0.000110939
0.00593191 -0.000412582 1.87959e-05
0.00545035 -8.92781e-05 0.000235759
0.00585617 -0.000527823 -9.9651e-05
0.00536692 -0.000119207 0.00026212
0.00545464 -0.000198413 0.000270097
0.00590525 5.07093e-05 -5.08234e-05
0.00557909 -0.000154814 0.000278277
0.00572338 0.000222744 0.00018029
0.00537944 -0.000191301 0.000270341
0.00596773 -0.000301858 0.000317377
0.00573919 7.74821e-05 -0.000349887
0.00570673 0.000187319 0.000107524
0.00574243 0.000133639 -0.000238628
0.00565116 3.07187e-06 2.1156e-05
0.00583351 9.86058e-05 -2.7192e-05
0.00557338 -0.000135714 0.000257988
0.00587058 5.428e-05 0.000147005
0.00548852 -0.000163742 0.000273772
0.00552684 -0.000145834 0.00026596
0.00553192 -0.000169522 0.000273183
0.00575505 2.63142e-05 0.000105886
0.00539979 -0.000126726 0.000258395
0.00541603 -0.000118804 0.000270422
0.0057535 -0.000779261 -0.000305949
0.00591864 -0.000222351 0.000301151
0.00596853 -0.000158029 -0.000222558
0.00563383 0.000166307 0.00011499
0.00575561 -0.000276658 0.000302173
0.00604265 -0.000408502 -3.20177e-06
0.00596813 -0.000379146 1.67901e-05
0.0058586 -0.000400543 1.62642e-05
0.00537623 -0.00018825 0.0002693
0.00561328 -0.000109988 0.000262006
0.00583715 7.68098e-05 -1.8175e-05
0.00584959 6.532e-05 -1.23712e-05
0.00594804 -0.000239718 0.00030378
0.00577157 0.000138651 -0.000289597
0.00567454 0.000183473 3.939e-05
0.0056617 2.08755e-06 2.33461e-05
0.00584748 -0.000407068 2.15924e-05
0.00590034 -7.21904e-05 0.000252677
0.00542475 -0.000121355 0.000260555
0.00591683 7.31506e-05 -5.94175e-05
0.005479 -0.000158534 0.000270637
0.00564121 0.00044146 8.41494e-06
0.00594566 -0.000441916 -7.70485e-05
0.00586021 7.16815e-05 -1.31338e-05
0.00545946 -0.000231478 0.000280873
0.00565049 3.03335e-06 2.06707e-05
0.00565337 2.70636e-05 0.000102931
0.00593241 -0.000308067 0.000316429
0.00576134 -9.99708e-05 -0.000278293
0.00550057 -0.000140841 0.000234099
0.00546222 -0.000126682 0.000259286
0.00569528 0.000198826 0.000102902
0.00600533 -0.000478801 9.95351e-05
0.00555018 -0.000255064 -0.000155974
0.00558944 -0.000153366 0.000279003
0.00614096 -5.02888e-05 0.000159553
0.0057041 3.57282e-05 9.95592e-05
0.00615909 -5.74715e-05 0.000164112
0.00607299 -0.000286748 -0.000120895
0.00549067 -0.000180211 0.000271791
0.00564963 3.64183e-05 9.78953e-05
0.00566456 2.80681e-05 0.000103128
0.00596958 -0.000432482 4.20379e-05
0.00548089 -5.14344e-05 0.000268912
0.00555635 5.74652e-05 8.39614e-05
0.00592922 -0.000408865 2.09285e-05
0.00560298 0.000361403 4.25944e-05
0.00565749 2.83754e-05 0.000102813
0.00565843 -6.2889e-08 2.15353e-05
0.00558252 4.80712e-05 8.97245e-05
0.00550786 -0.000760933 -0.000271463
0.00580299 -0.000369519 0.000322901
0.00599695 -0.000289739 -0.000125923
0.00534608 -0.000151443 0.00026403
0.00564832 2.80146e-05 0.000103289
0.00545611 -0.000143164 0.000260852
0.00538942 -0.000129903 0.00024304
0.0056001 -0.000139019 0.000265966
0.00555368 6.0252e-05 8.20599e-05
0.00584571 -0.000478822 -5.74297e-05
0.00564358 7.31101e-06 2.06055e-05
0.00550072 -0.000154069 0.000268968
0.00599808 -0.000399431 9.36111e-06
0.00539719 -0.000165751 0.000267277
0.00546324 -0.000197042 0.000272548
0.0057197 0.000172252 0.000109614
0.00546179 -0.000172117 0.000269519
0.00565456 8.26216e-06 4.39633e-05
0.00602294 -0.000397416 -6.86898e-06
0.00564789 2.79837e-05 0.000103285
0.00591885 -0.000409192 6.21148e-06
0.00589732 -0.000402894 2.22265e-05
0.00596833 -0.00045827 6.44638e-05
0.00564131 -0.000100951 0.000250263
0.00566706 1.69884e-05 1.95605e-05
0.00565899 4.44387e-07 2.13439e-05
0.00548619 -0.000166769 0.000270208
0.0056593 4.08826e-05 9.55058e-05
0.00545003 -0.000667527 0.000328882
0.00564143 -0.000368284 -6.7959e-05
0.00584159 -0.000391844 3.51073e-06
0.00570909 -2.26474e-05 -0.000367334
0.0055168 -0.000146159 0.000271907
0.00584678 -0.000386017 5.59339e-06
0.00510742 -0.000333619 3.15502e-05
0.00548842 -0.000207945 0.000268411
0.00545742 -0.000183292 0.000230966
0.00540577 -0.000218622 0.000146019
0.00581563 -0.000332929 -5.8496e-05
0.00566979 -1.89876e-06 2.18263e-05
0.00598321 -0.000480436 8.92597e-05
0.00572938 0.00012768 -0.000274251
0.00574123 3.09612e-05 0.00010341
0.00563661 3.62318e-05 9.76889e-05
0.00562829 0.000195285 0.000101676

VECTORS force float
5.88e-11 -4.13124e-10 1.28452e-10
4.28293e-12 -8.20287e-11 -5.52578e-10
9.16446e-10 -4.83583e-10 1.30535e-10
-9.87044e-11 5.68961e-11 -4.6513e-11
2.64e-12 -1.00937e-10 7.96641e-11
-1.36704e-10 -1.64971e-10 6.56728e-11
-8.08454e-11 -1.90205e-10 7.15631e-11
1.33327e-11 -8.46022e-11 -5.99337e-11
-8.97677e-12 -1.84426e-10 9.50833e-11
-4.34136e-11 2.62745e-10 -4.62486e-11
-7.61595e-11 1.13977e-10 5.47297e-11
-9.03507e-11 1.08602e-11 6.79338e-12
-1.10805e-10 -1.33146e-11 1.02551e-10
1.53154e-10 -1.19844e-10 7.94855e-11
-1.97034e-10 -2.48067e-10 2.34973e-10
-4.64244e-11 -7.68217e-11 9.58837e-11
-2.97375e-10 -1.48123e-10 7.29967e-11
7.64187e-11 -2.26424e-10 8.59603e-11
5.09576e-10 -2.58531e-10 4.13876e-11
2.61495e-10 -1.00997e-10 5.49051e-12
-1.32174e-10 2.29563e-10 -2.52634e-10
-5.3801e-13 -9.57283e-11 -4.21591e-11
5.70376e-10 1.28739e-10 -3.47112e-10
1.10695e-09 -6.03651e-10 3.03603e-10
2.66752e-11 -8.43467e-11 9.1603e-11
8.751e-11 -4.94136e-11 2.10779e-11
1.52617e-10 -8.03904e-11 2.04214e-11
-6.42362e-11 2.14416e-10 -2.26471e-10
2.76012e-11 -1.1315e-10 9.84621e-11
2.51545e-11 2.54212e-10 -2.72024e-10
-5.65737e-11 -1.38011e-10 5.89017e-11
4.17153e-11 -1.29481e-11 -1.4423e-11
4.33522e-10 -3.84525e-10 1.73321e-10
1.33128e-10 -1.90011e-10 4.59763e-11
5.30291e-11 -7.75008e-11 -5.90237e-11
5.466e-11 3.22128e-11 -6.43527e-11
1.42964e-09 1.35208e-10 -5.40105e-11
8.34447e-11 2.59827e-10 -9.68747e-11
2.50129e-10 -1.17673e-10 6.52589e-11
-7.99068e-11 1.612e-10 -1.84046e-10
8.79864e-11 4.14514e-10 -1.08367e-10
2.37225e-12 -5.56342e-11 -8.08248e-12
7.60909e-11 8.40237e-11 -9.79383e-11
-2.23018e-10 -1.04191e-10 1.81071e-11
8.76808e-11 1.52606e-10 -1.84117e-11
-3.11691e-12 -1.56341e-11 1.96067e-11
4.85164e-10 -1.97951e-10 -2.01174e-11
-6.84325e-10 -1.05373e-09 1.71578e-10
-9.0006e-11 -2.74699e-10 1.40511e-10
2.5144e-11 -2.86659e-11 1.60218e-11
3.48967e-24 -1.16322e-24 0.0
3.73473e-11 -3.97939e-12 1.91071e-12
5.21084e-11 3.37564e-11 -4.68304e-11
-1.23756e-10 -7.69477e-12 7.59282e-12
2.49971e-10 4.74292e-10 -2.75536e-10
3.52163e-10 -9.82289e-11 3.818e-11
-9.03659e-10 -8.89275e-10 -4.36197e-10
1.34179e-10 5.45013e-11 -2.88755e-10
-4.67221e-10 -3.68338e-11 2.44737e-11
-1.31991e-11 -5.09743e-11 7.13006e-11
-3.30892e-10 4.35726e-11 -3.60114e-11
-4.12456e-11 -9.75959e-11 6.5362e-12
-1.34332e-10 1.75782e-11 -1.37513e-11
3.90631e-11 2.1476e-10 -8.38273e-11
6.74622e-10 -3.45704e-10 1.69152e-10
1.62144e-10 -3.13724e-11 -2.36244e-11
7.85181e-11 1.65443e-09 -2.28018e-09
5.44212e-10 -2.46109e-10 -2.50494e-10
8.8789e-11 1.70853e-10 -2.2538e-10
-1.15976e-12 1.66114e-11 -6.47503e-12
1.44554e-10 -6.25087e-10 4.8059e-11
1.69404e-11 7.91646e-11 1.23155e-11
5.85522e-10 1.59106e-10 2.26014e-11
-6.34657e-11 -3.3266e-11 1.0746e-11
-6.00685e-11 -1.5741e-10 -2.54522e-12
2.48865e-10 1.05564e-10 2.93696e-11
2.68967e-10 -3.68459e-10 1.50958e-10
-4.76828e-11 -5.27294e-11 4.80968e-11
-4.53033e-10 -6.47586e-11 6.13445e-11
-2.8383e-10 2.62995e-11 -1.72017e-13
-1.30326e-10 -1.35858e-10 -9.66006e-11
-2.50059e-10 -1.47979e-11 -1.16601e-11
1.49582e-10 -1.12079e-10 8.74417e-11
-5.97858e-11 4.09643e-10 -1.11101e-10
-3.72089e-11 2.54444e-10 -1.6113e-10
-9.8252e-11 4.44301e-12 1.13834e-11
-2.52515e-10 -7.8468e-11 3.04458e-11
-7.2315e-11 -5.20771e-11 1.03757e-10
-2.00584e-12 -9.55685e-11 3.19088e-11
-2.03492e-10 2.1701e-11 2.10635e-11
-1.07577e-10 -2.04466e-10 2.70701e-11
-1.96775e-21 8.72676e-22 -1.5096e-23
0.0 0.0 0.0
1.69281e-10 -6.7484e-11 2.94057e-11
-7.41163e-11 7.9561e-12 -7.51305e-11
-3.07379e-10 5.34788e-10 -8.47107e-11
-6.52321e-12 2.10716e-10 -2.48532e-10
-4.62105e-10 2.31509e-10 -1.11729e-10
-2.83025e-10 1.89916e-10 -7.67448e-11