# vtk DataFile Version 3.0
LIGGGHTS particles timestep 6800000
ASCII
DATASET POLYDATA
POINTS 287 float
0.0524994 0.0164486 0.00775068
0.0528897 0.0173168 0.00736484
0.0462515 0.01587 0.00830533
0.052842 0.0178826 0.00712953
0.0523848 0.0163312 0.0078062
0.0584513 0.016671 0.00778373
0.0525728 0.0171392 0.00745645
0.052289 0.0159563 0.00810568
0.058711 0.0177086 0.00718727
0.0525079 0.0168704 0.0075729
0.0529556 0.0175865 0.00724791
0.0464413 0.0165798 0.00766309
0.0523653 0.0162444 0.00785188
0.0461749 0.0156877 0.0086476
0.0527122 0.0173452 0.0073624
0.0461533 0.0156564 0.00874009
0.0524862 0.0167809 0.00761171
0.0585869 0.017156 0.00729756
0.0523459 0.0161567 0.00789575
0.0524795 0.0163587 0.00778956
0.052616 0.0173183 0.00737882
0.0466303 0.016999 0.00754628
0.0586503 0.0174149 0.00719372
0.0525511 0.0170496 0.00749527
0.0585284 0.0169482 0.00750585
0.0465286 0.0169641 0.00756519
0.0528203 0.017793 0.00716834
0.0523264 0.0160747 0.00794961
0.0528528 0.0175523 0.00726779
0.0525944 0.0172288 0.00741763
0.0526906 0.0172556 0.00740122
0.0584706 0.0167403 0.00771426
0.0524646 0.0166913 0.00765053
0.0526689 0.017166 0.00744003
0.0587529 0.0179041 0.00718295
0.0526257 0.0169868 0.00751767
0.052787 0.0172826 0.0073847
0.0586691 0.0175131 0.00719158
0.0524233 0.0165117 0.00772824
0.0526377 0.0174079 0.00734
0.0528089 0.0173726 0.0073457
0.0584898 0.0168096 0.00764479
0.0585669 0.0170868 0.00736693
0.0524429 0.0166017 0.00768935
0.0526809 0.0175871 0.00726237
0.0585494 0.0170173 0.00743665
0.0527458 0.0178558 0.00714592
0.0527242 0.0177663 0.00718473
0.046423 0.0164841 0.00768711
0.0586069 0.0172252 0.00722821
0.0524596 0.0162687 0.00782845
0.0462132 0.0157549 0.0084632
0.0526473 0.0170764 0.00747885
0.0585091 0.0168789 0.00757532
0.0527014 0.0169252 0.00753951
0.0527226 0.017019 0.00751108
0.0524041 0.0164216 0.00776714
0.0528309 0.0174624 0.00730676
0.0527771 0.0176139 0.00724597
0.0586272 0.0173176 0.0071959
0.0465448 0.0166221 0.00764871
0.0464608 0.0164039 0.00784056
0.0529331 0.0174959 0.00728721
0.0528963 0.0177317 0.00719007
0.0525608 0.0167181 0.0076341
0.05869 0.0176108 0.00718942
0.046195 0.0157195 0.00855496
0.0528745 0.0176419 0.00722897
0.0525295 0.01696 0.00753408
0.0527339 0.0174356 0.00732568
0.046782 0.0176614 0.00737737
0.0529613 0.0184317 0.0069225
0.0462696 0.0159329 0.00822976
0.0464632 0.0166788 0.00763792
0.0528085 0.0181252 0.00702934
0.0464037 0.0164179 0.0077595
0.0465503 0.0170588 0.00754103
0.0465332 0.0162472 0.0078923
0.0587319 0.0178063 0.00718511
0.0463615 0.0159383 0.00819068
0.0527987 0.0177035 0.00720739
0.0526793 0.0168349 0.00757865
0.0528645 0.0183969 0.00691255
0.0528273 0.0182163 0.00699002
0.0528652 0.0172238 0.00740524
0.0464849 0.0167734 0.00761379
0.0529418 0.0179135 0.00711121
0.0529233 0.0182433 0.00697718
0.0530047 0.0181872 0.00699275
0.0527891 0.018035 0.00706828
0.0529642 0.0180056 0.00707129
0.0463653 0.0162566 0.00786353
0.0528855 0.0184966 0.00691736
0.046524 0.0165418 0.00770457
0.0528158 0.0170431 0.00748386
0.0464446 0.0163145 0.0078825
0.0643568 0.0187248 0.00531097
0.24257 0.0191927 0.00520306
0.0467902 0.0173099 0.00745754
0.0463267 0.0161184 0.00800281
0.0468634 0.0172422 0.00746533
0.046289 0.0159976 0.00815563
0.0526044 0.0168979 0.0075581
0.0527026 0.0176767 0.00722355
0.0530483 0.0179542 0.00708838
0.0529258 0.0186909 0.00692667
0.0463847 0.016326 0.00779426
0.0470966 0.0174853 0.0073844
0.0467252 0.017026 0.00752992
0.0527554 0.0175243 0.00728479
0.0525824 0.0168077 0.00759529
0.0524392 0.0161789 0.00786731
0.0462311 0.0158013 0.00837647
0.052744 0.0171125 0.00747885
0.0523073 0.0160098 0.00802321
0.0522707 0.0159027 0.00818814
0.0530694 0.0180458 0.00704874
0.0464034 0.0160769 0.00805277
0.052884 0.018062 0.00705186
0.0524188 0.0160909 0.00791447
0.0526593 0.0174975 0.00730118
0.0463459 0.0161871 0.0079328
0.0527675 0.0179454 0.0071071
0.0528459 0.0183065 0.0069511
0.0466519 0.0170936 0.00752216
0.0464973 0.0164779 0.00777668
0.0528637 0.0179731 0.00709285
0.0525942 0.016476 0.00773409
0.0527653 0.017193 0.00742352
0.0524052 0.0160331 0.00799496
0.0463411 0.0158698 0.00826062
0.0529455 0.0187888 0.00693131
0.05254 0.0166284 0.00767295
0.0530897 0.0181372 0.00700924
0.0463838 0.0160075 0.00812202
0.0467469 0.0171207 0.00750579
0.046307 0.0160482 0.00807133
0.0467035 0.0169314 0.00755405
0.0465229 0.0163159 0.0078204
0.0463188 0.0157998 0.00832841
0.0466153 0.0173427 0.00746863
0.0529826 0.0185293 0.00692728
0.0465451 0.0164451 0.00768991
0.0469367 0.0171746 0.00747311
0.0464405 0.0162203 0.00791849
0.0467169 0.0173774 0.00744979
0.0468037 0.017756 0.00735323
0.0466952 0.0172828 0.00747391
0.0219312 0.0187687 0.00551176
0.0468119 0.0174045 0.00743342
0.052918 0.0178214 0.0071512
0.046702 0.0177211 0.00737214
0.0467385 0.017472 0.00742567
0.0469636 0.0180667 0.00726453
0.0470017 0.0174584 0.00740074
0.0525543 0.0162961 0.00781185
0.0464964 0.0163816 0.00774981
0.0468851 0.0173368 0.0074412
0.0471183 0.01758 0.00736026
0.0469285 0.0175261 0.00739293
0.0525742 0.0163861 0.00777296
0.04698 0.0173638 0.00742487
0.0529697 0.0172601 0.00738441
0.0468552 0.0175937 0.00738518
0.0406391 0.0173824 0.00726747
0.0466736 0.0171882 0.00749804
0.0467453 0.0179103 0.0073239
0.0470749 0.0173907 0.00740853
0.0470451 0.0176477 0.00735246
0.0466586 0.0175319 0.00742039
0.0525194 0.0165386 0.00771181
0.0469068 0.0174314 0.00741708
0.0528637 0.017863 0.00722515
0.0465936 0.0172481 0.00749276
0.046637 0.0174373 0.00744451
0.0527966 0.0169528 0.00752282
0.0529451 0.0183361 0.00694716
0.0528435 0.0171342 0.00744407
0.0407433 0.0174227 0.00725794
0.0529655 0.0188867 0.00693597
0.0468201 0.017053 0.00751357
0.0526575 0.0167454 0.00761746
0.0466392 0.0166471 0.00762646
0.0470234 0.0175531 0.00737659
0.046132 0.015625 0.00883261
0.0407042 0.0176602 0.00717484
0.0465066 0.016868 0.00758967
0.0467602 0.0175666 0.00740155
0.0466087 0.0169044 0.00757039
0.0470687 0.0181064 0.00724417
0.0468418 0.0171476 0.00748945
0.0529114 0.0174063 0.00732603
0.0465878 0.0168096 0.00759449
0.0469203 0.0178775 0.00731277
0.0468769 0.0176883 0.00736103
0.0464221 0.0161464 0.00798335
0.0468335 0.0174991 0.0074093
0.0466107 0.0165469 0.00765261
0.052634 0.0173006 0.00747558
0.0529848 0.0180965 0.00703194
0.0469502 0.0176207 0.0073688
0.0527756 0.0168622 0.00756205
0.0529038 0.018152 0.007013
0.0406924 0.0172283 0.00732254
0.0467236 0.0178157 0.00734802
0.0526148 0.0165658 0.00769523
0.046847 0.0179452 0.00730499
0.0529059 0.0185931 0.0069337
0.0466803 0.0176265 0.00739626
0.0406041 0.0168562 0.00744657
0.0526358 0.0166558 0.00765627
0.0467685 0.0172153 0.00748167
0.046572 0.0171534 0.00751689
0.0531155 0.0178193 0.00714153
0.0469583 0.0172692 0.00744899
0.0407691 0.0171686 0.00734618
0.0406608 0.017475 0.00723659
0.0466177 0.0170721 0.00761364
0.0470069 0.018256 0.00721627
0.0406173 0.0172898 0.00729835
0.0465194 0.0161774 0.00796257
0.0466611 0.0167419 0.00760227
0.0530562 0.0184618 0.00693214
0.0470502 0.0184454 0.00716799
0.0470287 0.0183506 0.00719214
0.0471235 0.0183778 0.00717576
0.0404301 0.0164921 0.00763534
0.0404885 0.0167339 0.00748377
0.0404109 0.0164307 0.00771186
0.0467775 0.0168637 0.00756178
0.0465663 0.0167151 0.0076191
0.040449 0.016553 0.00755834
0.0405739 0.0171046 0.0073601
0.0469419 0.0179721 0.00728865
0.0471102 0.0179316 0.00728005
0.0407602 0.0177392 0.00715003
0.0468254 0.0178506 0.00732911
0.0530267 0.0178633 0.00712777
0.0407659 0.0179251 0.00708647
0.0406706 0.0171356 0.00735345
0.0405522 0.017012 0.00739098
0.0463095 0.0157534 0.00841654
0.0468986 0.0177829 0.0073369
0.0468103 0.018194 0.00725153
0.0468687 0.0180398 0.00728087
0.0407854 0.0180181 0.00705535
0.0466827 0.0168365 0.00757815
0.0469781 0.0185142 0.0071598
0.0471002 0.01822 0.00721461
0.0405306 0.0169193 0.00742187
0.046832 0.0182886 0.00722741
0.0406825 0.0175676 0.00720571
0.046915 0.01708 0.00749724
0.046912 0.018229 0.00723262
0.0465279 0.0169357 0.00766106
0.0467886 0.0180994 0.00727565
0.0529961 0.0177624 0.00717181
0.0469719 0.0177153 0.00734468
0.0408735 0.0179746 0.00707393
0.046897 0.0185724 0.00715504
0.0408049 0.0181112 0.00702423
0.0468904 0.0181344 0.00725674
0.046767 0.0180048 0.00729977
0.0469186 0.018667 0.00713092
0.0470153 0.0179047 0.00729639
0.0405956 0.0171972 0.00732922
0.0407141 0.0173209 0.00729166
0.046756 0.016769 0.00758591
0.0406297 0.0169534 0.0074143
0.0404685 0.016641 0.0075149
0.0469554 0.0184182 0.00718437
0.0469336 0.0183236 0.0072085
0.0468536 0.0183834 0.00720384
0.0469853 0.0181613 0.00724041
0.0468753 0.0184778 0.00717916
0.0467341 0.016674 0.00761013
0.0467985 0.0169584 0.00753769
0.047037 0.0179993 0.00727226
0.0465005 0.0161079 0.00803194
0.0469935 0.0178099 0.00732055
0.0469403 0.0187616 0.00710679
0.0408039 0.0176547 0.00718084
0.0469998 0.0186089 0.00713566
0.0527529 0.0167712 0.00760152
0.0405087 0.0168268 0.00745273
0.0407447 0.0178324 0.00711739
0.0527341 0.0173255 0.00745797

VERTICES 287 574
1 0
1 1
1 2
1 3
1 4
1 5
1 6
1 7
1 8
1 9
1 10
1 11
1 12
1 13
1 14
1 15
1 16
1 17
1 18
1 19
1 20
1 21
1 22
1 23
1 24
1 25
1 26
1 27
1 28
1 29
1 30
1 31
1 32
1 33
1 34
1 35
1 36
1 37
1 38
1 39
1 40
1 41
1 42
1 43
1 44
1 45
1 46
1 47
1 48
1 49
1 50
1 51
1 52
1 53
1 54
1 55
1 56
1 57
1 58
1 59
1 60
1 61
1 62
1 63
1 64
1 65
1 66
1 67
1 68
1 69
1 70
1 71
1 72
1 73
1 74
1 75
1 76
1 77
1 78
1 79
1 80
1 81
1 82
1 83
1 84
1 85
1 86
1 87
1 88
1 89
1 90
1 91
1 92
1 93
1 94
1 95
1 96
1 97
1 98
1 99
1 100
1 101
1 102
1 103
1 104
1 105
1 106
1 107
1 108
1 109
1 110
1 111
1 112
1 113
1 114
1 115
1 116
1 117
1 118
1 119
1 120
1 121
1 122
1 123
1 124
1 125
1 126
1 127
1 128
1 129
1 130
1 131
1 132
1 133
1 134
1 135
1 136
1 137
1 138
1 139
1 140
1 141
1 142
1 143
1 144
1 145
1 146
1 147
1 148
1 149
1 150
1 151
1 152
1 153
1 154
1 155
1 156
1 157
1 158
1 159
1 160
1 161
1 162
1 163
1 164
1 165
1 166
1 167
1 168
1 169
1 170
1 171
1 172
1 173
1 174
1 175
1 176
1 177
1 178
1 179
1 180
1 181
1 182
1 183
1 184
1 185
1 186
1 187
1 188
1 189
1 190
1 191
1 192
1 193
1 194
1 195
1 196
1 197
1 198
1 199
1 200
1 201
1 202
1 203
1 204
1 205
1 206
1 207
1 208
1 209
1 210
1 211
1 212
1 213
1 214
1 215
1 216
1 217
1 218
1 219
1 220
1 221
1 222
1 223
1 224
1 225
1 226
1 227
1 228
1 229
1 230
1 231
1 232
1 233
1 234
1 235
1 236
1 237
1 238
1 239
1 240
1 241
1 242
1 243
1 244
1 245
1 246
1 247
1 248
1 249
1 250
1 251
1 252
1 253
1 254
1 255
1 256
1 257
1 258
1 259
1 260
1 261
1 262
1 263
1 264
1 265
1 266
1 267
1 268
1 269
1 270
1 271
1 272
1 273
1 274
1 275
1 276
1 277
1 278
1 279
1 280
1 281
1 282
1 283
1 284
1 285
1 286

POINT_DATA 287
SCALARS id int 1
LOOKUP_TABLE default
1
2
3
4
5
6
7
8
9
10
11
12
13
14
15
16
17
18
19
21
22
23
24
25
26
27
28
29
30
31
32
33
34
35
36
37
38
39
41
42
44
45
46
47
48
49
50
51
52
53
54
55
56
57
59
60
61
62
63
64
65
66
67
68
69
70
71
72
73
74
76
77
78
79
80
81
82
83
84
85
86
87
88
89
90
91
92
93
94
95
96
97
98
99
100
101
102
103
104
105
106
107
108
109
110
111
112
113
114
115
116
117
118
119
120
121
122
123
124
125
126
127
128
129
130
131
132
133
134
135
136
137
138
140
141
142
143
144
146
147
148
149
150
151
153
154
155
156
157
158
159
160
162
164
165
166
167
168
169
170
171
172
173
174
175
176
177
178
179
181
182
183
184
185
186
187
188
189
190
191
192
193
194
195
196
197
198
199
200
201
202
203
204
205
206
207
208
209
210
211
212
213
214
215
216
217
218
219
220
221
222
223
224
225
226
227
228
229
230
231
232
233
234
235
236
237
239
240
241
242
243
244
246
247
248
249
250
251
252
253
254
255
256
257
258
259
260
261
262
263
264
265
266
267
268
269
270
271
272
273
274
275
276
277
278
279
280
281
282
283
284
285
286
287
288
289
290
291
292
293
294
295
296
297
298
299
300

SCALARS type int 1
LOOKUP_TABLE default
1
1
1
1
1
1
1
1
1
1
1
1
1
1
1
1
1
1
1
1
1
1
1
1
1
1
1
1
1
1
1
1
1
1
1
1
1
1
1
1
1
1
1
1
1
1
1
1
1
1
1
1
1
1
1
1
1
1
1
1
1
1
1
1
1
1
1
1
1
1
1
1
1
1
1
1
1
1
1
1
1
1
1
1
1
1
1
1
1
1
1
1
1
1
1
1
1
1
1
1
1
1
1
1
1
1
1
1
1
1
1
1
1
1
1
1
1
1
1
1
1
1
1
1
1
1
1
1
1
1
1
1
1
1
1
1
1
1
1
1
1
1
1
1
1
1
1
1
1
1
1
1
1
1
1
1
1
1
1
1
1
1
1
1
1
1
1
1
1
1
1
1
1
1
1
1
1
1
1
1
1
1
1
1
1
1
1
1
1
1
1
1
1
1
1
1
1
1
1
1
1
1
1
1
1
1
1
1
1
1
1
1
1
1
1
1
1
1
1
1
1
1
1
1
1
1
1
1
1
1
1
1
1
1
1
1
1
1
1
1
1
1
1
1
1
1
1
1
1
1
1
1
1
1
1
1
1
1
1
1
1
1
1
1
1
1
1
1
1
1
1
1
1
1
1
1
1
1
1
1
1
1
1
1
1
1
1

SCALARS radius float 1
LOOKUP_TABLE default
5e-05
5e-05
5e-05
5e-05
5e-05
5e-05
5e-05
5e-05
5e-05
5e-05
5e-05
5e-05
5e-05
5e-05
5e-05
5e-05
5e-05
5e-05
5e-05
5e-05
5e-05
5e-05
5e-05
5e-05
5e-05
5e-05
5e-05
5e-05
5e-05
5e-05
5e-05
5e-05
5e-05
5e-05
5e-05
5e-05
5e-05
5e-05
5e-05
5e-05
5e-05
5e-05
5e-05
5e-05
5e-05
5e-05
5e-05
5e-05
5e-05
5e-05
5e-05
5e-05
5e-05
5e-05
5e-05
5e-05
5e-05
5e-05
5e-05
5e-05
5e-05
5e-05
5e-05
5e-05
5e-05
5e-05
5e-05
5e-05
5e-05
5e-05
5e-05
5e-05
5e-05
5e-05
5e-05
5e-05
5e-05
5e-05
5e-05
5e-05
5e-05
5e-05
5e-05
5e-05
5e-05
5e-05
5e-05
5e-05
5e-05
5e-05
5e-05
5e-05
5e-05
5e-05
5e-05
5e-05
5e-05
5e-05
5e-05
5e-05
5e-05
5e-05
5e-05
5e-05
5e-05
5e-05
5e-05
5e-05
5e-05
5e-05
5e-05
5e-05
5e-05
5e-05
5e-05
5e-05
5e-05
5e-05
5e-05
5e-05
5e-05
5e-05
5e-05
5e-05
5e-05
5e-05
5e-05
5e-05
5e-05
5e-05
5e-05
5e-05
5e-05
5e-05
5e-05
5e-05
5e-05
5e-05
5e-05
5e-05
5e-05
5e-05
5e-05
5e-05
5e-05
5e-05
5e-05
5e-05
5e-05
5e-05
5e-05
5e-05
5e-05
5e-05
5e-05
5e-05
5e-05
5e-05
5e-05
5e-05
5e-05
5e-05
5e-05
5e-05
5e-05
5e-05
5e-05
5e-05
5e-05
5e-05
5e-05
5e-05
5e-05
5e-05
5e-05
5e-05
5e-05
5e-05
5e-05
5e-05
5e-05
5e-05
5e-05
5e-05
5e-05
5e-05
5e-05
5e-05
5e-05
5e-05
5e-05
5e-05
5e-05
5e-05
5e-05
5e-05
5e-05
5e-05
5e-05
5e-05
5e-05
5e-05
5e-05
5e-05
5e-05
5e-05
5e-05
5e-05
5e-05
5e-05
5e-05
5e-05
5e-05
5e-05
5e-05
5e-05
5e-05
5e-05
5e-05
5e-05
5e-05
5e-05
5e-05
5e-05
5e-05
5e-05
5e-05
5e-05
5e-05
5e-05
5e-05
5e-05
5e-05
5e-05
5e-05
5e-05
5e-05
5e-05
5e-05
5e-05
5e-05
5e-05
5e-05
5e-05
5e-05
5e-05
5e-05
5e-05
5e-05
5e-05
5e-05
5e-05
5e-05
5e-05
5e-05
5e-05
5e-05
5e-05
5e-05
5e-05
5e-05
5e-05
5e-05
5e-05
5e-05
5e-05
5e-05
5e-05
5e-05
5e-05
5e-05
5e-05
5e-05
5e-05
5e-05
5e-05
5e-05
5e-05
5e-05
5e-05
5e-05
5e-05
5e-05
5e-05
5e-05
5e-05
5e-05

SCALARS mass float 1
LOOKUP_TABLE default
1.46608e-10
1.46608e-10
1.46608e-10
1.46608e-10
1.46608e-10
1.46608e-10
1.46608e-10
1.46608e-10
1.46608e-10
1.46608e-10
1.46608e-10
1.46608e-10
1.46608e-10
1.46608e-10
1.46608e-10
1.46608e-10
1.46608e-10
1.46608e-10
1.46608e-10
1.46608e-10
1.46608e-10
1.46608e-10
1.46608e-10
1.46608e-10
1.46608e-10
1.46608e-10
1.46608e-10
1.46608e-10
1.46608e-10
1.46608e-10
1.46608e-10
1.46608e-10
1.46608e-10
1.46608e-10
1.46608e-10
1.46608e-10
1.46608e-10
1.46608e-10
1.46608e-10
1.46608e-10
1.46608e-10
1.46608e-10
1.46608e-10
1.46608e-10
1.46608e-10
1.46608e-10
1.46608e-10
1.46608e-10
1.46608e-10
1.46608e-10
1.46608e-10
1.46608e-10
1.46608e-10
1.46608e-10
1.46608e-10
1.46608e-10
1.46608e-10
1.46608e-10
1.46608e-10
1.46608e-10
1.46608e-10
1.46608e-10
1.46608e-10
1.46608e-10
1.46608e-10
1.46608e-10
1.46608e-10
1.46608e-10
1.46608e-10
1.46608e-10
1.46608e-10
1.46608e-10
1.46608e-10
1.46608e-10
1.46608e-10
1.46608e-10
1.46608e-10
1.46608e-10
1.46608e-10
1.46608e-10
1.46608e-10
1.46608e-10
1.46608e-10
1.46608e-10
1.46608e-10
1.46608e-10
1.46608e-10
1.46608e-10
1.46608e-10
1.46608e-10
1.46608e-10
1.46608e-10
1.46608e-10
1.46608e-10
1.46608e-10
1.46608e-10
1.46608e-10
1.46608e-10
1.46608e-10
1.46608e-10
1.46608e-10
1.46608e-10
1.46608e-10
1.46608e-10
1.46608e-10
1.46608e-10
1.46608e-10
1.46608e-10
1.46608e-10
1.46608e-10
1.46608e-10
1.46608e-10
1.46608e-10
1.46608e-10
1.46608e-10
1.46608e-10
1.46608e-10
1.46608e-10
1.46608e-10
1.46608e-10
1.46608e-10
1.46608e-10
1.46608e-10
1.46608e-10
1.46608e-10
1.46608e-10
1.46608e-10
1.46608e-10
1.46608e-10
1.46608e-10
1.46608e-10
1.46608e-10
1.46608e-10
1.46608e-10
1.46608e-10
1.46608e-10
1.46608e-10
1.46608e-10
1.46608e-10
1.46608e-10
1.46608e-10
1.46608e-10
1.46608e-10
1.46608e-10
1.46608e-10
1.46608e-10
1.46608e-10
1.46608e-10
1.46608e-10
1.46608e-10
1.46608e-10
1.46608e-10
1.46608e-10
1.46608e-10
1.46608e-10
1.46608e-10
1.46608e-10
1.46608e-10
1.46608e-10
1.46608e-10
1.46608e-10
1.46608e-10
1.46608e-10
1.46608e-10
1.46608e-10
1.46608e-10
1.46608e-10
1.46608e-10
1.46608e-10
1.46608e-10
1.46608e-10
1.46608e-10
1.46608e-10
1.46608e-10
1.46608e-10
1.46608e-10
1.46608e-10
1.46608e-10
1.46608e-10
1.46608e-10
1.46608e-10
1.46608e-10
1.46608e-10
1.46608e-10
1.46608e-10
1.46608e-10
1.46608e-10
1.46608e-10
1.46608e-10
1.46608e-10
1.46608e-10
1.46608e-10
1.46608e-10
1.46608e-10
1.46608e-10
1.46608e-10
1.46608e-10
1.46608e-10
1.46608e-10
1.46608e-10
1.46608e-10
1.46608e-10
1.46608e-10
1.46608e-10
1.46608e-10
1.46608e-10
1.46608e-10
1.46608e-10
1.46608e-10
1.46608e-10
1.46608e-10
1.46608e-10
1.46608e-10
1.46608e-10
1.46608e-10
1.46608e-10
1.46608e-10
1.46608e-10
1.46608e-10
1.46608e-10
1.46608e-10
1.46608e-10
1.46608e-10
1.46608e-10
1.46608e-10
1.46608e-10
1.46608e-10
1.46608e-10
1.46608e-10
1.46608e-10
1.46608e-10
1.46608e-10
1.46608e-10
1.46608e-10
1.46608e-10
1.46608e-10
1.46608e-10
1.46608e-10
1.46608e-10
1.46608e-10
1.46608e-10
1.46608e-10
1.46608e-10
1.46608e-10
1.46608e-10
1.46608e-10
1.46608e-10
1.46608e-10
1.46608e-10
1.46608e-10
1.46608e-10
1.46608e-10
1.46608e-10
1.46608e-10
1.46608e-10
1.46608e-10
1.46608e-10
1.46608e-10
1.46608e-10
1.46608e-10
1.46608e-10
1.46608e-10
1.46608e-10
1.46608e-10
1.46608e-10
1.46608e-10
1.46608e-10
1.46608e-10
1.46608e-10
1.46608e-10
1.46608e-10
1.46608e-10
1.46608e-10
1.46608e-10
1.46608e-10
1.46608e-10
1.46608e-10
1.46608e-10
1.46608e-10
1.46608e-10
1.46608e-10
1.46608e-10
1.46608e-10
1.46608e-10
1.46608e-10
1.46608e-10
1.46608e-10

VECTORS velocity float
0.00581629 0.00012544 -0.000363665
0.00611693 8.27026e-06 -0.000330486
0.00544691 0.000717037 -0.000630301
0.00615639 3.01639e-05 -0.000341802
0.00569313 0.000239619 -0.000337931
0.00582135 0.000233684 -0.000139797
0.00606382 7.51069e-05 -0.000355873
0.00561074 0.000315083 -4.75018e-06
0.00617934 0.000201143 -7.05595e-05
0.00602809 7.51329e-05 -0.000354239
0.00618424 5.68139e-05 -0.000354467
0.0056115 -0.000169019 -0.000559571
0.00570008 0.000385421 -3.54212e-05
0.00591134 -0.000612362 -0.000794081
0.00610232 6.14591e-05 -0.000352148
0.00589985 -0.00061789 -0.000806091
0.00602091 7.60992e-05 -0.000354352
0.00623381 0.00017343 -8.06745e-05
0.00563075 0.000470191 0.000133445
0.00572134 0.000147729 -0.000368852
0.0060913 7.59749e-05 -0.000358084
0.00613266 0.000508547 -0.000771852
0.00629394 0.000176479 -7.30488e-05
0.00604985 7.2149e-05 -0.000353489
0.00605418 0.000223351 -0.000143333
0.00613858 0.000507742 -0.000779963
0.00615283 3.28733e-05 -0.000342983
0.00562917 0.000348942 -6.70956e-07
0.0061522 2.95003e-05 -0.000341411
0.00608031 7.52522e-05 -0.000356964
0.00608826 6.47993e-05 -0.000352411
0.00592068 0.000231068 -0.00012686
0.00599884 6.70324e-05 -0.000349322
0.0060721 6.64335e-05 -0.00035231
0.00611548 0.00021874 -7.10163e-05
0.00603679 6.83342e-05 -0.00035147
0.00609806 5.2222e-05 -0.000348511
0.00625648 0.00019436 -7.35751e-05
0.00563153 0.000140444 -0.000369401
0.00610737 7.70305e-05 -0.000358958
0.00611194 2.59426e-05 -0.000337995
0.00595693 0.000215752 -0.000126954
0.00618344 0.000192345 -0.000102383
0.00598387 6.14115e-05 -0.000345767
0.00613514 6.99486e-05 -0.000357525
0.00613864 0.000217858 -0.000128543
0.00615429 3.54328e-05 -0.000344293
0.00615083 4.71827e-05 -0.000348802
0.00578913 0.000524497 -0.000733633
0.00633335 0.000156267 -5.73093e-05
0.00563513 0.000144638 -0.000366561
0.00549338 0.000109996 -0.000632488
0.0060529 6.67279e-05 -0.000352081
0.00598949 0.000214204 -0.000135592
0.00601697 5.48797e-05 -0.000344945
0.0060379 5.78256e-05 -0.000346754
0.00564542 0.000126816 -0.000356159
0.00612875 3.97515e-05 -0.000344659
0.00614857 4.31374e-05 -0.000346981
0.00633344 0.000158877 -6.99259e-05
0.00617529 0.000592496 -0.000527864
0.00574507 0.000874662 -0.000198842
0.00614912 1.52729e-05 -0.000335184
0.006137 1.43617e-05 -0.00033403
0.00602099 7.27025e-05 -0.000351178
0.00621902 0.000201645 -7.18914e-05
0.00576492 -0.000400565 -0.000756222
0.00615904 3.09007e-05 -0.000342421
0.00604416 7.32058e-05 -0.000354018
0.00611808 5.49155e-05 -0.000350192
0.00606452 0.000517503 -0.000766269
0.00593808 0.000405492 0.000563473
0.00564437 0.00090552 -0.000420147
0.006182 0.000526079 -0.000901652
0.00573076 0.000282112 -0.000425082
0.00577703 0.000889888 -0.000329148
0.00611939 0.000484149 -0.00076492
0.0057918 0.000835789 -0.000200387
0.00615017 0.000206633 -7.06962e-05
0.0056816 0.000930525 -0.000304613
0.00615606 3.52197e-05 -0.000343074
0.00601168 6.02505e-05 -0.000346788
0.00553782 -0.0015031 0.000476114
0.00550649 -0.00107766 0.000158537
0.006084 3.28763e-05 -0.000339396
0.00617126 0.000550074 -0.000789363
0.00617057 4.03057e-05 -0.000346972
0.00597607 0.000194132 -6.99317e-05
0.00604594 0.000209654 -0.000427043
0.00618278 3.21727e-05 -0.000345157
0.00620084 3.0372e-05 -0.000344095
0.00579711 0.000941356 -0.00031171
0.00592918 0.000394339 0.000559479
0.0059116 0.000837152 -0.0002801
0.00604449 3.03302e-05 -0.000335861
0.00579812 0.000892069 -0.000137596
4.37101e-15 1.04898e-14 8.29556e-14
9.7161e-23 4.86658e-23 1.23839e-22
0.00610164 0.000524056 -0.000771524
0.00575816 0.000962398 -0.000334379
0.00610769 0.000528824 -0.000773463
0.0057142 0.000943941 -0.000353375
0.00602092 6.90721e-05 -0.00035136
0.00614355 6.0598e-05 -0.00035384
0.00623432 7.33915e-05 -0.000364337
0.00580618 0.000422275 0.000549334
0.0057918 0.000912226 -0.000293056
0.00609603 0.000559187 -0.000779172
0.00612207 0.000511855 -0.000771041
0.00613318 5.17486e-05 -0.000349529
0.00602124 6.96615e-05 -0.000351638
0.00558014 0.000154739 -0.00037518
0.00556841 0.000721414 -0.000318615
0.00606482 5.46205e-05 -0.000347412
0.00562833 0.000296612 -2.09951e-05
0.00554505 0.000298592 6.06606e-06
0.00628173 0.000265647 -0.000446346
0.00566767 0.000913273 -0.000296517
0.00619179 2.68675e-05 -0.000339953
0.00557435 0.000528904 0.000433755
0.00612415 7.48667e-05 -0.000358785
0.00578185 0.000952881 -0.000325453
0.00616554 3.41518e-05 -0.00034434
0.00545975 -0.00154916 0.000353872
0.00611801 0.000507026 -0.000769127
0.0056354 0.000865811 -0.000364695
0.00617045 2.8467e-05 -0.000341097
0.00582789 5.19651e-05 -0.000335512
0.00608291 5.28279e-05 -0.000347988
0.00550264 0.000188697 0.00014149
0.00560876 0.000944276 -0.000309773
0.00570848 0.000445417 0.000540993
0.00597517 8.86083e-05 -0.000357351
0.00611707 0.00031385 -0.000459017
0.00570153 0.000915787 -0.000294154
0.00610801 0.000518525 -0.00077083
0.00575116 0.000961365 -0.000338722
0.00613866 0.000517176 -0.000774067
0.00576533 0.000822165 -0.000193007
0.00560325 0.000938393 -0.000311426
0.0060957 0.000506918 -0.000767271
0.00592259 0.000410124 0.000559353
0.00578756 0.000798916 -0.000169993
0.00610802 0.000533981 -0.000774736
0.00575289 0.000908144 -0.000281762
0.00609368 0.000517242 -0.000769213
0.00605124 0.000514856 -0.00076424
0.00610166 0.000514433 -0.000769306
-3.82445e-14 8.17117e-14 2.95887e-13
0.00609359 0.000526457 -0.000771516
0.00615417 2.94055e-05 -0.00034148
0.00605472 0.000511193 -0.000764061
0.00608442 0.000519649 -0.000768836
0.00601544 0.000524408 -0.000762556
0.00609701 0.000542155 -0.000775283
0.00566846 9.18483e-05 -0.000342939
0.00574453 0.000813699 -0.000189561
0.00610089 0.000532849 -0.000773652
0.00607958 0.000553047 -0.000775984
0.00608718 0.000533293 -0.000772234
0.0057495 6.93804e-05 -0.000340432
0.00609911 0.000540992 -0.000775219
0.00614056 2.12636e-05 -0.00033728
0.00607509 0.000526602 -0.000769419
0.00611773 -0.000171474 0.000311555
0.00610643 0.000511447 -0.000768928
0.00603268 0.000508777 -0.000760946
0.00609951 0.000540081 -0.00077518
0.00607165 0.000545851 -0.000773506
0.00607578 0.000511399 -0.0007661
0.00590002 0.000105495 -0.000362409
0.00609377 0.000535237 -0.000773413
0.00614823 2.7753e-05 -0.000340293
0.00610452 0.000505408 -0.000767308
0.00608567 0.000509428 -0.000766763
0.00603213 5.49647e-05 -0.000345881
0.00590349 0.000341705 0.000314752
0.00607443 3.69476e-05 -0.000340448
0.00611217 -0.000180085 0.000314264
0.00571208 0.000445668 0.000540082
0.0061109 0.000524086 -0.000772626
0.00600879 6.2688e-05 -0.000347894
0.00615419 0.000495838 -0.000774009
0.00608326 0.000545295 -0.000774634
0.00579775 -0.000591712 -0.000829946
0.00610754 -0.000178634 0.000313544
0.00615971 0.000549922 -0.00078129
0.00607411 0.000521624 -0.000768194
0.0061424 0.000511489 -0.000774768
0.00601149 0.000531761 -0.00076382
0.00610868 0.000524176 -0.000772468
0.00611932 2.07637e-05 -0.000335991
0.00615928 0.000515724 -0.000766692
0.00603622 0.000523401 -0.000764552
0.00606202 0.000525359 -0.000767754
0.00567395 0.000912926 -0.000295258
0.00608482 0.000527589 -0.000770654
0.00588483 0.000341092 -0.000700083
0.00606845 6.68172e-05 -0.000358568
0.00621098 0.000165006 -0.000396554
0.00607362 0.000534325 -0.000771031
0.00599639 3.94889e-05 -0.000337285
0.00611598 6.52709e-05 -0.000302806
0.0061206 -0.000164439 0.000309237
0.00604369 0.000509554 -0.000762407
0.00591217 3.32017e-05 -0.000327606
0.00602849 0.000515406 -0.000761894
0.00591375 0.000398158 0.000558327
0.00606543 0.000511998 -0.000765349
0.00613203 -0.000166973 0.000310261
0.00599237 2.35749e-05 -0.000330451
0.00610868 0.000521317 -0.000771961
0.00611014 0.000487524 -0.000763416
0.00634648 0.000359448 -0.000490393
0.00610663 0.000537643 -0.000775134
0.0061134 -0.000168943 0.000310499
0.00611611 -0.000173445 0.000312174
0.00612082 0.000484905 -0.000769786
0.00599618 0.000534812 -0.000762851
0.00612103 -0.000169073 0.000310803
0.00572369 0.000845818 -0.000220764
0.00616722 0.000522571 -0.000772741
0.00593439 0.000426456 0.000561919
0.00597438 0.000542236 -0.000762247
0.00598531 0.000538433 -0.000762548
0.00598229 0.000551084 -0.000765155
0.00560933 -6.59561e-05 0.000338499
0.00595043 -0.000147764 0.000289594
0.00557704 -8.29229e-05 0.000320336
0.00614299 0.000524469 -0.000776219
0.00618085 0.000540582 -0.000673402
0.005636 -4.36344e-05 0.00036039
0.00612763 -0.000169614 0.000311495
0.00602529 0.000523543 -0.000763404
0.0060277 0.000533262 -0.000765886
0.00610647 -0.000184839 0.000315657
0.00603963 0.000514809 -0.000762955
0.00623768 0.000155447 -0.000398729
0.00563072 -9.7861e-05 0.000267181
0.00610985 -0.000179228 0.000313855
0.00612912 -0.00017141 0.000311837
0.00519183 -0.000424013 -0.00107266
0.00604821 0.000522368 -0.000765592
0.00600132 0.000511323 -0.00075804
0.00601813 0.000516473 -0.000761056
0.00566374 -0.000105415 0.000270245
0.00615256 0.000521333 -0.00077645
0.00596741 0.000534842 -0.000759854
0.00600048 0.000547731 -0.000766326
0.00612898 -0.000171982 0.000312427
0.00599123 0.000513928 -0.000757722
0.00611126 -0.00017548 0.000312626
0.00610632 0.000531212 -0.000773927
0.00599907 0.000521576 -0.000760152
0.00615696 0.000536158 -0.000771278
0.00601132 0.000509441 -0.00075876
0.00618728 6.97042e-05 -0.000360255
0.00605984 0.000532237 -0.000769064
0.005668 -9.87642e-05 0.000268249
0.00596053 0.000524981 -0.000756744
0.00570612 -0.000103866 0.00027162
0.00600861 0.000518457 -0.000760415
0.00602178 0.000508663 -0.000759703
0.00595078 0.000528043 -0.000756496
0.00603001 0.000527563 -0.000764812
0.00612424 -0.000168877 0.000310978
0.00610787 -0.000180997 0.000314405
0.00616381 0.00053977 -0.00078122
0.00611806 -0.000180055 0.000314495
0.00562898 -0.000108854 0.000213649
0.00597778 0.000530272 -0.000759874
0.00598809 0.000525151 -0.000759598
0.00598073 0.000517523 -0.000757617
0.0060066 0.000526512 -0.000762079
0.00597106 0.000521336 -0.000757073
0.00615737 0.000513434 -0.000774509
0.00613205 0.000521541 -0.000774546
0.00602132 0.000528443 -0.000764123
0.00561413 0.000861621 -0.000248285
0.00604473 0.000533458 -0.000767766
0.00594252 0.000532371 -0.000756638
0.00610538 -0.000186301 0.000316123
0.00594789 0.000525538 -0.00075559
0.00598561 4.03787e-05 -0.000337022
0.00613421 -0.000175559 0.000314965
0.00609999 -0.000188846 0.000316696
0.006107 6.21461e-05 -0.000351049

VECTORS force float
2.89881e-10 1.64173e-11 -8.05791e-12
-6.85668e-12 1.25842e-10 -7.23308e-11
2.99292e-10 -3.60523e-10 -1.02443e-10
5.69168e-11 -6.68309e-11 4.82829e-11
-7.2894e-11 6.54245e-11 -3.47297e-10
-3.02498e-10 -7.96323e-11 -3.56824e-11
-5.76388e-11 -1.2947e-11 1.32633e-11
-1.90304e-10 3.93997e-11 -2.69604e-10
4.36519e-11 5.28072e-11 1.15672e-11
-3.86132e-12 2.72418e-11 -2.33847e-12
7.93908e-11 -8.22292e-11 3.09192e-11
-3.005e-12 -1.51696e-11 3.7724e-12
3.03621e-11 1.78994e-10 -1.89124e-10
7.372e-11 2.42039e-11 2.50622e-10
-7.96039e-11 5.31771e-11 -2.39738e-11
-2.88308e-10 -6.81801e-11 2.95607e-10
6.77381e-12 8.20356e-11 -3.83386e-11
-3.69643e-10 -8.08155e-11 1.3247e-10
-4.45652e-10 -1.82571e-10 -1.41433e-10
-5.96934e-11 -7.70631e-11 -3.40025e-10
-3.8711e-11 -5.72141e-11 2.22334e-11
5.44179e-11 4.18493e-11 -3.09907e-11
-7.94406e-12 -1.02202e-10 -7.56362e-12
3.84382e-11 -4.71277e-12 3.74447e-12
-5.15205e-10 -2.12465e-10 1.00765e-10
1.53446e-11 5.10805e-11 -9.88395e-11
4.55307e-11 -2.27092e-11 2.18452e-12
-3.23349e-10 -3.0114e-10 8.05503e-11
6.96894e-11 2.35783e-11 -1.28123e-11
7.38063e-12 -8.33331e-12 -6.81988e-12
-7.35293e-11 4.80257e-11 -1.52336e-11
7.86019e-11 3.00529e-10 -5.82531e-11
-5.27603e-11 1.76219e-11 -4.52901e-12
-8.50676e-11 1.76878e-11 -6.54397e-12
5.78243e-13 -4.06771e-11 -3.44819e-12
-1.2789e-11 5.21345e-11 -7.63614e-12
-1.21919e-10 6.35221e-11 -1.6432e-11
-1.66787e-10 -8.16988e-11 4.0405e-11
-2.09344e-10 3.10925e-10 -8.68909e-11
-7.55259e-11 1.52404e-11 -9.79974e-13
-2.63301e-11 1.05567e-10 -1.63814e-11
5.53608e-10 7.07623e-11 -6.83098e-12
3.41099e-10 1.36216e-10 6.34232e-11
2.74069e-11 3.25313e-11 -1.17552e-11
1.0107e-11 2.7531e-11 -9.16635e-12
4.81816e-10 -2.02082e-10 8.01746e-12
1.51394e-11 -5.15549e-11 1.99872e-11
1.21451e-10 5.27124e-11 -2.65037e-11
7.96831e-11 -1.32437e-10 -1.28383e-11
2.69234e-10 -1.9344e-10 2.75111e-10
-1.36069e-10 8.82528e-11 2.5646e-11
6.8361e-12 1.32479e-10 2.01255e-10
-3.5851e-11 4.27162e-11 -1.89661e-11
1.05578e-10 -2.4423e-10 1.29379e-10
-7.22065e-11 4.31333e-11 -1.40421e-11
-5.64738e-11 8.78062e-11 -2.48519e-11
-1.35192e-10 1.3516e-10 -8.77747e-12
-2.29468e-11 3.44546e-11 -2.40898e-12
4.53399e-11 4.52467e-11 -2.06666e-11