# vtk DataFile Version 3.0
LIGGGHTS particles timestep 35000000
ASCII
DATASET POLYDATA
POINTS 275 float
0.217372 0.018351 0.00696993
0.217015 0.0171636 0.00739863
0.217179 0.0170707 0.00746369
0.216533 0.0154379 0.0088398
0.222967 0.0169638 0.00754077
0.217322 0.0177096 0.00707781
0.217015 0.0168103 0.00769043
0.223154 0.0177802 0.0070496
0.216662 0.0158889 0.00846608
0.217172 0.0177899 0.00712664
0.211224 0.0168778 0.00740396
0.216511 0.0153627 0.0089021
0.211191 0.0175669 0.00719417
0.211483 0.0179929 0.00705431
0.21664 0.0158138 0.00852832
0.21649 0.0152874 0.0089644
0.217358 0.0179002 0.00703319
0.216973 0.0166599 0.00781775
0.211449 0.017805 0.00711293
0.223079 0.0174145 0.00716095
0.216705 0.0160395 0.0083414
0.223116 0.0175862 0.00707904
0.211035 0.0168182 0.00742853
0.217091 0.0171105 0.00743704
0.216468 0.0152122 0.0090267
0.216791 0.0163403 0.0080922
0.217404 0.0176411 0.00707156
0.216726 0.0161147 0.00827912
0.222986 0.0170389 0.00747743
0.216619 0.0157387 0.00859059
0.217312 0.0175158 0.00709838
0.223215 0.0180707 0.00700543
0.217159 0.0169958 0.00752699
0.217233 0.0172962 0.00727348
0.223096 0.0174898 0.00709742
0.216576 0.0155883 0.00871519
0.217297 0.0171391 0.0073987
0.217355 0.0173639 0.00720884
0.223004 0.0171141 0.0074141
0.216597 0.0156635 0.00865289
0.217228 0.0181285 0.00702898
0.223174 0.0178772 0.00703488
0.216748 0.0161898 0.00821686
0.217415 0.0177395 0.00705806
0.211283 0.0171586 0.00731613
0.223041 0.0172644 0.00728742
0.217555 0.0179636 0.00703162
0.211208 0.0172224 0.00729906
0.21753 0.0178676 0.00704426
0.223023 0.0171892 0.00735076
0.378022 0.019866 0.005332
0.217359 0.0174408 0.00714503
0.216554 0.0155131 0.00877749
0.217252 0.0173711 0.0072102
0.217248 0.0182158 0.00698439
0.223059 0.0173395 0.00722408
0.211248 0.0174094 0.00724054
0.211237 0.0176997 0.00725467
0.217376 0.0179977 0.00702004
0.217145 0.0173361 0.00724685
0.217452 0.0179343 0.00703192
0.223135 0.0176832 0.00706432
0.211577 0.0180247 0.00704153
0.217426 0.0181896 0.00699478
0.216684 0.0159642 0.00840375
0.216769 0.0162651 0.0081545
0.211149 0.0169416 0.00738689
0.217033 0.0172387 0.00733525
0.210473 0.0153262 0.00910399
0.211528 0.0182894 0.00696214
0.21711 0.0171858 0.00737398
0.211271 0.0177742 0.00719732
0.211244 0.0169714 0.00737468
0.223193 0.0179742 0.00702016
0.211704 0.0182646 0.006964
0.217333 0.0172896 0.00727184
0.217071 0.0170356 0.00750034
0.217224 0.0176735 0.00706022
0.217184 0.017514 0.00717283
0.217404 0.0180929 0.00700766
0.211205 0.0167842 0.00743324
0.217145 0.0177335 0.00704875
0.216855 0.0165654 0.00790474
0.217237 0.0178708 0.00713133
0.217092 0.0174752 0.00715645
0.217126 0.0176358 0.00706184
0.21058 0.0156309 0.00872674
0.216835 0.0164903 0.0079677
0.211305 0.0180211 0.00706539
0.217339 0.0178029 0.00704622
0.211324 0.01811 0.00702369
0.0643568 0.0187248 0.00531097
0.24257 0.0191927 0.00520306
0.211502 0.018089 0.00702433
0.210537 0.0155085 0.00887883
0.211214 0.0176601 0.00716584
0.210494 0.0153878 0.00902828
0.21748 0.0180295 0.0070195
0.217461 0.017464 0.0071186
0.216995 0.0170887 0.0074619
0.216959 0.0169413 0.00759205
0.210625 0.0157532 0.00857492
0.211097 0.0175371 0.00720638
0.211165 0.0178448 0.00711001
0.217315 0.0172143 0.0073353
0.2173 0.0180622 0.00700809
0.217302 0.0176117 0.00707189
0.211323 0.0173456 0.0072576
0.217502 0.0181263 0.00700663
0.216996 0.016735 0.00775413
0.217397 0.0184529 0.00695824
0.217107 0.0175397 0.00708134
0.211598 0.018118 0.00701231
0.216877 0.0166398 0.00784165
0.217212 0.0175917 0.00711633
0.210559 0.0155697 0.00880279
0.216814 0.0164152 0.00803007
0.217145 0.0176943 0.00714074
0.211263 0.0178264 0.00711244
0.211285 0.0179221 0.00708244
0.217197 0.0171457 0.00740034
0.217328 0.0181573 0.0069957
0.217281 0.0179639 0.00702125
0.217435 0.0178368 0.00704504
0.211188 0.0171288 0.00732833
0.217118 0.0176 0.00716031
0.217184 0.0179292 0.00702253
0.217051 0.017314 0.0072718
0.21104 0.0164641 0.00769843
0.211434 0.0177105 0.00714233
0.210518 0.0154615 0.00896502
0.211364 0.0175323 0.00719913
0.210668 0.0158757 0.00842274
0.211308 0.0176928 0.00715188
0.211059 0.0165269 0.00762164
0.216921 0.0167885 0.00771521
0.21155 0.0183872 0.0069315
0.211386 0.0184256 0.00692506
0.211076 0.0165895 0.00754522
0.210646 0.0158145 0.00849863
0.210752 0.016114 0.00812645
0.211023 0.0164017 0.00777459
0.0219312 0.0187687 0.00551176
0.21111 0.0167543 0.00744553
0.217216 0.0172209 0.00733694
0.211269 0.0183028 0.00696648
0.211208 0.0180355 0.00708491
0.210812 0.016298 0.00789731
0.211454 0.0183551 0.00694443
0.217207 0.018031 0.00702506
0.211512 0.0185591 0.00688013
0.211628 0.018327 0.00694738
0.211491 0.0184651 0.00690959
0.211438 0.0186247 0.00686245
0.217447 0.0182864 0.00698191
0.211077 0.0174435 0.00723566
0.217293 0.018024 0.00710025
0.210848 0.0164209 0.00774372
0.211132 0.0172862 0.00728199
0.210732 0.016063 0.00821007
0.211135 0.0177183 0.00722155
0.21129 0.018396 0.00693726
0.217469 0.0183841 0.00696889
0.21118 0.0177502 0.00713844
0.217197 0.0179781 0.00710937
0.211383 0.017629 0.00716896
0.211672 0.018053 0.00702977
0.21735 0.018254 0.00698283
0.217257 0.017448 0.00714638
0.217313 0.0185061 0.00694577
0.205274 0.0183265 0.00699997
0.21694 0.0168635 0.00765191
0.211116 0.0176307 0.00717711
0.217524 0.018223 0.00699375
0.211307 0.0178918 0.00717514
0.21142 0.0181447 0.00700994
0.211381 0.0179565 0.00706879
0.204951 0.0168776 0.00750061
0.211263 0.017065 0.0073454
0.211159 0.01782 0.00720672
0.210602 0.0156921 0.0086507
0.211443 0.0182393 0.00698024
0.21113 0.016848 0.00741617
0.217261 0.0178667 0.00703427
0.211462 0.0178997 0.00708354
0.21098 0.0165726 0.00758051
0.211016 0.016724 0.00745583
0.21091 0.0163189 0.00788101
0.211302 0.0172522 0.00728685
0.211227 0.017316 0.00726979
0.217034 0.0168854 0.00762709
0.217053 0.0169605 0.00756373
0.211525 0.0181831 0.00699478
0.217291 0.0184093 0.00695864
0.217128 0.0172607 0.00731031
0.205168 0.0178392 0.00703323
0.21089 0.0162575 0.00795757
0.217545 0.01832 0.00698082
0.211186 0.017938 0.00708078
0.216899 0.0167142 0.00777848
0.211228 0.018126 0.00704755
0.217408 0.0175422 0.00708571
0.211054 0.016912 0.00739983
0.216977 0.0170136 0.00752526
0.211163 0.0176316 0.00726518
0.205187 0.0179369 0.00702627
0.205128 0.0176512 0.00707803
0.211609 0.0182332 0.00697668
0.21096 0.0168807 0.0074079
0.211249 0.018219 0.00701756
0.211353 0.0186758 0.00684958
0.217166 0.0174178 0.00719299
0.210921 0.0166922 0.0074623
0.211018 0.0171627 0.0073235
0.211038 0.0172563 0.00729422
0.204855 0.0164778 0.00778324
0.204912 0.0167089 0.00760078
0.204835 0.0164009 0.00784401
0.210716 0.0159321 0.00835553
0.211363 0.0178625 0.00709812
0.204874 0.0165548 0.00772247
0.205049 0.0173026 0.00725594
0.210866 0.0164824 0.00766686
0.211172 0.0174733 0.00722345
0.20499 0.0170476 0.00740274
0.210944 0.0164419 0.00772722
0.217245 0.0177714 0.00705957
0.205068 0.0173876 0.00720702
0.205253 0.0182291 0.00700654
0.20501 0.0171326 0.00735381
0.210451 0.0152644 0.00917955
0.211557 0.017928 0.00707178
0.211091 0.0166606 0.00747483
0.211152 0.0173797 0.00725272
0.205088 0.0174726 0.00715808
0.211409 0.0185202 0.00689541
0.211113 0.0171926 0.00731127
0.211057 0.0173499 0.00726493
0.204971 0.0169625 0.00745169
0.210773 0.0161753 0.00805037
0.205296 0.0184239 0.00699339
0.211346 0.0182092 0.00699262
0.210962 0.0165034 0.00765037
0.211344 0.0174389 0.00722838
0.21136 0.0177777 0.00715094
0.21707 0.0173915 0.00720637
0.211311 0.0184893 0.00690803
0.205146 0.0177416 0.00703958
0.210998 0.0166428 0.00751162
0.205108 0.0175604 0.00711466
0.21083 0.0163595 0.00782055
0.210927 0.0163804 0.00780415
0.210884 0.0165448 0.00758892
0.211269 0.0175027 0.0072113
0.205278 0.0178949 0.00703361
0.205209 0.0180343 0.0070197
0.211369 0.0183037 0.00696296
0.204894 0.0166318 0.00766165
0.210979 0.016975 0.00738069
0.211074 0.0170054 0.00737003
0.210794 0.0162367 0.00797422
0.21094 0.0167865 0.00743516
0.211403 0.0180506 0.00703928
0.21073 0.0160107 0.00829529
0.211168 0.0170352 0.00735761
0.211289 0.0175961 0.00718206
0.211332 0.0185826 0.00687881
0.211093 0.017099 0.00734054
0.210999 0.017069 0.00735278
0.205231 0.0181317 0.00701312
0.210902 0.0166092 0.00751459
0.21727 0.0183126 0.00697152
0.204932 0.0167926 0.00754963
0.205029 0.0172176 0.00730487
0.217164 0.0178307 0.00703571

VERTICES 275 550
1 0
1 1
1 2
1 3
1 4
1 5
1 6
1 7
1 8
1 9
1 10
1 11
1 12
1 13
1 14
1 15
1 16
1 17
1 18
1 19
1 20
1 21
1 22
1 23
1 24
1 25
1 26
1 27
1 28
1 29
1 30
1 31
1 32
1 33
1 34
1 35
1 36
1 37
1 38
1 39
1 40
1 41
1 42
1 43
1 44
1 45
1 46
1 47
1 48
1 49
1 50
1 51
1 52
1 53
1 54
1 55
1 56
1 57
1 58
1 59
1 60
1 61
1 62
1 63
1 64
1 65
1 66
1 67
1 68
1 69
1 70
1 71
1 72
1 73
1 74
1 75
1 76
1 77
1 78
1 79
1 80
1 81
1 82
1 83
1 84
1 85
1 86
1 87
1 88
1 89
1 90
1 91
1 92
1 93
1 94
1 95
1 96
1 97
1 98
1 99
1 100
1 101
1 102
1 103
1 104
1 105
1 106
1 107
1 108
1 109
1 110
1 111
1 112
1 113
1 114
1 115
1 116
1 117
1 118
1 119
1 120
1 121
1 122
1 123
1 124
1 125
1 126
1 127
1 128
1 129
1 130
1 131
1 132
1 133
1 134
1 135
1 136
1 137
1 138
1 139
1 140
1 141
1 142
1 143
1 144
1 145
1 146
1 147
1 148
1 149
1 150
1 151
1 152
1 153
1 154
1 155
1 156
1 157
1 158
1 159
1 160
1 161
1 162
1 163
1 164
1 165
1 166
1 167
1 168
1 169
1 170
1 171
1 172
1 173
1 174
1 175
1 176
1 177
1 178
1 179
1 180
1 181
1 182
1 183
1 184
1 185
1 186
1 187
1 188
1 189
1 190
1 191
1 192
1 193
1 194
1 195
1 196
1 197
1 198
1 199
1 200
1 201
1 202
1 203
1 204
1 205
1 206
1 207
1 208
1 209
1 210
1 211
1 212
1 213
1 214
1 215
1 216
1 217
1 218
1 219
1 220
1 221
1 222
1 223
1 224
1 225
1 226
1 227
1 228
1 229
1 230
1 231
1 232
1 233
1 234
1 235
1 236
1 237
1 238
1 239
1 240
1 241
1 242
1 243
1 244
1 245
1 246
1 247
1 248
1 249
1 250
1 251
1 252
1 253
1 254
1 255
1 256
1 257
1 258
1 259
1 260
1 261
1 262
1 263
1 264
1 265
1 266
1 267
1 268
1 269
1 270
1 271
1 272
1 273
1 274

POINT_DATA 275
SCALARS id int 1
LOOKUP_TABLE default
1
2
4
5
6
7
8
9
10
11
12
13
14
16
17
19
21
22
23
24
25
26
27
28
29
30
31
32
33
34
35
36
37
38
39
41
42
44
45
47
48
49
50
51
52
53
54
55
56
57
59
60
61
62
63
64
65
66
67
68
69
70
71
72
73
74
76
77
78
79
80
82
83
84
85
86
87
88
89
90
91
92
93
94
95
96
97
98
99
100
101
102
103
104
105
106
107
108
109
110
111
112
113
114
115
116
117
118
119
120
121
122
123
124
125
127
128
129
130
131
132
133
134
135
136
137
138
140
141
142
143
144
146
147
148
149
150
151
153
154
155
156
157
158
159
160
162
164
165
166
167
168
169
170
171
172
173
174
176
177
178
179
182
183
184
185
186
187
188
189
190
191
192
193
194
195
196
197
198
199
200
201
202
203
204
205
206
207
208
209
210
211
212
213
214
215
216
217
218
219
220
222
224
225
226
227
228
229
230
232
233
234
235
236
237
239
240
241
242
243
244
246
247
248
249
250
251
252
253
254
255
256
257
258
259
260
261
262
263
264
265
266
267
268
269
270
271
272
273
274
275
276
277
278
279
280
281
283
284
285
286
287
288
289
290
291
292
293
294
295
296
297
298
299
300

SCALARS type int 1
LOOKUP_TABLE default
1
1
1
1
1
1
1
1
1
1
1
1
1
1
1
1
1
1
1
1
1
1
1
1
1
1
1
1
1
1
1
1
1
1
1
1
1
1
1
1
1
1
1
1
1
1
1
1
1
1
1
1
1
1
1
1
1
1
1
1
1
1
1
1
1
1
1
1
1
1
1
1
1
1
1
1
1
1
1
1
1
1
1
1
1
1
1
1
1
1
1
1
1
1
1
1
1
1
1
1
1
1
1
1
1
1
1
1
1
1
1
1
1
1
1
1
1
1
1
1
1
1
1
1
1
1
1
1
1
1
1
1
1
1
1
1
1
1
1
1
1
1
1
1
1
1
1
1
1
1
1
1
1
1
1
1
1
1
1
1
1
1
1
1
1
1
1
1
1
1
1
1
1
1
1
1
1
1
1
1
1
1
1
1
1
1
1
1
1
1
1
1
1
1
1
1
1
1
1
1
1
1
1
1
1
1
1
1
1
1
1
1
1
1
1
1
1
1
1
1
1
1
1
1
1
1
1
1
1
1
1
1
1
1
1
1
1
1
1
1
1
1
1
1
1
1
1
1
1
1
1
1
1
1
1
1
1
1
1
1
1
1
1
1
1
1
1
1
1
1
1
1
1
1
1

SCALARS radius float 1
LOOKUP_TABLE default
5e-05
5e-05
5e-05
5e-05
5e-05
5e-05
5e-05
5e-05
5e-05
5e-05
5e-05
5e-05
5e-05
5e-05
5e-05
5e-05
5e-05
5e-05
5e-05
5e-05
5e-05
5e-05
5e-05
5e-05
5e-05
5e-05
5e-05
5e-05
5e-05
5e-05
5e-05
5e-05
5e-05
5e-05
5e-05
5e-05
5e-05
5e-05
5e-05
5e-05
5e-05
5e-05
5e-05
5e-05
5e-05
5e-05
5e-05
5e-05
5e-05
5e-05
5e-05
5e-05
5e-05
5e-05
5e-05
5e-05
5e-05
5e-05
5e-05
5e-05
5e-05
5e-05
5e-05
5e-05
5e-05
5e-05
5e-05
5e-05
5e-05
5e-05
5e-05
5e-05
5e-05
5e-05
5e-05
5e-05
5e-05
5e-05
5e-05
5e-05
5e-05
5e-05
5e-05
5e-05
5e-05
5e-05
5e-05
5e-05
5e-05
5e-05
5e-05
5e-05
5e-05
5e-05
5e-05
5e-05
5e-05
5e-05
5e-05
5e-05
5e-05
5e-05
5e-05
5e-05
5e-05
5e-05
5e-05
5e-05
5e-05
5e-05
5e-05
5e-05
5e-05
5e-05
5e-05
5e-05
5e-05
5e-05
5e-05
5e-05
5e-05
5e-05
5e-05
5e-05
5e-05
5e-05
5e-05
5e-05
5e-05
5e-05
5e-05
5e-05
5e-05
5e-05
5e-05
5e-05
5e-05
5e-05
5e-05
5e-05
5e-05
5e-05
5e-05
5e-05
5e-05
5e-05
5e-05
5e-05
5e-05
5e-05
5e-05
5e-05
5e-05
5e-05
5e-05
5e-05
5e-05
5e-05
5e-05
5e-05
5e-05
5e-05
5e-05
5e-05
5e-05
5e-05
5e-05
5e-05
5e-05
5e-05
5e-05
5e-05
5e-05
5e-05
5e-05
5e-05
5e-05
5e-05
5e-05
5e-05
5e-05
5e-05
5e-05
5e-05
5e-05
5e-05
5e-05
5e-05
5e-05
5e-05
5e-05
5e-05
5e-05
5e-05
5e-05
5e-05
5e-05
5e-05
5e-05
5e-05
5e-05
5e-05
5e-05
5e-05
5e-05
5e-05
5e-05
5e-05
5e-05
5e-05
5e-05
5e-05
5e-05
5e-05
5e-05
5e-05
5e-05
5e-05
5e-05
5e-05
5e-05
5e-05
5e-05
5e-05
5e-05
5e-05
5e-05
5e-05
5e-05
5e-05
5e-05
5e-05
5e-05
5e-05
5e-05
5e-05
5e-05
5e-05
5e-05
5e-05
5e-05
5e-05
5e-05
5e-05
5e-05
5e-05
5e-05
5e-05
5e-05
5e-05
5e-05
5e-05
5e-05
5e-05
5e-05
5e-05
5e-05
5e-05
5e-05
5e-05
5e-05
5e-05
5e-05
5e-05
5e-05
5e-05
5e-05
5e-05
5e-05
5e-05
5e-05
5e-05
5e-05
5e-05
5e-05

SCALARS mass float 1
LOOKUP_TABLE default
1.46608e-10
1.46608e-10
1.46608e-10
1.46608e-10
1.46608e-10
1.46608e-10
1.46608e-10
1.46608e-10
1.46608e-10
1.46608e-10
1.46608e-10
1.46608e-10
1.46608e-10
1.46608e-10
1.46608e-10
1.46608e-10
1.46608e-10
1.46608e-10
1.46608e-10
1.46608e-10
1.46608e-10
1.46608e-10
1.46608e-10
1.46608e-10
1.46608e-10
1.46608e-10
1.46608e-10
1.46608e-10
1.46608e-10
1.46608e-10
1.46608e-10
1.46608e-10
1.46608e-10
1.46608e-10
1.46608e-10
1.46608e-10
1.46608e-10
1.46608e-10
1.46608e-10
1.46608e-10
1.46608e-10
1.46608e-10
1.46608e-10
1.46608e-10
1.46608e-10
1.46608e-10
1.46608e-10
1.46608e-10
1.46608e-10
1.46608e-10
1.46608e-10
1.46608e-10
1.46608e-10
1.46608e-10
1.46608e-10
1.46608e-10
1.46608e-10
1.46608e-10
1.46608e-10
1.46608e-10
1.46608e-10
1.46608e-10
1.46608e-10
1.46608e-10
1.46608e-10
1.46608e-10
1.46608e-10
1.46608e-10
1.46608e-10
1.46608e-10
1.46608e-10
1.46608e-10
1.46608e-10
1.46608e-10
1.46608e-10
1.46608e-10
1.46608e-10
1.46608e-10
1.46608e-10
1.46608e-10
1.46608e-10
1.46608e-10
1.46608e-10
1.46608e-10
1.46608e-10
1.46608e-10
1.46608e-10
1.46608e-10
1.46608e-10
1.46608e-10
1.46608e-10
1.46608e-10
1.46608e-10
1.46608e-10
1.46608e-10
1.46608e-10
1.46608e-10
1.46608e-10
1.46608e-10
1.46608e-10
1.46608e-10
1.46608e-10
1.46608e-10
1.46608e-10
1.46608e-10
1.46608e-10
1.46608e-10
1.46608e-10
1.46608e-10
1.46608e-10
1.46608e-10
1.46608e-10
1.46608e-10
1.46608e-10
1.46608e-10
1.46608e-10
1.46608e-10
1.46608e-10
1.46608e-10
1.46608e-10
1.46608e-10
1.46608e-10
1.46608e-10
1.46608e-10
1.46608e-10
1.46608e-10
1.46608e-10
1.46608e-10
1.46608e-10
1.46608e-10
1.46608e-10
1.46608e-10
1.46608e-10
1.46608e-10
1.46608e-10
1.46608e-10
1.46608e-10
1.46608e-10
1.46608e-10
1.46608e-10
1.46608e-10
1.46608e-10
1.46608e-10
1.46608e-10
1.46608e-10
1.46608e-10
1.46608e-10
1.46608e-10
1.46608e-10
1.46608e-10
1.46608e-10
1.46608e-10
1.46608e-10
1.46608e-10
1.46608e-10
1.46608e-10
1.46608e-10
1.46608e-10
1.46608e-10
1.46608e-10
1.46608e-10
1.46608e-10
1.46608e-10
1.46608e-10
1.46608e-10
1.46608e-10
1.46608e-10
1.46608e-10
1.46608e-10
1.46608e-10
1.46608e-10
1.46608e-10
1.46608e-10
1.46608e-10
1.46608e-10
1.46608e-10
1.46608e-10
1.46608e-10
1.46608e-10
1.46608e-10
1.46608e-10
1.46608e-10
1.46608e-10
1.46608e-10
1.46608e-10
1.46608e-10
1.46608e-10
1.46608e-10
1.46608e-10
1.46608e-10
1.46608e-10
1.46608e-10
1.46608e-10
1.46608e-10
1.46608e-10
1.46608e-10
1.46608e-10
1.46608e-10
1.46608e-10
1.46608e-10
1.46608e-10
1.46608e-10
1.46608e-10
1.46608e-10
1.46608e-10
1.46608e-10
1.46608e-10
1.46608e-10
1.46608e-10
1.46608e-10
1.46608e-10
1.46608e-10
1.46608e-10
1.46608e-10
1.46608e-10
1.46608e-10
1.46608e-10
1.46608e-10
1.46608e-10
1.46608e-10
1.46608e-10
1.46608e-10
1.46608e-10
1.46608e-10
1.46608e-10
1.46608e-10
1.46608e-10
1.46608e-10
1.46608e-10
1.46608e-10
1.46608e-10
1.46608e-10
1.46608e-10
1.46608e-10
1.46608e-10
1.46608e-10
1.46608e-10
1.46608e-10
1.46608e-10
1.46608e-10
1.46608e-10
1.46608e-10
1.46608e-10
1.46608e-10
1.46608e-10
1.46608e-10
1.46608e-10
1.46608e-10
1.46608e-10
1.46608e-10
1.46608e-10
1.46608e-10
1.46608e-10
1.46608e-10
1.46608e-10
1.46608e-10
1.46608e-10
1.46608e-10
1.46608e-10
1.46608e-10
1.46608e-10
1.46608e-10
1.46608e-10
1.46608e-10
1.46608e-10
1.46608e-10
1.46608e-10
1.46608e-10
1.46608e-10
1.46608e-10
1.46608e-10
1.46608e-10
1.46608e-10
1.46608e-10
1.46608e-10

VECTORS velocity float
0.00622487 0.000163523 0.000211182
0.00548983 4.25e-05 -0.000427261
0.00530928 2.94407e-05 -0.000402431
0.00607726 -0.000173861 -0.000200153
0.00561492 0.0010404 -0.00045517
0.00576283 0.000192954 0.000192321
0.00623949 -3.3353e-05 -0.000417998
0.00585474 0.000937921 -0.000363135
0.00596392 -0.000118824 -0.000238472
0.00573026 0.000420556 0.000153261
0.00568889 0.000386362 -0.00031214
0.0060941 -0.000186203 -0.000191081
0.00564859 0.000369534 -0.000296892
0.00618234 0.000255063 -0.000279309
0.00598556 -0.000132644 -0.000228456
0.00611063 -0.000198976 -0.00018167
0.00605301 0.000149769 0.000208734
0.00660476 -0.000225744 -0.000290071
0.0061516 0.000263113 -0.000280688
0.00588987 0.00093995 -0.000348865
0.00594128 -8.97774e-05 -0.000261284
0.00587558 0.000927008 -0.000354184
0.00568318 0.000479684 -6.1347e-05
0.00520617 0.000111297 -0.000461273
0.00612746 -0.000209887 -0.000173611
0.00586539 -3.85186e-05 -0.000302041
0.00571355 9.63496e-05 0.000201613
0.0059356 -7.54764e-05 -0.000272399
0.00566815 0.000970378 -0.000391019
0.00600706 -0.000142726 -0.000221413
0.0055089 0.000157541 -5.90046e-05
0.00633907 0.000830456 -0.000364566
0.00529875 2.92589e-05 -0.000403076
0.00558187 -2.55206e-05 -0.000375118
0.00590012 0.000925305 -0.000340768
0.00604297 -0.000155906 -0.000212892
0.00538683 -1.73055e-05 -0.000370519
0.00557176 -4.29351e-05 -0.000357446
0.00571442 0.000967047 -0.000382963
0.00602459 -0.000149697 -0.000216758
0.00616156 0.000196235 0.000225417
0.00590711 0.000923878 -0.000360558
0.00591922 -6.11011e-05 -0.000283215
0.00584876 7.91706e-05 0.000210912
0.00572378 0.000381484 -0.000301975
0.00578028 0.000954982 -0.000372982
0.00610798 -5.14243e-05 0.000238222
0.00569373 0.000395804 -0.000310193
0.00602235 -4.26459e-05 0.000232839
0.00576207 0.000961334 -0.000375561
-5.01975e-15 -7.41206e-15 7.69802e-14
0.00546838 -4.64762e-05 -0.00036076
0.00606022 -0.000163574 -0.000207544
0.00550112 -1.58964e-05 -0.00039027
0.00623697 0.000188087 0.000210091
0.0058307 0.000952533 -0.000364231
0.00579535 0.000376932 -0.000305289
0.00610986 0.000312336 -0.00028608
0.00612449 0.000134723 0.000211229
0.00561579 3.66868e-05 -0.000427568
0.00609111 4.46062e-05 0.00022388
0.00585455 0.000932935 -0.000362003
0.00619083 0.000236755 -0.00027375
0.00621206 0.000113513 0.000217551
0.00595047 -0.000104148 -0.00024962
0.00589698 -4.92253e-05 -0.000293737
0.00570011 0.000395296 -0.000304588
0.00558758 1.98293e-05 -0.00041566
0.00607919 -0.000244909 -0.00100561
0.00630093 0.000230242 -0.000275322
0.00535192 8.53448e-05 -0.000447043
0.00611188 0.000304955 -0.000290158
0.00570899 0.000377764 -0.000298731
0.00632536 0.000835678 -0.000364666
0.00630111 0.000185869 -0.000260944
0.00559558 -4.78719e-05 -0.000358138
0.00533714 9.09716e-05 -0.000456231
0.00567005 0.000319595 0.000173189
0.00522468 0.000224369 -0.000105648
0.00619605 0.000100453 0.000219966
0.00571994 0.000393791 -0.000311071
0.00573126 0.000398628 0.000159622
0.00622995 -0.000152502 -0.000371051
0.00610336 0.000385485 0.000184801
0.00573829 0.000235779 -0.000548
0.00575375 0.000370693 0.000168446
0.00608784 0.000586985 -9.87368e-05
0.00591856 -5.64735e-05 -0.000339497
0.00618881 0.000290476 -0.000292866
0.00592826 0.000175193 0.000201057
0.00620285 0.000294831 -0.000291786
4.22676e-15 1.0526e-14 8.29585e-14
-1.01195e-22 2.24983e-22 -5.81428e-22
0.00620444 0.000253006 -0.000279314
0.00608186 0.00062066 -0.000112587
0.00607825 0.00030288 -0.000279209
0.00608076 0.000167195 -0.000611737
0.00616015 2.85809e-05 0.000227438
0.00568571 -4.29195e-05 -0.000372234
0.00535611 7.32157e-05 -0.000442929
0.0058221 -8.51117e-06 -0.000410031
0.0060737 0.0005725 -8.15784e-05
0.00565524 0.000369878 -0.000297397
0.00612238 0.000295064 -0.000288431
0.0055222 -3.26129e-05 -0.000366185
0.00615928 0.000177987 0.000208766
0.00557835 0.000219162 0.000172288
0.00579651 0.000355291 -0.000298265
0.00616018 3.53549e-05 0.000227366
0.00701534 0.000224856 -0.000688698
0.00631729 0.000138416 -0.000393112
0.00578751 0.000203345 -0.000573745
0.00622724 0.000231559 -0.000273461
0.00644611 -0.000194066 -0.000363906
0.00546712 0.00035623 0.000191297
0.00607995 0.000595968 -0.000112539
0.00578365 -1.10406e-05 -0.000315824
0.00575963 0.000396153 0.000159699
0.00612611 0.000303571 -0.000291117
0.00616726 0.000289397 -0.000288959
0.00538456 1.01579e-05 -0.000393121
0.00622593 0.000155345 0.000214788
0.00621699 0.000213873 0.000200826
0.00598336 5.90649e-05 0.000216795
0.00572228 0.000393264 -0.000311616
0.00579505 0.00023087 -0.00060515
0.00621722 0.000295308 0.000191615
0.00562355 1.18882e-05 -0.000410818
0.00674954 0.00073607 -0.00131899
0.00613927 0.000277415 -0.000284609
0.0060529 0.000502907 -0.00019709
0.0061034 0.000300573 -0.000291568
0.00620318 0.000554754 -3.34075e-05
0.0060804 0.000286918 -0.000286583
0.00722238 0.00121251 -0.00191564
0.00655214 -0.000160956 -0.00033569
0.00633929 0.000228736 -0.000273914
0.0063284 0.000254815 -0.000283939
0.00621869 0.000599884 -0.00108943
0.00610177 0.000569278 -6.85571e-05
0.00608698 0.00053302 -5.50887e-05
0.00688873 0.000699371 -0.00128406
-3.83075e-14 8.169e-14 2.95884e-13
0.00571978 0.000367638 -0.000294921
0.00550115 -2.00101e-05 -0.000375132
0.00628383 0.000289525 -0.000292257
0.00618071 0.000301909 -0.00029804
0.00599238 0.000542981 -5.29363e-05
0.006313 0.00024251 -0.000279715
0.00618659 0.000190985 0.000219382
0.00641326 0.000253524 -0.000286257
0.00632123 0.000207284 -0.000271257
0.00635347 0.000236502 -0.000281913
0.00639719 0.000239436 -0.000281349
0.00620503 0.000124348 0.000216358
0.0056645 0.000369764 -0.000297272
0.00615693 0.000180518 0.000233267
0.00574459 0.000604704 -0.000150299
0.00567861 0.000377362 -0.000300494
0.00622722 0.000490811 -4.68136e-05
0.00600085 0.000305485 -0.000320714
0.00631103 0.000276248 -0.000289899
0.00616 5.37774e-05 0.000227393
0.00609016 0.000297776 -0.000285929
0.00533281 -0.00441594 -0.00277169
0.00610583 0.000292967 -0.000288646
0.00618933 0.000192013 -0.00026018
0.00622599 0.000154725 0.000212627
0.00545871 -4.84391e-05 -0.000425936
0.006277 0.000239879 0.000206779
0.0060398 -0.000584809 0.000317533
0.00616981 -8.16806e-05 -0.000372122
0.00564909 0.000369024 -0.00029482
0.00618056 3.53681e-05 0.000227129
0.00615466 0.000278331 -0.00028813
0.00622809 0.000284888 -0.000289528
0.00617937 0.000275436 -0.000285335
0.00541089 -0.000582634 1.91115e-05
0.00573495 0.000376764 -0.000297348
0.00607953 0.000296309 -0.000290313
0.00608327 0.000578765 -8.6174e-05
0.00627052 0.000279856 -0.00028966
0.0056754 0.000389491 -0.000297746
0.00614431 0.000221172 0.000201836
0.00616913 0.000258289 -0.000279595
0.00578139 0.000498285 2.43986e-05
0.00566698 0.000512309 4.65794e-05
0.00602907 0.000444434 4.90024e-06
0.00569658 0.000388119 -0.000306737
0.00566654 0.000398232 -0.000306414
0.00613609 -2.87583e-05 -0.000414855
0.00573523 2.97444e-05 -0.000434182
0.00625384 0.000260351 -0.000283085
0.00625251 0.000215417 0.00020549
0.00552999 5.41985e-05 -0.000438526
0.00579945 -0.000592019 0.000303561
0.00610981 0.000437715 4.67779e-05
0.00616523 4.51274e-05 0.000224714
0.00616832 0.000293771 -0.00029092
0.00664506 -0.000208537 -0.000333362
0.00620009 0.000306081 -0.000296271
0.00555651 9.66659e-05 0.000193294
0.00571309 0.000444564 -0.000178236
0.00546529 5.52594e-05 -0.000437165
0.00565734 0.000359813 -0.000293864
0.00603682 -0.000642716 0.000320858
0.00554832 -0.000542459 0.00025122
0.00628918 0.00021188 -0.000269821
0.00570588 0.000551495 1.46669e-05
0.00623194 0.000303627 -0.000293379
0.00639616 0.000243147 -0.000282361
0.00553099 0.000126099 -0.000313838
0.00568612 0.000407141 9.65676e-05
0.00569382 0.000384275 -0.000302906
0.00568251 0.000372926 -0.00030074
0.00544754 -0.00034654 0.000472667
0.0053913 -0.000312724 0.000439134
0.00563128 -0.000386058 0.000508053
0.00625339 0.000528284 -1.01092e-05
0.00615629 0.000277556 -0.000285826
0.00535301 -0.000324571 0.000450017
0.00550506 -0.000606614 1.20078e-05
0.00577454 0.000629026 -0.000172165
0.00566184 0.000373464 -0.000299846
0.00545982 -0.000584119 1.95535e-06
0.00582578 0.000482458 1.23709e-05
0.00589533 0.000264374 0.00019051
0.00550586 -0.000613786 1.62558e-05
0.00603859 -0.000603564 0.000318813
0.00546815 -0.000586178 4.5981e-06
0.00610327 0.000226537 -0.000694451
0.00617486 0.000243098 -0.000275211
0.00694472 1.62691e-05 -0.00553226
0.00566782 0.000375248 -0.00029931
0.005534 -0.000622483 2.57449e-05
0.00636012 0.000244415 -0.000279209
0.00569076 0.000380945 -0.000300036
0.00567145 0.000367293 -0.000296427
0.00544043 -0.000588468 2.21162e-06
0.00599179 0.000564846 -7.93684e-05
0.00604098 -0.000571039 0.000316459
0.00623677 0.000296436 -0.000292655
0.00580506 0.000503948 2.19539e-05
0.00600784 0.000308466 -0.000288264
0.00614631 0.000279755 -0.000287663
0.00571846 0.000224788 -0.00057599
0.00633865 0.000263268 -0.000287304
0.00554166 -0.000529078 0.000289771
0.00568179 0.000504768 2.60177e-05
0.00558379 -0.000599816 0.000113228
0.0059549 0.000561235 -7.25509e-05
0.005895 0.000467763 -3.97249e-06
0.00584264 0.000392924 0.000142985
0.00601994 0.000330218 -0.000296092
0.00605753 -0.000608479 0.000319674
0.00603775 -0.000635132 0.000321672
0.00628161 0.000287436 -0.000292235
0.00535018 -0.000313317 0.000445058
0.00568578 0.000565352 -8.41902e-06
0.00571065 0.000411785 -0.00025971
0.00601822 0.000567526 -7.65291e-05
0.00568697 0.00053978 3.82834e-05
0.00619397 0.000276901 -0.000285948
0.00625194 0.000510644 -3.13376e-05
0.00572081 0.000394598 -0.000302044
0.00609211 0.000308706 -0.00029034
0.00636841 0.000253463 -0.000285859
0.0056969 0.000390574 -0.000294992
0.00567284 0.000427326 -0.000296485
0.00603873 -0.000621507 0.000320252
0.00585716 0.000290826 4.27222e-05
0.00624179 0.000198088 0.00020736
0.00534486 -0.000550639 5.12375e-05
0.00548682 -0.000596125 7.71817e-06
0.00569626 0.000405562 0.00015543

VECTORS force float
-3.77665e-10 2.63169e-10 -4.57624e-11
-7.401e-12 6.96954e-11 -5.05471e-11
-2.48993e-10 3.82109e-10 -2.9863e-10
1.13539e-11 4.02503e-11 -3.28419e-11
3.82307e-11 1.98681e-10 -1.75979e-10
-6.11007e-11 -1.19769e-10 -1.12669e-10
2.09183e-10 -1.77634e-10 1.29634e-10
-1.31807e-10 2.2301e-11 -1.92812e-11
-1.50518e-10 5.00891e-11 -2.73221e-11
2.2176e-11 1.22536e-10 -1.1378e-11
-2.13459e-10 2.3324e-10 2.05498e-11
3.3619e-11 1.20106e-10 -9.88035e-11
-1.0733e-12 5.22112e-11 -2.04278e-11
-2.38064e-11 5.17242e-11 -1.23538e-11
-1.30215e-10 -2.1366e-12 3.86273e-12
5.34593e-11 1.85906e-10 -1.5361e-10
1.62705e-10 9.29396e-11 4.38179e-11
1.0037e-11 1.79729e-10 -1.9447e-10
-1.36369e-11 3.09041e-12 -4.42425e-12
2.40238e-10 -6.02426e-11 -2.19969e-11
-7.96509e-13 1.80277e-11 -1.12019e-11
-2.98566e-11 7.97024e-12 4.00315e-11
-5.3545e-10 1.5365e-10 1.56404e-10
-1.70811e-10 7.15321e-11 -2.87196e-11
6.78385e-11 2.28112e-10 -1.91827e-10
-4.07624e-12 -1.33009e-10 1.71961e-10
1.58511e-10 -1.49198e-10 1.97509e-11
-3.43484e-11 -4.41828e-12 1.51484e-11
-1.28965e-10 -9.14899e-11 4.37201e-11
-3.3239e-11 -7.6017e-11 5.37835e-11
-1.89324e-10 -2.39515e-10 -1.00785e-10
-4.50294e-11 -6.91521e-11 2.90512e-11
2.97466e-10 4.95995e-10 -4.27109e-10
2.7174e-10 -2.82128e-10 1.87111e-10
2.0091e-11 -1.31108e-11 8.35008e-11
-3.0674e-11 -9.17836e-11 7.44225e-11
-1.64535e-10 -1.979e-10 2.01222e-10
4.59593e-10 -1.64267e-11 5.24411e-12
-1.05928e-10 -2.57983e-11 8.76128e-12
-2.53885e-11 -1.02018e-10 8.37983e-11
-2.2561e-11 1.59475e-10 -6.49214e-11
-1.82411e-10 8.99221e-11 -1.33054e-11
-2.65201e-11 -6.88915e-11 4.83504e-11
1.58753e-10 -4.11878e-11 6.89626e-12
-1.47798e-10 2.16793e-10 -8.40572e-12
1.00614e-11 -6.33991e-11 -2.05441e-12
2.80928e-10 1.2557e-10 1.22049e-11
-5.92984e-11 8.48587e-11 7.66329e-11
2.63306e-10 6.95619e-11 -1.38235e-11
2.88783e-10 1.02142e-10 1.644e-12
-1.10377e-23 5.14403e-24 -2.06795e-25
2.0041e-10 1.30831e-10 1.26187e-10
-7.41082e-12 -3.75771e-11 3.16047e-11
-2.11401e-10 -2.6116e-10 1.54409e-11
6.62693e-11 2.80228e-10 9.25573e-12
-8.37491e-11 2.18508e-12 -1.53088e-11
1.19504e-11 2.10221e-11 1.56057e-11
-7.19178e-11 4.96565e-11 -2.68651e-11
5.20907e-11 1.60683e-10 -1.11825e-10
3.08124e-10 1.64537e-10 -1.14977e-10
3.31503e-10 8.69795e-12 -1.83154e-11
-9.82829e-11 4.21313e-11 5.70068e-11
-1.90353e-11 3.82709e-11 -1.25523e-11
-3.17577e-10 1.51305e-10 -4.85955e-11
-3.94634e-11 4.13381e-11 -2.92321e-11
-1.0171e-11 -1.13317e-10 1.12385e-10
3.51811e-12 -1.25965e-10 -2.07445e-10
5.64015e-11 1.05238e-10 -9.4254e-11
3.06618e-12 5.2809e-10 1.10864e-09
1.661e-11 -3.88282e-11 8.92594e-12
1.40344e-10 8.18699e-11 -4.46938e-11
-1.01808e-10 8.01194e-11 -1.95483e-11
1.48808e-10 -3.33715e-11 -1.18684e-10
-6.03273e-11 -3.4166e-12 6.42212e-12
6.62693e-11 4.78603e-11 -1.36835e-11
5.10583e-10 -1.31189e-10 3.15806e-11
-2.89547e-10 7.35838e-11 -2.62525e-11
-1.17142e-10 -6.15526e-11 6.71562e-12
-9.24593e-11 4.54328e-11 -1.29864e-10
1.32088e-10 4.51038e-11 3.29459e-11
-6.02608e-11 2.59471e-10 3.3884e-10
2.39011e-13 4.48655e-11 -4.09405e-12
-7.6754e-11 -1.14806e-10 -1.32903e-10
8.1383e-11 -4.35904e-10 1.33173e-11
-3.46351e-11 -2.56511e-10 1.42101e-10
1.66691e-11 1.82662e-11 -1.35639e-11
-6.95758e-11 -2.91319e-11 4.91724e-13
-1.34137e-10 -1.93255e-10 -5.91287e-11
-2.06805e-11 -7.91315e-13 -2.89229e-11
2.00016e-10 -1.35349e-11 -6.7475e-11
-1.48537e-11 -2.59535e-11 2.96914e-12
1.88387e-21 -1.03938e-21 3.59824e-23
0.0 0.0 0.0
-2.22796e-12 -4.71065e-11 1.32664e-11
2.79792e-10 2.61803e-10 1.03981e-10
-1.34403e-10 -7.87108e-12 2.13048e-11
-1.24833e-10 -2.833e-10 5.44199e-11
1.73498e-10 3.51274e-11 -1.82304e-12
-2.53918e-11 -4.58121e-10 4.89942e-10