# vtk DataFile Version 3.0
LIGGGHTS particles timestep 56000000
ASCII
DATASET POLYDATA
POINTS 275 float
0.339772 0.0182178 0.00717551
0.339428 0.0169673 0.00745722
0.339579 0.0168442 0.00750335
0.339039 0.0156721 0.00869033
0.345331 0.0167027 0.00787909
0.339715 0.0174682 0.00721752
0.339421 0.016552 0.00764835
0.345558 0.0175742 0.007443
0.339517 0.0165785 0.00762957
0.339816 0.017954 0.00718844
0.333831 0.017631 0.00726772
0.339018 0.0156178 0.00877159
0.333945 0.0183464 0.00703841
0.334025 0.0185277 0.00686735
0.339381 0.016375 0.00773239
0.339747 0.0184526 0.00716873
0.339754 0.0176605 0.00719018
0.339538 0.0166669 0.00758757
0.333967 0.018258 0.00698774
0.345466 0.0172259 0.00761742
0.339146 0.0159357 0.00828099
0.345512 0.0173999 0.00753022
0.333503 0.0169434 0.00757118
0.339503 0.0169057 0.00748033
0.338997 0.015569 0.00885645
0.339226 0.0161377 0.00794912
0.339809 0.0174966 0.00720129
0.339164 0.0159826 0.00819448
0.345352 0.0167906 0.00783528
0.339135 0.0158787 0.00836242
0.339676 0.0172872 0.00729319
0.345613 0.0178386 0.00731202
0.339559 0.0167557 0.00754537
0.339638 0.0171099 0.00737727
0.345489 0.0173128 0.00757384
0.339081 0.0157745 0.00852385
0.339694 0.01696 0.00744219
0.339752 0.017226 0.00731608
0.345373 0.0168781 0.00779167
0.339102 0.0158292 0.00844264
0.339622 0.0178898 0.00716831
0.345576 0.0176624 0.00739932
0.339189 0.016048 0.00812321
0.339829 0.0175947 0.00720062
0.333889 0.0178997 0.00714773
0.345415 0.017053 0.00770446
0.339952 0.018183 0.00719712
0.333697 0.0174217 0.00735943
0.33992 0.0183546 0.00718829
0.345394 0.0169655 0.00774807
0.378022 0.019866 0.005332
0.339771 0.0173147 0.00727404
0.33906 0.0157222 0.00860631
0.339657 0.0171985 0.00733523
0.339769 0.0181326 0.00727562
0.345441 0.0171392 0.00766096
0.333622 0.0174811 0.00733114
0.333797 0.0182873 0.00697117
0.339775 0.0177583 0.00718959
0.339562 0.0171714 0.00735425
0.33987 0.0177903 0.00719949
0.345535 0.0174871 0.00748659
0.333925 0.0188465 0.00687666
0.339835 0.0180543 0.00718764
0.339674 0.0168715 0.00748421
0.339205 0.0160854 0.00803195
0.333639 0.0171524 0.00747965
0.339448 0.0170559 0.00741519
0.333069 0.0156191 0.00842906
0.333998 0.0187794 0.00686505
0.339523 0.0169942 0.0074383
0.333891 0.0183175 0.00695945
0.33385 0.0177206 0.00722772
0.345595 0.0177506 0.00735564
0.333803 0.0187212 0.00685881
0.339733 0.0171373 0.00735812
0.339483 0.0168171 0.00752235
0.33962 0.0174384 0.00723049
0.339891 0.0178882 0.00719889
0.339796 0.0178561 0.00718903
0.333811 0.0175414 0.00730772
0.339545 0.0175005 0.00720812
0.339307 0.0163815 0.00779841
0.339851 0.0181578 0.00718633
0.33967 0.0178818 0.00725601
0.339525 0.0174104 0.00724706
0.333154 0.0159057 0.00817963
0.339269 0.0162977 0.00783753
0.333644 0.0179885 0.00710288
0.339734 0.0175626 0.00719074
0.333663 0.018078 0.00706288
0.0643568 0.0187248 0.00531097
0.24257 0.0191927 0.00520306
0.334075 0.0187162 0.00685401
0.333292 0.0160942 0.00805498
0.333661 0.0176603 0.00725114
0.33309 0.0156612 0.00834064
0.33991 0.0179876 0.0071981
0.33999 0.0182837 0.00719835
0.339408 0.0168788 0.00749923
0.339367 0.0167021 0.00758323
0.333596 0.017629 0.00735838
0.333547 0.0175406 0.00730286
0.333605 0.0178093 0.00718287
0.339713 0.0170487 0.00740016
0.339697 0.0178246 0.0071788
0.339695 0.0173762 0.00725189
0.333736 0.0176009 0.00727943
0.33993 0.0180855 0.0071975
0.339496 0.0164901 0.00767159
0.33971 0.0182758 0.00722882
0.339506 0.0173217 0.0072891
0.333844 0.0189041 0.00688689
0.339401 0.0164635 0.00769036
0.339601 0.0173487 0.00727017
0.333133 0.0158223 0.00823067
0.339247 0.0162202 0.00789705
0.339698 0.0180333 0.00726706
0.3337 0.0178395 0.00717115
0.333719 0.017929 0.00713115
0.339598 0.0169327 0.00746133
0.339718 0.0179224 0.00717827
0.339678 0.0177265 0.00717955
0.339849 0.0176926 0.00720002
0.333678 0.0173321 0.00739943
0.3399 0.018144 0.0072726
0.339584 0.0176935 0.0071698
0.339468 0.0171444 0.00737317
0.333516 0.0166169 0.00772555
0.333928 0.0180789 0.00706774
0.333111 0.0157392 0.00828186
0.333775 0.01778 0.00719943
0.333175 0.015989 0.00812861
0.33368 0.0177499 0.00721115
0.333536 0.0167037 0.0076799
0.339326 0.0165252 0.00766724
0.333781 0.0186236 0.00685866
0.333702 0.0182572 0.00698289
0.333557 0.0167937 0.00763977
0.33327 0.0160109 0.008106
0.333661 0.0179051 0.0072358
0.333494 0.0165328 0.00777711
0.0219312 0.0187687 0.00551176
0.333598 0.0169727 0.00755987
0.339618 0.0170213 0.00741931
0.333683 0.0181676 0.00702288
0.333904 0.0185993 0.00692698
0.333261 0.0163221 0.0079245
0.333836 0.0184668 0.00689105
0.339603 0.0177917 0.00716906
0.333741 0.0184363 0.0069029
0.333876 0.0186545 0.006848
0.33376 0.0185259 0.00686291
0.333855 0.0185565 0.00685098
0.339835 0.0184063 0.00717709
0.333527 0.017451 0.00734285
0.339768 0.0185502 0.00716522
0.333304 0.0164887 0.00782245
0.333603 0.0173916 0.00737114
0.333197 0.0160723 0.00807758
0.33373 0.0182541 0.00707886
0.333724 0.0183476 0.00704285
0.339724 0.0183523 0.00716612
0.333586 0.0177197 0.00722286
0.339759 0.0181186 0.00717708
0.333794 0.0178696 0.00715944
0.333826 0.0188071 0.00690418
0.339742 0.0180201 0.00717802
0.339582 0.01726 0.00731221
0.339686 0.0181784 0.00721006
0.327668 0.0180992 0.00711782
0.339346 0.0166137 0.00762523
0.333566 0.0176302 0.00726286
0.339893 0.0182618 0.00721529
0.333972 0.018684 0.00685045
0.333911 0.0184073 0.00691935
0.333853 0.0181383 0.00703945
0.327353 0.0166389 0.0075953
0.33387 0.0178101 0.00718773
0.333987 0.0183484 0.0069474
0.333249 0.0159276 0.00815703
0.33393 0.0184974 0.00687911
0.333619 0.0170623 0.00751988
0.339659 0.0176283 0.0071803
0.334006 0.0184381 0.00690735
0.333441 0.0166778 0.00769744
0.333483 0.016854 0.00761108
0.333356 0.0163441 0.0079019
0.333908 0.0179893 0.00710773
0.333717 0.0175113 0.00731943
0.339442 0.0166404 0.00760635
0.339463 0.0167287 0.00756435
0.33395 0.0185871 0.00683908
0.339665 0.0180834 0.00718719
0.339543 0.0170828 0.00739628
0.327566 0.0176167 0.00720012
0.333334 0.0162608 0.00795292
0.339814 0.0183086 0.00717758
0.333624 0.0178989 0.00714287
0.339308 0.0164411 0.00771807
0.333738 0.0180186 0.00709116
0.33979 0.0174035 0.00723199
0.333524 0.0170328 0.00753129
0.339387 0.0167904 0.00754124
0.333947 0.0181685 0.00702774
0.327586 0.0177133 0.00718368
0.327527 0.0174233 0.00723301
0.333898 0.0187513 0.0068621
0.333429 0.0170035 0.00754261
0.33402 0.0188763 0.00687994
0.333721 0.0183468 0.00694289
0.339487 0.017233 0.00733114
0.333388 0.0168252 0.00762345
0.333489 0.0172718 0.00742285
0.333508 0.0173614 0.00738285
0.327254 0.0162629 0.00790942
0.327314 0.0164868 0.00771883
0.327232 0.0161885 0.00797264
0.333473 0.0164495 0.00782813
0.333833 0.0180488 0.00707944
0.327274 0.0163375 0.00784596
0.327449 0.0170397 0.00731219
0.333325 0.016572 0.00777143
0.3337 0.0181539 0.00712033
0.327392 0.0167977 0.00748011
0.333399 0.0165107 0.00779982
0.339637 0.0175309 0.00718402
0.327469 0.0171333 0.00728306
0.327646 0.0180029 0.0071343
0.327411 0.0168784 0.00742417
0.333946 0.018943 0.00689149
0.333865 0.0190006 0.00690172
0.333578 0.0168833 0.00759976
0.333801 0.0181893 0.00710804
0.327488 0.0172298 0.00726588
0.333816 0.0183769 0.00693117
0.333583 0.017302 0.00741113
0.333646 0.0179982 0.00720238
0.327373 0.0167171 0.00753603
0.333218 0.0161556 0.00802655
0.327689 0.0181956 0.00710134
0.333758 0.0181082 0.00705116
0.33342 0.016594 0.00774878
0.333756 0.0176904 0.00723943
0.333814 0.0179592 0.00711944
0.339627 0.0176973 0.00726011
0.333747 0.0184408 0.00700258
0.327547 0.0175199 0.00721655
0.333462 0.0167643 0.0076511
0.327508 0.0173266 0.00724945
0.333282 0.0164054 0.00787348
0.333377 0.0164274 0.00785087
0.333346 0.0166553 0.00772041
0.333642 0.0175707 0.00729114
0.327741 0.0180321 0.0071244
0.327605 0.01781 0.00716723
0.333777 0.0181978 0.00701116
0.327294 0.0164121 0.00778246
0.333449 0.0170929 0.00750274
0.333544 0.0171224 0.00749132
0.333239 0.0162388 0.00797553
0.333408 0.0169141 0.00758257
0.333872 0.0182279 0.00699945
0.333313 0.0161775 0.00800395
0.333659 0.0172425 0.00743944
0.334049 0.0186207 0.00683941
0.333812 0.0185601 0.00694133
0.333564 0.0172123 0.00745116
0.333469 0.0171832 0.00746485
0.327625 0.0179065 0.00715077
0.333367 0.0167391 0.00766997
0.339643 0.0179877 0.00716779
0.327333 0.0165616 0.00765551
0.32743 0.016959 0.00736817
0.339564 0.0175988 0.00719526

VERTICES 275 550
1 0
1 1
1 2
1 3
1 4
1 5
1 6
1 7
1 8
1 9
1 10
1 11
1 12
1 13
1 14
1 15
1 16
1 17
1 18
1 19
1 20
1 21
1 22
1 23
1 24
1 25
1 26
1 27
1 28
1 29
1 30
1 31
1 32
1 33
1 34
1 35
1 36
1 37
1 38
1 39
1 40
1 41
1 42
1 43
1 44
1 45
1 46
1 47
1 48
1 49
1 50
1 51
1 52
1 53
1 54
1 55
1 56
1 57
1 58
1 59
1 60
1 61
1 62
1 63
1 64
1 65
1 66
1 67
1 68
1 69
1 70
1 71
1 72
1 73
1 74
1 75
1 76
1 77
1 78
1 79
1 80
1 81
1 82
1 83
1 84
1 85
1 86
1 87
1 88
1 89
1 90
1 91
1 92
1 93
1 94
1 95
1 96
1 97
1 98
1 99
1 100
1 101
1 102
1 103
1 104
1 105
1 106
1 107
1 108
1 109
1 110
1 111
1 112
1 113
1 114
1 115
1 116
1 117
1 118
1 119
1 120
1 121
1 122
1 123
1 124
1 125
1 126
1 127
1 128
1 129
1 130
1 131
1 132
1 133
1 134
1 135
1 136
1 137
1 138
1 139
1 140
1 141
1 142
1 143
1 144
1 145
1 146
1 147
1 148
1 149
1 150
1 151
1 152
1 153
1 154
1 155
1 156
1 157
1 158
1 159
1 160
1 161
1 162
1 163
1 164
1 165
1 166
1 167
1 168
1 169
1 170
1 171
1 172
1 173
1 174
1 175
1 176
1 177
1 178
1 179
1 180
1 181
1 182
1 183
1 184
1 185
1 186
1 187
1 188
1 189
1 190
1 191
1 192
1 193
1 194
1 195
1 196
1 197
1 198
1 199
1 200
1 201
1 202
1 203
1 204
1 205
1 206
1 207
1 208
1 209
1 210
1 211
1 212
1 213
1 214
1 215
1 216
1 217
1 218
1 219
1 220
1 221
1 222
1 223
1 224
1 225
1 226
1 227
1 228
1 229
1 230
1 231
1 232
1 233
1 234
1 235
1 236
1 237
1 238
1 239
1 240
1 241
1 242
1 243
1 244
1 245
1 246
1 247
1 248
1 249
1 250
1 251
1 252
1 253
1 254
1 255
1 256
1 257
1 258
1 259
1 260
1 261
1 262
1 263
1 264
1 265
1 266
1 267
1 268
1 269
1 270
1 271
1 272
1 273
1 274

POINT_DATA 275
SCALARS id int 1
LOOKUP_TABLE default
1
2
4
5
6
7
8
9
10
11
12
13
14
16
17
19
21
22
23
24
25
26
27
28
29
30
31
32
33
34
35
36
37
38
39
41
42
44
45
47
48
49
50
51
52
53
54
55
56
57
59
60
61
62
63
64
65
66
67
68
69
70
71
72
73
74
76
77
78
79
80
82
83
84
85
86
87
88
89
90
91
92
93
94
95
96
97
98
99
100
101
102
103
104
105
106
107
108
109
110
111
112
113
114
115
116
117
118
119
120
121
122
123
124
125
127
128
129
130
131
132
133
134
135
136
137
138
140
141
142
143
144
146
147
148
149
150
151
153
154
155
156
157
158
159
160
162
164
165
166
167
168
169
170
171
172
173
174
176
177
178
179
182
183
184
185
186
187
188
189
190
191
192
193
194
195
196
197
198
199
200
201
202
203
204
205
206
207
208
209
210
211
212
213
214
215
216
217
218
219
220
222
224
225
226
227
228
229
230
232
233
234
235
236
237
239
240
241
242
243
244
246
247
248
249
250
251
252
253
254
255
256
257
258
259
260
261
262
263
264
265
266
267
268
269
270
271
272
273
274
275
276
277
278
279
280
281
283
284
285
286
287
288
289
290
291
292
293
294
295
296
297
298
299
300

SCALARS type int 1
LOOKUP_TABLE default
1
1
1
1
1
1
1
1
1
1
1
1
1
1
1
1
1
1
1
1
1
1
1
1
1
1
1
1
1
1
1
1
1
1
1
1
1
1
1
1
1
1
1
1
1
1
1
1
1
1
1
1
1
1
1
1
1
1
1
1
1
1
1
1
1
1
1
1
1
1
1
1
1
1
1
1
1
1
1
1
1
1
1
1
1
1
1
1
1
1
1
1
1
1
1
1
1
1
1
1
1
1
1
1
1
1
1
1
1
1
1
1
1
1
1
1
1
1
1
1
1
1
1
1
1
1
1
1
1
1
1
1
1
1
1
1
1
1
1
1
1
1
1
1
1
1
1
1
1
1
1
1
1
1
1
1
1
1
1
1
1
1
1
1
1
1
1
1
1
1
1
1
1
1
1
1
1
1
1
1
1
1
1
1
1
1
1
1
1
1
1
1
1
1
1
1
1
1
1
1
1
1
1
1
1
1
1
1
1
1
1
1
1
1
1
1
1
1
1
1
1
1
1
1
1
1
1
1
1
1
1
1
1
1
1
1
1
1
1
1
1
1
1
1
1
1
1
1
1
1
1
1
1
1
1
1
1
1
1
1
1
1
1
1
1
1
1
1
1
1
1
1
1
1
1

SCALARS radius float 1
LOOKUP_TABLE default
5e-05
5e-05
5e-05
5e-05
5e-05
5e-05
5e-05
5e-05
5e-05
5e-05
5e-05
5e-05
5e-05
5e-05
5e-05
5e-05
5e-05
5e-05
5e-05
5e-05
5e-05
5e-05
5e-05
5e-05
5e-05
5e-05
5e-05
5e-05
5e-05
5e-05
5e-05
5e-05
5e-05
5e-05
5e-05
5e-05
5e-05
5e-05
5e-05
5e-05
5e-05
5e-05
5e-05
5e-05
5e-05
5e-05
5e-05
5e-05
5e-05
5e-05
5e-05
5e-05
5e-05
5e-05
5e-05
5e-05
5e-05
5e-05
5e-05
5e-05
5e-05
5e-05
5e-05
5e-05
5e-05
5e-05
5e-05
5e-05
5e-05
5e-05
5e-05
5e-05
5e-05
5e-05
5e-05
5e-05
5e-05
5e-05
5e-05
5e-05
5e-05
5e-05
5e-05
5e-05
5e-05
5e-05
5e-05
5e-05
5e-05
5e-05
5e-05
5e-05
5e-05
5e-05
5e-05
5e-05
5e-05
5e-05
5e-05
5e-05
5e-05
5e-05
5e-05
5e-05
5e-05
5e-05
5e-05
5e-05
5e-05
5e-05
5e-05
5e-05
5e-05
5e-05
5e-05
5e-05
5e-05
5e-05
5e-05
5e-05
5e-05
5e-05
5e-05
5e-05
5e-05
5e-05
5e-05
5e-05
5e-05
5e-05
5e-05
5e-05
5e-05
5e-05
5e-05
5e-05
5e-05
5e-05
5e-05
5e-05
5e-05
5e-05
5e-05
5e-05
5e-05
5e-05
5e-05
5e-05
5e-05
5e-05
5e-05
5e-05
5e-05
5e-05
5e-05
5e-05
5e-05
5e-05
5e-05
5e-05
5e-05
5e-05
5e-05
5e-05
5e-05
5e-05
5e-05
5e-05
5e-05
5e-05
5e-05
5e-05
5e-05
5e-05
5e-05
5e-05
5e-05
5e-05
5e-05
5e-05
5e-05
5e-05
5e-05
5e-05
5e-05
5e-05
5e-05
5e-05
5e-05
5e-05
5e-05
5e-05
5e-05
5e-05
5e-05
5e-05
5e-05
5e-05
5e-05
5e-05
5e-05
5e-05
5e-05
5e-05
5e-05
5e-05
5e-05
5e-05
5e-05
5e-05
5e-05
5e-05
5e-05
5e-05
5e-05
5e-05
5e-05
5e-05
5e-05
5e-05
5e-05
5e-05
5e-05
5e-05
5e-05
5e-05
5e-05
5e-05
5e-05
5e-05
5e-05
5e-05
5e-05
5e-05
5e-05
5e-05
5e-05
5e-05
5e-05
5e-05
5e-05
5e-05
5e-05
5e-05
5e-05
5e-05
5e-05
5e-05
5e-05
5e-05
5e-05
5e-05
5e-05
5e-05
5e-05
5e-05
5e-05
5e-05
5e-05
5e-05
5e-05
5e-05
5e-05
5e-05
5e-05
5e-05
5e-05
5e-05
5e-05
5e-05
5e-05
5e-05
5e-05
5e-05
5e-05

SCALARS mass float 1
LOOKUP_TABLE default
1.46608e-10
1.46608e-10
1.46608e-10
1.46608e-10
1.46608e-10
1.46608e-10
1.46608e-10
1.46608e-10
1.46608e-10
1.46608e-10
1.46608e-10
1.46608e-10
1.46608e-10
1.46608e-10
1.46608e-10
1.46608e-10
1.46608e-10
1.46608e-10
1.46608e-10
1.46608e-10
1.46608e-10
1.46608e-10
1.46608e-10
1.46608e-10
1.46608e-10
1.46608e-10
1.46608e-10
1.46608e-10
1.46608e-10
1.46608e-10
1.46608e-10
1.46608e-10
1.46608e-10
1.46608e-10
1.46608e-10
1.46608e-10
1.46608e-10
1.46608e-10
1.46608e-10
1.46608e-10
1.46608e-10
1.46608e-10
1.46608e-10
1.46608e-10
1.46608e-10
1.46608e-10
1.46608e-10
1.46608e-10
1.46608e-10
1.46608e-10
1.46608e-10
1.46608e-10
1.46608e-10
1.46608e-10
1.46608e-10
1.46608e-10
1.46608e-10
1.46608e-10
1.46608e-10
1.46608e-10
1.46608e-10
1.46608e-10
1.46608e-10
1.46608e-10
1.46608e-10
1.46608e-10
1.46608e-10
1.46608e-10
1.46608e-10
1.46608e-10
1.46608e-10
1.46608e-10
1.46608e-10
1.46608e-10
1.46608e-10
1.46608e-10
1.46608e-10
1.46608e-10
1.46608e-10
1.46608e-10
1.46608e-10
1.46608e-10
1.46608e-10
1.46608e-10
1.46608e-10
1.46608e-10
1.46608e-10
1.46608e-10
1.46608e-10
1.46608e-10
1.46608e-10
1.46608e-10
1.46608e-10
1.46608e-10
1.46608e-10
1.46608e-10
1.46608e-10
1.46608e-10
1.46608e-10
1.46608e-10
1.46608e-10
1.46608e-10
1.46608e-10
1.46608e-10
1.46608e-10
1.46608e-10
1.46608e-10
1.46608e-10
1.46608e-10
1.46608e-10
1.46608e-10
1.46608e-10
1.46608e-10
1.46608e-10
1.46608e-10
1.46608e-10
1.46608e-10
1.46608e-10
1.46608e-10
1.46608e-10
1.46608e-10
1.46608e-10
1.46608e-10
1.46608e-10
1.46608e-10
1.46608e-10
1.46608e-10
1.46608e-10
1.46608e-10
1.46608e-10
1.46608e-10
1.46608e-10
1.46608e-10
1.46608e-10
1.46608e-10
1.46608e-10
1.46608e-10
1.46608e-10
1.46608e-10
1.46608e-10
1.46608e-10
1.46608e-10
1.46608e-10
1.46608e-10
1.46608e-10
1.46608e-10
1.46608e-10
1.46608e-10
1.46608e-10
1.46608e-10
1.46608e-10
1.46608e-10
1.46608e-10
1.46608e-10
1.46608e-10
1.46608e-10
1.46608e-10
1.46608e-10
1.46608e-10
1.46608e-10
1.46608e-10
1.46608e-10
1.46608e-10
1.46608e-10
1.46608e-10
1.46608e-10
1.46608e-10
1.46608e-10
1.46608e-10
1.46608e-10
1.46608e-10
1.46608e-10
1.46608e-10
1.46608e-10
1.46608e-10
1.46608e-10
1.46608e-10
1.46608e-10
1.46608e-10
1.46608e-10
1.46608e-10
1.46608e-10
1.46608e-10
1.46608e-10
1.46608e-10
1.46608e-10
1.46608e-10
1.46608e-10
1.46608e-10
1.46608e-10
1.46608e-10
1.46608e-10
1.46608e-10
1.46608e-10
1.46608e-10
1.46608e-10
1.46608e-10
1.46608e-10
1.46608e-10
1.46608e-10
1.46608e-10
1.46608e-10
1.46608e-10
1.46608e-10
1.46608e-10
1.46608e-10
1.46608e-10
1.46608e-10
1.46608e-10
1.46608e-10
1.46608e-10
1.46608e-10
1.46608e-10
1.46608e-10
1.46608e-10
1.46608e-10
1.46608e-10
1.46608e-10
1.46608e-10
1.46608e-10
1.46608e-10
1.46608e-10
1.46608e-10
1.46608e-10
1.46608e-10
1.46608e-10
1.46608e-10
1.46608e-10
1.46608e-10
1.46608e-10
1.46608e-10
1.46608e-10
1.46608e-10
1.46608e-10
1.46608e-10
1.46608e-10
1.46608e-10
1.46608e-10
1.46608e-10
1.46608e-10
1.46608e-10
1.46608e-10
1.46608e-10
1.46608e-10
1.46608e-10
1.46608e-10
1.46608e-10
1.46608e-10
1.46608e-10
1.46608e-10
1.46608e-10
1.46608e-10
1.46608e-10
1.46608e-10
1.46608e-10
1.46608e-10
1.46608e-10
1.46608e-10
1.46608e-10
1.46608e-10
1.46608e-10
1.46608e-10
1.46608e-10
1.46608e-10
1.46608e-10
1.46608e-10
1.46608e-10
1.46608e-10
1.46608e-10
1.46608e-10
1.46608e-10
1.46608e-10
1.46608e-10
1.46608e-10
1.46608e-10

VECTORS velocity float
0.00543504 -0.00124123 0.00065344
0.00532915 -0.00131725 0.00023675
0.00524828 -0.00135989 0.000262427
0.00559018 -0.000150194 0.00187692
0.00644819 0.00225147 -0.00172324
0.00526082 -0.00120337 0.000526715
0.00547446 -0.00132748 0.000231485
0.00682036 0.00190125 -0.00159515
0.00546772 -0.00133995 0.000237646
0.00548999 -0.0012248 0.000661707
0.00552471 0.000296006 -2.40803e-05
0.00553983 -0.000188353 0.00187007
0.00550798 8.67438e-05 0.000194248
0.00596871 -0.000320919 0.000254446
0.00546029 -0.00131814 0.000226614
0.00553301 -0.00130217 0.000667964
0.00532053 -0.00118146 0.000629451
0.00548538 -0.00132096 0.000227853
0.0056918 0.000280708 -1.38736e-05
0.00685618 0.00183209 -0.00156587
0.00569361 -0.000180769 0.0018913
0.00667833 0.00180893 -0.00153695
0.0057362 0.000286141 -1.526e-05
0.00531372 -0.00130773 0.000233559
0.00546685 -0.000829193 0.00150246
0.00592771 -0.000126694 0.00188241
0.00527836 -0.00118214 0.000638314
0.00578208 -0.000178869 0.0019012
0.00634567 0.00195798 -0.00157317
0.00563651 -0.00018301 0.00188676
0.00519191 -0.00130959 0.000243493
0.00599947 0.00228225 -0.00169215
0.00533587 -0.00138578 0.000267675
0.00519131 -0.00132872 0.000251692
0.00689605 0.00185271 -0.00157985
0.00570127 -0.000176027 0.00189203
0.00522557 -0.00132609 0.000247989
0.00517472 -0.00131073 0.000243135
0.00632376 0.00200765 -0.00159711
0.0056858 -0.000198572 0.00189408
0.00521954 -0.00120365 0.000630449
0.00565214 0.00199273 -0.0015205
0.00582969 -0.000158543 0.00189062
0.00531821 -0.00119163 0.000647447
0.00561301 0.000287996 -1.85899e-05
0.0062679 0.00203999 -0.0016005
0.00554824 -0.00126529 0.000668512
0.00547993 0.000310643 -3.16648e-05
0.00554909 -0.00126354 0.000669519
0.00624823 0.00205443 -0.00161274
-5.01941e-15 -7.41184e-15 7.69803e-14
0.00520821 -0.00131249 0.000245815
0.00565798 -0.000150248 0.00187909
0.00518525 -0.00131877 0.000246892
0.00547738 -0.00118285 0.000646965
0.00778765 0.00161362 -0.00155626
0.0054852 0.000322753 -3.83158e-05
0.0056851 0.000327304 -3.53861e-05
0.00538905 -0.00119172 0.00064255
0.0052254 -0.00129443 0.000233587
0.00541339 -0.00121664 0.000653037
0.00673724 0.00191057 -0.00159111
0.00621688 0.000184291 -5.915e-05
0.00548099 -0.00122616 0.00066008
0.00524072 -0.00133544 0.000251317
0.00589049 -0.000131937 0.00188422
0.00563757 0.000537995 -0.00013393
0.00528577 -0.00131674 0.00024002
0.00628066 0.000420246 6.95084e-05
0.00609985 0.000103538 -7.11753e-05
0.00528976 -0.00130433 0.000233764
0.0057043 0.000300986 -2.16092e-05
0.00554512 0.000297965 -2.47031e-05
0.00592935 0.00227818 -0.00168309
0.00631634 0.000172175 -6.98398e-05
0.0051721 -0.0013095 0.000243787
0.00540108 -0.00132194 0.000233915
0.00524673 -0.00127824 0.000265678
0.00547991 -0.00123153 0.000660041
0.00544767 -0.00120921 0.000655076
0.00550262 0.000290206 -2.18215e-05
0.00520631 -0.00196123 -0.00138956
0.00589571 -0.000873755 0.000672435
0.0054509 -0.00122679 0.000654963
0.00522644 -0.00119563 0.000629301
0.00523295 -0.00128304 0.000234756
0.00628922 -7.51304e-05 -0.000603005
0.00570923 -0.000491354 0.00128223
0.00561269 0.000351534 -4.77498e-05
0.00527012 -0.0011754 0.000634151
0.00562407 0.000350869 -4.91795e-05
4.2058e-15 1.05168e-14 8.29607e-14
2.73478e-22 -3.03968e-22 -5.81428e-22
0.0057802 -0.000226081 -0.000135524
0.006237 -3.97038e-05 -0.000617336
0.00552309 0.000314043 -3.21582e-05
0.00632375 0.000419414 8.53261e-05
0.00549706 -0.00124903 0.000662872
0.00555205 -0.00125526 0.000670008
0.00540182 -0.00132284 0.000234377
0.0054834 -0.00132571 0.000230167
0.0054997 0.000312651 -3.33324e-05
0.00549325 0.000333927 -4.10766e-05
0.00556025 0.000332834 -4.02785e-05
0.00520218 -0.00131629 0.000244905
0.00522185 -0.00119052 0.000628539
0.00521955 -0.00127017 0.000329943
0.00551083 0.000300498 -2.65421e-05
0.00552094 -0.00125676 0.000665217
0.00544964 -0.00135521 0.000245951
0.00543309 -0.00126404 0.00066669
0.00522217 -0.00129021 0.000230819
0.0062616 0.000163412 -5.76404e-05
0.00547761 -0.00132884 0.000228217
0.00522269 -0.00128928 0.000236159
0.00630654 -8.34185e-05 -0.000600435
0.00587841 -0.000238802 0.00166484
0.00551027 -0.00119775 0.00067207
0.00556612 0.000326377 -3.19865e-05
0.00559584 0.000329635 -3.77794e-05
0.00523406 -0.00134854 0.000257418
0.00550089 -0.00124836 0.000662953
0.00523341 -0.00118974 0.000631278
0.00535433 -0.00120607 0.000647413
0.00546832 0.000320617 -3.60934e-05
0.00552161 -0.0012483 0.000658173
0.00526705 -0.00121237 0.000636041
0.00525515 -0.00131102 0.000239448
0.00620196 0.000299078 -0.000812837
0.0056606 0.000297128 -2.23036e-05
0.00633403 -0.000101637 -0.000607711
0.00555753 0.000314058 -3.0274e-05
0.00627156 -6.73607e-05 -0.00060493
0.00554548 0.000320224 -3.44147e-05
0.00602552 0.000582633 -0.000146069
0.00550131 -0.00130966 0.000228032
0.00632466 0.000193177 -3.31279e-06
0.00568156 0.000357086 -4.762e-05
0.00573094 0.000293928 -1.91392e-05
0.00626538 -4.01683e-05 -0.000620161
0.00553646 0.000334881 -3.22955e-05
0.00612215 -2.8417e-05 -0.000612095
-3.83526e-14 8.16626e-14 2.95886e-13
0.00575066 0.000278526 -1.15455e-05
0.00521778 -0.00133988 0.000254988
0.00564796 0.000361355 -5.15679e-05
0.00617912 0.000147824 0.000148399
0.00617152 -5.63792e-05 -0.000600404
0.00572135 -0.000107557 0.000161081
0.0052458 -0.00120922 0.000632737
0.00571873 0.00033435 -3.712e-05
0.00631041 0.000120811 3.95052e-05
0.00604748 0.000256675 -4.54447e-06
0.00631807 0.000129072 6.66536e-05
0.00554096 -0.00128285 0.000668629
0.00547993 0.000335223 -4.17559e-05
0.00554845 -0.00130487 0.000669301
0.00612418 -6.15653e-05 -0.000593574
0.00547644 0.000332178 -4.11626e-05
0.00624426 -6.09165e-05 -0.000604861
0.00564339 0.000303805 -3.4787e-05
0.00567262 0.000324258 -5.34684e-05
0.00553694 -0.00127892 0.000669962
0.00554205 0.000333321 -4.0069e-05
0.00546606 -0.00124306 0.000657642
0.00558993 0.000312129 -2.94074e-05
0.00629088 0.000162716 -7.82806e-05
0.00548869 -0.00123983 0.000663136
0.00521304 -0.00129191 0.000231407
0.00545487 -0.00126935 0.00066094
0.00593091 0.000155969 -0.000352464
0.00548179 -0.00131665 0.00022484
0.00551361 0.00033106 -4.01302e-05
0.00555074 -0.00126751 0.000669659
0.00638614 -2.36243e-05 -9.39463e-05
0.00559424 -0.000247292 0.000217965
0.00565692 0.000306118 -2.77793e-05
0.00568111 0.000379555 0.000379512
0.00557661 0.000291216 -2.07217e-05
0.00558623 -0.000251965 0.000222335
0.00630526 -4.38806e-05 -0.000621856
0.00618766 -5.70108e-05 0.000148079
0.00578689 0.000547863 -0.00013218
0.00527139 -0.00118876 0.000632081
0.00598168 -0.000305804 0.000263936
0.00604697 0.000154647 -0.000704846
0.00572608 0.000287285 -1.86035e-05
0.00616405 -3.87604e-05 -0.000610453
0.00563626 0.000289147 -1.86629e-05
0.00548712 0.000295578 -2.44962e-05
0.00548207 -0.00132905 0.000232357
0.00547767 -0.0013332 0.000233984
0.0061902 -7.52018e-05 0.000173743
0.00548154 -0.00125522 0.000647968
0.00526326 -0.00129992 0.000233559
0.00559836 0.000232424 -0.000346254
0.00618909 -3.99247e-05 -0.000612103
0.00554279 -0.00128153 0.000670278
0.00557696 0.000342811 -4.36836e-05
0.00556842 -0.00118077 0.000451602
0.00562231 0.000333977 -3.98e-05
0.00523133 -0.00128208 0.000313941
0.00575374 0.00028873 -1.63659e-05
0.00546488 -0.00132768 0.000233
0.00566515 0.000286742 -1.7795e-05
0.00558943 0.000232887 -0.000345905
0.00557944 0.000241576 -0.000346541
0.00629628 0.000181788 -6.70742e-05
0.00574623 0.000293721 -1.75443e-05
0.00618251 0.000216004 -5.7204e-05
0.00568693 0.000348992 -4.48123e-05
0.00523567 -0.00130049 0.000235235
0.00572986 0.000131513 -0.000373029
0.00548344 0.000333742 -4.08719e-05
0.00548243 0.00033336 -4.23558e-05
0.00614367 0.000115869 0.000174219
0.00576296 0.000159941 0.00012026
0.00614981 0.000116904 0.000173626
0.00613802 -3.84509e-05 -0.000607958
0.00563734 0.000306419 -2.7658e-05
0.00569117 0.000173506 0.000104077
0.00578982 0.000451169 0.000488602
0.00610364 -6.56798e-05 -0.000587975
0.00561282 0.00031628 -5.37281e-05
0.00553201 0.000465477 0.000439964
0.00611897 -5.41707e-05 -0.000596357
0.00538364 -0.0012268 0.000194191
0.00563019 0.000234988 -0.000325009
0.00590785 0.000164821 -0.000352722
0.00555735 0.000465478 0.000443492
0.00625678 0.000171127 -6.46225e-05
0.00627025 0.00016913 -6.38619e-05
0.00572194 0.000272833 -1.01628e-05
0.00567659 0.000314986 -3.189e-05
0.00562427 0.000233783 -0.000347076
0.0057053 0.000311208 -3.13371e-05
0.00547729 0.000337946 -4.4207e-05
0.00583675 0.000378909 -6.14522e-05
0.00563518 0.000454936 0.000463413
0.00621961 -5.78785e-05 -0.000605003
0.0059618 0.000153244 -0.000353904
0.0056416 0.000330781 -3.78714e-05
0.00610408 -3.83444e-05 -0.000602533
0.00552926 0.000301074 -2.59486e-05
0.00561756 0.000309929 -2.78405e-05
0.00526167 -0.00120986 0.000643196
0.00573108 0.000298411 -4.82396e-05
0.00558977 0.000237094 -0.000346396
0.00573037 0.000288613 -1.53968e-05
0.00560062 0.000238186 -0.000346198
0.00614705 -5.80176e-05 -0.000597626
0.00615848 -3.30016e-05 -0.000613252
0.00606874 -6.02803e-05 -0.000578387
0.00550342 0.00031716 -3.35244e-05
0.0059133 0.000136075 -0.000348421
0.0055748 0.00023578 -0.000345359
0.00566931 0.000330029 -3.6344e-05
0.00573586 0.000164743 0.000113534
0.00575094 0.000290294 -1.81101e-05
0.00566171 0.000422774 -7.51109e-05
0.00619599 -5.65641e-05 -0.000603393
0.00573622 0.000242617 -0.000133916
0.00567533 0.000303405 -2.56207e-05
0.00621322 -3.95463e-05 -0.000614451
0.0055479 0.000424001 -7.87314e-05
0.00605568 -0.000392024 -0.000132506
0.00601475 0.000272473 -4.32752e-05
0.00553502 0.000407543 -7.72636e-05
0.00556245 0.000323911 -3.59091e-05
0.00572864 0.000204478 -0.000349048
0.00587083 1.1385e-05 -0.000533835
0.00550305 -0.00124502 0.000663443
0.0056712 0.000246497 0.000201648
0.00571009 0.000454792 0.000473423
0.00526552 -0.00134408 0.000163373

VECTORS force float
-1.38289e-10 2.46042e-11 -3.56262e-12
-1.57919e-10 -2.94938e-11 1.24103e-11
-7.0081e-11 2.43777e-11 -1.1582e-11
-9.63202e-10 3.28947e-11 -2.6971e-10
5.44791e-12 2.5566e-11 -1.27034e-11
3.80216e-11 8.94316e-11 1.44225e-10
-1.51155e-10 2.28019e-10 -1.00007e-10
-2.54152e-13 -5.00269e-12 2.4246e-12
-1.77858e-10 1.47771e-10 -5.40599e-11
-1.12959e-10 8.24936e-11 -2.19722e-11
-4.57673e-11 6.22159e-11 -2.79346e-11
3.801e-10 2.35943e-10 3.68488e-10
2.04509e-10 2.24382e-10 -1.27919e-10
4.0826e-10 -3.29828e-10 3.41716e-10
1.965e-11 2.55936e-10 -2.73398e-11
-1.44014e-11 -6.60361e-11 1.50749e-11
-1.47141e-10 1.8469e-10 -2.4404e-11
1.66612e-10 -4.5013e-11 1.4279e-11
-2.65971e-10 -3.74337e-11 1.91562e-11
-1.34609e-13 3.9046e-12 -5.09692e-13
6.74427e-10 -1.69383e-10 4.84496e-10
2.19172e-12 8.21626e-13 -6.09038e-13
1.88145e-11 -1.31101e-11 1.88447e-11
-4.99555e-11 5.25092e-11 -2.19413e-11
8.22848e-10 -1.37453e-10 3.43853e-10
-9.41264e-11 -1.2474e-10 1.44478e-10
-1.03893e-10 6.52084e-11 -3.54445e-11
1.92781e-10 -1.42427e-10 3.90424e-10
3.07524e-11 1.92968e-11 -3.15213e-11
3.61312e-10 -5.14298e-11 3.4986e-10
1.72208e-10 8.75718e-11 -2.77776e-11
-5.08883e-12 -3.10209e-11 1.50847e-11
-1.92884e-10 7.61176e-11 -1.7247e-11
4.55502e-12 6.03049e-11 -1.7312e-11
1.33658e-12 -8.32534e-13 2.84622e-13
3.36035e-10 -3.84903e-12 3.78335e-11
-2.26782e-10 5.86468e-12 1.14635e-11
-1.98017e-10 -3.1121e-11 5.91282e-11
8.74622e-11 -1.23906e-11 -1.6078e-11
1.63853e-10 1.17275e-10 1.00463e-10
5.05076e-11 1.19067e-10 1.19174e-12
1.08105e-09 -8.56662e-10 2.11755e-10
-4.34701e-10 -2.77968e-10 7.3579e-11
5.47735e-12 7.54175e-11 -7.85346e-12
-6.53863e-11 7.86223e-11 -3.89689e-11
1.70821e-10 6.50714e-11 -2.95347e-10
1.171e-10 -1.66714e-11 9.22397e-13
-9.49864e-12 1.89785e-10 -9.86627e-11
3.69122e-11 -6.03284e-11 4.90908e-12
-3.60867e-10 1.03111e-10 4.04556e-11
-3.23117e-25 -4.2393e-24 -2.06795e-25
3.38843e-11 -2.19888e-11 5.70802e-11
-1.20006e-10 -2.7223e-11 -7.68401e-11
1.61597e-10 5.82752e-11 -4.21425e-11
-8.53263e-11 1.76783e-11 5.58656e-12
7.07772e-11 -8.10496e-11 5.16408e-11
-7.62519e-11 9.38232e-11 -3.22098e-11
-9.89233e-11 -4.54053e-11 1.45738e-11
4.50916e-11 1.08733e-10 7.90109e-12
-2.13605e-10 -4.37777e-11 2.46779e-11
-1.31517e-10 1.09588e-10 -1.51142e-11
-2.74894e-14 -4.09435e-12 1.93816e-12
3.51203e-10 -3.33972e-10 -3.51084e-11
5.8359e-12 -2.08068e-11 -4.98377e-12
-2.49427e-10 2.63835e-11 3.06934e-12
-2.23528e-10 -1.04787e-10 1.61098e-10
-1.20422e-11 -8.50774e-11 -1.7511e-11
-6.03721e-11 -3.69159e-11 3.04053e-11
1.45038e-10 -5.27085e-11 2.25852e-10
3.49777e-10 -3.64046e-10 -1.04566e-10
-2.26653e-10 -2.56729e-11 3.12987e-11
-1.1395e-10 8.46843e-11 3.34739e-13
-1.15971e-10 3.66622e-11 -1.95141e-11
-2.97389e-12 -3.2242e-11 1.57418e-11
2.58909e-11 1.76357e-11 2.77946e-10
-1.52199e-10 -2.9046e-11 2.24037e-11
5.82343e-11 1.03384e-10 -4.88823e-11
3.20276e-11 -7.81948e-11 -3.34979e-11
-2.22907e-10 9.86179e-11 -2.76707e-11
-2.26622e-11 1.07962e-10 1.03777e-11
-2.44676e-11 2.65819e-11 -1.47491e-11
2.162e-11 9.38791e-11 1.91103e-10
-2.63128e-10 3.54626e-10 5.96527e-11
-8.89389e-11 3.62951e-11 -4.7531e-12
-1.06736e-11 -6.6432e-11 4.18107e-11
9.37965e-12 -2.80592e-11 5.32621e-11
3.79833e-11 2.62511e-11 -1.47037e-11
-3.43074e-12 1.80613e-10 4.37909e-11
-1.5795e-11 1.45898e-10 -1.74695e-11
6.60743e-11 1.55454e-10 1.59845e-10
1.7314e-10 3.19315e-11 1.33974e-11
1.80757e-21 -2.52626e-22 -4.73561e-23
0.0 0.0 0.0
2.28999e-11 -3.19228e-10 1.95447e-10
-3.30209e-11 -4.20449e-11 1.63974e-11
-4.22741e-11 3.2632e-11 1.63666e-11
5.37636e-11 -6.80705e-12 1.54004e-10
-7.64595e-11 -1.66164e-11 -9.42155e-12
1.46013e-10 3.69842e-11 1.17112e-11
-1.04703e-10 -6.12086e-12 2.25088e-11
4.44901e-11 8.64851e-11 -6.67688e-11