# vtk DataFile Version 3.0
LIGGGHTS particles timestep 61400000
ASCII
DATASET POLYDATA
POINTS 269 float
0.371113 0.0178524 0.00700304
0.370859 0.0167858 0.0076766
0.371075 0.0169152 0.00757803
0.37062 0.0159011 0.0082849
0.376836 0.0166084 0.00759521
0.37121 0.0174797 0.00718607
0.370867 0.0164867 0.00787756
0.377036 0.0174938 0.00719835
0.371008 0.0166723 0.00774517
0.371304 0.0179185 0.0069998
0.365312 0.0174856 0.00722381
0.370598 0.0158207 0.0083402
0.365482 0.0182745 0.0069735
0.365319 0.0184458 0.00697786
0.370772 0.0164642 0.00789785
0.371152 0.0180481 0.00698939
0.371246 0.01764 0.00707146
0.371031 0.0167535 0.00768928
0.365417 0.0180867 0.00696662
0.376956 0.0171279 0.00733771
0.376996 0.0173092 0.00726384
0.364895 0.0165852 0.00780962
0.371262 0.0178158 0.00710394
0.370576 0.0157402 0.00839551
0.370728 0.0163032 0.00800837
0.37136 0.0177553 0.00701186
0.247451 0.0181454 0.00545794
0.376854 0.0166745 0.00752238
0.371173 0.0173195 0.0073006
0.377095 0.0177771 0.00711989
0.371053 0.0168339 0.00763398
0.371136 0.0171574 0.00741176
0.376976 0.0172185 0.00730078
0.370663 0.0160619 0.00817429
0.371117 0.0170764 0.00746729
0.371305 0.0175054 0.00716661
0.376874 0.0167652 0.00748545
0.370685 0.0161424 0.00811898
0.371057 0.0175867 0.00711184
0.377056 0.0175882 0.0071722
0.361387 0.0179678 0.00775632
0.371379 0.0178531 0.00700504
0.365365 0.0177332 0.00706319
0.376915 0.0169465 0.00741158
0.371307 0.0183743 0.00695435
0.365025 0.0170767 0.00749066
0.371191 0.0182434 0.0069714
0.376894 0.0168559 0.00744851
0.378022 0.019866 0.005332
0.371323 0.0175855 0.00710974
0.370641 0.0159815 0.00822959
0.371154 0.0172389 0.00735682
0.371382 0.0183088 0.00695901
0.376935 0.0170372 0.00737465
0.365058 0.0175536 0.00728782
0.365194 0.01782 0.00700842
0.371263 0.0177214 0.00701352
0.37102 0.0170511 0.00749021
0.371418 0.0180482 0.00698518
0.377016 0.0174 0.00722681
0.365299 0.0183478 0.0069744
0.371323 0.0180162 0.00699128
0.371097 0.0169957 0.00752269
0.370707 0.0162228 0.00806369
0.36496 0.0168309 0.00765017
0.37088 0.0168665 0.00762165
0.364504 0.0154441 0.00859693
0.365339 0.0185437 0.00698132
0.370977 0.0168897 0.00760039
0.365237 0.0179644 0.00696097
0.36533 0.0175681 0.0071703
0.377076 0.0176827 0.00714605
0.365167 0.0181315 0.00704173
0.371286 0.0174253 0.00722364
0.370933 0.0167286 0.00771116
0.371079 0.0172931 0.00732061
0.371438 0.0181457 0.00697443
0.371284 0.0178207 0.00700661
0.365152 0.0172 0.00740987
0.370984 0.0172667 0.00734061
0.371098 0.0176702 0.00715425
0.371228 0.0179836 0.00699458
0.371169 0.0178486 0.00708554
0.370966 0.0171868 0.00739779
0.364582 0.0157393 0.00835515
0.370824 0.0163258 0.0079882
0.365028 0.0174668 0.00724859
0.371228 0.0175599 0.00712872
0.365045 0.0175444 0.00718795
0.0643568 0.0187248 0.00531097
0.230779 0.0182774 0.00551293
0.365284 0.0187072 0.00698636
0.364604 0.0158224 0.0083039
0.365065 0.0172423 0.00738319
0.364523 0.015489 0.00850962
0.371362 0.0182113 0.00696976
0.37121 0.0183409 0.00696064
0.371059 0.0175096 0.00726688
0.370837 0.0167054 0.00773185
0.365063 0.0176377 0.00723385
0.364929 0.0170513 0.00750785
0.36499 0.0172977 0.00734797
0.371267 0.0173449 0.00728009
0.371152 0.0176131 0.00709209
0.371191 0.0173996 0.00724332
0.365171 0.0172824 0.00735641
0.371343 0.0181137 0.00698053
0.370987 0.0165918 0.00780047
0.371247 0.0180813 0.00698668
0.370945 0.0171072 0.00745469
0.365204 0.0183151 0.00697249
0.370845 0.0164062 0.00793289
0.37106 0.0172131 0.00737782
0.364561 0.015656 0.00840652
0.37075 0.0163837 0.00795307
0.371246 0.0179346 0.00708004
0.365104 0.0174074 0.00727611
0.365122 0.0174898 0.00722261
0.371249 0.0172632 0.00733461
0.37117 0.0176936 0.00703554
0.371134 0.017533 0.0071491
0.371399 0.0179508 0.00699652
0.365003 0.0169947 0.00754388
0.37125 0.0185358 0.00693914
0.371021 0.0174266 0.00722628
0.370902 0.0169473 0.00756682
0.365004 0.0166261 0.00778228
0.365366 0.0179044 0.00696005
0.364541 0.0155727 0.00845796
0.365209 0.0174471 0.00724955
0.364712 0.0162325 0.00803934
0.365084 0.017325 0.00732951
0.365025 0.016708 0.00772914
0.370793 0.0165445 0.00784246
0.365147 0.0180402 0.00707773
0.365082 0.0177094 0.00708094
0.365047 0.0167899 0.007676
0.353185 0.0182218 0.0069564
0.365104 0.0177105 0.00717849
0.364982 0.0165442 0.00783542
0.0219312 0.0187687 0.00551176
0.365091 0.0169536 0.00756971
0.371333 0.0178837 0.00708863
0.365064 0.0176269 0.00713444
0.365338 0.0182925 0.00704797
0.365034 0.0173952 0.00739007
0.365137 0.0179716 0.00696036
0.371039 0.0175066 0.00716905
0.365126 0.0178462 0.00710716
0.365231 0.0181473 0.00696707
0.365133 0.017946 0.00710807
0.365156 0.0180697 0.00696382
0.371287 0.0182763 0.00696517
0.364907 0.0169694 0.00756099
0.371171 0.0181459 0.00698215
0.364669 0.016069 0.00814597
0.365133 0.0171177 0.00746327
0.364993 0.0173222 0.00744486
0.365208 0.0179131 0.00704204
0.365265 0.0179414 0.00711967
0.371132 0.0179502 0.00699621
0.364971 0.0172154 0.00740138
0.371208 0.0178857 0.00700139
0.365226 0.0175297 0.00719599
0.365186 0.0182247 0.00701113
0.371189 0.0177879 0.00700821
0.371041 0.0171321 0.00743385
0.37117 0.0179993 0.00707469
0.359209 0.0183471 0.00700622
0.370815 0.016625 0.00778722
0.36495 0.0171332 0.00745467
0.37123 0.0184383 0.00694989
0.365397 0.0183266 0.00697452
0.365275 0.0180568 0.0069644
0.36528 0.0177773 0.0070354
0.358903 0.0169419 0.00755915
0.365348 0.0176507 0.00711675
0.365459 0.0181773 0.00697003
0.364936 0.016377 0.00794399
0.365332 0.0181387 0.00696764
0.365112 0.0170356 0.00751654
0.371115 0.017453 0.00720627
0.365416 0.0184247 0.00697798
0.364873 0.0165033 0.00786278
0.364829 0.0163394 0.00796918
0.365368 0.0178172 0.00700888
0.365046 0.0171594 0.00743695
0.370889 0.0165672 0.00782219
0.370911 0.0166482 0.00776646
0.365374 0.0182294 0.00697105
0.371093 0.0177545 0.00700983
0.370998 0.0169703 0.00754534
0.35912 0.017862 0.00702498
0.364647 0.0159868 0.00819869
0.371267 0.0181788 0.00697593
0.365008 0.0173801 0.0072945
0.371078 0.0175895 0.00720958
0.36514 0.0175724 0.00716909
0.371341 0.0176664 0.00705384
0.364916 0.0166671 0.00775647
0.370955 0.0168093 0.0076557
0.36536 0.0180048 0.00696338
0.359132 0.0179549 0.00699008
0.359074 0.0176742 0.00707011
0.365275 0.0182445 0.00697072
0.364799 0.01656 0.0078267
0.365263 0.0186092 0.00698287
0.3651 0.0177919 0.00702739
0.370924 0.0170274 0.00751109
0.364755 0.0163963 0.00793298
0.364864 0.0168057 0.00766727
0.364886 0.0168875 0.00761413
0.358797 0.0166298 0.00793504
0.358861 0.0168151 0.00770784
0.358776 0.016568 0.00801077
0.36496 0.0164624 0.00788856
0.365262 0.0176947 0.00708895
0.358818 0.0166916 0.0078593
0.359003 0.0173396 0.00727652
0.365223 0.0178218 0.00710413
0.358942 0.0170895 0.00743064
0.383322 0.0177821 0.00780465
0.371097 0.017373 0.00726345
0.359019 0.0174235 0.00722472
0.35919 0.0182489 0.00700217
0.358962 0.0171738 0.00738084
0.365243 0.0185112 0.00697941
0.365224 0.0184131 0.00697595
0.365069 0.0168718 0.00762285
0.365239 0.0180112 0.00704929
0.359039 0.017507 0.00717329
0.365117 0.0178745 0.00697385
0.365313 0.0178606 0.00708009
0.365202 0.0177342 0.00715856
0.358923 0.0170115 0.00749022
0.365077 0.0174742 0.00734561
0.359228 0.0184452 0.00701025
0.365158 0.0176549 0.00711557
0.36519 0.0173646 0.00730305
0.365244 0.0176122 0.00714248
0.371104 0.0177606 0.00710901
0.365268 0.0181068 0.00705077
0.359094 0.017766 0.00703575
0.364851 0.0164214 0.00791592
0.359061 0.0175911 0.00712418
0.365133 0.0173977 0.00737801
0.36469 0.0161506 0.00809241
0.365184 0.0176512 0.00721203
0.359304 0.0183794 0.00700615
0.359151 0.018053 0.00699414
0.365176 0.0177374 0.00706205
0.35884 0.0167533 0.00778358
0.36482 0.0166419 0.00777356
0.364938 0.016749 0.00770332
0.365555 0.0182059 0.00697181
0.364777 0.0164781 0.00787984
0.365272 0.0178719 0.00697427
0.364625 0.015905 0.00825186
0.364981 0.0169128 0.00759703
0.36536 0.0186414 0.00698479
0.365315 0.0181953 0.00704829
0.365316 0.0179495 0.00703437
0.364842 0.0167238 0.00772041
0.35917 0.018151 0.00699815
0.364734 0.0163144 0.00798612
0.371076 0.017668 0.00705687
0.358882 0.0168767 0.00763213
0.358982 0.0172564 0.00732779
0.371003 0.0173466 0.00728346

VERTICES 269 538
1 0
1 1
1 2
1 3
1 4
1 5
1 6
1 7
1 8
1 9
1 10
1 11
1 12
1 13
1 14
1 15
1 16
1 17
1 18
1 19
1 20
1 21
1 22
1 23
1 24
1 25
1 26
1 27
1 28
1 29
1 30
1 31
1 32
1 33
1 34
1 35
1 36
1 37
1 38
1 39
1 40
1 41
1 42
1 43
1 44
1 45
1 46
1 47
1 48
1 49
1 50
1 51
1 52
1 53
1 54
1 55
1 56
1 57
1 58
1 59
1 60
1 61
1 62
1 63
1 64
1 65
1 66
1 67
1 68
1 69
1 70
1 71
1 72
1 73
1 74
1 75
1 76
1 77
1 78
1 79
1 80
1 81
1 82
1 83
1 84
1 85
1 86
1 87
1 88
1 89
1 90
1 91
1 92
1 93
1 94
1 95
1 96
1 97
1 98
1 99
1 100
1 101
1 102
1 103
1 104
1 105
1 106
1 107
1 108
1 109
1 110
1 111
1 112
1 113
1 114
1 115
1 116
1 117
1 118
1 119
1 120
1 121
1 122
1 123
1 124
1 125
1 126
1 127
1 128
1 129
1 130
1 131
1 132
1 133
1 134
1 135
1 136
1 137
1 138
1 139
1 140
1 141
1 142
1 143
1 144
1 145
1 146
1 147
1 148
1 149
1 150
1 151
1 152
1 153
1 154
1 155
1 156
1 157
1 158
1 159
1 160
1 161
1 162
1 163
1 164
1 165
1 166
1 167
1 168
1 169
1 170
1 171
1 172
1 173
1 174
1 175
1 176
1 177
1 178
1 179
1 180
1 181
1 182
1 183
1 184
1 185
1 186
1 187
1 188
1 189
1 190
1 191
1 192
1 193
1 194
1 195
1 196
1 197
1 198
1 199
1 200
1 201
1 202
1 203
1 204
1 205
1 206
1 207
1 208
1 209
1 210
1 211
1 212
1 213
1 214
1 215
1 216
1 217
1 218
1 219
1 220
1 221
1 222
1 223
1 224
1 225
1 226
1 227
1 228
1 229
1 230
1 231
1 232
1 233
1 234
1 235
1 236
1 237
1 238
1 239
1 240
1 241
1 242
1 243
1 244
1 245
1 246
1 247
1 248
1 249
1 250
1 251
1 252
1 253
1 254
1 255
1 256
1 257
1 258
1 259
1 260
1 261
1 262
1 263
1 264
1 265
1 266
1 267
1 268

POINT_DATA 269
SCALARS id int 1
LOOKUP_TABLE default
1
2
4
5
6
7
8
9
10
11
12
13
14
16
17
19
21
22
23
24
26
27
28
29
30
31
32
33
35
36
37
38
39
41
42
44
45
47
48
49
50
51
52
53
54
55
56
57
59
60
61
62
63
64
65
66
67
68
69
70
71
72
73
74
76
77
78
79
80
82
83
84
85
86
87
88
89
90
91
92
93
94
95
96
97
98
99
100
101
102
103
104
105
106
107
108
109
110
111
112
113
114
115
116
117
118
119
120
121
122
123
124
125
127
128
129
130
131
132
133
134
135
136
137
138
140
141
142
143
144
146
147
148
149
150
151
153
154
155
156
157
158
159
160
162
164
165
166
167
168
169
170
171
172
173
174
176
177
178
179
182
183
184
185
186
187
188
189
190
191
192
193
194
195
196
197
198
199
200
201
202
203
204
206
207
208
209
210
211
212
213
214
215
216
217
218
219
220
222
224
225
226
227
228
229
230
232
233
234
235
236
237
239
240
241
242
243
244
246
248
249
250
251
252
253
254
255
256
257
258
259
260
261
262
263
264
265
266
268
269
270
271
272
273
274
275
276
278
279
280
281
283
284
285
286
287
288
289
290
291
292
293
294
295
296
297
298
299
300

SCALARS type int 1
LOOKUP_TABLE default
1
1
1
1
1
1
1
1
1
1
1
1
1
1
1
1
1
1
1
1
1
1
1
1
1
1
1
1
1
1
1
1
1
1
1
1
1
1
1
1
1
1
1
1
1
1
1
1
1
1
1
1
1
1
1
1
1
1
1
1
1
1
1
1
1
1
1
1
1
1
1
1
1
1
1
1
1
1
1
1
1
1
1
1
1
1
1
1
1
1
1
1
1
1
1
1
1
1
1
1
1
1
1
1
1
1
1
1
1
1
1
1
1
1
1
1
1
1
1
1
1
1
1
1
1
1
1
1
1
1
1
1
1
1
1
1
1
1
1
1
1
1
1
1
1
1
1
1
1
1
1
1
1
1
1
1
1
1
1
1
1
1
1
1
1
1
1
1
1
1
1
1
1
1
1
1
1
1
1
1
1
1
1
1
1
1
1
1
1
1
1
1
1
1
1
1
1
1
1
1
1
1
1
1
1
1
1
1
1
1
1
1
1
1
1
1
1
1
1
1
1
1
1
1
1
1
1
1
1
1
1
1
1
1
1
1
1
1
1
1
1
1
1
1
1
1
1
1
1
1
1
1
1
1
1
1
1
1
1
1
1
1
1
1
1
1
1
1
1

SCALARS radius float 1
LOOKUP_TABLE default
5e-05
5e-05
5e-05
5e-05
5e-05
5e-05
5e-05
5e-05
5e-05
5e-05
5e-05
5e-05
5e-05
5e-05
5e-05
5e-05
5e-05
5e-05
5e-05
5e-05
5e-05
5e-05
5e-05
5e-05
5e-05
5e-05
5e-05
5e-05
5e-05
5e-05
5e-05
5e-05
5e-05
5e-05
5e-05
5e-05
5e-05
5e-05
5e-05
5e-05
5e-05
5e-05
5e-05
5e-05
5e-05
5e-05
5e-05
5e-05
5e-05
5e-05
5e-05
5e-05
5e-05
5e-05
5e-05
5e-05
5e-05
5e-05
5e-05
5e-05
5e-05
5e-05
5e-05
5e-05
5e-05
5e-05
5e-05
5e-05
5e-05
5e-05
5e-05
5e-05
5e-05
5e-05
5e-05
5e-05
5e-05
5e-05
5e-05
5e-05
5e-05
5e-05
5e-05
5e-05
5e-05
5e-05
5e-05
5e-05
5e-05
5e-05
5e-05
5e-05
5e-05
5e-05
5e-05
5e-05
5e-05
5e-05
5e-05
5e-05
5e-05
5e-05
5e-05
5e-05
5e-05
5e-05
5e-05
5e-05
5e-05
5e-05
5e-05
5e-05
5e-05
5e-05
5e-05
5e-05
5e-05
5e-05
5e-05
5e-05
5e-05
5e-05
5e-05
5e-05
5e-05
5e-05
5e-05
5e-05
5e-05
5e-05
5e-05
5e-05
5e-05
5e-05
5e-05
5e-05
5e-05
5e-05
5e-05
5e-05
5e-05
5e-05
5e-05
5e-05
5e-05
5e-05
5e-05
5e-05
5e-05
5e-05
5e-05
5e-05
5e-05
5e-05
5e-05
5e-05
5e-05
5e-05
5e-05
5e-05
5e-05
5e-05
5e-05
5e-05
5e-05
5e-05
5e-05
5e-05
5e-05
5e-05
5e-05
5e-05
5e-05
5e-05
5e-05
5e-05
5e-05
5e-05
5e-05
5e-05
5e-05
5e-05
5e-05
5e-05
5e-05
5e-05
5e-05
5e-05
5e-05
5e-05
5e-05
5e-05
5e-05
5e-05
5e-05
5e-05
5e-05
5e-05
5e-05
5e-05
5e-05
5e-05
5e-05
5e-05
5e-05
5e-05
5e-05
5e-05
5e-05
5e-05
5e-05
5e-05
5e-05
5e-05
5e-05
5e-05
5e-05
5e-05
5e-05
5e-05
5e-05
5e-05
5e-05
5e-05
5e-05
5e-05
5e-05
5e-05
5e-05
5e-05
5e-05
5e-05
5e-05
5e-05
5e-05
5e-05
5e-05
5e-05
5e-05
5e-05
5e-05
5e-05
5e-05
5e-05
5e-05
5e-05
5e-05
5e-05
5e-05
5e-05
5e-05
5e-05
5e-05
5e-05
5e-05
5e-05
5e-05
5e-05
5e-05
5e-05
5e-05
5e-05
5e-05
5e-05
5e-05
5e-05
5e-05
5e-05
5e-05

SCALARS mass float 1
LOOKUP_TABLE default
1.46608e-10
1.46608e-10
1.46608e-10
1.46608e-10
1.46608e-10
1.46608e-10
1.46608e-10
1.46608e-10
1.46608e-10
1.46608e-10
1.46608e-10
1.46608e-10
1.46608e-10
1.46608e-10
1.46608e-10
1.46608e-10
1.46608e-10
1.46608e-10
1.46608e-10
1.46608e-10
1.46608e-10
1.46608e-10
1.46608e-10
1.46608e-10
1.46608e-10
1.46608e-10
1.46608e-10
1.46608e-10
1.46608e-10
1.46608e-10
1.46608e-10
1.46608e-10
1.46608e-10
1.46608e-10
1.46608e-10
1.46608e-10
1.46608e-10
1.46608e-10
1.46608e-10
1.46608e-10
1.46608e-10
1.46608e-10
1.46608e-10
1.46608e-10
1.46608e-10
1.46608e-10
1.46608e-10
1.46608e-10
1.46608e-10
1.46608e-10
1.46608e-10
1.46608e-10
1.46608e-10
1.46608e-10
1.46608e-10
1.46608e-10
1.46608e-10
1.46608e-10
1.46608e-10
1.46608e-10
1.46608e-10
1.46608e-10
1.46608e-10
1.46608e-10
1.46608e-10
1.46608e-10
1.46608e-10
1.46608e-10
1.46608e-10
1.46608e-10
1.46608e-10
1.46608e-10
1.46608e-10
1.46608e-10
1.46608e-10
1.46608e-10
1.46608e-10
1.46608e-10
1.46608e-10
1.46608e-10
1.46608e-10
1.46608e-10
1.46608e-10
1.46608e-10
1.46608e-10
1.46608e-10
1.46608e-10
1.46608e-10
1.46608e-10
1.46608e-10
1.46608e-10
1.46608e-10
1.46608e-10
1.46608e-10
1.46608e-10
1.46608e-10
1.46608e-10
1.46608e-10
1.46608e-10
1.46608e-10
1.46608e-10
1.46608e-10
1.46608e-10
1.46608e-10
1.46608e-10
1.46608e-10
1.46608e-10
1.46608e-10
1.46608e-10
1.46608e-10
1.46608e-10
1.46608e-10
1.46608e-10
1.46608e-10
1.46608e-10
1.46608e-10
1.46608e-10
1.46608e-10
1.46608e-10
1.46608e-10
1.46608e-10
1.46608e-10
1.46608e-10
1.46608e-10
1.46608e-10
1.46608e-10
1.46608e-10
1.46608e-10
1.46608e-10
1.46608e-10
1.46608e-10
1.46608e-10
1.46608e-10
1.46608e-10
1.46608e-10
1.46608e-10
1.46608e-10
1.46608e-10
1.46608e-10
1.46608e-10
1.46608e-10
1.46608e-10
1.46608e-10
1.46608e-10
1.46608e-10
1.46608e-10
1.46608e-10
1.46608e-10
1.46608e-10
1.46608e-10
1.46608e-10
1.46608e-10
1.46608e-10
1.46608e-10
1.46608e-10
1.46608e-10
1.46608e-10
1.46608e-10
1.46608e-10
1.46608e-10
1.46608e-10
1.46608e-10
1.46608e-10
1.46608e-10
1.46608e-10
1.46608e-10
1.46608e-10
1.46608e-10
1.46608e-10
1.46608e-10
1.46608e-10
1.46608e-10
1.46608e-10
1.46608e-10
1.46608e-10
1.46608e-10
1.46608e-10
1.46608e-10
1.46608e-10
1.46608e-10
1.46608e-10
1.46608e-10
1.46608e-10
1.46608e-10
1.46608e-10
1.46608e-10
1.46608e-10
1.46608e-10
1.46608e-10
1.46608e-10
1.46608e-10
1.46608e-10
1.46608e-10
1.46608e-10
1.46608e-10
1.46608e-10
1.46608e-10
1.46608e-10
1.46608e-10
1.46608e-10
1.46608e-10
1.46608e-10
1.46608e-10
1.46608e-10
1.46608e-10
1.46608e-10
1.46608e-10
1.46608e-10
1.46608e-10
1.46608e-10
1.46608e-10
1.46608e-10
1.46608e-10
1.46608e-10
1.46608e-10
1.46608e-10
1.46608e-10
1.46608e-10
1.46608e-10
1.46608e-10
1.46608e-10
1.46608e-10
1.46608e-10
1.46608e-10
1.46608e-10
1.46608e-10
1.46608e-10
1.46608e-10
1.46608e-10
1.46608e-10
1.46608e-10
1.46608e-10
1.46608e-10
1.46608e-10
1.46608e-10
1.46608e-10
1.46608e-10
1.46608e-10
1.46608e-10
1.46608e-10
1.46608e-10
1.46608e-10
1.46608e-10
1.46608e-10
1.46608e-10
1.46608e-10
1.46608e-10
1.46608e-10
1.46608e-10
1.46608e-10
1.46608e-10
1.46608e-10
1.46608e-10
1.46608e-10
1.46608e-10
1.46608e-10
1.46608e-10
1.46608e-10
1.46608e-10
1.46608e-10
1.46608e-10
1.46608e-10
1.46608e-10
1.46608e-10
1.46608e-10
1.46608e-10
1.46608e-10
1.46608e-10
1.46608e-10

VECTORS velocity float
0.00560962 -2.70138e-05 4.7148e-05
0.00599152 -0.000232261 -0.000145412
0.00599781 -0.000214446 -0.000168496
0.00601973 -0.000226666 -0.000163039
0.00604863 -0.000854172 0.000373104
0.00574386 -1.06046e-05 -6.46936e-05
0.00599895 -0.000230208 -0.000159663
0.00547439 -0.00051497 0.000113887
0.00600099 -0.000222981 -0.000165178
0.00560192 -5.31522e-06 4.44985e-05
0.00549618 -0.000113381 2.89434e-05
0.00602163 -0.00022724 -0.000162781
0.00556145 -8.1115e-05 4.48393e-05
0.00555079 -0.000101645 4.47652e-05
0.00600442 -0.000228987 -0.000160519
0.00559005 -1.92099e-05 4.53981e-05
0.00564259 -3.9257e-05 -4.22058e-05
0.00599549 -0.000210943 -0.000172307
0.00558142 -8.8124e-05 4.50728e-05
0.00566632 -0.000359028 0.000736534
0.00569666 -0.000371069 0.000744297
0.00593216 -0.000184881 7.4542e-05
0.00562331 -9.61998e-06 4.50945e-05
0.00602344 -0.000228027 -0.000162317
0.00600925 -0.000226122 -0.000162897
0.00562477 7.81764e-06 4.2904e-05
3.69577e-15 -5.32117e-14 -2.74085e-13
0.00558024 -0.000344137 0.000721497
0.00580271 -7.49061e-05 -6.28311e-05
0.00537507 -0.000496373 0.000108413
0.00598244 -0.000207369 -0.00017292
0.00578137 -0.000183561 -0.000177628
0.00568516 -0.000363701 0.000740296
0.00601577 -0.000226046 -0.000163287
0.0057743 -0.000182819 -0.000179274
0.00573132 -6.3121e-05 -2.71101e-05
0.00559751 -0.000347008 0.000724664
0.00601402 -0.000225822 -0.000163317
0.00568204 -7.53852e-05 -1.93324e-05
0.00549571 -0.000517773 0.000112486
0.000270443 -0.0192986 0.00564987
0.00562294 1.0587e-05 4.49473e-05
0.00563254 -0.000106583 2.37692e-05
0.00563203 -0.000353139 0.000730782
0.00563234 -2.60472e-05 -0.000159364
0.00588764 -0.000115568 2.71951e-05
0.00561796 -4.08478e-05 -0.000158413
0.00561481 -0.000350072 0.000727664
-5.01958e-15 -7.41208e-15 7.69802e-14
0.00568536 -2.87348e-05 6.04177e-06
0.00601773 -0.000226321 -0.000163172
0.0058009 -0.000156073 -0.000136247
0.00565301 2.79888e-07 -0.000165778
0.005649 -0.000356008 0.000733618
0.00544704 -9.71094e-05 1.64498e-05
0.00562338 -0.000124122 3.48445e-05
0.00562904 -5.92814e-06 4.42565e-05
0.00592358 -0.000230419 -0.000562858
0.00565021 -5.7194e-06 -0.000167322
0.0054912 -0.000331577 0.00070994
0.00555594 -0.000102498 4.3609e-05
0.0056223 -2.6761e-05 -0.000159484
0.00579679 -0.000181681 -0.000181668
0.00601187 -0.000225838 -0.000163173
0.00595908 -0.000165765 5.61957e-05
0.00597539 -0.000227065 -0.000146132
0.0058293 -0.000554021 -4.86037e-05
0.00569181 -0.000129171 4.45284e-05
0.0059673 -0.000225532 -0.000159014
0.00561758 -0.000120027 4.33654e-05
0.00555041 -0.000118639 3.19304e-05
0.0055117 -0.000520977 0.000114367
0.00557743 -0.000102591 4.51469e-05
0.00576193 -0.000105926 -7.50867e-05
0.00599544 -0.000231282 -0.000156187
0.00578891 -8.04808e-05 -1.14228e-05
0.0056622 -1.54541e-06 -0.000162257
0.00561543 -6.27926e-06 4.42152e-05
0.00545912 -8.98534e-05 1.41519e-05
0.00577806 -8.3076e-05 -1.26266e-05
0.00562794 -5.74647e-05 -2.22427e-05
0.0055949 -1.45833e-05 4.47085e-05
0.00561461 -2.52648e-05 4.72864e-05
0.00577496 -8.14379e-05 -1.4207e-05
0.00607223 -0.000171018 0.000210666
0.00600803 -0.000225079 -0.000163432
0.00545938 -9.59867e-05 1.43399e-05
0.00566737 -3.08303e-05 -5.03052e-05
0.00544445 -9.35163e-05 1.69847e-05
4.10154e-15 1.05621e-14 8.29605e-14
-5.38263e-15 6.58564e-15 4.46863e-14
0.00596971 -0.000107578 4.71472e-05
0.00602784 -0.000169529 0.000212327
0.00548 1.07495e-05 -5.16721e-05
0.0056626 -7.84816e-05 0.000139821
0.00566007 -3.09138e-06 -0.00016148
0.0056156 -4.5428e-05 -0.000158005
0.00575491 -7.13319e-05 -2.21868e-05
0.00599445 -0.000236873 -0.000153379
0.00547014 -0.000101322 1.97301e-05
0.00595282 -0.000155372 5.3769e-05
0.00540455 -7.99722e-05 6.8011e-06
0.00578827 -0.000160499 -0.000137241
0.0056428 -5.1411e-05 -2.71705e-05
0.00575818 -5.30661e-05 -3.86351e-05
0.00541584 -8.07377e-05 7.71512e-06
0.00561738 -3.11045e-05 -0.00016091
0.00600963 -0.000222546 -0.000165252
0.00558323 -2.9248e-05 -0.000158974
0.00578002 -8.25052e-05 -1.46593e-05
0.00558753 -9.64204e-05 4.46211e-05
0.00600672 -0.000225465 -0.00016328
0.00577907 -8.45044e-05 -1.15608e-05
0.00586316 -0.000138318 0.000193385
0.00600736 -0.000226935 -0.000162241
0.00559647 -1.13317e-05 4.54266e-05
0.00544853 -0.000100819 2.11376e-05
0.0054565 -0.000104452 2.32937e-05
0.00580258 -0.00019364 -0.000175139
0.0056261 -2.74037e-05 5.92682e-06
0.00569167 -5.9997e-05 -2.85423e-05
0.00563088 1.65372e-06 -6.15614e-05
0.00595207 -0.00016263 5.32069e-05
0.00560367 -6.31151e-05 -0.000156098
0.0057585 -8.42197e-05 -1.2478e-05
0.0059696 -0.000226247 -0.000146097
0.0059251 -0.000177291 6.67348e-05
0.00560499 -0.000106751 4.02748e-05
0.0056225 -9.13987e-05 0.000143817
0.00549761 -9.13213e-05 1.32099e-05
0.0059993 -0.000243892 0.000109999
0.00540189 -9.04128e-05 1.49348e-05
0.00594638 -0.000175307 6.53293e-05
0.00600027 -0.000232394 -0.000158062
0.00557613 -0.00011017 2.54462e-05
0.00552967 -0.000113872 2.70888e-05
0.00595713 -0.000172403 6.48073e-05
0.00571145 0.000355398 0.000220431
0.00551918 -0.000127815 2.72102e-05
0.00591596 -0.000180373 6.66662e-05
-3.83883e-14 8.16592e-14 2.95883e-13
0.00595162 -0.000171195 6.38203e-05
0.00561255 4.24552e-06 4.28865e-05
0.00548919 -0.000104105 2.18578e-05
0.00555468 -0.000102275 4.57016e-05
0.00547125 -9.38458e-05 3.04876e-05
0.00562373 -0.000125814 4.37034e-05
0.00572387 -8.02779e-05 -1.5811e-05
0.00561996 -0.000122773 2.43543e-05
0.00555755 -9.43418e-05 4.13648e-05
0.00558343 -0.00011684 1.54082e-05
0.00560633 -0.000115626 4.53658e-05
0.00563683 -2.36253e-05 -0.000162987
0.00595539 -0.000156914 5.39625e-05
0.00558391 -3.11312e-05 -0.000159177
0.00601321 -0.000250884 0.000111474
0.00562627 -0.000118672 3.0442e-05
0.00540288 -0.000103663 1.21362e-05
0.00561974 -0.00012424 4.08334e-05
0.00561761 -0.000122695 4.43756e-05
0.00559819 -2.65806e-05 4.49504e-05
0.00556989 -0.000109263 2.44091e-05
0.00560653 -1.69061e-05 4.55918e-05
0.00551752 -8.913e-05 1.29418e-05
0.00557761 -9.78295e-05 4.33758e-05
0.00561739 -1.7631e-05 4.42101e-05
0.00577316 -0.00015374 -0.000123572
0.00558685 -2.10894e-05 4.50161e-05
0.00563742 0.00037138 -7.26086e-05
0.0059967 -0.000235808 -0.000155382
0.00583718 -0.000144512 4.70516e-05
0.00561003 -5.21349e-05 -0.00015843
0.0055496 -0.000103319 4.35084e-05
0.0055965 -0.000112037 4.51934e-05
0.00562362 -0.000117067 3.09584e-05
0.00603995 -0.000378881 -0.000827675
0.00560345 -0.000114562 2.8683e-05
0.00557885 -8.74994e-05 4.48961e-05
0.0061931 -2.28309e-06 -4.92863e-05
0.00558421 -0.000102312 4.52173e-05
0.00586392 -0.000158553 5.60655e-05
0.0057479 -6.72825e-05 -2.44337e-05
0.00554949 -0.000103478 4.44601e-05
0.005947 -0.000173767 6.5116e-05
0.00600996 -0.00022648 9.80242e-05
0.00561911 -0.000108515 2.88384e-05
0.00576181 6.45348e-05 -8.87688e-05
0.00599084 -0.000238413 -0.000153431
0.00599943 -0.000231947 -0.000158256
0.0055761 -9.75524e-05 4.49497e-05
0.0056183 -2.3883e-05 4.57539e-05
0.0059842 -0.000225469 -0.000152221
0.00571064 0.000349989 -9.29183e-05
0.0060266 -0.000244592 0.000109081
0.00561581 -3.8737e-05 -0.000159413
0.00550718 -0.000100664 1.92872e-05
0.00567977 -6.88579e-05 -1.97439e-05
0.005486 -0.000111379 2.73296e-05
0.0056443 -1.69985e-06 2.96254e-05
0.0059458 -0.00017068 6.43914e-05
0.00599039 -0.000217385 -0.000168075
0.00559929 -0.000100839 4.48915e-05
0.00570108 0.000361008 -7.37011e-05
0.00566519 0.000348418 -0.000138943
0.00557759 -0.000104162 4.46322e-05
0.00596277 -0.000207628 8.64117e-05
0.00594177 -0.000153514 4.55183e-05
0.00558894 -0.000124303 3.46983e-05
0.00598238 -0.000222177 -0.000131624
0.00599252 -0.000233817 0.000101155
0.0059617 -0.00016872 6.17253e-05
0.00596029 -0.000161119 5.78246e-05
0.00587975 -0.000571759 -0.00105264
0.00597943 -0.000602587 -0.00104742
0.00585827 -0.000562243 -0.00105746
0.00591133 -0.00017497 6.47791e-05
0.00560756 -0.000111128 2.61043e-05
0.00591341 -0.000584917 -0.0010478
0.00551117 0.000371625 -0.000155337
0.00561229 -0.000126261 3.4456e-05
0.0057979 0.000325474 -0.000121824
-4.16961e-05 0.000232395 -0.0018083
0.00577255 -7.38928e-05 -2.16286e-05
0.00540938 0.000386436 -0.000164591
0.00566684 0.00036584 -7.34447e-05
0.00571351 0.000337079 -0.000133513
0.00555639 -7.94836e-05 4.4246e-05
0.0055698 -8.7576e-05 4.4658e-05
0.00595123 -0.000170981 6.21753e-05
0.00560591 -0.000122767 4.61548e-05
0.00543475 0.00038261 -0.000162673
0.0056257 -0.000129093 3.93658e-05
0.00560689 -0.000116538 3.86855e-05
0.00557185 -0.000115787 3.72493e-05
0.00593636 0.000107831 -0.000365349
0.00543598 -9.77924e-05 1.707e-05
0.00561511 0.000374371 -7.22439e-05
0.00553542 -0.000112122 2.78392e-05
0.0054453 -8.5772e-05 8.26115e-06
0.00556189 -0.000100987 2.02611e-05
0.0056273 -2.74133e-05 4.46271e-05
0.00558731 -0.000116633 5.01709e-05
0.00570434 0.000345469 -0.000129272
0.00605906 -0.00017073 6.27521e-05
0.00558849 0.000345342 -0.000158544
0.00546053 -2.8363e-05 -1.54002e-05
0.00601346 -0.000246418 0.00011324
0.00552511 -0.00012754 2.69818e-05
0.00562764 0.000400928 -7.132e-05
0.00569126 0.000361481 -7.39095e-05
0.00559758 -0.00011749 3.10323e-05
0.00592957 -0.000589458 -0.00104738
0.00595609 -0.000194574 7.59714e-05
0.0059575 -0.000166435 5.80242e-05
0.00558161 -9.76396e-05 4.44327e-05
0.00598442 -0.000223165 9.75394e-05
0.00561785 -0.000118345 3.71752e-05
0.00602323 -0.000211822 0.0001396
0.00595549 -0.000160891 5.6976e-05
0.00591478 -0.000177684 4.4538e-05
0.00556876 -0.000105409 5.14419e-05
0.00560934 -0.000113855 4.39293e-05
0.00596052 -0.000179836 6.79174e-05
0.00568584 0.000361284 -7.38859e-05
0.00598849 -0.000240338 0.000105886
0.00562943 -6.29334e-05 -2.01568e-05
0.00605189 -0.000625441 -0.00104516
0.00561138 0.000353562 -0.000142601
0.00577583 -8.42562e-05 -1.24134e-05

VECTORS force float
1.72211e-12 -1.95824e-11 -2.94132e-12
3.16248e-11 8.3977e-11 2.85791e-11
-7.0068e-11 -7.45729e-11 -1.80943e-11
-1.90565e-12 -8.23609e-12 5.94466e-12
1.317e-12 3.98815e-12 -4.21159e-12
-1.75247e-11 -8.59742e-11 5.62625e-11
8.94524e-13 1.57484e-11 -1.13407e-11
-3.64021e-11 1.95656e-12 1.04497e-10
-2.16956e-11 6.91307e-12 5.92917e-12
9.00882e-11 3.60668e-11 3.82756e-11
1.65273e-10 6.09162e-11 -4.05699e-11
-3.5189e-12 -1.82999e-11 1.25474e-11
2.95622e-11 7.44399e-11 -1.15383e-11
-1.06961e-11 -7.28107e-12 -1.3112e-11
1.83146e-12 1.67029e-11 -1.12563e-11
7.0556e-12 -7.54292e-11 1.89428e-12
-1.62349e-11 1.19684e-11 4.7725e-13
1.55762e-10 -3.04084e-11 -1.32958e-12
2.19584e-11 -7.50257e-12 -2.00161e-12
1.61905e-11 -9.56245e-12 3.48538e-12
7.44699e-11 -4.25144e-11 3.244e-11
5.2005e-11 -1.82803e-10 8.56424e-11
2.27591e-11 -1.86251e-11 3.76447e-11
-4.16592e-12 -2.05869e-11 1.39038e-11
1.71725e-11 4.97722e-11 -3.3997e-11
1.03654e-11 -4.52067e-11 5.66103e-12
3.03053e-21 -2.22925e-22 7.40327e-23
1.06292e-12 4.66577e-12 -3.85185e-13
1.7118e-11 1.98035e-11 -8.60255e-11
1.50343e-11 -1.35059e-11 3.66641e-12
1.3673e-11 -5.34753e-11 4.7877e-11
-3.66586e-11 5.23184e-11 -6.33162e-11
-2.63448e-13 -3.69474e-11 2.3309e-11
9.2305e-12 2.91431e-11 -1.96864e-11
-2.86528e-11 1.71111e-11 -1.86784e-12
5.03204e-11 1.45269e-11 1.21767e-11
3.61571e-12 2.80816e-12 -7.79771e-13
1.07079e-11 4.48914e-11 -3.02625e-11
-9.20857e-12 -4.82313e-12 -1.50005e-12
-2.27717e-12 -2.3108e-11 1.31081e-11
-4.88521e-11 -3.06624e-10 9.868e-11
1.03501e-10 -7.29683e-11 2.21575e-11
3.17689e-10 1.6244e-10 -1.10018e-10
1.10539e-12 5.35194e-12 -8.61918e-12
7.46583e-11 -2.74072e-11 3.94136e-11
-8.47911e-11 1.76223e-10 -1.09521e-10
1.81377e-11 3.75052e-11 -1.03181e-11
1.82941e-13 4.87155e-12 4.68303e-13
3.23117e-24 5.42837e-25 2.06795e-25
1.15715e-10 2.78421e-11 8.13227e-11
3.7134e-12 9.19941e-12 -6.99592e-12
6.66938e-11 3.92729e-11 -7.43018e-11
5.86282e-11 -7.64857e-11 1.00155e-10
2.45396e-12 6.04775e-12 -5.33786e-12
1.02281e-10 2.73208e-11 9.49218e-11
9.1257e-11 -5.77357e-11 5.09218e-11
5.99797e-12 -1.07756e-10 3.51583e-12
-1.72631e-11 -4.3193e-11 7.73493e-11
-1.18628e-11 -5.44513e-11 -2.88298e-10
-5.06473e-11 8.63933e-11 -1.12484e-10
2.50092e-11 -1.44955e-12 -1.50015e-11
1.74658e-10 9.60997e-11 -1.1043e-10
5.37595e-11 -3.81597e-11 1.80648e-11
6.9127e-12 5.34605e-11 -3.69044e-11
6.41076e-13 5.55635e-11 -8.13828e-11
1.13321e-10 7.18887e-11 6.44093e-11
-2.77526e-10 -1.38504e-10 -8.34351e-10
1.59136e-10 -7.23934e-11 9.95369e-12
3.70124e-11 -7.15469e-11 4.31131e-12
-4.12717e-12 -4.69182e-11 5.95097e-12
-6.6109e-11 7.90031e-11 -4.79216e-11
-1.05482e-11 6.69399e-12 -9.27831e-12
1.48627e-11 -6.90779e-11 6.56841e-11
-5.14491e-11 2.23146e-11 -4.47436e-11
-3.95519e-12 3.21603e-12 8.23725e-13
9.53618e-11 7.75237e-11 -4.94133e-11
1.11731e-10 -2.03691e-11 8.39092e-11
4.92943e-11 -5.63119e-12 9.94706e-12
-1.75169e-10 -5.37925e-11 1.82324e-11
2.591e-11 -4.42086e-12 -1.33787e-11
3.25409e-12 -1.35768e-11 -3.03345e-11
2.53198e-11 -5.27259e-11 3.6501e-12
4.32896e-12 -1.0528e-11 1.07556e-11
-2.14182e-11 -1.6781e-11 -1.04319e-11
6.68629e-11 -1.3984e-10 5.02786e-11
2.81808e-11 4.13673e-11 -3.09169e-11
4.38683e-12 5.64515e-11 2.84394e-11
5.76251e-11 8.68695e-11 -6.77089e-11
1.49619e-11 8.09671e-12 7.90255e-12
-2.92589e-22 5.48783e-23 1.55096e-23
-8.55667e-22 -7.41619e-22 5.99706e-24
4.81258e-11 2.08577e-11 1.15516e-12
3.5845e-10 -1.25259e-10 3.61667e-10
2.6986e-10 9.88804e-11 -6.47063e-11
-5.44273e-10 -3.66236e-11 -8.7957e-11
7.33318e-11 -9.59216e-11 -1.45071e-10
6.26803e-11 2.29099e-11 2.45392e-12
3.01539e-11 -6.59961e-11 -5.60405e-12
2.34554e-12 3.61556e-11 -1.34949e-11
5.09506e-11 -5.15808e-12 5.66164e-11
6.41771e-12 8.38987e-11 -6.4076e-11
2.8175e-10 5.36173e-11 -6.5022e-11
-3.37002e-11 5.75188e-11 -1.66912e-11
9.30331e-12 -9.3011e-12 -3.89166e-11
-3.95467e-12 -3.27448e-11 3.34509e-11
-1.49835e-10 -9.87607e-11 6.45798e-11
2.16115e-11 1.0583e-10 -1.22245e-11
1.95832e-11 -4.12198e-12 3.61503e-13
2.51485e-12 -5.15315e-11 7.08712e-12
-1.04118e-10 -1.67325e-11 -5.67158e-12
-3.4663e-11 -2.82743e-11 1.03532e-11
1.80173e-11 3.88475e-11 -2.69284e-11