# vtk DataFile Version 3.0
LIGGGHTS particles timestep 54200000
ASCII
DATASET POLYDATA
POINTS 275 float
0.329278 0.0181755 0.00701672
0.328932 0.0170022 0.00754811
0.32908 0.0169047 0.00763987
0.328528 0.0155068 0.00861885
0.335023 0.017415 0.0073887
0.329214 0.0174713 0.00724676
0.328921 0.0166311 0.00781646
0.335217 0.0183107 0.00698877
0.329016 0.0166617 0.00780749
0.329313 0.0179187 0.00706754
0.323292 0.0173126 0.00728551
0.328506 0.0154324 0.00868207
0.32335 0.0178163 0.00706919
0.323473 0.0182389 0.00698806
0.32888 0.0164701 0.00792761
0.329245 0.0184338 0.00697747
0.329253 0.0176345 0.00713481
0.329038 0.0167422 0.00775202
0.323404 0.0179198 0.00698819
0.33514 0.0179524 0.00714875
0.328636 0.0158908 0.0083192
0.335178 0.0181315 0.00706876
0.322954 0.0166958 0.00766286
0.329006 0.0169535 0.00759397
0.328484 0.015358 0.00874529
0.328737 0.0162045 0.00810072
0.329311 0.0175026 0.00723757
0.328675 0.0159656 0.0082656
0.335042 0.0175046 0.00734871
0.328615 0.0158082 0.00837162
0.329177 0.0173098 0.00735895
0.335276 0.0185794 0.00686878
0.329059 0.0168231 0.00769627
0.32914 0.0171474 0.00747185
0.335159 0.018042 0.00710875
0.328571 0.0156555 0.00849241
0.329196 0.0170187 0.00757322
0.329253 0.0172606 0.00740536
0.335062 0.0175941 0.00730871
0.328599 0.0157293 0.00843076
0.329122 0.0178528 0.00707658
0.335237 0.0184003 0.00694878
0.328678 0.0160467 0.00820712
0.329333 0.0175828 0.00718241
0.323349 0.0175631 0.0071309
0.335101 0.0177733 0.00722873
0.329448 0.0181392 0.00701307
0.323148 0.0171499 0.00738411
0.329391 0.018309 0.00698923
0.335081 0.0176837 0.00726872
0.378022 0.019866 0.005332
0.329272 0.0173413 0.00734939
0.32855 0.0155811 0.00855571
0.329159 0.0172281 0.00741583
0.329185 0.018006 0.00713146
0.33512 0.0178628 0.00718874
0.32307 0.0172127 0.00738239
0.323231 0.0179845 0.00702638
0.329276 0.0177283 0.0071076
0.329065 0.0171954 0.00742637
0.329368 0.0177535 0.0070788
0.335198 0.0182211 0.00702877
0.323366 0.0185652 0.00699401
0.329332 0.0180129 0.00703955
0.329175 0.0169374 0.00762948
0.3287 0.0161287 0.00815413
0.323098 0.0168991 0.00753905
0.328951 0.0170828 0.00749224
0.322519 0.0154561 0.00862559
0.323439 0.0184361 0.00699098
0.329026 0.0170342 0.00753809
0.323363 0.0180111 0.00698969
0.323311 0.017396 0.00723403
0.335256 0.0184899 0.00690878
0.323246 0.0184352 0.00698785
0.329234 0.01718 0.00746134
0.328986 0.0168725 0.00764999
0.32912 0.0174382 0.00725754
0.329397 0.0178478 0.00706222
0.329293 0.0178201 0.00707232
0.323273 0.017229 0.0073371
0.329044 0.0174855 0.00721253
0.328785 0.0164594 0.00795853
0.329353 0.0181098 0.0070265
0.329089 0.0177129 0.00720956
0.329026 0.0174048 0.00726859
0.322604 0.0156697 0.00830155
0.328764 0.016366 0.00798699
0.323086 0.0176668 0.0070723
0.329233 0.0175519 0.00719074
0.323106 0.0177581 0.00703645
0.0643568 0.0187248 0.00531097
0.24257 0.0191927 0.00520306
0.323605 0.0183346 0.00698424
0.322743 0.0158606 0.00817817
0.323105 0.0173582 0.00725403
0.32254 0.0155041 0.00854035
0.329406 0.017946 0.00704608
0.329501 0.0179759 0.00703609
0.328912 0.0169216 0.00760388
0.328869 0.0167608 0.0077148
0.322986 0.01725 0.00742217
0.322992 0.0172466 0.00732133
0.323048 0.0174954 0.00716771
0.329215 0.0170993 0.00751733
0.329199 0.0177897 0.00708691
0.329196 0.0173905 0.00730292
0.323192 0.017316 0.00728168
0.329427 0.0180428 0.00702954
0.328995 0.0165813 0.00786292
0.329203 0.018241 0.00701046
0.329008 0.0173237 0.00732517
0.32329 0.0186303 0.00699138
0.3289 0.0165507 0.00787189
0.329102 0.0173575 0.00731361
0.322582 0.0156 0.00836988
0.328742 0.0162856 0.00804243
0.329161 0.0177737 0.00717807
0.323144 0.0175251 0.00715093
0.323163 0.0176105 0.0071028
0.329101 0.0169856 0.00758386
0.329218 0.0178857 0.00706611
0.329177 0.0176891 0.00709964
0.32935 0.0176637 0.00712591
0.32312 0.0170681 0.00743443
0.329345 0.0177501 0.00717609
0.329083 0.0176628 0.00712318
0.32897 0.0171635 0.00743624
0.322971 0.0163939 0.00785078
0.323389 0.0177321 0.0070317
0.322562 0.015552 0.00845521
0.32323 0.017483 0.00717857
0.322625 0.0157495 0.00824538
0.323125 0.0174436 0.00720582
0.322996 0.0164826 0.00779611
0.328826 0.0166 0.00782566
0.323225 0.0183376 0.00698608
0.323145 0.0179456 0.00697934
0.323018 0.0165657 0.00774479
0.322722 0.0157774 0.00822947
0.323032 0.0173308 0.00736751
0.32295 0.0163089 0.00790319
0.0219312 0.0187687 0.00551176
0.323057 0.0167325 0.00764185
0.329121 0.0170667 0.00752774
0.323126 0.0178522 0.00700916
0.323338 0.0183132 0.00707153
0.32271 0.0160821 0.00803996
0.323279 0.0181738 0.00698719
0.329103 0.0177561 0.00709304
0.323183 0.0181419 0.00698264
0.323322 0.0183701 0.00699073
0.323204 0.0182398 0.00698434
0.3233 0.0182716 0.00698893
0.329336 0.0183917 0.00697915
0.322973 0.0171635 0.00737375
0.329373 0.0184829 0.00696258
0.322753 0.0162484 0.00793736
0.323044 0.0171332 0.00743716
0.322646 0.0158326 0.00819387
0.323143 0.017828 0.0071047
0.323153 0.0179274 0.00707731
0.329224 0.0183375 0.00699395
0.32303 0.0174203 0.00723116
0.329257 0.018079 0.00703318
0.32325 0.0175665 0.00712706
0.323268 0.0185328 0.00698961
0.329238 0.0179824 0.00704963
0.329084 0.0172764 0.00737009
0.329181 0.0181441 0.00702703
0.317165 0.0180645 0.00714427
0.328848 0.0166804 0.00777023
0.323011 0.0173302 0.00726975
0.329374 0.0182056 0.00700663
0.323518 0.0183167 0.00703141
0.323356 0.0181109 0.00699021
0.323298 0.0178305 0.00698527
0.316855 0.0166293 0.00761947
0.32333 0.0174796 0.00718241
0.323364 0.0179821 0.00708538
0.322699 0.0156926 0.00828175
0.323378 0.0182086 0.00699121
0.323078 0.0168159 0.0075904
0.329158 0.0175996 0.00714548
0.323452 0.0181412 0.00698811
0.322892 0.0164446 0.00781785
0.322935 0.0166124 0.00771439
0.322807 0.0161101 0.00802427
0.323369 0.0176466 0.00707935
0.323173 0.0172324 0.00733327
0.328943 0.0167115 0.00776103
0.328964 0.0167919 0.00770559
0.323399 0.0183062 0.00699266
0.329162 0.0180474 0.00704348
0.329046 0.0171148 0.00748226
0.317065 0.0175752 0.00713298
0.322786 0.0160269 0.00807557
0.329299 0.0182718 0.00700024
0.323067 0.017579 0.0071161
0.328805 0.0165196 0.0078811
0.323182 0.0176966 0.00705561
0.329291 0.0174219 0.00729345
0.322974 0.0167793 0.00761134
0.328891 0.0168412 0.00765937
0.323407 0.0178198 0.00698738
0.317084 0.0176733 0.0071289
0.317026 0.0173959 0.00721259
0.323344 0.0184677 0.0069925
0.322876 0.0167481 0.00762904
0.323534 0.018405 0.00698715
0.323164 0.0180438 0.00698099
0.32899 0.017251 0.00739186
0.322835 0.0165815 0.00773182
0.322935 0.016996 0.00747613
0.322954 0.0170795 0.00742448
0.316758 0.0163831 0.00804335
0.31682 0.0165259 0.00778676
0.316737 0.0163356 0.00812883
0.322927 0.0162231 0.00795612
0.323286 0.0177378 0.00702123
0.316779 0.0164305 0.00795788
0.31697 0.0170363 0.0073741
0.322774 0.0163316 0.00788605
0.323131 0.0177328 0.00713301
0.31689 0.0167727 0.00748919
0.322849 0.0162766 0.00792156
0.329139 0.0175189 0.00720149
0.316968 0.0171269 0.00733199
0.317143 0.017967 0.007139
0.31691 0.0168623 0.00744947
0.323461 0.0185337 0.00699053
0.323312 0.0187279 0.00699314
0.323037 0.0166492 0.00769329
0.32327 0.0177398 0.00711977
0.316987 0.0172166 0.00729219
0.323259 0.0180758 0.0069855
0.32303 0.0170402 0.00747644
0.323085 0.0175759 0.00721434
0.316885 0.0166913 0.00754711
0.322668 0.0159158 0.00814257
0.317186 0.018162 0.00714955
0.323201 0.0177861 0.00700434
0.322871 0.0163608 0.00786959
0.323211 0.0173994 0.0072302
0.323269 0.0176502 0.00707533
0.329107 0.0176169 0.00723027
0.323157 0.0180273 0.00707936
0.317045 0.0174855 0.0071728
0.322913 0.0165292 0.00776568
0.317006 0.0173063 0.00725238
0.322732 0.0161653 0.00798866
0.322828 0.0161932 0.00797296
0.322795 0.0164148 0.00783469
0.323086 0.0172746 0.00730555
0.317216 0.0179006 0.00712165
0.317103 0.0177714 0.00712789
0.32322 0.0178857 0.00701498
0.3168 0.0164781 0.00787237
0.322896 0.0168317 0.00757802
0.322995 0.0168628 0.00755983
0.322689 0.0159989 0.00809126
0.322856 0.0166648 0.00768071
0.323305 0.0179303 0.00698639
0.322764 0.0159437 0.00812687
0.323111 0.0169835 0.00748689
0.323573 0.0182393 0.00698466
0.32328 0.0182232 0.00707414
0.323016 0.0169462 0.0075084
0.322917 0.0169225 0.00754138
0.317122 0.0178694 0.00713362
0.322815 0.0164982 0.00778325
0.329142 0.0179504 0.00705998
0.316838 0.016574 0.00770104
0.31693 0.0169518 0.00740975
0.329063 0.0175662 0.00715645

VERTICES 275 550
1 0
1 1
1 2
1 3
1 4
1 5
1 6
1 7
1 8
1 9
1 10
1 11
1 12
1 13
1 14
1 15
1 16
1 17
1 18
1 19
1 20
1 21
1 22
1 23
1 24
1 25
1 26
1 27
1 28
1 29
1 30
1 31
1 32
1 33
1 34
1 35
1 36
1 37
1 38
1 39
1 40
1 41
1 42
1 43
1 44
1 45
1 46
1 47
1 48
1 49
1 50
1 51
1 52
1 53
1 54
1 55
1 56
1 57
1 58
1 59
1 60
1 61
1 62
1 63
1 64
1 65
1 66
1 67
1 68
1 69
1 70
1 71
1 72
1 73
1 74
1 75
1 76
1 77
1 78
1 79
1 80
1 81
1 82
1 83
1 84
1 85
1 86
1 87
1 88
1 89
1 90
1 91
1 92
1 93
1 94
1 95
1 96
1 97
1 98
1 99
1 100
1 101
1 102
1 103
1 104
1 105
1 106
1 107
1 108
1 109
1 110
1 111
1 112
1 113
1 114
1 115
1 116
1 117
1 118
1 119
1 120
1 121
1 122
1 123
1 124
1 125
1 126
1 127
1 128
1 129
1 130
1 131
1 132
1 133
1 134
1 135
1 136
1 137
1 138
1 139
1 140
1 141
1 142
1 143
1 144
1 145
1 146
1 147
1 148
1 149
1 150
1 151
1 152
1 153
1 154
1 155
1 156
1 157
1 158
1 159
1 160
1 161
1 162
1 163
1 164
1 165
1 166
1 167
1 168
1 169
1 170
1 171
1 172
1 173
1 174
1 175
1 176
1 177
1 178
1 179
1 180
1 181
1 182
1 183
1 184
1 185
1 186
1 187
1 188
1 189
1 190
1 191
1 192
1 193
1 194
1 195
1 196
1 197
1 198
1 199
1 200
1 201
1 202
1 203
1 204
1 205
1 206
1 207
1 208
1 209
1 210
1 211
1 212
1 213
1 214
1 215
1 216
1 217
1 218
1 219
1 220
1 221
1 222
1 223
1 224
1 225
1 226
1 227
1 228
1 229
1 230
1 231
1 232
1 233
1 234
1 235
1 236
1 237
1 238
1 239
1 240
1 241
1 242
1 243
1 244
1 245
1 246
1 247
1 248
1 249
1 250
1 251
1 252
1 253
1 254
1 255
1 256
1 257
1 258
1 259
1 260
1 261
1 262
1 263
1 264
1 265
1 266
1 267
1 268
1 269
1 270
1 271
1 272
1 273
1 274

POINT_DATA 275
SCALARS id int 1
LOOKUP_TABLE default
1
2
4
5
6
7
8
9
10
11
12
13
14
16
17
19
21
22
23
24
25
26
27
28
29
30
31
32
33
34
35
36
37
38
39
41
42
44
45
47
48
49
50
51
52
53
54
55
56
57
59
60
61
62
63
64
65
66
67
68
69
70
71
72
73
74
76
77
78
79
80
82
83
84
85
86
87
88
89
90
91
92
93
94
95
96
97
98
99
100
101
102
103
104
105
106
107
108
109
110
111
112
113
114
115
116
117
118
119
120
121
122
123
124
125
127
128
129
130
131
132
133
134
135
136
137
138
140
141
142
143
144
146
147
148
149
150
151
153
154
155
156
157
158
159
160
162
164
165
166
167
168
169
170
171
172
173
174
176
177
178
179
182
183
184
185
186
187
188
189
190
191
192
193
194
195
196
197
198
199
200
201
202
203
204
205
206
207
208
209
210
211
212
213
214
215
216
217
218
219
220
222
224
225
226
227
228
229
230
232
233
234
235
236
237
239
240
241
242
243
244
246
247
248
249
250
251
252
253
254
255
256
257
258
259
260
261
262
263
264
265
266
267
268
269
270
271
272
273
274
275
276
277
278
279
280
281
283
284
285
286
287
288
289
290
291
292
293
294
295
296
297
298
299
300

SCALARS type int 1
LOOKUP_TABLE default
1
1
1
1
1
1
1
1
1
1
1
1
1
1
1
1
1
1
1
1
1
1
1
1
1
1
1
1
1
1
1
1
1
1
1
1
1
1
1
1
1
1
1
1
1
1
1
1
1
1
1
1
1
1
1
1
1
1
1
1
1
1
1
1
1
1
1
1
1
1
1
1
1
1
1
1
1
1
1
1
1
1
1
1
1
1
1
1
1
1
1
1
1
1
1
1
1
1
1
1
1
1
1
1
1
1
1
1
1
1
1
1
1
1
1
1
1
1
1
1
1
1
1
1
1
1
1
1
1
1
1
1
1
1
1
1
1
1
1
1
1
1
1
1
1
1
1
1
1
1
1
1
1
1
1
1
1
1
1
1
1
1
1
1
1
1
1
1
1
1
1
1
1
1
1
1
1
1
1
1
1
1
1
1
1
1
1
1
1
1
1
1
1
1
1
1
1
1
1
1
1
1
1
1
1
1
1
1
1
1
1
1
1
1
1
1
1
1
1
1
1
1
1
1
1
1
1
1
1
1
1
1
1
1
1
1
1
1
1
1
1
1
1
1
1
1
1
1
1
1
1
1
1
1
1
1
1
1
1
1
1
1
1
1
1
1
1
1
1
1
1
1
1
1
1

SCALARS radius float 1
LOOKUP_TABLE default
5e-05
5e-05
5e-05
5e-05
5e-05
5e-05
5e-05
5e-05
5e-05
5e-05
5e-05
5e-05
5e-05
5e-05
5e-05
5e-05
5e-05
5e-05
5e-05
5e-05
5e-05
5e-05
5e-05
5e-05
5e-05
5e-05
5e-05
5e-05
5e-05
5e-05
5e-05
5e-05
5e-05
5e-05
5e-05
5e-05
5e-05
5e-05
5e-05
5e-05
5e-05
5e-05
5e-05
5e-05
5e-05
5e-05
5e-05
5e-05
5e-05
5e-05
5e-05
5e-05
5e-05
5e-05
5e-05
5e-05
5e-05
5e-05
5e-05
5e-05
5e-05
5e-05
5e-05
5e-05
5e-05
5e-05
5e-05
5e-05
5e-05
5e-05
5e-05
5e-05
5e-05
5e-05
5e-05
5e-05
5e-05
5e-05
5e-05
5e-05
5e-05
5e-05
5e-05
5e-05
5e-05
5e-05
5e-05
5e-05
5e-05
5e-05
5e-05
5e-05
5e-05
5e-05
5e-05
5e-05
5e-05
5e-05
5e-05
5e-05
5e-05
5e-05
5e-05
5e-05
5e-05
5e-05
5e-05
5e-05
5e-05
5e-05
5e-05
5e-05
5e-05
5e-05
5e-05
5e-05
5e-05
5e-05
5e-05
5e-05
5e-05
5e-05
5e-05
5e-05
5e-05
5e-05
5e-05
5e-05
5e-05
5e-05
5e-05
5e-05
5e-05
5e-05
5e-05
5e-05
5e-05
5e-05
5e-05
5e-05
5e-05
5e-05
5e-05
5e-05
5e-05
5e-05
5e-05
5e-05
5e-05
5e-05
5e-05
5e-05
5e-05
5e-05
5e-05
5e-05
5e-05
5e-05
5e-05
5e-05
5e-05
5e-05
5e-05
5e-05
5e-05
5e-05
5e-05
5e-05
5e-05
5e-05
5e-05
5e-05
5e-05
5e-05
5e-05
5e-05
5e-05
5e-05
5e-05
5e-05
5e-05
5e-05
5e-05
5e-05
5e-05
5e-05
5e-05
5e-05
5e-05
5e-05
5e-05
5e-05
5e-05
5e-05
5e-05
5e-05
5e-05
5e-05
5e-05
5e-05
5e-05
5e-05
5e-05
5e-05
5e-05
5e-05
5e-05
5e-05
5e-05
5e-05
5e-05
5e-05
5e-05
5e-05
5e-05
5e-05
5e-05
5e-05
5e-05
5e-05
5e-05
5e-05
5e-05
5e-05
5e-05
5e-05
5e-05
5e-05
5e-05
5e-05
5e-05
5e-05
5e-05
5e-05
5e-05
5e-05
5e-05
5e-05
5e-05
5e-05
5e-05
5e-05
5e-05
5e-05
5e-05
5e-05
5e-05
5e-05
5e-05
5e-05
5e-05
5e-05
5e-05
5e-05
5e-05
5e-05
5e-05
5e-05
5e-05
5e-05
5e-05
5e-05
5e-05
5e-05
5e-05
5e-05
5e-05
5e-05
5e-05
5e-05
5e-05
5e-05
5e-05
5e-05
5e-05

SCALARS mass float 1
LOOKUP_TABLE default
1.46608e-10
1.46608e-10
1.46608e-10
1.46608e-10
1.46608e-10
1.46608e-10
1.46608e-10
1.46608e-10
1.46608e-10
1.46608e-10
1.46608e-10
1.46608e-10
1.46608e-10
1.46608e-10
1.46608e-10
1.46608e-10
1.46608e-10
1.46608e-10
1.46608e-10
1.46608e-10
1.46608e-10
1.46608e-10
1.46608e-10
1.46608e-10
1.46608e-10
1.46608e-10
1.46608e-10
1.46608e-10
1.46608e-10
1.46608e-10
1.46608e-10
1.46608e-10
1.46608e-10
1.46608e-10
1.46608e-10
1.46608e-10
1.46608e-10
1.46608e-10
1.46608e-10
1.46608e-10
1.46608e-10
1.46608e-10
1.46608e-10
1.46608e-10
1.46608e-10
1.46608e-10
1.46608e-10
1.46608e-10
1.46608e-10
1.46608e-10
1.46608e-10
1.46608e-10
1.46608e-10
1.46608e-10
1.46608e-10
1.46608e-10
1.46608e-10
1.46608e-10
1.46608e-10
1.46608e-10
1.46608e-10
1.46608e-10
1.46608e-10
1.46608e-10
1.46608e-10
1.46608e-10
1.46608e-10
1.46608e-10
1.46608e-10
1.46608e-10
1.46608e-10
1.46608e-10
1.46608e-10
1.46608e-10
1.46608e-10
1.46608e-10
1.46608e-10
1.46608e-10
1.46608e-10
1.46608e-10
1.46608e-10
1.46608e-10
1.46608e-10
1.46608e-10
1.46608e-10
1.46608e-10
1.46608e-10
1.46608e-10
1.46608e-10
1.46608e-10
1.46608e-10
1.46608e-10
1.46608e-10
1.46608e-10
1.46608e-10
1.46608e-10
1.46608e-10
1.46608e-10
1.46608e-10
1.46608e-10
1.46608e-10
1.46608e-10
1.46608e-10
1.46608e-10
1.46608e-10
1.46608e-10
1.46608e-10
1.46608e-10
1.46608e-10
1.46608e-10
1.46608e-10
1.46608e-10
1.46608e-10
1.46608e-10
1.46608e-10
1.46608e-10
1.46608e-10
1.46608e-10
1.46608e-10
1.46608e-10
1.46608e-10
1.46608e-10
1.46608e-10
1.46608e-10
1.46608e-10
1.46608e-10
1.46608e-10
1.46608e-10
1.46608e-10
1.46608e-10
1.46608e-10
1.46608e-10
1.46608e-10
1.46608e-10
1.46608e-10
1.46608e-10
1.46608e-10
1.46608e-10
1.46608e-10
1.46608e-10
1.46608e-10
1.46608e-10
1.46608e-10
1.46608e-10
1.46608e-10
1.46608e-10
1.46608e-10
1.46608e-10
1.46608e-10
1.46608e-10
1.46608e-10
1.46608e-10
1.46608e-10
1.46608e-10
1.46608e-10
1.46608e-10
1.46608e-10
1.46608e-10
1.46608e-10
1.46608e-10
1.46608e-10
1.46608e-10
1.46608e-10
1.46608e-10
1.46608e-10
1.46608e-10
1.46608e-10
1.46608e-10
1.46608e-10
1.46608e-10
1.46608e-10
1.46608e-10
1.46608e-10
1.46608e-10
1.46608e-10
1.46608e-10
1.46608e-10
1.46608e-10
1.46608e-10
1.46608e-10
1.46608e-10
1.46608e-10
1.46608e-10
1.46608e-10
1.46608e-10
1.46608e-10
1.46608e-10
1.46608e-10
1.46608e-10
1.46608e-10
1.46608e-10
1.46608e-10
1.46608e-10
1.46608e-10
1.46608e-10
1.46608e-10
1.46608e-10
1.46608e-10
1.46608e-10
1.46608e-10
1.46608e-10
1.46608e-10
1.46608e-10
1.46608e-10
1.46608e-10
1.46608e-10
1.46608e-10
1.46608e-10
1.46608e-10
1.46608e-10
1.46608e-10
1.46608e-10
1.46608e-10
1.46608e-10
1.46608e-10
1.46608e-10
1.46608e-10
1.46608e-10
1.46608e-10
1.46608e-10
1.46608e-10
1.46608e-10
1.46608e-10
1.46608e-10
1.46608e-10
1.46608e-10
1.46608e-10
1.46608e-10
1.46608e-10
1.46608e-10
1.46608e-10
1.46608e-10
1.46608e-10
1.46608e-10
1.46608e-10
1.46608e-10
1.46608e-10
1.46608e-10
1.46608e-10
1.46608e-10
1.46608e-10
1.46608e-10
1.46608e-10
1.46608e-10
1.46608e-10
1.46608e-10
1.46608e-10
1.46608e-10
1.46608e-10
1.46608e-10
1.46608e-10
1.46608e-10
1.46608e-10
1.46608e-10
1.46608e-10
1.46608e-10
1.46608e-10
1.46608e-10
1.46608e-10
1.46608e-10
1.46608e-10
1.46608e-10
1.46608e-10
1.46608e-10
1.46608e-10
1.46608e-10
1.46608e-10
1.46608e-10
1.46608e-10
1.46608e-10
1.46608e-10
1.46608e-10
1.46608e-10
1.46608e-10
1.46608e-10

VECTORS velocity float
0.0061996 0.000521853 -0.000425453
0.00585713 0.00064756 0.000368396
0.00615961 0.000799648 0.000288641
0.00613525 0.000234164 7.39872e-05
0.00547402 6.03374e-05 8.12602e-05
0.00616888 0.000915646 0.000197097
0.00604296 0.000776555 0.00028716
0.0060528 -6.92687e-05 0.000151088
0.00611915 0.000840106 0.000249519
0.00571638 0.000655487 -0.000411266
0.00544483 -0.000216172 0.000228475
0.00616106 0.000194955 0.000107777
0.00586907 -0.000262606 0.000132881
0.00592858 -0.000511323 -0.000185523
0.00605282 0.000853501 0.000233203
0.00622881 0.000559045 -0.000432996
0.00597503 -0.000597224 0.00436898
0.00622735 0.000891713 0.000229301
0.00563661 -0.000318535 -5.00874e-05
0.00582452 -3.3925e-07 0.000115162
0.00618412 0.00078666 0.000284593
0.00593559 -4.91256e-05 0.000139684
0.00563766 -0.000294111 0.00028029
0.00592471 0.000636751 0.000369975
0.00617 0.000166808 0.000131647
0.00611155 0.000886863 0.000210154
0.0053925 0.000945653 7.72922e-05
0.00615179 0.000821146 0.00025134
0.00553108 4.45528e-05 8.96865e-05
0.0061207 0.000765514 0.000319286
0.00534943 0.00118574 -0.00011647
0.00623195 -8.41511e-05 0.000161338
0.00636022 0.000693311 0.000391245
0.00555745 0.000800858 0.000202513
0.005884 -9.11862e-06 0.000120824
0.00619241 0.000320634 -9.86945e-06
0.00546072 0.00113761 -6.02118e-05
0.00562396 0.000894702 0.000135124
0.00558498 2.87343e-05 9.70495e-05
0.00600628 0.000421725 -7.43314e-05
0.00568676 0.000493171 -0.000390797
0.00611151 -7.8849e-05 0.000156569
0.00615239 0.000853029 0.000261012
0.00561173 0.000901254 0.000131207
0.005652 -0.000129818 0.000169084
0.00570532 1.23044e-05 0.000107545
0.00601857 0.000377399 -0.00039286
0.00536854 -0.000269706 0.000260096
0.00618522 0.00052755 -0.000425658
0.00564784 2.08587e-05 0.000102808
-5.01924e-15 -7.41194e-15 7.69803e-14
0.00533694 0.00094038 6.51266e-05
0.00614449 0.000285707 2.75412e-05
0.00563335 0.000819556 0.000194345
0.00571874 0.000665153 -0.000413894
0.00576513 4.80424e-06 0.000111894
0.00536398 -0.000261355 0.000254453
0.00562162 -0.000237893 0.000256478
0.005742 0.000812506 -3.1756e-05
0.00558679 0.000853881 0.000166225
0.00570164 0.000648817 -0.000386055
0.0059942 -5.91705e-05 0.000145377
0.00606593 -0.000437134 -0.000109577
0.00575416 0.000601728 -0.000411088
0.00614152 0.000969053 0.00015951
0.0061045 0.000874452 0.000213936
0.00545247 -0.000285188 0.000271516
0.00572411 0.00115032 -3.10258e-05
0.00608213 -0.00031185 0.000456357
0.00600024 -0.000454074 -4.67857e-05
0.00586653 0.000716069 0.000306172
0.00564129 -0.000314227 0.000252573
0.00551222 -0.000171272 0.000200853
0.00617201 -8.01823e-05 0.000158367
0.0060162 -0.000431561 0.000294918
0.00556563 0.000913681 0.000116407
0.00614486 0.000614348 0.000419561
0.00563914 0.000598113 0.000352429
0.00575548 0.000628157 -0.000414997
0.00570512 0.00068558 -0.000421762
0.00541452 -0.000242535 0.000244191
0.00574409 0.000889965 0.000148513
0.00606378 0.000872843 0.000213116
0.00594165 0.000552338 -0.000415661
0.00549143 0.00112085 -5.44349e-05
0.00568277 0.000966627 9.34557e-05
0.0061977 -0.000342144 0.000419769
0.00609279 0.000885371 0.00021477
0.0056161 -0.000252828 0.000235467
0.0066178 0.00106038 0.000253996
0.00563441 -0.000255116 0.000224676
4.22928e-15 1.05275e-14 8.29584e-14
-3.50766e-23 4.86658e-23 1.23839e-22
0.00596108 -0.000477975 -0.000201888
0.00616158 -0.000329456 0.000307165
0.00544318 -0.000259479 0.000255175
0.00611517 -0.000313035 0.000459815
0.00575241 0.000615949 -0.000413291
0.00581447 0.00038745 -0.000379291
0.00595859 0.000614716 0.000398989
0.00596388 0.000717127 0.000320286
0.0053575 -0.000208987 0.000202037
0.00542124 -0.000233284 0.000237894
0.00555939 -0.000250061 0.000248437
0.00539277 0.00101334 2.42662e-05
0.00572097 0.000661444 -0.000285338
0.00525313 0.00106042 -2.71798e-05
0.00544362 -0.000273542 0.000264466
0.00583584 0.000416965 -0.000388566
0.00613981 0.000851991 0.000243511
0.00616659 0.000490023 -0.000418777
0.00677281 0.00188362 -0.00151778
0.00602421 -0.000440151 0.000273289
0.00605548 0.000809038 0.00026402
0.00549927 0.000740732 0.000234447
0.00619405 -0.000313073 0.000462551
0.00611146 0.000888666 0.000212558
0.00554924 0.000826948 -0.000285219
0.00557218 -0.000267212 0.000265516
0.00559222 -0.000276975 0.000260509
0.00603199 0.000827646 0.000245688
0.00570922 0.000655258 -0.000378625
0.0070872 -0.000336384 0.00071536
0.00569133 0.000864735 0.000142631
0.00532987 -0.000267465 0.000258748
0.00599272 0.00109739 -0.000255228
0.00587869 0.000526381 0.000132487
0.00550586 0.000744021 0.000238501
0.00644467 0.000657413 -0.000296991
0.00559499 -0.000286269 -0.000152367
0.00615583 -0.000311887 0.000462535
0.00554451 -0.000305117 0.000286393
0.0061833 -0.00036676 0.000362097
0.00550153 -0.00026249 0.000260035
0.00562747 -0.000247379 0.000250891
0.00602732 0.000797781 0.000267983
0.0060124 -0.000406812 0.00028472
0.00561463 -0.000259581 0.000249105
0.0056312 -0.000254798 0.000255675
0.00617874 -0.000350192 0.000325459
0.00541819 -0.000264874 0.000247798
0.00661906 0.000657168 -0.000293537
-3.82798e-14 8.16832e-14 2.9589e-13
0.00563693 -0.000318127 0.00029537
0.00573697 0.000803019 0.000222372
0.0056223 -0.00025328 0.000245206
0.00606736 -0.000437996 0.000257136
0.00607936 -0.000335157 0.000314834
0.0056782 -0.000314844 0.000246451
0.00609217 3.78382e-05 -2.97096e-05
0.00567545 -0.000296082 0.000253466
0.00602071 -0.000427502 0.000268147
0.00568147 -0.00031415 0.000259959
0.00599248 -0.00040251 0.000274024
0.00621914 0.000549137 -0.000430942
0.00534927 -0.000220185 0.000227658
0.00177758 0.00236038 -0.000473323
0.00603459 -0.000318843 0.000300387
0.00533614 -0.000265113 0.000202941
0.0061601 -0.000364417 0.00033909
0.00565182 -0.000249409 0.000235578
0.00561565 -0.000230236 0.000243762
0.00620059 0.000563539 -0.000432069
0.00549424 -0.000243612 0.000245588
0.00571396 0.000642079 -0.000417492
0.00556211 -0.000305788 0.000284122
0.00601547 -0.000436551 0.000286643
0.00572696 0.000650244 -0.0004105
0.00557474 0.000951094 9.11287e-05
0.00571186 0.000627235 -0.000415111
0.00605358 0.000626369 -0.000890773
0.00599334 0.000754224 0.000297469
0.00546143 -0.000240263 0.000242484
0.00613027 0.00050198 -0.000418508
0.00592492 -0.000463898 -0.000220098
0.00567224 -0.000326511 0.000154165
0.00563236 -0.000278254 0.000258734
0.00578585 -0.000484469 -0.00102913
0.00554212 -0.000127298 0.000180672
0.00561084 -0.000323361 0.000250957
0.00618923 -0.000373983 0.000337235
0.00585107 -0.000392563 -0.000118741
0.00557557 -0.000307199 0.000287497
0.00616328 0.000740084 0.000407776
0.0057343 -0.000488934 -0.000217605
0.00590978 4.61421e-05 7.36111e-05
0.00562132 -0.000267143 0.000263312
0.00606847 -0.000309826 0.000296777
0.0057451 -0.000127842 0.000178528
0.00541587 -0.000276243 0.000264872
0.00600076 0.000755996 0.000294766
0.00600333 0.000701627 0.000336805
0.00600022 -0.000447284 6.45688e-05
0.00572544 0.000643152 -0.000418835
0.0056279 0.000781746 0.000225868
0.00576541 0.000710612 0.000161757
0.00609688 -0.000317194 0.000301842
0.00618816 0.000558593 -0.000431039
0.00558976 -0.000246299 0.000252429
0.00603875 0.000843797 0.000231386
0.00567882 -0.000236171 0.000214619
0.00514594 0.000969929 2.01607e-05
0.00565825 -0.00028942 0.000278029
0.00594703 0.000670828 0.000352291
0.00551578 -0.000320113 -0.000201412
0.00576506 0.000683229 -0.000494285
0.00570066 0.000714081 0.000153904
0.00600939 -0.000438386 0.000265942
0.00565909 -0.000264888 0.000262557
0.00599152 -0.000461403 -0.000201469
0.00562615 -0.000269319 0.000250022
0.00558084 0.000899358 0.000138821
0.00562163 -0.00025855 0.000257669
0.00548805 -0.00023684 0.000241974
0.00536863 -0.000222825 0.000231366
0.00598883 -0.000539903 -0.00100268
0.00576952 -0.000488377 -0.0010196
0.00592471 -0.000523578 -0.00100958
0.00638707 0.000135595 2.63561e-05
0.00561955 -0.00024947 0.000257463
0.00610648 -0.000570445 -0.000989022
0.0056908 0.000722171 0.000149952
0.00594569 -0.0003029 0.00029128
0.0056743 -0.000260633 0.000217778
0.00577809 0.000705992 0.000166351
0.00614851 -0.000109701 0.00017408
0.00621866 0.00069843 0.000410154
0.00567022 0.000722332 0.000149139
0.00605721 0.000624742 -0.000891727
0.00578065 0.000699382 0.000165865
0.00605843 -0.000468489 -0.000216912
0.00601483 -0.000440821 0.000267008
0.00561636 -0.000319245 0.000295632
0.00561428 -0.000243133 0.00026865
0.00568329 0.000719117 0.000151378
0.00562963 -0.000290403 0.000248851
0.00544903 -0.000163832 0.000160462
0.00557599 -0.000232848 0.000249169
0.00570242 0.000326868 -0.00037267
0.00613273 -0.000353674 0.000328319
0.00604418 0.000629026 -0.000888962
0.00562633 -0.000239993 0.00023933
0.00608391 7.51407e-05 5.78511e-05
0.00549411 -0.000275823 0.000266853
0.00571891 -0.000207682 0.000232444
0.00565824 0.00132209 2.95609e-05
0.0056092 -0.000228638 0.000259106
0.00575348 0.0007094 0.000160539
0.00561906 -0.000261829 0.00026037
0.00568221 0.00071522 0.000152204
0.00604763 -0.000324366 0.000308489
0.00604539 -0.000306759 0.000294737
0.00574295 -0.000271381 0.000269213
0.00542936 -0.000261614 0.000257327
0.00599114 0.000526062 -0.000889934
0.00583359 0.000666425 -0.00085287
0.00561333 -0.000255508 0.000240835
0.00602902 -0.000551701 -0.000995744
0.00567787 -0.000264495 0.000266568
0.00561303 -0.00025841 0.000256004
0.00610662 -0.000346471 0.000316452
0.00563175 -0.000260586 0.00025925
0.00561807 -0.000281636 0.00025529
0.00612479 -0.000322132 0.000308088
0.00535894 -0.000273792 0.000262133
0.00591777 -0.000570778 -0.000215435
0.00574934 -0.000359657 0.000254824
0.0055736 -0.000129472 0.00017729
0.00561655 -0.000252618 0.000258084
0.00595317 0.000645001 -0.000873409
0.00562794 -0.000255932 0.000255616
0.00573636 0.000660821 -0.000406707
0.00550504 -0.000422645 -0.00104146
0.00573899 0.000704749 0.00015967
0.00578196 0.000965113 0.000123246

VECTORS force float
7.41546e-11 -7.61289e-11 6.92687e-13
9.11246e-10 1.15698e-09 -3.30672e-10
-6.88048e-10 5.81292e-10 -5.46065e-10
3.0751e-10 -1.20643e-10 1.50853e-10
3.12824e-12 -2.41684e-11 9.86213e-12
-1.77489e-09 2.35988e-09 -1.30193e-09
-1.43644e-10 -5.99614e-10 4.39132e-10
9.48058e-13 -7.65672e-13 2.88127e-13
-7.32501e-11 1.57132e-10 -1.29173e-10
-5.8809e-11 -1.83498e-10 1.49453e-11
6.88847e-11 3.32462e-10 -2.05055e-10
6.1478e-11 1.29706e-10 -1.04295e-10
7.79732e-11 -2.08455e-10 -3.25361e-10
4.40656e-10 -4.68188e-10 6.809e-11
-2.93978e-10 -9.90618e-10 5.49237e-10
3.23313e-12 -8.07099e-11 1.3542e-11
0.0 0.0 -1.43822e-09
5.37968e-10 -2.48856e-10 2.88032e-10
5.46263e-10 -2.30194e-10 2.25137e-10
-1.73096e-11 9.19493e-12 -9.8842e-12
1.74653e-10 2.1235e-10 -3.61727e-10
1.39867e-12 6.74879e-13 -2.58739e-13
-4.55223e-11 -7.34035e-11 3.15242e-11
-3.01546e-10 3.44164e-10 -2.23122e-10
1.29475e-10 3.05395e-10 -2.47547e-10
6.60224e-11 7.08224e-11 -9.71754e-11
1.87622e-10 -2.43287e-10 2.12155e-10
-1.31998e-11 3.63795e-10 -2.12624e-10
-1.03957e-11 -1.91988e-11 8.39984e-12
-1.89874e-10 3.26943e-10 -1.25093e-10
3.43828e-10 -1.70413e-09 1.11877e-09
2.08475e-13 -2.48047e-12 8.8097e-13
3.38959e-10 -6.72426e-10 5.39053e-10
-3.21409e-10 3.95159e-10 -3.35442e-10
1.07335e-11 -1.02209e-11 1.06269e-11
-5.70373e-11 -8.18258e-11 -2.52336e-11
-9.25391e-10 -2.46444e-09 1.64861e-09
5.07504e-10 -3.3992e-11 9.50411e-11
1.94342e-11 2.46981e-11 -3.30977e-12
-4.10493e-10 1.02594e-10 -1.96623e-10
4.05273e-10 -5.97453e-10 1.61411e-10
8.27009e-13 -1.61937e-12 6.95073e-13
3.41523e-10 4.2133e-10 -1.11323e-10
-4.07893e-10 -4.80208e-10 1.90853e-10
-3.38058e-10 4.49581e-11 -1.05975e-11
-1.40739e-12 5.73485e-12 -6.10598e-12
9.4726e-11 -2.20808e-10 3.64215e-11
1.73881e-11 3.36087e-11 -6.11667e-11
7.46745e-11 -1.05906e-10 1.0294e-11
-1.96738e-12 2.00842e-11 -1.41185e-11
5.32498e-24 -7.75482e-26 2.06795e-25
-8.35482e-11 -2.42329e-10 7.29694e-11
6.17374e-11 -6.02335e-11 6.89216e-11
5.41675e-10 5.28414e-10 -3.23429e-10
-7.81345e-11 3.87112e-10 -2.36998e-11
1.72996e-11 1.61243e-11 -5.68312e-12
1.91931e-10 2.24169e-11 6.66464e-11
1.72242e-10 -1.97952e-10 -1.69494e-11
-3.08286e-10 4.62638e-12 2.85433e-10
-3.22147e-10 6.07657e-10 -4.1577e-10
-1.63991e-10 -4.99461e-11 1.58109e-10
1.17989e-12 -2.06353e-13 1.96525e-13
4.98867e-11 -1.04887e-10 -4.44066e-10
5.21415e-11 -5.96228e-11 1.07396e-10
1.57419e-09 -1.36887e-09 1.22442e-09
-1.73402e-11 1.01529e-10 -4.05021e-10
-1.9246e-10 -1.46366e-10 6.21496e-11
-4.21308e-12 7.15105e-11 -4.93355e-11
-2.2099e-11 9.14454e-13 -3.15699e-11
2.73443e-10 -3.01954e-11 8.50052e-10
1.57213e-09 7.95073e-10 -3.01501e-10
3.9257e-10 -8.81063e-11 6.05457e-11
-1.45615e-10 3.70594e-10 -2.30471e-10
4.24984e-13 -1.99185e-12 1.14791e-12
1.38737e-10 -5.74942e-11 -9.02564e-11
-2.19378e-10 6.97631e-10 -5.6025e-10
7.49671e-10 8.02756e-11 6.7978e-11
2.30357e-09 7.12118e-10 -1.62018e-10
2.20336e-11 -6.53355e-11 1.15721e-10
-4.17366e-10 -4.61803e-10 1.90284e-10
1.6062e-10 3.18139e-10 -2.00234e-10
1.09364e-09 -3.88831e-10 7.59427e-10
-3.36197e-10 -3.56679e-10 3.10513e-10
1.12538e-10 7.00128e-12 1.79158e-11
8.34533e-10 5.58971e-10 9.91134e-11
3.31518e-10 -5.45271e-10 4.93517e-10
-1.54161e-11 -1.00249e-10 -9.99499e-11
4.14888e-11 5.00583e-11 9.70969e-11
6.39778e-12 -3.7608e-11 -6.77232e-11
8.26043e-10 2.44505e-09 -2.3051e-09
-1.00909e-10 -1.41142e-10 -1.73557e-11
-1.521e-21 7.0163e-22 -1.96455e-23
0.0 0.0 0.0
2.55239e-10 -3.48256e-10 -1.03092e-10
6.76141e-11 -2.92697e-11 -8.46865e-11
8.15795e-11 1.38305e-10 -1.508e-10
-8.53928e-13 3.6854e-11 -2.35531e-12
-2.43939e-11 -1.97162e-10 -1.30504e-11
3.66392e-11 -2.18528e-10 4.21268e-11
7.44427e-10 4.76586e-10 -3.14454e-10
-9.03588e-11 -1.9442e-10 1.72309e-10