# vtk DataFile Version 3.0
LIGGGHTS particles timestep 43400000
ASCII
DATASET POLYDATA
POINTS 275 float
0.266356 0.0183447 0.00693785
0.266006 0.0172032 0.00726946
0.266157 0.017091 0.00733874
0.265631 0.0157941 0.00846186
0.271911 0.0168479 0.00764607
0.266301 0.0177007 0.00703563
0.266003 0.0168086 0.0075019
0.272096 0.0176132 0.00712094
0.266098 0.0168371 0.00748714
0.266212 0.01798 0.00707659
0.260233 0.0170122 0.0073438
0.26561 0.0157265 0.00853231
0.260159 0.0173459 0.00729375
0.26042 0.0178462 0.00716191
0.265961 0.0165786 0.00763659
0.265588 0.0156588 0.00860277
0.266344 0.0178936 0.0070052
0.266118 0.0169217 0.00743768
0.260377 0.0176517 0.00717918
0.272019 0.017234 0.00720828
0.265742 0.0161315 0.0081099
0.272057 0.0174194 0.00715103
0.259936 0.0165799 0.00783952
0.266082 0.0171473 0.00730403
0.265567 0.0155912 0.00867323
0.265814 0.0164048 0.00782714
0.266374 0.0176333 0.00704353
0.265757 0.0162004 0.00803904
0.271928 0.0169081 0.00756805
0.265717 0.0160646 0.00818006
0.266256 0.0175141 0.00709154
0.272162 0.0179026 0.00707625
0.266137 0.0170064 0.00738821
0.266217 0.0173448 0.00719049
0.272038 0.0173224 0.00716558
0.265677 0.0159287 0.00832121
0.266252 0.0171188 0.00732437
0.266312 0.0173726 0.00717611
0.271945 0.0169682 0.0074901
0.265696 0.0159969 0.00825054
0.266214 0.0181188 0.00697353
0.272118 0.0177097 0.00710604
0.265776 0.0162686 0.0079684
0.266396 0.01773 0.00702882
0.260292 0.0172623 0.00721372
0.271981 0.0170886 0.00733444
0.266579 0.0181462 0.00696422
0.26012 0.0169122 0.00744065
0.266557 0.0180496 0.00697891
0.271963 0.0170284 0.00741225
0.378022 0.019866 0.005332
0.266332 0.0174572 0.00712669
0.265654 0.0158614 0.00839151
0.266236 0.0174294 0.00714103
0.266235 0.0182153 0.00695885
0.271998 0.0171487 0.00725641
0.260042 0.0169602 0.00738827
0.260125 0.0176012 0.00727121
0.266366 0.0179901 0.00699052
0.266142 0.0174011 0.00715573
0.26644 0.0179235 0.00699938
0.272077 0.0175163 0.00713593
0.260463 0.0180407 0.00714464
0.266409 0.018183 0.00696116
0.266081 0.0166505 0.0075967
0.265796 0.0163366 0.0078978
0.260068 0.0167163 0.00766175
0.266026 0.0172879 0.00721999
0.259449 0.0154641 0.00923099
0.260389 0.018108 0.00714082
0.266101 0.0172319 0.00725456
0.260205 0.0175419 0.00727466
0.260257 0.0170808 0.00727496
0.27214 0.0178061 0.00709115
0.260255 0.0183308 0.00712548
0.266292 0.017288 0.00722552
0.266062 0.0170626 0.00735349
0.266201 0.0176669 0.00704099
0.266289 0.0179162 0.00708523
0.266388 0.0180865 0.00697584
0.260218 0.0169421 0.00741448
0.266127 0.0177328 0.00703227
0.26587 0.016614 0.00761962
0.266234 0.0180765 0.00706189
0.266163 0.0176383 0.00712893
0.266105 0.0176364 0.0070478
0.259556 0.0157777 0.00886317
0.265851 0.0165414 0.00768576
0.26006 0.0174546 0.0072033
0.266322 0.0177971 0.00701988
0.260082 0.0175518 0.00719466
0.0643568 0.0187248 0.00531097
0.24257 0.0191927 0.00520306
0.260442 0.0179435 0.00715328
0.25953 0.015661 0.00902196
0.260079 0.0171004 0.0072472
0.259471 0.0155274 0.00915669
0.266462 0.0180202 0.00698466
0.266513 0.0178564 0.00700832
0.265987 0.0171211 0.00732305
0.265948 0.0169494 0.00741776
0.2596 0.0159005 0.00871158
0.259965 0.0170068 0.0073441
0.260021 0.0172593 0.00722056
0.266272 0.0172035 0.00727491
0.26629 0.0180546 0.00698199
0.266278 0.0176083 0.00706656
0.260153 0.0170652 0.00731639
0.266484 0.0181167 0.00696997
0.266045 0.0167306 0.00754874
0.266377 0.0184413 0.00692316
0.266085 0.0175415 0.0070718
0.260411 0.0182053 0.00713219
0.265982 0.0166631 0.0075872
0.26618 0.0175706 0.00705666
0.259535 0.0157143 0.00893747
0.265834 0.0164728 0.00775655
0.26619 0.0178835 0.00709123
0.26012 0.0172968 0.00721502
0.26014 0.0173943 0.00720639
0.266177 0.0171757 0.00728926
0.266312 0.0181514 0.00696726
0.266268 0.0179581 0.00699668
0.266418 0.0178269 0.00701407
0.260101 0.016847 0.00751415
0.266185 0.017735 0.0071136
0.26617 0.0179258 0.00700289
0.266046 0.0173725 0.00717052
0.259953 0.0163499 0.00812265
0.260334 0.017457 0.00719645
0.259492 0.0155907 0.0090824
0.260196 0.0172326 0.00721852
0.259696 0.0159152 0.00868463
0.260098 0.0171958 0.00722397
0.259974 0.0164104 0.00804584
0.265909 0.0167852 0.00752453
0.260233 0.0182329 0.00713418
0.260227 0.0177835 0.00717182
0.259994 0.016471 0.00796893
0.259674 0.0158549 0.00876127
0.259622 0.015961 0.00863511
0.259931 0.0162896 0.00819937
0.0219312 0.0187687 0.00551176
0.260033 0.0165925 0.00781488
0.266196 0.0172622 0.00724316
0.260104 0.0176491 0.00718603
0.260186 0.0177486 0.00725637
0.259692 0.0161415 0.00840599
0.26027 0.0179781 0.00715455
0.266192 0.0180223 0.00698821
0.26019 0.0180382 0.00715147
0.260313 0.0181726 0.00713738
0.260212 0.0181356 0.00714282
0.260292 0.0180753 0.00714591
0.266431 0.0182795 0.00694648
0.259946 0.0169401 0.00741607
0.266353 0.0182059 0.00704097
0.259739 0.0162608 0.00825261
0.260023 0.0168961 0.00746277
0.259718 0.0159754 0.00860796
0.260076 0.0172766 0.00730252
0.260125 0.0177463 0.00717739
0.266452 0.0183761 0.00693179
0.260002 0.0171614 0.00722916
0.266256 0.018173 0.00704717
0.260217 0.0173303 0.00721375
0.260277 0.018428 0.00711685
0.266334 0.0182482 0.00695253
0.266161 0.0174858 0.00710621
0.2663 0.0185048 0.0069148
0.254273 0.0183798 0.00691253
0.265928 0.0168648 0.00746723
0.259983 0.0170728 0.00727106
0.266505 0.0182132 0.00695529
0.260265 0.0176836 0.00726066
0.260325 0.0178162 0.00716673
0.260282 0.0176216 0.00718407
0.253939 0.016958 0.00750983
0.26027 0.0171651 0.00722236
0.26008 0.0174071 0.00728907
0.259579 0.0158411 0.00878912
0.260346 0.0179135 0.00715809
0.260051 0.0166541 0.00773833
0.266246 0.0178615 0.00701137
0.260399 0.0177489 0.00717055
0.259878 0.0163966 0.00807158
0.259917 0.016519 0.00791652
0.25979 0.0161553 0.00837856
0.260313 0.0173597 0.00720509
0.260137 0.0169895 0.00737973
0.266023 0.0168933 0.00745243
0.266042 0.016978 0.00740296
0.260368 0.0180107 0.00714946
0.266279 0.0184083 0.00692948
0.266121 0.0173166 0.00720508
0.254169 0.0179094 0.0070096
0.259766 0.0160954 0.00845491
0.266527 0.0183098 0.00694061
0.26004 0.0173571 0.00721201
0.26589 0.0166966 0.00756688
0.260162 0.0174916 0.00719775
0.266352 0.0175417 0.00707728
0.259953 0.0166409 0.0077622
0.265967 0.0170341 0.00736829
0.260356 0.0175544 0.00718782
0.254191 0.0179987 0.00697066
0.254127 0.0177337 0.00709533
0.260335 0.0182699 0.00712872
0.259857 0.0166267 0.00779232
0.260271 0.0178333 0.00724906
0.260168 0.0179408 0.00716012
0.266066 0.0174602 0.00712707
0.259823 0.0165031 0.00794568
0.25991 0.016823 0.00757385
0.259931 0.0168854 0.00749838
0.253841 0.0165388 0.00776401
0.2539 0.0167904 0.00761149
0.253821 0.016455 0.00781485
0.259909 0.0162294 0.00827598
0.26026 0.0175245 0.00719263
0.253861 0.0166227 0.00771317
0.254043 0.0173823 0.0072668
0.259761 0.016321 0.00817599
0.260056 0.0171761 0.00731237
0.253981 0.0171254 0.0074084
0.259835 0.0162757 0.00822528
0.266224 0.0177641 0.0070262
0.254064 0.0174701 0.00722393
0.254253 0.0182819 0.00691041
0.254001 0.0172091 0.00735763
0.259428 0.0154007 0.00930528
0.260537 0.0179732 0.00714848
0.260014 0.0165316 0.00789198
0.260166 0.017235 0.0073138
0.254085 0.0175579 0.00718109
0.260248 0.0178808 0.00716319
0.260005 0.0168281 0.0075336
0.259987 0.0171207 0.00735871
0.25396 0.0170417 0.0074591
0.259644 0.0160211 0.00855842
0.254294 0.0184777 0.00691465
0.260183 0.0175889 0.00718911
0.259857 0.0163361 0.00814856
0.26018 0.0171426 0.00725901
0.260238 0.0174272 0.007202
0.266117 0.0175571 0.00716507
0.260147 0.0178436 0.00716876
0.254148 0.0178215 0.00705248
0.259898 0.0164578 0.00799395
0.254106 0.0176459 0.0071382
0.259716 0.0162039 0.00833175
0.259813 0.0162155 0.00830197
0.259783 0.0163813 0.00809928
0.26006 0.0170298 0.00731816
0.254331 0.0181988 0.00691145
0.254214 0.0180901 0.00693698
0.260205 0.0176861 0.00718048
0.25388 0.0167065 0.00766233
0.259874 0.0166859 0.00771362
0.25997 0.016702 0.00768491
0.259668 0.016081 0.00848178
0.259841 0.0165648 0.00786909
0.260303 0.0177189 0.00717536
0.259742 0.0160356 0.00853125
0.260084 0.0167808 0.00758703
0.260182 0.0174436 0.00728307
0.26019 0.0178926 0.00724503
0.259987 0.0167635 0.00760785
0.259893 0.0167474 0.00763686
0.254233 0.0181841 0.00690827
0.259804 0.0164418 0.00802243
0.266257 0.0183118 0.00694417
0.25392 0.0168742 0.00756065
0.254022 0.0172945 0.00730996
0.266148 0.0178293 0.00701757

VERTICES 275 550
1 0
1 1
1 2
1 3
1 4
1 5
1 6
1 7
1 8
1 9
1 10
1 11
1 12
1 13
1 14
1 15
1 16
1 17
1 18
1 19
1 20
1 21
1 22
1 23
1 24
1 25
1 26
1 27
1 28
1 29
1 30
1 31
1 32
1 33
1 34
1 35
1 36
1 37
1 38
1 39
1 40
1 41
1 42
1 43
1 44
1 45
1 46
1 47
1 48
1 49
1 50
1 51
1 52
1 53
1 54
1 55
1 56
1 57
1 58
1 59
1 60
1 61
1 62
1 63
1 64
1 65
1 66
1 67
1 68
1 69
1 70
1 71
1 72
1 73
1 74
1 75
1 76
1 77
1 78
1 79
1 80
1 81
1 82
1 83
1 84
1 85
1 86
1 87
1 88
1 89
1 90
1 91
1 92
1 93
1 94
1 95
1 96
1 97
1 98
1 99
1 100
1 101
1 102
1 103
1 104
1 105
1 106
1 107
1 108
1 109
1 110
1 111
1 112
1 113
1 114
1 115
1 116
1 117
1 118
1 119
1 120
1 121
1 122
1 123
1 124
1 125
1 126
1 127
1 128
1 129
1 130
1 131
1 132
1 133
1 134
1 135
1 136
1 137
1 138
1 139
1 140
1 141
1 142
1 143
1 144
1 145
1 146
1 147
1 148
1 149
1 150
1 151
1 152
1 153
1 154
1 155
1 156
1 157
1 158
1 159
1 160
1 161
1 162
1 163
1 164
1 165
1 166
1 167
1 168
1 169
1 170
1 171
1 172
1 173
1 174
1 175
1 176
1 177
1 178
1 179
1 180
1 181
1 182
1 183
1 184
1 185
1 186
1 187
1 188
1 189
1 190
1 191
1 192
1 193
1 194
1 195
1 196
1 197
1 198
1 199
1 200
1 201
1 202
1 203
1 204
1 205
1 206
1 207
1 208
1 209
1 210
1 211
1 212
1 213
1 214
1 215
1 216
1 217
1 218
1 219
1 220
1 221
1 222
1 223
1 224
1 225
1 226
1 227
1 228
1 229
1 230
1 231
1 232
1 233
1 234
1 235
1 236
1 237
1 238
1 239
1 240
1 241
1 242
1 243
1 244
1 245
1 246
1 247
1 248
1 249
1 250
1 251
1 252
1 253
1 254
1 255
1 256
1 257
1 258
1 259
1 260
1 261
1 262
1 263
1 264
1 265
1 266
1 267
1 268
1 269
1 270
1 271
1 272
1 273
1 274

POINT_DATA 275
SCALARS id int 1
LOOKUP_TABLE default
1
2
4
5
6
7
8
9
10
11
12
13
14
16
17
19
21
22
23
24
25
26
27
28
29
30
31
32
33
34
35
36
37
38
39
41
42
44
45
47
48
49
50
51
52
53
54
55
56
57
59
60
61
62
63
64
65
66
67
68
69
70
71
72
73
74
76
77
78
79
80
82
83
84
85
86
87
88
89
90
91
92
93
94
95
96
97
98
99
100
101
102
103
104
105
106
107
108
109
110
111
112
113
114
115
116
117
118
119
120
121
122
123
124
125
127
128
129
130
131
132
133
134
135
136
137
138
140
141
142
143
144
146
147
148
149
150
151
153
154
155
156
157
158
159
160
162
164
165
166
167
168
169
170
171
172
173
174
176
177
178
179
182
183
184
185
186
187
188
189
190
191
192
193
194
195
196
197
198
199
200
201
202
203
204
205
206
207
208
209
210
211
212
213
214
215
216
217
218
219
220
222
224
225
226
227
228
229
230
232
233
234
235
236
237
239
240
241
242
243
244
246
247
248
249
250
251
252
253
254
255
256
257
258
259
260
261
262
263
264
265
266
267
268
269
270
271
272
273
274
275
276
277
278
279
280
281
283
284
285
286
287
288
289
290
291
292
293
294
295
296
297
298
299
300

SCALARS type int 1
LOOKUP_TABLE default
1
1
1
1
1
1
1
1
1
1
1
1
1
1
1
1
1
1
1
1
1
1
1
1
1
1
1
1
1
1
1
1
1
1
1
1
1
1
1
1
1
1
1
1
1
1
1
1
1
1
1
1
1
1
1
1
1
1
1
1
1
1
1
1
1
1
1
1
1
1
1
1
1
1
1
1
1
1
1
1
1
1
1
1
1
1
1
1
1
1
1
1
1
1
1
1
1
1
1
1
1
1
1
1
1
1
1
1
1
1
1
1
1
1
1
1
1
1
1
1
1
1
1
1
1
1
1
1
1
1
1
1
1
1
1
1
1
1
1
1
1
1
1
1
1
1
1
1
1
1
1
1
1
1
1
1
1
1
1
1
1
1
1
1
1
1
1
1
1
1
1
1
1
1
1
1
1
1
1
1
1
1
1
1
1
1
1
1
1
1
1
1
1
1
1
1
1
1
1
1
1
1
1
1
1
1
1
1
1
1
1
1
1
1
1
1
1
1
1
1
1
1
1
1
1
1
1
1
1
1
1
1
1
1
1
1
1
1
1
1
1
1
1
1
1
1
1
1
1
1
1
1
1
1
1
1
1
1
1
1
1
1
1
1
1
1
1
1
1
1
1
1
1
1
1

SCALARS radius float 1
LOOKUP_TABLE default
5e-05
5e-05
5e-05
5e-05
5e-05
5e-05
5e-05
5e-05
5e-05
5e-05
5e-05
5e-05
5e-05
5e-05
5e-05
5e-05
5e-05
5e-05
5e-05
5e-05
5e-05
5e-05
5e-05
5e-05
5e-05
5e-05
5e-05
5e-05
5e-05
5e-05
5e-05
5e-05
5e-05
5e-05
5e-05
5e-05
5e-05
5e-05
5e-05
5e-05
5e-05
5e-05
5e-05
5e-05
5e-05
5e-05
5e-05
5e-05
5e-05
5e-05
5e-05
5e-05
5e-05
5e-05
5e-05
5e-05
5e-05
5e-05
5e-05
5e-05
5e-05
5e-05
5e-05
5e-05
5e-05
5e-05
5e-05
5e-05
5e-05
5e-05
5e-05
5e-05
5e-05
5e-05
5e-05
5e-05
5e-05
5e-05
5e-05
5e-05
5e-05
5e-05
5e-05
5e-05
5e-05
5e-05
5e-05
5e-05
5e-05
5e-05
5e-05
5e-05
5e-05
5e-05
5e-05
5e-05
5e-05
5e-05
5e-05
5e-05
5e-05
5e-05
5e-05
5e-05
5e-05
5e-05
5e-05
5e-05
5e-05
5e-05
5e-05
5e-05
5e-05
5e-05
5e-05
5e-05
5e-05
5e-05
5e-05
5e-05
5e-05
5e-05
5e-05
5e-05
5e-05
5e-05
5e-05
5e-05
5e-05
5e-05
5e-05
5e-05
5e-05
5e-05
5e-05
5e-05
5e-05
5e-05
5e-05
5e-05
5e-05
5e-05
5e-05
5e-05
5e-05
5e-05
5e-05
5e-05
5e-05
5e-05
5e-05
5e-05
5e-05
5e-05
5e-05
5e-05
5e-05
5e-05
5e-05
5e-05
5e-05
5e-05
5e-05
5e-05
5e-05
5e-05
5e-05
5e-05
5e-05
5e-05
5e-05
5e-05
5e-05
5e-05
5e-05
5e-05
5e-05
5e-05
5e-05
5e-05
5e-05
5e-05
5e-05
5e-05
5e-05
5e-05
5e-05
5e-05
5e-05
5e-05
5e-05
5e-05
5e-05
5e-05
5e-05
5e-05
5e-05
5e-05
5e-05
5e-05
5e-05
5e-05
5e-05
5e-05
5e-05
5e-05
5e-05
5e-05
5e-05
5e-05
5e-05
5e-05
5e-05
5e-05
5e-05
5e-05
5e-05
5e-05
5e-05
5e-05
5e-05
5e-05
5e-05
5e-05
5e-05
5e-05
5e-05
5e-05
5e-05
5e-05
5e-05
5e-05
5e-05
5e-05
5e-05
5e-05
5e-05
5e-05
5e-05
5e-05
5e-05
5e-05
5e-05
5e-05
5e-05
5e-05
5e-05
5e-05
5e-05
5e-05
5e-05
5e-05
5e-05
5e-05
5e-05
5e-05
5e-05
5e-05
5e-05
5e-05
5e-05
5e-05
5e-05
5e-05
5e-05
5e-05
5e-05
5e-05
5e-05
5e-05
5e-05
5e-05
5e-05
5e-05
5e-05

SCALARS mass float 1
LOOKUP_TABLE default
1.46608e-10
1.46608e-10
1.46608e-10
1.46608e-10
1.46608e-10
1.46608e-10
1.46608e-10
1.46608e-10
1.46608e-10
1.46608e-10
1.46608e-10
1.46608e-10
1.46608e-10
1.46608e-10
1.46608e-10
1.46608e-10
1.46608e-10
1.46608e-10
1.46608e-10
1.46608e-10
1.46608e-10
1.46608e-10
1.46608e-10
1.46608e-10
1.46608e-10
1.46608e-10
1.46608e-10
1.46608e-10
1.46608e-10
1.46608e-10
1.46608e-10
1.46608e-10
1.46608e-10
1.46608e-10
1.46608e-10
1.46608e-10
1.46608e-10
1.46608e-10
1.46608e-10
1.46608e-10
1.46608e-10
1.46608e-10
1.46608e-10
1.46608e-10
1.46608e-10
1.46608e-10
1.46608e-10
1.46608e-10
1.46608e-10
1.46608e-10
1.46608e-10
1.46608e-10
1.46608e-10
1.46608e-10
1.46608e-10
1.46608e-10
1.46608e-10
1.46608e-10
1.46608e-10
1.46608e-10
1.46608e-10
1.46608e-10
1.46608e-10
1.46608e-10
1.46608e-10
1.46608e-10
1.46608e-10
1.46608e-10
1.46608e-10
1.46608e-10
1.46608e-10
1.46608e-10
1.46608e-10
1.46608e-10
1.46608e-10
1.46608e-10
1.46608e-10
1.46608e-10
1.46608e-10
1.46608e-10
1.46608e-10
1.46608e-10
1.46608e-10
1.46608e-10
1.46608e-10
1.46608e-10
1.46608e-10
1.46608e-10
1.46608e-10
1.46608e-10
1.46608e-10
1.46608e-10
1.46608e-10
1.46608e-10
1.46608e-10
1.46608e-10
1.46608e-10
1.46608e-10
1.46608e-10
1.46608e-10
1.46608e-10
1.46608e-10
1.46608e-10
1.46608e-10
1.46608e-10
1.46608e-10
1.46608e-10
1.46608e-10
1.46608e-10
1.46608e-10
1.46608e-10
1.46608e-10
1.46608e-10
1.46608e-10
1.46608e-10
1.46608e-10
1.46608e-10
1.46608e-10
1.46608e-10
1.46608e-10
1.46608e-10
1.46608e-10
1.46608e-10
1.46608e-10
1.46608e-10
1.46608e-10
1.46608e-10
1.46608e-10
1.46608e-10
1.46608e-10
1.46608e-10
1.46608e-10
1.46608e-10
1.46608e-10
1.46608e-10
1.46608e-10
1.46608e-10
1.46608e-10
1.46608e-10
1.46608e-10
1.46608e-10
1.46608e-10
1.46608e-10
1.46608e-10
1.46608e-10
1.46608e-10
1.46608e-10
1.46608e-10
1.46608e-10
1.46608e-10
1.46608e-10
1.46608e-10
1.46608e-10
1.46608e-10
1.46608e-10
1.46608e-10
1.46608e-10
1.46608e-10
1.46608e-10
1.46608e-10
1.46608e-10
1.46608e-10
1.46608e-10
1.46608e-10
1.46608e-10
1.46608e-10
1.46608e-10
1.46608e-10
1.46608e-10
1.46608e-10
1.46608e-10
1.46608e-10
1.46608e-10
1.46608e-10
1.46608e-10
1.46608e-10
1.46608e-10
1.46608e-10
1.46608e-10
1.46608e-10
1.46608e-10
1.46608e-10
1.46608e-10
1.46608e-10
1.46608e-10
1.46608e-10
1.46608e-10
1.46608e-10
1.46608e-10
1.46608e-10
1.46608e-10
1.46608e-10
1.46608e-10
1.46608e-10
1.46608e-10
1.46608e-10
1.46608e-10
1.46608e-10
1.46608e-10
1.46608e-10
1.46608e-10
1.46608e-10
1.46608e-10
1.46608e-10
1.46608e-10
1.46608e-10
1.46608e-10
1.46608e-10
1.46608e-10
1.46608e-10
1.46608e-10
1.46608e-10
1.46608e-10
1.46608e-10
1.46608e-10
1.46608e-10
1.46608e-10
1.46608e-10
1.46608e-10
1.46608e-10
1.46608e-10
1.46608e-10
1.46608e-10
1.46608e-10
1.46608e-10
1.46608e-10
1.46608e-10
1.46608e-10
1.46608e-10
1.46608e-10
1.46608e-10
1.46608e-10
1.46608e-10
1.46608e-10
1.46608e-10
1.46608e-10
1.46608e-10
1.46608e-10
1.46608e-10
1.46608e-10
1.46608e-10
1.46608e-10
1.46608e-10
1.46608e-10
1.46608e-10
1.46608e-10
1.46608e-10
1.46608e-10
1.46608e-10
1.46608e-10
1.46608e-10
1.46608e-10
1.46608e-10
1.46608e-10
1.46608e-10
1.46608e-10
1.46608e-10
1.46608e-10
1.46608e-10
1.46608e-10
1.46608e-10
1.46608e-10
1.46608e-10
1.46608e-10
1.46608e-10
1.46608e-10
1.46608e-10
1.46608e-10
1.46608e-10
1.46608e-10
1.46608e-10
1.46608e-10
1.46608e-10
1.46608e-10
1.46608e-10

VECTORS velocity float
0.00632889 0.000191797 -0.000118971
0.00570871 0.00030229 -4.83699e-05
0.00569229 0.0001964 3.49599e-06
0.00608472 -0.000208688 -0.000639879
0.00579657 0.000859452 0.000237191
0.00633485 0.000174604 -8.32315e-05
0.00564452 0.000265125 -4.39274e-05
0.00631431 0.000652384 -2.91211e-06
0.0056757 0.000226406 -1.25157e-05
0.00631194 0.000178131 -9.9327e-05
0.00581558 0.000411904 -0.000162189
0.00610954 -0.000214266 -0.000638373
0.00614443 0.000419119 -0.000174655
0.00614048 0.000375775 -0.000180037
0.00561515 0.000293519 -5.43712e-05
0.00612742 -0.000216734 -0.000638404
0.00627269 0.000146561 -0.000111952
0.00572824 0.000215663 -5.53518e-06
0.00615066 0.000383567 -0.000180746
0.00582181 0.000822903 0.000180103
0.00581067 -0.000122547 -0.000687487
0.00595641 0.000722342 -1.91488e-05
0.00582528 -4.02617e-05 -0.000452825
0.00570767 0.000240449 -1.75781e-05
0.00614585 -0.000218337 -0.000639286
0.00538337 -2.83664e-05 -0.000723434
0.00630108 0.000129194 -0.000110836
0.0056916 -9.84581e-05 -0.000695856
0.00566283 0.000857991 0.00020665
0.00595873 -0.000164434 -0.000667004
0.00550955 0.000389613 -0.000128524
0.0063165 0.000652799 -2.9125e-06
0.00571541 0.00020443 5.65101e-07
0.00573988 0.000352653 -0.000123328
0.00582625 0.000758502 4.87109e-05
0.00602562 -0.000188217 -0.000652112
0.00566047 0.00024111 -2.30443e-05
0.0059314 0.000205783 6.07057e-06
0.00566191 0.000858014 0.000206397
0.00603756 -0.000186944 -0.00065499
0.00631404 0.000158783 -0.000111576
0.00631428 0.000651866 -2.788e-06
0.00557694 -7.21182e-05 -0.000706111
0.00632073 0.000251173 -0.000123952
0.00601429 0.000371836 -0.000175352
0.00578044 0.000858577 0.000234427
0.00619048 0.000129076 -0.000107573
0.00574491 0.000456838 -0.000200489
0.00622792 8.3813e-05 -0.000101539
0.00570143 0.000858166 0.000215741
-5.01974e-15 -7.412e-15 7.69802e-14
0.00608167 0.00018244 2.26229e-05
0.00604315 -0.000196043 -0.000647025
0.00558235 0.000362864 -9.29093e-05
0.00630968 0.000153639 -0.000114997
0.00582003 0.000859103 0.000243516
0.00577758 0.000408421 -0.000163005
0.00616179 0.000457231 -0.000177116
0.00627725 0.000148289 -0.000112267
0.00560794 0.000257522 -2.83214e-05
0.00622681 0.000113906 -0.000106016
0.00619458 0.000675531 -8.63756e-06
0.00613308 0.000380224 -0.00018038
0.00632877 0.000186991 -0.000115249
0.0056639 0.000291196 -5.23447e-05
0.00543555 -3.91058e-05 -0.000717663
0.0056405 0.000204858 -0.000490935
0.00572757 0.000299511 -5.17948e-05
0.00585171 0.000890517 0.000127676
0.00613086 0.000371267 -0.000179314
0.00572535 0.000257421 -2.61857e-05
0.00613904 0.000430622 -0.000169129
0.00587764 0.000404709 -0.000150483
0.00631488 0.000652021 -2.7717e-06
0.00610529 0.000353258 -0.000177402
0.00579581 0.000225212 -1.13554e-05
0.005636 0.000235122 -1.90807e-05
0.00633583 0.000191027 -0.000108294
0.00632472 0.000194771 -8.66406e-05
0.0063097 0.000164755 -0.000114678
0.00581247 0.000457511 -0.000212167
0.00632347 0.000172394 -0.000117347
0.00559841 -5.80286e-05 -0.000693055
0.00634081 0.00016383 -0.000104496
0.00640385 0.000229924 -6.94401e-05
0.00632834 0.000182941 -1.31604e-05
0.00579269 0.000888702 0.000135484
0.00554122 -6.43306e-05 -0.000717405
0.00620787 0.000394777 -0.000176961
0.00630646 0.000157386 -0.000114796
0.00618722 0.000425893 -0.000180703
4.27353e-15 1.04958e-14 8.296e-14
7.51214e-23 4.86658e-23 1.23839e-22
0.00614483 0.00037587 -0.000180772
0.00582034 0.000862459 0.000134967
0.00571611 0.000394257 -0.000158334
0.00583839 0.000888753 0.000125455
0.00623443 9.83854e-05 -0.000103671
0.00623834 9.32742e-05 -0.000102963
0.00565599 0.000284761 -4.31924e-05
0.00566946 0.000259944 -3.43978e-05
0.0060297 -6.22424e-05 -0.000571613
0.00578174 0.000362293 -0.000216773
0.00586328 0.000438333 -0.000175425
0.00564491 0.000247516 -2.57347e-05
0.00630878 0.000149992 -0.000113313
0.00632249 0.000208745 -4.2886e-05
0.00584176 0.000446312 -0.000198703
0.00622479 7.78176e-05 -9.90296e-05
0.00564215 0.00027627 -4.4675e-05
0.00569546 0.000291606 -0.000125211
0.00564752 0.000296887 -5.18225e-05
0.00611836 0.00037118 -0.00017894
0.00564673 0.000284221 -4.63871e-05
0.0062546 0.000112133 6.98589e-05
0.00579839 0.000865253 0.00013664
0.00545232 -4.23384e-05 -0.000718109
0.00630345 0.000153928 -0.000109941
0.00595331 0.000422889 -0.000179871
0.00614639 0.000372022 -0.000177662
0.00552647 0.000508973 -0.000178063
0.00630795 0.000161334 -0.000116857
0.00628631 0.000149024 -0.000110251
0.00623274 0.000114574 -0.000106775
0.00572679 0.00042208 -0.000237217
0.00632978 0.000187522 -0.000104128
0.00632042 0.000177966 -0.000113778
0.00572559 0.000305197 -5.96131e-05
0.00638234 -7.50527e-05 -0.000491049
0.00609126 0.000370062 -0.000178392
0.00582487 0.000876983 0.00012771
0.00595172 0.000421604 -0.000185102
0.00561752 0.000180065 -0.000349976
0.00581741 0.000371043 -0.000164702
0.00635434 -4.53577e-05 -0.000523493
0.00563311 0.00020601 -0.000175054
0.00611727 0.000350161 -0.000176822
0.00612659 0.000375625 -0.000178348
0.00628412 -2.29896e-05 -0.000544088
0.00598677 -3.06683e-05 -0.000520839
0.00643511 -0.000255088 -0.000578384
0.00639728 -9.91323e-05 -0.000465202
-3.83352e-14 8.16533e-14 2.95891e-13
0.00612437 6.57544e-06 -0.000579884
0.00575525 0.000181841 -0.000399308
0.00619784 0.000444048 -0.000183078
0.00617386 0.000394155 -0.000152082
0.00672325 -0.000111793 -0.000336431
0.00613106 0.000372613 -0.000179696
0.00631534 0.000169309 -0.000111756
0.00614564 0.00038246 -0.000180785
0.00612664 0.000365257 -0.000180258
0.00613038 0.000351078 -0.000177374
0.00613661 0.00036413 -0.000178592
0.00634834 0.000207173 -0.000118647
0.00569997 0.000168867 -0.000401261
0.00628352 0.000171395 -0.000125479
0.00636906 -0.000235261 -0.000595013
0.00572857 0.00032225 -0.000248335
0.00675269 -0.000230398 -0.00033521
0.00595457 0.000387063 -0.000207843
0.00620639 0.000471328 -0.000187525
0.00578643 0.000363872 -0.000136731
0.00579176 0.000437261 -0.000172659
0.00631363 0.000158603 -0.000115913
0.0060372 0.000399417 -0.000206157
0.00609695 0.000360443 -0.000178403
0.00632541 0.00018187 -0.000118853
0.0057954 0.000198131 6.15861e-06
0.00570231 0.000331986 -0.000131877
0.00559612 -0.000388041 0.000159131
0.00566169 0.000283426 -4.01353e-05
0.00579887 0.000419268 -0.000173834
0.00623754 0.000100396 -0.000102844
0.00616563 0.000369278 -0.000168276
0.0061262 0.000381793 -0.000182119
0.00615306 0.000383739 -0.000177117
0.00578947 -0.000324353 0.00034992
0.00594671 0.000375105 -0.000174616
0.00613733 0.000354136 -0.000196513
0.00580855 0.000536912 -0.000173011
0.00613283 0.000373208 -0.000179918
0.00586408 2.4854e-05 -0.000615548
0.00630069 0.000163592 -0.000112879
0.00614458 0.000381029 -0.000179767
0.00640149 -6.91346e-05 -0.000493916
0.00584317 -7.85022e-05 -0.00043689
0.00666092 -3.23665e-05 -0.000596324
0.00606786 0.000368928 -0.000178297
0.00577979 0.000447356 -0.000202481
0.00563076 0.000254936 -3.17587e-05
0.00559056 0.000246814 -2.78173e-05
0.0061383 0.000370437 -0.000179121
0.00631852 0.000181338 -0.000117707
0.00569966 0.000249682 -2.24076e-05
0.00614708 -0.000633586 -2.26901e-05
0.00697807 -5.13494e-05 -0.000541924
0.00567071 0.000223184 -0.000114197
0.00595263 0.000435744 -0.000184322
0.00564865 5.22617e-05 -0.00049812
0.00610434 0.00036041 -0.000179536
0.00625305 0.000154576 3.74646e-05
0.00599055 -5.11958e-05 -0.000463533
0.00566 0.000253905 -3.3603e-05
0.00613629 0.000364066 -0.000178151
0.00604001 -0.00058975 -8.71091e-06
0.00604704 -0.000618183 -2.52687e-05
0.00611574 0.000367053 -0.000194517
0.00317739 0.000322553 -0.000746288
0.00609666 0.000378051 -0.000203262
0.00619756 0.000512869 -0.00019467
0.00569629 0.000283664 -8.36921e-05
0.00577336 -0.000179419 -0.000638117
0.00554226 -0.000344007 -0.000801374
0.00559823 -0.000115983 -0.0006018
0.0054258 -0.000203577 0.000266345
0.00544091 -0.000244162 0.000292293
0.00541377 -0.000203771 0.000266264
0.00636994 -0.000106914 -0.000451453
0.00614156 0.000389062 -0.000175986
0.00542473 -0.000216103 0.000273844
0.00597185 -0.000593631 3.19367e-06
0.00647258 -0.000282769 -0.000585445
0.00578826 0.000409351 -0.000167317
0.00588243 -0.000368491 0.000380905
0.00617114 -0.000104356 -0.000513658
0.00633204 0.000165237 -0.00010981
0.0059815 -0.000614982 -2.71878e-05
0.00555923 -0.000385782 0.000143721
0.0059112 -0.000381218 0.000387562
0.00586438 0.000889162 0.000133093
0.0061428 0.000401235 -0.000182286
0.00622187 -6.93393e-06 -0.000564
0.00581889 0.000437908 -0.000222327
0.00601643 -0.000617519 -2.48983e-05
0.00611291 0.000376315 -0.000180503
0.00573054 0.000204936 -0.000359509
0.00573017 0.000457178 -0.000191931
0.00582558 -0.000347041 0.000363627
0.00680539 -0.000234525 -0.000424322
0.00561375 -0.000387379 0.000160908
0.00617197 0.000421269 -0.000180442
0.00654985 -8.65993e-05 -0.000407607
0.00591227 0.00043682 -0.000183673
0.00610485 0.000391833 -0.000187415
0.00608348 0.000149408 -0.000166934
0.0061999 0.00049533 -0.000192009
0.00611639 -0.000629843 -2.22506e-05
0.00630839 -7.33452e-05 -0.000479728
0.0060429 -0.000621484 -2.33642e-05
0.00638424 -9.44071e-05 -0.000462451
0.00633165 -4.92581e-05 -0.000598665
0.00638405 -0.000181814 -0.000508036
0.00583041 0.000428466 -0.00018244
0.00554264 -0.000278196 0.000159261
0.00572889 -0.000486413 2.78607e-05
0.00617897 0.000421489 -0.000184103
0.00542287 -0.000232591 0.000284089
0.00337288 0.000321975 -0.000712823
0.00601603 -5.51877e-05 -0.000487917
0.00696555 -0.000219764 -0.000348464
0.00472711 -0.000104229 -0.000773465
0.00613831 0.000385982 -0.000180376
0.00699771 -8.0767e-05 -0.00053964
0.00558502 0.000370367 -0.000333024
0.00601019 0.00026731 -0.000219445
0.00613269 0.000431504 -0.000225368
0.00588785 5.6526e-05 -0.000444317
0.00502796 -0.000224754 -0.000778544
0.00555914 -0.000397519 0.000165831
0.00630376 -0.000111336 -0.000465497
0.00630603 0.000159555 -0.000114983
0.00562843 -0.000288432 0.000324396
0.00590674 -0.000518879 0.000139492
0.00632342 0.000174287 -0.000113313

VECTORS force float
-4.52212e-11 -7.62649e-11 1.36921e-11
-5.11972e-10 4.74669e-10 -3.87075e-10
1.3327e-10 -3.00462e-10 2.13778e-10
1.90996e-11 6.2684e-11 -6.35851e-11
3.04667e-12 3.51823e-12 -3.45225e-12
7.14132e-11 -6.39671e-11 3.1774e-11
6.73353e-11 -4.39837e-11 -2.04476e-11
-4.0516e-12 6.64034e-13 -1.81964e-12
-5.06583e-11 -6.14096e-11 1.46515e-11
6.60658e-11 -1.27843e-11 -5.09555e-11
1.37353e-10 -4.23086e-11 -8.72088e-12
2.5356e-11 6.5061e-11 -6.8907e-11
3.6334e-10 -3.41728e-10 6.90113e-11
-7.91386e-11 1.33799e-10 3.77925e-12
3.73963e-11 -8.47199e-11 3.69354e-11
2.30796e-11 5.23617e-11 -5.84387e-11
-6.25859e-11 1.07142e-10 -6.4624e-11
-1.28079e-10 -3.63662e-10 2.08509e-10
9.87172e-11 1.59991e-10 -4.13429e-11
-1.2643e-12 -1.54056e-12 -2.05044e-12
-9.54798e-11 1.03639e-11 5.82682e-13
-4.96842e-13 -4.77942e-13 2.01105e-12
-3.92356e-10 -4.01776e-10 2.53003e-12
-3.02426e-10 4.7698e-10 -2.39078e-10
5.1339e-12 3.53138e-11 -3.35079e-11
-2.68828e-10 4.75064e-12 4.87823e-11
1.5725e-10 -1.23462e-10 4.94359e-13
-6.07988e-11 -1.60308e-11 1.89108e-11
-1.85417e-12 2.85027e-12 -4.11797e-12
-1.43331e-11 9.57437e-12 -1.25539e-11
1.31617e-09 -1.06444e-09 7.17878e-10
-8.97177e-12 3.18018e-12 2.53589e-13
5.44266e-11 -5.69731e-10 3.24592e-10
-1.65773e-10 1.64356e-10 5.17912e-10
-2.19197e-12 -8.93554e-13 1.69488e-12
-3.84809e-11 5.5984e-11 -4.59954e-11
3.96974e-10 -3.30241e-10 1.85978e-10
-1.12773e-10 -3.45462e-10 2.99942e-10
1.47286e-12 2.88461e-12 -2.76879e-12
5.53418e-12 2.47805e-11 -3.7178e-11
1.5544e-11 2.68086e-10 -5.4656e-11
1.73916e-11 -7.41353e-12 3.02407e-13
-5.44205e-11 -2.95579e-11 4.12516e-11
-3.69168e-10 1.40712e-10 1.14674e-11
-2.6089e-10 1.29139e-11 1.35454e-11
1.61839e-12 1.9505e-12 -1.31246e-12
-4.00435e-10 1.14379e-10 -2.99008e-12
6.26791e-10 -1.91909e-11 -1.005e-10
5.83005e-11 5.59235e-11 3.07e-12
1.17505e-12 2.08901e-12 -1.64428e-12
-2.33937e-24 -1.42172e-24 -4.1359e-25
-5.36914e-11 -3.0827e-10 2.18062e-10
-3.52382e-11 6.40292e-11 -5.90748e-11
-9.17365e-11 -8.05091e-10 3.84789e-10
5.60683e-11 1.97515e-10 -6.63039e-11
4.46109e-13 6.12406e-13 -2.45863e-12
8.38881e-10 -4.06442e-12 -2.1981e-10
-6.95767e-11 7.81298e-11 7.43601e-11
-2.35297e-10 1.1014e-10 -2.28373e-11
7.13621e-10 4.03623e-10 -1.72486e-10
8.70154e-11 8.25701e-11 -1.57571e-11
-3.10428e-12 1.97994e-13 -1.45984e-12
-2.51788e-11 3.96334e-11 -2.09313e-11
1.44382e-10 4.3041e-11 -5.76715e-11
-2.41464e-10 -2.46632e-11 1.43034e-11
-3.87546e-10 4.34906e-11 1.98163e-11
6.46725e-11 3.65898e-10 -1.88129e-10
3.98019e-11 6.94099e-10 -5.28362e-10
-7.11126e-11 -5.75288e-11 1.03413e-10
-1.30674e-11 2.70941e-11 5.66321e-12
-1.05346e-09 7.76483e-10 -4.24049e-10
-1.29583e-10 -4.67231e-11 4.21151e-11
4.9819e-11 9.76952e-13 1.07391e-11
3.4729e-12 -1.15133e-11 1.90715e-12
2.42837e-11 5.56346e-11 -1.4007e-12
-2.67289e-11 -4.94922e-10 2.71648e-10
5.5903e-11 3.00807e-10 -9.82335e-11
2.65986e-10 -3.86e-10 -2.04563e-10
7.94106e-11 -5.44673e-11 -4.09279e-11
5.81207e-11 3.74192e-12 4.09476e-11
-4.45899e-11 -3.12289e-11 6.18421e-12
1.75553e-10 -3.24734e-12 -2.53043e-10
-3.4832e-11 -1.78187e-10 3.38674e-11
-2.39792e-10 2.94395e-11 -1.72479e-10
-4.34292e-10 -1.29164e-10 1.77479e-10
2.10708e-10 2.52042e-10 -3.19661e-10
1.41696e-10 2.42343e-10 -4.80494e-10
1.14952e-10 -1.22585e-10 1.27024e-10
5.49346e-11 -2.36794e-10 1.12016e-10
1.55141e-11 -2.29902e-11 2.29295e-11
5.16156e-11 -1.35345e-10 4.11283e-11
2.79264e-22 -3.55016e-22 2.83309e-23
0.0 0.0 0.0
-1.16846e-10 9.47454e-11 2.39222e-11
1.02984e-10 1.02814e-10 -1.73619e-10
1.53106e-10 4.74095e-11 -9.05311e-11
-4.05939e-11 -1.34129e-10 5.52032e-11