# vtk DataFile Version 3.0
LIGGGHTS particles timestep 59000000
ASCII
DATASET POLYDATA
POINTS 275 float
0.357108 0.0178226 0.0070206
0.356872 0.0168517 0.00782421
0.357074 0.0169867 0.00772573
0.356526 0.0158355 0.00887106
0.362939 0.0171207 0.00746882
0.357198 0.0174712 0.00723732
0.356882 0.0166154 0.00809119
0.363136 0.0179477 0.00694246
0.35702 0.0167833 0.00793922
0.357305 0.0178879 0.00702188
0.351332 0.0176038 0.00718293
0.356504 0.0157677 0.00894131
0.351485 0.0184474 0.00698119
0.351387 0.0186781 0.00684286
0.356784 0.0165805 0.00810485
0.35715 0.0180146 0.0070208
0.357239 0.0176145 0.00710476
0.357042 0.0168511 0.00786905
0.351481 0.0182724 0.00695498
0.363058 0.0176186 0.00715599
0.356647 0.0161741 0.00852386
0.363097 0.0177832 0.00704918
0.350934 0.016683 0.00759954
0.357169 0.0175655 0.00725446
0.356482 0.0156999 0.00901156
0.356739 0.0164452 0.00824446
0.357356 0.0177259 0.00703615
0.356671 0.0162418 0.00845445
0.362959 0.0172041 0.00741734
0.356622 0.0161064 0.00859305
0.357161 0.0173262 0.0073691
0.3632 0.0182405 0.00695286
0.357056 0.0169188 0.0077968
0.357126 0.0171902 0.0075116
0.363077 0.017701 0.00710255
0.356572 0.015971 0.00873147
0.35711 0.0171224 0.00758315
0.357299 0.0174948 0.0072156
0.362979 0.0172875 0.00736586
0.356596 0.0160387 0.00866213
0.357046 0.0175581 0.00714165
0.363157 0.0180453 0.00694592
0.356694 0.0163096 0.0083846
0.357374 0.0178182 0.00700225
0.351396 0.0178822 0.00708799
0.363018 0.0174542 0.00726266
0.357304 0.0183395 0.0070815
0.351057 0.0171839 0.0073502
0.357191 0.0182067 0.00705815
0.362998 0.0173709 0.00731438
0.378022 0.019866 0.005332
0.357315 0.0175626 0.0071441
0.356547 0.0159033 0.00880088
0.357143 0.0172581 0.00744015
0.357381 0.0182769 0.00707015
0.363038 0.0175365 0.00720929
0.351025 0.0172668 0.00739606
0.351248 0.0180089 0.00704769
0.357258 0.0176965 0.00705061
0.357016 0.0170885 0.00759689
0.35742 0.0180149 0.00704083
0.363118 0.0178652 0.00699598
0.351366 0.0185812 0.0068565
0.357326 0.0179856 0.00702859
0.357092 0.0170545 0.00765454
0.356716 0.0163774 0.00831444
0.350998 0.0169201 0.00748032
0.356886 0.0169195 0.00775207
0.350566 0.0156858 0.00853492
0.351408 0.018771 0.00687282
0.356981 0.0169559 0.00774217
0.35136 0.0181409 0.00700133
0.351354 0.0176966 0.00715126
0.363179 0.0181429 0.00694939
0.351231 0.018365 0.00692788
0.35728 0.0174269 0.00728669
0.356947 0.0168189 0.00788056
0.357065 0.017292 0.00738197
0.357441 0.0181123 0.00705115
0.357279 0.0177871 0.00700271
0.351165 0.0172294 0.00733075
0.356971 0.0172586 0.00739497
0.357032 0.0175191 0.00729827
0.357224 0.0179462 0.00701408
0.357109 0.0177159 0.00714082
0.356954 0.0171908 0.00746641
0.350649 0.0159061 0.00821154
0.356839 0.0164798 0.00823161
0.351062 0.0176361 0.00717648
0.357218 0.0175388 0.00716646
0.351083 0.0177285 0.00714496
0.0643568 0.0187248 0.00531097
0.24257 0.0191927 0.00520306
0.351349 0.0189255 0.00691987
0.350666 0.0159617 0.0081303
0.351098 0.0173617 0.00726844
0.350588 0.0157407 0.00845422
0.357367 0.0181782 0.00706258
0.357211 0.0183027 0.00707683
0.356914 0.017028 0.00777129
0.35685 0.0167839 0.00789442
0.351092 0.0175327 0.00729284
0.350958 0.0171767 0.00734352
0.351019 0.0174512 0.00723954
0.357254 0.0173593 0.00735571
0.357141 0.0175822 0.00711627
0.357178 0.0173938 0.00729729
0.351193 0.0173901 0.00725728
0.357346 0.0180816 0.00704727
0.356998 0.0167154 0.00800944
0.357244 0.0180438 0.00703301
0.356939 0.0171329 0.00754911
0.35127 0.0185505 0.00686465
0.35686 0.0165476 0.00816122
0.35705 0.0172242 0.00745397
0.35063 0.0158507 0.0082926
0.356762 0.0165172 0.00817909
0.357181 0.0178479 0.00709313
0.351141 0.0175466 0.00720536
0.351162 0.0176391 0.00717383
0.357237 0.0172914 0.00742703
0.357162 0.0176687 0.00707048
0.357121 0.0174973 0.00716675
0.357401 0.0179172 0.00702191
0.351038 0.0170951 0.0073918
0.35725 0.0184824 0.00709814
0.357008 0.0174081 0.00726855
0.356903 0.0169873 0.00768062
0.350975 0.0164021 0.00774905
0.351444 0.0180861 0.00701843
0.350609 0.0157957 0.00837345
0.351236 0.0175756 0.00719402
0.350783 0.0160342 0.0080145
0.351119 0.0174542 0.00723689
0.350985 0.0164906 0.00770353
0.356806 0.0166483 0.00803482
0.351213 0.0182878 0.00698912
0.351126 0.0179148 0.00708654
0.351012 0.0165769 0.00766043
0.3509 0.01607 0.00795143
0.351115 0.0176256 0.00726089
0.350956 0.0163146 0.00779333
0.0219312 0.0187687 0.00551176
0.351051 0.0167518 0.00757193
0.357266 0.0175862 0.00724017
0.351105 0.017821 0.00711342
0.351389 0.0185511 0.00694892
0.350908 0.016778 0.00764322
0.351289 0.0182075 0.00698002
0.357027 0.0174831 0.0072051
0.351169 0.0180981 0.0070189
0.351326 0.0183935 0.00691667
0.35119 0.0181906 0.00698737
0.351305 0.018301 0.00694824
0.357287 0.0182371 0.00707066
0.350938 0.0170892 0.00738778
0.35717 0.0181106 0.00703947
0.350722 0.0161403 0.00789668
0.351142 0.0171376 0.00737699
0.350802 0.0165027 0.00779421
0.351197 0.017993 0.00713654
0.351218 0.0180854 0.00710501
0.357129 0.0179185 0.00700213
0.350998 0.0173592 0.00727253
0.357201 0.0178495 0.00699507
0.351258 0.017668 0.00716249
0.351252 0.0184574 0.00689634
0.357182 0.017756 0.00702515
0.357033 0.0171563 0.00752541
0.357181 0.0179657 0.00710215
0.345156 0.0180743 0.00724685
0.356828 0.0167161 0.00796464
0.350977 0.017268 0.00730809
0.357229 0.0183885 0.00712514
0.351445 0.0185224 0.00687126
0.351383 0.0182408 0.00696725
0.351328 0.017952 0.00706555
0.344823 0.0166736 0.00794456
0.351375 0.0177894 0.0071196
0.351503 0.0183676 0.0069225
0.350915 0.0161399 0.0078816
0.351404 0.0183336 0.0069356
0.351035 0.0168388 0.00752537
0.357102 0.0174276 0.00723986
0.351523 0.0184627 0.0068901
0.35088 0.0164255 0.00773007
0.350915 0.0165955 0.00764382
0.350804 0.0160967 0.0079392
0.351424 0.0179785 0.00705503
0.351077 0.0172714 0.00730618
0.356904 0.0166832 0.00802101
0.356926 0.016751 0.00795079
0.351425 0.0184281 0.00690338
0.357086 0.017728 0.00704426
0.356998 0.0170206 0.00766793
0.345052 0.0176366 0.00746489
0.350704 0.0160728 0.00796826
0.357266 0.0181411 0.00705198
0.351041 0.0175436 0.00720801
0.356992 0.0173557 0.00741892
0.351183 0.0177315 0.0071423
0.357334 0.0176424 0.00708688
0.350955 0.016771 0.00755502
0.35696 0.0168986 0.00782151
0.351459 0.0181796 0.00698662
0.345073 0.0177241 0.00742128
0.34501 0.0174615 0.0075521
0.351347 0.0184872 0.00688474
0.35084 0.0166518 0.00760911
0.351329 0.0188311 0.00688947
0.351148 0.0180057 0.00705043
0.35692 0.0170552 0.00760919
0.350801 0.0164769 0.00769759
0.350899 0.0169142 0.00747631
0.350919 0.0170019 0.00743253
0.344705 0.016239 0.00816246
0.344776 0.0164997 0.00803172
0.344686 0.0161511 0.00820609
0.350935 0.0162273 0.00783741
0.351301 0.017853 0.00709941
0.344729 0.0163258 0.00811891
0.344927 0.0171113 0.00772654
0.350742 0.0162192 0.00783858
0.351179 0.0179004 0.00717015
0.344867 0.0168482 0.00785737
0.350839 0.0162484 0.00781959
0.357085 0.0173598 0.00731118
0.344948 0.0171989 0.00768293
0.345135 0.0179868 0.00729046
0.344885 0.0169362 0.00781375
0.351308 0.0187373 0.00686167
0.351288 0.0186437 0.00683292
0.351031 0.0166644 0.00761615
0.351307 0.0180415 0.00712151
0.344969 0.0172864 0.00763932
0.351269 0.0181013 0.00701616
0.350986 0.0170927 0.00747729
0.351154 0.0178082 0.00719944
0.344846 0.0167606 0.00790099
0.350953 0.0171807 0.00744332
0.345177 0.0181618 0.00720324
0.351205 0.017824 0.00711076
0.350861 0.016338 0.00777435
0.351215 0.0174826 0.00722573
0.351279 0.0177605 0.00713094
0.357074 0.0175865 0.00723329
0.351248 0.0181841 0.00706852
0.345031 0.017549 0.0075085
0.350892 0.0165257 0.00771339
0.344989 0.017374 0.00759571
0.350773 0.0163868 0.00784147
0.350819 0.0161608 0.00786385
0.350761 0.0163019 0.00778612
0.351052 0.0173549 0.00735683
0.345257 0.018105 0.00722203
0.345094 0.0178117 0.00737767
0.351226 0.0179164 0.00707923
0.344753 0.0164127 0.00807532
0.350859 0.0167393 0.00756483
0.350953 0.0168833 0.00756135
0.351599 0.0184001 0.00690997
0.35082 0.0165661 0.00765667
0.351353 0.0180464 0.00703332
0.350685 0.0160171 0.00804918
0.351018 0.0170075 0.00743611
0.351427 0.0188646 0.00690289
0.351347 0.0183668 0.00701077
0.350964 0.0170042 0.00752175
0.350879 0.0168279 0.00752279
0.345115 0.0178992 0.00733407
0.350781 0.0163894 0.00774187
0.357065 0.0176415 0.00709014
0.3448 0.0165867 0.00798813
0.344906 0.0170238 0.00777014
0.356989 0.0173267 0.00732328

VERTICES 275 550
1 0
1 1
1 2
1 3
1 4
1 5
1 6
1 7
1 8
1 9
1 10
1 11
1 12
1 13
1 14
1 15
1 16
1 17
1 18
1 19
1 20
1 21
1 22
1 23
1 24
1 25
1 26
1 27
1 28
1 29
1 30
1 31
1 32
1 33
1 34
1 35
1 36
1 37
1 38
1 39
1 40
1 41
1 42
1 43
1 44
1 45
1 46
1 47
1 48
1 49
1 50
1 51
1 52
1 53
1 54
1 55
1 56
1 57
1 58
1 59
1 60
1 61
1 62
1 63
1 64
1 65
1 66
1 67
1 68
1 69
1 70
1 71
1 72
1 73
1 74
1 75
1 76
1 77
1 78
1 79
1 80
1 81
1 82
1 83
1 84
1 85
1 86
1 87
1 88
1 89
1 90
1 91
1 92
1 93
1 94
1 95
1 96
1 97
1 98
1 99
1 100
1 101
1 102
1 103
1 104
1 105
1 106
1 107
1 108
1 109
1 110
1 111
1 112
1 113
1 114
1 115
1 116
1 117
1 118
1 119
1 120
1 121
1 122
1 123
1 124
1 125
1 126
1 127
1 128
1 129
1 130
1 131
1 132
1 133
1 134
1 135
1 136
1 137
1 138
1 139
1 140
1 141
1 142
1 143
1 144
1 145
1 146
1 147
1 148
1 149
1 150
1 151
1 152
1 153
1 154
1 155
1 156
1 157
1 158
1 159
1 160
1 161
1 162
1 163
1 164
1 165
1 166
1 167
1 168
1 169
1 170
1 171
1 172
1 173
1 174
1 175
1 176
1 177
1 178
1 179
1 180
1 181
1 182
1 183
1 184
1 185
1 186
1 187
1 188
1 189
1 190
1 191
1 192
1 193
1 194
1 195
1 196
1 197
1 198
1 199
1 200
1 201
1 202
1 203
1 204
1 205
1 206
1 207
1 208
1 209
1 210
1 211
1 212
1 213
1 214
1 215
1 216
1 217
1 218
1 219
1 220
1 221
1 222
1 223
1 224
1 225
1 226
1 227
1 228
1 229
1 230
1 231
1 232
1 233
1 234
1 235
1 236
1 237
1 238
1 239
1 240
1 241
1 242
1 243
1 244
1 245
1 246
1 247
1 248
1 249
1 250
1 251
1 252
1 253
1 254
1 255
1 256
1 257
1 258
1 259
1 260
1 261
1 262
1 263
1 264
1 265
1 266
1 267
1 268
1 269
1 270
1 271
1 272
1 273
1 274

POINT_DATA 275
SCALARS id int 1
LOOKUP_TABLE default
1
2
4
5
6
7
8
9
10
11
12
13
14
16
17
19
21
22
23
24
25
26
27
28
29
30
31
32
33
34
35
36
37
38
39
41
42
44
45
47
48
49
50
51
52
53
54
55
56
57
59
60
61
62
63
64
65
66
67
68
69
70
71
72
73
74
76
77
78
79
80
82
83
84
85
86
87
88
89
90
91
92
93
94
95
96
97
98
99
100
101
102
103
104
105
106
107
108
109
110
111
112
113
114
115
116
117
118
119
120
121
122
123
124
125
127
128
129
130
131
132
133
134
135
136
137
138
140
141
142
143
144
146
147
148
149
150
151
153
154
155
156
157
158
159
160
162
164
165
166
167
168
169
170
171
172
173
174
176
177
178
179
182
183
184
185
186
187
188
189
190
191
192
193
194
195
196
197
198
199
200
201
202
203
204
205
206
207
208
209
210
211
212
213
214
215
216
217
218
219
220
222
224
225
226
227
228
229
230
232
233
234
235
236
237
239
240
241
242
243
244
246
247
248
249
250
251
252
253
254
255
256
257
258
259
260
261
262
263
264
265
266
267
268
269
270
271
272
273
274
275
276
277
278
279
280
281
283
284
285
286
287
288
289
290
291
292
293
294
295
296
297
298
299
300

SCALARS type int 1
LOOKUP_TABLE default
1
1
1
1
1
1
1
1
1
1
1
1
1
1
1
1
1
1
1
1
1
1
1
1
1
1
1
1
1
1
1
1
1
1
1
1
1
1
1
1
1
1
1
1
1
1
1
1
1
1
1
1
1
1
1
1
1
1
1
1
1
1
1
1
1
1
1
1
1
1
1
1
1
1
1
1
1
1
1
1
1
1
1
1
1
1
1
1
1
1
1
1
1
1
1
1
1
1
1
1
1
1
1
1
1
1
1
1
1
1
1
1
1
1
1
1
1
1
1
1
1
1
1
1
1
1
1
1
1
1
1
1
1
1
1
1
1
1
1
1
1
1
1
1
1
1
1
1
1
1
1
1
1
1
1
1
1
1
1
1
1
1
1
1
1
1
1
1
1
1
1
1
1
1
1
1
1
1
1
1
1
1
1
1
1
1
1
1
1
1
1
1
1
1
1
1
1
1
1
1
1
1
1
1
1
1
1
1
1
1
1
1
1
1
1
1
1
1
1
1
1
1
1
1
1
1
1
1
1
1
1
1
1
1
1
1
1
1
1
1
1
1
1
1
1
1
1
1
1
1
1
1
1
1
1
1
1
1
1
1
1
1
1
1
1
1
1
1
1
1
1
1
1
1
1

SCALARS radius float 1
LOOKUP_TABLE default
5e-05
5e-05
5e-05
5e-05
5e-05
5e-05
5e-05
5e-05
5e-05
5e-05
5e-05
5e-05
5e-05
5e-05
5e-05
5e-05
5e-05
5e-05
5e-05
5e-05
5e-05
5e-05
5e-05
5e-05
5e-05
5e-05
5e-05
5e-05
5e-05
5e-05
5e-05
5e-05
5e-05
5e-05
5e-05
5e-05
5e-05
5e-05
5e-05
5e-05
5e-05
5e-05
5e-05
5e-05
5e-05
5e-05
5e-05
5e-05
5e-05
5e-05
5e-05
5e-05
5e-05
5e-05
5e-05
5e-05
5e-05
5e-05
5e-05
5e-05
5e-05
5e-05
5e-05
5e-05
5e-05
5e-05
5e-05
5e-05
5e-05
5e-05
5e-05
5e-05
5e-05
5e-05
5e-05
5e-05
5e-05
5e-05
5e-05
5e-05
5e-05
5e-05
5e-05
5e-05
5e-05
5e-05
5e-05
5e-05
5e-05
5e-05
5e-05
5e-05
5e-05
5e-05
5e-05
5e-05
5e-05
5e-05
5e-05
5e-05
5e-05
5e-05
5e-05
5e-05
5e-05
5e-05
5e-05
5e-05
5e-05
5e-05
5e-05
5e-05
5e-05
5e-05
5e-05
5e-05
5e-05
5e-05
5e-05
5e-05
5e-05
5e-05
5e-05
5e-05
5e-05
5e-05
5e-05
5e-05
5e-05
5e-05
5e-05
5e-05
5e-05
5e-05
5e-05
5e-05
5e-05
5e-05
5e-05
5e-05
5e-05
5e-05
5e-05
5e-05
5e-05
5e-05
5e-05
5e-05
5e-05
5e-05
5e-05
5e-05
5e-05
5e-05
5e-05
5e-05
5e-05
5e-05
5e-05
5e-05
5e-05
5e-05
5e-05
5e-05
5e-05
5e-05
5e-05
5e-05
5e-05
5e-05
5e-05
5e-05
5e-05
5e-05
5e-05
5e-05
5e-05
5e-05
5e-05
5e-05
5e-05
5e-05
5e-05
5e-05
5e-05
5e-05
5e-05
5e-05
5e-05
5e-05
5e-05
5e-05
5e-05
5e-05
5e-05
5e-05
5e-05
5e-05
5e-05
5e-05
5e-05
5e-05
5e-05
5e-05
5e-05
5e-05
5e-05
5e-05
5e-05
5e-05
5e-05
5e-05
5e-05
5e-05
5e-05
5e-05
5e-05
5e-05
5e-05
5e-05
5e-05
5e-05
5e-05
5e-05
5e-05
5e-05
5e-05
5e-05
5e-05
5e-05
5e-05
5e-05
5e-05
5e-05
5e-05
5e-05
5e-05
5e-05
5e-05
5e-05
5e-05
5e-05
5e-05
5e-05
5e-05
5e-05
5e-05
5e-05
5e-05
5e-05
5e-05
5e-05
5e-05
5e-05
5e-05
5e-05
5e-05
5e-05
5e-05
5e-05
5e-05
5e-05
5e-05
5e-05
5e-05
5e-05
5e-05
5e-05
5e-05
5e-05
5e-05
5e-05
5e-05
5e-05
5e-05

SCALARS mass float 1
LOOKUP_TABLE default
1.46608e-10
1.46608e-10
1.46608e-10
1.46608e-10
1.46608e-10
1.46608e-10
1.46608e-10
1.46608e-10
1.46608e-10
1.46608e-10
1.46608e-10
1.46608e-10
1.46608e-10
1.46608e-10
1.46608e-10
1.46608e-10
1.46608e-10
1.46608e-10
1.46608e-10
1.46608e-10
1.46608e-10
1.46608e-10
1.46608e-10
1.46608e-10
1.46608e-10
1.46608e-10
1.46608e-10
1.46608e-10
1.46608e-10
1.46608e-10
1.46608e-10
1.46608e-10
1.46608e-10
1.46608e-10
1.46608e-10
1.46608e-10
1.46608e-10
1.46608e-10
1.46608e-10
1.46608e-10
1.46608e-10
1.46608e-10
1.46608e-10
1.46608e-10
1.46608e-10
1.46608e-10
1.46608e-10
1.46608e-10
1.46608e-10
1.46608e-10
1.46608e-10
1.46608e-10
1.46608e-10
1.46608e-10
1.46608e-10
1.46608e-10
1.46608e-10
1.46608e-10
1.46608e-10
1.46608e-10
1.46608e-10
1.46608e-10
1.46608e-10
1.46608e-10
1.46608e-10
1.46608e-10
1.46608e-10
1.46608e-10
1.46608e-10
1.46608e-10
1.46608e-10
1.46608e-10
1.46608e-10
1.46608e-10
1.46608e-10
1.46608e-10
1.46608e-10
1.46608e-10
1.46608e-10
1.46608e-10
1.46608e-10
1.46608e-10
1.46608e-10
1.46608e-10
1.46608e-10
1.46608e-10
1.46608e-10
1.46608e-10
1.46608e-10
1.46608e-10
1.46608e-10
1.46608e-10
1.46608e-10
1.46608e-10
1.46608e-10
1.46608e-10
1.46608e-10
1.46608e-10
1.46608e-10
1.46608e-10
1.46608e-10
1.46608e-10
1.46608e-10
1.46608e-10
1.46608e-10
1.46608e-10
1.46608e-10
1.46608e-10
1.46608e-10
1.46608e-10
1.46608e-10
1.46608e-10
1.46608e-10
1.46608e-10
1.46608e-10
1.46608e-10
1.46608e-10
1.46608e-10
1.46608e-10
1.46608e-10
1.46608e-10
1.46608e-10
1.46608e-10
1.46608e-10
1.46608e-10
1.46608e-10
1.46608e-10
1.46608e-10
1.46608e-10
1.46608e-10
1.46608e-10
1.46608e-10
1.46608e-10
1.46608e-10
1.46608e-10
1.46608e-10
1.46608e-10
1.46608e-10
1.46608e-10
1.46608e-10
1.46608e-10
1.46608e-10
1.46608e-10
1.46608e-10
1.46608e-10
1.46608e-10
1.46608e-10
1.46608e-10
1.46608e-10
1.46608e-10
1.46608e-10
1.46608e-10
1.46608e-10
1.46608e-10
1.46608e-10
1.46608e-10
1.46608e-10
1.46608e-10
1.46608e-10
1.46608e-10
1.46608e-10
1.46608e-10
1.46608e-10
1.46608e-10
1.46608e-10
1.46608e-10
1.46608e-10
1.46608e-10
1.46608e-10
1.46608e-10
1.46608e-10
1.46608e-10
1.46608e-10
1.46608e-10
1.46608e-10
1.46608e-10
1.46608e-10
1.46608e-10
1.46608e-10
1.46608e-10
1.46608e-10
1.46608e-10
1.46608e-10
1.46608e-10
1.46608e-10
1.46608e-10
1.46608e-10
1.46608e-10
1.46608e-10
1.46608e-10
1.46608e-10
1.46608e-10
1.46608e-10
1.46608e-10
1.46608e-10
1.46608e-10
1.46608e-10
1.46608e-10
1.46608e-10
1.46608e-10
1.46608e-10
1.46608e-10
1.46608e-10
1.46608e-10
1.46608e-10
1.46608e-10
1.46608e-10
1.46608e-10
1.46608e-10
1.46608e-10
1.46608e-10
1.46608e-10
1.46608e-10
1.46608e-10
1.46608e-10
1.46608e-10
1.46608e-10
1.46608e-10
1.46608e-10
1.46608e-10
1.46608e-10
1.46608e-10
1.46608e-10
1.46608e-10
1.46608e-10
1.46608e-10
1.46608e-10
1.46608e-10
1.46608e-10
1.46608e-10
1.46608e-10
1.46608e-10
1.46608e-10
1.46608e-10
1.46608e-10
1.46608e-10
1.46608e-10
1.46608e-10
1.46608e-10
1.46608e-10
1.46608e-10
1.46608e-10
1.46608e-10
1.46608e-10
1.46608e-10
1.46608e-10
1.46608e-10
1.46608e-10
1.46608e-10
1.46608e-10
1.46608e-10
1.46608e-10
1.46608e-10
1.46608e-10
1.46608e-10
1.46608e-10
1.46608e-10
1.46608e-10
1.46608e-10
1.46608e-10
1.46608e-10
1.46608e-10
1.46608e-10
1.46608e-10
1.46608e-10
1.46608e-10
1.46608e-10
1.46608e-10
1.46608e-10
1.46608e-10
1.46608e-10
1.46608e-10
1.46608e-10
1.46608e-10
1.46608e-10

VECTORS velocity float
0.00605043 -0.000757479 0.000244708
0.00540552 0.000148727 0.00122405
0.00536502 0.000200531 0.00116773
0.00543457 0.000133406 0.00125663
0.00575275 -1.94732e-06 0.000100958
0.0058753 8.31894e-05 0.00106348
0.00592287 0.000185939 0.00132689
0.00628179 -0.000161404 4.95754e-05
0.00549227 0.000211551 0.00118194
0.0060486 -0.000842907 0.000297861
0.00599901 -0.00045225 5.39438e-05
0.00545651 0.000161203 0.0012312
0.00584192 -0.000214655 -3.97929e-06
0.00563807 -0.000382251 4.33841e-05
0.00608603 0.000108237 0.00144536
0.00603733 -0.000760309 0.000336277
0.00605799 -0.000560212 0.000413058
0.0054861 0.000216619 0.00117654
0.00566504 -0.000278189 -1.00755e-06
0.00605464 -0.000112732 2.40956e-05
0.0066102 2.9811e-05 0.00167212
0.00617028 -0.000134083 3.5278e-05
0.00548815 -0.000180066 0.000482171
0.0106372 0.00512968 -0.0166306
0.00546255 0.000122013 0.00127893
0.00598175 9.30041e-05 0.00143391
0.00603802 -0.000785431 0.000389567
0.00627448 5.88743e-05 0.0015589
0.0057992 -1.8544e-05 0.000109178
0.00655398 3.78592e-05 0.0016566
0.00580844 0.000214896 0.00125832
0.0062329 -0.000144668 4.81893e-05
0.0054359 0.00020465 0.00118021
0.00548282 0.000222376 0.00117189
0.00612372 -0.000124693 3.04475e-05
0.00603493 8.23336e-05 0.00146525
0.00536697 0.000217162 0.00114507
0.00586348 4.55343e-05 0.00147004
0.0058474 -2.64412e-05 0.000116469
0.00638999 4.5723e-05 0.00159164
0.00612852 -0.000480022 0.000633266
0.00627253 -0.000157622 4.83805e-05
0.00600134 8.31107e-05 0.00146427
0.00606925 -0.000824132 0.000306228
0.00611861 -0.000456954 5.35156e-05
0.00593786 -9.38886e-05 1.18725e-05
0.00585013 -0.000409135 -0.000481474
0.00551831 -0.000254334 0.000263398
0.00594605 -0.000738928 0.000310046
0.00590567 -2.95136e-05 0.000118816
-5.01976e-15 -7.41209e-15 7.69802e-14
0.00589645 2.77426e-05 0.00148549
0.00551313 0.000116725 0.00129716
0.00563088 0.000225244 0.00120525
0.00562599 -0.000686701 -0.000487024
0.00599925 -0.000105646 1.80735e-05
0.00575462 -0.000193343 0.000328677
0.00609115 -0.000441372 4.84826e-05
0.00609139 -0.000797181 6.64649e-05
0.00543047 0.000115955 0.00127354
0.00578347 -0.000852247 0.000272399
0.00624138 -0.000147881 4.39496e-05
0.00559573 -0.000369398 3.84243e-05
0.00578343 -0.000812881 0.000280916
0.00533173 0.000211468 0.00114504
0.00591346 9.14786e-05 0.00142524
0.00551199 -0.000154575 0.000475307
0.00538309 0.000217093 0.00109274
0.00602481 -0.000568508 0.000189759
0.00563339 -0.000378764 4.58213e-05
0.00536615 0.000134731 0.00124535
0.00611477 -0.000414587 3.55062e-05
0.00602391 -0.000443967 5.05928e-05
0.00624967 -0.000151538 4.83522e-05
0.00617775 -0.000468985 5.23127e-05
0.00588978 5.91606e-05 0.00146418
0.00544777 0.000166197 0.00123306
0.00583951 0.000124376 0.00137522
0.00576345 -0.000630192 -0.000490627
0.00619482 -0.000579482 -4.82449e-05
0.00558617 -0.000214301 0.000519456
0.00583797 0.000104335 0.00139518
0.00621257 0.000870591 0.000539624
0.00607798 -0.00080621 0.000312308
0.00619634 -0.000667149 1.17916e-05
0.00575652 9.35308e-05 0.00139242
0.00526204 -0.000433446 7.5746e-05
0.00604475 0.000144659 0.00141646
0.0059971 -0.000466587 5.86662e-05
0.00557234 -0.000191121 0.000703098
0.00602982 -0.000469972 5.66465e-05
4.36911e-15 1.0454e-14 8.29605e-14
2.29399e-22 4.01299e-22 -5.81428e-22
0.00565083 -0.000346694 5.41177e-05
0.00538784 -0.000446194 8.51555e-05
0.0058033 -0.000409513 5.10307e-05
0.00598762 -0.000557985 0.000184144
0.00583011 -0.000733399 -0.000505221
0.00592365 -0.00072637 0.000305392
0.00600175 0.00184764 0.000443371
0.00541504 0.000132627 0.00125407
0.00597346 -0.000404721 6.85854e-05
0.00549988 -0.000195835 0.000489417
0.00594349 -0.000470977 7.21359e-05
0.00586309 7.06609e-05 0.00144142
0.00596329 -0.000782259 7.80106e-05
0.00589051 0.000226161 0.0012706
0.00581457 -0.000496579 7.03739e-05
0.00581127 -0.00083727 0.000275765
0.00549026 0.000221655 0.00117339
0.00601022 -0.000668416 0.000323795
0.00559714 -6.62589e-05 0.00121017
0.00555153 -0.00034969 2.74473e-05
0.00613683 0.000184442 0.00138294
0.00567873 0.000116119 0.00133614
0.0053233 -0.000434534 7.64721e-05
0.00603633 0.000103524 0.00143304
0.00608864 -0.000710626 0.000318767
0.00595662 -0.000428102 4.69785e-05
0.00600113 -0.000434145 4.8386e-05
0.0057411 6.03759e-05 0.00141746
0.00603679 -0.000787886 4.4918e-05
0.00599657 -0.000206704 0.00180321
0.00608012 -0.000921834 0.000284702
0.00552372 -0.0001616 0.000479776
0.00597533 -0.000359073 -0.000478149
0.00599587 0.00025409 0.00144474
0.00553541 0.000147514 0.00127042
0.00551044 -0.000116815 0.000455749
0.00597983 -0.000348567 2.13093e-05
0.00560115 -0.000472075 0.000108346
0.00599814 -0.000445584 5.17056e-05
0.00542663 -0.000568029 0.000249066
0.00589199 -0.000420666 4.62951e-05
0.00551043 -0.000122201 0.000457449
0.00586992 0.000126314 0.0013775
0.006232 -0.000476842 5.06835e-05
0.00604664 -0.00046155 5.09358e-05
0.00549377 -0.000137663 0.000462368
0.00556839 -0.000487122 0.000129479
0.00600716 -0.000439275 5.43288e-05
0.00546898 -0.00011491 0.000449152
-3.84078e-14 8.16116e-14 2.95893e-13
0.00550076 -0.000150348 0.000469346
0.0128202 0.00493643 -0.00735337
0.00603562 -0.00046543 5.41592e-05
0.0056622 -0.000388346 1.23375e-05
0.00547124 -0.000149947 0.000468709
0.00611339 -0.000405343 3.1311e-05
0.00602094 -0.000122189 0.00098063
0.00610742 -0.000459442 5.35039e-05
0.0056935 -0.00026365 -5.31121e-06
0.00613528 -0.000456842 5.35316e-05
0.00626532 -0.000415143 3.95959e-05
0.00588158 -0.000775635 0.000306548
0.00551847 -0.000192165 0.000492738
0.00598023 -0.00074407 0.000310085
0.00557651 -0.000369272 0.000200806
0.0054975 -0.000171161 0.000480857
0.00544827 -0.000167164 0.000468731
0.00611807 -0.000479384 2.56644e-05
0.00607547 -0.000469877 6.63878e-05
0.00607182 -0.000762884 0.00033781
0.00582543 -0.00040179 0.000197806
0.00603442 -0.000780203 0.000306702
0.00602294 -0.00043708 4.79533e-05
0.00561726 -0.000347784 2.45629e-05
0.00602256 -0.000798744 0.000253958
0.00554623 0.000111657 0.00129947
0.00609897 -0.000770533 0.000311681
0.00643899 0.00211674 -0.00165917
0.00556826 0.000124146 0.00130183
0.00561022 -0.000267533 0.000401211
0.00596317 -0.00034186 -0.000398378
0.00564086 -0.000314664 -1.64665e-05
0.00638013 -0.000412249 2.99198e-05
0.00609265 -0.000457177 5.37631e-05
0.00684018 0.00194524 -0.00162752
0.00604858 -0.000420569 4.19169e-05
0.00566578 -0.00032016 1.13218e-05
0.00566295 -0.000175987 0.000484571
0.00571518 -0.000238461 -1.26085e-05
0.00549482 -0.000159759 0.000474341
0.0060128 0.000137171 0.00139735
0.00574785 -0.000172656 -3.69584e-05
0.00550383 -0.000138779 0.000462513
0.0054845 -0.000168081 0.000477052
0.00557235 -0.000343426 0.000432309
0.00606849 -0.00040034 3.97479e-05
0.00564218 -0.00037994 4.38109e-05
0.00551815 0.000199342 0.00120654
0.00544206 0.000186859 0.00119937
0.00565522 -0.000339218 2.48628e-05
0.00601079 -0.000777598 6.70898e-05
0.00534727 0.000124962 0.00125068
0.00625654 0.00212789 -0.00164513
0.00554891 -0.000437865 0.000114153
0.00588981 -0.000761244 0.000297159
0.00595956 -0.00046869 6.24725e-05
0.00595008 0.000238542 0.00130603
0.00603107 -0.000434881 4.72887e-05
0.00599063 -0.00061312 0.000643579
0.00549178 -0.000172 0.000478429
0.00542977 0.000118558 0.00127679
0.00644635 -0.00040639 3.0972e-05
0.0062935 0.00212432 -0.00164731
0.00618236 0.00214119 -0.00164393
0.00562285 -0.000375665 2.59113e-05
0.00548578 -0.000161765 0.000473399
0.00565863 -0.000371883 4.80264e-05
0.00608453 -0.000461035 5.34018e-05
0.00553596 6.61916e-05 0.00132838
0.00548908 -0.000149488 0.000464847
0.00550443 -0.000175024 0.0004818
0.00552808 -0.000185541 0.000493732
0.00644213 0.00189258 -0.00156547
0.00678574 0.00193669 -0.00161136
0.00634388 0.00196628 -0.00158913
0.00572089 -0.000169553 0.00049239
0.0060339 -0.000437084 4.84021e-05
0.00712019 0.00189095 -0.00165386
0.00604001 0.00218889 -0.00165245
0.00563555 -0.000261079 0.000375324
0.00604189 -0.00045767 4.76556e-05
0.00529976 0.00232422 -0.00164051
0.00568003 -0.000187315 0.000503689
0.00594459 0.000137562 0.00139262
0.00606906 0.00215019 -0.0016366
0.00640947 0.00213224 -0.00166321
0.00597162 0.00219608 -0.00164958
0.0056632 -0.000378068 5.24061e-05
0.00567502 -0.000381186 3.95157e-05
0.00550011 -0.000144552 0.00046655
0.00609652 -0.000438146 7.67889e-05
0.00610812 0.00215158 -0.00164129
0.0061235 -0.000430116 4.50944e-05
0.00568285 -9.49071e-05 0.000586419
0.00601711 -0.000450545 5.69768e-05
0.00683612 0.00194663 -0.00162139
0.0058165 -6.10402e-05 0.000464816
0.00649054 0.00212309 -0.00166632
0.00602886 -0.000440628 4.84127e-05
0.00552432 -0.000131149 0.00045832
0.00593103 -0.000446237 5.26177e-05
0.0060317 -0.000434124 4.72269e-05
0.00614577 0.00207369 -8.69924e-05
0.0061549 -0.000418159 4.47808e-05
0.00621935 0.00213329 -0.00164392
0.00548261 -0.000152568 0.000456365
0.0061453 0.00214643 -0.00164265
0.00548469 -0.000155419 0.000452246
0.00565193 -0.000205266 0.00051845
0.00564197 -0.000175152 0.000489244
0.00593775 -0.000318151 0.00014684
0.00651959 0.00215504 -0.00168471
0.00633104 0.00211959 -0.00164884
0.00603852 -0.000436129 4.78341e-05
0.00699174 0.00177997 -0.00155512
0.00549453 -0.000170969 0.000475229
0.00546905 -0.000144143 0.000459079
0.00589087 -1.09586e-05 -9.31954e-05
0.00546877 -0.000148965 0.000464687
0.00602254 -0.000411369 3.89505e-05
0.00548601 -0.000450388 8.84018e-05
0.00548113 -0.000139183 0.000467008
0.00563046 -0.000375954 4.56461e-05
0.00570305 -0.000254847 -1.50668e-05
0.00553976 -0.000169092 0.000490536
0.00549242 -0.000174314 0.000475305
0.00636968 0.00211644 -0.00165113
0.00549975 -0.000151171 0.000465801
0.00603167 -0.00069603 0.000231944
0.00677811 0.00192344 -0.00160165
0.0060084 0.00219634 -0.00165398
0.00592185 0.000162464 0.00133268

VECTORS force float
-1.48446e-10 5.28679e-11 -2.03714e-10
5.62477e-10 4.09325e-10 -9.33705e-10
-6.61759e-10 1.90913e-10 -3.95937e-10
5.41269e-11 -2.4833e-10 3.64688e-10
-9.67551e-12 -1.86481e-11 1.88173e-11
-5.20077e-10 2.30968e-10 -8.75665e-13
1.84079e-10 4.13156e-10 -4.16686e-10
7.09797e-11 -4.97196e-12 3.59831e-12
-4.88763e-11 2.1622e-10 -2.48028e-10
-1.93368e-10 -9.1301e-11 5.69333e-11
5.30446e-11 -8.17085e-11 2.80506e-11
1.18892e-10 1.39738e-11 8.1114e-11
-4.35111e-10 3.22562e-11 -6.68467e-11
-1.82837e-11 -1.94394e-10 -1.48022e-11
1.69538e-10 7.14146e-11 -2.92793e-11
1.51705e-11 1.03683e-11 2.13703e-10
-6.84905e-10 -2.04549e-10 -2.56069e-10
-9.86078e-11 2.98339e-10 -3.11278e-10
-2.04998e-10 1.8387e-10 -9.98573e-11
-3.15093e-10 6.19438e-11 -3.46526e-11
3.99027e-10 2.82985e-10 -1.21218e-10
-3.00195e-12 8.77826e-12 -2.01318e-11
8.43796e-11 1.99583e-10 -9.22305e-11
0.0 0.0 -1.43822e-09
3.60666e-11 3.76705e-10 -4.48314e-10
-3.50166e-11 1.47012e-10 -3.12346e-10
1.69277e-10 1.37548e-10 -9.34867e-11
2.94005e-10 1.08777e-10 -1.52098e-10
-5.83208e-12 2.52642e-11 -3.95826e-11
-3.31815e-10 1.12334e-10 -1.62051e-10
-5.20459e-10 1.83818e-10 -2.89378e-10
-2.63568e-11 -7.99022e-11 -1.426e-12
-5.32033e-10 1.19826e-10 -3.53821e-10
5.71891e-12 3.46157e-10 -3.59444e-10
3.39318e-11 3.96685e-11 -8.8418e-12
8.71924e-10 -5.55527e-10 6.80316e-10
-1.48285e-10 3.14635e-10 -4.20201e-10
2.35491e-10 2.45907e-10 -1.83621e-10
-3.17947e-11 3.9283e-11 -5.58592e-11
-1.24086e-11 -2.67476e-10 1.47624e-10
-8.7975e-10 -7.22092e-10 -4.35088e-10
-5.3663e-11 8.99128e-12 -4.42684e-12
1.55592e-10 2.06508e-10 -1.93318e-10
1.94192e-11 1.39364e-10 -4.49296e-12
-2.75507e-10 1.35043e-10 -5.0676e-11
1.14746e-10 3.55027e-11 -4.88438e-11
-2.25103e-10 3.96492e-11 -5.93838e-11
2.13036e-12 -7.28526e-11 6.64258e-13
1.00739e-10 -2.12835e-10 -1.00816e-10
-2.81227e-11 6.34614e-11 -1.84827e-11
2.31352e-24 3.02438e-24 4.1359e-25
-3.53322e-10 2.10652e-10 -2.66626e-10
-2.05716e-10 -5.19801e-10 6.0507e-10
-3.98178e-10 2.72122e-10 -4.72059e-10
-2.9678e-10 -1.01415e-10 -8.36584e-12
-7.76052e-11 -1.7298e-11 -1.86869e-11
-2.03038e-10 -1.14809e-10 -2.5073e-11
-8.07833e-12 -2.0131e-11 -6.98227e-12
-4.74797e-10 -9.05201e-11 5.59201e-11
1.70181e-10 2.35891e-10 -1.12667e-10
8.36574e-11 1.84195e-10 7.85318e-11
2.3365e-10 -3.39339e-11 8.05694e-12
-1.78693e-10 -1.0661e-10 8.10649e-11
1.5081e-10 -1.0891e-10 4.28563e-12
-4.45651e-10 2.87509e-10 -4.3062e-10
-3.47154e-11 2.34033e-10 -3.01811e-10
-4.94636e-11 9.33129e-11 -4.36049e-11
-2.32324e-10 8.8424e-10 -8.16829e-10
8.6383e-11 -1.49059e-10 1.3177e-10
-1.68605e-11 -1.33938e-10 -4.22037e-11
-8.41727e-10 1.36867e-10 -1.67725e-10
1.15351e-10 -3.53009e-11 1.30903e-10
3.7398e-11 -1.6807e-10 5.77113e-11
-1.6148e-11 -2.5532e-11 -2.47773e-12
-1.27968e-10 1.23037e-10 -1.06132e-11
-2.376e-11 2.80329e-10 -2.45502e-10
-2.44071e-10 2.16678e-10 -4.27444e-10
6.02846e-11 1.00656e-10 -2.29093e-10
-4.31219e-11 3.90685e-12 9.5556e-12
9.7405e-11 -1.94336e-10 3.22645e-11
1.62392e-10 -2.2991e-10 1.19204e-11
1.3749e-10 6.14563e-11 1.4525e-10
-1.90455e-11 3.77502e-10 -6.18159e-11
-5.9841e-11 -7.02311e-11 9.19045e-11
-5.89178e-11 8.50976e-11 5.48963e-10
-2.70806e-10 -1.88596e-10 1.2407e-10
1.15447e-10 1.06239e-10 -1.34188e-10
2.13228e-10 -7.91718e-11 1.59191e-10
-3.14879e-11 -8.43167e-12 -1.05752e-11
-7.72715e-10 -4.55704e-11 -1.77905e-10
4.73151e-11 -3.43788e-11 5.59542e-12
8.63279e-22 -4.34761e-22 1.30281e-23
0.0 0.0 0.0
-1.23555e-10 1.39636e-11 3.87206e-11
-1.88975e-11 1.31921e-10 -1.14775e-10
1.54673e-10 -2.22071e-10 3.53605e-11
4.61108e-10 1.58804e-11 5.35035e-11
4.64723e-10 4.70198e-11 -1.34764e-10
-2.66474e-11 -4.69953e-10 -1.66685e-10
-1.86207e-11 1.8378e-11 2.45692e-11
-3.57511e-10 4.58251e-10 -5.32516e-10
-8.45513e-11 -1.00242e-12 -1.21297e-10