# vtk DataFile Version 3.0
LIGGGHTS particles timestep 63800000
ASCII
DATASET POLYDATA
POINTS 269 float
0.383849 0.0181766 5.15723e-05
0.384161 0.0168553 5.19814e-05
0.384337 0.018343 5.22125e-05
0.384985 0.0167532 5.30605e-05
0.385042 0.017898 5.31356e-05
0.384332 0.0189209 5.22048e-05
0.384815 0.0184943 5.2838e-05
0.383699 0.0197065 5.13762e-05
0.384897 0.0166342 5.29453e-05
0.383873 0.0188963 5.1604e-05
0.379271 0.0174571 0.00743398
0.384297 0.0184546 5.21599e-05
0.379489 0.0183736 0.00704723
0.379315 0.0183985 0.00703327
0.384181 0.0175773 5.20076e-05
0.383665 0.0199562 5.13319e-05
0.383587 0.0186072 5.12303e-05
0.384631 0.0163672 5.25967e-05
0.379414 0.0180237 0.00720479
0.384067 0.0187379 5.18589e-05
0.383579 0.0183141 5.12198e-05
0.378841 0.0163982 0.00784558
0.384165 0.0187755 5.19868e-05
0.384177 0.0169565 5.20019e-05
0.384041 0.0178782 5.18242e-05
0.383781 0.0180165 5.14835e-05
0.247451 0.0181454 0.00545794
0.383853 0.017754 5.1578e-05
0.384811 0.0177235 5.28325e-05
0.383685 0.0180481 5.13583e-05
0.383887 0.0178555 5.16226e-05
0.384669 0.0171089 5.26472e-05
0.383732 0.0198062 5.1419e-05
0.383743 0.0180641 0.0001311
0.384095 0.0180237 5.18945e-05
0.384132 0.0181747 5.19429e-05
0.384081 0.0172848 5.18767e-05
0.384499 0.0170282 5.24241e-05
0.383947 0.0192116 5.17008e-05
0.384007 0.0193518 5.17792e-05
0.379542 0.0178729 0.00778195
0.384413 0.0178972 5.23119e-05
0.379354 0.0177246 0.00732726
0.384683 0.0175025 5.26645e-05
0.383667 0.0188287 5.1335e-05
0.378972 0.0169421 0.00762489
0.383629 0.0195694 5.12842e-05
0.383629 0.019709 0.000122679
0.378022 0.019866 0.005332
0.383908 0.0180619 5.16502e-05
0.38486 0.0175718 5.28966e-05
0.38382 0.018374 5.15343e-05
0.383581 0.018454 5.12221e-05
0.383269 0.0178073 0.0053438
0.379037 0.0175224 0.00747052
0.379171 0.0177599 0.0072933
0.384069 0.018253 5.18613e-05
0.384886 0.0183819 5.29308e-05
0.383709 0.0207704 5.1389e-05
0.384524 0.0161893 5.24575e-05
0.379293 0.0182411 0.00709876
0.384013 0.0194938 5.17876e-05
0.385165 0.0173714 5.3297e-05
0.384184 0.0179479 5.20117e-05
0.378901 0.0166763 0.00775241
0.384208 0.0182441 5.2043e-05
0.378472 0.0154359 0.00883856
0.379338 0.018494 0.00699446
0.384015 0.0173598 5.17901e-05
0.379217 0.0179506 0.0072159
0.379293 0.0175475 0.0073973
0.383996 0.0188405 5.17657e-05
0.379156 0.0180754 0.00725404
0.384473 0.0190617 5.239e-05
0.38418 0.0172542 5.20058e-05
0.384642 0.0180833 5.26118e-05
0.383831 0.0209331 5.15494e-05
0.384426 0.0180813 5.23291e-05
0.379111 0.017155 0.00754755
0.383766 0.0181204 5.14635e-05
0.384798 0.0189219 5.28158e-05
0.383762 0.0184943 5.14585e-05
0.38366 0.0185154 5.13256e-05
0.385068 0.0173509 5.31688e-05
0.378554 0.0156805 0.00853277
0.384429 0.0175728 5.23326e-05
0.378982 0.0173594 0.00744626
0.383719 0.0184039 5.14023e-05
0.379004 0.0174499 0.00740956
0.0643568 0.0187248 0.00531097
0.230779 0.0182774 0.00551293
0.379258 0.0185451 0.00696421
0.378574 0.0157421 0.0084567
0.379015 0.0171231 0.00755143
0.378493 0.015497 0.00876211
0.383672 0.0190653 5.13415e-05
0.38383 0.0193287 5.15482e-05
0.384903 0.0182202 5.29528e-05
0.38386 0.017954 5.15869e-05
0.379046 0.0176159 0.00743503
0.378873 0.0169072 0.00762979
0.378939 0.0171785 0.00751967
0.38433 0.0192224 5.22022e-05
0.383833 0.0187126 5.15519e-05
0.383548 0.0176887 0.00536951
0.379133 0.0172454 0.00751085
0.383723 0.0179338 5.14079e-05
0.384201 0.0170737 5.2034e-05
0.385676 0.0164514 5.39659e-05
0.384717 0.0178049 5.27096e-05
0.379179 0.0181845 0.00711854
0.38514 0.0150589 5.32639e-05
0.384385 0.0182228 5.22753e-05
0.378533 0.0156194 0.00860922
0.384137 0.0173755 5.19503e-05
0.384098 0.0171633 5.18995e-05
0.379059 0.0173041 0.00747801
0.379081 0.0173945 0.0074413
0.385057 0.0180859 5.31545e-05
0.38396 0.0179528 5.17179e-05
0.384148 0.0183693 5.19642e-05
0.383888 0.0195362 5.16234e-05
0.37895 0.0168514 0.00766168
0.383834 0.0196942 5.15529e-05
0.384267 0.0171493 5.21198e-05
0.384697 0.0179052 5.26838e-05
0.378959 0.0165212 0.00780471
0.379366 0.0179079 0.00724964
0.378513 0.0155582 0.0086857
0.379176 0.0174264 0.00743743
0.378669 0.0160488 0.00807328
0.379037 0.0172136 0.00751471
0.378979 0.0166128 0.00776732
0.385009 0.0182995 5.30925e-05
0.379146 0.0179766 0.00728207
0.379047 0.0176308 0.00733614
0.378995 0.0167041 0.00772965
0.367112 0.0178534 0.00697177
0.379091 0.0177014 0.00740494
0.378937 0.0164306 0.00784146
0.0219312 0.0187687 0.00551176
0.379046 0.0168836 0.00765768
0.383767 0.018816 5.14655e-05
0.379025 0.0175403 0.00737285
0.379383 0.0183847 0.00710596
0.378994 0.0173413 0.00754391
0.379112 0.0179009 0.00722652
0.383754 0.0192528 5.1449e-05
0.379156 0.0177781 0.00739055
0.379158 0.0180943 0.00715587
0.379096 0.0178676 0.00734508
0.379136 0.0180014 0.00718574
0.383731 0.0186905 5.14178e-05
0.378852 0.0168167 0.00766651
0.384719 0.0172091 5.27122e-05
0.378631 0.0159268 0.00822729
0.37909 0.0170645 0.00758426
0.378958 0.0172543 0.00758186
0.379178 0.0178595 0.00728857
0.379231 0.0179388 0.00732004
0.384102 0.0184964 5.1904e-05
0.378917 0.0170881 0.00755638
0.384595 0.0179247 5.255e-05
0.379198 0.0175169 0.00740071
0.379178 0.0181706 0.00721756
0.384415 0.0170853 5.23146e-05
0.383828 0.017652 5.15458e-05
0.383928 0.0174091 5.16761e-05
0.373217 0.0183531 0.00691009
0.384138 0.0174868 5.19518e-05
0.378895 0.0169976 0.00759308
0.384008 0.0190136 5.17811e-05
0.379415 0.0184359 0.0070214
0.379239 0.018041 0.00717929
0.379281 0.0177847 0.00729394
0.372888 0.016919 0.00748492
0.379319 0.0176372 0.0073613
0.379426 0.018117 0.00716578
0.378897 0.0162492 0.00791538
0.379335 0.0180761 0.00717406
0.379068 0.0169741 0.00762097
0.384546 0.016623 5.24856e-05
0.3793 0.0187674 0.00684929
0.378822 0.0163075 0.00788264
0.378783 0.0161289 0.00796353
0.379376 0.0178166 0.00728992
0.378994 0.0170325 0.00758818
0.384245 0.0173487 5.20914e-05
0.383892 0.0175594 5.16296e-05
0.379378 0.0181957 0.00712699
0.384483 0.0183628 5.2403e-05
0.384694 0.0169414 5.26791e-05
0.373118 0.0178767 0.00702511
0.378612 0.0158646 0.00830314
0.384003 0.0191287 5.17745e-05
0.37896 0.017269 0.00748297
0.384925 0.0197338 5.29819e-05
0.379102 0.017485 0.00740459
0.384753 0.0202044 5.27567e-05
0.378863 0.0164888 0.00780876
0.384935 0.0176618 5.29946e-05
0.379316 0.0179853 0.00721115
0.373137 0.017972 0.00700207
0.373078 0.0176861 0.00707112
0.379266 0.01814 0.00713949
0.378746 0.0163641 0.00785046
0.379239 0.0184542 0.0070014
0.379069 0.017725 0.00731044
0.383776 0.0178205 5.14777e-05
0.378707 0.0161885 0.00793761
0.378808 0.0166358 0.0077399
0.37883 0.0167263 0.0077032
0.372782 0.0165156 0.00776062
0.372845 0.0167578 0.00759516
0.372761 0.0164349 0.00781578
0.378916 0.01634 0.00787832
0.379245 0.0176975 0.00732778
0.372803 0.0165964 0.00770546
0.372992 0.0173227 0.00720906
0.379239 0.0178409 0.00736553
0.372929 0.0170806 0.00737453
0.383326 0.0168989 0.0082444
0.384235 0.017459 5.20777e-05
0.373014 0.0174077 0.00716092
0.373197 0.0182578 0.00693309
0.37295 0.0171613 0.0073194
0.37922 0.0183633 0.00703859
0.379201 0.0182739 0.0070792
0.379024 0.0167932 0.00769439
0.379253 0.0180264 0.00727724
0.373037 0.0174984 0.00712571
0.37909 0.0178105 0.00726323
0.379324 0.0178873 0.00733792
0.379197 0.0176903 0.00741527
0.372908 0.0169999 0.00742969
0.379015 0.0174318 0.00750721
0.373236 0.0184492 0.00689046
0.379124 0.0175756 0.00736783
0.379155 0.0173359 0.00747414
0.379221 0.0176077 0.00736393
0.38397 0.0186996 5.17315e-05
0.379262 0.0181192 0.0072372
0.373098 0.0177814 0.00704813
0.378802 0.0162167 0.00791968
0.373057 0.0175911 0.00709404
0.379108 0.017328 0.00756201
0.378649 0.0159874 0.00814987
0.379173 0.0175998 0.0074516
0.373311 0.0183853 0.00690519
0.373157 0.0180673 0.00697908
0.379149 0.0176693 0.0073301
0.372824 0.0166771 0.00765031
0.378766 0.0164549 0.0078135
0.378885 0.0165797 0.00777191
0.379395 0.0182869 0.00708946
0.378726 0.0162781 0.00789764
0.379271 0.0178757 0.00725374
0.378593 0.0158031 0.00837969
0.378925 0.0167749 0.00772092
0.379275 0.0186362 0.00692603
0.379306 0.0182142 0.00719422
0.379373 0.0179981 0.00729208
0.378787 0.0165454 0.00777662
0.373177 0.0181625 0.00695608
0.378687 0.0161102 0.00799666
0.383631 0.0187173 5.12867e-05
0.372866 0.0168385 0.00753999
0.372971 0.017242 0.00726422
0.384681 0.0189793 5.2662e-05

VERTICES 269 538
1 0
1 1
1 2
1 3
1 4
1 5
1 6
1 7
1 8
1 9
1 10
1 11
1 12
1 13
1 14
1 15
1 16
1 17
1 18
1 19
1 20
1 21
1 22
1 23
1 24
1 25
1 26
1 27
1 28
1 29
1 30
1 31
1 32
1 33
1 34
1 35
1 36
1 37
1 38
1 39
1 40
1 41
1 42
1 43
1 44
1 45
1 46
1 47
1 48
1 49
1 50
1 51
1 52
1 53
1 54
1 55
1 56
1 57
1 58
1 59
1 60
1 61
1 62
1 63
1 64
1 65
1 66
1 67
1 68
1 69
1 70
1 71
1 72
1 73
1 74
1 75
1 76
1 77
1 78
1 79
1 80
1 81
1 82
1 83
1 84
1 85
1 86
1 87
1 88
1 89
1 90
1 91
1 92
1 93
1 94
1 95
1 96
1 97
1 98
1 99
1 100
1 101
1 102
1 103
1 104
1 105
1 106
1 107
1 108
1 109
1 110
1 111
1 112
1 113
1 114
1 115
1 116
1 117
1 118
1 119
1 120
1 121
1 122
1 123
1 124
1 125
1 126
1 127
1 128
1 129
1 130
1 131
1 132
1 133
1 134
1 135
1 136
1 137
1 138
1 139
1 140
1 141
1 142
1 143
1 144
1 145
1 146
1 147
1 148
1 149
1 150
1 151
1 152
1 153
1 154
1 155
1 156
1 157
1 158
1 159
1 160
1 161
1 162
1 163
1 164
1 165
1 166
1 167
1 168
1 169
1 170
1 171
1 172
1 173
1 174
1 175
1 176
1 177
1 178
1 179
1 180
1 181
1 182
1 183
1 184
1 185
1 186
1 187
1 188
1 189
1 190
1 191
1 192
1 193
1 194
1 195
1 196
1 197
1 198
1 199
1 200
1 201
1 202
1 203
1 204
1 205
1 206
1 207
1 208
1 209
1 210
1 211
1 212
1 213
1 214
1 215
1 216
1 217
1 218
1 219
1 220
1 221
1 222
1 223
1 224
1 225
1 226
1 227
1 228
1 229
1 230
1 231
1 232
1 233
1 234
1 235
1 236
1 237
1 238
1 239
1 240
1 241
1 242
1 243
1 244
1 245
1 246
1 247
1 248
1 249
1 250
1 251
1 252
1 253
1 254
1 255
1 256
1 257
1 258
1 259
1 260
1 261
1 262
1 263
1 264
1 265
1 266
1 267
1 268

POINT_DATA 269
SCALARS id int 1
LOOKUP_TABLE default
1
2
4
5
6
7
8
9
10
11
12
13
14
16
17
19
21
22
23
24
26
27
28
29
30
31
32
33
35
36
37
38
39
41
42
44
45
47
48
49
50
51
52
53
54
55
56
57
59
60
61
62
63
64
65
66
67
68
69
70
71
72
73
74
76
77
78
79
80
82
83
84
85
86
87
88
89
90
91
92
93
94
95
96
97
98
99
100
101
102
103
104
105
106
107
108
109
110
111
112
113
114
115
116
117
118
119
120
121
122
123
124
125
127
128
129
130
131
132
133
134
135
136
137
138
140
141
142
143
144
146
147
148
149
150
151
153
154
155
156
157
158
159
160
162
164
165
166
167
168
169
170
171
172
173
174
176
177
178
179
182
183
184
185
186
187
188
189
190
191
192
193
194
195
196
197
198
199
200
201
202
203
204
206
207
208
209
210
211
212
213
214
215
216
217
218
219
220
222
224
225
226
227
228
229
230
232
233
234
235
236
237
239
240
241
242
243
244
246
248
249
250
251
252
253
254
255
256
257
258
259
260
261
262
263
264
265
266
268
269
270
271
272
273
274
275
276
278
279
280
281
283
284
285
286
287
288
289
290
291
292
293
294
295
296
297
298
299
300

SCALARS type int 1
LOOKUP_TABLE default
1
1
1
1
1
1
1
1
1
1
1
1
1
1
1
1
1
1
1
1
1
1
1
1
1
1
1
1
1
1
1
1
1
1
1
1
1
1
1
1
1
1
1
1
1
1
1
1
1
1
1
1
1
1
1
1
1
1
1
1
1
1
1
1
1
1
1
1
1
1
1
1
1
1
1
1
1
1
1
1
1
1
1
1
1
1
1
1
1
1
1
1
1
1
1
1
1
1
1
1
1
1
1
1
1
1
1
1
1
1
1
1
1
1
1
1
1
1
1
1
1
1
1
1
1
1
1
1
1
1
1
1
1
1
1
1
1
1
1
1
1
1
1
1
1
1
1
1
1
1
1
1
1
1
1
1
1
1
1
1
1
1
1
1
1
1
1
1
1
1
1
1
1
1
1
1
1
1
1
1
1
1
1
1
1
1
1
1
1
1
1
1
1
1
1
1
1
1
1
1
1
1
1
1
1
1
1
1
1
1
1
1
1
1
1
1
1
1
1
1
1
1
1
1
1
1
1
1
1
1
1
1
1
1
1
1
1
1
1
1
1
1
1
1
1
1
1
1
1
1
1
1
1
1
1
1
1
1
1
1
1
1
1
1
1
1
1
1
1

SCALARS radius float 1
LOOKUP_TABLE default
5e-05
5e-05
5e-05
5e-05
5e-05
5e-05
5e-05
5e-05
5e-05
5e-05
5e-05
5e-05
5e-05
5e-05
5e-05
5e-05
5e-05
5e-05
5e-05
5e-05
5e-05
5e-05
5e-05
5e-05
5e-05
5e-05
5e-05
5e-05
5e-05
5e-05
5e-05
5e-05
5e-05
5e-05
5e-05
5e-05
5e-05
5e-05
5e-05
5e-05
5e-05
5e-05
5e-05
5e-05
5e-05
5e-05
5e-05
5e-05
5e-05
5e-05
5e-05
5e-05
5e-05
5e-05
5e-05
5e-05
5e-05
5e-05
5e-05
5e-05
5e-05
5e-05
5e-05
5e-05
5e-05
5e-05
5e-05
5e-05
5e-05
5e-05
5e-05
5e-05
5e-05
5e-05
5e-05
5e-05
5e-05
5e-05
5e-05
5e-05
5e-05
5e-05
5e-05
5e-05
5e-05
5e-05
5e-05
5e-05
5e-05
5e-05
5e-05
5e-05
5e-05
5e-05
5e-05
5e-05
5e-05
5e-05
5e-05
5e-05
5e-05
5e-05
5e-05
5e-05
5e-05
5e-05
5e-05
5e-05
5e-05
5e-05
5e-05
5e-05
5e-05
5e-05
5e-05
5e-05
5e-05
5e-05
5e-05
5e-05
5e-05
5e-05
5e-05
5e-05
5e-05
5e-05
5e-05
5e-05
5e-05
5e-05
5e-05
5e-05
5e-05
5e-05
5e-05
5e-05
5e-05
5e-05
5e-05
5e-05
5e-05
5e-05
5e-05
5e-05
5e-05
5e-05
5e-05
5e-05
5e-05
5e-05
5e-05
5e-05
5e-05
5e-05
5e-05
5e-05
5e-05
5e-05
5e-05
5e-05
5e-05
5e-05
5e-05
5e-05
5e-05
5e-05
5e-05
5e-05
5e-05
5e-05
5e-05
5e-05
5e-05
5e-05
5e-05
5e-05
5e-05
5e-05
5e-05
5e-05
5e-05
5e-05
5e-05
5e-05
5e-05
5e-05
5e-05
5e-05
5e-05
5e-05
5e-05
5e-05
5e-05
5e-05
5e-05
5e-05
5e-05
5e-05
5e-05
5e-05
5e-05
5e-05
5e-05
5e-05
5e-05
5e-05
5e-05
5e-05
5e-05
5e-05
5e-05
5e-05
5e-05
5e-05
5e-05
5e-05
5e-05
5e-05
5e-05
5e-05
5e-05
5e-05
5e-05
5e-05
5e-05
5e-05
5e-05
5e-05
5e-05
5e-05
5e-05
5e-05
5e-05
5e-05
5e-05
5e-05
5e-05
5e-05
5e-05
5e-05
5e-05
5e-05
5e-05
5e-05
5e-05
5e-05
5e-05
5e-05
5e-05
5e-05
5e-05
5e-05
5e-05
5e-05
5e-05
5e-05
5e-05
5e-05
5e-05
5e-05
5e-05
5e-05
5e-05
5e-05
5e-05
5e-05
5e-05
5e-05
5e-05

SCALARS mass float 1
LOOKUP_TABLE default
1.46608e-10
1.46608e-10
1.46608e-10
1.46608e-10
1.46608e-10
1.46608e-10
1.46608e-10
1.46608e-10
1.46608e-10
1.46608e-10
1.46608e-10
1.46608e-10
1.46608e-10
1.46608e-10
1.46608e-10
1.46608e-10
1.46608e-10
1.46608e-10
1.46608e-10
1.46608e-10
1.46608e-10
1.46608e-10
1.46608e-10
1.46608e-10
1.46608e-10
1.46608e-10
1.46608e-10
1.46608e-10
1.46608e-10
1.46608e-10
1.46608e-10
1.46608e-10
1.46608e-10
1.46608e-10
1.46608e-10
1.46608e-10
1.46608e-10
1.46608e-10
1.46608e-10
1.46608e-10
1.46608e-10
1.46608e-10
1.46608e-10
1.46608e-10
1.46608e-10
1.46608e-10
1.46608e-10
1.46608e-10
1.46608e-10
1.46608e-10
1.46608e-10
1.46608e-10
1.46608e-10
1.46608e-10
1.46608e-10
1.46608e-10
1.46608e-10
1.46608e-10
1.46608e-10
1.46608e-10
1.46608e-10
1.46608e-10
1.46608e-10
1.46608e-10
1.46608e-10
1.46608e-10
1.46608e-10
1.46608e-10
1.46608e-10
1.46608e-10
1.46608e-10
1.46608e-10
1.46608e-10
1.46608e-10
1.46608e-10
1.46608e-10
1.46608e-10
1.46608e-10
1.46608e-10
1.46608e-10
1.46608e-10
1.46608e-10
1.46608e-10
1.46608e-10
1.46608e-10
1.46608e-10
1.46608e-10
1.46608e-10
1.46608e-10
1.46608e-10
1.46608e-10
1.46608e-10
1.46608e-10
1.46608e-10
1.46608e-10
1.46608e-10
1.46608e-10
1.46608e-10
1.46608e-10
1.46608e-10
1.46608e-10
1.46608e-10
1.46608e-10
1.46608e-10
1.46608e-10
1.46608e-10
1.46608e-10
1.46608e-10
1.46608e-10
1.46608e-10
1.46608e-10
1.46608e-10
1.46608e-10
1.46608e-10
1.46608e-10
1.46608e-10
1.46608e-10
1.46608e-10
1.46608e-10
1.46608e-10
1.46608e-10
1.46608e-10
1.46608e-10
1.46608e-10
1.46608e-10
1.46608e-10
1.46608e-10
1.46608e-10
1.46608e-10
1.46608e-10
1.46608e-10
1.46608e-10
1.46608e-10
1.46608e-10
1.46608e-10
1.46608e-10
1.46608e-10
1.46608e-10
1.46608e-10
1.46608e-10
1.46608e-10
1.46608e-10
1.46608e-10
1.46608e-10
1.46608e-10
1.46608e-10
1.46608e-10
1.46608e-10
1.46608e-10
1.46608e-10
1.46608e-10
1.46608e-10
1.46608e-10
1.46608e-10
1.46608e-10
1.46608e-10
1.46608e-10
1.46608e-10
1.46608e-10
1.46608e-10
1.46608e-10
1.46608e-10
1.46608e-10
1.46608e-10
1.46608e-10
1.46608e-10
1.46608e-10
1.46608e-10
1.46608e-10
1.46608e-10
1.46608e-10
1.46608e-10
1.46608e-10
1.46608e-10
1.46608e-10
1.46608e-10
1.46608e-10
1.46608e-10
1.46608e-10
1.46608e-10
1.46608e-10
1.46608e-10
1.46608e-10
1.46608e-10
1.46608e-10
1.46608e-10
1.46608e-10
1.46608e-10
1.46608e-10
1.46608e-10
1.46608e-10
1.46608e-10
1.46608e-10
1.46608e-10
1.46608e-10
1.46608e-10
1.46608e-10
1.46608e-10
1.46608e-10
1.46608e-10
1.46608e-10
1.46608e-10
1.46608e-10
1.46608e-10
1.46608e-10
1.46608e-10
1.46608e-10
1.46608e-10
1.46608e-10
1.46608e-10
1.46608e-10
1.46608e-10
1.46608e-10
1.46608e-10
1.46608e-10
1.46608e-10
1.46608e-10
1.46608e-10
1.46608e-10
1.46608e-10
1.46608e-10
1.46608e-10
1.46608e-10
1.46608e-10
1.46608e-10
1.46608e-10
1.46608e-10
1.46608e-10
1.46608e-10
1.46608e-10
1.46608e-10
1.46608e-10
1.46608e-10
1.46608e-10
1.46608e-10
1.46608e-10
1.46608e-10
1.46608e-10
1.46608e-10
1.46608e-10
1.46608e-10
1.46608e-10
1.46608e-10
1.46608e-10
1.46608e-10
1.46608e-10
1.46608e-10
1.46608e-10
1.46608e-10
1.46608e-10
1.46608e-10
1.46608e-10
1.46608e-10
1.46608e-10
1.46608e-10
1.46608e-10
1.46608e-10
1.46608e-10
1.46608e-10
1.46608e-10
1.46608e-10
1.46608e-10
1.46608e-10
1.46608e-10
1.46608e-10
1.46608e-10
1.46608e-10
1.46608e-10
1.46608e-10

VECTORS velocity float
1.79761e-18 -1.03287e-21 -1.37251e-15
-9.20572e-19 -1.04328e-21 7.02843e-16
1.79761e-18 1.51326e-20 -1.37251e-15
2.24032e-18 -2.00542e-20 -1.71052e-15
1.79756e-18 2.83637e-22 -1.37249e-15
2.81056e-18 -3.18448e-21 -2.14593e-15
1.79756e-18 -1.5652e-21 -1.37249e-15
-7.41244e-19 -2.4061e-22 5.74805e-16
2.24035e-18 1.00739e-20 -1.71052e-15
2.81057e-18 -1.1763e-20 -2.14593e-15
0.00588113 -6.30631e-05 0.000631239
1.79759e-18 1.2428e-20 -1.37251e-15
0.0073842 0.00109542 -0.0015259
0.00602803 0.000258372 0.000508921
2.24034e-18 -4.37824e-24 -1.71052e-15
2.81054e-18 -5.03779e-21 -2.14593e-15
-3.50169e-19 -8.69004e-22 2.67381e-16
2.24036e-18 1.40903e-21 -1.71052e-15
0.00593726 -2.42058e-05 0.000619594
2.81058e-18 -2.70659e-22 -2.14593e-15
-3.50198e-19 -6.27432e-22 2.67381e-16
0.00555418 -0.000146212 0.000647638
-3.50176e-19 -7.74768e-21 2.67381e-16
-9.20538e-19 -1.06163e-22 7.02844e-16
2.24035e-18 -1.26209e-21 -1.71052e-15
3.7044e-20 3.05923e-21 -2.78777e-17
3.9153e-15 -5.32214e-14 -2.7408e-13
2.24032e-18 1.12563e-22 -1.71052e-15
1.79762e-18 -1.53118e-20 -1.37251e-15
3.07597e-20 5.73262e-22 -2.78781e-17
2.24032e-18 4.6732e-22 -1.71051e-15
2.24036e-18 -7.64866e-22 -1.71051e-15
-3.50171e-19 -2.45163e-24 2.67381e-16
3.95753e-20 2.16941e-20 -2.78748e-17
1.7976e-18 -4.6967e-21 -1.37251e-15
1.7976e-18 2.01866e-21 -1.37251e-15
2.24035e-18 1.28267e-22 -1.71052e-15
2.24035e-18 4.53467e-20 -1.71051e-15
-3.50197e-19 -1.33101e-20 2.67382e-16
-3.50177e-19 -3.06924e-21 2.67381e-16
-9.62133e-11 -0.0229727 0.00729443
1.79759e-18 5.21023e-21 -1.37251e-15
0.00594848 -6.74496e-05 0.00064006
-9.20528e-19 -6.07394e-21 7.02843e-16
2.8106e-18 7.10034e-22 -2.14593e-15
0.0058669 -3.91125e-05 0.00061962
-3.50197e-19 -2.31475e-22 2.67382e-16
5.48525e-16 -2.40724e-17 1.56592e-17
-5.01985e-15 -7.41206e-15 7.69802e-14
1.79758e-18 1.84236e-22 -1.37249e-15
1.79761e-18 -3.08356e-22 -1.37251e-15
1.7976e-18 -4.96118e-22 -1.37249e-15
2.81059e-18 1.81174e-22 -2.14593e-15
-1.46726e-15 -3.3196e-15 -2.09206e-14
0.00591128 -4.26612e-05 0.000632846
0.00594825 -5.13953e-05 0.000635653
1.7976e-18 2.15269e-21 -1.37249e-15
1.79764e-18 -1.18057e-20 -1.37251e-15
2.00506e-18 3.90766e-22 -1.5309e-15
2.24034e-18 1.75837e-21 -1.71051e-15
0.00596362 -3.00754e-05 0.000622813
2.81055e-18 1.81594e-20 -2.14593e-15
1.79761e-18 1.65184e-21 -1.37251e-15
1.7976e-18 1.77166e-21 -1.37251e-15
0.00583572 -3.15245e-05 0.00061317
1.79756e-18 -2.90849e-21 -1.37249e-15
0.00564688 -0.000394974 -0.000142756
0.00604193 0.00013028 0.000448162
-1.6034e-16 -2.82271e-16 4.11796e-16
0.00595859 -3.97475e-05 0.000630528
0.00585825 -5.84955e-05 0.000627002
-3.5022e-19 2.252e-21 2.6738e-16
0.00596679 -5.60329e-05 0.000611359
-3.50181e-19 -7.99851e-21 2.67381e-16
2.24034e-18 7.17208e-22 -1.71052e-15
1.79757e-18 1.23121e-20 -1.37249e-15
2.00506e-18 -5.95488e-21 -1.5309e-15
1.79764e-18 1.91958e-21 -1.37251e-15
0.00589121 -6.08582e-05 0.000631708
3.81459e-20 8.73912e-21 -2.7879e-17
1.79759e-18 -6.08708e-22 -1.37251e-15
-3.50187e-19 -9.36278e-22 2.67381e-16
-3.50168e-19 -4.43726e-23 2.67381e-16
2.24034e-18 4.51037e-21 -1.71052e-15
0.00546838 -0.000376513 -0.00014525
2.24037e-18 -5.66455e-22 -1.71052e-15
0.00590336 -4.43832e-05 0.000626978
-3.50215e-19 -4.51577e-23 2.67382e-16
0.00590905 -4.7426e-05 0.000628904
4.18728e-15 1.05375e-14 8.29592e-14
-5.38411e-15 6.59638e-15 4.46844e-14
0.00572478 -0.000234922 0.000706975
0.00544417 -0.000378393 -0.000145324
0.00588842 -4.87282e-05 0.000625971
0.00564314 -0.000405335 -0.000127114
-3.50175e-19 1.74727e-20 2.67381e-16
2.81059e-18 2.53188e-22 -2.14593e-15
1.79759e-18 6.03658e-21 -1.37249e-15
-9.20532e-19 -2.56596e-23 7.02843e-16
0.00591381 -3.63952e-05 0.000636217
0.00586628 -2.84979e-05 0.000615606
0.00588646 -4.20031e-05 0.000622531
2.81057e-18 -1.33733e-21 -2.14593e-15
-3.50179e-19 -4.15162e-21 2.6738e-16
7.53113e-18 -1.80377e-14 -5.94669e-14
0.00589532 -6.52552e-05 0.000635002
2.24032e-18 -1.99507e-22 -1.71051e-15
2.24031e-18 -4.61619e-22 -1.71051e-15
1.45283e-18 1.32377e-20 -1.10923e-15
1.7976e-18 -4.71263e-21 -1.37251e-15
0.00595861 -3.86169e-05 0.00062967
-6.70208e-20 -8.99331e-21 5.11809e-17
1.7976e-18 1.517e-21 -1.37249e-15
0.00549956 -0.000385384 -0.000135143
2.24035e-18 2.53525e-21 -1.71052e-15
2.24036e-18 9.47121e-21 -1.71052e-15
0.00589914 -5.51052e-05 0.000630731
0.00590058 -6.1963e-05 0.000632398
1.79757e-18 -1.76325e-22 -1.37249e-15
2.24033e-18 1.23632e-21 -1.71052e-15
1.79756e-18 -2.57734e-21 -1.37249e-15
2.81059e-18 5.31656e-21 -2.14593e-15
0.00586365 -3.50455e-05 0.000616954
-3.50193e-19 1.72258e-22 2.67381e-16
2.24035e-18 -1.62259e-21 -1.71052e-15
1.79755e-18 3.67222e-23 -1.37249e-15
0.0057928 -4.99359e-05 0.0006166
0.0059414 -4.47225e-05 0.000631833
0.00555997 -0.000397144 -0.000126371
0.00589027 -7.43818e-05 0.000637035
0.00545074 -0.000343415 -0.000174626
0.00589198 -5.39664e-05 0.000629196
0.00581926 -4.37396e-05 0.000616825
1.79758e-18 -4.17221e-22 -1.37249e-15
0.00595202 -4.29293e-05 0.000634222
0.00592233 -5.47317e-05 0.000633628
0.0058389 -4.49197e-05 0.000621094
0.00577347 -0.000184114 5.80968e-05
0.00594525 -4.59744e-05 0.000636363
0.00585198 -2.15979e-05 0.000609652
-3.83699e-14 8.16583e-14 2.95885e-13
0.00585948 -4.63577e-05 0.000622076
2.81055e-18 -5.41268e-22 -2.14593e-15
0.00591537 -5.1799e-05 0.000631035
0.00684894 0.000519603 -0.000216754
0.00591618 -3.04957e-05 0.000630783
0.00594981 -4.29684e-05 0.000630602
2.81056e-18 -1.34587e-21 -2.14593e-15
0.00595116 -5.8607e-05 0.000642583
0.00595318 -3.62497e-05 0.000622506
0.0058674 0.000178799 0.000482241
0.00595999 -3.20423e-05 0.000628877
2.81055e-18 2.02944e-21 -2.14593e-15
0.00585914 -2.43749e-05 0.000615166
2.24032e-18 9.68709e-21 -1.71052e-15
0.00541364 -0.000351219 -0.000156142
0.00588797 -5.51029e-05 0.000628708
0.00588339 -4.83938e-05 0.000626325
0.00594731 -5.11088e-05 0.000632743
0.00595873 -3.8278e-05 0.00063192
1.79756e-18 -5.17438e-22 -1.37249e-15
0.00587997 -3.78919e-05 0.000620338
1.79757e-18 5.52082e-22 -1.37249e-15
0.00593938 -5.53621e-05 0.000634326
0.00597081 -4.9015e-05 0.000627738
2.24036e-18 -2.28118e-21 -1.71052e-15
2.24034e-18 3.18239e-22 -1.71052e-15
1.59202e-16 2.82202e-16 4.12238e-16
0.00563869 0.0002027 0.000137502
-9.20519e-19 -6.62092e-23 7.02843e-16
0.00587243 -3.26524e-05 0.000617552
-3.50168e-19 2.85615e-22 2.67381e-16
0.00687148 0.000495249 -0.00114772
0.00595179 -3.43677e-05 0.000624215
0.00593699 -6.572e-05 0.000638151
0.00615452 0.000142256 -0.000388366
0.00590755 -6.36349e-05 0.00063449
0.00595244 -2.77273e-05 0.000623538
0.00530753 6.90625e-05 0.000515339
0.00593054 -4.4376e-05 0.000626668
0.00587934 -5.00416e-05 0.000625689
2.24035e-18 -8.00777e-22 -1.71051e-15
0.00651472 0.00445317 -0.00331763
0.00569657 -0.00157536 -0.00272954
0.00538516 -0.000497127 8.9521e-06
0.00593864 -7.03178e-05 0.000641161
0.00588025 -4.33745e-05 0.00062286
2.24032e-18 2.5376e-21 -1.71051e-15
2.24035e-18 -3.6082e-23 -1.71052e-15
0.00596212 -2.55623e-05 0.000623705
1.79762e-18 8.33638e-22 -1.37251e-15
2.24033e-18 1.31518e-21 -1.71051e-15
0.00538592 0.000286025 0.000106062
0.00535161 -0.000352435 -0.000155009
-3.50199e-19 5.63228e-22 2.67381e-16
0.00589494 -4.27678e-05 0.000625165
8.71354e-19 4.13494e-22 -6.65297e-16
0.00590202 -6.58185e-05 0.000635806
8.71357e-19 1.61057e-21 -6.65296e-16
0.00585635 -7.35077e-06 0.000607377
1.79756e-18 -6.33488e-21 -1.37249e-15
0.00595024 -3.48124e-05 0.000626286
0.00578859 0.000191041 0.000141887
0.00562944 0.00027633 0.000119452
0.00594902 -4.10099e-05 0.000626979
0.00550082 5.02846e-05 0.000537826
0.00576793 -9.72862e-05 0.000644799
0.00592112 -5.08647e-05 0.000633093
2.24037e-18 8.17787e-23 -1.71052e-15
0.00558536 -0.0002614 -5.72949e-05
0.00584226 -1.73669e-05 0.000609394
0.00584916 -2.2183e-05 0.000611034
0.00602921 0.000239527 -0.000448262
0.00610262 0.00024007 -0.000451604
0.00598765 0.000238039 -0.000444113
0.00528149 7.00076e-05 0.000511846
0.00592624 -6.7406e-05 0.000636558
0.00606561 0.000255064 -0.000458853
0.00631327 7.29023e-05 -0.000348933
0.0059397 -6.1882e-05 0.000635844
0.00623252 9.00915e-05 -0.000356756
0.00061433 0.0235588 -0.0124636
2.24032e-18 1.93817e-22 -1.71052e-15
0.00637213 -0.000249222 -0.000908788
0.00588619 0.000182548 0.000151815
0.00624031 8.42148e-05 -0.000352603
0.00571654 1.47823e-05 0.00058961
0.00597014 -4.41754e-05 0.000621307
0.00585769 -4.45302e-05 0.000620722
0.00595109 -3.74118e-05 0.00062208
0.0062277 -6.64943e-05 -0.000533212
0.00594216 -4.79662e-05 0.000633471
0.00594261 -6.07759e-05 0.000637253
0.0059431 -6.49193e-05 0.000638086
0.00618602 0.000108418 -0.000367193
0.00591499 -4.47386e-05 0.000632421
0.00564625 0.000138659 -0.000179556
0.0059255 -6.12804e-05 0.000636459
0.00589398 -6.97009e-05 0.000636544
0.00592294 -7.07225e-05 0.000639762
-3.5017e-19 -3.48626e-22 2.6738e-16
0.0059925 -6.48389e-05 0.000622105
0.00518315 0.00034584 8.47428e-05
0.00539093 -0.000157135 0.000640705
0.00613959 0.000180838 0.000155049
0.00588559 -4.03833e-05 0.000633645
0.00544487 -0.000354532 -0.000169364
0.00591297 -3.25518e-05 0.000635692
0.00562874 0.000196083 0.000136894
0.00579957 0.000181105 0.00014377
0.00592737 -6.0457e-05 0.000635622
0.00610296 0.000262745 -0.000466182
0.0057139 2.1637e-05 0.000593886
0.00581878 -2.77115e-05 0.000609869
0.00447362 0.000138772 0.000396126
0.00552939 -7.83219e-05 0.000301117
0.00594907 -5.35706e-05 0.000635148
0.00535438 -0.00035924 -0.000150247
0.00585489 -2.69424e-05 0.000621836
0.00565498 0.000410817 -0.000586965
0.00596282 -2.0475e-05 0.000618113
0.00596397 -3.89549e-05 0.000622536
0.0058368 -9.09322e-06 0.000613161
0.00585994 0.000186595 0.000148458
0.00553228 -0.000362079 -0.000179066
2.81056e-18 -1.98267e-21 -2.14593e-15
0.00613919 0.000187719 -0.000418136
0.00627807 8.29402e-05 -0.000345681
-3.50215e-19 1.01256e-21 2.67381e-16

VECTORS force float
0.0 2.75035e-26 0.0
0.0 4.37527e-26 0.0
0.0 5.66959e-26 0.0
0.0 1.32071e-25 0.0
0.0 -3.03306e-27 0.0
0.0 -5.65072e-26 0.0
-4.03897e-28 -3.30578e-26 0.0
0.0 0.0 0.0
0.0 1.49182e-25 0.0
0.0 -3.26274e-26 0.0
1.45391e-10 -5.88786e-11 4.58064e-11
0.0 1.18301e-28 0.0
1.87702e-09 -2.87141e-09 -3.55275e-10
1.17932e-10 -9.81658e-10 3.98783e-10
0.0 6.57694e-28 0.0
0.0 -2.12763e-26 0.0
0.0 -1.17762e-25 0.0
0.0 -5.42524e-27 0.0
-2.43417e-10 1.46456e-10 -6.88805e-11
0.0 -1.09727e-26 0.0
0.0 1.0013e-27 0.0
-9.63886e-11 1.43742e-10 3.98263e-11
0.0 3.50954e-26 0.0
0.0 -1.38886e-26 0.0
0.0 -1.08203e-27 0.0
0.0 0.0 0.0
-4.22266e-21 -1.95008e-22 -1.69572e-23
-4.03897e-28 6.3655e-27 0.0
0.0 -1.00689e-25 0.0
5.16988e-26 0.0 0.0
0.0 -1.35924e-26 0.0
0.0 -2.55121e-26 0.0
-4.03897e-28 -2.01263e-26 0.0
-2.58494e-26 0.0 0.0
0.0 9.14385e-27 0.0
4.03897e-28 1.03655e-25 0.0
0.0 -1.02429e-27 0.0
-4.03897e-28 3.86489e-25 0.0
0.0 2.96044e-25 0.0
0.0 3.42581e-26 0.0
-1.6021e-18 6.62021e-12 2.08232e-11
0.0 -6.15976e-26 0.0
-2.60382e-11 7.19415e-11 -3.37417e-11
0.0 4.8691e-26 0.0
0.0 6.55456e-27 0.0
5.08431e-12 4.02077e-11 -1.60609e-11
0.0 -3.09486e-27 0.0
0.0 0.0 0.0
-4.88554e-24 6.82424e-24 4.1359e-25
0.0 1.82953e-26 0.0
0.0 8.75461e-27 0.0
0.0 -1.80778e-26 0.0
0.0 -6.18754e-27 0.0
-8.00039e-24 6.79839e-24 -8.27181e-25
-9.35337e-12 -8.50779e-11 -5.72103e-11
3.70341e-11 4.92853e-11 -3.63881e-11
0.0 2.85394e-26 0.0
0.0 -1.45832e-25 0.0
0.0 -5.28601e-27 0.0
0.0 2.86366e-27 0.0
-1.83339e-10 -8.37633e-11 -4.76819e-11
0.0 4.56407e-26 0.0
0.0 1.7408e-26 0.0
0.0 8.91017e-27 0.0
-1.07252e-11 8.30796e-11 1.36416e-11
0.0 -8.22117e-26 0.0
-2.00823e-10 -2.17707e-10 2.80653e-10
-1.6275e-10 -1.45705e-10 1.14348e-09
-4.75312e-22 -8.39915e-22 -1.03398e-24
-5.78085e-11 5.99834e-11 -4.4077e-11
5.54891e-11 -2.65435e-11 3.54894e-12
0.0 2.28864e-26 0.0
5.85035e-11 -8.38655e-14 1.06185e-10
0.0 1.08525e-25 0.0
4.03897e-28 -1.6684e-27 0.0
0.0 -1.78662e-25 0.0
0.0 -1.37454e-26 0.0
0.0 -3.16484e-25 0.0
-6.74224e-11 1.6943e-11 -1.48139e-11
2.58494e-26 0.0 0.0
0.0 7.55601e-27 0.0
-4.03897e-28 1.4043e-26 0.0
0.0 -3.01546e-27 0.0
0.0 8.79438e-28 0.0
-4.45802e-11 1.14058e-10 -1.16921e-10
0.0 -1.64866e-28 0.0
-1.3485e-11 5.34805e-11 -2.63194e-11
0.0 8.09803e-29 0.0
1.81621e-11 8.09761e-11 -4.3692e-11
1.08348e-21 -4.41714e-22 -1.65436e-24
-5.92908e-22 -8.36693e-22 5.23192e-23
3.95634e-10 6.76045e-10 1.16103e-09
-1.56621e-10 1.23293e-10 -9.56822e-11
-3.8541e-11 3.66034e-11 -2.10221e-11
4.40577e-11 -1.27994e-10 1.00062e-10
0.0 3.96319e-26 0.0
0.0 -3.92373e-28 0.0
0.0 4.04372e-26 0.0
0.0 3.26323e-28 0.0
8.05143e-11 -6.41434e-11 1.00478e-11
-4.03817e-11 1.48987e-11 -8.05617e-12
-1.4605e-11 3.04428e-11 -1.30291e-11
0.0 4.04246e-26 0.0
0.0 4.80671e-26 0.0
1.75186e-23 0.0 0.0
-8.57991e-11 1.63065e-11 -2.773e-11
0.0 -4.80811e-27 0.0
0.0 1.04945e-26 0.0
-4.03897e-28 -2.74777e-25 0.0
0.0 -6.41461e-26 0.0
-1.04454e-10 -1.43662e-10 3.13904e-12
0.0 2.57941e-27 0.0
0.0 -5.91255e-27 0.0
2.34218e-10 1.97765e-11 -6.31086e-11
0.0 -1.36043e-26 0.0
0.0 6.03777e-26 0.0
-2.90528e-11 3.18586e-11 -2.39749e-11
2.25166e-12 7.00299e-11 -3.44192e-11
-4.03897e-28 6.1998e-27 0.0
0.0 1.20559e-26 0.0
-4.03897e-28 -8.09548e-26 0.0
4.03897e-28 -6.4114e-26 0.0
-9.87228e-11 6.64036e-12 -1.12751e-11
0.0 -1.05845e-26 0.0
0.0 2.85437e-25 0.0
0.0 4.22468e-27 0.0
-8.89588e-11 -9.14215e-12 -7.16594e-12
-7.86247e-11 1.40823e-10 -3.17029e-11
7.06883e-11 -4.15626e-11 4.71046e-11
1.37817e-10 -2.76716e-11 3.58265e-11
5.07351e-10 -7.53107e-11 1.95248e-10
-4.90168e-11 2.40087e-11 -2.28739e-11
-3.66926e-11 -6.09764e-12 -4.03712e-12
0.0 8.64384e-26 0.0
1.02096e-11 6.92106e-11 -4.9256e-11
7.26399e-12 3.51336e-11 -2.09222e-11
-4.44317e-11 1.27924e-11 8.14533e-12
1.33261e-12 -2.15004e-14 2.00122e-14
-3.56944e-11 -1.43407e-10 -7.70373e-11
8.54659e-11 1.71725e-10 -2.45001e-11
-1.18323e-21 -2.34402e-22 -7.8789e-23
-3.69381e-11 8.41087e-12 -7.06341e-12
0.0 -5.71261e-27 0.0