# vtk DataFile Version 3.0
LIGGGHTS particles timestep 45600000
ASCII
DATASET POLYDATA
POINTS 275 float
0.279145 0.0181606 0.00695235
0.278796 0.0170273 0.00732743
0.278947 0.0169062 0.00737997
0.278429 0.0156866 0.00856316
0.284766 0.0169686 0.00759505
0.279091 0.0175355 0.00710936
0.278793 0.0166085 0.00751336
0.284961 0.0177451 0.00702023
0.278888 0.016636 0.00749624
0.279002 0.0178195 0.00707923
0.273127 0.0172988 0.00721057
0.278407 0.0156224 0.00863678
0.273056 0.0176775 0.00721765
0.273321 0.0181634 0.00705344
0.278758 0.0164663 0.00764893
0.278386 0.0155574 0.00870965
0.279134 0.0177155 0.00703348
0.278908 0.016726 0.00745751
0.273278 0.0179712 0.00708755
0.284878 0.0174018 0.00719527
0.278531 0.0160038 0.00819224
0.284917 0.0175605 0.007083
0.272822 0.0168002 0.00759349
0.278872 0.0169668 0.00735369
0.278364 0.0154924 0.00878252
0.278607 0.0162581 0.00789508
0.279166 0.0174747 0.00713564
0.278551 0.0160671 0.00811742
0.284785 0.0170408 0.00752842
0.278523 0.0159387 0.00826766
0.279048 0.017356 0.00718648
0.285024 0.0180338 0.00700147
0.278927 0.0168161 0.00741874
0.279006 0.0171764 0.00726374
0.284896 0.017474 0.00712863
0.278472 0.0158134 0.0084146
0.279042 0.0169355 0.00736761
0.279102 0.0172055 0.00725146
0.284803 0.017113 0.00746178
0.278493 0.0158775 0.00834075
0.279005 0.0179292 0.00694874
0.284982 0.0178385 0.00699118
0.278582 0.0161321 0.00804819
0.279188 0.0175643 0.00709732
0.273191 0.0175871 0.0071578
0.284841 0.0172574 0.00732852
0.279367 0.0179614 0.00694781
0.273013 0.0171818 0.00726219
0.279347 0.0178695 0.00698193
0.284822 0.0171852 0.00739515
0.378022 0.019866 0.005332
0.279123 0.0172952 0.00721285
0.27845 0.0157502 0.00848909
0.279027 0.0172663 0.00722509
0.279026 0.0180271 0.00694692
0.284859 0.0173296 0.00726189
0.272933 0.0172357 0.00721431
0.273025 0.0179324 0.00716864
0.279158 0.0178064 0.00699989
0.27893 0.0172372 0.00723736
0.279233 0.0177454 0.0070253
0.284939 0.0176519 0.0070484
0.273364 0.0183565 0.0070236
0.279196 0.0179952 0.00693626
0.279022 0.0168454 0.00740637
0.278591 0.0161934 0.00796959
0.272955 0.0169414 0.00743014
0.278816 0.0171174 0.00728866
0.272351 0.0157291 0.00900682
0.273289 0.018422 0.00701207
0.278891 0.0170569 0.00731493
0.273104 0.0178733 0.00718477
0.273148 0.017395 0.00719296
0.285003 0.0179361 0.00699632
0.273158 0.018649 0.00697415
0.279081 0.0171156 0.00729012
0.278852 0.0168767 0.00739245
0.278994 0.0175065 0.00712153
0.279082 0.0177648 0.00710444
0.279178 0.0178983 0.00696577
0.273105 0.0172029 0.0072281
0.278919 0.017567 0.00709525
0.278662 0.016449 0.00767057
0.279016 0.0179136 0.0070469
0.278938 0.0175491 0.00719191
0.278898 0.0174772 0.00713386
0.272468 0.0160101 0.00863131
0.278645 0.016385 0.00774536
0.272966 0.0177803 0.00711082
0.279112 0.0176255 0.00707143
0.272988 0.0178765 0.00709396
0.0643568 0.0187248 0.00531097
0.24257 0.0191927 0.00520306
0.273343 0.0182599 0.00703854
0.272461 0.015888 0.00878488
0.272976 0.0174281 0.00717913
0.272375 0.0157873 0.00892912
0.279253 0.0178373 0.00699119
0.279308 0.0176842 0.00705076
0.278777 0.0169372 0.00736619
0.278738 0.016757 0.0074437
0.272513 0.0161273 0.00847564
0.272858 0.0173025 0.00720946
0.272923 0.0175881 0.00714597
0.279061 0.0170256 0.00732886
0.27908 0.0178684 0.00697404
0.279069 0.0174457 0.00714788
0.27305 0.0173632 0.00719486
0.279272 0.0179321 0.00695593
0.278871 0.0165519 0.00754755
0.279166 0.0182581 0.00695941
0.278877 0.0173875 0.00717248
0.273309 0.018519 0.00699707
0.278777 0.0165301 0.00757423
0.278973 0.0174167 0.00716014
0.272449 0.0159582 0.00871462
0.278629 0.0163208 0.00782036
0.278977 0.0177295 0.00711539
0.27302 0.0176201 0.00714404
0.273041 0.0177162 0.00712644
0.278966 0.0169963 0.00734121
0.279104 0.0179652 0.00695931
0.279059 0.0177769 0.00700798
0.279212 0.0176547 0.00706162
0.272993 0.0170971 0.00731122
0.278959 0.0176388 0.0071533
0.278962 0.0177465 0.00701803
0.278836 0.0172076 0.00724985
0.272852 0.0165513 0.0078734
0.273234 0.0177792 0.00712266
0.2724 0.0158452 0.00885154
0.273094 0.0175553 0.00715974
0.272609 0.0161362 0.00844328
0.272998 0.0175241 0.00716157
0.272869 0.0166114 0.00779526
0.278699 0.0165768 0.00752122
0.273139 0.0185521 0.00698914
0.273128 0.018101 0.00706037
0.272885 0.0166736 0.00771866
0.272587 0.0160775 0.00852117
0.272536 0.0161859 0.00839776
0.272834 0.0164915 0.00795158
0.0219312 0.0187687 0.00551176
0.272919 0.0168056 0.00757244
0.278986 0.0170864 0.00730246
0.273009 0.017973 0.00707857
0.273086 0.0180729 0.00714695
0.272602 0.0163621 0.00816409
0.273171 0.0182939 0.00703045
0.278983 0.0178376 0.00698269
0.273096 0.018359 0.00701898
0.273214 0.0184872 0.00700058
0.273118 0.0184554 0.00700408
0.273193 0.0183906 0.00701552
0.279219 0.018094 0.00694337
0.272838 0.0172066 0.00722956
0.279173 0.0180249 0.00702884
0.272643 0.0164801 0.0080081
0.272911 0.0171377 0.00723224
0.272632 0.0161947 0.00836547
0.272959 0.0176459 0.00721955
0.273031 0.0180695 0.00706371
0.27924 0.0181916 0.00695043
0.272901 0.0174921 0.00716353
0.279068 0.0180163 0.0070373
0.273116 0.0176514 0.00714215
0.273178 0.0187458 0.00695916
0.279124 0.0180628 0.00695032
0.278952 0.0173269 0.00719875
0.27909 0.0183226 0.00696831
0.267101 0.0183825 0.00692158
0.278718 0.0166669 0.00748246
0.272879 0.0173961 0.00718109
0.279293 0.0180275 0.00693439
0.273162 0.0180086 0.00715931
0.273224 0.018132 0.00705688
0.273181 0.0179395 0.00708947
0.266769 0.0169401 0.00744064
0.273169 0.017491 0.00717538
0.272982 0.017743 0.00720229
0.272493 0.0160681 0.00855367
0.273246 0.0182284 0.00704198
0.272939 0.0168725 0.00750081
0.279037 0.017686 0.00704428
0.273299 0.0180672 0.00706999
0.272771 0.0166094 0.00781905
0.272802 0.0167338 0.00766553
0.272697 0.0163712 0.00813166
0.273212 0.0176832 0.00714023
0.273029 0.0172671 0.00721245
0.278813 0.0166978 0.00747277
0.278833 0.0167866 0.00743121
0.273268 0.0183249 0.00702708
0.279069 0.018225 0.00696124
0.278911 0.0171471 0.00727612
0.267012 0.0178967 0.0069952
0.272675 0.0163123 0.0082096
0.279314 0.0181251 0.00694145
0.272944 0.0176842 0.00712841
0.278681 0.0165129 0.00759595
0.273063 0.0178122 0.00710889
0.279144 0.017385 0.00717424
0.272838 0.0168632 0.00751766
0.278757 0.0168471 0.00740494
0.273256 0.0178752 0.00710511
0.26702 0.0179952 0.00698041
0.266958 0.0177069 0.00702423
0.273234 0.0185841 0.00698559
0.272747 0.0168591 0.00755932
0.273166 0.018156 0.00713485
0.273074 0.0182625 0.00703388
0.278855 0.0172977 0.0072111
0.272707 0.0167205 0.00769493
0.2728 0.0170443 0.00733028
0.272818 0.0171139 0.00726078
0.266671 0.0165168 0.00768797
0.26673 0.0167708 0.00753956
0.266651 0.0164322 0.00773744
0.272815 0.0164322 0.00802968
0.273159 0.0178435 0.00710703
0.26669 0.0166015 0.0076385
0.266872 0.017362 0.00719418
0.272658 0.0165404 0.00792977
0.272937 0.0175498 0.0072371
0.26681 0.0171092 0.00734186
0.272737 0.0164895 0.00797557
0.279016 0.0175962 0.00708291
0.26691 0.017442 0.00714787
0.267081 0.0182856 0.00693629
0.266838 0.0171921 0.00729359
0.272329 0.0156704 0.00908469
0.273438 0.0182905 0.00703521
0.272901 0.0167384 0.00764422
0.273034 0.0175813 0.00723522
0.266913 0.0175281 0.00709717
0.273149 0.0181974 0.00704535
0.272896 0.0170662 0.0073006
0.272892 0.0174591 0.00725757
0.266789 0.0170247 0.00739124
0.272558 0.0162444 0.00831995
0.267121 0.0184796 0.00690848
0.273084 0.0179082 0.00709132
0.272755 0.0165493 0.00789735
0.273072 0.0174592 0.00717731
0.273137 0.0177474 0.00712459
0.278916 0.0174593 0.00723052
0.273053 0.018166 0.00704878
0.266977 0.0178039 0.00700951
0.272786 0.0166706 0.00774151
0.266934 0.0176128 0.00704818
0.272623 0.0164217 0.00808677
0.272718 0.0164313 0.00805454
0.272674 0.0166006 0.00785146
0.272955 0.017332 0.00719672
0.267156 0.01822 0.00694499
0.267042 0.0180918 0.00696572
0.273106 0.0180047 0.00707652
0.26671 0.0166862 0.00758903
0.272762 0.0169138 0.00747705
0.272856 0.0169304 0.00744586
0.27258 0.0163033 0.00824217
0.272724 0.0167804 0.0076167
0.273203 0.0180355 0.00707191
0.272654 0.0162534 0.00828757
0.272974 0.017015 0.00736525
0.273077 0.0177737 0.00720004
0.273091 0.0182212 0.00712334
0.272876 0.0169973 0.00737424
0.27278 0.0169774 0.00740189
0.267062 0.0181887 0.00695101
0.272692 0.0166603 0.00777325
0.279048 0.0181272 0.00695417
0.266749 0.0168555 0.00749009
0.266851 0.0172776 0.0072435
0.278941 0.0176568 0.00705663

VERTICES 275 550
1 0
1 1
1 2
1 3
1 4
1 5
1 6
1 7
1 8
1 9
1 10
1 11
1 12
1 13
1 14
1 15
1 16
1 17
1 18
1 19
1 20
1 21
1 22
1 23
1 24
1 25
1 26
1 27
1 28
1 29
1 30
1 31
1 32
1 33
1 34
1 35
1 36
1 37
1 38
1 39
1 40
1 41
1 42
1 43
1 44
1 45
1 46
1 47
1 48
1 49
1 50
1 51
1 52
1 53
1 54
1 55
1 56
1 57
1 58
1 59
1 60
1 61
1 62
1 63
1 64
1 65
1 66
1 67
1 68
1 69
1 70
1 71
1 72
1 73
1 74
1 75
1 76
1 77
1 78
1 79
1 80
1 81
1 82
1 83
1 84
1 85
1 86
1 87
1 88
1 89
1 90
1 91
1 92
1 93
1 94
1 95
1 96
1 97
1 98
1 99
1 100
1 101
1 102
1 103
1 104
1 105
1 106
1 107
1 108
1 109
1 110
1 111
1 112
1 113
1 114
1 115
1 116
1 117
1 118
1 119
1 120
1 121
1 122
1 123
1 124
1 125
1 126
1 127
1 128
1 129
1 130
1 131
1 132
1 133
1 134
1 135
1 136
1 137
1 138
1 139
1 140
1 141
1 142
1 143
1 144
1 145
1 146
1 147
1 148
1 149
1 150
1 151
1 152
1 153
1 154
1 155
1 156
1 157
1 158
1 159
1 160
1 161
1 162
1 163
1 164
1 165
1 166
1 167
1 168
1 169
1 170
1 171
1 172
1 173
1 174
1 175
1 176
1 177
1 178
1 179
1 180
1 181
1 182
1 183
1 184
1 185
1 186
1 187
1 188
1 189
1 190
1 191
1 192
1 193
1 194
1 195
1 196
1 197
1 198
1 199
1 200
1 201
1 202
1 203
1 204
1 205
1 206
1 207
1 208
1 209
1 210
1 211
1 212
1 213
1 214
1 215
1 216
1 217
1 218
1 219
1 220
1 221
1 222
1 223
1 224
1 225
1 226
1 227
1 228
1 229
1 230
1 231
1 232
1 233
1 234
1 235
1 236
1 237
1 238
1 239
1 240
1 241
1 242
1 243
1 244
1 245
1 246
1 247
1 248
1 249
1 250
1 251
1 252
1 253
1 254
1 255
1 256
1 257
1 258
1 259
1 260
1 261
1 262
1 263
1 264
1 265
1 266
1 267
1 268
1 269
1 270
1 271
1 272
1 273
1 274

POINT_DATA 275
SCALARS id int 1
LOOKUP_TABLE default
1
2
4
5
6
7
8
9
10
11
12
13
14
16
17
19
21
22
23
24
25
26
27
28
29
30
31
32
33
34
35
36
37
38
39
41
42
44
45
47
48
49
50
51
52
53
54
55
56
57
59
60
61
62
63
64
65
66
67
68
69
70
71
72
73
74
76
77
78
79
80
82
83
84
85
86
87
88
89
90
91
92
93
94
95
96
97
98
99
100
101
102
103
104
105
106
107
108
109
110
111
112
113
114
115
116
117
118
119
120
121
122
123
124
125
127
128
129
130
131
132
133
134
135
136
137
138
140
141
142
143
144
146
147
148
149
150
151
153
154
155
156
157
158
159
160
162
164
165
166
167
168
169
170
171
172
173
174
176
177
178
179
182
183
184
185
186
187
188
189
190
191
192
193
194
195
196
197
198
199
200
201
202
203
204
205
206
207
208
209
210
211
212
213
214
215
216
217
218
219
220
222
224
225
226
227
228
229
230
232
233
234
235
236
237
239
240
241
242
243
244
246
247
248
249
250
251
252
253
254
255
256
257
258
259
260
261
262
263
264
265
266
267
268
269
270
271
272
273
274
275
276
277
278
279
280
281
283
284
285
286
287
288
289
290
291
292
293
294
295
296
297
298
299
300

SCALARS type int 1
LOOKUP_TABLE default
1
1
1
1
1
1
1
1
1
1
1
1
1
1
1
1
1
1
1
1
1
1
1
1
1
1
1
1
1
1
1
1
1
1
1
1
1
1
1
1
1
1
1
1
1
1
1
1
1
1
1
1
1
1
1
1
1
1
1
1
1
1
1
1
1
1
1
1
1
1
1
1
1
1
1
1
1
1
1
1
1
1
1
1
1
1
1
1
1
1
1
1
1
1
1
1
1
1
1
1
1
1
1
1
1
1
1
1
1
1
1
1
1
1
1
1
1
1
1
1
1
1
1
1
1
1
1
1
1
1
1
1
1
1
1
1
1
1
1
1
1
1
1
1
1
1
1
1
1
1
1
1
1
1
1
1
1
1
1
1
1
1
1
1
1
1
1
1
1
1
1
1
1
1
1
1
1
1
1
1
1
1
1
1
1
1
1
1
1
1
1
1
1
1
1
1
1
1
1
1
1
1
1
1
1
1
1
1
1
1
1
1
1
1
1
1
1
1
1
1
1
1
1
1
1
1
1
1
1
1
1
1
1
1
1
1
1
1
1
1
1
1
1
1
1
1
1
1
1
1
1
1
1
1
1
1
1
1
1
1
1
1
1
1
1
1
1
1
1
1
1
1
1
1
1

SCALARS radius float 1
LOOKUP_TABLE default
5e-05
5e-05
5e-05
5e-05
5e-05
5e-05
5e-05
5e-05
5e-05
5e-05
5e-05
5e-05
5e-05
5e-05
5e-05
5e-05
5e-05
5e-05
5e-05
5e-05
5e-05
5e-05
5e-05
5e-05
5e-05
5e-05
5e-05
5e-05
5e-05
5e-05
5e-05
5e-05
5e-05
5e-05
5e-05
5e-05
5e-05
5e-05
5e-05
5e-05
5e-05
5e-05
5e-05
5e-05
5e-05
5e-05
5e-05
5e-05
5e-05
5e-05
5e-05
5e-05
5e-05
5e-05
5e-05
5e-05
5e-05
5e-05
5e-05
5e-05
5e-05
5e-05
5e-05
5e-05
5e-05
5e-05
5e-05
5e-05
5e-05
5e-05
5e-05
5e-05
5e-05
5e-05
5e-05
5e-05
5e-05
5e-05
5e-05
5e-05
5e-05
5e-05
5e-05
5e-05
5e-05
5e-05
5e-05
5e-05
5e-05
5e-05
5e-05
5e-05
5e-05
5e-05
5e-05
5e-05
5e-05
5e-05
5e-05
5e-05
5e-05
5e-05
5e-05
5e-05
5e-05
5e-05
5e-05
5e-05
5e-05
5e-05
5e-05
5e-05
5e-05
5e-05
5e-05
5e-05
5e-05
5e-05
5e-05
5e-05
5e-05
5e-05
5e-05
5e-05
5e-05
5e-05
5e-05
5e-05
5e-05
5e-05
5e-05
5e-05
5e-05
5e-05
5e-05
5e-05
5e-05
5e-05
5e-05
5e-05
5e-05
5e-05
5e-05
5e-05
5e-05
5e-05
5e-05
5e-05
5e-05
5e-05
5e-05
5e-05
5e-05
5e-05
5e-05
5e-05
5e-05
5e-05
5e-05
5e-05
5e-05
5e-05
5e-05
5e-05
5e-05
5e-05
5e-05
5e-05
5e-05
5e-05
5e-05
5e-05
5e-05
5e-05
5e-05
5e-05
5e-05
5e-05
5e-05
5e-05
5e-05
5e-05
5e-05
5e-05
5e-05
5e-05
5e-05
5e-05
5e-05
5e-05
5e-05
5e-05
5e-05
5e-05
5e-05
5e-05
5e-05
5e-05
5e-05
5e-05
5e-05
5e-05
5e-05
5e-05
5e-05
5e-05
5e-05
5e-05
5e-05
5e-05
5e-05
5e-05
5e-05
5e-05
5e-05
5e-05
5e-05
5e-05
5e-05
5e-05
5e-05
5e-05
5e-05
5e-05
5e-05
5e-05
5e-05
5e-05
5e-05
5e-05
5e-05
5e-05
5e-05
5e-05
5e-05
5e-05
5e-05
5e-05
5e-05
5e-05
5e-05
5e-05
5e-05
5e-05
5e-05
5e-05
5e-05
5e-05
5e-05
5e-05
5e-05
5e-05
5e-05
5e-05
5e-05
5e-05
5e-05
5e-05
5e-05
5e-05
5e-05
5e-05
5e-05
5e-05
5e-05
5e-05
5e-05
5e-05
5e-05
5e-05
5e-05
5e-05
5e-05
5e-05
5e-05

SCALARS mass float 1
LOOKUP_TABLE default
1.46608e-10
1.46608e-10
1.46608e-10
1.46608e-10
1.46608e-10
1.46608e-10
1.46608e-10
1.46608e-10
1.46608e-10
1.46608e-10
1.46608e-10
1.46608e-10
1.46608e-10
1.46608e-10
1.46608e-10
1.46608e-10
1.46608e-10
1.46608e-10
1.46608e-10
1.46608e-10
1.46608e-10
1.46608e-10
1.46608e-10
1.46608e-10
1.46608e-10
1.46608e-10
1.46608e-10
1.46608e-10
1.46608e-10
1.46608e-10
1.46608e-10
1.46608e-10
1.46608e-10
1.46608e-10
1.46608e-10
1.46608e-10
1.46608e-10
1.46608e-10
1.46608e-10
1.46608e-10
1.46608e-10
1.46608e-10
1.46608e-10
1.46608e-10
1.46608e-10
1.46608e-10
1.46608e-10
1.46608e-10
1.46608e-10
1.46608e-10
1.46608e-10
1.46608e-10
1.46608e-10
1.46608e-10
1.46608e-10
1.46608e-10
1.46608e-10
1.46608e-10
1.46608e-10
1.46608e-10
1.46608e-10
1.46608e-10
1.46608e-10
1.46608e-10
1.46608e-10
1.46608e-10
1.46608e-10
1.46608e-10
1.46608e-10
1.46608e-10
1.46608e-10
1.46608e-10
1.46608e-10
1.46608e-10
1.46608e-10
1.46608e-10
1.46608e-10
1.46608e-10
1.46608e-10
1.46608e-10
1.46608e-10
1.46608e-10
1.46608e-10
1.46608e-10
1.46608e-10
1.46608e-10
1.46608e-10
1.46608e-10
1.46608e-10
1.46608e-10
1.46608e-10
1.46608e-10
1.46608e-10
1.46608e-10
1.46608e-10
1.46608e-10
1.46608e-10
1.46608e-10
1.46608e-10
1.46608e-10
1.46608e-10
1.46608e-10
1.46608e-10
1.46608e-10
1.46608e-10
1.46608e-10
1.46608e-10
1.46608e-10
1.46608e-10
1.46608e-10
1.46608e-10
1.46608e-10
1.46608e-10
1.46608e-10
1.46608e-10
1.46608e-10
1.46608e-10
1.46608e-10
1.46608e-10
1.46608e-10
1.46608e-10
1.46608e-10
1.46608e-10
1.46608e-10
1.46608e-10
1.46608e-10
1.46608e-10
1.46608e-10
1.46608e-10
1.46608e-10
1.46608e-10
1.46608e-10
1.46608e-10
1.46608e-10
1.46608e-10
1.46608e-10
1.46608e-10
1.46608e-10
1.46608e-10
1.46608e-10
1.46608e-10
1.46608e-10
1.46608e-10
1.46608e-10
1.46608e-10
1.46608e-10
1.46608e-10
1.46608e-10
1.46608e-10
1.46608e-10
1.46608e-10
1.46608e-10
1.46608e-10
1.46608e-10
1.46608e-10
1.46608e-10
1.46608e-10
1.46608e-10
1.46608e-10
1.46608e-10
1.46608e-10
1.46608e-10
1.46608e-10
1.46608e-10
1.46608e-10
1.46608e-10
1.46608e-10
1.46608e-10
1.46608e-10
1.46608e-10
1.46608e-10
1.46608e-10
1.46608e-10
1.46608e-10
1.46608e-10
1.46608e-10
1.46608e-10
1.46608e-10
1.46608e-10
1.46608e-10
1.46608e-10
1.46608e-10
1.46608e-10
1.46608e-10
1.46608e-10
1.46608e-10
1.46608e-10
1.46608e-10
1.46608e-10
1.46608e-10
1.46608e-10
1.46608e-10
1.46608e-10
1.46608e-10
1.46608e-10
1.46608e-10
1.46608e-10
1.46608e-10
1.46608e-10
1.46608e-10
1.46608e-10
1.46608e-10
1.46608e-10
1.46608e-10
1.46608e-10
1.46608e-10
1.46608e-10
1.46608e-10
1.46608e-10
1.46608e-10
1.46608e-10
1.46608e-10
1.46608e-10
1.46608e-10
1.46608e-10
1.46608e-10
1.46608e-10
1.46608e-10
1.46608e-10
1.46608e-10
1.46608e-10
1.46608e-10
1.46608e-10
1.46608e-10
1.46608e-10
1.46608e-10
1.46608e-10
1.46608e-10
1.46608e-10
1.46608e-10
1.46608e-10
1.46608e-10
1.46608e-10
1.46608e-10
1.46608e-10
1.46608e-10
1.46608e-10
1.46608e-10
1.46608e-10
1.46608e-10
1.46608e-10
1.46608e-10
1.46608e-10
1.46608e-10
1.46608e-10
1.46608e-10
1.46608e-10
1.46608e-10
1.46608e-10
1.46608e-10
1.46608e-10
1.46608e-10
1.46608e-10
1.46608e-10
1.46608e-10
1.46608e-10
1.46608e-10
1.46608e-10
1.46608e-10
1.46608e-10
1.46608e-10
1.46608e-10
1.46608e-10
1.46608e-10
1.46608e-10
1.46608e-10
1.46608e-10
1.46608e-10
1.46608e-10
1.46608e-10
1.46608e-10
1.46608e-10
1.46608e-10
1.46608e-10
1.46608e-10

VECTORS velocity float
0.00631627 0.000121821 -0.000288052
0.00572568 0.000284079 -0.000107315
0.00573908 0.000267863 -0.000100266
0.00605248 0.000118165 -7.70581e-05
0.00576299 0.000180775 0.000615978
0.00633135 0.000112215 -1.76011e-05
0.00573374 0.000285247 -0.000105183
0.0062929 -0.000203479 9.82021e-05
0.00573783 0.00027718 -0.000108903
0.0063877 0.00018543 0.000142465
0.00608599 4.82269e-05 0.000254353
0.00605481 0.00014057 -7.01169e-05
0.0062077 6.25958e-05 0.000259716
0.00610363 2.18702e-05 9.17587e-05
0.0055393 0.000261794 -0.000376422
0.00607501 0.000138574 -7.3666e-05
0.00636713 0.000166428 0.00013551
0.00574671 0.000281114 -0.000109104
0.00610553 4.92922e-05 0.000254895
0.00618107 0.000163913 0.000681202
0.00577884 8.35091e-05 -0.000169836
0.00621933 -0.000261404 -8.5305e-05
0.00571499 -7.15684e-05 -0.000519031
0.00574119 0.00028235 -0.000106845
0.00609615 0.000135593 -7.12707e-05
0.00554241 0.000139073 -0.000231877
0.00631269 8.58234e-05 -1.85556e-05
0.00573864 9.35035e-05 -0.000181549
0.00582335 0.000178505 0.000625406
0.00583149 7.47582e-05 -0.000162007
0.00626132 0.000124976 -3.78417e-05
0.00622063 -0.000139862 0.000273601
0.00577259 0.000283138 -0.00010747
0.00606491 0.00017458 -5.94588e-05
0.00621704 0.000144484 0.000703113
0.00592878 5.9807e-05 -0.000142875
0.00594927 0.000126185 -3.83548e-05
0.0061814 0.000103156 -2.78997e-05
0.0059056 0.000182158 0.000638147
0.00587748 6.55698e-05 -0.000148502
0.00639593 0.000168351 0.00013712
0.00627939 -0.000149386 0.000272868
0.00567734 0.000125315 -0.000194128
0.00632396 6.32407e-05 -6.17017e-05
0.00616511 1.97796e-05 0.000263995
0.00602969 0.000176069 0.000648467
0.00632556 0.000226574 0.000109005
0.00604374 2.64601e-05 0.000140323
0.00636587 0.000221944 0.000114057
0.00597136 0.000180679 0.000645214
-5.01919e-15 -7.41218e-15 7.69803e-14
0.00624202 9.51107e-05 -2.52979e-05
0.00601393 6.86011e-05 -0.000117732
0.00621307 0.000136208 -4.22259e-05
0.00635296 -6.63778e-06 -0.00029889
0.00610981 0.000178058 0.000660898
0.00602794 -7.36125e-05 0.000297083
0.00607477 -3.76458e-05 0.000111213
0.00638536 0.000164235 0.000136541
0.00630777 9.97132e-05 -2.64519e-05
0.00635234 0.000138523 0.000147119
0.00625636 -0.000243326 -4.98139e-05
0.00562454 7.60819e-05 7.74465e-05
0.00637963 0.000117311 -0.000299284
0.00583743 0.000137508 -4.3735e-05
0.00560801 0.000124103 -0.000216506
0.00589906 -0.000121922 -0.000242481
0.00571818 0.000321194 -0.000123267
0.00631642 -0.000503636 -0.000772582
0.00560988 4.69155e-05 8.15429e-05
0.00573862 0.00034188 -0.000132152
0.00611271 4.00068e-05 0.000230862
0.00613861 3.28797e-05 0.000258981
0.00625226 -0.000143836 0.00027572
0.00570168 8.178e-05 7.64124e-05
0.00609937 0.000113182 -3.28277e-05
0.00574206 0.000284982 -0.000107532
0.00630046 0.000134097 -3.93654e-05
0.00636976 0.000175685 0.000140684
0.00642481 0.0001574 0.000141281
0.00605836 5.70242e-05 0.000244424
0.0063022 0.000139427 -4.81831e-05
0.00559729 0.000205768 -0.000181363
0.00639473 0.000152306 0.000137868
0.00626995 0.000129862 -5.10876e-05
0.00627553 0.000134735 -4.16189e-05
0.00606412 -0.000444447 -0.000771731
0.00555214 0.000159812 -0.000227296
0.00620455 7.58967e-05 0.000255438
0.00635663 0.000141142 6.66936e-05
0.00618261 2.94976e-05 0.000216314
4.33306e-15 1.04727e-14 8.29599e-14
-1.45275e-22 -1.27651e-22 1.23839e-22
0.00606817 -3.55215e-06 9.36154e-05
0.00641101 -0.000492816 -0.000815402
0.00619544 6.2887e-05 0.00025998
0.00660395 -0.000585169 -0.000734135
0.0063962 0.000124352 0.000151588
0.00633777 0.000130548 0.00014877
0.00573793 0.000286249 -0.000108237
0.00576324 0.000275551 -0.000104222
0.00618665 -0.00046026 -0.000800063
0.00612372 5.85897e-05 9.52939e-05
0.00621111 5.61156e-05 0.000254113
0.00601984 0.000121016 -3.6177e-05
0.00638676 0.000154241 0.00014142
0.00629715 0.000115736 -3.33067e-05
0.00619059 4.96019e-05 0.000263904
0.00639534 0.000241749 0.000111873
0.00565413 0.000186145 -0.000289024
0.00628433 0.000131218 -0.00028407
0.00625591 0.000162909 -5.38696e-05
0.00567539 4.4724e-05 8.31747e-05
0.00561577 0.00025267 -0.000366573
0.00627418 0.000138211 -4.38409e-05
0.00614205 -0.000496571 -0.000775925
0.00552397 0.000147276 -0.000238673
0.00636398 0.000113529 -2.85571e-05
0.00620042 5.85175e-05 0.000262317
0.00619779 6.04754e-05 0.000258632
0.00575096 0.000256329 -9.48423e-05
0.00640877 0.000122299 -1.21294e-05
0.00636869 0.000161561 0.000137791
0.0063148 0.000124311 8.96232e-05
0.00600527 -5.3001e-05 -5.54882e-05
0.00634727 0.00012143 -2.25304e-05
0.00635065 0.000104576 -2.76223e-05
0.00563594 5.9696e-05 -1.0316e-05
0.00613822 -0.000526442 -0.000516545
0.00612644 3.21605e-05 0.000259664
0.00655484 -0.000570181 -0.000736687
0.00619041 3.83686e-05 0.000261697
0.00625181 -0.000463707 -0.000806288
0.00619552 5.95395e-05 0.000262188
0.00591613 -0.000350791 -0.00043448
0.00573849 0.000268425 -9.91906e-05
0.00567628 0.000127108 6.9109e-05
0.00614863 3.76594e-05 0.000142688
0.00576641 -0.000169619 -0.00032725
0.00619032 -0.000451367 -0.000809731
0.0062401 -0.000465429 -0.000801855
0.00632012 -0.00065426 -0.00057413
-3.83897e-14 8.16672e-14 2.9588e-13
0.00579339 -0.00012158 -0.000270045
0.00585374 0.000224969 -8.13623e-05
0.00617278 -4.76467e-06 0.000106523
0.00608973 0.000114186 0.000148111
0.00627979 -0.000483262 -0.000789211
0.00612661 3.03518e-05 9.21037e-05
0.00637246 0.000160273 0.000137768
0.00613705 2.65492e-05 9.22351e-05
0.00566277 8.6706e-05 7.5991e-05
0.00612739 2.36614e-05 9.32567e-05
0.00610355 1.82852e-05 9.43614e-05
0.00633613 0.000146074 -0.000289205
0.0059006 3.59646e-05 -0.000241862
0.00642232 0.000148498 -0.000304091
0.00626769 -0.000510001 -0.000753016
0.00588269 4.18481e-05 0.00023444
0.00631977 -0.000458454 -0.000829123
0.00622014 6.41211e-05 0.000265833
0.00616039 1.92192e-05 0.000132606
0.00630236 0.000156814 -0.000282226
0.00622093 8.70571e-05 0.000247944
0.0065112 0.000610589 -0.000293855
0.00618342 3.74548e-05 0.000257406
0.00574232 7.91243e-05 7.80832e-05
0.00635258 0.000105869 -0.000292596
0.00624398 0.000155996 -5.05872e-05
0.00626051 0.000100192 -0.000286411
0.00566479 -0.000297506 -5.16859e-05
0.00576955 0.000269733 -0.000101053
0.0062347 9.32565e-05 0.000265619
0.0063486 0.000165402 -0.000282876
0.00614892 4.03788e-05 0.0002645
0.00612274 3.21589e-05 9.40839e-05
0.00614917 5.1084e-05 0.000257725
0.00564016 -0.000139971 0.000201697
0.0061765 2.07412e-05 0.000264072
0.00622284 8.40781e-05 0.000258896
0.00613699 -0.000460276 -0.000784713
0.00610821 2.90974e-05 9.22679e-05
0.00587806 -0.000134579 -0.000265644
0.00636709 0.000117249 -3.34746e-05
0.00610111 5.37451e-05 0.000251667
0.00587329 -0.000398701 -0.000794522
0.00571045 -0.000265241 -0.000674958
0.00630216 -0.000468919 -0.00082056
0.00614026 2.59109e-05 0.000260066
0.00609574 6.40137e-05 0.000246845
0.00577404 0.000152466 -0.000402283
0.00575896 0.00029077 -0.000109645
0.00609276 1.5081e-05 9.58398e-05
0.00630162 0.000107124 -0.00028688
0.00566637 0.000113046 -3.37833e-05
0.00625348 -0.000542421 -6.6127e-06
0.0063269 -0.000461172 -0.000823605
0.00632129 0.000168992 -0.000281263
0.00619163 2.68787e-05 0.000260353
0.00567054 0.000249736 -0.000128657
0.00619201 5.86708e-05 0.000256611
0.00628036 9.05085e-05 -2.2855e-05
0.00569718 4.5659e-05 -0.000427186
0.00574677 0.000281832 -0.000105245
0.00612331 3.86403e-05 0.000257803
0.00622954 -0.000501066 -1.94843e-05
0.00621301 -0.000541346 -3.20531e-05
0.00568289 6.49788e-05 7.97973e-05
0.00565222 -0.000136621 -0.000446178
0.00610675 1.02998e-06 8.01717e-05
0.00614548 2.26152e-05 9.30403e-05
0.00622239 5.98653e-05 -1.17898e-05
0.00570286 -0.000415252 -0.000739656
0.00568457 8.88028e-06 -0.000402695
0.00571947 1.79617e-05 -0.00039464
0.0055299 -0.000226848 0.000250724
0.00554003 -0.00015089 0.000206199
0.00552435 -0.00026262 0.000271618
0.00635743 -0.000661895 -0.000595706
0.00616075 4.38451e-05 0.000258676
0.00553629 -0.000189945 0.000229214
0.00616666 -0.000232858 0.000267392
0.00615493 -0.000500518 -0.000739509
0.00614554 5.0809e-05 0.000250302
0.00605447 -0.000204589 0.00024811
0.0062255 -0.000452483 -0.000838439
0.00633572 0.000115509 -2.41164e-05
0.00621745 -0.000267896 0.000288802
0.00565059 -0.000310637 -3.63851e-05
0.00609299 -0.000211494 0.000250975
0.00574537 -0.000353801 -0.00082984
0.005979 0.000404554 3.31826e-05
0.00574058 -0.000103634 -0.000278363
0.00619906 4.3862e-05 0.000260951
0.006218 -0.000286314 0.000298061
0.0061359 3.39007e-05 9.82797e-05
0.00550903 -0.000224949 -0.000138073
0.00625077 0.000137251 0.000249205
0.0058915 -0.000178345 0.000229808
0.00626171 -0.000469976 -0.000800513
0.00570986 -0.000283232 5.70212e-05
0.00618119 5.53212e-05 0.000252602
0.00604205 -0.000425322 -0.00081783
0.00616069 5.19428e-05 0.00025807
0.00616175 3.67295e-05 0.000254341
0.00625773 0.000107893 -4.30161e-05
0.0061535 1.60397e-05 9.44854e-05
0.00623326 -0.000543594 -8.5569e-06
0.00569016 -0.000340075 -0.000753875
0.00623492 -0.000557625 -0.000147041
0.00627841 -0.000491842 -0.00077501
0.00628725 -0.00047787 -0.000844184
0.00596724 -0.000468593 -0.000733918
0.00612477 8.94714e-05 0.000285279
0.00557476 -0.000390791 -1.92367e-05
0.00578919 -0.000402594 -2.53035e-05
0.00616466 5.16628e-05 0.000210833
0.0055401 -0.000167711 0.000216033
0.00564106 -2.90123e-05 -0.000405169
0.00576273 7.99127e-05 -0.000481381
0.0062539 -0.000472853 -0.000797923
0.00569165 -0.000304016 -0.000643987
0.00613953 5.40794e-05 0.000257315
0.00629409 -0.000438767 -0.000847863
0.00580679 -7.585e-05 -0.000196912
0.00616488 9.25223e-06 0.000246652
0.00613628 2.28123e-05 8.70597e-05
0.00577166 7.54446e-05 -0.000468919
0.00563241 -8.18032e-06 -0.000406495
0.00568829 -0.000356097 -2.358e-05
0.00579775 -0.000438615 -0.00073847
0.006339 9.73799e-05 -0.000298272
0.00554202 -0.000135325 0.000196991
0.00612467 -0.000218149 0.000258046
0.0063288 0.000110921 -2.76813e-05

VECTORS force float
-1.07093e-11 -9.56317e-11 -7.25284e-11
3.01346e-11 1.03997e-10 -4.28287e-11
1.31211e-12 7.62839e-12 -5.83676e-12
-1.53908e-10 2.41189e-10 4.57983e-10
1.06289e-10 -3.19409e-11 4.1339e-11
1.22844e-10 3.12101e-11 5.48447e-11
-1.68798e-10 1.2173e-10 -6.04945e-11
2.72447e-11 3.22353e-11 1.20665e-11
-1.06146e-10 1.13565e-10 -6.67904e-11
-4.4505e-12 -7.04458e-11 -4.34683e-11
4.46273e-11 3.22761e-10 -2.08315e-11
-7.98775e-11 -9.00658e-11 3.35502e-10
-2.84581e-10 4.63988e-11 6.09997e-12
-1.31092e-10 -2.10039e-10 8.35503e-11
3.92371e-11 6.99866e-11 -1.18553e-10
-9.53857e-11 -2.75872e-10 2.77711e-10
1.0449e-10 -9.38051e-12 1.30544e-12
1.82892e-11 1.37855e-10 -9.33653e-11
-5.7381e-11 1.85235e-10 -2.1823e-11
3.49551e-10 -1.6687e-10 5.45719e-11
5.42381e-11 1.56133e-10 -1.44058e-10
-1.43314e-10 -2.02776e-10 -4.17473e-10
-1.73131e-11 5.83134e-10 -1.71921e-10
-5.11853e-12 1.95153e-11 -1.9472e-11
-5.43684e-11 -2.7312e-10 3.05978e-10
3.3835e-11 8.55943e-11 -1.64023e-10
5.99211e-11 -8.39611e-11 2.74818e-11
2.68673e-10 1.62801e-10 -1.60992e-10
-1.54566e-10 -5.95406e-11 -1.89582e-11
1.72114e-11 1.09782e-10 -7.21266e-11
-1.32759e-10 -4.17332e-11 9.42319e-12
3.39955e-11 6.81459e-11 5.60722e-12
-1.53412e-10 2.33276e-10 -8.57911e-11
-1.43235e-11 -9.61246e-11 3.85553e-11
1.5074e-10 -3.37316e-11 1.37658e-10
2.65522e-10 -6.92843e-11 1.06325e-10
-3.28823e-10 -6.63579e-11 1.4719e-11
-1.91368e-10 -6.87502e-11 2.61625e-11
-5.4758e-11 7.63473e-11 -5.80229e-11
1.43444e-10 -1.80067e-11 5.04018e-12
-6.01714e-11 -1.44429e-10 3.09611e-11
-1.8324e-11 3.62901e-11 2.11342e-11
3.78194e-10 1.5045e-10 -1.30519e-10
1.40295e-10 -4.48931e-11 1.80472e-10
1.24313e-11 1.73225e-10 -2.52927e-11
-1.22e-10 1.56422e-11 -7.13961e-11
-6.30451e-11 -4.96128e-11 -1.80619e-11
-1.45203e-11 4.08351e-10 -2.00459e-10
-3.71327e-11 -2.20009e-11 7.63781e-12
8.69111e-11 9.19122e-11 -1.06924e-10
5.00186e-24 -5.58347e-24 -2.06795e-25
-1.97727e-10 -4.49222e-11 2.47976e-11
-5.72227e-11 3.54739e-10 4.8106e-10
-1.54104e-10 -5.22971e-11 1.89413e-11
4.99107e-11 8.31087e-11 5.37046e-11
-1.50762e-10 -5.21531e-11 -6.16629e-11
2.55356e-10 1.11438e-10 1.11328e-10
2.98501e-11 1.07157e-10 1.16851e-11
5.32057e-11 -3.08417e-11 1.17301e-11
-4.01831e-10 4.48503e-10 -2.93981e-10
4.74831e-11 -8.92283e-11 7.91332e-12
-8.55578e-12 -2.79543e-11 -6.76401e-11
9.4205e-10 1.18188e-09 -1.93665e-10
-1.09446e-12 -1.70096e-10 -6.38197e-11
-2.69887e-11 -1.14303e-10 4.59145e-11
2.62722e-10 9.31839e-11 -1.46921e-10
-3.73719e-10 1.35449e-10 -3.3067e-10
2.38258e-11 5.32316e-11 -2.32079e-11
-5.2774e-11 -2.85804e-10 3.90218e-10
-7.85387e-11 -1.33502e-10 2.21811e-11
-1.4584e-11 -1.80637e-11 7.56164e-12
2.76203e-11 1.62754e-10 2.55489e-11
-2.90709e-10 3.28345e-10 -6.6084e-11
4.31729e-12 5.86491e-11 -2.32296e-12
-1.32569e-11 1.60269e-11 -3.91726e-12
-3.61917e-10 -4.65976e-11 1.50298e-11
5.14422e-11 -1.45929e-11 2.56264e-11
3.1884e-11 2.92728e-11 -5.15255e-11
-7.51876e-12 -1.21999e-10 2.97027e-11
1.15876e-10 -1.85199e-11 4.47391e-11
2.73183e-10 3.21279e-10 2.70387e-11
-5.4324e-11 -8.7593e-11 5.02506e-11
2.08561e-11 -3.55554e-12 -2.06767e-10
-2.34895e-11 1.50171e-10 8.03553e-11
2.04749e-11 -9.61676e-11 1.99983e-11
8.91781e-13 6.27103e-11 -2.58064e-11
8.74523e-11 -1.58051e-10 2.94819e-11
2.06127e-11 4.2067e-11 -1.81455e-10
2.52528e-11 2.6314e-10 -4.47119e-11
1.66786e-10 1.62244e-11 4.74264e-11
-4.23445e-11 5.50764e-11 7.85611e-11
-1.57692e-21 7.15847e-22 -1.40621e-23
0.0 0.0 0.0
-2.19438e-10 -2.81884e-10 4.50978e-11
2.58842e-11 -1.40013e-10 2.16264e-10
2.89107e-10 5.11139e-11 -1.48061e-11
-5.63286e-11 -2.203e-10 2.88471e-10
-5.92895e-11 -7.3225e-11 2.81354e-11
1.44009e-10 -5.85642e-11 8.08673e-12