# vtk DataFile Version 3.0
LIGGGHTS particles timestep 20800000
ASCII
DATASET POLYDATA
POINTS 287 float
0.134034 0.0160135 0.00796675
0.134579 0.0184471 0.00707105
0.128166 0.0168608 0.00755328
0.134373 0.0174946 0.00746992
0.133906 0.0158772 0.00815867
0.140071 0.0165471 0.00778373
0.13409 0.0166329 0.00776137
0.13381 0.0157252 0.00862403
0.14032 0.0176293 0.0072299
0.134029 0.0163541 0.00785272
0.134615 0.0178061 0.00730475
0.128038 0.0164011 0.00784843
0.133888 0.0158506 0.00825336
0.127778 0.0155259 0.00862692
0.134248 0.0169335 0.0076347
0.127757 0.015453 0.00869179
0.134009 0.0162627 0.00788747
0.140202 0.0170521 0.00734413
0.13387 0.0158294 0.00834951
0.134032 0.015943 0.00803764
0.13413 0.0168118 0.00768255
0.128172 0.0165757 0.00770108
0.140261 0.0173407 0.00728701
0.13407 0.0165377 0.00778467
0.140145 0.0168036 0.00748628
0.128323 0.0171785 0.00733109
0.134356 0.0173972 0.00748753
0.133849 0.0157897 0.00843878
0.134314 0.0172074 0.0075325
0.13411 0.0167201 0.00771672
0.134227 0.0168418 0.00766886
0.140091 0.0166093 0.00770799
0.133988 0.0161698 0.00791828
0.134206 0.0167501 0.00770302
0.140359 0.0178217 0.00719184
0.134165 0.0165664 0.00777025
0.13439 0.0171449 0.00755327
0.14028 0.0174369 0.00726797
0.133947 0.015999 0.00801452
0.134151 0.0169035 0.00764838
0.134415 0.0172356 0.00751934
0.140109 0.0166718 0.00763204
0.140182 0.016956 0.0073631
0.133968 0.0160884 0.00797279
0.134192 0.0170869 0.00758007
0.140169 0.0168824 0.00742946
0.134256 0.0173498 0.00748199
0.134238 0.0172708 0.0075404
0.128017 0.0163281 0.00791342
0.140222 0.0171483 0.00732511
0.134009 0.0158862 0.00811678
0.127822 0.0156718 0.00849717
0.134186 0.0166583 0.0077372
0.140127 0.0167343 0.00755614
0.134302 0.0167781 0.00768816
0.134322 0.0168704 0.00765568
0.133926 0.0159184 0.00806986
0.134432 0.017332 0.00748356
0.134438 0.0176309 0.00745942
0.140242 0.0172445 0.00730606
0.12831 0.0174121 0.00725166
0.128393 0.0173507 0.00726785
0.134516 0.0176917 0.00734947
0.134474 0.017522 0.00744252
0.134104 0.0162889 0.00786773
0.1403 0.0175331 0.00724893
0.1278 0.0155989 0.00856205
0.134443 0.017427 0.00744845
0.13405 0.0164459 0.00781881
0.134268 0.0170264 0.00760375
0.128304 0.0171056 0.0072653
0.134467 0.0180301 0.00722693
0.127865 0.0158176 0.00836751
0.128366 0.0172559 0.00728522
0.134296 0.0175334 0.00741362
0.128171 0.0169394 0.00748728
0.128097 0.0166207 0.00765256
0.128207 0.016383 0.00788136
0.140339 0.0177255 0.00721087
0.127982 0.0159172 0.00828729
0.13434 0.0173002 0.00750495
0.134281 0.0166858 0.00772062
0.134356 0.0176888 0.00744587
0.134316 0.0176044 0.00748123
0.134649 0.0178968 0.00727062
0.128058 0.0164743 0.00778313
0.134525 0.0177912 0.00734597
0.134357 0.0178087 0.00731109
0.134611 0.0181078 0.0071944
0.134446 0.01773 0.00742878
0.134551 0.0178786 0.00728004
0.127974 0.0161823 0.00804318
0.134337 0.0177199 0.00735279
0.128411 0.0174489 0.00727144
0.134523 0.0173701 0.00746703
0.128292 0.0169637 0.00747739
0.0643568 0.0187248 0.00531097
0.24257 0.0191927 0.00520306
0.128324 0.0168236 0.00748836
0.12793 0.0160364 0.0081729
0.12842 0.0168478 0.00747522
0.127887 0.0158905 0.00830264
0.134145 0.0164736 0.00780281
0.134215 0.0171841 0.00758503
0.134488 0.0184082 0.00708783
0.134446 0.0182131 0.00719649
0.127996 0.0162552 0.00797832
0.128594 0.0176489 0.00723673
0.128722 0.0174169 0.00723706
0.134287 0.0171173 0.00756627
0.134124 0.0163812 0.00783527
0.133989 0.0158476 0.00820672
0.128134 0.0167883 0.00761944
0.134343 0.0169622 0.00762149
0.13383 0.0157558 0.00853079
0.133791 0.0156891 0.0087152
0.134529 0.018241 0.00714794
0.128026 0.0160632 0.00815745
0.134316 0.0176252 0.00737944
0.133971 0.0158161 0.00829994
0.134172 0.0169952 0.00761422
0.127952 0.0161093 0.00810804
0.134276 0.0174416 0.0074478
0.134418 0.0178317 0.00738682
0.128191 0.0166488 0.00763578
0.128408 0.0175473 0.00728896
0.134392 0.0175634 0.00739995
0.134198 0.0163159 0.0078507
0.134363 0.0170547 0.00758704
0.133949 0.0157861 0.0083929
0.12796 0.0158442 0.00835219
0.134427 0.0180927 0.00729418
0.134083 0.0161967 0.0079002
0.134623 0.0182723 0.00713383
0.128004 0.0159902 0.00822242
0.128286 0.016677 0.007619
0.127909 0.0159635 0.00823777
0.128419 0.0172228 0.00720657
0.128323 0.0164818 0.00780183
0.127939 0.0157713 0.00841709
0.128153 0.0168405 0.00745617
0.134398 0.017997 0.00729221
0.128112 0.0163554 0.00789753
0.128603 0.0172886 0.00720281
0.128069 0.0162091 0.00802773
0.128248 0.0168687 0.00743934
0.128323 0.0171906 0.00721311
0.128229 0.0167954 0.00750486
0.0219312 0.0187687 0.00551176
0.128342 0.0168967 0.00742272
0.134412 0.0176552 0.00736577
0.128229 0.0171616 0.00723139
0.128266 0.0169419 0.00737393
0.1284 0.0175798 0.00719465
0.128511 0.0172607 0.00723163
0.134156 0.0161306 0.00791591
0.128091 0.0162823 0.00796259
0.128441 0.0169211 0.00741059
0.128574 0.0175517 0.00722365
0.128476 0.017072 0.00728437
0.134178 0.0162234 0.00788322
0.128648 0.0174845 0.00723037
0.134565 0.0180147 0.00722977
0.12838 0.0170501 0.0073
0.122217 0.0171149 0.00726876
0.128211 0.016722 0.00757047
0.128268 0.0173502 0.00717522
0.128614 0.0177461 0.00724981
0.128551 0.0174554 0.00720984
0.128191 0.0169963 0.00733759
0.134061 0.0161035 0.00793301
0.128458 0.0169941 0.00734441
0.134512 0.018011 0.0073141
0.128135 0.0167672 0.0075217
0.128171 0.0169138 0.00739063
0.134509 0.0172713 0.0075036
0.134472 0.0179363 0.00726115
0.134552 0.0174602 0.00743323
0.12239 0.017527 0.00716684
0.134424 0.0181155 0.00719685
0.128383 0.0167015 0.00760652
0.134261 0.0165934 0.00775308
0.128228 0.0164561 0.00781626
0.128668 0.0175817 0.00724349
0.127735 0.01538 0.00875666
0.122275 0.0174011 0.00720025
0.128217 0.0170127 0.00743262
0.128285 0.0170233 0.00731889
0.128077 0.0165475 0.00771784
0.128537 0.0178103 0.00725509
0.128401 0.0167762 0.00754252
0.134495 0.0176 0.00738363
0.128152 0.0165025 0.00776637
0.128364 0.0173834 0.0071686
0.128398 0.0171335 0.00724682
0.128048 0.0161362 0.00809259
0.128361 0.0169737 0.00736166
0.128133 0.0164286 0.00783231
0.134291 0.0175006 0.00752715
0.134457 0.0178435 0.00729553
0.128494 0.0171638 0.00724911
0.134486 0.0171693 0.00754163
0.134433 0.017748 0.00733118
0.12235 0.0173361 0.00721171
0.128248 0.0172545 0.00719739
0.134219 0.0164084 0.00781817
0.128441 0.0176412 0.00729799
0.134377 0.0179005 0.00727691
0.12821 0.0170782 0.00728341
0.12229 0.0170494 0.00728768
0.134239 0.0165013 0.00778555
0.128305 0.0167502 0.00755372
0.128116 0.0166938 0.00758725
0.134468 0.0183164 0.00712205
0.128628 0.0173874 0.00721716
0.122409 0.0176225 0.0071444
0.122236 0.0172101 0.00724512
0.128288 0.0173167 0.007272
0.128485 0.0179729 0.00724872
0.122198 0.0170337 0.00732398
0.128187 0.0163099 0.00794648
0.128266 0.0166038 0.00768431
0.13452 0.0181475 0.00718242
0.128449 0.0182272 0.00726727
0.128603 0.018101 0.00728288
0.128529 0.0181672 0.00727582
0.122023 0.0163022 0.00779847
0.12208 0.0165159 0.0075972
0.122004 0.0162381 0.00787286
0.128247 0.0165306 0.00774961
0.128215 0.0170984 0.00738118
0.122042 0.0163664 0.00772408
0.122161 0.0168542 0.0073995
0.128382 0.0174813 0.00718155
0.128499 0.0176182 0.00721639
0.122295 0.0174966 0.00717781
0.128343 0.0172864 0.00719092
0.134569 0.0183523 0.00710605
0.122334 0.0176875 0.00713294
0.122331 0.0172406 0.00723415
0.122139 0.0167698 0.00744877
0.127844 0.015747 0.00843496
0.128438 0.0173184 0.00718442
0.128323 0.0176424 0.0071872
0.128382 0.0177233 0.00728925
0.122354 0.0177829 0.0071105
0.128518 0.0175729 0.00730349
0.128506 0.0180696 0.00726217
0.128582 0.0180043 0.00726945
0.12212 0.0166852 0.00749824
0.128341 0.01774 0.00719961
0.122256 0.0173056 0.00722268
0.128584 0.0171913 0.00721564
0.128441 0.0177779 0.00722161
0.128244 0.017232 0.00730082
0.128305 0.0175448 0.00717449
0.134666 0.0180288 0.0072218
0.128533 0.0173577 0.00722072
0.122393 0.0179739 0.00706562
0.128384 0.0179362 0.00722681
0.122373 0.0178784 0.00708806
0.12842 0.0176791 0.00720794
0.128287 0.0174473 0.00716096
0.128406 0.0180337 0.00724037
0.128477 0.0175209 0.00722151
0.122179 0.0169391 0.00734979
0.12237 0.0174316 0.00718928
0.128572 0.0171034 0.0072634
0.122311 0.0171451 0.00725659
0.122062 0.0164385 0.00765765
0.128434 0.0180667 0.00733063
0.128463 0.0178747 0.007235
0.128362 0.0178387 0.00721325
0.128519 0.0177153 0.00722956
0.12839 0.0178722 0.00730344
0.128344 0.0165548 0.00773677
0.128364 0.016628 0.00767157
0.12856 0.0179076 0.007256
0.128166 0.0162369 0.00801147
0.128457 0.0174163 0.00718891
0.128471 0.0183239 0.00728072
0.122429 0.017718 0.00712196
0.128428 0.0181305 0.00725382
0.13446 0.0170769 0.00757528
0.122102 0.0166003 0.00754789
0.122314 0.017592 0.00715537
0.134626 0.0179882 0.00730431

VERTICES 287 574
1 0
1 1
1 2
1 3
1 4
1 5
1 6
1 7
1 8
1 9
1 10
1 11
1 12
1 13
1 14
1 15
1 16
1 17
1 18
1 19
1 20
1 21
1 22
1 23
1 24
1 25
1 26
1 27
1 28
1 29
1 30
1 31
1 32
1 33
1 34
1 35
1 36
1 37
1 38
1 39
1 40
1 41
1 42
1 43
1 44
1 45
1 46
1 47
1 48
1 49
1 50
1 51
1 52
1 53
1 54
1 55
1 56
1 57
1 58
1 59
1 60
1 61
1 62
1 63
1 64
1 65
1 66
1 67
1 68
1 69
1 70
1 71
1 72
1 73
1 74
1 75
1 76
1 77
1 78
1 79
1 80
1 81
1 82
1 83
1 84
1 85
1 86
1 87
1 88
1 89
1 90
1 91
1 92
1 93
1 94
1 95
1 96
1 97
1 98
1 99
1 100
1 101
1 102
1 103
1 104
1 105
1 106
1 107
1 108
1 109
1 110
1 111
1 112
1 113
1 114
1 115
1 116
1 117
1 118
1 119
1 120
1 121
1 122
1 123
1 124
1 125
1 126
1 127
1 128
1 129
1 130
1 131
1 132
1 133
1 134
1 135
1 136
1 137
1 138
1 139
1 140
1 141
1 142
1 143
1 144
1 145
1 146
1 147
1 148
1 149
1 150
1 151
1 152
1 153
1 154
1 155
1 156
1 157
1 158
1 159
1 160
1 161
1 162
1 163
1 164
1 165
1 166
1 167
1 168
1 169
1 170
1 171
1 172
1 173
1 174
1 175
1 176
1 177
1 178
1 179
1 180
1 181
1 182
1 183
1 184
1 185
1 186
1 187
1 188
1 189
1 190
1 191
1 192
1 193
1 194
1 195
1 196
1 197
1 198
1 199
1 200
1 201
1 202
1 203
1 204
1 205
1 206
1 207
1 208
1 209
1 210
1 211
1 212
1 213
1 214
1 215
1 216
1 217
1 218
1 219
1 220
1 221
1 222
1 223
1 224
1 225
1 226
1 227
1 228
1 229
1 230
1 231
1 232
1 233
1 234
1 235
1 236
1 237
1 238
1 239
1 240
1 241
1 242
1 243
1 244
1 245
1 246
1 247
1 248
1 249
1 250
1 251
1 252
1 253
1 254
1 255
1 256
1 257
1 258
1 259
1 260
1 261
1 262
1 263
1 264
1 265
1 266
1 267
1 268
1 269
1 270
1 271
1 272
1 273
1 274
1 275
1 276
1 277
1 278
1 279
1 280
1 281
1 282
1 283
1 284
1 285
1 286

POINT_DATA 287
SCALARS id int 1
LOOKUP_TABLE default
1
2
3
4
5
6
7
8
9
10
11
12
13
14
15
16
17
18
19
21
22
23
24
25
26
27
28
29
30
31
32
33
34
35
36
37
38
39
41
42
44
45
46
47
48
49
50
51
52
53
54
55
56
57
59
60
61
62
63
64
65
66
67
68
69
70
71
72
73
74
76
77
78
79
80
81
82
83
84
85
86
87
88
89
90
91
92
93
94
95
96
97
98
99
100
101
102
103
104
105
106
107
108
109
110
111
112
113
114
115
116
117
118
119
120
121
122
123
124
125
126
127
128
129
130
131
132
133
134
135
136
137
138
140
141
142
143
144
146
147
148
149
150
151
153
154
155
156
157
158
159
160
162
164
165
166
167
168
169
170
171
172
173
174
175
176
177
178
179
181
182
183
184
185
186
187
188
189
190
191
192
193
194
195
196
197
198
199
200
201
202
203
204
205
206
207
208
209
210
211
212
213
214
215
216
217
218
219
220
221
222
223
224
225
226
227
228
229
230
231
232
233
234
235
236
237
239
240
241
242
243
244
246
247
248
249
250
251
252
253
254
255
256
257
258
259
260
261
262
263
264
265
266
267
268
269
270
271
272
273
274
275
276
277
278
279
280
281
282
283
284
285
286
287
288
289
290
291
292
293
294
295
296
297
298
299
300

SCALARS type int 1
LOOKUP_TABLE default
1
1
1
1
1
1
1
1
1
1
1
1
1
1
1
1
1
1
1
1
1
1
1
1
1
1
1
1
1
1
1
1
1
1
1
1
1
1
1
1
1
1
1
1
1
1
1
1
1
1
1
1
1
1
1
1
1
1
1
1
1
1
1
1
1
1
1
1
1
1
1
1
1
1
1
1
1
1
1
1
1
1
1
1
1
1
1
1
1
1
1
1
1
1
1
1
1
1
1
1
1
1
1
1
1
1
1
1
1
1
1
1
1
1
1
1
1
1
1
1
1
1
1
1
1
1
1
1
1
1
1
1
1
1
1
1
1
1
1
1
1
1
1
1
1
1
1
1
1
1
1
1
1
1
1
1
1
1
1
1
1
1
1
1
1
1
1
1
1
1
1
1
1
1
1
1
1
1
1
1
1
1
1
1
1
1
1
1
1
1
1
1
1
1
1
1
1
1
1
1
1
1
1
1
1
1
1
1
1
1
1
1
1
1
1
1
1
1
1
1
1
1
1
1
1
1
1
1
1
1
1
1
1
1
1
1
1
1
1
1
1
1
1
1
1
1
1
1
1
1
1
1
1
1
1
1
1
1
1
1
1
1
1
1
1
1
1
1
1
1
1
1
1
1
1
1
1
1
1
1
1
1
1
1
1
1
1

SCALARS radius float 1
LOOKUP_TABLE default
5e-05
5e-05
5e-05
5e-05
5e-05
5e-05
5e-05
5e-05
5e-05
5e-05
5e-05
5e-05
5e-05
5e-05
5e-05
5e-05
5e-05
5e-05
5e-05
5e-05
5e-05
5e-05
5e-05
5e-05
5e-05
5e-05
5e-05
5e-05
5e-05
5e-05
5e-05
5e-05
5e-05
5e-05
5e-05
5e-05
5e-05
5e-05
5e-05
5e-05
5e-05
5e-05
5e-05
5e-05
5e-05
5e-05
5e-05
5e-05
5e-05
5e-05
5e-05
5e-05
5e-05
5e-05
5e-05
5e-05
5e-05
5e-05
5e-05
5e-05
5e-05
5e-05
5e-05
5e-05
5e-05
5e-05
5e-05
5e-05
5e-05
5e-05
5e-05
5e-05
5e-05
5e-05
5e-05
5e-05
5e-05
5e-05
5e-05
5e-05
5e-05
5e-05
5e-05
5e-05
5e-05
5e-05
5e-05
5e-05
5e-05
5e-05
5e-05
5e-05
5e-05
5e-05
5e-05
5e-05
5e-05
5e-05
5e-05
5e-05
5e-05
5e-05
5e-05
5e-05
5e-05
5e-05
5e-05
5e-05
5e-05
5e-05
5e-05
5e-05
5e-05
5e-05
5e-05
5e-05
5e-05
5e-05
5e-05
5e-05
5e-05
5e-05
5e-05
5e-05
5e-05
5e-05
5e-05
5e-05
5e-05
5e-05
5e-05
5e-05
5e-05
5e-05
5e-05
5e-05
5e-05
5e-05
5e-05
5e-05
5e-05
5e-05
5e-05
5e-05
5e-05
5e-05
5e-05
5e-05
5e-05
5e-05
5e-05
5e-05
5e-05
5e-05
5e-05
5e-05
5e-05
5e-05
5e-05
5e-05
5e-05
5e-05
5e-05
5e-05
5e-05
5e-05
5e-05
5e-05
5e-05
5e-05
5e-05
5e-05
5e-05
5e-05
5e-05
5e-05
5e-05
5e-05
5e-05
5e-05
5e-05
5e-05
5e-05
5e-05
5e-05
5e-05
5e-05
5e-05
5e-05
5e-05
5e-05
5e-05
5e-05
5e-05
5e-05
5e-05
5e-05
5e-05
5e-05
5e-05
5e-05
5e-05
5e-05
5e-05
5e-05
5e-05
5e-05
5e-05
5e-05
5e-05
5e-05
5e-05
5e-05
5e-05
5e-05
5e-05
5e-05
5e-05
5e-05
5e-05
5e-05
5e-05
5e-05
5e-05
5e-05
5e-05
5e-05
5e-05
5e-05
5e-05
5e-05
5e-05
5e-05
5e-05
5e-05
5e-05
5e-05
5e-05
5e-05
5e-05
5e-05
5e-05
5e-05
5e-05
5e-05
5e-05
5e-05
5e-05
5e-05
5e-05
5e-05
5e-05
5e-05
5e-05
5e-05
5e-05
5e-05
5e-05
5e-05
5e-05
5e-05
5e-05
5e-05
5e-05
5e-05
5e-05
5e-05
5e-05
5e-05
5e-05
5e-05
5e-05
5e-05
5e-05
5e-05
5e-05
5e-05
5e-05
5e-05
5e-05
5e-05
5e-05
5e-05
5e-05
5e-05
5e-05
5e-05

SCALARS mass float 1
LOOKUP_TABLE default
1.46608e-10
1.46608e-10
1.46608e-10
1.46608e-10
1.46608e-10
1.46608e-10
1.46608e-10
1.46608e-10
1.46608e-10
1.46608e-10
1.46608e-10
1.46608e-10
1.46608e-10
1.46608e-10
1.46608e-10
1.46608e-10
1.46608e-10
1.46608e-10
1.46608e-10
1.46608e-10
1.46608e-10
1.46608e-10
1.46608e-10
1.46608e-10
1.46608e-10
1.46608e-10
1.46608e-10
1.46608e-10
1.46608e-10
1.46608e-10
1.46608e-10
1.46608e-10
1.46608e-10
1.46608e-10
1.46608e-10
1.46608e-10
1.46608e-10
1.46608e-10
1.46608e-10
1.46608e-10
1.46608e-10
1.46608e-10
1.46608e-10
1.46608e-10
1.46608e-10
1.46608e-10
1.46608e-10
1.46608e-10
1.46608e-10
1.46608e-10
1.46608e-10
1.46608e-10
1.46608e-10
1.46608e-10
1.46608e-10
1.46608e-10
1.46608e-10
1.46608e-10
1.46608e-10
1.46608e-10
1.46608e-10
1.46608e-10
1.46608e-10
1.46608e-10
1.46608e-10
1.46608e-10
1.46608e-10
1.46608e-10
1.46608e-10
1.46608e-10
1.46608e-10
1.46608e-10
1.46608e-10
1.46608e-10
1.46608e-10
1.46608e-10
1.46608e-10
1.46608e-10
1.46608e-10
1.46608e-10
1.46608e-10
1.46608e-10
1.46608e-10
1.46608e-10
1.46608e-10
1.46608e-10
1.46608e-10
1.46608e-10
1.46608e-10
1.46608e-10
1.46608e-10
1.46608e-10
1.46608e-10
1.46608e-10
1.46608e-10
1.46608e-10
1.46608e-10
1.46608e-10
1.46608e-10
1.46608e-10
1.46608e-10
1.46608e-10
1.46608e-10
1.46608e-10
1.46608e-10
1.46608e-10
1.46608e-10
1.46608e-10
1.46608e-10
1.46608e-10
1.46608e-10
1.46608e-10
1.46608e-10
1.46608e-10
1.46608e-10
1.46608e-10
1.46608e-10
1.46608e-10
1.46608e-10
1.46608e-10
1.46608e-10
1.46608e-10
1.46608e-10
1.46608e-10
1.46608e-10
1.46608e-10
1.46608e-10
1.46608e-10
1.46608e-10
1.46608e-10
1.46608e-10
1.46608e-10
1.46608e-10
1.46608e-10
1.46608e-10
1.46608e-10
1.46608e-10
1.46608e-10
1.46608e-10
1.46608e-10
1.46608e-10
1.46608e-10
1.46608e-10
1.46608e-10
1.46608e-10
1.46608e-10
1.46608e-10
1.46608e-10
1.46608e-10
1.46608e-10
1.46608e-10
1.46608e-10
1.46608e-10
1.46608e-10
1.46608e-10
1.46608e-10
1.46608e-10
1.46608e-10
1.46608e-10
1.46608e-10
1.46608e-10
1.46608e-10
1.46608e-10
1.46608e-10
1.46608e-10
1.46608e-10
1.46608e-10
1.46608e-10
1.46608e-10
1.46608e-10
1.46608e-10
1.46608e-10
1.46608e-10
1.46608e-10
1.46608e-10
1.46608e-10
1.46608e-10
1.46608e-10
1.46608e-10
1.46608e-10
1.46608e-10
1.46608e-10
1.46608e-10
1.46608e-10
1.46608e-10
1.46608e-10
1.46608e-10
1.46608e-10
1.46608e-10
1.46608e-10
1.46608e-10
1.46608e-10
1.46608e-10
1.46608e-10
1.46608e-10
1.46608e-10
1.46608e-10
1.46608e-10
1.46608e-10
1.46608e-10
1.46608e-10
1.46608e-10
1.46608e-10
1.46608e-10
1.46608e-10
1.46608e-10
1.46608e-10
1.46608e-10
1.46608e-10
1.46608e-10
1.46608e-10
1.46608e-10
1.46608e-10
1.46608e-10
1.46608e-10
1.46608e-10
1.46608e-10
1.46608e-10
1.46608e-10
1.46608e-10
1.46608e-10
1.46608e-10
1.46608e-10
1.46608e-10
1.46608e-10
1.46608e-10
1.46608e-10
1.46608e-10
1.46608e-10
1.46608e-10
1.46608e-10
1.46608e-10
1.46608e-10
1.46608e-10
1.46608e-10
1.46608e-10
1.46608e-10
1.46608e-10
1.46608e-10
1.46608e-10
1.46608e-10
1.46608e-10
1.46608e-10
1.46608e-10
1.46608e-10
1.46608e-10
1.46608e-10
1.46608e-10
1.46608e-10
1.46608e-10
1.46608e-10
1.46608e-10
1.46608e-10
1.46608e-10
1.46608e-10
1.46608e-10
1.46608e-10
1.46608e-10
1.46608e-10
1.46608e-10
1.46608e-10
1.46608e-10
1.46608e-10
1.46608e-10
1.46608e-10
1.46608e-10
1.46608e-10
1.46608e-10
1.46608e-10
1.46608e-10
1.46608e-10
1.46608e-10
1.46608e-10
1.46608e-10
1.46608e-10
1.46608e-10
1.46608e-10
1.46608e-10
1.46608e-10
1.46608e-10
1.46608e-10
1.46608e-10
1.46608e-10
1.46608e-10
1.46608e-10
1.46608e-10
1.46608e-10

VECTORS velocity float
0.0058636 0.00112308 -0.000466985
0.00370456 0.00339002 -0.00134584
0.00538361 -0.000890234 0.00133119
0.00541493 0.000830821 -0.00051049
0.00645502 -0.000380783 -0.00191892
0.00588615 -0.000693598 0.000177419
0.00596988 0.000782385 -0.000515765
0.00621249 9.89002e-05 -0.00196162
0.00539738 -0.00039782 0.000373519
0.00589996 0.000790616 -0.00059702
0.00582959 0.000604088 -0.000385512
0.005551 -0.000825659 0.00129146
0.00629228 -0.000559564 -0.00200606
0.0057848 -0.000881819 0.0013661
0.00640339 0.000623667 -0.000396941
0.00579201 -0.000876429 0.00136187
0.00581764 0.000811681 -0.000735361
0.00557604 -0.00042893 0.000387074
0.00612492 -0.000689542 -0.00203244
0.0057058 0.00108427 -0.000572014
0.00578738 0.000871383 -0.000484396
0.00546657 -0.000827111 0.00128335
0.0053897 -0.000384324 0.000370384
0.00622303 0.000747242 -0.000492968
0.00549105 -0.000564876 0.000182794
0.0054499 -0.00120567 0.000496106
0.00570509 0.000674572 -0.000414465
0.00624017 -0.000972251 -0.00213905
0.00623067 0.000593601 -0.000385281
0.00563589 0.000864943 -0.000516733
0.00592424 0.000758298 -0.000440939
0.00575015 -0.000664898 0.000157697
0.00585704 0.000929342 -0.000647794
0.00578391 0.000844991 -0.000467692
0.00538365 -0.000392145 0.000371586
0.00627341 0.000722134 -0.00064686
0.0064295 0.000811648 -0.000480313
0.00538263 -0.000388648 0.000370852
0.00586841 0.000904999 -0.000552325
0.00608663 0.000844196 -0.000481182
0.00620337 0.000937665 -0.000510581
0.0056107 -0.000642029 0.000142153
0.0055671 -0.00043825 0.000392981
0.00585965 0.00112406 -0.000485456
0.00670714 0.000708969 -0.000381488
0.0055449 -0.000506729 0.00030775
0.00604193 0.000716934 -0.000381088
0.00641429 0.000719977 -0.00030113
0.00571946 -0.000843946 0.0013227
0.00555862 -0.000417871 0.000384641
0.00571323 0.000652873 -0.000940592
0.00577022 -0.000891772 0.00137389
0.00585849 0.000881067 -0.000451844
0.00551424 -0.0006213 0.000137864
0.00613557 0.000597808 -0.000721821
0.00651802 0.000611504 -0.000611765
0.00654082 2.4982e-05 -0.00166568
0.00588087 0.000744356 -0.000438156
0.00559397 0.000828761 -0.000355922
0.00541915 -0.000387898 0.000371995
0.0053358 -0.001193 0.000855997
0.00535732 -0.00123707 0.000369903
0.00562286 0.00085598 -0.000470221
0.00550365 0.000883296 -0.000435402
0.00593301 0.000788091 -0.000818911
0.00540175 -0.000397578 0.000373696
0.00577732 -0.000887298 0.00137038
0.00567705 0.000781901 -0.000446473
0.00609898 0.000782346 -0.000458245
0.00664656 0.000552605 -0.000815037
0.00531934 -0.00126257 0.000600208
0.00594612 0.000743548 -0.000440533
0.00575842 -0.000895007 0.00137579
0.00535457 -0.00124094 0.00033041
0.00565776 0.000759562 -0.000434648
0.0054647 -0.000811179 0.0012937
0.00549484 -0.000823686 0.00128169
0.00560478 -0.000626984 0.00111477
0.00539002 -0.000395593 0.000372635
0.00571781 -0.000896564 0.00137316
0.0059499 0.000647014 -0.000423198
0.00547878 0.000711901 -0.000702204
0.00568683 0.000752342 -0.000454209
0.00565488 0.000772892 -0.000439818
0.00585447 0.000637487 -0.000408933
0.00541096 -0.00081036 0.00126448
0.00579976 0.000793542 -0.000433318
0.00579899 0.000770292 -0.000446739
0.00611224 0.000719294 -0.000440727
0.00586839 0.000796958 -0.00045795
0.00585738 0.000633659 -0.000395696
0.00571233 -0.000851565 0.00133194
0.00576875 0.00077032 -0.000457622
0.00533189 -0.00126017 0.000804633
0.00554322 0.000683955 -0.000402632
0.00584385 -0.000144621 0.00095309
4.35698e-15 1.0453e-14 8.29614e-14
1.19201e-22 -3.03968e-22 -5.81428e-22
0.00528546 -0.000747966 0.00130469
0.00574565 -0.000879718 0.00136026
0.00529554 -0.000706555 0.00144133
0.00575098 -0.000893752 0.00137361
0.00599027 0.000446589 -0.000669884
0.00668634 0.000691157 -0.000282907
0.00588583 -0.000206569 -0.000105594
0.00600029 0.000747262 -0.000458875
0.00574608 -0.000847354 0.0013295
0.00548174 -0.00109615 0.000895079
0.00542146 -0.0010706 0.000879399
0.00648365 0.000438889 -0.000331005
0.00602522 0.000660479 -0.000696438
0.0059198 -0.000339324 -0.00128409
0.00534852 -0.000893451 0.00133801
0.00655724 0.000631672 -0.000437032
0.00624482 -0.000780524 -0.00223006
0.00634865 0.00143651 -0.00151416
0.00603589 0.000737642 -0.000423479
0.00576307 -0.000838959 0.00132461
0.00566564 0.000826554 -0.000466733
0.00589424 -0.000385508 -0.00154256
0.00646648 0.000735277 -0.000456981
0.00572917 -0.000865694 0.00134588
0.00569594 0.000765269 -0.000435967
0.00581171 0.000716149 -0.000433688
0.00548587 -0.000840017 0.00129405
0.00535346 -0.00130116 0.000833236
0.00550386 0.000764172 -0.000488959
0.00603473 0.000735987 -0.000755513
0.00663665 0.000737195 -0.000444389
0.00599518 -0.000432429 -0.00151938
0.00575417 -0.000894358 0.00137463
0.00590643 0.000805853 -0.000485229
0.00591969 0.000852433 -0.000780478
0.00597794 0.000887677 -0.000494555
0.00574141 -0.000893238 0.00137237
0.00546645 -0.000818291 0.00128908
0.00574478 -0.00088794 0.00136785
0.0053176 -0.00123976 0.000345335
0.00558601 -0.000829982 0.00129724
0.00576056 -0.000895521 0.00137632
0.00539113 -0.000874673 0.00132314
0.00582423 0.000722259 -0.000580519
0.00566971 -0.000732317 0.00121805
0.00530086 -0.00115507 0.000856051
0.00571693 -0.000851884 0.00133249
0.00537853 -0.000859435 0.00130292
0.00533791 -0.00119533 0.000342786
0.00532376 -0.000866425 0.00130389
-3.83289e-14 8.16538e-14 2.95892e-13
0.00523944 -0.000794691 0.00123276
0.00570762 0.000704744 -0.000427849
0.00533715 -0.00122469 0.000680043
0.0054273 -0.000847175 0.00131347
0.00535152 -0.00120609 0.000846341
0.0052739 -0.00106653 0.000870464
0.00584395 0.00111173 -0.000870163
0.00580002 -0.000746258 0.00124327
0.00521838 -0.000621307 0.00150821
0.00548029 -0.00108626 0.000897916
0.00530733 -0.00108147 0.000937197
0.00594048 0.000738097 -0.000735449
0.00542991 -0.00108301 0.000880681
0.0059333 0.000696206 -0.000429388
0.005306 -0.00118392 0.000747751
0.00567973 0.000281116 -0.000301073
0.00538062 -0.000851882 0.00127808
0.00535666 -0.00127582 0.000354201
0.00549984 -0.00111755 0.000890856
0.00546198 -0.00108067 0.000897494
0.00543454 -0.00103597 0.00103154
0.00592054 0.00100857 -0.000772237
0.00519699 -0.000822268 0.00126667
0.00592322 0.000701399 -0.000448043
0.00534274 -0.000904519 0.00134212
0.00546913 -0.000834486 0.00129297
0.00602062 0.000678266 -0.000427423
0.00589774 0.000735602 -0.000433065
0.00539039 0.000723798 -0.000407053
0.00567245 0.000257722 -0.000302584
0.00595854 0.000749094 -0.000458237
0.00547207 -0.000856865 0.00130282
0.00536662 0.000708863 -0.000697968
0.00550131 -0.000627897 0.0011063
0.00546024 -0.00109371 0.000884848
0.00579902 -0.000872624 0.00135903
0.00568981 0.000265124 -0.000305133
0.00558805 -0.00055807 0.000907273
0.00531906 -0.00118623 0.000708133
0.00543004 -0.000812058 0.00126704
0.00551492 -0.00112492 0.000891396
0.00539258 -0.00081021 0.00135188
0.00550057 0.000892595 -0.00047159
0.00538543 -0.000828111 0.00127809
0.00529344 -0.00123609 0.000839361
0.0052617 -0.0011018 0.000613724
0.00571844 -0.000843687 0.00132462
0.00526006 -0.000954873 0.00102573
0.00551656 -0.000682962 0.00115797
0.00605232 -0.000680942 0.000580149
0.00585779 0.000767916 -0.000441429
0.00522124 -0.00108852 0.000830275
0.00606175 0.00269294 -0.00115529
0.00580015 0.000778699 -0.000452514
0.00569418 0.000265019 -0.00030524
0.00535929 -0.0012287 0.000342462
0.00609173 0.000524982 -0.000704307
0.00527217 -0.00129018 0.000830361
0.00586269 0.000770173 -0.000446944
0.0053002 -0.00119849 0.00066289
0.00567159 0.000349181 -5.05869e-05
0.00588709 0.000601679 -0.000704133
0.00537713 -0.000776322 0.00131176
0.00532097 -0.000773117 0.00123362
0.00600711 0.00065167 -0.000417414
0.00541813 -0.00109374 0.000879344
0.00566335 0.000256142 -0.000301856
0.00567848 0.000279129 -0.000306756
0.00530888 -0.00120551 0.000774033
0.00551501 -0.00115896 0.000888494
0.00561182 0.000365535 -0.000194381
0.00583079 -0.000626301 0.00113614
0.00546792 -0.000829856 0.00129087
0.00607025 0.000720881 -0.000433787
0.00546892 -0.00118001 0.000878314
0.00550424 -0.00112515 0.000890084
0.00548489 -0.00115178 0.000883723
0.00584489 -6.10644e-07 -0.000376624
0.00571176 0.000376593 -4.69992e-05
0.0057742 1.32355e-05 -0.000394508
0.00539426 -0.000844839 0.00129248
0.00532349 -0.000761277 0.000558812
0.00587443 -8.84645e-06 -0.000367937
0.00568395 0.000375178 -6.41002e-05
0.00531611 -0.00122194 0.000828425
0.00541698 -0.00111454 0.000873939
0.00568265 0.000260658 -0.000303735
0.00535396 -0.00124645 0.0003474
0.00590828 0.000265134 -0.000264286
0.00566195 0.000253865 -0.000301239
0.00568384 0.000267798 -0.000305456
0.00572243 0.000366026 -5.60256e-05
0.00576496 -0.000894998 0.00137669
0.00536981 -0.00124532 0.000357717
0.00525072 -0.00133045 0.000790328
0.00520023 -0.00133288 0.000803114
0.00565411 0.000252929 -0.00030074
0.00535051 -0.00120181 0.000847453
0.00549373 -0.00115839 0.000886104
0.00551599 -0.00113319 0.000891332
0.0057455 0.000362193 -5.33373e-05
0.00519818 -0.00134001 0.000804048
0.00568672 0.000271851 -0.000306734
0.0050622 -0.00118312 0.000330513
0.0055262 -0.0011257 0.000893503
0.0053189 -0.00124385 0.000704643
0.00533112 -0.00119459 0.000756888
0.00602251 0.000651584 -0.000406829
0.0053893 -0.00107088 0.00090879
0.00563615 0.000254158 -0.000300246
0.00552684 -0.00114226 0.000893747
0.00564528 0.000253617 -0.000300559
0.0052181 -0.00133907 0.000818479
0.00531986 -0.00122003 0.000846638
0.00550153 -0.00118149 0.00088349
0.00543258 -0.00110223 0.000873888
0.00566682 0.000383788 -6.68761e-05
0.00568821 0.000265871 -0.000305101
0.00534366 -0.00102688 0.000576609
0.00568015 0.000284706 -0.000309112
0.00577747 0.00020327 -0.000204115
0.00548705 -0.00117711 0.000882372
0.00553031 -0.00113167 0.00089357
0.00553684 -0.00114021 0.000894699
0.00549185 -0.00114081 0.000886814
0.00553504 -0.00114517 0.000894031
0.00555833 -0.000834466 0.00129899
0.00553146 -0.00084418 0.00130795
0.00552118 -0.00113557 0.000892227
0.00591642 -0.000625375 0.00114351
0.00530801 -0.00125339 0.000824059
0.00545576 -0.00117639 0.000876141
0.0056586 0.00025722 -0.000301905
0.00548433 -0.00118223 0.000880998
0.00697923 0.00121305 -0.00098437
0.00572426 0.000369429 -5.85141e-05
0.00567264 0.000256851 -0.000302425
0.0059148 0.0006581 -0.000435599

VECTORS force float
6.3549e-10 4.80872e-10 -4.29231e-10
-4.45426e-10 2.40408e-11 3.7423e-12
2.37781e-13 5.71298e-11 -1.33151e-10
3.77056e-10 -8.48227e-10 1.36458e-09
-4.3232e-11 -1.16953e-09 1.94936e-09
5.71078e-11 -3.00878e-12 -1.4976e-11
2.46377e-10 6.28495e-10 -5.09992e-10
-1.47832e-09 6.18263e-11 5.21684e-09
1.56145e-11 4.00511e-11 -7.07619e-12
9.18007e-10 3.96898e-10 -1.22622e-09
3.33115e-11 8.26716e-10 -2.95145e-10
1.41421e-11 9.22804e-11 -1.14654e-10
4.44813e-10 -2.23425e-11 1.79765e-09
-1.85869e-11 -6.44238e-11 5.72165e-11
-3.26411e-10 -5.77147e-10 2.41433e-10
-1.71964e-11 -6.0662e-11 5.4004e-11
5.83502e-10 6.61906e-10 9.37989e-10
-8.92305e-11 -1.71696e-10 4.02208e-11
-3.08119e-10 8.97834e-10 7.72557e-10
6.98858e-10 1.00378e-10 -4.04486e-10
-1.16463e-09 1.64332e-11 8.46963e-11
-1.0504e-10 -1.1561e-11 3.84407e-12
2.09199e-11 1.39741e-11 -7.87437e-12
3.72642e-10 6.78446e-10 1.17896e-10
2.19857e-11 9.5535e-11 -1.18498e-10
1.7038e-10 -1.59834e-10 5.27193e-11
1.5468e-09 2.87102e-10 1.85975e-10
8.87053e-11 -1.38922e-09 -2.59143e-09
3.54904e-10 -7.90558e-10 5.33951e-11
4.73063e-10 -4.94274e-10 -1.07843e-09
-4.74666e-10 1.20972e-11 -3.51982e-10
-9.10646e-11 -4.94592e-11 2.67802e-11
-4.69358e-10 -1.12051e-10 3.22001e-10
2.65068e-09 -7.65842e-10 7.55869e-10
-8.41967e-12 -4.9886e-11 1.01373e-11
-2.78573e-10 4.07691e-10 4.81893e-10
-1.65279e-10 1.27471e-10 1.29244e-10
1.23812e-10 2.99474e-11 4.70767e-12
7.72726e-10 -7.23487e-10 -5.09525e-10
-1.09679e-09 -3.19848e-10 -1.4182e-10
1.02834e-09 -3.08607e-10 -2.4196e-10
7.69683e-11 -5.28547e-11 8.79231e-11
7.94948e-11 -1.84183e-10 -6.54428e-11
3.77626e-10 -9.10264e-11 -4.24578e-11
2.96503e-10 -9.75551e-10 -8.76346e-11
7.64232e-10 -2.017e-10 -1.66842e-10
-6.64724e-10 -1.2956e-09 2.40759e-10
-1.13886e-09 -1.25768e-09 4.67959e-10
-4.39853e-11 1.01128e-10 -1.04597e-10
-2.57699e-11 -1.54407e-10 5.32165e-11
-3.43804e-10 -4.43528e-10 6.85389e-10
-2.11811e-11 -4.27245e-11 3.7182e-11
7.84961e-10 -1.92934e-10 1.74184e-10
-1.45719e-10 1.01346e-10 -1.6531e-11
5.16219e-10 -5.64966e-11 -6.65389e-10
8.05733e-10 6.54e-10 -6.9249e-10
-8.41996e-10 -5.38645e-10 1.73188e-09
1.40795e-09 2.04863e-09 1.68347e-10
4.48359e-10 -6.80511e-10 -3.29882e-10
1.34549e-10 -8.25963e-11 1.71917e-11
3.06896e-11 3.99046e-11 -1.85485e-10
-3.29909e-10 -1.03163e-10 5.59387e-10
3.06659e-10 3.32842e-10 2.69074e-11
5.85681e-10 -9.27925e-10 3.08187e-10
1.48474e-11 5.8494e-10 -2.57485e-10
1.44928e-11 5.62361e-11 -1.14424e-11
-1.31953e-11 -5.74536e-11 5.24244e-11
1.39538e-09 -5.84839e-10 -1.15724e-10
8.5525e-10 1.37262e-10 -4.48066e-10
-6.27833e-10 -6.23211e-10 2.02337e-09
8.45199e-11 1.09772e-10 -1.06773e-10