# vtk DataFile Version 3.0
LIGGGHTS particles timestep 50800000
ASCII
DATASET POLYDATA
POINTS 275 float
0.309484 0.0182621 0.00691528
0.309148 0.0171032 0.00727577
0.309297 0.0169799 0.0073253
0.308757 0.0156024 0.00836183
0.315025 0.0166813 0.00767309
0.309438 0.0176323 0.007115
0.309137 0.0167122 0.00750643
0.315228 0.0174776 0.00721543
0.309234 0.0167358 0.00748587
0.30938 0.0180297 0.0070777
0.303457 0.0173051 0.00720731
0.308739 0.0155764 0.00845687
0.303434 0.0178614 0.00708218
0.303633 0.0181395 0.0069417
0.309094 0.0165563 0.00762518
0.308723 0.0155501 0.00855195
0.309479 0.0178198 0.00705643
0.309255 0.0168136 0.00742661
0.303594 0.0179471 0.00697962
0.315146 0.0170936 0.00726567
0.308854 0.0159886 0.00805996
0.315187 0.017284 0.0072223
0.303142 0.0167282 0.00751145
0.309222 0.0170406 0.00729749
0.308705 0.0155236 0.00864674
0.308935 0.0163019 0.0078249
0.309513 0.0175695 0.00713686
0.308874 0.0160666 0.00800062
0.315045 0.0167434 0.00759722
0.308834 0.0159107 0.00811947
0.309398 0.0174453 0.00717338
0.315284 0.0177705 0.00724717
0.309275 0.0168918 0.0073671
0.309358 0.0172583 0.00723177
0.315167 0.0171872 0.00723739
0.308795 0.0157545 0.00823812
0.309392 0.0170085 0.00731201
0.309453 0.017289 0.00722443
0.315064 0.0168055 0.00752134
0.308815 0.0158334 0.00817982
0.309347 0.0180383 0.00698342
0.315247 0.0175751 0.0072261
0.308894 0.0161448 0.00794172
0.309533 0.017663 0.00710767
0.303514 0.0175662 0.00707126
0.315104 0.0169296 0.0073696
0.309707 0.0180718 0.00698154
0.303343 0.01719 0.00726923
0.309687 0.0179774 0.00701121
0.315084 0.0168675 0.00744553
0.378022 0.019866 0.005332
0.309473 0.0173825 0.00719524
0.308777 0.0156764 0.00829757
0.309378 0.0173518 0.00720258
0.309367 0.0181319 0.00695397
0.315125 0.0170055 0.00730816
0.303267 0.0172488 0.00724042
0.303382 0.0180262 0.00704884
0.309498 0.0179139 0.00702687
0.309283 0.0173211 0.00720991
0.309573 0.0178515 0.00704865
0.315207 0.0173803 0.00720457
0.303672 0.0183324 0.0069037
0.309537 0.0181018 0.00696777
0.309371 0.0169157 0.00734629
0.308916 0.0162221 0.00788217
0.303282 0.0169286 0.00740557
0.309168 0.0171966 0.0072465
0.302721 0.0155635 0.00857277
0.303597 0.0183968 0.00688968
0.309243 0.0171341 0.0072683
0.303456 0.0179599 0.007063
0.303476 0.0173922 0.00716194
0.315266 0.0176728 0.00723664
0.303465 0.0186248 0.00686502
0.309432 0.0171955 0.00725362
0.309202 0.0169473 0.00732733
0.309344 0.0176015 0.00712234
0.309478 0.0179908 0.00708742
0.309518 0.0180081 0.00699724
0.303438 0.0172179 0.00725282
0.309269 0.0176641 0.00710055
0.308999 0.0165359 0.00764858
0.309422 0.0181471 0.00703614
0.309343 0.0177726 0.00715388
0.309248 0.0175706 0.00712974
0.302799 0.015816 0.00827265
0.308977 0.0164557 0.00770435
0.303289 0.0177541 0.00701364
0.309459 0.0177258 0.00708581
0.303309 0.0178512 0.0069945
0.0643568 0.0187248 0.00531097
0.24257 0.0191927 0.00520306
0.303652 0.018236 0.0069227
0.302933 0.0159679 0.00810243
0.303306 0.0174228 0.00714968
0.30274 0.0156259 0.00849724
0.309593 0.0179458 0.00701899
0.309668 0.0178834 0.00704077
0.309127 0.0170097 0.00730488
0.309085 0.0168453 0.00741018
0.303088 0.0168931 0.00753741
0.303192 0.0173084 0.00721122
0.30325 0.0175696 0.00707553
0.309412 0.017102 0.00728281
0.309423 0.0179762 0.00700512
0.309418 0.0175388 0.00714419
0.303381 0.0173641 0.00717842
0.309612 0.0180397 0.00698945
0.309212 0.0166581 0.00754504
0.309503 0.0183558 0.00688579
0.309228 0.0174771 0.00715893
0.303616 0.0184932 0.00687068
0.309116 0.0166342 0.00756579
0.309323 0.0175081 0.00715153
0.302779 0.0157509 0.008346
0.308956 0.016378 0.00776355
0.309349 0.0179218 0.00710808
0.303344 0.0176003 0.00706636
0.303365 0.0176933 0.00703569
0.309317 0.0170713 0.00729015
0.309442 0.0180702 0.00697556
0.309404 0.0178823 0.00703466
0.309554 0.0177571 0.00707827
0.303323 0.0171025 0.00731483
0.309458 0.017897 0.00711704
0.309309 0.017851 0.00704217
0.309188 0.0172901 0.00721731
0.303151 0.0164017 0.00766134
0.303554 0.0177545 0.00701755
0.30276 0.0156885 0.00842159
0.30342 0.0175382 0.00708764
0.302818 0.0158817 0.00819987
0.303325 0.0175103 0.00710514
0.303173 0.0164906 0.00762108
0.309042 0.0166887 0.00752689
0.303446 0.0185269 0.0068713
0.303443 0.0180761 0.00695153
0.303195 0.0165795 0.00758074
0.302913 0.0159011 0.00817419
0.303127 0.0170498 0.00744702
0.303131 0.0163218 0.00771789
0.0219312 0.0187687 0.00551176
0.303238 0.0167554 0.00749601
0.309338 0.0171648 0.00726096
0.303328 0.0179474 0.00697555
0.303407 0.0181284 0.00702875
0.302897 0.0161494 0.0079121
0.303482 0.0182686 0.00691361
0.309328 0.0179447 0.00701286
0.303407 0.018333 0.00689959
0.303521 0.0184616 0.00687846
0.303426 0.0184293 0.00688061
0.303502 0.0183649 0.00689464
0.309556 0.0181965 0.00693801
0.303173 0.0172214 0.0072566
0.309517 0.018179 0.00702812
0.302938 0.0162836 0.0077681
0.303248 0.0171626 0.00728733
0.302838 0.0159483 0.00812787
0.303339 0.0178316 0.00708777
0.303348 0.0180442 0.00695649
0.309579 0.0182945 0.00690725
0.30323 0.0174824 0.00712049
0.309443 0.0182431 0.00700443
0.303439 0.0176262 0.00704177
0.303485 0.0187227 0.0068588
0.309462 0.018164 0.00694606
0.309303 0.0174146 0.00718072
0.309424 0.0184135 0.00686541
0.297427 0.0184343 0.00692812
0.309063 0.0167665 0.00746777
0.303211 0.0173954 0.00716586
0.309631 0.018134 0.00695981
0.30348 0.0180616 0.0070433
0.303538 0.0181077 0.00694664
0.303499 0.0179153 0.00698455
0.29711 0.0169787 0.00743985
0.303495 0.0174792 0.00711657
0.303326 0.0179304 0.00707404
0.302894 0.0158351 0.0082467
0.303558 0.0182041 0.00692765
0.30326 0.0168419 0.00745085
0.309384 0.0177886 0.00706395
0.303613 0.0180433 0.00696066
0.303076 0.0164615 0.00763231
0.30312 0.0166396 0.00755224
0.302992 0.0161683 0.00788729
0.303534 0.0176579 0.00703658
0.303362 0.0172771 0.00722381
0.309159 0.0167898 0.00744728
0.309181 0.0168678 0.00738846
0.303577 0.0183005 0.00690866
0.309405 0.0183193 0.00689505
0.309263 0.0172276 0.00723911
0.29733 0.0179577 0.00704418
0.302972 0.0161015 0.00795897
0.309651 0.0182287 0.00693004
0.303269 0.0176578 0.0070326
0.30902 0.016611 0.00758609
0.303384 0.0177875 0.0070084
0.309493 0.017476 0.00716605
0.303163 0.016816 0.00746866
0.309106 0.0169254 0.00735438
0.303574 0.0178507 0.0069986
0.297349 0.018053 0.00702099
0.297293 0.0177668 0.00709073
0.303541 0.0185589 0.00686606
0.303067 0.016788 0.00748238
0.303518 0.0181774 0.00701567
0.303388 0.0182368 0.00691855
0.309208 0.0173836 0.00718812
0.303023 0.0166102 0.00756298
0.303132 0.0170477 0.00734718
0.303153 0.0171344 0.00730196
0.297005 0.0166284 0.00778088
0.297068 0.0168386 0.00757625
0.296984 0.0165584 0.0078491
0.30311 0.0162551 0.0077895
0.303479 0.0178191 0.0070035
0.297026 0.0166985 0.00771267
0.297208 0.0173868 0.00718308
0.302959 0.0163504 0.00769676
0.303313 0.0177374 0.00710915
0.297152 0.017125 0.00731055
0.303034 0.0163041 0.00774668
0.309364 0.017695 0.00709315
0.297229 0.0174819 0.00715994
0.297407 0.0183389 0.00695135
0.29717 0.0172069 0.00725614
0.302701 0.015501 0.00864838
0.303747 0.0182679 0.00691773
0.303217 0.0166684 0.00754047
0.303412 0.0177622 0.00710114
0.29725 0.017577 0.00713684
0.303463 0.0181723 0.00693258
0.303228 0.0170748 0.00733117
0.303267 0.0176518 0.0071324
0.297131 0.0170488 0.00737163
0.302858 0.0160153 0.00805602
0.297446 0.0185297 0.00690488
0.303404 0.0178837 0.00698945
0.303056 0.0163771 0.00768187
0.303401 0.0174512 0.00713305
0.30346 0.0177229 0.00702245
0.309323 0.0176789 0.00718308
0.303368 0.0181406 0.0069375
0.29731 0.0178624 0.00706738
0.303099 0.0165506 0.00759264
0.29727 0.0176722 0.00711368
0.302917 0.0162168 0.00783978
0.303013 0.0162351 0.00781568
0.30298 0.0164324 0.00764358
0.303287 0.017336 0.00719555
0.297483 0.0182759 0.00696954
0.297369 0.0181483 0.0069978
0.303424 0.0179799 0.00697048
0.297047 0.0167685 0.00764446
0.303089 0.0168755 0.00743899
0.303185 0.0169023 0.00742307
0.302877 0.0160822 0.00798429
0.303045 0.0166992 0.00752277
0.303518 0.0180115 0.00696559
0.302953 0.0160347 0.00803072
0.303303 0.0170154 0.00736028
0.303574 0.0180167 0.00704865
0.303442 0.0182446 0.00700201
0.303207 0.0169881 0.00737641
0.30311 0.0169616 0.00739316
0.297388 0.0182436 0.00697459
0.303002 0.0165213 0.00760328
0.309386 0.0182256 0.00692453
0.297089 0.0169086 0.00750806
0.297188 0.0172917 0.00720618
0.309289 0.0177576 0.00707136

VERTICES 275 550
1 0
1 1
1 2
1 3
1 4
1 5
1 6
1 7
1 8
1 9
1 10
1 11
1 12
1 13
1 14
1 15
1 16
1 17
1 18
1 19
1 20
1 21
1 22
1 23
1 24
1 25
1 26
1 27
1 28
1 29
1 30
1 31
1 32
1 33
1 34
1 35
1 36
1 37
1 38
1 39
1 40
1 41
1 42
1 43
1 44
1 45
1 46
1 47
1 48
1 49
1 50
1 51
1 52
1 53
1 54
1 55
1 56
1 57
1 58
1 59
1 60
1 61
1 62
1 63
1 64
1 65
1 66
1 67
1 68
1 69
1 70
1 71
1 72
1 73
1 74
1 75
1 76
1 77
1 78
1 79
1 80
1 81
1 82
1 83
1 84
1 85
1 86
1 87
1 88
1 89
1 90
1 91
1 92
1 93
1 94
1 95
1 96
1 97
1 98
1 99
1 100
1 101
1 102
1 103
1 104
1 105
1 106
1 107
1 108
1 109
1 110
1 111
1 112
1 113
1 114
1 115
1 116
1 117
1 118
1 119
1 120
1 121
1 122
1 123
1 124
1 125
1 126
1 127
1 128
1 129
1 130
1 131
1 132
1 133
1 134
1 135
1 136
1 137
1 138
1 139
1 140
1 141
1 142
1 143
1 144
1 145
1 146
1 147
1 148
1 149
1 150
1 151
1 152
1 153
1 154
1 155
1 156
1 157
1 158
1 159
1 160
1 161
1 162
1 163
1 164
1 165
1 166
1 167
1 168
1 169
1 170
1 171
1 172
1 173
1 174
1 175
1 176
1 177
1 178
1 179
1 180
1 181
1 182
1 183
1 184
1 185
1 186
1 187
1 188
1 189
1 190
1 191
1 192
1 193
1 194
1 195
1 196
1 197
1 198
1 199
1 200
1 201
1 202
1 203
1 204
1 205
1 206
1 207
1 208
1 209
1 210
1 211
1 212
1 213
1 214
1 215
1 216
1 217
1 218
1 219
1 220
1 221
1 222
1 223
1 224
1 225
1 226
1 227
1 228
1 229
1 230
1 231
1 232
1 233
1 234
1 235
1 236
1 237
1 238
1 239
1 240
1 241
1 242
1 243
1 244
1 245
1 246
1 247
1 248
1 249
1 250
1 251
1 252
1 253
1 254
1 255
1 256
1 257
1 258
1 259
1 260
1 261
1 262
1 263
1 264
1 265
1 266
1 267
1 268
1 269
1 270
1 271
1 272
1 273
1 274

POINT_DATA 275
SCALARS id int 1
LOOKUP_TABLE default
1
2
4
5
6
7
8
9
10
11
12
13
14
16
17
19
21
22
23
24
25
26
27
28
29
30
31
32
33
34
35
36
37
38
39
41
42
44
45
47
48
49
50
51
52
53
54
55
56
57
59
60
61
62
63
64
65
66
67
68
69
70
71
72
73
74
76
77
78
79
80
82
83
84
85
86
87
88
89
90
91
92
93
94
95
96
97
98
99
100
101
102
103
104
105
106
107
108
109
110
111
112
113
114
115
116
117
118
119
120
121
122
123
124
125
127
128
129
130
131
132
133
134
135
136
137
138
140
141
142
143
144
146
147
148
149
150
151
153
154
155
156
157
158
159
160
162
164
165
166
167
168
169
170
171
172
173
174
176
177
178
179
182
183
184
185
186
187
188
189
190
191
192
193
194
195
196
197
198
199
200
201
202
203
204
205
206
207
208
209
210
211
212
213
214
215
216
217
218
219
220
222
224
225
226
227
228
229
230
232
233
234
235
236
237
239
240
241
242
243
244
246
247
248
249
250
251
252
253
254
255
256
257
258
259
260
261
262
263
264
265
266
267
268
269
270
271
272
273
274
275
276
277
278
279
280
281
283
284
285
286
287
288
289
290
291
292
293
294
295
296
297
298
299
300

SCALARS type int 1
LOOKUP_TABLE default
1
1
1
1
1
1
1
1
1
1
1
1
1
1
1
1
1
1
1
1
1
1
1
1
1
1
1
1
1
1
1
1
1
1
1
1
1
1
1
1
1
1
1
1
1
1
1
1
1
1
1
1
1
1
1
1
1
1
1
1
1
1
1
1
1
1
1
1
1
1
1
1
1
1
1
1
1
1
1
1
1
1
1
1
1
1
1
1
1
1
1
1
1
1
1
1
1
1
1
1
1
1
1
1
1
1
1
1
1
1
1
1
1
1
1
1
1
1
1
1
1
1
1
1
1
1
1
1
1
1
1
1
1
1
1
1
1
1
1
1
1
1
1
1
1
1
1
1
1
1
1
1
1
1
1
1
1
1
1
1
1
1
1
1
1
1
1
1
1
1
1
1
1
1
1
1
1
1
1
1
1
1
1
1
1
1
1
1
1
1
1
1
1
1
1
1
1
1
1
1
1
1
1
1
1
1
1
1
1
1
1
1
1
1
1
1
1
1
1
1
1
1
1
1
1
1
1
1
1
1
1
1
1
1
1
1
1
1
1
1
1
1
1
1
1
1
1
1
1
1
1
1
1
1
1
1
1
1
1
1
1
1
1
1
1
1
1
1
1
1
1
1
1
1
1

SCALARS radius float 1
LOOKUP_TABLE default
5e-05
5e-05
5e-05
5e-05
5e-05
5e-05
5e-05
5e-05
5e-05
5e-05
5e-05
5e-05
5e-05
5e-05
5e-05
5e-05
5e-05
5e-05
5e-05
5e-05
5e-05
5e-05
5e-05
5e-05
5e-05
5e-05
5e-05
5e-05
5e-05
5e-05
5e-05
5e-05
5e-05
5e-05
5e-05
5e-05
5e-05
5e-05
5e-05
5e-05
5e-05
5e-05
5e-05
5e-05
5e-05
5e-05
5e-05
5e-05
5e-05
5e-05
5e-05
5e-05
5e-05
5e-05
5e-05
5e-05
5e-05
5e-05
5e-05
5e-05
5e-05
5e-05
5e-05
5e-05
5e-05
5e-05
5e-05
5e-05
5e-05
5e-05
5e-05
5e-05
5e-05
5e-05
5e-05
5e-05
5e-05
5e-05
5e-05
5e-05
5e-05
5e-05
5e-05
5e-05
5e-05
5e-05
5e-05
5e-05
5e-05
5e-05
5e-05
5e-05
5e-05
5e-05
5e-05
5e-05
5e-05
5e-05
5e-05
5e-05
5e-05
5e-05
5e-05
5e-05
5e-05
5e-05
5e-05
5e-05
5e-05
5e-05
5e-05
5e-05
5e-05
5e-05
5e-05
5e-05
5e-05
5e-05
5e-05
5e-05
5e-05
5e-05
5e-05
5e-05
5e-05
5e-05
5e-05
5e-05
5e-05
5e-05
5e-05
5e-05
5e-05
5e-05
5e-05
5e-05
5e-05
5e-05
5e-05
5e-05
5e-05
5e-05
5e-05
5e-05
5e-05
5e-05
5e-05
5e-05
5e-05
5e-05
5e-05
5e-05
5e-05
5e-05
5e-05
5e-05
5e-05
5e-05
5e-05
5e-05
5e-05
5e-05
5e-05
5e-05
5e-05
5e-05
5e-05
5e-05
5e-05
5e-05
5e-05
5e-05
5e-05
5e-05
5e-05
5e-05
5e-05
5e-05
5e-05
5e-05
5e-05
5e-05
5e-05
5e-05
5e-05
5e-05
5e-05
5e-05
5e-05
5e-05
5e-05
5e-05
5e-05
5e-05
5e-05
5e-05
5e-05
5e-05
5e-05
5e-05
5e-05
5e-05
5e-05
5e-05
5e-05
5e-05
5e-05
5e-05
5e-05
5e-05
5e-05
5e-05
5e-05
5e-05
5e-05
5e-05
5e-05
5e-05
5e-05
5e-05
5e-05
5e-05
5e-05
5e-05
5e-05
5e-05
5e-05
5e-05
5e-05
5e-05
5e-05
5e-05
5e-05
5e-05
5e-05
5e-05
5e-05
5e-05
5e-05
5e-05
5e-05
5e-05
5e-05
5e-05
5e-05
5e-05
5e-05
5e-05
5e-05
5e-05
5e-05
5e-05
5e-05
5e-05
5e-05
5e-05
5e-05
5e-05
5e-05
5e-05
5e-05
5e-05
5e-05
5e-05
5e-05
5e-05
5e-05
5e-05
5e-05
5e-05
5e-05
5e-05
5e-05
5e-05
5e-05

SCALARS mass float 1
LOOKUP_TABLE default
1.46608e-10
1.46608e-10
1.46608e-10
1.46608e-10
1.46608e-10
1.46608e-10
1.46608e-10
1.46608e-10
1.46608e-10
1.46608e-10
1.46608e-10
1.46608e-10
1.46608e-10
1.46608e-10
1.46608e-10
1.46608e-10
1.46608e-10
1.46608e-10
1.46608e-10
1.46608e-10
1.46608e-10
1.46608e-10
1.46608e-10
1.46608e-10
1.46608e-10
1.46608e-10
1.46608e-10
1.46608e-10
1.46608e-10
1.46608e-10
1.46608e-10
1.46608e-10
1.46608e-10
1.46608e-10
1.46608e-10
1.46608e-10
1.46608e-10
1.46608e-10
1.46608e-10
1.46608e-10
1.46608e-10
1.46608e-10
1.46608e-10
1.46608e-10
1.46608e-10
1.46608e-10
1.46608e-10
1.46608e-10
1.46608e-10
1.46608e-10
1.46608e-10
1.46608e-10
1.46608e-10
1.46608e-10
1.46608e-10
1.46608e-10
1.46608e-10
1.46608e-10
1.46608e-10
1.46608e-10
1.46608e-10
1.46608e-10
1.46608e-10
1.46608e-10
1.46608e-10
1.46608e-10
1.46608e-10
1.46608e-10
1.46608e-10
1.46608e-10
1.46608e-10
1.46608e-10
1.46608e-10
1.46608e-10
1.46608e-10
1.46608e-10
1.46608e-10
1.46608e-10
1.46608e-10
1.46608e-10
1.46608e-10
1.46608e-10
1.46608e-10
1.46608e-10
1.46608e-10
1.46608e-10
1.46608e-10
1.46608e-10
1.46608e-10
1.46608e-10
1.46608e-10
1.46608e-10
1.46608e-10
1.46608e-10
1.46608e-10
1.46608e-10
1.46608e-10
1.46608e-10
1.46608e-10
1.46608e-10
1.46608e-10
1.46608e-10
1.46608e-10
1.46608e-10
1.46608e-10
1.46608e-10
1.46608e-10
1.46608e-10
1.46608e-10
1.46608e-10
1.46608e-10
1.46608e-10
1.46608e-10
1.46608e-10
1.46608e-10
1.46608e-10
1.46608e-10
1.46608e-10
1.46608e-10
1.46608e-10
1.46608e-10
1.46608e-10
1.46608e-10
1.46608e-10
1.46608e-10
1.46608e-10
1.46608e-10
1.46608e-10
1.46608e-10
1.46608e-10
1.46608e-10
1.46608e-10
1.46608e-10
1.46608e-10
1.46608e-10
1.46608e-10
1.46608e-10
1.46608e-10
1.46608e-10
1.46608e-10
1.46608e-10
1.46608e-10
1.46608e-10
1.46608e-10
1.46608e-10
1.46608e-10
1.46608e-10
1.46608e-10
1.46608e-10
1.46608e-10
1.46608e-10
1.46608e-10
1.46608e-10
1.46608e-10
1.46608e-10
1.46608e-10
1.46608e-10
1.46608e-10
1.46608e-10
1.46608e-10
1.46608e-10
1.46608e-10
1.46608e-10
1.46608e-10
1.46608e-10
1.46608e-10
1.46608e-10
1.46608e-10
1.46608e-10
1.46608e-10
1.46608e-10
1.46608e-10
1.46608e-10
1.46608e-10
1.46608e-10
1.46608e-10
1.46608e-10
1.46608e-10
1.46608e-10
1.46608e-10
1.46608e-10
1.46608e-10
1.46608e-10
1.46608e-10
1.46608e-10
1.46608e-10
1.46608e-10
1.46608e-10
1.46608e-10
1.46608e-10
1.46608e-10
1.46608e-10
1.46608e-10
1.46608e-10
1.46608e-10
1.46608e-10
1.46608e-10
1.46608e-10
1.46608e-10
1.46608e-10
1.46608e-10
1.46608e-10
1.46608e-10
1.46608e-10
1.46608e-10
1.46608e-10
1.46608e-10
1.46608e-10
1.46608e-10
1.46608e-10
1.46608e-10
1.46608e-10
1.46608e-10
1.46608e-10
1.46608e-10
1.46608e-10
1.46608e-10
1.46608e-10
1.46608e-10
1.46608e-10
1.46608e-10
1.46608e-10
1.46608e-10
1.46608e-10
1.46608e-10
1.46608e-10
1.46608e-10
1.46608e-10
1.46608e-10
1.46608e-10
1.46608e-10
1.46608e-10
1.46608e-10
1.46608e-10
1.46608e-10
1.46608e-10
1.46608e-10
1.46608e-10
1.46608e-10
1.46608e-10
1.46608e-10
1.46608e-10
1.46608e-10
1.46608e-10
1.46608e-10
1.46608e-10
1.46608e-10
1.46608e-10
1.46608e-10
1.46608e-10
1.46608e-10
1.46608e-10
1.46608e-10
1.46608e-10
1.46608e-10
1.46608e-10
1.46608e-10
1.46608e-10
1.46608e-10
1.46608e-10
1.46608e-10
1.46608e-10
1.46608e-10
1.46608e-10
1.46608e-10
1.46608e-10
1.46608e-10
1.46608e-10
1.46608e-10
1.46608e-10
1.46608e-10
1.46608e-10
1.46608e-10
1.46608e-10
1.46608e-10

VECTORS velocity float
0.005776 5.65125e-05 0.000122935
0.00555316 0.000156659 6.72369e-05
0.00554922 7.27477e-05 4.35676e-05
0.00572854 0.000151271 -4.10131e-07
0.00585327 -0.000592647 0.00109118
0.0058003 6.63259e-05 0.000125802
0.00629474 -0.000193561 -3.87331e-05
0.00538592 -0.00130524 0.000907687
0.00607781 8.7985e-05 -0.000238727
0.00566934 0.000114948 9.52594e-05
0.00565948 -8.04446e-05 -7.53724e-05
0.0056856 0.000841398 7.63954e-05
0.00565629 -2.4693e-05 9.09139e-05
0.00570191 -7.80459e-05 0.000102067
0.00617108 -6.67444e-05 -0.000129042
0.00570516 0.000913471 0.000131676
0.00582429 7.67217e-05 0.000124081
0.00570355 1.67331e-05 -0.000177248
0.005666 -4.76067e-05 9.53739e-05
0.00535219 -0.00132179 0.000245241
0.00567752 2.11158e-05 -0.000166061
0.00520432 -0.00126552 0.000597615
0.00619131 -0.000129794 0.000200897
0.00554664 0.000126465 9.87114e-05
0.00558047 0.000844548 0.000235433
0.00611377 -0.00010294 -9.58609e-05
0.00577978 5.12955e-05 0.000131891
0.00572212 2.60182e-06 -0.000172043
0.00591556 -0.000591798 0.00109364
0.0056881 3.4883e-05 -0.000107803
0.00576421 7.83828e-05 0.000121818
0.00558833 -0.001342 0.000941033
0.00558059 -1.93204e-05 -0.000145246
0.00566463 9.23448e-05 0.000116024
0.00509495 -0.00127917 0.000275104
0.00569343 -5.05021e-05 -0.000113533
0.00553642 9.79121e-05 0.000102559
0.00569413 6.05954e-05 0.000125505
0.00597371 -0.0005688 0.0010712
0.00570903 8.10475e-06 -8.62242e-05
0.00568487 0.000124607 9.70362e-05
0.00573475 -0.00139459 0.000968803
0.00581059 -2.6123e-05 -0.000166279
0.00581386 4.81894e-05 0.000132876
0.00571758 -5.76611e-05 -3.19266e-05
0.00601456 -0.00065783 0.00113132
0.00581881 9.6483e-05 0.00011218
0.00573269 -3.31996e-05 -0.00010413
0.00585934 0.000170679 8.93997e-05
0.00590609 -0.000575008 0.00107034
-5.01951e-15 -7.41217e-15 7.69802e-14
0.00574738 5.54513e-05 0.000129248
0.00570381 -8.23811e-05 -0.000122983
0.00571952 8.40395e-05 0.000119648
0.00569767 0.00011324 0.000100549
0.00568226 -0.0013764 0.000207803
0.00568316 -8.17425e-05 -7.78921e-05
0.00570365 -3.45562e-05 9.45885e-05
0.0058426 0.000177859 8.65349e-05
0.00571305 0.000130298 0.000104186
0.00589316 0.000234972 6.9463e-05
0.00538526 -0.00126616 0.000896937
0.00563352 3.25023e-05 7.84969e-05
0.00576715 9.36389e-05 0.000111391
0.00585807 0.000285154 -0.000385636
0.00598042 -6.45135e-05 -0.000127879
0.00630364 -0.000153892 -5.37783e-05
0.00565051 0.000160762 9.27754e-05
0.0055511 6.21088e-05 8.227e-05
0.00559116 -1.29225e-05 8.5422e-05
0.00559231 0.000125541 0.000104316
0.00565831 -6.0615e-05 0.000101784
0.00569508 -8.73144e-05 -7.82678e-05
0.00566091 -0.00136585 0.000957926
0.0056225 -4.45967e-05 -0.000196474
0.00562415 7.14371e-05 0.000121036
0.00568317 8.08434e-06 -0.000169579
0.0057955 9.15295e-05 0.000118137
0.00581386 0.000166811 8.85291e-05
0.00577768 0.000195763 7.84935e-05
0.00572308 -3.58354e-06 -0.000118811
0.00582083 0.000115337 0.000110997
0.0061653 -0.000173475 -5.23284e-05
0.00571825 6.75964e-05 8.98537e-05
0.00585617 5.51807e-05 0.000118914
0.00579978 0.000129255 0.000106791
0.00558133 6.70996e-05 9.73055e-05
0.00617027 -0.000156605 -6.31807e-05
0.00561899 -3.80163e-05 9.15148e-05
0.00584076 8.17339e-05 0.000122744
0.00561418 -0.000166528 0.00011762
4.20786e-15 1.05408e-14 8.29578e-14
1.85319e-22 -1.27651e-22 1.23839e-22
0.00571169 1.07423e-05 8.38851e-05
0.00563477 -0.000140463 -3.53489e-05
0.00572484 -8.11689e-05 -7.96171e-05
0.00555131 6.82823e-05 7.35602e-05
0.00582597 0.000248581 6.25072e-05
0.00587052 0.000293713 5.0122e-05
0.00567687 0.000130151 0.000124903
0.00584899 -0.000125597 -0.000110134
0.00630065 -7.29555e-05 0.000128534
0.00576887 -0.000170312 -3.36421e-05
0.00573646 -0.000127696 -3.06698e-06
0.00557109 8.71313e-05 0.000115141
0.00572845 0.000138782 9.67887e-05
0.00577625 7.04808e-05 0.000125486
0.00570498 -9.17525e-05 -7.28361e-05
0.00580649 0.00012224 0.000103557
0.00631968 -0.000201974 -3.00634e-05
0.00564645 8.95395e-05 0.000109716
0.00577768 0.00014356 0.000101265
0.00560531 -3.39494e-05 9.23301e-05
0.00620961 -0.000151155 -6.72983e-05
0.00578353 0.000106183 0.000114072
0.00558856 6.85226e-05 7.70249e-05
0.0061499 -0.000130342 -7.8447e-05
0.00576029 9.16934e-05 7.34988e-05
0.00569664 -5.87415e-05 -4.48546e-05
0.0056502 -2.8632e-05 2.23783e-05
0.00555993 0.000102311 0.000115764
0.00572828 0.000143558 9.31928e-05
0.00586025 0.000113975 0.000116601
0.00572527 -3.09636e-05 0.000155808
0.00586686 -2.92124e-05 -0.000110209
0.00589014 0.000141198 9.96041e-05
0.00586706 9.74311e-05 0.000121107
0.00571551 0.000152484 9.82438e-05
0.0063568 -0.000145436 0.000213386
0.00566559 -2.83893e-05 9.13589e-05
0.00557651 6.94591e-05 6.89098e-05
0.00570456 -6.588e-05 -8.64938e-05
0.00556919 -0.000665442 -0.000521856
0.00573622 -8.10226e-05 -7.63255e-05
0.00630507 -0.000145975 0.000200468
0.00619623 -0.000166953 -4.76719e-05
0.00560886 -4.23053e-05 -9.11392e-05
0.00570806 -4.64387e-05 9.66507e-05
0.00627082 -0.000139981 0.000196054
0.00560742 -6.30362e-05 2.0771e-05
0.00626228 -0.000213417 5.57056e-06
0.0063064 -0.000264262 -5.81424e-05
-3.8361e-14 8.16632e-14 2.95885e-13
0.0062854 -0.000238366 -1.64884e-05
0.00561014 9.61077e-05 0.000113914
0.00566148 -4.3307e-05 9.42704e-05
0.00569515 -6.70368e-05 0.000101069
0.0056447 2.88539e-05 -0.000316065
0.00571195 8.99618e-06 8.33938e-05
0.00569297 0.000131803 9.71285e-05
0.00556892 -1.99773e-05 8.73757e-05
0.00559593 -2.56027e-05 2.6859e-05
0.00560324 -2.71742e-05 8.91895e-05
0.00556558 -8.08721e-06 9.01279e-05
0.00579653 7.8202e-05 0.000116566
0.00576956 -0.000171355 -3.29857e-05
0.00576933 0.00010104 0.000108138
0.00617007 -0.000279796 -4.36488e-05
0.00578409 -0.000104723 -6.86541e-05
0.005606 -0.000183382 -9.68745e-05
0.00568201 -0.000122763 0.000102226
0.00568123 -5.87319e-05 9.78794e-05
0.0056771 0.000120128 0.000100937
0.00577963 -0.000169477 -3.70513e-05
0.0057555 8.83988e-05 0.000115422
0.00569156 5.14025e-06 -0.000122477
0.00562618 -3.99138e-05 -0.000199379
0.00575528 9.71427e-05 0.00011018
0.00575249 0.000117401 0.000109656
0.00563965 8.35504e-05 0.000111793
0.00557259 2.40399e-05 0.000172469
0.006265 -0.000199496 -5.94487e-05
0.00577378 -0.000168961 -3.47978e-05
0.00581307 9.28355e-05 0.000112705
0.00571086 -3.6128e-05 9.4828e-05
0.00572896 -4.69152e-05 9.62561e-05
0.00565834 -3.29475e-05 9.0155e-05
0.00611967 -0.000392877 -0.000179531
0.00571653 -0.000105013 -0.000117003
0.00565847 -0.000100415 8.58875e-05
0.00556595 3.42827e-05 8.84049e-05
0.00572868 -4.28152e-05 9.56962e-05
0.00630791 -0.000227421 -1.16822e-05
0.00585118 8.75253e-05 0.000122035
0.00571027 -6.00286e-05 9.87431e-05
0.00631059 -0.000155974 0.000213802
0.00624797 -0.000157681 0.000198778
0.00566808 -0.000176922 -0.000116705
0.0056896 -8.78914e-06 8.73478e-05
0.00565453 -7.98806e-05 -7.80568e-05
0.00585252 -0.000109204 -8.67489e-05
0.00561429 -4.71711e-05 -8.24218e-05
0.00566913 0.000136515 5.80603e-05
0.00576206 4.06914e-05 0.000128588
0.00566462 0.000135386 0.000101206
0.00560574 9.46719e-06 0.000177312
0.00553663 -0.000155806 -0.000118953
0.00575015 0.000185873 8.18987e-05
0.00559343 -4.54386e-05 9.09196e-05
0.00611462 -0.000153301 -5.91997e-05
0.00564309 -1.98444e-05 8.39676e-05
0.00576812 5.48525e-05 0.000129918
0.00628862 -0.000198971 8.5282e-05
0.00563366 2.52991e-05 -1.83752e-06
0.00566132 -2.89051e-05 9.06296e-05
0.00563345 6.21701e-06 0.000179077
0.00569584 -9.20842e-06 0.000184579
0.00561949 -4.10366e-05 -0.000199933
0.00620895 -0.000166581 0.000205516
0.00572759 -4.02626e-05 9.81082e-05
0.00573142 -5.68791e-05 9.90669e-05
0.00574504 0.000151516 9.94367e-05
0.0062213 -0.000170282 0.000221152
0.00620951 -0.000259213 2.50918e-06
0.00580658 -0.000176418 -3.08326e-05
0.00593273 -0.000360703 -0.000194863
0.00605888 -0.000392038 -0.000177061
0.00593042 -0.00036579 -0.000188738
0.00603315 -0.000239062 -4.07863e-05
0.00566127 -3.39111e-05 9.26301e-05
0.00598793 -0.000359583 -0.000198914
0.00576669 -3.15008e-05 0.00019401
0.0061841 -0.000321003 -4.48514e-05
0.00561935 -0.000109168 5.20499e-05
0.0062222 -0.000250156 1.74429e-05
0.0060079 -0.00019868 3.48406e-05
0.00582432 8.48582e-05 0.000122299
0.00575889 -3.06378e-05 0.000191019
0.00554853 2.74427e-05 0.000171295
0.00562093 -5.76192e-05 0.000103223
0.00551116 6.58355e-05 7.79111e-05
0.00568569 8.60767e-05 6.86036e-05
0.0062009 -0.000122958 0.000192767
0.00565138 -4.04248e-05 8.03456e-05
0.00577873 -3.35279e-05 0.000193298
0.00573168 -5.39809e-05 9.72424e-05
0.00584902 -0.000122943 -5.8619e-05
0.00566021 -0.00012264 7.96914e-05
0.00615904 -0.000397744 -0.000176989
0.00562478 -0.000104464 -0.000175307
0.00559683 2.06754e-05 0.000174247
0.00566139 -3.36488e-05 9.16587e-05
0.00624618 -0.000165881 0.000167313
0.0057198 -7.88424e-05 -7.88139e-05
0.00566732 -3.55281e-05 9.40298e-05
0.00581307 6.89361e-05 0.000116091
0.00569756 -6.06357e-05 9.82622e-05
0.00559421 1.04054e-05 0.000176665
0.00627689 -0.000165002 0.000199043
0.0058032 -3.67282e-05 0.000195372
0.00602005 -0.000613006 0.000414627
0.00581679 -0.000204707 -6.2062e-05
0.00623633 -0.000185968 0.000211088
0.00566634 -7.28332e-05 -8.09005e-05
0.00554857 2.70587e-05 0.000171174
0.00565868 3.88845e-06 0.000180579
0.00569113 -4.32739e-05 9.40913e-05
0.00605821 -0.000380011 -0.000185332
0.00624642 -0.000200097 0.000151724
0.00628301 -0.000239726 1.51431e-05
0.00558083 -0.000161624 -0.000113222
0.00621903 -0.000169026 0.000210982
0.00568896 -3.96563e-05 9.14775e-05
0.00556744 -0.000168489 -9.09345e-05
0.00588959 -7.43361e-05 -8.62691e-05
0.0056755 -3.86781e-05 9.17168e-05
0.0057604 -5.48796e-05 8.5022e-05
0.0062634 -0.000197963 -3.01856e-05
0.0062661 -0.00024688 5.72492e-05
0.00554467 2.70049e-05 0.000170893
0.00624017 -0.00018133 0.000222585
0.00574564 0.000109042 0.000109334
0.00607784 -0.000392868 -0.000179742
0.00574787 -3.10261e-05 0.000191096
0.00584564 0.000103148 0.000117379

VECTORS force float
2.90803e-11 -7.04903e-11 2.57113e-11
-3.37284e-10 -3.73276e-10 -2.16878e-10
1.32487e-10 1.53305e-10 -6.88037e-11
3.9224e-11 3.06972e-09 -1.24845e-09
1.35023e-10 4.19832e-10 -5.66912e-10
-1.66268e-10 1.33094e-11 -1.14309e-11
2.68834e-10 -3.25003e-10 2.59625e-10
5.58312e-10 -5.05185e-10 8.0841e-11
-1.38459e-10 3.59529e-10 -2.8676e-10
1.77386e-10 5.51477e-11 1.57442e-11
-1.02794e-10 -7.59242e-11 5.8573e-11
-1.07233e-09 -8.03397e-10 -4.65771e-10
-2.94018e-13 -6.35562e-12 -1.74769e-11
1.4962e-10 -4.35404e-11 1.09591e-11
1.18292e-10 -2.00688e-10 1.57435e-10
-6.87284e-11 -5.71113e-10 2.8464e-09
5.00064e-11 1.36958e-10 -3.80366e-11
-2.70113e-10 1.08067e-10 -1.18669e-10
7.67156e-11 -2.43783e-11 -2.77489e-12
4.66864e-11 4.06619e-11 4.83513e-11
1.70753e-10 4.11691e-10 -3.48404e-10
2.3178e-10 -9.417e-11 -6.08162e-11
-1.54661e-10 -1.06102e-10 1.26389e-11
-1.15586e-10 -4.43781e-10 1.2159e-10
-2.24023e-10 -3.67398e-10 1.85687e-09
-1.24937e-10 -3.58654e-11 5.85938e-11
-1.49257e-10 2.80012e-11 -2.74553e-11
-9.78693e-11 7.01319e-10 -2.79222e-10
1.54346e-10 4.41144e-10 -4.44852e-10
-8.54984e-11 2.10567e-10 -2.97884e-10
-2.91025e-11 9.64259e-11 -3.12793e-11
-1.80486e-11 -3.22387e-10 7.28705e-11
4.74713e-11 2.04901e-10 -1.541e-10
-1.12491e-10 2.00141e-10 -4.85776e-11
4.51972e-10 -1.43784e-11 -1.71377e-10
-1.72678e-10 1.36059e-10 -1.75527e-10
9.23687e-11 1.98095e-10 -1.70121e-10
-4.03051e-10 1.1933e-10 -5.08054e-11
3.70893e-11 4.21386e-10 -6.8068e-10
4.37948e-11 1.61317e-10 -1.7975e-11
3.18551e-10 2.72135e-10 -1.54977e-11
3.95632e-10 -1.37307e-10 -1.1888e-10
-3.73913e-11 5.22803e-10 -3.34872e-10
-6.42872e-11 4.86957e-11 -1.64342e-11
-2.23273e-11 6.47361e-11 9.6997e-11
-1.26516e-10 -3.95223e-10 3.93577e-10
-3.50489e-11 -4.37291e-11 7.04884e-12
-1.01673e-10 1.02181e-10 -5.21864e-11
4.42173e-11 1.66331e-10 -5.98043e-11
1.14147e-10 -3.68729e-10 4.64867e-10
-6.61744e-24 7.13443e-24 2.06795e-25
-1.89315e-10 3.48235e-11 -2.94506e-11
1.1161e-09 6.99187e-10 -9.89844e-10
-2.28308e-10 1.68085e-10 -5.06324e-11
3.58289e-11 1.41918e-10 -4.8963e-11
-1.60227e-10 4.1973e-10 1.24045e-09
-8.45294e-11 7.76761e-11 -3.25637e-11
-5.15257e-11 4.73265e-12 -1.42436e-11
-6.48876e-12 5.11022e-11 -2.30805e-11
-2.41592e-10 -9.41771e-11 2.62848e-11
-2.54599e-11 7.07107e-13 3.75069e-13
-4.68796e-10 -3.37778e-10 -2.30766e-10
-1.58304e-11 -1.17669e-10 -2.1858e-11
-7.50714e-11 -1.23479e-11 -1.39505e-11
-6.20856e-12 -6.76305e-11 1.30022e-10
-2.40571e-10 2.4004e-10 -2.28295e-10
-7.60768e-11 2.03462e-11 -2.36121e-11
-1.34882e-10 -3.94927e-10 1.16019e-10
9.84493e-11 9.72152e-11 -1.00474e-10
-2.2261e-11 -1.12828e-10 8.53491e-11
-9.25451e-11 -4.27138e-10 1.01482e-10
-5.43326e-11 4.31498e-11 3.14421e-11
-7.6904e-11 -8.65627e-11 5.57948e-11
-1.00984e-10 -4.29756e-10 -1.30174e-11
-8.37981e-11 -6.01735e-11 3.77083e-11
-3.1664e-10 2.13134e-10 -5.23519e-11
5.4354e-10 -5.73183e-10 1.08635e-10
-7.17161e-11 1.26864e-11 -6.08447e-12
3.05894e-11 8.95567e-12 -1.16015e-11
-5.51501e-11 2.29899e-11 -2.26842e-11
-9.80866e-11 6.84955e-11 -3.37181e-11
-8.30074e-11 -2.10424e-11 2.22596e-11
5.57902e-10 -9.80725e-11 -6.18587e-11
2.03585e-11 -5.47599e-11 -4.35452e-14
1.82503e-11 -1.12596e-10 5.88897e-11
-6.89165e-12 -4.16443e-11 -3.90831e-13
-7.7856e-11 -3.94719e-11 2.03566e-10
1.68728e-10 -7.14921e-11 6.37679e-11
-1.60356e-11 2.22171e-11 -1.90711e-11
-5.17173e-11 -2.1949e-12 1.85998e-11
-3.16287e-11 3.29026e-11 -4.85745e-11
-1.13019e-21 4.57508e-22 6.20385e-24
0.0 0.0 0.0
4.33371e-11 3.80642e-11 -9.19625e-12
-2.43354e-10 1.0923e-10 1.38432e-10
1.3734e-11 2.81778e-11 -5.59295e-12
-2.20689e-10 5.04753e-11 -3.96984e-11
1.96863e-12 4.69743e-11 -2.74779e-11