# vtk DataFile Version 3.0
LIGGGHTS particles timestep 36000000
ASCII
DATASET POLYDATA
POINTS 275 float
0.223215 0.0184366 0.0069551
0.222872 0.0172287 0.00730484
0.223038 0.0171538 0.00738254
0.222386 0.0155676 0.00880846
0.228855 0.0172503 0.00754457
0.223173 0.0177926 0.00705217
0.222872 0.0168817 0.00760402
0.229058 0.0181236 0.00710141
0.222514 0.0159574 0.00837323
0.22304 0.0178752 0.00712271
0.217088 0.0169771 0.00754752
0.222365 0.0155085 0.00888635
0.217032 0.0175182 0.00712559
0.2173 0.0179769 0.00702013
0.222494 0.0158821 0.00843609
0.222345 0.0154493 0.0089643
0.223212 0.0179857 0.00701779
0.222827 0.0167315 0.00772998
0.217281 0.0177801 0.00704726
0.228984 0.0177727 0.00727898
0.222557 0.0161067 0.00824742
0.22902 0.0179483 0.00719017
0.216873 0.0169093 0.00761887
0.222948 0.0171825 0.00735064
0.222323 0.0153903 0.00904214
0.222646 0.0164054 0.00799688
0.223249 0.0177259 0.00705375
0.222579 0.0161815 0.00818475
0.228876 0.0173374 0.00750029
0.222471 0.0158133 0.00850463
0.223179 0.0175991 0.00707896
0.229114 0.0183866 0.00696826
0.22302 0.0170786 0.00744593
0.223091 0.0173796 0.00719207
0.229002 0.0178606 0.00723457
0.222428 0.0156858 0.00865269
0.223149 0.0172055 0.0073467
0.223176 0.0174311 0.00715439
0.228898 0.0174245 0.00745602
0.222449 0.0157481 0.00857741
0.223077 0.0182106 0.00701153
0.229076 0.0182113 0.00705704
0.222602 0.0162561 0.00812209
0.223268 0.0178231 0.00703904
0.217148 0.0172015 0.0073578
0.228944 0.0175981 0.00736759
0.223402 0.0180463 0.00700171
0.217055 0.0172328 0.00733861
0.223382 0.0179494 0.00701643
0.228919 0.0175115 0.00741176
0.378022 0.019866 0.005332
0.223207 0.0175043 0.00709359
0.222407 0.0156267 0.00873055
0.223083 0.0174547 0.00712662
0.223096 0.0183023 0.00697664
0.228966 0.0176849 0.00732338
0.21709 0.0173844 0.00721085
0.217058 0.0177019 0.00714741
0.22323 0.018083 0.00700308
0.223001 0.0174082 0.00716023
0.223306 0.0180172 0.0070096
0.229039 0.018036 0.00714578
0.217394 0.0180085 0.00701924
0.223273 0.018276 0.00697361
0.222536 0.0160319 0.00831028
0.222623 0.016331 0.00805921
0.216994 0.0170075 0.00752902
0.22289 0.0173039 0.00724143
0.216344 0.0153886 0.00889042
0.217357 0.0182688 0.00698099
0.222966 0.0172578 0.00728722
0.217093 0.0177983 0.00713809
0.217109 0.0170517 0.00748435
0.229095 0.0182989 0.00701266
0.217509 0.01814 0.00700494
0.223185 0.017356 0.00721976
0.22293 0.0171074 0.00741403
0.223075 0.0177549 0.00705631
0.22304 0.0176082 0.00715639
0.223253 0.018179 0.00698833
0.217066 0.0169025 0.00761063
0.222998 0.017819 0.00705003
0.222712 0.0166298 0.00780896
0.22306 0.0179725 0.00710801
0.222946 0.0175735 0.00716416
0.222979 0.017722 0.00706475
0.216452 0.0157645 0.00857897
0.222687 0.0165553 0.00787094
0.217029 0.0179697 0.00701095
0.223192 0.0178887 0.0070325
0.217048 0.0180669 0.00699794
0.0643568 0.0187248 0.00531097
0.24257 0.0191927 0.00520306
0.21732 0.018074 0.00700716
0.216409 0.0156142 0.00870352
0.217047 0.017596 0.00706451
0.216365 0.0154639 0.00882807
0.223328 0.0181136 0.00699486
0.223301 0.0175345 0.00707933
0.222854 0.017154 0.00736875
0.222817 0.0170094 0.00750148
0.216496 0.0159148 0.00845442
0.216932 0.0174991 0.00712734
0.21699 0.0177753 0.00703698
0.223168 0.0172807 0.00728332
0.223152 0.0181458 0.00699704
0.223155 0.0176948 0.00706226
0.217183 0.0173521 0.00723089
0.223348 0.0182105 0.00698014
0.222848 0.0168064 0.00766707
0.223236 0.0185359 0.00695314
0.222959 0.0176251 0.00707948
0.217415 0.0181061 0.00700619
0.222731 0.0167047 0.00774549
0.223055 0.0176579 0.00707103
0.21643 0.0156894 0.00864125
0.222666 0.0164805 0.00793369
0.223021 0.0177763 0.00713765
0.217088 0.0177914 0.00703841
0.217108 0.0178887 0.00702538
0.223056 0.0172308 0.00732128
0.223176 0.0182423 0.00698221
0.223134 0.0180478 0.00701186
0.223287 0.0179202 0.00702432
0.217036 0.0171574 0.00740225
0.222977 0.0176862 0.0071581
0.223038 0.0180151 0.00702026
0.222907 0.0173792 0.00717786
0.216863 0.0165592 0.00790877
0.217255 0.0176842 0.00706024
0.216387 0.015539 0.00876581
0.217218 0.0175107 0.00711492
0.216539 0.0160651 0.00832989
0.217088 0.0176918 0.00705249
0.216885 0.0166338 0.00784566
0.222774 0.0168543 0.00762
0.217376 0.0183661 0.00696793
0.217183 0.0182943 0.00697084
0.216907 0.0167083 0.00778248
0.216517 0.01599 0.00839215
0.216564 0.0161397 0.00826792
0.216841 0.0164848 0.00797186
0.0219312 0.0187687 0.00551176
0.216951 0.0168584 0.00765535
0.223074 0.0173042 0.00725571
0.217068 0.018164 0.00698493
0.21705 0.0179258 0.00709819
0.216626 0.0163657 0.00808086
0.21728 0.0183313 0.00696924
0.223058 0.0181126 0.00700545
0.217335 0.018527 0.00694365
0.217451 0.0183019 0.00697987
0.217302 0.0184324 0.00695576
0.217238 0.018509 0.00695284
0.223292 0.0183733 0.00696183
0.216914 0.0174196 0.00719433
0.223175 0.018103 0.00708442
0.216669 0.016516 0.00795635
0.216976 0.0172834 0.00730353
0.21664 0.0160876 0.00830598
0.216964 0.0176637 0.00714692
0.217088 0.0182612 0.00697192
0.223312 0.0184713 0.00695608
0.216989 0.0176762 0.00705097
0.22307 0.0180719 0.00709593
0.217204 0.0175989 0.00707001
0.217489 0.0180406 0.00701826
0.223196 0.0183393 0.00696752
0.223093 0.0175493 0.00709593
0.223155 0.0185949 0.00695024
0.211072 0.0181899 0.00700744
0.222797 0.0169289 0.00755743
0.21695 0.0175744 0.00706388
0.223368 0.0183075 0.00696542
0.217149 0.017878 0.00711594
0.217242 0.0181367 0.00699536
0.217194 0.0179393 0.00702148
0.210755 0.0166952 0.00747478
0.217129 0.0171265 0.00742113
0.216986 0.0177708 0.00713683
0.216474 0.0158396 0.00851675
0.217262 0.0182345 0.00698638
0.216973 0.0169329 0.00759224
0.223114 0.0179501 0.00702669
0.217296 0.0178779 0.00703401
0.216808 0.016686 0.00780838
0.216852 0.0168348 0.00768196
0.216721 0.0163863 0.00805873
0.217166 0.0172767 0.00729438
0.217073 0.0173086 0.00727466
0.222892 0.0169571 0.00754062
0.222911 0.0170322 0.00747736
0.217339 0.0181713 0.0069941
0.223135 0.0184968 0.00695219
0.222984 0.0173329 0.00722383
0.210974 0.0177219 0.00715382
0.216701 0.0163109 0.00812113
0.223387 0.0184055 0.00695904
0.217009 0.0178725 0.00702397
0.222753 0.0167801 0.00768358
0.217122 0.0180084 0.007031
0.223273 0.0176296 0.00706672
0.216895 0.0169838 0.00755571
0.222835 0.0170784 0.00743155
0.217042 0.0176063 0.00717189
0.210993 0.0178155 0.00712455
0.210935 0.0175346 0.00721238
0.217433 0.0182044 0.00699297
0.2168 0.016964 0.00757911
0.217084 0.0181214 0.00707396
0.217142 0.0185367 0.0069648
0.22299 0.017517 0.00709388
0.216756 0.0168155 0.0077059
0.21686 0.0171928 0.00738557
0.216879 0.0172691 0.0073212
0.210661 0.0163495 0.00781505
0.210715 0.016534 0.00758498
0.210639 0.0162883 0.00789119
0.216685 0.0160172 0.0083606
0.217195 0.0178403 0.00703551
0.210681 0.0164108 0.00773871
0.210865 0.0171572 0.0073235
0.216691 0.0165912 0.00789404
0.217011 0.0174396 0.00718381
0.210796 0.0168769 0.00740403
0.216765 0.0165367 0.00793416
0.223094 0.0178531 0.00704141
0.210876 0.0172526 0.00729568
0.211052 0.0180963 0.00703672
0.210816 0.016971 0.00737689
0.216324 0.0153131 0.00895284
0.217391 0.0179095 0.00703312
0.216929 0.0167839 0.00771844
0.216994 0.0173607 0.0072426
0.210896 0.0173468 0.00726853
0.217208 0.0184009 0.006976
0.216957 0.0172078 0.0073662
0.216896 0.0173443 0.00725777
0.210775 0.0167829 0.00743113
0.216582 0.0162154 0.00820537
0.211091 0.0182835 0.00697817
0.217144 0.0180999 0.00699686
0.216786 0.0166114 0.00787135
0.217203 0.0174276 0.00716838
0.217175 0.0177431 0.00704853
0.222927 0.0174755 0.00715984
0.217107 0.0183584 0.00695891
0.210954 0.0176283 0.0071831
0.21683 0.0167603 0.00774506
0.210916 0.0174409 0.00724136
0.216648 0.0164409 0.0080186
0.216743 0.0164615 0.00799644
0.216713 0.0166662 0.00783161
0.21711 0.0174593 0.00714756
0.211069 0.0177519 0.00714156
0.211013 0.0179091 0.00709527
0.217163 0.0181971 0.00698385
0.210698 0.0164724 0.00766177
0.216821 0.0170384 0.00751597
0.216916 0.0170584 0.00749259
0.216606 0.0162916 0.00814491
0.216778 0.0168898 0.00764257
0.217223 0.01804 0.00701146
0.216679 0.0162358 0.00818341
0.217015 0.0170823 0.00746575
0.217125 0.0175488 0.00710573
0.217123 0.0184464 0.00700358
0.216937 0.017133 0.00742942
0.216841 0.017116 0.00745035
0.211033 0.0180027 0.00706599
0.216734 0.016741 0.00776887
0.223116 0.0183992 0.00696192
0.210735 0.0166099 0.0075228
0.210836 0.0170652 0.00734973
0.223018 0.0179179 0.00703502

VERTICES 275 550
1 0
1 1
1 2
1 3
1 4
1 5
1 6
1 7
1 8
1 9
1 10
1 11
1 12
1 13
1 14
1 15
1 16
1 17
1 18
1 19
1 20
1 21
1 22
1 23
1 24
1 25
1 26
1 27
1 28
1 29
1 30
1 31
1 32
1 33
1 34
1 35
1 36
1 37
1 38
1 39
1 40
1 41
1 42
1 43
1 44
1 45
1 46
1 47
1 48
1 49
1 50
1 51
1 52
1 53
1 54
1 55
1 56
1 57
1 58
1 59
1 60
1 61
1 62
1 63
1 64
1 65
1 66
1 67
1 68
1 69
1 70
1 71
1 72
1 73
1 74
1 75
1 76
1 77
1 78
1 79
1 80
1 81
1 82
1 83
1 84
1 85
1 86
1 87
1 88
1 89
1 90
1 91
1 92
1 93
1 94
1 95
1 96
1 97
1 98
1 99
1 100
1 101
1 102
1 103
1 104
1 105
1 106
1 107
1 108
1 109
1 110
1 111
1 112
1 113
1 114
1 115
1 116
1 117
1 118
1 119
1 120
1 121
1 122
1 123
1 124
1 125
1 126
1 127
1 128
1 129
1 130
1 131
1 132
1 133
1 134
1 135
1 136
1 137
1 138
1 139
1 140
1 141
1 142
1 143
1 144
1 145
1 146
1 147
1 148
1 149
1 150
1 151
1 152
1 153
1 154
1 155
1 156
1 157
1 158
1 159
1 160
1 161
1 162
1 163
1 164
1 165
1 166
1 167
1 168
1 169
1 170
1 171
1 172
1 173
1 174
1 175
1 176
1 177
1 178
1 179
1 180
1 181
1 182
1 183
1 184
1 185
1 186
1 187
1 188
1 189
1 190
1 191
1 192
1 193
1 194
1 195
1 196
1 197
1 198
1 199
1 200
1 201
1 202
1 203
1 204
1 205
1 206
1 207
1 208
1 209
1 210
1 211
1 212
1 213
1 214
1 215
1 216
1 217
1 218
1 219
1 220
1 221
1 222
1 223
1 224
1 225
1 226
1 227
1 228
1 229
1 230
1 231
1 232
1 233
1 234
1 235
1 236
1 237
1 238
1 239
1 240
1 241
1 242
1 243
1 244
1 245
1 246
1 247
1 248
1 249
1 250
1 251
1 252
1 253
1 254
1 255
1 256
1 257
1 258
1 259
1 260
1 261
1 262
1 263
1 264
1 265
1 266
1 267
1 268
1 269
1 270
1 271
1 272
1 273
1 274

POINT_DATA 275
SCALARS id int 1
LOOKUP_TABLE default
1
2
4
5
6
7
8
9
10
11
12
13
14
16
17
19
21
22
23
24
25
26
27
28
29
30
31
32
33
34
35
36
37
38
39
41
42
44
45
47
48
49
50
51
52
53
54
55
56
57
59
60
61
62
63
64
65
66
67
68
69
70
71
72
73
74
76
77
78
79
80
82
83
84
85
86
87
88
89
90
91
92
93
94
95
96
97
98
99
100
101
102
103
104
105
106
107
108
109
110
111
112
113
114
115
116
117
118
119
120
121
122
123
124
125
127
128
129
130
131
132
133
134
135
136
137
138
140
141
142
143
144
146
147
148
149
150
151
153
154
155
156
157
158
159
160
162
164
165
166
167
168
169
170
171
172
173
174
176
177
178
179
182
183
184
185
186
187
188
189
190
191
192
193
194
195
196
197
198
199
200
201
202
203
204
205
206
207
208
209
210
211
212
213
214
215
216
217
218
219
220
222
224
225
226
227
228
229
230
232
233
234
235
236
237
239
240
241
242
243
244
246
247
248
249
250
251
252
253
254
255
256
257
258
259
260
261
262
263
264
265
266
267
268
269
270
271
272
273
274
275
276
277
278
279
280
281
283
284
285
286
287
288
289
290
291
292
293
294
295
296
297
298
299
300

SCALARS type int 1
LOOKUP_TABLE default
1
1
1
1
1
1
1
1
1
1
1
1
1
1
1
1
1
1
1
1
1
1
1
1
1
1
1
1
1
1
1
1
1
1
1
1
1
1
1
1
1
1
1
1
1
1
1
1
1
1
1
1
1
1
1
1
1
1
1
1
1
1
1
1
1
1
1
1
1
1
1
1
1
1
1
1
1
1
1
1
1
1
1
1
1
1
1
1
1
1
1
1
1
1
1
1
1
1
1
1
1
1
1
1
1
1
1
1
1
1
1
1
1
1
1
1
1
1
1
1
1
1
1
1
1
1
1
1
1
1
1
1
1
1
1
1
1
1
1
1
1
1
1
1
1
1
1
1
1
1
1
1
1
1
1
1
1
1
1
1
1
1
1
1
1
1
1
1
1
1
1
1
1
1
1
1
1
1
1
1
1
1
1
1
1
1
1
1
1
1
1
1
1
1
1
1
1
1
1
1
1
1
1
1
1
1
1
1
1
1
1
1
1
1
1
1
1
1
1
1
1
1
1
1
1
1
1
1
1
1
1
1
1
1
1
1
1
1
1
1
1
1
1
1
1
1
1
1
1
1
1
1
1
1
1
1
1
1
1
1
1
1
1
1
1
1
1
1
1
1
1
1
1
1
1

SCALARS radius float 1
LOOKUP_TABLE default
5e-05
5e-05
5e-05
5e-05
5e-05
5e-05
5e-05
5e-05
5e-05
5e-05
5e-05
5e-05
5e-05
5e-05
5e-05
5e-05
5e-05
5e-05
5e-05
5e-05
5e-05
5e-05
5e-05
5e-05
5e-05
5e-05
5e-05
5e-05
5e-05
5e-05
5e-05
5e-05
5e-05
5e-05
5e-05
5e-05
5e-05
5e-05
5e-05
5e-05
5e-05
5e-05
5e-05
5e-05
5e-05
5e-05
5e-05
5e-05
5e-05
5e-05
5e-05
5e-05
5e-05
5e-05
5e-05
5e-05
5e-05
5e-05
5e-05
5e-05
5e-05
5e-05
5e-05
5e-05
5e-05
5e-05
5e-05
5e-05
5e-05
5e-05
5e-05
5e-05
5e-05
5e-05
5e-05
5e-05
5e-05
5e-05
5e-05
5e-05
5e-05
5e-05
5e-05
5e-05
5e-05
5e-05
5e-05
5e-05
5e-05
5e-05
5e-05
5e-05
5e-05
5e-05
5e-05
5e-05
5e-05
5e-05
5e-05
5e-05
5e-05
5e-05
5e-05
5e-05
5e-05
5e-05
5e-05
5e-05
5e-05
5e-05
5e-05
5e-05
5e-05
5e-05
5e-05
5e-05
5e-05
5e-05
5e-05
5e-05
5e-05
5e-05
5e-05
5e-05
5e-05
5e-05
5e-05
5e-05
5e-05
5e-05
5e-05
5e-05
5e-05
5e-05
5e-05
5e-05
5e-05
5e-05
5e-05
5e-05
5e-05
5e-05
5e-05
5e-05
5e-05
5e-05
5e-05
5e-05
5e-05
5e-05
5e-05
5e-05
5e-05
5e-05
5e-05
5e-05
5e-05
5e-05
5e-05
5e-05
5e-05
5e-05
5e-05
5e-05
5e-05
5e-05
5e-05
5e-05
5e-05
5e-05
5e-05
5e-05
5e-05
5e-05
5e-05
5e-05
5e-05
5e-05
5e-05
5e-05
5e-05
5e-05
5e-05
5e-05
5e-05
5e-05
5e-05
5e-05
5e-05
5e-05
5e-05
5e-05
5e-05
5e-05
5e-05
5e-05
5e-05
5e-05
5e-05
5e-05
5e-05
5e-05
5e-05
5e-05
5e-05
5e-05
5e-05
5e-05
5e-05
5e-05
5e-05
5e-05
5e-05
5e-05
5e-05
5e-05
5e-05
5e-05
5e-05
5e-05
5e-05
5e-05
5e-05
5e-05
5e-05
5e-05
5e-05
5e-05
5e-05
5e-05
5e-05
5e-05
5e-05
5e-05
5e-05
5e-05
5e-05
5e-05
5e-05
5e-05
5e-05
5e-05
5e-05
5e-05
5e-05
5e-05
5e-05
5e-05
5e-05
5e-05
5e-05
5e-05
5e-05
5e-05
5e-05
5e-05
5e-05
5e-05
5e-05
5e-05
5e-05
5e-05
5e-05
5e-05
5e-05
5e-05
5e-05
5e-05
5e-05
5e-05
5e-05
5e-05
5e-05
5e-05
5e-05

SCALARS mass float 1
LOOKUP_TABLE default
1.46608e-10
1.46608e-10
1.46608e-10
1.46608e-10
1.46608e-10
1.46608e-10
1.46608e-10
1.46608e-10
1.46608e-10
1.46608e-10
1.46608e-10
1.46608e-10
1.46608e-10
1.46608e-10
1.46608e-10
1.46608e-10
1.46608e-10
1.46608e-10
1.46608e-10
1.46608e-10
1.46608e-10
1.46608e-10
1.46608e-10
1.46608e-10
1.46608e-10
1.46608e-10
1.46608e-10
1.46608e-10
1.46608e-10
1.46608e-10
1.46608e-10
1.46608e-10
1.46608e-10
1.46608e-10
1.46608e-10
1.46608e-10
1.46608e-10
1.46608e-10
1.46608e-10
1.46608e-10
1.46608e-10
1.46608e-10
1.46608e-10
1.46608e-10
1.46608e-10
1.46608e-10
1.46608e-10
1.46608e-10
1.46608e-10
1.46608e-10
1.46608e-10
1.46608e-10
1.46608e-10
1.46608e-10
1.46608e-10
1.46608e-10
1.46608e-10
1.46608e-10
1.46608e-10
1.46608e-10
1.46608e-10
1.46608e-10
1.46608e-10
1.46608e-10
1.46608e-10
1.46608e-10
1.46608e-10
1.46608e-10
1.46608e-10
1.46608e-10
1.46608e-10
1.46608e-10
1.46608e-10
1.46608e-10
1.46608e-10
1.46608e-10
1.46608e-10
1.46608e-10
1.46608e-10
1.46608e-10
1.46608e-10
1.46608e-10
1.46608e-10
1.46608e-10
1.46608e-10
1.46608e-10
1.46608e-10
1.46608e-10
1.46608e-10
1.46608e-10
1.46608e-10
1.46608e-10
1.46608e-10
1.46608e-10
1.46608e-10
1.46608e-10
1.46608e-10
1.46608e-10
1.46608e-10
1.46608e-10
1.46608e-10
1.46608e-10
1.46608e-10
1.46608e-10
1.46608e-10
1.46608e-10
1.46608e-10
1.46608e-10
1.46608e-10
1.46608e-10
1.46608e-10
1.46608e-10
1.46608e-10
1.46608e-10
1.46608e-10
1.46608e-10
1.46608e-10
1.46608e-10
1.46608e-10
1.46608e-10
1.46608e-10
1.46608e-10
1.46608e-10
1.46608e-10
1.46608e-10
1.46608e-10
1.46608e-10
1.46608e-10
1.46608e-10
1.46608e-10
1.46608e-10
1.46608e-10
1.46608e-10
1.46608e-10
1.46608e-10
1.46608e-10
1.46608e-10
1.46608e-10
1.46608e-10
1.46608e-10
1.46608e-10
1.46608e-10
1.46608e-10
1.46608e-10
1.46608e-10
1.46608e-10
1.46608e-10
1.46608e-10
1.46608e-10
1.46608e-10
1.46608e-10
1.46608e-10
1.46608e-10
1.46608e-10
1.46608e-10
1.46608e-10
1.46608e-10
1.46608e-10
1.46608e-10
1.46608e-10
1.46608e-10
1.46608e-10
1.46608e-10
1.46608e-10
1.46608e-10
1.46608e-10
1.46608e-10
1.46608e-10
1.46608e-10
1.46608e-10
1.46608e-10
1.46608e-10
1.46608e-10
1.46608e-10
1.46608e-10
1.46608e-10
1.46608e-10
1.46608e-10
1.46608e-10
1.46608e-10
1.46608e-10
1.46608e-10
1.46608e-10
1.46608e-10
1.46608e-10
1.46608e-10
1.46608e-10
1.46608e-10
1.46608e-10
1.46608e-10
1.46608e-10
1.46608e-10
1.46608e-10
1.46608e-10
1.46608e-10
1.46608e-10
1.46608e-10
1.46608e-10
1.46608e-10
1.46608e-10
1.46608e-10
1.46608e-10
1.46608e-10
1.46608e-10
1.46608e-10
1.46608e-10
1.46608e-10
1.46608e-10
1.46608e-10
1.46608e-10
1.46608e-10
1.46608e-10
1.46608e-10
1.46608e-10
1.46608e-10
1.46608e-10
1.46608e-10
1.46608e-10
1.46608e-10
1.46608e-10
1.46608e-10
1.46608e-10
1.46608e-10
1.46608e-10
1.46608e-10
1.46608e-10
1.46608e-10
1.46608e-10
1.46608e-10
1.46608e-10
1.46608e-10
1.46608e-10
1.46608e-10
1.46608e-10
1.46608e-10
1.46608e-10
1.46608e-10
1.46608e-10
1.46608e-10
1.46608e-10
1.46608e-10
1.46608e-10
1.46608e-10
1.46608e-10
1.46608e-10
1.46608e-10
1.46608e-10
1.46608e-10
1.46608e-10
1.46608e-10
1.46608e-10
1.46608e-10
1.46608e-10
1.46608e-10
1.46608e-10
1.46608e-10
1.46608e-10
1.46608e-10
1.46608e-10
1.46608e-10
1.46608e-10
1.46608e-10
1.46608e-10
1.46608e-10
1.46608e-10
1.46608e-10
1.46608e-10
1.46608e-10
1.46608e-10
1.46608e-10
1.46608e-10
1.46608e-10
1.46608e-10
1.46608e-10
1.46608e-10

VECTORS velocity float
0.00572373 0.000598014 9.12397e-05
0.00572621 0.000569917 -4.83429e-05
0.00567181 0.000568612 -4.33804e-05
0.00587646 -0.000135369 -0.00074199
0.00624024 0.00166845 -0.00121478
0.00576055 0.000539701 -0.000343198
0.0060928 0.000746194 -0.000162292
0.00582475 0.00152504 -0.00111797
0.00603097 0.000581305 -2.7886e-05
0.00568772 0.000453546 -0.000285928
0.00587067 -0.00015339 -0.000291792
0.00582291 -0.000121928 -0.000752465
0.00556948 8.68268e-05 0.000131046
0.00559237 6.66117e-05 0.000200029
0.00602544 0.000585337 -3.02679e-05
0.00576382 -0.000107736 -0.000760686
0.00575028 0.000550222 -0.0003007
0.00609343 0.000553015 1.16274e-06
0.00563977 0.000126006 0.000196814
0.00570084 0.00155746 -0.00112622
0.006045 0.000576952 -2.14427e-05
0.00575189 0.00153781 -0.00111968
0.00599065 -0.000253622 -0.000201586
0.00569282 0.000567455 -4.58782e-05
0.00574777 -0.000101548 -0.000765213
0.00607162 0.000571808 -1.48529e-05
0.00576909 0.00055839 -0.000334004
0.00605027 0.000575719 -1.95904e-05
0.0062163 0.00165907 -0.00120865
0.00600354 0.000407375 -0.0002193
0.00581002 0.000573367 -0.000177912
0.0059364 0.00151692 -0.00112099
0.00566559 0.000566114 -4.0851e-05
0.00582793 0.000581463 -4.08425e-05
0.00577759 0.00155045 -0.00112752
0.00589483 -0.000156863 -0.000746337
0.00573128 0.000584315 -5.18255e-05
0.00585528 0.000589294 -4.48752e-05
0.00619318 0.00165306 -0.00120423
0.00597297 2.41155e-05 -0.00057219
0.00570661 0.000534571 -0.000315737
0.00586102 0.00151793 -0.00111675
0.00605643 0.000573361 -1.78479e-05
0.00576608 0.000562957 -0.000306377
0.00566736 -0.000153426 -0.000276254
0.00686687 0.00129665 -0.00107145
0.00575707 0.000556162 -0.000302415
0.00564535 -0.000194447 -0.000246239
0.00575454 0.000559304 -0.000302216
0.00617236 0.00165628 -0.00120451
-5.01993e-15 -7.41208e-15 7.69802e-14
0.00581771 0.000598261 -6.50125e-05
0.0058879 -0.000140753 -0.000741124
0.00584449 0.000583822 -4.14962e-05
0.00572342 0.000536052 -0.00030076
0.00673295 0.00136214 -0.00109424
0.00561363 -0.00013425 -0.00031246
0.00558048 0.000146488 0.000203065
0.00574945 0.00055089 -0.00030005
0.0058332 0.000580605 -3.9177e-05
0.00575336 0.000555958 -0.000301648
0.00578889 0.00153407 -0.00112016
0.00555586 0.00012904 0.000192761
0.0057403 0.000549841 -0.000303364
0.00604169 0.000578368 -2.35276e-05
0.0060601 0.000572654 -1.71055e-05
0.00585743 -0.000208199 -0.000246507
0.00576285 0.000587823 -4.99977e-05
0.00569496 -0.000225389 -0.000136853
0.00556374 -8.38786e-06 0.000217259
0.00571813 0.00058009 -4.81742e-05
0.00559141 0.000109479 0.000184913
0.00581314 -0.000152006 -0.000290186
0.00589771 0.00151277 -0.00111651
0.00554834 0.000134256 0.000189345
0.00581628 0.000580978 -4.1304e-05
0.00566555 0.000563308 -4.18491e-05
0.00568431 0.000425136 -0.000281881
0.00581143 0.000612837 -0.000156546
0.00575062 0.000551442 -0.000301569
0.00598953 -0.000171567 -0.000287198
0.00568376 0.000436548 -0.000280824
0.00608254 0.000564407 -5.46253e-06
0.00572271 0.000463677 -0.00028656
0.00578631 0.000597326 -0.000199101
0.0056873 0.000451516 -0.000285771
0.00584466 -0.000272969 -0.000106759
0.00607892 0.000568249 -1.11341e-05
0.00558898 0.000110902 0.000194545
0.00575873 0.000546818 -0.000305406
0.00563125 0.000107535 0.000198566
4.28373e-15 1.04977e-14 8.29594e-14
-1.01195e-22 -1.27651e-22 1.23839e-22
0.00558942 2.45844e-05 0.000208428
0.00584036 -0.000265838 -0.000111927
0.0056174 0.00011822 0.000193563
0.00583479 -0.000256409 -0.00011939
0.00575466 0.000555165 -0.000302141
0.00578944 0.000565246 -0.000305955
0.00589435 0.000510042 -4.58484e-05
0.00577194 0.000592393 -5.57443e-05
0.00585072 -0.000275953 -0.000104492
0.00558305 -0.000542363 0.000169994
0.00562717 0.000116794 0.000184576
0.00573293 0.000583936 -5.23886e-05
0.00572157 0.000549816 -0.000301045
0.00577782 0.000536451 -0.000337471
0.00561885 -0.000135991 -0.000293928
0.00574777 0.000556201 -0.000303557
0.00608338 0.000559081 -4.35221e-06
0.00569306 0.000584858 9.25916e-05
0.00568815 0.000465719 -0.000284515
0.00554928 9.605e-05 0.000193893
0.00609228 0.00055752 -1.61597e-06
0.00567721 0.00042706 -0.000280942
0.00584176 -0.000269827 -0.000108864
0.00607666 0.000571318 -1.42212e-05
0.00569113 0.000422148 -0.000282316
0.00562103 0.000148587 0.000187959
0.00562999 0.00020335 0.00018461
0.00573181 0.00057922 -4.75565e-05
0.00573681 0.000542392 -0.000300718
0.0057375 0.000537514 -0.000297862
0.00575634 0.000558992 -0.000303016
0.00571544 -0.000188555 -0.000257757
0.00563374 0.00047843 -0.000270434
0.00572089 0.00046279 -0.000289689
0.00581279 0.000592219 -5.34461e-05
0.00588351 -0.000282801 -0.000187919
0.00561428 0.000141625 0.000210304
0.00583854 -0.000261343 -0.000115582
0.00550138 -3.08049e-05 -0.000240323
0.00585785 -0.000273164 -0.000107303
0.00562901 0.000113991 0.000202344
0.00590589 -0.000275706 -0.000194542
0.00609004 0.000552635 1.05111e-07
0.00537725 1.03792e-05 0.000210159
0.00565008 0.000145692 0.000184733
0.00590338 -0.00028932 -0.0001794
0.00585427 -0.000275176 -0.00010525
0.00586221 -0.00027056 -0.000109649
0.00588575 -0.000278272 -0.000188948
-3.83932e-14 8.16616e-14 2.95881e-13
0.00604948 -0.000238681 -0.000236032
0.00576044 0.00066938 -0.000123969
0.00566148 0.000128753 0.000207021
0.00560246 0.000132928 0.000211432
0.00587843 -0.000256873 -0.000119512
0.00556909 5.46305e-05 0.000213247
0.00572605 0.000527117 -0.000296357
0.00549029 0.000829964 8.86273e-05
0.00542536 8.94492e-05 0.000190762
0.00543647 5.92974e-05 0.000181417
0.00559356 0.000139268 -0.000282549
0.00565192 0.000557679 -0.000321241
0.00561139 -0.000327574 -0.000124988
0.00578041 0.000545376 -0.000323471
0.0058871 -0.000250764 -0.000125538
0.00562069 -0.000217851 -0.0002263
0.0059151 -0.000225872 -0.000148801
0.00557999 0.000127046 0.000179083
0.00568001 0.000171394 0.000192143
0.00568385 0.000571053 9.13248e-05
0.00562345 0.000113518 0.000186935
0.00575168 0.00048108 -0.000322332
0.00550635 0.000205155 0.000184589
0.00554762 0.000151411 0.000187439
0.00573102 0.000545756 -0.000286774
0.0058293 0.00056764 -9.56995e-05
0.00569609 0.000593108 9.22912e-05
0.00564444 0.000196905 -0.000243895
0.00596597 0.000576026 -3.52223e-05
0.00567278 -7.96721e-05 0.000305188
0.00566142 0.000572313 -0.000300149
0.00560879 0.000172329 0.000188184
0.00567378 7.63383e-05 0.000204619
0.00568555 0.000117243 0.000203002
0.00571739 0.000165 -0.000130291
0.00573601 -0.000154972 -0.000281342
0.00559749 0.000147611 0.000161914
0.0058493 -0.00027527 -0.000105034
0.00559906 4.34082e-05 0.000203278
0.00592497 -0.000241299 -0.000221597
0.00571734 0.000443506 -0.000285286
0.00560949 0.000106682 0.000195672
0.00589809 -0.000277168 -0.000172993
0.00596768 -0.000263004 -0.000209168
0.00586506 -0.000247718 -0.000127982
0.00563141 -0.000146096 -0.00027961
0.00560274 -0.000190375 -0.00024766
0.00573881 0.000546459 -1.84675e-05
0.00570405 0.000544835 -3.03483e-05
0.00557379 8.22681e-06 0.000214874
0.00571263 0.000587722 9.28802e-05
0.00569939 0.000582617 -5.36979e-05
0.00556133 0.000198353 -0.00023978
0.00587882 -0.00025565 -0.000123488
0.00566593 0.000539692 9.185e-05
0.00560985 0.000123865 0.000191804
0.00609572 0.000553993 1.22163e-06
0.00564079 8.38023e-05 0.000194409
0.00580239 0.000567766 -0.00030754
0.00588085 -0.000266963 -0.000202482
0.00582925 0.000554394 -4.2565e-05
0.00561195 0.00012083 8.25732e-05
0.00559112 0.000192589 -0.000240974
0.00553604 0.000203127 -0.000243022
0.00553947 8.02772e-05 0.000195783
0.00591276 -0.00031173 -0.000202745
0.00566602 6.008e-05 0.000219471
0.00561853 0.000196199 -0.000541226
0.00556447 0.000572558 -0.000298849
0.00590681 -0.000293244 -0.00019017
0.00569966 -0.000338583 -0.000128722
0.0055005 -0.000312812 -0.000135162
0.0062583 0.000435111 0.000115203
0.00585834 2.38774e-05 -0.00032756
0.00623032 0.000434079 0.000111572
0.00607641 -0.00016813 -0.000204626
0.00565966 0.000132269 0.000199856
0.00580364 0.00047105 2.00178e-05
0.00565786 0.000282679 8.89209e-05
0.0058911 -0.000247774 -0.000127411
0.00556308 -1.18643e-05 1.28601e-05
0.00576635 0.000281017 9.17193e-05
0.00588612 -0.000246932 -0.00013297
0.00567657 0.000447649 -0.000285938
0.00567479 0.000284563 8.88943e-05
0.00563031 0.000195068 -0.00024296
0.00566379 0.000289971 8.65684e-05
0.00553777 -0.000193008 -0.000154231
0.0055976 0.000141474 0.000192297
0.00597054 -0.000212066 -0.000251319
0.00558675 -0.00014002 -0.000137716
0.00565863 0.000275912 9.21976e-05
0.004819 -0.000466974 -0.0010785
0.00567688 -0.000223772 -0.000219411
0.00556065 -0.000321523 -0.0001338
0.00590274 0.000240488 0.000107762
0.00587107 -0.000266447 -0.000113913
0.00565633 0.000197248 -0.000244369
0.00564685 9.72618e-05 0.000207147
0.00589443 -0.000298345 -0.000201934
0.00559805 -0.000109099 -0.00029781
0.00563465 0.000148396 0.000166879
0.00581626 0.000589808 -5.07824e-05
0.0056542 0.000181465 0.000175774
0.00553795 0.000201816 -0.000243835
0.00589976 -0.000288859 -0.00017999
0.00553045 0.00030827 7.62007e-05
0.00587935 -0.000251988 -0.000121692
0.00587163 -0.000245367 -0.000131188
0.00589561 -0.000252868 -0.000132955
0.00552628 -7.39114e-05 -0.00031793
0.00557655 0.000177476 -0.000235977
0.00560392 0.00019413 -0.000242212
0.00569357 0.00013311 0.000200238
0.00581144 0.000470638 2.13613e-05
0.0058463 -0.000291714 -0.000188823
0.00582284 -0.000250221 -0.000209282
0.00587967 -0.000263336 -0.000118473
0.00592169 -0.000304355 -0.000199505
0.00560987 6.66939e-05 0.000205146
0.00588677 -0.000259454 -0.000119624
0.00579116 -0.000193402 -0.000252941
0.00554898 0.00014681 0.000196978
0.00546475 0.000364035 -0.0001174
0.0057506 -0.000236368 -0.000213955
0.00570506 -8.37056e-05 -0.000337924
0.00561903 0.000193993 -0.000241842
0.00589528 -0.000275043 -0.000162615
0.00572664 0.000543151 -0.00029758
0.00586062 2.31007e-05 -0.000326126
0.00564873 0.000285656 8.81284e-05
0.00569245 0.00048194 -0.000286919

VECTORS force float
-3.74605e-12 1.11528e-10 -7.64102e-12
3.17433e-10 -3.338e-10 2.11107e-10
-3.16218e-11 -1.85038e-11 6.20121e-11
8.0145e-11 7.42547e-11 -7.82824e-11
3.61977e-12 1.89407e-11 -9.57112e-12
-9.40049e-11 1.01707e-10 4.77804e-11
3.07026e-10 -1.65762e-10 1.62361e-10
-4.00237e-14 -2.94033e-12 1.47465e-12
5.48719e-12 -1.10535e-10 8.50915e-11
-3.61927e-10 1.28897e-10 -5.01786e-11
-2.33869e-10 -5.12552e-11 7.36922e-11
-2.68033e-11 1.45377e-10 -1.62605e-10
3.20269e-10 -9.34802e-12 -1.86924e-12
1.00153e-10 -3.65116e-10 -4.16641e-11
3.87539e-11 -1.63334e-10 1.30739e-10
-2.94802e-10 2.2974e-10 -2.46379e-10
2.73506e-11 3.30725e-11 -1.22524e-11
1.05741e-10 -4.35197e-11 4.6031e-11
-2.85795e-10 2.55036e-11 1.00722e-11
3.31481e-12 -1.814e-11 1.04445e-11
4.16151e-12 5.83958e-11 -3.42779e-11
3.41954e-13 -2.14733e-12 1.06128e-12
-1.83622e-10 4.29836e-10 -2.38126e-10
4.65166e-10 5.6906e-12 -1.43639e-10
-3.4566e-11 1.70396e-10 -1.96489e-10
-2.20108e-12 6.02e-11 -5.58719e-11
-2.30137e-10 9.10109e-11 5.9744e-10
-3.09323e-11 9.89977e-11 -7.94881e-11
3.17554e-12 1.7037e-11 -8.60747e-12
-9.81753e-11 -2.13713e-10 5.34217e-11
-6.56805e-11 1.14248e-10 1.33441e-10
-4.91865e-13 -3.71037e-12 1.89909e-12
8.94983e-11 2.80965e-11 -3.57061e-11
-3.2845e-12 -9.20637e-11 8.27811e-11
-6.73181e-13 -1.604e-11 8.12161e-12
2.56339e-11 -1.348e-10 3.67335e-12
-1.24357e-10 4.84183e-11 -3.79543e-11
-6.5252e-11 1.84782e-11 -7.61002e-11
2.39981e-12 1.5565e-11 -7.75722e-12
-1.11038e-10 -1.9997e-10 -8.75266e-12
1.2168e-11 4.42219e-12 2.35993e-11
-1.4415e-13 -2.88905e-12 1.41769e-12
6.35231e-11 1.23029e-10 -9.89421e-11
-1.25926e-10 -4.35344e-11 -3.15809e-11
2.91768e-10 8.36438e-11 -1.26282e-10
1.11581e-10 -5.04312e-11 3.36815e-11
1.31941e-11 -6.59255e-11 8.28501e-12
1.08881e-10 -1.45042e-10 7.01715e-11
-6.89529e-11 -3.72435e-11 1.22655e-11
1.88736e-12 1.32236e-11 -6.66991e-12
-6.63037e-24 5.27328e-24 0.0
5.5691e-11 8.15216e-11 4.63343e-13
-7.18121e-11 -1.2268e-11 -1.14139e-11
-2.37984e-11 6.70808e-11 -1.2653e-10
2.39694e-11 3.72013e-11 1.63816e-11
-1.2173e-10 5.93205e-11 -3.52824e-11
-2.64451e-11 1.39511e-10 -5.75923e-10
2.65619e-10 3.17494e-11 -1.31136e-10
5.84446e-11 3.33815e-11 -7.0103e-12
7.87057e-11 -2.10814e-11 1.13203e-10
3.39539e-11 -4.89227e-11 3.55552e-12
9.6007e-14 -2.68469e-12 1.2888e-12
4.53128e-11 7.74516e-11 -3.82383e-11
4.16864e-11 -2.01932e-12 -7.46684e-11
3.12532e-11 -3.28171e-11 2.75188e-11
2.4831e-11 1.13547e-10 -9.28541e-11
-2.45852e-11 3.62029e-11 -8.88743e-11
-3.08831e-10 -2.58253e-10 2.56622e-10
-3.51654e-11 -2.57376e-10 2.16444e-10
-3.25894e-11 -4.80276e-11 -1.21424e-10
-2.47279e-11 1.4702e-10 -1.25733e-10
1.88498e-10 1.38445e-11 3.76348e-11
-3.61367e-11 -3.02881e-11 1.83382e-11
-2.56965e-13 -3.15215e-12 1.57751e-12
2.92947e-10 -8.90751e-11 -5.53748e-11
-1.76549e-10 6.86288e-11 -6.79345e-11
3.83452e-10 -4.0909e-11 -4.66031e-11
1.20036e-10 -6.40421e-11 -9.77536e-12
-4.97267e-11 -5.51833e-11 -1.56475e-10
3.454e-11 2.48948e-11 -4.62623e-11
4.2382e-10 -7.5984e-11 3.85766e-11
1.04249e-10 3.31211e-11 3.10952e-11
-5.42063e-11 -1.24038e-10 1.0008e-10
5.80006e-11 -2.6076e-10 -9.51411e-11
1.36089e-11 -1.94614e-11 -1.32884e-10
-9.1122e-11 -1.65283e-11 -7.53042e-12
-9.05418e-11 -2.35369e-10 2.0389e-10
-3.5913e-13 -7.43187e-11 8.287e-11
8.71622e-11 2.13685e-10 -3.49386e-11
-7.76375e-11 8.61328e-11 1.91573e-11
1.21881e-10 4.55781e-10 -1.45635e-10
-3.04251e-21 1.02868e-21 2.91581e-23
0.0 0.0 0.0
-1.5384e-10 -2.12652e-10 2.41768e-11
-7.4518e-11 -2.65048e-10 2.23188e-10
6.03335e-11 1.19443e-10 2.05982e-10
-7.63641e-11 -2.58424e-10 2.13291e-10
3.35623e-11 -5.17955e-11 2.31058e-12
-4.84621e-12 3.53582e-11 7.29324e-12