# vtk DataFile Version 3.0
LIGGGHTS particles timestep 64800000
ASCII
DATASET POLYDATA
POINTS 269 float
0.384597 0.017574 5.2553e-05
0.384183 0.0168012 5.20101e-05
0.384398 0.0183409 5.22917e-05
0.385011 0.0167669 5.30953e-05
0.385108 0.0179216 5.32215e-05
0.384328 0.0189229 5.22005e-05
0.384815 0.0184943 5.2838e-05
0.383633 0.0198107 0.000141047
0.384888 0.0164946 5.29341e-05
0.383975 0.0191878 5.17382e-05
0.383986 0.0179347 5.17518e-05
0.384309 0.0184568 5.21751e-05
0.384724 0.0196711 5.2719e-05
0.383627 0.0191808 5.12817e-05
0.384698 0.0173096 5.26849e-05
0.383912 0.0197978 5.16557e-05
0.3836 0.0186919 5.12471e-05
0.38463 0.0163628 5.2596e-05
0.383873 0.0175415 5.16041e-05
0.384082 0.0187593 5.18786e-05
0.38362 0.018333 5.12729e-05
0.384785 0.0180411 5.27984e-05
0.384182 0.0187901 5.20087e-05
0.384214 0.0168974 5.20505e-05
0.384097 0.0179819 5.18978e-05
0.383861 0.0179725 5.15887e-05
0.247451 0.0181454 0.00545794
0.383885 0.0177742 5.16197e-05
0.384808 0.0177259 5.28287e-05
0.383661 0.0180547 5.13262e-05
0.383892 0.017874 5.16292e-05
0.384678 0.0170812 5.26589e-05
0.38367 0.0198343 5.13385e-05
0.383747 0.018122 5.14388e-05
0.38421 0.0181244 5.20462e-05
0.384672 0.0176506 5.26503e-05
0.3842 0.0172102 5.20324e-05
0.384502 0.0170166 5.24278e-05
0.383879 0.0191558 5.16127e-05
0.384166 0.0195438 5.19874e-05
0.389018 0.0171786 0.00807911
0.384626 0.0177793 5.25903e-05
0.38448 0.0176805 5.23994e-05
0.384734 0.0175226 5.27322e-05
0.383715 0.0189014 5.13974e-05
0.384694 0.0180885 5.26794e-05
0.383635 0.0196308 5.12923e-05
0.383633 0.0197417 5.12894e-05
0.378022 0.019866 0.005332
0.384015 0.0182136 5.17907e-05
0.384827 0.0175585 5.28542e-05
0.384273 0.018577 5.21278e-05
0.383576 0.0184516 5.12157e-05
0.383269 0.0178073 0.0053438
0.384532 0.0167022 5.24676e-05
0.383738 0.0178628 0.000134686
0.384602 0.0180485 5.25593e-05
0.384886 0.0184092 5.29315e-05
0.383711 0.0207759 5.13922e-05
0.384746 0.0161015 5.27478e-05
0.383776 0.0187708 5.14768e-05
0.384005 0.0195345 5.17769e-05
0.385165 0.0173714 5.3297e-05
0.384305 0.0182313 5.21695e-05
0.384526 0.0179781 5.24589e-05
0.384206 0.018252 5.204e-05
0.384022 0.0174606 0.000129946
0.383618 0.019402 5.12705e-05
0.38419 0.0173097 5.20191e-05
0.38406 0.018661 5.18498e-05
0.384602 0.0164616 5.25589e-05
0.383996 0.0188416 5.17653e-05
0.384491 0.0201706 5.24132e-05
0.38452 0.0190801 5.24517e-05
0.384397 0.0173075 5.22905e-05
0.384597 0.0181855 5.25521e-05
0.383831 0.0209331 5.15494e-05
0.384476 0.0180662 5.23933e-05
0.384562 0.0161408 5.25065e-05
0.383622 0.0181471 5.12759e-05
0.384831 0.0190845 5.28587e-05
0.384215 0.0186925 5.20517e-05
0.383727 0.0186081 5.14125e-05
0.385068 0.0173509 5.31688e-05
0.385082 0.0166964 5.31883e-05
0.384496 0.0175635 5.24204e-05
0.383853 0.017607 0.000124411
0.383734 0.0182216 5.14225e-05
0.383883 0.019664 5.16177e-05
0.0643568 0.0187248 0.00531097
0.230779 0.0182774 0.00551293
0.383882 0.0192561 5.16166e-05
0.384193 0.0178027 5.20228e-05
0.384063 0.017083 6.97444e-05
0.383948 0.017718 0.000104427
0.383632 0.018957 5.12883e-05
0.383826 0.0193387 5.15428e-05
0.384848 0.0181614 5.28809e-05
0.383753 0.0180166 5.14473e-05
0.384668 0.0204846 5.26453e-05
0.383989 0.0177926 5.17563e-05
0.385064 0.0164614 5.31641e-05
0.38433 0.0192224 5.22022e-05
0.384884 0.0180547 5.29282e-05
0.383529 0.0177712 0.00534448
0.38484 0.0171968 5.28703e-05
0.383716 0.0179216 5.13979e-05
0.384591 0.0171358 5.25447e-05
0.385676 0.0164514 5.39659e-05
0.384725 0.0177988 5.27197e-05
0.383915 0.0205035 5.16596e-05
0.38514 0.0150589 5.32639e-05
0.384404 0.0182411 5.22998e-05
0.384542 0.0171958 0.00011579
0.384272 0.0175884 5.21263e-05
0.384153 0.017122 5.19705e-05
0.385036 0.0171379 5.31278e-05
0.383972 0.0175194 5.17344e-05
0.385069 0.0180992 5.31713e-05
0.38393 0.0181518 5.16787e-05
0.384249 0.0183496 5.20969e-05
0.383899 0.019542 5.16388e-05
0.384119 0.0178816 5.19262e-05
0.383808 0.0198276 5.15186e-05
0.384468 0.0171731 5.23836e-05
0.384752 0.0179004 5.27554e-05
0.38497 0.0181068 5.30405e-05
0.38496 0.0184888 5.30276e-05
0.384762 0.0181437 0.00010086
0.383431 0.0175376 0.00541532
0.384977 0.0180356 0.000122854
0.383612 0.0185766 5.12628e-05
0.384037 0.0174001 5.18196e-05
0.385015 0.0183005 5.30994e-05
0.384846 0.0192085 5.28787e-05
0.384832 0.0188472 5.28603e-05
0.383925 0.0174525 0.000150035
0.372849 0.0174696 0.00711734
0.384945 0.0179716 5.30077e-05
0.384152 0.0170127 5.1969e-05
0.0219312 0.0187687 0.00551176
0.384401 0.0175945 5.22958e-05
0.384201 0.0184387 5.20343e-05
0.383567 0.0182997 0.0001292
0.384488 0.0195864 5.24091e-05
0.384755 0.0166629 5.27588e-05
0.383839 0.017734 0.000130834
0.383754 0.0192252 5.14488e-05
0.384912 0.0178665 5.29654e-05
0.384015 0.0172617 5.17901e-05
0.384049 0.019854 5.18343e-05
0.383868 0.0183586 5.15983e-05
0.383898 0.0186831 5.16376e-05
0.384373 0.0180412 5.22591e-05
0.384964 0.0172331 5.30331e-05
0.384622 0.0182827 5.25858e-05
0.38403 0.0176512 5.18102e-05
0.383949 0.0184198 5.17034e-05
0.384829 0.019706 5.28566e-05
0.384069 0.019275 5.18608e-05
0.384108 0.0184937 5.1912e-05
0.384721 0.0202918 5.27147e-05
0.384677 0.0179669 5.2657e-05
0.38458 0.01769 5.25298e-05
0.383675 0.0194917 5.13448e-05
0.384422 0.0170842 5.23237e-05
0.383835 0.0176732 5.15546e-05
0.383917 0.0174364 5.16608e-05
0.379007 0.0181935 0.00708979
0.384642 0.0174241 5.26115e-05
0.384317 0.0174941 5.21859e-05
0.384089 0.0190472 5.18867e-05
0.383639 0.0190812 5.12976e-05
0.383829 0.0181861 5.15464e-05
0.384121 0.0180806 5.19285e-05
0.37867 0.0167446 0.00767883
0.383829 0.0186041 5.15461e-05
0.383899 0.0194311 5.16383e-05
0.385014 0.0178743 5.30989e-05
0.38431 0.0181251 5.21772e-05
0.383928 0.0176355 5.1676e-05
0.384564 0.0165956 5.2509e-05
0.38396 0.0190065 5.17177e-05
0.384465 0.0168375 5.23795e-05
0.384328 0.0173926 5.22004e-05
0.383584 0.0182394 5.12257e-05
0.384928 0.0182464 5.29858e-05
0.384351 0.0171769 5.22304e-05
0.383783 0.0177587 5.14868e-05
0.384062 0.0199546 5.18516e-05
0.384476 0.0184173 5.2394e-05
0.38469 0.0169374 5.26743e-05
0.378901 0.0177408 0.00727379
0.384139 0.0175934 5.1953e-05
0.384066 0.0191461 5.18572e-05
0.384429 0.0178896 5.23331e-05
0.384944 0.0197441 5.30067e-05
0.383735 0.0183686 5.14232e-05
0.384799 0.0201778 5.28171e-05
0.384425 0.0174559 5.23277e-05
0.384954 0.0176443 5.30204e-05
0.384046 0.0183944 5.18314e-05
0.378922 0.0178313 0.00723699
0.378859 0.0175597 0.00734739
0.3837 0.0187044 5.13771e-05
0.384584 0.0183818 5.25351e-05
0.384362 0.0190848 5.22448e-05
0.384253 0.0171253 5.21015e-05
0.383793 0.0178583 5.14995e-05
0.384104 0.017735 5.19067e-05
0.385085 0.017804 5.3192e-05
0.384024 0.0180544 5.1802e-05
0.378571 0.0162907 0.00786414
0.37863 0.016563 0.00775296
0.378551 0.0162004 0.00790216
0.385388 0.0170488 5.35891e-05
0.383955 0.0173432 5.17118e-05
0.378591 0.0163814 0.00782714
0.378774 0.0171975 0.00749459
0.383832 0.0184522 5.15503e-05
0.37871 0.0169259 0.00760499
0.383324 0.016787 0.008317
0.384554 0.0174747 5.24966e-05
0.378795 0.0172881 0.00745779
0.378986 0.0181029 0.00712659
0.378732 0.0170164 0.00756819
0.38386 0.0190057 5.15867e-05
0.383997 0.0204249 5.17662e-05
0.385041 0.0180031 5.31334e-05
0.384273 0.0170016 5.21283e-05
0.378816 0.0173786 0.00742099
0.385186 0.0206932 5.33243e-05
0.38441 0.0181413 5.23071e-05
0.383788 0.0179468 0.000114976
0.378689 0.0168353 0.00764179
0.383918 0.0179362 0.000125454
0.379028 0.018284 0.00705299
0.384739 0.0172129 5.27388e-05
0.387501 0.0145625 5.63555e-05
0.384702 0.0182078 5.26903e-05
0.383979 0.0187428 5.17433e-05
0.384426 0.0198337 5.23282e-05
0.37888 0.0176502 0.00731059
0.384203 0.0175155 5.20363e-05
0.378837 0.0174691 0.00738419
0.38433 0.0170745 8.97824e-05
0.384997 0.0161341 5.30769e-05
0.384829 0.0182656 5.28558e-05
0.379103 0.018227 0.00708529
0.378943 0.0179218 0.00720019
0.384787 0.0186827 5.2801e-05
0.378611 0.0164722 0.00779005
0.383691 0.0181655 0.000121884
0.384575 0.0172659 5.25233e-05
0.383743 0.0185094 5.14341e-05
0.38486 0.0176471 8.591e-05
0.38394 0.0182818 5.16914e-05
0.384537 0.0180451 0.000128361
0.384074 0.017495 5.18677e-05
0.383806 0.0207438 5.15163e-05
0.384755 0.017014 5.27594e-05
0.383927 0.0199158 5.1675e-05
0.383955 0.0185891 5.1711e-05
0.378964 0.0180124 0.00716339
0.385006 0.0184002 5.30883e-05
0.38363 0.018808 5.12861e-05
0.37865 0.0166538 0.00771589
0.378753 0.017107 0.00753139
0.384681 0.0189793 5.2662e-05

VERTICES 269 538
1 0
1 1
1 2
1 3
1 4
1 5
1 6
1 7
1 8
1 9
1 10
1 11
1 12
1 13
1 14
1 15
1 16
1 17
1 18
1 19
1 20
1 21
1 22
1 23
1 24
1 25
1 26
1 27
1 28
1 29
1 30
1 31
1 32
1 33
1 34
1 35
1 36
1 37
1 38
1 39
1 40
1 41
1 42
1 43
1 44
1 45
1 46
1 47
1 48
1 49
1 50
1 51
1 52
1 53
1 54
1 55
1 56
1 57
1 58
1 59
1 60
1 61
1 62
1 63
1 64
1 65
1 66
1 67
1 68
1 69
1 70
1 71
1 72
1 73
1 74
1 75
1 76
1 77
1 78
1 79
1 80
1 81
1 82
1 83
1 84
1 85
1 86
1 87
1 88
1 89
1 90
1 91
1 92
1 93
1 94
1 95
1 96
1 97
1 98
1 99
1 100
1 101
1 102
1 103
1 104
1 105
1 106
1 107
1 108
1 109
1 110
1 111
1 112
1 113
1 114
1 115
1 116
1 117
1 118
1 119
1 120
1 121
1 122
1 123
1 124
1 125
1 126
1 127
1 128
1 129
1 130
1 131
1 132
1 133
1 134
1 135
1 136
1 137
1 138
1 139
1 140
1 141
1 142
1 143
1 144
1 145
1 146
1 147
1 148
1 149
1 150
1 151
1 152
1 153
1 154
1 155
1 156
1 157
1 158
1 159
1 160
1 161
1 162
1 163
1 164
1 165
1 166
1 167
1 168
1 169
1 170
1 171
1 172
1 173
1 174
1 175
1 176
1 177
1 178
1 179
1 180
1 181
1 182
1 183
1 184
1 185
1 186
1 187
1 188
1 189
1 190
1 191
1 192
1 193
1 194
1 195
1 196
1 197
1 198
1 199
1 200
1 201
1 202
1 203
1 204
1 205
1 206
1 207
1 208
1 209
1 210
1 211
1 212
1 213
1 214
1 215
1 216
1 217
1 218
1 219
1 220
1 221
1 222
1 223
1 224
1 225
1 226
1 227
1 228
1 229
1 230
1 231
1 232
1 233
1 234
1 235
1 236
1 237
1 238
1 239
1 240
1 241
1 242
1 243
1 244
1 245
1 246
1 247
1 248
1 249
1 250
1 251
1 252
1 253
1 254
1 255
1 256
1 257
1 258
1 259
1 260
1 261
1 262
1 263
1 264
1 265
1 266
1 267
1 268

POINT_DATA 269
SCALARS id int 1
LOOKUP_TABLE default
1
2
4
5
6
7
8
9
10
11
12
13
14
16
17
19
21
22
23
24
26
27
28
29
30
31
32
33
35
36
37
38
39
41
42
44
45
47
48
49
50
51
52
53
54
55
56
57
59
60
61
62
63
64
65
66
67
68
69
70
71
72
73
74
76
77
78
79
80
82
83
84
85
86
87
88
89
90
91
92
93
94
95
96
97
98
99
100
101
102
103
104
105
106
107
108
109
110
111
112
113
114
115
116
117
118
119
120
121
122
123
124
125
127
128
129
130
131
132
133
134
135
136
137
138
140
141
142
143
144
146
147
148
149
150
151
153
154
155
156
157
158
159
160
162
164
165
166
167
168
169
170
171
172
173
174
176
177
178
179
182
183
184
185
186
187
188
189
190
191
192
193
194
195
196
197
198
199
200
201
202
203
204
206
207
208
209
210
211
212
213
214
215
216
217
218
219
220
222
224
225
226
227
228
229
230
232
233
234
235
236
237
239
240
241
242
243
244
246
248
249
250
251
252
253
254
255
256
257
258
259
260
261
262
263
264
265
266
268
269
270
271
272
273
274
275
276
278
279
280
281
283
284
285
286
287
288
289
290
291
292
293
294
295
296
297
298
299
300

SCALARS type int 1
LOOKUP_TABLE default
1
1
1
1
1
1
1
1
1
1
1
1
1
1
1
1
1
1
1
1
1
1
1
1
1
1
1
1
1
1
1
1
1
1
1
1
1
1
1
1
1
1
1
1
1
1
1
1
1
1
1
1
1
1
1
1
1
1
1
1
1
1
1
1
1
1
1
1
1
1
1
1
1
1
1
1
1
1
1
1
1
1
1
1
1
1
1
1
1
1
1
1
1
1
1
1
1
1
1
1
1
1
1
1
1
1
1
1
1
1
1
1
1
1
1
1
1
1
1
1
1
1
1
1
1
1
1
1
1
1
1
1
1
1
1
1
1
1
1
1
1
1
1
1
1
1
1
1
1
1
1
1
1
1
1
1
1
1
1
1
1
1
1
1
1
1
1
1
1
1
1
1
1
1
1
1
1
1
1
1
1
1
1
1
1
1
1
1
1
1
1
1
1
1
1
1
1
1
1
1
1
1
1
1
1
1
1
1
1
1
1
1
1
1
1
1
1
1
1
1
1
1
1
1
1
1
1
1
1
1
1
1
1
1
1
1
1
1
1
1
1
1
1
1
1
1
1
1
1
1
1
1
1
1
1
1
1
1
1
1
1
1
1
1
1
1
1
1
1

SCALARS radius float 1
LOOKUP_TABLE default
5e-05
5e-05
5e-05
5e-05
5e-05
5e-05
5e-05
5e-05
5e-05
5e-05
5e-05
5e-05
5e-05
5e-05
5e-05
5e-05
5e-05
5e-05
5e-05
5e-05
5e-05
5e-05
5e-05
5e-05
5e-05
5e-05
5e-05
5e-05
5e-05
5e-05
5e-05
5e-05
5e-05
5e-05
5e-05
5e-05
5e-05
5e-05
5e-05
5e-05
5e-05
5e-05
5e-05
5e-05
5e-05
5e-05
5e-05
5e-05
5e-05
5e-05
5e-05
5e-05
5e-05
5e-05
5e-05
5e-05
5e-05
5e-05
5e-05
5e-05
5e-05
5e-05
5e-05
5e-05
5e-05
5e-05
5e-05
5e-05
5e-05
5e-05
5e-05
5e-05
5e-05
5e-05
5e-05
5e-05
5e-05
5e-05
5e-05
5e-05
5e-05
5e-05
5e-05
5e-05
5e-05
5e-05
5e-05
5e-05
5e-05
5e-05
5e-05
5e-05
5e-05
5e-05
5e-05
5e-05
5e-05
5e-05
5e-05
5e-05
5e-05
5e-05
5e-05
5e-05
5e-05
5e-05
5e-05
5e-05
5e-05
5e-05
5e-05
5e-05
5e-05
5e-05
5e-05
5e-05
5e-05
5e-05
5e-05
5e-05
5e-05
5e-05
5e-05
5e-05
5e-05
5e-05
5e-05
5e-05
5e-05
5e-05
5e-05
5e-05
5e-05
5e-05
5e-05
5e-05
5e-05
5e-05
5e-05
5e-05
5e-05
5e-05
5e-05
5e-05
5e-05
5e-05
5e-05
5e-05
5e-05
5e-05
5e-05
5e-05
5e-05
5e-05
5e-05
5e-05
5e-05
5e-05
5e-05
5e-05
5e-05
5e-05
5e-05
5e-05
5e-05
5e-05
5e-05
5e-05
5e-05
5e-05
5e-05
5e-05
5e-05
5e-05
5e-05
5e-05
5e-05
5e-05
5e-05
5e-05
5e-05
5e-05
5e-05
5e-05
5e-05
5e-05
5e-05
5e-05
5e-05
5e-05
5e-05
5e-05
5e-05
5e-05
5e-05
5e-05
5e-05
5e-05
5e-05
5e-05
5e-05
5e-05
5e-05
5e-05
5e-05
5e-05
5e-05
5e-05
5e-05
5e-05
5e-05
5e-05
5e-05
5e-05
5e-05
5e-05
5e-05
5e-05
5e-05
5e-05
5e-05
5e-05
5e-05
5e-05
5e-05
5e-05
5e-05
5e-05
5e-05
5e-05
5e-05
5e-05
5e-05
5e-05
5e-05
5e-05
5e-05
5e-05
5e-05
5e-05
5e-05
5e-05
5e-05
5e-05
5e-05
5e-05
5e-05
5e-05
5e-05
5e-05
5e-05
5e-05
5e-05
5e-05
5e-05
5e-05
5e-05
5e-05
5e-05
5e-05
5e-05
5e-05
5e-05
5e-05
5e-05
5e-05
5e-05
5e-05
5e-05

SCALARS mass float 1
LOOKUP_TABLE default
1.46608e-10
1.46608e-10
1.46608e-10
1.46608e-10
1.46608e-10
1.46608e-10
1.46608e-10
1.46608e-10
1.46608e-10
1.46608e-10
1.46608e-10
1.46608e-10
1.46608e-10
1.46608e-10
1.46608e-10
1.46608e-10
1.46608e-10
1.46608e-10
1.46608e-10
1.46608e-10
1.46608e-10
1.46608e-10
1.46608e-10
1.46608e-10
1.46608e-10
1.46608e-10
1.46608e-10
1.46608e-10
1.46608e-10
1.46608e-10
1.46608e-10
1.46608e-10
1.46608e-10
1.46608e-10
1.46608e-10
1.46608e-10
1.46608e-10
1.46608e-10
1.46608e-10
1.46608e-10
1.46608e-10
1.46608e-10
1.46608e-10
1.46608e-10
1.46608e-10
1.46608e-10
1.46608e-10
1.46608e-10
1.46608e-10
1.46608e-10
1.46608e-10
1.46608e-10
1.46608e-10
1.46608e-10
1.46608e-10
1.46608e-10
1.46608e-10
1.46608e-10
1.46608e-10
1.46608e-10
1.46608e-10
1.46608e-10
1.46608e-10
1.46608e-10
1.46608e-10
1.46608e-10
1.46608e-10
1.46608e-10
1.46608e-10
1.46608e-10
1.46608e-10
1.46608e-10
1.46608e-10
1.46608e-10
1.46608e-10
1.46608e-10
1.46608e-10
1.46608e-10
1.46608e-10
1.46608e-10
1.46608e-10
1.46608e-10
1.46608e-10
1.46608e-10
1.46608e-10
1.46608e-10
1.46608e-10
1.46608e-10
1.46608e-10
1.46608e-10
1.46608e-10
1.46608e-10
1.46608e-10
1.46608e-10
1.46608e-10
1.46608e-10
1.46608e-10
1.46608e-10
1.46608e-10
1.46608e-10
1.46608e-10
1.46608e-10
1.46608e-10
1.46608e-10
1.46608e-10
1.46608e-10
1.46608e-10
1.46608e-10
1.46608e-10
1.46608e-10
1.46608e-10
1.46608e-10
1.46608e-10
1.46608e-10
1.46608e-10
1.46608e-10
1.46608e-10
1.46608e-10
1.46608e-10
1.46608e-10
1.46608e-10
1.46608e-10
1.46608e-10
1.46608e-10
1.46608e-10
1.46608e-10
1.46608e-10
1.46608e-10
1.46608e-10
1.46608e-10
1.46608e-10
1.46608e-10
1.46608e-10
1.46608e-10
1.46608e-10
1.46608e-10
1.46608e-10
1.46608e-10
1.46608e-10
1.46608e-10
1.46608e-10
1.46608e-10
1.46608e-10
1.46608e-10
1.46608e-10
1.46608e-10
1.46608e-10
1.46608e-10
1.46608e-10
1.46608e-10
1.46608e-10
1.46608e-10
1.46608e-10
1.46608e-10
1.46608e-10
1.46608e-10
1.46608e-10
1.46608e-10
1.46608e-10
1.46608e-10
1.46608e-10
1.46608e-10
1.46608e-10
1.46608e-10
1.46608e-10
1.46608e-10
1.46608e-10
1.46608e-10
1.46608e-10
1.46608e-10
1.46608e-10
1.46608e-10
1.46608e-10
1.46608e-10
1.46608e-10
1.46608e-10
1.46608e-10
1.46608e-10
1.46608e-10
1.46608e-10
1.46608e-10
1.46608e-10
1.46608e-10
1.46608e-10
1.46608e-10
1.46608e-10
1.46608e-10
1.46608e-10
1.46608e-10
1.46608e-10
1.46608e-10
1.46608e-10
1.46608e-10
1.46608e-10
1.46608e-10
1.46608e-10
1.46608e-10
1.46608e-10
1.46608e-10
1.46608e-10
1.46608e-10
1.46608e-10
1.46608e-10
1.46608e-10
1.46608e-10
1.46608e-10
1.46608e-10
1.46608e-10
1.46608e-10
1.46608e-10
1.46608e-10
1.46608e-10
1.46608e-10
1.46608e-10
1.46608e-10
1.46608e-10
1.46608e-10
1.46608e-10
1.46608e-10
1.46608e-10
1.46608e-10
1.46608e-10
1.46608e-10
1.46608e-10
1.46608e-10
1.46608e-10
1.46608e-10
1.46608e-10
1.46608e-10
1.46608e-10
1.46608e-10
1.46608e-10
1.46608e-10
1.46608e-10
1.46608e-10
1.46608e-10
1.46608e-10
1.46608e-10
1.46608e-10
1.46608e-10
1.46608e-10
1.46608e-10
1.46608e-10
1.46608e-10
1.46608e-10
1.46608e-10
1.46608e-10
1.46608e-10
1.46608e-10
1.46608e-10
1.46608e-10
1.46608e-10
1.46608e-10
1.46608e-10
1.46608e-10
1.46608e-10
1.46608e-10
1.46608e-10
1.46608e-10
1.46608e-10
1.46608e-10
1.46608e-10
1.46608e-10
1.46608e-10
1.46608e-10
1.46608e-10
1.46608e-10
1.46608e-10
1.46608e-10

VECTORS velocity float
2.24034e-18 -4.17087e-22 -1.71052e-15
2.24035e-18 8.69793e-21 -1.71052e-15
1.07485e-20 2.38443e-20 -5.43521e-18
2.24035e-18 2.58975e-20 -1.71052e-15
1.7976e-18 -8.09055e-22 -1.37249e-15
-3.50272e-19 -1.60682e-20 2.6738e-16
1.79756e-18 4.81212e-21 -1.37249e-15
-8.75444e-20 3.20188e-21 -8.94037e-22
-9.20528e-19 2.82348e-21 7.02842e-16
-3.5019e-19 -2.80135e-21 2.67381e-16
-2.52752e-11 -4.99263e-12 4.86226e-12
1.79763e-18 -2.97186e-21 -1.37251e-15
8.71336e-19 -7.08703e-21 -6.65298e-16
-3.50179e-19 -5.25071e-22 2.67381e-16
2.24032e-18 -1.17336e-21 -1.71051e-15
2.81059e-18 3.89536e-21 -2.14593e-15
2.81054e-18 -2.2166e-21 -2.14593e-15
2.24032e-18 -1.08882e-21 -1.71051e-15
2.32179e-10 5.87834e-10 3.9597e-11
2.81058e-18 -4.67766e-22 -2.14593e-15
1.55807e-20 -1.46734e-20 -2.16686e-20
1.7976e-18 -1.09918e-21 -1.37251e-15
-3.5018e-19 2.19334e-22 2.6738e-16
-9.20561e-19 -1.86036e-21 7.02842e-16
1.79761e-18 1.19545e-21 -1.37249e-15
-1.4121e-11 3.92333e-13 -4.31587e-12
3.68047e-15 -5.32021e-14 -2.74087e-13
7.59554e-10 -1.13936e-10 -1.79361e-10
1.19602e-18 -2.21095e-21 -9.15732e-16
2.24037e-18 3.35301e-22 -1.71052e-15
-1.41518e-11 -3.7822e-11 -1.80596e-11
-9.20545e-19 1.84498e-21 7.02843e-16
-7.36191e-21 7.14203e-21 -2.02951e-19
-1.23691e-20 -4.80382e-21 -5.93616e-21
-3.16555e-19 -3.78879e-22 2.41808e-16
1.79762e-18 -5.58919e-23 -1.37251e-15
-3.43255e-10 -9.03656e-10 2.11789e-10
-9.20572e-19 -4.2271e-21 7.02844e-16
2.81059e-18 -3.01028e-21 -2.14593e-15
2.81055e-18 -2.47114e-20 -2.14593e-15
0.0156012 0.0277345 -0.0174705
1.79762e-18 3.3963e-22 -1.37251e-15
4.19906e-14 -4.08175e-15 -3.54748e-14
1.20259e-18 2.17414e-22 -9.15732e-16
-3.50214e-19 -2.84279e-22 2.67381e-16
-1.05165e-19 7.73235e-20 2.95939e-17
2.81058e-18 1.33401e-21 -2.14593e-15
1.24847e-21 6.07413e-21 -1.96932e-19
-5.01972e-15 -7.41197e-15 7.69802e-14
1.79764e-18 2.775e-20 -1.37251e-15
1.19945e-18 5.77815e-21 -9.15732e-16
1.79758e-18 8.0667e-22 -1.37249e-15
-3.50172e-19 6.27702e-23 2.67381e-16
-1.46645e-15 -3.32063e-15 -2.09204e-14
2.24033e-18 -5.97494e-23 -1.71051e-15
-1.10631e-11 -2.82584e-12 9.46366e-13
-5.06476e-20 -4.04528e-19 2.94066e-17
1.79761e-18 -1.82339e-23 -1.37251e-15
2.00506e-18 -2.84123e-22 -1.5309e-15
2.24033e-18 9.84271e-21 -1.71051e-15
-3.50188e-19 2.11604e-21 2.67382e-16
-3.50222e-19 -1.79337e-21 2.67382e-16
1.7976e-18 5.43199e-22 -1.37251e-15
1.79763e-18 1.67308e-21 -1.37251e-15
1.79763e-18 -1.09702e-21 -1.37251e-15
1.79756e-18 9.82808e-22 -1.37249e-15
3.96674e-11 -5.21291e-11 -4.20588e-12
-3.50176e-19 -4.33975e-22 2.67382e-16
-9.20572e-19 -3.49921e-25 7.02844e-16
-3.50167e-19 -1.35898e-21 2.67381e-16
2.24036e-18 -9.83501e-21 -1.71052e-15
2.81055e-18 -6.35756e-22 -2.14593e-15
8.71349e-19 4.64247e-21 -6.65297e-16
2.81057e-18 5.47117e-21 -2.14593e-15
2.24036e-18 -2.21432e-20 -1.71051e-15
1.79757e-18 1.26873e-21 -1.37249e-15
2.00504e-18 -4.74462e-21 -1.5309e-15
1.17391e-19 3.56659e-19 -5.17553e-18
2.24034e-18 -1.07586e-20 -1.71051e-15
-8.45691e-22 2.95408e-21 3.5177e-21
2.81054e-18 3.48495e-21 -2.14593e-15
-3.50175e-19 1.22754e-21 2.67382e-16
1.75142e-12 2.96835e-13 -3.18854e-15
2.24035e-18 -4.6847e-21 -1.71052e-15
2.24035e-18 5.44953e-22 -1.71052e-15
2.24032e-18 1.66692e-21 -1.71052e-15
-4.20556e-08 -1.13323e-08 -5.68026e-10
-9.41432e-22 5.61885e-21 -1.11528e-20
2.81056e-18 2.29654e-20 -2.14593e-15
4.34051e-15 1.04749e-14 8.29592e-14
-5.46109e-15 6.56069e-15 4.46803e-14
2.81056e-18 -2.68083e-22 -2.14593e-15
2.24032e-18 2.5795e-20 -1.71052e-15
-5.8522e-09 1.39208e-08 1.1694e-09
8.07283e-10 -4.88119e-11 -1.37043e-10
-3.50169e-19 -3.39075e-22 2.67381e-16
-3.50213e-19 -1.91057e-22 2.67381e-16
-5.79932e-20 5.04824e-21 2.97442e-17
2.24033e-18 2.05361e-21 -1.71052e-15
2.00503e-18 1.02614e-21 -1.5309e-15
1.61275e-10 4.87333e-11 -6.0922e-11
2.24035e-18 2.89915e-20 -1.71052e-15
2.81058e-18 -5.15244e-21 -2.14593e-15
1.79756e-18 1.49166e-22 -1.37249e-15
4.63478e-18 -1.80378e-14 -5.94669e-14
2.24036e-18 8.82106e-22 -1.71052e-15
-4.21707e-12 9.75272e-14 1.39401e-12
-3.56442e-12 6.62664e-12 -2.9051e-13
1.45282e-18 1.4131e-20 -1.10923e-15
1.79756e-18 7.64605e-23 -1.37249e-15
8.71363e-19 4.59231e-21 -6.65298e-16
-6.70511e-20 4.59768e-20 5.11809e-17
7.19391e-21 5.66529e-21 -5.40692e-18
-2.7454e-11 2.90295e-11 -6.99014e-12
-9.20534e-19 2.72232e-21 7.02843e-16
1.5614e-09 -4.11986e-09 -1.77652e-10
2.24035e-18 -5.81385e-22 -1.71052e-15
2.24031e-18 3.43837e-23 -1.71052e-15
1.79764e-18 4.41478e-22 -1.37251e-15
1.79759e-18 -5.32279e-23 -1.37251e-15
1.79764e-18 3.82044e-22 -1.37251e-15
-3.50215e-19 5.46387e-22 2.6738e-16
2.24032e-18 -3.18508e-22 -1.71052e-15
-3.50221e-19 1.3768e-21 2.67382e-16
2.85191e-11 1.22969e-12 -4.37256e-12
1.79755e-18 5.92826e-22 -1.37249e-15
-5.31487e-19 -7.35925e-23 4.04653e-16
1.79755e-18 4.46462e-21 -1.37249e-15
-1.12671e-19 5.64999e-20 2.96701e-17
9.79466e-18 -1.80377e-14 -5.94669e-14
-5.47118e-19 4.10487e-21 4.04643e-16
-3.50189e-19 1.61516e-22 2.67382e-16
4.38775e-12 -1.70462e-11 -7.12785e-12
1.79763e-18 1.51837e-21 -1.37251e-15
8.71372e-19 -4.1481e-21 -6.65297e-16
1.79763e-18 -1.93075e-20 -1.37251e-15
3.12255e-11 -1.29537e-10 2.41897e-11
0.00543063 -0.00103459 0.000436006
-5.28374e-19 6.96501e-22 4.04653e-16
-9.20537e-19 3.86075e-21 7.02843e-16
-3.83638e-14 8.16566e-14 2.95886e-13
2.24035e-18 7.85362e-22 -1.71051e-15
1.79764e-18 -8.99574e-22 -1.37251e-15
4.61193e-21 4.33981e-23 -6.24001e-22
-3.50182e-19 -9.46015e-22 2.67381e-16
-9.20569e-19 1.71413e-20 7.02843e-16
4.42174e-09 -1.28605e-09 3.39031e-11
2.81058e-18 5.12293e-21 -2.14593e-15
1.79762e-18 1.58438e-21 -1.37251e-15
-9.20571e-19 3.05156e-22 7.02843e-16
-3.5017e-19 1.79151e-21 2.67382e-16
1.79757e-18 -2.54256e-21 -1.37249e-15
2.81057e-18 -2.65088e-22 -2.14593e-15
1.79756e-18 -2.01874e-21 -1.37249e-15
2.24036e-18 1.23268e-21 -1.71052e-15
1.79761e-18 -8.19092e-22 -1.37251e-15
2.24036e-18 6.91441e-22 -1.71051e-15
1.79761e-18 -3.77676e-24 -1.37249e-15
8.7136e-19 -4.31424e-22 -6.65297e-16
-3.50216e-19 -8.02753e-21 2.67382e-16
1.79757e-18 -5.34185e-21 -1.37249e-15
8.7137e-19 -1.159e-21 -6.65297e-16
1.7976e-18 -1.58246e-21 -1.37249e-15
3.23522e-14 8.72965e-14 3.57546e-14
2.81057e-18 -2.84011e-21 -2.14593e-15
1.96383e-10 -4.55047e-11 -2.71285e-11
-4.09192e-09 -4.83997e-10 -1.45456e-10
6.85509e-12 -1.3775e-11 3.54475e-12
0.0059707 -0.000457413 0.000810368
2.24033e-18 6.14898e-21 -1.71052e-15
2.24035e-18 8.78506e-22 -1.71051e-15
-3.50194e-19 3.47748e-22 2.67381e-16
-3.50176e-19 -1.02595e-21 2.67382e-16
1.79762e-18 1.24217e-21 -1.37251e-15
-3.17452e-19 -8.57384e-22 2.41807e-16
0.00531321 -0.000345595 0.000694689
2.81055e-18 7.35561e-23 -2.14593e-15
2.81058e-18 -4.85797e-21 -2.14593e-15
1.7976e-18 -1.49805e-21 -1.37249e-15
-3.16518e-19 4.47651e-24 2.41806e-16
6.91081e-11 5.12329e-11 -1.60895e-11
2.24032e-18 2.73147e-22 -1.71052e-15
2.81054e-18 5.28518e-22 -2.14593e-15
2.24035e-18 -1.40643e-20 -1.71052e-15
2.24031e-18 1.05443e-22 -1.71051e-15
1.71591e-21 -1.99779e-21 4.3381e-21
1.79759e-18 8.58811e-21 -1.37251e-15
2.24036e-18 2.38117e-21 -1.71051e-15
9.66658e-10 -5.654e-10 4.01079e-10
2.81057e-18 -7.01039e-22 -2.14593e-15
1.7976e-18 4.34343e-22 -1.37249e-15
2.24033e-18 -1.45875e-21 -1.71051e-15
0.00582188 -0.000431562 0.000784102
2.24032e-18 1.10107e-22 -1.71052e-15
-3.50214e-19 3.63832e-22 2.67382e-16
1.79764e-18 7.0493e-21 -1.37251e-15
8.71369e-19 1.0059e-21 -6.65297e-16
1.79764e-18 9.2236e-22 -1.37251e-15
8.71349e-19 1.89244e-20 -6.65297e-16
2.24036e-18 1.47523e-22 -1.71052e-15
1.19915e-18 -5.35425e-22 -9.15735e-16
1.79763e-18 -1.35365e-21 -1.37251e-15
0.00585181 -0.000436841 0.000789364
0.00576657 -0.000419754 0.000773747
-3.50173e-19 -1.41963e-21 2.6738e-16
1.79763e-18 1.5325e-21 -1.37251e-15
-3.50222e-19 -2.14662e-21 2.67381e-16
4.61385e-10 -5.32862e-10 -1.94355e-10
-3.80486e-12 -8.03087e-14 8.7559e-14
-9.20538e-19 -2.0286e-20 7.02843e-16
1.7976e-18 -3.21843e-22 -1.37249e-15
-3.16776e-19 -2.35278e-22 2.41807e-16
0.00548134 -0.000368388 0.000722561
0.00530473 -0.000344023 0.000693158
0.00549704 -0.000616718 0.000145156
1.45286e-18 -1.59294e-20 -1.10924e-15
-9.20518e-19 -6.15365e-23 7.02843e-16
0.0054692 -0.00036768 0.000720245
0.00562863 -0.000406578 0.00074957
2.81058e-18 4.60971e-22 -2.14593e-15
0.00555092 -0.000386232 0.000736132
9.86027e-06 -0.0145003 0.0107922
2.24036e-18 -5.05556e-21 -1.71051e-15
0.00568267 -0.000397522 0.000757825
0.00594089 -0.000452199 0.000805169
0.0055852 -0.000386919 0.000742322
-3.50209e-19 5.21976e-21 2.67381e-16
8.71339e-19 -7.27541e-22 -6.65297e-16
-5.35453e-19 -3.4867e-21 4.04648e-16
1.04043e-10 9.74867e-11 1.23711e-11
0.00570335 -0.000413008 0.000764757
-2.31197e-19 -3.36998e-20 1.76521e-16
-1.05352e-19 -6.53937e-20 -5.38706e-18
-2.09827e-11 2.5385e-12 -3.88755e-12
0.00532479 -0.000347489 0.000696572
-6.08311e-11 -2.28476e-11 -6.41464e-12
0.00600035 -0.000462518 0.000815672
-9.20536e-19 9.2973e-22 7.02843e-16
-6.70068e-20 -7.40166e-21 5.11804e-17
-3.16558e-20 9.39007e-21 2.97199e-17
-3.50187e-19 8.22915e-22 2.67382e-16
8.71342e-19 5.83171e-21 -6.65298e-16
0.00579137 -0.000425681 0.000778441
2.24032e-18 -1.93242e-23 -1.71052e-15
0.00572716 -0.000419021 0.000766943
4.66413e-10 6.09839e-11 -9.29709e-11
2.24033e-18 -1.87234e-20 -1.71052e-15
1.79762e-18 1.06294e-21 -1.37251e-15
0.00599978 -0.000463126 0.00081586
0.00588144 -0.000441848 0.000794539
1.79759e-18 1.73357e-21 -1.37251e-15
0.00530646 -0.000345936 0.000694248
-1.43299e-20 9.19176e-21 -7.70593e-22
7.78891e-12 9.82706e-12 -6.09218e-12
-3.12778e-12 -5.12703e-13 1.68144e-15
1.19117e-18 2.24005e-21 -9.15745e-16
1.79764e-18 -8.39005e-22 -1.37251e-15
1.4537e-17 -2.01478e-18 1.21017e-17
-6.27257e-12 1.38445e-12 -2.23561e-12
2.00507e-18 7.81596e-22 -1.5309e-15
2.24031e-18 4.18974e-23 -1.71052e-15
2.81055e-18 -4.17705e-23 -2.14593e-15
-3.50223e-19 -1.57545e-21 2.6738e-16
0.00591115 -0.000446971 0.000799874
1.79755e-18 -7.46891e-23 -1.37249e-15
2.81059e-18 3.09057e-22 -2.14593e-15
0.00532182 -0.000347506 0.000696466
0.00562287 -0.000399568 0.000749879
-3.5019e-19 7.33617e-22 2.67381e-16

VECTORS force float
0.0 1.31451e-27 0.0
0.0 1.88272e-25 0.0
6.46235e-27 0.0 2.06795e-25
0.0 6.34368e-25 0.0
0.0 -1.06116e-26 0.0
0.0 1.15506e-25 0.0
0.0 -1.60772e-26 0.0
0.0 0.0 0.0
0.0 5.50178e-26 0.0
0.0 -2.51885e-26 0.0
1.60058e-17 5.22833e-17 4.41129e-17
0.0 8.51594e-26 0.0
0.0 7.0571e-26 0.0
-4.03897e-28 -6.40438e-27 0.0
0.0 4.16493e-26 0.0
-4.03897e-28 3.58889e-26 0.0
0.0 -1.21111e-25 0.0
0.0 2.56538e-26 0.0
-4.41258e-16 -1.1798e-15 -9.98902e-17
-4.03897e-28 1.81e-26 0.0
0.0 0.0 0.0
-4.03897e-28 3.41027e-26 0.0
-4.03897e-28 -1.50792e-26 0.0
0.0 -1.02735e-25 0.0
0.0 -1.51549e-26 0.0
-5.44844e-17 5.29408e-17 2.18213e-17
2.10772e-21 -3.37593e-23 3.06057e-23
-1.44441e-15 1.83813e-16 3.52327e-16
0.0 0.0 0.0
0.0 -4.73606e-28 0.0
-3.52138e-17 9.25245e-17 6.91763e-17
0.0 6.99282e-28 0.0
0.0 0.0 0.0
0.0 -2.58494e-26 0.0
0.0 1.29247e-26 0.0
0.0 5.41744e-27 0.0
3.44827e-16 8.37883e-16 -2.10637e-16
0.0 -3.6507e-26 0.0
0.0 1.55701e-26 0.0
0.0 -2.04382e-25 0.0
-1.87874e-10 1.2115e-10 -1.64799e-10
0.0 4.28314e-27 0.0
-7.04296e-19 -4.53171e-19 3.73466e-19
0.0 0.0 0.0
0.0 5.76671e-27 0.0
-2.58494e-26 1.9387e-26 0.0
0.0 1.80438e-26 0.0
0.0 0.0 0.0
-1.61559e-24 3.25702e-24 2.06795e-25
0.0 -4.36915e-25 0.0
0.0 0.0 0.0
0.0 1.47231e-26 0.0
0.0 -9.33402e-28 0.0
-1.4928e-23 8.01331e-24 -4.1359e-25
-4.03897e-28 -2.9475e-28 0.0
1.66761e-17 -2.19675e-17 -1.65079e-17
-9.04729e-26 1.03398e-25 0.0
0.0 -8.651e-26 0.0
0.0 -4.55931e-27 0.0
0.0 -4.56783e-26 0.0
0.0 -6.55809e-27 0.0
0.0 1.67696e-26 0.0
0.0 1.45907e-26 0.0
0.0 -1.9465e-26 0.0
-4.03897e-28 9.68755e-27 0.0
0.0 -2.43598e-26 0.0
1.48821e-16 -1.32041e-16 1.27947e-16
0.0 8.81204e-26 0.0
0.0 5.61657e-28 0.0
0.0 -2.60785e-26 0.0
0.0 1.31363e-25 0.0
0.0 -1.03346e-26 0.0
0.0 3.47306e-26 0.0
-4.03897e-28 -4.29605e-25 0.0
0.0 -2.31043e-25 0.0
0.0 -4.72266e-28 0.0
0.0 -4.75469e-26 0.0
1.03398e-25 6.46235e-26 0.0
0.0 3.4003e-25 0.0
0.0 0.0 0.0
0.0 1.23442e-25 0.0
0.0 1.49836e-26 0.0
-3.97863e-17 -6.63078e-18 -4.12467e-20
0.0 -2.01632e-26 0.0
0.0 -1.04293e-26 0.0
0.0 -2.62223e-26 0.0
8.11353e-14 2.18519e-14 1.08925e-15
2.58494e-26 0.0 0.0
0.0 -5.85538e-26 0.0
-1.81989e-21 5.04916e-22 3.37076e-23
-6.10847e-22 3.68612e-23 -7.19647e-23
-4.03897e-28 -1.83584e-27 0.0
0.0 -1.96994e-25 0.0
5.04315e-15 -1.25623e-14 -1.06865e-15
-1.51315e-15 5.5977e-17 2.64761e-16
0.0 -1.76071e-26 0.0
0.0 -4.03817e-27 0.0
0.0 -7.75482e-26 0.0
4.03897e-28 2.82368e-27 0.0
0.0 -5.92759e-25 0.0
-2.99316e-16 -7.88616e-17 1.54025e-16
0.0 -2.95687e-26 0.0
0.0 1.34529e-25 0.0
4.03897e-28 -3.16399e-27 0.0
2.57358e-26 5.16988e-26 0.0
0.0 4.31861e-27 0.0
-2.80837e-17 1.66809e-17 -1.01682e-17
7.56761e-17 -5.94242e-17 8.40102e-18
0.0 2.15654e-25 0.0
0.0 4.34737e-27 0.0
0.0 -1.75758e-27 0.0
0.0 2.93059e-25 0.0
-6.46235e-27 1.29247e-26 0.0
4.49839e-17 -1.91674e-17 4.18177e-17
0.0 2.49058e-26 0.0
-1.40403e-15 3.63208e-15 2.08528e-16
0.0 2.32206e-25 0.0
0.0 5.46779e-29 0.0
0.0 -2.67048e-27 0.0
0.0 -6.66554e-28 0.0
0.0 -3.98956e-28 0.0
0.0 -1.65996e-26 0.0
0.0 3.70038e-27 0.0
0.0 4.15267e-26 0.0
5.24921e-18 -8.41116e-17 -5.53574e-17
0.0 1.53607e-26 0.0
-6.46235e-27 -5.16988e-26 0.0
-4.03897e-28 -4.64242e-26 0.0
2.58494e-26 5.16988e-26 -2.06795e-25
7.49315e-23 0.0 0.0
1.9387e-26 -5.16988e-26 -2.06795e-25
0.0 -2.59698e-27 0.0
1.11534e-16 -4.75706e-17 -2.1748e-17
0.0 -1.69102e-26 0.0
0.0 7.69977e-26 0.0
0.0 -2.03084e-25 0.0
6.60529e-17 -2.89673e-16 -1.71731e-17
-5.78423e-13 1.19694e-13 -4.81066e-14
0.0 1.03398e-25 0.0
0.0 -5.75973e-26 0.0
2.70902e-22 1.6161e-22 -6.41065e-24
0.0 3.92212e-26 0.0
0.0 -3.21477e-26 0.0
0.0 -1.29247e-26 -2.58494e-26
0.0 3.19677e-26 0.0