# vtk DataFile Version 3.0
LIGGGHTS particles timestep 44600000
ASCII
DATASET POLYDATA
POINTS 275 float
0.273321 0.0182057 0.00704699
0.272977 0.0170423 0.00732108
0.273129 0.0169472 0.00740923
0.272601 0.0158788 0.00876524
0.278865 0.0165794 0.00752057
0.273273 0.0175624 0.00716612
0.272974 0.0167275 0.00765057
0.279079 0.0174768 0.00713452
0.273069 0.0167464 0.0076241
0.273179 0.0178454 0.00719097
0.267341 0.0174673 0.00714209
0.272578 0.0158204 0.00884303
0.267269 0.0178196 0.00708561
0.267518 0.0183129 0.00692968
0.272933 0.016598 0.00779732
0.272555 0.015762 0.00892082
0.273314 0.017755 0.00713078
0.273088 0.0168134 0.00755249
0.267479 0.0181185 0.0069555
0.278993 0.0171178 0.00728894
0.272707 0.0161727 0.00837624
0.279037 0.0172972 0.0072118
0.267025 0.0169018 0.0074686
0.273054 0.0169954 0.00736441
0.272531 0.0157036 0.00899857
0.272782 0.0164101 0.0080646
0.273347 0.0174976 0.00718184
0.272726 0.0162321 0.00829811
0.278885 0.0166695 0.00748179
0.272697 0.0161114 0.00845464
0.273232 0.0173698 0.00720146
0.279136 0.0177484 0.00702113
0.273108 0.0168803 0.00748091
0.27319 0.0171789 0.00724302
0.279015 0.0172075 0.00725037
0.272646 0.0159959 0.00860956
0.273225 0.0169624 0.00738658
0.273285 0.017208 0.00723493
0.278906 0.0167592 0.00744322
0.272669 0.0160545 0.00853173
0.273184 0.0179801 0.0070818
0.279098 0.017567 0.00709573
0.272755 0.0162904 0.00822221
0.273368 0.0175939 0.00716417
0.267399 0.0177308 0.00701437
0.27895 0.0169385 0.00736608
0.273545 0.0180104 0.00709158
0.267227 0.0173534 0.00720682
0.273524 0.0179141 0.00710924
0.278928 0.0168488 0.00740465
0.378022 0.019866 0.005332
0.273306 0.0173046 0.00721724
0.272624 0.0159374 0.00868741
0.273211 0.0172738 0.00722017
0.273205 0.0180767 0.00706602
0.278971 0.0170282 0.00732751
0.267152 0.0174091 0.00717237
0.267234 0.0180791 0.0070474
0.273334 0.0178513 0.00711311
0.273115 0.0172416 0.00722108
0.273409 0.0177865 0.00712883
0.279058 0.0173868 0.00717323
0.267557 0.0185082 0.00690676
0.273375 0.0180439 0.00707777
0.273205 0.0168957 0.00745809
0.272763 0.0163506 0.00814269
0.267164 0.0170982 0.00735586
0.272997 0.0171198 0.00726137
0.266566 0.0155362 0.00858878
0.267482 0.0185738 0.00689873
0.273073 0.0170639 0.00729427
0.267309 0.0180134 0.00705611
0.26736 0.0175524 0.0070923
0.279117 0.0176571 0.00705695
0.267351 0.018802 0.00687128
0.273267 0.0171167 0.00727148
0.273033 0.0169283 0.00743572
0.273178 0.0175303 0.00716817
0.273254 0.0177806 0.00720644
0.273355 0.0179476 0.00709545
0.267322 0.0173824 0.00719169
0.273103 0.0175949 0.00715249
0.272839 0.0165881 0.00783041
0.273199 0.0179418 0.007173
0.273118 0.0175563 0.00724384
0.273082 0.0174986 0.00717015
0.266661 0.0158685 0.008244
0.272823 0.0165281 0.00790869
0.267174 0.0179275 0.00698829
0.273293 0.0176587 0.00714845
0.267195 0.0180243 0.00697358
0.0643568 0.0187248 0.00531097
0.24257 0.0191927 0.00520306
0.267538 0.0184104 0.00691824
0.266657 0.0157293 0.00838351
0.267189 0.0175788 0.00707316
0.266586 0.0156043 0.00851816
0.273429 0.0178827 0.00711117
0.273483 0.0177217 0.00714454
0.272956 0.0169752 0.00739236
0.272916 0.0168412 0.00753531
0.266701 0.0160046 0.00810279
0.267076 0.0174651 0.00713779
0.267133 0.0177348 0.0070226
0.273245 0.0170294 0.00731495
0.273259 0.0179155 0.00709748
0.273253 0.0174661 0.0071838
0.267265 0.017523 0.00710766
0.27345 0.017979 0.00709351
0.273049 0.0166794 0.00769576
0.273341 0.0183025 0.0070318
0.273062 0.0174024 0.00718788
0.267502 0.0186715 0.00688727
0.272954 0.0166616 0.00772299
0.273157 0.017434 0.00718584
0.266642 0.0158004 0.00831464
0.272807 0.0164679 0.00798699
0.273158 0.0177489 0.00720858
0.267228 0.0177646 0.00701178
0.267249 0.0178615 0.00699706
0.273149 0.0170142 0.0073376
0.27328 0.0180121 0.00707977
0.273239 0.0178192 0.00711515
0.273388 0.0176902 0.00714651
0.267207 0.0172678 0.00725678
0.273138 0.0176526 0.00722627
0.273144 0.0177876 0.00711754
0.27302 0.017215 0.00724077
0.267034 0.0165922 0.00765126
0.267439 0.0179245 0.00698495
0.266605 0.0156723 0.00844754
0.267304 0.0176996 0.00702039
0.266796 0.0160211 0.00807301
0.267206 0.0176668 0.00702666
0.267056 0.0166765 0.00760203
0.272879 0.0167272 0.00769397
0.267332 0.0187046 0.00688272
0.267329 0.0182496 0.00693813
0.267078 0.0167608 0.0075528
0.266776 0.0159531 0.00814361
0.26672 0.0160726 0.00803219
0.267013 0.0165079 0.00770047
0.0219312 0.0187687 0.00551176
0.267121 0.0169295 0.00745433
0.273166 0.0170838 0.00726335
0.267214 0.0181212 0.00695887
0.267292 0.0182188 0.00702579
0.266779 0.0162853 0.00782978
0.267368 0.0184441 0.00691362
0.273164 0.0178838 0.00709947
0.267293 0.0185097 0.00690558
0.267407 0.0186393 0.00689071
0.267313 0.0186071 0.00689416
0.267388 0.0185416 0.00690217
0.273396 0.0181403 0.0070601
0.267057 0.0173804 0.00718731
0.273316 0.0180705 0.00715373
0.266821 0.0164527 0.00772898
0.267132 0.017324 0.00722212
0.266815 0.0160893 0.00800253
0.267183 0.0177716 0.00710156
0.267234 0.0182182 0.00694416
0.273416 0.018237 0.00704332
0.267114 0.0176421 0.00705418
0.273221 0.0180379 0.00715667
0.267324 0.0177964 0.00700567
0.26737 0.0188995 0.00685985
0.273301 0.0181091 0.0070627
0.273136 0.0173378 0.00720348
0.273266 0.0183668 0.00702043
0.2612 0.0180596 0.00712522
0.272897 0.0167757 0.00760841
0.267094 0.0175501 0.00708806
0.27347 0.0180753 0.00707585
0.267367 0.0181533 0.00703448
0.267423 0.0182811 0.00693307
0.267384 0.0180871 0.00696153
0.260875 0.0167011 0.00768886
0.267379 0.0176372 0.00704276
0.267193 0.0178852 0.00707686
0.266681 0.0159365 0.0081734
0.267443 0.0183785 0.00692165
0.267143 0.0170138 0.00740509
0.273218 0.0177229 0.00713283
0.267498 0.0182155 0.00694111
0.26696 0.0166489 0.00761628
0.267003 0.0168175 0.00751783
0.266875 0.0163115 0.00781348
0.26742 0.0178276 0.00699966
0.267246 0.0174381 0.00715727
0.272993 0.0167945 0.00757891
0.273013 0.0168614 0.0075073
0.267463 0.018476 0.00691021
0.273246 0.01827 0.0070354
0.273091 0.017145 0.00723866
0.261113 0.0175702 0.00716816
0.266854 0.016227 0.00786264
0.273491 0.0181719 0.00705812
0.267154 0.0178308 0.00700299
0.272858 0.0166506 0.00775471
0.267269 0.0179585 0.00698232
0.273327 0.0174012 0.00719952
0.267046 0.0169862 0.00741937
0.272936 0.0169081 0.00746371
0.267459 0.0180216 0.00697021
0.261117 0.0176697 0.00715974
0.261056 0.0173797 0.00718541
0.267427 0.0187374 0.0068792
0.26695 0.0169586 0.00743357
0.267368 0.0183037 0.00701317
0.267273 0.0184123 0.006917
0.27304 0.0173063 0.00720539
0.266907 0.01679 0.00753202
0.267015 0.0172115 0.0072859
0.267037 0.0172959 0.00723667
0.260773 0.0163586 0.00803845
0.260834 0.0165631 0.00782767
0.260754 0.0162971 0.00811483
0.266991 0.0164235 0.00774977
0.267364 0.0179901 0.00697625
0.260793 0.016425 0.00796649
0.260978 0.0170464 0.00734212
0.266842 0.016537 0.00767971
0.267177 0.0176709 0.00712622
0.260916 0.0168391 0.00755006
0.266917 0.0164812 0.00771613
0.273198 0.0176266 0.0071505
0.260998 0.0171152 0.00727248
0.261179 0.0179621 0.00713385
0.260937 0.0169083 0.00748079
0.266546 0.0154681 0.00865938
0.267633 0.0184426 0.00691479
0.267099 0.0168452 0.00750356
0.267265 0.0177156 0.00711112
0.261015 0.0171848 0.00720267
0.267348 0.0183467 0.00692504
0.267111 0.0172392 0.00727161
0.267106 0.0176122 0.00716547
0.260896 0.0167701 0.00761953
0.26674 0.0161407 0.00796157
0.26122 0.0181571 0.00711659
0.267289 0.0180556 0.00696758
0.266938 0.0165672 0.00766966
0.267283 0.0176091 0.00705727
0.267345 0.0178932 0.00699097
0.273097 0.0174601 0.00726147
0.267254 0.0183152 0.00693041
0.261077 0.0174772 0.00717678
0.266981 0.0167332 0.00756706
0.261036 0.0172822 0.00719404
0.266799 0.0163712 0.0077829
0.266895 0.0163959 0.00776402
0.266864 0.0166214 0.00763048
0.267171 0.0174939 0.00712283
0.261254 0.0178955 0.00713761
0.261138 0.0177672 0.00715111
0.267309 0.0181526 0.00695284
0.260814 0.016494 0.00789708
0.266972 0.0170429 0.00738435
0.267068 0.0170705 0.00737014
0.266759 0.0162087 0.00789101
0.266929 0.0168743 0.0074828
0.267404 0.018184 0.00694681
0.266835 0.0161581 0.0079327
0.267186 0.0171829 0.0073064
0.267289 0.0179164 0.00707085
0.267293 0.0183694 0.00700514
0.26709 0.0171548 0.00732091
0.266993 0.0171272 0.00733512
0.261159 0.0178647 0.00714248
0.266885 0.0167057 0.00758125
0.273225 0.0181733 0.00705037
0.260855 0.0166321 0.00775827
0.260957 0.0169772 0.00741124
0.273123 0.0176912 0.00713481

VERTICES 275 550
1 0
1 1
1 2
1 3
1 4
1 5
1 6
1 7
1 8
1 9
1 10
1 11
1 12
1 13
1 14
1 15
1 16
1 17
1 18
1 19
1 20
1 21
1 22
1 23
1 24
1 25
1 26
1 27
1 28
1 29
1 30
1 31
1 32
1 33
1 34
1 35
1 36
1 37
1 38
1 39
1 40
1 41
1 42
1 43
1 44
1 45
1 46
1 47
1 48
1 49
1 50
1 51
1 52
1 53
1 54
1 55
1 56
1 57
1 58
1 59
1 60
1 61
1 62
1 63
1 64
1 65
1 66
1 67
1 68
1 69
1 70
1 71
1 72
1 73
1 74
1 75
1 76
1 77
1 78
1 79
1 80
1 81
1 82
1 83
1 84
1 85
1 86
1 87
1 88
1 89
1 90
1 91
1 92
1 93
1 94
1 95
1 96
1 97
1 98
1 99
1 100
1 101
1 102
1 103
1 104
1 105
1 106
1 107
1 108
1 109
1 110
1 111
1 112
1 113
1 114
1 115
1 116
1 117
1 118
1 119
1 120
1 121
1 122
1 123
1 124
1 125
1 126
1 127
1 128
1 129
1 130
1 131
1 132
1 133
1 134
1 135
1 136
1 137
1 138
1 139
1 140
1 141
1 142
1 143
1 144
1 145
1 146
1 147
1 148
1 149
1 150
1 151
1 152
1 153
1 154
1 155
1 156
1 157
1 158
1 159
1 160
1 161
1 162
1 163
1 164
1 165
1 166
1 167
1 168
1 169
1 170
1 171
1 172
1 173
1 174
1 175
1 176
1 177
1 178
1 179
1 180
1 181
1 182
1 183
1 184
1 185
1 186
1 187
1 188
1 189
1 190
1 191
1 192
1 193
1 194
1 195
1 196
1 197
1 198
1 199
1 200
1 201
1 202
1 203
1 204
1 205
1 206
1 207
1 208
1 209
1 210
1 211
1 212
1 213
1 214
1 215
1 216
1 217
1 218
1 219
1 220
1 221
1 222
1 223
1 224
1 225
1 226
1 227
1 228
1 229
1 230
1 231
1 232
1 233
1 234
1 235
1 236
1 237
1 238
1 239
1 240
1 241
1 242
1 243
1 244
1 245
1 246
1 247
1 248
1 249
1 250
1 251
1 252
1 253
1 254
1 255
1 256
1 257
1 258
1 259
1 260
1 261
1 262
1 263
1 264
1 265
1 266
1 267
1 268
1 269
1 270
1 271
1 272
1 273
1 274

POINT_DATA 275
SCALARS id int 1
LOOKUP_TABLE default
1
2
4
5
6
7
8
9
10
11
12
13
14
16
17
19
21
22
23
24
25
26
27
28
29
30
31
32
33
34
35
36
37
38
39
41
42
44
45
47
48
49
50
51
52
53
54
55
56
57
59
60
61
62
63
64
65
66
67
68
69
70
71
72
73
74
76
77
78
79
80
82
83
84
85
86
87
88
89
90
91
92
93
94
95
96
97
98
99
100
101
102
103
104
105
106
107
108
109
110
111
112
113
114
115
116
117
118
119
120
121
122
123
124
125
127
128
129
130
131
132
133
134
135
136
137
138
140
141
142
143
144
146
147
148
149
150
151
153
154
155
156
157
158
159
160
162
164
165
166
167
168
169
170
171
172
173
174
176
177
178
179
182
183
184
185
186
187
188
189
190
191
192
193
194
195
196
197
198
199
200
201
202
203
204
205
206
207
208
209
210
211
212
213
214
215
216
217
218
219
220
222
224
225
226
227
228
229
230
232
233
234
235
236
237
239
240
241
242
243
244
246
247
248
249
250
251
252
253
254
255
256
257
258
259
260
261
262
263
264
265
266
267
268
269
270
271
272
273
274
275
276
277
278
279
280
281
283
284
285
286
287
288
289
290
291
292
293
294
295
296
297
298
299
300

SCALARS type int 1
LOOKUP_TABLE default
1
1
1
1
1
1
1
1
1
1
1
1
1
1
1
1
1
1
1
1
1
1
1
1
1
1
1
1
1
1
1
1
1
1
1
1
1
1
1
1
1
1
1
1
1
1
1
1
1
1
1
1
1
1
1
1
1
1
1
1
1
1
1
1
1
1
1
1
1
1
1
1
1
1
1
1
1
1
1
1
1
1
1
1
1
1
1
1
1
1
1
1
1
1
1
1
1
1
1
1
1
1
1
1
1
1
1
1
1
1
1
1
1
1
1
1
1
1
1
1
1
1
1
1
1
1
1
1
1
1
1
1
1
1
1
1
1
1
1
1
1
1
1
1
1
1
1
1
1
1
1
1
1
1
1
1
1
1
1
1
1
1
1
1
1
1
1
1
1
1
1
1
1
1
1
1
1
1
1
1
1
1
1
1
1
1
1
1
1
1
1
1
1
1
1
1
1
1
1
1
1
1
1
1
1
1
1
1
1
1
1
1
1
1
1
1
1
1
1
1
1
1
1
1
1
1
1
1
1
1
1
1
1
1
1
1
1
1
1
1
1
1
1
1
1
1
1
1
1
1
1
1
1
1
1
1
1
1
1
1
1
1
1
1
1
1
1
1
1
1
1
1
1
1
1

SCALARS radius float 1
LOOKUP_TABLE default
5e-05
5e-05
5e-05
5e-05
5e-05
5e-05
5e-05
5e-05
5e-05
5e-05
5e-05
5e-05
5e-05
5e-05
5e-05
5e-05
5e-05
5e-05
5e-05
5e-05
5e-05
5e-05
5e-05
5e-05
5e-05
5e-05
5e-05
5e-05
5e-05
5e-05
5e-05
5e-05
5e-05
5e-05
5e-05
5e-05
5e-05
5e-05
5e-05
5e-05
5e-05
5e-05
5e-05
5e-05
5e-05
5e-05
5e-05
5e-05
5e-05
5e-05
5e-05
5e-05
5e-05
5e-05
5e-05
5e-05
5e-05
5e-05
5e-05
5e-05
5e-05
5e-05
5e-05
5e-05
5e-05
5e-05
5e-05
5e-05
5e-05
5e-05
5e-05
5e-05
5e-05
5e-05
5e-05
5e-05
5e-05
5e-05
5e-05
5e-05
5e-05
5e-05
5e-05
5e-05
5e-05
5e-05
5e-05
5e-05
5e-05
5e-05
5e-05
5e-05
5e-05
5e-05
5e-05
5e-05
5e-05
5e-05
5e-05
5e-05
5e-05
5e-05
5e-05
5e-05
5e-05
5e-05
5e-05
5e-05
5e-05
5e-05
5e-05
5e-05
5e-05
5e-05
5e-05
5e-05
5e-05
5e-05
5e-05
5e-05
5e-05
5e-05
5e-05
5e-05
5e-05
5e-05
5e-05
5e-05
5e-05
5e-05
5e-05
5e-05
5e-05
5e-05
5e-05
5e-05
5e-05
5e-05
5e-05
5e-05
5e-05
5e-05
5e-05
5e-05
5e-05
5e-05
5e-05
5e-05
5e-05
5e-05
5e-05
5e-05
5e-05
5e-05
5e-05
5e-05
5e-05
5e-05
5e-05
5e-05
5e-05
5e-05
5e-05
5e-05
5e-05
5e-05
5e-05
5e-05
5e-05
5e-05
5e-05
5e-05
5e-05
5e-05
5e-05
5e-05
5e-05
5e-05
5e-05
5e-05
5e-05
5e-05
5e-05
5e-05
5e-05
5e-05
5e-05
5e-05
5e-05
5e-05
5e-05
5e-05
5e-05
5e-05
5e-05
5e-05
5e-05
5e-05
5e-05
5e-05
5e-05
5e-05
5e-05
5e-05
5e-05
5e-05
5e-05
5e-05
5e-05
5e-05
5e-05
5e-05
5e-05
5e-05
5e-05
5e-05
5e-05
5e-05
5e-05
5e-05
5e-05
5e-05
5e-05
5e-05
5e-05
5e-05
5e-05
5e-05
5e-05
5e-05
5e-05
5e-05
5e-05
5e-05
5e-05
5e-05
5e-05
5e-05
5e-05
5e-05
5e-05
5e-05
5e-05
5e-05
5e-05
5e-05
5e-05
5e-05
5e-05
5e-05
5e-05
5e-05
5e-05
5e-05
5e-05
5e-05
5e-05
5e-05
5e-05
5e-05
5e-05
5e-05
5e-05
5e-05
5e-05
5e-05
5e-05
5e-05
5e-05
5e-05
5e-05
5e-05
5e-05
5e-05
5e-05

SCALARS mass float 1
LOOKUP_TABLE default
1.46608e-10
1.46608e-10
1.46608e-10
1.46608e-10
1.46608e-10
1.46608e-10
1.46608e-10
1.46608e-10
1.46608e-10
1.46608e-10
1.46608e-10
1.46608e-10
1.46608e-10
1.46608e-10
1.46608e-10
1.46608e-10
1.46608e-10
1.46608e-10
1.46608e-10
1.46608e-10
1.46608e-10
1.46608e-10
1.46608e-10
1.46608e-10
1.46608e-10
1.46608e-10
1.46608e-10
1.46608e-10
1.46608e-10
1.46608e-10
1.46608e-10
1.46608e-10
1.46608e-10
1.46608e-10
1.46608e-10
1.46608e-10
1.46608e-10
1.46608e-10
1.46608e-10
1.46608e-10
1.46608e-10
1.46608e-10
1.46608e-10
1.46608e-10
1.46608e-10
1.46608e-10
1.46608e-10
1.46608e-10
1.46608e-10
1.46608e-10
1.46608e-10
1.46608e-10
1.46608e-10
1.46608e-10
1.46608e-10
1.46608e-10
1.46608e-10
1.46608e-10
1.46608e-10
1.46608e-10
1.46608e-10
1.46608e-10
1.46608e-10
1.46608e-10
1.46608e-10
1.46608e-10
1.46608e-10
1.46608e-10
1.46608e-10
1.46608e-10
1.46608e-10
1.46608e-10
1.46608e-10
1.46608e-10
1.46608e-10
1.46608e-10
1.46608e-10
1.46608e-10
1.46608e-10
1.46608e-10
1.46608e-10
1.46608e-10
1.46608e-10
1.46608e-10
1.46608e-10
1.46608e-10
1.46608e-10
1.46608e-10
1.46608e-10
1.46608e-10
1.46608e-10
1.46608e-10
1.46608e-10
1.46608e-10
1.46608e-10
1.46608e-10
1.46608e-10
1.46608e-10
1.46608e-10
1.46608e-10
1.46608e-10
1.46608e-10
1.46608e-10
1.46608e-10
1.46608e-10
1.46608e-10
1.46608e-10
1.46608e-10
1.46608e-10
1.46608e-10
1.46608e-10
1.46608e-10
1.46608e-10
1.46608e-10
1.46608e-10
1.46608e-10
1.46608e-10
1.46608e-10
1.46608e-10
1.46608e-10
1.46608e-10
1.46608e-10
1.46608e-10
1.46608e-10
1.46608e-10
1.46608e-10
1.46608e-10
1.46608e-10
1.46608e-10
1.46608e-10
1.46608e-10
1.46608e-10
1.46608e-10
1.46608e-10
1.46608e-10
1.46608e-10
1.46608e-10
1.46608e-10
1.46608e-10
1.46608e-10
1.46608e-10
1.46608e-10
1.46608e-10
1.46608e-10
1.46608e-10
1.46608e-10
1.46608e-10
1.46608e-10
1.46608e-10
1.46608e-10
1.46608e-10
1.46608e-10
1.46608e-10
1.46608e-10
1.46608e-10
1.46608e-10
1.46608e-10
1.46608e-10
1.46608e-10
1.46608e-10
1.46608e-10
1.46608e-10
1.46608e-10
1.46608e-10
1.46608e-10
1.46608e-10
1.46608e-10
1.46608e-10
1.46608e-10
1.46608e-10
1.46608e-10
1.46608e-10
1.46608e-10
1.46608e-10
1.46608e-10
1.46608e-10
1.46608e-10
1.46608e-10
1.46608e-10
1.46608e-10
1.46608e-10
1.46608e-10
1.46608e-10
1.46608e-10
1.46608e-10
1.46608e-10
1.46608e-10
1.46608e-10
1.46608e-10
1.46608e-10
1.46608e-10
1.46608e-10
1.46608e-10
1.46608e-10
1.46608e-10
1.46608e-10
1.46608e-10
1.46608e-10
1.46608e-10
1.46608e-10
1.46608e-10
1.46608e-10
1.46608e-10
1.46608e-10
1.46608e-10
1.46608e-10
1.46608e-10
1.46608e-10
1.46608e-10
1.46608e-10
1.46608e-10
1.46608e-10
1.46608e-10
1.46608e-10
1.46608e-10
1.46608e-10
1.46608e-10
1.46608e-10
1.46608e-10
1.46608e-10
1.46608e-10
1.46608e-10
1.46608e-10
1.46608e-10
1.46608e-10
1.46608e-10
1.46608e-10
1.46608e-10
1.46608e-10
1.46608e-10
1.46608e-10
1.46608e-10
1.46608e-10
1.46608e-10
1.46608e-10
1.46608e-10
1.46608e-10
1.46608e-10
1.46608e-10
1.46608e-10
1.46608e-10
1.46608e-10
1.46608e-10
1.46608e-10
1.46608e-10
1.46608e-10
1.46608e-10
1.46608e-10
1.46608e-10
1.46608e-10
1.46608e-10
1.46608e-10
1.46608e-10
1.46608e-10
1.46608e-10
1.46608e-10
1.46608e-10
1.46608e-10
1.46608e-10
1.46608e-10
1.46608e-10
1.46608e-10
1.46608e-10
1.46608e-10
1.46608e-10
1.46608e-10
1.46608e-10
1.46608e-10
1.46608e-10
1.46608e-10
1.46608e-10
1.46608e-10
1.46608e-10
1.46608e-10
1.46608e-10

VECTORS velocity float
0.00570553 -0.00016484 0.000131259
0.00625594 -0.00020791 0.000274595
0.00612908 -0.000547335 0.000141389
0.00590591 -0.000774232 -0.00034373
0.0057645 0.000419307 -0.000165416
0.00563655 -0.00013816 0.000270677
0.00595828 -0.000432538 4.67944e-05
0.00571524 0.0002828 -0.000106694
0.00611352 -0.000506687 0.000106236
0.00566884 -0.000116427 0.00023357
0.00594858 3.58578e-05 0.000105498
0.00589497 -0.00078945 -0.000323106
0.00579307 -0.000114377 -6.17983e-05
0.00573764 -0.00014703 3.41859e-05
0.00587375 -0.000802772 -0.000287962
0.00609258 -0.000853762 -0.000289264
0.00561505 -0.000242088 0.000289917
0.00613948 -0.000486958 8.01549e-05
0.0056335 -0.000164294 -4.76637e-05
0.00632823 0.00016761 -5.55251e-05
0.00570262 -0.000670851 -0.000429082
0.00633341 0.000166895 -5.51809e-05
0.00616076 -0.000191544 0.000242625
0.00621284 -0.000386412 0.000171187
0.00604595 -0.000851525 -0.000278908
0.00559284 -0.00066069 -0.000410935
0.00565592 -0.000128786 0.000270633
0.00554144 -0.000633939 -0.000434402
0.00631417 0.000164995 -5.43653e-05
0.00596137 -0.000717244 -0.000426455
0.00598321 -0.000257425 0.000297313
0.00585739 0.000318352 6.18521e-05
0.00616856 -0.000491616 8.80572e-05
0.00625161 -0.000498248 -0.000465492
0.00633073 0.000167444 -5.53988e-05
0.00608453 -0.000780913 -0.000375563
0.00613033 -0.000434616 2.12404e-05
0.00651697 -0.000204936 0.000357737
0.006317 0.000165429 -5.46504e-05
0.00609601 -0.000767723 -0.000394207
0.00567481 -0.000171182 0.000276229
0.00575989 0.000274621 -0.000103092
0.00552719 -0.000641279 -0.000431372
0.00560082 -0.000134939 0.000268299
0.00583837 -6.32394e-05 -7.10964e-05
0.00632276 0.00016697 -5.52667e-05
0.00546716 -0.000204803 0.000276365
0.0061338 -6.65427e-05 0.000167979
0.00552945 -0.000199987 0.000278027
0.00631985 0.000166242 -5.4879e-05
-5.01946e-15 -7.41214e-15 7.69802e-14
0.00624868 7.36793e-05 0.000261163
0.00599815 -0.000777695 -0.000359795
0.00633157 -0.000352651 0.000310258
0.00567367 -0.000196726 0.000226338
0.00632551 0.000167447 -5.54146e-05
0.00605525 -0.000142391 0.000210465
0.00557344 -6.02802e-05 -7.15781e-05
0.00559143 -0.000144799 0.000272675
0.00617882 -0.000291625 0.000325775
0.00553489 -0.000154517 0.000270072
0.00633563 0.000166368 -5.49557e-05
0.0057112 3.73407e-06 2.1127e-05
0.00564201 -0.000134609 0.000270731
0.00619442 -0.000449213 4.19532e-05
0.00557512 -0.000655092 -0.000422796
0.00619141 -0.00019943 0.000248688
0.00627606 -0.000197057 0.000301409
0.00542601 -0.000439474 -0.000318162
0.00562236 5.40251e-05 1.47205e-05
0.00626296 -0.000282016 0.000274052
0.00551954 -7.27453e-05 -8.84152e-05
0.00592991 -4.21977e-05 0.000149766
0.00580468 0.000266437 -9.94622e-05
0.00555871 -0.000196388 4.42782e-05
0.00610549 -0.000279631 8.93224e-05
0.00616182 -0.000472085 8.20097e-05
0.00563622 -0.000170817 0.000276519
0.00562265 -0.000163638 0.000265647
0.0055964 -0.000149444 0.000272739
0.00611989 0.000116062 6.11126e-05
0.00560691 -0.000173383 0.000273097
0.00580237 -0.000780339 -0.00041997
0.00565502 -0.000108055 0.00029261
0.00562209 -0.000217189 0.000251725
0.00582665 -0.000210451 0.000282596
0.0055592 -0.000393138 -0.000383024
0.00568909 -0.000712213 -0.000409914
0.00583732 -0.000103683 -6.66953e-05
0.00564474 -0.000130886 0.000268114
0.00553707 -3.99796e-05 -7.48391e-05
4.04936e-15 1.05397e-14 8.29661e-14
-1.01195e-22 4.86658e-23 8.29106e-22
0.00575075 -4.89122e-05 2.84367e-05
0.00544193 -0.000418644 -0.000342578
0.00582561 -6.84637e-05 0.000162979
0.00546711 -0.000448329 -0.000315116
0.00554041 -0.000170533 0.000273551
0.00552489 -0.0001135 0.000260867
0.00619501 -0.000319995 0.00014903
0.0060491 -0.000432954 3.08029e-05
0.00557169 -0.000374347 -0.000404554
0.00590032 -7.72063e-05 0.000168319
0.00581739 -0.000113145 -2.26458e-05
0.00607828 -0.00036847 1.85229e-05
0.00563847 -0.00014203 0.000272866
0.00566228 -0.000156083 0.000274828
0.00589542 5.98676e-07 0.000124852
0.00557371 -0.000178254 0.000278412
0.00590566 -0.000487637 0.000103304
0.00552624 -0.000240513 0.000126588
0.00620989 -0.000270085 0.000298285
0.00556783 -0.000179303 4.22278e-05
0.00597824 -0.000540367 -3.93649e-05
0.00588268 -0.000153465 0.000284033
0.00550965 -0.000398774 -0.000369485
0.00560916 -0.000671747 -0.000406473
0.00557508 -0.000202449 0.000284308
0.00583541 -9.23063e-05 -7.8981e-05
0.00581254 -0.000101966 -6.64326e-05
0.00618278 -0.000504145 0.000135164
0.00564806 -0.000144532 0.000264721
0.00566164 -0.000188341 0.000276252
0.00554731 -0.000144653 0.000269212
0.00610794 6.00867e-06 0.00012605
0.00550635 -0.000205026 0.000211984
0.00564308 -0.000167792 0.000279323
0.00626189 -0.000226245 0.000289802
0.00604233 -0.000213926 0.000252942
0.00562985 -1.33884e-05 -7.72427e-05
0.00542742 -0.000427964 -0.000329233
0.00586744 -7.88186e-05 -0.000165217
0.00555562 -0.000401522 -0.000376666
0.00578451 -0.000142942 -6.14165e-05
0.00608148 -0.000213495 0.000254581
0.00579003 -0.000553839 -0.000114191
0.0055639 -0.00022816 4.80245e-05
0.00566518 -0.000121605 -1.4093e-05
0.00610616 -0.000220729 0.000259308
0.00552781 -0.000387336 -0.00038362
0.00559712 -0.000374766 -0.000409716
0.00605266 -0.000184843 0.000241541
-3.83012e-14 8.16795e-14 2.95888e-13
0.00620152 -0.000197541 0.000247542
0.00632397 -0.000383913 -3.16238e-05
0.00558921 -5.63565e-05 -7.0173e-05
0.00566643 -0.000137222 -2.46179e-05
0.00567969 -0.000241065 -0.000161466
0.00571145 -0.000141648 3.84727e-05
0.00567493 -0.000166922 0.000277085
0.00569403 -0.000164014 4.18409e-05
0.00558509 -0.000270701 5.51099e-05
0.0056201 -0.000204278 4.52371e-05
0.00567176 -0.00012306 3.59479e-05
0.00564878 -0.00011941 0.000234347
0.00601228 -9.43159e-05 0.000181178
0.00561843 -1.13935e-05 0.000226946
0.00590486 -0.000130901 0.000200422
0.00606417 -4.20849e-05 0.000153813
0.00561613 -0.000493127 -0.000428525
0.00581198 -0.000109782 -4.71086e-05
0.00563587 -6.65735e-05 -2.04405e-05
0.00565271 6.44769e-05 9.97007e-05
0.00580803 -9.00332e-05 8.43969e-05
0.00565369 -0.000133371 0.000260579
0.0058234 -6.30039e-05 -8.14386e-05
0.00558359 -0.000158108 3.93937e-05
0.00567098 -0.00016576 0.000174254
0.00625037 -0.000330256 0.000312662
0.00552164 -0.000179724 0.000118704
0.00578426 0.000416033 -0.000174861
0.00594322 -0.000437552 3.12361e-06
0.00582732 -6.66857e-05 0.000157873
0.00559477 -0.00011123 0.000262697
0.00567624 -8.66344e-05 -9.64248e-05
0.00568492 -0.000129115 4.27746e-05
0.0055901 -0.000120353 -6.60185e-05
0.00611688 0.000373967 -0.00011275
0.00585685 -1.08516e-05 0.000140748
0.00582998 -8.4611e-05 -6.8934e-05
0.00556028 -0.000382077 -0.000397156
0.00575682 -0.000116289 3.63546e-05
0.0061865 -0.000170393 0.000231248
0.00563001 -0.000160415 0.000274419
0.00566329 -0.000144983 4.70609e-05
0.00608193 -0.000176809 0.000230026
0.00612529 -0.000190583 0.000242134
0.00580311 -0.000402118 -4.94997e-05
0.00577051 -4.82068e-05 -8.57541e-05
0.0060278 1.96211e-05 0.000115806
0.00606916 -0.000438971 3.56133e-05
0.00609356 -0.000477448 8.02078e-05
0.00572969 -4.71432e-05 2.70665e-05
0.00569173 -0.000242223 0.000124325
0.00630998 -0.000219518 0.000330013
0.00577763 0.000419482 -0.000174894
0.00570961 -0.000111805 0.000130369
0.00559439 4.07836e-05 0.000229524
0.00583237 -0.00010929 -6.25805e-05
0.00584138 -0.000722873 -0.000342428
0.00552305 -5.51108e-05 -6.76672e-05
0.00586918 0.000129381 0.000227682
0.00618612 -0.000190428 0.000243956
0.00612074 -0.000416448 4.11974e-05
0.00556995 -0.00013649 -5.39686e-05
0.00577946 0.000419068 -0.000174967
0.00577275 0.00042159 -0.00017475
0.00556474 -0.000187025 4.32946e-05
0.00615007 -0.000164191 0.000227564
0.00567245 -0.000109185 3.75465e-05
0.00566847 -0.000129394 3.52176e-05
0.0062341 -0.000232669 0.000311289
0.00612003 -0.000159892 0.00022529
0.00620699 -0.000152907 0.000222169
0.00622168 -0.000141161 0.000215703
0.00589557 0.000190166 -0.000346418
0.00604941 0.000402347 -0.000138387
0.00579585 4.15527e-06 -0.00053048
0.00605684 -0.000173338 0.000232529
0.00555149 -7.39732e-05 -7.08924e-05
0.00593578 0.000381534 -0.000146492
0.00590993 0.000411625 -0.00015239
0.00609016 -0.000160761 0.000213287
0.00586297 6.55235e-05 -2.60002e-05
0.00623746 0.000360689 -9.59801e-05
0.00607517 -0.000162629 0.000219529
0.00561989 -0.000159072 0.000273169
0.0057864 0.000422925 -0.000174556
0.0057828 0.000416304 -0.00017481
0.00625858 0.000354893 -9.96342e-05
0.00560975 -0.000473341 -0.000309881
0.00565039 -7.6425e-05 3.06823e-05
0.00614703 -0.000233701 0.000268297
0.00587602 -3.429e-05 -0.000200647
0.00577277 0.000423308 -0.000174077
0.00569863 -0.000120245 3.6956e-05
0.00623528 -0.000134994 0.000212106
0.00575811 0.000270533 -0.000103417
0.00618158 0.000368737 -9.97628e-05
0.00560518 -0.000376531 -0.000408918
0.00578518 0.000415479 -0.000174876
0.00555629 -5.759e-05 -7.47006e-05
0.00607274 -0.000170802 0.000221513
0.00578663 4.1677e-05 0.000106477
0.00555846 -6.54007e-06 -7.90467e-05
0.00594142 -0.000243785 0.0003695
0.00566617 -9.59499e-05 2.28104e-05
0.0057756 0.000420268 -0.000174725
0.00609973 -0.0001856 0.000239715
0.00577218 0.000422436 -0.000174514
0.00550913 -0.000124938 1.1478e-05
0.00581637 -0.000284724 0.000274995
0.00609331 -0.000161693 0.000208003
0.00591485 -9.88411e-05 0.00018336
0.00578199 0.000415386 -0.000174746
0.00578055 0.000418123 -0.000174924
0.00561944 -0.000114592 -5.37757e-05
0.00600117 0.000398606 -0.000138478
0.00617845 -0.000161796 0.000227159
0.00620439 -0.00015899 0.000225035
0.005622 -0.000316832 -0.000332462
0.0061416 -0.000162692 0.00022631
0.00564486 -0.000145285 -7.56447e-05
0.00569693 -0.000178426 -5.76293e-05
0.00624264 -0.000128928 0.00020812
0.0055793 -6.03001e-05 -6.2823e-05
0.00566695 -0.000144232 2.70949e-05
0.00621237 -0.000164799 0.000228672
0.00621159 -0.000161278 0.000226566
0.00578175 0.000417267 -0.000174889
0.00610518 -0.000158411 0.00021912
0.00567527 -0.000242584 4.14546e-05
0.00606763 0.000390691 -0.000129425
0.00614592 0.000376716 -0.000116296
0.0056191 -0.000177041 0.000277338

VECTORS force float
-1.01921e-10 -1.65626e-10 2.00038e-09
4.96966e-10 3.49724e-10 5.46611e-10
3.76693e-10 -1.32081e-10 5.50147e-10
-2.58025e-10 4.79912e-10 -5.47371e-10
7.55675e-12 4.04873e-11 -1.74176e-11
6.16025e-11 -5.7611e-11 7.11053e-11
3.39794e-10 -5.57381e-10 6.58751e-10
2.30514e-12 -1.05776e-12 -1.08782e-12
-1.65219e-11 -7.18288e-10 6.94476e-10
-8.95303e-11 -4.00179e-11 -8.61521e-11
-1.99761e-10 2.5272e-10 -1.59973e-10
-3.61132e-10 5.36551e-10 -5.85808e-10
1.13063e-11 -2.15244e-10 1.09577e-10
-1.89396e-10 1.21465e-10 7.66399e-11
4.63385e-11 -6.30657e-10 6.77745e-10
1.13474e-10 3.89247e-10 -5.38462e-10
-6.23304e-11 2.98476e-10 -6.62921e-11
2.55825e-10 -4.54506e-10 5.5767e-10
4.79651e-11 -6.13186e-11 -1.93537e-10
-1.77932e-12 -4.34603e-12 2.77078e-12
-3.72714e-10 1.22668e-10 -5.64091e-11
1.93664e-13 2.25477e-14 2.80156e-13
-7.09991e-11 2.17655e-10 -1.64301e-10
4.59607e-10 -1.36079e-10 -5.85629e-11
4.54497e-11 3.91945e-10 -4.73416e-10
-1.3587e-11 -2.25351e-10 3.75103e-10
-7.56693e-12 -1.24363e-10 2.11321e-11
-4.8874e-10 1.75656e-11 9.59652e-11
5.91247e-13 -3.40164e-12 1.48721e-12
-2.50805e-10 2.07666e-10 -2.12071e-10
-1.37494e-10 -2.02529e-10 9.61295e-12
1.82667e-12 2.52248e-13 -3.66164e-13
3.74663e-10 -4.40939e-10 3.11028e-10
5.39778e-10 -7.55645e-10 -4.06992e-10
-3.78353e-13 -3.78739e-12 7.52371e-13
-7.07935e-11 3.34253e-10 -3.92672e-10
2.54043e-10 -6.64892e-11 4.89929e-10
4.49294e-10 -2.17906e-10 5.26734e-10
-6.52564e-13 -4.48881e-12 2.08685e-12
1.50657e-11 2.27734e-10 -2.70869e-10
-9.27828e-12 -6.16438e-11 2.00197e-10
1.24991e-12 4.5629e-13 1.84721e-12
-3.1461e-10 -1.96296e-10 1.9017e-10
2.19277e-10 -9.79618e-12 1.33766e-11
-3.84741e-10 2.69557e-10 1.34395e-10
-2.48569e-12 -6.69795e-12 4.03715e-12
4.32843e-10 -3.75994e-10 1.19024e-10
7.75934e-11 -1.86678e-10 1.00574e-10
7.77633e-10 -2.28583e-10 6.60128e-11
-5.97812e-13 -6.82223e-12 2.24694e-12
-5.51885e-24 1.60266e-24 -4.1359e-25
-8.43691e-10 1.59241e-10 -9.11998e-11
-2.10711e-10 4.30552e-10 -4.88263e-10
-2.52177e-10 -7.39744e-11 3.05752e-10
1.29177e-10 -1.5039e-10 4.53261e-10
-6.67573e-13 -6.5353e-12 1.64983e-12
1.16623e-10 -1.4747e-10 8.76203e-11
-4.28824e-10 -7.83933e-11 -3.6285e-11
3.02155e-10 -1.50036e-10 2.5206e-11
6.91144e-10 -1.83534e-10 3.5475e-10
6.96874e-10 -2.08822e-10 8.80337e-11
-7.83921e-14 -1.1826e-12 6.33559e-13
2.84738e-10 -4.41859e-11 2.18423e-12
6.91578e-10 -2.49043e-10 1.18357e-10
-4.65631e-10 -2.47121e-11 3.15937e-11
-4.25902e-11 -1.52476e-10 3.41616e-10
-3.43836e-10 2.01802e-10 -1.27091e-10
-8.19574e-12 -2.30247e-10 -6.48172e-10
-1.05619e-11 3.52748e-11 -7.71041e-11
4.70684e-11 1.28361e-10 -2.0336e-11
-2.79986e-10 -6.40643e-11 -1.371e-10
5.75558e-11 2.80561e-11 3.93725e-11
-3.60312e-10 2.45859e-10 -1.2617e-10
7.96924e-13 3.17941e-13 -2.43715e-13
-1.01961e-10 -4.2089e-10 5.10338e-11
-1.02299e-10 -2.22847e-10 1.20521e-09
7.14749e-10 -3.87816e-10 1.96753e-10
-2.07726e-10 -3.89702e-10 1.77776e-10
-3.08169e-11 1.08263e-10 -3.03154e-11
3.01645e-10 -1.20065e-10 1.59639e-11
3.68105e-11 2.45582e-10 -1.42888e-10
-1.16508e-10 -3.98333e-11 -4.48312e-11
-2.72599e-10 1.52097e-10 1.11049e-09
1.64855e-10 -3.10074e-10 5.82777e-11
-2.02072e-10 1.85418e-10 1.82855e-10
6.62401e-10 2.7612e-10 9.71504e-11
-1.35182e-10 9.07453e-11 5.70509e-12
-1.42912e-12 -6.92239e-10 3.23994e-10
-8.09721e-11 -1.00934e-10 -1.62128e-11
-1.51637e-10 2.79755e-10 -1.24039e-10
-3.32248e-10 -1.57968e-10 -6.43539e-12
1.32565e-21 -3.26452e-22 -3.51552e-23
0.0 0.0 0.0
1.33802e-10 2.02575e-10 -2.24948e-11
-3.39033e-10 4.29334e-11 1.44353e-11