# vtk DataFile Version 3.0
LIGGGHTS particles timestep 54800000
ASCII
DATASET POLYDATA
POINTS 275 float
0.332858 0.0185827 0.00685088
0.332518 0.017382 0.0073795
0.332666 0.0172597 0.00743599
0.332111 0.0158084 0.00834369
0.338468 0.017161 0.00743455
0.332812 0.0178781 0.00713617
0.332505 0.0169874 0.00761213
0.338675 0.0180586 0.00705552
0.332601 0.0170098 0.00758916
0.332906 0.0183282 0.00693511
0.326751 0.0171178 0.00729298
0.332092 0.0157246 0.00839478
0.326819 0.0176693 0.00726763
0.326947 0.0181019 0.00711124
0.332462 0.0168208 0.00771419
0.332832 0.0188417 0.00689191
0.332851 0.0180588 0.00705547
0.332623 0.0170931 0.00753813
0.326888 0.0177927 0.00716849
0.338597 0.0176902 0.00718271
0.332217 0.0162252 0.00808852
0.338635 0.0178676 0.00709862
0.326407 0.0165084 0.00765971
0.332592 0.0173205 0.00740799
0.332073 0.0156408 0.00844587
0.332317 0.0165535 0.00788584
0.332908 0.0179101 0.00712363
0.332247 0.0163061 0.00803802
0.33849 0.0172491 0.00739259
0.332195 0.016142 0.00813953
0.332774 0.0176989 0.00721617
0.338736 0.0183525 0.0070536
0.332644 0.0171763 0.00748711
0.332732 0.0175176 0.00729705
0.338616 0.0177789 0.00714066
0.332152 0.0159755 0.00824158
0.332786 0.0173698 0.00736478
0.33285 0.0176406 0.00724395
0.338512 0.0173373 0.00735063
0.332174 0.0160588 0.00819055
0.332717 0.0182661 0.00695938
0.338695 0.0181565 0.00705488
0.33226 0.016391 0.00798689
0.332928 0.018001 0.00708303
0.326811 0.0174067 0.00723979
0.338555 0.0175135 0.0072667
0.333031 0.0185463 0.00684264
0.32661 0.0169273 0.00735081
0.332982 0.0187107 0.00686917
0.338533 0.0174254 0.00730866
0.378022 0.019866 0.005332
0.332869 0.0177302 0.00720396
0.332131 0.0158922 0.00829261
0.332753 0.0176078 0.00725682
0.332828 0.0184995 0.00696144
0.338577 0.0176017 0.00722472
0.326535 0.0169878 0.00732324
0.326714 0.0178539 0.00717565
0.332869 0.0181486 0.00701533
0.332657 0.0175781 0.00726832
0.332964 0.0181806 0.00700283
0.338655 0.0179625 0.00707471
0.326837 0.0184248 0.00704259
0.332921 0.0184269 0.00689089
0.332764 0.0172841 0.00741158
0.332282 0.0164742 0.00793587
0.326546 0.016685 0.0075169
0.33254 0.017466 0.00732981
0.325989 0.0153518 0.00874689
0.326916 0.0183184 0.00706742
0.332613 0.0174039 0.00735724
0.326835 0.0178752 0.00714965
0.326771 0.0172141 0.00727525
0.338716 0.0182545 0.00705424
0.326722 0.0182943 0.00706207
0.332829 0.0175492 0.00728473
0.33257 0.0172372 0.00745906
0.332718 0.0178481 0.00714821
0.332983 0.0182704 0.00696271
0.332888 0.0182384 0.00697524
0.326728 0.0170219 0.00731051
0.332643 0.0179074 0.00711959
0.332373 0.0168157 0.00775818
0.332935 0.0185187 0.00684981
0.332702 0.0181933 0.00709796
0.332623 0.0178178 0.00715958
0.326066 0.0155876 0.00843913
0.332347 0.0167226 0.00778373
0.326561 0.0175292 0.00720294
0.332832 0.0179682 0.00709591
0.326582 0.0176255 0.00718524
0.0643568 0.0187248 0.00531097
0.24257 0.0191927 0.00520306
0.327045 0.01826 0.0070855
0.3262 0.0157633 0.00829348
0.326575 0.0171765 0.00727241
0.326008 0.0153935 0.00865793
0.332998 0.0183652 0.00692027
0.333057 0.018642 0.00685728
0.332497 0.0172988 0.00743049
0.332453 0.0171323 0.00753252
0.326458 0.0170625 0.0073904
0.326458 0.017048 0.00729146
0.32652 0.0173367 0.00723835
0.332808 0.0174591 0.00732497
0.332793 0.0182074 0.00698735
0.332793 0.0177885 0.00717617
0.326651 0.0171127 0.00728881
0.333017 0.0184548 0.00688025
0.332579 0.0169265 0.00764024
0.332795 0.0186476 0.00689285
0.332604 0.0177295 0.00720235
0.32676 0.0184867 0.00702654
0.332484 0.0169041 0.00766316
0.332698 0.0177584 0.00718787
0.326047 0.0155129 0.00850272
0.332327 0.0166389 0.00783476
0.332778 0.0184142 0.00698836
0.326615 0.0173704 0.00724329
0.326636 0.0174652 0.00721932
0.332688 0.0173431 0.00738488
0.332812 0.0182971 0.00694726
0.332775 0.0181176 0.00702745
0.332946 0.0180908 0.00704292
0.326589 0.0168466 0.00740608
0.332958 0.0185019 0.00694576
0.332681 0.0180877 0.00704206
0.332562 0.0175509 0.00728168
0.326417 0.0162361 0.00789517
0.326852 0.0175992 0.00720436
0.326033 0.0154546 0.00858275
0.326691 0.0173055 0.00725328
0.326086 0.0156623 0.00837556
0.326595 0.0172728 0.00725471
0.326439 0.0163104 0.00783201
0.33241 0.0169658 0.00763455
0.326702 0.0181978 0.00707987
0.326622 0.0178125 0.00715083
0.32646 0.0163848 0.0077687
0.32618 0.0156886 0.00835705
0.32653 0.0172224 0.00734945
0.326396 0.0161616 0.00795846
0.0219312 0.0187687 0.00551176
0.326503 0.0165337 0.00764209
0.33271 0.0174285 0.00733681
0.326602 0.0177232 0.00719121
0.326811 0.0181923 0.00716983
0.326164 0.0159619 0.00812046
0.326757 0.0180372 0.00711405
0.332699 0.0181763 0.00699947
0.326663 0.0180051 0.00711541
0.326797 0.0182303 0.00707843
0.326683 0.0181014 0.00709764
0.326777 0.0181336 0.00709627
0.332908 0.0187769 0.00688064
0.32644 0.0169621 0.00733926
0.332852 0.0189386 0.00690684
0.326205 0.0161112 0.00799348
0.326514 0.0169046 0.00737451
0.326105 0.015737 0.00831199
0.326621 0.0176903 0.00728377
0.326631 0.0177994 0.00724949
0.332813 0.0187447 0.00687697
0.3265 0.0172405 0.00725605
0.332843 0.0184835 0.00686385
0.326712 0.0174016 0.00723561
0.326741 0.0183919 0.00705192
0.33283 0.0183868 0.00690717
0.332678 0.0176686 0.0072292
0.332774 0.0185498 0.00689359
0.320731 0.0183347 0.00691615
0.332432 0.0170491 0.00758353
0.326479 0.0171443 0.00727418
0.332962 0.0186127 0.00687116
0.326951 0.0182268 0.0070871
0.326833 0.0179733 0.0071304
0.326772 0.0176907 0.00718235
0.320402 0.0169077 0.00761077
0.32679 0.0173106 0.00725745
0.326833 0.0178342 0.00724084
0.326161 0.015614 0.00842062
0.326852 0.0180697 0.00711263
0.326524 0.0166082 0.00757879
0.332756 0.0180277 0.00706762
0.326927 0.0180054 0.00712903
0.326343 0.0162852 0.00784945
0.326386 0.0164339 0.0077231
0.326259 0.0159872 0.00810289
0.326832 0.0175029 0.00722212
0.326629 0.0170219 0.00732474
0.332527 0.0170707 0.0075611
0.332548 0.0171539 0.00751008
0.326872 0.0181661 0.00709482
0.332755 0.0184519 0.00689888
0.332636 0.0174892 0.00730882
0.320635 0.017874 0.00713972
0.326239 0.0159126 0.00816637
0.332886 0.0186777 0.00686538
0.326541 0.017433 0.00722065
0.332388 0.0168826 0.00768556
0.326657 0.0175614 0.00720161
0.332889 0.0178198 0.00716395
0.326428 0.0165856 0.0075999
0.332475 0.0172155 0.0074815
0.326871 0.0176958 0.00718653
0.320653 0.0179623 0.00709683
0.320595 0.0176976 0.00722547
0.326817 0.0183269 0.00706063
0.326333 0.0165649 0.00762318
0.327011 0.0183519 0.00706582
0.326642 0.0179088 0.00713313
0.332583 0.0176389 0.00723944
0.32629 0.016409 0.00774025
0.326397 0.0168008 0.00744954
0.326419 0.0168813 0.0073943
0.320293 0.016469 0.00782479
0.320359 0.0167322 0.00769637
0.320272 0.0163813 0.00786759
0.326375 0.0160871 0.00802186
0.326753 0.0175941 0.00720019
0.320315 0.0165568 0.00778198
0.32051 0.0173463 0.00739675
0.326226 0.0161856 0.00793019
0.3266 0.0175924 0.00727785
0.320445 0.0170831 0.00752516
0.3263 0.0161363 0.00797607
0.332737 0.0179388 0.00711066
0.320532 0.017434 0.00735394
0.320708 0.0182277 0.0069681
0.320467 0.0171708 0.00748236
0.326937 0.0184164 0.00704937
0.32678 0.0185832 0.00700873
0.326481 0.0164594 0.00770532
0.326702 0.0176325 0.00727741
0.320554 0.0175217 0.00731114
0.326738 0.0179407 0.00713182
0.326493 0.016823 0.0074283
0.326587 0.0174574 0.00730591
0.320424 0.0169954 0.00756796
0.326125 0.0158117 0.00824839
0.320748 0.0184243 0.00687524
0.326677 0.0176578 0.00718388
0.326321 0.0162108 0.00791271
0.326671 0.017209 0.00727108
0.326732 0.0174978 0.00721792
0.332731 0.0181028 0.00712874
0.32664 0.0178977 0.00723248
0.320615 0.0177858 0.0071826
0.326365 0.016362 0.00778923
0.320575 0.0176095 0.00726834
0.326184 0.0160367 0.00805682
0.32628 0.0160618 0.00803947
0.326247 0.0162601 0.00786683
0.326554 0.0170803 0.00729012
0.320797 0.0182657 0.00694396
0.320672 0.0180507 0.00705392
0.326696 0.0177562 0.00718686
0.320337 0.0166445 0.00773918
0.326354 0.0166426 0.00756404
0.32645 0.0166635 0.00754097
0.326144 0.0158865 0.00818467
0.326311 0.0164834 0.00767696
0.326788 0.0177878 0.00716428
0.32622 0.015838 0.00822992
0.326568 0.0167658 0.00746146
0.327026 0.0181627 0.00710347
0.326735 0.0181065 0.0071827
0.326471 0.0167425 0.00748351
0.326376 0.0167208 0.00750554
0.32069 0.0181392 0.00701102
0.326269 0.0163346 0.00780354
0.332736 0.0183559 0.00691927
0.32038 0.0168199 0.00765357
0.320489 0.0172586 0.00743955
0.332662 0.017997 0.0070796

VERTICES 275 550
1 0
1 1
1 2
1 3
1 4
1 5
1 6
1 7
1 8
1 9
1 10
1 11
1 12
1 13
1 14
1 15
1 16
1 17
1 18
1 19
1 20
1 21
1 22
1 23
1 24
1 25
1 26
1 27
1 28
1 29
1 30
1 31
1 32
1 33
1 34
1 35
1 36
1 37
1 38
1 39
1 40
1 41
1 42
1 43
1 44
1 45
1 46
1 47
1 48
1 49
1 50
1 51
1 52
1 53
1 54
1 55
1 56
1 57
1 58
1 59
1 60
1 61
1 62
1 63
1 64
1 65
1 66
1 67
1 68
1 69
1 70
1 71
1 72
1 73
1 74
1 75
1 76
1 77
1 78
1 79
1 80
1 81
1 82
1 83
1 84
1 85
1 86
1 87
1 88
1 89
1 90
1 91
1 92
1 93
1 94
1 95
1 96
1 97
1 98
1 99
1 100
1 101
1 102
1 103
1 104
1 105
1 106
1 107
1 108
1 109
1 110
1 111
1 112
1 113
1 114
1 115
1 116
1 117
1 118
1 119
1 120
1 121
1 122
1 123
1 124
1 125
1 126
1 127
1 128
1 129
1 130
1 131
1 132
1 133
1 134
1 135
1 136
1 137
1 138
1 139
1 140
1 141
1 142
1 143
1 144
1 145
1 146
1 147
1 148
1 149
1 150
1 151
1 152
1 153
1 154
1 155
1 156
1 157
1 158
1 159
1 160
1 161
1 162
1 163
1 164
1 165
1 166
1 167
1 168
1 169
1 170
1 171
1 172
1 173
1 174
1 175
1 176
1 177
1 178
1 179
1 180
1 181
1 182
1 183
1 184
1 185
1 186
1 187
1 188
1 189
1 190
1 191
1 192
1 193
1 194
1 195
1 196
1 197
1 198
1 199
1 200
1 201
1 202
1 203
1 204
1 205
1 206
1 207
1 208
1 209
1 210
1 211
1 212
1 213
1 214
1 215
1 216
1 217
1 218
1 219
1 220
1 221
1 222
1 223
1 224
1 225
1 226
1 227
1 228
1 229
1 230
1 231
1 232
1 233
1 234
1 235
1 236
1 237
1 238
1 239
1 240
1 241
1 242
1 243
1 244
1 245
1 246
1 247
1 248
1 249
1 250
1 251
1 252
1 253
1 254
1 255
1 256
1 257
1 258
1 259
1 260
1 261
1 262
1 263
1 264
1 265
1 266
1 267
1 268
1 269
1 270
1 271
1 272
1 273
1 274

POINT_DATA 275
SCALARS id int 1
LOOKUP_TABLE default
1
2
4
5
6
7
8
9
10
11
12
13
14
16
17
19
21
22
23
24
25
26
27
28
29
30
31
32
33
34
35
36
37
38
39
41
42
44
45
47
48
49
50
51
52
53
54
55
56
57
59
60
61
62
63
64
65
66
67
68
69
70
71
72
73
74
76
77
78
79
80
82
83
84
85
86
87
88
89
90
91
92
93
94
95
96
97
98
99
100
101
102
103
104
105
106
107
108
109
110
111
112
113
114
115
116
117
118
119
120
121
122
123
124
125
127
128
129
130
131
132
133
134
135
136
137
138
140
141
142
143
144
146
147
148
149
150
151
153
154
155
156
157
158
159
160
162
164
165
166
167
168
169
170
171
172
173
174
176
177
178
179
182
183
184
185
186
187
188
189
190
191
192
193
194
195
196
197
198
199
200
201
202
203
204
205
206
207
208
209
210
211
212
213
214
215
216
217
218
219
220
222
224
225
226
227
228
229
230
232
233
234
235
236
237
239
240
241
242
243
244
246
247
248
249
250
251
252
253
254
255
256
257
258
259
260
261
262
263
264
265
266
267
268
269
270
271
272
273
274
275
276
277
278
279
280
281
283
284
285
286
287
288
289
290
291
292
293
294
295
296
297
298
299
300

SCALARS type int 1
LOOKUP_TABLE default
1
1
1
1
1
1
1
1
1
1
1
1
1
1
1
1
1
1
1
1
1
1
1
1
1
1
1
1
1
1
1
1
1
1
1
1
1
1
1
1
1
1
1
1
1
1
1
1
1
1
1
1
1
1
1
1
1
1
1
1
1
1
1
1
1
1
1
1
1
1
1
1
1
1
1
1
1
1
1
1
1
1
1
1
1
1
1
1
1
1
1
1
1
1
1
1
1
1
1
1
1
1
1
1
1
1
1
1
1
1
1
1
1
1
1
1
1
1
1
1
1
1
1
1
1
1
1
1
1
1
1
1
1
1
1
1
1
1
1
1
1
1
1
1
1
1
1
1
1
1
1
1
1
1
1
1
1
1
1
1
1
1
1
1
1
1
1
1
1
1
1
1
1
1
1
1
1
1
1
1
1
1
1
1
1
1
1
1
1
1
1
1
1
1
1
1
1
1
1
1
1
1
1
1
1
1
1
1
1
1
1
1
1
1
1
1
1
1
1
1
1
1
1
1
1
1
1
1
1
1
1
1
1
1
1
1
1
1
1
1
1
1
1
1
1
1
1
1
1
1
1
1
1
1
1
1
1
1
1
1
1
1
1
1
1
1
1
1
1
1
1
1
1
1
1

SCALARS radius float 1
LOOKUP_TABLE default
5e-05
5e-05
5e-05
5e-05
5e-05
5e-05
5e-05
5e-05
5e-05
5e-05
5e-05
5e-05
5e-05
5e-05
5e-05
5e-05
5e-05
5e-05
5e-05
5e-05
5e-05
5e-05
5e-05
5e-05
5e-05
5e-05
5e-05
5e-05
5e-05
5e-05
5e-05
5e-05
5e-05
5e-05
5e-05
5e-05
5e-05
5e-05
5e-05
5e-05
5e-05
5e-05
5e-05
5e-05
5e-05
5e-05
5e-05
5e-05
5e-05
5e-05
5e-05
5e-05
5e-05
5e-05
5e-05
5e-05
5e-05
5e-05
5e-05
5e-05
5e-05
5e-05
5e-05
5e-05
5e-05
5e-05
5e-05
5e-05
5e-05
5e-05
5e-05
5e-05
5e-05
5e-05
5e-05
5e-05
5e-05
5e-05
5e-05
5e-05
5e-05
5e-05
5e-05
5e-05
5e-05
5e-05
5e-05
5e-05
5e-05
5e-05
5e-05
5e-05
5e-05
5e-05
5e-05
5e-05
5e-05
5e-05
5e-05
5e-05
5e-05
5e-05
5e-05
5e-05
5e-05
5e-05
5e-05
5e-05
5e-05
5e-05
5e-05
5e-05
5e-05
5e-05
5e-05
5e-05
5e-05
5e-05
5e-05
5e-05
5e-05
5e-05
5e-05
5e-05
5e-05
5e-05
5e-05
5e-05
5e-05
5e-05
5e-05
5e-05
5e-05
5e-05
5e-05
5e-05
5e-05
5e-05
5e-05
5e-05
5e-05
5e-05
5e-05
5e-05
5e-05
5e-05
5e-05
5e-05
5e-05
5e-05
5e-05
5e-05
5e-05
5e-05
5e-05
5e-05
5e-05
5e-05
5e-05
5e-05
5e-05
5e-05
5e-05
5e-05
5e-05
5e-05
5e-05
5e-05
5e-05
5e-05
5e-05
5e-05
5e-05
5e-05
5e-05
5e-05
5e-05
5e-05
5e-05
5e-05
5e-05
5e-05
5e-05
5e-05
5e-05
5e-05
5e-05
5e-05
5e-05
5e-05
5e-05
5e-05
5e-05
5e-05
5e-05
5e-05
5e-05
5e-05
5e-05
5e-05
5e-05
5e-05
5e-05
5e-05
5e-05
5e-05
5e-05
5e-05
5e-05
5e-05
5e-05
5e-05
5e-05
5e-05
5e-05
5e-05
5e-05
5e-05
5e-05
5e-05
5e-05
5e-05
5e-05
5e-05
5e-05
5e-05
5e-05
5e-05
5e-05
5e-05
5e-05
5e-05
5e-05
5e-05
5e-05
5e-05
5e-05
5e-05
5e-05
5e-05
5e-05
5e-05
5e-05
5e-05
5e-05
5e-05
5e-05
5e-05
5e-05
5e-05
5e-05
5e-05
5e-05
5e-05
5e-05
5e-05
5e-05
5e-05
5e-05
5e-05
5e-05
5e-05
5e-05
5e-05
5e-05
5e-05
5e-05
5e-05
5e-05
5e-05
5e-05
5e-05
5e-05
5e-05
5e-05

SCALARS mass float 1
LOOKUP_TABLE default
1.46608e-10
1.46608e-10
1.46608e-10
1.46608e-10
1.46608e-10
1.46608e-10
1.46608e-10
1.46608e-10
1.46608e-10
1.46608e-10
1.46608e-10
1.46608e-10
1.46608e-10
1.46608e-10
1.46608e-10
1.46608e-10
1.46608e-10
1.46608e-10
1.46608e-10
1.46608e-10
1.46608e-10
1.46608e-10
1.46608e-10
1.46608e-10
1.46608e-10
1.46608e-10
1.46608e-10
1.46608e-10
1.46608e-10
1.46608e-10
1.46608e-10
1.46608e-10
1.46608e-10
1.46608e-10
1.46608e-10
1.46608e-10
1.46608e-10
1.46608e-10
1.46608e-10
1.46608e-10
1.46608e-10
1.46608e-10
1.46608e-10
1.46608e-10
1.46608e-10
1.46608e-10
1.46608e-10
1.46608e-10
1.46608e-10
1.46608e-10
1.46608e-10
1.46608e-10
1.46608e-10
1.46608e-10
1.46608e-10
1.46608e-10
1.46608e-10
1.46608e-10
1.46608e-10
1.46608e-10
1.46608e-10
1.46608e-10
1.46608e-10
1.46608e-10
1.46608e-10
1.46608e-10
1.46608e-10
1.46608e-10
1.46608e-10
1.46608e-10
1.46608e-10
1.46608e-10
1.46608e-10
1.46608e-10
1.46608e-10
1.46608e-10
1.46608e-10
1.46608e-10
1.46608e-10
1.46608e-10
1.46608e-10
1.46608e-10
1.46608e-10
1.46608e-10
1.46608e-10
1.46608e-10
1.46608e-10
1.46608e-10
1.46608e-10
1.46608e-10
1.46608e-10
1.46608e-10
1.46608e-10
1.46608e-10
1.46608e-10
1.46608e-10
1.46608e-10
1.46608e-10
1.46608e-10
1.46608e-10
1.46608e-10
1.46608e-10
1.46608e-10
1.46608e-10
1.46608e-10
1.46608e-10
1.46608e-10
1.46608e-10
1.46608e-10
1.46608e-10
1.46608e-10
1.46608e-10
1.46608e-10
1.46608e-10
1.46608e-10
1.46608e-10
1.46608e-10
1.46608e-10
1.46608e-10
1.46608e-10
1.46608e-10
1.46608e-10
1.46608e-10
1.46608e-10
1.46608e-10
1.46608e-10
1.46608e-10
1.46608e-10
1.46608e-10
1.46608e-10
1.46608e-10
1.46608e-10
1.46608e-10
1.46608e-10
1.46608e-10
1.46608e-10
1.46608e-10
1.46608e-10
1.46608e-10
1.46608e-10
1.46608e-10
1.46608e-10
1.46608e-10
1.46608e-10
1.46608e-10
1.46608e-10
1.46608e-10
1.46608e-10
1.46608e-10
1.46608e-10
1.46608e-10
1.46608e-10
1.46608e-10
1.46608e-10
1.46608e-10
1.46608e-10
1.46608e-10
1.46608e-10
1.46608e-10
1.46608e-10
1.46608e-10
1.46608e-10
1.46608e-10
1.46608e-10
1.46608e-10
1.46608e-10
1.46608e-10
1.46608e-10
1.46608e-10
1.46608e-10
1.46608e-10
1.46608e-10
1.46608e-10
1.46608e-10
1.46608e-10
1.46608e-10
1.46608e-10
1.46608e-10
1.46608e-10
1.46608e-10
1.46608e-10
1.46608e-10
1.46608e-10
1.46608e-10
1.46608e-10
1.46608e-10
1.46608e-10
1.46608e-10
1.46608e-10
1.46608e-10
1.46608e-10
1.46608e-10
1.46608e-10
1.46608e-10
1.46608e-10
1.46608e-10
1.46608e-10
1.46608e-10
1.46608e-10
1.46608e-10
1.46608e-10
1.46608e-10
1.46608e-10
1.46608e-10
1.46608e-10
1.46608e-10
1.46608e-10
1.46608e-10
1.46608e-10
1.46608e-10
1.46608e-10
1.46608e-10
1.46608e-10
1.46608e-10
1.46608e-10
1.46608e-10
1.46608e-10
1.46608e-10
1.46608e-10
1.46608e-10
1.46608e-10
1.46608e-10
1.46608e-10
1.46608e-10
1.46608e-10
1.46608e-10
1.46608e-10
1.46608e-10
1.46608e-10
1.46608e-10
1.46608e-10
1.46608e-10
1.46608e-10
1.46608e-10
1.46608e-10
1.46608e-10
1.46608e-10
1.46608e-10
1.46608e-10
1.46608e-10
1.46608e-10
1.46608e-10
1.46608e-10
1.46608e-10
1.46608e-10
1.46608e-10
1.46608e-10
1.46608e-10
1.46608e-10
1.46608e-10
1.46608e-10
1.46608e-10
1.46608e-10
1.46608e-10
1.46608e-10
1.46608e-10
1.46608e-10
1.46608e-10
1.46608e-10
1.46608e-10
1.46608e-10
1.46608e-10
1.46608e-10
1.46608e-10
1.46608e-10
1.46608e-10
1.46608e-10
1.46608e-10
1.46608e-10
1.46608e-10
1.46608e-10
1.46608e-10
1.46608e-10
1.46608e-10
1.46608e-10

VECTORS velocity float
0.00565786 0.000300428 -3.39569e-05
0.00605337 -8.13345e-05 -0.000559047
0.00606468 -7.75684e-05 -0.000578284
0.0056324 7.3915e-05 -0.000622404
0.00579433 -0.00136556 0.000226935
0.005865 0.000468849 -8.95989e-05
0.00603097 -7.74798e-05 -0.000573855
0.00530953 -0.00115951 0.000638364
0.00614999 7.54508e-06 -0.000635892
0.00562955 0.000313384 -3.01495e-05
0.00582636 -0.000397167 0.000379098
0.00566246 6.89462e-05 -0.0006226
0.00568726 -0.000389433 0.000393667
0.00549541 -0.000308415 0.000344688
0.00601742 -8.59117e-05 -0.000568935
0.00569131 0.000285989 -3.87175e-05
0.00562126 0.000303905 -2.68023e-05
0.00605209 -9.54641e-05 -0.000565851
0.00566616 -0.000373443 0.000365684
0.00521954 -0.0012312 0.000204846
0.00593709 -1.88326e-05 -0.000596151
0.00549621 -0.00129139 0.000213532
0.00609978 -0.000333719 0.000550853
0.00606394 -7.8598e-05 -0.000573887
0.00568718 6.23837e-05 -0.000620528
0.00595602 -3.99109e-05 -0.000587125
0.00567783 0.000375724 -6.29243e-05
0.00594924 -2.57918e-05 -0.000595432
0.0057931 -0.00136302 0.000225664
0.00593277 -1.29025e-05 -0.000600856
0.00592068 0.000298136 -1.72934e-05
0.00531366 -0.00116232 0.000639434
0.00603632 -9.70059e-05 -0.000563312
0.00600993 0.000265041 9.6765e-07
0.00539992 -0.00126947 0.000209879
0.00579143 2.80836e-05 -0.000611192
0.00607316 0.000243412 7.47225e-06
0.00584989 0.000224805 2.01748e-05
0.00579047 -0.00135899 0.000224246
0.00592508 -6.02533e-06 -0.00060546
0.00572495 0.000299891 -2.8722e-05
0.00531026 -0.0011606 0.000638994
0.005963 -2.90597e-05 -0.000597282
0.00560727 0.00028796 -1.82785e-05
0.00567231 -0.000377275 0.000367093
0.00578412 -0.00135357 0.000221914
0.00566601 0.000278431 -3.48176e-05
0.00601497 -0.000638158 2.49734e-05
0.00568942 0.000285208 -3.91206e-05
0.00579147 -0.00135647 0.000223039
-5.0196e-15 -7.41195e-15 7.69803e-14
0.00580573 0.000252799 7.3384e-06
0.0055548 8.72473e-05 -0.000621681
0.00613301 0.000329993 -2.91758e-05
0.00565045 0.000292903 -2.76745e-05
0.00537663 -0.00126269 0.000208276
0.00597014 -0.000619219 0.000148791
0.00564584 -0.000464616 0.000375593
0.00563713 0.000313093 -3.09463e-05
0.00602269 0.000264691 -3.46181e-06
0.00563514 0.000311424 -2.87945e-05
0.00538082 -0.00121794 0.000413217
0.00539495 -0.000408696 0.000359107
0.00563494 0.000298141 -2.37536e-05
0.00605404 -7.16514e-05 -0.000578166
0.00596543 -3.6437e-05 -0.000592624
0.00616329 -0.000418948 -0.000130457
0.00605195 4.73155e-06 -0.000414765
0.00545405 -0.000358431 0.000315104
0.00534534 -0.000352346 0.00034532
0.00605621 -5.69657e-05 -0.000551318
0.00560437 -0.000407414 0.00037165
0.00574758 -0.000389621 0.000373343
0.00531221 -0.00116172 0.000639138
0.00535672 -0.00040804 0.000358108
0.00629447 0.000443618 -7.91055e-05
0.00604066 -9.31845e-05 -0.000565193
0.0059005 0.000360991 -5.61946e-05
0.00562731 0.000316731 -3.13057e-05
0.00565398 0.000317839 -3.01037e-05
0.00592634 -0.000406216 0.000384839
0.00580558 0.000286094 -1.10286e-05
0.00599733 -5.76736e-05 -0.000576722
0.00565274 0.000294887 -2.33558e-05
0.0055834 0.000371747 -5.19328e-05
0.00584764 0.00027944 -2.33889e-06
0.00553342 -0.000281014 0.00049612
0.00598548 -5.1854e-05 -0.000577503
0.00560318 -0.000510006 0.000388843
0.00574203 0.000453165 -0.000107173
0.00561777 -0.000504261 0.000388281
4.18036e-15 1.05305e-14 8.29603e-14
7.51214e-23 4.86658e-23 1.23839e-22
0.00544454 -0.000352015 0.000350646
0.00551572 -0.000286772 0.000494528
0.00562409 -0.000471502 0.000383727
0.00549233 -0.000349104 0.000341635
0.00563301 0.000294389 -2.16487e-05
0.00569398 0.000237884 -4.61708e-05
0.00605084 -8.65151e-05 -0.000568152
0.00602939 -8.44231e-05 -0.000569772
0.00560713 -0.00045839 0.000373478
0.00559379 -0.000470221 0.00037587
0.00559695 -0.000498171 0.000385759
0.0060286 0.000293093 -1.31191e-05
0.0056864 0.000312853 -2.97586e-05
0.0058648 0.000328875 -3.03267e-05
0.00583484 -0.000479392 0.000398017
0.00564955 0.000287075 -2.07391e-05
0.00608044 -3.31903e-05 -0.000604806
0.00566089 0.000300455 -3.41301e-05
0.00596051 0.000262218 -1.11292e-06
0.00539089 -0.000414212 0.00035872
0.00604342 -8.51537e-05 -0.000570448
0.00595263 0.000339568 -3.50353e-05
0.00554167 -0.000263813 0.000471525
0.00597428 -4.71225e-05 -0.000584301
0.00563133 0.000310301 -3.72853e-05
0.00559389 -0.000629957 2.65528e-05
0.00558719 -0.000533496 0.000392888
0.00604989 -7.98783e-05 -0.00057052
0.00566125 0.000312227 -2.97244e-05
0.00564415 0.000325158 -3.61205e-05
0.00560773 0.000285228 -1.68255e-05
0.00617615 -0.000673464 3.92551e-05
0.00564583 0.000288593 -2.30224e-05
0.00564747 0.000329962 -3.93546e-05
0.00605155 0.000167903 -0.000140015
0.00600058 -0.00036467 0.000585106
0.00567641 -0.000381349 0.000368849
0.00552814 -0.000312342 0.000409957
0.00568261 -0.00045522 0.000381479
0.00552363 -0.00028859 0.000494815
0.00560707 -0.000475973 0.000382181
0.00608261 -0.000329846 0.000556619
0.00601325 -7.3803e-05 -0.000574998
0.00545521 -0.000432127 0.000363016
0.0056354 -0.000477965 0.00038152
0.00612593 -0.000313877 0.000544996
0.00552518 -0.000288565 0.000494867
0.00563244 -0.000457098 0.000383173
0.00588288 -0.000349528 0.000564473
-3.82517e-14 8.17012e-14 2.95888e-13
0.00593359 -0.000310644 0.000531254
0.00606869 0.000243443 1.14398e-05
0.00563821 -0.000488313 0.0003835
0.00538838 -0.000416207 0.000318206
0.00552711 -8.94188e-05 0.000323895
0.00554019 -0.000399807 0.000364394
0.00565718 0.000325164 -3.87304e-05
0.00553216 -0.00044268 0.000373405
0.00541124 -0.000339044 0.000341292
0.00549988 -0.000439105 0.000370056
0.00546907 -0.000405173 0.0003555
0.00568955 0.000284165 -3.89744e-05
0.00598723 -0.000737542 1.59958e-05
0.00567467 0.000288354 -3.78283e-05
0.00597228 -0.000391006 0.000609374
0.00613164 -0.000731007 3.43522e-05
0.00551695 -0.000286839 0.000494143
0.00564834 -0.00048186 0.000379374
0.00565304 -0.000476284 0.000377594
0.00567349 0.00029272 -3.69244e-05
0.00559637 -0.000490935 0.000387139
0.00564797 0.000306727 -2.92027e-05
0.0056701 -0.000453155 0.000380188
0.00535123 -0.000402063 0.000356407
0.00563939 0.000313509 -3.16316e-05
0.00604804 0.000302555 -1.601e-05
0.00565373 0.000306273 -3.44182e-05
0.00548242 -0.000673509 9.40936e-06
0.00602398 -8.06542e-05 -0.000571549
0.00558608 -0.00048127 0.000386098
0.00567787 0.000289972 -3.33945e-05
0.00543424 -0.000326648 0.000345733
0.00556387 -0.000392046 0.000365242
0.00567049 -0.00046022 0.000379836
0.00631824 0.000965309 -0.000894498
0.0057023 -0.000381577 0.000368451
0.00562988 -0.00043094 0.000374622
0.00552869 -0.000290097 0.000497154
0.00550555 -0.00036742 0.000358516
0.00616678 -0.000327343 0.00056672
0.00569279 0.000402605 -7.32943e-05
0.00554743 -0.000307133 0.000346544
0.00602393 -0.000345164 0.000564695
0.00609904 -0.000334284 0.000559597
0.00559337 -0.000291449 0.000501747
0.00566377 -0.000378113 0.000368969
0.00592353 -0.000525012 0.000328286
0.00607328 -5.43019e-05 -0.00059207
0.00604477 -9.19185e-05 -0.000567088
0.00546219 -0.000365804 0.000350857
0.00564826 0.000312751 -3.55822e-05
0.00607474 0.000226342 -5.14995e-05
0.00611401 0.00164775 -0.00120398
0.00551627 -0.000284523 0.00049191
0.00567993 0.000295247 -3.5809e-05
0.00559648 -0.000507532 0.000387364
0.00600447 -6.60878e-05 -0.000576809
0.00560637 -0.00052912 0.000393498
0.00584208 0.000419352 -7.42074e-05
0.00623294 -0.00107671 -0.00048709
0.00603947 -8.68991e-05 -0.000570081
0.00567376 -0.000382877 0.000367483
0.00611546 0.00174599 -0.00124851
0.00621549 0.00144339 -0.00111261
0.00532424 -0.000447067 0.000362264
0.00610854 -0.000379221 0.000484888
0.00540584 -0.00037261 0.000351759
0.0056403 -0.000470941 0.00038225
0.00602015 0.000256398 -4.82308e-06
0.00609263 -0.000344399 0.000557947
0.0061508 -0.000637816 0.000173957
0.00614023 -0.000723054 7.24672e-05
0.0061667 0.000200338 -0.000524725
0.00625542 0.000652248 -0.000742318
0.00615861 0.000136763 -0.000492888
0.00573886 -0.000329595 0.00054065
0.00567717 -0.000459565 0.00038344
0.00618552 0.000314591 -0.000579519
0.00633693 0.00120127 -0.00100684
0.00599093 -0.000384387 0.000598705
0.00558415 -0.000532404 0.000382285
0.00634059 0.00112296 -0.000970326
0.00590119 -0.000338426 0.000555362
0.00578171 0.000360451 -0.000146029
0.00635463 0.00122829 -0.00102084
0.00596389 0.00192966 -0.00132598
0.00634197 0.00115663 -0.000986065
0.00539115 -0.000399219 0.000357927
0.00542441 -0.000410487 0.00036166
0.00606953 -0.000344776 0.000569262
0.0056709 -0.000458884 0.000381881
0.00633121 0.00127614 -0.00104197
0.00553933 -0.000417839 0.000368395
0.00622852 -0.000590816 -1.26247e-05
0.00558725 -0.000518592 0.000391288
0.00633708 0.00106303 -0.000942007
0.00550824 -0.000281133 0.000488205
0.0055806 -0.000479083 0.000293396
0.00565399 -0.000477725 0.000383987
0.00599173 -0.00035128 0.000571574
0.00574806 -0.000461847 0.000395352
0.00569132 -0.00046036 0.000384436
0.00565666 0.000389877 -5.36177e-05
0.00566394 -0.000508023 0.000380367
0.00615105 0.00154735 -0.00115797
0.00607336 -0.000339077 0.000563721
0.00627475 0.00135261 -0.0010739
0.005531 -0.000352449 0.000552244
0.00574561 -0.000315342 0.000527876
0.00600942 -0.000337898 0.000559364
0.00562548 -0.000466919 0.000380202
0.0068507 0.000323632 -0.000628974
0.00612439 0.00181626 -0.00128401
0.00565308 -0.000469168 0.000374391
0.00621704 0.00047248 -0.000655042
0.006127 -0.0004576 0.000389001
0.00618568 -0.000374461 0.000446195
0.00550255 -0.000243767 0.000456095
0.00610354 -0.000354041 0.000535947
0.00565812 -0.000452318 0.000376297
0.00552125 -0.000288074 0.000495278
0.00632921 -0.000397962 -0.000159969
0.00548239 -0.000276066 0.000337832
0.00548568 -0.000384455 0.000378368
0.00618386 -0.000683308 5.00298e-05
0.00614623 -0.000536334 0.000294016
0.00602154 0.00187671 -0.00131139
0.00605105 -0.000335709 0.000561567
0.00562683 0.000323136 -3.65187e-05
0.00629005 0.000824937 -0.000826133
0.00634301 0.00117841 -0.000996682
0.00572395 0.000311952 -2.8501e-05

VECTORS force float
-1.34138e-11 5.63074e-11 1.80539e-11
-1.99709e-11 -2.55145e-11 -5.41084e-11
-5.74858e-11 8.60845e-11 -2.50764e-11
-1.34962e-11 1.0853e-10 -5.87273e-11
-7.45742e-12 -6.95684e-12 3.73669e-12
-2.65198e-10 4.13106e-10 -3.05002e-10
2.07122e-11 -1.32948e-10 7.19226e-11
6.02601e-12 -1.32891e-12 -2.33441e-12
-3.84029e-12 2.09796e-11 -1.31054e-11
-2.89363e-11 3.99126e-11 -1.63538e-11
3.92971e-11 1.2894e-10 -2.23104e-11
9.42493e-12 1.03454e-10 -6.07237e-11
1.83708e-11 1.12328e-11 -4.26294e-11
-1.25757e-10 1.32297e-10 -9.9278e-12
-4.84965e-11 -2.21986e-10 1.19596e-10
-8.80112e-12 -2.9185e-11 -8.90063e-12
-7.49721e-11 -7.7971e-11 4.04823e-11
-9.15495e-11 -1.88661e-11 1.70675e-11
-4.0737e-12 2.37944e-12 5.76391e-11
2.20396e-12 -1.82844e-11 4.60448e-12
9.45388e-11 -5.38063e-11 4.06343e-12
1.02855e-11 -1.00466e-11 6.69005e-12
9.30834e-11 5.85271e-11 2.67353e-11
-6.82487e-12 1.2615e-10 -8.0091e-11
2.54376e-11 6.84916e-11 -4.46177e-11
-6.46662e-11 -4.52271e-11 2.23779e-11
5.38307e-10 1.59988e-11 -1.51109e-10
-6.61013e-11 4.55477e-12 1.44152e-12
1.65747e-11 -1.11338e-11 1.19424e-12
1.18785e-10 7.37161e-12 -6.25371e-11
-1.93231e-10 4.87641e-10 -3.91621e-10
4.16542e-12 2.35966e-11 -9.8455e-13
8.2762e-11 -4.87576e-11 3.23093e-11
-2.52356e-12 2.53541e-10 -4.95422e-11
6.22332e-11 -3.40683e-11 1.21334e-11
-3.05729e-11 1.01276e-10 -7.37856e-11
-1.53185e-10 7.56624e-11 4.20871e-12
-3.99789e-10 3.21645e-10 -1.67974e-10
-3.97592e-11 -1.92423e-12 1.20628e-11
1.2608e-11 8.71332e-11 -8.35051e-11
1.5519e-10 -1.71975e-10 6.68526e-11
6.13785e-12 2.21003e-12 1.15569e-12
-6.74903e-11 5.14585e-11 -5.05291e-11
-8.29547e-11 -6.57938e-11 2.17405e-11
-3.39362e-11 1.0268e-10 -1.06277e-11
-6.38345e-11 -4.38936e-11 2.98405e-11
-4.38763e-11 -1.18519e-11 -7.38593e-13
2.25552e-10 -1.05225e-11 -2.33916e-10
1.77034e-11 -6.96922e-12 -1.08021e-12
5.99843e-11 2.86157e-12 -1.663e-11
2.00333e-24 -4.3944e-25 2.06795e-25
-6.37074e-10 4.7978e-10 -3.1595e-10
-9.33774e-11 1.15988e-10 -5.94547e-11
4.59991e-10 -3.90778e-11 1.28691e-10
-5.95921e-11 -7.6631e-11 2.41957e-11
3.16836e-11 -5.7734e-12 6.27425e-12
1.5148e-10 -1.74389e-10 9.51484e-11
1.10805e-10 1.92208e-11 2.15753e-11
3.99622e-11 -5.68567e-11 4.66105e-12
-9.76885e-11 2.18938e-11 -2.19767e-10
7.27211e-11 -6.65117e-11 4.68276e-11
4.24326e-12 4.02434e-12 3.57932e-11
-6.27739e-11 -2.91844e-11 -2.34349e-11
-1.57973e-10 -1.82624e-10 7.70422e-11
-3.32008e-11 -5.02338e-11 3.10316e-11
-1.30839e-11 4.41182e-11 -5.54376e-11
-4.77294e-10 6.33846e-10 -5.32719e-10
-1.09325e-10 -1.35542e-10 -3.32193e-10
7.54269e-12 -4.94148e-12 1.20371e-10
-8.79231e-11 2.45893e-10 -6.28535e-11
-1.42392e-10 3.76901e-11 -2.9343e-11
-4.17249e-11 -5.66561e-11 2.13807e-11
7.43263e-11 1.10929e-10 -9.45923e-12
7.45264e-12 1.44445e-11 1.72503e-12
-2.10271e-10 2.13244e-10 1.70984e-11
-3.27815e-11 -4.72208e-10 9.40323e-11
1.57469e-10 3.25357e-11 -2.91468e-11
-3.15e-10 6.27978e-11 -3.99601e-10
-1.77542e-11 1.15633e-10 -5.42732e-11
2.77046e-10 -1.54222e-11 -4.31594e-12
1.90313e-11 5.37453e-11 -5.2506e-12
-1.16085e-10 3.34742e-11 -1.84992e-10
-7.1325e-11 -7.97485e-11 8.04027e-11
-3.73362e-11 -1.44044e-12 4.8729e-12
-8.67527e-11 1.67102e-10 -9.15478e-11
3.29509e-10 8.99086e-11 -6.90278e-11
2.72345e-10 1.2938e-12 -1.49302e-11
3.84406e-11 -1.23754e-10 8.37786e-11
-2.54808e-11 -8.36393e-11 2.52885e-11
3.2342e-11 -4.66055e-11 1.68943e-10
-5.29318e-11 -1.02192e-10 5.04104e-11
3.34766e-21 -6.41117e-22 -8.04433e-23
0.0 0.0 0.0
2.45516e-10 5.45965e-11 7.15213e-13
1.08361e-11 1.55419e-11 -6.2048e-13
6.9811e-11 -1.15072e-10 4.04836e-11
-1.28356e-10 -1.2534e-10 1.47154e-10
-1.00592e-10 4.62652e-11 -2.02561e-11