# vtk DataFile Version 3.0
LIGGGHTS particles timestep 36400000
ASCII
DATASET POLYDATA
POINTS 275 float
0.225567 0.0185329 0.00695949
0.225222 0.0173303 0.00728337
0.225385 0.0172315 0.00734346
0.224737 0.0156209 0.00874215
0.231223 0.0173478 0.00734754
0.225521 0.0178865 0.00700664
0.225224 0.0169749 0.00757268
0.231418 0.0182672 0.00700829
0.224868 0.0160657 0.00836118
0.225412 0.0179746 0.00707072
0.219405 0.0168497 0.00748726
0.224716 0.0155468 0.00880565
0.219332 0.0174449 0.00721254
0.219612 0.0179083 0.00711697
0.224846 0.0159916 0.00842467
0.224694 0.0154727 0.00886915
0.225559 0.018075 0.00696306
0.225181 0.0168257 0.00770028
0.219582 0.0177125 0.00714355
0.23134 0.0178967 0.00713717
0.224912 0.0162138 0.00823423
0.231379 0.0180819 0.00707273
0.219188 0.0167692 0.00756931
0.225299 0.0172743 0.00731829
0.224672 0.0153985 0.00893265
0.225 0.01651 0.00798039
0.225597 0.0178233 0.00702243
0.224933 0.0162881 0.00817069
0.231242 0.0174354 0.00730319
0.224824 0.0159175 0.00848817
0.225494 0.01771 0.00708892
0.231477 0.018545 0.00691169
0.225368 0.0171564 0.00740725
0.22544 0.0174833 0.00719136
0.231359 0.0179893 0.00710495
0.224781 0.0157692 0.00861516
0.225496 0.0172784 0.007304
0.225518 0.0175403 0.00716678
0.231261 0.0175262 0.00726605
0.224803 0.0158432 0.00855171
0.225426 0.0183047 0.00697427
0.231437 0.0183598 0.00697607
0.224954 0.0163622 0.00810719
0.225614 0.0179109 0.00697716
0.219459 0.0170762 0.00729803
0.231301 0.0177114 0.00720161
0.225749 0.0181386 0.00695561
0.219367 0.0171103 0.00727472
0.225729 0.0180406 0.00695703
0.231281 0.0176188 0.00723383
0.378022 0.019866 0.005332
0.225539 0.0176273 0.00712215
0.224759 0.0156951 0.00867866
0.225424 0.0175886 0.0071347
0.225447 0.018402 0.00696482
0.23132 0.0178041 0.00716939
0.219374 0.017286 0.00719602
0.219368 0.0176323 0.00724578
0.225579 0.0181732 0.00696161
0.225353 0.0175258 0.00716637
0.225654 0.0181069 0.00695931
0.231398 0.0181746 0.00704051
0.219708 0.017938 0.00711637
0.22562 0.0183688 0.00695871
0.224889 0.0161398 0.00829769
0.224977 0.0164363 0.00804373
0.219314 0.0168845 0.00746501
0.22524 0.0174082 0.00722331
0.218661 0.0152991 0.00890655
0.219671 0.0182035 0.00707741
0.225316 0.0173513 0.00725702
0.219404 0.0177358 0.00723404
0.219424 0.0169248 0.00742391
0.231457 0.0184524 0.00694387
0.219822 0.018073 0.00710159
0.225533 0.0174533 0.00721394
0.225281 0.0171989 0.00738169
0.225426 0.0178565 0.00701994
0.225448 0.0178154 0.00711371
0.225599 0.0182711 0.00696018
0.219388 0.0167744 0.00755072
0.225346 0.0178944 0.00697212
0.225065 0.0167324 0.00778991
0.225429 0.018072 0.00705578
0.225303 0.017704 0.00717384
0.22533 0.0178268 0.00704498
0.218768 0.0156307 0.00854819
0.225042 0.0166587 0.00785325
0.21934 0.0179016 0.00710768
0.22554 0.0179771 0.00696602
0.21936 0.0179988 0.00709466
0.0643568 0.0187248 0.00531097
0.24257 0.0191927 0.00520306
0.219634 0.0180049 0.00710415
0.218725 0.0154981 0.00869148
0.219351 0.0175284 0.00716086
0.218682 0.0153655 0.00883477
0.225674 0.0182049 0.00695789
0.225634 0.0176578 0.00711281
0.225204 0.0172537 0.00734511
0.225171 0.0171087 0.00747845
0.218812 0.0157755 0.00841737
0.219239 0.0173937 0.00717602
0.219301 0.0177072 0.00713371
0.225514 0.0173659 0.00725896
0.225502 0.0182398 0.00696397
0.225501 0.017792 0.00703213
0.219467 0.0172515 0.00720442
0.225695 0.0183027 0.00695643
0.225203 0.0169005 0.00763628
0.225589 0.0186306 0.006958
0.22531 0.0177289 0.00705186
0.219729 0.0180362 0.00710329
0.225085 0.0168069 0.00772628
0.225405 0.0177611 0.00704159
0.218747 0.0155644 0.00861984
0.22502 0.0165846 0.00791674
0.225379 0.0178875 0.0071072
0.219399 0.0177279 0.00713447
0.219419 0.0178252 0.00712144
0.225403 0.01731 0.0072842
0.225523 0.0183374 0.00696248
0.225483 0.0181416 0.00696534
0.225634 0.0180087 0.00696074
0.219351 0.0170347 0.00733826
0.225326 0.0177951 0.00713978
0.225388 0.0181076 0.00696908
0.225259 0.0174928 0.00717336
0.219198 0.0164348 0.00784482
0.219563 0.0176152 0.0071566
0.218704 0.0154317 0.00876326
0.21952 0.0174425 0.00717941
0.218855 0.0159244 0.008291
0.219391 0.0176249 0.00714874
0.219219 0.0165094 0.00778166
0.225128 0.0169552 0.00759929
0.219692 0.0183019 0.0070643
0.219501 0.018227 0.00706768
0.219239 0.0165842 0.00771846
0.218834 0.0158499 0.00835409
0.218877 0.015999 0.00822801
0.219176 0.0163603 0.00790792
0.0219312 0.0187687 0.00551176
0.219278 0.016734 0.00759188
0.225421 0.0173959 0.00723637
0.219381 0.0180958 0.00708172
0.21936 0.017858 0.00719549
0.218942 0.0162223 0.00803867
0.219593 0.0182656 0.0070657
0.225407 0.0182067 0.00696767
0.219481 0.0185483 0.00702147
0.219766 0.018236 0.00707641
0.219627 0.0183764 0.00705129
0.21956 0.0184494 0.00703844
0.225642 0.0184664 0.00695722
0.21922 0.0172964 0.00718874
0.225533 0.0181955 0.00704784
0.218986 0.0163713 0.0079125
0.21928 0.0171519 0.00724652
0.218973 0.0160192 0.00820427
0.21927 0.0175614 0.0072326
0.219402 0.0181926 0.00706883
0.225664 0.0185647 0.00695571
0.219293 0.0176085 0.00714734
0.225437 0.0181717 0.00705669
0.219499 0.0175391 0.00716495
0.219803 0.0179693 0.00711552
0.225545 0.0184351 0.00696099
0.225399 0.0176777 0.00709636
0.225512 0.0186949 0.00696036
0.213433 0.0183305 0.00691814
0.225149 0.0170297 0.00753576
0.219258 0.0174909 0.00716268
0.225717 0.0184003 0.00695494
0.219464 0.0178186 0.00721064
0.219551 0.0180616 0.00709299
0.219509 0.0178674 0.00711888
0.213125 0.0168988 0.00749577
0.219442 0.0169999 0.00736052
0.219298 0.0177024 0.00723354
0.21879 0.0157028 0.0084824
0.219578 0.0181649 0.00707939
0.219296 0.0168092 0.00752847
0.225465 0.0180433 0.00696672
0.219593 0.017811 0.00713
0.219128 0.016544 0.00775967
0.219169 0.0166942 0.00763264
0.219042 0.0162454 0.0080125
0.219472 0.0171607 0.00724616
0.219367 0.0171874 0.00721104
0.225245 0.0170491 0.00750914
0.225264 0.0171239 0.00744544
0.219655 0.0181019 0.0070912
0.22549 0.0185973 0.00696185
0.225334 0.0174386 0.00721171
0.213335 0.0178559 0.007036
0.219019 0.0161707 0.00807581
0.225738 0.0184979 0.00695345
0.219321 0.0178044 0.00712069
0.225107 0.0168811 0.00766293
0.219435 0.0179335 0.00710674
0.225588 0.017735 0.00706859
0.219206 0.0168444 0.00750586
0.225186 0.0171787 0.00740874
0.219368 0.0175332 0.00725931
0.213355 0.0179495 0.00700673
0.213296 0.0176687 0.00709455
0.219748 0.0181386 0.0070895
0.219109 0.0168195 0.00753338
0.219396 0.018053 0.00717077
0.21946 0.0184533 0.00704463
0.225291 0.0176412 0.00709699
0.21907 0.0166696 0.00765994
0.219163 0.0170476 0.00734639
0.219182 0.0171292 0.00729174
0.213026 0.0165329 0.00782195
0.213087 0.0167523 0.00762657
0.213004 0.0164599 0.00788677
0.219154 0.0162859 0.00797099
0.2195 0.0177676 0.00713264
0.213048 0.0166059 0.00775712
0.21322 0.0172942 0.00721251
0.219007 0.0164457 0.00784942
0.219308 0.0173505 0.00723454
0.213162 0.0170453 0.00736503
0.219085 0.0163946 0.00788612
0.225446 0.0179461 0.00698008
0.213237 0.017388 0.00718237
0.213414 0.0182333 0.00693239
0.213179 0.0171187 0.00729911
0.21864 0.0152328 0.00897844
0.219688 0.0178407 0.00712939
0.219259 0.016659 0.00765521
0.219294 0.0172515 0.00724589
0.213256 0.0174816 0.00715309
0.219517 0.0183291 0.00705384
0.219262 0.017073 0.00731301
0.219202 0.0172136 0.00724187
0.213144 0.016972 0.00743051
0.218899 0.0160733 0.00816484
0.213454 0.0184266 0.0069358
0.219456 0.0180304 0.0070938
0.219107 0.0164692 0.00782293
0.219498 0.0173459 0.00719222
0.21948 0.0176703 0.00714567
0.225278 0.0175905 0.0071822
0.219424 0.0182895 0.00705594
0.213315 0.0177623 0.00706527
0.219148 0.0166191 0.00769608
0.213276 0.0175752 0.00712382
0.218964 0.0162968 0.00797564
0.219063 0.0163199 0.00794938
0.219029 0.0165202 0.00778633
0.219403 0.0173807 0.00718375
0.21343 0.0178855 0.00702385
0.213374 0.0180431 0.00697745
0.219477 0.0181273 0.00708088
0.213067 0.0166791 0.00769189
0.219127 0.0168947 0.00746995
0.219223 0.0169198 0.00744232
0.21892 0.016149 0.0081031
0.21909 0.0167445 0.00759669
0.21953 0.0179647 0.0071059
0.218997 0.016096 0.00813909
0.219333 0.0169596 0.00740166
0.219428 0.0174766 0.00719754
0.219443 0.0183748 0.00710423
0.219242 0.0169952 0.00737866
0.219144 0.01697 0.0074065
0.213394 0.0181366 0.00694818
0.21905 0.0165949 0.00772316
0.225469 0.0184996 0.00696334
0.213107 0.0168255 0.00756136
0.213199 0.0172076 0.00725793
0.225369 0.0180094 0.00697048

VERTICES 275 550
1 0
1 1
1 2
1 3
1 4
1 5
1 6
1 7
1 8
1 9
1 10
1 11
1 12
1 13
1 14
1 15
1 16
1 17
1 18
1 19
1 20
1 21
1 22
1 23
1 24
1 25
1 26
1 27
1 28
1 29
1 30
1 31
1 32
1 33
1 34
1 35
1 36
1 37
1 38
1 39
1 40
1 41
1 42
1 43
1 44
1 45
1 46
1 47
1 48
1 49
1 50
1 51
1 52
1 53
1 54
1 55
1 56
1 57
1 58
1 59
1 60
1 61
1 62
1 63
1 64
1 65
1 66
1 67
1 68
1 69
1 70
1 71
1 72
1 73
1 74
1 75
1 76
1 77
1 78
1 79
1 80
1 81
1 82
1 83
1 84
1 85
1 86
1 87
1 88
1 89
1 90
1 91
1 92
1 93
1 94
1 95
1 96
1 97
1 98
1 99
1 100
1 101
1 102
1 103
1 104
1 105
1 106
1 107
1 108
1 109
1 110
1 111
1 112
1 113
1 114
1 115
1 116
1 117
1 118
1 119
1 120
1 121
1 122
1 123
1 124
1 125
1 126
1 127
1 128
1 129
1 130
1 131
1 132
1 133
1 134
1 135
1 136
1 137
1 138
1 139
1 140
1 141
1 142
1 143
1 144
1 145
1 146
1 147
1 148
1 149
1 150
1 151
1 152
1 153
1 154
1 155
1 156
1 157
1 158
1 159
1 160
1 161
1 162
1 163
1 164
1 165
1 166
1 167
1 168
1 169
1 170
1 171
1 172
1 173
1 174
1 175
1 176
1 177
1 178
1 179
1 180
1 181
1 182
1 183
1 184
1 185
1 186
1 187
1 188
1 189
1 190
1 191
1 192
1 193
1 194
1 195
1 196
1 197
1 198
1 199
1 200
1 201
1 202
1 203
1 204
1 205
1 206
1 207
1 208
1 209
1 210
1 211
1 212
1 213
1 214
1 215
1 216
1 217
1 218
1 219
1 220
1 221
1 222
1 223
1 224
1 225
1 226
1 227
1 228
1 229
1 230
1 231
1 232
1 233
1 234
1 235
1 236
1 237
1 238
1 239
1 240
1 241
1 242
1 243
1 244
1 245
1 246
1 247
1 248
1 249
1 250
1 251
1 252
1 253
1 254
1 255
1 256
1 257
1 258
1 259
1 260
1 261
1 262
1 263
1 264
1 265
1 266
1 267
1 268
1 269
1 270
1 271
1 272
1 273
1 274

POINT_DATA 275
SCALARS id int 1
LOOKUP_TABLE default
1
2
4
5
6
7
8
9
10
11
12
13
14
16
17
19
21
22
23
24
25
26
27
28
29
30
31
32
33
34
35
36
37
38
39
41
42
44
45
47
48
49
50
51
52
53
54
55
56
57
59
60
61
62
63
64
65
66
67
68
69
70
71
72
73
74
76
77
78
79
80
82
83
84
85
86
87
88
89
90
91
92
93
94
95
96
97
98
99
100
101
102
103
104
105
106
107
108
109
110
111
112
113
114
115
116
117
118
119
120
121
122
123
124
125
127
128
129
130
131
132
133
134
135
136
137
138
140
141
142
143
144
146
147
148
149
150
151
153
154
155
156
157
158
159
160
162
164
165
166
167
168
169
170
171
172
173
174
176
177
178
179
182
183
184
185
186
187
188
189
190
191
192
193
194
195
196
197
198
199
200
201
202
203
204
205
206
207
208
209
210
211
212
213
214
215
216
217
218
219
220
222
224
225
226
227
228
229
230
232
233
234
235
236
237
239
240
241
242
243
244
246
247
248
249
250
251
252
253
254
255
256
257
258
259
260
261
262
263
264
265
266
267
268
269
270
271
272
273
274
275
276
277
278
279
280
281
283
284
285
286
287
288
289
290
291
292
293
294
295
296
297
298
299
300

SCALARS type int 1
LOOKUP_TABLE default
1
1
1
1
1
1
1
1
1
1
1
1
1
1
1
1
1
1
1
1
1
1
1
1
1
1
1
1
1
1
1
1
1
1
1
1
1
1
1
1
1
1
1
1
1
1
1
1
1
1
1
1
1
1
1
1
1
1
1
1
1
1
1
1
1
1
1
1
1
1
1
1
1
1
1
1
1
1
1
1
1
1
1
1
1
1
1
1
1
1
1
1
1
1
1
1
1
1
1
1
1
1
1
1
1
1
1
1
1
1
1
1
1
1
1
1
1
1
1
1
1
1
1
1
1
1
1
1
1
1
1
1
1
1
1
1
1
1
1
1
1
1
1
1
1
1
1
1
1
1
1
1
1
1
1
1
1
1
1
1
1
1
1
1
1
1
1
1
1
1
1
1
1
1
1
1
1
1
1
1
1
1
1
1
1
1
1
1
1
1
1
1
1
1
1
1
1
1
1
1
1
1
1
1
1
1
1
1
1
1
1
1
1
1
1
1
1
1
1
1
1
1
1
1
1
1
1
1
1
1
1
1
1
1
1
1
1
1
1
1
1
1
1
1
1
1
1
1
1
1
1
1
1
1
1
1
1
1
1
1
1
1
1
1
1
1
1
1
1
1
1
1
1
1
1

SCALARS radius float 1
LOOKUP_TABLE default
5e-05
5e-05
5e-05
5e-05
5e-05
5e-05
5e-05
5e-05
5e-05
5e-05
5e-05
5e-05
5e-05
5e-05
5e-05
5e-05
5e-05
5e-05
5e-05
5e-05
5e-05
5e-05
5e-05
5e-05
5e-05
5e-05
5e-05
5e-05
5e-05
5e-05
5e-05
5e-05
5e-05
5e-05
5e-05
5e-05
5e-05
5e-05
5e-05
5e-05
5e-05
5e-05
5e-05
5e-05
5e-05
5e-05
5e-05
5e-05
5e-05
5e-05
5e-05
5e-05
5e-05
5e-05
5e-05
5e-05
5e-05
5e-05
5e-05
5e-05
5e-05
5e-05
5e-05
5e-05
5e-05
5e-05
5e-05
5e-05
5e-05
5e-05
5e-05
5e-05
5e-05
5e-05
5e-05
5e-05
5e-05
5e-05
5e-05
5e-05
5e-05
5e-05
5e-05
5e-05
5e-05
5e-05
5e-05
5e-05
5e-05
5e-05
5e-05
5e-05
5e-05
5e-05
5e-05
5e-05
5e-05
5e-05
5e-05
5e-05
5e-05
5e-05
5e-05
5e-05
5e-05
5e-05
5e-05
5e-05
5e-05
5e-05
5e-05
5e-05
5e-05
5e-05
5e-05
5e-05
5e-05
5e-05
5e-05
5e-05
5e-05
5e-05
5e-05
5e-05
5e-05
5e-05
5e-05
5e-05
5e-05
5e-05
5e-05
5e-05
5e-05
5e-05
5e-05
5e-05
5e-05
5e-05
5e-05
5e-05
5e-05
5e-05
5e-05
5e-05
5e-05
5e-05
5e-05
5e-05
5e-05
5e-05
5e-05
5e-05
5e-05
5e-05
5e-05
5e-05
5e-05
5e-05
5e-05
5e-05
5e-05
5e-05
5e-05
5e-05
5e-05
5e-05
5e-05
5e-05
5e-05
5e-05
5e-05
5e-05
5e-05
5e-05
5e-05
5e-05
5e-05
5e-05
5e-05
5e-05
5e-05
5e-05
5e-05
5e-05
5e-05
5e-05
5e-05
5e-05
5e-05
5e-05
5e-05
5e-05
5e-05
5e-05
5e-05
5e-05
5e-05
5e-05
5e-05
5e-05
5e-05
5e-05
5e-05
5e-05
5e-05
5e-05
5e-05
5e-05
5e-05
5e-05
5e-05
5e-05
5e-05
5e-05
5e-05
5e-05
5e-05
5e-05
5e-05
5e-05
5e-05
5e-05
5e-05
5e-05
5e-05
5e-05
5e-05
5e-05
5e-05
5e-05
5e-05
5e-05
5e-05
5e-05
5e-05
5e-05
5e-05
5e-05
5e-05
5e-05
5e-05
5e-05
5e-05
5e-05
5e-05
5e-05
5e-05
5e-05
5e-05
5e-05
5e-05
5e-05
5e-05
5e-05
5e-05
5e-05
5e-05
5e-05
5e-05
5e-05
5e-05
5e-05
5e-05
5e-05
5e-05
5e-05
5e-05
5e-05
5e-05
5e-05
5e-05
5e-05
5e-05
5e-05
5e-05

SCALARS mass float 1
LOOKUP_TABLE default
1.46608e-10
1.46608e-10
1.46608e-10
1.46608e-10
1.46608e-10
1.46608e-10
1.46608e-10
1.46608e-10
1.46608e-10
1.46608e-10
1.46608e-10
1.46608e-10
1.46608e-10
1.46608e-10
1.46608e-10
1.46608e-10
1.46608e-10
1.46608e-10
1.46608e-10
1.46608e-10
1.46608e-10
1.46608e-10
1.46608e-10
1.46608e-10
1.46608e-10
1.46608e-10
1.46608e-10
1.46608e-10
1.46608e-10
1.46608e-10
1.46608e-10
1.46608e-10
1.46608e-10
1.46608e-10
1.46608e-10
1.46608e-10
1.46608e-10
1.46608e-10
1.46608e-10
1.46608e-10
1.46608e-10
1.46608e-10
1.46608e-10
1.46608e-10
1.46608e-10
1.46608e-10
1.46608e-10
1.46608e-10
1.46608e-10
1.46608e-10
1.46608e-10
1.46608e-10
1.46608e-10
1.46608e-10
1.46608e-10
1.46608e-10
1.46608e-10
1.46608e-10
1.46608e-10
1.46608e-10
1.46608e-10
1.46608e-10
1.46608e-10
1.46608e-10
1.46608e-10
1.46608e-10
1.46608e-10
1.46608e-10
1.46608e-10
1.46608e-10
1.46608e-10
1.46608e-10
1.46608e-10
1.46608e-10
1.46608e-10
1.46608e-10
1.46608e-10
1.46608e-10
1.46608e-10
1.46608e-10
1.46608e-10
1.46608e-10
1.46608e-10
1.46608e-10
1.46608e-10
1.46608e-10
1.46608e-10
1.46608e-10
1.46608e-10
1.46608e-10
1.46608e-10
1.46608e-10
1.46608e-10
1.46608e-10
1.46608e-10
1.46608e-10
1.46608e-10
1.46608e-10
1.46608e-10
1.46608e-10
1.46608e-10
1.46608e-10
1.46608e-10
1.46608e-10
1.46608e-10
1.46608e-10
1.46608e-10
1.46608e-10
1.46608e-10
1.46608e-10
1.46608e-10
1.46608e-10
1.46608e-10
1.46608e-10
1.46608e-10
1.46608e-10
1.46608e-10
1.46608e-10
1.46608e-10
1.46608e-10
1.46608e-10
1.46608e-10
1.46608e-10
1.46608e-10
1.46608e-10
1.46608e-10
1.46608e-10
1.46608e-10
1.46608e-10
1.46608e-10
1.46608e-10
1.46608e-10
1.46608e-10
1.46608e-10
1.46608e-10
1.46608e-10
1.46608e-10
1.46608e-10
1.46608e-10
1.46608e-10
1.46608e-10
1.46608e-10
1.46608e-10
1.46608e-10
1.46608e-10
1.46608e-10
1.46608e-10
1.46608e-10
1.46608e-10
1.46608e-10
1.46608e-10
1.46608e-10
1.46608e-10
1.46608e-10
1.46608e-10
1.46608e-10
1.46608e-10
1.46608e-10
1.46608e-10
1.46608e-10
1.46608e-10
1.46608e-10
1.46608e-10
1.46608e-10
1.46608e-10
1.46608e-10
1.46608e-10
1.46608e-10
1.46608e-10
1.46608e-10
1.46608e-10
1.46608e-10
1.46608e-10
1.46608e-10
1.46608e-10
1.46608e-10
1.46608e-10
1.46608e-10
1.46608e-10
1.46608e-10
1.46608e-10
1.46608e-10
1.46608e-10
1.46608e-10
1.46608e-10
1.46608e-10
1.46608e-10
1.46608e-10
1.46608e-10
1.46608e-10
1.46608e-10
1.46608e-10
1.46608e-10
1.46608e-10
1.46608e-10
1.46608e-10
1.46608e-10
1.46608e-10
1.46608e-10
1.46608e-10
1.46608e-10
1.46608e-10
1.46608e-10
1.46608e-10
1.46608e-10
1.46608e-10
1.46608e-10
1.46608e-10
1.46608e-10
1.46608e-10
1.46608e-10
1.46608e-10
1.46608e-10
1.46608e-10
1.46608e-10
1.46608e-10
1.46608e-10
1.46608e-10
1.46608e-10
1.46608e-10
1.46608e-10
1.46608e-10
1.46608e-10
1.46608e-10
1.46608e-10
1.46608e-10
1.46608e-10
1.46608e-10
1.46608e-10
1.46608e-10
1.46608e-10
1.46608e-10
1.46608e-10
1.46608e-10
1.46608e-10
1.46608e-10
1.46608e-10
1.46608e-10
1.46608e-10
1.46608e-10
1.46608e-10
1.46608e-10
1.46608e-10
1.46608e-10
1.46608e-10
1.46608e-10
1.46608e-10
1.46608e-10
1.46608e-10
1.46608e-10
1.46608e-10
1.46608e-10
1.46608e-10
1.46608e-10
1.46608e-10
1.46608e-10
1.46608e-10
1.46608e-10
1.46608e-10
1.46608e-10
1.46608e-10
1.46608e-10
1.46608e-10
1.46608e-10
1.46608e-10
1.46608e-10
1.46608e-10
1.46608e-10
1.46608e-10
1.46608e-10
1.46608e-10
1.46608e-10
1.46608e-10
1.46608e-10
1.46608e-10

VECTORS velocity float
0.00609392 2.28401e-05 -0.00022386
0.00548795 -0.000130028 -0.000366104
0.00529841 -0.000160736 -0.000461296
0.00590503 -0.000310512 -0.000387348
0.00529467 -0.000522281 -7.57439e-05
0.00571866 0.000174685 0.000106002
0.00579463 -0.000207303 -0.000461189
0.00546871 -0.000454266 0.000258039
0.00589357 -0.000292151 -0.000401253
0.0058315 0.00019252 2.12127e-07
0.00556873 -0.000446264 -2.95633e-05
0.00590739 -0.000312944 -0.000385624
0.00552717 -0.00030539 0.000252949
0.00572818 -0.000339573 0.000264014
0.00589629 -0.000293261 -0.000400622
0.00590928 -0.000314965 -0.000384106
0.00564852 0.000103875 -0.000254135
0.00599489 -0.000164385 -0.000518011
0.00551708 -0.000308352 0.000252398
0.00542517 -0.000423512 0.000245284
0.00588846 -0.000292719 -0.000400217
0.00544977 -0.000432646 0.000249007
0.00564206 -0.000429359 -4.8e-05
0.00533861 5.09603e-06 -0.000353597
0.0059118 -0.000316426 -0.000383253
0.0058798 -0.000285927 -0.000404938
0.00571246 0.0002493 0.000279491
0.00588697 -0.000292287 -0.000400745
0.00531975 -0.000527754 -7.43156e-05
0.00589835 -0.000296088 -0.000398594
0.00566473 0.000230368 0.000277327
0.00603694 -0.000598352 0.000317734
0.0053028 -0.000153099 -0.000446783
0.00557032 0.000259095 0.000256409
0.00543441 -0.000426639 0.000246865
0.00590131 -0.000303961 -0.000392337
0.00540808 0.000275362 0.000248827
0.0056132 0.000226484 0.000281775
0.00537573 -0.000411843 0.000240409
0.0058992 -0.000299704 -0.000395687
0.00571558 0.000117657 -0.000258296
0.00547691 -0.000468903 0.000261801
0.00588202 -0.0002902 -0.000401712
0.00576846 0.000249196 0.000286868
0.00546057 -0.000425583 -3.53391e-05
0.00539924 -0.0004188 0.000242931
0.00579734 -2.95343e-05 -0.00021181
0.00548717 -0.000351352 -0.000101425
0.00575243 -2.24408e-05 -0.000210529
0.00538834 -0.000414921 0.000241633
-5.01968e-15 -7.41201e-15 7.69802e-14
0.00565767 0.000220766 0.000289438
0.00590334 -0.000307605 -0.000389597
0.00564772 0.000260045 0.000297175
0.00610396 4.17855e-05 -0.000224077
0.00541216 -0.000421403 0.000244954
0.00551707 -0.00030478 0.000246357
0.00549975 -0.000313338 0.000249139
0.00569807 8.98052e-05 -0.00021376
0.00559425 0.000300459 0.000226647
0.00567444 3.23374e-05 -0.000210441
0.0054563 -0.000446341 0.000253378
0.00576468 -0.000465489 0.00028307
0.00603252 1.5181e-05 -0.000221889
0.0058907 -0.000292211 -0.000400751
0.00587921 -0.000287451 -0.000403601
0.00562517 -0.000354897 -0.000108012
0.00555433 0.000112708 -2.17917e-05
0.00570813 0.000300489 0.00094735
0.00587972 -0.000432553 0.000281358
0.00545155 0.00016102 -0.000120515
0.00551566 -0.000308484 0.000252092
0.00551799 -0.000436619 -3.23229e-05
0.00598615 -0.000574971 0.000307845
0.00589883 -0.000481954 0.000290307
0.00554893 0.000208578 0.000288511
0.00534386 -0.000102026 -0.000486552
0.00568346 0.000227872 0.000195891
0.00565903 0.000262462 0.000264469
0.00586716 5.19124e-05 -0.000215963
0.00562075 -0.000453693 -2.6258e-05
0.00571139 -0.000154419 -0.000212575
0.00583461 -0.000262023 -0.000419647
0.00581855 0.000175037 -0.000157342
0.00564671 0.000323278 0.00024272
0.00568342 0.000247577 0.000237279
0.00600027 0.000317872 0.000993584
0.00582819 -0.000265794 -0.000415093
0.00548413 -0.000317694 0.000251492
0.005697 0.00010116 -0.000162948
0.00549478 -0.000332468 0.000253966
4.37034e-15 1.04613e-14 8.29594e-14
-5.71162e-23 5.77616e-22 -1.2867e-21
0.00584986 -0.000368858 0.000272745
0.0059795 0.000311689 0.000993455
0.00551777 -0.000305008 0.000250647
0.00596284 0.00030221 0.00100452
0.00582843 -9.05061e-06 -0.000213985
0.00564353 0.000243376 0.000275557
0.00542469 -0.000205028 -0.000487192
0.00548507 -0.000183814 -0.000442935
0.00600249 -0.000491527 8.66781e-05
0.00552628 -0.000294555 0.000246336
0.00551359 -0.000305636 0.000249612
0.00550472 0.000259857 0.000256836
0.0056792 7.80334e-05 -0.000209022
0.00566433 0.000226175 0.000277837
0.00552806 -0.000287539 0.000246302
0.00595816 -5.12292e-05 -0.000217881
0.00589599 -0.000228032 -0.0004547
0.00612402 2.36926e-05 -0.000225028
0.00570592 0.000241846 0.000281744
0.00586914 -0.000444045 0.000283519
0.0058684 -0.000265791 -0.000420088
0.00567273 0.000246269 0.000275784
0.00598694 0.000314541 0.000990266
0.00586267 -0.000281155 -0.00040652
0.00570837 0.00030359 0.000158195
0.00551736 -0.000308451 0.000251511
0.00551205 -0.000293852 0.000248517
0.00541618 8.73665e-05 -0.000104696
0.00606237 -5.27655e-06 -0.000222441
0.00563862 8.91978e-05 -0.000209765
0.00570283 9.87029e-05 -0.000215247
0.00551559 -0.000351136 -0.000105422
0.00569947 0.000312462 0.000253486
0.00568348 9.43351e-05 -0.000211083
0.00560175 0.000264461 0.00025839
0.0060272 -0.00046501 -4.54196e-05
0.00550178 -0.000303723 0.000250805
0.00597651 0.00030807 0.00100022
0.0055168 -0.000293809 0.000246888
0.00599347 -0.000547425 2.26531e-05
0.00551418 -0.000304198 0.000250856
0.00594886 -0.000435753 -6.45487e-05
0.00586728 -0.000266703 -0.000422597
0.00605412 -0.000400011 0.000285969
0.00590124 -0.000423288 0.000280509
0.00593016 -0.000425954 -7.19286e-05
0.0060102 -0.000533267 3.82077e-05
0.0059803 -0.000550932 2.92093e-05
0.00610975 -0.000493682 -2.82766e-05
-3.83943e-14 8.16435e-14 2.95886e-13
0.00576317 -0.000381403 -9.63803e-05
0.00550086 0.000270026 0.000250199
0.00588176 -0.000407932 0.000291389
0.00552285 -0.00028871 0.000256946
0.00597092 -0.000555232 3.21503e-05
0.00590143 -0.000425001 0.00028249
0.005662 0.000116953 -0.000204264
0.0059594 -0.000433217 0.000296437
0.00602919 -0.000448555 0.000290041
0.00599163 -0.000436353 0.000288561
0.00594278 -0.000465461 0.000294867
0.00608028 3.79354e-06 -0.000223198
0.00554637 -0.000296793 0.000249713
0.00575779 0.000138049 -0.000206915
0.00607086 -0.000561439 3.04901e-05
0.0055126 -0.000371499 -8.08185e-05
0.0059868 -0.000521286 3.25711e-06
0.00551639 -0.000292344 0.000255443
0.00587703 -0.000418252 0.000280934
0.00606576 -3.30939e-05 -0.000222527
0.00551619 -0.000305129 0.000250739
0.00576004 0.000182037 -0.000202264
0.00550488 -0.000300217 0.000250388
0.00578776 -0.000535347 0.000293854
0.00608905 5.60152e-05 -0.000223683
0.00566584 0.000245339 0.000273404
0.00613694 4.66231e-05 -0.000225786
0.0056061 3.05537e-05 0.00042743
0.00573856 -0.000241127 -0.000430645
0.00551371 -0.000290982 0.000249559
0.00602131 -6.64461e-05 -0.000220523
0.0055092 -0.000280466 0.000248626
0.0057487 -0.000549318 0.000293683
0.00554277 -0.000354381 0.000258923
0.00557765 0.000208534 0.000493173
0.00547611 -0.000428027 -3.48453e-05
0.00550656 -0.000309503 0.000246935
0.00600174 -7.42948e-05 0.000559251
0.00591722 -0.000395495 0.000279209
0.00567649 -0.000361277 -0.000107737
0.00565713 9.10045e-05 -0.000202043
0.00559915 -0.000316212 0.000256059
0.00592254 -0.000457739 -4.47599e-05
0.0056999 -0.000439815 -4.36692e-05
0.00599026 -0.000527792 8.46401e-06
0.00543337 -0.000398673 5.92564e-06
0.00549851 -0.000352448 -9.43123e-05
0.0055633 -0.00015366 -0.000480861
0.00544736 -0.00012378 -0.000490759
0.00591982 -0.000385314 0.000277638
0.00612707 4.82722e-05 -0.00022511
0.00553061 0.00025221 9.43726e-05
0.00565639 -1.46081e-05 -0.000182431
0.00626907 -0.000290219 -0.000207699
0.00602734 -6.71848e-05 -0.000220953
0.00550373 -0.000309608 0.00025075
0.0058763 -0.000265524 -0.000420198
0.00550618 -0.000398504 0.000262983
0.00565805 0.00024775 0.000275417
0.00563391 -0.000417801 -5.77968e-05
0.00538441 -0.000167905 -0.000454736
0.00552087 -0.000301616 0.000247487
0.00565977 -2.10995e-05 -0.000176265
0.00561584 2.09406e-06 -0.000181244
0.00593302 -0.000441325 0.00028589
0.00560921 -0.000463612 -1.75042e-05
0.00579242 -0.000426103 0.000337126
0.00592814 -0.000428158 0.0002936
0.0056545 0.000333868 0.000226949
0.00574968 -0.000490126 -6.13457e-06
0.00549246 -0.000429039 4.09145e-06
0.00547822 -0.00037932 7.47207e-05
0.00590741 0.000167995 0.000566662
0.0057135 0.000192818 0.000519922
0.00594059 0.000200148 0.000544836
0.0061271 -0.000507394 -1.82069e-05
0.00552076 -0.000293129 0.000251646
0.00575624 0.00018892 0.000529227
0.00562107 3.93388e-05 -7.14141e-06
0.00603668 -0.000551401 2.53896e-05
0.0055235 -0.000303745 0.000242787
0.00551455 0.000216382 0.000449775
0.00609222 -0.000519214 -6.85611e-06
0.00570634 0.000111167 -3.87488e-05
0.00561315 -3.89874e-06 -0.000172485
0.00555754 -7.04273e-06 6.83194e-05
0.00558418 0.000245118 0.000468991
0.00546288 0.000301523 0.000890422
0.00564074 -0.000444228 0.00027562
0.00587527 -0.000408594 -8.1668e-05
0.00551484 -0.000305861 0.000249758
0.0055559 6.77006e-06 -0.000180997
0.00589939 -0.000449033 0.000278774
0.00549005 -0.00040041 -5.93229e-05
0.00552197 -0.00032717 0.000189259
0.00549254 0.000215769 0.000464847
0.00595563 -0.000550022 3.1302e-05
0.00616144 -9.65162e-05 0.000450946
0.0056928 -0.000432004 0.00027573
0.00599182 -0.000515911 -4.10539e-06
0.00552005 -0.000288562 0.000247879
0.00551823 -0.000311182 0.000251993
0.0056086 0.000317287 0.000201358
0.00589496 -0.00042895 0.000276794
0.005655 -7.72952e-06 -0.00018445
0.00583882 -0.000406268 -8.11122e-05
0.00555184 1.16924e-05 -0.000179788
0.00603673 -0.000561216 3.253e-05
0.00607973 -0.000558708 2.72365e-05
0.0059578 -0.000533468 1.63036e-05
0.00551564 -0.000305882 0.000234713
0.00565507 -1.48776e-05 -0.000181614
0.00567026 -3.72304e-05 -0.000180034
0.00583022 -0.000462003 0.000284624
0.00575307 0.000192691 0.000526034
0.00558231 -0.000462111 -1.87304e-05
0.00557541 -0.00042688 -4.49342e-05
0.00594271 -0.000550433 2.9778e-05
0.00566251 -0.000473097 -1.30441e-05
0.00558693 -0.000535146 0.000282551
0.00662391 6.3608e-05 -0.000525581
0.00556832 -0.000351154 -0.000105677
0.00551569 -0.000308067 0.000244758
0.00590489 -0.000441042 0.000274086
0.00553524 -0.000403097 -5.72154e-05
0.00554495 -0.000454852 -1.78123e-05
0.00565313 -4.82568e-05 -0.000144658
0.00586107 -0.000511065 3.39748e-06
0.00610584 4.79055e-05 -0.000223385
0.00563738 0.000201325 0.000505161
0.00559559 0.000189377 0.000300565
0.00571147 8.95859e-05 -0.000210885

VECTORS force float
-1.36414e-10 4.38055e-11 6.42237e-12
3.04266e-10 -2.27325e-11 5.00138e-12
-2.13048e-10 4.8777e-11 -7.0822e-11
4.08334e-11 1.3225e-10 -1.14367e-10
-7.05204e-12 -4.41113e-12 -3.59579e-12
7.54585e-11 -1.6399e-10 -6.51431e-11
-4.04824e-10 4.07729e-11 6.7159e-11
2.6487e-12 4.28153e-11 8.82052e-12
-1.73153e-11 -8.2075e-11 6.92604e-11
-1.26155e-10 1.33189e-11 2.50956e-11
1.33359e-10 7.64052e-11 -5.0042e-11
1.91679e-11 6.31039e-11 -5.36552e-11
-9.94445e-11 -1.10207e-10 -6.40989e-11
4.25537e-11 2.43806e-11 -8.90268e-12
-5.78191e-12 -1.12693e-11 8.29924e-12
-9.26008e-12 -3.85351e-11 3.24786e-11
-1.08175e-10 -1.11106e-10 1.54139e-10
-9.99126e-11 1.38421e-10 -1.08688e-10
5.52523e-11 -2.00071e-11 6.73025e-13
-3.37977e-11 -1.81056e-11 1.37725e-11
-3.01318e-11 -1.22078e-10 1.01075e-10
-8.67892e-12 -1.05407e-10 4.8652e-11
4.48457e-11 5.32527e-11 -5.30561e-11
-2.02989e-11 5.58627e-11 -7.4006e-11
-3.82732e-11 -1.33877e-10 1.15033e-10
1.5548e-10 -5.51421e-11 2.62249e-11
-1.45379e-10 -2.65025e-11 1.98596e-11
-4.58729e-11 -8.38331e-11 7.12443e-11
3.42837e-12 8.89016e-12 -2.35958e-12
1.88101e-11 6.52861e-11 -5.61813e-11
-6.30879e-11 1.37071e-10 -6.86654e-11
-9.32895e-12 -4.53246e-11 1.57383e-11
1.89105e-10 2.86151e-11 -8.25832e-11
2.48611e-11 -1.13607e-10 5.11298e-11
-1.2337e-11 -5.89697e-11 9.689e-12
4.92623e-11 1.60125e-10 -1.38195e-10
-2.45241e-11 -5.31632e-11 -1.51244e-10
-2.56891e-11 1.84601e-10 -9.56712e-11
1.17314e-11 1.52591e-11 8.42289e-13
4.43412e-11 1.22793e-10 -1.06851e-10
-1.15849e-11 -2.68233e-11 -2.55494e-11
1.07077e-10 2.01269e-10 -7.19031e-11
-1.12842e-11 -4.99337e-11 4.03904e-11
1.00727e-10 -2.23888e-11 9.09378e-12
-1.30721e-10 -2.99882e-11 -1.32208e-10
3.18874e-12 1.31484e-11 8.28308e-12
1.07085e-10 1.11408e-10 -2.8194e-12
-9.52132e-11 1.08649e-10 7.49471e-12
-8.77462e-11 2.25884e-10 -2.62383e-11
1.94901e-12 1.60406e-11 -1.02907e-11
-6.46235e-26 -2.63664e-24 -2.06795e-25
2.57435e-11 2.19975e-10 -7.6723e-11
4.83186e-11 1.65607e-10 -1.40826e-10
-8.10556e-11 3.84268e-11 3.61713e-10
-4.4027e-13 -4.4721e-11 9.57664e-12
5.0113e-12 -1.0887e-11 -9.76803e-12
-1.82471e-11 -5.82848e-11 2.20817e-11
1.39594e-10 7.64077e-11 -1.99157e-11
-1.95419e-10 -1.5972e-10 4.8072e-11
1.20692e-10 -1.55955e-10 1.89358e-10
-9.4695e-11 -1.22302e-10 -2.42114e-11
-2.00823e-11 -9.9653e-11 2.56745e-11
-3.04009e-11 1.32722e-10 -1.41549e-11
-2.66502e-10 -1.04647e-10 1.12385e-11
-2.73614e-11 -1.24286e-10 1.071e-10
2.14626e-10 -7.8755e-11 3.56921e-11
5.87507e-11 -7.0692e-11 6.65792e-11
3.9711e-11 4.95599e-11 8.40024e-11
-1.25039e-10 4.05181e-11 -7.38916e-11
-1.75167e-10 -2.2056e-10 5.42911e-11
-1.20884e-10 5.18849e-12 4.98071e-11
7.25907e-11 -3.5861e-11 -7.74736e-12
-6.98045e-11 1.00182e-10 -6.96798e-11
-4.8305e-11 7.49788e-11 -5.03684e-11
1.60509e-11 -1.60428e-10 1.94536e-11
7.2948e-11 -2.28722e-11 3.3183e-12
2.89466e-10 6.1018e-11 -8.33262e-11
-8.20504e-11 1.86491e-10 3.85304e-10
-3.40131e-11 7.25327e-12 7.70045e-11
-1.49506e-10 -1.56786e-10 7.59226e-12
1.53082e-10 7.18443e-11 -6.82757e-11
-5.65201e-13 -5.20671e-11 -4.18722e-12
1.03073e-10 2.07535e-11 -4.05371e-11
-3.89134e-11 -1.1984e-11 3.50988e-11
-1.98026e-11 -3.71607e-11 -5.0082e-12
-6.11945e-11 -4.1345e-11 9.37071e-11
-3.42929e-12 -6.99815e-11 1.04709e-10
2.30736e-10 -2.10945e-11 -4.02682e-12
1.8799e-10 1.14512e-10 -1.04446e-11
3.61282e-11 -1.29116e-10 -1.65665e-11
3.99469e-10 1.15067e-10 -1.46488e-11
-7.9125e-22 5.09233e-23 2.29543e-23
0.0 0.0 0.0
3.10139e-11 6.46032e-11 2.22204e-12
7.05331e-11 2.92659e-12 -4.49575e-13
2.57309e-11 -8.2202e-11 -1.36083e-11
6.44586e-11 9.7976e-11 -7.98289e-11