# vtk DataFile Version 3.0
LIGGGHTS particles timestep 31800000
ASCII
DATASET POLYDATA
POINTS 275 float
0.198741 0.0184731 0.00688499
0.198375 0.0172497 0.00727567
0.198525 0.0171318 0.0073373
0.197929 0.0156583 0.00872258
0.204334 0.0170909 0.00741754
0.198767 0.0177602 0.00699633
0.198371 0.0168484 0.00749774
0.204541 0.017961 0.0069953
0.198044 0.0158717 0.00817487
0.198521 0.0178601 0.00697765
0.192565 0.0168825 0.00738116
0.197907 0.0156217 0.00881316
0.192556 0.0176434 0.00708782
0.192834 0.0179728 0.00697876
0.198028 0.0158298 0.00826432
0.197886 0.0155874 0.00890471
0.19881 0.0179536 0.00696678
0.198331 0.0166772 0.00759339
0.192792 0.0177865 0.00703816
0.204457 0.0175996 0.0071243
0.198079 0.0159741 0.0080076
0.2045 0.0177688 0.00702677
0.192395 0.0169132 0.00736582
0.19845 0.0171906 0.00730652
0.197865 0.0155529 0.0089961
0.19816 0.0163095 0.00780518
0.198841 0.0176964 0.00701737
0.198099 0.0160585 0.00795783
0.204354 0.0171756 0.00736867
0.198015 0.0157991 0.00835857
0.198725 0.0175847 0.0070819
0.204606 0.0182533 0.00697554
0.198505 0.0170462 0.00738509
0.198587 0.0173881 0.00719402
0.204478 0.0176844 0.00707542
0.197971 0.0157257 0.00853918
0.19862 0.0171579 0.00732053
0.198682 0.0174143 0.00717724
0.204375 0.0172604 0.00731979
0.197992 0.0157593 0.00844723
0.198587 0.0181507 0.0069332
0.204563 0.0180584 0.00698871
0.19812 0.0161417 0.00790651
0.198863 0.0177909 0.00699279
0.192625 0.017139 0.0072461
0.204416 0.01743 0.00722205
0.198926 0.0180827 0.00694817
0.192571 0.0172956 0.00719686
0.19898 0.0179179 0.00697453
0.204395 0.0173452 0.00727092
0.378022 0.019866 0.005332
0.198704 0.0174994 0.00712961
0.19795 0.0156926 0.0086312
0.198607 0.0174735 0.00714628
0.198627 0.0183443 0.00690357
0.204437 0.0175148 0.00717318
0.192612 0.0174823 0.00713735
0.192573 0.0177354 0.00712289
0.198832 0.0180505 0.00695196
0.198512 0.0174469 0.00716329
0.198906 0.0179842 0.00696325
0.20452 0.0178636 0.00700188
0.192928 0.0180033 0.00696729
0.198797 0.018311 0.00691094
0.198062 0.0159156 0.00808676
0.198139 0.0162268 0.00785746
0.192509 0.0170157 0.00728457
0.198396 0.0173351 0.00722793
0.191846 0.0152664 0.00891615
0.19289 0.0182537 0.00688987
0.19847 0.0172761 0.00725875
0.192597 0.0175603 0.0071982
0.192585 0.0169613 0.00732268
0.204585 0.0181559 0.00698213
0.193061 0.0182207 0.00689632
0.198661 0.0173289 0.00722497
0.19843 0.0171051 0.0073543
0.198672 0.0177307 0.00700246
0.198555 0.0176178 0.00706883
0.198777 0.0182141 0.00692579
0.192546 0.0168047 0.00744093
0.198619 0.0178924 0.00697387
0.198218 0.0165644 0.0076585
0.198543 0.0179566 0.00696286
0.198458 0.0175912 0.00708481
0.198597 0.0177959 0.00698858
0.191945 0.0155321 0.00851488
0.198198 0.0164794 0.00770703
0.192676 0.0181513 0.00692577
0.198789 0.0178571 0.00698153
0.192695 0.0182454 0.00689583
0.0643568 0.0187248 0.00531097
0.24257 0.0191927 0.00520306
0.192853 0.0180663 0.00694898
0.19191 0.0153944 0.00865451
0.192621 0.0177761 0.00704481
0.191867 0.0152996 0.00882416
0.198852 0.0181486 0.00693695
0.198799 0.0175253 0.007113
0.198355 0.0171642 0.00732343
0.198315 0.0169927 0.00741926
0.191986 0.0156811 0.00838845
0.192462 0.0176104 0.0071023
0.19256 0.0180278 0.00696691
0.19864 0.0172434 0.00727277
0.198757 0.0181167 0.00694069
0.198746 0.0176702 0.00703412
0.192667 0.0173251 0.00718567
0.198872 0.0182459 0.00692206
0.198351 0.0167628 0.00754557
0.198761 0.0185698 0.0068683
0.198576 0.0177057 0.00702605
0.192947 0.0180973 0.00693737
0.198237 0.0166506 0.00761121
0.198651 0.017644 0.0070511
0.191924 0.0154575 0.00857822
0.198178 0.0163959 0.00775834
0.1985 0.0177636 0.00699235
0.192635 0.0179644 0.00698535
0.192656 0.0180575 0.00695566
0.198545 0.0172172 0.00728953
0.198702 0.0182792 0.00691468
0.198737 0.01802 0.00695548
0.198884 0.0178874 0.00697805
0.19255 0.0172028 0.00722794
0.198479 0.0176767 0.00703725
0.198682 0.0181822 0.00692952
0.198416 0.0174204 0.0071802
0.192393 0.016555 0.00765076
0.192844 0.0177046 0.00706289
0.191887 0.0153387 0.00873443
0.192705 0.0175161 0.00712487
0.192027 0.0158314 0.00826308
0.192744 0.0177032 0.0070653
0.192413 0.0166297 0.0075873
0.198276 0.0168217 0.00751542
0.192911 0.0183502 0.00687342
0.192754 0.0185366 0.00686833
0.192432 0.0167045 0.0075238
0.192008 0.0157555 0.00832527
0.192107 0.0161289 0.00800816
0.192373 0.0164803 0.00771423
0.0219312 0.0187687 0.00551176
0.192471 0.0168586 0.00740232
0.198566 0.0173026 0.0072418
0.192659 0.0185047 0.0068677
0.1926 0.0182144 0.00690758
0.192164 0.016353 0.0078178
0.192829 0.0184082 0.00687144
0.198607 0.0182474 0.00691841
0.192931 0.0184481 0.00687201
0.192986 0.0182845 0.00687777
0.19285 0.0185061 0.00687002
0.19287 0.018604 0.00686861
0.198816 0.0184079 0.0068959
0.192442 0.0175169 0.00713141
0.198662 0.0180855 0.00694432
0.192202 0.0165025 0.00769076
0.192497 0.0173601 0.00718001
0.192086 0.0160555 0.00807282
0.192516 0.0178418 0.00702624
0.192679 0.0186026 0.00686629
0.198836 0.0185046 0.00687879
0.192613 0.0178713 0.00701503
0.198565 0.0180542 0.00694795
0.192726 0.0176094 0.00709513
0.193023 0.0180343 0.00695568
0.198722 0.0183761 0.00689983
0.19863 0.0175586 0.00709866
0.198686 0.0186349 0.00685785
0.186619 0.0183066 0.00693
0.198296 0.016907 0.00746712
0.192495 0.0177488 0.00705591
0.198892 0.0183427 0.00690638
0.192555 0.0176505 0.00718756
0.19279 0.0182166 0.00690298
0.192751 0.0180265 0.00696351
0.186286 0.0168803 0.00749906
0.192604 0.0170445 0.00727063
0.192538 0.0179347 0.00699659
0.191967 0.0156092 0.00845543
0.192809 0.0183103 0.00687316
0.19249 0.0169371 0.00734342
0.198715 0.0179233 0.00697026
0.192813 0.0178796 0.00700847
0.192337 0.0166801 0.00754548
0.192376 0.0168348 0.00742469
0.192261 0.0163793 0.00779775
0.192646 0.0172319 0.00721539
0.192592 0.0173889 0.00716712
0.19839 0.016934 0.00744992
0.19841 0.0170196 0.0074021
0.192872 0.01816 0.00691917
0.198666 0.0185381 0.00687389
0.198491 0.0173615 0.00721103
0.186516 0.0178193 0.00697453
0.192242 0.0163045 0.00786132
0.198911 0.0184393 0.00688927
0.192581 0.0181208 0.00693723
0.198256 0.0167358 0.00756277
0.192619 0.0183101 0.00688552
0.19882 0.0176111 0.00706506
0.192414 0.0169919 0.00730707
0.198335 0.0170786 0.00737126
0.192481 0.0177001 0.00714223
0.186537 0.0179167 0.00696521
0.186474 0.0176488 0.00706982
0.192966 0.0181909 0.00690757
0.192319 0.0169672 0.00732983
0.192639 0.0184068 0.00686911
0.192795 0.0187324 0.00686551
0.198533 0.0175322 0.00711556
0.19228 0.0168103 0.00744758
0.192377 0.0172371 0.0072175
0.192398 0.0173316 0.00719192
0.186188 0.0164522 0.00773802
0.186247 0.0167091 0.00759464
0.186169 0.0163666 0.00778582
0.192048 0.0159049 0.00819856
0.192729 0.0179314 0.00699385
0.186208 0.0165378 0.00769023
0.18639 0.0173074 0.00726054
0.192222 0.016578 0.00762809
0.192538 0.0175464 0.00711869
0.186327 0.0170513 0.00740359
0.192298 0.0165291 0.00767051
0.198694 0.0178272 0.00698783
0.186411 0.0173927 0.00721286
0.186599 0.0182091 0.00693882
0.186348 0.0171366 0.00735591
0.191825 0.0152333 0.00900808
0.192908 0.0179085 0.00699749
0.192451 0.0167809 0.00746218
0.192517 0.0174527 0.00714853
0.186432 0.0174781 0.00716517
0.192775 0.0186345 0.00686692
0.192475 0.0172669 0.00720947
0.192421 0.017424 0.00716134
0.186306 0.0169659 0.00745129
0.192125 0.0162056 0.00794668
0.186639 0.0184042 0.00692118
0.192713 0.0183405 0.00687116
0.192317 0.0166038 0.00760701
0.192687 0.0174185 0.00715593
0.192707 0.0178368 0.00702403
0.198437 0.0175058 0.00713247
0.1927 0.0187005 0.00686488
0.186495 0.0177342 0.00702213
0.192357 0.0167572 0.00748484
0.186454 0.0175632 0.00711761
0.192183 0.0164278 0.00775433
0.192279 0.0164543 0.0077341
0.192241 0.0166546 0.00756676
0.192631 0.0175802 0.00710619
0.18655 0.017592 0.0070994
0.186559 0.018014 0.00695645
0.192734 0.0184387 0.00686974
0.186227 0.0166235 0.00764243
0.192339 0.0170505 0.00727801
0.192433 0.0170777 0.00725858
0.192148 0.016283 0.00788736
0.1923 0.0168888 0.00738867
0.192771 0.0181207 0.00693351
0.192068 0.0159794 0.00813514
0.192529 0.0171084 0.00725299
0.192646 0.0176838 0.00707334
0.19272 0.0187984 0.00686346
0.192453 0.0171728 0.00723525
0.192359 0.0171445 0.0072504
0.186579 0.0181115 0.00694764
0.192261 0.016732 0.00750668
0.198647 0.0184412 0.00688873
0.186267 0.0167947 0.00754685
0.186369 0.017222 0.00730823
0.19864 0.017989 0.00695906

VERTICES 275 550
1 0
1 1
1 2
1 3
1 4
1 5
1 6
1 7
1 8
1 9
1 10
1 11
1 12
1 13
1 14
1 15
1 16
1 17
1 18
1 19
1 20
1 21
1 22
1 23
1 24
1 25
1 26
1 27
1 28
1 29
1 30
1 31
1 32
1 33
1 34
1 35
1 36
1 37
1 38
1 39
1 40
1 41
1 42
1 43
1 44
1 45
1 46
1 47
1 48
1 49
1 50
1 51
1 52
1 53
1 54
1 55
1 56
1 57
1 58
1 59
1 60
1 61
1 62
1 63
1 64
1 65
1 66
1 67
1 68
1 69
1 70
1 71
1 72
1 73
1 74
1 75
1 76
1 77
1 78
1 79
1 80
1 81
1 82
1 83
1 84
1 85
1 86
1 87
1 88
1 89
1 90
1 91
1 92
1 93
1 94
1 95
1 96
1 97
1 98
1 99
1 100
1 101
1 102
1 103
1 104
1 105
1 106
1 107
1 108
1 109
1 110
1 111
1 112
1 113
1 114
1 115
1 116
1 117
1 118
1 119
1 120
1 121
1 122
1 123
1 124
1 125
1 126
1 127
1 128
1 129
1 130
1 131
1 132
1 133
1 134
1 135
1 136
1 137
1 138
1 139
1 140
1 141
1 142
1 143
1 144
1 145
1 146
1 147
1 148
1 149
1 150
1 151
1 152
1 153
1 154
1 155
1 156
1 157
1 158
1 159
1 160
1 161
1 162
1 163
1 164
1 165
1 166
1 167
1 168
1 169
1 170
1 171
1 172
1 173
1 174
1 175
1 176
1 177
1 178
1 179
1 180
1 181
1 182
1 183
1 184
1 185
1 186
1 187
1 188
1 189
1 190
1 191
1 192
1 193
1 194
1 195
1 196
1 197
1 198
1 199
1 200
1 201
1 202
1 203
1 204
1 205
1 206
1 207
1 208
1 209
1 210
1 211
1 212
1 213
1 214
1 215
1 216
1 217
1 218
1 219
1 220
1 221
1 222
1 223
1 224
1 225
1 226
1 227
1 228
1 229
1 230
1 231
1 232
1 233
1 234
1 235
1 236
1 237
1 238
1 239
1 240
1 241
1 242
1 243
1 244
1 245
1 246
1 247
1 248
1 249
1 250
1 251
1 252
1 253
1 254
1 255
1 256
1 257
1 258
1 259
1 260
1 261
1 262
1 263
1 264
1 265
1 266
1 267
1 268
1 269
1 270
1 271
1 272
1 273
1 274

POINT_DATA 275
SCALARS id int 1
LOOKUP_TABLE default
1
2
4
5
6
7
8
9
10
11
12
13
14
16
17
19
21
22
23
24
25
26
27
28
29
30
31
32
33
34
35
36
37
38
39
41
42
44
45
47
48
49
50
51
52
53
54
55
56
57
59
60
61
62
63
64
65
66
67
68
69
70
71
72
73
74
76
77
78
79
80
82
83
84
85
86
87
88
89
90
91
92
93
94
95
96
97
98
99
100
101
102
103
104
105
106
107
108
109
110
111
112
113
114
115
116
117
118
119
120
121
122
123
124
125
127
128
129
130
131
132
133
134
135
136
137
138
140
141
142
143
144
146
147
148
149
150
151
153
154
155
156
157
158
159
160
162
164
165
166
167
168
169
170
171
172
173
174
176
177
178
179
182
183
184
185
186
187
188
189
190
191
192
193
194
195
196
197
198
199
200
201
202
203
204
205
206
207
208
209
210
211
212
213
214
215
216
217
218
219
220
222
224
225
226
227
228
229
230
232
233
234
235
236
237
239
240
241
242
243
244
246
247
248
249
250
251
252
253
254
255
256
257
258
259
260
261
262
263
264
265
266
267
268
269
270
271
272
273
274
275
276
277
278
279
280
281
283
284
285
286
287
288
289
290
291
292
293
294
295
296
297
298
299
300

SCALARS type int 1
LOOKUP_TABLE default
1
1
1
1
1
1
1
1
1
1
1
1
1
1
1
1
1
1
1
1
1
1
1
1
1
1
1
1
1
1
1
1
1
1
1
1
1
1
1
1
1
1
1
1
1
1
1
1
1
1
1
1
1
1
1
1
1
1
1
1
1
1
1
1
1
1
1
1
1
1
1
1
1
1
1
1
1
1
1
1
1
1
1
1
1
1
1
1
1
1
1
1
1
1
1
1
1
1
1
1
1
1
1
1
1
1
1
1
1
1
1
1
1
1
1
1
1
1
1
1
1
1
1
1
1
1
1
1
1
1
1
1
1
1
1
1
1
1
1
1
1
1
1
1
1
1
1
1
1
1
1
1
1
1
1
1
1
1
1
1
1
1
1
1
1
1
1
1
1
1
1
1
1
1
1
1
1
1
1
1
1
1
1
1
1
1
1
1
1
1
1
1
1
1
1
1
1
1
1
1
1
1
1
1
1
1
1
1
1
1
1
1
1
1
1
1
1
1
1
1
1
1
1
1
1
1
1
1
1
1
1
1
1
1
1
1
1
1
1
1
1
1
1
1
1
1
1
1
1
1
1
1
1
1
1
1
1
1
1
1
1
1
1
1
1
1
1
1
1
1
1
1
1
1
1

SCALARS radius float 1
LOOKUP_TABLE default
5e-05
5e-05
5e-05
5e-05
5e-05
5e-05
5e-05
5e-05
5e-05
5e-05
5e-05
5e-05
5e-05
5e-05
5e-05
5e-05
5e-05
5e-05
5e-05
5e-05
5e-05
5e-05
5e-05
5e-05
5e-05
5e-05
5e-05
5e-05
5e-05
5e-05
5e-05
5e-05
5e-05
5e-05
5e-05
5e-05
5e-05
5e-05
5e-05
5e-05
5e-05
5e-05
5e-05
5e-05
5e-05
5e-05
5e-05
5e-05
5e-05
5e-05
5e-05
5e-05
5e-05
5e-05
5e-05
5e-05
5e-05
5e-05
5e-05
5e-05
5e-05
5e-05
5e-05
5e-05
5e-05
5e-05
5e-05
5e-05
5e-05
5e-05
5e-05
5e-05
5e-05
5e-05
5e-05
5e-05
5e-05
5e-05
5e-05
5e-05
5e-05
5e-05
5e-05
5e-05
5e-05
5e-05
5e-05
5e-05
5e-05
5e-05
5e-05
5e-05
5e-05
5e-05
5e-05
5e-05
5e-05
5e-05
5e-05
5e-05
5e-05
5e-05
5e-05
5e-05
5e-05
5e-05
5e-05
5e-05
5e-05
5e-05
5e-05
5e-05
5e-05
5e-05
5e-05
5e-05
5e-05
5e-05
5e-05
5e-05
5e-05
5e-05
5e-05
5e-05
5e-05
5e-05
5e-05
5e-05
5e-05
5e-05
5e-05
5e-05
5e-05
5e-05
5e-05
5e-05
5e-05
5e-05
5e-05
5e-05
5e-05
5e-05
5e-05
5e-05
5e-05
5e-05
5e-05
5e-05
5e-05
5e-05
5e-05
5e-05
5e-05
5e-05
5e-05
5e-05
5e-05
5e-05
5e-05
5e-05
5e-05
5e-05
5e-05
5e-05
5e-05
5e-05
5e-05
5e-05
5e-05
5e-05
5e-05
5e-05
5e-05
5e-05
5e-05
5e-05
5e-05
5e-05
5e-05
5e-05
5e-05
5e-05
5e-05
5e-05
5e-05
5e-05
5e-05
5e-05
5e-05
5e-05
5e-05
5e-05
5e-05
5e-05
5e-05
5e-05
5e-05
5e-05
5e-05
5e-05
5e-05
5e-05
5e-05
5e-05
5e-05
5e-05
5e-05
5e-05
5e-05
5e-05
5e-05
5e-05
5e-05
5e-05
5e-05
5e-05
5e-05
5e-05
5e-05
5e-05
5e-05
5e-05
5e-05
5e-05
5e-05
5e-05
5e-05
5e-05
5e-05
5e-05
5e-05
5e-05
5e-05
5e-05
5e-05
5e-05
5e-05
5e-05
5e-05
5e-05
5e-05
5e-05
5e-05
5e-05
5e-05
5e-05
5e-05
5e-05
5e-05
5e-05
5e-05
5e-05
5e-05
5e-05
5e-05
5e-05
5e-05
5e-05
5e-05
5e-05
5e-05
5e-05
5e-05
5e-05
5e-05
5e-05
5e-05
5e-05
5e-05
5e-05
5e-05
5e-05
5e-05
5e-05
5e-05

SCALARS mass float 1
LOOKUP_TABLE default
1.46608e-10
1.46608e-10
1.46608e-10
1.46608e-10
1.46608e-10
1.46608e-10
1.46608e-10
1.46608e-10
1.46608e-10
1.46608e-10
1.46608e-10
1.46608e-10
1.46608e-10
1.46608e-10
1.46608e-10
1.46608e-10
1.46608e-10
1.46608e-10
1.46608e-10
1.46608e-10
1.46608e-10
1.46608e-10
1.46608e-10
1.46608e-10
1.46608e-10
1.46608e-10
1.46608e-10
1.46608e-10
1.46608e-10
1.46608e-10
1.46608e-10
1.46608e-10
1.46608e-10
1.46608e-10
1.46608e-10
1.46608e-10
1.46608e-10
1.46608e-10
1.46608e-10
1.46608e-10
1.46608e-10
1.46608e-10
1.46608e-10
1.46608e-10
1.46608e-10
1.46608e-10
1.46608e-10
1.46608e-10
1.46608e-10
1.46608e-10
1.46608e-10
1.46608e-10
1.46608e-10
1.46608e-10
1.46608e-10
1.46608e-10
1.46608e-10
1.46608e-10
1.46608e-10
1.46608e-10
1.46608e-10
1.46608e-10
1.46608e-10
1.46608e-10
1.46608e-10
1.46608e-10
1.46608e-10
1.46608e-10
1.46608e-10
1.46608e-10
1.46608e-10
1.46608e-10
1.46608e-10
1.46608e-10
1.46608e-10
1.46608e-10
1.46608e-10
1.46608e-10
1.46608e-10
1.46608e-10
1.46608e-10
1.46608e-10
1.46608e-10
1.46608e-10
1.46608e-10
1.46608e-10
1.46608e-10
1.46608e-10
1.46608e-10
1.46608e-10
1.46608e-10
1.46608e-10
1.46608e-10
1.46608e-10
1.46608e-10
1.46608e-10
1.46608e-10
1.46608e-10
1.46608e-10
1.46608e-10
1.46608e-10
1.46608e-10
1.46608e-10
1.46608e-10
1.46608e-10
1.46608e-10
1.46608e-10
1.46608e-10
1.46608e-10
1.46608e-10
1.46608e-10
1.46608e-10
1.46608e-10
1.46608e-10
1.46608e-10
1.46608e-10
1.46608e-10
1.46608e-10
1.46608e-10
1.46608e-10
1.46608e-10
1.46608e-10
1.46608e-10
1.46608e-10
1.46608e-10
1.46608e-10
1.46608e-10
1.46608e-10
1.46608e-10
1.46608e-10
1.46608e-10
1.46608e-10
1.46608e-10
1.46608e-10
1.46608e-10
1.46608e-10
1.46608e-10
1.46608e-10
1.46608e-10
1.46608e-10
1.46608e-10
1.46608e-10
1.46608e-10
1.46608e-10
1.46608e-10
1.46608e-10
1.46608e-10
1.46608e-10
1.46608e-10
1.46608e-10
1.46608e-10
1.46608e-10
1.46608e-10
1.46608e-10
1.46608e-10
1.46608e-10
1.46608e-10
1.46608e-10
1.46608e-10
1.46608e-10
1.46608e-10
1.46608e-10
1.46608e-10
1.46608e-10
1.46608e-10
1.46608e-10
1.46608e-10
1.46608e-10
1.46608e-10
1.46608e-10
1.46608e-10
1.46608e-10
1.46608e-10
1.46608e-10
1.46608e-10
1.46608e-10
1.46608e-10
1.46608e-10
1.46608e-10
1.46608e-10
1.46608e-10
1.46608e-10
1.46608e-10
1.46608e-10
1.46608e-10
1.46608e-10
1.46608e-10
1.46608e-10
1.46608e-10
1.46608e-10
1.46608e-10
1.46608e-10
1.46608e-10
1.46608e-10
1.46608e-10
1.46608e-10
1.46608e-10
1.46608e-10
1.46608e-10
1.46608e-10
1.46608e-10
1.46608e-10
1.46608e-10
1.46608e-10
1.46608e-10
1.46608e-10
1.46608e-10
1.46608e-10
1.46608e-10
1.46608e-10
1.46608e-10
1.46608e-10
1.46608e-10
1.46608e-10
1.46608e-10
1.46608e-10
1.46608e-10
1.46608e-10
1.46608e-10
1.46608e-10
1.46608e-10
1.46608e-10
1.46608e-10
1.46608e-10
1.46608e-10
1.46608e-10
1.46608e-10
1.46608e-10
1.46608e-10
1.46608e-10
1.46608e-10
1.46608e-10
1.46608e-10
1.46608e-10
1.46608e-10
1.46608e-10
1.46608e-10
1.46608e-10
1.46608e-10
1.46608e-10
1.46608e-10
1.46608e-10
1.46608e-10
1.46608e-10
1.46608e-10
1.46608e-10
1.46608e-10
1.46608e-10
1.46608e-10
1.46608e-10
1.46608e-10
1.46608e-10
1.46608e-10
1.46608e-10
1.46608e-10
1.46608e-10
1.46608e-10
1.46608e-10
1.46608e-10
1.46608e-10
1.46608e-10
1.46608e-10
1.46608e-10
1.46608e-10
1.46608e-10
1.46608e-10
1.46608e-10
1.46608e-10
1.46608e-10
1.46608e-10
1.46608e-10
1.46608e-10
1.46608e-10
1.46608e-10
1.46608e-10

VECTORS velocity float
0.00568157 -0.00022585 0.000115633
0.00602836 -0.000322853 2.62282e-05
0.00565074 -0.000214925 -1.67009e-05
0.00583217 -0.000425127 0.000267404
0.0057242 -0.000960125 0.000198534
0.00619466 -0.000360791 0.000141427
0.00557194 -0.000166086 -4.34128e-05
0.00606681 -0.000964642 0.000345931
0.0053867 -0.000202104 0.000152547
0.00625757 -0.000337959 0.000149137
0.00565007 -8.26674e-05 0.00017223
0.00580141 -0.000432865 0.00027685
0.00620811 -0.000268588 -3.73097e-05
0.00557039 -0.000185959 -5.11466e-05
0.00508045 -0.000231155 0.000103153
0.00575235 -0.000435183 0.000280462
0.00624847 -0.000353126 0.000135352
0.00555255 -0.00015916 -4.82598e-05
0.00621503 -0.000304955 -2.77479e-05
0.00598654 -0.000967733 0.000190471
0.00566787 -4.15587e-05 0.000260546
0.00603988 -0.00101709 0.000155052
0.0056533 -9.71509e-05 -0.000214999
0.00596172 -0.000293841 1.98414e-05
0.00573753 -0.000434403 0.000286092
0.00548539 3.14655e-05 0.000206695
0.00617648 -0.000383006 6.7123e-05
0.00568346 -3.77986e-05 0.000232939
0.0057666 -0.000964518 0.000197103
0.00540629 -0.000385816 0.000114844
0.00618487 -0.000416735 8.80428e-05
0.00601948 -0.000946716 0.000344741
0.00557309 -0.000191627 -2.75636e-05
0.00616717 -0.000381639 6.30098e-05
0.00603571 -0.000983058 0.000191691
0.00569295 -0.00037339 0.000222973
0.00567512 -0.000304903 3.24534e-05
0.00620398 -0.000343997 4.20329e-05
0.00579157 -0.000958859 0.00019278
0.005565 -0.000381009 0.00017619
0.00624048 -0.000348534 0.000135438
0.00605095 -0.00095898 0.000345254
0.00565833 -2.62308e-05 0.00021726
0.00621702 -0.00036254 0.000141498
0.00592742 -0.000158127 0.000191576
0.00590799 -0.000970264 0.000198315
0.00608894 0.000146562 5.58841e-05
0.00606121 -0.000213094 -5.14639e-05
0.00624375 -0.000194777 0.000111076
0.00587577 -0.000958343 0.000191622
-5.01924e-15 -7.41212e-15 7.69803e-14
0.00616793 -0.000378515 6.07347e-05
0.00580143 -0.000407067 0.000251174
0.00616504 -0.000387696 6.14623e-05
0.00563979 -0.000191346 0.000100673
0.0059207 -0.000970704 0.000196088
0.00619452 -0.00025666 -4.22865e-05
0.00622838 -0.000291613 -2.09124e-06
0.00621166 -0.000119788 9.88873e-05
0.00616211 -0.000356903 5.60408e-05
0.00628269 -0.000113685 9.87811e-05
0.00608066 -0.000967742 0.000356138
0.00546974 -1.70648e-05 -0.000102665
0.00561567 -0.000231475 0.000106614
0.00565522 -0.000103609 0.000235679
0.00549664 8.30541e-06 0.000191311
0.0056833 -0.000141047 -3.28708e-05
0.00606869 -0.000319399 2.86636e-05
0.00621219 -0.000164099 -6.77064e-05
0.00557888 -0.000105672 -4.08726e-05
0.00606968 -0.000330853 3.74218e-05
0.00605517 -0.000330289 -9.41212e-05
0.00561208 -0.000106902 0.000138494
0.00603652 -0.000952814 0.000346505
0.00563828 -0.00035509 -7.50951e-06
0.00617958 -0.000382523 6.41337e-05
0.00572929 -0.000230005 -1.03367e-05
0.00624265 -0.000346377 4.17984e-05
0.00617102 -0.000380456 7.16598e-05
0.0056088 -0.000201237 0.000104336
0.00553525 -3.45993e-05 0.000182633
0.00623112 -0.000337817 0.000142724
0.00557251 -0.000167942 -0.000111323
0.00626676 -0.000297099 0.000127122
0.00620658 -0.000306446 0.00012106
0.0062283 -0.000357087 0.000129199
0.00578054 9.16625e-05 7.33408e-05
0.00555292 -0.00011854 -3.70456e-05
0.00567832 -0.000157308 -5.77784e-05
0.00624218 -0.000347256 0.000132493
0.00564469 -0.000121419 -6.37334e-05
4.57619e-15 1.0421e-14 8.29539e-14
-2.55473e-22 9.3025e-22 8.29106e-22
0.00531937 -6.42681e-05 -8.4454e-05
0.0056625 -2.13614e-05 -8.30989e-05
0.00620161 -0.000298711 -2.70162e-05
0.00601648 -0.000143525 -9.73752e-05
0.00562546 -0.000191773 0.000102446
0.00616537 -0.000443104 0.000100121
0.00580157 -0.000252773 -6.63694e-07
0.00558287 -8.59484e-05 -8.64628e-05
0.00579799 6.92756e-05 0.000100645
0.00620755 -0.000213796 -5.83574e-05
0.00626786 -0.000255752 -4.37832e-05
0.00608066 -0.00038045 6.44729e-05
0.00565414 -0.000204339 0.000104859
0.00617735 -0.000383222 0.000120631
0.00609017 -0.000274874 -2.98184e-05
0.00561203 -0.000237139 0.000108657
0.00557218 -0.000164144 -4.23398e-05
0.00573734 -0.000256207 -2.56887e-05
0.00619356 -0.000377611 8.68523e-05
0.0053851 -7.33908e-05 -8.35417e-05
0.00556213 -0.000153491 -7.94227e-05
0.00617604 -0.000404128 9.4686e-05
0.00577794 0.000103725 6.14209e-05
0.005522 -1.71025e-05 0.000122896
0.00627033 -0.00033848 0.000138545
0.00627386 -0.000274558 -3.7092e-05
0.00557836 -0.00014592 -6.4245e-05
0.00591768 -0.000285391 1.59639e-05
0.00561391 -0.000204586 0.000102072
0.00626342 -0.000346875 0.000134806
0.00624188 -0.000361492 0.000136433
0.00595871 -0.000148633 9.12463e-05
0.00626348 -0.000314341 0.00015809
0.00561515 -0.000212641 0.000106054
0.00612486 -0.000326449 3.46447e-05
0.00564235 2.16334e-05 0.000130729
0.00619921 -0.00030064 -2.83774e-05
0.00577933 -8.87843e-05 -0.000114146
0.00621188 -0.000252023 -4.49379e-05
0.00579705 3.24572e-05 0.000115146
0.00620522 -0.000310337 -2.62029e-05
0.00561778 2.07232e-05 0.000124431
0.00556392 -0.000141575 -6.00274e-05
0.00577997 -0.000144723 7.35942e-05
0.0057671 -0.000132479 7.31307e-05
0.00554312 2.58731e-05 0.000123173
0.00580086 4.85967e-05 0.000107451
0.00552832 4.62095e-05 0.000104689
0.00561506 1.61384e-05 0.00012976
-3.83332e-14 8.1659e-14 2.9589e-13
0.00553413 -0.000210213 -0.000163375
0.00610425 -0.000347913 4.64037e-05
0.00576477 -0.000114251 7.34485e-05
0.00568952 -9.92593e-05 -8.50683e-06
0.00551402 5.27706e-05 9.89971e-05
0.00577995 -0.000133604 7.14456e-05
0.00560282 -0.000194282 0.000102321
0.00574806 -0.000151531 7.27575e-05
0.0057319 -0.000257197 -0.000127851
0.00576045 -0.000137218 7.32622e-05
0.0057575 -0.00015408 7.34438e-05
0.00564463 -0.000273018 3.29733e-05
0.00617676 -0.000200559 -8.88574e-05
0.00624576 -0.000337157 0.000133057
0.0055486 9.15443e-05 6.40752e-05
0.00610362 -0.000190581 -8.70678e-05
0.00560373 4.01926e-05 0.000112716
0.00620968 -0.000272823 -3.58829e-05
0.00578088 -0.000120641 7.26495e-05
0.00570705 -0.000268362 -2.87189e-05
0.00622277 -0.000285994 -3.20175e-05
0.00623736 -0.00035702 0.000137075
0.00620004 -0.000317392 -2.36044e-05
0.00557275 4.65332e-05 -0.000125219
0.00563696 -0.000220091 0.000106045
0.00615138 -0.000398981 7.06751e-05
0.00574189 -0.000257204 -2.16664e-05
0.00570419 3.65559e-05 0.000101342
0.00556803 -0.000121603 -6.61805e-05
0.00620787 -0.000296984 -4.20361e-05
0.00563412 -0.000301878 -1.33956e-05
0.00624087 -0.000267245 -3.71209e-05
0.0056781 -0.000175716 -5.83779e-05
0.00553062 -0.000275969 -2.39644e-05
0.00559847 5.14065e-05 -0.000160234
0.00574139 -0.000129591 0.000154374
0.00624384 -0.000261128 -4.21957e-05
0.00578143 8.46673e-05 8.80085e-05
0.00572946 -7.64275e-05 -9.03745e-05
0.00558661 -0.000192079 -0.000125739
0.00623299 -0.000287046 0.000124559
0.00627748 -0.00031638 -2.43443e-05
0.00564043 4.68302e-05 -2.80964e-05
0.00565099 -0.000104704 -0.00026799
0.00551172 6.84483e-05 8.02915e-05
0.00600008 -0.000263508 -2.46349e-05
0.00613431 -0.000222216 -5.11579e-05
0.00557961 -0.000173388 -3.79051e-05
0.00558386 -0.000185897 -3.10405e-05
0.00534121 -7.19301e-05 -8.79946e-05
0.00570871 -0.000207575 0.000101732
0.00612212 -0.00034125 4.20949e-05
0.00630088 -0.000103172 -2.23542e-05
0.00549317 5.82085e-05 8.97823e-05
0.00566292 -0.000325091 -6.92293e-06
0.00561094 -0.000103507 -7.38997e-05
0.00555961 -0.000137488 -5.89329e-05
0.00573477 -8.7572e-05 5.45412e-05
0.0061935 -0.000391221 6.72431e-05
0.0056274 -0.000176844 -0.000309196
0.00555779 -0.000194955 -2.57187e-05
0.00622549 -0.000238056 8.64099e-06
0.00632138 -8.46163e-05 0.00013396
0.00628751 -9.85165e-05 -9.18928e-05
0.00561451 -6.88363e-05 -8.90659e-05
0.00567208 -0.000131299 -0.000275788
0.00574707 -9.62285e-05 7.42317e-05
0.00579827 -0.000127167 7.32852e-05
0.00617484 -0.000363682 7.67689e-05
0.00565658 -6.28012e-05 -0.00017843
0.00557851 1.61634e-05 0.000112962
0.00617936 -0.000194893 -0.000152807
0.00559783 1.19415e-05 -0.000138659
0.00559293 3.87141e-05 -0.000153409
0.00556076 2.27333e-06 -0.000132005
0.00579601 2.16656e-05 0.000127538
0.00629276 -0.000279049 -3.6879e-05
0.00559745 2.63558e-05 -0.000146817
0.00614868 -3.22209e-05 -0.000128809
0.00562454 4.04617e-05 -2.61049e-05
0.00619812 -0.0002386 -4.96949e-05
0.00602657 -2.41813e-05 -0.000130563
0.00562 8.42887e-05 7.41659e-05
0.00623305 -0.000323043 0.000135962
0.00621752 -4.00033e-05 -0.000124597
0.00561359 6.72328e-05 9.62593e-05
0.00607747 -1.54145e-05 -0.000133689
0.00611395 -0.00015231 -8.94098e-05
0.00580975 -4.57147e-05 -0.000101019
0.0055173 4.82767e-05 0.000161199
0.00615658 -0.00020287 -6.30557e-05
0.00624239 -4.33817e-05 -0.000121257
0.0057756 -0.000126605 7.35454e-05
0.00595212 -0.000148545 -8.36159e-05
0.00617786 -0.000192473 -0.000108296
0.00580834 2.05075e-05 -0.000148853
0.00548803 5.29031e-05 0.000100318
0.00573669 2.66596e-05 0.000102866
0.00574043 -7.52807e-05 7.32499e-05
0.00563821 9.87176e-05 5.77785e-05
0.00617736 -0.000284762 -3.22914e-05
0.00625391 -0.000198075 -6.10813e-05
0.00616935 -0.000331141 4.92316e-05
0.00579352 -0.000118767 7.38256e-05
0.00631505 -0.000115029 -6.5275e-05
0.00565007 2.5296e-06 -8.71085e-05
0.00627613 -7.42916e-05 -0.000105314
0.00552008 6.81066e-05 7.96223e-05
0.00557064 7.62203e-05 7.08389e-05
0.00564989 -5.09808e-05 -0.000161304
0.00618429 -0.000292673 -3.302e-05
0.0062968 -8.18459e-05 -0.000102933
0.00629868 -7.00459e-05 0.000121838
0.00576551 -0.000134008 7.28417e-05
0.00559737 4.54886e-05 -0.000157201
0.00567971 -0.000126451 -0.00025829
0.00570748 -1.77475e-05 0.000119803
0.00549474 5.175e-05 0.000100096
0.00567176 -9.37092e-05 -0.000217588
0.00577023 7.7335e-05 -0.000138571
0.00571372 2.74783e-05 0.000122923
0.00578269 -9.65781e-05 0.000150202
0.00620757 -0.000306406 -2.57455e-05
0.00582134 -0.000111139 7.33773e-05
0.00567426 -1.65534e-05 0.000125693
0.0056308 -4.99535e-05 -5.21715e-05
0.00567693 6.43036e-05 9.77615e-05
0.00564816 -6.24032e-05 -0.000179874
0.00567481 -0.000193872 0.000105221
0.00558774 4.08663e-05 -0.000154353
0.00610732 -2.04686e-05 -0.000132115
0.0062321 -0.000337161 0.000136437

VECTORS force float
1.93948e-10 -8.73681e-11 2.97109e-11
7.67449e-10 -6.53907e-10 3.31086e-10
9.809e-11 -4.07272e-10 2.2812e-10
3.90653e-11 2.97973e-11 -8.17275e-12
5.18037e-11 1.72883e-10 -9.34367e-11
3.60861e-10 -7.82132e-11 4.15117e-11
2.71504e-13 -2.78613e-11 -3.54466e-11
1.76134e-11 -1.9521e-11 1.38988e-11
-4.67562e-11 7.02583e-11 -8.21267e-13
1.00109e-10 4.87699e-10 -4.69021e-10
4.45627e-10 -1.87353e-11 -1.42296e-10
-4.90173e-11 1.10604e-11 2.54168e-11
-3.17699e-11 -3.65338e-11 5.81129e-14
-1.25824e-09 -2.29973e-10 8.86806e-11
-7.56882e-11 -8.31289e-11 -1.38725e-11
-1.15907e-10 -4.62821e-11 7.6307e-11
1.94744e-10 -2.18175e-10 3.10437e-11
-1.49549e-10 1.84052e-10 -2.63613e-10
3.30691e-10 -9.18939e-11 2.77028e-11
-7.10368e-10 -5.75876e-11 1.97184e-11
6.98088e-11 1.92753e-10 -1.13832e-10
9.90596e-11 1.96203e-10 1.19378e-10
-1.38744e-11 8.44249e-11 -6.34885e-11
-3.11785e-10 -3.23902e-10 1.80475e-10
-7.60205e-11 -5.39932e-11 1.71506e-10
-4.10367e-12 5.94525e-12 -4.37274e-11
4.70136e-10 -2.21579e-10 -2.62174e-12
5.16905e-11 1.16584e-10 -3.11886e-10
2.09867e-10 7.02485e-11 -3.86536e-11
-7.97764e-11 -1.97363e-10 -2.55885e-11
8.06425e-10 -2.28772e-10 6.878e-11
-4.57769e-11 -1.68953e-10 2.40732e-11
-5.95429e-11 -3.38582e-10 1.88407e-10
1.64672e-10 -1.33317e-10 6.59064e-11
1.82598e-10 2.07677e-10 4.7254e-11
-1.25477e-11 -1.33976e-11 3.20126e-11
8.78259e-11 1.08271e-11 -8.65548e-12
3.85643e-10 -9.73017e-11 3.34984e-11
-4.09742e-11 -9.82002e-11 1.4892e-11
-2.60456e-11 -7.20528e-11 3.90771e-11
1.00817e-10 -4.57412e-10 7.18619e-11
-2.14705e-11 -8.69088e-11 -6.73218e-13
-1.40404e-10 1.00287e-10 -3.27221e-10
3.43285e-10 -9.11281e-11 9.72337e-11
1.02297e-11 3.96591e-10 -4.37818e-11
9.87439e-11 4.6013e-10 -1.92512e-10
3.0961e-10 -5.40607e-11 1.62177e-11
-2.95151e-11 -1.50832e-10 -2.01271e-10
-1.74926e-10 -2.29156e-10 3.51059e-11
-3.98536e-10 2.54375e-10 -1.27386e-10
-9.53843e-24 2.22305e-24 -4.1359e-25
5.64228e-10 -8.13833e-10 3.45238e-10
-4.23482e-11 -2.30358e-12 -1.18088e-11
1.05608e-10 -1.88524e-10 7.1521e-12
7.27072e-11 -2.83318e-10 5.05609e-11
-1.8449e-10 2.73798e-10 -1.29896e-10
4.60669e-11 -9.46713e-11 2.27928e-11
-1.51039e-10 3.03107e-12 6.43125e-11
1.88036e-10 -1.32751e-11 -2.42822e-12
2.62965e-11 4.6772e-11 -1.31976e-11
1.80702e-10 2.94013e-10 -4.37124e-11
-1.92725e-10 1.88683e-11 -4.29061e-11
2.69202e-09 6.3911e-12 -4.10888e-11
1.43324e-10 3.67763e-12 1.20708e-10
4.46992e-11 1.71408e-10 -2.76951e-11
-2.05779e-10 8.48082e-11 -1.98327e-10
-1.58921e-11 -5.49444e-11 2.5421e-11
-3.2949e-10 -6.04853e-10 2.47514e-10
5.14571e-11 1.12212e-10 -3.8915e-10
-5.28081e-11 1.07107e-10 3.77027e-11
-1.93506e-10 -1.94542e-10 9.25165e-11
-2.03931e-11 -1.1812e-10 1.87098e-10
5.84004e-10 4.92061e-11 -2.90394e-10
-3.44801e-11 -1.18188e-10 -2.57004e-11
-3.83355e-10 2.20671e-10 -4.10862e-11
4.62652e-10 -1.31676e-10 5.56849e-11
-3.25829e-10 -3.08783e-10 1.84943e-10
-2.32303e-10 2.28834e-10 6.33015e-11
5.52447e-10 -1.05422e-10 6.29226e-11
5.38322e-11 1.1541e-10 -2.99706e-11
1.39274e-10 -1.18649e-10 -2.72019e-11
1.26909e-10 -1.48005e-10 -9.15724e-11
-5.03668e-11 -1.90577e-10 -1.34453e-10
-6.84449e-11 -2.6332e-10 3.80436e-11
1.88244e-10 4.18359e-10 -2.99146e-10
-1.87378e-10 1.17491e-10 -4.24472e-11
2.24987e-11 -6.83821e-11 1.03365e-10
-1.14649e-11 -2.86017e-10 -2.59755e-10
1.09121e-11 2.50385e-11 -7.01311e-11
2.48783e-10 -2.18208e-11 -2.07813e-11
-4.49747e-10 4.85907e-10 9.86933e-10
-3.14083e-22 2.16825e-22 -1.0133e-23
0.0 0.0 0.0
-3.24391e-10 4.24437e-11 -8.11755e-12
-1.28104e-10 -1.60821e-10 -2.94247e-10
-1.35892e-10 4.29372e-11 1.53032e-11