# vtk DataFile Version 3.0
LIGGGHTS particles timestep 49200000
ASCII
DATASET POLYDATA
POINTS 275 float
0.300174 0.0183452 0.00691169
0.299826 0.0171944 0.00725584
0.299976 0.017067 0.00729148
0.299455 0.0157939 0.00843579
0.305714 0.0166949 0.00751353
0.300119 0.0177164 0.00707287
0.299823 0.0167676 0.00742176
0.305908 0.0175692 0.00709012
0.299918 0.0167976 0.00741005
0.300055 0.0180946 0.00703763
0.29408 0.0171911 0.00745753
0.299433 0.0157261 0.00850609
0.294051 0.0176203 0.0071987
0.29426 0.0179159 0.00704452
0.299787 0.0166296 0.00756188
0.299412 0.0156583 0.0085764
0.300162 0.0179016 0.00701047
0.299937 0.0168869 0.00736953
0.294217 0.0177211 0.00702758
0.305831 0.0171993 0.00721188
0.299559 0.0161334 0.00808495
0.30587 0.0173766 0.00712808
0.293781 0.0167018 0.00789705
0.299901 0.0171308 0.00727362
0.29939 0.0155906 0.0086467
0.299637 0.0164051 0.00780191
0.300193 0.0176524 0.0070908
0.29958 0.0162006 0.00801385
0.305733 0.0167765 0.00745898
0.299547 0.0160637 0.00815568
0.300077 0.0175311 0.0071353
0.305971 0.0178571 0.00703346
0.299957 0.0169763 0.00732924
0.300035 0.0173457 0.00719773
0.305851 0.0172873 0.00716865
0.299498 0.0159294 0.00829518
0.300071 0.0170963 0.00727976
0.300131 0.0173744 0.00718445
0.305753 0.016858 0.00740443
0.299519 0.0159974 0.00822506
0.300033 0.0181218 0.00694381
0.305928 0.0176655 0.00707114
0.299601 0.0162684 0.00794355
0.300215 0.017745 0.0070596
0.29414 0.0174113 0.00726282
0.305792 0.0170255 0.00730257
0.300396 0.0181444 0.00692631
0.293967 0.0170947 0.00754637
0.300374 0.0180503 0.00695308
0.305772 0.0169396 0.00734988
0.378022 0.019866 0.005332
0.300151 0.0174671 0.00715323
0.299476 0.0158616 0.0083655
0.300056 0.0174385 0.00716651
0.300054 0.0182147 0.00691363
0.305811 0.0171124 0.00725722
0.29389 0.0171441 0.00750635
0.293953 0.0177559 0.00710962
0.300183 0.0179941 0.00697927
0.29996 0.0174097 0.00717986
0.300258 0.0179301 0.0069972
0.305889 0.0174729 0.0071091
0.294302 0.0181107 0.00706145
0.300226 0.0181803 0.00691996
0.300052 0.0170058 0.00731747
0.299617 0.016337 0.00787266
0.293913 0.0168735 0.00774173
0.299845 0.0172874 0.00722458
0.293326 0.0155155 0.00895181
0.294227 0.0181771 0.00706465
0.299921 0.0172238 0.00724236
0.294061 0.0176965 0.00713464
0.294099 0.0172646 0.00739257
0.305949 0.0177613 0.0070523
0.29409 0.0183964 0.00707839
0.300111 0.0172816 0.00721568
0.299881 0.0170378 0.00730497
0.300023 0.0176877 0.00708621
0.300168 0.0180721 0.0070402
0.300204 0.0180867 0.00694814
0.294061 0.0171175 0.0075226
0.299947 0.0177514 0.0070684
0.299692 0.0166096 0.00758969
0.300081 0.0181926 0.00700757
0.29999 0.0178172 0.00713109
0.299926 0.0176588 0.0070996
0.293411 0.0158081 0.00869273
0.299673 0.0165415 0.00766045
0.293909 0.0175614 0.00714308
0.30014 0.017809 0.00704167
0.293929 0.0176373 0.00708101
0.0643568 0.0187248 0.00531097
0.24257 0.0191927 0.00520306
0.294281 0.0180133 0.00705299
0.293549 0.0159742 0.00854203
0.293926 0.0172914 0.0073762
0.293347 0.0155886 0.00888704
0.300279 0.0180227 0.006966
0.300353 0.0179577 0.00698428
0.299806 0.0171017 0.00728781
0.299767 0.0169174 0.00735483
0.293481 0.0159527 0.0086783
0.293812 0.0171931 0.00746673
0.293869 0.0174139 0.00727169
0.300091 0.0171888 0.00724715
0.300108 0.018058 0.00696151
0.300097 0.0176239 0.00710407
0.294004 0.017242 0.00741621
0.300301 0.0181166 0.00693921
0.2999 0.0167159 0.00746486
0.300195 0.0184428 0.0069083
0.299905 0.0175662 0.00713081
0.294248 0.0182744 0.00707312
0.299805 0.0166967 0.00748997
0.300001 0.0175951 0.00711741
0.29339 0.0157348 0.00875762
0.299657 0.016473 0.00773144
0.300033 0.018002 0.00706866
0.293966 0.0174382 0.00724636
0.293987 0.0175115 0.00718151
0.299996 0.0171599 0.00726023
0.300129 0.0181508 0.0069309
0.300087 0.0179654 0.00699261
0.300236 0.0178376 0.0070284
0.29395 0.0170208 0.00761159
0.300062 0.0178884 0.00712255
0.29999 0.0179366 0.007006
0.299865 0.0173804 0.00719331
0.293792 0.0164334 0.00813105
0.294179 0.0175582 0.00713287
0.293368 0.0156618 0.00882227
0.294043 0.0173888 0.00728638
0.293432 0.0158815 0.00862776
0.293946 0.0173649 0.00731126
0.293815 0.0165063 0.00806648
0.299728 0.0167457 0.00744771
0.294069 0.018299 0.00706992
0.294066 0.0178516 0.00703373
0.293837 0.0165792 0.00800183
0.293528 0.0159011 0.00860678
0.293463 0.0160341 0.0086231
0.293771 0.0163603 0.00819577
0.0219312 0.0187687 0.00551176
0.293877 0.016726 0.00787202
0.300015 0.0172529 0.00722898
0.293942 0.0177147 0.00701911
0.294004 0.0178473 0.00711198
0.293518 0.0161686 0.00837351
0.294108 0.0180467 0.00705071
0.300012 0.0180291 0.0069748
0.294027 0.0181042 0.00705299
0.294151 0.0182415 0.00706765
0.294048 0.0182016 0.00706146
0.29413 0.0181441 0.00705918
0.300249 0.0182792 0.00691655
0.293795 0.0171193 0.00753192
0.300204 0.018246 0.0069999
0.293569 0.0163133 0.0082451
0.293872 0.0170703 0.00757154
0.293453 0.0159549 0.0085628
0.293945 0.0175862 0.00723312
0.293963 0.0178121 0.00702759
0.30027 0.0183768 0.00691316
0.293849 0.0173404 0.00733659
0.300126 0.0183082 0.00699678
0.294064 0.017462 0.00722155
0.294111 0.0184937 0.00708686
0.300151 0.018247 0.00691508
0.29998 0.0175024 0.00714863
0.300119 0.0185079 0.00690345
0.288089 0.0183762 0.00700379
0.299748 0.016827 0.00739287
0.29383 0.0172668 0.00740167
0.300323 0.0182125 0.00692142
0.29409 0.0177905 0.00711609
0.294163 0.0178842 0.00703917
0.29412 0.0176879 0.00702208
0.287759 0.0169262 0.00745014
0.294119 0.017338 0.00732765
0.29393 0.0176672 0.00717644
0.293506 0.0158279 0.00867153
0.294184 0.0179815 0.00704764
0.293895 0.0167997 0.00780689
0.300065 0.0178728 0.00702381
0.294238 0.0178185 0.00703605
0.293715 0.0164828 0.00809102
0.29376 0.0166287 0.00796181
0.293622 0.0161918 0.00834905
0.294159 0.0174847 0.00719786
0.293985 0.0171683 0.0074813
0.299842 0.0168569 0.0073812
0.299862 0.0169474 0.00734324
0.294205 0.0180791 0.00705613
0.300098 0.0184104 0.00690684
0.29994 0.0173168 0.0072111
0.287984 0.0178878 0.0069845
0.293597 0.0161194 0.00841325
0.300344 0.01831 0.00691803
0.293889 0.0174874 0.00720698
0.29971 0.0166782 0.0075192
0.294007 0.0175852 0.0071163
0.300172 0.0175598 0.007122
0.2938 0.0167754 0.00783201
0.299787 0.017009 0.00731963
0.294206 0.0176315 0.00707044
0.288004 0.0179857 0.00698744
0.287944 0.0177036 0.00703753
0.294172 0.0183389 0.00707612
0.293704 0.0167508 0.00785742
0.294105 0.0178893 0.00712027
0.294006 0.0180069 0.00704452
0.299884 0.0174734 0.00716204
0.29366 0.0166047 0.00798683
0.293758 0.016972 0.00766206
0.293775 0.0170459 0.00759686
0.287663 0.0165264 0.00772815
0.28772 0.0167531 0.00754208
0.287644 0.0164553 0.00779585
0.293747 0.0162876 0.00826023
0.294102 0.017614 0.00708727
0.287681 0.0165976 0.00766046
0.287858 0.0173592 0.00722028
0.293592 0.016386 0.00818059
0.293923 0.0175128 0.0072973
0.287799 0.0170995 0.00735818
0.29367 0.016337 0.0082202
0.300044 0.0177803 0.00705501
0.287881 0.0174457 0.00717557
0.288068 0.0182785 0.0069997
0.287818 0.017186 0.00731221
0.293305 0.0154423 0.00901658
0.294376 0.0180436 0.00705818
0.293859 0.0166524 0.00793706
0.294032 0.0175468 0.00726365
0.2879 0.0175319 0.00712862
0.294087 0.0179493 0.00704224
0.293853 0.0169969 0.00763648
0.293902 0.0174397 0.00736223
0.287779 0.0170128 0.0074042
0.29348 0.016051 0.00852616
0.28811 0.0184738 0.00700788
0.294022 0.01766 0.00705038
0.293693 0.0164098 0.00815573
0.294023 0.0173154 0.00735128
0.294084 0.0175359 0.00715628
0.299969 0.0177246 0.00716229
0.293984 0.0179095 0.00703606
0.287961 0.0177906 0.00699133
0.293738 0.0165557 0.00802645
0.28792 0.0176217 0.0070898
0.293544 0.0162407 0.00830944
0.293647 0.0162643 0.00828472
0.293616 0.0164588 0.00811611
0.293908 0.0172178 0.00744128
0.288142 0.0182114 0.00699527
0.288025 0.0180833 0.00699152
0.294045 0.017754 0.00702525
0.2877 0.0166699 0.00759411
0.293723 0.0168244 0.00779239
0.293818 0.0168492 0.00776687
0.293494 0.016096 0.00843791
0.293683 0.0166777 0.00792219
0.294141 0.0177859 0.00703061
0.293577 0.016046 0.00847817
0.29393 0.0169474 0.0076765
0.294197 0.0177696 0.00711258
0.294047 0.0179752 0.00712993
0.293835 0.016923 0.00770168
0.29374 0.0168982 0.00772725
0.288047 0.0181809 0.00699561
0.293637 0.0165318 0.0080514
0.300076 0.0183128 0.00691023
0.28774 0.0168397 0.00749611
0.287838 0.0172726 0.00726629
0.299969 0.017844 0.0070372

VERTICES 275 550
1 0
1 1
1 2
1 3
1 4
1 5
1 6
1 7
1 8
1 9
1 10
1 11
1 12
1 13
1 14
1 15
1 16
1 17
1 18
1 19
1 20
1 21
1 22
1 23
1 24
1 25
1 26
1 27
1 28
1 29
1 30
1 31
1 32
1 33
1 34
1 35
1 36
1 37
1 38
1 39
1 40
1 41
1 42
1 43
1 44
1 45
1 46
1 47
1 48
1 49
1 50
1 51
1 52
1 53
1 54
1 55
1 56
1 57
1 58
1 59
1 60
1 61
1 62
1 63
1 64
1 65
1 66
1 67
1 68
1 69
1 70
1 71
1 72
1 73
1 74
1 75
1 76
1 77
1 78
1 79
1 80
1 81
1 82
1 83
1 84
1 85
1 86
1 87
1 88
1 89
1 90
1 91
1 92
1 93
1 94
1 95
1 96
1 97
1 98
1 99
1 100
1 101
1 102
1 103
1 104
1 105
1 106
1 107
1 108
1 109
1 110
1 111
1 112
1 113
1 114
1 115
1 116
1 117
1 118
1 119
1 120
1 121
1 122
1 123
1 124
1 125
1 126
1 127
1 128
1 129
1 130
1 131
1 132
1 133
1 134
1 135
1 136
1 137
1 138
1 139
1 140
1 141
1 142
1 143
1 144
1 145
1 146
1 147
1 148
1 149
1 150
1 151
1 152
1 153
1 154
1 155
1 156
1 157
1 158
1 159
1 160
1 161
1 162
1 163
1 164
1 165
1 166
1 167
1 168
1 169
1 170
1 171
1 172
1 173
1 174
1 175
1 176
1 177
1 178
1 179
1 180
1 181
1 182
1 183
1 184
1 185
1 186
1 187
1 188
1 189
1 190
1 191
1 192
1 193
1 194
1 195
1 196
1 197
1 198
1 199
1 200
1 201
1 202
1 203
1 204
1 205
1 206
1 207
1 208
1 209
1 210
1 211
1 212
1 213
1 214
1 215
1 216
1 217
1 218
1 219
1 220
1 221
1 222
1 223
1 224
1 225
1 226
1 227
1 228
1 229
1 230
1 231
1 232
1 233
1 234
1 235
1 236
1 237
1 238
1 239
1 240
1 241
1 242
1 243
1 244
1 245
1 246
1 247
1 248
1 249
1 250
1 251
1 252
1 253
1 254
1 255
1 256
1 257
1 258
1 259
1 260
1 261
1 262
1 263
1 264
1 265
1 266
1 267
1 268
1 269
1 270
1 271
1 272
1 273
1 274

POINT_DATA 275
SCALARS id int 1
LOOKUP_TABLE default
1
2
4
5
6
7
8
9
10
11
12
13
14
16
17
19
21
22
23
24
25
26
27
28
29
30
31
32
33
34
35
36
37
38
39
41
42
44
45
47
48
49
50
51
52
53
54
55
56
57
59
60
61
62
63
64
65
66
67
68
69
70
71
72
73
74
76
77
78
79
80
82
83
84
85
86
87
88
89
90
91
92
93
94
95
96
97
98
99
100
101
102
103
104
105
106
107
108
109
110
111
112
113
114
115
116
117
118
119
120
121
122
123
124
125
127
128
129
130
131
132
133
134
135
136
137
138
140
141
142
143
144
146
147
148
149
150
151
153
154
155
156
157
158
159
160
162
164
165
166
167
168
169
170
171
172
173
174
176
177
178
179
182
183
184
185
186
187
188
189
190
191
192
193
194
195
196
197
198
199
200
201
202
203
204
205
206
207
208
209
210
211
212
213
214
215
216
217
218
219
220
222
224
225
226
227
228
229
230
232
233
234
235
236
237
239
240
241
242
243
244
246
247
248
249
250
251
252
253
254
255
256
257
258
259
260
261
262
263
264
265
266
267
268
269
270
271
272
273
274
275
276
277
278
279
280
281
283
284
285
286
287
288
289
290
291
292
293
294
295
296
297
298
299
300

SCALARS type int 1
LOOKUP_TABLE default
1
1
1
1
1
1
1
1
1
1
1
1
1
1
1
1
1
1
1
1
1
1
1
1
1
1
1
1
1
1
1
1
1
1
1
1
1
1
1
1
1
1
1
1
1
1
1
1
1
1
1
1
1
1
1
1
1
1
1
1
1
1
1
1
1
1
1
1
1
1
1
1
1
1
1
1
1
1
1
1
1
1
1
1
1
1
1
1
1
1
1
1
1
1
1
1
1
1
1
1
1
1
1
1
1
1
1
1
1
1
1
1
1
1
1
1
1
1
1
1
1
1
1
1
1
1
1
1
1
1
1
1
1
1
1
1
1
1
1
1
1
1
1
1
1
1
1
1
1
1
1
1
1
1
1
1
1
1
1
1
1
1
1
1
1
1
1
1
1
1
1
1
1
1
1
1
1
1
1
1
1
1
1
1
1
1
1
1
1
1
1
1
1
1
1
1
1
1
1
1
1
1
1
1
1
1
1
1
1
1
1
1
1
1
1
1
1
1
1
1
1
1
1
1
1
1
1
1
1
1
1
1
1
1
1
1
1
1
1
1
1
1
1
1
1
1
1
1
1
1
1
1
1
1
1
1
1
1
1
1
1
1
1
1
1
1
1
1
1
1
1
1
1
1
1

SCALARS radius float 1
LOOKUP_TABLE default
5e-05
5e-05
5e-05
5e-05
5e-05
5e-05
5e-05
5e-05
5e-05
5e-05
5e-05
5e-05
5e-05
5e-05
5e-05
5e-05
5e-05
5e-05
5e-05
5e-05
5e-05
5e-05
5e-05
5e-05
5e-05
5e-05
5e-05
5e-05
5e-05
5e-05
5e-05
5e-05
5e-05
5e-05
5e-05
5e-05
5e-05
5e-05
5e-05
5e-05
5e-05
5e-05
5e-05
5e-05
5e-05
5e-05
5e-05
5e-05
5e-05
5e-05
5e-05
5e-05
5e-05
5e-05
5e-05
5e-05
5e-05
5e-05
5e-05
5e-05
5e-05
5e-05
5e-05
5e-05
5e-05
5e-05
5e-05
5e-05
5e-05
5e-05
5e-05
5e-05
5e-05
5e-05
5e-05
5e-05
5e-05
5e-05
5e-05
5e-05
5e-05
5e-05
5e-05
5e-05
5e-05
5e-05
5e-05
5e-05
5e-05
5e-05
5e-05
5e-05
5e-05
5e-05
5e-05
5e-05
5e-05
5e-05
5e-05
5e-05
5e-05
5e-05
5e-05
5e-05
5e-05
5e-05
5e-05
5e-05
5e-05
5e-05
5e-05
5e-05
5e-05
5e-05
5e-05
5e-05
5e-05
5e-05
5e-05
5e-05
5e-05
5e-05
5e-05
5e-05
5e-05
5e-05
5e-05
5e-05
5e-05
5e-05
5e-05
5e-05
5e-05
5e-05
5e-05
5e-05
5e-05
5e-05
5e-05
5e-05
5e-05
5e-05
5e-05
5e-05
5e-05
5e-05
5e-05
5e-05
5e-05
5e-05
5e-05
5e-05
5e-05
5e-05
5e-05
5e-05
5e-05
5e-05
5e-05
5e-05
5e-05
5e-05
5e-05
5e-05
5e-05
5e-05
5e-05
5e-05
5e-05
5e-05
5e-05
5e-05
5e-05
5e-05
5e-05
5e-05
5e-05
5e-05
5e-05
5e-05
5e-05
5e-05
5e-05
5e-05
5e-05
5e-05
5e-05
5e-05
5e-05
5e-05
5e-05
5e-05
5e-05
5e-05
5e-05
5e-05
5e-05
5e-05
5e-05
5e-05
5e-05
5e-05
5e-05
5e-05
5e-05
5e-05
5e-05
5e-05
5e-05
5e-05
5e-05
5e-05
5e-05
5e-05
5e-05
5e-05
5e-05
5e-05
5e-05
5e-05
5e-05
5e-05
5e-05
5e-05
5e-05
5e-05
5e-05
5e-05
5e-05
5e-05
5e-05
5e-05
5e-05
5e-05
5e-05
5e-05
5e-05
5e-05
5e-05
5e-05
5e-05
5e-05
5e-05
5e-05
5e-05
5e-05
5e-05
5e-05
5e-05
5e-05
5e-05
5e-05
5e-05
5e-05
5e-05
5e-05
5e-05
5e-05
5e-05
5e-05
5e-05
5e-05
5e-05
5e-05
5e-05
5e-05
5e-05
5e-05
5e-05
5e-05
5e-05
5e-05
5e-05
5e-05
5e-05

SCALARS mass float 1
LOOKUP_TABLE default
1.46608e-10
1.46608e-10
1.46608e-10
1.46608e-10
1.46608e-10
1.46608e-10
1.46608e-10
1.46608e-10
1.46608e-10
1.46608e-10
1.46608e-10
1.46608e-10
1.46608e-10
1.46608e-10
1.46608e-10
1.46608e-10
1.46608e-10
1.46608e-10
1.46608e-10
1.46608e-10
1.46608e-10
1.46608e-10
1.46608e-10
1.46608e-10
1.46608e-10
1.46608e-10
1.46608e-10
1.46608e-10
1.46608e-10
1.46608e-10
1.46608e-10
1.46608e-10
1.46608e-10
1.46608e-10
1.46608e-10
1.46608e-10
1.46608e-10
1.46608e-10
1.46608e-10
1.46608e-10
1.46608e-10
1.46608e-10
1.46608e-10
1.46608e-10
1.46608e-10
1.46608e-10
1.46608e-10
1.46608e-10
1.46608e-10
1.46608e-10
1.46608e-10
1.46608e-10
1.46608e-10
1.46608e-10
1.46608e-10
1.46608e-10
1.46608e-10
1.46608e-10
1.46608e-10
1.46608e-10
1.46608e-10
1.46608e-10
1.46608e-10
1.46608e-10
1.46608e-10
1.46608e-10
1.46608e-10
1.46608e-10
1.46608e-10
1.46608e-10
1.46608e-10
1.46608e-10
1.46608e-10
1.46608e-10
1.46608e-10
1.46608e-10
1.46608e-10
1.46608e-10
1.46608e-10
1.46608e-10
1.46608e-10
1.46608e-10
1.46608e-10
1.46608e-10
1.46608e-10
1.46608e-10
1.46608e-10
1.46608e-10
1.46608e-10
1.46608e-10
1.46608e-10
1.46608e-10
1.46608e-10
1.46608e-10
1.46608e-10
1.46608e-10
1.46608e-10
1.46608e-10
1.46608e-10
1.46608e-10
1.46608e-10
1.46608e-10
1.46608e-10
1.46608e-10
1.46608e-10
1.46608e-10
1.46608e-10
1.46608e-10
1.46608e-10
1.46608e-10
1.46608e-10
1.46608e-10
1.46608e-10
1.46608e-10
1.46608e-10
1.46608e-10
1.46608e-10
1.46608e-10
1.46608e-10
1.46608e-10
1.46608e-10
1.46608e-10
1.46608e-10
1.46608e-10
1.46608e-10
1.46608e-10
1.46608e-10
1.46608e-10
1.46608e-10
1.46608e-10
1.46608e-10
1.46608e-10
1.46608e-10
1.46608e-10
1.46608e-10
1.46608e-10
1.46608e-10
1.46608e-10
1.46608e-10
1.46608e-10
1.46608e-10
1.46608e-10
1.46608e-10
1.46608e-10
1.46608e-10
1.46608e-10
1.46608e-10
1.46608e-10
1.46608e-10
1.46608e-10
1.46608e-10
1.46608e-10
1.46608e-10
1.46608e-10
1.46608e-10
1.46608e-10
1.46608e-10
1.46608e-10
1.46608e-10
1.46608e-10
1.46608e-10
1.46608e-10
1.46608e-10
1.46608e-10
1.46608e-10
1.46608e-10
1.46608e-10
1.46608e-10
1.46608e-10
1.46608e-10
1.46608e-10
1.46608e-10
1.46608e-10
1.46608e-10
1.46608e-10
1.46608e-10
1.46608e-10
1.46608e-10
1.46608e-10
1.46608e-10
1.46608e-10
1.46608e-10
1.46608e-10
1.46608e-10
1.46608e-10
1.46608e-10
1.46608e-10
1.46608e-10
1.46608e-10
1.46608e-10
1.46608e-10
1.46608e-10
1.46608e-10
1.46608e-10
1.46608e-10
1.46608e-10
1.46608e-10
1.46608e-10
1.46608e-10
1.46608e-10
1.46608e-10
1.46608e-10
1.46608e-10
1.46608e-10
1.46608e-10
1.46608e-10
1.46608e-10
1.46608e-10
1.46608e-10
1.46608e-10
1.46608e-10
1.46608e-10
1.46608e-10
1.46608e-10
1.46608e-10
1.46608e-10
1.46608e-10
1.46608e-10
1.46608e-10
1.46608e-10
1.46608e-10
1.46608e-10
1.46608e-10
1.46608e-10
1.46608e-10
1.46608e-10
1.46608e-10
1.46608e-10
1.46608e-10
1.46608e-10
1.46608e-10
1.46608e-10
1.46608e-10
1.46608e-10
1.46608e-10
1.46608e-10
1.46608e-10
1.46608e-10
1.46608e-10
1.46608e-10
1.46608e-10
1.46608e-10
1.46608e-10
1.46608e-10
1.46608e-10
1.46608e-10
1.46608e-10
1.46608e-10
1.46608e-10
1.46608e-10
1.46608e-10
1.46608e-10
1.46608e-10
1.46608e-10
1.46608e-10
1.46608e-10
1.46608e-10
1.46608e-10
1.46608e-10
1.46608e-10
1.46608e-10
1.46608e-10
1.46608e-10
1.46608e-10
1.46608e-10
1.46608e-10
1.46608e-10
1.46608e-10
1.46608e-10
1.46608e-10
1.46608e-10
1.46608e-10
1.46608e-10
1.46608e-10
1.46608e-10

VECTORS velocity float
0.00616252 -0.000549371 0.000198633
0.00557023 -0.000491282 -6.66861e-05
0.00561375 -0.000435303 -7.60618e-05
0.00593205 -0.000429488 0.000322757
0.00556031 -0.000106823 0.000260196
0.00612026 -0.000536307 -7.3238e-05
0.00559967 -0.000303501 0.000259759
0.00560876 -0.000209178 0.000127153
0.00562773 -0.000313223 0.000257825
0.00617276 -0.000523131 -4.79627e-05
0.00579234 -0.000404162 0.000116474
0.00593689 -0.000438751 0.000332259
0.00613522 -0.000463206 0.000133952
0.00606262 -0.000464918 0.00013786
0.00555536 -0.00037924 0.000121476
0.00594922 -0.00044685 0.000340404
0.00610004 -0.000515084 -8.06845e-05
0.00561763 -0.000323488 0.000264431
0.00608329 -0.000474904 0.000141216
0.00566294 -0.00026614 2.18055e-05
0.00479666 -0.000216045 7.07467e-05
0.00566266 -0.000217465 0.000126831
0.0060636 -0.000334511 4.52903e-05
0.00558367 -0.000476421 -7.77334e-05
0.00596543 -0.000453136 0.00034638
0.00549744 -0.00030147 0.000200538
0.00612938 -0.0005433 -7.18985e-05
0.00499068 -0.000216098 0.000124223
0.00557064 -0.000111708 0.000264092
0.0050528 -0.000218969 0.000120947
0.00598265 -0.000527429 -7.07044e-05
0.00614986 -0.000324501 0.000157932
0.00559932 -0.000341638 0.000227761
0.00572323 -0.000513518 -6.51526e-05
0.00566742 -0.000241742 7.26803e-05
0.00590452 -0.000401339 0.000295466
0.00567936 -0.000491397 -2.64141e-05
0.00579543 -0.000499458 -7.02997e-05
0.00558727 -0.000110883 0.000264648
0.00560968 -0.000353114 0.00023487
0.00620712 -0.000445588 -2.70542e-05
0.00559754 -0.000205815 0.000125744
0.00532081 -0.000274453 0.000172973
0.00604228 -0.000524311 -7.45714e-05
0.00603863 -0.000476993 0.000169533
0.00565938 -0.000267854 1.43134e-05
0.00609954 -0.000621454 0.000193796
0.00573514 -0.000402275 0.00011701
0.00608428 -0.000549983 -6.38152e-05
0.00561429 -0.00011144 0.000263417
-5.01936e-15 -7.41205e-15 7.69803e-14
0.00593455 -0.000538957 -6.36969e-05
0.00591415 -0.000415954 0.000308963
0.00582985 -0.000520601 -6.72996e-05
0.00623525 -0.000390892 0.000185017
0.00565498 -0.000268142 1.81361e-05
0.00576719 -0.000369601 8.69657e-05
0.0061926 -0.000461191 0.000142366
0.0061604 -0.00053071 -8.23287e-05
0.00571973 -0.000474993 -7.76751e-05
0.00608029 -0.000547338 -7.05105e-05
0.00564158 -0.000212298 0.000127165
0.00600494 -0.000446131 0.000137752
0.00622109 -0.000422431 0.00019846
0.00560691 -0.000346112 0.000280736
0.00549776 -0.000302273 0.000192902
0.00564514 -0.000372075 9.39953e-05
0.00556479 -0.00053108 -5.25828e-05
0.00586661 -0.00035016 6.55463e-05
0.00600612 -0.000444179 0.000137552
0.00555941 -0.000452907 -7.69356e-05
0.00610604 -0.000457948 0.000118134
0.00586123 -0.000424525 0.000131018
0.00613918 -0.000321257 0.000156288
0.00597204 -0.000429463 0.000137863
0.0057324 -0.000486812 -7.35599e-05
0.00561099 -0.000498197 -9.46397e-05
0.00610504 -0.000548226 -6.89441e-05
0.00621831 -0.000553222 -6.75979e-05
0.00614413 -0.000518024 -0.000114921
0.00576703 -0.000403985 0.000117184
0.00608227 -0.000580695 -5.93158e-05
0.00546623 -0.000329059 0.000180831
0.00627089 -0.000578142 0.000136435
0.0061252 -0.000514445 -6.8738e-05
0.00608459 -0.000570829 -6.16741e-05
0.00571474 -0.000405756 0.000125212
0.0054479 -0.000297929 0.000200205
0.00607929 -0.000438765 0.00012175
0.00609994 -0.000514324 -7.996e-05
0.00613506 -0.000448966 0.000133515
4.3461e-15 1.04721e-14 8.29594e-14
-1.78334e-22 -3.94926e-23 -5.81428e-22
0.00603054 -0.000458191 0.000136972
0.00596424 -0.000444087 0.000144296
0.00586289 -0.000411656 0.000120975
0.00583353 -0.000356164 7.30497e-05
0.0060899 -0.000558736 -6.39875e-05
0.00606426 -0.000538712 -7.01826e-05
0.00559384 -0.000504457 -0.000107465
0.00559936 -0.000370862 0.000181311
0.00576759 -0.000182832 -4.18879e-05
0.0057316 -0.000381073 9.92828e-05
0.0059479 -0.000405099 9.61119e-05
0.00572755 -0.00049588 -6.91385e-05
0.0061836 -0.00048469 -5.22317e-05
0.00609964 -0.000550925 -6.67053e-05
0.00582849 -0.000446727 0.000153191
0.00607789 -0.000560948 -3.879e-05
0.005586 -0.00038252 0.000123153
0.00617969 -0.000556118 0.000199933
0.00605704 -0.000490154 -8.63338e-05
0.0059839 -0.000428324 0.000138274
0.00558486 -0.000463605 8.45037e-05
0.00613965 -0.000558901 -6.75159e-05
0.00576915 -0.000396423 0.000110315
0.0054656 -0.000286272 0.000211365
0.00605065 -0.000524029 -0.00014493
0.00597137 -0.000445924 0.000142301
0.00605037 -0.000462302 0.000152185
0.00559313 -0.000475481 -6.68952e-05
0.00620808 -0.000452147 7.76791e-05
0.00614052 -0.000498673 -9.26558e-05
0.00604592 -0.000535162 -7.03977e-05
0.00569106 -0.000387738 0.000106359
0.00616699 -0.000550869 -7.07078e-05
0.00614621 -0.000494809 -8.73881e-05
0.00558849 -0.000310711 -0.000126025
0.00595752 -0.000412575 0.000117222
0.00601265 -0.000463926 0.000160777
0.00580022 -0.000373118 9.00495e-05
0.00597358 -0.000473032 0.000166602
0.00576676 -0.000224843 -2.96797e-05
0.00592057 -0.000427145 0.00013014
0.00608473 -0.000433073 0.000129455
0.00557908 -0.000313893 0.000240656
0.00600638 -0.00043442 0.000137654
0.00614053 -0.000420981 0.000146911
0.00614162 -0.000457169 0.000148183
0.00573089 -0.0004062 0.000118905
0.0050554 -0.000171891 0.000125687
0.00580556 -0.000392499 0.000105701
-3.83071e-14 8.16866e-14 2.95885e-13
0.0057154 -0.00039348 0.000110111
0.00564101 -0.000498657 -6.64183e-05
0.00618634 -0.000455911 0.000142518
0.00614811 -0.0004451 0.000149191
0.00653221 -0.000531037 0.000201247
0.00607349 -0.000437449 0.000140255
0.00618024 -0.000458672 -0.000110415
0.00606918 -0.000437743 0.000139868
0.0060121 -0.000434703 0.000138357
0.00603921 -0.000437366 0.000137609
0.00603901 -0.000447997 0.00013801
0.00615789 -0.000559881 0.00020072
0.00570979 -0.000390906 0.000107956
0.0061511 -0.000549658 0.000208512
0.00667003 -0.000535059 0.000195403
0.0057714 -0.000346868 6.67251e-05
0.00581892 0.00012161 -0.000352284
0.00602868 -0.000452639 0.000157352
0.0061445 -0.000440497 0.000142338
0.00618246 -0.000560066 0.000200381
0.00587971 -0.000382408 9.32191e-05
0.00619622 -0.000491699 0.000201135
0.00603523 -0.000475005 0.000172609
0.00594281 -0.000419939 0.000137864
0.00619435 -0.000454991 0.000191841
0.00603111 -0.000537304 -6.98847e-05
0.00616956 -0.000543793 0.000199053
0.00613904 -0.000170858 -0.000120094
0.00559269 -0.000312032 0.000261542
0.0058001 -0.000383458 9.91763e-05
0.00617132 -0.00054645 0.000198245
0.00608968 -0.000442662 0.000139413
0.00608184 -0.000449878 0.000137349
0.00612407 -0.000447429 0.000139295
0.00556719 -7.8831e-05 0.000105371
0.00599019 -0.000459229 0.000157066
0.00611071 -0.000451926 0.000137082
0.00568813 -0.000397531 0.000117856
0.00606939 -0.000445536 0.000138718
0.00561387 -0.000371152 9.50302e-05
0.00611687 -0.00051334 -8.0978e-05
0.00606809 -0.000467699 0.000138247
0.00592248 -0.000347778 6.1382e-05
0.00621719 -0.00038119 7.98151e-05
0.00702153 -0.000605856 0.000244019
0.00603885 -0.000474858 0.000166417
0.00579109 -0.000426572 0.000135977
0.00560848 -0.000328663 0.00026945
0.00560723 -0.000404781 0.000126759
0.00602166 -0.000470928 0.000136048
0.00617181 -0.000533186 0.000198373
0.00555977 -0.000455948 -7.71683e-05
0.00627366 -0.000170853 -6.73633e-05
0.00685549 -0.000597026 0.000242066
0.00618364 -0.000556805 0.000200419
0.00601155 -0.000421378 0.000108963
0.00552676 -0.000322956 0.000211944
0.00608889 -0.000481563 0.000166014
0.00607272 -0.000543657 -6.91109e-05
0.00589111 -0.000300079 2.14347e-05
0.00560769 -0.000465838 -1.90647e-05
0.0060171 -0.000464747 0.00015284
0.00626813 -0.000166992 -0.000206986
0.00626453 -0.000148441 0.000148687
0.00598065 -0.000425579 0.000138362
0.0059507 -0.000429689 0.000131263
0.00609494 -0.000444003 0.000145234
0.00609913 -0.000438621 0.000147314
0.00555791 -0.000385824 -0.000100171
0.00614851 -0.000429054 0.000123877
0.00559005 -0.000381457 0.000104979
0.00566673 -0.000389847 0.000108916
0.00545855 -0.000471372 -0.000546569
0.00556873 -7.76568e-05 0.000100483
0.0054206 -0.000465672 -0.000543454
0.00590307 -0.000410574 0.000117407
0.00606344 -0.000439564 0.000132826
0.00550798 -0.000483376 -0.000542711
0.00609477 -0.000131587 0.000139389
0.00629005 -0.000451124 0.000138625
0.00598514 -0.000453418 0.000139808
0.00556852 -6.76635e-05 9.86504e-05
0.00593594 -0.000352491 6.56864e-05
0.00611049 -0.000533223 -7.24401e-05
0.00608795 -0.000124887 0.000134756
0.00615319 -0.000168027 -0.000120117
0.00569357 -7.77207e-05 0.000106118
0.00589189 -0.000351851 6.73191e-05
0.00601294 -0.000414551 0.000140369
0.00595338 -0.000433565 0.000135273
0.00601812 -0.000448475 0.000142499
0.00612906 -0.000124993 0.000136676
0.00609706 -0.000439858 0.000142673
0.00573428 -0.000327421 5.17956e-05
0.00590705 -0.000461508 0.00011474
0.00556734 -7.41414e-05 0.00010273
0.00483535 -0.000328593 1.91222e-05
0.00611413 -0.000168899 -0.000119644
0.0061005 -0.000424788 0.000118452
0.00578192 -0.000319592 4.2736e-05
0.00588097 -0.000459699 0.000161082
0.0060325 -0.000526135 0.000205141
0.00605661 -0.000610168 -6.42357e-05
0.00612927 -0.000439005 0.000152979
0.00628298 -0.000156996 0.000153525
0.00614089 -0.00038673 8.73606e-05
0.00620344 -0.00013494 0.000141815
0.00697389 -0.000613652 0.000252641
0.00655422 -0.000489087 0.000160797
0.00610677 -0.000414208 0.000112525
0.00582308 -0.000384527 9.87121e-05
0.00618176 -9.44811e-05 -0.000118312
0.00624536 -0.000174316 -0.000132607
0.00614166 -0.000431676 0.000139634
0.00555501 -0.000410516 -0.000446556
0.00577058 -0.000407145 0.000120114
0.00572144 -0.000283666 1.38543e-05
0.00565308 -0.000361127 9.08463e-05
0.00613634 -0.000451517 0.000142404
0.00612664 -0.00042941 0.000145026
0.00640272 -0.000536889 0.000209017
0.00569492 -0.000378778 9.8537e-05
0.00608764 -0.000474907 0.00014692
0.0061168 -0.000418326 0.000144532
0.00564626 -0.000292029 2.47674e-05
0.00562813 -0.000387939 0.000108664
0.00619895 -0.00016953 -0.000122132
0.00604628 -0.000405388 0.00010718
0.00618228 -0.000510582 0.000209404
0.00556935 -7.92048e-05 0.000106226
0.00596811 -0.000117445 0.000130564
0.00611598 -0.000535756 -7.23421e-05

VECTORS force float
-4.85298e-12 1.46321e-10 -3.35611e-12
9.0501e-11 4.86198e-11 1.49876e-11
4.56041e-10 -1.98446e-10 -1.74394e-10
-2.42602e-12 -1.23912e-10 1.26398e-10
-4.61296e-12 -8.78694e-11 5.53881e-11
-2.40225e-12 3.64688e-11 -1.14808e-11
1.43351e-10 -2.83991e-11 1.05323e-10
7.87032e-11 2.07388e-12 -1.23349e-11
-7.8194e-11 -3.9758e-10 1.52896e-10
-4.91242e-10 6.14386e-11 -6.48664e-11
-1.53243e-10 -3.71503e-12 2.40377e-11
1.10247e-11 -1.50306e-10 1.50945e-10
1.23209e-10 1.17915e-10 1.96639e-10
8.52519e-11 4.07356e-11 2.17676e-11
-3.14089e-11 1.50361e-10 -2.58024e-10
-6.78578e-11 -1.51784e-10 1.6133e-10
-2.73881e-10 -1.44135e-10 4.37303e-11
-5.49454e-11 -2.24833e-10 1.53346e-10
3.74244e-11 -9.96197e-12 3.13575e-11
-4.11784e-12 -4.20724e-11 1.58762e-12
-1.06385e-10 9.73417e-11 -1.00003e-10
-2.19065e-12 1.73869e-11 3.52121e-11
7.64559e-11 -1.92935e-10 1.66689e-10
5.34383e-10 -3.80785e-10 7.91915e-11
-4.50208e-11 -1.45102e-10 1.5024e-10
-1.20151e-10 1.45678e-10 -1.38912e-10
1.52358e-10 1.44879e-10 -5.64373e-11
-6.65328e-11 1.34832e-10 -9.43366e-11
3.49046e-11 -5.0702e-11 4.34527e-11
1.38352e-10 4.8457e-11 -6.96071e-11
3.97534e-10 2.20302e-10 -9.10988e-11
1.40777e-11 5.08504e-11 -7.88799e-12
-7.2782e-11 4.65862e-11 3.13531e-10
2.2532e-11 1.67976e-10 -5.05465e-11
-3.34752e-11 5.22787e-13 5.05763e-11
7.23521e-11 2.81575e-11 -3.53679e-11
7.78958e-11 1.97979e-10 5.10571e-10
5.80675e-10 -1.77609e-10 -1.94561e-11
-7.98386e-11 5.25603e-12 -2.9014e-11
2.73921e-10 1.67224e-11 -2.06355e-11
-1.40593e-10 -9.38942e-11 -7.84336e-12
2.77906e-11 -1.60961e-11 -5.73428e-12
9.60658e-11 1.08703e-10 -9.47562e-11
-2.51057e-10 1.15857e-10 -2.05e-11
-3.23659e-12 -1.15137e-10 6.08508e-11
-7.59386e-12 9.91008e-11 8.74327e-11
-2.7603e-11 2.08245e-10 2.1001e-12
-1.02831e-11 -5.02661e-11 5.25854e-11
-1.6136e-10 -5.97818e-11 2.91308e-10
-1.19864e-10 4.54349e-11 -1.22005e-10
8.87927e-24 -2.79173e-24 2.06795e-25
1.10171e-10 -1.24276e-10 2.56999e-11
-1.42596e-10 -2.57624e-11 3.04847e-11
4.8459e-10 1.67589e-10 -7.82169e-11
-6.26057e-11 -2.36317e-10 6.80626e-12
2.01117e-12 -3.44791e-11 -8.52932e-12
5.6568e-10 1.02526e-10 -1.57003e-10
4.03369e-11 -2.19734e-11 -5.11173e-11
-4.33778e-10 -2.11194e-10 1.82287e-10
2.52233e-10 -3.41882e-12 -2.25873e-11
-1.96803e-10 -1.43962e-11 -4.5786e-11
-1.071e-11 6.09048e-12 -2.03909e-11
3.30142e-11 -6.50837e-11 -6.76922e-12
3.72411e-10 -6.39014e-11 -1.14792e-10
2.65573e-10 -1.30474e-10 2.70258e-10
4.59449e-11 1.10485e-10 -1.21967e-10
-9.09839e-11 -2.54957e-11 3.39228e-11
5.35034e-11 -4.98545e-10 9.2032e-11
-3.85267e-11 -1.44213e-10 1.12202e-10
-3.35314e-12 -1.08543e-10 -1.05454e-11
-7.68225e-11 9.20005e-11 6.20933e-11
-2.61392e-11 -2.736e-11 1.38816e-10
-3.91289e-10 3.56565e-11 -2.30925e-11
3.41665e-11 1.83739e-11 -3.71232e-12
-4.03871e-11 -1.22101e-10 -5.46369e-12
-4.74429e-10 2.07757e-10 1.09038e-10
3.97415e-10 3.54702e-12 3.23243e-10
7.62753e-11 1.46941e-10 -9.54051e-11
-2.32901e-10 3.08015e-10 -3.40606e-11
-2.78169e-10 7.1435e-11 3.54119e-10
-7.48939e-10 1.48565e-10 -1.13986e-10
1.01906e-10 2.35662e-10 -9.76318e-12
-3.43183e-11 3.1164e-10 1.47282e-10
-1.26119e-10 1.46685e-10 2.12894e-10
-2.62457e-11 -1.32095e-10 1.27119e-11
3.28287e-11 3.89455e-10 -1.39353e-10
4.71581e-11 -2.22138e-10 2.05655e-10
-5.46178e-12 1.68041e-10 -8.05479e-11
1.31626e-10 1.35477e-10 -1.8742e-10
-2.28659e-11 5.10686e-12 -2.43199e-12
7.47743e-11 8.12095e-11 -1.67104e-10
1.03111e-21 -9.3337e-22 6.59677e-23
-3.23117e-27 2.58494e-26 0.0
1.19124e-10 1.14343e-11 1.25838e-11
6.75266e-10 1.46941e-10 -2.36204e-10
-2.4838e-11 -1.06547e-11 -6.60307e-12