# vtk DataFile Version 3.0
LIGGGHTS particles timestep 48400000
ASCII
DATASET POLYDATA
POINTS 275 float
0.295467 0.0182022 0.00695438
0.295146 0.0171489 0.00745571
0.295298 0.0170468 0.00753861
0.294739 0.0157685 0.00869551
0.301065 0.0167346 0.00746367
0.295423 0.0175608 0.00708231
0.29514 0.0168119 0.00776656
0.301261 0.0176277 0.00705839
0.295238 0.016836 0.00774328
0.295351 0.0179191 0.00708105
0.289472 0.017397 0.00721834
0.294718 0.0156955 0.00876034
0.289456 0.0177927 0.00711158
0.289649 0.0182185 0.00696802
0.295096 0.016666 0.0078962
0.294696 0.0156225 0.00882517
0.295464 0.0177524 0.00703575
0.29526 0.0169061 0.00767538
0.289607 0.0180231 0.00695983
0.301183 0.0172703 0.00722058
0.294848 0.0161328 0.00837186
0.301222 0.017449 0.00713949
0.289166 0.0168192 0.00752307
0.295222 0.0170977 0.00749728
0.294674 0.0155495 0.00889001
0.294935 0.0164246 0.00811256
0.295499 0.0175052 0.00711704
0.29487 0.0162057 0.00830703
0.301085 0.0168239 0.00742318
0.294835 0.0160585 0.00843761
0.295387 0.0174026 0.00719871
0.301319 0.0179058 0.00696261
0.29528 0.0169762 0.00760707
0.295352 0.0172588 0.0073332
0.301203 0.0173597 0.00718004
0.294783 0.0159144 0.00856584
0.295393 0.0170673 0.00751063
0.295446 0.0172794 0.00730513
0.301105 0.0169131 0.00738268
0.294805 0.0159874 0.00850101
0.29533 0.0179743 0.00700025
0.30128 0.0177197 0.00702445
0.294893 0.0162783 0.0082425
0.29552 0.0176 0.00709359
0.28953 0.017658 0.00707976
0.301145 0.0170917 0.00730168
0.295693 0.0180089 0.00697892
0.289357 0.0172815 0.00727863
0.295674 0.0179134 0.00700218
0.301125 0.0170024 0.00734219
0.378022 0.019866 0.005332
0.295463 0.0173503 0.00723643
0.294761 0.0158414 0.00863068
0.29537 0.0173301 0.0072654
0.29535 0.0180698 0.00697787
0.301164 0.017181 0.00726113
0.289282 0.0173392 0.00724702
0.289373 0.0179755 0.00705019
0.295483 0.0178478 0.00701247
0.295275 0.0173108 0.00729081
0.295559 0.017785 0.00703062
0.301241 0.0175384 0.00709894
0.289692 0.0184136 0.00697618
0.295525 0.0180414 0.0069654
0.295375 0.0169966 0.0075792
0.294913 0.0163516 0.00817741
0.289299 0.0170215 0.00741667
0.295163 0.0172196 0.0073872
0.288729 0.015698 0.00869163
0.289618 0.0184801 0.00698059
0.29524 0.0171694 0.00742783
0.289472 0.0179653 0.0070496
0.289492 0.0174836 0.00717236
0.3013 0.0178127 0.0069932
0.289489 0.0187094 0.00699346
0.295428 0.0172087 0.00737363
0.295204 0.0170271 0.00756573
0.295327 0.017526 0.00708796
0.295444 0.0178856 0.00709645
0.295504 0.0179456 0.00700104
0.289452 0.0173104 0.00726429
0.295252 0.0175903 0.00706948
0.295 0.0166435 0.00791812
0.295378 0.0180304 0.00706818
0.295319 0.017642 0.00715822
0.295233 0.0175024 0.00711316
0.28881 0.0158494 0.00833034
0.294978 0.0165705 0.00798294
0.289303 0.0178301 0.00698537
0.295442 0.0176562 0.00705907
0.289323 0.0179279 0.00697793
0.0643568 0.0187248 0.00531097
0.24257 0.0191927 0.00520306
0.28967 0.018316 0.0069721
0.288909 0.0158743 0.00830694
0.289321 0.0175124 0.00715508
0.288749 0.0157358 0.0086013
0.29558 0.0178801 0.0070075
0.295654 0.0178159 0.00702594
0.295128 0.0170789 0.00752585
0.295087 0.0169354 0.00765875
0.288853 0.0159602 0.00817018
0.289206 0.0173972 0.00721605
0.289265 0.0176568 0.00707741
0.295411 0.017138 0.00744215
0.295406 0.0179093 0.00699462
0.295404 0.0174788 0.00713647
0.289397 0.0174547 0.00718669
0.295598 0.0179762 0.00698406
0.295217 0.016763 0.00780814
0.295488 0.0183 0.00695703
0.295216 0.0174317 0.00718166
0.289639 0.0185776 0.00698467
0.295118 0.016739 0.00783136
0.29531 0.0174523 0.00715383
0.28879 0.0158116 0.00842072
0.294956 0.0164976 0.00804773
0.295365 0.0178256 0.00711466
0.28936 0.0176856 0.00706311
0.289379 0.0177733 0.00701654
0.295316 0.0171174 0.00747013
0.295431 0.018012 0.00698573
0.295388 0.0178139 0.00701791
0.29554 0.0176896 0.00705386
0.289338 0.0171949 0.00732464
0.295365 0.017729 0.00714043
0.295292 0.0177857 0.00703808
0.295181 0.0172905 0.00731885
0.289181 0.0165008 0.00769312
0.289568 0.0178322 0.00698725
0.288769 0.0157737 0.00851098
0.289436 0.0176279 0.00709472
0.288946 0.0159498 0.0081255
0.289341 0.017599 0.00710911
0.289201 0.0165873 0.00764718
0.295043 0.0167895 0.00778841
0.289467 0.0186119 0.00698939
0.289456 0.0181556 0.00696866
0.289222 0.016675 0.00760066
0.288927 0.015912 0.0082162
0.288873 0.0160021 0.00808165
0.28916 0.0164142 0.00773907
0.0219312 0.0187687 0.00551176
0.289261 0.0168482 0.00750869
0.295334 0.017188 0.00740166
0.289341 0.0180258 0.00696971
0.289413 0.0181277 0.00705433
0.288929 0.0161849 0.00785877
0.289499 0.0183509 0.00697684
0.295311 0.0178761 0.00699991
0.289424 0.0184169 0.00698123
0.289543 0.0185461 0.00698499
0.289446 0.0185144 0.00698531
0.289521 0.0184486 0.00698092
0.295542 0.0181371 0.00694201
0.289187 0.0173102 0.00726141
0.295508 0.0181131 0.00703314
0.288969 0.0163579 0.00776696
0.289263 0.0172525 0.00729303
0.288965 0.0159885 0.00803234
0.289336 0.0177886 0.00710518
0.289361 0.0181238 0.00696895
0.295564 0.0182352 0.00694681
0.289245 0.0175702 0.00712339
0.295409 0.0181214 0.00704095
0.289455 0.0177153 0.00704833
0.289511 0.018807 0.00699754
0.295446 0.0181032 0.00694743
0.295292 0.0173815 0.00722231
0.295411 0.0183617 0.00697085
0.283391 0.0182633 0.00693799
0.295065 0.0168624 0.00772361
0.289226 0.0174835 0.00716939
0.295619 0.0180739 0.0069603
0.28949 0.0180638 0.00705152
0.289552 0.018187 0.00696835
0.289511 0.0179914 0.00696013
0.283081 0.0168307 0.0074963
0.289511 0.0175703 0.0071263
0.289325 0.0178831 0.0070673
0.288832 0.015911 0.00825471
0.289574 0.0182848 0.00697243
0.28928 0.0169349 0.00746268
0.295366 0.0177189 0.00704096
0.289627 0.0181209 0.00696394
0.289106 0.0165591 0.00766116
0.289146 0.0167326 0.00756905
0.289024 0.0162132 0.00784473
0.28955 0.017745 0.00703355
0.289377 0.0173681 0.00723264
0.295161 0.0168849 0.0077017
0.295183 0.0169563 0.00763474
0.289596 0.0183823 0.00697651
0.295389 0.0182642 0.0069665
0.295257 0.0172401 0.00735932
0.283292 0.0177918 0.00703417
0.289003 0.0161263 0.00789086
0.295638 0.0181692 0.00693708
0.289285 0.0177434 0.00703169
0.295021 0.0167165 0.00785324
0.289401 0.0178701 0.00700218
0.29548 0.0174211 0.00716787
0.289185 0.0169059 0.00747709
0.295108 0.0170078 0.00759323
0.289587 0.0179252 0.0069557
0.283312 0.0178835 0.00699956
0.283253 0.0176083 0.0071034
0.289564 0.0186437 0.00698907
0.289091 0.0168769 0.00749145
0.289497 0.0181948 0.00705141
0.289402 0.0183193 0.00697716
0.295198 0.017361 0.00725017
0.289051 0.0167037 0.00758341
0.289149 0.0171369 0.00735344
0.289168 0.0172235 0.00730743
0.282985 0.0164699 0.00782896
0.283044 0.0166863 0.00762967
0.282965 0.0163978 0.00789529
0.28914 0.0163277 0.00778497
0.289487 0.0178896 0.00695589
0.283005 0.016542 0.00776254
0.283175 0.0172413 0.00724186
0.28899 0.0164443 0.00772115
0.289316 0.0176816 0.00715955
0.283117 0.0169752 0.00736284
0.289065 0.0163861 0.00775296
0.295347 0.0176236 0.0070642
0.283194 0.0173331 0.00720724
0.28337 0.0181656 0.00693285
0.283136 0.0170632 0.00731944
0.288709 0.0156601 0.00878195
0.289766 0.0183461 0.00697173
0.289241 0.0167616 0.00755467
0.289411 0.0177102 0.00714582
0.283214 0.0174248 0.00717263
0.289477 0.0182533 0.00697276
0.289243 0.0171659 0.00733904
0.289244 0.0175758 0.00722322
0.283099 0.0169029 0.00742972
0.288892 0.016045 0.00799331
0.283412 0.0183607 0.00694316
0.289416 0.0179597 0.00696041
0.289085 0.0164726 0.00770708
0.289416 0.0175413 0.00714072
0.289474 0.017802 0.00700232
0.295293 0.0175477 0.00717942
0.289381 0.0182216 0.00697306
0.283273 0.0177001 0.00706878
0.289126 0.0166474 0.00761771
0.283234 0.0175165 0.00713802
0.288949 0.0162719 0.00781365
0.289044 0.0162997 0.00779884
0.289011 0.0165308 0.00767521
0.289301 0.0174258 0.00720104
0.283446 0.0181003 0.00693345
0.283332 0.0179753 0.00696494
0.289436 0.0180577 0.00696454
0.283024 0.0166141 0.00769614
0.28911 0.0169635 0.00744548
0.289205 0.0169925 0.00743107
0.288908 0.0161048 0.00791489
0.289071 0.0167903 0.00753744
0.289531 0.0180893 0.00696425
0.288981 0.0160401 0.00793663
0.289319 0.0171082 0.00737065
0.289501 0.0178714 0.00706914
0.28944 0.0182809 0.00706139
0.289224 0.0170792 0.00738506
0.289129 0.0170502 0.00739946
0.283351 0.0180674 0.00693127
0.289031 0.0166172 0.00762931
0.295369 0.0181663 0.00696077
0.283062 0.0167585 0.00756298
0.283168 0.0171479 0.00727681
0.295272 0.0176894 0.00705807

VERTICES 275 550
1 0
1 1
1 2
1 3
1 4
1 5
1 6
1 7
1 8
1 9
1 10
1 11
1 12
1 13
1 14
1 15
1 16
1 17
1 18
1 19
1 20
1 21
1 22
1 23
1 24
1 25
1 26
1 27
1 28
1 29
1 30
1 31
1 32
1 33
1 34
1 35
1 36
1 37
1 38
1 39
1 40
1 41
1 42
1 43
1 44
1 45
1 46
1 47
1 48
1 49
1 50
1 51
1 52
1 53
1 54
1 55
1 56
1 57
1 58
1 59
1 60
1 61
1 62
1 63
1 64
1 65
1 66
1 67
1 68
1 69
1 70
1 71
1 72
1 73
1 74
1 75
1 76
1 77
1 78
1 79
1 80
1 81
1 82
1 83
1 84
1 85
1 86
1 87
1 88
1 89
1 90
1 91
1 92
1 93
1 94
1 95
1 96
1 97
1 98
1 99
1 100
1 101
1 102
1 103
1 104
1 105
1 106
1 107
1 108
1 109
1 110
1 111
1 112
1 113
1 114
1 115
1 116
1 117
1 118
1 119
1 120
1 121
1 122
1 123
1 124
1 125
1 126
1 127
1 128
1 129
1 130
1 131
1 132
1 133
1 134
1 135
1 136
1 137
1 138
1 139
1 140
1 141
1 142
1 143
1 144
1 145
1 146
1 147
1 148
1 149
1 150
1 151
1 152
1 153
1 154
1 155
1 156
1 157
1 158
1 159
1 160
1 161
1 162
1 163
1 164
1 165
1 166
1 167
1 168
1 169
1 170
1 171
1 172
1 173
1 174
1 175
1 176
1 177
1 178
1 179
1 180
1 181
1 182
1 183
1 184
1 185
1 186
1 187
1 188
1 189
1 190
1 191
1 192
1 193
1 194
1 195
1 196
1 197
1 198
1 199
1 200
1 201
1 202
1 203
1 204
1 205
1 206
1 207
1 208
1 209
1 210
1 211
1 212
1 213
1 214
1 215
1 216
1 217
1 218
1 219
1 220
1 221
1 222
1 223
1 224
1 225
1 226
1 227
1 228
1 229
1 230
1 231
1 232
1 233
1 234
1 235
1 236
1 237
1 238
1 239
1 240
1 241
1 242
1 243
1 244
1 245
1 246
1 247
1 248
1 249
1 250
1 251
1 252
1 253
1 254
1 255
1 256
1 257
1 258
1 259
1 260
1 261
1 262
1 263
1 264
1 265
1 266
1 267
1 268
1 269
1 270
1 271
1 272
1 273
1 274

POINT_DATA 275
SCALARS id int 1
LOOKUP_TABLE default
1
2
4
5
6
7
8
9
10
11
12
13
14
16
17
19
21
22
23
24
25
26
27
28
29
30
31
32
33
34
35
36
37
38
39
41
42
44
45
47
48
49
50
51
52
53
54
55
56
57
59
60
61
62
63
64
65
66
67
68
69
70
71
72
73
74
76
77
78
79
80
82
83
84
85
86
87
88
89
90
91
92
93
94
95
96
97
98
99
100
101
102
103
104
105
106
107
108
109
110
111
112
113
114
115
116
117
118
119
120
121
122
123
124
125
127
128
129
130
131
132
133
134
135
136
137
138
140
141
142
143
144
146
147
148
149
150
151
153
154
155
156
157
158
159
160
162
164
165
166
167
168
169
170
171
172
173
174
176
177
178
179
182
183
184
185
186
187
188
189
190
191
192
193
194
195
196
197
198
199
200
201
202
203
204
205
206
207
208
209
210
211
212
213
214
215
216
217
218
219
220
222
224
225
226
227
228
229
230
232
233
234
235
236
237
239
240
241
242
243
244
246
247
248
249
250
251
252
253
254
255
256
257
258
259
260
261
262
263
264
265
266
267
268
269
270
271
272
273
274
275
276
277
278
279
280
281
283
284
285
286
287
288
289
290
291
292
293
294
295
296
297
298
299
300

SCALARS type int 1
LOOKUP_TABLE default
1
1
1
1
1
1
1
1
1
1
1
1
1
1
1
1
1
1
1
1
1
1
1
1
1
1
1
1
1
1
1
1
1
1
1
1
1
1
1
1
1
1
1
1
1
1
1
1
1
1
1
1
1
1
1
1
1
1
1
1
1
1
1
1
1
1
1
1
1
1
1
1
1
1
1
1
1
1
1
1
1
1
1
1
1
1
1
1
1
1
1
1
1
1
1
1
1
1
1
1
1
1
1
1
1
1
1
1
1
1
1
1
1
1
1
1
1
1
1
1
1
1
1
1
1
1
1
1
1
1
1
1
1
1
1
1
1
1
1
1
1
1
1
1
1
1
1
1
1
1
1
1
1
1
1
1
1
1
1
1
1
1
1
1
1
1
1
1
1
1
1
1
1
1
1
1
1
1
1
1
1
1
1
1
1
1
1
1
1
1
1
1
1
1
1
1
1
1
1
1
1
1
1
1
1
1
1
1
1
1
1
1
1
1
1
1
1
1
1
1
1
1
1
1
1
1
1
1
1
1
1
1
1
1
1
1
1
1
1
1
1
1
1
1
1
1
1
1
1
1
1
1
1
1
1
1
1
1
1
1
1
1
1
1
1
1
1
1
1
1
1
1
1
1
1

SCALARS radius float 1
LOOKUP_TABLE default
5e-05
5e-05
5e-05
5e-05
5e-05
5e-05
5e-05
5e-05
5e-05
5e-05
5e-05
5e-05
5e-05
5e-05
5e-05
5e-05
5e-05
5e-05
5e-05
5e-05
5e-05
5e-05
5e-05
5e-05
5e-05
5e-05
5e-05
5e-05
5e-05
5e-05
5e-05
5e-05
5e-05
5e-05
5e-05
5e-05
5e-05
5e-05
5e-05
5e-05
5e-05
5e-05
5e-05
5e-05
5e-05
5e-05
5e-05
5e-05
5e-05
5e-05
5e-05
5e-05
5e-05
5e-05
5e-05
5e-05
5e-05
5e-05
5e-05
5e-05
5e-05
5e-05
5e-05
5e-05
5e-05
5e-05
5e-05
5e-05
5e-05
5e-05
5e-05
5e-05
5e-05
5e-05
5e-05
5e-05
5e-05
5e-05
5e-05
5e-05
5e-05
5e-05
5e-05
5e-05
5e-05
5e-05
5e-05
5e-05
5e-05
5e-05
5e-05
5e-05
5e-05
5e-05
5e-05
5e-05
5e-05
5e-05
5e-05
5e-05
5e-05
5e-05
5e-05
5e-05
5e-05
5e-05
5e-05
5e-05
5e-05
5e-05
5e-05
5e-05
5e-05
5e-05
5e-05
5e-05
5e-05
5e-05
5e-05
5e-05
5e-05
5e-05
5e-05
5e-05
5e-05
5e-05
5e-05
5e-05
5e-05
5e-05
5e-05
5e-05
5e-05
5e-05
5e-05
5e-05
5e-05
5e-05
5e-05
5e-05
5e-05
5e-05
5e-05
5e-05
5e-05
5e-05
5e-05
5e-05
5e-05
5e-05
5e-05
5e-05
5e-05
5e-05
5e-05
5e-05
5e-05
5e-05
5e-05
5e-05
5e-05
5e-05
5e-05
5e-05
5e-05
5e-05
5e-05
5e-05
5e-05
5e-05
5e-05
5e-05
5e-05
5e-05
5e-05
5e-05
5e-05
5e-05
5e-05
5e-05
5e-05
5e-05
5e-05
5e-05
5e-05
5e-05
5e-05
5e-05
5e-05
5e-05
5e-05
5e-05
5e-05
5e-05
5e-05
5e-05
5e-05
5e-05
5e-05
5e-05
5e-05
5e-05
5e-05
5e-05
5e-05
5e-05
5e-05
5e-05
5e-05
5e-05
5e-05
5e-05
5e-05
5e-05
5e-05
5e-05
5e-05
5e-05
5e-05
5e-05
5e-05
5e-05
5e-05
5e-05
5e-05
5e-05
5e-05
5e-05
5e-05
5e-05
5e-05
5e-05
5e-05
5e-05
5e-05
5e-05
5e-05
5e-05
5e-05
5e-05
5e-05
5e-05
5e-05
5e-05
5e-05
5e-05
5e-05
5e-05
5e-05
5e-05
5e-05
5e-05
5e-05
5e-05
5e-05
5e-05
5e-05
5e-05
5e-05
5e-05
5e-05
5e-05
5e-05
5e-05
5e-05
5e-05
5e-05
5e-05
5e-05
5e-05
5e-05
5e-05
5e-05
5e-05
5e-05

SCALARS mass float 1
LOOKUP_TABLE default
1.46608e-10
1.46608e-10
1.46608e-10
1.46608e-10
1.46608e-10
1.46608e-10
1.46608e-10
1.46608e-10
1.46608e-10
1.46608e-10
1.46608e-10
1.46608e-10
1.46608e-10
1.46608e-10
1.46608e-10
1.46608e-10
1.46608e-10
1.46608e-10
1.46608e-10
1.46608e-10
1.46608e-10
1.46608e-10
1.46608e-10
1.46608e-10
1.46608e-10
1.46608e-10
1.46608e-10
1.46608e-10
1.46608e-10
1.46608e-10
1.46608e-10
1.46608e-10
1.46608e-10
1.46608e-10
1.46608e-10
1.46608e-10
1.46608e-10
1.46608e-10
1.46608e-10
1.46608e-10
1.46608e-10
1.46608e-10
1.46608e-10
1.46608e-10
1.46608e-10
1.46608e-10
1.46608e-10
1.46608e-10
1.46608e-10
1.46608e-10
1.46608e-10
1.46608e-10
1.46608e-10
1.46608e-10
1.46608e-10
1.46608e-10
1.46608e-10
1.46608e-10
1.46608e-10
1.46608e-10
1.46608e-10
1.46608e-10
1.46608e-10
1.46608e-10
1.46608e-10
1.46608e-10
1.46608e-10
1.46608e-10
1.46608e-10
1.46608e-10
1.46608e-10
1.46608e-10
1.46608e-10
1.46608e-10
1.46608e-10
1.46608e-10
1.46608e-10
1.46608e-10
1.46608e-10
1.46608e-10
1.46608e-10
1.46608e-10
1.46608e-10
1.46608e-10
1.46608e-10
1.46608e-10
1.46608e-10
1.46608e-10
1.46608e-10
1.46608e-10
1.46608e-10
1.46608e-10
1.46608e-10
1.46608e-10
1.46608e-10
1.46608e-10
1.46608e-10
1.46608e-10
1.46608e-10
1.46608e-10
1.46608e-10
1.46608e-10
1.46608e-10
1.46608e-10
1.46608e-10
1.46608e-10
1.46608e-10
1.46608e-10
1.46608e-10
1.46608e-10
1.46608e-10
1.46608e-10
1.46608e-10
1.46608e-10
1.46608e-10
1.46608e-10
1.46608e-10
1.46608e-10
1.46608e-10
1.46608e-10
1.46608e-10
1.46608e-10
1.46608e-10
1.46608e-10
1.46608e-10
1.46608e-10
1.46608e-10
1.46608e-10
1.46608e-10
1.46608e-10
1.46608e-10
1.46608e-10
1.46608e-10
1.46608e-10
1.46608e-10
1.46608e-10
1.46608e-10
1.46608e-10
1.46608e-10
1.46608e-10
1.46608e-10
1.46608e-10
1.46608e-10
1.46608e-10
1.46608e-10
1.46608e-10
1.46608e-10
1.46608e-10
1.46608e-10
1.46608e-10
1.46608e-10
1.46608e-10
1.46608e-10
1.46608e-10
1.46608e-10
1.46608e-10
1.46608e-10
1.46608e-10
1.46608e-10
1.46608e-10
1.46608e-10
1.46608e-10
1.46608e-10
1.46608e-10
1.46608e-10
1.46608e-10
1.46608e-10
1.46608e-10
1.46608e-10
1.46608e-10
1.46608e-10
1.46608e-10
1.46608e-10
1.46608e-10
1.46608e-10
1.46608e-10
1.46608e-10
1.46608e-10
1.46608e-10
1.46608e-10
1.46608e-10
1.46608e-10
1.46608e-10
1.46608e-10
1.46608e-10
1.46608e-10
1.46608e-10
1.46608e-10
1.46608e-10
1.46608e-10
1.46608e-10
1.46608e-10
1.46608e-10
1.46608e-10
1.46608e-10
1.46608e-10
1.46608e-10
1.46608e-10
1.46608e-10
1.46608e-10
1.46608e-10
1.46608e-10
1.46608e-10
1.46608e-10
1.46608e-10
1.46608e-10
1.46608e-10
1.46608e-10
1.46608e-10
1.46608e-10
1.46608e-10
1.46608e-10
1.46608e-10
1.46608e-10
1.46608e-10
1.46608e-10
1.46608e-10
1.46608e-10
1.46608e-10
1.46608e-10
1.46608e-10
1.46608e-10
1.46608e-10
1.46608e-10
1.46608e-10
1.46608e-10
1.46608e-10
1.46608e-10
1.46608e-10
1.46608e-10
1.46608e-10
1.46608e-10
1.46608e-10
1.46608e-10
1.46608e-10
1.46608e-10
1.46608e-10
1.46608e-10
1.46608e-10
1.46608e-10
1.46608e-10
1.46608e-10
1.46608e-10
1.46608e-10
1.46608e-10
1.46608e-10
1.46608e-10
1.46608e-10
1.46608e-10
1.46608e-10
1.46608e-10
1.46608e-10
1.46608e-10
1.46608e-10
1.46608e-10
1.46608e-10
1.46608e-10
1.46608e-10
1.46608e-10
1.46608e-10
1.46608e-10
1.46608e-10
1.46608e-10
1.46608e-10
1.46608e-10
1.46608e-10
1.46608e-10
1.46608e-10
1.46608e-10
1.46608e-10
1.46608e-10
1.46608e-10
1.46608e-10
1.46608e-10
1.46608e-10

VECTORS velocity float
0.00632886 0.000924672 -0.000342559
0.00555473 0.000555621 -0.0010223
0.00564171 0.000577869 -0.00105021
0.00610693 0.000831605 -0.000862885
0.00565239 1.06777e-05 0.000117188
0.00606766 0.00138505 -0.000134347
0.00602416 0.000834109 -0.000864899
0.00565009 1.26764e-05 0.000116935
0.00596575 0.000739252 -0.000776017
0.00587333 0.00151353 -9.28975e-05
0.00547596 -5.32686e-05 9.05051e-05
0.00611658 0.000842422 -0.000872558
0.00572496 1.4578e-05 6.25858e-05
0.00614752 -0.000155667 -0.000120811
0.00604414 0.000848451 -0.000875744
0.00612521 0.000852777 -0.000881581
0.00575322 0.00107899 -6.7477e-05
0.00600087 0.000624471 -0.000894013
0.00579653 -5.10961e-05 -0.000101344
0.0055889 2.40757e-05 0.000109142
0.00607412 0.000818057 -0.000850145
0.00563283 2.22111e-05 0.000112125
0.0054171 1.79264e-06 5.98787e-05
0.00554662 0.000638042 -0.00110746
0.00613256 0.000860477 -0.000888989
0.00605387 0.000831163 -0.000861314
0.00593722 -0.000322695 -0.0029749
0.0060667 0.000819796 -0.000851447
0.00566877 8.08601e-06 0.00011854
0.00607821 0.000818246 -0.000850395
0.00584914 0.000962633 -0.000677442
0.00571688 3.49392e-06 0.000162987
0.00587229 0.000540688 -0.00101611
0.00573973 0.000647971 -0.000987738
0.00560488 2.51812e-05 0.000109752
0.00609193 0.000820015 -0.000852236
0.00553611 0.000600375 -0.00106647
0.00576914 0.000569564 -0.00107854
0.00568526 5.72305e-06 0.000119846
0.00608515 0.000818177 -0.000850454
0.00589725 0.00127305 -0.000390285
0.00570331 -0.000108373 -0.000198482
0.00605115 0.000825418 -0.000856189
0.0057546 0.000165573 -0.00117643
0.00572766 -2.60464e-05 7.91283e-05
0.00555978 2.9058e-05 0.000106555
0.00563534 0.000554264 4.21388e-05
0.00531721 5.67904e-05 2.9486e-05
0.0055023 0.000495615 4.98373e-05
0.00570198 3.74692e-06 0.000121564
-5.01963e-15 -7.41187e-15 7.69803e-14
0.00609101 0.000847573 -0.00131826
0.00609895 0.00082402 -0.000855913
0.00576781 0.00070937 -0.000930881
0.00600412 0.00131868 -0.00135611
0.00557714 2.67154e-05 0.00010806
0.00553802 6.98351e-05 2.6439e-05
0.00576938 5.40969e-05 -6.57251e-05
0.00562922 0.00107871 -8.23618e-05
0.00576756 0.00048432 -0.000968593
0.00534901 0.000740415 -2.4709e-05
0.00563746 1.48439e-05 0.000113409
0.00603064 -0.000160896 -0.000117403
0.00568105 0.000696964 3.31624e-06
0.00573547 0.000634055 -0.0011184
0.00604719 0.00082911 -0.000859268
0.00553346 7.66105e-06 5.74036e-05
0.00559774 0.000512761 -0.000974936
0.00595056 0.000760888 0.000484434
0.00605768 -0.000132101 -0.000116944
0.0055171 0.000383931 -0.000859308
0.00577174 5.575e-05 -2.3773e-05
0.00556731 -5.96806e-05 9.49506e-05
0.00570621 -0.000110173 -0.000193977
0.0061063 -9.98369e-05 -0.000116609
0.00572276 0.000565865 -0.00107017
0.00552054 0.000647797 -0.00110376
0.00621469 0.00147112 -0.000129261
0.00590558 0.00140416 -6.56442e-05
0.00545256 0.000679619 -0.000350222
0.00533543 -2.97445e-05 7.58495e-05
0.00591918 0.00111513 -9.06368e-05
0.00602928 0.000838216 -0.000868701
0.00586042 0.00120426 -0.00037088
0.00588473 0.00134638 -0.000175403
0.00597741 0.00106367 -0.00107396
0.00616575 0.000801749 0.000531012
0.00603522 0.000840237 -0.00086875
0.00571529 1.00848e-05 5.89437e-05
0.00601339 0.00139584 -0.000138687
0.00570413 5.0583e-06 9.05131e-06
4.1175e-15 1.05532e-14 8.29606e-14
-1.34255e-22 2.24983e-22 1.23839e-22
0.00609669 -0.000162612 -0.00011869
0.00618093 0.00075109 0.00063478
0.00562604 6.63004e-05 2.74491e-05
0.00597057 0.000771308 0.000469514
0.00544151 0.00069666 1.1069e-05
0.00536994 0.000635256 1.3665e-05
0.00553547 0.000693684 -0.00109323
0.00603295 0.000832148 -0.000855587
0.00625427 0.000720949 0.000569254
0.00557459 -0.000393521 -0.000624365
0.00568321 -3.24965e-06 7.05299e-05
0.00563045 0.000596138 -0.00106935
0.00583626 0.00126319 -0.00014943
0.00597933 0.00128302 -0.000271274
0.00555735 8.4656e-06 5.737e-05
0.00557733 0.000593363 3.28913e-05
0.00589756 0.00074569 -0.00079137
0.00619855 0.000931363 -0.00108517
0.00586063 0.00086555 -0.0010047
0.00612086 -0.000136054 -0.000118198
0.00603116 0.000845325 -0.000870443
0.00601795 0.000270376 -0.0014693
0.00611501 0.00079171 0.00049649
0.0060492 0.000835883 -0.000865456
0.00593603 0.00137678 -8.70479e-05
0.00571348 1.89948e-05 5.78629e-05
0.00571983 -3.97366e-06 6.61005e-05
0.00557614 0.000597586 -0.00107244
0.00548592 0.000694893 -0.000407097
0.0060014 0.00133742 -0.000118583
0.0054115 0.000753038 -6.90831e-06
0.00536451 5.45152e-05 3.16143e-05
0.00599749 0.00133045 -1.73703e-05
0.00598118 0.00148724 -4.95915e-05
0.00565861 0.000499385 -0.000996398
0.00563309 0.000122734 -1.90917e-06
0.00569097 1.2634e-05 5.20368e-05
0.00607673 0.000793334 0.000484032
0.00567696 -1.16058e-05 7.34949e-05
0.00623507 0.000743406 0.000658734
0.00567005 3.93484e-05 4.42662e-05
0.00547675 8.64744e-05 7.98477e-06
0.00602541 0.000850069 -0.000843826
0.00610675 -8.75644e-05 -0.000116218
0.00584238 -0.00017862 -0.000114175
0.0054348 7.26072e-05 2.26679e-05
0.00623957 0.000750758 0.000645376
0.00622012 0.000584664 0.000509276
0.00580784 0.000236413 -6.05225e-05
-3.84161e-14 8.16353e-14 2.95886e-13
0.00548534 1.15296e-05 5.52194e-05
0.00565411 0.000604172 -0.00105633
0.00566236 6.80365e-06 -6.08422e-05
0.00572545 2.93277e-05 -9.94143e-05
0.00575494 3.22118e-05 4.53198e-05
0.00614749 -0.00010817 -0.00011708
0.00599222 0.0013332 -0.000118407
0.00613345 -8.53582e-05 -0.000117398
0.00609194 -9.75371e-05 -0.000116047
0.00611596 -8.57466e-05 -0.00011624
0.00612108 -9.52185e-05 -0.000116455
0.00608746 0.000616605 3.70551e-05
0.00555194 -2.61519e-07 5.11422e-05
0.00594616 0.000753556 1.9615e-06
0.00579095 1.9151e-05 5.54818e-05
0.0055392 3.95884e-05 4.49969e-05
0.00626896 0.000790554 0.000588995
0.00573189 2.86155e-05 5.10984e-05
0.00573991 -1.56244e-06 -0.000104041
0.00617349 0.000782522 -0.000556484
0.00564719 -2.03794e-05 7.57895e-05
0.00593343 0.00119924 -0.000449387
0.00572628 -1.91038e-05 8.17398e-05
0.0060948 -0.000112735 -0.000117287
0.00574758 0.000829984 -1.19413e-05
0.00586945 0.000596744 -0.000966367
0.00637437 0.00102919 -0.000646883
0.00620284 -8.30728e-05 0.000274407
0.00602969 0.000851138 -0.000843192
0.00563465 -2.60563e-05 8.26035e-05
0.00570665 0.000574392 3.88629e-05
0.00577498 7.85994e-05 -6.04097e-05
0.0060555 -0.000219956 -0.000121207
0.00572498 -0.000110913 -0.000111419
0.00565657 0.000292199 0.00048627
0.0056921 -1.4107e-06 6.46132e-05
0.00579001 2.79541e-05 2.89854e-05
0.00623296 0.00077744 0.000569044
0.0061539 -0.000132269 -0.000119006
0.00551517 1.34799e-05 5.46673e-05
0.00601192 0.00140104 -0.000129664
0.0060256 -0.000117703 -0.000117046
0.00557601 6.11126e-05 3.02828e-05
0.00537653 1.57828e-05 5.21574e-05
0.00578459 2.53896e-05 5.12121e-05
0.00578391 9.85948e-06 6.44387e-05
0.00542759 2.90581e-05 4.55726e-05
0.00604881 0.000830818 -0.000858523
0.00603965 0.000773907 -0.000847801
0.00611997 -0.000109202 -0.000117036
0.00638476 0.00102302 -0.000669254
0.00565454 0.000428199 -0.000907139
0.00568237 -3.57652e-05 -0.000118076
0.00571135 -2.0753e-05 7.30074e-05
0.00608013 0.000526208 8.26274e-05
0.00572348 1.2643e-05 6.63219e-05
0.00602884 0.000837825 -0.000860397
0.0056887 -6.9559e-05 -0.000126747
0.00568143 0.000845836 -0.00133677
0.00547071 8.46934e-06 5.75233e-05
0.00601492 0.00079164 -0.000872836
0.00565344 -5.84377e-06 -3.02278e-05
0.00568531 -1.77717e-05 -0.000132706
0.00564952 -6.98828e-05 -0.000103674
0.00612845 -0.000104125 -0.000117111
0.00544193 2.91568e-05 4.57309e-05
0.00605686 -0.000182216 -0.000130383
0.00612806 -8.35421e-05 -0.000115638
0.00572477 0.000613832 -0.00104491
0.00543395 3.63442e-05 3.99445e-05
0.00551426 8.8158e-06 5.81621e-05
0.00553154 1.50825e-05 5.64032e-05
0.00570541 0.000325426 0.00049187
0.00558132 0.000344859 0.000433814
0.00594934 0.000259938 0.000570054
0.00592279 0.000209745 -4.55669e-05
0.00569992 -6.04604e-05 -0.000107036
0.00567768 0.000338573 0.0004337
0.00559957 -5.42703e-05 -0.000115564
0.00572997 1.84702e-05 5.47434e-05
0.00568521 1.61979e-05 7.26312e-05
0.00558888 0.000278813 0.000485047
0.00581558 0.000101103 1.20983e-05
0.00601817 0.00137047 -0.000140698
0.00560516 -6.46247e-05 -0.000111037
0.00557878 2.89104e-05 0.000258848
0.00560103 0.000165581 0.000295805
0.0059236 0.00076154 0.000484365
0.00604872 -9.77458e-06 -0.000110793
0.00541838 -4.44543e-06 6.34733e-05
0.00570855 -3.47277e-07 7.48728e-05
0.00561664 -7.23547e-05 -0.000103036
0.00611313 -0.000130761 -0.000117886
0.0055317 2.20444e-05 5.22802e-05
0.0056335 -4.90984e-05 7.40846e-05
0.00561209 0.000283604 0.000482359
0.00600305 0.000294457 0.000329257
0.00618638 -6.52086e-05 0.000274332
0.00570999 -4.36726e-05 -9.41014e-05
0.00569577 0.000115929 2.34863e-06
0.00563032 -1.08594e-06 6.26178e-05
0.00572682 -1.85318e-05 7.63801e-05
0.00528762 0.0014773 0.000324863
0.00598496 -4.59554e-05 -0.0001117
0.00567418 -5.55668e-05 -0.000110038
0.00554902 8.0021e-05 -0.000152683
0.00562988 -7.37179e-05 -0.000100324
0.00578568 2.5772e-05 5.19619e-05
0.00580033 2.90682e-05 5.00306e-05
0.00562242 2.62463e-05 4.96766e-05
0.00555481 8.83141e-05 1.50649e-05
0.00566323 6.0994e-05 0.000259475
0.00570884 -2.56256e-05 -0.00018898
0.00570845 -0.00013389 -0.000108601
0.00576086 0.000342196 0.000454885
0.00547933 2.10882e-05 5.08129e-05
0.00550956 8.26613e-06 5.86295e-05
0.00574937 9.08038e-05 0.000120385
0.00538824 3.79018e-05 3.99297e-05
0.00584513 -0.000186308 -0.00011245
0.0057094 3.03028e-05 5.07215e-05
0.00549445 3.27022e-05 4.39826e-05
0.00573869 2.60491e-05 4.57693e-05
0.00614882 -8.97805e-05 -0.000118598
0.00551933 4.59426e-06 6.01771e-05
0.00550754 1.14873e-05 5.62695e-05
0.00570061 -1.00317e-05 -0.000203307
0.00554377 2.56164e-05 4.85458e-05
0.00582925 0.00104057 -0.000533502
0.00564396 0.000316319 0.000466699
0.00557863 -2.77988e-05 -8.12675e-05
0.00597943 0.00138021 -0.000256853

VECTORS force float
-6.4257e-10 -6.70044e-11 3.00259e-10
-5.9268e-10 -2.4154e-09 2.54904e-09
-1.1743e-10 -2.80937e-10 4.68912e-10
3.59835e-11 1.68068e-10 -1.4536e-10
1.87538e-12 -8.74005e-12 2.80471e-12
-1.10097e-09 2.73614e-10 6.04074e-11
-2.61228e-10 -3.30892e-10 3.44249e-10
5.733e-11 -1.03813e-10 1.49244e-10
3.24166e-10 -3.29094e-10 6.43927e-11
3.41108e-10 1.82247e-10 -8.25987e-10
6.86104e-10 -3.77877e-10 2.03104e-10
5.17492e-11 1.48544e-10 -1.33522e-10
8.25509e-11 1.09341e-10 -1.69726e-10
-3.24653e-10 -6.66407e-11 -7.73571e-11
-1.38999e-10 -2.89069e-10 2.61416e-10
7.41476e-11 1.75373e-10 -1.59125e-10
1.21181e-09 6.16475e-10 -4.54875e-10
3.73611e-10 -4.90116e-10 -1.40384e-10
-2.37536e-10 2.88632e-10 4.20572e-11
7.0398e-11 -5.57977e-11 2.70299e-11
3.36527e-11 9.96304e-11 -9.07696e-11
3.68308e-11 8.46529e-11 -4.45984e-11
2.1608e-10 -1.30924e-10 6.55627e-11
1.13446e-10 3.94344e-11 3.39031e-10
6.00261e-11 2.57773e-10 -2.26526e-10
-3.89246e-12 -2.53385e-11 2.08836e-11
-9.95866e-11 -4.59829e-10 -1.29482e-09
2.23115e-11 7.64295e-11 -6.56804e-11
-2.47916e-12 -1.05862e-11 4.9541e-12
5.32352e-11 1.20701e-10 -1.0623e-10
9.04027e-10 3.65187e-10 1.41386e-10
-3.19766e-11 1.55477e-11 -4.47794e-11
2.76822e-10 -4.81208e-10 1.39717e-10
-1.13459e-10 3.49673e-10 1.96223e-10
-1.38586e-10 -1.57834e-11 -1.19189e-11
4.55659e-11 1.62495e-10 -1.43278e-10
-1.9799e-10 -3.79029e-10 4.22857e-10
-1.35221e-10 3.85818e-10 -1.35167e-11
-2.68493e-12 -1.28469e-11 5.57106e-12
4.70048e-11 1.45469e-10 -1.29913e-10
-3.19249e-10 -7.42281e-10 9.64715e-10
-7.46574e-12 -1.13948e-10 -1.03994e-10
-3.7421e-12 4.79489e-11 -4.30248e-11
-6.42884e-10 -5.11559e-10 -1.21121e-10
-7.98588e-11 -1.69253e-11 -7.25561e-13
3.63565e-13 -1.35993e-11 8.23862e-12
-7.41123e-10 2.72284e-10 -8.45133e-11
-2.55777e-11 -5.6926e-10 3.00094e-10
-5.14939e-10 2.86156e-10 -1.45453e-10
-1.48776e-12 -1.54081e-11 1.0342e-11
-9.66767e-24 4.42025e-24 -2.06795e-25
1.41078e-10 -1.04383e-09 7.15668e-10
5.59729e-11 1.69309e-10 -1.52818e-10
-6.24087e-11 6.29758e-10 8.32154e-12
0.0 0.0 -1.43822e-09
1.97015e-11 -2.19653e-11 9.42745e-12
-4.36122e-10 5.26168e-10 -2.5683e-10
6.65154e-11 5.82277e-11 -1.49307e-11
3.31617e-10 9.51339e-11 9.4494e-11
-9.65634e-10 8.68751e-10 -8.51895e-10
-2.13115e-10 -3.84973e-10 1.48341e-10
1.54703e-11 1.78766e-12 2.04242e-11
5.68279e-10 -5.81424e-11 -3.39119e-12
-7.89057e-10 -2.86779e-10 1.57126e-10
1.85564e-10 -1.56436e-10 2.24299e-10
-1.74172e-13 1.47418e-11 -1.26657e-11
3.17535e-11 -5.20483e-11 2.46558e-11
-1.02929e-10 -1.30193e-09 1.01058e-09
-5.02118e-11 1.82883e-10 -1.71046e-10
2.85049e-10 -1.57354e-10 -1.18553e-11
6.35514e-11 -1.96613e-09 1.94207e-09
1.46745e-10 -2.03725e-11 -1.15156e-10
1.05199e-10 -2.4148e-10 1.2975e-10
3.99211e-11 6.2622e-11 3.94335e-11
5.06106e-11 1.15913e-10 7.3669e-12
-1.58272e-11 5.30531e-11 -2.24271e-10
-1.53482e-10 -4.15501e-10 5.02618e-10
-3.06156e-11 5.34826e-10 5.84744e-11
1.33462e-11 -1.03415e-10 -7.81994e-11
-6.40207e-10 -1.19679e-11 2.97399e-10
3.6194e-10 -3.80864e-10 2.1264e-10
-1.19327e-10 -2.51955e-10 9.28433e-11
-1.77737e-10 -2.70161e-10 2.33477e-10
1.20558e-10 2.6128e-10 -7.45353e-10
-3.347e-10 4.49998e-10 5.74313e-10
-6.16895e-10 7.24892e-10 -1.78548e-09
-2.25076e-10 -4.99321e-11 -4.83759e-11
-1.37094e-10 -1.74672e-10 1.55309e-10
-4.70657e-11 1.9685e-11 -2.84202e-11
-4.62491e-10 3.73197e-10 -2.47104e-10
9.49901e-11 2.91802e-11 -6.9248e-12
-1.26322e-21 5.25647e-22 8.27181e-25
3.23117e-27 0.0 0.0
1.80479e-10 -5.73913e-11 1.44618e-11
1.58576e-10 1.57002e-10 -2.73837e-10
1.20495e-10 1.64698e-10 -6.701e-11
-5.14926e-10 -4.84838e-11 -2.68796e-10
-2.54488e-10 1.40821e-10 2.075e-10
-7.41083e-10 2.59508e-10 -7.86743e-11
2.13628e-10 4.64684e-10 4.08087e-10
4.0403e-11 -1.35753e-10 1.16558e-10