# vtk DataFile Version 3.0
LIGGGHTS particles timestep 12400000
ASCII
DATASET POLYDATA
POINTS 287 float
0.0851662 0.0164144 0.00766483
0.0857129 0.0176907 0.00716432
0.0789483 0.0159332 0.00802822
0.0854867 0.0178764 0.00709732
0.0850301 0.0162495 0.00782403
0.0911282 0.0166619 0.00763285
0.0852142 0.0170179 0.00741444
0.0849231 0.0159185 0.00818321
0.0913813 0.0177673 0.00700251
0.0851527 0.0167434 0.00751861
0.0856376 0.0177526 0.00714198
0.0791385 0.0166956 0.00758944
0.0850087 0.0161833 0.00789586
0.0788649 0.015712 0.00835007
0.0853703 0.017323 0.00730142
0.0788444 0.0156596 0.00843267
0.0851323 0.0166533 0.0075568
0.0912689 0.0172477 0.00727646
0.0849873 0.0161171 0.0079677
0.0851469 0.0163392 0.00773132
0.0852553 0.0172015 0.00734671
0.0792736 0.0168929 0.00747612
0.0913242 0.0174995 0.00712306
0.0851938 0.0169264 0.00744909
0.0912093 0.0169966 0.00742929
0.0792861 0.0172107 0.0073918
0.0854677 0.0177838 0.00713148
0.0849659 0.0160509 0.00803954
0.0854293 0.0175994 0.00719946
0.0852348 0.0171097 0.00738059
0.0853502 0.0172309 0.00733537
0.0911498 0.0167454 0.00758214
0.0851118 0.0165636 0.00759595
0.0853299 0.0171389 0.00736932
0.0914185 0.0179618 0.00703087
0.0852888 0.0169552 0.00743706
0.0854651 0.0173529 0.00728987
0.0913441 0.0175857 0.00707632
0.0850722 0.0163937 0.00769316
0.0852755 0.0172934 0.00731281
0.0854849 0.0174453 0.00725582
0.0911696 0.0168291 0.00753119
0.091249 0.017164 0.00732739
0.0850916 0.0164761 0.00763991
0.0853151 0.0174773 0.00724498
0.0912292 0.0170803 0.00737834
0.0853731 0.0177535 0.00714314
0.0853539 0.0176614 0.0071771
0.0791185 0.0166107 0.00763832
0.0912869 0.0173317 0.00722526
0.0851258 0.0162727 0.0078035
0.0789075 0.0158168 0.00818514
0.0853094 0.017047 0.0074032
0.0911894 0.0169128 0.00748024
0.0853839 0.0169843 0.00742585
0.0854044 0.0170762 0.00739196
0.0850515 0.0163157 0.00775218
0.0855045 0.0175374 0.00722184
0.0854277 0.0177786 0.00722301
0.0913056 0.0174156 0.00717417
0.0793537 0.0175453 0.00720691
0.079383 0.0172335 0.00738218
0.0856184 0.0176601 0.00717609
0.0855431 0.017722 0.00715376
0.0852272 0.0166804 0.00754053
0.0913645 0.0176738 0.00703366
0.0788855 0.0157645 0.00826746
0.0855238 0.0176298 0.00718776
0.0851732 0.0168345 0.00748277
0.0853902 0.0174153 0.00726737
0.0794098 0.0174934 0.00714237
0.0855801 0.0184506 0.00688757
0.0789694 0.0160179 0.00797946
0.0792431 0.0169689 0.0075336
0.0854286 0.0180191 0.0070452
0.0791805 0.0169079 0.0075822
0.0791988 0.0169503 0.00744284
0.0793083 0.0166657 0.00760714
0.0913999 0.0178645 0.00701669
0.0790873 0.0161298 0.00791532
0.0854485 0.0176917 0.00716543
0.0853633 0.0168924 0.00745972
0.0854866 0.0182952 0.00694336
0.0854479 0.0181111 0.00701125
0.0856936 0.0175981 0.00719846
0.0791585 0.0167805 0.00754057
0.0855871 0.0179054 0.00708611
0.0855698 0.0182431 0.00696207
0.0856454 0.0181815 0.00698429
0.0854132 0.0179433 0.00710865
0.0856063 0.0179974 0.00705216
0.079077 0.0164411 0.00773591
0.0855059 0.0183873 0.00690941
0.0793714 0.0173187 0.00733112
0.0855598 0.0173829 0.00727832
0.0792127 0.0168181 0.00761573
0.0643568 0.0187248 0.00531097
0.24257 0.0191927 0.00520306
0.0794277 0.0171768 0.00731298
0.0790339 0.0162719 0.00783333
0.0795043 0.0171212 0.00734526
0.0789909 0.0161026 0.00793075
0.0852683 0.0168633 0.00747096
0.0853346 0.0175694 0.00721105
0.0857014 0.0180275 0.00704056
0.0855509 0.0185547 0.00695024
0.0790983 0.0165258 0.00768717
0.0797756 0.0175522 0.00713539
0.0795098 0.0174345 0.00726966
0.0854098 0.0175073 0.00723343
0.0852477 0.0167715 0.00750483
0.0851043 0.0162065 0.00787543
0.0789266 0.0158702 0.00810273
0.0854249 0.0171683 0.00735796
0.0849445 0.0159847 0.00811138
0.0849017 0.0158523 0.00825505
0.0857281 0.0181286 0.00700325
0.0791303 0.0162991 0.0078179
0.0855311 0.0180615 0.00703621
0.0850826 0.0161401 0.00794748
0.0852955 0.0173853 0.00727891
0.0790555 0.0163565 0.00778462
0.0853923 0.0178456 0.00710919
0.0854673 0.0182032 0.00697731
0.0792938 0.0169779 0.00742718
0.0794613 0.0173592 0.00731421
0.0855119 0.0179689 0.0070685
0.0852812 0.0165275 0.00760173
0.0854451 0.0172605 0.00732398
0.0850612 0.0160739 0.00801932
0.0790657 0.0160452 0.00796403
0.0855554 0.0186348 0.00689053
0.0852068 0.0165904 0.00757926
0.0856649 0.0182738 0.00695023
0.0791088 0.0162145 0.00786661
0.0793892 0.0170063 0.0074111
0.0790124 0.0161872 0.00788204
0.0795268 0.0175236 0.00722775
0.0794033 0.0166934 0.00759148
0.0790442 0.0159606 0.00801275
0.0792576 0.0172052 0.0072961
0.0855855 0.0185456 0.00685674
0.0792134 0.0166382 0.00762272
0.0796009 0.0171515 0.00732804
0.0791731 0.0164684 0.00772045
0.0793522 0.0172335 0.00728009
0.0794278 0.0175869 0.00710759
0.0793332 0.0171484 0.00732907
0.0219312 0.0187687 0.00551176
0.0794469 0.0172619 0.00726397
0.0855621 0.0178145 0.00711964
0.0793344 0.0175499 0.0071089
0.0793713 0.0173186 0.00723112
0.0795611 0.017888 0.00699215
0.0796567 0.017414 0.00719415
0.0852423 0.0163655 0.00770749
0.0791934 0.0165533 0.0076716
0.0795236 0.0172065 0.00729616
0.0797083 0.0176849 0.00706723
0.0795626 0.0173803 0.00720429
0.0852607 0.0164378 0.00764089
0.0796395 0.0173247 0.00723596
0.0857377 0.0177816 0.00713077
0.0794858 0.0174359 0.0071726
0.0732335 0.0170897 0.00730585
0.0793136 0.017063 0.00737823
0.0793717 0.0177276 0.00702507
0.0797602 0.0174601 0.00717866
0.0796897 0.0175959 0.00710883
0.0792957 0.0173755 0.00719836
0.0851862 0.0165007 0.00761841
0.0795431 0.0172916 0.00724717
0.085531 0.0179386 0.0071619
0.0792386 0.0171202 0.00734507
0.0792767 0.0172903 0.00724714
0.0855398 0.0172905 0.00731241
0.0855892 0.0183353 0.00692807
0.0855796 0.0174754 0.00724422
0.0733396 0.0171989 0.0072222
0.0855729 0.0187267 0.00692593
0.0794658 0.0169508 0.00744334
0.0853428 0.0168006 0.00749361
0.0793283 0.0167506 0.00755827
0.0796756 0.0175059 0.00715119
0.0788239 0.0156071 0.00851528
0.0732931 0.0173702 0.0072267
0.0792169 0.0170558 0.0074918
0.0793907 0.0174043 0.00718355
0.0791786 0.0168654 0.0074917
0.0796789 0.0179411 0.00699448
0.0794852 0.0170361 0.00739424
0.085599 0.0175678 0.00721014
0.0792535 0.016808 0.00752498
0.0795168 0.0177165 0.0070397
0.0795036 0.0175259 0.00713049
0.0791518 0.0163838 0.00776918
0.0794663 0.017347 0.00721508
0.0792334 0.0167231 0.00757385
0.0853714 0.017497 0.0073252
0.0856261 0.0180894 0.00701824
0.0795798 0.0174695 0.00716251
0.0855197 0.0171979 0.00734657
0.0855505 0.018151 0.00699602
0.0733132 0.0170432 0.00734434
0.0793527 0.0176386 0.00706655
0.0853016 0.0166173 0.00756251
0.0794627 0.0177831 0.00709156
0.0855233 0.0184616 0.00697405
0.0793148 0.0174607 0.00714963
0.0732561 0.0168139 0.00753468
0.0853222 0.0167087 0.00752748
0.0794087 0.0170917 0.00736196
0.0792189 0.0170352 0.00739397
0.0857766 0.0179656 0.00706292
0.0796202 0.0172366 0.0072791
0.0734393 0.0172066 0.00722258
0.0732533 0.0171807 0.00726929
0.0793337 0.017456 0.0072477
0.0796268 0.0181013 0.00703827
0.073217 0.0170139 0.00736884
0.0792882 0.0165808 0.00765601
0.0793693 0.0169212 0.00746011
0.0856772 0.0184274 0.00689371
0.0796665 0.0182925 0.00708135
0.079647 0.0181968 0.00705977
0.0797461 0.0182087 0.0070537
0.0730326 0.0163367 0.00793098
0.0730978 0.016562 0.00774393
0.0730109 0.0162616 0.00799333
0.0793484 0.0168356 0.00750939
0.0792671 0.0171256 0.00744077
0.0730544 0.0164118 0.00786863
0.0731795 0.0168684 0.00750055
0.0794881 0.0178021 0.00699671
0.0797325 0.017773 0.00702646
0.0733148 0.0174678 0.00722935
0.0794368 0.0176865 0.0070917
0.0856818 0.0179355 0.00707449
0.0733502 0.0176645 0.00723469
0.073296 0.0169666 0.00740786
0.0731608 0.0167877 0.00755659
0.0790225 0.0158858 0.00807554
0.0795164 0.0176264 0.00708301
0.0794287 0.0180212 0.00703662
0.0794918 0.0178765 0.00706339
0.0733697 0.0177626 0.00723735
0.0796423 0.0176066 0.00719619
0.0795925 0.0183559 0.00710353
0.079726 0.0181122 0.00703198
0.073141 0.0167123 0.0076192
0.079447 0.0181181 0.00705863
0.0732732 0.0172726 0.00723526
0.0795818 0.0170665 0.00737701
0.0795323 0.0180686 0.00704195
0.0792746 0.0172993 0.00734672
0.0794101 0.0179222 0.00701414
0.0856624 0.0178435 0.00710844
0.0795972 0.0175596 0.00712029
0.0734118 0.017958 0.00724266
0.0795082 0.018406 0.00712336
0.0733901 0.0178604 0.00724
0.0795148 0.0179703 0.00703733
0.0793912 0.0178242 0.00700787
0.07953 0.0185022 0.00714487
0.079587 0.0177927 0.00700762
0.073197 0.0169385 0.00743142
0.0733309 0.0171189 0.00728148
0.0795627 0.0169814 0.00742598
0.0732743 0.0168895 0.00747186
0.0730761 0.0164869 0.00780628
0.0795708 0.0182607 0.00708223
0.0795514 0.018165 0.00706063
0.0794651 0.018214 0.0070804
0.079606 0.0180058 0.00701695
0.0794865 0.0183107 0.00710205
0.0794234 0.0167783 0.00754261
0.0794456 0.0168653 0.00749253
0.0796669 0.0178484 0.00702999
0.0792681 0.0164959 0.00770492
0.079608 0.0176821 0.00706211
0.0795517 0.0185975 0.00716617
0.0734084 0.0175028 0.00723046
0.0796137 0.0184513 0.00712488
0.0854994 0.0171056 0.00738058
0.0731196 0.0166371 0.00768159
0.0733313 0.0175664 0.00723202
0.0855859 0.017797 0.00721518

VERTICES 287 574
1 0
1 1
1 2
1 3
1 4
1 5
1 6
1 7
1 8
1 9
1 10
1 11
1 12
1 13
1 14
1 15
1 16
1 17
1 18
1 19
1 20
1 21
1 22
1 23
1 24
1 25
1 26
1 27
1 28
1 29
1 30
1 31
1 32
1 33
1 34
1 35
1 36
1 37
1 38
1 39
1 40
1 41
1 42
1 43
1 44
1 45
1 46
1 47
1 48
1 49
1 50
1 51
1 52
1 53
1 54
1 55
1 56
1 57
1 58
1 59
1 60
1 61
1 62
1 63
1 64
1 65
1 66
1 67
1 68
1 69
1 70
1 71
1 72
1 73
1 74
1 75
1 76
1 77
1 78
1 79
1 80
1 81
1 82
1 83
1 84
1 85
1 86
1 87
1 88
1 89
1 90
1 91
1 92
1 93
1 94
1 95
1 96
1 97
1 98
1 99
1 100
1 101
1 102
1 103
1 104
1 105
1 106
1 107
1 108
1 109
1 110
1 111
1 112
1 113
1 114
1 115
1 116
1 117
1 118
1 119
1 120
1 121
1 122
1 123
1 124
1 125
1 126
1 127
1 128
1 129
1 130
1 131
1 132
1 133
1 134
1 135
1 136
1 137
1 138
1 139
1 140
1 141
1 142
1 143
1 144
1 145
1 146
1 147
1 148
1 149
1 150
1 151
1 152
1 153
1 154
1 155
1 156
1 157
1 158
1 159
1 160
1 161
1 162
1 163
1 164
1 165
1 166
1 167
1 168
1 169
1 170
1 171
1 172
1 173
1 174
1 175
1 176
1 177
1 178
1 179
1 180
1 181
1 182
1 183
1 184
1 185
1 186
1 187
1 188
1 189
1 190
1 191
1 192
1 193
1 194
1 195
1 196
1 197
1 198
1 199
1 200
1 201
1 202
1 203
1 204
1 205
1 206
1 207
1 208
1 209
1 210
1 211
1 212
1 213
1 214
1 215
1 216
1 217
1 218
1 219
1 220
1 221
1 222
1 223
1 224
1 225
1 226
1 227
1 228
1 229
1 230
1 231
1 232
1 233
1 234
1 235
1 236
1 237
1 238
1 239
1 240
1 241
1 242
1 243
1 244
1 245
1 246
1 247
1 248
1 249
1 250
1 251
1 252
1 253
1 254
1 255
1 256
1 257
1 258
1 259
1 260
1 261
1 262
1 263
1 264
1 265
1 266
1 267
1 268
1 269
1 270
1 271
1 272
1 273
1 274
1 275
1 276
1 277
1 278
1 279
1 280
1 281
1 282
1 283
1 284
1 285
1 286

POINT_DATA 287
SCALARS id int 1
LOOKUP_TABLE default
1
2
3
4
5
6
7
8
9
10
11
12
13
14
15
16
17
18
19
21
22
23
24
25
26
27
28
29
30
31
32
33
34
35
36
37
38
39
41
42
44
45
46
47
48
49
50
51
52
53
54
55
56
57
59
60
61
62
63
64
65
66
67
68
69
70
71
72
73
74
76
77
78
79
80
81
82
83
84
85
86
87
88
89
90
91
92
93
94
95
96
97
98
99
100
101
102
103
104
105
106
107
108
109
110
111
112
113
114
115
116
117
118
119
120
121
122
123
124
125
126
127
128
129
130
131
132
133
134
135
136
137
138
140
141
142
143
144
146
147
148
149
150
151
153
154
155
156
157
158
159
160
162
164
165
166
167
168
169
170
171
172
173
174
175
176
177
178
179
181
182
183
184
185
186
187
188
189
190
191
192
193
194
195
196
197
198
199
200
201
202
203
204
205
206
207
208
209
210
211
212
213
214
215
216
217
218
219
220
221
222
223
224
225
226
227
228
229
230
231
232
233
234
235
236
237
239
240
241
242
243
244
246
247
248
249
250
251
252
253
254
255
256
257
258
259
260
261
262
263
264
265
266
267
268
269
270
271
272
273
274
275
276
277
278
279
280
281
282
283
284
285
286
287
288
289
290
291
292
293
294
295
296
297
298
299
300

SCALARS type int 1
LOOKUP_TABLE default
1
1
1
1
1
1
1
1
1
1
1
1
1
1
1
1
1
1
1
1
1
1
1
1
1
1
1
1
1
1
1
1
1
1
1
1
1
1
1
1
1
1
1
1
1
1
1
1
1
1
1
1
1
1
1
1
1
1
1
1
1
1
1
1
1
1
1
1
1
1
1
1
1
1
1
1
1
1
1
1
1
1
1
1
1
1
1
1
1
1
1
1
1
1
1
1
1
1
1
1
1
1
1
1
1
1
1
1
1
1
1
1
1
1
1
1
1
1
1
1
1
1
1
1
1
1
1
1
1
1
1
1
1
1
1
1
1
1
1
1
1
1
1
1
1
1
1
1
1
1
1
1
1
1
1
1
1
1
1
1
1
1
1
1
1
1
1
1
1
1
1
1
1
1
1
1
1
1
1
1
1
1
1
1
1
1
1
1
1
1
1
1
1
1
1
1
1
1
1
1
1
1
1
1
1
1
1
1
1
1
1
1
1
1
1
1
1
1
1
1
1
1
1
1
1
1
1
1
1
1
1
1
1
1
1
1
1
1
1
1
1
1
1
1
1
1
1
1
1
1
1
1
1
1
1
1
1
1
1
1
1
1
1
1
1
1
1
1
1
1
1
1
1
1
1
1
1
1
1
1
1
1
1
1
1
1
1

SCALARS radius float 1
LOOKUP_TABLE default
5e-05
5e-05
5e-05
5e-05
5e-05
5e-05
5e-05
5e-05
5e-05
5e-05
5e-05
5e-05
5e-05
5e-05
5e-05
5e-05
5e-05
5e-05
5e-05
5e-05
5e-05
5e-05
5e-05
5e-05
5e-05
5e-05
5e-05
5e-05
5e-05
5e-05
5e-05
5e-05
5e-05
5e-05
5e-05
5e-05
5e-05
5e-05
5e-05
5e-05
5e-05
5e-05
5e-05
5e-05
5e-05
5e-05
5e-05
5e-05
5e-05
5e-05
5e-05
5e-05
5e-05
5e-05
5e-05
5e-05
5e-05
5e-05
5e-05
5e-05
5e-05
5e-05
5e-05
5e-05
5e-05
5e-05
5e-05
5e-05
5e-05
5e-05
5e-05
5e-05
5e-05
5e-05
5e-05
5e-05
5e-05
5e-05
5e-05
5e-05
5e-05
5e-05
5e-05
5e-05
5e-05
5e-05
5e-05
5e-05
5e-05
5e-05
5e-05
5e-05
5e-05
5e-05
5e-05
5e-05
5e-05
5e-05
5e-05
5e-05
5e-05
5e-05
5e-05
5e-05
5e-05
5e-05
5e-05
5e-05
5e-05
5e-05
5e-05
5e-05
5e-05
5e-05
5e-05
5e-05
5e-05
5e-05
5e-05
5e-05
5e-05
5e-05
5e-05
5e-05
5e-05
5e-05
5e-05
5e-05
5e-05
5e-05
5e-05
5e-05
5e-05
5e-05
5e-05
5e-05
5e-05
5e-05
5e-05
5e-05
5e-05
5e-05
5e-05
5e-05
5e-05
5e-05
5e-05
5e-05
5e-05
5e-05
5e-05
5e-05
5e-05
5e-05
5e-05
5e-05
5e-05
5e-05
5e-05
5e-05
5e-05
5e-05
5e-05
5e-05
5e-05
5e-05
5e-05
5e-05
5e-05
5e-05
5e-05
5e-05
5e-05
5e-05
5e-05
5e-05
5e-05
5e-05
5e-05
5e-05
5e-05
5e-05
5e-05
5e-05
5e-05
5e-05
5e-05
5e-05
5e-05
5e-05
5e-05
5e-05
5e-05
5e-05
5e-05
5e-05
5e-05
5e-05
5e-05
5e-05
5e-05
5e-05
5e-05
5e-05
5e-05
5e-05
5e-05
5e-05
5e-05
5e-05
5e-05
5e-05
5e-05
5e-05
5e-05
5e-05
5e-05
5e-05
5e-05
5e-05
5e-05
5e-05
5e-05
5e-05
5e-05
5e-05
5e-05
5e-05
5e-05
5e-05
5e-05
5e-05
5e-05
5e-05
5e-05
5e-05
5e-05
5e-05
5e-05
5e-05
5e-05
5e-05
5e-05
5e-05
5e-05
5e-05
5e-05
5e-05
5e-05
5e-05
5e-05
5e-05
5e-05
5e-05
5e-05
5e-05
5e-05
5e-05
5e-05
5e-05
5e-05
5e-05
5e-05
5e-05
5e-05
5e-05
5e-05
5e-05
5e-05
5e-05
5e-05
5e-05
5e-05
5e-05
5e-05
5e-05
5e-05
5e-05
5e-05
5e-05
5e-05
5e-05
5e-05
5e-05
5e-05
5e-05
5e-05

SCALARS mass float 1
LOOKUP_TABLE default
1.46608e-10
1.46608e-10
1.46608e-10
1.46608e-10
1.46608e-10
1.46608e-10
1.46608e-10
1.46608e-10
1.46608e-10
1.46608e-10
1.46608e-10
1.46608e-10
1.46608e-10
1.46608e-10
1.46608e-10
1.46608e-10
1.46608e-10
1.46608e-10
1.46608e-10
1.46608e-10
1.46608e-10
1.46608e-10
1.46608e-10
1.46608e-10
1.46608e-10
1.46608e-10
1.46608e-10
1.46608e-10
1.46608e-10
1.46608e-10
1.46608e-10
1.46608e-10
1.46608e-10
1.46608e-10
1.46608e-10
1.46608e-10
1.46608e-10
1.46608e-10
1.46608e-10
1.46608e-10
1.46608e-10
1.46608e-10
1.46608e-10
1.46608e-10
1.46608e-10
1.46608e-10
1.46608e-10
1.46608e-10
1.46608e-10
1.46608e-10
1.46608e-10
1.46608e-10
1.46608e-10
1.46608e-10
1.46608e-10
1.46608e-10
1.46608e-10
1.46608e-10
1.46608e-10
1.46608e-10
1.46608e-10
1.46608e-10
1.46608e-10
1.46608e-10
1.46608e-10
1.46608e-10
1.46608e-10
1.46608e-10
1.46608e-10
1.46608e-10
1.46608e-10
1.46608e-10
1.46608e-10
1.46608e-10
1.46608e-10
1.46608e-10
1.46608e-10
1.46608e-10
1.46608e-10
1.46608e-10
1.46608e-10
1.46608e-10
1.46608e-10
1.46608e-10
1.46608e-10
1.46608e-10
1.46608e-10
1.46608e-10
1.46608e-10
1.46608e-10
1.46608e-10
1.46608e-10
1.46608e-10
1.46608e-10
1.46608e-10
1.46608e-10
1.46608e-10
1.46608e-10
1.46608e-10
1.46608e-10
1.46608e-10
1.46608e-10
1.46608e-10
1.46608e-10
1.46608e-10
1.46608e-10
1.46608e-10
1.46608e-10
1.46608e-10
1.46608e-10
1.46608e-10
1.46608e-10
1.46608e-10
1.46608e-10
1.46608e-10
1.46608e-10
1.46608e-10
1.46608e-10
1.46608e-10
1.46608e-10
1.46608e-10
1.46608e-10
1.46608e-10
1.46608e-10
1.46608e-10
1.46608e-10
1.46608e-10
1.46608e-10
1.46608e-10
1.46608e-10
1.46608e-10
1.46608e-10
1.46608e-10
1.46608e-10
1.46608e-10
1.46608e-10
1.46608e-10
1.46608e-10
1.46608e-10
1.46608e-10
1.46608e-10
1.46608e-10
1.46608e-10
1.46608e-10
1.46608e-10
1.46608e-10
1.46608e-10
1.46608e-10
1.46608e-10
1.46608e-10
1.46608e-10
1.46608e-10
1.46608e-10
1.46608e-10
1.46608e-10
1.46608e-10
1.46608e-10
1.46608e-10
1.46608e-10
1.46608e-10
1.46608e-10
1.46608e-10
1.46608e-10
1.46608e-10
1.46608e-10
1.46608e-10
1.46608e-10
1.46608e-10
1.46608e-10
1.46608e-10
1.46608e-10
1.46608e-10
1.46608e-10
1.46608e-10
1.46608e-10
1.46608e-10
1.46608e-10
1.46608e-10
1.46608e-10
1.46608e-10
1.46608e-10
1.46608e-10
1.46608e-10
1.46608e-10
1.46608e-10
1.46608e-10
1.46608e-10
1.46608e-10
1.46608e-10
1.46608e-10
1.46608e-10
1.46608e-10
1.46608e-10
1.46608e-10
1.46608e-10
1.46608e-10
1.46608e-10
1.46608e-10
1.46608e-10
1.46608e-10
1.46608e-10
1.46608e-10
1.46608e-10
1.46608e-10
1.46608e-10
1.46608e-10
1.46608e-10
1.46608e-10
1.46608e-10
1.46608e-10
1.46608e-10
1.46608e-10
1.46608e-10
1.46608e-10
1.46608e-10
1.46608e-10
1.46608e-10
1.46608e-10
1.46608e-10
1.46608e-10
1.46608e-10
1.46608e-10
1.46608e-10
1.46608e-10
1.46608e-10
1.46608e-10
1.46608e-10
1.46608e-10
1.46608e-10
1.46608e-10
1.46608e-10
1.46608e-10
1.46608e-10
1.46608e-10
1.46608e-10
1.46608e-10
1.46608e-10
1.46608e-10
1.46608e-10
1.46608e-10
1.46608e-10
1.46608e-10
1.46608e-10
1.46608e-10
1.46608e-10
1.46608e-10
1.46608e-10
1.46608e-10
1.46608e-10
1.46608e-10
1.46608e-10
1.46608e-10
1.46608e-10
1.46608e-10
1.46608e-10
1.46608e-10
1.46608e-10
1.46608e-10
1.46608e-10
1.46608e-10
1.46608e-10
1.46608e-10
1.46608e-10
1.46608e-10
1.46608e-10
1.46608e-10
1.46608e-10
1.46608e-10
1.46608e-10
1.46608e-10
1.46608e-10
1.46608e-10
1.46608e-10
1.46608e-10
1.46608e-10
1.46608e-10
1.46608e-10
1.46608e-10
1.46608e-10
1.46608e-10
1.46608e-10
1.46608e-10
1.46608e-10
1.46608e-10
1.46608e-10
1.46608e-10
1.46608e-10

VECTORS velocity float
0.00563067 -0.000248648 -0.000268675
0.0055012 -0.000188145 3.83645e-05
0.00627013 -8.15746e-05 6.40757e-05
0.00549738 -0.00010564 9.71617e-06
0.00624521 1.38559e-05 0.000320644
0.00597937 -0.000564998 0.00057959
0.00573256 -0.000146075 2.26047e-05
0.00611642 2.03644e-05 0.000309051
0.00547855 -0.000769885 0.000213466
0.00570317 -0.000225725 -0.000208664
0.00550389 -0.000158355 2.64815e-05
0.00571445 -1.04039e-05 2.27697e-05
0.00622514 1.49363e-05 0.000317423
0.00616084 -5.54907e-05 2.3115e-05
0.00557651 6.262e-06 -3.36686e-05
0.00612911 -5.52093e-05 2.20038e-05
0.00569085 -0.000226687 -0.000219541
0.00533855 -0.000582467 0.00055846
0.00619043 1.40173e-05 0.00031619
0.00637558 0.00038921 -8.82858e-05
0.00575665 -0.000150764 2.28627e-05
0.00578159 -2.71505e-05 3.36435e-05
0.00556266 -0.000578121 0.000573778
0.00572307 -0.000159797 -3.03961e-05
0.00561604 -0.000420943 0.000477164
0.00564264 4.6089e-05 -9.69155e-06
0.00549371 -0.000105613 9.46735e-06
0.00617116 1.57359e-05 0.000315003
0.00545898 -0.000107994 9.03663e-06
0.00574356 -0.000149097 2.25061e-05
0.00572562 -3.20684e-05 -2.04047e-05
0.00568234 -0.000483753 0.000519496
0.0056751 -0.00022421 -0.000225153
0.00575377 -0.000162752 2.76128e-05
0.00541544 -0.00074941 0.000213418
0.0057263 -0.000150473 2.32103e-05
0.00544966 -5.46959e-05 -1.09367e-05
0.00557992 -0.00076598 0.000205005
0.00594708 -0.000112925 4.14547e-05
0.00562547 -0.000128007 1.56044e-05
0.00547715 -6.68586e-05 -7.43569e-06
0.00553877 -0.000465364 0.000496339
0.00565893 -0.000587048 0.000582366
0.00564602 -0.000223119 -0.000240615
0.00541512 -8.17692e-05 5.55783e-07
0.00538927 -0.000529911 0.000536784
0.00548954 -9.19701e-05 2.53516e-06
0.00547025 -8.71996e-05 1.18341e-06
0.00573073 -1.73046e-05 2.69654e-05
0.00553409 -0.00061992 0.000586723
0.00642079 0.000137115 0.000193942
0.00628144 -7.67063e-05 4.50992e-05
0.00573095 -0.000168177 2.95365e-05
0.0055938 -0.000429633 0.000482935
0.0057338 -0.000171579 3.09489e-05
0.00576114 -0.0001632 2.76372e-05
0.0062618 1.36775e-05 0.000322492
0.0054483 -0.000134288 1.87957e-05
0.00547899 -0.000101954 7.70318e-06
0.00549249 -0.000602338 0.000572161
0.00565314 0.000234334 0.000257289
0.00564088 3.14621e-05 5.44042e-06
0.00548119 -0.000141009 2.12874e-05
0.00548953 -0.000120789 1.41651e-05
0.00567711 -0.000235241 -0.00026552
0.00550119 -0.000778548 0.000160609
0.00619641 -6.27202e-05 2.88874e-05
0.00547234 -0.000126543 1.59375e-05
0.00571319 -0.000199199 -0.00014538
0.00545695 -4.02647e-05 -1.60524e-05
0.00564099 0.000207519 0.000241222
0.00564602 -0.000105881 1.29051e-05
0.00626927 -9.33221e-05 7.53228e-05
0.00578121 -1.3943e-05 2.47898e-05
0.0055673 -9.67428e-05 5.69136e-06
0.00574194 7.15931e-06 6.02347e-06
0.00580029 1.27495e-06 1.79095e-05
0.00570772 -5.40043e-05 4.77476e-05
0.005448 -0.000761979 0.000213169
0.00624247 -0.000110031 8.21135e-05
0.00548185 -0.000109549 1.00098e-05
0.00573477 -0.000141361 1.95871e-05
0.00563776 -0.000101939 6.00399e-06
0.00558775 -9.71856e-05 5.16971e-06
0.00546264 -0.000164871 2.97997e-05
0.00572382 -2.12254e-06 1.7569e-05
0.00556277 -0.000139809 1.87878e-05
0.00562563 -0.000122363 1.35217e-05
0.00561399 -0.000136037 1.84582e-05
0.00551645 -9.33088e-05 2.80555e-06
0.00556784 -0.000134689 1.79099e-05
0.00618046 -9.89114e-05 7.53882e-05
0.00565033 -0.000110242 8.28395e-06
0.00565638 4.82271e-05 5.70405e-06
0.0055452 -2.61168e-07 -3.10493e-05
0.00573238 -4.12743e-05 3.28942e-05
4.27107e-15 1.05016e-14 8.29593e-14
5.30818e-23 4.86658e-23 1.23839e-22
0.00563667 2.92614e-05 1.87962e-06
0.00622663 -0.000104835 7.82181e-05
0.00564207 3.88888e-05 -5.04098e-06
0.00625689 -0.000101012 7.64532e-05
0.00572168 -0.000136763 1.68572e-05
0.00543705 -8.15544e-05 5.6773e-07
0.00556987 -0.000170652 3.1361e-05
0.00562187 -0.000106481 2.49992e-05
0.00595012 -5.48309e-05 4.92563e-05
0.00553586 0.000274523 0.000226059
0.00563509 0.000165113 0.000244645
0.00543143 -0.000102693 5.5471e-06
0.00570818 -0.00013849 1.64067e-05
0.0064 0.000133881 0.000196108
0.00628438 -7.61963e-05 5.20421e-05
0.00585126 7.81127e-05 -6.1581e-05
0.00615815 2.22914e-05 0.000311735
0.00609266 1.4547e-05 0.000309887
0.00558735 -0.000170084 3.10758e-05
0.00621634 -0.000102436 7.75265e-05
0.00558099 -0.000118069 1.18287e-05
0.0062095 1.91308e-06 0.000332038
0.00547599 -9.59751e-05 4.14504e-06
0.00620861 -0.000102852 7.71102e-05
0.00549082 -9.28317e-05 2.74145e-06
0.00561122 -9.65809e-05 4.53011e-06
0.00580089 -9.97927e-06 2.37351e-05
0.00571606 -1.74348e-05 -1.7987e-05
0.0055658 -0.000121199 1.29654e-05
0.00563457 -0.000275341 -0.000199981
0.00567366 9.5352e-05 -6.69725e-05
0.00618089 4.73629e-06 0.000326899
0.00624588 -0.000107635 8.1049e-05
0.00561928 -0.000106379 2.75586e-05
0.00567853 -0.000236362 -0.00021553
0.00567143 -0.00010514 6.81667e-06
0.00624076 -0.000105553 7.99131e-05
0.00558709 2.16881e-05 -1.37986e-06
0.00624352 -0.000104182 7.6683e-05
0.00566412 0.00017547 0.000278936
0.00568848 -6.54965e-05 5.40703e-05
0.00626841 -9.02258e-05 7.02822e-05
0.00562722 6.58664e-05 -1.77559e-05
0.0056242 -0.000101259 2.7668e-05
0.00572036 -1.50916e-05 2.54058e-05
0.00567871 3.23325e-05 -3.22259e-06
0.00592556 -5.71743e-05 5.00602e-05
0.00564714 4.74949e-05 -7.87408e-06
0.00562904 0.000204325 0.000258669
0.00562229 4.03387e-05 -6.49726e-06
-3.83577e-14 8.16561e-14 2.95887e-13
0.00565216 3.06048e-05 -1.15226e-06
0.00550165 -0.000121456 1.53223e-05
0.00563812 0.000219826 0.000266396
0.00565508 4.83909e-05 -9.48932e-06
0.00514651 -9.44947e-06 -0.000469491
0.00563311 0.000153563 0.000289469
0.00562626 0.000130595 0.000153917
0.00571961 -2.26456e-05 2.92836e-05
0.00566079 2.49296e-05 2.98675e-06
0.0056412 0.000335031 0.000200095
0.00563809 0.000197291 0.000256383
0.00566765 -0.000225743 -0.000221013
0.00565622 0.000188699 0.000274554
0.00554418 -0.000194526 4.01795e-05
0.00562709 0.000213437 0.000258047
0.00563607 -2.13647e-05 5.87797e-06
0.00559409 2.16267e-05 -3.27814e-06
0.00564728 0.0001998 0.00027673
0.00584016 0.000553801 0.000110864
0.00559448 0.000344426 0.000198884
0.00561054 0.00015012 8.73161e-05
0.0056612 -0.000230912 -0.000219878
0.00571138 7.62383e-05 -2.77575e-05
0.00557251 -0.000131843 1.46305e-05
0.00561152 5.86179e-05 -1.74726e-05
0.00564776 6.7865e-05 -2.08291e-05
0.00547939 -2.76924e-05 -2.0504e-05
0.00565227 -0.000116758 1.14431e-05
0.00544389 -0.000142594 2.18815e-05
0.00562082 -4.51509e-05 8.54708e-06
0.00605058 -0.000179491 4.29783e-06
0.00560777 5.2796e-05 -1.49651e-05
0.00570297 -0.000154695 2.5333e-05
0.00570783 -5.34337e-05 4.60828e-05
0.00573215 0.000412205 0.000170158
0.00605491 -5.4929e-05 1.63949e-05
0.00565775 -2.70578e-05 1.03582e-05
0.0057341 -8.27728e-06 3.76141e-05
0.00565336 9.93989e-05 4.70896e-05
0.00576471 -4.82681e-06 1.72889e-05
0.00561387 0.000169965 -0.00045529
0.0056309 4.6038e-05 -1.00012e-05
0.00546154 -0.000139539 2.05809e-05
0.00573703 -2.50627e-05 3.16144e-05
0.00566872 0.000216607 0.000258696
0.00564022 0.000196656 0.000270904
0.0061709 -9.96819e-05 7.54511e-05
0.00568233 6.61024e-05 -3.75473e-05
0.00571307 -1.91691e-05 2.68699e-05
0.00544097 -0.000130597 1.1851e-06
0.0055887 -0.00014072 2.02147e-05
0.00564852 0.000191767 0.00026884
0.00575969 0.000177693 -9.76272e-05
0.00560183 -0.000120079 1.25142e-05
0.00561477 -3.90323e-05 2.26073e-05
0.00563354 0.000201503 0.000258994
0.00567542 -0.000213415 -0.000229705
0.00566908 0.000220116 0.000306897
0.0056301 -0.000111504 1.29603e-05
0.00560014 0.000234801 0.000233658
0.00593269 -7.69265e-06 -5.11712e-06
0.00570273 -0.000139731 1.78123e-05
0.00562097 3.50258e-05 -3.2714e-06
0.00581765 1.58619e-05 1.49881e-05
0.00554992 -0.00019937 4.21309e-05
0.0056967 3.38644e-05 -7.78816e-06
0.00562318 -7.01653e-05 8.58144e-06
0.00561219 -1.76931e-05 3.2661e-06
0.0057022 0.000172785 0.000202052
0.00560373 0.000190674 -0.000466683
0.00571717 -3.3077e-05 1.28242e-05
0.0057152 -4.95742e-05 4.52975e-05
0.00579064 -2.01159e-05 2.78844e-05
0.00568338 2.08074e-05 -4.04321e-05
0.00582794 0.000130293 -0.000490415
0.00566401 0.0001658 -0.000467891
0.00569042 -0.00029445 -0.000589623
0.00606743 -8.388e-05 5.77784e-05
0.00607233 -8.69032e-05 6.0261e-05
0.00606616 -8.24755e-05 5.67236e-05
0.00576396 -5.26005e-05 4.91806e-05
0.00567658 2.58697e-05 1.38977e-05
0.00606701 -8.48359e-05 5.87334e-05
0.00588052 -5.52589e-05 3.44836e-05
0.00571775 0.000210872 0.000290937
0.00562969 0.000326729 0.000198705
0.00560669 -1.57254e-05 1.01186e-05
0.00563464 0.000221575 0.000225826
0.0055316 -0.00016611 3.00876e-05
0.00544924 1.2127e-05 1.07568e-05
0.00576802 1.86485e-05 -2.21588e-05
0.00596093 -6.7971e-05 4.52518e-05
0.00626655 -8.52838e-05 6.33234e-05
0.00562173 0.000219137 0.000258518
0.00564146 0.000161562 -0.000443042
0.00582181 0.000333065 0.000168979
0.00548692 2.24002e-06 9.87719e-06
0.00556995 0.000377313 0.000185939
0.00585918 0.000163562 -0.000493374
0.00568133 -0.000295522 -0.000591769
0.00603786 -8.16489e-05 5.5247e-05
0.00554436 -7.90006e-05 -0.000517324
0.00564326 -2.44783e-05 5.02251e-06
0.00564581 4.40859e-05 -8.49674e-06
0.00563641 0.000201099 -0.000503275
0.00564848 6.31058e-05 -1.42828e-05
0.00568293 0.000223843 -0.000458663
0.00555185 -0.000170475 3.02807e-05
0.00561013 0.000289203 0.000223793
0.00558791 -1.48145e-05 8.07191e-06
0.0057918 5.50914e-05 -0.000509615
0.00557365 -1.99994e-05 1.08497e-05
0.00566381 0.000217117 -0.000302621
0.00568357 0.000207162 0.000284711
0.00579527 0.000143006 -0.000487558
0.00571928 0.00021706 0.000264502
0.00579833 -4.43015e-05 2.45842e-05
0.0055943 -3.61733e-05 1.89683e-05
0.00564016 5.88728e-05 -1.74306e-05
0.00585073 4.31745e-06 -1.48196e-05
0.00606934 -8.54922e-05 5.9102e-05
0.00579307 0.000162365 -0.000487265
0.00566782 0.000188656 -0.000466397
0.00548119 -0.000121525 -0.000522802
0.00561914 0.000191624 -0.000486072
0.00583011 0.000201462 -0.000476483
0.00574595 -6.92804e-05 5.68176e-05
0.00580132 -5.73711e-06 2.01416e-05
0.00566469 0.000337877 2.59929e-05
0.00570157 -4.58872e-05 4.31272e-05
0.00565235 0.000192058 0.00027684
0.00578934 0.000148558 -0.000488025
0.00557011 8.04007e-05 1.1733e-05
0.00581352 0.000174562 -0.000482145
0.00595054 0.000167918 -9.51508e-05
0.00607319 -8.74625e-05 6.13084e-05
0.00550371 1.2803e-06 9.81582e-06
0.00552172 -0.000125616 1.37901e-05

VECTORS force float
5.33211e-11 1.24001e-10 2.50873e-10
1.00698e-10 -1.46351e-10 5.48491e-11
1.90848e-10 -2.36529e-10 1.29226e-10
4.24678e-11 -5.58731e-11 4.72304e-11
-2.62899e-12 6.56399e-12 -1.36999e-11
8.50035e-11 2.02985e-10 -1.20736e-10
7.76952e-12 1.30124e-11 1.74729e-11
-2.69619e-10 4.0166e-11 -1.14097e-10
1.54864e-10 2.6468e-11 4.69982e-11
-1.20566e-11 3.022e-11 1.90928e-12
1.44827e-10 -2.50859e-10 9.22875e-11
5.31887e-11 -2.10313e-11 8.23626e-12
-1.30307e-11 1.94579e-12 3.70528e-13
9.34097e-11 2.00951e-10 -2.29427e-10
9.36184e-11 -4.28744e-11 1.74179e-11
-7.72177e-11 9.73431e-11 -1.40499e-10
-1.33448e-11 1.68442e-11 2.10055e-11
1.62393e-09 -1.14423e-09 1.00375e-09
2.59291e-12 8.17192e-12 -1.09829e-11
-1.59354e-11 4.47276e-11 -9.15714e-11
-1.1374e-11 -4.2959e-11 1.08045e-11
-6.17724e-11 4.62071e-11 -3.89647e-11
-3.31559e-10 -6.18692e-10 5.02121e-10
5.0934e-11 5.27686e-11 8.16144e-11
-5.40659e-10 -5.42515e-10 2.84733e-10
-9.49945e-11 2.74375e-10 -2.5727e-10
1.11803e-10 -3.99062e-11 1.28232e-11
1.37991e-10 9.84918e-11 -8.47007e-11
4.11446e-11 -8.52904e-11 3.34344e-11
-2.33828e-11 -1.03216e-11 1.22442e-12
6.38065e-11 -1.06272e-10 3.98598e-11
-7.11553e-11 2.99214e-10 -1.9511e-10
-1.39416e-11 -1.74627e-11 -2.03282e-11
2.70202e-11 -2.107e-12 -1.33378e-12
2.23945e-11 -2.49582e-11 -1.20966e-11
9.97794e-12 3.87815e-11 -3.59595e-14
2.71514e-11 8.53896e-11 -3.51873e-11
-3.13762e-11 -2.73359e-11 7.18377e-10
-2.39265e-11 -3.21882e-11 -7.14489e-11
1.02526e-10 -6.64444e-11 2.55271e-11
-5.47398e-11 -1.08589e-10 3.70879e-11
8.38432e-11 1.86004e-10 -1.31189e-10
-3.71986e-10 -9.64595e-10 5.75086e-10
-2.29751e-11 -6.21717e-11 -1.08485e-10
-5.46377e-11 -1.76851e-11 3.67186e-11
4.65912e-10 -1.66024e-10 1.51025e-10
9.03445e-11 6.99922e-12 -1.18267e-11
9.71905e-11 -1.26107e-11 5.39879e-13
9.91682e-11 -2.06503e-11 2.34452e-11
1.06417e-09 5.79662e-10 4.6427e-10
5.46544e-12 -7.0768e-13 8.81597e-12
-5.04822e-11 -1.08192e-10 1.4179e-10
-7.62447e-11 2.33587e-11 -6.35971e-12
2.27666e-11 2.19755e-10 -1.66142e-10
-7.38991e-11 5.54107e-11 -2.08163e-11
5.41847e-11 -2.74184e-11 1.06199e-11
-2.11041e-11 4.80552e-12 3.2531e-12
-1.409e-11 -1.40863e-10 5.07455e-11
1.02629e-10 -1.40207e-10 -7.91852e-12
1.55157e-09 -9.28924e-10 5.27257e-10