# vtk DataFile Version 3.0
LIGGGHTS particles timestep 17600000
ASCII
DATASET POLYDATA
POINTS 287 float
0.115381 0.0161874 0.0082042
0.115969 0.0178151 0.00713311
0.1093 0.0160997 0.00808014
0.1157 0.0173815 0.00718517
0.115242 0.0160161 0.00835152
0.12141 0.0164825 0.00763349
0.115435 0.0166716 0.00776606
0.115137 0.0156604 0.00867246
0.121663 0.0176468 0.00717105
0.115372 0.0164529 0.00796141
0.115922 0.0176173 0.00710631
0.109473 0.0168181 0.00758959
0.115221 0.0159435 0.00841696
0.109218 0.0157605 0.00824528
0.115584 0.0169154 0.00754653
0.109202 0.0157186 0.00833452
0.11535 0.016382 0.00802852
0.121545 0.0170742 0.00730566
0.1152 0.015871 0.00848239
0.115359 0.0161149 0.00826963
0.115471 0.0168164 0.00763316
0.109607 0.0170226 0.0074885
0.121603 0.0173607 0.00723835
0.115415 0.0165964 0.00782897
0.121487 0.0168019 0.00741157
0.109699 0.0175655 0.00737664
0.11568 0.0172981 0.00724034
0.115181 0.0158221 0.00856755
0.115641 0.0171373 0.00735264
0.115453 0.0167455 0.00770123
0.115566 0.0168424 0.00761246
0.121428 0.0165479 0.00756008
0.115328 0.0163061 0.0080898
0.115547 0.0167696 0.00767843
0.121706 0.0178369 0.0071262
0.11551 0.0166238 0.00781048
0.115728 0.0171011 0.00738613
0.121622 0.0174562 0.00721591
0.115285 0.0161611 0.00822066
0.11549 0.016887 0.0075648
0.115747 0.0171748 0.00732133
0.121448 0.0166326 0.00751056
0.121525 0.0169787 0.0073281
0.115307 0.0162336 0.00815523
0.115527 0.0170346 0.007435
0.121506 0.0168866 0.00736202
0.115584 0.0172761 0.00726772
0.115565 0.0171912 0.00731667
0.109453 0.0167315 0.00763562
0.121564 0.0171697 0.00728323
0.115338 0.0160424 0.00833507
0.10926 0.0159304 0.00815174
0.115529 0.0166967 0.00774442
0.121467 0.0167173 0.00746105
0.115653 0.01681 0.00764968
0.115671 0.0168832 0.00758391
0.115264 0.0160886 0.00828609
0.115767 0.0172545 0.00726331
0.115653 0.0174376 0.0072531
0.121583 0.0172652 0.00726079
0.109746 0.0178887 0.00725787
0.1098 0.0177305 0.00730869
0.115914 0.0175182 0.00709602
0.115801 0.017419 0.00715482
0.115446 0.0164048 0.0080081
0.121641 0.0175517 0.00719348
0.109239 0.0158394 0.00818735
0.115786 0.0173364 0.00720918
0.115393 0.0165234 0.00789376
0.115603 0.0169881 0.00748045
0.109755 0.0176636 0.00724899
0.115821 0.0179501 0.00713515
0.109315 0.0161464 0.00799308
0.109779 0.0176389 0.00734293
0.115623 0.0174383 0.0071578
0.109581 0.0172905 0.00750029
0.109532 0.017087 0.00747109
0.109642 0.0167869 0.00760053
0.121684 0.0177418 0.00714862
0.10943 0.016259 0.00792845
0.11566 0.0172166 0.00729452
0.115635 0.0167372 0.00771568
0.115664 0.0176303 0.00712578
0.115642 0.0175328 0.00713146
0.116019 0.0176408 0.00711483
0.109493 0.0169051 0.00754431
0.115828 0.0175951 0.00713172
0.115704 0.0178223 0.00711179
0.115895 0.0178829 0.00713417
0.11573 0.0175564 0.00718745
0.115853 0.0176891 0.00710827
0.109415 0.0165603 0.00773084
0.115684 0.017725 0.00710033
0.109821 0.017822 0.00727444
0.115867 0.0172667 0.00725232
0.109562 0.0170683 0.00756478
0.0643568 0.0187248 0.00531097
0.24257 0.0191927 0.00520306
0.109766 0.0173246 0.00736911
0.109375 0.0163947 0.00783582
0.109861 0.0173516 0.00735242
0.109335 0.0162291 0.0079407
0.115489 0.0165499 0.00787719
0.115546 0.0171113 0.00737376
0.115937 0.0180754 0.00716887
0.115796 0.0181421 0.00724459
0.109434 0.0166432 0.00767832
0.110053 0.0181766 0.00704401
0.109991 0.0177845 0.00727538
0.115622 0.0170609 0.00741457
0.115467 0.0164774 0.00794261
0.115316 0.0159698 0.0084005
0.10928 0.0160566 0.00816821
0.11569 0.0169557 0.00751771
0.115159 0.0157329 0.00860703
0.115116 0.0155879 0.0087379
0.115863 0.0181427 0.00716986
0.10947 0.0164246 0.00782354
0.115727 0.0175626 0.00708768
0.115295 0.0158973 0.00846594
0.115507 0.0169599 0.00749867
0.109395 0.0164775 0.00778337
0.115604 0.0173543 0.00720857
0.115732 0.0177015 0.00718478
0.109628 0.0171143 0.00745428
0.109842 0.0179136 0.00724022
0.115717 0.0174668 0.00712893
0.115555 0.0164464 0.00797859
0.115709 0.0170322 0.00745612
0.115274 0.0158248 0.00853146
0.10941 0.016176 0.00798102
0.115767 0.0181124 0.00715376
0.115424 0.0163323 0.00807348
0.115916 0.0179792 0.00715152
0.10945 0.0163418 0.00787601
0.109723 0.0171415 0.00743754
0.109355 0.0163119 0.00788826
0.109872 0.0177825 0.00719794
0.109757 0.0168992 0.00753609
0.109389 0.0160925 0.00803382
0.109595 0.0173616 0.00736844
0.115746 0.0180162 0.00713585
0.109548 0.0167561 0.00761342
0.110041 0.0177443 0.00719909
0.109509 0.0165904 0.00771851
0.109691 0.0173889 0.00735163
0.109776 0.0177552 0.00721474
0.10967 0.0172974 0.00738585
0.0219312 0.0187687 0.00551176
0.109787 0.0174161 0.00733489
0.115806 0.0175027 0.00710035
0.10968 0.0177278 0.00723157
0.109712 0.0174805 0.00731742
0.109862 0.0181226 0.00707732
0.109967 0.0178093 0.00718133
0.115512 0.0163014 0.00810946
0.109529 0.0166732 0.00766602
0.109883 0.0174431 0.0073182
0.110031 0.0180841 0.0070786
0.109925 0.0176262 0.00724977
0.115534 0.0163739 0.00804407
0.110084 0.0179274 0.00713066
0.115874 0.017786 0.00712064
0.109829 0.0175992 0.00726645
0.103621 0.0174204 0.00712612
0.109649 0.0172059 0.00742007
0.109723 0.0179109 0.00716314
0.110074 0.0182682 0.00700976
0.11001 0.0179925 0.00711288
0.109638 0.0175447 0.0073
0.115402 0.0162599 0.00813876
0.109904 0.0175347 0.00728399
0.115829 0.0177351 0.00719383
0.109574 0.0172701 0.00740266
0.109617 0.0174532 0.00733422
0.115845 0.0171904 0.0073131
0.1158 0.0178534 0.00712044
0.115885 0.017348 0.00719698
0.103778 0.0177351 0.00704383
0.115788 0.0182087 0.00717054
0.109819 0.0171685 0.00742085
0.115616 0.0166644 0.00778165
0.109662 0.0168697 0.00754812
0.110105 0.0180189 0.00709643
0.109185 0.0156918 0.0084294
0.103681 0.017705 0.00705319
0.109657 0.0173783 0.00744512
0.109734 0.017572 0.0072832
0.109512 0.0169951 0.00750531
0.110001 0.0183335 0.00699188
0.10984 0.0172601 0.00738664
0.1159 0.017433 0.00714658
0.109587 0.0169317 0.00752507
0.109819 0.0179384 0.00714624
0.109851 0.0176908 0.0072322
0.10949 0.0165075 0.00777101
0.109808 0.0175077 0.00730067
0.109567 0.0168396 0.00756044
0.115631 0.0173556 0.00730603
0.115779 0.0177562 0.00711004
0.109946 0.0177178 0.00721556
0.115827 0.0171175 0.00737919
0.115757 0.0176573 0.00709877
0.103736 0.0175442 0.00708726
0.109701 0.0178193 0.00719735
0.115577 0.0165189 0.00791319
0.109783 0.0180714 0.00719048
0.115725 0.0179193 0.00712349
0.109659 0.0176363 0.00726578
0.103658 0.0172112 0.00728398
0.115597 0.0165916 0.00784756
0.109745 0.017233 0.00740332
0.109553 0.0171785 0.00743687
0.115809 0.018305 0.00718789
0.110062 0.0178358 0.00716488
0.1038 0.0178304 0.00702215
0.103641 0.0175143 0.00709771
0.109718 0.017797 0.00729338
0.109948 0.0184903 0.00693983
0.103603 0.0173412 0.00718433
0.109623 0.0167038 0.00765323
0.109702 0.0170499 0.00747176
0.115842 0.0180464 0.00715251
0.10991 0.0187447 0.00685186
0.110067 0.0186254 0.00688287
0.109985 0.0186805 0.00686928
0.103428 0.0166298 0.00770698
0.103486 0.016867 0.00753272
0.103409 0.0165507 0.00776508
0.109682 0.0169582 0.00750611
0.109624 0.0174731 0.00743193
0.103447 0.0167088 0.00764889
0.103563 0.0171832 0.00730037
0.10984 0.01803 0.00711202
0.109958 0.0181497 0.00706061
0.103703 0.0178002 0.00703152
0.109797 0.0178468 0.0071805
0.11599 0.0179115 0.00715041
0.103746 0.0179906 0.00698817
0.103716 0.0174488 0.00710939
0.103544 0.0171042 0.00735846
0.109279 0.0160019 0.00808452
0.109893 0.0178741 0.0071637
0.109786 0.0181855 0.00706049
0.109825 0.0182556 0.00712244
0.103768 0.0180857 0.0069665
0.109959 0.0180326 0.00718916
0.109971 0.0185872 0.0069036
0.110043 0.0185209 0.00692188
0.103525 0.0170251 0.00741654
0.109807 0.018277 0.00702627
0.103661 0.0176095 0.00707489
0.11002 0.0176527 0.00723331
0.109906 0.0183068 0.00700843
0.109701 0.0177042 0.00732657
0.109765 0.018094 0.00709471
0.115948 0.0177184 0.00711748
0.109989 0.0179009 0.00714712
0.103811 0.0182761 0.00692316
0.10985 0.0184601 0.00695784
0.10379 0.0181809 0.00694483
0.109883 0.0182142 0.00704309
0.109744 0.0180024 0.00712892
0.109871 0.0185517 0.00692363
0.109936 0.0180575 0.00709512
0.103583 0.0172623 0.00724229
0.103756 0.0176399 0.00706551
0.109999 0.0175612 0.00726753
0.103678 0.0172902 0.00722601
0.103467 0.0167879 0.00759081
0.109928 0.0185948 0.00699362
0.109927 0.0183987 0.00697405
0.109829 0.0183686 0.00699206
0.109979 0.0182415 0.00702631
0.109863 0.0184415 0.00705526
0.109777 0.0169854 0.00748929
0.109798 0.017077 0.00745507
0.110025 0.0184281 0.00695637
0.109604 0.0166209 0.00770584
0.109914 0.0179656 0.00712948
0.109916 0.0187223 0.00694916
0.103821 0.0179256 0.00700048
0.109892 0.0186467 0.00688819
0.115807 0.0170466 0.00744686
0.103505 0.016946 0.00747463
0.103725 0.0178954 0.00700985
0.115905 0.0176667 0.00719151

VERTICES 287 574
1 0
1 1
1 2
1 3
1 4
1 5
1 6
1 7
1 8
1 9
1 10
1 11
1 12
1 13
1 14
1 15
1 16
1 17
1 18
1 19
1 20
1 21
1 22
1 23
1 24
1 25
1 26
1 27
1 28
1 29
1 30
1 31
1 32
1 33
1 34
1 35
1 36
1 37
1 38
1 39
1 40
1 41
1 42
1 43
1 44
1 45
1 46
1 47
1 48
1 49
1 50
1 51
1 52
1 53
1 54
1 55
1 56
1 57
1 58
1 59
1 60
1 61
1 62
1 63
1 64
1 65
1 66
1 67
1 68
1 69
1 70
1 71
1 72
1 73
1 74
1 75
1 76
1 77
1 78
1 79
1 80
1 81
1 82
1 83
1 84
1 85
1 86
1 87
1 88
1 89
1 90
1 91
1 92
1 93
1 94
1 95
1 96
1 97
1 98
1 99
1 100
1 101
1 102
1 103
1 104
1 105
1 106
1 107
1 108
1 109
1 110
1 111
1 112
1 113
1 114
1 115
1 116
1 117
1 118
1 119
1 120
1 121
1 122
1 123
1 124
1 125
1 126
1 127
1 128
1 129
1 130
1 131
1 132
1 133
1 134
1 135
1 136
1 137
1 138
1 139
1 140
1 141
1 142
1 143
1 144
1 145
1 146
1 147
1 148
1 149
1 150
1 151
1 152
1 153
1 154
1 155
1 156
1 157
1 158
1 159
1 160
1 161
1 162
1 163
1 164
1 165
1 166
1 167
1 168
1 169
1 170
1 171
1 172
1 173
1 174
1 175
1 176
1 177
1 178
1 179
1 180
1 181
1 182
1 183
1 184
1 185
1 186
1 187
1 188
1 189
1 190
1 191
1 192
1 193
1 194
1 195
1 196
1 197
1 198
1 199
1 200
1 201
1 202
1 203
1 204
1 205
1 206
1 207
1 208
1 209
1 210
1 211
1 212
1 213
1 214
1 215
1 216
1 217
1 218
1 219
1 220
1 221
1 222
1 223
1 224
1 225
1 226
1 227
1 228
1 229
1 230
1 231
1 232
1 233
1 234
1 235
1 236
1 237
1 238
1 239
1 240
1 241
1 242
1 243
1 244
1 245
1 246
1 247
1 248
1 249
1 250
1 251
1 252
1 253
1 254
1 255
1 256
1 257
1 258
1 259
1 260
1 261
1 262
1 263
1 264
1 265
1 266
1 267
1 268
1 269
1 270
1 271
1 272
1 273
1 274
1 275
1 276
1 277
1 278
1 279
1 280
1 281
1 282
1 283
1 284
1 285
1 286

POINT_DATA 287
SCALARS id int 1
LOOKUP_TABLE default
1
2
3
4
5
6
7
8
9
10
11
12
13
14
15
16
17
18
19
21
22
23
24
25
26
27
28
29
30
31
32
33
34
35
36
37
38
39
41
42
44
45
46
47
48
49
50
51
52
53
54
55
56
57
59
60
61
62
63
64
65
66
67
68
69
70
71
72
73
74
76
77
78
79
80
81
82
83
84
85
86
87
88
89
90
91
92
93
94
95
96
97
98
99
100
101
102
103
104
105
106
107
108
109
110
111
112
113
114
115
116
117
118
119
120
121
122
123
124
125
126
127
128
129
130
131
132
133
134
135
136
137
138
140
141
142
143
144
146
147
148
149
150
151
153
154
155
156
157
158
159
160
162
164
165
166
167
168
169
170
171
172
173
174
175
176
177
178
179
181
182
183
184
185
186
187
188
189
190
191
192
193
194
195
196
197
198
199
200
201
202
203
204
205
206
207
208
209
210
211
212
213
214
215
216
217
218
219
220
221
222
223
224
225
226
227
228
229
230
231
232
233
234
235
236
237
239
240
241
242
243
244
246
247
248
249
250
251
252
253
254
255
256
257
258
259
260
261
262
263
264
265
266
267
268
269
270
271
272
273
274
275
276
277
278
279
280
281
282
283
284
285
286
287
288
289
290
291
292
293
294
295
296
297
298
299
300

SCALARS type int 1
LOOKUP_TABLE default
1
1
1
1
1
1
1
1
1
1
1
1
1
1
1
1
1
1
1
1
1
1
1
1
1
1
1
1
1
1
1
1
1
1
1
1
1
1
1
1
1
1
1
1
1
1
1
1
1
1
1
1
1
1
1
1
1
1
1
1
1
1
1
1
1
1
1
1
1
1
1
1
1
1
1
1
1
1
1
1
1
1
1
1
1
1
1
1
1
1
1
1
1
1
1
1
1
1
1
1
1
1
1
1
1
1
1
1
1
1
1
1
1
1
1
1
1
1
1
1
1
1
1
1
1
1
1
1
1
1
1
1
1
1
1
1
1
1
1
1
1
1
1
1
1
1
1
1
1
1
1
1
1
1
1
1
1
1
1
1
1
1
1
1
1
1
1
1
1
1
1
1
1
1
1
1
1
1
1
1
1
1
1
1
1
1
1
1
1
1
1
1
1
1
1
1
1
1
1
1
1
1
1
1
1
1
1
1
1
1
1
1
1
1
1
1
1
1
1
1
1
1
1
1
1
1
1
1
1
1
1
1
1
1
1
1
1
1
1
1
1
1
1
1
1
1
1
1
1
1
1
1
1
1
1
1
1
1
1
1
1
1
1
1
1
1
1
1
1
1
1
1
1
1
1
1
1
1
1
1
1
1
1
1
1
1
1

SCALARS radius float 1
LOOKUP_TABLE default
5e-05
5e-05
5e-05
5e-05
5e-05
5e-05
5e-05
5e-05
5e-05
5e-05
5e-05
5e-05
5e-05
5e-05
5e-05
5e-05
5e-05
5e-05
5e-05
5e-05
5e-05
5e-05
5e-05
5e-05
5e-05
5e-05
5e-05
5e-05
5e-05
5e-05
5e-05
5e-05
5e-05
5e-05
5e-05
5e-05
5e-05
5e-05
5e-05
5e-05
5e-05
5e-05
5e-05
5e-05
5e-05
5e-05
5e-05
5e-05
5e-05
5e-05
5e-05
5e-05
5e-05
5e-05
5e-05
5e-05
5e-05
5e-05
5e-05
5e-05
5e-05
5e-05
5e-05
5e-05
5e-05
5e-05
5e-05
5e-05
5e-05
5e-05
5e-05
5e-05
5e-05
5e-05
5e-05
5e-05
5e-05
5e-05
5e-05
5e-05
5e-05
5e-05
5e-05
5e-05
5e-05
5e-05
5e-05
5e-05
5e-05
5e-05
5e-05
5e-05
5e-05
5e-05
5e-05
5e-05
5e-05
5e-05
5e-05
5e-05
5e-05
5e-05
5e-05
5e-05
5e-05
5e-05
5e-05
5e-05
5e-05
5e-05
5e-05
5e-05
5e-05
5e-05
5e-05
5e-05
5e-05
5e-05
5e-05
5e-05
5e-05
5e-05
5e-05
5e-05
5e-05
5e-05
5e-05
5e-05
5e-05
5e-05
5e-05
5e-05
5e-05
5e-05
5e-05
5e-05
5e-05
5e-05
5e-05
5e-05
5e-05
5e-05
5e-05
5e-05
5e-05
5e-05
5e-05
5e-05
5e-05
5e-05
5e-05
5e-05
5e-05
5e-05
5e-05
5e-05
5e-05
5e-05
5e-05
5e-05
5e-05
5e-05
5e-05
5e-05
5e-05
5e-05
5e-05
5e-05
5e-05
5e-05
5e-05
5e-05
5e-05
5e-05
5e-05
5e-05
5e-05
5e-05
5e-05
5e-05
5e-05
5e-05
5e-05
5e-05
5e-05
5e-05
5e-05
5e-05
5e-05
5e-05
5e-05
5e-05
5e-05
5e-05
5e-05
5e-05
5e-05
5e-05
5e-05
5e-05
5e-05
5e-05
5e-05
5e-05
5e-05
5e-05
5e-05
5e-05
5e-05
5e-05
5e-05
5e-05
5e-05
5e-05
5e-05
5e-05
5e-05
5e-05
5e-05
5e-05
5e-05
5e-05
5e-05
5e-05
5e-05
5e-05
5e-05
5e-05
5e-05
5e-05
5e-05
5e-05
5e-05
5e-05
5e-05
5e-05
5e-05
5e-05
5e-05
5e-05
5e-05
5e-05
5e-05
5e-05
5e-05
5e-05
5e-05
5e-05
5e-05
5e-05
5e-05
5e-05
5e-05
5e-05
5e-05
5e-05
5e-05
5e-05
5e-05
5e-05
5e-05
5e-05
5e-05
5e-05
5e-05
5e-05
5e-05
5e-05
5e-05
5e-05
5e-05
5e-05
5e-05
5e-05
5e-05
5e-05
5e-05
5e-05
5e-05
5e-05
5e-05
5e-05
5e-05
5e-05
5e-05
5e-05
5e-05

SCALARS mass float 1
LOOKUP_TABLE default
1.46608e-10
1.46608e-10
1.46608e-10
1.46608e-10
1.46608e-10
1.46608e-10
1.46608e-10
1.46608e-10
1.46608e-10
1.46608e-10
1.46608e-10
1.46608e-10
1.46608e-10
1.46608e-10
1.46608e-10
1.46608e-10
1.46608e-10
1.46608e-10
1.46608e-10
1.46608e-10
1.46608e-10
1.46608e-10
1.46608e-10
1.46608e-10
1.46608e-10
1.46608e-10
1.46608e-10
1.46608e-10
1.46608e-10
1.46608e-10
1.46608e-10
1.46608e-10
1.46608e-10
1.46608e-10
1.46608e-10
1.46608e-10
1.46608e-10
1.46608e-10
1.46608e-10
1.46608e-10
1.46608e-10
1.46608e-10
1.46608e-10
1.46608e-10
1.46608e-10
1.46608e-10
1.46608e-10
1.46608e-10
1.46608e-10
1.46608e-10
1.46608e-10
1.46608e-10
1.46608e-10
1.46608e-10
1.46608e-10
1.46608e-10
1.46608e-10
1.46608e-10
1.46608e-10
1.46608e-10
1.46608e-10
1.46608e-10
1.46608e-10
1.46608e-10
1.46608e-10
1.46608e-10
1.46608e-10
1.46608e-10
1.46608e-10
1.46608e-10
1.46608e-10
1.46608e-10
1.46608e-10
1.46608e-10
1.46608e-10
1.46608e-10
1.46608e-10
1.46608e-10
1.46608e-10
1.46608e-10
1.46608e-10
1.46608e-10
1.46608e-10
1.46608e-10
1.46608e-10
1.46608e-10
1.46608e-10
1.46608e-10
1.46608e-10
1.46608e-10
1.46608e-10
1.46608e-10
1.46608e-10
1.46608e-10
1.46608e-10
1.46608e-10
1.46608e-10
1.46608e-10
1.46608e-10
1.46608e-10
1.46608e-10
1.46608e-10
1.46608e-10
1.46608e-10
1.46608e-10
1.46608e-10
1.46608e-10
1.46608e-10
1.46608e-10
1.46608e-10
1.46608e-10
1.46608e-10
1.46608e-10
1.46608e-10
1.46608e-10
1.46608e-10
1.46608e-10
1.46608e-10
1.46608e-10
1.46608e-10
1.46608e-10
1.46608e-10
1.46608e-10
1.46608e-10
1.46608e-10
1.46608e-10
1.46608e-10
1.46608e-10
1.46608e-10
1.46608e-10
1.46608e-10
1.46608e-10
1.46608e-10
1.46608e-10
1.46608e-10
1.46608e-10
1.46608e-10
1.46608e-10
1.46608e-10
1.46608e-10
1.46608e-10
1.46608e-10
1.46608e-10
1.46608e-10
1.46608e-10
1.46608e-10
1.46608e-10
1.46608e-10
1.46608e-10
1.46608e-10
1.46608e-10
1.46608e-10
1.46608e-10
1.46608e-10
1.46608e-10
1.46608e-10
1.46608e-10
1.46608e-10
1.46608e-10
1.46608e-10
1.46608e-10
1.46608e-10
1.46608e-10
1.46608e-10
1.46608e-10
1.46608e-10
1.46608e-10
1.46608e-10
1.46608e-10
1.46608e-10
1.46608e-10
1.46608e-10
1.46608e-10
1.46608e-10
1.46608e-10
1.46608e-10
1.46608e-10
1.46608e-10
1.46608e-10
1.46608e-10
1.46608e-10
1.46608e-10
1.46608e-10
1.46608e-10
1.46608e-10
1.46608e-10
1.46608e-10
1.46608e-10
1.46608e-10
1.46608e-10
1.46608e-10
1.46608e-10
1.46608e-10
1.46608e-10
1.46608e-10
1.46608e-10
1.46608e-10
1.46608e-10
1.46608e-10
1.46608e-10
1.46608e-10
1.46608e-10
1.46608e-10
1.46608e-10
1.46608e-10
1.46608e-10
1.46608e-10
1.46608e-10
1.46608e-10
1.46608e-10
1.46608e-10
1.46608e-10
1.46608e-10
1.46608e-10
1.46608e-10
1.46608e-10
1.46608e-10
1.46608e-10
1.46608e-10
1.46608e-10
1.46608e-10
1.46608e-10
1.46608e-10
1.46608e-10
1.46608e-10
1.46608e-10
1.46608e-10
1.46608e-10
1.46608e-10
1.46608e-10
1.46608e-10
1.46608e-10
1.46608e-10
1.46608e-10
1.46608e-10
1.46608e-10
1.46608e-10
1.46608e-10
1.46608e-10
1.46608e-10
1.46608e-10
1.46608e-10
1.46608e-10
1.46608e-10
1.46608e-10
1.46608e-10
1.46608e-10
1.46608e-10
1.46608e-10
1.46608e-10
1.46608e-10
1.46608e-10
1.46608e-10
1.46608e-10
1.46608e-10
1.46608e-10
1.46608e-10
1.46608e-10
1.46608e-10
1.46608e-10
1.46608e-10
1.46608e-10
1.46608e-10
1.46608e-10
1.46608e-10
1.46608e-10
1.46608e-10
1.46608e-10
1.46608e-10
1.46608e-10
1.46608e-10
1.46608e-10
1.46608e-10
1.46608e-10
1.46608e-10
1.46608e-10
1.46608e-10
1.46608e-10
1.46608e-10
1.46608e-10
1.46608e-10
1.46608e-10
1.46608e-10
1.46608e-10
1.46608e-10
1.46608e-10
1.46608e-10

VECTORS velocity float
0.00569183 -0.000213757 0.00067146
0.00585431 -0.000642014 0.000637605
0.00594528 0.000805836 -6.60222e-05
0.00543624 -0.000674119 0.000105225
0.00572599 -0.000243719 0.000701249
0.00568578 -0.000226122 -0.000118986
0.00502816 -0.000193095 0.00058457
0.00582747 -0.000286223 0.000749678
0.00601316 -0.000133247 -0.000228894
0.00531147 -0.000202999 0.000631973
0.00583922 -0.000776 0.000261544
0.00566347 0.000841816 -0.000262464
0.00574644 -0.00025591 0.000715518
0.00591474 -0.000173298 -0.00154501
0.00531993 -0.000260521 0.000682007
0.00592898 -0.000156454 -0.00156988
0.00550812 -0.000219203 0.000661467
0.00565029 -6.45354e-05 -0.000228289
0.00576786 -0.000268302 0.000729838
0.00570692 -0.000218382 0.000676826
0.00518439 -0.000216328 0.000636757
0.00557741 0.000653766 -0.000658474
0.00561548 -4.80856e-05 -0.000230868
0.00503434 -0.000185217 0.000584363
0.00564969 5.91231e-05 0.000122496
0.00604936 0.000568007 -0.000641216
0.00545795 -0.000629114 6.98517e-05
0.00576921 -0.000269291 0.000733797
0.0054074 -0.000355409 0.000680575
0.00508529 -0.000200851 0.000606311
0.00523582 -0.000262624 0.000680109
0.00560585 6.29847e-05 0.000118995
0.00563747 -0.000228627 0.000679573
0.00512517 -0.000261234 0.000670757
0.00604872 -0.000137844 -0.000229423
0.00498581 -0.000221439 0.000622412
0.00540412 -0.000300371 0.000729894
0.00559577 -4.17925e-05 -0.000231302
0.00569446 -0.000228585 0.000685467
0.00531888 -0.000240213 0.000664517
0.00547576 -0.000357549 0.000676119
0.00561519 6.1501e-05 0.000120254
0.00565504 -6.7194e-05 -0.000226563
0.00567855 -0.000225412 0.00068078
0.00539625 -0.000318013 0.00060163
0.00565775 5.93426e-05 0.000122801
0.00547633 -0.000671663 9.74438e-05
0.00546698 -0.000605593 0.000217496
0.00564075 0.000831978 -0.000203346
0.00565385 -6.21298e-05 -0.000230061
0.00571846 -0.000226832 0.000685861
0.00593203 0.000820855 -6.93291e-05
0.00501249 -0.000255433 0.0006557
0.005632 6.02141e-05 0.000121805
0.00519292 -0.000282595 0.000695552
0.00528621 -0.000294142 0.000717439
0.00571075 -0.000235551 0.00069297
0.00534126 -0.000779114 0.000187152
0.00550404 -0.000665911 0.000142128
0.00563416 -5.47303e-05 -0.000230561
0.00616237 0.000535659 -0.000635475
0.00609718 0.000544131 -0.000636357
0.00560211 -0.000762852 0.000303228
0.00543473 -0.000790136 0.000186218
0.00542133 -0.000108857 0.00054968
0.00557107 -3.4891e-05 -0.000232024
0.00594032 0.000833462 -0.000102193
0.0053737 -0.000782885 0.000188049
0.00512375 -0.000189671 0.000601941
0.00538008 -0.000262279 0.000689064
0.00609776 0.00051864 -0.000634803
0.00589331 -0.000639138 0.000641868
0.00597741 0.0008255 -7.58163e-05
0.00609502 0.000554702 -0.000632335
0.00544682 -0.000615926 0.000151861
0.00596482 0.000608738 -0.000666067
0.00567327 0.000681639 -0.000654837
0.00565061 0.00079963 -8.88172e-05
0.00603027 -0.000135936 -0.000228798
0.00567449 0.000829863 -0.000107915
0.00549902 -0.000548256 0.000296778
0.00509499 -0.000270548 0.000673091
0.00568471 -0.000557829 0.000272954
0.00550828 -0.000583712 0.000278948
0.00588733 -0.000930355 0.000310439
0.0056696 0.000713371 -0.000539425
0.0057508 -0.000845899 0.000164467
0.00596948 -0.000613691 0.000456243
0.00585984 -0.000686428 0.000635126
0.00556566 -0.000719911 0.000314146
0.00593469 -0.000672672 0.00032951
0.00560075 0.000877329 -0.000144659
0.00588864 -0.000588027 0.000350226
0.00614921 0.000516752 -0.000637597
0.00566346 -0.000477818 0.000779722
0.00565314 0.000646244 -0.000630813
4.43416e-15 1.04338e-14 8.29595e-14
-5.71162e-23 -6.56601e-22 8.29106e-22
0.00603147 0.000543896 -0.000639124
0.00573125 0.000853287 -0.000118924
0.00602695 0.00049379 -0.000618415
0.0056426 0.000863859 -0.000130937
0.00506277 -0.000153647 0.000561292
0.00541757 -0.000465148 0.000412388
0.00577014 -0.000653974 0.000625709
0.0057945 -0.000604846 0.00064662
0.00561805 0.000874759 -0.000141205
0.0062367 0.000413735 -0.0006071
0.00613595 0.000478049 -0.000620937
0.00542396 -0.000248448 0.000680264
0.00526428 -7.89559e-05 0.000511778
0.00571775 -0.000234984 0.00069334
0.00593338 0.000783934 -5.8349e-05
0.00536023 -0.000302783 0.000725871
0.00580521 -0.000279405 0.0007427
0.00584691 -0.000292773 0.000757422
0.00578073 -0.000646006 0.000627977
0.00558654 0.000893115 -0.00015583
0.00557188 -0.000678977 0.000315765
0.00571325 -0.000235062 0.000692876
0.00540482 -0.000250531 0.000686716
0.00558451 0.000876902 -0.000145178
0.00544302 -0.000660145 9.39831e-05
0.00586546 -0.000706208 0.000337464
0.00589767 0.000578503 -0.0006382
0.00616368 0.000513138 -0.000634473
0.00541725 -0.000667872 0.000100156
0.00513748 -0.000281458 0.000688036
0.00539442 -0.000307775 0.000724856
0.00574671 -0.000239229 0.000700371
0.00595103 0.00100207 -0.0001958
0.00585612 -0.000628992 0.000636457
0.00558232 -0.000147705 0.00059862
0.0058131 -0.000668056 0.00062747
0.00571934 0.000845574 -0.000114897
0.00596202 0.000553557 -0.000636619
0.00569492 0.000855729 -0.000123212
0.00614413 0.000508338 -0.000633669
0.00571721 0.000697038 -3.49349e-06
0.00598454 0.000800406 -6.45874e-05
0.00601968 0.000603873 -0.000659938
0.00589377 -0.000631519 0.00064325
0.00563549 0.000853999 -0.000142202
0.0061265 0.00046254 -0.000617277
0.0055671 0.000886793 -0.000155319
0.00603641 0.00056298 -0.000646677
0.0061203 0.000522557 -0.000638953
0.00600894 0.000573875 -0.000649258
-3.8357e-14 8.16594e-14 2.95887e-13
0.00604325 0.000514111 -0.000627949
0.00550685 -0.000793985 0.000181677
0.00611877 0.000534749 -0.00064053
0.006061 0.000539951 -0.000638721
0.00624341 0.000496844 -0.000637228
0.00614218 0.000475564 -0.000622459
0.00544978 -0.00032046 0.000750204
0.00559129 0.000870822 -0.000146592
0.0060554 0.000488913 -0.000622252
0.0062029 0.000439978 -0.000614207
0.00607167 0.000492963 -0.000620718
0.00528694 -0.000301466 0.000719081
0.00617454 0.000429649 -0.000607264
0.0058813 -0.000679754 0.000504854
0.00607926 0.00050149 -0.000625217
0.00582318 0.000669218 -0.000219588
0.00597615 0.000578677 -0.000645047
0.00616824 0.000521087 -0.00064002
0.00628743 0.000435002 -0.000618207
0.0061892 0.000444915 -0.000614832
0.0060614 0.000542103 -0.000640496
0.00569837 -0.00016176 0.000624361
0.00606552 0.000489751 -0.00062042
0.00586983 -0.000842584 0.000397265
0.00598768 0.000608603 -0.000661538
0.00604895 0.000599951 -0.000657767
0.00550249 -0.000394671 0.000831768
0.00591539 -0.000621159 0.000339014
0.00546978 -0.000646671 0.000463316
0.00631711 0.000484741 -0.000282775
0.00581406 -0.000619146 0.000635463
0.00595942 0.00050422 -0.000620588
0.00500476 -0.000258861 0.000654754
0.00569732 0.000791112 -7.90525e-05
0.00618985 0.000431729 -0.000609974
0.00639946 -0.00020399 -0.0015206
0.00637681 0.000554351 -0.000300559
0.00601235 0.000581808 -0.00065195
0.00607972 0.000525569 -0.000635008
0.00566828 0.000673621 -0.000666025
0.00633931 0.000483911 -0.000639491
0.00600298 0.000497672 -0.000619196
0.00553817 -0.000735842 0.000330904
0.00560095 0.000314491 -0.00149526
0.00618587 0.000510384 -0.000637986
0.0060917 0.000507313 -0.000628338
0.00557377 0.000894243 -0.000157105
0.00606733 0.000504002 -0.00062631
0.00552751 0.000683922 -2.44047e-05
0.00548072 -0.000681622 0.000106375
0.00595967 -0.000635681 0.000393914
0.00611226 0.000486753 -0.000624164
0.0054296 -0.000390798 0.000817877
0.005776 -0.000731637 0.000325872
0.00612137 0.00045462 -0.000265095
0.00614696 0.000528323 -0.000641104
0.0050235 -0.000263888 0.000661989
0.006222 0.000527178 -0.000645964
0.0059299 -0.000624947 0.000584107
0.0060922 0.000540507 -0.00064152
0.00576513 0.00065844 -0.000216582
0.00497385 -0.00025407 0.000648769
0.00599754 0.000549643 -0.000636989
0.00595717 0.000622624 -0.000662067
0.00578565 -0.000608415 0.00063326
0.00613993 0.000445088 -0.000611201
0.00633793 0.000481945 -0.000282731
0.00596431 0.000634726 -0.000279709
0.00613236 0.000540066 -0.000631771
0.00638077 0.000489644 -0.000644547
0.00580284 0.000671095 -0.000224621
0.00560744 0.000824917 -0.000111836
0.00590321 0.000560533 -0.000644705
0.00582748 -0.000655476 0.000631353
0.00587713 0.000949797 -0.000771757
0.00588078 0.00095656 -0.000774372
0.00588077 0.000955223 -0.000774409
0.00561726 0.000696378 -0.00025366
0.0056811 0.000709605 -0.000261629
0.00555141 0.000690912 -0.000252208
0.00580417 0.000700456 -0.000263808
0.00602209 0.000555185 -0.000643901
0.00563754 0.000708062 -0.000259892
0.0057573 0.000681702 -0.00023745
0.00620233 0.000501293 -0.000635022
0.00623116 0.000463921 -0.000623617
0.00637885 0.000550129 -0.000298851
0.00615651 0.000516978 -0.000637054
0.00584192 -0.000638976 0.000636537
0.00641109 0.000546912 -0.000299256
0.00587078 0.000548995 -0.000130671
0.00574153 0.000694543 -0.000243765
0.00594632 0.00080195 -6.67586e-05
0.0061654 0.000493618 -0.00062984
0.00626346 0.000521285 -0.000648104
0.00627916 0.000515201 -0.000642038
0.00641293 0.000531476 -0.000295714
0.00619224 0.000468121 -0.000622395
0.00591137 0.00109747 -0.000826575
0.00601203 0.00119292 -0.000868693
0.00573124 0.000707797 -0.000252622
0.00629699 0.000511596 -0.000647049
0.00624388 0.000580423 -0.000300558
0.00608907 0.000471348 -0.000617052
0.00630156 0.000478058 -0.000634501
0.00611506 0.000554088 -0.000628625
0.0062229 0.000515818 -0.000644808
0.00595638 -0.000712578 0.000335947
0.00616136 0.000466109 -0.000621004
0.00642839 0.000518394 -0.000293318
0.00635604 0.000492356 -0.000641807
0.00641811 0.000524342 -0.00029416
0.00627367 0.000500714 -0.000640736
0.00620611 0.000523982 -0.000645573
0.00637282 0.000476698 -0.000639073
0.00622072 0.000474797 -0.000627776
0.00578302 0.000677906 -0.000231569
0.00633042 0.000512351 -0.000289527
0.00605174 0.000487089 -0.000619686
0.00578536 0.000651959 -0.00021127
0.0056704 0.00071222 -0.000261111
0.00603536 0.0011348 -0.000770475
0.00635258 0.000489389 -0.000642707
0.00631373 0.000495118 -0.000642029
0.00628362 0.000456645 -0.000625913
0.00632894 0.000506655 -0.000627598
0.00577609 0.000532279 -0.000613032
0.00591835 0.000498777 -0.000613707
0.0063852 0.000504822 -0.000650634
0.00553728 0.000817245 -0.000107593
0.00617741 0.000478596 -0.000625711
0.00588432 0.00095145 -0.000771182
0.00635961 0.000482837 -0.000283536
0.00580934 0.000979129 -0.000777704
0.00542211 -0.000505496 0.000697458
0.00569632 0.000711297 -0.00026026
0.00639185 0.000550762 -0.000299337
0.00562676 -0.000704284 0.000165501

VECTORS force float
-4.27169e-11 7.39601e-11 -7.71086e-11
8.51603e-11 2.9895e-11 -1.70803e-11
8.54545e-11 2.44825e-10 -1.10679e-10
1.0428e-10 2.49171e-10 -3.03018e-10
-1.93608e-11 3.56894e-11 -3.14569e-11
6.58146e-12 -6.36476e-12 2.43593e-11
-3.645e-10 7.61745e-11 -6.25429e-12
7.68366e-11 2.35331e-10 -2.09406e-10
1.28409e-11 1.97166e-11 -2.31354e-12
-3.43357e-10 -1.14731e-10 2.8627e-12
-7.10041e-11 3.09137e-11 -2.54056e-10
2.68499e-11 1.26583e-10 -6.03967e-11
-5.84248e-11 9.89323e-11 -9.34273e-11
-6.71467e-11 2.43845e-10 2.91672e-10
-3.08901e-11 1.09888e-10 -7.61826e-11
-1.0204e-10 -7.71086e-12 -1.33557e-12
-2.24894e-10 -1.59316e-10 1.04047e-10
3.16712e-11 5.62446e-12 1.12384e-11
1.14727e-10 1.33412e-10 -1.23965e-10
-2.84243e-11 6.04387e-11 -5.47112e-11
-2.09009e-10 1.21498e-10 1.05251e-11
-1.9701e-10 8.44699e-11 1.73875e-10
1.4515e-11 2.16895e-12 -4.01943e-12
-3.73988e-10 3.74538e-11 -3.79519e-11
1.99629e-12 1.21029e-11 -7.75725e-12
3.47193e-11 -4.36027e-11 4.11688e-11
3.04184e-11 1.18845e-10 1.88731e-11
-4.05279e-11 1.1867e-10 -1.55872e-10
-1.41176e-10 5.83044e-11 2.71698e-10
-2.34312e-10 1.11506e-10 4.68227e-11
-2.06046e-10 1.11735e-10 -7.19827e-11
-1.17345e-11 -2.40936e-11 1.13646e-11
-9.06296e-11 -1.64425e-10 1.20719e-10
-1.66266e-10 1.76293e-11 -5.49939e-11
7.59148e-13 2.20696e-12 2.52013e-12
-4.24704e-10 -2.30825e-11 5.39644e-11
-5.03194e-11 -2.97116e-11 1.78365e-10
-3.40778e-13 6.74036e-12 -2.46603e-12
1.08925e-11 -2.65425e-11 1.0222e-11
-2.06516e-11 1.25615e-10 -1.75727e-11
4.11617e-11 -5.52392e-12 1.61286e-10
-4.24956e-11 9.66926e-12 -1.25141e-11
1.32162e-11 1.19597e-11 1.41816e-12
-1.16819e-10 -1.01173e-10 8.80513e-11
9.64516e-11 -8.58056e-11 -1.76044e-10
-1.28889e-11 4.43062e-12 1.0685e-11
8.86374e-12 1.7247e-10 2.1994e-10
-7.61155e-11 4.09432e-11 1.08375e-10
-5.39973e-11 2.1463e-10 4.96323e-10
-2.83009e-11 -3.31758e-12 9.00021e-12
-3.92843e-11 5.06924e-11 -4.76986e-11
-3.24022e-11 2.445e-11 4.53644e-11
-1.86184e-10 -4.06073e-11 -1.85979e-12
1.43476e-11 2.15855e-11 -1.47373e-11
-1.97596e-10 -1.08247e-10 9.03448e-11
-1.47973e-10 -1.30737e-10 1.06273e-10
-9.06987e-12 1.63336e-11 -1.00451e-11
-5.33403e-10 3.47171e-11 9.0844e-12
2.83676e-10 1.57704e-10 -2.67266e-10
-6.68821e-12 8.91266e-13 -3.42624e-12
5.91796e-11 -5.16217e-11 1.14461e-10
5.61844e-11 1.87363e-11 -9.08067e-12
-1.35608e-11 3.95313e-11 -3.54022e-11
-2.13968e-10 -4.09193e-12 -3.06796e-11
9.28113e-11 3.2761e-10 -3.06397e-10
-1.24481e-10 4.61253e-11 -4.72877e-12
1.85593e-12 -3.98749e-11 5.55349e-12