# vtk DataFile Version 3.0
LIGGGHTS particles timestep 60800000
ASCII
DATASET POLYDATA
POINTS 269 float
0.367616 0.0178883 0.00697321
0.367365 0.0168288 0.0076778
0.367574 0.0169666 0.00759077
0.367139 0.0159346 0.00827701
0.373402 0.0169288 0.00745391
0.367709 0.0175285 0.00719557
0.36738 0.0165304 0.00788049
0.373596 0.0178117 0.00705704
0.367516 0.0167221 0.00775471
0.367809 0.0179509 0.00697027
0.361806 0.0175305 0.00719645
0.367118 0.0158533 0.00833145
0.362003 0.0183439 0.0069618
0.361849 0.0185363 0.00697276
0.367285 0.0165034 0.00789589
0.36766 0.0180831 0.00695969
0.367748 0.017688 0.00708151
0.367535 0.0168036 0.00770006
0.361947 0.0181527 0.00695425
0.373518 0.0174304 0.00714911
0.373557 0.0176211 0.00710304
0.361409 0.0166331 0.00775568
0.367758 0.0178581 0.00707237
0.367097 0.0157721 0.0083859
0.367243 0.0163409 0.00800478
0.367865 0.0177942 0.00700722
0.247451 0.0181454 0.00545794
0.373421 0.0170099 0.0073986
0.36767 0.0173689 0.00730975
0.373661 0.0180965 0.00698844
0.367555 0.0168851 0.00764541
0.367632 0.0172091 0.00742397
0.373537 0.0175258 0.00712608
0.367181 0.0160971 0.00816812
0.367613 0.0171293 0.00748105
0.367804 0.0175541 0.0071762
0.37344 0.017091 0.00734329
0.367201 0.0161784 0.00811367
0.367558 0.0176365 0.00712063
0.373618 0.0179066 0.00703417
0.357762 0.0169681 0.00820566
0.367886 0.0178867 0.00697543
0.36187 0.0177868 0.0070385
0.373479 0.017253 0.00723271
0.367821 0.0184066 0.00693792
0.361526 0.01713 0.00744085
0.367703 0.0182779 0.00694722
0.373459 0.017172 0.00728799
0.378022 0.019866 0.005332
0.367823 0.0176338 0.00711915
0.36716 0.0160158 0.00822256
0.367651 0.017289 0.00736697
0.367896 0.0183406 0.0069432
0.373498 0.0173408 0.00718895
0.361562 0.0176072 0.00725422
0.361704 0.0178804 0.00697825
0.367768 0.0177677 0.00702465
0.367518 0.0171014 0.00749766
0.367929 0.0180814 0.00696191
0.373576 0.0177165 0.00708002
0.361828 0.0184387 0.00696878
0.367831 0.0180482 0.00696351
0.367593 0.0170481 0.00753612
0.367222 0.0162596 0.00805923
0.361468 0.0168795 0.00759525
0.367385 0.0169103 0.00762316
0.36103 0.0155004 0.00856342
0.361871 0.0186339 0.00697697
0.367479 0.0169384 0.00760697
0.361782 0.01802 0.00695098
0.361828 0.0176153 0.0071442
0.373639 0.0180016 0.00701131
0.36169 0.0182199 0.00701636
0.367784 0.0174742 0.00723328
0.367441 0.0167754 0.00771626
0.367576 0.017343 0.00732936
0.367951 0.0181788 0.00695514
0.367788 0.0178535 0.00697703
0.361647 0.0172474 0.00736971
0.367481 0.0173172 0.00734905
0.367597 0.0177196 0.0071615
0.367735 0.0180171 0.00696497
0.367662 0.0178851 0.00706202
0.367462 0.0172362 0.00740458
0.361111 0.0157677 0.00827936
0.367338 0.0163678 0.00798943
0.361531 0.0175239 0.00720875
0.367728 0.0176083 0.00713852
0.361549 0.0176017 0.00714881
0.0643568 0.0187248 0.00531097
0.230779 0.0182774 0.00551293
0.361818 0.0187988 0.00698565
0.361132 0.015851 0.00822802
0.361566 0.0172968 0.00733799
0.361051 0.015562 0.0084877
0.367875 0.0182432 0.00694996
0.367725 0.0183755 0.0069438
0.367558 0.0175601 0.0072757
0.367346 0.0167473 0.00773245
0.361569 0.0176892 0.00719737
0.361432 0.0171021 0.00745682
0.36149 0.0173523 0.00730257
0.367765 0.0173944 0.00729034
0.367652 0.0176624 0.00710097
0.367689 0.0174487 0.00725266
0.361667 0.0173309 0.00731827
0.367853 0.0181456 0.00695674
0.367497 0.0166406 0.00780937
0.367756 0.0181145 0.00695821
0.367443 0.0171548 0.00745923
0.361733 0.0184085 0.00696895
0.367359 0.0164491 0.00793494
0.367556 0.0172632 0.00738647
0.361091 0.0156908 0.00833994
0.367264 0.0164221 0.00795034
0.367752 0.0179678 0.00705035
0.361606 0.0174636 0.00723516
0.361625 0.0175527 0.007194
0.367746 0.0173146 0.00734742
0.367672 0.0177423 0.00704385
0.367633 0.0175826 0.00715805
0.367908 0.0179841 0.00696867
0.361507 0.0170464 0.00749234
0.367768 0.0185706 0.00693718
0.367519 0.0174769 0.00723497
0.367404 0.0169918 0.00756851
0.36151 0.0166631 0.00772993
0.361882 0.0179638 0.00694691
0.361071 0.0156242 0.00841192
0.361709 0.0175011 0.00721332
0.361235 0.0162674 0.00797141
0.361586 0.0173803 0.00728655
0.361529 0.0167466 0.00767844
0.367305 0.0165846 0.00784147
0.361668 0.0181239 0.00703405
0.36159 0.0177684 0.0070461
0.361549 0.0168301 0.00762697
0.349774 0.0185901 0.00687593
0.361588 0.017773 0.00714595
0.36149 0.0165797 0.00778134
0.0219312 0.0187687 0.00551176
0.361588 0.016997 0.00752406
0.367839 0.017916 0.00705903
0.36157 0.0176851 0.00709746
0.361856 0.0183764 0.00704156
0.361525 0.0174532 0.00734845
0.361654 0.0180502 0.00695435
0.367538 0.0175566 0.00717771
0.361629 0.0179293 0.00705452
0.361769 0.0182442 0.0069611
0.361646 0.0180278 0.00705154
0.361727 0.0181484 0.00695753
0.3678 0.0183092 0.00694468
0.361412 0.0170186 0.00750829
0.367681 0.0181805 0.00695293
0.361193 0.0161009 0.008074
0.361627 0.017164 0.00742112
0.361492 0.0173737 0.00740022
0.36174 0.0179682 0.00702536
0.361728 0.0180223 0.00710866
0.367638 0.0179857 0.00696647
0.36147 0.0172689 0.00735402
0.367713 0.0179197 0.00697173
0.36173 0.0175847 0.00716184
0.361713 0.0183161 0.00700173
0.367691 0.0178231 0.00698603
0.367537 0.0171829 0.00744301
0.367677 0.0180342 0.00704511
0.355707 0.0182881 0.00696326
0.367327 0.0166658 0.0077871
0.361451 0.0171883 0.00740997
0.367746 0.018473 0.00693878
0.361918 0.0183961 0.00696547
0.361821 0.0181124 0.00695445
0.361788 0.0178352 0.00700739
0.355381 0.0168832 0.00757769
0.361848 0.0176988 0.00709276
0.361981 0.0182465 0.00695785
0.36145 0.0164114 0.00788512
0.361861 0.0182043 0.00695789
0.361607 0.0170806 0.00747257
0.367614 0.0175027 0.00721513
0.36194 0.0184937 0.00696944
0.36139 0.0165459 0.00780091
0.36135 0.0163782 0.0079043
0.361878 0.0178718 0.00698596
0.361546 0.0172134 0.0073894
0.367402 0.0166121 0.00782577
0.367421 0.016694 0.00777091
0.361896 0.0182987 0.00696151
0.367596 0.0177963 0.00700686
0.367499 0.0170199 0.00755232
0.355604 0.0178352 0.00707388
0.361173 0.0160176 0.00812533
0.367778 0.0182118 0.00695145
0.36151 0.0174357 0.00725114
0.367578 0.0176397 0.00721855
0.361645 0.0176294 0.00713298
0.367843 0.0177135 0.00706218
0.361429 0.0167125 0.0076982
0.36746 0.0168569 0.00766162
0.361911 0.0180595 0.00695069
0.355625 0.0179216 0.00702811
0.355563 0.0176621 0.00716547
0.361804 0.0183391 0.00696475
0.361315 0.0166011 0.00776569
0.361797 0.0187012 0.00698106
0.361609 0.017852 0.00699451
0.367423 0.0170733 0.00751387
0.361275 0.0164342 0.0078686
0.361373 0.0168516 0.00761126
0.361393 0.0169351 0.00755977
0.355284 0.0164719 0.0078379
0.355341 0.0167098 0.00766936
0.355265 0.016404 0.00790891
0.36147 0.0164952 0.00783344
0.36177 0.0177515 0.00705903
0.355302 0.0165397 0.00776677
0.355481 0.0173161 0.00734864
0.361715 0.0178799 0.00707764
0.35542 0.0170565 0.00748604
0.383352 0.0170296 0.00816374
0.367595 0.0174229 0.00727222
0.355502 0.0174026 0.00730285
0.355687 0.0181921 0.00694458
0.35544 0.0171431 0.00744023
0.361775 0.0186036 0.00697693
0.361754 0.018506 0.00697293
0.361568 0.0169136 0.00757551
0.361758 0.0180817 0.0070259
0.355522 0.0174891 0.00725706
0.36163 0.0179426 0.00695147
0.36183 0.0179034 0.00706738
0.361709 0.0177925 0.00712681
0.3554 0.0169699 0.00753186
0.361582 0.0175262 0.00730939
0.355728 0.0183842 0.00698194
0.361665 0.0177127 0.00708162
0.361687 0.0174143 0.00726687
0.36175 0.017668 0.00711048
0.367597 0.0178043 0.00710654
0.361795 0.0181747 0.00702823
0.355584 0.0177486 0.00711968
0.361371 0.0164625 0.00785238
0.355543 0.0175756 0.00721126
0.361636 0.0174502 0.00734518
0.361214 0.0161842 0.00802265
0.36169 0.0177092 0.0071786
0.355802 0.0183174 0.00697549
0.355645 0.0180082 0.0069823
0.361685 0.0177967 0.00702981
0.355322 0.0166232 0.00771527
0.361334 0.0166846 0.00771421
0.361448 0.016796 0.00764672
0.362077 0.0182753 0.00695761
0.361295 0.0165176 0.00781716
0.361792 0.0179205 0.00695457
0.361153 0.0159342 0.00817676
0.361487 0.016963 0.00754379
0.361892 0.0187315 0.00698155
0.361834 0.0182665 0.0070336
0.361838 0.017996 0.00703064
0.361354 0.0167681 0.00766274
0.355667 0.0180943 0.00693661
0.361255 0.0163509 0.00791996
0.367577 0.0177163 0.00706356
0.355361 0.0167965 0.00762353
0.355461 0.0172295 0.00739445
0.3675 0.0173974 0.00729253

VERTICES 269 538
1 0
1 1
1 2
1 3
1 4
1 5
1 6
1 7
1 8
1 9
1 10
1 11
1 12
1 13
1 14
1 15
1 16
1 17
1 18
1 19
1 20
1 21
1 22
1 23
1 24
1 25
1 26
1 27
1 28
1 29
1 30
1 31
1 32
1 33
1 34
1 35
1 36
1 37
1 38
1 39
1 40
1 41
1 42
1 43
1 44
1 45
1 46
1 47
1 48
1 49
1 50
1 51
1 52
1 53
1 54
1 55
1 56
1 57
1 58
1 59
1 60
1 61
1 62
1 63
1 64
1 65
1 66
1 67
1 68
1 69
1 70
1 71
1 72
1 73
1 74
1 75
1 76
1 77
1 78
1 79
1 80
1 81
1 82
1 83
1 84
1 85
1 86
1 87
1 88
1 89
1 90
1 91
1 92
1 93
1 94
1 95
1 96
1 97
1 98
1 99
1 100
1 101
1 102
1 103
1 104
1 105
1 106
1 107
1 108
1 109
1 110
1 111
1 112
1 113
1 114
1 115
1 116
1 117
1 118
1 119
1 120
1 121
1 122
1 123
1 124
1 125
1 126
1 127
1 128
1 129
1 130
1 131
1 132
1 133
1 134
1 135
1 136
1 137
1 138
1 139
1 140
1 141
1 142
1 143
1 144
1 145
1 146
1 147
1 148
1 149
1 150
1 151
1 152
1 153
1 154
1 155
1 156
1 157
1 158
1 159
1 160
1 161
1 162
1 163
1 164
1 165
1 166
1 167
1 168
1 169
1 170
1 171
1 172
1 173
1 174
1 175
1 176
1 177
1 178
1 179
1 180
1 181
1 182
1 183
1 184
1 185
1 186
1 187
1 188
1 189
1 190
1 191
1 192
1 193
1 194
1 195
1 196
1 197
1 198
1 199
1 200
1 201
1 202
1 203
1 204
1 205
1 206
1 207
1 208
1 209
1 210
1 211
1 212
1 213
1 214
1 215
1 216
1 217
1 218
1 219
1 220
1 221
1 222
1 223
1 224
1 225
1 226
1 227
1 228
1 229
1 230
1 231
1 232
1 233
1 234
1 235
1 236
1 237
1 238
1 239
1 240
1 241
1 242
1 243
1 244
1 245
1 246
1 247
1 248
1 249
1 250
1 251
1 252
1 253
1 254
1 255
1 256
1 257
1 258
1 259
1 260
1 261
1 262
1 263
1 264
1 265
1 266
1 267
1 268

POINT_DATA 269
SCALARS id int 1
LOOKUP_TABLE default
1
2
4
5
6
7
8
9
10
11
12
13
14
16
17
19
21
22
23
24
26
27
28
29
30
31
32
33
35
36
37
38
39
41
42
44
45
47
48
49
50
51
52
53
54
55
56
57
59
60
61
62
63
64
65
66
67
68
69
70
71
72
73
74
76
77
78
79
80
82
83
84
85
86
87
88
89
90
91
92
93
94
95
96
97
98
99
100
101
102
103
104
105
106
107
108
109
110
111
112
113
114
115
116
117
118
119
120
121
122
123
124
125
127
128
129
130
131
132
133
134
135
136
137
138
140
141
142
143
144
146
147
148
149
150
151
153
154
155
156
157
158
159
160
162
164
165
166
167
168
169
170
171
172
173
174
176
177
178
179
182
183
184
185
186
187
188
189
190
191
192
193
194
195
196
197
198
199
200
201
202
203
204
206
207
208
209
210
211
212
213
214
215
216
217
218
219
220
222
224
225
226
227
228
229
230
232
233
234
235
236
237
239
240
241
242
243
244
246
248
249
250
251
252
253
254
255
256
257
258
259
260
261
262
263
264
265
266
268
269
270
271
272
273
274
275
276
278
279
280
281
283
284
285
286
287
288
289
290
291
292
293
294
295
296
297
298
299
300

SCALARS type int 1
LOOKUP_TABLE default
1
1
1
1
1
1
1
1
1
1
1
1
1
1
1
1
1
1
1
1
1
1
1
1
1
1
1
1
1
1
1
1
1
1
1
1
1
1
1
1
1
1
1
1
1
1
1
1
1
1
1
1
1
1
1
1
1
1
1
1
1
1
1
1
1
1
1
1
1
1
1
1
1
1
1
1
1
1
1
1
1
1
1
1
1
1
1
1
1
1
1
1
1
1
1
1
1
1
1
1
1
1
1
1
1
1
1
1
1
1
1
1
1
1
1
1
1
1
1
1
1
1
1
1
1
1
1
1
1
1
1
1
1
1
1
1
1
1
1
1
1
1
1
1
1
1
1
1
1
1
1
1
1
1
1
1
1
1
1
1
1
1
1
1
1
1
1
1
1
1
1
1
1
1
1
1
1
1
1
1
1
1
1
1
1
1
1
1
1
1
1
1
1
1
1
1
1
1
1
1
1
1
1
1
1
1
1
1
1
1
1
1
1
1
1
1
1
1
1
1
1
1
1
1
1
1
1
1
1
1
1
1
1
1
1
1
1
1
1
1
1
1
1
1
1
1
1
1
1
1
1
1
1
1
1
1
1
1
1
1
1
1
1
1
1
1
1
1
1

SCALARS radius float 1
LOOKUP_TABLE default
5e-05
5e-05
5e-05
5e-05
5e-05
5e-05
5e-05
5e-05
5e-05
5e-05
5e-05
5e-05
5e-05
5e-05
5e-05
5e-05
5e-05
5e-05
5e-05
5e-05
5e-05
5e-05
5e-05
5e-05
5e-05
5e-05
5e-05
5e-05
5e-05
5e-05
5e-05
5e-05
5e-05
5e-05
5e-05
5e-05
5e-05
5e-05
5e-05
5e-05
5e-05
5e-05
5e-05
5e-05
5e-05
5e-05
5e-05
5e-05
5e-05
5e-05
5e-05
5e-05
5e-05
5e-05
5e-05
5e-05
5e-05
5e-05
5e-05
5e-05
5e-05
5e-05
5e-05
5e-05
5e-05
5e-05
5e-05
5e-05
5e-05
5e-05
5e-05
5e-05
5e-05
5e-05
5e-05
5e-05
5e-05
5e-05
5e-05
5e-05
5e-05
5e-05
5e-05
5e-05
5e-05
5e-05
5e-05
5e-05
5e-05
5e-05
5e-05
5e-05
5e-05
5e-05
5e-05
5e-05
5e-05
5e-05
5e-05
5e-05
5e-05
5e-05
5e-05
5e-05
5e-05
5e-05
5e-05
5e-05
5e-05
5e-05
5e-05
5e-05
5e-05
5e-05
5e-05
5e-05
5e-05
5e-05
5e-05
5e-05
5e-05
5e-05
5e-05
5e-05
5e-05
5e-05
5e-05
5e-05
5e-05
5e-05
5e-05
5e-05
5e-05
5e-05
5e-05
5e-05
5e-05
5e-05
5e-05
5e-05
5e-05
5e-05
5e-05
5e-05
5e-05
5e-05
5e-05
5e-05
5e-05
5e-05
5e-05
5e-05
5e-05
5e-05
5e-05
5e-05
5e-05
5e-05
5e-05
5e-05
5e-05
5e-05
5e-05
5e-05
5e-05
5e-05
5e-05
5e-05
5e-05
5e-05
5e-05
5e-05
5e-05
5e-05
5e-05
5e-05
5e-05
5e-05
5e-05
5e-05
5e-05
5e-05
5e-05
5e-05
5e-05
5e-05
5e-05
5e-05
5e-05
5e-05
5e-05
5e-05
5e-05
5e-05
5e-05
5e-05
5e-05
5e-05
5e-05
5e-05
5e-05
5e-05
5e-05
5e-05
5e-05
5e-05
5e-05
5e-05
5e-05
5e-05
5e-05
5e-05
5e-05
5e-05
5e-05
5e-05
5e-05
5e-05
5e-05
5e-05
5e-05
5e-05
5e-05
5e-05
5e-05
5e-05
5e-05
5e-05
5e-05
5e-05
5e-05
5e-05
5e-05
5e-05
5e-05
5e-05
5e-05
5e-05
5e-05
5e-05
5e-05
5e-05
5e-05
5e-05
5e-05
5e-05
5e-05
5e-05
5e-05
5e-05
5e-05
5e-05
5e-05
5e-05
5e-05
5e-05
5e-05
5e-05
5e-05
5e-05
5e-05
5e-05
5e-05
5e-05
5e-05
5e-05
5e-05
5e-05
5e-05

SCALARS mass float 1
LOOKUP_TABLE default
1.46608e-10
1.46608e-10
1.46608e-10
1.46608e-10
1.46608e-10
1.46608e-10
1.46608e-10
1.46608e-10
1.46608e-10
1.46608e-10
1.46608e-10
1.46608e-10
1.46608e-10
1.46608e-10
1.46608e-10
1.46608e-10
1.46608e-10
1.46608e-10
1.46608e-10
1.46608e-10
1.46608e-10
1.46608e-10
1.46608e-10
1.46608e-10
1.46608e-10
1.46608e-10
1.46608e-10
1.46608e-10
1.46608e-10
1.46608e-10
1.46608e-10
1.46608e-10
1.46608e-10
1.46608e-10
1.46608e-10
1.46608e-10
1.46608e-10
1.46608e-10
1.46608e-10
1.46608e-10
1.46608e-10
1.46608e-10
1.46608e-10
1.46608e-10
1.46608e-10
1.46608e-10
1.46608e-10
1.46608e-10
1.46608e-10
1.46608e-10
1.46608e-10
1.46608e-10
1.46608e-10
1.46608e-10
1.46608e-10
1.46608e-10
1.46608e-10
1.46608e-10
1.46608e-10
1.46608e-10
1.46608e-10
1.46608e-10
1.46608e-10
1.46608e-10
1.46608e-10
1.46608e-10
1.46608e-10
1.46608e-10
1.46608e-10
1.46608e-10
1.46608e-10
1.46608e-10
1.46608e-10
1.46608e-10
1.46608e-10
1.46608e-10
1.46608e-10
1.46608e-10
1.46608e-10
1.46608e-10
1.46608e-10
1.46608e-10
1.46608e-10
1.46608e-10
1.46608e-10
1.46608e-10
1.46608e-10
1.46608e-10
1.46608e-10
1.46608e-10
1.46608e-10
1.46608e-10
1.46608e-10
1.46608e-10
1.46608e-10
1.46608e-10
1.46608e-10
1.46608e-10
1.46608e-10
1.46608e-10
1.46608e-10
1.46608e-10
1.46608e-10
1.46608e-10
1.46608e-10
1.46608e-10
1.46608e-10
1.46608e-10
1.46608e-10
1.46608e-10
1.46608e-10
1.46608e-10
1.46608e-10
1.46608e-10
1.46608e-10
1.46608e-10
1.46608e-10
1.46608e-10
1.46608e-10
1.46608e-10
1.46608e-10
1.46608e-10
1.46608e-10
1.46608e-10
1.46608e-10
1.46608e-10
1.46608e-10
1.46608e-10
1.46608e-10
1.46608e-10
1.46608e-10
1.46608e-10
1.46608e-10
1.46608e-10
1.46608e-10
1.46608e-10
1.46608e-10
1.46608e-10
1.46608e-10
1.46608e-10
1.46608e-10
1.46608e-10
1.46608e-10
1.46608e-10
1.46608e-10
1.46608e-10
1.46608e-10
1.46608e-10
1.46608e-10
1.46608e-10
1.46608e-10
1.46608e-10
1.46608e-10
1.46608e-10
1.46608e-10
1.46608e-10
1.46608e-10
1.46608e-10
1.46608e-10
1.46608e-10
1.46608e-10
1.46608e-10
1.46608e-10
1.46608e-10
1.46608e-10
1.46608e-10
1.46608e-10
1.46608e-10
1.46608e-10
1.46608e-10
1.46608e-10
1.46608e-10
1.46608e-10
1.46608e-10
1.46608e-10
1.46608e-10
1.46608e-10
1.46608e-10
1.46608e-10
1.46608e-10
1.46608e-10
1.46608e-10
1.46608e-10
1.46608e-10
1.46608e-10
1.46608e-10
1.46608e-10
1.46608e-10
1.46608e-10
1.46608e-10
1.46608e-10
1.46608e-10
1.46608e-10
1.46608e-10
1.46608e-10
1.46608e-10
1.46608e-10
1.46608e-10
1.46608e-10
1.46608e-10
1.46608e-10
1.46608e-10
1.46608e-10
1.46608e-10
1.46608e-10
1.46608e-10
1.46608e-10
1.46608e-10
1.46608e-10
1.46608e-10
1.46608e-10
1.46608e-10
1.46608e-10
1.46608e-10
1.46608e-10
1.46608e-10
1.46608e-10
1.46608e-10
1.46608e-10
1.46608e-10
1.46608e-10
1.46608e-10
1.46608e-10
1.46608e-10
1.46608e-10
1.46608e-10
1.46608e-10
1.46608e-10
1.46608e-10
1.46608e-10
1.46608e-10
1.46608e-10
1.46608e-10
1.46608e-10
1.46608e-10
1.46608e-10
1.46608e-10
1.46608e-10
1.46608e-10
1.46608e-10
1.46608e-10
1.46608e-10
1.46608e-10
1.46608e-10
1.46608e-10
1.46608e-10
1.46608e-10
1.46608e-10
1.46608e-10
1.46608e-10
1.46608e-10
1.46608e-10
1.46608e-10
1.46608e-10
1.46608e-10
1.46608e-10
1.46608e-10
1.46608e-10
1.46608e-10
1.46608e-10
1.46608e-10
1.46608e-10
1.46608e-10
1.46608e-10
1.46608e-10
1.46608e-10
1.46608e-10
1.46608e-10
1.46608e-10

VECTORS velocity float
0.00625206 -0.000153795 5.92204e-05
0.00547371 4.7015e-05 0.000133468
0.00562168 -1.36084e-05 0.000178365
0.00603109 6.61016e-05 0.000139307
0.00544608 -0.000443874 3.90646e-05
0.00572447 -0.000115185 1.46186e-05
0.00540832 0.000293174 -3.37137e-05
0.0060608 -0.000413288 0.00030243
0.00539755 9.5079e-06 0.000158565
0.00634187 -0.000212035 5.89636e-05
0.00612032 -1.54568e-05 9.27687e-05
0.00606616 4.16221e-05 0.000156704
0.0062148 -1.21022e-06 -9.67366e-05
0.00622647 3.13925e-05 -9.85641e-05
0.0057492 5.42454e-05 0.000139469
0.00624927 -0.000167601 5.8368e-05
0.00617052 -0.000217829 3.27014e-05
0.00548766 6.91032e-06 0.000162771
0.00615062 4.4411e-05 -9.53529e-05
0.00559384 -0.000329401 0.000271307
0.00555369 -0.000317229 0.000261785
0.00540948 0.000133228 -1.58904e-05
0.00626671 -0.000162263 6.35127e-05
0.00610009 3.02338e-05 0.000165953
0.00583756 5.43577e-05 0.000143533
0.00621837 -0.000356179 -6.0999e-05
3.56294e-15 -5.32167e-14 -2.74086e-13
0.0055046 -0.000450649 4.10557e-05
0.00589983 -0.000119367 9.22584e-06
0.00611849 -0.000427042 0.000307757
0.00559293 -1.045e-05 0.000177992
0.00578703 -0.000282509 0.000131455
0.00558094 -0.000322288 0.00026355
0.00596408 0.00011145 0.000106738
0.00558831 -0.00025497 0.000129003
0.0058354 -0.000263585 0.000105461
0.00554391 -0.000453638 4.09209e-05
0.005919 7.69918e-05 0.000128491
0.00559729 -6.92561e-05 -1.64299e-05
0.00608286 -0.000416477 0.000303823
-7.19344e-06 -0.0166536 0.0106572
0.00637027 -0.000295905 6.47668e-05
0.006451 -6.24199e-05 0.000125927
0.00556529 -0.000447616 3.60149e-05
0.00624396 -0.000259877 0.000105606
0.00548863 0.000126658 2.48889e-06
0.00624195 -0.000189202 4.33896e-05
0.00555229 -0.000450705 3.82826e-05
-5.01994e-15 -7.412e-15 7.69802e-14
0.00601156 -0.00028533 0.000114597
0.0059985 8.84352e-05 0.000123156
0.00594568 -0.000298252 0.000133105
0.00627075 -0.00023564 6.0158e-05
0.00558708 -0.000384797 0.000160339
0.00603317 5.79081e-05 4.5592e-05
0.00635014 -0.000102298 0.000156454
0.00622436 -0.000219196 4.58021e-05
0.00565807 2.62554e-06 0.000174605
0.0061982 -0.000238152 6.62313e-05
0.00564495 -0.000332944 0.000268851
0.00620989 -1.99141e-05 -9.99309e-05
0.00631048 -0.000213458 6.48029e-05
0.00571356 3.66685e-05 0.000149202
0.00587393 6.68623e-05 0.000136111
0.00546235 0.000126039 -4.62319e-06
0.00552979 4.0365e-05 0.000143478
0.00627423 -0.000919339 -0.000770897
0.00617407 4.30495e-05 -6.73481e-05
0.00560005 1.33845e-06 0.000171852
0.00598944 -9.00823e-05 -8.83635e-05
0.00615482 -0.000107208 0.000150011
0.0061008 -0.000422039 0.000306466
0.00616567 -9.44114e-06 -3.6305e-05
0.00584337 -0.00025844 0.000110791
0.00543334 2.92756e-05 0.000144891
0.00593885 -0.000137706 6.39065e-05
0.00634049 -0.000267872 7.07253e-05
0.00625625 -0.000206601 6.11844e-05
0.00569058 3.43036e-05 5.78275e-05
0.00587822 -5.00931e-06 9.97433e-05
0.00564164 -0.000128016 -1.09669e-05
0.00628818 -0.000185117 5.94785e-05
0.00625938 -0.000178849 6.20434e-05
0.00576713 1.91408e-05 0.000167544
0.00572255 4.0057e-05 4.47853e-05
0.00584064 0.000112659 0.000103423
0.00605274 6.53749e-05 3.70612e-05
0.0059409 -0.000160122 3.6809e-05
0.00609311 6.78102e-05 3.97005e-05
4.38768e-15 1.04232e-14 8.29632e-14
-5.35685e-15 6.6319e-15 4.46826e-14
0.00613573 2.81268e-05 -6.35477e-05
0.00572722 4.22821e-05 5.09101e-05
0.0057304 8.33802e-05 2.85497e-05
0.00560538 -0.000718739 -0.000805119
0.00632328 -0.000238881 6.14474e-05
0.00622525 -0.000211834 9.49142e-05
0.005715 -0.000119566 -1.8042e-06
0.00542333 6.34873e-05 0.000120421
0.00608256 5.9775e-05 3.95763e-05
0.00551752 0.000177532 -1.23356e-05
0.00595045 8.39478e-05 2.42158e-05
0.00594015 -0.000276687 0.000109319
0.00575362 1.20209e-05 -8.32944e-05
0.00575493 -0.000112152 4.90975e-06
0.00584102 -6.92331e-08 7.83382e-05
0.00628012 -0.000242591 6.5623e-05
0.00533482 6.85511e-06 0.000158406
0.00626692 -0.000211912 6.61741e-05
0.00567751 1.71754e-05 0.000156779
0.0062106 -1.08813e-05 -9.80001e-05
0.00583484 0.000118896 9.73014e-05
0.005849 -9.75583e-05 0.000191379
0.0052678 -0.000128246 -0.000336566
0.00580198 5.29994e-05 0.000142982
0.0062873 -0.000227395 2.86973e-05
0.00602894 3.7416e-05 5.70881e-05
0.00609371 2.65433e-05 6.65741e-05
0.00595338 -0.000285255 0.000113773
0.00557481 -0.000495981 0.000278663
0.00570694 2.07362e-05 -8.64154e-05
0.00628392 -0.000259733 6.30031e-05
0.00546504 0.000126842 -1.24055e-06
0.00618286 -0.000228635 -0.000231998
0.00579698 -0.000102307 -1.53587e-05
0.00560714 2.56986e-05 0.000151027
0.00539118 0.000142221 -1.67185e-05
0.00627569 2.57028e-05 -1.56689e-05
0.00533014 -0.000582001 -0.000753307
0.00606789 -1.47859e-05 9.10314e-05
0.00575743 6.91042e-05 3.51193e-05
0.0058991 5.8304e-05 4.36316e-05
0.00543009 0.000121769 -1.22267e-06
0.0052387 0.000119608 7.88501e-05
0.00617651 -3.43043e-06 -2.37541e-05
0.00626554 5.20922e-05 5.15203e-05
0.00545133 0.000116942 2.22693e-06
0.00556009 -0.000643502 0.000125461
0.00616873 5.73294e-05 5.20475e-05
0.00543403 0.000139961 -1.27469e-05
-3.82623e-14 8.1688e-14 2.95891e-13
0.00545052 0.000104742 1.00748e-05
0.0063148 -0.00032788 1.16261e-05
0.00618702 5.74702e-05 4.23289e-05
0.00619894 -1.64807e-05 -9.97742e-05
0.00568914 0.00014183 -0.000132491
0.00611649 -0.000784828 -0.000136565
0.00565283 -7.60092e-05 -7.49055e-06
0.00626486 2.50398e-05 7.50343e-05
0.00611233 -5.63484e-05 -9.46418e-05
0.00617691 1.73259e-05 4.27614e-05
0.00606528 1.8432e-05 -9.93817e-05
0.00625169 -0.000248586 6.31437e-05
0.00550214 0.000157763 -2.90486e-05
0.00624648 -0.000179228 5.69015e-05
0.00573492 5.58725e-05 4.43871e-05
0.00555698 6.73504e-05 3.50232e-05
0.00597199 0.000126158 3.16357e-06
0.00601017 -5.61534e-05 -1.78238e-05
0.00678263 0.00120199 -0.000709439
0.0062502 -0.000155355 5.28131e-05
0.00547975 0.000106169 -9.39854e-06
0.00626958 -0.000170233 6.23259e-05
0.00610086 -4.22271e-05 0.000108429
0.00618939 -7.39973e-06 -7.43082e-05
0.00624042 -0.000186858 6.02777e-05
0.00566959 -6.47973e-05 0.000209025
0.00626548 -0.000215986 3.78285e-05
0.00611457 -0.000537464 0.000364763
0.00531909 9.0026e-05 0.00010153
0.00553336 0.000112578 -0.000148685
0.00620612 -0.000251035 -2.49064e-05
0.00620982 -1.318e-05 -9.88108e-05
0.00614451 -2.84505e-05 -9.77985e-05
0.00638696 -8.94619e-05 0.000145696
0.00544077 -0.000218836 -0.000181801
0.00622397 -0.000123116 0.000160145
0.00617422 1.94087e-05 -9.80396e-05
0.00561272 0.000114578 5.84726e-06
0.0061065 -2.64963e-05 -0.00010405
0.00546 9.31084e-05 1.73101e-05
0.00571078 1.77753e-05 -8.23296e-05
0.00622893 -1.48592e-05 -0.000102441
0.005443 0.000117921 -3.54265e-07
0.00576821 0.000129106 -1.45991e-06
0.00628018 7.087e-05 1.88995e-05
0.00558728 0.000108183 1.32721e-05
0.00523524 3.56615e-06 0.00015728
0.00538306 3.88947e-05 0.000137523
0.00618786 2.12582e-05 -9.55898e-05
0.00596724 -0.000110838 2.57096e-05
0.0056287 1.75435e-06 0.000168647
0.00612445 -0.000290086 -0.000201893
0.00572582 4.8253e-05 4.9657e-05
0.00625665 -0.00023666 7.55986e-05
0.00514466 0.000225705 -6.72006e-05
0.0055695 -0.00010581 -8.48802e-06
0.00614404 1.67375e-05 7.3524e-05
0.00616038 -0.000279212 0.000128181
0.00541145 0.000139541 -1.42898e-05
0.0054967 1.35904e-05 0.000159409
0.00621569 3.64084e-05 -7.94981e-05
0.00619813 -0.000321475 -0.000200092
0.006039 -0.000310179 -0.000187297
0.00619444 -1.23297e-06 -9.90797e-05
0.00543767 0.000152541 -2.06551e-05
0.00615643 2.45275e-05 -6.75965e-05
0.00628321 4.96609e-05 5.78888e-05
0.00562976 2.23367e-05 0.000164236
0.00573067 0.000101782 1.57153e-05
0.00545966 0.000135829 -9.61415e-06
0.00547513 0.000125045 -2.46445e-06
0.00534289 0.000407451 0.000907027
0.00547505 -0.000170145 -0.00027984
0.00545253 0.000389464 0.000962416
0.00550242 0.000162233 -2.65318e-05
0.00625456 -7.54571e-05 0.000132972
0.00548511 0.000476713 0.000891454
0.0058367 -0.000391424 -0.000133258
0.00633377 -0.000116481 0.000130541
0.0055331 -0.000368382 -0.000128889
0.000273576 -0.017068 0.0103773
0.00586536 -9.08919e-06 -6.67845e-05
0.00585776 -0.000366294 -0.000146764
0.0061576 -0.000466118 0.000319983
0.0057222 -0.000417198 -0.000110353
0.00618631 1.93956e-05 -9.64394e-05
0.00621808 1.84979e-06 -9.99516e-05
0.00546102 0.000112277 4.6209e-06
0.00618872 -1.38206e-05 -4.8053e-05
0.0058984 -0.000339739 -0.000163921
0.00630252 -0.000114953 0.000146117
0.00630432 0.000111341 -2.76487e-05
0.00627969 -0.000228816 0.000228352
0.00539813 -0.000284974 -0.000164962
0.00602232 3.96969e-05 5.36429e-05
0.0060741 -0.000557861 0.000350629
0.006224 7.622e-06 8.08648e-05
0.00598769 -2.31308e-05 9.44507e-05
0.00618001 -6.44849e-05 0.000120955
0.00568785 -0.000107334 2.55974e-05
0.00617749 -3.43666e-05 -8.73023e-05
0.00607083 -0.000289502 -0.00019575
0.0055583 8.64742e-05 2.24838e-05
0.00597254 -0.000328575 -0.0001741
0.00598652 5.47583e-06 6.93309e-05
0.0057671 5.81177e-05 4.30451e-05
0.00608555 -0.000264857 0.000148094
0.00606337 -0.000427581 0.000373167
0.00617849 -0.000358572 -0.000168773
0.00637013 -0.00014333 0.000173378
0.00540801 -0.000156343 -0.000245085
0.00541027 0.000148454 -1.80973e-05
0.00544016 0.000131018 -7.70668e-06
0.0061699 3.15951e-05 -9.63902e-05
0.00557261 0.000142285 -1.22989e-05
0.00631465 -3.32603e-05 9.6892e-05
0.00573364 4.30549e-05 5.19337e-05
0.00547058 0.000122209 -1.29816e-06
0.00615336 5.21227e-05 -6.43355e-05
0.00612615 9.58037e-06 -0.00014295
0.00614371 0.000111624 -0.000112842
0.00544768 0.000137124 -1.12761e-05
0.0060666 -0.000348905 -1.60709e-05
0.00575661 8.78258e-05 2.3931e-05
0.00564728 -7.21494e-05 -1.4825e-05
0.0054974 -0.000159114 -0.000236053
0.00579189 -0.000413013 -0.000119823
0.00591015 -8.70784e-05 4.0765e-06

VECTORS force float
-5.96066e-11 2.43222e-10 -9.32837e-11
-1.54355e-12 -1.76549e-10 1.49177e-10
2.15267e-11 -1.49148e-10 9.29621e-11
5.71279e-11 2.54647e-10 -1.63412e-10
-4.00741e-11 -4.79848e-11 3.36746e-11
-3.4325e-10 1.7877e-10 -1.40082e-10
2.31671e-10 -1.09e-10 8.63686e-11
3.18707e-11 1.28247e-11 -6.97137e-12
1.55962e-10 -1.38937e-10 9.75808e-11
-4.37072e-10 -2.32806e-10 -1.70003e-10
-7.55283e-11 -1.23015e-10 7.78776e-11
6.27475e-11 2.52467e-10 -1.83927e-10
-7.32931e-11 3.57238e-10 1.9635e-11
-1.46893e-10 2.26537e-11 2.09103e-10
-7.61198e-11 -8.69336e-12 2.24456e-11
-4.44761e-12 2.53892e-10 5.5936e-11
4.02531e-10 -1.85254e-10 -1.11037e-10
-1.19757e-10 -9.15204e-12 -2.19935e-12
5.03649e-10 -9.68863e-11 1.3385e-10
3.49814e-11 -3.73951e-11 3.99272e-11
-1.32646e-11 -3.86307e-12 3.78454e-12
-2.89717e-10 -6.46401e-11 1.44315e-11
-6.48709e-10 1.0173e-10 3.07425e-10
6.62868e-11 2.59686e-10 -1.65222e-10
2.4563e-10 -1.67965e-10 3.35924e-11
-3.60985e-11 -3.56767e-10 -9.45247e-10
8.07477e-22 -1.56441e-22 4.57017e-23
-6.71573e-11 -4.12366e-11 2.71525e-11
4.79606e-10 2.3476e-10 -9.99403e-11
-5.66083e-12 5.01504e-11 -9.69639e-12
2.18459e-10 -1.14593e-10 1.07011e-10
-6.44802e-10 -3.68691e-10 1.8784e-10
-1.14636e-12 -1.74759e-11 -2.51179e-12
-3.98324e-12 6.43717e-11 -4.66441e-11
-2.00407e-10 -7.75586e-11 -1.41868e-10
5.98911e-10 1.42025e-10 -5.67151e-11
6.19129e-11 -5.1219e-11 2.7452e-11
5.61063e-11 9.52915e-11 -6.44942e-11
-4.65477e-11 1.18064e-10 -1.04562e-10
-4.16134e-11 3.84661e-11 -5.04784e-12
-1.76151e-13 1.05571e-10 -4.67608e-11
-5.99846e-10 8.61759e-11 1.52074e-10
-3.87199e-10 3.99983e-10 -2.64239e-10
9.24453e-11 -7.99842e-11 4.53703e-11
7.81787e-10 -2.12923e-11 1.41407e-10
9.31399e-11 -1.94284e-10 -1.04927e-10
2.14192e-10 5.94955e-10 -3.41074e-10
7.89434e-12 -5.89985e-11 3.59984e-11
-6.78547e-24 6.20385e-24 2.06795e-25
7.32189e-10 -1.00178e-10 -2.25979e-10
6.13061e-11 2.44655e-10 -1.66622e-10
-6.18204e-10 -4.5762e-10 4.65171e-10
6.16079e-10 -3.97362e-10 1.09136e-10
6.90791e-11 -5.05068e-11 3.73102e-11
-1.76349e-10 1.469e-10 4.12692e-11
-2.77644e-10 -2.94403e-10 1.53503e-10
2.33164e-10 -1.55187e-10 3.67733e-10
1.0828e-11 -3.20789e-10 1.34206e-10
-3.02425e-10 -5.52419e-10 9.55349e-11
4.78539e-11 -3.09674e-12 2.96265e-12
-1.1419e-10 -1.74283e-10 7.63004e-12
-1.12092e-10 -2.30667e-10 5.72202e-12
2.17364e-10 -1.79101e-10 1.31669e-10
-1.15857e-11 -3.1387e-10 1.84194e-10
-6.64656e-11 1.95538e-11 -1.3334e-12
-1.62226e-10 -1.83741e-10 5.92634e-11
2.01534e-10 9.7778e-12 -3.11134e-10
-2.50794e-10 6.93711e-11 5.65054e-11
-5.16452e-11 -2.28181e-10 8.28597e-11
5.07707e-11 2.21504e-10 -1.10632e-10
-2.06731e-10 -4.74355e-10 3.03612e-10
5.61554e-11 6.24147e-11 -1.90389e-11
-2.16594e-11 -2.52492e-10 -2.98034e-10
4.14776e-10 7.78624e-11 -8.63671e-11
1.55072e-11 -2.44758e-10 1.59764e-10
4.85812e-10 -3.80921e-10 2.79569e-10
4.89782e-10 -6.51136e-10 -7.07551e-11
-9.98778e-11 -2.12067e-10 1.77126e-10
1.9736e-10 -2.07023e-11 7.6341e-13
-1.63486e-10 -1.42374e-10 1.86566e-10
-1.35937e-10 1.61687e-10 -1.08258e-10
-1.73317e-10 -8.18041e-12 2.88859e-11
-5.00561e-10 1.8127e-10 -1.21413e-10
9.92698e-11 -1.68747e-11 -1.05157e-10
-9.74098e-11 -2.62142e-10 1.56039e-10
9.88695e-11 9.9309e-12 1.37428e-11
8.00195e-11 1.21748e-10 -6.30517e-11
2.74883e-10 -7.35796e-11 -1.85013e-10
2.3204e-10 6.29646e-11 -1.96744e-11
-1.89078e-21 8.20227e-22 -1.11669e-23
-9.91066e-23 -2.48542e-22 2.39882e-23
3.75482e-11 2.50271e-10 1.00412e-11
2.05057e-10 -4.1057e-10 2.49707e-10
1.32504e-10 1.61237e-11 -1.40908e-12
4.78385e-11 -9.05827e-11 -2.99645e-10
3.65527e-10 -3.07572e-10 6.03519e-11
2.44766e-10 3.85453e-10 5.2199e-10
3.0652e-10 2.87216e-10 -4.69055e-10
-4.42044e-11 -1.88338e-10 1.23859e-10
3.55987e-12 4.04164e-11 7.42757e-12
5.46285e-10 -1.34846e-10 1.83711e-10
4.63153e-10 -4.02438e-10 4.48611e-10
-3.13981e-10 -1.4555e-11 -1.73473e-11
-4.29091e-11 5.30222e-11 -6.87252e-11
-3.39119e-10 3.12035e-10 -1.60102e-10
1.15468e-10 2.06309e-11 -1.88976e-11
4.23138e-10 -3.18168e-10 2.86211e-11
4.4022e-11 -1.32967e-10 9.23712e-11
1.17927e-14 1.39282e-10 -1.99244e-11
4.69318e-10 -2.00185e-10 -2.17219e-10
-4.81005e-11 -9.46328e-11 3.4592e-11
-1.46916e-10 -2.80294e-12 1.04089e-11
-7.07068e-10 -8.43605e-10 4.23373e-10
-9.62608e-11 -2.34439e-10 4.02843e-11