# vtk DataFile Version 3.0
LIGGGHTS particles timestep 67000000
ASCII
DATASET POLYDATA
POINTS 269 float
0.384599 0.0175858 5.25551e-05
0.384183 0.0168012 5.20101e-05
0.384401 0.018342 5.22951e-05
0.385011 0.0167669 5.30953e-05
0.385108 0.0179216 5.32215e-05
0.384328 0.0189229 5.22005e-05
0.384815 0.0184943 5.2838e-05
0.383777 0.0196525 5.1478e-05
0.384888 0.0164946 5.29341e-05
0.383974 0.0191869 5.17367e-05
0.384004 0.0179482 5.17757e-05
0.384309 0.0184568 5.21751e-05
0.384724 0.0196711 5.2719e-05
0.383685 0.0191826 5.13578e-05
0.384698 0.0173096 5.26849e-05
0.383912 0.0197978 5.16557e-05
0.383597 0.0186925 5.12422e-05
0.38463 0.0163628 5.2596e-05
0.383878 0.0175317 5.1611e-05
0.384101 0.0187635 5.19028e-05
0.38362 0.0183342 5.12731e-05
0.384785 0.0180411 5.27984e-05
0.384198 0.0187953 5.20297e-05
0.384214 0.0168974 5.20505e-05
0.384097 0.0179868 5.18972e-05
0.383893 0.0179765 5.16305e-05
0.247451 0.0181454 0.00545794
0.383882 0.0177775 5.16151e-05
0.384808 0.0177286 5.28287e-05
0.383662 0.0180556 5.13278e-05
0.383909 0.0178755 5.16511e-05
0.384713 0.0170615 5.27042e-05
0.383717 0.0197911 5.13996e-05
0.383748 0.018123 5.14409e-05
0.384212 0.0181264 5.20477e-05
0.384674 0.017655 5.26539e-05
0.384212 0.0172077 5.20482e-05
0.384502 0.0170164 5.24283e-05
0.383855 0.0191595 5.15803e-05
0.384166 0.0195438 5.19874e-05
0.393391 0.0167924 0.00833684
0.384626 0.0177793 5.25903e-05
0.38448 0.0176805 5.23994e-05
0.384734 0.0175226 5.27322e-05
0.383738 0.0190139 5.14271e-05
0.384694 0.0180885 5.26795e-05
0.383635 0.0196308 5.12923e-05
0.383634 0.0197324 5.1291e-05
0.378022 0.019866 0.005332
0.384057 0.0182172 5.1845e-05
0.384827 0.0175585 5.28544e-05
0.384311 0.0186263 5.21774e-05
0.383577 0.018452 5.1216e-05
0.383269 0.0178073 0.0053438
0.384532 0.0167022 5.24676e-05
0.383745 0.0178455 0.000126364
0.384602 0.0180485 5.25594e-05
0.384886 0.0184142 5.2931e-05
0.383711 0.0207759 5.13922e-05
0.384746 0.0161015 5.27478e-05
0.383741 0.0188606 5.14314e-05
0.384005 0.0195345 5.17769e-05
0.385165 0.0173714 5.3297e-05
0.384312 0.0182285 5.21795e-05
0.384529 0.0179806 5.24634e-05
0.384211 0.0182562 5.20468e-05
0.384019 0.0174293 5.17959e-05
0.383618 0.019402 5.12705e-05
0.384203 0.0173209 5.20365e-05
0.384071 0.0186677 5.1864e-05
0.384602 0.0164616 5.25589e-05
0.384003 0.0188652 5.17748e-05
0.384491 0.0201706 5.24132e-05
0.38452 0.0190801 5.24517e-05
0.384401 0.0173066 5.22954e-05
0.384597 0.0181855 5.25521e-05
0.383831 0.0209331 5.15494e-05
0.384476 0.0180662 5.23935e-05
0.384562 0.0161408 5.25065e-05
0.383623 0.0181478 5.12773e-05
0.384831 0.0190845 5.28587e-05
0.384215 0.0186925 5.20517e-05
0.383676 0.018497 5.13469e-05
0.385068 0.0173509 5.31688e-05
0.385082 0.0166964 5.31883e-05
0.384494 0.017574 5.24182e-05
0.383876 0.0176099 0.000113825
0.383701 0.0182111 5.13792e-05
0.3839 0.0196686 5.16397e-05
0.0643568 0.0187248 0.00531097
0.230779 0.0182774 0.00551293
0.38388 0.0192583 5.16135e-05
0.384197 0.0178013 5.20291e-05
0.384064 0.01708 5.85246e-05
0.383991 0.0177466 5.17583e-05
0.383604 0.0189528 5.1252e-05
0.383824 0.0193429 5.15405e-05
0.384848 0.0181615 5.28813e-05
0.383759 0.0180222 5.14545e-05
0.384668 0.0204846 5.26453e-05
0.384006 0.0178482 5.17777e-05
0.385064 0.0164614 5.31641e-05
0.38433 0.0192224 5.22022e-05
0.384884 0.0180547 5.29282e-05
0.383529 0.0177712 0.00534448
0.384874 0.0171689 5.29154e-05
0.383718 0.017918 5.14012e-05
0.384613 0.0170491 5.25734e-05
0.385676 0.0164514 5.39659e-05
0.384725 0.0177988 5.27197e-05
0.383915 0.0205035 5.16596e-05
0.38514 0.0150589 5.32639e-05
0.384411 0.0182414 5.23096e-05
0.384568 0.0171652 5.25152e-05
0.384299 0.0176122 5.21628e-05
0.384156 0.0171195 5.19742e-05
0.385036 0.0171379 5.31278e-05
0.38397 0.0175718 5.17312e-05
0.385069 0.0180992 5.31713e-05
0.384477 0.0187082 5.23958e-05
0.384249 0.0183505 5.20968e-05
0.383899 0.019542 5.16388e-05
0.384145 0.017899 5.19599e-05
0.383813 0.0198281 5.15254e-05
0.384467 0.0171735 5.23827e-05
0.384752 0.0179004 5.27554e-05
0.38497 0.0181068 5.30405e-05
0.38496 0.0184888 5.30276e-05
0.384762 0.0181437 0.000100712
0.383431 0.0175376 0.00541532
0.384977 0.0180356 0.000122854
0.383614 0.0185748 5.12645e-05
0.384112 0.0172175 5.19177e-05
0.385015 0.0183005 5.30994e-05
0.384846 0.0192085 5.28787e-05
0.384832 0.0188472 5.28603e-05
0.383898 0.0179255 0.00013754
0.383898 0.0181094 5.16374e-05
0.384945 0.0179716 5.30077e-05
0.384147 0.0170045 5.19627e-05
0.0219312 0.0187687 0.00551176
0.384399 0.017607 5.22938e-05
0.384201 0.0184387 5.20343e-05
0.383571 0.0183829 0.000123314
0.384488 0.0195864 5.24091e-05
0.384755 0.0166629 5.27588e-05
0.383838 0.0177344 0.000130408
0.383767 0.0192404 5.14661e-05
0.384912 0.0178665 5.29654e-05
0.384018 0.01725 5.17936e-05
0.384049 0.019854 5.18343e-05
0.383999 0.018436 5.17689e-05
0.384038 0.0188005 0.000119845
0.384373 0.0180412 5.22591e-05
0.384964 0.0172331 5.30331e-05
0.384622 0.0182827 5.25858e-05
0.383932 0.0176648 5.16808e-05
0.38404 0.0185721 5.18234e-05
0.384829 0.019706 5.28566e-05
0.384191 0.0191787 5.20202e-05
0.384115 0.018498 5.19211e-05
0.384721 0.0202918 5.27147e-05
0.384677 0.0179669 5.2657e-05
0.38458 0.01769 5.25298e-05
0.38368 0.0195057 5.13522e-05
0.384427 0.0170821 5.23292e-05
0.38383 0.0176734 5.15473e-05
0.383918 0.017439 5.16628e-05
0.383979 0.0193213 5.17425e-05
0.384646 0.017421 5.26161e-05
0.384378 0.0175059 5.22658e-05
0.384089 0.0190435 5.18871e-05
0.383653 0.019074 5.13159e-05
0.383846 0.0182168 5.15694e-05
0.384118 0.0180904 5.19255e-05
0.383944 0.0178123 0.000121771
0.383892 0.0185466 5.16296e-05
0.383899 0.0194311 5.16383e-05
0.385014 0.0178743 5.30989e-05
0.384311 0.0181229 5.21786e-05
0.38375 0.0179324 0.000175661
0.384564 0.0165956 5.2509e-05
0.38396 0.0190065 5.17177e-05
0.384465 0.0168375 5.23795e-05
0.385175 0.0175512 5.33093e-05
0.383584 0.0182412 5.12248e-05
0.38493 0.0182425 5.29879e-05
0.384351 0.0171769 5.22304e-05
0.383783 0.0177617 5.14859e-05
0.384062 0.0199546 5.18516e-05
0.384476 0.0184173 5.2394e-05
0.38469 0.0169374 5.26743e-05
0.384121 0.0182994 5.19287e-05
0.384245 0.017708 5.20916e-05
0.384064 0.0191417 5.1854e-05
0.384457 0.017909 5.23695e-05
0.384944 0.0197441 5.30067e-05
0.383696 0.018399 5.13731e-05
0.384799 0.0201778 5.28171e-05
0.384494 0.0174269 5.24173e-05
0.385146 0.0176526 5.3272e-05
0.384104 0.018398 5.1907e-05
0.383688 0.0179861 0.000118273
0.383956 0.018209 5.17134e-05
0.383699 0.0187044 5.13766e-05
0.384584 0.0183818 5.25351e-05
0.384362 0.0190848 5.22448e-05
0.384256 0.0171177 5.21052e-05
0.383811 0.0178578 5.15218e-05
0.384124 0.0177325 5.19334e-05
0.385085 0.017804 5.3192e-05
0.384023 0.0180557 5.18008e-05
0.38421 0.017017 0.000128507
0.384108 0.0176224 5.19122e-05
0.384924 0.0176585 5.29803e-05
0.385388 0.0170488 5.35891e-05
0.38396 0.0173391 5.17184e-05
0.383851 0.0186443 5.15749e-05
0.385125 0.016896 5.32444e-05
0.383834 0.0184534 5.15531e-05
0.386067 0.0153632 5.44775e-05
0.38336 0.0169074 0.00823971
0.384572 0.0174895 5.25197e-05
0.384889 0.0183235 9.50979e-05
0.383571 0.018535 0.00522286
0.384301 0.0172952 5.21647e-05
0.38386 0.0190057 5.15867e-05
0.383997 0.0204249 5.17662e-05
0.385041 0.0180031 5.31334e-05
0.384272 0.0170005 5.21271e-05
0.384253 0.0166268 5.21024e-05
0.385186 0.0206932 5.33243e-05
0.38441 0.0181414 5.23073e-05
0.383808 0.0179475 9.56896e-05
0.385136 0.0154015 5.32589e-05
0.384094 0.0178206 8.84889e-05
0.383903 0.018864 5.16441e-05
0.384739 0.0172129 5.27388e-05
0.387501 0.0145625 5.63555e-05
0.384702 0.0182078 5.26903e-05
0.383998 0.0187387 5.17683e-05
0.38456 0.0198571 5.2504e-05
0.384323 0.0183113 0.000107218
0.384247 0.0174825 5.20942e-05
0.38379 0.0183625 5.14951e-05
0.384335 0.0170692 8.94554e-05
0.384997 0.0161341 5.30769e-05
0.384825 0.018259 5.28512e-05
0.384252 0.0210736 5.21011e-05
0.383599 0.0190252 0.000120033
0.384805 0.0186896 5.28247e-05
0.383797 0.0177162 0.000219802
0.383576 0.0182495 0.000150621
0.384577 0.0172681 5.25269e-05
0.383757 0.0185573 5.14518e-05
0.384957 0.0177572 5.30246e-05
0.383954 0.0183132 5.17102e-05
0.384537 0.0180461 0.000128511
0.384346 0.0178493 5.22233e-05
0.383806 0.0207438 5.15163e-05
0.384812 0.0169702 5.28343e-05
0.383927 0.0199158 5.1675e-05
0.383957 0.0186367 5.17142e-05
0.384861 0.0185948 5.28981e-05
0.385006 0.0184002 5.30883e-05
0.383629 0.01881 5.12843e-05
0.384024 0.0176603 8.98669e-05
0.383643 0.018743 0.000124216
0.384681 0.0189793 5.2662e-05

VERTICES 269 538
1 0
1 1
1 2
1 3
1 4
1 5
1 6
1 7
1 8
1 9
1 10
1 11
1 12
1 13
1 14
1 15
1 16
1 17
1 18
1 19
1 20
1 21
1 22
1 23
1 24
1 25
1 26
1 27
1 28
1 29
1 30
1 31
1 32
1 33
1 34
1 35
1 36
1 37
1 38
1 39
1 40
1 41
1 42
1 43
1 44
1 45
1 46
1 47
1 48
1 49
1 50
1 51
1 52
1 53
1 54
1 55
1 56
1 57
1 58
1 59
1 60
1 61
1 62
1 63
1 64
1 65
1 66
1 67
1 68
1 69
1 70
1 71
1 72
1 73
1 74
1 75
1 76
1 77
1 78
1 79
1 80
1 81
1 82
1 83
1 84
1 85
1 86
1 87
1 88
1 89
1 90
1 91
1 92
1 93
1 94
1 95
1 96
1 97
1 98
1 99
1 100
1 101
1 102
1 103
1 104
1 105
1 106
1 107
1 108
1 109
1 110
1 111
1 112
1 113
1 114
1 115
1 116
1 117
1 118
1 119
1 120
1 121
1 122
1 123
1 124
1 125
1 126
1 127
1 128
1 129
1 130
1 131
1 132
1 133
1 134
1 135
1 136
1 137
1 138
1 139
1 140
1 141
1 142
1 143
1 144
1 145
1 146
1 147
1 148
1 149
1 150
1 151
1 152
1 153
1 154
1 155
1 156
1 157
1 158
1 159
1 160
1 161
1 162
1 163
1 164
1 165
1 166
1 167
1 168
1 169
1 170
1 171
1 172
1 173
1 174
1 175
1 176
1 177
1 178
1 179
1 180
1 181
1 182
1 183
1 184
1 185
1 186
1 187
1 188
1 189
1 190
1 191
1 192
1 193
1 194
1 195
1 196
1 197
1 198
1 199
1 200
1 201
1 202
1 203
1 204
1 205
1 206
1 207
1 208
1 209
1 210
1 211
1 212
1 213
1 214
1 215
1 216
1 217
1 218
1 219
1 220
1 221
1 222
1 223
1 224
1 225
1 226
1 227
1 228
1 229
1 230
1 231
1 232
1 233
1 234
1 235
1 236
1 237
1 238
1 239
1 240
1 241
1 242
1 243
1 244
1 245
1 246
1 247
1 248
1 249
1 250
1 251
1 252
1 253
1 254
1 255
1 256
1 257
1 258
1 259
1 260
1 261
1 262
1 263
1 264
1 265
1 266
1 267
1 268

POINT_DATA 269
SCALARS id int 1
LOOKUP_TABLE default
1
2
4
5
6
7
8
9
10
11
12
13
14
16
17
19
21
22
23
24
26
27
28
29
30
31
32
33
35
36
37
38
39
41
42
44
45
47
48
49
50
51
52
53
54
55
56
57
59
60
61
62
63
64
65
66
67
68
69
70
71
72
73
74
76
77
78
79
80
82
83
84
85
86
87
88
89
90
91
92
93
94
95
96
97
98
99
100
101
102
103
104
105
106
107
108
109
110
111
112
113
114
115
116
117
118
119
120
121
122
123
124
125
127
128
129
130
131
132
133
134
135
136
137
138
140
141
142
143
144
146
147
148
149
150
151
153
154
155
156
157
158
159
160
162
164
165
166
167
168
169
170
171
172
173
174
176
177
178
179
182
183
184
185
186
187
188
189
190
191
192
193
194
195
196
197
198
199
200
201
202
203
204
206
207
208
209
210
211
212
213
214
215
216
217
218
219
220
222
224
225
226
227
228
229
230
232
233
234
235
236
237
239
240
241
242
243
244
246
248
249
250
251
252
253
254
255
256
257
258
259
260
261
262
263
264
265
266
268
269
270
271
272
273
274
275
276
278
279
280
281
283
284
285
286
287
288
289
290
291
292
293
294
295
296
297
298
299
300

SCALARS type int 1
LOOKUP_TABLE default
1
1
1
1
1
1
1
1
1
1
1
1
1
1
1
1
1
1
1
1
1
1
1
1
1
1
1
1
1
1
1
1
1
1
1
1
1
1
1
1
1
1
1
1
1
1
1
1
1
1
1
1
1
1
1
1
1
1
1
1
1
1
1
1
1
1
1
1
1
1
1
1
1
1
1
1
1
1
1
1
1
1
1
1
1
1
1
1
1
1
1
1
1
1
1
1
1
1
1
1
1
1
1
1
1
1
1
1
1
1
1
1
1
1
1
1
1
1
1
1
1
1
1
1
1
1
1
1
1
1
1
1
1
1
1
1
1
1
1
1
1
1
1
1
1
1
1
1
1
1
1
1
1
1
1
1
1
1
1
1
1
1
1
1
1
1
1
1
1
1
1
1
1
1
1
1
1
1
1
1
1
1
1
1
1
1
1
1
1
1
1
1
1
1
1
1
1
1
1
1
1
1
1
1
1
1
1
1
1
1
1
1
1
1
1
1
1
1
1
1
1
1
1
1
1
1
1
1
1
1
1
1
1
1
1
1
1
1
1
1
1
1
1
1
1
1
1
1
1
1
1
1
1
1
1
1
1
1
1
1
1
1
1
1
1
1
1
1
1

SCALARS radius float 1
LOOKUP_TABLE default
5e-05
5e-05
5e-05
5e-05
5e-05
5e-05
5e-05
5e-05
5e-05
5e-05
5e-05
5e-05
5e-05
5e-05
5e-05
5e-05
5e-05
5e-05
5e-05
5e-05
5e-05
5e-05
5e-05
5e-05
5e-05
5e-05
5e-05
5e-05
5e-05
5e-05
5e-05
5e-05
5e-05
5e-05
5e-05
5e-05
5e-05
5e-05
5e-05
5e-05
5e-05
5e-05
5e-05
5e-05
5e-05
5e-05
5e-05
5e-05
5e-05
5e-05
5e-05
5e-05
5e-05
5e-05
5e-05
5e-05
5e-05
5e-05
5e-05
5e-05
5e-05
5e-05
5e-05
5e-05
5e-05
5e-05
5e-05
5e-05
5e-05
5e-05
5e-05
5e-05
5e-05
5e-05
5e-05
5e-05
5e-05
5e-05
5e-05
5e-05
5e-05
5e-05
5e-05
5e-05
5e-05
5e-05
5e-05
5e-05
5e-05
5e-05
5e-05
5e-05
5e-05
5e-05
5e-05
5e-05
5e-05
5e-05
5e-05
5e-05
5e-05
5e-05
5e-05
5e-05
5e-05
5e-05
5e-05
5e-05
5e-05
5e-05
5e-05
5e-05
5e-05
5e-05
5e-05
5e-05
5e-05
5e-05
5e-05
5e-05
5e-05
5e-05
5e-05
5e-05
5e-05
5e-05
5e-05
5e-05
5e-05
5e-05
5e-05
5e-05
5e-05
5e-05
5e-05
5e-05
5e-05
5e-05
5e-05
5e-05
5e-05
5e-05
5e-05
5e-05
5e-05
5e-05
5e-05
5e-05
5e-05
5e-05
5e-05
5e-05
5e-05
5e-05
5e-05
5e-05
5e-05
5e-05
5e-05
5e-05
5e-05
5e-05
5e-05
5e-05
5e-05
5e-05
5e-05
5e-05
5e-05
5e-05
5e-05
5e-05
5e-05
5e-05
5e-05
5e-05
5e-05
5e-05
5e-05
5e-05
5e-05
5e-05
5e-05
5e-05
5e-05
5e-05
5e-05
5e-05
5e-05
5e-05
5e-05
5e-05
5e-05
5e-05
5e-05
5e-05
5e-05
5e-05
5e-05
5e-05
5e-05
5e-05
5e-05
5e-05
5e-05
5e-05
5e-05
5e-05
5e-05
5e-05
5e-05
5e-05
5e-05
5e-05
5e-05
5e-05
5e-05
5e-05
5e-05
5e-05
5e-05
5e-05
5e-05
5e-05
5e-05
5e-05
5e-05
5e-05
5e-05
5e-05
5e-05
5e-05
5e-05
5e-05
5e-05
5e-05
5e-05
5e-05
5e-05
5e-05
5e-05
5e-05
5e-05
5e-05
5e-05
5e-05
5e-05
5e-05
5e-05
5e-05
5e-05
5e-05
5e-05
5e-05
5e-05
5e-05
5e-05
5e-05
5e-05
5e-05
5e-05
5e-05
5e-05
5e-05
5e-05
5e-05
5e-05
5e-05
5e-05

SCALARS mass float 1
LOOKUP_TABLE default
1.46608e-10
1.46608e-10
1.46608e-10
1.46608e-10
1.46608e-10
1.46608e-10
1.46608e-10
1.46608e-10
1.46608e-10
1.46608e-10
1.46608e-10
1.46608e-10
1.46608e-10
1.46608e-10
1.46608e-10
1.46608e-10
1.46608e-10
1.46608e-10
1.46608e-10
1.46608e-10
1.46608e-10
1.46608e-10
1.46608e-10
1.46608e-10
1.46608e-10
1.46608e-10
1.46608e-10
1.46608e-10
1.46608e-10
1.46608e-10
1.46608e-10
1.46608e-10
1.46608e-10
1.46608e-10
1.46608e-10
1.46608e-10
1.46608e-10
1.46608e-10
1.46608e-10
1.46608e-10
1.46608e-10
1.46608e-10
1.46608e-10
1.46608e-10
1.46608e-10
1.46608e-10
1.46608e-10
1.46608e-10
1.46608e-10
1.46608e-10
1.46608e-10
1.46608e-10
1.46608e-10
1.46608e-10
1.46608e-10
1.46608e-10
1.46608e-10
1.46608e-10
1.46608e-10
1.46608e-10
1.46608e-10
1.46608e-10
1.46608e-10
1.46608e-10
1.46608e-10
1.46608e-10
1.46608e-10
1.46608e-10
1.46608e-10
1.46608e-10
1.46608e-10
1.46608e-10
1.46608e-10
1.46608e-10
1.46608e-10
1.46608e-10
1.46608e-10
1.46608e-10
1.46608e-10
1.46608e-10
1.46608e-10
1.46608e-10
1.46608e-10
1.46608e-10
1.46608e-10
1.46608e-10
1.46608e-10
1.46608e-10
1.46608e-10
1.46608e-10
1.46608e-10
1.46608e-10
1.46608e-10
1.46608e-10
1.46608e-10
1.46608e-10
1.46608e-10
1.46608e-10
1.46608e-10
1.46608e-10
1.46608e-10
1.46608e-10
1.46608e-10
1.46608e-10
1.46608e-10
1.46608e-10
1.46608e-10
1.46608e-10
1.46608e-10
1.46608e-10
1.46608e-10
1.46608e-10
1.46608e-10
1.46608e-10
1.46608e-10
1.46608e-10
1.46608e-10
1.46608e-10
1.46608e-10
1.46608e-10
1.46608e-10
1.46608e-10
1.46608e-10
1.46608e-10
1.46608e-10
1.46608e-10
1.46608e-10
1.46608e-10
1.46608e-10
1.46608e-10
1.46608e-10
1.46608e-10
1.46608e-10
1.46608e-10
1.46608e-10
1.46608e-10
1.46608e-10
1.46608e-10
1.46608e-10
1.46608e-10
1.46608e-10
1.46608e-10
1.46608e-10
1.46608e-10
1.46608e-10
1.46608e-10
1.46608e-10
1.46608e-10
1.46608e-10
1.46608e-10
1.46608e-10
1.46608e-10
1.46608e-10
1.46608e-10
1.46608e-10
1.46608e-10
1.46608e-10
1.46608e-10
1.46608e-10
1.46608e-10
1.46608e-10
1.46608e-10
1.46608e-10
1.46608e-10
1.46608e-10
1.46608e-10
1.46608e-10
1.46608e-10
1.46608e-10
1.46608e-10
1.46608e-10
1.46608e-10
1.46608e-10
1.46608e-10
1.46608e-10
1.46608e-10
1.46608e-10
1.46608e-10
1.46608e-10
1.46608e-10
1.46608e-10
1.46608e-10
1.46608e-10
1.46608e-10
1.46608e-10
1.46608e-10
1.46608e-10
1.46608e-10
1.46608e-10
1.46608e-10
1.46608e-10
1.46608e-10
1.46608e-10
1.46608e-10
1.46608e-10
1.46608e-10
1.46608e-10
1.46608e-10
1.46608e-10
1.46608e-10
1.46608e-10
1.46608e-10
1.46608e-10
1.46608e-10
1.46608e-10
1.46608e-10
1.46608e-10
1.46608e-10
1.46608e-10
1.46608e-10
1.46608e-10
1.46608e-10
1.46608e-10
1.46608e-10
1.46608e-10
1.46608e-10
1.46608e-10
1.46608e-10
1.46608e-10
1.46608e-10
1.46608e-10
1.46608e-10
1.46608e-10
1.46608e-10
1.46608e-10
1.46608e-10
1.46608e-10
1.46608e-10
1.46608e-10
1.46608e-10
1.46608e-10
1.46608e-10
1.46608e-10
1.46608e-10
1.46608e-10
1.46608e-10
1.46608e-10
1.46608e-10
1.46608e-10
1.46608e-10
1.46608e-10
1.46608e-10
1.46608e-10
1.46608e-10
1.46608e-10
1.46608e-10
1.46608e-10
1.46608e-10
1.46608e-10
1.46608e-10
1.46608e-10
1.46608e-10
1.46608e-10
1.46608e-10
1.46608e-10
1.46608e-10
1.46608e-10
1.46608e-10
1.46608e-10
1.46608e-10
1.46608e-10
1.46608e-10
1.46608e-10
1.46608e-10
1.46608e-10
1.46608e-10
1.46608e-10
1.46608e-10
1.46608e-10

VECTORS velocity float
-7.81454e-15 2.19335e-15 1.18502e-15
2.24032e-18 -4.96191e-21 -1.71052e-15
8.43989e-20 -1.20763e-21 -6.5571e-17
2.24034e-18 -7.31549e-21 -1.71052e-15
1.79757e-18 2.41495e-21 -1.37249e-15
-3.50272e-19 -1.60682e-20 2.6738e-16
1.79759e-18 6.83418e-22 -1.37249e-15
2.81059e-18 9.0628e-21 -2.14593e-15
-9.20552e-19 5.76974e-21 7.02842e-16
2.81058e-18 1.59506e-21 -2.14593e-15
1.56309e-19 1.6339e-20 -1.12977e-16
1.79764e-18 -3.07877e-22 -1.37251e-15
8.71353e-19 1.26382e-20 -6.65298e-16
2.81058e-18 3.50255e-21 -2.14593e-15
2.24034e-18 2.82163e-21 -1.71051e-15
2.81055e-18 9.92309e-21 -2.14593e-15
-6.94016e-19 2.73958e-21 5.27388e-16
2.24034e-18 -3.4011e-23 -1.71051e-15
9.1689e-21 -9.5708e-21 -5.37652e-18
-9.85849e-20 2.70579e-21 7.4944e-17
5.56659e-21 -1.54269e-21 2.49282e-20
1.7976e-18 1.02022e-21 -1.37251e-15
-3.50113e-19 -7.1406e-22 2.67382e-16
-9.20522e-19 7.58947e-21 7.02842e-16
1.51271e-19 6.6601e-23 -1.12967e-16
1.86387e-20 -2.1984e-20 -4.81913e-18
3.91212e-15 -5.32143e-14 -2.74081e-13
3.65727e-20 -3.98619e-20 -5.29357e-18
1.79763e-18 -3.87278e-22 -1.37251e-15
3.11527e-20 1.35114e-20 -2.10532e-19
-7.07474e-19 1.9507e-20 5.3547e-16
2.24031e-18 2.39219e-20 -1.71052e-15
2.81054e-18 1.20996e-22 -2.14593e-15
2.24031e-18 -2.31452e-20 -1.71052e-15
-2.77256e-19 2.13406e-22 2.15965e-16
1.79763e-18 3.2433e-22 -1.37251e-15
2.24035e-18 4.17523e-22 -1.71051e-15
2.24034e-18 -5.01275e-22 -1.71051e-15
2.81054e-18 3.17932e-21 -2.14593e-15
2.81058e-18 7.62504e-21 -2.14593e-15
-8.08692e-05 -0.0120343 0.00914298
1.79763e-18 3.75061e-22 -1.37251e-15
6.78746e-14 1.57623e-14 -4.9055e-14
-1.1044e-13 2.87298e-13 -1.2943e-15
-3.50183e-19 3.33225e-22 2.67381e-16
-2.84036e-19 6.36364e-23 2.16671e-16
2.81057e-18 1.71836e-21 -2.14593e-15
-3.50166e-19 -1.20201e-21 2.67381e-16
-5.01977e-15 -7.41207e-15 7.69802e-14
1.79761e-18 -5.96222e-21 -1.37251e-15
1.01827e-13 -2.64792e-13 2.43038e-15
1.79764e-18 -9.28439e-21 -1.37251e-15
-8.86642e-23 1.25945e-20 -2.88402e-20
-1.46445e-15 -3.32094e-15 -2.09205e-14
2.24036e-18 1.06598e-22 -1.71051e-15
-3.9288e-18 -1.49433e-18 -9.63964e-20
-2.86526e-19 -2.40743e-21 2.1667e-16
3.48407e-19 -6.23655e-23 -2.65996e-16
2.00505e-18 -9.12106e-22 -1.5309e-15
2.24033e-18 7.5116e-21 -1.71051e-15
-3.50219e-19 1.7831e-20 2.6738e-16
-3.50189e-19 -6.67088e-22 2.67382e-16
1.79761e-18 -1.19401e-21 -1.37251e-15
8.80545e-20 2.30244e-22 -6.55705e-17
1.79759e-18 3.423e-22 -1.37249e-15
1.79756e-18 -4.49419e-21 -1.37249e-15
2.24032e-18 9.82677e-22 -1.71052e-15
-3.50172e-19 -1.46701e-21 2.67382e-16
2.24032e-18 3.87066e-20 -1.71051e-15
-3.50188e-19 -6.90831e-22 2.67382e-16
2.24036e-18 1.05465e-20 -1.71052e-15
-9.43966e-20 7.69126e-22 7.49431e-17
8.71384e-19 -1.34641e-21 -6.65297e-16
2.81055e-18 -9.02595e-21 -2.14593e-15
2.24033e-18 1.1686e-20 -1.71051e-15
1.79761e-18 4.20464e-23 -1.37249e-15
2.00507e-18 5.83078e-21 -1.5309e-15
-2.8311e-19 1.76746e-20 2.15994e-16
2.24036e-18 2.78988e-20 -1.71051e-15
-1.22341e-20 -1.34098e-20 -2.08882e-19
2.81055e-18 -3.7044e-21 -2.14593e-15
-3.50181e-19 -3.3015e-22 2.67382e-16
2.81051e-18 -2.47526e-22 -2.14593e-15
2.24033e-18 -4.80225e-21 -1.71052e-15
2.24037e-18 -4.6727e-22 -1.71052e-15
-9.20539e-19 -3.32146e-22 7.02843e-16
6.71834e-20 4.70244e-20 -5.32595e-18
1.79764e-18 7.14829e-22 -1.37251e-15
-3.50222e-19 -3.66574e-22 2.67381e-16
4.28207e-15 1.04844e-14 8.2961e-14
-5.44185e-15 6.5473e-15 4.46847e-14
2.81056e-18 2.06782e-21 -2.14593e-15
2.24035e-18 -1.20386e-21 -1.71052e-15
8.32384e-17 3.71314e-17 1.96249e-18
2.62903e-21 -2.02413e-22 -5.39358e-18
2.70569e-21 7.70895e-21 7.08695e-21
2.81055e-18 -3.11363e-22 -2.14593e-15
-2.88746e-19 1.85019e-21 2.16693e-16
3.14169e-21 -1.96381e-20 -4.75729e-18
2.00507e-18 1.63774e-21 -1.5309e-15
1.3044e-19 2.28395e-20 -1.12955e-16
2.24032e-18 6.20667e-20 -1.71052e-15
2.81054e-18 3.78372e-21 -2.14593e-15
1.7976e-18 6.65941e-22 -1.37249e-15
4.64111e-18 -1.80377e-14 -5.94669e-14
2.24033e-18 -1.29299e-20 -1.71052e-15
-1.72786e-20 -5.55604e-21 1.55406e-17
2.24033e-18 6.05368e-21 -1.71052e-15
1.45285e-18 -1.82875e-20 -1.10923e-15
1.79757e-18 -1.25925e-22 -1.37249e-15
8.71387e-19 -1.21598e-21 -6.65298e-16
-6.70097e-20 2.15493e-20 5.11809e-17
1.79762e-18 7.19816e-23 -1.37251e-15
2.24037e-18 -5.36154e-23 -1.71052e-15
2.24032e-18 -3.48273e-23 -1.71051e-15
4.89091e-19 -9.20754e-19 6.88227e-18
2.24036e-18 -9.50686e-21 -1.71052e-15
2.24036e-18 -1.97598e-22 -1.71051e-15
1.7976e-18 -3.54624e-22 -1.37251e-15
1.79761e-18 4.57972e-21 -1.37251e-15
9.22728e-20 -6.20507e-23 -6.55682e-17
-3.50168e-19 2.92664e-21 2.6738e-16
1.70606e-19 -1.14702e-21 -1.12972e-16
-3.50213e-19 -3.64973e-21 2.67381e-16
2.24032e-18 -5.18473e-22 -1.71052e-15
1.79761e-18 1.84541e-21 -1.37249e-15
-5.31509e-19 -4.83415e-21 4.04658e-16
1.79759e-18 -3.23893e-21 -1.37249e-15
-2.84852e-19 -8.69001e-21 2.16674e-16
1.51889e-17 -1.80377e-14 -5.94669e-14
-5.36517e-19 -4.79366e-22 4.04649e-16
-3.50196e-19 3.32952e-21 2.67381e-16
2.24035e-18 -5.69192e-22 -1.71051e-15
1.79763e-18 -1.2792e-21 -1.37251e-15
8.71356e-19 -2.40897e-21 -6.65297e-16
1.79764e-18 2.45619e-20 -1.37251e-15
1.494e-17 -1.60855e-16 2.65612e-16
1.79764e-18 1.91548e-22 -1.37251e-15
-5.31547e-19 -4.94564e-21 4.04653e-16
6.08136e-20 -8.24736e-20 -1.70723e-16
-3.83494e-14 8.1683e-14 2.95881e-13
2.24037e-18 1.03068e-22 -1.71052e-15
1.79764e-18 -1.08135e-23 -1.37251e-15
7.66778e-21 1.76833e-22 1.13217e-22
-3.50216e-19 -4.44482e-21 2.67381e-16
-9.20572e-19 1.10944e-20 7.02843e-16
-1.5414e-19 3.9084e-20 -5.24066e-18
2.81054e-18 -2.17782e-21 -2.14593e-15
1.7976e-18 -5.95382e-22 -1.37251e-15
2.24034e-18 -1.04026e-21 -1.71052e-15
-3.50203e-19 3.31376e-21 2.67382e-16
1.79761e-18 -1.52614e-21 -1.37251e-15
-9.13768e-20 7.0025e-21 7.49371e-17
1.79757e-18 7.93145e-22 -1.37249e-15
2.24032e-18 1.09329e-20 -1.71052e-15
1.79763e-18 -3.66425e-22 -1.37251e-15
-2.28606e-22 9.92966e-21 -5.33128e-18
1.79761e-18 -7.15324e-21 -1.37251e-15
8.71356e-19 -2.03093e-22 -6.65297e-16
2.81054e-18 7.35446e-22 -2.14593e-15
1.79757e-18 -5.72545e-22 -1.37249e-15
8.71365e-19 -6.16689e-22 -6.65297e-16
1.79757e-18 1.68247e-21 -1.37249e-15
6.02534e-14 9.31283e-14 5.0074e-14
-3.50174e-19 1.82407e-20 2.67381e-16
-2.96968e-20 -4.10377e-20 7.51076e-18
-9.61035e-21 -6.41837e-21 -5.30188e-18
2.24034e-18 8.2277e-22 -1.71052e-15
-3.50216e-19 2.26079e-21 2.67381e-16
2.24034e-18 1.70723e-22 -1.71052e-15
2.24034e-18 9.26016e-22 -1.71052e-15
-3.50175e-19 -1.31416e-21 2.67382e-16
-7.23288e-21 1.324e-21 -5.42201e-21
1.79758e-18 5.84206e-21 -1.37249e-15
1.79762e-18 -8.84047e-22 -1.37251e-15
-4.74002e-17 -2.73422e-17 -5.91894e-17
-3.50186e-19 -7.64797e-21 2.67381e-16
2.8106e-18 5.7455e-21 -2.14593e-15
1.79761e-18 3.93921e-21 -1.37249e-15
-2.81022e-19 -1.16679e-21 2.15966e-16
-4.04892e-18 -1.55421e-18 5.33776e-19
2.24036e-18 1.82037e-21 -1.71052e-15
2.81057e-18 -2.8435e-22 -2.14593e-15
2.24033e-18 -8.31873e-21 -1.71052e-15
1.7976e-18 1.36978e-20 -1.37251e-15
-8.03205e-22 -7.80211e-21 2.29313e-20
3.46449e-19 -6.99241e-21 -2.65993e-16
2.24035e-18 -1.21414e-20 -1.71051e-15
4.02362e-20 -3.00951e-21 -5.03907e-18
2.81057e-18 -1.80231e-22 -2.14593e-15
1.79758e-18 9.45548e-22 -1.37249e-15
2.24031e-18 1.3453e-21 -1.71051e-15
1.79761e-18 -6.08558e-22 -1.37249e-15
2.24036e-18 5.96391e-21 -1.71052e-15
-3.5017e-19 4.33135e-23 2.67382e-16
1.79762e-18 6.35805e-23 -1.37251e-15
8.71374e-19 -2.81032e-22 -6.65297e-16
6.13648e-21 -7.06024e-21 2.76894e-20
8.71365e-19 1.31951e-20 -6.65297e-16
2.24032e-18 -1.76423e-21 -1.71052e-15
1.79759e-18 -1.08019e-22 -1.37251e-15
1.79762e-18 6.49107e-23 -1.37251e-15
3.32631e-18 -8.15949e-18 7.67633e-18
1.79755e-18 4.41713e-21 -1.37249e-15
-6.89028e-19 -1.40008e-21 5.27391e-16
1.79763e-18 6.07125e-23 -1.37251e-15
-3.5022e-19 2.05447e-21 2.67381e-16
-2.13126e-20 6.1552e-20 6.59062e-18
5.65528e-20 -1.04367e-19 -4.96034e-18
1.44937e-19 -3.09692e-21 -1.12948e-16
1.79757e-18 3.60621e-22 -1.37249e-15
1.79759e-18 4.34819e-23 -1.37249e-15
7.67294e-17 -1.76912e-17 -8.19316e-17
-9.74198e-22 -6.07002e-21 -5.41833e-18
1.79762e-18 1.97066e-21 -1.37251e-15
1.45286e-18 -4.23414e-21 -1.10924e-15
2.24034e-18 -1.66494e-22 -1.71052e-15
-3.50222e-19 -2.26956e-23 2.67382e-16
2.24031e-18 -2.81281e-21 -1.71052e-15
-3.50168e-19 -1.58056e-21 2.67381e-16
1.45286e-18 -2.16468e-23 -1.10923e-15
0.000114913 0.0100139 -0.0088157
7.80989e-15 -2.1909e-15 1.20823e-15
3.3988e-19 1.74689e-21 -2.65993e-16
-7.98402e-15 2.53761e-14 1.31295e-13
2.24032e-18 1.17449e-21 -1.71052e-15
-3.50174e-19 5.77591e-24 2.67381e-16
8.71347e-19 -9.22357e-22 -6.65297e-16
-5.2893e-19 -5.33397e-22 4.04648e-16
1.68443e-19 1.05962e-19 7.28373e-18
-9.20553e-19 -2.16536e-21 7.02844e-16
-2.31199e-19 6.88885e-21 1.76521e-16
-2.91078e-19 1.05871e-20 2.15975e-16
-1.04702e-19 -1.96292e-19 -4.80585e-18
1.45284e-18 -3.04194e-21 -1.10923e-15
1.56081e-19 -4.25187e-20 -1.12931e-16
2.81055e-18 4.01357e-24 -2.14593e-15
-9.20524e-19 -1.95223e-22 7.02843e-16
-6.70206e-20 -2.58053e-21 5.11804e-17
-2.84306e-19 8.37917e-22 2.16682e-16
-9.65419e-20 1.35308e-21 7.49404e-17
8.71367e-19 4.06686e-20 -6.65297e-16
8.80768e-20 8.96515e-21 -6.55706e-17
-9.20545e-19 2.8746e-21 7.02843e-16
1.79764e-18 1.17347e-22 -1.37251e-15
1.1551e-18 6.42135e-21 7.11958e-18
2.24031e-18 4.59645e-20 -1.71052e-15
3.50554e-19 -9.72222e-22 -2.65994e-16
2.00503e-18 -2.6179e-21 -1.5309e-15
-7.01232e-21 4.85249e-23 -1.6353e-22
1.79756e-18 -3.21757e-21 -1.37249e-15
-2.56304e-18 -1.05502e-18 -5.43137e-20
1.37645e-20 3.79051e-21 2.5524e-21
2.24032e-18 -9.95767e-21 -1.71051e-15
-3.50168e-19 -5.04728e-22 2.67382e-16
1.79761e-18 -9.6608e-22 -1.37251e-15
1.79758e-18 1.87013e-21 -1.37249e-15
-4.01445e-21 9.1869e-22 2.1633e-16
1.79757e-18 2.42589e-21 -1.37249e-15
2.00508e-18 2.68533e-22 -1.5309e-15
2.24031e-18 -1.34797e-23 -1.71051e-15
2.81054e-18 2.94306e-21 -2.14593e-15
2.81059e-18 3.71247e-21 -2.14593e-15
1.79758e-18 -1.91734e-21 -1.37249e-15
1.79761e-18 5.62697e-22 -1.37249e-15
-6.91979e-19 2.39807e-21 5.27383e-16
-3.30368e-21 2.71368e-20 -5.37293e-18
-6.82547e-19 -2.07828e-21 5.27392e-16
-3.50171e-19 1.77003e-21 2.67381e-16

VECTORS force float
7.16099e-20 -2.0088e-20 9.40918e-23
4.03897e-28 4.7792e-26 0.0
0.0 0.0 0.0
4.03897e-28 -3.33303e-25 0.0
4.03897e-28 4.34064e-27 0.0
0.0 1.15506e-25 0.0
0.0 -6.15262e-26 0.0
0.0 1.87492e-25 0.0
4.03897e-28 -6.24178e-26 0.0
0.0 -1.91166e-26 0.0
1.29247e-26 5.16988e-26 0.0
0.0 7.01921e-27 0.0
0.0 1.3998e-25 0.0
0.0 -4.01196e-26 0.0
0.0 -8.04851e-27 0.0
0.0 4.73107e-26 0.0
0.0 0.0 0.0
0.0 8.78089e-26 0.0
-1.29247e-26 0.0 0.0
0.0 0.0 0.0
0.0 -6.46235e-27 0.0
0.0 -3.18216e-26 0.0
0.0 -1.00433e-26 0.0
0.0 -8.9216e-26 0.0
0.0 0.0 0.0
0.0 5.16988e-26 0.0
1.51039e-21 -1.29661e-22 4.85969e-23
-1.29247e-26 1.29247e-25 0.0
0.0 -3.8066e-26 0.0
-1.03398e-25 0.0 0.0
4.20053e-26 -1.9387e-26 0.0
0.0 4.24491e-26 0.0
0.0 -3.20787e-26 0.0
0.0 1.28907e-25 0.0
0.0 0.0 0.0
0.0 -4.37948e-27 0.0
0.0 -8.54026e-27 0.0
0.0 -7.55125e-28 0.0
0.0 1.81323e-26 0.0
0.0 -1.82573e-26 0.0
-1.34962e-12 1.43528e-10 -8.50163e-11
-4.03897e-28 -6.41021e-27 0.0
-4.63659e-19 -4.27442e-19 1.99524e-19
3.8053e-19 -1.13368e-18 -1.77637e-21
0.0 -1.28669e-26 0.0
0.0 0.0 0.0
-4.03897e-28 -1.71065e-26 0.0
0.0 -1.35155e-26 0.0
1.04432e-23 3.36042e-25 6.20385e-25
0.0 7.15772e-26 0.0
-4.28857e-19 9.73566e-19 5.83369e-21
0.0 5.95521e-26 0.0
1.29247e-26 0.0 0.0
2.36522e-24 -3.10193e-25 -2.06795e-25
0.0 -1.62061e-27 0.0
2.06795e-25 0.0 -8.72417e-26
0.0 0.0 0.0
3.23117e-27 0.0 0.0
0.0 -4.21393e-27 0.0
-4.03897e-28 -3.32903e-25 0.0
0.0 5.44406e-25 0.0
0.0 8.5674e-27 0.0
0.0 -1.12338e-26 0.0
0.0 0.0 0.0
0.0 -5.83527e-28 0.0
0.0 4.78551e-26 0.0
0.0 2.41826e-26 0.0
-4.03897e-28 1.88803e-26 0.0
0.0 -2.74848e-25 0.0
-4.03897e-28 2.63424e-27 0.0
0.0 1.06914e-25 0.0
0.0 0.0 0.0
0.0 5.6829e-28 0.0
0.0 -2.12679e-26 0.0
4.03897e-28 1.42575e-25 0.0
0.0 1.7191e-26 0.0
0.0 -2.70076e-26 0.0
0.0 0.0 0.0
0.0 2.06797e-24 0.0
-7.75482e-26 1.03398e-25 0.0
4.03897e-28 9.14124e-27 0.0
0.0 2.77257e-26 0.0
0.0 -1.21976e-26 0.0
0.0 -2.88583e-26 0.0
0.0 6.2442e-27 0.0
0.0 -5.97346e-28 0.0
0.0 -2.58494e-26 0.0
0.0 -1.72928e-27 0.0
0.0 2.38883e-26 0.0
1.06611e-21 -4.68753e-22 6.41065e-24
-7.04965e-22 -7.19673e-22 2.00591e-23
0.0 -4.15942e-26 0.0
0.0 1.19593e-26 0.0
1.44757e-24 -4.4461e-24 -6.20385e-25
-2.58494e-26 2.58494e-26 0.0
1.29247e-26 -1.03398e-25 0.0
0.0 -6.9152e-27 0.0
-1.03398e-25 -1.29247e-26 0.0
5.16988e-26 0.0 0.0
0.0 -6.10221e-27 0.0
-7.75482e-26 0.0 0.0
0.0 -8.03364e-25 0.0
0.0 -8.33442e-26 0.0
0.0 -1.16904e-26 0.0
1.66153e-25 0.0 0.0
0.0 2.29332e-25 0.0
-2.58494e-26 0.0 -4.1359e-25
0.0 -2.03203e-26 0.0
0.0 -2.16129e-25 0.0
0.0 -1.0653e-26 0.0
0.0 -6.56066e-26 0.0
0.0 4.73646e-25 0.0
0.0 4.11593e-28 0.0
0.0 6.25222e-27 0.0
0.0 6.11947e-28 0.0
-4.1359e-25 1.65436e-24 4.1359e-25
0.0 1.76561e-25 0.0
0.0 -1.86403e-26 0.0
0.0 1.1711e-27 0.0
0.0 -9.13479e-27 0.0
0.0 0.0 0.0
0.0 8.76514e-26 0.0
1.03398e-25 5.16988e-26 0.0
0.0 3.14475e-26 0.0
0.0 -4.77951e-28 0.0
0.0 2.81305e-26 0.0
0.0 0.0 0.0
0.0 3.76462e-26 0.0
7.75482e-26 0.0 0.0
-3.70885e-23 0.0 0.0
-2.58494e-26 5.16988e-26 0.0
0.0 8.30243e-26 0.0
0.0 7.03358e-27 0.0
0.0 -1.7978e-26 0.0
0.0 1.26237e-26 0.0
0.0 -1.90438e-25 0.0
-1.77715e-26 -2.58494e-26 2.06795e-25
0.0 7.07022e-28 0.0
0.0 0.0 0.0
-5.16988e-26 2.58494e-26 0.0
-7.42395e-22 -3.4147e-22 -5.16988e-24
0.0 -8.0616e-28 0.0
0.0 1.98749e-26 0.0
0.0 -3.87741e-26 7.4317e-26
4.03897e-28 -1.49208e-26 0.0
0.0 -1.64307e-26 0.0
1.55096e-25 -1.29247e-25 0.0
0.0 -6.70854e-27 0.0
0.0 -2.94273e-26 0.0
0.0 2.5555e-25 0.0
0.0 1.09837e-25 0.0
0.0 2.25721e-25 0.0
0.0 0.0 0.0
0.0 2.94543e-26 0.0
0.0 -8.14108e-26 0.0
4.03897e-28 -3.0772e-27 0.0