# vtk DataFile Version 3.0
LIGGGHTS particles timestep 30600000
ASCII
DATASET POLYDATA
POINTS 275 float
0.191728 0.0184495 0.00685718
0.191379 0.0171951 0.00722037
0.191531 0.0170803 0.00728599
0.190908 0.0154256 0.00860444
0.197323 0.0169715 0.0074548
0.191761 0.0177604 0.00706694
0.191381 0.0168212 0.00748475
0.197514 0.0178285 0.00697613
0.191038 0.0158609 0.00821519
0.191516 0.0178569 0.0070413
0.185575 0.0169181 0.00749495
0.190887 0.0153835 0.00869263
0.185559 0.0176333 0.00709997
0.185811 0.0179609 0.00694773
0.191016 0.0157841 0.00827511
0.190867 0.0153451 0.00878274
0.1918 0.0179472 0.00700729
0.191342 0.0166643 0.00760249
0.185776 0.0177768 0.00701747
0.197438 0.0174856 0.00716764
0.191083 0.0160143 0.00809508
0.197476 0.017657 0.00707188
0.185404 0.0169485 0.00748369
0.191455 0.017136 0.00724877
0.190848 0.0153118 0.00887501
0.191168 0.0163263 0.00786058
0.191836 0.0176969 0.00708525
0.191102 0.0160962 0.00804086
0.197343 0.0170571 0.00740696
0.190994 0.0157101 0.00833876
0.191722 0.0175716 0.00711957
0.197573 0.018118 0.00692518
0.191512 0.0170018 0.0073449
0.191588 0.0173494 0.00717223
0.197457 0.0175713 0.00711976
0.19095 0.0155611 0.00846487
0.191626 0.0171056 0.00726261
0.191683 0.0173811 0.00716636
0.197362 0.0171427 0.00735913
0.190972 0.0156353 0.00840142
0.191575 0.0181372 0.00695204
0.197534 0.0179242 0.00695487
0.191127 0.01617 0.00797802
0.191856 0.0177904 0.00705549
0.185635 0.0171768 0.00735053
0.1974 0.0173141 0.00726339
0.191915 0.0180706 0.00696622
0.185576 0.017318 0.00727385
0.19197 0.0179138 0.00701442
0.197381 0.0172284 0.00731127
0.378022 0.019866 0.005332
0.191702 0.0174763 0.00714296
0.190929 0.0154864 0.00852772
0.191607 0.0174447 0.00714882
0.191614 0.018324 0.00689251
0.197419 0.0173999 0.00721551
0.185615 0.0174893 0.00717824
0.185578 0.0177248 0.00706446
0.19182 0.0180406 0.00697753
0.191513 0.017413 0.00715469
0.191895 0.0179772 0.00699597
0.197495 0.0177427 0.00702401
0.185906 0.0179931 0.00694644
0.191784 0.0182909 0.00689957
0.191059 0.0159379 0.00815487
0.191145 0.0162499 0.00792086
0.185518 0.017061 0.00741732
0.191399 0.0172861 0.00718394
0.184835 0.0153271 0.00897985
0.185871 0.0182536 0.00692125
0.191473 0.0172223 0.00720154
0.185495 0.0172107 0.00743334
0.185595 0.0170043 0.00744685
0.197553 0.0180211 0.00694002
0.186042 0.0182192 0.00692763
0.191663 0.0172859 0.00718977
0.191437 0.017057 0.00730792
0.191666 0.0177303 0.0070783
0.191552 0.0176035 0.00710788
0.191764 0.0181974 0.00692934
0.185556 0.0168324 0.00754277
0.191611 0.0178871 0.00703036
0.191227 0.0165615 0.0076841
0.191536 0.0179503 0.00701155
0.191457 0.0175718 0.00711374
0.191591 0.0177937 0.00706
0.18494 0.0155663 0.00855354
0.191208 0.0164829 0.00774304
0.185672 0.0181799 0.00692455
0.191781 0.0178538 0.00703705
0.185692 0.0182776 0.0069157
0.0643568 0.0187248 0.00531097
0.24257 0.0191927 0.00520306
0.185831 0.0180585 0.00693889
0.184897 0.0154706 0.00872394
0.185668 0.0177532 0.00703115
0.184855 0.015375 0.00889454
0.19184 0.018134 0.00694777
0.191797 0.0175079 0.00713713
0.191361 0.0171128 0.00727408
0.191323 0.0169547 0.00739069
0.18498 0.015662 0.00838278
0.185463 0.0176061 0.0071173
0.185558 0.0180499 0.0069347
0.191644 0.0171906 0.00721317
0.191745 0.018104 0.0069591
0.191741 0.0176668 0.00709617
0.185673 0.0173483 0.00725484
0.191859 0.0182274 0.00691802
0.191361 0.0167427 0.00754362
0.191751 0.018548 0.00685578
0.191571 0.0176987 0.00708449
0.185927 0.0180906 0.00693762
0.191248 0.0166399 0.00762559
0.191647 0.0176351 0.00710202
0.184918 0.0155193 0.0086391
0.191187 0.0164066 0.00780397
0.191496 0.0177623 0.00706695
0.185634 0.0179843 0.00694226
0.185653 0.0180822 0.00693339
0.19155 0.0171637 0.00723397
0.191689 0.0182608 0.00691091
0.191725 0.0180106 0.00698886
0.191875 0.0178838 0.00702573
0.185557 0.0172323 0.00732167
0.191477 0.0176671 0.00709034
0.19167 0.0181674 0.00694067
0.191418 0.017382 0.00716309
0.185399 0.0165463 0.00770462
0.185828 0.0176444 0.0070875
0.184877 0.0154228 0.00880941
0.185713 0.0175199 0.00715902
0.185024 0.0157637 0.00821615
0.185744 0.0176934 0.00706236
0.185419 0.016632 0.0076568
0.191285 0.0167969 0.00750754
0.185893 0.0183513 0.00691246
0.185756 0.0185698 0.00688937
0.18544 0.0167183 0.00760857
0.185002 0.0157119 0.00829876
0.185106 0.0160579 0.00796092
0.185378 0.0164607 0.00775244
0.0219312 0.0187687 0.00551176
0.18548 0.0168896 0.00751296
0.191568 0.0172542 0.00719564
0.185659 0.0185377 0.0068906
0.185597 0.0182453 0.00691701
0.185167 0.0163183 0.00782688
0.185817 0.0184156 0.006905
0.191594 0.0182306 0.00692227
0.185914 0.0184485 0.00690369
0.185968 0.0182855 0.00692003
0.185838 0.0185131 0.00689621
0.18586 0.0186103 0.00688746
0.191803 0.0183847 0.00686968
0.185444 0.0175204 0.00716513
0.19165 0.0180739 0.00697045
0.185208 0.0164931 0.00773864
0.1855 0.0173764 0.00724336
0.185086 0.0159765 0.00801564
0.185519 0.0178585 0.00697641
0.185681 0.018635 0.00688184
0.191825 0.0184816 0.00685783
0.185613 0.0178876 0.0069581
0.191555 0.0180439 0.00698226
0.185732 0.0176067 0.0071106
0.186001 0.0180246 0.00694521
0.191709 0.0183542 0.00688115
0.191627 0.0175399 0.00712542
0.191675 0.0186129 0.00685375
0.17963 0.0183992 0.00700802
0.191305 0.0168753 0.00744864
0.1855 0.0177728 0.00702423
0.19188 0.0183208 0.00688834
0.185533 0.017636 0.00719656
0.185775 0.0182208 0.00692258
0.185735 0.0180256 0.00694024
0.179311 0.0168978 0.00739162
0.185614 0.0170901 0.00739896
0.18554 0.0179552 0.00696084
0.184961 0.0156153 0.0084691
0.185795 0.0183184 0.00691376
0.185499 0.0169757 0.00746591
0.191706 0.0179171 0.00701862
0.185797 0.0178691 0.00698465
0.185344 0.0166908 0.00762607
0.185385 0.0168622 0.00753034
0.185262 0.0163478 0.00781522
0.185654 0.0172626 0.00730265
0.185595 0.0174037 0.00722604
0.191399 0.0168998 0.0074258
0.191418 0.0169785 0.00736683
0.185851 0.0181561 0.00693007
0.191653 0.0185153 0.00685514
0.191493 0.0173178 0.0071781
0.179524 0.0179162 0.00708221
0.185242 0.0162599 0.00785914
0.1919 0.0184145 0.00685988
0.185578 0.0181476 0.00692586
0.191266 0.0167184 0.00756637
0.185616 0.018343 0.00690816
0.191816 0.0176031 0.00711373
0.185424 0.0170335 0.00743472
0.191342 0.0170326 0.00733073
0.185485 0.0177 0.00709104
0.179544 0.0180129 0.00706732
0.179485 0.0177223 0.0071121
0.185947 0.018188 0.00692883
0.185329 0.0170061 0.00745211
0.185638 0.0184405 0.00689937
0.185801 0.0187655 0.00687175
0.191532 0.0175083 0.00713128
0.18529 0.0168362 0.00754994
0.185386 0.0172632 0.00730863
0.185405 0.0173489 0.00726079
0.179217 0.0165337 0.00772103
0.179274 0.0167521 0.00752347
0.179197 0.0164609 0.00778679
0.185044 0.0158269 0.00814139
0.185716 0.0179279 0.00694908
0.179237 0.0166064 0.00765527
0.179407 0.0173398 0.00719715
0.185229 0.0165799 0.00769333
0.185539 0.0175478 0.00714772
0.179348 0.0170572 0.00727916
0.185303 0.0165198 0.00772156
0.191686 0.0178237 0.00704838
0.179426 0.017434 0.00717008
0.179608 0.0183026 0.00702284
0.179368 0.0171512 0.00725128
0.184814 0.0152793 0.00906515
0.185889 0.017895 0.00695535
0.18546 0.0168039 0.00756077
0.185519 0.0174621 0.00719553
0.179446 0.0175295 0.0071477
0.185779 0.0186682 0.00688051
0.185481 0.0172907 0.00729119
0.185425 0.0174346 0.00721296
0.179329 0.0169707 0.00732562
0.185127 0.0161435 0.0079138
0.179651 0.0184957 0.0069932
0.185713 0.0183751 0.00690691
0.185324 0.0166052 0.00767382
0.185693 0.0174339 0.00720704
0.185702 0.0178376 0.00698967
0.191438 0.0174766 0.00713715
0.185702 0.0187322 0.00687308
0.179504 0.0178192 0.00709715
0.185365 0.0167766 0.00757811
0.179465 0.0176254 0.00712704
0.185188 0.0164058 0.00778278
0.185283 0.0164343 0.00776929
0.185249 0.0166657 0.00764653
0.185634 0.017575 0.00713045
0.17956 0.0176576 0.00712481
0.179565 0.0181096 0.00705247
0.185735 0.0184726 0.00689813
0.179256 0.0166792 0.00758943
0.185348 0.0170918 0.00740429
0.185443 0.0171192 0.0073869
0.185147 0.0162344 0.00787714
0.18531 0.0169215 0.00750175
0.185755 0.0181232 0.0069314
0.185066 0.0158993 0.00807584
0.185537 0.0171467 0.0073695
0.185653 0.0176661 0.00709411
0.185724 0.0188295 0.00686432
0.185462 0.017205 0.00733903
0.185367 0.0171775 0.00735646
0.179587 0.0182061 0.00703765
0.18527 0.016751 0.00759833
0.191634 0.0184175 0.00686276
0.179294 0.0168247 0.00745781
0.179387 0.0172455 0.00722422
0.19163 0.0179804 0.0070002

VERTICES 275 550
1 0
1 1
1 2
1 3
1 4
1 5
1 6
1 7
1 8
1 9
1 10
1 11
1 12
1 13
1 14
1 15
1 16
1 17
1 18
1 19
1 20
1 21
1 22
1 23
1 24
1 25
1 26
1 27
1 28
1 29
1 30
1 31
1 32
1 33
1 34
1 35
1 36
1 37
1 38
1 39
1 40
1 41
1 42
1 43
1 44
1 45
1 46
1 47
1 48
1 49
1 50
1 51
1 52
1 53
1 54
1 55
1 56
1 57
1 58
1 59
1 60
1 61
1 62
1 63
1 64
1 65
1 66
1 67
1 68
1 69
1 70
1 71
1 72
1 73
1 74
1 75
1 76
1 77
1 78
1 79
1 80
1 81
1 82
1 83
1 84
1 85
1 86
1 87
1 88
1 89
1 90
1 91
1 92
1 93
1 94
1 95
1 96
1 97
1 98
1 99
1 100
1 101
1 102
1 103
1 104
1 105
1 106
1 107
1 108
1 109
1 110
1 111
1 112
1 113
1 114
1 115
1 116
1 117
1 118
1 119
1 120
1 121
1 122
1 123
1 124
1 125
1 126
1 127
1 128
1 129
1 130
1 131
1 132
1 133
1 134
1 135
1 136
1 137
1 138
1 139
1 140
1 141
1 142
1 143
1 144
1 145
1 146
1 147
1 148
1 149
1 150
1 151
1 152
1 153
1 154
1 155
1 156
1 157
1 158
1 159
1 160
1 161
1 162
1 163
1 164
1 165
1 166
1 167
1 168
1 169
1 170
1 171
1 172
1 173
1 174
1 175
1 176
1 177
1 178
1 179
1 180
1 181
1 182
1 183
1 184
1 185
1 186
1 187
1 188
1 189
1 190
1 191
1 192
1 193
1 194
1 195
1 196
1 197
1 198
1 199
1 200
1 201
1 202
1 203
1 204
1 205
1 206
1 207
1 208
1 209
1 210
1 211
1 212
1 213
1 214
1 215
1 216
1 217
1 218
1 219
1 220
1 221
1 222
1 223
1 224
1 225
1 226
1 227
1 228
1 229
1 230
1 231
1 232
1 233
1 234
1 235
1 236
1 237
1 238
1 239
1 240
1 241
1 242
1 243
1 244
1 245
1 246
1 247
1 248
1 249
1 250
1 251
1 252
1 253
1 254
1 255
1 256
1 257
1 258
1 259
1 260
1 261
1 262
1 263
1 264
1 265
1 266
1 267
1 268
1 269
1 270
1 271
1 272
1 273
1 274

POINT_DATA 275
SCALARS id int 1
LOOKUP_TABLE default
1
2
4
5
6
7
8
9
10
11
12
13
14
16
17
19
21
22
23
24
25
26
27
28
29
30
31
32
33
34
35
36
37
38
39
41
42
44
45
47
48
49
50
51
52
53
54
55
56
57
59
60
61
62
63
64
65
66
67
68
69
70
71
72
73
74
76
77
78
79
80
82
83
84
85
86
87
88
89
90
91
92
93
94
95
96
97
98
99
100
101
102
103
104
105
106
107
108
109
110
111
112
113
114
115
116
117
118
119
120
121
122
123
124
125
127
128
129
130
131
132
133
134
135
136
137
138
140
141
142
143
144
146
147
148
149
150
151
153
154
155
156
157
158
159
160
162
164
165
166
167
168
169
170
171
172
173
174
176
177
178
179
182
183
184
185
186
187
188
189
190
191
192
193
194
195
196
197
198
199
200
201
202
203
204
205
206
207
208
209
210
211
212
213
214
215
216
217
218
219
220
222
224
225
226
227
228
229
230
232
233
234
235
236
237
239
240
241
242
243
244
246
247
248
249
250
251
252
253
254
255
256
257
258
259
260
261
262
263
264
265
266
267
268
269
270
271
272
273
274
275
276
277
278
279
280
281
283
284
285
286
287
288
289
290
291
292
293
294
295
296
297
298
299
300

SCALARS type int 1
LOOKUP_TABLE default
1
1
1
1
1
1
1
1
1
1
1
1
1
1
1
1
1
1
1
1
1
1
1
1
1
1
1
1
1
1
1
1
1
1
1
1
1
1
1
1
1
1
1
1
1
1
1
1
1
1
1
1
1
1
1
1
1
1
1
1
1
1
1
1
1
1
1
1
1
1
1
1
1
1
1
1
1
1
1
1
1
1
1
1
1
1
1
1
1
1
1
1
1
1
1
1
1
1
1
1
1
1
1
1
1
1
1
1
1
1
1
1
1
1
1
1
1
1
1
1
1
1
1
1
1
1
1
1
1
1
1
1
1
1
1
1
1
1
1
1
1
1
1
1
1
1
1
1
1
1
1
1
1
1
1
1
1
1
1
1
1
1
1
1
1
1
1
1
1
1
1
1
1
1
1
1
1
1
1
1
1
1
1
1
1
1
1
1
1
1
1
1
1
1
1
1
1
1
1
1
1
1
1
1
1
1
1
1
1
1
1
1
1
1
1
1
1
1
1
1
1
1
1
1
1
1
1
1
1
1
1
1
1
1
1
1
1
1
1
1
1
1
1
1
1
1
1
1
1
1
1
1
1
1
1
1
1
1
1
1
1
1
1
1
1
1
1
1
1
1
1
1
1
1
1

SCALARS radius float 1
LOOKUP_TABLE default
5e-05
5e-05
5e-05
5e-05
5e-05
5e-05
5e-05
5e-05
5e-05
5e-05
5e-05
5e-05
5e-05
5e-05
5e-05
5e-05
5e-05
5e-05
5e-05
5e-05
5e-05
5e-05
5e-05
5e-05
5e-05
5e-05
5e-05
5e-05
5e-05
5e-05
5e-05
5e-05
5e-05
5e-05
5e-05
5e-05
5e-05
5e-05
5e-05
5e-05
5e-05
5e-05
5e-05
5e-05
5e-05
5e-05
5e-05
5e-05
5e-05
5e-05
5e-05
5e-05
5e-05
5e-05
5e-05
5e-05
5e-05
5e-05
5e-05
5e-05
5e-05
5e-05
5e-05
5e-05
5e-05
5e-05
5e-05
5e-05
5e-05
5e-05
5e-05
5e-05
5e-05
5e-05
5e-05
5e-05
5e-05
5e-05
5e-05
5e-05
5e-05
5e-05
5e-05
5e-05
5e-05
5e-05
5e-05
5e-05
5e-05
5e-05
5e-05
5e-05
5e-05
5e-05
5e-05
5e-05
5e-05
5e-05
5e-05
5e-05
5e-05
5e-05
5e-05
5e-05
5e-05
5e-05
5e-05
5e-05
5e-05
5e-05
5e-05
5e-05
5e-05
5e-05
5e-05
5e-05
5e-05
5e-05
5e-05
5e-05
5e-05
5e-05
5e-05
5e-05
5e-05
5e-05
5e-05
5e-05
5e-05
5e-05
5e-05
5e-05
5e-05
5e-05
5e-05
5e-05
5e-05
5e-05
5e-05
5e-05
5e-05
5e-05
5e-05
5e-05
5e-05
5e-05
5e-05
5e-05
5e-05
5e-05
5e-05
5e-05
5e-05
5e-05
5e-05
5e-05
5e-05
5e-05
5e-05
5e-05
5e-05
5e-05
5e-05
5e-05
5e-05
5e-05
5e-05
5e-05
5e-05
5e-05
5e-05
5e-05
5e-05
5e-05
5e-05
5e-05
5e-05
5e-05
5e-05
5e-05
5e-05
5e-05
5e-05
5e-05
5e-05
5e-05
5e-05
5e-05
5e-05
5e-05
5e-05
5e-05
5e-05
5e-05
5e-05
5e-05
5e-05
5e-05
5e-05
5e-05
5e-05
5e-05
5e-05
5e-05
5e-05
5e-05
5e-05
5e-05
5e-05
5e-05
5e-05
5e-05
5e-05
5e-05
5e-05
5e-05
5e-05
5e-05
5e-05
5e-05
5e-05
5e-05
5e-05
5e-05
5e-05
5e-05
5e-05
5e-05
5e-05
5e-05
5e-05
5e-05
5e-05
5e-05
5e-05
5e-05
5e-05
5e-05
5e-05
5e-05
5e-05
5e-05
5e-05
5e-05
5e-05
5e-05
5e-05
5e-05
5e-05
5e-05
5e-05
5e-05
5e-05
5e-05
5e-05
5e-05
5e-05
5e-05
5e-05
5e-05
5e-05
5e-05
5e-05
5e-05
5e-05
5e-05
5e-05
5e-05
5e-05
5e-05
5e-05
5e-05
5e-05
5e-05
5e-05

SCALARS mass float 1
LOOKUP_TABLE default
1.46608e-10
1.46608e-10
1.46608e-10
1.46608e-10
1.46608e-10
1.46608e-10
1.46608e-10
1.46608e-10
1.46608e-10
1.46608e-10
1.46608e-10
1.46608e-10
1.46608e-10
1.46608e-10
1.46608e-10
1.46608e-10
1.46608e-10
1.46608e-10
1.46608e-10
1.46608e-10
1.46608e-10
1.46608e-10
1.46608e-10
1.46608e-10
1.46608e-10
1.46608e-10
1.46608e-10
1.46608e-10
1.46608e-10
1.46608e-10
1.46608e-10
1.46608e-10
1.46608e-10
1.46608e-10
1.46608e-10
1.46608e-10
1.46608e-10
1.46608e-10
1.46608e-10
1.46608e-10
1.46608e-10
1.46608e-10
1.46608e-10
1.46608e-10
1.46608e-10
1.46608e-10
1.46608e-10
1.46608e-10
1.46608e-10
1.46608e-10
1.46608e-10
1.46608e-10
1.46608e-10
1.46608e-10
1.46608e-10
1.46608e-10
1.46608e-10
1.46608e-10
1.46608e-10
1.46608e-10
1.46608e-10
1.46608e-10
1.46608e-10
1.46608e-10
1.46608e-10
1.46608e-10
1.46608e-10
1.46608e-10
1.46608e-10
1.46608e-10
1.46608e-10
1.46608e-10
1.46608e-10
1.46608e-10
1.46608e-10
1.46608e-10
1.46608e-10
1.46608e-10
1.46608e-10
1.46608e-10
1.46608e-10
1.46608e-10
1.46608e-10
1.46608e-10
1.46608e-10
1.46608e-10
1.46608e-10
1.46608e-10
1.46608e-10
1.46608e-10
1.46608e-10
1.46608e-10
1.46608e-10
1.46608e-10
1.46608e-10
1.46608e-10
1.46608e-10
1.46608e-10
1.46608e-10
1.46608e-10
1.46608e-10
1.46608e-10
1.46608e-10
1.46608e-10
1.46608e-10
1.46608e-10
1.46608e-10
1.46608e-10
1.46608e-10
1.46608e-10
1.46608e-10
1.46608e-10
1.46608e-10
1.46608e-10
1.46608e-10
1.46608e-10
1.46608e-10
1.46608e-10
1.46608e-10
1.46608e-10
1.46608e-10
1.46608e-10
1.46608e-10
1.46608e-10
1.46608e-10
1.46608e-10
1.46608e-10
1.46608e-10
1.46608e-10
1.46608e-10
1.46608e-10
1.46608e-10
1.46608e-10
1.46608e-10
1.46608e-10
1.46608e-10
1.46608e-10
1.46608e-10
1.46608e-10
1.46608e-10
1.46608e-10
1.46608e-10
1.46608e-10
1.46608e-10
1.46608e-10
1.46608e-10
1.46608e-10
1.46608e-10
1.46608e-10
1.46608e-10
1.46608e-10
1.46608e-10
1.46608e-10
1.46608e-10
1.46608e-10
1.46608e-10
1.46608e-10
1.46608e-10
1.46608e-10
1.46608e-10
1.46608e-10
1.46608e-10
1.46608e-10
1.46608e-10
1.46608e-10
1.46608e-10
1.46608e-10
1.46608e-10
1.46608e-10
1.46608e-10
1.46608e-10
1.46608e-10
1.46608e-10
1.46608e-10
1.46608e-10
1.46608e-10
1.46608e-10
1.46608e-10
1.46608e-10
1.46608e-10
1.46608e-10
1.46608e-10
1.46608e-10
1.46608e-10
1.46608e-10
1.46608e-10
1.46608e-10
1.46608e-10
1.46608e-10
1.46608e-10
1.46608e-10
1.46608e-10
1.46608e-10
1.46608e-10
1.46608e-10
1.46608e-10
1.46608e-10
1.46608e-10
1.46608e-10
1.46608e-10
1.46608e-10
1.46608e-10
1.46608e-10
1.46608e-10
1.46608e-10
1.46608e-10
1.46608e-10
1.46608e-10
1.46608e-10
1.46608e-10
1.46608e-10
1.46608e-10
1.46608e-10
1.46608e-10
1.46608e-10
1.46608e-10
1.46608e-10
1.46608e-10
1.46608e-10
1.46608e-10
1.46608e-10
1.46608e-10
1.46608e-10
1.46608e-10
1.46608e-10
1.46608e-10
1.46608e-10
1.46608e-10
1.46608e-10
1.46608e-10
1.46608e-10
1.46608e-10
1.46608e-10
1.46608e-10
1.46608e-10
1.46608e-10
1.46608e-10
1.46608e-10
1.46608e-10
1.46608e-10
1.46608e-10
1.46608e-10
1.46608e-10
1.46608e-10
1.46608e-10
1.46608e-10
1.46608e-10
1.46608e-10
1.46608e-10
1.46608e-10
1.46608e-10
1.46608e-10
1.46608e-10
1.46608e-10
1.46608e-10
1.46608e-10
1.46608e-10
1.46608e-10
1.46608e-10
1.46608e-10
1.46608e-10
1.46608e-10
1.46608e-10
1.46608e-10
1.46608e-10
1.46608e-10
1.46608e-10
1.46608e-10
1.46608e-10
1.46608e-10
1.46608e-10
1.46608e-10
1.46608e-10
1.46608e-10
1.46608e-10

VECTORS velocity float
0.00565578 -8.32034e-05 7.4239e-05
0.0056312 -7.37275e-05 1.54909e-05
0.00563586 -0.000188392 -0.000151549
0.00619567 -7.02123e-05 0.000163835
0.00565547 0.000388999 -0.000350835
0.00565363 -7.08024e-05 5.13532e-06
0.00570338 -0.000188451 -0.000146918
0.00582263 0.00036078 -0.000337342
0.00618606 -0.000114936 0.000104702
0.00564049 -8.24067e-05 -8.37636e-05
0.00542722 -2.08993e-05 -0.000116872
0.00606913 -0.000144538 9.66565e-05
0.00547111 -1.95308e-05 -0.000130336
0.00559926 -4.17915e-05 0.000100201
0.00619262 -4.41167e-05 0.000197584
0.0060842 -0.000210869 7.21565e-05
0.00565082 -0.000109309 -7.57803e-05
0.00578159 -0.000199859 -0.000143419
0.00570593 -6.73248e-05 2.19328e-05
0.00565854 0.000388298 -0.000349854
0.00616341 -0.000278936 -0.000103798
0.00572534 0.000378518 -0.000345123
0.00541905 7.82794e-07 -0.0001559
0.00561481 -0.000186502 -0.000142635
0.00600101 -0.000203207 5.62267e-05
0.00601288 -0.000277673 -9.92965e-05
0.005551 -6.73435e-05 -5.01551e-05
0.00615497 -0.000281986 -9.99313e-05
0.00568292 0.000383881 -0.000348751
0.006201 -4.45993e-05 0.000196787
0.00563216 -2.36062e-05 0.000128743
0.00579055 0.000443546 5.75202e-06
0.00567305 -0.000198284 -0.000140151
0.00565054 -3.2959e-05 0.000132258
0.00569351 0.000384527 -0.000348172
0.00621902 -4.26759e-05 0.000198562
0.00554919 -0.0001863 -0.000145396
0.00565029 -3.27451e-05 0.000130418
0.00571227 0.000379051 -0.000346659
0.00620891 -4.32334e-05 0.000197539
0.00564337 -0.000113001 -7.71919e-05
0.00581485 0.000439089 6.8908e-06
0.00615131 -0.00028931 -9.44643e-05
0.0056083 -0.000103681 -8.31033e-05
0.00541992 -6.56397e-06 -0.000123987
0.00560736 0.000395089 -0.000353038
0.00565037 -0.000121394 -7.49747e-05
0.00548268 -1.032e-06 -0.00012855
0.00565456 -0.000138029 -6.90336e-05
0.0055827 0.000400472 -0.000355572
-5.01973e-15 -7.41202e-15 7.69802e-14
0.00565124 -3.11405e-05 0.000130122
0.00621864 -4.04995e-05 0.000196036
0.00564837 -3.22416e-05 0.000131211
0.00565507 -0.000113309 -7.27057e-05
0.00564126 0.000390932 -0.000350983
0.00558637 -3.46841e-05 -0.000113118
0.00566123 -5.19779e-05 -0.000115303
0.00564732 -0.000119066 -7.49415e-05
0.00562021 -1.78719e-05 0.000126696
0.00565735 -0.000121119 -7.38967e-05
0.00577462 0.000366586 -0.00034036
0.00572311 -3.74986e-05 0.000108887
0.00565274 -0.00011824 -7.27533e-05
0.00617715 -0.000221613 -3.16436e-05
0.00611905 -0.000290065 -8.87947e-05
0.00544816 5.53811e-07 -0.0001293
0.00562925 -1.29673e-05 0.00013092
0.00597733 0.000269623 0.000194901
0.00615188 -0.000165902 0.000128759
0.00561316 -4.8741e-05 0.000129556
0.00542901 3.7992e-05 -0.000167241
0.00544378 -8.74614e-06 -0.000123852
0.00580063 0.000440677 6.46435e-06
0.00608162 -0.000291843 0.000138899
0.00562473 -2.81638e-05 0.000129265
0.00564939 -0.000208853 -0.000149434
0.00564139 -0.000104667 -0.000104691
0.00564911 -3.40832e-05 0.00013173
0.00564716 -0.000118901 -7.4533e-05
0.00538903 -2.75453e-05 -0.000111429
0.00564788 -9.72659e-05 -8.37249e-05
0.00582694 -0.000247778 -0.000108729
0.00563973 -9.28588e-05 -8.45171e-05
0.00560217 -1.81707e-05 0.000126369
0.00564358 -9.4618e-05 -9.20164e-05
0.00621802 0.000260281 0.000180681
0.00584609 -0.000251685 -0.000107767
0.00567233 3.30068e-05 0.000100512
0.00564826 -9.63376e-05 -7.25227e-05
0.00565025 3.10901e-05 0.000101053
4.18625e-15 1.04919e-14 8.29649e-14
9.7161e-23 -1.27651e-22 1.23839e-22
0.00572867 -7.66449e-05 0.000112363
0.00609008 0.000278186 0.000183266
0.0056608 -6.84446e-05 -0.00010555
0.00602714 0.000278326 0.000188648
0.00564291 -0.000126896 -7.48199e-05
0.00563461 -8.99849e-06 0.000124412
0.0056575 -0.000179079 -0.000124803
0.00567084 -0.000202059 -0.000136064
0.00625932 0.000281671 0.000201832
0.00563905 -4.98099e-05 -0.000107735
0.00570641 7.64692e-06 0.000106048
0.00560474 -2.21325e-05 0.00013548
0.00564557 -0.000117455 -7.55056e-05
0.00564611 -2.89394e-05 0.000127247
0.00546213 -5.95134e-05 -9.59798e-05
0.00580477 -0.00016367 -5.59808e-05
0.00572989 -0.000190939 -0.00014729
0.00624246 -0.000216434 8.05335e-05
0.0056499 -1.252e-06 0.000122156
0.00585485 -6.64991e-05 0.000112941
0.00579428 -0.000242352 -0.000115153
0.00564803 -2.87568e-06 0.000123668
0.0061548 0.000267804 0.000176996
0.00585483 -0.000268569 -0.000129132
0.00563621 -1.9605e-05 0.000126907
0.00570224 -8.1837e-06 0.000108347
0.00569935 3.25044e-05 0.000101302
0.00560113 -5.46211e-06 0.000133823
0.0056551 -0.0001136 -7.31944e-05
0.00564357 -0.000118016 -7.49749e-05
0.00564504 -0.000114266 -7.46195e-05
0.00544405 1.01151e-05 -0.000133519
0.00564215 -2.63196e-05 0.000129121
0.00564764 -0.000114712 -7.63755e-05
0.00561375 -8.05801e-06 0.000114144
0.00579084 -0.000114848 -6.97874e-05
0.00563985 -0.000137597 -5.96524e-05
0.00601388 0.000284526 0.000175625
0.00561269 -6.06493e-05 -0.000100441
0.00649193 -0.000120852 2.8216e-05
0.00566829 -9.99993e-05 -6.67119e-05
0.00579587 -3.83271e-05 -0.000116115
0.00571194 -0.000218689 -0.000126642
0.00621555 -0.000115046 0.000124918
0.00624384 -0.000116607 0.00012567
0.00572131 6.89257e-06 -0.000137091
0.00625823 0.000178158 0.000144681
0.00568759 7.60102e-06 4.4885e-05
0.00578246 -5.9746e-05 -0.000106891
-3.83004e-14 8.16887e-14 2.95886e-13
0.00539636 -1.02607e-05 -0.000121825
0.00564502 -1.73193e-05 0.000129411
0.00622124 -0.000102205 0.000123804
0.00565664 1.49833e-05 0.000102349
0.005721 6.82577e-05 0.000204321
0.00621265 -0.000117023 0.000125182
0.00564859 -0.000114487 -7.5431e-05
0.00624068 -0.000118856 0.000125771
0.00619203 -0.00013982 0.000127098
0.00625116 -0.000103415 0.000124585
0.0062695 -9.97981e-05 0.00012455
0.00565798 -0.00011446 -8.0455e-05
0.00561341 -4.05494e-05 -0.00010868
0.00563955 -0.000120039 -7.36253e-05
0.00572378 5.82726e-05 0.00016497
0.00559913 -1.93045e-05 -0.000120448
0.00569681 -9.2638e-05 -0.000113375
0.00572743 -4.85673e-05 -0.000108563
0.00623496 -0.000123703 0.000126229
0.00622919 -0.000239612 8.10429e-05
0.00569289 -5.74929e-05 -0.000102442
0.00563963 -0.000104644 -8.06983e-05
0.00563995 -6.59431e-05 -9.66885e-05
0.00575799 -0.000181769 0.000123164
0.00565503 -0.000112277 -8.09995e-05
0.00566777 -3.13217e-05 0.000130738
0.00624328 -0.000209837 7.99792e-05
0.00599442 -0.000471202 0.000260653
0.00568289 -0.000208289 -0.000132937
0.00566894 -5.84538e-05 -0.000107058
0.00612389 -0.000210574 2.78155e-05
0.0030467 0.000162258 -0.00078829
0.00603871 -8.73265e-05 0.000119019
0.00564198 2.98562e-06 0.000105712
0.00546421 4.97348e-05 0.000158681
0.00543306 2.03941e-06 -0.00012973
0.0057235 -2.59871e-05 8.9335e-06
0.0062576 0.000266607 0.000192095
0.00619271 -0.000117156 0.000124215
0.00543719 -6.37035e-06 -0.000127068
0.00565184 -9.57507e-05 -7.97574e-05
0.00569331 -4.83183e-05 7.28552e-05
0.00578703 -4.97225e-05 -0.000109618
0.00551971 -1.12101e-05 -0.000127429
0.00574255 6.56967e-05 0.000191946
0.005426 -5.14852e-05 -9.95039e-05
0.00554559 -1.90167e-05 -0.000120306
0.00568422 -0.000190798 -0.000145428
0.00566729 -0.000196575 -0.000143688
0.00598319 -0.00013191 0.000123096
0.00563127 -8.95097e-05 7.16532e-05
0.00564115 -1.76866e-05 0.000123833
0.005027 -0.000256761 0.000196895
0.00571614 4.80495e-05 0.000200634
0.00625272 -0.000221552 8.27248e-05
0.00568035 1.30489e-05 0.000102488
0.00576014 -0.000235097 -0.000117441
0.00563366 1.41742e-05 0.000102125
0.00561258 -1.34051e-05 0.000121916
0.00544825 3.79649e-06 -0.000133165
0.00567254 -0.00020092 -0.000139415
0.00565783 -5.76806e-05 -0.000109445
0.00545084 -0.000341131 0.000223843
0.00553183 -0.000334313 0.000223418
0.00605163 -0.000107092 0.000121721
0.00546775 -2.05053e-06 -0.00012958
0.00621114 -8.91547e-05 0.000122562
0.00627875 -9.8371e-05 0.000124604
0.00562498 -2.4206e-05 0.000128111
0.00565826 -9.30919e-05 -0.000206358
0.00550149 -1.71641e-05 -0.000120409
0.00552558 -2.56688e-05 -0.000116566
0.00573553 2.45738e-05 0.000197241
0.00560591 1.66382e-05 0.000198068
0.00569475 1.78831e-05 0.000201794
0.00629933 -0.000241835 -0.000114824
0.00570254 -2.8404e-06 0.000101323
0.00576625 2.00156e-05 0.000201508
0.00552943 -0.000344256 -5.24153e-07
0.00575032 -2.62652e-05 -3.06276e-06
0.0051693 4.35237e-05 -0.000146756
0.00556128 -0.000469609 -0.000689263
0.00572991 -0.000101753 -8.9965e-05
0.00565204 -9.87714e-05 -8.36365e-05
0.00545766 -0.000409566 2.63507e-05
0.0059808 -0.000446316 0.000256568
0.00511291 -0.000204189 -5.69367e-05
0.00594322 0.000260449 0.00020372
0.00570447 -2.74306e-05 0.000108691
0.00549325 -3.99287e-05 -0.000107977
0.00562403 -3.32296e-05 -0.000114619
0.00538726 -0.000393172 -0.000230074
0.00625477 -0.000108745 0.000124992
0.00549037 7.48536e-06 -0.000132378
0.00557099 -3.32961e-05 -0.000112465
0.00558124 2.03167e-05 0.000175757
0.00568158 7.38662e-05 0.000177845
0.00600618 -0.000484929 0.000264638
0.0062076 -9.32492e-05 0.000122749
0.00579324 -9.47884e-05 -8.68997e-05
0.00554328 -7.67572e-05 -8.84719e-05
0.00570103 -4.31405e-05 -1.33769e-06
0.00560923 -9.98841e-06 0.000125328
0.0062461 -0.00012586 0.000126438
0.00550736 -0.000342578 0.000225715
0.00567145 -3.79538e-05 -0.000115262
0.00554454 -0.000325835 0.000223536
0.00572707 7.10278e-05 0.000200752
0.00571609 -9.47468e-05 -8.52857e-05
0.00578286 -9.82293e-05 -0.00013743
0.00561635 -4.90819e-05 -0.000107186
0.00554486 -0.0003179 0.000221625
0.0059398 -0.000437852 0.000254391
0.00621377 -0.000110698 0.000124701
0.0052779 6.03787e-05 0.000146694
0.00545611 2.20485e-06 -0.000128862
0.00545378 5.61961e-06 -0.000130053
0.0056988 8.39561e-05 0.000220584
0.005512 -3.60399e-05 -0.000165412
0.00576057 -2.79615e-05 0.000107812
0.00600249 -0.000188754 -0.000143007
0.00544759 9.41128e-06 -0.000132616
0.00564517 -6.13802e-05 -0.000105267
0.00627094 -9.51615e-05 0.000124221
0.00539462 2.37704e-05 -0.000145724
0.00541819 4.44467e-06 -0.000128708
0.0059553 -0.000441281 0.000255482
0.00577068 -0.000108804 -0.000189428
0.00565546 -0.000112144 -7.09057e-05
0.00522756 7.43936e-05 0.000132645
0.00535181 -0.000264524 -2.23631e-05
0.00564326 -0.000100543 -7.98185e-05

VECTORS force float
7.4732e-11 1.80072e-10 4.06612e-11
2.23447e-11 1.99739e-11 8.13813e-11
1.51733e-10 -6.16107e-11 -4.51191e-11
-3.44452e-12 1.65818e-10 1.1042e-10
-4.66184e-12 4.61706e-12 -2.84065e-12
-2.23859e-10 -2.68613e-11 -7.92744e-11
2.86713e-10 -5.54183e-11 2.92626e-11
-6.35957e-11 4.36622e-11 -5.53197e-12
2.64176e-11 1.72574e-11 4.16e-11
5.81673e-11 1.55195e-10 -7.00125e-11
-2.64962e-10 9.79431e-11 -3.56515e-11
1.9499e-11 2.66e-10 1.41477e-10
3.0753e-10 -7.54136e-11 -1.66145e-10
2.03727e-10 1.04146e-11 1.27999e-10
5.3369e-12 1.17052e-11 2.03076e-11
3.70127e-11 6.89277e-11 3.10313e-12
-6.21059e-11 3.85946e-12 -5.10808e-12
-5.39869e-11 3.87651e-12 -4.2342e-12
-1.06591e-10 1.08089e-10 -7.61041e-12
-6.17157e-11 4.76983e-11 -2.44456e-11
-1.08871e-10 -1.29549e-11 7.42178e-11
-1.50554e-11 3.73065e-11 -2.96053e-11
8.98401e-11 -3.67394e-11 1.16613e-10
-3.5749e-11 1.23785e-10 -1.83296e-10
-2.60411e-11 1.31852e-11 -5.30518e-11
-5.37258e-11 -9.7207e-11 6.35236e-11
-3.94341e-10 5.32095e-10 1.46585e-09
-8.97598e-11 -1.05906e-10 4.64429e-11
-3.00287e-12 7.9106e-12 -5.77915e-12
4.46874e-12 6.39771e-12 -3.13078e-12
1.14511e-10 -9.25079e-11 5.37104e-11
4.25426e-12 -1.83587e-11 3.78855e-12
-1.93688e-10 4.47563e-11 -2.44483e-12
-1.65161e-12 -3.74941e-11 -2.37522e-12
-1.0992e-10 4.12444e-12 -1.91584e-11
2.27809e-11 7.89779e-12 -1.59567e-11
-2.03741e-10 -3.22223e-11 3.46044e-11
5.42348e-11 -4.73354e-11 1.34735e-11
-1.6581e-11 8.61387e-13 -2.14134e-12
3.39037e-11 1.90734e-11 -9.39392e-12
-2.86159e-11 -7.62765e-11 -3.58453e-12
-1.20714e-11 2.49442e-11 -1.07945e-11
1.52482e-11 -1.0413e-10 8.51787e-11
-4.90482e-10 1.07002e-11 3.14417e-10
-9.19972e-11 4.6214e-11 -1.74321e-11
1.12519e-11 -1.30112e-11 1.00967e-11
-1.26758e-10 1.02164e-10 -3.57239e-11
6.56545e-11 -8.77326e-11 4.12437e-11
7.99153e-11 1.32416e-10 -3.38592e-11
2.83023e-11 -8.44235e-12 9.34802e-12
2.90806e-24 2.71419e-24 4.1359e-25
2.18335e-10 -4.91972e-11 4.80244e-11
4.14395e-14 1.64357e-11 -5.23706e-12
4.08741e-11 -3.03642e-11 1.94371e-11
-1.77431e-11 -6.47254e-11 -4.83695e-11
9.9374e-12 2.59801e-11 -1.12764e-11
-2.36456e-11 -1.4386e-11 4.77331e-12
-6.01803e-11 -8.01807e-11 -7.94056e-11
-2.4636e-11 3.26255e-12 1.02775e-11
-3.14834e-11 4.12355e-11 -2.14815e-11
-2.69963e-11 1.68826e-11 2.64765e-11
-3.69599e-11 6.77185e-11 -3.13282e-11
1.51395e-10 -1.31367e-10 1.57436e-11
-2.49486e-10 1.70629e-10 -1.45205e-10
-5.74067e-11 3.08642e-11 8.51763e-11
-3.65266e-11 -9.18604e-11 7.4077e-11
-6.82232e-11 -4.0271e-11 1.49606e-11
3.09372e-11 4.12059e-11 6.12447e-11
-1.79756e-10 -4.72744e-11 -1.09327e-10
9.29247e-11 -7.13505e-11 2.12951e-11
7.59483e-11 1.63016e-10 -4.53334e-12
-2.43877e-11 1.93544e-10 -1.42398e-10
4.66499e-11 1.18069e-10 -6.18791e-11
9.87416e-12 -9.65227e-12 1.52878e-12
2.68865e-10 -3.29656e-11 7.72455e-12
4.42396e-11 -5.18819e-11 2.99544e-11
-1.89399e-12 6.63723e-11 7.62904e-11
3.59275e-11 -5.92671e-12 -4.53822e-12
-1.08414e-10 -6.31202e-13 -6.28714e-12
-9.86526e-11 -1.12909e-11 6.2371e-11
7.5707e-11 7.48417e-11 -4.69665e-11
6.56783e-11 3.48264e-11 -1.05841e-10
-6.04389e-11 -6.58024e-11 5.12097e-11
1.06407e-12 3.81396e-11 -1.38055e-11
4.3201e-12 1.58014e-11 6.12175e-12
4.2524e-11 2.31249e-11 -2.19005e-10
1.81049e-10 9.39797e-11 -1.97765e-11
5.58047e-14 -1.02455e-10 6.76539e-11
4.12479e-11 1.79444e-10 -2.27053e-11
-2.04148e-10 -3.6843e-12 -5.98492e-11
4.94463e-11 1.62986e-10 -2.06254e-11
-2.51971e-21 1.06861e-21 -1.613e-23
0.0 0.0 0.0
-3.1773e-10 2.73186e-11 -6.42629e-11
-2.45907e-10 -9.9219e-11 -4.98862e-11
4.15545e-11 3.71934e-11 9.91399e-11