# vtk DataFile Version 3.0
LIGGGHTS particles timestep 57000000
ASCII
DATASET POLYDATA
POINTS 275 float
0.34552 0.0181572 0.0071706
0.345239 0.0170233 0.00773654
0.345373 0.0169943 0.00777937
0.34491 0.0156791 0.00840692
0.351227 0.0168515 0.00753239
0.345575 0.0176131 0.00742285
0.345249 0.0166766 0.0079062
0.351436 0.0177429 0.00713432
0.345355 0.0167104 0.00787295
0.345702 0.0180792 0.00718899
0.3396 0.0172807 0.00730146
0.344892 0.0155911 0.00845054
0.339722 0.0180856 0.00725979
0.339801 0.018235 0.00717831
0.345143 0.0166388 0.00792847
0.345555 0.0183336 0.00708337
0.345619 0.0177884 0.00733526
0.345361 0.0168021 0.00782892
0.339739 0.0179414 0.00718005
0.351355 0.017375 0.00726827
0.345014 0.016117 0.00818889
0.351395 0.0175575 0.00719751
0.339261 0.01661 0.00763283
0.345441 0.0172316 0.00770522
0.344873 0.0155067 0.00850084
0.3451 0.0164664 0.0080145
0.345716 0.0178143 0.00731303
0.345035 0.0162044 0.0081453
0.351249 0.0169387 0.00748845
0.344992 0.0160297 0.00823249
0.345531 0.0174379 0.00751035
0.351494 0.0180214 0.00703942
0.345371 0.0168944 0.00778409
0.345489 0.0172184 0.00761856
0.351375 0.0174648 0.0072291
0.344948 0.015855 0.00831969
0.345468 0.0171311 0.00766216
0.34565 0.017551 0.00744458
0.351271 0.0170259 0.0074445
0.34497 0.0159424 0.00827609
0.345455 0.017895 0.0073014
0.351455 0.0178356 0.00710271
0.345057 0.0162916 0.0081017
0.345746 0.0179079 0.00726569
0.339659 0.0175495 0.00718264
0.351314 0.0172002 0.00735661
0.345697 0.0186502 0.00691892
0.339465 0.0170769 0.00740438
0.345593 0.0185166 0.00699281
0.351293 0.017113 0.00740055
0.378022 0.019866 0.005332
0.34567 0.0176404 0.00740021
0.344929 0.0157672 0.0083633
0.34551 0.017366 0.00757676
0.345776 0.0185926 0.00693814
0.351335 0.0172875 0.00731255
0.33939 0.0171391 0.00738095
0.33957 0.017976 0.0071598
0.345645 0.01788 0.0072892
0.345391 0.0172389 0.00761879
0.345807 0.0181572 0.00714132
0.351415 0.0176502 0.00716592
0.339697 0.0185633 0.00715677
0.345721 0.0182062 0.00712685
0.34544 0.017029 0.00771336
0.345079 0.0163791 0.0080581
0.3394 0.0168123 0.00753031
0.34526 0.0171106 0.00769294
0.338851 0.015613 0.00877041
0.339772 0.018497 0.00716719
0.345345 0.0170591 0.00770879
0.339665 0.0180077 0.00716959
0.33962 0.0173692 0.00725943
0.351475 0.0179285 0.00707106
0.339576 0.0184316 0.00714692
0.345572 0.0172877 0.00757728
0.345284 0.016941 0.00777091
0.345456 0.017501 0.007488
0.345807 0.0182476 0.00709845
0.345669 0.0179677 0.00724521
0.33958 0.0171921 0.00734351
0.345369 0.0175475 0.00747485
0.345383 0.0174459 0.00761079
0.345636 0.0182561 0.00711191
0.345511 0.0179628 0.0073497
0.345347 0.0174601 0.00751849
0.338927 0.0158052 0.00842826
0.34522 0.0164948 0.00798886
0.339415 0.01765 0.00716364
0.345594 0.0177019 0.00737879
0.339435 0.0177479 0.00715989
0.0643568 0.0187248 0.00531097
0.24257 0.0191927 0.00520306
0.339845 0.01843 0.00717755
0.338971 0.0159209 0.00824444
0.33943 0.0173164 0.0072968
0.338869 0.0156558 0.00868186
0.345775 0.0184983 0.00698298
0.345611 0.0186073 0.00694794
0.345287 0.0171894 0.00774887
0.345209 0.0169233 0.00783411
0.339396 0.0173171 0.00739066
0.339315 0.0172014 0.00735754
0.339375 0.017467 0.00723147
0.345587 0.0171977 0.00761841
0.345544 0.017851 0.00731319
0.345553 0.0175257 0.00746645
0.339505 0.0172539 0.00732035
0.345726 0.0183032 0.00708037
0.345322 0.0166109 0.00792345
0.345657 0.0183737 0.00706659
0.345325 0.0173728 0.00756209
0.339617 0.0186223 0.00714591
0.345227 0.0165866 0.00794465
0.345435 0.0174136 0.00753159
0.338907 0.015753 0.00851128
0.345138 0.0165488 0.00797169
0.345544 0.0180692 0.00730387
0.339469 0.0174935 0.00721275
0.33949 0.0175836 0.00717001
0.345485 0.0171065 0.00775749
0.345566 0.0179383 0.00726958
0.345518 0.0177637 0.00735719
0.34579 0.0180335 0.00720167
0.339444 0.0169886 0.00744637
0.345654 0.0188166 0.00685897
0.345412 0.0177222 0.00738764
0.345282 0.0171979 0.00764934
0.33927 0.0162824 0.00778261
0.339699 0.0177455 0.00718133
0.338888 0.015704 0.00859638
0.339545 0.0174315 0.00723762
0.338948 0.0158997 0.00840342
0.33945 0.017405 0.00725477
0.339292 0.0163709 0.00774045
0.345165 0.0167261 0.00788487
0.339555 0.0183339 0.00714744
0.339475 0.0179434 0.00714998
0.339314 0.0164595 0.00769827
0.339009 0.0158787 0.00832675
0.339463 0.0175778 0.00726629
0.339249 0.0162037 0.00784385
0.0219312 0.0187687 0.00551176
0.339357 0.0166358 0.00761432
0.345544 0.0172374 0.0076997
0.339455 0.0178454 0.00715063
0.339698 0.0183572 0.0072458
0.339027 0.0161359 0.00811591
0.339611 0.0181718 0.00715861
0.345434 0.0178165 0.00735943
0.339515 0.0181395 0.00714862
0.339653 0.0183677 0.00715749
0.339535 0.0182367 0.00715996
0.339631 0.0182697 0.007158
0.34569 0.0185486 0.00696778
0.339294 0.0171131 0.00739952
0.345573 0.0184218 0.0070397
0.339059 0.0161947 0.00792755
0.339369 0.0170508 0.00742294
0.33897 0.0159821 0.00835112
0.339511 0.0179351 0.00724321
0.339496 0.0180348 0.0072491
0.345537 0.0182454 0.00712699
0.339355 0.0173785 0.00727353
0.345614 0.0181253 0.00717609
0.339564 0.0175217 0.00719916
0.339598 0.0185268 0.00716839
0.345589 0.0180255 0.00722589
0.345413 0.0173263 0.00757519
0.345548 0.0181628 0.00726633
0.333619 0.0186426 0.00684931
0.345187 0.0168134 0.00784127
0.339335 0.0172898 0.00731552
0.345635 0.0187236 0.0068906
0.33975 0.0183985 0.00716764
0.339685 0.0181056 0.00716904
0.339624 0.0178118 0.00717088
0.333306 0.0172014 0.00745097
0.339639 0.0174579 0.0072174
0.33976 0.0180393 0.00717948
0.339023 0.0158303 0.00841297
0.339705 0.0182035 0.00716842
0.339379 0.0167241 0.00757229
0.3455 0.0176757 0.0074008
0.33978 0.0181371 0.0071789
0.339196 0.0163462 0.00776087
0.339239 0.0165218 0.0076748
0.3391 0.0160702 0.00802816
0.339679 0.0176475 0.00718199
0.339485 0.0171653 0.00736238
0.34527 0.0167613 0.00785747
0.345275 0.0168514 0.0078143
0.339727 0.0183012 0.0071679
0.3455 0.0180693 0.00721421
0.34537 0.0171516 0.00766239
0.333525 0.0181857 0.00701163
0.339055 0.0160194 0.00810131
0.34567 0.0184571 0.00701313
0.339395 0.0175557 0.00718987
0.345318 0.0172747 0.00770415
0.33951 0.0176814 0.00716174
0.345695 0.0177269 0.00735666
0.339282 0.0166981 0.00759086
0.345279 0.0170988 0.00779052
0.339719 0.0178435 0.00718067
0.333544 0.0182754 0.00697155
0.333488 0.0180062 0.00709179
0.339676 0.0184656 0.00715728
0.339186 0.0166724 0.00760934
0.339793 0.0185948 0.00716667
0.339495 0.0180414 0.00714932
0.345304 0.0172853 0.00760575
0.339143 0.0164961 0.00769326
0.339251 0.0169368 0.00748345
0.339273 0.0170249 0.00744148
0.333198 0.0167664 0.00767058
0.333263 0.017023 0.00753053
0.333176 0.0166832 0.00772159
0.339233 0.0161515 0.00792761
0.339604 0.0177139 0.0071715
0.333219 0.0168496 0.00761956
0.333411 0.0176478 0.00725182
0.339078 0.0162478 0.00784514
0.339481 0.017821 0.0072441
0.333349 0.0173798 0.00737142
0.339155 0.0162015 0.00788896
0.345478 0.0175883 0.0074444
0.333431 0.0177373 0.00721189
0.333599 0.0185446 0.0068513
0.33337 0.017469 0.00733164
0.339719 0.0186612 0.00715626
0.339639 0.0187201 0.00714539
0.339335 0.0165476 0.0076563
0.339593 0.0178796 0.00725066
0.33345 0.0178268 0.0071719
0.33959 0.018074 0.00715911
0.339347 0.0169626 0.00746493
0.339415 0.0176652 0.00726247
0.333327 0.0172906 0.0074112
0.338991 0.0160618 0.00829456
0.333638 0.0187396 0.00686409
0.33953 0.0177803 0.00716669
0.339175 0.0162635 0.00781305
0.339525 0.0173424 0.00727843
0.339585 0.0176158 0.0071722
0.34549 0.0177606 0.007453
0.339555 0.0181239 0.00723867
0.333507 0.0180959 0.00705172
0.339217 0.0164334 0.00771689
0.333469 0.0179165 0.00713186
0.339042 0.0161622 0.00802059
0.339125 0.0161224 0.00794657
0.3391 0.016322 0.00778176
0.33941 0.0172276 0.00733894
0.333693 0.0185766 0.00683873
0.333562 0.0183651 0.00693146
0.33955 0.017878 0.00716046
0.333241 0.0169339 0.0075703
0.339208 0.0167605 0.00756737
0.339304 0.0167863 0.00754888
0.339013 0.0161149 0.00821271
0.339165 0.0165842 0.00765131
0.339645 0.0179098 0.00717024
0.338989 0.0159732 0.00816128
0.339422 0.0169004 0.00748834
0.339824 0.0183322 0.00717809
0.339589 0.0183107 0.00723875
0.339326 0.0168745 0.00750691
0.339229 0.0168486 0.00752541
0.333582 0.0184546 0.00689149
0.339121 0.0164079 0.00773523
0.345477 0.0179823 0.0072578
0.333284 0.0171122 0.00749075
0.333391 0.0175584 0.00729175
0.345391 0.0176349 0.00743125

VERTICES 275 550
1 0
1 1
1 2
1 3
1 4
1 5
1 6
1 7
1 8
1 9
1 10
1 11
1 12
1 13
1 14
1 15
1 16
1 17
1 18
1 19
1 20
1 21
1 22
1 23
1 24
1 25
1 26
1 27
1 28
1 29
1 30
1 31
1 32
1 33
1 34
1 35
1 36
1 37
1 38
1 39
1 40
1 41
1 42
1 43
1 44
1 45
1 46
1 47
1 48
1 49
1 50
1 51
1 52
1 53
1 54
1 55
1 56
1 57
1 58
1 59
1 60
1 61
1 62
1 63
1 64
1 65
1 66
1 67
1 68
1 69
1 70
1 71
1 72
1 73
1 74
1 75
1 76
1 77
1 78
1 79
1 80
1 81
1 82
1 83
1 84
1 85
1 86
1 87
1 88
1 89
1 90
1 91
1 92
1 93
1 94
1 95
1 96
1 97
1 98
1 99
1 100
1 101
1 102
1 103
1 104
1 105
1 106
1 107
1 108
1 109
1 110
1 111
1 112
1 113
1 114
1 115
1 116
1 117
1 118
1 119
1 120
1 121
1 122
1 123
1 124
1 125
1 126
1 127
1 128
1 129
1 130
1 131
1 132
1 133
1 134
1 135
1 136
1 137
1 138
1 139
1 140
1 141
1 142
1 143
1 144
1 145
1 146
1 147
1 148
1 149
1 150
1 151
1 152
1 153
1 154
1 155
1 156
1 157
1 158
1 159
1 160
1 161
1 162
1 163
1 164
1 165
1 166
1 167
1 168
1 169
1 170
1 171
1 172
1 173
1 174
1 175
1 176
1 177
1 178
1 179
1 180
1 181
1 182
1 183
1 184
1 185
1 186
1 187
1 188
1 189
1 190
1 191
1 192
1 193
1 194
1 195
1 196
1 197
1 198
1 199
1 200
1 201
1 202
1 203
1 204
1 205
1 206
1 207
1 208
1 209
1 210
1 211
1 212
1 213
1 214
1 215
1 216
1 217
1 218
1 219
1 220
1 221
1 222
1 223
1 224
1 225
1 226
1 227
1 228
1 229
1 230
1 231
1 232
1 233
1 234
1 235
1 236
1 237
1 238
1 239
1 240
1 241
1 242
1 243
1 244
1 245
1 246
1 247
1 248
1 249
1 250
1 251
1 252
1 253
1 254
1 255
1 256
1 257
1 258
1 259
1 260
1 261
1 262
1 263
1 264
1 265
1 266
1 267
1 268
1 269
1 270
1 271
1 272
1 273
1 274

POINT_DATA 275
SCALARS id int 1
LOOKUP_TABLE default
1
2
4
5
6
7
8
9
10
11
12
13
14
16
17
19
21
22
23
24
25
26
27
28
29
30
31
32
33
34
35
36
37
38
39
41
42
44
45
47
48
49
50
51
52
53
54
55
56
57
59
60
61
62
63
64
65
66
67
68
69
70
71
72
73
74
76
77
78
79
80
82
83
84
85
86
87
88
89
90
91
92
93
94
95
96
97
98
99
100
101
102
103
104
105
106
107
108
109
110
111
112
113
114
115
116
117
118
119
120
121
122
123
124
125
127
128
129
130
131
132
133
134
135
136
137
138
140
141
142
143
144
146
147
148
149
150
151
153
154
155
156
157
158
159
160
162
164
165
166
167
168
169
170
171
172
173
174
176
177
178
179
182
183
184
185
186
187
188
189
190
191
192
193
194
195
196
197
198
199
200
201
202
203
204
205
206
207
208
209
210
211
212
213
214
215
216
217
218
219
220
222
224
225
226
227
228
229
230
232
233
234
235
236
237
239
240
241
242
243
244
246
247
248
249
250
251
252
253
254
255
256
257
258
259
260
261
262
263
264
265
266
267
268
269
270
271
272
273
274
275
276
277
278
279
280
281
283
284
285
286
287
288
289
290
291
292
293
294
295
296
297
298
299
300

SCALARS type int 1
LOOKUP_TABLE default
1
1
1
1
1
1
1
1
1
1
1
1
1
1
1
1
1
1
1
1
1
1
1
1
1
1
1
1
1
1
1
1
1
1
1
1
1
1
1
1
1
1
1
1
1
1
1
1
1
1
1
1
1
1
1
1
1
1
1
1
1
1
1
1
1
1
1
1
1
1
1
1
1
1
1
1
1
1
1
1
1
1
1
1
1
1
1
1
1
1
1
1
1
1
1
1
1
1
1
1
1
1
1
1
1
1
1
1
1
1
1
1
1
1
1
1
1
1
1
1
1
1
1
1
1
1
1
1
1
1
1
1
1
1
1
1
1
1
1
1
1
1
1
1
1
1
1
1
1
1
1
1
1
1
1
1
1
1
1
1
1
1
1
1
1
1
1
1
1
1
1
1
1
1
1
1
1
1
1
1
1
1
1
1
1
1
1
1
1
1
1
1
1
1
1
1
1
1
1
1
1
1
1
1
1
1
1
1
1
1
1
1
1
1
1
1
1
1
1
1
1
1
1
1
1
1
1
1
1
1
1
1
1
1
1
1
1
1
1
1
1
1
1
1
1
1
1
1
1
1
1
1
1
1
1
1
1
1
1
1
1
1
1
1
1
1
1
1
1
1
1
1
1
1
1

SCALARS radius float 1
LOOKUP_TABLE default
5e-05
5e-05
5e-05
5e-05
5e-05
5e-05
5e-05
5e-05
5e-05
5e-05
5e-05
5e-05
5e-05
5e-05
5e-05
5e-05
5e-05
5e-05
5e-05
5e-05
5e-05
5e-05
5e-05
5e-05
5e-05
5e-05
5e-05
5e-05
5e-05
5e-05
5e-05
5e-05
5e-05
5e-05
5e-05
5e-05
5e-05
5e-05
5e-05
5e-05
5e-05
5e-05
5e-05
5e-05
5e-05
5e-05
5e-05
5e-05
5e-05
5e-05
5e-05
5e-05
5e-05
5e-05
5e-05
5e-05
5e-05
5e-05
5e-05
5e-05
5e-05
5e-05
5e-05
5e-05
5e-05
5e-05
5e-05
5e-05
5e-05
5e-05
5e-05
5e-05
5e-05
5e-05
5e-05
5e-05
5e-05
5e-05
5e-05
5e-05
5e-05
5e-05
5e-05
5e-05
5e-05
5e-05
5e-05
5e-05
5e-05
5e-05
5e-05
5e-05
5e-05
5e-05
5e-05
5e-05
5e-05
5e-05
5e-05
5e-05
5e-05
5e-05
5e-05
5e-05
5e-05
5e-05
5e-05
5e-05
5e-05
5e-05
5e-05
5e-05
5e-05
5e-05
5e-05
5e-05
5e-05
5e-05
5e-05
5e-05
5e-05
5e-05
5e-05
5e-05
5e-05
5e-05
5e-05
5e-05
5e-05
5e-05
5e-05
5e-05
5e-05
5e-05
5e-05
5e-05
5e-05
5e-05
5e-05
5e-05
5e-05
5e-05
5e-05
5e-05
5e-05
5e-05
5e-05
5e-05
5e-05
5e-05
5e-05
5e-05
5e-05
5e-05
5e-05
5e-05
5e-05
5e-05
5e-05
5e-05
5e-05
5e-05
5e-05
5e-05
5e-05
5e-05
5e-05
5e-05
5e-05
5e-05
5e-05
5e-05
5e-05
5e-05
5e-05
5e-05
5e-05
5e-05
5e-05
5e-05
5e-05
5e-05
5e-05
5e-05
5e-05
5e-05
5e-05
5e-05
5e-05
5e-05
5e-05
5e-05
5e-05
5e-05
5e-05
5e-05
5e-05
5e-05
5e-05
5e-05
5e-05
5e-05
5e-05
5e-05
5e-05
5e-05
5e-05
5e-05
5e-05
5e-05
5e-05
5e-05
5e-05
5e-05
5e-05
5e-05
5e-05
5e-05
5e-05
5e-05
5e-05
5e-05
5e-05
5e-05
5e-05
5e-05
5e-05
5e-05
5e-05
5e-05
5e-05
5e-05
5e-05
5e-05
5e-05
5e-05
5e-05
5e-05
5e-05
5e-05
5e-05
5e-05
5e-05
5e-05
5e-05
5e-05
5e-05
5e-05
5e-05
5e-05
5e-05
5e-05
5e-05
5e-05
5e-05
5e-05
5e-05
5e-05
5e-05
5e-05
5e-05
5e-05
5e-05
5e-05
5e-05
5e-05
5e-05
5e-05
5e-05
5e-05
5e-05
5e-05
5e-05
5e-05
5e-05

SCALARS mass float 1
LOOKUP_TABLE default
1.46608e-10
1.46608e-10
1.46608e-10
1.46608e-10
1.46608e-10
1.46608e-10
1.46608e-10
1.46608e-10
1.46608e-10
1.46608e-10
1.46608e-10
1.46608e-10
1.46608e-10
1.46608e-10
1.46608e-10
1.46608e-10
1.46608e-10
1.46608e-10
1.46608e-10
1.46608e-10
1.46608e-10
1.46608e-10
1.46608e-10
1.46608e-10
1.46608e-10
1.46608e-10
1.46608e-10
1.46608e-10
1.46608e-10
1.46608e-10
1.46608e-10
1.46608e-10
1.46608e-10
1.46608e-10
1.46608e-10
1.46608e-10
1.46608e-10
1.46608e-10
1.46608e-10
1.46608e-10
1.46608e-10
1.46608e-10
1.46608e-10
1.46608e-10
1.46608e-10
1.46608e-10
1.46608e-10
1.46608e-10
1.46608e-10
1.46608e-10
1.46608e-10
1.46608e-10
1.46608e-10
1.46608e-10
1.46608e-10
1.46608e-10
1.46608e-10
1.46608e-10
1.46608e-10
1.46608e-10
1.46608e-10
1.46608e-10
1.46608e-10
1.46608e-10
1.46608e-10
1.46608e-10
1.46608e-10
1.46608e-10
1.46608e-10
1.46608e-10
1.46608e-10
1.46608e-10
1.46608e-10
1.46608e-10
1.46608e-10
1.46608e-10
1.46608e-10
1.46608e-10
1.46608e-10
1.46608e-10
1.46608e-10
1.46608e-10
1.46608e-10
1.46608e-10
1.46608e-10
1.46608e-10
1.46608e-10
1.46608e-10
1.46608e-10
1.46608e-10
1.46608e-10
1.46608e-10
1.46608e-10
1.46608e-10
1.46608e-10
1.46608e-10
1.46608e-10
1.46608e-10
1.46608e-10
1.46608e-10
1.46608e-10
1.46608e-10
1.46608e-10
1.46608e-10
1.46608e-10
1.46608e-10
1.46608e-10
1.46608e-10
1.46608e-10
1.46608e-10
1.46608e-10
1.46608e-10
1.46608e-10
1.46608e-10
1.46608e-10
1.46608e-10
1.46608e-10
1.46608e-10
1.46608e-10
1.46608e-10
1.46608e-10
1.46608e-10
1.46608e-10
1.46608e-10
1.46608e-10
1.46608e-10
1.46608e-10
1.46608e-10
1.46608e-10
1.46608e-10
1.46608e-10
1.46608e-10
1.46608e-10
1.46608e-10
1.46608e-10
1.46608e-10
1.46608e-10
1.46608e-10
1.46608e-10
1.46608e-10
1.46608e-10
1.46608e-10
1.46608e-10
1.46608e-10
1.46608e-10
1.46608e-10
1.46608e-10
1.46608e-10
1.46608e-10
1.46608e-10
1.46608e-10
1.46608e-10
1.46608e-10
1.46608e-10
1.46608e-10
1.46608e-10
1.46608e-10
1.46608e-10
1.46608e-10
1.46608e-10
1.46608e-10
1.46608e-10
1.46608e-10
1.46608e-10
1.46608e-10
1.46608e-10
1.46608e-10
1.46608e-10
1.46608e-10
1.46608e-10
1.46608e-10
1.46608e-10
1.46608e-10
1.46608e-10
1.46608e-10
1.46608e-10
1.46608e-10
1.46608e-10
1.46608e-10
1.46608e-10
1.46608e-10
1.46608e-10
1.46608e-10
1.46608e-10
1.46608e-10
1.46608e-10
1.46608e-10
1.46608e-10
1.46608e-10
1.46608e-10
1.46608e-10
1.46608e-10
1.46608e-10
1.46608e-10
1.46608e-10
1.46608e-10
1.46608e-10
1.46608e-10
1.46608e-10
1.46608e-10
1.46608e-10
1.46608e-10
1.46608e-10
1.46608e-10
1.46608e-10
1.46608e-10
1.46608e-10
1.46608e-10
1.46608e-10
1.46608e-10
1.46608e-10
1.46608e-10
1.46608e-10
1.46608e-10
1.46608e-10
1.46608e-10
1.46608e-10
1.46608e-10
1.46608e-10
1.46608e-10
1.46608e-10
1.46608e-10
1.46608e-10
1.46608e-10
1.46608e-10
1.46608e-10
1.46608e-10
1.46608e-10
1.46608e-10
1.46608e-10
1.46608e-10
1.46608e-10
1.46608e-10
1.46608e-10
1.46608e-10
1.46608e-10
1.46608e-10
1.46608e-10
1.46608e-10
1.46608e-10
1.46608e-10
1.46608e-10
1.46608e-10
1.46608e-10
1.46608e-10
1.46608e-10
1.46608e-10
1.46608e-10
1.46608e-10
1.46608e-10
1.46608e-10
1.46608e-10
1.46608e-10
1.46608e-10
1.46608e-10
1.46608e-10
1.46608e-10
1.46608e-10
1.46608e-10
1.46608e-10
1.46608e-10
1.46608e-10
1.46608e-10
1.46608e-10
1.46608e-10
1.46608e-10
1.46608e-10
1.46608e-10
1.46608e-10
1.46608e-10
1.46608e-10
1.46608e-10
1.46608e-10
1.46608e-10
1.46608e-10

VECTORS velocity float
0.00573868 0.00216474 -0.00160404
0.00641599 0.00219208 -0.00169174
0.00641621 0.00220114 -0.0016945
0.00615218 0.00225641 -0.00169511
0.00612781 4.43459e-05 0.000412391
0.00637329 0.0020384 -0.00161196
0.00644808 0.0021831 -0.00172408
0.00577478 -7.71617e-05 -6.91309e-05
0.00644714 0.00220835 -0.0017027
0.00644914 0.00368203 -0.00240249
0.00537241 -0.00130554 0.000237753
0.00619674 0.0022462 -0.00169497
0.00513747 -0.00106401 0.000623753
0.00533802 -0.00112389 0.000641015
0.00645299 0.0021909 -0.00169484
0.00591233 0.00230569 -0.00169357
0.00675737 0.00152421 -0.00141698
0.00643386 0.00220526 -0.00169983
0.00520884 -0.00107218 0.000624105
0.00570171 0.000116549 0.000344437
0.00649958 0.00218515 -0.00169703
0.00573116 -6.96859e-05 -7.08633e-05
0.00598159 -0.00134986 0.000213613
0.00640137 0.00221656 -0.00169405
0.0062607 0.00194005 -0.00218199
0.00646792 0.00218931 -0.00169571
0.00921727 0.000127798 -0.00100442
0.0064916 0.00218634 -0.00169675
0.00612231 4.54868e-05 0.000411345
0.00650746 0.0021835 -0.0016971
0.00634696 0.00215747 -0.00166906
0.00561364 -4.3865e-05 -7.75874e-05
0.00642262 0.00220244 -0.00169715
0.00639325 0.00220445 -0.00169595
0.00570986 -6.59073e-05 -7.19839e-05
0.00652324 0.00217815 -0.00169639
0.00640504 0.002204 -0.00169626
0.00648742 0.00210973 -0.00166017
0.00611742 4.6501e-05 0.000410505
0.00651441 0.00218132 -0.00169664
0.00590912 0.00178872 -0.00145458
0.0055463 -3.17171e-05 -8.06539e-05
0.00648379 0.00218734 -0.00169643
0.00723491 0.00230058 -0.0018288
0.00553429 -0.00109778 0.000638647
0.0061079 4.95327e-05 0.000408339
0.00601572 0.000785721 -0.000910397
0.00560095 -0.00129439 0.00020772
0.0060464 0.00247605 -0.00178871
0.00611243 4.77663e-05 0.00040949
-5.01946e-15 -7.41213e-15 7.69802e-14
0.00663079 0.00208067 -0.00165724
0.00611746 0.00226613 -0.0016964
0.006369 0.00215977 -0.0016665
0.00615342 0.000922546 -0.00105158
0.00566267 0.000121742 0.000338706
0.00557866 -0.00129935 0.000211916
0.00525349 -0.00117003 0.000632505
0.00902741 0.000371004 -0.00109796
0.00639017 0.00218865 -0.00168779
0.00495547 0.00279702 -0.00182993
0.00575292 -7.33872e-05 -6.98757e-05
0.00537748 -0.00115672 0.000645353
0.00563789 0.00396434 -0.00245265
0.00641429 0.00220328 -0.00169582
0.00647561 0.00218828 -0.00169602
0.0060097 -0.00119468 0.000133818
0.00640802 0.00219049 -0.00169012
0.00532255 -0.000642533 0.00106837
0.00538943 -0.00113662 0.000647744
0.00641233 0.00219806 -0.00169393
0.00512316 -0.00108252 0.000615258
0.00549695 -0.00132139 0.000230137
0.0055801 -3.77558e-05 -7.92304e-05
0.00530773 -0.00116579 0.000638912
0.0063919 0.00218436 -0.00168553
0.00642154 0.00219783 -0.00169501
0.00633523 0.00215274 -0.00166492
0.00633038 0.00274638 -0.0019447
0.00722774 0.00224308 -0.00178633
0.00536937 -0.00126562 0.000207242
0.00633374 0.00210755 -0.00164295
0.00636273 0.00220147 -0.00167881
0.00555129 0.00391633 -0.00242076
0.00762753 0.0014808 -0.000998708
0.00637107 0.00217499 -0.00168073
0.00568449 5.33212e-05 0.0014839
0.00646169 0.00218881 -0.00169493
0.0055255 -0.0012489 0.000308313
0.00654426 0.00207976 -0.00165946
0.00535613 -0.00120831 0.000551133
4.25983e-15 1.05022e-14 8.296e-14
2.29399e-22 4.86658e-23 1.23839e-22
0.00539314 -0.00112664 0.000647121
0.00577037 -2.37752e-06 0.00164049
0.00539054 -0.00125168 0.000208206
0.00545376 -0.000565975 0.00111635
0.00658086 0.00205471 -0.00164349
0.00582042 0.0011082 -0.00111679
0.00640046 0.0021915 -0.0016893
0.0063733 0.00216806 -0.00176185
0.00539753 -0.00121315 0.000196525
0.00561076 -0.00126923 0.000198752
0.00544045 -0.00124325 0.000186943
0.00639408 0.00219506 -0.00169055
0.00627038 0.00160212 -0.00138943
0.00637023 0.00214206 -0.00166489
0.00537287 -0.00127069 0.000207953
0.00628679 0.00264869 -0.00189798
0.00641989 0.00216238 -0.00167781
0.00612221 0.0024603 -0.00182963
0.00637646 0.00217748 -0.00168009
0.00536872 -0.00118155 0.000643685
0.00646138 0.00220299 -0.00170162
0.00636184 0.00215898 -0.00166795
0.00558393 5.46547e-05 0.00148461
0.00646262 0.00219036 -0.00169574
0.00717813 0.00218831 -0.00166593
0.00549781 -0.00126183 0.000280828
0.00549641 -0.00128867 0.00022543
0.00642025 0.00220377 -0.00169926
0.00875321 0.000860754 -0.00129621
0.00655103 0.00215043 -0.00168345
0.00687702 0.00443581 -0.00280166
0.00584785 -0.00133662 0.000209269
0.00589113 0.00101676 -0.000425398
0.00635448 0.00219808 -0.00168715
0.00639807 0.00218825 -0.00168855
0.0060587 -0.00141158 0.000222826
0.00538235 -0.00107923 0.000646776
0.00555395 -0.000235391 0.00131031
0.00548214 -0.00124301 0.000371836
0.00564185 0.000111402 0.00162263
0.00541856 -0.0012699 0.000215821
0.00608775 -0.00128756 0.000168723
0.00644408 0.00219183 -0.00169398
0.00528673 -0.0011484 0.000639778
0.00526771 -0.00120998 0.000640858
0.0060474 -0.00126512 0.000164089
0.00570574 -4.25486e-05 0.00168172
0.00552184 -0.00128881 0.000266702
0.00610166 -0.000183372 0.00199712
-3.82791e-14 8.16948e-14 2.95887e-13
0.00603216 -0.00125946 0.00016059
0.00639207 0.00221496 -0.00169949
0.00528798 -0.00119785 0.000638546
0.00531591 -0.00114308 0.000637514
0.00581397 0.000276481 0.00136475
0.00523215 -0.00116996 0.000629992
0.00624017 0.00174847 -0.00138327
0.0051239 -0.00124179 0.000626047
0.00531445 -0.00115692 0.000638715
0.00522909 -0.00116125 0.00061639
0.00530912 -0.00111414 0.000634786
0.00624004 0.00156901 -0.00137875
0.00585165 -0.00132934 0.000206893
0.00594066 0.00222402 -0.00165545
0.00607546 -0.000124921 0.00124365
0.00582269 -0.00135475 0.000219708
0.00575044 -9.07352e-05 0.00123032
0.00526669 -0.00121059 0.00064955
0.00511147 -0.001248 0.000619223
0.00584282 0.00218923 -0.00163207
0.00540045 -0.00122512 0.000188149
0.00603508 0.0029745 -0.00202639
0.00552848 -0.00118292 0.000523154
0.00531427 -0.00116816 0.000639003
0.00711416 0.00207292 -0.00169686
0.00637102 0.00217479 -0.00167863
0.00653583 0.00252542 -0.00185677
0.0057598 0.000237069 -1.31463e-05
0.00643582 0.00219263 -0.00169387
0.0053881 -0.00122081 0.00019187
0.00582454 0.000846385 -0.00037067
0.00532442 -0.00114508 0.00063932
0.00514259 -0.00109206 0.000617082
0.00534939 -0.00112678 0.000645384
0.00602956 0.000186042 3.55028e-05
0.00552474 -0.00122955 0.000219934
0.00514811 -0.00107124 0.000619668
0.00576708 -3.47255e-05 0.00168005
0.00529014 -0.00112888 0.000633674
0.00611952 -0.00123348 0.000143253
0.0064752 0.00214002 -0.00166969
0.00526522 -0.00110266 0.000634437
0.00606023 -0.00143877 0.000235907
0.0059584 -0.00137389 0.000219849
0.00595942 1.03734e-05 0.00166529
0.00546233 -0.00108866 0.000663953
0.00548537 -0.00128163 0.000205649
0.00644124 0.00219966 -0.001698
0.00643035 0.00219975 -0.0016964
0.00533317 -0.0011375 0.000639802
0.00701606 0.00184561 -0.00158867
0.00640198 0.00219339 -0.00169065
0.005574 0.000274514 -1.36035e-05
0.00588363 1.69113e-05 0.00163796
0.00605356 0.00248233 -0.00179311
0.00550931 -0.00126709 0.000197093
0.00640923 0.00216132 -0.00169121
0.00548652 -0.00107908 0.000658553
0.00729617 0.00163453 -0.00151685
0.00595193 -0.00134274 0.000200033
0.00641854 0.00218998 -0.001692
0.00533445 -0.00108177 0.000637345
0.00560402 0.000270664 -1.12867e-05
0.00550172 0.000286977 -2.00732e-05
0.00531932 -0.00115884 0.000639481
0.00589849 -0.00142585 0.000231266
0.00541026 -0.00114856 0.000649729
0.00513019 -0.00121341 0.000619978
0.00639055 0.00218558 -0.001686
0.00589958 -0.00143808 0.000264173
0.00585835 -0.00134966 0.000214196
0.00584858 -0.00133247 0.000207563
0.00609287 -0.000147376 -0.000539487
0.00606553 0.00018239 3.79977e-05
0.00609444 -0.000145318 -0.000540832
0.00543564 -0.000225411 0.00183671
0.00540618 -0.00113294 0.000657584
0.00609152 -0.000149289 -0.000534984
0.00574961 0.000245431 3.17124e-06
0.00592279 -0.00121111 0.000502738
0.00530267 -0.00126495 0.000627351
0.00599479 0.000195785 3.04089e-05
0.00587545 -0.000728892 0.00103741
0.00633599 0.00215586 -0.00166552
0.00577703 0.000240046 6.16728e-06
0.00572131 0.000245497 1.91175e-06
0.00598005 0.000201827 2.74665e-05
0.00540358 -0.00116826 0.000649554
0.00539917 -0.00119093 0.000649854
0.00604714 -0.00128536 0.000173592
0.00529894 -0.00117947 0.000629394
0.00561957 0.000266772 -9.35782e-06
0.00521451 -0.00116883 0.000624524
0.00582104 -0.00134325 0.00021497
0.00547431 -0.00135384 0.000333681
0.0060125 0.000190294 3.33181e-05
0.00564958 -2.60215e-05 0.00126114
0.00573322 0.000246645 -4.54004e-05
0.00536457 -0.00119221 0.000619925
0.00615034 -0.000558469 0.00127374
0.00539558 -0.00125335 0.000277631
0.0054694 -0.00113468 0.000655649
0.00636633 0.00214829 -0.00174169
0.00519881 -0.00121301 0.000620598
0.00554027 0.000279813 -1.63373e-05
0.00594901 -0.00141148 0.000228545
0.00561881 0.000267608 -9.46659e-06
0.00603154 0.000436229 0.0014373
0.00608954 1.02072e-05 0.0016988
0.00592508 -0.00153449 9.63279e-05
0.00536134 -0.00125336 0.000206863
0.00574794 0.00021633 1.4688e-05
0.00564776 0.000262382 -6.75237e-06
0.00529935 -0.00117914 0.000637108
0.00608184 0.000181663 3.68073e-05
0.00589368 -0.00140583 0.000222533
0.00598835 -0.00132146 0.000187461
0.00556567 9.3419e-05 0.00129922
0.00590812 -0.00143407 0.0002473
0.00526519 -0.00110674 0.000632443
0.00585835 8.79228e-06 0.00163369
0.0058258 -0.00132951 0.00020798
0.00536791 -0.0011238 0.00064402
0.00529955 -0.00116282 0.000640401
0.00590883 -0.00129239 0.000184211
0.00588642 -0.00138031 0.000218831
0.00567154 0.000256258 -4.06562e-06
0.00582106 -0.0014298 0.00023853
0.00831579 0.00134715 -0.0015186
0.00604676 0.000183467 3.70488e-05
0.00574321 0.00024694 2.50278e-06
0.00634197 0.00215109 -0.00166435

VECTORS force float
-6.41303e-11 -2.96605e-10 2.8666e-10
3.88765e-13 -3.1982e-11 1.57792e-11
1.32349e-11 -3.75135e-11 -2.5066e-11
1.02834e-11 2.44291e-11 -1.35963e-11
-1.05983e-12 6.67455e-12 -4.06263e-12
3.05401e-10 7.76645e-10 -3.79624e-10
1.28672e-11 1.62397e-12 -9.04708e-13
1.8831e-13 -3.23869e-12 5.17684e-13
-5.36284e-11 -3.91216e-11 2.25775e-11
1.49892e-10 1.43247e-10 -1.08536e-10
-1.52562e-10 2.46497e-10 -8.44478e-11
4.03893e-12 2.52182e-11 -1.33894e-11
2.06164e-10 -2.18954e-10 -8.52255e-11
8.75886e-11 -1.65111e-10 2.79103e-11
7.69112e-12 -1.00405e-11 5.75151e-12
1.34528e-11 -4.2433e-11 8.87697e-12
-5.53969e-10 4.55948e-10 -3.39589e-12
-3.58027e-11 -6.0813e-11 3.20595e-11
2.75617e-10 -3.2063e-10 8.15561e-11
1.26728e-12 -5.86933e-12 9.30152e-12
1.89831e-12 7.70666e-12 -3.48671e-12
-6.66652e-13 -2.06659e-13 3.32839e-13
-1.27689e-10 -1.30461e-10 1.53472e-10
8.68394e-12 -6.34835e-11 4.65278e-11
6.35854e-12 1.85461e-11 -2.57187e-11
-2.7132e-12 -1.43268e-11 5.28736e-12
-4.4056e-10 4.5452e-10 -4.01025e-10
5.71861e-12 -1.06664e-13 -6.85136e-13
-1.82347e-13 -1.91024e-12 1.80761e-12
1.49855e-12 1.63653e-11 -7.53559e-12
-1.23068e-10 -3.60723e-11 4.18143e-11
9.27607e-13 -3.88327e-12 7.36091e-13
2.87284e-11 -2.7885e-11 -5.1369e-12
-9.30834e-12 -5.23571e-11 1.61299e-11
5.76118e-12 -1.71505e-12 -5.71423e-12
8.10196e-12 2.56661e-11 -1.48885e-11
1.50815e-11 -3.07122e-11 7.01104e-12
-2.75438e-10 -2.16115e-10 1.54354e-10
1.59127e-12 -1.37994e-12 6.79199e-14
1.23328e-11 2.35021e-11 -1.17967e-11
-5.32085e-10 5.43299e-10 5.35098e-12
-2.28106e-13 -3.55239e-12 1.43904e-12
1.26943e-11 -1.10444e-11 3.30291e-12
6.34773e-10 -5.06125e-10 2.65406e-10
-5.97609e-10 -2.05462e-10 -5.2211e-10
-5.57152e-12 7.24841e-12 -4.89623e-12
-1.74421e-10 1.19813e-10 -1.19344e-09
4.08363e-10 -2.03062e-10 7.23073e-11
-3.50067e-11 4.40023e-12 -1.35641e-12
-6.73416e-13 6.18773e-12 -2.74402e-12
4.93723e-24 -4.42025e-24 0.0
-5.27949e-10 4.32735e-10 -1.42968e-10
-1.29661e-11 3.09409e-11 -1.30902e-11
-1.57246e-10 -1.49007e-10 7.78718e-11
-3.13546e-10 3.03815e-10 -1.78631e-10
3.04819e-12 -5.86825e-12 2.05769e-12
1.42353e-10 -2.37446e-10 1.4859e-10
-1.67202e-10 4.7767e-11 -5.90273e-11
-7.66499e-10 7.69445e-10 3.8173e-10
-3.25151e-11 -1.32834e-10 6.30093e-11
5.03616e-11 -5.30623e-10 2.44625e-10
4.51101e-16 -3.07297e-12 4.1229e-13
1.24187e-10 -1.79129e-11 -4.73951e-12
8.13393e-11 2.16477e-11 -1.80634e-11
2.66902e-11 1.50151e-11 -1.3607e-11
4.652e-12 -1.14741e-11 4.81595e-12
3.58852e-10 -4.91448e-10 1.86321e-10
-5.02261e-12 -3.30529e-11 1.85776e-11
1.41639e-10 1.57471e-10 -4.74423e-10
2.74752e-10 5.33978e-11 4.00075e-11
1.19464e-11 -1.75417e-11 5.67189e-13
2.52925e-10 1.52097e-11 3.90936e-11
-7.44934e-11 -1.77655e-10 -1.44371e-10
-3.81122e-13 -3.13173e-12 1.38735e-12
1.17369e-10 2.5198e-11 2.86976e-11
4.66014e-11 -1.61579e-10 6.02927e-11
1.06853e-11 -3.52002e-11 1.60585e-11
6.82687e-11 1.17476e-10 -2.79561e-11
-4.56198e-11 -1.7551e-10 1.01569e-10
2.46667e-09 -8.58104e-10 2.79908e-10
3.94888e-10 -4.6087e-10 1.54938e-10
-2.59022e-10 -5.76265e-10 3.15952e-10
-1.4157e-10 -2.14259e-10 1.27067e-10
5.4221e-11 -3.58021e-11 2.06408e-11
0.0 0.0 -1.43822e-09
-1.15946e-10 -2.85194e-10 1.50107e-10
-1.04114e-10 3.43655e-10 -2.05961e-10
-3.08694e-11 -7.35877e-11 3.80218e-11
-2.10653e-11 -2.63739e-11 -1.71602e-10
1.21385e-10 1.24913e-10 -1.72212e-10
-3.30624e-10 1.13174e-10 2.12016e-10
1.0537e-21 -6.04876e-22 2.83309e-23
0.0 0.0 0.0
1.79845e-10 -6.69019e-11 1.48624e-11
-5.44651e-11 9.10958e-11 1.55069e-10
2.45748e-10 1.09142e-10 7.04437e-12
-2.07889e-10 1.92737e-11 -8.33439e-10
-7.71034e-11 -8.90389e-12 6.82074e-12
8.10205e-12 9.83735e-11 -5.70525e-11
3.63188e-11 -3.38818e-11 1.5075e-11
-5.5562e-12 -3.07193e-11 1.37732e-11
2.96339e-10 1.64064e-10 1.14275e-11
2.30378e-10 -4.87482e-11 4.64314e-11
9.16681e-11 -1.70379e-10 1.71428e-10
1.33345e-11 -1.86031e-10 9.65271e-11
-5.76004e-10 4.61178e-10 7.70318e-11
-1.44654e-10 -7.05367e-10 3.34425e-10
9.4587e-11 -1.32583e-10 3.31637e-10
-1.72464e-10 3.67138e-10 -2.12066e-10