# vtk DataFile Version 3.0
LIGGGHTS particles timestep 2200000
ASCII
DATASET POLYDATA
POINTS 287 float
0.0257216 0.0165773 0.00764392
0.026074 0.017302 0.00722695
0.0197468 0.0170392 0.00736145
0.0260431 0.0180107 0.00709604
0.0256041 0.016474 0.00771961
0.0316338 0.0165501 0.00758051
0.0257868 0.0172091 0.0072531
0.0254957 0.0160834 0.00801238
0.031895 0.0177114 0.0070764
0.0257272 0.0169439 0.00736722
0.0261164 0.0174972 0.00718932
0.0199442 0.0179582 0.00704135
0.0255824 0.0163959 0.00777817
0.0196665 0.0166864 0.00753127
0.0259244 0.0174334 0.00720804
0.0196462 0.0165981 0.00757373
0.0257085 0.0168653 0.00742617
0.0317758 0.017161 0.00728096
0.0255608 0.0163178 0.00783672
0.0256999 0.0164992 0.00770247
0.025828 0.0174014 0.00721605
0.0201171 0.0183779 0.00697872
0.0318362 0.0174309 0.00716472
0.0257663 0.0171124 0.00726808
0.0317154 0.0168911 0.0073972
0.0200224 0.0183458 0.00698068
0.0260237 0.0179144 0.00711456
0.0255391 0.0162397 0.00789527
0.0260774 0.0176544 0.00716128
0.0258074 0.0173053 0.00723456
0.0259039 0.0173372 0.00722643
0.0316549 0.0166213 0.00751344
0.0256896 0.0167866 0.00748524
0.0258835 0.017241 0.00724433
0.0319344 0.0178996 0.00702123
0.0258415 0.0170541 0.00730004
0.0259989 0.0173673 0.00721713
0.0318556 0.0175232 0.00713158
0.0256475 0.0166302 0.00760251
0.0258484 0.0174976 0.00719753
0.0260216 0.0174666 0.00719795
0.0316751 0.0167112 0.0074747
0.0317556 0.0170711 0.00731971
0.0256691 0.0167083 0.00754396
0.0258884 0.01769 0.00716049
0.0317355 0.0169811 0.00735846
0.0259478 0.0179788 0.00710492
0.0259283 0.0178825 0.00712345
0.0199247 0.0178613 0.00705652
0.0317959 0.017251 0.00724222
0.025678 0.0164209 0.00776115
0.0197067 0.0168629 0.00744631
0.0258629 0.0171454 0.00726543
0.0316952 0.0168012 0.00743595
0.025917 0.0169965 0.00733126
0.0259352 0.0170767 0.00727335
0.0256258 0.0165521 0.00766106
0.0260415 0.0175628 0.00717943
0.0259845 0.0177219 0.00715198
0.0318161 0.0173409 0.00720347
0.0200389 0.0179904 0.00703939
0.01998 0.0176995 0.00708492
0.0260939 0.0173982 0.00720843
0.0260989 0.017849 0.0071244
0.0257846 0.0168124 0.00746765
0.0318753 0.0176173 0.00710399
0.0196867 0.0167746 0.00748879
0.0260792 0.0177527 0.00714294
0.0257462 0.0170234 0.0073091
0.0259444 0.0175294 0.00718864
0.0202593 0.0190606 0.00687025
0.0261957 0.0187097 0.00696126
0.019767 0.0171275 0.00731897
0.0199637 0.0180551 0.00702618
0.0260062 0.0182678 0.00704934
0.0199051 0.0177645 0.00707218
0.020042 0.0184426 0.00696552
0.0200072 0.0173736 0.00719481
0.0319147 0.0178055 0.00704882
0.0198581 0.0170893 0.00733425
0.0260042 0.0178181 0.00713308
0.0258983 0.0169179 0.00739022
0.0260649 0.0185568 0.00699376
0.0260258 0.0183642 0.00703081
0.0260535 0.0172059 0.0072456
0.0199832 0.018152 0.00701101
0.0261377 0.0180418 0.00708733
0.0261212 0.018396 0.00702194
0.0261975 0.0183321 0.00703147
0.0259867 0.0181714 0.00706787
0.0261573 0.0181381 0.0070688
0.0198653 0.0175747 0.00712051
0.0260845 0.0186531 0.00697524
0.0200194 0.0178935 0.00705456
0.0260331 0.0171103 0.0072668
0.0199596 0.0176025 0.00710007
0.0643568 0.0187248 0.00531097
0.24257 0.0191927 0.00520306
0.0202709 0.0187006 0.00693129
0.0198269 0.0173924 0.00719162
0.0203467 0.0186368 0.00694437
0.0197871 0.0172157 0.00727649
0.0258223 0.0169695 0.00734976
0.0259084 0.0177862 0.00714197
0.026213 0.0179766 0.00709714
0.0261236 0.0188457 0.00693819
0.0198851 0.0176689 0.00709361
0.0205157 0.0185307 0.00696761
0.0202118 0.01841 0.00697677
0.0259643 0.0176256 0.00717012
0.0258038 0.016891 0.00740881
0.0256563 0.0163428 0.0078197
0.019727 0.0169531 0.00740829
0.0259579 0.0171751 0.00725489
0.0255174 0.0161616 0.00795383
0.025474 0.0160053 0.00807094
0.0262324 0.0180729 0.00707862
0.019903 0.0173334 0.00721881
0.0260821 0.0182033 0.00705899
0.0256346 0.0162646 0.00787831
0.0258684 0.0175938 0.00717901
0.0198455 0.0174809 0.00714894
0.0259672 0.0180751 0.0070864
0.0260454 0.0184605 0.00701228
0.0201367 0.0184748 0.00696356
0.0199998 0.0177965 0.00706973
0.0260626 0.018107 0.00707751
0.0258183 0.0166035 0.00762611
0.0259784 0.0172711 0.00723565
0.0256129 0.0161865 0.00793687
0.019838 0.017001 0.00737673
0.0261432 0.018942 0.00691967
0.0257641 0.0167341 0.00752637
0.026252 0.0181692 0.00706009
0.0198782 0.0171776 0.00729177
0.0202314 0.0185069 0.00696161
0.0198076 0.0173039 0.00723404
0.0201921 0.0183131 0.00699193
0.0200546 0.0176342 0.00709819
0.0198178 0.0169128 0.0074192
0.0201009 0.0187333 0.00692003
0.0263271 0.018104 0.00706992
0.0200945 0.0178288 0.00706776
0.0204061 0.0184508 0.00697686
0.0199405 0.0175098 0.0071323
0.0201958 0.0187654 0.00691808
0.0202805 0.0191591 0.006854
0.0201762 0.0186685 0.00693325
0.0219312 0.0187687 0.00551176
0.0202907 0.0187978 0.00691601
0.0261183 0.0179455 0.00710585
0.0201792 0.0191194 0.00685799
0.0202154 0.0188623 0.00690292
0.0207223 0.0192301 0.006854
0.0205339 0.0187264 0.00693489
0.0257747 0.016447 0.00774338
0.0200747 0.0177316 0.00708295
0.020367 0.0187345 0.00692893
0.0205335 0.0186278 0.00695173
0.0204086 0.0188752 0.00690604
0.0257964 0.0165251 0.00768483
0.0204446 0.0186727 0.00694162
0.0261096 0.0170494 0.00728787
0.0203301 0.0189913 0.00688403
0.0165691 0.0202176 0.00713217
0.0201564 0.0185717 0.0069484
0.0202191 0.0193129 0.00682602
0.0205043 0.0184326 0.00698326
0.0206323 0.0187447 0.00693448
0.0201402 0.0189281 0.00690024
0.0257432 0.0166554 0.00758536
0.0204571 0.0187892 0.00692206
0.0260758 0.0179392 0.00719617
0.0200813 0.0186364 0.0069352
0.0201205 0.0188301 0.00690487
0.0260112 0.0170237 0.00731177
0.0262715 0.0182655 0.00704157
0.0259385 0.0170069 0.00742836
0.0167505 0.0200214 0.00710019
0.0261627 0.0190383 0.00690114
0.0203065 0.0184421 0.00697482
0.0258795 0.0168394 0.00744917
0.0201336 0.0180226 0.00703741
0.0206258 0.0185904 0.00696066
0.0196246 0.0165102 0.00761612
0.0173242 0.0207589 0.00741566
0.0200028 0.0182489 0.00699585
0.0202355 0.0189589 0.006887
0.0200975 0.0182811 0.00699388
0.0208477 0.0190528 0.00688776
0.0203264 0.0185389 0.00695968
0.0261401 0.0171571 0.00725728
0.0200779 0.0181842 0.00700905
0.020562 0.0191173 0.00686888
0.0204301 0.0189914 0.00688676
0.0199216 0.0174213 0.00717486
0.0203106 0.018895 0.0069036
0.0201141 0.0179257 0.00705259
0.0258019 0.0172726 0.00732889
0.0261768 0.0182344 0.00705028
0.0205042 0.0189045 0.00690365
0.025993 0.0169454 0.00737134
0.0261016 0.0182997 0.00704047
0.0165568 0.0199459 0.00710715
0.0201989 0.0192163 0.00684199
0.0258397 0.0166826 0.00756679
0.0203484 0.0192748 0.00683609
0.026104 0.0187494 0.00695671
0.0201596 0.0190226 0.00687399
0.0161098 0.0200529 0.00713733
0.0258602 0.0167609 0.00750806
0.0202513 0.0186037 0.00694646
0.0200616 0.0185395 0.00695036
0.0261688 0.0173327 0.00721832
0.0204241 0.0185748 0.00695721
0.0172549 0.0142479 0.0117898
0.0164404 0.0203977 0.00715878
0.0198623 0.0174683 0.00724672
0.0207884 0.0193043 0.00684314
0.0166435 0.0200524 0.00711097
0.0199395 0.0172482 0.00725637
0.0201531 0.0181195 0.00702224
0.0263567 0.0181977 0.00705156
0.021374 0.0192626 0.00686637
0.0211551 0.0192354 0.00686501
0.021045 0.0191577 0.00687526
0.0146279 0.0204907 0.00722436
0.0151549 0.0203413 0.00717598
0.0147575 0.0202894 0.00717966
0.020459 0.0182603 0.00700987
0.0200584 0.0180873 0.00702422
0.0149295 0.0202501 0.00716565
0.0159982 0.0203095 0.00716975
0.020712 0.01908 0.00687938
0.0207539 0.0189744 0.00689857
0.0182131 0.0231886 0.0101518
0.0203788 0.0191776 0.00685353
0.0261935 0.0178803 0.00711566
0.0150444 0.0233211 0.0137699
0.0161493 0.0201441 0.00714833
0.0162177 0.0200587 0.00713766
0.0197977 0.0168245 0.00746169
0.0205239 0.019026 0.00688344
0.0205022 0.0193478 0.00682784
0.0205709 0.0192155 0.00685235
0.0190407 0.0238529 0.0115633
0.0215966 0.0143554 0.0124176
0.0214914 0.0193383 0.00685666
0.0208599 0.0192132 0.00686068
0.0159876 0.0201933 0.00715493
0.020668 0.0198117 0.00698886
0.0169716 0.0201208 0.00709351
0.0203607 0.0183595 0.00699022
0.0205891 0.0193973 0.00682884
0.019767 0.017144 0.00741758
0.0204049 0.0193704 0.00682271
0.0261887 0.0174289 0.0071998
0.0206037 0.0189138 0.0069048
0.0203855 0.0238693 0.0115934
0.0217074 0.0193199 0.00686575
0.0193919 0.0238611 0.011578
0.0206187 0.0193023 0.00683883
0.0203051 0.019364 0.00682265
0.0215937 0.0193031 0.00686549
0.0206568 0.0189975 0.00689195
0.0161008 0.0203316 0.0071714
0.0164743 0.0198891 0.00710777
0.0201494 0.0176665 0.00709621
0.0162668 0.0199719 0.00712688
0.0150108 0.0203677 0.00718005
0.0213484 0.019369 0.00684749
0.0209569 0.0192373 0.00685923
0.0210858 0.0193535 0.00684292
0.0207834 0.0191494 0.00686949
0.0213737 0.0194651 0.00683677
0.019983 0.0171663 0.00729386
0.0202892 0.0182901 0.00699908
0.0206527 0.019159 0.00686424
0.0199576 0.0170792 0.00733595
0.0207008 0.0188906 0.00691143
0.0218344 0.0193137 0.0068703
0.017448 0.0142315 0.0117139
0.020947 0.0190644 0.0068885
0.0259743 0.0168668 0.00743032
0.0163447 0.0198736 0.0071146
0.0186708 0.0238443 0.0115479
0.0259763 0.0173379 0.00731003

VERTICES 287 574
1 0
1 1
1 2
1 3
1 4
1 5
1 6
1 7
1 8
1 9
1 10
1 11
1 12
1 13
1 14
1 15
1 16
1 17
1 18
1 19
1 20
1 21
1 22
1 23
1 24
1 25
1 26
1 27
1 28
1 29
1 30
1 31
1 32
1 33
1 34
1 35
1 36
1 37
1 38
1 39
1 40
1 41
1 42
1 43
1 44
1 45
1 46
1 47
1 48
1 49
1 50
1 51
1 52
1 53
1 54
1 55
1 56
1 57
1 58
1 59
1 60
1 61
1 62
1 63
1 64
1 65
1 66
1 67
1 68
1 69
1 70
1 71
1 72
1 73
1 74
1 75
1 76
1 77
1 78
1 79
1 80
1 81
1 82
1 83
1 84
1 85
1 86
1 87
1 88
1 89
1 90
1 91
1 92
1 93
1 94
1 95
1 96
1 97
1 98
1 99
1 100
1 101
1 102
1 103
1 104
1 105
1 106
1 107
1 108
1 109
1 110
1 111
1 112
1 113
1 114
1 115
1 116
1 117
1 118
1 119
1 120
1 121
1 122
1 123
1 124
1 125
1 126
1 127
1 128
1 129
1 130
1 131
1 132
1 133
1 134
1 135
1 136
1 137
1 138
1 139
1 140
1 141
1 142
1 143
1 144
1 145
1 146
1 147
1 148
1 149
1 150
1 151
1 152
1 153
1 154
1 155
1 156
1 157
1 158
1 159
1 160
1 161
1 162
1 163
1 164
1 165
1 166
1 167
1 168
1 169
1 170
1 171
1 172
1 173
1 174
1 175
1 176
1 177
1 178
1 179
1 180
1 181
1 182
1 183
1 184
1 185
1 186
1 187
1 188
1 189
1 190
1 191
1 192
1 193
1 194
1 195
1 196
1 197
1 198
1 199
1 200
1 201
1 202
1 203
1 204
1 205
1 206
1 207
1 208
1 209
1 210
1 211
1 212
1 213
1 214
1 215
1 216
1 217
1 218
1 219
1 220
1 221
1 222
1 223
1 224
1 225
1 226
1 227
1 228
1 229
1 230
1 231
1 232
1 233
1 234
1 235
1 236
1 237
1 238
1 239
1 240
1 241
1 242
1 243
1 244
1 245
1 246
1 247
1 248
1 249
1 250
1 251
1 252
1 253
1 254
1 255
1 256
1 257
1 258
1 259
1 260
1 261
1 262
1 263
1 264
1 265
1 266
1 267
1 268
1 269
1 270
1 271
1 272
1 273
1 274
1 275
1 276
1 277
1 278
1 279
1 280
1 281
1 282
1 283
1 284
1 285
1 286

POINT_DATA 287
SCALARS id int 1
LOOKUP_TABLE default
1
2
3
4
5
6
7
8
9
10
11
12
13
14
15
16
17
18
19
21
22
23
24
25
26
27
28
29
30
31
32
33
34
35
36
37
38
39
41
42
44
45
46
47
48
49
50
51
52
53
54
55
56
57
59
60
61
62
63
64
65
66
67
68
69
70
71
72
73
74
76
77
78
79
80
81
82
83
84
85
86
87
88
89
90
91
92
93
94
95
96
97
98
99
100
101
102
103
104
105
106
107
108
109
110
111
112
113
114
115
116
117
118
119
120
121
122
123
124
125
126
127
128
129
130
131
132
133
134
135
136
137
138
140
141
142
143
144
146
147
148
149
150
151
153
154
155
156
157
158
159
160
162
164
165
166
167
168
169
170
171
172
173
174
175
176
177
178
179
181
182
183
184
185
186
187
188
189
190
191
192
193
194
195
196
197
198
199
200
201
202
203
204
205
206
207
208
209
210
211
212
213
214
215
216
217
218
219
220
221
222
223
224
225
226
227
228
229
230
231
232
233
234
235
236
237
239
240
241
242
243
244
246
247
248
249
250
251
252
253
254
255
256
257
258
259
260
261
262
263
264
265
266
267
268
269
270
271
272
273
274
275
276
277
278
279
280
281
282
283
284
285
286
287
288
289
290
291
292
293
294
295
296
297
298
299
300

SCALARS type int 1
LOOKUP_TABLE default
1
1
1
1
1
1
1
1
1
1
1
1
1
1
1
1
1
1
1
1
1
1
1
1
1
1
1
1
1
1
1
1
1
1
1
1
1
1
1
1
1
1
1
1
1
1
1
1
1
1
1
1
1
1
1
1
1
1
1
1
1
1
1
1
1
1
1
1
1
1
1
1
1
1
1
1
1
1
1
1
1
1
1
1
1
1
1
1
1
1
1
1
1
1
1
1
1
1
1
1
1
1
1
1
1
1
1
1
1
1
1
1
1
1
1
1
1
1
1
1
1
1
1
1
1
1
1
1
1
1
1
1
1
1
1
1
1
1
1
1
1
1
1
1
1
1
1
1
1
1
1
1
1
1
1
1
1
1
1
1
1
1
1
1
1
1
1
1
1
1
1
1
1
1
1
1
1
1
1
1
1
1
1
1
1
1
1
1
1
1
1
1
1
1
1
1
1
1
1
1
1
1
1
1
1
1
1
1
1
1
1
1
1
1
1
1
1
1
1
1
1
1
1
1
1
1
1
1
1
1
1
1
1
1
1
1
1
1
1
1
1
1
1
1
1
1
1
1
1
1
1
1
1
1
1
1
1
1
1
1
1
1
1
1
1
1
1
1
1
1
1
1
1
1
1
1
1
1
1
1
1
1
1
1
1
1
1

SCALARS radius float 1
LOOKUP_TABLE default
5e-05
5e-05
5e-05
5e-05
5e-05
5e-05
5e-05
5e-05
5e-05
5e-05
5e-05
5e-05
5e-05
5e-05
5e-05
5e-05
5e-05
5e-05
5e-05
5e-05
5e-05
5e-05
5e-05
5e-05
5e-05
5e-05
5e-05
5e-05
5e-05
5e-05
5e-05
5e-05
5e-05
5e-05
5e-05
5e-05
5e-05
5e-05
5e-05
5e-05
5e-05
5e-05
5e-05
5e-05
5e-05
5e-05
5e-05
5e-05
5e-05
5e-05
5e-05
5e-05
5e-05
5e-05
5e-05
5e-05
5e-05
5e-05
5e-05
5e-05
5e-05
5e-05
5e-05
5e-05
5e-05
5e-05
5e-05
5e-05
5e-05
5e-05
5e-05
5e-05
5e-05
5e-05
5e-05
5e-05
5e-05
5e-05
5e-05
5e-05
5e-05
5e-05
5e-05
5e-05
5e-05
5e-05
5e-05
5e-05
5e-05
5e-05
5e-05
5e-05
5e-05
5e-05
5e-05
5e-05
5e-05
5e-05
5e-05
5e-05
5e-05
5e-05
5e-05
5e-05
5e-05
5e-05
5e-05
5e-05
5e-05
5e-05
5e-05
5e-05
5e-05
5e-05
5e-05
5e-05
5e-05
5e-05
5e-05
5e-05
5e-05
5e-05
5e-05
5e-05
5e-05
5e-05
5e-05
5e-05
5e-05
5e-05
5e-05
5e-05
5e-05
5e-05
5e-05
5e-05
5e-05
5e-05
5e-05
5e-05
5e-05
5e-05
5e-05
5e-05
5e-05
5e-05
5e-05
5e-05
5e-05
5e-05
5e-05
5e-05
5e-05
5e-05
5e-05
5e-05
5e-05
5e-05
5e-05
5e-05
5e-05
5e-05
5e-05
5e-05
5e-05
5e-05
5e-05
5e-05
5e-05
5e-05
5e-05
5e-05
5e-05
5e-05
5e-05
5e-05
5e-05
5e-05
5e-05
5e-05
5e-05
5e-05
5e-05
5e-05
5e-05
5e-05
5e-05
5e-05
5e-05
5e-05
5e-05
5e-05
5e-05
5e-05
5e-05
5e-05
5e-05
5e-05
5e-05
5e-05
5e-05
5e-05
5e-05
5e-05
5e-05
5e-05
5e-05
5e-05
5e-05
5e-05
5e-05
5e-05
5e-05
5e-05
5e-05
5e-05
5e-05
5e-05
5e-05
5e-05
5e-05
5e-05
5e-05
5e-05
5e-05
5e-05
5e-05
5e-05
5e-05
5e-05
5e-05
5e-05
5e-05
5e-05
5e-05
5e-05
5e-05
5e-05
5e-05
5e-05
5e-05
5e-05
5e-05
5e-05
5e-05
5e-05
5e-05
5e-05
5e-05
5e-05
5e-05
5e-05
5e-05
5e-05
5e-05
5e-05
5e-05
5e-05
5e-05
5e-05
5e-05
5e-05
5e-05
5e-05
5e-05
5e-05
5e-05
5e-05
5e-05
5e-05
5e-05
5e-05
5e-05
5e-05
5e-05
5e-05
5e-05
5e-05
5e-05
5e-05
5e-05
5e-05
5e-05
5e-05
5e-05
5e-05
5e-05

SCALARS mass float 1
LOOKUP_TABLE default
1.46608e-10
1.46608e-10
1.46608e-10
1.46608e-10
1.46608e-10
1.46608e-10
1.46608e-10
1.46608e-10
1.46608e-10
1.46608e-10
1.46608e-10
1.46608e-10
1.46608e-10
1.46608e-10
1.46608e-10
1.46608e-10
1.46608e-10
1.46608e-10
1.46608e-10
1.46608e-10
1.46608e-10
1.46608e-10
1.46608e-10
1.46608e-10
1.46608e-10
1.46608e-10
1.46608e-10
1.46608e-10
1.46608e-10
1.46608e-10
1.46608e-10
1.46608e-10
1.46608e-10
1.46608e-10
1.46608e-10
1.46608e-10
1.46608e-10
1.46608e-10
1.46608e-10
1.46608e-10
1.46608e-10
1.46608e-10
1.46608e-10
1.46608e-10
1.46608e-10
1.46608e-10
1.46608e-10
1.46608e-10
1.46608e-10
1.46608e-10
1.46608e-10
1.46608e-10
1.46608e-10
1.46608e-10
1.46608e-10
1.46608e-10
1.46608e-10
1.46608e-10
1.46608e-10
1.46608e-10
1.46608e-10
1.46608e-10
1.46608e-10
1.46608e-10
1.46608e-10
1.46608e-10
1.46608e-10
1.46608e-10
1.46608e-10
1.46608e-10
1.46608e-10
1.46608e-10
1.46608e-10
1.46608e-10
1.46608e-10
1.46608e-10
1.46608e-10
1.46608e-10
1.46608e-10
1.46608e-10
1.46608e-10
1.46608e-10
1.46608e-10
1.46608e-10
1.46608e-10
1.46608e-10
1.46608e-10
1.46608e-10
1.46608e-10
1.46608e-10
1.46608e-10
1.46608e-10
1.46608e-10
1.46608e-10
1.46608e-10
1.46608e-10
1.46608e-10
1.46608e-10
1.46608e-10
1.46608e-10
1.46608e-10
1.46608e-10
1.46608e-10
1.46608e-10
1.46608e-10
1.46608e-10
1.46608e-10
1.46608e-10
1.46608e-10
1.46608e-10
1.46608e-10
1.46608e-10
1.46608e-10
1.46608e-10
1.46608e-10
1.46608e-10
1.46608e-10
1.46608e-10
1.46608e-10
1.46608e-10
1.46608e-10
1.46608e-10
1.46608e-10
1.46608e-10
1.46608e-10
1.46608e-10
1.46608e-10
1.46608e-10
1.46608e-10
1.46608e-10
1.46608e-10
1.46608e-10
1.46608e-10
1.46608e-10
1.46608e-10
1.46608e-10
1.46608e-10
1.46608e-10
1.46608e-10
1.46608e-10
1.46608e-10
1.46608e-10
1.46608e-10
1.46608e-10
1.46608e-10
1.46608e-10
1.46608e-10
1.46608e-10
1.46608e-10
1.46608e-10
1.46608e-10
1.46608e-10
1.46608e-10
1.46608e-10
1.46608e-10
1.46608e-10
1.46608e-10
1.46608e-10
1.46608e-10
1.46608e-10
1.46608e-10
1.46608e-10
1.46608e-10
1.46608e-10
1.46608e-10
1.46608e-10
1.46608e-10
1.46608e-10
1.46608e-10
1.46608e-10
1.46608e-10
1.46608e-10
1.46608e-10
1.46608e-10
1.46608e-10
1.46608e-10
1.46608e-10
1.46608e-10
1.46608e-10
1.46608e-10
1.46608e-10
1.46608e-10
1.46608e-10
1.46608e-10
1.46608e-10
1.46608e-10
1.46608e-10
1.46608e-10
1.46608e-10
1.46608e-10
1.46608e-10
1.46608e-10
1.46608e-10
1.46608e-10
1.46608e-10
1.46608e-10
1.46608e-10
1.46608e-10
1.46608e-10
1.46608e-10
1.46608e-10
1.46608e-10
1.46608e-10
1.46608e-10
1.46608e-10
1.46608e-10
1.46608e-10
1.46608e-10
1.46608e-10
1.46608e-10
1.46608e-10
1.46608e-10
1.46608e-10
1.46608e-10
1.46608e-10
1.46608e-10
1.46608e-10
1.46608e-10
1.46608e-10
1.46608e-10
1.46608e-10
1.46608e-10
1.46608e-10
1.46608e-10
1.46608e-10
1.46608e-10
1.46608e-10
1.46608e-10
1.46608e-10
1.46608e-10
1.46608e-10
1.46608e-10
1.46608e-10
1.46608e-10
1.46608e-10
1.46608e-10
1.46608e-10
1.46608e-10
1.46608e-10
1.46608e-10
1.46608e-10
1.46608e-10
1.46608e-10
1.46608e-10
1.46608e-10
1.46608e-10
1.46608e-10
1.46608e-10
1.46608e-10
1.46608e-10
1.46608e-10
1.46608e-10
1.46608e-10
1.46608e-10
1.46608e-10
1.46608e-10
1.46608e-10
1.46608e-10
1.46608e-10
1.46608e-10
1.46608e-10
1.46608e-10
1.46608e-10
1.46608e-10
1.46608e-10
1.46608e-10
1.46608e-10
1.46608e-10
1.46608e-10
1.46608e-10
1.46608e-10
1.46608e-10
1.46608e-10
1.46608e-10
1.46608e-10
1.46608e-10
1.46608e-10
1.46608e-10
1.46608e-10
1.46608e-10
1.46608e-10
1.46608e-10
1.46608e-10
1.46608e-10
1.46608e-10
1.46608e-10
1.46608e-10

VECTORS velocity float
0.00627593 -0.000290226 0.000345108
0.0057623 -0.000385278 -0.000105437
0.00515909 -0.00250332 0.00103068
0.00541871 -0.000282848 -0.000114472
0.00609376 -0.000342798 0.000378976
0.00625119 -0.00032328 3.5164e-05
0.00577171 -0.000318188 -9.96807e-05
0.00608717 -0.000239784 0.000302121
0.00563543 -0.000117993 -0.000209285
0.00564539 -0.000383991 0.000398759
0.00561657 -0.000214299 -0.000133406
0.00516046 -0.00213692 0.000517434
0.00610454 -0.000309069 0.000355143
0.00546203 -0.00302051 0.00125706
0.00570165 -0.000394941 -9.22271e-05
0.00553514 -0.00322296 0.00135071
0.00561715 -0.000364425 0.000385847
0.00577667 2.0526e-05 0.000253515
0.0061017 -0.000282659 0.000334574
0.00626101 -0.000246785 0.000310458
0.00572325 -0.000479125 -8.1279e-05
0.00500326 -0.002221 0.000534512
0.00558819 5.21639e-05 0.000234173
0.00578785 -0.000213151 6.16488e-05
0.005702 3.0389e-05 0.000245687
0.00510676 -0.00210988 0.00051862
0.00538768 -0.000273545 -0.000115593
0.00610117 -0.000265097 0.000321372
0.005491 -0.000225652 -0.000127242
0.00573279 -0.000488069 -8.63098e-05
0.0057484 -0.000421059 -9.44441e-05
0.00562954 4.75895e-05 0.000234943
0.00562067 -0.000283977 0.000336777
0.00579554 -0.000445113 -0.000210542
0.00567986 -0.000130844 -0.000207619
0.00559897 -0.000280989 0.000116823
0.00574443 -0.000373276 -0.000100728
0.00559066 -0.000107228 -0.000213504
0.00615573 -0.000376584 0.000411194
0.00535978 -0.000325958 -0.000104733
0.00566654 -0.000292561 -0.000120511
0.00564871 4.13234e-05 0.000238559
0.00575381 2.52705e-05 0.000251105
0.00619887 -0.000352873 0.000402147
0.00551332 -0.000319514 -0.000111949
0.00572619 2.64724e-05 0.000248132
0.00540041 -0.000243446 -0.000121303
0.00536118 -0.00034228 -0.000101351
0.00521671 -0.00208555 0.000540043
0.00580222 1.63392e-05 0.000256418
0.00612737 -0.000302679 0.000350446
0.00518389 -0.00267168 0.00111315
0.00571251 -0.00041476 -0.000163946
0.00568134 3.64233e-05 0.000242292
0.00556365 -0.000225477 0.000281486
0.00565885 -0.000427171 0.000165398
0.00609877 -0.000371701 0.000400895
0.00556557 -0.000252346 -0.000124789
0.00546949 -0.000291223 -0.000119286
0.00582501 1.10468e-05 0.000259626
0.00525615 -0.00223573 0.000546095
0.00479352 -0.00276404 0.000621816
0.00565533 -0.000313692 -0.000115862
0.00539307 -0.000275823 -0.000115276
0.0055836 -0.000193159 0.000258932
0.00561213 -0.000111865 -0.000210916
0.00538401 -0.00283961 0.00118209
0.00545951 -0.000223477 -0.000125951
0.00576308 -0.00019027 0.000100565
0.00561341 -0.000355061 -0.000108582
0.00480655 -0.00258575 0.000573981
0.00549304 -0.000377358 -9.93971e-05
0.00523811 -0.0024492 0.00099289
0.00511777 -0.00214714 0.000522167
0.00546116 -0.000277923 -0.000117053
0.00520471 -0.00214891 0.000614978
0.00509412 -0.00222293 0.000533507
0.00553919 -0.0019436 0.000752187
0.00565768 -0.000124481 -0.000208212
0.0051504 -0.00253927 0.00104619
0.00540031 -0.000280908 -0.000116587
0.00557044 -0.000225163 0.000282563
0.00547309 -0.00036463 -0.000101198
0.00545095 -0.000353185 -0.000102652
0.00572489 -0.00040439 -0.000399706
0.00519218 -0.00211254 0.000531661
0.00544059 -0.000334452 -0.000104866
0.00547647 -0.000347575 -0.000104486
0.00548602 -0.000346599 -0.000104978
0.00544103 -0.000284049 -0.000115155
0.00545392 -0.000337672 -0.000105551
0.00520831 -0.00219956 0.000834934
0.00548629 -0.000363762 -0.000101882
0.00547558 -0.00242222 0.000587315
0.00587136 -0.00029633 0.000139836
0.00491632 -0.00232924 0.000553368
4.18812e-15 1.05581e-14 8.29566e-14
7.51214e-23 6.65775e-22 8.29106e-22
0.00496679 -0.00228209 0.000547246
0.00525646 -0.00232001 0.000875671
0.00460471 -0.00256064 0.000579206
0.00527106 -0.00240471 0.000981272
0.00555241 -0.000196456 0.000258005
0.00552108 -0.000306845 -0.000113121
0.00547014 -0.000349215 -0.000104187
0.0055155 -0.000328076 -0.000109332
0.00522502 -0.00215287 0.000763645
0.00459616 -0.00197634 0.0004829
0.00490584 -0.00241875 0.000566504
0.00553051 -0.000312097 -0.000114207
0.00554609 -0.000195935 0.000253299
0.0061244 -0.000283467 0.000335814
0.00510269 -0.00257867 0.0010683
0.00586088 -0.000328837 2.10488e-05
0.00609867 -0.000251061 0.00031079
0.00607571 -0.000233742 0.000297248
0.00547347 -0.000340695 -0.00010542
0.00529641 -0.00234996 0.000881893
0.00545371 -0.000312494 -0.000110394
0.0061018 -0.000273114 0.000327514
0.00550465 -0.000330163 -0.000109506
0.00513022 -0.00222929 0.000853523
0.00538998 -0.000320808 -0.000106715
0.00546584 -0.000358375 -0.000102001
0.00462209 -0.00227881 0.000535803
0.00516046 -0.00244243 0.000588764
0.0054349 -0.000294417 -0.000112995
0.00648087 -6.58541e-06 0.000132544
0.00577025 -0.000345261 -0.000129877
0.00609735 -0.000268398 0.000323745
0.00510543 -0.00265197 0.00110381
0.00553379 -0.0003094 -0.00011323
0.00625346 -0.000162854 0.000250137
0.00545568 -0.000334704 -0.000106309
0.00516657 -0.00244424 0.000998573
0.00480848 -0.00238744 0.000558247
0.00531573 -0.00235681 0.000962108
0.00499401 -0.00244564 0.000572195
0.00535081 -0.00238208 0.000575841
0.00505051 -0.00273646 0.00114442
0.00514576 -0.00224349 0.000535657
0.00547577 -0.000313009 -0.000110988
0.00508685 -0.00278841 0.000633202
0.0044388 -0.00131805 0.000370125
0.00520947 -0.0022403 0.000920325
0.00471379 -0.00223776 0.000528633
0.00561961 -0.00301392 0.000669725
0.00469127 -0.00224253 0.00053245
-3.82745e-14 8.17015e-14 2.95886e-13
0.00491984 -0.00244585 0.000558264
0.00540416 -0.000323678 -0.000107103
0.0053983 -0.00171205 0.000409521
0.0049537 -0.00232957 0.000555027
0.00131868 0.0018971 -0.000287691
0.00506513 -0.00185459 0.000455854
0.00654118 -1.9229e-05 0.000144663
0.0050961 -0.00262938 0.000606733
0.00481085 -0.00264321 0.000583097
0.00496295 -0.00195248 0.000470431
0.00492536 -0.00232188 0.000620372
0.00653752 -4.44504e-05 0.000162677
0.00461965 -0.00209471 0.000485449
0.00590679 -0.000286168 7.64372e-05
0.00501018 -0.00213962 0.000505999
2.03105e-14 -2.6494e-14 2.77687e-13
0.0047767 -0.00223583 0.000528271
0.00607882 -0.000860452 0.000287963
0.00434329 -0.00198427 0.000475742
0.00463753 0.000534806 3.61262e-05
0.00509192 -0.00227154 0.000537761
0.00625615 -0.000282857 0.000339246
0.00479486 -0.0020219 0.000477385
0.00540526 -0.000335903 -0.000107563
0.00515014 -0.00222431 0.000542723
0.00512892 -0.00225302 0.000555605
0.0055266 -0.000252244 5.29719e-05
0.00549323 -0.000341266 -0.000106149
0.00559626 -0.000207659 0.000273001
2.03104e-14 -2.64943e-14 2.77686e-13
0.00554422 -0.000301655 -0.000115266
0.00476819 -0.00296217 0.000650469
0.00561394 -0.000215674 0.00027272
0.00540607 -0.00236946 0.000578654
0.00529607 -0.00194329 0.000477724
0.00562555 -0.00334786 0.0014092
-0.02001 -0.0897958 -0.0571326
0.00493597 -0.00208283 0.000514004
0.00502636 -0.00237971 0.000498122
0.00494093 -0.0020734 0.000510998
1.13909e-14 -1.05085e-13 1.19829e-13
0.00512816 -0.00305022 0.00067744
0.00542876 -0.000760989 0.00024385
0.00484351 -0.00198247 0.000493295
0.00221659 2.82571e-05 5.65223e-05
0.00508482 -0.00215217 0.00052085
0.00529117 -0.00228908 0.000919046
0.00483523 -0.00266085 0.00034558
0.00564033 -0.00255339 0.00061151
0.00578336 -0.000378756 -4.71937e-05
0.00545389 -0.000338481 -0.000105364
0.00454625 -0.00136153 0.000406155
0.00558339 -0.000204273 0.000267275
0.00546304 -0.000334327 -0.000106496
-1.91986e-15 2.50496e-15 -2.62516e-14
0.00507995 -0.000737746 0.000265449
0.00623992 -0.000300125 0.000352001
0.00346643 -0.00195225 0.000429556
0.00549887 -0.000351901 -0.00010444
0.0051478 -0.00225599 0.000519921
2.26777e-16 -5.64803e-15 4.6042e-14
0.00561851 -0.000200924 0.000262584
0.00475727 -0.0023443 0.000549217
0.00516629 -0.00216666 0.000535697
0.00572906 -0.000253991 -0.000128079
0.00493715 -0.00220945 0.000533331
0.000830237 -0.00112529 0.00250971
-1.92039e-15 2.50445e-15 -2.62516e-14
0.00527433 -0.00237416 0.000774322
0.000931031 0.00225548 -0.000359927
-1.92004e-15 2.50475e-15 -2.62516e-14
0.00524257 -0.00239652 0.000975554
0.00511371 -0.00217394 0.00053318
0.000657445 0.0011975 -0.000243102
4.24153e-15 -2.63637e-14 -1.54285e-13
4.24064e-15 -2.63639e-14 -1.54285e-13
-3.97508e-15 2.47092e-14 1.44604e-13
3.60573e-15 -1.19881e-14 6.44398e-14
-7.58037e-16 2.58188e-14 -2.11472e-13
3.60467e-15 -1.19883e-14 6.44398e-14
0.000297346 0.000300105 -3.87342e-05
0.00500652 -0.00208892 0.000518094
3.31093e-16 -1.12794e-14 9.2385e-14
2.01506e-06 -0.000110394 -0.00383173
0.00171495 0.00147089 -0.000205528
0.00326902 0.0019345 -0.000240679
-0.0202848 -0.0595286 -0.0999937
0.00489036 0.000449898 5.75612e-05
0.00541252 -0.000339799 -0.000103992
0.00766417 0.00345711 -0.00453302
1.09829e-16 -5.59819e-15 4.60485e-14
-7.57346e-16 2.58188e-14 -2.11472e-13
0.00497036 -0.00278101 0.00116652
0.00473211 -0.000947593 0.000288451
0.00653441 0.000529867 8.7792e-05
0.000152122 0.000237665 -3.5632e-05
0.00162865 0.000760853 0.0017738
-0.00856594 -0.00214525 -0.00635283
5.15485e-15 -3.20384e-14 -1.87495e-13
0.000818335 0.00234252 -0.000375996
3.02213e-08 -5.09522e-07 -6.23166e-08
-6.73708e-15 1.11168e-13 -2.84566e-13
-1.92028e-15 2.50454e-15 -2.62516e-14
0.00496987 -0.00292652 0.000651952
0.00606586 0.00133255 0.000371052
0.00521728 -0.00229192 0.000945568
0.00638255 -0.000385612 -0.000977165
0.00554556 -0.000244333 -0.000126005
0.00431886 -5.49442e-05 0.000114044
1.10993e-05 -0.00177209 -0.00319451
4.24093e-15 -2.63637e-14 -1.54285e-13
0.00167835 0.00030665 -0.00120087
0.00104278 -0.000254296 7.1857e-05
0.00679174 -0.00091316 -0.0011861
4.24151e-15 -2.63636e-14 -1.54285e-13
0.00297402 0.000698248 -3.72689e-05
3.31206e-16 -1.12794e-14 9.2385e-14
2.03108e-14 -2.64932e-14 2.77687e-13
0.00563188 -0.00223005 0.000560997
3.30765e-16 -1.12794e-14 9.2385e-14
3.60666e-15 -1.19877e-14 6.44398e-14
2.34157e-15 -1.49742e-14 -8.70056e-14
0.0010415 0.00142587 -0.000215553
4.2411e-15 -2.63637e-14 -1.54285e-13
0.000855026 0.00231314 -0.000372636
-2.1125e-15 3.59455e-14 -9.17013e-14
0.00531082 -0.00257738 0.00105683
0.0048403 -0.00311821 0.000677775
0.00171056 0.00148312 -0.000206117
0.00518546 -0.00262259 0.00108353
0.00456083 0.00122237 -8.34672e-05
4.24221e-15 -2.63635e-14 -1.54285e-13
-0.000261226 -0.00154662 0.0025679
-1.63347e-14 1.34655e-13 7.81009e-14
0.00556958 -0.000223269 0.000280838
3.31978e-16 -1.12794e-14 9.2385e-14
0.00108884 0.0002727 -0.000797854
0.00573707 -0.000396384 -9.71358e-05

VECTORS force float
3.54046e-10 -1.71386e-10 1.89655e-10
6.83635e-10 -1.74836e-10 -5.00014e-11
-1.00414e-09 4.50141e-10 -1.96272e-10
-5.24115e-11 -3.22333e-12 -3.7028e-12
-1.42647e-10 -4.04425e-10 2.68628e-10
-7.10935e-12 -3.74285e-11 3.58363e-11
-9.81075e-11 -5.28913e-11 -2.40671e-11
-1.40834e-10 -1.45367e-10 1.09566e-10
-7.63883e-12 -1.07411e-11 -7.86037e-12
2.0451e-11 -2.55846e-11 4.4385e-11
8.24812e-14 -1.67244e-10 4.37965e-11
-5.48453e-10 1.23326e-09 4.69169e-10
-2.23786e-10 -4.88133e-10 3.63589e-10
-4.42414e-10 -2.29107e-09 1.1901e-09
1.43317e-10 -1.95111e-10 2.3871e-10
3.48184e-10 -1.52872e-09 9.75417e-10
1.48918e-11 -3.27071e-11 1.67018e-11
2.50832e-11 4.80077e-11 -2.12256e-11
-9.48756e-11 -3.92994e-10 2.92451e-10
-1.22184e-10 -1.3175e-10 8.65332e-11
2.65739e-10 1.82428e-10 7.95216e-11
1.64944e-09 -5.90836e-10 1.43983e-10
1.05094e-10 5.27762e-11 -1.24178e-11
7.93949e-12 5.64974e-11 -1.47315e-11
6.15501e-11 3.32057e-11 -1.08582e-11
-6.57414e-10 -6.30594e-10 5.16048e-12
-3.85389e-11 -2.57732e-12 -9.7773e-12
8.24367e-12 -2.2441e-10 1.71386e-10
1.77169e-10 1.46623e-10 -3.01206e-11
-2.00479e-11 -1.1037e-10 -3.40879e-11
3.04328e-10 -1.34469e-10 1.27449e-10
-1.85576e-11 -3.57337e-11 1.9772e-11
1.93075e-10 1.11446e-09 -9.36615e-10
-9.81445e-11 -7.58713e-11 2.84348e-10
8.70561e-13 -5.08903e-12 8.22447e-13
-1.93674e-10 -1.45338e-10 2.92879e-11
5.8163e-10 -2.73868e-10 1.43574e-10
-7.81785e-11 -9.6247e-13 4.39924e-11
-1.28526e-10 1.78541e-10 -1.11921e-10
-5.01555e-10 -4.70513e-10 1.00552e-10
-6.30075e-11 3.74284e-10 -1.19855e-10
-6.24723e-12 -2.24321e-11 1.23439e-11
-1.44695e-11 4.45646e-11 -2.7107e-11
6.55585e-10 9.30841e-10 -6.21712e-10
-2.14807e-10 -1.83311e-10 4.56962e-11
1.89919e-11 9.32579e-12 -8.66943e-12
6.09709e-11 2.53677e-10 -5.4347e-11
2.54758e-12 -2.13042e-10 4.30175e-11
-1.45677e-09 -4.63131e-11 -4.69212e-10
3.11321e-11 -1.17217e-11 -3.44864e-12
-2.31117e-11 -3.60285e-10 2.67128e-10
1.02663e-09 7.16197e-10 -4.44056e-10
-2.99894e-10 -4.90316e-11 2.87318e-10
-1.56048e-11 3.1453e-11 -8.58025e-12
-1.18371e-10 -2.66735e-11 -2.30099e-11
-3.00061e-10 -1.40131e-10 6.03728e-11
-1.82633e-10 -1.9737e-10 1.30909e-10
-2.72006e-10 1.60347e-10 -1.63557e-11
-1.41438e-10 -4.19591e-11 3.53684e-11