# vtk DataFile Version 3.0
LIGGGHTS particles timestep 19200000
ASCII
DATASET POLYDATA
POINTS 287 float
0.124774 0.0163187 0.00778893
0.125401 0.0181436 0.00696024
0.118578 0.0159973 0.00833049
0.125108 0.0176923 0.00706275
0.124639 0.0161207 0.00790221
0.130715 0.0164619 0.00776004
0.124828 0.016876 0.00744964
0.124542 0.0157689 0.00824002
0.130992 0.0176 0.0072557
0.124763 0.0166275 0.00760474
0.125358 0.0179452 0.00700619
0.118748 0.0165877 0.00769395
0.12462 0.0160395 0.00795738
0.118488 0.0157042 0.00856156
0.124989 0.0171506 0.00727719
0.118468 0.0156389 0.0086346
0.124742 0.0165438 0.00765497
0.130863 0.0170407 0.00742571
0.1246 0.0159637 0.00801963
0.124754 0.0162341 0.00783835
0.124871 0.0170417 0.00734625
0.118884 0.0167484 0.0075333
0.130927 0.0173197 0.0073409
0.124806 0.0167932 0.00750134
0.130798 0.0167608 0.0075108
0.119033 0.0174016 0.00731595
0.125088 0.017597 0.00708482
0.124581 0.0158969 0.00809141
0.125047 0.0174063 0.00712898
0.12485 0.0169589 0.00739795
0.124967 0.0170675 0.00732904
0.130735 0.0165304 0.00769007
0.12472 0.0164595 0.0077042
0.124946 0.0169847 0.00738074
0.131035 0.0177868 0.00719891
0.124903 0.016819 0.00748412
0.125122 0.0173444 0.00715548
0.130949 0.0174131 0.0073125
0.124678 0.0162907 0.00780281
0.124893 0.0171245 0.00729456
0.125142 0.0174369 0.0071228
0.130755 0.0165989 0.00762011
0.130841 0.0169473 0.00745411
0.124698 0.0163752 0.00775343
0.124933 0.0172907 0.0071909
0.130826 0.0168529 0.00748331
0.124992 0.0175667 0.00709092
0.124972 0.017473 0.00711938
0.118727 0.0165168 0.00776138
0.13089 0.0171349 0.00740701
0.124734 0.0161494 0.00788784
0.118527 0.015835 0.00841539
0.124924 0.0169018 0.00743245
0.130776 0.0166789 0.00756411
0.125042 0.0170107 0.00736341
0.125064 0.0170944 0.00731122
0.124659 0.0162059 0.00785237
0.125162 0.0175323 0.00710072
0.125127 0.0177931 0.0071405
0.130905 0.0172263 0.0073693
0.119056 0.0176484 0.00725871
0.119124 0.0175687 0.00727471
0.125325 0.0178511 0.00702785
0.125203 0.0177229 0.00705657
0.124838 0.0165711 0.00764012
0.13097 0.0175065 0.0072841
0.118507 0.0157696 0.00848846
0.125183 0.0176276 0.00707865
0.124785 0.0167104 0.00755305
0.125009 0.017234 0.00722517
0.119032 0.0173444 0.00723395
0.125237 0.0182523 0.00693314
0.118582 0.0160207 0.00823336
0.119099 0.0174737 0.00729357
0.125033 0.0177575 0.00704674
0.118874 0.0170532 0.00740101
0.11881 0.0168007 0.00749208
0.118918 0.0165528 0.00771159
0.131013 0.0176934 0.00722731
0.118698 0.0161103 0.00814037
0.125067 0.0175017 0.0071069
0.12502 0.0169279 0.00741511
0.125072 0.0179434 0.00709028
0.12505 0.0178443 0.00709318
0.125452 0.0179791 0.00699925
0.118768 0.0166585 0.00762653
0.125266 0.0179304 0.00704132
0.125099 0.0180718 0.00697435
0.125326 0.0182075 0.00694454
0.125168 0.0179142 0.00709447
0.125286 0.0180136 0.00698946
0.118685 0.0163751 0.00789622
0.125079 0.0179762 0.00699608
0.11916 0.0176605 0.00725785
0.125258 0.017563 0.00709452
0.118903 0.0169718 0.00745129
0.0643568 0.0187248 0.00531097
0.24257 0.0191927 0.00520306
0.119049 0.0170062 0.00734592
0.118644 0.0162333 0.00803107
0.119141 0.0170275 0.00731429
0.118602 0.0160916 0.00816592
0.124881 0.0167362 0.00753584
0.124952 0.0173797 0.00714971
0.125372 0.0184831 0.00688059
0.125248 0.0184308 0.0069666
0.118706 0.0164459 0.0078288
0.119326 0.017888 0.00711381
0.119376 0.0176985 0.00724965
0.125028 0.0173179 0.00717287
0.124859 0.0166535 0.00758779
0.124714 0.0160648 0.00793734
0.118568 0.0159617 0.00842347
0.125084 0.0171775 0.00725933
0.124561 0.0158329 0.00816571
0.124522 0.0157049 0.00831434
0.125273 0.01848 0.00688325
0.118739 0.0162521 0.00800552
0.125105 0.0178821 0.00701834
0.124695 0.0159809 0.00798809
0.124914 0.0172074 0.00724287
0.118665 0.0163042 0.00796365
0.125012 0.0176621 0.00706883
0.125141 0.0180301 0.00705494
0.118905 0.0168196 0.00746557
0.119138 0.0177876 0.00721677
0.125129 0.0177876 0.00704067
0.124934 0.0165965 0.00762189
0.125104 0.0172609 0.00720734
0.124677 0.0159166 0.00806261
0.118677 0.0160394 0.0082078
0.125157 0.018359 0.00690996
0.124816 0.0164874 0.00769038
0.125345 0.0183031 0.0069224
0.118718 0.0161812 0.00807295
0.119001 0.01684 0.00744623
0.118623 0.0161625 0.0080985
0.11915 0.0174722 0.00720747
0.119041 0.0166492 0.00761164
0.118656 0.0159686 0.00827523
0.118873 0.0170262 0.00730475
0.125138 0.0182632 0.00693109
0.118822 0.0165356 0.00773578
0.119339 0.0175375 0.00719869
0.11878 0.0163938 0.00787066
0.118971 0.0170592 0.00730037
0.119053 0.0174397 0.00721173
0.118949 0.0169652 0.0073269
0.0219312 0.0187687 0.00551176
0.119066 0.0170913 0.00729616
0.125205 0.0178509 0.00702667
0.118956 0.0174073 0.00721601
0.118991 0.0171564 0.00728737
0.119132 0.0178211 0.00712277
0.119244 0.017505 0.00720303
0.12489 0.0164304 0.00772557
0.118801 0.0164647 0.00780324
0.119162 0.0171227 0.00729212
0.119305 0.0177928 0.00713593
0.119203 0.0173133 0.00724771
0.124913 0.0165137 0.00767358
0.119379 0.0177282 0.00715423
0.125306 0.0181119 0.00696668
0.119108 0.0172817 0.00725184
0.112985 0.0175511 0.00723916
0.118929 0.0168925 0.00739601
0.118997 0.0175974 0.0071717
0.119346 0.017984 0.00709143
0.119284 0.0177022 0.00717296
0.118915 0.0172166 0.00726044
0.124795 0.0164031 0.00773964
0.119183 0.017218 0.00726994
0.125259 0.0180878 0.00705153
0.118853 0.016951 0.00736734
0.118894 0.0171213 0.00728261
0.125237 0.0174676 0.00711661
0.125217 0.0181567 0.00695529
0.125278 0.0176583 0.00707244
0.113155 0.0179078 0.00699808
0.125177 0.0184565 0.00690064
0.119103 0.0168622 0.0074091
0.124999 0.016845 0.00746682
0.118938 0.0166237 0.00764414
0.1194 0.0178234 0.00713209
0.118448 0.0155735 0.00870768
0.11304 0.0177971 0.00707662
0.118936 0.0171453 0.00737033
0.119011 0.0172491 0.00725614
0.118789 0.0167294 0.00755912
0.119272 0.0180477 0.00707333
0.119118 0.0169341 0.00734123
0.125297 0.0177576 0.00704941
0.118864 0.0166773 0.00760092
0.119093 0.0176305 0.00716724
0.119128 0.0173771 0.00722961
0.11876 0.0163229 0.00793809
0.119087 0.0171864 0.00727402
0.118843 0.0166065 0.00766836
0.125051 0.0177226 0.00713873
0.125198 0.0180587 0.006978
0.119225 0.0174085 0.00722557
0.125217 0.0173722 0.00713871
0.125176 0.0179527 0.00700258
0.113118 0.0177412 0.00710813
0.118977 0.017504 0.00720133
0.124956 0.0166794 0.0075702
0.119157 0.0178853 0.00719493
0.125118 0.0181673 0.0069518
0.118936 0.0173119 0.00723822
0.11306 0.0174932 0.00727211
0.124977 0.0167622 0.0075185
0.119024 0.0169217 0.00739333
0.118831 0.0168745 0.00742799
0.125196 0.0185503 0.00687142
0.119357 0.0176332 0.00717631
0.11317 0.0179979 0.00695726
0.113005 0.0176328 0.00718509
0.119023 0.0175552 0.00727345
0.119214 0.018204 0.00703356
0.112964 0.0174696 0.00729315
0.118897 0.016482 0.00777898
0.11898 0.0167654 0.00750932
0.125256 0.0183482 0.00691094
0.119178 0.018465 0.00700915
0.119325 0.0183353 0.00700603
0.119252 0.0184003 0.00698765
0.11277 0.0167374 0.00777879
0.112834 0.0169815 0.0076169
0.112748 0.016656 0.00783276
0.118959 0.0166946 0.00757673
0.118919 0.0172439 0.00735656
0.112791 0.0168187 0.00772483
0.112921 0.0173069 0.00740106
0.119105 0.0177271 0.00714444
0.119231 0.0178608 0.00713045
0.113059 0.0178803 0.00702419
0.119074 0.0175349 0.00718959
0.12542 0.0182392 0.0069381
0.113096 0.0180654 0.00695877
0.113101 0.0176589 0.00716244
0.112899 0.0172256 0.00745502
0.118547 0.0159032 0.00834515
0.119168 0.0175679 0.00718512
0.119059 0.0178898 0.0071176
0.119133 0.0179899 0.00716607
0.113116 0.0181628 0.00696944
0.119262 0.0178271 0.00721946
0.119232 0.0183003 0.007011
0.119309 0.018239 0.00702861
0.112879 0.0171439 0.0075091
0.119079 0.0179812 0.00708226
0.113024 0.0177148 0.00713091
0.119319 0.0174413 0.00722114
0.119174 0.018013 0.00707811
0.118963 0.0174692 0.00729423
0.11904 0.0178012 0.00715972
0.12538 0.0180469 0.00698265
0.119261 0.0176052 0.00717953
0.113156 0.0183576 0.00699076
0.119119 0.0181721 0.00703776
0.113136 0.0182602 0.0069801
0.119154 0.0179176 0.00710034
0.119017 0.017695 0.00717939
0.119139 0.0182699 0.00703207
0.11921 0.0177651 0.00715032
0.112943 0.0173882 0.00734712
0.113135 0.0178234 0.00705391
0.119299 0.0173437 0.0072439
0.11308 0.0175753 0.00721777
0.112813 0.0169 0.00767089
0.119207 0.0183136 0.00710703
0.119194 0.0181086 0.0070558
0.119099 0.0180766 0.00706004
0.119252 0.0179522 0.0070956
0.119134 0.0181382 0.00713053
0.119062 0.0167201 0.00754423
0.119083 0.0167911 0.00747664
0.119292 0.018143 0.00705111
0.118876 0.0164111 0.00784641
0.119185 0.0176689 0.00716137
0.119226 0.0184175 0.00708289
0.113191 0.0180959 0.00696807
0.119159 0.0183678 0.00702262
0.125198 0.0172881 0.00718934
0.112856 0.0170628 0.00756293
0.113079 0.0179717 0.00698932
0.125343 0.0180196 0.00707141

VERTICES 287 574
1 0
1 1
1 2
1 3
1 4
1 5
1 6
1 7
1 8
1 9
1 10
1 11
1 12
1 13
1 14
1 15
1 16
1 17
1 18
1 19
1 20
1 21
1 22
1 23
1 24
1 25
1 26
1 27
1 28
1 29
1 30
1 31
1 32
1 33
1 34
1 35
1 36
1 37
1 38
1 39
1 40
1 41
1 42
1 43
1 44
1 45
1 46
1 47
1 48
1 49
1 50
1 51
1 52
1 53
1 54
1 55
1 56
1 57
1 58
1 59
1 60
1 61
1 62
1 63
1 64
1 65
1 66
1 67
1 68
1 69
1 70
1 71
1 72
1 73
1 74
1 75
1 76
1 77
1 78
1 79
1 80
1 81
1 82
1 83
1 84
1 85
1 86
1 87
1 88
1 89
1 90
1 91
1 92
1 93
1 94
1 95
1 96
1 97
1 98
1 99
1 100
1 101
1 102
1 103
1 104
1 105
1 106
1 107
1 108
1 109
1 110
1 111
1 112
1 113
1 114
1 115
1 116
1 117
1 118
1 119
1 120
1 121
1 122
1 123
1 124
1 125
1 126
1 127
1 128
1 129
1 130
1 131
1 132
1 133
1 134
1 135
1 136
1 137
1 138
1 139
1 140
1 141
1 142
1 143
1 144
1 145
1 146
1 147
1 148
1 149
1 150
1 151
1 152
1 153
1 154
1 155
1 156
1 157
1 158
1 159
1 160
1 161
1 162
1 163
1 164
1 165
1 166
1 167
1 168
1 169
1 170
1 171
1 172
1 173
1 174
1 175
1 176
1 177
1 178
1 179
1 180
1 181
1 182
1 183
1 184
1 185
1 186
1 187
1 188
1 189
1 190
1 191
1 192
1 193
1 194
1 195
1 196
1 197
1 198
1 199
1 200
1 201
1 202
1 203
1 204
1 205
1 206
1 207
1 208
1 209
1 210
1 211
1 212
1 213
1 214
1 215
1 216
1 217
1 218
1 219
1 220
1 221
1 222
1 223
1 224
1 225
1 226
1 227
1 228
1 229
1 230
1 231
1 232
1 233
1 234
1 235
1 236
1 237
1 238
1 239
1 240
1 241
1 242
1 243
1 244
1 245
1 246
1 247
1 248
1 249
1 250
1 251
1 252
1 253
1 254
1 255
1 256
1 257
1 258
1 259
1 260
1 261
1 262
1 263
1 264
1 265
1 266
1 267
1 268
1 269
1 270
1 271
1 272
1 273
1 274
1 275
1 276
1 277
1 278
1 279
1 280
1 281
1 282
1 283
1 284
1 285
1 286

POINT_DATA 287
SCALARS id int 1
LOOKUP_TABLE default
1
2
3
4
5
6
7
8
9
10
11
12
13
14
15
16
17
18
19
21
22
23
24
25
26
27
28
29
30
31
32
33
34
35
36
37
38
39
41
42
44
45
46
47
48
49
50
51
52
53
54
55
56
57
59
60
61
62
63
64
65
66
67
68
69
70
71
72
73
74
76
77
78
79
80
81
82
83
84
85
86
87
88
89
90
91
92
93
94
95
96
97
98
99
100
101
102
103
104
105
106
107
108
109
110
111
112
113
114
115
116
117
118
119
120
121
122
123
124
125
126
127
128
129
130
131
132
133
134
135
136
137
138
140
141
142
143
144
146
147
148
149
150
151
153
154
155
156
157
158
159
160
162
164
165
166
167
168
169
170
171
172
173
174
175
176
177
178
179
181
182
183
184
185
186
187
188
189
190
191
192
193
194
195
196
197
198
199
200
201
202
203
204
205
206
207
208
209
210
211
212
213
214
215
216
217
218
219
220
221
222
223
224
225
226
227
228
229
230
231
232
233
234
235
236
237
239
240
241
242
243
244
246
247
248
249
250
251
252
253
254
255
256
257
258
259
260
261
262
263
264
265
266
267
268
269
270
271
272
273
274
275
276
277
278
279
280
281
282
283
284
285
286
287
288
289
290
291
292
293
294
295
296
297
298
299
300

SCALARS type int 1
LOOKUP_TABLE default
1
1
1
1
1
1
1
1
1
1
1
1
1
1
1
1
1
1
1
1
1
1
1
1
1
1
1
1
1
1
1
1
1
1
1
1
1
1
1
1
1
1
1
1
1
1
1
1
1
1
1
1
1
1
1
1
1
1
1
1
1
1
1
1
1
1
1
1
1
1
1
1
1
1
1
1
1
1
1
1
1
1
1
1
1
1
1
1
1
1
1
1
1
1
1
1
1
1
1
1
1
1
1
1
1
1
1
1
1
1
1
1
1
1
1
1
1
1
1
1
1
1
1
1
1
1
1
1
1
1
1
1
1
1
1
1
1
1
1
1
1
1
1
1
1
1
1
1
1
1
1
1
1
1
1
1
1
1
1
1
1
1
1
1
1
1
1
1
1
1
1
1
1
1
1
1
1
1
1
1
1
1
1
1
1
1
1
1
1
1
1
1
1
1
1
1
1
1
1
1
1
1
1
1
1
1
1
1
1
1
1
1
1
1
1
1
1
1
1
1
1
1
1
1
1
1
1
1
1
1
1
1
1
1
1
1
1
1
1
1
1
1
1
1
1
1
1
1
1
1
1
1
1
1
1
1
1
1
1
1
1
1
1
1
1
1
1
1
1
1
1
1
1
1
1
1
1
1
1
1
1
1
1
1
1
1
1

SCALARS radius float 1
LOOKUP_TABLE default
5e-05
5e-05
5e-05
5e-05
5e-05
5e-05
5e-05
5e-05
5e-05
5e-05
5e-05
5e-05
5e-05
5e-05
5e-05
5e-05
5e-05
5e-05
5e-05
5e-05
5e-05
5e-05
5e-05
5e-05
5e-05
5e-05
5e-05
5e-05
5e-05
5e-05
5e-05
5e-05
5e-05
5e-05
5e-05
5e-05
5e-05
5e-05
5e-05
5e-05
5e-05
5e-05
5e-05
5e-05
5e-05
5e-05
5e-05
5e-05
5e-05
5e-05
5e-05
5e-05
5e-05
5e-05
5e-05
5e-05
5e-05
5e-05
5e-05
5e-05
5e-05
5e-05
5e-05
5e-05
5e-05
5e-05
5e-05
5e-05
5e-05
5e-05
5e-05
5e-05
5e-05
5e-05
5e-05
5e-05
5e-05
5e-05
5e-05
5e-05
5e-05
5e-05
5e-05
5e-05
5e-05
5e-05
5e-05
5e-05
5e-05
5e-05
5e-05
5e-05
5e-05
5e-05
5e-05
5e-05
5e-05
5e-05
5e-05
5e-05
5e-05
5e-05
5e-05
5e-05
5e-05
5e-05
5e-05
5e-05
5e-05
5e-05
5e-05
5e-05
5e-05
5e-05
5e-05
5e-05
5e-05
5e-05
5e-05
5e-05
5e-05
5e-05
5e-05
5e-05
5e-05
5e-05
5e-05
5e-05
5e-05
5e-05
5e-05
5e-05
5e-05
5e-05
5e-05
5e-05
5e-05
5e-05
5e-05
5e-05
5e-05
5e-05
5e-05
5e-05
5e-05
5e-05
5e-05
5e-05
5e-05
5e-05
5e-05
5e-05
5e-05
5e-05
5e-05
5e-05
5e-05
5e-05
5e-05
5e-05
5e-05
5e-05
5e-05
5e-05
5e-05
5e-05
5e-05
5e-05
5e-05
5e-05
5e-05
5e-05
5e-05
5e-05
5e-05
5e-05
5e-05
5e-05
5e-05
5e-05
5e-05
5e-05
5e-05
5e-05
5e-05
5e-05
5e-05
5e-05
5e-05
5e-05
5e-05
5e-05
5e-05
5e-05
5e-05
5e-05
5e-05
5e-05
5e-05
5e-05
5e-05
5e-05
5e-05
5e-05
5e-05
5e-05
5e-05
5e-05
5e-05
5e-05
5e-05
5e-05
5e-05
5e-05
5e-05
5e-05
5e-05
5e-05
5e-05
5e-05
5e-05
5e-05
5e-05
5e-05
5e-05
5e-05
5e-05
5e-05
5e-05
5e-05
5e-05
5e-05
5e-05
5e-05
5e-05
5e-05
5e-05
5e-05
5e-05
5e-05
5e-05
5e-05
5e-05
5e-05
5e-05
5e-05
5e-05
5e-05
5e-05
5e-05
5e-05
5e-05
5e-05
5e-05
5e-05
5e-05
5e-05
5e-05
5e-05
5e-05
5e-05
5e-05
5e-05
5e-05
5e-05
5e-05
5e-05
5e-05
5e-05
5e-05
5e-05
5e-05
5e-05
5e-05
5e-05
5e-05
5e-05
5e-05
5e-05
5e-05
5e-05
5e-05
5e-05
5e-05
5e-05
5e-05
5e-05

SCALARS mass float 1
LOOKUP_TABLE default
1.46608e-10
1.46608e-10
1.46608e-10
1.46608e-10
1.46608e-10
1.46608e-10
1.46608e-10
1.46608e-10
1.46608e-10
1.46608e-10
1.46608e-10
1.46608e-10
1.46608e-10
1.46608e-10
1.46608e-10
1.46608e-10
1.46608e-10
1.46608e-10
1.46608e-10
1.46608e-10
1.46608e-10
1.46608e-10
1.46608e-10
1.46608e-10
1.46608e-10
1.46608e-10
1.46608e-10
1.46608e-10
1.46608e-10
1.46608e-10
1.46608e-10
1.46608e-10
1.46608e-10
1.46608e-10
1.46608e-10
1.46608e-10
1.46608e-10
1.46608e-10
1.46608e-10
1.46608e-10
1.46608e-10
1.46608e-10
1.46608e-10
1.46608e-10
1.46608e-10
1.46608e-10
1.46608e-10
1.46608e-10
1.46608e-10
1.46608e-10
1.46608e-10
1.46608e-10
1.46608e-10
1.46608e-10
1.46608e-10
1.46608e-10
1.46608e-10
1.46608e-10
1.46608e-10
1.46608e-10
1.46608e-10
1.46608e-10
1.46608e-10
1.46608e-10
1.46608e-10
1.46608e-10
1.46608e-10
1.46608e-10
1.46608e-10
1.46608e-10
1.46608e-10
1.46608e-10
1.46608e-10
1.46608e-10
1.46608e-10
1.46608e-10
1.46608e-10
1.46608e-10
1.46608e-10
1.46608e-10
1.46608e-10
1.46608e-10
1.46608e-10
1.46608e-10
1.46608e-10
1.46608e-10
1.46608e-10
1.46608e-10
1.46608e-10
1.46608e-10
1.46608e-10
1.46608e-10
1.46608e-10
1.46608e-10
1.46608e-10
1.46608e-10
1.46608e-10
1.46608e-10
1.46608e-10
1.46608e-10
1.46608e-10
1.46608e-10
1.46608e-10
1.46608e-10
1.46608e-10
1.46608e-10
1.46608e-10
1.46608e-10
1.46608e-10
1.46608e-10
1.46608e-10
1.46608e-10
1.46608e-10
1.46608e-10
1.46608e-10
1.46608e-10
1.46608e-10
1.46608e-10
1.46608e-10
1.46608e-10
1.46608e-10
1.46608e-10
1.46608e-10
1.46608e-10
1.46608e-10
1.46608e-10
1.46608e-10
1.46608e-10
1.46608e-10
1.46608e-10
1.46608e-10
1.46608e-10
1.46608e-10
1.46608e-10
1.46608e-10
1.46608e-10
1.46608e-10
1.46608e-10
1.46608e-10
1.46608e-10
1.46608e-10
1.46608e-10
1.46608e-10
1.46608e-10
1.46608e-10
1.46608e-10
1.46608e-10
1.46608e-10
1.46608e-10
1.46608e-10
1.46608e-10
1.46608e-10
1.46608e-10
1.46608e-10
1.46608e-10
1.46608e-10
1.46608e-10
1.46608e-10
1.46608e-10
1.46608e-10
1.46608e-10
1.46608e-10
1.46608e-10
1.46608e-10
1.46608e-10
1.46608e-10
1.46608e-10
1.46608e-10
1.46608e-10
1.46608e-10
1.46608e-10
1.46608e-10
1.46608e-10
1.46608e-10
1.46608e-10
1.46608e-10
1.46608e-10
1.46608e-10
1.46608e-10
1.46608e-10
1.46608e-10
1.46608e-10
1.46608e-10
1.46608e-10
1.46608e-10
1.46608e-10
1.46608e-10
1.46608e-10
1.46608e-10
1.46608e-10
1.46608e-10
1.46608e-10
1.46608e-10
1.46608e-10
1.46608e-10
1.46608e-10
1.46608e-10
1.46608e-10
1.46608e-10
1.46608e-10
1.46608e-10
1.46608e-10
1.46608e-10
1.46608e-10
1.46608e-10
1.46608e-10
1.46608e-10
1.46608e-10
1.46608e-10
1.46608e-10
1.46608e-10
1.46608e-10
1.46608e-10
1.46608e-10
1.46608e-10
1.46608e-10
1.46608e-10
1.46608e-10
1.46608e-10
1.46608e-10
1.46608e-10
1.46608e-10
1.46608e-10
1.46608e-10
1.46608e-10
1.46608e-10
1.46608e-10
1.46608e-10
1.46608e-10
1.46608e-10
1.46608e-10
1.46608e-10
1.46608e-10
1.46608e-10
1.46608e-10
1.46608e-10
1.46608e-10
1.46608e-10
1.46608e-10
1.46608e-10
1.46608e-10
1.46608e-10
1.46608e-10
1.46608e-10
1.46608e-10
1.46608e-10
1.46608e-10
1.46608e-10
1.46608e-10
1.46608e-10
1.46608e-10
1.46608e-10
1.46608e-10
1.46608e-10
1.46608e-10
1.46608e-10
1.46608e-10
1.46608e-10
1.46608e-10
1.46608e-10
1.46608e-10
1.46608e-10
1.46608e-10
1.46608e-10
1.46608e-10
1.46608e-10
1.46608e-10
1.46608e-10
1.46608e-10
1.46608e-10
1.46608e-10
1.46608e-10
1.46608e-10
1.46608e-10
1.46608e-10
1.46608e-10
1.46608e-10
1.46608e-10
1.46608e-10
1.46608e-10
1.46608e-10
1.46608e-10
1.46608e-10
1.46608e-10
1.46608e-10
1.46608e-10
1.46608e-10

VECTORS velocity float
0.00591219 -5.40451e-05 0.000191593
0.00562238 -7.8799e-05 7.66425e-05
0.00569304 -0.000359331 -0.000150616
0.00568515 -5.72212e-05 7.36959e-05
0.00563918 -3.23341e-05 0.00017735
0.00591458 -0.000691682 0.0001724
0.006191 -0.000209672 5.59165e-05
0.00563015 -0.000278799 -5.51876e-05
0.00593376 -0.000402309 0.000603993
0.00614025 -0.000264645 -9.47612e-05
0.00558303 4.79444e-05 4.9293e-05
0.00603883 -0.00043934 -0.000117993
0.00565416 -4.83627e-05 0.00011578
0.00545824 -5.745e-05 7.40368e-05
0.00607132 -0.000179531 3.82224e-05
0.00540288 -4.29947e-05 5.85545e-05
0.00612847 -7.48476e-05 0.000216006
0.00602612 -0.000419695 0.000616984
0.00567557 -0.000187193 -5.17261e-05
0.00572315 -2.17758e-05 0.000171435
0.00614634 -0.000215911 6.04153e-05
0.00612965 -0.000399446 -0.000159106
0.00598005 -0.000411022 0.000610501
0.00618193 -0.000200884 4.85335e-05
0.00607236 -0.000428408 0.000623488
0.00596464 -0.000282119 0.00040577
0.00571089 -5.77604e-05 7.16006e-05
0.00566016 -0.000247865 -8.40635e-05
0.00576245 -6.16957e-05 7.60841e-05
0.00618916 -0.000219582 6.23018e-05
0.006122 -0.000180349 3.83758e-05
0.00596151 -0.000700619 0.000177209
0.00613109 -5.35612e-05 0.000201858
0.00616805 -0.000195392 4.5887e-05
0.0059029 -0.000396503 0.000599654
0.00619485 -0.000199268 5.37381e-05
0.00576465 -0.000588445 -0.0015034
0.00596462 -0.000408116 0.000608332
0.00561104 4.15599e-05 0.000130962
0.00608495 -0.000206386 5.46072e-05
0.00575871 -3.65853e-05 6.67332e-05
0.00600839 -0.000709565 0.000182014
0.00604156 -0.000422594 0.00061915
0.0061237 -2.7611e-05 0.000187217
0.00591399 -0.000161645 3.05934e-05
0.00605713 -0.000424567 0.000621033
0.00575903 -8.83736e-05 7.99851e-05
0.00573982 -9.11476e-05 6.46302e-05
0.00601069 -0.000424257 -0.000124682
0.00601089 -0.000415659 0.000614576
0.00563025 1.29548e-07 0.000158569
0.00564678 -8.27638e-05 0.000109815
0.00618671 -0.000199943 5.23924e-05
0.006043 -0.000566202 0.000400112
0.00615556 -0.000146617 1.70734e-05
0.00611693 -0.00013901 1.27344e-05
0.00565565 0.000138914 7.56451e-05
0.00574187 -3.33951e-05 7.42108e-05
0.00568836 -1.33652e-05 6.81836e-05
0.00599547 -0.000413921 0.000612673
0.00566386 -8.18414e-05 0.000222611
0.00543414 -7.01295e-05 0.000102568
0.00562004 1.6818e-06 5.48938e-05
0.00568048 -3.02746e-05 6.54532e-05
0.00612914 -0.000165636 6.86229e-05
0.00594919 -0.000405212 0.000606162
0.00557727 -7.68627e-05 9.63206e-05
0.00571802 -3.26812e-05 6.68828e-05
0.00616016 -0.000211946 8.66938e-06
0.00600481 -0.000134289 1.33322e-05
0.00555656 -6.83473e-05 0.000234713
0.00564033 -6.32272e-05 6.91939e-05
0.00572772 -0.000366849 -0.000150419
0.00564054 -7.38376e-05 0.000211725
0.00580048 -8.69672e-05 8.02264e-05
0.00624084 -0.000179885 0.000266446
0.00614442 -0.000444094 -0.000114511
0.00598556 -0.000374485 -0.000169707
0.00591833 -0.000399406 0.000601824
0.0057793 -0.000409759 -0.000119488
0.00573036 -5.86055e-05 7.27103e-05
0.00618409 -0.000193034 4.48695e-05
0.00559122 -8.23615e-05 7.1954e-05
0.00566044 -7.10452e-05 0.000112195
0.00562153 -4.5672e-05 6.77785e-05
0.00607701 -0.000448645 -0.00011788
0.00559459 -2.20226e-05 6.31926e-05
0.00559666 -6.78789e-05 6.8274e-05
0.00563212 -7.2699e-05 7.45514e-05
0.00559787 -5.35416e-05 6.22613e-05
0.00559082 -0.000122062 9.29893e-05
0.00591777 -0.000415631 -0.000125657
0.00557564 -6.05944e-05 7.26963e-05
0.0056697 -0.000159137 0.000235643
0.00567348 -3.58201e-05 6.14585e-05
0.00684067 -0.000214008 -0.000176834
4.37803e-15 1.04716e-14 8.29577e-14
-1.01195e-22 5.77616e-22 -5.81428e-22
0.00580585 -0.000146044 0.000118408
0.00584185 -0.000395478 -0.000136619
0.00575345 9.67233e-05 0.00018224
0.00576998 -0.000378836 -0.000147304
0.00618746 -0.000195935 4.60509e-05
0.00576158 -0.000113399 3.40117e-05
0.00551192 0.00186159 -0.000373325
0.00592228 0.000182689 -0.000226397
0.00595451 -0.000416505 -0.000125137
0.00578263 -0.000149963 0.000250247
0.00565932 -0.000153185 0.000248265
0.0058333 -5.43556e-05 -3.67847e-05
0.00616092 -0.000212284 3.47635e-06
0.00564709 6.0122e-06 0.000155779
0.0056616 -0.000350973 -0.000152875
0.00602126 -8.90767e-05 -1.62702e-05
0.00563123 -0.000264652 -7.00672e-05
0.00556435 -0.000278863 -5.07849e-05
0.00554256 0.000545898 -0.000239342
0.00585494 -0.000432231 -0.000104109
0.0056026 -6.08633e-05 6.93068e-05
0.00564513 -0.000176787 -0.000158539
0.00604936 -0.000195473 4.73818e-05
0.0058911 -0.00040321 -0.00013476
0.00578244 -8.70287e-05 8.08201e-05
0.00556702 -5.79589e-05 8.47625e-05
0.00626961 -0.000400629 -0.000167781
0.00569472 -0.000149729 0.000253197
0.00565204 -5.31282e-05 7.04035e-05
0.00614012 -0.00019991 4.73469e-05
0.00599564 -0.000130021 5.52802e-06
0.00573143 -0.000174227 -0.000181851
0.00573607 -0.000398999 -0.000124621
0.00569208 -8.18276e-05 2.14038e-05
0.00611887 -7.67835e-05 0.000211014
0.00567194 -8.49939e-05 7.58121e-05
0.00581639 -0.000421907 -0.000111246
0.00622232 -0.000406329 -0.000170022
0.005804 -0.000389569 -0.000139453
0.00565398 -9.43186e-05 0.000227851
0.00619249 -0.00027101 -0.00028195
0.00569411 -0.000389445 -0.000129542
0.00625661 -0.000196838 0.000271951
0.00564899 -8.05651e-05 5.79679e-05
0.00601262 -0.000453263 -9.90729e-05
0.00562652 -9.91782e-05 0.000229035
0.00589068 -0.000447234 -9.33688e-05
0.00621407 -0.000232205 0.000268925
0.00565916 -0.000100337 0.000231833
0.006295 -0.000351764 -0.000212796
-3.83421e-14 8.16647e-14 2.95887e-13
0.00564353 -5.0878e-05 0.000216499
0.00563216 -3.38469e-05 6.41299e-05
0.00563765 -8.69791e-05 0.000228006
0.00560136 -0.000126848 0.000194368
0.0056908 -0.000154773 0.000246539
0.00563452 -8.738e-05 0.000226576
0.00628669 -2.65019e-06 -6.90952e-05
0.00594131 -0.000457895 -8.88007e-05
0.00576227 8.94376e-05 0.000188589
0.0056996 -0.000138161 0.000248469
0.00581509 7.97379e-05 0.000194769
0.00612179 -0.000192616 4.35229e-05
0.00570497 -0.000147987 0.000247343
0.00560345 -7.19886e-05 7.38716e-05
0.00559 -6.13079e-05 0.000219077
0.00552823 -0.000508148 -3.95879e-06
0.00616893 -0.000469269 -8.84516e-05
0.00568328 -7.60776e-05 0.000226721
0.00575303 -3.91943e-05 0.000220941
0.00565968 -0.000129224 0.000243807
0.0057588 -0.000118246 0.000238693
0.00605933 -7.48451e-05 0.000206722
0.00580221 8.12812e-05 0.000193872
0.00560378 -0.000104297 6.79589e-05
0.00625094 -0.000249325 0.000173349
0.00623651 -0.000200986 0.000277632
0.00568152 -5.25796e-05 2.71326e-05
0.00561165 -7.03253e-05 7.15083e-05
0.00568545 -3.03941e-05 6.57799e-05
0.00555604 -0.000506781 -9.12246e-06
0.00571505 -9.25936e-05 -0.000131546
0.00635149 -0.000156453 -0.000419609
0.00619254 -0.000199053 4.60148e-05
0.00603999 -0.000372066 -0.000177402
0.00576412 -0.000165061 0.000252601
0.00539354 -3.69165e-05 5.09105e-05
0.00570359 -0.000540836 8.35503e-06
0.00594788 -0.000109299 0.000391902
0.00553958 -9.10946e-05 0.000222933
0.00613671 -0.000463889 -0.000130982
0.00569416 -0.000109042 0.000235509
0.00587316 -8.7959e-05 -0.000416492
0.00566752 -5.22604e-06 6.04189e-05
0.00608544 -0.000492055 -5.67634e-05
0.00565637 -8.46468e-05 0.000226105
0.00567899 -8.94215e-05 0.000230396
0.00589152 -0.000441592 -9.8568e-05
0.00554543 -4.05744e-05 0.000210352
0.0060678 -0.000467653 -9.37408e-05
0.00570751 -6.60852e-05 0.000101531
0.00559324 -0.000104782 8.0233e-05
0.00580998 7.75365e-05 0.000191576
0.00570186 -5.2696e-05 7.27683e-05
0.00558678 -3.93006e-05 6.72797e-05
0.00561776 -0.000424217 -6.43182e-05
0.00565838 -8.32971e-05 0.000219238
0.0061721 -0.000203354 5.10027e-05
0.00572382 -0.000165473 0.000241969
0.00561982 -7.67576e-05 7.21958e-05
0.00559042 -9.48219e-05 0.000229373
0.00553378 -0.000510951 -2.73367e-06
0.00619564 -0.000202626 4.91001e-05
0.00612987 -0.000339884 -7.00664e-05
0.00619143 -0.000362161 7.17417e-07
0.0055862 -3.92236e-05 -0.000118443
0.00565099 -0.00012809 0.00023817
0.00562066 -0.000357179 0.000345718
0.00557561 -0.000517491 -1.11162e-06
0.00564673 -7.6739e-05 0.000218855
0.00553933 -0.000144862 0.000238787
0.00561667 -0.00052803 3.33215e-06
0.00589789 -0.000370635 -0.000164986
0.0061013 -0.000373559 -0.000186643
0.00569546 -5.15358e-05 7.37018e-05
0.00539111 -0.000154255 0.000187901
0.00548627 4.38168e-05 0.000188703
0.00533709 -0.000174543 0.00023139
0.00581579 -0.00057478 2.1213e-05
0.00586029 -0.000585167 2.52937e-05
0.00579463 -0.000572285 2.0913e-05
0.00604271 -0.000363228 -0.00018426
0.00579801 -7.87067e-05 0.000225786
0.00583171 -0.000578857 2.28592e-05
0.00591448 -0.000595564 2.85772e-05
0.00569405 -0.000152198 0.000245655
0.00572531 -0.000179768 0.000122887
0.00564937 -0.000481671 8.41293e-05
0.00565278 -9.72484e-05 0.000230246
0.00564369 -0.000124269 8.62809e-05
0.0055939 -0.000384764 0.000338494
0.00561401 -0.000583545 3.90182e-05
0.00590834 -0.000593884 2.78709e-05
0.00566889 -0.000356572 -0.000160299
0.00564267 -9.76526e-05 0.000226342
0.00569645 -0.0001455 0.000245237
0.00575363 -0.000143944 0.000237824
0.00557347 -0.000380818 0.000339072
0.00562595 -9.45237e-05 0.00019844
0.00556371 -0.000140445 0.000236686
0.00558849 -9.74939e-05 0.000229416
0.00588775 -0.000590347 2.70559e-05
0.00573637 -0.000142575 0.000246208
0.00566237 -0.000534858 4.21879e-06
0.00579423 0.000109015 0.000184955
0.00577655 -0.000138052 0.000246558
0.00594555 -0.000354184 0.000313953
0.00569508 -0.000150435 0.000246761
0.00559581 -7.48689e-05 7.2634e-05
0.00564792 -0.00011936 0.000235637
0.00540367 -0.000346112 0.000330612
0.00552849 -0.000142916 0.000237381
0.00556921 -0.000380636 0.000338412
0.00571826 -0.000159405 0.000246253
0.00566189 -7.19922e-05 0.000227042
0.00553907 -0.000144957 0.000121207
0.00569527 -0.000153386 0.000218753
0.005806 -0.000570686 1.90362e-05
0.00572312 -0.000447085 -5.62552e-05
0.00581497 8.83589e-05 0.000191725
0.0056005 -0.000495228 -1.71864e-05
0.00584114 -0.000582685 2.48194e-05
0.00558188 -8.24422e-05 0.000231532
0.00553108 -0.000143594 0.000236897
0.00576162 -0.000138456 0.000246282
0.00578977 -0.000136167 0.000247481
0.00560554 -6.3332e-05 0.000259618
0.00618569 -0.000266592 -0.000280057
0.00651819 -0.000109542 -0.000469301
0.00565231 -0.000102653 0.000232298
0.00585223 -0.000370295 -0.000161514
0.00569309 -0.000154651 0.000246933
0.00535857 -0.000114284 0.000221233
0.00559073 -0.000374575 0.000340575
0.00554465 -0.000166522 0.000230568
0.0060052 -0.000210375 -6.87825e-05
0.00587641 -0.000587899 2.62234e-05
0.00560117 -0.000412338 0.000248185
0.00562994 -7.64275e-05 7.62737e-05

VECTORS force float
-4.20939e-10 1.4074e-10 -1.26262e-10
-2.41979e-10 4.36266e-11 -2.32715e-11
6.82065e-11 5.52084e-11 -4.72175e-11
-2.53764e-11 6.08899e-12 1.99223e-11
1.39207e-11 9.53686e-11 -7.64897e-11
1.71345e-12 3.85788e-13 -4.15447e-13
1.24742e-10 -4.20441e-11 9.78904e-12
1.11137e-10 3.37058e-10 -3.88967e-10
-3.82965e-13 1.02286e-12 -3.59745e-13
-5.47056e-11 -1.24984e-10 -6.26605e-11
1.23578e-10 1.81675e-11 3.11766e-11
1.64356e-10 2.14881e-10 -1.36957e-10
-1.31118e-10 -6.02974e-11 5.14859e-11
-3.24471e-11 -3.04385e-11 -1.73031e-11
-3.96709e-11 5.20095e-11 -2.53978e-11
7.77449e-12 -4.80812e-11 5.23007e-11
2.60677e-11 -1.19883e-10 1.65297e-10
3.02228e-13 9.35372e-13 -2.60636e-13
1.0246e-10 4.57955e-11 -3.65507e-10
-2.31058e-11 7.23743e-11 -7.22934e-11
2.52359e-11 -1.94442e-12 -5.81792e-12
-2.47257e-10 3.2127e-10 -1.72081e-10
5.07312e-14 9.38942e-13 -2.85573e-13
1.0209e-10 5.38139e-11 -2.29682e-12
1.25595e-12 9.78839e-13 7.25024e-14
-3.19122e-10 1.54207e-10 -4.52685e-10
-9.71771e-11 2.0608e-11 3.27599e-11
-1.15442e-10 1.22147e-10 -2.2493e-10
-2.9063e-12 -5.00812e-11 3.02263e-11
-3.81192e-11 -9.96862e-11 4.87529e-11
1.18051e-10 8.1842e-11 -9.34315e-11
1.57474e-12 5.21012e-13 -8.43688e-13
-3.82708e-11 -1.80487e-10 6.79755e-11
9.08344e-11 1.23187e-10 9.62038e-11
-6.18938e-13 1.05716e-12 -3.90062e-13
1.20222e-10 -5.27249e-12 -3.65936e-12
-5.40843e-11 -2.22812e-10 -1.14409e-09
-1.73374e-13 9.87848e-13 -3.27711e-13
2.73331e-11 1.97819e-10 -1.43689e-10
2.76e-11 3.28705e-11 -7.11018e-12
-2.96382e-11 1.02349e-10 -3.44241e-11
9.20629e-13 4.95538e-13 -6.03661e-13
3.94477e-13 7.6815e-13 -2.49924e-13
2.94274e-11 1.67944e-10 -9.85304e-11
-2.19743e-10 2.35842e-11 -6.96882e-11
3.46401e-13 7.05116e-13 -2.56513e-13
-4.85241e-11 -1.18234e-11 1.33931e-11
-1.55803e-11 -2.31751e-11 4.39579e-11
-8.84039e-11 1.187e-10 -6.25151e-11
1.28431e-13 1.00021e-12 -2.74587e-13
-1.09757e-10 1.54538e-10 -9.73042e-11
1.71223e-10 1.05734e-10 -1.16688e-10
1.06991e-10 -1.18561e-11 -1.30247e-10
5.0861e-13 5.78966e-13 -3.24886e-13
1.97482e-10 1.039e-10 -5.45241e-11
1.11499e-10 1.30269e-10 -8.03598e-11
-3.15627e-11 -4.07305e-10 2.41799e-10
1.34434e-11 6.77924e-11 -5.78263e-12
-3.40155e-10 1.19202e-11 4.7222e-12
-6.58791e-14 9.0701e-13 -3.21538e-13
-1.63026e-11 -5.37396e-12 -9.58515e-11
4.43363e-10 -9.69872e-12 -2.10316e-10
3.10302e-10 -2.82536e-10 8.4971e-12
4.84032e-11 3.92888e-11 -1.18241e-11
-5.81278e-11 -6.08991e-11 -1.04959e-10