# vtk DataFile Version 3.0
LIGGGHTS particles timestep 27000000
ASCII
DATASET POLYDATA
POINTS 275 float
0.170808 0.0174548 0.00749288
0.170386 0.0172723 0.00756852
0.170309 0.0165879 0.00786282
0.169941 0.0155214 0.0085855
0.176347 0.017032 0.0073473
0.170415 0.016293 0.00801355
0.170248 0.0163182 0.00798009
0.176545 0.0179743 0.00707671
0.170066 0.015903 0.00817524
0.170498 0.017769 0.00735258
0.164116 0.0160966 0.00818405
0.169918 0.0154785 0.00867271
0.164442 0.0172386 0.0074304
0.164921 0.0172204 0.00734521
0.170044 0.0158099 0.00820482
0.169897 0.0154347 0.00876014
0.17055 0.0168274 0.00776539
0.170229 0.0162297 0.00802227
0.164651 0.0172374 0.00734497
0.176465 0.0175976 0.00718491
0.170104 0.0160785 0.00808806
0.176504 0.0177861 0.00713079
0.164458 0.0171641 0.00736515
0.170383 0.0165263 0.00788807
0.169876 0.0153911 0.00884769
0.170191 0.0164669 0.00791923
0.170111 0.0161596 0.00814613
0.170131 0.0162215 0.00807022
0.176367 0.0171263 0.00732023
0.170024 0.0157251 0.00825379
0.170363 0.0164377 0.00792971
0.176607 0.0182562 0.00699567
0.170269 0.0164092 0.00794365
0.170404 0.0166153 0.0078472
0.176484 0.0176918 0.00715785
0.16998 0.015609 0.00840999
0.170181 0.0161356 0.00806064
0.170427 0.016705 0.00780855
0.176386 0.0172206 0.00729317
0.170002 0.0156611 0.00832736
0.170549 0.017996 0.00725388
0.176566 0.0180683 0.0070497
0.170151 0.0162872 0.00799734
0.17017 0.0163648 0.00805751
0.164073 0.0160428 0.00825646
0.176425 0.0174091 0.00723904
0.170644 0.0168619 0.00776549
0.164523 0.0170308 0.00745133
0.170327 0.0162451 0.00802148
0.176406 0.0173148 0.0072661
0.378022 0.019866 0.005332
0.1705 0.0166485 0.00784761
0.169959 0.0155655 0.00849758
0.170454 0.0167984 0.00777214
0.170596 0.0182063 0.00716245
0.176445 0.0175033 0.00721197
0.164574 0.0174772 0.00736793
0.164541 0.0177761 0.00729903
0.170574 0.017289 0.00755355
0.170479 0.0168872 0.00772842
0.170584 0.0169279 0.00772031
0.176524 0.0178803 0.00710373
0.164729 0.0171727 0.00735927
0.170692 0.0175975 0.0074174
0.170084 0.0159887 0.00812712
0.170171 0.0163771 0.00795828
0.164445 0.0169339 0.00750282
0.170465 0.0171599 0.00761299
0.16392 0.0156262 0.00879648
0.164641 0.0177687 0.00729871
0.170314 0.016764 0.00787517
0.164172 0.0162735 0.00795337
0.16443 0.0165474 0.00760013
0.176586 0.0181622 0.00702268
0.164945 0.0173517 0.00731362
0.170289 0.016498 0.00790221
0.170309 0.0163337 0.00806404
0.170503 0.0174535 0.00755396
0.170457 0.0173388 0.00761249
0.170519 0.0178624 0.00738227
0.164114 0.0161574 0.00810462
0.170579 0.0174218 0.00749685
0.170231 0.0166466 0.00784112
0.170529 0.0179062 0.00729292
0.170452 0.0175642 0.00744159
0.170618 0.0175235 0.00745194
0.164038 0.0159252 0.00841406
0.170211 0.0165568 0.00788017
0.164601 0.01798 0.00724901
0.170509 0.0169869 0.00768835
0.164695 0.0179469 0.00724995
0.0643568 0.0187248 0.00531097
0.24257 0.0191927 0.00520306
0.164796 0.0174816 0.00728482
0.163986 0.0158045 0.00856417
0.164712 0.0174283 0.00729868
0.163942 0.0156856 0.00871907
0.17065 0.0172254 0.00758057
0.170343 0.0163488 0.00797142
0.170368 0.0171821 0.00760764
0.170322 0.0170036 0.00768547
0.16405 0.0159821 0.0083327
0.164677 0.0176768 0.00724004
0.164647 0.0180298 0.00715647
0.170198 0.0164526 0.00801793
0.17072 0.0172942 0.00755842
0.170595 0.0166798 0.00784956
0.164595 0.0168591 0.00743578
0.170646 0.0173522 0.00752375
0.17028 0.0161527 0.00805988
0.170767 0.0177042 0.00736886
0.170506 0.0173572 0.0075274
0.164822 0.0172098 0.00734913
0.170242 0.0166312 0.00793932
0.170525 0.0167366 0.00780711
0.164007 0.015864 0.0084867
0.170178 0.0164458 0.00811562
0.170593 0.0176129 0.00741498
0.164787 0.0173638 0.00731297
0.16457 0.0178772 0.00727513
0.170329 0.0166777 0.00782378
0.170639 0.0179547 0.00726769
0.170675 0.0174486 0.00748603
0.170478 0.0165601 0.00788859
0.164576 0.0167637 0.00745875
0.170472 0.0176541 0.00740252
0.170721 0.0177867 0.00733567
0.170406 0.0173621 0.00752947
0.164288 0.0164154 0.00776995
0.164403 0.0164887 0.00767654
0.163964 0.0157451 0.00864159
0.164558 0.0172016 0.00735479
0.164212 0.0164627 0.00772545
0.164635 0.0171395 0.00736849
0.164305 0.0164753 0.00769178
0.170275 0.0168255 0.00776321
0.164938 0.0175975 0.00725521
0.164843 0.0179505 0.00717256
0.164334 0.0165982 0.00753137
0.164192 0.0163942 0.00779564
0.164285 0.0167523 0.00746968
0.164178 0.0163382 0.0078773
0.0219312 0.0187687 0.00551176
0.164457 0.0166988 0.00748607
0.170355 0.0167688 0.00778397
0.164769 0.0181605 0.0071238
0.164614 0.0182844 0.00709644
0.164344 0.0170374 0.0073969
0.164785 0.0177224 0.00722766
0.170576 0.0181165 0.00720149
0.164862 0.0172988 0.00732738
0.164843 0.0175674 0.00726372
0.164808 0.0178202 0.00720406
0.164864 0.0176625 0.0072408
0.170667 0.0177102 0.00737051
0.164529 0.0179045 0.00718795
0.170587 0.0178093 0.0073317
0.164453 0.0169724 0.00741083
0.164665 0.0173385 0.0073207
0.164266 0.0166709 0.00752435
0.164608 0.0178128 0.00720865
0.16479 0.0182556 0.0071012
0.170814 0.0173264 0.00755987
0.164715 0.0175384 0.00727245
0.170671 0.0178672 0.00730355
0.164612 0.0170449 0.00739132
0.164545 0.0169358 0.00750678
0.170642 0.0180466 0.00722845
0.170428 0.0170408 0.00766518
0.170693 0.0182364 0.00714558
0.158554 0.0175976 0.00719103
0.170299 0.0169144 0.00772436
0.164572 0.0180944 0.00714214
0.170743 0.0173826 0.00751762
0.164242 0.016605 0.00767695
0.16472 0.0178679 0.00719395
0.164871 0.0174166 0.00729922
0.158337 0.0170367 0.00746843
0.164433 0.016608 0.00752069
0.164593 0.0181894 0.00711924
0.164136 0.0162171 0.00802735
0.164698 0.0177718 0.00721712
0.16448 0.0167912 0.00745569
0.17056 0.0171862 0.00759878
0.164742 0.0172767 0.00733433
0.1644 0.0168774 0.00743419
0.164438 0.0170687 0.00738811
0.164326 0.0165377 0.00761053
0.164499 0.0168861 0.00743071
0.164546 0.017118 0.00740836
0.170234 0.016538 0.00797566
0.170403 0.0169481 0.00770571
0.164762 0.0176247 0.00725125
0.170616 0.0182961 0.0071234
0.170379 0.0168582 0.00774505
0.158515 0.0174212 0.00727684
0.164355 0.016682 0.0074813
0.170746 0.0175192 0.00744845
0.164668 0.0181248 0.00713355
0.170251 0.0167364 0.00780208
0.164636 0.0183795 0.00707382
0.170325 0.0164368 0.00802183
0.164576 0.0169545 0.00741335
0.170345 0.0170928 0.00764658
0.16455 0.0179995 0.00716505
0.158474 0.0176539 0.00716813
0.158495 0.017333 0.00731976
0.164695 0.0176292 0.00732604
0.164496 0.0174575 0.00729478
0.164713 0.0183174 0.00708755
0.164917 0.0175025 0.00727812
0.170483 0.0172506 0.00757368
0.16442 0.0174199 0.00734797
0.164478 0.0176687 0.00732217
0.164486 0.0177145 0.00723375
0.158239 0.0165958 0.00768291
0.158298 0.0168603 0.00755424
0.158219 0.0165077 0.00772579
0.164228 0.016513 0.00764059
0.164692 0.0175023 0.00736306
0.158259 0.0166839 0.00764003
0.158456 0.0171566 0.00740559
0.164405 0.0170314 0.00747602
0.16463 0.0175902 0.0072613
0.158357 0.0171248 0.00742553
0.16438 0.0167821 0.00745716
0.170523 0.0174984 0.00746663
0.158396 0.0173012 0.00733973
0.158566 0.0177037 0.00713997
0.158436 0.0170684 0.00744852
0.163899 0.0155668 0.00887393
0.164573 0.0172988 0.00733145
0.164347 0.0169115 0.00751225
0.164539 0.0176319 0.00725266
0.158416 0.0173894 0.00729683
0.164746 0.0179743 0.00716826
0.164549 0.0175424 0.00729612
0.164508 0.0178095 0.00721085
0.158417 0.0169801 0.00749145
0.164305 0.0168467 0.00744284
0.15864 0.0176415 0.00716592
0.164784 0.0180642 0.00714633
0.164328 0.017007 0.00753507
0.164455 0.0173479 0.00740919
0.164569 0.0176315 0.00734806
0.170426 0.017452 0.0074904
0.164886 0.0177599 0.0072173
0.158455 0.0175658 0.00721103
0.164355 0.0171177 0.00747243
0.158435 0.0174776 0.00725393
0.164363 0.0171328 0.00737393
0.164328 0.016816 0.00753524
0.164382 0.0172281 0.00735096
0.164631 0.0174855 0.00728622
0.158475 0.0172448 0.00736268
0.158534 0.0175094 0.00723393
0.164692 0.0182223 0.00711015
0.158279 0.0167721 0.00759714
0.164454 0.0175691 0.00726883
0.164495 0.0173593 0.00731817
0.164324 0.0169421 0.00741987
0.16448 0.0172631 0.00734127
0.164629 0.0179078 0.00718575
0.164246 0.0165891 0.0075783
0.164552 0.0166693 0.00748156
0.164586 0.0177178 0.00723156
0.164959 0.0176927 0.00723227
0.164586 0.0173985 0.00730754
0.164441 0.0175175 0.00735365
0.158501 0.0177735 0.00710995
0.164402 0.0173235 0.007328
0.170673 0.0181465 0.00718467
0.158318 0.0169485 0.00751133
0.158377 0.017213 0.00738263
0.170568 0.0177024 0.00737797

VERTICES 275 550
1 0
1 1
1 2
1 3
1 4
1 5
1 6
1 7
1 8
1 9
1 10
1 11
1 12
1 13
1 14
1 15
1 16
1 17
1 18
1 19
1 20
1 21
1 22
1 23
1 24
1 25
1 26
1 27
1 28
1 29
1 30
1 31
1 32
1 33
1 34
1 35
1 36
1 37
1 38
1 39
1 40
1 41
1 42
1 43
1 44
1 45
1 46
1 47
1 48
1 49
1 50
1 51
1 52
1 53
1 54
1 55
1 56
1 57
1 58
1 59
1 60
1 61
1 62
1 63
1 64
1 65
1 66
1 67
1 68
1 69
1 70
1 71
1 72
1 73
1 74
1 75
1 76
1 77
1 78
1 79
1 80
1 81
1 82
1 83
1 84
1 85
1 86
1 87
1 88
1 89
1 90
1 91
1 92
1 93
1 94
1 95
1 96
1 97
1 98
1 99
1 100
1 101
1 102
1 103
1 104
1 105
1 106
1 107
1 108
1 109
1 110
1 111
1 112
1 113
1 114
1 115
1 116
1 117
1 118
1 119
1 120
1 121
1 122
1 123
1 124
1 125
1 126
1 127
1 128
1 129
1 130
1 131
1 132
1 133
1 134
1 135
1 136
1 137
1 138
1 139
1 140
1 141
1 142
1 143
1 144
1 145
1 146
1 147
1 148
1 149
1 150
1 151
1 152
1 153
1 154
1 155
1 156
1 157
1 158
1 159
1 160
1 161
1 162
1 163
1 164
1 165
1 166
1 167
1 168
1 169
1 170
1 171
1 172
1 173
1 174
1 175
1 176
1 177
1 178
1 179
1 180
1 181
1 182
1 183
1 184
1 185
1 186
1 187
1 188
1 189
1 190
1 191
1 192
1 193
1 194
1 195
1 196
1 197
1 198
1 199
1 200
1 201
1 202
1 203
1 204
1 205
1 206
1 207
1 208
1 209
1 210
1 211
1 212
1 213
1 214
1 215
1 216
1 217
1 218
1 219
1 220
1 221
1 222
1 223
1 224
1 225
1 226
1 227
1 228
1 229
1 230
1 231
1 232
1 233
1 234
1 235
1 236
1 237
1 238
1 239
1 240
1 241
1 242
1 243
1 244
1 245
1 246
1 247
1 248
1 249
1 250
1 251
1 252
1 253
1 254
1 255
1 256
1 257
1 258
1 259
1 260
1 261
1 262
1 263
1 264
1 265
1 266
1 267
1 268
1 269
1 270
1 271
1 272
1 273
1 274

POINT_DATA 275
SCALARS id int 1
LOOKUP_TABLE default
1
2
4
5
6
7
8
9
10
11
12
13
14
16
17
19
21
22
23
24
25
26
27
28
29
30
31
32
33
34
35
36
37
38
39
41
42
44
45
47
48
49
50
51
52
53
54
55
56
57
59
60
61
62
63
64
65
66
67
68
69
70
71
72
73
74
76
77
78
79
80
82
83
84
85
86
87
88
89
90
91
92
93
94
95
96
97
98
99
100
101
102
103
104
105
106
107
108
109
110
111
112
113
114
115
116
117
118
119
120
121
122
123
124
125
127
128
129
130
131
132
133
134
135
136
137
138
140
141
142
143
144
146
147
148
149
150
151
153
154
155
156
157
158
159
160
162
164
165
166
167
168
169
170
171
172
173
174
176
177
178
179
182
183
184
185
186
187
188
189
190
191
192
193
194
195
196
197
198
199
200
201
202
203
204
205
206
207
208
209
210
211
212
213
214
215
216
217
218
219
220
222
224
225
226
227
228
229
230
232
233
234
235
236
237
239
240
241
242
243
244
246
247
248
249
250
251
252
253
254
255
256
257
258
259
260
261
262
263
264
265
266
267
268
269
270
271
272
273
274
275
276
277
278
279
280
281
283
284
285
286
287
288
289
290
291
292
293
294
295
296
297
298
299
300

SCALARS type int 1
LOOKUP_TABLE default
1
1
1
1
1
1
1
1
1
1
1
1
1
1
1
1
1
1
1
1
1
1
1
1
1
1
1
1
1
1
1
1
1
1
1
1
1
1
1
1
1
1
1
1
1
1
1
1
1
1
1
1
1
1
1
1
1
1
1
1
1
1
1
1
1
1
1
1
1
1
1
1
1
1
1
1
1
1
1
1
1
1
1
1
1
1
1
1
1
1
1
1
1
1
1
1
1
1
1
1
1
1
1
1
1
1
1
1
1
1
1
1
1
1
1
1
1
1
1
1
1
1
1
1
1
1
1
1
1
1
1
1
1
1
1
1
1
1
1
1
1
1
1
1
1
1
1
1
1
1
1
1
1
1
1
1
1
1
1
1
1
1
1
1
1
1
1
1
1
1
1
1
1
1
1
1
1
1
1
1
1
1
1
1
1
1
1
1
1
1
1
1
1
1
1
1
1
1
1
1
1
1
1
1
1
1
1
1
1
1
1
1
1
1
1
1
1
1
1
1
1
1
1
1
1
1
1
1
1
1
1
1
1
1
1
1
1
1
1
1
1
1
1
1
1
1
1
1
1
1
1
1
1
1
1
1
1
1
1
1
1
1
1
1
1
1
1
1
1
1
1
1
1
1
1

SCALARS radius float 1
LOOKUP_TABLE default
5e-05
5e-05
5e-05
5e-05
5e-05
5e-05
5e-05
5e-05
5e-05
5e-05
5e-05
5e-05
5e-05
5e-05
5e-05
5e-05
5e-05
5e-05
5e-05
5e-05
5e-05
5e-05
5e-05
5e-05
5e-05
5e-05
5e-05
5e-05
5e-05
5e-05
5e-05
5e-05
5e-05
5e-05
5e-05
5e-05
5e-05
5e-05
5e-05
5e-05
5e-05
5e-05
5e-05
5e-05
5e-05
5e-05
5e-05
5e-05
5e-05
5e-05
5e-05
5e-05
5e-05
5e-05
5e-05
5e-05
5e-05
5e-05
5e-05
5e-05
5e-05
5e-05
5e-05
5e-05
5e-05
5e-05
5e-05
5e-05
5e-05
5e-05
5e-05
5e-05
5e-05
5e-05
5e-05
5e-05
5e-05
5e-05
5e-05
5e-05
5e-05
5e-05
5e-05
5e-05
5e-05
5e-05
5e-05
5e-05
5e-05
5e-05
5e-05
5e-05
5e-05
5e-05
5e-05
5e-05
5e-05
5e-05
5e-05
5e-05
5e-05
5e-05
5e-05
5e-05
5e-05
5e-05
5e-05
5e-05
5e-05
5e-05
5e-05
5e-05
5e-05
5e-05
5e-05
5e-05
5e-05
5e-05
5e-05
5e-05
5e-05
5e-05
5e-05
5e-05
5e-05
5e-05
5e-05
5e-05
5e-05
5e-05
5e-05
5e-05
5e-05
5e-05
5e-05
5e-05
5e-05
5e-05
5e-05
5e-05
5e-05
5e-05
5e-05
5e-05
5e-05
5e-05
5e-05
5e-05
5e-05
5e-05
5e-05
5e-05
5e-05
5e-05
5e-05
5e-05
5e-05
5e-05
5e-05
5e-05
5e-05
5e-05
5e-05
5e-05
5e-05
5e-05
5e-05
5e-05
5e-05
5e-05
5e-05
5e-05
5e-05
5e-05
5e-05
5e-05
5e-05
5e-05
5e-05
5e-05
5e-05
5e-05
5e-05
5e-05
5e-05
5e-05
5e-05
5e-05
5e-05
5e-05
5e-05
5e-05
5e-05
5e-05
5e-05
5e-05
5e-05
5e-05
5e-05
5e-05
5e-05
5e-05
5e-05
5e-05
5e-05
5e-05
5e-05
5e-05
5e-05
5e-05
5e-05
5e-05
5e-05
5e-05
5e-05
5e-05
5e-05
5e-05
5e-05
5e-05
5e-05
5e-05
5e-05
5e-05
5e-05
5e-05
5e-05
5e-05
5e-05
5e-05
5e-05
5e-05
5e-05
5e-05
5e-05
5e-05
5e-05
5e-05
5e-05
5e-05
5e-05
5e-05
5e-05
5e-05
5e-05
5e-05
5e-05
5e-05
5e-05
5e-05
5e-05
5e-05
5e-05
5e-05
5e-05
5e-05
5e-05
5e-05
5e-05
5e-05
5e-05
5e-05
5e-05
5e-05
5e-05
5e-05
5e-05
5e-05
5e-05
5e-05
5e-05
5e-05
5e-05
5e-05
5e-05

SCALARS mass float 1
LOOKUP_TABLE default
1.46608e-10
1.46608e-10
1.46608e-10
1.46608e-10
1.46608e-10
1.46608e-10
1.46608e-10
1.46608e-10
1.46608e-10
1.46608e-10
1.46608e-10
1.46608e-10
1.46608e-10
1.46608e-10
1.46608e-10
1.46608e-10
1.46608e-10
1.46608e-10
1.46608e-10
1.46608e-10
1.46608e-10
1.46608e-10
1.46608e-10
1.46608e-10
1.46608e-10
1.46608e-10
1.46608e-10
1.46608e-10
1.46608e-10
1.46608e-10
1.46608e-10
1.46608e-10
1.46608e-10
1.46608e-10
1.46608e-10
1.46608e-10
1.46608e-10
1.46608e-10
1.46608e-10
1.46608e-10
1.46608e-10
1.46608e-10
1.46608e-10
1.46608e-10
1.46608e-10
1.46608e-10
1.46608e-10
1.46608e-10
1.46608e-10
1.46608e-10
1.46608e-10
1.46608e-10
1.46608e-10
1.46608e-10
1.46608e-10
1.46608e-10
1.46608e-10
1.46608e-10
1.46608e-10
1.46608e-10
1.46608e-10
1.46608e-10
1.46608e-10
1.46608e-10
1.46608e-10
1.46608e-10
1.46608e-10
1.46608e-10
1.46608e-10
1.46608e-10
1.46608e-10
1.46608e-10
1.46608e-10
1.46608e-10
1.46608e-10
1.46608e-10
1.46608e-10
1.46608e-10
1.46608e-10
1.46608e-10
1.46608e-10
1.46608e-10
1.46608e-10
1.46608e-10
1.46608e-10
1.46608e-10
1.46608e-10
1.46608e-10
1.46608e-10
1.46608e-10
1.46608e-10
1.46608e-10
1.46608e-10
1.46608e-10
1.46608e-10
1.46608e-10
1.46608e-10
1.46608e-10
1.46608e-10
1.46608e-10
1.46608e-10
1.46608e-10
1.46608e-10
1.46608e-10
1.46608e-10
1.46608e-10
1.46608e-10
1.46608e-10
1.46608e-10
1.46608e-10
1.46608e-10
1.46608e-10
1.46608e-10
1.46608e-10
1.46608e-10
1.46608e-10
1.46608e-10
1.46608e-10
1.46608e-10
1.46608e-10
1.46608e-10
1.46608e-10
1.46608e-10
1.46608e-10
1.46608e-10
1.46608e-10
1.46608e-10
1.46608e-10
1.46608e-10
1.46608e-10
1.46608e-10
1.46608e-10
1.46608e-10
1.46608e-10
1.46608e-10
1.46608e-10
1.46608e-10
1.46608e-10
1.46608e-10
1.46608e-10
1.46608e-10
1.46608e-10
1.46608e-10
1.46608e-10
1.46608e-10
1.46608e-10
1.46608e-10
1.46608e-10
1.46608e-10
1.46608e-10
1.46608e-10
1.46608e-10
1.46608e-10
1.46608e-10
1.46608e-10
1.46608e-10
1.46608e-10
1.46608e-10
1.46608e-10
1.46608e-10
1.46608e-10
1.46608e-10
1.46608e-10
1.46608e-10
1.46608e-10
1.46608e-10
1.46608e-10
1.46608e-10
1.46608e-10
1.46608e-10
1.46608e-10
1.46608e-10
1.46608e-10
1.46608e-10
1.46608e-10
1.46608e-10
1.46608e-10
1.46608e-10
1.46608e-10
1.46608e-10
1.46608e-10
1.46608e-10
1.46608e-10
1.46608e-10
1.46608e-10
1.46608e-10
1.46608e-10
1.46608e-10
1.46608e-10
1.46608e-10
1.46608e-10
1.46608e-10
1.46608e-10
1.46608e-10
1.46608e-10
1.46608e-10
1.46608e-10
1.46608e-10
1.46608e-10
1.46608e-10
1.46608e-10
1.46608e-10
1.46608e-10
1.46608e-10
1.46608e-10
1.46608e-10
1.46608e-10
1.46608e-10
1.46608e-10
1.46608e-10
1.46608e-10
1.46608e-10
1.46608e-10
1.46608e-10
1.46608e-10
1.46608e-10
1.46608e-10
1.46608e-10
1.46608e-10
1.46608e-10
1.46608e-10
1.46608e-10
1.46608e-10
1.46608e-10
1.46608e-10
1.46608e-10
1.46608e-10
1.46608e-10
1.46608e-10
1.46608e-10
1.46608e-10
1.46608e-10
1.46608e-10
1.46608e-10
1.46608e-10
1.46608e-10
1.46608e-10
1.46608e-10
1.46608e-10
1.46608e-10
1.46608e-10
1.46608e-10
1.46608e-10
1.46608e-10
1.46608e-10
1.46608e-10
1.46608e-10
1.46608e-10
1.46608e-10
1.46608e-10
1.46608e-10
1.46608e-10
1.46608e-10
1.46608e-10
1.46608e-10
1.46608e-10
1.46608e-10
1.46608e-10
1.46608e-10
1.46608e-10
1.46608e-10
1.46608e-10
1.46608e-10
1.46608e-10
1.46608e-10
1.46608e-10
1.46608e-10
1.46608e-10
1.46608e-10
1.46608e-10
1.46608e-10
1.46608e-10
1.46608e-10
1.46608e-10
1.46608e-10

VECTORS velocity float
0.00486111 0.0010385 0.000391369
0.00553061 0.000605284 -0.000485569
0.0059477 0.000393372 -0.000412665
0.00640263 0.000156255 -0.0011979
0.00538437 -0.000905532 0.000145062
0.00606522 0.000902237 0.000689179
0.0060245 0.000390405 -0.00053712
0.00580305 -0.000995795 0.00016198
0.00620053 0.000536358 -0.000481508
0.00592681 0.00111206 -0.000720443
0.00601783 0.000144612 -4.04491e-05
0.00638467 0.000187565 -0.00119208
0.00557344 0.000226228 -0.000124642
0.00576444 -0.000299495 -1.02126e-05
0.00601526 0.000588757 -0.000508119
0.00636749 0.000194688 -0.00122973
0.0063538 0.00118678 0.000595685
0.0060944 0.000510557 -0.000248035
0.00553348 0.00032251 -0.000154831
0.00538736 -0.000907015 0.000145406
0.00627025 0.000463107 -0.00046949
0.0053788 -0.000905962 0.000145293
0.00558809 0.000231888 -0.000134445
0.00592815 0.000957652 0.000629034
0.00633849 0.000191066 -0.00127156
0.00603193 0.000429396 -0.000472753
0.00621404 0.000525704 -0.000574905
0.00616919 0.00038127 -0.000706996
0.00537841 -0.000904439 0.000144846
0.00623342 0.000307554 -0.000937898
0.00601352 0.000947185 0.00065035
0.00590404 -0.00101769 0.000166057
0.00602823 0.000634133 0.000115926
0.00604295 0.000511106 -0.000483949
0.00538302 -0.000906521 0.000145367
0.00647013 9.7345e-05 -0.00115203
0.00613685 0.000416985 -0.000870289
0.00666604 0.000508093 -0.000472988
0.00537243 -0.000903343 0.000144697
0.0064922 -6.35943e-06 -0.00117281
0.00609109 0.0012223 -0.000772802
0.0058367 -0.00100315 0.000163356
0.00615287 0.000432567 -0.000620623
0.00611668 0.00037754 -0.000430939
0.00602798 0.000146632 -4.36005e-05
0.00539584 -0.00090827 0.000145571
0.00617896 0.000857221 0.000731199
0.00558157 0.000225866 -0.000131216
0.00603022 0.000954456 0.000649927
0.00539996 -0.000908944 0.000145697
-5.02001e-15 -7.4119e-15 7.69802e-14
0.00614671 0.000783623 0.000734269
0.00644347 0.000135982 -0.00117382
0.00648082 0.000641087 0.000263866
0.00619127 0.00118644 -0.000763059
0.00539153 -0.000907617 0.000145509
0.00584782 -0.000285994 -1.39731e-05
0.00579765 -0.000304834 -4.08947e-06
0.00548302 0.00047092 -0.000428789
0.00645402 0.000242653 -0.000378167
0.00619514 0.000843224 0.000735099
0.00537469 -0.00090541 0.000145209
0.00563018 0.000109915 -0.000105894
0.00573143 0.0011058 -0.000709437
0.00631036 0.000489899 -0.000462454
0.00607529 0.000460546 -0.000461228
0.00560563 0.000225947 -0.000122845
0.00463881 0.000770067 -0.000528028
0.00596608 0.000212073 -0.000142158
0.00578614 -0.000304904 -4.17232e-05
0.00584701 0.000211694 -0.000756977
0.00600829 0.000161971 -6.81489e-05
0.00578332 0.000180332 -0.000101924
0.00587036 -0.00101047 0.000164654
0.0058737 -0.000207252 -3.36933e-05
0.00595666 0.000432218 -0.000333157
0.00591026 0.000812571 0.000687792
0.00569424 0.000579509 -0.000486057
0.00555995 0.00062096 -0.000491041
0.00585444 0.00121214 -0.000790123
0.00603625 0.000136392 -4.70186e-05
0.00568076 0.000571688 -0.00044268
0.00594118 0.000408262 -0.00042143
0.00603435 0.00122243 -0.000771006
0.00572957 0.000650966 -0.000513926
0.00545337 0.00105621 -0.00068912
0.00601207 0.000169614 -7.09883e-05
0.00598662 0.00043933 -0.000421661
0.00586782 -0.000322856 1.94273e-07
0.00626572 0.000225801 -0.000512668
0.00587098 -0.000315064 3.04962e-06
4.5181e-15 1.04581e-14 8.2952e-14
3.61636e-22 7.53933e-22 8.29106e-22
0.00580281 -0.000290915 -1.29746e-05
0.00597881 0.000191748 -0.00011593
0.00580889 -0.000303243 -1.11403e-05
0.00596821 0.000207582 -0.000137669
0.00473666 0.00109129 0.000348941
0.00599079 0.000837135 0.000709862
0.00462521 0.000774134 -0.000518663
0.00642113 0.000324238 -0.000395761
0.00601665 0.000153591 -6.07887e-05
0.00580943 -0.000288529 -1.26398e-05
0.00590643 -0.000320128 -7.16193e-06
0.00602289 0.000459282 -0.000478893
0.00522935 0.000693352 0.000619811
0.00618193 0.000706882 0.000799696
0.00561156 0.000222317 -0.000133108
0.00557821 0.00054308 -0.000315788
0.00604582 0.000936435 0.000654953
0.00588239 0.00106464 -0.000699109
0.00559506 0.000567067 -0.000477693
0.00574873 -0.000160966 -4.2715e-05
0.00594021 0.000419074 -0.000411871
0.00628276 0.000763975 0.000780412
0.00600091 0.000177573 -9.68409e-05
0.00596309 0.000403467 -0.000490268
0.00570677 0.00106824 -0.000694523
0.00581398 -0.000293611 -1.21134e-05
0.00584125 -0.000314658 -4.04739e-06
0.0059605 0.000424983 -0.000437015
0.00608472 0.00118113 -0.000756798
0.00549746 0.00110677 -0.000823094
0.00595887 0.000844211 0.000687615
0.0056593 0.000205208 -0.000128799
0.00572214 0.000462533 -0.00043567
0.00592207 0.00108957 -0.000710519
0.00558968 0.000601554 -0.000494118
0.00578745 0.000203337 -0.000135168
0.00578711 0.000173081 -9.42673e-05
0.00598317 0.00019985 -0.000126632
0.0055701 0.000233222 -0.000134607
0.00576337 0.000178623 -0.000125432
0.00557894 0.000237844 -0.000136374
0.00576725 0.000217442 -0.000141664
0.00651995 0.000264207 -0.000359348
0.00582902 -0.000294433 -1.22196e-05
0.00584818 -0.000375594 5.98835e-06
0.00575273 0.000204754 -0.000124037
0.00582936 0.000173766 -0.000102972
0.00554256 0.000298844 -0.000219091
0.00591864 0.000172795 -7.88186e-05
-3.83194e-14 8.16967e-14 2.95881e-13
0.00572813 0.000194909 -0.000136203
0.00655516 0.000329684 -0.000451717
0.00596996 -0.00033783 1.22108e-05
0.00595337 -0.000334278 1.06509e-05
0.0055936 0.000225905 -0.000131963
0.00583387 -0.000294591 -1.25722e-05
0.00614132 0.00119134 -0.000763439
0.00588097 -0.00021741 -3.13369e-05
0.00580834 -0.000297996 -1.12752e-05
0.00585023 -0.000316792 -6.82078e-06
0.00584014 -0.000284069 -1.49239e-05
0.00588053 0.00103939 -0.000684591
0.00584945 -0.000316373 -7.77252e-06
0.00587896 0.00119988 -0.000754656
0.00558162 0.000218403 -0.000130661
0.0057849 -0.00031434 -7.28024e-06
0.00568511 0.000207021 -0.000142694
0.00582813 -0.000310906 -9.71513e-06
0.00596722 -0.000347629 1.30755e-05
0.00509006 0.0011207 0.000391001
0.00580448 -0.000292627 -1.25619e-05
0.00601697 0.0011493 -0.000739853
0.00557838 0.000230705 -0.000134679
0.00560428 0.000219374 -0.000132706
0.0061383 0.00118506 -0.000760066
0.00629969 0.000425438 -0.000330281
0.00623733 0.00117775 -0.000761435
0.00589879 0.00143605 -0.000971519
0.0065304 0.000276064 -0.000385544
0.00589889 -0.000328188 -4.88754e-06
0.00483915 0.00103636 0.000381494
0.00573872 0.000177214 -0.000119332
0.00584789 -0.000319104 -6.94667e-06
0.00580354 -0.000286226 -1.38527e-05
0.00582858 0.00145433 -0.000976765
0.0057643 0.000188168 -0.000113827
0.00592171 -0.000334534 -5.06892e-06
0.00605515 0.000140164 -4.74286e-05
0.00582708 -0.000308107 -1.04801e-05
0.00567204 0.000208286 -0.000144188
0.00464243 0.000958077 -0.000305569
0.00580869 -0.000287146 -1.37306e-05
0.00560864 0.000238871 -0.000136119
0.00559429 0.000221754 -0.000131581
0.00573873 0.000194826 -0.000123128
0.00561069 0.000228693 -0.000136312
0.00557879 0.000229715 -0.000135761
0.0058808 0.000380445 -0.000368501
0.00645928 0.000302579 -0.000395931
0.00580955 -0.000293545 -1.21929e-05
0.0062377 0.00117729 -0.000761353
0.00650308 0.000372902 -0.000253642
0.00587881 0.00144096 -0.000972878
0.00568292 0.000195102 -0.000120552
0.00557116 0.000994339 -0.000682276
0.00592995 -0.000329383 -5.38016e-06
0.00590702 0.000388185 -0.000415518
0.00596923 -0.000348524 1.31999e-05
0.00541165 0.001099 0.00039003
0.00558247 0.000224196 -0.000133282
0.0063636 0.000356535 -0.000379266
0.00587575 -0.000322188 -6.07444e-06
0.00589803 0.00143534 -0.000971143
0.00586711 0.00144139 -0.000972509
0.00581014 -0.000286904 -1.11921e-05
0.0057682 0.00018514 -0.000123609
0.00596672 -0.000348304 1.2985e-05
0.00580873 -0.000290394 -1.30301e-05
0.00553041 0.000610111 -0.00048695
0.00577318 0.000181384 -0.000115259
0.00568838 -0.000397872 -6.86618e-05
0.00580275 -0.000303598 -1.01367e-05
0.00591568 0.00143469 -0.000971794
0.00577785 0.00146476 -0.000979299
0.00590689 0.00143562 -0.000971677
0.00572102 0.000189773 -0.000130575
0.00580541 -0.000300165 -1.37137e-05
0.0059247 0.001434 -0.000971763
0.005848 0.00144744 -0.000974448
0.00557426 0.000217548 -0.000133253
0.00580753 -0.000292249 -1.29322e-05
0.00583799 0.00145077 -0.000975582
0.00570553 0.000214062 -0.000120812
0.00571089 0.000593477 -0.00049691
0.0058578 0.00144465 -0.00097362
0.00632327 0.00107536 -0.000819598
0.00583703 0.00144953 -0.000974911
0.00596207 0.000215476 -0.000147305
0.00556446 0.000224007 -0.000131952
0.00547412 0.000244419 -0.000226157
0.00580742 -0.000300118 -1.42484e-05
0.00586777 0.00144216 -0.000972903
0.00586223 -0.000327719 -5.59924e-06
0.00582077 -0.00029742 -1.23278e-05
0.00582481 -0.000309859 -9.88376e-06
0.00582997 0.00145591 -0.000977604
0.00560818 0.000250915 -0.000153467
0.00632517 0.00107108 -0.000819128
0.00593252 -0.000352018 -1.94464e-06
0.00547646 0.000249509 -0.000245861
0.00556833 0.000215621 -0.000129858
0.00580216 -0.000325843 -1.42447e-05
0.00560032 0.000415641 -0.000412568
0.00586204 -0.000303021 -1.07508e-05
0.00588812 0.00143791 -0.000971879
0.00560645 0.000234838 -0.000130834
0.00587803 0.00144009 -0.000972426
0.00559584 0.000224195 -0.000132375
0.00569318 0.000114364 -0.000192366
0.00558246 0.000223566 -0.000132101
0.005816 -0.000302265 -1.2787e-05
0.00585742 0.00144415 -0.000973349
0.00588947 0.00143943 -0.000972673
0.00595882 -0.00034284 1.21745e-05
0.0057691 0.0014659 -0.000979329
0.0058743 0.000192687 -0.000129161
0.00556581 0.000221437 -0.000130695
0.00559673 0.00022919 -0.00013249
0.00556521 0.000222424 -0.000130901
0.00584971 -0.000317394 -8.04482e-06
0.00574309 0.00020271 -0.000127131
0.00573196 0.000175465 -0.000121755
0.00580333 -0.000294147 -1.20781e-05
0.00586237 -0.000302284 -1.08161e-05
0.00579905 -0.00029506 -1.12145e-05
0.005775 0.000207354 -0.000135322
0.00630892 0.0010697 -0.000817526
0.00556777 0.000222963 -0.000130185
0.0061858 0.0011843 -0.000761942
0.00578605 0.00146325 -0.000978933
0.00584791 0.00144754 -0.000974472
0.00587806 0.00108606 -0.000710626

VECTORS force float
-1.22189e-10 -2.44684e-10 -3.0508e-11
-1.14447e-11 -3.90634e-11 6.80726e-11
-3.65325e-11 -4.40244e-11 1.52358e-11
-3.27815e-11 2.63471e-10 4.48601e-11
-6.63501e-14 -2.28752e-12 1.43194e-12
-4.14065e-10 -8.35044e-11 -2.10487e-11
1.09104e-11 1.51892e-10 -3.7324e-10
1.84256e-12 1.25191e-12 -9.54631e-13
-3.02225e-10 -1.29197e-10 3.8302e-10
9.87129e-11 -1.61284e-10 8.09076e-11
1.10239e-10 1.2637e-10 1.32506e-10
-3.70926e-10 7.92587e-10 -1.77156e-10
-4.77163e-11 1.29119e-11 -1.19326e-11
-2.62989e-12 -5.13941e-11 1.17084e-11
-6.4933e-11 -1.2326e-10 -1.00495e-10
9.49267e-10 5.45831e-11 -1.10987e-09
-3.74189e-11 4.07553e-10 1.32726e-10
-4.96331e-10 -6.98075e-11 -1.05418e-09
-9.95751e-11 7.23834e-11 -2.4668e-11
2.6801e-13 1.16781e-13 3.86443e-14
-5.84971e-11 -3.31295e-10 -8.53016e-11
1.37111e-13 1.60135e-12 -8.4908e-13
-7.09436e-12 -1.28596e-11 7.19332e-12
-3.92458e-10 1.79063e-10 -1.45352e-10
-1.28736e-10 -1.90973e-10 6.29536e-10
-4.80707e-11 -1.5794e-11 -1.12855e-10
3.43453e-10 2.54723e-10 -8.24215e-10
4.00138e-10 1.6629e-11 -1.00907e-09
1.22798e-13 -2.31387e-12 1.86577e-13
3.34584e-10 1.50824e-10 2.77838e-11
-5.41448e-11 3.26015e-10 -3.86319e-10
1.12151e-12 1.83913e-12 -4.00762e-13
6.63898e-11 9.86058e-11 -3.42094e-10
-1.81471e-10 -2.30444e-10 4.29357e-10
4.52827e-13 6.41138e-13 2.4327e-14
-4.6616e-10 3.04685e-10 1.36681e-10
5.15709e-10 -6.11839e-11 1.73446e-09
-5.7774e-10 7.04585e-10 2.33185e-09
4.13208e-14 -2.11102e-12 1.49543e-13
-1.31257e-13 4.64263e-10 1.1598e-10
-1.40109e-11 -2.33698e-13 -2.36506e-12
1.81874e-12 1.6097e-12 -4.97088e-13
-2.60374e-10 4.11202e-10 -1.12746e-10
1.29296e-10 -1.98069e-10 2.05555e-10
1.39718e-10 -1.0751e-10 4.21881e-11
2.88106e-13 -7.84128e-13 2.6787e-13
-8.33351e-10 4.83365e-10 -4.00996e-10
1.63778e-11 8.96362e-13 -3.4875e-11
-6.1585e-10 3.08158e-10 -3.09125e-10
4.90271e-14 -1.35004e-12 6.03261e-13
-2.52032e-24 9.04729e-25 0.0
3.33409e-10 -5.93632e-10 4.4656e-10
2.38063e-11 -6.0144e-11 -7.7582e-11
3.16754e-10 -1.46479e-11 7.62668e-10
1.17768e-11 5.95246e-12 -4.9436e-12
-8.12672e-14 -6.3896e-13 -8.01542e-14
1.74414e-11 -8.20496e-12 -7.56253e-12
5.1594e-11 -5.41319e-13 -1.13886e-10
-1.80948e-10 7.00463e-12 -4.18978e-11
-2.05765e-10 3.29642e-10 -2.01502e-10
-6.2008e-10 2.57619e-10 -1.85229e-10
2.90641e-13 2.40794e-12 -4.46584e-13
1.87065e-11 9.87851e-11 -2.71045e-11
2.74433e-10 -1.22858e-10 -4.9618e-11
-2.15345e-10 -2.07378e-10 4.51856e-10
2.42484e-10 -1.21274e-11 1.59907e-12
2.93755e-11 1.57711e-10 5.41596e-11
-4.93097e-10 -1.83569e-10 -8.14804e-11
2.77241e-11 1.06851e-10 -1.53526e-10
3.06676e-11 -3.06351e-11 6.25806e-12
6.30981e-12 7.84173e-13 -1.44231e-09
-1.06817e-10 -8.51276e-11 1.58633e-10
-8.72397e-11 -3.88311e-11 -8.28902e-13
7.13214e-13 2.29212e-12 -3.05003e-13
-2.27553e-12 5.30549e-11 -1.4526e-11
-2.21561e-10 1.21317e-10 -2.0035e-10
-5.73776e-11 -1.52253e-10 -2.11181e-10
3.40298e-11 3.15027e-10 -2.22543e-10
1.273e-10 1.01595e-10 7.74732e-11
-1.6076e-10 1.13599e-10 -1.19809e-10
-1.38307e-10 -1.32235e-10 1.43549e-11
-5.0221e-10 6.7787e-10 -2.281e-10
1.66885e-10 7.32245e-11 -8.56075e-11
-2.9414e-11 3.63175e-11 -5.61589e-11
1.51202e-12 6.31503e-10 -2.87509e-10
-1.29498e-10 -1.26063e-10 2.46127e-11
-7.78077e-11 -1.23226e-10 3.4588e-11
-2.94533e-10 4.75709e-10 4.08093e-10
-3.44057e-11 -7.58385e-12 6.2542e-11
-5.24131e-10 4.07493e-10 -1.26801e-09
-5.0759e-12 6.34288e-11 -4.32688e-12
-2.3565e-21 7.06645e-22 4.11522e-23
0.0 0.0 0.0
9.37764e-12 -1.92539e-11 1.90836e-12
-2.03091e-10 -8.06343e-11 5.10933e-11
-6.50203e-12 -6.47611e-11 6.68522e-12
1.1493e-10 5.13278e-11 -6.93271e-11
2.60476e-11 -2.89865e-10 1.75486e-10
-2.52987e-10 2.51392e-11 -2.14272e-10