# vtk DataFile Version 3.0
LIGGGHTS particles timestep 43000000
ASCII
DATASET POLYDATA
POINTS 275 float
0.263986 0.018202 0.00701595
0.26365 0.0171087 0.00739561
0.263803 0.0170222 0.00749044
0.263223 0.0156981 0.00881369
0.269599 0.0168602 0.00747244
0.263938 0.0175588 0.00709257
0.263656 0.0167875 0.007723
0.269793 0.0177332 0.00704241
0.263636 0.0165783 0.00793526
0.263845 0.0178297 0.00714753
0.257918 0.0170961 0.00732978
0.263202 0.0156292 0.008883
0.257849 0.0174082 0.00724218
0.258099 0.0179256 0.00714146
0.263572 0.016523 0.00798876
0.263179 0.0155604 0.00895208
0.263978 0.0177531 0.00706806
0.26366 0.0166485 0.00786477
0.258056 0.0177302 0.00713778
0.269715 0.0173676 0.00717407
0.263355 0.0160881 0.00842227
0.269754 0.0175431 0.00708776
0.257611 0.0165527 0.00769642
0.263726 0.0170649 0.00744353
0.263158 0.0154915 0.00902128
0.263434 0.0163642 0.00814446
0.264013 0.0174928 0.00709818
0.263367 0.0161588 0.00835263
0.269618 0.0169448 0.00742271
0.263309 0.0159763 0.00853981
0.263897 0.0173674 0.00714086
0.269853 0.018024 0.00700088
0.263785 0.0169529 0.00756022
0.263859 0.0172279 0.0072789
0.269734 0.0174521 0.00712437
0.263269 0.0158354 0.00867588
0.263903 0.0170443 0.00745578
0.263957 0.0172494 0.00724366
0.269637 0.0170293 0.00737298
0.263288 0.0159046 0.00860617
0.263842 0.0179722 0.00704983
0.269812 0.0178303 0.00702851
0.263389 0.0162267 0.00828253
0.264032 0.0175898 0.00708424
0.257978 0.0173444 0.00716696
0.269676 0.0171985 0.00727352
0.264213 0.0180067 0.0070268
0.257802 0.0169876 0.00740617
0.264192 0.0179098 0.00703907
0.269656 0.0171139 0.00732325
0.378022 0.019866 0.005332
0.263978 0.0173209 0.00717701
0.263244 0.015767 0.0087445
0.263876 0.0172979 0.00720967
0.263863 0.018069 0.00703756
0.269696 0.017283 0.00722381
0.257727 0.017045 0.00737367
0.257807 0.0176853 0.00720421
0.264 0.0178502 0.00705576
0.263781 0.0172727 0.00723434
0.264075 0.0177837 0.00705959
0.269773 0.017636 0.00705631
0.258142 0.0181208 0.00714518
0.264044 0.0180444 0.00703114
0.263384 0.0160216 0.00849123
0.263411 0.0162956 0.00821333
0.257744 0.0167414 0.00756755
0.263668 0.0171835 0.00733195
0.257143 0.0153067 0.00895922
0.258068 0.0181872 0.00713999
0.263744 0.0171341 0.00737382
0.257873 0.0176101 0.00720848
0.257937 0.0171782 0.00727596
0.269831 0.0179274 0.00701464
0.257939 0.0184168 0.00713141
0.263939 0.0171809 0.00731439
0.263708 0.0169956 0.00751329
0.263839 0.017523 0.00710218
0.263925 0.0177693 0.00715083
0.264022 0.0179474 0.00704343
0.257899 0.0170141 0.00738356
0.26376 0.0175838 0.00709976
0.263501 0.0165752 0.00794202
0.263867 0.0179265 0.00713524
0.263804 0.0174891 0.00718918
0.263741 0.0174863 0.00711116
0.257252 0.015614 0.00858776
0.263476 0.0165039 0.00800747
0.257748 0.0175393 0.0071373
0.263957 0.0176561 0.00708031
0.257768 0.0176352 0.00711663
0.0643568 0.0187248 0.00531097
0.24257 0.0191927 0.00520306
0.258121 0.0180232 0.00714333
0.257209 0.0155016 0.00874509
0.257766 0.0172091 0.00726608
0.257164 0.0153602 0.00887751
0.264096 0.0178806 0.00704733
0.264148 0.0177162 0.00706359
0.263631 0.0170394 0.00746536
0.263595 0.0169008 0.00760493
0.257293 0.0157369 0.00843577
0.257652 0.0171023 0.00734118
0.25771 0.0173496 0.00718158
0.263921 0.0171126 0.00738509
0.263921 0.0179114 0.00705275
0.263918 0.0174668 0.00712674
0.257841 0.0171516 0.0072986
0.264118 0.0179774 0.00703506
0.263646 0.0167176 0.00779382
0.264008 0.0182991 0.00700364
0.263722 0.0173885 0.00712009
0.258089 0.0182848 0.00714184
0.263565 0.0166256 0.00788394
0.26382 0.0174255 0.0071139
0.257228 0.0155472 0.00865826
0.263455 0.0164332 0.00807514
0.263824 0.0177326 0.00715975
0.257806 0.0173779 0.00715532
0.257821 0.0174723 0.00711996
0.263822 0.0170912 0.00742041
0.263943 0.0180083 0.00704049
0.263899 0.0178145 0.00706503
0.264053 0.0176868 0.00707186
0.257783 0.0169055 0.00745997
0.263778 0.0175854 0.00719813
0.263799 0.0177783 0.00707434
0.263686 0.0172503 0.00725977
0.257628 0.0162493 0.00789024
0.258014 0.0175349 0.0071341
0.257186 0.0154235 0.00880324
0.25788 0.0173191 0.00719656
0.257388 0.0157656 0.00842012
0.257785 0.0172911 0.00721228
0.257648 0.0163312 0.00783649
0.263561 0.0167618 0.00774506
0.257918 0.0183192 0.00712955
0.257907 0.0178627 0.00712738
0.257667 0.0164132 0.00778271
0.257367 0.0157022 0.00849446
0.257315 0.0158002 0.00836152
0.257608 0.0161754 0.00795618
0.0219312 0.0187687 0.00551176
0.257706 0.0165773 0.00767513
0.26384 0.0171598 0.0073498
0.257788 0.0177331 0.00711841
0.257858 0.0178167 0.00720679
0.257379 0.0160122 0.00816014
0.25795 0.0180581 0.00713106
0.26382 0.0178753 0.0070621
0.257875 0.018124 0.00712584
0.257993 0.0182533 0.00713478
0.257896 0.0182216 0.0071277
0.257971 0.0181557 0.00713292
0.264066 0.0181417 0.00701881
0.257632 0.0170203 0.00739497
0.263989 0.0180589 0.00711344
0.257417 0.0161333 0.0080057
0.257708 0.0169629 0.00742746
0.257412 0.0158288 0.00834638
0.257747 0.0173597 0.00727408
0.25781 0.0178308 0.00712027
0.264088 0.0182385 0.00700654
0.257691 0.0172664 0.0072336
0.263888 0.0180234 0.00712297
0.257902 0.0174084 0.00715707
0.257961 0.0185145 0.00713327
0.263965 0.0181051 0.00702822
0.263799 0.017342 0.00716449
0.263929 0.0183595 0.00700076
0.251938 0.0183828 0.00690192
0.263577 0.0168315 0.00767477
0.257671 0.0171844 0.00728739
0.26414 0.0180743 0.00702279
0.257936 0.0177529 0.0072109
0.258002 0.0178937 0.00713437
0.257959 0.017698 0.00713064
0.251608 0.0169716 0.00759004
0.257957 0.0172604 0.0072221
0.257775 0.017492 0.00722119
0.257272 0.015679 0.00851434
0.258024 0.0179916 0.00713625
0.257725 0.0166594 0.00762134
0.263879 0.0177175 0.00707728
0.258077 0.0178279 0.00713961
0.257552 0.0163067 0.00785781
0.257592 0.0164706 0.0077502
0.257472 0.0160192 0.00812202
0.257994 0.0174368 0.0071324
0.257822 0.0170696 0.00735238
0.263673 0.0168569 0.00765312
0.26369 0.0169263 0.00758319
0.258046 0.0180893 0.00713811
0.263907 0.0182627 0.00701303
0.263763 0.0172042 0.00730486
0.251835 0.0179415 0.00711712
0.257453 0.0159558 0.00819691
0.264161 0.0181711 0.00701053
0.25773 0.0174417 0.00714789
0.26354 0.0166929 0.00781427
0.257843 0.0175696 0.00712191
0.263989 0.0173968 0.00711281
0.257631 0.0166347 0.00764263
0.263613 0.0169701 0.00753515
0.258035 0.0176326 0.00713594
0.251856 0.0180295 0.00707419
0.251794 0.017765 0.00720315
0.258014 0.018351 0.00713663
0.257536 0.01661 0.00766393
0.25794 0.0179049 0.00721175
0.257853 0.0180263 0.00712399
0.263704 0.0173161 0.0071867
0.257497 0.0164459 0.00777151
0.257594 0.0168562 0.00750255
0.257613 0.0169382 0.00744877
0.251509 0.0165309 0.00780473
0.251568 0.0167956 0.00767585
0.251489 0.0164429 0.00784765
0.257588 0.016112 0.00803098
0.257938 0.0176002 0.00713285
0.251528 0.0166193 0.00776171
0.251711 0.0174122 0.00737518
0.257437 0.0162034 0.00793735
0.257714 0.0172647 0.00733087
0.25165 0.0171477 0.00750415
0.257512 0.0161605 0.00798789
0.263859 0.0176202 0.00708967
0.251732 0.0175004 0.00733218
0.251917 0.0182945 0.00694498
0.25167 0.0172359 0.00746114
0.257121 0.0152344 0.00902491
0.258216 0.0180533 0.00715029
0.257686 0.0164953 0.00772892
0.25784 0.0173208 0.00729013
0.251753 0.0175886 0.00728918
0.257928 0.0179604 0.00712921
0.257689 0.0168808 0.00748126
0.257694 0.0171825 0.00738467
0.251629 0.0170595 0.00754715
0.257337 0.0158636 0.00828727
0.251959 0.0184711 0.00685886
0.257863 0.0176675 0.00712365
0.257533 0.0162301 0.00791893
0.25786 0.0172338 0.007245
0.257917 0.0175024 0.00712704
0.263746 0.0174099 0.00721495
0.257831 0.0179284 0.00712212
0.251814 0.0178533 0.00716014
0.257572 0.0163886 0.00780399
0.251773 0.0176768 0.00724617
0.257398 0.0160749 0.00808461
0.257492 0.0160826 0.0080474
0.257457 0.0162826 0.00787965
0.257746 0.017127 0.00731987
0.251982 0.0181569 0.007007
0.251876 0.0181175 0.0070313
0.257885 0.0177652 0.00712551
0.251548 0.0167074 0.00771878
0.257555 0.0166921 0.00761014
0.25765 0.0167167 0.00758884
0.257358 0.015939 0.00822505
0.257517 0.016528 0.00771772
0.257981 0.0177956 0.00713251
0.257433 0.0158922 0.00827191
0.257764 0.0168234 0.00751377
0.257874 0.0175084 0.00721696
0.257865 0.0179714 0.00720659
0.257669 0.0167988 0.00753505
0.257575 0.0167741 0.00755637
0.251897 0.0182055 0.00698841
0.257477 0.016364 0.00782524
0.263885 0.0181659 0.0070253
0.251588 0.0168836 0.00763293
0.251691 0.0173241 0.00741817
0.26378 0.017681 0.00708656

VERTICES 275 550
1 0
1 1
1 2
1 3
1 4
1 5
1 6
1 7
1 8
1 9
1 10
1 11
1 12
1 13
1 14
1 15
1 16
1 17
1 18
1 19
1 20
1 21
1 22
1 23
1 24
1 25
1 26
1 27
1 28
1 29
1 30
1 31
1 32
1 33
1 34
1 35
1 36
1 37
1 38
1 39
1 40
1 41
1 42
1 43
1 44
1 45
1 46
1 47
1 48
1 49
1 50
1 51
1 52
1 53
1 54
1 55
1 56
1 57
1 58
1 59
1 60
1 61
1 62
1 63
1 64
1 65
1 66
1 67
1 68
1 69
1 70
1 71
1 72
1 73
1 74
1 75
1 76
1 77
1 78
1 79
1 80
1 81
1 82
1 83
1 84
1 85
1 86
1 87
1 88
1 89
1 90
1 91
1 92
1 93
1 94
1 95
1 96
1 97
1 98
1 99
1 100
1 101
1 102
1 103
1 104
1 105
1 106
1 107
1 108
1 109
1 110
1 111
1 112
1 113
1 114
1 115
1 116
1 117
1 118
1 119
1 120
1 121
1 122
1 123
1 124
1 125
1 126
1 127
1 128
1 129
1 130
1 131
1 132
1 133
1 134
1 135
1 136
1 137
1 138
1 139
1 140
1 141
1 142
1 143
1 144
1 145
1 146
1 147
1 148
1 149
1 150
1 151
1 152
1 153
1 154
1 155
1 156
1 157
1 158
1 159
1 160
1 161
1 162
1 163
1 164
1 165
1 166
1 167
1 168
1 169
1 170
1 171
1 172
1 173
1 174
1 175
1 176
1 177
1 178
1 179
1 180
1 181
1 182
1 183
1 184
1 185
1 186
1 187
1 188
1 189
1 190
1 191
1 192
1 193
1 194
1 195
1 196
1 197
1 198
1 199
1 200
1 201
1 202
1 203
1 204
1 205
1 206
1 207
1 208
1 209
1 210
1 211
1 212
1 213
1 214
1 215
1 216
1 217
1 218
1 219
1 220
1 221
1 222
1 223
1 224
1 225
1 226
1 227
1 228
1 229
1 230
1 231
1 232
1 233
1 234
1 235
1 236
1 237
1 238
1 239
1 240
1 241
1 242
1 243
1 244
1 245
1 246
1 247
1 248
1 249
1 250
1 251
1 252
1 253
1 254
1 255
1 256
1 257
1 258
1 259
1 260
1 261
1 262
1 263
1 264
1 265
1 266
1 267
1 268
1 269
1 270
1 271
1 272
1 273
1 274

POINT_DATA 275
SCALARS id int 1
LOOKUP_TABLE default
1
2
4
5
6
7
8
9
10
11
12
13
14
16
17
19
21
22
23
24
25
26
27
28
29
30
31
32
33
34
35
36
37
38
39
41
42
44
45
47
48
49
50
51
52
53
54
55
56
57
59
60
61
62
63
64
65
66
67
68
69
70
71
72
73
74
76
77
78
79
80
82
83
84
85
86
87
88
89
90
91
92
93
94
95
96
97
98
99
100
101
102
103
104
105
106
107
108
109
110
111
112
113
114
115
116
117
118
119
120
121
122
123
124
125
127
128
129
130
131
132
133
134
135
136
137
138
140
141
142
143
144
146
147
148
149
150
151
153
154
155
156
157
158
159
160
162
164
165
166
167
168
169
170
171
172
173
174
176
177
178
179
182
183
184
185
186
187
188
189
190
191
192
193
194
195
196
197
198
199
200
201
202
203
204
205
206
207
208
209
210
211
212
213
214
215
216
217
218
219
220
222
224
225
226
227
228
229
230
232
233
234
235
236
237
239
240
241
242
243
244
246
247
248
249
250
251
252
253
254
255
256
257
258
259
260
261
262
263
264
265
266
267
268
269
270
271
272
273
274
275
276
277
278
279
280
281
283
284
285
286
287
288
289
290
291
292
293
294
295
296
297
298
299
300

SCALARS type int 1
LOOKUP_TABLE default
1
1
1
1
1
1
1
1
1
1
1
1
1
1
1
1
1
1
1
1
1
1
1
1
1
1
1
1
1
1
1
1
1
1
1
1
1
1
1
1
1
1
1
1
1
1
1
1
1
1
1
1
1
1
1
1
1
1
1
1
1
1
1
1
1
1
1
1
1
1
1
1
1
1
1
1
1
1
1
1
1
1
1
1
1
1
1
1
1
1
1
1
1
1
1
1
1
1
1
1
1
1
1
1
1
1
1
1
1
1
1
1
1
1
1
1
1
1
1
1
1
1
1
1
1
1
1
1
1
1
1
1
1
1
1
1
1
1
1
1
1
1
1
1
1
1
1
1
1
1
1
1
1
1
1
1
1
1
1
1
1
1
1
1
1
1
1
1
1
1
1
1
1
1
1
1
1
1
1
1
1
1
1
1
1
1
1
1
1
1
1
1
1
1
1
1
1
1
1
1
1
1
1
1
1
1
1
1
1
1
1
1
1
1
1
1
1
1
1
1
1
1
1
1
1
1
1
1
1
1
1
1
1
1
1
1
1
1
1
1
1
1
1
1
1
1
1
1
1
1
1
1
1
1
1
1
1
1
1
1
1
1
1
1
1
1
1
1
1
1
1
1
1
1
1

SCALARS radius float 1
LOOKUP_TABLE default
5e-05
5e-05
5e-05
5e-05
5e-05
5e-05
5e-05
5e-05
5e-05
5e-05
5e-05
5e-05
5e-05
5e-05
5e-05
5e-05
5e-05
5e-05
5e-05
5e-05
5e-05
5e-05
5e-05
5e-05
5e-05
5e-05
5e-05
5e-05
5e-05
5e-05
5e-05
5e-05
5e-05
5e-05
5e-05
5e-05
5e-05
5e-05
5e-05
5e-05
5e-05
5e-05
5e-05
5e-05
5e-05
5e-05
5e-05
5e-05
5e-05
5e-05
5e-05
5e-05
5e-05
5e-05
5e-05
5e-05
5e-05
5e-05
5e-05
5e-05
5e-05
5e-05
5e-05
5e-05
5e-05
5e-05
5e-05
5e-05
5e-05
5e-05
5e-05
5e-05
5e-05
5e-05
5e-05
5e-05
5e-05
5e-05
5e-05
5e-05
5e-05
5e-05
5e-05
5e-05
5e-05
5e-05
5e-05
5e-05
5e-05
5e-05
5e-05
5e-05
5e-05
5e-05
5e-05
5e-05
5e-05
5e-05
5e-05
5e-05
5e-05
5e-05
5e-05
5e-05
5e-05
5e-05
5e-05
5e-05
5e-05
5e-05
5e-05
5e-05
5e-05
5e-05
5e-05
5e-05
5e-05
5e-05
5e-05
5e-05
5e-05
5e-05
5e-05
5e-05
5e-05
5e-05
5e-05
5e-05
5e-05
5e-05
5e-05
5e-05
5e-05
5e-05
5e-05
5e-05
5e-05
5e-05
5e-05
5e-05
5e-05
5e-05
5e-05
5e-05
5e-05
5e-05
5e-05
5e-05
5e-05
5e-05
5e-05
5e-05
5e-05
5e-05
5e-05
5e-05
5e-05
5e-05
5e-05
5e-05
5e-05
5e-05
5e-05
5e-05
5e-05
5e-05
5e-05
5e-05
5e-05
5e-05
5e-05
5e-05
5e-05
5e-05
5e-05
5e-05
5e-05
5e-05
5e-05
5e-05
5e-05
5e-05
5e-05
5e-05
5e-05
5e-05
5e-05
5e-05
5e-05
5e-05
5e-05
5e-05
5e-05
5e-05
5e-05
5e-05
5e-05
5e-05
5e-05
5e-05
5e-05
5e-05
5e-05
5e-05
5e-05
5e-05
5e-05
5e-05
5e-05
5e-05
5e-05
5e-05
5e-05
5e-05
5e-05
5e-05
5e-05
5e-05
5e-05
5e-05
5e-05
5e-05
5e-05
5e-05
5e-05
5e-05
5e-05
5e-05
5e-05
5e-05
5e-05
5e-05
5e-05
5e-05
5e-05
5e-05
5e-05
5e-05
5e-05
5e-05
5e-05
5e-05
5e-05
5e-05
5e-05
5e-05
5e-05
5e-05
5e-05
5e-05
5e-05
5e-05
5e-05
5e-05
5e-05
5e-05
5e-05
5e-05
5e-05
5e-05
5e-05
5e-05
5e-05
5e-05
5e-05
5e-05
5e-05
5e-05
5e-05
5e-05
5e-05
5e-05
5e-05
5e-05
5e-05

SCALARS mass float 1
LOOKUP_TABLE default
1.46608e-10
1.46608e-10
1.46608e-10
1.46608e-10
1.46608e-10
1.46608e-10
1.46608e-10
1.46608e-10
1.46608e-10
1.46608e-10
1.46608e-10
1.46608e-10
1.46608e-10
1.46608e-10
1.46608e-10
1.46608e-10
1.46608e-10
1.46608e-10
1.46608e-10
1.46608e-10
1.46608e-10
1.46608e-10
1.46608e-10
1.46608e-10
1.46608e-10
1.46608e-10
1.46608e-10
1.46608e-10
1.46608e-10
1.46608e-10
1.46608e-10
1.46608e-10
1.46608e-10
1.46608e-10
1.46608e-10
1.46608e-10
1.46608e-10
1.46608e-10
1.46608e-10
1.46608e-10
1.46608e-10
1.46608e-10
1.46608e-10
1.46608e-10
1.46608e-10
1.46608e-10
1.46608e-10
1.46608e-10
1.46608e-10
1.46608e-10
1.46608e-10
1.46608e-10
1.46608e-10
1.46608e-10
1.46608e-10
1.46608e-10
1.46608e-10
1.46608e-10
1.46608e-10
1.46608e-10
1.46608e-10
1.46608e-10
1.46608e-10
1.46608e-10
1.46608e-10
1.46608e-10
1.46608e-10
1.46608e-10
1.46608e-10
1.46608e-10
1.46608e-10
1.46608e-10
1.46608e-10
1.46608e-10
1.46608e-10
1.46608e-10
1.46608e-10
1.46608e-10
1.46608e-10
1.46608e-10
1.46608e-10
1.46608e-10
1.46608e-10
1.46608e-10
1.46608e-10
1.46608e-10
1.46608e-10
1.46608e-10
1.46608e-10
1.46608e-10
1.46608e-10
1.46608e-10
1.46608e-10
1.46608e-10
1.46608e-10
1.46608e-10
1.46608e-10
1.46608e-10
1.46608e-10
1.46608e-10
1.46608e-10
1.46608e-10
1.46608e-10
1.46608e-10
1.46608e-10
1.46608e-10
1.46608e-10
1.46608e-10
1.46608e-10
1.46608e-10
1.46608e-10
1.46608e-10
1.46608e-10
1.46608e-10
1.46608e-10
1.46608e-10
1.46608e-10
1.46608e-10
1.46608e-10
1.46608e-10
1.46608e-10
1.46608e-10
1.46608e-10
1.46608e-10
1.46608e-10
1.46608e-10
1.46608e-10
1.46608e-10
1.46608e-10
1.46608e-10
1.46608e-10
1.46608e-10
1.46608e-10
1.46608e-10
1.46608e-10
1.46608e-10
1.46608e-10
1.46608e-10
1.46608e-10
1.46608e-10
1.46608e-10
1.46608e-10
1.46608e-10
1.46608e-10
1.46608e-10
1.46608e-10
1.46608e-10
1.46608e-10
1.46608e-10
1.46608e-10
1.46608e-10
1.46608e-10
1.46608e-10
1.46608e-10
1.46608e-10
1.46608e-10
1.46608e-10
1.46608e-10
1.46608e-10
1.46608e-10
1.46608e-10
1.46608e-10
1.46608e-10
1.46608e-10
1.46608e-10
1.46608e-10
1.46608e-10
1.46608e-10
1.46608e-10
1.46608e-10
1.46608e-10
1.46608e-10
1.46608e-10
1.46608e-10
1.46608e-10
1.46608e-10
1.46608e-10
1.46608e-10
1.46608e-10
1.46608e-10
1.46608e-10
1.46608e-10
1.46608e-10
1.46608e-10
1.46608e-10
1.46608e-10
1.46608e-10
1.46608e-10
1.46608e-10
1.46608e-10
1.46608e-10
1.46608e-10
1.46608e-10
1.46608e-10
1.46608e-10
1.46608e-10
1.46608e-10
1.46608e-10
1.46608e-10
1.46608e-10
1.46608e-10
1.46608e-10
1.46608e-10
1.46608e-10
1.46608e-10
1.46608e-10
1.46608e-10
1.46608e-10
1.46608e-10
1.46608e-10
1.46608e-10
1.46608e-10
1.46608e-10
1.46608e-10
1.46608e-10
1.46608e-10
1.46608e-10
1.46608e-10
1.46608e-10
1.46608e-10
1.46608e-10
1.46608e-10
1.46608e-10
1.46608e-10
1.46608e-10
1.46608e-10
1.46608e-10
1.46608e-10
1.46608e-10
1.46608e-10
1.46608e-10
1.46608e-10
1.46608e-10
1.46608e-10
1.46608e-10
1.46608e-10
1.46608e-10
1.46608e-10
1.46608e-10
1.46608e-10
1.46608e-10
1.46608e-10
1.46608e-10
1.46608e-10
1.46608e-10
1.46608e-10
1.46608e-10
1.46608e-10
1.46608e-10
1.46608e-10
1.46608e-10
1.46608e-10
1.46608e-10
1.46608e-10
1.46608e-10
1.46608e-10
1.46608e-10
1.46608e-10
1.46608e-10
1.46608e-10
1.46608e-10
1.46608e-10
1.46608e-10
1.46608e-10
1.46608e-10
1.46608e-10
1.46608e-10
1.46608e-10
1.46608e-10
1.46608e-10
1.46608e-10
1.46608e-10
1.46608e-10
1.46608e-10
1.46608e-10

VECTORS velocity float
0.00620175 0.000282685 -0.000351016
0.00563125 0.000383076 -0.000135431
0.00569112 0.000476625 -0.000237116
0.00591012 0.000374942 -0.000122308
0.00547006 -0.000298851 3.58001e-06
0.00580653 0.000180742 -0.000296178
0.00634439 0.000377887 -0.000105138
0.00561579 -0.000261892 0.00019808
0.0062413 6.46743e-05 0.000208408
0.00614461 0.000267373 -0.000370702
0.00537712 -0.00083848 0.000227234
0.00592199 0.000378059 -0.000124792
0.00542814 -0.000827247 0.000281262
0.00577609 -0.00089446 0.000414795
0.00593019 0.000184316 7.16093e-05
0.00593397 0.000382738 -0.000129188
0.00611718 0.000150153 -0.000325265
0.00639605 0.000386092 -0.000111904
0.00581575 -0.00091467 0.000421964
0.00562288 -0.000293903 -2.86407e-07
0.00586227 0.000403184 -0.000152452
0.00563234 -0.000326592 -5.09642e-05
0.00529855 -0.000797077 0.000206033
0.00563775 0.000426701 -0.00018211
0.00594649 0.000386475 -0.000132388
0.00577214 0.000435152 -0.000190185
0.00573499 0.000138917 -9.9818e-05
0.00585916 0.00040799 -0.000160183
0.00549463 -0.000295435 8.84517e-07
0.00586604 0.000384949 -0.000132985
0.00559106 0.000159914 -0.000234565
0.00611543 -0.000321433 0.000217246
0.00577621 0.000467411 -0.000222292
0.00568419 -0.000226747 -0.000545194
0.00560683 -0.00029549 -4.14595e-06
0.00589155 0.000375573 -0.00012359
0.00562687 -0.000231907 -0.000553586
0.00568283 -0.00023126 -0.00053215
0.00550706 -0.000292229 -1.56695e-06
0.00588045 0.000378732 -0.000127493
0.00623472 0.000327666 -0.000359569
0.00554056 -0.000224939 0.000187487
0.00584266 0.00041788 -0.000167975
0.0058296 0.000113925 -0.00030487
0.00548739 -0.000914937 0.000267301
0.00558823 -0.000289902 -5.49791e-06
0.00613102 0.000124892 -0.000328644
0.00536972 -0.000799691 0.000203854
0.00610858 9.7181e-05 -0.000324384
0.00551535 -0.000282488 -7.1167e-06
-5.0196e-15 -7.41214e-15 7.69802e-14
0.00558131 -0.000134756 -0.000455748
0.0059011 0.000374153 -0.000121964
0.00573383 1.46465e-05 -0.000310164
0.00623218 0.000333007 -0.000358068
0.00560129 -0.00029086 -4.81741e-06
0.00536019 -0.000784434 0.000193707
0.00590867 -0.00073209 0.000450525
0.00619867 0.00022503 -0.000342593
0.00582701 0.000394875 -0.000147611
0.00611142 0.000104565 -0.00032542
0.00564277 -0.000250793 0.000193412
0.00574888 -0.000885361 0.000412471
0.00615768 0.000172313 -0.00033409
0.00585792 0.000396447 -0.00014677
0.00583248 0.000423889 -0.000174943
0.00533871 -0.000789626 0.000198561
0.00566057 0.000380711 -0.000140057
0.00592122 1.28528e-05 0.00122891
0.00576885 -0.000858635 0.000414577
0.00570014 0.000422582 -0.000164837
0.00586666 -0.00078033 0.000384713
0.00544385 -0.000822639 0.000219559
0.00610948 -0.000322872 0.000216856
0.00580546 -0.000801711 0.000417146
0.00567499 -0.000241068 -0.00054609
0.0057223 0.000418307 -0.000175454
0.00578498 0.000262718 -0.000348539
0.00615147 0.000272236 -0.00031586
0.00614615 0.000213528 -0.000339169
0.00532353 -0.00083753 0.000230455
0.00584918 0.000349637 -0.000290953
0.00618717 0.000375085 -0.000109125
0.00620088 0.000295197 -0.000359274
0.00586878 0.00032822 -0.000289866
0.00578483 0.000365805 -0.000230679
0.00590969 3.79739e-05 0.00120009
0.00583013 0.000432419 -0.000180306
0.00549062 -0.000689367 0.000140875
0.00582738 0.00019217 -0.00031607
0.00544787 -0.000627339 0.00039458
4.1652e-15 1.05351e-14 8.29607e-14
-1.23235e-22 4.86658e-23 8.29106e-22
0.00574115 -0.000885085 0.000412201
0.00592655 3.44681e-05 0.00121132
0.00539877 -0.000800055 0.000202126
0.00592936 2.24041e-05 0.001224
0.0060781 0.000136204 -0.000328181
0.00597855 -3.91735e-05 -0.000306509
0.00558189 0.000378459 -0.000133635
0.00550543 0.000370566 -0.000133687
0.0059126 4.16976e-05 0.00119655
0.00537916 -0.000766484 0.000182386
0.00545996 -0.00068728 0.000260317
0.00569163 -0.000246954 -0.000548979
0.00621209 0.00026886 -0.000349108
0.00571165 0.000230979 -0.00019815
0.00538434 -0.000828016 0.000221409
0.00612757 0.000124673 -0.000328415
0.00644048 0.000382904 -0.000107952
0.00618613 0.000290602 -0.000350368
0.00580812 0.00036235 -0.000158206
0.0057753 -0.000859339 0.000414834
0.00646199 0.000223715 5.71929e-05
0.005725 0.000282686 -0.000322973
0.00592439 3.44292e-05 0.00120792
0.00568165 0.000447824 -0.000207573
0.00599851 0.000294105 -0.000341178
0.00542617 -0.000722044 0.000175482
0.00556856 -0.0007258 0.000413506
0.00585813 6.97437e-05 -0.000714638
0.00619165 0.000281851 -0.000352686
0.00618822 0.000259623 -0.000353732
0.0059199 0.000115867 -0.00033163
0.005374 -0.000793393 0.000199082
0.00603411 0.000390152 -0.000322629
0.00604835 0.000330671 -0.000348403
0.00571197 0.00037097 -0.000140314
0.00536459 -0.000780611 0.00018906
0.00567964 -0.000896802 0.000407091
0.00593415 2.9887e-05 0.00121534
0.00549338 -0.00084649 0.000298608
0.00591915 0.000123393 0.00109751
0.00539304 -0.000629699 0.000126142
0.00530607 -0.00077402 0.000190436
0.00640532 0.000260971 1.54372e-05
0.00582276 -0.000798483 0.000418324
0.00589873 -0.00079754 0.000424312
0.00528754 -0.000778929 0.000194
0.0058437 0.000132094 0.0010687
0.00581484 4.80326e-05 0.00116726
0.00556534 3.35233e-05 0.00114698
-3.83976e-14 8.16409e-14 2.95887e-13
0.00530745 -0.00079075 0.000202074
0.00601365 -1.78697e-05 -0.000982212
0.00591914 -0.000739344 0.000434435
0.00591125 -0.000786216 0.000416605
0.00555398 -0.000137369 0.00087272
0.00586582 -0.000789331 0.000421382
0.00622133 0.000312382 -0.000358132
0.0058505 -0.000803333 0.000419932
0.00580728 -0.000814295 0.000417278
0.00583532 -0.00080027 0.000419244
0.00584583 -0.000787633 0.000420049
0.00611558 0.000164038 -0.000332358
0.00533938 -0.000768454 0.000184764
0.00616992 0.000254558 -0.000340039
0.00562075 -0.000570087 0.000558023
0.00535237 -0.00078101 0.000192167
0.00580829 0.000115262 0.00108133
0.00552826 -0.000570224 0.000223786
0.00590672 -0.000777676 0.00042322
0.00609738 0.000184066 -0.000333829
0.00544613 -0.000761822 0.000179647
0.00618927 0.000295336 -0.000361123
0.00556305 -0.000837773 0.000361652
0.00578705 -0.000802782 0.000415829
0.00622013 0.000278407 -0.00035112
0.00582131 0.000383486 -0.000148333
0.00624722 0.000350291 -0.000360054
0.00654 0.000950102 -0.000795589
0.00551478 0.000372715 -0.000135029
0.00546722 -0.000781175 0.000187146
0.0061006 0.000137378 -0.000328396
0.00588051 -0.000819061 0.000434383
0.0059145 -0.000759262 0.000424321
0.00585039 -0.000852949 0.000419298
0.00591426 0.00130253 -0.000929832
0.00548315 -0.000885471 0.000249623
0.00555056 -0.000554106 0.00025731
0.00591284 4.20958e-05 0.00119876
0.00581007 -0.000854655 0.000416891
0.00532006 -0.000787943 0.000199192
0.00597542 0.00022674 -0.000336598
0.00582651 -0.000909727 0.000419962
0.00536653 -0.000713894 0.000293165
0.0052877 -0.000788743 0.00020454
0.00561874 3.23367e-05 0.0011481
0.00559469 -0.000884874 0.000395057
0.00536448 -0.000809027 0.00020805
0.00614245 0.000391327 -0.000128722
0.00593219 0.000404102 -0.0001513
0.00578809 -0.000853622 0.000415771
0.00625702 0.000357092 -0.000363018
0.00577515 0.000414217 -0.00015731
0.00632918 0.000998358 -0.000807436
0.00556221 4.0059e-05 0.00113654
0.00606316 0.000148082 -0.00032793
0.00550718 -0.000654766 0.000379502
0.00655292 0.000240776 4.20575e-05
0.005706 -0.000759166 0.000427834
0.00564603 0.000149061 -0.000104478
0.00532253 -0.000799794 0.000206579
0.00552567 0.0003717 -0.000134516
0.00576082 -0.000909253 0.000414692
0.00635309 0.00091105 -0.000767196
0.0062475 0.00102871 -0.00081757
0.00580555 -0.000815152 0.000417052
0.00530042 -0.000800658 0.000210159
0.00590643 -0.000773513 0.000420732
0.00586809 -0.000805916 0.000420293
0.00576149 0.000370119 -0.000147248
0.00528431 -0.000798742 0.000214583
0.00535329 -0.000800295 0.000204897
0.00533459 -0.000781353 0.000193737
0.00589446 0.00155198 -0.00104772
0.00574551 0.00141413 -0.000974686
0.00590171 0.00159347 -0.00106782
0.00550616 3.30144e-05 0.00113255
0.0057435 -0.000825135 0.000328848
0.00570214 0.00144158 -0.000985139
0.00608749 0.00110369 -0.000844793
0.0054863 -0.000719638 0.000378765
0.00544769 -0.00075241 0.000193327
0.00596914 0.00116686 -0.000868592
0.00553925 -0.00019819 0.000775658
0.00586011 0.000245394 -0.000353103
0.00612715 0.00108353 -0.000837294
0.00649703 0.000956401 -0.000796324
0.0060088 0.00114663 -0.00086106
0.00593043 7.02482e-06 0.00124285
0.00574438 -0.000888179 0.000412679
0.00530104 -0.000784645 0.000197243
0.00531285 -0.000848601 0.00024476
0.00616699 0.00106412 -0.000830164
0.00588644 -0.000792925 0.000422597
0.00535065 -0.000785668 0.000196142
0.00546143 -0.000794612 0.000184262
0.00595099 0.00131952 -0.000940379
0.00566251 5.69048e-05 0.00112917
0.00658333 0.000945405 -0.000795635
0.00586247 -0.000786708 0.000424963
0.0054463 -0.000483596 0.000590395
0.00542205 -0.00084028 0.000254758
0.00563587 -0.00083669 0.000405071
0.00584236 0.00042073 -0.00017134
0.00588562 -0.000758215 0.000423471
0.00628817 0.00101283 -0.00081216
0.00530426 -0.000778542 0.000199387
0.00620709 0.00104579 -0.000823563
0.00558733 -0.000319525 0.000726566
0.00571511 4.00831e-05 0.00117416
0.00538458 -0.000777631 0.000264225
0.00540433 -0.000812738 0.000197733
0.00666864 0.00123323 -0.000936929
0.00639528 0.000902164 -0.000765193
0.00590478 -0.000794967 0.000422828
0.00573386 0.00143346 -0.00098294
0.00533214 -0.000805429 0.000208562
0.00534015 -0.00080226 0.000207358
0.00559184 -3.59001e-06 0.0010396
0.00528285 -0.000796653 0.00021503
0.00587527 -0.000829008 0.000416944
0.00564676 0.000109611 0.00104177
0.00535102 -0.000787825 0.000197398
0.00557804 -0.000808652 0.000367555
0.0058825 -0.000800212 0.00041658
0.00534374 -0.00079361 0.000200874
0.00535445 -0.000808834 0.000210674
0.00643747 0.000893279 -0.00076319
0.00531956 -0.000803748 0.00021249
0.0062406 0.000342367 -0.000359053
0.00587182 0.00132961 -0.000941154
0.00604804 0.00112475 -0.000852729
0.00594354 0.000337813 -0.000340887

VECTORS force float
-2.06299e-10 1.11724e-10 -7.41498e-12
-1.97583e-10 -1.47509e-10 4.83523e-11
-1.92503e-12 -1.29244e-10 1.61234e-10
1.08414e-11 -7.11475e-12 4.9534e-12
3.29395e-11 1.20715e-10 -7.22899e-11
3.06783e-10 -1.43428e-10 1.80958e-10
2.75014e-10 -1.49738e-10 1.73477e-10
8.06188e-10 -2.24227e-10 -5.28575e-12
7.4688e-11 -2.18835e-10 2.38575e-10
1.73578e-10 -2.36672e-11 -1.25635e-10
-1.12319e-10 -3.51709e-11 3.78957e-11
3.71093e-11 7.63872e-12 -4.87167e-12
1.00696e-10 -1.7224e-10 1.30241e-10
-1.16589e-10 3.8724e-11 -2.5122e-11
-5.13067e-13 -6.16134e-11 8.48809e-11
2.03736e-11 3.79558e-11 -3.79673e-11
2.51775e-10 -1.6889e-10 -1.23322e-11
-3.40679e-11 2.14652e-11 -1.66078e-11
3.15278e-11 9.6134e-11 5.52841e-11
-5.25328e-12 5.47385e-11 -1.08174e-10
-4.88657e-11 -7.27763e-11 7.58772e-11
1.01833e-10 -2.8389e-10 -1.83877e-10
1.04978e-10 -1.06614e-10 1.02691e-10
2.25837e-10 6.38638e-11 4.08904e-12
1.65459e-11 5.98134e-11 -6.01081e-11
-3.12272e-10 -1.51031e-10 1.21009e-10
2.82301e-10 -1.53474e-10 1.02126e-11
4.01674e-11 -9.415e-11 8.73495e-11
7.53265e-11 1.4197e-10 -8.10667e-11
-1.9351e-10 -7.69213e-11 9.01291e-11
3.99023e-10 -5.39448e-11 -2.53351e-10
1.03424e-12 -2.80307e-11 4.80278e-12
-5.26021e-11 -8.76093e-11 9.1071e-11
3.10583e-10 4.76481e-10 -1.85709e-10
2.08174e-10 -3.63579e-11 4.75065e-11
2.0893e-11 -5.97759e-11 5.90252e-11
-2.7048e-11 -1.44418e-10 1.4986e-10
4.78047e-10 -7.17646e-12 1.3521e-10
3.80233e-11 1.17177e-10 -7.05646e-11
-3.62715e-11 -8.39693e-11 8.40453e-11
-4.65183e-11 2.53942e-10 -9.45434e-12
-2.3519e-10 -2.92657e-10 4.23614e-11
-1.18592e-12 -1.13145e-10 1.07563e-10
3.45578e-10 -1.21767e-10 -7.16668e-11
4.00858e-10 -1.50415e-10 1.76525e-11
-1.22888e-11 1.8755e-10 -1.23282e-10
-3.20809e-10 1.44153e-10 1.63318e-12
-8.47165e-11 -1.31608e-10 5.86304e-11
-3.38479e-10 1.29928e-10 6.83525e-12
-1.31247e-10 2.01773e-10 -1.11822e-10
6.78547e-24 -4.54949e-24 0.0
7.44444e-10 -1.58138e-10 2.35814e-11
-1.29446e-11 -2.48983e-11 2.85399e-11
3.11588e-10 4.1356e-10 -3.61434e-11
1.97962e-10 3.02697e-10 -7.41165e-11
-7.16263e-11 1.83493e-10 -6.48227e-11
-9.84169e-11 1.70134e-11 1.64999e-11
-2.11707e-11 4.68808e-11 1.40884e-10
-2.39448e-11 1.32943e-11 -1.7866e-11
-2.23681e-10 9.8043e-14 -8.7383e-11
-1.70421e-10 1.4237e-11 1.0241e-10
6.58848e-11 -3.9218e-10 -7.62448e-11
-1.54143e-10 1.87704e-11 -8.84558e-12
-2.30251e-10 7.27466e-11 2.3323e-11
-1.96565e-10 -1.06243e-10 9.64379e-11
-1.2321e-10 -1.44512e-10 1.53489e-10
-9.1878e-11 5.12058e-11 -2.51881e-11
-1.51741e-10 -2.92004e-10 -9.03814e-11
-2.2e-12 5.21987e-11 -5.7327e-11
-9.14511e-11 8.35965e-11 -7.71665e-12
1.22641e-10 1.00506e-10 -8.32901e-11
1.45364e-11 1.83504e-11 -9.31114e-11
-1.40464e-10 1.5605e-10 -4.74244e-11
1.55618e-11 -1.77753e-10 2.8075e-11
-6.07147e-12 2.08819e-10 2.76546e-12
-6.00004e-12 -1.34447e-11 9.65812e-11
4.45238e-11 -3.90202e-11 3.49946e-11
3.27119e-10 -9.7252e-11 9.96697e-11
1.14978e-10 -1.91898e-10 -1.45402e-10
-1.79086e-10 2.38706e-10 -4.31074e-11
6.15653e-11 -1.53548e-11 2.84024e-12
2.53946e-10 5.03722e-11 -2.10525e-10
-5.17669e-12 -8.55131e-11 1.37922e-10
-5.53987e-11 2.91767e-10 -3.17636e-11
-4.20998e-10 -2.59198e-10 -1.40635e-10
2.54584e-11 -1.3272e-11 -4.48971e-10
3.67484e-11 -1.30276e-10 1.41179e-10
7.2663e-11 -1.18571e-10 1.89269e-10
-1.27901e-10 -3.323e-10 3.15212e-10
-1.58057e-10 -5.47961e-11 1.28365e-11
1.12931e-10 1.03837e-11 3.58928e-10
9.05427e-22 -4.46962e-22 1.17873e-23
0.0 0.0 0.0
-1.76229e-10 3.56428e-11 8.70396e-12
-2.54322e-11 -8.94774e-11 1.36362e-10
-3.62589e-11 1.66039e-11 3.20714e-11
-6.42996e-12 -1.90064e-11 -1.56407e-12
-2.75204e-10 3.88778e-11 -4.1028e-12
-1.49371e-10 2.49875e-10 5.62654e-11
-1.21949e-10 -1.65381e-10 1.91561e-10