# vtk DataFile Version 3.0
LIGGGHTS particles timestep 63600000
ASCII
DATASET POLYDATA
POINTS 269 float
0.383702 0.0180561 0.000221664
0.383842 0.0173118 0.00643376
0.384116 0.0175746 0.000616321
0.383621 0.0164177 0.00765541
0.385042 0.017898 5.31356e-05
0.384405 0.0190593 0.00128333
0.383883 0.0170889 0.00689617
0.383695 0.0197064 5.13707e-05
0.384095 0.017284 0.00141093
0.383873 0.0188963 5.1604e-05
0.378116 0.0174696 0.00730987
0.383601 0.0163344 0.00770695
0.378285 0.0182871 0.00697533
0.378143 0.0183665 0.00695182
0.383759 0.0170016 0.00729456
0.383665 0.0199562 5.13319e-05
0.383591 0.0186217 5.12346e-05
0.384297 0.0169548 0.000464549
0.378238 0.0180328 0.00707996
0.38406 0.0187361 5.18497e-05
0.383579 0.0183141 5.12198e-05
0.377703 0.0164218 0.00775727
0.384165 0.0187755 5.19868e-05
0.383581 0.0162541 0.00776328
0.383721 0.0168344 0.00739773
0.383783 0.0180142 5.14869e-05
0.247451 0.0181454 0.00545794
0.383821 0.0176872 5.15365e-05
0.384811 0.0177235 5.28325e-05
0.383688 0.0180463 5.82369e-05
0.383825 0.0176588 0.000237481
0.384669 0.0171089 5.26472e-05
0.383732 0.0198062 5.1419e-05
0.383661 0.0165844 0.00755234
0.384092 0.0180063 5.18915e-05
0.384277 0.0178655 5.21331e-05
0.384018 0.0172908 5.58952e-05
0.383681 0.0166678 0.0075008
0.383609 0.019181 0.000102293
0.383824 0.0192823 6.29698e-05
0.377091 0.0171017 0.00812357
0.384243 0.0176985 5.20894e-05
0.378191 0.0177389 0.00720159
0.384683 0.0175025 5.26645e-05
0.383654 0.0188144 0.000107909
0.377827 0.0169501 0.00750381
0.383621 0.0196152 0.000275247
0.383629 0.0197044 0.000126349
0.378022 0.019866 0.005332
0.3839 0.0180216 5.16398e-05
0.383641 0.0165011 0.00760388
0.38382 0.018374 5.15343e-05
0.383632 0.0184035 5.12887e-05
0.383269 0.0178073 0.0053438
0.377882 0.0175319 0.00734836
0.378008 0.0177708 0.00716913
0.384069 0.018253 5.18616e-05
0.384024 0.0175322 0.000113034
0.383709 0.0207704 5.1389e-05
0.384524 0.0161893 5.24575e-05
0.378118 0.0182559 0.00698258
0.384008 0.0194856 5.59268e-05
0.385163 0.01737 5.32941e-05
0.383701 0.0167511 0.00744927
0.377757 0.0166947 0.0076439
0.383855 0.0173822 0.00587969
0.37731 0.0155395 0.00884038
0.378166 0.0184791 0.00692065
0.38399 0.0173967 0.00296344
0.378048 0.0179624 0.00709073
0.378136 0.0175604 0.0072728
0.383996 0.0188405 5.17657e-05
0.377985 0.0180892 0.00712985
0.384473 0.0190617 5.239e-05
0.383953 0.0172731 0.00522134
0.384146 0.0176377 5.21472e-05
0.383831 0.0209331 5.15494e-05
0.384416 0.0180682 5.23156e-05
0.377963 0.0171642 0.0074256
0.383971 0.0177207 0.000643093
0.384721 0.0188735 5.2715e-05
0.383786 0.0185377 5.14902e-05
0.38366 0.0185153 5.13254e-05
0.383948 0.0176427 0.00218483
0.377395 0.0157834 0.00853503
0.383836 0.0169401 0.0073102
0.377831 0.017368 0.00732426
0.383792 0.0181863 5.7544e-05
0.37785 0.0174588 0.00728718
0.0643568 0.0187248 0.00531097
0.230779 0.0182774 0.00551293
0.378086 0.018579 0.00689352
0.377416 0.0158455 0.00845966
0.377868 0.0171315 0.00742993
0.377331 0.0156005 0.00876403
0.383656 0.0190952 5.13199e-05
0.383721 0.0192589 5.33031e-05
0.384152 0.0175324 0.000344024
0.383822 0.0172395 0.00682344
0.377882 0.0176257 0.0073139
0.377729 0.0169146 0.00750904
0.377791 0.0171865 0.00739832
0.384329 0.0192224 5.2672e-05
0.383786 0.0189322 0.00135621
0.383548 0.0176887 0.00536951
0.377983 0.0172551 0.0073885
0.383725 0.0179307 5.14106e-05
0.384054 0.0172433 0.00299761
0.385676 0.0164514 5.39659e-05
0.383928 0.0175831 0.00342729
0.378007 0.0182014 0.00699973
0.38386 0.0170168 0.00716242
0.384209 0.0179493 0.000175381
0.377373 0.0157224 0.00861135
0.38374 0.0169179 0.00734615
0.384089 0.0171531 5.18872e-05
0.377908 0.017313 0.00735588
0.377927 0.0174038 0.0073188
0.384998 0.0180722 5.30781e-05
0.383928 0.0178599 0.000134034
0.384148 0.0183692 5.50531e-05
0.383888 0.0195362 5.16234e-05
0.377806 0.0168626 0.00754733
0.383834 0.0196942 5.15529e-05
0.384271 0.0165819 0.000471006
0.383885 0.0174469 0.00527027
0.377815 0.0165312 0.00768291
0.378196 0.0179204 0.00712405
0.377352 0.0156615 0.00868769
0.378022 0.0174367 0.00731437
0.377522 0.0161504 0.00807787
0.377888 0.0172222 0.00739293
0.377836 0.0166218 0.00764604
0.383778 0.0170852 0.00723073
0.377978 0.0179894 0.00715657
0.377889 0.0176405 0.00721291
0.377849 0.0167134 0.00760793
0.365945 0.0178791 0.00696415
0.37793 0.0177075 0.00728198
0.377793 0.0164408 0.00771954
0.0219312 0.0187687 0.00551176
0.377902 0.0168921 0.00753643
0.383756 0.0188141 5.14517e-05
0.377869 0.0175497 0.00725004
0.378199 0.0183161 0.00701758
0.377843 0.0173501 0.00742198
0.377946 0.0179115 0.00710218
0.383561 0.018896 0.00247744
0.377992 0.017788 0.00726635
0.377988 0.0181088 0.00703181
0.377933 0.017864 0.00722925
0.377968 0.0180143 0.00706018
0.383732 0.0186863 5.14192e-05
0.377709 0.0168239 0.00754594
0.384533 0.0172809 5.24689e-05
0.377481 0.0160281 0.00823064
0.377943 0.0170734 0.0074626
0.377805 0.0172638 0.00746021
0.378011 0.0178707 0.00716679
0.378064 0.0179497 0.00719706
0.384102 0.0184964 5.1904e-05
0.37777 0.0170959 0.00743522
0.384492 0.0178365 5.24155e-05
0.378041 0.0175275 0.00727724
0.378 0.0181828 0.00709775
0.384427 0.0171245 5.233e-05
0.383954 0.0176144 7.41222e-05
0.383922 0.017502 0.000117545
0.372032 0.0183205 0.00693888
0.3838 0.0171629 0.00708496
0.37775 0.0170052 0.00747214
0.384008 0.0190136 5.17811e-05
0.378235 0.0184097 0.00693941
0.378068 0.0180531 0.00705374
0.378116 0.0177967 0.00716902
0.371726 0.0169116 0.0075463
0.37816 0.0176503 0.00723665
0.378253 0.0181267 0.0070411
0.377761 0.0163048 0.00786211
0.378161 0.0180885 0.00704812
0.377922 0.0169828 0.00749952
0.38433 0.0165491 0.00121364
0.378261 0.0185133 0.0069107
0.377681 0.0163469 0.00781997
0.377639 0.0162248 0.00797261
0.37821 0.01783 0.00716441
0.377848 0.0170407 0.00746688
0.383909 0.0171536 0.00650579
0.383932 0.0172158 0.00595761
0.3782 0.0182022 0.00700313
0.384637 0.0184227 0.00141742
0.384015 0.0174833 0.00150053
0.371935 0.0178337 0.00699677
0.377458 0.0159664 0.00830599
0.384003 0.0191297 5.17745e-05
0.377811 0.0172772 0.00736131
0.384327 0.0194832 0.00016274
0.377947 0.0174947 0.00728167
0.384753 0.0202044 5.27567e-05
0.377721 0.0165093 0.00770856
0.383975 0.0173258 0.00424798
0.378144 0.0179967 0.00708583
0.371954 0.0179306 0.0069819
0.371901 0.0176499 0.00706418
0.378094 0.0181537 0.00701311
0.377607 0.0163976 0.00777536
0.378066 0.0184845 0.00691968
0.377908 0.0177357 0.00718854
0.383904 0.0175032 0.00447173
0.377565 0.0162713 0.00792433
0.377668 0.0166427 0.00761976
0.377688 0.0167333 0.00758285
0.37162 0.0165089 0.00782306
0.371685 0.0167503 0.00765712
0.371599 0.0164285 0.00787837
0.377782 0.0163692 0.00778843
0.378085 0.0177082 0.00720399
0.371642 0.0165894 0.00776775
0.371822 0.0173164 0.00726894
0.378073 0.0178496 0.00724223
0.371766 0.0170732 0.0074354
0.383321 0.0176592 0.00784852
0.384261 0.0168253 0.000943501
0.371841 0.0173976 0.00721357
0.372013 0.0182231 0.00694963
0.371785 0.0171543 0.00737983
0.378046 0.01839 0.00694585
0.378027 0.0182955 0.00697201
0.377881 0.0168016 0.00757321
0.37808 0.0180372 0.00715165
0.371859 0.0174789 0.00715818
0.377927 0.0178207 0.00713929
0.378155 0.0178982 0.00721253
0.378037 0.017701 0.00729144
0.371746 0.0169925 0.00749081
0.377862 0.017441 0.00738498
0.372052 0.018418 0.00692812
0.377966 0.0175855 0.00724454
0.378002 0.0173459 0.00735143
0.37806 0.0176183 0.00724013
0.383912 0.0186711 5.16555e-05
0.378084 0.018131 0.00711423
0.371915 0.0177384 0.0070198
0.37766 0.0162858 0.00789626
0.371878 0.0175621 0.00710618
0.377957 0.0173369 0.00743992
0.377502 0.0160882 0.00815343
0.378015 0.0176094 0.00732854
0.372127 0.0183522 0.00693282
0.371974 0.0180281 0.00697113
0.377989 0.0176799 0.00720632
0.371664 0.0166698 0.00771243
0.377628 0.0164681 0.00770754
0.377742 0.0165998 0.00767132
0.378315 0.0182008 0.00701562
0.377586 0.0163324 0.00784808
0.378102 0.0178871 0.00712866
0.377437 0.0159054 0.00838233
0.37778 0.0167854 0.0076052
0.378186 0.0185769 0.00689356
0.378151 0.0182014 0.00709067
0.378198 0.0180098 0.00716879
0.377647 0.016552 0.00765666
0.371993 0.0181256 0.00696038
0.377543 0.0162103 0.00800066
0.383567 0.0188162 0.00286963
0.371707 0.0168308 0.00760177
0.371803 0.0172353 0.00732437
0.38402 0.0177909 0.000402715

VERTICES 269 538
1 0
1 1
1 2
1 3
1 4
1 5
1 6
1 7
1 8
1 9
1 10
1 11
1 12
1 13
1 14
1 15
1 16
1 17
1 18
1 19
1 20
1 21
1 22
1 23
1 24
1 25
1 26
1 27
1 28
1 29
1 30
1 31
1 32
1 33
1 34
1 35
1 36
1 37
1 38
1 39
1 40
1 41
1 42
1 43
1 44
1 45
1 46
1 47
1 48
1 49
1 50
1 51
1 52
1 53
1 54
1 55
1 56
1 57
1 58
1 59
1 60
1 61
1 62
1 63
1 64
1 65
1 66
1 67
1 68
1 69
1 70
1 71
1 72
1 73
1 74
1 75
1 76
1 77
1 78
1 79
1 80
1 81
1 82
1 83
1 84
1 85
1 86
1 87
1 88
1 89
1 90
1 91
1 92
1 93
1 94
1 95
1 96
1 97
1 98
1 99
1 100
1 101
1 102
1 103
1 104
1 105
1 106
1 107
1 108
1 109
1 110
1 111
1 112
1 113
1 114
1 115
1 116
1 117
1 118
1 119
1 120
1 121
1 122
1 123
1 124
1 125
1 126
1 127
1 128
1 129
1 130
1 131
1 132
1 133
1 134
1 135
1 136
1 137
1 138
1 139
1 140
1 141
1 142
1 143
1 144
1 145
1 146
1 147
1 148
1 149
1 150
1 151
1 152
1 153
1 154
1 155
1 156
1 157
1 158
1 159
1 160
1 161
1 162
1 163
1 164
1 165
1 166
1 167
1 168
1 169
1 170
1 171
1 172
1 173
1 174
1 175
1 176
1 177
1 178
1 179
1 180
1 181
1 182
1 183
1 184
1 185
1 186
1 187
1 188
1 189
1 190
1 191
1 192
1 193
1 194
1 195
1 196
1 197
1 198
1 199
1 200
1 201
1 202
1 203
1 204
1 205
1 206
1 207
1 208
1 209
1 210
1 211
1 212
1 213
1 214
1 215
1 216
1 217
1 218
1 219
1 220
1 221
1 222
1 223
1 224
1 225
1 226
1 227
1 228
1 229
1 230
1 231
1 232
1 233
1 234
1 235
1 236
1 237
1 238
1 239
1 240
1 241
1 242
1 243
1 244
1 245
1 246
1 247
1 248
1 249
1 250
1 251
1 252
1 253
1 254
1 255
1 256
1 257
1 258
1 259
1 260
1 261
1 262
1 263
1 264
1 265
1 266
1 267
1 268

POINT_DATA 269
SCALARS id int 1
LOOKUP_TABLE default
1
2
4
5
6
7
8
9
10
11
12
13
14
16
17
19
21
22
23
24
26
27
28
29
30
31
32
33
35
36
37
38
39
41
42
44
45
47
48
49
50
51
52
53
54
55
56
57
59
60
61
62
63
64
65
66
67
68
69
70
71
72
73
74
76
77
78
79
80
82
83
84
85
86
87
88
89
90
91
92
93
94
95
96
97
98
99
100
101
102
103
104
105
106
107
108
109
110
111
112
113
114
115
116
117
118
119
120
121
122
123
124
125
127
128
129
130
131
132
133
134
135
136
137
138
140
141
142
143
144
146
147
148
149
150
151
153
154
155
156
157
158
159
160
162
164
165
166
167
168
169
170
171
172
173
174
176
177
178
179
182
183
184
185
186
187
188
189
190
191
192
193
194
195
196
197
198
199
200
201
202
203
204
206
207
208
209
210
211
212
213
214
215
216
217
218
219
220
222
224
225
226
227
228
229
230
232
233
234
235
236
237
239
240
241
242
243
244
246
248
249
250
251
252
253
254
255
256
257
258
259
260
261
262
263
264
265
266
268
269
270
271
272
273
274
275
276
278
279
280
281
283
284
285
286
287
288
289
290
291
292
293
294
295
296
297
298
299
300

SCALARS type int 1
LOOKUP_TABLE default
1
1
1
1
1
1
1
1
1
1
1
1
1
1
1
1
1
1
1
1
1
1
1
1
1
1
1
1
1
1
1
1
1
1
1
1
1
1
1
1
1
1
1
1
1
1
1
1
1
1
1
1
1
1
1
1
1
1
1
1
1
1
1
1
1
1
1
1
1
1
1
1
1
1
1
1
1
1
1
1
1
1
1
1
1
1
1
1
1
1
1
1
1
1
1
1
1
1
1
1
1
1
1
1
1
1
1
1
1
1
1
1
1
1
1
1
1
1
1
1
1
1
1
1
1
1
1
1
1
1
1
1
1
1
1
1
1
1
1
1
1
1
1
1
1
1
1
1
1
1
1
1
1
1
1
1
1
1
1
1
1
1
1
1
1
1
1
1
1
1
1
1
1
1
1
1
1
1
1
1
1
1
1
1
1
1
1
1
1
1
1
1
1
1
1
1
1
1
1
1
1
1
1
1
1
1
1
1
1
1
1
1
1
1
1
1
1
1
1
1
1
1
1
1
1
1
1
1
1
1
1
1
1
1
1
1
1
1
1
1
1
1
1
1
1
1
1
1
1
1
1
1
1
1
1
1
1
1
1
1
1
1
1
1
1
1
1
1
1

SCALARS radius float 1
LOOKUP_TABLE default
5e-05
5e-05
5e-05
5e-05
5e-05
5e-05
5e-05
5e-05
5e-05
5e-05
5e-05
5e-05
5e-05
5e-05
5e-05
5e-05
5e-05
5e-05
5e-05
5e-05
5e-05
5e-05
5e-05
5e-05
5e-05
5e-05
5e-05
5e-05
5e-05
5e-05
5e-05
5e-05
5e-05
5e-05
5e-05
5e-05
5e-05
5e-05
5e-05
5e-05
5e-05
5e-05
5e-05
5e-05
5e-05
5e-05
5e-05
5e-05
5e-05
5e-05
5e-05
5e-05
5e-05
5e-05
5e-05
5e-05
5e-05
5e-05
5e-05
5e-05
5e-05
5e-05
5e-05
5e-05
5e-05
5e-05
5e-05
5e-05
5e-05
5e-05
5e-05
5e-05
5e-05
5e-05
5e-05
5e-05
5e-05
5e-05
5e-05
5e-05
5e-05
5e-05
5e-05
5e-05
5e-05
5e-05
5e-05
5e-05
5e-05
5e-05
5e-05
5e-05
5e-05
5e-05
5e-05
5e-05
5e-05
5e-05
5e-05
5e-05
5e-05
5e-05
5e-05
5e-05
5e-05
5e-05
5e-05
5e-05
5e-05
5e-05
5e-05
5e-05
5e-05
5e-05
5e-05
5e-05
5e-05
5e-05
5e-05
5e-05
5e-05
5e-05
5e-05
5e-05
5e-05
5e-05
5e-05
5e-05
5e-05
5e-05
5e-05
5e-05
5e-05
5e-05
5e-05
5e-05
5e-05
5e-05
5e-05
5e-05
5e-05
5e-05
5e-05
5e-05
5e-05
5e-05
5e-05
5e-05
5e-05
5e-05
5e-05
5e-05
5e-05
5e-05
5e-05
5e-05
5e-05
5e-05
5e-05
5e-05
5e-05
5e-05
5e-05
5e-05
5e-05
5e-05
5e-05
5e-05
5e-05
5e-05
5e-05
5e-05
5e-05
5e-05
5e-05
5e-05
5e-05
5e-05
5e-05
5e-05
5e-05
5e-05
5e-05
5e-05
5e-05
5e-05
5e-05
5e-05
5e-05
5e-05
5e-05
5e-05
5e-05
5e-05
5e-05
5e-05
5e-05
5e-05
5e-05
5e-05
5e-05
5e-05
5e-05
5e-05
5e-05
5e-05
5e-05
5e-05
5e-05
5e-05
5e-05
5e-05
5e-05
5e-05
5e-05
5e-05
5e-05
5e-05
5e-05
5e-05
5e-05
5e-05
5e-05
5e-05
5e-05
5e-05
5e-05
5e-05
5e-05
5e-05
5e-05
5e-05
5e-05
5e-05
5e-05
5e-05
5e-05
5e-05
5e-05
5e-05
5e-05
5e-05
5e-05
5e-05
5e-05
5e-05
5e-05
5e-05
5e-05
5e-05
5e-05
5e-05
5e-05
5e-05
5e-05
5e-05
5e-05
5e-05
5e-05
5e-05
5e-05
5e-05
5e-05
5e-05
5e-05
5e-05
5e-05
5e-05
5e-05

SCALARS mass float 1
LOOKUP_TABLE default
1.46608e-10
1.46608e-10
1.46608e-10
1.46608e-10
1.46608e-10
1.46608e-10
1.46608e-10
1.46608e-10
1.46608e-10
1.46608e-10
1.46608e-10
1.46608e-10
1.46608e-10
1.46608e-10
1.46608e-10
1.46608e-10
1.46608e-10
1.46608e-10
1.46608e-10
1.46608e-10
1.46608e-10
1.46608e-10
1.46608e-10
1.46608e-10
1.46608e-10
1.46608e-10
1.46608e-10
1.46608e-10
1.46608e-10
1.46608e-10
1.46608e-10
1.46608e-10
1.46608e-10
1.46608e-10
1.46608e-10
1.46608e-10
1.46608e-10
1.46608e-10
1.46608e-10
1.46608e-10
1.46608e-10
1.46608e-10
1.46608e-10
1.46608e-10
1.46608e-10
1.46608e-10
1.46608e-10
1.46608e-10
1.46608e-10
1.46608e-10
1.46608e-10
1.46608e-10
1.46608e-10
1.46608e-10
1.46608e-10
1.46608e-10
1.46608e-10
1.46608e-10
1.46608e-10
1.46608e-10
1.46608e-10
1.46608e-10
1.46608e-10
1.46608e-10
1.46608e-10
1.46608e-10
1.46608e-10
1.46608e-10
1.46608e-10
1.46608e-10
1.46608e-10
1.46608e-10
1.46608e-10
1.46608e-10
1.46608e-10
1.46608e-10
1.46608e-10
1.46608e-10
1.46608e-10
1.46608e-10
1.46608e-10
1.46608e-10
1.46608e-10
1.46608e-10
1.46608e-10
1.46608e-10
1.46608e-10
1.46608e-10
1.46608e-10
1.46608e-10
1.46608e-10
1.46608e-10
1.46608e-10
1.46608e-10
1.46608e-10
1.46608e-10
1.46608e-10
1.46608e-10
1.46608e-10
1.46608e-10
1.46608e-10
1.46608e-10
1.46608e-10
1.46608e-10
1.46608e-10
1.46608e-10
1.46608e-10
1.46608e-10
1.46608e-10
1.46608e-10
1.46608e-10
1.46608e-10
1.46608e-10
1.46608e-10
1.46608e-10
1.46608e-10
1.46608e-10
1.46608e-10
1.46608e-10
1.46608e-10
1.46608e-10
1.46608e-10
1.46608e-10
1.46608e-10
1.46608e-10
1.46608e-10
1.46608e-10
1.46608e-10
1.46608e-10
1.46608e-10
1.46608e-10
1.46608e-10
1.46608e-10
1.46608e-10
1.46608e-10
1.46608e-10
1.46608e-10
1.46608e-10
1.46608e-10
1.46608e-10
1.46608e-10
1.46608e-10
1.46608e-10
1.46608e-10
1.46608e-10
1.46608e-10
1.46608e-10
1.46608e-10
1.46608e-10
1.46608e-10
1.46608e-10
1.46608e-10
1.46608e-10
1.46608e-10
1.46608e-10
1.46608e-10
1.46608e-10
1.46608e-10
1.46608e-10
1.46608e-10
1.46608e-10
1.46608e-10
1.46608e-10
1.46608e-10
1.46608e-10
1.46608e-10
1.46608e-10
1.46608e-10
1.46608e-10
1.46608e-10
1.46608e-10
1.46608e-10
1.46608e-10
1.46608e-10
1.46608e-10
1.46608e-10
1.46608e-10
1.46608e-10
1.46608e-10
1.46608e-10
1.46608e-10
1.46608e-10
1.46608e-10
1.46608e-10
1.46608e-10
1.46608e-10
1.46608e-10
1.46608e-10
1.46608e-10
1.46608e-10
1.46608e-10
1.46608e-10
1.46608e-10
1.46608e-10
1.46608e-10
1.46608e-10
1.46608e-10
1.46608e-10
1.46608e-10
1.46608e-10
1.46608e-10
1.46608e-10
1.46608e-10
1.46608e-10
1.46608e-10
1.46608e-10
1.46608e-10
1.46608e-10
1.46608e-10
1.46608e-10
1.46608e-10
1.46608e-10
1.46608e-10
1.46608e-10
1.46608e-10
1.46608e-10
1.46608e-10
1.46608e-10
1.46608e-10
1.46608e-10
1.46608e-10
1.46608e-10
1.46608e-10
1.46608e-10
1.46608e-10
1.46608e-10
1.46608e-10
1.46608e-10
1.46608e-10
1.46608e-10
1.46608e-10
1.46608e-10
1.46608e-10
1.46608e-10
1.46608e-10
1.46608e-10
1.46608e-10
1.46608e-10
1.46608e-10
1.46608e-10
1.46608e-10
1.46608e-10
1.46608e-10
1.46608e-10
1.46608e-10
1.46608e-10
1.46608e-10
1.46608e-10
1.46608e-10
1.46608e-10
1.46608e-10
1.46608e-10
1.46608e-10
1.46608e-10
1.46608e-10
1.46608e-10
1.46608e-10
1.46608e-10
1.46608e-10
1.46608e-10
1.46608e-10
1.46608e-10
1.46608e-10
1.46608e-10
1.46608e-10
1.46608e-10
1.46608e-10
1.46608e-10
1.46608e-10

VECTORS velocity float
-0.0015195 -0.00675578 -0.171999
0.0100412 0.0128516 -0.12294
0.00420353 0.0083858 -0.019175
0.00989256 0.0172429 -0.0112633
1.79761e-18 -9.31785e-24 -1.37249e-15
-0.00772892 -0.0146021 -0.0531468
0.010644 0.013274 -0.0897465
3.5134e-11 -2.88525e-10 -3.2871e-12
0.00984601 0.00568103 -0.33813
2.81059e-18 -1.19898e-21 -2.14593e-15
0.0054755 0.000105827 0.000517096
0.00986047 0.017237 -0.0112562
0.0058548 0.000502537 0.000379414
0.00566978 9.25184e-05 -1.39709e-05
0.00959913 0.0173447 -0.0112931
2.81058e-18 -1.3729e-23 -2.14593e-15
2.81056e-18 1.65096e-20 -2.14593e-15
0.0597641 -0.102759 -0.109403
0.00567163 5.63853e-05 0.000553514
2.81058e-18 -6.71581e-21 -2.14593e-15
8.91457e-15 3.2601e-15 2.79062e-16
0.00614775 -0.00022349 0.00034435
-3.50165e-19 -2.73853e-21 2.67381e-16
0.00970503 0.0153729 -0.0133586
0.0100288 0.0171645 -0.0112309
-0.00120861 0.00117217 -1.58293e-06
3.75987e-15 -5.32174e-14 -2.74083e-13
2.24035e-18 1.19736e-22 -1.71052e-15
1.79763e-18 -7.19235e-21 -1.37251e-15
0.000768017 0.000430709 -0.00155198
0.0245476 0.0466368 -0.0534435
-4.83281e-15 2.26388e-15 -1.71684e-15
-3.50222e-19 1.75785e-21 2.67381e-16
0.00995477 0.0172434 -0.01127
-5.90058e-15 -7.20563e-16 -1.38025e-15
1.79759e-18 -1.81794e-22 -1.37251e-15
0.000729096 -0.00018481 -0.00369332
0.00998474 0.0172394 -0.0112708
-0.0743414 -0.0454476 -0.0556469
0.0345092 0.0132437 0.0113786
0.018564 0.0176024 -0.00944115
-9.20572e-19 1.37774e-20 7.02844e-16
0.00559046 8.11818e-05 0.000537823
-9.20568e-19 -1.25068e-21 7.02843e-16
0.00717397 -0.00226737 -0.0355895
0.00570452 4.83469e-05 0.000564542
0.00106565 0.00349031 -0.0319645
-1.50841e-11 -6.50879e-10 -6.37736e-11
-5.01994e-15 -7.41208e-15 7.69802e-14
0.000725158 0.0127122 9.50161e-07
0.00992272 0.0172422 -0.011266
1.79429e-18 3.32312e-22 -1.37249e-15
2.8106e-18 2.44478e-23 -2.14593e-15
-1.46578e-15 -3.32071e-15 -2.09205e-14
0.00543995 0.000108033 0.000552578
0.00551126 8.62817e-05 0.000532799
1.79756e-18 1.74712e-21 -1.37249e-15
-0.00393938 -0.00257694 0.184145
2.00504e-18 4.27371e-22 -1.5309e-15
2.24033e-18 -1.14562e-21 -1.71051e-15
0.00570402 -1.79032e-05 -5.37412e-05
0.0036034 0.00585203 0.00255579
2.18477e-06 3.2663e-07 2.86144e-09
0.0100156 0.0172397 -0.0112741
0.00573503 -0.000155036 0.000327704
0.00907896 0.0119463 -0.159989
0.00575652 -0.000436783 -0.000101825
0.00560885 5.5065e-05 -4.30825e-05
0.00927523 0.00738312 -0.287902
0.00558987 0.0001207 0.000529027
0.0055468 8.99677e-05 0.000530973
-3.50179e-19 2.91149e-22 2.6738e-16
0.00564196 0.000263532 0.000495175
-4.73189e-13 -3.8497e-13 -3.52381e-16
0.0101113 0.00912374 -0.199007
0.00606525 0.00264782 0.00345359
2.00503e-18 3.39169e-21 -1.5309e-15
3.79621e-15 1.39873e-15 -1.36755e-15
0.00562198 0.000154234 0.000511487
0.00883281 0.00696091 -0.355439
1.79764e-18 -2.27371e-20 -1.37251e-15
2.8106e-18 -5.3776e-21 -2.14593e-15
-3.50184e-19 -7.23118e-22 2.67381e-16
0.00894468 0.00745142 -0.310603
0.00583401 -0.000464756 -7.59144e-05
0.0113242 0.0155976 -0.0256226
0.00554287 9.40821e-05 0.000538214
-0.0020664 0.00144119 -0.0166708
0.00541465 0.000115349 0.000508474
4.36775e-15 1.04444e-14 8.29616e-14
-5.38494e-15 6.59945e-15 4.46839e-14
0.0056035 -9.48268e-05 -4.97805e-06
0.00586869 -0.000484659 -5.43116e-05
0.00570227 9.01579e-05 0.000546586
0.00578345 -0.000441643 -9.7434e-05
2.81055e-18 -4.04761e-22 -2.14593e-15
0.0276958 0.0176519 0.00339281
-0.020253 0.0014629 -0.0887829
0.0105551 0.0138621 -0.0886993
0.0054819 7.17013e-05 0.000416846
0.00570286 8.00832e-05 0.000549025
0.00571199 6.5109e-05 0.0005574
-0.000240822 9.17424e-05 -0.00568936
0.00170965 -0.015019 0.042732
5.30521e-18 -1.80378e-14 -5.94669e-14
0.00558129 0.000149575 0.000508942
-1.78284e-09 -5.06237e-10 -2.3238e-12
0.00950694 0.00700022 -0.289429
1.45282e-18 1.11353e-20 -1.10923e-15
0.00915149 0.00858151 -0.269212
0.00562131 4.11598e-05 0.000262314
0.011057 0.01453 -0.0565039
0.00765124 0.0113116 -0.0309245
0.00583482 -0.000453295 -9.00212e-05
0.00911612 0.0174216 -0.0112884
2.24031e-18 -3.67948e-20 -1.71052e-15
0.00553913 0.000104572 0.000526144
0.00541118 0.000100211 0.000515173
-0.00362659 -0.000751742 -4.74983e-06
-0.000237315 0.000319031 0.0112726
-0.000465414 0.00029797 -0.00199576
7.50458e-06 -8.87911e-06 9.82888e-09
0.00568073 1.6272e-05 0.000515268
-3.50221e-19 -9.69869e-23 2.67381e-16
-0.0103577 0.0154976 0.130558
0.00951392 0.0106815 -0.192393
0.00605573 8.44176e-05 0.000587489
0.00562328 6.80882e-05 0.000542725
0.00581254 -0.000446083 -9.58695e-05
0.00546522 0.000146723 0.000497141
0.00602733 -0.000512945 -3.87136e-05
0.00558213 0.000106306 0.000528376
0.00587554 0.000110156 0.000556035
0.0101199 0.0167361 -0.0259831
0.0055293 0.000144014 0.000493726
0.00544268 8.7324e-05 0.000521262
0.00577774 0.000113444 0.000546624
0.00570136 -0.000133916 4.24548e-05
0.0055145 0.000105826 0.00053016
0.00621975 5.67373e-05 0.000620658
-3.8361e-14 8.16447e-14 2.9589e-13
0.00576994 0.000113279 0.000545788
2.81055e-18 8.23996e-21 -2.14593e-15
0.00543197 0.000114572 0.000510212
0.00589719 0.000744771 0.000289495
0.00557396 8.45273e-05 0.000553683
0.00555808 0.000106725 0.000533352
-0.00673405 0.0390431 -0.237801
0.00551727 0.000120042 0.00052819
0.00561243 0.000130494 0.000470408
0.00561965 2.31658e-05 0.000564325
0.00558539 0.000143816 0.000508839
-3.50184e-19 -8.27229e-22 2.67381e-16
0.00568156 8.28966e-05 0.00053774
2.24035e-18 -1.48218e-20 -1.71052e-15
0.00594865 -0.000514608 -2.93585e-05
0.00570505 0.000113396 0.00053748
0.00561873 0.000104217 0.00053738
0.00558165 8.97996e-05 0.000514802
0.00562105 8.00192e-05 0.000526389
-1.2012e-10 1.31441e-09 -1.60686e-13
0.00571673 6.76175e-05 0.000557678
1.79749e-18 -8.91623e-22 -1.37249e-15
0.00547749 0.000138079 0.000504007
0.00569379 0.000226989 0.000341455
2.24035e-18 -3.93647e-21 -1.71052e-15
0.000940487 -0.00223044 0.0112297
0.00519171 -0.00102859 -0.0389251
0.00573822 0.000454001 -0.000213913
0.0110282 0.0146541 -0.0557684
0.0057085 7.71243e-05 0.000555474
-3.50221e-19 -9.42551e-23 2.67381e-16
0.00564839 8.30668e-05 -5.33745e-05
0.00562464 0.000115473 0.000529836
0.00557991 8.20366e-05 0.000532619
0.00590684 0.000205275 -0.000448016
0.00557567 8.24699e-05 0.000537751
0.00562367 0.000103268 0.000526278
0.00600202 -0.000543201 -3.69821e-06
0.00565392 5.17206e-05 0.000557168
0.00575076 0.000110167 0.00054266
-0.00876002 0.0154215 -0.00800175
0.00595916 0.00110739 -0.000336877
0.00606014 -0.000546463 -6.72468e-05
0.00604197 -0.000517493 -3.46895e-05
0.00559563 5.44005e-05 0.000548685
0.00571725 5.69993e-05 0.000561799
0.0107104 0.0117122 -0.123691
0.010424 0.0104246 -0.16007
0.00579287 0.000253051 0.000494539
-0.0179705 -0.00707577 -0.0143157
0.0091736 0.00732084 -0.333116
0.00575138 0.000494433 6.70925e-05
0.00592639 -0.000511453 -3.01427e-05
-3.50211e-19 -1.38026e-22 2.67382e-16
0.0056062 8.15665e-05 0.000541114
0.0750643 0.0365564 -0.00572139
0.00542506 0.000107149 0.000517396
8.71379e-19 3.2881e-21 -6.65296e-16
0.00593172 -0.000343692 -0.000225148
0.00980804 0.00783891 -0.24126
0.00562824 8.29466e-05 0.000532125
0.00577869 0.000455946 -0.000165894
0.00578642 0.000317679 -0.000269512
0.00565016 8.33845e-05 0.000568316
0.00612381 -0.00044789 -1.1983e-05
0.00557319 -0.000228346 3.1288e-05
0.00548396 9.63595e-05 0.000527039
0.00925296 0.00906918 -0.228764
0.00607478 -0.000501806 -5.39257e-05
0.00568871 9.57136e-05 0.000546375
0.00568426 8.67402e-05 0.000544534
0.00613393 0.000149096 -0.000422114
0.0061011 0.000164098 -0.000430514
0.00614526 0.000144937 -0.000419886
0.00613292 -0.000315098 0.000221515
0.00544881 0.000123596 0.000503753
0.0061221 0.000153685 -0.000424545
0.00551689 0.000283438 -0.000452782
0.00559859 0.000103064 0.000515703
0.00571258 0.000240134 -0.000461512
-1.95719e-08 -0.0225757 0.00858921
-0.0124228 0.0136044 0.104269
0.00557059 0.000273621 -0.000448421
0.00574875 0.000454408 -0.000214823
0.0056263 0.000253882 -0.000465339
0.00560859 -0.000108996 -6.31204e-06
0.00564229 -5.08436e-05 1.30072e-05
0.0057648 0.0001167 0.00054366
0.00568443 8.24771e-05 0.000535956
0.00563645 0.000261453 -0.00044451
0.00552407 9.74967e-05 0.000527427
0.00562119 7.81539e-05 0.000541113
0.00547263 0.000185627 0.000518275
0.00580631 0.000223758 -0.000455205
0.0055131 9.94895e-05 0.000568827
0.00572862 0.000456443 -0.000214184
0.00546442 0.000104234 0.000520189
0.0055109 0.000148511 0.000500333
0.00549697 0.000126227 0.000509031
2.81057e-18 -1.43092e-21 -2.14593e-15
0.0057083 0.000205788 0.000367798
0.00574997 0.000492945 6.72729e-05
0.0060882 -0.000527228 -3.20745e-05
0.00573205 0.000271614 -0.00039452
0.00554447 0.000160399 0.000511335
0.00598049 -0.000513135 -3.29142e-05
0.00548774 0.000144519 0.000503209
0.00573463 0.000460827 -0.00021476
0.0057787 0.00045333 -0.000210319
0.00549444 0.000114015 0.000515478
0.0061095 0.000159021 -0.000427462
0.00584723 -0.000110699 0.000254216
0.00583111 -0.000170318 0.000128652
0.0053321 0.000339424 0.000399625
0.00611278 -0.000501309 -5.33835e-05
0.00559115 9.02614e-05 0.000533804
0.00589732 -0.000501958 -3.7926e-05
0.00564974 -2.71938e-05 0.00045657
0.00558471 0.000648564 -0.000208481
0.0055818 0.000336715 0.000371006
0.00565583 7.82651e-05 0.000545944
0.00567951 0.000101414 0.000536634
0.00576495 0.000454136 -0.00021624
0.00604368 -0.000506388 -4.81341e-05
-0.00375886 0.00994278 -0.214635
0.00600041 0.000186683 -0.000440413
0.00553965 0.000274508 -0.000460487
0.0375237 0.0642422 0.0574184

VECTORS force float
0.0 0.0 -1.43822e-09
0.0 0.0 -1.43822e-09
0.0 0.0 -1.43822e-09
1.62587e-11 4.22106e-11 -2.55406e-11
0.0 -2.46067e-27 0.0
0.0 0.0 -1.43822e-09
0.0 0.0 -1.43822e-09
4.34078e-16 -3.29737e-15 -8.60434e-17
0.0 0.0 -1.43822e-09
0.0 -1.57945e-25 0.0
6.85821e-11 -1.92893e-10 8.53157e-11
3.45886e-12 5.17704e-11 -2.98144e-11
-4.73681e-11 -5.55485e-11 7.70837e-11
6.57291e-10 -3.80554e-10 1.11086e-10
-7.54473e-12 5.75259e-11 -3.36035e-11
-4.03897e-28 2.66262e-26 0.0
0.0 1.9431e-25 0.0
0.0 0.0 -1.43822e-09
-1.95832e-10 2.41883e-10 -1.57463e-10
0.0 -4.45313e-26 0.0
2.20638e-18 6.01787e-19 2.88976e-21
2.06063e-10 1.68192e-10 -9.88825e-11
0.0 2.52437e-26 0.0
-2.21931e-10 3.47762e-10 -2.47178e-10
1.28158e-11 4.0675e-11 -2.54728e-11
5.14323e-10 -5.00649e-10 6.73617e-13
1.14412e-21 6.07461e-23 -6.20385e-25
0.0 1.70762e-26 0.0
4.03897e-28 -3.0626e-25 0.0
0.0 0.0 -1.43822e-09
0.0 0.0 -1.43822e-09
1.55512e-19 -7.72719e-20 2.03693e-22
0.0 -7.92765e-27 0.0
1.81999e-11 3.9281e-11 -2.53125e-11
-3.23426e-20 -3.84123e-21 -4.21862e-23
0.0 2.73529e-25 0.0
0.0 0.0 -1.43822e-09
1.26245e-11 4.24128e-11 -2.651e-11
0.0 0.0 -1.43822e-09
0.0 0.0 -1.43822e-09
-2.86411e-10 1.2522e-10 -1.34915e-10
0.0 -3.62502e-26 0.0
-9.80004e-12 1.47996e-10 -4.96209e-11
4.03897e-28 -1.14651e-25 0.0
0.0 0.0 -1.43822e-09
-1.98671e-10 3.29687e-11 1.90076e-11
4.02652e-11 -4.02121e-12 -1.41668e-09
-7.07599e-16 -5.55957e-15 -3.84852e-16
3.3992e-24 -3.10193e-24 -2.06795e-25
-4.2839e-11 -7.17943e-10 -5.61301e-14
1.66346e-11 4.11296e-11 -2.66108e-11
1.7408e-25 6.978e-27 0.0
0.0 1.6993e-28 0.0
-2.23985e-23 -3.07608e-24 2.06795e-24
-1.26564e-10 6.93931e-11 3.13986e-10
-1.94047e-10 -1.6286e-10 8.42934e-11
0.0 4.52466e-26 0.0
0.0 0.0 -1.43822e-09
0.0 1.84078e-27 0.0
4.03897e-28 6.87453e-27 0.0
1.26636e-10 -6.14152e-11 -5.29225e-11
0.0 0.0 -1.43822e-09
-8.1106e-11 -1.22331e-11 -1.06227e-13
1.24358e-11 4.18142e-11 -2.6143e-11
-2.69102e-10 -3.5122e-11 1.19737e-10
0.0 0.0 -1.43822e-09
1.58272e-10 2.16191e-10 -3.02028e-10
-1.35034e-10 -8.31105e-11 3.42951e-11
0.0 0.0 -1.43822e-09
9.33207e-11 1.02943e-10 -3.72615e-13
2.83053e-10 -1.12881e-10 9.57046e-11
0.0 -5.90398e-26 0.0
1.30796e-10 6.2075e-11 -5.08293e-10
1.18695e-18 8.77276e-19 1.55469e-21
0.0 0.0 -1.43822e-09
0.0 0.0 -1.43822e-09
0.0 -1.91464e-26 0.0
5.61716e-19 2.16011e-19 7.3557e-22
-1.46516e-10 1.90656e-10 -9.47498e-11
0.0 0.0 -1.43822e-09
0.0 -2.52738e-25 0.0
0.0 7.73495e-26 0.0
0.0 -7.88336e-27 0.0
0.0 0.0 -1.43822e-09
4.32033e-11 -1.39813e-10 1.70072e-10
0.0 0.0 -1.43822e-09
-3.04985e-11 -1.87696e-11 2.82212e-11
0.0 0.0 -1.43822e-09
-6.17232e-11 -5.0411e-11 1.33065e-11
2.96867e-22 -8.72546e-22 8.6854e-23
-7.03129e-22 -6.23642e-22 2.06795e-24
-1.3038e-10 -4.22766e-10 1.12669e-10
4.75903e-11 -2.23052e-10 2.8431e-10
2.33376e-11 2.008e-12 -3.87622e-12
1.96303e-10 1.63251e-10 -2.41535e-10
0.0 3.14062e-26 0.0
0.0 0.0 -1.43822e-09
0.0 0.0 -1.43822e-09
0.0 0.0 -1.43822e-09
1.39501e-10 6.4102e-11 3.68565e-11
-7.10496e-11 -2.00513e-11 -1.46795e-10
-7.84751e-11 -1.27335e-10 7.71431e-11
0.0 0.0 -1.43822e-09
0.0 0.0 -1.43822e-09
9.53361e-23 -5.16988e-26 0.0
-3.07023e-10 -7.68053e-11 -1.99845e-11
-2.0662e-14 -5.82279e-15 -2.72702e-17
0.0 0.0 -1.43822e-09
-4.03897e-28 -2.21889e-25 0.0
0.0 0.0 -1.43822e-09
8.04482e-11 -3.1295e-11 -8.29057e-10
0.0 0.0 -1.43822e-09
0.0 0.0 -1.43822e-09
2.69672e-11 -2.55141e-12 3.08694e-12
-1.37752e-10 1.52893e-10 -7.63749e-11
0.0 2.25738e-25 0.0
-2.36374e-10 -9.30535e-11 -1.0859e-11
1.84605e-10 2.672e-10 -4.01064e-11
7.02257e-10 1.4596e-10 9.19764e-13
0.0 0.0 -1.43822e-09
0.0 0.0 -1.43822e-09
-6.82328e-11 8.14945e-11 -8.93656e-14
-1.81156e-10 8.26796e-11 2.09837e-12
0.0 -2.48152e-27 0.0
0.0 0.0 -1.43822e-09
0.0 0.0 -1.43822e-09
2.75421e-10 -4.92882e-11 5.48836e-11
-4.64978e-10 2.81392e-11 -9.9027e-11
-2.07142e-10 1.20731e-10 -1.22064e-10
-1.41355e-10 -6.29825e-11 1.86635e-12
-4.44312e-11 -1.58734e-10 1.74056e-10
-2.08095e-10 -4.17536e-11 -1.3327e-11
-8.56276e-11 7.23226e-12 1.59722e-12
5.87725e-11 -3.72185e-11 -1.41412e-09
2.55587e-10 2.7326e-11 1.93462e-10
6.7357e-11 1.56948e-10 -6.17096e-11
-2.75047e-10 2.92839e-11 -2.95517e-11
-1.83576e-11 -7.87762e-11 2.39488e-11
8.89721e-11 5.96664e-11 1.15136e-10
1.97757e-10 -6.42023e-11 -3.49511e-11
1.28756e-22 2.7571e-22 -6.01774e-23
7.61668e-11 1.35292e-10 -5.1171e-11
0.0 7.05811e-26 0.0