# vtk DataFile Version 3.0
LIGGGHTS particles timestep 56400000
ASCII
DATASET POLYDATA
POINTS 275 float
0.34203 0.0179747 0.00721501
0.341703 0.0167027 0.00750423
0.341816 0.0166837 0.0075831
0.34139 0.0158875 0.0087898
0.347781 0.0170891 0.00744654
0.341996 0.0172294 0.00731539
0.341744 0.0164657 0.00781014
0.347979 0.0180045 0.00710013
0.341838 0.0164752 0.00776646
0.342097 0.0177109 0.00723384
0.336172 0.0176792 0.00728324
0.341369 0.0158365 0.00887313
0.336276 0.0184457 0.00704055
0.336374 0.0185791 0.00689069
0.341621 0.0164432 0.00788262
0.342015 0.0181647 0.00719788
0.342034 0.0174197 0.007269
0.341847 0.0165294 0.00768218
0.336314 0.0183094 0.00701108
0.347899 0.0176336 0.0072263
0.341496 0.0161427 0.00837314
0.347938 0.0178192 0.00716317
0.335841 0.0169917 0.00757925
0.341823 0.016819 0.00755703
0.341348 0.0157855 0.00895647
0.341583 0.0163465 0.00803997
0.342087 0.0172539 0.00727976
0.341519 0.0161934 0.00828993
0.347801 0.017177 0.00740293
0.341475 0.0160917 0.00845647
0.341951 0.0170391 0.00736479
0.348041 0.0182824 0.00700556
0.341815 0.0165864 0.00760634
0.341899 0.0168852 0.00748928
0.347918 0.0177265 0.00719473
0.341433 0.0159896 0.00862313
0.341966 0.0167303 0.0075304
0.342032 0.0169839 0.00740655
0.34782 0.0172649 0.00735931
0.341454 0.0160406 0.0085398
0.341899 0.0176434 0.00726113
0.348 0.0180972 0.00706861
0.341541 0.0162442 0.0082067
0.342108 0.0173522 0.00726783
0.336233 0.0179495 0.00716772
0.347859 0.017448 0.00728944
0.34223 0.0179615 0.00719535
0.336037 0.0174705 0.00737352
0.342213 0.0181516 0.00717849
0.34784 0.0173552 0.00732102
0.378022 0.019866 0.005332
0.34205 0.0170721 0.0073626
0.341411 0.0159386 0.00870647
0.341923 0.016982 0.00744216
0.342092 0.0178979 0.00730237
0.347879 0.0175408 0.00725787
0.335962 0.0175319 0.00734831
0.336144 0.0183392 0.00699426
0.342054 0.017517 0.00725736
0.341838 0.0169124 0.00741434
0.342149 0.0175465 0.0072445
0.347959 0.0179119 0.00713165
0.336272 0.0188948 0.00684986
0.342111 0.0178119 0.00722247
0.34191 0.0166541 0.00756193
0.34156 0.0162958 0.00812318
0.335976 0.0172004 0.00748899
0.341723 0.0167906 0.00746087
0.335424 0.0157365 0.00843842
0.336343 0.0188254 0.00683792
0.341797 0.0167369 0.00750071
0.336238 0.0183687 0.00698287
0.336192 0.0177693 0.00724474
0.34802 0.0181898 0.00703708
0.336151 0.0187671 0.00683743
0.341985 0.0169032 0.0074419
0.341732 0.0166315 0.00756783
0.341894 0.0171872 0.00730636
0.342171 0.0176435 0.00723274
0.342075 0.0176139 0.0072456
0.336152 0.0175891 0.00732174
0.34182 0.0172545 0.00731076
0.341828 0.0170046 0.00746636
0.342118 0.0179276 0.00721042
0.341965 0.0176434 0.00733588
0.341801 0.0171579 0.00732805
0.335501 0.0158964 0.00808003
0.341729 0.0163596 0.00797422
0.335988 0.0180414 0.00712543
0.342014 0.0173229 0.00728483
0.336008 0.0181309 0.00708551
0.0643568 0.0187248 0.00531097
0.24257 0.0191927 0.00520306
0.33642 0.0187631 0.00682701
0.335637 0.0160912 0.00796416
0.336003 0.0177124 0.00727208
0.335444 0.0157764 0.00834908
0.342189 0.0177488 0.00722057
0.342287 0.0180836 0.00717751
0.341727 0.0168492 0.00756943
0.341686 0.0166684 0.00764862
0.335944 0.0176848 0.00737802
0.335887 0.0175938 0.00732404
0.335948 0.0178625 0.00720527
0.341997 0.0168162 0.00748975
0.341976 0.0175799 0.0072593
0.341973 0.017127 0.00732175
0.336077 0.0176506 0.00729653
0.342195 0.0178643 0.00720857
0.341825 0.0164221 0.00785024
0.341992 0.0180208 0.0072979
0.341781 0.0170665 0.00736367
0.336193 0.0189564 0.00686066
0.341717 0.0164163 0.00789279
0.341873 0.0170887 0.00732648
0.335485 0.0158562 0.00817026
0.341634 0.0163902 0.00796645
0.34197 0.0177897 0.00732108
0.336043 0.017892 0.00719387
0.336063 0.0179814 0.00715395
0.341892 0.016748 0.00759524
0.341998 0.017677 0.00724751
0.341956 0.0174826 0.00727093
0.342128 0.0174495 0.00725621
0.336017 0.0173804 0.00741201
0.342188 0.0179327 0.00728129
0.341859 0.0174489 0.00728438
0.341742 0.0168784 0.00741746
0.335855 0.0166595 0.00772018
0.336273 0.0181296 0.00709072
0.335465 0.0158163 0.00825969
0.336118 0.0178309 0.00721992
0.335521 0.0159779 0.00802587
0.336023 0.0178024 0.00723342
0.335875 0.0167497 0.00768163
0.341641 0.0165068 0.00780819
0.336131 0.0186739 0.00686698
0.336049 0.0183097 0.00700566
0.335896 0.0168399 0.00764306
0.335616 0.016001 0.00800273
0.336006 0.0179602 0.00725733
0.335834 0.0165695 0.00775866
0.0219312 0.0187687 0.00551176
0.335936 0.0170202 0.00756599
0.341935 0.0168334 0.00756659
0.336029 0.0182203 0.00704559
0.336241 0.0186814 0.00693153
0.335603 0.0163329 0.00786192
0.336184 0.0185181 0.0069144
0.341879 0.0175462 0.00727276
0.336089 0.0184886 0.00692582
0.336223 0.0186972 0.00683444
0.336109 0.0185781 0.0068859
0.336205 0.0186074 0.00687458
0.342115 0.0181653 0.00718744
0.335867 0.0175036 0.00736224
0.342037 0.0182616 0.00718612
0.335644 0.0165129 0.00778498
0.335942 0.0174419 0.0073868
0.335541 0.0160631 0.00797764
0.336075 0.0183055 0.00710193
0.33607 0.0183985 0.00706573
0.341994 0.0180678 0.00720964
0.335928 0.0177731 0.00724519
0.342034 0.0178752 0.00722433
0.336138 0.0179211 0.00718174
0.336173 0.0188589 0.00687052
0.34202 0.0177739 0.00723575
0.341856 0.0170005 0.0073705
0.341963 0.0179281 0.00727363
0.33003 0.0182202 0.00696805
0.341657 0.0165456 0.00771739
0.335908 0.0176835 0.00728489
0.342192 0.0180537 0.00719032
0.336317 0.0187294 0.00682322
0.336259 0.0184583 0.00694287
0.336198 0.0181898 0.00706271
0.329719 0.0168829 0.00774568
0.336212 0.0178594 0.00720623
0.336335 0.0183995 0.00697087
0.335594 0.0159127 0.00804684
0.33628 0.0185476 0.00690304
0.335956 0.0171103 0.00752748
0.341936 0.0173853 0.00728255
0.336356 0.0184889 0.00693099
0.33578 0.0167212 0.00769485
0.335821 0.0169015 0.0076178
0.335698 0.0163613 0.00784873
0.336253 0.0180395 0.00712922
0.336057 0.0175605 0.00733503
0.341757 0.0165192 0.00772668
0.341725 0.0165763 0.00765091
0.336299 0.0186388 0.0068623
0.341942 0.0178373 0.00723761
0.341817 0.0168248 0.00745736
0.329929 0.0177699 0.00713023
0.335678 0.0162713 0.0078872
0.342093 0.0180638 0.00719966
0.335968 0.017952 0.00716535
0.34175 0.0169443 0.00749229
0.336083 0.0180709 0.00711403
0.342068 0.0171601 0.00731897
0.335861 0.0170817 0.00754076
0.341707 0.0167491 0.00759267
0.336293 0.0182193 0.00705129
0.329947 0.0178507 0.00707402
0.329891 0.0176086 0.00724215
0.336246 0.0187992 0.00683528
0.335766 0.0170531 0.00755405
0.336367 0.0189239 0.00685302
0.336069 0.0183992 0.00696574
0.341762 0.0169745 0.00739766
0.335726 0.0168729 0.00763109
0.335827 0.0173233 0.00743857
0.335847 0.0174133 0.00740008
0.329605 0.0164818 0.00802119
0.329673 0.0167225 0.00785572
0.329584 0.0164013 0.00807669
0.335814 0.0164795 0.00779713
0.336178 0.0181003 0.00710263
0.329626 0.0165622 0.00796569
0.329818 0.0172858 0.0074665
0.335665 0.0166029 0.00774651
0.336045 0.0182043 0.00714283
0.329762 0.0170437 0.00763468
0.335739 0.0165412 0.00777179
0.341917 0.0172889 0.0073011
0.329836 0.0173665 0.00741038
0.330008 0.018124 0.00698454
0.329781 0.0171243 0.00757883
0.336293 0.0189914 0.0068647
0.336215 0.0190529 0.0068755
0.335916 0.0169301 0.00760449
0.336147 0.0182424 0.00713096
0.329854 0.0174472 0.0073543
0.336164 0.0184286 0.00695434
0.335922 0.0173519 0.00742529
0.335992 0.0180536 0.00722459
0.329742 0.0169631 0.00769048
0.335562 0.0161529 0.00793885
0.330051 0.0183165 0.00695156
0.336103 0.0181603 0.00707411
0.33576 0.0166312 0.00773332
0.336097 0.0177407 0.00725803
0.336158 0.0180109 0.00714254
0.341925 0.0174482 0.00735951
0.336094 0.0184931 0.00702558
0.32991 0.0176893 0.00718607
0.335801 0.0168113 0.00765636
0.329873 0.0175279 0.00729822
0.335624 0.0164229 0.00782345
0.335719 0.0164513 0.00781026
0.335685 0.0166928 0.00770804
0.335982 0.0176221 0.00731016
0.330104 0.0181529 0.00697468
0.329966 0.0179313 0.00701805
0.336123 0.0182498 0.00703419
0.329647 0.0166426 0.00791023
0.335786 0.0171432 0.00751556
0.335881 0.0171718 0.00750226
0.335583 0.0162429 0.00790039
0.335746 0.016963 0.00759256
0.336218 0.0182792 0.00702279
0.335657 0.0161813 0.00792567
0.335996 0.0172904 0.00745049
0.336393 0.0186696 0.00685028
0.336157 0.0186229 0.00696114
0.335901 0.0172618 0.00746378
0.335806 0.0172332 0.00747707
0.329987 0.0180276 0.00700106
0.335706 0.0167828 0.00766958
0.341921 0.0177404 0.00724937
0.329696 0.0168027 0.00780073
0.329799 0.0172051 0.00752254
0.34184 0.0173517 0.00729757

VERTICES 275 550
1 0
1 1
1 2
1 3
1 4
1 5
1 6
1 7
1 8
1 9
1 10
1 11
1 12
1 13
1 14
1 15
1 16
1 17
1 18
1 19
1 20
1 21
1 22
1 23
1 24
1 25
1 26
1 27
1 28
1 29
1 30
1 31
1 32
1 33
1 34
1 35
1 36
1 37
1 38
1 39
1 40
1 41
1 42
1 43
1 44
1 45
1 46
1 47
1 48
1 49
1 50
1 51
1 52
1 53
1 54
1 55
1 56
1 57
1 58
1 59
1 60
1 61
1 62
1 63
1 64
1 65
1 66
1 67
1 68
1 69
1 70
1 71
1 72
1 73
1 74
1 75
1 76
1 77
1 78
1 79
1 80
1 81
1 82
1 83
1 84
1 85
1 86
1 87
1 88
1 89
1 90
1 91
1 92
1 93
1 94
1 95
1 96
1 97
1 98
1 99
1 100
1 101
1 102
1 103
1 104
1 105
1 106
1 107
1 108
1 109
1 110
1 111
1 112
1 113
1 114
1 115
1 116
1 117
1 118
1 119
1 120
1 121
1 122
1 123
1 124
1 125
1 126
1 127
1 128
1 129
1 130
1 131
1 132
1 133
1 134
1 135
1 136
1 137
1 138
1 139
1 140
1 141
1 142
1 143
1 144
1 145
1 146
1 147
1 148
1 149
1 150
1 151
1 152
1 153
1 154
1 155
1 156
1 157
1 158
1 159
1 160
1 161
1 162
1 163
1 164
1 165
1 166
1 167
1 168
1 169
1 170
1 171
1 172
1 173
1 174
1 175
1 176
1 177
1 178
1 179
1 180
1 181
1 182
1 183
1 184
1 185
1 186
1 187
1 188
1 189
1 190
1 191
1 192
1 193
1 194
1 195
1 196
1 197
1 198
1 199
1 200
1 201
1 202
1 203
1 204
1 205
1 206
1 207
1 208
1 209
1 210
1 211
1 212
1 213
1 214
1 215
1 216
1 217
1 218
1 219
1 220
1 221
1 222
1 223
1 224
1 225
1 226
1 227
1 228
1 229
1 230
1 231
1 232
1 233
1 234
1 235
1 236
1 237
1 238
1 239
1 240
1 241
1 242
1 243
1 244
1 245
1 246
1 247
1 248
1 249
1 250
1 251
1 252
1 253
1 254
1 255
1 256
1 257
1 258
1 259
1 260
1 261
1 262
1 263
1 264
1 265
1 266
1 267
1 268
1 269
1 270
1 271
1 272
1 273
1 274

POINT_DATA 275
SCALARS id int 1
LOOKUP_TABLE default
1
2
4
5
6
7
8
9
10
11
12
13
14
16
17
19
21
22
23
24
25
26
27
28
29
30
31
32
33
34
35
36
37
38
39
41
42
44
45
47
48
49
50
51
52
53
54
55
56
57
59
60
61
62
63
64
65
66
67
68
69
70
71
72
73
74
76
77
78
79
80
82
83
84
85
86
87
88
89
90
91
92
93
94
95
96
97
98
99
100
101
102
103
104
105
106
107
108
109
110
111
112
113
114
115
116
117
118
119
120
121
122
123
124
125
127
128
129
130
131
132
133
134
135
136
137
138
140
141
142
143
144
146
147
148
149
150
151
153
154
155
156
157
158
159
160
162
164
165
166
167
168
169
170
171
172
173
174
176
177
178
179
182
183
184
185
186
187
188
189
190
191
192
193
194
195
196
197
198
199
200
201
202
203
204
205
206
207
208
209
210
211
212
213
214
215
216
217
218
219
220
222
224
225
226
227
228
229
230
232
233
234
235
236
237
239
240
241
242
243
244
246
247
248
249
250
251
252
253
254
255
256
257
258
259
260
261
262
263
264
265
266
267
268
269
270
271
272
273
274
275
276
277
278
279
280
281
283
284
285
286
287
288
289
290
291
292
293
294
295
296
297
298
299
300

SCALARS type int 1
LOOKUP_TABLE default
1
1
1
1
1
1
1
1
1
1
1
1
1
1
1
1
1
1
1
1
1
1
1
1
1
1
1
1
1
1
1
1
1
1
1
1
1
1
1
1
1
1
1
1
1
1
1
1
1
1
1
1
1
1
1
1
1
1
1
1
1
1
1
1
1
1
1
1
1
1
1
1
1
1
1
1
1
1
1
1
1
1
1
1
1
1
1
1
1
1
1
1
1
1
1
1
1
1
1
1
1
1
1
1
1
1
1
1
1
1
1
1
1
1
1
1
1
1
1
1
1
1
1
1
1
1
1
1
1
1
1
1
1
1
1
1
1
1
1
1
1
1
1
1
1
1
1
1
1
1
1
1
1
1
1
1
1
1
1
1
1
1
1
1
1
1
1
1
1
1
1
1
1
1
1
1
1
1
1
1
1
1
1
1
1
1
1
1
1
1
1
1
1
1
1
1
1
1
1
1
1
1
1
1
1
1
1
1
1
1
1
1
1
1
1
1
1
1
1
1
1
1
1
1
1
1
1
1
1
1
1
1
1
1
1
1
1
1
1
1
1
1
1
1
1
1
1
1
1
1
1
1
1
1
1
1
1
1
1
1
1
1
1
1
1
1
1
1
1
1
1
1
1
1
1

SCALARS radius float 1
LOOKUP_TABLE default
5e-05
5e-05
5e-05
5e-05
5e-05
5e-05
5e-05
5e-05
5e-05
5e-05
5e-05
5e-05
5e-05
5e-05
5e-05
5e-05
5e-05
5e-05
5e-05
5e-05
5e-05
5e-05
5e-05
5e-05
5e-05
5e-05
5e-05
5e-05
5e-05
5e-05
5e-05
5e-05
5e-05
5e-05
5e-05
5e-05
5e-05
5e-05
5e-05
5e-05
5e-05
5e-05
5e-05
5e-05
5e-05
5e-05
5e-05
5e-05
5e-05
5e-05
5e-05
5e-05
5e-05
5e-05
5e-05
5e-05
5e-05
5e-05
5e-05
5e-05
5e-05
5e-05
5e-05
5e-05
5e-05
5e-05
5e-05
5e-05
5e-05
5e-05
5e-05
5e-05
5e-05
5e-05
5e-05
5e-05
5e-05
5e-05
5e-05
5e-05
5e-05
5e-05
5e-05
5e-05
5e-05
5e-05
5e-05
5e-05
5e-05
5e-05
5e-05
5e-05
5e-05
5e-05
5e-05
5e-05
5e-05
5e-05
5e-05
5e-05
5e-05
5e-05
5e-05
5e-05
5e-05
5e-05
5e-05
5e-05
5e-05
5e-05
5e-05
5e-05
5e-05
5e-05
5e-05
5e-05
5e-05
5e-05
5e-05
5e-05
5e-05
5e-05
5e-05
5e-05
5e-05
5e-05
5e-05
5e-05
5e-05
5e-05
5e-05
5e-05
5e-05
5e-05
5e-05
5e-05
5e-05
5e-05
5e-05
5e-05
5e-05
5e-05
5e-05
5e-05
5e-05
5e-05
5e-05
5e-05
5e-05
5e-05
5e-05
5e-05
5e-05
5e-05
5e-05
5e-05
5e-05
5e-05
5e-05
5e-05
5e-05
5e-05
5e-05
5e-05
5e-05
5e-05
5e-05
5e-05
5e-05
5e-05
5e-05
5e-05
5e-05
5e-05
5e-05
5e-05
5e-05
5e-05
5e-05
5e-05
5e-05
5e-05
5e-05
5e-05
5e-05
5e-05
5e-05
5e-05
5e-05
5e-05
5e-05
5e-05
5e-05
5e-05
5e-05
5e-05
5e-05
5e-05
5e-05
5e-05
5e-05
5e-05
5e-05
5e-05
5e-05
5e-05
5e-05
5e-05
5e-05
5e-05
5e-05
5e-05
5e-05
5e-05
5e-05
5e-05
5e-05
5e-05
5e-05
5e-05
5e-05
5e-05
5e-05
5e-05
5e-05
5e-05
5e-05
5e-05
5e-05
5e-05
5e-05
5e-05
5e-05
5e-05
5e-05
5e-05
5e-05
5e-05
5e-05
5e-05
5e-05
5e-05
5e-05
5e-05
5e-05
5e-05
5e-05
5e-05
5e-05
5e-05
5e-05
5e-05
5e-05
5e-05
5e-05
5e-05
5e-05
5e-05
5e-05
5e-05
5e-05
5e-05
5e-05
5e-05
5e-05
5e-05
5e-05
5e-05
5e-05
5e-05
5e-05
5e-05
5e-05
5e-05
5e-05

SCALARS mass float 1
LOOKUP_TABLE default
1.46608e-10
1.46608e-10
1.46608e-10
1.46608e-10
1.46608e-10
1.46608e-10
1.46608e-10
1.46608e-10
1.46608e-10
1.46608e-10
1.46608e-10
1.46608e-10
1.46608e-10
1.46608e-10
1.46608e-10
1.46608e-10
1.46608e-10
1.46608e-10
1.46608e-10
1.46608e-10
1.46608e-10
1.46608e-10
1.46608e-10
1.46608e-10
1.46608e-10
1.46608e-10
1.46608e-10
1.46608e-10
1.46608e-10
1.46608e-10
1.46608e-10
1.46608e-10
1.46608e-10
1.46608e-10
1.46608e-10
1.46608e-10
1.46608e-10
1.46608e-10
1.46608e-10
1.46608e-10
1.46608e-10
1.46608e-10
1.46608e-10
1.46608e-10
1.46608e-10
1.46608e-10
1.46608e-10
1.46608e-10
1.46608e-10
1.46608e-10
1.46608e-10
1.46608e-10
1.46608e-10
1.46608e-10
1.46608e-10
1.46608e-10
1.46608e-10
1.46608e-10
1.46608e-10
1.46608e-10
1.46608e-10
1.46608e-10
1.46608e-10
1.46608e-10
1.46608e-10
1.46608e-10
1.46608e-10
1.46608e-10
1.46608e-10
1.46608e-10
1.46608e-10
1.46608e-10
1.46608e-10
1.46608e-10
1.46608e-10
1.46608e-10
1.46608e-10
1.46608e-10
1.46608e-10
1.46608e-10
1.46608e-10
1.46608e-10
1.46608e-10
1.46608e-10
1.46608e-10
1.46608e-10
1.46608e-10
1.46608e-10
1.46608e-10
1.46608e-10
1.46608e-10
1.46608e-10
1.46608e-10
1.46608e-10
1.46608e-10
1.46608e-10
1.46608e-10
1.46608e-10
1.46608e-10
1.46608e-10
1.46608e-10
1.46608e-10
1.46608e-10
1.46608e-10
1.46608e-10
1.46608e-10
1.46608e-10
1.46608e-10
1.46608e-10
1.46608e-10
1.46608e-10
1.46608e-10
1.46608e-10
1.46608e-10
1.46608e-10
1.46608e-10
1.46608e-10
1.46608e-10
1.46608e-10
1.46608e-10
1.46608e-10
1.46608e-10
1.46608e-10
1.46608e-10
1.46608e-10
1.46608e-10
1.46608e-10
1.46608e-10
1.46608e-10
1.46608e-10
1.46608e-10
1.46608e-10
1.46608e-10
1.46608e-10
1.46608e-10
1.46608e-10
1.46608e-10
1.46608e-10
1.46608e-10
1.46608e-10
1.46608e-10
1.46608e-10
1.46608e-10
1.46608e-10
1.46608e-10
1.46608e-10
1.46608e-10
1.46608e-10
1.46608e-10
1.46608e-10
1.46608e-10
1.46608e-10
1.46608e-10
1.46608e-10
1.46608e-10
1.46608e-10
1.46608e-10
1.46608e-10
1.46608e-10
1.46608e-10
1.46608e-10
1.46608e-10
1.46608e-10
1.46608e-10
1.46608e-10
1.46608e-10
1.46608e-10
1.46608e-10
1.46608e-10
1.46608e-10
1.46608e-10
1.46608e-10
1.46608e-10
1.46608e-10
1.46608e-10
1.46608e-10
1.46608e-10
1.46608e-10
1.46608e-10
1.46608e-10
1.46608e-10
1.46608e-10
1.46608e-10
1.46608e-10
1.46608e-10
1.46608e-10
1.46608e-10
1.46608e-10
1.46608e-10
1.46608e-10
1.46608e-10
1.46608e-10
1.46608e-10
1.46608e-10
1.46608e-10
1.46608e-10
1.46608e-10
1.46608e-10
1.46608e-10
1.46608e-10
1.46608e-10
1.46608e-10
1.46608e-10
1.46608e-10
1.46608e-10
1.46608e-10
1.46608e-10
1.46608e-10
1.46608e-10
1.46608e-10
1.46608e-10
1.46608e-10
1.46608e-10
1.46608e-10
1.46608e-10
1.46608e-10
1.46608e-10
1.46608e-10
1.46608e-10
1.46608e-10
1.46608e-10
1.46608e-10
1.46608e-10
1.46608e-10
1.46608e-10
1.46608e-10
1.46608e-10
1.46608e-10
1.46608e-10
1.46608e-10
1.46608e-10
1.46608e-10
1.46608e-10
1.46608e-10
1.46608e-10
1.46608e-10
1.46608e-10
1.46608e-10
1.46608e-10
1.46608e-10
1.46608e-10
1.46608e-10
1.46608e-10
1.46608e-10
1.46608e-10
1.46608e-10
1.46608e-10
1.46608e-10
1.46608e-10
1.46608e-10
1.46608e-10
1.46608e-10
1.46608e-10
1.46608e-10
1.46608e-10
1.46608e-10
1.46608e-10
1.46608e-10
1.46608e-10
1.46608e-10
1.46608e-10
1.46608e-10
1.46608e-10
1.46608e-10
1.46608e-10
1.46608e-10
1.46608e-10
1.46608e-10
1.46608e-10
1.46608e-10
1.46608e-10
1.46608e-10
1.46608e-10
1.46608e-10
1.46608e-10

VECTORS velocity float
0.00588687 0.000337709 -0.000648324
0.00591435 -6.01001e-05 0.000978053
0.00565883 0.000292845 0.000255495
0.00561565 -0.000767068 -0.000615954
0.00537486 -0.000338077 -0.00038694
0.00564368 0.000498372 0.00035599
0.00614245 -0.000631655 -0.00100028
0.00590693 -0.000275885 1.0146e-05
0.00696737 -0.000131849 -0.00199252
0.00580935 0.000272731 -0.0006322
0.00588593 2.54561e-05 -7.50289e-05
0.00557896 -0.000746278 -0.00062675
0.00628852 7.63684e-05 5.89272e-05
0.00626018 8.39885e-05 8.66818e-05
0.00612494 -0.000458579 -0.00120354
0.00594774 0.000355856 -0.000654755
0.0057457 0.000213811 -0.000627705
0.00512142 -0.00025522 -0.00125304
0.00627213 1.90453e-05 0.000115107
0.00546993 -0.000192856 -1.16863e-05
0.00579152 -0.000787476 -0.000637878
0.00582298 -0.000258993 5.49619e-06
0.00539864 0.000186925 -0.000144128
0.00947115 0.0030857 0.00140887
0.00558733 -0.000736884 -0.00064695
0.00578922 -0.000475051 -0.00111546
0.00546256 3.81725e-05 -0.000594023
0.00581883 -0.000735535 -0.000725503
0.00539182 -0.000340954 -0.000387077
0.0057471 -0.000817767 -0.000575266
0.00563963 0.000662369 0.000507199
0.00603223 -0.000300563 1.67928e-05
0.00517918 -2.77819e-05 -0.00115997
0.00551234 0.000435687 0.00042629
0.00547404 -0.000190955 -1.24502e-05
0.00568641 -0.000812828 -0.000564034
0.00578264 0.00040916 0.000686337
0.00554986 0.000566421 0.000559176
0.00543946 -0.0003504 -0.000388005
0.00570249 -0.000823973 -0.000550434
0.0058499 0.000314093 -0.000643421
0.00594858 -0.000284106 1.25892e-05
0.0059357 -0.000687511 -0.000827324
0.00561863 0.000245637 -0.000605943
0.00609267 2.83195e-06 -7.43309e-05
0.00546323 -0.000192597 -1.16551e-05
0.00588542 0.000288038 -0.00064182
0.00578997 9.62849e-05 -0.000111624
0.00594823 0.000295941 -0.000649464
0.00545853 -0.000193152 -1.09982e-05
-5.01964e-15 -7.41204e-15 7.69802e-14
0.00568152 0.000529702 0.000598636
0.00566721 -0.00079212 -0.000595566
0.005438 0.000631809 0.00047171
0.00584904 0.000375524 -0.000638572
0.00546729 -0.000192737 -1.18357e-05
0.00572953 0.000141954 -0.000132814
0.00621702 8.57685e-05 8.50536e-05
0.0057853 0.000219698 -0.000623109
0.00580126 0.000458089 0.000950138
0.00574252 0.000246301 -0.000621622
0.00586508 -0.000267491 8.02984e-06
0.00627644 0.000168015 -6.62401e-05
0.00584522 0.000284326 -0.000637659
0.00590534 0.000284563 0.0007955
0.00592398 -0.000596465 -0.000961708
0.00556409 0.000133746 -0.000123647
0.0055409 0.00034965 0.000510446
0.00617544 0.000165854 -0.000122552
0.00634469 0.00013926 -7.1693e-05
0.00574369 0.000743551 0.000465041
0.00625682 3.65731e-05 0.000107737
0.00593914 9.88869e-06 -6.38393e-05
0.00599046 -0.000292493 1.4343e-05
0.00636493 0.000144379 0.000101974
0.00558002 0.000562129 0.000586908
0.00838851 -0.00370433 -0.00263532
0.00398415 0.000574884 -0.000471726
0.00577436 0.000243129 -0.000626795
0.00576997 0.000267418 -0.000629238
0.005877 5.42199e-05 -9.44578e-05
0.0056146 0.000618139 -8.99065e-05
0.00569908 0.000569794 0.000436419
0.00587277 0.000340204 -0.000643788
0.00582798 0.000298341 -0.000623666
0.00560925 0.000728789 0.000431233
0.00575065 0.000186775 -0.000150886
0.00608309 -0.000604499 -0.000992594
0.00603911 0.000198307 3.49899e-05
0.00565682 0.00025206 -0.00038621
0.00609119 0.000181443 4.23441e-05
4.11411e-15 1.05694e-14 8.29587e-14
-3.50766e-23 4.86658e-23 1.23839e-22
0.00632834 0.000114514 -7.35246e-05
0.00578317 0.000169478 -0.0001402
0.00588853 0.000129079 -9.53623e-05
0.00622567 0.000158262 -0.000102604
0.0058263 0.00024386 -0.000632068
0.00590172 0.000239217 -0.00063916
0.00789026 0.00496795 -0.0131906
0.00593709 -0.00154962 -0.00220972
0.00579093 9.38517e-05 -0.00019915
0.00575492 -0.000114057 -0.000806452
0.00594712 0.000227727 2.16408e-05
0.00575519 0.0004965 0.000618674
0.00582531 0.000276599 -0.000636672
0.002812 0.000864429 6.47607e-05
0.00587809 7.57084e-05 -0.000102818
0.00581134 0.000321524 -0.000637905
0.00759347 -0.000301263 -0.00193098
0.0059082 0.00032704 -0.000660443
0.00564573 0.000622173 0.000654093
0.00633545 0.000202197 -6.31905e-05
0.00569546 -0.000513549 -0.00100429
0.00565858 0.000816512 0.00045361
0.00599503 0.000163816 -0.000127375
0.00610303 -0.000605897 -0.00116031
0.00584936 0.000314464 -0.000633729
0.00598306 0.00016614 5.24909e-05
0.00603331 0.000147046 5.4429e-05
0.00570339 0.000417346 0.000491839
0.00582216 0.00030312 -0.000635568
0.00574827 0.000242168 -0.00062952
0.00576736 0.000230971 -0.000618673
0.00569682 0.000107858 -0.000113555
0.0058862 0.000271193 -0.00064707
0.00570996 0.000409941 -0.000654429
0.00580429 0.00049141 0.000599685
0.00573787 0.000144377 -0.000130159
0.00614047 -4.98519e-05 -5.64774e-05
0.00624893 0.000148181 -8.63659e-05
0.00596226 3.38172e-05 -0.000135142
0.00578284 0.000179874 -0.000137355
0.00592879 0.00016488 1.34018e-05
0.00575909 0.000382496 -0.000231242
0.00583872 -0.000639555 -0.00154239
0.00634569 0.000149585 0.000110184
0.00617627 0.00015549 5.81632e-05
0.00562003 0.00030061 -0.000195039
0.00578169 0.000164804 -0.000134974
0.00600779 0.000188962 3.97773e-05
0.00575703 0.000173929 -0.000142967
-3.82776e-14 8.17034e-14 2.95885e-13
0.00554936 0.000154143 -0.000131887
0.00568939 0.000510455 0.000483276
0.0061289 0.000159801 5.23363e-05
0.0062927 0.000122844 7.49237e-05
0.00576833 0.000171243 -0.00014177
0.00630534 0.000132576 6.79402e-05
0.00578998 0.000335564 -0.000665908
0.0062847 0.000136177 6.64905e-05
0.00634271 0.000129382 7.65051e-05
0.00631827 0.00014017 7.23558e-05
0.00631524 0.000128444 6.77896e-05
0.00595359 0.000345569 -0.000655321
0.00563766 -0.000273453 -0.00119224
0.00595411 0.000365013 -0.000656901
0.00575509 0.000160622 -0.000136834
0.00567355 0.000146798 -0.000131627
0.00579096 0.000176625 -0.000136855
0.00616604 0.000117406 7.05047e-05
0.00620683 0.000122471 6.86853e-05
0.00590228 0.000339254 -0.00065098
0.00591085 0.000257183 2.04129e-05
0.00587477 0.000326448 -0.000644898
0.00602597 4.54484e-05 -7.6134e-05
0.00638525 0.000193992 1.86213e-05
0.00584226 0.000298963 -0.000639127
0.00553315 0.000651396 0.000500231
0.00588907 0.00032734 -0.000662988
0.00633545 0.0005589 -0.000435564
0.00580297 -0.00114455 -0.00182075
0.0058587 0.000131909 -0.00022181
0.0058914 0.000287112 -0.000642781
0.00633706 7.60391e-05 -7.80209e-05
0.006287 0.00012163 6.8108e-05
0.00615186 5.55155e-05 9.76741e-05
0.00645182 0.000722345 0.00039741
0.00599989 1.53986e-05 -7.93333e-05
0.00623507 7.24696e-05 8.97675e-05
0.00576174 0.000160107 -0.000120755
0.00630186 0.000120462 6.99361e-05
0.00556578 0.000141313 -0.000126726
0.00567722 0.000329531 -0.000612911
0.00627028 9.35796e-05 8.24965e-05
0.00574725 0.000138549 -0.000127214
0.00550652 0.000173609 -0.000139686
0.00575959 0.000182681 -0.000146501
0.0061046 -3.36161e-05 -6.72909e-05
0.00585304 9.40111e-05 -0.000117757
0.00616614 -0.000746606 -0.00119002
0.00722133 -0.00182861 -0.00134165
0.00630739 0.000108351 8.01859e-05
0.0058727 0.000314208 -0.000642947
0.00490299 0.000349506 0.00118509
0.00605503 0.000799474 0.000267223
0.00575777 0.000165659 -0.00013967
0.0058972 0.000325188 -0.000648108
0.00599671 0.00021565 3.23776e-05
0.0056043 0.000585698 0.000631149
0.00607913 0.000127639 6.37914e-05
0.005666 0.000511441 0.000604129
0.00545368 0.000188145 -0.000145145
0.00745441 0.00709198 -0.00258219
0.00618104 1.07002e-05 0.000116263
0.00590347 0.000813278 0.000249318
0.00605399 0.000800374 0.000264761
0.00635438 0.000140304 -7.13403e-05
0.00547267 0.000184474 -0.000143836
0.00627791 0.000177831 -6.0739e-05
0.00623603 0.000147927 6.38915e-05
0.00564345 0.000416678 0.000644625
0.00551952 0.000163367 -0.000135954
0.00561387 0.000152067 -0.000132026
0.00566199 0.00015297 -0.000128313
0.00586952 0.000887316 0.000181759
0.00733688 0.000624042 0.000564249
0.00589362 0.000860742 0.000202543
0.00575531 0.000172678 -0.000142256
0.00611196 7.04796e-05 8.93013e-05
0.00583704 0.000879347 0.000180229
0.00576093 0.000804962 0.000229525
0.00574701 0.000147688 -0.000131587
0.00609891 0.000106177 6.05822e-05
0.00585 -0.000252529 0.000530369
0.00575669 0.000162818 -0.000138245
0.00563495 0.000441416 -6.81893e-05
0.00584717 0.000812836 0.000238061
0.00630783 0.000568912 -0.000416899
0.00467772 0.000788348 8.07843e-05
0.00627598 0.000174587 -6.32888e-05
0.00632496 0.000213407 -5.80633e-05
0.00550537 0.000168445 -0.000137685
0.00617543 6.1711e-05 9.09574e-05
0.00590619 0.000804007 0.000244057
0.00626044 7.6107e-05 9.19212e-05
0.00564789 0.000150339 -0.00012965
0.00599435 0.000182093 3.87782e-05
0.00634914 0.000429339 0.000424803
0.00578529 0.000173946 -0.000143117
0.00634565 0.00054563 -0.000440144
0.00611544 0.000112233 6.80687e-05
0.0057453 0.000155561 -0.000134457
0.00590717 2.42795e-05 -0.000183274
0.00607983 6.32598e-05 1.66449e-05
0.00570791 0.000324158 -0.000601962
0.00620379 0.000197039 6.80614e-05
0.00609546 0.000791174 0.000274457
0.00564584 0.000234723 -0.000166422
0.00595175 0.00080015 0.000247982
0.00576065 0.000168373 -0.000140082
0.00575607 0.000171718 -0.000141947
0.00573663 0.000135114 -0.000125759
0.00586082 0.000103303 -0.000181408
0.00630923 0.000509055 -0.000427093
0.00579435 0.000823028 0.00022171
0.00616521 9.61151e-05 8.05119e-05
0.00572477 0.000884533 0.000162434
0.00552387 0.000193536 -0.000148268
0.00553041 0.000184472 -0.000144853
0.00577487 0.000173823 -0.000143727
0.0053935 0.00018769 -0.000144081
0.00620623 4.48427e-05 0.0001031
0.00576328 0.000165299 -0.000138845
0.00561321 0.000121031 -0.0001181
0.0062811 0.000161349 5.22114e-05
0.00629842 0.000171912 6.12608e-05
0.00560537 0.00016332 -0.000135969
0.00557832 0.000237369 -0.000168159
0.00619022 0.000625274 -0.000283062
0.00571939 0.00012426 -0.000119558
0.00585615 0.000314781 -0.000638204
0.00656214 0.000744076 0.000387803
0.00569588 0.000787279 0.00022921
0.00567133 0.000515328 -0.000439684

VECTORS force float
-2.7756e-11 -1.36398e-10 1.95358e-11
-3.75395e-11 -4.46746e-11 -1.54189e-09
-1.05253e-09 2.43676e-09 -2.49793e-09
-6.16003e-10 -1.36302e-10 5.15885e-10
-9.20696e-14 4.55575e-13 2.39305e-12
-3.58985e-10 3.44027e-10 1.80453e-10
-3.12767e-10 8.51319e-10 -8.2651e-10
4.90732e-13 1.64643e-12 1.94463e-12
-2.52532e-10 6.77248e-10 -8.80749e-10
1.17155e-10 -1.14677e-10 1.22543e-11
-1.2887e-10 1.71008e-10 3.03097e-11
4.64287e-11 -4.73816e-10 7.66806e-10
-4.27475e-11 9.72602e-11 7.36153e-11
1.59709e-10 -1.48354e-10 7.51376e-11
-2.38955e-11 6.45384e-11 -1.3898e-09
-2.33367e-11 -1.38869e-10 9.85307e-12
7.61868e-11 -1.54531e-10 -3.44858e-10
-1.17589e-09 -2.76434e-10 6.33654e-09
-4.6292e-11 4.32606e-12 -1.61771e-11
1.26204e-11 1.20244e-11 -1.00844e-11
5.78572e-10 8.34022e-10 -1.42404e-09
6.7513e-12 1.10336e-11 -2.03081e-12
-6.91735e-11 -2.02198e-10 8.16143e-11
-2.54875e-10 -1.95826e-09 -2.06649e-09
-4.85057e-11 -5.77481e-10 8.38053e-10
-1.85034e-11 9.96395e-10 -1.60839e-09
-2.6015e-10 -2.31064e-10 -1.33076e-10
9.75298e-10 1.06532e-09 -1.97151e-09
3.22368e-12 -2.74513e-12 -5.62274e-12
-1.41771e-10 7.51516e-10 -9.52464e-10
-9.90232e-10 -1.71008e-10 -4.62436e-10
-5.63264e-12 -2.19137e-11 1.06422e-11
1.07168e-09 -7.05239e-10 3.37678e-09
-2.14506e-10 -1.56207e-10 -1.03784e-09
-5.48563e-12 -3.30642e-12 5.07124e-12
5.37779e-10 2.32585e-11 -4.09781e-10
-1.06592e-09 -7.10746e-10 1.47655e-10
-4.6754e-10 6.39871e-10 2.98707e-11
6.95897e-12 2.23194e-12 6.65466e-13
5.25868e-10 3.09094e-10 -6.64748e-10
6.06705e-11 2.13864e-10 -1.31788e-10
3.1801e-12 -9.36657e-12 2.05946e-12
3.45335e-10 1.46133e-09 -2.37483e-09
-5.79261e-10 1.11293e-10 9.90457e-11
-1.81518e-10 8.58839e-11 4.81676e-11
-2.07219e-12 4.20742e-12 -1.50873e-12
-7.37818e-11 -8.21854e-11 2.1771e-11
-3.07413e-11 1.19334e-10 -5.94306e-11
5.00399e-11 1.10736e-10 -2.72957e-11
-6.80326e-12 1.04401e-12 3.73914e-13
2.49447e-24 5.42837e-25 2.06795e-25
2.65963e-12 8.45596e-10 -7.02741e-10
-3.71232e-10 -3.28753e-11 1.55328e-10
-2.54459e-10 7.63262e-11 -1.07669e-09
-1.14224e-10 -2.03864e-11 7.37781e-11
2.29033e-12 1.31507e-11 -1.49921e-12
-1.64225e-10 4.34139e-11 9.00216e-11
-6.21405e-11 6.78445e-11 4.42125e-12
1.55218e-10 -1.08535e-10 -2.61588e-11
8.29342e-09 -8.98599e-09 1.53235e-09
5.15698e-11 -1.12169e-10 1.18145e-11
3.06641e-12 8.87991e-12 -1.07331e-11
-4.1424e-10 -4.48233e-11 -5.03148e-11
4.76621e-11 1.61295e-10 -1.86855e-11
-5.30721e-10 -3.29261e-10 -9.11991e-10
-2.11184e-10 1.54813e-09 -2.24952e-09
5.95466e-11 9.66245e-12 -9.93172e-13
6.64545e-10 1.30062e-09 -1.20251e-09
5.24102e-11 6.10646e-11 -1.39916e-10
-2.41532e-10 -6.83979e-11 -4.83444e-12
-1.59929e-09 2.96803e-09 -1.44202e-09
-1.62545e-11 4.96408e-11 5.66711e-12
6.3842e-11 1.34059e-10 -2.31228e-10
-4.53727e-12 -1.55635e-11 3.32659e-12
6.9572e-11 2.66666e-11 -4.66002e-11
-2.15394e-10 -8.4743e-10 2.21696e-10
0.0 0.0 -1.43822e-09
-5.52558e-10 3.73488e-11 5.35695e-11
2.62991e-10 7.80651e-11 -4.06229e-11
-1.03106e-10 -2.78621e-10 7.47268e-11
-1.2698e-10 8.71636e-11 -6.85799e-11
-1.19048e-09 -1.58654e-10 -1.83516e-09
0.0 0.0 -1.43822e-09
-3.77043e-11 -6.94637e-12 4.28376e-11
-1.20557e-10 -1.69184e-10 -1.00459e-11
5.21778e-10 -8.8762e-10 -9.25444e-12
-1.19558e-10 8.05664e-11 8.05847e-11
-2.57807e-10 7.01328e-10 -9.32915e-10
-4.51091e-11 2.28108e-10 -3.101e-11
-2.27477e-11 -6.41574e-11 -4.89572e-10
-2.02837e-11 2.74906e-10 -8.48339e-11
2.81594e-21 -8.13325e-22 -3.5362e-23
0.0 0.0 0.0
-4.13249e-10 1.09058e-10 8.87726e-11
-1.19797e-11 3.47494e-11 -1.57837e-11
-1.45705e-10 3.82539e-11 -3.14489e-10
2.46806e-11 2.29584e-11 -6.4515e-11
1.42191e-10 9.60689e-11 -3.36358e-11
-1.73941e-11 1.42152e-10 -4.24015e-12
0.0 0.0 -1.43822e-09
-5.56536e-09 2.81248e-08 -4.00163e-09