# vtk DataFile Version 3.0
LIGGGHTS particles timestep 59200000
ASCII
DATASET POLYDATA
POINTS 273 float
0.358291 0.0178758 0.0069999
0.358041 0.0169352 0.00780897
0.358257 0.0170157 0.00765588
0.357555 0.0155335 0.00947543
0.36411 0.0170961 0.00748549
0.358388 0.0174998 0.00717845
0.358059 0.0166965 0.00807309
0.364301 0.0179194 0.00695146
0.358195 0.0168302 0.00788311
0.358482 0.0179417 0.00699981
0.352487 0.017573 0.00724536
0.357532 0.0154657 0.00954519
0.352627 0.0183749 0.00698646
0.35253 0.0186066 0.00685359
0.357958 0.0166877 0.00811191
0.35833 0.018072 0.00700797
0.358423 0.0176627 0.00706839
0.358216 0.0168919 0.00780738
0.352624 0.0182012 0.00696018
0.36423 0.0175891 0.00716558
0.364266 0.0177542 0.00705854
0.352088 0.0166372 0.00770543
0.358424 0.0178182 0.00709271
0.357508 0.015398 0.00961477
0.357923 0.0165622 0.0082635
0.358537 0.0177778 0.00699862
0.320511 0.019273 0.00551471
0.364131 0.017178 0.00743235
0.358351 0.0173329 0.00728108
0.364359 0.0182135 0.00696185
0.358236 0.0169541 0.0077316
0.358318 0.017202 0.00742857
0.364248 0.0176717 0.00711202
0.357621 0.0156667 0.00934354
0.358298 0.0171398 0.00750435
0.358482 0.0175251 0.00715444
0.364153 0.0172599 0.00737921
0.357622 0.0157335 0.00926912
0.358234 0.0176063 0.00710078
0.364321 0.0180174 0.00695493
0.356766 0.0178898 0.00787584
0.358557 0.017876 0.0069957
0.352544 0.0178357 0.00711233
0.364192 0.0174244 0.00727246
0.358482 0.0184012 0.00702013
0.352216 0.017159 0.00744222
0.358368 0.018268 0.00701603
0.364173 0.0173421 0.00732584
0.378022 0.019866 0.005332
0.3585 0.0176088 0.00710283
0.357578 0.0156012 0.00940562
0.358335 0.0172662 0.00735392
0.358557 0.0183357 0.00701604
0.364211 0.0175068 0.00721901
0.352196 0.0172454 0.00748894
0.352393 0.0179506 0.00704851
0.358443 0.0177494 0.00702272
0.358202 0.0171302 0.00754283
0.358596 0.0180721 0.00700376
0.364286 0.0178365 0.00700514
0.352508 0.0185096 0.0068641
0.358501 0.0180398 0.00700383
0.358278 0.0170775 0.00758014
0.357902 0.0165003 0.00833924
0.352152 0.0168974 0.00757414
0.358063 0.016997 0.00773325
0.351699 0.0155821 0.00856627
0.35255 0.0186997 0.00688359
0.358159 0.0170067 0.00769428
0.35251 0.0180732 0.0070052
0.352506 0.0176606 0.007201
0.36434 0.0181155 0.00695839
0.352374 0.0182915 0.00693381
0.358464 0.0174413 0.00720613
0.358118 0.0168829 0.00784577
0.358259 0.0173192 0.00731691
0.358615 0.0181702 0.0070078
0.358462 0.0178438 0.00699577
0.352333 0.0172788 0.00738803
0.358165 0.0173088 0.00735615
0.358253 0.0176768 0.0071691
0.358405 0.0180063 0.00700387
0.358326 0.0178342 0.00708398
0.358145 0.0172448 0.00743028
0.351778 0.0158031 0.00824234
0.358021 0.0165718 0.00822455
0.352222 0.0175664 0.00723003
0.358405 0.0175836 0.00712697
0.352242 0.0176539 0.0071857
0.0643568 0.0187248 0.00531097
0.24257 0.0191927 0.00520306
0.352486 0.0188521 0.00692982
0.351799 0.0158581 0.00816153
0.352258 0.0173348 0.00735343
0.351718 0.0156373 0.00848527
0.35854 0.0182358 0.0070119
0.358388 0.018366 0.00702006
0.358223 0.0175234 0.00729134
0.35802 0.0168734 0.00788472
0.352254 0.0175084 0.00735487
0.352121 0.0171295 0.00745085
0.352183 0.0173914 0.00731859
0.358445 0.0173577 0.00725766
0.358328 0.0176393 0.00709182
0.358369 0.0174121 0.0072229
0.352353 0.0173663 0.00734374
0.35852 0.0181378 0.00700787
0.358174 0.0167683 0.00795885
0.358424 0.0181043 0.0070079
0.358125 0.0171832 0.00750667
0.352413 0.0184774 0.00687057
0.358035 0.0166353 0.00814872
0.358241 0.0172546 0.00739127
0.351758 0.0157479 0.00832327
0.357944 0.0166242 0.00818773
0.358371 0.0179226 0.0070983
0.352297 0.0175101 0.00726473
0.352317 0.0175976 0.00722044
0.358427 0.0172765 0.007313
0.35835 0.0177283 0.00705131
0.358311 0.0175513 0.00713591
0.358576 0.0179741 0.00699973
0.352195 0.0170718 0.00748621
0.358425 0.0185537 0.00702777
0.3582 0.0174539 0.00722327
0.358083 0.0170591 0.0076575
0.352127 0.0163847 0.00783994
0.352589 0.0180146 0.00702369
0.351738 0.0156925 0.00840432
0.352392 0.0175414 0.00725513
0.351916 0.0159385 0.00805787
0.352278 0.0174226 0.00730901
0.352141 0.0164729 0.00779491
0.357979 0.0167496 0.00803616
0.352355 0.0181985 0.0069655
0.352279 0.0178287 0.00709714
0.352166 0.0165594 0.00775153
0.352037 0.0160365 0.00801536
0.352274 0.017596 0.0073106
0.352104 0.0162977 0.00788375
0.0219312 0.0187687 0.00551176
0.352214 0.0167328 0.00766448
0.358504 0.017877 0.00708048
0.352261 0.017745 0.00714905
0.352532 0.0184774 0.00695571
0.352062 0.016734 0.00774829
0.352434 0.0181357 0.00698537
0.358216 0.0175226 0.0071524
0.352317 0.0180127 0.0070288
0.352469 0.0183222 0.00692192
0.352336 0.0181056 0.00699715
0.35245 0.0182293 0.00695357
0.358463 0.0183005 0.00701596
0.3521 0.0170423 0.00749481
0.358349 0.01817 0.007012
0.351862 0.0160835 0.00797837
0.352302 0.0171164 0.00747054
0.35195 0.0164597 0.00789863
0.352349 0.0179432 0.00714546
0.352368 0.0180355 0.0071119
0.358311 0.0179739 0.00700395
0.352163 0.0173039 0.00736281
0.358386 0.0179082 0.00700041
0.352411 0.0176291 0.00721073
0.352393 0.0183845 0.00690216
0.358366 0.0178098 0.00699579
0.358222 0.0171924 0.00746705
0.358356 0.0180212 0.00708991
0.346406 0.0184577 0.00696942
0.358002 0.0168107 0.00796054
0.352143 0.0172179 0.00740927
0.358407 0.0184587 0.00705278
0.352587 0.0184501 0.00687706
0.352528 0.0181695 0.00697244
0.352469 0.0178918 0.00707766
0.346082 0.0170439 0.00764092
0.352525 0.0177481 0.00715667
0.352644 0.0182951 0.00692819
0.352059 0.0161236 0.00797147
0.352547 0.0182626 0.00694072
0.352197 0.0168196 0.00761795
0.358292 0.0174677 0.00718744
0.352665 0.0183908 0.00689553
0.352027 0.0163792 0.00783569
0.352066 0.0165495 0.00774964
0.351938 0.0160277 0.00801284
0.35257 0.017922 0.00706912
0.352238 0.0172469 0.00739787
0.358079 0.0167584 0.00799734
0.358097 0.016821 0.00792152
0.352567 0.018356 0.00690891
0.358271 0.0177764 0.00699582
0.358181 0.0170688 0.00761896
0.346311 0.0180067 0.00716129
0.351842 0.0159983 0.00802665
0.358444 0.0182023 0.00701193
0.352203 0.0174789 0.0072743
0.358233 0.0175935 0.00722076
0.352336 0.0176852 0.00717611
0.358521 0.0176937 0.00705048
0.352111 0.0167242 0.0076616
0.35814 0.0169452 0.00777058
0.352604 0.0181081 0.00699189
0.34633 0.0180948 0.00711768
0.346275 0.0178306 0.00724852
0.352488 0.0184152 0.00689059
0.351992 0.0166065 0.00771462
0.352468 0.0187584 0.00689973
0.352298 0.0179198 0.00706045
0.358104 0.0171207 0.00758177
0.351949 0.0164322 0.00780252
0.352056 0.016868 0.00758275
0.352078 0.0169551 0.00753878
0.345974 0.016607 0.00785894
0.346039 0.0168691 0.00772812
0.345953 0.0165195 0.00790258
0.352081 0.0162107 0.00792756
0.35245 0.0178043 0.00712216
0.345996 0.0166944 0.00781532
0.34619 0.0174808 0.00742292
0.351884 0.0161716 0.00793618
0.352333 0.0178534 0.0071867
0.346125 0.0172187 0.00755372
0.351982 0.0162029 0.00792453
0.358271 0.0173845 0.0072387
0.346211 0.0175682 0.00737932
0.346387 0.0183648 0.00700101
0.346147 0.017306 0.00751012
0.35245 0.0186647 0.00687015
0.352432 0.0185704 0.00683932
0.352188 0.0166465 0.00770765
0.352446 0.0179767 0.0071312
0.346233 0.0176555 0.00733573
0.352412 0.0180435 0.00701684
0.352152 0.0170707 0.00757655
0.352314 0.0177658 0.00723098
0.346104 0.0171313 0.00759732
0.352122 0.0171611 0.0075457
0.346425 0.0185506 0.00693783
0.352355 0.0177728 0.00713173
0.352004 0.0162911 0.0078801
0.352373 0.0174538 0.00729943
0.352431 0.0177167 0.00716638
0.358267 0.0177679 0.00713033
0.352394 0.0181251 0.00707621
0.346293 0.0179187 0.00720491
0.352042 0.0164756 0.00781371
0.346255 0.0177427 0.00729214
0.351917 0.0163416 0.00794594
0.35196 0.0161153 0.00796872
0.351905 0.0162578 0.00789046
0.352215 0.017333 0.00744354
0.346505 0.0184936 0.00695591
0.346349 0.0181832 0.00707478
0.352374 0.0178605 0.00708729
0.346017 0.0167818 0.00777172
0.352013 0.0166937 0.00767065
0.35211 0.0168418 0.00766294
0.352741 0.0183281 0.00691545
0.35197 0.0165206 0.00776104
0.352495 0.0179823 0.00704384
0.351819 0.0159228 0.00808804
0.352173 0.0169846 0.00753017
0.352566 0.0187938 0.00691374
0.35249 0.018296 0.00701603
0.352129 0.0169835 0.00761992
0.352036 0.0167818 0.00762903
0.346367 0.0182719 0.0070326
0.351927 0.016345 0.00784649
0.358253 0.0176927 0.00704745
0.34606 0.0169565 0.00768452
0.346168 0.0173934 0.00746652
0.358184 0.0173786 0.00728714

VERTICES 273 546
1 0
1 1
1 2
1 3
1 4
1 5
1 6
1 7
1 8
1 9
1 10
1 11
1 12
1 13
1 14
1 15
1 16
1 17
1 18
1 19
1 20
1 21
1 22
1 23
1 24
1 25
1 26
1 27
1 28
1 29
1 30
1 31
1 32
1 33
1 34
1 35
1 36
1 37
1 38
1 39
1 40
1 41
1 42
1 43
1 44
1 45
1 46
1 47
1 48
1 49
1 50
1 51
1 52
1 53
1 54
1 55
1 56
1 57
1 58
1 59
1 60
1 61
1 62
1 63
1 64
1 65
1 66
1 67
1 68
1 69
1 70
1 71
1 72
1 73
1 74
1 75
1 76
1 77
1 78
1 79
1 80
1 81
1 82
1 83
1 84
1 85
1 86
1 87
1 88
1 89
1 90
1 91
1 92
1 93
1 94
1 95
1 96
1 97
1 98
1 99
1 100
1 101
1 102
1 103
1 104
1 105
1 106
1 107
1 108
1 109
1 110
1 111
1 112
1 113
1 114
1 115
1 116
1 117
1 118
1 119
1 120
1 121
1 122
1 123
1 124
1 125
1 126
1 127
1 128
1 129
1 130
1 131
1 132
1 133
1 134
1 135
1 136
1 137
1 138
1 139
1 140
1 141
1 142
1 143
1 144
1 145
1 146
1 147
1 148
1 149
1 150
1 151
1 152
1 153
1 154
1 155
1 156
1 157
1 158
1 159
1 160
1 161
1 162
1 163
1 164
1 165
1 166
1 167
1 168
1 169
1 170
1 171
1 172
1 173
1 174
1 175
1 176
1 177
1 178
1 179
1 180
1 181
1 182
1 183
1 184
1 185
1 186
1 187
1 188
1 189
1 190
1 191
1 192
1 193
1 194
1 195
1 196
1 197
1 198
1 199
1 200
1 201
1 202
1 203
1 204
1 205
1 206
1 207
1 208
1 209
1 210
1 211
1 212
1 213
1 214
1 215
1 216
1 217
1 218
1 219
1 220
1 221
1 222
1 223
1 224
1 225
1 226
1 227
1 228
1 229
1 230
1 231
1 232
1 233
1 234
1 235
1 236
1 237
1 238
1 239
1 240
1 241
1 242
1 243
1 244
1 245
1 246
1 247
1 248
1 249
1 250
1 251
1 252
1 253
1 254
1 255
1 256
1 257
1 258
1 259
1 260
1 261
1 262
1 263
1 264
1 265
1 266
1 267
1 268
1 269
1 270
1 271
1 272

POINT_DATA 273
SCALARS id int 1
LOOKUP_TABLE default
1
2
4
5
6
7
8
9
10
11
12
13
14
16
17
19
21
22
23
24
26
27
28
29
30
31
32
33
35
36
37
38
39
41
42
44
45
47
48
49
50
51
52
53
54
55
56
57
59
60
61
62
63
64
65
66
67
68
69
70
71
72
73
74
76
77
78
79
80
82
83
84
85
86
87
88
89
90
91
92
93
94
95
96
97
98
99
100
101
102
103
104
105
106
107
108
109
110
111
112
113
114
115
116
117
118
119
120
121
122
123
124
125
127
128
129
130
131
132
133
134
135
136
137
138
140
141
142
143
144
146
147
148
149
150
151
153
154
155
156
157
158
159
160
162
164
165
166
167
168
169
170
171
172
173
174
176
177
178
179
182
183
184
185
186
187
188
189
190
191
192
193
194
195
196
197
198
199
200
201
202
203
204
205
206
207
208
209
210
211
212
213
214
215
216
217
218
219
220
222
224
225
226
227
228
229
230
232
233
234
235
236
237
239
240
241
242
243
244
246
247
248
249
250
251
252
253
254
255
256
257
258
259
260
261
262
263
264
265
266
267
268
269
270
271
272
273
274
275
276
277
278
279
280
281
283
284
285
286
287
288
289
290
291
292
293
294
295
296
297
298
299
300

SCALARS type int 1
LOOKUP_TABLE default
1
1
1
1
1
1
1
1
1
1
1
1
1
1
1
1
1
1
1
1
1
1
1
1
1
1
1
1
1
1
1
1
1
1
1
1
1
1
1
1
1
1
1
1
1
1
1
1
1
1
1
1
1
1
1
1
1
1
1
1
1
1
1
1
1
1
1
1
1
1
1
1
1
1
1
1
1
1
1
1
1
1
1
1
1
1
1
1
1
1
1
1
1
1
1
1
1
1
1
1
1
1
1
1
1
1
1
1
1
1
1
1
1
1
1
1
1
1
1
1
1
1
1
1
1
1
1
1
1
1
1
1
1
1
1
1
1
1
1
1
1
1
1
1
1
1
1
1
1
1
1
1
1
1
1
1
1
1
1
1
1
1
1
1
1
1
1
1
1
1
1
1
1
1
1
1
1
1
1
1
1
1
1
1
1
1
1
1
1
1
1
1
1
1
1
1
1
1
1
1
1
1
1
1
1
1
1
1
1
1
1
1
1
1
1
1
1
1
1
1
1
1
1
1
1
1
1
1
1
1
1
1
1
1
1
1
1
1
1
1
1
1
1
1
1
1
1
1
1
1
1
1
1
1
1
1
1
1
1
1
1
1
1
1
1
1
1
1
1
1
1
1
1

SCALARS radius float 1
LOOKUP_TABLE default
5e-05
5e-05
5e-05
5e-05
5e-05
5e-05
5e-05
5e-05
5e-05
5e-05
5e-05
5e-05
5e-05
5e-05
5e-05
5e-05
5e-05
5e-05
5e-05
5e-05
5e-05
5e-05
5e-05
5e-05
5e-05
5e-05
5e-05
5e-05
5e-05
5e-05
5e-05
5e-05
5e-05
5e-05
5e-05
5e-05
5e-05
5e-05
5e-05
5e-05
5e-05
5e-05
5e-05
5e-05
5e-05
5e-05
5e-05
5e-05
5e-05
5e-05
5e-05
5e-05
5e-05
5e-05
5e-05
5e-05
5e-05
5e-05
5e-05
5e-05
5e-05
5e-05
5e-05
5e-05
5e-05
5e-05
5e-05
5e-05
5e-05
5e-05
5e-05
5e-05
5e-05
5e-05
5e-05
5e-05
5e-05
5e-05
5e-05
5e-05
5e-05
5e-05
5e-05
5e-05
5e-05
5e-05
5e-05
5e-05
5e-05
5e-05
5e-05
5e-05
5e-05
5e-05
5e-05
5e-05
5e-05
5e-05
5e-05
5e-05
5e-05
5e-05
5e-05
5e-05
5e-05
5e-05
5e-05
5e-05
5e-05
5e-05
5e-05
5e-05
5e-05
5e-05
5e-05
5e-05
5e-05
5e-05
5e-05
5e-05
5e-05
5e-05
5e-05
5e-05
5e-05
5e-05
5e-05
5e-05
5e-05
5e-05
5e-05
5e-05
5e-05
5e-05
5e-05
5e-05
5e-05
5e-05
5e-05
5e-05
5e-05
5e-05
5e-05
5e-05
5e-05
5e-05
5e-05
5e-05
5e-05
5e-05
5e-05
5e-05
5e-05
5e-05
5e-05
5e-05
5e-05
5e-05
5e-05
5e-05
5e-05
5e-05
5e-05
5e-05
5e-05
5e-05
5e-05
5e-05
5e-05
5e-05
5e-05
5e-05
5e-05
5e-05
5e-05
5e-05
5e-05
5e-05
5e-05
5e-05
5e-05
5e-05
5e-05
5e-05
5e-05
5e-05
5e-05
5e-05
5e-05
5e-05
5e-05
5e-05
5e-05
5e-05
5e-05
5e-05
5e-05
5e-05
5e-05
5e-05
5e-05
5e-05
5e-05
5e-05
5e-05
5e-05
5e-05
5e-05
5e-05
5e-05
5e-05
5e-05
5e-05
5e-05
5e-05
5e-05
5e-05
5e-05
5e-05
5e-05
5e-05
5e-05
5e-05
5e-05
5e-05
5e-05
5e-05
5e-05
5e-05
5e-05
5e-05
5e-05
5e-05
5e-05
5e-05
5e-05
5e-05
5e-05
5e-05
5e-05
5e-05
5e-05
5e-05
5e-05
5e-05
5e-05
5e-05
5e-05
5e-05
5e-05
5e-05
5e-05
5e-05
5e-05
5e-05
5e-05
5e-05
5e-05
5e-05
5e-05
5e-05
5e-05
5e-05
5e-05
5e-05
5e-05
5e-05
5e-05
5e-05
5e-05
5e-05
5e-05
5e-05

SCALARS mass float 1
LOOKUP_TABLE default
1.46608e-10
1.46608e-10
1.46608e-10
1.46608e-10
1.46608e-10
1.46608e-10
1.46608e-10
1.46608e-10
1.46608e-10
1.46608e-10
1.46608e-10
1.46608e-10
1.46608e-10
1.46608e-10
1.46608e-10
1.46608e-10
1.46608e-10
1.46608e-10
1.46608e-10
1.46608e-10
1.46608e-10
1.46608e-10
1.46608e-10
1.46608e-10
1.46608e-10
1.46608e-10
1.46608e-10
1.46608e-10
1.46608e-10
1.46608e-10
1.46608e-10
1.46608e-10
1.46608e-10
1.46608e-10
1.46608e-10
1.46608e-10
1.46608e-10
1.46608e-10
1.46608e-10
1.46608e-10
1.46608e-10
1.46608e-10
1.46608e-10
1.46608e-10
1.46608e-10
1.46608e-10
1.46608e-10
1.46608e-10
1.46608e-10
1.46608e-10
1.46608e-10
1.46608e-10
1.46608e-10
1.46608e-10
1.46608e-10
1.46608e-10
1.46608e-10
1.46608e-10
1.46608e-10
1.46608e-10
1.46608e-10
1.46608e-10
1.46608e-10
1.46608e-10
1.46608e-10
1.46608e-10
1.46608e-10
1.46608e-10
1.46608e-10
1.46608e-10
1.46608e-10
1.46608e-10
1.46608e-10
1.46608e-10
1.46608e-10
1.46608e-10
1.46608e-10
1.46608e-10
1.46608e-10
1.46608e-10
1.46608e-10
1.46608e-10
1.46608e-10
1.46608e-10
1.46608e-10
1.46608e-10
1.46608e-10
1.46608e-10
1.46608e-10
1.46608e-10
1.46608e-10
1.46608e-10
1.46608e-10
1.46608e-10
1.46608e-10
1.46608e-10
1.46608e-10
1.46608e-10
1.46608e-10
1.46608e-10
1.46608e-10
1.46608e-10
1.46608e-10
1.46608e-10
1.46608e-10
1.46608e-10
1.46608e-10
1.46608e-10
1.46608e-10
1.46608e-10
1.46608e-10
1.46608e-10
1.46608e-10
1.46608e-10
1.46608e-10
1.46608e-10
1.46608e-10
1.46608e-10
1.46608e-10
1.46608e-10
1.46608e-10
1.46608e-10
1.46608e-10
1.46608e-10
1.46608e-10
1.46608e-10
1.46608e-10
1.46608e-10
1.46608e-10
1.46608e-10
1.46608e-10
1.46608e-10
1.46608e-10
1.46608e-10
1.46608e-10
1.46608e-10
1.46608e-10
1.46608e-10
1.46608e-10
1.46608e-10
1.46608e-10
1.46608e-10
1.46608e-10
1.46608e-10
1.46608e-10
1.46608e-10
1.46608e-10
1.46608e-10
1.46608e-10
1.46608e-10
1.46608e-10
1.46608e-10
1.46608e-10
1.46608e-10
1.46608e-10
1.46608e-10
1.46608e-10
1.46608e-10
1.46608e-10
1.46608e-10
1.46608e-10
1.46608e-10
1.46608e-10
1.46608e-10
1.46608e-10
1.46608e-10
1.46608e-10
1.46608e-10
1.46608e-10
1.46608e-10
1.46608e-10
1.46608e-10
1.46608e-10
1.46608e-10
1.46608e-10
1.46608e-10
1.46608e-10
1.46608e-10
1.46608e-10
1.46608e-10
1.46608e-10
1.46608e-10
1.46608e-10
1.46608e-10
1.46608e-10
1.46608e-10
1.46608e-10
1.46608e-10
1.46608e-10
1.46608e-10
1.46608e-10
1.46608e-10
1.46608e-10
1.46608e-10
1.46608e-10
1.46608e-10
1.46608e-10
1.46608e-10
1.46608e-10
1.46608e-10
1.46608e-10
1.46608e-10
1.46608e-10
1.46608e-10
1.46608e-10
1.46608e-10
1.46608e-10
1.46608e-10
1.46608e-10
1.46608e-10
1.46608e-10
1.46608e-10
1.46608e-10
1.46608e-10
1.46608e-10
1.46608e-10
1.46608e-10
1.46608e-10
1.46608e-10
1.46608e-10
1.46608e-10
1.46608e-10
1.46608e-10
1.46608e-10
1.46608e-10
1.46608e-10
1.46608e-10
1.46608e-10
1.46608e-10
1.46608e-10
1.46608e-10
1.46608e-10
1.46608e-10
1.46608e-10
1.46608e-10
1.46608e-10
1.46608e-10
1.46608e-10
1.46608e-10
1.46608e-10
1.46608e-10
1.46608e-10
1.46608e-10
1.46608e-10
1.46608e-10
1.46608e-10
1.46608e-10
1.46608e-10
1.46608e-10
1.46608e-10
1.46608e-10
1.46608e-10
1.46608e-10
1.46608e-10
1.46608e-10
1.46608e-10
1.46608e-10
1.46608e-10
1.46608e-10
1.46608e-10
1.46608e-10
1.46608e-10
1.46608e-10
1.46608e-10
1.46608e-10
1.46608e-10
1.46608e-10
1.46608e-10
1.46608e-10
1.46608e-10
1.46608e-10
1.46608e-10
1.46608e-10

VECTORS velocity float
0.0056238 0.000196099 -8.23552e-05
0.00574727 -0.000719665 -0.000850438
0.00601184 -0.000582601 -0.00107881
0.00458912 -0.00283224 0.00435628
0.00599416 -0.000178838 6.72221e-05
0.00540083 0.000348336 -0.000141178
0.00564154 -0.000666985 -0.000876922
0.00576653 -0.000156327 4.96638e-05
0.00577582 -0.000640439 -0.000945641
0.00561247 0.000291428 -7.83192e-05
0.00561145 -0.000165401 0.000484949
0.00475471 -0.00284186 0.00440881
0.00562046 -0.000412915 4.39901e-05
0.00561711 -0.000392384 3.94693e-05
0.00558833 -0.000675498 -0.000852203
0.00559516 0.000252579 -7.60331e-05
0.00555743 0.00030146 -0.000116621
0.00587831 -0.000666605 -0.000946357
0.00548989 -0.000502639 7.9056e-05
0.00559759 -0.000125532 3.58495e-05
0.00561765 -0.00012129 3.27153e-05
0.00600729 -0.00020894 0.000535805
0.00561928 0.000256118 -3.25568e-05
0.00467185 -0.00282818 0.00437213
0.00523075 -0.000554906 -0.00088377
0.00562353 0.000327209 -0.000122172
-0.399013 0.00752863 -0.00125647
0.00599641 -0.000180641 6.83365e-05
0.00565794 5.4297e-05 -0.000475931
0.00555757 -9.69233e-05 4.44005e-05
0.00591367 -0.00059467 -0.00103569
0.00595959 -0.000629062 -0.00101104
0.00559054 -0.000121616 3.37369e-05
0.0045989 -0.00281849 0.00435336
0.00604269 -0.0006759 -0.00100055
0.00552436 0.000311704 -0.000116988
0.00599734 -0.000183527 7.00638e-05
0.00460756 -0.002801 0.00434426
0.00565654 0.000103178 -3.31122e-06
0.00562211 -0.000111177 4.49777e-05
-0.182532 0.135798 0.0698184
0.00546748 0.000342612 -7.15251e-05
0.00555886 -0.000151389 0.00047341
0.00569677 -0.000136639 4.20753e-05
0.00557789 0.000266186 -7.59903e-05
0.00597014 8.50348e-05 0.000379794
0.00559813 0.000253041 -7.7262e-05
0.00565658 -0.000126029 3.63626e-05
-5.0194e-15 -7.41213e-15 7.69803e-14
0.00558329 0.000315154 -0.000118898
0.00458169 -0.00282591 0.00434718
0.00578111 -0.000523056 -0.00097514
0.00559207 0.000285329 -7.58297e-05
0.00574243 -0.000144984 4.79411e-05
0.00576374 -7.22033e-06 0.000410217
0.00545757 -0.000339839 0.000127906
0.0056052 0.000293493 -9.42013e-05
0.00599708 -0.000724765 -0.000860763
0.00562564 0.000284659 -7.61093e-05
0.00571982 -0.000140608 4.4852e-05
0.00562302 -0.00039653 3.6763e-05
0.005625 0.000285155 -7.72896e-05
0.00612087 -0.000680047 -0.00100263
0.0051391 -0.000505403 -0.000915803
0.00597534 -0.000179711 0.000518969
0.00578454 -0.000738659 -0.000842409
0.00548803 -0.000458121 8.8536e-05
0.00556993 -0.000378825 4.29964e-05
0.00579971 -0.000720067 -0.000862502
0.00557058 -0.000303551 1.22061e-05
0.00555244 -0.000193517 0.000494795
0.00556961 -9.77056e-05 4.38261e-05
0.00554661 -0.000352795 2.81284e-05
0.00548589 0.000305444 -0.000115734
0.00574526 -0.000713941 -0.000852464
0.00545094 -0.0014015 -0.00156993
0.00561543 0.000286835 -7.63064e-05
0.00560914 0.000291353 -7.7051e-05
0.00521815 -0.000210684 0.00048016
0.00585987 -0.000596373 -0.000649526
0.00565297 0.000185288 -0.000109366
0.00560667 0.000273162 -7.47007e-05
0.00561089 0.000182848 -8.18971e-05
0.00591535 -0.000840106 -0.000848113
0.00564651 -0.000484916 0.000110801
0.00546567 -0.000630606 -0.000866861
0.00548058 -0.000167631 0.000479039
0.0054906 0.000325739 -0.000130807
0.00551572 -0.000188793 0.000489379
4.32608e-15 1.04608e-14 8.29619e-14
-1.23235e-22 2.24983e-22 -5.81428e-22
0.00550358 -0.000398114 3.56374e-05
0.00591925 -0.000531807 0.000150011
0.00540878 -5.15143e-05 0.000406584
0.00550096 -0.000460397 9.08358e-05
0.00561018 0.000281657 -7.64792e-05
0.00558407 0.000250006 -7.69014e-05
0.00580464 8.87063e-05 -8.98171e-05
0.00571633 -0.000705444 -0.000853081
0.00543774 -0.000164944 0.000475505
0.00592074 -0.000188719 0.000516869
0.00536663 -0.000121164 0.00044571
0.00538963 0.000312837 -0.000121663
0.0054698 0.000300733 -5.15198e-05
0.0054183 0.000347388 -0.000145355
0.00534069 -0.000232946 0.000500733
0.00562175 0.000282535 -7.59073e-05
0.00579346 -0.000647422 -0.000942992
0.00560545 0.00027129 -7.63142e-05
0.00587992 -0.000831573 -0.000856132
0.00562187 -0.000401096 1.65735e-05
0.00562119 -0.00066798 -0.000871096
0.00574885 -0.00110623 -0.00124976
0.00551422 -0.000463211 9.32683e-05
0.00544718 -0.000635703 -0.000856691
0.00561822 0.000263944 -6.39348e-05
0.00544911 -0.000192078 0.000487104
0.00552201 -0.000216397 0.000510153
0.00558132 -0.000424934 -0.00113623
0.00565249 0.000242135 -6.10575e-05
0.00551944 0.000280728 -9.19854e-05
0.00562689 0.000288079 -7.68419e-05
0.00593788 -0.000165403 0.000508087
0.00555365 0.000247259 -7.56789e-05
0.00580508 2.00987e-05 -2.16252e-05
0.00579369 -0.000747675 -0.000830633
0.00605016 -0.000209213 0.00053922
0.00548347 -0.000412296 5.01056e-05
0.00550443 -0.00046243 9.3512e-05
0.00551119 -0.000236154 0.000516652
0.00614219 -0.00025362 0.000569399
0.00539477 -0.000175836 0.000475787
0.00604088 -0.000204347 0.00053557
0.00563755 -0.000690003 -0.00085003
0.00551424 -0.000377272 3.65466e-05
0.00544201 -0.000159045 0.000470418
0.0060242 -0.00019622 0.00053046
0.00611257 -0.000228196 0.000553402
0.00545095 -0.000165198 0.000495543
0.00606243 -0.00021578 0.000543392
-3.83174e-14 8.16506e-14 2.95894e-13
0.00598814 -0.000181259 0.000520089
0.00548917 0.000421279 -5.88238e-05
0.00554397 -0.000201254 0.000499095
0.00561601 -0.000394992 3.72728e-05
0.00600169 -0.000213593 0.000536638
0.0054991 -0.000374387 3.50392e-05
0.00565928 0.000104191 1.73099e-05
0.00547555 -0.000344426 2.99776e-05
0.00558602 -0.00038684 3.8325e-05
0.00548874 -0.000374648 3.48222e-05
0.00553504 -0.000376113 3.57237e-05
0.00560019 0.000267204 -7.68088e-05
0.00594573 -0.000190236 0.000521694
0.00558312 0.000255598 -7.76107e-05
0.00610267 -0.00024913 0.000563542
0.00615771 0.000378439 0.000240527
0.00603553 -0.000247201 0.00055747
0.00533598 -0.000215368 0.000225181
0.00537831 -0.000262744 8.00066e-05
0.00560908 0.000253726 -6.06693e-05
0.00546242 -0.000124069 0.000452933
0.00561152 0.0002747 -6.76495e-05
0.00555548 -0.000234641 0.000518231
0.00560441 -0.000365308 3.07596e-05
0.0056442 0.00022222 -7.89175e-05
0.00597985 -0.00080406 -0.000946922
0.00559943 0.000260076 -7.56256e-05
0.00587162 0.00136231 -0.000542343
0.00571347 -0.000709939 -0.000847523
0.00573613 -0.000160045 0.000485767
0.00556809 0.000247502 -7.29079e-05
0.00562189 -0.000400457 4.21968e-05
0.00551074 -0.000406286 4.65344e-05
0.00547367 -0.000131976 0.000461386
0.0061936 0.00102626 -0.00111669
0.00555539 -0.00017374 0.000484626
0.00557634 -0.000440805 5.77432e-05
0.006096 -0.000225447 0.000550758
0.00554584 -0.000438245 5.66748e-05
0.00598186 -0.000179508 0.000518814
0.00574385 0.000250522 -7.68814e-05
0.00561728 -0.000408365 4.58116e-05
0.00604182 -0.000241327 0.000555444
0.00601057 -0.000231345 0.00054785
0.00611321 -0.000238393 0.000558798
0.00552906 -0.000124905 0.00044869
0.0056517 7.19614e-05 0.000364163
0.00573472 -0.000695734 -0.000871672
0.00573641 -0.000699662 -0.000866872
0.00560485 -0.000409856 4.88269e-05
0.00581807 0.000258373 -8.07479e-05
0.00584155 -0.000724123 -0.000883057
0.00569235 0.00115076 -0.00112723
0.00613643 -0.000314193 0.000461338
0.00560322 0.000267682 -7.69015e-05
0.00541971 -0.000148972 0.000466228
0.00576526 0.000200031 -0.000102986
0.00555428 -0.000212794 0.000505919
0.00560604 0.000282716 -9.69601e-05
0.00599356 -0.000199226 0.000529819
0.0057791 -0.000722847 -0.000844697
0.00550408 -0.000416183 4.97736e-05
0.00571795 0.00114053 -0.00112184
0.00568651 0.00113583 -0.00111631
0.00561842 -0.000395982 3.73182e-05
0.00601144 -0.000229532 0.000547095
0.00555996 -0.000402094 3.46442e-05
0.00544357 -0.000338272 2.65236e-05
0.00580106 -0.00075932 -0.000827619
0.00604062 -0.000241701 0.000555743
0.0059716 -0.000202526 0.000530527
0.00596034 -0.000194751 0.000525596
0.00634823 0.00127011 -0.00124801
0.00622881 0.00101775 -0.00111604
0.00635216 0.00120939 -0.00121963
0.00607964 -0.000221477 0.000547849
0.00552648 -0.000155468 0.00048096
0.00626643 0.00101536 -0.00111897
0.00610044 0.00104353 -0.00111513
0.00608546 -0.000248287 0.000563392
0.00541093 -0.000160372 0.000402474
0.00615861 0.0010367 -0.00111817
0.00608073 -0.000238061 0.000556363
0.0059372 0.000224643 -5.3389e-05
0.00616582 0.00102972 -0.00111547
0.00584998 0.00138271 -0.000548351
0.00614058 0.00104008 -0.00111776
0.00560272 -0.000405269 3.85854e-05
0.00564898 -0.000401911 3.66797e-05
0.00600315 -0.000188508 0.000525064
0.00534522 -0.000263616 0.000195705
0.00652607 0.000947855 -0.00111334
0.00549086 -0.000369093 4.92106e-05
0.0059464 -0.000167491 0.000511131
0.00556082 -0.000174431 0.000473061
0.00617633 0.00103191 -0.00111759
0.00593236 -0.000171559 0.000509168
0.00589468 0.0013483 -0.000537164
0.00554417 -0.000201865 0.000500417
0.00606358 -0.000233967 0.000552865
0.00544632 -0.000185699 0.000482697
0.00555848 -0.000193111 0.000493103
0.00552547 9.09312e-05 -0.000343981
0.00546844 -0.000304405 3.00912e-05
0.00568109 0.00114453 -0.00112074
0.00604231 -0.000217828 0.000545796
0.0067956 0.000886743 -0.00111117
0.00606115 -0.000251953 0.000559105
0.00609594 -0.000239418 0.000558017
0.00607008 -0.00024796 0.000561482
0.00545096 -1.03328e-05 0.000417792
0.0058858 0.00132813 -0.000530306
0.00573732 0.00116899 -0.00104065
0.00539825 -0.000179195 0.000481613
0.00624837 0.00101629 -0.00111772
0.00599801 -0.000220903 0.000541896
0.00598236 -0.000192471 0.000525199
0.00560906 -0.00041687 4.80573e-05
0.0060264 -0.00023555 0.000551431
0.00550686 -0.000186692 0.000299471
0.00609459 -0.000465778 0.000257868
0.00596068 -0.000175652 0.000516079
0.00552128 -0.000366267 4.47736e-05
0.0055575 -0.000393743 4.46352e-05
0.00596228 -0.000171537 0.000518831
0.00598352 -0.000211238 0.000535381
0.00581999 0.00139289 -0.000545978
0.00605412 -0.000246049 0.000558487
0.00576642 0.000266169 -8.62534e-05
0.00621184 0.0010211 -0.00111619
0.00612464 0.0010417 -0.00111721
0.00583687 -0.00020562 -0.000267003

VECTORS force float
1.5159e-10 3.02881e-10 -1.66489e-11
1.62701e-10 -2.27877e-10 2.09882e-10
-5.03107e-11 1.6799e-10 -1.93636e-10
-9.64843e-11 2.52697e-10 -2.75689e-10
-3.42689e-12 -2.92649e-11 1.96372e-11
-1.25975e-10 4.31543e-11 1.30937e-10
-4.94517e-11 -6.50756e-11 8.8751e-11
9.35272e-10 -1.26453e-10 -1.11925e-10
-4.29663e-11 -4.6503e-11 6.66832e-11
-1.49957e-10 8.45933e-11 5.84638e-11
-3.04449e-10 -3.89915e-11 -5.81584e-12
1.05839e-10 1.63688e-10 -1.51819e-10
-2.29102e-11 7.23579e-12 -3.27947e-11
1.0593e-11 4.81622e-11 -1.35733e-11
1.36274e-10 1.30275e-11 -4.08002e-11
4.50697e-11 1.68599e-11 1.28445e-11
-6.70207e-11 -4.68979e-11 1.13034e-10
2.9783e-10 -4.45029e-11 -6.85698e-11
-9.01506e-11 4.7247e-11 -1.24655e-11
2.24064e-10 -6.06099e-12 1.70404e-11
6.43351e-11 2.28304e-11 2.05399e-11
-1.45473e-11 -7.40577e-12 -1.05355e-11
7.28003e-11 -1.51864e-10 -2.65005e-12
-2.31388e-10 1.37313e-10 -2.44431e-10
-1.10063e-10 -3.03062e-11 3.72593e-11
-2.69101e-12 -5.31263e-12 9.16417e-12
0.0 0.0 -1.43822e-09
-1.24685e-11 -2.06357e-11 1.30289e-11
-5.13136e-11 1.43026e-10 3.05115e-10
5.94876e-12 1.46698e-11 -3.16035e-12
1.00691e-10 -1.02712e-10 8.4437e-11
-1.29036e-10 -1.75098e-10 5.01318e-10
-4.49174e-11 1.16872e-10 -6.28722e-11
-2.42249e-10 2.22256e-10 -3.19361e-10
1.50505e-11 -3.09852e-10 5.91122e-10
8.45699e-11 8.08381e-11 -6.73007e-11
1.56431e-11 -7.51906e-12 7.72053e-12
7.1079e-11 2.73095e-10 -3.50148e-10
-3.69823e-10 -4.95755e-10 2.99742e-11
-1.33419e-10 -1.50728e-10 -4.10483e-13
0.0 0.0 -1.43822e-09
1.04589e-12 9.77338e-11 8.03439e-12
3.57169e-10 3.49128e-10 -2.22008e-10
-2.28546e-11 2.01178e-11 -9.92819e-12
5.79868e-12 -3.71551e-11 -9.0521e-12
8.45562e-12 1.10891e-11 4.90208e-13
-4.34141e-12 -3.04738e-11 -2.34817e-12
-2.08534e-11 -3.75784e-12 3.96331e-12
5.94536e-25 4.67874e-24 6.20385e-25
1.23974e-10 1.54485e-10 -1.34253e-10
-2.54946e-10 2.45501e-10 -3.70011e-10
-1.06068e-10 9.81858e-11 5.44502e-10
-2.08219e-11 -3.68071e-11 -6.24055e-13
-9.58822e-11 4.03717e-11 -4.28272e-12
1.23541e-10 2.92486e-11 3.74471e-11
1.24351e-10 -2.82982e-10 1.37085e-10
-2.34178e-11 -1.27415e-10 -3.9085e-11
4.5201e-11 3.77263e-10 -1.25139e-10
2.36861e-10 1.41632e-11 -8.08327e-12
-4.5226e-10 -1.44422e-10 6.22972e-11
-4.22567e-11 4.71843e-11 -5.60001e-12
1.3352e-10 7.73713e-11 -2.74512e-11
3.60417e-11 -6.75228e-10 7.19076e-10
5.29419e-11 -2.04409e-10 1.40557e-10
1.25622e-11 6.23699e-12 -4.75148e-12
2.84005e-10 -2.86786e-10 2.33144e-10
-1.2279e-10 9.76443e-11 -1.24145e-10
4.88035e-11 3.86485e-11 -9.87502e-12
4.93868e-10 -6.32116e-11 -1.64724e-10
-8.26153e-11 -3.96287e-12 4.19474e-11
-1.47185e-10 1.13083e-10 -3.95031e-11
-1.66418e-11 2.10184e-11 -6.16283e-12
6.58549e-12 8.8435e-11 -3.12153e-11
1.032e-10 -1.18385e-10 4.97301e-11
-7.22964e-11 -2.81591e-10 3.49495e-10
-2.1331e-10 -1.78478e-10 -4.33294e-10
2.54545e-12 1.2409e-10 6.72005e-12
-1.20043e-11 -1.37092e-11 5.04273e-11
1.99899e-10 -1.33209e-11 1.07655e-11
-1.4111e-11 3.14399e-11 -1.34142e-10
-2.25379e-10 -2.20481e-10 -3.10692e-10
1.63019e-12 -7.67232e-11 2.80263e-11
1.36751e-10 1.7281e-10 5.51953e-13
4.27912e-11 1.39553e-10 1.56599e-11
-8.50661e-11 4.08443e-11 -4.42124e-11
-2.65361e-11 2.89748e-10 -3.21015e-10
1.28402e-10 7.23361e-11 -3.86299e-11
-7.15825e-11 2.3504e-11 2.41415e-10
2.23819e-10 1.42727e-10 -6.19763e-11
7.78506e-22 -2.71419e-24 -4.69425e-23
0.0 0.0 0.0
5.41345e-11 -4.40134e-11 -2.72965e-11
-1.0102e-10 2.14236e-11 -2.83663e-11
-2.05965e-10 -4.37298e-10 1.99267e-10
5.39522e-11 1.06011e-10 -1.60559e-10
-5.65167e-11 6.19856e-11 1.12177e-11
-1.04262e-11 5.6516e-12 1.921e-12
-1.07109e-10 5.36087e-10 3.29322e-10
2.27173e-10 -1.37311e-10 1.22068e-10
-2.51577e-10 -1.10732e-10 1.20022e-10
-1.76715e-11 -5.01622e-11 2.39429e-11
-1.98362e-10 -2.40929e-10 8.93854e-11
-1.30143e-10 -2.68644e-10 1.75353e-10
-6.34285e-11 5.88569e-11 2.38578e-10
-5.94673e-11 1.0462e-11 4.66324e-11