# vtk DataFile Version 3.0
LIGGGHTS particles timestep 23800000
ASCII
DATASET POLYDATA
POINTS 279 float
0.152327 0.0176266 0.00727917
0.151882 0.0179443 0.00719611
0.151806 0.0172181 0.00735311
0.151253 0.0156498 0.00886815
0.157578 0.0166023 0.00766175
0.151487 0.0162313 0.00796435
0.151707 0.0167545 0.00751181
0.157758 0.0173947 0.00727486
0.151384 0.0159667 0.00837564
0.151966 0.0183341 0.00722286
0.145162 0.0154829 0.00924928
0.151232 0.015597 0.00895024
0.145224 0.0157402 0.00915787
0.145253 0.0158143 0.00909597
0.151362 0.0159138 0.00845772
0.15121 0.0155441 0.00903233
0.15204 0.0174585 0.00726962
0.151678 0.0165823 0.0075706
0.145603 0.016417 0.00843778
0.157696 0.0171309 0.00740357
0.151427 0.0160723 0.00821146
0.157791 0.0171612 0.00739227
0.146072 0.0179728 0.00715132
0.151881 0.0171528 0.0073735
0.151188 0.0154913 0.00911442
0.151765 0.0170329 0.00741654
0.151448 0.0161252 0.00812927
0.151647 0.0164755 0.00760733
0.157598 0.0166904 0.00761871
0.15134 0.015861 0.00853981
0.151822 0.0168782 0.00746751
0.1578 0.0175705 0.00718909
0.151744 0.0165109 0.00759322
0.151902 0.0172453 0.0073418
0.157716 0.0172189 0.00736062
0.151297 0.0157554 0.00870398
0.151518 0.0163379 0.00779796
0.151923 0.0173377 0.00731013
0.157617 0.0167785 0.00757568
0.151319 0.0158082 0.00862189
0.151988 0.0184316 0.00722955
0.157833 0.0173371 0.00730646
0.151612 0.0167254 0.00752381
0.151593 0.0166325 0.00755553
0.145141 0.0154074 0.00931139
0.157657 0.0169547 0.00748963
0.152135 0.0174853 0.00725561
0.145032 0.0151071 0.00970106
0.15154 0.016396 0.00771948
0.157637 0.0168666 0.00753266
0.378022 0.019866 0.005332
0.151997 0.0172728 0.0073304
0.151275 0.0157026 0.00878607
0.151945 0.0174301 0.00727846
0.152083 0.0184638 0.00724986
0.157676 0.0170428 0.0074466
0.146031 0.0183004 0.00707386
0.146064 0.0185758 0.00696809
0.152031 0.0178135 0.0072233
0.151966 0.0175238 0.00725094
0.152062 0.0175532 0.00724643
0.157737 0.0173068 0.00731774
0.145112 0.0154098 0.00947226
0.152148 0.0179427 0.00725036
0.151405 0.0160195 0.00829356
0.151726 0.0168473 0.00748005
0.145881 0.0175733 0.00749658
0.151935 0.0177814 0.00720303
0.144989 0.0148437 0.00975917
0.146053 0.0184831 0.00700387
0.15167 0.0170037 0.00742849
0.145227 0.0157089 0.00906294
0.145744 0.0169711 0.00798479
0.157779 0.0174826 0.00723197
0.145309 0.0155948 0.00912983
0.151785 0.0171256 0.0073848
0.151504 0.0162857 0.00788207
0.151907 0.0179359 0.00729251
0.151917 0.017831 0.00728795
0.151926 0.0181665 0.00732109
0.145183 0.0155584 0.00918718
0.152052 0.017911 0.00722995
0.151731 0.0172816 0.00733334
0.152039 0.0182663 0.00723597
0.151926 0.0180697 0.00729607
0.152074 0.0180093 0.00723701
0.1451 0.0152564 0.00943563
0.151711 0.017189 0.00736503
0.146098 0.0189108 0.00690842
0.151989 0.0176195 0.00723256
0.146176 0.0187031 0.00692562
0.0643568 0.0187248 0.00531097
0.24257 0.0191927 0.00520306
0.146349 0.0182887 0.00698211
0.145058 0.0151053 0.00955987
0.146226 0.0182529 0.00699235
0.14501 0.0149271 0.00970099
0.152084 0.0176502 0.00723015
0.151573 0.0165398 0.00758758
0.15186 0.0178473 0.00720731
0.151817 0.0176523 0.00721055
0.145121 0.0153319 0.00937351
0.146189 0.0185025 0.0069043
0.146193 0.0189416 0.0069161
0.151746 0.0169401 0.00744829
0.152158 0.017582 0.00724362
0.152097 0.0173063 0.0073169
0.145329 0.0159998 0.00881856
0.152105 0.0177478 0.00723685
0.151468 0.0161781 0.00804688
0.152271 0.017709 0.00726978
0.151977 0.0179774 0.00722097
0.145347 0.0157509 0.00900261
0.15169 0.0170964 0.00739676
0.152019 0.0173653 0.00729872
0.145079 0.0151808 0.00949775
0.151631 0.0168181 0.00749202
0.152019 0.0180378 0.00731505
0.145646 0.0164842 0.00837657
0.14605 0.0186729 0.00694523
0.151828 0.0173105 0.00732143
0.152146 0.0181984 0.00725624
0.152126 0.0178454 0.0072435
0.151961 0.0170949 0.00739128
0.145282 0.0154748 0.00922716
0.151945 0.0182366 0.00721616
0.152292 0.0178065 0.00727648
0.151903 0.0180418 0.0072028
0.14534 0.0156677 0.0090672
0.145352 0.0160745 0.00875641
0.145033 0.0150157 0.00963358
0.146091 0.018052 0.00709303
0.145448 0.016373 0.00850779
0.145243 0.015337 0.00934068
0.145278 0.0158572 0.00893862
0.151774 0.0174664 0.00727
0.145505 0.0161949 0.00862913
0.146246 0.0187873 0.00685619
0.145433 0.0158947 0.00887332
0.145424 0.0162985 0.00856993
0.145899 0.0176503 0.00743401
0.14525 0.0157837 0.00900078
0.0219312 0.0187687 0.00551176
0.145977 0.0175912 0.00746038
0.151849 0.0174029 0.00728977
0.146511 0.0186116 0.00687208
0.146942 0.01879 0.00682225
0.145976 0.0179547 0.00718529
0.146283 0.0185346 0.00689483
0.152009 0.0185291 0.00723624
0.145479 0.0160821 0.00872069
0.146344 0.0183829 0.00694904
0.1463 0.0186304 0.0068616
0.146361 0.018476 0.00691676
0.15222 0.017875 0.0072635
0.146078 0.0188199 0.00687118
0.152088 0.0181181 0.00724244
0.146033 0.0178195 0.00727405
0.139697 0.0170954 0.00730787
0.146148 0.0178407 0.00723081
0.145784 0.0175566 0.00753225
0.146131 0.0186563 0.0068494
0.146422 0.0186537 0.00685568
0.152254 0.0175603 0.00726264
0.146251 0.0183481 0.00695952
0.152163 0.0180527 0.00725605
0.145316 0.0159408 0.00889835
0.145376 0.0161492 0.00869424
0.15206 0.0183638 0.00724266
0.151912 0.0176813 0.00719582
0.152134 0.0182976 0.00725611
0.139877 0.0175116 0.00723067
0.151796 0.0175587 0.00723835
0.146514 0.0187646 0.00682894
0.152177 0.0176799 0.00724995
0.14552 0.0165312 0.00837112
0.146224 0.0186912 0.00683892
0.145438 0.0159897 0.00880066
0.139758 0.0173835 0.00725102
0.145959 0.0175147 0.00752253
0.146613 0.0187588 0.00682245
0.145204 0.0156339 0.00912508
0.146207 0.0185954 0.00687212
0.145996 0.017667 0.00739824
0.15201 0.017716 0.00721662
0.145554 0.0163524 0.00849825
0.145938 0.0178027 0.00730946
0.146053 0.0178955 0.0072119
0.145374 0.0158254 0.00893995
0.146015 0.0177433 0.00733617
0.145535 0.0162682 0.00856648
0.151651 0.0169109 0.00746024
0.151892 0.0175881 0.0072263
0.146265 0.0184416 0.00692702
0.152155 0.0183952 0.00726279
0.151871 0.0174953 0.00725829
0.139834 0.01732 0.00726833
0.14586 0.0174975 0.00755883
0.152198 0.0177776 0.00725665
0.146306 0.0188642 0.00687908
0.151753 0.017374 0.00730167
0.147357 0.018817 0.00681679
0.139772 0.0170319 0.00732521
0.151554 0.0164588 0.00764314
0.145283 0.0158889 0.00903375
0.151839 0.0177496 0.0072034
0.146118 0.0190019 0.00694438
0.139899 0.0176073 0.00721184
0.139716 0.0171917 0.00728882
0.146131 0.0184006 0.00702832
0.146056 0.0182843 0.00697824
0.139678 0.0169991 0.00732697
0.146046 0.0174632 0.00754088
0.146422 0.0182178 0.00700833
0.151957 0.0178792 0.00720976
0.14596 0.0182616 0.00700471
0.146018 0.0185316 0.00689098
0.146037 0.0186246 0.00685878
0.139515 0.0164202 0.00799463
0.139566 0.0166082 0.00776666
0.139497 0.0163576 0.00807058
0.14547 0.0164483 0.00844565
0.146207 0.0183377 0.00704865
0.139532 0.0164829 0.0079186
0.139643 0.0168574 0.00746361
0.145957 0.0178787 0.00724738
0.14617 0.0184092 0.00693662
0.13978 0.0174793 0.00723219
0.145919 0.0177263 0.00737177
0.152 0.0180747 0.0072234
0.139823 0.0176708 0.00719453
0.139812 0.0172242 0.00728718
0.139622 0.0167955 0.00753908
0.14497 0.0147632 0.00981579
0.146107 0.0181304 0.00703307
0.145822 0.0177091 0.00740768
0.146095 0.0184705 0.00691377
0.139845 0.0177666 0.00717569
0.146172 0.01885 0.00688152
0.146076 0.0183781 0.00694819
0.146057 0.0187227 0.00685874
0.139603 0.0167353 0.00761677
0.145842 0.0177851 0.00734558
0.139737 0.0172877 0.00726986
0.146318 0.0187238 0.00682925
0.14588 0.0179371 0.00722142
0.146017 0.018207 0.00710795
0.146024 0.0183918 0.00703267
0.151924 0.0181389 0.00721434
0.146376 0.0185694 0.00688434
0.139889 0.0179582 0.00713803
0.145899 0.0180131 0.00715934
0.139867 0.0178624 0.00715686
0.145996 0.0180314 0.00712414
0.145804 0.0176329 0.00746978
0.145918 0.0180902 0.00709863
0.146151 0.018315 0.00696925
0.139664 0.0169275 0.00739544
0.139855 0.0174158 0.0072495
0.146415 0.0187491 0.00682643
0.139792 0.0171281 0.00730615
0.13955 0.0165457 0.00784298
0.146 0.0184386 0.00692319
0.146031 0.0181918 0.00701017
0.145861 0.0178611 0.0072835
0.146015 0.0181106 0.00706611
0.146149 0.0187573 0.00684067
0.145681 0.016759 0.00816045
0.1454 0.0162238 0.00863208
0.146113 0.0185634 0.00688158
0.145972 0.0171943 0.00776181
0.146131 0.0182223 0.00700134
0.14598 0.018346 0.00695524
0.13992 0.0177031 0.007193
0.145939 0.0181738 0.00704783
0.152236 0.0179861 0.00726941
0.139586 0.0166704 0.00769091
0.139802 0.017575 0.00721336
0.152007 0.0181725 0.00726233

VERTICES 279 558
1 0
1 1
1 2
1 3
1 4
1 5
1 6
1 7
1 8
1 9
1 10
1 11
1 12
1 13
1 14
1 15
1 16
1 17
1 18
1 19
1 20
1 21
1 22
1 23
1 24
1 25
1 26
1 27
1 28
1 29
1 30
1 31
1 32
1 33
1 34
1 35
1 36
1 37
1 38
1 39
1 40
1 41
1 42
1 43
1 44
1 45
1 46
1 47
1 48
1 49
1 50
1 51
1 52
1 53
1 54
1 55
1 56
1 57
1 58
1 59
1 60
1 61
1 62
1 63
1 64
1 65
1 66
1 67
1 68
1 69
1 70
1 71
1 72
1 73
1 74
1 75
1 76
1 77
1 78
1 79
1 80
1 81
1 82
1 83
1 84
1 85
1 86
1 87
1 88
1 89
1 90
1 91
1 92
1 93
1 94
1 95
1 96
1 97
1 98
1 99
1 100
1 101
1 102
1 103
1 104
1 105
1 106
1 107
1 108
1 109
1 110
1 111
1 112
1 113
1 114
1 115
1 116
1 117
1 118
1 119
1 120
1 121
1 122
1 123
1 124
1 125
1 126
1 127
1 128
1 129
1 130
1 131
1 132
1 133
1 134
1 135
1 136
1 137
1 138
1 139
1 140
1 141
1 142
1 143
1 144
1 145
1 146
1 147
1 148
1 149
1 150
1 151
1 152
1 153
1 154
1 155
1 156
1 157
1 158
1 159
1 160
1 161
1 162
1 163
1 164
1 165
1 166
1 167
1 168
1 169
1 170
1 171
1 172
1 173
1 174
1 175
1 176
1 177
1 178
1 179
1 180
1 181
1 182
1 183
1 184
1 185
1 186
1 187
1 188
1 189
1 190
1 191
1 192
1 193
1 194
1 195
1 196
1 197
1 198
1 199
1 200
1 201
1 202
1 203
1 204
1 205
1 206
1 207
1 208
1 209
1 210
1 211
1 212
1 213
1 214
1 215
1 216
1 217
1 218
1 219
1 220
1 221
1 222
1 223
1 224
1 225
1 226
1 227
1 228
1 229
1 230
1 231
1 232
1 233
1 234
1 235
1 236
1 237
1 238
1 239
1 240
1 241
1 242
1 243
1 244
1 245
1 246
1 247
1 248
1 249
1 250
1 251
1 252
1 253
1 254
1 255
1 256
1 257
1 258
1 259
1 260
1 261
1 262
1 263
1 264
1 265
1 266
1 267
1 268
1 269
1 270
1 271
1 272
1 273
1 274
1 275
1 276
1 277
1 278

POINT_DATA 279
SCALARS id int 1
LOOKUP_TABLE default
1
2
4
5
6
7
8
9
10
11
12
13
14
16
17
19
21
22
23
24
25
26
27
28
29
30
31
32
33
34
35
36
37
38
39
41
42
44
45
47
48
49
50
51
52
53
54
55
56
57
59
60
61
62
63
64
65
66
67
68
69
70
71
72
73
74
76
77
78
79
80
82
83
84
85
86
87
88
89
90
91
92
93
94
95
96
97
98
99
100
101
102
103
104
105
106
107
108
109
110
111
112
113
114
115
116
117
118
119
120
121
122
123
124
125
127
128
129
130
131
132
133
134
135
136
137
138
140
141
142
143
144
146
147
148
149
150
151
153
154
155
156
157
158
159
160
162
164
165
166
167
168
169
170
171
172
173
174
175
176
177
178
179
182
183
184
185
186
187
188
189
190
191
192
193
194
195
196
197
198
199
200
201
202
203
204
205
206
207
208
209
210
211
212
213
214
215
216
217
218
219
220
221
222
224
225
226
227
228
229
230
231
232
233
234
235
236
237
239
240
241
242
243
244
246
247
248
249
250
251
252
253
254
255
256
257
258
259
260
261
262
263
264
265
266
267
268
269
270
271
272
273
274
275
276
277
278
279
280
281
282
283
284
285
286
287
288
289
290
291
292
293
294
295
296
297
298
299
300

SCALARS type int 1
LOOKUP_TABLE default
1
1
1
1
1
1
1
1
1
1
1
1
1
1
1
1
1
1
1
1
1
1
1
1
1
1
1
1
1
1
1
1
1
1
1
1
1
1
1
1
1
1
1
1
1
1
1
1
1
1
1
1
1
1
1
1
1
1
1
1
1
1
1
1
1
1
1
1
1
1
1
1
1
1
1
1
1
1
1
1
1
1
1
1
1
1
1
1
1
1
1
1
1
1
1
1
1
1
1
1
1
1
1
1
1
1
1
1
1
1
1
1
1
1
1
1
1
1
1
1
1
1
1
1
1
1
1
1
1
1
1
1
1
1
1
1
1
1
1
1
1
1
1
1
1
1
1
1
1
1
1
1
1
1
1
1
1
1
1
1
1
1
1
1
1
1
1
1
1
1
1
1
1
1
1
1
1
1
1
1
1
1
1
1
1
1
1
1
1
1
1
1
1
1
1
1
1
1
1
1
1
1
1
1
1
1
1
1
1
1
1
1
1
1
1
1
1
1
1
1
1
1
1
1
1
1
1
1
1
1
1
1
1
1
1
1
1
1
1
1
1
1
1
1
1
1
1
1
1
1
1
1
1
1
1
1
1
1
1
1
1
1
1
1
1
1
1
1
1
1
1
1
1
1
1
1
1
1
1

SCALARS radius float 1
LOOKUP_TABLE default
5e-05
5e-05
5e-05
5e-05
5e-05
5e-05
5e-05
5e-05
5e-05
5e-05
5e-05
5e-05
5e-05
5e-05
5e-05
5e-05
5e-05
5e-05
5e-05
5e-05
5e-05
5e-05
5e-05
5e-05
5e-05
5e-05
5e-05
5e-05
5e-05
5e-05
5e-05
5e-05
5e-05
5e-05
5e-05
5e-05
5e-05
5e-05
5e-05
5e-05
5e-05
5e-05
5e-05
5e-05
5e-05
5e-05
5e-05
5e-05
5e-05
5e-05
5e-05
5e-05
5e-05
5e-05
5e-05
5e-05
5e-05
5e-05
5e-05
5e-05
5e-05
5e-05
5e-05
5e-05
5e-05
5e-05
5e-05
5e-05
5e-05
5e-05
5e-05
5e-05
5e-05
5e-05
5e-05
5e-05
5e-05
5e-05
5e-05
5e-05
5e-05
5e-05
5e-05
5e-05
5e-05
5e-05
5e-05
5e-05
5e-05
5e-05
5e-05
5e-05
5e-05
5e-05
5e-05
5e-05
5e-05
5e-05
5e-05
5e-05
5e-05
5e-05
5e-05
5e-05
5e-05
5e-05
5e-05
5e-05
5e-05
5e-05
5e-05
5e-05
5e-05
5e-05
5e-05
5e-05
5e-05
5e-05
5e-05
5e-05
5e-05
5e-05
5e-05
5e-05
5e-05
5e-05
5e-05
5e-05
5e-05
5e-05
5e-05
5e-05
5e-05
5e-05
5e-05
5e-05
5e-05
5e-05
5e-05
5e-05
5e-05
5e-05
5e-05
5e-05
5e-05
5e-05
5e-05
5e-05
5e-05
5e-05
5e-05
5e-05
5e-05
5e-05
5e-05
5e-05
5e-05
5e-05
5e-05
5e-05
5e-05
5e-05
5e-05
5e-05
5e-05
5e-05
5e-05
5e-05
5e-05
5e-05
5e-05
5e-05
5e-05
5e-05
5e-05
5e-05
5e-05
5e-05
5e-05
5e-05
5e-05
5e-05
5e-05
5e-05
5e-05
5e-05
5e-05
5e-05
5e-05
5e-05
5e-05
5e-05
5e-05
5e-05
5e-05
5e-05
5e-05
5e-05
5e-05
5e-05
5e-05
5e-05
5e-05
5e-05
5e-05
5e-05
5e-05
5e-05
5e-05
5e-05
5e-05
5e-05
5e-05
5e-05
5e-05
5e-05
5e-05
5e-05
5e-05
5e-05
5e-05
5e-05
5e-05
5e-05
5e-05
5e-05
5e-05
5e-05
5e-05
5e-05
5e-05
5e-05
5e-05
5e-05
5e-05
5e-05
5e-05
5e-05
5e-05
5e-05
5e-05
5e-05
5e-05
5e-05
5e-05
5e-05
5e-05
5e-05
5e-05
5e-05
5e-05
5e-05
5e-05
5e-05
5e-05
5e-05
5e-05
5e-05
5e-05
5e-05
5e-05
5e-05
5e-05
5e-05
5e-05
5e-05
5e-05
5e-05
5e-05
5e-05
5e-05
5e-05
5e-05
5e-05
5e-05
5e-05
5e-05
5e-05
5e-05

SCALARS mass float 1
LOOKUP_TABLE default
1.46608e-10
1.46608e-10
1.46608e-10
1.46608e-10
1.46608e-10
1.46608e-10
1.46608e-10
1.46608e-10
1.46608e-10
1.46608e-10
1.46608e-10
1.46608e-10
1.46608e-10
1.46608e-10
1.46608e-10
1.46608e-10
1.46608e-10
1.46608e-10
1.46608e-10
1.46608e-10
1.46608e-10
1.46608e-10
1.46608e-10
1.46608e-10
1.46608e-10
1.46608e-10
1.46608e-10
1.46608e-10
1.46608e-10
1.46608e-10
1.46608e-10
1.46608e-10
1.46608e-10
1.46608e-10
1.46608e-10
1.46608e-10
1.46608e-10
1.46608e-10
1.46608e-10
1.46608e-10
1.46608e-10
1.46608e-10
1.46608e-10
1.46608e-10
1.46608e-10
1.46608e-10
1.46608e-10
1.46608e-10
1.46608e-10
1.46608e-10
1.46608e-10
1.46608e-10
1.46608e-10
1.46608e-10
1.46608e-10
1.46608e-10
1.46608e-10
1.46608e-10
1.46608e-10
1.46608e-10
1.46608e-10
1.46608e-10
1.46608e-10
1.46608e-10
1.46608e-10
1.46608e-10
1.46608e-10
1.46608e-10
1.46608e-10
1.46608e-10
1.46608e-10
1.46608e-10
1.46608e-10
1.46608e-10
1.46608e-10
1.46608e-10
1.46608e-10
1.46608e-10
1.46608e-10
1.46608e-10
1.46608e-10
1.46608e-10
1.46608e-10
1.46608e-10
1.46608e-10
1.46608e-10
1.46608e-10
1.46608e-10
1.46608e-10
1.46608e-10
1.46608e-10
1.46608e-10
1.46608e-10
1.46608e-10
1.46608e-10
1.46608e-10
1.46608e-10
1.46608e-10
1.46608e-10
1.46608e-10
1.46608e-10
1.46608e-10
1.46608e-10
1.46608e-10
1.46608e-10
1.46608e-10
1.46608e-10
1.46608e-10
1.46608e-10
1.46608e-10
1.46608e-10
1.46608e-10
1.46608e-10
1.46608e-10
1.46608e-10
1.46608e-10
1.46608e-10
1.46608e-10
1.46608e-10
1.46608e-10
1.46608e-10
1.46608e-10
1.46608e-10
1.46608e-10
1.46608e-10
1.46608e-10
1.46608e-10
1.46608e-10
1.46608e-10
1.46608e-10
1.46608e-10
1.46608e-10
1.46608e-10
1.46608e-10
1.46608e-10
1.46608e-10
1.46608e-10
1.46608e-10
1.46608e-10
1.46608e-10
1.46608e-10
1.46608e-10
1.46608e-10
1.46608e-10
1.46608e-10
1.46608e-10
1.46608e-10
1.46608e-10
1.46608e-10
1.46608e-10
1.46608e-10
1.46608e-10
1.46608e-10
1.46608e-10
1.46608e-10
1.46608e-10
1.46608e-10
1.46608e-10
1.46608e-10
1.46608e-10
1.46608e-10
1.46608e-10
1.46608e-10
1.46608e-10
1.46608e-10
1.46608e-10
1.46608e-10
1.46608e-10
1.46608e-10
1.46608e-10
1.46608e-10
1.46608e-10
1.46608e-10
1.46608e-10
1.46608e-10
1.46608e-10
1.46608e-10
1.46608e-10
1.46608e-10
1.46608e-10
1.46608e-10
1.46608e-10
1.46608e-10
1.46608e-10
1.46608e-10
1.46608e-10
1.46608e-10
1.46608e-10
1.46608e-10
1.46608e-10
1.46608e-10
1.46608e-10
1.46608e-10
1.46608e-10
1.46608e-10
1.46608e-10
1.46608e-10
1.46608e-10
1.46608e-10
1.46608e-10
1.46608e-10
1.46608e-10
1.46608e-10
1.46608e-10
1.46608e-10
1.46608e-10
1.46608e-10
1.46608e-10
1.46608e-10
1.46608e-10
1.46608e-10
1.46608e-10
1.46608e-10
1.46608e-10
1.46608e-10
1.46608e-10
1.46608e-10
1.46608e-10
1.46608e-10
1.46608e-10
1.46608e-10
1.46608e-10
1.46608e-10
1.46608e-10
1.46608e-10
1.46608e-10
1.46608e-10
1.46608e-10
1.46608e-10
1.46608e-10
1.46608e-10
1.46608e-10
1.46608e-10
1.46608e-10
1.46608e-10
1.46608e-10
1.46608e-10
1.46608e-10
1.46608e-10
1.46608e-10
1.46608e-10
1.46608e-10
1.46608e-10
1.46608e-10
1.46608e-10
1.46608e-10
1.46608e-10
1.46608e-10
1.46608e-10
1.46608e-10
1.46608e-10
1.46608e-10
1.46608e-10
1.46608e-10
1.46608e-10
1.46608e-10
1.46608e-10
1.46608e-10
1.46608e-10
1.46608e-10
1.46608e-10
1.46608e-10
1.46608e-10
1.46608e-10
1.46608e-10
1.46608e-10
1.46608e-10
1.46608e-10
1.46608e-10
1.46608e-10
1.46608e-10
1.46608e-10
1.46608e-10
1.46608e-10
1.46608e-10
1.46608e-10
1.46608e-10
1.46608e-10
1.46608e-10

VECTORS velocity float
0.00543278 -0.0022963 0.00105353
0.00545791 -0.00236839 0.001055
0.00536986 -0.00239171 0.000688535
0.0053385 -0.00111189 0.00196727
0.00564018 0.000703555 -0.000127716
0.00522976 -0.00110733 0.00192712
0.00511623 -0.00234478 0.000678722
0.00615992 0.00061465 -6.3e-05
0.00535409 -0.00111755 0.00197578
0.00534618 -0.00231777 0.00103512
0.00377963 -0.00729585 0.00447799
0.00532701 -0.00111382 0.0019689
0.00574506 0.001332 0.00394727
0.00618412 0.00117151 0.00334183
0.00535376 -0.00111467 0.00197158
0.005323 -0.00111598 0.00197169
0.00547733 -0.00241578 0.000723786
0.00515386 -0.00232337 0.000670169
0.0227586 0.0293139 -0.0275858
0.00566653 0.000686928 -0.000118426
0.00537435 -0.00112038 0.00198069
0.00608277 0.000615836 -6.663e-05
0.00746544 -0.00114752 -0.00238838
0.00523282 -0.00238938 0.000690902
0.00532148 -0.00111627 0.0019724
0.00514311 -0.00234522 0.000677924
0.00534855 -0.00111545 0.00197171
0.00516096 -0.00233771 0.0006757
0.00567439 0.000700156 -0.000124686
0.00535618 -0.00111274 0.00196919
0.00603968 -0.00131465 0.00031061
0.00623693 0.000614676 -6.00879e-05
0.00528078 -0.00222151 0.000632777
0.00537734 -0.00240998 0.0006946
0.00608246 0.00061532 -6.66349e-05
0.00534313 -0.00111405 0.00196816
0.00515869 -0.00107356 0.00190825
0.00544557 -0.00242 0.000697453
0.00567317 0.000701008 -0.000125166
0.00534704 -0.00111317 0.00196825
0.00531102 -0.00231246 0.00102813
0.00616298 0.000617372 -6.42286e-05
0.00511844 -0.00236328 0.000675349
0.00512472 -0.00237077 0.000686563
0.00329242 -0.00850575 0.0062678
0.00567128 0.000700662 -0.000125076
0.00548538 -0.00240263 0.000689271
0.0144789 0.0237305 -0.0317053
0.00519812 -0.00141567 0.00165808
0.00567251 0.000700819 -0.000125094
-5.01942e-15 -7.41222e-15 7.69802e-14
0.0053749 -0.00240665 0.000692746
0.00534448 -0.00111283 0.0019676
0.0054648 -0.0024257 0.000702719
0.00528815 -0.00228781 0.0010241
0.00566999 0.000699405 -0.0001245
0.00582544 8.84516e-05 8.82442e-05
0.00536243 0.000435833 -2.72373e-05
0.00546607 -0.00235244 0.00105894
0.0054845 -0.00240263 0.000801688
0.00549395 -0.00237402 0.000921569
0.00612194 0.000619871 -6.72215e-05
0.0206969 0.0411946 -0.053776
0.00540699 -0.00231277 0.00104727
0.00536609 -0.00112035 0.00198036
0.00510201 -0.00234104 0.000676744
0.0100486 -0.00228021 -0.000654405
0.00547235 -0.00236206 0.00105817
0.00748521 0.00703043 -0.00296331
0.00553546 0.000227508 -9.86782e-05
0.00512175 -0.00233941 0.000676129
0.00285678 -0.0108559 0.0075384
0.0172146 0.0512816 -0.0428999
0.00619679 0.000608552 -5.86031e-05
0.0124382 0.0288906 -0.0248183
0.00523444 -0.00236255 0.000681391
0.00516775 -0.00107867 0.00191996
0.00545574 -0.00236548 0.00105433
0.00546216 -0.00236639 0.00105611
0.00525951 -0.00229515 0.000867183
0.00438202 -0.00595371 0.00340509
0.00542385 -0.00234978 0.00105022
0.00537311 -0.002379 0.000684895
0.00536914 -0.00229559 0.00104003
0.00540611 -0.00233734 0.00104601
0.00540064 -0.0023228 0.00104527
0.00487825 -0.0109607 0.00767587
0.00525145 -0.0023563 0.000679637
0.00577515 6.02421e-05 -6.60895e-05
0.00548817 -0.00236822 0.000975051
0.00578194 0.000114783 8.32459e-05
4.39234e-15 1.04474e-14 8.296e-14
3.39597e-22 4.86658e-23 1.23839e-22
4.07341e-05 -7.65275e-05 2.78416e-05
0.00258139 -0.0116214 0.00824612
0.00660961 0.00176125 -0.000494467
0.00754552 0.00718216 -0.00345849
0.0054916 -0.00234805 0.00106661
0.0051333 -0.00237832 0.000675438
0.0054652 -0.00237044 0.00105348
0.00551755 -0.00238534 0.000772139
0.00394118 -0.00951495 0.00713983
0.00580616 3.13009e-05 9.10744e-05
0.00578148 7.44536e-05 -0.000200804
0.00510975 -0.00234185 0.000676479
0.0054825 -0.00234391 0.00106524
0.00545778 -0.00238827 0.00068506
0.00143722 -0.0102073 0.0073837
0.0054737 -0.00234335 0.0010607
0.005291 -0.00110796 0.00195284
0.00546193 -0.00226828 0.00106009
0.00543432 -0.00234173 0.0010525
0.0239196 0.0122732 -0.0149621
0.00517408 -0.00234458 0.000677153
0.00544385 -0.00241547 0.000694486
0.00472775 -0.0116466 0.00814788
0.00510921 -0.00235506 0.000666874
0.00540817 -0.00232572 0.00104684
0.0245314 0.0245892 -0.0244298
0.00582689 1.14935e-05 6.20706e-05
0.00544236 -0.00240917 0.000693498
0.00536935 -0.00227721 0.00104169
0.00543091 -0.00233951 0.00105201
0.00516756 -0.00247304 0.000720408
0.0155846 0.0359087 -0.0308768
0.00537387 -0.00232762 0.00103831
0.00545283 -0.00226968 0.00105828
0.00542533 -0.00235898 0.00104974
0.0141809 0.0279196 -0.0244965
0.00252557 -0.0104968 0.00730801
0.00911156 0.0100428 -0.00946364
0.00773103 -0.000252941 -0.0012608
0.00319849 -0.0104743 0.00717024
0.0155685 0.0321526 -0.0280298
0.00328862 -0.0130213 0.00704211
0.00547665 -0.00240041 0.000686879
0.0174215 0.0346903 -0.0303901
0.00573065 2.85853e-05 0.00014374
0.0136291 0.0267786 -0.023502
0.00306238 -0.0104404 0.00717687
0.00535202 -0.000360097 -0.000996451
0.00250864 -0.0108345 0.00802604
-3.82384e-14 8.17024e-14 2.9589e-13
0.00753703 -0.00138574 -0.000738161
0.00545858 -0.00241059 0.000706037
0.00500973 0.000116612 4.93299e-05
-9.90008e-16 1.0247e-14 -2.44585e-14
0.00599519 -0.000608276 -0.000968205
0.00579709 -1.5925e-05 0.000113754
0.00528012 -0.00230622 0.00102192
0.0187519 0.0215712 -0.0207749
0.00391246 0.000103992 3.75682e-05
0.00587998 -6.76822e-05 0.00013902
0.00564936 -0.000173524 0.000165618
0.00542704 -0.00229411 0.00105224
0.00584287 0.000240565 -0.0012366
0.00538639 -0.00230254 0.00104379
0.0067846 -0.000863018 -0.000955404
0.00557621 -0.000599476 0.000426316
0.0247574 0.0737441 -0.0616917
0.00539524 -0.00129269 -0.000302914
0.00584299 -3.73601e-07 0.000107971
0.00510098 0.000240812 4.6068e-06
0.00547474 -0.00233365 0.00106261
0.00391509 2.82665e-06 6.50116e-05
0.00538533 -0.00229087 0.00104368
0.00143013 -0.0117006 0.00679147
0.0021386 -0.0102333 0.00723929
0.00533881 -0.00228028 0.0010347
0.00554737 -0.0023418 0.00107323
0.00534875 -0.0022739 0.00103667
0.00594622 -0.000668724 0.000459616
0.00550054 -0.0024027 0.000692432
0.00561225 0.00038632 -1.9356e-05
0.00547974 -0.00234109 0.00106188
0.00661198 0.00987784 -0.00904492
0.00584089 -4.51468e-06 0.000124755
0.0119794 0.0283235 -0.0247953
0.00594825 -0.000669288 0.000459816
0.0123073 -0.00305601 -0.000604973
0.00563101 0.000343918 -3.84674e-05
0.00394521 -0.00571825 0.00343451
0.00584377 1.49258e-05 0.000106931
0.0107273 -0.00215819 -0.000909885
0.00548068 -0.00235331 0.00106076
0.018403 0.0285356 -0.0259639
0.00578891 -0.000697885 -0.000841605
0.00714164 -0.000696023 -0.00116649
0.0139621 0.0200382 -0.0184787
0.00777561 -0.00130553 -0.000855444
0.0190619 0.0343916 -0.0305529
0.00510618 -0.00234467 0.000672553
0.00548535 -0.00244855 0.000704103
0.00556022 -0.000203145 0.000175674
0.00530428 -0.00226228 0.00102809
0.00548037 -0.00240932 0.000731714
0.00594858 -0.000670539 0.000460155
0.00626547 -0.00175072 -0.0001604
0.0054654 -0.00230894 0.0010598
0.00572205 0.000153737 -0.000177003
0.00545793 -0.00239632 0.000688027
9.40058e-15 -9.73166e-14 2.32273e-13
0.00553339 -0.000587618 0.000421213
0.00521196 -0.00213846 0.00105907
0.00654827 -0.00277801 0.00219828
0.0055056 -0.00237279 0.000949019
0.00573184 7.06676e-05 -0.000196479
0.00594349 -0.000668153 0.000459346
0.00574872 -0.000631377 0.000440954
0.0056692 0.000191694 -0.000156598
0.00595013 -1.93699e-05 0.000119994
0.00553244 -0.000591751 0.000419758
0.0488436 0.0224676 -0.0285885
0.007934 0.00663533 -0.00222895
0.00546025 -0.00236122 0.00105685
0.0060209 -6.48251e-05 -0.000192314
0.00567003 -0.000263455 0.00019684
0.00574193 -4.26128e-06 8.79229e-05
0.00533923 -0.000706679 0.000251244
0.00529595 -0.000697652 0.000245649
0.0061187 -0.000837485 0.000321334
0.00288648 -0.0103264 0.0071323
0.00484357 0.00040621 0.000562819
0.00531434 -0.000703615 0.000250338
0.00548322 -0.000730661 0.000259003
0.00578543 -0.000637828 -0.000865896
0.00578521 9.92006e-05 -1.45918e-05
0.00594648 -0.000669114 0.000459679
0.00808 -0.00047244 -0.00155824
0.00539582 -0.00232946 0.00104455
0.00594289 -0.000668892 0.000459455
0.00573243 -0.000626852 0.000439273
0.00541799 -0.000717025 0.000254766
0.00669302 0.00729396 -0.00343846
0.00737177 0.000707013 -0.000131721
0.00570695 -0.000707707 -0.000819591
0.00577277 0.00013764 4.18453e-05
0.00594163 -0.000667405 0.000459105
0.00575927 3.68353e-05 8.92244e-05
0.00576664 0.000121634 -0.000479229
0.00582468 1.95985e-05 7.37168e-05
0.00536932 -0.000708881 0.000252871
0.0055361 -0.000588873 -0.000869077
0.00594967 -0.000669708 0.000459974
0.00567132 6.05621e-05 5.6112e-05
0.00563311 -0.0004817 -0.000974414
0.00635287 0.000132736 0.000113754
0.00634515 2.25518e-05 4.88875e-05
0.00539117 -0.00234212 0.00104145
0.00578566 -5.17954e-05 0.00012506
0.00593821 -0.0006666 0.000458742
0.00572588 -0.000587761 -0.000946527
0.00594008 -0.000666989 0.000458924
0.00640081 -0.000585626 -0.001048
0.00742458 -0.000197672 -0.00139948
0.00545525 -0.000385281 -0.00101323
0.00566319 0.000172977 4.00203e-05
0.00548756 -0.000736423 0.000255926
0.00594796 -0.000669421 0.000459904
0.00563226 0.000255856 -0.000110102
0.00552 -0.000585958 0.00041921
0.00529181 -0.000700182 0.000247047
0.00571374 0.000181929 4.2243e-05
0.00638423 0.000246772 6.04043e-05
0.00555426 -0.000522027 -0.000946727
0.00657881 -0.000131058 -0.000457869
0.00594819 0.000173138 -0.00101571
0.0160687 0.0479147 -0.0400796
0.0026776 -0.0103421 0.00719368
0.00547863 5.26901e-05 8.67789e-05
0.0224676 0.064434 -0.0541014
0.00653028 0.000718032 -0.000130699
0.00624343 6.85227e-05 0.000102258
0.00594207 -0.000667785 0.00045918
0.0056937 -0.000269793 -0.000765697
0.00539171 -0.00228169 0.00104504
0.00534208 -0.000703609 0.000248835
0.00594481 -0.000668702 0.000459541
0.00537321 -0.00232141 0.00103043

VECTORS force float
-5.33189e-11 6.74409e-11 -1.39714e-11
1.98915e-11 2.30879e-12 -2.26395e-11
-5.54613e-11 1.6788e-11 -1.69922e-12
-4.58151e-11 5.21206e-11 -8.02979e-11
5.40098e-12 3.26859e-11 -1.60424e-11
-1.19124e-10 3.96305e-11 7.46012e-11
-9.69178e-11 2.46173e-11 -1.81773e-11
-5.59655e-12 -3.61019e-11 1.82409e-11
-4.0845e-11 -3.26236e-11 5.26303e-11
-3.2985e-12 5.08409e-11 1.45105e-12
-2.39315e-08 -4.12022e-08 4.17346e-08
-4.66494e-11 1.29902e-11 -3.29795e-11
4.88679e-11 1.59809e-10 -2.04664e-09
0.0 0.0 -1.43822e-09
2.21974e-11 -2.95702e-11 6.69576e-11
5.81035e-11 1.47145e-12 -5.18402e-12
8.22809e-11 -6.62692e-11 1.816e-10
2.04667e-10 -1.04698e-10 6.82135e-11
-6.8053e-11 3.11121e-10 -2.19371e-10
-1.61356e-11 -1.70502e-11 7.38561e-12
5.64197e-11 -2.12273e-11 8.14124e-11
5.12141e-11 3.02003e-11 -1.58514e-11
0.0 0.0 -1.43822e-09
-7.85345e-11 -2.82645e-11 2.40419e-11
7.33033e-12 3.26191e-12 -1.17445e-12
9.31638e-11 -3.32055e-11 -1.21991e-11
2.07365e-10 -5.92613e-11 1.28982e-10
-3.28481e-11 2.31436e-11 -4.58681e-11
5.01063e-12 2.76533e-11 -1.3555e-11
-8.69956e-11 -3.90662e-11 4.3067e-11
-7.54335e-11 -2.25019e-10 7.93388e-11
-2.79495e-12 -2.63487e-11 1.39196e-11
1.75123e-10 -2.66489e-10 7.3102e-11
-8.94614e-11 -1.05543e-10 4.09941e-11
4.46385e-12 -6.41764e-12 9.72192e-12
1.13805e-10 2.42535e-11 -3.28995e-11
-6.3914e-11 -3.87633e-11 -8.70713e-12
5.13803e-11 -1.48232e-10 5.86403e-11
7.99712e-12 1.75001e-11 -8.03924e-12
-9.41065e-12 -3.36433e-11 2.4074e-11
2.46557e-11 1.38793e-11 6.483e-12
2.21296e-11 -2.11507e-11 1.18474e-11
-4.84967e-11 -3.1383e-11 6.06162e-11
3.14033e-11 -5.9346e-11 1.19159e-11
-2.88903e-09 -3.18424e-08 3.44735e-08
1.7594e-12 1.80302e-11 -9.18307e-12
4.90174e-11 -2.79442e-11 -7.79131e-11
0.0 0.0 -1.43822e-09
4.92901e-13 -1.243e-10 -7.99019e-11
5.59902e-12 2.23838e-11 -1.08567e-11
-5.42837e-25 1.47342e-24 0.0
9.92605e-11 -1.00982e-10 3.39565e-11
8.48441e-11 6.4595e-11 -8.52942e-11
5.24836e-11 -1.61133e-10 3.69966e-11
9.23564e-11 -3.66601e-12 1.75485e-11
-9.96236e-12 -3.68058e-11 1.72396e-11
-3.89031e-10 3.23659e-10 5.11127e-10
-3.71697e-10 9.8766e-11 1.56754e-10
-7.7343e-11 2.14615e-11 -2.05608e-11
-4.09868e-12 -9.68037e-11 -6.74196e-11
1.96911e-10 -9.51714e-11 -2.89076e-11
-2.97683e-12 -1.69621e-11 8.37612e-12
2.23475e-10 -1.03772e-10 -1.28906e-09
1.13542e-11 5.4822e-12 1.77613e-12
-2.71524e-11 -3.85502e-11 5.88853e-11
-1.51178e-11 1.1023e-12 6.51038e-12
-3.41225e-10 7.97464e-10 -5.1348e-10
-6.88638e-11 -3.02768e-11 -3.3766e-11
7.27833e-14 1.51614e-12 -1.26459e-12
4.41892e-10 4.39584e-10 2.25739e-11
-5.99477e-11 2.5184e-12 -9.06842e-12
1.80657e-08 7.65152e-08 -6.20045e-08
6.88458e-11 2.4975e-10 -2.05375e-10
-3.83778e-12 -2.19027e-11 1.07932e-11
3.44512e-11 2.61971e-10 -2.06471e-10
-5.20136e-11 6.26668e-12 9.82049e-12
-1.41392e-10 2.94269e-11 3.01513e-11
2.83231e-11 -6.98666e-11 -5.79867e-11
-1.16448e-10 8.0143e-12 -5.17489e-11
1.0571e-11 -1.23345e-10 2.5577e-10
-8.92104e-09 -5.41513e-08 4.08368e-08
3.91423e-11 -1.94137e-11 1.15969e-11
1.92721e-10 2.95148e-12 -1.25585e-11
1.6832e-11 1.02694e-10 5.03268e-12
-3.85316e-11 -2.40574e-11 1.76785e-11
-8.72613e-13 3.937e-11 7.42255e-12
-4.02166e-09 -2.55694e-09 4.72808e-10
1.74179e-10 -2.06732e-11 1.72761e-11
-2.6776e-10 1.09817e-10 1.05086e-09
5.51183e-11 -1.19952e-10 -8.10344e-11
-1.20117e-11 -1.58225e-10 -6.69655e-11
1.43539e-21 -6.45201e-22 1.07533e-23
0.0 0.0 0.0
-4.65636e-10 1.08939e-10 -5.24708e-11
6.04055e-11 4.34685e-10 -2.08692e-09
-6.77988e-10 2.74351e-10 -1.08045e-10
3.87651e-11 5.46101e-12 -2.03273e-10
5.0355e-11 -1.44646e-12 1.71796e-12
-1.9982e-11 -1.91373e-11 6.40962e-11
-4.37845e-11 -2.28816e-11 -7.15615e-11