# vtk DataFile Version 3.0
LIGGGHTS particles timestep 800000
ASCII
DATASET POLYDATA
POINTS 184 float
0.0224458 0.0149959 0.0133411
0.0167104 0.0238699 0.0135914
0.0243723 0.0196342 0.0168286
0.021333 0.0153416 0.0139325
0.0163188 0.0216246 0.0160705
0.0546579 0.01997 0.0058506
0.0229966 0.0223753 0.0165708
0.022081 0.0149016 0.0104325
0.0195913 0.019379 0.0169336
0.0257935 0.0212126 0.015156
0.0165886 0.0155881 0.0143073
0.0190659 0.0213703 0.0162658
0.0216364 0.0147857 0.0127809
0.0244491 0.0178538 0.016618
0.0238279 0.0152929 0.0151418
0.0238139 0.0187354 0.00719485
0.0234007 0.0465471 0.0629947
0.015336 0.0222951 0.0145419
0.0345955 0.0188418 0.00570992
0.0253453 0.0198912 0.0168375
0.0215141 0.0196858 0.0165631
0.0255229 0.0182488 0.0167299
0.0203695 0.0193791 0.0160567
0.0182936 0.0149909 0.0148465
0.0193653 0.0236246 0.0142965
0.0236038 0.0217553 0.0160472
0.0175816 0.0223408 0.015618
0.0208597 0.0234858 0.0119636
0.0235293 0.0185552 0.0167484
0.0202771 0.0234111 0.0111274
0.0201282 0.0203223 0.0158083
0.0185051 0.0230488 0.0101326
0.019991 0.0147756 0.0146494
0.0204855 0.0228974 0.0136947
0.0209317 0.0140806 0.0133324
0.0193773 0.0232834 0.0105403
0.0186929 0.0179209 0.0166458
0.0174311 0.0215014 0.0161395
0.0218605 0.021129 0.015446
0.0201435 0.0229228 0.0157331
0.0176745 0.0177418 0.0165879
0.0193119 0.0229914 0.0134848
0.0228367 0.0196578 0.0169911
0.0176832 0.0147971 0.0156945
0.0159941 0.0230102 0.0149849
0.0222756 0.0192127 0.0159529
0.0178425 0.0204016 0.0238981
0.0225817 0.0155607 0.0142699
0.0205501 0.0219675 0.0164791
0.0138123 0.0218974 0.0149286
0.0208832 0.0211264 0.0154495
0.02484 0.0162608 0.0159398
0.0250361 0.021205 0.0163912
0.0207584 0.0233276 0.0145728
0.0214391 0.0220227 0.0148006
0.0217074 0.0151623 0.0151476
0.0226849 0.0162838 0.0149807
0.019461 0.0233243 0.0166725
0.0197121 0.0219692 0.0148453
0.0195246 0.0221419 0.0158175
0.0224169 0.018226 0.0158691
0.0199106 0.0211966 0.0154091
0.0226055 0.0172885 0.0155774
0.0197687 0.0234512 0.0119149
0.0178673 0.0157797 0.0156142
0.0228884 0.0229746 0.0174359
0.0215559 0.0177284 0.0157518
0.0153111 0.0149307 0.0142455
0.0224093 0.0141115 0.014847
0.0153058 0.0228992 0.0137447
0.0239733 0.0215933 0.0082319
0.0229643 0.0166055 0.0162133
0.0156004 0.0222777 0.0155443
0.015942 0.0235834 0.0141677
0.021264 0.018941 0.0159421
0.0242656 0.0223607 0.0156046
0.0174833 0.0142713 0.0129095
0.0158176 0.0149902 0.0133177
0.0226148 0.0180613 0.0168355
0.0166315 0.0147471 0.0126751
0.0211751 0.0154713 0.0174585
0.0195146 0.0229169 0.0149565
0.0228422 0.015378 0.0153879
0.0173143 0.0150751 0.0135249
0.0200266 0.0211191 0.0164037
0.0214046 0.0227049 0.0140259
0.00949788 0.0113029 0.0466352
0.0190856 0.0232709 0.0126076
0.0175728 0.024052 0.0131178
0.0186991 0.0225942 0.0093795
0.0187289 0.0233423 0.0109921
0.0190583 0.0141986 0.0138482
0.0210005 0.0209423 0.016545
0.0174568 0.0146229 0.0119743
0.0236597 0.022902 0.0150137
0.0158314 0.0162659 0.0161266
0.0236783 0.0160381 0.0157919
0.0185423 0.0143109 0.0155371
0.0219991 0.0147437 0.0142629
0.0181864 0.0229136 0.015065
0.0185236 0.0139994 0.0129732
0.0219176 0.0168494 0.0163361
0.0204699 0.0220126 0.0154779
0.0218682 0.0225282 0.0165817
0.0239812 0.0169826 0.0163122
0.0260025 0.0204912 0.0155629
0.0231174 0.0147944 0.0146241
0.0230812 0.0208782 0.016441
0.0195238 0.0140062 0.0129601
0.0199787 0.0232311 0.012909
0.0202207 0.0183231 0.0198472
0.0234309 0.0194899 0.00721385
0.0243014 0.0227803 0.0093409
0.0208268 0.0242147 0.0141255
0.0215423 0.0239259 0.0146777
0.022282 0.0234172 0.0167755
0.0200545 0.0143039 0.0137644
0.0189082 0.0237685 0.0120286
0.0209195 0.016061 0.0156666
0.0200231 0.0237438 0.0151256
0.0190518 0.0241376 0.012946
0.0207928 0.0168832 0.0162873
0.0183678 0.024359 0.0136407
0.0216187 0.0239329 0.0136256
0.0208502 0.0240498 0.0131131
0.0216053 0.0167838 0.0153406
0.0230676 0.0234912 0.0153414
0.0182503 0.0235666 0.0142426
0.0223269 0.0237853 0.0142077
0.0200279 0.0240936 0.0160871
0.0210932 0.022757 0.0153795
0.0160546 0.0228821 0.0162469
0.0211588 0.023816 0.0166693
0.0211809 0.0159553 0.0147072
0.0147156 0.0218533 0.0153541
0.0172837 0.0150916 0.0148267
0.0220543 0.0230824 0.014869
0.019915 0.0244786 0.0170032
0.0201922 0.0227335 0.0170127
0.0193353 0.0178805 0.0174109
0.0209534 0.0228767 0.0163793
0.0229977 0.0223969 0.0155686
0.0192122 0.0152521 0.0151707
0.0143618 0.0224941 0.0143327
0.0178635 0.0223231 0.0165773
0.0220852 0.0201867 0.0158095
0.0189856 0.0229947 0.0158083
0.0170602 0.0228658 0.0162997
0.0211081 0.0202453 0.0158356
0.0209188 0.0144427 0.0143566
0.0208448 0.0236352 0.0157373
0.0231252 0.0181317 0.00730138
0.016589 0.0224254 0.0155356
0.0181326 0.0235172 0.0158605
0.0221028 0.0159896 0.0157392
0.0185265 0.0220859 0.0158218
0.0121158 0.0169996 0.0219063
0.0176414 0.0237459 0.0150196
0.019017 0.0239716 0.0160534
0.0224422 0.0155206 0.00902405
0.0179801 0.0241987 0.0168153
0.0172545 0.0238439 0.016226
0.0194646 0.0244352 0.0137508
0.0148561 0.023086 0.0149691
0.0187989 0.0236977 0.015117
0.0205445 0.0223626 0.014515
0.0217735 0.0232751 0.0158791
0.0230595 0.0233434 0.0144293
0.0189202 0.024413 0.0170798
0.0225089 0.0216471 0.0160572
0.0201378 0.023761 0.0136926
0.0482716 0.024116 0.00978627
0.0220391 0.0208463 0.0165842
0.0179895 0.0142992 0.013771
0.0168961 0.0233984 0.0144523
0.021998 0.0223533 0.0155644
0.0188786 0.0224841 0.0166766
0.0206204 0.0181198 0.0158606
0.0214616 0.0217303 0.0161377
0.0157192 0.0156848 0.0147917
0.0199937 0.0240926 0.0127818
0.0176918 0.0141852 0.0147183
0.0174922 0.0242257 0.0141056
0.0167765 0.0234299 0.0154452

VERTICES 184 368
1 0
1 1
1 2
1 3
1 4
1 5
1 6
1 7
1 8
1 9
1 10
1 11
1 12
1 13
1 14
1 15
1 16
1 17
1 18
1 19
1 20
1 21
1 22
1 23
1 24
1 25
1 26
1 27
1 28
1 29
1 30
1 31
1 32
1 33
1 34
1 35
1 36
1 37
1 38
1 39
1 40
1 41
1 42
1 43
1 44
1 45
1 46
1 47
1 48
1 49
1 50
1 51
1 52
1 53
1 54
1 55
1 56
1 57
1 58
1 59
1 60
1 61
1 62
1 63
1 64
1 65
1 66
1 67
1 68
1 69
1 70
1 71
1 72
1 73
1 74
1 75
1 76
1 77
1 78
1 79
1 80
1 81
1 82
1 83
1 84
1 85
1 86
1 87
1 88
1 89
1 90
1 91
1 92
1 93
1 94
1 95
1 96
1 97
1 98
1 99
1 100
1 101
1 102
1 103
1 104
1 105
1 106
1 107
1 108
1 109
1 110
1 111
1 112
1 113
1 114
1 115
1 116
1 117
1 118
1 119
1 120
1 121
1 122
1 123
1 124
1 125
1 126
1 127
1 128
1 129
1 130
1 131
1 132
1 133
1 134
1 135
1 136
1 137
1 138
1 139
1 140
1 141
1 142
1 143
1 144
1 145
1 146
1 147
1 148
1 149
1 150
1 151
1 152
1 153
1 154
1 155
1 156
1 157
1 158
1 159
1 160
1 161
1 162
1 163
1 164
1 165
1 166
1 167
1 168
1 169
1 170
1 171
1 172
1 173
1 174
1 175
1 176
1 177
1 178
1 179
1 180
1 181
1 182
1 183

POINT_DATA 184
SCALARS id int 1
LOOKUP_TABLE default
1
2
3
4
5
6
7
9
10
11
12
13
14
15
16
17
18
19
20
21
22
23
24
25
26
27
28
29
30
31
32
33
34
35
36
37
38
39
40
41
42
44
45
46
47
48
49
50
51
52
53
54
55
57
59
60
61
62
63
64
65
66
67
68
69
70
71
72
73
74
75
76
77
78
79
80
81
82
83
84
85
86
87
88
89
90
91
92
93
94
95
96
97
98
100
101
102
103
104
105
106
107
108
109
110
111
112
113
114
115
116
117
118
119
120
121
122
123
124
125
126
127
128
129
130
131
132
133
134
135
136
137
138
139
140
141
142
143
144
145
146
147
148
149
150
151
152
153
154
155
157
158
159
160
161
162
163
164
165
166
167
168
169
170
171
172
173
174
175
176
177
178
179
180
181
182
183
184
185
186
187
188
189
190

SCALARS type int 1
LOOKUP_TABLE default
1
1
1
1
1
1
1
1
1
1
1
1
1
1
1
1
1
1
1
1
1
1
1
1
1
1
1
1
1
1
1
1
1
1
1
1
1
1
1
1
1
1
1
1
1
1
1
1
1
1
1
1
1
1
1
1
1
1
1
1
1
1
1
1
1
1
1
1
1
1
1
1
1
1
1
1
1
1
1
1
1
1
1
1
1
1
1
1
1
1
1
1
1
1
1
1
1
1
1
1
1
1
1
1
1
1
1
1
1
1
1
1
1
1
1
1
1
1
1
1
1
1
1
1
1
1
1
1
1
1
1
1
1
1
1
1
1
1
1
1
1
1
1
1
1
1
1
1
1
1
1
1
1
1
1
1
1
1
1
1
1
1
1
1
1
1
1
1
1
1
1
1
1
1
1
1
1
1
1
1
1
1
1
1

SCALARS radius float 1
LOOKUP_TABLE default
0.0005
0.0005
0.0005
0.0005
0.0005
0.0005
0.0005
0.0005
0.0005
0.0005
0.0005
0.0005
0.0005
0.0005
0.0005
0.0005
0.0005
0.0005
0.0005
0.0005
0.0005
0.0005
0.0005
0.0005
0.0005
0.0005
0.0005
0.0005
0.0005
0.0005
0.0005
0.0005
0.0005
0.0005
0.0005
0.0005
0.0005
0.0005
0.0005
0.0005
0.0005
0.0005
0.0005
0.0005
0.0005
0.0005
0.0005
0.0005
0.0005
0.0005
0.0005
0.0005
0.0005
0.0005
0.0005
0.0005
0.0005
0.0005
0.0005
0.0005
0.0005
0.0005
0.0005
0.0005
0.0005
0.0005
0.0005
0.0005
0.0005
0.0005
0.0005
0.0005
0.0005
0.0005
0.0005
0.0005
0.0005
0.0005
0.0005
0.0005
0.0005
0.0005
0.0005
0.0005
0.0005
0.0005
0.0005
0.0005
0.0005
0.0005
0.0005
0.0005
0.0005
0.0005
0.0005
0.0005
0.0005
0.0005
0.0005
0.0005
0.0005
0.0005
0.0005
0.0005
0.0005
0.0005
0.0005
0.0005
0.0005
0.0005
0.0005
0.0005
0.0005
0.0005
0.0005
0.0005
0.0005
0.0005
0.0005
0.0005
0.0005
0.0005
0.0005
0.0005
0.0005
0.0005
0.0005
0.0005
0.0005
0.0005
0.0005
0.0005
0.0005
0.0005
0.0005
0.0005
0.0005
0.0005
0.0005
0.0005
0.0005
0.0005
0.0005
0.0005
0.0005
0.0005
0.0005
0.0005
0.0005
0.0005
0.0005
0.0005
0.0005
0.0005
0.0005
0.0005
0.0005
0.0005
0.0005
0.0005
0.0005
0.0005
0.0005
0.0005
0.0005
0.0005
0.0005
0.0005
0.0005
0.0005
0.0005
0.0005
0.0005
0.0005
0.0005
0.0005
0.0005
0.0005
0.0005
0.0005
0.0005
0.0005
0.0005
0.0005

SCALARS mass float 1
LOOKUP_TABLE default
5.23599e-07
5.23599e-07
5.23599e-07
5.23599e-07
5.23599e-07
5.23599e-07
5.23599e-07
5.23599e-07
5.23599e-07
5.23599e-07
5.23599e-07
5.23599e-07
5.23599e-07
5.23599e-07
5.23599e-07
5.23599e-07
5.23599e-07
5.23599e-07
5.23599e-07
5.23599e-07
5.23599e-07
5.23599e-07
5.23599e-07
5.23599e-07
5.23599e-07
5.23599e-07
5.23599e-07
5.23599e-07
5.23599e-07
5.23599e-07
5.23599e-07
5.23599e-07
5.23599e-07
5.23599e-07
5.23599e-07
5.23599e-07
5.23599e-07
5.23599e-07
5.23599e-07
5.23599e-07
5.23599e-07
5.23599e-07
5.23599e-07
5.23599e-07
5.23599e-07
5.23599e-07
5.23599e-07
5.23599e-07
5.23599e-07
5.23599e-07
5.23599e-07
5.23599e-07
5.23599e-07
5.23599e-07
5.23599e-07
5.23599e-07
5.23599e-07
5.23599e-07
5.23599e-07
5.23599e-07
5.23599e-07
5.23599e-07
5.23599e-07
5.23599e-07
5.23599e-07
5.23599e-07
5.23599e-07
5.23599e-07
5.23599e-07
5.23599e-07
5.23599e-07
5.23599e-07
5.23599e-07
5.23599e-07
5.23599e-07
5.23599e-07
5.23599e-07
5.23599e-07
5.23599e-07
5.23599e-07
5.23599e-07
5.23599e-07
5.23599e-07
5.23599e-07
5.23599e-07
5.23599e-07
5.23599e-07
5.23599e-07
5.23599e-07
5.23599e-07
5.23599e-07
5.23599e-07
5.23599e-07
5.23599e-07
5.23599e-07
5.23599e-07
5.23599e-07
5.23599e-07
5.23599e-07
5.23599e-07
5.23599e-07
5.23599e-07
5.23599e-07
5.23599e-07
5.23599e-07
5.23599e-07
5.23599e-07
5.23599e-07
5.23599e-07
5.23599e-07
5.23599e-07
5.23599e-07
5.23599e-07
5.23599e-07
5.23599e-07
5.23599e-07
5.23599e-07
5.23599e-07
5.23599e-07
5.23599e-07
5.23599e-07
5.23599e-07
5.23599e-07
5.23599e-07
5.23599e-07
5.23599e-07
5.23599e-07
5.23599e-07
5.23599e-07
5.23599e-07
5.23599e-07
5.23599e-07
5.23599e-07
5.23599e-07
5.23599e-07
5.23599e-07
5.23599e-07
5.23599e-07
5.23599e-07
5.23599e-07
5.23599e-07
5.23599e-07
5.23599e-07
5.23599e-07
5.23599e-07
5.23599e-07
5.23599e-07
5.23599e-07
5.23599e-07
5.23599e-07
5.23599e-07
5.23599e-07
5.23599e-07
5.23599e-07
5.23599e-07
5.23599e-07
5.23599e-07
5.23599e-07
5.23599e-07
5.23599e-07
5.23599e-07
5.23599e-07
5.23599e-07
5.23599e-07
5.23599e-07
5.23599e-07
5.23599e-07
5.23599e-07
5.23599e-07
5.23599e-07
5.23599e-07
5.23599e-07
5.23599e-07
5.23599e-07
5.23599e-07
5.23599e-07
5.23599e-07
5.23599e-07
5.23599e-07
5.23599e-07
5.23599e-07
5.23599e-07
5.23599e-07
5.23599e-07

VECTORS velocity float
0.0121963 0.00683504 0.00141686
-2.08701e-06 -0.000180804 0.000135707
8.12282e-06 0.063295 0.0126403
0.00329157 0.0226027 0.0347388
-0.00527832 0.00244414 0.00234712
-1.2728e-14 -1.69469e-14 -2.43741e-13
0.00796595 0.00436354 0.0051753
0.000441524 -0.0130596 0.0504466
-0.0291351 0.0474591 -0.0893021
0.00439305 0.0290917 -0.0221321
-0.00490728 0.00429226 0.0116995
-0.00764376 -0.00529171 -0.00744429
0.00958513 -0.0032506 0.00955204
-0.000692402 0.0188403 0.00803057
-0.00930434 -0.0043348 -0.00616405
-0.653536 -1.4895 -7.54308
0.145408 0.450217 0.0812757
0.0121607 0.00649387 -0.00936272
8.70798e-20 -7.24606e-21 3.48289e-20
-0.000153311 0.0618625 -0.00452419
0.00872023 0.0106835 0.0129353
0.000170227 0.0326952 0.00322491
-0.0135672 -0.00218371 -0.045434
-0.00573535 0.00703758 0.00285095
0.00190219 -0.00769795 0.00243317
0.0104901 -0.00692351 0.00104567
0.00342572 0.00840953 -0.00127004
-0.012739 0.0211557 -0.0134739
0.000890656 0.0371127 -0.0156182
-0.000202632 0.00163254 -0.0211244
0.0133149 -0.00160186 -0.00600818
0.00804322 -0.0129551 -0.0343749
0.00238071 0.00469427 -0.00708934
0.00187254 -0.00152552 0.000996162
-0.000763917 0.0103974 0.00316266
0.00494212 0.00355716 0.000707298
0.00191243 0.0554797 0.0130218
-0.00323922 0.00351772 -0.00747451
0.0127903 -0.00188527 0.00331355
0.00350397 -0.00219677 0.00301688
-0.00391069 0.0350311 0.00990122
0.00248144 0.0133056 -0.02761
-0.019733 -0.0491623 -0.0197195
-9.50156e-05 -0.00340473 -8.54093e-05
0.000474239 0.00349201 0.00346412
0.0161249 0.0167999 -0.00390246
-0.0396735 0.0623452 0.425163
-0.00370788 0.00691744 0.0137998
-0.00111941 0.000120352 -0.00129599
0.00176722 0.00484419 0.000835411
0.0145009 -0.0024972 -0.00178109
0.0135016 0.0229497 0.0153332
0.0207169 0.0331063 0.0410625
0.00290899 -0.0034495 0.00701349
0.0216318 -0.00391863 0.000428186
0.00872277 0.00970784 0.0274064
-0.00218455 0.0148971 0.0146248
-0.00770106 -0.00443144 -0.0037769
0.0125124 -0.00661872 0.00624996
0.00418645 -0.0010159 -0.000974898
0.00867388 0.0101458 0.0036786
0.0134919 -0.00575263 -0.00140262
-0.000791283 0.00510966 0.00374733
0.00906672 0.00682404 -0.02022
-0.000632037 -0.00769672 0.00113498
0.0129197 -0.00248574 -0.0103351
0.00439045 0.0175448 0.000995486
0.0101902 0.00248474 -0.0464543
0.00700445 0.00139144 0.00226639
0.0120262 0.00379977 -0.0104976
0.00045009 -0.0411016 -0.0307875
-0.00196227 -0.00782417 -0.0029399
0.00287964 0.00258934 0.00505834
-0.00111763 -0.000298239 0.000468242
0.00494117 0.0164387 -0.000601474
-0.0140092 -0.0103432 0.00465672
0.00483739 -0.0032419 0.00645259
0.0233304 -0.00550048 -0.0192185
0.0154192 -0.000846153 0.00080305
0.00267869 0.00112899 -0.00608082
-0.0271657 0.0199939 0.0485562
0.00814021 -0.0108133 0.00519903
-0.0079224 0.00385323 -0.00941028
-0.00662314 -0.00355688 -0.00344943
-0.00493678 -0.00273265 -0.00322698
0.00930567 0.00521018 -0.00647745
-0.219777 0.0958444 0.629123
0.00844839 0.00784552 -0.0241328
-0.000229439 -0.000412353 -0.00149137
-0.00151119 -0.0333781 -0.0450872
0.00314306 -0.00459245 -0.0311391
-0.000353915 -0.0104858 0.000225044
-0.0046194 0.000852997 -0.00541617
0.00147104 -0.00291974 0.00720274
-0.00130666 0.00319763 6.09011e-05
-0.00664937 -0.0386279 0.0792255
0.00515767 -0.00440403 -0.0040794
0.00197647 0.000341319 -0.00133747
0.0059373 0.00909965 0.00982318
0.000234262 0.00633288 -0.00393777
0.00402206 0.00159444 -0.00644041
-0.00147493 -0.00127287 0.0100099
0.011482 -0.00556046 0.00507446
0.000512131 -0.000269752 -0.00217084
0.0114804 0.0097138 0.00510692
0.0102519 0.0201145 -0.00731175
-0.00315309 -0.000820993 -0.00415172
-0.0025405 0.0464527 0.0135064
0.00416058 0.00931146 -0.0148581
0.00772885 0.00278979 -0.00949331
0.263956 0.0579246 -0.183254
-0.000332182 -0.275847 -0.578165
0.00586249 -0.0155298 -0.0148119
0.000464618 -0.00199202 -0.000658829
0.00296011 0.000203145 -0.00357845
0.000517693 -0.000275294 0.00158671
0.0146399 -0.00568734 -0.012391
0.0088833 0.00204221 -0.0130153
-0.00461104 0.00910163 0.0297297
0.00502673 -0.0014242 -0.00255788
-0.00278451 0.00041508 -0.00134987
-0.00400516 0.0547082 -0.0224525
0.00234256 -0.000927351 -0.00396241
0.00227145 -0.000481789 -0.00612003
0.00178232 -0.000171969 -0.00308059
-0.00821872 0.0222054 0.010041
-0.000469666 0.00244361 -0.00141971
-0.00360921 0.00342993 -0.00300571
0.0017881 0.0034439 -0.00545986
-0.00208633 -0.00133912 -0.00363245
0.00653165 -0.00293367 0.00163771
0.000251167 0.000771555 0.00181965
-0.000245532 -7.27481e-05 0.000419802
0.00903282 0.0230783 0.0321756
0.000754252 0.00575476 0.00312558
-0.00330207 -0.00220927 0.00239056
0.0118251 0.000398212 0.00323929
0.00768718 -0.00402068 -0.00112393
-0.00535737 0.00027843 0.00103165
0.0113606 0.0263922 0.00355271
-0.000980761 0.0009495 0.00202004
0.00326922 0.00981997 -0.00241002
-0.00155123 0.000638164 0.00269992
0.00810792 0.00394808 0.000274878
0.00811544 0.00260617 -0.00122406
0.0142137 -0.0100257 -0.000341183
0.00565572 0.00394418 -0.0011372
0.00251297 0.000282131 0.00438786
0.0134336 -0.00492894 -0.0046758
0.00569747 -0.0277845 -0.0239081
0.000462651 -0.00132772 -0.000365842
-0.410661 -0.663452 -0.62163
0.00358031 0.00414613 0.000834179
0.0010125 -0.000450461 0.000422396
-0.0239483 -0.00955002 -0.00728509
0.00339467 0.00501536 -0.000381522
0.314142 0.126235 -0.187022
0.000749973 0.00122479 0.00132846
-0.00118798 -3.58267e-05 -0.000322714
0.00276328 0.00585569 0.0071413
0.00346789 0.00221857 0.00443507
0.00178014 0.00154188 0.00409471
0.000797193 -0.00174752 -5.97234e-06
0.0420854 -0.00918228 -0.013322
-0.00123173 0.00229321 0.000183093
0.00860635 -0.00525939 0.00260272
0.000425792 0.000656278 0.0012842
0.000860523 0.00752249 -0.00304794
0.00635074 1.55568e-06 0.00273549
0.00962974 -0.00410909 0.00375989
0.00079896 -0.00232363 -0.00254582
0.275363 0.0109501 -0.156246
-0.00728884 0.013863 -0.00787742
0.00535807 -0.00098986 0.00556442
-0.00166433 0.0022395 0.00182416
0.00186457 -0.0047152 0.00704473
0.00235555 -0.00962344 0.00989176
0.013683 0.0354401 0.0394416
-5.34167e-05 0.00172355 -0.00632014
-0.0114002 -0.00565623 0.00386168
0.0028967 -0.000489638 -0.00353903
0.000650014 0.0040647 0.00613377
0.00132762 0.0026794 -0.00340697
0.00222931 0.00511437 0.000270704

VECTORS force float
-2.07098e-06 1.1885e-06 -3.95698e-06
-8.54655e-06 -2.34544e-06 -4.38532e-06
0.0 0.0 -5.1365e-06
6.20104e-06 -1.79826e-05 -1.94583e-05
-4.28517e-08 2.42556e-06 -3.65436e-06
1.31523e-18 -1.29204e-18 2.28699e-20
0.0 0.0 -5.1365e-06
-2.59244e-08 1.75263e-07 1.83448e-07
0.0 0.0 -5.1365e-06
-3.80762e-06 -1.77998e-06 4.88976e-07
-9.59947e-07 -2.07081e-07 -3.89095e-06
0.0 0.0 -5.1365e-06
-1.83285e-07 -1.30241e-06 -3.77051e-06
-1.45957e-07 9.47956e-07 2.76564e-07
2.70058e-06 -1.13883e-05 2.53956e-05
-0.0663579 0.330827 0.31527
0.0 0.0 -5.1365e-06
0.0 0.0 -5.1365e-06
0.0 0.0 0.0
0.0 0.0 -5.1365e-06
0.0 0.0 -5.1365e-06
0.0 0.0 -5.1365e-06
0.0 0.0 -5.1365e-06
0.0 0.0 -5.1365e-06
-2.92898e-05 8.02381e-05 -1.88839e-05
0.0 0.0 -5.1365e-06
2.45946e-06 3.01334e-06 -9.96031e-07
0.0 0.0 -5.1365e-06
0.0 0.0 -5.1365e-06
4.43424e-05 -1.40989e-05 1.11021e-05
2.00839e-05 -8.13309e-05 2.38809e-05
1.12151e-07 4.65741e-06 1.74881e-06
0.0 0.0 -5.1365e-06
2.67882e-06 -4.20574e-05 8.05233e-05
-2.01204e-05 2.98993e-05 -7.71476e-06
-4.85836e-07 -1.30095e-06 1.34636e-06
2.39142e-08 9.1175e-07 -1.16362e-07
3.0462e-06 -1.48484e-05 7.60579e-06
1.57393e-05 -3.58854e-05 -4.38465e-05
2.02152e-05 -2.44849e-05 2.4944e-05
1.70249e-07 5.99251e-07 9.57157e-08
-1.28171e-05 5.36624e-05 -3.87724e-05
0.0 0.0 -5.1365e-06
-8.5844e-07 3.63783e-06 7.49575e-06
3.97515e-07 -3.30504e-06 -3.16882e-06
0.0 0.0 -5.1365e-06
0.0 0.0 -5.1365e-06
1.07989e-07 -8.63583e-07 -1.13022e-06
1.17147e-06 -1.40737e-05 -7.31873e-06
2.84838e-06 2.75328e-07 2.21539e-06
2.43024e-05 -5.05605e-05 -7.30203e-06
0.0 0.0 -5.1365e-06
0.0 0.0 -5.1365e-06
8.21365e-05 -7.13035e-06 -0.000145334
-5.65604e-05 -4.65131e-05 9.5552e-06
0.0 0.0 -5.1365e-06
0.0 0.0 -5.1365e-06
-1.16383e-06 1.54756e-06 7.22145e-06
3.02786e-06 -9.65741e-06 2.09656e-05
1.03443e-05 6.21374e-06 1.62385e-07
-2.25181e-06 4.99471e-06 1.00405e-06
2.37933e-05 -5.6266e-05 2.35296e-05
1.81765e-06 -6.76468e-06 5.22162e-06
0.000103097 -7.61087e-05 0.000124851
-1.11009e-07 -1.01136e-06 1.57197e-06
1.06583e-06 -1.13408e-06 2.85887e-07
-1.18096e-06 4.61432e-06 1.46658e-05
1.14484e-05 3.67265e-07 5.52169e-06
-3.8192e-06 -1.40886e-06 -5.03451e-06
-1.11527e-06 7.55798e-06 -4.04918e-06
-3.504e-08 -2.09549e-07 1.2357e-07
3.43879e-07 2.37877e-06 -4.51411e-06
9.22126e-06 -6.42209e-06 2.31002e-06
2.88631e-06 -2.56315e-08 -2.15151e-06
0.0 0.0 -5.1365e-06
0.0 0.0 -5.1365e-06
8.41424e-07 3.5225e-06 -4.39265e-06
0.0 0.0 -5.1365e-06
0.0 0.0 -5.1365e-06
9.83487e-07 1.74049e-06 -2.69169e-06
0.0 0.0 -5.1365e-06
1.98833e-05 9.02212e-05 -6.37793e-05
-3.29338e-07 8.22166e-07 -1.75687e-06
0.0 0.0 -5.1365e-06
-3.50593e-06 -1.79995e-06 -4.28009e-06
-7.80733e-06 1.79032e-06 -6.04234e-05
0.0 0.0 -5.1365e-06
2.34598e-05 1.34049e-05 -9.47249e-05
9.31e-07 1.67903e-06 -1.6629e-06
8.57658e-09 -1.08728e-06 -2.2691e-06
1.2561e-07 1.22828e-06 -3.05877e-07
0.0 0.0 -5.1365e-06
-5.9971e-07 -6.46327e-06 9.59977e-07
3.38043e-07 1.40448e-07 -5.56683e-06
7.54764e-06 -8.08999e-06 1.11988e-05
0.0 0.0 -5.1365e-06
0.0 0.0 -5.1365e-06
-7.40377e-06 6.07125e-06 8.84628e-06
4.70405e-06 -2.25868e-05 -3.49988e-05
5.50823e-06 2.61324e-05 3.61602e-05
-5.91877e-08 1.5763e-06 -3.67247e-06
0.0 0.0 -5.1365e-06
5.43387e-06 -3.55668e-06 -4.88e-05
1.76542e-06 3.09205e-06 -8.47291e-07
0.0 0.0 -5.1365e-06
-3.93039e-05 1.58116e-05 4.46413e-06
-4.13548e-08 -1.45094e-07 -3.02714e-06
0.0 0.0 -5.1365e-06
-1.22303e-07 6.92015e-07 -4.06709e-06
3.02671e-05 3.33962e-06 4.65379e-05
0.0 0.0 -5.1365e-06
-0.00595269 0.0503229 0.0198224
0.000346709 1.33195e-05 -0.000660793
1.57095e-05 2.05865e-05 3.00442e-05
6.14626e-05 2.18736e-05 -3.16363e-05
-4.33525e-06 5.68925e-06 -4.61476e-06
0.0 0.0 -5.1365e-06
7.71335e-07 6.37914e-05 0.000105594
0.0 0.0 -5.1365e-06
3.00443e-05 0.000109885 1.08375e-05
1.67608e-05 1.63276e-05 -4.47977e-05
0.0 0.0 -5.1365e-06
-7.48164e-07 1.40353e-05 1.80742e-05
2.24151e-05 5.0146e-05 3.78417e-05
1.55304e-05 4.23639e-05 8.47953e-05
0.0 0.0 -5.1365e-06
1.04036e-05 -1.63203e-05 1.64138e-05
3.59565e-09 -2.94384e-08 -5.18129e-06
3.94813e-05 1.75218e-05 -1.65569e-07
-4.23911e-07 1.06198e-06 -2.80892e-06
3.089e-05 -8.53281e-06 -5.35624e-05
1.42765e-06 -2.08955e-06 -5.42219e-06
-7.29141e-06 -2.10281e-05 -1.17782e-06
5.56902e-07 5.46841e-07 -3.09785e-06
7.86511e-06 -1.75106e-07 -6.62591e-07
-1.92767e-06 9.20988e-06 3.47247e-06
0.0 0.0 -5.1365e-06
7.24886e-07 1.09611e-07 -4.15357e-06
3.3732e-08 -7.63313e-07 -3.77555e-06
8.52002e-07 1.4742e-07 -1.37459e-06
-4.52933e-06 -5.97233e-06 -3.00392e-06
0.0 0.0 -5.1365e-06
0.0 0.0 -5.1365e-06
-2.89562e-07 6.20292e-06 -4.21462e-06
0.0 0.0 -5.1365e-06
2.92326e-06 -4.20504e-05 4.86669e-06
0.0 0.0 -5.1365e-06
5.64488e-07 -7.2466e-07 -4.32533e-06
1.18907e-05 -3.16731e-05 3.73207e-05
0.0 0.0 -5.1365e-06
2.57451e-05 1.84464e-06 -4.87316e-05
0.0131759 0.0739886 0.0106992
1.33045e-06 4.16651e-06 -4.92605e-06
0.0 0.0 -5.1365e-06
0.0 0.0 -5.1365e-06
-4.39364e-07 6.81733e-06 -4.89582e-06
0.0 0.0 -5.1365e-06
-2.6027e-06 1.2983e-05 -4.02831e-06
-2.54751e-06 -2.26791e-06 -5.47298e-06
-0.000847995 0.00251855 -0.000379151
-7.76855e-07 -1.42911e-06 -5.17144e-06
-8.89601e-07 -3.95358e-06 -6.80533e-06
-3.12528e-05 1.31418e-05 -4.7671e-06
-4.20429e-07 4.72236e-06 4.77531e-07
-1.76407e-06 5.21537e-05 2.41152e-07
-1.92079e-05 -1.12494e-05 5.68709e-05
2.54521e-05 -7.71911e-06 5.962e-06
3.93368e-06 -5.71527e-06 7.03341e-06
1.42775e-06 3.5598e-07 -4.82332e-06
0.0 0.0 -5.1365e-06
-1.9614e-05 1.95004e-05 5.73478e-05
0.0 0.0 -5.1365e-06
0.0 0.0 -5.1365e-06
1.07432e-06 -5.77359e-07 -2.9793e-06
-6.00949e-06 9.48418e-07 -4.83522e-06
-7.67234e-07 -1.10807e-05 -9.41448e-06
0.0 0.0 -5.1365e-06
0.0 0.0 -5.1365e-06
4.1618e-06 -2.89115e-06 4.4196e-07
-2.16041e-06 -8.63767e-07 -1.79622e-06
5.46387e-06 -5.27382e-06 2.2656e-05
-2.47303e-06 -2.632e-06 4.57951e-06
0.0 0.0 -5.1365e-06
0.0 0.0 -5.1365e-06
