# vtk DataFile Version 3.0
LIGGGHTS particles timestep 2200000
ASCII
DATASET POLYDATA
POINTS 174 float
0.0215836 0.0149335 0.0156824
0.0197336 0.0166247 0.0153929
0.0187555 0.0234702 0.0119435
0.0191309 0.0194012 0.0159312
0.0216667 0.0224067 0.0165108
0.0546579 0.01997 0.0058506
0.0200851 0.0149212 0.0155222
0.024184 0.0223816 0.0148685
0.0130551 0.0206755 0.0156446
0.0288957 0.0221734 0.00848456
0.0236008 0.0233914 0.0113133
0.0142209 0.0228176 0.0152954
0.0230983 0.0155707 0.0154388
0.0202873 0.0218991 0.0149226
0.0197749 0.0168271 0.0177066
0.0205363 0.0181207 0.0158759
0.0345955 0.0188418 0.00570992
0.020558 0.0235564 0.0142922
0.0160453 0.0229697 0.0151636
0.0220733 0.0187942 0.00721992
0.0248523 0.020505 0.0156665
0.0212195 0.0229436 0.0150287
0.0238429 0.0228343 0.00935215
0.0186188 0.0150281 0.016419
0.0189219 0.0203655 0.0157615
0.0186787 0.0217809 0.0155118
0.02186 0.0237037 0.0149335
0.0232637 0.0219488 0.0159416
0.0201072 0.0190648 0.0159736
0.0162208 0.0215906 0.0161025
0.0265076 0.0147821 0.0119845
0.0229944 0.0213882 0.0170319
0.0134007 0.0214943 0.0161627
0.0171546 0.0233208 0.0146809
0.0207744 0.0163473 0.0150307
0.0273443 0.0158814 0.00861311
0.0197782 0.0139715 0.0137832
0.0148152 0.0222146 0.015864
0.0227932 0.022586 0.0165782
0.0190576 0.0116934 0.0230867
0.0200136 0.0209358 0.0162649
0.0181817 0.023639 0.0140535
0.0223958 0.00594712 0.0389045
0.0142777 0.0224534 0.0143565
0.0199383 0.0159313 0.0146994
0.0170563 0.0235841 0.0156848
0.0195353 0.0174425 0.0159399
0.0209699 0.0157554 0.0158142
0.0256779 0.0204609 0.0156766
0.0267784 0.0148118 0.0108387
0.0137602 0.0166679 0.0152654
0.0201401 0.0216969 0.0171298
0.0170963 0.0223933 0.0156157
0.0216556 0.0167216 0.0152858
0.0166572 0.0238616 0.0136712
0.0224446 0.0145458 0.0141826
0.0199069 0.0200366 0.0158404
0.0260601 0.0190641 0.0172142
0.0257221 0.0201732 0.0170497
0.0276492 0.0169051 0.00772725
0.0272066 0.0153701 0.00924989
0.0249983 0.0195855 0.015896
0.0193453 0.0184237 0.0159063
0.0189666 0.0231977 0.0130477
0.0218152 0.0197641 0.0167131
0.0251793 0.021828 0.0166152
0.0212877 0.0156107 0.00889429
0.0175213 0.0138703 0.0139707
0.0222307 0.0213629 0.016235
0.0205198 0.0146868 0.0130158
0.0195799 0.0241466 0.0129688
0.0224608 0.0197816 0.00583582
0.0365421 -0.0102452 0.0377525
0.0214231 0.0147381 0.0125888
0.0165826 0.0229685 0.0163754
0.0181497 0.014591 0.0142629
0.0179263 0.0206324 0.016814
0.0182253 0.015312 0.0151929
0.0181676 0.0233405 0.0109855
0.0220323 0.0226081 0.0155324
0.0196102 0.0212503 0.0153851
0.0229364 0.0183881 0.0436245
0.0206783 0.0183868 0.0168343
0.0216999 0.0144612 0.0135133
0.0212034 0.0152631 0.0138494
0.0233496 0.0164164 0.0160541
0.0211023 0.0227378 0.0175599
0.0158618 0.0145295 0.014054
0.023042 0.0227022 0.00921477
0.0230646 0.0227338 0.0152441
0.0168024 0.0146854 0.0144418
0.0222757 0.0151559 0.0149808
0.019024 0.0139812 0.0130015
0.0188594 0.0211327 0.016826
0.0283054 0.018164 0.00595294
0.0192101 0.0151566 0.0150911
0.0180463 0.0164739 0.0172503
0.022915 0.0220576 0.00864192
0.0145826 0.0214455 0.0152689
0.0291851 0.0229086 0.00944687
0.0210403 0.0194172 0.0159349
0.0187188 0.0238725 0.0148235
0.0255117 0.0174243 0.0155226
0.026146 0.0152961 0.0136166
0.0208433 0.0203847 0.0160809
0.0184187 0.0226237 0.0170043
0.0281154 0.0190012 0.00717874
0.0180515 0.0237699 0.0158339
0.0195792 0.0219253 0.0162934
0.0180663 0.0231583 0.0132226
0.0354862 0.0197731 0.00599028
0.0250637 0.0212738 0.0159575
0.0206021 0.0145937 0.0119896
0.0186083 0.0225198 0.0144637
0.0207566 0.014795 0.0109571
0.0229545 0.0237047 0.0150235
0.0185801 0.0241687 0.0131602
0.02066 0.0211473 0.0154639
0.0209758 0.0240694 0.0132913
0.019778 0.0237505 0.0149162
0.0176786 0.0177904 0.016935
0.0206535 0.0236671 0.0156694
0.0240919 0.0154772 0.0153763
0.0205003 0.0145075 0.0146631
0.0257604 0.0194495 0.0158927
0.0196022 0.0224173 0.014412
0.0202057 0.0150979 0.0138744
0.0151777 0.0212447 0.0162635
0.0225101 0.023571 0.014177
0.0178832 0.0234196 0.0123645
0.0258644 0.0182 0.0167437
0.0218397 0.0238256 0.013532
0.0210099 0.0150169 0.00996744
0.0222926 0.0161657 0.0159582
0.0155162 0.0152216 0.0146876
0.0190792 0.0142841 0.0144673
0.0180349 0.0140595 0.0131264
0.0208474 0.0139148 0.0136476
0.0144909 0.0156162 0.0143224
0.0454623 0.0165053 0.00632503
0.0158934 0.0235462 0.0142344
0.0232767 0.023064 0.00985429
0.013594 0.0215638 0.0151842
0.0253649 0.0183436 0.015889
0.0245665 0.0215488 0.0151886
0.020551 0.0171456 0.0156414
0.0157266 0.0224767 0.0162164
0.0180015 0.0162014 0.0159197
0.0141185 0.017613 0.0317196
0.0192889 0.0233089 0.0139364
0.0194381 0.0218835 0.0196028
0.0174295 0.0218748 0.0165677
0.0150552 0.0232384 0.0147349
0.0175884 0.0234134 0.0114981
0.019347 0.024237 0.0141529
0.0197152 0.0236089 0.0119704
0.019876 0.0232566 0.0128203
0.0213259 0.0241613 0.0142107
0.0166776 0.0142215 0.0135652
0.017467 0.0224505 0.0178914
0.0198151 0.0234508 0.0183253
0.0232587 0.0148947 0.0146974
0.0202009 0.0228714 0.0151377
0.089209 0.0204289 0.00606712
0.0152003 0.0152102 0.0137394
0.0207675 0.0218217 0.0162576
0.0214294 0.0176213 0.0157072
0.0201773 0.0243714 0.0137061
0.0202233 0.0243257 0.0178653
0.0214877 0.0235193 0.0168958
0.0172238 0.0152776 0.0151282
0.0205256 0.0240756 0.0124329
0.020134 0.0228931 0.0137055
0.0175174 0.0240694 0.0131723

VERTICES 174 348
1 0
1 1
1 2
1 3
1 4
1 5
1 6
1 7
1 8
1 9
1 10
1 11
1 12
1 13
1 14
1 15
1 16
1 17
1 18
1 19
1 20
1 21
1 22
1 23
1 24
1 25
1 26
1 27
1 28
1 29
1 30
1 31
1 32
1 33
1 34
1 35
1 36
1 37
1 38
1 39
1 40
1 41
1 42
1 43
1 44
1 45
1 46
1 47
1 48
1 49
1 50
1 51
1 52
1 53
1 54
1 55
1 56
1 57
1 58
1 59
1 60
1 61
1 62
1 63
1 64
1 65
1 66
1 67
1 68
1 69
1 70
1 71
1 72
1 73
1 74
1 75
1 76
1 77
1 78
1 79
1 80
1 81
1 82
1 83
1 84
1 85
1 86
1 87
1 88
1 89
1 90
1 91
1 92
1 93
1 94
1 95
1 96
1 97
1 98
1 99
1 100
1 101
1 102
1 103
1 104
1 105
1 106
1 107
1 108
1 109
1 110
1 111
1 112
1 113
1 114
1 115
1 116
1 117
1 118
1 119
1 120
1 121
1 122
1 123
1 124
1 125
1 126
1 127
1 128
1 129
1 130
1 131
1 132
1 133
1 134
1 135
1 136
1 137
1 138
1 139
1 140
1 141
1 142
1 143
1 144
1 145
1 146
1 147
1 148
1 149
1 150
1 151
1 152
1 153
1 154
1 155
1 156
1 157
1 158
1 159
1 160
1 161
1 162
1 163
1 164
1 165
1 166
1 167
1 168
1 169
1 170
1 171
1 172
1 173

POINT_DATA 174
SCALARS id int 1
LOOKUP_TABLE default
1
2
3
4
5
6
7
9
10
11
13
14
15
16
17
19
20
22
23
24
25
26
27
28
29
30
31
32
33
34
35
36
37
38
39
40
41
42
44
45
46
47
48
49
50
51
52
53
54
55
57
59
60
61
62
63
64
65
66
67
68
69
70
71
72
73
74
75
76
77
78
79
80
81
82
83
84
85
86
87
88
89
90
92
93
95
96
97
98
100
101
102
103
105
106
107
108
109
110
111
112
113
114
115
116
117
118
119
120
121
122
123
124
125
126
127
128
129
130
131
132
133
134
135
136
137
138
139
140
141
142
143
144
145
146
147
148
149
150
151
152
153
154
155
158
159
160
162
163
164
165
166
167
168
169
170
171
172
173
174
175
176
177
178
180
181
182
183
184
185
186
187
188
189

SCALARS type int 1
LOOKUP_TABLE default
1
1
1
1
1
1
1
1
1
1
1
1
1
1
1
1
1
1
1
1
1
1
1
1
1
1
1
1
1
1
1
1
1
1
1
1
1
1
1
1
1
1
1
1
1
1
1
1
1
1
1
1
1
1
1
1
1
1
1
1
1
1
1
1
1
1
1
1
1
1
1
1
1
1
1
1
1
1
1
1
1
1
1
1
1
1
1
1
1
1
1
1
1
1
1
1
1
1
1
1
1
1
1
1
1
1
1
1
1
1
1
1
1
1
1
1
1
1
1
1
1
1
1
1
1
1
1
1
1
1
1
1
1
1
1
1
1
1
1
1
1
1
1
1
1
1
1
1
1
1
1
1
1
1
1
1
1
1
1
1
1
1
1
1
1
1
1
1
1
1
1
1
1
1

SCALARS radius float 1
LOOKUP_TABLE default
0.0005
0.0005
0.0005
0.0005
0.0005
0.0005
0.0005
0.0005
0.0005
0.0005
0.0005
0.0005
0.0005
0.0005
0.0005
0.0005
0.0005
0.0005
0.0005
0.0005
0.0005
0.0005
0.0005
0.0005
0.0005
0.0005
0.0005
0.0005
0.0005
0.0005
0.0005
0.0005
0.0005
0.0005
0.0005
0.0005
0.0005
0.0005
0.0005
0.0005
0.0005
0.0005
0.0005
0.0005
0.0005
0.0005
0.0005
0.0005
0.0005
0.0005
0.0005
0.0005
0.0005
0.0005
0.0005
0.0005
0.0005
0.0005
0.0005
0.0005
0.0005
0.0005
0.0005
0.0005
0.0005
0.0005
0.0005
0.0005
0.0005
0.0005
0.0005
0.0005
0.0005
0.0005
0.0005
0.0005
0.0005
0.0005
0.0005
0.0005
0.0005
0.0005
0.0005
0.0005
0.0005
0.0005
0.0005
0.0005
0.0005
0.0005
0.0005
0.0005
0.0005
0.0005
0.0005
0.0005
0.0005
0.0005
0.0005
0.0005
0.0005
0.0005
0.0005
0.0005
0.0005
0.0005
0.0005
0.0005
0.0005
0.0005
0.0005
0.0005
0.0005
0.0005
0.0005
0.0005
0.0005
0.0005
0.0005
0.0005
0.0005
0.0005
0.0005
0.0005
0.0005
0.0005
0.0005
0.0005
0.0005
0.0005
0.0005
0.0005
0.0005
0.0005
0.0005
0.0005
0.0005
0.0005
0.0005
0.0005
0.0005
0.0005
0.0005
0.0005
0.0005
0.0005
0.0005
0.0005
0.0005
0.0005
0.0005
0.0005
0.0005
0.0005
0.0005
0.0005
0.0005
0.0005
0.0005
0.0005
0.0005
0.0005
0.0005
0.0005
0.0005
0.0005
0.0005
0.0005
0.0005
0.0005
0.0005
0.0005
0.0005
0.0005

SCALARS mass float 1
LOOKUP_TABLE default
5.23599e-07
5.23599e-07
5.23599e-07
5.23599e-07
5.23599e-07
5.23599e-07
5.23599e-07
5.23599e-07
5.23599e-07
5.23599e-07
5.23599e-07
5.23599e-07
5.23599e-07
5.23599e-07
5.23599e-07
5.23599e-07
5.23599e-07
5.23599e-07
5.23599e-07
5.23599e-07
5.23599e-07
5.23599e-07
5.23599e-07
5.23599e-07
5.23599e-07
5.23599e-07
5.23599e-07
5.23599e-07
5.23599e-07
5.23599e-07
5.23599e-07
5.23599e-07
5.23599e-07
5.23599e-07
5.23599e-07
5.23599e-07
5.23599e-07
5.23599e-07
5.23599e-07
5.23599e-07
5.23599e-07
5.23599e-07
5.23599e-07
5.23599e-07
5.23599e-07
5.23599e-07
5.23599e-07
5.23599e-07
5.23599e-07
5.23599e-07
5.23599e-07
5.23599e-07
5.23599e-07
5.23599e-07
5.23599e-07
5.23599e-07
5.23599e-07
5.23599e-07
5.23599e-07
5.23599e-07
5.23599e-07
5.23599e-07
5.23599e-07
5.23599e-07
5.23599e-07
5.23599e-07
5.23599e-07
5.23599e-07
5.23599e-07
5.23599e-07
5.23599e-07
5.23599e-07
5.23599e-07
5.23599e-07
5.23599e-07
5.23599e-07
5.23599e-07
5.23599e-07
5.23599e-07
5.23599e-07
5.23599e-07
5.23599e-07
5.23599e-07
5.23599e-07
5.23599e-07
5.23599e-07
5.23599e-07
5.23599e-07
5.23599e-07
5.23599e-07
5.23599e-07
5.23599e-07
5.23599e-07
5.23599e-07
5.23599e-07
5.23599e-07
5.23599e-07
5.23599e-07
5.23599e-07
5.23599e-07
5.23599e-07
5.23599e-07
5.23599e-07
5.23599e-07
5.23599e-07
5.23599e-07
5.23599e-07
5.23599e-07
5.23599e-07
5.23599e-07
5.23599e-07
5.23599e-07
5.23599e-07
5.23599e-07
5.23599e-07
5.23599e-07
5.23599e-07
5.23599e-07
5.23599e-07
5.23599e-07
5.23599e-07
5.23599e-07
5.23599e-07
5.23599e-07
5.23599e-07
5.23599e-07
5.23599e-07
5.23599e-07
5.23599e-07
5.23599e-07
5.23599e-07
5.23599e-07
5.23599e-07
5.23599e-07
5.23599e-07
5.23599e-07
5.23599e-07
5.23599e-07
5.23599e-07
5.23599e-07
5.23599e-07
5.23599e-07
5.23599e-07
5.23599e-07
5.23599e-07
5.23599e-07
5.23599e-07
5.23599e-07
5.23599e-07
5.23599e-07
5.23599e-07
5.23599e-07
5.23599e-07
5.23599e-07
5.23599e-07
5.23599e-07
5.23599e-07
5.23599e-07
5.23599e-07
5.23599e-07
5.23599e-07
5.23599e-07
5.23599e-07
5.23599e-07
5.23599e-07
5.23599e-07
5.23599e-07
5.23599e-07
5.23599e-07
5.23599e-07
5.23599e-07
5.23599e-07
5.23599e-07
5.23599e-07

VECTORS velocity float
-0.016988 -0.0032936 -0.0454241
0.00152264 0.0521119 0.0299864
0.020266 -0.0268339 -0.0268913
0.00236471 0.0595216 -0.00845821
0.0482766 0.00933296 0.0777647
-1.2662e-14 -1.71062e-14 -2.43733e-13
0.0170129 -0.00352275 -0.0394008
-0.00239553 0.0181797 -0.0159555
0.0267865 0.0104975 -0.00545261
0.000518607 -0.0275801 -0.0253624
0.00162803 0.000171974 -0.0457894
0.0118147 0.00175753 -0.0517844
-0.007579 -0.00823988 -0.0056059
-0.0120372 0.0198069 -0.0121936
0.0468653 -0.143059 -0.0355451
-0.00397603 0.0143599 0.0131091
8.70798e-20 -7.24606e-21 3.48289e-20
-0.0210403 0.00597123 0.0129713
0.0201327 -0.000731887 -0.00283138
0.00115473 -0.0484721 0.00431702
0.000387067 0.0358815 -0.0139892
-0.0267978 0.029837 -0.017825
0.0097208 -0.000212714 -0.00196071
0.0351167 0.0392044 0.0121221
0.0174081 0.0591798 -0.0164595
0.0137767 -0.00629802 0.0285986
0.00289229 0.0400419 0.0688366
-0.130836 -0.104354 0.101938
0.00726972 0.0436438 0.00105887
-0.0247175 -0.0404626 0.0288243
0.00609695 -0.00485698 0.000680293
-0.0686804 -0.0379368 0.0433824
-0.00261291 -0.0168897 -0.00786698
-0.0125744 0.0363401 -0.0489478
-0.000745941 0.0441533 0.03478
0.00210634 -0.0308002 0.0323487
0.00193964 0.00460248 -0.0719866
0.00186282 0.0241566 -0.0161
-0.027478 0.0627974 0.0794525
-0.357501 -0.488895 0.326759
0.010612 0.0378616 0.00898102
0.033834 -0.0254493 -0.00177078
-0.317659 -0.591315 1.4505
0.00801326 0.00357997 -0.00276156
-0.000469999 0.0432903 0.036538
0.0022293 -0.014103 -0.00528918
-0.000651074 0.0567807 0.035168
0.00678207 0.0197581 0.0183074
-0.00125924 0.0086028 -0.00385494
0.000496412 -0.00888177 0.0504126
0.0130624 -0.0220231 -0.00681225
0.0919367 -0.0892698 0.0681501
0.00496072 -0.0261183 0.00701463
6.38726e-05 0.0469416 0.0293021
-0.0119803 0.0137182 -0.0350091
-0.00179063 0.00202804 -0.00664045
0.00112175 0.0536011 -0.0101118
-0.020359 0.0145192 -0.00530048
0.0531428 0.0327132 0.0091562
0.00367227 -0.0373753 0.0236726
0.0005199 -0.0231873 0.0423709
0.00227724 0.0428255 -0.00627515
0.00120254 0.0525515 0.00731166
0.0200905 0.00532416 -0.013958
0.0162603 -0.0251144 -0.0164566
0.000233231 0.00290135 -0.000292345
0.00109846 -0.0200431 0.0285306
0.00310606 -0.00023824 -0.00236249
0.0465358 -0.0268397 0.0132289
-0.0080851 -0.00378998 -0.00883474
0.00446896 -0.0109647 -0.0272768
-2.15028e-15 4.89546e-16 -1.81979e-14
0.0418046 -0.188993 -0.596407
-0.00620484 -0.00289985 -0.0113478
-0.0209719 -0.0110493 -0.0176593
0.00944326 -0.0054415 -0.00555509
0.0007943 -0.0589331 0.0413541
-0.00252367 -0.0018174 -0.00194237
0.00720957 0.00249661 0.00660225
-0.0334194 -0.0175833 -0.0297367
0.0311845 0.0210703 0.0031889
-0.108658 -0.157368 1.80797
0.0643502 -0.036739 0.0701383
-0.0110389 -0.00679448 -0.00339962
0.0211638 -0.0106796 -0.0208949
-0.000965265 0.00416247 0.006839
0.145627 -0.0931306 0.204912
-0.000972802 0.001224 0.00216243
0.00872536 -0.0139699 -0.0158499
-0.000496545 -0.0242637 0.0880855
0.000151092 0.00162521 0.00484125
-0.0102755 -0.00105947 -0.0306028
6.73616e-05 0.00259302 -0.00430259
0.0276208 -0.085314 0.110583
-1.63704e-14 1.55587e-16 -1.92034e-13
-0.00742352 -0.00751739 -0.00333997
0.0626381 -0.011006 -0.148959
0.00354957 -0.0150378 -0.0175571
0.00685644 0.0213281 -0.014199
0.00191472 -0.0222304 -0.0410822
0.00951339 0.0308852 0.00886195
0.0112279 0.00680635 -0.0252354
-0.00137328 0.049556 0.0263982
0.00287655 0.0192067 0.0367328
0.0126955 0.0289104 0.0287593
-0.0341963 -0.051095 0.274778
0.00405918 -0.0480508 0.000215221
0.0131185 -0.0243067 -0.0523334
0.0430421 -0.062778 0.0945238
0.0211166 -0.00754031 0.00658272
3.74155e-15 2.13281e-14 -8.2689e-14
0.00355502 0.0156056 -0.00335931
0.0145338 0.00296535 -0.0210628
-0.0319964 0.00815236 -0.0100119
0.000152311 -0.00902399 0.0528522
-0.00827143 -0.0132597 0.00484124
-0.0283646 0.0166552 -0.0249736
0.00206334 0.0294154 0.0146944
-0.00458176 -0.000334814 -0.00694633
0.00486125 0.030313 0.0618045
0.00203003 0.0263599 -0.0596294
0.0323469 -0.00102679 -0.0116734
-0.00727062 -0.000715991 -0.0115878
0.0116683 0.0117419 -0.047445
-0.000885411 0.0101269 -0.00207949
-0.0328903 -0.0053999 -0.00847468
-0.00126229 0.0354924 -0.0213052
-0.0947746 -0.0221824 -0.00994133
0.0139798 -0.00465916 -0.0042318
0.0195856 0.00945308 0.0209995
-0.00565105 0.00284939 0.00100237
-0.00562466 -0.00828817 0.00674192
0.00127942 -0.0160687 0.0458584
0.0230322 -0.0124451 -0.031811
0.00569326 0.00697761 -0.00643171
0.0175439 -0.0100754 -0.0473241
0.000765349 -0.001259 0.00282066
-0.00195729 -0.00234453 -0.00339222
8.2789e-05 -0.00195614 0.00258555
-6.80504e-15 -3.79794e-14 -2.61336e-13
0.0103791 -0.00189549 -0.00106296
0.0105181 0.00318112 -0.00725829
0.00423224 0.0064463 -0.0046268
0.0011537 0.0593898 0.00462428
0.00304267 0.0104818 -0.00532206
0.00947424 0.0509592 0.0120796
-0.00780997 -0.00154312 -0.00616825
-0.0151212 -0.0311198 -0.0115209
0.49957 0.337654 0.905358
0.0049612 -0.0201636 -0.00349982
-0.00585064 -0.0453105 0.305672
-0.0058465 0.000893582 0.0720066
0.0274092 -0.00988655 0.0244998
0.00259947 0.000880298 0.00252264
0.0183704 -0.0238606 0.021128
-0.00888218 -0.0108731 -0.0192947
-0.014857 0.00333709 -0.0274539
-0.0124432 0.00328573 -0.00639153
0.000301068 -0.00199768 0.00491186
-0.102658 -0.0498196 0.282149
0.151126 0.0686422 0.264154
-0.00890778 -0.00784024 -0.00251299
0.00473105 0.0179774 0.0278779
-7.39741e-15 -1.35125e-14 8.92963e-14
0.00164055 0.00125334 -0.00413134
0.0872402 -0.0357204 0.041508
0.00206519 0.037309 0.0362921
-0.0160656 -0.0112584 -0.018248
0.184005 0.116611 0.315498
-0.00679901 -0.0825194 0.0334942
-0.00020519 0.0140036 -0.00711493
0.00824709 0.00543094 -0.000958379
0.00415044 -0.0180481 0.0194929
0.000179932 -0.000747509 6.07996e-05

VECTORS force float
0.0 0.0 -5.1365e-06
0.0 0.0 -5.1365e-06
-0.00101295 0.000224316 -0.000412134
0.0 0.0 -5.1365e-06
0.0 0.0 -5.1365e-06
-5.43319e-19 -1.88449e-18 1.60089e-19
0.0 0.0 -5.1365e-06
-4.16392e-07 -1.54585e-06 -1.50905e-06
0.0 0.0 -5.1365e-06
2.19104e-06 1.25434e-05 1.20054e-05
-3.0625e-06 7.72684e-06 4.38333e-05
0.0 0.0 -5.1365e-06
-8.00266e-07 -2.42442e-07 -2.61644e-06
4.83427e-06 7.29951e-05 -1.13805e-05
0.0 0.0 -5.1365e-06
0.0 0.0 -5.1365e-06
0.0 0.0 0.0
-3.12056e-05 -0.000129667 0.000492676
0.0 0.0 -5.1365e-06
-1.39852e-07 -2.82834e-07 2.13814e-07
-5.62981e-06 2.55973e-05 -1.23479e-05
-5.77098e-05 -9.90926e-05 -4.81433e-05
9.78527e-06 -5.06649e-06 -1.8659e-05
0.0 0.0 -5.1365e-06
0.0 0.0 -5.1365e-06
0.0 0.0 -5.1365e-06
5.77098e-05 9.90926e-05 3.78703e-05
0.0 0.0 -5.1365e-06
3.26138e-05 -3.19279e-05 1.80586e-05
0.0 0.0 -5.1365e-06
1.40339e-06 -1.1683e-07 -3.52723e-06
0.0 0.0 -5.1365e-06
2.52978e-07 6.27446e-07 -1.9505e-06
0.0 0.0 -5.1365e-06
-1.10817e-05 2.01428e-05 9.91574e-06
-2.40205e-07 3.56813e-07 -3.77441e-07
0.0 0.0 -5.1365e-06
4.5497e-07 1.80243e-06 -3.47958e-06
0.0 0.0 -5.1365e-06
0.0 0.0 -5.1365e-06
0.0 0.0 -5.1365e-06
0.000127403 -0.000102173 -0.000289157
0.0 0.0 -5.1365e-06
-6.96946e-07 -3.47718e-08 -9.71209e-08
-4.75643e-06 1.57213e-05 9.52858e-06
0.0 0.0 -5.1365e-06
4.70816e-07 -3.90042e-06 -7.48469e-06
0.0 0.0 -5.1365e-06
-4.73745e-06 2.68064e-05 -1.30192e-05
-3.67424e-08 2.07082e-07 1.38435e-07
-2.32196e-07 -5.16907e-07 3.84909e-07
0.0 0.0 -5.1365e-06
0.0 0.0 -5.1365e-06
-8.15069e-07 4.07377e-06 9.61825e-07
0.0 0.0 -5.1365e-06
0.0 0.0 -5.1365e-06
0.0 0.0 -5.1365e-06
0.0 0.0 -5.1365e-06
0.0 0.0 -5.1365e-06
-6.58641e-06 -3.32656e-05 1.03245e-05
-1.80446e-07 7.57451e-08 1.70999e-07
-5.00911e-06 3.40066e-05 -4.27979e-06
-1.58257e-05 1.4168e-05 7.39416e-06
-4.60109e-05 -8.47155e-05 -0.000234993
0.0 0.0 -5.1365e-06
-2.08079e-05 -1.63672e-05 -4.80198e-05
-6.32745e-08 -1.2064e-06 2.49153e-06
3.19476e-06 -5.8119e-06 1.02579e-05
0.0 0.0 -5.1365e-06
0.0 0.0 -5.1365e-06
-0.000257939 0.00047921 0.000480994
8.48621e-19 6.60527e-19 -6.01393e-20
0.0 0.0 -5.1365e-06
0.0 0.0 -5.1365e-06
1.57791e-05 -6.2319e-06 -8.65854e-06
1.43103e-06 -1.60463e-06 5.77686e-06
0.0 0.0 -5.1365e-06
1.14006e-07 -1.93941e-06 5.21092e-07
-8.83795e-05 -3.05979e-05 -0.00040492
0.0 0.0 -5.1365e-06
0.0 0.0 -5.1365e-06
0.0 0.0 -5.1365e-06
0.0 0.0 -5.1365e-06
0.0 0.0 -5.1365e-06
0.0 0.0 -5.1365e-06
-1.79944e-08 1.01465e-08 -4.32102e-06
0.0 0.0 -5.1365e-06
-1.14099e-05 -3.32029e-06 5.94285e-06
-9.26231e-06 -4.82464e-06 -1.10607e-05
3.69459e-05 0.00106069 0.000373814
2.15988e-06 -1.46174e-06 -9.55855e-07
0.0 0.0 -5.1365e-06
-1.7113e-08 1.73035e-06 -2.40742e-06
0.0 0.0 -5.1365e-06
0.0 -6.53804e-21 0.0
0.0 0.0 -5.1365e-06
0.0 0.0 -5.1365e-06
-1.79514e-05 -3.13736e-05 -3.37681e-05
1.58711e-07 -4.13639e-07 -1.09436e-06
-1.46667e-06 1.0162e-05 3.05719e-05
1.07059e-05 -2.5517e-05 -6.35743e-07
-0.000795786 0.000454391 0.0003526
4.80614e-07 -7.1965e-09 -2.44569e-07
8.34114e-08 5.19408e-07 -1.76124e-07
-2.81065e-05 8.7716e-06 -1.64388e-06
0.0 0.0 -5.1365e-06
-9.07599e-06 4.19209e-06 -3.64557e-07
0.0 0.0 -5.1365e-06
0.0 0.0 -5.1365e-06
3.78516e-06 -0.000158852 -0.000138607
-1.21232e-19 4.89162e-20 6.77626e-21
-4.18776e-05 5.15513e-06 -5.0295e-05
0.0 0.0 -5.1365e-06
0.0 0.0 -5.1365e-06
-1.57494e-07 2.06567e-07 8.8314e-07
-0.00110827 -0.000269475 -0.00079532
0.0 0.0 -5.1365e-06
-2.17936e-05 0.000114014 -1.44732e-05
-0.000120965 -0.000187357 0.000213645
0.0 0.0 -5.1365e-06
0.0 0.0 -5.1365e-06
0.0 0.0 -5.1365e-06
-6.06037e-07 9.29535e-07 -2.08176e-06
0.0 0.0 -5.1365e-06
-3.43001e-06 3.03196e-05 5.38856e-07
-3.22575e-05 1.29831e-05 -4.5381e-05
0.0 0.0 -5.1365e-06
9.71886e-05 0.00021497 0.000234575
0.000659707 -0.00292997 0.000260543
-0.000191392 0.000550889 0.000106247
0.0 0.0 -5.1365e-06
0.000138116 -0.000420683 0.000459325
-1.16055e-07 1.3644e-07 3.8952e-07
0.0 0.0 -5.1365e-06
6.83968e-06 -2.21021e-06 2.1811e-05
-1.74796e-07 1.36189e-08 -5.07857e-06
1.75182e-07 -2.75046e-07 7.81884e-07
0.0 0.0 -5.1365e-06
0.0 0.0 -5.1365e-06
1.23614e-19 -1.05879e-22 -2.5411e-21
0.0 0.0 -5.1365e-06
-1.45253e-05 -3.5939e-05 -6.44116e-05
1.01073e-07 -1.29021e-06 -3.02149e-07
0.0 0.0 -5.1365e-06
8.08808e-06 2.08087e-05 -6.24811e-06
0.0 0.0 -5.1365e-06
-1.57791e-05 6.2319e-06 -1.61447e-06
0.0 0.0 -5.1365e-06
0.0 0.0 -5.1365e-06
0.000413913 -0.000364887 -9.14161e-05
0.0 0.0 -5.1365e-06
0.0 0.0 -5.1365e-06
0.0 0.0 -5.1365e-06
6.82335e-05 -0.000100721 1.49888e-05
-0.000240843 6.59243e-05 0.000238253
-0.000407427 -6.34953e-05 -0.000204321
-0.000246605 6.48301e-05 -0.000485921
1.34794e-05 -0.000211265 0.000515762
-7.12014e-07 1.02396e-05 -1.5093e-05
0.0 0.0 -5.1365e-06
0.0 0.0 -5.1365e-06
-1.40026e-08 -9.45561e-07 -1.95339e-06
-5.01628e-06 1.84976e-05 -1.176e-05
0.0 1.00797e-19 1.52466e-20
-1.14015e-06 3.69826e-06 -6.53159e-07
0.0 0.0 -5.1365e-06
0.0 0.0 -5.1365e-06
-0.000487809 0.000530332 -0.000546528
0.0 0.0 -5.1365e-06
0.0 0.0 -5.1365e-06
3.74247e-06 6.24268e-06 6.02923e-06
9.14403e-05 -8.48353e-06 2.18697e-05
-9.05761e-05 -1.32253e-05 -0.000150786
3.795e-06 5.06339e-06 -7.49599e-07
