# vtk DataFile Version 3.0
LIGGGHTS particles timestep 1600000
ASCII
DATASET POLYDATA
POINTS 179 float
0.0204603 0.0156848 0.0156662
0.0175 0.0234601 0.0117062
0.0144312 0.0213849 0.0161978
0.0164536 0.0142833 0.0137075
0.0202227 0.0160461 0.00843067
0.0546579 0.01997 0.0058506
0.0201354 0.0237409 0.0152909
0.0254007 0.0206895 0.0160479
0.0203241 0.0192296 0.0169269
0.0280276 0.0218153 0.00815129
0.0157374 0.031583 0.0374926
0.0194156 0.0213401 0.0153135
0.0140084 0.0224795 0.0154916
0.0203319 0.0171734 0.0155316
0.0253385 0.0171349 0.0162455
0.0157495 0.0144883 0.0143906
0.0202289 0.0152886 0.00942085
0.0345955 0.0188418 0.00570992
0.0246957 0.0201115 0.016413
0.017267 0.0221643 0.0146647
0.0149136 0.0221372 0.0157492
0.0179804 0.0226317 0.0141442
0.0229463 0.0233901 0.0116954
0.0189343 0.023997 0.0145755
0.0191536 0.0221011 0.0147331
0.0169373 0.0225011 0.0155481
0.0249647 0.0182744 0.0159164
0.0210066 0.0164872 0.0171358
0.0248682 0.0192383 0.0160164
0.0191884 0.0234332 0.0153928
0.0199687 0.0264624 0.0260627
0.0209906 0.0204622 0.0165373
0.0240226 0.0188877 0.0159669
0.0223848 0.0149128 0.0150358
0.0181591 0.0207439 0.0165987
0.0155382 0.0227514 0.0152671
0.0196943 0.0148882 0.0103724
0.0250916 0.0150023 0.0129361
0.0188995 0.0153929 0.0157629
0.0176746 0.0205584 0.0157255
0.0213896 0.016056 0.0157934
0.0208371 0.0146318 0.0120759
0.0192818 0.0139563 0.0140535
0.0174525 0.023084 0.0149169
0.025884 0.0199855 0.0168721
0.0181017 0.0187311 0.0164679
0.0167753 0.0235456 0.0128414
0.0177338 0.0239034 0.0162065
0.0191419 0.0140712 0.0129939
0.0246073 0.0164175 0.0150776
0.0233655 0.0149505 0.0147864
0.0257556 0.0187701 0.0159208
0.0195039 0.0223772 0.0156282
0.0244665 0.0171122 0.015757
0.019151 0.0183042 0.0158791
0.0198445 0.0172514 0.0164015
0.0164529 0.023185 0.0148122
0.0231969 0.0210258 0.0164019
0.0177909 0.0156639 0.0163279
0.0250591 0.0215894 0.0162322
0.0241653 0.0156077 0.0155607
0.0263718 0.016493 0.0080328
0.0256202 0.0197483 0.015906
0.0228376 0.0231503 0.0130732
0.0173795 0.0141281 0.0133641
0.0196876 0.0191468 0.0159575
0.0184267 0.0168992 0.0159377
0.0244423 0.0208719 0.0158226
0.0188271 0.0156552 0.0144171
0.0248506 0.0209266 0.0169401
0.0223247 0.0157602 0.0155898
0.0179003 0.0231767 0.0133093
0.0170683 0.0241616 0.0136428
0.0224608 0.0197816 0.00583582
0.0245061 0.022386 0.0161024
0.0211494 0.0138361 0.0141809
0.0148948 0.022279 0.0191118
0.0224269 0.0212348 0.0170332
0.021322 0.0169732 0.0163208
0.0193799 0.0167739 0.0156472
0.0136451 0.019244 0.01613
0.0235082 0.0211739 0.0153997
0.0132246 0.0171852 0.0155991
0.022079 0.0220131 0.00859641
0.0241784 0.0179122 0.0162476
0.0215949 0.0147288 0.0144504
0.018492 0.0234973 0.0118451
0.0200518 0.0163492 0.0150401
0.0221236 0.0231651 0.0101131
0.0207447 0.015732 0.0144596
0.0193236 0.0162407 0.0192989
0.0226049 0.0196956 0.0176721
0.0240275 0.0225113 0.0152683
0.0204462 0.0227584 0.015317
0.0238226 0.0217459 0.0160739
0.0181661 0.0143771 0.0140449
0.0158046 0.016523 0.0161633
0.0232933 0.0220272 0.0149265
0.0213845 0.0235201 0.0152419
0.0182867 0.0229258 0.0160734
0.0208912 0.0235861 0.0140261
0.0201297 0.0181027 0.0158403
0.0279692 0.0228463 0.00934402
0.0208201 0.0149497 0.0150863
0.0186627 0.020434 0.015739
0.0235472 0.0225523 0.0142544
0.0238237 0.019966 0.015916
0.0196122 0.0206296 0.0167455
0.016056 0.0220915 0.0158109
0.0267953 0.018397 0.00725251
0.0197183 0.0233908 0.0144442
0.0179355 0.0219421 0.0159702
0.0182443 0.0177318 0.0164792
0.0244136 0.0216008 0.0151454
0.0206033 0.0218046 0.0159783
0.018864 0.0230295 0.0135141
0.0157258 0.0212687 0.0162727
0.0192908 0.0241041 0.012786
0.0229953 0.0234081 0.0144533
0.0180412 0.0243702 0.0137196
0.0204187 0.0242386 0.014226
0.0207673 0.0241546 0.0133199
0.0175263 0.0241967 0.0171394
0.0233989 0.0233393 0.0153651
0.0206011 0.0149496 0.0101756
0.0219833 0.0217119 0.0161562
0.0187313 0.0239618 0.0161105
0.0227211 0.0229731 0.00960348
0.0179345 0.0196524 0.0160838
0.0169811 0.0229632 0.0136266
0.0235135 0.0218061 0.0171619
0.0193835 0.0146247 0.0121338
0.0158837 0.0205397 0.0169387
0.0224473 0.0185519 0.0169729
0.0221058 0.023749 0.0137206
0.017462 0.0214143 0.0152631
0.0219117 0.0227416 0.00927594
0.0191496 0.0230556 0.0165691
0.0207022 0.017731 0.0165913
0.0172661 0.0140428 0.0143535
0.0200336 0.0147219 0.0113758
0.0169137 0.0216678 0.0161017
0.0454623 0.0165053 0.00632503
0.0154486 0.0233823 0.014497
0.018154 0.0223793 0.0150955
0.0178138 0.0221822 0.0169376
0.0228907 0.0228052 0.013772
0.0091486 0.0269673 0.03619
0.0233016 0.0160324 0.0158344
0.020493 0.0170814 0.00765336
0.0162499 0.0230197 0.0161279
0.0184349 0.021315 0.0153303
0.0212347 0.0203589 0.00743013
0.0180421 0.0236188 0.0143465
0.0169746 0.0235347 0.0156704
0.0204825 0.0144959 0.0130621
0.0146145 0.0230471 0.0149347
0.0135413 0.0218276 0.0160891
0.0190296 0.0244441 0.0136877
0.0162437 0.0237256 0.0139973
0.0167856 0.0207472 0.016496
0.0214532 0.0242778 0.0140559
0.0171287 0.0148582 0.0160354
0.0222278 0.0239202 0.0146509
0.016685 0.0238128 0.0165861
0.0225469 0.0227962 0.0158701
0.0198223 0.0238645 0.0135614
0.089209 0.0204289 0.00606712
0.01979 0.0155507 0.0144988
0.0187985 0.0230128 0.0145726
0.0196469 0.0202948 0.0157924
0.017695 0.0238492 0.012605
0.0233433 0.0181736 0.0167365
0.0246264 0.0187625 0.016881
0.0189132 0.0216736 0.0161474
0.0204469 0.0240037 0.0124324
0.018647 0.0162203 0.0152256
0.0171047 0.0239626 0.0146447
0.0182021 0.0236181 0.0153331

VERTICES 179 358
1 0
1 1
1 2
1 3
1 4
1 5
1 6
1 7
1 8
1 9
1 10
1 11
1 12
1 13
1 14
1 15
1 16
1 17
1 18
1 19
1 20
1 21
1 22
1 23
1 24
1 25
1 26
1 27
1 28
1 29
1 30
1 31
1 32
1 33
1 34
1 35
1 36
1 37
1 38
1 39
1 40
1 41
1 42
1 43
1 44
1 45
1 46
1 47
1 48
1 49
1 50
1 51
1 52
1 53
1 54
1 55
1 56
1 57
1 58
1 59
1 60
1 61
1 62
1 63
1 64
1 65
1 66
1 67
1 68
1 69
1 70
1 71
1 72
1 73
1 74
1 75
1 76
1 77
1 78
1 79
1 80
1 81
1 82
1 83
1 84
1 85
1 86
1 87
1 88
1 89
1 90
1 91
1 92
1 93
1 94
1 95
1 96
1 97
1 98
1 99
1 100
1 101
1 102
1 103
1 104
1 105
1 106
1 107
1 108
1 109
1 110
1 111
1 112
1 113
1 114
1 115
1 116
1 117
1 118
1 119
1 120
1 121
1 122
1 123
1 124
1 125
1 126
1 127
1 128
1 129
1 130
1 131
1 132
1 133
1 134
1 135
1 136
1 137
1 138
1 139
1 140
1 141
1 142
1 143
1 144
1 145
1 146
1 147
1 148
1 149
1 150
1 151
1 152
1 153
1 154
1 155
1 156
1 157
1 158
1 159
1 160
1 161
1 162
1 163
1 164
1 165
1 166
1 167
1 168
1 169
1 170
1 171
1 172
1 173
1 174
1 175
1 176
1 177
1 178

POINT_DATA 179
SCALARS id int 1
LOOKUP_TABLE default
1
2
3
4
5
6
7
9
10
11
12
13
14
15
16
17
19
20
21
22
23
24
25
26
27
28
29
30
31
32
33
34
35
36
37
38
39
40
41
42
44
45
46
47
48
49
50
51
52
53
54
55
57
59
60
61
62
63
64
65
66
67
68
69
70
71
72
73
74
75
76
77
78
79
80
81
82
83
84
85
86
87
88
89
90
92
93
94
95
96
97
98
100
101
102
103
105
106
107
108
109
110
111
112
113
114
115
116
117
118
119
120
121
122
123
124
125
126
127
128
129
130
131
132
133
134
135
136
137
138
139
140
141
142
143
144
145
146
147
148
149
150
151
152
153
154
155
157
158
159
160
162
163
164
165
166
167
168
169
170
171
172
173
174
175
176
177
178
180
181
182
183
184
185
186
187
188
189
190

SCALARS type int 1
LOOKUP_TABLE default
1
1
1
1
1
1
1
1
1
1
1
1
1
1
1
1
1
1
1
1
1
1
1
1
1
1
1
1
1
1
1
1
1
1
1
1
1
1
1
1
1
1
1
1
1
1
1
1
1
1
1
1
1
1
1
1
1
1
1
1
1
1
1
1
1
1
1
1
1
1
1
1
1
1
1
1
1
1
1
1
1
1
1
1
1
1
1
1
1
1
1
1
1
1
1
1
1
1
1
1
1
1
1
1
1
1
1
1
1
1
1
1
1
1
1
1
1
1
1
1
1
1
1
1
1
1
1
1
1
1
1
1
1
1
1
1
1
1
1
1
1
1
1
1
1
1
1
1
1
1
1
1
1
1
1
1
1
1
1
1
1
1
1
1
1
1
1
1
1
1
1
1
1
1
1
1
1
1
1

SCALARS radius float 1
LOOKUP_TABLE default
0.0005
0.0005
0.0005
0.0005
0.0005
0.0005
0.0005
0.0005
0.0005
0.0005
0.0005
0.0005
0.0005
0.0005
0.0005
0.0005
0.0005
0.0005
0.0005
0.0005
0.0005
0.0005
0.0005
0.0005
0.0005
0.0005
0.0005
0.0005
0.0005
0.0005
0.0005
0.0005
0.0005
0.0005
0.0005
0.0005
0.0005
0.0005
0.0005
0.0005
0.0005
0.0005
0.0005
0.0005
0.0005
0.0005
0.0005
0.0005
0.0005
0.0005
0.0005
0.0005
0.0005
0.0005
0.0005
0.0005
0.0005
0.0005
0.0005
0.0005
0.0005
0.0005
0.0005
0.0005
0.0005
0.0005
0.0005
0.0005
0.0005
0.0005
0.0005
0.0005
0.0005
0.0005
0.0005
0.0005
0.0005
0.0005
0.0005
0.0005
0.0005
0.0005
0.0005
0.0005
0.0005
0.0005
0.0005
0.0005
0.0005
0.0005
0.0005
0.0005
0.0005
0.0005
0.0005
0.0005
0.0005
0.0005
0.0005
0.0005
0.0005
0.0005
0.0005
0.0005
0.0005
0.0005
0.0005
0.0005
0.0005
0.0005
0.0005
0.0005
0.0005
0.0005
0.0005
0.0005
0.0005
0.0005
0.0005
0.0005
0.0005
0.0005
0.0005
0.0005
0.0005
0.0005
0.0005
0.0005
0.0005
0.0005
0.0005
0.0005
0.0005
0.0005
0.0005
0.0005
0.0005
0.0005
0.0005
0.0005
0.0005
0.0005
0.0005
0.0005
0.0005
0.0005
0.0005
0.0005
0.0005
0.0005
0.0005
0.0005
0.0005
0.0005
0.0005
0.0005
0.0005
0.0005
0.0005
0.0005
0.0005
0.0005
0.0005
0.0005
0.0005
0.0005
0.0005
0.0005
0.0005
0.0005
0.0005
0.0005
0.0005
0.0005
0.0005
0.0005
0.0005
0.0005
0.0005

SCALARS mass float 1
LOOKUP_TABLE default
5.23599e-07
5.23599e-07
5.23599e-07
5.23599e-07
5.23599e-07
5.23599e-07
5.23599e-07
5.23599e-07
5.23599e-07
5.23599e-07
5.23599e-07
5.23599e-07
5.23599e-07
5.23599e-07
5.23599e-07
5.23599e-07
5.23599e-07
5.23599e-07
5.23599e-07
5.23599e-07
5.23599e-07
5.23599e-07
5.23599e-07
5.23599e-07
5.23599e-07
5.23599e-07
5.23599e-07
5.23599e-07
5.23599e-07
5.23599e-07
5.23599e-07
5.23599e-07
5.23599e-07
5.23599e-07
5.23599e-07
5.23599e-07
5.23599e-07
5.23599e-07
5.23599e-07
5.23599e-07
5.23599e-07
5.23599e-07
5.23599e-07
5.23599e-07
5.23599e-07
5.23599e-07
5.23599e-07
5.23599e-07
5.23599e-07
5.23599e-07
5.23599e-07
5.23599e-07
5.23599e-07
5.23599e-07
5.23599e-07
5.23599e-07
5.23599e-07
5.23599e-07
5.23599e-07
5.23599e-07
5.23599e-07
5.23599e-07
5.23599e-07
5.23599e-07
5.23599e-07
5.23599e-07
5.23599e-07
5.23599e-07
5.23599e-07
5.23599e-07
5.23599e-07
5.23599e-07
5.23599e-07
5.23599e-07
5.23599e-07
5.23599e-07
5.23599e-07
5.23599e-07
5.23599e-07
5.23599e-07
5.23599e-07
5.23599e-07
5.23599e-07
5.23599e-07
5.23599e-07
5.23599e-07
5.23599e-07
5.23599e-07
5.23599e-07
5.23599e-07
5.23599e-07
5.23599e-07
5.23599e-07
5.23599e-07
5.23599e-07
5.23599e-07
5.23599e-07
5.23599e-07
5.23599e-07
5.23599e-07
5.23599e-07
5.23599e-07
5.23599e-07
5.23599e-07
5.23599e-07
5.23599e-07
5.23599e-07
5.23599e-07
5.23599e-07
5.23599e-07
5.23599e-07
5.23599e-07
5.23599e-07
5.23599e-07
5.23599e-07
5.23599e-07
5.23599e-07
5.23599e-07
5.23599e-07
5.23599e-07
5.23599e-07
5.23599e-07
5.23599e-07
5.23599e-07
5.23599e-07
5.23599e-07
5.23599e-07
5.23599e-07
5.23599e-07
5.23599e-07
5.23599e-07
5.23599e-07
5.23599e-07
5.23599e-07
5.23599e-07
5.23599e-07
5.23599e-07
5.23599e-07
5.23599e-07
5.23599e-07
5.23599e-07
5.23599e-07
5.23599e-07
5.23599e-07
5.23599e-07
5.23599e-07
5.23599e-07
5.23599e-07
5.23599e-07
5.23599e-07
5.23599e-07
5.23599e-07
5.23599e-07
5.23599e-07
5.23599e-07
5.23599e-07
5.23599e-07
5.23599e-07
5.23599e-07
5.23599e-07
5.23599e-07
5.23599e-07
5.23599e-07
5.23599e-07
5.23599e-07
5.23599e-07
5.23599e-07
5.23599e-07
5.23599e-07
5.23599e-07
5.23599e-07
5.23599e-07
5.23599e-07
5.23599e-07
5.23599e-07
5.23599e-07
5.23599e-07
5.23599e-07
5.23599e-07

VECTORS velocity float
-0.0044054 0.026977 0.0163588
-0.000130958 0.00367048 -0.00379463
0.00107584 -0.000827037 -0.00171152
0.00241909 -0.00247412 0.00214589
0.00079306 -0.0349062 0.0355101
-1.28836e-14 -1.66617e-14 -2.43753e-13
0.0201824 -0.00563378 0.0116845
-0.00108091 -0.000400416 0.000769264
-0.0574712 0.0549277 -0.0549325
-0.179197 -3.81651 8.0886
0.226695 0.634288 0.709392
0.0107224 0.00574507 0.000303049
-0.000473971 -0.00153551 -0.0021227
0.00045196 0.0505305 0.0235889
0.0372898 0.0452598 0.038982
0.00104211 0.0207457 -0.0198733
4.31472e-05 -0.0234663 0.0389151
8.70798e-20 -7.24606e-21 3.48289e-20
-0.00545741 0.00323304 0.00447522
0.0103189 0.00288282 -0.00186674
0.000374336 -0.00181953 -0.00436357
0.0035238 0.00636136 -0.00669299
5.94885e-05 0.0056688 -0.0520272
0.00103436 0.000606418 -0.000737145
0.00769201 0.00280957 -0.00206442
-0.00591122 0.00183133 -0.00706046
-0.0118474 -0.036687 0.101125
-0.0137581 -0.0159908 -0.0176852
-0.00270338 -0.00396009 0.0209446
0.00312593 0.00225829 -0.00161469
-0.0266825 0.110535 0.292462
0.00974315 0.0447937 -0.013637
-0.000667843 0.0324737 0.00733888
0.0140047 0.0274972 0.0137854
0.001871 0.0225061 0.0404966
-0.000247681 -0.000781431 -0.00185311
-0.000345796 -0.0133845 0.0496036
0.000240216 0.0163807 0.0491151
0.0696806 -0.0540478 -0.0566712
0.0114056 0.0103593 0.000135074
0.00168784 0.0195775 0.0176422
0.0688208 -0.0309914 -0.0167546
0.024192 0.00752996 -0.0243892
0.00509587 0.00102655 0.00127766
-0.00637867 0.00354267 -0.0207099
0.00716221 0.0151234 0.0568286
0.00866403 -0.00158739 -0.0171108
0.00769317 -0.0034566 -0.00875228
-0.0215007 -0.015397 0.0437009
0.0107604 0.00650803 0.0189204
0.00467324 0.00252997 0.00416061
-0.00682264 -0.011003 0.0123469
0.01428 0.0103419 -0.0112626
0.0319249 -0.0320503 0.0576316
-0.00154936 0.0488734 0.00808471
0.00024858 0.0637718 0.0215443
0.0015316 0.00260268 0.0034819
-0.000338076 0.00691512 -0.00344469
0.0174157 -0.063568 0.00601205
0.000466432 0.000562891 -0.000143172
-0.00257056 0.00599739 0.0446128
0.00317696 -0.0375559 0.0246276
-0.000914853 -0.00649203 0.0055353
0.000979569 0.0132736 -0.0464115
0.00579347 0.00272754 -0.00101378
0.000212082 0.0483992 0.0210639
0.00213687 0.0094984 0.066867
-0.00412873 0.000768685 -0.000276696
-4.51269e-05 0.0353581 0.0435437
-0.00289665 0.00401091 -0.0010095
0.00287845 0.0269275 0.0198556
0.010411 0.00269043 -0.00725131
-1.92414e-05 0.00168401 0.00124971
1.14422e-15 8.38442e-16 -1.85406e-14
0.00174558 -0.00025586 0.00139002
-0.00244984 0.026275 -0.0367004
0.0932102 -0.0752723 -0.00814892
-0.0441571 -0.0194826 -0.0370745
-0.00440372 0.030111 0.0136995
-0.00165169 0.0350491 0.0315108
0.00449271 0.0423578 -0.0590039
0.00211034 0.0269165 -0.0170235
0.0126585 0.00752539 -0.00553718
-0.00443858 -0.03586 -0.0349486
0.00551857 -0.111452 0.160555
-0.000414193 0.0226965 0.0313658
-0.00219952 0.00313128 0.00445428
0.00135148 0.0480235 0.030644
0.000906869 -0.011338 -0.0379485
2.90674e-05 0.0370788 0.0419782
-0.0363769 0.163858 -0.286838
-0.00374827 0.0385067 -0.040476
0.00194729 0.00216091 0.00136869
0.0140766 0.0245269 -0.0540359
0.0152639 -0.0104661 0.00451768
-0.00914364 -0.0157106 -0.0311042
0.00224574 -0.0307005 0.105741
0.00676043 0.0112075 0.000502216
0.0201437 -0.134224 -0.0524574
-0.00319922 0.033978 -0.0518344
-0.00548446 -0.00854568 0.0109749
0.000126213 0.0546273 0.0119193
0.00241975 -0.0195023 -0.0361333
-0.0294445 0.0116933 0.0139639
0.0111508 0.00365302 0.00195212
-0.00411144 0.00262426 0.00629993
-0.00233841 0.050788 -0.0360133
-0.0258421 0.0876758 -0.0191117
0.000811559 -8.58576e-05 -0.000853065
0.000570379 -0.0499212 0.00778768
0.00978308 0.0104043 -0.00383627
0.0103952 0.00244734 -0.00822746
0.00381993 0.00891426 0.0789544
7.31894e-05 0.00156157 0.00100016
0.000987397 0.0632306 -0.0365547
0.0101753 0.00622215 -0.00540537
-0.00253459 0.00147213 -0.000921267
0.000996479 0.0064935 -0.00487904
-0.00298589 -0.00862657 0.0123705
0.000399971 0.000246416 -7.16358e-05
-0.00349491 -0.00179804 0.0021173
-0.00244843 -0.00444122 0.00216372
0.0103367 -0.000307605 -0.00750451
0.0137882 0.00485734 0.0107816
-0.000206993 -0.0140382 0.0486585
0.0296645 0.00438125 -0.0993478
0.0132251 -0.000448759 -0.00637051
0.00592079 -0.00180513 -0.0107126
0.0125486 0.00312715 -0.000483101
0.00934233 0.00415306 -0.0133078
0.00256122 -0.0104452 -0.0493202
0.00186411 -7.79762e-05 0.0618126
0.000468996 -0.0280123 -0.0323586
-0.0544261 0.0530349 -0.0412245
-0.000465478 5.90151e-05 -0.00157127
0.0107032 0.00486679 -0.000747291
0.00283582 -0.02136 -0.0290619
0.00116233 0.0225709 -0.0544354
0.00743393 0.0554414 0.0229103
-0.00789471 -0.00716303 0.000726958
8.2557e-05 -0.00664526 0.0532271
0.00576619 0.0087699 -0.00149982
-6.79507e-15 -3.79627e-14 -2.61339e-13
0.000347068 0.000114245 -0.000831931
0.0121944 0.00360481 -0.00661857
-0.0125123 -0.0107539 -0.00169566
0.0160912 0.0234649 -0.0377827
-1.03104 -0.176946 0.594601
0.0108094 0.029431 0.00453152
0.00221905 -0.0298524 0.0170636
0.00136118 0.000577127 -0.00349486
0.0118594 0.00532349 0.0003302
-3.50057e-05 -0.0493408 -0.0173511
0.00175739 0.00096769 0.000945578
0.00125714 0.00103601 -0.00221649
0.0131532 0.0627693 -0.000624046
-0.000418942 -0.00164951 -0.00209541
-5.50851e-05 -0.00203312 -0.00208039
0.00102055 0.00159909 -0.00197149
0.00170862 0.00491792 0.00329357
2.06708e-05 0.00760622 0.00120789
-0.00109608 -0.00178331 0.0021742
0.0175236 0.00470132 0.059261
-0.00420327 -0.00408531 0.00142817
-0.000273311 -0.000547723 -0.000493468
-0.0299881 0.0424727 -0.0193151
-0.000968795 0.00309451 -0.00408836
-7.39741e-15 -1.35396e-14 8.92922e-14
0.000183345 0.0366537 0.0461538
0.00371116 0.000836941 -0.00152216
0.0128037 -0.00920991 0.00622854
0.00974728 0.000292632 -0.00636189
-0.0011491 0.0270915 0.0401624
0.0486146 0.0180399 -0.024718
0.0245348 0.0131277 -0.0140195
0.00369203 -0.00296271 -0.00561756
0.001444 0.0274633 0.0510483
0.00119773 -0.000707926 0.00171153
0.00595424 -0.000476072 0.00291658

VECTORS force float
0.0 0.0 -5.1365e-06
6.70515e-06 -1.37517e-07 7.92779e-07
1.41552e-06 1.92109e-06 -7.99617e-07
-8.20723e-06 -1.46079e-05 6.43983e-05
1.00278e-07 -1.64304e-07 2.00303e-07
-1.276e-18 2.54332e-18 -1.12655e-19
0.0 0.0 -5.1365e-06
1.36559e-05 1.69376e-05 1.80584e-05
0.0 0.0 -5.1365e-06
0.0203778 -0.338557 0.030304
0.0 0.0 -5.1365e-06
-8.1209e-06 4.94574e-05 -3.7095e-05
-1.5686e-06 -2.75682e-06 -2.64997e-06
3.32173e-06 1.14867e-05 1.96031e-06
1.81552e-05 -3.43515e-06 -5.66433e-06
0.0 0.0 -5.1365e-06
-6.12523e-06 1.5013e-05 -2.62649e-05
0.0 0.0 0.0
8.23973e-05 -2.60543e-06 1.36235e-05
6.0646e-06 -7.89774e-06 8.63564e-06
-6.48022e-08 3.04347e-06 -3.73215e-06
-4.93446e-06 6.68793e-07 -2.44977e-05
4.43561e-09 -1.91932e-07 -7.74704e-08
8.63636e-06 -1.55248e-05 -1.3293e-05
2.10097e-05 3.01741e-05 -2.7081e-05
0.0 0.0 -5.1365e-06
-6.75694e-06 -0.000171115 0.000287365
-1.27259e-07 -9.24834e-08 -3.19925e-06
-3.24778e-06 -3.08921e-05 -4.43709e-05
0.0 0.0 -5.1365e-06
0.0 0.0 -5.1365e-06
0.0 0.0 -5.1365e-06
-3.74793e-06 1.40583e-05 -1.08382e-05
0.0 0.0 -5.1365e-06
0.0 0.0 -5.1365e-06
-1.0921e-06 -1.31345e-06 -4.25601e-06
8.20679e-07 -8.63041e-06 3.38993e-05
-4.22697e-09 2.50219e-07 3.31139e-08
0.0 0.0 -5.1365e-06
1.50523e-05 -4.24698e-05 2.76456e-05
-4.5253e-07 -6.74376e-07 5.60407e-06
0.0 0.0 -5.1365e-06
0.0 0.0 -5.1365e-06
-5.58041e-06 -2.05284e-06 1.61087e-05
0.0 0.0 -5.1365e-06
0.0 0.0 -5.1365e-06
-1.69834e-06 -1.07038e-05 2.42752e-05
3.94483e-06 -2.98167e-06 -1.46393e-06
0.0 0.0 -5.1365e-06
3.45425e-05 1.21153e-05 -2.83923e-06
-1.33945e-07 -2.06984e-06 -5.84553e-07
-2.19043e-05 -6.59587e-05 2.09487e-05
0.0 0.0 -5.1365e-06
-3.78113e-06 -0.000118115 8.77531e-05
-3.75738e-07 -4.10641e-07 -3.02677e-07
0.0 0.0 -5.1365e-06
1.09943e-07 3.1616e-06 -5.17842e-06
0.0 0.0 -5.1365e-06
0.0 0.0 -5.1365e-06
-9.32706e-06 3.42625e-05 3.20183e-05
0.0 0.0 -5.1365e-06
-2.25537e-07 3.48564e-07 7.81451e-07
-6.67935e-06 -1.98344e-05 -4.72362e-05
1.26442e-05 -0.000153032 0.000394569
-7.68808e-07 -3.23458e-05 3.12761e-05
0.0 0.0 -5.1365e-06
0.0 0.0 -5.1365e-06
2.40473e-05 -4.03236e-05 -1.60769e-05
2.50463e-06 4.76194e-06 -1.10208e-05
-4.3852e-05 5.77115e-05 2.17691e-05
-2.44992e-07 -1.60652e-06 1.08256e-06
9.679e-06 5.75992e-06 1.05456e-05
-3.3354e-06 -1.02605e-05 3.78563e-06
3.55669e-18 3.25261e-19 -3.72694e-19
-1.95637e-05 -6.2766e-06 2.27875e-06
0.0 0.0 -5.1365e-06
0.0 0.0 -5.1365e-06
0.0 0.0 -5.1365e-06
-6.20341e-07 -7.9294e-07 -9.6695e-07
0.0 0.0 -5.1365e-06
0.0 0.0 -5.1365e-06
-2.63939e-06 -3.70847e-05 1.48893e-05
0.0 0.0 -5.1365e-06
-4.74568e-09 -3.18892e-07 1.46545e-08
-3.2393e-05 -0.000302586 0.00038145
0.0 0.0 -5.1365e-06
6.85276e-06 -3.78319e-05 3.55615e-05
2.39994e-06 -1.29731e-05 4.54083e-06
5.53185e-06 2.08972e-05 6.3569e-05
3.01099e-07 1.83977e-06 9.6421e-06
0.0 0.0 -5.1365e-06
0.0 0.0 -5.1365e-06
-1.65616e-05 6.11787e-05 2.19496e-05
0.0 0.0 -5.1365e-06
7.46512e-05 -0.000172824 9.2257e-05
0.0 0.0 -5.1365e-06
0.0 0.0 -5.1365e-06
1.9961e-05 5.2241e-05 -6.78924e-06
8.1244e-05 -0.0017485 -0.00235553
0.0 0.0 -5.1365e-06
2.28934e-05 7.53448e-05 -0.000141064
3.54268e-07 6.5019e-07 -1.46457e-06
-2.85489e-06 -9.40842e-06 -1.35262e-05
0.0 0.0 -5.1365e-06
1.4568e-05 -1.66646e-05 7.45785e-06
0.000219814 1.32217e-05 -8.43454e-05
0.0 0.0 -5.1365e-06
0.0 0.0 -5.1365e-06
1.60822e-06 2.45799e-07 3.36936e-06
-2.68228e-08 -7.78251e-08 2.23652e-07
8.71292e-06 -1.41442e-05 -1.65789e-05
0.0 0.0 -5.1365e-06
0.0 0.0 -5.1365e-06
-7.79443e-06 -1.97589e-05 1.36947e-05
-1.77927e-05 2.43651e-05 0.000108536
1.86278e-06 -4.38655e-06 -4.24907e-06
-1.09604e-06 1.95981e-06 9.56618e-06
4.19854e-06 2.6701e-07 -1.07967e-05
0.000150571 8.48996e-05 6.37919e-05
3.3156e-05 -2.49791e-06 -8.94654e-06
3.57221e-05 2.85988e-05 -5.68034e-05
8.27975e-05 5.54279e-05 -6.33122e-05
-3.98495e-06 -4.00262e-07 4.00059e-06
-4.3887e-05 -3.29335e-05 -3.01854e-05
5.37776e-06 9.22698e-06 -4.35496e-05
0.0 0.0 -5.1365e-06
0.0 0.0 -5.1365e-06
4.68143e-07 1.59091e-05 1.2859e-05
0.0 0.0 -5.1365e-06
1.34838e-05 -1.24552e-05 3.00993e-05
0.0 0.0 -5.1365e-06
0.0 0.0 -5.1365e-06
4.49821e-08 -5.35938e-07 -3.1826e-06
0.0 0.0 -5.1365e-06
4.42658e-06 2.3782e-05 -5.59904e-05
3.62812e-06 -8.01174e-06 7.46102e-06
-2.77577e-06 5.08158e-06 4.90777e-06
0.0 0.0 -5.1365e-06
0.0 0.0 -5.1365e-06
5.8721e-06 -6.30552e-06 9.05667e-06
-6.61283e-06 1.19498e-07 -5.495e-07
1.50984e-06 -5.55451e-07 -3.2599e-06
-3.12343e-21 3.81165e-21 0.0
-4.32767e-08 -1.57061e-07 -4.08541e-06
8.73397e-06 -9.20222e-06 1.93742e-05
0.0 0.0 -5.1365e-06
-4.76678e-06 -0.000229198 0.000556052
0.0 0.0 -5.1365e-06
0.0 0.0 -5.1365e-06
-1.36223e-07 -1.11001e-06 1.07796e-06
-2.62245e-07 8.05679e-06 6.94119e-07
-8.25513e-07 1.82564e-05 -1.1319e-05
1.63075e-08 -1.34193e-07 1.94659e-07
2.16462e-05 -6.39773e-06 1.08206e-05
4.74682e-06 -7.22954e-06 1.03653e-05
0.0 0.0 -5.1365e-06
6.85726e-07 -5.33041e-07 -1.6999e-06
2.69151e-06 5.96849e-07 2.95339e-06
2.20657e-05 9.88872e-06 6.62834e-07
-3.12534e-06 -1.12757e-05 4.75381e-07
-2.36976e-07 4.41275e-06 -1.07214e-06
9.63601e-06 2.41489e-05 -5.3267e-05
0.0 0.0 -5.1365e-06
-5.29625e-05 -1.27826e-05 4.83073e-06
2.50914e-06 -7.74211e-07 -8.97776e-08
0.0 0.0 -5.1365e-06
-3.75796e-06 4.79018e-06 -3.15162e-05
5.29396e-23 8.89385e-21 8.47033e-22
2.33366e-06 -1.64421e-06 -8.15457e-06
1.465e-05 -3.06002e-07 1.76771e-05
1.32156e-05 -2.69835e-05 2.50573e-06
-8.88696e-06 -3.64766e-06 4.64606e-06
0.0 0.0 -5.1365e-06
0.0 0.0 -5.1365e-06
0.0 0.0 -5.1365e-06
1.33934e-05 -6.72933e-06 2.04614e-05
0.0 0.0 -5.1365e-06
-3.32025e-06 -9.92543e-06 1.36955e-05
5.78024e-06 -2.949e-06 1.42784e-05
