# vtk DataFile Version 3.0
LIGGGHTS particles timestep 4000000
ASCII
DATASET POLYDATA
POINTS 152 float
0.0236025 0.0218536 0.0163436
0.0242138 0.0209771 0.0164137
0.019728 0.0219993 0.0159916
0.0172552 0.0145281 0.0142896
0.0221772 0.0191185 0.0171993
0.0592595 0.0187057 0.00589343
0.026054 0.0204027 0.00742842
0.0251383 0.0213761 0.0162011
0.0175491 0.0242349 0.0141366
0.0326338 0.0225752 0.00896404
0.0170893 0.0234232 0.0144956
0.0206091 0.0230714 0.0181868
0.0235046 0.0203825 0.0157379
0.0161512 0.0230994 0.015115
0.0194098 0.0197977 0.0179434
0.0346743 0.0188316 0.00571084
0.0186949 0.0146254 0.0119319
0.0167345 0.0221299 0.0147158
0.0287043 0.0203856 0.00592074
0.0291497 0.0172576 0.015417
0.0284128 0.0205008 0.0155668
0.0182418 0.0182163 0.0172888
0.0181181 0.023457 0.0144919
0.016887 0.0241025 0.017352
0.0205919 0.0224453 0.00887549
0.0170363 0.0210961 0.015595
0.0232081 0.0173358 0.0156101
0.0304237 0.0148334 0.0107904
0.0239849 0.0179763 0.0158122
0.0221838 0.0217091 0.0150677
0.0209997 0.0240055 0.0142084
0.0312403 0.0169236 0.00771587
0.0272029 0.0233838 0.0111906
0.0185955 0.0243344 0.0138386
0.0174818 0.0140848 0.0134162
0.0198668 0.01446 0.0138197
0.023634 0.022933 0.0151361
0.0212869 0.0234168 0.0116766
0.0207142 0.0146434 0.0143182
0.0182521 0.0228071 0.0154636
0.0176039 0.0235922 0.0153779
0.0159475 0.0225462 0.0142469
0.0267383 0.0182025 0.00597096
0.0308617 0.0155583 0.00899
0.0211623 0.0241577 0.0187503
0.0231142 0.0209189 0.0164897
0.0223761 0.0218037 0.0160485
0.029608 0.019721 0.00584316
0.0241697 0.0192597 0.015947
0.0216376 0.0143054 0.0137577
0.0216995 0.022971 0.0135438
0.0249674 0.0178546 0.0159529
0.031869 0.0197742 0.00729672
0.0316032 0.0182519 0.00724475
0.0294139 0.016372 0.0148089
0.0207353 0.0219788 0.0161796
0.017964 0.0149 0.0130947
0.0184025 0.0147451 0.016181
0.0202351 0.0210535 0.0077287
0.0227244 0.0230609 0.013375
0.0198718 0.0241458 0.0163574
0.0224608 0.0197816 0.00583582
0.0183119 0.0144414 0.0139118
0.0234031 0.0164066 0.0151659
0.0229398 0.0222708 0.0153205
0.019691 0.015012 0.0146344
0.0245312 0.0229512 0.0133401
0.0177538 0.0153426 0.0139665
0.0220295 0.0151654 0.0154777
0.0191067 0.0164203 0.00804112
0.0181057 0.0216517 0.0160615
0.0275625 0.0231325 0.0129588
0.0242521 0.016888 0.0153826
0.0243177 0.0147887 0.0111317
0.0200897 0.0140753 0.0129245
0.0185003 0.0141195 0.0127718
0.0248471 0.0162655 0.0158908
0.0185141 0.015183 0.0150493
0.0201915 0.0237988 0.0148701
0.0289359 0.0178655 0.00589895
0.0237673 0.015257 0.0135271
0.0165232 0.0142557 0.0136652
0.0216519 0.0148103 0.014622
0.0207083 0.0203713 0.0171575
0.0330571 0.0233038 0.0105383
0.0220821 0.0237265 0.0149674
0.0190158 0.0148951 0.0132449
0.0299224 0.015052 0.0129009
0.0302442 0.0147748 0.0114223
0.0177174 0.0240095 0.0130424
0.0230185 0.0183724 0.0159044
0.0322104 0.021069 0.00771589
0.0221225 0.022681 0.014632
0.020782 0.0252575 0.0206726
0.0354862 0.0197731 0.00599028
0.0227597 0.0232163 0.0155643
0.0334096 0.0189951 0.00569612
0.0209756 0.0218986 0.00831423
0.0196392 0.0146683 0.0122575
0.0199674 0.0187434 0.00719186
0.0190507 0.0226121 0.0182931
0.0244777 0.0221212 0.0157322
0.0168109 0.0229358 0.013666
0.0230975 0.0194323 0.0159307
0.0263691 0.0214876 0.00802346
0.0281804 0.0213782 0.0151185
0.0175383 0.0159751 0.0147288
0.0307845 0.0151212 0.00976114
0.0279753 0.0221866 0.0143543
0.0224899 0.0205917 0.0156754
0.0228297 0.0234642 0.0143378
0.0187433 0.0154293 0.0141044
0.0296244 0.0179684 0.015715
0.0236285 0.0156886 0.0144378
0.0176553 0.022646 0.0141156
0.0196057 0.0243772 0.0136938
0.0206208 0.0186756 0.0168246
0.0192372 0.0137724 0.0133515
0.0225535 0.0145522 0.0142755
0.0242188 0.0212105 0.0153915
0.0198569 0.0196491 0.0072195
0.0454623 0.0165053 0.00632503
0.0187951 0.0242696 0.0172346
0.0173014 0.0224383 0.0155224
0.0233117 0.0226032 0.0141698
0.0297416 0.0154996 0.0139575
0.0372285 0.0203986 0.00609172
0.0211182 0.0231459 0.0149632
0.0189266 0.0157218 0.00877513
0.0219468 0.0233769 0.0128924
0.0191386 0.0140807 0.0143902
0.018373 0.0227527 0.017043
0.0202164 0.0241172 0.012944
0.0197922 0.0178236 0.00737364
0.0215714 0.0224535 0.0169362
0.0220255 0.0237986 0.0138191
0.0164819 0.0233045 0.0127936
0.0158843 0.0235843 0.014257
0.0231493 0.0212925 0.0153369
0.0168118 0.0239186 0.0135331
0.0233971 0.016025 0.01609
0.02262 0.0228829 0.0166201
0.0266773 0.0226491 0.00908557
0.089209 0.0204289 0.00606712
0.0192538 0.0235274 0.0145893
0.0547713 0.0184279 0.005953
0.019245 0.0230759 0.0162173
0.0188914 0.0240977 0.0129131
0.0238471 0.0220065 0.0148192
0.0157412 0.0230607 0.0134166
0.0207353 0.013884 0.0136637
0.0193366 0.0159504 0.0147173

VERTICES 152 304
1 0
1 1
1 2
1 3
1 4
1 5
1 6
1 7
1 8
1 9
1 10
1 11
1 12
1 13
1 14
1 15
1 16
1 17
1 18
1 19
1 20
1 21
1 22
1 23
1 24
1 25
1 26
1 27
1 28
1 29
1 30
1 31
1 32
1 33
1 34
1 35
1 36
1 37
1 38
1 39
1 40
1 41
1 42
1 43
1 44
1 45
1 46
1 47
1 48
1 49
1 50
1 51
1 52
1 53
1 54
1 55
1 56
1 57
1 58
1 59
1 60
1 61
1 62
1 63
1 64
1 65
1 66
1 67
1 68
1 69
1 70
1 71
1 72
1 73
1 74
1 75
1 76
1 77
1 78
1 79
1 80
1 81
1 82
1 83
1 84
1 85
1 86
1 87
1 88
1 89
1 90
1 91
1 92
1 93
1 94
1 95
1 96
1 97
1 98
1 99
1 100
1 101
1 102
1 103
1 104
1 105
1 106
1 107
1 108
1 109
1 110
1 111
1 112
1 113
1 114
1 115
1 116
1 117
1 118
1 119
1 120
1 121
1 122
1 123
1 124
1 125
1 126
1 127
1 128
1 129
1 130
1 131
1 132
1 133
1 134
1 135
1 136
1 137
1 138
1 139
1 140
1 141
1 142
1 143
1 144
1 145
1 146
1 147
1 148
1 149
1 150
1 151

POINT_DATA 152
SCALARS id int 1
LOOKUP_TABLE default
1
2
3
4
5
6
7
9
10
11
13
14
15
17
19
20
22
23
24
25
27
28
29
30
31
32
34
35
36
37
38
40
41
42
44
45
46
47
49
50
51
53
54
55
57
59
60
61
63
64
65
66
67
68
69
70
71
73
74
75
78
79
81
82
83
84
85
87
88
90
92
93
95
96
97
101
102
103
105
106
107
108
109
110
111
112
113
114
115
116
117
118
119
121
122
123
124
125
126
128
129
130
131
132
133
134
135
136
137
138
139
141
142
143
144
145
146
147
148
149
150
151
152
153
154
155
158
159
160
162
164
165
166
167
168
169
170
171
172
173
174
176
177
178
180
182
183
185
186
187
188
189

SCALARS type int 1
LOOKUP_TABLE default
1
1
1
1
1
1
1
1
1
1
1
1
1
1
1
1
1
1
1
1
1
1
1
1
1
1
1
1
1
1
1
1
1
1
1
1
1
1
1
1
1
1
1
1
1
1
1
1
1
1
1
1
1
1
1
1
1
1
1
1
1
1
1
1
1
1
1
1
1
1
1
1
1
1
1
1
1
1
1
1
1
1
1
1
1
1
1
1
1
1
1
1
1
1
1
1
1
1
1
1
1
1
1
1
1
1
1
1
1
1
1
1
1
1
1
1
1
1
1
1
1
1
1
1
1
1
1
1
1
1
1
1
1
1
1
1
1
1
1
1
1
1
1
1
1
1
1
1
1
1
1
1

SCALARS radius float 1
LOOKUP_TABLE default
0.0005
0.0005
0.0005
0.0005
0.0005
0.0005
0.0005
0.0005
0.0005
0.0005
0.0005
0.0005
0.0005
0.0005
0.0005
0.0005
0.0005
0.0005
0.0005
0.0005
0.0005
0.0005
0.0005
0.0005
0.0005
0.0005
0.0005
0.0005
0.0005
0.0005
0.0005
0.0005
0.0005
0.0005
0.0005
0.0005
0.0005
0.0005
0.0005
0.0005
0.0005
0.0005
0.0005
0.0005
0.0005
0.0005
0.0005
0.0005
0.0005
0.0005
0.0005
0.0005
0.0005
0.0005
0.0005
0.0005
0.0005
0.0005
0.0005
0.0005
0.0005
0.0005
0.0005
0.0005
0.0005
0.0005
0.0005
0.0005
0.0005
0.0005
0.0005
0.0005
0.0005
0.0005
0.0005
0.0005
0.0005
0.0005
0.0005
0.0005
0.0005
0.0005
0.0005
0.0005
0.0005
0.0005
0.0005
0.0005
0.0005
0.0005
0.0005
0.0005
0.0005
0.0005
0.0005
0.0005
0.0005
0.0005
0.0005
0.0005
0.0005
0.0005
0.0005
0.0005
0.0005
0.0005
0.0005
0.0005
0.0005
0.0005
0.0005
0.0005
0.0005
0.0005
0.0005
0.0005
0.0005
0.0005
0.0005
0.0005
0.0005
0.0005
0.0005
0.0005
0.0005
0.0005
0.0005
0.0005
0.0005
0.0005
0.0005
0.0005
0.0005
0.0005
0.0005
0.0005
0.0005
0.0005
0.0005
0.0005
0.0005
0.0005
0.0005
0.0005
0.0005
0.0005
0.0005
0.0005
0.0005
0.0005
0.0005
0.0005

SCALARS mass float 1
LOOKUP_TABLE default
5.23599e-07
5.23599e-07
5.23599e-07
5.23599e-07
5.23599e-07
5.23599e-07
5.23599e-07
5.23599e-07
5.23599e-07
5.23599e-07
5.23599e-07
5.23599e-07
5.23599e-07
5.23599e-07
5.23599e-07
5.23599e-07
5.23599e-07
5.23599e-07
5.23599e-07
5.23599e-07
5.23599e-07
5.23599e-07
5.23599e-07
5.23599e-07
5.23599e-07
5.23599e-07
5.23599e-07
5.23599e-07
5.23599e-07
5.23599e-07
5.23599e-07
5.23599e-07
5.23599e-07
5.23599e-07
5.23599e-07
5.23599e-07
5.23599e-07
5.23599e-07
5.23599e-07
5.23599e-07
5.23599e-07
5.23599e-07
5.23599e-07
5.23599e-07
5.23599e-07
5.23599e-07
5.23599e-07
5.23599e-07
5.23599e-07
5.23599e-07
5.23599e-07
5.23599e-07
5.23599e-07
5.23599e-07
5.23599e-07
5.23599e-07
5.23599e-07
5.23599e-07
5.23599e-07
5.23599e-07
5.23599e-07
5.23599e-07
5.23599e-07
5.23599e-07
5.23599e-07
5.23599e-07
5.23599e-07
5.23599e-07
5.23599e-07
5.23599e-07
5.23599e-07
5.23599e-07
5.23599e-07
5.23599e-07
5.23599e-07
5.23599e-07
5.23599e-07
5.23599e-07
5.23599e-07
5.23599e-07
5.23599e-07
5.23599e-07
5.23599e-07
5.23599e-07
5.23599e-07
5.23599e-07
5.23599e-07
5.23599e-07
5.23599e-07
5.23599e-07
5.23599e-07
5.23599e-07
5.23599e-07
5.23599e-07
5.23599e-07
5.23599e-07
5.23599e-07
5.23599e-07
5.23599e-07
5.23599e-07
5.23599e-07
5.23599e-07
5.23599e-07
5.23599e-07
5.23599e-07
5.23599e-07
5.23599e-07
5.23599e-07
5.23599e-07
5.23599e-07
5.23599e-07
5.23599e-07
5.23599e-07
5.23599e-07
5.23599e-07
5.23599e-07
5.23599e-07
5.23599e-07
5.23599e-07
5.23599e-07
5.23599e-07
5.23599e-07
5.23599e-07
5.23599e-07
5.23599e-07
5.23599e-07
5.23599e-07
5.23599e-07
5.23599e-07
5.23599e-07
5.23599e-07
5.23599e-07
5.23599e-07
5.23599e-07
5.23599e-07
5.23599e-07
5.23599e-07
5.23599e-07
5.23599e-07
5.23599e-07
5.23599e-07
5.23599e-07
5.23599e-07
5.23599e-07
5.23599e-07
5.23599e-07
5.23599e-07
5.23599e-07
5.23599e-07
5.23599e-07
5.23599e-07
5.23599e-07

VECTORS velocity float
-0.0104551 -0.0306009 -0.0568391
0.00267033 -0.032886 -0.00664098
0.00498143 -0.135371 0.110798
0.0145882 0.00103532 -0.00376214
0.007216 0.0177134 -0.17236
6.28864e-15 -1.49955e-14 -1.82228e-13
-2.18563e-05 -0.0486026 -0.0171546
-0.0160344 0.0232429 -0.007272
-0.00550791 -0.0208599 -0.0214726
0.00205751 -0.0255661 -0.0369445
-0.0230085 -0.0352402 0.00308141
-0.0663621 0.0824467 0.162697
-0.000222666 0.0423507 -0.0128014
-0.0421796 -0.0199987 -0.00938338
-0.229899 -0.557137 0.498774
1.42134e-11 -1.67687e-12 3.92851e-13
-0.00240897 -0.00212981 0.00504229
-0.0261317 -0.0257101 0.0163594
-1.637e-14 1.36103e-16 -1.92034e-13
0.272016 -0.474181 -1.28283
0.000538557 0.0487674 -0.0165678
0.186942 0.049189 0.0498898
0.00395025 -0.00319857 0.00853166
-0.512978 0.0668767 0.398228
0.000212938 -0.0278248 -0.037021
-0.113859 -0.119016 0.105826
0.0081683 0.0236528 -0.00301699
0.0644827 -0.24475 -0.0794757
-0.00064785 0.0473969 0.011576
-5.62495e-05 0.0321888 -0.0254888
0.0447052 -0.0636332 0.146006
0.000265525 -0.0273338 0.0143688
0.000250404 -0.00112688 -0.0535358
0.0106388 0.00805634 0.00176257
0.00205885 0.00899292 -0.0029033
-0.00183724 0.0082839 -0.0081959
0.00282751 0.00156985 0.00140353
0.00128532 0.00485126 -0.0528377
0.00136549 0.00324737 -0.00297254
-0.105385 -0.049982 0.11339
-0.0240815 -0.000217544 0.00906079
0.00657586 0.0277726 -0.0353235
-1.69474e-14 -2.73179e-15 2.76309e-13
0.00308373 -0.0242331 0.0321484
-0.00948934 0.0928498 0.23641
-0.0177095 0.0084667 -0.00496988
-0.0114876 0.004092 -0.0121987
-8.71256e-15 1.42684e-16 -1.02212e-13
0.0247511 0.0313322 0.000233208
0.00457071 0.00342708 0.00266255
0.00866282 0.00713548 -0.0154614
0.00208924 0.047643 -0.00790743
0.000329035 -0.0509709 -0.00934034
0.00645228 -0.0373574 0.00808638
0.00129587 0.037441 0.0337901
0.0404336 -0.204795 0.155307
0.0126862 0.00311718 0.0120886
0.045632 0.114698 -0.0867368
0.00119912 -0.0438311 -0.0215444
-0.00248652 -0.000108818 -0.00113915
-0.0252809 -0.0190676 0.0213156
-1.9423e-15 1.82175e-15 -1.81553e-14
0.0233896 -0.024928 -0.0061912
0.00721741 0.0358533 -0.00761843
0.000950453 0.0088337 -0.00897874
-0.008835 0.0143092 -0.00992347
0.00378205 0.0279153 -0.0483203
0.0151781 0.00496247 -0.0106626
0.00510724 0.00211165 -0.0236215
0.00307855 -0.0300769 0.021655
-0.142418 -0.16883 0.098724
0.00185366 0.0187816 -0.039948
0.00367695 0.0308726 0.0181563
0.000131395 -0.00679263 0.0527983
0.00219046 0.00277846 -0.00431519
0.00126878 -0.00286347 0.00517526
0.00349119 0.0109122 -0.00611605
0.00813635 -0.0227118 -0.00739462
0.0129067 -0.124869 0.0460158
-8.71325e-15 6.30826e-17 -1.02212e-13
0.00471336 0.0199245 0.0334135
0.0028059 -0.00406028 0.00628909
0.00422428 0.00267078 -0.00736464
-0.0319842 0.00966889 0.0272982
0.0035258 -0.00521784 -0.0330999
0.0041319 0.0146727 -0.0173375
0.0236195 0.0158323 -0.0259049
0.000217634 0.0162037 0.0498582
-0.0550843 -0.0618816 -0.134656
0.0229151 -0.109731 0.406941
0.00995861 0.0466496 0.000594754
0.00970128 -0.0218578 -0.005323
0.0536029 0.0479372 -0.0684689
-0.0677343 0.153275 0.332172
3.67603e-15 2.12874e-14 -8.27024e-14
-0.00147643 0.00129649 0.00134712
-2.60189e-06 4.91783e-07 -3.73468e-08
-0.000682375 -0.0382745 -0.0332064
0.00288815 0.00199941 -0.00637166
0.00111869 -0.0465735 -0.000370427
-0.150116 -0.0169199 0.129708
-0.0112817 0.00715916 -0.0055926
-0.0889402 -0.117499 0.131172
0.0183697 0.0589831 0.00982123
0.000266392 -0.0421552 -0.0313567
0.00607446 0.0237421 -0.01412
0.0176072 0.00288988 -0.00558445
0.000401761 -0.0183859 0.0449572
0.000436241 0.0346659 -0.0381157
0.00971138 0.0363322 -0.0207105
0.0125183 0.000643568 -0.00702582
0.0108233 0.00228569 0.00165521
0.101342 -0.90989 -6.34221
0.00859261 0.023349 0.0397439
0.0213872 0.00421031 0.00494497
0.000353037 -0.00417098 0.0259595
-0.022601 -0.105166 -0.0145825
0.00522942 -0.000444353 0.000731033
0.000352669 -0.00357708 0.00346572
0.00756447 0.0204867 0.00813565
0.000171319 -0.0508224 -0.011284
-6.79303e-15 -3.7962e-14 -2.61339e-13
-0.114278 -0.00472502 0.0165784
-0.131901 -0.0579887 0.0835767
-0.0153869 -0.00912281 -0.0132484
-0.000223606 0.0205627 0.0338583
-3.89889e-15 1.46872e-14 -6.82376e-14
-0.0183205 -0.074418 0.073256
0.000279811 -0.0343614 0.040191
0.0012989 0.00309408 -0.00359968
-0.00778811 0.00986312 -0.015381
-0.168992 -0.089453 0.140791
0.00118354 -0.00114206 -0.00171405
0.000159971 -0.0454626 0.0154816
0.0728844 -0.01402 0.207716
0.00614223 0.000422383 -0.00510053
0.0353298 0.0128908 -0.00854969
0.0108683 0.00552289 -0.00667108
0.00791151 0.0200004 -0.0132393
-0.0702743 -0.112835 0.299764
0.00631347 0.0121061 -0.0170597
0.00275003 0.00866051 -4.40323e-05
0.00202355 -0.00976118 -0.0154372
-7.39741e-15 -1.35375e-14 8.92925e-14
0.0441188 -0.0234151 0.0998282
5.17407e-15 7.44827e-15 1.04266e-13
-0.128105 -0.112144 0.274084
0.000253623 0.00236347 -0.00130881
0.00847964 0.0149315 -0.0215808
0.0246515 0.00990675 -0.00731092
0.0028717 0.0021146 -0.00530288
-0.00522595 0.00456891 0.00317178

VECTORS force float
0.0 0.0 -5.1365e-06
0.0 0.0 -5.1365e-06
0.0 0.0 -5.1365e-06
-8.93515e-07 1.00869e-06 -7.19802e-06
0.0 0.0 -5.1365e-06
8.06905e-19 1.11184e-18 -5.92923e-20
3.89733e-08 -1.5118e-07 1.9419e-07
-1.25757e-06 6.57347e-07 -8.82145e-07
-1.20063e-05 -1.37908e-05 -1.90348e-05
2.54755e-08 -4.39712e-07 -2.75333e-07
1.20063e-05 1.37908e-05 8.76177e-06
0.0 0.0 -5.1365e-06
0.0 0.0 -5.1365e-06
0.0 0.0 -5.1365e-06
0.0 0.0 -5.1365e-06
-2.34492e-13 3.13027e-14 -5.2074e-15
2.68072e-06 -4.20092e-06 -2.09004e-06
0.0 0.0 -5.1365e-06
0.0 -2.49941e-20 0.0
0.0169162 0.0193347 -0.0506757
-1.06936e-08 1.50566e-08 -2.32006e-07
0.0 0.0 -5.1365e-06
0.0 0.0 -5.1365e-06
0.0 0.0 -5.1365e-06
5.67902e-07 5.64816e-06 5.27142e-06
0.0 0.0 -5.1365e-06
0.0 0.0 -5.1365e-06
-0.0228613 0.0314112 -0.0102769
1.60478e-06 7.8688e-07 2.73913e-06
3.187e-06 2.85345e-05 9.76916e-06
0.0 0.0 -5.1365e-06
4.15943e-05 -0.000321302 0.000147777
1.85203e-08 -2.36359e-07 1.37638e-08
0.0 0.0 -5.1365e-06
0.0 0.0 -5.1365e-06
1.20369e-05 -4.95056e-06 9.72026e-06
6.26471e-07 1.55314e-05 -1.7348e-07
-2.23532e-05 -1.10132e-06 2.02557e-05
-1.32359e-05 -1.3912e-05 4.94713e-06
0.0 0.0 -5.1365e-06
0.0 0.0 -5.1365e-06
-9.70381e-05 -0.000168469 0.000198204
5.29396e-23 6.6373e-21 0.0
-1.28487e-07 5.3275e-08 8.76773e-07
0.0 0.0 -5.1365e-06
0.0 0.0 -5.1365e-06
0.0 0.0 -5.1365e-06
-5.29396e-22 2.0804e-19 0.0
-1.2699e-06 1.28349e-06 -1.91239e-07
0.0 0.0 -5.1365e-06
-3.36004e-06 2.13685e-05 -9.74915e-05
1.71788e-06 -3.55645e-07 -3.61949e-06
-1.11309e-08 -1.24572e-07 2.10433e-07
-1.54371e-07 9.06675e-07 -1.30656e-07
2.79754e-07 -1.09619e-06 -6.74044e-07
0.0 0.0 -5.1365e-06
5.4573e-06 -1.63769e-05 1.97669e-05
0.0 0.0 -5.1365e-06
-1.42033e-07 -3.94028e-07 4.00527e-08
0.000108282 1.80683e-05 -4.73111e-05
0.0 0.0 -5.1365e-06
5.5343e-19 -4.35693e-19 -8.30092e-20
6.68294e-06 -1.02638e-05 1.79938e-05
6.13553e-07 1.4761e-07 1.52118e-06
3.44408e-06 3.21318e-05 1.19534e-05
-5.54354e-06 8.49298e-06 4.95315e-06
1.05257e-08 -1.8535e-07 -2.46895e-07
0.0 0.0 -5.1365e-06
0.0 0.0 -5.1365e-06
-3.31691e-06 -2.98707e-05 2.81569e-05
0.0 0.0 -5.1365e-06
-2.30329e-06 2.01703e-06 -8.76439e-06
5.14111e-08 1.06164e-07 -7.65159e-07
-1.57858e-08 1.98227e-07 8.78842e-08
5.86002e-06 -7.25631e-06 -1.93713e-05
-5.69036e-06 -1.44652e-06 8.2081e-06
-6.92923e-07 -1.78083e-07 5.1255e-07
0.0 0.0 -5.1365e-06
0.0 0.0 -5.1365e-06
1.58819e-22 -3.82306e-20 0.0
4.30693e-07 -6.31615e-06 -5.67173e-06
8.93515e-07 -1.00869e-06 -3.07498e-06
1.29423e-06 1.72663e-07 1.49772e-05
0.0 0.0 -5.1365e-06
-1.36855e-07 -3.49022e-07 1.19509e-05
0.0 0.0 -5.1365e-06
0.0 0.0 -5.1365e-06
2.65636e-08 1.54756e-07 -2.32015e-07
-0.00262277 0.00435671 -0.025294
0.0 0.0 -5.1365e-06
0.0 0.0 -5.1365e-06
2.50146e-05 0.000153346 8.87822e-05
0.0 0.0 -5.1365e-06
0.0 0.0 -5.1365e-06
1.14879e-20 1.29596e-19 3.38813e-20
1.15024e-06 2.70099e-05 -1.54838e-06
-2.0108e-09 7.21439e-09 -6.9838e-10
4.97538e-06 2.68401e-06 3.1626e-06
-4.01025e-07 -3.32004e-06 -7.79598e-06
2.12323e-06 8.1354e-06 2.60977e-06
0.0 0.0 -5.1365e-06
0.0 0.0 -5.1365e-06
8.39376e-05 -0.00105138 0.000455561
0.0 0.0 -5.1365e-06
-1.89388e-08 -1.9044e-07 1.36972e-07
-1.11459e-06 -1.77815e-06 -2.99822e-07
0.0 0.0 -5.1365e-06
-1.97576e-08 3.20094e-08 2.38093e-07
-3.21919e-08 -1.04582e-07 -2.17499e-07
0.0 0.0 -5.1365e-06
0.0 0.0 -5.1365e-06
-2.2283e-05 -9.92461e-07 -4.40196e-05
0.0707828 0.146334 -0.292989
0.0 0.0 -5.1365e-06
1.05519e-05 -1.53925e-05 3.30053e-06
0.0 0.0 -5.1365e-06
0.0 0.0 -5.1365e-06
1.42122e-06 -2.87366e-06 -4.34596e-07
1.29352e-05 2.48739e-06 -1.8184e-05
0.0 0.0 -5.1365e-06
7.41309e-08 8.14748e-06 2.5721e-06
-1.5776e-20 -5.39984e-21 1.69407e-21
0.0 0.0 -5.1365e-06
0.0 0.0 -5.1365e-06
0.0 0.0 -5.1365e-06
1.9298e-06 1.82179e-06 2.13261e-06
1.86135e-19 3.70789e-19 6.86097e-20
0.0 0.0 -5.1365e-06
-5.5979e-10 1.83488e-07 1.2047e-07
8.46417e-05 -9.96947e-05 -5.16748e-05
-7.5621e-06 -2.47543e-06 -4.21938e-06
0.0 0.0 -5.1365e-06
-2.09924e-05 1.20842e-05 -5.11238e-06
-7.90613e-07 6.96073e-06 -2.24229e-06
0.0 0.0 -5.1365e-06
9.33677e-05 -0.000138402 -3.19892e-05
3.85376e-05 0.000216134 -0.000107999
0.0 0.0 -5.1365e-06
0.0 0.0 -5.1365e-06
0.000143476 0.00170054 -0.000454952
2.80565e-06 -1.87216e-06 -1.5632e-07
0.0 0.0 -5.1365e-06
6.44181e-05 -4.30345e-05 -1.33032e-06
-5.29396e-23 -3.07049e-21 0.0
0.0 0.0 -5.1365e-06
-1.91715e-18 1.80169e-18 -2.71051e-20
0.0 0.0 -5.1365e-06
2.724e-06 -1.06611e-08 -3.93862e-06
0.0 0.0 -5.1365e-06
0.000117247 0.000191005 -0.000131211
2.07508e-07 -2.69599e-07 -3.57491e-06
2.2283e-05 9.92461e-07 3.37466e-05
