# vtk DataFile Version 3.0
LIGGGHTS particles timestep 3000000
ASCII
DATASET POLYDATA
POINTS 161 float
0.0257694 0.0204358 0.016799
0.0189 0.0225358 0.0154226
0.0237692 0.0163453 0.0160564
0.0225267 0.0231359 0.013183
0.0216313 0.0231188 0.0132831
0.0592595 0.0187057 0.00589343
0.020902 0.0140959 0.013264
0.0239657 0.0226299 0.0153908
0.0180724 0.0240652 0.0130188
0.0303964 0.0148173 0.0107824
0.0247304 0.0204386 0.0166747
0.0164795 0.0233045 0.0127949
0.0250878 0.021396 0.016827
0.0221824 0.0207108 0.0171511
0.0169877 0.0158088 0.0157358
0.0345955 0.0188418 0.00570992
0.017524 0.0141725 0.0140576
0.0177059 0.0235855 0.0152545
0.0240025 0.0216689 0.0151076
0.0269292 0.0231567 0.0100486
0.0262884 0.0212658 0.00785947
0.0200646 0.0142668 0.0137839
0.0230385 0.0179919 0.0158166
0.0215511 0.0233573 0.0124288
0.0180983 0.0228169 0.0161208
0.0162912 0.0232278 0.0149315
0.0179766 0.0233932 0.0142915
0.0282887 0.0210136 0.0153258
0.0229626 0.0217753 0.0167757
0.0157398 0.0230602 0.0134153
0.0200463 0.0240673 0.0143067
0.0245787 0.0214333 0.0184223
0.0292993 0.0167223 0.0151257
0.0246523 0.0189077 0.0159456
0.0162482 0.0237228 0.0139875
0.0191162 0.0140481 0.014026
0.0243873 0.0169042 0.0166334
0.0182276 0.0139301 0.0133539
0.0200322 0.0242382 0.0132251
0.0191399 0.0162734 0.00819909
0.0231897 0.0227494 0.0185796
0.0194925 0.0238058 0.0155644
0.0231487 0.0210014 0.0154977
0.0239596 0.0214407 0.0162986
0.0267383 0.0182025 0.00597096
0.0285475 0.0200244 0.0157108
0.0223031 0.0217926 0.0156403
0.016934 0.0230173 0.0156681
0.0206702 0.0158198 0.0160701
0.029608 0.019721 0.00584316
0.0186333 0.0244082 0.0137703
0.0242396 0.0161927 0.0149026
0.0179286 0.0225639 0.0151552
0.024942 0.0194182 0.0167555
0.0258746 0.0190544 0.016752
0.0295918 0.0157198 0.0142117
0.0300294 0.0172015 0.0153618
0.0272637 0.0233821 0.0115925
0.0157271 0.0159656 0.0158558
0.022596 0.0201884 0.0158111
0.0172942 0.0175496 0.0157555
0.0210928 0.0239304 0.0169148
0.0182118 0.0146243 0.0119337
0.0210189 0.0240315 0.0133151
0.0224608 0.0197816 0.00583582
0.0249168 0.0216623 0.0159395
0.0171684 0.0228852 0.0145906
0.019212 0.0146256 0.0119316
0.0173477 0.0215271 0.0155338
0.0243176 0.0208383 0.0155859
0.0200119 0.0241949 0.0163256
0.0222923 0.0228809 0.0156972
0.0195649 0.0229339 0.0160577
0.0166344 0.014218 0.0136031
0.0249493 0.0168539 0.0153644
0.0221996 0.0154748 0.0177677
0.0188472 0.0207873 0.0164575
0.0205437 0.0211557 0.0166031
0.0209304 0.0145027 0.0142243
0.0235586 0.0201187 0.0164966
0.0235018 0.0180214 0.0172386
0.0232886 0.0169357 0.0154083
0.0249517 0.0179639 0.0158079
0.019634 0.0231049 0.0148649
0.0289359 0.0178655 0.00589895
0.0186005 0.0157784 0.0145078
0.0244858 0.0198912 0.0158737
0.0227398 0.0146073 0.0143617
0.0194878 0.0178384 0.00736682
0.0308967 0.015664 0.00882944
0.0190111 0.0148689 0.0145919
0.0202756 0.0226559 0.016764
0.0278033 0.0226531 0.0137799
0.0280833 0.0216758 0.0148705
0.0145233 0.0230117 0.0149838
0.0167706 0.0229317 0.0136746
0.029817 0.0151916 0.0132841
0.0186682 0.0236684 0.0149896
0.0202365 0.0210555 0.00772939
0.0241039 0.0209873 0.0172727
0.0354862 0.0197731 0.00599028
0.0245349 0.0223346 0.0162193
0.0224085 0.0192146 0.0175462
0.0211823 0.0252522 0.0286442
0.0218231 0.0232693 0.0164888
0.0233145 0.0233925 0.0152559
0.0190856 0.0241044 0.0129327
0.0241244 0.0147715 0.0121244
0.0219282 0.0238402 0.0139364
0.0213608 0.0230843 0.0152515
0.020998 0.023205 0.0103006
0.0217596 0.0149045 0.0147573
0.0266319 0.0205572 0.00746268
0.0239164 0.0191901 0.0165687
0.0286331 0.0221871 0.0144013
0.0247932 0.0153582 0.0092425
0.0159469 0.0225612 0.0142579
0.0191749 0.0236114 0.0141285
0.0224334 0.023753 0.0148835
0.0218144 0.022571 0.0181005
0.0266401 0.0225265 0.00892415
0.018295 0.0217169 0.0158953
0.0193613 0.0216491 0.0161935
0.019569 0.0149376 0.0132326
0.0178956 0.0148694 0.0134428
0.0200286 0.0142707 0.0125208
0.0239983 0.0181562 0.0163719
0.0218732 0.0143693 0.01392
0.0201291 0.0178448 0.0189251
0.0454623 0.0165053 0.00632503
0.0176683 0.0243045 0.0140188
0.0253639 0.0170531 0.0164322
0.018708 0.0152187 0.00959574
0.0275599 0.0231483 0.0129072
0.0372285 0.0203986 0.00609172
0.0202877 0.0219951 0.0158752
0.0153658 0.0233702 0.0145726
0.0176785 0.0155233 0.0142166
0.0233479 0.0153426 0.0157071
0.0183763 0.0239393 0.0161349
0.0166422 0.0219119 0.0149152
0.0171716 0.0237782 0.0133335
0.018671 0.0148039 0.0128137
0.0204521 0.0235595 0.015222
0.0241028 0.0174561 0.015664
0.0228063 0.0191335 0.0159578
0.019176 0.013965 0.013029
0.0174646 0.016371 0.0150495
0.0222527 0.0226495 0.0146011
0.0246563 0.0159732 0.0157839
0.0231011 0.0227665 0.0140038
0.089209 0.0204289 0.00606712
0.0208707 0.0232012 0.016133
0.0547713 0.0184279 0.005953
0.0210151 0.0236717 0.0143638
0.0195633 0.0159722 0.0156862
0.0169895 0.0239031 0.0146336
0.0199655 0.0144987 0.0147528
0.0208755 0.0228623 0.00948443
0.0236108 0.0156339 0.0142803
0.0192651 0.0169817 0.0077359

VERTICES 161 322
1 0
1 1
1 2
1 3
1 4
1 5
1 6
1 7
1 8
1 9
1 10
1 11
1 12
1 13
1 14
1 15
1 16
1 17
1 18
1 19
1 20
1 21
1 22
1 23
1 24
1 25
1 26
1 27
1 28
1 29
1 30
1 31
1 32
1 33
1 34
1 35
1 36
1 37
1 38
1 39
1 40
1 41
1 42
1 43
1 44
1 45
1 46
1 47
1 48
1 49
1 50
1 51
1 52
1 53
1 54
1 55
1 56
1 57
1 58
1 59
1 60
1 61
1 62
1 63
1 64
1 65
1 66
1 67
1 68
1 69
1 70
1 71
1 72
1 73
1 74
1 75
1 76
1 77
1 78
1 79
1 80
1 81
1 82
1 83
1 84
1 85
1 86
1 87
1 88
1 89
1 90
1 91
1 92
1 93
1 94
1 95
1 96
1 97
1 98
1 99
1 100
1 101
1 102
1 103
1 104
1 105
1 106
1 107
1 108
1 109
1 110
1 111
1 112
1 113
1 114
1 115
1 116
1 117
1 118
1 119
1 120
1 121
1 122
1 123
1 124
1 125
1 126
1 127
1 128
1 129
1 130
1 131
1 132
1 133
1 134
1 135
1 136
1 137
1 138
1 139
1 140
1 141
1 142
1 143
1 144
1 145
1 146
1 147
1 148
1 149
1 150
1 151
1 152
1 153
1 154
1 155
1 156
1 157
1 158
1 159
1 160

POINT_DATA 161
SCALARS id int 1
LOOKUP_TABLE default
1
2
3
4
5
6
7
9
10
11
13
14
15
17
19
20
22
23
24
25
27
28
29
30
31
32
34
35
36
37
38
39
40
41
42
44
45
46
47
49
50
51
52
53
54
55
57
59
60
61
62
63
64
65
66
67
68
69
70
71
73
74
75
78
79
81
82
83
84
85
87
88
90
92
93
95
96
97
98
100
101
102
103
105
106
107
108
109
110
111
112
113
114
115
116
117
118
119
120
121
122
123
124
125
126
127
128
129
130
131
132
133
134
135
136
137
138
139
140
141
142
143
144
145
146
147
148
149
150
151
152
153
154
155
158
159
160
162
164
165
166
167
168
169
170
171
172
173
174
176
177
178
180
182
183
184
185
186
187
188
189

SCALARS type int 1
LOOKUP_TABLE default
1
1
1
1
1
1
1
1
1
1
1
1
1
1
1
1
1
1
1
1
1
1
1
1
1
1
1
1
1
1
1
1
1
1
1
1
1
1
1
1
1
1
1
1
1
1
1
1
1
1
1
1
1
1
1
1
1
1
1
1
1
1
1
1
1
1
1
1
1
1
1
1
1
1
1
1
1
1
1
1
1
1
1
1
1
1
1
1
1
1
1
1
1
1
1
1
1
1
1
1
1
1
1
1
1
1
1
1
1
1
1
1
1
1
1
1
1
1
1
1
1
1
1
1
1
1
1
1
1
1
1
1
1
1
1
1
1
1
1
1
1
1
1
1
1
1
1
1
1
1
1
1
1
1
1
1
1
1
1
1
1

SCALARS radius float 1
LOOKUP_TABLE default
0.0005
0.0005
0.0005
0.0005
0.0005
0.0005
0.0005
0.0005
0.0005
0.0005
0.0005
0.0005
0.0005
0.0005
0.0005
0.0005
0.0005
0.0005
0.0005
0.0005
0.0005
0.0005
0.0005
0.0005
0.0005
0.0005
0.0005
0.0005
0.0005
0.0005
0.0005
0.0005
0.0005
0.0005
0.0005
0.0005
0.0005
0.0005
0.0005
0.0005
0.0005
0.0005
0.0005
0.0005
0.0005
0.0005
0.0005
0.0005
0.0005
0.0005
0.0005
0.0005
0.0005
0.0005
0.0005
0.0005
0.0005
0.0005
0.0005
0.0005
0.0005
0.0005
0.0005
0.0005
0.0005
0.0005
0.0005
0.0005
0.0005
0.0005
0.0005
0.0005
0.0005
0.0005
0.0005
0.0005
0.0005
0.0005
0.0005
0.0005
0.0005
0.0005
0.0005
0.0005
0.0005
0.0005
0.0005
0.0005
0.0005
0.0005
0.0005
0.0005
0.0005
0.0005
0.0005
0.0005
0.0005
0.0005
0.0005
0.0005
0.0005
0.0005
0.0005
0.0005
0.0005
0.0005
0.0005
0.0005
0.0005
0.0005
0.0005
0.0005
0.0005
0.0005
0.0005
0.0005
0.0005
0.0005
0.0005
0.0005
0.0005
0.0005
0.0005
0.0005
0.0005
0.0005
0.0005
0.0005
0.0005
0.0005
0.0005
0.0005
0.0005
0.0005
0.0005
0.0005
0.0005
0.0005
0.0005
0.0005
0.0005
0.0005
0.0005
0.0005
0.0005
0.0005
0.0005
0.0005
0.0005
0.0005
0.0005
0.0005
0.0005
0.0005
0.0005
0.0005
0.0005
0.0005
0.0005
0.0005
0.0005

SCALARS mass float 1
LOOKUP_TABLE default
5.23599e-07
5.23599e-07
5.23599e-07
5.23599e-07
5.23599e-07
5.23599e-07
5.23599e-07
5.23599e-07
5.23599e-07
5.23599e-07
5.23599e-07
5.23599e-07
5.23599e-07
5.23599e-07
5.23599e-07
5.23599e-07
5.23599e-07
5.23599e-07
5.23599e-07
5.23599e-07
5.23599e-07
5.23599e-07
5.23599e-07
5.23599e-07
5.23599e-07
5.23599e-07
5.23599e-07
5.23599e-07
5.23599e-07
5.23599e-07
5.23599e-07
5.23599e-07
5.23599e-07
5.23599e-07
5.23599e-07
5.23599e-07
5.23599e-07
5.23599e-07
5.23599e-07
5.23599e-07
5.23599e-07
5.23599e-07
5.23599e-07
5.23599e-07
5.23599e-07
5.23599e-07
5.23599e-07
5.23599e-07
5.23599e-07
5.23599e-07
5.23599e-07
5.23599e-07
5.23599e-07
5.23599e-07
5.23599e-07
5.23599e-07
5.23599e-07
5.23599e-07
5.23599e-07
5.23599e-07
5.23599e-07
5.23599e-07
5.23599e-07
5.23599e-07
5.23599e-07
5.23599e-07
5.23599e-07
5.23599e-07
5.23599e-07
5.23599e-07
5.23599e-07
5.23599e-07
5.23599e-07
5.23599e-07
5.23599e-07
5.23599e-07
5.23599e-07
5.23599e-07
5.23599e-07
5.23599e-07
5.23599e-07
5.23599e-07
5.23599e-07
5.23599e-07
5.23599e-07
5.23599e-07
5.23599e-07
5.23599e-07
5.23599e-07
5.23599e-07
5.23599e-07
5.23599e-07
5.23599e-07
5.23599e-07
5.23599e-07
5.23599e-07
5.23599e-07
5.23599e-07
5.23599e-07
5.23599e-07
5.23599e-07
5.23599e-07
5.23599e-07
5.23599e-07
5.23599e-07
5.23599e-07
5.23599e-07
5.23599e-07
5.23599e-07
5.23599e-07
5.23599e-07
5.23599e-07
5.23599e-07
5.23599e-07
5.23599e-07
5.23599e-07
5.23599e-07
5.23599e-07
5.23599e-07
5.23599e-07
5.23599e-07
5.23599e-07
5.23599e-07
5.23599e-07
5.23599e-07
5.23599e-07
5.23599e-07
5.23599e-07
5.23599e-07
5.23599e-07
5.23599e-07
5.23599e-07
5.23599e-07
5.23599e-07
5.23599e-07
5.23599e-07
5.23599e-07
5.23599e-07
5.23599e-07
5.23599e-07
5.23599e-07
5.23599e-07
5.23599e-07
5.23599e-07
5.23599e-07
5.23599e-07
5.23599e-07
5.23599e-07
5.23599e-07
5.23599e-07
5.23599e-07
5.23599e-07
5.23599e-07
5.23599e-07
5.23599e-07
5.23599e-07
5.23599e-07
5.23599e-07
5.23599e-07
5.23599e-07
5.23599e-07

VECTORS velocity float
-0.0206376 0.0181278 0.0026957
-0.0230304 0.0166198 -0.0214359
-0.00786996 -0.00516434 -0.0180363
0.0023539 0.00248753 -0.00443097
0.00786281 0.00282722 -0.00845488
-4.83173e-14 -2.95179e-14 -1.83186e-13
0.000171547 0.00430615 -0.00852115
-0.0143984 0.0131752 -0.00396548
0.00334998 0.00160156 -0.000660984
0.000220059 -0.0114098 0.0511276
0.0519569 -0.0716912 -0.0870816
0.00860189 0.00356618 -0.0074141
-0.00311439 0.000219703 -0.000281785
-0.000408472 -0.0580706 0.0727
-0.0175666 -0.148912 -0.0343462
8.70798e-20 -7.24606e-21 3.48289e-20
-0.00274539 -0.0221779 0.0111833
0.0205432 -0.00673922 -0.0286073
-0.00386521 0.0322597 -0.0170634
0.000862112 -0.0160116 -0.0484291
-0.000207454 -0.043899 -0.0295948
0.00716568 -0.0061172 -0.000789725
0.00457807 0.034607 0.00804938
-4.63257e-06 0.00230579 -0.00389004
-0.0531141 -0.0121278 -0.0348859
0.00753667 0.00817754 -0.0125128
0.00367426 -0.00192947 -0.0128786
0.0013481 0.0457588 -0.0197288
-0.0493966 -0.0679371 0.0273352
0.00934889 0.00324356 -0.00872244
0.00241864 -0.011002 -0.0210202
0.0789675 -0.00796806 -0.000318839
0.00165561 0.0305969 0.0255907
-0.00471154 0.0530505 -0.00418868
0.000218234 0.000746619 -0.000285414
0.00689381 -0.00814808 0.0200975
0.000108039 -0.0253624 -0.0117357
-0.00535758 0.00340149 0.00283668
0.00784632 -0.00832132 -0.021613
-0.000448926 -0.0350231 0.0328117
0.0844528 0.0326747 0.172153
-0.00298709 -0.0015401 -0.00782183
-0.00696341 -0.0122933 -0.0387495
-0.00871523 0.00605537 0.0105189
-1.69474e-14 -2.73214e-15 2.76309e-13
0.000745201 0.0480986 -0.0123555
0.0421679 -0.0515163 -0.0298732
0.0215638 -0.0187792 -0.0309517
-0.0511744 -0.133125 -0.172467
-2.04716e-08 1.94776e-10 1.74528e-09
0.00173465 0.000465326 -0.000210178
-0.00760615 0.00684047 0.00139429
0.00658032 -0.0250947 -0.022673
0.00739696 0.0371013 0.00432699
-0.00487517 0.00364813 -0.00237857
-0.268833 0.61362 1.44308
0.0087049 0.00575952 0.0197746
0.000447426 0.00242384 -0.0518963
-0.00588554 -0.0986501 0.0761757
-0.000296622 0.0516908 -0.0112814
0.0154687 0.0397446 -0.00108168
0.000530023 -0.00544521 -0.00806939
0.0107517 -0.00141504 0.00124151
-0.0372001 0.00153629 -0.0281106
-2.24589e-15 4.93507e-16 -1.81872e-14
0.000416484 0.00126633 -0.00147445
0.00565895 -0.00308395 -0.00700358
0.0104631 -0.00138536 0.00209763
-0.0183371 -0.060382 -0.0076794
0.0132239 0.0276271 -0.0189361
-0.00929631 0.00569763 -0.00623349
-2.89545e-05 -0.0329439 0.010107
0.00187862 0.00680992 -0.025413
0.000923206 -0.00214498 0.00547768
0.000698901 0.0053988 0.00546015
-0.00917196 -0.0992385 0.128746
-0.0204687 -0.0650092 -0.000148561
0.0213078 -0.0873573 0.019768
0.00626204 -0.00128699 -0.000381771
0.0345 -0.0256086 -0.00207291
-0.0100916 -0.0452079 0.0111956
5.96811e-05 0.046065 0.024386
0.000294357 0.0511356 0.0117613
-0.0022935 0.0229235 -0.0296083
-8.71296e-15 8.96291e-17 -1.02212e-13
0.00830059 0.0103896 0.0130332
-0.00302057 0.0507665 -0.0164248
-0.000318091 -0.00287489 0.00601025
0.000900426 -0.0497882 0.0163861
0.000316682 -0.0345072 0.0402936
0.0181086 0.00951092 0.0100364
-0.027717 -0.0245758 -0.0116032
-2.41614e-05 0.0310413 -0.0437902
0.00134319 0.0363785 -0.0314725
0.00350667 0.00219141 0.000520948
0.00222823 0.00487767 -0.00475372
-0.000130737 0.0196254 0.0494324
0.0168086 -0.00240863 -0.0487096
0.00118599 -0.0438439 -0.021568
-0.0246687 -0.0466293 -0.0473824
3.70253e-15 2.13603e-14 -8.26824e-14
-0.0026512 -0.00149176 0.000694952
0.0138678 -0.152867 0.0645483
-0.0275752 0.223603 0.370807
-0.000212694 -0.013333 -0.0155034
-0.0213851 0.0180172 -0.0147455
-0.000195227 0.00247963 -0.00137664
0.000911807 0.00800056 0.0477334
-0.0173835 -0.00400349 -0.0135302
-0.0174988 -0.0743922 -0.0116242
0.00198278 -0.0113921 -0.0415195
-0.000798883 0.00556026 -0.00863983
-7.99667e-05 -0.0482697 -0.0178685
-0.00866619 0.00471857 -0.0153893
-5.9502e-06 0.0344345 -0.0376202
0.00371212 -0.0195137 0.0355476
-0.00140676 0.0275195 -0.0420084
0.0200889 0.0145033 -0.046752
-0.0164881 0.00724623 0.00289283
0.0377389 0.00752124 0.140204
0.00721208 -0.0108089 -0.0186987
-0.0103882 -0.039779 -0.0129259
-0.0153756 -0.0390826 0.00390878
0.00742228 0.00140571 0.00396246
0.00521609 0.00747268 0.0379478
0.00342817 0.0317144 -0.0535037
0.000845866 0.0434547 0.0186906
0.00416005 0.00320127 -0.00494766
-0.101642 -0.337472 0.175514
-6.83302e-15 -3.79353e-14 -2.61342e-13
0.000499933 0.000417235 -7.29054e-05
-0.0206925 0.00209305 -0.0323764
0.00525422 -0.0157439 0.034986
0.00227421 0.0175054 -0.0387084
-4.65334e-15 1.47648e-14 -6.81725e-14
0.020818 -0.0814748 0.0107433
0.00374672 -0.00441309 -0.00965007
0.00952053 0.00577934 0.0116834
-0.0178042 -0.00241622 0.0543222
0.0147363 -0.0126438 -0.00577843
0.00496621 0.00341698 -0.0100881
0.00394375 0.00290359 -0.00316864
-0.00317172 0.00589301 0.0202269
0.00462782 -0.00710765 -0.00458456
0.000908579 0.0467886 0.019193
-0.000144459 0.0500291 -0.00120795
0.0069347 -0.00732311 0.0132755
0.00867724 -0.0121356 0.0202579
-0.00703262 -0.0270841 -0.0323139
-0.00294492 -0.00195872 -0.000662889
-0.0229169 0.0118913 -0.0238384
-7.39741e-15 -1.35319e-14 8.92933e-14
-0.0253954 -0.0383905 -0.0120899
5.02182e-12 1.66296e-12 -7.26189e-13
0.0217442 -0.0560372 -0.027731
0.0776093 -0.00419181 -0.0857829
0.000873219 0.000256608 -0.00145564
0.000668539 0.00151121 -0.00428407
0.00044479 -0.0232003 -0.0429092
0.0141682 0.0233814 0.0607856
0.0022962 -0.039535 0.021119

VECTORS force float
0.0 0.0 -5.1365e-06
0.0 0.0 -5.1365e-06
-1.9131e-06 8.89052e-07 7.40426e-06
-1.97565e-06 1.41701e-06 -9.42468e-06
-5.74029e-08 -4.19419e-06 -7.0083e-07
-1.65468e-16 -1.86819e-16 8.70411e-18
-7.73456e-07 9.0696e-07 -3.81882e-06
0.0 0.0 -5.1365e-06
-2.91643e-06 1.6726e-08 4.04017e-07
-2.55255e-07 -2.01142e-08 1.36056e-06
0.0 0.0 -5.1365e-06
1.92144e-06 -6.12314e-08 -6.51109e-06
-2.469e-05 -2.5614e-05 1.90335e-05
0.0 0.0 -5.1365e-06
0.0 0.0 -5.1365e-06
0.0 0.0 0.0
4.33267e-07 1.71477e-07 -5.10595e-06
2.27449e-06 -1.13475e-06 2.41123e-06
0.0 0.0 -5.1365e-06
-7.6423e-09 -2.31078e-07 -1.17826e-08
1.04526e-08 -5.70606e-07 1.4333e-07
-8.61703e-06 -1.96528e-06 -2.02223e-06
-4.0106e-07 3.63379e-07 -1.80456e-07
5.74398e-06 2.65098e-06 1.03263e-05
0.0 0.0 -5.1365e-06
0.0 0.0 -5.1365e-06
2.69009e-07 -2.62207e-06 -2.30142e-06
3.16836e-08 -8.07225e-08 -1.42209e-07
0.0 0.0 -5.1365e-06
2.03816e-06 1.45113e-06 -7.17163e-07
6.64715e-05 2.48677e-05 -3.90711e-05
0.0 0.0 -5.1365e-06
0.000102037 -0.000962249 -0.000144427
2.67682e-06 1.32525e-05 1.48559e-06
-2.22985e-06 1.09858e-06 -5.86918e-07
0.0 0.0 -5.1365e-06
0.0 0.0 -5.1365e-06
0.0 0.0 -5.1365e-06
6.31284e-06 2.33548e-06 2.46606e-06
-3.80921e-07 7.43665e-08 9.5484e-08
0.0 0.0 -5.1365e-06
7.51156e-06 -1.79346e-05 1.01096e-06
4.57168e-05 0.000341327 0.000232797
-7.0806e-06 4.86533e-06 -2.08623e-06
5.29396e-23 6.61744e-23 0.0
-2.44683e-08 8.28946e-08 -2.45064e-07
0.0 0.0 -5.1365e-06
0.0 0.0 -5.1365e-06
0.0 0.0 -5.1365e-06
-4.89347e-11 4.62786e-13 4.17104e-12
-2.53634e-06 -3.39103e-08 8.36796e-07
-1.73211e-05 -4.83559e-06 1.84048e-05
1.65133e-07 9.23679e-07 -3.79778e-06
0.0 0.0 -5.1365e-06
0.0 0.0 -5.1365e-06
-0.0179463 -0.0888895 0.0936265
0.000358403 -0.00126353 0.00265984
4.3743e-09 -2.08273e-07 -1.13427e-07
0.0 0.0 -5.1365e-06
0.0 0.0 -5.1365e-06
0.0 0.0 -5.1365e-06
0.0 0.0 -5.1365e-06
-3.87226e-06 9.2314e-06 1.13213e-06
0.0 0.0 -5.1365e-06
-1.21433e-18 -3.05456e-18 -1.69407e-20
-2.07461e-05 -4.68182e-05 2.46504e-05
1.54259e-06 4.57506e-07 3.56828e-06
-3.76287e-06 1.317e-06 7.66243e-07
0.0 0.0 -5.1365e-06
7.0806e-06 -4.86533e-06 -8.18678e-06
0.0 0.0 -5.1365e-06
-1.20851e-06 -2.25491e-05 -0.000152381
0.0 0.0 -5.1365e-06
-5.10111e-07 -4.04879e-06 3.45977e-06
-2.73507e-08 -5.56237e-08 2.26449e-07
0.0 0.0 -5.1365e-06
0.0 0.0 -5.1365e-06
0.0 0.0 -5.1365e-06
-5.69301e-06 2.24241e-06 1.77629e-06
-0.000159012 0.000344348 0.000202409
0.0 0.0 -5.1365e-06
-3.90629e-06 3.25944e-06 -5.30361e-06
-3.47127e-06 4.13867e-06 -1.02046e-06
4.75788e-08 6.63645e-07 -4.94929e-06
4.23516e-22 -6.21304e-20 0.0
3.88531e-07 -1.35171e-07 -5.00338e-06
0.0 0.0 -5.1365e-06
-1.49748e-06 -8.82061e-06 1.42063e-05
-3.52255e-07 -2.60258e-06 7.61224e-07
-5.93122e-09 1.15732e-07 2.2201e-07
0.0 0.0 -5.1365e-06
0.0 0.0 -5.1365e-06
-2.11814e-08 -1.57883e-07 -1.9211e-07
-4.88619e-08 -2.65928e-08 -3.00493e-07
2.52129e-06 -5.39853e-06 5.37425e-06
-3.96854e-06 9.47536e-07 -2.93997e-07
-2.44802e-08 2.29254e-07 -4.24136e-08
0.0 0.0 -5.1365e-06
-1.39969e-07 -3.92123e-07 4.2044e-08
0.0 0.0 -5.1365e-06
4.08164e-20 -5.0822e-21 8.47033e-22
0.000168961 0.000114247 -6.97891e-05
0.0 0.0 -5.1365e-06
0.0 0.0 -5.1365e-06
1.20851e-06 2.25491e-05 0.000142108
0.0 0.0 -5.1365e-06
-2.531e-06 2.52907e-07 4.36083e-06
-2.13892e-08 1.39734e-07 -6.73034e-08
0.0 0.0 -5.1365e-06
0.0 0.0 -5.1365e-06
3.89447e-07 1.83713e-07 2.82429e-06
0.0 0.0 -5.1365e-06
4.30883e-07 -5.00622e-07 -5.43375e-08
0.000159012 -0.000344348 -0.000212682
-2.12502e-08 -7.389e-08 -2.02504e-07
7.27828e-09 1.84965e-07 1.82629e-07
0.0 0.0 -5.1365e-06
-6.64715e-05 -2.48677e-05 2.87981e-05
0.0 0.0 -5.1365e-06
0.0 0.0 -5.1365e-06
1.51347e-05 1.36303e-05 2.15473e-05
0.0 0.0 -5.1365e-06
0.0 0.0 -5.1365e-06
-7.53409e-06 1.45485e-06 -9.47762e-06
0.0 0.0 -5.1365e-06
-1.46003e-07 3.29845e-06 5.96204e-08
0.0 0.0 -5.1365e-06
1.8353e-05 9.87599e-07 -3.65536e-06
0.0 0.0 -5.1365e-06
-2.09297e-19 -1.00903e-19 2.03288e-20
1.40997e-06 1.31307e-07 5.7798e-07
0.0 0.0 -5.1365e-06
-3.36475e-06 -1.13103e-05 6.30669e-06
3.33006e-06 5.43567e-06 -1.3782e-05
-1.63139e-18 -7.3946e-19 -5.59042e-20
0.0 0.0 -5.1365e-06
0.0 0.0 -5.1365e-06
3.05074e-07 -1.26193e-06 1.24501e-07
0.0 0.0 -5.1365e-06
0.0 0.0 -5.1365e-06
0.0 0.0 -5.1365e-06
-5.40093e-06 1.43701e-06 3.54826e-06
-1.72816e-06 8.97285e-07 -6.63401e-06
0.0 0.0 -5.1365e-06
-4.53753e-07 -6.13124e-06 -9.44622e-06
-2.8335e-07 6.45538e-07 -3.16746e-07
0.0 0.0 -5.1365e-06
0.0 0.0 -5.1365e-06
0.0 0.0 -5.1365e-06
2.80028e-05 -1.12716e-05 3.27672e-05
0.0 0.0 -5.1365e-06
0.0 7.52801e-20 1.10114e-20
0.0 0.0 -5.1365e-06
6.87621e-15 7.29114e-15 -4.2564e-15
0.0 0.0 -5.1365e-06
0.0 0.0 -5.1365e-06
4.32695e-07 3.86707e-07 -7.85072e-06
0.0 0.0 -5.1365e-06
-1.73744e-06 -5.93832e-07 3.96373e-07
2.10067e-06 -6.98378e-05 0.00014009
4.33085e-07 4.32572e-07 1.84613e-07
