# vtk DataFile Version 3.0
LIGGGHTS particles timestep 3800000
ASCII
DATASET POLYDATA
POINTS 153 float
0.0228462 0.0222849 0.0163036
0.0231635 0.0222794 0.0194863
0.0205484 0.0193841 0.016977
0.0157662 0.0125984 0.0221714
0.0223435 0.0189883 0.0160371
0.0592595 0.0187057 0.00589343
0.0255116 0.0222529 0.0142716
0.0239289 0.022656 0.0153559
0.0169403 0.0242609 0.0140947
0.0322824 0.0194117 0.0158052
0.01705 0.0233618 0.0145085
0.0206118 0.0180748 0.0158463
0.0220667 0.0161989 0.0149199
0.0160127 0.0233234 0.0149244
0.0212272 0.0193953 0.0159451
0.0345955 0.0188418 0.00570992
0.0186053 0.0139985 0.0129729
0.0166864 0.0224374 0.0155295
0.0287043 0.0203856 0.00592074
0.0286584 0.0161476 0.00834008
0.0280339 0.0148632 0.0105767
0.0194438 0.0121029 0.0244086
0.0179997 0.0235456 0.0142573
0.0207863 0.0216606 0.0162728
0.0194074 0.0229741 0.013749
0.0215783 0.0203849 0.0168387
0.021636 0.0147814 0.0127693
0.0299345 0.0215745 0.00795393
0.0229429 0.0157181 0.0147461
0.0208617 0.0170668 0.0154783
0.0205161 0.0240164 0.0137218
0.0308917 0.0233678 0.0115343
0.0267072 0.0172248 0.0152868
0.0180639 0.0243257 0.0136362
0.016751 0.014145 0.0137252
0.0199222 0.0144099 0.0139709
0.021884 0.0222978 0.0160422
0.0214827 0.0239296 0.0134803
0.0209973 0.0147626 0.0145869
0.0191629 0.0217021 0.0160689
0.0177262 0.0235389 0.0152217
0.014371 0.0217258 0.0154715
0.0267383 0.0182025 0.00597096
0.0303377 0.0228168 0.00933569
0.0233295 0.0194926 0.017043
0.022139 0.0193654 0.0169566
0.0218767 0.0232552 0.0174292
0.029608 0.019721 0.00584316
0.0238001 0.016463 0.0162431
0.0214363 0.0144667 0.013697
0.0196144 0.022371 0.0145229
0.0244339 0.021866 0.0159869
0.0315104 0.0224015 0.0141576
0.0311277 0.0231466 0.01289
0.0288767 0.0170792 0.00764005
0.0209438 0.0205225 0.0157657
0.0174085 0.0146265 0.0119963
0.0221133 0.0199567 0.0161107
0.0193537 0.0233033 0.0128142
0.0212431 0.0231811 0.0140889
0.0217195 0.0215014 0.0166282
0.0224608 0.0197816 0.00583582
0.0209003 0.0213676 0.0203072
0.0219581 0.0147777 0.0110503
0.0215316 0.0184156 0.016007
0.0228217 0.0160245 0.0178318
0.0242888 0.0152199 0.0135574
0.0161001 0.0148955 0.013111
0.0231983 0.0172083 0.0166538
0.0186994 0.023323 0.0109132
0.0193527 0.0181091 0.0166999
0.0270864 0.0161058 0.0146134
0.0230765 0.015284 0.013855
0.023998 0.0216915 0.0082745
0.020089 0.0140157 0.0130604
0.0176501 0.0141059 0.0132502
0.0255601 0.0203951 0.0169481
0.0142978 0.0164294 0.0215862
0.019887 0.0236858 0.0147348
0.0289359 0.0178655 0.00589895
0.0234382 0.0193688 0.00719185
0.0167366 0.0144972 0.0149164
0.0230901 0.0158476 0.0158271
0.0202904 0.017316 0.0165033
0.0326245 0.0176689 0.0155616
0.0211908 0.0232916 0.0157012
0.0192247 0.0143319 0.0146829
0.0293782 0.0190839 0.00717429
0.0297148 0.0207314 0.00753143
0.0172315 0.0240366 0.0131622
0.0220824 0.0152268 0.0137639
0.0317009 0.0218023 0.0148027
0.020581 0.022152 0.0147375
0.0230097 0.0233783 0.0184581
0.0354862 0.0197731 0.00599028
0.0205811 0.0213506 0.0153369
0.035675 0.0240564 0.0134158
0.0207236 0.0233472 0.0127712
0.0185446 0.014316 0.0139487
0.01993 0.0234052 0.0112194
0.0218782 0.0208913 0.0158519
0.0227988 0.0232697 0.0148225
0.0156942 0.0226564 0.0155953
0.0216922 0.0167488 0.016567
0.025821 0.021159 0.0152047
0.027761 0.0147881 0.0118957
0.0157526 0.0146312 0.0140983
0.0306581 0.0223225 0.00868321
0.0273927 0.0152626 0.013401
0.021067 0.0162419 0.0149524
0.0223041 0.0236812 0.014041
0.0434912 0.0408547 0.0243273
0.0170973 0.0149359 0.0131765
0.0284658 0.0155611 0.00903116
0.0232001 0.0183961 0.0072951
0.017922 0.0197687 0.0168009
0.0192397 0.0240132 0.013834
0.0217334 0.0216825 0.0152614
0.0193006 0.013694 0.0136231
0.0225983 0.0145452 0.0143297
0.0228035 0.0167439 0.0153337
0.0191583 0.0235135 0.0118674
0.0454623 0.0165053 0.00632503
0.0200324 0.0208585 0.0160126
0.0189864 0.0204566 0.0166087
0.0215432 0.022345 0.0145399
0.0291574 0.0182206 0.00731856
0.0372285 0.0203986 0.00609172
0.0202615 0.0222959 0.0156909
0.0185163 0.0230059 0.0100755
0.0203515 0.0227594 0.013975
0.0200408 0.0205835 0.0209141
0.0183967 0.0220522 0.0214063
0.0198081 0.0241549 0.013023
0.0193455 0.0232716 0.0104958
0.0202538 0.0198028 0.0158856
0.0214394 0.0238167 0.0148335
0.0153408 0.0223037 0.014543
0.0147729 0.0232735 0.0151891
0.0218596 0.0172065 0.0155418
0.0161565 0.0236723 0.013998
0.0237241 0.0151817 0.015091
0.0221412 0.0168982 0.0195337
0.0260205 0.0204387 0.0155823
0.089209 0.0204289 0.00606712
0.0188973 0.0233547 0.0146546
0.0547713 0.0184279 0.005953
0.0195377 0.0230411 0.0154639
0.0187799 0.0241143 0.0129495
0.0225687 0.017878 0.0158005
0.0143223 0.0224036 0.0144744
0.0207041 0.0138008 0.0138389
0.0182259 0.0149696 0.0149205

VERTICES 153 306
1 0
1 1
1 2
1 3
1 4
1 5
1 6
1 7
1 8
1 9
1 10
1 11
1 12
1 13
1 14
1 15
1 16
1 17
1 18
1 19
1 20
1 21
1 22
1 23
1 24
1 25
1 26
1 27
1 28
1 29
1 30
1 31
1 32
1 33
1 34
1 35
1 36
1 37
1 38
1 39
1 40
1 41
1 42
1 43
1 44
1 45
1 46
1 47
1 48
1 49
1 50
1 51
1 52
1 53
1 54
1 55
1 56
1 57
1 58
1 59
1 60
1 61
1 62
1 63
1 64
1 65
1 66
1 67
1 68
1 69
1 70
1 71
1 72
1 73
1 74
1 75
1 76
1 77
1 78
1 79
1 80
1 81
1 82
1 83
1 84
1 85
1 86
1 87
1 88
1 89
1 90
1 91
1 92
1 93
1 94
1 95
1 96
1 97
1 98
1 99
1 100
1 101
1 102
1 103
1 104
1 105
1 106
1 107
1 108
1 109
1 110
1 111
1 112
1 113
1 114
1 115
1 116
1 117
1 118
1 119
1 120
1 121
1 122
1 123
1 124
1 125
1 126
1 127
1 128
1 129
1 130
1 131
1 132
1 133
1 134
1 135
1 136
1 137
1 138
1 139
1 140
1 141
1 142
1 143
1 144
1 145
1 146
1 147
1 148
1 149
1 150
1 151
1 152

POINT_DATA 153
SCALARS id int 1
LOOKUP_TABLE default
1
2
3
4
5
6
7
9
10
11
13
14
15
17
19
20
22
23
24
25
27
28
29
30
31
32
34
35
36
37
38
40
41
42
44
45
46
47
49
50
51
53
54
55
57
59
60
61
63
64
65
66
67
68
69
70
71
73
74
75
78
79
81
82
83
84
85
87
88
90
92
93
95
96
97
101
102
103
105
106
107
108
109
110
111
112
113
114
115
116
117
118
119
121
122
123
124
125
126
128
129
130
131
132
133
134
135
136
137
138
139
140
141
142
143
144
145
146
147
148
149
150
151
152
153
154
155
158
159
160
162
164
165
166
167
168
169
170
171
172
173
174
176
177
178
180
182
183
185
186
187
188
189

SCALARS type int 1
LOOKUP_TABLE default
1
1
1
1
1
1
1
1
1
1
1
1
1
1
1
1
1
1
1
1
1
1
1
1
1
1
1
1
1
1
1
1
1
1
1
1
1
1
1
1
1
1
1
1
1
1
1
1
1
1
1
1
1
1
1
1
1
1
1
1
1
1
1
1
1
1
1
1
1
1
1
1
1
1
1
1
1
1
1
1
1
1
1
1
1
1
1
1
1
1
1
1
1
1
1
1
1
1
1
1
1
1
1
1
1
1
1
1
1
1
1
1
1
1
1
1
1
1
1
1
1
1
1
1
1
1
1
1
1
1
1
1
1
1
1
1
1
1
1
1
1
1
1
1
1
1
1
1
1
1
1
1
1

SCALARS radius float 1
LOOKUP_TABLE default
0.0005
0.0005
0.0005
0.0005
0.0005
0.0005
0.0005
0.0005
0.0005
0.0005
0.0005
0.0005
0.0005
0.0005
0.0005
0.0005
0.0005
0.0005
0.0005
0.0005
0.0005
0.0005
0.0005
0.0005
0.0005
0.0005
0.0005
0.0005
0.0005
0.0005
0.0005
0.0005
0.0005
0.0005
0.0005
0.0005
0.0005
0.0005
0.0005
0.0005
0.0005
0.0005
0.0005
0.0005
0.0005
0.0005
0.0005
0.0005
0.0005
0.0005
0.0005
0.0005
0.0005
0.0005
0.0005
0.0005
0.0005
0.0005
0.0005
0.0005
0.0005
0.0005
0.0005
0.0005
0.0005
0.0005
0.0005
0.0005
0.0005
0.0005
0.0005
0.0005
0.0005
0.0005
0.0005
0.0005
0.0005
0.0005
0.0005
0.0005
0.0005
0.0005
0.0005
0.0005
0.0005
0.0005
0.0005
0.0005
0.0005
0.0005
0.0005
0.0005
0.0005
0.0005
0.0005
0.0005
0.0005
0.0005
0.0005
0.0005
0.0005
0.0005
0.0005
0.0005
0.0005
0.0005
0.0005
0.0005
0.0005
0.0005
0.0005
0.0005
0.0005
0.0005
0.0005
0.0005
0.0005
0.0005
0.0005
0.0005
0.0005
0.0005
0.0005
0.0005
0.0005
0.0005
0.0005
0.0005
0.0005
0.0005
0.0005
0.0005
0.0005
0.0005
0.0005
0.0005
0.0005
0.0005
0.0005
0.0005
0.0005
0.0005
0.0005
0.0005
0.0005
0.0005
0.0005
0.0005
0.0005
0.0005
0.0005
0.0005
0.0005

SCALARS mass float 1
LOOKUP_TABLE default
5.23599e-07
5.23599e-07
5.23599e-07
5.23599e-07
5.23599e-07
5.23599e-07
5.23599e-07
5.23599e-07
5.23599e-07
5.23599e-07
5.23599e-07
5.23599e-07
5.23599e-07
5.23599e-07
5.23599e-07
5.23599e-07
5.23599e-07
5.23599e-07
5.23599e-07
5.23599e-07
5.23599e-07
5.23599e-07
5.23599e-07
5.23599e-07
5.23599e-07
5.23599e-07
5.23599e-07
5.23599e-07
5.23599e-07
5.23599e-07
5.23599e-07
5.23599e-07
5.23599e-07
5.23599e-07
5.23599e-07
5.23599e-07
5.23599e-07
5.23599e-07
5.23599e-07
5.23599e-07
5.23599e-07
5.23599e-07
5.23599e-07
5.23599e-07
5.23599e-07
5.23599e-07
5.23599e-07
5.23599e-07
5.23599e-07
5.23599e-07
5.23599e-07
5.23599e-07
5.23599e-07
5.23599e-07
5.23599e-07
5.23599e-07
5.23599e-07
5.23599e-07
5.23599e-07
5.23599e-07
5.23599e-07
5.23599e-07
5.23599e-07
5.23599e-07
5.23599e-07
5.23599e-07
5.23599e-07
5.23599e-07
5.23599e-07
5.23599e-07
5.23599e-07
5.23599e-07
5.23599e-07
5.23599e-07
5.23599e-07
5.23599e-07
5.23599e-07
5.23599e-07
5.23599e-07
5.23599e-07
5.23599e-07
5.23599e-07
5.23599e-07
5.23599e-07
5.23599e-07
5.23599e-07
5.23599e-07
5.23599e-07
5.23599e-07
5.23599e-07
5.23599e-07
5.23599e-07
5.23599e-07
5.23599e-07
5.23599e-07
5.23599e-07
5.23599e-07
5.23599e-07
5.23599e-07
5.23599e-07
5.23599e-07
5.23599e-07
5.23599e-07
5.23599e-07
5.23599e-07
5.23599e-07
5.23599e-07
5.23599e-07
5.23599e-07
5.23599e-07
5.23599e-07
5.23599e-07
5.23599e-07
5.23599e-07
5.23599e-07
5.23599e-07
5.23599e-07
5.23599e-07
5.23599e-07
5.23599e-07
5.23599e-07
5.23599e-07
5.23599e-07
5.23599e-07
5.23599e-07
5.23599e-07
5.23599e-07
5.23599e-07
5.23599e-07
5.23599e-07
5.23599e-07
5.23599e-07
5.23599e-07
5.23599e-07
5.23599e-07
5.23599e-07
5.23599e-07
5.23599e-07
5.23599e-07
5.23599e-07
5.23599e-07
5.23599e-07
5.23599e-07
5.23599e-07
5.23599e-07
5.23599e-07
5.23599e-07
5.23599e-07
5.23599e-07
5.23599e-07
5.23599e-07
5.23599e-07
5.23599e-07

VECTORS velocity float
-0.0426274 -0.0280719 -0.0389358
-0.0500291 -0.073508 -0.24896
0.0191852 0.0392449 -0.00021448
0.0360627 0.0285488 0.0980034
0.00071557 0.0531779 0.00956588
6.98992e-15 -1.48384e-14 -1.82213e-13
0.000288568 0.0351325 -0.039189
-0.0341089 0.0378242 -0.0309058
0.0109133 0.0214276 -0.0362028
0.00263569 0.0357503 -0.00430175
0.00735475 -0.0102347 -9.31968e-05
0.000198172 0.050569 0.0153954
-5.52617e-05 0.0234481 0.0213332
0.0116655 -0.00620584 0.009711
-0.00549201 0.0362954 -0.00143354
8.70798e-20 -7.24606e-21 3.48289e-20
-0.00530746 0.00502075 -0.00620826
0.0239052 0.0571129 -0.0499676
-1.637e-14 1.57082e-16 -1.92034e-13
0.00419196 -0.024163 0.0373269
0.00168572 -0.00899838 0.0309003
-0.205295 0.0288125 0.280783
0.00747163 0.00131844 0.000551304
0.0115039 0.0122139 -0.0423567
0.0222783 -0.0113176 0.0159259
-0.040158 0.0374441 0.0977061
0.00801664 -0.00273627 0.00429475
0.00280611 -0.03447 -0.0246574
-0.00360666 0.00872331 -0.00200292
0.00575123 0.0369459 0.0228561
-0.00212122 -0.00919141 0.000953048
0.000880337 0.00536059 -0.0474364
0.000844258 0.0459678 0.018316
0.000568534 -0.000789054 -0.000921559
-0.0220804 0.00957555 -0.0133588
-0.00251072 -0.000841172 -0.00574622
0.0143148 0.0561965 0.0122166
0.00462462 -0.00522619 0.00569904
-0.00775387 -0.00452075 0.0301402
-0.00157412 0.0661137 -0.031304
0.00291219 0.00751136 0.014862
-0.00430672 0.0140114 -0.0281819
-1.69476e-14 -2.73084e-15 2.76309e-13
0.00437828 -0.0177943 -0.03231
-0.274272 0.0910907 0.0303461
-0.00904706 0.040529 0.0306922
-0.0137157 -0.0234492 -0.192389
-8.71306e-15 7.44711e-17 -1.02212e-13
-0.0432204 0.0563626 -0.121551
0.00113768 -0.000937522 0.00450084
0.0126704 -0.0166182 0.00305729
-0.0672596 0.0904971 -0.0442529
0.00116825 0.0290799 -0.039645
8.50344e-05 0.0220737 -0.0480985
0.00108768 -0.0413429 0.0191175
0.00790603 0.0103832 0.031468
0.00277155 -0.00259243 0.00511449
-0.00736747 0.0448707 0.117044
-0.00253097 0.00514192 0.0127062
0.0265632 -0.0150102 0.0123424
-0.000938396 0.113725 0.0794451
-2.22199e-15 3.62213e-16 -1.81963e-14
-0.191474 0.0291202 0.0905391
0.00561018 -0.00406961 0.0170157
0.00669561 0.0472394 -0.0166787
0.00186124 -0.178627 -0.121892
0.000800591 0.0250987 0.0442393
-0.00425319 0.00272517 -0.00231552
-0.0275395 -0.130935 -0.0468518
-0.0096551 -0.0960048 0.18247
-0.00411522 0.046968 0.00893111
0.00288777 0.026292 0.0256932
0.000653584 0.00107226 0.00100544
0.00056608 -0.0405659 -0.0311487
-0.00190704 0.0038641 -0.0030222
-0.0037606 0.00208405 -0.00351626
0.00111085 -0.0403142 -0.199288
-0.0218592 -0.0612413 0.144241
0.0102755 0.126391 -0.0514345
-8.71352e-15 1.36871e-16 -1.02212e-13
0.0171415 0.0430245 0.000288014
-0.0126247 -0.190297 0.129776
-0.109586 -0.0376788 0.0330246
0.00562326 0.0420585 0.0144734
0.000377707 0.0484702 0.0168743
-0.0183918 -0.0120167 0.00360423
-0.00907594 0.00333193 -0.0174933
0.00162002 -0.0447712 0.000249604
0.000862555 -0.0451087 -0.0180391
1.07352e-05 5.01555e-05 9.14851e-05
0.000523427 0.000747984 0.00328242
0.000771814 0.0436121 -0.0299245
0.0111889 -0.00459848 -0.00788626
-0.00770611 -0.044226 -0.102765
3.74464e-15 2.13477e-14 -8.26837e-14
0.0172938 0.00660997 0.0110643
0.178637 0.0516405 -0.00508748
0.00418104 0.0670092 -0.0436911
-0.00411031 0.00579057 0.000232039
-0.0431859 0.0498178 -0.0665963
0.00169599 0.0551468 0.126014
-0.00370548 -0.033516 -0.0123768
-0.00345324 -0.0136033 0.00491133
-0.0175165 -0.0816797 -0.0170598
0.00245426 0.0339673 -0.0230925
0.00136124 0.00692559 0.0462091
-0.0103355 0.0425528 0.0254436
-0.0008072 -0.0323287 -0.0350255
-0.00105743 0.0261151 0.0502244
-0.000394811 0.0305339 0.0267626
0.025665 0.00455213 -0.0222083
0.239586 0.188488 -0.673305
-0.00443259 0.0017725 0.00252551
-0.0135119 -0.032277 0.0610047
0.00200983 -0.0469651 0.00686842
0.00676652 0.0773581 -0.0989781
0.00245156 0.0117955 -0.00757853
0.0173297 0.0149882 0.0596699
0.0024613 0.00290544 -0.015209
-0.0163714 4.91469e-05 -0.0172704
-0.0136218 0.0424556 0.0261516
0.00195619 -0.00449344 0.00133654
-6.70118e-15 -3.80138e-14 -2.61334e-13
0.00628909 0.0270333 0.0209733
0.0941061 0.138996 -0.0129595
0.0165311 -0.0207478 0.0208152
-0.0005701 -0.0384351 0.00574614
-4.13958e-15 1.49124e-14 -6.81733e-14
-0.0236831 0.0262773 -0.010425
0.0213394 0.00816677 0.0860424
0.0244205 -0.0245615 0.0161475
0.100621 0.587207 0.11772
-0.000201212 0.353223 -0.159574
0.00608203 0.00382643 0.0095294
-0.0591694 0.198192 0.0393491
-0.0163584 0.0252914 -0.00784711
0.00694049 -0.00413961 0.00879775
0.0235484 0.0472173 -0.0523929
0.0016046 -0.0172208 -0.0508548
0.0126361 0.000206288 -0.00372995
-0.006207 0.0109795 -0.00619535
-0.0216324 -0.0211028 -0.013186
0.0309569 0.0870907 0.0766307
0.00704551 0.0315402 -0.00976475
-7.39741e-15 -1.35395e-14 8.92922e-14
0.0109891 0.0108415 -0.00824491
5.07612e-15 7.67669e-15 1.04255e-13
0.00827728 0.0706826 -0.0330491
0.000710496 0.00161478 -0.000999339
0.00827479 0.0118119 -0.00029408
0.00226359 0.0523348 -0.0306276
-0.0031876 -0.000803004 0.00048454
-0.0151645 0.0134491 -0.0154103

VECTORS force float
0.000502189 0.000318756 0.000193569
0.0 0.0 -5.1365e-06
0.0 0.0 -5.1365e-06
0.0 0.0 -5.1365e-06
-9.64078e-06 2.03383e-05 1.08391e-05
-1.52199e-18 -6.05893e-19 -1.01644e-20
-1.15785e-08 -1.09697e-07 -2.31754e-07
0.0 0.0 -5.1365e-06
0.000100871 0.000982393 4.51187e-05
-3.57744e-06 1.11202e-05 -1.31996e-05
-0.000266577 -0.000136278 -3.68868e-05
-5.77059e-06 1.94754e-06 -1.60609e-06
5.34241e-08 -2.99464e-06 1.32702e-05
4.80743e-05 0.000117152 -0.000123901
0.0 0.0 -5.1365e-06
0.0 0.0 0.0
-1.82644e-05 2.79514e-06 -2.45873e-05
0.0 0.0 -5.1365e-06
5.29396e-23 2.88909e-20 0.0
0.000879345 0.00355594 0.00252525
4.36769e-05 5.43705e-05 -0.000195369
0.0 0.0 -5.1365e-06
3.16004e-05 -4.03012e-05 3.43031e-05
0.0 0.0 -5.1365e-06
8.29563e-06 -2.2918e-05 2.31684e-05
-1.10975e-06 5.56783e-07 1.53807e-06
-8.43416e-07 -1.7575e-06 -3.44321e-06
3.43963e-07 1.15369e-06 1.16599e-06
0.0 0.0 -5.1365e-06
3.60716e-06 1.01459e-05 1.01306e-05
0.0 0.0 -5.1365e-06
-7.46777e-06 3.09238e-05 1.6025e-05
1.96493e-07 7.66139e-07 -8.6188e-08
1.30698e-05 -5.55842e-05 2.78472e-05
4.17282e-06 4.96667e-06 -1.17795e-06
-2.39351e-06 5.33661e-06 -4.21058e-06
-0.000502189 -0.000318756 -0.000203842
1.46056e-05 -7.63541e-06 1.43612e-05
0.0 0.0 -5.1365e-06
0.0 0.0 -5.1365e-06
7.36533e-05 3.46685e-05 7.75464e-05
0.0 0.0 -5.1365e-06
8.99973e-22 -1.09055e-20 0.0
1.34048e-05 -1.48634e-06 2.1853e-06
0.0 0.0 -5.1365e-06
0.0 0.0 -5.1365e-06
0.0 0.0 -5.1365e-06
-4.76456e-22 -2.22336e-19 0.0
0.0 0.0 -5.1365e-06
-2.7726e-06 -2.96865e-06 -4.8135e-06
9.12295e-06 -2.07806e-05 4.69901e-05
0.0 0.0 -5.1365e-06
-1.25396e-07 -2.26957e-09 -4.15365e-07
3.14144e-08 -1.62327e-07 -1.20722e-07
-5.96012e-07 -1.96168e-06 1.37803e-06
0.0 0.0 -5.1365e-06
1.60482e-07 -4.06548e-07 2.18503e-06
6.72817e-06 8.02011e-06 2.59275e-05
-2.48589e-05 7.0201e-06 2.19087e-05
4.73095e-06 -9.69152e-06 -6.6219e-06
4.24954e-07 8.32017e-07 -4.45375e-06
-1.88465e-20 -1.54319e-19 -5.0822e-21
0.0 0.0 -5.1365e-06
-0.000373205 -8.92606e-05 0.000828098
-1.84317e-05 2.31527e-05 -3.32064e-06
0.0 0.0 -5.1365e-06
-1.14558e-05 2.25566e-05 2.97949e-05
5.13529e-06 2.81368e-06 1.94772e-07
0.0 0.0 -5.1365e-06
0.011105 -0.0225789 0.0147263
2.37409e-07 7.00217e-07 -7.88896e-07
-2.4421e-07 1.76125e-07 -5.22105e-07
1.22771e-06 -7.76453e-07 -3.43898e-06
-3.05255e-08 -2.23551e-07 1.18274e-07
0.0 0.0 -5.1365e-06
6.52017e-08 -3.35353e-07 -4.9446e-06
0.0 0.0 -5.1365e-06
0.0 0.0 -5.1365e-06
0.0 0.0 -5.1365e-06
-8.99973e-22 -7.98378e-20 0.0
0.000299394 -0.0026752 0.000701084
0.0 0.0 -5.1365e-06
0.0 0.0 -5.1365e-06
0.0 0.0 -5.1365e-06
-4.70034e-09 1.70201e-07 -1.85357e-07
0.0 0.0 -5.1365e-06
-4.14061e-06 -5.9167e-06 2.74051e-06
-5.51862e-07 -1.44505e-05 -2.90413e-05
-1.93141e-10 -2.30022e-07 9.6464e-08
6.03585e-07 4.07865e-07 4.10182e-07
2.55029e-06 -1.30411e-06 1.33255e-06
-1.42547e-08 2.03083e-08 -3.06001e-07
0.0 0.0 -5.1365e-06
0.0 0.0 -5.1365e-06
-9.36236e-20 -1.35525e-19 -3.98105e-20
7.6539e-07 -1.40793e-06 -4.32572e-06
0.0 0.0 -5.1365e-06
0.0 0.0 -5.1365e-06
0.0 0.0 -5.1365e-06
-0.00171431 0.00911624 -0.0073503
-3.06771e-06 -2.09573e-05 -6.47578e-07
0.0 0.0 -5.1365e-06
-4.80743e-05 -0.000117152 0.000113628
0.0 0.0 -5.1365e-06
3.62428e-07 4.24971e-07 -8.81278e-07
-5.68253e-08 2.48809e-07 1.83002e-07
0.0 0.0 -5.1365e-06
-1.8741e-06 6.98954e-06 1.70982e-06
-8.61959e-07 1.05073e-06 1.95913e-06
-3.60716e-06 -1.01459e-05 -2.04036e-05
0.0 0.0 -5.1365e-06
0.0 0.0 -5.1365e-06
2.62302e-07 -4.79159e-06 3.17622e-07
0.00072234 0.00156047 -0.000169764
7.02971e-05 -0.000235574 0.000178215
0.0 0.0 -5.1365e-06
0.0 0.0 -5.1365e-06
5.10236e-06 -1.4788e-05 1.86061e-05
1.83945e-05 -3.19443e-06 1.42369e-05
-3.70213e-09 -3.71582e-08 -5.08337e-06
0.0 0.0 -5.1365e-06
1.60257e-05 -2.07694e-05 -1.51792e-05
4.48716e-19 -1.07361e-19 4.23516e-21
-7.6539e-07 1.40793e-06 -5.94728e-06
0.0 0.0 -5.1365e-06
-9.48281e-06 -3.73534e-05 -7.67084e-06
2.81316e-06 1.47304e-05 1.22886e-05
-1.36182e-18 6.98802e-21 8.80914e-20
0.0 0.0 -5.1365e-06
0.000193957 -0.00561285 0.00320462
6.07185e-06 -5.84699e-06 2.36472e-05
0.0 0.0 -5.1365e-06
0.0 0.0 -5.1365e-06
2.14378e-05 6.35685e-06 2.6199e-05
-0.0114183 -0.0170917 0.0394735
0.0 0.0 -5.1365e-06
6.99156e-06 -4.98429e-05 3.08863e-05
0.0 0.0 -5.1365e-06
0.0 0.0 -5.1365e-06
0.0 0.0 -5.1365e-06
0.00113019 -0.00191197 0.000430794
0.0 0.0 -5.1365e-06
0.0 0.0 -5.1365e-06
6.89065e-07 1.41813e-06 -1.07822e-06
0.0 -3.81165e-21 -8.47033e-22
1.85899e-06 -1.96127e-06 -2.9713e-06
-4.26163e-19 4.7545e-19 -1.18585e-20
0.0 0.0 -5.1365e-06
7.15423e-07 -2.52318e-07 -3.09823e-06
0.0 0.0 -5.1365e-06
0.0 0.0 -5.1365e-06
6.44945e-06 -1.67829e-06 -8.59024e-06
0.0 0.0 -5.1365e-06
