# vtk DataFile Version 3.0
LIGGGHTS particles timestep 2600000
ASCII
DATASET POLYDATA
POINTS 164 float
0.0242377 0.0188382 0.0176793
0.0194901 0.0220347 0.015958
0.0201603 0.0147232 0.0114028
0.0203793 0.0230226 0.0149507
0.0171836 0.0224505 0.0143842
0.0546579 0.01997 0.0058506
0.020583 0.0137379 0.0139258
0.0244918 0.0223151 0.0160258
0.0167368 0.0235784 0.0129238
0.0296206 0.0203159 0.0156034
0.0249512 0.0154176 0.0137956
0.0135341 0.0215708 0.015979
0.0253405 0.0206428 0.0156405
0.0204037 0.0160714 0.0187318
0.017899 0.0180704 0.0169626
0.0345955 0.0188418 0.00570992
0.0210984 0.0220671 0.0162014
0.0171322 0.0230395 0.0170417
0.0231923 0.0176663 0.0166412
0.0260474 0.0155299 0.00901607
0.0247317 0.0163311 0.0149154
0.0200498 0.0146138 0.0141721
0.0214236 0.0213335 0.00789374
0.0204312 0.0238685 0.0134032
0.020678 0.0215678 0.0220466
0.0203638 0.0241553 0.0173157
0.0173505 0.0226908 0.015556
0.0275249 0.0214773 0.00797474
0.0191397 0.0212 0.0155254
0.013036 0.0188327 0.0163275
0.0177061 0.0240032 0.0145531
0.0193772 0.0202549 0.0158353
0.0282509 0.0233075 0.0106463
0.0209441 0.014249 0.0131448
0.0154099 0.0232138 0.0149271
0.0195843 0.0210867 0.0169738
0.0184049 0.0221407 0.0147681
0.0192712 0.0228807 0.0152854
0.0183589 0.0238844 0.0138017
0.0176152 0.0234218 0.0115054
0.0222686 0.0237765 0.0143631
0.0183628 0.0242076 0.0168143
0.0184067 0.0188759 0.0160496
0.024411 0.0205873 0.0158915
0.0267383 0.0182025 0.00597096
0.0277886 0.0223202 0.00865009
0.0174025 0.0217749 0.0150916
0.0244447 0.0208522 0.017011
0.0180754 0.0231649 0.0149976
0.0246572 0.0213466 0.0153089
0.0174624 0.0241322 0.0134324
0.0232394 0.0148761 0.0146958
0.0189213 0.0229711 0.0164698
0.0257215 0.0186057 0.0159383
0.0259507 0.0190802 0.0169024
0.0285295 0.0233659 0.0117658
0.0279975 0.0229029 0.00946998
0.0263274 0.0163709 0.00814732
0.0206995 0.0202119 0.016697
0.0208543 0.0171885 0.00758498
0.0382738 0.0209046 0.0654989
0.0256845 0.0205655 0.0166221
0.0240425 0.0186731 0.0164423
0.0177897 0.0140824 0.013223
0.069498 -0.00506934 0.0422554
0.0197143 0.0241334 0.0129373
0.0224608 0.0197816 0.00583582
0.024767 0.0181694 0.0158627
0.0161484 0.0216041 0.0161576
0.01871 0.0137752 0.0134936
0.0184883 0.0223714 0.0157683
0.0206949 0.015775 0.0145081
0.0189741 0.014883 0.0141241
0.0197678 0.0242096 0.0164192
0.0210008 0.0237891 0.0147639
0.0237508 0.0188646 0.0186196
0.0247834 0.0191645 0.0159934
0.0247292 0.0177119 0.0169889
0.0250374 0.0186783 0.0168288
0.021121 0.0148357 0.0146445
0.0187749 0.0160348 0.0147656
0.0243005 0.0173336 0.0161711
0.0196515 0.0184699 0.0160994
0.0196152 0.0156169 0.0143501
0.0224212 0.01448 0.0142792
0.0204378 0.0145812 0.0123505
0.020076 0.0227865 0.0178587
0.0289359 0.0178655 0.00589895
0.0174981 0.0145139 0.0141913
0.0209238 0.0151884 0.0137298
0.0236015 0.0163994 0.0162119
0.0177205 0.0231597 0.0131917
0.0299957 0.0189142 0.0158112
0.0209948 0.0219485 0.0179591
0.0190564 0.0237423 0.0147089
0.0269101 0.0189811 0.00715472
0.0272635 0.0204609 0.00745517
0.0176862 0.0216984 0.0160722
0.0161755 0.0214478 0.0218985
0.0288723 0.0229 0.0134153
0.0186305 0.0237164 0.0156839
0.0187585 0.0231526 0.0132033
0.0197429 0.0149709 0.0101452
0.0354862 0.0197731 0.00599028
0.0251639 0.0213963 0.0164095
0.0199613 0.0156268 0.015327
0.0201412 0.0157781 0.00870756
0.0235678 0.0209597 0.0156122
0.0237315 0.0227831 0.0154953
0.0188098 0.0240889 0.0128665
0.0230448 0.0228607 0.0137792
0.021574 0.0239093 0.0135457
0.0200667 0.0238563 0.0143714
0.0190323 0.0226616 0.0141779
0.020008 0.0254558 0.0204184
0.0251544 0.0172904 0.0155792
0.0200088 0.0170747 0.0155573
0.0277469 0.019076 0.00716227
0.0232154 0.0223177 0.014553
0.0233618 0.0219935 0.0159767
0.0169816 0.0232716 0.0138437
0.0231287 0.0233697 0.0148143
0.0193974 0.0145945 0.0120792
0.0255707 0.0176617 0.0164315
0.0215183 0.0229505 0.0156124
0.0236879 0.0200777 0.0167345
0.0255982 0.0197264 0.0158864
0.0168066 0.0141998 0.0135408
0.0197784 0.0138372 0.0133231
0.0200989 0.0149342 0.0132247
0.0215367 0.0141534 0.0139457
0.0178424 0.0207016 0.0156255
0.0454623 0.0165053 0.00632503
0.0167926 0.0241938 0.0141809
0.0246897 0.0163697 0.0161006
0.0172898 0.0233776 0.0123132
0.0266186 0.0176184 0.00746246
0.0372285 0.0203986 0.00609172
0.0226259 0.0195771 0.0170737
0.0156952 0.0222152 0.0169014
0.0159895 0.0144297 0.0140692
0.0219066 0.0226908 0.00924013
0.0183174 0.0231404 0.0173371
0.0187344 0.0218844 0.0166986
0.0159824 0.0236081 0.0141871
0.0191524 0.0146151 0.0131776
0.0192519 0.0243525 0.013843
0.0205693 0.0152502 0.00944716
0.0210922 0.0195874 0.00721454
0.0153947 0.0204801 0.0230464
0.0179526 0.0150343 0.0149469
0.0180555 0.0227866 0.0140496
0.0239283 0.015335 0.0152565
0.0199215 0.0237062 0.0155457
0.089209 0.0204289 0.00606712
0.0184421 0.0176191 0.0161348
0.0237904 0.021749 0.0150919
0.0207946 0.0243942 0.0139107
0.0252099 0.0197458 0.0170697
0.0163181 0.0230454 0.0153938
0.0189603 0.0169677 0.015441
0.0206884 0.0240895 0.0126362
0.022473 0.023398 0.0114877
0.017985 0.0238829 0.0125707

VERTICES 164 328
1 0
1 1
1 2
1 3
1 4
1 5
1 6
1 7
1 8
1 9
1 10
1 11
1 12
1 13
1 14
1 15
1 16
1 17
1 18
1 19
1 20
1 21
1 22
1 23
1 24
1 25
1 26
1 27
1 28
1 29
1 30
1 31
1 32
1 33
1 34
1 35
1 36
1 37
1 38
1 39
1 40
1 41
1 42
1 43
1 44
1 45
1 46
1 47
1 48
1 49
1 50
1 51
1 52
1 53
1 54
1 55
1 56
1 57
1 58
1 59
1 60
1 61
1 62
1 63
1 64
1 65
1 66
1 67
1 68
1 69
1 70
1 71
1 72
1 73
1 74
1 75
1 76
1 77
1 78
1 79
1 80
1 81
1 82
1 83
1 84
1 85
1 86
1 87
1 88
1 89
1 90
1 91
1 92
1 93
1 94
1 95
1 96
1 97
1 98
1 99
1 100
1 101
1 102
1 103
1 104
1 105
1 106
1 107
1 108
1 109
1 110
1 111
1 112
1 113
1 114
1 115
1 116
1 117
1 118
1 119
1 120
1 121
1 122
1 123
1 124
1 125
1 126
1 127
1 128
1 129
1 130
1 131
1 132
1 133
1 134
1 135
1 136
1 137
1 138
1 139
1 140
1 141
1 142
1 143
1 144
1 145
1 146
1 147
1 148
1 149
1 150
1 151
1 152
1 153
1 154
1 155
1 156
1 157
1 158
1 159
1 160
1 161
1 162
1 163

POINT_DATA 164
SCALARS id int 1
LOOKUP_TABLE default
1
2
3
4
5
6
7
9
10
11
13
14
15
17
19
20
22
23
24
25
27
28
29
30
31
32
34
35
36
37
38
39
40
41
42
44
45
46
47
49
50
51
52
53
54
55
57
59
60
61
62
63
64
65
66
67
68
69
70
71
72
73
74
75
76
78
79
81
82
83
84
85
86
87
88
90
92
93
95
96
97
98
100
101
102
103
105
106
107
108
109
110
111
112
113
114
115
116
117
118
119
120
121
122
123
124
125
126
127
128
129
130
131
132
133
134
135
136
137
138
139
140
141
142
143
144
145
146
147
148
149
150
151
152
153
154
155
158
159
160
162
164
165
166
167
168
169
170
171
172
173
174
176
177
178
180
182
183
184
185
186
187
188
189

SCALARS type int 1
LOOKUP_TABLE default
1
1
1
1
1
1
1
1
1
1
1
1
1
1
1
1
1
1
1
1
1
1
1
1
1
1
1
1
1
1
1
1
1
1
1
1
1
1
1
1
1
1
1
1
1
1
1
1
1
1
1
1
1
1
1
1
1
1
1
1
1
1
1
1
1
1
1
1
1
1
1
1
1
1
1
1
1
1
1
1
1
1
1
1
1
1
1
1
1
1
1
1
1
1
1
1
1
1
1
1
1
1
1
1
1
1
1
1
1
1
1
1
1
1
1
1
1
1
1
1
1
1
1
1
1
1
1
1
1
1
1
1
1
1
1
1
1
1
1
1
1
1
1
1
1
1
1
1
1
1
1
1
1
1
1
1
1
1
1
1
1
1
1
1

SCALARS radius float 1
LOOKUP_TABLE default
0.0005
0.0005
0.0005
0.0005
0.0005
0.0005
0.0005
0.0005
0.0005
0.0005
0.0005
0.0005
0.0005
0.0005
0.0005
0.0005
0.0005
0.0005
0.0005
0.0005
0.0005
0.0005
0.0005
0.0005
0.0005
0.0005
0.0005
0.0005
0.0005
0.0005
0.0005
0.0005
0.0005
0.0005
0.0005
0.0005
0.0005
0.0005
0.0005
0.0005
0.0005
0.0005
0.0005
0.0005
0.0005
0.0005
0.0005
0.0005
0.0005
0.0005
0.0005
0.0005
0.0005
0.0005
0.0005
0.0005
0.0005
0.0005
0.0005
0.0005
0.0005
0.0005
0.0005
0.0005
0.0005
0.0005
0.0005
0.0005
0.0005
0.0005
0.0005
0.0005
0.0005
0.0005
0.0005
0.0005
0.0005
0.0005
0.0005
0.0005
0.0005
0.0005
0.0005
0.0005
0.0005
0.0005
0.0005
0.0005
0.0005
0.0005
0.0005
0.0005
0.0005
0.0005
0.0005
0.0005
0.0005
0.0005
0.0005
0.0005
0.0005
0.0005
0.0005
0.0005
0.0005
0.0005
0.0005
0.0005
0.0005
0.0005
0.0005
0.0005
0.0005
0.0005
0.0005
0.0005
0.0005
0.0005
0.0005
0.0005
0.0005
0.0005
0.0005
0.0005
0.0005
0.0005
0.0005
0.0005
0.0005
0.0005
0.0005
0.0005
0.0005
0.0005
0.0005
0.0005
0.0005
0.0005
0.0005
0.0005
0.0005
0.0005
0.0005
0.0005
0.0005
0.0005
0.0005
0.0005
0.0005
0.0005
0.0005
0.0005
0.0005
0.0005
0.0005
0.0005
0.0005
0.0005
0.0005
0.0005
0.0005
0.0005
0.0005
0.0005

SCALARS mass float 1
LOOKUP_TABLE default
5.23599e-07
5.23599e-07
5.23599e-07
5.23599e-07
5.23599e-07
5.23599e-07
5.23599e-07
5.23599e-07
5.23599e-07
5.23599e-07
5.23599e-07
5.23599e-07
5.23599e-07
5.23599e-07
5.23599e-07
5.23599e-07
5.23599e-07
5.23599e-07
5.23599e-07
5.23599e-07
5.23599e-07
5.23599e-07
5.23599e-07
5.23599e-07
5.23599e-07
5.23599e-07
5.23599e-07
5.23599e-07
5.23599e-07
5.23599e-07
5.23599e-07
5.23599e-07
5.23599e-07
5.23599e-07
5.23599e-07
5.23599e-07
5.23599e-07
5.23599e-07
5.23599e-07
5.23599e-07
5.23599e-07
5.23599e-07
5.23599e-07
5.23599e-07
5.23599e-07
5.23599e-07
5.23599e-07
5.23599e-07
5.23599e-07
5.23599e-07
5.23599e-07
5.23599e-07
5.23599e-07
5.23599e-07
5.23599e-07
5.23599e-07
5.23599e-07
5.23599e-07
5.23599e-07
5.23599e-07
5.23599e-07
5.23599e-07
5.23599e-07
5.23599e-07
5.23599e-07
5.23599e-07
5.23599e-07
5.23599e-07
5.23599e-07
5.23599e-07
5.23599e-07
5.23599e-07
5.23599e-07
5.23599e-07
5.23599e-07
5.23599e-07
5.23599e-07
5.23599e-07
5.23599e-07
5.23599e-07
5.23599e-07
5.23599e-07
5.23599e-07
5.23599e-07
5.23599e-07
5.23599e-07
5.23599e-07
5.23599e-07
5.23599e-07
5.23599e-07
5.23599e-07
5.23599e-07
5.23599e-07
5.23599e-07
5.23599e-07
5.23599e-07
5.23599e-07
5.23599e-07
5.23599e-07
5.23599e-07
5.23599e-07
5.23599e-07
5.23599e-07
5.23599e-07
5.23599e-07
5.23599e-07
5.23599e-07
5.23599e-07
5.23599e-07
5.23599e-07
5.23599e-07
5.23599e-07
5.23599e-07
5.23599e-07
5.23599e-07
5.23599e-07
5.23599e-07
5.23599e-07
5.23599e-07
5.23599e-07
5.23599e-07
5.23599e-07
5.23599e-07
5.23599e-07
5.23599e-07
5.23599e-07
5.23599e-07
5.23599e-07
5.23599e-07
5.23599e-07
5.23599e-07
5.23599e-07
5.23599e-07
5.23599e-07
5.23599e-07
5.23599e-07
5.23599e-07
5.23599e-07
5.23599e-07
5.23599e-07
5.23599e-07
5.23599e-07
5.23599e-07
5.23599e-07
5.23599e-07
5.23599e-07
5.23599e-07
5.23599e-07
5.23599e-07
5.23599e-07
5.23599e-07
5.23599e-07
5.23599e-07
5.23599e-07
5.23599e-07
5.23599e-07
5.23599e-07
5.23599e-07
5.23599e-07
5.23599e-07
5.23599e-07
5.23599e-07
5.23599e-07
5.23599e-07

VECTORS velocity float
0.197168 -0.70167 0.714612
-0.0860188 -0.0557147 0.0840082
9.90031e-05 -0.00665082 0.0534102
-0.174029 -0.0711779 0.0726396
0.00940738 -0.00159557 0.00416734
-1.1852e-14 -1.71676e-14 -2.4377e-13
-0.0144646 -0.0207585 0.0352247
0.0626179 -0.110003 -0.0372354
0.00936212 -0.00269588 -0.00233062
0.000400346 0.0487707 -0.0150786
0.00393835 0.0253426 0.0369146
0.0476981 -0.0214472 -0.00643161
0.0187499 -0.0150277 0.012218
-0.0528614 -0.230153 -0.0109506
0.0840351 0.141639 -0.0557828
8.70798e-20 -7.24606e-21 3.48289e-20
-0.48631 -0.937804 0.730137
-0.00467426 -0.0147214 -0.0950508
-0.0227723 0.0101115 0.0196086
0.000946889 -0.0286162 0.0417585
-0.0263007 0.0344493 0.0556515
0.0029908 0.00236378 0.0386335
0.000300192 -0.0437693 -0.0299296
-0.000747595 0.0116606 -0.0204646
-0.0699286 -0.0180858 0.154607
0.0468675 -0.0126971 -0.0010138
-0.05237 0.0307147 -0.0325337
0.00350048 -0.03724 -0.0223814
-0.038015 -0.0656104 0.00938161
0.0115606 0.0127835 -0.0195667
-0.0186105 0.0098012 -0.00600525
-0.0100154 0.0189073 0.0733116
0.0029016 -0.00660358 -0.040302
0.0273969 -0.00210189 0.0498993
0.0260382 -0.0440854 -0.0180337
-0.0581344 -0.0610947 0.181935
0.0221343 -0.00629898 0.000396798
-0.0791313 -0.0457487 0.0481935
-0.00418346 -0.038379 -0.0165816
0.00370745 -0.000645176 -0.00466834
-0.129716 0.0559612 0.296357
-0.0757964 0.0634671 0.049405
0.0131572 -0.0124229 0.00134989
0.00367731 0.0315334 0.0775659
-2.61382e-14 -6.84126e-15 2.75705e-13
0.0026044 -0.0289364 -0.0311717
0.00546811 0.00140185 -0.00759224
-0.228024 -0.213302 0.0480837
-0.00324085 -0.00136722 -0.0165796
-0.017563 -0.00924858 0.00263296
0.0213326 0.0109718 -0.00961525
0.0171544 0.00887664 0.016361
-0.0329321 0.0112163 -0.0266251
-0.0413679 -0.0418516 0.0036221
0.00262532 -0.0127583 -0.0136677
0.000572086 0.00346425 -0.0507689
0.00191797 -0.0207303 -0.040569
0.000856817 -0.0411686 0.0318182
0.0453398 -0.134602 0.0243013
-0.000457198 0.00761716 -0.00803966
0.58361 -0.0630319 1.85578
0.0105843 -0.0142765 -0.0180376
-0.0165593 -0.0232022 0.0897399
0.00314816 0.000824367 -0.0048405
0.273909 -0.174644 -0.626931
-0.00177415 0.00627053 -0.00412449
-2.23992e-15 5.52428e-16 -1.8185e-14
-0.117627 -0.0448022 -0.016277
0.00117096 0.0797021 -0.00227823
-0.0043943 -0.0025477 -0.0100712
-0.115827 -0.0157849 -0.00796985
-0.000709957 0.0321562 0.0393457
-0.00587576 0.0193338 0.0414295
-0.0571934 0.0213595 0.0927373
-0.0352579 -0.15556 0.0274062
-0.0189902 -0.0833619 0.0525423
-0.000134918 -0.0801593 0.0485731
-0.0307746 -0.0404849 0.0943524
0.00761637 -0.0156111 0.0611786
0.00351034 0.0159488 0.0379472
0.00625525 0.0120843 0.0121379
-0.0190936 -0.00299212 0.0972085
-0.0335377 -0.00828877 -0.0132775
0.0124538 0.0145768 0.0087359
0.0152594 -0.000954599 0.0281921
0.00900292 -0.00714012 0.0548076
-0.050316 0.0209757 0.00226315
-1.34696e-14 -6.77113e-16 -1.01807e-13
0.00564799 0.00371964 -0.00197769
-0.000573996 0.026656 0.0423116
-0.0196068 -0.0365251 0.0541008
0.00647818 0.0056617 -0.00820622
0.00101775 0.0470881 0.00357466
0.0261125 -0.143987 0.216249
0.0388995 0.017667 0.0367113
0.00422299 -0.0379534 0.00134674
0.000257258 -0.0485848 -0.0172872
-0.128942 -0.0476769 0.0470755
-0.0121437 -0.0665423 0.048699
-0.000814243 0.0260004 -0.0459581
-0.0499821 -0.00058759 0.0352913
0.00418012 0.00543037 -0.0063687
0.000390972 -0.0150137 0.0475868
3.72909e-15 2.13204e-14 -8.26915e-14
0.12825 -0.17224 0.177919
0.030158 0.0195941 -0.0270632
0.00043042 -0.0337919 0.0387691
0.00818147 0.0740495 0.0211745
-0.151386 0.0969457 0.206602
0.000987387 0.00388762 -0.000747925
-0.0350258 0.0275292 -0.0607187
-0.000110216 -0.00223921 0.00165355
-0.0602942 -0.00667841 -0.0755809
0.00893932 -0.00308735 -0.00984223
0.0463983 -0.0413609 -0.00596158
-0.0345081 -0.0204733 -0.0190262
-0.00161295 0.0120721 0.0279753
0.00384217 0.000170996 0.000970471
0.00821545 0.075695 -0.0225672
-0.0193086 0.0703411 -0.0637458
0.00885566 0.00749739 -0.00227276
0.0665767 -0.0142823 0.114438
0.0331323 0.00846062 0.0591341
-0.00950895 -0.225139 0.114097
-0.280807 -0.21592 0.203463
-0.0331603 -0.0726604 0.409068
-0.0230224 -0.05067 0.0168398
0.0017814 -0.00278318 0.00583331
-0.00200308 0.00829511 -0.0194818
0.00241496 0.015464 0.0411511
0.0117082 -0.0139604 0.0427945
0.0731376 -0.0517981 0.00165467
-6.79299e-15 -3.79596e-14 -2.6134e-13
-0.00373929 0.00628022 -0.0124577
0.0503407 -0.119852 0.147393
0.00847908 -0.00230152 -0.00425073
0.00149735 -0.0547844 0.0124472
-2.25978e-15 6.44394e-15 -7.01306e-14
-0.314358 -0.200419 0.358939
-0.0462335 0.0339547 -0.0649841
-0.0089731 -0.00308043 -0.00666076
0.00228625 -0.0237194 -0.0323632
-0.0969754 0.0298773 0.0298456
-0.0627799 0.000393888 0.0546806
0.00887363 0.0104634 -0.00854202
0.00207471 0.0170649 0.0415232
-0.0165031 0.00237664 0.0436409
-5.48223e-05 -0.0119916 0.0197494
0.00248621 -0.0440753 -0.00797751
-0.26279 -0.0858301 0.177204
-0.0212342 0.0119376 0.043132
0.00460894 -0.00214743 0.000559234
0.0171599 0.0181402 0.00811476
-0.153978 -0.0175095 0.0183258
-7.39741e-15 -1.3514e-14 8.92961e-14
0.0221861 0.0143351 -0.105551
0.0238194 0.089902 0.0129421
-0.000794085 0.00118241 -0.00476113
-0.0238381 -0.0218486 -0.0128762
0.00114438 0.0611062 -0.0861487
-0.00384206 0.00903788 0.000398254
0.00201793 0.00062307 -0.0217175
0.000866645 0.00378752 -0.0539528
0.00710816 -0.00161714 -0.00270987

VECTORS force float
0.0 0.0 -5.1365e-06
0.0 0.0 -5.1365e-06
-1.34919e-05 -8.11244e-07 1.73508e-05
0.0 0.0 -5.1365e-06
-2.42196e-05 -2.78171e-05 4.93144e-05
2.21642e-18 1.45372e-19 -1.25361e-19
-6.36929e-08 3.12961e-06 -5.20883e-06
0.0 0.0 -5.1365e-06
4.8492e-05 4.53043e-05 0.000176131
-8.69098e-09 3.2336e-08 -2.48607e-07
-4.10842e-05 2.42207e-05 -1.19261e-05
0.0 0.0 -5.1365e-06
9.3035e-05 -0.000314771 0.000473723
0.0 0.0 -5.1365e-06
0.0 0.0 -5.1365e-06
0.0 0.0 0.0
0.0 0.0 -5.1365e-06
0.0 0.0 -5.1365e-06
0.0 0.0 -5.1365e-06
-1.15816e-07 4.66478e-08 2.78566e-07
-0.000352773 -0.000251313 -0.000195453
0.0 0.0 -5.1365e-06
1.78074e-08 -1.24563e-07 2.15028e-07
5.14679e-05 3.1089e-05 -1.41754e-05
0.0 0.0 -5.1365e-06
0.0 0.0 -5.1365e-06
0.0 0.0 -5.1365e-06
7.17487e-07 -8.7174e-06 -3.64777e-06
0.0 0.0 -5.1365e-06
0.0 0.0 -5.1365e-06
0.0 0.0 -5.1365e-06
0.0 0.0 -5.1365e-06
6.23124e-06 4.74423e-06 6.04193e-05
4.75586e-05 -7.59878e-06 8.2189e-05
0.0 0.0 -5.1365e-06
0.0 0.0 -5.1365e-06
0.0 0.0 -5.1365e-06
0.0 0.0 -5.1365e-06
0.0 0.0 -5.1365e-06
-3.77297e-05 -1.65172e-05 -6.07802e-05
0.0 0.0 -5.1365e-06
0.0 0.0 -5.1365e-06
0.0 0.0 -5.1365e-06
-7.16902e-05 0.000218004 0.000173293
-4.24438e-17 -1.41907e-17 -2.74354e-18
-4.54066e-06 -1.03313e-05 -1.3358e-05
0.0 0.0 -5.1365e-06
0.0 0.0 -5.1365e-06
0.0 0.0 -5.1365e-06
0.00014854 7.68146e-05 0.000371996
0.0 0.0 -5.1365e-06
-8.09576e-06 -8.30983e-06 3.4022e-06
0.0 0.0 -5.1365e-06
0.0 0.0 -5.1365e-06
0.0 0.0 -5.1365e-06
2.29517e-09 -1.95944e-07 -1.18659e-07
2.00286e-06 -4.08752e-05 -5.41815e-05
-2.74696e-07 -6.42002e-07 8.4946e-07
0.0 0.0 -5.1365e-06
1.67441e-05 -0.000158551 0.000107229
0.0 0.0 -5.1365e-06
0.0 0.0 -5.1365e-06
-6.00808e-05 4.74078e-05 -8.05609e-05
5.92267e-09 6.91743e-08 -5.06617e-06
0.0 0.0 -5.1365e-06
4.53069e-05 2.13641e-05 1.31153e-06
-9.00078e-19 -2.16306e-18 -7.6233e-21
0.0 0.0 -5.1365e-06
0.0 0.0 -5.1365e-06
0.0 0.0 -5.1365e-06
0.0 0.0 -5.1365e-06
1.94503e-06 -1.09314e-05 1.95772e-07
1.15473e-06 -2.10124e-06 4.28947e-06
0.0 0.0 -5.1365e-06
0.0 0.0 -5.1365e-06
0.0 0.0 -5.1365e-06
6.82962e-06 -2.27801e-05 -1.89068e-05
8.69624e-05 0.000217265 0.000203886
-1.09175e-05 -8.28417e-06 6.77111e-05
-4.85451e-08 1.31895e-07 -4.27595e-06
0.0 0.0 -5.1365e-06
0.000193917 -0.000160909 -0.000222606
0.0 0.0 -5.1365e-06
0.0 0.0 -5.1365e-06
-3.32298e-07 4.81339e-08 -5.43849e-06
-4.66966e-05 -9.33778e-05 0.000190505
0.0 0.0 -5.1365e-06
2.70076e-17 1.27074e-17 -2.29292e-18
7.17857e-07 2.09439e-08 -2.97891e-06
4.85451e-08 -1.31895e-07 -5.99706e-06
0.0 0.0 -5.1365e-06
0.000127124 1.9956e-05 -5.8167e-05
-2.34492e-07 5.95744e-06 -1.40153e-06
0.0 0.0 -5.1365e-06
0.0 0.0 -5.1365e-06
-5.79175e-06 -3.28042e-05 4.04894e-06
-1.19594e-08 -1.73056e-07 1.64028e-07
0.0 0.0 -5.1365e-06
0.0 0.0 -5.1365e-06
-3.87004e-06 2.89272e-06 -8.37597e-06
0.0 0.0 -5.1365e-06
-1.88108e-05 8.0203e-05 -1.50294e-05
-8.32946e-09 1.77841e-07 1.971e-07
1.45531e-19 3.81165e-21 6.77626e-21
0.0 0.0 -5.1365e-06
0.0 0.0 -5.1365e-06
-2.85621e-08 9.68962e-08 2.11587e-07
0.000126852 0.000257915 -0.000140358
0.000508165 0.000428894 -0.00102878
8.40112e-05 -3.38866e-05 -9.59095e-05
-8.59601e-05 2.43045e-05 0.000309455
5.91558e-07 -3.38349e-05 3.00013e-05
0.0 0.0 -5.1365e-06
-4.91524e-05 1.97455e-05 -2.38184e-05
0.0 0.0 -5.1365e-06
0.0 0.0 -5.1365e-06
0.0 0.0 -5.1365e-06
-3.35243e-05 9.39102e-05 1.28698e-06
0.000149339 0.000597727 0.00069483
-0.000508165 -0.000428894 0.00101851
-0.000206947 6.24659e-06 0.000135957
0.0 0.0 -5.1365e-06
0.0 0.0 -5.1365e-06
0.0 0.0 -5.1365e-06
0.0 0.0 -5.1365e-06
0.0 0.0 -5.1365e-06
0.000246068 9.22788e-05 -0.000148838
-1.49571e-06 6.98888e-06 -3.53351e-06
0.0 0.0 -5.1365e-06
8.41715e-07 8.59287e-07 -5.50084e-06
-8.62333e-08 1.18253e-07 -5.14622e-06
-4.71673e-05 9.60455e-05 9.90825e-05
-4.82279e-20 -2.30816e-20 5.0822e-21
1.96038e-05 1.35351e-05 2.41576e-05
0.0 0.0 -5.1365e-06
7.71151e-06 2.52886e-05 -1.25376e-05
-2.83974e-07 3.66641e-07 -4.41632e-07
6.2477e-17 -2.03644e-16 -4.81725e-17
0.0 0.0 -5.1365e-06
0.0 0.0 -5.1365e-06
7.95194e-08 3.41938e-08 -5.18917e-06
-1.93594e-07 -5.05571e-07 -4.18416e-07
0.0 0.0 -5.1365e-06
0.0 0.0 -5.1365e-06
-1.87387e-05 -1.12234e-05 -3.25453e-05
7.92586e-06 2.99792e-06 -6.82995e-06
0.0 0.0 -5.1365e-06
3.72791e-07 1.27956e-07 -3.21896e-07
3.07509e-08 4.06087e-08 5.6769e-07
0.0 0.0 -5.1365e-06
0.0 0.0 -5.1365e-06
-6.58662e-05 2.39046e-05 -4.84452e-05
4.35521e-06 1.544e-07 4.72617e-06
0.0 0.0 -5.1365e-06
0.0 -7.80329e-20 -1.18585e-20
0.0 0.0 -5.1365e-06
0.000428508 0.000777188 6.43139e-05
5.64155e-05 -2.34259e-05 -3.34138e-05
0.0 0.0 -5.1365e-06
0.0 0.0 -5.1365e-06
4.97099e-08 -3.16339e-07 -1.97563e-06
1.25131e-05 3.31251e-05 -5.13661e-05
9.85976e-07 -7.05036e-07 -9.29679e-07
8.07305e-05 1.36979e-05 -0.000118427
