# vtk DataFile Version 3.0
LIGGGHTS particles timestep 3200000
ASCII
DATASET POLYDATA
POINTS 159 float
0.0251977 0.0201601 0.0166947
0.0195665 0.0228926 0.0150219
0.0219317 0.0155106 0.0142641
0.0236319 0.0225422 0.00904136
0.0229024 0.0220367 0.00856583
0.0592595 0.0187057 0.00589343
0.0221305 0.0148899 0.0132157
0.0240575 0.0225993 0.0155392
0.0188433 0.0241446 0.01304
0.0310594 0.0193254 0.0157992
0.0190608 0.0158232 0.0229175
0.0181054 0.0233515 0.0109228
0.0208907 0.0148059 0.0146741
0.0197254 0.0199023 0.0159415
0.0178045 0.0144937 0.0141111
0.0345955 0.0188418 0.00570992
0.0177831 0.0140942 0.013195
0.0182293 0.0239846 0.0145895
0.0244708 0.0217604 0.0151747
0.0274401 0.0162045 0.00826832
0.0266244 0.0147452 0.0114725
0.0212859 0.0145506 0.0128029
0.021122 0.0224345 0.0164191
0.0219522 0.0180898 0.00730841
0.0185789 0.0232961 0.0152234
0.0166951 0.0233981 0.014506
0.0190976 0.0231891 0.0131499
0.0287307 0.0214776 0.00788685
0.0186469 0.0225365 0.0175976
0.0175706 0.0234145 0.0113984
0.0209382 0.0241077 0.0142769
0.0296211 0.0233837 0.0114702
0.0255794 0.0204685 0.01571
0.0171916 0.024039 0.0132001
0.0184578 0.0137303 0.0138434
0.0215834 0.0153107 0.0151913
0.0176554 0.0150667 0.0149168
0.0205845 0.0242083 0.0133534
0.0178699 0.0210318 0.0163878
0.0196705 0.0229033 0.017626
0.0201453 0.0237652 0.0153835
0.0318818 -0.00306204 0.0327331
0.0226447 0.0221866 0.0157342
0.0267383 0.0182025 0.00597096
0.0288984 0.0221848 0.00849571
0.0233358 0.02309 0.00997494
0.0176458 0.0232 0.0147926
0.022049 0.0213123 0.0162771
0.029608 0.019721 0.00584316
0.0191498 0.0243171 0.0139544
0.0252003 0.0188011 0.016035
0.0198343 0.02285 0.0138047
0.00915756 0.0208433 0.0287054
0.0259137 0.0189462 0.0168032
0.0300012 0.0230687 0.0130199
0.0301952 0.0233302 0.0122437
0.0276833 0.0170358 0.00765871
0.016213 0.0148889 0.013144
0.0100052 0.0269218 0.039091
0.0176156 0.0225805 0.015576
0.0177268 0.023654 0.0156796
0.0186927 0.021372 0.0152979
0.0214364 0.0239418 0.0134025
0.0224608 0.0197816 0.00583582
0.0252988 0.0211791 0.0164803
0.0187261 0.02273 0.0140199
0.0201117 0.020116 0.0180018
0.0187384 0.022331 0.0150183
0.0240359 0.0223504 0.0144523
0.0200417 0.0241712 0.0162912
0.0229313 0.0234373 0.014319
0.0142231 0.02236 0.0148222
0.0168454 0.0141956 0.0135273
0.0256558 0.0195452 0.0159181
0.0203036 0.0141427 0.0142104
0.0207355 0.0203839 0.016129
0.0187914 0.0169152 0.0180308
0.0211582 0.0151469 0.0136211
0.0167272 0.0146414 0.0144372
0.021026 0.0146721 0.0298705
0.0257365 0.0176687 0.0167409
0.0205236 0.0231855 0.0146561
0.0289359 0.0178655 0.00589895
0.0196103 0.0216506 0.0156063
0.0247702 0.0209758 0.0156345
0.0225156 0.0145609 0.0142327
0.020373 0.0148762 0.0130523
0.0314158 0.0178502 0.0156356
0.0201839 0.0219531 0.0165897
0.0184956 0.0232185 0.0162164
0.0281422 0.0191899 0.00719142
0.0284981 0.0205552 0.00753178
0.0148979 0.0231477 0.014768
0.0193507 0.0235817 0.0120513
0.0303407 0.0221955 0.0144008
0.0193108 0.023852 0.014828
0.0205705 0.0145423 0.0121047
0.0213854 0.0224954 0.0154415
0.0354862 0.0197731 0.00599028
0.0207925 0.0171711 0.015945
0.0216854 0.0163771 0.0150629
0.0167511 0.0233986 0.0155047
0.0235447 0.0219272 0.0160899
0.0232363 0.0230776 0.0152185
0.0197238 0.0241832 0.0131421
0.0176016 0.016801 0.016581
0.0221579 0.0237209 0.0138945
0.0222575 0.0228849 0.0151112
0.0213878 0.0160289 0.00842561
0.0209033 0.0157977 0.0145431
0.0266422 0.0148472 0.0122131
0.019805 0.0163365 0.0152105
0.0291772 0.0201744 0.00734106
0.0254539 0.0178822 0.0158059
0.0177416 0.0233484 0.012125
0.0199822 0.0237918 0.0140811
0.0222954 0.023847 0.0148354
0.0166309 0.022406 0.0155673
0.0271102 0.0151946 0.00959514
0.0202799 0.0222178 0.0146363
0.0193508 0.0227409 0.0164235
0.0204187 0.0223004 0.0188197
0.0172738 0.0217588 0.0160402
0.0212761 0.020456 0.017034
0.02169 0.0142046 0.0146756
0.0212958 0.0141275 0.0137157
0.0158714 0.022892 0.0150994
0.0454623 0.0165053 0.00632503
0.0180586 0.024246 0.0136417
0.0239964 0.0154031 0.0153272
0.0189248 0.0206397 0.0159388
0.0279709 0.0181822 0.00727773
0.0372285 0.0203986 0.00609172
0.0202769 0.0224379 0.0156502
0.0157191 0.0234894 0.0143123
0.0158561 0.0219745 0.0160331
0.0233157 0.0149248 0.0147444
0.019224 0.0238317 0.0158265
0.0181001 0.0232441 0.0132768
0.0181242 0.023944 0.0125617
0.0188855 0.0213336 0.0166921
0.0211129 0.0234583 0.015459
0.0196865 0.00878771 0.0301533
0.0217768 0.0219691 0.0170148
0.0190734 0.0140449 0.0131538
0.0183887 0.0220779 0.015962
0.0230541 0.0227801 0.00929997
0.0225418 0.015059 0.0153685
0.0236244 0.0234125 0.011461
0.089209 0.0204289 0.00606712
0.0212107 0.0235627 0.0164547
0.0547713 0.0184279 0.005953
0.0215018 0.0233288 0.0145407
0.0172758 0.023019 0.0164121
0.017268 0.0241754 0.0142475
0.0200918 0.0139358 0.0132433
0.0211444 0.0152765 0.00943757
0.0142594 0.0176979 0.0204508
0.0201637 0.0153043 0.0139327

VERTICES 159 318
1 0
1 1
1 2
1 3
1 4
1 5
1 6
1 7
1 8
1 9
1 10
1 11
1 12
1 13
1 14
1 15
1 16
1 17
1 18
1 19
1 20
1 21
1 22
1 23
1 24
1 25
1 26
1 27
1 28
1 29
1 30
1 31
1 32
1 33
1 34
1 35
1 36
1 37
1 38
1 39
1 40
1 41
1 42
1 43
1 44
1 45
1 46
1 47
1 48
1 49
1 50
1 51
1 52
1 53
1 54
1 55
1 56
1 57
1 58
1 59
1 60
1 61
1 62
1 63
1 64
1 65
1 66
1 67
1 68
1 69
1 70
1 71
1 72
1 73
1 74
1 75
1 76
1 77
1 78
1 79
1 80
1 81
1 82
1 83
1 84
1 85
1 86
1 87
1 88
1 89
1 90
1 91
1 92
1 93
1 94
1 95
1 96
1 97
1 98
1 99
1 100
1 101
1 102
1 103
1 104
1 105
1 106
1 107
1 108
1 109
1 110
1 111
1 112
1 113
1 114
1 115
1 116
1 117
1 118
1 119
1 120
1 121
1 122
1 123
1 124
1 125
1 126
1 127
1 128
1 129
1 130
1 131
1 132
1 133
1 134
1 135
1 136
1 137
1 138
1 139
1 140
1 141
1 142
1 143
1 144
1 145
1 146
1 147
1 148
1 149
1 150
1 151
1 152
1 153
1 154
1 155
1 156
1 157
1 158

POINT_DATA 159
SCALARS id int 1
LOOKUP_TABLE default
1
2
3
4
5
6
7
9
10
11
13
14
15
17
19
20
22
23
24
25
27
28
29
30
31
32
34
35
36
37
38
40
41
42
44
45
46
47
49
50
51
52
53
54
55
57
59
60
61
62
63
64
65
66
67
68
69
70
71
73
74
75
78
79
81
82
83
84
85
87
88
90
92
93
95
96
97
98
101
102
103
105
106
107
108
109
110
111
112
113
114
115
116
117
118
119
120
121
122
123
124
125
126
127
128
129
130
131
132
133
134
135
136
137
138
139
140
141
142
143
144
145
146
147
148
149
150
151
152
153
154
155
158
159
160
162
164
165
166
167
168
169
170
171
172
173
174
176
177
178
180
182
183
184
185
186
187
188
189

SCALARS type int 1
LOOKUP_TABLE default
1
1
1
1
1
1
1
1
1
1
1
1
1
1
1
1
1
1
1
1
1
1
1
1
1
1
1
1
1
1
1
1
1
1
1
1
1
1
1
1
1
1
1
1
1
1
1
1
1
1
1
1
1
1
1
1
1
1
1
1
1
1
1
1
1
1
1
1
1
1
1
1
1
1
1
1
1
1
1
1
1
1
1
1
1
1
1
1
1
1
1
1
1
1
1
1
1
1
1
1
1
1
1
1
1
1
1
1
1
1
1
1
1
1
1
1
1
1
1
1
1
1
1
1
1
1
1
1
1
1
1
1
1
1
1
1
1
1
1
1
1
1
1
1
1
1
1
1
1
1
1
1
1
1
1
1
1
1
1

SCALARS radius float 1
LOOKUP_TABLE default
0.0005
0.0005
0.0005
0.0005
0.0005
0.0005
0.0005
0.0005
0.0005
0.0005
0.0005
0.0005
0.0005
0.0005
0.0005
0.0005
0.0005
0.0005
0.0005
0.0005
0.0005
0.0005
0.0005
0.0005
0.0005
0.0005
0.0005
0.0005
0.0005
0.0005
0.0005
0.0005
0.0005
0.0005
0.0005
0.0005
0.0005
0.0005
0.0005
0.0005
0.0005
0.0005
0.0005
0.0005
0.0005
0.0005
0.0005
0.0005
0.0005
0.0005
0.0005
0.0005
0.0005
0.0005
0.0005
0.0005
0.0005
0.0005
0.0005
0.0005
0.0005
0.0005
0.0005
0.0005
0.0005
0.0005
0.0005
0.0005
0.0005
0.0005
0.0005
0.0005
0.0005
0.0005
0.0005
0.0005
0.0005
0.0005
0.0005
0.0005
0.0005
0.0005
0.0005
0.0005
0.0005
0.0005
0.0005
0.0005
0.0005
0.0005
0.0005
0.0005
0.0005
0.0005
0.0005
0.0005
0.0005
0.0005
0.0005
0.0005
0.0005
0.0005
0.0005
0.0005
0.0005
0.0005
0.0005
0.0005
0.0005
0.0005
0.0005
0.0005
0.0005
0.0005
0.0005
0.0005
0.0005
0.0005
0.0005
0.0005
0.0005
0.0005
0.0005
0.0005
0.0005
0.0005
0.0005
0.0005
0.0005
0.0005
0.0005
0.0005
0.0005
0.0005
0.0005
0.0005
0.0005
0.0005
0.0005
0.0005
0.0005
0.0005
0.0005
0.0005
0.0005
0.0005
0.0005
0.0005
0.0005
0.0005
0.0005
0.0005
0.0005
0.0005
0.0005
0.0005
0.0005
0.0005
0.0005

SCALARS mass float 1
LOOKUP_TABLE default
5.23599e-07
5.23599e-07
5.23599e-07
5.23599e-07
5.23599e-07
5.23599e-07
5.23599e-07
5.23599e-07
5.23599e-07
5.23599e-07
5.23599e-07
5.23599e-07
5.23599e-07
5.23599e-07
5.23599e-07
5.23599e-07
5.23599e-07
5.23599e-07
5.23599e-07
5.23599e-07
5.23599e-07
5.23599e-07
5.23599e-07
5.23599e-07
5.23599e-07
5.23599e-07
5.23599e-07
5.23599e-07
5.23599e-07
5.23599e-07
5.23599e-07
5.23599e-07
5.23599e-07
5.23599e-07
5.23599e-07
5.23599e-07
5.23599e-07
5.23599e-07
5.23599e-07
5.23599e-07
5.23599e-07
5.23599e-07
5.23599e-07
5.23599e-07
5.23599e-07
5.23599e-07
5.23599e-07
5.23599e-07
5.23599e-07
5.23599e-07
5.23599e-07
5.23599e-07
5.23599e-07
5.23599e-07
5.23599e-07
5.23599e-07
5.23599e-07
5.23599e-07
5.23599e-07
5.23599e-07
5.23599e-07
5.23599e-07
5.23599e-07
5.23599e-07
5.23599e-07
5.23599e-07
5.23599e-07
5.23599e-07
5.23599e-07
5.23599e-07
5.23599e-07
5.23599e-07
5.23599e-07
5.23599e-07
5.23599e-07
5.23599e-07
5.23599e-07
5.23599e-07
5.23599e-07
5.23599e-07
5.23599e-07
5.23599e-07
5.23599e-07
5.23599e-07
5.23599e-07
5.23599e-07
5.23599e-07
5.23599e-07
5.23599e-07
5.23599e-07
5.23599e-07
5.23599e-07
5.23599e-07
5.23599e-07
5.23599e-07
5.23599e-07
5.23599e-07
5.23599e-07
5.23599e-07
5.23599e-07
5.23599e-07
5.23599e-07
5.23599e-07
5.23599e-07
5.23599e-07
5.23599e-07
5.23599e-07
5.23599e-07
5.23599e-07
5.23599e-07
5.23599e-07
5.23599e-07
5.23599e-07
5.23599e-07
5.23599e-07
5.23599e-07
5.23599e-07
5.23599e-07
5.23599e-07
5.23599e-07
5.23599e-07
5.23599e-07
5.23599e-07
5.23599e-07
5.23599e-07
5.23599e-07
5.23599e-07
5.23599e-07
5.23599e-07
5.23599e-07
5.23599e-07
5.23599e-07
5.23599e-07
5.23599e-07
5.23599e-07
5.23599e-07
5.23599e-07
5.23599e-07
5.23599e-07
5.23599e-07
5.23599e-07
5.23599e-07
5.23599e-07
5.23599e-07
5.23599e-07
5.23599e-07
5.23599e-07
5.23599e-07
5.23599e-07
5.23599e-07
5.23599e-07
5.23599e-07
5.23599e-07
5.23599e-07
5.23599e-07
5.23599e-07
5.23599e-07
5.23599e-07
5.23599e-07

VECTORS velocity float
-0.0209347 -0.00702231 -0.0361149
0.0469651 -0.129782 0.0415447
0.0081772 -0.0206529 0.0255584
0.00612486 -0.00426123 -0.015377
0.0079239 0.00991287 -0.00590868
6.9861e-15 -1.49666e-14 -1.82203e-13
0.00676875 -0.00259376 0.00577888
0.00280208 0.0142553 0.0182014
-0.017037 0.0710257 0.120135
0.00882871 0.0269073 -0.00690131
-0.132488 0.197958 0.0971182
0.0400994 -0.0609879 -0.280138
0.00744857 0.0113823 -0.00786108
0.0357852 0.00826071 -0.0673036
0.00125767 -0.000895588 0.00222547
8.70798e-20 -7.24606e-21 3.48289e-20
0.00121537 -0.000918692 0.00206606
-0.0720411 -0.0578032 0.0966587
0.00360289 0.00435113 -0.0022294
0.000405872 -0.0393134 0.0335633
0.00338851 -0.00177992 0.021967
0.0129378 0.0107689 0.00576903
-0.02605 -0.00331821 0.0360618
0.000266194 -0.0509356 0.0103288
-0.0251175 -0.0500499 0.0839291
-0.0728626 -0.0498156 0.0470228
0.0417245 0.0226529 -0.0316118
0.00432958 -0.0202817 -0.0152805
-0.0441726 0.0295704 0.0235618
0.137146 2.18419 -0.897924
0.00320816 -0.00341129 0.0033424
0.000715538 0.00114034 -0.051679
0.0014049 0.00176673 -0.000853089
-0.0173234 -0.00806964 0.00334655
-0.0207327 0.0109042 0.0308426
0.00597334 0.0309328 -0.0216731
-0.000369555 -0.00105325 0.0019513
-0.00147299 0.0102261 0.00840438
0.0323591 -0.0741536 0.0370608
-0.0506698 0.0522479 -0.0454887
0.0885111 -0.0299018 0.123666
0.0327901 -0.143604 -0.459797
-0.0130471 -0.0139009 0.00300536
-1.69483e-14 -2.73164e-15 2.76309e-13
0.00119283 -0.0243023 -0.0224688
0.00868484 -0.00781151 -0.0273147
-0.0630134 -0.0750662 0.0747573
0.0186688 0.0255963 0.00681551
-8.71372e-15 9.48522e-17 -1.02212e-13
-0.0492517 -0.0727551 0.147744
0.00726135 0.0110393 0.00130894
0.0145021 0.000650553 0.00219171
0.183556 -0.0750364 0.0988433
-0.0252413 -0.00210745 0.0119963
6.64567e-05 0.0223161 -0.0477154
0.000779801 0.00694299 -0.0493251
0.00324069 -0.036285 0.0185123
3.23289e-05 -0.000510532 -0.0176876
-0.0429732 0.183139 -0.454666
-0.0209314 -0.079911 0.0797913
-0.00669054 -0.00265294 0.0279465
0.0164872 -0.061094 0.0304791
-0.00329366 -0.00561635 -0.0102942
-1.97597e-15 5.9288e-16 -1.82118e-14
0.0230699 0.0073283 -0.0119597
-0.0053625 0.0171615 -0.0281028
-0.0134922 -0.0649511 0.120581
0.0123777 -0.0472817 0.0607711
-0.00141289 -0.00216872 -0.00423566
0.0570032 -0.00221968 0.0790954
-0.000149618 -0.00276774 0.00200071
-0.0314946 -0.0158464 -0.0961507
0.000831935 -0.000110093 0.000225263
0.00270479 0.00548464 -0.00187107
0.0129512 -0.00609598 -0.000644988
0.00383437 -0.118956 0.000371909
-0.0833557 -0.0600361 -0.0369196
0.0176661 -0.0172047 0.0133529
-0.00574296 -0.00847741 -0.0102277
-0.0933588 -0.204937 0.254643
0.00284336 0.00468186 0.00294495
0.0167404 -0.0561919 0.0714134
-8.71365e-15 6.54181e-17 -1.02212e-13
0.0291602 -0.0152394 -0.0247852
0.00836898 0.00874891 -0.000591047
-0.00307226 0.00596615 -0.00690345
0.00751764 0.000558736 -0.00726351
0.000706958 0.0486849 0.0141079
0.00499385 -0.0206234 -0.045166
-0.0136075 -0.0300959 0.0905963
0.00529318 -0.0335446 -0.000379214
0.000419486 -0.0456417 -0.0171103
-0.0762799 -0.0337272 0.0349677
0.000185374 -0.0505173 0.0291052
0.00204101 0.0299991 -0.0354416
0.0228205 -0.0822979 0.142282
0.0023857 0.0109868 -0.00656923
-0.0176266 -0.000950493 0.00304073
3.75798e-15 2.1326e-14 -8.26887e-14
0.168927 0.00850942 -0.0396699
0.000233274 0.021261 0.0239935
-0.0150156 -0.0356987 0.0511091
0.0303167 0.00443926 0.00382489
-0.0159922 -0.0247596 0.0192042
-0.0194662 0.121406 0.0976652
-0.00142327 -0.0184293 0.133548
-0.00173619 -0.00293804 -0.000588012
0.00333262 -0.0106038 0.00386729
-0.0268597 -0.0838595 0.057043
0.00687343 0.00993561 0.00435676
0.000795225 -0.00429774 0.00460328
0.0147531 -0.00581838 -0.0237068
0.00142676 -0.0296537 -0.00870265
0.00779043 0.0128872 0.00359984
0.160652 -0.165264 -0.0526286
0.00235805 -0.0218881 0.104866
-0.000496689 -0.00155421 0.00256497
-0.0322978 -0.0396539 0.0465403
0.000441048 -0.0220667 0.0456501
0.0216227 -0.0673615 0.0889369
0.0152431 -0.0209298 0.00320722
0.0270437 0.135974 0.106204
-0.020609 -0.0869562 0.0697984
0.0687821 -0.08253 0.00135535
-0.00219865 -0.00679597 -0.0279335
-0.00983685 0.0123922 -0.0142715
-0.019578 -0.0301955 0.0263655
-6.93388e-15 -3.80502e-14 -2.61323e-13
-0.0547635 -0.0529585 0.0929225
0.00570421 -0.0115726 -0.0331578
0.0288336 -0.0667952 0.0322134
0.000392243 -0.0495526 0.0103164
-4.82903e-15 1.4672e-14 -6.81814e-14
-0.0236984 -0.0123522 -0.0535199
-0.0713705 -0.0316709 0.0370342
-0.0853402 -0.0155901 0.0209388
0.00832333 -0.003303 0.00228241
0.0290569 -0.0576084 0.169857
0.0226845 -0.0158452 -0.00151559
-0.0741456 -0.0348599 0.053143
-0.0212977 -0.0195193 -0.0173195
-0.029054 0.00596441 0.0184267
-0.165645 -0.050239 0.276248
0.0569073 0.0260393 -0.0710463
0.00163119 0.0222625 0.0629556
0.0352048 -0.0348365 0.0318396
0.00466799 -0.0183087 -0.0262522
-0.00107826 -0.0088249 -0.00291032
0.00200931 0.00326005 -0.0519742
-7.39741e-15 -1.35394e-14 8.92922e-14
0.0173232 0.0165604 0.0352079
5.29766e-15 7.4219e-15 1.04261e-13
0.00181291 -0.0107271 0.0197403
-0.057809 0.0174148 0.0284247
-0.0866912 -0.0363858 0.056134
0.00172192 0.00400633 0.00107927
0.000740351 -0.0157936 0.0278032
-0.188369 -0.0315149 -0.178953
0.0143967 -0.0112975 -0.00429259

VECTORS force float
0.0 0.0 -5.1365e-06
0.0 0.0 -5.1365e-06
0.0 0.0 -5.1365e-06
-6.96927e-06 4.94059e-05 3.93631e-05
-1.86329e-05 -5.1543e-05 -3.83645e-06
5.0499e-19 6.41575e-19 -3.30343e-20
2.56394e-05 1.81223e-05 3.43276e-05
-2.34161e-05 -3.64811e-05 -3.61308e-06
-0.000228729 0.00256725 -0.00203142
3.64306e-05 -3.83861e-05 -4.00896e-05
0.0 0.0 -5.1365e-06
0.00968417 0.0609406 -0.0496702
2.16743e-06 5.20487e-06 -2.61936e-06
0.0 0.0 -5.1365e-06
-1.75061e-06 -4.50356e-07 1.29031e-06
0.0 0.0 0.0
1.42265e-06 -2.37893e-07 4.91886e-07
-7.96352e-06 -4.33334e-05 3.77197e-05
3.60494e-06 -1.22285e-05 -3.24957e-06
-6.18382e-09 5.1652e-08 2.30468e-07
1.21682e-05 -7.05979e-06 4.80492e-06
-3.38332e-05 -1.16344e-05 -4.50691e-05
0.0 0.0 -5.1365e-06
-5.83111e-09 -3.24968e-08 2.35061e-07
-1.5814e-05 -2.225e-05 2.51963e-05
3.89148e-05 1.94825e-05 -6.29594e-06
0.000257884 2.8502e-06 7.55438e-05
-3.70569e-06 -3.59932e-05 -1.58694e-05
0.0 0.0 -5.1365e-06
-0.00366212 0.0481559 0.0469722
8.58806e-05 -0.000105705 -7.80666e-06
-1.55878e-08 -2.05236e-07 -1.15078e-07
-2.84414e-07 -8.96618e-06 4.04047e-07
3.00607e-05 -1.61026e-05 8.9525e-05
-2.41005e-05 -1.58788e-05 -3.305e-05
0.0 0.0 -5.1365e-06
-3.50985e-07 2.68538e-06 1.81608e-06
0.000117845 8.73131e-05 0.000128696
0.0 0.0 -5.1365e-06
0.0 0.0 -5.1365e-06
-2.34341e-05 -2.07972e-05 -4.62314e-05
0.0 0.0 -5.1365e-06
0.0 0.0 -5.1365e-06
-1.05879e-22 1.91906e-22 0.0
-3.24084e-06 8.57917e-07 -3.80189e-06
2.83064e-05 7.45397e-05 0.000120299
-3.30022e-05 -5.23042e-05 2.92223e-05
0.0 0.0 -5.1365e-06
-5.29396e-23 1.12731e-19 0.0
0.000118282 -0.000140699 0.000401227
1.64091e-07 1.58583e-06 -3.21396e-06
-0.00034544 0.000155433 -5.03005e-05
0.0 0.0 -5.1365e-06
0.0 0.0 -5.1365e-06
-2.92525e-08 -1.86653e-07 -1.79603e-07
-5.44861e-08 -1.87012e-07 -1.67254e-07
-1.5584e-07 -1.31769e-06 1.17312e-06
0.0 0.0 -5.1365e-06
0.0 0.0 -5.1365e-06
-9.22375e-06 -3.07979e-05 2.26379e-05
-6.35859e-06 -3.33141e-07 2.14346e-05
1.24154e-06 1.80729e-06 -7.41512e-06
3.42852e-05 1.23204e-05 -7.45119e-05
1.05879e-20 2.13643e-18 1.04185e-19
0.0 0.0 -5.1365e-06
2.29562e-06 1.43859e-05 -1.78925e-06
0.0 0.0 -5.1365e-06
6.23822e-06 -2.04089e-05 3.96149e-06
-9.46361e-08 9.2105e-07 3.3372e-07
-3.16913e-06 -1.25487e-05 3.58859e-05
-3.7568e-05 1.44504e-05 2.2608e-05
0.0 0.0 -5.1365e-06
5.93286e-09 1.87139e-06 -3.33502e-06
-2.17479e-06 -1.377e-06 4.27037e-06
-2.16743e-06 -5.20487e-06 -7.65365e-06
0.0 0.0 -5.1365e-06
0.0 0.0 -5.1365e-06
-3.42905e-05 -0.00020126 0.000264519
0.0 0.0 -5.1365e-06
0.0 0.0 -5.1365e-06
1.36788e-07 -1.46953e-07 7.23913e-08
-0.000170681 8.21449e-07 -0.00015103
-3.17637e-22 -9.4014e-20 0.0
0.0 0.0 -5.1365e-06
1.47531e-06 -8.09415e-06 -2.85337e-05
0.0 0.0 -5.1365e-06
-7.65688e-08 6.21209e-07 -5.00143e-06
-2.53847e-08 1.58739e-07 -1.76227e-07
0.0 0.0 -5.1365e-06
-2.17504e-06 -1.3552e-05 1.63195e-05
-9.17869e-06 2.92826e-05 -1.79294e-05
2.716e-08 9.7757e-08 2.24036e-07
-2.35295e-05 -5.71431e-06 1.32906e-05
0.0 0.0 -5.1365e-06
-1.76516e-07 6.27532e-08 -2.90715e-07
-2.97111e-07 -7.84046e-06 -1.66515e-05
2.52706e-06 -5.11009e-06 2.79319e-05
0.0 0.0 -5.1365e-06
-2.67345e-21 4.57398e-20 1.27055e-20
0.0 0.0 -5.1365e-06
0.0 0.0 -5.1365e-06
0.0 0.0 -5.1365e-06
0.0 0.0 -5.1365e-06
0.0 0.0 -5.1365e-06
0.000282808 -0.00026847 0.000623343
0.0 0.0 -5.1365e-06
-1.27957e-05 4.3614e-05 -4.83231e-05
0.0 0.0 -5.1365e-06
1.78731e-05 0.000912609 0.000295372
0.0 0.0 -5.1365e-06
-4.1779e-05 -8.59345e-06 -4.92146e-05
0.0 0.0 -5.1365e-06
-5.69066e-08 -2.53841e-08 3.35479e-07
1.15513e-06 2.53044e-06 3.56192e-07
0.0242814 0.0576925 -0.0230644
3.38583e-05 0.000196775 0.000120367
-3.88828e-05 5.75814e-05 -3.13709e-05
0.0 0.0 -5.1365e-06
-1.07092e-08 1.35111e-07 2.18716e-07
1.45934e-05 3.64636e-05 -1.19594e-05
0.0 0.0 -5.1365e-06
0.0 0.0 -5.1365e-06
0.0 0.0 -5.1365e-06
0.0 0.0 -5.1365e-06
0.0 0.0 -5.1365e-06
0.0 0.0 -5.1365e-06
-4.18057e-06 -5.42259e-06 2.40663e-06
-9.8367e-19 -4.00117e-19 8.38563e-20
3.76025e-05 -7.63425e-05 0.000254223
0.0 0.0 -5.1365e-06
0.0 0.0 -5.1365e-06
9.02578e-08 -6.21347e-07 2.94871e-07
8.3671e-19 -1.51407e-19 -8.63974e-20
0.0 0.0 -5.1365e-06
3.9032e-05 2.65003e-05 -2.92257e-06
0.0 0.0 -5.1365e-06
0.0 0.0 -5.1365e-06
-2.12546e-06 -3.60915e-06 -8.80814e-06
0.0 0.0 -5.1365e-06
-0.00157555 -0.0103539 0.0124254
0.0 0.0 -5.1365e-06
0.0 0.0 -5.1365e-06
0.0 0.0 -5.1365e-06
0.0 0.0 -5.1365e-06
-4.61162e-05 4.39925e-05 3.36876e-05
4.70197e-06 -1.15112e-05 4.13273e-06
6.72307e-05 7.13728e-05 6.06075e-05
0.0 0.0 -5.1365e-06
1.70831e-08 -2.21931e-07 -1.26194e-07
0.0 -1.12232e-20 -1.69407e-21
0.0 0.0 -5.1365e-06
-1.83436e-19 4.83338e-20 6.77626e-21
-9.29735e-05 -4.0915e-05 2.37699e-05
0.0 0.0 -5.1365e-06
-6.73983e-05 2.14897e-05 -5.15717e-06
1.72069e-06 -2.09517e-06 -5.67895e-06
-2.28728e-05 -6.07802e-05 0.000126718
0.0 0.0 -5.1365e-06
0.0 0.0 -5.1365e-06
