# vtk DataFile Version 3.0
LIGGGHTS particles timestep 2400000
ASCII
DATASET POLYDATA
POINTS 170 float
0.0225814 0.0186595 0.0159975
0.0195533 0.0212642 0.0162915
0.0197748 0.0215908 0.00797498
0.019754 0.0221076 0.0157937
0.0151133 0.0214339 0.0156752
0.0546579 0.01997 0.0058506
0.020471 0.0144766 0.0141133
0.0242215 0.0223979 0.0155537
0.0147229 0.0226547 0.0141269
0.0293021 0.0148944 0.0104558
0.0245157 0.0189611 0.00722035
0.0145154 0.0230756 0.0150817
0.0233793 0.0196559 0.0159178
0.0212804 0.022351 0.0155891
0.021073 0.0213808 0.0152861
0.0218569 0.021806 0.0149796
0.0345955 0.0188418 0.00570992
0.0210918 0.0236551 0.0144294
0.0163028 0.0230716 0.0149814
0.0226652 0.0150746 0.0134888
0.0255782 0.0228152 0.00934993
0.0215408 0.023311 0.0157073
0.0244233 0.0176823 0.00743537
0.0197308 0.0148532 0.014671
0.0206171 0.0227075 0.0139642
0.0204471 0.0235127 0.0135431
0.0226619 0.0232985 0.0155264
0.01822 0.0236807 0.0169908
0.020642 0.0228987 0.0162665
0.0167968 0.022151 0.0156209
0.0271072 0.0210935 0.0152953
0.0170777 0.0192708 0.0172971
0.0139587 0.0224169 0.0155874
0.0173206 0.023521 0.0142995
0.0207339 0.0176292 0.0182928
0.0277884 0.0179947 0.0156796
0.0201564 0.0140344 0.0130481
0.0150394 0.0224696 0.0157173
0.0179664 0.0212619 0.0163851
0.0133183 0.0207455 0.0248011
0.0194287 0.0229213 0.0150978
0.01823 0.0237581 0.0138212
0.01627 0.0232393 0.0129825
0.0208504 0.0221259 0.0146983
0.017845 0.0236078 0.0155187
0.0214724 0.0208994 0.0164693
0.0224854 0.0200987 0.0158163
0.0277923 0.0190123 0.00600783
0.0272692 0.0203123 0.0156295
0.015907 0.0176822 0.0157279
0.0238703 0.0217211 0.0162637
0.0182025 0.0232259 0.0146669
0.0231217 0.0208311 0.0155697
0.0167643 0.0238921 0.0135562
0.0228642 0.0146786 0.0143849
0.0195893 0.0230406 0.0161121
0.0258886 0.0191585 0.016779
0.0257776 0.0201464 0.0166702
0.0281073 0.016664 0.0150101
0.0275724 0.0188668 0.0158548
0.0257743 0.0232052 0.0102601
0.0228621 0.0197936 0.0169204
0.0204696 0.0231419 0.0100715
0.0232502 0.0223035 0.0157382
0.0254174 0.0210378 0.0163913
0.0223225 0.0159968 0.0148014
0.0174644 0.0140711 0.0134639
0.0222352 0.0232791 0.0164307
0.0213715 0.0201388 0.0158086
0.0198887 0.0242747 0.0132419
0.0224608 0.0197816 0.00583582
0.0232447 0.0157532 0.0145011
0.0193442 0.0206556 0.0170827
0.018439 0.014372 0.0135417
0.0186522 0.0224402 0.0155033
0.0172758 0.0151679 0.0136759
0.0186069 0.0190671 0.00715993
0.0197261 0.0240245 0.0160025
0.0203981 0.0227847 0.0152984
0.0236618 0.0207646 0.0164713
0.0239455 0.0162776 0.0149844
0.0229033 0.0177452 0.0157522
0.0246859 0.0203832 0.0165807
0.0219617 0.0149604 0.0150899
0.0168539 0.0147291 0.01265
0.0235226 0.0152709 0.00937525
0.0222855 0.0224325 0.015541
0.0178146 0.0148257 0.0129071
0.021882 0.0143438 0.0139831
0.0191615 0.0140096 0.0129541
0.0184524 0.0231563 0.0161718
0.028314 0.0181592 0.00595172
0.018852 0.014417 0.0144776
0.0181046 0.01503 0.0142205
0.023333 0.0149087 0.0103577
0.0165228 0.0228206 0.0138543
0.0296309 0.0154916 0.00907078
0.020576 0.0216493 0.0161463
0.0191141 0.0234897 0.0143385
0.0264464 0.0229925 0.0131971
0.0268429 0.0218873 0.0146321
0.0179471 0.0215601 0.0185722
0.0165567 0.0237843 0.0167519
0.0285051 0.015455 0.0138028
0.0188808 0.0236887 0.0154394
0.016716 0.0222156 0.0146262
0.0193345 0.0221765 0.00857645
0.0354862 0.0197731 0.00599028
0.0248389 0.0217625 0.0160165
0.0198302 0.0144687 0.0159798
0.0197969 0.0232344 0.0105499
0.0216306 0.018966 0.0159498
0.0235522 0.0230872 0.0152003
0.0186979 0.024103 0.012946
0.0225905 0.0225328 0.0142643
0.0216946 0.0238711 0.0134724
0.0199388 0.0240567 0.014217
0.0166692 0.0211663 0.0154532
0.0174716 0.0239466 0.0163821
0.0242214 0.0155086 0.0155606
0.0194785 0.0164178 0.0160711
0.0268879 0.0233813 0.01149
0.0216214 0.0224866 0.0143135
0.0219347 0.0209184 0.0155309
0.0157544 0.0224285 0.0143877
0.0228976 0.0234469 0.0143666
0.0189637 0.0209975 0.0076746
0.0249029 0.0194049 0.0167258
0.0221056 0.024047 0.014389
0.0219633 0.0174229 0.0156401
0.0236584 0.0183875 0.015891
0.01573 0.0145209 0.0142403
0.0195756 0.0141123 0.0138582
0.0185797 0.0146223 0.0119373
0.021086 0.0141423 0.0133995
0.0162359 0.0164311 0.0151091
0.0454623 0.0165053 0.00632503
0.0161619 0.0238383 0.0143522
0.0238791 0.0162859 0.00817367
0.0155154 0.0229776 0.0135874
0.0260081 0.0233843 0.0114824
0.0372332 0.0210539 0.00644602
0.0224248 0.0215161 0.0161656
0.0157765 0.0203254 0.0162089
0.0179521 0.0140053 0.0143343
0.0213287 0.0231017 0.0136261
0.0211428 0.0219753 0.0170601
0.0177744 0.0220795 0.0158384
0.015327 0.0233271 0.0145546
0.0187736 0.0199899 0.00728605
0.0190286 0.0243587 0.013853
0.0205006 0.0225973 0.00908183
0.0208742 0.0234746 0.0119302
0.0219883 0.0232028 0.0148181
0.0175594 0.0146235 0.0119348
0.0159221 0.0217061 0.0150615
0.0228292 0.0224967 0.0166252
0.0235445 0.0149725 0.0150562
0.0206168 0.023693 0.0156524
0.089209 0.0204289 0.00606712
0.0164938 0.0155186 0.0142
0.0218511 0.0223419 0.0164387
0.022839 0.0216641 0.0150906
0.0208165 0.0243326 0.0137425
0.0245598 0.0213304 0.0168735
0.0149635 0.0219953 0.0148397
0.0165254 0.0143626 0.0136459
0.0207779 0.023937 0.0127986
0.0223331 0.0231708 0.0131638
0.0176278 0.0240412 0.0130753

VERTICES 170 340
1 0
1 1
1 2
1 3
1 4
1 5
1 6
1 7
1 8
1 9
1 10
1 11
1 12
1 13
1 14
1 15
1 16
1 17
1 18
1 19
1 20
1 21
1 22
1 23
1 24
1 25
1 26
1 27
1 28
1 29
1 30
1 31
1 32
1 33
1 34
1 35
1 36
1 37
1 38
1 39
1 40
1 41
1 42
1 43
1 44
1 45
1 46
1 47
1 48
1 49
1 50
1 51
1 52
1 53
1 54
1 55
1 56
1 57
1 58
1 59
1 60
1 61
1 62
1 63
1 64
1 65
1 66
1 67
1 68
1 69
1 70
1 71
1 72
1 73
1 74
1 75
1 76
1 77
1 78
1 79
1 80
1 81
1 82
1 83
1 84
1 85
1 86
1 87
1 88
1 89
1 90
1 91
1 92
1 93
1 94
1 95
1 96
1 97
1 98
1 99
1 100
1 101
1 102
1 103
1 104
1 105
1 106
1 107
1 108
1 109
1 110
1 111
1 112
1 113
1 114
1 115
1 116
1 117
1 118
1 119
1 120
1 121
1 122
1 123
1 124
1 125
1 126
1 127
1 128
1 129
1 130
1 131
1 132
1 133
1 134
1 135
1 136
1 137
1 138
1 139
1 140
1 141
1 142
1 143
1 144
1 145
1 146
1 147
1 148
1 149
1 150
1 151
1 152
1 153
1 154
1 155
1 156
1 157
1 158
1 159
1 160
1 161
1 162
1 163
1 164
1 165
1 166
1 167
1 168
1 169

POINT_DATA 170
SCALARS id int 1
LOOKUP_TABLE default
1
2
3
4
5
6
7
9
10
11
13
14
15
16
17
19
20
22
23
24
25
26
27
28
29
30
31
32
33
34
35
36
37
38
39
40
41
42
44
45
46
47
49
50
51
52
53
54
55
57
59
60
61
62
63
64
65
66
67
68
69
70
71
72
73
74
75
76
77
78
79
81
82
83
84
85
86
87
88
90
92
93
95
96
97
98
100
101
102
103
105
106
107
108
109
110
111
112
113
114
115
116
117
118
119
120
121
122
123
124
125
126
127
128
129
130
131
132
133
134
135
136
137
138
139
140
141
142
143
144
145
146
147
148
149
150
151
152
153
154
155
158
159
160
162
164
165
166
167
168
169
170
171
172
173
174
175
176
177
178
180
181
182
183
184
185
186
187
188
189

SCALARS type int 1
LOOKUP_TABLE default
1
1
1
1
1
1
1
1
1
1
1
1
1
1
1
1
1
1
1
1
1
1
1
1
1
1
1
1
1
1
1
1
1
1
1
1
1
1
1
1
1
1
1
1
1
1
1
1
1
1
1
1
1
1
1
1
1
1
1
1
1
1
1
1
1
1
1
1
1
1
1
1
1
1
1
1
1
1
1
1
1
1
1
1
1
1
1
1
1
1
1
1
1
1
1
1
1
1
1
1
1
1
1
1
1
1
1
1
1
1
1
1
1
1
1
1
1
1
1
1
1
1
1
1
1
1
1
1
1
1
1
1
1
1
1
1
1
1
1
1
1
1
1
1
1
1
1
1
1
1
1
1
1
1
1
1
1
1
1
1
1
1
1
1
1
1
1
1
1
1

SCALARS radius float 1
LOOKUP_TABLE default
0.0005
0.0005
0.0005
0.0005
0.0005
0.0005
0.0005
0.0005
0.0005
0.0005
0.0005
0.0005
0.0005
0.0005
0.0005
0.0005
0.0005
0.0005
0.0005
0.0005
0.0005
0.0005
0.0005
0.0005
0.0005
0.0005
0.0005
0.0005
0.0005
0.0005
0.0005
0.0005
0.0005
0.0005
0.0005
0.0005
0.0005
0.0005
0.0005
0.0005
0.0005
0.0005
0.0005
0.0005
0.0005
0.0005
0.0005
0.0005
0.0005
0.0005
0.0005
0.0005
0.0005
0.0005
0.0005
0.0005
0.0005
0.0005
0.0005
0.0005
0.0005
0.0005
0.0005
0.0005
0.0005
0.0005
0.0005
0.0005
0.0005
0.0005
0.0005
0.0005
0.0005
0.0005
0.0005
0.0005
0.0005
0.0005
0.0005
0.0005
0.0005
0.0005
0.0005
0.0005
0.0005
0.0005
0.0005
0.0005
0.0005
0.0005
0.0005
0.0005
0.0005
0.0005
0.0005
0.0005
0.0005
0.0005
0.0005
0.0005
0.0005
0.0005
0.0005
0.0005
0.0005
0.0005
0.0005
0.0005
0.0005
0.0005
0.0005
0.0005
0.0005
0.0005
0.0005
0.0005
0.0005
0.0005
0.0005
0.0005
0.0005
0.0005
0.0005
0.0005
0.0005
0.0005
0.0005
0.0005
0.0005
0.0005
0.0005
0.0005
0.0005
0.0005
0.0005
0.0005
0.0005
0.0005
0.0005
0.0005
0.0005
0.0005
0.0005
0.0005
0.0005
0.0005
0.0005
0.0005
0.0005
0.0005
0.0005
0.0005
0.0005
0.0005
0.0005
0.0005
0.0005
0.0005
0.0005
0.0005
0.0005
0.0005
0.0005
0.0005
0.0005
0.0005
0.0005
0.0005
0.0005
0.0005

SCALARS mass float 1
LOOKUP_TABLE default
5.23599e-07
5.23599e-07
5.23599e-07
5.23599e-07
5.23599e-07
5.23599e-07
5.23599e-07
5.23599e-07
5.23599e-07
5.23599e-07
5.23599e-07
5.23599e-07
5.23599e-07
5.23599e-07
5.23599e-07
5.23599e-07
5.23599e-07
5.23599e-07
5.23599e-07
5.23599e-07
5.23599e-07
5.23599e-07
5.23599e-07
5.23599e-07
5.23599e-07
5.23599e-07
5.23599e-07
5.23599e-07
5.23599e-07
5.23599e-07
5.23599e-07
5.23599e-07
5.23599e-07
5.23599e-07
5.23599e-07
5.23599e-07
5.23599e-07
5.23599e-07
5.23599e-07
5.23599e-07
5.23599e-07
5.23599e-07
5.23599e-07
5.23599e-07
5.23599e-07
5.23599e-07
5.23599e-07
5.23599e-07
5.23599e-07
5.23599e-07
5.23599e-07
5.23599e-07
5.23599e-07
5.23599e-07
5.23599e-07
5.23599e-07
5.23599e-07
5.23599e-07
5.23599e-07
5.23599e-07
5.23599e-07
5.23599e-07
5.23599e-07
5.23599e-07
5.23599e-07
5.23599e-07
5.23599e-07
5.23599e-07
5.23599e-07
5.23599e-07
5.23599e-07
5.23599e-07
5.23599e-07
5.23599e-07
5.23599e-07
5.23599e-07
5.23599e-07
5.23599e-07
5.23599e-07
5.23599e-07
5.23599e-07
5.23599e-07
5.23599e-07
5.23599e-07
5.23599e-07
5.23599e-07
5.23599e-07
5.23599e-07
5.23599e-07
5.23599e-07
5.23599e-07
5.23599e-07
5.23599e-07
5.23599e-07
5.23599e-07
5.23599e-07
5.23599e-07
5.23599e-07
5.23599e-07
5.23599e-07
5.23599e-07
5.23599e-07
5.23599e-07
5.23599e-07
5.23599e-07
5.23599e-07
5.23599e-07
5.23599e-07
5.23599e-07
5.23599e-07
5.23599e-07
5.23599e-07
5.23599e-07
5.23599e-07
5.23599e-07
5.23599e-07
5.23599e-07
5.23599e-07
5.23599e-07
5.23599e-07
5.23599e-07
5.23599e-07
5.23599e-07
5.23599e-07
5.23599e-07
5.23599e-07
5.23599e-07
5.23599e-07
5.23599e-07
5.23599e-07
5.23599e-07
5.23599e-07
5.23599e-07
5.23599e-07
5.23599e-07
5.23599e-07
5.23599e-07
5.23599e-07
5.23599e-07
5.23599e-07
5.23599e-07
5.23599e-07
5.23599e-07
5.23599e-07
5.23599e-07
5.23599e-07
5.23599e-07
5.23599e-07
5.23599e-07
5.23599e-07
5.23599e-07
5.23599e-07
5.23599e-07
5.23599e-07
5.23599e-07
5.23599e-07
5.23599e-07
5.23599e-07
5.23599e-07
5.23599e-07
5.23599e-07
5.23599e-07
5.23599e-07
5.23599e-07
5.23599e-07
5.23599e-07
5.23599e-07
5.23599e-07
5.23599e-07
5.23599e-07

VECTORS velocity float
0.00142606 0.0469053 -0.00785488
-0.00299609 0.00551496 -0.00491279
-0.00043252 0.00154047 -0.00646884
0.000576702 0.00279598 -0.00640267
0.0291532 0.0106884 -0.0222258
-1.20781e-14 -1.73227e-14 -2.43748e-13
0.00455732 0.00649247 -0.00378098
0.0052032 -0.00335292 0.00158929
0.000970959 -0.00340878 -0.00289128
-0.00086334 -0.0163144 0.0511523
0.00360813 -0.043772 0.00285894
0.000938235 0.000676621 0.000138935
0.000752437 0.048333 -0.00684262
0.000638434 0.00560691 -0.0116815
0.00411092 0.028756 -0.0174413
0.0162919 0.00407978 -0.00639656
8.70798e-20 -7.24606e-21 3.48289e-20
0.000257953 -0.00291596 -0.00573306
0.00642894 0.00372605 0.000996294
0.00964148 0.00583875 0.00894714
0.00370626 -0.00755407 -0.0157041
0.00161112 0.0101647 -0.0042829
0.000179526 -0.0515185 0.0131672
0.00378129 -0.00334515 0.00187792
0.0036464 0.0163461 -0.0212546
0.00649444 0.00738593 -0.0119497
-0.00296415 -0.00084101 -0.000481565
-0.00602573 0.0150851 -0.0116331
0.00666377 0.00213197 -0.0115359
-0.00334287 0.00647702 -0.00953809
0.00607489 0.0244954 -0.0104121
0.0162643 0.0435546 0.0809397
0.000984347 0.00102112 0.00214811
-8.22896e-05 -0.00107341 -0.000277535
-0.0284536 0.117649 0.0270012
0.00158473 0.0467578 0.0153686
0.00578058 0.000657542 0.000119333
0.0144256 0.00495813 -0.00434124
0.0022111 -0.0241247 -0.0383669
-0.0353416 0.0320301 -0.10738
-0.00580405 0.00599438 -0.00681311
0.00109457 -0.000121214 -0.00190215
0.00537256 0.00212108 -0.00503744
0.00220374 0.0243467 -0.0263274
-0.0015977 -0.00114975 -0.00171804
0.00260845 0.0560025 -0.0176283
-0.0112634 0.0255115 -0.00690123
-0.0755901 -0.0622733 -0.0123815
0.00294108 0.037616 -0.011767
0.00246956 0.0413478 0.0134057
0.000909348 -0.00129086 -0.00131888
0.000108659 -0.00187272 -0.000660593
0.0137861 0.0095563 -0.00182437
0.000713598 0.000545137 -0.000368195
0.00451375 -1.75028e-05 0.00830738
-7.27466e-06 0.00123655 -0.00351461
-0.0020304 -0.00966687 -0.00275286
0.000331992 -0.00958559 -0.000307952
0.000474706 0.0422544 0.0286268
0.00162777 0.0455512 0.00121157
0.000459119 -0.014262 -0.0487887
0.00569753 0.0839565 -0.0800133
0.00696757 -0.011476 -0.0325099
0.00500912 0.000758089 -2.08971e-05
-0.00106223 -0.00120658 0.0019053
0.00941299 0.0237611 -0.00399231
0.00407709 0.00468815 -0.0145556
-0.00442222 -0.000440032 -0.00396882
0.000610642 0.0475351 -0.0126659
0.00347756 0.002408 -0.00259798
-1.89816e-15 1.35605e-15 -1.81829e-14
0.00601333 -0.000329437 0.00462963
0.0796972 -0.0608218 -0.138282
0.0109897 0.00137148 0.00142856
-0.00863516 0.0115335 -0.00826291
-0.0024676 -0.00359922 -0.00859106
0.000253959 -0.0503716 -0.00178684
0.000156894 0.000151105 0.000636698
-0.00336173 0.00441724 -0.00613178
0.000129769 -0.00208536 -0.00144667
0.00059791 0.00954823 0.00278933
0.00169462 0.0436933 0.0129052
-0.000600815 -0.00200901 0.00428817
0.00322273 0.00649694 0.0471386
0.00969695 0.00519097 0.0083047
0.000802084 -0.026466 0.0440384
0.00726571 -0.000594258 -0.00185864
0.00991332 0.00358744 0.0026573
-0.00292389 -0.00233569 -0.00208631
0.00701468 0.000516898 -0.00173926
0.0021171 0.00417396 -0.00193394
0.0556622 -0.0320047 0.0149136
0.00287875 0.0031754 -0.00842305
0.0128635 0.00500725 -0.0377208
0.000625652 -0.013753 0.0496779
0.0101806 0.00900164 -0.00905995
0.00297491 -0.0142567 0.0179536
-0.00810414 0.0630698 -0.0272968
-0.00282706 0.00653245 -0.0108884
0.000787237 0.0284261 -0.044866
0.00127482 0.0359112 -0.0343847
-0.021592 0.0517651 -0.0853659
-0.00319806 -0.0187474 -0.0146009
0.000144542 0.0234707 0.0490023
-0.00101977 -0.00418095 -0.00858134
0.0126016 0.00913554 -0.00146365
0.00102009 -0.0282809 -0.0326025
3.70136e-15 2.13428e-14 -8.2687e-14
0.00416585 -0.00101377 0.00256569
-0.0373422 -0.0478849 -0.0529767
0.0033535 -0.0110045 -0.0386576
0.00153963 0.051446 0.00109895
-0.00466584 0.000326732 -0.00256497
0.000118523 0.00168178 -0.00116827
0.015853 -0.0223998 -0.00371861
0.00240949 0.00135864 -0.00300955
-0.00171686 -0.00196147 -0.00611103
0.0223175 0.0109342 -0.0204791
-0.000262877 -0.00132445 0.000387077
0.00203914 0.00483371 -0.00230285
-0.0219147 0.0146588 -0.015504
0.000704899 0.00192039 -0.05164
0.00692418 0.00543639 -0.013948
0.00987345 0.0406225 -0.0182527
0.0065457 0.00297002 -0.00720962
0.0138033 -0.0126288 0.0141474
0.000558844 -0.0445869 -0.0213385
-0.00208314 0.00846719 -0.000311878
-0.000640739 -0.00296343 -0.000592862
0.000703993 0.043119 0.0220642
-8.82966e-05 0.0488636 0.00731402
0.00132383 -0.00301918 -0.000520639
0.00557416 0.00268025 -0.00209524
-0.000469732 0.010542 -0.0393046
0.00412336 0.00166472 -0.000917261
0.003587 0.00317509 0.00139701
-6.78585e-15 -3.79565e-14 -2.6134e-13
0.000109316 -0.00111309 -0.000562665
0.000611724 -0.0408114 0.0317966
0.00383784 0.00297185 -0.00593045
0.000214677 0.00152439 -0.0530718
-0.014009 -0.0382989 -0.029392
0.0424397 0.0113576 -0.0122536
-0.023776 -0.0841111 -0.13387
0.00643462 -0.000251757 -0.0158618
0.00481092 0.00684925 -0.0116411
0.0104344 -0.00407537 -0.00262848
0.000257283 -0.00769988 -0.0149562
-0.000298707 -0.00192557 -0.00110995
0.00302327 -0.0398472 -0.00942583
0.000204208 0.00336355 -0.00459257
0.000289269 -0.0194399 -0.030428
-0.00455001 0.000406913 -0.00446288
-0.00206572 -0.00946956 -0.0040784
0.000660718 0.000950764 -0.000247467
0.00490894 0.0123823 -0.00355834
-0.000533342 0.00366155 -2.3503e-05
0.00543537 0.000956281 0.0074967
-0.00130704 0.000483304 0.00556981
-7.39741e-15 -1.35409e-14 8.9292e-14
0.0135375 0.00559676 0.00812818
-0.00184121 -0.0085523 -0.00742071
0.00749919 0.00447726 -0.00271873
3.33038e-05 0.00261072 -0.00233864
5.0911e-05 -0.00153044 0.000968075
0.00860285 -0.0032491 -0.00190992
0.00550511 -0.00271925 0.00620753
0.00229472 0.00412904 -0.0035344
0.0026334 0.000840317 0.000792978
0.000126469 0.000975645 -0.000494231

VECTORS force float
-1.57551e-06 6.31852e-06 1.82584e-06
3.0633e-06 -9.93061e-06 2.56105e-06
-7.75053e-07 -6.66516e-06 -4.14105e-06
-6.47423e-06 -7.35191e-06 -3.37181e-06
0.0 0.0 -5.1365e-06
1.2868e-18 -7.22625e-20 -6.18334e-20
3.73209e-06 -1.5332e-06 6.91581e-06
-2.00087e-05 1.33679e-05 -2.3496e-05
-8.34486e-07 -1.21224e-06 -4.95817e-06
1.96724e-06 2.10485e-06 -7.65361e-06
-3.5104e-07 -8.64045e-07 2.09712e-07
-4.06433e-06 -7.46394e-07 -1.20854e-06
-8.14656e-07 1.39609e-06 -4.2486e-07
0.0 0.0 -5.1365e-06
-2.99708e-05 9.36853e-05 -0.000123161
7.45929e-05 -2.30663e-05 -9.83026e-05
0.0 0.0 0.0
0.0 0.0 -5.1365e-06
0.0 0.0 -5.1365e-06
-1.64736e-06 -5.51376e-07 -3.56709e-06
5.38988e-05 2.52486e-07 0.000557773
0.0 0.0 -5.1365e-06
-1.38684e-08 9.33677e-09 2.01693e-07
2.82222e-07 4.46643e-07 -5.13595e-06
2.36116e-05 -1.82772e-05 4.42668e-05
-2.41735e-06 -1.92968e-05 3.67043e-05
6.54278e-05 -5.93937e-05 1.90406e-05
9.54591e-07 8.64516e-07 2.42714e-07
0.0 0.0 -5.1365e-06
0.0 0.0 -5.1365e-06
-1.16e-08 7.53781e-07 6.32667e-07
0.0 0.0 -5.1365e-06
2.96135e-07 -2.13052e-06 -2.23455e-06
2.8396e-06 3.03529e-06 -2.13448e-06
0.0 0.0 -5.1365e-06
-6.31512e-06 4.24531e-05 7.44063e-06
7.5389e-06 3.70544e-06 -1.44348e-05
0.0 0.0 -5.1365e-06
0.0 0.0 -5.1365e-06
0.0 0.0 -5.1365e-06
-7.29021e-06 -2.03312e-05 -3.87776e-06
1.73905e-06 1.02335e-05 -1.15551e-05
-7.91545e-07 8.50681e-06 -1.35304e-05
4.91893e-05 1.17437e-05 -1.25052e-05
-5.01045e-06 -2.07279e-06 3.5438e-06
0.0 0.0 -5.1365e-06
6.12892e-07 1.86724e-06 -2.73172e-06
0.0 0.0 -5.1365e-06
-4.61114e-07 -6.32973e-07 1.13273e-06
-5.22973e-07 1.32155e-07 -1.05554e-07
3.26599e-06 -5.91745e-07 -4.13975e-06
2.02133e-06 6.33645e-06 -4.22616e-06
-4.00057e-06 2.18591e-05 1.30063e-05
-1.22699e-06 7.73139e-07 1.02797e-06
-6.72488e-07 2.36437e-06 -1.92614e-06
6.08148e-06 -9.89977e-06 5.77888e-07
0.0 0.0 -5.1365e-06
0.0 0.0 -5.1365e-06
-2.71672e-08 2.04197e-07 -1.22564e-07
-1.55485e-05 3.72034e-05 -5.78519e-07
-6.67884e-09 -2.27658e-07 -5.16491e-08
0.0 0.0 -5.1365e-06
-2.308e-05 -4.42921e-05 -8.4322e-05
-1.05626e-05 1.92824e-05 2.7481e-05
-1.72176e-06 1.16615e-05 -2.25598e-06
7.63912e-07 3.28122e-07 -3.53259e-06
1.1118e-06 2.92722e-07 -3.72386e-06
0.0 0.0 -5.1365e-06
0.0 0.0 -5.1365e-06
2.28014e-05 -5.5183e-06 4.58213e-05
4.61951e-19 2.51812e-18 7.19978e-20
-1.51889e-06 -3.3686e-07 -5.60993e-06
0.0 0.0 -5.1365e-06
-5.28782e-06 4.73864e-06 -1.03807e-05
-1.12331e-05 -2.335e-05 1.41289e-05
-4.46738e-08 2.36068e-05 6.58784e-05
-2.16734e-06 1.11399e-05 -2.67802e-06
3.23731e-06 -6.13367e-06 -7.46526e-07
7.86741e-06 -1.37151e-05 -1.49617e-05
0.0 0.0 -5.1365e-06
4.19451e-07 1.69536e-06 1.72896e-05
1.39934e-06 -5.64572e-06 -6.89887e-06
-5.42252e-06 -3.38151e-05 -5.23227e-06
0.0 0.0 -5.1365e-06
-4.21262e-06 -5.7709e-06 -1.04044e-05
-4.28385e-07 -5.63456e-07 1.48311e-06
0.000120431 -0.000170319 4.44058e-06
3.69243e-06 -8.6387e-06 -1.63277e-05
0.0 0.0 -5.1365e-06
1.98051e-06 -1.83999e-06 4.95619e-06
-3.87042e-06 4.02418e-06 4.62324e-06
-2.3725e-05 1.13272e-05 5.96983e-05
9.48996e-07 -2.12887e-07 -4.12826e-06
0.0 0.0 -5.1365e-06
-1.39752e-07 3.54899e-08 7.18177e-07
-3.88175e-06 -1.51953e-05 -1.43397e-06
-1.11867e-06 -4.61351e-07 3.80496e-06
0.0 0.0 -5.1365e-06
9.17262e-06 -1.02608e-05 3.06221e-05
4.04168e-07 -7.79089e-08 -9.40629e-07
-8.07739e-08 -2.69569e-08 -3.03812e-07
0.0 0.0 -5.1365e-06
0.0 0.0 -5.1365e-06
-5.62156e-06 -2.74856e-07 5.58001e-06
0.0 0.0 -5.1365e-06
2.08698e-06 -3.00399e-06 1.34019e-05
-2.44631e-06 -7.02956e-06 -6.78215e-06
4.20605e-20 6.75509e-20 1.94818e-20
-1.59498e-05 1.18128e-05 5.07619e-06
0.0 0.0 -5.1365e-06
-8.06306e-06 -2.20619e-05 -7.42313e-05
-7.47889e-07 -6.77138e-07 -2.96209e-06
4.76166e-05 -1.00397e-05 8.84694e-06
-1.62625e-06 6.69582e-07 -3.48213e-06
0.000277468 0.000428068 -6.61759e-05
-4.20699e-05 5.5661e-05 -3.77811e-05
0.0 0.0 -5.1365e-06
0.0 0.0 -5.1365e-06
-1.91306e-06 1.19721e-06 -2.4426e-06
-9.02421e-06 -8.42917e-06 1.29856e-05
0.0 0.0 -5.1365e-06
6.73937e-08 -4.07165e-08 1.17455e-06
5.45804e-05 0.00014708 -0.000146255
0.0 0.0 -5.1365e-06
6.76144e-06 -1.49578e-05 7.01161e-06
0.000263344 0.000458315 -1.02164e-05
-5.4366e-08 -2.33308e-07 1.16199e-07
0.0 0.0 -5.1365e-06
0.000399997 0.00012785 -2.96568e-05
4.33238e-07 4.81806e-07 -5.42648e-06
-7.89693e-07 9.22149e-09 3.71918e-07
7.61456e-07 2.23416e-06 -2.59782e-06
-7.27834e-06 -6.02627e-06 1.28794e-05
0.0 0.0 -5.1365e-06
8.93889e-06 -2.52665e-06 8.75314e-06
-5.91658e-09 -7.4736e-08 -4.73108e-06
-5.32043e-20 -2.50934e-20 5.0822e-21
-3.07879e-06 -3.38317e-06 -1.14525e-06
1.10627e-08 1.0754e-07 2.06368e-07
-2.17827e-06 5.39219e-07 -4.00538e-06
-8.97892e-08 -1.65111e-07 -3.19768e-07
0.0 0.0 -5.1365e-06
0.0 0.0 -5.1365e-06
0.0 0.0 -5.1365e-06
6.84638e-06 -8.24737e-06 1.36721e-05
-1.92833e-05 6.95332e-05 -5.04766e-05
0.0 0.0 -5.1365e-06
0.0 0.0 -5.1365e-06
-3.42691e-07 -3.63637e-06 -3.43573e-06
3.47504e-07 3.06535e-08 -3.34382e-06
-7.80239e-06 1.80747e-05 -2.44387e-06
2.25337e-06 1.3139e-05 1.60041e-05
-3.17258e-06 1.53334e-06 1.93321e-05
0.000114417 0.000182628 -0.000132444
-6.57311e-06 1.76408e-05 1.24091e-05
-1.8472e-06 2.59033e-05 7.80381e-06
0.0 0.0 -5.1365e-06
-1.9512e-06 1.87415e-06 -2.38585e-06
3.26299e-06 4.50726e-06 1.16868e-05
-5.29396e-23 -1.16467e-21 8.47033e-22
0.0 0.0 -5.1365e-06
0.0 0.0 -5.1365e-06
4.45547e-05 -4.29921e-05 4.3666e-05
-3.59521e-06 -6.99716e-06 4.56231e-05
-1.68178e-05 -5.11669e-06 -1.10628e-05
0.0 0.0 -5.1365e-06
1.88505e-07 2.74035e-07 -1.23847e-06
-9.49239e-06 3.70519e-06 2.4116e-05
6.59237e-06 -8.97781e-06 -7.00064e-06
-1.89024e-06 5.04796e-07 3.0229e-06
