# vtk DataFile Version 3.0
LIGGGHTS particles timestep 3400000
ASCII
DATASET POLYDATA
POINTS 156 float
0.0219802 0.02274 0.0150758
0.0235418 0.0173961 0.0156234
0.0230136 0.0213408 0.0153308
0.0241424 0.0159821 0.00846755
0.0232983 0.0148949 0.0104674
0.0592595 0.0187057 0.00589343
0.0232205 0.0204349 0.0157353
0.0243603 0.0222678 0.0156501
0.0165166 0.0238099 0.0137752
0.0315139 0.0226609 0.00908332
0.0166985 0.023407 0.0146975
0.0186314 0.0191126 0.00715533
0.0212755 0.0145313 0.014429
0.0189252 0.0232471 0.0160331
0.0175881 0.0149377 0.0131998
0.0345955 0.0188418 0.00570992
0.0180012 0.0146235 0.0119349
0.0149719 0.0219829 0.0148771
0.028954 0.0212456 0.0063338
0.0277936 0.0179759 0.0156746
0.0272333 0.0206617 0.0155053
0.022323 0.0198721 0.0158714
0.0174556 0.0236216 0.01408
0.0226686 0.0150674 0.0134736
0.0158705 0.017852 0.0157842
0.0167685 0.0182818 0.0158772
0.0204209 0.0233629 0.0126765
0.0292512 0.0148657 0.0106641
0.0230316 0.0146814 0.0146674
0.0187786 0.0200212 0.00729011
0.0206789 0.0241755 0.0142162
0.0300362 0.0167582 0.00780527
0.0258476 0.0232932 0.0106282
0.0172561 0.0240274 0.0131384
0.0180937 0.0141079 0.0129576
0.0221147 0.02158 0.0165051
0.0180619 0.0164543 0.0151501
0.0209029 0.0241347 0.0132368
0.0202982 0.0145518 0.01421
0.0211741 0.0219578 0.0165947
0.0220576 0.0217695 0.0153037
0.0230995 0.0220426 0.0160527
0.0267383 0.0182025 0.00597096
0.0294843 0.015168 0.00968444
0.0240055 0.0166973 0.00787555
0.0170055 0.0168293 0.0155463
0.0227366 0.0230025 0.0156755
0.029608 0.019721 0.00584316
0.0245599 0.0207574 0.0164667
0.0206538 0.023467 0.0117347
0.0176274 0.0176034 0.015763
0.0245381 0.0195762 0.0167127
0.0304713 0.0188614 0.00718168
0.0303091 0.0179554 0.00732204
0.0281092 0.0166497 0.0150041
0.0164767 0.0155625 0.0142547
0.0161491 0.0143502 0.0140416
0.0188264 0.0155192 0.015382
0.015917 0.0216979 0.015068
0.0206079 0.0232092 0.0141747
0.0216619 0.024043 0.0138989
0.0224608 0.0197816 0.00583582
0.025565 0.0208142 0.0164543
0.021384 0.0234006 0.0124178
0.02009 0.015142 0.0150377
0.0194724 0.0240033 0.0142537
0.0225815 0.0228129 0.00938135
0.0118623 0.0202199 0.0230324
0.0232019 0.0232204 0.014704
0.0154933 0.0229686 0.0136027
0.0170572 0.0146604 0.0122703
0.0260863 0.0233989 0.0116967
0.0208948 0.0138618 0.0137914
0.0223561 0.0226874 0.0140186
0.0195615 0.0137899 0.0137678
0.0221545 0.0208473 0.0157287
0.0167439 0.0143939 0.0131989
0.0221039 0.0170075 0.0185429
0.0231464 0.0157537 0.0152255
0.017972 0.0237737 0.0149234
0.0289359 0.0178655 0.00589895
0.0214486 0.0226005 0.0141859
0.0249628 0.0216005 0.016094
0.0233337 0.0154558 0.0141112
0.0215642 0.019286 0.016225
0.0317783 0.0232157 0.010257
0.019106 0.0231371 0.0148137
0.0156627 0.018824 0.0159496
0.0285845 0.0153289 0.0135114
0.0289745 0.0147827 0.0115937
0.0147126 0.0226448 0.0141378
0.0198221 0.0232324 0.0105335
0.030789 0.0201009 0.00733988
0.0188634 0.022356 0.0155836
0.0213442 0.0202521 0.0157797
0.0205005 0.0236891 0.015072
0.0354862 0.0197731 0.00599028
0.020796 0.0225165 0.0148381
0.0227914 0.0221234 0.0147231
0.0167625 0.0222199 0.0146254
0.0182636 0.0144231 0.0146362
0.0237268 0.0230335 0.0155397
0.0191309 0.0242586 0.013224
0.0173503 0.0158798 0.0146235
0.0225603 0.0235696 0.0140212
0.0205095 0.0231563 0.0165458
0.0223856 0.0158287 0.0145722
0.0231793 0.0192494 0.0160274
0.0270139 0.0213585 0.0150959
0.0210455 0.021721 0.0154278
0.0298892 0.0147542 0.0113368
0.0265999 0.0224834 0.0138867
0.0190612 0.0213321 0.00785989
0.0212778 0.0232399 0.0134536
0.0223621 0.0236971 0.0149996
0.0174498 0.0139611 0.0137712
0.0275751 0.0188695 0.0158521
0.022162 0.0232187 0.0130305
0.0212428 0.0226434 0.0157651
0.0180289 0.0243864 0.0137863
0.0196762 0.0216238 0.0160899
0.0239343 0.0214896 0.0161516
0.0222244 0.0144514 0.014124
0.0225772 0.0177555 0.0157554
0.0165071 0.0228145 0.0138636
0.0454623 0.0165053 0.00632503
0.0162204 0.0163823 0.0150685
0.023988 0.0152584 0.0154423
0.0199602 0.0228687 0.0152584
0.0283088 0.0158604 0.014407
0.0372285 0.0203986 0.00609172
0.0174571 0.0229508 0.0151645
0.0162595 0.0232361 0.0129918
0.0169374 0.0214586 0.0152488
0.0239768 0.0159944 0.0147232
0.0201932 0.0240482 0.0161733
0.0201569 0.0238126 0.0135046
0.0182113 0.0240855 0.012794
0.018665 0.0144586 0.0137192
0.0185542 0.0236087 0.0141265
0.014907 0.0172719 0.0195062
0.0145299 0.0227372 0.015466
0.0190929 0.0140322 0.0129177
0.0157457 0.023543 0.0143821
0.0234851 0.0151974 0.00958263
0.0202327 0.017563 0.0165418
0.0246061 0.0193742 0.00718036
0.089209 0.0204289 0.00606712
0.019555 0.0237621 0.0154515
0.0547713 0.0184279 0.005953
0.0214246 0.0234876 0.0146952
0.0157511 0.0224235 0.0144003
0.0202295 0.0140412 0.0130671
0.022173 0.0167981 0.0153316
0.0193375 0.0146994 0.0144461
0.0212117 0.0206822 0.0167472

VERTICES 156 312
1 0
1 1
1 2
1 3
1 4
1 5
1 6
1 7
1 8
1 9
1 10
1 11
1 12
1 13
1 14
1 15
1 16
1 17
1 18
1 19
1 20
1 21
1 22
1 23
1 24
1 25
1 26
1 27
1 28
1 29
1 30
1 31
1 32
1 33
1 34
1 35
1 36
1 37
1 38
1 39
1 40
1 41
1 42
1 43
1 44
1 45
1 46
1 47
1 48
1 49
1 50
1 51
1 52
1 53
1 54
1 55
1 56
1 57
1 58
1 59
1 60
1 61
1 62
1 63
1 64
1 65
1 66
1 67
1 68
1 69
1 70
1 71
1 72
1 73
1 74
1 75
1 76
1 77
1 78
1 79
1 80
1 81
1 82
1 83
1 84
1 85
1 86
1 87
1 88
1 89
1 90
1 91
1 92
1 93
1 94
1 95
1 96
1 97
1 98
1 99
1 100
1 101
1 102
1 103
1 104
1 105
1 106
1 107
1 108
1 109
1 110
1 111
1 112
1 113
1 114
1 115
1 116
1 117
1 118
1 119
1 120
1 121
1 122
1 123
1 124
1 125
1 126
1 127
1 128
1 129
1 130
1 131
1 132
1 133
1 134
1 135
1 136
1 137
1 138
1 139
1 140
1 141
1 142
1 143
1 144
1 145
1 146
1 147
1 148
1 149
1 150
1 151
1 152
1 153
1 154
1 155

POINT_DATA 156
SCALARS id int 1
LOOKUP_TABLE default
1
2
3
4
5
6
7
9
10
11
13
14
15
17
19
20
22
23
24
25
27
28
29
30
31
32
34
35
36
37
38
40
41
42
44
45
46
47
49
50
51
53
54
55
57
59
60
61
63
64
65
66
67
68
69
70
71
73
74
75
78
79
81
82
83
84
85
87
88
90
92
93
95
96
97
98
101
102
103
105
106
107
108
109
110
111
112
113
114
115
116
117
118
119
120
121
122
123
124
125
126
127
128
129
130
131
132
133
134
135
136
137
138
139
140
141
142
143
144
145
146
147
148
149
150
151
152
153
154
155
158
159
160
162
164
165
166
167
168
169
170
171
172
173
174
176
177
178
180
182
183
185
186
187
188
189

SCALARS type int 1
LOOKUP_TABLE default
1
1
1
1
1
1
1
1
1
1
1
1
1
1
1
1
1
1
1
1
1
1
1
1
1
1
1
1
1
1
1
1
1
1
1
1
1
1
1
1
1
1
1
1
1
1
1
1
1
1
1
1
1
1
1
1
1
1
1
1
1
1
1
1
1
1
1
1
1
1
1
1
1
1
1
1
1
1
1
1
1
1
1
1
1
1
1
1
1
1
1
1
1
1
1
1
1
1
1
1
1
1
1
1
1
1
1
1
1
1
1
1
1
1
1
1
1
1
1
1
1
1
1
1
1
1
1
1
1
1
1
1
1
1
1
1
1
1
1
1
1
1
1
1
1
1
1
1
1
1
1
1
1
1
1
1

SCALARS radius float 1
LOOKUP_TABLE default
0.0005
0.0005
0.0005
0.0005
0.0005
0.0005
0.0005
0.0005
0.0005
0.0005
0.0005
0.0005
0.0005
0.0005
0.0005
0.0005
0.0005
0.0005
0.0005
0.0005
0.0005
0.0005
0.0005
0.0005
0.0005
0.0005
0.0005
0.0005
0.0005
0.0005
0.0005
0.0005
0.0005
0.0005
0.0005
0.0005
0.0005
0.0005
0.0005
0.0005
0.0005
0.0005
0.0005
0.0005
0.0005
0.0005
0.0005
0.0005
0.0005
0.0005
0.0005
0.0005
0.0005
0.0005
0.0005
0.0005
0.0005
0.0005
0.0005
0.0005
0.0005
0.0005
0.0005
0.0005
0.0005
0.0005
0.0005
0.0005
0.0005
0.0005
0.0005
0.0005
0.0005
0.0005
0.0005
0.0005
0.0005
0.0005
0.0005
0.0005
0.0005
0.0005
0.0005
0.0005
0.0005
0.0005
0.0005
0.0005
0.0005
0.0005
0.0005
0.0005
0.0005
0.0005
0.0005
0.0005
0.0005
0.0005
0.0005
0.0005
0.0005
0.0005
0.0005
0.0005
0.0005
0.0005
0.0005
0.0005
0.0005
0.0005
0.0005
0.0005
0.0005
0.0005
0.0005
0.0005
0.0005
0.0005
0.0005
0.0005
0.0005
0.0005
0.0005
0.0005
0.0005
0.0005
0.0005
0.0005
0.0005
0.0005
0.0005
0.0005
0.0005
0.0005
0.0005
0.0005
0.0005
0.0005
0.0005
0.0005
0.0005
0.0005
0.0005
0.0005
0.0005
0.0005
0.0005
0.0005
0.0005
0.0005
0.0005
0.0005
0.0005
0.0005
0.0005
0.0005

SCALARS mass float 1
LOOKUP_TABLE default
5.23599e-07
5.23599e-07
5.23599e-07
5.23599e-07
5.23599e-07
5.23599e-07
5.23599e-07
5.23599e-07
5.23599e-07
5.23599e-07
5.23599e-07
5.23599e-07
5.23599e-07
5.23599e-07
5.23599e-07
5.23599e-07
5.23599e-07
5.23599e-07
5.23599e-07
5.23599e-07
5.23599e-07
5.23599e-07
5.23599e-07
5.23599e-07
5.23599e-07
5.23599e-07
5.23599e-07
5.23599e-07
5.23599e-07
5.23599e-07
5.23599e-07
5.23599e-07
5.23599e-07
5.23599e-07
5.23599e-07
5.23599e-07
5.23599e-07
5.23599e-07
5.23599e-07
5.23599e-07
5.23599e-07
5.23599e-07
5.23599e-07
5.23599e-07
5.23599e-07
5.23599e-07
5.23599e-07
5.23599e-07
5.23599e-07
5.23599e-07
5.23599e-07
5.23599e-07
5.23599e-07
5.23599e-07
5.23599e-07
5.23599e-07
5.23599e-07
5.23599e-07
5.23599e-07
5.23599e-07
5.23599e-07
5.23599e-07
5.23599e-07
5.23599e-07
5.23599e-07
5.23599e-07
5.23599e-07
5.23599e-07
5.23599e-07
5.23599e-07
5.23599e-07
5.23599e-07
5.23599e-07
5.23599e-07
5.23599e-07
5.23599e-07
5.23599e-07
5.23599e-07
5.23599e-07
5.23599e-07
5.23599e-07
5.23599e-07
5.23599e-07
5.23599e-07
5.23599e-07
5.23599e-07
5.23599e-07
5.23599e-07
5.23599e-07
5.23599e-07
5.23599e-07
5.23599e-07
5.23599e-07
5.23599e-07
5.23599e-07
5.23599e-07
5.23599e-07
5.23599e-07
5.23599e-07
5.23599e-07
5.23599e-07
5.23599e-07
5.23599e-07
5.23599e-07
5.23599e-07
5.23599e-07
5.23599e-07
5.23599e-07
5.23599e-07
5.23599e-07
5.23599e-07
5.23599e-07
5.23599e-07
5.23599e-07
5.23599e-07
5.23599e-07
5.23599e-07
5.23599e-07
5.23599e-07
5.23599e-07
5.23599e-07
5.23599e-07
5.23599e-07
5.23599e-07
5.23599e-07
5.23599e-07
5.23599e-07
5.23599e-07
5.23599e-07
5.23599e-07
5.23599e-07
5.23599e-07
5.23599e-07
5.23599e-07
5.23599e-07
5.23599e-07
5.23599e-07
5.23599e-07
5.23599e-07
5.23599e-07
5.23599e-07
5.23599e-07
5.23599e-07
5.23599e-07
5.23599e-07
5.23599e-07
5.23599e-07
5.23599e-07
5.23599e-07
5.23599e-07
5.23599e-07
5.23599e-07
5.23599e-07
5.23599e-07
5.23599e-07
5.23599e-07

VECTORS velocity float
0.0029722 -0.0137887 -0.0243877
0.000364223 0.0156035 0.00838881
0.0078362 0.0214177 -0.00708646
-0.000370452 -0.0330614 0.0350221
0.00268937 -0.011336 0.0385305
7.04719e-15 -1.47823e-14 -1.82215e-13
0.00944535 0.0108117 -0.00579504
-0.0050144 0.00498674 -0.000763568
-0.00442306 0.0104113 0.00824441
0.00635312 -0.0207376 -0.0258784
-0.00131069 -0.00496579 -0.00736989
-0.00563082 -0.0459571 -0.00149037
-0.00155685 0.0117806 -0.0119918
-0.0252976 0.0293857 -0.0057119
0.0113899 0.00164211 0.0158447
8.70798e-20 -7.24606e-21 3.48289e-20
0.00160168 0.00241 -0.00336681
0.0170119 -0.00145173 7.54821e-05
-0.0255433 -0.0383215 -0.0525622
0.00332131 0.0323763 0.0119765
0.000687684 0.046212 -0.0165342
0.0111215 0.00579762 0.000739551
-0.00197574 0.00140612 -0.0054681
0.00937622 0.00295157 0.00400307
0.00118941 0.0483249 0.0132331
0.00161937 0.0484168 0.0087269
-0.00572274 0.00520497 0.0136558
0.000278203 -0.0127373 0.0453653
0.000749607 0.00421046 -0.00524151
0.0029027 -0.0360872 -0.0161463
-0.000491505 0.00479854 -0.00325808
0.00177963 -0.0405047 0.02621
0.00151364 -0.0105707 -0.0468783
-0.00848044 0.0065038 0.00493096
0.000296026 0.0136958 -0.0292243
-0.00254327 -0.0316814 -0.0574551
0.00229816 0.00639517 0.00668778
-0.00831024 0.00316443 0.00220622
-0.00619219 -0.00489711 -0.00587596
-0.0313479 -0.0687818 -0.0706557
0.0155723 -0.00191275 -0.0216206
-0.0171299 -0.0155878 -0.0187361
-1.69475e-14 -2.72935e-15 2.76309e-13
0.000569543 -0.0201941 0.045746
0.00116804 -0.0415006 0.0270891
0.0217541 0.0104305 -0.0139338
-0.00725508 -0.00693084 -0.0160066
-8.7125e-15 8.92107e-17 -1.02212e-13
-0.00543007 -0.000597292 -0.00191208
0.000750299 0.000456539 0.00758078
-0.00322354 0.0280541 0.0546273
0.00734955 -0.00209111 -0.00699727
0.00139725 -0.0458549 0.00176306
0.000724101 -0.0480518 0.0132404
0.000532829 0.0421256 0.0286717
0.0157662 -0.00988545 -0.013115
-0.00172904 -0.00592232 0.00689362
-9.47642e-05 -0.0119352 -0.0216812
0.0151135 0.00825055 -0.00497558
0.0060069 0.00984987 -0.0126838
-0.000581772 -0.000405604 -0.0035783
-2.10628e-15 5.97561e-16 -1.81974e-14
-0.00532566 0.0108383 -0.0003131
-0.00514197 0.00345083 0.00175759
0.00182484 0.014281 0.00042348
0.0184114 0.000563794 -0.059799
0.00591858 -0.00151543 -0.00143052
0.170401 -0.156615 -0.413722
0.000651602 -0.00423027 -0.00432375
0.00966081 0.00328926 -0.00912635
0.00338252 -0.00402604 0.00309584
0.00184506 0.00588733 -0.0396817
0.00127587 9.4691e-05 -0.00211595
-0.00190254 0.0150545 -0.0210571
-0.0103548 -0.00162717 -0.00852439
0.023189 0.00340289 -0.0142331
0.0116008 0.00210161 0.0075207
0.0556057 0.0040362 0.150818
0.00558259 0.019551 0.0102833
-0.00323388 0.0027432 -0.00290494
-8.71372e-15 7.98392e-17 -1.02212e-13
0.000501134 0.0111626 -0.0153748
-0.00356272 0.000292937 -0.00863358
0.00724383 0.00429833 0.0053159
-0.00152761 -0.0463474 -0.0725884
0.00111407 -0.0144266 -0.0470543
0.000633346 0.00306414 0.00172624
0.00132285 0.0499709 0.00211116
0.000458398 0.0228832 0.049929
0.00589181 0.00315834 0.0286247
0.00790101 0.000749222 -0.00837293
0.00402987 -0.0107402 -0.0386325
0.000458318 -0.0494315 -0.0117017
-0.0112783 0.033483 -0.024801
0.0069807 0.0255837 -0.00551072
0.00756735 0.00550166 -0.00437109
3.73613e-15 2.13631e-14 -8.26802e-14
0.00462559 0.0234648 -0.006574
0.00704601 0.0178269 -0.0180749
0.0115567 -0.000488287 -0.000894737
-0.0526428 0.00159108 -0.046114
-0.00597985 0.00257826 -0.00838412
-0.0254424 -0.0357408 -0.0550775
0.0168098 -0.0165477 -0.0101173
0.00227835 0.00367932 -0.000356798
-0.0158336 -0.0359843 0.0011433
0.000674475 0.0270338 0.0296879
0.00883385 0.0212971 0.0428663
0.00203719 0.0365596 -0.0276799
0.0114699 0.0145861 -0.0352733
0.00300406 -0.00783348 0.00789777
0.00205288 0.0349156 -0.0398775
0.00216031 -0.0395919 -0.0221709
0.00225363 0.00643428 -0.017945
0.00763111 0.00939064 0.00560224
0.0195758 -0.00467004 -0.000676391
0.00203037 0.0468214 -0.000210478
0.000351475 0.00106006 -0.00807373
-0.0156481 0.0210547 -0.038872
-0.00088812 0.000651044 0.00058223
-0.0135626 0.0146252 0.00295145
-0.00235737 -0.00119477 -0.038074
0.000367032 0.00218284 -0.00388669
0.00177456 0.0311784 0.00843829
0.00505799 0.00570471 -0.00177621
-6.80158e-15 -3.79626e-14 -2.61339e-13
0.00993699 0.00977474 0.00601616
0.00195582 0.00425374 -0.00186375
0.00278273 0.00649497 0.00658565
0.00140482 0.0301968 0.0344833
-4.251e-15 1.48441e-14 -6.8181e-14
0.0129235 -0.0204102 -0.0416253
0.0050783 0.00279685 -0.00192794
0.0133216 0.00439436 0.00454837
0.00679547 0.0045239 0.00519161
0.00130042 -0.00844817 0.00710082
-0.0167686 0.0138768 0.00932321
-0.00239291 -0.00162964 -0.00347956
-0.00779839 0.026312 -0.026951
0.0026096 0.00397023 0.00187657
-0.0052164 -0.0192202 0.109718
0.000601708 0.0660013 -0.0408273
0.00117253 0.0101614 -0.0140641
-0.0368186 -0.0166853 0.0215513
0.00104863 -0.0148619 0.0294204
-0.00919038 0.0358647 0.0534035
0.00740732 -0.0306835 -0.000327715
-7.39741e-15 -1.34986e-14 8.92984e-14
-0.000228089 0.00131477 0.00432433
5.44722e-15 7.42394e-15 1.04254e-13
-0.00140153 -0.00464404 0.000276366
0.0126067 0.00472062 -0.00858224
-0.0040873 -0.000971391 0.000781707
0.00364588 0.0106345 0.00286533
-0.00445653 -0.00330253 -0.0113553
0.0247844 -0.0779375 0.0726185

VECTORS force float
-2.26423e-06 1.61097e-05 9.129e-06
-1.35204e-08 -4.70494e-07 2.29653e-06
0.0 0.0 -5.1365e-06
-1.40117e-07 -2.13493e-06 3.16658e-06
-2.11513e-06 -3.15649e-07 3.45089e-06
-9.77476e-19 4.00752e-20 -4.23516e-20
0.0 0.0 -5.1365e-06
1.32804e-06 1.46938e-06 -3.99876e-06
8.85933e-06 2.84623e-05 -1.42617e-05
3.80557e-06 -7.53817e-06 -1.15086e-05
0.0 0.0 -5.1365e-06
-0.00213481 0.000306063 0.000265138
1.29553e-06 3.52161e-07 -1.9698e-06
-1.81257e-06 -1.16131e-06 -3.72322e-06
0.0 0.0 -5.1365e-06
0.0 0.0 0.0
-2.81557e-06 -1.90725e-06 1.52359e-05
0.0 0.0 -5.1365e-06
0.0 0.0 -5.1365e-06
3.26314e-05 -0.000116638 -3.42476e-05
-1.79971e-08 2.70852e-08 -1.75973e-07
7.01785e-07 -4.63856e-06 -2.78792e-06
-3.32526e-06 -4.15302e-06 1.61484e-06
4.3616e-07 1.04935e-06 5.46077e-06
1.02402e-08 1.00832e-07 -2.86636e-07
-4.03284e-08 9.24326e-08 -2.77645e-07
-9.61747e-05 -3.07147e-06 0.000142925
5.22679e-06 2.15184e-05 -6.45663e-05
-5.7371e-07 9.91687e-09 -2.21669e-06
0.000773841 -0.000383391 0.000257479
9.29752e-06 -2.82673e-05 3.12898e-05
7.47322e-06 -2.90548e-06 5.71163e-06
-8.08269e-08 -1.72421e-07 -3.86314e-08
1.77833e-05 -1.99515e-05 -4.31554e-06
0.0 0.0 -5.1365e-06
0.0 0.0 -5.1365e-06
0.0 0.0 -5.1365e-06
2.43941e-05 -2.88229e-05 1.36716e-05
0.0 0.0 -5.1365e-06
0.0 0.0 -5.1365e-06
2.26423e-06 -1.61097e-05 -1.9402e-05
0.0 0.0 -5.1365e-06
-2.96462e-21 6.03511e-21 0.0
-2.45481e-08 1.41872e-07 2.00848e-07
-5.51032e-07 -1.44926e-06 1.39391e-06
0.0 0.0 -5.1365e-06
-2.56359e-06 -2.38951e-07 -4.80802e-06
2.11758e-22 7.7391e-21 0.0
0.0 0.0 -5.1365e-06
-1.98918e-05 5.65947e-06 6.89061e-05
0.0 0.0 -5.1365e-06
0.0 0.0 -5.1365e-06
-6.40765e-07 2.01296e-06 -1.72885e-07
-2.06115e-07 -4.12528e-07 1.91684e-07
-3.46394e-08 2.10304e-07 -1.181e-07
6.494e-08 -1.72406e-06 1.70782e-06
0.0 0.0 -5.1365e-06
0.0 0.0 -5.1365e-06
-7.73168e-08 -6.5384e-07 -3.32003e-06
-9.65476e-06 -0.000103056 -5.15353e-05
1.66999e-05 -3.58914e-05 -1.13869e-05
-3.42413e-19 -1.32635e-18 -2.79521e-20
-4.70061e-06 -5.65784e-06 -3.41977e-06
4.76075e-06 4.19407e-05 2.33687e-05
0.0 0.0 -5.1365e-06
0.0 0.0 -5.1365e-06
0.000253259 -0.00041935 -0.00068299
0.0 0.0 -5.1365e-06
5.93564e-06 -3.2354e-06 -3.93937e-06
6.66645e-07 -1.77485e-06 -1.78847e-06
4.3007e-07 4.79355e-08 -2.35817e-06
3.82993e-07 -1.00228e-06 1.54453e-07
1.43296e-06 -5.4602e-07 -6.05341e-08
-1.5097e-05 7.05283e-06 7.09903e-07
0.0 0.0 -5.1365e-06
-1.72882e-06 1.07157e-05 -1.17807e-07
0.0 0.0 -5.1365e-06
0.0 0.0 -5.1365e-06
-1.1707e-06 -1.52719e-06 -2.98136e-06
0.0 0.0 -5.1365e-06
1.42937e-21 -2.75567e-20 0.0
-2.1724e-05 -0.000111295 -5.6454e-06
0.0 0.0 -5.1365e-06
2.22765e-06 -5.22782e-07 -3.20254e-06
0.0 0.0 -5.1365e-06
-1.3592e-07 -2.70756e-07 -2.32633e-07
3.42119e-06 -1.96957e-05 -9.28072e-06
-2.03602e-09 3.47224e-08 -2.89387e-07
-6.63285e-08 2.90423e-07 5.60996e-09
-8.06891e-07 -3.6586e-05 -9.90455e-05
0.0 0.0 -5.1365e-06
-1.01495e-07 3.44864e-06 1.05825e-05
-2.19769e-08 -4.13673e-07 1.90457e-07
1.81257e-06 1.16131e-06 -6.54979e-06
0.0 0.0 -5.1365e-06
-3.27908e-07 -1.6401e-07 -4.94181e-06
6.73126e-20 3.1552e-20 1.18585e-20
1.5893e-05 -0.000127037 8.57713e-05
0.0 0.0 -5.1365e-06
-6.11272e-06 1.38448e-05 -7.57611e-06
0.0 0.0 -5.1365e-06
-9.48195e-08 1.51557e-06 -1.80943e-06
0.0 0.0 -5.1365e-06
8.31633e-07 -1.49084e-06 -3.13701e-07
-3.17699e-05 7.40949e-06 -1.54692e-05
0.0 0.0 -5.1365e-06
-1.51034e-07 -1.78697e-06 1.00207e-06
0.0 0.0 -5.1365e-06
-1.02512e-07 6.99777e-08 -3.81521e-07
0.0 0.0 -5.1365e-06
2.48206e-06 -4.11941e-06 -0.000200297
4.10439e-08 -2.25466e-07 -2.02781e-07
-2.48415e-07 -5.81598e-07 -1.40471e-07
-5.68503e-05 -7.36742e-06 1.5864e-06
0.0 0.0 -5.1365e-06
-1.43983e-06 5.44159e-06 -2.55139e-06
4.56947e-05 -5.34054e-05 -2.07286e-05
-4.35356e-05 1.8926e-05 -3.51852e-05
0.0 0.0 -5.1365e-06
-8.57674e-06 -1.32585e-05 5.34234e-06
0.0 0.0 -5.1365e-06
0.0 0.0 -5.1365e-06
7.80867e-07 -4.9035e-07 -3.07777e-08
-1.43307e-07 1.55603e-07 -1.11328e-07
-1.13022e-05 3.55616e-05 1.44014e-05
-3.17637e-21 0.0 0.0
0.0 0.0 -5.1365e-06
-4.45283e-06 1.26735e-06 2.42814e-07
-1.0473e-05 -5.01649e-06 -6.07888e-06
2.33361e-07 -1.25496e-06 -9.99123e-07
7.55448e-19 7.11084e-19 1.05879e-19
0.0 0.0 -5.1365e-06
-7.20969e-06 1.67947e-05 -3.88621e-06
9.54928e-06 -2.8762e-05 1.05017e-05
3.90328e-08 -3.77984e-07 -1.51811e-06
0.0 0.0 -5.1365e-06
1.75913e-05 -5.39043e-05 0.000112223
-0.000614909 -0.000174503 0.000765927
0.0 0.0 -5.1365e-06
-8.28686e-07 -1.78703e-05 -2.13656e-06
0.0 0.0 -5.1365e-06
0.0 0.0 -5.1365e-06
0.0 0.0 -5.1365e-06
0.0 0.0 -5.1365e-06
4.9717e-06 5.02787e-06 -1.43113e-06
5.1303e-05 -1.94948e-05 0.000172015
4.4802e-07 2.66811e-05 -6.70933e-06
0.0 -3.63165e-20 -5.92923e-21
1.43021e-05 4.13243e-05 1.53291e-05
-7.84353e-19 5.72224e-19 8.47033e-22
-1.0978e-05 -1.84607e-05 1.04758e-05
9.86416e-08 1.84303e-06 -3.20991e-06
-5.35343e-07 1.22085e-06 -2.36141e-07
0.0 0.0 -5.1365e-06
0.0 0.0 -5.1365e-06
0.0 0.0 -5.1365e-06
