# vtk DataFile Version 3.0
LIGGGHTS particles timestep 4800000
ASCII
DATASET POLYDATA
POINTS 145 float
0.0215054 0.0224576 0.0143965
0.0261313 0.0196664 0.0173163
0.02314 0.0181652 0.00729704
0.0209886 0.0205207 0.0156924
0.0217056 0.0217419 0.0150663
0.0592595 0.0187057 0.00589343
0.0277237 0.014836 0.0120289
0.0193254 0.0243504 0.0133794
0.0357987 0.0211698 0.00783289
0.0220046 0.014808 0.0107522
0.0234076 0.0192735 0.00720595
0.0102203 0.0101434 0.0358773
0.0185094 0.0137333 0.013812
0.0203096 0.022042 0.015903
0.0346743 0.0188316 0.00571084
0.019792 0.0234445 0.011639
0.0223154 0.0152538 0.00937391
0.0287043 0.0203856 0.00592074
0.0309067 0.0233665 0.0113683
0.0303215 0.0227781 0.00924726
0.0192863 0.0144392 0.0140605
0.0205939 0.0235209 0.0139665
0.0171548 0.0234814 0.0143671
0.0314502 0.0243654 0.0108121
0.0205922 0.0181814 0.0158587
0.0178115 0.0140998 0.013165
0.0322424 0.0195663 0.0157633
0.0176023 0.0229183 0.0150619
0.023242 0.0221121 0.0157627
0.0329893 0.0164275 0.0149168
0.0288472 0.0168708 0.00776559
0.0202771 0.0244447 0.0136603
0.0167884 0.0143029 0.0132747
0.0244533 0.0222088 0.0157542
0.0239889 0.020311 0.00746152
0.0222924 0.0218469 0.0159283
0.0201962 0.0140209 0.0130979
0.0187076 0.0233046 0.0109256
0.0207029 0.0232617 0.0127857
0.0201225 0.023932 0.0125424
0.0267383 0.0182025 0.00597096
0.0326998 0.0173651 0.0154391
0.0230341 0.0155808 0.0155208
0.0216364 0.0147809 0.0127673
0.0189848 0.023662 0.0120368
0.029608 0.019721 0.00584316
0.0273624 0.0152967 0.0134569
0.0199463 0.0228135 0.0153761
0.0247054 0.0160911 0.0158334
0.0258408 0.0199521 0.0166228
0.0337601 0.0148047 0.0119143
0.0333006 0.0153945 0.0137704
0.0311261 0.023165 0.0128396
0.0185213 0.0230042 0.0100793
0.0250592 0.0216443 0.016313
0.0169681 0.0146868 0.0123405
0.0233898 0.0149469 0.0148342
0.0256462 0.0209293 0.01669
0.0191851 0.0234755 0.0139964
0.0224608 0.0197816 0.00583582
0.0217883 0.0199389 0.015855
0.0339126 0.0215176 0.00638974
0.0194475 0.0236748 0.0151326
0.0196843 0.0241546 0.0142858
0.0260073 0.0180979 0.00728072
0.021466 0.0148975 0.0137457
0.0194818 0.0150359 0.0149506
0.0205857 0.0211792 0.0163265
0.0225132 0.0161474 0.0148823
0.0292366 0.0184822 0.00725162
0.02605 0.0223548 0.014103
0.020532 0.0225843 0.0142435
0.0212954 0.0218959 0.0159833
0.021486 0.0173928 0.0156323
0.0270571 0.0161745 0.0146569
0.0289359 0.0178655 0.00589895
0.0240735 0.0154631 0.0153608
0.0207814 0.0214139 0.0152618
0.0252792 0.0227781 0.0136394
0.0181547 0.0234561 0.0144253
0.0352545 0.0187435 0.00726735
0.0216869 0.0140652 0.0142568
0.018467 0.0236325 0.0153588
0.031698 0.0218119 0.014793
0.0319321 0.0206848 0.0154312
0.021228 0.0156873 0.0144086
0.0205306 0.0235313 0.0149947
0.0340423 0.0149022 0.0106747
0.0196053 0.0223672 0.0144643
0.0354862 0.0197731 0.00599028
0.0189487 0.0227573 0.0152811
0.0334096 0.0189951 0.00569612
0.0225043 0.0226261 0.0153153
0.0255264 0.0220922 0.0143775
0.0239835 0.0216421 0.00825172
0.0162923 0.0237223 0.0139225
0.0228432 0.0165268 0.0162923
0.0209879 0.0165377 0.0151781
0.0224452 0.0233009 0.0145795
0.0279972 0.0148198 0.0108061
0.0298828 0.0213775 0.00783516
0.0221859 0.0154888 0.014183
0.0324291 0.0187506 0.01578
0.0296332 0.0204167 0.00742488
0.020905 0.0225676 0.0151901
0.0175825 0.0144474 0.0140995
0.0199107 0.0231212 0.0131826
0.0305641 0.0232121 0.0102482
0.0245567 0.0194384 0.00584936
0.0224405 0.0149947 0.0133368
0.0211999 0.0242863 0.0139686
0.0231579 0.0153395 0.0139446
0.020793 0.0138051 0.0138708
0.0258259 0.0210508 0.015298
0.0237967 0.0227626 0.0152445
0.0218092 0.0233328 0.0154567
0.0454623 0.0165053 0.00632503
0.0176845 0.0243083 0.014009
0.0186757 0.0242577 0.0141332
0.0225893 0.0172446 0.0156108
0.0315096 0.0224043 0.0141543
0.0372285 0.0203986 0.00609172
0.0231818 0.0235488 0.0152041
0.0153587 0.0230784 0.0140257
0.0202096 0.0239405 0.0158487
0.0180387 0.0235054 0.0162538
0.0194039 0.0232869 0.0105373
0.0220156 0.0237502 0.0137998
0.0191436 0.0234946 0.0129058
0.0219059 0.020895 0.015559
0.0181329 0.0222979 0.0156392
0.0200272 0.020782 0.0155951
0.0172237 0.0240363 0.0131644
0.0267032 0.0172403 0.0152919
0.0182244 0.0240887 0.0130397
0.0243119 0.0228026 0.00936227
0.0285212 0.0157333 0.00877092
0.089209 0.0204289 0.00606712
0.0214163 0.0234438 0.0145392
0.0547713 0.0184279 0.005953
0.0198119 0.0216404 0.0151184
0.0209583 0.0240372 0.0130418
0.0204064 0.0195265 0.0159239
0.0225636 0.0145645 0.0142625
0.0162469 0.0231739 0.0147577

VERTICES 145 290
1 0
1 1
1 2
1 3
1 4
1 5
1 6
1 7
1 8
1 9
1 10
1 11
1 12
1 13
1 14
1 15
1 16
1 17
1 18
1 19
1 20
1 21
1 22
1 23
1 24
1 25
1 26
1 27
1 28
1 29
1 30
1 31
1 32
1 33
1 34
1 35
1 36
1 37
1 38
1 39
1 40
1 41
1 42
1 43
1 44
1 45
1 46
1 47
1 48
1 49
1 50
1 51
1 52
1 53
1 54
1 55
1 56
1 57
1 58
1 59
1 60
1 61
1 62
1 63
1 64
1 65
1 66
1 67
1 68
1 69
1 70
1 71
1 72
1 73
1 74
1 75
1 76
1 77
1 78
1 79
1 80
1 81
1 82
1 83
1 84
1 85
1 86
1 87
1 88
1 89
1 90
1 91
1 92
1 93
1 94
1 95
1 96
1 97
1 98
1 99
1 100
1 101
1 102
1 103
1 104
1 105
1 106
1 107
1 108
1 109
1 110
1 111
1 112
1 113
1 114
1 115
1 116
1 117
1 118
1 119
1 120
1 121
1 122
1 123
1 124
1 125
1 126
1 127
1 128
1 129
1 130
1 131
1 132
1 133
1 134
1 135
1 136
1 137
1 138
1 139
1 140
1 141
1 142
1 143
1 144

POINT_DATA 145
SCALARS id int 1
LOOKUP_TABLE default
1
2
3
4
5
6
7
10
11
13
14
15
17
19
20
22
23
24
25
27
28
29
30
31
32
34
35
36
37
40
41
42
44
45
46
47
49
50
51
53
54
55
57
59
60
61
63
64
65
66
67
68
69
70
71
73
74
75
78
79
81
82
83
84
85
87
88
90
92
93
95
96
97
101
102
106
107
108
109
110
111
112
113
114
115
116
117
118
121
122
123
124
125
126
128
129
130
131
132
133
134
135
136
137
138
139
141
142
143
144
145
146
147
148
149
150
151
152
153
154
155
158
159
160
162
164
165
166
167
168
169
170
171
172
173
176
177
178
180
182
183
185
187
188
189

SCALARS type int 1
LOOKUP_TABLE default
1
1
1
1
1
1
1
1
1
1
1
1
1
1
1
1
1
1
1
1
1
1
1
1
1
1
1
1
1
1
1
1
1
1
1
1
1
1
1
1
1
1
1
1
1
1
1
1
1
1
1
1
1
1
1
1
1
1
1
1
1
1
1
1
1
1
1
1
1
1
1
1
1
1
1
1
1
1
1
1
1
1
1
1
1
1
1
1
1
1
1
1
1
1
1
1
1
1
1
1
1
1
1
1
1
1
1
1
1
1
1
1
1
1
1
1
1
1
1
1
1
1
1
1
1
1
1
1
1
1
1
1
1
1
1
1
1
1
1
1
1
1
1
1
1

SCALARS radius float 1
LOOKUP_TABLE default
0.0005
0.0005
0.0005
0.0005
0.0005
0.0005
0.0005
0.0005
0.0005
0.0005
0.0005
0.0005
0.0005
0.0005
0.0005
0.0005
0.0005
0.0005
0.0005
0.0005
0.0005
0.0005
0.0005
0.0005
0.0005
0.0005
0.0005
0.0005
0.0005
0.0005
0.0005
0.0005
0.0005
0.0005
0.0005
0.0005
0.0005
0.0005
0.0005
0.0005
0.0005
0.0005
0.0005
0.0005
0.0005
0.0005
0.0005
0.0005
0.0005
0.0005
0.0005
0.0005
0.0005
0.0005
0.0005
0.0005
0.0005
0.0005
0.0005
0.0005
0.0005
0.0005
0.0005
0.0005
0.0005
0.0005
0.0005
0.0005
0.0005
0.0005
0.0005
0.0005
0.0005
0.0005
0.0005
0.0005
0.0005
0.0005
0.0005
0.0005
0.0005
0.0005
0.0005
0.0005
0.0005
0.0005
0.0005
0.0005
0.0005
0.0005
0.0005
0.0005
0.0005
0.0005
0.0005
0.0005
0.0005
0.0005
0.0005
0.0005
0.0005
0.0005
0.0005
0.0005
0.0005
0.0005
0.0005
0.0005
0.0005
0.0005
0.0005
0.0005
0.0005
0.0005
0.0005
0.0005
0.0005
0.0005
0.0005
0.0005
0.0005
0.0005
0.0005
0.0005
0.0005
0.0005
0.0005
0.0005
0.0005
0.0005
0.0005
0.0005
0.0005
0.0005
0.0005
0.0005
0.0005
0.0005
0.0005
0.0005
0.0005
0.0005
0.0005
0.0005
0.0005

SCALARS mass float 1
LOOKUP_TABLE default
5.23599e-07
5.23599e-07
5.23599e-07
5.23599e-07
5.23599e-07
5.23599e-07
5.23599e-07
5.23599e-07
5.23599e-07
5.23599e-07
5.23599e-07
5.23599e-07
5.23599e-07
5.23599e-07
5.23599e-07
5.23599e-07
5.23599e-07
5.23599e-07
5.23599e-07
5.23599e-07
5.23599e-07
5.23599e-07
5.23599e-07
5.23599e-07
5.23599e-07
5.23599e-07
5.23599e-07
5.23599e-07
5.23599e-07
5.23599e-07
5.23599e-07
5.23599e-07
5.23599e-07
5.23599e-07
5.23599e-07
5.23599e-07
5.23599e-07
5.23599e-07
5.23599e-07
5.23599e-07
5.23599e-07
5.23599e-07
5.23599e-07
5.23599e-07
5.23599e-07
5.23599e-07
5.23599e-07
5.23599e-07
5.23599e-07
5.23599e-07
5.23599e-07
5.23599e-07
5.23599e-07
5.23599e-07
5.23599e-07
5.23599e-07
5.23599e-07
5.23599e-07
5.23599e-07
5.23599e-07
5.23599e-07
5.23599e-07
5.23599e-07
5.23599e-07
5.23599e-07
5.23599e-07
5.23599e-07
5.23599e-07
5.23599e-07
5.23599e-07
5.23599e-07
5.23599e-07
5.23599e-07
5.23599e-07
5.23599e-07
5.23599e-07
5.23599e-07
5.23599e-07
5.23599e-07
5.23599e-07
5.23599e-07
5.23599e-07
5.23599e-07
5.23599e-07
5.23599e-07
5.23599e-07
5.23599e-07
5.23599e-07
5.23599e-07
5.23599e-07
5.23599e-07
5.23599e-07
5.23599e-07
5.23599e-07
5.23599e-07
5.23599e-07
5.23599e-07
5.23599e-07
5.23599e-07
5.23599e-07
5.23599e-07
5.23599e-07
5.23599e-07
5.23599e-07
5.23599e-07
5.23599e-07
5.23599e-07
5.23599e-07
5.23599e-07
5.23599e-07
5.23599e-07
5.23599e-07
5.23599e-07
5.23599e-07
5.23599e-07
5.23599e-07
5.23599e-07
5.23599e-07
5.23599e-07
5.23599e-07
5.23599e-07
5.23599e-07
5.23599e-07
5.23599e-07
5.23599e-07
5.23599e-07
5.23599e-07
5.23599e-07
5.23599e-07
5.23599e-07
5.23599e-07
5.23599e-07
5.23599e-07
5.23599e-07
5.23599e-07
5.23599e-07
5.23599e-07
5.23599e-07
5.23599e-07
5.23599e-07
5.23599e-07
5.23599e-07
5.23599e-07
5.23599e-07
5.23599e-07

VECTORS velocity float
0.0137601 -0.000600588 0.00338111
-0.00799416 -0.00341849 -0.00559665
0.000366023 -0.0511613 0.00965611
0.00667611 0.0211722 -0.000646898
0.0121638 -0.000828788 0.00612273
7.14181e-15 -1.48915e-14 -1.82203e-13
0.00185956 0.00817644 0.0456762
-0.0002024 -0.00158821 -0.00235267
0.00238246 -0.0405226 -0.0195104
0.000360568 -0.0106941 0.0512039
0.00525167 -0.0411445 -0.000409955
-0.326521 -0.893629 0.752885
0.00866894 0.0156085 -0.0145937
-0.00397034 -0.00285512 -0.00713699
5.74527e-20 1.68449e-19 1.07802e-19
0.00938543 -0.00549345 -0.0273787
0.000487192 -0.0267404 0.0445957
-1.63695e-14 1.41123e-16 -1.92034e-13
-0.00083794 0.000199326 -0.0515899
0.00519272 -0.00810283 -0.0102699
-0.00339955 0.0132481 -0.00215997
0.000790151 -0.00653634 0.00640402
0.00621809 0.002821 -0.000150404
0.00447158 0.0460741 -0.0423053
0.0013776 0.0486135 0.00957337
-0.016389 -0.0116187 0.032901
0.00413085 0.0294105 -0.00680685
0.00394762 -0.000421245 0.00166357
-0.00171866 -0.00151252 -0.00127497
0.000843881 0.0400487 0.0332722
0.000972069 -0.0218404 0.0140391
0.00431071 0.00098161 -0.000451633
-0.0373207 0.0141603 -0.0119617
0.00120539 0.00760932 0.0136881
-0.000149882 -0.0484114 -0.0222925
-0.00298153 0.000172866 -0.00183212
-0.00912669 0.00240968 -0.00903295
-0.873396 -2.28732 0.231648
-0.00110135 0.0103487 -0.0239849
-0.00265966 0.00618704 0.00021218
-1.69478e-14 -2.73007e-15 2.76309e-13
0.000475178 0.0462902 0.0188884
-0.00232815 -0.000261549 0.00338239
0.0158467 0.00510181 0.018083
0.00818151 -0.00647164 -0.0176837
-8.7122e-15 1.01217e-16 -1.02212e-13
-0.00334366 0.0267654 0.0537997
0.0011483 -0.00315059 -0.00828974
0.0116132 0.00896028 0.00763929
-0.000809859 0.032972 -0.00758429
0.0020717 -0.000534389 0.0354809
0.000206738 0.0261383 0.0460792
0.000902732 0.0222729 -0.0495112
-0.0944426 -0.521362 -0.154617
0.000828506 0.0348213 0.0452776
0.0106251 -0.00175073 -0.0096704
0.00324812 -0.00106592 0.00743274
0.00509689 0.0338432 0.0415378
0.00179744 0.0255834 -0.0328931
-2.01303e-15 1.47501e-16 -1.82296e-14
0.0169127 0.0271912 -0.0079481
0.0127135 -0.100238 -0.097142
0.0027751 -0.00521958 -0.0274168
0.00251191 0.00517615 -0.00626955
0.000406984 -0.0503208 0.0110901
0.0051564 0.00787756 -0.00207508
-0.00605868 0.0200159 0.018508
0.0108965 0.0174596 0.00970873
-0.00348567 0.0102962 0.0128929
0.00941982 -0.0168937 0.0283939
0.00132531 0.0352369 -0.0409208
0.0259116 -0.00875829 0.0080079
-0.00367811 -0.000386169 -0.00318991
-5.15462e-05 0.021159 0.0107356
0.00106182 0.0247676 0.0254545
-8.71399e-15 2.6978e-17 -1.02212e-13
0.000706888 0.00420654 0.00359066
0.000627678 0.0175156 -0.0114496
0.00173675 0.0303373 -0.0451125
0.0130811 -0.000542079 0.00753734
0.00120947 -0.0547649 -0.0014735
-0.00703839 -0.000219107 -0.00516173
0.00219785 -0.00598486 0.0128541
0.00090326 0.0434455 -0.0299293
0.000184159 0.0469227 -0.0195493
0.00808721 0.0115697 0.0194333
-0.00448379 -0.00126942 -0.00986079
0.00455025 -0.0058247 0.0351893
0.0254993 0.00898543 -0.00388139
3.68545e-15 2.13611e-14 -8.2683e-14
-0.00150722 -0.00151052 -0.0045913
-9.80889e-20 1.39604e-21 -2.56646e-20
0.0032078 0.00384508 -0.00310446
0.000140898 0.0363432 -0.0387856
0.000510007 -0.0408865 -0.0309772
0.00492881 0.00217512 -0.00183095
0.0544383 -0.0102971 -0.0927576
0.0167936 0.0116993 -0.00884398
0.00166173 0.000736901 -0.00187775
9.3681e-05 -0.0146206 0.0477197
0.00621698 -0.0317367 -0.0176013
0.0087501 0.00722521 0.00190474
0.00452865 0.0358998 0.00644529
0.00125733 -0.033691 -0.00988228
0.00751821 0.00233412 -0.00945766
-0.0632886 -0.00527602 0.0386252
0.00392119 0.00574579 -0.0205202
0.001353 -0.0140072 -0.0470853
2.09936e-14 3.43252e-15 -3.4245e-13
0.0111646 0.00446636 0.0027153
0.0022768 -0.00196421 0.00152088
0.00772677 0.00822827 0.0077491
-0.00146626 0.00585329 -0.0133413
0.002364 0.0366268 -0.0215785
0.000282771 -0.00370199 -0.00262775
0.00298209 0.00285706 -0.0170219
-6.82167e-15 -3.79636e-14 -2.61338e-13
-0.00266786 -0.000630157 0.00157239
-0.000841258 0.00535812 0.00231601
0.00257758 0.0102731 -0.00408437
0.00111326 0.0290564 -0.0397584
-4.75932e-15 1.47981e-14 -6.81585e-14
0.000622731 -0.000758815 -0.000154991
0.0052188 -0.02021 -0.047731
-0.00676413 -0.000837357 -0.0109367
-0.0169344 -0.00451724 0.00511635
-0.0388906 -0.714636 0.751685
0.00129322 0.00196818 -4.92073e-05
0.00697422 0.00337587 -0.0212669
0.0143792 0.000856877 -0.000897237
0.0176044 0.0046383 -0.00312373
0.00601986 0.0224456 -0.0117661
-0.00034699 5.29193e-05 5.20669e-05
0.00111346 0.047229 0.0179008
3.86082e-05 0.000887899 -0.000488619
0.00568683 -0.0123626 -0.0213441
0.00255476 -0.0238122 0.0265418
-7.39741e-15 -1.35385e-14 8.92923e-14
-0.00113031 -8.62382e-05 -0.00215722
5.40565e-15 7.38275e-15 1.04259e-13
0.00405489 0.0272958 -0.0218969
0.000723838 9.54725e-05 -0.00353228
-1.08325e-07 0.0494271 -0.00495854
-0.00370523 0.00220038 -0.00686057
0.00787217 0.00403899 -0.00124241

VECTORS force float
3.74737e-05 -2.00156e-05 2.3931e-05
3.0332e-05 3.56079e-05 7.91555e-06
1.0835e-07 -4.2612e-07 4.53763e-07
-8.62022e-06 2.48797e-05 1.74897e-05
-2.65054e-07 3.43928e-08 -5.17426e-06
4.98505e-19 -4.52527e-19 5.50571e-20
-1.67688e-07 2.28544e-07 2.95011e-07
-4.20659e-05 2.33861e-05 1.12149e-05
-2.76144e-07 -3.31811e-07 6.57023e-08
-4.303e-09 2.03129e-07 1.21745e-07
-3.50465e-06 -3.20163e-05 5.15518e-06
0.0 0.0 -5.1365e-06
0.0 0.0 -5.1365e-06
-7.07484e-06 1.47332e-06 -5.32179e-06
0.0 0.0 0.0
0.000102035 -2.52105e-05 -0.000110149
-3.46857e-09 1.47432e-07 2.09605e-07
0.0 2.05596e-20 0.0
3.27057e-07 -2.91728e-07 1.56381e-06
5.37105e-05 -5.14286e-05 -0.000102632
0.0 0.0 -5.1365e-06
-5.6434e-05 2.60659e-05 6.5045e-06
6.69061e-07 -1.116e-06 -4.44669e-06
0.0 0.0 -5.1365e-06
-6.06436e-09 8.15826e-08 -2.7311e-07
0.0 0.0 -5.1365e-06
8.14142e-07 -3.93255e-06 -2.90051e-06
-2.19167e-06 -1.26739e-06 -2.9801e-06
-2.45204e-06 -4.30752e-06 -2.44849e-06
-8.49831e-07 2.31371e-06 1.65151e-06
1.54499e-06 4.4842e-07 1.9778e-06
-1.29926e-05 4.84179e-06 -6.56875e-06
0.0 0.0 -5.1365e-06
-2.76161e-07 1.09088e-06 1.28782e-06
1.02112e-07 -3.88651e-07 3.28568e-08
6.82252e-07 -1.06218e-07 -3.2108e-06
1.53987e-07 7.77485e-07 -4.42881e-06
0.00764052 0.305309 -0.137538
-0.000150172 1.56621e-05 -0.000111347
-0.000238771 1.57217e-05 1.52575e-05
2.11758e-22 4.05649e-21 0.0
-1.82011e-08 1.94772e-07 -1.59139e-07
-1.37237e-07 1.21049e-06 -6.55861e-07
-3.00317e-05 -3.61042e-05 2.25715e-05
3.71304e-05 -1.29414e-05 -1.78855e-05
2.11758e-22 2.25259e-19 0.0
-6.89054e-07 3.5082e-08 1.03109e-06
0.0 0.0 -5.1365e-06
-7.25927e-07 -1.19193e-06 6.17101e-06
-1.39484e-06 -6.52884e-07 4.58299e-06
5.70698e-09 7.40886e-08 -4.43322e-07
-2.72984e-07 1.93402e-07 -1.04129e-07
5.9941e-08 -2.87464e-07 2.86392e-07
-0.0142622 0.0186616 -0.041432
2.5131e-06 -2.36657e-06 1.5089e-06
2.43439e-06 7.64494e-06 8.19606e-06
2.51818e-06 -9.78534e-06 3.89137e-06
1.24747e-06 1.25578e-07 -3.0522e-06
-1.68479e-05 -4.16794e-06 -8.32308e-06
3.39872e-20 1.15985e-18 5.33631e-20
0.0 0.0 -5.1365e-06
0.0 0.0 -5.1365e-06
0.0 0.0 -5.1365e-06
-3.10815e-05 -2.47958e-06 -7.15949e-06
-8.1399e-09 -9.16847e-08 2.76997e-07
1.33119e-05 -5.7234e-06 9.29505e-06
0.0 0.0 -5.1365e-06
-1.59592e-05 4.30729e-05 4.57436e-05
2.66534e-07 -5.00482e-07 -2.14956e-06
-0.0043479 0.0033565 0.00189839
1.41184e-08 -1.29866e-07 -1.46416e-07
0.000249903 6.34636e-05 -8.05077e-05
-4.74586e-06 3.78307e-07 -2.14444e-06
0.0 0.0 -5.1365e-06
-3.21392e-05 0.000117317 7.30079e-05
-2.64698e-22 -1.58734e-19 0.0
4.41256e-07 -1.33864e-06 -5.87799e-06
2.76844e-07 2.89778e-06 -3.29733e-06
6.88559e-08 -1.41922e-07 -2.69721e-07
6.62855e-07 -9.10636e-06 1.46163e-06
3.75854e-08 -3.14423e-08 2.13558e-07
-2.22837e-06 1.60843e-05 1.24201e-05
0.0 0.0 -5.1365e-06
-2.5648e-08 -6.68901e-08 -2.02181e-07
-8.19026e-09 -1.3549e-08 -2.52981e-07
0.0 0.0 -5.1365e-06
6.20141e-07 -1.63034e-06 -5.14484e-06
-6.9875e-06 1.79282e-05 -1.38099e-05
-0.000978617 -0.000202489 0.000200614
1.19696e-19 -5.92923e-20 -9.31736e-21
9.40378e-08 2.07644e-05 3.41729e-06
-6.88214e-22 0.0 0.0
-3.84557e-08 5.96507e-06 -2.95508e-06
2.58783e-09 -1.2052e-07 -2.43967e-07
-3.18556e-08 -2.13989e-07 1.23137e-07
1.09324e-07 3.23097e-06 -1.89245e-07
0.0 0.0 -5.1365e-06
-2.46084e-06 2.57885e-07 -4.48445e-06
-2.89227e-06 7.68704e-06 -1.14394e-05
5.87773e-07 4.78106e-07 -9.83916e-07
9.10131e-06 1.45867e-05 1.35148e-05
0.0 0.0 -5.1365e-06
1.10708e-05 -1.54977e-05 7.31258e-07
-1.33515e-07 -7.45757e-07 -3.43887e-07
0.0 0.0 -5.1365e-06
0.0 0.0 -5.1365e-06
-9.4211e-05 -1.24135e-05 -3.48413e-05
-1.81761e-08 -2.34813e-07 -4.13867e-08
1.79995e-20 1.04721e-19 2.5411e-21
-1.13684e-05 -2.53839e-05 2.90037e-05
-2.35869e-05 -1.74285e-05 4.80215e-06
-4.13635e-06 -1.72868e-06 -2.33904e-06
-5.52871e-07 2.83298e-06 -1.72349e-06
7.00697e-08 -1.39527e-08 -2.50396e-07
-4.96219e-06 -3.27878e-06 -2.36968e-06
0.0 0.0 -5.1365e-06
1.53551e-19 1.32349e-19 -2.37169e-20
7.09391e-06 -7.31006e-07 -9.45631e-07
-3.24288e-05 -8.67893e-06 -2.10951e-05
0.0 0.0 -5.1365e-06
-1.04158e-07 -7.8334e-08 -2.82524e-07
8.29933e-19 -1.38702e-19 -8.30092e-20
-2.61145e-06 -7.40525e-06 8.3762e-06
1.40494e-06 -1.54693e-06 -2.82419e-06
-5.79755e-06 1.08796e-06 -1.49497e-07
0.0 0.0 -5.1365e-06
-0.0337296 -0.0754648 0.0308065
-1.19959e-05 -1.5355e-05 2.79837e-05
-3.07084e-05 -4.30541e-07 -6.17902e-05
1.06343e-05 1.22764e-05 -1.77614e-06
-3.75676e-07 -1.46242e-06 -1.56911e-06
0.0 0.0 -5.1365e-06
1.54396e-06 3.2125e-07 1.39199e-07
2.4421e-07 9.77365e-07 -9.91365e-08
-8.93825e-08 4.16205e-07 -2.96179e-06
2.99139e-05 -1.61788e-05 5.72771e-06
-5.63333e-06 4.06989e-06 -9.40308e-07
5.29396e-23 1.28114e-20 1.69407e-21
4.32411e-06 -8.1732e-07 -5.78315e-06
1.61037e-18 -4.07635e-21 -8.21622e-20
3.26187e-06 -7.64308e-05 2.14988e-05
-0.000148432 -1.01473e-05 -5.62456e-05
5.72155e-10 1.02222e-08 -2.90278e-07
-2.95882e-07 7.8378e-07 -4.0384e-06
-8.94264e-07 9.71308e-06 -3.67053e-06
