# vtk DataFile Version 3.0
LIGGGHTS particles timestep 5200000
ASCII
DATASET POLYDATA
POINTS 141 float
0.0230254 0.022509 0.00901964
0.0243805 0.018111 0.0167131
0.0155761 0.0158818 0.016454
0.0204056 0.0165443 0.0160611
0.0234529 0.0232154 0.0104515
0.0592595 0.0187057 0.00589343
0.0285602 0.0206969 0.00754655
0.0183389 0.0241478 0.0131604
0.036892 0.0201507 0.0156591
0.0199269 0.0196447 0.020398
0.0246132 0.0182739 0.0177999
0.0167712 0.0220313 0.0180677
0.0212394 0.0151778 0.0136825
0.0179423 0.023361 0.0126139
0.0348057 0.0188147 0.00571237
0.0204072 0.0146439 0.0129033
0.0242691 0.0156484 0.0155393
0.0287043 0.0203856 0.00592074
0.0317223 0.0166878 0.0151157
0.0312161 0.0186423 0.0158078
0.0192278 0.0139811 0.0130018
0.0426719 0.0378867 0.0702281
0.0211558 0.0111097 0.0278947
0.0310263 0.0190318 0.0057217
0.0206402 0.019512 0.0166889
0.0193414 0.0184461 0.0159029
0.0331042 0.0152045 0.00960985
0.0153796 0.0232962 0.0145901
0.0340318 0.0185942 0.00727071
0.0297176 0.023366 0.0118724
0.0200941 0.0239973 0.0139135
0.0187921 0.0143125 0.0138444
0.0195018 0.017716 0.0182549
0.0211719 0.0164511 0.0168794
0.0209704 0.0172667 0.0156116
0.021883 0.0148469 0.0129465
0.0200197 0.0150972 0.0148792
0.0214977 0.0164114 0.00808978
0.0203335 0.0240732 0.0127936
0.0267383 0.0182025 0.00597096
0.033672 0.0170151 0.00769888
0.0244788 0.0205112 0.0166235
0.0265094 0.0222521 0.0237748
0.0202294 0.0152819 0.0139208
0.0295848 0.0197284 0.00584514
0.0282166 0.0194852 0.00719215
0.0159519 0.0227942 0.0152362
0.0215961 0.016377 0.015056
0.0246368 0.0166866 0.0162324
0.0348195 0.0219114 0.00824185
0.0346074 0.0210613 0.00777463
0.0319491 0.0157858 0.0142765
0.01972 0.0169744 0.0154628
0.0248394 0.0209097 0.015538
0.0197855 0.0205595 0.0157029
0.0257571 0.0189397 0.0159244
0.0258677 0.0194427 0.0167938
0.0193644 0.0242703 0.0132565
0.0224608 0.0197816 0.00583582
0.0180248 0.0243735 0.0189766
0.0299872 0.0187749 0.00581007
0.0178308 0.0237708 0.0145198
0.0197803 0.0233164 0.0126832
0.0267156 0.0233173 0.012353
0.0182133 0.0140349 0.0130777
0.0212044 0.0142387 0.0133421
0.0194796 0.0156608 0.0159032
0.0301423 0.0228228 0.013547
0.0274411 0.0150668 0.00990381
0.0232554 0.0229836 0.00965828
0.0208972 0.0158152 0.0145655
0.0187481 0.0237258 0.0140874
0.0279713 0.0181823 0.00727781
0.0289359 0.0178655 0.00589895
0.0214681 0.0152747 0.0160506
0.0193763 0.0239013 0.0158166
0.0260597 0.0154611 0.0139312
0.0197348 0.0229414 0.013659
0.0362808 0.0223197 0.0142492
0.022873 0.0146723 0.0144246
0.0181324 0.0231462 0.0135567
0.0325613 0.0148014 0.0117603
0.0327998 0.0148551 0.0106931
0.0169234 0.032044 0.0411171
0.0187316 0.0225531 0.0142657
0.0350643 0.0225906 0.00909446
0.0222088 0.0190884 0.00717688
0.0354862 0.0197731 0.00599028
0.0220126 0.0143381 0.0148567
0.0337093 0.0189563 0.00569961
0.0161142 0.00739257 0.0419152
0.0264931 0.0148295 0.0120975
0.0250649 0.0196122 0.0159215
0.0189405 0.0235365 0.0119424
0.0205076 0.0184651 0.0159182
0.0219749 0.0214553 0.0165258
0.0287651 0.0216441 0.00802772
0.0309768 0.0198743 0.0157113
0.0103392 -0.0012928 0.0678959
0.0333194 0.0158459 0.0086731
0.0304052 0.0219271 0.0147001
0.0207574 0.0137747 0.014096
0.0218854 0.0156114 0.0143111
0.0217749 0.0173873 0.00751497
0.0315108 0.0175032 0.0155108
0.0245567 0.0194384 0.00584936
0.023488 0.0171121 0.016389
0.0206492 0.0235173 0.0147485
0.0253665 0.0210213 0.0164033
0.0220553 0.0145077 0.0138712
0.0267134 0.0147555 0.0110795
0.0144138 0.0193827 0.0226157
0.0454623 0.0165053 0.00632503
0.0144713 0.0156175 0.0144694
0.0180569 0.0215364 0.0162535
0.024591 0.0218737 0.0156865
0.0322623 0.0151346 0.0131802
0.0372285 0.0203986 0.00609172
0.0210346 0.0166107 0.0215998
0.0181541 0.0233552 0.0110666
0.01886 0.0232554 0.0129279
0.0142797 0.0224528 0.0143594
0.019753 0.0139596 0.0138766
0.0228044 0.0229433 0.0151278
0.0206111 0.0146271 0.0119274
0.0242221 0.0220626 0.0147733
0.0224353 0.0153696 0.015248
0.0166965 0.0236634 0.0147676
0.0165001 0.023802 0.0137734
0.0276226 0.016817 0.00780039
0.0172746 0.0240517 0.0131913
0.0253659 0.0181229 0.015855
0.0294849 0.023323 0.0107274
0.089209 0.0204289 0.00606712
0.0192595 0.0195893 0.0159141
0.0547713 0.0184279 0.005953
0.0170717 0.0233649 0.0178123
0.0211975 0.0239917 0.0132531
0.0144804 0.0230667 0.015126
0.0236105 0.0151144 0.0149669
0.017646 0.02345 0.0116947

VERTICES 141 282
1 0
1 1
1 2
1 3
1 4
1 5
1 6
1 7
1 8
1 9
1 10
1 11
1 12
1 13
1 14
1 15
1 16
1 17
1 18
1 19
1 20
1 21
1 22
1 23
1 24
1 25
1 26
1 27
1 28
1 29
1 30
1 31
1 32
1 33
1 34
1 35
1 36
1 37
1 38
1 39
1 40
1 41
1 42
1 43
1 44
1 45
1 46
1 47
1 48
1 49
1 50
1 51
1 52
1 53
1 54
1 55
1 56
1 57
1 58
1 59
1 60
1 61
1 62
1 63
1 64
1 65
1 66
1 67
1 68
1 69
1 70
1 71
1 72
1 73
1 74
1 75
1 76
1 77
1 78
1 79
1 80
1 81
1 82
1 83
1 84
1 85
1 86
1 87
1 88
1 89
1 90
1 91
1 92
1 93
1 94
1 95
1 96
1 97
1 98
1 99
1 100
1 101
1 102
1 103
1 104
1 105
1 106
1 107
1 108
1 109
1 110
1 111
1 112
1 113
1 114
1 115
1 116
1 117
1 118
1 119
1 120
1 121
1 122
1 123
1 124
1 125
1 126
1 127
1 128
1 129
1 130
1 131
1 132
1 133
1 134
1 135
1 136
1 137
1 138
1 139
1 140

POINT_DATA 141
SCALARS id int 1
LOOKUP_TABLE default
1
2
3
4
5
6
7
10
11
13
14
15
17
19
20
22
23
24
25
27
28
29
30
31
32
34
35
36
40
41
42
44
45
46
47
49
50
51
53
54
55
57
59
60
61
63
64
65
66
67
68
69
70
71
73
74
75
78
79
81
82
83
84
85
87
88
92
93
95
96
97
101
102
106
107
108
109
110
111
112
113
114
115
116
117
118
121
122
123
124
125
126
128
129
130
132
133
134
135
136
137
138
139
141
142
143
144
145
146
147
148
150
151
152
153
154
155
158
159
160
162
164
165
166
167
168
169
170
171
172
173
176
177
178
180
182
183
185
187
188
189

SCALARS type int 1
LOOKUP_TABLE default
1
1
1
1
1
1
1
1
1
1
1
1
1
1
1
1
1
1
1
1
1
1
1
1
1
1
1
1
1
1
1
1
1
1
1
1
1
1
1
1
1
1
1
1
1
1
1
1
1
1
1
1
1
1
1
1
1
1
1
1
1
1
1
1
1
1
1
1
1
1
1
1
1
1
1
1
1
1
1
1
1
1
1
1
1
1
1
1
1
1
1
1
1
1
1
1
1
1
1
1
1
1
1
1
1
1
1
1
1
1
1
1
1
1
1
1
1
1
1
1
1
1
1
1
1
1
1
1
1
1
1
1
1
1
1
1
1
1
1
1
1

SCALARS radius float 1
LOOKUP_TABLE default
0.0005
0.0005
0.0005
0.0005
0.0005
0.0005
0.0005
0.0005
0.0005
0.0005
0.0005
0.0005
0.0005
0.0005
0.0005
0.0005
0.0005
0.0005
0.0005
0.0005
0.0005
0.0005
0.0005
0.0005
0.0005
0.0005
0.0005
0.0005
0.0005
0.0005
0.0005
0.0005
0.0005
0.0005
0.0005
0.0005
0.0005
0.0005
0.0005
0.0005
0.0005
0.0005
0.0005
0.0005
0.0005
0.0005
0.0005
0.0005
0.0005
0.0005
0.0005
0.0005
0.0005
0.0005
0.0005
0.0005
0.0005
0.0005
0.0005
0.0005
0.0005
0.0005
0.0005
0.0005
0.0005
0.0005
0.0005
0.0005
0.0005
0.0005
0.0005
0.0005
0.0005
0.0005
0.0005
0.0005
0.0005
0.0005
0.0005
0.0005
0.0005
0.0005
0.0005
0.0005
0.0005
0.0005
0.0005
0.0005
0.0005
0.0005
0.0005
0.0005
0.0005
0.0005
0.0005
0.0005
0.0005
0.0005
0.0005
0.0005
0.0005
0.0005
0.0005
0.0005
0.0005
0.0005
0.0005
0.0005
0.0005
0.0005
0.0005
0.0005
0.0005
0.0005
0.0005
0.0005
0.0005
0.0005
0.0005
0.0005
0.0005
0.0005
0.0005
0.0005
0.0005
0.0005
0.0005
0.0005
0.0005
0.0005
0.0005
0.0005
0.0005
0.0005
0.0005
0.0005
0.0005
0.0005
0.0005
0.0005
0.0005

SCALARS mass float 1
LOOKUP_TABLE default
5.23599e-07
5.23599e-07
5.23599e-07
5.23599e-07
5.23599e-07
5.23599e-07
5.23599e-07
5.23599e-07
5.23599e-07
5.23599e-07
5.23599e-07
5.23599e-07
5.23599e-07
5.23599e-07
5.23599e-07
5.23599e-07
5.23599e-07
5.23599e-07
5.23599e-07
5.23599e-07
5.23599e-07
5.23599e-07
5.23599e-07
5.23599e-07
5.23599e-07
5.23599e-07
5.23599e-07
5.23599e-07
5.23599e-07
5.23599e-07
5.23599e-07
5.23599e-07
5.23599e-07
5.23599e-07
5.23599e-07
5.23599e-07
5.23599e-07
5.23599e-07
5.23599e-07
5.23599e-07
5.23599e-07
5.23599e-07
5.23599e-07
5.23599e-07
5.23599e-07
5.23599e-07
5.23599e-07
5.23599e-07
5.23599e-07
5.23599e-07
5.23599e-07
5.23599e-07
5.23599e-07
5.23599e-07
5.23599e-07
5.23599e-07
5.23599e-07
5.23599e-07
5.23599e-07
5.23599e-07
5.23599e-07
5.23599e-07
5.23599e-07
5.23599e-07
5.23599e-07
5.23599e-07
5.23599e-07
5.23599e-07
5.23599e-07
5.23599e-07
5.23599e-07
5.23599e-07
5.23599e-07
5.23599e-07
5.23599e-07
5.23599e-07
5.23599e-07
5.23599e-07
5.23599e-07
5.23599e-07
5.23599e-07
5.23599e-07
5.23599e-07
5.23599e-07
5.23599e-07
5.23599e-07
5.23599e-07
5.23599e-07
5.23599e-07
5.23599e-07
5.23599e-07
5.23599e-07
5.23599e-07
5.23599e-07
5.23599e-07
5.23599e-07
5.23599e-07
5.23599e-07
5.23599e-07
5.23599e-07
5.23599e-07
5.23599e-07
5.23599e-07
5.23599e-07
5.23599e-07
5.23599e-07
5.23599e-07
5.23599e-07
5.23599e-07
5.23599e-07
5.23599e-07
5.23599e-07
5.23599e-07
5.23599e-07
5.23599e-07
5.23599e-07
5.23599e-07
5.23599e-07
5.23599e-07
5.23599e-07
5.23599e-07
5.23599e-07
5.23599e-07
5.23599e-07
5.23599e-07
5.23599e-07
5.23599e-07
5.23599e-07
5.23599e-07
5.23599e-07
5.23599e-07
5.23599e-07
5.23599e-07
5.23599e-07
5.23599e-07
5.23599e-07
5.23599e-07
5.23599e-07
5.23599e-07
5.23599e-07
5.23599e-07

VECTORS velocity float
0.0035319 -0.0253203 -0.0299776
-0.0245311 0.0324048 -0.00711751
-0.0898026 -0.0122635 -0.0757416
0.014772 0.00299101 -0.0130965
0.00314527 -0.00984162 -0.0461465
7.30907e-15 -1.47373e-14 -1.82209e-13
0.000642154 -0.0469186 -0.0189179
-0.00317773 0.00119375 0.00353723
0.0873837 -0.608636 0.177166
-0.170035 0.077952 -0.183508
-0.0578021 0.00758591 0.0456074
0.0477838 -0.116206 0.0413893
0.0133312 0.00167302 0.0116586
0.00750044 0.000546987 -0.0159254
-1.35312e-19 3.00849e-20 7.69566e-20
0.00852002 0.0291589 0.0148292
-0.0097802 -0.0195553 -0.0102815
-1.63701e-14 1.53616e-16 -1.92034e-13
-0.00015109 0.0415551 0.0317408
0.000998496 0.0516494 0.00816285
-1.22514e-06 0.00516105 -0.0085864
1.58772 1.27557 2.40751
0.0690803 0.158537 -0.168809
-1.05609e-15 2.15837e-17 -1.23877e-14
-0.0380356 0.00537647 -0.0332492
0.0013446 0.0493715 0.00693909
0.00521468 -0.0114732 0.0266026
0.0116816 -0.00117175 -0.0190043
-0.000570679 -0.0537601 -0.00234943
0.00054859 0.00397867 -0.049955
0.0400863 0.048129 -0.000884972
0.00597997 0.000350081 0.000445503
-0.270483 -0.197708 0.0366246
0.016461 -2.864e-05 0.0485732
0.0181994 0.03378 0.0146593
0.0348024 0.00422412 0.0126346
-0.00237676 -0.0339128 0.00573133
0.000501273 -0.0423534 0.0312214
0.000956858 -0.00567419 -0.00282521
-1.69476e-14 -2.73236e-15 2.76309e-13
0.000645442 -0.0463469 0.0230867
-0.0110656 0.0643471 -0.016519
-0.0853857 -0.0191752 -0.224046
0.00236791 -0.00212168 0.0142446
-2.40263e-14 2.27137e-16 -2.81859e-13
-9.23678e-05 -0.0459517 -0.00655035
0.0272522 -0.0352726 -0.0357354
-0.00336289 0.00388226 0.0133237
-0.00550171 -0.000327428 0.00628398
-0.0836955 -0.0478013 1.05961
0.0158533 -0.0143602 0.0237276
0.00479666 0.0321226 0.035594
0.018328 0.018676 -0.00421939
0.00444727 0.0413996 -0.0124731
0.00788356 0.052851 -0.00439604
-0.00725655 -0.0208646 -0.015777
-0.00448913 0.0143303 -0.00997003
-0.00655824 -0.0294501 0.0216218
-1.99475e-15 2.20789e-16 -1.8228e-14
-0.0259841 0.0836539 0.0361836
6.60087e-15 -7.25794e-17 7.74361e-14
0.00170009 0.0353829 0.00685668
0.00221123 0.00252605 -0.0205217
0.00146265 0.0101461 -0.0515923
0.000342838 -0.00152269 0.00478539
0.0136914 0.0113756 -0.00058382
-0.0251143 -0.0366534 -0.0926437
0.000407052 0.0264163 -0.0452891
-6.62518e-05 -0.0202678 0.0475645
0.00517251 -0.0115474 -0.0311715
0.0145001 0.0212572 0.0207529
-0.0150766 0.0701669 -0.0880285
0.00038625 -0.0494654 0.0102504
-8.71333e-15 9.08016e-17 -1.02212e-13
0.0176624 -0.0706968 -0.122027
-0.0102248 -0.047731 -0.022398
0.00170926 0.0139035 0.0255122
0.000614112 0.0346676 -0.0495838
-7.36207e-05 0.0385705 -0.0380949
0.0142026 -0.00389229 0.0260068
0.00390374 0.0141289 -0.0197998
0.00348948 0.00287761 0.0441289
0.000404245 -0.00995205 0.0502442
-0.275563 0.463926 1.14053
-0.00257126 0.0395629 -0.0778109
-0.000191146 -0.027411 -0.0452555
0.124153 3.30381 10.7956
3.75219e-15 2.13643e-14 -8.26791e-14
-0.00159938 -0.0205619 0.0177915
2.3467e-20 -5.35468e-19 1.00758e-19
0.0742591 -0.0379976 -0.102983
0.0311456 -0.0131654 0.0344127
0.0178841 0.0544165 0.0077447
0.0169211 -0.038413 0.0156028
0.00383231 0.0407925 0.099503
-0.0427776 0.0153111 -0.04851
0.00235289 -0.0294536 -0.0209899
0.000580252 0.0474115 -0.0111935
-0.419721 -0.360335 1.1182
0.00171227 -0.034277 0.0388301
0.00109971 0.0321785 -0.0304496
-0.00951722 0.0479425 0.0192879
0.0372955 0.00349595 -0.00799064
0.00157037 -0.0426964 0.0213522
0.00090348 0.0469464 0.0173065
2.10116e-14 3.38446e-15 -3.42449e-13
0.00302518 0.0245898 0.00794292
0.045009 0.0472851 0.0284815
-0.0326011 -0.0114698 0.00533512
-0.00263028 -0.00688919 0.0160356
0.000557753 -0.00644002 0.0515137
0.363656 0.0403579 0.23408
-6.86051e-15 -3.79635e-14 -2.61337e-13
0.0399185 -0.0437941 -0.0412262
-0.0459463 0.00868923 -0.0453273
0.00823871 0.0213739 0.00655517
0.000282388 0.0194906 0.0503857
-4.15982e-15 1.4898e-14 -6.81752e-14
0.075903 -0.198724 0.159761
0.00655675 -0.00187097 -0.0107755
0.00569698 0.00219594 -0.0156906
0.00808201 0.0139355 -0.00242889
-0.0248175 -0.0463415 -0.0799024
0.0579676 0.0431862 0.0120511
0.0121659 -0.00356329 0.00492013
0.0017414 0.00380334 -0.000717832
0.00556713 0.00424516 0.00965597
-0.0409536 0.0155741 -0.00335545
0.00183256 0.0100715 0.00108551
0.00412079 -0.0359611 0.0238602
0.00862854 0.0012027 -0.00441648
0.00543417 -0.0276133 -0.00791432
0.00281222 -0.00494537 -0.0374522
-7.39741e-15 -1.34967e-14 8.92987e-14
-3.19037e-05 0.0494876 -0.00638625
5.38412e-15 7.20423e-15 1.04272e-13
-0.0365357 -0.102041 0.0146589
-0.00111847 0.00405561 -0.00048517
0.0218076 -0.00467553 -0.00399213
0.00580601 0.00648469 0.00263451
0.00712146 -0.00105799 -0.0129096

VECTORS force float
-2.42717e-07 -1.4245e-06 -1.23482e-06
0.0 0.0 -5.1365e-06
0.0 0.0 -5.1365e-06
0.0 0.0 -5.1365e-06
-3.21907e-07 -6.6869e-07 -3.17136e-06
2.02825e-18 6.94938e-19 2.28699e-20
-4.96276e-08 -2.13232e-07 1.38051e-07
0.0 0.0 -5.1365e-06
-0.0529883 0.00888425 -0.0144233
0.0 0.0 -5.1365e-06
0.0 0.0 -5.1365e-06
0.0 0.0 -5.1365e-06
1.54458e-05 -2.52673e-05 8.90564e-05
-5.45885e-06 -2.07987e-05 -2.10071e-05
0.0 0.0 0.0
5.25283e-05 5.97026e-05 -1.25999e-05
0.0 0.0 -5.1365e-06
0.0 9.84345e-22 0.0
5.82181e-08 1.04539e-07 -1.4414e-07
2.36795e-07 -3.00757e-07 -2.46872e-07
1.3926e-10 1.53474e-06 -2.71578e-06
0.0 0.0 -5.1365e-06
0.0 0.0 -5.1365e-06
5.29396e-22 2.3573e-20 0.0
0.0 0.0 -5.1365e-06
-2.73088e-08 8.84053e-08 -2.70502e-07
0.00013092 -4.83961e-05 4.04306e-05
-0.000133572 0.000352159 -6.77362e-06
-4.31538e-09 6.90711e-09 2.09742e-07
1.82961e-08 -1.70988e-07 -3.2424e-08
0.0 0.0 -5.1365e-06
2.04933e-07 -1.25012e-07 -4.43017e-06
0.0 0.0 -5.1365e-06
0.0 0.0 -5.1365e-06
0.0 0.0 -5.1365e-06
-1.55395e-05 1.31118e-06 7.7419e-05
-3.4157e-05 -4.61514e-05 0.000170084
-7.03012e-09 6.52381e-08 2.33859e-07
5.73655e-06 -4.28072e-06 2.69591e-05
-5.29396e-23 2.55433e-21 0.0
-5.74591e-08 1.5456e-09 2.56536e-07
0.0 0.0 -5.1365e-06
0.0 0.0 -5.1365e-06
3.4157e-05 4.61514e-05 -0.000180357
1.16467e-21 1.56271e-20 0.0
-8.40761e-08 -3.8308e-07 4.34316e-07
8.19065e-05 -6.43923e-05 5.12094e-05
0.0 0.0 -5.1365e-06
-7.65438e-08 1.00193e-08 4.39811e-07
0.017377 -0.0126155 0.0111466
-0.00013099 0.00210116 -0.00163386
8.72922e-05 6.41722e-05 0.000106581
0.0 0.0 -5.1365e-06
-9.37532e-07 2.40851e-06 -2.96513e-06
0.0 0.0 -5.1365e-06
0.00059386 0.000792508 -2.01361e-05
0.0 0.0 -5.1365e-06
0.0 0.0 -5.1365e-06
-5.21984e-19 -1.25297e-18 -5.0822e-21
0.0 0.0 -5.1365e-06
1.05879e-22 -1.53268e-20 0.0
0.0 0.0 -5.1365e-06
1.06729e-05 -1.71151e-05 4.95906e-05
1.13111e-07 2.85006e-07 -8.33365e-07
4.41593e-07 -5.41157e-07 -2.13017e-06
-7.52919e-05 1.70793e-05 9.33048e-05
0.0 0.0 -5.1365e-06
-1.10494e-08 -1.54675e-07 -1.99659e-07
9.22205e-09 1.56299e-07 1.48276e-07
-5.95136e-07 -2.08727e-06 -2.6491e-06
0.0 0.0 -5.1365e-06
0.000143144 2.69121e-05 0.000212678
-5.92875e-09 -6.90473e-08 2.33131e-07
-8.99973e-22 6.19294e-20 0.0
0.0 0.0 -5.1365e-06
0.0 0.0 -5.1365e-06
-0.000106665 0.000303663 0.000305168
0.0 0.0 -5.1365e-06
4.92149e-09 -1.52902e-07 -1.74268e-07
0.0 0.0 -5.1365e-06
1.75652e-05 1.22722e-05 1.29611e-05
-7.23123e-06 6.22173e-07 -1.71567e-05
-1.60154e-08 2.0266e-07 1.29236e-07
0.0 0.0 -5.1365e-06
0.0 0.0 -5.1365e-06
2.5481e-08 -2.33565e-07 8.44567e-08
0.00365065 -0.151714 0.0993047
-2.66498e-19 2.14935e-19 4.31987e-20
0.0 0.0 -5.1365e-06
8.60268e-23 0.0 0.0
0.0 0.0 -5.1365e-06
0.00118076 0.00154181 -0.000527245
-9.9623e-05 -0.00012899 -0.000106289
0.0 0.0 -5.1365e-06
0.0 0.0 -5.1365e-06
0.0 0.0 -5.1365e-06
-0.000193536 2.1894e-05 9.54291e-05
-2.43198e-08 9.72089e-08 -2.41313e-07
0.0 0.0 -5.1365e-06
-2.49936e-07 5.34154e-07 -3.62244e-07
-3.81362e-07 1.07929e-06 -5.59935e-07
-3.86925e-05 -1.90244e-05 4.15242e-05
-8.91635e-06 -1.71427e-05 2.62603e-05
-2.72925e-07 -3.38535e-06 1.55544e-06
-4.15256e-08 1.19569e-07 -2.02002e-07
4.86515e-20 -1.73814e-19 8.47033e-22
-1.41807e-07 -1.90078e-07 6.41618e-07
0.0 0.0 -5.1365e-06
0.0 0.0 -5.1365e-06
7.21536e-07 2.74293e-07 -3.65904e-06
-2.95884e-08 2.00687e-07 1.13757e-07
0.0 0.0 -5.1365e-06
-5.39931e-19 3.17637e-22 1.35525e-20
0.0 0.0 -5.1365e-06
0.0 0.0 -5.1365e-06
-1.52759e-05 -2.17888e-05 5.44441e-06
-2.60165e-08 2.46116e-07 -2.81311e-08
-2.10133e-18 -5.76618e-19 9.31736e-21
0.0 0.0 -5.1365e-06
1.32788e-05 1.93218e-06 1.45197e-05
2.49943e-06 -1.32483e-05 1.13468e-05
0.0 0.0 -5.1365e-06
0.0 0.0 -5.1365e-06
0.0 0.0 -5.1365e-06
-2.2892e-05 4.7187e-05 3.74461e-05
-2.40413e-07 9.4669e-07 -7.42975e-07
-3.87297e-07 -1.44216e-06 6.82662e-07
0.0 0.0 -5.1365e-06
0.0 0.0 -5.1365e-06
-4.58998e-07 -9.60892e-07 8.115e-07
-1.35324e-06 -3.54454e-06 -2.41198e-06
0.000395488 0.000446823 -0.000288291
-1.88391e-07 -1.23126e-07 1.10867e-07
0.0 -1.32349e-20 -1.69407e-21
0.0 0.0 -5.1365e-06
2.20864e-19 -5.52001e-19 2.6258e-20
0.0 0.0 -5.1365e-06
-9.23743e-06 -7.46112e-06 3.29205e-05
0.0 0.0 -5.1365e-06
0.0 0.0 -5.1365e-06
2.68429e-05 -2.51694e-06 2.43387e-05
