# vtk DataFile Version 3.0
LIGGGHTS particles timestep 200000
ASCII
DATASET POLYDATA
POINTS 190 float
0.0186742 0.0139868 0.0129921
0.0148958 0.0231299 0.0155472
0.0219643 0.0155887 0.0142835
0.0183083 0.0225588 0.0142056
0.0200514 0.0156292 0.0143386
0.0285586 0.0241054 0.0130966
0.0187612 0.0228385 0.0150762
0.0202935 0.0141224 0.0129275
0.0192917 0.0225269 0.0142669
0.0167674 0.0142063 0.0135498
0.0217001 0.0164379 0.0151064
0.0233105 0.0198782 0.0167447
0.0212475 0.0151893 0.0137064
0.0190572 0.0230964 0.0133339
0.0220607 0.0146035 0.0136718
0.0211756 0.0141996 0.0133935
0.0201346 0.0221841 0.0146683
0.0205726 0.0146429 0.0121068
0.0144503 0.0156919 0.0144192
0.0246999 0.021298 0.0153446
0.0244273 0.0187195 0.0167856
0.0202662 0.0150928 0.0135212
0.0214385 0.0147425 0.0125965
0.0161333 0.0148952 0.0131703
0.0177067 0.0141047 0.0132166
0.0175601 0.02386 0.0147445
0.0211783 0.0184768 0.0159347
0.0169401 0.0186126 0.0167667
0.016559 0.0163611 0.0167585
0.0199384 0.0147091 0.0168356
0.0140137 0.0198288 0.0159425
0.0152976 0.0150569 0.0152854
0.0138113 0.0218907 0.0149158
0.0136954 0.0217248 0.0158979
0.0167308 0.0152701 0.0152168
0.0197018 0.0145045 0.015858
0.0171131 0.0181371 0.0185236
0.0166322 0.0145981 0.0144592
0.020585 0.0166398 0.0165192
0.0195051 0.0164406 0.0180063
0.0167633 0.0232593 0.0146756
0.0224706 0.0166578 0.0161514
0.0197195 0.0167937 0.0153642
0.0139554 0.0174623 0.0159369
0.0189065 0.0171364 0.0175396
0.0194319 0.018047 0.0158696
0.0148175 0.0177697 0.0168816
0.0198112 0.0153228 0.0152622
0.0228988 0.0222987 0.0156694
0.020328 0.0141032 0.0139406
0.017472 0.0212588 0.016797
0.0165404 0.0198743 0.0171381
0.0151017 0.0152462 0.0138058
0.0222851 0.0144948 0.0146411
0.0212639 0.0172552 0.0155797
0.0224343 0.0229382 0.0150546
0.017798 0.0221101 0.0158867
0.0209358 0.015945 0.0146917
0.0158644 0.0152411 0.0144523
0.0204414 0.0183539 0.0168411
0.0195175 0.0137293 0.0134648
0.0192643 0.0190836 0.0159619
0.015048 0.0214697 0.0161348
0.0158783 0.0176325 0.0169698
0.0177918 0.0158426 0.0156809
0.0146486 0.0200756 0.0166789
0.0175269 0.0147679 0.0148789
0.0144108 0.0212185 0.0153771
0.0175063 0.0139998 0.0141906
0.0179767 0.0187766 0.0169059
0.0188161 0.0156861 0.01562
0.0229587 0.0180441 0.0180777
0.0206188 0.0148249 0.0146024
0.0148068 0.0163964 0.0151744
0.0189917 0.0200472 0.015837
0.021503 0.0163837 0.0161138
0.0174264 0.0175326 0.0171685
0.0145899 0.0221774 0.0155972
0.0196976 0.0194351 0.0185842
0.0233685 0.0232781 0.0151654
0.018006 0.0153582 0.0166519
0.022216 0.0208859 0.0164318
0.0197385 0.0209701 0.0159127
0.0170876 0.015219 0.0174076
0.0195057 0.0200033 0.0167231
0.0162308 0.0215877 0.0161014
0.0209479 0.0149919 0.0155434
0.0185297 0.0156953 0.0174871
0.0177274 0.0203083 0.0166279
0.0201735 0.0114018 0.0275799
0.0240427 0.0225769 0.01547
0.0136347 0.0187539 0.0159796
0.0143312 0.022738 0.0148104
0.0148374 0.0203794 0.0157397
0.0130816 0.0203519 0.015748
0.0194603 0.0166782 0.0163601
0.0183774 0.0177827 0.0166535
0.0186927 0.0146067 0.0158385
0.0221218 0.0183317 0.0170202
0.021088 0.0192909 0.0165511
0.02309 0.0192793 0.0184829
0.0209839 0.017241 0.017368
0.0204047 0.0177882 0.0157602
0.019395 0.0144614 0.0141627
0.0164423 0.0206879 0.0164832
0.0184475 0.0142342 0.0139339
0.0216698 0.0224653 0.0154936
0.0163848 0.0160173 0.0158013
0.0206654 0.0164398 0.0155178
0.0218682 0.0152189 0.0152072
0.0228876 0.0151395 0.0153383
0.021308 0.0140281 0.0143695
0.0233793 0.0161696 0.0159083
0.0184072 0.0142964 0.014931
0.0145652 0.0192693 0.0174329
0.0218933 0.0199182 0.0166833
0.0205687 0.0214818 0.0152393
0.0203012 0.0190481 0.0159618
0.0203957 0.0237548 0.0138193
0.0211885 0.0240923 0.0143008
0.0202587 0.0231659 0.0147083
0.0181066 0.0231161 0.013425
0.0171957 0.0240406 0.0132083
0.0179959 0.0237062 0.0126773
0.0183782 0.0235013 0.0142957
0.0181334 0.0242706 0.0134762
0.0180865 0.0234726 0.011749
0.0168141 0.0242063 0.0141751
0.0211895 0.0239946 0.0132799
0.020287 0.0240882 0.0128871
0.0190133 0.0236348 0.0120978
0.0228114 0.0235087 0.0143147
0.0152165 0.023284 0.0146125
0.021994 0.0237748 0.013819
0.0189481 0.0239052 0.0161304
0.0176495 0.0229232 0.0150832
0.0167895 0.0225158 0.0166347
0.019695 0.0227486 0.01542
0.0197622 0.0233132 0.0127284
0.0212571 0.0230254 0.0162132
0.0206782 0.0225679 0.0154157
0.0220117 0.0238174 0.0148148
0.0198502 0.02413 0.0169198
0.0163867 0.0236426 0.0183112
0.0207811 0.0235767 0.0155228
0.0177577 0.0223853 0.0168538
0.0212531 0.0217225 0.0160195
0.0195089 0.0215881 0.0151603
0.0187712 0.0210666 0.0155759
0.0222635 0.0230852 0.0160369
0.0113928 0.0167996 0.0235691
0.0182553 0.0236203 0.0154667
0.0167975 0.0222847 0.0156626
0.0191623 0.0219944 0.0164592
0.0202517 0.0230556 0.0161921
0.0208037 0.0210281 0.0166539
0.0191424 0.0237487 0.0150235
0.0212481 0.023194 0.0147241
0.018675 0.0223992 0.0173159
0.0174131 0.023771 0.0159842
0.0147279 0.0174868 0.020465
0.0211495 0.0217454 0.0175909
0.0207139 0.0239269 0.0164573
0.0159636 0.0228539 0.0151191
0.0183452 0.0236091 0.0179711
0.018544 0.0218881 0.0149146
0.0182183 0.0248561 0.0192563
0.0169152 0.023529 0.0168175
0.018903 0.0242643 0.0141021
0.0217048 0.0205476 0.0175984
0.0160166 0.0236184 0.0141144
0.017464 0.0191202 0.0197154
0.0198553 0.0239076 0.015708
0.0207902 0.0206046 0.0156834
0.0215656 0.0228534 0.018484
0.0187601 0.0212681 0.0188465
0.0195081 0.0234802 0.0141346
0.0199995 0.0200054 0.0158496
0.0231795 0.0215558 0.0162815
0.0207123 0.0222926 0.0166458
0.0158102 0.0227907 0.0166464
0.0204246 0.0240008 0.0180698
0.0161103 0.0217948 0.0178052
0.0198378 0.0226428 0.0180845
0.0183642 0.0201977 0.0186965
0.0177812 0.0228084 0.0186862
0.0193739 0.0242718 0.0132348
0.0200643 0.021982 0.015945
0.0155582 0.0222754 0.0158268
0.0165722 0.0232356 0.0159014

VERTICES 190 380
1 0
1 1
1 2
1 3
1 4
1 5
1 6
1 7
1 8
1 9
1 10
1 11
1 12
1 13
1 14
1 15
1 16
1 17
1 18
1 19
1 20
1 21
1 22
1 23
1 24
1 25
1 26
1 27
1 28
1 29
1 30
1 31
1 32
1 33
1 34
1 35
1 36
1 37
1 38
1 39
1 40
1 41
1 42
1 43
1 44
1 45
1 46
1 47
1 48
1 49
1 50
1 51
1 52
1 53
1 54
1 55
1 56
1 57
1 58
1 59
1 60
1 61
1 62
1 63
1 64
1 65
1 66
1 67
1 68
1 69
1 70
1 71
1 72
1 73
1 74
1 75
1 76
1 77
1 78
1 79
1 80
1 81
1 82
1 83
1 84
1 85
1 86
1 87
1 88
1 89
1 90
1 91
1 92
1 93
1 94
1 95
1 96
1 97
1 98
1 99
1 100
1 101
1 102
1 103
1 104
1 105
1 106
1 107
1 108
1 109
1 110
1 111
1 112
1 113
1 114
1 115
1 116
1 117
1 118
1 119
1 120
1 121
1 122
1 123
1 124
1 125
1 126
1 127
1 128
1 129
1 130
1 131
1 132
1 133
1 134
1 135
1 136
1 137
1 138
1 139
1 140
1 141
1 142
1 143
1 144
1 145
1 146
1 147
1 148
1 149
1 150
1 151
1 152
1 153
1 154
1 155
1 156
1 157
1 158
1 159
1 160
1 161
1 162
1 163
1 164
1 165
1 166
1 167
1 168
1 169
1 170
1 171
1 172
1 173
1 174
1 175
1 176
1 177
1 178
1 179
1 180
1 181
1 182
1 183
1 184
1 185
1 186
1 187
1 188
1 189

POINT_DATA 190
SCALARS id int 1
LOOKUP_TABLE default
1
2
3
4
5
6
7
8
9
10
11
12
13
14
15
16
17
18
19
20
21
22
23
24
25
26
27
28
29
30
31
32
33
34
35
36
37
38
39
40
41
42
43
44
45
46
47
48
49
50
51
52
53
54
55
56
57
58
59
60
61
62
63
64
65
66
67
68
69
70
71
72
73
74
75
76
77
78
79
80
81
82
83
84
85
86
87
88
89
90
91
92
93
94
95
96
97
98
99
100
101
102
103
104
105
106
107
108
109
110
111
112
113
114
115
116
117
118
119
120
121
122
123
124
125
126
127
128
129
130
131
132
133
134
135
136
137
138
139
140
141
142
143
144
145
146
147
148
149
150
151
152
153
154
155
156
157
158
159
160
161
162
163
164
165
166
167
168
169
170
171
172
173
174
175
176
177
178
179
180
181
182
183
184
185
186
187
188
189
190

SCALARS type int 1
LOOKUP_TABLE default
1
1
1
1
1
1
1
1
1
1
1
1
1
1
1
1
1
1
1
1
1
1
1
1
1
1
1
1
1
1
1
1
1
1
1
1
1
1
1
1
1
1
1
1
1
1
1
1
1
1
1
1
1
1
1
1
1
1
1
1
1
1
1
1
1
1
1
1
1
1
1
1
1
1
1
1
1
1
1
1
1
1
1
1
1
1
1
1
1
1
1
1
1
1
1
1
1
1
1
1
1
1
1
1
1
1
1
1
1
1
1
1
1
1
1
1
1
1
1
1
1
1
1
1
1
1
1
1
1
1
1
1
1
1
1
1
1
1
1
1
1
1
1
1
1
1
1
1
1
1
1
1
1
1
1
1
1
1
1
1
1
1
1
1
1
1
1
1
1
1
1
1
1
1
1
1
1
1
1
1
1
1
1
1
1
1
1
1
1
1

SCALARS radius float 1
LOOKUP_TABLE default
0.0005
0.0005
0.0005
0.0005
0.0005
0.0005
0.0005
0.0005
0.0005
0.0005
0.0005
0.0005
0.0005
0.0005
0.0005
0.0005
0.0005
0.0005
0.0005
0.0005
0.0005
0.0005
0.0005
0.0005
0.0005
0.0005
0.0005
0.0005
0.0005
0.0005
0.0005
0.0005
0.0005
0.0005
0.0005
0.0005
0.0005
0.0005
0.0005
0.0005
0.0005
0.0005
0.0005
0.0005
0.0005
0.0005
0.0005
0.0005
0.0005
0.0005
0.0005
0.0005
0.0005
0.0005
0.0005
0.0005
0.0005
0.0005
0.0005
0.0005
0.0005
0.0005
0.0005
0.0005
0.0005
0.0005
0.0005
0.0005
0.0005
0.0005
0.0005
0.0005
0.0005
0.0005
0.0005
0.0005
0.0005
0.0005
0.0005
0.0005
0.0005
0.0005
0.0005
0.0005
0.0005
0.0005
0.0005
0.0005
0.0005
0.0005
0.0005
0.0005
0.0005
0.0005
0.0005
0.0005
0.0005
0.0005
0.0005
0.0005
0.0005
0.0005
0.0005
0.0005
0.0005
0.0005
0.0005
0.0005
0.0005
0.0005
0.0005
0.0005
0.0005
0.0005
0.0005
0.0005
0.0005
0.0005
0.0005
0.0005
0.0005
0.0005
0.0005
0.0005
0.0005
0.0005
0.0005
0.0005
0.0005
0.0005
0.0005
0.0005
0.0005
0.0005
0.0005
0.0005
0.0005
0.0005
0.0005
0.0005
0.0005
0.0005
0.0005
0.0005
0.0005
0.0005
0.0005
0.0005
0.0005
0.0005
0.0005
0.0005
0.0005
0.0005
0.0005
0.0005
0.0005
0.0005
0.0005
0.0005
0.0005
0.0005
0.0005
0.0005
0.0005
0.0005
0.0005
0.0005
0.0005
0.0005
0.0005
0.0005
0.0005
0.0005
0.0005
0.0005
0.0005
0.0005
0.0005
0.0005
0.0005
0.0005
0.0005
0.0005
0.0005
0.0005
0.0005
0.0005
0.0005
0.0005

SCALARS mass float 1
LOOKUP_TABLE default
5.23599e-07
5.23599e-07
5.23599e-07
5.23599e-07
5.23599e-07
5.23599e-07
5.23599e-07
5.23599e-07
5.23599e-07
5.23599e-07
5.23599e-07
5.23599e-07
5.23599e-07
5.23599e-07
5.23599e-07
5.23599e-07
5.23599e-07
5.23599e-07
5.23599e-07
5.23599e-07
5.23599e-07
5.23599e-07
5.23599e-07
5.23599e-07
5.23599e-07
5.23599e-07
5.23599e-07
5.23599e-07
5.23599e-07
5.23599e-07
5.23599e-07
5.23599e-07
5.23599e-07
5.23599e-07
5.23599e-07
5.23599e-07
5.23599e-07
5.23599e-07
5.23599e-07
5.23599e-07
5.23599e-07
5.23599e-07
5.23599e-07
5.23599e-07
5.23599e-07
5.23599e-07
5.23599e-07
5.23599e-07
5.23599e-07
5.23599e-07
5.23599e-07
5.23599e-07
5.23599e-07
5.23599e-07
5.23599e-07
5.23599e-07
5.23599e-07
5.23599e-07
5.23599e-07
5.23599e-07
5.23599e-07
5.23599e-07
5.23599e-07
5.23599e-07
5.23599e-07
5.23599e-07
5.23599e-07
5.23599e-07
5.23599e-07
5.23599e-07
5.23599e-07
5.23599e-07
5.23599e-07
5.23599e-07
5.23599e-07
5.23599e-07
5.23599e-07
5.23599e-07
5.23599e-07
5.23599e-07
5.23599e-07
5.23599e-07
5.23599e-07
5.23599e-07
5.23599e-07
5.23599e-07
5.23599e-07
5.23599e-07
5.23599e-07
5.23599e-07
5.23599e-07
5.23599e-07
5.23599e-07
5.23599e-07
5.23599e-07
5.23599e-07
5.23599e-07
5.23599e-07
5.23599e-07
5.23599e-07
5.23599e-07
5.23599e-07
5.23599e-07
5.23599e-07
5.23599e-07
5.23599e-07
5.23599e-07
5.23599e-07
5.23599e-07
5.23599e-07
5.23599e-07
5.23599e-07
5.23599e-07
5.23599e-07
5.23599e-07
5.23599e-07
5.23599e-07
5.23599e-07
5.23599e-07
5.23599e-07
5.23599e-07
5.23599e-07
5.23599e-07
5.23599e-07
5.23599e-07
5.23599e-07
5.23599e-07
5.23599e-07
5.23599e-07
5.23599e-07
5.23599e-07
5.23599e-07
5.23599e-07
5.23599e-07
5.23599e-07
5.23599e-07
5.23599e-07
5.23599e-07
5.23599e-07
5.23599e-07
5.23599e-07
5.23599e-07
5.23599e-07
5.23599e-07
5.23599e-07
5.23599e-07
5.23599e-07
5.23599e-07
5.23599e-07
5.23599e-07
5.23599e-07
5.23599e-07
5.23599e-07
5.23599e-07
5.23599e-07
5.23599e-07
5.23599e-07
5.23599e-07
5.23599e-07
5.23599e-07
5.23599e-07
5.23599e-07
5.23599e-07
5.23599e-07
5.23599e-07
5.23599e-07
5.23599e-07
5.23599e-07
5.23599e-07
5.23599e-07
5.23599e-07
5.23599e-07
5.23599e-07
5.23599e-07
5.23599e-07
5.23599e-07
5.23599e-07
5.23599e-07
5.23599e-07
5.23599e-07
5.23599e-07
5.23599e-07
5.23599e-07
5.23599e-07
5.23599e-07
5.23599e-07
5.23599e-07
5.23599e-07
5.23599e-07
5.23599e-07

VECTORS velocity float
0.00119027 -6.3851e-05 0.00193725
-0.00078888 0.0107287 0.005851
0.0107176 0.010431 0.0229277
0.00890086 0.00571926 -0.00596955
0.00986032 0.0184812 0.0132402
-0.0995674 1.65818 0.44409
0.00950109 0.00425082 -0.00304043
0.00650813 -0.0013458 0.00709573
0.00694105 -0.00116576 -0.00209443
0.000332924 -0.00517592 0.00685952
0.0137056 0.00799748 0.00149604
0.000361094 0.0666286 0.0124315
0.0108246 0.00870228 0.0143585
0.00623931 0.00221263 -0.00859865
0.00898827 0.0107784 -0.0119718
0.00672966 -7.85435e-05 0.0095715
0.00637668 0.00237435 -0.00568512
0.0102314 0.00241783 0.00969595
0.00607066 -0.00274174 -0.00269615
0.00410329 0.00572848 -0.00333818
-6.06192e-05 0.0601564 0.00432224
0.00712865 0.0103565 0.0205759
0.0102964 0.00102827 0.0107761
0.00943347 0.00298738 -0.0219264
0.000642705 -0.00101344 0.00286248
0.0136097 0.0064503 0.00135711
-0.00222721 0.0327726 0.011409
0.0114437 0.0110471 0.0234899
0.0589262 -0.0213623 -0.0242636
0.00328669 -0.113159 -0.0429572
-0.0177939 0.0344109 -0.0382048
-0.0400637 -0.0351982 -0.0560693
0.0040233 0.00532233 -0.00418481
0.000138914 0.00512174 -0.0233943
0.0409735 -0.0050451 -0.00729145
-0.0283747 0.0222773 0.0413551
0.0 -0.0 -0.15
0.00633524 -0.00510431 0.00859975
0.0608731 0.0157081 -0.0462915
0.0757534 -0.0864515 -0.103615
0.0140495 0.00902431 -0.00731099
0.0655354 -0.0193494 -0.145423
0.0166892 -0.0148142 0.00435005
0.000454707 0.0196337 -0.00426958
-0.0101495 0.0234652 -0.0625401
0.00463522 0.0398107 0.0354744
0.0 0.0 -0.230035
-0.00281722 0.0364665 -0.00498734
0.0138482 -0.00585998 0.00496089
0.00522431 -0.00383706 0.0109489
0.00306334 0.0177769 -0.0438156
0.00881687 0.0573904 -0.0549263
0.00426482 -0.000889461 -0.00385894
0.0456955 0.00550621 -0.0209743
0.00759924 0.0208547 0.00863159
0.00630599 -0.00975657 0.00187738
0.0258204 -0.0250422 -0.100716
0.0310088 -0.00999596 -0.0218546
0.0120276 0.0013161 -0.00978327
-0.000314788 -0.073767 -0.168577
0.0046919 0.00056048 -0.00115078
-0.0159607 0.0396909 -0.0100654
0.0064691 -0.00080113 -0.0103068
0.00501228 0.0253842 0.0476936
-0.019021 -0.0133461 -0.0509449
-0.0270078 0.0188837 -0.0154483
0.0119456 0.0172765 -0.0306322
0.00725292 0.00712351 -0.00676274
-0.000762267 -0.009738 0.00380946
-0.00925906 0.0287483 -0.0249183
-0.000688091 -0.0274884 -0.00269648
0.0 0.0 -0.171607
0.0225684 0.0118975 0.00755069
0.00735292 0.022365 -0.00437188
0.000415989 0.0514605 -0.0085057
0.0540999 0.00993251 -0.0901688
-0.0260824 0.0341555 -0.056425
0.00518909 0.00482524 -0.000550756
0.0 -0.0 -0.15
0.00491669 -0.00521003 0.00576735
0.0279694 -0.116941 0.00832204
0.010509 0.079377 -0.0159092
0.0237839 0.0143333 0.00645676
0.0 0.0 -0.206393
-0.0111868 0.0131923 -0.0131924
0.00489037 0.0148054 -0.00645517
0.0294198 -0.0165979 0.01389
0.0 0.0 -0.202577
0.00296885 0.0449539 -0.0119156
-0.070111 -0.0669114 0.0945298
-0.00631128 -0.00447556 0.00521155
0.0027671 0.0332987 -0.0701853
0.00670313 0.00406189 -0.00314721
0.0192427 0.0129215 -0.00890583
-1.1642e-05 0.0510435 -0.00454477
0.00172527 -0.087416 -0.103351
-0.0207789 0.0586232 0.00255002
0.0135049 0.011584 -0.00298591
-0.00905581 0.052765 0.141223
0.0616425 0.00864438 -0.0549033
-0.0159195 0.00961194 0.00181333
0.00458749 -0.102037 0.0366966
0.00614055 0.0304959 0.00749927
-0.000569274 -0.00177186 0.00136618
0.00779793 0.0139678 -0.00177206
-0.00176275 -0.00276744 0.00196133
0.00581613 -0.0124053 0.00318554
0.0148395 -0.0551991 0.0307261
0.00382374 0.0197684 -0.0633458
0.026752 -0.0311565 0.0209966
0.0628647 -0.0323909 -0.148221
0.0117326 -0.00510256 0.00818746
0.0213251 -0.0278909 -0.0285143
0.00193097 0.00121347 0.00165869
0.0 0.0 -0.205186
0.027903 0.0367514 -0.00989835
0.0109027 0.000859086 -0.000650871
0.00618809 -0.0171977 -0.00479654
0.00280772 -0.00225666 -0.00341257
0.00406372 -0.00141046 -0.00222236
0.00287042 0.000511936 -0.00172342
0.00739208 0.00649903 -0.00424185
0.0089488 0.00241405 -0.00857342
0.00924388 0.0058964 -0.00281948
0.00657645 0.00233877 -0.00377332
0.00319642 0.00116524 -0.00301557
0.00135277 0.000954533 -0.000814067
0.00254477 -0.000153183 -0.000851568
0.00171531 0.00149225 -0.0030822
0.00285838 -0.00180081 -0.00287783
0.00988515 -0.019143 -0.0336443
0.00254466 -0.00229988 0.000516878
-0.00140115 0.000312666 0.00106898
0.00268802 -0.00295263 -0.000839433
6.87896e-05 0.00258144 0.00254024
0.00881859 0.00198304 -0.00241215
-0.0262765 -0.00336805 -0.0146113
0.00844467 -0.00450506 0.00385032
0.00634043 -0.000384399 -0.00833984
0.00373929 -0.00244766 -0.000983589
0.00768427 -0.00568897 0.000310295
0.00218568 -0.0014185 0.000798253
-0.0437515 -0.0170819 -0.0583867
0.0822288 -0.0708002 0.0176298
-0.00253414 0.000842926 -0.00322323
0.00294319 -0.0257142 -0.062925
-0.00948215 -0.00973401 -0.000388499
0.00942436 -0.00171581 -0.00713433
0.00931647 0.0115913 0.00852998
-0.00356071 -0.00145702 -0.00614083
-0.358437 -0.274224 0.14737
0.0020022 0.00745369 -0.00713644
0.00926155 0.0005888 -0.0297221
-0.0696835 -0.0226921 -0.0824706
0.00357754 0.00602715 0.00534817
-0.0306506 -0.0323449 -0.054399
0.00651211 0.00327645 -0.00465603
0.00287193 -0.00366662 0.00128201
0.0224965 0.0123189 -0.0614379
0.00278344 -0.000957864 -0.00239857
0.0997469 -0.331554 0.110976
0.055105 0.0415731 -0.125257
-0.00781753 0.0238385 -0.010767
0.0113895 0.00732776 -0.0112791
0.0170209 0.0537551 -0.0940618
0.0097131 0.00702165 -0.00808379
0.0123398 -0.0489454 0.0139206
0.00628671 -0.00560491 0.000396762
0.00358869 0.00216449 -0.00279937
0.0 0.0 -0.197113
0.00117575 -0.00315271 0.00189719
-0.0686493 -0.108121 0.0334753
0.00365765 -0.000686376 -0.00108174
0.0135342 -0.0148534 0.000893983
0.0 -0.0 -0.15
0.0 -0.0 -0.15
0.00276854 -0.00193383 -0.00258259
0.0084124 0.0115309 0.00409553
0.0346781 0.01624 0.024996
-0.0038094 -0.0013985 0.00321873
-0.00906434 0.00997415 -0.00856291
-0.0612 -0.161955 0.035803
-0.0562272 0.0121902 -0.00978406
0.0 0.0 -0.171214
-0.0200627 -0.0878201 -0.058729
0.0 -0.0 -0.15
0.000535571 -0.00316004 -0.00491935
-0.00160692 -0.00609389 -0.00559896
-0.00193483 0.0122468 -0.0128122
0.00204644 -0.0040669 -0.00609083

VECTORS force float
-7.46694e-06 -3.9109e-06 4.74435e-06
0.0 0.0 -5.1365e-06
7.67429e-07 1.16551e-06 -7.48383e-06
-5.55252e-06 1.62891e-05 -2.30011e-05
0.0 0.0 -5.1365e-06
0.0 0.0 -5.1365e-06
1.45408e-05 -1.21423e-05 1.25979e-05
1.97706e-06 -1.18608e-06 -2.9905e-06
-3.75425e-05 -1.55432e-05 -6.25993e-07
-1.19353e-05 1.01114e-06 -4.59516e-05
2.49835e-05 2.41211e-06 -6.52523e-07
0.0 0.0 -5.1365e-06
0.0 0.0 -5.1365e-06
1.46745e-06 2.66956e-05 -2.56222e-05
0.0 0.0 -5.1365e-06
-4.19806e-07 -2.41191e-06 3.15125e-06
-1.05351e-05 1.02974e-06 2.01308e-06
1.46772e-06 -4.01607e-07 -1.07654e-06
-1.0961e-05 6.46055e-06 1.50769e-05
-2.08517e-05 4.93957e-05 -2.29307e-05
5.05948e-07 8.05243e-07 -3.45413e-07
-4.8902e-07 -2.63015e-06 -1.62801e-06
2.39261e-06 -2.25077e-06 2.34274e-06
0.0 0.0 -5.1365e-06
1.87068e-07 6.30669e-07 -5.89308e-06
-1.76837e-05 -4.20535e-06 3.90407e-06
0.0 0.0 -5.1365e-06
0.0 0.0 -5.1365e-06
0.0 0.0 -5.1365e-06
0.0 0.0 -5.1365e-06
0.0 0.0 -5.1365e-06
0.0 0.0 -5.1365e-06
-7.11798e-06 -4.98674e-06 2.16189e-06
0.0 0.0 -5.1365e-06
0.0 0.0 -5.1365e-06
0.0 0.0 -5.1365e-06
0.0 0.0 0.0
-2.08552e-06 5.54812e-06 3.22519e-05
0.0 0.0 -5.1365e-06
0.0 0.0 -5.1365e-06
-1.19609e-06 6.33414e-06 -4.15697e-06
0.0 0.0 -5.1365e-06
0.0 0.0 -5.1365e-06
0.0 0.0 -5.1365e-06
0.0 0.0 -5.1365e-06
0.0 0.0 -5.1365e-06
0.0 0.0 -5.1365e-06
0.0 0.0 -5.1365e-06
0.0 0.0 -5.1365e-06
0.0 0.0 -5.1365e-06
-6.95125e-05 0.000167882 -1.03224e-05
0.0 0.0 -5.1365e-06
1.06671e-05 -9.73637e-06 -7.4744e-06
0.0 0.0 -5.1365e-06
-1.62866e-06 -5.30694e-07 9.51337e-06
0.0 0.0 -5.1365e-06
0.0 0.0 -5.1365e-06
-3.4161e-05 -1.57075e-05 3.79684e-05
1.21074e-06 -5.19132e-07 -1.26045e-06
0.0 0.0 -5.1365e-06
0.0 0.0 -5.1365e-06
0.0 0.0 -5.1365e-06
2.82373e-06 -1.51205e-06 2.81687e-07
0.0 0.0 -5.1365e-06
0.0 0.0 -5.1365e-06
0.0 0.0 -5.1365e-06
-1.89178e-07 4.88156e-08 -5.03576e-06
0.0 0.0 -5.1365e-06
1.37661e-05 -1.17957e-05 5.05711e-06
0.0 0.0 -5.1365e-06
0.0 0.0 -5.1365e-06
0.0 0.0 -5.1365e-06
0.0 0.0 -5.1365e-06
0.0 0.0 -5.1365e-06
4.41518e-06 -5.87963e-06 4.07968e-05
0.0 0.0 -5.1365e-06
0.0 0.0 -5.1365e-06
-1.21008e-05 1.79827e-06 -2.00572e-05
0.0 0.0 0.0
0.0 0.0 -5.1365e-06
0.0 0.0 -5.1365e-06
0.0 0.0 -5.1365e-06
0.0 0.0 -5.1365e-06
0.0 0.0 -5.1365e-06
0.0 0.0 -5.1365e-06
-3.70649e-06 -4.76784e-06 -5.44814e-06
0.0 0.0 -5.1365e-06
0.0 0.0 -5.1365e-06
6.85692e-05 -0.000163014 5.84628e-06
0.0 0.0 -5.1365e-06
6.27618e-07 3.06841e-06 -4.13495e-06
0.0 0.0 -5.1365e-06
8.57509e-06 4.57413e-06 1.53964e-06
0.0 0.0 -5.1365e-06
0.0 0.0 -5.1365e-06
0.0 0.0 -5.1365e-06
0.0 0.0 -5.1365e-06
0.0 0.0 -5.1365e-06
0.0 0.0 -5.1365e-06
0.0 0.0 -5.1365e-06
0.0 0.0 -5.1365e-06
0.0 0.0 -5.1365e-06
0.0 0.0 -5.1365e-06
0.0 0.0 -5.1365e-06
0.0 0.0 -5.1365e-06
4.48069e-06 3.41543e-06 -3.32983e-06
1.64633e-06 3.31229e-08 -4.83802e-06
0.0 0.0 -5.1365e-06
0.0 0.0 -5.1365e-06
-7.67429e-07 -1.16551e-06 -2.78918e-06
0.0 0.0 -5.1365e-06
-3.12241e-06 -2.00763e-06 1.36337e-06
0.0 0.0 -5.1365e-06
-3.50055e-06 -1.33477e-06 5.9968e-07
0.0 0.0 -5.1365e-06
0.0 0.0 -5.1365e-06
0.0 0.0 -5.1365e-06
0.0 0.0 -5.1365e-06
-6.59518e-06 7.20963e-06 1.93583e-05
2.63035e-05 -9.50605e-06 3.20264e-06
-1.72684e-05 1.15729e-05 1.68492e-05
-1.23922e-05 2.15557e-05 9.22254e-06
5.59523e-07 3.58799e-07 9.24738e-07
6.94957e-06 -5.96837e-05 -1.7757e-06
-2.411e-05 2.98506e-05 -2.63773e-05
3.96126e-05 1.71561e-05 -2.01552e-05
-4.15155e-07 -3.07046e-06 -5.5763e-06
-2.02031e-05 1.26226e-06 -2.98049e-05
2.31207e-06 5.02552e-06 1.59072e-05
5.99861e-06 4.23278e-06 -2.5936e-06
-3.26805e-06 -1.85741e-05 2.13854e-05
1.84457e-05 -1.46355e-05 1.84447e-05
9.1792e-06 -5.28115e-06 -8.43609e-06
6.5168e-06 -1.85584e-05 1.19904e-05
0.0 0.0 -5.1365e-06
-3.53842e-06 2.40958e-05 6.01521e-07
9.42669e-06 1.68717e-05 3.04816e-05
-1.13223e-06 -1.20733e-05 -8.2644e-06
1.85274e-05 -3.08988e-06 -1.66686e-05
0.0 0.0 -5.1365e-06
9.85684e-06 -3.29035e-06 -1.10415e-05
6.62577e-06 -1.95106e-06 9.28128e-06
0.0 0.0 -5.1365e-06
0.0 0.0 -5.1365e-06
2.39222e-06 1.58035e-06 -5.66575e-06
0.0 0.0 -5.1365e-06
0.0 0.0 -5.1365e-06
3.73981e-06 -2.81964e-05 2.15668e-05
6.11373e-06 -5.20821e-06 2.39791e-05
0.0 0.0 -5.1365e-06
0.0 0.0 -5.1365e-06
4.26953e-06 -1.26818e-06 -4.32065e-06
-5.75131e-06 -1.13682e-05 -3.99918e-05
0.0 0.0 -5.1365e-06
-2.39222e-06 -1.58035e-06 -4.60726e-06
0.0 0.0 -5.1365e-06
5.43636e-06 1.41742e-05 -8.76892e-06
8.82212e-06 2.35777e-06 -2.61573e-06
0.0 0.0 -5.1365e-06
-1.99659e-06 1.388e-06 -4.81647e-06
0.0 0.0 -5.1365e-06
0.0 0.0 -5.1365e-06
0.0 0.0 -5.1365e-06
1.09276e-06 -3.4291e-06 4.21512e-08
0.0 0.0 -5.1365e-06
9.27696e-07 -2.74871e-06 6.46498e-06
0.0 0.0 -5.1365e-06
0.0 0.0 -5.1365e-06
5.98623e-06 6.60221e-06 -9.98719e-06
0.0 0.0 -5.1365e-06
3.13529e-06 -7.75034e-06 1.83441e-05
0.0 0.0 -5.1365e-06
-2.89215e-07 -7.03223e-07 -4.64135e-06
0.0 0.0 -5.1365e-06
0.0 0.0 0.0
0.0 0.0 0.0
-2.9071e-05 -1.53047e-05 2.88709e-05
0.0 0.0 -5.1365e-06
0.0 0.0 -5.1365e-06
0.0 0.0 -5.1365e-06
0.0 0.0 -5.1365e-06
0.0 0.0 -5.1365e-06
0.0 0.0 -5.1365e-06
0.0 0.0 -5.1365e-06
0.0 0.0 -5.1365e-06
0.0 0.0 0.0
5.55347e-06 1.81042e-06 4.89131e-06
6.81739e-06 -1.14519e-06 5.79033e-06
9.83181e-06 -1.07809e-07 4.03667e-06
0.0 0.0 -5.1365e-06
