ITEM: TIMESTEP
4000000
ITEM: NUMBER OF ATOMS
273
ITEM: BOX BOUNDS ff ff ff
-0.02 0.43
-0.02 0.09
-0.03 0.1
ITEM: ATOMS id type x y z vx vy vz fx fy fz radius mass 
3 1 0.0259137 0.0222677 0.00873938 0.0013402 -0.0121733 -0.0160414 -4.91907e-08 8.80997e-09 4.98634e-08 0.0005 1.46608e-07 
4 1 0.0244119 0.0181805 0.0164261 0.000933972 0.0262604 0.00216291 -2.82116e-07 3.51177e-07 6.81484e-07 0.0005 1.46608e-07 
5 1 0.0207774 0.0165645 0.0161293 -0.00499516 -0.00895468 -0.00457377 5.77886e-08 -3.78811e-08 3.26357e-08 0.0005 1.46608e-07 
6 1 0.0180735 0.0237678 0.015817 0.00858255 0.00572199 0.0162841 1.03088e-06 5.61909e-06 1.0786e-05 0.0005 1.46608e-07 
7 1 0.0210565 0.0229 0.0135947 0.00110685 0.00904332 -0.0191558 -1.30901e-06 4.22382e-06 -3.19167e-06 0.0005 1.46608e-07 
8 1 0.023747 0.015751 0.0144817 0.00441263 0.00267673 0.00465036 -6.60269e-07 -1.04592e-06 -4.54657e-07 0.0005 1.46608e-07 
10 1 0.0205007 0.0243854 0.0133862 -0.000892234 -5.52155e-05 -0.000598342 5.93684e-07 -8.47828e-07 -8.3094e-07 0.0005 1.46608e-07 
12 1 0.016079 0.021377 0.0167099 -0.000300202 -0.00593412 -0.00168619 0 0 -1.43822e-06 0.0005 1.46608e-07 
13 1 0.0252948 0.0200987 0.00733171 -0.000227667 -0.0243554 -0.00727409 8.83022e-09 -4.89251e-09 1.36424e-08 0.0005 1.46608e-07 
14 1 0.0209624 0.0229787 0.0169491 -0.0106609 0.00137846 -0.0168752 0 0 -1.43822e-06 0.0005 1.46608e-07 
15 1 0.0226258 0.0166429 0.0156462 0.00227475 0.0172822 0.00693702 1.46535e-07 -1.19603e-07 -2.43265e-07 0.0005 1.46608e-07 
16 1 0.0223086 0.0183494 0.0158893 -0.00127101 0.0239081 0.00412358 3.83164e-07 -2.71607e-07 1.28391e-07 0.0005 1.46608e-07 
17 1 0.0277042 0.0207065 0.0154747 0.00092448 0.0149318 -0.00649641 -7.93166e-07 1.41114e-05 -8.88448e-06 0.0005 1.46608e-07 
18 1 0.0228217 0.0235992 0.0152703 0.000795821 0.000131308 0.000368725 1.35021e-06 2.28451e-06 1.47219e-05 0.0005 1.46608e-07 
19 1 0.0154155 0.0160683 0.0158499 0.00962298 -0.0381626 -0.0276231 -2.82289e-07 -5.46401e-07 2.10847e-06 0.0005 1.46608e-07 
20 1 0.0271422 0.0226114 0.0137767 -4.84402e-05 0.0151086 -0.0212206 -1.58177e-09 -1.0556e-08 -1.22784e-08 0.0005 1.46608e-07 
21 1 0.0190201 0.0215198 0.0161395 -0.000853467 0.00438768 0.0046857 0 0 -1.43822e-06 0.0005 1.46608e-07 
22 1 0.018111 0.0142135 0.0126606 0.0152903 0.00198379 -0.0155736 2.86404e-07 2.18043e-08 -5.0036e-07 0.0005 1.46608e-07 
23 1 0.019976 0.0225323 0.00898924 9.40634e-05 -0.0140717 -0.0210959 -2.28366e-09 -1.68268e-08 5.70745e-10 0.0005 1.46608e-07 
24 1 0.0224188 0.0229713 0.0159827 0.000660165 -0.00118411 0.00128468 4.71324e-07 -1.29493e-06 1.04397e-06 0.0005 1.46608e-07 
25 1 0.0237367 0.0160355 0.016077 0.00493395 0.00102723 0.00523292 -1.28297e-06 1.70758e-06 3.13934e-06 0.0005 1.46608e-07 
27 1 0.0152617 0.0215666 0.0161516 0.00207131 0.00234784 0.00671631 6.12116e-08 3.15133e-07 -1.31132e-06 0.0005 1.46608e-07 
28 1 0.0238646 0.0149855 0.0101783 0.0013678 -0.00493664 0.0180072 6.62491e-09 -2.68667e-08 -2.71447e-08 0.0005 1.46608e-07 
29 1 0.0215574 0.0224907 0.0163031 0.00208811 -0.00261866 -0.0093584 0 0 -1.43822e-06 0.0005 1.46608e-07 
30 1 0.0159426 0.0231605 0.0133138 0.00625186 0.00212332 -0.00346761 7.09496e-06 1.9348e-06 -2.05232e-06 0.0005 1.46608e-07 
31 1 0.0226413 0.0219302 0.0174214 0.0043264 0.0175221 -0.0226775 0 0 -1.43822e-06 0.0005 1.46608e-07 
32 1 0.0176225 0.0231131 0.0165284 0.00100931 -0.0016445 0.0107665 0 0 -1.43822e-06 0.0005 1.46608e-07 
33 1 0.0217525 0.0225623 0.0141845 -0.00529621 0.00961023 -0.00594486 -1.54942e-05 -8.72232e-07 -3.76668e-06 0.0005 1.46608e-07 
34 1 0.0199883 0.0212674 0.0167591 0.0154843 0.0115291 0.00413775 0 0 -1.43822e-06 0.0005 1.46608e-07 
35 1 0.0227013 0.0236334 0.0143421 -0.000500137 -0.00130582 -0.000835604 1.49308e-05 2.33378e-06 -1.21043e-06 0.0005 1.46608e-07 
36 1 0.0206596 0.0239373 0.0123995 0.000442009 0.00268724 -0.0103349 -9.88207e-08 -5.42022e-07 -6.59604e-07 0.0005 1.46608e-07 
37 1 0.0211096 0.0185103 0.0167386 -9.09649e-09 0.0289612 0.00316002 -2.6774e-14 2.70209e-09 -2.32006e-08 0.0005 1.46608e-07 
38 1 0.0201752 0.0208269 0.00762218 9.86485e-05 -0.0225251 -0.00985934 -1.43617e-09 -1.16859e-08 9.71913e-09 0.0005 1.46608e-07 
39 1 0.0255563 0.0214356 0.0168717 -0.000655954 0.000823282 -0.000141598 2.99268e-05 -4.55225e-05 1.13208e-05 0.0005 1.46608e-07 
41 1 0.0162694 0.0237652 0.0141122 0.000467286 -0.00237808 0.000342651 1.19248e-05 -9.027e-06 -1.61972e-06 0.0005 1.46608e-07 
42 1 0.0209325 0.0141019 0.01329 0.00143213 0.00211476 -0.00265876 1.45492e-06 -3.51706e-08 -4.04331e-07 0.0005 1.46608e-07 
43 1 0.0189702 0.0207206 0.0175496 0.0198136 -0.0129969 0.0242115 0 0 -1.43822e-06 0.0005 1.46608e-07 
44 1 0.0218059 0.0149951 0.0148516 -0.00198787 -0.00165063 -3.16763e-05 7.43012e-07 2.42511e-07 4.28873e-07 0.0005 1.46608e-07 
46 1 0.0154641 0.0205969 0.0165728 -0.00198278 0.000408873 0.000866976 8.4137e-06 9.43365e-06 -4.11492e-06 0.0005 1.46608e-07 
47 1 0.0267593 0.0232688 0.0123968 0.00242159 0.00390386 -0.0250918 -7.0864e-08 1.36063e-07 2.58929e-09 0.0005 1.46608e-07 
48 1 0.0146596 0.022919 0.0185595 -0.0232701 -0.0379507 -0.00361617 0 0 -1.43822e-06 0.0005 1.46608e-07 
49 1 0.0205744 0.0147334 0.0154827 0.00535395 -0.00377221 -0.0128322 5.68153e-07 8.84192e-08 -1.2724e-07 0.0005 1.46608e-07 
51 1 0.0230129 0.0190876 0.0159418 0.00230659 0.0245316 -0.000189568 -5.71868e-07 -1.09102e-07 -2.71677e-07 0.0005 1.46608e-07 
52 1 0.0197313 0.0241437 0.0128874 -0.00135543 -0.00040356 0.00312884 4.46127e-07 -3.57497e-07 -6.09942e-07 0.0005 1.46608e-07 
54 1 0.0152972 0.0223309 0.0167955 0.014894 0.00855128 -0.0013396 0 0 -1.43822e-06 0.0005 1.46608e-07 
55 1 0.0209074 0.0155859 0.0164451 -0.00212668 0.000902654 0.000520186 1.52903e-07 -1.85545e-07 -5.92767e-07 0.0005 1.46608e-07 
57 1 0.0186493 0.0236974 0.0143583 0.0211054 -0.0157652 -0.0182933 0 0 -1.43822e-06 0.0005 1.46608e-07 
58 1 0.0228342 0.0160518 0.0147833 0.0035752 0.00888163 0.0064769 2.42439e-07 1.24576e-07 -1.28641e-06 0.0005 1.46608e-07 
59 1 0.0181916 0.0182023 0.0158592 -2.59824e-06 0.0236646 0.00463635 3.53335e-09 1.20678e-07 2.95543e-09 0.0005 1.46608e-07 
61 1 0.0227508 0.0202241 0.015794 4.44348e-10 0.0232535 -0.00652169 2.0482e-11 -6.23661e-09 -1.7936e-08 0.0005 1.46608e-07 
62 1 0.0187386 0.0244025 0.0170945 0.0158741 -0.0159442 -0.0398539 -2.66338e-08 -4.22172e-07 -9.482e-07 0.0005 1.46608e-07 
63 1 0.0197938 0.0245829 0.0172496 -0.00301776 -0.0245689 -0.0548301 6.42652e-08 -4.09271e-07 -9.408e-07 0.0005 1.46608e-07 
64 1 0.0218169 0.0212921 0.0164436 -0.0115871 0.0121044 -0.00198637 8.70943e-08 5.97219e-08 -1.33374e-06 0.0005 1.46608e-07 
65 1 0.0245937 0.0220848 0.0156649 0.000708292 0.00340817 -0.00191655 4.62056e-08 1.13926e-05 -1.32582e-05 0.0005 1.46608e-07 
67 1 0.0136847 0.0203095 0.0165993 0.00120778 0.00376762 -0.00193711 6.97341e-07 5.89885e-07 -1.27672e-08 0.0005 1.46608e-07 
69 1 0.0217646 0.0207499 0.0156051 0.00280117 0.0146219 -0.00590476 3.19444e-07 -1.56237e-06 4.03968e-07 0.0005 1.46608e-07 
70 1 0.0262687 0.0231076 0.0100305 0.00102546 -0.00699563 -0.0199988 -2.33679e-07 1.6187e-08 -2.71655e-08 0.0005 1.46608e-07 
71 1 0.0208912 0.0147493 0.0145245 -0.000303653 -0.00471249 -0.00399891 2.21546e-07 2.9914e-07 4.75724e-07 0.0005 1.46608e-07 
72 1 0.0182266 0.0210012 0.0164608 -0.010807 0.0230697 0.0129705 3.98252e-05 -3.06305e-05 -0.000115535 0.0005 1.46608e-07 
73 1 0.0274974 0.0213902 0.0150667 0.00387654 0.0111368 -0.0094756 -2.16013e-05 0.000100363 -6.77354e-05 0.0005 1.46608e-07 
74 1 0.0156602 0.014611 0.0143431 -0.00139437 -0.00333704 -0.00368487 1.9575e-07 1.8206e-07 9.71735e-07 0.0005 1.46608e-07 
76 1 0.0201209 0.0242173 0.0142687 -0.000479826 9.47333e-05 -0.000448514 -3.21991e-07 -2.69238e-07 3.08227e-07 0.0005 1.46608e-07 
78 1 0.0166994 0.0254493 0.0208094 -0.0105352 -0.110025 -0.284479 0 0 -1.43822e-06 0.0005 1.46608e-07 
79 1 0.0242064 0.016806 0.0165077 -0.00333523 0.0200102 -0.0161586 -1.04164e-07 2.42155e-06 9.0264e-07 0.0005 1.46608e-07 
80 1 0.0199275 0.0237858 0.015425 0.00753185 -0.0132634 -0.00995675 1.64577e-06 -1.28839e-06 -4.45831e-06 0.0005 1.46608e-07 
81 1 0.0215641 0.0149274 0.017149 -0.00294458 0.00621399 -0.00765891 -4.33477e-07 2.76146e-08 -5.34579e-07 0.0005 1.46608e-07 
83 1 0.0170437 0.0199999 0.0177946 0.00989333 0.0191965 0.00889142 0 0 -1.43822e-06 0.0005 1.46608e-07 
84 1 0.0182818 0.0140686 0.0145021 0.0010377 -0.00497454 -0.0198365 1.09939e-07 7.45303e-08 -8.18125e-07 0.0005 1.46608e-07 
85 1 0.0173491 0.0233753 0.0145623 -0.00519179 0.00379489 0.00455066 2.1489e-05 1.80355e-05 -1.41969e-05 0.0005 1.46608e-07 
86 1 0.0177882 0.0237368 0.0137358 -0.000173445 0.00110981 0.00565631 4.25521e-07 -1.49788e-07 2.78696e-07 0.0005 1.46608e-07 
87 1 0.0227637 0.0185595 0.0167557 0.0256591 0.00402908 -0.00441576 0 0 -1.43822e-06 0.0005 1.46608e-07 
88 1 0.0192809 0.0180857 0.0166405 0.00223755 0.016121 0.00398824 -1.10328e-07 2.66844e-07 2.96932e-08 0.0005 1.46608e-07 
89 1 0.0183607 0.0150462 0.0146978 -0.0126198 -0.0133057 0.00107421 -1.07861e-07 -5.40942e-06 7.21738e-06 0.0005 1.46608e-07 
90 1 0.0250745 0.0214662 0.0160721 -0.000687776 0.00424474 -0.00218208 1.95932e-05 -4.96039e-05 1.7293e-05 0.0005 1.46608e-07 
91 1 0.0198543 0.0213243 0.0182478 0.0306415 -0.0355554 -0.0554253 0 0 -1.43822e-06 0.0005 1.46608e-07 
92 1 0.0175329 0.0212851 0.0154968 0.00161055 0.0234708 -0.00666973 -4.67284e-06 3.79546e-06 1.88397e-05 0.0005 1.46608e-07 
93 1 0.0249068 0.0163076 0.0159965 0.0049538 0.00895895 0.00065838 2.06618e-06 -9.7917e-07 3.44599e-06 0.0005 1.46608e-07 
94 1 0.0176918 0.0188169 0.0167743 0.0285551 -0.0191337 -0.0247619 0 0 -1.43822e-06 0.0005 1.46608e-07 
95 1 0.0245257 0.0198975 0.0166679 3.699e-09 0.0285829 -0.00456243 1.24244e-14 -3.54141e-09 -2.291e-08 0.0005 1.46608e-07 
96 1 0.0186911 0.0241271 0.0127625 -0.000155169 -0.000995423 0.00362215 1.70874e-07 -8.99677e-08 5.69789e-08 0.0005 1.46608e-07 
97 1 0.0219421 0.0233171 0.0107783 0.00197019 -0.00379437 -0.0207063 -2.63935e-08 -2.69429e-08 -6.54025e-08 0.0005 1.46608e-07 
99 1 0.0193539 0.0245066 0.0137866 -0.000760593 0.00056325 0.00313241 -3.46262e-08 -1.53806e-07 2.49277e-07 0.0005 1.46608e-07 
100 1 0.0140985 0.0154148 0.0152859 0.00184284 -0.00138569 -0.0021844 2.011e-07 -1.32723e-07 -9.41694e-08 0.0005 1.46608e-07 
101 1 0.017741 0.0240795 0.0129353 -4.50885e-05 -0.000723223 0.00191356 -2.87505e-07 -2.11021e-07 3.33598e-07 0.0005 1.46608e-07 
102 1 0.0213327 0.0243246 0.0140076 -0.00114485 -0.00101083 0.00050228 -1.43149e-06 2.72551e-07 -3.20992e-07 0.0005 1.46608e-07 
103 1 0.0222218 0.0205305 0.0169571 -0.0483305 -0.0170537 -0.0106266 0 0 -1.43822e-06 0.0005 1.46608e-07 
105 1 0.0226552 0.0229484 0.013643 -0.000702043 0.00237235 -0.00473661 -1.1467e-05 2.39959e-06 -4.99535e-06 0.0005 1.46608e-07 
106 1 0.0210026 0.0239784 0.0169357 0.000579429 0.00157755 0.00203521 -1.74226e-06 -3.85016e-08 -2.98431e-07 0.0005 1.46608e-07 
107 1 0.0239892 0.0226369 0.0152201 -0.000944569 0.00192081 -0.001121 -1.366e-06 2.95829e-05 -3.33995e-05 0.0005 1.46608e-07 
108 1 0.0197347 0.0191136 0.0167555 -0.00376992 0.0202144 0.000569514 1.81191e-07 4.52701e-07 -4.38926e-08 0.0005 1.46608e-07 
109 1 0.0188608 0.0152879 0.0138666 0.00143662 -0.00395529 0.0040183 -1.06439e-05 7.18539e-06 9.64045e-06 0.0005 1.46608e-07 
110 1 0.0219803 0.0176458 0.0165233 -0.0015346 0.0287608 -0.00292279 0 0 -1.43822e-06 0.0005 1.46608e-07 
111 1 0.0281461 0.0185983 0.0158021 0.00102209 0.0138136 0.00140687 1.13647e-06 -1.25694e-05 6.49774e-06 0.0005 1.46608e-07 
112 1 0.0226519 0.0211726 0.0154226 0.0114395 6.64698e-05 0.000362467 6.22834e-07 -8.20409e-07 -3.626e-07 0.0005 1.46608e-07 
115 1 0.0230952 0.0152946 0.0138763 0.00472787 0.0027567 0.00494832 -5.77094e-07 -4.77929e-07 -7.54401e-07 0.0005 1.46608e-07 
116 1 0.0160784 0.0190704 0.0167502 0.0015558 0.0158833 0.0132283 5.8406e-09 -1.35592e-08 -1.44361e-06 0.0005 1.46608e-07 
118 1 0.0181459 0.0154962 0.0157721 -0.00694296 0.00267706 -0.0143768 0 0 -1.43822e-06 0.0005 1.46608e-07 
119 1 0.0174678 0.014425 0.0161705 0.00642259 0.00793784 -0.0135638 8.70881e-07 -1.56973e-07 1.83157e-06 0.0005 1.46608e-07 
121 1 0.0253631 0.0172975 0.0164505 7.33533e-05 0.0236426 0.00842136 -1.09822e-10 5.04258e-08 2.96695e-10 0.0005 1.46608e-07 
122 1 0.0198366 0.0150273 0.0148751 0.00187063 -0.00167412 -0.0075203 -4.17537e-07 -1.08091e-07 -1.46667e-07 0.0005 1.46608e-07 
123 1 0.0165502 0.0236998 0.0150681 -0.00156263 0.00184086 1.59967e-05 -9.17071e-07 8.60879e-06 -3.25431e-07 0.0005 1.46608e-07 
124 1 0.0165357 0.0149102 0.0148179 -0.0017751 -0.00599395 -0.00136974 -1.26067e-07 3.89747e-08 -8.73947e-07 0.0005 1.46608e-07 
127 1 0.0183251 0.0229634 0.0150057 -0.00355419 0.0159693 -0.0176332 1.4178e-07 6.1465e-07 -7.74942e-07 0.0005 1.46608e-07 
128 1 0.0173764 0.0149944 0.0153537 -0.00141627 0.0156181 -0.00628892 -2.94999e-07 1.21798e-06 -1.19205e-06 0.0005 1.46608e-07 
129 1 0.0258621 0.019296 0.0167385 -0.00223013 0.0277503 -0.00121783 -1.00332e-08 -2.23128e-09 -2.08227e-08 0.0005 1.46608e-07 
130 1 0.0137128 0.0218015 0.0184758 0.0247929 0.020684 -0.0123716 2.06229e-07 -4.3593e-07 -1.02564e-06 0.0005 1.46608e-07 
131 1 0.0165987 0.0169689 0.0154473 0.00110903 0.0171334 0.00866044 0 0 -1.43822e-06 0.0005 1.46608e-07 
132 1 0.021319 0.0239139 0.013094 -0.00189944 -5.31722e-05 -0.000513243 1.50166e-06 -1.63557e-07 -7.39753e-06 0.0005 1.46608e-07 
133 1 0.0181995 0.0142793 0.0155022 0.00306296 0.00605416 -0.0118836 -1.86969e-07 5.65135e-08 -3.06708e-07 0.0005 1.46608e-07 
134 1 0.0220715 0.0237506 0.0136642 -0.00163602 -8.76664e-05 -6.38817e-05 -3.44493e-06 -6.72356e-07 5.42636e-06 0.0005 1.46608e-07 
135 1 0.0133666 0.0215215 0.0161515 0.000396336 -0.00130617 -0.00160445 4.66693e-07 -7.32773e-08 -8.50464e-07 0.0005 1.46608e-07 
136 1 0.0240063 0.0189707 0.0159407 -1.349e-05 0.0240817 0.000486965 7.39833e-08 6.37241e-09 -1.88905e-08 0.0005 1.46608e-07 
137 1 0.0166983 0.0213797 0.017497 0.0409495 -0.100222 -0.0254369 0 0 -1.43822e-06 0.0005 1.46608e-07 
141 1 0.0218757 0.0238471 0.0148143 -0.000676317 -0.00170188 0.000620199 1.08951e-05 -4.39247e-06 1.50058e-05 0.0005 1.46608e-07 
142 1 0.0190362 0.0203239 0.0165707 0.00404726 0.0163074 -0.00169192 0 0 -1.43822e-06 0.0005 1.46608e-07 
143 1 0.0200346 0.0202771 0.0166204 0.00093001 0.00567994 0.000405831 0 0 -1.43822e-06 0.0005 1.46608e-07 
144 1 0.0208619 0.023615 0.0157356 0.00699795 -0.00407706 -0.00134744 3.14598e-06 -8.08169e-07 4.3793e-06 0.0005 1.46608e-07 
145 1 0.018235 0.0244589 0.0138315 -3.00896e-05 0.000229996 0.00134995 2.46887e-07 -1.01936e-08 -2.49643e-08 0.0005 1.46608e-07 
146 1 0.0182365 0.0145446 0.0136239 3.73365e-05 0.00404736 -0.0143797 2.091e-06 4.15338e-07 -8.47018e-07 0.0005 1.46608e-07 
149 1 0.0127909 0.0207426 0.0164827 0.00249883 0.0062488 5.31057e-05 1.90951e-08 2.93525e-07 -1.38788e-07 0.0005 1.46608e-07 
150 1 0.0161862 0.0198903 0.0161565 0.00897453 -0.0115259 -0.0289842 0 0 -1.43822e-06 0.0005 1.46608e-07 
151 1 0.0193627 0.0205323 0.00748645 0.000253757 -0.0235643 -0.0093947 2.59131e-09 -1.09791e-08 1.35843e-08 0.0005 1.46608e-07 
152 1 0.0209695 0.0217164 0.0160678 -0.0108781 0.011554 -0.00628815 2.95771e-07 9.6467e-07 -7.3981e-07 0.0005 1.46608e-07 
153 1 0.017622 0.0240943 0.0167226 0.00713925 0.00197002 0.0021426 0 0 -1.43822e-06 0.0005 1.46608e-07 
154 1 0.0286218 0.0168039 0.0151367 0.000296089 0.0210617 0.0133633 -4.56929e-10 1.24778e-08 -8.23363e-09 0.0005 1.46608e-07 
155 1 0.0233469 0.0230236 0.0156006 0.00128325 0.00223168 -0.000311852 4.93454e-06 -8.79738e-07 -3.91865e-05 0.0005 1.46608e-07 
156 1 0.0172988 0.0148779 0.013045 0.00254122 0.00438005 0.0126361 -2.6487e-07 5.70142e-07 -5.46787e-07 0.0005 1.46608e-07 
157 1 0.0243819 0.0175222 0.0156741 0.000778435 0.0216335 0.00732974 3.24659e-09 -1.28889e-08 5.2431e-08 0.0005 1.46608e-07 
158 1 0.0201973 0.0143717 0.0139115 -0.000854574 0.00135715 -0.00613794 4.42595e-06 -5.26869e-06 -1.1503e-07 0.0005 1.46608e-07 
159 1 0.0295293 0.0236121 0.0318183 -0.0723349 -0.0367762 -0.197347 0 0 -1.43822e-06 0.0005 1.46608e-07 
160 1 0.0169314 0.0197428 0.0168333 0.00637091 0.0217992 0.00819673 -3.19551e-06 7.85099e-07 1.89681e-06 0.0005 1.46608e-07 
161 1 0.0190313 0.0155216 0.0152936 0.0018637 -0.00480565 -0.0134288 0 0 -1.43822e-06 0.0005 1.46608e-07 
162 1 0.0174123 0.0162201 0.0155102 0.00166909 0.0128033 0.0134893 0 0 -1.43822e-06 0.0005 1.46608e-07 
163 1 0.0249005 0.0220877 0.0164964 -5.24098e-05 0.00290694 -0.00193141 9.53131e-06 -8.17543e-06 1.10206e-08 0.0005 1.46608e-07 
165 1 0.0208389 0.0232257 0.0128018 0.00203219 0.0035794 -0.0140247 -1.26517e-06 4.56585e-07 -2.58678e-06 0.0005 1.46608e-07 
166 1 0.0234251 0.022003 0.0159985 0.00512255 0.00114737 0.0062653 9.12295e-07 7.69565e-07 3.66993e-07 0.0005 1.46608e-07 
167 1 0.0185301 0.0227892 0.0162566 0.00920063 0.0106385 0.0246686 9.20039e-08 2.31307e-07 -1.52622e-06 0.0005 1.46608e-07 
168 1 0.017027 0.0191001 0.0160734 0.00223616 0.0238312 0.00546867 -4.85642e-06 3.83321e-06 9.33049e-07 0.0005 1.46608e-07 
170 1 0.0197882 0.0140774 0.0167278 -0.00301935 0.00703686 -0.0162793 -2.75051e-07 -1.15143e-07 -7.97226e-07 0.0005 1.46608e-07 
172 1 0.0173895 0.0145193 0.014474 0.00211729 0.00196941 0.00078205 -3.00385e-07 6.77352e-07 3.3092e-06 0.0005 1.46608e-07 
174 1 0.0236756 0.0182674 0.0170971 -0.0119306 0.00959323 -0.010029 0 0 -1.43822e-06 0.0005 1.46608e-07 
175 1 0.0242243 0.0226013 0.0160593 -0.000453585 0.00108854 -0.000303708 -6.25193e-06 1.1103e-05 -1.55614e-05 0.0005 1.46608e-07 
177 1 0.0178576 0.0159134 0.0146455 0.00594296 0.00529068 0.00557802 -1.53364e-07 -3.69248e-07 -3.49182e-07 0.0005 1.46608e-07 
180 1 0.0514392 0.0202095 0.00593542 3.22368e-15 8.02808e-15 1.06043e-13 -6.78288e-21 2.79256e-21 2.11758e-22 0.0005 1.46608e-07 
181 1 0.0190773 0.023861 0.0134133 -0.00135101 0.00158694 0.0109347 2.4831e-07 -2.62469e-07 2.39213e-07 0.0005 1.46608e-07 
182 1 0.0194227 0.023586 0.0166415 0.00884677 -0.0083481 0.00684429 -1.10588e-06 -4.51734e-07 -1.38807e-06 0.0005 1.46608e-07 
183 1 0.0249595 0.0184615 0.00725274 0.000212082 -0.0242643 0.00362024 -9.8427e-10 -5.13086e-09 1.46707e-08 0.0005 1.46608e-07 
184 1 0.0171186 0.0242796 0.014119 -0.000199728 0.000458268 0.00152595 1.38589e-06 -1.34759e-07 1.02899e-06 0.0005 1.46608e-07 
185 1 0.0165679 0.0233182 0.0164246 -0.0246109 0.0170913 -0.10529 0 0 -1.43822e-06 0.0005 1.46608e-07 
188 1 0.021801 0.0150086 0.0158513 -0.00155096 -0.00140815 -0.000379446 3.66527e-07 9.86019e-07 -5.91079e-07 0.0005 1.46608e-07 
189 1 0.0292446 0.0150489 0.0128454 0.00012128 0.00759858 0.02435 -1.373e-09 1.69019e-08 7.25794e-10 0.0005 1.46608e-07 
191 1 0.0140685 0.0208879 0.017389 0.00442323 -0.0154883 -0.0407659 0 0 -1.43822e-06 0.0005 1.46608e-07 
192 1 0.0229262 0.0163677 0.0165594 -0.00453825 -0.0130905 0.000349905 -6.42435e-09 9.75466e-08 -1.03759e-06 0.0005 1.46608e-07 
193 1 0.0279227 0.0198224 0.0157379 0.000352772 0.0149339 -0.00236197 -1.31791e-07 2.03079e-06 -3.0359e-06 0.0005 1.46608e-07 
194 1 0.0164145 0.0142695 0.0137826 0.00182085 0.000367097 -0.00264257 -3.39783e-08 1.03892e-06 7.7678e-07 0.0005 1.46608e-07 
195 1 0.0171761 0.0218322 0.0164056 -0.0202527 0.0241301 -0.0169232 0 0 -1.43822e-06 0.0005 1.46608e-07 
196 1 0.0243265 0.0159262 0.0152772 0.00490345 0.00338352 0.00416917 3.39033e-08 1.2975e-07 8.70921e-07 0.0005 1.46608e-07 
197 1 0.0155959 0.0234503 0.0147709 0.000917686 -0.00295992 0.00233091 1.46587e-06 2.3142e-06 -1.18716e-05 0.0005 1.46608e-07 
198 1 0.021358 0.0226902 0.0152786 0.00377606 0.0107868 0.00109536 7.72948e-07 1.67859e-06 -9.87271e-07 0.0005 1.46608e-07 
200 1 0.017534 0.014615 0.0119494 -5.87619e-05 0.00191938 -0.00320135 2.60327e-08 3.16618e-08 -5.68133e-08 0.0005 1.46608e-07 
201 1 0.0151575 0.0228342 0.0138318 0.00495942 0.00174692 -0.00338242 1.34212e-06 1.33607e-07 -2.03473e-06 0.0005 1.46608e-07 
202 1 0.0191591 0.0225271 0.0154428 -0.00015088 0.00505626 -0.00659578 -2.26273e-08 1.61923e-06 -6.57143e-07 0.0005 1.46608e-07 
203 1 0.0168517 0.023825 0.0132792 -0.000565243 -0.00063864 0.00156977 -2.91939e-06 -4.13985e-06 5.99948e-06 0.0005 1.46608e-07 
205 1 0.0177009 0.0243946 0.0181426 0.00533346 -0.126475 -0.288325 0 0 -1.43822e-06 0.0005 1.46608e-07 
207 1 0.0260958 0.0228389 0.00934242 0.00196885 -0.00604044 -0.0141895 -1.24131e-07 8.84404e-08 8.40031e-08 0.0005 1.46608e-07 
208 1 0.0218557 0.0192271 0.0169072 0.00229202 0.00742431 -0.00266613 0 0 -1.43822e-06 0.0005 1.46608e-07 
209 1 0.0202169 0.0241081 0.0163308 0.00198029 -0.000891521 -0.00156029 1.62457e-06 1.96224e-07 -6.30838e-07 0.0005 1.46608e-07 
210 1 0.0270116 0.0203671 0.02345 -0.102312 -0.031208 -0.302869 0 0 -1.43822e-06 0.0005 1.46608e-07 
212 1 0.0234405 0.0211925 0.0175829 -0.0560582 0.0360035 -0.0341025 0 0 -1.43822e-06 0.0005 1.46608e-07 
213 1 0.0247598 0.0178968 0.0178849 0.019261 -0.196292 -0.0574001 0 0 -1.43822e-06 0.0005 1.46608e-07 
214 1 0.0161737 0.0168067 0.016373 -0.0265736 0.0022392 0.0221246 0 0 -1.43822e-06 0.0005 1.46608e-07 
215 1 0.0190671 0.0144057 0.0150213 -0.000127337 -0.00196059 -0.0190229 1.87233e-07 1.3624e-08 -1.09585e-06 0.0005 1.46608e-07 
216 1 0.0159766 0.0242186 0.0183021 0.0411849 -0.0301355 -0.121989 4.60435e-08 -3.49663e-07 -1.10039e-06 0.0005 1.46608e-07 
217 1 0.0232172 0.0179387 0.0158071 -0.00282387 0.0189995 0.00552422 1.21129e-06 -1.84614e-07 1.07046e-06 0.0005 1.46608e-07 
218 1 0.0242049 0.0155954 0.00892924 0.00140207 -0.0101557 0.0156635 -1.34641e-08 -3.7399e-08 9.76647e-08 0.0005 1.46608e-07 
219 1 0.0146784 0.0199899 0.0166895 -0.00543914 -0.0013701 0.000181887 -7.48515e-06 -4.26903e-06 8.44118e-06 0.0005 1.46608e-07 
220 1 0.02131 0.0234866 0.0141207 -0.00538783 -0.00354854 0.00496144 -1.16153e-05 4.27446e-06 1.90944e-06 0.0005 1.46608e-07 
221 1 0.0146999 0.0232862 0.015183 -0.00567005 0.00205297 -0.00687871 -2.7106e-06 -2.03467e-06 2.6317e-06 0.0005 1.46608e-07 
222 1 0.0192083 0.0143561 0.0137655 0.00197332 -0.00177978 -0.0121469 -1.5704e-06 -1.31054e-05 8.9549e-06 0.0005 1.46608e-07 
223 1 0.0176338 0.0152973 0.0138886 0.00854146 0.00352889 0.00872554 9.73989e-07 -4.48852e-07 1.59947e-06 0.0005 1.46608e-07 
224 1 0.015358 0.0224926 0.0148845 0.00781604 -0.00536012 0.00528012 -4.12211e-06 5.44354e-06 -7.43096e-06 0.0005 1.46608e-07 
225 1 0.0216433 0.0234872 0.0163457 0.00167691 -0.0019764 0.00513729 3.14634e-06 -1.10779e-06 3.16589e-07 0.0005 1.46608e-07 
226 1 0.0204326 0.0237434 0.0136874 -0.0031339 -0.000134913 -0.00215873 -2.96959e-07 -6.98627e-07 8.88957e-07 0.0005 1.46608e-07 
227 1 0.0182304 0.0172715 0.0163053 0.0337547 -0.0235138 -0.0636966 0 0 -1.43822e-06 0.0005 1.46608e-07 
229 1 0.0222883 0.0144742 0.0141474 -0.00100747 -0.000718347 0.000102175 -2.38762e-08 -3.9658e-08 7.80421e-08 0.0005 1.46608e-07 
230 1 0.0234892 0.0147511 0.0118496 0.00162826 0.00034568 0.0176227 -4.65194e-09 5.13131e-08 5.18124e-08 0.0005 1.46608e-07 
234 1 0.0155979 0.0215623 0.0151655 0.00492871 -0.00299213 0.00223065 -1.1681e-07 1.13826e-06 -8.02124e-07 0.0005 1.46608e-07 
235 1 0.0140559 0.0166353 0.0161821 0.00997286 -0.0485835 -0.0213214 0 0 -1.43822e-06 0.0005 1.46608e-07 
236 1 0.022232 0.0229672 0.0148763 0.000644901 -0.00332109 0.0014546 6.48986e-06 2.52097e-06 -9.05226e-06 0.0005 1.46608e-07 
237 1 0.0235249 0.0170463 0.0154767 0.0021359 0.0184378 0.0097311 -4.00754e-07 4.5799e-07 -1.38051e-07 0.0005 1.46608e-07 
238 1 0.0259145 0.0205256 0.017063 0.00248271 -0.0046311 0.000154581 2.82425e-05 7.44928e-06 -8.82508e-06 0.0005 1.46608e-07 
239 1 0.0168366 0.0229233 0.013683 0.00372548 -0.00235278 0.00257258 1.431e-06 -6.83601e-06 1.07451e-05 0.0005 1.46608e-07 
240 1 0.0264684 0.0233439 0.0108679 0.000759244 -0.00158769 -0.0204597 8.80322e-08 -4.59075e-08 -9.09422e-08 0.0005 1.46608e-07 
241 1 0.016614 0.0211923 0.0158814 0.00329818 0.000676584 -0.00754911 -1.50134e-06 4.64255e-06 -3.81359e-06 0.0005 1.46608e-07 
242 1 0.0215145 0.0217291 0.0150513 0.00288801 0.0107716 -0.00841318 7.76309e-07 1.70539e-06 4.67982e-07 0.0005 1.46608e-07 
244 1 0.0187009 0.0173241 0.0075727 0.00329113 -0.0128455 0.00851172 1.01371e-08 7.42041e-08 -5.85422e-08 0.0005 1.46608e-07 
245 1 0.0162494 0.0184882 0.0159554 0.000799314 0.0251968 0.00368899 -1.12181e-06 4.96411e-06 -2.17514e-06 0.0005 1.46608e-07 
246 1 0.0220567 0.0193806 0.0159393 0.00137703 0.022945 -0.00245107 0 0 -1.43822e-06 0.0005 1.46608e-07 
247 1 0.0143075 0.0218222 0.0159946 0.00127314 -0.00137333 0.00196039 0 0 -1.43822e-06 0.0005 1.46608e-07 
248 1 0.0223454 0.021976 0.0159318 0.0063842 -0.00208771 0.0015018 -1.25867e-06 -2.51909e-06 9.44664e-07 0.0005 1.46608e-07 
249 1 0.0224535 0.0219944 0.0148389 0.00824383 -0.000664563 0.00292415 2.89109e-06 -1.78295e-06 2.47715e-06 0.0005 1.46608e-07 
250 1 0.0171976 0.0223936 0.0144494 0.0133025 0.00192205 0.000662793 6.59354e-07 -2.4292e-05 3.48846e-06 0.0005 1.46608e-07 
251 1 0.0226087 0.0155979 0.0158705 -0.0059675 0.00589101 -0.0144114 -3.99433e-07 -2.61738e-08 -6.2992e-07 0.0005 1.46608e-07 
252 1 0.0162255 0.0227815 0.015296 -0.00212241 -0.00140608 -0.00369931 0 0 -1.43822e-06 0.0005 1.46608e-07 
253 1 0.0256953 0.0213823 0.00805368 -9.49555e-05 -0.0211019 -0.0151223 -1.56466e-09 -1.0157e-08 1.00406e-08 0.0005 1.46608e-07 
254 1 0.0156839 0.0152797 0.0151901 0.00139837 -0.00265892 -0.00341996 -3.99987e-08 -3.90113e-07 -3.57894e-07 0.0005 1.46608e-07 
255 1 0.0179811 0.0163016 0.0163636 0.0403772 -0.0261476 -0.0257639 0 0 -1.43822e-06 0.0005 1.46608e-07 
257 1 0.0213146 0.0234122 0.0121108 0.00117251 0.00152897 -0.00481633 -2.33636e-07 -3.84101e-08 -5.60383e-08 0.0005 1.46608e-07 
258 1 0.0163014 0.0223586 0.0169222 0.0301082 0.0115406 6.39562e-05 0 0 -1.43822e-06 0.0005 1.46608e-07 
259 1 0.0191016 0.0192604 0.00715679 0.000840637 -0.0242945 -0.00188283 -8.36779e-09 -1.56404e-08 1.42814e-08 0.0005 1.46608e-07 
261 1 0.021088 0.0155915 0.0154616 -0.000480095 0.000323692 0.000881267 2.17013e-06 -8.68762e-07 -1.46455e-06 0.0005 1.46608e-07 
262 1 0.0143573 0.0160253 0.0178172 0.10397 0.0514862 -0.169661 0 0 -1.43822e-06 0.0005 1.46608e-07 
263 1 0.0206979 0.0195173 0.0167522 0.00455173 0.00640882 -0.000228442 -2.03152e-07 8.42194e-07 -7.07291e-08 0.0005 1.46608e-07 
264 1 0.0234102 0.0217736 0.0150254 0.00684213 -0.000985977 0.00660029 1.19684e-06 -1.85532e-07 1.41259e-06 0.0005 1.46608e-07 
265 1 0.0141065 0.0227858 0.0158151 0.000938162 -6.70288e-05 -0.00318766 0 0 -1.43822e-06 0.0005 1.46608e-07 
266 1 0.0200465 0.0150829 0.0165209 -0.00754356 0.00855478 -0.0152454 -7.64885e-08 7.69079e-07 -1.28045e-07 0.0005 1.46608e-07 
267 1 0.0195306 0.0232862 0.0146257 -0.00033012 0.0262959 -0.0346098 -2.32229e-08 3.924e-07 -5.54816e-07 0.0005 1.46608e-07 
268 1 0.0122615 0.0198332 0.0166687 0.000919662 0.00257098 0.000175378 -9.21787e-08 -8.15932e-08 3.26775e-07 0.0005 1.46608e-07 
269 1 0.0190263 0.0234794 0.0157297 0.00736573 -0.00413434 0.00466952 -2.39932e-06 -2.59575e-06 -1.08411e-06 0.0005 1.46608e-07 
270 1 0.0243151 0.00735665 0.0416228 0.0870342 -0.115686 0.0512103 0 0 -1.43822e-06 0.0005 1.46608e-07 
271 1 0.0148335 0.022496 0.0176683 -0.0103402 -0.0237881 -0.0065763 0 0 -1.43822e-06 0.0005 1.46608e-07 
273 1 0.0201025 0.0157263 0.0155637 0.000726119 -0.0013586 -0.00203362 -2.51313e-06 4.55474e-07 1.32711e-06 0.0005 1.46608e-07 
274 1 0.0131822 0.0194491 0.0167369 0.00357605 0.00888425 -0.0017881 1.53335e-07 1.3692e-07 -1.38283e-07 0.0005 1.46608e-07 
275 1 0.0233669 0.0173421 0.0165967 -0.0138531 -0.00876821 -0.011562 0 0 -1.43822e-06 0.0005 1.46608e-07 
276 1 0.0173706 0.0140455 0.0135938 0.00258776 -0.00149573 0.00266489 7.1042e-07 1.15508e-06 2.03237e-06 0.0005 1.46608e-07 
277 1 0.016857 0.0159778 0.01471 0.00323629 0.00929456 0.00882203 1.79178e-07 9.40111e-08 -1.32765e-06 0.0005 1.46608e-07 
279 1 0.0230846 0.0147146 0.0147024 0.00171833 0.00553869 -0.00640597 -3.13423e-08 1.79464e-07 -2.4286e-07 0.0005 1.46608e-07 
281 1 0.0161699 0.0225579 0.0143192 0.0109019 -0.00350171 0.00982178 -5.92945e-06 -7.54002e-06 -2.08464e-06 0.0005 1.46608e-07 
283 1 0.0236191 0.0209249 0.0155308 1.76979e-05 0.0230469 -0.0107864 2.28859e-10 9.58983e-09 -2.69402e-08 0.0005 1.46608e-07 
285 1 0.0152925 0.0226888 0.0158602 0.00129389 -0.00116369 0.0021047 -1.68972e-06 6.58581e-06 -5.77387e-06 0.0005 1.46608e-07 
286 1 0.0201995 0.0229986 0.00983927 0.000833683 -0.0107985 -0.0216062 -8.03721e-09 -1.03429e-08 -1.24716e-08 0.0005 1.46608e-07 
288 1 0.0157829 0.0206952 0.0156296 0.00375285 -0.00531508 0.00316505 -7.53042e-08 1.05551e-06 -5.46849e-07 0.0005 1.46608e-07 
289 1 0.0220595 0.0233122 0.0127637 0.00220272 0.00126245 -0.00187188 -1.4698e-06 1.03059e-06 -9.85982e-07 0.0005 1.46608e-07 
290 1 0.0143222 0.000903028 0.0435188 -9.70174e-317 -9.69426e-317 2.45201e-12 0 0 0 0.0005 1.46608e-07 
291 1 0.0245729 0.0169741 0.00767971 0.00173517 -0.0153279 0.00661766 -1.34948e-08 4.80164e-08 1.57733e-08 0.0005 1.46608e-07 
293 1 0.0178697 0.0204531 0.0172165 0.00537113 -0.00578262 -0.0801125 -3.98252e-05 3.06305e-05 0.000112659 0.0005 1.46608e-07 
294 1 0.016902 0.0207363 0.0167233 0.0227885 0.0178513 -0.00261694 1.11605e-06 -3.3188e-06 1.53667e-06 0.0005 1.46608e-07 
295 1 0.0210441 0.0145988 0.0163603 -0.00482713 0.0011563 -0.00518028 -6.07804e-07 -6.73245e-07 1.1592e-06 0.0005 1.46608e-07 
297 1 0.0199419 0.0218646 0.0159582 0.00450683 -0.00413624 -0.000670484 -2.06425e-07 1.94927e-06 -4.56145e-08 0.0005 1.46608e-07 
298 1 0.0172541 0.0176701 0.0157299 0.00414763 0.0140337 0.00395521 -1.52854e-07 -1.11204e-08 -6.18814e-09 0.0005 1.46608e-07 
299 1 0.0169508 0.0160569 0.0168347 -0.0837406 -0.150255 -0.116018 0 0 -1.43822e-06 0.0005 1.46608e-07 
300 1 0.0211096 0.0232697 0.0104379 0.0026915 -0.0033496 -0.0165854 5.53328e-09 -3.27551e-08 -6.38562e-08 0.0005 1.46608e-07 
301 1 0.0217747 0.0166366 0.0161931 -0.00535485 0.00126742 0.00150078 4.24061e-08 2.34245e-08 4.19831e-08 0.0005 1.46608e-07 
302 1 0.0181069 0.0219129 0.0160264 0.00164108 0.0147106 0.0202091 -9.20039e-08 -2.31307e-07 -1.35022e-06 0.0005 1.46608e-07 