ITEM: TIMESTEP
3000000
ITEM: NUMBER OF ATOMS
300
ITEM: BOX BOUNDS ff ff ff
-0.02 0.43
-0.02 0.09
-0.03 0.1
ITEM: ATOMS id type x y z vx vy vz fx fy fz radius mass 
1 1 0.0231896 0.0154941 0.0141811 0.00412208 0.00643058 0.0064027 1.2777e-07 -5.10984e-07 1.00851e-07 0.0005 1.46608e-07 
2 1 0.0229638 0.0161896 0.0149198 0.0041976 0.00552501 0.00604203 5.14978e-08 -1.11024e-07 -2.04168e-07 0.0005 1.46608e-07 
3 1 0.0249189 0.0192278 0.0174107 0.035583 -0.0099753 0.0191906 0 0 -1.43822e-06 0.0005 1.46608e-07 
4 1 0.0176347 0.0226429 0.0149525 0.00220842 0.0137913 -0.0220466 -5.74196e-07 1.63899e-07 -3.28848e-07 0.0005 1.46608e-07 
5 1 0.0243435 0.0217407 0.018146 -0.0910921 0.0125114 -0.0837637 0 0 -1.43822e-06 0.0005 1.46608e-07 
6 1 0.0170333 0.023757 0.0149551 0.00219116 -0.000818459 0.000564471 1.08273e-06 5.88856e-07 9.11917e-07 0.0005 1.46608e-07 
7 1 0.0182242 0.0148528 0.0129721 0.0101775 0.00333636 0.0113993 0 0 -1.43822e-06 0.0005 1.46608e-07 
8 1 0.0224115 0.0145193 0.0141908 -4.53318e-05 0.000248484 -0.000272648 -7.95517e-08 -1.37725e-07 -1.6408e-07 0.0005 1.46608e-07 
10 1 0.0199143 0.0243638 0.0138204 -0.00019048 -0.000141074 -0.000231294 1.15295e-06 3.94349e-07 -5.30491e-07 0.0005 1.46608e-07 
12 1 0.0175671 0.0179358 0.0158055 0.000246172 0.0194588 0.00541085 -2.35705e-08 1.91774e-07 2.7158e-08 0.0005 1.46608e-07 
13 1 0.0220406 0.0202319 0.0157993 0.00112552 0.0302721 -0.00880042 -4.25519e-08 -1.14994e-07 -1.39989e-06 0.0005 1.46608e-07 
14 1 0.0162651 0.0231761 0.0168114 0.00201828 0.000690378 0.000816886 6.57181e-07 -2.01358e-06 -1.85219e-06 0.0005 1.46608e-07 
15 1 0.0213469 0.0234204 0.0122552 -9.64676e-05 0.000368067 -0.000607331 2.65742e-08 -9.2339e-09 -1.05345e-07 0.0005 1.46608e-07 
16 1 0.0211418 0.0228398 0.00940095 0.000403606 -0.00572893 -0.0107058 -8.37398e-09 -3.45161e-09 2.78145e-08 0.0005 1.46608e-07 
17 1 0.0264664 0.0231672 0.0101557 0.000762382 -0.00685736 -0.0215939 -7.15192e-08 3.63559e-08 3.40969e-08 0.0005 1.46608e-07 
18 1 0.0231538 0.0234712 0.0153562 8.04788e-05 0.000130452 -2.32951e-05 -4.2833e-07 -1.18251e-07 -4.60792e-07 0.0005 1.46608e-07 
19 1 0.0168606 0.0231813 0.0176667 -0.00268047 -0.00336122 -0.000422969 0 0 -1.43822e-06 0.0005 1.46608e-07 
20 1 0.0260797 0.0222933 0.00873374 -0.000210691 -0.01364 -0.016091 -1.28628e-07 -6.18403e-09 1.15411e-07 0.0005 1.46608e-07 
21 1 0.0233631 0.0150832 0.013213 0.00188302 0.00337093 0.00898041 -1.14539e-08 1.71642e-09 -2.83709e-08 0.0005 1.46608e-07 
22 1 0.0171132 0.014166 0.0134342 -2.93127e-05 -0.000879995 0.00289867 2.33846e-07 4.45611e-08 -5.04239e-07 0.0005 1.46608e-07 
23 1 0.0183587 0.0237689 0.0135676 -0.0012794 0.00552926 -0.00428657 -5.21094e-08 -6.80582e-08 9.92949e-07 0.0005 1.46608e-07 
24 1 0.0205789 0.0247931 0.0185481 -0.00358939 -0.0315552 -0.048269 0 0 -1.43822e-06 0.0005 1.46608e-07 
25 1 0.019725 0.0224752 0.0155286 -0.0381151 0.00878837 -0.00182908 0 0 -1.43822e-06 0.0005 1.46608e-07 
27 1 0.0200206 0.0223623 0.0170786 0.0147426 -0.00237658 0.0299857 0 0 -1.43822e-06 0.0005 1.46608e-07 
28 1 0.0220574 0.0228753 0.0137084 0.00247729 0.00225675 -0.0028051 -1.99261e-07 3.48049e-06 -6.14102e-06 0.0005 1.46608e-07 
29 1 0.0176642 0.0232946 0.01592 0.00212518 -0.000247746 0.000720974 7.06881e-06 6.78325e-06 3.71189e-06 0.0005 1.46608e-07 
30 1 0.0122971 0.0198089 0.0166062 0.000219624 -0.000840072 -0.00199773 0 0 -1.43822e-06 0.0005 1.46608e-07 
31 1 0.0205883 0.0229333 0.0164756 -0.0156561 0.00294594 0.0237944 0 0 -1.43822e-06 0.0005 1.46608e-07 
32 1 0.0163249 0.0239827 0.0173992 -0.00168851 0.00036012 0.00351482 4.01624e-06 -4.18324e-07 2.3158e-06 0.0005 1.46608e-07 
33 1 0.0191983 0.0149529 0.0132163 0.0137478 -0.00336059 -0.00922835 -4.47164e-08 -4.26193e-07 -9.59195e-07 0.0005 1.46608e-07 
34 1 0.018636 0.0253439 0.0196664 -0.0108054 -0.0813598 -0.154221 0 0 -1.43822e-06 0.0005 1.46608e-07 
35 1 0.022806 0.0234556 0.0141744 0.000319602 0.00153018 -0.000585448 4.92471e-07 1.37073e-06 -3.72605e-06 0.0005 1.46608e-07 
36 1 0.02043 0.0241111 0.0126045 -0.00300231 -0.00202441 -0.00370007 -4.64959e-08 1.27007e-07 3.33989e-07 0.0005 1.46608e-07 
37 1 0.0184453 0.0207894 0.0164694 0.00491249 -0.00489395 0.00229725 0 0 -1.43822e-06 0.0005 1.46608e-07 
38 1 0.0159678 0.023142 0.0131695 0.00359716 0.00108062 -0.00427241 2.52733e-07 -4.75056e-08 9.86891e-07 0.0005 1.46608e-07 
39 1 0.0246724 0.0220301 0.0163991 -0.000185989 0.000480035 -0.000110856 1.17333e-06 4.68234e-07 -1.72906e-07 0.0005 1.46608e-07 
41 1 0.0157658 0.0235155 0.0142959 0.00255722 0.000694742 -0.00240378 8.26413e-09 -7.42698e-08 2.71011e-08 0.0005 1.46608e-07 
42 1 0.0259865 0.0134052 0.0260877 -0.0867347 -0.00629135 -0.133487 0 0 -1.43822e-06 0.0005 1.46608e-07 
43 1 0.019997 0.02423 0.016403 -0.00209849 0.00232378 0.00553934 8.21145e-07 -2.21811e-06 -8.53576e-07 0.0005 1.46608e-07 
44 1 0.0202663 0.0228059 0.00940778 0.0010401 -0.0105164 -0.0198201 2.25217e-09 -9.43555e-09 6.68165e-09 0.0005 1.46608e-07 
46 1 0.0251851 0.019735 0.0187721 -0.0570154 -0.0132864 -0.114875 0 0 -1.43822e-06 0.0005 1.46608e-07 
47 1 0.0244486 0.0157237 0.015708 0.00944797 0.0135564 0.00102289 1.74134e-06 -9.44998e-08 2.69221e-06 0.0005 1.46608e-07 
48 1 0.0215467 0.0156232 0.0154821 -0.00590979 -0.00349628 -0.00270297 4.49089e-08 -3.12007e-07 -1.74569e-07 0.0005 1.46608e-07 
49 1 0.0160713 0.0087845 0.0318845 0.0105342 0.0578862 -0.135506 0 0 -1.43822e-06 0.0005 1.46608e-07 
50 1 0.0230125 0.0218743 0.0157734 -0.0044364 -0.00923347 -0.00322167 0 0 -1.43822e-06 0.0005 1.46608e-07 
51 1 0.0199607 0.0193312 0.0071704 0.00252168 -0.0208359 -0.00259702 1.11456e-09 -3.23183e-08 5.8082e-10 0.0005 1.46608e-07 
52 1 0.0194747 0.0240978 0.0128591 -0.000374664 -0.000754512 -0.000299612 -3.31951e-07 3.4053e-08 -1.17551e-07 0.0005 1.46608e-07 
53 1 0.02157 0.0227505 0.0155396 -0.00891183 0.0174146 -0.00101786 -2.84761e-06 2.59643e-05 6.84453e-06 0.0005 1.46608e-07 
54 1 0.0148763 0.0225575 0.0176627 0.000237255 -0.000690323 -0.00171739 9.11879e-08 1.14485e-07 -4.89128e-07 0.0005 1.46608e-07 
55 1 0.0195787 0.0145054 0.0140751 0.00927361 0.00356481 0.0175927 0 0 -1.43822e-06 0.0005 1.46608e-07 
57 1 0.0191942 0.0237472 0.0155039 -0.0303742 0.00173755 0.00888845 0 0 -1.43822e-06 0.0005 1.46608e-07 
58 1 0.0210947 0.0232155 0.0129762 0.00299018 -0.000538156 -0.00185344 -1.3434e-07 1.34864e-07 -3.44145e-07 0.0005 1.46608e-07 
59 1 0.0173777 0.0147238 0.0159066 -0.000544685 0.00647599 -0.00738922 -3.06554e-08 1.33407e-07 -2.63779e-07 0.0005 1.46608e-07 
60 1 0.0251472 0.0186883 0.0184696 -0.00907535 -0.0948116 0.0239599 0 0 -1.43822e-06 0.0005 1.46608e-07 
61 1 0.0204051 0.015571 0.015413 0.00189168 -0.00105979 -0.00141639 -4.14162e-07 5.14208e-07 5.0425e-08 0.0005 1.46608e-07 
62 1 0.0239562 0.020257 0.0158241 -0.000950162 0.0283683 -0.00898528 0 0 -1.43822e-06 0.0005 1.46608e-07 
63 1 0.0229498 0.0210127 0.0198502 -0.0537334 0.170497 0.0304124 0 0 -1.43822e-06 0.0005 1.46608e-07 
64 1 0.0210121 0.0147763 0.0154184 -0.000461803 -0.00269853 0.000938647 -5.35693e-08 -1.5084e-07 -6.6918e-08 0.0005 1.46608e-07 
65 1 0.0235155 0.0219847 0.0148446 0.0118624 0.00489669 -0.00558486 9.93356e-06 1.62939e-05 -7.03768e-06 0.0005 1.46608e-07 
67 1 0.0216993 0.0209589 0.0163957 -0.00859556 0.011483 0.00673975 0 0 -1.43822e-06 0.0005 1.46608e-07 
69 1 0.0237362 0.0113715 0.0315861 0.0306104 -0.141939 -0.177963 0 0 -1.43822e-06 0.0005 1.46608e-07 
70 1 0.0243986 0.0172545 0.0155616 2.65007e-05 0.0216668 0.00948584 2.21957e-07 -1.39337e-07 7.39749e-09 0.0005 1.46608e-07 
71 1 0.020552 0.00643888 0.0366002 0.00436568 0.0285133 -0.128066 0 0 -1.43822e-06 0.0005 1.46608e-07 
72 1 0.0176502 0.0146379 0.0121817 0.00401528 0.000171778 0.0126579 -8.41766e-07 -2.86839e-07 -1.04067e-06 0.0005 1.46608e-07 
73 1 0.0262925 0.0228374 0.00938245 0.00232345 -0.00837702 -0.0163204 1.8526e-07 4.46961e-08 3.29846e-08 0.0005 1.46608e-07 
74 1 0.018295 0.0220398 0.0172513 -0.0117644 -0.0379628 -0.00421052 0 0 -1.43822e-06 0.0005 1.46608e-07 
75 1 0.0173142 0.0151755 0.0136947 0.00457766 0.00641729 0.013521 0 0 -1.43822e-06 0.0005 1.46608e-07 
76 1 0.0192982 0.0240288 0.014525 -0.0002332 -0.000328485 -0.000627533 -5.69258e-07 -6.58217e-08 -5.83618e-07 0.0005 1.46608e-07 
78 1 0.0185121 0.0244437 0.0172448 -0.0156637 0.00306807 0.00768824 0 0 -1.43822e-06 0.0005 1.46608e-07 
79 1 0.0256169 0.0176979 0.0165783 -0.0110339 0.0101627 -0.00466413 7.55604e-06 1.0443e-05 5.28568e-05 0.0005 1.46608e-07 
80 1 0.0190019 0.0241341 0.0164245 -0.00347411 0.00257244 0.00652966 -1.83376e-07 -1.87016e-06 -2.15591e-06 0.0005 1.46608e-07 
81 1 0.0206172 0.0137062 0.0140106 -1.28031e-05 -0.000286977 0.000225516 -1.78414e-06 -2.24271e-07 4.71891e-08 0.0005 1.46608e-07 
83 1 0.0213162 0.0200236 0.0166999 -0.0248101 0.0116192 -0.0644718 0 0 -1.43822e-06 0.0005 1.46608e-07 
84 1 0.01677 0.012165 0.0214571 0.0142881 0.0809731 -0.1669 0 0 -1.43822e-06 0.0005 1.46608e-07 
85 1 0.0159337 0.02242 0.015707 0.00246165 0.00206728 0.00123006 -2.30732e-06 1.77334e-06 1.78654e-07 0.0005 1.46608e-07 
86 1 0.0155011 0.0223378 0.0144951 0.00590016 0.00180083 -0.00228559 4.82001e-07 9.15706e-07 9.48643e-07 0.0005 1.46608e-07 
87 1 0.0208497 0.0214958 0.0165772 -0.0242032 0.000535632 -0.0156986 0 0 -1.43822e-06 0.0005 1.46608e-07 
88 1 0.0173374 0.0152263 0.016942 0.0565311 -0.0685938 -0.14102 0 0 -1.43822e-06 0.0005 1.46608e-07 
89 1 0.0186231 0.0146133 0.0119522 0.00334223 -0.00206383 0.00362552 7.79192e-07 -8.89005e-08 1.48874e-07 0.0005 1.46608e-07 
90 1 0.0241567 0.0192874 0.0159656 -0.000639137 0.0286357 -0.000658034 -1.99348e-06 -4.91444e-06 3.96068e-06 0.0005 1.46608e-07 
91 1 0.0195074 0.0245382 0.0172188 -0.0162808 -0.00349847 0.00277794 2.58068e-06 5.16164e-06 8.26293e-07 0.0005 1.46608e-07 
92 1 0.0163272 0.021178 0.0287236 -0.062043 -0.0155933 -0.226586 0 0 -1.43822e-06 0.0005 1.46608e-07 
93 1 0.0226683 0.0173308 0.0156814 -6.79755e-05 0.0254544 0.0115056 -1.35366e-07 4.85579e-07 1.84249e-06 0.0005 1.46608e-07 
94 1 0.0201954 0.0237335 0.0155559 -0.0179857 0.00123275 -0.0144761 0 0 -1.43822e-06 0.0005 1.46608e-07 
95 1 0.0230759 0.0142879 0.0212181 -0.0182034 0.00818463 0.0595336 0 0 -1.43822e-06 0.0005 1.46608e-07 
96 1 0.0183571 0.0240976 0.0127601 -0.000139274 0.00179399 0.000651716 -1.18059e-09 -1.0812e-07 2.84015e-07 0.0005 1.46608e-07 
97 1 0.0178629 0.0206761 0.0156546 0.00566291 0.00641019 0.00585517 -2.8338e-07 2.00417e-06 1.86409e-06 0.0005 1.46608e-07 
98 1 0.0169316 0.0108572 0.0319121 -0.249402 -0.195212 0.620286 0 0 -1.43822e-06 0.0005 1.46608e-07 
99 1 0.0189593 0.0244653 0.0136373 -0.000708321 0.0015644 -0.000693919 1.09725e-06 -7.13329e-07 -1.49096e-06 0.0005 1.46608e-07 
100 1 0.019655 0.0232108 0.0162193 -0.0178025 -0.000877023 0.00355325 0 0 -1.43822e-06 0.0005 1.46608e-07 
101 1 0.0172957 0.0240106 0.0130885 0.000976189 -0.00255415 -0.002444 -1.70965e-07 -1.65881e-07 -2.12999e-07 0.0005 1.46608e-07 
102 1 0.0213724 0.0240127 0.0144861 -3.07258e-05 9.74925e-05 -0.000307399 -2.67385e-07 -7.08768e-08 2.38003e-07 0.0005 1.46608e-07 
103 1 0.0240142 0.0207567 0.017379 -0.0380623 -0.0245305 0.0407202 0 0 -1.43822e-06 0.0005 1.46608e-07 
105 1 0.0203771 0.0140491 0.0131148 -0.000482715 -0.000825072 0.000846845 -4.23805e-07 4.44857e-07 -3.92018e-07 0.0005 1.46608e-07 
106 1 0.0215791 0.0218071 0.0158695 -0.00289899 0.0105401 -0.000706747 9.59386e-06 1.69844e-05 -2.90227e-06 0.0005 1.46608e-07 
107 1 0.0222548 0.0211647 0.0155093 0.000820659 0.0211447 -0.012091 1.28981e-05 -1.88801e-05 2.77763e-06 0.0005 1.46608e-07 
108 1 0.0235639 0.0209496 0.0164503 -0.00808985 0.00407074 0.0174828 0 0 -1.43822e-06 0.0005 1.46608e-07 
109 1 0.0130368 0.00814718 0.0343332 -0.00754583 0.0258363 -0.0409935 2.76011e-07 3.28897e-07 -9.29762e-07 0.0005 1.46608e-07 
110 1 0.0248584 0.0200092 0.0167114 -0.0036312 -0.015718 0.00420281 0 0 -1.43822e-06 0.0005 1.46608e-07 
111 1 0.027229 0.0227845 0.0135435 -0.000289165 0.0141846 -0.0218441 -1.64716e-09 -1.24091e-08 -8.88836e-09 0.0005 1.46608e-07 
112 1 0.0188455 0.0151858 0.0172732 -0.0505084 0.0227584 -0.0478582 0 0 -1.43822e-06 0.0005 1.46608e-07 
113 1 0.0222452 0.0188505 0.0354807 -0.0285482 0.150055 0.813129 0 0 -1.43822e-06 0.0005 1.46608e-07 
115 1 0.0212505 0.0228516 0.0138252 0.00396033 0.000887283 -0.00252461 4.68348e-07 -1.19695e-09 5.0326e-07 0.0005 1.46608e-07 
116 1 0.0139653 0.0155499 0.0154135 0.00291118 -0.00189625 -0.00394999 -6.77646e-07 2.47932e-07 5.05677e-07 0.0005 1.46608e-07 
118 1 0.019147 0.0144336 0.0156349 -0.000435002 0.00111576 -0.00206485 5.13665e-07 5.11077e-08 -1.47385e-06 0.0005 1.46608e-07 
119 1 0.0247068 0.00975668 0.0305185 0.0588027 -0.166285 -0.174884 0 0 -1.43822e-06 0.0005 1.46608e-07 
121 1 0.0237073 0.0199929 0.0168084 -0.0299696 -0.0260189 -0.00413966 0 0 -1.43822e-06 0.0005 1.46608e-07 
122 1 0.0183974 0.00769511 0.0317508 -0.0216267 0.0460853 -0.100413 0 0 -1.43822e-06 0.0005 1.46608e-07 
123 1 0.0161896 0.0234125 0.0153483 0.000719752 -0.000336392 -0.000526508 9.90677e-08 2.47026e-06 -1.43853e-06 0.0005 1.46608e-07 
124 1 0.0232019 0.0195788 0.0159346 -0.00185263 0.0312238 -0.000560566 -3.49667e-06 -1.21089e-05 1.74366e-06 0.0005 1.46608e-07 
125 1 0.0329354 -0.0178249 0.0377333 0.10201 -0.229351 -0.525583 0 0 -1.43822e-06 0.0005 1.46608e-07 
127 1 0.0176741 0.0235119 0.0142379 -0.000239916 0.00119218 -0.00324041 -1.80206e-07 -1.87064e-07 1.02528e-06 0.0005 1.46608e-07 
128 1 0.0202753 0.019432 0.0169805 -0.0879884 0.0442948 -0.0665184 0 0 -1.43822e-06 0.0005 1.46608e-07 
129 1 0.025897 0.0186908 0.0167536 0.0018947 -0.017563 -0.00235705 -3.03806e-09 3.21211e-07 -6.14744e-07 0.0005 1.46608e-07 
130 1 0.0177899 0.0245308 0.0179317 -0.0101647 0.0023472 0.0163974 0 0 -1.43822e-06 0.0005 1.46608e-07 
131 1 0.0165771 0.0167152 0.0185918 -0.161337 -0.0176125 0.0693599 0 0 -1.43822e-06 0.0005 1.46608e-07 
132 1 0.0212253 0.0240508 0.0133908 0.000686667 -0.000406559 -0.000922414 -1.21528e-07 1.60992e-07 -2.21746e-07 0.0005 1.46608e-07 
133 1 0.0135603 0.0205427 0.0175436 0.000606305 0.00498759 -0.00375741 0 0 -1.43822e-06 0.0005 1.46608e-07 
134 1 0.0220304 0.0237999 0.0138301 0.000354973 0.000626368 -0.00064896 -1.56805e-07 8.58447e-07 -1.25765e-06 0.0005 1.46608e-07 
135 1 0.0127663 0.0207008 0.0164916 0.00157083 0.00441612 0.000354747 2.10318e-07 4.64797e-07 -1.88635e-07 0.0005 1.46608e-07 
136 1 0.0258316 0.0197344 0.0167289 -0.00155675 -0.00881478 -0.00569653 -1.53885e-06 4.69245e-07 3.12744e-07 0.0005 1.46608e-07 
137 1 0.0167676 0.0210595 0.0175657 -0.233832 0.212012 -0.122298 0 0 -1.43822e-06 0.0005 1.46608e-07 
138 1 0.0236971 0.0147203 0.0114913 9.182e-05 -0.00163153 0.0255439 1.90805e-09 1.44661e-08 1.48001e-09 0.0005 1.46608e-07 
140 1 0.0189657 0.0158399 0.0145695 -0.000399149 0.00538943 0.0058302 -1.67145e-07 -2.20978e-07 -3.5479e-07 0.0005 1.46608e-07 
141 1 0.0221454 0.0235473 0.0149199 -0.00217415 -0.0014075 0.000357186 0 0 -1.43822e-06 0.0005 1.46608e-07 
142 1 0.0229997 0.020537 0.0157345 0.00128319 0.0284095 -0.00675611 1.27123e-05 -1.07004e-06 -1.87319e-06 0.0005 1.46608e-07 
143 1 0.0206188 0.022147 0.0158396 -0.028686 0.0228147 -0.00759311 0 0 -1.43822e-06 0.0005 1.46608e-07 
144 1 0.0204304 0.0244639 0.0175998 0.0279903 -0.0470837 -0.0943163 0 0 -1.43822e-06 0.0005 1.46608e-07 
145 1 0.0179585 0.0244584 0.0137918 -0.00011456 0.0010215 -0.000874979 -4.18391e-08 2.69078e-09 2.50076e-07 0.0005 1.46608e-07 
146 1 0.0166353 0.0148149 0.0147608 -0.0108552 -0.0277235 0.00799906 0 0 -1.43822e-06 0.0005 1.46608e-07 
148 1 0.0211292 0.0116739 0.0518182 -0.0112501 -0.142856 0.0813843 0 0 -1.43822e-06 0.0005 1.46608e-07 
149 1 0.00987041 0.0178472 0.0270817 0.0923976 0.0842464 -0.284869 0 0 -1.43822e-06 0.0005 1.46608e-07 
150 1 0.0133881 0.016207 0.0158995 0.00290479 -0.00330546 -0.00244662 3.29693e-08 -6.64538e-08 -1.23624e-10 0.0005 1.46608e-07 
151 1 0.0157177 0.0216231 0.0151439 0.00512487 0.00333832 0.000495378 -2.33538e-07 8.37211e-07 6.80619e-07 0.0005 1.46608e-07 
152 1 0.0235463 0.0177836 0.0157802 0.000306865 0.0266193 0.00307809 9.34952e-07 -8.39245e-07 -2.26113e-06 0.0005 1.46608e-07 
153 1 0.0234746 0.0270838 0.0260811 -0.042911 -0.0618156 -0.171461 0 0 -1.43822e-06 0.0005 1.46608e-07 
154 1 0.027659 0.0215167 0.0149991 0.00161463 0.0173415 -0.0134444 -3.09673e-08 -1.37016e-07 1.02501e-07 0.0005 1.46608e-07 
155 1 0.0234352 0.0229649 0.0146641 -0.000126118 0.0011752 -0.000973884 -1.30041e-06 5.26783e-07 -4.72527e-06 0.0005 1.46608e-07 
156 1 0.0154321 0.0146581 0.0143914 0.00348189 -0.0012113 -0.0024436 -2.17731e-08 -1.09679e-08 4.52112e-08 0.0005 1.46608e-07 
157 1 0.0213605 0.0142207 0.0135833 0.000419147 -0.000321164 0.00134662 2.06536e-07 9.60258e-08 1.95471e-07 0.0005 1.46608e-07 
158 1 0.0183779 0.0140662 0.0163708 0.0161484 -0.00903361 -0.0103542 -1.63961e-07 1.36696e-07 -5.16026e-07 0.0005 1.46608e-07 
159 1 0.0253964 0.0198612 0.0198368 -0.0793989 -0.00417709 -0.0413992 0 0 -1.43822e-06 0.0005 1.46608e-07 
160 1 0.0180964 0.0144239 0.020848 -0.140128 -0.0270081 0.106783 0 0 -1.43822e-06 0.0005 1.46608e-07 
161 1 0.00906547 0.00798396 0.0419056 0.0385759 0.0458711 -0.0641159 0 0 -1.43822e-06 0.0005 1.46608e-07 
162 1 0.0175937 0.0150197 0.0149757 -0.00384314 -0.00853643 -0.0132958 -3.01397e-07 2.54564e-07 -3.4171e-07 0.0005 1.46608e-07 
163 1 0.0243671 0.022277 0.0155666 0.000125984 0.00185876 0.00024467 -5.20666e-08 -1.36046e-07 1.21255e-07 0.0005 1.46608e-07 
165 1 0.0188992 0.0174511 0.00750734 0.000269716 -0.0224418 0.00991811 -3.51257e-09 -6.61811e-09 1.55877e-08 0.0005 1.46608e-07 
166 1 0.0281421 0.0249073 0.0302608 -0.0380715 -0.0416115 -0.14039 -3.36358e-07 -2.03522e-07 -1.0046e-06 0.0005 1.46608e-07 
167 1 0.0159933 0.0215737 0.0162357 0.00437077 0.00489404 0.00267961 -1.04114e-06 -6.9017e-07 2.47467e-08 0.0005 1.46608e-07 
168 1 0.0196164 0.0141275 0.0172891 -0.0262037 0.0570052 -0.214965 0 0 -1.43822e-06 0.0005 1.46608e-07 
169 1 0.0169284 0.0140168 0.0178574 0.0258296 0.096988 -0.11822 0 0 -1.43822e-06 0.0005 1.46608e-07 
170 1 0.0172726 0.0195189 0.0168028 -0.00381501 0.0114094 0.00223269 0 0 -1.43822e-06 0.0005 1.46608e-07 
172 1 0.0163408 0.0153062 0.0163909 0.0131285 0.00218195 -0.0193711 0 0 -1.43822e-06 0.0005 1.46608e-07 
173 1 0.0173557 0.00189919 0.0473616 -0.00967668 -0.0492379 -0.0221227 0 0 -1.43822e-06 0.0005 1.46608e-07 
174 1 0.019496 0.0137202 0.013456 0.000658186 -0.00325646 0.00841687 3.58903e-08 -2.90465e-08 -9.56459e-07 0.0005 1.46608e-07 
175 1 0.0238154 0.0229418 0.0156737 0.000270145 0.000633515 2.96825e-05 -7.64039e-08 -1.04594e-07 -1.58602e-08 0.0005 1.46608e-07 
177 1 0.0161008 0.0138923 0.0187462 0.0233029 0.11296 -0.233994 0 0 -1.43822e-06 0.0005 1.46608e-07 
178 1 0.0361504 0.0343083 0.0551091 0.1637 0.128068 0.105868 0 0 -1.43822e-06 0.0005 1.46608e-07 
179 1 0.0223653 0.0229947 0.016115 0.0021827 -0.00381679 0.00852862 0 0 -1.43822e-06 0.0005 1.46608e-07 
180 1 0.0514392 0.0202095 0.00593542 3.2215e-15 8.02854e-15 1.06043e-13 6.57112e-21 -6.35275e-22 0 0.0005 1.46608e-07 
181 1 0.0188905 0.0231645 0.0147486 -0.000301004 -0.00149977 -0.00124972 1.10421e-06 -1.28e-06 1.78044e-06 0.0005 1.46608e-07 
182 1 0.0168846 0.0237847 0.0163153 0.00263246 0.000632186 0.00172931 1.12594e-06 8.92198e-07 2.34202e-06 0.0005 1.46608e-07 
183 1 0.0227663 0.0225305 0.0141926 0.00148414 0.00578993 -0.0044832 -1.89228e-06 5.89756e-06 -1.33898e-05 0.0005 1.46608e-07 
184 1 0.0170705 0.0243155 0.014013 0.000613087 0.000419018 -0.00091571 -2.52128e-07 6.08767e-08 4.69713e-07 0.0005 1.46608e-07 
185 1 0.0172796 0.0241548 0.0171566 -0.000446434 0.00114135 0.00491421 5.23894e-07 -1.0634e-06 -1.53413e-06 0.0005 1.46608e-07 
186 1 0.0225593 0.0204321 0.0166312 -0.00748567 0.0271736 -0.00577509 0 0 -1.43822e-06 0.0005 1.46608e-07 
187 1 0.0248909 0.0184888 0.0167352 0.0156821 0.00465161 0.0130413 0 0 -1.43822e-06 0.0005 1.46608e-07 
188 1 0.0185211 0.0225326 0.0154364 -0.00741423 0.00160641 0.00297223 6.79061e-08 8.61724e-07 -1.18555e-06 0.0005 1.46608e-07 
189 1 0.0278721 0.0207794 0.0154625 0.000466396 0.0226781 -0.00898824 3.26374e-10 -3.77904e-07 7.11311e-08 0.0005 1.46608e-07 
191 1 0.0224833 0.0182936 0.0158809 -0.000349484 0.0262541 0.00451337 5.48947e-08 -6.03304e-07 -1.09554e-07 0.0005 1.46608e-07 
192 1 0.0222669 0.01501 0.0151569 0.00118218 0.00357119 -0.00187114 -6.14687e-07 3.98285e-08 -1.38736e-07 0.0005 1.46608e-07 
193 1 0.0268749 0.0233379 0.0121368 0.000887647 0.00326347 -0.0230769 -1.27822e-08 -1.16652e-08 -3.53483e-08 0.0005 1.46608e-07 
194 1 0.0170543 0.0170447 0.0165214 -0.00218327 -0.0640342 -0.0502097 0 0 -1.43822e-06 0.0005 1.46608e-07 
195 1 0.022502 0.0149266 0.0396721 -0.0223419 -0.0378398 0.962668 0 0 -1.43822e-06 0.0005 1.46608e-07 
196 1 0.0231648 0.0147259 0.0148208 0.000898658 0.00121012 -0.000564071 7.77503e-08 -2.48305e-07 9.21164e-07 0.0005 1.46608e-07 
197 1 0.0152938 0.0230035 0.0152077 0.000305744 -0.00164563 -9.94029e-05 -6.68588e-07 3.70746e-06 -2.06865e-06 0.0005 1.46608e-07 
198 1 0.0203257 0.00958795 0.0287363 -0.0189693 0.0108659 -0.225724 0 0 -1.43822e-06 0.0005 1.46608e-07 
200 1 0.0162431 0.0143312 0.0138994 0.00558444 -0.00356454 -0.00111842 4.70891e-08 -3.79887e-08 4.26687e-09 0.0005 1.46608e-07 
201 1 0.0126667 0.0173226 0.0162575 5.14266e-06 0.00516327 -0.00620196 -2.60273e-08 5.8256e-08 -4.6029e-09 0.0005 1.46608e-07 
202 1 0.0167852 0.0228318 0.0160299 0.00169282 0.000430541 0.00108116 8.49214e-07 5.92387e-06 -4.08369e-06 0.0005 1.46608e-07 
203 1 0.0164848 0.0237311 0.0136353 0.00203018 0.000629442 -0.00261263 -2.1338e-07 1.03966e-07 1.09861e-06 0.0005 1.46608e-07 
204 1 0.0238399 0.0178214 0.0183459 -0.0531355 -0.0143499 -0.0309763 0 0 -1.43822e-06 0.0005 1.46608e-07 
205 1 0.0191385 0.022436 0.016584 -0.000383088 -0.0158317 0.000250225 0 0 -1.43822e-06 0.0005 1.46608e-07 
207 1 0.0238856 0.0156006 0.0148909 0.00675367 0.00767945 0.00381895 5.33812e-07 9.32819e-08 3.78806e-07 0.0005 1.46608e-07 
208 1 0.0180263 0.0160877 0.0148207 -0.000133604 0.000694689 -0.00164023 0 0 -1.43822e-06 0.0005 1.46608e-07 
209 1 0.0180056 0.0240517 0.0164766 -0.000163062 0.00122107 0.00257945 7.6227e-06 -4.03606e-06 1.60751e-06 0.0005 1.46608e-07 
210 1 0.0263735 0.0221754 0.0232584 -0.0723693 -0.0381916 -0.17483 -3.77764e-07 -1.90209e-07 -9.03758e-07 0.0005 1.46608e-07 
212 1 0.0222535 0.0192664 0.0159491 -0.000898196 0.0303796 -0.000665348 -2.27242e-06 -7.94009e-06 2.26684e-06 0.0005 1.46608e-07 
213 1 0.0181483 0.0236859 0.0151377 -0.000253262 -0.000387555 -0.000307371 1.14455e-06 -7.89308e-07 2.31781e-06 0.0005 1.46608e-07 
214 1 0.0204003 0.0239754 0.0145776 -0.000216956 -0.000146674 0.000192693 -7.41595e-07 -8.6523e-08 6.30474e-07 0.0005 1.46608e-07 
215 1 0.0247031 0.0200807 0.0179234 -0.0411136 0.0217478 -0.098271 0 0 -1.43822e-06 0.0005 1.46608e-07 
216 1 0.0168294 0.0243773 0.018167 -0.014562 0.00100146 0.0129536 4.34658e-06 4.54951e-07 2.93509e-06 0.0005 1.46608e-07 
217 1 0.0186088 0.0233244 0.0168644 -0.00341251 0.00475793 0.00382154 1.85166e-07 6.6938e-07 -1.24499e-06 0.0005 1.46608e-07 
218 1 0.0215391 0.0222675 0.0145919 -0.00743637 0.0102366 -0.0129522 0 0 -1.43822e-06 0.0005 1.46608e-07 
219 1 0.019539 0.0235404 0.0171621 -0.006833 0.00115917 0.00552052 -2.58068e-06 -5.16164e-06 -3.70274e-06 0.0005 1.46608e-07 
220 1 0.0209451 0.0231728 0.0148191 -0.000359791 0.000810251 7.23763e-05 -1.00137e-06 -9.9535e-08 1.1262e-06 0.0005 1.46608e-07 
221 1 0.0143064 0.022927 0.0151062 -0.000543139 -0.00196479 0.000353717 -1.0065e-06 -1.75737e-06 4.85418e-07 0.0005 1.46608e-07 
222 1 0.0177062 0.0140642 0.0143007 -0.0173274 -0.00282755 -0.00575713 2.34784e-06 2.53365e-06 1.41378e-06 0.0005 1.46608e-07 
223 1 0.0149389 0.0157109 0.0155746 0.002465 -0.00415623 -0.000215874 -6.33703e-07 -2.47282e-06 8.779e-06 0.0005 1.46608e-07 
224 1 0.0132632 0.0195847 0.0167391 0.00759323 0.0222528 0.000440875 0 0 -1.43822e-06 0.0005 1.46608e-07 
225 1 0.0189979 0.0248439 0.0180304 -0.0146911 0.00416737 0.0123622 7.67637e-07 -1.62173e-06 -1.28897e-06 0.0005 1.46608e-07 
226 1 0.019889 0.0231445 0.0147973 -0.000960669 0.00102212 -0.00252089 4.59784e-06 -8.0146e-07 6.84114e-07 0.0005 1.46608e-07 
227 1 0.0137469 0.0205176 0.0165614 0.00150105 0.00426949 -0.00308486 5.72582e-09 3.01989e-06 2.22347e-06 0.0005 1.46608e-07 
229 1 0.0188706 0.0141135 0.0127821 0.00505749 -0.00253958 0.00466553 1.57394e-06 6.0641e-07 -1.36892e-06 0.0005 1.46608e-07 
230 1 0.0221437 0.0232543 0.0129584 0.000364384 0.000351425 -0.000611426 -1.59783e-06 1.00329e-06 -1.81355e-06 0.0005 1.46608e-07 
232 1 0.0203768 0.0203962 0.0165847 0.0109607 0.018696 -0.00465498 -5.3652e-07 6.08307e-07 -4.2528e-07 0.0005 1.46608e-07 
233 1 0.0105727 -0.00405781 0.0515149 -0.117264 -0.347653 0.078806 0 0 -1.43822e-06 0.0005 1.46608e-07 
234 1 0.0216717 0.0213815 0.017304 0.000157973 0.0201481 0.00651958 0 0 -1.43822e-06 0.0005 1.46608e-07 
235 1 0.0143418 0.0197295 0.01672 0.0070968 0.0082179 0.000331172 -2.35281e-07 7.89299e-07 -3.38753e-07 0.0005 1.46608e-07 
236 1 0.0213719 0.0241244 0.0176592 0.0213908 0.00539899 0.0192719 0 0 -1.43822e-06 0.0005 1.46608e-07 
237 1 0.0204474 0.021262 0.00780521 0.000470765 0.00473352 -0.000451432 -6.47687e-08 3.58757e-07 2.34492e-07 0.0005 1.46608e-07 
238 1 0.025631 0.0206991 0.0165491 0.00546607 -0.00688468 -0.000684436 0 0 -1.43822e-06 0.0005 1.46608e-07 
239 1 0.0143222 0.0212852 0.0162786 0.00222912 0.0030859 -0.0051952 -1.55059e-07 -4.45121e-07 -1.01899e-06 0.0005 1.46608e-07 
240 1 0.0250184 0.0169374 0.0162794 0.000549213 0.00901019 0.00324794 1.66024e-07 -1.70172e-07 -6.69292e-08 0.0005 1.46608e-07 
241 1 0.0112536 0.0201187 0.0229833 0.0890331 -0.0429412 -0.228666 3.97806e-07 -9.37471e-08 -9.58789e-07 0.0005 1.46608e-07 
242 1 0.0194018 0.0198718 0.00731461 0.00107135 -0.0243781 -0.00607805 -3.8883e-09 -1.7143e-08 8.06489e-09 0.0005 1.46608e-07 
244 1 0.0169012 0.0234073 0.0123747 0.00977636 0.00210506 -0.010482 -4.09369e-08 -7.08069e-09 4.44641e-08 0.0005 1.46608e-07 
245 1 0.0245867 0.0210175 0.0164106 -0.0248011 -0.00295374 0.00209832 0 0 -1.43822e-06 0.0005 1.46608e-07 
246 1 0.0196638 0.0209134 0.0076414 0.00225108 -0.0178265 -0.00851342 1.85364e-08 1.58091e-08 2.4401e-08 0.0005 1.46608e-07 
247 1 0.0133542 0.0215067 0.0161612 0.00139814 0.00125266 -0.00145862 -1.89986e-07 -1.25941e-07 -3.73055e-07 0.0005 1.46608e-07 
248 1 0.0211183 0.0235633 0.0159067 -0.0181394 0.00997493 0.0118532 -2.06455e-06 4.04413e-06 -2.25169e-06 0.0005 1.46608e-07 
249 1 0.0190564 0.0183302 0.00725054 0.000377232 -0.0243264 0.00385078 -3.46546e-09 -9.1529e-09 1.45718e-08 0.0005 1.46608e-07 
250 1 0.0151865 0.0178163 0.0166402 0.00971244 0.0188998 0.0212012 0 0 -1.43822e-06 0.0005 1.46608e-07 
251 1 0.0233473 0.018639 0.0162601 -0.018939 0.0268049 -0.00440091 0 0 -1.43822e-06 0.0005 1.46608e-07 
252 1 0.0148548 0.0222645 0.0157187 -0.00182007 -0.00204281 -0.000183847 -1.87017e-07 -1.20268e-07 -1.07741e-06 0.0005 1.46608e-07 
253 1 0.0237921 0.0148339 0.0123192 0.000225983 0.00541404 0.0247969 -2.65046e-09 1.16711e-08 1.80313e-09 0.0005 1.46608e-07 
254 1 0.0185127 0.0216948 0.0160385 0.00103664 0.00190082 0.00099438 6.61248e-11 4.57812e-07 -1.177e-06 0.0005 1.46608e-07 
255 1 0.0123419 0.0211558 0.0210869 0.0757748 -0.0422885 -0.229352 0 0 -1.43822e-06 0.0005 1.46608e-07 
256 1 0.0165401 0.0222107 0.0167792 0.000955475 0.0071603 0.00105672 0 0 -1.43822e-06 0.0005 1.46608e-07 
257 1 0.0168845 0.02096 0.0158323 -0.000724131 0.0129775 0.000216675 0 0 -1.43822e-06 0.0005 1.46608e-07 
258 1 0.0155823 0.0232546 0.0175378 -5.0743e-05 0.000198238 0.000308432 6.91946e-07 -4.61931e-07 -9.78048e-07 0.0005 1.46608e-07 
259 1 0.0164128 0.0227442 0.0139696 0.00281168 0.0020279 -0.00355906 -4.99834e-07 -2.21422e-06 1.56858e-07 0.0005 1.46608e-07 
261 1 0.0178216 0.0184393 0.0169514 -0.0142909 -0.0108927 0.0138895 0 0 -1.43822e-06 0.0005 1.46608e-07 
262 1 0.0147815 0.0219277 0.0168919 0.00144485 0.000754107 -0.00263297 -1.55544e-06 -5.67757e-07 8.1696e-07 0.0005 1.46608e-07 
263 1 0.0173577 0.0219914 0.0162424 -0.00560688 0.00746206 -0.0121702 0 0 -1.43822e-06 0.0005 1.46608e-07 
264 1 0.0205369 0.0146396 0.0143599 -1.99904e-05 -0.000348845 -0.00064793 3.2988e-07 3.24518e-07 8.93178e-07 0.0005 1.46608e-07 
265 1 0.013855 0.0222513 0.0156893 -0.0024735 -0.00569961 -0.00291669 1.18369e-07 -4.66726e-09 -1.39366e-06 0.0005 1.46608e-07 
266 1 0.0182866 0.0187071 0.01594 0.0042452 0.00961724 0.00174062 2.3934e-06 -6.68327e-06 -2.28033e-06 0.0005 1.46608e-07 
267 1 0.0161199 0.0198565 0.015933 0.00443669 0.00656129 0.00829128 -9.12374e-08 -4.58892e-07 -1.39465e-06 0.0005 1.46608e-07 
268 1 0.0143484 0.0186808 0.0173359 0.0489074 0.00847359 -0.070896 0 0 -1.43822e-06 0.0005 1.46608e-07 
269 1 0.0166329 0.0226221 0.0149359 0.0029091 0.00135724 -0.00338705 -1.12761e-06 2.11602e-07 8.90321e-07 0.0005 1.46608e-07 
270 1 0.0135104 0.0184896 0.0167329 -2.39181e-06 0.0289727 0.00285679 2.16132e-10 2.0027e-09 -2.34224e-08 0.0005 1.46608e-07 
271 1 0.023689 0.0211945 0.0154317 0.0203769 0.0100581 -0.00491614 -4.05949e-06 3.50346e-06 -1.81878e-06 0.0005 1.46608e-07 
273 1 0.0181719 0.0143437 0.0154325 1.23752e-05 0.00157266 -0.00381528 2.84559e-07 -5.26343e-07 -1.08866e-07 0.0005 1.46608e-07 
274 1 0.0162876 0.0206174 0.0165599 -0.0015989 0.0179361 0.00490662 0 0 -1.43822e-06 0.0005 1.46608e-07 
275 1 0.0185193 0.0176314 0.0157208 0.000248898 0.0141953 0.00383596 -6.01205e-09 -1.02746e-08 -3.41526e-08 0.0005 1.46608e-07 
276 1 0.0157658 0.0152326 0.0151387 0.00910692 -0.00355685 -0.0031528 4.97594e-08 -3.27759e-08 2.12068e-08 0.0005 1.46608e-07 
277 1 0.0146497 0.0150334 0.0148978 0.00470761 -0.00351149 -0.000460894 -1.17626e-08 -9.20507e-09 3.88243e-08 0.0005 1.46608e-07 
279 1 0.0165696 0.0178383 0.0157866 0.000636231 0.0231845 0.00678981 -3.59699e-10 7.23107e-09 -1.77137e-08 0.0005 1.46608e-07 
281 1 0.0140334 0.0171825 0.0168127 -0.0486985 -0.0201884 -0.056078 0 0 -1.43822e-06 0.0005 1.46608e-07 
283 1 0.0215108 0.0147606 0.0145519 -8.46208e-06 -0.00102593 0.00114067 -1.07517e-07 -1.00487e-07 -3.33625e-07 0.0005 1.46608e-07 