LIGGGHTS (Version LIGGGHTS-PUBLIC 3.8.0, compiled 2026-05-30-04:17:57 by root, git commit 3d5c00f20519e6bb6eb6756f51f1ad36564e649d)
###################################Header for General commands#######################################################

atom_style	granular		#Simulation of particles

boundary	f f f			#fixed boundaries -> particles will be deleted if leaving the simulation box

units		si

communicate	multi vel yes		#default

newton		off			#default


###################################System variables##################################################################

#Definition of boundaries

variable xmin equal -0.02
variable xmax equal 0.43

variable ymin equal -0.02
variable ymax equal 0.06

variable zmin equal -0.02
variable zmax equal 0.07

#Definition of the timestep

variable dt equal 1e-6



###################################Specific variables for current simulation#########################################

variable natoms equal 2 				#1 -> particle #2 ->pipe and screw

####variable for material properties####

####Young Modulus####
variable	youngmodulus1	equal 	7e6
variable	youngmodulus2	equal 	2e8

####Poission ratio####
variable 	poission1	equal	0.30
variable 	poission2	equal	0.29

####variable for contact properties####

####coefficient of restitution####
variable	CoR11	equal	0.4
variable	CoR12	equal	0.5
variable	CoR21	equal	0.5
variable	CoR22	equal	0.45

####sliding friction coefficient####
variable	sf11	equal	0.65	#Particle-particle sliding friction coefficient
variable	sf12	equal	0.5
variable	sf21	equal	0.5
variable	sf22	equal	0.0


####rolling friction coefficient####
variable	rf11	equal	0.75	#Particle-particle rolling friction coefficient
variable	rf12	equal	0.6
variable	rf21	equal	0.6
variable	rf22	equal	0.0


####variable for particle####

#Number of particle radius
variable	nradii	equal	3

variable	radius1	equal	0.00005	#m
variable	radius2	equal	0.00005	#m
variable	radius3	equal	0.00005	#m

variable	frac1	equal	0.3945
variable	frac2	equal	0.4059
variable	frac3	equal	0.1996

variable	density	equal	280		#kg/m³


####filling parameters####

variable	filltime	equal	2.0		#s, prueba rápida: alimentar 2 s

variable	dischargetime	equal	90		#s, tiempo para que puedan salir partículas

variable	fillmass	equal	4.4e-8 		#kg, 2 g de material

variable	fillmassrate	equal	${fillmass}/${filltime}	#kg/s
variable	fillmassrate	equal	4.4e-08/${filltime}	
variable	fillmassrate	equal	4.4e-08/2	

variable	fillsteps	equal	${filltime}/${dt}
variable	fillsteps	equal	2/${dt}
variable	fillsteps	equal	2/1e-06

variable	dischargesteps	equal	${dischargetime}/${dt}
variable	dischargesteps	equal	90/${dt}
variable	dischargesteps	equal	90/1e-06



####screw velocities####

variable	screwPeriod	equal	1.029		#s, prueba rápida: 2 vueltas/s



###################################Definition of simulationbox#######################################################

region		reg block ${xmin} ${xmax} ${ymin} ${ymax} ${zmin} ${zmax} units box
region		reg block -0.02 ${xmax} ${ymin} ${ymax} ${zmin} ${zmax} units box
region		reg block -0.02 0.43 ${ymin} ${ymax} ${zmin} ${zmax} units box
region		reg block -0.02 0.43 -0.02 ${ymax} ${zmin} ${zmax} units box
region		reg block -0.02 0.43 -0.02 0.06 ${zmin} ${zmax} units box
region		reg block -0.02 0.43 -0.02 0.06 -0.02 ${zmax} units box
region		reg block -0.02 0.43 -0.02 0.06 -0.02 0.07 units box

processors 6 1 1

create_box	2 reg
Created orthogonal box = (-0.02 -0.02 -0.02) to (0.43 0.06 0.07)
  6 by 1 by 1 MPI processor grid


neighbor	0.0001 bin

neigh_modify	delay 0


#################################Definition of the contact models####################################################

pair_style gran model hertz tangential history rolling_friction epsd2

pair_coeff	* *

timestep ${dt}
timestep 1e-06

thermo 10000

fix		integrator all nve/sphere

fix		gravi all gravity 9.81 vector 0.0 0.0 -1.0


###################################Definition of Material properties#################################################

fix 		m1 all property/global youngsModulus peratomtype ${youngmodulus1} ${youngmodulus2}
fix 		m1 all property/global youngsModulus peratomtype 7000000 ${youngmodulus2}
fix 		m1 all property/global youngsModulus peratomtype 7000000 200000000

fix 		m2 all property/global poissonsRatio peratomtype ${poission1} ${poission2}
fix 		m2 all property/global poissonsRatio peratomtype 0.3 ${poission2}
fix 		m2 all property/global poissonsRatio peratomtype 0.3 0.29

fix 		m3 all property/global coefficientRestitution peratomtypepair ${natoms} ${CoR11} ${CoR12} ${CoR21} ${CoR22}
fix 		m3 all property/global coefficientRestitution peratomtypepair 2 ${CoR11} ${CoR12} ${CoR21} ${CoR22}
fix 		m3 all property/global coefficientRestitution peratomtypepair 2 0.4 ${CoR12} ${CoR21} ${CoR22}
fix 		m3 all property/global coefficientRestitution peratomtypepair 2 0.4 0.5 ${CoR21} ${CoR22}
fix 		m3 all property/global coefficientRestitution peratomtypepair 2 0.4 0.5 0.5 ${CoR22}
fix 		m3 all property/global coefficientRestitution peratomtypepair 2 0.4 0.5 0.5 0.45

fix 		m4 all property/global coefficientFriction peratomtypepair ${natoms} ${sf11} ${sf12} ${sf21} ${sf22}
fix 		m4 all property/global coefficientFriction peratomtypepair 2 ${sf11} ${sf12} ${sf21} ${sf22}
fix 		m4 all property/global coefficientFriction peratomtypepair 2 0.65 ${sf12} ${sf21} ${sf22}
fix 		m4 all property/global coefficientFriction peratomtypepair 2 0.65 0.5 ${sf21} ${sf22}
fix 		m4 all property/global coefficientFriction peratomtypepair 2 0.65 0.5 0.5 ${sf22}
fix 		m4 all property/global coefficientFriction peratomtypepair 2 0.65 0.5 0.5 0

fix 		m5 all property/global coefficientRollingFriction peratomtypepair ${natoms} ${rf11} ${rf12} ${rf21} ${rf22}
fix 		m5 all property/global coefficientRollingFriction peratomtypepair 2 ${rf11} ${rf12} ${rf21} ${rf22}
fix 		m5 all property/global coefficientRollingFriction peratomtypepair 2 0.75 ${rf12} ${rf21} ${rf22}
fix 		m5 all property/global coefficientRollingFriction peratomtypepair 2 0.75 0.6 ${rf21} ${rf22}
fix 		m5 all property/global coefficientRollingFriction peratomtypepair 2 0.75 0.6 0.6 ${rf22}
fix 		m5 all property/global coefficientRollingFriction peratomtypepair 2 0.75 0.6 0.6 0



###################################Generation and Loading of the Geometry .stl#######################################
fix case all mesh/surface file case_remesh.stl type 2 heal auto_remove_duplicates scale 1.0 curvature 1e-5 curvature_tolerant yes

fix screw all mesh/surface file screw_simplified.stl type 2 scale 1.0 curvature 1e-5 curvature_tolerant yes

fix 		walls 		all wall/gran model hertz tangential history rolling_friction epsd2 mesh n_meshes 2 meshes case screw

fix		Movescrew	all move/mesh mesh screw rotate origin 0.2024435 0.019051 0.011497 axis -1. 0. 0. period ${screwPeriod}
fix		Movescrew	all move/mesh mesh screw rotate origin 0.2024435 0.019051 0.011497 axis -1. 0. 0. period 1.029

fix feed all mesh/surface file feed.stl type 2 scale 1.0 curvature 1e-5 curvature_tolerant yes

fix outlet all mesh/surface file outlet_1.stl type 2 scale 1.0 curvature 1e-5 curvature_tolerant yes


###################################Generation and Insertion of the particles#########################################

fix pts1 all particletemplate/sphere 10487 atom_type 1 density constant ${density} radius constant ${radius1} volume_limit 1e-18
fix pts1 all particletemplate/sphere 10487 atom_type 1 density constant 280 radius constant ${radius1} volume_limit 1e-18
fix pts1 all particletemplate/sphere 10487 atom_type 1 density constant 280 radius constant 5e-05 volume_limit 1e-18

fix pts2 all particletemplate/sphere 11887 atom_type 1 density constant ${density} radius constant ${radius2} volume_limit 1e-18
fix pts2 all particletemplate/sphere 11887 atom_type 1 density constant 280 radius constant ${radius2} volume_limit 1e-18
fix pts2 all particletemplate/sphere 11887 atom_type 1 density constant 280 radius constant 5e-05 volume_limit 1e-18

fix pts3 all particletemplate/sphere 16561 atom_type 1 density constant ${density} radius constant ${radius3} volume_limit 1e-18
fix pts3 all particletemplate/sphere 16561 atom_type 1 density constant 280 radius constant ${radius3} volume_limit 1e-18
fix pts3 all particletemplate/sphere 16561 atom_type 1 density constant 280 radius constant 5e-05 volume_limit 1e-18

fix 		pdd1 all particledistribution/discrete 32452867 ${nradii} pts1 ${frac1} pts2 ${frac2} pts3 ${frac3}
fix 		pdd1 all particledistribution/discrete 32452867 3 pts1 ${frac1} pts2 ${frac2} pts3 ${frac3}
fix 		pdd1 all particledistribution/discrete 32452867 3 pts1 0.3945 pts2 ${frac2} pts3 ${frac3}
fix 		pdd1 all particledistribution/discrete 32452867 3 pts1 0.3945 pts2 0.4059 pts3 ${frac3}
fix 		pdd1 all particledistribution/discrete 32452867 3 pts1 0.3945 pts2 0.4059 pts3 0.1996

fix		ins_mesh all mesh/surface/planar file feed.stl type 1 scale 1.0

fix 		ins all insert/stream seed 15485863 distributiontemplate pdd1         	mass ${fillmass} massrate ${fillmassrate} overlapcheck yes all_in yes vel constant 0 0 -0.03         	insertion_face ins_mesh extrude_length 0.015
fix 		ins all insert/stream seed 15485863 distributiontemplate pdd1         	mass 4.4e-08 massrate ${fillmassrate} overlapcheck yes all_in yes vel constant 0 0 -0.03         	insertion_face ins_mesh extrude_length 0.015
fix 		ins all insert/stream seed 15485863 distributiontemplate pdd1         	mass 4.4e-08 massrate 2.2e-08 overlapcheck yes all_in yes vel constant 0 0 -0.03         	insertion_face ins_mesh extrude_length 0.015


################################### Particle Residence Time Track#########################################

fix 	rt_outlet	all massflow/mesh mesh outlet vec_side 0 0 -1 file rt_outlet.txt writeTime

fix 	rt_inlet	all massflow/mesh mesh feed vec_side 0 0 -1 file rt_inlet.txt writeTime


###################################Outlet mass flow track#########################################

fix	mfout	all massflow/mesh mesh outlet vec_side 0 0 -1

fix	mfin	all massflow/mesh mesh feed vec_side 0 0 -1


variable 	time equal step*dt

variable 	in_mass_flow equal	f_mfin[3]

variable 	out_mass_flow equal	f_mfout[3]

fix mass_flow_rate all print 5000 "${time},${in_mass_flow},${out_mass_flow}" screen no title "t,in_mass_flow,out_mass_flow" file massflow.csv

###################################Dumping of the data for post-processing to visualize############################

#fix ts_check all check/timestep/gran 1000 0.1 0.1

shell 	mkdir -p post

variable dumptime equal 0.2		#guarda cada 0.05 s

variable dumpstep equal ${dumptime}/${dt}
variable dumpstep equal 0.2/${dt}
variable dumpstep equal 0.2/1e-06

dump	dmpparticle all custom ${dumpstep} post/particles_*.liggghts id type x y z vx vy vz fx fy fz radius mass
dump	dmpparticle all custom 200000 post/particles_*.liggghts id type x y z vx vy vz fx fy fz radius mass

dump_modify	dmpparticle sort id

dump	dmpscrew	all	mesh/stl ${dumpstep} post/screw_*.stl screw
dump	dmpscrew	all	mesh/stl 200000 post/screw_*.stl screw


####################################RUN the simulation filling and discharge###########################################################

run	${fillsteps}
run	2000000
Setting up run at Sat May 30 12:09:11 2026

WARNING: Fix mesh: Mesh contains highly skewed element, moving mesh (if used) will not parallelize well (../surface_mesh_I.h:657)
WARNING: Fix mesh: Mesh contains highly skewed element, moving mesh (if used) will not parallelize well (../surface_mesh_I.h:657)
INFO: Particle insertion ins: 75.030187 particles every 500000 steps - particle rate 150.060375, (mass rate 2.200000e-08)
      300 particles (mass 4.398230e-08) within 1500000 steps
Memory usage per processor = 2133.46 Mbytes
    Step    Atoms         KinEng            CPU 
       0        0              0              0 
INFO: Particle insertion ins: inserted 75 particle templates (mass 1.099557e-08) at step 1
 - a total of 75 particle templates (mass 1.099557e-08) inserted so far.
   10000       75  5.6353356e-12      68.608713 
   20000       75  7.9860233e-12      171.93909 
   30000       75  1.4215563e-11      296.50546 
   40000       75  1.4359756e-11      407.10268 
   50000       75  1.2742486e-11      518.85152 
   60000       75  1.4718157e-11      642.10286 
   70000       75  1.9426177e-11       773.9621 
   80000       75  2.0803745e-11      897.80734 
   90000       75  2.1639618e-11       1051.457 
  100000       75   1.045928e-11      1164.1141 
  110000       75   1.391376e-11      1265.1811 
  120000       75  2.6677825e-11      1395.6176 
  130000       75   2.130756e-11      1524.9656 
  140000       75  1.9966219e-11      1636.6748 
  150000       75  2.5440214e-11      1771.9824 
  160000       75  3.6949144e-11      1917.7377 
  170000       75  2.9768012e-11       2059.962 
  180000       75  2.2510335e-11      2186.7174 
  190000       75  1.8743854e-11      2304.0724 
  200000       75  2.4470559e-11      2418.6371 
  210000       75   2.382884e-11      2532.7752 
  220000       75  2.6808344e-11      2650.9846 
  230000       75  3.7532385e-11      2797.3052 
  240000       75  1.5134554e-11      2920.2153 
  250000       75  1.4407565e-11      3025.6583 
  260000       75  1.6439966e-11      3128.6543 
  270000       75  2.0179143e-11      3243.4577 
  280000       75   1.983512e-11      3361.7201 
  290000       75  2.7315819e-11      3474.0479 
  300000       75  3.0615189e-11      3601.6079 
  310000       74  3.0985658e-11      3902.7576 
  320000       74  2.8576794e-11      4033.7946 
  330000       74  2.6445128e-11      4147.2704 
  340000       74  3.3847143e-11      4263.0835 
  350000       74   3.472773e-11      4390.6281 
  360000       74  1.7589139e-11      4505.5807 
  370000       74   1.629794e-11      4612.8698 
  380000       74  3.0465634e-11      4728.2187 
  390000       74  2.1059414e-11      4857.1236 
  400000       74  1.9959779e-11      4974.4255 
  410000       73  1.6932035e-11      5459.3095 
  420000       73  2.0914969e-11      5575.9061 
  430000       73   1.160148e-11      5697.8315 
  440000       73   1.881325e-11      5811.8516 
  450000       73  3.3272932e-11       5934.345 
  460000       73  3.3640831e-11      6074.0994 
  470000       73  3.3060376e-11      6216.0239 
  480000       73  2.5188823e-11      6349.5692 
  490000       73  2.2085846e-11       6466.132 
  500000       73  1.5829086e-11      6605.2697 
INFO: Particle insertion ins: inserted 75 particle templates (mass 1.099557e-08) at step 500001
 - a total of 150 particle templates (mass 2.199115e-08) inserted so far.
  510000      147  4.2301727e-11      7752.2884 
  520000      147  3.2451931e-11      7882.0691 
  530000      147  3.5703886e-11      7991.4544 
  540000      147  3.3460922e-11       8108.403 
  550000      146   3.768548e-11      8649.1269 
  560000      146  3.7367342e-11      8794.0825 
  570000      146  3.4414706e-11      8931.1476 
  580000      146  2.6445319e-11      9046.6535 
  590000      146  2.5672747e-11      9146.6763 
  600000      146  2.8306237e-11      9267.8645 
  610000      146  2.5218552e-11      9379.2112 
  620000      146  2.2371442e-11      9494.3291 
  630000      146  2.0283948e-11      9603.5269 
  640000      146  1.8479867e-11      9712.4082 
  650000      146  1.6701337e-11      9814.5217 
  660000      146  1.7074812e-11      9921.9298 
  670000      146  2.3728655e-11      10025.644 
  680000      146  3.0633301e-11      10136.413 
  690000      146  2.7307945e-11      10260.557 
  700000      146  2.0429628e-11      10377.382 
  710000      146  2.5717474e-11      10487.257 
  720000      146  3.0998079e-11      10601.934 
  730000      146  2.4195831e-11      10725.114 
  740000      146  2.8279978e-11      10863.997 
  750000      146  1.2686255e-10      11673.402 
  760000      146  5.7234161e-11      12013.408 
  770000      146   5.184593e-11       12218.56 
  780000      145  5.8305508e-11      12806.544 
  790000      145  5.4576508e-11      13010.527 
  800000      145  5.0692816e-11      13222.629 
  810000      145  5.2143899e-11      13433.981 
  820000      145  4.4750278e-11      13629.098 
  830000      145  4.8417443e-11      13810.089 
  840000      145  3.1323832e-11      13966.898 
  850000      145  2.3432185e-11      14100.746 
  860000      145  2.5997269e-11      14215.956 
  870000      145  3.1427942e-11      14340.351 
  880000      145  2.8435457e-11       14470.15 
  890000      145  2.6954789e-11      14596.026 
  900000      145  1.8721255e-11      14721.839 
  910000      145  2.4520515e-11      14835.932 
  920000      145  3.2780146e-11      14966.946 
  930000      145  2.7017427e-11      15098.091 
  940000      144  1.9843738e-11      15584.014 
  950000      144  2.3036339e-11      15700.841 
  960000      144   2.513895e-11      15821.797 
  970000      144  2.3900502e-11      15948.117 
  980000      144  3.0594801e-11      16070.171 
  990000      144   3.619324e-11      16196.268 
 1000000      144  3.3561302e-11      16320.301 
INFO: Particle insertion ins: inserted 76 particle templates (mass 1.114218e-08) at step 1000001
 - a total of 226 particle templates (mass 3.313333e-08) inserted so far.
 1010000      220  3.1830388e-11       16438.53 
 1020000      220  5.9484781e-10      17238.452 
 1030000      220  2.8152104e-10       17868.75 
 1040000      220  2.6261342e-10      18435.139 
 1050000      220  2.5096221e-10      18999.259 
 1060000      220  3.8622464e-10      19556.259 
 1070000      220  3.2669596e-10       20097.66 
 1080000      220  2.6017232e-10      20628.673 
 1090000      220  2.4385044e-10      21146.212 
 1100000      220  2.1545811e-10      21671.408 
 1110000      220  2.0944232e-10      22176.688 
 1120000      220  1.8746009e-10      22670.255 
 1130000      220  1.8326806e-10      23099.398 
 1140000      220  1.7479069e-10      23548.622 
 1150000      220  1.7943253e-10      24009.807 
 1160000      220  1.7964386e-10       24442.39 
 1170000      220  1.7717256e-10      24803.654 
 1180000      220  1.7052668e-10      25216.865 
 1190000      220  1.9789591e-10      25667.413 
 1200000      220  8.3339537e-11      25970.067 
 1210000      220  7.9734556e-11      26227.192 
 1220000      220  9.8800489e-11       26473.47 
 1230000      220  1.1517129e-10       26759.29 
 1240000      220  1.3224346e-10      27076.212 
 1250000      220   1.533219e-10      27420.814 
 1260000      220  2.5113867e-10      27807.191 
 1270000      220  5.9137638e-09      28737.612 
 1280000      219  2.5259864e-11      29445.479 
 1290000      219  3.4361895e-11      29567.457 
 1300000      219  3.1447595e-11      29692.761 
 1310000      219  3.6110349e-11      29822.007 
 1320000      219  2.6362961e-11      29972.613 
 1330000      219  2.9426866e-11      30113.808 
 1340000      219  3.2967284e-11       30247.84 
 1350000      219  2.8382389e-11      30377.484 
 1360000      219  3.2221566e-11      30494.289 
 1370000      219  3.1775041e-11      30624.297 
 1380000      219  2.3092665e-11      30746.997 
 1390000      219  2.3979437e-11      30866.896 
 1400000      219  2.3746714e-11      30984.488 
 1410000      218  2.8311178e-11      31620.874 
 1420000      218  2.6897235e-11      31756.413 
 1430000      218  2.8316534e-11      31887.765 
 1440000      218  2.2274125e-11      32028.678 
 1450000      218  2.7663486e-11      32159.931 
 1460000      218   2.563132e-11       32279.49 
 1470000      218  1.7768023e-11      32411.517 
 1480000      218  1.8243014e-11      32534.852 
 1490000      218  1.4663562e-11       32640.98 
 1500000      218  3.8861144e-11      32791.269 
INFO: Particle insertion ins: inserted 74 particle templates (mass 1.084897e-08) at step 1500001
 - a total of 300 particle templates (mass 4.398230e-08) inserted so far.
 1510000      292  3.2410113e-11      33129.228 
 1520000      292  3.3669049e-11      33246.391 
 1530000      292  4.0195921e-11      33390.288 
 1540000      292  2.6213913e-10      34215.674 
 1550000      292   2.193556e-10      34704.242 
 1560000      292  3.7003542e-11      35151.511 
 1570000      292  3.3735034e-11      35287.179 
 1580000      292  6.4185467e-11      35505.102 
 1590000      292  3.7761519e-11      35657.354 
 1600000      292  3.2088181e-11      35795.593 
 1610000      292  2.7011422e-11       35921.33 
 1620000      292  2.2657171e-11      36068.702 
 1630000      292  1.7609288e-11      36188.102 
 1640000      292  2.7309042e-11      36314.564 
 1650000      292  3.4697159e-11      36454.714 
 1660000      292   2.491867e-11      36583.216 
 1670000      292  2.0428058e-11      36710.124 
 1680000      292  2.5042252e-11      36821.521 
 1690000      292  2.3109726e-11      36937.448 
 1700000      292  2.3258755e-11      37041.648 
 1710000      292  3.1668013e-11      37162.358 
 1720000      292  3.0550407e-11      37287.245 
 1730000      292   2.296248e-11      37404.601 
 1740000      291  3.2639743e-11      37971.492 
 1750000      290  3.7510768e-11      38927.551 
 1760000      290  2.4092635e-11      39051.142 
 1770000      290  3.4414455e-11       39173.52 
 1780000      290  3.3213492e-11      39299.458 
 1790000      290  3.3898661e-11      39420.524 
 1800000      290   2.766767e-11      39540.303 
 1810000      290  2.3968409e-11      39659.999 
 1820000      290   2.346014e-11      39775.236 
 1830000      290  3.7971521e-11      39904.809 
 1840000      290  2.2952486e-11      40032.213 
 1850000      289  3.9229281e-10      40964.358 
 1860000      289  8.0214565e-11      41269.595 
 1870000      289  4.0235131e-11      41521.158 
 1880000      289  3.8681215e-11      41650.507 
 1890000      289  3.3953894e-11      41782.483 
 1900000      289  3.1343305e-11      41911.033 
 1910000      289  3.3208512e-11      42052.769 
 1920000      289  4.1151445e-11      42216.934 
 1930000      289  3.1968378e-11       42398.15 
 1940000      289  3.0784188e-11      42523.274 
 1950000      289  3.5134194e-11      42649.605 
 1960000      289  2.4226852e-11      42774.371 
 1970000      289  2.4930225e-11          42894 
 1980000      289  2.2334663e-11      43012.473 
 1990000      289  2.7552097e-11      43138.959 
 2000000      289  1.7892609e-11      43262.859 
Loop time of 43262.9 on 6 procs for 2000000 steps with 289 atoms, finish time Sun May 31 00:10:38 2026


Pair  time (%) = 32.9488 (0.0761596)
Neigh time (%) = 19918.6 (46.0409)
Comm  time (%) = 4066.21 (9.39885)
Outpt time (%) = 40.7645 (0.0942252)
Other time (%) = 19204.3 (44.3899)

Nlocal:    48.1667 ave 287 max 0 min
Histogram: 5 0 0 0 0 0 0 0 0 1
Nghost:    0 ave 0 max 0 min
Histogram: 6 0 0 0 0 0 0 0 0 0
Neighs:    169 ave 1014 max 0 min
Histogram: 5 0 0 0 0 0 0 0 0 1

Total # of neighbors = 1014
Ave neighs/atom = 3.50865
Neighbor list builds = 22314
Dangerous builds = 3761

unfix	ins

run	${dischargesteps}
run	90000000
Setting up run at Sun May 31 00:10:38 2026

Memory usage per processor = 2138.77 Mbytes
    Step    Atoms         KinEng            CPU 
 2000000      289  1.7892609e-11              0 
 2010000      289  1.9831689e-11      110.11387 
 2020000      289  1.7516943e-11      228.78343 
 2030000      289  1.6881987e-11      334.95097 
 2040000      289  1.7055517e-11      449.58026 
 2050000      289  5.6261432e-11      579.07333 
 2060000      289  2.3677542e-11      779.34679 
 2070000      289  1.9894943e-11      928.10743 
 2080000      289  2.2449909e-11      1081.7113 
 2090000      289  9.3806292e-12      1202.0688 
 2100000      288  5.6302591e-12       1762.995 
 2110000      288  8.1002125e-12      1862.7931 
 2120000      288   8.561254e-12      1979.0094 
 2130000      288  5.9422715e-12      2095.2125 
 2140000      288  7.7119124e-12      2209.9452 
 2150000      288  5.1584108e-12      2333.9663 
 2160000      288  5.3293729e-12      2426.4753 
 2170000      288  5.4140577e-12      2534.4214 
 2180000      287  6.8294925e-12      3513.2116 
 2190000      287  5.0260313e-12       3611.999 
 2200000      287  2.4447942e-12      3700.6355 
 2210000      287  2.4867383e-12      3789.7087 
 2220000      287  1.5220993e-12      3894.9169 
 2230000      287     3.2147e-12      3974.3785 
 2240000      287  4.8685382e-12      4073.0056 
 2250000      287  4.7495512e-12      4188.8851 
 2260000      287   4.897419e-12       4294.172 
 2270000      287  1.5922079e-12      4376.9129 
 2280000      287  7.9760997e-13      4453.5189 
 2290000      287  9.8129996e-13      4515.6871 
 2300000      287  1.5086087e-12      4596.4202 
 2310000      287   2.439845e-12      4690.2704 
 2320000      287  3.5188885e-12      4794.2406 
 2330000      287  1.4580177e-12      4880.4415 
 2340000      287  1.7749791e-12      4960.1517 
 2350000      287   1.845319e-12      5040.6153 
 2360000      287  2.5697068e-12      5133.3582 
 2370000      287  1.2226968e-12       5234.744 
 2380000      287  1.7974527e-12      5318.3623 
 2390000      287  1.1405091e-12      5398.9634 
 2400000      287  1.0558682e-12      5467.1277 
 2410000      287  1.5111957e-12      5544.8661 
 2420000      287  2.7191583e-12      5640.2159 
 2430000      287  4.4597686e-12      5751.3015 
 2440000      287  1.4044489e-12      5839.7952 
 2450000      287  7.1205335e-13      5914.7592 
 2460000      287  7.2123296e-13      5974.9498 
 2470000      287  6.4163427e-13      6025.5178 
 2480000      287  6.4762494e-13      6079.8928 
 2490000      287  7.0027673e-13      6136.2262 
 2500000      287  6.5997783e-13      6186.7372 
 2510000      287  9.9098427e-13      6245.8791 
 2520000      287   2.067958e-12      6328.4799 
 2530000      287  2.4845849e-12      6422.8012 
 2540000      287  2.9621994e-12      6523.3368 
 2550000      287  3.6194024e-12      6616.6831 
 2560000      287  4.1327389e-12       6720.126 
 2570000      287  4.7898402e-12      6823.1479 
 2580000      287  4.2126383e-12      6928.0087 
 2590000      287  2.4687705e-12      7016.3141 
 2600000      287  1.2939581e-12      7104.7025 
 2610000      287  6.8022814e-13       7163.557 
 2620000      287  6.7974464e-13      7214.5305 
 2630000      287  6.8489765e-13      7265.0933 
 2640000      287  6.8357607e-13      7312.7039 
 2650000      287  6.8580049e-13      7361.5302 
 2660000      287   6.938411e-13      7411.7676 
 2670000      287  6.9971333e-13      7460.4209 
 2680000      287  6.9777808e-13      7510.3114 
 2690000      287  6.8784957e-13      7561.2905 
 2700000      287  6.7794483e-13       7611.333 
 2710000      287  6.8444516e-13      7662.3595 
 2720000      287  6.8097374e-13      7711.0082 
 2730000      287  6.7543564e-13      7763.1692 
 2740000      287  6.8084127e-13      7815.0815 
 2750000      287  6.8642975e-13      7862.7988 
 2760000      287  7.1026253e-13      7914.5579 
 2770000      287  7.4834057e-13      7966.3748 
 2780000      287  7.1600185e-13      8019.7688 
 2790000      287  7.0815754e-13      8070.5304 
 2800000      287  7.1380066e-13      8125.4162 
 2810000      287  7.0729735e-13      8177.3052 
 2820000      287  7.2297532e-13      8228.4285 
 2830000      287  7.1931106e-13      8278.4072 
 2840000      287  6.8663589e-13      8328.5047 
 2850000      287  6.8957814e-13      8380.1123 
 2860000      287  6.8011716e-13      8431.7729 
 2870000      287  6.8022464e-13      8482.9024 
 2880000      287  6.9963094e-13      8534.3064 
 2890000      287  6.9863537e-13      8585.2596 
 2900000      287  7.0101779e-13      8636.8437 
 2910000      287  7.0577848e-13      8683.1473 
 2920000      287  7.0633759e-13       8727.771 
 2930000      287   7.183293e-13      8778.1589 
 2940000      287  7.1151919e-13      8828.5914 
 2950000      287  6.9989829e-13      8879.5491 
 2960000      287  6.8819894e-13      8930.5119 
 2970000      287  6.8622018e-13      8978.6116 
 2980000      287  6.8068852e-13      9029.8326 
 2990000      287  6.8636374e-13        9081.46 
 3000000      287  6.9338822e-13       9134.201 
 3010000      287  6.9721986e-13      9184.8379 
 3020000      287  7.0354272e-13      9232.9943 
 3030000      287  7.1891976e-13      9282.6746 
 3040000      287  7.1970175e-13      9335.3521 
 3050000      287  7.2634183e-13      9388.3625 
 3060000      287  7.3634099e-13      9440.2113 
 3070000      287  7.1656541e-13      9492.5361 
 3080000      287  7.0583555e-13      9539.5254 
 3090000      287  6.9902368e-13      9587.0482 
 3100000      287  6.9751712e-13      9638.0599 
 3110000      287  6.8083231e-13      9687.1483 
 3120000      287  6.8692403e-13      9736.6492 
 3130000      287  6.8513902e-13      9786.7199 
 3140000      287  6.9962828e-13      9835.6874 
 3150000      287  7.0889995e-13      9885.9417 
 3160000      287  7.1640446e-13      9930.7471 
 3170000      287  7.1417441e-13      9980.9403 
 3180000      287  7.0627045e-13      10030.714 
 3190000      287  7.2450554e-13      10078.149 
 3200000      287  7.2246528e-13      10133.197 
 3210000      287  7.1146331e-13      10184.875 
 3220000      287  7.0537214e-13      10236.604 
 3230000      287  6.9563811e-13      10289.076 
 3240000      287   6.924911e-13      10338.662 
 3250000      287  6.8279365e-13       10389.51 
 3260000      287   6.899635e-13      10442.842 
 3270000      287  6.8739995e-13      10495.692 
 3280000      287  7.0350766e-13      10549.129 
 3290000      287   7.102499e-13      10601.143 
 3300000      287  7.1949595e-13      10652.526 
 3310000      287  7.1573517e-13      10704.141 
 3320000      287  7.1845514e-13      10753.508 
 3330000      287  7.1756569e-13      10806.219 
 3340000      287  7.0448755e-13      10857.244 
 3350000      287  7.0090773e-13      10907.615 
 3360000      287  6.8355466e-13      10958.423 
 3370000      287  7.0210163e-13      11008.726 
 3380000      287  7.0340588e-13      11058.479 
 3390000      287  6.7437362e-13      11107.723 
 3400000      287   6.770695e-13      11158.149 
 3410000      287  6.9598063e-13        11207.5 
 3420000      287  7.1136726e-13      11255.711 
 3430000      287  7.1676264e-13      11304.647 
 3440000      287  7.2729216e-13       11349.43 
 3450000      287  7.2599727e-13      11401.191 
 3460000      287  7.1953308e-13       11451.58 
 3470000      287  7.0749707e-13      11499.394 
 3480000      287  7.0329816e-13      11550.425 
 3490000      287   6.821103e-13      11603.432 
 3500000      287  6.7118906e-13       11652.99 
 3510000      287  6.7268397e-13      11702.522 
 3520000      287  6.7328678e-13      11753.232 
 3530000      287  6.7888365e-13      11804.395 
 3540000      287  6.9229965e-13      11855.747 
 3550000      287  7.0352241e-13      11907.246 
 3560000      287  7.1100172e-13      11955.691 
 3570000      287    7.19876e-13      12008.567 
 3580000      287  7.2530545e-13      12061.189 
 3590000      287  7.1656519e-13      12114.874 
 3600000      287  7.0165157e-13      12169.138 
 3610000      287  6.9995487e-13      12221.717 
 3620000      287  6.8874538e-13      12271.217 
 3630000      287  6.7216982e-13      12322.343 
 3640000      287  6.7234998e-13      12368.752 
 3650000      287  6.7376845e-13      12418.357 
 3660000      287  6.7817572e-13      12469.873 
 3670000      287  6.8987102e-13      12519.898 
 3680000      287  7.0583391e-13      12569.986 
 3690000      287  7.0659762e-13      12619.304 
 3700000      287  7.2339061e-13      12669.905 
 3710000      287  7.2448288e-13      12721.829 
 3720000      287  7.2111098e-13      12771.291 
 3730000      287  7.0640872e-13       12823.07 
 3740000      287  7.0425478e-13      12874.595 
 3750000      287  6.8880529e-13      12924.819 
 3760000      287  6.7057938e-13      12974.816 
 3770000      287  6.7983046e-13       13023.25 
 3780000      287  6.7721203e-13      13073.836 
 3790000      287  6.8947848e-13      13126.953 
 3800000      287  7.0521469e-13      13178.943 
 3810000      287  7.1578646e-13      13230.021 
 3820000      287  7.2237097e-13      13279.348 
 3830000      287  7.2985228e-13      13334.914 
 3840000      287  7.3082721e-13       13387.68 
 3850000      287  7.2823544e-13      13439.723 
 3860000      287  7.1375199e-13      13494.937 
 3870000      287  7.1361243e-13      13548.584 
 3880000      287   7.026968e-13      13595.807 
 3890000      287   6.886813e-13      13647.833 
 3900000      287  6.8219937e-13      13699.411 
 3910000      287  6.8769421e-13       13750.83 
 3920000      287  6.9512309e-13      13801.897 
 3930000      287  7.0630893e-13       13852.63 
 3940000      287   7.196573e-13       13904.86 
 3950000      287  7.2779339e-13      13954.815 
 3960000      287   7.415276e-13      14004.718 
 3970000      287  7.3971174e-13      14056.269 
 3980000      287   7.340458e-13       14107.44 
 3990000      287  7.1403069e-13       14160.44 
 4000000      287  7.2028191e-13      14216.696 
 4010000      287  7.0546765e-13      14268.545 
 4020000      287  6.9154481e-13      14321.349 
 4030000      287  6.9802742e-13      14374.135 
 4040000      287  7.0606116e-13       14422.44 
 4050000      287  7.0967258e-13      14471.315 
 4060000      287  7.2936739e-13       14519.93 
 4070000      287   7.384409e-13      14570.033 
 4080000      287   7.349035e-13      14619.198 
 4090000      287   7.496702e-13      14669.486 
 4100000      287  7.4986579e-13      14719.568 
 4110000      287   7.283837e-13      14767.176 
 4120000      287  7.2035367e-13      14811.169 
 4130000      287  7.3337831e-13      14864.719 
 4140000      287  7.5089972e-13      14917.779 
 4150000      287  7.4915537e-13      14969.612 
 4160000      287  6.9989195e-13      15022.091 
 4170000      287  7.0475498e-13      15072.123 
 4180000      287  7.1898616e-13      15127.051 
 4190000      287  7.3026508e-13      15179.179 
 4200000      287  7.4061753e-13      15233.991 
 4210000      287  7.3170883e-13      15287.243 
 4220000      287  7.3986497e-13      15336.853 
 4230000      287  7.3697038e-13      15388.808 
 4240000      287  7.3144144e-13      15441.368 
 4250000      287  7.2308676e-13      15492.716 
 4260000      287  7.1499513e-13      15545.316 
 4270000      287  7.1161616e-13      15597.338 
 4280000      287  6.9976323e-13      15650.648 
 4290000      287  6.9434378e-13       15700.26 
 4300000      287   6.955721e-13      15749.544 
 4310000      287  6.9847239e-13      15799.836 
 4320000      287  7.1594772e-13      15852.936 
 4330000      287  7.2030429e-13      15902.362 
 4340000      287  7.2468927e-13      15954.502 
 4350000      287  7.2832106e-13      16007.563 
 4360000      287  7.2191829e-13       16058.37 
 4370000      287  7.2314197e-13      16107.922 
 4380000      287  7.1941879e-13      16158.226 
 4390000      287  7.0611513e-13      16208.731 
 4400000      287  6.9992059e-13      16265.666 
 4410000      287  6.9280259e-13      16317.698 
 4420000      287  6.7916362e-13      16371.083 
 4430000      287  6.7408371e-13        16423.5 
 4440000      287  6.9421723e-13      16472.489 
 4450000      287  7.1221695e-13      16521.603 
 4460000      287  7.1710014e-13      16568.864 
 4470000      287  7.2449753e-13      16620.821 
 4480000      287  7.2659564e-13      16671.275 
 4490000      287  7.2369883e-13      16723.725 
 4500000      287   7.204986e-13      16774.704 
 4510000      287  7.1220668e-13      16826.499 
 4520000      287  6.9864378e-13      16877.215 
 4530000      287  6.8640855e-13      16927.133 
 4540000      287  6.8616037e-13       16974.54 
 4550000      287  6.8144883e-13      17024.685 
 4560000      287  6.8246647e-13      17077.237 
 4570000      287  7.0338542e-13      17127.302 
 4580000      287  7.1299823e-13      17176.961 
 4590000      287   7.229652e-13      17228.324 
 4600000      287   7.206297e-13      17285.549 
 4610000      287   7.273808e-13      17337.521 
 4620000      287  7.2446217e-13      17385.553 
 4630000      287  7.2769039e-13      17435.888 
 4640000      287  7.1575979e-13      17487.407 
 4650000      287  7.0014882e-13      17538.204 
 4660000      287  6.9240198e-13      17591.148 
 4670000      287  6.8416369e-13      17642.063 
 4680000      287  6.7512949e-13      17694.148 
 4690000      287  6.7502161e-13      17745.285 
 4700000      287  6.9557852e-13      17793.569 
 4710000      287  7.1200606e-13      17844.572 
 4720000      287  7.2200572e-13      17895.106 
 4730000      287  7.1867748e-13       17943.96 
 4740000      287  7.2141752e-13      17995.392 
 4750000      287  7.2599578e-13      18045.214 
 4760000      287  7.2491453e-13      18094.983 
 4770000      287  7.0394826e-13      18144.808 
 4780000      287   6.960667e-13      18189.868 
 4790000      287  6.8540063e-13      18238.665 
 4800000      287  6.7908338e-13      18292.731 
 4810000      287  6.7566553e-13      18342.495 
 4820000      287  6.8858448e-13      18394.546 
 4830000      287  6.9548278e-13       18446.63 
 4840000      287  7.0980463e-13      18499.486 
 4850000      287  7.2137251e-13      18552.091 
 4860000      287   7.198316e-13      18600.504 
 4870000      287  7.2456769e-13      18650.565 
 4880000      287  7.1988373e-13      18703.369 
 4890000      287  7.2084632e-13      18754.779 
 4900000      287  7.0746191e-13      18808.233 
 4910000      287  6.9488907e-13       18858.58 
 4920000      287  6.8859766e-13      18912.639 
 4930000      287  6.7518605e-13      18967.499 
 4940000      287  6.8044003e-13      19015.196 
 4950000      287  6.9769786e-13      19068.111 
 4960000      287  7.0431798e-13          19119 
 4970000      287  7.1752623e-13      19169.347 
 4980000      287  7.2700599e-13      19221.124 
 4990000      287  7.3392084e-13      19271.095 
 5000000      287  7.4524764e-13      19322.949 
 5010000      287  7.3197402e-13      19375.415 
 5020000      287  7.2252103e-13      19424.248 
 5030000      287  7.1960177e-13      19477.136 
 5040000      287  7.0516312e-13      19530.142 
 5050000      287  6.8880643e-13      19581.788 
 5060000      287  6.8512416e-13      19632.111 
 5070000      287  6.9173591e-13      19683.855 
 5080000      287   7.027663e-13      19734.983 
 5090000      287  7.1725226e-13      19786.604 
 5100000      287  7.3812613e-13      19834.307 
 5110000      287  7.4705362e-13      19886.057 
 5120000      287  7.4571989e-13      19936.363 
 5130000      287   7.613074e-13      19987.441 
 5140000      287  7.4805105e-13      20037.512 
 5150000      287  7.4154367e-13      20089.376 
 5160000      287  7.3201765e-13      20140.302 
 5170000      287  7.4919759e-13      20193.399 
 5180000      287  7.0952883e-13      20240.604 
 5190000      287  7.0974486e-13      20290.411 
 5200000      287  7.0312869e-13      20346.345 
 5210000      287   7.114575e-13      20399.683 
 5220000      287  7.2537794e-13      20450.874 
 5230000      287  7.4126364e-13       20502.96 
 5240000      287  7.3687424e-13      20555.255 
 5250000      287  7.5352087e-13      20608.943 
 5260000      287  7.5303268e-13      20653.996 
 5270000      287  7.5540459e-13      20706.422 
 5280000      287   7.441797e-13      20756.673 
 5290000      287  7.4241197e-13      20809.391 
 5300000      287   7.314464e-13      20859.428 
 5310000      287  7.0819793e-13      20909.741 
 5320000      287  6.9410082e-13      20960.316 
 5330000      287  6.9468363e-13       21009.65 
 5340000      287  7.0254695e-13      21056.524 
 5350000      287   7.162461e-13      21105.754 
 5360000      287  7.1551132e-13      21155.535 
 5370000      287  7.3150933e-13      21206.594 
 5380000      287  7.3109293e-13      21255.076 
 5390000      287  7.3811937e-13      21303.899 
 5400000      287  7.1924029e-13      21356.742 
 5410000      287  7.2990099e-13      21406.342 
 5420000      287  7.2815517e-13      21453.094 
 5430000      287  7.0305828e-13      21503.604 
 5440000      287  7.0952218e-13      21553.825 
 5450000      287  6.9656379e-13      21603.273 
 5460000      287  6.8435994e-13      21654.872 
 5470000      287  6.9164465e-13      21703.686 
 5480000      287  7.1289343e-13      21750.958 
 5490000      287  7.1153859e-13      21800.773 
 5500000      287  7.2223161e-13      21849.017 
 5510000      287  7.1808416e-13      21902.064 
 5520000      287  7.2338641e-13      21954.415 
 5530000      287  7.2317518e-13      22005.865 
 5540000      287  7.3004607e-13      22059.981 
 5550000      287  7.2619487e-13      22111.372 
 5560000      287  7.2385221e-13      22164.053 
 5570000      287  7.1059032e-13      22212.883 
 5580000      287  7.0323375e-13      22263.765 
 5590000      287  6.9980192e-13      22318.745 
 5600000      287  7.1843766e-13      22376.985 
 5610000      287  7.0482484e-13      22428.724 
 5620000      287  7.2023945e-13      22481.612 
 5630000      287  7.2402401e-13      22531.242 
 5640000      287  7.3511783e-13      22583.178 
 5650000      287  7.3611732e-13      22635.004 
 5660000      287  7.5857967e-13      22681.193 
 5670000      287  7.4737846e-13      22732.551 
 5680000      287  7.4262579e-13      22784.525 
 5690000      287  7.3472685e-13      22833.062 
 5700000      287  7.2975485e-13      22887.001 
 5710000      287  7.1093108e-13      22937.663 
 5720000      287  7.0789025e-13       22991.04 
 5730000      287  7.1170573e-13      23042.789 
 5740000      287  7.2047527e-13      23091.952 
 5750000      287   7.326547e-13      23143.823 
 5760000      287  7.2977367e-13       23193.14 
 5770000      287  7.4695168e-13      23243.796 
 5780000      287  7.6460907e-13      23295.634 
 5790000      287  7.6853915e-13      23345.217 
 5800000      287  7.5823449e-13      23400.227 
 5810000      287  7.5016546e-13      23452.614 
 5820000      287  7.3556948e-13      23500.578 
 5830000      287  6.9370266e-13      23550.646 
 5840000      287  7.0742704e-13      23601.242 
 5850000      287  7.2284437e-13      23652.504 
 5860000      287  7.2746934e-13      23701.399 
 5870000      287   7.373895e-13       23750.61 
 5880000      287  7.4663259e-13      23799.936 
 5890000      287   7.532393e-13      23850.537 
 5900000      287  7.5273421e-13      23896.375 
 5910000      287  7.6184362e-13      23946.282 
 5920000      287   7.609716e-13      23997.145 
 5930000      287  7.5543644e-13      24049.403 
 5940000      287  7.3441477e-13      24100.295 
 5950000      287   7.178456e-13      24153.229 
 5960000      287  7.1969945e-13       24205.18 
 5970000      287  7.2389139e-13      24259.153 
 5980000      287  7.2610871e-13      24307.478 
 5990000      287  7.3577783e-13      24358.567 
 6000000      287  7.4147608e-13      24415.709 
 6010000      287  7.4325288e-13      24466.646 
 6020000      287  7.5003507e-13      24517.169 
 6030000      287  7.5709794e-13      24565.876 
 6040000      287  7.7070019e-13      24615.861 
 6050000      287  7.6068336e-13      24667.071 
 6060000      287  7.3288437e-13      24713.102 
 6070000      287  7.1700828e-13       24765.69 
 6080000      287  6.9352251e-13      24814.542 
 6090000      287  6.9816981e-13      24865.779 
 6100000      287  7.0839397e-13      24918.067 
 6110000      287  7.3157904e-13      24970.934 
 6120000      287  7.1505475e-13       25024.75 
 6130000      287  7.2949217e-13      25076.268 
 6140000      287  7.3809424e-13      25125.194 
 6150000      287  7.5226776e-13      25176.923 
 6160000      287  7.4101671e-13      25229.231 
 6170000      287  7.3522648e-13      25278.606 
 6180000      287  7.2720281e-13      25329.726 
 6190000      287  7.1793939e-13      25384.322 
 6200000      287  7.0924188e-13      25442.068 
 6210000      287  6.9239946e-13      25495.862 
 6220000      287   6.950802e-13      25543.184 
 6230000      287  6.9162787e-13      25593.456 
 6240000      287  6.9304405e-13      25644.381 
 6250000      287   7.066579e-13      25697.449 
 6260000      287  7.1765835e-13      25747.953 
 6270000      287  7.3112057e-13      25796.702 
 6280000      287  7.4102966e-13      25848.486 
 6290000      287  7.3425519e-13      25897.412 
 6300000      287  7.3232282e-13      25944.772 
 6310000      287   7.153124e-13      25994.697 
 6320000      287  7.0394895e-13      26044.331 
 6330000      287  7.0451434e-13      26093.884 
 6340000      287  6.8680341e-13      26142.162 
 6350000      287  6.8175952e-13      26193.318 
 6360000      287  6.8478818e-13      26243.545 
 6370000      287  6.8774974e-13      26291.715 
 6380000      287  6.9334979e-13      26335.877 
 6390000      287  7.0807794e-13      26383.525 
 6400000      287  7.1272638e-13      26438.601 
 6410000      287  7.1782867e-13      26489.677 
 6420000      287  7.1494558e-13      26542.072 
 6430000      287  7.0743637e-13      26596.003 
 6440000      287  7.1105271e-13      26646.889 
 6450000      287  7.0347968e-13      26700.144 
 6460000      287  6.9093301e-13      26750.756 
 6470000      287  7.0367843e-13      26802.968 
 6480000      287  6.7037429e-13      26853.738 
 6490000      287  6.6873988e-13      26905.232 
 6500000      287  6.7473653e-13      26956.485 
 6510000      287  6.8902202e-13      27003.854 
 6520000      287  6.9356402e-13       27053.24 
 6530000      287  7.0689679e-13      27102.786 
 6540000      287  7.0519817e-13      27150.922 
 6550000      287  7.0979911e-13      27199.181 
 6560000      287  7.1913065e-13      27248.138 
 6570000      287  7.1328496e-13      27298.597 
 6580000      287  7.1522066e-13      27348.453 
 6590000      287  7.0570675e-13      27397.632 
 6600000      287  7.0382436e-13      27452.296 
 6610000      287   6.922105e-13      27503.768 
 6620000      287  6.7803707e-13      27550.089 
 6630000      287  6.8055023e-13       27600.09 
 6640000      287  6.9730039e-13      27649.734 
 6650000      287  7.0871471e-13       27698.29 
 6660000      287  7.2271002e-13       27748.24 
 6670000      287  7.4700652e-13      27799.241 
 6680000      287  7.4642024e-13      27851.442 
 6690000      287    7.64539e-13      27905.072 
 6700000      287  7.5924608e-13      27952.826 
 6710000      287  7.6839101e-13      28005.353 
 6720000      287  7.3583004e-13      28060.228 
 6730000      287  7.1722414e-13      28111.204 
 6740000      287   6.924443e-13      28161.347 
 6750000      287  7.0563365e-13      28212.206 
 6760000      287  7.0756183e-13      28261.744 
 6770000      287  7.2254068e-13      28315.069 
 6780000      287   7.446395e-13      28362.821 
 6790000      287  7.5438543e-13      28415.186 
 6800000      287  7.6002734e-13      28472.455 
 6810000      287  7.7337139e-13       28524.32 
 6820000      287  7.6408524e-13      28575.305 
 6830000      287  7.5503258e-13      28625.157 
 6840000      287  7.4431691e-13      28675.126 
 6850000      287  7.3512595e-13      28723.614 
 6860000      287  7.0787572e-13      28769.556 
 6870000      287  7.0557328e-13      28818.293 
 6880000      287  7.0723662e-13      28872.071 
 6890000      287  7.1506705e-13      28923.947 
 6900000      287  7.3427363e-13      28972.657 
 6910000      287  7.4474105e-13       29025.81 
 6920000      287  7.4886222e-13      29076.232 
 6930000      287  7.5179506e-13      29125.992 
 6940000      287  7.6135234e-13      29177.538 
 6950000      287  7.6842461e-13      29224.794 
 6960000      287  7.4924578e-13       29275.05 
 6970000      287   7.198393e-13      29328.446 
 6980000      287  7.0798571e-13       29380.11 
 6990000      287  7.0093415e-13       29431.49 
 7000000      287  7.0501436e-13        29489.3 
 7010000      287  7.0298042e-13      29539.941 
 7020000      287  7.1436144e-13       29592.98 
 7030000      287  7.2729298e-13      29640.988 
 7040000      287  7.3423603e-13      29695.196 
 7050000      287   7.463066e-13      29751.036 
 7060000      287  7.5463282e-13      29803.514 
 7070000      287  7.4450611e-13      29858.117 
 7080000      287   7.221166e-13      29912.109 
 7090000      287  7.2664972e-13      29962.741 
 7100000      287  7.0637638e-13      30016.229 
 7110000      287  7.0580796e-13      30067.133 
 7120000      287  6.9903138e-13      30119.281 
 7130000      287  6.9428029e-13      30169.845 
 7140000      287  7.0234284e-13      30221.473 
 7150000      287   7.073317e-13      30270.278 
 7160000      287  7.1561159e-13      30322.967 
 7170000      287  7.3434834e-13       30375.36 
 7180000      287  7.5693341e-13      30427.671 
 7190000      287  7.6390337e-13      30477.335 
 7200000      287   7.412317e-13      30534.516 
 7210000      287  7.2839151e-13       30587.52 
 7220000      287  7.0580543e-13      30640.446 
 7230000      287  6.9487761e-13      30691.193 
 7240000      287    6.88787e-13      30742.724 
 7250000      287  6.8774643e-13      30794.904 
 7260000      287  6.9108358e-13      30845.765 
 7270000      287  6.9521978e-13      30893.629 
 7280000      287  7.0195655e-13      30947.156 
 7290000      287  7.2478976e-13       31000.74 
 7300000      287  7.3518528e-13      31052.087 
 7310000      287  7.4903363e-13       31102.29 
 7320000      287  7.4098517e-13       31152.32 
 7330000      287  7.2969854e-13      31205.051 
 7340000      287  7.0633205e-13      31257.864 
 7350000      287   7.091492e-13      31306.393 
 7360000      287  7.4880952e-13      31358.452 
 7370000      287  6.9755887e-13      31413.386 
 7380000      287  6.9253935e-13      31465.497 
 7390000      287   7.099114e-13      31516.425 
 7400000      287   7.045874e-13       31570.29 
 7410000      287  7.2540491e-13      31622.577 
 7420000      287  7.2800712e-13      31671.769 
 7430000      287   7.542446e-13      31721.652 
 7440000      287  7.3963071e-13      31775.842 
 7450000      287  7.4862192e-13      31827.825 
 7460000      287  7.3940181e-13      31880.619 
 7470000      287  7.3324307e-13      31931.892 
 7480000      287  7.0785263e-13      31983.162 
 7490000      287  6.9467242e-13      32033.742 
 7500000      287  6.8022083e-13      32085.816 
 7510000      287  6.8337254e-13      32135.281 
 7520000      287   6.844868e-13      32187.298 
 7530000      287  6.9898149e-13       32240.23 
 7540000      287  7.0641303e-13      32295.726 
 7550000      287  7.0937906e-13      32345.168 
 7560000      287  7.0409181e-13      32397.495 
 7570000      287  7.3373262e-13      32449.835 
 7580000      287   7.368559e-13       32498.77 
 7590000      287  7.3847202e-13      32548.423 
 7600000      287  7.2062098e-13      32607.154 
 7610000      287  7.0887603e-13      32659.705 
 7620000      287  6.9354829e-13      32716.058 
 7630000      287  6.9203213e-13      32764.905 
 7640000      287  6.9061073e-13      32815.883 
 7650000      287  6.9581851e-13      32868.587 
 7660000      287  6.9692418e-13      32920.785 
 7670000      287  7.0577636e-13      32969.273 
 7680000      287  7.0396364e-13      33019.577 
 7690000      287  7.3538507e-13      33072.905 
 7700000      287  7.4018012e-13      33126.692 
 7710000      287  7.4587574e-13      33181.431 
 7720000      287  7.2936825e-13      33233.438 
 7730000      287  7.2896833e-13      33284.275 
 7740000      287  7.1844543e-13      33336.652 
 7750000      287  7.1342535e-13      33387.238 
 7760000      287  6.9791213e-13      33439.761 
 7770000      287  6.8315666e-13      33490.481 
 7780000      287  6.9357419e-13       33544.07 
 7790000      287  6.9738386e-13      33596.863 
 7800000      287  7.1326973e-13      33654.726 
 7810000      287  7.2951099e-13      33707.038 
 7820000      287  7.4376497e-13      33767.146 
 7830000      287  7.4281401e-13      33816.024 
 7840000      287  7.4998154e-13      33868.452 
 7850000      287  7.4585492e-13      33920.997 
 7860000      287  7.4244415e-13      33970.351 
 7870000      287  7.2502509e-13      34023.268 
 7880000      287  7.1063018e-13      34075.818 
 7890000      287  6.9402478e-13      34130.736 
 7900000      287  6.8705793e-13       34186.04 
 7910000      287  7.0968489e-13      34238.051 
 7920000      287  7.1301255e-13      34289.257 
 7930000      287  7.2931817e-13      34339.282 
 7940000      287  7.4449721e-13      34389.765 
 7950000      287  7.5368513e-13       34442.26 
 7960000      287  7.4247001e-13      34495.899 
 7970000      287  7.4773693e-13      34548.738 
 7980000      287  7.5695262e-13      34599.394 
 7990000      287  7.2641387e-13      34650.141 
 8000000      287  7.1738077e-13      34705.288 
 8010000      287  6.9364252e-13      34759.845 
 8020000      287  6.9164397e-13      34814.108 
 8030000      287  6.9120595e-13      34868.119 
 8040000      287  6.9039998e-13      34918.544 
 8050000      287  7.1638964e-13      34971.299 
 8060000      287  7.1999537e-13      35021.563 
 8070000      287  7.3107058e-13      35067.775 
 8080000      287  7.5209338e-13      35120.066 
 8090000      287  7.5439287e-13      35172.827 
 8100000      287  7.5628649e-13       35224.33 
 8110000      287  7.2826718e-13      35276.757 
 8120000      287  7.0999237e-13      35330.164 
 8130000      287  6.7784147e-13      35381.897 
 8140000      287  6.9000357e-13       35434.59 
 8150000      287  6.8294103e-13      35484.137 
 8160000      287  6.7679408e-13      35532.782 
 8170000      287  7.0111812e-13      35582.898 
 8180000      287  6.9674966e-13      35632.397 
 8190000      287  7.1423332e-13      35681.888 
 8200000      287  7.3303263e-13      35739.709 
 8210000      287  7.6380344e-13      35793.063 
 8220000      287  7.6559117e-13       35847.25 
 8230000      287  7.5965676e-13      35897.176 
 8240000      287  7.2448598e-13      35948.986 
 8250000      287  7.0733946e-13      36002.207 
 8260000      287  6.8315779e-13      36053.749 
 8270000      287  6.9026623e-13      36109.029 
 8280000      287   6.785196e-13      36162.817 
 8290000      287  6.8076379e-13      36217.545 
 8300000      287  6.8239448e-13      36266.742 
 8310000      287  6.8485243e-13      36312.836 
 8320000      287  7.0711797e-13      36364.956 
 8330000      287  7.4368427e-13      36423.236 
 8340000      287  7.5953076e-13      36476.007 
 8350000      287  7.6497976e-13      36527.575 
 8360000      287    7.38499e-13      36579.629 
 8370000      287  7.2187743e-13      36632.824 
 8380000      287  6.9510298e-13      36688.169 
 8390000      287  6.9513326e-13      36737.852 
 8400000      287  6.8342688e-13      36793.799 
 8410000      287  6.8808496e-13      36846.759 
 8420000      287  6.9407236e-13      36900.501 
 8430000      287  6.9519106e-13      36954.028 
 8440000      287  7.2215731e-13      37002.879 
 8450000      287  7.4944453e-13      37057.342 
 8460000      287  7.4795319e-13      37111.769 
 8470000      287  7.6330905e-13      37162.206 
 8480000      287  7.6428747e-13       37214.26 
 8490000      287  7.5844101e-13      37270.948 
 8500000      287   7.264752e-13      37327.653 
 8510000      287  7.0588045e-13       37381.86 
 8520000      287  6.7455657e-13      37434.562 
 8530000      287  6.8627086e-13        37487.8 
 8540000      287  6.7652505e-13      37543.608 
 8550000      287  6.7953455e-13       37595.87 
 8560000      287  6.8018115e-13      37651.653 
 8570000      287  7.1818405e-13      37706.508 
 8580000      287   7.188885e-13      37759.889 
 8590000      287  7.5288095e-13      37811.853 
 8600000      287  7.5723816e-13      37866.248 
 8610000      287  7.6303067e-13      37921.329 
 8620000      287    7.51074e-13      37969.694 
 8630000      287  7.2113335e-13      38021.343 
 8640000      287  6.9643454e-13      38076.449 
 8650000      287  6.8352669e-13      38132.301 
 8660000      287  6.8246616e-13      38188.812 
 8670000      287  6.8351633e-13      38242.036 
 8680000      287  6.8015549e-13      38295.906 
 8690000      287  6.8623206e-13      38351.873 
 8700000      287  6.8698672e-13      38404.138 
 8710000      287  7.0997199e-13      38456.385 
 8720000      287  7.3654069e-13      38511.295 
 8730000      287  7.5455856e-13      38562.346 
 8740000      287  7.5471095e-13      38614.959 
 8750000      287  7.4242088e-13      38668.028 
 8760000      287  7.1400592e-13      38716.945 
 8770000      287  7.0438232e-13      38767.568 
 8780000      287  6.9631242e-13      38817.764 
 8790000      287  7.0633111e-13      38865.211 
 8800000      287  7.0971169e-13      38921.099 
 8810000      287  7.0014534e-13      38973.709 
 8820000      287  7.0240598e-13      39028.062 
 8830000      287  7.2407631e-13      39081.564 
 8840000      287  7.3548344e-13      39134.303 
 8850000      287  7.4602167e-13      39186.955 
 8860000      287  7.7872427e-13      39240.836 
 8870000      287  7.6103829e-13       39293.67 
 8880000      287  7.4890391e-13      39345.879 
 8890000      287   7.208284e-13      39402.738 
 8900000      287  7.2555995e-13      39455.748 
 8910000      287   7.112255e-13       39510.99 
 8920000      287  7.0091514e-13      39567.038 
 8930000      287  7.0063222e-13      39623.648 
 8940000      287  6.9853873e-13      39677.515 
 8950000      287   6.981701e-13      39725.768 
 8960000      287   7.077068e-13      39776.174 
 8970000      287  7.4117782e-13      39831.782 
 8980000      287   7.497304e-13      39888.411 
 8990000      287  7.4081504e-13      39940.767 
 9000000      287  7.3998534e-13      39997.797 
 9010000      287  7.2082165e-13      40048.351 
 9020000      287  6.9017685e-13      40100.327 
 9030000      287  6.9389015e-13      40148.333 
 9040000      287  6.8684275e-13       40198.41 
 9050000      287  6.7241585e-13      40248.204 
 9060000      287  6.7414869e-13      40301.922 
 9070000      287  6.8009977e-13      40354.309 
 9080000      287   6.801178e-13      40405.099 
 9090000      287  7.1219771e-13      40457.729 
 9100000      287  7.3609981e-13      40509.217 
 9110000      287  7.4346804e-13        40553.5 
 9120000      287   7.390908e-13      40606.851 
 9130000      287  7.4121007e-13      40660.809 
 9140000      287  7.1890894e-13      40712.191 
 9150000      287  6.9387398e-13        40761.7 
 9160000      287  6.8048296e-13      40813.038 
 9170000      287  6.8399337e-13      40868.038 
 9180000      287   6.773524e-13      40921.778 
 9190000      287  6.7534918e-13      40969.894 
 9200000      287  6.7173659e-13       41028.32 
 9210000      287  6.8710342e-13      41082.233 
 9220000      287   7.019472e-13      41133.024 
 9230000      287  7.1414313e-13      41191.157 
 9240000      287  7.3610533e-13       41247.04 
 9250000      287  7.5429977e-13      41300.312 
 9260000      287  7.4221382e-13      41354.822 
 9270000      287  7.2041118e-13      41407.144 
 9280000      287   6.905212e-13      41464.057 
 9290000      287  6.9599945e-13      41520.273 
 9300000      287  6.9865749e-13      41575.591 
 9310000      287   6.830826e-13      41626.458 
 9320000      287  6.8250469e-13      41679.478 
 9330000      287  6.8403437e-13      41732.845 
 9340000      287  6.9098556e-13      41786.891 
 9350000      287  6.9471711e-13      41837.002 
 9360000      287  7.1329174e-13      41889.912 
 9370000      287   7.739379e-13      41942.219 
 9380000      287  7.5345792e-13      41997.793 
 9390000      287  7.3297687e-13      42052.617 
 9400000      287  7.1817967e-13      42113.665 
 9410000      287  7.0750683e-13      42169.175 
 9420000      287  6.8239183e-13      42223.483 
 9430000      287   6.927549e-13      42274.055 
 9440000      287  6.8584057e-13       42328.34 
 9450000      287   6.786073e-13      42385.061 
 9460000      287  6.7341672e-13      42437.768 
 9470000      287  6.7886127e-13      42494.355 
 9480000      287  6.9665749e-13      42549.016 
 9490000      287  7.1115838e-13      42603.815 
 9500000      287  7.2644789e-13      42658.654 
 9510000      287  7.4743469e-13      42710.624 
 9520000      287  7.3967081e-13      42762.037 
 9530000      287  7.2098823e-13      42815.887 
 9540000      287  7.1031216e-13      42871.826 
 9550000      287  6.9531079e-13       42925.28 
 9560000      287  6.9511418e-13       42978.02 
 9570000      287  6.9312237e-13      43031.575 
 9580000      287  6.9164313e-13       43084.78 
 9590000      287  6.8326844e-13      43137.549 
 9600000      287  6.8562142e-13      43195.173 
 9610000      287  6.9080207e-13      43249.582 
 9620000      287  7.1881289e-13      43303.557 
 9630000      287  7.4032518e-13      43358.753 
 9640000      287  7.5389341e-13      43415.738 
 9650000      287  7.3310158e-13      43470.592 
 9660000      287  7.1325903e-13      43525.081 
 9670000      287  7.0038721e-13      43574.865 
 9680000      287  6.8725067e-13      43628.595 
 9690000      287  6.9694251e-13      43683.243 
 9700000      287  6.9542316e-13      43738.706 
 9710000      287  6.9590798e-13      43793.709 
 9720000      287  6.9099147e-13      43849.754 
 9730000      287  6.9071338e-13      43901.507 
 9740000      287  7.0047011e-13      43956.944 
 9750000      287  7.2157728e-13      44007.695 
 9760000      287  7.3579493e-13      44057.756 
 9770000      287  7.3305513e-13      44113.126 
 9780000      287  7.2203371e-13      44168.815 
 9790000      287  7.1760817e-13      44222.503 
 9800000      287  7.0667683e-13      44277.244 
 9810000      287  7.0264518e-13      44335.695 
 9820000      287  7.0620133e-13      44388.658 
 9830000      287  7.0026239e-13      44443.827 
 9840000      287   7.012099e-13      44495.125 
 9850000      287  6.9788815e-13      44549.463 
 9860000      287  7.0362528e-13      44606.323 
 9870000      287  7.1150003e-13      44661.076 
 9880000      287  7.3545807e-13      44712.752 
 9890000      287  7.5440855e-13      44765.768 
 9900000      287  7.4917603e-13      44822.942 
 9910000      287  7.5444822e-13      44879.065 
 9920000      287   7.301164e-13      44930.688 
 9930000      287   7.247957e-13      44989.392 
 9940000      287  7.1076217e-13       45042.97 
 9950000      287  6.9932958e-13      45097.188 
 9960000      287  7.0255429e-13      45151.405 
 9970000      287  6.9659588e-13       45203.34 
 9980000      287  6.9552737e-13      45259.258 
 9990000      287  6.9815527e-13      45314.507 
10000000      287  7.0862541e-13       45372.56 
10010000      287   7.343616e-13       45427.83 
10020000      287  7.2796794e-13      45483.675 
10030000      287  7.3185588e-13       45543.83 
10040000      287   7.363791e-13      45599.259 
10050000      287  7.1133278e-13       45649.24 
10060000      287  7.0270179e-13      45706.983 
10070000      287  6.8397171e-13      45759.203 
10080000      287  6.8874407e-13      45806.663 
10090000      287   6.875647e-13      45862.475 
10100000      287  6.8488665e-13      45919.145 
10110000      287   6.861666e-13       45974.86 
10120000      287  6.7506036e-13      46026.752 
10130000      287  7.0799563e-13       46081.81 
10140000      287  7.2187508e-13      46137.424 
10150000      287  7.2388609e-13      46191.704 
10160000      287  7.2765551e-13      46240.055 
10170000      287  7.2418708e-13      46295.455 
10180000      287  7.1805252e-13      46349.841 
10190000      287  7.0757339e-13      46405.484 
10200000      287  6.8290637e-13      46464.531 
10210000      287  6.9166648e-13      46522.428 
10220000      287  6.8450961e-13      46577.632 
10230000      287  6.7440778e-13        46634.7 
10240000      287  6.8184884e-13      46683.752 
10250000      287  6.7860431e-13      46738.837 
10260000      287  6.9564974e-13      46791.812 
10270000      287  7.2657084e-13      46847.111 
10280000      287  7.4317918e-13      46901.427 
10290000      287  7.3311755e-13       46955.39 
10300000      287  7.2689906e-13      47008.447 
10310000      287  7.1713021e-13      47057.381 
10320000      287  7.1064761e-13      47107.864 
10330000      287  6.8583754e-13      47158.381 
10340000      287  6.8789839e-13      47214.351 
10350000      287  6.7752514e-13      47266.554 
10360000      287  6.7546529e-13      47319.936 
10370000      287  6.8047833e-13      47375.301 
10380000      287  6.8246828e-13      47432.864 
10390000      287  6.9885281e-13      47489.486 
10400000      287  7.2197841e-13      47545.196 
10410000      287  7.4213327e-13      47601.407 
10420000      287   7.174227e-13       47653.76 
10430000      287  7.2847882e-13      47708.488 
10440000      287  7.2313775e-13      47761.406 
10450000      287  7.0541468e-13       47814.51 
10460000      287   6.816393e-13      47867.779 
10470000      287  6.8917439e-13      47921.542 
10480000      287  6.7811325e-13      47969.946 
10490000      287  6.7817821e-13      48023.223 
10500000      287   6.804183e-13      48075.419 
10510000      287  6.8802517e-13      48127.905 
10520000      287  7.0814582e-13      48182.831 
10530000      287  7.2242001e-13      48237.358 
10540000      287  7.3953217e-13      48289.542 
10550000      287  7.3517885e-13      48341.989 
10560000      287  7.3965005e-13      48394.354 
10570000      287  7.0963504e-13      48450.773 
10580000      287  7.0386325e-13      48506.879 
10590000      287  6.8905027e-13      48561.049 
10600000      287  6.9943158e-13      48619.119 
10610000      287  6.8892206e-13      48671.919 
10620000      287  6.8399417e-13      48723.134 
10630000      287  6.8302625e-13       48776.45 
10640000      287  7.0101912e-13      48824.446 
10650000      287  7.1835219e-13      48876.639 
10660000      287   7.389834e-13      48931.252 
10670000      287  7.5502266e-13      48981.272 
10680000      287  7.6347592e-13      49031.554 
10690000      287  7.5309593e-13      49088.317 
10700000      287  7.2538499e-13      49144.679 
10710000      287  7.1235511e-13      49202.474 
10720000      287  7.0239577e-13      49251.747 
10730000      287  7.0547364e-13      49303.803 
10740000      287   6.930326e-13      49358.139 
10750000      287  6.9580296e-13      49408.724 
10760000      287  6.9264252e-13      49462.614 
10770000      287  6.9686362e-13      49512.014 
10780000      287  7.2288179e-13      49566.135 
10790000      287  7.4209011e-13       49622.72 
10800000      287  7.5433888e-13      49679.343 
10810000      287  7.6000527e-13      49733.109 
10820000      287  7.3697106e-13      49787.441 
10830000      287  7.2727519e-13      49841.762 
10840000      287   7.127296e-13      49897.246 
10850000      287  7.1335458e-13      49949.523 
10860000      287  6.8998776e-13      50003.662 
10870000      287   7.026262e-13      50057.734 
10880000      287  6.9718997e-13      50104.214 
10890000      287  7.0395392e-13      50153.238 
10900000      287  7.1462376e-13      50204.621 
10910000      287  7.3767334e-13      50255.597 
10920000      287  7.6616637e-13      50305.726 
10930000      287  7.7254662e-13      50354.538 
10940000      287  7.5609255e-13      50409.035 
10950000      287  7.4437376e-13      50463.658 
10960000      287  7.3982861e-13      50513.293 
10970000      287  7.1244489e-13      50567.737 
10980000      287  7.0968015e-13      50625.115 
10990000      287  7.0140191e-13      50680.449 
11000000      287  6.9905043e-13       50739.18 
11010000      287   7.033583e-13      50795.893 
11020000      287  7.0804913e-13      50850.579 
11030000      287  7.1633476e-13        50905.4 
11040000      287  7.3661835e-13       50958.46 
11050000      287  7.4931079e-13      51013.345 
11060000      287  7.4116547e-13      51069.479 
11070000      287  7.5131091e-13       51125.69 
11080000      287  7.3472699e-13      51179.517 
11090000      287  7.2387172e-13      51230.238 
11100000      287  6.9694059e-13      51279.271 
11110000      287  6.9024774e-13      51331.856 
11120000      287  6.9173105e-13       51379.05 
11130000      287  6.8928987e-13      51433.407 
11140000      287  6.8524952e-13      51488.888 
11150000      287  6.9809951e-13      51541.112 
11160000      287  7.0997569e-13      51596.576 
11170000      287  7.3702338e-13      51649.034 
11180000      287  7.4307772e-13      51704.007 
11190000      287  7.3819286e-13      51759.029 
11200000      287   7.374058e-13      51814.698 
11210000      287  7.2110946e-13      51866.116 
11220000      287  7.1349203e-13      51917.159 
11230000      287  6.8671397e-13      51973.198 
11240000      287  6.8893455e-13       52026.83 
11250000      287  6.7524909e-13       52083.02 
11260000      287  6.7945198e-13      52137.396 
11270000      287  6.8027451e-13      52192.054 
11280000      287  6.7614845e-13      52242.522 
11290000      287   6.893885e-13      52294.477 
11300000      287  7.3022152e-13      52347.818 
11310000      287  7.5012066e-13      52401.699 
11320000      287  7.5039604e-13      52452.844 
11330000      287  7.2212584e-13      52506.687 
11340000      287  7.2077042e-13      52563.116 
11350000      287  7.1927736e-13      52615.479 
11360000      287  6.8638241e-13      52667.574 
11370000      287  6.9454828e-13       52725.26 
11380000      287  6.7660816e-13      52778.348 
11390000      287  6.8781438e-13      52832.233 
11400000      287  6.8961401e-13      52890.181 
11410000      287  6.9605548e-13      52944.771 
11420000      287  7.1164552e-13      53003.768 
11430000      287  7.3853865e-13       53057.55 
11440000      287  7.4981313e-13      53107.804 
11450000      287  7.5465825e-13      53165.106 
11460000      287  7.3865964e-13      53219.235 
11470000      287  7.1613102e-13      53275.982 
11480000      287  7.0245943e-13      53330.645 
11490000      287  6.9759942e-13      53382.906 
11500000      287  6.8231383e-13      53439.181 
11510000      287  6.8454207e-13      53494.954 
11520000      287  6.9648739e-13      53542.763 
11530000      287  6.8919325e-13      53599.348 
11540000      287  6.9857267e-13      53653.326 
11550000      287  7.1193279e-13      53706.738 
11560000      287  7.3581099e-13      53760.389 
11570000      287  7.4674328e-13      53815.858 
11580000      287  7.4753679e-13      53867.006 
11590000      287  7.4066697e-13      53923.075 
11600000      287  7.2278663e-13       53975.41 
11610000      287  7.0704758e-13      54029.784 
11620000      287   6.938879e-13      54081.996 
11630000      287  6.8314068e-13      54135.625 
11640000      287  6.7892674e-13       54190.18 
11650000      287  6.7369872e-13      54240.307 
11660000      287  7.1083641e-13       54299.77 
11670000      287  7.2295961e-13      54355.471 
11680000      287    7.38515e-13      54407.461 
11690000      287  7.6831066e-13      54460.192 
11700000      287  7.7973977e-13      54516.327 
11710000      287  7.7872248e-13      54571.521 
11720000      287  7.5606331e-13      54622.635 
11730000      287  7.3602214e-13      54681.056 
11740000      287  7.3963914e-13      54735.917 
11750000      287  7.2390954e-13      54789.613 
11760000      287  7.1268292e-13       54840.77 
11770000      287  7.0967912e-13      54891.315 
11780000      287  7.1282274e-13      54943.586 
11790000      287   7.192716e-13      54995.169 
11800000      287  7.2748601e-13      55050.725 
11810000      287  7.3764585e-13      55105.634 
11820000      287  7.5266709e-13      55159.338 
11830000      287  7.6927024e-13      55211.764 
11840000      287  7.6079138e-13        55262.5 
11850000      287  7.4479315e-13      55316.933 
11860000      287  7.4058672e-13      55369.485 
11870000      287  7.3036604e-13       55423.44 
11880000      287   7.283664e-13      55475.004 
11890000      287  7.2406785e-13      55523.718 
11900000      287  7.1826602e-13      55575.002 
11910000      287  7.2206747e-13      55627.758 
11920000      287  7.3550779e-13      55676.734 
11930000      287  7.4732408e-13      55729.474 
11940000      287  7.6307145e-13      55781.228 
11950000      287  7.8113021e-13      55831.338 
11960000      287  7.9474547e-13      55880.948 
11970000      287  7.6781013e-13      55935.451 
11980000      287   7.542701e-13       55990.26 
11990000      287  7.3506648e-13      56046.845 
12000000      287   7.344519e-13      56103.158 
12010000      287  7.3210339e-13      56154.981 
12020000      287  7.0957668e-13      56208.101 
12030000      287  7.0862054e-13      56262.702 
12040000      287  7.1052268e-13      56319.307 
12050000      287   7.174464e-13      56374.086 
12060000      287  7.3734036e-13      56429.023 
12070000      287  7.4753617e-13      56484.148 
12080000      287  7.6507315e-13      56533.335 
12090000      287  7.4448118e-13      56588.115 
12100000      287  7.4817001e-13       56641.71 
12110000      287  7.4301379e-13      56694.909 
12120000      287  7.2490747e-13      56749.185 
12130000      287  7.2482639e-13      56802.296 
12140000      287   7.083843e-13      56853.481 
12150000      287  6.9004095e-13      56905.644 
12160000      287  6.8742553e-13      56952.872 
12170000      287  7.0273429e-13      57006.233 
12180000      287  7.0496676e-13      57062.379 
12190000      287  7.2042082e-13      57115.784 
12200000      287  7.3749349e-13      57173.034 
12210000      287  7.4481061e-13      57225.888 
12220000      287  7.3804209e-13      57277.295 
12230000      287  7.2918909e-13      57328.763 
12240000      287  7.1665625e-13       57376.29 
12250000      287  7.0483528e-13      57426.897 
12260000      287  6.9300207e-13      57477.179 
12270000      287  6.8233565e-13      57529.241 
12280000      287  6.8621221e-13      57578.448 
12290000      287  6.8517298e-13      57631.006 
12300000      287   6.946117e-13      57684.487 
12310000      287  7.0371627e-13      57737.963 
12320000      287  7.1420146e-13      57788.701 
12330000      287  7.3723954e-13      57841.354 
12340000      287  7.5060708e-13      57894.251 
12350000      287  7.3040523e-13      57945.493 
12360000      287   7.293646e-13      57996.258 
12370000      287  7.2646115e-13      58044.755 
12380000      287  7.1900929e-13       58098.19 
12390000      287  7.1013496e-13      58151.537 
12400000      287  6.9473532e-13       58204.78 
12410000      287  7.0295087e-13      58254.537 
12420000      287  6.8595414e-13      58304.653 
12430000      287  6.9679007e-13      58358.033 
12440000      287  7.0519888e-13      58407.405 
12450000      287   7.236045e-13      58458.632 
12460000      287  7.4135768e-13      58513.075 
12470000      287  7.5048448e-13       58564.27 
12480000      287  7.3854825e-13      58614.799 
12490000      287  7.3019727e-13      58667.682 
12500000      287  7.1998639e-13      58717.718 
12510000      287    7.12026e-13      58772.194 
12520000      287   6.995413e-13      58824.767 
12530000      287  6.9705965e-13      58876.647 
12540000      287  6.8362058e-13      58929.512 
12550000      287  6.9050962e-13      58982.879 
12560000      287  6.9071205e-13      59039.527 
12570000      287  7.1467333e-13      59092.562 
12580000      287  7.2955611e-13       59143.79 
12590000      287  7.3527081e-13      59198.057 
12600000      287   7.342334e-13      59251.391 
12610000      287  7.3500603e-13      59306.369 
12620000      287  7.3289369e-13      59357.898 
12630000      287  7.1960793e-13      59410.963 
12640000      287   7.149619e-13      59465.667 
12650000      287  7.0694714e-13      59513.183 
12660000      287  6.9432029e-13      59568.095 
12670000      287  6.9109546e-13      59622.439 
12680000      287  6.8892443e-13      59678.026 
12690000      287  7.2517897e-13      59733.156 
12700000      287  7.3277817e-13      59788.652 
12710000      287  7.3714853e-13      59843.248 
12720000      287  7.3722943e-13      59893.248 
12730000      287  7.4957015e-13       59941.23 
12740000      287  7.6046994e-13      59995.014 
12750000      287  7.3487517e-13      60047.066 
12760000      287  7.2612606e-13      60096.687 
12770000      287  7.1653204e-13      60152.037 
12780000      287  7.0403462e-13      60204.324 
12790000      287  6.8387443e-13      60258.866 
12800000      287  6.8486177e-13      60314.839 
12810000      287  7.0314181e-13      60362.837 
12820000      287  7.1016643e-13       60413.07 
12830000      287  7.2025194e-13      60464.534 
12840000      287  7.2308431e-13      60517.889 
12850000      287  7.2921967e-13      60573.532 
12860000      287  7.4101953e-13      60626.958 
12870000      287  7.2889205e-13       60680.54 
12880000      287  7.3288956e-13      60732.893 
12890000      287  7.2516681e-13      60782.649 
12900000      287  7.2159058e-13      60836.373 
12910000      287  7.1151056e-13      60890.328 
12920000      287  7.0215083e-13      60944.667 
12930000      287  6.8726692e-13      60999.689 
12940000      287  7.1716814e-13      61052.549 
12950000      287  7.3639916e-13      61103.364 
12960000      287  7.6443049e-13       61153.87 
12970000      287  7.6193551e-13      61202.546 
12980000      287  7.5858151e-13      61252.432 
12990000      287   7.504306e-13      61301.262 
13000000      287   7.403143e-13      61355.675 
13010000      287   7.354287e-13       61406.59 
13020000      287  7.3269255e-13      61456.186 
13030000      287  7.2415681e-13      61506.064 
13040000      287  7.1233859e-13      61558.424 
13050000      287  6.9807813e-13      61605.622 
13060000      287  6.8862951e-13      61657.537 
13070000      287  6.9555224e-13      61709.686 
13080000      287  7.0744803e-13      61765.657 
13090000      287  7.1828556e-13      61818.847 
13100000      287  7.2564679e-13      61872.917 
13110000      287  7.4738869e-13      61925.958 
13120000      287   7.332966e-13      61981.117 
13130000      287  7.3430251e-13      62030.558 
13140000      287  7.1855033e-13      62085.172 
13150000      287  7.1789274e-13      62140.451 
13160000      287  7.1467575e-13      62196.465 
13170000      287  6.8552058e-13      62251.957 
13180000      287  6.7783604e-13      62307.289 
13190000      287  6.8303272e-13      62361.625 
13200000      287   6.865962e-13      62421.955 
13210000      287  7.0637055e-13      62472.684 
13220000      287  7.0545012e-13        62528.2 
13230000      287  7.2740864e-13      62581.209 
13240000      287  7.2450672e-13      62629.592 
13250000      287  7.2191677e-13      62682.727 
13260000      287  7.2930933e-13      62734.972 
13270000      287   7.078541e-13      62788.112 
13280000      287  6.9031948e-13       62842.16 
13290000      287  6.9925301e-13      62890.555 
13300000      287  6.7655278e-13      62943.011 
13310000      287  6.7492789e-13      62992.771 
13320000      287   6.819675e-13      63046.124 
13330000      287  6.8339383e-13      63098.184 
13340000      287  6.9960098e-13      63149.721 
13350000      287  7.0251319e-13      63205.131 
13360000      287  7.2707938e-13        63255.5 
13370000      287   7.358022e-13      63304.719 
13380000      287  7.2095177e-13       63359.71 
13390000      287   7.141386e-13      63415.596 
13400000      287  7.1199258e-13      63474.932 
13410000      287  7.0739529e-13       63531.09 
13420000      287   6.888385e-13      63584.757 
13430000      287   6.871457e-13      63632.815 
13440000      287  6.8512155e-13      63681.899 
13450000      287  6.8590271e-13      63727.133 
13460000      287  7.1387554e-13      63776.195 
13470000      287   7.229298e-13      63825.728 
13480000      287  7.2392409e-13      63875.539 
13490000      287  7.4524174e-13      63924.444 
13500000      287  7.3988682e-13      63973.306 
13510000      287  7.3592162e-13      64025.022 
13520000      287  7.2662509e-13      64076.877 
13530000      287  7.2280802e-13      64127.894 
13540000      287  7.1429276e-13       64183.65 
13550000      287  7.0655489e-13      64237.655 
13560000      287  6.9586122e-13      64288.354 
13570000      287  6.9703148e-13       64344.05 
13580000      287  6.9630311e-13      64400.405 
13590000      287   7.011407e-13      64455.604 
[...]
18570000      287  7.0333468e-13       107721.1 
18580000      287  6.9298181e-13      107960.65 
18590000      287  6.8220581e-13      108076.49 
18600000      287  6.7670111e-13      108320.14 
18610000      287  6.8957324e-13      108553.66 
18620000      287    6.96899e-13      108663.32 
18630000      287  7.1414694e-13      108907.67 
18640000      287   7.315843e-13      109145.64 
18650000      287  7.4446857e-13      109268.16 
18660000      287  7.4949872e-13       109509.6 
18670000      287  7.4533528e-13      109745.68 
18680000      287  7.2528757e-13      109870.82 
18690000      287  7.2528618e-13      110119.67 
18700000      287  7.1019949e-13      110362.12 
18710000      287  7.2340596e-13      110518.05 
18720000      287  7.0116302e-13      110768.09 
18730000      287  7.2883772e-13      110946.92 
18740000      287  7.2550022e-13      110996.21 
18750000      287  7.3769275e-13      111045.48 
18760000      287  7.5273937e-13      111094.05 
18770000      287  7.7695301e-13      111146.49 
18780000      287  7.6230267e-13      111195.62 
18790000      287  7.6599508e-13      111245.98 
18800000      287   7.694776e-13      111299.79 
18810000      287  7.5338301e-13       111348.6 
18820000      287  7.5270658e-13      111399.95 
18830000      287  7.2497991e-13      111447.89 
18840000      287  7.1790402e-13      111499.38 
18850000      287  7.1532316e-13      111551.56 
18860000      287  7.2482932e-13      111600.72 
18870000      287  7.3984046e-13      111650.39 
18880000      287  7.5395332e-13      111700.72 
18890000      287  7.5087257e-13      111751.13 
18900000      287   7.763305e-13      111802.37 
18910000      287  7.7935503e-13      111852.08 
18920000      287  7.6771662e-13      111901.09 
18930000      287   7.429098e-13      111951.03 
18940000      287  7.4042802e-13      112005.09 
18950000      287  7.3381746e-13      112054.93 
18960000      287  7.2071415e-13      112102.37 
18970000      287  7.2383603e-13       112153.3 
18980000      287  7.1342458e-13      112202.44 
18990000      287  7.1039191e-13      112250.53 
19000000      287  7.0165144e-13      112303.41 
19010000      287  7.1532133e-13      112354.72 
19020000      287  7.2404328e-13      112405.11 
19030000      287  7.4215353e-13      112457.15 
19040000      287  7.5853476e-13      112509.82 
19050000      287  7.5798801e-13      112560.25 
19060000      287  7.6490853e-13      112606.95 
19070000      287  7.6104854e-13       112650.7 
19080000      287  7.4187076e-13      112704.22 
19090000      287  7.1019381e-13      112756.55 
19100000      287  6.9105871e-13      112808.47 
19110000      287  6.8759689e-13      112859.45 
19120000      287  6.9451091e-13       112906.7 
19130000      287  6.9933356e-13       112956.2 
19140000      287  7.0935399e-13       113005.7 
19150000      287  7.2710198e-13      113052.39 
19160000      287  7.2680661e-13      113101.15 
19170000      287  7.1843333e-13      113151.41 
19180000      287  7.2883603e-13      113198.59 
19190000      287  7.2413009e-13      113249.21 
19200000      287  7.1167694e-13      113301.85 
19210000      287  7.0045882e-13      113352.82 
19220000      287  6.9069958e-13      113403.38 
19230000      287   6.825991e-13      113450.56 
19240000      287   6.796008e-13      113502.01 
19250000      287  6.7756246e-13      113554.32 
19260000      287  6.8042191e-13      113603.46 
19270000      287  7.0475716e-13      113650.94 
19280000      287   7.108277e-13      113700.96 
19290000      287  7.1778627e-13      113751.34 
19300000      287  7.2078796e-13      113799.22 
19310000      287  7.2141067e-13      113846.72 
19320000      287  7.1412327e-13       113895.4 
19330000      287  7.1431903e-13      113944.85 
19340000      287  6.9540969e-13      113992.19 
19350000      287  6.9251498e-13      114037.49 
19360000      287   6.735321e-13       114088.7 
19370000      287  6.7538245e-13      114142.56 
19380000      287  6.7185324e-13      114192.59 
19390000      287  6.7812062e-13      114238.19 
19400000      287  6.9523654e-13      114293.79 
19410000      287  7.1052977e-13      114343.99 
19420000      287   7.122908e-13      114394.05 
19430000      287   7.145961e-13      114443.14 
19440000      287  7.1863494e-13      114493.69 
19450000      287  7.1568984e-13      114544.97 
19460000      287  7.0475688e-13      114593.09 
19470000      287  6.9600167e-13      114642.52 
19480000      287  7.0153749e-13      114692.11 
19490000      287  6.9871491e-13      114741.49 
19500000      287  6.8622093e-13      114794.02 
19510000      287  6.9655318e-13      114844.82 
19520000      287  6.9768511e-13      114897.18 
19530000      287  7.1078576e-13         114948 
19540000      287  7.2599382e-13      114999.31 
19550000      287  7.3065389e-13      115046.67 
19560000      287  7.3828809e-13      115097.34 
19570000      287  7.3302101e-13      115146.71 
19580000      287  7.3452519e-13       115196.5 
19590000      287  7.2288515e-13      115247.05 
19600000      287  7.0917511e-13      115298.94 
19610000      287  7.0757386e-13       115350.7 
19620000      287  6.9077042e-13      115396.67 
19630000      287  6.9987874e-13      115439.35 
19640000      287  6.9457177e-13       115490.2 
19650000      287  6.9437798e-13      115539.17 
19660000      287  7.0671103e-13      115590.37 
19670000      287  7.1969301e-13      115639.95 
19680000      287   7.247398e-13      115690.25 
19690000      287  7.4178599e-13      115741.16 
19700000      287  7.3583425e-13      115792.21 
19710000      287  7.3056294e-13      115839.94 
19720000      287  7.1970761e-13      115889.74 
19730000      287  7.1861875e-13      115941.17 
19740000      287   7.116992e-13      115993.71 
19750000      287  6.9693236e-13      116044.56 
19760000      287  7.0163843e-13      116096.85 
19770000      287  6.9009711e-13      116148.03 
19780000      287   7.012048e-13      116199.17 
19790000      287  7.1209439e-13      116244.67 
19800000      287  7.2419944e-13      116302.97 
19810000      287  7.2366377e-13      116353.78 
19820000      287   7.334933e-13      116405.03 
19830000      287  7.5070572e-13      116456.01 
19840000      287  7.2597397e-13      116507.35 
19850000      287   7.261581e-13      116557.89 
19860000      287  7.2447299e-13      116607.81 
19870000      287  7.1691292e-13      116653.64 
19880000      287  7.1845854e-13      116703.46 
19890000      287  7.3081169e-13      116751.69 
19900000      287  7.1087957e-13       116802.6 
19910000      287  7.2714374e-13      116853.86 
19920000      287  7.3506841e-13      116907.34 
19930000      287  7.5607259e-13      116958.08 
19940000      287  7.5123128e-13      117007.93 
19950000      287  7.6117992e-13       117052.9 
19960000      287  7.5971301e-13      117103.12 
19970000      287  7.6734896e-13      117152.02 
19980000      287  7.5109922e-13      117199.46 
19990000      287  7.5781764e-13      117248.28 
20000000      287   7.396798e-13      117301.85 
20010000      287  7.1715174e-13       117350.8 
20020000      287  7.1301538e-13       117400.9 
20030000      287  7.1331644e-13      117446.78 
20040000      287  7.2244356e-13      117497.44 
20050000      287  7.4212645e-13      117547.72 
20060000      287  7.4248956e-13      117598.55 
20070000      287  7.4792704e-13      117649.35 
20080000      287  7.5653022e-13      117699.61 
20090000      287  7.4079375e-13      117749.38 
20100000      287  7.3501018e-13      117799.85 
20110000      287  7.3430814e-13      117846.27 
20120000      287  7.2516931e-13       117895.6 
20130000      287  6.9931607e-13      117945.94 
20140000      287  6.9963114e-13      117994.35 
20150000      287  6.9958175e-13      118045.53 
20160000      287  7.0472764e-13       118095.1 
20170000      287   7.130474e-13      118146.65 
20180000      287  7.1888941e-13      118195.66 
20190000      287  7.1924297e-13      118241.53 
20200000      287  7.3327484e-13      118293.19 
20210000      287  7.3446047e-13      118341.91 
20220000      287  7.5901674e-13      118391.86 
20230000      287  7.3103888e-13      118442.42 
20240000      287   7.285586e-13       118494.4 
20250000      287  7.2968507e-13      118545.47 
20260000      287  7.1212664e-13      118596.22 
20270000      287  6.9792376e-13      118642.45 
20280000      287  6.8984462e-13      118694.96 
20290000      287  6.9634485e-13      118744.15 
20300000      287  7.0286145e-13      118792.51 
20310000      287  7.1111534e-13      118840.21 
20320000      287  7.1377948e-13      118889.18 
20330000      287   7.244727e-13      118939.95 
20340000      287  7.3774621e-13      118987.78 
20350000      287  7.2386212e-13      119034.17 
20360000      287  7.1377123e-13      119085.78 
20370000      287  7.1140816e-13      119135.78 
20380000      287  7.0684619e-13      119185.41 
20390000      287  7.0115275e-13      119234.75 
20400000      287  6.7160205e-13      119287.63 
20410000      287  6.7149864e-13      119335.26 
20420000      287  6.7939547e-13       119384.8 
20430000      287  6.8876027e-13      119424.23 
20440000      287   6.958588e-13      119473.61 
20450000      287  7.0254462e-13      119521.38 
20460000      287  7.0273285e-13      119570.73 
20470000      287  7.0415935e-13      119621.41 
20480000      287  7.0846134e-13      119670.91 
20490000      287  7.0194317e-13      119720.49 
20500000      287  7.0446043e-13      119770.29 
20510000      287  7.1744756e-13       119815.8 
20520000      287  6.9936657e-13      119863.51 
20530000      287  6.9671639e-13       119910.6 
20540000      287  6.6868382e-13      119960.23 
20550000      287  6.8545226e-13      120009.75 
20560000      287  6.8193748e-13      120058.77 
20570000      287  6.9151527e-13      120107.25 
20580000      287  6.9700388e-13      120156.06 
20590000      287   7.099906e-13      120201.52 
20600000      287  6.9467401e-13      120254.85 
20610000      287  7.0669012e-13      120304.66 
20620000      287  7.1340898e-13      120353.53 
20630000      287   7.237495e-13      120402.78 
20640000      287  7.2029191e-13      120453.19 
20650000      287  7.1235118e-13       120501.9 
20660000      287  7.0842839e-13      120554.41 
20670000      287  6.9827863e-13       120601.9 
20680000      287  6.7897768e-13      120651.21 
20690000      287  6.9054723e-13       120701.3 
20700000      287  6.9963551e-13      120752.28 
20710000      287  7.1038416e-13      120802.48 
20720000      287  7.2380913e-13      120848.31 
20730000      287  7.3507949e-13      120900.12 
20740000      287   7.284872e-13      120949.34 
20750000      287  7.4522524e-13      120994.25 
20760000      287  7.4107049e-13      121043.11 
20770000      287  7.3074571e-13      121091.86 
20780000      287  7.2001076e-13      121138.43 
20790000      287  7.2504613e-13      121184.97 
20800000      287  6.9751342e-13      121236.51 
20810000      287  6.9653577e-13      121286.02 
20820000      287  7.1307294e-13      121335.49 
20830000      287  7.1421171e-13      121380.34 
20840000      287  7.1434024e-13       121428.1 
20850000      287   7.383207e-13      121475.33 
20860000      287  7.5971101e-13      121523.91 
20870000      287  7.6723131e-13      121573.58 
20880000      287  7.8093546e-13      121624.26 
20890000      287  8.3538284e-13         121673 
20900000      287  7.7749957e-13      121721.23 
20910000      287  7.4906507e-13      121769.57 
20920000      287  7.3842651e-13       121819.1 
20930000      287  7.1363707e-13      121871.67 
20940000      287  7.3170869e-13      121922.16 
20950000      287      7.471e-13      121971.22 
20960000      287  7.7168286e-13      122020.77 
20970000      287  7.8254469e-13      122070.71 
20980000      287  7.9634296e-13      122119.05 
20990000      287  7.8255555e-13      122162.91 
21000000      287  7.8628959e-13      122217.12 
21010000      287  7.6993959e-13      122266.61 
21020000      287   7.581668e-13       122317.7 
21030000      287  7.5629655e-13       122366.4 
21040000      287  7.2580252e-13      122414.05 
21050000      287  7.6673297e-13      122461.12 
21060000      287  7.3453405e-13      122510.33 
21070000      287  7.4777613e-13      122559.56 
21080000      287  7.5890682e-13      122605.88 
21090000      287  7.7893956e-13      122655.79 
21100000      287   7.823864e-13      122706.85 
21110000      287  7.7916544e-13         122757 
21120000      287  7.7579259e-13      122807.53 
21130000      287  7.6996851e-13      122856.98 
21140000      287  7.6772079e-13      122908.71 
21150000      287  7.4463303e-13      122958.89 
21160000      287  7.2527718e-13      123005.96 
21170000      287  6.9938693e-13       123053.8 
21180000      287  7.0582228e-13      123103.02 
21190000      287  7.0970469e-13      123150.57 
21200000      287  7.2069886e-13      123204.61 
21210000      287  7.2970579e-13       123254.7 
21220000      287  7.3195783e-13      123303.21 
21230000      287  7.3448569e-13      123354.37 
21240000      287  7.4235634e-13      123400.65 
21250000      287  7.4556693e-13      123452.16 
21260000      287  7.3397496e-13      123503.65 
21270000      287  7.3469374e-13      123552.38 
21280000      287  7.1419109e-13      123602.95 
21290000      287  6.9635449e-13      123653.33 
21300000      287  6.8558027e-13      123703.65 
21310000      287  6.8938522e-13      123755.06 
21320000      287  6.9717635e-13      123800.51 
21330000      287  6.9943856e-13      123851.26 
21340000      287   7.116424e-13      123900.79 
21350000      287    7.18653e-13      123951.71 
21360000      287  7.2231864e-13      123998.83 
21370000      287  7.3395504e-13      124045.55 
21380000      287     7.2982e-13      124095.16 
21390000      287  7.2187608e-13      124145.21 
21400000      287  7.1467412e-13      124196.48 
21410000      287  7.2629634e-13      124244.84 
21420000      287  7.1705307e-13         124298 
21430000      287  6.9369807e-13      124347.76 
21440000      287  6.8090504e-13      124396.25 
21450000      287  6.9051871e-13       124447.6 
21460000      287  7.0427644e-13       124496.3 
21470000      287  7.0259831e-13      124545.86 
21480000      287   7.054582e-13       124590.6 
21490000      287   7.220387e-13      124641.42 
21500000      287  7.1578787e-13      124695.25 
21510000      287  7.1390767e-13      124744.64 
21520000      287  7.1024514e-13      124795.25 
21530000      287  7.1752473e-13      124843.89 
21540000      287   7.177433e-13       124895.7 
21550000      287  7.0822433e-13      124948.32 
21560000      287  7.1437594e-13      124996.62 
21570000      287  7.0341987e-13      125048.39 
21580000      287  6.9005444e-13       125098.8 
21590000      287   6.892067e-13      125149.03 
21600000      287  7.0332009e-13      125203.61 
21610000      287  7.1356112e-13      125255.58 
21620000      287  1.1627868e-12      125304.04 
21630000      285  7.9861089e-13      126940.62 
21640000      284  3.7370902e-12      127306.72 
21650000      284   5.641548e-12      127380.86 
21660000      284  1.7881994e-12      127456.95 
21670000      284  7.0411102e-13      127506.74 
21680000      284  7.1745515e-13      127558.19 
21690000      284    7.26766e-13      127608.38 
21700000      284   7.097453e-13      127658.02 
21710000      284  7.5331544e-13      127707.23 
21720000      284  7.8466324e-13      127756.65 
21730000      284  7.3885609e-13      127807.92 
21740000      284  1.0507004e-12      127858.89 
21750000      284  1.6587641e-12      127915.04 
21760000      284  2.6202985e-12      127979.78 
21770000      284  3.9788297e-12      128053.82 
21780000      284  1.1418753e-12      128126.34 
21790000      284  7.4373377e-13      128177.51 
21800000      284  7.4410935e-13      128232.68 
21810000      284  7.1601495e-13         128289 
21820000      284  7.2791585e-13      128341.37 
21830000      284  7.1012309e-13      128394.45 
21840000      284  7.1148991e-13       128446.8 
21850000      284  7.2271616e-13       128493.5 
21860000      284  7.3258857e-13      128543.58 
21870000      284  7.3389797e-13      128595.58 
21880000      284  7.5127528e-13      128645.54 
21890000      284   7.571249e-13      128694.87 
21900000      284  7.6626875e-13      128744.55 
21910000      284  7.5880549e-13      128795.36 
21920000      284  8.0008139e-13      128844.68 
21930000      284  7.3523961e-13      128891.91 
21940000      284  9.2210681e-13      128938.76 
21950000      284  1.0111531e-12      128993.12 
21960000      284  7.1240549e-13      129044.04 
21970000      284   7.246828e-13      129095.56 
21980000      284   7.277916e-13      129144.81 
21990000      284  7.4112712e-13      129195.13 
22000000      284  7.3950281e-13      129249.59 
22010000      284  7.5570288e-13      129300.98 
22020000      284  7.5941506e-13      129349.43 
22030000      284  7.7610091e-13      129399.96 
22040000      284  7.6778818e-13      129444.98 
22050000      284  7.6124385e-13      129496.19 
22060000      284  7.5478993e-13      129545.54 
22070000      284  7.1294779e-13      129594.77 
22080000      284  7.1407925e-13       129643.1 
22090000      284  7.1679036e-13       129692.8 
22100000      284  7.1384749e-13      129743.35 
22110000      284  7.3073036e-13       129794.4 
22120000      284  7.4499683e-13      129843.41 
22130000      284  7.4805007e-13      129895.16 
22140000      284   7.510251e-13      129946.25 
22150000      284  7.5671888e-13      129996.25 
22160000      284  7.5462622e-13      130045.79 
22170000      284  7.4430085e-13      130097.45 
22180000      284  7.3246471e-13      130148.31 
22190000      284  7.0794961e-13      130197.56 
22200000      284  6.9486672e-13      130251.77 
22210000      284  6.9295662e-13      130298.96 
22220000      284  7.1455283e-13      130345.45 
22230000      284  7.2181832e-13      130395.37 
22240000      284  7.2010572e-13      130444.92 
22250000      284  7.2116816e-13      130495.47 
22260000      284  7.2591491e-13      130543.95 
22270000      284  7.2186233e-13      130590.39 
22280000      284  7.3890158e-13      130638.59 
22290000      284   7.238878e-13      130683.02 
22300000      284  7.2268339e-13      130729.61 
22310000      284  7.0956654e-13      130778.65 
22320000      284  6.8630993e-13      130825.08 
22330000      284  6.7848564e-13      130866.91 
22340000      284  6.8303773e-13      130914.87 
22350000      284  6.9725721e-13      130962.84 
22360000      284  6.9858177e-13      131005.21 
22370000      284  7.1717898e-13       131050.3 
22380000      284  7.1726187e-13      131095.86 
22390000      284  7.2101689e-13      131144.15 
22400000      284  7.2600917e-13      131194.67 
22410000      284  7.3368686e-13       131239.6 
22420000      284  7.0610656e-13      131283.91 
22430000      284  7.0288741e-13      131331.63 
22440000      284  6.9877544e-13      131377.59 
22450000      284  6.9488922e-13      131420.15 
22460000      284  6.8106696e-13      131468.12 
22470000      284   7.034717e-13      131512.91 
22480000      284  8.4356144e-13       131558.4 
22490000      284  7.4661409e-13      131603.45 
22500000      284  7.3975045e-13      131650.49 
22510000      284  7.5566966e-13      131698.28 
22520000      284  7.8026621e-13      131746.84 
22530000      284  7.3285027e-13      131790.36 
22540000      284  7.1838003e-13       131837.3 
22550000      284  7.1672963e-13      131883.87 
22560000      284  7.3320907e-13      131930.97 
22570000      284  8.1221168e-13      131976.51 
22580000      284  7.8340422e-13      132021.51 
22590000      284  8.1784189e-13      132069.34 
22600000      284  7.5258815e-13      132118.34 
22610000      284  1.4994204e-12      132167.49 
22620000      284  2.3772024e-12      132215.97 
22630000      284   2.310647e-12      132262.27 
22640000      284  4.4066271e-12      132325.48 
2265000