ITEM: TIMESTEP
21000000
ITEM: NUMBER OF ATOMS
118
ITEM: BOX BOUNDS ff ff ff
-0.02 0.43
-0.02 0.06
-0.02 0.1
ITEM: ATOMS id type x y z vx vy vz fx fy fz radius mass 
1 1 0.0440611 0.0155682 0.0139728 0.00118022 0.0100897 0.0162775 -5.15953e-08 1.15313e-08 3.80065e-08 0.0005 1.46608e-07 
4 1 0.0347267 0.021531 0.00796792 0.00155887 -0.0107241 -0.0069994 -8.61964e-07 7.50166e-07 3.90075e-06 0.0005 1.46608e-07 
6 1 0.0349051 0.0221076 0.00843479 0.00134652 -0.0100833 -0.00997913 2.35382e-06 8.55032e-07 -6.07639e-07 0.0005 1.46608e-07 
12 1 0.0281483 0.0190272 0.0071843 0.00161973 -0.0229544 0.000260495 -1.61586e-08 -1.81789e-09 -1.88129e-08 0.0005 1.46608e-07 
13 1 0.0300847 0.0230184 0.0131427 8.90845e-05 0.0117496 -0.024551 6.32036e-10 -1.54273e-08 -9.53304e-09 0.0005 1.46608e-07 
15 1 0.0478036 0.0232404 0.0121645 0.000110099 0.00539375 -0.0259186 1.21043e-11 -1.58448e-08 -8.63236e-09 0.0005 1.46608e-07 
16 1 0.0199749 0.0147833 0.0154185 -0.0795992 0.0393798 0.411311 0 0 -1.43822e-06 0.0005 1.46608e-07 
17 1 0.0231863 0.0228029 0.00937494 0.00454987 -0.00726842 -0.00760247 7.83285e-07 -4.24293e-06 -3.04991e-06 0.0005 1.46608e-07 
18 1 0.0389556 0.0163742 0.00669954 2.97402e-15 -2.69563e-14 -6.8927e-14 2.55433e-21 5.29396e-22 0 0.0005 1.46608e-07 
19 1 0.0330978 0.0185299 0.00586239 -9.37323e-16 -9.43293e-15 -2.8057e-14 -2.42629e-19 5.18278e-20 -1.07997e-20 0.0005 1.46608e-07 
21 1 0.0378232 0.016331 0.0148057 0.000231722 0.0172925 0.0157471 1.52152e-08 -1.71523e-07 -2.49514e-07 0.0005 1.46608e-07 
25 1 0.0454213 0.0161485 0.00837758 0.00531906 -0.0056133 0.00532069 2.57367e-06 -1.79196e-07 -1.5828e-06 0.0005 1.46608e-07 
26 1 0.0265709 0.0147661 0.0118673 0.00147993 0.00055006 0.0166009 -1.80298e-08 6.37791e-08 9.2657e-08 0.0005 1.46608e-07 
28 1 0.0453571 0.0158147 0.0088751 0.00837324 -0.00366616 -0.0101395 -5.79094e-07 -6.97096e-08 1.64494e-06 0.0005 1.46608e-07 
31 1 0.0459902 0.0140798 0.0125429 0.0467686 -0.0107186 -0.0693573 0 0 -1.43822e-06 0.0005 1.46608e-07 
32 1 0.0395347 0.0164594 0.00803254 0.00390805 -0.00832768 0.00590829 -6.30876e-05 -1.32686e-05 1.25469e-05 0.0005 1.46608e-07 
33 1 0.0174486 0.0231756 0.0105576 0.00148813 -0.00198494 -0.0105352 2.6774e-09 2.1529e-08 1.74274e-08 0.0005 1.46608e-07 
35 1 0.0165201 0.019817 0.00593552 1.30231e-14 5.25892e-15 -1.07337e-13 -6.53804e-21 3.07711e-20 6.35275e-22 0.0005 1.46608e-07 
36 1 0.0662017 0.0188213 0.00577467 3.56893e-16 -7.87797e-16 -1.33874e-14 -6.14592e-19 -1.79995e-19 2.96462e-21 0.0005 1.46608e-07 
40 1 0.0375422 0.0175526 0.0154597 0.000557529 0.0227562 0.00797405 -3.03307e-09 1.47482e-08 -1.10628e-08 0.0005 1.46608e-07 
41 1 0.0310873 0.0193767 0.0158045 0.00123401 0.019555 -0.0025403 -7.53476e-09 2.61821e-08 -1.40979e-08 0.0005 1.46608e-07 
42 1 0.0465244 0.0204734 0.00750569 -0.000151319 -0.0239219 -0.0101586 2.47617e-09 -1.28738e-08 1.23334e-08 0.0005 1.46608e-07 
49 1 0.03224 0.0152249 0.0134031 -3.24906e-05 0.0108926 0.0247892 -2.47548e-09 1.69263e-08 -1.73898e-09 0.0005 1.46608e-07 
51 1 0.0438934 0.0160909 0.0146273 0.00095582 0.0152671 0.014279 6.42087e-08 5.3009e-08 4.83457e-09 0.0005 1.46608e-07 
52 1 0.0422006 0.0228189 0.0135919 0.00147514 0.0119726 -0.0189847 2.09388e-08 -1.72454e-07 2.09934e-07 0.0005 1.46608e-07 
53 1 0.0494472 0.0184151 0.00609738 -4.20559e-15 -1.50452e-14 -2.25948e-13 -4.81419e-21 5.01602e-21 -2.11758e-22 0.0005 1.46608e-07 
54 1 0.0368111 0.0206207 0.0154239 0.00106678 0.0156195 -0.00613748 2.86775e-09 -9.36556e-09 -2.66072e-09 0.0005 1.46608e-07 
56 1 0.119071 0.0203608 0.0059107 1.094e-15 2.46955e-14 -1.19876e-13 6.46855e-22 0 0 0.0005 1.46608e-07 
62 1 0.0252612 0.0180948 0.00607594 -2.55396e-14 -5.37535e-14 -1.75225e-13 1.01734e-18 -4.38922e-19 -9.31736e-21 0.0005 1.46608e-07 
65 1 0.0173426 0.0240399 0.0133566 -0.00356195 0.0685258 -0.151493 0 0 -1.43822e-06 0.0005 1.46608e-07 
66 1 0.0444579 0.0149137 0.0125796 0.00108444 0.0048983 0.0180774 6.33208e-08 3.66387e-07 4.47287e-07 0.0005 1.46608e-07 
68 1 0.0381478 0.015378 0.0136939 0.00186274 0.00966764 0.0151581 1.35037e-06 -3.98766e-06 -4.02079e-06 0.0005 1.46608e-07 
71 1 0.0976912 0.0174781 0.00629452 -1.91041e-15 -7.30173e-14 -2.20718e-13 -3.23643e-20 3.97047e-21 -8.47033e-22 0.0005 1.46608e-07 
74 1 0.0285547 0.020524 0.00747696 0.000242144 -0.0234851 -0.00866288 -3.70967e-09 -1.7331e-08 8.8588e-09 0.0005 1.46608e-07 
75 1 0.0236007 0.0234013 0.011194 0.00128054 -0.000756887 -0.0213143 -2.58478e-09 -1.80911e-08 -1.07669e-09 0.0005 1.46608e-07 
77 1 0.0400639 0.0185793 0.00718861 0.00136231 -0.0141599 0.000713532 2.0703e-11 5.88878e-08 -2.8293e-09 0.0005 1.46608e-07 
78 1 0.0328788 0.0148807 0.0104641 0.000578469 -0.00538632 0.0235261 -4.63379e-09 1.03732e-08 1.55867e-08 0.0005 1.46608e-07 
79 1 0.0251393 0.0195864 0.0159103 3.3465e-06 0.0239051 -0.00289606 2.93743e-08 -5.69215e-08 -1.20017e-08 0.0005 1.46608e-07 
80 1 0.0333432 0.0157706 0.00874184 0.000219119 -0.0167141 0.0194936 -1.39854e-09 2.70506e-09 2.07642e-08 0.0005 1.46608e-07 
82 1 0.0188996 0.0208013 0.0155911 -0.00320852 0.061432 0.00986064 -1.31699e-06 6.62221e-06 -4.79048e-05 0.0005 1.46608e-07 
84 1 0.0410735 0.0225907 0.0090163 0.000595765 -0.0133465 -0.0196338 2.62443e-08 1.42192e-07 2.89029e-07 0.0005 1.46608e-07 
89 1 0.0359698 0.0172882 0.00618836 -1.40334e-16 -1.89312e-15 -5.63144e-15 -4.33906e-20 2.43522e-21 -1.05879e-21 0.0005 1.46608e-07 
90 1 0.0377206 0.017749 0.00610856 9.55696e-16 -8.55635e-15 -2.18614e-14 -1.07864e-21 1.03762e-20 -4.65868e-21 0.0005 1.46608e-07 
91 1 0.0447899 0.0195866 0.0182594 2.33613e-15 -1.50118e-15 -4.87691e-14 1.6676e-21 3.92414e-21 0 0.0005 1.46608e-07 
93 1 0.0290514 0.0225112 0.00886527 0.000620421 -0.0142865 -0.0181778 -3.22022e-09 -1.97906e-08 -3.15211e-09 0.0005 1.46608e-07 
98 1 0.0223925 0.0211563 0.00631103 1.8062e-15 1.16945e-14 -2.40917e-14 3.6793e-21 0 2.11758e-22 0.0005 1.46608e-07 
102 1 0.0467434 0.0213325 0.00788137 0.000491741 -0.0198229 -0.0114583 -1.10627e-09 -1.27544e-08 7.6313e-09 0.0005 1.46608e-07 
106 1 0.029687 0.023381 0.0116361 0.0003972 0.00104324 -0.0247098 -6.01613e-11 -1.39759e-08 -1.07493e-08 0.0005 1.46608e-07 
107 1 0.040686 0.018503 0.00594174 9.42981e-16 -8.55055e-15 -2.18642e-14 -4.22193e-21 -7.41154e-22 2.11758e-22 0.0005 1.46608e-07 
108 1 0.0475426 0.0233514 0.0109175 0.00150449 -0.00326696 -0.0179467 -9.88061e-09 -2.44952e-08 -2.54453e-08 0.0005 1.46608e-07 
110 1 0.0437344 0.0168048 0.0151071 0.000328902 0.0206395 0.0123402 -4.3776e-08 -3.1735e-08 -2.46504e-08 0.0005 1.46608e-07 
114 1 0.029434 0.0232025 0.0102486 0.000506786 -0.00690634 -0.0229122 -3.02147e-09 -1.76495e-08 -1.3048e-08 0.0005 1.46608e-07 
116 1 0.0127674 0.0183091 0.00588303 -2.83884e-15 6.27323e-18 -3.14912e-14 4.88367e-20 1.70227e-19 -1.48231e-21 0.0005 1.46608e-07 
119 1 0.0314473 0.0191334 0.00568594 -1.88668e-14 1.66811e-16 -2.21323e-13 2.38228e-21 1.98377e-19 0 0.0005 1.46608e-07 
121 1 0.0879807 0.0206636 0.00600115 -1.56787e-14 -2.86179e-14 1.89151e-13 4.14252e-20 8.86738e-21 5.71747e-21 0.0005 1.46608e-07 
122 1 0.0420076 0.0187879 0.00579333 -4.49954e-15 1.30516e-14 7.16619e-14 3.79974e-20 0 3.17637e-21 0.0005 1.46608e-07 
123 1 0.0337604 0.0171375 0.00765986 0.00162323 -0.0221775 0.00875675 8.23446e-10 1.54761e-08 5.16452e-08 0.0005 1.46608e-07 
125 1 0.0468914 0.0220285 0.00836322 0.00138489 -0.0118936 -0.01289 1.42102e-10 -4.53294e-09 2.36389e-08 0.0005 1.46608e-07 
128 1 0.0346455 0.00899128 0.0435188 9.7006e-317 -9.75154e-317 -8.23806e-13 0 0 0 0.0005 1.46608e-07 
133 1 0.0373966 0.0197554 0.00594148 -8.54761e-15 2.90443e-14 -1.33832e-13 -6.0457e-20 1.16467e-21 1.69407e-21 0.0005 1.46608e-07 
134 1 0.0220736 0.0186175 0.0072315 0.000333219 -0.0238334 0.00277854 -2.51646e-09 -9.51672e-09 1.50765e-08 0.0005 1.46608e-07 
136 1 0.0270753 0.0191463 0.00600101 1.09626e-14 1.77299e-15 -1.78715e-13 1.68083e-21 -1.37825e-20 -2.11758e-22 0.0005 1.46608e-07 
137 1 0.0408182 0.0217663 0.00815182 6.80602e-05 -0.0161678 -0.0132683 2.59797e-08 -2.67836e-07 -1.24191e-07 0.0005 1.46608e-07 
139 1 0.048096 0.0228654 0.0132958 0.000577828 0.0093147 -0.021516 -5.56461e-09 -7.90719e-09 -2.00788e-08 0.0005 1.46608e-07 
141 1 0.0849179 0.0182538 0.00577769 -4.41917e-16 1.50248e-14 5.18903e-14 -3.32146e-20 1.21232e-20 -3.81165e-21 0.0005 1.46608e-07 
142 1 0.0430532 0.0195119 0.0157736 0.000193541 0.0239809 -0.00301196 -9.49378e-10 1.04782e-08 -1.59003e-08 0.0005 1.46608e-07 
146 1 0.0397442 0.0170707 0.00768644 0.00391961 -0.0125549 0.00661375 7.48115e-05 8.9056e-06 -2.55366e-05 0.0005 1.46608e-07 
148 1 0.0276717 0.0215925 0.00627054 -6.09576e-16 -6.60799e-14 1.52177e-13 -1.77182e-21 0 -2.11758e-22 0.0005 1.46608e-07 
152 1 0.0341335 0.019268 0.00579914 9.3862e-16 5.06314e-15 -1.96335e-14 -2.24993e-22 0 0 0.0005 1.46608e-07 
154 1 0.0181238 0.0233645 0.0110816 -3.78685e-05 0.00111247 -0.00677865 -8.84436e-09 8.30051e-08 1.74913e-07 0.0005 1.46608e-07 
155 1 0.0249242 0.0205717 0.0156762 0.0045958 0.00412654 -0.0018369 4.73447e-08 -6.06052e-08 1.81837e-09 0.0005 1.46608e-07 
156 1 0.0357793 0.0213725 0.0435188 -9.69384e-317 9.51613e-317 -3.87031e-13 0 0 0 0.0005 1.46608e-07 
157 1 0.0385239 0.0184863 0.00585491 9.4486e-16 -8.55012e-15 -2.18643e-14 4.76456e-22 0 0 0.0005 1.46608e-07 
159 1 0.030638 0.021318 0.0151569 -4.55032e-05 0.0215507 -0.012766 5.70363e-09 6.42561e-08 -5.78013e-08 0.0005 1.46608e-07 
162 1 0.0419135 0.0232472 0.012591 0.000599654 0.00646224 -0.0236577 -1.44262e-09 -1.13502e-08 -1.20614e-08 0.0005 1.46608e-07 
163 1 0.0540291 0.0190025 0.00594807 -7.72162e-15 -1.92452e-14 -2.54265e-13 0 -4.76456e-22 0 0.0005 1.46608e-07 
171 1 0.0403892 0.0171846 0.00644451 9.50325e-16 -8.55254e-15 -2.18631e-14 -4.53957e-21 -2.32934e-21 8.47033e-22 0.0005 1.46608e-07 
172 1 0.0316873 0.0170144 0.0152864 0.000720182 0.0177293 0.0112947 -1.44499e-08 -1.61542e-08 -2.65095e-08 0.0005 1.46608e-07 
174 1 0.0191887 0.0234835 0.0118244 3.48805e-07 0.000231949 -0.000306398 6.9861e-12 1.03436e-08 -1.48546e-08 0.0005 1.46608e-07 
176 1 0.0433007 0.0182709 0.0157564 0.000887318 0.0220496 0.00604103 6.94537e-09 -1.37738e-08 -3.48023e-08 0.0005 1.46608e-07 
178 1 0.0241284 0.0222448 0.0145759 0.000303299 0.00355462 -0.00270893 -1.5467e-08 -1.10554e-08 -7.14275e-09 0.0005 1.46608e-07 
182 1 0.0515322 0.0169971 0.00873019 0.000556783 0.0152916 -0.0113682 -2.87836e-08 8.12233e-08 -1.26336e-07 0.0005 1.46608e-07 
185 1 0.0349776 0.0186145 0.00577417 4.51268e-15 4.76418e-14 1.41759e-13 6.23363e-21 -3.17637e-22 0 0.0005 1.46608e-07 
192 1 0.0246549 0.0214383 0.0152561 0.00181546 0.00321431 -0.00193347 1.28007e-09 -5.96276e-09 -7.39915e-10 0.0005 1.46608e-07 
196 1 0.0390169 0.0150116 0.0100128 0.00107439 -0.00774361 0.0181177 5.2384e-09 2.02269e-08 2.75783e-09 0.0005 1.46608e-07 
197 1 0.0206497 0.0146431 0.0118774 0.0207073 -0.0142244 0.0460027 0.000190277 -9.26627e-05 -8.13479e-05 0.0005 1.46608e-07 
198 1 0.0196681 0.0221651 0.0161904 -0.00356739 -0.182762 0.139194 0 0 -1.43822e-06 0.0005 1.46608e-07 
202 1 0.0340805 0.0185774 0.00730975 -0.00123739 -0.0284059 -0.00199928 -5.65979e-09 3.32507e-09 6.08469e-09 0.0005 1.46608e-07 
204 1 0.0455546 0.0165218 0.00811745 0.00528955 -0.0113213 0.00577655 1.32473e-07 -2.08044e-06 1.7175e-07 0.0005 1.46608e-07 
206 1 0.0427252 0.021057 0.0153336 0.00530417 0.0101728 -0.0095478 -2.99301e-05 0.000108712 -5.24514e-05 0.0005 1.46608e-07 
208 1 0.0218065 0.0172025 0.00757893 -0.000648879 -0.0170066 0.00594774 3.33863e-08 -1.4685e-08 7.42287e-09 0.0005 1.46608e-07 
212 1 0.0413361 0.0230451 0.00987028 0.000357991 -0.00937088 -0.02321 -1.80765e-09 -1.76925e-08 -4.10036e-09 0.0005 1.46608e-07 
214 1 0.0137523 0.0191876 0.00580989 4.3174e-15 -1.45604e-15 5.00233e-14 -2.07973e-19 -1.78337e-18 -8.68209e-21 0.0005 1.46608e-07 
217 1 0.0326102 0.0147541 0.0116491 0.000483034 -0.000413391 0.0170674 -7.25192e-10 9.90374e-09 -2.296e-08 0.0005 1.46608e-07 
224 1 0.022747 0.014604 0.0180385 -0.204652 -0.0776582 -0.170419 0 0 -1.43822e-06 0.0005 1.46608e-07 
225 1 0.195963 0.0175857 0.0083785 -5.80984e-05 0.0144774 -0.00695966 6.53259e-10 -1.07187e-07 -1.81364e-09 0.0005 1.46608e-07 
229 1 0.026916 0.014874 0.0104417 0.00080903 -0.00805458 0.0233209 2.00083e-08 2.70758e-08 -1.07229e-07 0.0005 1.46608e-07 
230 1 0.0280286 0.0204018 0.00597839 -2.17635e-14 2.07082e-16 -2.55302e-13 0 -6.03635e-22 0 0.0005 1.46608e-07 
232 1 0.0363486 0.0221146 0.0144828 7.56101e-05 0.0194236 -0.0178033 3.12626e-10 -7.49418e-09 -1.60764e-08 0.0005 1.46608e-07 
239 1 0.0229082 0.0221341 0.00863796 0.00658638 0.0116426 0.00489776 1.31309e-07 5.9579e-07 6.14449e-07 0.0005 1.46608e-07 
240 1 0.0287754 0.0215631 0.00794354 0.00169359 -0.00840215 -0.00692216 -3.05446e-08 -3.0681e-08 2.86276e-08 0.0005 1.46608e-07 
244 1 0.0198566 0.0203345 0.0157566 1.95262e-09 0.0231271 -0.0068332 2.0826e-12 -5.22104e-09 -1.81218e-08 0.0005 1.46608e-07 
248 1 0.00296456 0.0113601 0.0435188 -9.73893e-317 -9.68349e-317 2.45201e-12 0 0 0 0.0005 1.46608e-07 
249 1 0.0288114 0.0193152 0.00591078 1.82091e-14 -1.7257e-16 2.13611e-13 2.64698e-23 5.93854e-21 0 0.0005 1.46608e-07 
256 1 0.030285 0.0191572 0.00578504 -7.86009e-15 4.75567e-17 -9.22016e-14 3.17637e-22 6.70204e-20 0 0.0005 1.46608e-07 
258 1 0.0457867 0.0173886 0.0076128 0.000135816 -0.0240249 0.00949311 -8.22374e-10 1.25769e-10 1.77206e-08 0.0005 1.46608e-07 
260 1 0.0352224 0.0227816 0.00951087 0.0023023 -0.0105988 -0.0169973 -2.70801e-08 -3.60433e-08 -5.97785e-08 0.0005 1.46608e-07 
261 1 0.0393344 0.0158866 0.00862382 0.00077067 -0.0142196 0.0167834 5.13566e-06 8.12277e-06 -1.55391e-05 0.0005 1.46608e-07 
263 1 0.0369306 0.0186778 0.00573872 -5.19176e-17 -1.41156e-14 6.66295e-14 -2.36905e-19 -1.07838e-19 -6.98802e-21 0.0005 1.46608e-07 
265 1 0.0378661 0.0168241 0.00646873 6.12413e-15 -3.8246e-14 -1.01641e-13 3.49401e-21 -5.29396e-23 2.11758e-22 0.0005 1.46608e-07 
266 1 0.0217328 0.0204968 0.00595047 -1.22315e-14 5.48634e-15 -1.11946e-13 -2.11758e-22 7.80858e-22 0 0.0005 1.46608e-07 
267 1 0.0360441 0.0249743 0.0435188 -9.68005e-317 -9.73691e-317 2.01523e-12 0 0 0 0.0005 1.46608e-07 
271 1 0.0275975 0.0166035 0.00794746 0.00136572 -0.0182134 0.0134949 -1.65867e-08 -2.41661e-08 2.53439e-08 0.0005 1.46608e-07 
275 1 0.0748406 0.0197444 0.00579981 5.82566e-15 3.17495e-14 -1.28217e-13 1.72212e-19 1.51407e-20 7.19978e-21 0.0005 1.46608e-07 
281 1 0.026114 0.0198481 0.00594898 9.38583e-16 1.49068e-16 -1.5292e-14 4.63221e-22 -1.23912e-21 0 0.0005 1.46608e-07 
290 1 0.00758099 0.0189521 0.00570394 9.81342e-16 5.15488e-17 -9.75974e-15 2.46434e-20 -3.64323e-20 2.11758e-21 0.0005 1.46608e-07 
295 1 0.0319246 0.0159799 0.0144815 0.00143861 0.0166194 0.0179331 -2.545e-08 2.21956e-09 9.19661e-09 0.0005 1.46608e-07 
296 1 0.0206201 0.0197459 0.00603524 -1.51902e-14 6.81227e-15 -1.39019e-13 0 0 0 0.0005 1.46608e-07 
