ITEM: TIMESTEP
3000000
ITEM: NUMBER OF ATOMS
285
ITEM: BOX BOUNDS ff ff ff
-0.02 0.43
-0.02 0.06
-0.02 0.1
ITEM: ATOMS id type x y z vx vy vz fx fy fz radius mass 
1 1 0.0247544 0.016548 0.0151693 0.00104914 0.00311933 0.00174759 -3.28201e-08 -1.69896e-09 2.07359e-08 0.0005 1.46608e-07 
2 1 0.0236879 0.0178826 0.0157904 -9.52389e-06 0.023227 0.00647293 -7.39571e-09 -5.29558e-08 -3.09823e-08 0.0005 1.46608e-07 
3 1 0.0363515 0.0166923 0.0472073 0.30537 -0.180152 0.897723 0 0 -1.43822e-06 0.0005 1.46608e-07 
4 1 0.017326 0.0151487 0.0136539 0.00203118 0.00184571 0.00661217 -4.63611e-08 -3.63029e-07 -5.28804e-07 0.0005 1.46608e-07 
5 1 0.0237496 0.0168929 0.0154023 0.00166332 0.0112641 0.00679284 -6.2897e-08 7.44854e-08 -2.64679e-08 0.0005 1.46608e-07 
6 1 0.0192325 0.0191452 0.007187 0.000625066 -0.0171827 -0.00120582 8.65546e-09 2.76383e-09 -1.6309e-09 0.0005 1.46608e-07 
7 1 0.0225614 0.0182328 0.0158931 -0.00244838 0.00283482 -0.00475918 0 0 -1.43822e-06 0.0005 1.46608e-07 
8 1 0.024491 0.0221463 0.0157405 -4.56701e-05 0.000214524 0.000148552 1.51547e-07 -5.78676e-07 4.86585e-07 0.0005 1.46608e-07 
9 1 0.021314 0.0240239 0.0130669 -0.000165297 0.00156362 -0.000838745 -1.89261e-08 -9.50306e-08 -6.50484e-08 0.0005 1.46608e-07 
10 1 0.0195608 0.0234735 0.0168442 0.00215322 0.00327184 0.00390377 0 0 -1.43822e-06 0.0005 1.46608e-07 
11 1 0.0178252 0.0147751 0.0110358 -0.000288224 -0.0048852 0.027337 -4.97998e-09 1.37137e-08 1.85784e-08 0.0005 1.46608e-07 
12 1 0.0212108 0.0148824 0.0146878 -0.00314073 -0.0155857 -0.0193607 1.21272e-07 6.082e-08 -9.26058e-07 0.0005 1.46608e-07 
13 1 0.0230752 0.0227944 0.017616 -0.00125551 -0.0327457 -0.0241622 0 0 -1.43822e-06 0.0005 1.46608e-07 
15 1 0.0260678 0.022347 0.00877344 0.000517734 -0.011954 -0.0155888 -1.27486e-08 -1.62377e-08 1.58224e-08 0.0005 1.46608e-07 
16 1 0.0162392 0.0143328 0.0139018 0.00325044 -0.00264106 0.000292631 1.4132e-09 4.74779e-08 -5.40681e-08 0.0005 1.46608e-07 
17 1 0.0258606 0.0197659 0.0167916 9.70591e-05 0.000610196 0.000898672 4.14489e-07 -4.50777e-07 -1.26639e-07 0.0005 1.46608e-07 
18 1 0.0274474 0.0220839 0.0144484 0.000442864 0.0167497 -0.0178105 -3.17829e-09 -3.95773e-09 -1.73984e-08 0.0005 1.46608e-07 
19 1 0.0213487 0.0234463 0.0121947 -5.19753e-05 2.63355e-05 -0.00338957 -2.16937e-07 2.52523e-07 -1.08821e-06 0.0005 1.46608e-07 
20 1 0.0230072 0.0199507 0.0167771 -0.0785144 -0.000145527 -0.0785066 0 0 -1.43822e-06 0.0005 1.46608e-07 
21 1 0.0219675 0.0239269 0.0145759 -8.4829e-05 0.000625336 0.00051484 5.05249e-07 -1.89345e-06 -2.78675e-06 0.0005 1.46608e-07 
22 1 0.0192575 0.021872 0.0159422 -0.0027372 0.0261048 -0.0167722 4.8836e-07 1.04029e-07 -9.33905e-09 0.0005 1.46608e-07 
23 1 0.0212447 0.0237899 0.0167058 0.0397617 0.00478862 0.0548264 0 0 -1.43822e-06 0.0005 1.46608e-07 
24 1 0.0193675 0.0244726 0.0136242 0.000698587 0.000197852 1.35384e-05 -2.53707e-07 2.47384e-07 -9.90016e-07 0.0005 1.46608e-07 
25 1 0.025849 0.0214933 0.00810088 0.0001213 -0.0207739 -0.015356 -3.27098e-09 -1.37691e-08 9.63499e-09 0.0005 1.46608e-07 
26 1 0.0202165 0.023933 0.0131575 0.000544972 0.000509907 0.00110768 1.03261e-07 7.64898e-08 -4.71404e-07 0.0005 1.46608e-07 
27 1 0.023971 0.0148924 0.0104765 -8.11457e-05 -0.00763949 0.0207871 1.63893e-07 5.64615e-08 -1.55117e-07 0.0005 1.46608e-07 
28 1 0.0220879 0.0227509 0.0139177 -0.000923128 -0.00439297 0.00656923 -2.21427e-06 9.27715e-06 -1.96366e-05 0.0005 1.46608e-07 
29 1 0.0249393 0.017746 0.00741376 0.00126773 -0.0247235 0.00441612 1.85234e-08 1.11811e-08 3.78831e-08 0.0005 1.46608e-07 
30 1 0.0177482 0.0240951 0.0130291 -0.00113808 0.00185399 -0.000792556 7.55225e-07 -4.50381e-07 9.30622e-07 0.0005 1.46608e-07 
31 1 0.0224522 0.0185056 0.0169789 -0.0324398 -0.0207862 0.0467535 0 0 -1.43822e-06 0.0005 1.46608e-07 
32 1 0.0189608 0.0240974 0.0144412 0.00071535 0.00350479 -0.00175704 -2.48488e-08 6.10318e-08 -4.16807e-07 0.0005 1.46608e-07 
33 1 0.0147533 0.021566 0.0161498 -0.00579176 0.0164227 -0.00815845 4.12393e-07 1.27138e-06 -7.72159e-07 0.0005 1.46608e-07 
34 1 0.0203365 0.0224919 0.0155085 -0.0277975 -0.0296505 0.0296364 0 0 -1.43822e-06 0.0005 1.46608e-07 
35 1 0.0234052 0.0150582 0.0130494 0.000702418 0.00969276 0.0241913 -2.64653e-07 9.06541e-08 -1.40518e-07 0.0005 1.46608e-07 
36 1 0.0662163 0.0189336 0.00576827 -8.60931e-16 4.01454e-15 6.83337e-14 4.11373e-20 -3.05858e-20 2.11758e-21 0.0005 1.46608e-07 
37 1 0.0222767 0.0191956 0.0159822 -0.040327 -0.0219707 0.0154951 0 0 -1.43822e-06 0.0005 1.46608e-07 
38 1 0.0162048 0.0236747 0.0139932 -0.00049531 -0.0018031 7.2536e-05 -2.61728e-06 -3.84019e-05 -2.56069e-05 0.0005 1.46608e-07 
39 1 0.0234138 0.0230675 0.0148024 9.37993e-05 0.000729721 0.00174266 -4.65532e-07 -2.12872e-07 -7.57851e-07 0.0005 1.46608e-07 
40 1 0.0230269 0.0148676 0.0145457 0.00170079 -0.0029917 -0.00356739 9.71076e-08 -1.37685e-06 5.33674e-07 0.0005 1.46608e-07 
41 1 0.0157614 0.0197244 0.0288564 -0.137078 -0.040394 -0.00679004 0 0 -1.43822e-06 0.0005 1.46608e-07 
42 1 0.025477 0.0169441 0.00775082 0.00144634 -0.0120932 0.00597672 -1.24138e-08 2.88428e-09 -2.29397e-08 0.0005 1.46608e-07 
43 1 0.0235547 0.0148046 0.0121966 0.00050826 0.00439705 0.024454 1.7359e-07 3.94841e-09 -1.9956e-07 0.0005 1.46608e-07 
45 1 0.0238732 0.0229152 0.0156616 9.4743e-05 0.000479259 0.000361177 6.65244e-08 -4.30347e-07 3.52691e-07 0.0005 1.46608e-07 
46 1 0.02068 0.0235057 0.0158298 -0.00908265 0.0218281 0.0479299 0 0 -1.43822e-06 0.0005 1.46608e-07 
47 1 0.0182645 0.0159559 0.0162857 0.0137097 -0.121434 -0.151747 0 0 -1.43822e-06 0.0005 1.46608e-07 
48 1 0.0233388 0.0218942 0.0163009 0.00302224 -0.0196416 -0.0393615 0 0 -1.43822e-06 0.0005 1.46608e-07 
49 1 0.0154632 0.0233365 0.0145039 -0.00075482 -0.000709042 0.000652708 -3.12459e-06 -1.17485e-05 -4.80586e-06 0.0005 1.46608e-07 
50 1 0.020485 0.0239582 0.0146045 0.000249811 -0.000674438 0.00131464 -7.86719e-07 4.71377e-06 -8.41793e-06 0.0005 1.46608e-07 
51 1 0.0194366 0.0208013 0.0164659 -1.99759e-06 0.0275146 -0.00974728 -4.19764e-08 -1.58048e-07 -4.32458e-09 0.0005 1.46608e-07 
52 1 0.0222205 0.0158126 0.0161911 -0.022521 -0.000110407 -0.0289123 1.71255e-05 -9.43585e-06 3.0171e-05 0.0005 1.46608e-07 
53 1 0.0277291 0.0212293 0.0152056 0.00221685 0.0142366 -0.00808409 1.21806e-08 -1.44354e-08 -1.55861e-08 0.0005 1.46608e-07 
54 1 0.0197512 0.023666 0.0140094 0.000859412 -0.000395769 0.000470938 4.46068e-08 1.31495e-06 -2.83878e-06 0.0005 1.46608e-07 
55 1 0.0171674 0.0171281 0.0163651 -0.00662482 -0.0359252 -0.0353107 0 0 -1.43822e-06 0.0005 1.46608e-07 
56 1 0.0237543 0.0210175 0.0154988 7.84131e-11 0.0216105 -0.0108507 8.77381e-13 -8.68043e-09 -1.68158e-08 0.0005 1.46608e-07 
57 1 0.0231678 0.0162947 0.0160822 0.0151199 -0.0270958 0.0137118 0 0 -1.43822e-06 0.0005 1.46608e-07 
58 1 0.0183782 0.024486 0.0137384 -0.00013014 0.00103746 -0.00167271 -1.84849e-07 -1.54799e-07 1.06226e-06 0.0005 1.46608e-07 
60 1 0.0226894 0.0172855 0.0155808 0.0167799 0.00952125 -0.0105271 -2.31742e-05 6.1688e-06 5.88671e-06 0.0005 1.46608e-07 
61 1 0.0207134 0.0234359 0.0115736 0.00243965 -0.0022353 -0.0205802 -1.36456e-07 5.83023e-08 -7.95449e-08 0.0005 1.46608e-07 
62 1 0.0252612 0.0180948 0.00607594 -2.61577e-14 -5.35658e-14 -1.7519e-13 2.71818e-19 1.55483e-19 -8.72444e-20 0.0005 1.46608e-07 
63 1 0.0141178 0.0214113 0.0171057 0.00568265 0.00484446 0.0059242 -8.28903e-07 3.77178e-06 1.24737e-06 0.0005 1.46608e-07 
64 1 0.0233046 0.0191107 0.0159437 -0.00676993 0.00887093 0.000429182 1.48016e-06 3.94515e-06 3.6505e-06 0.0005 1.46608e-07 
65 1 0.0210881 0.0229962 0.0150513 -0.00880565 0.0133763 0.0136794 0 0 -1.43822e-06 0.0005 1.46608e-07 
66 1 0.0257496 0.0187731 0.0167497 -0.00135852 0.000802432 0.00268895 -9.9882e-08 -5.71825e-07 -1.57129e-07 0.0005 1.46608e-07 
67 1 0.0239698 0.0196094 0.0164992 -0.0131889 0.0374791 -0.0175495 1.29862e-06 2.62159e-06 4.08146e-06 0.0005 1.46608e-07 
68 1 0.0209034 0.0225886 0.0164456 -0.0170648 -0.0445517 0.0450027 0 0 -1.43822e-06 0.0005 1.46608e-07 
69 1 0.0146162 0.0230676 0.0149603 -0.000612711 0.000628365 0.000973294 6.67312e-07 8.66194e-07 -8.02233e-07 0.0005 1.46608e-07 
70 1 0.0249202 0.0194257 0.0168048 -0.00525887 0.0153382 -0.0714666 0 0 -1.43822e-06 0.0005 1.46608e-07 
71 1 0.0206544 0.0207882 0.00762937 0.000716441 -0.022295 -0.00974422 -1.37067e-08 -1.77152e-08 1.08761e-08 0.0005 1.46608e-07 
72 1 0.0170072 0.0160522 0.0147843 0.00650731 -0.000790945 -0.00216024 1.4265e-08 -8.00871e-08 -3.47564e-08 0.0005 1.46608e-07 
73 1 0.0198858 0.0205321 0.00742577 0.000978589 -0.0247156 -0.00848064 1.11178e-08 -9.80594e-09 4.38897e-09 0.0005 1.46608e-07 
74 1 0.0198315 0.0195608 0.0167235 6.13968e-05 0.0286029 -0.00296051 4.02092e-09 -1.05257e-07 1.74228e-08 0.0005 1.46608e-07 
75 1 0.0197135 0.0225166 0.0165561 -0.00658301 0.0182587 -0.00432406 0 0 -1.43822e-06 0.0005 1.46608e-07 
76 1 0.0168896 0.0239346 0.013371 -0.000265114 -0.000157745 2.55899e-05 -1.34733e-06 -7.1809e-06 -1.11363e-05 0.0005 1.46608e-07 
77 1 0.0196927 0.0232647 0.0158646 -0.0120521 0.00412438 -0.00556388 0 0 -1.43822e-06 0.0005 1.46608e-07 
78 1 0.0183292 0.0153931 0.0153651 -0.0094843 -0.00569193 -0.0188684 0 0 -1.43822e-06 0.0005 1.46608e-07 
79 1 0.0256255 0.0206939 0.0165028 -4.53824e-05 0.000200533 0.00013338 4.47833e-07 1.18403e-07 8.65736e-07 0.0005 1.46608e-07 
80 1 0.0210643 0.0193525 0.0167611 6.30622e-07 0.0291199 -0.00144371 -4.00118e-11 -9.17602e-10 -2.33655e-08 0.0005 1.46608e-07 
81 1 0.0160523 0.0231695 0.0131552 0.00820938 0.00241051 -0.00694505 -4.35379e-05 -5.05317e-06 -4.14925e-05 0.0005 1.46608e-07 
82 1 0.0167904 0.0237879 0.0163941 0.000790128 -0.00244463 -0.00817835 7.31654e-08 -3.36425e-07 -9.86914e-07 0.0005 1.46608e-07 
83 1 0.019858 0.0140081 0.0129684 0.0019994 0.00039194 6.55807e-05 7.08952e-07 3.3948e-07 -3.9729e-07 0.0005 1.46608e-07 
84 1 0.0184306 0.0143979 0.01514 -0.0368847 -0.014983 -0.0355427 0 0 -1.43822e-06 0.0005 1.46608e-07 
85 1 0.0193587 0.0233036 0.0106468 0.000323979 -0.0042711 -0.0180433 4.36662e-09 -1.68715e-08 -3.62006e-08 0.0005 1.46608e-07 
86 1 0.0239649 0.0232658 0.0197218 -0.00125416 -0.0374209 0.0131387 0 0 -1.43822e-06 0.0005 1.46608e-07 
87 1 0.0177546 0.0237983 0.0149432 0.00162358 0.00156506 -0.00333593 1.29071e-06 -1.41921e-06 1.31766e-06 0.0005 1.46608e-07 
89 1 0.0191098 0.0216377 0.0169098 -0.00262002 0.019839 -0.0211681 0 0 -1.43822e-06 0.0005 1.46608e-07 
90 1 0.0204204 0.02312 0.0100773 0.000992627 -0.00646135 -0.0194849 -1.04538e-07 -1.73306e-08 -3.38624e-07 0.0005 1.46608e-07 
91 1 0.0308918 0.0229566 0.0350488 0.170375 -0.0313822 0.449927 0 0 -1.43822e-06 0.0005 1.46608e-07 
92 1 0.0213146 0.0160286 0.0158276 -0.00699641 0.00355154 -0.0031162 -1.05476e-05 7.82465e-06 -2.83804e-05 0.0005 1.46608e-07 
93 1 0.018664 0.0241031 0.0128628 -0.000491655 -0.00148992 0.000553837 2.10977e-07 3.90098e-08 6.09894e-07 0.0005 1.46608e-07 
94 1 0.0172375 0.0141487 0.0134006 0.00229967 -0.00403973 0.00947412 -6.22407e-08 -2.14917e-07 2.29953e-06 0.0005 1.46608e-07 
95 1 0.0181762 0.02373 0.0136822 9.29593e-05 0.00471886 -0.00628075 -5.48739e-07 -8.31438e-07 3.5459e-06 0.0005 1.46608e-07 
96 1 0.0200226 0.0145028 0.0141287 -0.00238003 -0.00174497 3.29663e-06 2.13221e-08 -2.8815e-07 -7.26922e-07 0.0005 1.46608e-07 
97 1 0.0224944 0.0227015 0.0151128 -0.0234545 0.0180477 0.00849841 0 0 -1.43822e-06 0.0005 1.46608e-07 
98 1 0.0212869 0.0243205 0.0140317 0.000727297 0.000307861 -0.00073951 3.72797e-08 -4.9637e-08 -5.13774e-07 0.0005 1.46608e-07 
99 1 0.0188578 0.0171367 0.00764708 0.00102825 -0.0182095 0.0108734 -1.22813e-08 -1.04671e-07 9.3081e-08 0.0005 1.46608e-07 
100 1 0.0221469 0.0236611 0.0136606 -0.00175441 -0.000782772 0.00173318 3.32498e-06 1.42271e-06 -6.00551e-06 0.0005 1.46608e-07 
101 1 0.0203582 0.0145146 0.0150718 0.00163818 -0.0104518 0.00279607 0 0 -1.43822e-06 0.0005 1.46608e-07 
102 1 0.0254017 0.0198419 0.00726033 -8.87005e-05 -0.0253136 -0.00633062 -6.77018e-07 -1.5693e-06 -7.86264e-07 0.0005 1.46608e-07 
103 1 0.0162689 0.0230085 0.016023 0.00143578 0.000284447 -0.00404648 8.38082e-07 -1.03773e-06 4.12511e-07 0.0005 1.46608e-07 
104 1 0.01856 0.0146132 0.0119523 5.93937e-06 -0.00144329 0.0024142 -2.9611e-10 1.16512e-07 -1.95894e-07 0.0005 1.46608e-07 
105 1 0.0243408 0.0156601 0.00878973 0.000582798 -0.013495 0.0176326 7.72793e-09 9.40961e-07 -8.97714e-07 0.0005 1.46608e-07 
106 1 0.0203861 0.0244725 0.0137175 0.000170724 0.000185569 0.000238126 9.06523e-08 -1.12337e-08 -1.72213e-07 0.0005 1.46608e-07 
107 1 0.036639 0.0185805 0.00573392 1.844e-20 1.00054e-20 1.78115e-20 0 0 0 0.0005 1.46608e-07 
108 1 0.0267297 0.0233993 0.011514 0.000323678 0.000720707 -0.0253525 -6.93874e-10 -1.42608e-08 -1.05166e-08 0.0005 1.46608e-07 
109 1 0.0227486 0.0217002 0.0155014 -0.0321577 -0.0254877 -0.0524701 0 0 -1.43822e-06 0.0005 1.46608e-07 
110 1 0.0149963 0.0223812 0.0156205 -0.000458897 0.0015686 0.000494183 1.44739e-06 2.63269e-06 -1.67872e-06 0.0005 1.46608e-07 
111 1 0.0219517 0.0232569 0.0128623 -0.000369428 -0.00105711 0.00228486 -2.79072e-06 1.50611e-06 -4.71955e-06 0.0005 1.46608e-07 
112 1 0.0169869 0.0232176 0.0144439 -0.000941183 -6.0551e-05 0.00047355 9.88896e-07 5.68945e-06 -4.76815e-06 0.0005 1.46608e-07 
113 1 0.0228156 0.0237603 0.0149613 5.82602e-05 0.000206424 0.000436917 7.48857e-08 -3.24896e-07 -2.05827e-07 0.0005 1.46608e-07 
114 1 0.0199345 0.023121 0.0148304 0.000122087 -0.00441548 0.00616455 0 0 -1.43822e-06 0.0005 1.46608e-07 
116 1 0.0212316 0.0228663 0.0136797 0.0021719 0.00614313 -0.0172379 -1.41758e-06 1.0991e-07 1.00463e-06 0.0005 1.46608e-07 
117 1 0.0237409 0.0147561 0.0113699 0.000215598 -0.00199939 0.0254437 3.51965e-08 7.14741e-08 2.14325e-07 0.0005 1.46608e-07 
118 1 0.0245793 0.0180526 0.0165184 -0.0165675 0.014055 -0.0155119 -1.68029e-07 -3.66931e-08 -4.46399e-07 0.0005 1.46608e-07 
119 1 0.021818 0.0214015 0.0152737 0.00548448 0.00059149 0.00353429 0 0 -1.43822e-06 0.0005 1.46608e-07 
120 1 0.0241949 0.0182814 0.0176977 -0.0477391 -0.00360583 -0.0248059 0 0 -1.43822e-06 0.0005 1.46608e-07 
121 1 0.0208163 0.0140842 0.0132446 0.000358879 -0.00136792 0.00373476 -1.36744e-07 1.06851e-07 -8.58222e-07 0.0005 1.46608e-07 
122 1 0.0157964 0.023053 0.0169105 0.00078516 -0.00124087 -0.00249385 3.08562e-07 -2.1128e-06 2.43743e-06 0.0005 1.46608e-07 
123 1 0.0216327 0.0221944 0.0146412 -0.000463917 0.0268988 -0.00750389 7.14148e-07 1.28242e-06 -8.93412e-07 0.0005 1.46608e-07 
125 1 0.0262842 0.0228428 0.0094064 0.0022043 -0.0076216 -0.014877 2.95153e-08 4.11329e-08 4.43035e-08 0.0005 1.46608e-07 
126 1 0.0175432 0.0147518 0.0126641 0.00195136 0.00544575 0.0172831 9.45516e-07 -5.73137e-07 1.40293e-06 0.0005 1.46608e-07 
127 1 0.0155331 0.0222677 0.0145674 -0.00023886 0.0173681 -0.0164215 -1.6291e-06 1.02518e-05 -3.99289e-06 0.0005 1.46608e-07 
128 1 0.0229007 0.0164313 0.0150906 0.00594192 -0.00714322 -0.00276254 -1.32725e-07 3.52824e-07 -1.4302e-06 0.0005 1.46608e-07 
129 1 0.0171632 0.0241841 0.014266 -0.00104593 0.000323576 0.000312963 -4.12343e-06 -7.0902e-06 8.54232e-08 0.0005 1.46608e-07 
131 1 0.0210034 0.0232675 0.0127302 0.000475897 0.00600756 -0.0156435 -3.03348e-07 8.69608e-08 -8.12657e-07 0.0005 1.46608e-07 
132 1 0.018227 0.022053 0.0157959 0.00842055 -0.00215839 -0.00259778 2.19707e-06 9.73344e-06 -9.61918e-07 0.0005 1.46608e-07 
133 1 0.0189652 0.0178938 0.00736552 0.00168281 -0.0199086 0.00560623 -2.31625e-08 -6.24933e-08 1.79826e-08 0.0005 1.46608e-07 
134 1 0.020527 0.0241081 0.0124181 -0.00239781 -0.00445322 0.00521017 -6.46502e-08 -2.06268e-08 -5.51071e-07 0.0005 1.46608e-07 
135 1 0.0163395 0.0216835 0.0150905 0.00644477 -0.00105584 0.00118834 -6.388e-08 2.91984e-06 -6.03943e-07 0.0005 1.46608e-07 
136 1 0.0265668 0.0209191 0.00601021 -3.2964e-15 3.20263e-14 -8.30526e-14 0 0 0 0.0005 1.46608e-07 
137 1 0.0211847 0.023057 0.00982607 0.00617125 -0.00375696 -0.0071787 -5.72035e-07 1.56279e-06 2.83307e-06 0.0005 1.46608e-07 
138 1 0.019548 0.0241093 0.0127135 -0.000163364 -0.00115693 0.000748039 5.98936e-08 4.93145e-08 -6.46543e-08 0.0005 1.46608e-07 
139 1 0.0270906 0.0230653 0.0129903 0.00143471 0.015672 -0.0234069 2.31382e-08 9.46497e-09 -5.06173e-09 0.0005 1.46608e-07 
140 1 0.0241963 0.0151783 0.00960569 0.000250059 -0.00897756 0.0163434 -1.69226e-07 1.65446e-07 -4.0143e-07 0.0005 1.46608e-07 
141 1 0.0826994 0.0191069 0.00591647 8.83474e-16 2.44374e-15 -1.05016e-14 -4.8175e-21 2.18111e-20 5.50571e-21 0.0005 1.46608e-07 
142 1 0.0161932 0.023747 0.0149846 -0.0010902 -4.53287e-05 0.000993433 6.44286e-06 -1.26739e-05 -5.06666e-06 0.0005 1.46608e-07 
143 1 0.0204759 0.0216678 0.0160615 8.69891e-05 0.0253373 -0.0144845 -2.50796e-07 8.61951e-08 -3.73437e-07 0.0005 1.46608e-07 
144 1 0.022143 0.0202625 0.0158716 0.0182842 -0.0111794 0.0282398 0 0 -1.43822e-06 0.0005 1.46608e-07 
146 1 0.0211181 0.0137987 0.0141543 0.000221473 -0.00043889 0.00107769 -3.33233e-07 5.85126e-07 -1.56845e-06 0.0005 1.46608e-07 
147 1 0.0173598 0.0150812 0.0151052 0.0230674 -0.0102587 -0.0554927 0 0 -1.43822e-06 0.0005 1.46608e-07 
148 1 0.0218955 0.0143844 0.0139166 -0.000551334 -4.55186e-05 -0.000507201 1.35913e-08 -1.28313e-08 3.79256e-08 0.0005 1.46608e-07 
149 1 0.0152669 0.0228857 0.0136899 0.0055699 0.00168805 -0.00322168 -2.88263e-06 -1.89493e-06 -7.24238e-07 0.0005 1.46608e-07 
151 1 0.0246985 0.0167065 0.00788725 0.0018137 -0.0180789 0.0120093 -1.78015e-08 -7.69954e-08 7.51039e-08 0.0005 1.46608e-07 
152 1 0.0190419 0.0172072 0.0177417 0.0303776 -0.0878952 -0.118013 0 0 -1.43822e-06 0.0005 1.46608e-07 
153 1 0.0159438 0.0241159 0.0181937 0.00566869 -0.0316514 -0.0476961 -2.25795e-06 2.73603e-06 -8.83596e-07 0.0005 1.46608e-07 
154 1 0.0191091 0.0227128 0.0152688 -0.0080426 0.0245557 -0.0244592 4.87945e-07 4.42197e-07 -5.38227e-07 0.0005 1.46608e-07 
155 1 0.0201593 0.0190962 0.0175507 0.00780534 -0.0335199 -0.0377876 0 0 -1.43822e-06 0.0005 1.46608e-07 
156 1 0.016995 0.0147921 0.0169838 0.0364196 0.0442757 -0.0383872 0 0 -1.43822e-06 0.0005 1.46608e-07 
157 1 0.0190344 0.0140065 0.0135354 0.0024219 -0.00150516 8.45982e-05 6.39404e-07 2.60263e-07 -8.46575e-07 0.0005 1.46608e-07 
158 1 0.0156844 0.0156627 0.0155571 -0.0136048 -0.0360699 -0.0242739 1.11445e-07 -4.40326e-08 1.02479e-07 0.0005 1.46608e-07 
159 1 0.0146302 0.0150438 0.0149085 0.00289987 -0.00250726 0.000437881 -2.07991e-09 -1.35233e-08 3.12622e-08 0.0005 1.46608e-07 
160 1 0.0150328 0.0206485 0.0165384 0.00265585 0.0189263 -0.00534427 -4.12878e-07 2.7254e-07 -3.24509e-07 0.0005 1.46608e-07 
161 1 0.0202549 0.0261541 0.0216422 -0.0264456 -0.0304232 -0.0998614 2.33959e-08 -3.34631e-07 -1.00276e-06 0.0005 1.46608e-07 
162 1 0.0196342 0.0209145 0.0076795 0.00037625 -0.0211911 -0.0103494 -9.57981e-09 -2.32439e-08 3.05137e-09 0.0005 1.46608e-07 
163 1 0.0193547 0.0143159 0.0162334 -0.0670982 0.00426051 -0.0237411 0 0 -1.43822e-06 0.0005 1.46608e-07 
164 1 0.023017 0.0175649 0.0164835 -0.00195436 -0.014811 0.016056 0 0 -1.43822e-06 0.0005 1.46608e-07 
165 1 0.022875 0.0231035 0.0136555 -0.000690685 -0.000139496 0.00195436 1.10867e-06 5.58151e-07 -3.10947e-06 0.0005 1.46608e-07 
166 1 0.0177172 0.0228024 0.0150274 0.00775988 0.00159743 -0.00726932 5.21581e-07 2.34555e-06 5.62566e-07 0.0005 1.46608e-07 
167 1 0.0170804 0.0218643 0.0174724 0.00438853 0.0146952 -0.0146184 0 0 -1.43822e-06 0.0005 1.46608e-07 
168 1 0.0171823 0.0197209 0.0158946 0.00707938 0.0120544 -0.00123248 -3.24444e-07 7.47449e-07 -8.87053e-08 0.0005 1.46608e-07 
169 1 0.0170821 0.0242829 0.0176929 0.00185263 -0.00200464 -0.00843003 0 0 -1.43822e-06 0.0005 1.46608e-07 
170 1 0.0178582 0.0237692 0.0159687 0.00782072 -0.00696794 -0.0131007 0 0 -1.43822e-06 0.0005 1.46608e-07 
171 1 0.019291 0.016608 0.0161613 -0.00851965 0.00412566 -0.00815024 0 0 -1.43822e-06 0.0005 1.46608e-07 
172 1 0.0162782 0.0201502 0.0158474 -0.00117223 -0.00888602 -0.0356905 8.03624e-07 -1.01301e-06 -4.12312e-07 0.0005 1.46608e-07 
173 1 0.02023 0.0170167 0.016619 0.068107 0.0174435 0.00800887 0 0 -1.43822e-06 0.0005 1.46608e-07 
174 1 0.0185341 0.0245013 0.0173668 0.00482316 -0.020867 -0.0483378 2.07434e-08 -3.6686e-07 -8.3448e-07 0.0005 1.46608e-07 
175 1 0.0176279 0.0213889 0.016783 0.010077 0.0123353 -0.0039034 -1.11305e-06 -5.68727e-07 -5.60559e-07 0.0005 1.46608e-07 
176 1 0.0272147 0.0117051 0.0309367 -0.0235465 -0.168268 0.291356 0 0 -1.43822e-06 0.0005 1.46608e-07 
177 1 0.0195564 0.015107 0.0149593 0.000623438 0.00307469 0.00591752 4.14332e-09 -2.20411e-07 -2.06432e-07 0.0005 1.46608e-07 
178 1 0.0149444 0.0225567 0.0175535 0.000883908 -0.0011284 -0.0023923 -2.14074e-07 -3.72054e-07 -1.96002e-06 0.0005 1.46608e-07 
179 1 0.02289 0.0155219 0.0155063 -0.00996356 -0.00820034 -0.00226908 1.32725e-07 -3.52824e-07 -1.44624e-06 0.0005 1.46608e-07 
180 1 0.0165534 0.0214643 0.0166466 -0.0180779 -0.0112154 -0.0453596 0 0 -1.43822e-06 0.0005 1.46608e-07 
181 1 0.0226886 0.0165359 0.0185638 0 -0 -0.01 0 0 0 0.0005 1.46608e-07 
182 1 0.0226785 0.0157265 0.0202039 0.0580823 -0.178861 -0.04049 0 0 -1.43822e-06 0.0005 1.46608e-07 
183 1 0.0181449 0.0223632 0.0173544 0.0210627 -0.00339473 -0.0145714 -1.77554e-06 -4.00494e-06 3.79529e-06 0.0005 1.46608e-07 
184 1 0.0154181 0.0146639 0.0143996 0.00146224 -0.000339606 -0.00131799 -9.95481e-09 -1.35349e-08 3.61983e-08 0.0005 1.46608e-07 
185 1 0.0155473 0.0218871 0.0179884 0.00240272 0.00508232 -0.00534414 0 0 -1.43822e-06 0.0005 1.46608e-07 
186 1 0.0153202 0.0221962 0.0166997 -0.00796965 0.00102424 -0.0084962 2.55538e-07 1.2241e-06 -3.33523e-07 0.0005 1.46608e-07 
188 1 0.0170156 0.0222319 0.0146007 0.00419537 -0.000558087 0.000392751 2.39007e-06 4.52108e-06 -2.40323e-06 0.0005 1.46608e-07 
189 1 0.0167612 0.0246632 0.0203091 -0.127599 -0.00377647 -0.0563816 0 0 -1.43822e-06 0.0005 1.46608e-07 
190 1 0.0190144 0.0199514 0.0172935 0.00654989 0.00210743 -0.0105104 0 0 -1.43822e-06 0.0005 1.46608e-07 
191 1 0.0183795 0.0202619 0.0165848 -0.00294612 0.00988091 -0.00424615 2.98469e-09 2.21583e-06 9.17326e-07 0.0005 1.46608e-07 
192 1 0.0182111 0.0214216 0.0176849 0.0153381 -0.0022882 -0.0190121 0 0 -1.43822e-06 0.0005 1.46608e-07 
193 1 0.0204578 0.0154806 0.0153335 0.00346015 0.00728795 0.00776418 0 0 -1.43822e-06 0.0005 1.46608e-07 
195 1 0.0139048 0.0206274 0.0165231 0.00448537 0.0110395 -0.00181484 2.35065e-06 -1.06695e-06 2.18958e-06 0.0005 1.46608e-07 
196 1 0.0182079 0.0140735 0.0129768 0.00337138 -0.00172669 -0.000478481 6.56084e-09 -4.25969e-07 3.16737e-06 0.0005 1.46608e-07 
197 1 0.0176488 0.0241499 0.0168718 0.0024465 -0.00081191 -0.00243444 -2.85413e-06 -3.06497e-06 7.51764e-06 0.0005 1.46608e-07 
198 1 0.0179851 0.0165584 0.0151812 0.0135923 0.00814237 0.000903422 0 0 -1.43822e-06 0.0005 1.46608e-07 
199 1 0.017962 0.0232008 0.0168401 0.00839186 -0.000260008 -0.00740083 2.6952e-06 5.53077e-07 -6.785e-06 0.0005 1.46608e-07 
202 1 0.0214341 0.0149139 0.015662 -0.0121693 -0.0124416 -0.0165461 -1.21636e-07 -1.78242e-07 -1.57144e-06 0.0005 1.46608e-07 
203 1 0.0194241 0.0223679 0.0175204 0.00368698 0.0107659 0.0010428 0 0 -1.43822e-06 0.0005 1.46608e-07 
204 1 0.0229817 0.0224795 0.0142642 -0.000686578 0.00111932 0.00546527 -1.92315e-07 2.37889e-06 -4.33849e-06 0.0005 1.46608e-07 
205 1 0.0204668 0.0242721 0.0173316 -0.0208853 0.0254205 0.0368152 0 0 -1.43822e-06 0.0005 1.46608e-07 
206 1 0.0151518 0.0232621 0.0182313 0.00863641 0.0021453 -0.0104765 5.26044e-07 -7.3179e-08 -3.35441e-08 0.0005 1.46608e-07 
207 1 0.0204661 0.0184019 0.0167065 0.00195802 0.0199167 0.0025828 -1.73113e-07 4.66668e-07 4.27291e-08 0.0005 1.46608e-07 
208 1 0.0139514 0.0155638 0.0154269 0.00181702 -0.000573325 -0.00291924 -5.60197e-09 -1.85741e-08 2.78773e-08 0.0005 1.46608e-07 
209 1 0.014967 0.0184319 0.0243075 -0.201022 -0.101667 0.120408 0 0 -1.43822e-06 0.0005 1.46608e-07 
210 1 0.0171881 0.0204855 0.018134 -0.0263013 0.00909236 -0.0260481 0 0 -1.43822e-06 0.0005 1.46608e-07 
211 1 0.0164042 0.0184289 0.0163768 0.00328673 0.00557991 -0.00344628 0 0 -1.43822e-06 0.0005 1.46608e-07 
212 1 0.0186995 0.0238934 0.0165445 0.00567376 0.0194618 -0.00620127 0 0 -1.43822e-06 0.0005 1.46608e-07 
213 1 0.0178862 0.0193697 0.0165919 0.0335879 0.0105493 -0.0537603 0 0 -1.43822e-06 0.0005 1.46608e-07 
214 1 0.0175764 0.0227809 0.0160172 0.00441445 -0.000555614 -0.0100302 7.20585e-07 4.47039e-07 3.51856e-07 0.0005 1.46608e-07 
215 1 0.0175729 0.0140798 0.0194216 -0.156038 -0.228509 -0.103129 0 0 -1.43822e-06 0.0005 1.46608e-07 
216 1 0.0195049 0.0244697 0.0170629 -0.0167519 -0.00754134 -0.0130393 2.89349e-07 -3.72696e-07 -9.12013e-07 0.0005 1.46608e-07 
217 1 0.0263097 0.0168506 0.0241451 0.166319 -0.113345 0.0841343 0 0 -1.43822e-06 0.0005 1.46608e-07 
218 1 0.0185901 0.0229296 0.0161109 0.00886141 -0.00342594 -0.00338009 2.92806e-06 1.88127e-07 1.62271e-06 0.0005 1.46608e-07 
219 1 0.0205744 0.0203163 0.0166156 -7.03834e-08 0.0283168 -0.00690926 6.41098e-12 -5.48835e-09 -2.27096e-08 0.0005 1.46608e-07 
220 1 0.0131254 0.0200152 0.0166571 -0.00437162 0.0210859 -0.00373447 3.82661e-07 9.08277e-07 -4.5895e-07 0.0005 1.46608e-07 
221 1 0.0162705 0.0194098 0.0165277 0.00867218 0.0107204 -0.0112708 0 0 -1.43822e-06 0.0005 1.46608e-07 
222 1 0.0191741 0.0141393 0.0145165 0.00155596 0.00183306 0.000666548 -2.53176e-07 2.45759e-07 4.38101e-07 0.0005 1.46608e-07 
223 1 0.0202258 0.022695 0.00926833 0.000274904 -0.0126127 -0.0209318 6.56063e-08 -3.42337e-08 4.09486e-08 0.0005 1.46608e-07 
224 1 0.0169234 0.0209959 0.0155216 0.00657239 0.000503471 0.00552157 6.08411e-07 -5.13174e-07 -1.65784e-06 0.0005 1.46608e-07 
225 1 0.0235377 0.0219289 0.0148948 0.00270023 0.0104344 -0.00764461 -1.74377e-07 8.81199e-07 -8.46357e-07 0.0005 1.46608e-07 
226 1 0.0122651 0.0194956 0.016573 0.00241385 0.00566623 -0.00600129 7.57352e-08 6.13582e-08 -1.6955e-07 0.0005 1.46608e-07 
227 1 0.0166621 0.019564 0.0179671 0.00317918 -0.0119663 -0.103653 0 0 -1.43822e-06 0.0005 1.46608e-07 
228 1 0.0187143 0.015166 0.0143923 0.0104868 0.00882507 -0.0292172 8.48142e-07 -1.80505e-06 -9.9135e-07 0.0005 1.46608e-07 
229 1 0.0151147 0.0172589 0.0188521 0 -0 -0.01 0 0 0 0.0005 1.46608e-07 
230 1 0.0176252 0.0216313 0.0151179 0.00612824 -0.00221381 -0.000879391 -2.12644e-06 1.17616e-06 -2.99658e-06 0.0005 1.46608e-07 
232 1 0.0199749 0.0241516 0.016231 0.00256062 -0.00143842 -0.00396408 -1.38436e-07 -5.13427e-07 -6.77872e-07 0.0005 1.46608e-07 
233 1 0.0214573 0.0187895 0.0204524 0.0263978 -0.124731 0.0269183 0 0 -1.43822e-06 0.0005 1.46608e-07 
234 1 0.0161579 0.0221852 0.017251 0.00217985 -0.00455929 -0.0100771 2.33809e-06 -3.02368e-06 1.29144e-06 0.0005 1.46608e-07 
235 1 0.019597 0.014256 0.0175357 -0.0492677 0.0260235 -0.0564811 0 0 -1.43822e-06 0.0005 1.46608e-07 
236 1 0.0210101 0.0252535 0.0198427 -0.00902658 -0.0254838 -0.0589678 -1.21917e-07 -3.49333e-07 -8.07019e-07 0.0005 1.46608e-07 
237 1 0.0177623 0.0176922 0.0157445 -0.000521159 0.014171 0.0034604 7.93534e-07 6.79384e-07 5.99105e-07 0.0005 1.46608e-07 
238 1 0.0182162 0.0144479 0.0139039 0.00118238 -0.00274225 0.00201064 1.28638e-07 -2.91282e-07 8.83013e-08 0.0005 1.46608e-07 
239 1 0.0169991 0.023429 0.0154842 0.000390807 -0.00256944 -0.00788472 -4.55024e-07 -7.16735e-07 -7.72777e-08 0.0005 1.46608e-07 
240 1 0.0150762 0.0195382 0.0167653 1.56882e-07 0.0291529 -0.0025051 3.22772e-10 -3.09729e-09 -2.31928e-08 0.0005 1.46608e-07 
241 1 0.0203305 0.016262 0.0159544 0.0104033 0.00151988 0.00908166 0 0 -1.43822e-06 0.0005 1.46608e-07 
242 1 0.016218 0.0164448 0.0182699 0 0 -0.0572597 0 0 -1.43822e-06 0.0005 1.46608e-07 
243 1 0.0174915 0.0186523 0.015945 -0.000260313 0.0240547 0.000181035 0 0 -1.43822e-06 0.0005 1.46608e-07 
244 1 0.0130011 0.021024 0.0163622 0.00146364 0.00418007 0.000354293 -1.03751e-06 1.39331e-06 1.27956e-06 0.0005 1.46608e-07 
245 1 0.0213059 0.0142409 0.0179362 -0.0215828 0.0636823 -0.0122002 0 0 -1.43822e-06 0.0005 1.46608e-07 
246 1 0.0232718 0.0179814 0.0181205 0.0894174 -0.117983 -0.0708014 0 0 -1.43822e-06 0.0005 1.46608e-07 
247 1 0.0198009 0.0230552 0.0187992 0 -0 -0.01 0 0 0 0.0005 1.46608e-07 
248 1 0.0151099 0.0213716 0.0172247 0.00535541 0.00728508 0.00643616 -3.78513e-08 5.66059e-08 -1.11132e-06 0.0005 1.46608e-07 
249 1 0.016276 0.0227515 0.0150292 0.00753621 0.0001878 -0.00313508 6.92078e-06 6.85521e-06 4.8662e-06 0.0005 1.46608e-07 
250 1 0.0162921 0.0238483 0.0172604 0.00220659 -0.0013238 -0.00337429 0 0 -1.43822e-06 0.0005 1.46608e-07 
251 1 0.0160862 0.0205824 0.0167381 -0.0337264 0.000322834 -0.0340087 0 0 -1.43822e-06 0.0005 1.46608e-07 
252 1 0.0168988 0.0227348 0.0167537 -0.00647808 -0.00811046 -0.016478 0 0 -1.43822e-06 0.0005 1.46608e-07 
253 1 0.0178844 0.0205154 0.0174157 -0.0111928 0.00529206 -0.00657419 -3.65771e-07 1.02512e-06 1.75869e-06 0.0005 1.46608e-07 
254 1 0.018417 0.0202792 0.0186032 0 -0 -0.01 0 0 0 0.0005 1.46608e-07 
255 1 0.0188201 0.0237344 0.0155641 0.0018686 -0.00123655 -0.00260505 -1.86163e-06 -1.25246e-06 5.14317e-06 0.0005 1.46608e-07 
256 1 0.0164087 0.0148785 0.01477 -0.00204312 -0.00229411 0.0010703 2.49465e-08 -2.66894e-07 -2.46215e-07 0.0005 1.46608e-07 
257 1 0.0172843 0.0141316 0.0143992 0.0011657 -0.0178718 0.00953867 2.44195e-07 -3.68183e-07 2.201e-06 0.0005 1.46608e-07 
258 1 0.0237552 0.0151479 0.0151707 -0.000842768 0.000421811 -0.00101734 4.38895e-06 5.76707e-07 3.68889e-06 0.0005 1.46608e-07 
259 1 0.0241623 0.0170476 0.016772 0.00216767 -0.0335645 -0.0936808 0 0 -1.43822e-06 0.0005 1.46608e-07 
260 1 0.0231585 0.0164774 0.0173518 -0.011794 -0.0760694 -0.0737889 0 0 -1.43822e-06 0.0005 1.46608e-07 
261 1 0.0239635 0.0160497 0.0147877 0.00172655 -0.00306613 -0.00516051 -3.93339e-08 -2.31114e-07 -1.84967e-07 0.0005 1.46608e-07 
262 1 0.0192444 0.0157318 0.0156763 -0.00293807 0.0043493 0.00623291 0 0 -1.43822e-06 0.0005 1.46608e-07 
263 1 0.0179276 0.0157732 0.0145033 0.00217694 -0.0069961 -0.00607998 -8.97641e-07 1.33039e-06 7.00651e-07 0.0005 1.46608e-07 
264 1 0.0242587 0.0188111 0.0159367 -0.00197334 0.022675 0.00123957 6.23824e-07 4.17778e-07 2.21417e-07 0.0005 1.46608e-07 