ITEM: TIMESTEP
18000000
ITEM: NUMBER OF ATOMS
122
ITEM: BOX BOUNDS ff ff ff
-0.02 0.43
-0.02 0.06
-0.02 0.1
ITEM: ATOMS id type x y z vx vy vz fx fy fz radius mass 
1 1 0.0410399 0.0206533 0.00749929 0.00139883 -0.0196093 -0.00848001 -1.837e-08 -1.20242e-07 -4.34975e-08 0.0005 1.46608e-07 
4 1 0.0314236 0.0202426 0.0156212 0.00101929 0.0185887 -0.00548893 8.02289e-09 -1.35701e-07 3.0081e-08 0.0005 1.46608e-07 
6 1 0.0317117 0.0189808 0.0158419 0.00139041 0.0186106 0.00130797 -2.50121e-10 -1.07273e-08 -1.9699e-08 0.0005 1.46608e-07 
12 1 0.0249085 0.0216229 0.0149016 0.000177037 0.0127971 -0.00956732 1.50256e-08 4.43565e-08 -1.24683e-08 0.0005 1.46608e-07 
13 1 0.0269456 0.0149554 0.0125452 0.00205128 0.00592483 0.0172035 -6.59148e-09 3.24426e-09 2.71807e-09 0.0005 1.46608e-07 
15 1 0.0442174 0.0168077 0.0151564 0.000328238 0.0211163 0.0125698 -1.17414e-09 1.49359e-08 -8.64748e-09 0.0005 1.46608e-07 
16 1 0.0141089 0.022391 0.014427 0.000107562 0.000606455 -0.000141966 2.7372e-09 1.64082e-08 -4.23267e-09 0.0005 1.46608e-07 
17 1 0.0200103 0.0237324 0.0122742 -0.000601795 0.000276935 0.000481978 1.18271e-09 -5.98442e-09 1.06096e-08 0.0005 1.46608e-07 
18 1 0.0389556 0.0163742 0.00669954 2.97761e-15 -2.69565e-14 -6.89267e-14 -7.11375e-21 1.05879e-22 -2.11758e-22 0.0005 1.46608e-07 
19 1 0.0329161 0.01901 0.00570682 -2.41832e-15 -2.55817e-14 -7.61217e-14 -2.17052e-21 5.29396e-23 2.11758e-22 0.0005 1.46608e-07 
21 1 0.0337833 0.015493 0.0090524 0.000129223 -0.0150423 0.0208021 -7.70717e-10 9.22686e-09 1.51605e-08 0.0005 1.46608e-07 
25 1 0.0419311 0.0232165 0.0103752 0.000696176 -0.00692131 -0.022022 1.29367e-07 -7.79575e-08 8.17963e-07 0.0005 1.46608e-07 
26 1 0.0219345 0.0148544 0.0129898 0.00373457 0.00127064 0.00271306 2.52704e-06 -2.79252e-06 -1.36877e-05 0.0005 1.46608e-07 
28 1 0.0416962 0.0228076 0.00950414 0.00190125 -0.0130693 -0.0237596 1.49681e-05 -1.23406e-05 1.26942e-06 0.0005 1.46608e-07 
30 1 0.0196045 0.0232254 0.0130344 -0.00390734 0.00138155 -0.000563189 -1.98521e-08 2.0327e-08 3.80305e-08 0.0005 1.46608e-07 
31 1 0.0415214 0.0223636 0.00871452 0.00313918 -0.00873295 -0.0102088 -4.83144e-05 -1.13273e-05 8.18108e-06 0.0005 1.46608e-07 
32 1 0.035386 0.0217711 0.00815581 0.001603 -0.00808149 -0.00599199 1.67694e-07 1.15981e-07 1.3322e-07 0.0005 1.46608e-07 
33 1 0.0218595 0.0143791 0.0138839 -0.00178534 0.00108939 -0.00451922 -7.1407e-08 5.40338e-09 -1.07443e-07 0.0005 1.46608e-07 
35 1 0.0165201 0.019817 0.00593552 1.30232e-14 5.25883e-15 -1.07337e-13 -6.2204e-21 1.17261e-20 -2.11758e-22 0.0005 1.46608e-07 
36 1 0.0662017 0.0188213 0.00577467 7.51957e-17 -6.92835e-16 -1.33964e-14 2.54507e-20 1.10326e-19 -6.35275e-21 0.0005 1.46608e-07 
37 1 0.0213815 0.0152561 0.0138355 0.00106351 0.00298778 0.00172542 -2.02213e-07 -7.90493e-08 -1.11743e-07 0.0005 1.46608e-07 
40 1 0.0334693 0.0150565 0.0100798 0.00410617 -0.00071426 0.00766087 1.25935e-07 1.51996e-07 -3.91298e-07 0.0005 1.46608e-07 
41 1 0.0279692 0.016008 0.00842153 0.000120168 -0.0188818 0.0175077 -1.61277e-09 3.83503e-09 1.81289e-08 0.0005 1.46608e-07 
42 1 0.0429035 0.0222963 0.0142941 0.000216757 0.0177752 -0.0189622 -4.01843e-09 -4.85039e-09 -2.01312e-08 0.0005 1.46608e-07 
49 1 0.029028 0.0205439 0.0074904 0.000334882 -0.0230344 -0.00866204 -2.95083e-09 -1.42669e-08 9.76937e-09 0.0005 1.46608e-07 
51 1 0.0408586 0.0198899 0.0072656 0.000995219 -0.0208177 -0.00213543 -3.41035e-08 -1.65442e-07 2.61345e-09 0.0005 1.46608e-07 
52 1 0.0391239 0.0148301 0.0118565 0.000105035 0.0014369 0.0260244 -9.89922e-10 1.66963e-08 6.74527e-09 0.0005 1.46608e-07 
53 1 0.0464482 0.0145846 0.00902327 0.0041189 0.15403 0.0410655 0 0 -1.43822e-06 0.0005 1.46608e-07 
54 1 0.032893 0.0149625 0.0127719 0.00035668 0.00723099 0.0237374 -2.79663e-09 1.66737e-08 4.5499e-09 0.0005 1.46608e-07 
56 1 0.119071 0.0203608 0.0059107 1.09439e-15 2.46957e-14 -1.19876e-13 4.97963e-22 5.29396e-23 0 0.0005 1.46608e-07 
58 1 0.0232349 0.0210911 0.0079722 0.00241405 -0.0194016 -0.0107733 -1.37079e-08 -4.58019e-08 -5.05866e-09 0.0005 1.46608e-07 
62 1 0.0252612 0.0180948 0.00607594 -2.54504e-14 -5.37693e-14 -1.75233e-13 2.40319e-19 -1.29861e-19 -4.44692e-21 0.0005 1.46608e-07 
65 1 0.0183373 0.0232424 0.0105545 0.00198219 0.00347394 -0.00368897 -6.90147e-06 6.7962e-06 1.44029e-05 0.0005 1.46608e-07 
66 1 0.0413005 0.0215526 0.0079976 0.0004102 -0.0200893 -0.0146047 -1.70353e-09 -1.5399e-08 6.11032e-09 0.0005 1.46608e-07 
68 1 0.0340821 0.0165874 0.00796425 0.000191767 -0.0230155 0.0140462 -1.17879e-09 5.10616e-09 1.47431e-08 0.0005 1.46608e-07 
71 1 0.0976912 0.0174781 0.00629452 -1.86935e-15 -7.30177e-14 -2.20718e-13 -4.9788e-20 -3.28225e-21 1.27055e-21 0.0005 1.46608e-07 
74 1 0.0255874 0.0206403 0.0156832 0.00139039 0.00333391 -0.00161878 7.78192e-09 5.41765e-08 -2.54476e-08 0.0005 1.46608e-07 
75 1 0.018133 0.02337 0.011246 0.00194192 -0.00143274 -0.0117066 1.9629e-06 6.62986e-06 5.22226e-05 0.0005 1.46608e-07 
77 1 0.0361582 0.0233888 0.011161 0.000176011 -0.00121206 -0.0256363 -1.70693e-09 -1.62785e-08 -1.08787e-08 0.0005 1.46608e-07 
78 1 0.0298901 0.0231811 0.0101444 0.000169422 -0.00799476 -0.0237382 6.71833e-07 -1.67414e-06 -3.68859e-06 0.0005 1.46608e-07 
79 1 0.0257928 0.0183047 0.0165343 0.00462635 0.0188162 -0.0002885 3.94363e-08 3.37964e-07 -9.13572e-08 0.0005 1.46608e-07 
80 1 0.0302021 0.0233777 0.0114151 0.000234668 0.000323621 -0.0253558 -5.05044e-10 -1.53943e-08 -7.15194e-09 0.0005 1.46608e-07 
82 1 0.0176413 0.024086 0.0126762 0.000279766 0.00424914 -0.000937921 3.33695e-06 7.51799e-07 1.86298e-06 0.0005 1.46608e-07 
84 1 0.0369314 0.0220494 0.0144433 0.000173588 0.0197924 -0.0182488 1.20714e-10 -8.12133e-09 -1.51494e-08 0.0005 1.46608e-07 
89 1 0.0359698 0.0172882 0.00618836 -2.37463e-16 -1.87114e-15 -5.63569e-15 -7.92108e-21 3.38813e-21 -1.05879e-21 0.0005 1.46608e-07 
90 1 0.0377206 0.017749 0.00610856 9.3826e-16 -8.55089e-15 -2.18643e-14 7.76888e-21 -2.85874e-21 1.48231e-21 0.0005 1.46608e-07 
91 1 0.0447899 0.0195866 0.0182594 2.33612e-15 -1.50107e-15 -4.87691e-14 -1.23084e-21 1.86612e-21 0 0.0005 1.46608e-07 
93 1 0.0257153 0.0191015 0.0159319 0.00127834 0.013614 -0.0014747 -6.28183e-08 2.14604e-07 6.05797e-08 0.0005 1.46608e-07 
98 1 0.0233714 0.0217699 0.00840359 0.00146572 -0.017351 -0.0139658 -9.69755e-09 -2.89095e-08 -1.0765e-08 0.0005 1.46608e-07 
102 1 0.0431235 0.0213752 0.0151236 0.000957233 0.0178373 -0.0124211 -6.16197e-09 1.04894e-08 -2.31411e-08 0.0005 1.46608e-07 
106 1 0.0266049 0.0154196 0.0138277 0.000322106 0.0131502 0.0208151 -1.08272e-08 1.27553e-07 1.56786e-07 0.0005 1.46608e-07 
107 1 0.040686 0.018503 0.00594174 9.68173e-16 -8.55028e-15 -2.18632e-14 5.10205e-21 -7.41154e-22 4.23516e-22 0.0005 1.46608e-07 
108 1 0.0439091 0.0179831 0.0156859 -0.000378809 0.025382 0.00903112 -2.27366e-09 1.13187e-08 -1.24761e-08 0.0005 1.46608e-07 
110 1 0.0402989 0.017426 0.00750714 0.000717094 -0.0220847 0.00863492 1.4007e-08 1.82573e-08 8.29232e-09 0.0005 1.46608e-07 
114 1 0.0260207 0.0174086 0.0154811 0.000185333 0.0232639 0.0102577 3.28603e-09 1.25666e-07 5.07357e-09 0.0005 1.46608e-07 
116 1 0.0127674 0.0183091 0.00588303 -2.78562e-15 4.6309e-16 -3.14888e-14 -9.95264e-21 -2.35283e-20 0 0.0005 1.46608e-07 
119 1 0.0314473 0.0191334 0.00568594 -1.88669e-14 2.53286e-16 -2.21323e-13 -2.64698e-23 5.28699e-20 2.11758e-22 0.0005 1.46608e-07 
121 1 0.0879807 0.0206636 0.00600115 -1.57909e-14 -2.86377e-14 1.89139e-13 -1.04675e-19 3.25578e-19 4.04458e-20 0.0005 1.46608e-07 
122 1 0.0420076 0.0187879 0.00579333 -4.55595e-15 1.30144e-14 7.16649e-14 4.89162e-20 -1.76818e-20 6.35275e-21 0.0005 1.46608e-07 
123 1 0.0304398 0.0231939 0.0127995 0.00102958 0.00738247 -0.0202133 7.66727e-10 -1.79103e-08 -5.06746e-08 0.0005 1.46608e-07 
125 1 0.0434234 0.0201386 0.0156652 0.000199686 0.0250207 -0.00568877 -1.54945e-09 3.5578e-09 -1.67432e-08 0.0005 1.46608e-07 
128 1 0.0346455 0.00899128 0.0435188 9.7006e-317 -9.75154e-317 -8.23806e-13 0 0 0 0.0005 1.46608e-07 
133 1 0.0358848 0.0198623 0.00621717 0.0816889 0.0170894 0.00394102 0 0 -1.43822e-06 0.0005 1.46608e-07 
134 1 0.0209356 0.0148664 0.0130272 0.00217113 0.00460453 0.0100445 5.60494e-06 6.05269e-06 2.65588e-05 0.0005 1.46608e-07 
136 1 0.0270753 0.0191463 0.00600101 1.09668e-14 1.72813e-15 -1.78715e-13 -2.87197e-21 2.18607e-20 0 0.0005 1.46608e-07 
137 1 0.0365397 0.0230572 0.0131183 0.000937236 0.00878194 -0.0218816 -6.83327e-09 -5.61515e-09 -1.95001e-08 0.0005 1.46608e-07 
139 1 0.044497 0.0158504 0.0144269 0.00138092 0.0059139 0.00771663 -1.15273e-08 8.41225e-09 -2.96244e-08 0.0005 1.46608e-07 
141 1 0.0849179 0.0182538 0.00577769 -5.08952e-16 1.50246e-14 5.18897e-14 -1.29983e-20 2.17052e-21 -6.35275e-22 0.0005 1.46608e-07 
142 1 0.0397425 0.0155081 0.0091545 0.000116531 -0.0149808 0.0216 -7.08034e-10 9.82518e-09 1.64822e-08 0.0005 1.46608e-07 
146 1 0.0354844 0.022193 0.00854729 0.00219152 -0.000967655 -0.00500217 1.36162e-07 -2.45896e-08 7.17757e-08 0.0005 1.46608e-07 
148 1 0.0227004 0.0151217 0.0135742 0.00554988 -0.00795991 -0.0161061 4.84584e-06 3.4553e-06 1.30439e-05 0.0005 1.46608e-07 
152 1 0.0211117 0.0147166 0.0119569 0.00106056 -0.000777704 0.0286337 6.37532e-08 -4.73625e-09 -5.76751e-08 0.0005 1.46608e-07 
154 1 0.0167265 0.023873 0.013575 0.0030452 0.00104072 -0.00247835 -5.48158e-08 -6.60047e-09 6.85408e-08 0.0005 1.46608e-07 
155 1 0.0175945 0.0223857 0.0090272 2.11423e-05 -0.0146 -0.0210815 -2.25711e-09 -1.49696e-08 5.73291e-09 0.0005 1.46608e-07 
156 1 0.0357793 0.0213725 0.0435188 -9.69384e-317 9.51613e-317 -3.87031e-13 0 0 0 0.0005 1.46608e-07 
157 1 0.0385239 0.0184863 0.00585491 9.44439e-16 -8.55029e-15 -2.18643e-14 -4.23516e-22 -4.23516e-22 0 0.0005 1.46608e-07 
159 1 0.0276979 0.0153417 0.00935419 0.00114754 -0.01032 0.0209927 -1.2368e-08 -5.25854e-09 2.14477e-08 0.0005 1.46608e-07 
162 1 0.0382447 0.0167438 0.0151212 -0.0285145 -0.190226 0.938703 0.0224646 -0.0762372 0.0412973 0.0005 1.46608e-07 
163 1 0.0540291 0.0190025 0.00594807 -7.72163e-15 -1.92463e-14 -2.54265e-13 0 0 0 0.0005 1.46608e-07 
171 1 0.0403892 0.0171846 0.00644451 9.80699e-16 -8.55008e-15 -2.18628e-14 -2.18177e-20 -1.69407e-21 -4.23516e-22 0.0005 1.46608e-07 
172 1 0.028477 0.0180487 0.00733232 0.000216882 -0.0246385 0.00583138 -1.44233e-09 -8.172e-09 1.67829e-08 0.0005 1.46608e-07 
174 1 0.0202743 0.0140111 0.013157 -0.000830892 0.0021707 -0.00534568 -5.44288e-08 2.26594e-07 -5.43635e-07 0.0005 1.46608e-07 
176 1 0.0400446 0.0166074 0.00796109 0.00286753 -0.0102496 0.0099068 1.08812e-08 -1.71306e-07 1.63511e-07 0.0005 1.46608e-07 
178 1 0.0212014 0.0239789 0.0132474 -6.96134e-05 0.00063832 -0.000522443 -1.83512e-09 1.56424e-08 -1.30179e-08 0.0005 1.46608e-07 
182 1 0.0381473 0.017565 0.00838898 0.000204674 0.0161733 -0.00710411 -2.1164e-09 -1.1987e-07 -3.6701e-10 0.0005 1.46608e-07 
185 1 0.0349797 0.018622 0.0057716 -0.00224802 -0.00931414 0.00320171 1.5924e-07 8.48545e-07 -2.90048e-07 0.0005 1.46608e-07 
192 1 0.0168674 0.014294 0.0135009 0.0139927 -0.02625 -0.0404994 0 0 -1.43822e-06 0.0005 1.46608e-07 
196 1 0.0363882 0.0148385 0.0124725 -0.000365284 0.00283031 0.0158227 7.21688e-07 -6.32868e-08 6.61691e-07 0.0005 1.46608e-07 
197 1 0.0237816 0.0229768 0.00969836 0.00408647 -0.00449316 -0.011531 -2.85857e-05 1.18132e-05 -7.29725e-06 0.0005 1.46608e-07 
198 1 0.0161551 0.0148824 0.0130689 0.00164119 -0.000482907 -0.00701636 -7.49804e-09 -8.91071e-07 -2.80724e-07 0.0005 1.46608e-07 
202 1 0.0310546 0.0216728 0.0149088 -0.000132886 0.0234268 -0.0147557 3.58339e-09 -5.45991e-09 -1.4711e-08 0.0005 1.46608e-07 
204 1 0.0421898 0.0234062 0.0112936 0.00112204 -0.00059024 -0.0185035 -1.25487e-08 -2.72681e-08 4.02114e-08 0.0005 1.46608e-07 
206 1 0.0394163 0.0149267 0.0102649 0.00201421 -0.00413181 0.0179073 -9.38743e-09 2.85955e-09 3.72435e-08 0.0005 1.46608e-07 
208 1 0.019248 0.0139877 0.0129908 -0.000325203 -0.00171158 0.00283483 2.64286e-09 9.86757e-08 -1.42816e-07 0.0005 1.46608e-07 
212 1 0.037616 0.0194883 0.0157516 0.000180289 0.0264932 -0.000711171 5.17568e-09 -1.13579e-09 -1.46242e-08 0.0005 1.46608e-07 
214 1 0.0137523 0.0191876 0.00580989 4.40911e-15 -7.54783e-16 5.00262e-14 1.19061e-19 5.07204e-19 -3.17637e-21 0.0005 1.46608e-07 
217 1 0.02968 0.0228114 0.00927424 0.000301312 -0.00764078 -0.0136751 -9.4618e-07 -4.46938e-07 -1.1105e-06 0.0005 1.46608e-07 
224 1 0.0191666 0.0234805 0.0117964 -0.000160316 0.00968782 -0.00956659 -3.5869e-07 -0.000298689 0.000402914 0.0005 1.46608e-07 
225 1 0.196158 0.0167769 0.00890077 0.000393954 0.0113633 -0.0129007 2.92316e-09 1.97626e-07 -2.64013e-07 0.0005 1.46608e-07 
229 1 0.0254245 0.0211695 0.0165158 -0.000712128 0.000884047 -0.000495878 -1.10085e-08 5.51877e-08 5.38377e-08 0.0005 1.46608e-07 
230 1 0.0279162 0.0208618 0.00599849 3.07739e-15 1.79623e-14 -5.71337e-14 -8.07328e-21 -4.34104e-21 -1.69407e-21 0.0005 1.46608e-07 
232 1 0.0323961 0.0162782 0.0148141 0.000240618 0.0190544 0.0166374 -1.57316e-09 1.86899e-08 -4.80941e-09 0.0005 1.46608e-07 
239 1 0.0213348 0.0148066 0.0107285 0.000254117 -0.0052336 0.0249956 -8.14183e-10 1.31944e-08 1.16137e-08 0.0005 1.46608e-07 
240 1 0.0254654 0.0200217 0.0158152 0.00341187 0.011946 -0.00266831 -5.17266e-08 2.00527e-07 -5.58972e-08 0.0005 1.46608e-07 
244 1 0.0196805 0.0153404 0.00923619 9.42589e-05 -0.0149505 0.0228355 -1.42417e-06 3.84861e-07 -7.5632e-08 0.0005 1.46608e-07 
248 1 0.00296456 0.0113601 0.0435188 -9.73893e-317 -9.68349e-317 2.45201e-12 0 0 0 0.0005 1.46608e-07 
249 1 0.0288114 0.0193152 0.00591078 1.82092e-14 -1.73245e-16 2.13611e-13 0 3.84908e-21 0 0.0005 1.46608e-07 
256 1 0.030285 0.0191572 0.00578504 -7.85977e-15 7.52399e-17 -9.22016e-14 2.64698e-23 1.5003e-21 0 0.0005 1.46608e-07 
258 1 0.0423555 0.0232786 0.0123418 0.000142626 0.00580956 -0.0254649 -1.79899e-09 -1.28983e-08 -1.24672e-08 0.0005 1.46608e-07 
260 1 0.0320055 0.0175721 0.0155015 0.00200533 0.0184022 0.00528826 -1.93327e-08 6.08746e-08 1.45652e-08 0.0005 1.46608e-07 
261 1 0.0350598 0.0213046 0.00778733 0.00554249 -0.0093551 -0.000209371 4.72161e-08 8.2547e-08 1.33186e-07 0.0005 1.46608e-07 
263 1 0.0363936 0.0188878 0.0058027 0.0611794 -0.0314243 -0.00535699 -9.05163e-07 1.30022e-07 -7.16371e-09 0.0005 1.46608e-07 
265 1 0.0378661 0.0168241 0.00646873 6.11664e-15 -3.82469e-14 -1.01641e-13 6.68362e-21 2.22346e-21 -4.23516e-22 0.0005 1.46608e-07 
266 1 0.0217316 0.0205107 0.00595128 8.47556e-15 -3.80146e-15 7.75625e-14 -5.82335e-21 -8.43062e-21 2.11758e-22 0.0005 1.46608e-07 
267 1 0.0360441 0.0249743 0.0435188 -9.68005e-317 -9.73691e-317 2.01523e-12 0 0 0 0.0005 1.46608e-07 
271 1 0.0235569 0.0226326 0.00908672 0.00174042 -0.00265317 -0.00773167 -8.48213e-05 1.45162e-05 -4.23373e-05 0.0005 1.46608e-07 
275 1 0.0748406 0.0197444 0.00579981 5.43528e-15 3.17476e-14 -1.28236e-13 3.10663e-19 5.90276e-20 2.35052e-20 0.0005 1.46608e-07 
278 1 0.0219976 0.0237635 0.0138138 -4.35111e-05 0.000228843 -7.98817e-05 -7.6494e-09 2.0771e-08 -1.55499e-08 0.0005 1.46608e-07 
281 1 0.026114 0.0198481 0.00594898 9.38408e-16 1.5056e-16 -1.5292e-14 1.68083e-21 -6.81597e-21 0 0.0005 1.46608e-07 
290 1 0.00758099 0.0189521 0.00570394 9.5752e-16 1.9823e-16 -9.75995e-15 1.04291e-20 -6.77759e-20 0 0.0005 1.46608e-07 
295 1 0.028717 0.0191588 0.007155 0.00103384 -0.0188946 -0.000642291 1.7362e-09 -2.3756e-09 1.63369e-08 0.0005 1.46608e-07 
296 1 0.0206201 0.0197459 0.00603524 -1.51902e-14 6.81632e-15 -1.39018e-13 2.64698e-23 -8.33798e-22 -2.11758e-22 0.0005 1.46608e-07 
