ITEM: TIMESTEP
24000000
ITEM: NUMBER OF ATOMS
118
ITEM: BOX BOUNDS ff ff ff
-0.02 0.43
-0.02 0.06
-0.02 0.1
ITEM: ATOMS id type x y z vx vy vz fx fy fz radius mass 
1 1 0.252013 0.0190249 0.00581222 -3.18029e-15 9.96083e-15 8.63343e-14 -1.524e-20 -1.87935e-21 -4.23516e-22 0.0005 1.46608e-07 
4 1 0.0389495 0.016101 0.00835492 0.00279355 -0.0076724 0.00715656 -3.64731e-10 5.86549e-08 -2.62951e-08 0.0005 1.46608e-07 
6 1 0.0391841 0.0168002 0.00782023 0.00125954 -0.00971686 0.00684235 2.60185e-08 1.34195e-07 -1.29149e-07 0.0005 1.46608e-07 
12 1 0.0310724 0.0172035 0.0153999 0.00163921 0.0165969 0.00809811 -2.26058e-08 2.87523e-07 -2.13631e-08 0.0005 1.46608e-07 
13 1 0.0331407 0.0165976 0.00794357 0.000840117 -0.0133634 0.00838903 6.49605e-09 2.88465e-08 -1.92135e-08 0.0005 1.46608e-07 
15 1 0.0513379 0.0175581 0.00746807 0.000251101 -0.0224514 0.00874801 -5.14651e-10 -7.02553e-09 1.58537e-08 0.0005 1.46608e-07 
16 1 0.0201213 0.0145806 0.0121327 0.00206762 -0.0041463 0.0202202 1.59574e-06 2.8165e-07 2.47013e-06 0.0005 1.46608e-07 
17 1 0.0232927 0.0201366 0.00585921 8.91119e-19 -1.29321e-19 -1.08822e-18 2.11758e-22 -6.08805e-22 -6.35275e-22 0.0005 1.46608e-07 
18 1 0.0389556 0.0163742 0.00669954 2.97498e-15 -2.69561e-14 -6.8927e-14 -8.5365e-22 1.05879e-22 2.11758e-22 0.0005 1.46608e-07 
19 1 0.0330978 0.0185299 0.00586239 -9.74251e-16 -9.43694e-15 -2.80544e-14 -4.50172e-19 -3.65283e-21 1.48231e-20 0.0005 1.46608e-07 
21 1 0.0417758 0.0224694 0.0140368 -0.000145648 0.0173895 -0.0202909 -2.51811e-09 -6.23299e-09 -1.7467e-08 0.0005 1.46608e-07 
25 1 0.0483813 0.0201666 0.0156405 -0.000277876 0.0236273 -0.00645956 4.58038e-10 1.22297e-08 -1.94944e-09 0.0005 1.46608e-07 
26 1 0.0296161 0.0228429 0.0135366 5.86382e-05 0.0128949 -0.022231 -5.34564e-10 -9.70062e-09 -1.4991e-08 0.0005 1.46608e-07 
28 1 0.0412118 0.017692 0.00619869 8.17429e-15 2.76326e-14 7.91014e-14 3.17637e-21 1.12232e-20 -6.14099e-21 0.0005 1.46608e-07 
31 1 0.0806483 0.01885 0.00580414 2.95525e-15 9.81057e-15 4.1639e-14 1.41349e-20 -2.48816e-20 5.29396e-21 0.0005 1.46608e-07 
32 1 0.0429866 0.0177512 0.0155871 3.35663e-05 0.0246552 0.00965537 2.03504e-11 1.01824e-08 -1.36258e-08 0.0005 1.46608e-07 
33 1 0.0152483 0.0194266 0.0167343 -5.59525e-09 0.0289278 -0.00225532 -1.36011e-14 -1.98502e-09 -2.31644e-08 0.0005 1.46608e-07 
35 1 0.0165431 0.0197895 0.00593696 -3.69989e-14 -1.48423e-14 3.04864e-13 1.972e-20 -4.89823e-20 0 0.0005 1.46608e-07 
36 1 0.0662017 0.0188213 0.00577467 5.38511e-16 -7.34394e-16 -1.33882e-14 -1.42752e-19 -7.47771e-20 2.32934e-21 0.0005 1.46608e-07 
40 1 0.0412094 0.0234001 0.0116428 0.00055394 0.00155299 -0.0247916 -1.21368e-09 -1.39878e-08 -8.46085e-09 0.0005 1.46608e-07 
41 1 0.0343692 0.0219535 0.00826206 0.000871976 -0.0128331 -0.0110853 6.07826e-08 7.83163e-08 1.0595e-07 0.0005 1.46608e-07 
42 1 0.0497657 0.0152225 0.0133792 -0.000170089 0.00829353 0.0252149 -6.08942e-07 3.50246e-08 8.04764e-07 0.0005 1.46608e-07 
49 1 0.0363035 0.0204613 0.0155438 0.00107809 0.0170862 -0.00672736 1.16925e-07 -1.23883e-07 -2.05908e-08 0.0005 1.46608e-07 
51 1 0.0475332 0.0229832 0.0130561 0.00057405 0.00849468 -0.0227781 -6.72545e-09 -6.54276e-09 -1.69811e-08 0.0005 1.46608e-07 
52 1 0.0453055 0.0175264 0.00755004 0.000103688 -0.0240329 0.0088098 -7.50233e-10 -6.08558e-10 1.69134e-08 0.0005 1.46608e-07 
53 1 0.0498788 0.0206592 0.00591316 -6.2026e-15 1.33259e-14 1.38376e-13 5.26749e-21 -1.37643e-21 0 0.0005 1.46608e-07 
54 1 0.0407409 0.0228976 0.0095438 0.000137699 -0.0109361 -0.0232748 -9.61087e-10 -1.82247e-08 -1.26822e-09 0.0005 1.46608e-07 
56 1 0.119071 0.0203608 0.0059107 1.09441e-15 2.46956e-14 -1.19876e-13 4.96308e-24 5.29396e-23 0 0.0005 1.46608e-07 
62 1 0.0252612 0.0180948 0.00607594 -2.57575e-14 -5.36199e-14 -1.75233e-13 1.94288e-20 1.31343e-19 -5.06102e-20 0.0005 1.46608e-07 
65 1 0.021242 0.0171947 0.00759601 0.000944914 -0.0205103 0.0118465 1.24939e-09 -1.67131e-07 1.21749e-07 0.0005 1.46608e-07 
66 1 0.0480549 0.0217073 0.0149216 0.0013424 0.0186088 -0.0137444 -2.39054e-08 9.88736e-08 -1.06691e-07 0.0005 1.46608e-07 
68 1 0.042026 0.0217693 0.01477 0.000680703 0.0178428 -0.0151704 -5.77477e-09 1.50218e-08 -2.8262e-08 0.0005 1.46608e-07 
71 1 0.0976912 0.0174781 0.00629452 -1.90837e-15 -7.30154e-14 -2.20718e-13 -2.21706e-19 -3.44107e-21 2.11758e-21 0.0005 1.46608e-07 
74 1 0.0316223 0.0155665 0.0140345 0.00108559 0.00798789 0.014754 3.59175e-09 -1.60061e-08 -4.02614e-08 0.0005 1.46608e-07 
75 1 0.0275248 0.0184162 0.00727036 0.00100821 -0.0256157 0.002805 -3.28239e-08 3.50853e-08 -3.23075e-08 0.0005 1.46608e-07 
77 1 0.0435633 0.015641 0.0141489 0.00151197 0.0125897 0.0167078 -1.11439e-08 8.15771e-08 6.04893e-08 0.0005 1.46608e-07 
78 1 0.0364735 0.0197614 0.0157331 0.00448566 0.00891591 -0.00121383 -1.22199e-07 -1.67433e-06 4.71787e-07 0.0005 1.46608e-07 
79 1 0.0243499 0.0208432 0.0155676 0.000305393 0.0235579 -0.0104034 -1.27041e-09 -3.42776e-09 -2.21745e-08 0.0005 1.46608e-07 
80 1 0.0374779 0.0158938 0.0143849 0.00083043 0.0163963 0.0181825 -9.30557e-09 2.46578e-08 9.63015e-09 0.0005 1.46608e-07 
82 1 0.0210935 0.0163979 0.00807448 0.000304655 -0.0202678 0.01503 -8.49457e-09 -3.55002e-08 3.63174e-08 0.0005 1.46608e-07 
84 1 0.0409832 0.0233206 0.010714 0.000856957 -0.00482979 -0.0206888 -6.41449e-09 -2.04096e-08 -2.34761e-08 0.0005 1.46608e-07 
89 1 0.0359698 0.0172882 0.00618836 -2.26793e-16 -1.89394e-15 -5.6284e-15 9.94271e-20 5.29396e-22 -1.69407e-21 0.0005 1.46608e-07 
90 1 0.0377206 0.017749 0.00610856 9.35779e-16 -8.55285e-15 -2.18636e-14 -1.43069e-20 4.02341e-21 -2.11758e-21 0.0005 1.46608e-07 
91 1 0.0447899 0.0195866 0.0182594 2.33592e-15 -1.5007e-15 -4.87691e-14 -1.23084e-21 1.01247e-21 -2.11758e-22 0.0005 1.46608e-07 
93 1 0.0321555 0.0147458 0.011512 0.000851705 -0.00026878 0.0179405 6.07963e-08 -7.75572e-08 -2.72826e-07 0.0005 1.46608e-07 
98 1 0.0220184 0.0212339 0.00632002 9.92395e-15 6.28162e-14 -1.29348e-13 3.97047e-23 -1.05879e-22 -2.11758e-22 0.0005 1.46608e-07 
102 1 0.049993 0.0149337 0.0122234 -0.000111414 0.00369344 0.0254222 -2.34909e-10 1.61662e-08 1.4985e-09 0.0005 1.46608e-07 
106 1 0.0327856 0.0156542 0.00886467 0.00030618 -0.0157267 0.0193452 -3.40989e-07 9.2892e-08 -3.0651e-07 0.0005 1.46608e-07 
107 1 0.0406379 0.0190109 0.00574104 9.43704e-16 -8.55059e-15 -2.18642e-14 -7.41154e-22 1.05879e-22 -2.11758e-22 0.0005 1.46608e-07 
108 1 0.050743 0.0155661 0.00900386 -3.07722e-06 -0.0159939 0.0204875 -1.54665e-09 8.48436e-09 1.60141e-08 0.0005 1.46608e-07 
110 1 0.0528726 0.0173476 0.0061047 4.03628e-15 1.44119e-14 2.16419e-13 -1.434e-20 -5.4263e-22 4.23516e-22 0.0005 1.46608e-07 
114 1 0.0325655 0.0151432 0.00968201 0.00189352 -0.00642804 0.0161183 6.61413e-08 -2.76571e-07 1.07779e-06 0.0005 1.46608e-07 
116 1 0.0127674 0.0183091 0.00588303 -2.77767e-15 4.92771e-16 -3.1489e-14 1.80259e-20 4.60773e-20 -1.05879e-21 0.0005 1.46608e-07 
119 1 0.0314473 0.0191334 0.00568594 -1.88664e-14 2.06033e-16 -2.21323e-13 -1.82641e-21 -1.00418e-19 0 0.0005 1.46608e-07 
121 1 0.0879807 0.0206636 0.00600115 -1.56539e-14 -2.86372e-14 1.8915e-13 -2.39419e-20 2.35581e-20 6.35275e-22 0.0005 1.46608e-07 
122 1 0.0418592 0.0190772 0.00573132 8.81368e-15 -2.52612e-14 -1.38789e-13 2.01303e-20 7.42742e-20 -1.46113e-20 0.0005 1.46608e-07 
123 1 0.037765 0.015109 0.0132093 0.000368923 0.00982207 0.0217389 -2.67105e-09 1.90079e-08 6.49427e-09 0.0005 1.46608e-07 
125 1 0.0502617 0.0148923 0.0110157 0.000805638 -0.0041553 0.0235226 2.70293e-08 1.83008e-08 -3.92384e-08 0.0005 1.46608e-07 
128 1 0.0346455 0.00899128 0.0435188 9.7006e-317 -9.75154e-317 -8.23806e-13 0 0 0 0.0005 1.46608e-07 
133 1 0.0373966 0.0197554 0.00594148 -8.32067e-15 2.90977e-14 -1.33835e-13 1.82774e-20 -2.17052e-20 -5.0822e-21 0.0005 1.46608e-07 
134 1 0.0264664 0.0149296 0.0102719 0.00016024 -0.00910233 0.0245672 2.06114e-08 1.15085e-08 -1.43679e-07 0.0005 1.46608e-07 
136 1 0.0270753 0.0191463 0.00600101 1.09615e-14 1.77031e-15 -1.78715e-13 2.73962e-21 -1.97498e-20 -2.11758e-22 0.0005 1.46608e-07 
137 1 0.0437688 0.0151119 0.0131736 0.000180038 0.00979672 0.0224191 -1.73078e-09 1.76753e-08 4.43657e-09 0.0005 1.46608e-07 
139 1 0.0514953 0.0184339 0.00720153 0.000564895 -0.0204515 0.00355058 -3.04667e-10 -1.2058e-08 2.29356e-08 0.0005 1.46608e-07 
141 1 0.0849179 0.0182538 0.00577769 -5.16507e-16 1.50256e-14 5.18894e-14 1.22158e-20 3.17637e-21 -6.35275e-22 0.0005 1.46608e-07 
142 1 0.046511 0.0222874 0.00869035 0.00177469 -0.0135459 -0.0178982 1.21526e-08 -1.16591e-09 2.34609e-08 0.0005 1.46608e-07 
146 1 0.0432892 0.0163511 0.0148181 0.000557918 0.0168318 0.0124817 -8.30137e-09 2.74607e-08 6.56595e-09 0.0005 1.46608e-07 
148 1 0.0276717 0.0215925 0.00627054 -6.09325e-16 -6.60809e-14 1.52176e-13 -2.46913e-21 -1.05879e-22 0 0.0005 1.46608e-07 
152 1 0.0341335 0.019268 0.00579914 9.38714e-16 5.06314e-15 -1.96335e-14 0 0 0 0.0005 1.46608e-07 
154 1 0.0259144 0.0148727 0.0124925 0.000351863 0.00592638 0.0231707 -3.51741e-09 1.78255e-08 1.13442e-08 0.0005 1.46608e-07 
155 1 0.0283907 0.0220003 0.00830872 0.00105348 -0.0143434 -0.0138325 8.01861e-09 4.83654e-08 8.49771e-08 0.0005 1.46608e-07 
156 1 0.0357793 0.0213725 0.0435188 -9.69384e-317 9.51613e-317 -3.87031e-13 0 0 0 0.0005 1.46608e-07 
157 1 0.0385239 0.0184863 0.00585491 9.4428e-16 -8.55009e-15 -2.18643e-14 -5.36013e-22 5.29396e-22 -2.11758e-22 0.0005 1.46608e-07 
159 1 0.0337106 0.0191599 0.00740141 0.00314395 -0.0331621 0.0012857 7.62472e-08 -6.76372e-08 -7.34961e-08 0.0005 1.46608e-07 
162 1 0.0449996 0.0162847 0.00822424 0.000857609 -0.00898907 0.00751961 1.5295e-09 -1.31463e-08 -5.95394e-09 0.0005 1.46608e-07 
163 1 0.0423311 0.0200663 0.00591039 -3.37198e-16 2.93975e-15 -9.32782e-15 -1.12609e-19 3.17637e-22 3.81165e-21 0.0005 1.46608e-07 
171 1 0.0403367 0.0172087 0.00643282 9.75101e-16 -8.55087e-15 -2.18627e-14 -2.11824e-20 -2.0117e-21 -2.11758e-22 0.0005 1.46608e-07 
172 1 0.03367 0.0231043 0.00993401 -0.000175818 -0.00857253 -0.0211015 1.31778e-09 -1.91512e-08 -1.08821e-08 0.0005 1.46608e-07 
174 1 0.0247139 0.0192489 0.0159437 0.00056421 0.0245801 -0.00120677 -2.50121e-10 6.15797e-11 -1.97026e-08 0.0005 1.46608e-07 
176 1 0.0468207 0.023073 0.0100069 0.000273552 -0.00885152 -0.0227435 -1.58291e-09 -1.74824e-08 -5.24779e-09 0.0005 1.46608e-07 
178 1 0.0225944 0.0194213 0.00588797 -8.66998e-19 5.47092e-19 -7.60525e-19 5.29396e-23 5.02926e-22 6.35275e-22 0.0005 1.46608e-07 
182 1 0.0522517 0.0176997 0.00831292 0.00049729 0.00763665 -0.000254285 -6.89462e-09 8.82962e-08 -2.66537e-07 0.0005 1.46608e-07 
185 1 0.0349776 0.0186145 0.00577417 4.50618e-15 4.76381e-14 1.41761e-13 -2.25258e-20 -2.64698e-21 1.69407e-21 0.0005 1.46608e-07 
192 1 0.0281042 0.020984 0.00765832 0.000363513 -0.0211443 -0.00988992 -1.99952e-09 -1.98677e-08 5.08296e-09 0.0005 1.46608e-07 
196 1 0.0422437 0.0210409 0.0153394 0.00111859 0.0168835 -0.00935152 -6.31434e-09 1.69092e-08 -3.65488e-08 0.0005 1.46608e-07 
197 1 0.0202673 0.0147297 0.0111548 0.000561206 -0.00353757 0.025547 1.34443e-06 8.08928e-07 1.16342e-06 0.0005 1.46608e-07 
198 1 0.0139469 0.0221025 0.0147345 0.00419485 0.00675843 -0.00512266 1.29651e-09 3.5272e-09 9.67013e-09 0.0005 1.46608e-07 
202 1 0.0381991 0.0148373 0.0116001 0.000246006 -0.000187083 0.0256759 -3.93324e-09 1.4806e-08 7.29013e-09 0.0005 1.46608e-07 
204 1 0.048903 0.0181853 0.0157052 0.000303968 0.0239941 0.00474466 -2.05877e-09 1.52144e-08 -1.12433e-08 0.0005 1.46608e-07 
206 1 0.0463115 0.0217725 0.0081663 0.00243247 -0.0139759 -0.0103568 -5.51781e-09 -1.66089e-08 -2.34427e-09 0.0005 1.46608e-07 
208 1 0.0173398 0.0234956 0.0118948 0.0048329 5.65891e-05 -0.00690811 9.46755e-08 -4.50845e-07 -8.72208e-07 0.0005 1.46608e-07 
212 1 0.0442658 0.0148604 0.0109724 0.00017594 -0.0048348 0.0259751 -2.71791e-11 1.59511e-08 7.81673e-09 0.0005 1.46608e-07 
214 1 0.0137447 0.0191734 0.00581033 2.17979e-14 -3.83585e-15 2.47018e-13 -3.70577e-21 -6.84178e-20 -4.23516e-22 0.0005 1.46608e-07 
217 1 0.0329166 0.0152832 0.0135039 -0.000124698 0.0103607 0.0229719 -4.19791e-10 1.472e-08 6.1992e-10 0.0005 1.46608e-07 
224 1 0.0219686 0.0206195 0.00754326 0.000306688 -0.0253647 -0.0098275 -3.27387e-08 -2.53681e-07 -9.60431e-08 0.0005 1.46608e-07 
225 1 0.195916 0.0173057 0.00852508 5.00168e-11 -0.0208221 0.0121273 1.06292e-13 1.21361e-08 2.1055e-08 0.0005 1.46608e-07 
229 1 0.0300097 0.021879 0.0147863 0.00126379 0.0167243 -0.014153 -1.04804e-09 -9.26601e-09 -2.10858e-08 0.0005 1.46608e-07 
230 1 0.0280286 0.0204018 0.00597839 -2.17631e-14 2.06764e-16 -2.55302e-13 -2.64698e-23 -3.33147e-22 0 0.0005 1.46608e-07 
232 1 0.0400072 0.020515 0.00742993 0.0010548 -0.00963422 -0.00339568 6.01163e-09 5.81389e-08 8.81598e-09 0.0005 1.46608e-07 
239 1 0.0236862 0.022563 0.0142289 0.00226086 0.00303003 -0.00361681 1.73365e-09 1.5723e-08 -9.66761e-10 0.0005 1.46608e-07 
240 1 0.0318452 0.0150172 0.0128337 0.000202621 0.00759399 0.0239729 -1.65993e-09 1.67481e-08 2.61517e-09 0.0005 1.46608e-07 
244 1 0.00849718 0.0184381 0.0057869 1.93973e-14 2.88172e-15 -1.96353e-13 2.64698e-23 -4.20208e-22 0 0.0005 1.46608e-07 
248 1 0.00296456 0.0113601 0.0435188 -9.73893e-317 -9.68349e-317 2.45201e-12 0 0 0 0.0005 1.46608e-07 
249 1 0.0288114 0.0193152 0.00591078 1.82091e-14 -1.7221e-16 2.13611e-13 0 -1.28751e-21 0 0.0005 1.46608e-07 
256 1 0.030285 0.0191572 0.00578504 -7.86005e-15 7.52201e-17 -9.22016e-14 0 6.32586e-22 0 0.0005 1.46608e-07 
258 1 0.0491667 0.0168111 0.0151798 9.76652e-05 0.0215808 0.0148241 -1.59508e-09 1.25627e-08 -9.57733e-09 0.0005 1.46608e-07 
260 1 0.0393403 0.0176633 0.0074199 0.000277947 -0.0222109 0.00790225 2.97462e-09 4.93157e-08 -1.81238e-09 0.0005 1.46608e-07 
261 1 0.0426583 0.0190897 0.0157825 0.000743714 0.023091 -0.000509876 -7.70934e-09 1.65521e-08 -1.15579e-08 0.0005 1.46608e-07 
263 1 0.0369306 0.0186778 0.00573872 2.33791e-15 -1.30731e-14 6.67393e-14 1.61023e-18 -1.75336e-19 -9.82558e-20 0.0005 1.46608e-07 
265 1 0.0378661 0.0168241 0.00646873 6.12358e-15 -3.82452e-14 -1.01641e-13 -3.26902e-21 -2.32934e-21 6.35275e-22 0.0005 1.46608e-07 
266 1 0.021718 0.0203564 0.0059452 -2.11055e-14 9.4668e-15 -1.93164e-13 5.29396e-23 3.97047e-23 0 0.0005 1.46608e-07 
267 1 0.0360441 0.0249743 0.0435188 -9.68005e-317 -9.73691e-317 2.01523e-12 0 0 0 0.0005 1.46608e-07 
271 1 0.0307223 0.0189469 0.015824 0.000691317 0.0218159 0.00118373 3.69569e-10 -1.44604e-08 -2.37983e-08 0.0005 1.46608e-07 
275 1 0.0748406 0.0197444 0.00579981 6.3677e-15 3.17188e-14 -1.282e-13 1.58064e-19 4.02182e-19 1.04185e-19 0.0005 1.46608e-07 
281 1 0.026114 0.0198481 0.00594898 9.38212e-16 1.45443e-16 -1.5292e-14 -1.0985e-21 -2.17383e-21 0 0.0005 1.46608e-07 
290 1 0.00760295 0.01894 0.00570593 9.64e-16 1.44162e-16 -9.76012e-15 2.64698e-23 -4.76456e-22 0 0.0005 1.46608e-07 
295 1 0.0350236 0.0233451 0.0108709 0.000703009 -0.00220017 -0.0263885 -1.11011e-06 -2.07057e-06 -1.94689e-05 0.0005 1.46608e-07 
296 1 0.0206201 0.0197459 0.00603524 -1.51902e-14 6.81174e-15 -1.39019e-13 0 1.72054e-22 0 0.0005 1.46608e-07 
