ITEM: TIMESTEP
9000000
ITEM: NUMBER OF ATOMS
160
ITEM: BOX BOUNDS ff ff ff
-0.02 0.43
-0.02 0.06
-0.02 0.1
ITEM: ATOMS id type x y z vx vy vz fx fy fz radius mass 
1 1 0.03126 0.0229402 0.00956875 0.000411866 -0.0111924 -0.021354 2.29198e-09 -8.05242e-08 -1.53939e-07 0.0005 1.46608e-07 
4 1 0.0161395 0.0155766 0.014273 0.00519283 0.00183517 0.00310275 -6.13224e-08 -2.52183e-07 -1.31172e-07 0.0005 1.46608e-07 
6 1 0.0163176 0.0144129 0.0136612 -0.000225104 0.000522935 -0.000693654 3.20497e-07 -1.73369e-07 1.96702e-08 0.0005 1.46608e-07 
9 1 0.0209102 0.0234765 0.0119093 0.000130143 5.52844e-05 -0.000518048 -4.98808e-07 3.21037e-07 -6.96599e-07 0.0005 1.46608e-07 
12 1 0.0146796 0.0217412 0.0151972 0.00547918 0.00648835 0.00367582 1.8236e-06 -5.77656e-06 6.86008e-06 0.0005 1.46608e-07 
13 1 0.0212854 0.0197274 0.0200104 0.118956 -0.236727 0.281684 0 0 -1.43822e-06 0.0005 1.46608e-07 
15 1 0.0324546 0.0220977 0.014573 0.000783338 0.016739 -0.0145024 5.5766e-09 -1.62726e-08 -2.04052e-08 0.0005 1.46608e-07 
16 1 0.0189956 0.0237423 0.0137609 0.000393328 0.0017016 -0.00206343 4.32014e-07 -1.01223e-07 8.11453e-07 0.0005 1.46608e-07 
17 1 0.0160807 0.0226286 0.0141431 0.00776965 0.000540853 -0.00439749 5.07052e-07 1.25004e-06 -6.7874e-06 0.0005 1.46608e-07 
18 1 0.0336338 0.0171405 0.0153254 0.000683569 0.0212015 0.00962988 -4.70491e-09 2.06673e-08 -5.76382e-09 0.0005 1.46608e-07 
19 1 0.0321071 0.0199424 0.00590196 7.84835e-16 2.01831e-14 -6.87786e-14 -2.62464e-20 -3.70577e-22 -4.23516e-22 0.0005 1.46608e-07 
21 1 0.0196791 0.0209286 0.0172336 0.111838 -0.140485 0.0880961 0 0 -1.43822e-06 0.0005 1.46608e-07 
22 1 0.0208453 0.0232769 0.0127742 0.0022493 -0.000297583 -0.00176277 2.3346e-07 1.31712e-07 -1.827e-06 0.0005 1.46608e-07 
24 1 0.0200476 0.0140184 0.0130338 0.00133441 -0.00122056 0.00348992 2.42881e-07 2.5934e-08 9.18319e-09 0.0005 1.46608e-07 
25 1 0.032265 0.0226853 0.0137966 0.000460121 0.0129491 -0.0206362 1.11746e-08 -2.28053e-08 4.44239e-08 0.0005 1.46608e-07 
26 1 0.0212836 0.0239635 0.0132578 0.000107251 -8.0183e-05 1.84506e-07 7.69355e-07 -5.7579e-07 -1.07506e-07 0.0005 1.46608e-07 
28 1 0.0300042 0.01806 0.00731081 0.000419245 -0.0236063 0.00572958 -1.54912e-09 -7.5516e-09 1.65142e-08 0.0005 1.46608e-07 
30 1 0.0176922 0.0240639 0.0130125 -0.000227068 0.00290265 -0.00218284 6.26493e-07 1.45519e-09 -5.52744e-08 0.0005 1.46608e-07 
31 1 0.0294689 0.015977 0.00848031 0.00234237 -0.0096174 0.00797074 1.70065e-05 -8.40471e-05 0.000130521 0.0005 1.46608e-07 
32 1 0.0236993 0.0153095 0.0148971 0.0102208 0.00812386 0.00831041 -3.21774e-07 1.14733e-07 -1.0417e-06 0.0005 1.46608e-07 
33 1 0.0234954 0.016106 0.00832445 0.000422833 -0.0169663 0.0143747 1.15806e-08 2.97791e-07 -2.10149e-07 0.0005 1.46608e-07 
35 1 0.0165201 0.019817 0.00593552 1.30231e-14 5.25943e-15 -1.07337e-13 -2.40875e-21 2.53051e-20 8.47033e-22 0.0005 1.46608e-07 
36 1 0.0662017 0.0188213 0.00577467 7.49667e-17 -8.09229e-16 -1.33896e-14 -2.66766e-19 -6.84111e-20 8.47033e-22 0.0005 1.46608e-07 
37 1 0.0203088 0.0239762 0.0146009 1.88579e-05 0.00163796 -0.000242843 -4.4228e-06 -1.87192e-06 7.04081e-06 0.0005 1.46608e-07 
40 1 0.0224345 0.0222789 0.014559 0.00465799 0.00436059 -0.000808815 7.56265e-07 -5.04839e-06 7.63172e-06 0.0005 1.46608e-07 
41 1 0.0207742 0.0231238 0.0145987 0.00481423 0.00726512 -0.00220931 5.27325e-06 5.59637e-06 -6.20924e-06 0.0005 1.46608e-07 
42 1 0.031759 0.0233699 0.011721 0.000267526 0.00126894 -0.0243255 -3.71316e-09 -8.28997e-09 -3.54803e-08 0.0005 1.46608e-07 
49 1 0.0203484 0.023283 0.010526 0.00206882 0.000811391 -0.00485911 2.73837e-05 -3.57148e-06 -7.34609e-06 0.0005 1.46608e-07 
50 1 0.025132 0.0214986 0.0162945 0.12109 -0.13836 0.0897809 -7.90903e-07 9.53597e-08 -1.27385e-06 0.0005 1.46608e-07 
51 1 0.0291514 0.0151958 0.00968691 -0.0146155 -0.0855718 -0.0239311 -0.0879137 -0.28129 -0.0484823 0.0005 1.46608e-07 
52 1 0.0280785 0.015486 0.0138764 0.00115339 0.0130845 0.0207547 2.67251e-08 -1.03558e-08 -3.37577e-08 0.0005 1.46608e-07 
53 1 0.034009 0.0158281 0.0143533 0.000871133 0.00972379 0.0134732 -1.35504e-09 -5.27554e-09 -1.78751e-08 0.0005 1.46608e-07 
54 1 0.026678 0.0209961 0.0153519 0.00310528 0.0114253 -0.00663856 8.12079e-07 -1.59373e-06 1.29899e-06 0.0005 1.46608e-07 
56 1 0.119071 0.0203608 0.0059107 1.0945e-15 2.46954e-14 -1.19876e-13 7.7755e-23 0 0 0.0005 1.46608e-07 
57 1 0.0158261 0.0157626 0.0169409 -0.0524703 -0.0326877 0.141272 0 0 -1.43822e-06 0.0005 1.46608e-07 
58 1 0.0163034 0.0198067 0.015884 -1.27826e-06 0.0237616 -0.00421219 1.62309e-09 -3.49552e-09 -1.96633e-08 0.0005 1.46608e-07 
61 1 0.0183933 0.0146277 0.0119283 1.16798e-06 -0.0002965 0.000491779 7.96346e-11 -2.44669e-08 4.70776e-08 0.0005 1.46608e-07 
62 1 0.0252612 0.0180948 0.00607594 -2.54393e-14 -5.38353e-14 -1.75215e-13 -5.47924e-20 -6.85567e-20 3.04932e-20 0.0005 1.46608e-07 
65 1 0.0164807 0.021213 0.0153818 -0.0097269 0.0173024 -0.0039195 0 0 -1.43822e-06 0.0005 1.46608e-07 
66 1 0.027428 0.0210719 0.0153038 0.00526584 0.00581487 -0.00418005 3.26944e-06 8.45766e-07 -6.31157e-07 0.0005 1.46608e-07 
67 1 0.0190221 0.014013 0.0129488 -5.05405e-05 -0.000476226 0.000791099 -1.97391e-09 -1.9003e-08 3.15682e-08 0.0005 1.46608e-07 
68 1 0.0240543 0.0182693 0.00730495 0.000503699 -0.024869 0.00433977 -6.48215e-09 -1.22401e-08 1.63628e-08 0.0005 1.46608e-07 
71 1 0.0976912 0.0174781 0.00629452 -1.91453e-15 -7.30176e-14 -2.20718e-13 1.22985e-20 -3.49401e-21 -2.11758e-22 0.0005 1.46608e-07 
72 1 0.0169089 0.015215 0.0137459 0.000599543 0.000209306 -0.00166373 -4.6327e-07 -1.31789e-07 1.28406e-06 0.0005 1.46608e-07 
74 1 0.0168187 0.0239118 0.0134719 0.000446368 0.000807451 -0.000645217 2.38635e-08 -1.41924e-08 4.79154e-08 0.0005 1.46608e-07 
75 1 0.0140643 0.0225751 0.0154548 0.0016828 0.0015238 -0.00356885 2.47516e-07 3.07224e-07 -3.84416e-07 0.0005 1.46608e-07 
76 1 0.0168643 0.021781 0.0161164 -0.00642151 0.00226381 0.0279898 0 0 -1.43822e-06 0.0005 1.46608e-07 
77 1 0.0262158 0.022742 0.0135186 0.000116673 0.0148719 -0.0220256 -8.25301e-10 -1.12371e-08 -7.82349e-09 0.0005 1.46608e-07 
78 1 0.0151767 0.0195543 0.0159141 0.00049688 0.0245629 -0.00279789 -2.98938e-10 -8.08138e-10 -1.99988e-08 0.0005 1.46608e-07 
79 1 0.0151394 0.0228341 0.0138606 0.00650607 0.0032777 -0.00182841 2.04262e-06 -3.64523e-07 -7.45056e-07 0.0005 1.46608e-07 
80 1 0.014721 0.0231794 0.0150037 0.00298801 0.00265118 -5.60177e-05 -2.4538e-07 -7.02981e-07 6.87085e-07 0.0005 1.46608e-07 
82 1 0.0236833 0.0169295 0.00770972 0.00103048 -0.0189532 0.0113835 -3.63518e-09 -1.57758e-08 3.23489e-08 0.0005 1.46608e-07 
83 1 0.0231224 0.0154296 0.0140892 0.00300072 0.0103697 0.0162085 3.11725e-06 -2.25649e-07 2.23176e-06 0.0005 1.46608e-07 
84 1 0.0269236 0.0203556 0.0156332 0.00498991 0.00702672 -0.000585571 -2.48556e-06 -1.14607e-07 4.39535e-07 0.0005 1.46608e-07 
85 1 0.0196479 0.0148987 0.0147378 -0.0014504 0.00100421 0.00281985 9.13092e-09 -3.01122e-07 -3.28228e-07 0.0005 1.46608e-07 
89 1 0.0198281 0.02344 0.0118999 0.00463817 0.00781833 -0.031738 7.2224e-08 2.31115e-07 -2.98552e-07 0.0005 1.46608e-07 
90 1 0.0364888 0.0185931 0.00573332 -2.43021e-15 -2.55819e-14 -7.61212e-14 -2.60595e-20 5.29396e-22 6.35275e-22 0.0005 1.46608e-07 
91 1 0.0447899 0.0195866 0.0182594 2.33884e-15 -1.49867e-15 -4.8769e-14 3.58666e-21 1.26592e-20 -2.11758e-22 0.0005 1.46608e-07 
93 1 0.0184163 0.0143762 0.0152704 -0.00789724 0.000462862 -0.00134922 1.91784e-08 3.74555e-07 1.07308e-07 0.0005 1.46608e-07 
94 1 0.022671 0.020843 0.0155805 0.0130703 -0.0507217 0.0360331 0 0 -1.43822e-06 0.0005 1.46608e-07 
95 1 0.0209942 0.0141119 0.0133472 0.000197927 -0.000478836 0.0013549 -1.28325e-07 -4.77279e-08 -2.31455e-07 0.0005 1.46608e-07 
98 1 0.0185599 0.024478 0.013702 0.000110395 0.000382519 -0.000408008 1.42771e-07 -3.48821e-08 2.16087e-07 0.0005 1.46608e-07 
101 1 0.0157146 0.0205988 0.0156684 3.82621e-06 0.0225251 -0.00846898 2.58173e-08 2.60948e-08 -3.16452e-08 0.0005 1.46608e-07 
102 1 0.0319453 0.0232291 0.012659 0.000459684 0.00698774 -0.0222126 -1.89147e-08 2.09319e-08 -1.51741e-07 0.0005 1.46608e-07 
103 1 0.0212163 0.0207153 0.0156333 -0.0031101 0.0196758 -0.00837427 4.32253e-07 6.66304e-07 -2.27924e-07 0.0005 1.46608e-07 
105 1 0.01743 0.0157109 0.0144428 0.00320905 -0.00381513 -0.00118374 0 0 -1.43822e-06 0.0005 1.46608e-07 
106 1 0.0200996 0.0233255 0.0132011 0.00429721 -0.000265235 -0.00146689 4.69421e-07 -5.66497e-07 2.58298e-07 0.0005 1.46608e-07 
107 1 0.0391138 0.0186413 0.00581976 9.45052e-16 -8.54914e-15 -2.18647e-14 2.78131e-20 -9.74088e-21 4.87044e-21 0.0005 1.46608e-07 
108 1 0.0330223 0.0199034 0.0157158 0.000958722 0.0198402 -0.00651614 4.27636e-06 -8.69765e-07 8.08511e-07 0.0005 1.46608e-07 
110 1 0.0288508 0.0148174 0.0108326 0.000753903 -0.0046285 0.0168482 -1.85631e-09 1.15871e-08 -4.3309e-09 0.0005 1.46608e-07 
114 1 0.016809 0.0232271 0.0146705 0.0103884 0.0220914 -0.0208105 2.54492e-05 -2.79264e-05 -9.36895e-07 0.0005 1.46608e-07 
116 1 0.0130122 0.0189679 0.00587174 4.42443e-15 -5.78762e-16 5.00276e-14 3.30608e-20 -6.98571e-20 -3.17637e-21 0.0005 1.46608e-07 
119 1 0.0303432 0.0197498 0.00727005 0.00012048 -0.0248167 -0.00456564 -9.66755e-10 -1.13598e-08 1.35309e-08 0.0005 1.46608e-07 
120 1 0.0238088 0.0227209 0.0153045 0.0417481 -0.0359276 0.017467 0 0 -1.43822e-06 0.0005 1.46608e-07 
121 1 0.0879807 0.0206636 0.00600115 -1.56665e-14 -2.8634e-14 1.8915e-13 1.04291e-20 2.63374e-20 2.75286e-21 0.0005 1.46608e-07 
122 1 0.021459 0.0224118 0.0146324 0.00269632 0.00307255 -0.00140668 1.70809e-07 4.25987e-06 -2.04106e-06 0.0005 1.46608e-07 
123 1 0.0176097 0.0236324 0.014091 0.0101197 0.0160614 -0.0279061 -2.51578e-07 3.84819e-07 -8.19575e-07 0.0005 1.46608e-07 
125 1 0.0327565 0.0208241 0.0153419 0.0001968 0.0227795 -0.0103103 -2.19485e-09 7.48518e-10 -1.64623e-08 0.0005 1.46608e-07 
126 1 0.0204195 0.0144597 0.0140879 0.00132549 -0.000982579 0.00256546 2.64969e-08 8.02576e-08 -2.12925e-07 0.0005 1.46608e-07 
128 1 0.0346455 0.00899128 0.0435188 9.7006e-317 -9.75154e-317 -8.23806e-13 0 0 0 0.0005 1.46608e-07 
129 1 0.0212982 0.0241451 0.0142231 -0.000391491 -9.25925e-06 -0.000130287 -2.3969e-06 -1.65018e-06 7.80357e-08 0.0005 1.46608e-07 
133 1 0.0185362 0.0206175 0.00747098 0.000248419 -0.0231482 -0.00914989 -1.06406e-09 -1.47261e-08 1.13216e-08 0.0005 1.46608e-07 
134 1 0.022091 0.0237384 0.0138209 0.00104181 0.00122301 0.000269801 3.70187e-06 1.55022e-06 3.36468e-06 0.0005 1.46608e-07 
136 1 0.0270753 0.0191463 0.00600101 1.09641e-14 1.75636e-15 -1.78715e-13 6.2204e-22 -4.04988e-21 2.11758e-22 0.0005 1.46608e-07 
137 1 0.0265384 0.0216035 0.0148565 0.00175546 0.0154145 -0.0134206 4.10257e-08 -2.23916e-07 2.4134e-07 0.0005 1.46608e-07 
139 1 0.0331987 0.0191838 0.0157949 0.00100652 0.013294 0.00277153 2.78646e-06 5.25598e-05 -1.95071e-06 0.0005 1.46608e-07 
141 1 0.0849179 0.0182538 0.00577769 -5.26925e-16 1.50256e-14 5.18893e-14 2.43026e-21 1.11173e-21 0 0.0005 1.46608e-07 
142 1 0.028504 0.0163128 0.014774 0.00173428 0.018908 0.0133348 -4.72612e-08 5.01981e-07 1.99142e-07 0.0005 1.46608e-07 
146 1 0.025708 0.023406 0.0113882 0.00039033 0.000424792 -0.025305 1.61474e-09 -1.6509e-08 -1.81034e-08 0.0005 1.46608e-07 
148 1 0.0169731 0.0144735 0.014414 -0.000161405 0.00132677 -0.000853075 -2.0725e-07 2.87624e-07 5.51038e-07 0.0005 1.46608e-07 
152 1 0.0212221 0.0194755 0.0159221 0.00985782 0.0134704 0.00100567 -6.69471e-06 1.30496e-05 1.61212e-05 0.0005 1.46608e-07 
154 1 0.0195584 0.0217789 0.00811604 0.000891723 1.55842e-06 0.00176097 -1.38555e-08 3.03002e-08 5.56435e-08 0.0005 1.46608e-07 
155 1 0.0168992 0.0144448 0.0128484 0.000180536 -9.16283e-05 -0.000181781 -2.48474e-08 -1.12729e-08 4.35384e-07 0.0005 1.46608e-07 
156 1 0.0357793 0.0213725 0.0435188 -9.69384e-317 9.51613e-317 -3.87031e-13 0 0 0 0.0005 1.46608e-07 
157 1 0.0218173 0.0214578 0.0152482 0.0213764 0.0150486 -0.00901915 0 0 -1.43822e-06 0.0005 1.46608e-07 
158 1 0.0174722 0.0233548 0.0155499 0.00743804 -0.0145097 -0.0468758 0 0 -1.43822e-06 0.0005 1.46608e-07 
159 1 0.0239955 0.018106 0.0205359 0.216212 -0.602623 0.670581 0 0 -1.43822e-06 0.0005 1.46608e-07 
160 1 0.0223224 0.0150649 0.0136132 0.000374818 0.00645651 0.0258909 -3.6105e-06 6.5395e-07 -5.46338e-06 0.0005 1.46608e-07 
162 1 0.0277084 0.0169589 0.0151677 0.000236017 0.0222677 0.0131124 -2.52893e-09 1.61241e-08 -8.46827e-09 0.0005 1.46608e-07 
163 1 0.0188474 0.0215735 0.00800066 0.00105895 -0.0141447 -0.0131203 6.71541e-09 -1.0302e-09 2.32313e-08 0.0005 1.46608e-07 
169 1 0.0175562 0.0144666 0.0136017 0.000333185 -0.000540776 -0.000423787 3.17904e-07 8.62644e-08 5.87144e-07 0.0005 1.46608e-07 
170 1 0.0202375 0.0146537 0.0157891 0.0175616 0.005525 -0.00168452 -3.14228e-07 3.18193e-07 -8.91892e-07 0.0005 1.46608e-07 
171 1 0.039509 0.0159836 0.0068762 9.4412e-16 -8.55012e-15 -2.18643e-14 -5.9557e-23 -1.05879e-22 -2.11758e-22 0.0005 1.46608e-07 
172 1 0.0258979 0.0232853 0.0124658 0.00138979 0.00463063 -0.0220947 -1.03295e-08 -6.01349e-09 -2.40248e-08 0.0005 1.46608e-07 
173 1 0.0181215 0.0152604 0.0138258 0.00285361 -0.00125203 -0.00498716 1.37835e-07 -1.06704e-07 -1.51591e-07 0.0005 1.46608e-07 
174 1 0.0216819 0.0233784 0.0146488 0.0050077 0.00275989 0.000610523 1.08462e-05 2.78264e-06 2.9812e-06 0.0005 1.46608e-07 
176 1 0.0279914 0.0158986 0.0144187 0.00176208 0.0139894 0.0148689 3.78012e-08 -2.24497e-07 -5.2024e-08 0.0005 1.46608e-07 
178 1 0.02243 0.0235617 0.0152144 0.00354207 -0.00217875 0.00297852 1.23379e-05 -6.85542e-06 7.48242e-06 0.0005 1.46608e-07 
182 1 0.0293222 0.0155106 0.00902565 -0.000664126 -0.0133302 0.0132812 0.00505247 0.00387893 0.00225516 0.0005 1.46608e-07 
185 1 0.0358262 0.0178834 0.0059929 -1.1214e-15 -9.4001e-15 -2.80623e-14 5.35265e-19 -3.99694e-20 -1.05879e-21 0.0005 1.46608e-07 
188 1 0.0258653 0.0191266 0.0173053 0.355864 -0.414854 0.175279 0 0 -1.43822e-06 0.0005 1.46608e-07 
192 1 0.016074 0.0236823 0.0141688 0.00396281 -0.00959299 -0.0209115 -1.12816e-05 1.51943e-05 2.59402e-05 0.0005 1.46608e-07 
196 1 0.0270168 0.0221211 0.0143406 -9.60714e-05 0.0167818 -0.0187788 -8.12067e-08 5.91061e-08 -5.18574e-08 0.0005 1.46608e-07 
197 1 0.0217811 0.0233135 0.0127056 0.000467551 -2.10187e-05 -0.000584033 -3.07546e-07 1.41225e-07 -1.18423e-06 0.0005 1.46608e-07 
198 1 0.0242244 0.0158041 0.0155907 0.00618031 0.0109108 0.00904949 -3.79771e-07 -1.29055e-07 -2.44383e-07 0.0005 1.46608e-07 
202 1 0.0178852 0.014051 0.0144495 -0.000356197 -0.00011395 -1.76715e-05 4.25867e-07 7.30844e-07 5.98859e-07 0.0005 1.46608e-07 
204 1 0.0309365 0.021876 0.00824655 0.00030087 -0.0191891 -0.0177359 -7.46088e-09 -1.79459e-08 1.16099e-09 0.0005 1.46608e-07 
206 1 0.0284921 0.014911 0.0124355 0.000287243 0.00524046 0.0220023 -8.33397e-09 -1.33812e-08 -6.80934e-08 0.0005 1.46608e-07 
208 1 0.0229197 0.023434 0.0143852 0.00053713 -0.000830995 0.00121549 3.88432e-06 -1.87434e-06 2.38531e-06 0.0005 1.46608e-07 
212 1 0.027335 0.0182599 0.015757 0.000642603 0.0251191 0.00756059 -3.31571e-09 -1.17855e-07 -1.08177e-08 0.0005 1.46608e-07 
214 1 0.0227216 0.0151157 0.0149983 0.0167471 0.0083766 -0.00761304 0 0 -1.43822e-06 0.0005 1.46608e-07 
215 1 0.0199311 0.0221773 0.00856339 0.00239064 0.00760774 0.00396138 -1.81903e-08 1.45797e-07 2.82143e-07 0.0005 1.46608e-07 
217 1 0.0214145 0.0144804 0.0141871 0.00484884 -0.0150053 -0.0272123 0 0 -1.43822e-06 0.0005 1.46608e-07 
222 1 0.0159088 0.0231242 0.0132923 0.0055382 0.0008519 -0.0048538 2.92704e-06 1.19849e-06 -4.08076e-06 0.0005 1.46608e-07 
224 1 0.019535 0.0232659 0.0106378 0.00159719 -0.00465574 -0.0169611 -2.38753e-07 9.39312e-06 9.53345e-06 0.0005 1.46608e-07 
225 1 0.0306135 0.0208787 0.00760858 0.00275966 -0.0221541 -0.00693072 9.30339e-09 -1.57043e-07 -4.61357e-08 0.0005 1.46608e-07 
229 1 0.018696 0.0146264 0.0143436 -0.000418011 6.63258e-05 0.000676059 7.48758e-07 1.15434e-06 6.18866e-07 0.0005 1.46608e-07 
230 1 0.0279162 0.0208618 0.00599849 3.08182e-15 1.79656e-14 -5.71324e-14 -7.01449e-21 1.05879e-22 -4.23516e-22 0.0005 1.46608e-07 
232 1 0.0223999 0.0144107 0.0143659 0.000964875 -0.00852928 0.0167778 0 0 -1.43822e-06 0.0005 1.46608e-07 
239 1 0.0155963 0.0176472 0.0157192 0.000655174 0.0229533 0.00775935 -2.60904e-10 7.34624e-09 -1.76924e-08 0.0005 1.46608e-07 
240 1 0.0221772 0.0199411 0.015879 0.0653836 -0.0119891 -0.000747953 0 0 -1.43822e-06 0.0005 1.46608e-07 
242 1 0.0201424 0.0243201 0.0134916 0.0167882 -0.0177174 -0.0192174 0 0 -1.43822e-06 0.0005 1.46608e-07 
243 1 0.0248843 0.0184043 0.0218331 0.280578 -0.534075 0.738775 0 0 -1.43822e-06 0.0005 1.46608e-07 
244 1 0.0164882 0.0222921 0.0149913 0.00480841 0.0105061 0.00213797 -1.40277e-06 3.64454e-06 -5.95254e-06 0.0005 1.46608e-07 
247 1 0.0218399 0.0166289 0.0152423 0.0019148 0.0144213 0.0102735 -1.54474e-08 5.0155e-08 9.71248e-09 0.0005 1.46608e-07 
248 1 0.00296456 0.0113601 0.0435188 -9.73893e-317 -9.68349e-317 2.45201e-12 0 0 0 0.0005 1.46608e-07 
249 1 0.0192283 0.0241833 0.0129952 7.26811e-05 0.000824286 -0.000519821 -1.66648e-06 -5.44346e-07 -5.6456e-07 0.0005 1.46608e-07 
250 1 0.0227939 0.0190021 0.0159565 4.02746e-09 0.0241884 4.49381e-05 -2.4868e-12 -1.81529e-10 -1.89298e-08 0.0005 1.46608e-07 
252 1 0.0157194 0.0230955 0.0149757 0.00509276 0.0097399 -0.0172813 0 0 -1.43822e-06 0.0005 1.46608e-07 
256 1 0.0271979 0.0192774 0.0158104 0.000399415 0.0240321 -0.00138725 -3.8539e-09 1.47791e-08 -1.40722e-08 0.0005 1.46608e-07 
257 1 0.0204841 0.0222548 0.0145796 0.00132985 0.0122274 -0.0121093 6.41722e-07 1.83806e-06 -1.47311e-06 0.0005 1.46608e-07 
258 1 0.0315352 0.0233063 0.0105642 0.00124636 -0.00312144 -0.0216545 3.21954e-08 3.08894e-08 1.20555e-07 0.0005 1.46608e-07 
260 1 0.0218584 0.0180845 0.0158464 -3.66173e-10 0.0236241 0.00505768 -6.09272e-16 3.77238e-09 -1.85221e-08 0.0005 1.46608e-07 
261 1 0.0243457 0.0197969 0.00726565 -0.00137832 -0.0239161 -0.00862277 -6.31212e-07 9.38908e-06 2.70237e-06 0.0005 1.46608e-07 
263 1 0.0194737 0.0143193 0.0137953 0.00101147 -0.00181524 0.00356948 2.27563e-07 4.50254e-07 2.66461e-07 0.0005 1.46608e-07 
265 1 0.0192772 0.0228822 0.0096513 0.000548743 -0.0108227 -0.0215882 -3.3484e-09 -1.78496e-08 -2.23118e-09 0.0005 1.46608e-07 
266 1 0.0166321 0.0162583 0.0152978 0.000336812 0.0107575 0.0265895 0 0 -1.43822e-06 0.0005 1.46608e-07 
267 1 0.0360441 0.0249743 0.0435188 -9.68005e-317 -9.73691e-317 2.01523e-12 0 0 0 0.0005 1.46608e-07 
271 1 0.0144784 0.0223792 0.0144554 0.00601821 0.00256661 -0.00115276 2.33175e-06 -4.16257e-06 4.45802e-06 0.0005 1.46608e-07 
272 1 0.0173819 0.0146339 0.0119934 5.97894e-05 1.03373e-05 -0.000253777 -3.25442e-07 7.36713e-09 3.1025e-07 0.0005 1.46608e-07 
274 1 0.0207254 0.0215187 0.0152128 0.0022241 0.016349 -0.0115631 -4.68653e-07 1.3594e-06 -6.63572e-07 0.0005 1.46608e-07 
275 1 0.0748406 0.0197444 0.00579981 5.85094e-15 3.17476e-14 -1.28217e-13 7.74241e-20 2.11758e-21 5.92923e-21 0.0005 1.46608e-07 
278 1 0.0210366 0.0230765 0.0136827 0.00393266 0.00446898 -0.00123456 4.66924e-06 1.18525e-06 -4.02273e-06 0.0005 1.46608e-07 
280 1 0.0249536 0.0203466 0.0196341 0.356021 -0.368679 0.629383 0 0 -1.43822e-06 0.0005 1.46608e-07 
281 1 0.0221075 0.0156667 0.0143866 0.00152768 0.0164608 0.012986 6.55207e-07 8.22117e-08 -7.52061e-07 0.0005 1.46608e-07 
290 1 0.0224655 0.0149001 0.0126372 0.000133098 0.00628858 0.0250169 1.05252e-08 -1.0969e-09 -3.78485e-08 0.0005 1.46608e-07 
293 1 0.0219629 0.0228043 0.0138703 0.00207008 0.00312359 -7.21634e-05 1.51744e-06 -7.46776e-07 1.55696e-06 0.0005 1.46608e-07 
294 1 0.0229445 0.0160921 0.0148179 0.00274269 0.0129685 0.0120363 -1.84817e-07 -1.64662e-07 -1.44265e-07 0.0005 1.46608e-07 
295 1 0.0155181 0.0221289 0.0148161 0.00564127 0.00447847 0.00240721 -1.61451e-06 -4.25349e-06 1.20302e-06 0.0005 1.46608e-07 
296 1 0.0202309 0.0239581 0.0125441 -0.000165427 -0.00317415 -0.00112387 -1.38492e-08 -1.60054e-08 8.73874e-08 0.0005 1.46608e-07 
