ITEM: TIMESTEP
12000000
ITEM: NUMBER OF ATOMS
140
ITEM: BOX BOUNDS ff ff ff
-0.02 0.43
-0.02 0.06
-0.02 0.1
ITEM: ATOMS id type x y z vx vy vz fx fy fz radius mass 
1 1 0.0343095 0.0148256 0.0109309 0.00162225 -0.00217612 0.0204165 1.34287e-08 2.11874e-08 -3.77125e-08 0.0005 1.46608e-07 
4 1 0.0234944 0.0182275 0.00728507 0.000128363 -0.0249225 0.00458344 -6.76277e-10 -7.44776e-09 1.68308e-08 0.0005 1.46608e-07 
6 1 0.0256577 0.0229256 0.0132615 3.87792e-06 0.0160718 -0.0232233 3.66278e-09 -5.94566e-09 -5.605e-09 0.0005 1.46608e-07 
12 1 0.0172375 0.0240328 0.0131442 0.000203116 -0.000621558 -2.34751e-05 -5.16175e-08 8.9565e-08 -1.10089e-07 0.0005 1.46608e-07 
13 1 0.0201172 0.0231979 0.0102485 0.00030234 0.00275916 -0.00581197 9.96229e-07 2.37763e-06 3.23421e-06 0.0005 1.46608e-07 
15 1 0.0371331 0.0233931 0.0112367 0.00089284 -0.000678787 -0.0243595 -2.41498e-10 -1.42251e-08 -6.28052e-09 0.0005 1.46608e-07 
16 1 0.0219505 0.0148639 0.0129969 0.00483329 0.00139258 0.0057155 0 0 -1.43822e-06 0.0005 1.46608e-07 
17 1 0.0232004 0.0167468 0.0153156 1.87964e-05 0.0168404 0.0095003 2.30699e-09 -7.04671e-08 -6.2103e-08 0.0005 1.46608e-07 
18 1 0.0386977 0.0162894 0.00672003 6.10105e-15 -3.8237e-14 -1.01646e-13 -6.0854e-20 -2.5358e-20 5.71747e-21 0.0005 1.46608e-07 
19 1 0.0321071 0.0199424 0.00590196 7.96636e-16 2.01829e-14 -6.87786e-14 -1.14151e-20 -3.17637e-22 -2.11758e-22 0.0005 1.46608e-07 
21 1 0.0278328 0.0151466 0.0131635 0.000111032 0.00952107 0.0243607 -5.01953e-10 1.80594e-08 2.00179e-09 0.0005 1.46608e-07 
25 1 0.0351613 0.0218223 0.0081512 -0.000315945 -0.00774559 -0.00401237 6.72746e-08 -6.86329e-08 -1.02392e-07 0.0005 1.46608e-07 
26 1 0.02077 0.0239705 0.0129761 0.00437101 -0.000712207 -0.000114171 -1.46337e-06 -3.84836e-07 -3.88749e-06 0.0005 1.46608e-07 
28 1 0.033162 0.0170948 0.0152795 0.000726341 0.020587 0.00956187 -8.67145e-09 2.85069e-08 1.90117e-09 0.0005 1.46608e-07 
30 1 0.020034 0.014414 0.013994 2.26842e-05 0.00120631 -0.00269992 -4.31704e-08 3.02509e-07 5.29064e-08 0.0005 1.46608e-07 
31 1 0.0328754 0.0182192 0.0156951 0.000818519 0.0228062 0.00508086 -1.26128e-08 3.89233e-08 -2.64402e-08 0.0005 1.46608e-07 
32 1 0.0287474 0.0154598 0.00914627 0.00226508 -0.00656821 0.00988853 -2.5538e-07 1.53842e-07 2.9946e-07 0.0005 1.46608e-07 
33 1 0.0191712 0.0235053 0.0116718 0.00549946 -0.00712311 -0.00762364 -4.63795e-06 9.62314e-06 -2.84575e-06 0.0005 1.46608e-07 
35 1 0.0165201 0.019817 0.00593552 1.3023e-14 5.25915e-15 -1.07337e-13 -4.63221e-21 2.53051e-20 6.35275e-22 0.0005 1.46608e-07 
36 1 0.0662017 0.0188213 0.00577467 2.70044e-16 -7.56544e-16 -1.33902e-14 3.05273e-19 9.49868e-20 -1.90582e-21 0.0005 1.46608e-07 
37 1 0.0215268 0.015914 0.0146512 0.00275183 0.0137272 0.0132924 -7.36012e-07 -6.96868e-07 -2.02239e-07 0.0005 1.46608e-07 
40 1 0.0269594 0.0179542 0.0156123 -0.00033795 0.0257853 0.00994121 -4.68506e-09 9.65251e-09 -1.06717e-08 0.0005 1.46608e-07 
41 1 0.0215603 0.0228499 0.0138269 -0.000131154 -0.00236094 0.00314635 -7.56604e-07 -4.52758e-07 -1.44147e-06 0.0005 1.46608e-07 
42 1 0.0354627 0.0178957 0.00732064 0.00164849 -0.0133618 0.00111127 4.97122e-07 3.42e-06 -2.40196e-08 0.0005 1.46608e-07 
49 1 0.0206763 0.0230695 0.013407 -0.00560264 0.00670728 -0.00743737 0 0 -1.43822e-06 0.0005 1.46608e-07 
51 1 0.0324123 0.0203122 0.0155495 0.000304482 0.0213524 -0.00763221 1.95004e-08 1.54818e-07 -5.73785e-08 0.0005 1.46608e-07 
52 1 0.0314695 0.0232374 0.0125751 0.000981369 0.00670491 -0.0218085 -4.37637e-09 -2.29201e-08 -1.18378e-09 0.0005 1.46608e-07 
53 1 0.0384003 0.0204438 0.0155535 0.00622044 -0.00248472 0.00311573 -1.08285e-07 -3.56005e-07 8.69687e-08 0.0005 1.46608e-07 
54 1 0.0297624 0.0193756 0.00721886 -1.75423e-05 -0.0262693 -0.00307189 -1.09777e-09 -8.20221e-09 1.50647e-08 0.0005 1.46608e-07 
56 1 0.119071 0.0203608 0.0059107 1.09457e-15 2.46955e-14 -1.19876e-13 3.98701e-22 -5.29396e-23 0 0.0005 1.46608e-07 
57 1 0.020983 0.0181819 0.0158594 2.08271e-07 0.0236305 0.00463235 -1.18181e-09 2.34355e-08 -1.39697e-08 0.0005 1.46608e-07 
58 1 0.0173114 0.0150874 0.013551 -0.00453409 -0.00079435 0.0131581 0 0 -1.43822e-06 0.0005 1.46608e-07 
61 1 0.0216632 0.0201277 0.0158241 1.02735e-06 0.023331 -0.00603428 1.1986e-09 1.8279e-08 -2.24657e-08 0.0005 1.46608e-07 
62 1 0.0252612 0.0180948 0.00607594 -2.58538e-14 -5.35673e-14 -1.75235e-13 -2.36905e-20 7.83505e-21 4.23516e-22 0.0005 1.46608e-07 
65 1 0.0249251 0.0216813 0.0160955 -0.00414047 0.00573847 -0.00223517 9.52731e-08 -2.68749e-07 8.5338e-08 0.0005 1.46608e-07 
66 1 0.0327161 0.0189251 0.0158225 0.00150027 0.0170559 0.00176245 5.99164e-08 -1.76843e-07 -1.63381e-08 0.0005 1.46608e-07 
67 1 0.0141133 0.022397 0.0144326 -0.000310308 -0.00126721 -3.23082e-05 -1.0011e-08 -8.85269e-09 3.96576e-08 0.0005 1.46608e-07 
68 1 0.0280787 0.0147863 0.0118841 0.000747492 0.00279382 0.0214223 -3.37747e-09 1.74564e-08 1.81612e-08 0.0005 1.46608e-07 
71 1 0.0976912 0.0174781 0.00629452 -1.94893e-15 -7.30138e-14 -2.20719e-13 -3.58285e-19 -8.84091e-21 4.87044e-21 0.0005 1.46608e-07 
74 1 0.021125 0.0144221 0.0144547 0.000270559 0.00382571 -0.00386861 -1.20423e-07 3.6624e-08 1.03587e-07 0.0005 1.46608e-07 
75 1 0.0164813 0.0237782 0.013743 9.37761e-06 0.00153142 -0.000661937 3.8632e-07 4.90452e-08 -3.34992e-08 0.0005 1.46608e-07 
76 1 0.0222243 0.0164634 0.0151113 0.0115707 0.0103489 0.00764797 0 0 -1.43822e-06 0.0005 1.46608e-07 
77 1 0.0291356 0.0166359 0.00789578 0.00114241 -0.0184117 0.0128624 -6.04348e-09 -7.69574e-09 2.3209e-08 0.0005 1.46608e-07 
78 1 0.0198666 0.0234053 0.0111569 0.0025458 0.00071821 -0.00482689 5.54495e-07 1.56646e-06 5.50157e-06 0.0005 1.46608e-07 
79 1 0.0194723 0.0233195 0.012482 0.00890413 0.00165148 0.000776676 -2.42188e-05 6.39393e-06 -5.15695e-05 0.0005 1.46608e-07 
80 1 0.023299 0.023129 0.0153952 -0.00938695 0.00315392 -0.0556103 0 0 -1.43822e-06 0.0005 1.46608e-07 
82 1 0.0207049 0.0234678 0.01176 4.54736e-05 0.000158898 -0.000421797 1.04595e-06 -6.93977e-09 -6.28266e-08 0.0005 1.46608e-07 
83 1 0.0235315 0.0226672 0.0138977 -0.00155565 0.0106181 -0.0184819 5.95856e-08 4.29046e-08 -1.37147e-07 0.0005 1.46608e-07 
84 1 0.0300417 0.0204614 0.00745377 0.00129976 -0.0283355 -0.00705119 2.19912e-09 -2.05618e-07 -7.73619e-08 0.0005 1.46608e-07 
89 1 0.0244163 0.0158513 0.0156647 0.000274374 0.00595851 0.00518351 -2.51604e-08 -9.44248e-08 -5.21223e-08 0.0005 1.46608e-07 
90 1 0.0364919 0.0186027 0.00573354 -3.63825e-15 -2.09499e-14 8.10818e-14 2.64698e-23 1.58819e-22 -4.23516e-22 0.0005 1.46608e-07 
91 1 0.0447899 0.0195866 0.0182594 2.33617e-15 -1.50084e-15 -4.87691e-14 1.32349e-22 -1.52863e-21 0 0.0005 1.46608e-07 
93 1 0.0228115 0.0234592 0.0143563 0.00709298 0.0251938 -0.0392497 -1.14558e-07 3.4499e-07 -6.45242e-07 0.0005 1.46608e-07 
95 1 0.0192581 0.0140007 0.0129692 0.000311399 0.000822512 -0.00147511 1.38544e-08 -1.85082e-07 3.33009e-07 0.0005 1.46608e-07 
98 1 0.0173175 0.0146341 0.0120347 0.00066687 -0.000943356 0.00205334 -1.73258e-08 1.86868e-08 -1.82968e-07 0.0005 1.46608e-07 
101 1 0.0207901 0.0220943 0.0156299 0.0446577 0.0262579 -0.0517573 0 0 -1.43822e-06 0.0005 1.46608e-07 
102 1 0.0358076 0.0196441 0.00734834 5.20868e-05 -0.0253075 -0.00451703 -8.03425e-10 -6.66957e-09 1.52689e-08 0.0005 1.46608e-07 
105 1 0.0221373 0.0147389 0.0116995 0.00104045 -0.000188143 0.0210711 -6.81813e-09 -8.27075e-09 -8.83306e-08 0.0005 1.46608e-07 
106 1 0.0205942 0.0151539 0.0150721 -0.00225196 -0.0148515 -0.0191643 9.24739e-09 -3.07752e-07 -2.48731e-07 0.0005 1.46608e-07 
107 1 0.0391138 0.0186413 0.00581976 9.41934e-16 -8.54979e-15 -2.18646e-14 -8.6093e-21 -6.35275e-22 2.11758e-22 0.0005 1.46608e-07 
108 1 0.0369611 0.0231824 0.0102958 0.00113229 -0.00678008 -0.0196109 -1.15166e-08 -2.3106e-08 -3.29542e-08 0.0005 1.46608e-07 
110 1 0.0320979 0.0215179 0.0149925 0.000124957 0.0221464 -0.0139198 -3.86498e-07 4.6961e-07 -2.7391e-07 0.0005 1.46608e-07 
114 1 0.023049 0.0144487 0.0150879 0.00379773 0.00197769 0.00263123 -4.37562e-07 8.45048e-07 9.39995e-07 0.0005 1.46608e-07 
116 1 0.0130122 0.0189679 0.00587174 4.34391e-15 -1.3128e-15 5.00232e-14 4.80956e-20 4.49917e-19 2.96462e-21 0.0005 1.46608e-07 
119 1 0.0334042 0.0160858 0.0146338 0.00181788 0.0163029 0.0147764 8.23899e-09 5.8571e-08 -1.23629e-08 0.0005 1.46608e-07 
120 1 0.0232732 0.0171035 0.00762026 0.00109705 -0.0207032 0.00886655 1.74023e-08 1.09771e-07 -6.51071e-08 0.0005 1.46608e-07 
121 1 0.0879807 0.0206636 0.00600115 -1.56228e-14 -2.86638e-14 1.89149e-13 -3.59049e-19 3.27749e-19 1.927e-20 0.0005 1.46608e-07 
122 1 0.0416095 0.0185917 0.00584333 1.31035e-14 4.42414e-14 1.26703e-13 8.82502e-20 -1.83171e-20 -9.31736e-21 0.0005 1.46608e-07 
123 1 0.0207443 0.0194905 0.0159284 -9.18697e-09 0.0240439 -0.00220596 -2.21599e-10 -1.65373e-09 -1.8808e-08 0.0005 1.46608e-07 
125 1 0.0366016 0.0225673 0.009081 0.000776328 -0.0135671 -0.0178429 -1.90862e-09 -6.27963e-08 -4.91498e-08 0.0005 1.46608e-07 
126 1 0.0166052 0.0147616 0.0127247 0.00164115 -0.000472775 0.00291693 -1.27612e-07 1.74676e-07 -2.31582e-07 0.0005 1.46608e-07 
128 1 0.0346455 0.00899128 0.0435188 9.7006e-317 -9.75154e-317 -8.23806e-13 0 0 0 0.0005 1.46608e-07 
133 1 0.015561 0.0136582 0.020868 0.203549 0.130858 -0.535695 0 0 -1.43822e-06 0.0005 1.46608e-07 
134 1 0.0241672 0.0210777 0.0163427 -0.0160848 0.0183121 -0.00814705 -1.71131e-07 -5.13638e-08 -4.27706e-08 0.0005 1.46608e-07 
136 1 0.0270753 0.0191463 0.00600101 1.0966e-14 1.7645e-15 -1.78715e-13 5.51895e-21 -1.54451e-20 2.11758e-22 0.0005 1.46608e-07 
137 1 0.0294342 0.0178077 0.00742999 -0.00132476 -0.027234 0.00562482 3.79142e-08 5.77295e-08 -3.96321e-08 0.0005 1.46608e-07 
139 1 0.0382421 0.0210792 0.0151285 0.00273295 0.00664789 -0.00519803 7.17298e-08 -1.06559e-07 5.75413e-08 0.0005 1.46608e-07 
141 1 0.0849179 0.0182538 0.00577769 -5.21505e-16 1.50256e-14 5.18893e-14 4.17561e-20 1.11173e-21 2.11758e-22 0.0005 1.46608e-07 
142 1 0.0318723 0.0222678 0.0144133 0.00113234 0.0136304 -0.0158553 -6.09951e-07 4.32311e-07 2.31919e-07 0.0005 1.46608e-07 
146 1 0.0288825 0.0158508 0.0086148 0.00147539 -0.0107198 0.00927298 5.14206e-07 6.55727e-07 -5.62331e-07 0.0005 1.46608e-07 
148 1 0.0225579 0.0196077 0.0159081 6.39993e-10 0.0239195 -0.00292181 -1.24819e-12 -2.18756e-09 -1.87138e-08 0.0005 1.46608e-07 
152 1 0.0194285 0.0229224 0.0097216 0.00232472 -0.0107663 -0.0209775 3.3847e-07 -1.1187e-07 -3.4987e-08 0.0005 1.46608e-07 
154 1 0.0183699 0.0138745 0.0134108 0.00165385 -0.00071756 0.000731855 -2.87151e-08 1.36011e-07 -4.0204e-08 0.0005 1.46608e-07 
155 1 0.0214059 0.0233876 0.0124701 0.00485203 0.000313777 -0.000947706 0 0 -1.43822e-06 0.0005 1.46608e-07 
156 1 0.0357793 0.0213725 0.0435188 -9.69384e-317 9.51613e-317 -3.87031e-13 0 0 0 0.0005 1.46608e-07 
157 1 0.0218701 0.0237938 0.013714 -0.00266295 0.00156596 0.00214092 8.10436e-07 -1.6606e-06 -6.70388e-07 0.0005 1.46608e-07 
158 1 0.0166798 0.0142219 0.0135632 0.00273197 -0.0014671 0.00220149 -5.27562e-07 1.54591e-07 -7.38536e-08 0.0005 1.46608e-07 
159 1 0.023964 0.020206 0.00743714 -0.000256042 -0.0254646 -0.00996674 -1.45642e-09 -4.60205e-09 1.33161e-08 0.0005 1.46608e-07 
162 1 0.0309478 0.0231907 0.0102047 0.000426772 -0.0070833 -0.023063 -3.13556e-09 -1.88756e-08 -9.25999e-09 0.0005 1.46608e-07 
163 1 0.0197359 0.0232988 0.0137195 0.0392348 -0.0438852 0.132211 0 0 -1.43822e-06 0.0005 1.46608e-07 
169 1 0.0240891 0.0225173 0.0154725 -0.00824767 0.00622348 -0.00766737 -6.59513e-08 5.27502e-09 -1.35382e-07 0.0005 1.46608e-07 
171 1 0.0403892 0.0171846 0.00644451 9.47779e-16 -8.55024e-15 -2.18641e-14 6.61744e-21 -3.07049e-21 1.90582e-21 0.0005 1.46608e-07 
172 1 0.0266296 0.0217062 0.0147681 0.00131927 0.0172359 -0.0158365 -8.5613e-09 2.00577e-09 -2.10253e-08 0.0005 1.46608e-07 
173 1 0.0188347 0.023066 0.0101313 0.0012114 -0.00798057 -0.0209287 7.02556e-08 9.43038e-08 1.72339e-07 0.0005 1.46608e-07 
174 1 0.0204496 0.0206986 0.0160814 0.00557298 0.0382858 -0.0503168 0 0 -1.43822e-06 0.0005 1.46608e-07 
176 1 0.0311892 0.0233822 0.011555 0.000474816 0.000697297 -0.0246711 -8.31592e-10 -1.51547e-08 -9.95046e-09 0.0005 1.46608e-07 
178 1 0.0211594 0.0141407 0.0134958 0.000364524 0.00149826 -0.00292928 -1.28863e-07 -1.27778e-07 2.42635e-08 0.0005 1.46608e-07 
182 1 0.0325683 0.0194824 0.0157958 0.00129243 0.0185103 -0.00471419 9.71147e-08 -3.67574e-08 -2.59275e-08 0.0005 1.46608e-07 
185 1 0.0356225 0.0180511 0.00594302 -2.04659e-16 -1.89235e-15 -5.62965e-15 2.14504e-19 -1.48231e-20 2.11758e-22 0.0005 1.46608e-07 
188 1 0.0207608 0.0239215 0.0139748 0.0108659 0.0204503 -0.000429343 1.46337e-06 3.84836e-07 1.01104e-06 0.0005 1.46608e-07 
192 1 0.0186914 0.0241114 0.0129795 -3.18624e-05 0.000122275 -8.39496e-05 -6.81627e-08 1.05462e-08 -5.43062e-08 0.0005 1.46608e-07 
196 1 0.0306742 0.0227482 0.00916963 0.000855353 -0.0117376 -0.0179357 -2.29565e-09 -2.63871e-08 6.27577e-10 0.0005 1.46608e-07 
197 1 0.0158692 0.0149852 0.0133636 0.00430724 0.0021458 0.00510741 1.45599e-08 3.58971e-07 -2.79682e-07 0.0005 1.46608e-07 
198 1 0.0187237 0.0220088 0.00841438 0.00687749 -0.0127389 -0.0167371 2.76319e-07 1.78355e-07 1.69545e-07 0.0005 1.46608e-07 
202 1 0.0233143 0.0157111 0.0150483 -0.106725 0.198074 0.0429837 0 0 -1.43822e-06 0.0005 1.46608e-07 
204 1 0.0340975 0.0148245 0.0119782 0.000498429 0.000111303 0.0181627 5.35494e-12 7.00881e-09 -2.42127e-08 0.0005 1.46608e-07 
206 1 0.031719 0.0227869 0.0136007 0.000328419 0.0122406 -0.0212374 1.66785e-07 -5.10314e-07 8.4807e-07 0.0005 1.46608e-07 
208 1 0.0156877 0.0155045 0.0141986 0.0077403 0.00494811 0.00404575 7.3103e-08 -1.67009e-07 -9.876e-08 0.0005 1.46608e-07 
212 1 0.0304579 0.022168 0.00848113 0.000369138 -0.0168725 -0.0172183 -6.51688e-10 -2.07949e-08 -2.60592e-09 0.0005 1.46608e-07 
214 1 0.0223472 0.0149652 0.0146036 0.00623328 0.0109848 0.011699 1.20442e-06 5.40605e-06 2.90739e-06 0.0005 1.46608e-07 
217 1 0.0187601 0.0150084 0.0148705 -0.0137002 -0.0117887 -0.014892 -3.01739e-07 1.54078e-07 -6.3831e-07 0.0005 1.46608e-07 
222 1 0.0176242 0.0143484 0.0129425 7.47212e-05 -0.00229443 0.00175186 6.28342e-08 3.0503e-07 -3.07125e-07 0.0005 1.46608e-07 
224 1 0.0196368 0.0145286 0.0149044 -0.0051514 0.00436554 -0.00528276 -8.45937e-08 3.38651e-07 1.28916e-07 0.0005 1.46608e-07 
225 1 0.0338661 0.015091 0.0130957 0.000404074 0.00894137 0.0223747 -1.17153e-09 2.00324e-08 -2.3731e-09 0.0005 1.46608e-07 
229 1 0.0187134 0.0226389 0.00939761 0.000629471 -0.0141986 -0.0199907 -9.77675e-09 -1.083e-08 2.34843e-08 0.0005 1.46608e-07 
230 1 0.0279162 0.0208618 0.00599849 3.08156e-15 1.7966e-14 -5.71324e-14 1.45584e-22 -1.95876e-21 -4.23516e-22 0.0005 1.46608e-07 
232 1 0.0260547 0.0214068 0.0150582 0.0010269 0.0189958 -0.0132275 1.57876e-08 -2.26977e-08 -2.08502e-08 0.0005 1.46608e-07 
239 1 0.0217441 0.0153011 0.0138847 0.000473144 0.0132085 0.0196123 -6.64271e-07 8.69902e-07 1.68688e-06 0.0005 1.46608e-07 
240 1 0.025087 0.0215731 0.0208523 -0.0435087 -0.0419637 -0.205352 0 0 -1.43822e-06 0.0005 1.46608e-07 
244 1 0.0197838 0.0240994 0.0128694 0.00441316 0.000931136 0.00351166 -6.12992e-05 7.17049e-06 -3.33591e-05 0.0005 1.46608e-07 
248 1 0.00296456 0.0113601 0.0435188 -9.73893e-317 -9.68349e-317 2.45201e-12 0 0 0 0.0005 1.46608e-07 
249 1 0.0194381 0.0244441 0.0137028 -0.0280718 0.0082023 -0.0141102 0.000390827 -0.000117987 0.000212987 0.0005 1.46608e-07 
250 1 0.0180486 0.0238513 0.0137 0.000261681 -0.000671902 -0.000110044 -1.23416e-08 -2.6039e-07 -6.13707e-08 0.0005 1.46608e-07 
256 1 0.0302504 0.0213854 0.00783363 0.00205747 -0.0150184 -0.00828755 -2.71041e-08 -9.11461e-08 -4.52105e-08 0.0005 1.46608e-07 
257 1 0.0157657 0.0158016 0.0151502 0.0112109 0.00920778 0.00241292 -1.81355e-08 -1.86723e-07 -1.42336e-07 0.0005 1.46608e-07 
258 1 0.0352615 0.0170198 0.00772681 0.000393009 -0.0215873 0.0117074 -5.87102e-07 2.26928e-06 -1.47574e-07 0.0005 1.46608e-07 
260 1 0.0258057 0.0222721 0.0142637 0.000173923 0.0170025 -0.0189989 -1.59186e-09 -6.99023e-09 -1.49594e-08 0.0005 1.46608e-07 
261 1 0.0283672 0.0148277 0.0107306 0.000854213 -0.00439384 0.0171958 5.74304e-09 1.85884e-08 -2.4534e-08 0.0005 1.46608e-07 
263 1 0.0245877 0.0191741 0.0167496 -1.1693e-08 0.0290229 -0.0007133 -1.98334e-14 -6.04056e-10 -2.32507e-08 0.0005 1.46608e-07 
265 1 0.0366576 0.0176775 0.00607482 -3.93641e-15 2.45622e-14 6.51998e-14 2.64698e-23 -2.64698e-22 -2.11758e-22 0.0005 1.46608e-07 
266 1 0.0202496 0.0140332 0.0130949 0.000421486 0.00125132 -0.00270603 -1.3482e-07 -4.59815e-08 9.71685e-08 0.0005 1.46608e-07 
267 1 0.0360441 0.0249743 0.0435188 -9.68005e-317 -9.73691e-317 2.01523e-12 0 0 0 0.0005 1.46608e-07 
271 1 0.0230934 0.0216309 0.0161906 0.0206658 -0.111617 -0.0459922 0 0 -1.43822e-06 0.0005 1.46608e-07 
272 1 0.0217989 0.0189509 0.0159413 5.32738e-11 0.0240871 0.000490286 3.34847e-14 3.31461e-10 -1.88322e-08 0.0005 1.46608e-07 
275 1 0.0748406 0.0197444 0.00579981 5.87895e-15 3.17597e-14 -1.28213e-13 -1.48244e-19 7.57036e-21 2.11758e-22 0.0005 1.46608e-07 
278 1 0.0212871 0.0168429 0.0153735 0.00312035 0.0137364 0.008601 -1.94406e-07 5.98577e-08 -1.56241e-08 0.0005 1.46608e-07 
281 1 0.026114 0.0198481 0.00594898 9.37944e-16 1.51928e-16 -1.5292e-14 1.32349e-23 -5.50902e-22 0 0.0005 1.46608e-07 
290 1 0.00758099 0.0189521 0.00570394 9.88404e-16 4.39457e-17 -9.75916e-15 -3.73224e-21 3.87882e-20 2.11758e-22 0.0005 1.46608e-07 
295 1 0.0224645 0.0149049 0.0103692 0.000377154 -0.00652456 0.0236411 -4.12106e-10 1.05797e-08 1.26098e-08 0.0005 1.46608e-07 
296 1 0.0208158 0.020007 0.00602666 -6.28884e-15 2.87729e-15 -5.78014e-14 -4.54751e-20 -8.9309e-20 4.23516e-22 0.0005 1.46608e-07 
