ITEM: TIMESTEP
9000000
ITEM: NUMBER OF ATOMS
235
ITEM: BOX BOUNDS ff ff ff
-0.02 0.43
-0.02 0.06
-0.02 0.07
ITEM: ATOMS id type x y z vx vy vz fx fy fz radius mass 
1 1 0.0652152 0.0160633 0.00814752 0.00557212 -0.00014342 -1.96116e-05 1.23993e-09 1.12073e-09 -1.00961e-09 5e-05 1.46608e-10 
4 1 0.0713138 0.0167637 0.00758001 0.00605449 -2.59655e-05 9.81228e-06 -3.55804e-12 -1.44049e-11 8.95623e-12 5e-05 1.46608e-10 
5 1 0.0651759 0.0159026 0.00825989 0.00539785 -0.000118936 -3.07209e-05 6.90593e-11 -3.37673e-11 -5.08318e-11 5e-05 1.46608e-10 
6 1 0.071191 0.0163119 0.00795514 0.00579151 1.36252e-05 -2.20914e-05 1.15335e-11 2.76861e-12 -1.21327e-11 5e-05 1.46608e-10 
8 1 0.0649166 0.0153618 0.00892875 0.0053146 8.34408e-05 0.000203574 5.63523e-10 3.43451e-12 -1.75316e-09 5e-05 1.46608e-10 
9 1 0.0713343 0.0168391 0.00751749 0.00609785 -3.35185e-05 1.60034e-05 -3.67767e-12 -1.51637e-11 1.20152e-11 5e-05 1.46608e-10 
10 1 0.077209 0.0163109 0.00780553 0.00546769 -0.000683174 0.000409588 2.01717e-13 7.43232e-13 -3.60725e-13 5e-05 1.46608e-10 
11 1 0.0591629 0.0162719 0.00819717 0.00547742 -0.000111309 0.000196333 -2.96854e-10 -4.35986e-10 3.90676e-10 5e-05 1.46608e-10 
12 1 0.0712933 0.0166884 0.00764254 0.00601086 -1.84586e-05 3.79193e-06 -1.89539e-12 -7.83774e-12 1.46113e-11 5e-05 1.46608e-10 
13 1 0.0650028 0.0155584 0.00850741 0.00567572 -0.000125657 -7.5587e-05 8.48194e-10 -1.49142e-09 4.53266e-10 5e-05 1.46608e-10 
15 1 0.0650421 0.0157167 0.00839172 0.00548561 -0.000163244 -1.74962e-05 -8.42347e-10 -3.81747e-10 5.29031e-10 5e-05 1.46608e-10 
17 1 0.0649824 0.0154839 0.00857092 0.00567815 -3.1929e-05 -6.95334e-05 -8.20188e-11 -1.75993e-09 -9.90358e-10 5e-05 1.46608e-10 
18 1 0.0712524 0.0165378 0.00776758 0.00592331 -5.06225e-06 -6.92835e-06 3.2099e-12 -1.77424e-12 9.71469e-12 5e-05 1.46608e-10 
19 1 0.0648085 0.0151967 0.00938274 0.00587456 4.21384e-06 0.000426315 1.93307e-10 6.6541e-11 -2.34972e-11 5e-05 1.46608e-10 
23 1 0.0651006 0.0159578 0.00822312 0.00553216 -3.61517e-05 -0.000110262 -4.96017e-10 3.45297e-10 -1.83792e-10 5e-05 1.46608e-10 
24 1 0.0712319 0.0164625 0.0078301 0.00587953 7.80873e-07 -1.21916e-05 1.41178e-13 -2.01411e-12 -1.11097e-11 5e-05 1.46608e-10 
25 1 0.0650225 0.0156364 0.00844796 0.00557432 -0.000177461 -1.86169e-05 4.68663e-10 -1.04771e-10 1.34831e-09 5e-05 1.46608e-10 
26 1 0.0712114 0.0163872 0.00789262 0.00583525 7.0491e-06 -1.74893e-05 -2.95438e-12 1.20157e-11 5.82205e-12 5e-05 1.46608e-10 
27 1 0.0650615 0.0157971 0.00833551 0.00553237 -9.81674e-05 -4.76503e-05 -1.04299e-09 4.43611e-10 -3.30058e-10 5e-05 1.46608e-10 
29 1 0.0652354 0.0161436 0.00809139 0.00534456 -9.05929e-05 -4.60291e-05 1.23711e-09 1.21637e-09 -7.04e-10 5e-05 1.46608e-10 
30 1 0.0711709 0.0162355 0.00801651 0.00549391 0.000153999 5.56879e-05 -4.49182e-13 -4.18833e-12 -4.82695e-12 5e-05 1.46608e-10 
32 1 0.0651595 0.0161989 0.00805457 0.00574846 -0.000171272 3.60915e-05 2.24209e-11 3.12745e-10 -3.23816e-10 5e-05 1.46608e-10 
33 1 0.0711316 0.0160818 0.00813822 0.0054883 0.000154666 5.51928e-05 -1.19916e-11 -5.43692e-12 -2.1999e-11 5e-05 1.46608e-10 
34 1 0.065081 0.0158775 0.00827931 0.00551131 -4.88838e-05 -8.18883e-05 -6.7167e-10 7.30975e-10 -5.31245e-10 5e-05 1.46608e-10 
35 1 0.0653522 0.0168321 0.00771474 0.0058555 -0.000250147 -0.000159948 -2.55252e-10 -4.2483e-10 8.89284e-10 5e-05 1.46608e-10 
36 1 0.0653821 0.0167044 0.00769907 0.00592444 -8.70256e-05 -6.13876e-05 1.68336e-10 -6.24191e-10 3.48836e-10 5e-05 1.46608e-10 
38 1 0.0656075 0.0172128 0.00734155 0.00632588 -0.00026691 5.27388e-05 -8.14964e-10 7.16119e-10 -4.64595e-10 5e-05 1.46608e-10 
39 1 0.0654839 0.0167354 0.00767548 0.00616752 -8.36331e-05 -7.6819e-05 -1.44804e-10 -7.32597e-11 4.19409e-11 5e-05 1.46608e-10 
41 1 0.0651954 0.015983 0.00820369 0.005616 -0.000154934 -1.12276e-05 -4.19908e-10 3.09163e-10 -1.64841e-10 5e-05 1.46608e-10 
42 1 0.06541 0.0171682 0.00748182 0.00605599 -0.000280685 0.000112162 -1.86433e-10 1.82898e-10 6.27124e-10 5e-05 1.46608e-10 
43 1 0.0651202 0.0160382 0.00816694 0.00548745 -0.000122254 -2.7744e-05 4.5264e-11 -2.08372e-10 8.51854e-11 5e-05 1.46608e-10 
44 1 0.00738367 0.018342 0.00543103 1.81374e-14 7.52946e-14 2.12932e-13 -3.13514e-22 8.06501e-23 0 5e-05 1.46608e-10 
45 1 0.0711512 0.0161586 0.00807736 0.00549268 0.000154033 5.64783e-05 1.82918e-11 3.35521e-11 -7.41011e-12 5e-05 1.46608e-10 
46 1 0.0712729 0.0166131 0.00770506 0.00596739 -1.16279e-05 -1.9242e-06 -1.20153e-12 -8.80042e-12 2.12148e-12 5e-05 1.46608e-10 
48 1 0.0622989 0.0169617 0.00747131 0.00549926 -0.000565605 0.000560166 -5.45681e-13 8.22788e-13 -6.29865e-13 5e-05 1.46608e-10 
50 1 0.0654031 0.0167845 0.00764303 0.00599202 -6.99624e-05 -9.89088e-05 -7.87092e-10 -1.99976e-09 1.42294e-09 5e-05 1.46608e-10 
51 1 0.0652439 0.0165193 0.00783045 0.00570193 -0.000351093 -0.000407941 1.18481e-09 1.93576e-10 -9.322e-10 5e-05 1.46608e-10 
53 1 0.0711119 0.0160049 0.00819907 0.00548638 0.000154056 5.54284e-05 8.06169e-12 1.80781e-11 1.77036e-11 5e-05 1.46608e-10 
54 1 0.0648935 0.0153095 0.00901075 0.00564878 4.45949e-05 0.000335142 1.00879e-10 8.33542e-11 -1.01582e-09 5e-05 1.46608e-10 
55 1 0.0595658 0.0174292 0.00726051 0.00628638 -0.000852737 0.000302469 -2.13352e-10 4.28955e-10 -1.90155e-11 5e-05 1.46608e-10 
57 1 0.0656286 0.0172929 0.00728551 0.00627723 -0.000328511 9.70836e-05 3.44164e-12 1.16314e-10 1.34179e-12 5e-05 1.46608e-10 
58 1 0.0649623 0.0154118 0.00863726 0.00566315 9.98342e-05 5.96733e-05 -3.91036e-10 -2.64351e-10 -3.36049e-10 5e-05 1.46608e-10 
59 1 0.0652173 0.0164494 0.00798741 0.00805682 0.0076847 0.00886087 0 0 -1.43822e-09 5e-05 1.46608e-10 
60 1 0.0649358 0.0153736 0.00883133 0.00547084 0.000155967 0.000177091 2.61213e-10 3.52731e-10 -1.58546e-09 5e-05 1.46608e-10 
61 1 0.0648515 0.0152509 0.00919512 0.00590243 -1.03879e-05 0.000472701 -1.24345e-10 -8.15338e-11 3.62731e-10 5e-05 1.46608e-10 
62 1 0.0651806 0.016279 0.00799854 0.00578427 -0.000133224 4.02825e-05 6.5847e-10 -1.41704e-10 -4.7402e-10 5e-05 1.46608e-10 
63 1 0.0654565 0.0172451 0.00742336 0.00614786 -0.000284053 -3.34307e-05 5.09776e-11 2.54392e-11 3.1024e-10 5e-05 1.46608e-10 
64 1 0.0652977 0.016384 0.0079232 0.00571517 -9.1113e-05 -4.55838e-05 -1.48019e-09 6.53594e-10 5.61369e-11 5e-05 1.46608e-10 
67 1 0.0655188 0.0175763 0.00713995 0.00590911 -0.000136137 -9.30623e-05 8.73353e-10 1.69334e-09 -8.1638e-10 5e-05 1.46608e-10 
68 1 0.0595397 0.0177816 0.00747677 0.0111916 0.0332215 -0.00279914 0 0 -1.43822e-09 5e-05 1.46608e-10 
69 1 0.0651399 0.0161185 0.00811075 0.00555707 -0.000194071 8.77847e-06 -5.78385e-10 -2.98457e-11 6.25225e-11 5e-05 1.46608e-10 
70 1 0.0654457 0.0169451 0.00753068 0.00596741 -0.000185998 3.67618e-06 6.01962e-10 2.11491e-10 -1.75894e-10 5e-05 1.46608e-10 
71 1 0.0593628 0.0169639 0.00750356 0.00614715 -0.000194449 0.000523954 1.22371e-09 2.33111e-09 -4.19295e-09 5e-05 1.46608e-10 
72 1 0.0654245 0.0168649 0.00758679 0.00591619 -0.000247353 4.36161e-05 1.37785e-09 -1.59142e-09 9.48476e-10 5e-05 1.46608e-10 
74 1 0.0652651 0.0165994 0.00777447 0.00579261 -0.000316488 -0.000162773 -5.89066e-10 1.87822e-09 -1.68453e-09 5e-05 1.46608e-10 
76 1 0.0655312 0.0176279 0.00705519 0.00573301 -0.000128506 -3.93224e-05 -2.24599e-10 6.73052e-11 -1.08126e-09 5e-05 1.46608e-10 
77 1 0.065286 0.0166795 0.00771838 0.00586736 -0.000238361 2.92015e-05 4.61831e-11 6.83403e-10 -6.85654e-10 5e-05 1.46608e-10 
78 1 0.059443 0.0172704 0.00755039 0.0144379 0.0170155 0.00166236 0 0 -1.43822e-09 5e-05 1.46608e-10 
80 1 0.0655503 0.0177195 0.00701991 0.0057271 -7.14442e-05 0.000217345 -2.72599e-10 -3.13746e-10 -2.1925e-10 5e-05 1.46608e-10 
81 1 0.058683 0.0147615 0.00981039 0.0062711 0.000362265 -4.60525e-05 -5.66557e-10 5.0643e-10 -4.45864e-10 5e-05 1.46608e-10 
83 1 0.0595375 0.0172659 0.00720222 0.00624293 -0.000233862 0.000375406 1.4855e-09 1.97664e-10 -3.65074e-10 5e-05 1.46608e-10 
84 1 0.0653282 0.0168397 0.00760631 0.00591342 -0.000234169 2.32449e-05 -2.19979e-10 -3.29298e-10 2.4964e-10 5e-05 1.46608e-10 
85 1 0.0597259 0.0173526 0.00718317 0.00619512 0.000601556 -7.11671e-05 9.87075e-10 -3.74139e-11 -2.6819e-10 5e-05 1.46608e-10 
86 1 0.0653612 0.0169994 0.00760958 0.00589383 -0.000149233 -9.05346e-06 9.83449e-11 -5.82607e-10 2.47157e-10 5e-05 1.46608e-10 
87 1 0.0710728 0.0158511 0.0083208 0.00545171 0.00015836 5.0724e-05 -5.33287e-12 6.57611e-12 -1.15783e-12 5e-05 1.46608e-10 
89 1 0.0653072 0.0167597 0.00766249 0.00585234 -0.000204626 5.72109e-05 -6.5301e-10 -1.22914e-11 -5.40239e-10 5e-05 1.46608e-10 
90 1 0.0710923 0.015928 0.00825992 0.00548415 0.000154653 5.59337e-05 4.92289e-12 -2.40585e-12 -2.0019e-11 5e-05 1.46608e-10 
91 1 0.0157927 0.0215765 0.00607411 -7.12362e-15 2.48296e-14 -7.81458e-14 -4.00924e-22 -1.28161e-22 -9.51258e-24 5e-05 1.46608e-10 
92 1 0.0653189 0.0164641 0.00786718 0.00574369 -9.51463e-05 -5.26223e-05 1.32574e-10 2.84861e-10 -2.7324e-10 5e-05 1.46608e-10 
93 1 0.0653704 0.0169999 0.00749425 0.00596112 -0.00027677 5.90609e-05 -4.66058e-10 -9.68937e-10 4.46993e-10 5e-05 1.46608e-10 
94 1 0.0655301 0.0172655 0.00730655 0.00614904 -0.000275691 5.5774e-05 -1.1099e-09 8.15101e-10 -3.73396e-10 5e-05 1.46608e-10 
95 1 0.0654247 0.017058 0.00755921 0.00593348 -7.70728e-05 2.07992e-05 9.27481e-11 1.83546e-11 -5.60105e-10 5e-05 1.46608e-10 
96 1 0.0653401 0.0165442 0.00781115 0.00574856 -0.000130798 -3.49934e-05 6.37289e-10 -8.53039e-10 3.9545e-10 5e-05 1.46608e-10 
97 1 0.0595807 0.0170863 0.00738377 0.00620952 -0.000167918 0.000235663 -4.06339e-10 -1.35441e-09 5.68834e-10 5e-05 1.46608e-10 
98 1 0.065509 0.0171854 0.00736258 0.0060591 -0.000285737 6.68253e-05 -9.16427e-10 4.13467e-10 -1.08294e-10 5e-05 1.46608e-10 
99 1 0.059702 0.0171871 0.00728421 0.00669487 0.000127327 -2.02461e-05 -4.15634e-10 -1.12329e-09 1.34681e-09 5e-05 1.46608e-10 
100 1 0.0649472 0.0153866 0.00873283 0.00572295 0.000158414 0.000135669 -2.39823e-10 9.57914e-10 -8.41763e-10 5e-05 1.46608e-10 
101 1 0.0647655 0.0151425 0.00957037 0.00583334 1.28575e-05 0.000381451 1.51226e-10 6.59728e-11 -1.51123e-10 5e-05 1.46608e-10 
103 1 0.0309319 0.0177902 0.00780508 -0.0455415 0.0276467 -0.00701427 8.94926e-12 -5.09155e-10 7.4317e-11 5e-05 1.46608e-10 
105 1 0.0586636 0.0147684 0.00990825 0.0062196 0.000480324 -7.12602e-05 7.0526e-10 -2.86507e-10 -7.22784e-10 5e-05 1.46608e-10 
106 1 0.0655328 0.0169039 0.00755753 0.00607845 -0.000114338 -4.63766e-05 1.36465e-09 -5.66149e-10 3.60093e-10 5e-05 1.46608e-10 
107 1 0.0593228 0.0168255 0.00764227 0.00589486 -0.000239222 0.000331162 4.81807e-10 -1.73973e-09 2.65664e-09 5e-05 1.46608e-10 
108 1 0.0648306 0.0152238 0.00928907 0.00587137 -6.16064e-06 0.000455703 -4.90971e-10 -2.23725e-10 3.38839e-10 5e-05 1.46608e-10 
110 1 0.0654976 0.0174959 0.00725686 0.00621612 -0.000271012 1.87597e-05 4.25663e-11 1.42789e-10 -1.27039e-09 5e-05 1.46608e-10 
111 1 0.0654125 0.01716 0.00738219 0.00604395 -0.000288669 7.70951e-05 2.71093e-10 1.02901e-10 1.70886e-10 5e-05 1.46608e-10 
112 1 0.0594428 0.0172407 0.00722612 0.00627879 -0.000119538 0.00027612 -1.74275e-10 3.77117e-10 -6.08271e-10 5e-05 1.46608e-10 
113 1 0.0653427 0.0169188 0.00766575 0.00587982 -0.000220323 -6.59461e-05 1.91297e-10 -3.55373e-10 1.06469e-09 5e-05 1.46608e-10 
115 1 0.0655912 0.0175073 0.00713746 0.00605337 5.32963e-05 -0.000159739 2.57522e-10 7.18126e-10 -2.15431e-10 5e-05 1.46608e-10 
116 1 0.0651412 0.0161654 0.0081993 0.00739208 0.00749992 -0.00417823 0 0 -1.43822e-09 5e-05 1.46608e-10 
117 1 0.0648863 0.0152772 0.00910514 0.00586396 2.1889e-05 0.000421234 1.06874e-10 3.49275e-10 -3.9639e-10 5e-05 1.46608e-10 
118 1 0.0587046 0.0147872 0.00971615 0.00630563 -0.000373633 -0.000301568 1.82303e-10 6.88402e-10 -3.88383e-10 5e-05 1.46608e-10 
119 1 0.0652559 0.0162238 0.0080353 0.00544577 -0.000101022 -4.27723e-05 1.76238e-11 7.82112e-11 -2.14475e-11 5e-05 1.46608e-10 
120 1 0.064787 0.0151696 0.00947656 0.00586027 1.14427e-05 0.000400431 -3.37188e-10 1.16424e-11 -1.52958e-10 5e-05 1.46608e-10 
121 1 0.0591374 0.0158802 0.00859125 0.00608898 -9.50982e-05 0.000194676 -2.61109e-10 4.5797e-10 -4.69083e-10 5e-05 1.46608e-10 
122 1 0.0654336 0.0172401 0.00732615 0.00607055 -0.000276457 4.09035e-05 6.47674e-10 2.24398e-10 8.94688e-12 5e-05 1.46608e-10 
123 1 0.0592029 0.0160887 0.00838227 0.00534303 -2.96248e-05 0.000115746 -4.61466e-10 1.10096e-10 -1.1023e-10 5e-05 1.46608e-10 
124 1 0.0654909 0.0171212 0.00751729 0.00612677 -0.000245461 -3.93233e-06 -2.02415e-10 1.07917e-10 4.65142e-11 5e-05 1.46608e-10 
125 1 0.0651566 0.0158222 0.0083161 0.00518066 -6.8835e-05 -6.14226e-05 9.11165e-10 -1.80692e-09 1.2144e-09 5e-05 1.46608e-10 
127 1 0.0598156 0.0173968 0.00718132 0.00560494 0.00176509 -9.14319e-05 4.94776e-10 2.75031e-10 1.27221e-10 5e-05 1.46608e-10 
128 1 0.0653914 0.0170799 0.00743822 0.00604244 -0.000272114 7.63577e-05 -2.5593e-11 -5.10505e-10 3.59874e-10 5e-05 1.46608e-10 
129 1 0.0587462 0.014914 0.00956717 0.00617754 -0.00128405 -0.000437689 -2.42536e-10 -1.04998e-09 5.67198e-10 5e-05 1.46608e-10 
130 1 0.0588075 0.0151167 0.00935476 0.00598639 -0.000221137 0.000341681 -1.46999e-10 1.49886e-09 -8.68865e-10 5e-05 1.46608e-10 
131 1 0.0587667 0.0149806 0.00949546 0.00613236 -0.00049584 -8.09558e-05 -3.50889e-10 -1.45069e-09 1.55035e-09 5e-05 1.46608e-10 
133 1 0.0654795 0.0173274 0.00736672 0.00617371 -0.000256712 -3.82178e-05 -1.29774e-10 2.68863e-11 -4.35909e-10 5e-05 1.46608e-10 
135 1 0.0647439 0.0151153 0.00966418 0.00584979 3.97858e-05 0.000295955 -1.02001e-10 -1.90438e-10 6.25457e-10 5e-05 1.46608e-10 
136 1 0.0587254 0.0148505 0.00964167 0.00622907 -0.000503112 -0.000160535 3.71265e-10 3.37552e-10 -9.15568e-10 5e-05 1.46608e-10 
137 1 0.0654547 0.0173202 0.00727012 0.00615834 -0.000239061 2.34103e-05 2.07679e-10 4.63831e-10 -5.14544e-10 5e-05 1.46608e-10 
138 1 0.0655511 0.0173456 0.00725051 0.00628943 -0.000322677 9.75882e-05 -2.76644e-10 8.88947e-10 -5.89011e-10 5e-05 1.46608e-10 
140 1 0.0656556 0.0173795 0.00722484 0.0065414 -0.000178075 -1.00077e-05 -8.08e-10 6.97807e-10 -4.65244e-10 5e-05 1.46608e-10 
141 1 0.0587872 0.0150475 0.00942408 0.00605681 -0.000180985 0.000213144 -1.49057e-10 1.47376e-09 -2.81473e-09 5e-05 1.46608e-10 
142 1 0.0589302 0.0155335 0.00894104 0.00578951 -0.000172687 0.000267326 4.57993e-10 -1.14757e-10 2.81524e-10 5e-05 1.46608e-10 
143 1 0.0588683 0.0153242 0.0091468 0.00585664 -0.000149217 0.000245376 3.58911e-11 -3.02207e-10 3.41956e-10 5e-05 1.46608e-10 
144 1 0.0623191 0.0170406 0.0074134 0.00550097 -0.000565868 0.000560404 -6.49153e-13 8.40231e-13 -6.34176e-13 5e-05 1.46608e-10 
145 1 0.0213664 0.0168716 0.00826204 -3.56013e-05 -0.0179769 0.0120094 -2.81747e-13 2.93602e-11 5.13223e-14 5e-05 1.46608e-10 
146 1 0.0596844 0.0171176 0.00735391 0.0064638 0.000109007 -7.38368e-06 -5.49147e-10 -1.08844e-09 1.10081e-09 5e-05 1.46608e-10 
147 1 0.0588278 0.0151859 0.00928544 0.00592332 -0.000235898 0.000322308 1.36706e-10 2.15795e-10 -1.38475e-10 5e-05 1.46608e-10 
148 1 0.0589089 0.0154625 0.00900816 0.0057097 -0.000151702 0.000256004 2.77766e-10 6.15237e-11 1.15608e-10 5e-05 1.46608e-10 
150 1 0.0594206 0.0165327 0.0079387 0.00585587 -2.68316e-05 0.000122084 2.08562e-10 4.50523e-11 -6.25494e-11 5e-05 1.46608e-10 
153 1 0.0591838 0.0160194 0.00845176 0.0056463 -3.96669e-05 0.000131425 -2.29095e-10 5.49474e-11 -6.62058e-11 5e-05 1.46608e-10 
154 1 0.0590159 0.0157886 0.00868147 0.00619945 -0.00028832 0.000390261 -1.57491e-10 6.82814e-11 -9.83028e-11 5e-05 1.46608e-10 
156 1 0.058848 0.015255 0.00921612 0.00588851 -0.000189488 0.000285071 -2.0151e-10 -3.33328e-10 2.01743e-10 5e-05 1.46608e-10 
158 1 0.0590003 0.0155823 0.00888903 0.00600784 -0.000331628 0.000430124 2.2545e-10 4.39928e-11 2.27037e-10 5e-05 1.46608e-10 
159 1 0.0592798 0.0163659 0.00810437 0.00567072 -0.000111519 0.00020373 -1.65048e-10 -3.5622e-10 3.79082e-10 5e-05 1.46608e-10 
160 1 0.0588886 0.0153933 0.00907748 0.00581923 -0.000137236 0.000229025 -1.01736e-10 -1.2453e-10 1.45022e-10 5e-05 1.46608e-10 
162 1 0.0589921 0.01572 0.00875019 0.00627941 -0.000304074 0.000405924 -9.615e-11 -1.44353e-10 1.82482e-10 5e-05 1.46608e-10 
163 1 0.0594727 0.0173897 0.00728041 0.00626419 1.17319e-05 0.000243606 6.65695e-10 8.25698e-10 4.52917e-10 5e-05 1.46608e-10 
164 1 0.0654758 0.0174004 0.00721417 0.00628908 -0.000203495 9.97567e-06 -1.21295e-09 9.02528e-10 -1.03989e-09 5e-05 1.46608e-10 
166 1 0.065509 0.0168202 0.00761607 0.00597137 0.000123787 -0.000208981 -8.05129e-10 6.55648e-10 -4.40529e-10 5e-05 1.46608e-10 
167 1 0.0595006 0.0168095 0.00766124 0.00594958 -1.96247e-05 0.000105487 -4.30616e-10 6.74548e-11 -4.1578e-10 5e-05 1.46608e-10 
170 1 0.0590623 0.0159261 0.0085438 0.00593018 -0.000227943 0.000325024 -3.93119e-10 5.12893e-10 -5.35578e-10 5e-05 1.46608e-10 
171 1 0.0653493 0.0169198 0.00755028 0.00593433 -0.000260906 3.12668e-05 5.467e-10 -6.19246e-10 4.57634e-10 5e-05 1.46608e-10 
173 1 0.0652766 0.016304 0.00797923 0.00566279 -0.00013415 -8.73876e-06 5.56125e-10 5.18513e-10 4.43166e-11 5e-05 1.46608e-10 
174 1 0.0592998 0.0164351 0.008035 0.00569588 -8.3788e-05 0.000176408 -4.99302e-10 -1.29564e-10 2.08201e-10 5e-05 1.46608e-10 
175 1 0.0597329 0.0174607 0.00718096 0.00451031 0.00224871 -9.37855e-05 -8.84904e-10 -4.21145e-10 1.83883e-11 5e-05 1.46608e-10 
176 1 0.0589757 0.0156504 0.00882005 0.00619534 -0.000296194 0.000400923 -1.3341e-10 -2.36508e-10 1.90123e-10 5e-05 1.46608e-10 
179 1 0.0595206 0.0168787 0.00759187 0.00604916 5.12277e-06 9.11599e-05 -7.09295e-10 6.93781e-10 -6.8555e-10 5e-05 1.46608e-10 
182 1 0.0655539 0.016984 0.00750148 0.00604216 -0.000253039 5.1486e-05 1.07707e-09 -4.96697e-10 3.51947e-10 5e-05 1.46608e-10 
183 1 0.0593168 0.0168491 0.00777594 0.00578236 -0.000119563 6.23748e-05 -4.53593e-11 1.27543e-10 -4.61321e-10 5e-05 1.46608e-10 
185 1 0.059573 0.0172485 0.00733877 0.00621567 6.73478e-06 0.000267977 1.58936e-10 -7.10158e-10 -2.6887e-10 5e-05 1.46608e-10 
186 1 0.226587 0.0186791 0.00533789 -1.59331e-16 2.48915e-14 -2.37494e-13 -6.19184e-22 -1.21492e-24 4.1359e-25 5e-05 1.46608e-10 
187 1 0.0652017 0.0163591 0.00794253 0.00575762 -0.000179189 -7.51325e-05 -1.82079e-10 4.02143e-10 -8.88549e-12 5e-05 1.46608e-10 
189 1 0.0653609 0.0166243 0.0077551 0.00585966 -0.000152987 -1.85315e-05 -9.45297e-10 -5.04375e-10 3.25199e-10 5e-05 1.46608e-10 
190 1 0.0530502 0.0158188 0.00843515 0.00538577 0.000361494 0.00063982 -1.43422e-10 -9.53511e-11 1.29205e-12 5e-05 1.46608e-10 
191 1 0.0596007 0.0171555 0.00731441 0.0062745 -8.99841e-05 0.000246754 1.15618e-09 -2.03398e-09 2.1441e-09 5e-05 1.46608e-10 
192 1 0.0595589 0.0173643 0.00718477 0.00634907 -0.000396273 -0.00015373 6.48334e-10 2.57762e-10 2.66565e-10 5e-05 1.46608e-10 
193 1 0.0654879 0.0171053 0.00741861 0.00599617 -0.00026703 3.72398e-05 3.57442e-10 9.08336e-10 -3.70018e-10 5e-05 1.46608e-10 
194 1 0.0595607 0.0170171 0.00745314 0.00622503 -0.000123239 0.000228207 -5.94988e-10 -4.59611e-10 5.33296e-10 5e-05 1.46608e-10 
195 1 0.0596409 0.0174215 0.00718274 0.0055984 0.000653053 -8.14455e-05 -2.9351e-11 9.95894e-10 -2.51115e-11 5e-05 1.46608e-10 
196 1 0.0593398 0.0165736 0.00789623 0.00579485 -0.000106603 0.000198244 -6.48515e-11 1.64208e-11 -2.46759e-11 5e-05 1.46608e-10 
197 1 0.0591069 0.0160638 0.00840582 0.00559321 -0.000151902 0.000243865 -5.50439e-10 3.6785e-10 -3.61633e-10 5e-05 1.46608e-10 
198 1 0.0595161 0.017577 0.00718112 0.0059656 -0.00127474 -0.000364836 9.51372e-11 5.38158e-10 -1.61985e-10 5e-05 1.46608e-10 
199 1 0.0594853 0.0174317 0.00719054 0.00614233 -0.000616631 -7.13251e-05 -6.9906e-10 -1.6646e-09 2.48038e-09 5e-05 1.46608e-10 
200 1 0.0590394 0.0158573 0.00861269 0.00605985 -0.000263848 0.000364187 4.46371e-11 4.61195e-10 -4.40614e-10 5e-05 1.46608e-10 
201 1 0.0594806 0.0167403 0.0077306 0.0059104 -7.60456e-05 0.000174844 -4.67711e-10 4.7138e-10 -5.26258e-10 5e-05 1.46608e-10 
202 1 0.0594366 0.0172931 0.00744962 0.00636812 -0.000184725 0.000345438 -6.2257e-11 -6.79114e-10 5.56378e-11 5e-05 1.46608e-10 
203 1 0.0655725 0.017426 0.0071943 0.00631626 -0.00028181 6.8417e-05 -7.36735e-10 6.49959e-10 -5.59621e-10 5e-05 1.46608e-10 
204 1 0.0596186 0.0172254 0.00724435 0.00643495 -7.43835e-05 0.000198134 9.30972e-10 -3.2958e-10 6.93184e-10 5e-05 1.46608e-10 
205 1 0.053031 0.0157604 0.008514 0.00535846 0.000359377 0.000632124 2.29364e-11 -1.11805e-11 4.52906e-11 5e-05 1.46608e-10 
206 1 0.0594927 0.0172928 0.0072953 0.00637195 8.1591e-05 4.31753e-06 -6.36594e-10 3.85776e-10 5.47847e-10 5e-05 1.46608e-10 
207 1 0.0596443 0.0169792 0.00749266 0.00655466 0.000334184 -0.00022889 2.4047e-12 3.04022e-10 -3.07139e-10 5e-05 1.46608e-10 
208 1 0.059412 0.0171739 0.00743398 0.0060247 -4.29587e-05 0.000119959 -5.85387e-10 -5.19713e-10 -2.25509e-10 5e-05 1.46608e-10 
210 1 0.0651369 0.0157419 0.00837228 0.00530619 -0.000144286 -2.57616e-05 3.22292e-10 -4.08218e-10 3.64539e-10 5e-05 1.46608e-10 
211 1 0.0592228 0.0164795 0.00798907 0.00567805 -0.000119315 0.00021498 -4.76405e-11 1.88639e-10 -2.7216e-10 5e-05 1.46608e-10 
212 1 0.059126 0.0161331 0.00833633 0.00524866 -9.17591e-05 0.000177132 3.91893e-10 3.51858e-10 -3.61842e-10 5e-05 1.46608e-10 
213 1 0.0654668 0.0170252 0.00747465 0.00603057 -0.000280331 0.000101016 4.61824e-10 -8.8193e-12 -4.12251e-11 5e-05 1.46608e-10 
214 1 0.0592429 0.0165487 0.00791973 0.00575529 -0.00013907 0.000232543 1.1638e-10 5.3486e-10 -4.03061e-10 5e-05 1.46608e-10 
215 1 0.0159913 0.0152807 0.00678236 -2.39467e-14 -9.32251e-14 -1.94033e-13 9.58496e-23 1.64402e-23 -2.44018e-23 5e-05 1.46608e-10 
216 1 0.059392 0.0171047 0.00750335 0.00584183 -0.000182918 0.000200751 5.10559e-10 8.49441e-10 1.62259e-09 5e-05 1.46608e-10 
217 1 0.0593199 0.0165043 0.00796563 0.00576655 -0.000157795 0.00025153 2.24598e-10 -9.80033e-11 4.34537e-11 5e-05 1.46608e-10 
218 1 0.0595856 0.0173207 0.00727073 0.0064727 -5.38097e-05 6.25412e-05 3.01519e-10 2.99493e-10 -1.08052e-09 5e-05 1.46608e-10 
220 1 0.0199208 0.0175026 0.00790632 4.22841e-10 -0.022193 0.00960103 3.04446e-18 8.72583e-12 2.01072e-11 5e-05 1.46608e-10 
221 1 0.0530884 0.0159357 0.00827744 0.00543023 0.000349872 0.000651687 1.09659e-10 -1.54937e-10 2.13913e-10 5e-05 1.46608e-10 
222 1 0.0591428 0.0162027 0.00826652 0.0052244 -8.31992e-05 0.000169751 -8.35068e-10 1.21097e-10 -1.19393e-10 5e-05 1.46608e-10 
223 1 0.0254028 0.0195569 0.00545165 -1.34506e-14 -2.16684e-15 2.19344e-13 -1.03062e-22 8.8028e-22 1.44757e-24 5e-05 1.46608e-10 
225 1 0.059553 0.0171793 0.00740813 0.00638378 -9.58512e-05 2.61933e-05 2.02763e-11 1.224e-09 -5.83971e-10 5e-05 1.46608e-10 
226 1 0.0593542 0.0169659 0.00764222 0.00597855 0.000327895 -0.000156667 -8.02202e-11 6.73618e-10 1.32349e-09 5e-05 1.46608e-10 
227 1 0.0592028 0.0164104 0.00805851 0.00558604 -0.000124989 0.000210128 2.75018e-10 -3.11841e-10 4.04067e-10 5e-05 1.46608e-10 
228 1 0.0623394 0.0171196 0.00735549 0.00550268 -0.000566131 0.000560643 -7.57226e-13 8.58122e-13 -6.52584e-13 5e-05 1.46608e-10 
229 1 0.0593828 0.0170331 0.0074342 0.00605773 -0.000404235 0.000569629 2.83093e-09 3.05064e-09 -1.81769e-09 5e-05 1.46608e-10 
230 1 0.0593799 0.016712 0.00775748 0.00589696 -0.000148458 0.000243294 -5.81043e-10 -3.46244e-10 3.42832e-10 5e-05 1.46608e-10 
231 1 0.0594543 0.0173532 0.00737167 0.00618507 -7.97891e-05 0.000263603 -2.94459e-10 6.01053e-13 5.46303e-10 5e-05 1.46608e-10 
232 1 0.0593598 0.0166428 0.00782686 0.0058811 -9.13737e-05 0.000184868 1.45626e-10 1.18394e-10 -1.53387e-10 5e-05 1.46608e-10 
233 1 0.0596643 0.0170484 0.0074233 0.00681357 0.000468607 -0.000360919 -7.01402e-10 6.54776e-10 -7.04422e-10 5e-05 1.46608e-10 
234 1 0.0655799 0.0170724 0.00743959 0.00618111 0.000198787 -0.00027047 -4.22287e-10 1.95446e-10 -2.16256e-10 5e-05 1.46608e-10 
235 1 0.0594199 0.0168504 0.00761876 0.00587861 -0.000123122 0.000218653 -7.11391e-10 -1.50733e-09 3.30723e-09 5e-05 1.46608e-10 
238 1 0.0591828 0.0163411 0.00812779 0.00553485 -0.000136596 0.000217226 4.39328e-11 -5.53553e-10 6.45239e-10 5e-05 1.46608e-10 
239 1 0.0530693 0.0158773 0.0083563 0.00542216 0.000360382 0.000645307 1.30326e-10 1.20493e-10 4.82945e-11 5e-05 1.46608e-10 
240 1 0.0531267 0.0160526 0.00811974 0.00552296 0.000384468 0.000645822 1.14052e-10 4.28154e-10 -2.39431e-10 5e-05 1.46608e-10 
241 1 0.0531841 0.016228 0.0078832 0.00558004 0.000388679 0.00064545 5.43489e-10 -4.2688e-11 2.14878e-10 5e-05 1.46608e-10 
243 1 0.0532032 0.0162864 0.00780433 0.00558904 0.000367075 0.000665696 -1.56199e-10 -2.26642e-10 -3.25064e-11 5e-05 1.46608e-10 
244 1 0.0531075 0.0159942 0.00819859 0.00546146 0.000368266 0.000646955 -4.12057e-10 -4.42933e-10 2.37768e-10 5e-05 1.46608e-10 
246 1 0.0531649 0.0161695 0.00796203 0.00553992 0.000370859 0.000651555 -3.13038e-10 -5.70324e-10 2.37647e-10 5e-05 1.46608e-10 
247 1 0.0592198 0.0161583 0.00831246 0.00534965 -8.17172e-05 0.000169073 7.46306e-10 2.33954e-10 -2.1904e-10 5e-05 1.46608e-10 
248 1 0.0594606 0.0166711 0.00779996 0.00601116 -0.000103922 0.00020118 -3.84899e-10 2.61333e-10 -2.48223e-10 5e-05 1.46608e-10 
250 1 0.0594599 0.0169888 0.00748001 0.00587599 -0.000192408 0.000311562 8.97853e-10 -2.08276e-09 3.41565e-09 5e-05 1.46608e-10 
251 1 0.059372 0.0170355 0.00757271 0.00599273 0.000145449 0.000668199 4.73056e-10 2.20972e-10 -7.67713e-10 5e-05 1.46608e-10 
252 1 0.018896 0.013113 0.0137667 4.85881e-21 -2.91472e-21 1.37807e-22 0 0 0 5e-05 1.46608e-10 
255 1 0.0591613 0.0159497 0.00852157 0.0060217 -0.000116624 0.000215845 -6.47946e-10 5.60744e-10 -5.80726e-10 5e-05 1.46608e-10 
257 1 0.0593999 0.0167812 0.00768812 0.00590905 -0.000113108 0.000201884 1.07301e-10 -1.37035e-09 1.47725e-09 5e-05 1.46608e-10 
258 1 0.0593796 0.0168811 0.00770497 0.00581803 -6.06521e-05 8.18931e-05 2.41146e-10 -4.5003e-10 9.04641e-10 5e-05 1.46608e-10 
259 1 0.0562249 0.0167346 0.00779389 0.00911316 0.0111679 -0.0137627 3.70799e-11 1.08325e-10 -1.27471e-10 5e-05 1.46608e-10 
260 1 0.0652228 0.0164392 0.00788652 0.00577926 -0.000376506 -0.000406821 -9.22566e-10 -1.0066e-09 6.04953e-10 5e-05 1.46608e-10 
261 1 0.059457 0.0172331 0.00736711 0.00626524 4.88383e-05 6.62615e-05 3.24271e-10 -6.5476e-10 -9.23336e-10 5e-05 1.46608e-10 
262 1 0.0594799 0.017058 0.00741065 0.00607213 -0.000264362 0.000371192 1.89574e-09 9.54914e-10 -5.64486e-10 5e-05 1.46608e-10 
263 1 0.0532634 0.0165456 0.00766907 0.00604778 -0.000348752 -0.000177426 1.46312e-13 6.17006e-11 1.60684e-11 5e-05 1.46608e-10 
264 1 0.0593028 0.0167563 0.00771163 0.00590743 -0.000128075 0.000216471 -7.25024e-10 -1.65345e-09 1.552e-09 5e-05 1.46608e-10 
266 1 0.0590853 0.0159948 0.00847492 0.00587128 -0.000197539 0.000296119 -5.15679e-10 1.13969e-10 -1.58451e-10 5e-05 1.46608e-10 
267 1 0.0596711 0.0173721 0.00726448 0.00616091 0.000354581 -5.80527e-05 -8.0242e-10 -5.60857e-10 -5.04587e-10 5e-05 1.46608e-10 
268 1 0.0594645 0.0173341 0.00719772 0.0062969 -7.70811e-05 0.000188864 1.27945e-09 1.49865e-09 -1.88334e-09 5e-05 1.46608e-10 
269 1 0.0596386 0.0173039 0.00718509 0.00663655 -9.65139e-05 -6.36825e-05 2.53875e-09 5.11517e-10 -1.05897e-09 5e-05 1.46608e-10 
270 1 0.0594228 0.0171715 0.00729548 0.00612086 -0.000274415 0.000358803 -2.50593e-09 -3.11785e-09 1.3699e-09 5e-05 1.46608e-10 
271 1 0.0594406 0.0166019 0.00786933 0.00595678 -4.25901e-05 0.000138809 2.28622e-10 -9.20428e-11 1.079e-10 5e-05 1.46608e-10 
273 1 0.0593428 0.0168947 0.00757292 0.00592611 -0.000242912 0.000448074 2.21279e-09 7.29027e-10 -2.81802e-09 5e-05 1.46608e-10 
275 1 0.0594999 0.0171272 0.00734129 0.00627538 -0.000283732 0.000369028 -1.26083e-10 -9.19779e-10 -4.90135e-10 5e-05 1.46608e-10 
277 1 0.0592828 0.0166871 0.00778099 0.00582366 -0.000112664 0.000200619 -3.06653e-10 -7.36653e-10 7.49841e-10 5e-05 1.46608e-10 
278 1 0.0592598 0.0162967 0.00817373 0.00554435 -0.0001131 0.000200619 1.25074e-09 -4.65026e-10 4.36305e-10 5e-05 1.46608e-10 
279 1 0.0533068 0.0167247 0.00759145 0.0060551 -0.000362052 -0.000171109 1.22981e-10 1.10158e-10 -3.78967e-11 5e-05 1.46608e-10 
280 1 0.0532423 0.0164559 0.00770791 0.0057896 -0.00028216 -0.000187239 4.38486e-10 -5.60451e-11 1.05763e-10 5e-05 1.46608e-10 
281 1 0.0597215 0.0172564 0.00721476 0.00680681 0.000139393 -2.35512e-05 7.94699e-10 -8.50402e-10 8.06546e-10 5e-05 1.46608e-10 
282 1 0.0533286 0.0168142 0.00755263 0.00605594 -0.000359979 -0.000171952 -8.24486e-12 4.87191e-11 -1.71117e-11 5e-05 1.46608e-10 
283 1 0.0532228 0.0163658 0.0077468 0.0056148 -0.000247365 -0.000186993 -1.32048e-10 -1.61385e-10 -3.8959e-11 5e-05 1.46608e-10 
284 1 0.0594028 0.0171023 0.00736484 0.0059276 -0.000494795 0.00048545 1.86023e-09 -4.78888e-09 5.64612e-09 5e-05 1.46608e-10 
286 1 0.0592628 0.0166179 0.00785035 0.00577861 -0.000129453 0.000219521 1.69427e-10 3.13996e-12 -1.67913e-10 5e-05 1.46608e-10 
289 1 0.0533503 0.0169038 0.00751382 0.00606027 -0.000361714 -0.000172549 2.1761e-11 1.44395e-10 -6.32563e-11 5e-05 1.46608e-10 
290 1 0.0592399 0.0162275 0.00824311 0.00547604 -0.000122957 0.000212512 -4.98631e-10 -6.37977e-11 2.4746e-11 5e-05 1.46608e-10 
291 1 0.0595678 0.0174913 0.00718217 0.0060146 -0.00125815 -5.75438e-05 -4.73882e-11 4.39098e-10 -2.46664e-10 5e-05 1.46608e-10 
292 1 0.0591136 0.0158106 0.0086609 0.00617299 -0.000179532 0.000280716 -1.09948e-10 3.65263e-10 -3.73857e-10 5e-05 1.46608e-10 
293 1 0.0592964 0.0167706 0.00783435 0.00579808 -0.00010783 0.000162045 3.04337e-10 5.38471e-10 1.10703e-10 5e-05 1.46608e-10 
294 1 0.0595199 0.0171964 0.00727193 0.00617159 -0.000247534 0.000355365 1.52852e-09 -1.3149e-11 6.51957e-10 5e-05 1.46608e-10 
295 1 0.0595406 0.0169479 0.00752251 0.0060836 2.91316e-05 7.43477e-05 -7.13675e-10 7.00081e-10 -7.48138e-10 5e-05 1.46608e-10 
296 1 0.0594399 0.0169196 0.00754938 0.00599687 -0.000156147 0.000268988 -5.60009e-10 -2.55594e-09 2.90417e-09 5e-05 1.46608e-10 
297 1 0.0596243 0.01691 0.00756208 0.006389 0.000297709 -0.00019613 -7.15517e-10 6.82901e-10 -7.07949e-10 5e-05 1.46608e-10 
298 1 0.0532851 0.0166351 0.00763026 0.00605954 -0.00035379 -0.000175793 4.4491e-12 1.90166e-10 -1.30994e-10 5e-05 1.46608e-10 