ITEM: TIMESTEP
3000000
ITEM: NUMBER OF ATOMS
235
ITEM: BOX BOUNDS ff ff ff
-0.02 0.43
-0.02 0.06
-0.02 0.07
ITEM: ATOMS id type x y z vx vy vz fx fy fz radius mass 
1 1 0.0300622 0.0154537 0.00865455 0.0060857 2.73891e-05 0.000314669 -6.06578e-10 3.28264e-10 -3.22231e-10 5e-05 1.46608e-10 
4 1 0.0363098 0.0166221 0.00762684 0.0057698 4.11797e-05 -0.000178931 -1.05975e-10 7.03748e-11 -1.46056e-11 5e-05 1.46608e-10 
5 1 0.0300188 0.015313 0.00878997 0.0054123 -9.99408e-05 0.000424868 -5.36973e-10 4.30278e-10 6.90752e-11 5e-05 1.46608e-10 
6 1 0.0361877 0.0161069 0.00790663 0.00566482 0.000234999 3.89337e-06 6.46799e-10 2.54166e-10 -3.40858e-11 5e-05 1.46608e-10 
8 1 0.0298627 0.0151765 0.00909182 0.00556289 -0.000394654 -7.22002e-06 -8.89037e-11 -1.75681e-10 1.90751e-10 5e-05 1.46608e-10 
9 1 0.0363302 0.0167094 0.00758258 0.00578429 5.69872e-05 -0.000186955 6.71802e-11 -8.71913e-11 3.27906e-11 5e-05 1.46608e-10 
10 1 0.0422621 0.0163966 0.00767269 0.00562957 -0.000549005 0.00042061 1.28526e-12 -1.88268e-13 1.3273e-13 5e-05 1.46608e-10 
11 1 0.0238202 0.0150274 0.00924712 0.00535789 -0.000698258 0.00116596 -1.42985e-10 -3.57294e-10 4.54867e-10 5e-05 1.46608e-10 
12 1 0.0362893 0.0165348 0.00767111 0.00576 5.47298e-05 -0.000183933 3.05943e-10 3.91412e-10 -2.2438e-10 5e-05 1.46608e-10 
13 1 0.0300061 0.0155666 0.00854067 0.00611197 -2.90288e-05 0.000375003 1.79959e-10 8.79958e-11 -1.60689e-11 5e-05 1.46608e-10 
15 1 0.0300495 0.0157072 0.00840529 0.00613145 -2.90304e-05 0.00038112 3.75067e-10 6.75881e-10 -6.11921e-10 5e-05 1.46608e-10 
17 1 0.0299844 0.0154963 0.0086084 0.00607777 -2.70367e-05 0.000360345 -5.05668e-10 -4.00493e-12 1.56063e-10 5e-05 1.46608e-10 
18 1 0.0362484 0.0163602 0.00775964 0.00570871 9.67776e-05 -0.000210928 -5.35932e-10 -5.15032e-10 3.61451e-10 5e-05 1.46608e-10 
19 1 0.0297662 0.0150056 0.00955162 0.00538354 -0.000285784 -1.88489e-05 3.65296e-10 -1.58886e-10 4.26952e-10 5e-05 1.46608e-10 
23 1 0.0301147 0.0159181 0.00820221 0.0060893 -8.27325e-05 0.000424244 6.93793e-11 2.73004e-10 -2.29804e-10 5e-05 1.46608e-10 
24 1 0.0362279 0.0162729 0.00780391 0.00569467 8.39767e-05 -0.000200218 6.17475e-10 -1.59787e-10 4.64316e-10 5e-05 1.46608e-10 
25 1 0.0300278 0.0156376 0.00847368 0.00613896 -2.89768e-05 0.000381912 -2.51005e-10 -3.76667e-11 1.07609e-10 5e-05 1.46608e-10 
26 1 0.0362075 0.0161856 0.00784817 0.00572228 9.65042e-05 -0.0001957 3.3703e-11 -4.41416e-10 8.73538e-11 5e-05 1.46608e-10 
27 1 0.0300712 0.0157775 0.00833759 0.00610009 -7.01349e-05 0.00041461 4.59407e-10 4.77058e-10 -4.14815e-10 5e-05 1.46608e-10 
29 1 0.0300842 0.0155242 0.00858661 0.00613095 -2.18234e-05 0.000368105 -5.23817e-10 -1.3827e-10 1.64898e-10 5e-05 1.46608e-10 
30 1 0.0361672 0.0160464 0.00798362 0.00629881 0.000214262 7.55036e-05 -7.91579e-10 -4.15764e-10 1.44527e-10 5e-05 1.46608e-10 
32 1 0.030278 0.0164759 0.00766483 0.0057625 -7.2063e-06 0.000355561 4.67683e-11 2.83398e-10 -3.58004e-10 5e-05 1.46608e-10 
33 1 0.0361245 0.0159257 0.00813724 0.00624459 0.000169584 0.000112746 -3.42396e-10 -7.97477e-11 8.4107e-11 5e-05 1.46608e-10 
34 1 0.0300929 0.0158478 0.0082699 0.00610095 -7.18761e-05 0.000416182 -1.27069e-10 -8.00625e-12 -5.15106e-11 5e-05 1.46608e-10 
35 1 0.0301365 0.0159884 0.00813454 0.00608579 -6.94178e-05 0.000417882 -4.15034e-10 7.47377e-11 -3.66e-11 5e-05 1.46608e-10 
36 1 0.030415 0.0166396 0.00751208 0.00538989 -0.00014307 0.000444726 1.11434e-10 -1.64847e-10 1.13504e-10 5e-05 1.46608e-10 
38 1 0.0301823 0.0161433 0.00801903 0.00613987 -1.77332e-05 0.000426844 -2.61771e-11 -4.48289e-11 1.98262e-10 5e-05 1.46608e-10 
39 1 0.0303927 0.0169571 0.00735556 0.00563351 -0.000271321 -0.000177847 -3.05543e-10 3.23637e-10 -1.42685e-10 5e-05 1.46608e-10 
41 1 0.0300411 0.0153832 0.00872238 0.00571165 -0.000142531 0.000463175 -3.62624e-10 -9.17406e-11 1.46012e-10 5e-05 1.46608e-10 
42 1 0.0301581 0.0160588 0.00806686 0.0061176 -3.8588e-05 0.000427316 -1.19319e-10 4.83914e-11 2.10631e-10 5e-05 1.46608e-10 
43 1 0.0302413 0.0163346 0.0078015 0.00592684 -3.50892e-05 0.000331943 3.25547e-12 3.00486e-10 -3.24287e-11 5e-05 1.46608e-10 
44 1 0.00738367 0.018342 0.00543103 1.81222e-14 7.52935e-14 2.12934e-13 -2.8623e-22 4.33236e-23 1.57164e-23 5e-05 1.46608e-10 
45 1 0.0361459 0.0159861 0.00806043 0.00628713 0.000181869 0.000103932 7.18485e-10 8.06659e-10 -9.37271e-10 5e-05 1.46608e-10 
46 1 0.0362689 0.0164475 0.00771538 0.00576766 0.00010304 -0.000211433 -2.76805e-10 5.10978e-10 -2.97214e-10 5e-05 1.46608e-10 
48 1 0.0272062 0.0164662 0.00773708 0.00635348 0.000275379 -0.000404301 3.26625e-14 9.66941e-13 -7.98989e-13 5e-05 1.46608e-10 
50 1 0.030507 0.017081 0.00731536 0.00564055 -0.000263036 -0.000165188 5.76045e-11 3.03785e-10 -2.62137e-10 5e-05 1.46608e-10 
51 1 0.0304478 0.0167419 0.00741958 0.00566383 -0.000240338 4.53666e-05 1.12441e-10 3.15914e-11 -4.65289e-11 5e-05 1.46608e-10 
53 1 0.0361031 0.0158654 0.00821405 0.00622845 0.000204447 6.9504e-05 -1.17839e-10 -4.0161e-10 5.07803e-10 5e-05 1.46608e-10 
54 1 0.0298445 0.0151421 0.00918392 0.00551677 -0.000306874 7.94211e-06 -2.49459e-10 -1.93133e-10 -1.58304e-10 5e-05 1.46608e-10 
55 1 0.0237899 0.0149171 0.00941094 0.00533113 -0.000709897 0.00117762 1.00938e-11 4.02094e-11 3.35677e-10 5e-05 1.46608e-10 
57 1 0.0302014 0.0162216 0.00795988 0.00611123 -1.80418e-05 0.00038719 9.43542e-11 -1.93041e-10 -9.17153e-11 5e-05 1.46608e-10 
58 1 0.0299633 0.015426 0.00867629 0.00591271 4.167e-06 0.000314385 6.30705e-10 2.91798e-10 -2.6966e-10 5e-05 1.46608e-10 
59 1 0.0299028 0.0152613 0.00891539 0.00542576 -0.000179483 0.000119621 -4.9703e-10 1.28102e-10 -3.14387e-10 5e-05 1.46608e-10 
60 1 0.0299236 0.0153025 0.00882669 0.0054273 -6.63355e-06 0.000179834 -8.26192e-10 -1.85987e-10 -5.77209e-10 5e-05 1.46608e-10 
61 1 0.0298067 0.0150737 0.00936802 0.00547765 -0.000306959 1.58843e-05 -2.80202e-10 2.3639e-11 -2.25969e-10 5e-05 1.46608e-10 
62 1 0.0302975 0.0165464 0.00759671 0.0056176 -8.18269e-06 0.000332133 -5.07397e-12 2.01853e-10 -2.45679e-10 5e-05 1.46608e-10 
63 1 0.0305239 0.0175835 0.00717184 0.0055229 -0.000244483 -0.000169086 1.63377e-10 -3.08676e-10 2.90445e-10 5e-05 1.46608e-10 
64 1 0.0301494 0.0157352 0.00838348 0.00612185 -7.94462e-05 0.00042921 6.64279e-11 1.33762e-10 -1.35105e-10 5e-05 1.46608e-10 
67 1 0.0303425 0.0166907 0.0074659 0.00555877 -0.000137713 0.000184262 2.53039e-10 -7.44742e-11 -4.0283e-12 5e-05 1.46608e-10 
68 1 0.0239402 0.0153555 0.00875952 0.0057624 -0.000806513 0.00120518 -4.93388e-11 1.39986e-10 -6.80655e-11 5e-05 1.46608e-10 
69 1 0.0302597 0.0164051 0.00773309 0.0058415 -1.94265e-05 0.000344615 -7.95858e-11 3.21631e-10 -2.56643e-10 5e-05 1.46608e-10 
70 1 0.0305436 0.0176776 0.00714426 0.00555326 -0.000261671 -0.00016461 -3.91617e-10 4.22961e-11 -8.57765e-11 5e-05 1.46608e-10 
71 1 0.0238613 0.0151389 0.00908631 0.00526565 -0.000629716 0.00115002 4.31764e-10 -1.39887e-10 5.66251e-11 5e-05 1.46608e-10 
72 1 0.0305487 0.0172211 0.00727375 0.00560573 -0.000126458 -0.00020154 3.56168e-10 1.30921e-10 -1.4636e-10 5e-05 1.46608e-10 
74 1 0.0304685 0.0168936 0.00737029 0.00562017 -0.000291576 -0.000163363 -1.19948e-10 1.04828e-10 8.44487e-11 5e-05 1.46608e-10 
76 1 0.0305828 0.0178658 0.00708908 0.00554812 -0.000276277 -0.000162708 -2.87542e-10 -3.33746e-11 1.1357e-11 5e-05 1.46608e-10 
77 1 0.0305044 0.0174894 0.00719947 0.00552574 -0.000207829 -0.000146462 -2.76596e-12 -1.39314e-11 4.62397e-10 5e-05 1.46608e-10 
78 1 0.0239606 0.0154098 0.00867803 0.00586429 -0.000830812 0.00122557 2.30637e-10 1.06174e-10 -1.22922e-10 5e-05 1.46608e-10 
80 1 0.0304869 0.0174079 0.00725469 0.00550407 -0.00018459 -0.000180999 -2.23603e-10 -2.6309e-10 3.99432e-10 5e-05 1.46608e-10 
81 1 0.0240035 0.0155134 0.00851252 0.00594782 -0.000828053 0.0012317 -1.82174e-10 -4.99111e-11 2.47425e-11 5e-05 1.46608e-10 
83 1 0.0238006 0.0149725 0.00932843 0.00536652 -0.00071076 0.00117618 -2.22288e-10 -2.83986e-10 4.19909e-10 5e-05 1.46608e-10 
84 1 0.030599 0.0175193 0.00718686 0.00549369 -0.00023343 -0.000176806 4.28356e-10 -4.6706e-10 1.40605e-10 5e-05 1.46608e-10 
85 1 0.0238989 0.0152466 0.00892212 0.00545218 -0.000718509 0.00112165 -3.18598e-11 -1.62586e-10 1.03744e-11 5e-05 1.46608e-10 
86 1 0.0304128 0.0170523 0.00733229 0.00563574 -0.000255149 -0.000231866 4.29762e-11 2.86472e-10 -2.29067e-10 5e-05 1.46608e-10 
87 1 0.0360604 0.0157446 0.00836768 0.00619258 0.000219969 4.7194e-05 -2.43932e-11 6.76869e-11 -9.95758e-11 5e-05 1.46608e-10 
89 1 0.0305137 0.0173117 0.00724953 0.00557485 -0.000176972 -0.000178478 -1.59463e-10 -5.71573e-10 -7.80445e-10 5e-05 1.46608e-10 
90 1 0.0360818 0.015805 0.00829087 0.0062174 0.000227395 3.89061e-05 1.14769e-12 -1.51729e-10 2.13512e-10 5e-05 1.46608e-10 
91 1 0.0157927 0.0215765 0.00607411 -7.11682e-15 2.48311e-14 -7.81457e-14 1.39897e-22 9.36782e-23 9.30578e-24 5e-05 1.46608e-10 
92 1 0.0301711 0.0158056 0.00831576 0.00612284 -8.59547e-05 0.000433023 1.55739e-11 -1.34555e-10 1.41691e-10 5e-05 1.46608e-10 
93 1 0.0306024 0.0179598 0.0070615 0.00554959 -0.000294168 -0.000154996 -6.22514e-12 -9.36948e-11 6.44025e-12 5e-05 1.46608e-10 
94 1 0.0306971 0.0179896 0.00704898 0.00555046 -0.000299031 -0.000154182 2.82761e-11 -3.57874e-10 9.64839e-11 5e-05 1.46608e-10 
95 1 0.0304328 0.0171479 0.00731098 0.00564734 -0.000229127 -0.000163567 -3.41316e-10 -2.24434e-10 -2.48709e-10 5e-05 1.46608e-10 
96 1 0.0301929 0.0158759 0.00824805 0.00609951 -7.34376e-05 0.000418996 -2.69298e-10 2.24309e-10 -2.4086e-10 5e-05 1.46608e-10 
97 1 0.0243161 0.0162686 0.00785117 0.00531511 -0.00110743 0.000746281 1.0675e-11 6.14217e-11 -5.53205e-11 5e-05 1.46608e-10 
98 1 0.0306774 0.0178955 0.00707656 0.0055542 -0.000272543 -0.000162018 1.22447e-10 -2.82783e-10 6.58391e-11 5e-05 1.46608e-10 
99 1 0.0236663 0.0147387 0.00996864 0.00537549 -0.000382845 0.00125812 -7.51536e-11 -5.12544e-11 1.34242e-10 5e-05 1.46608e-10 
100 1 0.029941 0.0153556 0.00874377 0.00559787 6.38012e-05 0.00025428 1.9053e-10 2.02377e-10 -3.38265e-10 5e-05 1.46608e-10 
101 1 0.0297275 0.0149373 0.00973555 0.00534861 -0.000280332 -2.64891e-05 -8.2193e-11 -8.97758e-11 3.06164e-10 5e-05 1.46608e-10 
103 1 0.073263 0.01724 0.00804321 -2.32974e-11 -0.0213646 0.01119 7.71607e-19 1.01353e-11 1.93721e-11 5e-05 1.46608e-10 
105 1 0.0239817 0.0154631 0.00859614 0.005905 -0.000836098 0.00122688 1.29332e-10 -1.31368e-10 8.62243e-11 5e-05 1.46608e-10 
106 1 0.0302299 0.0162707 0.00787758 0.00602477 -2.85533e-05 0.000344003 2.45474e-10 6.98816e-11 -1.78586e-11 5e-05 1.46608e-10 
107 1 0.02384 0.0150829 0.00916637 0.00530086 -0.000673368 0.00114345 1.9106e-10 -2.44797e-10 3.05943e-10 5e-05 1.46608e-10 
108 1 0.0297853 0.0150398 0.00945961 0.00544816 -0.000300812 1.14316e-05 -8.91932e-11 -3.43476e-11 -7.00379e-11 5e-05 1.46608e-10 
110 1 0.0305633 0.0177716 0.00711667 0.00555903 -0.000271904 -0.000161375 -3.22726e-10 3.62028e-10 3.11508e-12 5e-05 1.46608e-10 
111 1 0.0306417 0.018148 0.00700633 0.00552949 -0.00028496 -0.000157598 -2.34185e-10 -3.48835e-10 1.11431e-10 5e-05 1.46608e-10 
112 1 0.0239199 0.0153016 0.00884122 0.00559722 -0.000762888 0.00115818 -1.38727e-10 -1.04743e-10 1.10679e-10 5e-05 1.46608e-10 
113 1 0.0303526 0.0167668 0.00740174 0.00564318 -0.000249574 5.26402e-05 4.7929e-11 -6.61701e-13 -2.74439e-11 5e-05 1.46608e-10 
115 1 0.0303739 0.0168622 0.00738073 0.00563812 -0.000261873 -7.12276e-05 -9.18953e-11 5.84693e-11 -1.95013e-10 5e-05 1.46608e-10 
116 1 0.0298822 0.0152151 0.00900167 0.00551864 -0.000363978 4.73222e-05 -2.21656e-11 2.53306e-10 2.15151e-10 5e-05 1.46608e-10 
117 1 0.0298249 0.015108 0.00927586 0.00549422 -0.000299213 1.41507e-05 1.00518e-10 6.15845e-11 -1.14235e-10 5e-05 1.46608e-10 
118 1 0.0240237 0.0155662 0.00843003 0.00596411 -0.000821149 0.00123189 8.28641e-11 -1.15394e-11 -1.3707e-10 5e-05 1.46608e-10 
119 1 0.0301059 0.0155946 0.00851893 0.0061616 -2.21074e-05 0.000373248 2.94838e-10 1.39327e-10 -8.8999e-11 5e-05 1.46608e-10 
120 1 0.029747 0.0149714 0.00964362 0.0053791 -0.000281683 -3.05285e-05 -4.32617e-10 -2.13071e-10 5.71646e-10 5e-05 1.46608e-10 
121 1 0.0240576 0.0154253 0.00864921 0.0058679 -0.000837196 0.00125246 -1.45428e-10 -1.61616e-10 1.53423e-10 5e-05 1.46608e-10 
122 1 0.0306613 0.0182421 0.00697874 0.0055322 -0.000244921 -0.000168915 -3.61544e-11 -4.1267e-10 7.54241e-11 5e-05 1.46608e-10 
123 1 0.0242079 0.0158752 0.00814404 0.00606452 -0.000994521 0.000874273 -1.39174e-10 1.43704e-10 -1.18464e-10 5e-05 1.46608e-10 
124 1 0.0304527 0.0172437 0.00729032 0.00558764 -0.000226725 -0.000205087 3.01316e-10 2.66679e-10 -1.80403e-10 5e-05 1.46608e-10 
125 1 0.0300023 0.0152674 0.00887741 0.00528555 -0.000203371 0.000365849 8.43689e-10 -6.55369e-10 6.51755e-10 5e-05 1.46608e-10 
127 1 0.0242722 0.0161101 0.00796795 0.0054644 -0.000861443 0.000756056 -1.50878e-10 1.30061e-10 -2.00845e-10 5e-05 1.46608e-10 
128 1 0.0306221 0.0180539 0.00703391 0.00553651 -0.000312907 -0.000149571 3.50516e-10 2.47845e-10 -7.47499e-11 5e-05 1.46608e-10 
129 1 0.0240669 0.0156974 0.0082863 0.00597363 -0.000982319 0.00108508 -1.64436e-11 -1.37216e-10 1.91982e-10 5e-05 1.46608e-10 
130 1 0.0241318 0.0159265 0.00810422 0.00594527 -0.00108209 0.000961275 -3.64597e-11 -7.23296e-12 -5.47219e-11 5e-05 1.46608e-10 
131 1 0.0240886 0.0157708 0.008222 0.00597849 -0.00105792 0.00099942 -3.97004e-11 1.0898e-10 1.6022e-10 5e-05 1.46608e-10 
133 1 0.0296887 0.014869 0.00991948 0.00538785 -0.000315807 5.64636e-05 6.30759e-11 5.18799e-11 -1.81301e-10 5e-05 1.46608e-10 
135 1 0.0297079 0.0149032 0.00982749 0.00535842 -0.000291144 -3.03297e-06 2.70725e-11 1.88089e-11 -9.23508e-11 5e-05 1.46608e-10 
136 1 0.0240469 0.0156257 0.00835307 0.0059659 -0.000878799 0.00119081 2.18495e-10 -3.68903e-10 -2.56681e-10 5e-05 1.46608e-10 
137 1 0.030681 0.0183362 0.00695115 0.00568675 -0.000280306 -0.000168426 1.33549e-09 -1.51898e-09 2.63496e-10 5e-05 1.46608e-10 
138 1 0.0307167 0.0180836 0.00702139 0.00552009 -0.000286131 -0.000156425 2.31771e-10 -6.18538e-12 1.11479e-11 5e-05 1.46608e-10 
140 1 0.0303188 0.0166171 0.00752927 0.00540771 1.32492e-05 0.000302304 5.97018e-11 1.16107e-10 -9.31845e-11 5e-05 1.46608e-10 
141 1 0.0241108 0.0158481 0.00816261 0.00598856 -0.0010918 0.000965255 7.83711e-11 -1.4576e-10 -2.65085e-10 5e-05 1.46608e-10 
142 1 0.0242585 0.0164004 0.00775881 0.00545974 -0.00103472 0.000740417 3.44561e-11 6.55081e-11 -9.96298e-11 5e-05 1.46608e-10 
143 1 0.0241957 0.0161621 0.00792981 0.00536879 -0.00104513 0.000731787 -1.4952e-10 -7.69817e-11 9.30227e-11 5e-05 1.46608e-10 
144 1 0.0272309 0.0165508 0.00766676 0.00633739 0.000202793 -0.000344128 -8.61635e-14 9.98032e-13 -8.28394e-13 5e-05 1.46608e-10 
145 1 0.0181231 0.0162518 0.00878625 3.03771e-05 0.00488469 -0.00456931 2.76959e-13 2.13676e-10 -2.63206e-10 5e-05 1.46608e-10 
146 1 0.0244314 0.0163769 0.00777393 0.00553013 -0.00106606 0.000720055 4.20614e-11 -1.75676e-10 2.37303e-11 5e-05 1.46608e-10 
147 1 0.0241535 0.0160044 0.00804538 0.00574442 -0.00105609 0.000907813 -1.91557e-10 8.61416e-11 -3.60155e-11 5e-05 1.46608e-10 
148 1 0.0242385 0.0163213 0.00781659 0.00537699 -0.00102329 0.000735814 -8.55757e-12 -1.64351e-10 -1.46935e-10 5e-05 1.46608e-10 
150 1 0.0241418 0.0156404 0.00832005 0.00615587 -0.000908999 0.000811732 2.55956e-10 -4.3409e-10 1.82469e-10 5e-05 1.46608e-10 
153 1 0.0241227 0.0155832 0.00840258 0.00597015 -0.000832655 0.00124822 3.57398e-10 -1.30598e-10 -1.16717e-10 5e-05 1.46608e-10 
154 1 0.0243361 0.0167204 0.00753192 0.00549195 -0.00112088 0.000746272 -2.3409e-11 1.28001e-10 3.42915e-11 5e-05 1.46608e-10 
156 1 0.0241751 0.0160831 0.00798753 0.00552891 -0.0010578 0.000791979 -2.72491e-10 -6.52037e-11 -2.02093e-10 5e-05 1.46608e-10 
158 1 0.0242764 0.0164804 0.00770163 0.00550791 -0.00106278 0.000723188 7.00904e-11 8.73061e-11 8.41867e-11 5e-05 1.46608e-10 
159 1 0.0244743 0.016538 0.00765978 0.00553261 -0.00109434 0.000741862 -1.79481e-10 1.2955e-10 -7.78754e-11 5e-05 1.46608e-10 
160 1 0.0242169 0.0162414 0.0078728 0.00530539 -0.00102383 0.000721889 -1.96073e-10 -1.08101e-10 1.12966e-10 5e-05 1.46608e-10 
162 1 0.0243178 0.0166403 0.00758885 0.00550835 -0.0011095 0.000733166 2.24915e-10 -1.84618e-10 4.88312e-11 5e-05 1.46608e-10 
163 1 0.0246139 0.0180004 0.00712425 0.00543236 -0.00136661 0.000204975 -5.45335e-10 -9.50394e-10 -2.13109e-11 5e-05 1.46608e-10 
164 1 0.0307008 0.0184303 0.00692357 0.00602438 -0.000364721 -0.000162329 5.61169e-10 5.27243e-10 -1.94289e-10 5e-05 1.46608e-10 
166 1 0.0302363 0.0160166 0.00811262 0.00608181 -7.98458e-05 0.000428857 1.5511e-10 -1.79273e-10 2.75721e-10 5e-05 1.46608e-10 
167 1 0.0240364 0.0153726 0.00873155 0.00585122 -0.000851026 0.00127469 2.96721e-10 -1.22294e-10 2.51046e-10 5e-05 1.46608e-10 
170 1 0.0243765 0.0168806 0.00741929 0.0054406 -0.00109706 0.000739409 2.89908e-10 5.725e-10 -2.29322e-10 5e-05 1.46608e-10 
171 1 0.0303422 0.0163671 0.00777503 0.00587405 1.53587e-05 0.000320814 -2.97887e-10 1.51507e-10 -1.06254e-10 5e-05 1.46608e-10 
173 1 0.0301277 0.0156649 0.00845118 0.00612988 -5.68584e-05 0.000405827 -1.37767e-10 -9.44242e-11 1.18672e-10 5e-05 1.46608e-10 
174 1 0.0243738 0.0165089 0.00768094 0.0055017 -0.00108788 0.00073247 -1.72836e-10 1.74654e-10 -1.56721e-10 5e-05 1.46608e-10 
175 1 0.0243927 0.0169606 0.00736149 0.00545444 -0.00105247 0.000746886 -1.50354e-10 6.28088e-11 -2.55613e-10 5e-05 1.46608e-10 
176 1 0.024296 0.0165612 0.007646 0.00551313 -0.00108877 0.000723522 -1.88752e-10 -1.89172e-10 9.05043e-11 5e-05 1.46608e-10 
179 1 0.0243541 0.0164289 0.00773763 0.0055101 -0.00105804 0.000711335 3.262e-10 3.72196e-10 -9.83663e-11 5e-05 1.46608e-10 
182 1 0.029669 0.0148349 0.0100114 0.00535198 -0.000332008 0.000101942 -2.07931e-10 3.13299e-10 -7.53139e-10 5e-05 1.46608e-10 
183 1 0.0245285 0.0176144 0.00718388 0.00534019 -0.00127191 0.000217877 -5.26283e-10 3.42989e-10 -1.73353e-10 5e-05 1.46608e-10 
185 1 0.0246297 0.018099 0.00712139 0.00559709 -0.00137667 0.000210825 4.88418e-10 -8.58088e-10 1.25054e-09 5e-05 1.46608e-10 
186 1 0.226587 0.0186791 0.00533789 -1.79427e-16 2.48915e-14 -2.37494e-13 -3.85139e-22 -4.1359e-25 0 5e-05 1.46608e-10 
187 1 0.0302605 0.0160867 0.00804525 0.00613211 -5.35142e-05 0.000405629 -1.67379e-10 -5.85213e-11 3.75224e-11 5e-05 1.46608e-10 
189 1 0.0302148 0.0159462 0.00818036 0.00610065 -6.00364e-05 0.000407132 -3.21672e-10 1.8792e-10 -2.02309e-10 5e-05 1.46608e-10 
190 1 0.0184631 0.017304 0.00727553 0.00511931 -0.00190319 0.000744391 -4.01302e-13 -1.04342e-12 5.01912e-13 5e-05 1.46608e-10 
191 1 0.0249062 0.0185415 0.00703238 0.00569028 -0.0015095 0.000107848 -4.06359e-11 1.24041e-10 6.34353e-11 5e-05 1.46608e-10 
192 1 0.0244702 0.0173242 0.00723209 0.00530649 -0.00137301 0.000248924 9.19077e-10 4.43435e-10 -9.73021e-10 5e-05 1.46608e-10 
193 1 0.0305169 0.0168089 0.00739229 0.00562749 -0.000289862 -0.000162064 -1.15441e-10 9.32652e-11 -5.92814e-12 5e-05 1.46608e-10 
194 1 0.0241644 0.0157188 0.00826131 0.00598654 -0.0010983 0.000953804 -2.29903e-10 2.27523e-10 -1.35429e-10 5e-05 1.46608e-10 
195 1 0.0244898 0.0174208 0.0072153 0.00550178 -0.0013931 0.000237839 7.67505e-10 4.96925e-10 -2.2656e-10 5e-05 1.46608e-10 
196 1 0.0237673 0.014876 0.00949928 0.00536174 -0.000642877 0.00121089 -1.3896e-10 2.30859e-10 1.17942e-10 5e-05 1.46608e-10 
197 1 0.024549 0.0177113 0.00717039 0.0053329 -0.00127806 0.00026436 -1.9648e-10 7.14102e-10 -2.29751e-10 5e-05 1.46608e-10 
198 1 0.0244132 0.0170423 0.00730756 0.00544039 -0.00114819 0.000614746 -2.44743e-10 -8.56361e-10 -6.11236e-10 5e-05 1.46608e-10 
199 1 0.024672 0.0182896 0.00707956 0.00565129 -0.00131913 0.000234021 3.00388e-10 -6.59294e-10 2.32481e-10 5e-05 1.46608e-10 
200 1 0.0243564 0.0168002 0.00747513 0.00544028 -0.00111483 0.000746527 -1.86706e-10 3.26716e-10 -4.14723e-10 5e-05 1.46608e-10 
201 1 0.0248095 0.0185111 0.00704126 0.00573001 -0.00137365 9.50846e-05 5.15321e-10 -2.38777e-11 6.59711e-10 5e-05 1.46608e-10 
202 1 0.0245879 0.0179049 0.00713896 0.00530735 -0.00133895 0.000229899 -2.65663e-10 -2.42094e-10 -3.80659e-11 5e-05 1.46608e-10 
203 1 0.0305267 0.0175672 0.00727047 0.00555128 -0.00019938 -0.00016081 -4.7488e-11 -1.48568e-10 2.11442e-10 5e-05 1.46608e-10 
204 1 0.024457 0.0172258 0.0072439 0.00533948 -0.00136121 0.000233272 6.79716e-10 1.58564e-10 -5.29424e-10 5e-05 1.46608e-10 
205 1 0.0184438 0.0172156 0.00731806 0.00510227 -0.00189994 0.000743377 8.07666e-14 -1.6737e-12 7.73756e-13 5e-05 1.46608e-10 
206 1 0.0245128 0.0175168 0.00719894 0.00543754 -0.00132839 0.000219296 -3.93983e-10 6.8283e-10 -1.29112e-10 5e-05 1.46608e-10 
207 1 0.0240997 0.0155308 0.00848454 0.00596533 -0.000828856 0.00123447 -9.04047e-11 2.67468e-11 2.36613e-11 5e-05 1.46608e-10 
208 1 0.0247146 0.0184829 0.00705653 0.00571248 -0.00130648 0.000119533 -1.4375e-10 2.32196e-10 -2.74938e-11 5e-05 1.46608e-10 
210 1 0.0299805 0.0152195 0.00896243 0.00518993 -0.000379611 0.000248833 -3.21472e-10 -2.4015e-10 1.18582e-09 5e-05 1.46608e-10 
211 1 0.0247676 0.0183186 0.00707554 0.00563118 -0.00130893 0.000250809 5.61168e-10 -2.91219e-10 1.82425e-11 5e-05 1.46608e-10 
212 1 0.0245676 0.0178082 0.007154 0.00526055 -0.00130236 0.000260763 6.70958e-11 5.69585e-10 7.28993e-11 5e-05 1.46608e-10 
213 1 0.0303621 0.0164396 0.00770508 0.00619361 0.000462941 -0.000103022 -1.51844e-10 2.46692e-10 -2.6338e-10 5e-05 1.46608e-10 
214 1 0.0247367 0.0185796 0.00704406 0.00573589 -0.0013427 7.55063e-05 2.44006e-10 5.11827e-10 3.92822e-10 5e-05 1.46608e-10 
215 1 0.0159913 0.0152807 0.00678236 -2.39486e-14 -9.32242e-14 -1.94033e-13 4.66323e-23 8.4786e-24 -3.72231e-24 5e-05 1.46608e-10 
216 1 0.0246934 0.0183873 0.00707661 0.00567046 -0.00130177 0.000181475 1.08113e-10 -3.81345e-10 -3.92449e-10 5e-05 1.46608e-10 
217 1 0.0242944 0.0161893 0.00790861 0.00528285 -0.000993344 0.000832681 -4.76915e-10 2.11507e-10 -2.25251e-10 5e-05 1.46608e-10 
218 1 0.0247971 0.0188573 0.00697699 0.00579497 -0.00142279 7.56252e-05 1.99724e-10 -1.26642e-10 1.14968e-10 5e-05 1.46608e-10 
220 1 0.149019 0.0183483 0.00766059 3.80322e-10 -0.0237225 0.0043613 2.85248e-18 3.96756e-12 2.15023e-11 5e-05 1.46608e-10 
221 1 0.0185017 0.0174809 0.00719047 0.0051864 -0.00191423 0.000749336 4.00848e-11 -2.86136e-11 5.22634e-11 5e-05 1.46608e-10 
222 1 0.024452 0.0164578 0.00771662 0.00549542 -0.00109202 0.000740551 -1.26484e-10 8.46043e-11 -6.6539e-11 5e-05 1.46608e-10 
223 1 0.0254028 0.0195569 0.00545165 -1.34496e-14 -2.20772e-15 2.19343e-13 4.56242e-24 2.34793e-22 2.89513e-24 5e-05 1.46608e-10 
225 1 0.0248388 0.0190461 0.00694057 0.00588799 -0.00135904 7.10038e-05 4.55878e-11 -9.43181e-11 6.77854e-11 5e-05 1.46608e-10 
226 1 0.0246504 0.0181932 0.00709481 0.00562235 -0.00135213 0.000226679 -1.07182e-10 -7.8497e-10 4.65156e-10 5e-05 1.46608e-10 
227 1 0.0237232 0.0148121 0.00968341 0.0053429 -0.000364876 0.00123636 4.1623e-11 3.46709e-11 -4.86022e-10 5e-05 1.46608e-10 
228 1 0.0273178 0.0168877 0.00738718 0.00577246 -8.33394e-05 -9.29e-05 9.36527e-13 2.98214e-13 -2.70907e-13 5e-05 1.46608e-10 
229 1 0.023879 0.0151917 0.00900326 0.00533934 -0.000672422 0.00112868 4.17259e-10 3.85664e-11 -1.89984e-10 5e-05 1.46608e-10 
230 1 0.0247881 0.0184152 0.00706018 0.00565977 -0.00133692 0.000179689 -3.18759e-10 -2.41262e-11 -1.75017e-10 5e-05 1.46608e-10 
231 1 0.0244355 0.017131 0.00726714 0.00556686 -0.0013298 0.000349544 -1.00142e-09 5.37729e-11 -5.08409e-10 5e-05 1.46608e-10 
232 1 0.0237061 0.0147883 0.00977901 0.00535812 -0.000368862 0.00124584 1.08085e-10 1.89544e-10 -5.41631e-10 5e-05 1.46608e-10 
233 1 0.0241866 0.0157968 0.00820283 0.00599469 -0.00109664 0.000942913 1.87643e-10 -5.74992e-11 1.50333e-12 5e-05 1.46608e-10 
234 1 0.0303237 0.0162964 0.0078433 0.00591739 -1.83508e-05 0.000353917 -1.63891e-10 7.0045e-11 -1.34572e-10 5e-05 1.46608e-10 
235 1 0.0248626 0.0183492 0.00706951 0.00562325 -0.00135478 7.14948e-05 -1.24173e-09 -1.34936e-10 1.89357e-10 5e-05 1.46608e-10 
238 1 0.0243956 0.0165885 0.00762451 0.00550704 -0.00110959 0.000750542 -2.93072e-10 -2.83392e-10 1.52096e-10 5e-05 1.46608e-10 
239 1 0.0184824 0.0173924 0.007233 0.00513633 -0.00190636 0.000745363 9.06459e-13 -3.28069e-12 9.54846e-13 5e-05 1.46608e-10 
240 1 0.0185405 0.0176577 0.00710542 0.00522502 -0.0019388 0.000761766 2.36992e-11 1.02392e-12 1.25228e-10 5e-05 1.46608e-10 
241 1 0.0185989 0.0179302 0.0069991 0.00524744 -0.00200454 0.000515688 2.47447e-10 -6.54112e-10 2.26496e-10 5e-05 1.46608e-10 
243 1 0.0186301 0.0180854 0.0069748 0.00486206 -0.00383572 0.00079666 -2.01975e-13 5.07841e-13 -1.03329e-13 5e-05 1.46608e-10 
244 1 0.0185211 0.0175693 0.00714794 0.00521199 -0.00192251 0.000748395 -2.48817e-11 -7.69419e-11 -3.41093e-11 5e-05 1.46608e-10 
246 1 0.0185793 0.0178345 0.00702037 0.00527529 -0.00190237 0.000733547 -2.9413e-10 4.36775e-10 -2.04127e-10 5e-05 1.46608e-10 
247 1 0.0244558 0.0168301 0.00745336 0.00546629 -0.00109335 0.000739777 -2.7299e-10 3.08947e-10 -2.30285e-10 5e-05 1.46608e-10 
248 1 0.0245143 0.0166996 0.0075453 0.00548515 -0.00108734 0.000733746 4.44249e-10 -1.11314e-10 9.15297e-11 5e-05 1.46608e-10 
250 1 0.0243361 0.0163485 0.00779454 0.00541864 -0.0011106 0.000750851 3.3093e-11 5.78241e-10 -2.16858e-10 5e-05 1.46608e-10 
251 1 0.0249481 0.0188053 0.006982 0.00573682 -0.00148545 9.78951e-05 -1.72754e-10 -1.32124e-10 -4.08251e-11 5e-05 1.46608e-10 
252 1 0.018896 0.013113 0.0137667 4.85881e-21 -2.91472e-21 1.37807e-22 0 0 0 5e-05 1.46608e-10 
255 1 0.0240795 0.0154779 0.00856704 0.00592177 -0.000844465 0.001264 5.94637e-11 -1.47059e-10 1.13356e-10 5e-05 1.46608e-10 
257 1 0.0248311 0.018607 0.00702311 0.00574751 -0.00141668 5.34178e-05 3.97874e-10 6.93018e-11 -1.00757e-10 5e-05 1.46608e-10 
258 1 0.0247072 0.0180359 0.0071192 0.00551018 -0.00129931 0.000239553 -7.43321e-10 5.1603e-10 -2.19254e-10 5e-05 1.46608e-10 
259 1 0.0213858 0.0171888 0.00723988 0.00534447 -0.00155289 0.000571309 6.03901e-13 -5.82079e-14 1.58261e-14 5e-05 1.46608e-10 
260 1 0.0303966 0.0165402 0.00760849 0.00608663 0.00269697 -0.00229636 -1.42139e-10 1.14218e-10 -7.17301e-11 5e-05 1.46608e-10 
261 1 0.02486 0.0191421 0.00692206 0.00591451 -0.00134327 6.65598e-05 -6.8497e-11 -1.34378e-10 9.97924e-12 5e-05 1.46608e-10 
262 1 0.024918 0.018655 0.00701091 0.00572331 -0.00145504 9.59265e-05 2.26826e-10 -2.9237e-10 -7.8648e-11 5e-05 1.46608e-10 
263 1 0.0187416 0.0186062 0.0068935 0.0052469 -0.00449774 0.000918342 2.29326e-13 -1.68193e-13 1.78486e-14 5e-05 1.46608e-10 
264 1 0.0248717 0.0187423 0.00699608 0.00573399 -0.00145486 8.86142e-05 2.58778e-10 -1.68511e-11 -6.18822e-11 5e-05 1.46608e-10 
266 1 0.0242296 0.0159534 0.00808541 0.00587495 -0.000935428 0.000820028 -6.37548e-12 -9.10292e-11 1.18556e-10 5e-05 1.46608e-10 
267 1 0.0248812 0.0192381 0.00690355 0.00594713 -0.00132416 6.12102e-05 -5.10531e-11 -2.919e-10 3.62716e-11 5e-05 1.46608e-10 
268 1 0.0237425 0.0148468 0.00959163 0.00532677 -0.000513169 0.00121466 2.55861e-11 -2.5174e-10 -2.98298e-10 5e-05 1.46608e-10 
269 1 0.0247788 0.0187696 0.00702127 0.00577637 -0.00141159 7.77159e-05 7.93107e-11 -1.44248e-10 2.26629e-10 5e-05 1.46608e-10 
270 1 0.0249944 0.018718 0.00699683 0.00572038 -0.00148671 0.000102213 -1.31676e-10 -2.57972e-10 7.20417e-12 5e-05 1.46608e-10 
271 1 0.0242513 0.0160315 0.00802685 0.00564805 -0.000857399 0.000772604 6.56586e-11 1.31065e-11 -1.99568e-11 5e-05 1.46608e-10 
273 1 0.0249552 0.0191716 0.00691364 0.00582796 -0.00140584 8.17504e-05 1.11097e-10 2.60261e-11 -1.66279e-11 5e-05 1.46608e-10 
275 1 0.0248924 0.0188873 0.00696846 0.00579663 -0.00143498 9.07486e-05 8.27805e-11 8.94779e-11 1.01573e-10 5e-05 1.46608e-10 
277 1 0.0249158 0.018983 0.00694993 0.00587172 -0.00137741 7.54024e-05 -4.0658e-10 -1.63174e-10 7.07568e-11 5e-05 1.46608e-10 
278 1 0.0244877 0.0169858 0.00734312 0.00548092 -0.00108122 0.000689533 1.03499e-09 -1.49851e-09 1.10714e-09 5e-05 1.46608e-10 
279 1 0.0187913 0.0188302 0.00685859 0.00529197 -0.00453851 0.000926579 5.47399e-17 -5.96446e-14 -1.0584e-15 5e-05 1.46608e-10 
280 1 0.0187202 0.0185096 0.00690855 0.00523121 -0.0044628 0.000911937 -8.47013e-12 -4.76508e-12 -5.31013e-12 5e-05 1.46608e-10 
281 1 0.0236468 0.0147143 0.0100636 0.00532621 -0.000376285 0.00125613 5.36984e-10 -3.24623e-10 1.03739e-09 5e-05 1.46608e-10 
282 1 0.0187706 0.0184247 0.0069242 0.00523187 -0.00446252 0.00091223 7.42618e-12 5.23576e-12 4.99393e-12 5e-05 1.46608e-10 
283 1 0.0186517 0.0181925 0.00695803 0.00484436 -0.00383999 0.000796743 -2.43003e-13 6.41719e-13 -1.1512e-13 5e-05 1.46608e-10 
284 1 0.0249936 0.0185902 0.00702062 0.00571135 -0.00144291 9.07545e-05 2.50607e-11 -2.48778e-11 -1.93859e-11 5e-05 1.46608e-10 
286 1 0.0248191 0.0189549 0.00697632 0.00581939 -0.00139003 6.47478e-05 3.10124e-10 9.03219e-12 -7.64894e-11 5e-05 1.46608e-10 
289 1 0.0185756 0.0173588 0.00724608 0.00575821 -0.00045927 3.98818e-05 6.19574e-12 3.02917e-11 -1.46793e-11 5e-05 1.46608e-10 
290 1 0.0244934 0.016619 0.0076024 0.00551686 -0.00106983 0.000734827 3.74148e-10 -1.74697e-11 1.66489e-10 5e-05 1.46608e-10 
291 1 0.0247563 0.0186725 0.00701264 0.00576036 -0.00137853 7.04868e-05 1.94139e-10 2.46368e-10 2.07735e-11 5e-05 1.46608e-10 
292 1 0.0240161 0.0153198 0.00881401 0.00573207 -0.000848717 0.00127318 3.28276e-10 1.95175e-11 1.10525e-10 5e-05 1.46608e-10 
293 1 0.0244342 0.0167487 0.00751109 0.00547191 -0.00110722 0.000756249 9.8377e-11 6.13823e-11 3.92703e-12 5e-05 1.46608e-10 
294 1 0.0249882 0.0189148 0.00696039 0.00582249 -0.00138638 7.54502e-05 -4.05386e-10 3.22608e-10 -2.28561e-11 5e-05 1.46608e-10 
295 1 0.0236865 0.0147632 0.0098738 0.0053731 -0.000389926 0.00125432 2.05876e-10 4.7182e-11 -3.62492e-10 5e-05 1.46608e-10 
296 1 0.024884 0.0184451 0.007051 0.00565647 -0.00147678 9.84273e-05 1.11609e-09 2.20878e-10 -1.08435e-10 5e-05 1.46608e-10 
297 1 0.0244139 0.0166688 0.00756769 0.00548819 -0.00112098 0.000751298 -1.58821e-10 -1.08547e-10 -2.14389e-10 5e-05 1.46608e-10 
298 1 0.018763 0.0187027 0.00687846 0.00526917 -0.00450244 0.000919886 7.7692e-14 -1.77401e-13 5.20631e-14 5e-05 1.46608e-10 