ITEM: TIMESTEP
5000000
ITEM: NUMBER OF ATOMS
235
ITEM: BOX BOUNDS ff ff ff
-0.02 0.43
-0.02 0.06
-0.02 0.07
ITEM: ATOMS id type x y z vx vy vz fx fy fz radius mass 
1 1 0.041752 0.0156408 0.00870489 0.00565315 -0.000398024 0.000217426 7.0561e-11 2.29194e-10 -2.37001e-10 5e-05 1.46608e-10 
4 1 0.047951 0.0166132 0.00767675 0.00600288 0.000227736 0.00044891 1.00631e-11 6.85962e-12 -1.21796e-11 5e-05 1.46608e-10 
5 1 0.0417095 0.0155244 0.00886189 0.00560789 -0.000408809 0.000231339 7.10648e-10 4.10343e-10 -6.10687e-10 5e-05 1.46608e-10 
6 1 0.0478333 0.0161966 0.00809216 0.00565844 0.000245657 0.000389732 1.34586e-11 2.82175e-11 -2.11221e-11 5e-05 1.46608e-10 
8 1 0.0415116 0.0152193 0.00928328 0.00598892 -0.000417621 0.000109975 4.10641e-11 1.72403e-10 1.69165e-11 5e-05 1.46608e-10 
9 1 0.0479706 0.0166827 0.0076075 0.00603784 0.000148691 0.000533369 -1.60665e-11 -5.95082e-11 5.98066e-11 5e-05 1.46608e-10 
10 1 0.0538802 0.016332 0.00788404 0.0057229 0.00101265 -0.00021621 3.29318e-13 1.06299e-12 -1.44232e-12 5e-05 1.46608e-10 
11 1 0.0352626 0.014748 0.0102773 0.00599713 -0.000144733 8.31047e-05 -5.96726e-11 2.14593e-11 3.79664e-10 5e-05 1.46608e-10 
12 1 0.0479314 0.0165438 0.00774598 0.00594407 0.000230177 0.000437978 7.32777e-14 2.10061e-11 -3.24804e-12 5e-05 1.46608e-10 
13 1 0.0416563 0.0156257 0.00873216 0.00578773 -0.000387551 7.90594e-05 -2.46987e-10 2.21252e-10 -3.17678e-10 5e-05 1.46608e-10 
15 1 0.0416989 0.015742 0.00857518 0.00573756 -0.000353098 6.49933e-05 -2.92994e-11 2.11236e-10 -4.68038e-10 5e-05 1.46608e-10 
17 1 0.0416352 0.0155673 0.00881056 0.00576928 -0.000353753 0.000114019 -2.86726e-10 6.59694e-11 -3.38301e-10 5e-05 1.46608e-10 
18 1 0.0478922 0.0164049 0.00788445 0.00583204 0.00023844 0.000416798 -2.1043e-11 1.78637e-11 -5.28207e-12 5e-05 1.46608e-10 
19 1 0.041405 0.0149233 0.00967134 0.00605908 -0.000123196 0.000395752 -1.02018e-10 -6.44334e-11 1.20105e-10 5e-05 1.46608e-10 
23 1 0.0417572 0.0159165 0.00833826 0.00536472 -0.000268216 6.35219e-05 -1.60084e-10 2.62413e-11 -1.97175e-10 5e-05 1.46608e-10 
24 1 0.0478725 0.0163355 0.00795369 0.00577526 0.000241416 0.000407607 2.70772e-12 -5.7369e-12 -3.86612e-11 5e-05 1.46608e-10 
25 1 0.0416776 0.0156837 0.00865354 0.005756 -0.000388165 5.98603e-05 -4.16659e-10 4.05517e-10 -3.37762e-10 5e-05 1.46608e-10 
26 1 0.0478529 0.016266 0.00802292 0.00571563 0.000244504 0.000400348 3.4369e-11 3.01956e-11 1.38936e-11 5e-05 1.46608e-10 
27 1 0.0417196 0.0158006 0.00849682 0.00541338 -0.000294179 7.13625e-05 2.11264e-10 3.6209e-10 -1.84851e-10 5e-05 1.46608e-10 
29 1 0.0417732 0.015699 0.0086264 0.00566986 -0.000386779 0.000217717 1.28619e-10 2.32642e-10 2.86842e-11 5e-05 1.46608e-10 
30 1 0.0478137 0.0161272 0.00816139 0.00560124 0.000248849 0.000379743 9.13281e-12 2.95637e-11 -7.36231e-11 5e-05 1.46608e-10 
32 1 0.0418521 0.0162092 0.00794416 0.00542376 -0.000359142 0.000156413 -7.48743e-11 4.0424e-10 -4.0869e-10 5e-05 1.46608e-10 
33 1 0.0477745 0.0159883 0.00829987 0.00539274 0.000273674 0.000334203 6.62163e-11 -3.78568e-11 -1.68738e-11 5e-05 1.46608e-10 
34 1 0.0417383 0.015858 0.00841709 0.00537862 -0.000285058 7.74167e-05 -6.21672e-10 2.83945e-10 -2.73895e-10 5e-05 1.46608e-10 
35 1 0.0417761 0.0159755 0.00825973 0.00537295 -0.000274941 6.57235e-05 1.94081e-10 -2.7903e-10 2.70451e-10 5e-05 1.46608e-10 
36 1 0.0420201 0.0164856 0.00763214 0.00559606 -0.000310452 0.000350228 5.1096e-10 -5.76018e-10 5.73106e-11 5e-05 1.46608e-10 
38 1 0.0421361 0.0166087 0.0075947 0.00575397 -0.000459153 0.000381206 7.7954e-10 2.6038e-10 -2.58496e-11 5e-05 1.46608e-10 
39 1 0.041946 0.016551 0.00761663 0.0055758 -0.000236362 0.000365691 5.89005e-10 5.78884e-11 -5.6947e-10 5e-05 1.46608e-10 
41 1 0.0417306 0.0155827 0.00878337 0.00569237 -0.000412167 0.00023425 -1.46191e-10 4.4412e-10 -5.53222e-10 5e-05 1.46608e-10 
42 1 0.041795 0.0160336 0.0081806 0.0053996 -0.00029619 9.46159e-05 -2.9462e-10 -4.43965e-10 4.68194e-10 5e-05 1.46608e-10 
43 1 0.0418139 0.0160922 0.00810177 0.00544998 -0.000321569 0.000130686 9.5819e-11 -1.13999e-10 1.48742e-10 5e-05 1.46608e-10 
44 1 0.00738367 0.018342 0.00543103 1.81452e-14 7.52953e-14 2.12931e-13 -1.40272e-22 -7.70312e-24 2.06795e-24 5e-05 1.46608e-10 
45 1 0.0477941 0.0160577 0.00823063 0.00554236 0.000254787 0.000367223 -8.59174e-12 7.32417e-11 9.7418e-13 5e-05 1.46608e-10 
46 1 0.0479118 0.0164743 0.00781522 0.005888 0.000234631 0.000428398 9.69901e-12 4.11049e-12 -1.79102e-11 5e-05 1.46608e-10 
48 1 0.0388388 0.0163356 0.00775306 0.0058501 0.000607381 -0.000471546 -5.85115e-15 -1.87565e-13 -3.52827e-13 5e-05 1.46608e-10 
50 1 0.042083 0.0167639 0.00753927 0.00596637 -0.000397558 0.000382691 -2.88136e-10 -3.4249e-10 -3.33961e-11 5e-05 1.46608e-10 
51 1 0.042041 0.0165784 0.00760118 0.00572321 -0.000349336 0.000361711 1.01571e-09 -3.92596e-10 -1.59655e-11 5e-05 1.46608e-10 
53 1 0.0477551 0.0159188 0.00836914 0.00534603 0.000264681 0.000333198 -3.15701e-11 -4.7527e-11 3.34478e-11 5e-05 1.46608e-10 
54 1 0.0414858 0.0151611 0.00936036 0.00595581 -0.000208573 0.000275311 1.50866e-10 8.48529e-11 -1.68641e-10 5e-05 1.46608e-10 
55 1 0.0352228 0.0147222 0.0104716 0.00587592 -0.000127539 1.60287e-05 -1.23359e-10 5.9287e-11 -2.13944e-10 5e-05 1.46608e-10 
57 1 0.0420075 0.0166456 0.00766725 0.00566982 6.45253e-06 0.000161054 2.28404e-10 -1.46555e-10 -2.56303e-10 5e-05 1.46608e-10 
58 1 0.0416137 0.0155086 0.00888863 0.00578553 -0.000324901 0.000140516 -3.80101e-11 -1.48356e-10 -1.87933e-10 5e-05 1.46608e-10 
59 1 0.0415497 0.0153339 0.00912391 0.00587689 -0.000340174 0.000124997 6.15939e-11 -2.37517e-11 1.23241e-10 5e-05 1.46608e-10 
60 1 0.0415712 0.015392 0.00904547 0.0058015 -0.000327724 0.000110204 -9.28639e-11 -8.98007e-11 1.8473e-10 5e-05 1.46608e-10 
61 1 0.0414434 0.0150397 0.0095136 0.00599328 -0.000125218 0.000385288 -2.27259e-11 1.10967e-10 -1.09017e-10 5e-05 1.46608e-10 
62 1 0.0418714 0.0162679 0.00786554 0.00553608 -0.000412181 0.000131593 4.16391e-10 5.49777e-10 -1.09058e-10 5e-05 1.46608e-10 
63 1 0.0420518 0.0170111 0.00745317 0.0060504 -0.000331262 0.000362609 -3.48592e-11 2.85044e-10 -1.34991e-10 5e-05 1.46608e-10 
64 1 0.0418343 0.015874 0.00839052 0.00537494 -0.000321793 0.000134189 -5.18835e-10 -1.15149e-10 1.34293e-10 5e-05 1.46608e-10 
67 1 0.0419381 0.0165571 0.00771613 0.00559461 -0.000120972 0.000368249 -1.02249e-10 -2.56796e-10 -4.66197e-10 5e-05 1.46608e-10 
68 1 0.0353877 0.0148271 0.00969599 0.00613515 -0.000240279 0.000284093 1.17222e-10 4.60927e-10 1.99586e-10 5e-05 1.46608e-10 
69 1 0.0418328 0.0161507 0.00802293 0.00544106 -0.000347041 0.000157799 9.64439e-11 1.22549e-10 -2.52537e-10 5e-05 1.46608e-10 
70 1 0.0420734 0.0171037 0.00742228 0.00603004 -0.000325565 0.000358497 -1.0755e-11 4.87106e-11 -2.83216e-11 5e-05 1.46608e-10 
71 1 0.0353066 0.0147749 0.0100841 0.0060652 -0.000151773 0.000188324 -1.50277e-10 -1.57947e-10 6.13199e-10 5e-05 1.46608e-10 
72 1 0.0421049 0.0168569 0.00750825 0.00601791 -0.000334549 0.000362902 -2.64052e-10 3.31228e-10 -1.40068e-10 5e-05 1.46608e-10 
74 1 0.0420619 0.0166711 0.00757022 0.00582497 -0.000379489 0.000366099 5.62603e-10 -1.70191e-10 -2.18807e-12 5e-05 1.46608e-10 
76 1 0.0421168 0.0172889 0.00736053 0.00599671 -0.00034544 0.000365663 9.16789e-11 -7.26511e-11 2.5975e-11 5e-05 1.46608e-10 
77 1 0.0420299 0.0169185 0.00748403 0.00603965 -0.00031327 0.000354049 9.39399e-11 1.01871e-10 -1.20236e-10 5e-05 1.46608e-10 
78 1 0.0354111 0.014844 0.00960027 0.00607432 -0.000211799 0.000227716 6.37477e-10 3.57756e-10 -8.28968e-11 5e-05 1.46608e-10 
80 1 0.0420206 0.0169009 0.00758202 0.00600313 -0.000288775 0.000350611 1.6199e-10 1.20328e-10 -2.59794e-10 5e-05 1.46608e-10 
81 1 0.0354513 0.0149253 0.00942347 0.00562668 6.86492e-05 0.000143212 -2.38381e-10 3.01798e-10 -1.749e-10 5e-05 1.46608e-10 
83 1 0.0352415 0.0147358 0.0103743 0.00595787 -0.000130415 4.665e-05 -1.46336e-10 1.0378e-10 4.18378e-11 5e-05 1.46608e-10 
84 1 0.0421486 0.0170424 0.00744641 0.00605512 -0.000342107 0.000374299 3.05352e-10 1.20256e-11 5.37211e-11 5e-05 1.46608e-10 
85 1 0.0353458 0.0147995 0.00988957 0.00610106 -0.000147193 0.000271281 -7.40662e-11 -6.8909e-11 6.38268e-10 5e-05 1.46608e-10 
86 1 0.0419654 0.0166406 0.00757672 0.00551578 -0.000217056 0.000289313 1.82844e-10 -1.52823e-10 -6.79575e-10 5e-05 1.46608e-10 
87 1 0.0477154 0.01578 0.00850753 0.00565589 0.000247788 0.000387791 -4.91993e-12 -8.99066e-11 9.96648e-11 5e-05 1.46608e-10 
89 1 0.0421268 0.0169496 0.00747737 0.00607454 -0.000369503 0.000377513 -2.31992e-10 3.93273e-10 -1.71715e-10 5e-05 1.46608e-10 
90 1 0.0477356 0.0158494 0.00843841 0.00532275 0.000277479 0.000319944 -8.04666e-12 -8.92707e-11 1.07788e-10 5e-05 1.46608e-10 
91 1 0.0157927 0.0215765 0.00607411 -7.13117e-15 2.48309e-14 -7.81444e-14 -1.10395e-21 -2.56374e-22 1.55096e-23 5e-05 1.46608e-10 
92 1 0.0418535 0.0159325 0.00831173 0.00529819 -0.000307418 0.000118604 -4.10306e-10 -1.32618e-10 2.5596e-10 5e-05 1.46608e-10 
93 1 0.0421386 0.0173815 0.00732966 0.00599242 -0.000354642 0.000369072 2.82926e-11 -1.48874e-10 5.151e-11 5e-05 1.46608e-10 
94 1 0.0422342 0.0174113 0.00732336 0.00600764 -0.000346304 0.000366614 1.99777e-10 -1.73627e-10 7.08466e-11 5e-05 1.46608e-10 
95 1 0.0419866 0.0167333 0.00754579 0.00550925 -0.000213556 0.000290409 -4.9905e-10 2.22476e-11 -1.86682e-10 5e-05 1.46608e-10 
96 1 0.041872 0.0159911 0.00823285 0.00521038 -0.000294753 0.00010482 3.65511e-11 -2.64415e-10 3.11717e-10 5e-05 1.46608e-10 
97 1 0.035827 0.0157803 0.00831032 0.00556296 9.05807e-05 0.00015924 2.15115e-10 -4.01182e-10 5.76015e-10 5e-05 1.46608e-10 
98 1 0.0422124 0.0173187 0.00735425 0.00600507 -0.000335557 0.000362854 2.46464e-10 -2.50661e-10 9.43104e-11 5e-05 1.46608e-10 
99 1 0.0350957 0.0146453 0.0110518 0.00568264 -0.000119467 -4.99453e-05 1.50851e-10 -6.4621e-11 4.75852e-10 5e-05 1.46608e-10 
100 1 0.0415925 0.0154502 0.00896697 0.00578373 -0.000322172 0.000115806 -2.20446e-10 -4.38017e-12 8.90884e-11 5e-05 1.46608e-10 
101 1 0.041359 0.0147962 0.00981858 0.00608289 -0.000104223 0.000365105 -1.41806e-11 -3.28962e-11 -6.24247e-11 5e-05 1.46608e-10 
103 1 0.0641423 0.0166819 0.00840047 -0.00902236 0.0283425 -0.0252627 1.35919e-10 1.19031e-10 -2.16888e-10 5e-05 1.46608e-10 
105 1 0.0354372 0.0148756 0.00950905 0.00576253 -8.9619e-05 0.000123795 4.24684e-10 -4.96708e-11 -4.89494e-10 5e-05 1.46608e-10 
106 1 0.0419178 0.0164684 0.00775997 0.00512289 -0.000272763 0.000204502 1.55074e-10 -1.89522e-10 -9.64852e-10 5e-05 1.46608e-10 
107 1 0.0352833 0.0147616 0.0101804 0.00601933 -0.000145207 0.000129969 1.50525e-11 -2.80571e-11 5.8339e-10 5e-05 1.46608e-10 
108 1 0.0414222 0.0149787 0.00958994 0.00602481 -0.000131304 0.000393384 -2.47364e-11 -2.2168e-11 -5.90406e-11 5e-05 1.46608e-10 
110 1 0.0420951 0.0171963 0.00739141 0.00601253 -0.000332124 0.000361441 6.20142e-11 4.76344e-11 -2.36393e-11 5e-05 1.46608e-10 
111 1 0.042182 0.0175667 0.00726791 0.0059949 -0.000351321 0.000367976 4.64608e-11 5.75671e-13 -7.1207e-13 5e-05 1.46608e-10 
112 1 0.0353678 0.0148123 0.00979287 0.0061426 -0.000192103 0.000294472 1.11679e-12 4.06743e-12 4.86029e-10 5e-05 1.46608e-10 
113 1 0.0419071 0.0163806 0.00771335 0.00558232 -0.000368084 0.000164964 -1.13937e-10 -2.33549e-10 5.10336e-11 5e-05 1.46608e-10 
115 1 0.0419269 0.0164632 0.00766052 0.0055561 -0.000336204 0.000207331 6.2623e-10 -3.53484e-10 -1.67153e-10 5e-05 1.46608e-10 
116 1 0.0415286 0.015276 0.00920265 0.00594041 -0.00037633 0.000117199 -8.41639e-11 7.53496e-11 8.40325e-11 5e-05 1.46608e-10 
117 1 0.0414646 0.0151006 0.00943716 0.00596855 -0.000108 0.00037434 6.27238e-11 1.23276e-10 -1.89956e-10 5e-05 1.46608e-10 
118 1 0.0354719 0.0149854 0.00934621 0.00553603 0.000101932 0.000145896 -9.59304e-10 3.55734e-10 1.62742e-10 5e-05 1.46608e-10 
119 1 0.0417943 0.0157573 0.00854787 0.00554376 -0.000362903 0.000184224 -2.021e-10 -2.08215e-11 1.52095e-10 5e-05 1.46608e-10 
120 1 0.0413801 0.0148573 0.00974224 0.0060828 -0.000113228 0.000383614 -1.47918e-10 -6.78358e-11 2.52636e-10 5e-05 1.46608e-10 
121 1 0.0355878 0.0150652 0.00924401 0.00579803 8.49469e-06 0.000197604 -4.6897e-10 2.25461e-10 -5.22728e-10 5e-05 1.46608e-10 
122 1 0.0422037 0.0176593 0.00723703 0.00599171 -0.000343598 0.000365127 1.30787e-11 -3.08459e-11 1.45138e-11 5e-05 1.46608e-10 
123 1 0.0357309 0.0154819 0.00869981 0.00570858 2.24823e-05 0.000175011 2.9794e-10 1.85891e-10 -2.09987e-10 5e-05 1.46608e-10 
124 1 0.0420084 0.0168259 0.00751492 0.0060081 -0.000321731 0.000358517 -3.59673e-10 2.0547e-11 8.76536e-11 5e-05 1.46608e-10 
125 1 0.0416879 0.0154662 0.00894047 0.0058116 -0.000303711 9.29792e-05 1.05753e-10 1.96692e-10 -2.77818e-10 5e-05 1.46608e-10 
127 1 0.0357891 0.0156608 0.00846612 0.00546098 8.02632e-05 9.43733e-05 -8.05723e-10 -1.19361e-10 1.384e-10 5e-05 1.46608e-10 
128 1 0.0421603 0.0174741 0.00729878 0.00599353 -0.000354845 0.000369007 5.05389e-11 -1.0163e-10 4.13896e-11 5e-05 1.46608e-10 
129 1 0.0355127 0.0151107 0.00919607 0.00583753 -4.66777e-05 0.000185315 1.17617e-09 -2.59207e-10 -9.97898e-11 5e-05 1.46608e-10 
130 1 0.0355736 0.0152818 0.00895791 0.00572986 2.76111e-05 0.000200037 -6.95939e-11 1.23012e-10 -4.29537e-10 5e-05 1.46608e-10 
131 1 0.0355345 0.0151714 0.00911961 0.00583081 -9.21384e-07 0.000226071 2.03362e-10 1.75577e-10 -2.31128e-10 5e-05 1.46608e-10 
133 1 0.0413166 0.0146743 0.00997135 0.00618027 -0.000107598 0.000365091 8.7732e-12 3.16682e-10 -3.34303e-10 5e-05 1.46608e-10 
135 1 0.0413378 0.0147353 0.00989496 0.006154 -0.000106955 0.000372065 1.51714e-10 2.78595e-10 -3.80563e-10 5e-05 1.46608e-10 
136 1 0.0354931 0.0150446 0.00926843 0.00570433 -1.15956e-05 0.000134762 -1.16385e-09 -3.53413e-10 -7.50688e-11 5e-05 1.46608e-10 
137 1 0.0422255 0.0177519 0.00720616 0.00598898 -0.000337315 0.000362857 -1.26126e-11 -2.96742e-11 8.73758e-12 5e-05 1.46608e-10 
138 1 0.0422561 0.0175042 0.00729241 0.00600794 -0.000354362 0.00036948 1.79615e-11 -4.8335e-11 1.71683e-11 5e-05 1.46608e-10 
140 1 0.0418996 0.0163428 0.00780564 0.00557505 -0.000395481 0.000145538 8.91016e-11 1.81057e-10 1.89327e-10 5e-05 1.46608e-10 
141 1 0.0355537 0.0152223 0.00903572 0.00580612 4.03663e-05 0.000228549 -7.8437e-10 -1.39207e-11 -6.87481e-10 5e-05 1.46608e-10 
142 1 0.0356941 0.0156391 0.00849125 0.00551923 6.22363e-05 0.000121977 -2.30974e-10 -2.47681e-10 2.46504e-10 5e-05 1.46608e-10 
143 1 0.0356349 0.0154604 0.00872476 0.00574631 -9.98486e-06 0.000221403 1.29376e-10 2.90297e-10 -4.55313e-10 5e-05 1.46608e-10 
144 1 0.038858 0.0163962 0.00767585 0.00587772 0.000604775 -0.000466696 -2.8733e-13 4.23875e-13 1.52462e-14 5e-05 1.46608e-10 
145 1 0.0190748 0.0170893 0.00811296 -2.01468e-05 -0.00888561 0.00361609 -2.08055e-14 9.55065e-12 -1.23872e-11 5e-05 1.46608e-10 
146 1 0.0359408 0.0161647 0.00786593 0.00556385 -8.36996e-05 -0.000113719 -3.5891e-10 4.17642e-10 -1.80863e-10 5e-05 1.46608e-10 
147 1 0.0355941 0.0153414 0.0088802 0.00574083 9.9285e-06 0.000197675 -7.11105e-11 5.36051e-10 -4.6429e-10 5e-05 1.46608e-10 
148 1 0.0356748 0.0155795 0.00856915 0.00562454 3.8055e-05 0.000154073 -2.41848e-10 -5.61884e-11 1.38343e-10 5e-05 1.46608e-10 
150 1 0.03567 0.0153033 0.00893305 0.00573841 -7.9878e-06 0.000216632 7.96266e-11 3.40486e-10 -3.79757e-10 5e-05 1.46608e-10 
153 1 0.0356494 0.0152438 0.00901087 0.0057806 4.05828e-05 0.000158353 -2.80847e-10 7.65416e-10 -6.57828e-10 5e-05 1.46608e-10 
154 1 0.0357709 0.0158783 0.00818001 0.00557812 6.11821e-05 0.000208404 -1.6165e-10 -4.35981e-10 3.25275e-10 5e-05 1.46608e-10 
156 1 0.0356146 0.0154008 0.00880251 0.00574503 -1.19119e-05 0.00021764 4.635e-10 5.13534e-10 -7.03867e-10 5e-05 1.46608e-10 
158 1 0.0357131 0.0156988 0.00841329 0.00543115 7.60209e-05 0.000109777 -4.90481e-10 -5.56963e-10 3.24346e-10 5e-05 1.46608e-10 
159 1 0.0360664 0.0166879 0.00760056 0.00594734 -0.00022205 -6.70315e-05 1.31151e-10 2.24359e-10 -6.62362e-10 5e-05 1.46608e-10 
160 1 0.035655 0.0155199 0.00864698 0.00570102 1.02804e-05 0.000192039 -7.9136e-11 1.07798e-10 -4.8106e-11 5e-05 1.46608e-10 
162 1 0.035751 0.0158183 0.00825751 0.00556902 5.63761e-05 0.000177432 1.448e-10 -4.17666e-10 8.09891e-10 5e-05 1.46608e-10 
163 1 0.0360528 0.0170063 0.00744052 0.00607269 -9.33187e-05 -7.99692e-05 4.66686e-10 -3.02022e-10 1.51991e-10 5e-05 1.46608e-10 
164 1 0.0422472 0.0178445 0.00717528 0.00598609 -0.000332247 0.000360913 -1.38127e-11 -5.7622e-11 1.93904e-11 5e-05 1.46608e-10 
166 1 0.0419094 0.0161083 0.00807513 0.00526359 -0.000321039 0.00013787 -7.9483e-10 -4.51377e-11 1.33529e-10 5e-05 1.46608e-10 
167 1 0.0355675 0.0150052 0.0093224 0.00581646 5.39483e-05 0.000141844 -6.58935e-10 7.01215e-10 -8.51732e-10 5e-05 1.46608e-10 
170 1 0.0358089 0.0159997 0.00802567 0.00562819 7.56581e-05 0.000220437 -4.79999e-11 2.22738e-10 -3.36302e-10 5e-05 1.46608e-10 
171 1 0.0419722 0.016283 0.00783954 0.00553231 -0.00040471 0.000216244 -3.41246e-10 -2.5899e-10 1.87913e-10 5e-05 1.46608e-10 
173 1 0.0418145 0.0158156 0.00846922 0.00544644 -0.000336004 0.000147941 1.16471e-10 -2.69035e-10 4.47509e-10 5e-05 1.46608e-10 
174 1 0.0358852 0.0159616 0.00807805 0.00573554 0.000103084 0.000175101 -1.00032e-10 2.48205e-10 -2.61738e-10 5e-05 1.46608e-10 
175 1 0.035827 0.0160599 0.00794798 0.00569882 0.000106354 0.000212588 2.12873e-10 5.46354e-10 -3.21405e-10 5e-05 1.46608e-10 
176 1 0.0357318 0.0157585 0.00833531 0.00549864 6.62516e-05 0.000138456 -3.34623e-10 -4.88727e-10 7.41084e-10 5e-05 1.46608e-10 
179 1 0.0358659 0.0159008 0.00815553 0.00561747 8.00037e-05 0.000203949 1.85965e-10 -2.52614e-10 3.02884e-10 5e-05 1.46608e-10 
182 1 0.0412967 0.0146516 0.0100667 0.00619042 -0.000162492 0.00034247 1.04774e-10 1.83172e-10 -3.0163e-10 5e-05 1.46608e-10 
183 1 0.035967 0.0166598 0.00762073 0.00589555 -2.8031e-05 -0.000139846 7.94295e-10 8.61739e-11 4.16286e-11 5e-05 1.46608e-10 
185 1 0.0360746 0.0170985 0.00740875 0.00612273 -9.68572e-05 -3.2151e-05 4.28002e-10 -4.16692e-10 1.96904e-10 5e-05 1.46608e-10 
186 1 0.226587 0.0186791 0.00533789 -1.33299e-16 2.48917e-14 -2.37494e-13 -2.43011e-23 -1.44757e-24 -2.06795e-25 5e-05 1.46608e-10 
187 1 0.0419291 0.0161667 0.00799641 0.00541705 -0.000355752 0.000177698 -2.82836e-12 -1.93273e-10 2.40974e-10 5e-05 1.46608e-10 
189 1 0.0418906 0.0160497 0.00815398 0.00516553 -0.000294864 0.00010795 -2.77349e-10 -1.61191e-10 2.42138e-10 5e-05 1.46608e-10 
190 1 0.0297386 0.0157868 0.00830955 0.00546454 -3.51682e-05 0.000345427 5.84655e-11 1.15492e-10 -1.06093e-10 5e-05 1.46608e-10 
191 1 0.036351 0.0174899 0.00718593 0.00623437 -0.000208353 8.06805e-06 -2.37782e-10 -2.36025e-11 -3.99518e-11 5e-05 1.46608e-10 
192 1 0.0359043 0.0163998 0.00775621 0.00562418 4.81782e-05 -0.000125705 -5.05582e-10 9.93081e-11 -1.8773e-10 5e-05 1.46608e-10 
193 1 0.0421571 0.0167014 0.00756375 0.00586719 -0.000496552 0.000415674 2.71475e-11 1.64e-10 -1.2758e-10 5e-05 1.46608e-10 
194 1 0.0356905 0.0153628 0.00885535 0.00577096 -4.18782e-06 0.000212964 2.95615e-10 7.16599e-11 -1.00792e-10 5e-05 1.46608e-10 
195 1 0.035925 0.0164848 0.00770788 0.00567036 5.18817e-05 -0.000166447 -1.44994e-10 -1.04161e-10 4.33425e-10 5e-05 1.46608e-10 
196 1 0.0352006 0.0147192 0.010569 0.00571347 -0.000173673 -3.04281e-05 -4.03914e-11 7.8334e-11 -2.43786e-10 5e-05 1.46608e-10 
197 1 0.0359892 0.0167464 0.00757606 0.0060339 -9.44734e-05 -0.000107727 -5.24239e-12 3.45974e-10 -2.26063e-10 5e-05 1.46608e-10 
198 1 0.0358466 0.0161404 0.00789198 0.00569161 0.000153289 0.000214675 2.26157e-10 4.72765e-10 -4.46467e-10 5e-05 1.46608e-10 
199 1 0.0361173 0.0172636 0.00730542 0.00608543 -0.000109149 -3.121e-05 1.82889e-10 -2.52947e-10 2.14171e-10 5e-05 1.46608e-10 
200 1 0.0357899 0.0159388 0.00810271 0.00559083 7.62213e-05 0.000222552 -4.03054e-11 -1.38337e-10 1.00258e-11 5e-05 1.46608e-10 
201 1 0.0362556 0.0174633 0.00720105 0.00611198 -0.00011191 -3.92987e-05 1.6252e-10 4.59966e-10 -2.76668e-10 5e-05 1.46608e-10 
202 1 0.0360309 0.0169186 0.00748327 0.00603851 -9.22758e-05 -6.56403e-05 2.45314e-10 5.45318e-11 -2.17036e-10 5e-05 1.46608e-10 
203 1 0.0421057 0.0170282 0.00753561 0.00601279 -0.000296229 0.000373229 -2.10554e-10 -1.25917e-10 -8.39615e-11 5e-05 1.46608e-10 
204 1 0.0358851 0.0163113 0.00779859 0.0056429 4.74374e-05 -5.99783e-05 5.14266e-10 6.98753e-10 -1.69594e-10 5e-05 1.46608e-10 
205 1 0.0297191 0.0157162 0.00837765 0.00545257 -5.28099e-05 0.000362494 2.76378e-11 1.49325e-10 -1.4522e-10 5e-05 1.46608e-10 
206 1 0.0359453 0.0165714 0.00766219 0.00574907 3.04954e-05 -0.000173805 6.93825e-10 -3.31149e-10 9.45655e-11 5e-05 1.46608e-10 
207 1 0.0356295 0.0151842 0.00908867 0.0058761 -1.2626e-06 0.000187278 -4.98582e-10 5.64358e-10 -3.57817e-10 5e-05 1.46608e-10 
208 1 0.0361598 0.017437 0.00721603 0.00616967 -0.000124667 -3.585e-05 -2.56904e-10 -2.56454e-10 1.50293e-10 5e-05 1.46608e-10 
210 1 0.0416668 0.015408 0.00901898 0.00578391 -0.000312162 9.56627e-05 1.11552e-10 -8.07642e-11 7.69544e-11 5e-05 1.46608e-10 
211 1 0.0362127 0.0172897 0.00729055 0.00610878 -0.000109505 -4.07773e-05 3.12686e-10 -3.95963e-10 2.81643e-10 5e-05 1.46608e-10 
212 1 0.0360092 0.0168318 0.00752804 0.00608514 -0.000107573 -6.38279e-05 4.05209e-11 4.25343e-10 -1.5644e-10 5e-05 1.46608e-10 
213 1 0.0419914 0.0163415 0.00776075 0.00568758 -0.000457439 0.000227623 8.98062e-11 -6.08117e-10 8.07844e-11 5e-05 1.46608e-10 
214 1 0.0361817 0.0175237 0.00717131 0.00618218 -0.000100181 -5.02274e-05 -5.35051e-10 1.46922e-10 -2.9109e-10 5e-05 1.46608e-10 
215 1 0.0159913 0.0152807 0.00678236 -2.39463e-14 -9.32234e-14 -1.94034e-13 -8.86634e-24 -5.68687e-23 2.77106e-23 5e-05 1.46608e-10 
216 1 0.0361384 0.0173528 0.00726546 0.00609129 -0.000116496 -4.8004e-05 -1.01385e-10 -2.09763e-10 1.68969e-10 5e-05 1.46608e-10 
217 1 0.0358078 0.0157206 0.00838814 0.00552516 9.10278e-05 0.000127916 -7.28524e-11 -3.53756e-10 4.89141e-10 5e-05 1.46608e-10 
218 1 0.0362339 0.0177541 0.00705268 0.00563782 -4.26579e-05 6.48124e-05 5.98972e-10 -3.50766e-10 -2.255e-10 5e-05 1.46608e-10 
220 1 0.0996917 0.0189692 0.00760399 -0.0730899 0.000284308 0.000317405 9.65695e-10 -2.15454e-10 -2.04617e-11 5e-05 1.46608e-10 
221 1 0.0297776 0.015928 0.00817337 0.00551498 -4.2129e-05 0.000354667 -1.00373e-11 -2.45474e-10 2.4768e-10 5e-05 1.46608e-10 
222 1 0.0361401 0.0166267 0.0076292 0.00577952 -0.000386363 3.86655e-05 -3.10231e-10 2.1679e-10 -1.62973e-10 5e-05 1.46608e-10 
223 1 0.0254028 0.0195569 0.00545165 -1.34581e-14 -2.16183e-15 2.19343e-13 -1.69314e-23 -5.52208e-24 -1.65436e-24 5e-05 1.46608e-10 
225 1 0.0362736 0.0179289 0.00696396 0.00582384 -9.67591e-05 1.48602e-05 6.12388e-10 2.42686e-10 1.24718e-10 5e-05 1.46608e-10 
226 1 0.0360951 0.0171769 0.00735012 0.00612893 -0.000104913 2.04181e-06 9.44491e-11 -2.54794e-10 -1.15878e-10 5e-05 1.46608e-10 
227 1 0.0351595 0.0146858 0.0107616 0.0057408 -0.000136034 -3.37637e-05 -2.39545e-11 9.05579e-11 -9.56175e-11 5e-05 1.46608e-10 
228 1 0.0388776 0.0164812 0.00762703 0.0058608 0.000609315 -0.000465559 -2.87825e-13 1.95783e-13 -2.81472e-13 5e-05 1.46608e-10 
229 1 0.0353253 0.0147867 0.0099866 0.00604607 -0.000114205 0.000230384 7.16943e-11 -1.8775e-10 6.54773e-10 5e-05 1.46608e-10 
230 1 0.0362337 0.0173766 0.00724577 0.00607008 -0.000115679 -3.66026e-05 9.0378e-10 -1.39089e-10 5.29782e-11 5e-05 1.46608e-10 
231 1 0.035867 0.0162315 0.00785615 0.00572255 0.000128149 9.14398e-05 4.56885e-10 7.90293e-10 -6.66784e-11 5e-05 1.46608e-10 
232 1 0.0351374 0.014671 0.010858 0.00576996 -0.000130571 -2.50582e-05 -1.1082e-10 9.32654e-11 5.06353e-11 5e-05 1.46608e-10 
233 1 0.0357108 0.0154224 0.0087776 0.00575764 9.85662e-07 0.000207029 -3.70585e-10 1.74907e-10 -2.47597e-10 5e-05 1.46608e-10 
234 1 0.041949 0.0162251 0.00791772 0.00547618 -0.000377857 0.000200524 7.17148e-11 -2.76859e-10 3.00939e-10 5e-05 1.46608e-10 
235 1 0.0363078 0.0173163 0.00727541 0.00613127 -6.97738e-05 -6.24491e-05 3.5488e-10 -1.58473e-09 7.96924e-10 5e-05 1.46608e-10 
238 1 0.0359034 0.0160225 0.00800047 0.00579132 6.74912e-05 0.00023586 -6.45816e-11 -5.59676e-11 2.114e-10 5e-05 1.46608e-10 
239 1 0.029758 0.0158574 0.00824145 0.00548074 -4.32388e-05 0.000356398 -3.0218e-11 1.76745e-10 -1.5387e-10 5e-05 1.46608e-10 
240 1 0.0298167 0.0160691 0.00803722 0.00553893 -5.40259e-05 0.0003687 -6.02208e-11 -8.88507e-11 1.20221e-10 5e-05 1.46608e-10 
241 1 0.0298755 0.0162809 0.00783299 0.00556919 -6.50129e-05 0.000382898 3.99787e-10 2.57534e-10 -2.07564e-10 5e-05 1.46608e-10 
243 1 0.0298951 0.0163515 0.00776492 0.00556074 -6.30021e-05 0.000376691 2.27877e-11 -3.19821e-10 4.66175e-10 5e-05 1.46608e-10 
244 1 0.0297972 0.0159986 0.00810529 0.00551995 -5.11382e-05 0.00036495 -1.45304e-10 -2.2838e-10 1.88559e-10 5e-05 1.46608e-10 
246 1 0.0298559 0.0162103 0.00790107 0.00555157 -6.19441e-05 0.00037944 -2.52079e-10 4.63077e-11 2.98674e-13 5e-05 1.46608e-10 
247 1 0.0359812 0.0163394 0.00777737 0.00543947 -0.000175599 -5.68451e-05 -1.03934e-09 2.13916e-10 3.87219e-11 5e-05 1.46608e-10 
248 1 0.0360022 0.0164266 0.00773314 0.00552905 -0.000174782 -6.45427e-05 -9.81696e-10 2.5896e-10 -1.23713e-11 5e-05 1.46608e-10 
250 1 0.0358468 0.0158403 0.00823277 0.00562017 8.52212e-05 0.000187391 2.57052e-11 -2.70007e-10 3.7864e-10 5e-05 1.46608e-10 
251 1 0.0364088 0.0177266 0.0070639 0.00597539 -6.71624e-05 -5.98621e-05 -7.06538e-10 3.71995e-10 -1.29745e-10 5e-05 1.46608e-10 
252 1 0.018896 0.013113 0.0137667 4.85881e-21 -2.91472e-21 1.37807e-22 0 0 0 5e-05 1.46608e-10 
255 1 0.0356095 0.0151246 0.00916651 0.0058604 4.1133e-05 0.00017451 -5.00724e-10 6.62958e-11 1.43472e-10 5e-05 1.46608e-10 
257 1 0.0362769 0.0175501 0.00715629 0.00622904 -0.000159717 -2.00307e-05 -1.78707e-10 1.88533e-10 -3.82824e-10 5e-05 1.46608e-10 
258 1 0.0361479 0.0170321 0.00742334 0.00614489 -5.95123e-05 -4.92719e-05 2.18379e-10 -5.00439e-10 -3.25191e-10 5e-05 1.46608e-10 
259 1 0.0328651 0.016426 0.00765458 0.00551205 -0.000801358 0.000603946 -4.02567e-13 7.12361e-14 -3.99904e-14 5e-05 1.46608e-10 
260 1 0.0420236 0.0164039 0.00768958 0.00563918 -0.00035698 0.000292892 2.59462e-10 -4.93608e-10 2.08553e-10 5e-05 1.46608e-10 
261 1 0.0362907 0.018024 0.00693828 0.00585039 -7.03834e-05 7.28356e-05 -1.32082e-10 4.93524e-11 2.51176e-11 5e-05 1.46608e-10 
262 1 0.0363474 0.0176128 0.00712311 0.00592896 0.000120951 -0.000156611 -8.77643e-10 5.65887e-10 -2.7558e-10 5e-05 1.46608e-10 
263 1 0.029954 0.0165734 0.00757203 0.00559256 -0.000281278 7.68281e-05 1.00645e-10 2.45705e-10 -2.11753e-10 5e-05 1.46608e-10 
264 1 0.0363096 0.0176955 0.00708143 0.0053899 -0.000149104 -6.84419e-05 2.75949e-09 -1.24166e-09 1.79032e-09 5e-05 1.46608e-10 
266 1 0.0357507 0.0155415 0.00862198 0.00564 4.6704e-05 0.000141448 2.23677e-10 1.14774e-10 -1.59221e-10 5e-05 1.46608e-10 
267 1 0.0363106 0.0181187 0.00696357 0.00580142 -7.9048e-05 7.71411e-05 1.19409e-10 2.34483e-10 9.73876e-11 5e-05 1.46608e-10 
268 1 0.0351851 0.0147042 0.0106667 0.00571266 -0.000141017 -3.44399e-05 -4.97634e-11 8.6654e-11 -1.88407e-10 5e-05 1.46608e-10 
269 1 0.0362243 0.0177073 0.0071405 0.00613595 -9.5712e-05 5.31848e-05 -2.60219e-09 2.76866e-10 3.92116e-10 5e-05 1.46608e-10 
270 1 0.0364415 0.0176423 0.00710652 0.00605326 -3.94195e-05 -7.58939e-05 -9.01455e-10 4.89892e-10 -2.61771e-10 5e-05 1.46608e-10 
271 1 0.0357701 0.0156011 0.00854408 0.00550426 6.89126e-05 0.000102251 -3.26352e-10 3.36987e-11 -1.03206e-10 5e-05 1.46608e-10 
273 1 0.0363856 0.0180541 0.00694778 0.0058891 -9.44254e-05 6.86902e-05 -3.59249e-10 1.00138e-10 1.87328e-11 5e-05 1.46608e-10 
275 1 0.0363295 0.0177826 0.00703655 0.00571323 -0.000208324 1.21856e-05 -6.9644e-10 4.26667e-10 -2.85184e-10 5e-05 1.46608e-10 
277 1 0.0363508 0.0178713 0.00699084 0.00578858 -0.00015164 -1.25691e-05 5.55832e-10 4.05669e-10 -1.39825e-10 5e-05 1.46608e-10 
278 1 0.0360442 0.016601 0.00764469 0.00580492 -0.000189042 -7.0342e-05 -2.72287e-10 8.72838e-11 -4.09769e-11 5e-05 1.46608e-10 
279 1 0.0299958 0.016724 0.00744728 0.00604409 -0.000372112 0.000142172 -4.38684e-10 1.64496e-10 -1.68274e-10 5e-05 1.46608e-10 
280 1 0.0299343 0.0164979 0.00763466 0.00560325 -0.000267252 8.5717e-05 2.21244e-10 2.95559e-10 -3.05022e-10 5e-05 1.46608e-10 
281 1 0.0350747 0.0146323 0.0111488 0.00567189 -0.000119005 -5.41826e-05 -1.23673e-10 -1.08436e-10 7.83741e-10 5e-05 1.46608e-10 
282 1 0.0300154 0.0168024 0.00738844 0.00623558 -0.000387978 0.00016804 -1.53098e-10 8.2667e-11 -2.14732e-11 5e-05 1.46608e-10 
283 1 0.0299147 0.0164226 0.00769744 0.00559422 -0.000174812 0.000210252 -3.56987e-11 1.19541e-10 6.67807e-11 5e-05 1.46608e-10 
284 1 0.0364224 0.0175534 0.00715233 0.00594446 8.90425e-05 -0.000139941 -8.74228e-10 5.6692e-10 -2.8192e-10 5e-05 1.46608e-10 
286 1 0.0362537 0.0178412 0.00700777 0.0057167 -0.000106963 -3.94999e-05 -5.36746e-10 5.59185e-10 -9.76203e-11 5e-05 1.46608e-10 
289 1 0.0300369 0.0168976 0.00736662 0.00620542 -0.000386531 0.000167957 -1.3907e-13 -1.43229e-10 1.62663e-11 5e-05 1.46608e-10 
290 1 0.0360226 0.0165139 0.00768887 0.00566857 -0.000176984 -6.85009e-05 -8.6158e-10 2.01786e-10 -7.38218e-11 5e-05 1.46608e-10 
291 1 0.036203 0.0176106 0.00712656 0.00624379 -9.46766e-05 -3.79127e-05 -6.48494e-11 -5.34551e-11 -1.00896e-10 5e-05 1.46608e-10 
292 1 0.0355464 0.0149458 0.00939999 0.00570179 2.43753e-05 0.000177347 -8.62732e-11 1.05127e-09 -1.54062e-09 5e-05 1.46608e-10 
293 1 0.0359621 0.0162518 0.00782173 0.00549843 -0.000192529 -4.35721e-05 -1.0414e-09 -8.51443e-11 3.91316e-11 5e-05 1.46608e-10 
294 1 0.0364278 0.0178139 0.00701895 0.00590032 -4.65011e-05 -6.70915e-05 -8.0706e-10 5.66223e-11 -6.69631e-11 5e-05 1.46608e-10 
295 1 0.0351165 0.0146581 0.0109549 0.0057339 -0.000123663 -3.82452e-05 2.54489e-10 -1.704e-11 1.92637e-10 5e-05 1.46608e-10 
296 1 0.0363297 0.0174031 0.00723069 0.00608513 -6.91937e-05 -5.98377e-05 1.0333e-09 -1.09348e-10 1.03699e-11 5e-05 1.46608e-10 
297 1 0.0359231 0.0160837 0.00792246 0.00560689 7.9523e-05 0.000194101 2.86774e-10 1.79049e-10 3.36623e-10 5e-05 1.46608e-10 
298 1 0.0299741 0.0166487 0.00750946 0.00573746 -0.0003151 9.74522e-05 -2.22872e-10 1.84474e-10 -7.6956e-11 5e-05 1.46608e-10 