ITEM: TIMESTEP
6000000
ITEM: NUMBER OF ATOMS
235
ITEM: BOX BOUNDS ff ff ff
-0.02 0.43
-0.02 0.06
-0.02 0.07
ITEM: ATOMS id type x y z vx vy vz fx fy fz radius mass 
1 1 0.0476335 0.0157727 0.00850667 0.0060998 0.000477166 0.000160625 -2.04511e-10 -6.96252e-10 4.66952e-10 5e-05 1.46608e-10 
4 1 0.053806 0.0166619 0.00759116 0.0055461 -0.000100348 -0.000251389 1.18671e-10 2.62184e-10 -1.25897e-10 5e-05 1.46608e-10 
5 1 0.0475921 0.0156374 0.00864791 0.00619133 0.000504418 0.000169254 1.17851e-10 -7.94216e-12 2.35888e-10 5e-05 1.46608e-10 
6 1 0.0536948 0.0162384 0.00797729 0.00581949 0.000577747 0.000442373 -1.87777e-10 -6.26829e-11 -2.71372e-10 5e-05 1.46608e-10 
8 1 0.0473272 0.0152511 0.0093342 0.00588371 -0.000745439 -0.000406348 -2.46792e-10 -2.67693e-10 4.76383e-10 5e-05 1.46608e-10 
9 1 0.0538255 0.0167519 0.00755226 0.00554034 -8.00518e-05 -0.000262477 -2.30203e-11 -2.08061e-10 9.22555e-11 5e-05 1.46608e-10 
10 1 0.0599427 0.0172442 0.00723058 0.00571556 0.000203162 -0.000112172 2.66788e-14 5.67836e-13 -5.64157e-13 5e-05 1.46608e-10 
11 1 0.041909 0.0167135 0.00754936 0.00546347 -0.000487003 0.00038781 -9.56724e-10 2.34155e-10 -7.69169e-11 5e-05 1.46608e-10 
12 1 0.0537865 0.0165718 0.00763005 0.0055489 -8.64573e-05 -0.000267204 -2.96803e-10 -3.91013e-10 1.54946e-10 5e-05 1.46608e-10 
13 1 0.0474752 0.015543 0.00872418 0.00612902 0.000540763 0.000127849 1.16331e-10 1.58238e-10 -2.49991e-10 5e-05 1.46608e-10 
15 1 0.0475165 0.0157018 0.00861051 0.0061246 0.000516983 0.000134405 -4.63065e-11 9.73375e-11 2.94194e-10 5e-05 1.46608e-10 
17 1 0.0474566 0.0154735 0.0087936 0.00608855 0.000542955 0.000126192 -2.39838e-10 4.60108e-10 -2.70482e-10 5e-05 1.46608e-10 
18 1 0.0537487 0.0164138 0.00773994 0.00559474 0.000582596 0.00038611 -1.09516e-10 -2.61849e-12 -4.74333e-10 5e-05 1.46608e-10 
19 1 0.0472233 0.0150937 0.00979718 0.00568493 -0.000727077 -0.000420158 -1.45896e-10 -1.05965e-10 3.66954e-10 5e-05 1.46608e-10 
23 1 0.0475791 0.0159074 0.00842274 0.00600506 0.000411997 0.000197093 1.12928e-10 7.11163e-11 7.58605e-10 5e-05 1.46608e-10 
24 1 0.0537312 0.0163553 0.00781916 0.00557397 0.000552639 0.000414279 4.2459e-10 2.30861e-10 -6.35779e-11 5e-05 1.46608e-10 
25 1 0.0474958 0.015626 0.00867233 0.00617564 0.000520259 0.000132234 3.16567e-10 5.45778e-11 1.47584e-10 5e-05 1.46608e-10 
26 1 0.0537129 0.0162969 0.00789821 0.00559539 0.000523433 0.000428688 -2.01106e-11 -4.49836e-10 4.24374e-10 5e-05 1.46608e-10 
27 1 0.0475382 0.0157453 0.00852312 0.00609199 0.000513772 0.000156422 -2.48181e-10 -3.47997e-10 1.90157e-10 5e-05 1.46608e-10 
29 1 0.0476584 0.0158507 0.00844936 0.00613324 0.000451598 0.000199439 4.02021e-10 -8.29115e-10 8.14866e-10 5e-05 1.46608e-10 
30 1 0.0536755 0.01618 0.00805612 0.00571965 0.000565633 0.000427428 -1.04157e-10 7.33219e-10 -8.55142e-10 5e-05 1.46608e-10 
32 1 0.0476835 0.0162316 0.0080642 0.00590139 0.000525683 0.000111332 6.55365e-12 3.42608e-10 -3.42004e-10 5e-05 1.46608e-10 
33 1 0.0536351 0.0160631 0.00821329 0.00588999 0.000521874 0.000509375 3.62201e-11 -4.36594e-10 7.31279e-10 5e-05 1.46608e-10 
34 1 0.0475594 0.0158146 0.0084542 0.00604109 0.000484873 0.000173875 1.83924e-11 -2.49962e-10 4.40551e-10 5e-05 1.46608e-10 
35 1 0.0476039 0.0159751 0.00835349 0.00594446 0.000360751 0.000167183 3.21678e-10 2.19144e-10 3.1361e-10 5e-05 1.46608e-10 
36 1 0.0478542 0.0165234 0.00775816 0.00553421 0.000568505 3.61662e-05 -1.05243e-09 -2.62824e-10 1.52846e-10 5e-05 1.46608e-10 
38 1 0.0479666 0.016622 0.00766947 0.00561797 0.000619319 -1.54487e-06 5.44107e-10 -9.08186e-11 1.19188e-10 5e-05 1.46608e-10 
39 1 0.0477586 0.0164937 0.00777785 0.00545856 0.000640844 -4.4137e-05 2.65473e-10 5.0107e-10 -4.23307e-10 5e-05 1.46608e-10 
41 1 0.0476127 0.0157029 0.0085752 0.00615948 0.00049757 0.000172961 -4.89674e-10 -3.21106e-10 2.13674e-10 5e-05 1.46608e-10 
42 1 0.0476211 0.0160298 0.00827151 0.00593612 0.000380346 0.000167759 3.70237e-10 2.48985e-10 -6.98974e-11 5e-05 1.46608e-10 
43 1 0.0476422 0.0160817 0.00818869 0.0059623 0.000471805 0.000183904 3.19137e-10 4.93157e-10 -2.76165e-10 5e-05 1.46608e-10 
44 1 0.00738367 0.018342 0.00543103 1.81062e-14 7.5305e-14 2.12931e-13 -4.30392e-24 -4.08937e-23 1.34417e-23 5e-05 1.46608e-10 
45 1 0.0536563 0.0161215 0.00813494 0.00574113 0.00055439 0.000453563 -3.71643e-11 3.42919e-10 -5.59457e-10 5e-05 1.46608e-10 
46 1 0.053767 0.0164818 0.00766895 0.00554014 -0.000113573 -0.000253418 -4.60266e-11 2.22235e-10 1.61771e-10 5e-05 1.46608e-10 
48 1 0.044615 0.0161067 0.00792874 0.0056206 -0.000546133 0.000417327 1.53936e-12 -3.67236e-12 -3.12465e-12 5e-05 1.46608e-10 
50 1 0.0479075 0.0167419 0.00755967 0.0056388 0.00056787 3.84084e-05 6.44554e-10 -5.71437e-10 7.61829e-10 5e-05 1.46608e-10 
51 1 0.0478724 0.0165974 0.00769343 0.00559108 0.000565644 2.2534e-05 -2.84405e-10 -3.04057e-10 5.07355e-10 5e-05 1.46608e-10 
53 1 0.0536133 0.0160047 0.00829151 0.00593109 0.000561462 0.000468676 8.66709e-12 -2.6149e-10 3.03682e-10 5e-05 1.46608e-10 
54 1 0.0473066 0.0152196 0.00942684 0.0058569 -0.000769145 -0.000382106 5.99082e-11 -1.97628e-10 5.85125e-10 5e-05 1.46608e-10 
55 1 0.0420432 0.0169346 0.00747906 0.0054585 -0.000448031 0.000380667 8.70415e-11 5.48501e-10 -2.33306e-10 5e-05 1.46608e-10 
57 1 0.047812 0.0167292 0.00766581 0.00556947 0.000656048 6.1028e-05 -7.75793e-11 -3.21325e-10 1.3228e-09 5e-05 1.46608e-10 
58 1 0.0474321 0.0154253 0.00887771 0.00610855 0.000363154 3.09524e-05 5.84234e-11 4.14219e-10 -1.71348e-10 5e-05 1.46608e-10 
59 1 0.04737 0.0153145 0.00914941 0.00569744 -0.000536834 -0.000430659 -1.01321e-10 -7.60356e-11 -2.5969e-10 5e-05 1.46608e-10 
60 1 0.0473906 0.0153503 0.00905834 0.00594835 -0.000278218 -0.000283818 3.10108e-11 2.70108e-10 -2.70957e-10 5e-05 1.46608e-10 
61 1 0.0472679 0.015156 0.00961247 0.00576663 -0.000760195 -0.000358811 2.59857e-10 -3.44552e-10 6.30457e-10 5e-05 1.46608e-10 
62 1 0.0477038 0.0163086 0.00800367 0.00582252 0.000567858 3.8444e-05 3.31144e-10 3.74908e-10 -5.24553e-10 5e-05 1.46608e-10 
63 1 0.0478524 0.0168657 0.00747161 0.00566934 0.000554096 -0.000109282 4.00128e-10 -5.67511e-10 2.84132e-10 5e-05 1.46608e-10 
64 1 0.0477222 0.0160559 0.00824282 0.00596462 0.000449519 0.000211006 5.1761e-10 -2.53534e-11 -1.46039e-10 5e-05 1.46608e-10 
67 1 0.0477925 0.0166589 0.00773544 0.00562384 0.000636751 3.33407e-05 1.4977e-10 2.62788e-10 7.23813e-10 5e-05 1.46608e-10 
68 1 0.0411781 0.0147764 0.00983698 0.00559326 -0.000271679 0.000570961 -1.54859e-10 -6.96332e-11 3.42892e-11 5e-05 1.46608e-10 
69 1 0.0476633 0.016151 0.00811977 0.00598284 0.000500676 0.000174947 4.5241e-10 3.79672e-10 -2.67353e-10 5e-05 1.46608e-10 
70 1 0.047872 0.016956 0.0074335 0.00570782 0.000410258 -0.000458067 9.26872e-11 -3.85185e-10 2.19157e-10 5e-05 1.46608e-10 
71 1 0.0411032 0.0146596 0.0101939 0.00549117 -0.000125588 0.00057713 -1.17474e-11 -1.16645e-10 7.11845e-10 5e-05 1.46608e-10 
72 1 0.0479276 0.0168006 0.00748125 0.00570203 0.000607813 2.81382e-05 1.89076e-09 -3.33057e-10 2.07726e-10 5e-05 1.46608e-10 
74 1 0.0478899 0.0166701 0.00762701 0.00560965 0.000575951 2.29246e-05 -3.28127e-10 -6.44419e-10 4.098e-10 5e-05 1.46608e-10 
76 1 0.0479109 0.0171436 0.00737634 0.00590586 0.000292932 -0.00069374 8.40418e-10 -1.28584e-10 9.18756e-11 5e-05 1.46608e-10 
77 1 0.047833 0.0167718 0.0075001 0.00560689 0.000407889 0.000160086 4.26953e-11 -1.29374e-09 1.11068e-09 5e-05 1.46608e-10 
78 1 0.0411977 0.0148374 0.00976021 0.00573765 -0.000280981 0.000583558 -1.09693e-10 -5.9449e-11 1.73917e-10 5e-05 1.46608e-10 
80 1 0.0478406 0.016846 0.00756895 0.00574544 0.000899658 -3.67331e-05 1.17357e-10 -3.7398e-10 2.76646e-11 5e-05 1.46608e-10 
81 1 0.0412402 0.0149593 0.00960748 0.00586878 -0.000292341 0.000601898 9.33593e-11 -6.01568e-11 9.02911e-11 5e-05 1.46608e-10 
83 1 0.0423145 0.0173618 0.00734367 0.00584963 -0.000580875 0.00044165 4.40952e-10 3.97474e-10 -1.57532e-10 5e-05 1.46608e-10 
84 1 0.0479703 0.0169875 0.007406 0.00571561 0.000256511 -0.000665723 -3.88779e-10 2.2658e-10 6.99111e-11 5e-05 1.46608e-10 
85 1 0.0411411 0.0146644 0.00999799 0.00551091 -0.000259706 0.000570392 1.30701e-10 2.07727e-10 4.65627e-10 5e-05 1.46608e-10 
86 1 0.0477771 0.0165633 0.0077084 0.00556857 0.000601293 9.05701e-06 -2.06177e-10 -2.84497e-12 -1.59505e-11 5e-05 1.46608e-10 
87 1 0.0535699 0.0158879 0.00844795 0.00591955 0.000559312 0.000470599 4.82791e-11 9.37249e-11 -1.41875e-10 5e-05 1.46608e-10 
89 1 0.0479436 0.0168863 0.00743219 0.00560019 0.000281968 -0.000678903 1.96333e-10 -2.42286e-10 -3.41467e-10 5e-05 1.46608e-10 
90 1 0.0535916 0.0159463 0.00836973 0.00592265 0.00056476 0.000458706 1.77857e-11 5.41943e-11 -4.98057e-11 5e-05 1.46608e-10 
91 1 0.0157927 0.0215765 0.00607411 -7.10944e-15 2.48348e-14 -7.8145e-14 3.45813e-22 4.05835e-23 -1.75776e-23 5e-05 1.46608e-10 
92 1 0.0477592 0.0161131 0.00816968 0.0059113 0.00048204 0.000185593 -2.85568e-11 1.20874e-10 -1.59744e-10 5e-05 1.46608e-10 
93 1 0.0479306 0.0172386 0.00735232 0.00599585 0.000232235 -0.000692157 8.02576e-11 2.66522e-10 -3.32269e-11 5e-05 1.46608e-10 
94 1 0.0480265 0.0172667 0.00733564 0.00601445 0.000158947 -0.000679539 4.18408e-11 -9.53428e-11 -1.32861e-11 5e-05 1.46608e-10 
95 1 0.0477957 0.0166328 0.00763897 0.00559765 0.000574723 5.16977e-05 -3.31197e-10 -3.64677e-10 5.378e-10 5e-05 1.46608e-10 
96 1 0.0477639 0.016183 0.0080983 0.00584786 0.000504976 0.000146306 -4.27488e-10 -8.52648e-11 -4.06857e-12 5e-05 1.46608e-10 
97 1 0.0416397 0.0158033 0.00849513 0.00571161 -0.000505731 0.00035905 1.0479e-10 -4.84142e-11 4.64303e-11 5e-05 1.46608e-10 
98 1 0.0480053 0.0171719 0.00735973 0.00591672 0.000169457 -0.000670824 6.71711e-10 -4.58688e-10 1.13063e-10 5e-05 1.46608e-10 
99 1 0.0410523 0.0147314 0.0104794 0.00624546 0.00415623 -0.000644553 1.99436e-11 -5.51653e-11 -3.75072e-10 5e-05 1.46608e-10 
100 1 0.0474123 0.0153858 0.00896743 0.00613774 3.22165e-05 -0.000118113 5.15304e-10 3.5638e-10 -9.34544e-11 5e-05 1.46608e-10 
101 1 0.0471826 0.0150306 0.00998253 0.00568348 -0.000707163 -0.000471571 -8.65015e-10 2.19874e-10 -2.1273e-10 5e-05 1.46608e-10 
103 1 0.057606 0.0164182 0.00862731 1.52579e-05 -0.00748093 0.00699097 2.15465e-13 1.61467e-10 -1.50073e-10 5e-05 1.46608e-10 
105 1 0.0412187 0.0148984 0.0096838 0.00583291 -0.000293558 0.000588752 1.83815e-10 -1.65584e-10 2.4398e-10 5e-05 1.46608e-10 
106 1 0.0477909 0.0165865 0.00780468 0.00558968 0.000589242 7.61885e-06 2.77299e-10 3.35027e-10 5.88778e-12 5e-05 1.46608e-10 
107 1 0.0410842 0.0146718 0.0102914 0.00544825 3.78835e-05 0.000559864 1.90381e-10 -5.61917e-11 1.54307e-10 5e-05 1.46608e-10 
108 1 0.0472454 0.0151249 0.0097048 0.00573883 -0.000750202 -0.000382547 1.1336e-10 -2.47553e-10 6.01085e-10 5e-05 1.46608e-10 
110 1 0.0478915 0.0170489 0.00740205 0.00575852 0.000342187 -0.000655711 5.02252e-11 3.05207e-12 -1.50402e-12 5e-05 1.46608e-10 
111 1 0.0479739 0.0174279 0.00730408 0.00602675 0.000148587 -0.000676576 2.85661e-10 4.11131e-10 -2.43519e-10 5e-05 1.46608e-10 
112 1 0.041159 0.0147151 0.00991363 0.00551641 -0.000279264 0.00055846 -3.68562e-12 1.82293e-11 1.51932e-10 5e-05 1.46608e-10 
113 1 0.047721 0.0163547 0.00791664 0.0056221 0.00062095 -2.11857e-06 -4.08852e-10 -1.08933e-11 -1.55042e-10 5e-05 1.46608e-10 
115 1 0.0477399 0.0164242 0.00784727 0.00547881 0.000652698 -4.62651e-05 -3.98151e-10 2.3297e-10 -3.16568e-10 5e-05 1.46608e-10 
116 1 0.0473488 0.0152825 0.00924174 0.00584226 -0.000665997 -0.000421117 -1.53481e-10 -2.42412e-10 6.92251e-11 5e-05 1.46608e-10 
117 1 0.0472876 0.0151878 0.0095197 0.00581516 -0.000773788 -0.000360921 -4.46135e-10 -1.70339e-10 4.83393e-10 5e-05 1.46608e-10 
118 1 0.0412619 0.0150202 0.00953119 0.00585942 -0.000287618 0.000596277 -8.89583e-11 -5.51028e-11 -5.05071e-11 5e-05 1.46608e-10 
119 1 0.0476772 0.0159091 0.00837033 0.00609359 0.000445202 0.00022907 4.96979e-11 -5.89575e-10 6.30536e-10 5e-05 1.46608e-10 
120 1 0.0472027 0.0150622 0.00988982 0.00567261 -0.000713026 -0.000448247 4.04856e-11 -3.05793e-12 1.62756e-11 5e-05 1.46608e-10 
121 1 0.041379 0.0151015 0.00943275 0.00585162 -0.000282476 0.000583674 1.44954e-10 -4.05243e-11 4.73949e-11 5e-05 1.46608e-10 
122 1 0.0479955 0.0175225 0.00727996 0.00602903 0.000139331 -0.000673837 5.68887e-11 -1.5192e-10 8.65904e-11 5e-05 1.46608e-10 
123 1 0.0415308 0.0155128 0.00888719 0.00584347 -0.000542306 0.000398072 -6.30934e-12 9.90638e-11 -1.29003e-10 5e-05 1.46608e-10 
124 1 0.0478143 0.0167023 0.00756953 0.00564352 0.000502785 0.000121136 1.57608e-10 -1.14969e-09 1.38186e-09 5e-05 1.46608e-10 
125 1 0.0475722 0.0155643 0.00871322 0.00614887 0.000522681 0.000164609 2.90875e-10 -4.37485e-11 1.36345e-10 5e-05 1.46608e-10 
127 1 0.0415962 0.0156871 0.00865197 0.00583324 -0.000531494 0.000386481 3.96428e-11 -5.1281e-11 4.28132e-11 5e-05 1.46608e-10 
128 1 0.0479523 0.0173333 0.0073282 0.0060252 0.000193915 -0.000691875 -1.28296e-10 9.95213e-11 4.36375e-11 5e-05 1.46608e-10 
129 1 0.0413053 0.015142 0.00937862 0.0058482 -0.000292911 0.00059849 7.45615e-11 -2.01143e-11 1.62833e-11 5e-05 1.46608e-10 
130 1 0.0413704 0.0153243 0.00914946 0.00582843 -0.000323908 0.000557075 -5.06969e-11 2.22044e-10 5.55102e-11 5e-05 1.46608e-10 
131 1 0.041327 0.0152029 0.00930233 0.00584425 -0.000292265 0.000594916 5.2092e-11 -2.68295e-11 2.86087e-12 5e-05 1.46608e-10 
133 1 0.0471401 0.0149678 0.0101676 0.00556261 -0.000659538 -0.000548621 1.45068e-10 1.28444e-10 -3.32524e-10 5e-05 1.46608e-10 
135 1 0.0471609 0.0149993 0.010075 0.00561012 -0.000679038 -0.000516994 -9.2104e-11 2.78245e-11 -7.34265e-11 5e-05 1.46608e-10 
136 1 0.0412836 0.0150811 0.00945491 0.00585044 -0.000290255 0.000595061 1.46232e-10 -1.12162e-11 1.80718e-11 5e-05 1.46608e-10 
137 1 0.0480172 0.0176171 0.00725584 0.00605267 0.000156138 -0.000681367 -6.45998e-11 -2.86024e-10 5.78416e-11 5e-05 1.46608e-10 
138 1 0.0480481 0.0173613 0.00731152 0.00603474 0.000129472 -0.000672457 2.99856e-10 3.42571e-11 -3.00271e-11 5e-05 1.46608e-10 
140 1 0.0477556 0.0165227 0.00787351 0.00549151 0.000632412 -4.77356e-05 -1.1835e-10 2.32755e-10 -7.99427e-10 5e-05 1.46608e-10 
141 1 0.0413487 0.0152638 0.00922604 0.0058417 -0.00028709 0.000593648 4.13704e-11 2.6164e-11 -1.36928e-11 5e-05 1.46608e-10 
142 1 0.0415007 0.0156715 0.00867793 0.00582432 -0.000539474 0.000396886 2.6039e-11 9.24355e-11 -8.06933e-11 5e-05 1.46608e-10 
143 1 0.0414355 0.0155009 0.00891588 0.00584379 -0.000550291 0.000387189 -2.78907e-11 3.58921e-11 -1.17191e-10 5e-05 1.46608e-10 
144 1 0.0446337 0.0161653 0.00784988 0.00566661 -0.000552606 0.000423283 -1.27811e-12 3.41084e-12 7.47501e-13 5e-05 1.46608e-10 
145 1 0.019649 0.0171082 0.00810831 0.00269066 0.0180663 -0.00716124 -6.33485e-11 -2.29795e-10 5.0472e-11 5e-05 1.46608e-10 
146 1 0.0417499 0.016154 0.00802314 0.00544021 -0.000510907 0.000371251 -2.48742e-11 1.12545e-10 -1.21003e-10 5e-05 1.46608e-10 
147 1 0.0413921 0.015384 0.00907223 0.00582262 -0.000409618 0.000483188 -1.32332e-10 2.42683e-10 -1.5822e-12 5e-05 1.46608e-10 
148 1 0.041479 0.0156159 0.00875816 0.0058291 -0.000551834 0.000394029 -6.50474e-11 5.53435e-11 -1.84722e-10 5e-05 1.46608e-10 
150 1 0.0414656 0.0153386 0.00912257 0.005811 -0.000546184 0.000372886 -1.57941e-10 2.03735e-10 -2.1295e-10 5e-05 1.46608e-10 
153 1 0.0414441 0.0152818 0.009202 0.00583624 -0.000477091 0.000422117 -1.29905e-10 2.89188e-10 -1.5311e-10 5e-05 1.46608e-10 
154 1 0.0415876 0.015904 0.00836427 0.00580757 -0.000540414 0.000397337 1.9669e-11 -1.72737e-10 2.28064e-10 5e-05 1.46608e-10 
156 1 0.0414138 0.0154428 0.0089943 0.00583538 -0.000489392 0.000422241 -1.55258e-11 1.652e-10 -5.91402e-12 5e-05 1.46608e-10 
158 1 0.0415224 0.0157296 0.00859951 0.00582132 -0.00053705 0.000394574 7.09008e-11 2.0667e-11 1.88244e-12 5e-05 1.46608e-10 
159 1 0.0418663 0.0165284 0.00761171 0.00546133 -0.000484125 0.000384597 2.70564e-11 7.1471e-11 -5.33414e-12 5e-05 1.46608e-10 
160 1 0.0414573 0.0155584 0.008837 0.00584113 -0.000566985 0.000383179 -8.16866e-11 -9.17033e-11 -2.69294e-10 5e-05 1.46608e-10 
162 1 0.0415659 0.0158458 0.00844268 0.00581149 -0.00053782 0.000396431 1.75807e-11 -1.18486e-10 1.60826e-10 5e-05 1.46608e-10 
163 1 0.0418303 0.0167732 0.00752566 0.00547 -0.000497382 0.000397231 -2.89046e-11 -1.05896e-10 2.65237e-11 5e-05 1.46608e-10 
164 1 0.0480388 0.0177117 0.00723172 0.00607768 0.000172252 -0.000688978 -1.20739e-10 -3.81461e-10 8.35104e-11 5e-05 1.46608e-10 
166 1 0.047831 0.0163162 0.00796884 0.00583348 0.00056887 8.18999e-05 -4.94476e-10 3.69174e-11 -7.47276e-11 5e-05 1.46608e-10 
167 1 0.0413573 0.0150406 0.00950904 0.00584902 -0.000279583 0.000581251 1.1415e-11 6.54479e-11 4.13034e-11 5e-05 1.46608e-10 
170 1 0.0416306 0.0160203 0.00820737 0.00571916 -0.000538476 0.000377138 -1.7159e-10 -3.64135e-10 1.33623e-10 5e-05 1.46608e-10 
171 1 0.048052 0.0165909 0.00771121 0.00567913 0.000736021 -0.000112318 3.56003e-10 -1.20224e-10 1.45264e-10 5e-05 1.46608e-10 
173 1 0.047701 0.0159781 0.00830202 0.00599989 0.000446005 0.000216925 1.89835e-10 -1.69274e-10 2.4083e-10 5e-05 1.46608e-10 
174 1 0.0417046 0.0159777 0.00825982 0.00577936 -0.00053848 0.000397101 -1.07861e-10 1.33875e-11 3.93773e-12 5e-05 1.46608e-10 
175 1 0.0416508 0.0160789 0.00812895 0.00556194 -0.000526766 0.000344013 -1.71453e-10 -5.32326e-10 -2.75157e-11 5e-05 1.46608e-10 
176 1 0.0415443 0.0157881 0.00852139 0.00581328 -0.00053569 0.000394143 1.0306e-12 -7.04979e-11 9.03967e-11 5e-05 1.46608e-10 
179 1 0.0416831 0.0159196 0.00833829 0.00580513 -0.000525991 0.000378706 -4.75449e-11 -6.35219e-11 5.58717e-11 5e-05 1.46608e-10 
182 1 0.0471193 0.0149363 0.0102602 0.00551081 -0.000651253 -0.000540354 4.04968e-10 1.7004e-10 -6.1896e-10 5e-05 1.46608e-10 
183 1 0.0417532 0.0164149 0.00767626 0.00544256 -0.000521518 0.000394933 -1.11655e-11 4.64279e-11 -5.41284e-11 5e-05 1.46608e-10 
185 1 0.0418497 0.0168662 0.00749454 0.00545378 -0.000493674 0.000394501 -6.46969e-11 -3.07326e-10 1.08459e-10 5e-05 1.46608e-10 
186 1 0.226587 0.0186791 0.00533789 -1.13624e-16 2.48918e-14 -2.37494e-13 -5.02559e-22 -1.60266e-24 2.06795e-25 5e-05 1.46608e-10 
187 1 0.0478172 0.0163844 0.00789705 0.00564771 0.000544677 8.03205e-05 -7.15458e-11 6.17449e-11 -7.35503e-11 5e-05 1.46608e-10 
189 1 0.0477827 0.0162525 0.0080289 0.0058446 0.000536067 0.000112656 -8.05894e-11 -2.28335e-10 1.74543e-10 5e-05 1.46608e-10 
190 1 0.0355398 0.0156698 0.00844519 0.00576959 0.000265805 -0.000142711 3.14757e-11 -4.38766e-11 6.3866e-11 5e-05 1.46608e-10 
191 1 0.0421241 0.0173019 0.00735635 0.00581918 -0.000611059 0.000453466 2.70075e-10 -2.52638e-10 -9.36099e-11 5e-05 1.46608e-10 
192 1 0.0417181 0.0163494 0.00795436 0.00538298 -0.000511453 0.000383417 -9.08598e-11 9.93681e-11 -3.01929e-10 5e-05 1.46608e-10 
193 1 0.047984 0.0166916 0.00759982 0.00563659 0.00062961 -3.2642e-06 1.61539e-10 -3.81257e-10 5.1978e-10 5e-05 1.46608e-10 
194 1 0.0414874 0.0153965 0.00904404 0.00581472 -0.000535745 0.000389206 -1.60423e-10 1.63293e-10 -2.23891e-10 5e-05 1.46608e-10 
195 1 0.0417264 0.0163535 0.0078548 0.00540618 -0.000527985 0.000386254 -9.47297e-11 -1.73166e-11 -2.01357e-10 5e-05 1.46608e-10 
196 1 0.0418069 0.016692 0.00765599 0.00545741 -0.000417126 0.00037284 -2.77632e-11 -2.19225e-10 1.82479e-11 5e-05 1.46608e-10 
197 1 0.0417725 0.0164945 0.00761889 0.00548261 -0.000527999 0.000403904 2.12246e-11 7.15773e-11 -4.27525e-11 5e-05 1.46608e-10 
198 1 0.0416699 0.0161652 0.0080821 0.00541 -0.000497704 0.000342551 -6.4152e-11 -3.01759e-10 1.54121e-10 5e-05 1.46608e-10 
199 1 0.0418887 0.0170526 0.0074322 0.00543696 -0.000447807 0.000380111 2.78267e-10 4.82127e-10 -1.09747e-10 5e-05 1.46608e-10 
200 1 0.0416093 0.0159621 0.00828585 0.00579318 -0.000543078 0.000400963 -8.28417e-11 -1.51454e-10 2.3945e-10 5e-05 1.46608e-10 
201 1 0.0420282 0.0172711 0.00736298 0.00583761 -0.00056936 0.000436161 4.39978e-11 2.47945e-10 5.09504e-10 5e-05 1.46608e-10 
202 1 0.0418109 0.0166801 0.00755678 0.00546773 -0.000474612 0.000383769 8.86543e-12 -4.49435e-11 -3.79106e-11 5e-05 1.46608e-10 
203 1 0.0479456 0.0169659 0.00750045 0.00584634 0.000315347 -0.000600785 1.47496e-10 2.52443e-10 2.0211e-10 5e-05 1.46608e-10 
204 1 0.0417083 0.0163245 0.00805072 0.00535316 -0.000477248 0.000386977 1.65362e-10 3.81436e-10 -2.29954e-10 5e-05 1.46608e-10 
205 1 0.0355201 0.0156102 0.00852305 0.00572858 0.000270579 -0.0001499 1.99531e-11 1.4015e-12 3.64484e-12 5e-05 1.46608e-10 
206 1 0.0417355 0.0163562 0.00775525 0.00541715 -0.000521784 0.000391343 -1.73645e-11 1.83394e-11 -1.0351e-10 5e-05 1.46608e-10 
207 1 0.0414224 0.0152227 0.00927969 0.00584711 -0.000332447 0.000531667 7.039e-11 1.4446e-10 -1.68906e-10 5e-05 1.46608e-10 
208 1 0.0419302 0.0172381 0.00737024 0.00582248 -0.000492378 0.000409728 6.24696e-11 8.78999e-11 -2.50721e-11 5e-05 1.46608e-10 
210 1 0.0475477 0.0155148 0.00879652 0.00619068 0.000340066 6.00337e-05 5.34612e-11 1.89069e-11 1.9462e-10 5e-05 1.46608e-10 
211 1 0.0419857 0.0170857 0.00742483 0.00556454 -0.000514249 0.000418504 -4.15926e-11 -1.71515e-10 -2.66686e-10 5e-05 1.46608e-10 
212 1 0.0417914 0.0165942 0.0076041 0.00545432 -0.000483787 0.00037479 2.558e-12 4.42419e-11 -2.42932e-11 5e-05 1.46608e-10 
213 1 0.0479484 0.0165518 0.0077397 0.00552564 0.00053967 7.07546e-05 -2.36769e-10 1.33634e-10 -2.64818e-10 5e-05 1.46608e-10 
214 1 0.0419517 0.017331 0.00733928 0.00583591 -0.000539492 0.000430567 -3.02178e-11 1.72924e-10 -1.60956e-10 5e-05 1.46608e-10 
215 1 0.0159913 0.0152807 0.00678236 -2.39509e-14 -9.32255e-14 -1.94032e-13 5.36633e-23 4.17726e-23 -2.10931e-23 5e-05 1.46608e-10 
216 1 0.0419087 0.0171455 0.00740114 0.00580886 -0.000502989 0.000411884 -2.12407e-10 1.31532e-10 -7.55723e-11 5e-05 1.46608e-10 
217 1 0.041618 0.0157452 0.00857357 0.00582067 -0.000527389 0.000380908 6.93148e-11 -4.27777e-11 6.68259e-11 5e-05 1.46608e-10 
218 1 0.0419949 0.0175171 0.0072772 0.00586704 -0.000587008 0.000453256 1.7424e-10 3.12856e-10 -2.55154e-10 5e-05 1.46608e-10 
220 1 0.0776486 0.017098 0.00812294 1.30556e-09 -0.0208718 0.012069 2.76915e-18 1.09327e-11 1.89257e-11 5e-05 1.46608e-10 
221 1 0.0355792 0.015789 0.00828949 0.00585185 0.000264045 -0.000135775 1.30672e-11 2.15932e-11 -5.60713e-11 5e-05 1.46608e-10 
222 1 0.0418879 0.0166208 0.0075803 0.00547418 -0.000487839 0.000388141 5.50751e-11 3.10339e-11 -2.8937e-11 5e-05 1.46608e-10 
223 1 0.0254028 0.0195569 0.00545165 -1.34549e-14 -2.16147e-15 2.19343e-13 9.20238e-24 3.62586e-22 2.89513e-24 5e-05 1.46608e-10 
225 1 0.042038 0.0177029 0.00721524 0.0058971 -0.000563774 0.000437675 -2.94668e-11 -4.08736e-10 1.2072e-10 5e-05 1.46608e-10 
226 1 0.0418692 0.0169592 0.00746343 0.00544053 -0.000479058 0.000388813 -5.9392e-11 -3.22663e-10 1.0459e-10 5e-05 1.46608e-10 
227 1 0.0419653 0.0169929 0.00745585 0.00543197 -0.000482003 0.000383965 3.36033e-11 2.40465e-10 1.81503e-10 5e-05 1.46608e-10 
228 1 0.0446535 0.0162582 0.0078188 0.00564159 -0.000548127 0.00042088 6.876e-13 1.49407e-13 4.56588e-12 5e-05 1.46608e-10 
229 1 0.0411207 0.0146564 0.0100955 0.00550883 -0.000197638 0.000580011 -7.52704e-11 -2.14004e-11 6.86078e-10 5e-05 1.46608e-10 
230 1 0.0420071 0.0171784 0.00739392 0.00576478 -0.000563194 0.000443283 -3.07292e-10 -3.26707e-11 -3.09038e-10 5e-05 1.46608e-10 
231 1 0.0416892 0.0162342 0.00801234 0.00538602 -0.000467325 0.000371769 -2.62846e-11 -3.32523e-11 2.25937e-10 5e-05 1.46608e-10 
232 1 0.042148 0.0170463 0.00744506 0.00547388 -0.000886754 0.000527212 -1.82981e-10 7.46662e-11 -4.85505e-11 5e-05 1.46608e-10 
233 1 0.0415093 0.0154548 0.00896578 0.00583381 -0.000538723 0.000396892 -3.86137e-11 1.39227e-10 -1.82511e-10 5e-05 1.46608e-10 
234 1 0.0479298 0.0164823 0.00780913 0.0054974 0.00053766 7.30643e-05 1.24506e-09 6.06689e-10 -5.00447e-10 5e-05 1.46608e-10 
235 1 0.0420809 0.0171156 0.00741852 0.00562207 -0.000730548 0.000472985 -2.0025e-10 2.67767e-10 3.08627e-10 5e-05 1.46608e-10 
238 1 0.0417267 0.0160358 0.00818146 0.00570772 -0.000532026 0.000393031 1.22121e-10 3.76155e-11 -4.41485e-11 5e-05 1.46608e-10 
239 1 0.0355595 0.0157294 0.00836734 0.00579664 0.000260309 -0.000134263 -7.43628e-11 3.83802e-12 -2.92175e-12 5e-05 1.46608e-10 
240 1 0.0356185 0.0159084 0.00813393 0.00579473 0.000282323 -0.000123742 1.7911e-10 -8.2526e-13 6.60465e-11 5e-05 1.46608e-10 
241 1 0.0356741 0.0160965 0.00790736 0.0057702 0.000157056 -0.00024038 5.96715e-11 3.86763e-12 3.93672e-11 5e-05 1.46608e-10 
243 1 0.0356941 0.0161839 0.00786306 0.00576555 0.000168631 -0.000242382 -4.63275e-11 -1.2895e-10 -9.39687e-12 5e-05 1.46608e-10 
244 1 0.0355988 0.0158486 0.00821163 0.00586455 0.000250073 -0.000123997 6.90011e-11 -1.42706e-10 2.31919e-10 5e-05 1.46608e-10 
246 1 0.0356549 0.0160291 0.00797865 0.0057556 0.000320641 -9.55572e-05 -2.54979e-11 6.5708e-11 -1.12641e-10 5e-05 1.46608e-10 
247 1 0.0417829 0.0162713 0.00786539 0.00534678 -0.000490881 0.000358775 -7.0734e-11 1.15629e-10 -1.24687e-10 5e-05 1.46608e-10 
248 1 0.0418254 0.0163246 0.00779225 0.00536849 -0.000495966 0.000363899 -9.95762e-11 1.0565e-10 -1.24471e-10 5e-05 1.46608e-10 
250 1 0.0416614 0.0158616 0.00841679 0.00581475 -0.00054001 0.000371704 2.20484e-10 -1.25536e-10 5.32071e-11 5e-05 1.46608e-10 
251 1 0.0421668 0.0174874 0.00729449 0.00585362 -0.000586508 0.000450977 3.64679e-10 -2.6778e-10 1.38562e-10 5e-05 1.46608e-10 
252 1 0.018896 0.013113 0.0137667 4.85881e-21 -2.91472e-21 1.37807e-22 0 0 0 5e-05 1.46608e-10 
255 1 0.0414007 0.0151624 0.00935646 0.00585697 -0.000276102 0.000583518 1.90304e-10 -3.58504e-11 -6.10833e-11 5e-05 1.46608e-10 
257 1 0.0420494 0.0173638 0.00733205 0.00584766 -0.00057597 0.000425531 -2.34599e-10 2.11528e-10 -3.49483e-10 5e-05 1.46608e-10 
258 1 0.0419501 0.0168992 0.00748735 0.00543856 -0.000479397 0.000385601 2.66526e-10 -4.44064e-11 -1.56353e-11 5e-05 1.46608e-10 
259 1 0.0386899 0.0163862 0.00767974 0.00584553 0.000597757 -0.000459359 6.82742e-13 6.00861e-14 -6.65231e-14 5e-05 1.46608e-10 
260 1 0.0478357 0.0164539 0.00782761 0.00549837 0.000559696 4.85418e-05 1.73128e-10 -2.19385e-10 2.49366e-10 5e-05 1.46608e-10 
261 1 0.0420595 0.0177955 0.00718433 0.00594152 -0.000540032 0.000430923 -2.68065e-11 -3.84882e-10 1.47301e-10 5e-05 1.46608e-10 
262 1 0.0421455 0.0173947 0.00732542 0.00584838 -0.000611939 0.00045359 3.53248e-10 -1.63823e-10 1.45548e-10 5e-05 1.46608e-10 
263 1 0.0357528 0.016446 0.00772943 0.00559567 0.000223392 -0.000203393 -6.68762e-12 1.63905e-11 3.86612e-12 5e-05 1.46608e-10 
264 1 0.0420707 0.0174565 0.00730113 0.00587419 -0.000581624 0.00044496 2.72398e-10 2.45234e-10 -9.22149e-11 5e-05 1.46608e-10 
266 1 0.0415527 0.0155709 0.00880881 0.005845 -0.000544295 0.000390841 -8.23575e-11 1.48911e-11 -8.84007e-11 5e-05 1.46608e-10 
267 1 0.0420809 0.0178881 0.00715343 0.00595414 -0.000528766 0.000426257 1.10334e-11 -2.15194e-10 9.16306e-11 5e-05 1.46608e-10 
268 1 0.0421761 0.0171457 0.0074121 0.00567292 -0.000817929 0.000513248 -7.97228e-11 1.95395e-10 -6.18643e-11 5e-05 1.46608e-10 
269 1 0.0420105 0.0174918 0.0073727 0.00589168 -0.000639242 0.000456339 -6.41204e-10 1.15816e-10 -3.4366e-10 5e-05 1.46608e-10 
270 1 0.042241 0.0174249 0.00731899 0.00583626 -0.000599737 0.000440562 -7.19121e-12 -1.23272e-10 8.87239e-11 5e-05 1.46608e-10 
271 1 0.0415754 0.0156288 0.00873053 0.00584315 -0.000536279 0.000389977 -1.23062e-10 -5.49021e-13 4.85185e-12 5e-05 1.46608e-10 
273 1 0.0421555 0.0178261 0.00717781 0.00591383 -0.000556757 0.000434772 2.11885e-10 -1.36507e-10 5.05288e-11 5e-05 1.46608e-10 
275 1 0.042092 0.0175491 0.00727021 0.005867 -0.000585117 0.00043776 1.78978e-10 -2.28583e-10 -5.89231e-11 5e-05 1.46608e-10 
277 1 0.0421134 0.0176418 0.0072393 0.00589993 -0.000569517 0.000438767 4.78265e-12 -3.81741e-10 1.26757e-10 5e-05 1.46608e-10 
278 1 0.0418914 0.016437 0.00764352 0.00544647 -0.000487614 0.000393348 -1.90759e-10 1.45336e-10 -8.78778e-11 5e-05 1.46608e-10 
279 1 0.0357919 0.0166204 0.00763961 0.00562473 0.000219509 -0.000201293 3.57918e-12 2.66048e-12 -9.78162e-13 5e-05 1.46608e-10 
280 1 0.0357333 0.0163588 0.00777434 0.0055963 0.000221452 -0.000202614 -3.18988e-11 1.34257e-11 -1.73498e-11 5e-05 1.46608e-10 
281 1 0.0419294 0.0168064 0.00751834 0.00543151 -0.00047744 0.000390352 2.16035e-11 1.03057e-10 -1.31808e-11 5e-05 1.46608e-10 
282 1 0.0358116 0.0167075 0.00759471 0.00562161 0.000220421 -0.000202101 7.44466e-13 -8.22745e-12 5.62095e-12 5e-05 1.46608e-10 
283 1 0.0357139 0.0162714 0.00781878 0.00566408 0.000192361 -0.000238084 6.7331e-11 1.08927e-10 1.57029e-11 5e-05 1.46608e-10 
284 1 0.0422193 0.0173319 0.00735001 0.00584149 -0.000636005 0.000456321 5.27442e-10 -3.08395e-11 1.42898e-10 5e-05 1.46608e-10 
286 1 0.0420164 0.01761 0.0072462 0.00586929 -0.000605839 0.000448263 -1.58954e-10 -5.19124e-10 2.69985e-10 5e-05 1.46608e-10 
289 1 0.0358312 0.0167947 0.00754981 0.00562109 0.0002226 -0.000203022 -4.5768e-13 4.65506e-12 -3.77678e-12 5e-05 1.46608e-10 
290 1 0.0418444 0.0163833 0.00771359 0.00541138 -0.000454716 0.000400778 -6.83528e-11 1.82e-10 -6.44103e-11 5e-05 1.46608e-10 
291 1 0.0419733 0.0174241 0.0073082 0.00584993 -0.000563218 0.00043121 3.70381e-11 5.77966e-10 -8.86069e-11 5e-05 1.46608e-10 
292 1 0.0413356 0.0149797 0.00958533 0.00587118 -0.000281398 0.000580934 4.59805e-11 9.88524e-11 -3.88928e-12 5e-05 1.46608e-10 
293 1 0.0417586 0.0162136 0.00794337 0.00536577 -0.000494872 0.000364936 -2.70118e-10 2.26638e-10 -1.28175e-10 5e-05 1.46608e-10 
294 1 0.0421884 0.0175802 0.00726353 0.00589706 -0.000572081 0.000439498 1.84902e-10 -2.30136e-10 8.81291e-11 5e-05 1.46608e-10 
295 1 0.0410676 0.0146973 0.0103866 0.00567958 0.00153489 0.000217532 3.90296e-10 1.87644e-11 -1.64693e-10 5e-05 1.46608e-10 
296 1 0.0421023 0.0172086 0.00738747 0.00580339 -0.000657195 0.000459229 -6.16375e-10 -1.51929e-10 -1.38671e-10 5e-05 1.46608e-10 
297 1 0.0417485 0.0160939 0.00810306 0.00556563 -0.000511817 0.000374842 3.37478e-10 3.27036e-11 -7.97609e-11 5e-05 1.46608e-10 
298 1 0.0357723 0.0165332 0.00768452 0.00560032 0.000222486 -0.000202877 -9.15334e-11 2.26845e-11 -2.07803e-11 5e-05 1.46608e-10 