ITEM: TIMESTEP
10000000
ITEM: NUMBER OF ATOMS
235
ITEM: BOX BOUNDS ff ff ff
-0.02 0.43
-0.02 0.06
-0.02 0.07
ITEM: ATOMS id type x y z vx vy vz fx fy fz radius mass 
1 1 0.0709816 0.0157852 0.00837057 0.00570156 8.5228e-05 0.000117809 -2.22489e-11 5.80867e-11 -5.61388e-11 5e-05 1.46608e-10 
4 1 0.0771555 0.016777 0.00752377 0.00553979 -0.000158133 0.000233205 4.03643e-12 -3.3646e-11 3.93414e-11 5e-05 1.46608e-10 
5 1 0.0709407 0.0156316 0.00849205 0.00564178 5.30074e-05 0.00014078 -1.18326e-10 1.68281e-10 -1.86979e-10 5e-05 1.46608e-10 
6 1 0.0770381 0.016272 0.00782568 0.00561059 -0.00017262 0.000233621 -2.454e-10 8.55716e-11 -6.78181e-11 5e-05 1.46608e-10 
8 1 0.0708736 0.0153991 0.00867581 0.00619988 8.51424e-05 0.000140261 4.60877e-10 3.54684e-10 -2.02286e-11 5e-05 1.46608e-10 
9 1 0.0771751 0.0168612 0.00747346 0.00555125 -0.000159149 0.000236761 -1.59664e-11 -1.32558e-11 -6.50829e-12 5e-05 1.46608e-10 
10 1 0.0829886 0.0160524 0.00793167 0.00590037 0.000975043 -0.000751034 1.78037e-11 -6.71115e-11 4.94127e-11 5e-05 1.46608e-10 
11 1 0.0649498 0.0159981 0.00819826 0.00573332 4.44261e-06 -0.000119448 7.65255e-11 3.17598e-10 -2.10324e-10 5e-05 1.46608e-10 
12 1 0.077136 0.0166929 0.0075741 0.00549608 -0.000152569 0.000231151 3.1492e-12 -1.78051e-10 8.30317e-11 5e-05 1.46608e-10 
13 1 0.0707628 0.0153162 0.00877047 0.00626019 -0.000177014 6.29154e-05 6.87398e-10 -5.85282e-10 1.68505e-10 5e-05 1.46608e-10 
15 1 0.0708037 0.0154627 0.00864311 0.00617232 2.82448e-05 0.000240177 -3.78222e-10 -1.38035e-11 4.50071e-10 5e-05 1.46608e-10 
17 1 0.0707439 0.0152789 0.00886129 0.00627454 -0.000260684 2.8383e-05 6.51224e-10 -1.5655e-11 4.91416e-10 5e-05 1.46608e-10 
18 1 0.0770971 0.0165245 0.00767476 0.00550867 -0.000126207 0.000212325 -1.67229e-12 7.46885e-12 -2.4555e-11 5e-05 1.46608e-10 
19 1 0.0706186 0.0151341 0.0094298 0.00590927 -0.000251317 -5.44407e-06 2.44172e-10 -1.47665e-10 6.10497e-10 5e-05 1.46608e-10 
23 1 0.0708656 0.015682 0.0084493 0.00566035 7.26266e-05 0.000125985 -5.10551e-11 3.4548e-11 1.23688e-11 5e-05 1.46608e-10 
24 1 0.0770776 0.0164403 0.00772509 0.00544617 -0.000156298 0.000232427 -4.55605e-10 -2.85072e-10 2.40503e-10 5e-05 1.46608e-10 
25 1 0.0707821 0.0153978 0.00871607 0.00620798 -6.65498e-05 0.000178762 9.13488e-11 -5.46906e-10 -4.87717e-10 5e-05 1.46608e-10 
26 1 0.0770581 0.0163561 0.00777542 0.00565513 -0.000160572 0.000245847 5.01828e-11 9.30408e-10 -5.93593e-10 5e-05 1.46608e-10 
27 1 0.0708246 0.0155285 0.00857074 0.00574992 5.73109e-05 0.000145416 6.91423e-11 1.90051e-11 1.81596e-10 5e-05 1.46608e-10 
29 1 0.0710022 0.0158619 0.00830985 0.0056945 7.68788e-05 0.000124414 1.4798e-10 -6.05328e-12 -5.89181e-13 5e-05 1.46608e-10 
30 1 0.0770181 0.0161879 0.00787587 0.00562732 -0.000212501 0.000148267 -4.54766e-10 -3.47447e-10 6.03922e-11 5e-05 1.46608e-10 
32 1 0.0709271 0.0159123 0.00826713 0.00569302 6.83122e-05 0.000130548 -4.36338e-11 3.40492e-12 2.41434e-11 5e-05 1.46608e-10 
33 1 0.076978 0.0160181 0.00797361 0.00559859 -0.000217171 0.000161702 3.59714e-10 1.33982e-10 -3.81248e-10 5e-05 1.46608e-10 
34 1 0.070845 0.0156053 0.00851001 0.00564513 6.71809e-05 0.000122852 -1.20853e-10 -1.31764e-10 1.1292e-10 5e-05 1.46608e-10 
35 1 0.0711208 0.0165511 0.00786949 0.00542668 3.49144e-06 -5.67378e-06 2.45666e-10 -3.44783e-10 1.63007e-10 5e-05 1.46608e-10 
36 1 0.0711431 0.016399 0.00788296 0.0054557 2.24533e-05 7.45856e-05 4.81533e-11 -2.5148e-11 2.31384e-11 5e-05 1.46608e-10 
38 1 0.0714194 0.017112 0.00729086 0.00565131 -3.58046e-05 2.43495e-05 -8.30924e-11 6.9459e-11 -5.42281e-11 5e-05 1.46608e-10 
39 1 0.0712912 0.0165929 0.00772177 0.00582903 0.000758902 -0.000640864 -7.63143e-10 6.08581e-10 -5.01821e-10 5e-05 1.46608e-10 
41 1 0.0709613 0.0157084 0.00843134 0.00565817 5.35404e-05 0.000141499 2.89475e-10 3.64447e-10 -2.59943e-10 5e-05 1.46608e-10 
42 1 0.0711682 0.016888 0.00760689 0.0067389 0.00420617 -0.00332298 1.63793e-10 2.04641e-10 -1.21755e-10 5e-05 1.46608e-10 
43 1 0.0708862 0.0157587 0.00838859 0.00567104 7.24045e-05 0.000125965 1.69776e-10 8.80229e-11 -6.46239e-11 5e-05 1.46608e-10 
44 1 0.00738367 0.018342 0.00543103 1.81353e-14 7.52984e-14 2.12931e-13 -1.17421e-22 -3.36042e-24 1.57164e-23 5e-05 1.46608e-10 
45 1 0.0769983 0.016103 0.00792488 0.00558818 -0.000296958 3.21095e-05 8.36633e-11 -1.08857e-10 -5.54808e-10 5e-05 1.46608e-10 
46 1 0.0771165 0.0166087 0.00762443 0.00548956 -0.000151449 0.000229612 2.27774e-10 3.05422e-10 -1.62114e-10 5e-05 1.46608e-10 
48 1 0.0680188 0.0164784 0.00779111 0.00563742 -0.000219541 -5.57892e-06 -1.92272e-11 -2.16603e-11 1.61718e-11 5e-05 1.46608e-10 
50 1 0.0711622 0.0164745 0.00782025 0.00543899 -1.69679e-05 4.29238e-06 2.00805e-10 -7.86638e-11 -5.49019e-11 5e-05 1.46608e-10 
51 1 0.0710093 0.0162193 0.00802425 0.00546202 7.13483e-05 0.000119522 -1.14486e-10 -3.12817e-11 5.07284e-11 5e-05 1.46608e-10 
53 1 0.076958 0.0159338 0.00802354 0.00556286 -0.000189361 0.000203986 -8.11817e-10 -1.91923e-10 4.47822e-10 5e-05 1.46608e-10 
54 1 0.0707024 0.0152306 0.00905078 0.00611763 -0.000256531 4.96903e-05 2.52669e-10 7.05376e-11 -1.11644e-10 5e-05 1.46608e-10 
55 1 0.0654683 0.0174299 0.00719372 0.00627147 1.70838e-05 -0.000149685 -8.21789e-10 5.77043e-10 -3.66393e-10 5e-05 1.46608e-10 
57 1 0.0714451 0.0171989 0.00721877 0.00572645 -6.01016e-05 3.68937e-05 -2.48533e-10 -2.99388e-10 -2.48417e-10 5e-05 1.46608e-10 
58 1 0.0707202 0.015255 0.00895548 0.00618396 -0.000243652 2.51402e-05 -2.28798e-10 -2.65624e-10 8.11231e-11 5e-05 1.46608e-10 
59 1 0.0710685 0.0164857 0.00793458 0.00543516 0.000473834 -0.000126124 1.46631e-12 1.38649e-10 -9.14078e-11 5e-05 1.46608e-10 
60 1 0.0715181 0.0171462 0.00726235 0.00564578 -8.55777e-05 6.61885e-05 -2.09176e-10 6.61039e-10 -4.76751e-10 5e-05 1.46608e-10 
61 1 0.0706592 0.0151824 0.00924003 0.00601681 -0.000277895 8.84766e-05 -3.40527e-10 -2.38774e-10 4.70351e-10 5e-05 1.46608e-10 
62 1 0.0709478 0.015989 0.00820643 0.00569429 5.98261e-05 0.000137323 -1.7816e-10 -6.94095e-11 6.29503e-11 5e-05 1.46608e-10 
63 1 0.0712211 0.0169886 0.00749992 0.00563716 -2.29598e-05 -4.34939e-05 2.18437e-10 4.10374e-10 3.11265e-11 5e-05 1.46608e-10 
64 1 0.0710638 0.0160922 0.00812764 0.00571362 7.05107e-05 0.000130042 4.88458e-10 -2.89944e-10 2.41627e-10 5e-05 1.46608e-10 
67 1 0.071269 0.0172216 0.00731732 0.00570969 -2.05737e-05 1.01883e-05 5.61207e-11 -2.14584e-10 -5.32505e-10 5e-05 1.46608e-10 
68 1 0.065347 0.0176234 0.00717539 0.00642639 0.000238512 -0.000147079 -4.06402e-10 2.45594e-11 -8.3875e-10 5e-05 1.46608e-10 
69 1 0.0709066 0.0158355 0.00832784 0.00568436 7.44069e-05 0.000127022 3.10352e-11 7.90298e-11 -7.21656e-11 5e-05 1.46608e-10 
70 1 0.0712006 0.0166256 0.00769485 0.00527582 7.47093e-05 -7.38271e-05 -9.42071e-10 3.96301e-10 -2.99016e-10 5e-05 1.46608e-10 
71 1 0.065148 0.0168015 0.00763653 0.00542445 0.000103476 -0.000193987 1.68861e-09 -1.98686e-09 1.08365e-09 5e-05 1.46608e-10 
72 1 0.0711814 0.01655 0.00775757 0.00547704 -8.04243e-06 -2.86824e-06 1.18993e-10 -1.09111e-10 8.93101e-11 5e-05 1.46608e-10 
74 1 0.0710289 0.0162961 0.0079634 0.0054336 8.67542e-05 0.000110904 -1.11094e-10 9.25375e-11 -7.29046e-11 5e-05 1.46608e-10 
76 1 0.0712596 0.0172081 0.00721867 0.00568447 1.16532e-05 -2.72528e-05 -1.22001e-10 -5.63561e-10 -1.6639e-11 5e-05 1.46608e-10 
77 1 0.0710485 0.016373 0.00790253 0.00539863 9.68688e-05 9.65461e-05 -5.93894e-11 -1.84395e-11 2.09149e-11 5e-05 1.46608e-10 
78 1 0.0653556 0.0176482 0.0070789 0.00635085 0.000242587 -0.00019273 -6.25914e-11 9.49291e-10 -3.84202e-10 5e-05 1.46608e-10 
80 1 0.0712766 0.0173064 0.00722492 0.00583092 8.65333e-06 -0.000142543 7.94284e-10 5.94798e-10 -5.5441e-10 5e-05 1.46608e-10 
81 1 0.0645426 0.0150717 0.00980273 0.0057796 0.000126763 -1.20804e-05 -6.94575e-11 -5.23631e-11 -1.17648e-10 5e-05 1.46608e-10 
83 1 0.0653227 0.0171505 0.00739068 0.00602716 8.28784e-06 -0.000136282 -2.10241e-10 -3.71141e-10 3.63943e-10 5e-05 1.46608e-10 
84 1 0.0710868 0.0165255 0.00777897 0.0054449 5.63123e-06 -2.66542e-06 2.83464e-10 2.33687e-11 -6.51995e-11 5e-05 1.46608e-10 
85 1 0.0653639 0.0174635 0.00717252 0.00614556 -8.44854e-06 -0.000121471 -4.64275e-11 1.5382e-10 -5.2157e-11 5e-05 1.46608e-10 
86 1 0.0711341 0.0167515 0.00771822 0.00557504 -2.92629e-05 2.60367e-05 -1.11694e-10 -8.21871e-11 2.09853e-10 5e-05 1.46608e-10 
87 1 0.0769216 0.0158283 0.00818952 0.00575035 -0.000218523 0.000280525 -3.40847e-10 2.21177e-11 8.36702e-11 5e-05 1.46608e-10 
89 1 0.0710676 0.0164497 0.0078413 0.00541086 4.91035e-05 3.62766e-05 -6.71496e-12 1.62392e-10 1.29354e-10 5e-05 1.46608e-10 
90 1 0.0769404 0.0158809 0.00810662 0.00582329 -0.000213584 0.000273658 5.26431e-10 5.13086e-10 -7.01877e-10 5e-05 1.46608e-10 
91 1 0.0157927 0.0215765 0.00607411 -7.19381e-15 2.48115e-14 -7.81448e-14 2.34997e-22 8.28732e-23 1.15805e-23 5e-05 1.46608e-10 
92 1 0.0710847 0.0161692 0.00806673 0.00548901 8.32756e-05 0.000111726 2.81147e-11 1.61071e-11 -1.24561e-11 5e-05 1.46608e-10 
93 1 0.0711251 0.0166761 0.00765308 0.00551282 -6.37287e-06 -1.91254e-06 2.30432e-10 3.11002e-10 -2.41467e-10 5e-05 1.46608e-10 
94 1 0.0712774 0.0169277 0.0074441 0.00550185 6.92516e-05 -6.95894e-05 5.53273e-11 5.8119e-10 -5.24638e-10 5e-05 1.46608e-10 
95 1 0.0712009 0.0167973 0.0076596 0.00497727 0.000371388 -0.000315966 -2.45566e-10 1.85714e-10 -4.23234e-11 5e-05 1.46608e-10 
96 1 0.0711043 0.0162461 0.00800587 0.00543964 8.13196e-05 0.000113012 -1.69315e-10 -2.43536e-11 7.47437e-11 5e-05 1.46608e-10 
97 1 0.0653949 0.0170359 0.00746874 0.00602513 8.30299e-05 -0.000177578 5.6214e-10 1.37518e-10 -1.10108e-10 5e-05 1.46608e-10 
98 1 0.0712582 0.0168521 0.00750679 0.00560851 8.38146e-05 -8.18131e-05 -6.51559e-10 -9.37018e-11 7.4709e-11 5e-05 1.46608e-10 
99 1 0.0654774 0.017348 0.00725037 0.00602287 -4.35238e-06 -0.000123284 7.48629e-10 4.54692e-10 -3.32513e-10 5e-05 1.46608e-10 
100 1 0.0710273 0.0163124 0.00806205 0.00542359 7.26809e-05 0.00012071 2.36912e-11 4.94765e-11 3.23224e-11 5e-05 1.46608e-10 
101 1 0.0705778 0.0150857 0.00961951 0.00584774 -0.000220357 -0.000110298 -2.92263e-11 3.73915e-11 -2.00018e-10 5e-05 1.46608e-10 
103 1 0.0218844 0.0168907 0.00824527 -0.0254784 0.0312471 -0.0159729 -6.87662e-10 1.99262e-10 -2.09859e-10 5e-05 1.46608e-10 
105 1 0.0645219 0.0150446 0.00989673 0.00573539 0.000119422 -2.40993e-06 2.57855e-10 2.01914e-10 -6.74759e-10 5e-05 1.46608e-10 
106 1 0.0713388 0.0168065 0.00754453 0.005737 0.000174328 -0.000155875 -7.75456e-10 6.85357e-10 -5.61603e-10 5e-05 1.46608e-10 
107 1 0.065109 0.0166407 0.00774893 0.00544879 5.49418e-05 -0.000149323 9.30906e-11 1.14867e-09 -7.49374e-10 5e-05 1.46608e-10 
108 1 0.0706394 0.0151582 0.00933501 0.00591046 -0.00026247 4.54547e-05 -4.67506e-10 -1.1616e-10 6.72615e-10 5e-05 1.46608e-10 
110 1 0.0712388 0.0171455 0.00737564 0.00565093 -4.01377e-05 -6.97038e-05 1.0965e-10 -5.36353e-11 -2.86898e-10 5e-05 1.46608e-10 
111 1 0.0711635 0.0168271 0.00752771 0.00553951 9.32514e-06 -1.91694e-05 1.70575e-10 3.35523e-10 -1.47236e-10 5e-05 1.46608e-10 
112 1 0.0652271 0.0171227 0.0074119 0.00595208 2.02801e-05 -0.000138587 4.185e-10 4.0028e-10 -1.59113e-10 5e-05 1.46608e-10 
113 1 0.071106 0.0166313 0.00781169 0.00544624 2.06293e-06 6.18597e-07 -1.17983e-11 -1.15855e-10 1.78312e-10 5e-05 1.46608e-10 
115 1 0.0713382 0.0171571 0.00725365 0.00566609 -5.16067e-06 -4.84257e-06 -1.30529e-10 -1.39386e-10 -1.8982e-10 5e-05 1.46608e-10 
116 1 0.0710447 0.0163903 0.00800095 0.0053534 7.7273e-05 9.83464e-05 1.34204e-10 -9.1553e-11 -2.64592e-10 5e-05 1.46608e-10 
117 1 0.0706806 0.0152065 0.00914537 0.00610174 -0.000279844 8.55604e-05 -1.14079e-10 1.23281e-10 -1.06011e-11 5e-05 1.46608e-10 
118 1 0.0645633 0.0150989 0.00970874 0.00581069 0.000107467 6.65855e-05 -1.72775e-10 1.30595e-14 2.0233e-10 5e-05 1.46608e-10 
119 1 0.0710229 0.0159386 0.00824915 0.00569804 6.97832e-05 0.000130347 -1.07267e-10 -2.75249e-11 -5.3011e-12 5e-05 1.46608e-10 
120 1 0.0705982 0.0151099 0.00952464 0.00590201 -0.000233608 -6.35227e-05 -1.40428e-10 -9.16969e-11 2.05896e-10 5e-05 1.46608e-10 
121 1 0.0649237 0.0155424 0.00851548 0.0058686 3.90176e-05 -0.000220371 5.40507e-12 8.03899e-10 8.98888e-11 5e-05 1.46608e-10 
122 1 0.0711827 0.0169026 0.00746503 0.00557272 1.20063e-05 -3.05649e-05 -3.80351e-10 -1.66089e-10 7.36062e-11 5e-05 1.46608e-10 
123 1 0.0649842 0.015783 0.00834685 0.0057192 0.000105334 -0.000196099 -9.15031e-10 6.94023e-10 -3.76935e-10 5e-05 1.46608e-10 
124 1 0.0712957 0.0174046 0.007224 0.00607534 -3.30922e-05 -4.31923e-06 1.03659e-09 1.41797e-09 2.97396e-11 5e-05 1.46608e-10 
125 1 0.0709201 0.0155549 0.00855276 0.00561576 5.08817e-05 0.00014012 -5.01738e-12 9.76014e-11 -1.17042e-10 5e-05 1.46608e-10 
127 1 0.0653306 0.0175413 0.00711922 0.00621647 -2.05256e-07 -0.000131421 -1.54736e-10 -3.46024e-10 1.15575e-10 5e-05 1.46608e-10 
128 1 0.0711443 0.0167516 0.0075904 0.00552909 -3.65902e-06 -1.1153e-05 -7.18006e-11 3.91193e-10 -2.4281e-10 5e-05 1.46608e-10 
129 1 0.0646046 0.0151532 0.00952075 0.00585622 8.88243e-05 0.000112004 6.4224e-11 1.88409e-11 -3.79589e-11 5e-05 1.46608e-10 
130 1 0.0646926 0.0152327 0.00924829 0.00607977 0.000161872 -7.7705e-05 -8.85271e-10 1.06878e-10 -6.77626e-10 5e-05 1.46608e-10 
131 1 0.0646303 0.0151805 0.00942808 0.00585408 0.00012107 2.85619e-05 9.02074e-11 -1.17121e-10 3.45348e-11 5e-05 1.46608e-10 
133 1 0.0712403 0.0170642 0.00743723 0.00565348 -3.97189e-05 -6.94241e-05 -8.66923e-12 6.29179e-11 -1.18307e-10 5e-05 1.46608e-10 
135 1 0.0705575 0.0150615 0.00971439 0.00581661 -0.000212597 -0.000137564 8.35121e-11 9.3038e-11 -3.89242e-10 5e-05 1.46608e-10 
136 1 0.0645839 0.015126 0.00961475 0.00586282 9.20529e-05 0.000113467 1.67575e-10 1.72494e-10 -9.1989e-11 5e-05 1.46608e-10 
137 1 0.0712019 0.0169782 0.00740235 0.00560877 2.72123e-05 -4.72473e-05 -4.37566e-10 2.41974e-10 -1.8319e-10 5e-05 1.46608e-10 
138 1 0.0712966 0.0170032 0.00738141 0.00560518 1.16402e-05 -2.29915e-05 -4.93833e-10 1.5958e-10 -2.02369e-10 5e-05 1.46608e-10 
140 1 0.0713615 0.0172536 0.0072203 0.00572394 -0.000116888 1.76191e-05 7.0228e-10 -2.5267e-10 -3.55503e-10 5e-05 1.46608e-10 
141 1 0.0646459 0.0152074 0.00933302 0.00601303 0.000145452 -3.07867e-05 -3.449e-10 -2.46541e-12 -4.07768e-10 5e-05 1.46608e-10 
142 1 0.0649192 0.0159413 0.00835425 0.00749187 0.00782195 -0.00779874 0 0 -1.43822e-09 5e-05 1.46608e-10 
143 1 0.0647279 0.0153227 0.00896537 0.00614347 0.000154943 -1.8183e-05 -4.44695e-10 -8.87058e-10 1.24497e-09 5e-05 1.46608e-10 
144 1 0.0680389 0.0165583 0.00773446 0.00565156 -0.0002167 -7.92668e-06 2.82992e-11 2.68894e-11 -1.86132e-11 5e-05 1.46608e-10 
145 1 0.0218183 0.0168152 0.00828849 0.00270996 0.00244653 0.00106104 -5.71394e-11 -1.32878e-10 2.49405e-11 5e-05 1.46608e-10 
146 1 0.0654768 0.0172659 0.0073074 0.00590585 -7.24857e-06 -0.00011751 9.6385e-10 -7.44914e-10 4.63869e-10 5e-05 1.46608e-10 
147 1 0.0647021 0.0152599 0.00915253 0.00607548 0.000166618 -0.000109729 8.06596e-10 1.2826e-10 -5.46917e-10 5e-05 1.46608e-10 
148 1 0.0647701 0.0153694 0.00877588 0.00584831 7.87479e-05 0.000111322 6.94179e-11 -2.72043e-10 1.8376e-09 5e-05 1.46608e-10 
150 1 0.0652207 0.0163704 0.0079343 0.00531731 0.000264747 -0.000292782 9.63766e-10 -1.2098e-09 7.20163e-10 5e-05 1.46608e-10 
153 1 0.0649635 0.0157029 0.00840293 0.00571573 0.000118614 -0.000204041 -1.72549e-09 8.09103e-10 -2.95003e-10 5e-05 1.46608e-10 
154 1 0.0648058 0.0154367 0.0085909 0.00576916 0.000140034 -0.00021606 1.58488e-11 5.58893e-11 -3.89079e-11 5e-05 1.46608e-10 
156 1 0.0647068 0.0152873 0.00905648 0.00617654 0.000165887 -8.3286e-05 2.73344e-10 -1.55341e-10 2.01715e-10 5e-05 1.46608e-10 
158 1 0.064883 0.015406 0.00865201 0.00550105 0.00014013 -9.51979e-05 1.44951e-09 4.99744e-10 3.393e-10 5e-05 1.46608e-10 
159 1 0.0650664 0.0161038 0.0081225 0.00573503 7.80846e-05 -0.000176782 -6.64542e-10 -1.26646e-10 4.12553e-11 5e-05 1.46608e-10 
160 1 0.0647517 0.0153412 0.00887004 0.00605072 0.000111635 5.888e-05 -1.60927e-11 -7.82947e-10 2.0692e-09 5e-05 1.46608e-10 
162 1 0.0647878 0.0153957 0.00868105 0.00560582 6.33739e-05 0.000133131 2.62166e-10 -1.5237e-10 1.10396e-09 5e-05 1.46608e-10 
163 1 0.0653762 0.0173554 0.00736842 0.00617301 6.694e-05 -0.000162457 -2.11439e-10 9.20714e-11 4.2969e-11 5e-05 1.46608e-10 
164 1 0.0712211 0.0170537 0.00733966 0.00565761 3.41007e-05 -4.8733e-05 -3.60194e-10 -7.23812e-11 -2.17804e-11 5e-05 1.46608e-10 
166 1 0.0713181 0.0167292 0.00760863 0.00519151 0.00422558 -0.00351577 -5.30231e-10 2.73638e-10 -2.26e-10 5e-05 1.46608e-10 
167 1 0.0653007 0.0166939 0.00770807 0.00545108 0.00013074 -0.000201087 7.39611e-10 -2.90666e-10 1.66782e-10 5e-05 1.46608e-10 
170 1 0.0648469 0.0155972 0.00847871 0.00575774 9.6585e-05 -0.000185658 1.32269e-11 4.55417e-11 -3.21998e-11 5e-05 1.46608e-10 
171 1 0.071106 0.0166011 0.00771637 0.00549683 2.22429e-06 8.56922e-07 2.24137e-10 9.98921e-11 -1.85063e-10 5e-05 1.46608e-10 
173 1 0.0710433 0.0160154 0.00818841 0.00569886 6.97576e-05 0.000129885 -8.29224e-11 -2.01485e-10 1.68874e-10 5e-05 1.46608e-10 
174 1 0.0650867 0.016184 0.00806638 0.00582467 8.37742e-05 -0.0001786 -1.4783e-10 -2.67864e-10 1.46718e-10 5e-05 1.46608e-10 
175 1 0.0653019 0.0174335 0.00724504 0.00604722 -7.23736e-05 -8.79992e-05 -5.33619e-11 -2.0937e-10 -1.07988e-10 5e-05 1.46608e-10 
176 1 0.0650754 0.0165188 0.00796902 0.0027329 -0.00273157 -0.00463279 -2.02886e-11 -9.29048e-10 1.30922e-09 5e-05 1.46608e-10 
179 1 0.0653226 0.0167765 0.00765026 0.00552899 1.51691e-05 -0.000123446 3.27851e-10 -1.50045e-10 9.69677e-11 5e-05 1.46608e-10 
182 1 0.0713591 0.0168832 0.00748081 0.00566881 0.000214493 -0.000188986 -7.74948e-10 6.80027e-10 -5.57556e-10 5e-05 1.46608e-10 
183 1 0.0651079 0.0166585 0.00784736 0.00553522 0.000171848 -7.49653e-05 1.03591e-09 1.39874e-09 2.96897e-10 5e-05 1.46608e-10 
185 1 0.0654555 0.0176721 0.00702584 0.00624355 2.8518e-05 -0.000145832 1.92522e-10 -8.38417e-11 8.57102e-11 5e-05 1.46608e-10 
186 1 0.226587 0.0186791 0.00533789 -1.565e-16 2.48916e-14 -2.37494e-13 -3.48955e-22 -2.1972e-24 -2.06795e-25 5e-05 1.46608e-10 
187 1 0.0709682 0.0160658 0.00814569 0.00569713 5.00995e-05 0.000145859 -5.35934e-11 -2.38549e-10 1.63207e-10 5e-05 1.46608e-10 
189 1 0.0711239 0.016323 0.00794501 0.005417 6.87228e-05 0.000110026 -3.65219e-11 -9.89699e-11 2.81579e-11 5e-05 1.46608e-10 
190 1 0.0589845 0.0162348 0.00823163 0.00639246 8.62841e-05 1.43339e-05 1.66183e-10 -7.88157e-11 9.58964e-11 5e-05 1.46608e-10 
191 1 0.0654141 0.0171163 0.00741251 0.00601996 -6.11055e-05 -7.5264e-05 -4.39346e-10 3.80506e-10 -3.54385e-10 5e-05 1.46608e-10 
192 1 0.0653296 0.017233 0.00733322 0.00600704 2.78467e-05 -0.000138964 1.18149e-11 -2.6185e-10 -1.03863e-11 5e-05 1.46608e-10 
193 1 0.071239 0.0167766 0.00756948 0.00550357 -9.04813e-06 -7.26772e-06 -4.51855e-10 3.8873e-10 -4.45031e-10 5e-05 1.46608e-10 
194 1 0.0653756 0.0169555 0.00752496 0.00604923 6.08569e-05 -0.000166125 3.86212e-10 -2.07533e-10 1.6288e-10 5e-05 1.46608e-10 
195 1 0.0653866 0.0173833 0.00722777 0.00605984 2.6652e-05 -0.0001489 -8.97701e-11 -1.06341e-10 -3.76619e-12 5e-05 1.46608e-10 
196 1 0.065126 0.0163447 0.00795403 0.00530946 0.000188186 -0.000239058 7.76422e-11 -6.12099e-10 4.12805e-10 5e-05 1.46608e-10 
197 1 0.0648881 0.0157576 0.00836653 0.00578491 0.000159859 -0.000240921 -1.31209e-09 -2.19775e-09 9.68835e-10 5e-05 1.46608e-10 
198 1 0.0652943 0.0174058 0.00734081 0.00613993 3.16047e-07 -7.38695e-05 2.81829e-11 4.21905e-10 7.0384e-11 5e-05 1.46608e-10 
199 1 0.0652704 0.0173099 0.00735747 0.00601449 5.72614e-06 -0.000103746 1.34669e-10 -2.38775e-10 -3.93102e-10 5e-05 1.46608e-10 
200 1 0.0648264 0.015517 0.0085348 0.00574838 5.96879e-05 -0.000159849 1.62419e-11 5.65022e-11 -3.92597e-11 5e-05 1.46608e-10 
201 1 0.0652792 0.0166116 0.00776562 0.0055217 0.000128902 -0.000206803 1.36992e-09 -9.46788e-10 4.12887e-10 5e-05 1.46608e-10 
202 1 0.0653762 0.0177329 0.00702983 0.00631188 8.99386e-05 -0.000261987 -4.31427e-11 -2.06518e-10 3.68235e-11 5e-05 1.46608e-10 
203 1 0.071316 0.0170787 0.00731875 0.00565188 4.0544e-06 -1.39707e-05 -5.94135e-10 1.36573e-10 -2.30706e-10 5e-05 1.46608e-10 
204 1 0.0654206 0.0171982 0.00735551 0.00604447 8.33915e-05 -0.000195494 -4.60754e-10 -1.32011e-10 9.89579e-11 5e-05 1.46608e-10 
205 1 0.0589604 0.0161645 0.00830201 0.00721634 -0.000310852 0.000429729 6.7459e-12 1.00526e-11 -1.00447e-11 5e-05 1.46608e-10 
206 1 0.0653802 0.0172673 0.00741551 0.00609154 8.48136e-05 -0.000207695 1.08291e-10 -4.31693e-10 1.06277e-09 5e-05 1.46608e-10 
207 1 0.0655138 0.0171096 0.00741508 0.00599429 3.99707e-05 -0.000150924 -1.7118e-09 5.15932e-10 -4.06907e-10 5e-05 1.46608e-10 
208 1 0.065206 0.0170535 0.00757001 0.00597298 0.000105564 -0.000118891 4.93505e-10 7.0619e-10 -3.7312e-11 5e-05 1.46608e-10 
210 1 0.0708986 0.0154772 0.00861419 0.00586524 0.000148668 7.25927e-05 -8.2863e-11 -1.43929e-11 1.0518e-10 5e-05 1.46608e-10 
211 1 0.0650112 0.0162388 0.00802995 0.00553922 0.000138478 -0.000210459 -2.65699e-11 -1.76549e-11 2.14126e-11 5e-05 1.46608e-10 
212 1 0.0649087 0.0158377 0.00831043 0.00572441 -7.17862e-05 -5.49293e-05 7.41113e-10 2.41889e-09 -1.56444e-09 5e-05 1.46608e-10 
213 1 0.0712198 0.0167011 0.00763216 0.00540688 2.43273e-05 -2.831e-05 -6.99177e-10 4.5537e-10 -3.99076e-10 5e-05 1.46608e-10 
214 1 0.065031 0.0163191 0.00797379 0.00539797 0.000164523 -0.000225025 3.61962e-11 -4.63179e-11 2.80665e-11 5e-05 1.46608e-10 
215 1 0.0159913 0.0152807 0.00678236 -2.39451e-14 -9.32252e-14 -1.94033e-13 2.44535e-23 0 2.27475e-24 5e-05 1.46608e-10 
216 1 0.0651883 0.0169711 0.00762377 0.00589771 0.000138075 -0.000158859 -7.54609e-10 1.83426e-11 -4.98088e-10 5e-05 1.46608e-10 
217 1 0.0651064 0.0162644 0.00801021 0.00556137 0.000141754 -0.00021388 -7.24185e-10 -3.39489e-10 2.64577e-10 5e-05 1.46608e-10 
218 1 0.0654041 0.017548 0.00720778 0.00624615 -6.07015e-05 -0.000273607 -3.6517e-10 3.54783e-10 -2.47147e-10 5e-05 1.46608e-10 
220 1 0.00853534 0.016968 0.00819676 0.000257509 -0.00921786 0.00740196 4.35867e-11 -2.48098e-10 1.197e-10 5e-05 1.46608e-10 
221 1 0.0590302 0.0163724 0.00809384 0.00630013 0.000152727 -5.41092e-05 -4.31273e-10 9.51604e-11 -4.84716e-11 5e-05 1.46608e-10 
222 1 0.0649293 0.0159179 0.00825435 0.00572312 -5.02644e-05 -8.22403e-05 1.79235e-10 3.44063e-10 -3.20542e-10 5e-05 1.46608e-10 
223 1 0.0254028 0.0195569 0.00545165 -1.3452e-14 -2.17559e-15 2.19343e-13 7.06464e-23 -3.04171e-22 1.03398e-24 5e-05 1.46608e-10 
225 1 0.0653709 0.0171848 0.00747127 0.00604057 7.21098e-05 -0.000183933 2.83325e-10 -6.51368e-10 4.80046e-10 5e-05 1.46608e-10 
226 1 0.0651462 0.0168111 0.00773606 0.005557 0.000163775 -0.000238465 1.22957e-10 1.90281e-11 2.5676e-11 5e-05 1.46608e-10 
227 1 0.064991 0.0161585 0.00808614 0.00576261 9.39299e-05 -0.000210198 -2.55533e-10 -2.82577e-11 -1.50753e-10 5e-05 1.46608e-10 
228 1 0.0680587 0.0166383 0.00767778 0.00551852 -0.0001815 -2.89666e-05 -1.31308e-11 -7.50074e-13 -1.72509e-12 5e-05 1.46608e-10 
229 1 0.0651676 0.0168818 0.00758034 0.00588999 0.000208651 -0.000252601 -7.83654e-10 -9.62417e-10 2.11934e-10 5e-05 1.46608e-10 
230 1 0.0651648 0.0165055 0.00784161 0.00539531 0.000154519 -0.000198959 5.25013e-10 4.61737e-11 -1.71469e-10 5e-05 1.46608e-10 
231 1 0.0652639 0.017292 0.00745564 0.00589697 3.01843e-05 -0.000107612 2.3586e-10 -3.91176e-10 1.25746e-10 5e-05 1.46608e-10 
232 1 0.0651454 0.0164251 0.00789782 0.00528009 0.000184699 -0.000234016 3.26634e-11 -4.76558e-10 4.21024e-10 5e-05 1.46608e-10 
233 1 0.0655205 0.0171915 0.00735809 0.00595512 3.80734e-06 -0.000123699 1.08725e-09 -8.10337e-10 5.29045e-10 5e-05 1.46608e-10 
234 1 0.0713945 0.017031 0.00735815 0.00568947 4.61351e-05 -4.66409e-05 -6.65214e-10 6.25099e-10 -5.12332e-10 5e-05 1.46608e-10 
235 1 0.0652038 0.0166663 0.00772922 0.00539976 0.000130382 -0.000212297 9.5172e-10 -1.13744e-09 3.60737e-10 5e-05 1.46608e-10 
238 1 0.0649704 0.0160783 0.00814217 0.00573722 5.20037e-05 -0.000150625 8.77359e-11 -8.58989e-11 4.18359e-11 5e-05 1.46608e-10 
239 1 0.0590076 0.0163035 0.00816279 0.0064429 9.64673e-05 5.30141e-06 6.86643e-11 3.32091e-12 -7.96323e-12 5e-05 1.46608e-10 
240 1 0.05907 0.0165108 0.00795513 0.00552883 0.000240537 -0.000149657 -5.84097e-10 1.68268e-10 -1.84507e-10 5e-05 1.46608e-10 
241 1 0.0591246 0.016719 0.00774626 0.00566337 0.000209533 -0.0001275 6.93645e-11 2.23352e-10 -3.38981e-10 5e-05 1.46608e-10 
243 1 0.0591428 0.0167885 0.00767664 0.00573436 0.000176774 -8.5528e-05 -1.38095e-11 1.68914e-10 -1.56162e-10 5e-05 1.46608e-10 
244 1 0.0590527 0.0164412 0.00802488 0.00634748 0.000138839 -3.68392e-05 -2.09813e-10 -1.10315e-10 -8.14971e-11 5e-05 1.46608e-10 
246 1 0.0591064 0.0166496 0.00781588 0.00564075 0.000255923 -0.000161206 6.12309e-10 3.01761e-10 2.56086e-11 5e-05 1.46608e-10 
247 1 0.0650047 0.0158632 0.00829076 0.00580127 7.80479e-05 -0.000181818 8.90622e-10 6.61136e-10 -2.75429e-10 5e-05 1.46608e-10 
248 1 0.0652596 0.0165312 0.00782183 0.0055264 0.00013774 -0.000205199 6.62959e-10 6.29262e-11 -4.94473e-11 5e-05 1.46608e-10 
250 1 0.065243 0.016827 0.00761685 0.00561459 0.000118608 -0.000196543 3.27303e-10 2.89759e-10 -1.33676e-10 5e-05 1.46608e-10 
251 1 0.065166 0.0168914 0.00767987 0.00567658 0.000149977 -0.00023727 -7.61559e-11 -1.18345e-10 -4.19268e-10 5e-05 1.46608e-10 
252 1 0.018896 0.013113 0.0137667 4.85881e-21 -2.91472e-21 1.37807e-22 0 0 0 5e-05 1.46608e-10 
255 1 0.0649432 0.0156226 0.00845905 0.00580305 8.17478e-05 -0.000206628 -1.09892e-09 7.64127e-10 -2.70184e-12 5e-05 1.46608e-10 
257 1 0.0651843 0.0165859 0.00778541 0.00545072 0.000109955 -0.000181882 2.11532e-11 4.03657e-12 -9.32711e-11 5e-05 1.46608e-10 
258 1 0.0651527 0.0167271 0.00778998 0.00552896 0.000164407 -0.000195278 -3.6923e-11 3.90164e-10 -7.14527e-10 5e-05 1.46608e-10 
259 1 0.062169 0.0170961 0.00736851 0.00544877 -0.000627428 0.000604601 -2.44865e-13 6.27003e-13 -4.32646e-13 5e-05 1.46608e-10 
260 1 0.0709886 0.0161425 0.00808495 0.0056931 3.16934e-05 0.000159987 1.80809e-10 -2.31212e-10 2.13949e-10 5e-05 1.46608e-10 
261 1 0.0652714 0.0171808 0.00748031 0.00599389 -2.82604e-05 -0.000184642 1.10032e-11 3.49766e-11 -3.26906e-10 5e-05 1.46608e-10 
262 1 0.065263 0.0169073 0.0075607 0.00585306 6.14306e-06 -0.000124806 3.26466e-10 1.56406e-10 -1.73805e-10 5e-05 1.46608e-10 
263 1 0.0591976 0.0169967 0.00746779 0.00557406 0.00017472 -8.4783e-05 1.59726e-12 7.17269e-12 4.0429e-13 5e-05 1.46608e-10 
264 1 0.0650895 0.0165603 0.00780515 0.00547789 0.000195402 -0.000248484 -1.252e-11 -5.53854e-11 3.86942e-11 5e-05 1.46608e-10 
266 1 0.0648675 0.0156774 0.00842261 0.00576731 0.000134283 -0.000212043 9.48113e-12 3.42192e-11 -2.4523e-11 5e-05 1.46608e-10 
267 1 0.0654379 0.0175914 0.00708221 0.00636096 0.000113286 -0.00018441 -3.63655e-10 3.56176e-10 -1.99673e-10 5e-05 1.46608e-10 
268 1 0.0652488 0.0172179 0.00739022 0.00599218 3.57007e-05 -0.000159502 6.21539e-11 2.02115e-10 -1.37794e-10 5e-05 1.46608e-10 
269 1 0.0653845 0.0173012 0.00728481 0.00600148 3.25935e-05 -0.000145688 2.21034e-10 1.70068e-10 1.95456e-10 5e-05 1.46608e-10 
270 1 0.0652079 0.017044 0.00747049 0.00596098 1.92118e-05 -0.000104374 5.40302e-10 5.609e-10 8.71114e-12 5e-05 1.46608e-10 
271 1 0.0652401 0.0164508 0.00787809 0.0052847 0.000147947 -0.00025107 -2.79727e-10 -8.07626e-10 3.71747e-10 5e-05 1.46608e-10 
273 1 0.0651285 0.0167211 0.00769273 0.00541576 5.04488e-05 -0.000146528 -5.65629e-10 -8.33442e-10 6.18882e-10 5e-05 1.46608e-10 
275 1 0.0652831 0.0169876 0.00750457 0.0059713 -3.2753e-05 -9.53718e-05 3.60301e-10 3.34209e-11 -9.04251e-11 5e-05 1.46608e-10 
277 1 0.06507 0.0164799 0.00786137 0.00543573 8.24878e-05 -0.000169242 -7.51511e-12 -3.37572e-11 2.35456e-11 5e-05 1.46608e-10 
278 1 0.0650458 0.0160236 0.00817859 0.00567539 7.8512e-05 -0.000168075 -1.16183e-09 4.28292e-10 -3.43416e-10 5e-05 1.46608e-10 
279 1 0.0592354 0.0171354 0.00732873 0.00563406 0.000161671 -7.18587e-05 7.79749e-12 1.45812e-11 -1.23358e-11 5e-05 1.46608e-10 
280 1 0.0591793 0.0169273 0.00753739 0.00587637 0.000138298 -4.53325e-05 7.03001e-12 1.99359e-11 -2.83093e-11 5e-05 1.46608e-10 
281 1 0.0654646 0.017512 0.00713678 0.00633644 5.23933e-05 -0.000180822 -3.30439e-10 3.43808e-10 -2.07966e-10 5e-05 1.46608e-10 
282 1 0.0592543 0.0172048 0.0072592 0.00566591 0.000157056 -6.74418e-05 3.03181e-12 9.98745e-12 -9.45671e-12 5e-05 1.46608e-10 
283 1 0.0591611 0.0168579 0.00760701 0.00580761 0.000153894 -6.17835e-05 -3.42803e-11 5.07629e-11 -6.33206e-11 5e-05 1.46608e-10 
284 1 0.0651874 0.0169622 0.00752418 0.00585983 5.83961e-05 -0.000152002 1.37384e-10 6.44978e-10 -1.40151e-10 5e-05 1.46608e-10 
286 1 0.0650504 0.0163995 0.00791758 0.0054573 0.000231271 -0.000273006 -2.6461e-11 -3.00216e-11 2.24505e-11 5e-05 1.46608e-10 
289 1 0.0592732 0.0172741 0.00718968 0.00570151 0.000155008 -6.39428e-05 4.3068e-12 6.08704e-12 -5.76566e-12 5e-05 1.46608e-10 
290 1 0.0650252 0.0159434 0.00823467 0.00578025 5.9331e-05 -0.000168885 7.83895e-10 4.73709e-10 -4.4512e-10 5e-05 1.46608e-10 
291 1 0.0652802 0.0173374 0.00726182 0.00607641 -3.91658e-05 -9.47222e-05 1.06054e-10 5.07024e-10 -2.03141e-10 5e-05 1.46608e-10 
292 1 0.0649049 0.0154624 0.00857241 0.00556012 9.92468e-05 -0.000165082 4.48805e-10 7.61399e-10 -4.25395e-10 5e-05 1.46608e-10 
293 1 0.0651212 0.0165743 0.00789963 0.00564492 0.000172159 -9.61716e-05 -6.77839e-10 -9.01322e-10 -1.21023e-09 5e-05 1.46608e-10 
294 1 0.0653025 0.017068 0.00744835 0.00599426 4.65403e-05 -0.000162592 6.50035e-11 1.06458e-10 -1.90013e-10 5e-05 1.46608e-10 
295 1 0.065344 0.0168583 0.00759306 0.00580359 -0.000104457 -4.76043e-05 -1.44688e-11 -1.55281e-10 1.17923e-10 5e-05 1.46608e-10 
296 1 0.0652233 0.0167467 0.00767302 0.00541075 0.000144509 -0.000209721 7.0433e-10 -1.41369e-09 5.42627e-10 5e-05 1.46608e-10 
297 1 0.0654947 0.0170292 0.00747131 0.00606572 0.000181421 -0.000249939 1.34478e-09 -2.49483e-09 1.75945e-09 5e-05 1.46608e-10 
298 1 0.0592165 0.0170661 0.00739826 0.00560311 0.00016739 -7.89893e-05 -2.16152e-12 8.5496e-12 -1.95456e-11 5e-05 1.46608e-10 