ITEM: TIMESTEP
7600000
ITEM: NUMBER OF ATOMS
287
ITEM: BOX BOUNDS ff ff ff
-0.02 0.43
-0.02 0.06
-0.02 0.07
ITEM: ATOMS id type x y z vx vy vz fx fy fz radius mass 
1 1 0.0571437 0.0164614 0.00799649 0.00580279 -0.000299228 -0.000344625 -2.8267e-10 -1.43632e-10 4.51277e-10 5e-05 1.46608e-10 
2 1 0.0575483 0.017204 0.00723243 0.00596574 0.000148522 -4.9106e-05 3.85841e-10 1.49607e-10 -1.15943e-10 5e-05 1.46608e-10 
3 1 0.0509673 0.0160874 0.00812837 0.00591174 -0.0003605 -0.000573175 7.57085e-10 7.39712e-10 -8.92377e-10 5e-05 1.46608e-10 
4 1 0.0574719 0.0177094 0.00720082 0.00572095 0.000102894 -6.94562e-05 -5.20447e-10 -6.95971e-10 -8.63509e-11 5e-05 1.46608e-10 
5 1 0.0570304 0.0163914 0.00810759 0.00568408 -0.000317256 -0.000326987 4.77961e-10 -9.96165e-11 5.97173e-10 5e-05 1.46608e-10 
6 1 0.0631538 0.0167781 0.00762911 0.00613994 0.0002827 -5.11504e-05 -1.93552e-11 -1.14571e-10 7.05114e-11 5e-05 1.46608e-10 
7 1 0.0572123 0.0169794 0.00745317 0.00612283 5.06286e-07 9.93619e-05 2.73022e-11 -3.642e-11 2.80756e-11 5e-05 1.46608e-10 
8 1 0.0569293 0.0160652 0.00847195 0.00546461 -0.000306408 -0.000293845 -5.41641e-11 1.42989e-10 -1.37813e-10 5e-05 1.46608e-10 
9 1 0.0634188 0.017879 0.00710365 0.00585042 0.000338183 -0.000199916 3.19214e-11 5.24827e-11 8.9395e-12 5e-05 1.46608e-10 
10 1 0.0571504 0.0167737 0.00766255 0.00606296 -2.2042e-05 7.68953e-06 7.15431e-11 -3.444e-11 -1.48345e-10 5e-05 1.46608e-10 
11 1 0.057593 0.017397 0.00720566 0.00578845 0.00023256 -7.14074e-05 -6.33973e-10 7.9643e-10 6.3389e-11 5e-05 1.46608e-10 
12 1 0.0511759 0.0168264 0.00752152 0.00609626 -0.00014607 0.000556253 -1.58504e-12 3.29021e-10 -5.63326e-11 5e-05 1.46608e-10 
13 1 0.0570084 0.0163196 0.00817358 0.00567649 -0.000325987 -0.000306023 9.01045e-11 6.52556e-11 1.84417e-10 5e-05 1.46608e-10 
14 1 0.0508853 0.0158254 0.00841926 0.00571662 -0.000502367 -0.000391449 2.99929e-11 -1.08276e-11 1.03241e-11 5e-05 1.46608e-10 
15 1 0.0573486 0.0171421 0.00729503 0.00619156 9.84124e-06 0.000103345 -2.01031e-10 -1.37014e-10 -5.91021e-11 5e-05 1.46608e-10 
16 1 0.0508648 0.0157599 0.00849198 0.00562711 -0.000519598 -0.000357141 -3.40475e-10 -1.93128e-10 3.11579e-10 5e-05 1.46608e-10 
17 1 0.0571297 0.0167046 0.00773183 0.00601562 -0.000138595 -0.000126632 2.34816e-11 4.80885e-11 -7.65602e-11 5e-05 1.46608e-10 
18 1 0.0633019 0.0173299 0.0072247 0.00596828 0.00033249 -9.28165e-05 -1.42354e-11 2.47365e-11 -8.88826e-12 5e-05 1.46608e-10 
19 1 0.0569883 0.0162561 0.00824814 0.0056183 -0.000327872 -0.000287623 -2.07926e-10 2.34212e-11 1.0586e-11 5e-05 1.46608e-10 
21 1 0.0571252 0.0164053 0.00807714 0.00576024 -0.000279775 -0.000350713 3.11662e-11 -5.47697e-10 6.37434e-10 5e-05 1.46608e-10 
22 1 0.0572537 0.0171176 0.00731467 0.00623061 -3.84574e-05 0.000139553 -6.40702e-11 -2.51879e-11 3.30565e-11 5e-05 1.46608e-10 
23 1 0.0513583 0.0172225 0.00737917 0.00600481 -0.000156475 0.000557635 1.83967e-10 -1.80206e-10 6.99554e-11 5e-05 1.46608e-10 
24 1 0.0633573 0.0175856 0.00709594 0.00587348 0.000323815 -0.000226688 1.57989e-11 -1.05388e-11 1.32655e-10 5e-05 1.46608e-10 
25 1 0.0571915 0.0169103 0.00752241 0.00612178 1.30296e-05 8.64968e-05 -6.90635e-11 5.92751e-12 5.73288e-11 5e-05 1.46608e-10 
26 1 0.0632395 0.0170933 0.00739817 0.00623037 0.000285005 -5.46123e-05 1.04199e-10 -1.68409e-10 1.28204e-10 5e-05 1.46608e-10 
27 1 0.0512619 0.0171905 0.00738401 0.00603532 -0.000158103 0.000556537 -1.26016e-10 -3.88097e-10 1.63873e-10 5e-05 1.46608e-10 
28 1 0.0574521 0.0176114 0.00720373 0.00568896 9.77859e-05 -0.000106815 9.30594e-11 -3.68844e-11 -2.6291e-10 5e-05 1.46608e-10 
29 1 0.0569681 0.0161925 0.00832269 0.00556974 -0.000326509 -0.000283485 1.66652e-10 -3.4775e-11 4.86586e-11 5e-05 1.46608e-10 
30 1 0.057486 0.0173489 0.00720778 0.00582254 4.64327e-05 -6.26314e-05 -2.69579e-10 9.07941e-10 1.94368e-10 5e-05 1.46608e-10 
31 1 0.057233 0.0170485 0.00738392 0.00617546 -2.30379e-05 0.00012202 8.30504e-11 -4.62822e-11 3.56471e-11 5e-05 1.46608e-10 
32 1 0.0573282 0.0170712 0.00736255 0.0062799 -2.28519e-07 0.000102677 -1.41525e-10 -4.02533e-11 -2.35287e-12 5e-05 1.46608e-10 
33 1 0.0631752 0.0168569 0.00757138 0.00616544 0.000286566 -5.19422e-05 -9.59294e-11 -3.82595e-11 7.16697e-12 5e-05 1.46608e-10 
34 1 0.0571091 0.016638 0.00780348 0.00593879 -0.000272418 -0.000271697 1.31853e-10 1.94931e-10 -2.28531e-11 5e-05 1.46608e-10 
35 1 0.0573075 0.0170032 0.00743302 0.0061883 -2.47394e-05 0.000111025 9.74519e-11 -3.27837e-11 4.36226e-11 5e-05 1.46608e-10 
36 1 0.0634593 0.0180747 0.00711236 0.00580268 0.000355998 -0.000197167 -9.16792e-12 -1.60942e-11 2.01824e-12 5e-05 1.46608e-10 
37 1 0.0572659 0.0168638 0.00757041 0.00609475 -1.63781e-06 0.000100037 2.73948e-10 5.00571e-11 -4.84181e-11 5e-05 1.46608e-10 
38 1 0.0574262 0.0170966 0.00733863 0.00624678 6.83844e-05 3.62841e-05 -3.26855e-10 -1.05746e-10 1.02457e-10 5e-05 1.46608e-10 
39 1 0.0633795 0.0176831 0.00709488 0.00585727 0.000329572 -0.000207641 4.21591e-11 1.45496e-11 -4.95224e-11 5e-05 1.46608e-10 
41 1 0.0570686 0.0165092 0.00795101 0.0058167 -0.000341643 -0.000350224 -7.64958e-12 3.97162e-11 1.56233e-11 5e-05 1.46608e-10 
42 1 0.0572705 0.0171872 0.00724486 0.00571862 4.42511e-05 5.80882e-05 -3.7391e-10 8.97665e-11 -2.2155e-10 5e-05 1.46608e-10 
44 1 0.0574463 0.017166 0.00726905 0.00611828 0.000108518 -4.76609e-06 -1.62231e-10 9.74635e-11 4.94219e-11 5e-05 1.46608e-10 
45 1 0.0631967 0.0169357 0.00751364 0.00620278 0.000288772 -5.20814e-05 -1.01522e-10 9.0052e-11 -3.65958e-11 5e-05 1.46608e-10 
46 1 0.0632823 0.0172509 0.00728269 0.00628491 0.0002888 -5.17563e-05 7.51759e-11 5.59321e-11 -1.19481e-11 5e-05 1.46608e-10 
47 1 0.057089 0.0165731 0.00787683 0.00586814 -0.000357598 -0.000356729 6.6624e-11 2.04392e-10 -4.59157e-12 5e-05 1.46608e-10 
48 1 0.0573113 0.0173786 0.00720911 0.00568113 -0.00017696 -5.88984e-05 9.40254e-11 4.93075e-11 3.17877e-11 5e-05 1.46608e-10 
49 1 0.0632613 0.017172 0.0073405 0.00627927 0.000286936 -5.23941e-05 -2.00024e-13 -8.97754e-11 5.97722e-11 5e-05 1.46608e-10 
50 1 0.0573729 0.0176725 0.00720264 0.00565987 -0.000109225 -6.03482e-05 6.10616e-11 1.84757e-10 -6.88938e-12 5e-05 1.46608e-10 
51 1 0.0573524 0.0175746 0.00720479 0.00566569 -8.79696e-05 -5.76919e-05 2.37268e-11 -1.74672e-10 -1.70588e-11 5e-05 1.46608e-10 
52 1 0.0511544 0.016735 0.00755601 0.00611541 -0.00013108 0.000555456 -1.67111e-10 3.108e-10 -2.84594e-10 5e-05 1.46608e-10 
53 1 0.0633237 0.0174087 0.00716702 0.00592747 0.000336954 -9.842e-05 9.33998e-11 -6.31963e-11 6.16613e-11 5e-05 1.46608e-10 
54 1 0.0571039 0.0163349 0.00814495 0.0057103 -0.000279075 -0.000342598 7.7532e-10 -8.36187e-10 5.04921e-10 5e-05 1.46608e-10 
55 1 0.0509264 0.0159574 0.0082747 0.00580467 -0.00044543 -0.000468854 -6.74881e-10 7.50154e-10 -6.51761e-10 5e-05 1.46608e-10 
56 1 0.0572867 0.016933 0.00750112 0.00625664 0.000125226 -2.9653e-05 -3.37031e-11 -2.00658e-10 1.5856e-10 5e-05 1.46608e-10 
57 1 0.0632181 0.0170145 0.0074559 0.00621245 0.000283626 -5.15923e-05 2.44721e-10 8.77935e-12 6.0853e-11 5e-05 1.46608e-10 
59 1 0.0573431 0.0168196 0.00761617 0.0061453 4.36309e-05 5.42156e-05 3.40867e-10 1.59532e-10 -1.2932e-10 5e-05 1.46608e-10 
60 1 0.057364 0.0168888 0.00754682 0.0065741 0.000422339 -0.000321271 2.68795e-10 4.35562e-11 -9.47715e-12 5e-05 1.46608e-10 
61 1 0.0570485 0.0164457 0.00802556 0.0057446 -0.000312368 -0.000326911 1.7177e-10 -8.29471e-11 1.12785e-10 5e-05 1.46608e-10 
62 1 0.0574601 0.0172456 0.0072101 0.00593998 9.90722e-05 -6.91013e-05 8.17721e-11 3.0543e-10 1.88925e-11 5e-05 1.46608e-10 
63 1 0.0574111 0.0174158 0.00720981 0.00570758 3.16533e-05 -0.000138809 -4.26252e-10 1.41484e-10 -8.97495e-11 5e-05 1.46608e-10 
64 1 0.0633368 0.0174885 0.00710827 0.00587775 0.00034088 -0.00010188 5.10014e-11 -5.05442e-11 7.34319e-11 5e-05 1.46608e-10 
65 1 0.0512719 0.0168571 0.00751715 0.00605772 -0.00012426 0.000535074 -6.06979e-10 -1.38781e-11 3.40231e-11 5e-05 1.46608e-10 
66 1 0.0512086 0.0165891 0.00762779 0.00582698 -0.0001556 0.000304142 8.3583e-10 -3.85118e-10 -7.93526e-10 5e-05 1.46608e-10 
67 1 0.0575724 0.0173003 0.00722104 0.00589465 0.000179947 -7.15189e-05 1.31383e-10 6.13329e-10 -1.33962e-11 5e-05 1.46608e-10 
68 1 0.0575267 0.0175449 0.00720347 0.00564022 2.6349e-05 -5.62768e-05 -2.57537e-10 9.13312e-11 3.77071e-11 5e-05 1.46608e-10 
69 1 0.0572048 0.0166571 0.00777761 0.00600026 1.59355e-05 7.27791e-05 -1.35669e-10 -5.7134e-11 1.13184e-10 5e-05 1.46608e-10 
70 1 0.0633982 0.0177812 0.00709931 0.00585473 0.000334083 -0.000200267 4.32347e-12 5.85599e-11 -3.12579e-11 5e-05 1.46608e-10 
71 1 0.0509058 0.0158909 0.00834653 0.00575127 -0.000475574 -0.000422631 5.44197e-10 2.16607e-10 -3.45957e-10 5e-05 1.46608e-10 
72 1 0.0575063 0.0174468 0.00720562 0.00570504 0.0001012 -6.02594e-05 -2.53104e-10 7.29671e-10 2.57885e-11 5e-05 1.46608e-10 
73 1 0.0571708 0.0168412 0.00759165 0.00609521 2.66139e-05 7.27401e-05 3.1534e-11 -8.67423e-12 -4.8809e-11 5e-05 1.46608e-10 
74 1 0.0573712 0.0172301 0.00725318 0.00602039 9.70965e-06 3.79566e-05 -9.14914e-11 -2.28674e-10 -2.6246e-10 5e-05 1.46608e-10 
76 1 0.0515025 0.0178631 0.0071367 0.00569558 -8.40286e-05 0.00049378 1.9768e-10 -2.26971e-11 3.09664e-11 5e-05 1.46608e-10 
77 1 0.0576198 0.0183933 0.00718571 0.00622872 -8.31058e-05 -9.46385e-05 8.7121e-10 -1.82107e-11 -1.79206e-10 5e-05 1.46608e-10 
78 1 0.0509877 0.016153 0.00805565 0.00597036 -0.000330648 -0.000612003 -5.19993e-10 5.66301e-10 -5.3768e-10 5e-05 1.46608e-10 
79 1 0.0511975 0.0169212 0.00749823 0.00605919 -0.00014912 0.000548108 -2.82582e-10 3.26044e-11 7.02633e-11 5e-05 1.46608e-10 
80 1 0.0574343 0.0179681 0.00719613 0.00587781 -7.42959e-07 -6.14011e-05 3.86856e-10 5.88489e-10 -7.89629e-11 5e-05 1.46608e-10 
81 1 0.0511327 0.0166432 0.00759069 0.0062972 0.000375479 0.000390592 5.10294e-10 5.17883e-10 -2.30202e-10 5e-05 1.46608e-10 
82 1 0.0512835 0.0172818 0.00734951 0.00601684 -0.000151028 0.000548619 -3.67186e-11 -2.08812e-10 5.1014e-11 5e-05 1.46608e-10 
83 1 0.0512606 0.0164496 0.00771333 0.00606232 -0.000242269 0.000388823 -4.37505e-10 1.72371e-10 2.63041e-10 5e-05 1.46608e-10 
84 1 0.0634389 0.0179768 0.00710801 0.00582335 0.000348861 -0.00019903 1.37175e-11 2.32763e-11 -5.57356e-12 5e-05 1.46608e-10 
85 1 0.0510823 0.0161667 0.00802584 0.00580245 -0.000444292 -0.000465516 1.74483e-10 4.38546e-10 -5.48665e-10 5e-05 1.46608e-10 
86 1 0.0574318 0.0175135 0.00720637 0.00566071 6.85194e-05 -0.000149115 -3.29189e-10 2.90822e-10 -4.10364e-10 5e-05 1.46608e-10 
87 1 0.0573225 0.0167504 0.0076855 0.00603914 -5.01315e-06 9.79622e-05 2.71886e-10 -1.99981e-10 1.71545e-10 5e-05 1.46608e-10 
88 1 0.0574956 0.018262 0.00718966 0.00651378 2.66336e-05 -8.76154e-05 -4.62751e-10 1.28902e-09 5.01353e-10 5e-05 1.46608e-10 
89 1 0.0574539 0.0180662 0.00719398 0.00580601 -4.81345e-05 -6.19164e-05 6.69531e-11 4.66762e-10 3.98896e-11 5e-05 1.46608e-10 
90 1 0.0575361 0.0171339 0.00730276 0.00609581 0.000141911 -3.76883e-05 1.32551e-10 1.66189e-10 -5.52537e-11 5e-05 1.46608e-10 
91 1 0.0512188 0.0170078 0.007453 0.00605457 -0.000146458 0.000551663 -3.18654e-10 -2.69481e-10 5.7885e-11 5e-05 1.46608e-10 
92 1 0.0575666 0.017741 0.00721016 0.00579978 0.000134426 -0.000205109 1.03076e-09 -4.16139e-10 -6.52582e-10 5e-05 1.46608e-10 
93 1 0.0575519 0.0181012 0.00719222 0.00632589 -8.93442e-05 -7.05413e-05 1.25554e-10 9.08122e-10 -3.79671e-11 5e-05 1.46608e-10 
94 1 0.057627 0.0180351 0.0071927 0.00621624 -0.000123471 -6.57547e-05 -6.76907e-10 4.38645e-10 -7.76015e-11 5e-05 1.46608e-10 
95 1 0.0574141 0.0178694 0.0071983 0.00566973 8.98931e-06 -5.99809e-05 4.439e-10 3.0872e-09 -2.43324e-10 5e-05 1.46608e-10 
96 1 0.0575872 0.0178392 0.007197 0.00583019 -3.95396e-05 -6.3225e-05 -1.17114e-09 -7.62677e-10 -1.19577e-10 5e-05 1.46608e-10 
97 1 0.0510901 0.0164805 0.00769203 0.00615079 -0.000252738 -0.000287001 -1.49833e-10 -1.59494e-10 -1.77901e-10 5e-05 1.46608e-10 
98 1 0.0575192 0.0183592 0.00718766 0.00638537 4.35401e-05 -0.000137223 -5.62259e-10 2.36517e-09 -3.07239e-10 5e-05 1.46608e-10 
99 1 0.0512497 0.0167768 0.00757247 0.00616914 -0.000207363 0.000439752 -1.8655e-10 2.23112e-11 8.69416e-11 5e-05 1.46608e-10 
100 1 0.0574968 0.0169955 0.00744158 0.00637064 0.000128023 -2.58514e-05 -3.06434e-11 -2.4631e-10 2.39682e-10 5e-05 1.46608e-10 
101 1 0.0511853 0.0165012 0.00766935 0.00617228 -0.000449358 -0.000221637 -1.09769e-09 1.04766e-09 1.01967e-09 5e-05 1.46608e-10 
102 1 0.0643568 0.0187248 0.00531097 4.03712e-15 1.0546e-14 8.29658e-14 -1.14901e-23 -5.57054e-23 3.92911e-24 5e-05 1.46608e-10 
103 1 0.24257 0.0191927 0.00520306 -7.91558e-23 4.86658e-23 1.23839e-22 0 0 0 5e-05 1.46608e-10 
104 1 0.0515166 0.0175287 0.00727057 0.00570286 -4.00729e-05 0.000481966 -2.23292e-10 -1.32134e-10 2.90841e-11 5e-05 1.46608e-10 
105 1 0.0510492 0.0163495 0.00783748 0.00600684 -0.000436459 -0.000559371 -5.48836e-10 -6.95654e-10 4.29349e-10 5e-05 1.46608e-10 
106 1 0.0515911 0.0174691 0.00730033 0.00571052 -3.46631e-05 0.000479757 -1.43569e-10 -3.50152e-11 6.51456e-12 5e-05 1.46608e-10 
107 1 0.0510082 0.0162185 0.00798292 0.00603088 -0.000339448 -0.000614088 -2.21055e-10 -9.07724e-11 2.89807e-11 5e-05 1.46608e-10 
108 1 0.0572454 0.0167947 0.00763969 0.00605555 3.87524e-06 8.79356e-05 3.87196e-10 -1.12394e-11 9.91085e-11 5e-05 1.46608e-10 
109 1 0.0573319 0.0174767 0.00720694 0.00568063 -6.18069e-05 -6.17609e-05 -1.93632e-10 -7.56094e-11 1.0547e-10 5e-05 1.46608e-10 
110 1 0.0576735 0.0177887 0.00719705 0.00602126 0.000184771 -6.69843e-05 -6.20621e-10 6.66646e-10 -1.28875e-11 5e-05 1.46608e-10 
111 1 0.0575628 0.0185541 0.00718475 0.00599261 2.21876e-05 -0.000168375 -2.98891e-10 -3.67496e-10 -9.31996e-11 5e-05 1.46608e-10 
112 1 0.0511112 0.0165518 0.00762518 0.00629679 0.000360855 0.000360461 -7.27531e-10 7.82573e-10 -7.32914e-11 5e-05 1.46608e-10 
113 1 0.0518008 0.0176246 0.00725573 0.00569266 -6.14895e-05 0.000488816 -8.72117e-11 3.84694e-10 -1.65739e-10 5e-05 1.46608e-10 
114 1 0.0514542 0.0172549 0.00737621 0.00597827 -0.000147743 0.000548571 -1.29521e-10 -1.91855e-10 5.1197e-11 5e-05 1.46608e-10 
115 1 0.057391 0.0173178 0.00720943 0.00581874 3.42773e-06 -7.02297e-05 -1.667e-10 4.62571e-11 -2.44677e-11 5e-05 1.46608e-10 
116 1 0.0572247 0.0167329 0.00771552 0.00603121 4.31684e-06 7.49021e-05 -5.28908e-11 2.97693e-11 2.31475e-10 5e-05 1.46608e-10 
117 1 0.0570832 0.0162715 0.00821944 0.00572057 -0.000276008 -0.000361578 3.87197e-11 7.0269e-11 -9.46956e-11 5e-05 1.46608e-10 
118 1 0.0509468 0.0160219 0.0082011 0.00586047 -0.000407901 -0.000513353 3.00664e-10 9.32128e-10 -1.06141e-09 5e-05 1.46608e-10 
119 1 0.0573847 0.0169579 0.00747756 0.00633049 0.00010531 -4.69249e-06 8.47521e-11 -9.31234e-11 8.97869e-11 5e-05 1.46608e-10 
120 1 0.056948 0.016129 0.00839725 0.00554839 -0.000318338 -0.000289271 2.16977e-10 7.86863e-11 -7.84881e-11 5e-05 1.46608e-10 
121 1 0.0569077 0.016002 0.00854635 0.0054236 -0.000301001 -0.000294811 2.38367e-11 1.94333e-10 -2.30643e-10 5e-05 1.46608e-10 
122 1 0.0576932 0.0178867 0.0071949 0.00633033 0.000288227 -7.51075e-05 -7.02075e-10 -4.23397e-12 7.12357e-12 5e-05 1.46608e-10 
123 1 0.0511232 0.0162977 0.00788039 0.00588853 -0.000395359 -0.00054049 -3.7857e-10 3.79591e-10 -4.33233e-10 5e-05 1.46608e-10 
124 1 0.057512 0.0179052 0.00719652 0.00584785 -1.94231e-07 -5.35231e-05 1.08946e-09 3.32945e-10 1.00272e-10 5e-05 1.46608e-10 
125 1 0.057063 0.016208 0.008294 0.00565563 -0.000322174 -0.00029827 -9.6964e-11 -1.03638e-11 4.12136e-12 5e-05 1.46608e-10 
126 1 0.0572905 0.0172792 0.00721129 0.00574574 5.12173e-06 -5.98841e-05 -6.69474e-11 3.43315e-10 -2.1137e-10 5e-05 1.46608e-10 
127 1 0.0510697 0.016415 0.00776475 0.0061609 -0.000427655 -0.000464463 1.38753e-09 -6.76971e-10 3.15456e-10 5e-05 1.46608e-10 
128 1 0.0573936 0.0177715 0.0072005 0.00569698 7.75357e-05 -8.43762e-05 -5.72417e-10 -1.8457e-09 -4.76134e-10 5e-05 1.46608e-10 
129 1 0.0574736 0.0181642 0.00719183 0.00574937 -8.02028e-05 -6.07654e-05 -5.58868e-11 -4.16352e-10 1.07796e-11 5e-05 1.46608e-10 
130 1 0.0513798 0.0173138 0.00734468 0.00599365 -0.000136897 0.000544761 -2.59363e-10 -1.752e-10 4.38783e-12 5e-05 1.46608e-10 
131 1 0.0512276 0.0166834 0.00760046 0.00607749 -0.000163403 0.000517279 -5.4155e-10 2.41087e-10 -2.1793e-10 5e-05 1.46608e-10 
132 1 0.0574924 0.0178072 0.00719896 0.00575329 7.73595e-05 -5.18755e-05 -1.69565e-10 -6.39016e-10 -6.45617e-11 5e-05 1.46608e-10 
133 1 0.0572403 0.0164779 0.00796642 0.00588239 -0.000305139 -0.000341594 -1.46626e-10 -2.11371e-10 9.36547e-11 5e-05 1.46608e-10 
134 1 0.0574058 0.0170274 0.00740793 0.00634527 6.3495e-05 3.86593e-05 -3.89477e-10 -9.69161e-11 1.10576e-10 5e-05 1.46608e-10 
135 1 0.0570428 0.0161445 0.00836856 0.00559504 -0.000306609 -0.00030875 3.51274e-10 -1.40954e-10 1.11754e-10 5e-05 1.46608e-10 
136 1 0.0510617 0.0161012 0.00809856 0.00582392 -0.000485949 -0.000423759 -4.11272e-10 6.15922e-10 -5.69646e-10 5e-05 1.46608e-10 
137 1 0.0575832 0.018652 0.00718332 0.00570063 0.000101907 -0.000141179 -3.6235e-10 -1.3777e-11 -1.4456e-10 5e-05 1.46608e-10 
138 1 0.057184 0.0165886 0.00784746 0.00590304 -0.000311867 -0.000291435 -1.60696e-10 9.07463e-11 2.34961e-10 5e-05 1.46608e-10 
140 1 0.0577223 0.0180656 0.00719105 0.00619029 -0.000301914 -6.16666e-05 1.1304e-09 1.89937e-10 7.2417e-12 5e-05 1.46608e-10 
141 1 0.0511027 0.0162322 0.00795312 0.00582801 -0.000415607 -0.000503653 -4.89488e-10 6.11375e-10 -5.22334e-10 5e-05 1.46608e-10 
142 1 0.0514759 0.0173456 0.00733994 0.00601586 -0.000132325 0.000543466 -4.99274e-11 -4.59526e-10 1.77848e-10 5e-05 1.46608e-10 
143 1 0.0510287 0.016284 0.0079102 0.00599072 -0.000389987 -0.000578038 -3.18955e-11 -8.53752e-10 9.36194e-10 5e-05 1.46608e-10 
144 1 0.0514329 0.0171629 0.00740893 0.00598817 -0.000169326 0.000563893 2.35733e-10 6.16436e-12 2.23481e-11 5e-05 1.46608e-10 
146 1 0.0512814 0.0165242 0.00765006 0.00590583 -1.46333e-05 0.000501568 2.69492e-10 -3.7821e-10 -3.22389e-10 5e-05 1.46608e-10 
147 1 0.0510413 0.0160357 0.00817129 0.00575661 -0.000505173 -0.000394549 -9.91593e-11 6.18994e-10 -6.11522e-10 5e-05 1.46608e-10 
148 1 0.051347 0.0175561 0.00724586 0.00567438 -5.37066e-05 0.000492116 -5.49705e-11 3.13876e-10 -2.80619e-10 5e-05 1.46608e-10 
149 1 0.0576483 0.0181328 0.00719054 0.00632306 -0.000489952 -6.31945e-05 -6.02219e-10 -4.9138e-11 -2.4787e-10 5e-05 1.46608e-10 
150 1 0.0513237 0.0167098 0.00757985 0.00587877 -0.000230422 0.000565478 -4.35951e-10 2.104e-10 -9.20853e-11 5e-05 1.46608e-10 
151 1 0.0516655 0.0174092 0.00733015 0.00566697 -8.61048e-05 0.000497107 6.4681e-11 1.48604e-10 -5.2411e-11 5e-05 1.46608e-10 
153 1 0.0511642 0.0164287 0.00773494 0.00593537 -0.000521486 -0.000389335 -1.17138e-09 -2.17147e-10 1.73648e-10 5e-05 1.46608e-10 
154 1 0.051442 0.0175883 0.00724081 0.00573981 -5.29734e-05 0.000489946 1.13122e-10 -2.25169e-10 1.05582e-10 5e-05 1.46608e-10 
155 1 0.0515218 0.0179565 0.00710554 0.00567023 -2.86729e-05 0.000468742 -1.79004e-10 -1.54382e-10 2.16691e-11 5e-05 1.46608e-10 
156 1 0.051422 0.0174967 0.00727554 0.00569413 -4.68257e-05 0.000483103 -2.21174e-10 -1.09727e-10 1.73545e-11 5e-05 1.46608e-10 
157 1 0.0219312 0.0187687 0.00551176 -3.82664e-14 8.16878e-14 2.9589e-13 1.03483e-21 3.60444e-22 2.50222e-23 5e-05 1.46608e-10 
158 1 0.0515366 0.0176203 0.00723584 0.00570463 -2.92882e-05 0.000477704 -2.49926e-12 -1.04508e-10 3.88716e-11 5e-05 1.46608e-10 
159 1 0.0575469 0.0176431 0.00720131 0.00572078 5.29812e-05 -5.22889e-05 5.62577e-10 4.20964e-10 -1.72564e-11 5e-05 1.46608e-10 
160 1 0.0514274 0.017924 0.0071112 0.00571784 -0.000103635 0.000493116 -1.7371e-11 -1.20365e-10 -4.31443e-12 5e-05 1.46608e-10 
162 1 0.051462 0.0176799 0.00720607 0.00572457 -5.53072e-05 0.000490938 6.27941e-11 -1.5895e-10 6.95952e-11 5e-05 1.46608e-10 
164 1 0.0516736 0.0182632 0.00699184 0.00550756 1.34863e-05 0.000443922 -1.36193e-11 2.44938e-11 -3.06128e-11 5e-05 1.46608e-10 
165 1 0.0517263 0.0176843 0.00722593 0.00567323 -7.91289e-05 0.00049528 -4.82687e-10 -1.70462e-10 5.57944e-11 5e-05 1.46608e-10 
166 1 0.0571999 0.0163509 0.00811552 0.00569841 -0.000298557 -0.000332799 2.40552e-10 -7.87921e-11 4.1817e-11 5e-05 1.46608e-10 
167 1 0.0513034 0.0166182 0.00761453 0.00587932 -0.000253205 0.000577248 2.21709e-11 3.54729e-10 -3.05618e-10 5e-05 1.46608e-10 
168 1 0.0516112 0.0175607 0.00726559 0.00572244 -1.82334e-05 0.000474814 -4.10071e-11 3.33063e-11 -1.24644e-11 5e-05 1.46608e-10 
169 1 0.0518207 0.017717 0.00722068 0.00564511 -3.24432e-05 0.000474064 -4.09974e-10 7.03015e-11 -5.55009e-11 5e-05 1.46608e-10 
170 1 0.0516518 0.017744 0.00719615 0.00568896 -6.62727e-05 0.000491837 1.059e-11 1.24793e-10 -7.54917e-11 5e-05 1.46608e-10 
171 1 0.05722 0.0164144 0.00804096 0.00579946 -0.000302096 -0.000340597 -1.75437e-11 -1.19127e-10 1.49114e-10 5e-05 1.46608e-10 
172 1 0.0517058 0.0175927 0.00726063 0.00556467 -7.91853e-05 0.000486318 1.71326e-10 -1.17249e-10 6.83165e-11 5e-05 1.46608e-10 
173 1 0.0576419 0.0172296 0.00720842 0.00591927 0.000120191 -6.44707e-05 -5.61212e-10 3.14627e-10 -1.95959e-10 5e-05 1.46608e-10 
174 1 0.0515772 0.0178036 0.00716641 0.00569585 -6.75822e-05 0.000491311 3.72508e-10 3.14587e-10 -1.10421e-10 5e-05 1.46608e-10 
175 1 0.0451942 0.0169705 0.00762132 0.00580958 -0.000556405 0.000567554 2.8483e-12 1.17017e-12 -4.15754e-13 5e-05 1.46608e-10 
176 1 0.0514014 0.0174052 0.00731018 0.00602187 -0.000119152 0.000538516 3.93244e-11 -4.30101e-11 3.39656e-11 5e-05 1.46608e-10 
177 1 0.0514652 0.0181059 0.00703729 0.00560282 -4.48625e-05 0.000478359 6.01916e-11 2.3797e-10 4.34942e-11 5e-05 1.46608e-10 
178 1 0.0517804 0.017533 0.00729041 0.00572945 -5.96589e-05 0.000491727 1.97125e-10 3.35507e-10 -1.19554e-10 5e-05 1.46608e-10 
179 1 0.0517663 0.0178695 0.00715572 0.00562351 0.000128201 0.000408587 1.74027e-10 5.63184e-12 1.22186e-11 5e-05 1.46608e-10 
181 1 0.0513871 0.0177393 0.00717641 0.00569132 -7.9527e-05 0.000497279 -3.77461e-11 -5.18881e-11 -3.68398e-11 5e-05 1.46608e-10 
182 1 0.0571641 0.0165249 0.00792194 0.00586849 -0.000322059 -0.000328966 -2.36886e-10 -1.59595e-10 2.39289e-10 5e-05 1.46608e-10 
183 1 0.0516313 0.0176524 0.00723085 0.00564099 -2.8791e-05 0.000471874 2.59357e-10 -2.1242e-10 8.33861e-11 5e-05 1.46608e-10 
184 1 0.0575 0.0176662 0.00728656 0.00564296 7.52074e-05 -7.96003e-05 1.10608e-10 1.65173e-10 -9.85402e-11 5e-05 1.46608e-10 
185 1 0.0513266 0.0174645 0.00728052 0.00600414 -0.000117663 0.00053921 2.03004e-10 3.94959e-10 -1.27625e-10 5e-05 1.46608e-10 
186 1 0.0513671 0.0176477 0.00721113 0.00540437 -2.38437e-05 0.00045424 -3.14113e-10 5.27208e-10 -2.83457e-10 5e-05 1.46608e-10 
187 1 0.0574738 0.0169267 0.00751045 0.00636769 0.00015613 -5.37407e-05 -1.39738e-10 -3.89757e-10 3.82863e-10 5e-05 1.46608e-10 
188 1 0.0575732 0.0181989 0.00719006 0.00646498 -0.000124318 -8.49875e-05 -1.36022e-09 8.78781e-10 3.31371e-10 5e-05 1.46608e-10 
189 1 0.057515 0.0170649 0.00737195 0.00626328 0.000126761 -2.39915e-05 -1.85795e-10 2.3022e-11 1.57111e-11 5e-05 1.46608e-10 
190 1 0.0452973 0.0170111 0.00761557 0.00580086 -0.000531078 0.000559028 1.4371e-12 8.03292e-12 -2.64823e-12 5e-05 1.46608e-10 
191 1 0.0576038 0.0187499 0.00718189 0.00551062 0.000228041 -0.000126448 1.87195e-10 5.11055e-10 -3.19267e-11 5e-05 1.46608e-10 
192 1 0.0515496 0.017285 0.00736999 0.00598845 -0.000128983 0.000540925 3.2349e-10 -4.75465e-10 2.02138e-10 5e-05 1.46608e-10 
193 1 0.057301 0.0166815 0.00775462 0.00602787 5.13067e-06 9.02649e-05 1.77902e-11 -1.51976e-10 1.04011e-10 5e-05 1.46608e-10 
194 1 0.0513662 0.0168974 0.00752876 0.00585849 -0.00018596 0.000567882 7.70247e-10 3.49093e-10 4.23084e-11 5e-05 1.46608e-10 
195 1 0.0517463 0.0177768 0.00719086 0.00565794 -1.77842e-05 0.000469449 -1.81144e-10 2.51675e-10 -1.25391e-10 5e-05 1.46608e-10 
196 1 0.0508446 0.0156944 0.00856473 0.00544547 -0.000501998 -0.000347151 -7.30235e-15 -2.55935e-10 2.8933e-10 5e-05 1.46608e-10 
197 1 0.045258 0.0172515 0.00753761 0.005728 -0.000539465 0.000556751 -1.36776e-12 -1.04962e-11 3.18484e-12 5e-05 1.46608e-10 
198 1 0.0512403 0.0170991 0.0074185 0.0060432 -0.000152856 0.00055559 -4.2642e-10 -4.26775e-10 1.39155e-10 5e-05 1.46608e-10 
199 1 0.0514821 0.0177715 0.00717137 0.00569174 -6.52503e-05 0.000490299 3.79589e-10 -1.13361e-10 6.46498e-11 5e-05 1.46608e-10 
200 1 0.0513367 0.0171311 0.00741367 0.00602322 -0.000179591 0.000563394 -1.30358e-11 -6.12155e-11 -5.37826e-11 5e-05 1.46608e-10 
201 1 0.0517679 0.0182962 0.00698648 0.00549736 -2.59261e-05 0.000458306 5.71098e-11 -1.51044e-10 3.06064e-11 5e-05 1.46608e-10 
202 1 0.0515707 0.0173771 0.00733517 0.00592777 0.000185433 0.000410814 -3.29066e-10 1.77135e-10 -1.13835e-10 5e-05 1.46608e-10 
203 1 0.057688 0.0174282 0.007204 0.00573275 0.000282943 -6.68269e-05 4.31666e-10 7.36786e-10 -1.00402e-10 5e-05 1.46608e-10 
204 1 0.0513151 0.0170398 0.00744817 0.00606456 -0.000129493 0.000545236 -3.01951e-10 -5.05698e-10 2.11364e-10 5e-05 1.46608e-10 
205 1 0.0516354 0.0180795 0.00706164 0.00559756 5.18971e-05 0.000436734 -1.46093e-10 -2.81349e-11 -2.29418e-12 5e-05 1.46608e-10 
206 1 0.051597 0.0178959 0.00713141 0.00570003 1.79649e-05 0.000457709 -1.68354e-10 -4.28005e-11 -1.80314e-11 5e-05 1.46608e-10 
207 1 0.0511439 0.0163632 0.00780768 0.00546686 -0.00043613 -0.000420122 -3.71593e-10 -4.51366e-10 5.75483e-10 5e-05 1.46608e-10 
208 1 0.0515567 0.0177119 0.00720112 0.00568853 -2.77725e-05 0.000475588 3.71841e-10 -2.16994e-10 1.26721e-10 5e-05 1.46608e-10 
209 1 0.0513492 0.0168004 0.00754597 0.00590702 -0.00020789 0.000565444 -3.29153e-10 1.61067e-10 -2.63212e-10 5e-05 1.46608e-10 
210 1 0.0573324 0.0173241 0.00729024 0.00589125 -8.26637e-05 -4.50446e-05 -2.58452e-10 5.10194e-11 2.33499e-10 5e-05 1.46608e-10 
211 1 0.0576069 0.0179372 0.00719485 0.00592031 -3.455e-05 -6.38277e-05 -1.10478e-09 -8.20345e-10 4.33629e-11 5e-05 1.46608e-10 
212 1 0.0516718 0.0178364 0.0071611 0.00567256 -3.5618e-06 0.00046479 -3.54796e-11 2.72855e-10 -1.11524e-10 5e-05 1.46608e-10 
213 1 0.0574537 0.0168575 0.00757979 0.00613265 0.000218251 -0.000120148 -3.08135e-10 -3.42436e-10 3.49561e-10 5e-05 1.46608e-10 
214 1 0.0575318 0.0180032 0.00719437 0.00614821 -7.50162e-05 -6.58664e-05 1.31963e-09 7.98211e-10 5.44754e-11 5e-05 1.46608e-10 
215 1 0.0452713 0.0169114 0.00764506 0.00583171 -0.000530232 0.000560842 1.08159e-11 4.53742e-12 -6.7906e-13 5e-05 1.46608e-10 
216 1 0.0514463 0.0180141 0.00707217 0.00556176 -5.16523e-05 0.000478237 -1.72266e-10 1.99818e-10 -2.06322e-10 5e-05 1.46608e-10 
217 1 0.0572606 0.0165442 0.00789438 0.00566742 -0.00124176 -0.00124407 -7.50824e-11 -4.46833e-10 -5.72864e-11 5e-05 1.46608e-10 
218 1 0.0515602 0.0181384 0.00703211 0.00555182 -5.25446e-06 0.000455626 -1.21838e-12 8.39553e-12 -1.5172e-11 5e-05 1.46608e-10 
219 1 0.0575424 0.0184564 0.00719036 0.00627909 6.09063e-06 -0.000201075 -8.15614e-10 5.47594e-10 -5.18195e-10 5e-05 1.46608e-10 
220 1 0.0514073 0.0178309 0.0071417 0.00568992 -8.88223e-05 0.000497312 3.21631e-10 -1.70195e-10 1.2254e-10 5e-05 1.46608e-10 
221 1 0.0451668 0.0164452 0.00778404 0.00597169 -0.000547259 0.000575648 -5.19605e-11 -5.42657e-11 1.30337e-11 5e-05 1.46608e-10 
222 1 0.0572812 0.0166122 0.00782401 0.00600548 1.57928e-05 7.8622e-05 9.99713e-11 -1.91169e-10 8.51431e-11 5e-05 1.46608e-10 
223 1 0.0514965 0.0174371 0.0073053 0.00569269 -5.67836e-05 0.00048791 -3.7879e-10 -2.05863e-10 5.00871e-11 5e-05 1.46608e-10 
224 1 0.051305 0.0173732 0.00731501 0.00600206 -0.000139662 0.000542279 5.1365e-11 1.51049e-10 -1.87413e-11 5e-05 1.46608e-10 
225 1 0.0576134 0.0174948 0.00720351 0.00579446 0.000290317 -7.25885e-05 2.41707e-10 -2.9021e-10 1.6352e-11 5e-05 1.46608e-10 
226 1 0.0516857 0.0175011 0.00729536 0.00571896 -3.26439e-05 0.000480281 5.99542e-11 2.62602e-10 -1.00531e-10 5e-05 1.46608e-10 
227 1 0.0452934 0.0165825 0.0077496 0.00593061 -0.000513936 0.000562437 -1.22371e-11 4.32482e-12 -2.31966e-12 5e-05 1.46608e-10 
228 1 0.0452155 0.0170642 0.00759341 0.00578295 -0.000552418 0.000564457 -2.98308e-12 -4.67543e-12 1.53217e-12 5e-05 1.46608e-10 
229 1 0.0513322 0.0173713 0.00741123 0.00601271 -8.5647e-05 0.000529371 2.46073e-10 -3.38574e-11 5.63673e-11 5e-05 1.46608e-10 
230 1 0.0517115 0.0184468 0.00692208 0.00557169 -7.78293e-06 0.000459681 -4.10184e-10 1.54466e-11 2.44285e-11 5e-05 1.46608e-10 
231 1 0.045173 0.0168769 0.00764922 0.00583769 -0.00056036 0.00057065 3.04638e-12 6.05319e-12 -2.00781e-12 5e-05 1.46608e-10 
232 1 0.0512385 0.0163767 0.00777812 0.00626167 -0.000669525 7.69897e-05 -7.06303e-10 -5.06868e-10 -1.07104e-10 5e-05 1.46608e-10 
233 1 0.0513898 0.0169802 0.00747792 0.00589316 -0.000196233 0.000555408 -2.20007e-10 8.53451e-10 -2.93102e-10 5e-05 1.46608e-10 
234 1 0.057597 0.0182959 0.00718788 0.00612886 -9.41938e-05 -6.82091e-05 -6.67431e-10 -8.70766e-10 1.25004e-10 5e-05 1.46608e-10 
235 1 0.0517487 0.0186323 0.00685148 0.0055493 -0.00011693 0.000506457 3.29755e-10 4.55802e-10 -2.39076e-10 5e-05 1.46608e-10 
236 1 0.0517306 0.0185386 0.00688722 0.00562805 -2.04661e-05 0.000477821 -4.88502e-10 5.01552e-11 -1.30296e-10 5e-05 1.46608e-10 
237 1 0.0518059 0.0184798 0.0069167 0.00556533 -0.000114777 0.000502664 -2.27295e-10 -1.64015e-10 1.47127e-10 5e-05 1.46608e-10 
239 1 0.0449842 0.0160707 0.0079563 0.0050439 -0.000471729 0.000348891 6.0268e-11 -4.78351e-11 4.74191e-11 5e-05 1.46608e-10 
240 1 0.0450455 0.016315 0.00781674 0.00601994 -0.000633211 0.000455309 4.45771e-12 -1.43e-12 -9.8913e-12 5e-05 1.46608e-10 
241 1 0.0449644 0.0160123 0.00803501 0.00548199 -0.000538595 0.000413715 7.68985e-11 -1.15131e-11 3.5878e-11 5e-05 1.46608e-10 
242 1 0.0515065 0.0171023 0.00743899 0.00600972 -0.000132829 0.000546349 -2.75582e-11 -1.6365e-10 8.65344e-11 5e-05 1.46608e-10 
243 1 0.0512936 0.0169484 0.00748267 0.00599883 -0.00013498 0.000537359 -1.02516e-09 -4.30206e-10 7.86136e-11 5e-05 1.46608e-10 
244 1 0.0450035 0.0161292 0.00787751 0.00550735 -0.000536597 0.000411848 -2.00245e-13 -2.20007e-11 2.3354e-11 5e-05 1.46608e-10 