ITEM: TIMESTEP
18200000
ITEM: NUMBER OF ATOMS
287
ITEM: BOX BOUNDS ff ff ff
-0.02 0.43
-0.02 0.06
-0.02 0.07
ITEM: ATOMS id type x y z vx vy vz fx fy fz radius mass 
1 1 0.118936 0.0163193 0.00792622 0.00607078 -0.000448285 -0.000108095 -1.48116e-10 2.20755e-11 -4.41202e-12 5e-05 1.46608e-10 
2 1 0.11941 0.0175152 0.00720668 0.00563199 -3.00844e-05 0.000213942 -4.2313e-11 -1.70759e-11 -4.47728e-12 5e-05 1.46608e-10 
3 1 0.112718 0.0158913 0.00832946 0.00587481 -0.00073845 0.000120186 -1.49379e-10 -7.76903e-11 1.88472e-11 5e-05 1.46608e-10 
4 1 0.119256 0.0176379 0.00717146 0.00560635 -4.4108e-05 0.000217701 -3.75642e-11 -5.90269e-11 5.07919e-11 5e-05 1.46608e-10 
5 1 0.118819 0.0162302 0.00801893 0.00601809 -0.000432975 -0.00011604 -6.4281e-11 -1.92278e-11 4.22218e-11 5e-05 1.46608e-10 
6 1 0.124938 0.0166051 0.00761653 0.00627026 0.000133685 -0.000158299 -7.94626e-12 -1.07221e-10 6.53778e-11 5e-05 1.46608e-10 
7 1 0.119008 0.0168691 0.00741421 0.00568525 -0.000254324 -0.000105716 -1.19987e-10 2.55113e-10 -1.58977e-10 5e-05 1.46608e-10 
8 1 0.118712 0.015883 0.00836204 0.00593438 -0.000155621 0.000185212 -8.44722e-11 3.87084e-11 -4.37682e-12 5e-05 1.46608e-10 
9 1 0.125193 0.0177355 0.00705353 0.00563028 0.000332348 -1.99302e-05 2.31611e-11 -1.01058e-10 2.58828e-11 5e-05 1.46608e-10 
10 1 0.118948 0.0166543 0.00761492 0.00613807 -0.000426076 -0.000128953 -8.90309e-11 7.62307e-11 -4.11165e-11 5e-05 1.46608e-10 
11 1 0.119472 0.0177008 0.00716424 0.00558703 8.50996e-06 0.000204063 -3.02427e-10 -8.79917e-11 1.0343e-11 5e-05 1.46608e-10 
12 1 0.112935 0.0167048 0.00778991 0.0057889 -0.000751552 0.000137555 1.30346e-11 3.5593e-11 -1.95709e-11 5e-05 1.46608e-10 
13 1 0.118797 0.0161594 0.00808627 0.00599629 -0.000430402 -0.000114165 -7.63432e-11 -7.50762e-11 2.42751e-11 5e-05 1.46608e-10 
14 1 0.112631 0.0155699 0.00854802 0.00589867 -0.000263391 0.000726625 -5.75069e-11 -2.20245e-10 2.42282e-10 5e-05 1.46608e-10 
15 1 0.119139 0.0170654 0.00730506 0.00580907 -2.44326e-05 0.00021502 -4.9159e-10 3.11094e-10 -1.49641e-10 5e-05 1.46608e-10 
16 1 0.112612 0.0154971 0.00861381 0.00571433 -0.000228096 0.000688352 -3.08707e-11 -2.85925e-10 2.54302e-10 5e-05 1.46608e-10 
17 1 0.118927 0.0165836 0.00768227 0.00609146 -0.000431466 -0.000123753 8.08953e-11 9.62376e-11 -7.2407e-11 5e-05 1.46608e-10 
18 1 0.125077 0.0171873 0.0072534 0.00564158 0.000228096 -0.000210126 3.67058e-11 1.53622e-11 -1.95854e-12 5e-05 1.46608e-10 
19 1 0.118776 0.0160888 0.00815363 0.00597436 -0.000437076 -0.000114272 5.35544e-11 -5.7946e-11 -5.05807e-11 5e-05 1.46608e-10 
21 1 0.118915 0.0162486 0.0079936 0.00602046 -0.000443651 -0.000108844 -2.81764e-11 4.18927e-11 -1.58896e-11 5e-05 1.46608e-10 
22 1 0.119043 0.0170335 0.00730921 0.00584741 -5.66829e-05 0.000232196 -1.31357e-10 2.34202e-12 -5.74655e-11 5e-05 1.46608e-10 
23 1 0.113139 0.0171345 0.00749952 0.00578242 -0.000597733 3.76526e-05 -3.01311e-10 -1.09598e-10 7.68704e-11 5e-05 1.46608e-10 
24 1 0.125134 0.0174491 0.00711987 0.00576487 0.000295155 -9.01329e-06 -2.52241e-11 2.64229e-11 -2.52385e-11 5e-05 1.46608e-10 
25 1 0.118989 0.0167965 0.00748019 0.00577196 -0.000353918 -0.000178115 -1.42489e-10 2.23912e-11 -1.9935e-10 5e-05 1.46608e-10 
26 1 0.125018 0.0169377 0.00740909 0.00580993 0.000201267 -0.000195084 6.82283e-12 9.6578e-11 -3.03363e-11 5e-05 1.46608e-10 
27 1 0.113022 0.0170302 0.0075741 0.00575836 -0.000712554 0.000114513 1.61701e-10 1.41278e-10 -1.07821e-10 5e-05 1.46608e-10 
28 1 0.11924 0.0175417 0.00719405 0.00559995 -2.62361e-05 0.000212419 -1.25463e-10 4.08248e-11 -1.40475e-11 5e-05 1.46608e-10 
29 1 0.118754 0.0160185 0.00822143 0.00597318 -0.00029605 3.49237e-05 1.37185e-10 3.26999e-11 -1.53438e-10 5e-05 1.46608e-10 
30 1 0.119295 0.0173844 0.00723396 0.00559624 -1.83135e-05 0.000210527 -4.51748e-11 -3.79715e-11 -1.13266e-11 5e-05 1.46608e-10 
31 1 0.119025 0.016944 0.0073503 0.00578136 -0.000108945 9.4043e-05 -1.93008e-10 1.88689e-10 -7.27309e-11 5e-05 1.46608e-10 
32 1 0.119119 0.0169698 0.00732736 0.00578768 -3.97313e-05 0.000217699 -3.21731e-10 2.5114e-10 -1.11402e-10 5e-05 1.46608e-10 
33 1 0.124959 0.0166881 0.00756476 0.00570223 0.000234794 -0.000214356 1.2985e-11 -5.77795e-11 2.84627e-11 5e-05 1.46608e-10 
34 1 0.118905 0.0165129 0.00774961 0.00607138 -0.000440185 -0.000116542 1.19449e-10 2.3319e-11 -2.26756e-11 5e-05 1.46608e-10 
35 1 0.119102 0.0168893 0.00738408 0.00577909 -0.000324055 -0.000194618 -2.14779e-10 2.27593e-10 -1.35682e-10 5e-05 1.46608e-10 
36 1 0.125232 0.0179266 0.00700924 0.00564999 0.000333435 -2.01982e-05 3.84155e-11 -1.02741e-10 1.72513e-11 5e-05 1.46608e-10 
37 1 0.119065 0.0167457 0.00752024 0.00585215 -0.000275754 -0.000252469 2.71416e-10 3.11983e-10 -2.52555e-10 5e-05 1.46608e-10 
38 1 0.119235 0.0170986 0.0073006 0.00554384 -1.66914e-05 0.000206787 3.1898e-10 6.71167e-11 1.16568e-10 5e-05 1.46608e-10 
39 1 0.125154 0.0175446 0.00709776 0.0057767 0.000296759 -1.02263e-05 -2.55511e-11 -9.82011e-12 4.18644e-12 5e-05 1.46608e-10 
41 1 0.118862 0.0163716 0.00788424 0.00604984 -0.000441933 -0.000112452 -1.14219e-10 -8.79195e-11 8.86817e-11 5e-05 1.46608e-10 
42 1 0.119063 0.0171301 0.00729324 0.00575616 -4.3396e-05 0.000242784 -4.38437e-10 4.15027e-11 1.16192e-10 5e-05 1.46608e-10 
44 1 0.119255 0.0171951 0.00728379 0.00551168 -2.53329e-06 0.000199142 -7.24343e-11 1.02047e-11 -5.81174e-11 5e-05 1.46608e-10 
45 1 0.124979 0.0167713 0.00751287 0.00574407 0.000226262 -0.000209016 -1.2899e-10 1.85871e-11 -1.5719e-12 5e-05 1.46608e-10 
46 1 0.125058 0.017104 0.00730534 0.00567819 0.000222958 -0.000206453 1.24514e-10 4.58762e-11 -1.67999e-11 5e-05 1.46608e-10 
47 1 0.118884 0.0164442 0.00781902 0.00606876 -0.000443962 -0.000112342 2.8882e-11 -2.78189e-11 3.44142e-11 5e-05 1.46608e-10 
48 1 0.119103 0.0173192 0.00724261 0.00558125 -2.59668e-05 0.000211519 1.29856e-11 -1.34793e-11 7.68598e-11 5e-05 1.46608e-10 
49 1 0.125038 0.0170208 0.0073572 0.00585315 0.000196899 -0.000192113 -1.98598e-10 1.64145e-10 -7.12353e-11 5e-05 1.46608e-10 
50 1 0.119163 0.0176027 0.0071765 0.00560564 -3.24287e-05 0.000214574 -6.35532e-11 -8.10541e-11 3.20142e-11 5e-05 1.46608e-10 
51 1 0.119144 0.0175124 0.00721504 0.00561111 -2.60933e-05 0.000220257 -2.45315e-11 3.229e-11 -2.22544e-11 5e-05 1.46608e-10 
52 1 0.112913 0.0166234 0.00784387 0.00579247 -0.00075607 0.000140256 -1.58199e-11 -3.87075e-11 2.55476e-11 5e-05 1.46608e-10 
53 1 0.125097 0.0172704 0.00720152 0.00563543 0.00022698 -0.000209928 -4.53235e-11 4.88431e-11 -2.74602e-11 5e-05 1.46608e-10 
54 1 0.118893 0.0161779 0.00806095 0.00600839 -0.000442616 -0.0001064 3.01191e-12 1.81712e-11 1.10993e-11 5e-05 1.46608e-10 
55 1 0.112675 0.01573 0.00843643 0.00589565 -0.00072248 0.000125097 3.38044e-11 -7.23464e-11 7.96975e-11 5e-05 1.46608e-10 
56 1 0.119084 0.016817 0.00745255 0.00563674 -0.000353098 -0.000161194 8.31285e-11 2.67808e-10 -2.03876e-10 5e-05 1.46608e-10 
57 1 0.124998 0.0168545 0.00746098 0.0057809 0.000213241 -0.000201732 8.41939e-11 3.56413e-11 -3.04935e-11 5e-05 1.46608e-10 
59 1 0.119161 0.0167617 0.00749714 0.00588548 -0.000326505 -0.000197256 4.26041e-11 -9.15297e-11 -9.58481e-11 5e-05 1.46608e-10 
60 1 0.11918 0.016835 0.00743184 0.00562359 -0.000252869 -0.000191923 3.3605e-10 -1.31083e-10 -5.63189e-11 5e-05 1.46608e-10 
61 1 0.11884 0.0163009 0.00795158 0.00602602 -0.000436269 -0.00011555 -6.14761e-11 -2.12469e-11 3.80203e-11 5e-05 1.46608e-10 
62 1 0.119274 0.0172892 0.00725611 0.00553109 -2.21451e-06 0.000203299 -1.08231e-10 7.59698e-12 -1.98999e-11 5e-05 1.46608e-10 
63 1 0.119198 0.0173537 0.00724735 0.00558994 -1.63112e-06 0.000206448 -8.14226e-11 -3.01483e-11 2.86209e-11 5e-05 1.46608e-10 
64 1 0.125115 0.0173589 0.00715867 0.00568601 0.000265608 -0.000108571 -2.39299e-11 6.60379e-11 -3.48101e-11 5e-05 1.46608e-10 
65 1 0.113052 0.0168087 0.00771561 0.00577975 -0.000736042 0.000127809 5.54763e-11 8.73131e-11 -6.11754e-11 5e-05 1.46608e-10 
66 1 0.112987 0.0165646 0.00787749 0.00579312 -0.000742612 0.000131244 -3.03985e-11 1.70308e-11 -8.49721e-12 5e-05 1.46608e-10 
67 1 0.119426 0.0176138 0.00718352 0.00561015 -4.45358e-06 0.000206447 -1.46726e-10 3.28744e-11 -1.71776e-11 5e-05 1.46608e-10 
68 1 0.119333 0.0175769 0.007189 0.0056208 -3.69816e-05 0.000215095 -3.43229e-11 -4.83452e-11 4.35882e-11 5e-05 1.46608e-10 
69 1 0.119001 0.0165318 0.00772386 0.00613947 -0.000398441 -0.000159857 -1.70901e-11 2.36938e-10 -2.0308e-10 5e-05 1.46608e-10 
70 1 0.125174 0.01764 0.00707565 0.00578962 0.000297439 -9.95333e-06 7.47815e-11 -3.4998e-11 5.39002e-12 5e-05 1.46608e-10 
71 1 0.112653 0.0156487 0.00849044 0.00590659 -0.000662441 0.000205271 -6.49185e-11 -6.23271e-11 2.82961e-10 5e-05 1.46608e-10 
72 1 0.119317 0.01748 0.00721172 0.00560283 -4.68856e-06 0.000206745 -9.36412e-11 2.50685e-10 -6.78049e-11 5e-05 1.46608e-10 
73 1 0.118969 0.0167252 0.00754749 0.00604687 -0.000405651 -0.000145191 -2.00216e-10 7.62503e-11 -9.95471e-11 5e-05 1.46608e-10 
74 1 0.119159 0.017161 0.00728276 0.00555597 -9.44843e-06 0.000206125 1.45151e-10 -1.00732e-10 6.51496e-11 5e-05 1.46608e-10 
76 1 0.113255 0.0176278 0.00717323 0.00540862 -0.000585161 6.04021e-05 -1.4698e-10 6.67559e-11 4.85587e-12 5e-05 1.46608e-10 
77 1 0.119274 0.0181453 0.00704989 0.00553874 -5.30378e-06 0.000204636 -4.44089e-11 -3.83795e-10 8.9179e-11 5e-05 1.46608e-10 
78 1 0.112739 0.0159726 0.0082755 0.00586773 -0.000742432 0.000127601 -6.86375e-11 -3.74053e-11 2.19283e-11 5e-05 1.46608e-10 
79 1 0.112956 0.0167861 0.00773596 0.00578479 -0.00074554 0.000133892 3.89469e-11 9.72391e-11 -6.76278e-11 5e-05 1.46608e-10 
80 1 0.1192 0.0177963 0.00720274 0.00539253 -1.60561e-05 0.000191293 1.70742e-10 2.42842e-11 1.34433e-10 5e-05 1.46608e-10 
81 1 0.112891 0.0165421 0.00789782 0.00580057 -0.000760843 0.000142808 -1.98656e-11 -4.8051e-11 3.14248e-11 5e-05 1.46608e-10 
82 1 0.113043 0.0171115 0.00752015 0.00577787 -0.000708161 0.000110473 -4.04492e-12 1.81086e-10 -1.08984e-10 5e-05 1.46608e-10 
83 1 0.113082 0.0165872 0.00785711 0.00579286 -0.000738575 0.000128608 2.03496e-11 -3.49954e-11 2.15656e-11 5e-05 1.46608e-10 
84 1 0.125213 0.0178311 0.00703138 0.00564588 0.000332927 -1.95761e-05 2.90055e-11 -6.86718e-11 2.0374e-11 5e-05 1.46608e-10 
85 1 0.112856 0.0160766 0.0082012 0.00586635 -0.000749091 0.000130542 -2.75709e-10 4.33679e-11 1.63544e-11 5e-05 1.46608e-10 
86 1 0.119219 0.0174464 0.00721622 0.00561131 -9.83777e-06 0.000208888 -5.66334e-11 -1.56064e-11 -1.48718e-11 5e-05 1.46608e-10 
87 1 0.11914 0.0166908 0.00756458 0.00607134 -0.000359608 -0.000189798 -2.77247e-10 -4.76408e-11 7.64376e-11 5e-05 1.46608e-10 
88 1 0.119213 0.0178494 0.00711895 0.00546912 -2.08124e-05 0.000207516 -6.56934e-11 3.13528e-10 5.70786e-11 5e-05 1.46608e-10 
89 1 0.119264 0.0179065 0.00718363 0.00549576 -4.01376e-05 0.000197998 -4.14278e-12 -7.50704e-11 -1.03686e-10 5e-05 1.46608e-10 
90 1 0.119391 0.0174163 0.00722982 0.00555445 -3.23132e-05 0.000211888 4.8446e-12 4.52121e-10 -1.17676e-10 5e-05 1.46608e-10 
91 1 0.112978 0.0168675 0.00768201 0.00577986 -0.000737773 0.000128897 5.59598e-11 1.38182e-10 -9.34561e-11 5e-05 1.46608e-10 
92 1 0.119406 0.017856 0.00712446 0.00552949 -2.44179e-05 0.000208467 1.39631e-10 -1.89993e-11 -9.2878e-12 5e-05 1.46608e-10 
93 1 0.119327 0.0179154 0.00710725 0.00549674 -6.92538e-06 0.000202268 4.9191e-11 -4.52698e-11 -5.60315e-11 5e-05 1.46608e-10 
94 1 0.119463 0.0181433 0.00705735 0.00554469 -2.86643e-05 0.000210401 -1.00038e-10 1.733e-11 -1.21803e-11 5e-05 1.46608e-10 
95 1 0.119411 0.0179243 0.00719729 0.00553317 -3.03201e-05 0.000210164 -2.5433e-10 7.62985e-11 -4.24735e-11 5e-05 1.46608e-10 
96 1 0.119425 0.0179516 0.0071021 0.00553294 -2.53607e-05 0.00020927 -1.33936e-10 1.03555e-10 -1.55699e-11 5e-05 1.46608e-10 
97 1 0.112848 0.0163794 0.00800573 0.00582166 -0.000764657 0.000144 6.0456e-11 7.30409e-11 -6.30079e-11 5e-05 1.46608e-10 
98 1 0.119232 0.0179449 0.00709665 0.00548027 -2.8532e-05 0.000207808 -5.62948e-12 1.9964e-11 -1.88061e-11 5e-05 1.46608e-10 
99 1 0.11303 0.0167273 0.00776957 0.00578381 -0.000740486 0.000130488 9.30672e-12 5.57681e-11 -3.62058e-11 5e-05 1.46608e-10 
100 1 0.119349 0.0172259 0.00727414 0.00551567 8.60463e-06 0.000200982 2.75656e-10 2.00521e-10 -3.91034e-11 5e-05 1.46608e-10 
101 1 0.112965 0.0164833 0.00793143 0.00580518 -0.000745998 0.000132805 3.67565e-11 -1.38382e-11 6.20256e-12 5e-05 1.46608e-10 
102 1 0.0643568 0.0187248 0.00531097 4.18523e-15 1.0529e-14 8.29603e-14 -1.00111e-21 7.27635e-22 -3.99115e-23 5e-05 1.46608e-10 
103 1 0.24257 0.0191927 0.00520306 -1.01195e-22 4.86658e-23 1.23839e-22 0 0 0 5e-05 1.46608e-10 
104 1 0.113331 0.0175711 0.00720533 0.00539006 -0.000588815 5.79667e-05 -6.64144e-11 2.23985e-10 -9.18354e-11 5e-05 1.46608e-10 
105 1 0.112805 0.0162167 0.00811364 0.00584107 -0.000755172 0.000135802 7.11599e-11 9.47101e-11 -5.83699e-11 5e-05 1.46608e-10 
106 1 0.113407 0.0175143 0.00723756 0.00539453 -0.000579746 4.97601e-05 -8.70896e-11 6.11689e-11 -3.49379e-11 5e-05 1.46608e-10 
107 1 0.112761 0.016054 0.00822155 0.00585814 -0.000745073 0.000129931 -8.73411e-11 -1.33071e-11 5.6538e-11 5e-05 1.46608e-10 
108 1 0.119045 0.0166742 0.00758825 0.00607622 -0.000413588 -0.000140424 -3.20354e-10 -1.48596e-10 1.4182e-10 5e-05 1.46608e-10 
109 1 0.119123 0.0174146 0.00722038 0.00559058 -2.72142e-05 0.000220582 -2.60007e-10 9.66314e-11 5.07893e-11 5e-05 1.46608e-10 
110 1 0.11935 0.018519 0.00696268 0.00556722 -4.62468e-05 0.000214775 -2.11344e-11 2.09113e-10 -6.6755e-11 5e-05 1.46608e-10 
111 1 0.119404 0.0182974 0.00701804 0.00553474 -3.42382e-05 0.000211037 -5.8357e-12 1.01182e-10 -2.21804e-11 5e-05 1.46608e-10 
112 1 0.11287 0.0164607 0.00795177 0.00581196 -0.000764002 0.000144167 3.16961e-11 7.76152e-12 -5.05345e-12 5e-05 1.46608e-10 
113 1 0.113645 0.0182761 0.00701585 0.00498514 -0.000472504 0.000290608 -4.1132e-10 -1.14081e-10 -4.36424e-11 5e-05 1.46608e-10 
114 1 0.113276 0.0173243 0.00736839 0.0054085 -0.000610542 6.89668e-05 1.08766e-10 7.24433e-12 -1.33106e-11 5e-05 1.46608e-10 
115 1 0.119179 0.0172564 0.00726054 0.0055588 1.44983e-06 0.000204308 -3.24614e-11 -8.44509e-11 4.72979e-11 5e-05 1.46608e-10 
116 1 0.119023 0.0166029 0.00765613 0.0061749 -0.000402839 -0.00015879 -2.82139e-10 -3.14783e-12 6.25442e-11 5e-05 1.46608e-10 
117 1 0.118872 0.0161072 0.0081283 0.00598441 -0.000442121 -0.000105423 -2.99674e-11 2.50271e-11 3.05582e-11 5e-05 1.46608e-10 
118 1 0.112697 0.0158177 0.00839397 0.00588375 -0.000733978 0.000113047 -1.15476e-11 -9.46853e-11 -1.8688e-11 5e-05 1.46608e-10 
119 1 0.119198 0.0169196 0.00738159 0.005401 -0.000180114 -0.000167963 -1.70464e-10 -4.47604e-11 2.17133e-10 5e-05 1.46608e-10 
120 1 0.118733 0.0159482 0.00828922 0.00596496 -0.000151423 0.000184731 -5.70363e-11 5.86758e-11 -9.39538e-11 5e-05 1.46608e-10 
121 1 0.11869 0.0158179 0.00843486 0.00589759 -0.000155538 0.000183607 -1.47883e-11 -5.78937e-11 5.29759e-11 5e-05 1.46608e-10 
122 1 0.119332 0.0184348 0.0070134 0.00552751 -3.02114e-05 0.000213908 1.21029e-10 3.09421e-10 -1.14213e-10 5e-05 1.46608e-10 
123 1 0.112901 0.016239 0.00809338 0.0058339 -0.000740521 0.000127262 7.72615e-11 9.66071e-12 -1.93211e-11 5e-05 1.46608e-10 
124 1 0.119308 0.0178199 0.00712955 0.00544482 2.08756e-06 0.000198422 -5.14543e-11 -1.48654e-10 5.95567e-11 5e-05 1.46608e-10 
125 1 0.11885 0.0160365 0.00819564 0.00596052 -0.000439588 -0.000107773 -5.62752e-11 9.63997e-11 2.3963e-11 5e-05 1.46608e-10 
126 1 0.119083 0.0172239 0.00726486 0.00557143 -1.77928e-05 0.000209828 6.76045e-11 -8.32912e-11 1.02073e-10 5e-05 1.46608e-10 
127 1 0.112826 0.016298 0.00805968 0.00582979 -0.000761626 0.000140844 6.20575e-11 1.28071e-10 -9.7953e-11 5e-05 1.46608e-10 
128 1 0.119181 0.0176983 0.00719983 0.00540189 6.54776e-06 0.000201971 3.93513e-11 -2.18224e-10 5.81024e-11 5e-05 1.46608e-10 
129 1 0.119428 0.0180204 0.00717464 0.0055611 -3.23639e-05 0.000212342 -3.87164e-10 1.2125e-10 -5.02993e-11 5e-05 1.46608e-10 
130 1 0.11316 0.0172168 0.0074449 0.00556632 -0.000617595 6.43364e-05 1.18089e-10 4.44784e-10 -2.92359e-10 5e-05 1.46608e-10 
131 1 0.113008 0.016646 0.00782352 0.00578964 -0.000744421 0.000132645 4.72594e-13 3.45517e-11 -2.09316e-11 5e-05 1.46608e-10 
132 1 0.119258 0.0177354 0.00714804 0.0053953 1.08525e-05 0.00018708 1.43376e-10 -3.06869e-10 2.2385e-10 5e-05 1.46608e-10 
133 1 0.119053 0.0164082 0.00783386 0.00617055 -0.000337352 -0.000219366 6.61994e-11 1.46036e-10 -1.43855e-10 5e-05 1.46608e-10 
134 1 0.119216 0.0170106 0.00734401 0.00538671 -8.74306e-05 1.75117e-05 7.36838e-11 8.03932e-11 7.00757e-11 5e-05 1.46608e-10 
135 1 0.118829 0.0159689 0.00826623 0.00597793 -0.000152655 0.000177031 8.36214e-11 -2.54758e-11 -9.85145e-11 5e-05 1.46608e-10 
136 1 0.112835 0.0159952 0.00825515 0.00587553 -0.000754169 0.000134423 -1.79994e-10 4.66138e-11 -4.9657e-13 5e-05 1.46608e-10 
137 1 0.119293 0.0182415 0.00702744 0.00554438 -2.51897e-05 0.000209293 -5.0324e-11 5.87304e-11 -1.80368e-11 5e-05 1.46608e-10 
138 1 0.11898 0.0164609 0.0077914 0.00608889 -0.000412752 -0.000143084 2.50706e-10 1.20362e-10 -1.3086e-10 5e-05 1.46608e-10 
140 1 0.119422 0.0183955 0.00699508 0.00552703 -2.03895e-05 0.000208073 7.50546e-11 2.33417e-10 -3.86568e-11 5e-05 1.46608e-10 
141 1 0.112878 0.0161579 0.00814724 0.00586084 -0.000746756 0.000128962 -6.78169e-11 2.55844e-12 9.99958e-12 5e-05 1.46608e-10 
142 1 0.113295 0.0174063 0.00731422 0.00541194 -0.000605673 6.567e-05 -1.20236e-10 3.01515e-11 -1.71017e-11 5e-05 1.46608e-10 
143 1 0.112783 0.0161353 0.00816759 0.00585369 -0.000750536 0.000131937 -5.05316e-11 4.53817e-11 -1.02669e-11 5e-05 1.46608e-10 
144 1 0.113257 0.0172424 0.00742254 0.00539106 -0.0006159 7.33103e-05 7.71667e-11 1.05546e-10 -7.42287e-11 5e-05 1.46608e-10 
146 1 0.113104 0.0166686 0.00780315 0.00579053 -0.000737777 0.000128262 1.4362e-10 -3.25261e-11 1.21379e-11 5e-05 1.46608e-10 
147 1 0.112813 0.0159139 0.00830911 0.00587633 -0.000755438 0.000135032 -1.67496e-10 3.22991e-11 -2.06516e-12 5e-05 1.46608e-10 
148 1 0.113106 0.0173559 0.00735823 0.00541343 -0.000616238 7.21751e-05 -6.09661e-10 1.41194e-10 -6.00207e-11 5e-05 1.46608e-10 
149 1 0.119384 0.0182019 0.00704033 0.00553952 -2.78763e-05 0.00020998 -2.56975e-11 1.08306e-10 -2.97513e-11 5e-05 1.46608e-10 
150 1 0.113147 0.0168313 0.00769521 0.00578159 -0.000723019 0.000119251 -3.31435e-11 3.4355e-11 -2.05033e-11 5e-05 1.46608e-10 
151 1 0.113524 0.0176122 0.00716716 0.00540753 -0.000601626 5.97446e-05 2.68927e-10 -2.18061e-10 1.24546e-10 5e-05 1.46608e-10 
153 1 0.112943 0.0164019 0.00798538 0.00582345 -0.000748861 0.00013354 5.81046e-11 1.49428e-11 -1.46359e-11 5e-05 1.46608e-10 
154 1 0.113219 0.0174631 0.007282 0.00543282 -0.000603566 5.92988e-05 -1.50711e-10 -4.54588e-12 -4.59293e-11 5e-05 1.46608e-10 
155 1 0.113273 0.0177099 0.00711904 0.00538334 -0.000588048 6.33479e-05 -8.00334e-11 1.01785e-11 6.3679e-11 5e-05 1.46608e-10 
156 1 0.1132 0.0173811 0.00733619 0.0054204 -0.000608703 6.66455e-05 -2.07422e-10 -1.87049e-10 1.29402e-10 5e-05 1.46608e-10 
157 1 0.0219312 0.0187687 0.00551176 -3.83796e-14 8.16372e-14 2.9589e-13 3.30846e-22 3.35525e-23 2.91581e-23 5e-05 1.46608e-10 
158 1 0.113361 0.0179337 0.0070721 0.0047203 0.000707074 -0.000682431 9.2514e-11 4.86475e-10 -1.86635e-10 5e-05 1.46608e-10 
159 1 0.119349 0.0176748 0.00716598 0.00559166 -3.76506e-05 0.000213469 -6.41131e-11 -1.28307e-10 5.5697e-11 5e-05 1.46608e-10 
160 1 0.113161 0.0176018 0.00719574 0.00542265 -0.000601721 6.61632e-05 1.56451e-10 5.32206e-11 4.63652e-11 5e-05 1.46608e-10 
162 1 0.113124 0.0174378 0.00730408 0.00543106 -0.000613254 6.77307e-05 -1.99096e-10 7.36648e-11 -2.84391e-11 5e-05 1.46608e-10 
164 1 0.113443 0.0180985 0.0069853 0.00536912 -0.000636996 0.000299699 -4.27095e-10 -5.40121e-11 6.3568e-13 5e-05 1.46608e-10 
165 1 0.113577 0.0178713 0.00702733 0.00538418 -0.000533948 0.000285529 -4.12543e-10 6.87799e-12 1.9292e-11 5e-05 1.46608e-10 
166 1 0.11901 0.0162668 0.00796856 0.00611377 -0.000425443 -0.000132971 -6.66673e-11 5.84813e-11 -5.03763e-11 5e-05 1.46608e-10 
167 1 0.113125 0.0167499 0.00774919 0.00578596 -0.000735409 0.000127027 8.97778e-11 2.46068e-11 -2.05243e-11 5e-05 1.46608e-10 
168 1 0.113425 0.0175968 0.00718306 0.0054159 -0.00056389 3.93867e-05 -1.23319e-10 5.41559e-11 2.36913e-11 5e-05 1.46608e-10 
169 1 0.113632 0.0181641 0.00700425 0.00510093 -0.000541462 0.000292358 -3.28752e-10 2.10645e-10 -1.33196e-11 5e-05 1.46608e-10 
170 1 0.113444 0.0176787 0.00712888 0.00546426 -0.000499708 -6.30273e-06 -1.36543e-10 1.54899e-10 -6.97161e-11 5e-05 1.46608e-10 
171 1 0.119032 0.0163375 0.00790121 0.00612193 -0.000399303 -0.000157999 3.44387e-11 -7.00707e-11 6.10997e-11 5e-05 1.46608e-10 
172 1 0.11356 0.0177807 0.00706598 0.00540977 -0.000582571 0.000167372 -5.74033e-10 1.14871e-10 1.56218e-10 5e-05 1.46608e-10 
173 1 0.119504 0.0178929 0.00711916 0.00552189 -7.78988e-06 0.000204659 -7.30647e-11 -1.29927e-10 2.92492e-11 5e-05 1.46608e-10 
174 1 0.113368 0.0177354 0.00709678 0.00538305 -0.00057716 4.72463e-05 -1.7138e-10 1.0453e-10 -4.25257e-11 5e-05 1.46608e-10 
175 1 0.107127 0.0174518 0.00729474 0.00544679 -0.000337821 0.000664554 5.83254e-12 7.55898e-12 -2.0682e-12 5e-05 1.46608e-10 
176 1 0.113181 0.0172988 0.0073906 0.00539374 -0.000620316 7.62646e-05 -2.54617e-10 1.72128e-10 -9.42971e-11 5e-05 1.46608e-10 
177 1 0.113197 0.0177661 0.00708739 0.00541521 -0.000621898 2.8996e-05 -4.39178e-11 -2.36873e-10 -1.46981e-10 5e-05 1.46608e-10 
178 1 0.113685 0.0180797 0.00699977 0.00515872 -0.000584486 0.000291681 -5.32152e-10 3.08205e-10 5.07264e-12 5e-05 1.46608e-10 
179 1 0.113591 0.0180471 0.00699032 0.00515183 -0.000526393 0.000298072 -2.26464e-10 -1.58243e-10 -2.07176e-11 5e-05 1.46608e-10 
181 1 0.113164 0.017615 0.00729481 0.00542543 -0.000615025 6.7635e-05 4.00945e-11 -2.62143e-11 1.13464e-10 5e-05 1.46608e-10 
182 1 0.118958 0.01639 0.00785887 0.00606953 -0.000442543 -0.000113612 6.33027e-11 -8.37783e-11 6.83298e-11 5e-05 1.46608e-10 
183 1 0.113349 0.0176534 0.00715096 0.00540529 -0.000581002 5.11316e-05 -1.66249e-10 -2.91249e-11 -8.64822e-12 5e-05 1.46608e-10 
184 1 0.119486 0.0177971 0.00714158 0.0055389 -5.18683e-08 0.000203848 -8.68203e-11 -1.18889e-10 3.66918e-11 5e-05 1.46608e-10 
185 1 0.113085 0.0172742 0.00741229 0.00551368 -0.000643779 8.44619e-05 -3.16636e-10 1.38686e-10 -6.75829e-11 5e-05 1.46608e-10 
186 1 0.113175 0.0175286 0.00734397 0.00543795 -0.000615682 6.244e-05 2.7113e-10 -2.53103e-11 8.96905e-12 5e-05 1.46608e-10 
187 1 0.11933 0.0171304 0.00729643 0.00553495 1.91965e-05 0.000197764 5.40547e-11 7.20518e-11 -4.51346e-11 5e-05 1.46608e-10 
188 1 0.119346 0.0180123 0.007091 0.0055274 -1.75451e-05 0.000209051 -7.46945e-11 9.05025e-11 -5.56489e-11 5e-05 1.46608e-10 
189 1 0.119371 0.0173211 0.00725199 0.00549226 -3.10179e-06 0.000202784 3.84467e-10 3.11582e-10 -5.36486e-11 5e-05 1.46608e-10 
190 1 0.107259 0.0176665 0.00721489 0.00535414 -0.000332306 0.00065335 -2.46411e-11 -5.87327e-12 -2.74963e-13 5e-05 1.46608e-10 
191 1 0.119313 0.018337 0.00700516 0.00554709 -3.18495e-05 0.000210779 4.79404e-11 1.84896e-10 -2.17173e-11 5e-05 1.46608e-10 
192 1 0.113371 0.0173501 0.00734598 0.00538673 -0.000570042 4.41125e-05 1.71522e-10 1.37968e-10 -9.95423e-11 5e-05 1.46608e-10 
193 1 0.119119 0.0166201 0.00763193 0.00614506 -0.000355106 -0.000200892 -2.07174e-10 -2.70928e-10 2.71172e-10 5e-05 1.46608e-10 
194 1 0.113192 0.0169951 0.00758656 0.00610383 -0.000522857 -2.97648e-05 -1.229e-10 1.47397e-10 -8.53164e-11 5e-05 1.46608e-10 
195 1 0.113618 0.017951 0.00698291 0.00527968 -0.000474219 0.000310709 1.94876e-11 -1.82393e-10 2.39147e-11 5e-05 1.46608e-10 
196 1 0.112592 0.0154244 0.0086796 0.00549766 -0.000196373 0.000638491 -9.03373e-11 -2.9325e-10 2.61325e-10 5e-05 1.46608e-10 
197 1 0.107184 0.0177241 0.00718288 0.00536283 -0.000323572 0.000650371 6.42509e-13 1.68341e-11 -8.59512e-12 5e-05 1.46608e-10 
198 1 0.113 0.0169488 0.00762805 0.00576983 -0.000727752 0.000123094 9.24392e-11 1.51289e-10 -9.97913e-11 5e-05 1.46608e-10 
199 1 0.113143 0.0175198 0.00724989 0.00543356 -0.000612931 6.62486e-05 9.20721e-11 7.72451e-11 -1.02201e-12 5e-05 1.46608e-10 
200 1 0.113117 0.0170531 0.0075535 0.00591845 -0.000641791 5.86725e-05 1.83408e-12 2.41249e-10 -1.49029e-10 5e-05 1.46608e-10 
201 1 0.113556 0.018232 0.00700562 0.00524148 -0.000976675 0.000258481 -3.87971e-10 2.75957e-10 -2.76657e-11 5e-05 1.46608e-10 
202 1 0.113389 0.0174321 0.00729179 0.00539688 -0.000573925 4.58525e-05 -2.91222e-10 1.71191e-10 -9.87095e-11 5e-05 1.46608e-10 
203 1 0.1195 0.0183348 0.00701255 0.00551562 -3.02727e-05 0.000209782 -1.26036e-11 8.33804e-11 -2.68236e-11 5e-05 1.46608e-10 
204 1 0.113096 0.0169717 0.00760745 0.00583812 -0.000623648 5.16961e-05 -1.55757e-11 2.30175e-10 -1.44641e-10 5e-05 1.46608e-10 
205 1 0.11341 0.0181344 0.00707222 0.00551432 -0.00053361 0.000309466 -1.08029e-10 1.98576e-10 8.22377e-11 5e-05 1.46608e-10 
206 1 0.113386 0.017818 0.00704226 0.00541278 -0.000665622 0.00010216 8.44793e-11 1.6147e-10 3.04901e-10 5e-05 1.46608e-10 
207 1 0.112923 0.0163203 0.00803943 0.00582486 -0.000742632 0.000129466 -4.06864e-11 6.39991e-11 -3.56793e-11 5e-05 1.46608e-10 
208 1 0.113237 0.0175451 0.00722783 0.00542027 -0.000600858 6.26766e-05 1.54204e-11 9.50338e-12 2.32476e-11 5e-05 1.46608e-10 
209 1 0.11317 0.0169137 0.00764052 0.00604917 -0.000418488 -9.39899e-05 -1.94798e-10 2.17789e-10 -1.29431e-10 5e-05 1.46608e-10 
210 1 0.119313 0.0177772 0.00721984 0.00544083 -2.97105e-05 0.000174125 4.11187e-10 6.89991e-12 -7.78186e-11 5e-05 1.46608e-10 
211 1 0.119444 0.0180474 0.00707971 0.00553 -1.9776e-05 0.000208449 -5.39011e-11 -6.70308e-11 1.16953e-11 5e-05 1.46608e-10 
212 1 0.113462 0.017761 0.00707457 0.0053945 -0.000576589 6.77212e-05 -5.1892e-10 1.88344e-10 1.65827e-10 5e-05 1.46608e-10 
213 1 0.11931 0.017035 0.00731868 0.00557793 1.94947e-05 0.000199635 -3.60505e-11 -1.32899e-10 8.61208e-11 5e-05 1.46608e-10 
214 1 0.119542 0.0180841 0.00707451 0.00553891 -3.5024e-05 0.000212225 -1.18895e-10 -1.00217e-10 2.07486e-11 5e-05 1.46608e-10 
215 1 0.10724 0.0175756 0.00725221 0.00534422 -0.000316916 0.000645846 -4.95882e-11 -3.50206e-11 1.01303e-11 5e-05 1.46608e-10 
216 1 0.113179 0.0176839 0.0071415 0.0054196 -0.000596177 6.23149e-05 3.79284e-11 -6.09338e-11 -2.98884e-11 5e-05 1.46608e-10 
217 1 0.119075 0.0164789 0.00776652 0.00622583 -0.000339178 -0.000222872 9.87655e-12 2.70932e-10 -2.4794e-10 5e-05 1.46608e-10 
218 1 0.113309 0.0178744 0.0070104 0.00540952 -0.00063207 8.51002e-05 -1.99031e-10 -6.90479e-11 -8.53699e-10 5e-05 1.46608e-10 
219 1 0.119365 0.0181063 0.00706262 0.00553772 -1.77449e-05 0.000208294 8.19216e-11 2.42249e-11 -4.88722e-12 5e-05 1.46608e-10 
220 1 0.113235 0.0177808 0.00717852 0.00552326 -0.000433203 -2.84035e-05 7.24937e-11 -7.98096e-11 -3.22148e-11 5e-05 1.46608e-10 
221 1 0.107141 0.0171215 0.00743843 0.00560817 -0.000367868 0.000692925 9.63551e-13 -7.84662e-12 3.36129e-12 5e-05 1.46608e-10 
222 1 0.119097 0.0165495 0.00769921 0.00605472 -0.000320458 -0.00022543 -2.16734e-10 -5.68309e-10 5.39496e-10 5e-05 1.46608e-10 
223 1 0.113313 0.0174883 0.00726004 0.00541258 -0.000601845 6.22867e-05 -1.60953e-10 6.63177e-11 -3.02451e-11 5e-05 1.46608e-10 
224 1 0.113065 0.0171955 0.00747051 0.00570817 -0.000684053 9.90247e-05 -8.50588e-11 1.12644e-10 -4.26467e-11 5e-05 1.46608e-10 
225 1 0.119394 0.0177639 0.00716167 0.0055533 -2.56084e-05 0.000207602 -3.86487e-11 -9.30515e-11 -2.48124e-11 5e-05 1.46608e-10 
226 1 0.113542 0.0176941 0.00711298 0.00540033 -0.000610333 7.67795e-05 2.02508e-10 -1.55354e-10 1.92432e-10 5e-05 1.46608e-10 
227 1 0.107201 0.0173937 0.0073269 0.00544287 -0.00034162 0.000665844 -9.06093e-12 -7.79973e-12 2.57527e-12 5e-05 1.46608e-10 
228 1 0.107146 0.0175426 0.00725748 0.00531831 -0.000317653 0.000643613 -8.30717e-14 1.0184e-11 -5.91007e-12 5e-05 1.46608e-10 
229 1 0.113183 0.0176972 0.00724053 0.00543356 -0.000545911 5.61793e-05 1.54719e-10 1.6219e-10 -2.02555e-11 5e-05 1.46608e-10 
230 1 0.113479 0.0182966 0.00700667 0.00530197 -0.000867611 0.000273613 -5.656e-10 -1.32662e-12 2.26671e-10 5e-05 1.46608e-10 
231 1 0.107107 0.0173611 0.00733195 0.00542379 -0.00033442 0.000660929 -6.67006e-12 -1.60619e-12 -4.22607e-13 5e-05 1.46608e-10 
232 1 0.11306 0.0165058 0.00791109 0.00578536 -0.000741639 0.000131068 -5.74548e-11 4.16834e-11 -2.36681e-11 5e-05 1.46608e-10 
233 1 0.113214 0.0170778 0.00753166 0.00579373 -0.000561652 1.39698e-05 -1.28585e-10 -7.86551e-12 1.25496e-11 5e-05 1.46608e-10 
234 1 0.119253 0.0180434 0.00707368 0.00551553 -5.86354e-05 0.000217392 -3.22246e-11 1.44678e-10 -5.04442e-11 5e-05 1.46608e-10 
235 1 0.113369 0.0186084 0.00702911 0.00580254 -0.000627142 0.000331133 8.99145e-11 -4.6007e-11 -5.64689e-12 5e-05 1.46608e-10 
236 1 0.113543 0.0185487 0.00703509 0.00579937 -0.000604029 0.000332475 2.07354e-10 1.81785e-10 2.57777e-11 5e-05 1.46608e-10 
237 1 0.113391 0.0187054 0.00703985 0.00579774 -0.000635206 0.000328831 -5.41517e-11 -2.23581e-10 -2.60231e-11 5e-05 1.46608e-10 
239 1 0.106923 0.0165458 0.00766576 0.00554103 -0.000345655 0.000676976 4.15571e-12 5.95777e-12 -2.15863e-13 5e-05 1.46608e-10 
240 1 0.106984 0.0168176 0.00755451 0.00557061 -0.000355649 0.000684035 2.42861e-12 3.56239e-12 -1.67353e-12 5e-05 1.46608e-10 
241 1 0.106902 0.0164616 0.00771562 0.00605954 -0.000759606 0.00018899 1.21319e-12 6.63587e-12 -4.33591e-12 5e-05 1.46608e-10 
242 1 0.113334 0.0171862 0.0074543 0.00553785 -0.000601504 5.53936e-05 7.29994e-11 1.01189e-10 -6.79023e-11 5e-05 1.46608e-10 
243 1 0.113073 0.01689 0.00766165 0.00577557 -0.000730153 0.000124221 9.40102e-11 1.30693e-10 -9.19131e-11 5e-05 1.46608e-10 
244 1 0.106943 0.0166364 0.00762868 0.00555087 -0.000348936 0.000679058 1.24365e-12 5.89242e-12 -5.93931e-12 5e-05 1.46608e-10 
246 1 0.107066 0.0171799 0.00740619 0.00561173 -0.000364341 0.000691709 -3.47587e-12 -1.03901e-11 3.33012e-12 5e-05 1.46608e-10 
247 1 0.113325 0.0179637 0.00696444 0.0054975 -0.000513114 0.000337977 6.40731e-10 8.159e-10 2.52566e-10 5e-05 1.46608e-10 