ITEM: TIMESTEP
10200000
ITEM: NUMBER OF ATOMS
287
ITEM: BOX BOUNDS ff ff ff
-0.02 0.43
-0.02 0.06
-0.02 0.07
ITEM: ATOMS id type x y z vx vy vz fx fy fz radius mass 
1 1 0.0722402 0.0161635 0.00807619 0.00602102 -0.000124582 9.18816e-05 2.77552e-11 -1.68618e-11 1.53896e-11 5e-05 1.46608e-10 
2 1 0.072664 0.0170429 0.00734585 0.00575659 -3.05469e-05 -1.98588e-06 3.91308e-10 5.90614e-12 -6.1187e-11 5e-05 1.46608e-10 
3 1 0.0660867 0.0159158 0.00823199 0.0059569 -0.000535525 0.000248492 1.37664e-11 1.07872e-11 -3.71437e-11 5e-05 1.46608e-10 
4 1 0.0725708 0.0174268 0.00722691 0.00553092 1.54209e-05 9.87382e-06 -5.24194e-12 -3.43844e-11 9.79379e-13 5e-05 1.46608e-10 
5 1 0.0721228 0.016065 0.00815817 0.00600532 -0.000108162 7.82199e-05 -1.31775e-11 -9.15711e-11 7.29737e-11 5e-05 1.46608e-10 
6 1 0.0782965 0.016645 0.00761615 0.00636599 0.00064234 -0.000351573 3.00553e-11 4.91304e-11 -2.74441e-11 5e-05 1.46608e-10 
7 1 0.0723176 0.016741 0.00759694 0.00611802 -0.000130741 9.70368e-05 1.33725e-11 8.53476e-11 -8.07078e-11 5e-05 1.46608e-10 
8 1 0.0720146 0.0156894 0.00846997 0.00595035 -7.81103e-05 5.36468e-05 4.4308e-11 -5.8582e-11 6.05287e-11 5e-05 1.46608e-10 
9 1 0.0785527 0.0177596 0.00702104 0.00582885 0.00077518 -0.000323368 -1.06404e-10 -2.7027e-11 2.90364e-11 5e-05 1.46608e-10 
10 1 0.0722526 0.0165157 0.00778401 0.00607879 -0.000129123 9.56796e-05 -5.7157e-12 -1.84211e-11 8.53997e-12 5e-05 1.46608e-10 
11 1 0.0726994 0.0171949 0.00722093 0.00558768 4.30641e-05 1.12083e-05 7.59158e-11 -6.15002e-11 -1.02243e-11 5e-05 1.46608e-10 
12 1 0.0663042 0.0167155 0.00767241 0.00596763 -0.000512913 0.000234509 -1.58605e-10 1.36699e-10 -7.64703e-11 5e-05 1.46608e-10 
13 1 0.0721011 0.0159899 0.00822053 0.00599742 -0.000102999 7.37569e-05 3.7789e-11 -5.34051e-11 3.99878e-11 5e-05 1.46608e-10 
14 1 0.0660026 0.0155954 0.00845613 0.00562933 -0.000457976 0.00020208 -1.58964e-10 1.51058e-10 -3.75461e-11 5e-05 1.46608e-10 
15 1 0.0724535 0.0169159 0.00745159 0.0059456 -5.57979e-05 3.38702e-05 -2.76209e-11 -1.41401e-10 1.37849e-10 5e-05 1.46608e-10 
16 1 0.0659836 0.0155149 0.00851241 0.00557273 -0.000477058 0.000144641 4.53855e-11 1.6263e-10 -5.12226e-11 5e-05 1.46608e-10 
17 1 0.072231 0.0164406 0.00784637 0.00605832 -0.000128841 9.50712e-05 3.48663e-11 -1.92864e-11 1.54175e-11 5e-05 1.46608e-10 
18 1 0.0784397 0.0172388 0.00727436 0.00597942 0.000685411 -0.000377316 -2.40735e-11 3.78958e-11 2.24966e-12 5e-05 1.46608e-10 
19 1 0.0720795 0.0159148 0.00828289 0.00598991 -9.48526e-05 6.68548e-05 1.1352e-11 -5.8928e-12 4.5087e-12 5e-05 1.46608e-10 
21 1 0.0722186 0.0160884 0.00813855 0.00600847 -0.000119286 8.74984e-05 1.00086e-11 -2.82099e-11 2.41954e-11 5e-05 1.46608e-10 
22 1 0.0723587 0.0168916 0.00747193 0.00594603 -8.1407e-05 5.5424e-05 -4.30374e-11 2.20942e-12 -1.08211e-11 5e-05 1.46608e-10 
23 1 0.066487 0.0170622 0.0074248 0.00502149 -0.000404096 0.000143866 5.65562e-11 2.53015e-10 -9.38918e-11 5e-05 1.46608e-10 
24 1 0.0784959 0.017493 0.00712531 0.00582389 0.000770575 -0.000317751 2.80272e-11 6.46633e-11 -6.45676e-11 5e-05 1.46608e-10 
25 1 0.0722959 0.0166659 0.00765929 0.0061094 -0.00013497 0.000100449 -6.63199e-11 8.07099e-11 -6.54945e-11 5e-05 1.46608e-10 
26 1 0.07838 0.016984 0.00742103 0.00585542 0.00070851 -0.000391538 1.52911e-11 -1.93615e-10 1.08102e-10 5e-05 1.46608e-10 
27 1 0.0663893 0.017035 0.0074474 0.00527372 -0.000403128 8.27301e-05 1.46682e-10 1.55348e-10 -1.8267e-10 5e-05 1.46608e-10 
28 1 0.0725509 0.0173289 0.00722425 0.00556565 6.39572e-06 1.09521e-05 4.63798e-11 2.55083e-12 -8.67817e-11 5e-05 1.46608e-10 
29 1 0.0720579 0.0158397 0.00834525 0.00598098 -8.65715e-05 5.98191e-05 -4.65451e-11 -3.38328e-12 5.70243e-12 5e-05 1.46608e-10 
30 1 0.0725865 0.0170916 0.00730559 0.00572209 1.68395e-05 -2.22125e-05 -9.41407e-11 -2.09221e-10 1.76985e-10 5e-05 1.46608e-10 
31 1 0.0723392 0.0168161 0.00753458 0.00613299 -0.000123129 8.99363e-05 -6.82479e-11 4.66287e-11 -3.64664e-11 5e-05 1.46608e-10 
32 1 0.072434 0.0168406 0.00751448 0.0061089 -9.653e-05 6.45058e-05 -1.03317e-10 1.93056e-10 -6.07656e-11 5e-05 1.46608e-10 
33 1 0.0783182 0.0167296 0.00756746 0.00636023 0.000641179 -0.000351123 7.04872e-12 8.33656e-11 -4.92055e-11 5e-05 1.46608e-10 
34 1 0.0722093 0.0163655 0.00790873 0.00605253 -0.000126862 9.33904e-05 5.12793e-12 6.97009e-12 -3.44711e-12 5e-05 1.46608e-10 
35 1 0.0724139 0.0167649 0.00757694 0.00615911 -0.000126366 9.35311e-05 -8.0223e-11 1.85622e-10 -1.52541e-10 5e-05 1.46608e-10 
36 1 0.0785918 0.0179557 0.0070154 0.00572698 0.000796337 -0.000315119 6.11929e-11 -5.15195e-11 -6.23776e-11 5e-05 1.46608e-10 
37 1 0.0723705 0.0166146 0.00770173 0.00611318 -0.000140836 0.000104915 -6.64772e-11 9.79318e-11 -7.15425e-11 5e-05 1.46608e-10 
38 1 0.0725287 0.0168651 0.00749361 0.00607238 -3.55206e-05 1.15856e-05 7.93972e-11 -2.63986e-10 2.89878e-10 5e-05 1.46608e-10 
39 1 0.0785146 0.0175773 0.00707488 0.00586775 0.00076317 -0.000312394 1.4945e-10 1.60238e-11 -2.91374e-11 5e-05 1.46608e-10 
41 1 0.0721661 0.0162152 0.00803345 0.00603026 -0.000116925 8.54013e-05 -2.42785e-11 -1.86554e-11 1.68222e-11 5e-05 1.46608e-10 
42 1 0.0723782 0.0169671 0.00740929 0.00586619 -5.88999e-05 3.74022e-05 2.19158e-10 1.88876e-11 -1.35681e-11 5e-05 1.46608e-10 
44 1 0.0725482 0.0169405 0.00743097 0.00593731 -1.53305e-05 -9.65574e-07 1.60592e-10 -3.43913e-10 3.21637e-10 5e-05 1.46608e-10 
45 1 0.0783399 0.0168142 0.00751876 0.00634487 0.000639664 -0.000350133 -9.57946e-11 -9.72659e-11 5.55334e-11 5e-05 1.46608e-10 
46 1 0.0784194 0.017154 0.00732321 0.00592516 0.000690758 -0.000381198 1.64893e-11 -1.16267e-11 -1.28208e-12 5e-05 1.46608e-10 
47 1 0.0721877 0.0162903 0.00797109 0.00604208 -0.000122244 8.97399e-05 -3.74974e-12 8.64673e-12 -5.87479e-12 5e-05 1.46608e-10 
48 1 0.0724142 0.0171184 0.00728364 0.00562881 -2.43707e-05 9.34036e-06 7.003e-11 1.5451e-10 -1.36052e-10 5e-05 1.46608e-10 
49 1 0.0783998 0.017069 0.00737212 0.0058847 0.000698935 -0.000385562 -1.57737e-12 -7.15362e-11 3.92041e-11 5e-05 1.46608e-10 
50 1 0.0724719 0.0173901 0.00722577 0.00555729 -2.64944e-05 1.09237e-05 3.52172e-11 3.25883e-12 -6.69878e-11 5e-05 1.46608e-10 
51 1 0.0724521 0.0172921 0.00722321 0.00558091 -2.66653e-05 -1.98394e-06 1.49479e-10 9.93912e-11 1.83077e-10 5e-05 1.46608e-10 
52 1 0.0662827 0.0166355 0.00772843 0.00596452 -0.000526829 0.00023352 -1.10752e-10 1.24256e-10 -5.56448e-11 5e-05 1.46608e-10 
53 1 0.0784589 0.0173239 0.0072254 0.00600372 0.000686463 -0.000376544 1.1368e-10 1.86454e-11 -6.92318e-11 5e-05 1.46608e-10 
54 1 0.0721969 0.0160133 0.00820091 0.00599867 -0.000112774 8.21928e-05 -4.01595e-11 -3.60562e-11 3.05695e-11 5e-05 1.46608e-10 
55 1 0.0660433 0.0157558 0.00834391 0.00595581 -0.000527703 0.000244162 -5.51887e-12 2.01871e-11 -1.0981e-11 5e-05 1.46608e-10 
56 1 0.0723922 0.0166897 0.00763933 0.00612692 -0.000135404 0.000100518 3.42997e-11 1.35279e-10 -1.1009e-10 5e-05 1.46608e-10 
57 1 0.0783603 0.0168991 0.00746993 0.00578113 0.000719272 -0.00040062 8.38392e-10 -5.39649e-10 2.60803e-10 5e-05 1.46608e-10 
59 1 0.0724456 0.0165637 0.00774382 0.0061392 -0.000121756 8.90829e-05 -3.29444e-11 5.57179e-11 -5.23583e-11 5e-05 1.46608e-10 
60 1 0.0724673 0.0166388 0.00768146 0.0061706 -0.000115171 8.35271e-05 -5.24974e-11 3.23091e-11 -2.28797e-11 5e-05 1.46608e-10 
61 1 0.0721444 0.0161401 0.00809581 0.00601765 -0.000112079 8.14428e-05 -4.66903e-11 -6.65116e-11 5.68686e-11 5e-05 1.46608e-10 
62 1 0.0725677 0.017016 0.00736832 0.00583131 4.77127e-06 -1.76652e-05 -9.93705e-11 -2.62884e-10 2.88582e-10 5e-05 1.46608e-10 
63 1 0.072509 0.0171427 0.00726329 0.00562825 -1.66864e-06 -8.50898e-06 3.12652e-11 8.08749e-11 -3.45123e-11 5e-05 1.46608e-10 
64 1 0.0784777 0.0174086 0.00717578 0.00586474 0.000760255 -0.000312767 -7.32162e-11 9.14739e-11 -5.66649e-12 5e-05 1.46608e-10 
65 1 0.0664019 0.0167415 0.0076523 0.00601451 -0.000447954 0.00014832 -5.89983e-11 1.09118e-10 -2.10862e-11 5e-05 1.46608e-10 
66 1 0.0663366 0.0165015 0.00782029 0.00595145 -0.000535054 0.000247754 4.73358e-11 9.37751e-11 -8.23361e-11 5e-05 1.46608e-10 
67 1 0.0726837 0.0171183 0.00728327 0.00565878 6.95418e-06 -2.42816e-06 2.63912e-10 -5.86627e-11 -5.596e-11 5e-05 1.46608e-10 
68 1 0.072626 0.0172629 0.00722262 0.00557819 3.7165e-05 8.72834e-06 -1.3582e-11 -1.02858e-10 1.79961e-12 5e-05 1.46608e-10 
69 1 0.0723052 0.0163889 0.00788911 0.00605324 -0.000134126 9.95293e-05 -4.29873e-11 -6.88578e-11 4.39316e-11 5e-05 1.46608e-10 
70 1 0.0785326 0.0176617 0.00702438 0.00591068 0.000751465 -0.000306972 1.0241e-10 -4.25626e-11 4.62481e-11 5e-05 1.46608e-10 
71 1 0.0660224 0.0156757 0.00839996 0.00583479 -0.000499774 0.000226164 -8.86008e-11 5.08385e-11 -5.33121e-11 5e-05 1.46608e-10 
72 1 0.0726058 0.0171671 0.00724299 0.00560079 4.0071e-05 -1.35168e-05 -1.87704e-10 -1.39319e-10 8.5939e-11 5e-05 1.46608e-10 
73 1 0.0722743 0.0165908 0.00772165 0.00610559 -0.000134145 9.95748e-05 -1.0148e-10 4.48994e-11 -4.00168e-11 5e-05 1.46608e-10 
74 1 0.072473 0.0169914 0.00738894 0.00587651 -4.83439e-05 3.05495e-05 1.06395e-10 -1.55832e-10 1.5917e-10 5e-05 1.46608e-10 
76 1 0.0666083 0.017623 0.00706268 0.00543898 -0.00046725 0.000215709 2.22929e-10 -2.01143e-10 1.32242e-10 5e-05 1.46608e-10 
77 1 0.0727143 0.0181116 0.00724551 0.00545376 2.36089e-06 1.00084e-05 1.01106e-10 4.93994e-11 3.17037e-12 5e-05 1.46608e-10 
78 1 0.0661085 0.0159958 0.00817603 0.00595684 -0.000537935 0.000250464 4.30928e-12 3.15865e-11 -4.4936e-13 5e-05 1.46608e-10 
79 1 0.0663258 0.0167957 0.0076168 0.00595925 -0.000507578 0.000210709 -4.82317e-11 1.61933e-10 -6.13778e-11 5e-05 1.46608e-10 
80 1 0.0725313 0.017684 0.00723373 0.00550977 -4.56165e-06 1.20765e-05 1.82576e-12 -1.34041e-10 -1.78206e-11 5e-05 1.46608e-10 
81 1 0.0662606 0.0165556 0.00778432 0.00595369 -0.000533365 0.000239356 -2.82943e-12 8.85659e-11 -2.8719e-11 5e-05 1.46608e-10 
82 1 0.0664092 0.0171148 0.0073905 0.00507265 -0.000355843 8.92654e-05 1.48061e-10 1.22245e-10 -1.66905e-10 5e-05 1.46608e-10 
83 1 0.0663982 0.0163754 0.00790657 0.00594523 -0.000550334 0.00025978 -1.06761e-11 8.6692e-13 -4.83382e-12 5e-05 1.46608e-10 
84 1 0.0785724 0.0178576 0.00701822 0.00572736 0.000797257 -0.000318924 -1.84393e-10 -1.70986e-11 4.87176e-11 5e-05 1.46608e-10 
85 1 0.0662056 0.0160209 0.00815661 0.0059596 -0.000538412 0.000251069 2.03672e-12 -8.5247e-12 3.91224e-13 5e-05 1.46608e-10 
86 1 0.0725311 0.0172309 0.00722159 0.0055896 3.00071e-06 6.60525e-06 -1.21528e-10 9.19739e-11 -1.40463e-10 5e-05 1.46608e-10 
87 1 0.0724239 0.0164886 0.00780618 0.00612357 -0.000126768 9.32643e-05 -1.38061e-12 1.36976e-11 -7.01136e-12 5e-05 1.46608e-10 
88 1 0.0725924 0.0179776 0.0072417 0.00541554 2.32782e-05 1.06831e-05 1.40893e-11 -6.19993e-11 -2.33545e-14 5e-05 1.46608e-10 
89 1 0.0725511 0.017782 0.00723638 0.00537478 2.45925e-05 1.0198e-05 -8.91926e-12 -7.36824e-11 -3.82711e-12 5e-05 1.46608e-10 
90 1 0.0726452 0.0169673 0.00740858 0.00576722 -3.25626e-05 1.28603e-05 3.30572e-10 9.50948e-11 -8.09263e-11 5e-05 1.46608e-10 
91 1 0.0663475 0.0168752 0.00756014 0.00596187 -0.00052323 0.000165951 1.39651e-13 1.45315e-10 -1.06324e-10 5e-05 1.46608e-10 
92 1 0.0726657 0.0174588 0.00722794 0.00554077 4.43939e-05 1.0606e-05 6.28181e-12 -3.40405e-11 6.46063e-12 5e-05 1.46608e-10 
93 1 0.0726502 0.0178187 0.00723755 0.00543343 2.32544e-05 1.0479e-05 -1.13287e-11 -4.46286e-11 -4.27502e-13 5e-05 1.46608e-10 
94 1 0.0727253 0.0177527 0.00723592 0.00546162 5.84363e-05 1.14415e-05 3.88008e-11 -1.85918e-11 -2.1979e-12 5e-05 1.46608e-10 
95 1 0.0725115 0.017586 0.00723106 0.00552597 -1.34913e-05 9.3719e-06 5.59275e-11 -2.16023e-10 -4.59662e-12 5e-05 1.46608e-10 
96 1 0.0726855 0.0175568 0.0072306 0.00553491 4.1171e-05 1.1036e-05 -5.3195e-11 -3.28611e-11 -1.21847e-12 5e-05 1.46608e-10 
97 1 0.0662176 0.0163955 0.00789628 0.00595013 -0.000542009 0.000253519 -7.5154e-12 5.75963e-11 -2.83683e-11 5e-05 1.46608e-10 
98 1 0.0726138 0.0180752 0.00724435 0.00543935 2.33908e-05 1.04909e-05 -3.83537e-11 -1.13769e-10 -1.11497e-12 5e-05 1.46608e-10 
99 1 0.0663802 0.0166614 0.00770839 0.00597024 -0.000526293 0.000242029 -1.55614e-10 1.45645e-10 -1.12371e-10 5e-05 1.46608e-10 
100 1 0.0726063 0.0168164 0.00753388 0.00556923 -4.54052e-06 -7.35236e-06 1.23746e-10 1.5883e-10 -1.33768e-10 5e-05 1.46608e-10 
101 1 0.0663149 0.0164215 0.00787626 0.00594787 -0.000542498 0.000252903 1.96682e-11 5.53354e-11 -2.36719e-11 5e-05 1.46608e-10 
102 1 0.0643568 0.0187248 0.00531097 4.1516e-15 1.06061e-14 8.29522e-14 5.28904e-22 -3.62977e-22 1.44757e-23 5e-05 1.46608e-10 
103 1 0.24257 0.0191927 0.00520306 3.10422e-23 -1.27651e-22 1.23839e-22 0 0 0 5e-05 1.46608e-10 
104 1 0.0666303 0.0173533 0.00725642 0.00545903 -0.00054221 0.000240753 -2.26323e-10 -7.87296e-11 -9.30694e-11 5e-05 1.46608e-10 
105 1 0.0661737 0.0162357 0.00800815 0.00595104 -0.000543509 0.000256091 -1.35031e-12 2.46493e-11 -2.29293e-11 5e-05 1.46608e-10 
106 1 0.0667149 0.0173003 0.00725131 0.00548114 -0.000528865 0.000225741 -1.67892e-10 -5.88534e-11 1.15114e-11 5e-05 1.46608e-10 
107 1 0.0661304 0.0160757 0.00812009 0.00595596 -0.000540728 0.000252565 6.65068e-12 3.8123e-11 1.15714e-11 5e-05 1.46608e-10 
108 1 0.0723489 0.0165395 0.00776409 0.0061117 -0.000135511 0.000101056 -8.56027e-11 -4.71455e-11 3.70385e-11 5e-05 1.46608e-10 
109 1 0.0724322 0.0171941 0.00722081 0.00560565 -2.39692e-05 2.79494e-06 3.73829e-11 1.8796e-10 -9.94716e-11 5e-05 1.46608e-10 
110 1 0.0727803 0.0175886 0.00723162 0.00553238 5.63192e-05 1.15826e-05 1.09458e-10 -6.3814e-11 2.65556e-12 5e-05 1.46608e-10 
111 1 0.0726568 0.0182705 0.00724966 0.00547226 -1.5324e-05 9.48657e-06 7.85106e-12 3.97859e-11 -2.85171e-12 5e-05 1.46608e-10 
112 1 0.0662389 0.0164756 0.00784027 0.00595062 -0.000537893 0.000248709 3.54721e-11 6.92176e-11 -4.4329e-11 5e-05 1.46608e-10 
113 1 0.0670179 0.0177978 0.00707641 0.00535446 -0.000458217 0.000215937 -7.51133e-11 2.62763e-10 -5.59096e-12 5e-05 1.46608e-10 
114 1 0.0665911 0.0170966 0.00739772 0.00510764 -0.000478916 0.000191426 1.47832e-10 1.95632e-11 -7.32006e-12 5e-05 1.46608e-10 
115 1 0.0724915 0.017067 0.00732617 0.00575099 -2.06577e-05 6.03223e-06 2.70822e-10 -1.1736e-10 9.31539e-11 5e-05 1.46608e-10 
116 1 0.0723272 0.0164643 0.00782645 0.0060752 -0.000125853 9.30662e-05 -1.44974e-10 -4.52091e-11 3.63587e-11 5e-05 1.46608e-10 
117 1 0.0721753 0.0159382 0.00826327 0.00598859 -0.000106365 7.6852e-05 -2.02684e-11 -6.18634e-11 4.87414e-11 5e-05 1.46608e-10 
118 1 0.066065 0.0158358 0.00828795 0.00595776 -0.000531991 0.000247086 1.59949e-11 2.17217e-11 -5.58942e-12 5e-05 1.46608e-10 
119 1 0.0724889 0.0167139 0.00761909 0.00620873 -0.000103431 7.40045e-05 -4.1436e-10 1.29112e-10 -9.36089e-11 5e-05 1.46608e-10 
120 1 0.0720362 0.0157645 0.00840761 0.00596457 -7.9858e-05 5.42637e-05 -1.87107e-10 -2.32487e-11 3.54876e-11 5e-05 1.46608e-10 
121 1 0.0719932 0.0156143 0.00853238 0.0055478 -8.67178e-06 -3.25689e-06 8.20978e-13 -4.70886e-11 3.76135e-11 5e-05 1.46608e-10 
122 1 0.0728004 0.0176865 0.00723428 0.00551281 5.81272e-05 1.15036e-05 4.27791e-11 -6.43105e-11 -2.37843e-12 5e-05 1.46608e-10 
123 1 0.0662491 0.016181 0.00804453 0.00594271 -0.000552746 0.000261265 -3.92493e-11 1.678e-12 1.29954e-12 5e-05 1.46608e-10 
124 1 0.0726104 0.0176228 0.00723223 0.00551821 1.51639e-05 1.06548e-05 -5.63678e-11 -9.06901e-11 -6.71975e-12 5e-05 1.46608e-10 
125 1 0.0721537 0.0158631 0.00832563 0.00597957 -0.000100861 7.21321e-05 3.03913e-11 -7.36648e-11 5.52885e-11 5e-05 1.46608e-10 
126 1 0.0723966 0.0170427 0.00734652 0.00571367 -3.46731e-05 1.78407e-05 3.2118e-10 9.04577e-11 -6.9378e-11 5e-05 1.46608e-10 
127 1 0.0661957 0.0163156 0.00795222 0.00595017 -0.000544527 0.000254514 -3.01375e-11 5.4333e-11 4.82453e-13 5e-05 1.46608e-10 
128 1 0.0724917 0.017488 0.0072284 0.00554279 -2.23879e-05 1.2371e-05 3.99563e-11 -1.51157e-10 1.09477e-11 5e-05 1.46608e-10 
129 1 0.0725709 0.01788 0.00723904 0.00539364 2.02987e-05 9.92353e-06 -6.60097e-11 2.44418e-11 4.22801e-12 5e-05 1.46608e-10 
130 1 0.0665073 0.0171424 0.00736799 0.00512808 -0.000453397 0.000173589 -2.30789e-10 -1.70178e-11 2.30158e-11 5e-05 1.46608e-10 
131 1 0.0663587 0.0165814 0.00776437 0.00595674 -0.000528057 0.000242721 -5.39967e-11 1.38303e-10 -7.0861e-11 5e-05 1.46608e-10 
132 1 0.0725906 0.0175248 0.00722957 0.0055225 1.61704e-05 1.06451e-05 -1.25799e-10 -3.35909e-11 -4.08683e-12 5e-05 1.46608e-10 
133 1 0.0723362 0.0161871 0.00805647 0.0060368 -0.000122376 8.98515e-05 6.71545e-12 -9.59976e-11 7.73171e-11 5e-05 1.46608e-10 
134 1 0.072509 0.0167894 0.00755642 0.00613492 -7.86823e-05 5.4969e-05 -1.80264e-10 3.01722e-10 -2.67943e-10 5e-05 1.46608e-10 
135 1 0.072132 0.015788 0.008388 0.00597281 -9.60053e-05 6.80353e-05 4.26465e-11 -6.58441e-11 4.99005e-11 5e-05 1.46608e-10 
136 1 0.0661837 0.0159409 0.00821255 0.00596123 -0.000537864 0.000250684 -2.95298e-11 -1.82767e-11 4.43698e-13 5e-05 1.46608e-10 
137 1 0.0726782 0.0183682 0.00725231 0.00549496 -1.88744e-05 9.24672e-06 -4.87233e-11 3.60026e-11 -1.6672e-12 5e-05 1.46608e-10 
138 1 0.0722835 0.0163138 0.00795147 0.00604257 -0.000132346 9.79884e-05 -2.5688e-11 -5.33341e-11 5.29611e-11 5e-05 1.46608e-10 
140 1 0.0728215 0.0177842 0.00723693 0.00546299 6.74984e-05 1.16991e-05 -4.72437e-11 -5.07388e-11 -2.55809e-12 5e-05 1.46608e-10 
141 1 0.0662273 0.016101 0.00810056 0.00595329 -0.000543673 0.000254822 1.02682e-11 4.19553e-11 -3.11763e-11 5e-05 1.46608e-10 
142 1 0.0666103 0.0171767 0.00734099 0.00528707 -0.000522398 0.00021654 1.03553e-10 -5.3659e-11 3.52629e-11 5e-05 1.46608e-10 
143 1 0.0661519 0.0161557 0.00806411 0.00595234 -0.000543134 0.000253401 -2.7494e-12 1.2452e-11 -3.62305e-11 5e-05 1.46608e-10 
144 1 0.066571 0.0170167 0.00745438 0.00498947 -0.000458158 0.000177191 -1.58387e-10 1.49612e-10 -8.59414e-11 5e-05 1.46608e-10 
146 1 0.06642 0.0164554 0.00785058 0.0060067 -0.000462843 0.000197414 7.60539e-12 4.69509e-11 -2.51629e-11 5e-05 1.46608e-10 
147 1 0.0661616 0.0158606 0.00826875 0.00595703 -0.000535882 0.000249215 9.43057e-11 7.0267e-11 -5.09629e-11 5e-05 1.46608e-10 
148 1 0.0664643 0.0173552 0.00721988 0.00549899 -0.000448408 0.000148369 -3.62023e-12 -2.21032e-10 1.90378e-10 5e-05 1.46608e-10 
149 1 0.0727468 0.0178506 0.00723858 0.00542898 3.35836e-05 1.07154e-05 -1.45056e-11 -3.20525e-11 -9.67479e-13 5e-05 1.46608e-10 
150 1 0.066464 0.0166157 0.00773835 0.00597462 -0.000533522 0.000247058 -1.50515e-10 1.62833e-10 -1.00035e-10 5e-05 1.46608e-10 
151 1 0.0667908 0.0173525 0.00721252 0.00544699 -0.000496296 0.000193205 -1.63757e-10 -1.52761e-10 6.59527e-11 5e-05 1.46608e-10 
153 1 0.0662936 0.0163414 0.00793227 0.00594802 -0.000545924 0.000256841 -3.67457e-11 1.29466e-11 -1.87711e-11 5e-05 1.46608e-10 
154 1 0.0665569 0.017385 0.00719632 0.0054966 -0.000507687 0.00020565 -2.0907e-10 2.24498e-11 -1.28662e-10 5e-05 1.46608e-10 
155 1 0.0666323 0.0177255 0.00706225 0.00540311 -0.000457809 0.000218216 1.84865e-10 -3.15624e-11 3.23512e-11 5e-05 1.46608e-10 
156 1 0.0665432 0.0173039 0.00725367 0.00552423 -0.000395433 0.000117131 2.18627e-10 1.10647e-10 -8.99611e-11 5e-05 1.46608e-10 
157 1 0.0219312 0.0187687 0.00551176 -3.83025e-14 8.16847e-14 2.95887e-13 1.12411e-21 5.62483e-22 -9.30578e-24 5e-05 1.46608e-10 
158 1 0.0666244 0.0174579 0.00720728 0.00542415 -0.000435075 0.000111097 -8.40848e-11 -1.68396e-10 2.49421e-10 5e-05 1.46608e-10 
159 1 0.0726459 0.0173608 0.00722528 0.00555283 4.21474e-05 1.10175e-05 2.8136e-11 -6.93305e-11 1.18503e-12 5e-05 1.46608e-10 
160 1 0.0665375 0.0176936 0.00705945 0.00544889 -0.000498235 0.000228189 8.37757e-11 -8.56816e-11 1.31192e-10 5e-05 1.46608e-10 
162 1 0.0665517 0.0174668 0.00713906 0.00556591 -0.000510829 0.000200711 -1.1228e-10 -2.19093e-11 -7.37493e-12 5e-05 1.46608e-10 
164 1 0.066802 0.0180803 0.00706417 0.00540515 -0.000453284 0.000217627 -2.87406e-11 8.82055e-11 4.22035e-12 5e-05 1.46608e-10 
165 1 0.0668915 0.0175681 0.00707451 0.0053485 -0.000424103 0.00021853 -2.60815e-11 -1.2347e-10 -3.65381e-11 5e-05 1.46608e-10 
166 1 0.0722928 0.0160368 0.00818125 0.00599781 -0.00012683 9.35613e-05 4.18944e-11 -7.29438e-11 6.21627e-11 5e-05 1.46608e-10 
167 1 0.0664425 0.0165357 0.00779434 0.00596658 -0.000513226 0.000233388 -7.68505e-11 3.22706e-11 -2.05575e-11 5e-05 1.46608e-10 
168 1 0.066695 0.0173894 0.00718933 0.00536662 -0.000432989 0.000150403 -2.02882e-10 -4.84452e-11 7.07728e-11 5e-05 1.46608e-10 
169 1 0.0669426 0.0178635 0.00707258 0.00537781 -0.000426797 0.000216171 -1.62774e-10 9.21198e-11 -9.82081e-12 5e-05 1.46608e-10 
170 1 0.0667661 0.0175223 0.00709405 0.00545045 -0.000418804 0.000136907 -1.18668e-10 -3.56767e-11 5.57147e-11 5e-05 1.46608e-10 
171 1 0.0723145 0.0161119 0.00811889 0.00601143 -0.000129478 9.56976e-05 -2.30239e-12 -9.92556e-11 8.2083e-11 5e-05 1.46608e-10 
172 1 0.0668559 0.0174857 0.00711862 0.00539608 -0.0004407 0.000232692 -9.13956e-11 -9.45347e-11 6.01633e-14 5e-05 1.46608e-10 
173 1 0.0727771 0.0171458 0.00726024 0.00560142 3.28461e-05 -3.2014e-05 1.88871e-10 -6.78368e-11 -1.6793e-11 5e-05 1.46608e-10 
174 1 0.0666986 0.0175961 0.00709623 0.00543944 -0.000439639 0.000182277 3.32708e-11 -1.3555e-10 1.77929e-10 5e-05 1.46608e-10 
175 1 0.0604693 0.0173755 0.00717459 0.00570647 0.000140819 -5.79894e-05 3.98853e-11 4.54583e-11 4.03113e-11 5e-05 1.46608e-10 
176 1 0.066527 0.0172231 0.00731079 0.00533244 -0.000489025 0.000192606 2.15554e-10 1.76422e-11 -1.37861e-11 5e-05 1.46608e-10 
177 1 0.0665762 0.0178898 0.00705786 0.00543377 -0.000480217 0.000220529 -2.88887e-11 -2.86418e-10 -1.42742e-11 5e-05 1.46608e-10 
178 1 0.066999 0.0176996 0.00707697 0.00532631 -0.00044978 0.000215382 1.42525e-10 2.15889e-10 -9.40143e-13 5e-05 1.46608e-10 
179 1 0.0669233 0.0177654 0.00707313 0.00535037 -0.000424132 0.000214347 -3.56664e-11 2.47114e-11 1.37049e-11 5e-05 1.46608e-10 
181 1 0.0665053 0.0175483 0.00719119 0.0054404 -0.000470782 0.00017577 -1.41021e-10 -1.52763e-10 6.77108e-10 5e-05 1.46608e-10 
182 1 0.0722619 0.0162387 0.00801383 0.00603256 -0.000128956 9.52158e-05 7.61611e-12 -2.88e-11 2.71596e-11 5e-05 1.46608e-10 
183 1 0.066689 0.0174712 0.00713211 0.00546192 -0.000434586 0.000147885 -8.04975e-11 -1.03802e-10 1.28572e-10 5e-05 1.46608e-10 
184 1 0.0725891 0.0173699 0.00730707 0.00554982 4.16955e-05 5.33299e-06 -2.6105e-11 -1.3492e-10 3.51576e-11 5e-05 1.46608e-10 
185 1 0.0664483 0.0172757 0.00727841 0.00541187 -0.000421684 0.000136584 -6.75722e-11 -1.25505e-10 4.93144e-11 5e-05 1.46608e-10 
186 1 0.066485 0.0174527 0.00721249 0.00547825 -0.000460478 0.000144817 -7.84285e-11 -2.5288e-10 3.68775e-10 5e-05 1.46608e-10 
187 1 0.0725867 0.0167409 0.00759651 0.00615523 -8.40562e-05 5.66486e-05 -4.54865e-10 2.53647e-10 -2.24561e-10 5e-05 1.46608e-10 
188 1 0.0726714 0.0179164 0.0072402 0.00541628 2.1928e-05 1.04298e-05 1.7546e-11 -1.38862e-11 9.16868e-13 5e-05 1.46608e-10 
189 1 0.0726259 0.0168918 0.00747124 0.00564783 -1.80225e-05 4.0574e-06 -3.27056e-11 1.72986e-10 -1.49089e-10 5e-05 1.46608e-10 
190 1 0.0605841 0.0175053 0.00717076 0.00568281 0.00016185 -6.46372e-05 1.28073e-10 1.67606e-10 -5.79247e-11 5e-05 1.46608e-10 
191 1 0.0726997 0.0184658 0.00725497 0.00551172 -2.67036e-05 9.34637e-06 8.89924e-11 2.88185e-11 -1.43765e-12 5e-05 1.46608e-10 
192 1 0.0666991 0.017138 0.00736567 0.00527697 -0.000524063 0.000218766 7.61749e-11 -5.37842e-11 4.03082e-11 5e-05 1.46608e-10 
193 1 0.0724023 0.0164134 0.00786854 0.00606803 -0.00012182 8.93227e-05 -6.01925e-11 4.50073e-11 -3.36453e-11 5e-05 1.46608e-10 
194 1 0.0665075 0.0167753 0.0076256 0.0060651 -0.00038745 9.87625e-05 -2.23635e-10 1.41404e-10 -1.04135e-10 5e-05 1.46608e-10 
195 1 0.0669044 0.0176672 0.0070737 0.00533424 -0.000422037 0.000217646 1.19883e-10 -3.23926e-11 -1.21885e-11 5e-05 1.46608e-10 
196 1 0.0659641 0.0154481 0.00858416 0.00557342 -4.11019e-05 0.000541491 -2.00472e-11 2.4278e-11 -2.11035e-10 5e-05 1.46608e-10 
197 1 0.0605288 0.0176694 0.00716816 0.00566028 0.000168645 -3.14596e-05 -9.14374e-11 -6.92052e-11 -1.26283e-10 5e-05 1.46608e-10 
198 1 0.0663691 0.0169549 0.00750368 0.00573362 -0.00048893 0.000120828 -1.28841e-10 2.15456e-10 -1.94784e-10 5e-05 1.46608e-10 
199 1 0.0665057 0.0175401 0.00708892 0.00561072 -0.000507769 0.000193281 -1.83474e-10 -2.77572e-10 1.17312e-10 5e-05 1.46608e-10 
200 1 0.0664667 0.0169818 0.00748183 0.00552408 -0.000123752 -6.66659e-05 5.5076e-11 1.14483e-10 -1.30917e-10 5e-05 1.46608e-10 
201 1 0.0668967 0.0181126 0.00706746 0.00553362 -0.000464793 0.00022309 -1.06695e-10 8.07344e-11 -1.42974e-11 5e-05 1.46608e-10 
202 1 0.0667159 0.0172184 0.00730873 0.00544924 -0.000538778 0.000227294 1.42382e-11 -5.59654e-11 1.30334e-11 5e-05 1.46608e-10 
203 1 0.0728012 0.017235 0.00722219 0.00557499 6.85245e-05 1.56038e-05 1.88481e-10 -9.43972e-11 -8.45196e-13 5e-05 1.46608e-10 
204 1 0.0664456 0.0169011 0.00753909 0.00588341 -0.000317974 5.37717e-05 -2.2652e-10 1.98854e-10 -1.4549e-10 5e-05 1.46608e-10 
205 1 0.0667632 0.0178841 0.00706527 0.00539151 -0.000423336 0.000217217 1.41295e-10 -1.31812e-10 -3.84407e-12 5e-05 1.46608e-10 
206 1 0.0667248 0.0176878 0.00706638 0.00538876 -0.000412536 0.000216044 2.24044e-11 -4.0613e-11 8.33747e-11 5e-05 1.46608e-10 
207 1 0.0662717 0.0162615 0.00798821 0.00594676 -0.000547337 0.000256777 -6.08656e-11 1.12827e-11 -2.27732e-11 5e-05 1.46608e-10 
208 1 0.0666164 0.0175284 0.00709407 0.00546824 -0.000455188 0.000172945 7.45734e-11 -1.47653e-10 1.08155e-10 5e-05 1.46608e-10 
209 1 0.0664857 0.0166957 0.00768207 0.00604571 -0.000389445 9.83288e-05 -2.62968e-10 1.6375e-10 -6.75479e-11 5e-05 1.46608e-10 
210 1 0.0724727 0.0172349 0.00730263 0.0055815 2.91205e-06 6.49667e-06 4.71276e-11 1.10957e-10 -1.87169e-10 5e-05 1.46608e-10 
211 1 0.0727053 0.0176548 0.00723326 0.00550858 5.06404e-05 1.11958e-05 -2.91095e-11 -4.43608e-11 1.3608e-12 5e-05 1.46608e-10 
212 1 0.0667937 0.0176154 0.00707005 0.00540601 -0.000387079 0.00021602 -3.78448e-11 -1.33304e-10 -3.96703e-11 5e-05 1.46608e-10 
213 1 0.0725667 0.0166655 0.0076591 0.00622196 -9.25064e-05 6.45019e-05 -3.42318e-10 2.53074e-10 -2.15591e-10 5e-05 1.46608e-10 
214 1 0.0726302 0.0177208 0.00723489 0.00548112 1.86498e-05 1.04998e-05 -2.12854e-11 -5.62427e-11 -4.61643e-12 5e-05 1.46608e-10 
215 1 0.0605642 0.0174071 0.00717291 0.00569698 0.000165926 -6.49352e-05 2.23084e-11 3.07688e-11 1.97032e-11 5e-05 1.46608e-10 
216 1 0.0665569 0.0177917 0.00705841 0.00538752 -0.000473737 0.000222537 8.32449e-11 -1.23061e-10 2.85437e-11 5e-05 1.46608e-10 
217 1 0.0723578 0.0162622 0.0079941 0.00604505 -0.00013186 9.77238e-05 -2.64956e-11 -7.71208e-11 6.02527e-11 5e-05 1.46608e-10 
218 1 0.0666708 0.017922 0.00706114 0.00539503 -0.000431934 0.000216821 -1.46333e-11 -2.64044e-11 4.21883e-12 5e-05 1.46608e-10 
219 1 0.0726353 0.0181729 0.00724701 0.00544963 -1.01064e-05 9.85511e-06 5.9159e-11 4.35789e-11 -3.48751e-13 5e-05 1.46608e-10 
220 1 0.0665247 0.0176276 0.0071335 0.0054597 -0.000480969 0.000221913 1.23302e-10 4.86997e-11 6.31816e-10 5e-05 1.46608e-10 
221 1 0.060475 0.017031 0.00745396 0.00576241 0.000127966 -3.56976e-05 -1.46858e-11 -1.05965e-10 1.07824e-10 5e-05 1.46608e-10 
222 1 0.0723795 0.0163373 0.00793172 0.00605883 -0.000132404 9.83077e-05 -5.16053e-11 -3.50177e-11 3.30417e-11 5e-05 1.46608e-10 
223 1 0.0666264 0.0172573 0.00728399 0.00538535 -0.000540789 0.000223693 1.93205e-10 -1.29484e-10 2.53739e-11 5e-05 1.46608e-10 
224 1 0.0664292 0.0171945 0.0073336 0.00521137 -0.000375487 0.0001188 -2.29654e-10 8.39554e-11 -3.47997e-11 5e-05 1.46608e-10 
225 1 0.0727209 0.0172946 0.00722364 0.00557151 7.30618e-05 1.25045e-05 8.65739e-11 -8.27424e-11 2.41184e-12 5e-05 1.46608e-10 
226 1 0.0667788 0.0174339 0.00715573 0.00541548 -0.00049416 0.00019714 -7.58035e-11 -1.28881e-10 3.04347e-11 5e-05 1.46608e-10 
227 1 0.0605297 0.0172392 0.00724517 0.00572873 0.00014689 -5.57438e-05 9.79862e-12 -3.17488e-11 3.44643e-11 5e-05 1.46608e-10 
228 1 0.0604893 0.0174734 0.00717243 0.00568666 0.000151614 -6.47101e-05 9.1544e-11 4.84934e-11 -3.07422e-11 5e-05 1.46608e-10 
229 1 0.066555 0.0175018 0.00726438 0.00546458 -0.000420334 0.000151089 -1.07571e-10 -4.06256e-10 5.88337e-10 5e-05 1.46608e-10 
230 1 0.0668412 0.0182764 0.0070631 0.00541229 -0.000485699 0.00021877 1.57109e-10 -2.84975e-11 7.09666e-12 5e-05 1.46608e-10 
231 1 0.0604494 0.0172812 0.00720153 0.00569039 0.000142891 -5.22185e-05 -2.09147e-11 -1.20028e-11 4.07699e-11 5e-05 1.46608e-10 
232 1 0.0663769 0.0162953 0.00796258 0.00594565 -0.00055205 0.000260929 -4.63702e-11 -1.79669e-11 1.11233e-11 5e-05 1.46608e-10 
233 1 0.0665291 0.0168549 0.00756911 0.00585106 -0.000350093 8.01231e-05 -2.76969e-10 8.8315e-11 -5.90694e-11 5e-05 1.46608e-10 
234 1 0.0726935 0.0180139 0.00724285 0.00543727 1.18018e-05 1.01491e-05 1.00291e-10 1.7728e-11 2.63102e-12 5e-05 1.46608e-10 
235 1 0.0668833 0.0184723 0.00706214 0.00572036 -0.000566543 0.000231769 7.54352e-11 -1.16867e-10 3.27337e-12 5e-05 1.46608e-10 
236 1 0.0668619 0.0183744 0.0070626 0.00576576 -0.000497106 0.000232788 1.53e-10 3.38206e-10 1.96532e-13 5e-05 1.46608e-10 
237 1 0.066937 0.0183085 0.00706643 0.00578338 -0.000502042 0.000233312 7.05164e-12 1.23979e-10 -7.63724e-13 5e-05 1.46608e-10 
239 1 0.060275 0.0166605 0.00782274 0.00595996 -0.000128018 -0.00024451 1.48645e-10 -1.50016e-10 -4.52884e-10 5e-05 1.46608e-10 
240 1 0.0603395 0.016868 0.0076159 0.00602521 9.62718e-05 -1.20898e-06 1.55316e-10 -1.73325e-11 1.99263e-11 5e-05 1.46608e-10 
241 1 0.0602534 0.0165894 0.00788968 0.0059351 -0.000299742 -0.000423165 5.28422e-11 2.62538e-10 -2.09152e-10 5e-05 1.46608e-10 
242 1 0.0666598 0.016978 0.00747906 0.00507044 -0.000502774 0.000209169 1.81657e-11 -1.78808e-11 2.01613e-11 5e-05 1.46608e-10 
243 1 0.0664239 0.0168213 0.00759565 0.00601085 -0.000457601 0.000146397 -2.52397e-10 2.82783e-11 -2.62351e-12 5e-05 1.46608e-10 
244 1 0.0602965 0.01673 0.00775415 0.00598406 0.000104044 -7.68434e-06 -3.80349e-11 -2.89659e-11 -9.94103e-11 5e-05 1.46608e-10 
246 1 0.0604186 0.0171587 0.00735567 0.00576151 0.000133351 -3.94615e-05 5.32607e-11 -5.11977e-11 9.16961e-11 5e-05 1.46608e-10 