ITEM: TIMESTEP
19600000
ITEM: NUMBER OF ATOMS
287
ITEM: BOX BOUNDS ff ff ff
-0.02 0.43
-0.02 0.06
-0.02 0.07
ITEM: ATOMS id type x y z vx vy vz fx fy fz radius mass 
1 1 0.127084 0.0162501 0.00789527 0.00558355 -7.12082e-05 0.000602327 1.45738e-09 -2.28035e-09 2.136e-09 5e-05 1.46608e-10 
2 1 0.127572 0.0174524 0.00714418 0.00554443 -0.00111071 0.00031805 -1.6508e-10 1.14312e-11 2.10501e-11 5e-05 1.46608e-10 
3 1 0.120867 0.0158609 0.00837838 0.00593282 0.00029049 -0.000725024 1.44553e-11 -1.01719e-11 2.48979e-11 5e-05 1.46608e-10 
4 1 0.127421 0.0175802 0.00711313 0.00553359 -0.00113906 0.000320894 8.46683e-11 2.52983e-10 -1.74715e-11 5e-05 1.46608e-10 
5 1 0.126967 0.0161501 0.00797585 0.00602977 -5.00562e-05 0.000625989 2.79577e-10 8.32868e-10 -7.034e-10 5e-05 1.46608e-10 
6 1 0.132967 0.0161122 0.0079115 0.00547033 -0.000830254 0.000349098 -3.32125e-13 1.32585e-12 -9.30795e-13 5e-05 1.46608e-10 
7 1 0.12716 0.0168443 0.00744125 0.00590211 -0.00109691 0.000654586 1.41683e-09 -2.28382e-09 1.63458e-09 5e-05 1.46608e-10 
8 1 0.126865 0.0157839 0.00830215 0.00546119 -0.000225561 0.000732694 -6.83456e-11 1.91816e-10 -1.86914e-10 5e-05 1.46608e-10 
9 1 0.133245 0.0173249 0.0075196 0.00587473 -5.9829e-05 -0.000143582 -1.53243e-13 1.22941e-12 -4.08594e-13 5e-05 1.46608e-10 
10 1 0.127095 0.0165973 0.00759847 0.00603205 -0.000632914 0.00112437 4.64102e-10 1.64578e-09 1.13795e-09 5e-05 1.46608e-10 
11 1 0.127626 0.0176475 0.00709911 0.00533197 -0.001053 0.00029857 6.19612e-11 -1.80925e-10 4.22805e-11 5e-05 1.46608e-10 
12 1 0.121073 0.0164992 0.00763674 0.00643008 0.000187312 -0.000644828 4.70316e-11 -2.5266e-10 -4.64589e-10 5e-05 1.46608e-10 
13 1 0.126946 0.0160771 0.00804082 0.00596665 -0.000168634 0.000729099 1.02803e-10 3.10838e-10 -2.69474e-10 5e-05 1.46608e-10 
14 1 0.120785 0.0156058 0.0086748 0.00574961 0.000327417 -0.000717406 1.73595e-10 3.4976e-11 -1.71033e-10 5e-05 1.46608e-10 
15 1 0.127296 0.0170371 0.00731993 0.00548514 -0.000973943 0.00055513 1.02738e-09 1.08891e-10 -2.0003e-10 5e-05 1.46608e-10 
16 1 0.120765 0.015541 0.00874824 0.00560076 0.000525337 -0.000571735 9.74817e-12 6.14504e-11 -3.51396e-11 5e-05 1.46608e-10 
17 1 0.127074 0.0165151 0.00765104 0.0060536 -0.000594182 0.00110476 -8.39618e-10 -2.75006e-11 1.09615e-09 5e-05 1.46608e-10 
18 1 0.133116 0.0167602 0.00769626 0.00580992 -0.00072807 0.000699136 4.63651e-13 1.08817e-12 -2.72845e-13 5e-05 1.46608e-10 
19 1 0.126925 0.0160041 0.00810578 0.00593778 -0.000175165 0.00073266 9.66804e-11 3.17611e-10 -2.82037e-10 5e-05 1.46608e-10 
21 1 0.127063 0.0161771 0.0079602 0.00604262 -0.000113188 0.000685209 -1.24464e-11 3.07641e-10 -2.80886e-10 5e-05 1.46608e-10 
22 1 0.127202 0.0170104 0.00733765 0.00550596 -0.000899311 0.000492989 3.14249e-10 -8.67741e-10 -4.88359e-10 5e-05 1.46608e-10 
23 1 0.121272 0.0169296 0.00735012 0.00581653 0.000597338 -0.000314059 -2.29002e-13 -6.50235e-12 1.65713e-09 5e-05 1.46608e-10 
24 1 0.13318 0.0170406 0.00761095 0.00573375 -0.000713827 0.000688471 3.66991e-13 1.22049e-12 -2.61607e-13 5e-05 1.46608e-10 
25 1 0.127139 0.0167616 0.00749303 0.00596094 -0.00106353 0.000724655 1.99495e-09 -4.66202e-10 1.56449e-09 5e-05 1.46608e-10 
26 1 0.133052 0.0164797 0.00778157 0.00588609 -0.000742303 0.000709809 6.94207e-13 9.19432e-13 -1.7701e-13 5e-05 1.46608e-10 
27 1 0.121157 0.0168078 0.00739888 0.0055414 0.000678938 -0.000251923 2.96665e-10 -2.27563e-10 4.19572e-10 5e-05 1.46608e-10 
28 1 0.127397 0.017486 0.00713656 0.00559026 -0.00114681 0.000326122 1.06977e-10 2.9129e-10 -3.31858e-10 5e-05 1.46608e-10 
29 1 0.126904 0.0159311 0.00817082 0.00545662 -0.000128656 0.000642395 9.95937e-11 3.47008e-10 -3.06478e-10 5e-05 1.46608e-10 
30 1 0.12745 0.0173258 0.00717291 0.00562701 -0.00124152 0.000164237 -1.67212e-10 1.67353e-10 -1.15598e-09 5e-05 1.46608e-10 
31 1 0.127182 0.0169272 0.00738954 0.00567401 -0.000959891 0.000540071 -2.51692e-11 -1.51902e-09 1.30271e-09 5e-05 1.46608e-10 
32 1 0.127277 0.0169539 0.00737184 0.0052421 -0.000937236 0.000524166 4.52055e-10 1.48438e-10 -2.68161e-11 5e-05 1.46608e-10 
33 1 0.132988 0.0161993 0.00786687 0.00596228 -0.000756486 0.00072048 1.27312e-12 6.46566e-13 -3.01629e-13 5e-05 1.46608e-10 
34 1 0.127052 0.0164421 0.007716 0.0059404 -0.000596917 0.00120456 7.66264e-10 -9.17328e-10 -7.94145e-11 5e-05 1.46608e-10 
35 1 0.127257 0.0168707 0.00742372 0.00516058 -0.000912873 0.000504111 1.68107e-10 1.19639e-10 5.06632e-11 5e-05 1.46608e-10 
36 1 0.133292 0.0175259 0.00744465 0.00582223 -0.000108486 -0.000124283 -5.10037e-13 6.44852e-13 -2.21794e-13 5e-05 1.46608e-10 
37 1 0.127214 0.016705 0.0075271 0.00592806 -0.00103269 0.000601372 4.11778e-09 -6.8021e-10 7.74593e-10 5e-05 1.46608e-10 
38 1 0.127391 0.0170646 0.00730172 0.00543728 -0.00119081 0.000677714 2.6808e-10 -3.80098e-10 2.48383e-10 5e-05 1.46608e-10 
39 1 0.133201 0.0171341 0.00758251 0.00570839 -0.000709101 0.000684883 1.96957e-13 1.20475e-12 -1.44297e-12 5e-05 1.46608e-10 
41 1 0.12701 0.0162961 0.00784592 0.00605538 -0.000202335 0.000755566 -1.29295e-09 -5.18357e-09 4.7765e-09 5e-05 1.46608e-10 
42 1 0.12722 0.0170938 0.00728564 0.0055119 -0.000874143 0.000484583 2.02324e-10 2.5017e-10 -4.04797e-11 5e-05 1.46608e-10 
44 1 0.12741 0.0171479 0.00724973 0.00560328 -0.00118128 0.000664435 2.12424e-10 1.13789e-10 -6.53003e-11 5e-05 1.46608e-10 
45 1 0.133009 0.0162928 0.00783844 0.00593687 -0.000751766 0.000716916 8.83199e-13 7.86949e-13 -2.15085e-13 5e-05 1.46608e-10 
46 1 0.133094 0.0166667 0.00772469 0.00583531 -0.000732814 0.000702688 3.85325e-13 1.02257e-12 -2.4819e-13 5e-05 1.46608e-10 
47 1 0.127031 0.0163691 0.00778096 0.00592106 -0.000525164 0.00109594 1.75434e-09 3.60259e-09 -2.86169e-09 5e-05 1.46608e-10 
48 1 0.127258 0.0172626 0.00718534 0.00557838 -0.00113415 0.000322533 -1.02967e-11 -5.49794e-11 1.28619e-11 5e-05 1.46608e-10 
49 1 0.133073 0.0165732 0.00775313 0.00586071 -0.00073756 0.000706252 6.39277e-13 9.87393e-13 -3.46011e-13 5e-05 1.46608e-10 
50 1 0.12732 0.0175486 0.00711909 0.00559036 -0.00118914 0.000324981 -1.20214e-10 1.60186e-10 -1.76705e-11 5e-05 1.46608e-10 
51 1 0.127299 0.0174533 0.00714132 0.00560265 -0.00120184 0.000274105 8.38879e-11 6.09785e-11 -1.22812e-10 5e-05 1.46608e-10 
52 1 0.121053 0.0164355 0.00771102 0.00635317 0.000190695 -0.000624175 -3.33214e-10 2.35383e-10 -1.04708e-10 5e-05 1.46608e-10 
53 1 0.133137 0.0168536 0.00766782 0.00578454 -0.00072332 0.00069557 3.15972e-13 1.22726e-12 -5.41217e-13 5e-05 1.46608e-10 
54 1 0.127041 0.0161041 0.00802517 0.00597904 -8.91362e-05 0.000656596 -1.62611e-10 5.00194e-10 -4.84618e-10 5e-05 1.46608e-10 
55 1 0.120827 0.0157334 0.0085265 0.00591667 0.000285089 -0.000726661 -2.01439e-10 2.21523e-10 -1.74987e-10 5e-05 1.46608e-10 
56 1 0.127236 0.0167878 0.00747542 0.00579819 -0.00100288 0.000568868 -2.39192e-10 -1.21342e-10 2.50357e-10 5e-05 1.46608e-10 
57 1 0.133031 0.0163863 0.00781 0.00591149 -0.000747037 0.000713365 7.5375e-13 8.23167e-13 -2.23863e-13 5e-05 1.46608e-10 
59 1 0.127311 0.0167318 0.00750929 0.00600743 -0.00109301 0.00059116 -4.77364e-10 6.14227e-10 -6.41375e-10 5e-05 1.46608e-10 
60 1 0.127333 0.0168148 0.0074575 0.00551861 -0.00057484 0.000283871 8.94823e-11 -3.21103e-10 1.953e-10 5e-05 1.46608e-10 
61 1 0.126989 0.0162231 0.00791089 0.00603883 -0.000114764 0.000686785 8.75382e-11 3.66391e-10 -3.34422e-10 5e-05 1.46608e-10 
62 1 0.127428 0.0172313 0.00719777 0.00573476 -0.00116868 0.00068624 1.53306e-10 4.34163e-10 -6.40362e-11 5e-05 1.46608e-10 
63 1 0.127354 0.0172982 0.00719029 0.00571874 -0.00111937 0.000458472 3.41765e-11 4.22057e-10 3.10481e-10 5e-05 1.46608e-10 
64 1 0.133158 0.0169471 0.00763939 0.00575914 -0.000718569 0.000692002 3.0653e-14 1.29189e-12 -2.17235e-13 5e-05 1.46608e-10 
65 1 0.121191 0.0165878 0.00754085 0.00646475 -0.00145811 -0.00312812 1.92519e-09 -3.61886e-10 5.34341e-10 5e-05 1.46608e-10 
66 1 0.121128 0.0163897 0.00775794 0.00641011 0.000188726 -0.000632161 1.49637e-10 1.73716e-10 -1.79589e-10 5e-05 1.46608e-10 
67 1 0.127586 0.0175582 0.00711957 0.00540745 -0.00108174 0.000311587 1.58142e-10 -1.57217e-10 1.92785e-11 5e-05 1.46608e-10 
68 1 0.127496 0.0175154 0.00712866 0.00547095 -0.00119928 0.000340698 -2.18983e-11 9.51242e-11 -1.33572e-10 5e-05 1.46608e-10 
69 1 0.127148 0.0164692 0.00770029 0.0062427 -0.000496018 0.00106447 -4.83121e-10 -2.58374e-10 -2.27563e-13 5e-05 1.46608e-10 
70 1 0.133222 0.0172275 0.00755408 0.00568295 -0.000704355 0.000681342 -4.84837e-13 1.65051e-12 3.11675e-13 5e-05 1.46608e-10 
71 1 0.120806 0.0156697 0.00860067 0.00585217 0.000291897 -0.000727584 -6.02194e-11 3.43439e-10 1.99994e-11 5e-05 1.46608e-10 
72 1 0.127472 0.0174208 0.00715054 0.0056136 -0.00113641 0.000318986 -2.70449e-10 1.45091e-10 -1.4066e-10 5e-05 1.46608e-10 
73 1 0.127117 0.0166793 0.00754545 0.00600487 -0.000819372 0.000953106 2.65773e-10 1.58771e-09 2.82758e-09 5e-05 1.46608e-10 
74 1 0.127315 0.0171204 0.00726797 0.00554906 -0.00100472 0.000560539 6.70454e-10 5.05494e-10 -3.20567e-10 5e-05 1.46608e-10 
76 1 0.121396 0.0175019 0.0072153 0.00588684 0.000558895 -0.000380952 -4.07684e-11 -2.35366e-11 2.60605e-12 5e-05 1.46608e-10 
77 1 0.127425 0.0180588 0.00706896 0.00523987 -0.00115787 0.000802336 -1.98277e-11 -1.86795e-10 -8.10338e-11 5e-05 1.46608e-10 
78 1 0.120888 0.0159248 0.00830426 0.00598243 0.000270251 -0.000705096 8.37496e-12 -3.86898e-11 3.06022e-11 5e-05 1.46608e-10 
79 1 0.121094 0.0165673 0.00756665 0.00658624 4.39586e-05 -0.000753525 1.04599e-09 -9.06448e-10 -1.30042e-09 5e-05 1.46608e-10 
80 1 0.127358 0.0177376 0.0071674 0.00549678 -0.00120059 0.000404205 1.62089e-10 6.16502e-10 -1.26658e-11 5e-05 1.46608e-10 
81 1 0.121032 0.0163716 0.00778522 0.00627378 0.000186915 -0.000639701 1.481e-10 8.67363e-11 -4.78298e-11 5e-05 1.46608e-10 
82 1 0.121177 0.0169023 0.0073734 0.00573139 0.000624474 -0.000323893 1.02591e-10 -1.11438e-11 -2.83242e-10 5e-05 1.46608e-10 
83 1 0.121226 0.0164093 0.00772919 0.00648519 0.000171942 -0.000589744 3.7217e-10 2.17615e-10 1.70202e-10 5e-05 1.46608e-10 
84 1 0.133269 0.0174255 0.00748207 0.00584879 -8.27221e-05 -0.000134466 -3.93836e-13 6.6571e-13 -2.29474e-13 5e-05 1.46608e-10 
85 1 0.121004 0.0160066 0.00820315 0.00636426 0.00045676 -0.000942987 -3.52578e-11 1.34825e-10 -1.56073e-10 5e-05 1.46608e-10 
86 1 0.127375 0.0173919 0.00716235 0.00567241 -0.00114154 0.000361029 1.736e-10 4.4115e-10 6.38364e-12 5e-05 1.46608e-10 
87 1 0.127289 0.0166489 0.00756105 0.00605882 -0.000955492 0.000517922 4.11933e-09 -2.90372e-09 1.90316e-09 5e-05 1.46608e-10 
88 1 0.127365 0.0177656 0.00707171 0.00535925 -0.00118232 0.00040076 -8.23001e-11 7.91491e-11 -2.32476e-10 5e-05 1.46608e-10 
89 1 0.127431 0.0178235 0.00714289 0.00541964 -0.00133003 0.000485252 3.66243e-11 3.22098e-11 -8.65368e-11 5e-05 1.46608e-10 
90 1 0.127548 0.0173578 0.00716604 0.00559626 -0.00116477 0.000333934 -1.41748e-10 8.58533e-11 -8.78797e-11 5e-05 1.46608e-10 
91 1 0.121116 0.0166441 0.00750631 0.00646582 0.000124033 -0.000712536 4.07296e-10 -1.15631e-09 -1.3769e-09 5e-05 1.46608e-10 
92 1 0.127571 0.0178101 0.00706658 0.00539392 -0.00106935 0.000871203 -1.2363e-10 -3.62688e-11 -1.12745e-10 5e-05 1.46608e-10 
93 1 0.127485 0.0178593 0.00705571 0.00535896 -0.00111001 0.000859191 -1.20505e-10 5.57183e-11 2.49345e-11 5e-05 1.46608e-10 
94 1 0.127628 0.0181108 0.00710649 0.00515793 -0.00101419 0.000837567 -7.21683e-11 -1.55225e-10 -2.77599e-11 5e-05 1.46608e-10 
95 1 0.12753 0.0178647 0.00714466 0.00539122 -0.00118157 0.000846681 -2.08139e-11 1.78346e-12 -1.10297e-10 5e-05 1.46608e-10 
96 1 0.127592 0.0179102 0.00708014 0.00537185 -0.00111878 0.000867096 -6.82916e-11 4.91566e-11 -9.43867e-12 5e-05 1.46608e-10 
97 1 0.120991 0.0162441 0.00793354 0.0062388 0.000206368 -0.000643164 -8.25122e-11 -5.45172e-12 2.43256e-10 5e-05 1.46608e-10 
98 1 0.127385 0.0178632 0.00706335 0.00533852 -0.00116941 0.000593975 -7.75605e-11 5.7903e-11 -8.3651e-11 5e-05 1.46608e-10 
99 1 0.12117 0.0165177 0.00760924 0.00654577 0.000157274 -0.000574246 6.4758e-10 1.92364e-10 -7.45413e-10 5e-05 1.46608e-10 
100 1 0.127504 0.0171753 0.00723159 0.00565798 -0.0013073 0.000740954 1.53595e-10 7.16478e-10 -4.11336e-10 5e-05 1.46608e-10 
101 1 0.121108 0.0163258 0.00783219 0.00633127 0.000219283 -0.00067874 -1.85887e-10 8.26088e-12 1.91989e-11 5e-05 1.46608e-10 
102 1 0.0643568 0.0187248 0.00531097 4.44866e-15 1.04646e-14 8.29552e-14 2.78152e-22 -2.99569e-22 2.91581e-23 5e-05 1.46608e-10 
103 1 0.24257 0.0191927 0.00520306 1.19201e-22 4.86658e-23 1.23839e-22 0 0 0 5e-05 1.46608e-10 
104 1 0.121471 0.0174361 0.00722698 0.00588942 0.00055347 -0.000378509 -3.06857e-12 3.87695e-11 -1.31818e-11 5e-05 1.46608e-10 
105 1 0.12095 0.0161162 0.00808173 0.00613514 0.000232068 -0.000670569 -1.67991e-10 -6.33382e-11 1.3192e-10 5e-05 1.46608e-10 
106 1 0.121545 0.0173703 0.00723865 0.00588877 0.000546711 -0.000377266 3.94765e-11 5.06663e-11 -1.29603e-11 5e-05 1.46608e-10 
107 1 0.120909 0.0159886 0.00823004 0.00604663 0.000248541 -0.000685426 -8.04593e-12 -6.95528e-11 8.22069e-11 5e-05 1.46608e-10 
108 1 0.127192 0.0166242 0.00758207 0.00608511 -0.000855973 0.000774844 9.2924e-11 2.07558e-10 -1.55336e-10 5e-05 1.46608e-10 
109 1 0.127279 0.0173579 0.00716325 0.00558998 -0.00112227 0.00031987 -1.13981e-11 -5.78792e-11 1.34091e-11 5e-05 1.46608e-10 
110 1 0.127503 0.0184433 0.00711645 0.00531034 -0.00121333 0.000847196 4.42491e-11 -1.17458e-10 1.76628e-11 5e-05 1.46608e-10 
111 1 0.127559 0.0182807 0.00711059 0.00489458 -0.00123497 0.000767449 -1.46403e-10 -7.95791e-11 1.61685e-11 5e-05 1.46608e-10 
112 1 0.121012 0.0163077 0.00785922 0.00624757 0.00019579 -0.000640962 2.62475e-11 -5.77399e-11 -7.20275e-13 5e-05 1.46608e-10 
113 1 0.121758 0.0182259 0.00703595 0.00563691 0.000565525 -0.00037048 -3.22008e-10 -1.19167e-10 2.59839e-11 5e-05 1.46608e-10 
114 1 0.121409 0.0171502 0.00729431 0.0058353 0.000535811 -0.000371889 2.85924e-11 7.52811e-11 -2.01464e-11 5e-05 1.46608e-10 
115 1 0.127334 0.0172038 0.00721596 0.00561228 -0.00103895 0.000550886 3.19506e-11 4.17588e-10 -2.88312e-10 5e-05 1.46608e-10 
116 1 0.12717 0.0165455 0.00763979 0.00610716 -0.000546118 0.00114101 3.92135e-10 1.07797e-10 9.31175e-10 5e-05 1.46608e-10 
117 1 0.12702 0.0160311 0.00809014 0.00541743 -9.04941e-06 0.000529471 1.3264e-10 4.32297e-10 -3.97351e-10 5e-05 1.46608e-10 
118 1 0.120847 0.0158016 0.0084563 0.00593675 0.000287178 -0.000726377 1.76969e-11 1.10868e-10 -1.17736e-10 5e-05 1.46608e-10 
119 1 0.127353 0.016898 0.00740561 0.00488644 -0.00129304 0.000743586 6.78703e-10 4.90877e-11 -2.68867e-11 5e-05 1.46608e-10 
120 1 0.126884 0.0158571 0.00823686 0.00544055 -0.000222553 0.00072766 1.5637e-10 3.81033e-10 -3.34152e-10 5e-05 1.46608e-10 
121 1 0.126845 0.0157107 0.00836744 0.00546701 -0.000214862 0.000723285 9.51939e-11 3.65891e-10 -3.27314e-10 5e-05 1.46608e-10 
122 1 0.127483 0.0183455 0.00712434 0.00508921 -0.00117104 0.000808777 -1.02568e-10 -2.16366e-10 -3.53265e-11 5e-05 1.46608e-10 
123 1 0.121046 0.0161344 0.00805465 0.00615774 0.000190901 -0.00062535 -1.09386e-10 -1.47865e-10 2.30068e-10 5e-05 1.46608e-10 
124 1 0.127465 0.0177625 0.00707133 0.00534914 -0.00117208 0.000339819 -4.10762e-11 1.02352e-10 -7.3505e-11 5e-05 1.46608e-10 
125 1 0.126999 0.0159581 0.00815517 0.00504289 4.8365e-05 0.000441018 -8.07301e-10 -1.10596e-11 -6.21718e-11 5e-05 1.46608e-10 
126 1 0.127239 0.0171771 0.00723369 0.00556991 -0.000895759 0.000471999 -4.24609e-10 2.53357e-10 -1.06325e-10 5e-05 1.46608e-10 
127 1 0.12097 0.0161801 0.00800761 0.00619082 0.000222865 -0.000657051 -2.007e-11 -5.27331e-11 2.01297e-10 5e-05 1.46608e-10 
128 1 0.127339 0.0176403 0.00715436 0.00559674 -0.00121097 0.000365407 9.18869e-12 4.03785e-10 4.27133e-11 5e-05 1.46608e-10 
129 1 0.127546 0.0179777 0.00715861 0.00532898 -0.00114694 0.000856756 -1.03953e-10 -3.56929e-11 4.47334e-11 5e-05 1.46608e-10 
130 1 0.121294 0.0170254 0.00732751 0.00582322 0.000557773 -0.00037252 -3.75373e-11 2.89227e-10 -3.63206e-11 5e-05 1.46608e-10 
131 1 0.121149 0.0164537 0.00768364 0.00645737 0.000175278 -0.000608436 2.17595e-10 1.79196e-10 -3.23184e-10 5e-05 1.46608e-10 
132 1 0.127407 0.0176764 0.00709011 0.00545841 -0.00114991 0.000331772 -3.6852e-11 1.68208e-10 1.1038e-10 5e-05 1.46608e-10 
133 1 0.1272 0.0163505 0.00781429 0.00608848 -0.00058059 0.00113298 2.07212e-09 -1.63977e-09 4.35417e-09 5e-05 1.46608e-10 
134 1 0.127372 0.0169812 0.00735369 0.00540018 -0.00111798 0.000629641 1.05239e-09 2.81547e-10 -5.86298e-11 5e-05 1.46608e-10 
135 1 0.126979 0.015885 0.00822031 0.00530796 5.90344e-05 0.000456621 -7.78339e-11 6.30959e-10 -5.89516e-10 5e-05 1.46608e-10 
136 1 0.120984 0.0159428 0.00827733 0.00629748 0.000434453 -0.000912493 6.30025e-11 -7.06246e-11 7.30035e-11 5e-05 1.46608e-10 
137 1 0.127445 0.0181553 0.00708676 0.00515606 -0.00115778 0.000804147 -8.19229e-11 -2.63138e-10 -2.33558e-11 5e-05 1.46608e-10 
138 1 0.127126 0.0163982 0.00776741 0.00597739 -0.000681729 0.00120439 -1.39062e-10 -9.05454e-10 6.06953e-09 5e-05 1.46608e-10 
140 1 0.127578 0.0183779 0.0071237 0.00522455 -0.00132562 0.000819459 -1.58639e-10 -3.51823e-10 -5.17557e-11 5e-05 1.46608e-10 
141 1 0.121025 0.0160705 0.00812883 0.00618426 0.000268496 -0.000715282 2.80707e-11 -2.08886e-11 2.03731e-12 5e-05 1.46608e-10 
142 1 0.12143 0.0172455 0.00727187 0.00586322 0.000518963 -0.000370312 -9.14189e-11 1.81916e-10 -1.44958e-11 5e-05 1.46608e-10 
143 1 0.120929 0.0160525 0.00815595 0.00607167 0.000243178 -0.000679852 -6.7087e-11 -9.21052e-11 7.77101e-11 5e-05 1.46608e-10 
144 1 0.121389 0.0170549 0.00731674 0.00582476 0.000545296 -0.000370767 -3.08052e-11 2.44955e-11 1.08779e-11 5e-05 1.46608e-10 
146 1 0.121247 0.0164731 0.00765504 0.00650737 0.000153869 -0.000547838 -4.33759e-10 -1.96034e-12 3.76411e-10 5e-05 1.46608e-10 
147 1 0.120963 0.0158789 0.00835153 0.00621809 0.000447783 -0.000922971 6.39039e-11 5.43523e-11 -6.40465e-11 5e-05 1.46608e-10 
148 1 0.121238 0.0171848 0.00729389 0.00584261 0.000556833 -0.000375341 -2.04599e-10 2.65459e-10 -1.82324e-10 5e-05 1.46608e-10 
149 1 0.127544 0.0181639 0.00709641 0.00513824 -0.00105126 0.000828516 -7.93775e-11 -2.31192e-10 -2.09718e-11 5e-05 1.46608e-10 
150 1 0.121288 0.0166121 0.00751822 0.00609087 0.000641462 -0.000187993 -2.38871e-10 -7.93402e-10 1.47744e-10 5e-05 1.46608e-10 
151 1 0.12166 0.0174988 0.00720465 0.00586312 0.00051492 -0.000368992 -9.85167e-12 4.84148e-11 -9.88647e-12 5e-05 1.46608e-10 
153 1 0.121087 0.016262 0.00790632 0.00625723 0.000211713 -0.000656474 -2.47642e-11 2.97577e-11 5.84726e-11 5e-05 1.46608e-10 
154 1 0.121355 0.0173113 0.00726018 0.00588425 0.000552431 -0.000377851 -1.65258e-10 -7.8342e-12 1.12793e-11 5e-05 1.46608e-10 
155 1 0.121417 0.0175973 0.00719283 0.00589645 0.000562592 -0.00038173 1.61734e-11 -2.90415e-12 -3.46425e-12 5e-05 1.46608e-10 
156 1 0.121335 0.017216 0.00728262 0.00585219 0.000548041 -0.000375783 -2.90129e-11 2.44163e-11 -9.36042e-12 5e-05 1.46608e-10 
157 1 0.0219312 0.0187687 0.00551176 -3.84545e-14 8.16398e-14 2.95879e-13 7.42343e-22 5.3684e-22 -5.21124e-23 5e-05 1.46608e-10 
158 1 0.12162 0.0179817 0.00713284 0.00577361 0.00066325 -0.000416093 3.02472e-11 -2.91843e-11 -2.39154e-11 5e-05 1.46608e-10 
159 1 0.127511 0.0176239 0.00710345 0.0055042 -0.00109168 0.000311421 1.96962e-10 3.08315e-10 -3.69905e-12 5e-05 1.46608e-10 
160 1 0.1213 0.0174706 0.00722654 0.00588294 0.000559033 -0.000381777 -6.70597e-11 -3.98999e-11 6.48137e-12 5e-05 1.46608e-10 
162 1 0.121259 0.0172801 0.0072714 0.00586388 0.000554318 -0.000377089 -5.72662e-11 7.12748e-11 1.23748e-11 5e-05 1.46608e-10 
164 1 0.121519 0.0180222 0.00709234 0.00574663 0.000654729 -0.000388945 -6.98971e-12 1.49734e-11 2.69696e-11 5e-05 1.46608e-10 
165 1 0.121726 0.0177912 0.00713568 0.00579198 0.000614014 -0.000388973 -2.48194e-10 1.76059e-11 -1.28615e-13 5e-05 1.46608e-10 
166 1 0.127158 0.0162041 0.00794458 0.00546211 1.02741e-05 0.000515974 -3.07009e-10 -7.54471e-10 7.0014e-10 5e-05 1.46608e-10 
167 1 0.121267 0.0165372 0.0075811 0.00631722 0.000359176 -0.000409043 3.78627e-10 -1.13621e-10 2.09158e-10 5e-05 1.46608e-10 
168 1 0.121566 0.0174657 0.00721619 0.00588978 0.000547044 -0.000377394 2.67068e-11 5.16239e-11 -1.5505e-11 5e-05 1.46608e-10 
169 1 0.121774 0.0180842 0.00706734 0.0056997 0.000767611 -0.000419492 -1.72133e-10 1.99328e-10 -2.44569e-11 5e-05 1.46608e-10 
170 1 0.121585 0.0175644 0.00719304 0.00589192 0.000547052 -0.000377526 2.05149e-11 8.68231e-11 -2.24428e-11 5e-05 1.46608e-10 
171 1 0.127179 0.0162773 0.00787946 0.00616472 -0.000109229 0.00069887 2.24632e-09 -1.17701e-09 1.0857e-09 5e-05 1.46608e-10 
172 1 0.1217 0.0176929 0.00715904 0.00582195 0.000563207 -0.000378181 -2.13083e-10 7.45107e-11 -1.27739e-11 5e-05 1.46608e-10 
173 1 0.127665 0.0178424 0.00708677 0.00539736 -0.00108795 0.00087393 -1.41635e-10 -9.63069e-11 -2.17043e-11 5e-05 1.46608e-10 
174 1 0.121511 0.0176308 0.00718121 0.00588232 0.000570885 -0.000384078 -1.33811e-10 -1.46455e-12 1.21822e-10 5e-05 1.46608e-10 
175 1 0.115265 0.0173104 0.0072574 0.00555891 -0.000948117 0.000278669 8.42309e-12 5.06348e-11 -3.10818e-11 5e-05 1.46608e-10 
176 1 0.121314 0.0171207 0.00730508 0.00583783 0.000540166 -0.00037719 -4.30167e-10 1.667e-10 -6.61025e-11 5e-05 1.46608e-10 
177 1 0.121341 0.0176611 0.00718168 0.00589581 0.000564385 -0.000383612 1.96807e-12 3.74482e-12 -1.07419e-11 5e-05 1.46608e-10 
178 1 0.121843 0.0180131 0.00708043 0.005622 0.000680511 -0.00039697 2.7043e-10 1.0469e-10 -5.30613e-11 5e-05 1.46608e-10 
179 1 0.121756 0.0179648 0.00709508 0.00566123 0.000719044 -0.000405255 -4.34491e-10 2.61076e-10 -3.93876e-11 5e-05 1.46608e-10 
181 1 0.121316 0.0175379 0.0073 0.00588852 0.000559373 -0.000389265 -1.30195e-11 5.37499e-11 2.47617e-11 5e-05 1.46608e-10 
182 1 0.127105 0.0163231 0.00783027 0.00604861 -0.000286933 0.00084663 -8.39965e-10 -7.79844e-10 1.3942e-09 5e-05 1.46608e-10 
183 1 0.121491 0.0175314 0.00720454 0.00589139 0.000554032 -0.000379094 1.52096e-11 2.63613e-11 -9.75234e-12 5e-05 1.46608e-10 
184 1 0.127647 0.0177441 0.00708389 0.00533501 -0.00105926 0.000278762 -9.97788e-13 -1.7209e-10 3.83409e-10 5e-05 1.46608e-10 
185 1 0.121218 0.0170898 0.00731736 0.00583596 0.000570164 -0.000371248 6.67805e-12 3.38627e-10 -4.14124e-10 5e-05 1.46608e-10 
186 1 0.121325 0.0174384 0.0073178 0.00586883 0.000553212 -0.000384984 6.9052e-12 1.66658e-10 2.83847e-11 5e-05 1.46608e-10 
187 1 0.127485 0.017092 0.00728358 0.00552053 -0.00128147 0.000731075 1.84279e-09 1.03153e-09 -6.81126e-10 5e-05 1.46608e-10 
188 1 0.127505 0.0179588 0.00706916 0.00534785 -0.00116338 0.000855922 -5.03325e-11 1.84198e-10 1.41061e-11 5e-05 1.46608e-10 
189 1 0.127526 0.0172628 0.00718804 0.00545099 -0.00141201 0.000386079 -5.46712e-10 3.40441e-10 -3.03779e-11 5e-05 1.46608e-10 
190 1 0.115437 0.0176919 0.00708055 0.00541351 -0.000921935 0.000275923 2.68812e-12 -1.05959e-11 2.00751e-12 5e-05 1.46608e-10 
191 1 0.127464 0.0182532 0.00709078 0.00487352 -0.00111283 0.000779177 -1.15299e-10 -3.23839e-10 -9.81544e-11 5e-05 1.46608e-10 
192 1 0.121504 0.0171797 0.00728354 0.00584102 0.000523645 -0.000369 -1.58313e-10 2.00098e-11 -5.87454e-12 5e-05 1.46608e-10 
193 1 0.127267 0.0165697 0.00761953 0.00627353 -0.000519119 0.00115679 -2.80288e-10 3.83719e-10 -7.93949e-10 5e-05 1.46608e-10 
194 1 0.121328 0.0167814 0.00741925 0.00587045 0.000692653 -0.00024298 9.25759e-11 -1.60848e-10 1.78275e-10 5e-05 1.46608e-10 
195 1 0.121783 0.0178705 0.00711526 0.00567088 0.000706589 -0.000403953 -2.42742e-10 2.45494e-10 -4.09287e-11 5e-05 1.46608e-10 
196 1 0.120745 0.0154756 0.00882131 0.00559918 0.00052247 -0.000573341 -5.7038e-11 -2.03915e-10 1.76854e-10 5e-05 1.46608e-10 
197 1 0.115323 0.0175668 0.00711688 0.00541513 -0.000926714 0.000272203 -6.352e-12 1.13614e-11 6.00033e-12 5e-05 1.46608e-10 
198 1 0.121137 0.016726 0.00745309 0.00597341 0.000464927 -0.000391154 4.81894e-10 -9.09825e-10 -3.78439e-10 5e-05 1.46608e-10 
199 1 0.121279 0.0173753 0.00724897 0.00587809 0.000555817 -0.000379632 -1.07798e-10 -2.0076e-11 9.13877e-12 5e-05 1.46608e-10 
200 1 0.121253 0.0168373 0.00738409 0.00574748 0.00061617 -0.000199736 1.04499e-10 1.26741e-10 3.14551e-11 5e-05 1.46608e-10 
201 1 0.121696 0.0181465 0.00705656 0.0056152 0.000667104 -0.000397284 -3.72129e-10 2.82573e-10 -1.09143e-10 5e-05 1.46608e-10 
202 1 0.121525 0.0172749 0.00726111 0.00587561 0.000519526 -0.000370744 -1.90035e-10 -3.28413e-11 3.62235e-11 5e-05 1.46608e-10 
203 1 0.127524 0.01854 0.0071299 0.00531054 -0.00123046 0.00084397 -9.21526e-11 -2.68154e-10 -5.3429e-11 5e-05 1.46608e-10 
204 1 0.121232 0.0167526 0.00743364 0.00559522 0.000773588 -0.000303186 -3.39083e-10 2.58129e-10 -5.28563e-10 5e-05 1.46608e-10 
205 1 0.121526 0.018089 0.0071664 0.00567655 0.000632631 -0.000353265 7.1739e-11 1.18281e-10 -2.86911e-11 5e-05 1.46608e-10 
206 1 0.121523 0.0177395 0.00715612 0.00588341 0.000613676 -0.000393743 -2.49639e-12 1.2748e-10 2.20997e-11 5e-05 1.46608e-10 
207 1 0.121066 0.0161982 0.00798049 0.00622524 0.000194974 -0.000633313 6.95397e-12 -9.73298e-11 1.1161e-10 5e-05 1.46608e-10 
208 1 0.121376 0.0174066 0.00723773 0.00588718 0.00055674 -0.000379855 -5.01791e-11 5.03441e-12 1.18266e-11 5e-05 1.46608e-10 
209 1 0.121308 0.0166968 0.00746872 0.00606955 0.000642377 -0.000207173 5.05722e-10 -4.26054e-10 2.46148e-10 5e-05 1.46608e-10 
210 1 0.12748 0.0177056 0.00715223 0.0054297 -0.00114255 0.000331336 -1.71183e-10 2.04028e-10 -8.15952e-11 5e-05 1.46608e-10 
211 1 0.127614 0.0180126 0.0070942 0.00525787 -0.00102651 0.0008537 -1.08971e-10 -4.77915e-11 2.73782e-12 5e-05 1.46608e-10 
212 1 0.121602 0.0176696 0.00716849 0.00588508 0.000573726 -0.000383417 -1.65205e-10 -2.84397e-11 1.2363e-11 5e-05 1.46608e-10 
213 1 0.127467 0.0170086 0.00733555 0.00530621 -0.0014208 0.000817266 -5.00708e-10 5.47106e-10 -2.96608e-10 5e-05 1.46608e-10 
214 1 0.127705 0.0180476 0.00711428 0.00517543 -0.000829021 0.000859091 -2.43985e-10 -2.67803e-11 -5.575e-11 5e-05 1.46608e-10 
215 1 0.115406 0.0175951 0.00706919 0.00541537 -0.000928092 0.000274394 -5.34734e-11 7.02991e-11 -2.00141e-12 5e-05 1.46608e-10 
216 1 0.12132 0.0175658 0.00720411 0.00588817 0.000562473 -0.00038278 -3.64685e-11 -3.93992e-11 1.26435e-11 5e-05 1.46608e-10 
217 1 0.127222 0.0164235 0.00774935 0.00630023 -0.000500146 0.00105107 5.48491e-10 -1.05074e-09 2.31989e-09 5e-05 1.46608e-10 
218 1 0.121438 0.0177918 0.00714794 0.00587619 0.000586104 -0.000381424 9.06116e-11 5.50719e-11 -1.92855e-11 5e-05 1.46608e-10 
219 1 0.127524 0.0180561 0.00708227 0.00523234 -0.00108485 0.000841188 -1.11411e-10 -2.49066e-10 4.1496e-11 5e-05 1.46608e-10 
220 1 0.121466 0.0177603 0.00723846 0.00587595 0.000557207 -0.000380349 6.91262e-11 2.46256e-10 6.58614e-11 5e-05 1.46608e-10 
221 1 0.115324 0.0171731 0.0073427 0.00568104 -0.000915647 0.000249829 2.73897e-11 2.8921e-11 -2.10501e-11 5e-05 1.46608e-10 
222 1 0.127245 0.0164963 0.00768474 0.00628692 -0.000417308 0.00100652 1.16823e-10 -1.6484e-09 2.14514e-09 5e-05 1.46608e-10 
223 1 0.12145 0.0173408 0.00724942 0.00589164 0.000547572 -0.000377301 -8.2981e-11 3.26973e-11 -7.26639e-12 5e-05 1.46608e-10 
224 1 0.121197 0.0169953 0.00734279 0.00583901 0.00059071 -0.000362066 -2.57537e-11 1.64894e-10 -3.86345e-10 5e-05 1.46608e-10 
225 1 0.127552 0.0177135 0.00708293 0.0053671 -0.0011318 0.000318718 -1.1521e-10 2.1009e-11 -2.64185e-11 5e-05 1.46608e-10 
226 1 0.121679 0.0175977 0.00718147 0.00589136 0.000543237 -0.000376487 -2.645e-11 1.06275e-10 -2.05895e-11 5e-05 1.46608e-10 
227 1 0.115382 0.0174205 0.0071791 0.00544953 -0.000908088 0.000258731 -2.41035e-11 9.98901e-12 -1.33435e-12 5e-05 1.46608e-10 
228 1 0.115285 0.0173922 0.0072033 0.00548305 -0.000935518 0.000274343 -4.5214e-11 4.73454e-11 -3.23129e-11 5e-05 1.46608e-10 
229 1 0.121351 0.0176721 0.00728058 0.00589775 0.000592203 -0.000387358 9.34425e-11 1.8011e-11 2.27937e-11 5e-05 1.46608e-10 
230 1 0.121613 0.018201 0.00704784 0.00555428 0.000588144 -0.000375626 -3.30804e-10 1.50402e-10 3.71765e-11 5e-05 1.46608e-10 
231 1 0.115247 0.0172284 0.00731158 0.00563891 -0.000961726 0.000282139 1.81664e-11 4.23921e-11 -3.14769e-11 5e-05 1.46608e-10 
232 1 0.121206 0.0163454 0.00780336 0.00647339 0.00019751 -0.000658981 -9.2145e-10 -2.39098e-10 3.17732e-10 5e-05 1.46608e-10 
233 1 0.121347 0.0168663 0.00736962 0.00576869 0.000607488 -0.000216207 3.80192e-10 -4.62833e-10 4.36769e-10 5e-05 1.46608e-10 
234 1 0.127405 0.0179611 0.00706127 0.00535337 -0.00117518 0.000827246 -7.05611e-11 -3.7736e-11 -8.45474e-11 5e-05 1.46608e-10 
235 1 0.121513 0.0185019 0.00702482 0.00562133 0.000566449 -0.000370976 -4.27379e-12 7.59037e-11 4.48916e-12 5e-05 1.46608e-10 
236 1 0.121669 0.0183914 0.00700235 0.00563141 0.000560708 -0.000369261 -1.39772e-10 -4.51318e-11 -1.384e-12 5e-05 1.46608e-10 
237 1 0.12153 0.0185808 0.00696551 0.00567605 0.000545954 -0.000369351 -8.44226e-12 2.35521e-11 -1.0779e-11 5e-05 1.46608e-10 
239 1 0.115057 0.0165377 0.00785259 0.00581233 -0.00045213 0.00090111 4.68853e-11 -7.60381e-11 4.99128e-11 5e-05 1.46608e-10 
240 1 0.115121 0.0167552 0.00765626 0.00592544 -0.000467408 0.000925247 1.86233e-10 -7.01394e-11 1.01969e-10 5e-05 1.46608e-10 
241 1 0.115036 0.0164652 0.00791803 0.00579517 -0.000453117 0.000902045 -1.65429e-11 -1.35382e-11 3.18124e-11 5e-05 1.46608e-10 
242 1 0.121463 0.0169891 0.00732842 0.00583051 0.000555221 -0.000370037 8.58555e-12 2.94354e-11 1.07154e-11 5e-05 1.46608e-10 
243 1 0.121212 0.0166671 0.00748362 0.00616296 0.000758484 -0.000280562 5.96618e-10 -8.23319e-10 5.94478e-11 5e-05 1.46608e-10 
244 1 0.115078 0.0166102 0.00778714 0.00584758 -0.000448062 0.000903694 -8.89376e-11 -1.21968e-10 6.81148e-11 5e-05 1.46608e-10 
246 1 0.115207 0.017065 0.00741973 0.00590913 -0.00101187 0.000300332 3.23193e-11 2.5092e-11 1.70424e-11 5e-05 1.46608e-10 
247 1 0.121473 0.0178817 0.00717383 0.00583974 0.000598379 -0.00037493 -6.04248e-12 1.1386e-10 -3.70045e-11 5e-05 1.46608e-10 
248 1 0.121673 0.0182782 0.00702779 0.00562001 0.000556812 -0.000368138 -1.98882e-10 -3.50258e-11 -1.68044e-11 5e-05 1.46608e-10 