ITEM: TIMESTEP
8400000
ITEM: NUMBER OF ATOMS
287
ITEM: BOX BOUNDS ff ff ff
-0.02 0.43
-0.02 0.06
-0.02 0.07
ITEM: ATOMS id type x y z vx vy vz fx fy fz radius mass 
1 1 0.0618321 0.016463 0.00782815 0.00614039 0.000203926 8.92746e-06 6.05175e-11 -2.37e-11 2.85815e-11 5e-05 1.46608e-10 
2 1 0.0622479 0.017349 0.00718344 0.00567618 0.000335855 -0.000104004 -1.67815e-10 -1.47813e-11 -1.33417e-11 5e-05 1.46608e-10 
3 1 0.0555765 0.0160931 0.00858484 0.00552043 0.000247651 0.000841974 -3.45434e-10 -3.84382e-10 3.81687e-10 5e-05 1.46608e-10 
4 1 0.0621574 0.0178207 0.00714753 0.00555515 0.000319389 -0.000185246 1.21629e-10 4.87473e-11 -2.93118e-11 5e-05 1.46608e-10 
5 1 0.0617152 0.0163735 0.00792025 0.00609728 -0.00015556 -0.000401921 1.37388e-10 3.29729e-10 3.92098e-10 5e-05 1.46608e-10 
6 1 0.0677927 0.0166379 0.00768559 0.0059785 -0.000614683 0.000262047 1.35898e-11 6.43875e-11 -4.58759e-11 5e-05 1.46608e-10 
7 1 0.0619032 0.0170683 0.00738222 0.00578643 0.000284651 -6.08254e-05 -5.76997e-11 -3.83e-11 1.96164e-11 5e-05 1.46608e-10 
8 1 0.0616072 0.0160176 0.00825439 0.00602826 -0.000226376 -0.000502058 -1.29033e-10 8.51483e-11 -5.95808e-11 5e-05 1.46608e-10 
9 1 0.0680478 0.0177321 0.00711766 0.00539942 -0.000502235 0.000218376 -9.35518e-11 1.94583e-11 -3.81397e-12 5e-05 1.46608e-10 
10 1 0.0618449 0.016831 0.00755625 0.00571095 0.000301202 -7.55087e-05 1.29992e-11 1.3089e-11 -3.90122e-12 5e-05 1.46608e-10 
11 1 0.0622869 0.0175253 0.00712781 0.00570711 0.00031584 -8.9428e-05 -3.1195e-10 1.61797e-10 2.70714e-10 5e-05 1.46608e-10 
12 1 0.0557842 0.0166731 0.00780618 0.00590515 0.000226001 0.00094088 -4.5046e-10 2.93286e-10 -4.06363e-10 5e-05 1.46608e-10 
13 1 0.0616934 0.0163006 0.00798513 0.00608459 -0.000234966 -0.000491262 8.40041e-11 1.13767e-10 5.96941e-11 5e-05 1.46608e-10 
14 1 0.0554936 0.0158469 0.00888862 0.00359407 -0.000240268 -0.000145154 1.47199e-09 -5.91795e-10 3.57225e-10 5e-05 1.46608e-10 
15 1 0.0620364 0.0172553 0.00724727 0.00584425 0.000325238 -8.8131e-05 1.37403e-12 -1.069e-10 8.53425e-11 5e-05 1.46608e-10 
16 1 0.0554741 0.0157833 0.00896325 0.00428713 -0.000366048 -9.06518e-05 2.45084e-10 -4.52875e-10 5.91079e-10 5e-05 1.46608e-10 
17 1 0.0618235 0.0167567 0.00761965 0.00600279 0.000246179 -3.24863e-05 4.40903e-11 2.06764e-11 -1.66539e-11 5e-05 1.46608e-10 
18 1 0.0679342 0.0171971 0.00728917 0.00570502 -0.000559956 0.000231325 1.89778e-11 3.11464e-11 -2.04582e-11 5e-05 1.46608e-10 
19 1 0.0616719 0.0162298 0.00805245 0.00607245 -0.000238469 -0.000493244 -1.16583e-10 -7.7e-12 -3.66557e-11 5e-05 1.46608e-10 
21 1 0.0618105 0.0163888 0.00789156 0.00610671 -0.000121576 -0.000378349 3.25835e-11 -1.36149e-10 -1.22859e-10 5e-05 1.46608e-10 
22 1 0.061942 0.0172265 0.00726619 0.00585001 0.000272719 -5.0913e-05 1.52089e-11 -3.16637e-11 4.94767e-11 5e-05 1.46608e-10 
23 1 0.0559536 0.0169525 0.00748901 0.00567572 0.000252852 0.00103808 1.0768e-10 4.33615e-11 6.20621e-10 5e-05 1.46608e-10 
24 1 0.0679885 0.0174381 0.00711926 0.00559649 -0.000542846 0.00022652 1.8047e-11 3.16994e-11 -5.31658e-12 5e-05 1.46608e-10 
25 1 0.0618843 0.0169891 0.0074403 0.00555196 0.000321656 -9.49173e-05 -5.81985e-11 -2.7872e-11 2.1019e-11 5e-05 1.46608e-10 
26 1 0.0678762 0.016957 0.00745933 0.00557633 -0.000535446 0.000217699 -7.13633e-11 -1.35935e-11 4.63398e-12 5e-05 1.46608e-10 
27 1 0.055864 0.0169082 0.0074896 0.0057016 0.000268105 0.000801945 3.27456e-10 -6.94384e-10 1.55389e-09 5e-05 1.46608e-10 
28 1 0.0621387 0.0177226 0.0071431 0.00558946 0.000315367 -0.000196691 -6.15275e-11 6.80992e-11 -6.12527e-11 5e-05 1.46608e-10 
29 1 0.0616503 0.0161591 0.00811976 0.00604871 -0.000235489 -0.000494802 5.19578e-11 8.22585e-12 -2.89279e-11 5e-05 1.46608e-10 
30 1 0.0621645 0.0174564 0.00712934 0.00567982 0.000282655 -0.000148992 1.74104e-10 4.11241e-10 3.47883e-10 5e-05 1.46608e-10 
31 1 0.0619222 0.0171475 0.00732414 0.00588489 0.000271876 -4.792e-05 -1.70146e-11 -4.65263e-11 2.72903e-11 5e-05 1.46608e-10 
32 1 0.0620185 0.0171757 0.00730576 0.00589081 0.000313829 -8.05669e-05 -2.02816e-10 -2.00646e-10 1.49525e-10 5e-05 1.46608e-10 
33 1 0.0678144 0.0167175 0.00762911 0.00597845 -0.000613293 0.00026109 2.03922e-11 4.11657e-11 -2.91542e-11 5e-05 1.46608e-10 
34 1 0.0618017 0.016676 0.00767447 0.00614192 0.000215644 -6.96007e-06 1.44263e-11 3.51323e-12 -1.72518e-11 5e-05 1.46608e-10 
35 1 0.0619982 0.0170962 0.00736404 0.00589785 0.000271758 -4.86983e-05 6.40704e-11 6.22216e-12 -6.31552e-12 5e-05 1.46608e-10 
36 1 0.0680864 0.0179284 0.00711656 0.0053598 -0.000493524 0.000216741 -1.26709e-11 -2.21995e-11 3.09893e-12 5e-05 1.46608e-10 
37 1 0.0619596 0.0169372 0.00748068 0.00550762 0.000288544 -7.15183e-05 -1.06736e-10 -7.06445e-11 4.92298e-11 5e-05 1.46608e-10 
38 1 0.0621136 0.0172018 0.00728886 0.00539063 0.00039862 -0.00015587 -5.74304e-10 3.23241e-11 -4.00199e-11 5e-05 1.46608e-10 
39 1 0.0680084 0.0175361 0.00711873 0.00558145 -0.000539266 0.000225866 1.41137e-11 2.41984e-11 -1.45383e-12 5e-05 1.46608e-10 
41 1 0.0617583 0.0165182 0.00778929 0.00613977 0.000149783 -7.07394e-05 6.99044e-12 -1.49462e-10 -1.46442e-10 5e-05 1.46608e-10 
42 1 0.0619596 0.0173059 0.00720797 0.00579745 0.000276496 -5.39552e-05 6.96382e-11 -3.69466e-11 7.13039e-11 5e-05 1.46608e-10 
44 1 0.0621339 0.0172808 0.00723096 0.00566346 0.000352945 -0.000115424 -3.81883e-10 5.3714e-11 -4.29464e-11 5e-05 1.46608e-10 
45 1 0.0678361 0.0167971 0.00757263 0.00597992 -0.000611879 0.000260022 -7.07382e-12 2.29643e-11 -1.62113e-11 5e-05 1.46608e-10 
46 1 0.0679162 0.0171169 0.00734601 0.00567872 -0.000554835 0.000228566 2.82882e-12 2.04137e-11 -1.19538e-11 5e-05 1.46608e-10 
47 1 0.06178 0.0165951 0.00772912 0.00614563 0.000213547 4.90355e-06 3.72448e-11 -7.04984e-12 1.9696e-11 5e-05 1.46608e-10 
48 1 0.0619965 0.0174832 0.00714867 0.00573069 0.000277362 -0.000124392 -1.25192e-10 -4.55518e-11 1.35892e-10 5e-05 1.46608e-10 
49 1 0.0678966 0.0170369 0.0074027 0.00561018 -0.000541931 0.000221393 -2.2609e-11 2.78888e-12 -4.7378e-12 5e-05 1.46608e-10 
50 1 0.0620549 0.0177772 0.00714908 0.00557846 0.000302856 -0.000191544 -1.11609e-10 2.82606e-11 3.16734e-11 5e-05 1.46608e-10 
51 1 0.0620359 0.0176792 0.00714493 0.00565668 0.000287937 -0.000226122 -2.45001e-10 1.10526e-12 1.37245e-10 5e-05 1.46608e-10 
52 1 0.0557633 0.0166147 0.00788459 0.00584178 0.000229254 0.000931159 -9.47944e-11 2.00663e-10 -2.30674e-10 5e-05 1.46608e-10 
53 1 0.0679547 0.017277 0.00723256 0.00568055 -0.000556217 0.000229436 7.98619e-12 3.26467e-11 -2.3856e-11 5e-05 1.46608e-10 
54 1 0.0617889 0.0163176 0.00795834 0.00609404 -0.000232023 -0.000493131 9.84037e-11 -5.3448e-11 -6.87943e-11 5e-05 1.46608e-10 
55 1 0.0555357 0.0159751 0.00874107 0.00497765 0.000123578 0.00056481 -1.74528e-10 -1.39616e-10 1.96709e-10 5e-05 1.46608e-10 
56 1 0.0619788 0.0170166 0.00742239 0.00570269 0.000188908 7.44122e-06 -1.74558e-10 -1.02355e-10 7.20469e-11 5e-05 1.46608e-10 
57 1 0.067857 0.0168769 0.00751606 0.00556522 -0.000533107 0.000216475 -3.64889e-10 6.46409e-11 -3.58835e-11 5e-05 1.46608e-10 
59 1 0.0620352 0.0168855 0.00752085 0.00559491 0.000377521 -0.00013506 -7.04382e-11 2.8336e-11 -2.56286e-11 5e-05 1.46608e-10 
60 1 0.0620541 0.0169647 0.00746276 0.00573494 0.000214903 -1.12043e-05 2.3167e-10 5.82179e-11 -4.00011e-11 5e-05 1.46608e-10 
61 1 0.0617367 0.0164441 0.00785284 0.00611819 4.92577e-07 -0.000240278 -4.71568e-12 -9.15906e-12 2.82696e-11 5e-05 1.46608e-10 
62 1 0.0621491 0.0173604 0.00717243 0.00575636 0.000341471 -0.000103266 1.37566e-10 4.22798e-11 2.60064e-12 5e-05 1.46608e-10 
63 1 0.0620994 0.0175272 0.00715686 0.00570886 0.000298648 -0.00018368 -4.51771e-11 4.30451e-11 2.22134e-10 5e-05 1.46608e-10 
64 1 0.0679758 0.0173567 0.00717601 0.00563826 -0.000549058 0.000225483 5.56459e-12 3.16335e-11 -1.78516e-11 5e-05 1.46608e-10 
65 1 0.055878 0.0167084 0.0077924 0.00589582 0.000220917 0.000961521 -4.18426e-10 3.30197e-10 -3.72758e-10 5e-05 1.46608e-10 
66 1 0.0558164 0.0165299 0.00802498 0.00574429 0.00020452 0.000979547 4.8637e-10 1.98517e-10 -2.23484e-10 5e-05 1.46608e-10 
67 1 0.0622605 0.0174289 0.00712465 0.00567735 0.000327334 -0.000101579 -1.21959e-10 -9.4166e-12 1.18287e-12 5e-05 1.46608e-10 
68 1 0.0622141 0.0176564 0.00713684 0.00569698 0.000204778 -0.000192657 -1.60122e-10 -1.52892e-11 -1.07199e-10 5e-05 1.46608e-10 
69 1 0.0618978 0.0166997 0.00765475 0.00618662 0.000426349 -0.000155728 -9.34926e-11 -5.80717e-11 1.72726e-11 5e-05 1.46608e-10 
70 1 0.0680283 0.0176341 0.0071182 0.00556314 -0.00053552 0.000225304 -4.3674e-12 7.97316e-12 7.00512e-13 5e-05 1.46608e-10 
71 1 0.0555159 0.0159119 0.008816 0.0040239 -0.000127248 9.56985e-05 5.85814e-11 -3.38865e-10 2.6248e-11 5e-05 1.46608e-10 
72 1 0.0621919 0.0175564 0.00713244 0.00572625 0.000253466 -0.000199889 -3.78609e-11 -5.84129e-11 1.17476e-11 5e-05 1.46608e-10 
73 1 0.061865 0.01691 0.00749833 0.00549203 0.000332807 -0.000104459 -2.73252e-11 2.00376e-11 -9.97075e-12 5e-05 1.46608e-10 
74 1 0.0620537 0.0173351 0.00718869 0.00577514 0.000298909 -7.07182e-05 8.9878e-11 3.83918e-11 2.16988e-12 5e-05 1.46608e-10 
76 1 0.0560921 0.0175292 0.00718606 0.00534907 -0.000800227 0.000469987 2.02375e-10 5.70062e-10 1.53843e-11 5e-05 1.46608e-10 
77 1 0.0623043 0.0185046 0.00717779 0.00573133 0.000258213 -0.000199435 7.37613e-11 -5.72044e-11 -1.1478e-11 5e-05 1.46608e-10 
78 1 0.0555974 0.0161515 0.00850642 0.00553908 0.000217561 0.000873173 -5.39223e-10 -4.2685e-10 4.32228e-10 5e-05 1.46608e-10 
79 1 0.0558052 0.0167315 0.00772777 0.00593001 0.000228608 0.000941069 -4.19043e-10 2.98314e-10 -5.78482e-10 5e-05 1.46608e-10 
80 1 0.0621126 0.0180713 0.00716229 0.00566702 0.000261061 -0.000194973 5.34484e-11 -8.91295e-12 -3.76437e-11 5e-05 1.46608e-10 
81 1 0.0557424 0.0165563 0.00796301 0.00579396 0.000222921 0.000931707 7.72454e-11 1.41537e-10 -3.06463e-10 5e-05 1.46608e-10 
82 1 0.0558816 0.0169702 0.00740531 0.00575781 0.000112935 0.00106881 7.29338e-11 3.84091e-10 -5.91345e-10 5e-05 1.46608e-10 
83 1 0.0558758 0.0164363 0.0081617 0.00584338 0.000129656 0.00108165 3.94384e-10 -8.97539e-11 4.64749e-11 5e-05 1.46608e-10 
84 1 0.0680671 0.0178303 0.00711711 0.00537839 -0.000497101 0.000217372 -9.10556e-12 -5.79045e-12 1.06693e-12 5e-05 1.46608e-10 
85 1 0.0556928 0.016177 0.0084902 0.00550156 2.90016e-05 0.000760734 -4.33696e-10 -9.87341e-12 4.60131e-10 5e-05 1.46608e-10 
86 1 0.0621197 0.0176244 0.00714477 0.0056697 0.000298922 -0.000218639 -1.29133e-10 4.31991e-11 4.33995e-11 5e-05 1.46608e-10 
87 1 0.062016 0.0168064 0.00757889 0.00564527 0.000370492 -0.000128638 -2.14084e-10 1.48348e-10 -1.15141e-10 5e-05 1.46608e-10 
88 1 0.0621774 0.018364 0.00717517 0.00571056 0.000262366 -0.000198719 6.25695e-11 7.3795e-11 -1.04488e-11 5e-05 1.46608e-10 
89 1 0.0621342 0.0181689 0.00716658 0.00568864 0.00027755 -0.000197364 -3.13019e-11 4.95034e-11 5.02282e-12 5e-05 1.46608e-10 
90 1 0.0622327 0.0172694 0.00724196 0.00573215 0.000337141 -0.000101616 -1.87881e-10 9.30532e-12 -6.81248e-12 5e-05 1.46608e-10 
91 1 0.0558262 0.0167899 0.00764938 0.00591932 0.000243894 0.000929343 -2.01621e-12 3.5145e-10 -5.08083e-10 5e-05 1.46608e-10 
92 1 0.0622529 0.0178524 0.00714564 0.00564062 0.000219014 -0.000198502 -4.90931e-11 2.81858e-11 2.17561e-11 5e-05 1.46608e-10 
93 1 0.0622393 0.0182118 0.00716491 0.00569724 0.00025497 -0.000198755 -4.86065e-11 -7.1045e-11 8.02382e-13 5e-05 1.46608e-10 
94 1 0.0623145 0.0181457 0.00715866 0.00567925 0.000250031 -0.000197638 -1.75396e-10 -6.57786e-11 4.53213e-12 5e-05 1.46608e-10 
95 1 0.0620931 0.0179733 0.0071579 0.00547742 0.000309092 -0.000186365 -7.83998e-12 -5.37196e-12 -1.461e-11 5e-05 1.46608e-10 
96 1 0.0622722 0.0179504 0.00715003 0.00567536 0.000224963 -0.000199342 -1.32798e-10 -9.95434e-12 -1.1199e-11 5e-05 1.46608e-10 
97 1 0.0557005 0.0164395 0.00811984 0.00572057 0.000197167 0.000929785 -1.82401e-10 8.92823e-11 -1.62343e-10 5e-05 1.46608e-10 
98 1 0.062199 0.0184616 0.00717946 0.00572856 0.000260417 -0.000200013 -1.98135e-11 1.11834e-10 2.8755e-12 5e-05 1.46608e-10 
99 1 0.0558569 0.0166503 0.007871 0.00585073 0.000207572 0.000970714 -3.6183e-10 2.87304e-10 -4.88227e-10 5e-05 1.46608e-10 
100 1 0.0621917 0.0171115 0.0073577 0.00588758 0.000319161 -8.43557e-05 -4.81762e-11 2.25258e-11 -1.83962e-11 5e-05 1.46608e-10 
101 1 0.0557962 0.0164675 0.00810046 0.00573831 0.000179652 0.000971899 -8.75146e-11 7.94269e-12 -2.74849e-10 5e-05 1.46608e-10 
102 1 0.0643568 0.0187248 0.00531097 4.14412e-15 1.05379e-14 8.29613e-14 -3.26568e-22 1.45222e-22 -1.40621e-23 5e-05 1.46608e-10 
103 1 0.24257 0.0191927 0.00520306 -1.01195e-22 4.01299e-22 8.29106e-22 0 0 0 5e-05 1.46608e-10 
104 1 0.0561072 0.0171826 0.00726391 0.00553901 -0.000460814 0.000130424 -3.2498e-11 -8.94917e-10 -9.5718e-10 5e-05 1.46608e-10 
105 1 0.0556652 0.0163445 0.00829023 0.00563207 0.000219543 0.000927692 3.83905e-10 -5.48956e-10 2.31835e-10 5e-05 1.46608e-10 
106 1 0.0561813 0.017116 0.00727324 0.00573301 -0.000742315 -0.000423566 -4.77176e-10 4.63906e-10 -1.50764e-09 5e-05 1.46608e-10 
107 1 0.0556183 0.0162099 0.008428 0.00558408 0.000202939 0.000887155 -3.99508e-11 -5.02083e-10 7.09242e-10 5e-05 1.46608e-10 
108 1 0.06194 0.0168578 0.0075389 0.00558732 0.000416991 -0.00016441 -7.18484e-11 7.20325e-11 -5.26667e-11 5e-05 1.46608e-10 
109 1 0.0620163 0.0175811 0.0071431 0.0057241 0.000271178 -0.000216071 -8.31011e-11 -6.59725e-11 2.36153e-10 5e-05 1.46608e-10 
110 1 0.0623664 0.0179169 0.00714478 0.00568717 0.000329528 -0.000194958 1.40796e-10 1.37618e-10 8.2214e-12 5e-05 1.46608e-10 
111 1 0.0622422 0.0186566 0.00718804 0.00575207 0.000269534 -0.000199337 2.31883e-11 -8.83232e-11 -4.35295e-12 5e-05 1.46608e-10 
112 1 0.0557215 0.0164979 0.00804143 0.00576237 0.000209982 0.000937079 7.72638e-11 1.75373e-10 -3.44003e-10 5e-05 1.46608e-10 
113 1 0.0564708 0.0176576 0.00721899 0.0056802 -0.000446834 -0.000132229 -2.99259e-10 -2.15408e-10 1.09248e-10 5e-05 1.46608e-10 
114 1 0.0560491 0.016963 0.00745302 0.00572026 0.000252435 0.0010523 -6.80659e-10 -2.08312e-11 -3.82063e-10 5e-05 1.46608e-10 
115 1 0.0620782 0.0174309 0.00717308 0.0057237 0.000311419 -0.000101591 2.00627e-11 -6.76271e-11 6.1753e-11 5e-05 1.46608e-10 
116 1 0.0619198 0.0167788 0.00759685 0.0058193 0.00039606 -0.000142788 -2.03275e-11 -9.98279e-11 7.72013e-11 5e-05 1.46608e-10 
117 1 0.0617674 0.0162468 0.00802567 0.00607008 -0.000238059 -0.000495393 3.93124e-11 1.47875e-12 3.32797e-11 5e-05 1.46608e-10 
118 1 0.0555556 0.0160347 0.00866326 0.00548146 0.000255808 0.000807647 -1.68257e-10 -7.68352e-11 2.19273e-10 5e-05 1.46608e-10 
119 1 0.0620734 0.0170438 0.00740471 0.00565827 0.000349668 -0.000112856 -3.51945e-10 1.02826e-10 -8.63807e-11 5e-05 1.46608e-10 
120 1 0.0616287 0.0160883 0.00818708 0.00604324 -0.000232774 -0.000497831 1.1118e-10 1.06044e-10 -1.37333e-10 5e-05 1.46608e-10 
121 1 0.0615856 0.0159469 0.00832171 0.00599886 -0.000217209 -0.000505474 -5.99301e-11 -5.32101e-12 2.23745e-11 5e-05 1.46608e-10 
122 1 0.0623866 0.0180148 0.00714914 0.00568521 0.000320505 -0.000194823 -1.02555e-10 1.24791e-10 2.13058e-12 5e-05 1.46608e-10 
123 1 0.0557391 0.0162938 0.00833469 0.00553859 0.000177029 0.000969346 4.69464e-10 2.57642e-11 8.60124e-10 5e-05 1.46608e-10 
124 1 0.0621971 0.0180165 0.00715628 0.00564025 0.000283784 -0.000194753 1.76186e-13 1.44357e-11 -7.90615e-12 5e-05 1.46608e-10 
125 1 0.0617457 0.016176 0.00809305 0.0060566 -0.000250601 -0.000480316 -4.13181e-11 9.45121e-12 -2.00064e-11 5e-05 1.46608e-10 
126 1 0.0619766 0.0173853 0.0071496 0.00575853 0.0002754 -5.83406e-05 -3.12418e-11 -5.36849e-11 3.38936e-11 5e-05 1.46608e-10 
127 1 0.0556796 0.016381 0.00819826 0.00567554 0.000208234 0.000933641 -1.07025e-11 -3.09025e-10 -8.28723e-11 5e-05 1.46608e-10 
128 1 0.0620738 0.0178753 0.0071535 0.00553509 0.00030731 -0.000188426 -4.39848e-12 2.16006e-11 6.93341e-12 5e-05 1.46608e-10 
129 1 0.0621558 0.0182665 0.00717088 0.00570194 0.000269407 -0.000198208 2.63478e-11 6.33904e-11 1.25326e-12 5e-05 1.46608e-10 
130 1 0.0559714 0.0170136 0.00741187 0.00536877 0.000650608 0.00133585 -4.72375e-11 -2.15002e-10 6.72482e-10 5e-05 1.46608e-10 
131 1 0.055835 0.0165951 0.00795146 0.0057797 0.000208448 0.000972526 2.70651e-10 1.44527e-10 -4.19629e-10 5e-05 1.46608e-10 
132 1 0.0621767 0.0179187 0.00715193 0.00559028 0.000306153 -0.000191036 2.62674e-10 1.65613e-11 -2.00094e-11 5e-05 1.46608e-10 
133 1 0.0619279 0.0164887 0.00781163 0.00613822 0.000192594 1.55076e-05 6.21309e-11 -3.06779e-11 2.76326e-11 5e-05 1.46608e-10 
134 1 0.062093 0.0171229 0.00734671 0.00588675 0.0003207 -8.54734e-05 5.58734e-11 1.64283e-10 -1.20819e-10 5e-05 1.46608e-10 
135 1 0.0617242 0.0161053 0.00816037 0.00602577 -0.000244162 -0.000483741 7.51567e-11 -2.16217e-11 2.03608e-12 5e-05 1.46608e-10 
136 1 0.055672 0.0161177 0.00856798 0.00561062 -0.000287249 0.000549123 -3.64088e-10 2.20467e-10 4.4139e-10 5e-05 1.46608e-10 
137 1 0.0622638 0.0187542 0.00719233 0.00577239 0.000277815 -0.000200479 -2.904e-10 -1.25094e-10 3.22919e-11 5e-05 1.46608e-10 
138 1 0.0618759 0.0166207 0.00771261 0.00616327 0.000233454 -1.47998e-05 -2.0037e-12 -9.44153e-12 -3.77017e-14 5e-05 1.46608e-10 
140 1 0.0624098 0.0181756 0.00715668 0.00569736 0.000217628 -0.000200698 -2.16734e-10 -2.51512e-11 -2.09564e-12 5e-05 1.46608e-10 
141 1 0.0557137 0.0162356 0.00841192 0.00543386 0.000183223 0.000900932 3.92294e-10 -3.05689e-10 5.30991e-10 5e-05 1.46608e-10 
142 1 0.0560631 0.0170206 0.0073725 0.00517796 0.000138247 0.000867705 -4.96816e-10 -2.65345e-12 7.35697e-11 5e-05 1.46608e-10 
143 1 0.0556393 0.0162683 0.00834958 0.00558814 0.000200623 0.000902958 3.7517e-11 -4.35633e-10 7.6541e-10 5e-05 1.46608e-10 
144 1 0.0560352 0.0169038 0.00753238 0.00611391 7.54142e-05 0.000992106 2.72461e-10 2.77689e-10 -1.60997e-10 5e-05 1.46608e-10 
146 1 0.0558954 0.0164947 0.00808296 0.00590301 0.000144726 0.00107571 8.23863e-10 2.1026e-10 -7.46519e-11 5e-05 1.46608e-10 
147 1 0.0556514 0.016054 0.0086423 0.00555071 -0.000592813 0.000268355 -5.29794e-11 -2.95884e-10 2.98492e-10 5e-05 1.46608e-10 
148 1 0.0559376 0.0172111 0.00724624 0.00558996 -0.000340984 -0.000123274 1.86917e-10 6.80933e-11 -9.12462e-11 5e-05 1.46608e-10 
149 1 0.0623357 0.0182433 0.00716297 0.00569826 0.000249496 -0.000198975 5.49471e-11 -9.7538e-11 -5.82021e-12 5e-05 1.46608e-10 
150 1 0.0559317 0.0166116 0.00792485 0.00581732 0.000170683 0.000998511 -3.14909e-10 3.33373e-10 -5.32869e-10 5e-05 1.46608e-10 
151 1 0.0562777 0.0171434 0.00725651 0.00565156 -0.000511672 -0.000100932 7.96521e-10 -7.71427e-10 6.70499e-11 5e-05 1.46608e-10 
153 1 0.0557753 0.0164091 0.00817889 0.00569552 0.000124408 0.000941515 -4.09139e-10 -1.14551e-10 -1.71857e-10 5e-05 1.46608e-10 
154 1 0.0560329 0.0172398 0.00722911 0.00556785 -0.000505866 -7.10891e-05 -4.28997e-10 -5.22631e-10 1.05159e-09 5e-05 1.46608e-10 
155 1 0.0561111 0.0176273 0.00719064 0.00526171 -0.000830377 0.000462115 2.56537e-10 3.04687e-10 3.15469e-11 5e-05 1.46608e-10 
156 1 0.056013 0.0171494 0.00726857 0.00552543 -0.000365976 2.68881e-05 6.04281e-11 -2.8821e-10 -2.77988e-10 5e-05 1.46608e-10 
157 1 0.0219312 0.0187687 0.00551176 -3.82734e-14 8.17134e-14 2.95882e-13 3.75307e-22 -2.57046e-22 1.20148e-22 5e-05 1.46608e-10 
158 1 0.0561279 0.0172709 0.00722177 0.00564652 -0.000502905 0.000131737 1.52564e-10 -2.70707e-10 4.96069e-10 5e-05 1.46608e-10 
159 1 0.0622337 0.0177543 0.00714123 0.00564444 0.000215966 -0.000196676 9.46045e-11 -1.4842e-11 -6.03522e-11 5e-05 1.46608e-10 
160 1 0.0560169 0.0175949 0.00718099 0.00527157 -0.000915256 0.000459213 -1.70466e-10 6.01877e-11 5.80706e-11 5e-05 1.46608e-10 
162 1 0.0560529 0.0173302 0.00719001 0.00559257 -0.000468974 -9.19497e-05 -1.83778e-10 3.70227e-10 -3.98767e-11 5e-05 1.46608e-10 
164 1 0.0562669 0.0179538 0.00721442 0.0056414 -0.000350772 0.000510457 4.16374e-10 -1.68653e-10 1.48843e-11 5e-05 1.46608e-10 
165 1 0.0563371 0.0174295 0.00720584 0.00565613 -0.000443154 0.000516688 -4.41248e-11 4.61841e-10 -4.40706e-11 5e-05 1.46608e-10 
166 1 0.0618844 0.0163346 0.00793148 0.00610369 -0.000227467 -0.000511155 4.05327e-11 -6.74174e-11 5.48721e-12 5e-05 1.46608e-10 
167 1 0.0559155 0.0165532 0.00800433 0.00583398 0.000152079 0.00103068 4.96261e-11 3.80482e-10 -3.9595e-10 5e-05 1.46608e-10 
168 1 0.0562028 0.0172059 0.00723429 0.0056126 -0.00054323 -3.52549e-05 2.72766e-10 -5.4658e-10 3.47267e-10 5e-05 1.46608e-10 
169 1 0.0563955 0.0177234 0.00721969 0.00570222 -0.000414506 0.000525141 9.89327e-11 2.16891e-11 -7.92819e-11 5e-05 1.46608e-10 
170 1 0.0562427 0.0173979 0.0071962 0.00563848 -0.000406835 0.000504984 2.42394e-10 -9.60843e-11 -1.98015e-10 5e-05 1.46608e-10 
171 1 0.0619061 0.0164099 0.00786935 0.00613523 0.000197762 1.35017e-05 8.28085e-11 -4.91675e-11 5.31833e-11 5e-05 1.46608e-10 
172 1 0.0563167 0.0173308 0.00720112 0.00563238 -0.000390221 0.000515212 4.57049e-10 -8.53338e-11 -6.26297e-11 5e-05 1.46608e-10 
173 1 0.0623426 0.017384 0.00715995 0.00568559 0.00035542 -0.000118291 -1.5055e-10 -2.81421e-11 3.21308e-11 5e-05 1.46608e-10 
174 1 0.056168 0.0174643 0.00719121 0.005591 -0.000456997 0.000493613 -2.66999e-11 -1.49161e-10 6.2205e-11 5e-05 1.46608e-10 
175 1 0.0499926 0.0174737 0.00717338 0.00553711 0.000148639 0.000320046 2.56921e-10 4.72974e-10 1.73568e-10 5e-05 1.46608e-10 
176 1 0.0559934 0.0170592 0.00730713 0.00553341 -0.000540561 -6.83437e-05 -1.36794e-10 3.03975e-10 -5.69535e-11 5e-05 1.46608e-10 
177 1 0.056055 0.0177912 0.00719016 0.00533769 -0.000580783 0.000475389 1.27105e-10 1.37508e-10 5.24673e-12 5e-05 1.46608e-10 
178 1 0.0564511 0.0175593 0.00722011 0.00557953 -0.000448958 0.000443497 -5.26811e-11 -3.12678e-10 3.87988e-11 5e-05 1.46608e-10 
179 1 0.0563762 0.0176254 0.0072151 0.00562492 -0.000411046 0.0005052 -2.43476e-11 1.92352e-10 -1.22441e-11 5e-05 1.46608e-10 
181 1 0.0559769 0.0173926 0.00717147 0.00558929 -0.000367944 0.000495826 6.33046e-11 4.35074e-11 -1.71518e-10 5e-05 1.46608e-10 
182 1 0.0618538 0.0165418 0.00777047 0.00614829 0.000207048 7.18857e-06 5.83008e-11 -1.10266e-11 2.08493e-11 5e-05 1.46608e-10 
183 1 0.0562215 0.0173002 0.00719363 0.00566384 -0.000462383 -0.000128853 1.38781e-10 -2.04024e-10 -1.89716e-10 5e-05 1.46608e-10 
184 1 0.06218 0.017762 0.00722523 0.00566755 0.000299564 -0.000219295 2.24568e-11 9.30303e-11 -3.4305e-11 5e-05 1.46608e-10 
185 1 0.055918 0.0171211 0.00728514 0.00551517 -0.00054453 -6.52196e-05 -4.99956e-11 2.29586e-10 -6.63219e-11 5e-05 1.46608e-10 
186 1 0.0559572 0.0173013 0.00720729 0.00553387 -0.000566711 -6.0345e-05 7.01077e-10 2.85789e-10 1.30447e-09 5e-05 1.46608e-10 
187 1 0.0621722 0.0170324 0.00741571 0.00570498 0.000354156 -0.000114891 -9.26488e-11 9.37469e-11 -7.27164e-11 5e-05 1.46608e-10 
188 1 0.0622611 0.0183095 0.00716921 0.00570626 0.000260256 -0.00019868 1.35803e-10 5.6028e-11 4.68622e-12 5e-05 1.46608e-10 
189 1 0.0622125 0.0171904 0.00729987 0.00582932 0.000326915 -9.16206e-05 -7.44566e-11 2.86409e-12 -6.32659e-12 5e-05 1.46608e-10 
190 1 0.0500909 0.0175092 0.00716185 0.00557894 0.000179506 0.000383292 2.46438e-10 -3.11795e-10 1.33574e-10 5e-05 1.46608e-10 
191 1 0.0622855 0.0188517 0.00719662 0.00579346 0.000270132 -0.000201172 2.14935e-10 -7.5088e-12 -3.68209e-11 5e-05 1.46608e-10 
192 1 0.056147 0.0169894 0.00743477 0.00587184 0.000246892 0.000900208 6.1667e-10 4.22731e-10 -5.72115e-10 5e-05 1.46608e-10 
193 1 0.0619958 0.0167274 0.0076368 0.00577554 0.000350585 -0.000110716 3.50902e-10 1.91821e-10 -1.30534e-10 5e-05 1.46608e-10 
194 1 0.0559748 0.0167284 0.00776832 0.00591679 0.000225053 0.000944302 -2.33854e-10 2.50851e-10 -2.88824e-10 5e-05 1.46608e-10 
195 1 0.0563568 0.0175274 0.00721048 0.00560873 -0.000421046 0.000508197 -2.70797e-10 1.99181e-10 7.61914e-11 5e-05 1.46608e-10 
196 1 0.0554556 0.0157194 0.00903796 0.00445427 -0.000374823 -9.69289e-05 -4.75215e-10 -9.37672e-10 1.15931e-09 5e-05 1.46608e-10 
197 1 0.0500506 0.017753 0.00708489 0.00556777 -1.50308e-05 -0.000253283 -6.86961e-11 -2.57985e-10 1.02367e-10 5e-05 1.46608e-10 
198 1 0.0558469 0.0168483 0.00757091 0.00593058 0.00025988 0.000903572 8.05916e-11 2.94324e-10 -4.47641e-10 5e-05 1.46608e-10 
199 1 0.0560717 0.0174281 0.00718126 0.00558885 -0.000541602 0.000484936 4.14121e-10 -6.74651e-10 -4.32785e-10 5e-05 1.46608e-10 
200 1 0.0559412 0.0168758 0.00755202 0.00600728 0.000147664 0.00091337 1.70128e-10 7.24608e-12 -1.85406e-10 5e-05 1.46608e-10 
201 1 0.0563632 0.017985 0.00722367 0.00576267 -0.000334661 0.000319596 2.24671e-10 5.50888e-11 -7.28563e-10 5e-05 1.46608e-10 
202 1 0.0561617 0.0170478 0.00735497 0.0056199 0.000302265 0.000833264 3.80724e-11 2.88533e-10 -7.54138e-10 5e-05 1.46608e-10 
203 1 0.0623821 0.0175558 0.00712534 0.00572415 0.000271059 -0.000200613 -3.49423e-10 -4.54041e-11 1.57921e-11 5e-05 1.46608e-10 
204 1 0.055921 0.0168174 0.00763059 0.0059202 0.000219445 0.000935479 -7.23574e-11 7.58641e-11 -3.16431e-10 5e-05 1.46608e-10 
205 1 0.0562253 0.0177584 0.00720497 0.00557381 -0.000391084 0.000513482 3.81402e-10 -2.67462e-11 7.33265e-11 5e-05 1.46608e-10 
206 1 0.0561872 0.0175623 0.007196 0.00553595 -0.000429236 0.000493125 -3.6968e-10 -9.18075e-11 3.59815e-11 5e-05 1.46608e-10 
207 1 0.0557611 0.0163641 0.00826705 0.00562727 0.0001394 0.000950968 -5.13787e-10 5.01157e-10 4.81555e-10 5e-05 1.46608e-10 
208 1 0.0561479 0.0173671 0.00720337 0.00566429 -0.000474838 0.000396311 4.29884e-10 -2.19134e-10 7.56374e-10 5e-05 1.46608e-10 
209 1 0.0559528 0.01667 0.00784648 0.00587005 0.000195204 0.000975358 -3.70073e-10 2.65617e-10 -5.76391e-10 5e-05 1.46608e-10 
210 1 0.0620032 0.0174221 0.00723867 0.00576034 0.000305339 -6.26495e-05 4.52321e-11 -1.62017e-11 -9.50824e-12 5e-05 1.46608e-10 
211 1 0.0622925 0.0180482 0.00715439 0.00567322 0.000244562 -0.000199124 -1.01089e-10 -4.24096e-11 8.67357e-12 5e-05 1.46608e-10 
212 1 0.0562624 0.0174958 0.00720127 0.00559778 -0.00039341 0.00049767 -2.66316e-10 7.58357e-11 4.0538e-14 5e-05 1.46608e-10 
213 1 0.0621529 0.0169533 0.00747374 0.00576223 0.000346506 -0.000107813 3.65851e-10 8.85287e-11 -5.51702e-11 5e-05 1.46608e-10 
214 1 0.0622177 0.0181143 0.00716062 0.00567776 0.00026121 -0.000197586 -1.01313e-10 -3.97687e-11 1.13613e-11 5e-05 1.46608e-10 
215 1 0.0500681 0.0174129 0.0071982 0.00556048 0.000216925 0.000361152 4.00369e-10 1.47177e-10 3.07424e-10 5e-05 1.46608e-10 
216 1 0.0560359 0.017693 0.00718557 0.00525692 -0.000869834 0.000463259 8.98521e-11 6.05609e-11 -2.62169e-11 5e-05 1.46608e-10 
217 1 0.0619507 0.0165683 0.00775332 0.00620637 0.00027001 -3.97199e-05 1.09716e-12 -1.57222e-11 8.18673e-12 5e-05 1.46608e-10 
218 1 0.0561496 0.0178236 0.00719984 0.00545843 -0.000453916 0.000492095 -5.06968e-11 1.4131e-10 -1.30359e-11 5e-05 1.46608e-10 
219 1 0.0622206 0.0185591 0.00718375 0.00574403 0.000265732 -0.000200007 9.87193e-11 3.67577e-11 -1.29651e-11 5e-05 1.46608e-10 
220 1 0.0559972 0.0174947 0.00717799 0.00551532 -0.000626062 0.000619287 -4.33548e-11 -1.01657e-09 1.47439e-09 5e-05 1.46608e-10 
221 1 0.049963 0.0169555 0.00737117 0.00554359 -0.00022515 0.000542375 -1.93281e-10 7.91017e-11 -2.15781e-10 5e-05 1.46608e-10 
222 1 0.0619733 0.016648 0.00769496 0.00638326 0.000621186 -0.000294936 -6.01557e-11 5.39587e-11 -4.2443e-11 5e-05 1.46608e-10 
223 1 0.0560858 0.0171002 0.00731639 0.00536132 -0.000212772 0.000465819 -3.06723e-10 -5.26768e-10 -5.97631e-10 5e-05 1.46608e-10 
224 1 0.0558984 0.0170311 0.00732403 0.005472 -0.000593418 -4.27299e-05 4.53233e-11 1.2168e-10 -4.75022e-11 5e-05 1.46608e-10 
225 1 0.0623082 0.0176229 0.00713161 0.0057453 0.000312322 -0.000122004 1.73696e-11 2.32285e-10 2.52757e-10 5e-05 1.46608e-10 
226 1 0.0562972 0.0172341 0.00721738 0.00557295 -0.000492398 -0.000103532 -1.73844e-10 -1.14548e-10 4.49528e-11 5e-05 1.46608e-10 
227 1 0.0500282 0.0172297 0.00726767 0.00569463 0.000241044 0.000369969 -1.34316e-10 -4.19782e-11 1.71606e-11 5e-05 1.46608e-10 
228 1 0.0500117 0.0175635 0.00713383 0.00557885 0.000179421 0.000387385 -9.23649e-11 -1.9363e-10 -7.60669e-11 5e-05 1.46608e-10 
229 1 0.055958 0.0171233 0.00737678 0.00720859 -0.000416925 -0.000802833 -1.26289e-11 4.10897e-11 -1.11248e-10 5e-05 1.46608e-10 
230 1 0.0563104 0.0181489 0.00721946 0.00563512 -0.000323526 -8.08434e-05 -8.72144e-11 -2.72736e-10 7.75321e-10 5e-05 1.46608e-10 
231 1 0.0499728 0.0173803 0.00720336 0.00569644 0.000195236 0.000388076 -2.507e-10 -2.03932e-10 6.90158e-12 5e-05 1.46608e-10 
232 1 0.0558566 0.0163779 0.00824052 0.00565281 0.000104609 0.00105193 -5.04963e-10 1.89639e-10 5.8843e-10 5e-05 1.46608e-10 
233 1 0.0559962 0.0167874 0.00768924 0.00582669 0.000165883 0.000997679 2.60509e-11 -5.4373e-11 4.3252e-11 5e-05 1.46608e-10 
234 1 0.0622836 0.0184069 0.00717346 0.00571496 0.000261353 -0.000199069 1.54493e-10 -1.71668e-11 -6.6178e-12 5e-05 1.46608e-10 
235 1 0.0563537 0.0183442 0.00721507 0.00564599 -0.000352652 -0.000137094 -5.68448e-10 -8.25035e-11 6.25924e-11 5e-05 1.46608e-10 
236 1 0.0563322 0.0182465 0.00721652 0.00561447 -0.000337563 -0.000177497 -2.54841e-10 -5.22154e-11 1.11258e-09 5e-05 1.46608e-10 
237 1 0.0564068 0.0181799 0.00721542 0.00561896 -0.000344046 -0.000137345 1.29951e-10 1.70396e-10 -1.72616e-11 5e-05 1.46608e-10 
239 1 0.0497985 0.0166696 0.00770001 0.00605986 -0.000480279 -0.00046614 -1.33477e-12 2.51505e-10 -2.66706e-10 5e-05 1.46608e-10 
240 1 0.0498565 0.0168669 0.0074816 0.00551861 -0.000352158 -0.000524844 8.89825e-11 8.03281e-11 -3.41347e-10 5e-05 1.46608e-10 
241 1 0.0497771 0.0166043 0.00777265 0.00602716 -0.000480237 -0.000463396 -1.22078e-10 -3.45605e-11 6.58029e-11 5e-05 1.46608e-10 
242 1 0.0561131 0.0168725 0.00759345 0.00620374 0.000208865 0.00100171 2.47873e-10 2.63964e-10 -2.9198e-10 5e-05 1.46608e-10 
243 1 0.0559003 0.016759 0.00770907 0.00591044 0.000232227 0.000946018 -1.17222e-10 4.29883e-10 -3.19588e-10 5e-05 1.46608e-10 
244 1 0.0498199 0.0167349 0.00762736 0.0060694 -0.000467911 -0.000479326 -3.16445e-10 3.09867e-10 -2.81334e-10 5e-05 1.46608e-10 
246 1 0.0499332 0.017197 0.00727287 0.0056617 0.000191696 0.000381304 4.82316e-11 -1.25723e-11 -6.9593e-12 5e-05 1.46608e-10 