ITEM: TIMESTEP
5200000
ITEM: NUMBER OF ATOMS
287
ITEM: BOX BOUNDS ff ff ff
-0.02 0.43
-0.02 0.06
-0.02 0.07
ITEM: ATOMS id type x y z vx vy vz fx fy fz radius mass 
1 1 0.0431578 0.0163077 0.00774159 0.00573095 -0.000490615 0.000335851 -1.37253e-10 -3.37602e-11 8.38352e-11 5e-05 1.46608e-10 
2 1 0.0435497 0.0173006 0.00741561 0.00536168 -0.000494927 0.000391817 -7.90147e-11 1.06897e-10 -2.68085e-11 5e-05 1.46608e-10 
3 1 0.0369294 0.015866 0.00825741 0.00641943 0.000807279 -0.000699822 -2.90362e-10 -6.72296e-10 8.96319e-10 5e-05 1.46608e-10 
4 1 0.0434802 0.017797 0.00724637 0.00571908 -0.000410089 0.000515758 -3.12279e-11 1.54244e-10 -4.41563e-11 5e-05 1.46608e-10 
5 1 0.0430439 0.0162299 0.00785899 0.00568953 -0.000510018 0.000376273 9.73267e-12 -1.17786e-10 -8.54816e-13 5e-05 1.46608e-10 
6 1 0.0491505 0.016722 0.00770118 0.00582609 0.000802489 -0.000163741 4.38554e-12 -8.82065e-12 1.48104e-11 5e-05 1.46608e-10 
7 1 0.0432221 0.017016 0.00749974 0.00528898 -0.000400833 0.000355561 6.15156e-11 5.20838e-11 -1.53577e-11 5e-05 1.46608e-10 
8 1 0.0429407 0.0159348 0.00824902 0.00598095 -0.000518167 0.000360255 -3.43849e-11 -1.03759e-11 1.94183e-11 5e-05 1.46608e-10 
9 1 0.0493938 0.0177894 0.0071086 0.00572827 0.000617751 -0.000372429 -9.01101e-12 -1.47817e-11 8.42584e-12 5e-05 1.46608e-10 
10 1 0.043162 0.0167373 0.0075929 0.00542545 -0.00041723 0.000367181 2.44853e-12 1.14403e-11 6.36872e-12 5e-05 1.46608e-10 
11 1 0.0435903 0.0174866 0.00735347 0.00559416 -0.000502414 0.000414913 1.68919e-10 -9.66911e-12 -1.58945e-10 5e-05 1.46608e-10 
12 1 0.0371301 0.0165854 0.00762275 0.00525991 0.00080938 -0.000549335 -8.70979e-11 1.51456e-10 -5.85193e-11 5e-05 1.46608e-10 
13 1 0.0430246 0.0161677 0.0079349 0.00571701 -0.000518498 0.000373166 1.25943e-10 -5.89312e-11 4.24661e-11 5e-05 1.46608e-10 
14 1 0.0368429 0.0156247 0.00856447 0.00636526 0.00084025 -0.000745186 4.68168e-11 1.17851e-10 -1.42016e-10 5e-05 1.46608e-10 
15 1 0.0433598 0.017238 0.00742927 0.00530555 -0.000390909 0.000352343 3.16005e-11 -1.05962e-10 3.82654e-11 5e-05 1.46608e-10 
16 1 0.0368213 0.0155644 0.00864123 0.00634403 0.00081717 -0.000716158 6.95066e-11 8.20449e-11 -1.09261e-10 5e-05 1.46608e-10 
17 1 0.0431418 0.0166444 0.00762394 0.0056757 -0.000462929 0.000392439 -1.25679e-10 4.63049e-12 1.90617e-11 5e-05 1.46608e-10 
18 1 0.0492769 0.0172108 0.00721651 0.00576637 0.000614571 -0.000373413 1.06513e-11 -3.37068e-11 -6.35939e-11 5e-05 1.46608e-10 
19 1 0.0430051 0.0161093 0.00801365 0.00602012 -0.000556694 0.000408008 5.29431e-11 -6.24455e-11 7.77728e-11 5e-05 1.46608e-10 
21 1 0.0431392 0.0162451 0.00782582 0.00567943 -0.000524475 0.000386092 -1.25558e-10 -3.39008e-12 9.78936e-12 5e-05 1.46608e-10 
22 1 0.0432612 0.0172021 0.00743753 0.00531802 -0.000385746 0.000351814 -1.11843e-11 -6.7424e-11 2.28303e-11 5e-05 1.46608e-10 
23 1 0.0373042 0.016963 0.00742892 0.00565734 0.000738187 -0.000522471 1.5629e-10 -1.02908e-10 3.7191e-11 5e-05 1.46608e-10 
24 1 0.0493351 0.0175001 0.00716256 0.00575357 0.000614615 -0.000372873 -8.28104e-11 2.59572e-11 5.63559e-12 5e-05 1.46608e-10 
25 1 0.0432021 0.0169231 0.0075308 0.00543087 -0.000425577 0.000369921 1.54213e-11 6.30609e-11 -2.52912e-11 5e-05 1.46608e-10 
26 1 0.0492244 0.0170001 0.00742337 0.00578861 0.000804877 -0.000170335 -2.10762e-11 -3.61185e-11 1.91823e-11 5e-05 1.46608e-10 
27 1 0.0372092 0.0169351 0.0074455 0.00565234 0.000714236 -0.000516666 2.24637e-12 -4.81306e-11 3.35232e-11 5e-05 1.46608e-10 
28 1 0.0434602 0.0177033 0.00727503 0.00565997 -0.000401848 0.000507854 4.03434e-11 3.63224e-11 -1.4588e-11 5e-05 1.46608e-10 
29 1 0.0429838 0.0160511 0.00809213 0.00602638 -0.000546822 0.000395589 1.09211e-10 -6.73505e-11 8.77502e-11 5e-05 1.46608e-10 
30 1 0.0434953 0.0174555 0.00736026 0.00554097 -0.000441132 0.000395178 5.09433e-11 1.81104e-11 -1.46407e-12 5e-05 1.46608e-10 
31 1 0.0432417 0.0171091 0.00746863 0.0052812 -0.000401209 0.000354657 4.99552e-11 -3.77085e-11 3.45791e-11 5e-05 1.46608e-10 
32 1 0.0433401 0.017145 0.00746036 0.00531136 -0.000394331 0.000354334 1.6349e-11 -5.76127e-12 3.44884e-12 5e-05 1.46608e-10 
33 1 0.0491697 0.0167914 0.00763187 0.00587011 0.000798516 -0.000154641 2.19935e-12 2.97337e-12 -7.80268e-13 5e-05 1.46608e-10 
34 1 0.0431213 0.0165516 0.00765495 0.00569886 -0.000464389 0.000391433 -5.94719e-11 2.76332e-11 -1.61705e-12 5e-05 1.46608e-10 
35 1 0.0433205 0.017052 0.00749147 0.00528064 -0.000397401 0.000355564 1.70609e-10 5.22418e-11 -2.40661e-11 5e-05 1.46608e-10 
36 1 0.0494329 0.0179822 0.00707262 0.00570619 0.000622967 -0.000372282 -6.96442e-12 -4.10101e-11 7.67008e-12 5e-05 1.46608e-10 
37 1 0.043281 0.016866 0.00755364 0.00543323 -0.000423353 0.000369593 3.9554e-12 6.67981e-11 -2.70203e-11 5e-05 1.46608e-10 
38 1 0.0434351 0.0171768 0.00745338 0.00530601 -0.000389655 0.000353489 7.97556e-11 -7.55083e-11 -6.3022e-12 5e-05 1.46608e-10 
39 1 0.0493546 0.0175966 0.00714457 0.00575521 0.00061366 -0.000373135 4.24796e-11 3.80207e-11 -2.52894e-11 5e-05 1.46608e-10 
41 1 0.0430803 0.0163659 0.00771696 0.00571303 -0.00048043 0.000401431 2.12629e-11 7.26162e-11 1.05097e-11 5e-05 1.46608e-10 
42 1 0.0432809 0.017295 0.00740643 0.00531868 -0.000376777 0.000348699 -2.27474e-11 -1.92843e-10 6.81103e-11 5e-05 1.46608e-10 
44 1 0.0434548 0.0172697 0.0074223 0.00533235 -0.000398882 0.000354408 -4.85486e-11 -2.15119e-11 3.21505e-11 5e-05 1.46608e-10 
45 1 0.0491888 0.0168609 0.00756253 0.00591661 0.000795894 -0.000146027 -9.74874e-12 1.4331e-11 -1.57468e-11 5e-05 1.46608e-10 
46 1 0.0492593 0.0171393 0.00728409 0.00573399 0.000804995 -0.000175292 8.78716e-11 3.55743e-11 3.63724e-11 5e-05 1.46608e-10 
47 1 0.0431008 0.0164587 0.00768597 0.00571638 -0.00047472 0.000396064 1.87279e-10 4.76565e-11 -8.13634e-12 5e-05 1.46608e-10 
48 1 0.0433209 0.0174809 0.00734431 0.00554677 -0.000382221 0.000360002 -5.24506e-11 -1.85691e-10 5.72334e-11 5e-05 1.46608e-10 
49 1 0.0492433 0.0170696 0.00735399 0.00575699 0.000804198 -0.000174278 -4.14623e-11 -2.50032e-11 3.32736e-11 5e-05 1.46608e-10 
50 1 0.0433834 0.0177624 0.00725065 0.00567466 -0.000381118 0.000502827 3.3644e-11 7.49363e-11 -2.27802e-11 5e-05 1.46608e-10 
51 1 0.0433624 0.017668 0.00728182 0.00561414 -0.00046147 0.000390002 -4.36414e-12 -4.72542e-11 1.31064e-11 5e-05 1.46608e-10 
52 1 0.03711 0.016498 0.00766704 0.00577535 0.000719651 -0.000516508 -2.03121e-10 1.23496e-10 -3.90663e-11 5e-05 1.46608e-10 
53 1 0.0492963 0.0173073 0.00719852 0.00575244 0.00061939 -0.000372418 2.99679e-11 1.69132e-11 -3.215e-11 5e-05 1.46608e-10 
54 1 0.0431213 0.0161863 0.00790492 0.00569523 -0.000508789 0.000370577 4.12209e-11 -9.64605e-11 9.28625e-13 5e-05 1.46608e-10 
55 1 0.0368862 0.0157454 0.00841094 0.00640655 0.000860981 -0.000768763 -4.23009e-12 3.84506e-10 -4.52704e-10 5e-05 1.46608e-10 
56 1 0.043301 0.016959 0.00752258 0.00530718 -0.000398051 0.000355956 1.13193e-10 -2.68793e-12 4.59324e-12 5e-05 1.46608e-10 
57 1 0.0492069 0.0169305 0.00749301 0.00583229 0.00080283 -0.000162781 6.14579e-11 9.37942e-13 4.39954e-12 5e-05 1.46608e-10 
59 1 0.0433564 0.0168048 0.00757775 0.00526511 -0.00041442 0.00035918 -4.13019e-11 4.92185e-11 -2.07992e-11 5e-05 1.46608e-10 
60 1 0.0433763 0.0168978 0.00754669 0.00531759 -0.000405745 0.000358504 1.06839e-10 1.99143e-11 9.69289e-12 5e-05 1.46608e-10 
61 1 0.0430631 0.0162981 0.00778846 0.005696 -0.00049257 0.00039257 -9.26953e-11 -8.07233e-12 -2.69501e-13 5e-05 1.46608e-10 
62 1 0.0434751 0.0173626 0.00739127 0.00543749 -0.000421183 0.000367161 -9.70425e-11 3.38411e-11 1.01636e-11 5e-05 1.46608e-10 
63 1 0.0434203 0.017517 0.00733604 0.00557519 -0.000414633 0.000375466 6.4851e-11 7.19313e-11 5.48965e-12 5e-05 1.46608e-10 
64 1 0.0493157 0.0174037 0.00718054 0.00574526 0.00061954 -0.000373005 4.14271e-11 1.27639e-11 -4.68146e-12 5e-05 1.46608e-10 
65 1 0.0372257 0.0166132 0.00760621 0.00541122 0.000816633 -0.00056162 -4.67605e-10 -5.83515e-11 9.66139e-11 5e-05 1.46608e-10 
66 1 0.0371648 0.0163518 0.0077402 0.0060687 0.000682911 -0.000552666 -7.03474e-11 -2.12676e-11 -2.34014e-10 5e-05 1.46608e-10 
67 1 0.0435699 0.0173935 0.00738457 0.00549265 -0.000494993 0.000400978 7.61065e-11 -7.78186e-11 4.08455e-11 5e-05 1.46608e-10 
68 1 0.0435353 0.0176416 0.00729879 0.0056433 -0.000424239 0.000517188 9.04436e-11 1.41224e-11 8.47538e-11 5e-05 1.46608e-10 
69 1 0.0432201 0.0165867 0.00764698 0.00563046 -0.000510928 0.000407194 -1.48936e-10 1.84463e-10 -6.9496e-11 5e-05 1.46608e-10 
70 1 0.0493742 0.017693 0.00712658 0.00574018 0.000615332 -0.00037244 1.52913e-11 -4.2935e-12 -3.90508e-12 5e-05 1.46608e-10 
71 1 0.0368645 0.015685 0.0084877 0.00638474 0.000856641 -0.000764589 1.1088e-10 3.17869e-10 -4.19365e-10 5e-05 1.46608e-10 
72 1 0.0435154 0.0175485 0.00732953 0.00561235 -0.000437072 0.000469961 5.12083e-11 1.09788e-11 1.21867e-10 5e-05 1.46608e-10 
73 1 0.0431821 0.0168302 0.00756185 0.00542606 -0.00042097 0.000368434 4.37764e-11 3.17249e-11 -5.54597e-12 5e-05 1.46608e-10 
74 1 0.0433794 0.017331 0.00739817 0.00531257 -0.000352197 0.000339876 1.30843e-10 -9.61363e-11 5.85953e-11 5e-05 1.46608e-10 
76 1 0.0374395 0.0175757 0.00711853 0.00582079 0.000677569 -0.000500128 1.81196e-11 -9.9464e-11 1.04554e-10 5e-05 1.46608e-10 
77 1 0.0436054 0.0183551 0.00707997 0.00591362 -0.000444634 0.000538137 -2.94145e-11 -1.62828e-10 2.5567e-12 5e-05 1.46608e-10 
78 1 0.036951 0.0159263 0.00818065 0.00634096 0.000758102 -0.000648273 -3.7712e-10 -3.33691e-10 4.53906e-10 5e-05 1.46608e-10 
79 1 0.0371499 0.0166728 0.00757844 0.00512474 0.000819461 -0.000550407 -4.6598e-10 1.29874e-10 -6.50299e-11 5e-05 1.46608e-10 
80 1 0.0434463 0.0180459 0.00716608 0.0057431 -0.000528077 0.000550012 2.07e-11 -1.72448e-10 6.94993e-11 5e-05 1.46608e-10 
81 1 0.0370894 0.0164107 0.0077113 0.00601983 0.000664451 -0.00050171 -5.17211e-11 -2.7668e-12 -5.85118e-11 5e-05 1.46608e-10 
82 1 0.0372285 0.0170226 0.00740115 0.00568073 0.000744369 -0.000525825 5.30142e-11 6.82253e-11 -4.15703e-11 5e-05 1.46608e-10 
83 1 0.0372205 0.0162124 0.00782562 0.00588032 0.000587746 -0.000454261 -3.52e-10 -3.28348e-11 5.53666e-11 5e-05 1.46608e-10 
84 1 0.0494133 0.0178858 0.00709061 0.00571755 0.000620224 -0.00037257 -7.66863e-12 -2.50225e-11 2.68754e-12 5e-05 1.46608e-10 
85 1 0.0370471 0.0159478 0.00815807 0.00617697 0.000635953 -0.000494296 2.71162e-09 1.05777e-10 2.1849e-11 5e-05 1.46608e-10 
86 1 0.0434404 0.0176099 0.00730499 0.00561968 -0.000456818 0.000388312 1.91405e-11 -3.70764e-11 1.62278e-11 5e-05 1.46608e-10 
87 1 0.0433364 0.0167119 0.00760881 0.0053088 -0.000433919 0.000367848 -2.87759e-11 9.99432e-11 -3.11631e-11 5e-05 1.46608e-10 
88 1 0.0435073 0.0183203 0.00708425 0.0058972 -0.000399757 0.000520888 3.65274e-10 4.71252e-10 2.47817e-11 5e-05 1.46608e-10 
89 1 0.0434672 0.0181397 0.00713811 0.00582518 -0.00038513 0.000514304 -1.78569e-10 -6.04803e-10 1.57681e-10 5e-05 1.46608e-10 
90 1 0.0435102 0.0171154 0.00747754 0.00533802 -0.000349127 0.00034 7.18891e-11 -1.64067e-10 5.41889e-11 5e-05 1.46608e-10 
91 1 0.0371696 0.0167603 0.00753412 0.00539948 0.000755438 -0.000525975 -6.18092e-10 9.71205e-11 -1.51245e-11 5e-05 1.46608e-10 
92 1 0.0435757 0.0178293 0.0072427 0.00574495 -0.000468169 0.000535409 -1.35436e-10 -6.59487e-11 1.67259e-11 5e-05 1.46608e-10 
93 1 0.0435642 0.0181717 0.00713465 0.00584091 -0.000389332 0.000519965 -1.98391e-10 1.38435e-10 -2.66127e-11 5e-05 1.46608e-10 
94 1 0.0436413 0.0181125 0.00715841 0.00584059 -0.000393115 0.000518595 -3.62219e-10 1.41557e-10 -6.61923e-11 5e-05 1.46608e-10 
95 1 0.0434255 0.0179521 0.00719405 0.00574797 -0.000441057 0.000530043 1.78333e-10 5.89403e-10 -1.58426e-10 5e-05 1.46608e-10 
96 1 0.0435965 0.0179231 0.00721473 0.00573482 -0.000450001 0.000529147 6.25244e-11 -2.23187e-10 9.06954e-11 5e-05 1.46608e-10 
97 1 0.0370483 0.0162362 0.00779981 0.00600248 0.000662422 -0.0004957 2.13824e-10 1.96818e-10 -1.22331e-10 5e-05 1.46608e-10 
98 1 0.0435281 0.018414 0.00705629 0.00592631 -0.000435669 0.000533855 1.54718e-10 2.34943e-10 -8.60377e-11 5e-05 1.46608e-10 
99 1 0.0372057 0.0165258 0.00765051 0.00552543 0.000795799 -0.000553096 3.35324e-11 -5.29791e-11 1.16586e-10 5e-05 1.46608e-10 
100 1 0.043471 0.0169292 0.00753981 0.00532889 -0.000400773 0.000357876 1.10759e-11 -1.08627e-11 -1.30909e-12 5e-05 1.46608e-10 
101 1 0.0371451 0.0162661 0.00778775 0.00600321 0.000679993 -0.00057564 1.59427e-10 1.75059e-10 -3.63098e-10 5e-05 1.46608e-10 
102 1 0.0643568 0.0187248 0.00531097 4.3548e-15 1.05164e-14 8.29532e-14 1.51484e-21 -1.4e-22 -6.18318e-23 5e-05 1.46608e-10 
103 1 0.24257 0.0191927 0.00520306 -1.23235e-22 -4.80285e-22 8.29106e-22 0 0 0 5e-05 1.46608e-10 
104 1 0.0374567 0.0172535 0.00727932 0.00577471 0.000707179 -0.00051171 1.71561e-10 1.47396e-11 -4.08788e-12 5e-05 1.46608e-10 
105 1 0.0370107 0.0161084 0.00794874 0.00590605 0.000668536 -0.000548003 -3.27083e-11 -1.90163e-10 2.84583e-10 5e-05 1.46608e-10 
106 1 0.0375407 0.0172041 0.00730174 0.00575377 0.000677776 -0.000497128 7.82079e-11 1.23583e-10 -6.43387e-11 5e-05 1.46608e-10 
107 1 0.0369726 0.0159867 0.00810388 0.0063923 0.00074103 -0.000621734 -3.28142e-10 1.24466e-10 1.50218e-10 5e-05 1.46608e-10 
108 1 0.0432609 0.0167731 0.00758469 0.00541362 -0.000430743 0.000371037 2.4088e-11 9.51365e-12 -3.24419e-12 5e-05 1.46608e-10 
109 1 0.0433416 0.0175743 0.00731313 0.00557821 -0.000417918 0.000372862 9.54224e-12 4.33837e-11 -4.22111e-11 5e-05 1.46608e-10 
110 1 0.0436712 0.0178613 0.00723915 0.00570352 -0.000475415 0.000535288 9.40744e-11 -1.18343e-10 2.18834e-11 5e-05 1.46608e-10 
111 1 0.0435697 0.0186014 0.00700038 0.00601643 -0.000440121 0.000547003 -3.61066e-11 -8.4039e-11 3.79068e-11 5e-05 1.46608e-10 
112 1 0.0370689 0.0163235 0.00775555 0.00600672 0.000664359 -0.000497953 -6.80898e-11 1.5859e-10 2.555e-11 5e-05 1.46608e-10 
113 1 0.0377597 0.0173591 0.00721817 0.00579312 0.000628706 -0.000472722 1.09638e-11 6.54716e-11 -4.26989e-11 5e-05 1.46608e-10 
114 1 0.0373987 0.016991 0.00741235 0.00564844 0.000736933 -0.000522171 2.88732e-10 -1.69139e-11 1.74826e-11 5e-05 1.46608e-10 
115 1 0.0433998 0.0174238 0.00736714 0.00557502 -0.000345722 0.000348742 1.28497e-10 8.03916e-11 -2.4209e-11 5e-05 1.46608e-10 
116 1 0.0432405 0.0166798 0.00761586 0.00541517 -0.000428523 0.000370303 -9.83072e-11 -1.11533e-10 3.65486e-11 5e-05 1.46608e-10 
117 1 0.0431022 0.0161278 0.00798373 0.00572617 -0.000508971 0.000364973 7.09995e-11 -8.74274e-11 1.2621e-10 5e-05 1.46608e-10 
118 1 0.0369078 0.0158057 0.00833417 0.00642295 0.000851714 -0.000755617 2.93573e-11 2.58744e-11 8.07518e-11 5e-05 1.46608e-10 
119 1 0.043396 0.0169907 0.00751559 0.00533562 -0.000397698 0.000355734 1.18012e-11 2.05785e-11 2.04805e-11 5e-05 1.46608e-10 
120 1 0.0429621 0.015993 0.00817056 0.00599913 -0.000531077 0.000376522 8.38082e-11 -3.85905e-11 5.50159e-11 5e-05 1.46608e-10 
121 1 0.0429192 0.0158767 0.00832748 0.00596084 -0.000509426 0.000349553 -5.9138e-11 -1.88053e-11 2.65063e-11 5e-05 1.46608e-10 
122 1 0.043692 0.017955 0.00721119 0.00570384 -0.000472002 0.000533295 8.74785e-11 -2.19145e-11 4.49856e-11 5e-05 1.46608e-10 
123 1 0.037087 0.0160688 0.00800393 0.00590839 0.00070137 -0.000587157 -5.88921e-10 -1.54556e-10 9.17622e-11 5e-05 1.46608e-10 
124 1 0.0435214 0.0179845 0.00719041 0.00575785 -0.000446403 0.000529622 1.5619e-10 -2.07209e-10 2.65091e-11 5e-05 1.46608e-10 
125 1 0.0430827 0.0160693 0.00806248 0.00601654 -0.000550222 0.000401407 6.72503e-11 -7.66649e-11 1.08322e-10 5e-05 1.46608e-10 
126 1 0.0433005 0.017388 0.00737534 0.00532586 -0.000357206 0.000342115 -1.88727e-11 -1.79181e-10 5.59894e-11 5e-05 1.46608e-10 
127 1 0.0370291 0.016169 0.00787139 0.00596221 0.000658988 -0.00052082 1.63441e-10 -1.35556e-10 -3.46276e-11 5e-05 1.46608e-10 
128 1 0.0434045 0.0178577 0.00722222 0.00573452 -0.000352272 0.00050215 -9.61471e-13 1.67706e-10 -3.68049e-11 5e-05 1.46608e-10 
129 1 0.0434889 0.0182375 0.00713725 0.00585326 -0.000361718 0.000521317 -1.50663e-10 1.8518e-10 8.60921e-11 5e-05 1.46608e-10 
130 1 0.0373234 0.0170506 0.00738457 0.00566734 0.000743046 -0.000527262 5.6392e-12 -3.37855e-11 6.5645e-12 5e-05 1.46608e-10 
131 1 0.0371854 0.0164385 0.00769478 0.00586176 0.000739199 -0.000529891 -1.20002e-10 -9.98148e-11 -3.42449e-12 5e-05 1.46608e-10 
132 1 0.0435006 0.0178908 0.00721837 0.00576297 -0.000438058 0.00052666 1.06944e-10 1.27826e-10 -3.0757e-11 5e-05 1.46608e-10 
133 1 0.0432544 0.0163469 0.00774765 0.00568919 -0.000525231 0.0004052 1.15686e-10 -5.77225e-11 4.48576e-11 5e-05 1.46608e-10 
134 1 0.0434156 0.0170837 0.0074845 0.00533929 -0.000395438 0.000355115 5.08085e-11 -2.31975e-11 3.94376e-11 5e-05 1.46608e-10 
135 1 0.0430614 0.0160111 0.00814096 0.00602656 -0.000548497 0.000397972 6.8321e-11 -1.03399e-10 1.32774e-10 5e-05 1.46608e-10 
136 1 0.0370255 0.0158875 0.00823484 0.00612825 0.000611438 -0.000462354 -6.53616e-10 4.41023e-10 -6.15914e-10 5e-05 1.46608e-10 
137 1 0.0435906 0.0186952 0.00697242 0.00605645 -0.000435389 0.000549005 -7.59194e-11 -1.6118e-10 5.48713e-11 5e-05 1.46608e-10 
138 1 0.0431989 0.016493 0.00767825 0.00570007 -0.000491413 0.000403262 -1.24437e-10 -1.32435e-11 7.2424e-12 5e-05 1.46608e-10 
140 1 0.0437139 0.0180485 0.00718337 0.00578473 -0.000462716 0.000536646 -2.51494e-10 1.527e-10 -7.77425e-11 5e-05 1.46608e-10 
141 1 0.0370677 0.0160082 0.00808112 0.00594813 0.000686959 -0.000569495 3.79735e-10 1.20397e-10 -1.74727e-10 5e-05 1.46608e-10 
142 1 0.0374181 0.0170785 0.00736801 0.00566555 0.000728626 -0.000520245 2.65852e-10 2.68979e-11 -3.1699e-12 5e-05 1.46608e-10 
143 1 0.0369921 0.0160472 0.00802672 0.00583514 0.000801791 -0.000730136 -6.04061e-10 -5.713e-10 3.74446e-10 5e-05 1.46608e-10 
144 1 0.0373795 0.0169034 0.0074567 0.00564996 0.000733643 -0.000521082 2.42303e-10 -1.32671e-10 2.41496e-11 5e-05 1.46608e-10 
146 1 0.0372397 0.0162912 0.00776703 0.00606229 0.000667758 -0.000496902 -2.55553e-11 1.03942e-10 1.63232e-11 5e-05 1.46608e-10 
147 1 0.0370039 0.0158271 0.00831161 0.00616931 0.000583887 -0.000423965 -4.49693e-10 3.69072e-10 -4.80867e-10 5e-05 1.46608e-10 
148 1 0.0372865 0.0172852 0.00726812 0.00573524 0.000753012 -0.000534149 -9.12342e-11 -3.78408e-12 3.1114e-12 5e-05 1.46608e-10 
149 1 0.0437705 0.0181283 0.00716222 0.005834 -0.000482279 0.000545857 -3.58641e-12 -8.55269e-11 7.85736e-11 5e-05 1.46608e-10 
150 1 0.0372809 0.0164661 0.00767833 0.00569598 0.000961801 -0.000637688 3.01695e-11 1.1879e-10 -8.49882e-11 5e-05 1.46608e-10 
151 1 0.0376166 0.0171451 0.00732922 0.00572162 0.000641132 -0.000477601 -9.53038e-11 4.22876e-11 -1.90666e-11 5e-05 1.46608e-10 
153 1 0.0371247 0.01619 0.00784939 0.00583891 0.000714789 -0.000596252 5.2718e-10 2.36951e-10 -2.92653e-10 5e-05 1.46608e-10 
154 1 0.0373814 0.0173131 0.00725154 0.00579511 0.00072472 -0.000521932 3.38833e-11 -1.02375e-10 4.12136e-11 5e-05 1.46608e-10 
155 1 0.037459 0.0176631 0.0070742 0.00582359 0.000671783 -0.00049122 6.89649e-11 -4.11563e-11 2.75808e-11 5e-05 1.46608e-10 
156 1 0.037362 0.0172256 0.00729588 0.00575389 0.00073835 -0.000526836 2.17103e-10 -6.69455e-11 4.15077e-11 5e-05 1.46608e-10 
157 1 0.0219312 0.0187687 0.00551176 -3.82935e-14 8.16882e-14 2.95887e-13 -1.50263e-22 -1.76086e-22 1.73708e-23 5e-05 1.46608e-10 
158 1 0.037476 0.017341 0.00723498 0.0058084 0.000700722 -0.000510302 -3.99537e-11 1.86284e-11 -9.7875e-12 5e-05 1.46608e-10 
159 1 0.0435552 0.0177355 0.00727072 0.00569651 -0.000455196 0.000528584 -3.86038e-11 -5.10223e-11 3.13279e-11 5e-05 1.46608e-10 
160 1 0.0373642 0.0176352 0.00709077 0.00582548 0.000682582 -0.000496519 6.69325e-11 -2.64394e-11 1.24255e-10 5e-05 1.46608e-10 
162 1 0.0374007 0.0174007 0.0072072 0.00580905 0.000711432 -0.000514599 -7.05737e-11 -6.73204e-11 4.86563e-11 5e-05 1.46608e-10 
164 1 0.0376121 0.0179625 0.00694337 0.0059071 0.000653386 3.73789e-05 1.29448e-10 -6.52666e-11 -4.29864e-11 5e-05 1.46608e-10 
165 1 0.0376758 0.0174086 0.0071957 0.00581832 0.000666614 -0.000494528 -8.90979e-11 -1.12815e-10 6.16845e-11 5e-05 1.46608e-10 
166 1 0.0432154 0.016204 0.00787623 0.00568515 -0.000521763 0.000380965 -4.32838e-11 -1.02974e-11 -1.29501e-11 5e-05 1.46608e-10 
167 1 0.0372604 0.0163785 0.00772273 0.00600321 0.000901249 -0.000617487 8.40978e-11 -6.38087e-11 -3.59559e-11 5e-05 1.46608e-10 
168 1 0.03756 0.0172917 0.00725739 0.00580046 0.000673047 -0.00049588 1.345e-10 2.08131e-10 -9.91085e-11 5e-05 1.46608e-10 
169 1 0.0377826 0.0174503 0.0071719 0.00579867 0.00069035 -0.000504021 2.96612e-10 1.80087e-11 9.64472e-12 5e-05 1.46608e-10 
170 1 0.037599 0.0174667 0.00716873 0.00582611 0.000681142 -0.00049915 8.89355e-11 -7.58974e-12 2.46675e-11 5e-05 1.46608e-10 
171 1 0.0432335 0.0162627 0.00779729 0.00568468 -0.000525978 0.000392247 -5.86915e-11 -1.88559e-11 4.76284e-11 5e-05 1.46608e-10 
172 1 0.0376555 0.0173201 0.00724055 0.00581366 0.000646839 -0.000483293 3.03864e-11 1.11211e-10 -4.62619e-11 5e-05 1.46608e-10 
173 1 0.0435458 0.0168675 0.00756407 0.00532434 -0.000413259 0.000361482 -1.1531e-11 -2.79991e-11 6.51332e-12 5e-05 1.46608e-10 
174 1 0.0375153 0.0175165 0.00714605 0.00581832 0.000673202 -0.000496774 1.31323e-10 -1.0336e-10 -2.22642e-11 5e-05 1.46608e-10 
175 1 0.0312807 0.0172461 0.00723512 0.00570583 0.000315177 -0.000334054 2.5642e-10 7.45239e-10 -5.22657e-10 5e-05 1.46608e-10 
176 1 0.0373428 0.0171381 0.00734023 0.00569991 0.000743657 -0.000528331 8.01925e-12 -7.36168e-12 2.29703e-11 5e-05 1.46608e-10 
177 1 0.0374031 0.0178118 0.00700538 0.00585274 0.000663693 -0.000491975 2.22432e-10 2.36389e-10 -4.90801e-11 5e-05 1.46608e-10 
178 1 0.0377389 0.0172699 0.00726339 0.00578112 0.00059067 -0.000453798 -9.90786e-11 -4.61017e-11 1.91582e-11 5e-05 1.46608e-10 
179 1 0.0377204 0.0175903 0.00710352 0.00578847 0.000612691 -0.000467769 2.68437e-10 -2.74622e-10 1.40242e-10 5e-05 1.46608e-10 
181 1 0.0373253 0.0174602 0.00717944 0.00580524 0.000722471 -0.000515737 1.47592e-13 -1.45707e-11 2.01315e-11 5e-05 1.46608e-10 
182 1 0.0431784 0.0164001 0.00770928 0.00571999 -0.000469447 0.000396394 5.04068e-11 -5.96935e-11 2.39038e-11 5e-05 1.46608e-10 
183 1 0.0375796 0.0173791 0.00721307 0.00582965 0.000678487 -0.000499864 1.49935e-10 1.75547e-10 -9.26259e-11 5e-05 1.46608e-10 
184 1 0.0434962 0.017773 0.00734215 0.00570299 -0.000420878 0.000520352 -2.76442e-10 5.28893e-11 -5.58809e-11 5e-05 1.46608e-10 
185 1 0.0372672 0.0171977 0.00731246 0.00571866 0.000772087 -0.000543108 -2.95131e-11 -1.44186e-10 7.3468e-11 5e-05 1.46608e-10 
186 1 0.0373059 0.0173727 0.00722378 0.00577439 0.000735022 -0.000526747 1.25496e-10 1.27775e-12 -5.86967e-12 5e-05 1.46608e-10 
187 1 0.0434512 0.016836 0.00757095 0.00531275 -0.00040754 0.000358631 1.12051e-10 4.26274e-11 -2.96892e-12 5e-05 1.46608e-10 
188 1 0.0436978 0.0181922 0.00713725 0.00584016 -0.000475506 0.000544009 3.23279e-10 4.21157e-12 -8.51318e-11 5e-05 1.46608e-10 
189 1 0.0434261 0.0169836 0.00761068 0.00532485 -0.000403672 0.000357697 1.28868e-11 -1.62935e-10 5.50946e-11 5e-05 1.46608e-10 
190 1 0.0313559 0.0171825 0.00725242 0.0056991 0.000406501 6.64175e-05 1.01925e-10 2.37205e-10 2.73978e-10 5e-05 1.46608e-10 
191 1 0.0436114 0.0187889 0.00694446 0.00609288 -0.000401538 0.000536774 -8.96274e-11 -1.20929e-10 -2.10292e-11 5e-05 1.46608e-10 
192 1 0.0375019 0.0170288 0.00739059 0.00569735 0.00078445 -0.000549645 9.53626e-11 -5.43477e-11 3.11199e-11 5e-05 1.46608e-10 
193 1 0.0433163 0.016619 0.00763986 0.00549388 -0.000464081 0.000386002 3.3891e-11 1.36522e-10 -4.49839e-11 5e-05 1.46608e-10 
194 1 0.0373208 0.016641 0.00758968 0.00548386 0.000800053 -0.000551652 -4.4728e-11 -4.33856e-10 2.02794e-10 5e-05 1.46608e-10 
195 1 0.0377003 0.0175019 0.00714831 0.00577647 0.000659334 -0.000487413 5.96361e-11 -3.18245e-10 1.25519e-10 5e-05 1.46608e-10 
196 1 0.0367997 0.015504 0.008718 0.00632667 0.000805026 -0.000701253 3.61504e-11 1.33085e-10 -1.66249e-10 5e-05 1.46608e-10 
197 1 0.0313395 0.0175284 0.00715236 0.0057081 0.000297807 -0.000329757 -6.21733e-11 -2.08614e-10 7.37697e-11 5e-05 1.46608e-10 
198 1 0.0371896 0.0168476 0.00748983 0.00561075 0.000713489 -0.000510865 -1.55968e-10 -5.15761e-11 -3.12039e-11 5e-05 1.46608e-10 
199 1 0.0374202 0.0174881 0.00716288 0.00581746 0.000692743 -0.000506645 3.92224e-11 -1.29824e-10 4.4602e-11 5e-05 1.46608e-10 
200 1 0.0372846 0.0168756 0.00747324 0.00565236 0.00073908 -0.000521416 -1.3466e-10 -1.74638e-10 7.66591e-11 5e-05 1.46608e-10 
201 1 0.0377903 0.0179599 0.0069516 0.00593473 0.00052772 6.8178e-05 1.60664e-10 1.41385e-10 -7.83405e-12 5e-05 1.46608e-10 
202 1 0.0375214 0.0171166 0.00734608 0.00569817 0.000679181 -0.000495918 3.11367e-10 1.18774e-10 -7.004e-11 5e-05 1.46608e-10 
203 1 0.043665 0.0174248 0.00737776 0.00558893 -0.000528417 0.000406723 8.12944e-11 -4.65064e-11 -1.80265e-10 5e-05 1.46608e-10 
204 1 0.0372652 0.0167881 0.00751758 0.00559294 0.000765897 -0.00053434 -2.02987e-10 -8.32081e-11 4.94913e-11 5e-05 1.46608e-10 
205 1 0.0375737 0.0177791 0.007013 0.00583583 0.000620925 -0.000448348 3.68264e-10 3.36667e-10 -9.9268e-11 5e-05 1.46608e-10 
206 1 0.0375348 0.017604 0.00710171 0.00580894 0.000671333 -0.000493281 1.55467e-10 -6.895e-11 1.015e-10 5e-05 1.46608e-10 
207 1 0.0371062 0.0161294 0.00792672 0.00590566 0.000705368 -0.000598141 8.94518e-11 2.87913e-11 -8.4527e-11 5e-05 1.46608e-10 
208 1 0.0374957 0.0174286 0.00719058 0.00582613 0.000691378 -0.0005061 1.69979e-10 5.2998e-11 -2.27886e-11 5e-05 1.46608e-10 
209 1 0.037301 0.0165536 0.007634 0.00538765 0.000831257 -0.000563627 -4.82687e-10 -5.18386e-11 5.11365e-11 5e-05 1.46608e-10 
210 1 0.0432709 0.0171 0.00756382 0.00529079 -0.000370716 0.000350794 1.43833e-10 -2.13567e-10 6.82782e-11 5e-05 1.46608e-10 
211 1 0.0436173 0.0180168 0.00718677 0.00572553 -0.000459724 0.000532754 2.21269e-10 -2.84026e-11 2.23747e-11 5e-05 1.46608e-10 
212 1 0.0376185 0.0175541 0.00712439 0.00579174 0.000666643 -0.000494652 1.83952e-10 -2.68018e-10 1.12087e-10 5e-05 1.46608e-10 
213 1 0.0434312 0.0167431 0.00760202 0.00529394 -0.000396014 0.000354265 3.78383e-11 6.68734e-11 -2.434e-11 5e-05 1.46608e-10 
214 1 0.0435422 0.0180782 0.00716245 0.00578864 -0.000412569 0.000520819 -4.24227e-11 -2.17104e-10 9.94985e-11 5e-05 1.46608e-10 
215 1 0.0313288 0.0170179 0.00732375 0.00576031 0.000526507 3.23069e-05 -3.00074e-10 2.69995e-10 1.75728e-10 5e-05 1.46608e-10 
216 1 0.0373837 0.0177231 0.00704716 0.00583405 0.000681062 -0.000473155 2.3615e-11 2.3894e-10 2.35025e-10 5e-05 1.46608e-10 
217 1 0.0432756 0.0164333 0.0077019 0.00568714 -0.000522243 0.000413028 -1.7696e-10 1.67733e-11 -1.15057e-12 5e-05 1.46608e-10 
218 1 0.0374982 0.0178385 0.00698532 0.00580781 0.000620113 -0.000383866 -9.41124e-11 5.77868e-11 -1.773e-10 5e-05 1.46608e-10 
219 1 0.0435489 0.0185077 0.00702834 0.00596337 -0.00044642 0.000542505 1.01373e-11 8.17328e-11 4.95667e-11 5e-05 1.46608e-10 
220 1 0.0373449 0.0175478 0.00713521 0.00581857 0.000700547 -0.000500593 8.11275e-12 -1.07489e-10 -1.91927e-11 5e-05 1.46608e-10 
221 1 0.0312579 0.016732 0.00744656 0.00582944 0.000463873 6.10095e-05 -5.6337e-11 1.42634e-10 -5.95713e-11 5e-05 1.46608e-10 
222 1 0.043296 0.0165261 0.00767089 0.00563378 -0.000509468 0.000407556 -1.6682e-10 1.62882e-10 -6.42266e-11 5e-05 1.46608e-10 
223 1 0.0374374 0.017166 0.00732367 0.00572253 0.000715119 -0.000515172 2.20997e-10 -1.34327e-11 -2.98576e-11 5e-05 1.46608e-10 
224 1 0.0372479 0.0171102 0.00735681 0.00570446 0.000782693 -0.000548246 1.34274e-11 3.86152e-11 -1.56322e-11 5e-05 1.46608e-10 
225 1 0.0436102 0.0175799 0.00732319 0.00562895 -0.000477418 0.000529184 -4.05345e-11 -7.07651e-11 -2.26904e-11 5e-05 1.46608e-10 
226 1 0.0376359 0.0172326 0.00728487 0.00578025 0.000637353 -0.000477273 -6.76794e-11 9.21822e-11 -5.33701e-11 5e-05 1.46608e-10 
227 1 0.0313725 0.0168533 0.00739831 0.00577331 0.000635774 -1.59589e-05 -1.97074e-10 2.2665e-10 -1.28552e-10 5e-05 1.46608e-10 
228 1 0.0313002 0.0173402 0.00720753 0.00571938 0.000280642 -0.000332536 -2.47698e-10 3.60462e-10 -1.59255e-10 5e-05 1.46608e-10 
229 1 0.037252 0.0170133 0.0074979 0.00569107 0.000768241 -0.000523671 6.39893e-11 -1.00876e-10 7.42129e-12 5e-05 1.46608e-10 
230 1 0.0376493 0.018155 0.00693517 0.00637988 0.000534507 -0.000232054 -1.89453e-10 7.1337e-11 5.11457e-11 5e-05 1.46608e-10 
231 1 0.0312612 0.0171519 0.00726271 0.00570311 0.000359172 -0.000322206 -2.29422e-10 -6.22785e-11 -3.98479e-11 5e-05 1.46608e-10 
232 1 0.0372007 0.0161519 0.00790272 0.00579452 0.000594561 -0.000458545 1.10935e-10 1.83038e-11 5.90005e-12 5e-05 1.46608e-10 
233 1 0.0373405 0.0167284 0.00754537 0.00556817 0.000742206 -0.000524435 -5.13709e-10 2.1014e-10 -8.59703e-11 5e-05 1.46608e-10 
234 1 0.0436695 0.0182832 0.00710684 0.00589385 -0.000457887 0.000542847 -4.99286e-11 -2.06334e-10 1.49507e-10 5e-05 1.46608e-10 
235 1 0.0376969 0.0183572 0.00695229 0.00539761 0.000482776 -0.000196389 -5.35585e-10 2.93556e-10 2.08292e-11 5e-05 1.46608e-10 
236 1 0.0376705 0.0182529 0.00694354 0.00634168 0.000667882 -0.000223961 -4.54267e-11 -1.93287e-10 8.72292e-11 5e-05 1.46608e-10 
237 1 0.0377539 0.0181966 0.00693448 0.0056886 0.000636352 -0.000190768 -2.87648e-10 2.7939e-10 1.10212e-10 5e-05 1.46608e-10 
239 1 0.0310905 0.0164309 0.00774097 0.00585391 4.17772e-05 -0.000348209 2.89767e-10 3.48e-11 7.02271e-13 5e-05 1.46608e-10 
240 1 0.0311453 0.0166317 0.00752508 0.00569282 0.000401918 -9.08085e-05 1.19019e-10 4.5767e-11 2.75237e-10 5e-05 1.46608e-10 
241 1 0.0310714 0.0163657 0.00781433 0.00578357 5.72525e-05 -0.000362317 -8.8078e-11 -2.39038e-10 2.45924e-10 5e-05 1.46608e-10 
242 1 0.0374557 0.0168447 0.007484 0.00567215 0.000758116 -0.000534563 2.48509e-10 -1.81643e-10 9.23386e-11 5e-05 1.46608e-10 
243 1 0.0372455 0.0167006 0.0075619 0.00551439 0.000798199 -0.000550242 -2.58826e-10 -1.04663e-10 6.63884e-11 5e-05 1.46608e-10 
244 1 0.0311089 0.0164962 0.00766752 0.005608 8.98086e-05 -0.000384914 -1.2867e-10 -4.03191e-11 -1.04511e-10 5e-05 1.46608e-10 
246 1 0.0312223 0.0169735 0.007344 0.00568413 0.000517197 -1.45329e-06 -8.09054e-11 1.60706e-10 1.77813e-10 5e-05 1.46608e-10 