ITEM: TIMESTEP
11600000
ITEM: NUMBER OF ATOMS
287
ITEM: BOX BOUNDS ff ff ff
-0.02 0.43
-0.02 0.06
-0.02 0.07
ITEM: ATOMS id type x y z vx vy vz fx fy fz radius mass 
1 1 0.0804561 0.0163081 0.0078166 0.0061824 8.84214e-05 -3.28493e-05 -2.33549e-11 1.91474e-11 -8.81132e-12 5e-05 1.46608e-10 
2 1 0.0808897 0.0173334 0.00731238 0.00578474 0.000265486 0.000245387 -2.56387e-11 -1.83846e-10 8.82229e-11 5e-05 1.46608e-10 
3 1 0.0741843 0.0156512 0.00840616 0.00563032 -0.000126486 -0.000200797 -2.24991e-10 -5.08887e-12 5.04705e-11 5e-05 1.46608e-10 
4 1 0.0807824 0.0177127 0.00712312 0.00579699 0.000265753 0.000244941 4.7291e-11 -8.39512e-12 1.07666e-11 5e-05 1.46608e-10 
5 1 0.0803381 0.0161964 0.00788058 0.00618015 8.26e-05 -3.00166e-05 -2.41729e-11 -1.1772e-10 7.3379e-11 5e-05 1.46608e-10 
6 1 0.0864906 0.0167895 0.00752684 0.00608561 -0.000381657 0.000424936 2.82154e-12 3.11728e-12 -1.05991e-12 5e-05 1.46608e-10 
7 1 0.0805335 0.0169694 0.00746442 0.00618469 0.000234158 0.000286224 -1.66857e-11 -6.19895e-11 2.77683e-11 5e-05 1.46608e-10 
8 1 0.0802405 0.0158129 0.00817629 0.00571738 9.64254e-05 -0.000206968 4.8374e-11 -9.10187e-11 6.80487e-11 5e-05 1.46608e-10 
9 1 0.086762 0.0179713 0.00705832 0.00549994 -0.000266916 0.000352277 3.94923e-12 1.93329e-12 -4.50879e-12 5e-05 1.46608e-10 
10 1 0.0804684 0.0167041 0.00758842 0.00621205 9.86934e-05 -3.67958e-05 1.78614e-11 2.63173e-11 -5.06052e-12 5e-05 1.46608e-10 
11 1 0.0809291 0.0175161 0.00722708 0.00575884 0.000229184 0.000259783 -1.25668e-11 -1.26942e-10 9.38432e-11 5e-05 1.46608e-10 
12 1 0.074392 0.01643 0.00781451 0.00604665 -0.000263253 -0.000215424 4.7656e-11 -3.24975e-10 1.51335e-10 5e-05 1.46608e-10 
13 1 0.0803177 0.0161116 0.00792942 0.00571543 0.000162719 -7.61215e-05 -8.16966e-12 -1.37981e-10 9.93565e-11 5e-05 1.46608e-10 
14 1 0.0741068 0.0153968 0.00870056 0.00546585 0.000164752 6.71127e-05 -2.42799e-10 7.72523e-11 -1.89855e-10 5e-05 1.46608e-10 
15 1 0.0806733 0.0171771 0.0073736 0.00616633 0.000226056 0.000288805 -7.62005e-12 -3.58729e-11 1.37497e-11 5e-05 1.46608e-10 
16 1 0.0740875 0.0153429 0.00878251 0.00555582 0.000160173 8.15467e-05 2.63637e-11 1.53353e-10 -2.27462e-10 5e-05 1.46608e-10 
17 1 0.0804467 0.0166195 0.00763711 0.00620972 0.000106652 -4.3484e-05 1.52743e-11 8.03153e-11 -4.6444e-11 5e-05 1.46608e-10 
18 1 0.0866421 0.0174249 0.00727519 0.00600398 -0.000363166 0.000413785 -1.78896e-13 -2.61858e-12 1.99578e-12 5e-05 1.46608e-10 
19 1 0.0802988 0.0160265 0.00797841 0.00569776 0.000157401 -7.20205e-05 1.31841e-10 -1.72504e-10 2.55827e-11 5e-05 1.46608e-10 
21 1 0.0804344 0.0162235 0.00786529 0.00618114 8.76793e-05 -3.23942e-05 6.78013e-11 -7.96092e-12 3.24465e-12 5e-05 1.46608e-10 
22 1 0.0805769 0.0171464 0.00738211 0.0061688 0.000223575 0.000290338 -6.48644e-12 -3.25635e-11 1.81451e-11 5e-05 1.46608e-10 
23 1 0.0745742 0.0167659 0.00755894 0.00614885 -0.000325569 -0.000248081 6.48868e-11 4.07075e-11 5.04103e-11 5e-05 1.46608e-10 
24 1 0.0867027 0.0176979 0.00716683 0.00564813 -0.000295436 0.000370467 2.76138e-12 2.59855e-12 -4.96879e-12 5e-05 1.46608e-10 
25 1 0.0805118 0.0168809 0.00750557 0.00619197 0.000238147 0.000284948 -9.5849e-12 -4.20781e-11 2.04226e-11 5e-05 1.46608e-10 
26 1 0.0865771 0.0171525 0.00738304 0.00603906 -0.000370494 0.000418329 5.92102e-13 -6.0586e-12 2.17944e-12 5e-05 1.46608e-10 
27 1 0.0744781 0.0167455 0.00758433 0.00613645 -0.000228968 -0.000139684 1.02759e-10 5.06912e-11 -1.283e-10 5e-05 1.46608e-10 
28 1 0.080771 0.0176222 0.00716591 0.00577167 0.000244681 0.0002543 5.92849e-11 2.53378e-12 4.64867e-11 5e-05 1.46608e-10 
29 1 0.0802796 0.0159406 0.00802783 0.00573379 0.000204566 -0.000103053 3.60976e-11 4.51123e-11 -7.75976e-12 5e-05 1.46608e-10 
30 1 0.0808112 0.0173871 0.00728152 0.00578386 0.000272327 0.000242253 2.39685e-10 1.55978e-10 -6.1871e-11 5e-05 1.46608e-10 
31 1 0.0805552 0.0170579 0.00742326 0.00617704 0.000229155 0.00028825 -1.50075e-11 -5.76362e-11 2.49655e-11 5e-05 1.46608e-10 
32 1 0.0806516 0.0170885 0.00741475 0.0061738 0.000231409 0.000286777 -9.55839e-12 -5.4657e-11 2.67354e-11 5e-05 1.46608e-10 
33 1 0.0865122 0.0168802 0.00749089 0.00607409 -0.000378615 0.000423168 -3.3951e-12 5.80293e-12 -2.6838e-12 5e-05 1.46608e-10 
34 1 0.0804249 0.0165348 0.00768582 0.00619251 7.12496e-05 -2.31884e-05 -2.07751e-11 -6.57739e-11 4.38089e-11 5e-05 1.46608e-10 
35 1 0.0806299 0.017 0.0074559 0.00618139 0.000235502 0.000285513 -1.18507e-11 -6.47162e-11 3.13482e-11 5e-05 1.46608e-10 
36 1 0.0867996 0.0181546 0.00698769 0.00556445 -0.000381851 0.000109124 1.26612e-13 -2.96963e-12 1.16805e-12 5e-05 1.46608e-10 
37 1 0.0805865 0.016823 0.0075382 0.00619458 0.000243526 0.000282117 -6.37624e-12 -3.97728e-11 1.6039e-11 5e-05 1.46608e-10 
38 1 0.080748 0.0171191 0.00740625 0.0061724 0.000234633 0.000285197 -6.25479e-12 -5.84785e-11 2.61387e-11 5e-05 1.46608e-10 
39 1 0.0867226 0.017789 0.00713067 0.00568023 -0.00029964 0.000373577 -1.17083e-13 4.72268e-12 -5.13977e-14 5e-05 1.46608e-10 
41 1 0.0803815 0.0163656 0.0077832 0.00618961 8.40031e-05 -3.04702e-05 -2.19885e-11 -8.12497e-11 4.65111e-11 5e-05 1.46608e-10 
42 1 0.0805986 0.0172349 0.00734096 0.00616098 0.000218653 0.000292047 1.18768e-11 -1.5886e-11 9.33124e-12 5e-05 1.46608e-10 
44 1 0.0807696 0.0172077 0.00736508 0.00616471 0.000231529 0.000286364 -8.11532e-12 -5.93669e-11 2.98695e-11 5e-05 1.46608e-10 
45 1 0.0865339 0.016971 0.00745494 0.00606236 -0.000375712 0.000421486 5.22027e-13 -2.09695e-12 1.08962e-12 5e-05 1.46608e-10 
46 1 0.0866204 0.0173341 0.00731114 0.00601578 -0.000365401 0.000415225 -8.42233e-13 -6.1865e-12 1.14069e-12 5e-05 1.46608e-10 
47 1 0.0804032 0.0164502 0.00773451 0.00619287 8.42405e-05 -3.04816e-05 -1.16867e-11 -2.79987e-11 1.43981e-11 5e-05 1.46608e-10 
48 1 0.0806404 0.0174122 0.00725843 0.00577815 0.000266683 0.000244602 2.90548e-10 -8.76575e-11 6.20465e-11 5e-05 1.46608e-10 
49 1 0.0865988 0.0172433 0.00734709 0.00602759 -0.000367675 0.000416679 -5.20349e-12 -8.88188e-12 4.19271e-12 5e-05 1.46608e-10 
50 1 0.0807013 0.0176928 0.00717834 0.00578607 0.000264026 0.00024591 2.20753e-11 9.5256e-11 -3.74957e-11 5e-05 1.46608e-10 
51 1 0.0806806 0.0175976 0.00720094 0.00576235 0.000268379 0.000243486 -1.10216e-11 3.66184e-12 -1.72139e-11 5e-05 1.46608e-10 
52 1 0.0743701 0.0163519 0.00787304 0.00604357 -0.000269141 -0.000214731 -9.21314e-11 -2.66221e-10 2.5144e-10 5e-05 1.46608e-10 
53 1 0.086663 0.0175158 0.00723915 0.0055838 -0.000285992 0.000363772 -2.23634e-12 -1.33709e-12 3.70311e-13 5e-05 1.46608e-10 
54 1 0.0804139 0.0161386 0.00791411 0.00608448 0.000104398 -4.26206e-05 6.96466e-11 5.75959e-11 -2.96884e-11 5e-05 1.46608e-10 
55 1 0.0741452 0.0155047 0.00853661 0.00560693 0.000151995 0.000101265 1.14445e-10 1.06446e-10 -1.04464e-10 5e-05 1.46608e-10 
56 1 0.0806082 0.0169115 0.00749705 0.00618788 0.000239872 0.000283801 -8.01984e-12 -6.10164e-11 2.61232e-11 5e-05 1.46608e-10 
57 1 0.0865555 0.0170618 0.00741899 0.00605052 -0.000372932 0.000419827 -8.4262e-13 -9.73833e-12 3.91605e-12 5e-05 1.46608e-10 
59 1 0.0806612 0.0167651 0.00757086 0.00621128 0.000263478 0.000273742 5.33414e-11 2.69703e-11 -9.94142e-12 5e-05 1.46608e-10 
60 1 0.0806829 0.0168536 0.00752971 0.00619102 0.000245194 0.000281422 3.34125e-12 -6.35392e-11 3.30373e-11 5e-05 1.46608e-10 
61 1 0.0803598 0.016281 0.00783189 0.0061827 8.24688e-05 -2.89928e-05 6.19202e-12 -4.82238e-11 2.61635e-11 5e-05 1.46608e-10 
62 1 0.0807905 0.0172971 0.00732343 0.00575454 0.000225642 0.000262252 3.73584e-10 -2.58379e-10 1.36866e-10 5e-05 1.46608e-10 
63 1 0.080735 0.0174434 0.00724952 0.00577539 0.000274843 0.000240955 1.89642e-10 1.25372e-10 -5.04111e-11 5e-05 1.46608e-10 
64 1 0.0866828 0.0176069 0.00720299 0.005616 -0.000290844 0.000367182 2.04834e-12 1.88163e-12 -3.258e-13 5e-05 1.46608e-10 
65 1 0.0744881 0.0164519 0.00779137 0.00608869 -0.000318445 -0.000183404 -1.75672e-11 1.88763e-10 -2.00371e-10 5e-05 1.46608e-10 
66 1 0.0744234 0.0162181 0.00796781 0.00600341 -0.000274176 -0.000210298 -4.30233e-10 -1.69686e-10 1.3577e-10 5e-05 1.46608e-10 
67 1 0.0809131 0.0174251 0.00726984 0.00580564 0.000307086 0.000226943 -8.76636e-12 1.19996e-10 -5.526e-11 5e-05 1.46608e-10 
68 1 0.080849 0.017568 0.007197 0.00576245 0.000232389 0.000259534 2.49339e-11 -1.13184e-10 4.63013e-11 5e-05 1.46608e-10 
69 1 0.0805213 0.0165624 0.00767152 0.00619012 0.000118507 4.34283e-05 -3.84709e-11 5.87802e-11 1.1466e-10 5e-05 1.46608e-10 
70 1 0.0867425 0.0178801 0.00709451 0.00571283 -0.000303717 0.000376844 1.11365e-12 5.21628e-12 -8.21978e-13 5e-05 1.46608e-10 
71 1 0.0741262 0.0154508 0.00861863 0.00549649 0.000158487 7.6253e-05 3.11131e-11 9.92119e-11 -9.51878e-11 5e-05 1.46608e-10 
72 1 0.0808336 0.0174776 0.00723944 0.00575877 0.000252918 0.000250999 -1.1364e-10 -7.14801e-11 1.75798e-11 5e-05 1.46608e-10 
73 1 0.0804901 0.0167925 0.00754711 0.00619855 0.000239592 0.000280332 -4.48877e-12 -2.55254e-11 -1.8648e-11 5e-05 1.46608e-10 
74 1 0.0806947 0.017267 0.00733558 0.00615849 0.000224647 0.000289597 1.42851e-11 -1.60296e-11 1.33559e-11 5e-05 1.46608e-10 
76 1 0.0746961 0.0172432 0.00722584 0.00575204 -4.6633e-05 7.14287e-06 1.02059e-10 2.34116e-11 8.40488e-12 5e-05 1.46608e-10 
77 1 0.0809336 0.0183393 0.00697827 0.00554935 0.000235378 -0.000453323 1.53765e-10 -4.81039e-11 -7.19962e-11 5e-05 1.46608e-10 
78 1 0.0742038 0.0157273 0.0083443 0.00560356 -0.000185807 -0.000276054 -2.24487e-10 -1.37254e-10 1.73142e-10 5e-05 1.46608e-10 
79 1 0.0744136 0.0165098 0.00775824 0.00609716 -0.000273872 -0.000216449 1.1964e-10 -2.57053e-10 -1.50822e-10 5e-05 1.46608e-10 
80 1 0.0807478 0.0179046 0.00702863 0.00569211 0.000247711 0.000243105 -1.57523e-10 1.00537e-10 -2.71353e-10 5e-05 1.46608e-10 
81 1 0.0743487 0.016274 0.00793187 0.0060383 -0.000261622 -0.000221653 -1.61474e-10 -2.46632e-10 1.78463e-10 5e-05 1.46608e-10 
82 1 0.0744994 0.016822 0.00752358 0.00616411 -0.000204942 -8.42161e-05 1.60348e-10 1.27597e-10 2.76078e-11 5e-05 1.46608e-10 
83 1 0.0744876 0.016096 0.00805319 0.00601957 -0.000220732 -0.00025082 7.0454e-10 -3.79747e-10 2.23266e-10 5e-05 1.46608e-10 
84 1 0.0867808 0.0180626 0.00702203 0.00554414 -0.00027288 0.000356688 6.09156e-13 5.78388e-12 1.43861e-12 5e-05 1.46608e-10 
85 1 0.0742985 0.0157495 0.00832107 0.00554921 -0.000143781 -0.000278157 2.22814e-10 -1.18981e-10 3.66637e-11 5e-05 1.46608e-10 
86 1 0.080756 0.0175323 0.00720814 0.00574943 0.000248008 0.000253893 -9.07381e-11 -8.34641e-11 2.8291e-11 5e-05 1.46608e-10 
87 1 0.0806395 0.0166765 0.00761202 0.00621805 0.000267029 0.000272279 6.14161e-11 5.24636e-11 -1.68261e-11 5e-05 1.46608e-10 
88 1 0.0808065 0.0181901 0.00695348 0.00571423 -1.77285e-06 -0.00042796 -4.76034e-11 1.60024e-10 -7.90091e-10 5e-05 1.46608e-10 
89 1 0.0807662 0.0179937 0.00698701 0.0057002 0.000178338 0.000281835 -2.65417e-12 -1.6654e-11 7.82913e-12 5e-05 1.46608e-10 
90 1 0.0808691 0.0172435 0.00735427 0.00576785 0.000236124 0.000258559 3.87934e-10 -3.71286e-10 2.09507e-10 5e-05 1.46608e-10 
91 1 0.0744348 0.0165896 0.00770189 0.00611615 -0.000265419 -0.000210037 4.12154e-12 -8.53474e-11 -7.22205e-12 5e-05 1.46608e-10 
92 1 0.0808722 0.0177544 0.00710889 0.00578952 0.000291017 0.00023216 -7.82167e-11 1.88064e-10 -5.96056e-11 5e-05 1.46608e-10 
93 1 0.0808715 0.0180495 0.00696698 0.00574282 0.000291281 0.00022627 -2.40996e-10 -1.36598e-10 1.29528e-11 5e-05 1.46608e-10 
94 1 0.080952 0.0179982 0.00699683 0.00576179 0.000301067 0.000234204 -2.42761e-10 2.06034e-11 -2.38275e-11 5e-05 1.46608e-10 
95 1 0.0807419 0.0178817 0.00712578 0.00579475 0.000251937 0.000292595 7.43264e-11 -3.46826e-10 -1.17265e-10 5e-05 1.46608e-10 
96 1 0.0809278 0.0178374 0.00710425 0.00579223 0.00029551 0.000223363 -1.15097e-10 1.2656e-10 -7.40147e-12 5e-05 1.46608e-10 
97 1 0.0743056 0.0161181 0.00804949 0.00600626 -0.000271556 -0.000212177 3.92624e-10 1.74328e-10 -1.86276e-10 5e-05 1.46608e-10 
98 1 0.0808258 0.0182858 0.00697496 0.00551582 3.69192e-05 -0.000486869 1.03373e-10 2.41697e-11 -5.78009e-11 5e-05 1.46608e-10 
99 1 0.0744672 0.0163739 0.00785024 0.00603608 -0.000293536 -0.000198393 -5.32661e-11 2.91474e-10 -2.02892e-10 5e-05 1.46608e-10 
100 1 0.0808259 0.0170647 0.00743745 0.00618775 0.000252431 0.000277675 4.69617e-11 -1.90081e-11 1.27932e-11 5e-05 1.46608e-10 
101 1 0.0744019 0.0161402 0.00802663 0.00598769 -0.000253895 -0.000224452 1.83346e-10 -5.40793e-10 3.71254e-10 5e-05 1.46608e-10 
102 1 0.0643568 0.0187248 0.00531097 4.09142e-15 1.05352e-14 8.29643e-14 -4.58116e-22 3.21722e-22 -1.59232e-23 5e-05 1.46608e-10 
103 1 0.24257 0.0191927 0.00520306 3.06537e-22 -3.03968e-22 8.29106e-22 -3.23117e-27 0 0 5e-05 1.46608e-10 
104 1 0.0747441 0.0170496 0.00738165 0.005865 -9.62839e-05 -0.000129932 -1.11421e-10 8.7634e-12 1.01186e-10 5e-05 1.46608e-10 
105 1 0.0742637 0.0159619 0.00816723 0.00569914 -0.000194261 -0.000247523 -9.33583e-11 -2.11727e-10 1.49683e-10 5e-05 1.46608e-10 
106 1 0.0748256 0.0169922 0.00737379 0.00579433 -0.000130762 -0.000424123 -1.32403e-10 -2.80872e-11 1.97567e-10 5e-05 1.46608e-10 
107 1 0.0742233 0.0158055 0.00828508 0.00554183 -0.0001486 -0.000271832 -3.12987e-10 -2.624e-10 1.41679e-10 5e-05 1.46608e-10 
108 1 0.0805648 0.0167345 0.00757936 0.00619968 0.000244377 0.000280713 -1.82466e-11 -1.7282e-11 1.21503e-11 5e-05 1.46608e-10 
109 1 0.08066 0.0175011 0.00721698 0.00576037 0.000270821 0.000242428 4.42591e-11 -1.20946e-11 5.9155e-12 5e-05 1.46608e-10 
110 1 0.0810115 0.0178717 0.00706149 0.00581052 0.000301876 0.000226162 -2.21159e-10 2.41801e-10 -1.14172e-10 5e-05 1.46608e-10 
111 1 0.0808638 0.0184773 0.00701828 0.00544945 -3.84373e-06 -0.000490812 7.22331e-11 7.17604e-11 -3.54429e-12 5e-05 1.46608e-10 
112 1 0.0743271 0.016196 0.00799068 0.00601391 -0.000267196 -0.000215941 4.66438e-10 -1.11693e-10 -2.24492e-11 5e-05 1.46608e-10 
113 1 0.075131 0.0174877 0.00720721 0.00562521 8.49857e-05 -0.000299171 -3.79214e-10 -8.65038e-11 2.46035e-11 5e-05 1.46608e-10 
114 1 0.0746821 0.0167985 0.00752315 0.00628097 -0.000224859 -0.000269458 3.19738e-12 1.34241e-11 -3.93324e-11 5e-05 1.46608e-10 
115 1 0.0807151 0.0173543 0.00729109 0.00576715 0.000247186 0.000253435 4.17573e-10 -7.82416e-11 7.24152e-11 5e-05 1.46608e-10 
116 1 0.0805431 0.0166483 0.00762528 0.00619663 0.00020151 0.000198543 -6.03284e-11 5.75952e-11 9.77811e-11 5e-05 1.46608e-10 
117 1 0.0803939 0.0160537 0.00796299 0.00590623 0.000132231 -5.91215e-05 -8.22527e-11 1.24905e-10 -6.42143e-11 5e-05 1.46608e-10 
118 1 0.0741648 0.0155775 0.00847084 0.00564201 5.03582e-05 -6.76259e-07 3.90573e-12 8.04201e-12 -6.64049e-11 5e-05 1.46608e-10 
119 1 0.0807046 0.0169421 0.00748856 0.00618612 0.000243165 0.000282103 5.2189e-12 -7.11035e-11 3.37655e-11 5e-05 1.46608e-10 
120 1 0.0802605 0.0158727 0.00809868 0.00572828 0.000148747 -0.00016128 -4.20809e-11 -3.39777e-11 2.97152e-11 5e-05 1.46608e-10 
121 1 0.0802212 0.0157603 0.00825911 0.00569698 9.45108e-05 -0.000215769 8.14e-11 -1.90513e-11 5.24216e-11 5e-05 1.46608e-10 
122 1 0.0810404 0.0179586 0.00702155 0.00577745 0.00031518 0.000219985 -2.47602e-10 2.19363e-10 -9.33782e-11 5e-05 1.46608e-10 
123 1 0.0743388 0.015906 0.00820321 0.00569215 -0.000198271 -0.000245114 -1.65684e-10 3.07173e-10 -2.07553e-10 5e-05 1.46608e-10 
124 1 0.0808343 0.0178945 0.00708017 0.00580726 0.000286855 0.000245507 -4.64986e-11 2.55717e-10 9.86418e-11 5e-05 1.46608e-10 
125 1 0.0803743 0.0159687 0.00801191 0.00575102 0.000155207 -6.99064e-05 2.07344e-11 1.13511e-10 -8.63787e-11 5e-05 1.46608e-10 
126 1 0.0806203 0.0173234 0.00729981 0.00614992 0.000213402 0.000293808 -2.0011e-11 -2.60932e-11 1.16779e-11 5e-05 1.46608e-10 
127 1 0.0742847 0.01604 0.00810836 0.00586784 -0.000242895 -0.000224376 4.39553e-12 1.1608e-11 -1.2041e-11 5e-05 1.46608e-10 
128 1 0.0807214 0.0177869 0.0071511 0.00579656 0.000270065 0.000247977 1.86428e-10 1.4468e-10 -9.77403e-11 5e-05 1.46608e-10 
129 1 0.0807876 0.0180984 0.00699084 0.00572847 0.000302007 0.000236599 -7.83938e-11 1.29523e-11 -2.80334e-10 5e-05 1.46608e-10 
130 1 0.074596 0.0168433 0.00749882 0.00611881 -0.000781985 -0.000729022 6.48659e-11 -1.33677e-11 -9.81057e-11 5e-05 1.46608e-10 
131 1 0.0744449 0.0162961 0.00790899 0.00604309 -0.000280245 -0.000208115 -2.23731e-11 -4.2013e-11 3.98346e-11 5e-05 1.46608e-10 
132 1 0.0807874 0.0178063 0.00707848 0.0058141 0.000284417 0.000247332 3.52895e-10 3.89195e-11 -1.62313e-11 5e-05 1.46608e-10 
133 1 0.0805524 0.0163351 0.00780132 0.00617076 7.46627e-05 -2.50468e-05 1.51927e-11 8.64276e-12 -5.94332e-12 5e-05 1.46608e-10 
134 1 0.0807263 0.0170306 0.00744741 0.00618005 0.000238809 0.000283708 -5.18561e-12 -7.02121e-11 3.52536e-11 5e-05 1.46608e-10 
135 1 0.0803549 0.0158846 0.00806242 0.0056871 8.64594e-05 -0.000199691 1.72901e-10 8.99992e-11 -1.45859e-10 5e-05 1.46608e-10 
136 1 0.0742788 0.0156712 0.00838003 0.00560038 -0.000140963 -0.000283828 -3.13342e-10 7.19118e-13 8.13032e-12 5e-05 1.46608e-10 
137 1 0.0808829 0.0185731 0.00703992 0.00544208 -3.38799e-05 -0.000497794 2.95096e-11 1.94453e-11 4.23029e-11 5e-05 1.46608e-10 
138 1 0.0804995 0.0164773 0.00771922 0.00619063 7.84499e-05 -2.82011e-05 5.55802e-12 -2.50341e-12 2.2585e-11 5e-05 1.46608e-10 
140 1 0.0810609 0.0180474 0.0069802 0.00585847 0.000295817 0.000234204 -3.04362e-10 2.89513e-10 -1.57752e-10 5e-05 1.46608e-10 
141 1 0.0743184 0.0158278 0.00826212 0.00557835 -0.000168463 -0.000259391 3.15315e-10 1.24755e-10 -1.03331e-10 5e-05 1.46608e-10 
142 1 0.0747037 0.0168771 0.00746531 0.00631994 -0.000206032 -0.000233118 1.22483e-10 -7.71069e-11 -1.45835e-10 5e-05 1.46608e-10 
143 1 0.0742431 0.0158838 0.00822613 0.00558014 -0.000156332 -0.000265982 1.15165e-10 -3.28423e-10 2.15384e-10 5e-05 1.46608e-10 
144 1 0.0746604 0.0167206 0.00758195 0.00620696 -0.000211775 -0.000271131 -3.84448e-12 5.87196e-12 8.3651e-11 5e-05 1.46608e-10 
146 1 0.0745091 0.016174 0.00799437 0.00606783 -0.000211575 -0.000260644 -7.63601e-10 4.89545e-11 2.70403e-11 5e-05 1.46608e-10 
147 1 0.0742587 0.0155929 0.00843897 0.00566221 -0.000144581 -0.000281095 1.35443e-10 8.46347e-11 -2.1081e-10 5e-05 1.46608e-10 
148 1 0.0745623 0.0170486 0.0073374 0.00580954 -5.09896e-05 2.8528e-05 2.11265e-10 -2.66642e-11 -1.8896e-11 5e-05 1.46608e-10 
149 1 0.0809792 0.0180972 0.00695101 0.00586817 0.000324097 0.000216272 -5.19255e-10 -1.6375e-10 1.95082e-11 5e-05 1.46608e-10 
150 1 0.0745529 0.0163298 0.0078768 0.00607515 -0.00023602 -0.000243708 -2.87732e-10 2.54046e-10 -1.83507e-10 5e-05 1.46608e-10 
151 1 0.0749073 0.0170345 0.00733409 0.00577404 -0.000142713 -0.000292518 -6.79598e-11 9.12361e-11 -2.0367e-11 5e-05 1.46608e-10 
153 1 0.0743803 0.0160622 0.00808544 0.00604806 -0.000261372 -0.000223476 3.18196e-10 3.15668e-11 -5.64857e-11 5e-05 1.46608e-10 
154 1 0.0746567 0.0170738 0.00731628 0.00580102 -4.16681e-05 2.07089e-05 2.08729e-10 1.96959e-11 -3.82148e-11 5e-05 1.46608e-10 
155 1 0.0747164 0.0173411 0.0072285 0.00572798 -4.51295e-05 1.06283e-05 8.2012e-11 1.12795e-10 -2.15854e-12 5e-05 1.46608e-10 
156 1 0.0746378 0.0169981 0.00737915 0.00581647 -3.9298e-05 1.99938e-05 1.17027e-10 -1.11036e-10 8.34046e-11 5e-05 1.46608e-10 
157 1 0.0219312 0.0187687 0.00551176 -3.83698e-14 8.16684e-14 2.95883e-13 -5.32498e-24 -1.05983e-23 -2.89513e-24 5e-05 1.46608e-10 
158 1 0.0747387 0.0171342 0.00732856 0.00580706 -3.50435e-05 -1.1314e-05 2.10606e-11 -5.87785e-11 7.58086e-11 5e-05 1.46608e-10 
159 1 0.0808625 0.017661 0.00715317 0.00579182 0.000258033 0.000249296 1.27507e-11 -1.61604e-11 6.64964e-12 5e-05 1.46608e-10 
160 1 0.074619 0.0173069 0.00722742 0.00573159 -7.08946e-05 3.33616e-06 2.04466e-11 -7.01247e-11 3.61901e-12 5e-05 1.46608e-10 
162 1 0.0745801 0.0171243 0.00727455 0.00577716 -5.79443e-05 2.70731e-05 8.4977e-11 -1.44195e-12 -1.72917e-11 5e-05 1.46608e-10 
164 1 0.0748971 0.0177393 0.00721508 0.0057131 2.75023e-05 -0.000311463 -6.60828e-11 1.37533e-10 -1.56349e-10 5e-05 1.46608e-10 
165 1 0.0749954 0.0172602 0.00721853 0.00575974 4.28879e-05 -0.000302316 1.71617e-10 -1.08092e-11 4.21482e-11 5e-05 1.46608e-10 
166 1 0.080509 0.0161659 0.0078987 0.0061673 7.79155e-05 -2.71645e-05 1.758e-10 9.06545e-11 -5.17265e-11 5e-05 1.46608e-10 
167 1 0.0745306 0.016252 0.00793555 0.00609799 -0.000230084 -0.000249797 6.04697e-10 1.7219e-10 -1.53468e-10 5e-05 1.46608e-10 
168 1 0.0748149 0.0170712 0.00731341 0.00573341 -6.91373e-05 -0.000338723 -5.5983e-11 -1.2735e-10 4.2875e-11 5e-05 1.46608e-10 
169 1 0.0750563 0.0175541 0.00720996 0.00566888 2.30469e-05 -0.00030039 1.44437e-10 -2.73753e-10 3.55986e-13 5e-05 1.46608e-10 
170 1 0.0748828 0.0172003 0.00722503 0.00578096 3.62008e-05 6.31546e-06 -3.06439e-11 -1.01692e-10 -9.36928e-13 5e-05 1.46608e-10 
171 1 0.0805307 0.0162505 0.00785001 0.00617506 8.19168e-05 -2.91388e-05 -7.61251e-12 9.10977e-11 -5.19412e-11 5e-05 1.46608e-10 
172 1 0.0749753 0.0171637 0.00723549 0.00581991 0.000110798 8.44047e-05 -2.18662e-11 1.64933e-10 -1.70104e-10 5e-05 1.46608e-10 
173 1 0.0810168 0.0174752 0.0072524 0.00577831 0.000262649 0.000246878 7.03427e-11 2.0219e-12 -1.55926e-11 5e-05 1.46608e-10 
174 1 0.0747959 0.0172497 0.00722619 0.00575402 -4.38229e-06 1.07845e-05 6.26088e-11 -6.7024e-11 1.95928e-11 5e-05 1.46608e-10 
175 1 0.0686125 0.0172785 0.00723988 0.00564132 -0.000568461 0.00019438 1.64331e-10 -7.04341e-11 -3.43008e-11 5e-05 1.46608e-10 
176 1 0.0746175 0.0169201 0.00743844 0.00625342 -0.000248296 -0.000147059 2.85234e-11 -1.00036e-11 2.33853e-11 5e-05 1.46608e-10 
177 1 0.0746596 0.0175027 0.00723203 0.00569911 -6.16344e-05 -0.000302935 6.98958e-12 -9.85132e-11 7.82883e-11 5e-05 1.46608e-10 
178 1 0.0751106 0.0173894 0.00721008 0.00573547 0.000111175 -0.000305591 -4.02496e-11 1.10093e-10 -1.38862e-11 5e-05 1.46608e-10 
179 1 0.0750363 0.0174562 0.0072128 0.0056403 4.19053e-05 -0.000297959 -8.58302e-11 -1.46963e-10 -1.22737e-11 5e-05 1.46608e-10 
181 1 0.0745908 0.017231 0.00741406 0.00593424 -0.000319049 0.000571091 -5.05043e-11 -6.97977e-11 4.68774e-11 5e-05 1.46608e-10 
182 1 0.0804778 0.0163927 0.00776791 0.00618681 8.33283e-05 -3.01552e-05 5.57977e-12 -7.27499e-12 1.58336e-12 5e-05 1.46608e-10 
183 1 0.0747987 0.0171526 0.00725069 0.00577628 1.26659e-05 -2.74036e-05 1.12746e-10 -1.57693e-10 2.07562e-10 5e-05 1.46608e-10 
184 1 0.0808072 0.0177107 0.00721998 0.00577454 0.000243169 0.000247884 -7.84383e-11 -1.1447e-10 2.4669e-11 5e-05 1.46608e-10 
185 1 0.0745421 0.0169733 0.00739995 0.0062157 -0.000107284 7.49524e-05 2.42264e-11 4.77982e-11 2.56682e-12 5e-05 1.46608e-10 
186 1 0.074578 0.0171405 0.0073736 0.00578094 -4.056e-05 3.26282e-06 3.96698e-11 -2.04878e-11 1.10617e-11 5e-05 1.46608e-10 
187 1 0.0808037 0.0169756 0.00747886 0.00619473 0.000257383 0.000275702 2.65325e-11 -5.76919e-11 2.90747e-11 5e-05 1.46608e-10 
188 1 0.0808948 0.0181466 0.00697163 0.00578587 0.000285313 -3.08098e-05 -4.40167e-10 -1.17067e-10 -4.39386e-10 5e-05 1.46608e-10 
189 1 0.0808476 0.0171534 0.00739622 0.00616397 0.000229882 0.00028697 9.27521e-11 4.60443e-11 -1.6024e-11 5e-05 1.46608e-10 
190 1 0.0687162 0.0173799 0.00714856 0.00554502 -0.000514978 0.00022624 2.30409e-10 -3.10409e-10 -8.0899e-12 5e-05 1.46608e-10 
191 1 0.0809021 0.0186688 0.00706155 0.00542099 -5.19727e-05 -0.000502574 -4.90253e-12 3.52917e-11 5.12103e-11 5e-05 1.46608e-10 
192 1 0.0747904 0.0168337 0.00748981 0.00637152 -0.000173881 -0.000301876 1.36578e-10 -7.54914e-11 -3.02712e-11 5e-05 1.46608e-10 
193 1 0.0806177 0.0165889 0.00765525 0.00619803 8.80006e-05 -3.20081e-05 1.04689e-11 1.22107e-10 -7.78106e-11 5e-05 1.46608e-10 
194 1 0.0745948 0.0164859 0.00775907 0.00623412 -0.000236747 -0.000253338 5.04308e-10 1.86943e-11 -2.28428e-11 5e-05 1.46608e-10 
195 1 0.0750158 0.017358 0.00721567 0.0057437 7.4532e-05 -0.000312971 -1.0007e-11 7.85551e-11 -4.29458e-11 5e-05 1.46608e-10 
196 1 0.0740682 0.0152889 0.00886448 0.0055334 0.000161059 7.85065e-05 1.16427e-10 2.00205e-10 -2.88245e-10 5e-05 1.46608e-10 
197 1 0.0686727 0.0175531 0.00714454 0.00567304 -0.000629137 0.000223513 -1.34161e-10 -1.44041e-10 2.65079e-11 5e-05 1.46608e-10 
198 1 0.0744564 0.0166681 0.0076438 0.00613297 -0.000246307 -0.000177428 4.71249e-11 9.45761e-11 -4.54777e-11 5e-05 1.46608e-10 
199 1 0.0745987 0.017209 0.00722475 0.0057552 -7.12721e-05 9.2319e-06 4.68507e-12 -5.78182e-11 -4.54287e-11 5e-05 1.46608e-10 
200 1 0.0745529 0.0166891 0.0076194 0.00613986 -0.000244748 -0.000192102 1.23895e-10 2.72154e-10 -5.80009e-12 5e-05 1.46608e-10 
201 1 0.0750042 0.0177876 0.0072085 0.00573507 1.01163e-05 -0.000303639 3.49194e-10 -5.89747e-10 -5.20317e-12 5e-05 1.46608e-10 
202 1 0.0748141 0.0169112 0.00743119 0.00585045 -7.2829e-05 -0.000350429 1.2449e-10 -1.24219e-10 7.25563e-11 5e-05 1.46608e-10 
203 1 0.0810323 0.0175733 0.00720626 0.00578985 0.000251908 0.000252086 -4.71241e-12 -1.88787e-11 7.10923e-12 5e-05 1.46608e-10 
204 1 0.074531 0.0166106 0.0076773 0.00619008 -0.000271915 -0.000210898 1.60733e-10 1.98532e-10 -5.24308e-11 5e-05 1.46608e-10 
205 1 0.074857 0.0175434 0.00722076 0.00565523 -1.85164e-05 -0.000300002 3.49836e-10 -8.96805e-11 5.98694e-11 5e-05 1.46608e-10 
206 1 0.0748161 0.0173477 0.00722649 0.00570474 -1.12648e-05 -0.000299753 2.19671e-10 9.35983e-11 5.73963e-11 5e-05 1.46608e-10 
207 1 0.0743594 0.0159841 0.00814432 0.0059061 -0.000239645 -0.00022962 -2.07358e-10 2.42516e-10 -1.71107e-10 5e-05 1.46608e-10 
208 1 0.0746745 0.0171496 0.00725344 0.00577499 -4.67304e-05 1.00907e-05 1.10406e-10 1.84843e-11 -7.61697e-12 5e-05 1.46608e-10 
209 1 0.0745738 0.0164078 0.00781793 0.00618017 -0.000237942 -0.000249278 -4.39121e-10 9.94646e-11 -5.55247e-11 5e-05 1.46608e-10 
210 1 0.0807037 0.0175575 0.00728959 0.00574022 0.000268346 0.000249783 2.49538e-11 5.79309e-11 3.20184e-11 5e-05 1.46608e-10 
211 1 0.0809229 0.0179111 0.00703685 0.0057979 0.000301284 0.000224434 -1.55921e-10 9.00756e-11 3.19349e-12 5e-05 1.46608e-10 
212 1 0.0749031 0.0172982 0.00722442 0.00576202 4.69424e-05 -0.000177856 -9.72317e-11 -1.63919e-10 -1.18818e-10 5e-05 1.46608e-10 
213 1 0.0807819 0.016887 0.00752002 0.00619849 0.000260169 0.000274562 5.71004e-11 -3.24114e-11 1.83081e-11 5e-05 1.46608e-10 
214 1 0.0808548 0.0179841 0.0070408 0.00578001 0.00028971 0.000238526 -1.78308e-10 7.3976e-11 2.04535e-11 5e-05 1.46608e-10 
215 1 0.0687023 0.0172947 0.00719899 0.00564915 -0.000528692 0.000230094 6.68271e-11 -1.83153e-10 -5.85826e-11 5e-05 1.46608e-10 
216 1 0.0746393 0.0174048 0.00723012 0.00571456 -6.15874e-05 1.63596e-05 -7.29679e-12 4.00756e-11 5.56243e-11 5e-05 1.46608e-10 
217 1 0.0805742 0.0164197 0.00775263 0.0061843 7.48053e-05 -2.55389e-05 3.06878e-11 1.16987e-11 -5.14047e-12 5e-05 1.46608e-10 
218 1 0.0747574 0.0175368 0.00722674 0.00568061 -2.77722e-05 -0.000173697 1.55806e-10 5.47897e-11 -1.71371e-10 5e-05 1.46608e-10 
219 1 0.0808449 0.0183816 0.00699661 0.00546379 2.7763e-05 -0.000486339 1.25978e-10 1.14002e-11 -6.27203e-12 5e-05 1.46608e-10 
220 1 0.0746382 0.0172497 0.00730713 0.00574623 -6.13311e-05 4.22519e-06 7.73776e-12 -5.86707e-11 -1.50017e-11 5e-05 1.46608e-10 
221 1 0.0686069 0.0168918 0.00748441 0.00615289 -0.000643592 0.000279171 -2.40133e-10 4.87852e-10 -3.12513e-10 5e-05 1.46608e-10 
222 1 0.0805959 0.0165043 0.00770394 0.00618717 7.59436e-05 -2.52481e-05 -2.11524e-12 3.50634e-11 -2.33035e-11 5e-05 1.46608e-10 
223 1 0.0747241 0.0169546 0.00740544 0.00584329 -0.000135933 -0.000303469 -3.31834e-11 6.47633e-11 3.09168e-11 5e-05 1.46608e-10 
224 1 0.0745207 0.0168979 0.00746204 0.00620939 -0.000153201 6.65113e-06 9.71382e-11 1.23594e-10 6.1746e-11 5e-05 1.46608e-10 
225 1 0.0809408 0.017607 0.00718416 0.00579268 0.000257662 0.00024902 4.65588e-11 8.1809e-12 -4.93706e-13 5e-05 1.46608e-10 
226 1 0.0748967 0.0171167 0.00727809 0.00579606 -5.08718e-05 -0.000154168 -4.86898e-11 4.06055e-11 1.19237e-10 5e-05 1.46608e-10 
227 1 0.068669 0.0171337 0.00731288 0.00538206 -0.000533699 0.000221061 2.53304e-09 5.58662e-11 -2.31905e-10 5e-05 1.46608e-10 
228 1 0.0686334 0.0173694 0.00720377 0.00541956 -0.000571736 7.45832e-05 3.95366e-10 -1.60905e-10 2.17651e-10 5e-05 1.46608e-10 
229 1 0.0746773 0.0171928 0.00738135 0.00587392 2.7024e-05 -3.15748e-07 -9.37661e-11 -5.14692e-11 -5.21317e-11 5e-05 1.46608e-10 
230 1 0.0749368 0.0179352 0.00720941 0.00577599 6.86338e-06 -0.00030623 2.64247e-10 1.70338e-10 -2.80346e-12 5e-05 1.46608e-10 
231 1 0.0685929 0.0171878 0.00727709 0.00554558 -0.000529654 0.000206632 -5.27145e-10 6.85799e-11 6.0469e-11 5e-05 1.46608e-10 
232 1 0.074466 0.0160181 0.008112 0.00608058 -0.000260082 -0.000226296 5.11517e-11 -5.95836e-10 4.29376e-10 5e-05 1.46608e-10 
233 1 0.0746164 0.0165639 0.00770025 0.0062493 -0.000226006 -0.000259343 -5.65346e-12 8.16321e-11 -2.79638e-11 5e-05 1.46608e-10 
234 1 0.0809146 0.0182435 0.00695664 0.00565794 0.000229398 -0.000411985 -1.14584e-10 -9.21775e-11 5.29357e-10 5e-05 1.46608e-10 
235 1 0.0749804 0.0181303 0.00720356 0.00625424 -0.000100965 -0.00032931 -6.85792e-10 4.05535e-10 -3.62277e-11 5e-05 1.46608e-10 
236 1 0.0749564 0.0180333 0.0072066 0.00585117 7.10062e-06 -0.000313118 6.4965e-11 2.8278e-10 5.22275e-12 5e-05 1.46608e-10 
237 1 0.0750431 0.0179837 0.00720287 0.00585576 -4.30133e-05 -0.000310493 1.33016e-11 -8.01659e-11 -4.12378e-12 5e-05 1.46608e-10 
239 1 0.0684033 0.0164702 0.00778599 0.0060415 -0.000366588 8.6157e-05 -1.46434e-12 -1.93842e-10 1.35231e-10 5e-05 1.46608e-10 
240 1 0.0684682 0.0167091 0.00761651 0.00603616 -0.000526792 0.000198768 -1.36799e-13 -8.38666e-11 5.00226e-11 5e-05 1.46608e-10 
241 1 0.0683817 0.0163906 0.00784248 0.00603075 -0.000354691 7.81204e-05 7.70358e-11 2.80865e-10 -1.99292e-10 5e-05 1.46608e-10 
242 1 0.0747471 0.0166778 0.00760743 0.00624614 -0.000151734 -0.000318188 1.5662e-11 -3.51428e-11 1.66458e-12 5e-05 1.46608e-10 
243 1 0.0745091 0.0165301 0.00773246 0.00608519 -0.000287253 -0.000206858 1.72547e-10 1.27978e-10 -1.98999e-10 5e-05 1.46608e-10 
244 1 0.0684249 0.0165499 0.00772949 0.00602855 -0.000461195 0.00015292 -2.49298e-10 -8.06948e-10 5.73673e-10 5e-05 1.46608e-10 
246 1 0.0685547 0.0170276 0.00739056 0.00606673 -0.000601756 0.000253178 -2.96526e-10 -4.15702e-10 1.626e-10 5e-05 1.46608e-10 