ITEM: TIMESTEP
21200000
ITEM: NUMBER OF ATOMS
287
ITEM: BOX BOUNDS ff ff ff
-0.02 0.43
-0.02 0.06
-0.02 0.07
ITEM: ATOMS id type x y z vx vy vz fx fy fz radius mass 
1 1 0.136446 0.0164578 0.00776524 0.00576709 0.000563843 1.86362e-05 -1.29651e-10 7.82821e-11 -9.92037e-11 5e-05 1.46608e-10 
2 1 0.136939 0.0177266 0.00714819 0.00601596 0.000148932 -0.000562 -1.78002e-10 7.11714e-11 -8.37258e-12 5e-05 1.46608e-10 
3 1 0.130149 0.0156944 0.00857333 0.00610525 -0.00011041 -0.000422719 -2.82076e-11 -5.76628e-11 5.40766e-11 5e-05 1.46608e-10 
4 1 0.136789 0.0178558 0.00711792 0.00608009 0.00020202 -0.000583627 -5.08444e-11 8.40288e-11 -5.24031e-11 5e-05 1.46608e-10 
5 1 0.13636 0.0163627 0.0078674 0.00581563 0.00052036 7.20802e-05 4.45918e-11 -7.6415e-12 1.07381e-11 5e-05 1.46608e-10 
6 1 0.142359 0.0163247 0.00780699 0.00590089 0.000374401 -0.000436551 2.92881e-11 -2.42763e-11 3.41538e-11 5e-05 1.46608e-10 
7 1 0.136534 0.017088 0.0073951 0.00560303 0.000299893 -0.000576562 -7.28238e-13 -5.35928e-12 1.88257e-12 5e-05 1.46608e-10 
8 1 0.136257 0.0160073 0.00820016 0.00613493 0.000511519 0.000111032 -7.85763e-12 -1.11764e-10 1.12787e-10 5e-05 1.46608e-10 
9 1 0.142611 0.0174574 0.00729754 0.00559901 0.00042546 -0.000402188 3.45883e-11 -3.05562e-11 3.31201e-12 5e-05 1.46608e-10 
10 1 0.136475 0.0168099 0.00749261 0.00559264 0.000215058 -0.000547874 -2.67645e-11 -1.39345e-10 -5.69904e-11 5e-05 1.46608e-10 
11 1 0.136976 0.0179282 0.00707797 0.0060666 0.000176273 -0.000571235 3.91493e-11 4.22609e-11 8.01459e-12 5e-05 1.46608e-10 
12 1 0.130364 0.0163778 0.00787591 0.00570792 -2.99979e-05 -0.000473032 1.23019e-10 -7.59739e-11 8.38509e-11 5e-05 1.46608e-10 
13 1 0.13634 0.0162857 0.00792799 0.00579702 0.000520607 6.89694e-05 3.66395e-11 -6.69294e-11 8.06377e-11 5e-05 1.46608e-10 
14 1 0.130063 0.0154259 0.00884799 0.00611919 -0.000160616 -0.000374159 3.69005e-12 2.14703e-11 -2.08048e-11 5e-05 1.46608e-10 
15 1 0.136668 0.0173015 0.00731267 0.00564949 0.000309288 -0.00058388 -7.44412e-11 3.70422e-11 -2.0632e-11 5e-05 1.46608e-10 
16 1 0.130042 0.0153577 0.0089178 0.00612115 -0.00017391 -0.000360934 3.71712e-11 8.92358e-11 -9.41082e-11 5e-05 1.46608e-10 
17 1 0.136455 0.0167174 0.00752507 0.00575812 0.000210959 -0.000534815 2.52695e-10 4.90529e-10 2.94481e-10 5e-05 1.46608e-10 
18 1 0.142493 0.0168924 0.0074617 0.00566141 0.000411403 -0.000401752 3.16708e-10 -1.96636e-11 -2.19731e-11 5e-05 1.46608e-10 
19 1 0.13632 0.0162156 0.00799658 0.00577945 0.000523654 6.28945e-05 1.06029e-10 -1.01114e-10 1.31305e-10 5e-05 1.46608e-10 
21 1 0.136452 0.0163869 0.00783733 0.00582179 0.000500653 8.92758e-05 3.87693e-11 1.39095e-10 -1.30851e-10 5e-05 1.46608e-10 
22 1 0.136573 0.0172733 0.00733011 0.00563045 0.000283256 -0.000573359 -1.6249e-12 -1.07253e-11 3.71606e-12 5e-05 1.46608e-10 
23 1 0.130548 0.016747 0.00749529 0.00515775 -7.86056e-05 0.000433161 8.38838e-11 -8.14525e-11 6.97124e-11 5e-05 1.46608e-10 
24 1 0.142552 0.0171749 0.00737962 0.00561878 0.000414288 -0.000400111 -6.32545e-12 7.29441e-12 2.22151e-12 5e-05 1.46608e-10 
25 1 0.136514 0.0169955 0.00742755 0.00560615 0.00029735 -0.00057598 9.25651e-14 -3.26712e-12 1.11403e-12 5e-05 1.46608e-10 
26 1 0.142434 0.0166101 0.00754378 0.00579977 0.000398669 -0.000407358 -1.32626e-11 8.49579e-12 -4.61614e-11 5e-05 1.46608e-10 
27 1 0.130437 0.0166531 0.00759545 0.00568049 -5.28185e-05 -0.000472067 -1.61216e-10 -6.39448e-12 1.34097e-10 5e-05 1.46608e-10 
28 1 0.136769 0.0177635 0.00715038 0.00606185 0.000206149 -0.00058515 -1.02578e-10 5.93148e-11 -1.91618e-12 5e-05 1.46608e-10 
29 1 0.1363 0.0161558 0.00807401 0.00609523 0.000500802 0.000121484 2.56162e-11 -8.65259e-11 1.19134e-10 5e-05 1.46608e-10 
30 1 0.136822 0.0176067 0.00719799 0.00597087 0.000172102 -0.000565457 -2.1119e-10 1.01375e-10 -8.71494e-12 5e-05 1.46608e-10 
31 1 0.136553 0.0171806 0.00736263 0.00564167 0.000314257 -0.000585949 -4.78466e-11 2.36781e-10 -8.06829e-11 5e-05 1.46608e-10 
32 1 0.136648 0.017209 0.00734512 0.00565188 0.000301962 -0.000582027 -3.87247e-10 1.39887e-10 1.95473e-12 5e-05 1.46608e-10 
33 1 0.142378 0.0163859 0.00773016 0.00575619 0.000399685 -0.000467966 -5.24025e-10 -6.42846e-11 -4.32189e-11 5e-05 1.46608e-10 
34 1 0.136436 0.0166379 0.00758252 0.00576847 0.000621386 -8.49264e-05 -8.9076e-10 -4.16189e-10 -3.86245e-10 5e-05 1.46608e-10 
35 1 0.136628 0.0171164 0.00737757 0.00562799 0.000294763 -0.000574927 -2.08891e-10 1.1802e-10 7.78204e-12 5e-05 1.46608e-10 
36 1 0.142652 0.0176454 0.00724283 0.00592404 0.000365467 -0.000402011 2.16632e-12 -2.71954e-11 6.4587e-12 5e-05 1.46608e-10 
37 1 0.13659 0.0169314 0.00744271 0.00557658 0.000275436 -0.000591529 -6.66379e-11 -1.27367e-10 -2.68247e-10 5e-05 1.46608e-10 
38 1 0.136762 0.0173294 0.00729536 0.00575504 0.000227436 -0.000565258 5.52572e-11 -2.68093e-11 -1.93661e-12 5e-05 1.46608e-10 
39 1 0.142571 0.0172691 0.00735226 0.00561229 0.000417163 -0.000400806 8.39395e-12 1.59564e-12 -2.63294e-12 5e-05 1.46608e-10 
41 1 0.136407 0.0165488 0.00775076 0.00574583 0.000365533 0.000203584 -8.13226e-11 4.84869e-11 -1.46476e-10 5e-05 1.46608e-10 
42 1 0.136593 0.0173659 0.00729764 0.0056181 0.000233298 -0.000555688 -1.05886e-12 -8.9691e-12 3.08785e-12 5e-05 1.46608e-10 
44 1 0.136782 0.0174219 0.00726291 0.00588654 0.000195269 -0.000565759 8.24214e-11 -5.75869e-12 3.60433e-12 5e-05 1.46608e-10 
45 1 0.142395 0.0164473 0.00765314 0.00575866 0.000395623 -0.000458668 -1.62821e-10 3.46471e-11 -5.26899e-11 5e-05 1.46608e-10 
46 1 0.142474 0.0167982 0.00748906 0.00577791 0.000391101 -0.000402114 1.4353e-12 2.5169e-11 -1.22041e-11 5e-05 1.46608e-10 
47 1 0.136417 0.0165663 0.00765281 0.00565942 0.000381008 0.000196046 -9.46756e-11 5.59804e-11 -1.01126e-10 5e-05 1.46608e-10 
48 1 0.136632 0.017551 0.00723271 0.00559188 0.000124849 -0.000517554 -4.60124e-12 1.14253e-12 -1.39259e-13 5e-05 1.46608e-10 
49 1 0.142454 0.0167041 0.00751642 0.00579192 0.000393517 -0.000402113 1.12776e-10 -2.59451e-11 -7.73398e-13 5e-05 1.46608e-10 
50 1 0.136693 0.0178282 0.00713528 0.00606194 0.000238657 -0.000597567 -5.03047e-11 1.13439e-10 -5.67972e-11 5e-05 1.46608e-10 
51 1 0.136673 0.0177359 0.00716774 0.00603045 0.000247473 -0.000594882 -4.06625e-11 7.78736e-11 -3.53347e-11 5e-05 1.46608e-10 
52 1 0.130344 0.0163085 0.00794502 0.00577219 -3.02981e-05 -0.000476765 -1.61817e-10 -2.3284e-10 2.59142e-10 5e-05 1.46608e-10 
53 1 0.142513 0.0169866 0.00743434 0.00560597 0.00042135 -0.000401893 5.15508e-11 5.58792e-11 -2.38587e-11 5e-05 1.46608e-10 
54 1 0.136439 0.0163164 0.00790709 0.00581681 0.000516741 7.47402e-05 7.14441e-11 -5.12878e-12 9.80129e-12 5e-05 1.46608e-10 
55 1 0.130107 0.0155624 0.00870838 0.00611102 -0.000133986 -0.000399529 -1.47036e-11 -9.2936e-11 7.26876e-11 5e-05 1.46608e-10 
56 1 0.136609 0.0170239 0.00741002 0.00559236 0.000290668 -0.000572924 -1.12206e-10 -8.74817e-11 -1.25339e-10 5e-05 1.46608e-10 
57 1 0.142415 0.0165269 0.00759596 0.00578875 0.000397058 -0.000427266 2.91813e-11 6.86382e-11 -1.99071e-11 5e-05 1.46608e-10 
59 1 0.136684 0.0169592 0.00742516 0.00557536 0.00027411 -0.000562392 1.87491e-11 -9.57947e-11 1.82159e-11 5e-05 1.46608e-10 
60 1 0.136703 0.0170518 0.00739271 0.00560216 0.000266235 -0.000564401 -1.71454e-10 6.33652e-12 3.72694e-11 5e-05 1.46608e-10 
61 1 0.13638 0.0164568 0.00784051 0.0058011 0.000534025 5.75968e-05 -4.18512e-11 2.28307e-11 -5.21487e-11 5e-05 1.46608e-10 
62 1 0.136802 0.0175144 0.00723045 0.00593421 0.000184426 -0.000566398 -3.31117e-11 7.51438e-11 -2.63128e-11 5e-05 1.46608e-10 
63 1 0.136727 0.017579 0.00721531 0.00596712 0.00022336 -0.000582092 -4.46842e-11 3.29992e-11 -7.403e-12 5e-05 1.46608e-10 
64 1 0.142532 0.0170808 0.00740698 0.00559623 0.000420197 -0.000400658 -1.80688e-12 3.54398e-11 -9.85516e-12 5e-05 1.46608e-10 
65 1 0.130478 0.0164667 0.00777593 0.00554765 -6.73245e-05 -0.000416549 -1.72676e-11 -4.54707e-11 4.88836e-11 5e-05 1.46608e-10 
66 1 0.130419 0.0162589 0.00798784 0.00584471 2.5942e-05 -0.000537165 -1.99696e-10 6.41816e-11 -6.5999e-11 5e-05 1.46608e-10 
67 1 0.136958 0.0178205 0.00711532 0.006056 0.000181551 -0.000575337 -5.17245e-11 -5.67985e-11 2.52889e-11 5e-05 1.46608e-10 
68 1 0.136864 0.0177912 0.00713306 0.00605233 0.000178958 -0.000573091 5.45274e-11 1.83338e-10 -5.58225e-11 5e-05 1.46608e-10 
69 1 0.136529 0.0166761 0.00758331 0.00551227 0.000539055 -0.000126357 7.8447e-11 -3.3349e-10 -6.55761e-11 5e-05 1.46608e-10 
70 1 0.142591 0.0173633 0.0073249 0.00560908 0.000421908 -0.000402136 -3.38029e-11 -1.50241e-11 1.26461e-11 5e-05 1.46608e-10 
71 1 0.130085 0.0154942 0.00877819 0.00611619 -0.000146479 -0.000386931 -2.10477e-11 -4.53193e-11 4.54906e-11 5e-05 1.46608e-10 
72 1 0.136843 0.0176989 0.00716552 0.00604427 0.000177138 -0.000573076 -1.04115e-10 -5.18157e-11 1.60224e-11 5e-05 1.46608e-10 
73 1 0.136495 0.0169029 0.00746001 0.00560435 0.00029645 -0.000568227 -9.32822e-11 2.29272e-11 -2.38823e-10 5e-05 1.46608e-10 
74 1 0.136687 0.017394 0.00728022 0.00577157 0.000281064 -0.000584252 1.45032e-10 -2.01879e-11 -8.72325e-13 5e-05 1.46608e-10 
76 1 0.130659 0.0173043 0.00732448 0.00564203 0.000362682 0.000335896 -1.41955e-10 -1.97706e-10 -1.13016e-11 5e-05 1.46608e-10 
77 1 0.136791 0.018259 0.00699549 0.00622231 0.000263164 -0.000246017 -4.83498e-11 -1.98817e-11 -4.36257e-11 5e-05 1.46608e-10 
78 1 0.13017 0.0157626 0.00850352 0.00610437 -9.82844e-05 -0.000434127 -6.99961e-12 -2.58466e-11 1.58368e-11 5e-05 1.46608e-10 
79 1 0.130382 0.0164459 0.00780494 0.00566971 -3.09789e-05 -0.000461466 8.26133e-11 -8.8644e-11 8.69975e-11 5e-05 1.46608e-10 
80 1 0.136745 0.0179368 0.00719668 0.00607312 0.000172174 -0.000590931 8.44566e-11 1.09788e-10 -1.38875e-10 5e-05 1.46608e-10 
81 1 0.130322 0.0162402 0.00801488 0.0058894 -4.37489e-05 -0.000469963 -1.49904e-10 -2.6286e-10 2.47619e-10 5e-05 1.46608e-10 
82 1 0.130457 0.0167303 0.00753493 0.0056723 8.72039e-05 -0.000278818 6.9628e-11 1.04014e-10 -9.0915e-11 5e-05 1.46608e-10 
83 1 0.130518 0.0162797 0.00795852 0.00562501 -9.23156e-05 -0.000400006 -4.83931e-10 -1.97956e-10 2.3369e-10 5e-05 1.46608e-10 
84 1 0.142631 0.0175515 0.00727018 0.00589167 0.000369358 -0.000401555 -1.25078e-11 -3.3894e-11 9.04501e-12 5e-05 1.46608e-10 
85 1 0.130289 0.0158493 0.00840684 0.00613541 -5.08223e-05 -0.000484184 1.63187e-10 -1.52124e-10 1.15955e-10 5e-05 1.46608e-10 
86 1 0.136747 0.0176713 0.00718285 0.00601476 0.000217047 -0.000583774 -4.78934e-11 9.65295e-11 -2.50674e-11 5e-05 1.46608e-10 
87 1 0.136664 0.0168666 0.00745766 0.00557706 0.000300505 -0.000580413 -1.42706e-10 1.12776e-10 -7.17026e-11 5e-05 1.46608e-10 
88 1 0.136735 0.0180137 0.00713239 0.00607045 0.000224905 -0.000597433 1.91934e-10 1.4075e-10 8.28428e-11 5e-05 1.46608e-10 
89 1 0.136921 0.0180695 0.0071001 0.0062538 0.000124462 -0.000610879 -1.15349e-10 9.58225e-11 3.78098e-11 5e-05 1.46608e-10 
90 1 0.136918 0.0176343 0.00718066 0.00598763 0.000114329 -0.000547414 1.99699e-10 2.44919e-10 -9.06343e-11 5e-05 1.46608e-10 
91 1 0.130401 0.016518 0.00773813 0.00557673 -2.13615e-05 -0.000462985 2.18291e-10 -1.10062e-10 4.53573e-11 5e-05 1.46608e-10 
92 1 0.136951 0.0181168 0.00701735 0.00609787 0.000229596 -0.000602303 -8.08399e-11 5.73048e-12 5.41196e-11 5e-05 1.46608e-10 
93 1 0.136853 0.0181098 0.00703813 0.0061425 0.0001758 -0.000463445 -8.06441e-11 9.50862e-11 6.84536e-11 5e-05 1.46608e-10 
94 1 0.137006 0.018431 0.00695132 0.00629394 0.000335819 9.68586e-05 3.22644e-11 -7.38975e-11 7.96225e-12 5e-05 1.46608e-10 
95 1 0.136938 0.0181989 0.00707562 0.00610446 8.88569e-05 -1.83043e-05 3.37574e-11 4.54493e-11 -5.73608e-11 5e-05 1.46608e-10 
96 1 0.136872 0.0182005 0.00700033 0.00623743 0.000297968 -0.000122653 -7.55829e-11 3.0242e-11 2.49452e-11 5e-05 1.46608e-10 
97 1 0.130279 0.0161038 0.00815456 0.00605736 -5.32491e-05 -0.000475866 2.1678e-10 -4.11218e-11 2.65668e-11 5e-05 1.46608e-10 
98 1 0.136756 0.0181063 0.00709788 0.00608477 0.000175845 -0.000603285 -1.51372e-11 -1.6053e-10 2.14598e-10 5e-05 1.46608e-10 
99 1 0.13046 0.0163978 0.0078461 0.00562956 -7.99829e-05 -0.000409972 1.59201e-10 4.4136e-11 -5.88245e-11 5e-05 1.46608e-10 
100 1 0.136877 0.0174497 0.00724559 0.00590168 0.000146632 -0.000550869 -7.89786e-11 2.038e-10 -5.65009e-11 5e-05 1.46608e-10 
101 1 0.130398 0.0161905 0.00805778 0.00599991 2.50433e-05 -0.000547416 4.6628e-10 -5.78404e-11 1.63869e-11 5e-05 1.46608e-10 
102 1 0.0643568 0.0187248 0.00531097 4.22993e-15 1.05134e-14 8.29602e-14 1.88813e-21 -8.18754e-22 5.37667e-24 5e-05 1.46608e-10 
103 1 0.24257 0.0191927 0.00520306 -1.23235e-22 -1.27651e-22 1.23839e-22 0 0 0 5e-05 1.46608e-10 
104 1 0.130741 0.0172505 0.00734833 0.0056618 0.000372681 0.000332135 -9.50625e-12 -1.05757e-10 4.24497e-11 5e-05 1.46608e-10 
105 1 0.130236 0.0159673 0.00829411 0.00607677 -6.77213e-05 -0.000462788 1.13984e-10 1.08748e-11 -2.10028e-11 5e-05 1.46608e-10 
106 1 0.130818 0.0171914 0.00737354 0.00562723 0.000377581 0.000329499 3.06767e-10 1.03188e-11 4.58729e-11 5e-05 1.46608e-10 
107 1 0.130192 0.0158312 0.00843401 0.0061024 -8.81953e-05 -0.000445698 5.67422e-11 -1.00053e-11 -2.27792e-11 5e-05 1.46608e-10 
108 1 0.13657 0.0168404 0.00747944 0.00559098 0.00031834 -0.000453322 -1.87014e-10 2.89523e-11 3.61058e-11 5e-05 1.46608e-10 
109 1 0.136652 0.0176435 0.00720026 0.00593981 4.34936e-05 -0.000519926 -9.59929e-13 -1.90307e-11 6.23819e-12 5e-05 1.46608e-10 
110 1 0.13688 0.0186578 0.00690632 0.00633169 0.000344424 9.64217e-05 -5.5423e-12 -8.10819e-11 2.0264e-11 5e-05 1.46608e-10 
111 1 0.136925 0.0184884 0.00693868 0.00630959 0.000347256 9.42571e-05 -3.66361e-11 -5.6111e-11 5.41602e-12 5e-05 1.46608e-10 
112 1 0.130301 0.016172 0.00808469 0.00600012 -5.1336e-05 -0.000472389 -8.07588e-12 -1.85712e-10 1.97111e-10 5e-05 1.46608e-10 
113 1 0.131005 0.0180378 0.00711561 0.00616281 0.000333629 0.000385095 7.11655e-11 9.28713e-11 -2.34445e-11 5e-05 1.46608e-10 
114 1 0.130685 0.0169709 0.00743901 0.00558197 0.0004447 0.000311277 4.17677e-10 -3.39989e-11 -1.28541e-10 5e-05 1.46608e-10 
115 1 0.136707 0.0174865 0.00724776 0.00592752 0.00023978 -0.000584303 4.93393e-12 1.11846e-11 -5.59647e-12 5e-05 1.46608e-10 
116 1 0.136551 0.0167522 0.00752244 0.00560009 0.000416413 -0.000228489 7.28575e-12 -1.55521e-11 9.95083e-11 5e-05 1.46608e-10 
117 1 0.136419 0.0162465 0.00797556 0.00582511 0.000542044 4.96031e-05 1.79899e-11 -1.35234e-10 1.41655e-10 5e-05 1.46608e-10 
118 1 0.130129 0.0156463 0.00865876 0.00610359 -0.000121293 -0.000412832 6.47618e-12 -1.07e-10 7.34594e-11 5e-05 1.46608e-10 
119 1 0.136723 0.0171443 0.00736026 0.00562788 0.000260481 -0.000566218 -8.4541e-11 3.61807e-12 3.8912e-11 5e-05 1.46608e-10 
120 1 0.136278 0.0160772 0.00813195 0.00612807 0.000502798 0.000119098 1.24962e-10 -9.23227e-11 1.18903e-10 5e-05 1.46608e-10 
121 1 0.136235 0.0159375 0.00826838 0.00614341 0.000517725 0.000105937 -5.85075e-11 -1.35266e-10 1.31781e-10 5e-05 1.46608e-10 
122 1 0.136859 0.0185616 0.0069235 0.00631788 0.000349138 9.55405e-05 -2.56812e-12 -4.36865e-11 5.79017e-12 5e-05 1.46608e-10 
123 1 0.130333 0.0159858 0.00826721 0.00616807 -1.14991e-05 -0.00052648 -2.70959e-11 -3.22931e-10 3.18114e-10 5e-05 1.46608e-10 
124 1 0.136803 0.0180265 0.00706001 0.00607546 0.000185475 -0.00058339 -3.28034e-11 7.02187e-11 -1.14723e-11 5e-05 1.46608e-10 
125 1 0.136398 0.0161759 0.00804462 0.00588707 0.000628644 -3.24242e-05 8.05618e-11 -1.5616e-10 1.53256e-10 5e-05 1.46608e-10 
126 1 0.136612 0.0174585 0.00726517 0.00558963 0.00010876 -0.000511808 -1.63722e-12 3.55877e-12 2.31493e-12 5e-05 1.46608e-10 
127 1 0.130257 0.0160355 0.00822429 0.00608062 -6.42471e-05 -0.000466159 1.854e-10 1.57409e-11 -5.07154e-11 5e-05 1.46608e-10 
128 1 0.136714 0.0179204 0.00710281 0.00609431 0.000224355 -0.000595864 1.80813e-11 1.37506e-10 -3.95794e-11 5e-05 1.46608e-10 
129 1 0.136946 0.0183116 0.00705689 0.00626245 0.000377322 9.36189e-05 -1.11929e-10 2.75271e-10 -1.7759e-12 5e-05 1.46608e-10 
130 1 0.13057 0.0168475 0.00747855 0.00557319 0.000420189 0.000281522 4.26933e-11 -2.62054e-10 1.94857e-11 5e-05 1.46608e-10 
131 1 0.130441 0.0163281 0.00791708 0.00570233 -3.52203e-05 -0.000461172 -3.20485e-10 -4.35532e-11 1.44246e-10 5e-05 1.46608e-10 
132 1 0.136814 0.0179524 0.00712622 0.00607969 0.000197619 -0.000579962 -9.33843e-12 6.97184e-11 -1.00707e-10 5e-05 1.46608e-10 
133 1 0.136592 0.0165491 0.00768804 0.00570125 0.000544903 3.485e-05 2.18133e-10 7.2969e-11 -2.52242e-11 5e-05 1.46608e-10 
134 1 0.136743 0.0172368 0.00732781 0.00564117 0.000255311 -0.000565277 1.39632e-10 -6.14766e-11 3.72473e-12 5e-05 1.46608e-10 
135 1 0.136377 0.016106 0.00811294 0.00612707 0.000529161 9.30597e-05 1.65906e-10 -9.00784e-11 1.18001e-10 5e-05 1.46608e-10 
136 1 0.130267 0.015781 0.00847678 0.00626201 3.48514e-05 -0.000581037 5.49497e-11 1.96516e-11 -3.37617e-11 5e-05 1.46608e-10 
137 1 0.136811 0.0183506 0.00696123 0.0062873 0.00037642 7.22239e-05 -9.7215e-12 4.7996e-11 4.57283e-11 5e-05 1.46608e-10 
138 1 0.136512 0.0165927 0.00763589 0.00555549 0.000601282 -3.84843e-05 -9.08009e-11 -2.26826e-10 -9.08308e-12 5e-05 1.46608e-10 
140 1 0.136962 0.0186014 0.00691877 0.00632168 0.000338959 9.73886e-05 -6.68856e-12 -1.18291e-10 2.13871e-11 5e-05 1.46608e-10 
141 1 0.130311 0.0159176 0.00833705 0.0060879 -4.7834e-05 -0.000483184 2.77524e-10 -3.24135e-11 -6.38878e-12 5e-05 1.46608e-10 
142 1 0.130703 0.0170668 0.00741714 0.00557164 0.000438174 0.000303601 4.88965e-10 8.26954e-12 -2.93896e-10 5e-05 1.46608e-10 
143 1 0.130214 0.0158991 0.00836391 0.00609516 -7.80895e-05 -0.000454699 1.2959e-10 -1.71283e-11 6.60392e-12 5e-05 1.46608e-10 
144 1 0.130666 0.0168758 0.00746318 0.00559237 0.000450646 0.000306994 3.24051e-10 -2.1806e-11 5.98958e-11 5e-05 1.46608e-10 
146 1 0.130536 0.0163486 0.00788838 0.00556935 -8.91747e-05 -0.000397189 3.67072e-10 -2.47119e-10 2.11819e-10 5e-05 1.46608e-10 
147 1 0.130246 0.0157127 0.0085466 0.00623291 -1.60936e-06 -0.000541941 5.09765e-11 -5.48482e-12 2.21858e-12 5e-05 1.46608e-10 
148 1 0.130515 0.0169964 0.00741247 0.00558855 0.000430753 0.000314061 1.38658e-10 -9.09214e-11 -4.68418e-11 5e-05 1.46608e-10 
149 1 0.136915 0.0183906 0.00695647 0.00628684 0.000352026 9.15183e-05 -1.56691e-11 -2.38536e-11 -7.03365e-12 5e-05 1.46608e-10 
150 1 0.130573 0.0164863 0.0077481 0.00559341 -0.000103196 -0.000387622 1.04617e-09 -1.23889e-10 1.99772e-11 5e-05 1.46608e-10 
151 1 0.130934 0.0173207 0.00734112 0.00573581 0.00029391 0.000364013 1.61912e-10 -1.75342e-10 8.48563e-11 5e-05 1.46608e-10 
153 1 0.130376 0.0161223 0.0081276 0.00603164 -5.60429e-06 -0.000520656 -4.3035e-12 7.17571e-11 -7.68249e-11 5e-05 1.46608e-10 
154 1 0.13063 0.0171239 0.00738027 0.00561485 0.000451139 0.000305175 2.09168e-10 1.40899e-10 -5.43198e-11 5e-05 1.46608e-10 
155 1 0.130683 0.0174011 0.00730864 0.00574937 0.000414275 0.000328771 -9.78079e-11 -2.45228e-10 1.94022e-10 5e-05 1.46608e-10 
156 1 0.13061 0.0170301 0.00740898 0.00558484 0.000434404 0.000307226 1.87494e-10 -5.53553e-11 -5.25337e-11 5e-05 1.46608e-10 
157 1 0.0219312 0.0187687 0.00551176 -3.8315e-14 8.16801e-14 2.95886e-13 7.03388e-22 3.68406e-22 -6.20385e-24 5e-05 1.46608e-10 
158 1 0.130864 0.0177842 0.00718608 0.00599628 0.0003627 0.000361243 2.07599e-11 -9.8053e-12 4.53507e-12 5e-05 1.46608e-10 
159 1 0.136883 0.0178852 0.00710016 0.00605344 0.000172248 -0.000572449 -1.71712e-11 3.68479e-11 -4.69404e-11 5e-05 1.46608e-10 
160 1 0.130571 0.0172812 0.00736617 0.00560718 0.000447347 0.000300589 -4.37073e-11 -1.90219e-10 -1.97675e-11 5e-05 1.46608e-10 
162 1 0.130534 0.0170917 0.00738977 0.0055953 0.000437214 0.000308158 4.02354e-11 -1.29163e-10 -7.44899e-11 5e-05 1.46608e-10 
164 1 0.130753 0.0177686 0.00718223 0.00598635 0.000369917 0.000369687 2.87826e-10 1.64389e-10 -6.69678e-11 5e-05 1.46608e-10 
165 1 0.131001 0.0175987 0.00725686 0.0059339 0.000272785 0.000385682 1.29305e-10 3.74156e-11 2.8477e-11 5e-05 1.46608e-10 
166 1 0.136549 0.0164095 0.00782445 0.00581105 0.000527833 6.15156e-05 1.23853e-10 1.06905e-10 -1.13153e-10 5e-05 1.46608e-10 
167 1 0.130554 0.0164175 0.00781823 0.00555441 -9.18622e-05 -0.000391937 1.00514e-09 -2.26228e-10 1.36713e-10 5e-05 1.46608e-10 
168 1 0.130841 0.0172846 0.00734529 0.00569873 0.000357632 0.000339985 9.36649e-11 5.91487e-12 8.23961e-12 5e-05 1.46608e-10 
169 1 0.13107 0.0179029 0.00716427 0.00609096 0.000247134 0.000407185 -1.08003e-11 4.18689e-11 -1.61063e-11 5e-05 1.46608e-10 
170 1 0.130856 0.0173815 0.00731531 0.0057285 0.000366205 0.000340995 -2.17604e-10 3.76424e-11 -1.31979e-12 5e-05 1.46608e-10 
171 1 0.136573 0.016479 0.00775684 0.00574052 0.00053886 4.28302e-05 3.29747e-10 8.7432e-11 -5.32861e-11 5e-05 1.46608e-10 
172 1 0.130989 0.017504 0.00728641 0.0059234 0.000269676 0.000387328 1.74771e-10 -5.33403e-11 7.88947e-11 5e-05 1.46608e-10 
173 1 0.13697 0.018232 0.00698712 0.00623413 0.000311123 0.000103041 1.11061e-11 1.15428e-10 -2.00002e-11 5e-05 1.46608e-10 
174 1 0.130775 0.0174419 0.0073045 0.00583791 0.000369656 0.000332197 -1.83146e-11 -1.13587e-10 1.89653e-10 5e-05 1.46608e-10 
175 1 0.124575 0.0172463 0.00722357 0.00567753 -1.88097e-05 -1.86626e-05 1.77072e-12 -1.36357e-11 -6.315e-11 5e-05 1.46608e-10 
176 1 0.13059 0.0169364 0.0074376 0.00557238 0.000431171 0.00030838 5.34975e-11 -3.52357e-10 1.1849e-10 5e-05 1.46608e-10 
177 1 0.130613 0.0174714 0.00732059 0.00578929 0.000444938 0.000338524 -1.77223e-11 -2.08379e-10 -1.41075e-10 5e-05 1.46608e-10 
178 1 0.131123 0.0178234 0.00719412 0.00603222 0.000206533 0.000415476 1.30783e-10 1.60387e-10 -3.9022e-11 5e-05 1.46608e-10 
179 1 0.131038 0.0177704 0.0072045 0.0059896 0.000271996 0.000390908 2.44246e-10 1.07053e-10 -2.11421e-11 5e-05 1.46608e-10 
181 1 0.130584 0.0173504 0.00743735 0.0057391 0.000415941 0.00030602 -7.97793e-11 -1.81395e-10 -5.50351e-11 5e-05 1.46608e-10 
182 1 0.136492 0.0165227 0.00770437 0.00567986 0.000592889 -1.83717e-05 -4.40707e-11 -1.44428e-11 2.02519e-11 5e-05 1.46608e-10 
183 1 0.130764 0.0173437 0.00732012 0.00572284 0.000379569 0.000336096 5.50079e-11 -9.92997e-11 5.63761e-11 5e-05 1.46608e-10 
184 1 0.137039 0.0181611 0.00700194 0.00619576 0.000273471 0.000106449 -5.77372e-11 3.86664e-11 -8.81405e-14 5e-05 1.46608e-10 
185 1 0.130495 0.0169025 0.00744091 0.00558826 0.000428739 0.000319397 2.67705e-10 -9.69756e-11 -3.99552e-11 5e-05 1.46608e-10 
186 1 0.130573 0.0172206 0.0074458 0.0055827 0.000460047 0.000302125 3.56511e-11 -1.92642e-10 -1.91476e-11 5e-05 1.46608e-10 
187 1 0.136857 0.0173572 0.00727804 0.00584812 0.000153122 -0.000548654 3.7537e-10 1.06965e-10 -6.82744e-11 5e-05 1.46608e-10 
188 1 0.136769 0.0181637 0.00701718 0.00617913 0.000182347 -0.000583077 -1.34564e-10 -1.71904e-10 5.2054e-11 5e-05 1.46608e-10 
189 1 0.136897 0.0175421 0.00721313 0.00593093 0.000135421 -0.000549962 -3.18136e-10 1.64766e-10 -3.33943e-11 5e-05 1.46608e-10 
190 1 0.124759 0.0176357 0.00707239 0.00566983 6.77558e-05 4.24639e-05 1.38131e-11 -2.01315e-11 1.6438e-12 5e-05 1.46608e-10 
191 1 0.136833 0.0184467 0.00694404 0.00630576 0.000389512 8.15852e-05 -5.20252e-11 1.55291e-11 -2.26748e-11 5e-05 1.46608e-10 
192 1 0.13078 0.0170038 0.00743097 0.00556882 0.000411253 0.00032922 5.09444e-10 -2.1882e-10 -5.43943e-11 5e-05 1.46608e-10 
193 1 0.136644 0.0167737 0.00749027 0.00560031 0.000285779 -0.000578136 -1.98299e-10 5.75464e-11 -2.09131e-12 5e-05 1.46608e-10 
194 1 0.13061 0.0166256 0.0076094 0.00557296 6.20507e-05 -0.000200372 2.43085e-10 -1.66114e-10 9.9449e-11 5e-05 1.46608e-10 
195 1 0.131059 0.0176777 0.00723601 0.00595628 0.000261467 0.00039126 7.93396e-11 9.67668e-11 -2.68706e-11 5e-05 1.46608e-10 
196 1 0.13002 0.0152895 0.00898761 0.00612554 -0.000184301 -0.000351044 4.16966e-11 1.43738e-10 -1.44646e-10 5e-05 1.46608e-10 
197 1 0.124629 0.0175082 0.00715353 0.00567295 2.03445e-05 4.62742e-05 8.51533e-12 -1.40575e-11 -3.79789e-11 5e-05 1.46608e-10 
198 1 0.130419 0.0165835 0.00766481 0.0056343 -3.86382e-05 -0.000458217 -1.3853e-10 -1.22464e-10 1.33884e-10 5e-05 1.46608e-10 
199 1 0.130554 0.0171835 0.00735498 0.00560956 0.000438438 0.000308365 -1.74412e-11 -6.6866e-11 -2.94274e-12 5e-05 1.46608e-10 
200 1 0.130533 0.0166732 0.00756555 0.00563463 6.31164e-05 -0.000219099 7.37797e-11 -8.9868e-11 6.83559e-11 5e-05 1.46608e-10 
201 1 0.130981 0.0179447 0.00714372 0.00610066 0.00027584 0.000398396 -1.10919e-10 -9.27934e-11 1.82198e-11 5e-05 1.46608e-10 
202 1 0.130801 0.0170972 0.00740261 0.00558313 0.000392125 0.000328068 7.83421e-10 -7.15372e-11 1.65109e-10 5e-05 1.46608e-10 
203 1 0.136902 0.0187539 0.00688913 0.00635182 0.000341527 9.75779e-05 -3.04199e-11 -1.17441e-10 2.34401e-11 5e-05 1.46608e-10 
204 1 0.130515 0.0166043 0.00763566 0.00562553 -9.054e-05 -0.00039062 -2.05701e-10 2.65459e-11 1.71003e-10 5e-05 1.46608e-10 
205 1 0.130872 0.0178648 0.00724717 0.00599891 0.000355656 0.000360864 2.81334e-11 5.166e-11 1.68777e-10 5e-05 1.46608e-10 
206 1 0.130787 0.0175313 0.00726147 0.00592084 0.000370359 0.000351897 -4.02602e-11 -9.22442e-11 1.62142e-10 5e-05 1.46608e-10 
207 1 0.130354 0.016054 0.00819741 0.00604681 -1.52327e-05 -0.000512164 8.99298e-11 1.72297e-10 -1.73795e-10 5e-05 1.46608e-10 
208 1 0.130651 0.0172241 0.0073842 0.00560943 0.000460234 0.000308842 7.50829e-11 -6.28761e-11 3.19177e-11 5e-05 1.46608e-10 
209 1 0.130591 0.0165552 0.00767795 0.00556775 -0.000104218 -0.000380521 6.7368e-10 -8.21116e-11 1.63155e-10 5e-05 1.46608e-10 
210 1 0.136924 0.0179559 0.00715917 0.00604153 0.000154055 -0.000569989 -1.65546e-10 3.46348e-11 -4.50314e-11 5e-05 1.46608e-10 
211 1 0.136992 0.0183286 0.00696985 0.00626864 0.000339537 9.50896e-05 1.93604e-11 5.73758e-12 1.54745e-12 5e-05 1.46608e-10 
212 1 0.130867 0.0174764 0.00728557 0.00589858 0.000352529 0.000351627 -3.00189e-10 -3.06405e-11 1.59206e-11 5e-05 1.46608e-10 
213 1 0.136837 0.0172647 0.0073105 0.00577344 0.000162816 -0.000545195 3.87047e-10 5.26123e-11 -5.58864e-11 5e-05 1.46608e-10 
214 1 0.137105 0.0184653 0.00694749 0.00629344 0.000318032 0.000100422 1.50273e-10 9.24759e-12 4.34153e-13 5e-05 1.46608e-10 
215 1 0.124695 0.0175512 0.0070915 0.00568209 2.30659e-05 5.37545e-05 3.41343e-11 -5.36875e-12 -4.7735e-12 5e-05 1.46608e-10 
216 1 0.130591 0.0173759 0.00734098 0.00569546 0.000439778 0.000308253 -2.13863e-10 -1.93415e-10 -5.12882e-11 5e-05 1.46608e-10 
217 1 0.13661 0.0166193 0.00761909 0.00564762 0.000548511 2.29335e-05 3.72452e-11 -2.80775e-12 -3.01158e-11 5e-05 1.46608e-10 
218 1 0.130701 0.0176056 0.00723063 0.00595335 0.000404599 0.000348324 -1.19928e-11 -2.09427e-10 4.47429e-11 5e-05 1.46608e-10 
219 1 0.136893 0.0182945 0.00697365 0.00626731 0.000354339 9.42324e-05 -3.85964e-11 3.93747e-11 1.64151e-11 5e-05 1.46608e-10 
220 1 0.130742 0.0175664 0.00734345 0.00591531 0.000387842 0.00032115 5.79105e-11 8.84422e-11 3.52178e-10 5e-05 1.46608e-10 
221 1 0.124631 0.0171069 0.00730866 0.00563487 -5.63381e-05 -3.21689e-05 -2.35916e-11 -2.04788e-11 4.27061e-12 5e-05 1.46608e-10 
222 1 0.136624 0.0166897 0.00754954 0.00560495 0.000544977 1.11251e-05 1.27277e-10 5.52745e-11 1.51162e-10 5e-05 1.46608e-10 
223 1 0.130724 0.0171561 0.00737747 0.00560919 0.000441742 0.000311249 2.3031e-10 5.47418e-11 -4.12289e-11 5e-05 1.46608e-10 
224 1 0.130476 0.0168148 0.00748498 0.00559338 0.000334119 0.0001301 1.50557e-10 -4.63055e-11 -2.26583e-10 5e-05 1.46608e-10 
225 1 0.136891 0.0179796 0.00706811 0.00606321 0.000168929 -0.000573031 -8.30527e-11 5.94475e-11 -2.65901e-11 5e-05 1.46608e-10 
226 1 0.130952 0.0174147 0.00731227 0.00585725 0.00028393 0.000376491 1.78736e-10 -1.60087e-10 4.39282e-11 5e-05 1.46608e-10 
227 1 0.124693 0.0173615 0.00714984 0.00573214 -1.75756e-05 -5.90652e-05 -5.09559e-11 2.29593e-11 9.13969e-12 5e-05 1.46608e-10 
228 1 0.124595 0.0173305 0.00717348 0.00570117 3.50745e-06 3.33806e-05 -1.17959e-12 -3.16885e-11 -5.02109e-11 5e-05 1.46608e-10 
229 1 0.1307 0.0174791 0.00736875 0.0058233 0.0004264 0.000300415 -1.32649e-10 3.79067e-11 1.71364e-10 5e-05 1.46608e-10 
230 1 0.130901 0.0179996 0.00711961 0.00612428 0.000316678 0.000387054 -8.47721e-11 -2.77958e-11 1.10828e-12 5e-05 1.46608e-10 
231 1 0.124555 0.0171627 0.0072749 0.00565745 -3.02984e-05 -4.80649e-05 -2.52899e-12 2.12946e-11 -3.19436e-11 5e-05 1.46608e-10 
232 1 0.130497 0.0162113 0.00802847 0.00572071 -0.000104944 -0.000394641 -6.67008e-10 -2.33547e-10 2.87152e-10 5e-05 1.46608e-10 
233 1 0.130627 0.0166985 0.00754326 0.00562844 0.000347112 0.00013336 2.28504e-10 -2.8748e-10 -5.04151e-11 5e-05 1.46608e-10 
234 1 0.136819 0.01822 0.00708311 0.00591159 4.68224e-06 -0.000257456 1.58451e-10 6.84755e-11 3.24574e-11 5e-05 1.46608e-10 
235 1 0.130747 0.0180592 0.0071922 0.00613097 0.000383089 0.00036525 -4.29947e-12 3.59619e-11 -3.91252e-11 5e-05 1.46608e-10 
236 1 0.130804 0.0183163 0.00700975 0.00623533 0.000390729 0.000372822 -2.76453e-11 -1.21402e-10 3.2499e-11 5e-05 1.46608e-10 
237 1 0.13076 0.0181223 0.00706878 0.00616079 0.000354851 0.000378039 1.06041e-10 2.70955e-10 -8.80072e-11 5e-05 1.46608e-10 
239 1 0.124379 0.0164047 0.00772707 0.00563474 6.70576e-05 0.000117628 -5.43666e-12 -2.11616e-12 -3.42481e-13 5e-05 1.46608e-10 
240 1 0.124439 0.0166586 0.00757869 0.00552466 8.24869e-05 0.000105523 2.40631e-11 3.7117e-11 -1.89822e-11 5e-05 1.46608e-10 
241 1 0.12436 0.0163201 0.00777652 0.00562239 7.11381e-05 0.000114912 -3.73877e-11 -1.33684e-11 1.01422e-11 5e-05 1.46608e-10 
242 1 0.130742 0.016816 0.00748854 0.00558958 0.000435863 0.000313677 1.93946e-10 -1.50202e-10 6.6459e-11 5e-05 1.46608e-10 
243 1 0.130497 0.0165355 0.00770582 0.00560878 -8.43249e-05 -0.000407977 4.5373e-11 -1.28808e-10 8.51191e-11 5e-05 1.46608e-10 
244 1 0.124399 0.0164893 0.00767762 0.00564597 6.26138e-05 0.000120298 4.8543e-11 1.36715e-11 -1.0466e-11 5e-05 1.46608e-10 
246 1 0.124516 0.0169962 0.00737875 0.00558171 -2.2798e-05 -5.39479e-05 -3.56251e-11 1.18445e-11 -2.30247e-11 5e-05 1.46608e-10 
247 1 0.130756 0.0176654 0.00734363 0.00599142 0.000380413 0.000338678 9.98926e-11 2.01214e-10 1.1561e-10 5e-05 1.46608e-10 
248 1 0.130925 0.0180926 0.00709152 0.00615246 0.000324674 0.00038725 -5.89657e-11 -7.03706e-11 5.71007e-12 5e-05 1.46608e-10 