ITEM: TIMESTEP
1800000
ITEM: NUMBER OF ATOMS
290
ITEM: BOX BOUNDS ff ff ff
-0.02 0.43
-0.02 0.06
-0.02 0.07
ITEM: ATOMS id type x y z vx vy vz fx fy fz radius mass 
1 1 0.0234392 0.0167791 0.00749545 0.00619825 -0.000829447 0.000549394 -8.00707e-11 6.41995e-11 -4.14311e-11 5e-05 1.46608e-10 
2 1 0.023797 0.0175535 0.00718965 0.00556714 -0.00108079 0.00019547 1.92683e-11 7.60709e-11 7.88295e-12 5e-05 1.46608e-10 
3 1 0.0176281 0.0180189 0.0069623 0.0050761 -0.00324649 0.00144418 5.82832e-10 1.16166e-10 3.83928e-11 5e-05 1.46608e-10 
4 1 0.0237658 0.0182629 0.00707919 0.00516931 -0.00105911 0.000191218 -2.6785e-10 9.91116e-11 -1.37505e-11 5e-05 1.46608e-10 
5 1 0.0233221 0.0166748 0.00756984 0.00596199 -0.000993054 0.000666691 -1.27273e-11 -9.63177e-11 6.21918e-11 5e-05 1.46608e-10 
6 1 0.0293012 0.0165818 0.00758336 0.00616777 -0.000410774 0.000165164 -1.84666e-11 -4.39193e-12 -4.43623e-12 5e-05 1.46608e-10 
7 1 0.0235082 0.0174567 0.00720326 0.00551445 -0.00105891 0.000190891 -4.20794e-11 -2.79808e-11 -1.18624e-11 5e-05 1.46608e-10 
8 1 0.0232142 0.0162765 0.00785208 0.00589775 -0.000959594 0.000643728 -1.89339e-10 2.28308e-11 -1.02169e-11 5e-05 1.46608e-10 
9 1 0.0295719 0.0177558 0.00716164 0.00565879 -0.000294366 0.000140548 9.09258e-11 -6.00052e-11 -6.93291e-12 5e-05 1.46608e-10 
10 1 0.0234465 0.0171665 0.00724807 0.00549715 -0.00104666 0.000184052 -5.58038e-11 -1.47866e-10 1.42695e-10 5e-05 1.46608e-10 
11 1 0.0238443 0.0177553 0.00715852 0.00556742 -0.00108238 0.000196279 6.37511e-11 9.32813e-11 -1.5418e-11 5e-05 1.46608e-10 
12 1 0.0178233 0.0189925 0.00692356 0.00481271 -0.00311698 -0.000648876 -2.25477e-09 -3.86611e-10 1.50094e-10 5e-05 1.46608e-10 
13 1 0.0233005 0.0165952 0.00762628 0.00595227 -0.000985301 0.000661407 -1.06079e-10 -1.82448e-10 1.24565e-10 5e-05 1.46608e-10 
14 1 0.0175548 0.0176715 0.00713268 0.00507107 -0.00331159 0.00139269 -2.69137e-10 -1.12537e-09 5.831e-10 5e-05 1.46608e-10 
15 1 0.0236451 0.0176819 0.00716893 0.00553926 -0.00107687 0.000196016 5.66832e-11 1.57007e-10 -3.87175e-11 5e-05 1.46608e-10 
16 1 0.0175353 0.0175844 0.00717782 0.00501222 -0.0034201 0.00145243 7.40965e-12 3.92904e-11 -5.3232e-11 5e-05 1.46608e-10 
17 1 0.0234265 0.017076 0.00728562 0.00550402 -0.000877558 0.000592757 1.04928e-10 -3.63101e-11 -2.30899e-11 5e-05 1.46608e-10 
18 1 0.0294492 0.0171834 0.00729291 0.00550607 -0.000264263 0.00013111 1.14338e-10 -7.86564e-11 3.5739e-11 5e-05 1.46608e-10 
19 1 0.0232789 0.0165155 0.00768273 0.00593302 -0.000980017 0.000657571 -2.16125e-11 -1.80299e-10 1.23631e-10 5e-05 1.46608e-10 
21 1 0.0234175 0.0166993 0.00755198 0.00596491 -0.000985957 0.000661638 -8.65553e-11 9.32502e-11 -7.06489e-11 5e-05 1.46608e-10 
22 1 0.0235493 0.0176501 0.00717339 0.00551862 -0.00103688 0.00018859 -1.78603e-11 9.68367e-12 5.04068e-12 5e-05 1.46608e-10 
23 1 0.0179996 0.0194144 0.00695091 0.0051327 -0.00343957 -0.000702491 5.4943e-10 8.79596e-10 6.99828e-11 5e-05 1.46608e-10 
24 1 0.0295106 0.0174696 0.00722728 0.00562363 -0.000274674 0.000134631 -1.38363e-10 8.8198e-11 -2.19961e-11 5e-05 1.46608e-10 
25 1 0.0234876 0.01736 0.0072182 0.00551006 -0.0010479 0.00019355 -2.22123e-11 -3.1203e-11 2.35187e-12 5e-05 1.46608e-10 
26 1 0.0293866 0.0168974 0.00735847 0.0062456 -0.000414626 0.000173464 -9.82549e-11 -3.7058e-11 5.43584e-12 5e-05 1.46608e-10 
27 1 0.0179047 0.0193829 0.00695485 0.00464846 -0.00292631 -0.000619594 -4.95446e-10 2.41624e-10 5.49661e-11 5e-05 1.46608e-10 
28 1 0.0237465 0.0181659 0.00709417 0.00513972 -0.00106836 0.000192314 -2.52744e-10 1.63897e-10 -2.52609e-11 5e-05 1.46608e-10 
29 1 0.0232573 0.0164358 0.00773918 0.00592676 -0.000975573 0.000654519 1.24419e-10 -1.36935e-11 1.56721e-11 5e-05 1.46608e-10 
30 1 0.0238204 0.0179065 0.00713489 0.00529472 -0.000910248 0.000167977 -6.17855e-10 2.76919e-10 -4.68333e-11 5e-05 1.46608e-10 
31 1 0.0235287 0.0175534 0.00718832 0.00551515 -0.0010479 0.000189168 -7.84778e-13 -3.58009e-11 1.09261e-11 5e-05 1.46608e-10 
32 1 0.0236247 0.0175852 0.00718386 0.0055359 -0.00107742 0.000194481 -5.15325e-11 1.32319e-10 -2.07187e-11 5e-05 1.46608e-10 
33 1 0.0293224 0.016657 0.00752092 0.0061981 -0.00041144 0.000165123 1.37457e-11 3.04925e-11 -2.03003e-11 5e-05 1.46608e-10 
34 1 0.0234077 0.0169936 0.00734397 0.00544367 -0.000890398 0.000609349 -6.612e-11 3.75504e-11 1.12664e-11 5e-05 1.46608e-10 
35 1 0.0236042 0.0174885 0.0071988 0.00552539 -0.00107577 0.000195176 -1.15268e-10 9.65986e-11 1.87159e-11 5e-05 1.46608e-10 
36 1 0.0296126 0.0179443 0.00710857 0.00568572 -0.000385254 -0.00013551 -1.25519e-11 -5.53091e-11 9.96261e-12 5e-05 1.46608e-10 
37 1 0.0235629 0.0172951 0.00722866 0.00549673 -0.00106798 0.000193641 -7.28772e-11 6.96355e-11 1.90424e-12 5e-05 1.46608e-10 
38 1 0.0237203 0.0176168 0.00717942 0.00555345 -0.00108484 0.000196642 6.11316e-11 1.61017e-10 -4.46123e-11 5e-05 1.46608e-10 
39 1 0.029531 0.017565 0.0072054 0.00563625 -0.000284712 0.000136557 1.05048e-10 1.34525e-10 -1.92596e-11 5e-05 1.46608e-10 
41 1 0.0233652 0.0168342 0.00745694 0.00599508 -0.00100201 0.000673052 -5.46149e-11 2.40281e-11 -8.42551e-12 5e-05 1.46608e-10 
42 1 0.0235699 0.017747 0.00715843 0.00552541 -0.00106534 0.000192394 2.78274e-11 1.37427e-10 -5.82146e-12 5e-05 1.46608e-10 
44 1 0.0237492 0.0177244 0.00716283 0.00555698 -0.00107339 0.000194547 9.03717e-11 1.98294e-10 -3.96895e-11 5e-05 1.46608e-10 
45 1 0.0293437 0.0167321 0.00745848 0.00623538 -0.00041346 0.000165389 -3.57824e-11 1.16194e-11 -1.84476e-11 5e-05 1.46608e-10 
46 1 0.0294287 0.017088 0.00731479 0.00575705 -0.000319733 0.000148151 -1.05007e-10 5.19222e-12 -1.25569e-11 5e-05 1.46608e-10 
47 1 0.0233868 0.0169139 0.00740049 0.00601921 -0.000999463 0.000673788 -1.26865e-11 -1.53879e-12 -2.03676e-11 5e-05 1.46608e-10 
48 1 0.0236111 0.0179405 0.00712855 0.0055173 -0.00108041 0.000195533 3.53712e-12 5.65899e-11 2.01911e-12 5e-05 1.46608e-10 
49 1 0.0294077 0.0169927 0.00733663 0.00621222 -0.00041249 0.000175222 1.02294e-10 2.65247e-11 -4.23059e-11 5e-05 1.46608e-10 
50 1 0.0236712 0.0182309 0.00708369 0.0051733 -0.001027 0.000186206 -1.5691e-10 2.12943e-11 -2.12451e-11 5e-05 1.46608e-10 
51 1 0.0236514 0.018134 0.00709866 0.00519767 -0.00102596 0.000185629 1.1532e-10 9.31422e-11 -2.75403e-11 5e-05 1.46608e-10 
52 1 0.0178038 0.0188948 0.00691566 0.00489347 -0.00313881 -0.000649902 1.55886e-09 -1.38527e-09 -1.90113e-11 5e-05 1.46608e-10 
53 1 0.0294696 0.0172788 0.00727103 0.00558177 -0.000277989 0.00013537 5.7102e-11 -8.68417e-11 2.54864e-11 5e-05 1.46608e-10 
54 1 0.0233959 0.0166196 0.00760845 0.00596019 -0.00099589 0.000669107 7.70662e-11 -7.95871e-11 5.99044e-11 5e-05 1.46608e-10 
55 1 0.0175923 0.0178472 0.00704483 0.0049258 -0.0032655 0.00137868 5.33374e-10 1.51718e-09 -8.99134e-10 5e-05 1.46608e-10 
56 1 0.0235835 0.0173918 0.00721373 0.00551674 -0.00107079 0.000194991 -1.02403e-10 6.15244e-11 -5.9626e-11 5e-05 1.46608e-10 
57 1 0.0293649 0.0168073 0.00739604 0.00625408 -0.000415274 0.00016771 -1.13831e-12 -3.14067e-11 1.5494e-11 5e-05 1.46608e-10 
59 1 0.0236374 0.0172291 0.00723929 0.00548845 -0.00108088 0.000199459 -7.03054e-11 1.16328e-10 -2.94486e-11 5e-05 1.46608e-10 
60 1 0.023658 0.0173258 0.00722435 0.00550873 -0.00109696 0.000198604 -1.20071e-10 -5.00847e-11 1.47074e-11 5e-05 1.46608e-10 
61 1 0.0233436 0.0167545 0.00751339 0.00595981 -0.000996393 0.000668822 -7.08965e-11 4.18439e-12 3.84067e-12 5e-05 1.46608e-10 
62 1 0.0237698 0.0178212 0.0071479 0.00555775 -0.00107464 0.000194836 -3.36148e-11 9.11344e-11 -1.6798e-11 5e-05 1.46608e-10 
63 1 0.0237066 0.0179721 0.00712411 0.0052903 -0.000995477 0.000181112 2.09907e-11 1.13694e-10 -1.43576e-11 5e-05 1.46608e-10 
64 1 0.0294901 0.0173742 0.00724916 0.00560025 -0.000274564 0.000134826 -1.27422e-10 -3.46529e-11 1.76821e-11 5e-05 1.46608e-10 
65 1 0.0179178 0.0190251 0.00691975 0.00466379 -0.00334156 -0.000660179 1.29434e-09 1.06118e-09 -1.37127e-11 5e-05 1.46608e-10 
66 1 0.0178591 0.0187318 0.00689606 0.00481909 -0.00323767 -0.000658924 -9.69663e-11 -3.38781e-11 4.78783e-11 5e-05 1.46608e-10 
67 1 0.0238156 0.0176506 0.00717465 0.00556348 -0.00107677 0.000194786 8.17914e-11 1.1829e-10 -2.35753e-11 5e-05 1.46608e-10 
68 1 0.0238215 0.0181007 0.00710469 0.00515309 -0.00103403 0.00018489 -2.45556e-10 2.83049e-10 -5.23929e-11 5e-05 1.46608e-10 
69 1 0.0235026 0.0170192 0.00732532 0.00544194 -0.000894549 0.000604167 -1.24315e-10 1.27201e-10 -1.97521e-10 5e-05 1.46608e-10 
70 1 0.0295515 0.0176604 0.00718352 0.00564274 -0.000292404 0.000139148 -4.50154e-11 -8.98963e-12 1.81098e-11 5e-05 1.46608e-10 
71 1 0.017574 0.0177586 0.00708753 0.00504341 -0.00323447 0.00135203 7.58503e-10 4.09903e-10 -2.28626e-10 5e-05 1.46608e-10 
72 1 0.0238015 0.0180035 0.00711971 0.00523877 -0.000935787 0.000171853 -3.26223e-10 -1.30164e-10 1.92279e-11 5e-05 1.46608e-10 
73 1 0.023467 0.0172633 0.00723313 0.00549753 -0.00104218 0.00019519 -1.15933e-11 -3.38472e-11 1.24525e-10 5e-05 1.46608e-10 
74 1 0.0236657 0.0177786 0.00715399 0.00554115 -0.00107385 0.000194293 8.01941e-11 1.76819e-10 -1.95969e-11 5e-05 1.46608e-10 
76 1 0.0188481 0.0196521 0.00691153 2.03102e-14 -2.64941e-14 2.77687e-13 5.31205e-24 4.0842e-24 2.06795e-25 5e-05 1.46608e-10 
77 1 0.0239179 0.0189662 0.0069706 0.00536365 -0.000945947 0.000173613 -9.31485e-11 1.34006e-10 -3.2897e-11 5e-05 1.46608e-10 
78 1 0.017648 0.0181151 0.00694372 0.00509409 -0.00321661 0.00118291 2.26372e-10 -1.60113e-10 -1.00441e-09 5e-05 1.46608e-10 
79 1 0.0178429 0.0190903 0.00693145 0.00497268 -0.00309183 -0.000667059 -5.84768e-10 1.69148e-10 3.34439e-10 5e-05 1.46608e-10 
80 1 0.0237293 0.0185218 0.00703876 0.00525634 -0.0010184 0.000184483 -2.87724e-11 2.84751e-11 -5.75975e-12 5e-05 1.46608e-10 
81 1 0.0177842 0.018797 0.00690776 0.00497468 -0.00316543 -0.000659996 5.34132e-10 -1.97799e-10 1.69995e-11 5e-05 1.46608e-10 
82 1 0.0179254 0.0194804 0.00696264 0.00535701 -0.00315397 -0.000694412 -6.67217e-11 1.88349e-10 2.66235e-11 5e-05 1.46608e-10 
83 1 0.0178645 0.0182848 0.00691552 0.00482387 -0.00293317 0.000645015 -5.80372e-10 4.27284e-10 -8.07394e-11 5e-05 1.46608e-10 
84 1 0.0295923 0.0178503 0.00713615 0.00566758 -0.000384677 -0.000135929 -5.32096e-11 1.95304e-11 4.85562e-12 5e-05 1.46608e-10 
85 1 0.0177237 0.0180493 0.00694915 0.00459978 -0.00291258 0.00063658 -6.43727e-10 6.05201e-10 -1.22085e-10 5e-05 1.46608e-10 
86 1 0.0237267 0.018069 0.00710914 0.00516656 -0.00106125 0.000190974 -4.20207e-11 1.30801e-10 -2.47566e-11 5e-05 1.46608e-10 
87 1 0.0236168 0.0171335 0.00726003 0.00543641 -0.00102594 0.000342654 -6.35789e-11 1.46902e-10 -1.07177e-11 5e-05 1.46608e-10 
88 1 0.0237877 0.0188126 0.00699383 0.0053198 -0.000980191 0.000179944 -1.41209e-10 1.55956e-11 -1.67739e-12 5e-05 1.46608e-10 
89 1 0.0237488 0.0186187 0.00702378 0.00527831 -0.00100528 0.000182472 5.13898e-12 -1.29255e-11 3.31148e-12 5e-05 1.46608e-10 
90 1 0.0238046 0.017455 0.00720501 0.00556202 -0.00108918 0.000198226 -1.91395e-11 -6.5261e-11 4.14538e-12 5e-05 1.46608e-10 
91 1 0.0178628 0.019188 0.00693932 0.00456943 -0.00298104 -0.00061703 -4.9276e-10 2.52519e-10 6.53879e-11 5e-05 1.46608e-10 
92 1 0.0238605 0.0182949 0.00707469 0.00517328 -0.00110095 0.000196866 -6.48786e-11 1.31262e-10 -2.05422e-11 5e-05 1.46608e-10 
93 1 0.0238436 0.0186508 0.00701927 0.00529074 -0.00100108 0.000182118 1.09818e-10 2.87427e-11 -5.72976e-12 5e-05 1.46608e-10 
94 1 0.0239222 0.0185897 0.00702916 0.00526105 -0.00104433 0.000188857 1.24481e-10 -5.1023e-11 6.48745e-12 5e-05 1.46608e-10 
95 1 0.0237099 0.0184248 0.00705373 0.00522317 -0.00102724 0.000185818 -1.22163e-11 7.23417e-11 -1.00804e-11 5e-05 1.46608e-10 
96 1 0.0238799 0.0183918 0.00705972 0.00521264 -0.00104052 0.000187818 -8.23669e-11 1.71437e-10 -2.67717e-11 5e-05 1.46608e-10 
97 1 0.0177452 0.0186014 0.00689366 0.00488763 -0.00326583 -0.000655459 -5.56822e-10 -1.05613e-09 -1.06158e-10 5e-05 1.46608e-10 
98 1 0.0238072 0.0189095 0.00697886 0.00534244 -0.000974175 0.000178266 1.72424e-10 4.45782e-11 1.84266e-11 5e-05 1.46608e-10 
99 1 0.0178983 0.0189273 0.00691186 0.00479344 -0.00317483 -0.000654205 -3.54791e-10 7.92473e-10 1.16813e-10 5e-05 1.46608e-10 
100 1 0.0238083 0.0173562 0.00722038 0.00552862 -0.00110194 0.00020126 -7.43163e-11 -1.93471e-10 4.39401e-11 5e-05 1.46608e-10 
101 1 0.0178396 0.018634 0.00688816 0.00473938 -0.00327089 -0.000683321 2.67812e-09 1.55239e-09 -9.04353e-11 5e-05 1.46608e-10 
102 1 0.0643568 0.0187248 0.00531097 4.18052e-15 1.05138e-14 8.29626e-14 6.93591e-22 -5.76855e-22 3.28804e-23 5e-05 1.46608e-10 
103 1 0.24257 0.0191927 0.00520306 2.07359e-22 -1.27651e-22 8.29106e-22 0 0 0 5e-05 1.46608e-10 
104 1 0.0181856 0.0197641 0.00697068 0.00550947 -0.00242927 -0.000634702 -5.46177e-10 1.49962e-10 5.34024e-11 5e-05 1.46608e-10 
105 1 0.0177062 0.0184057 0.00690474 0.0049966 -0.00314061 0.000205783 4.08344e-11 8.64364e-10 -1.23506e-10 5e-05 1.46608e-10 
106 1 0.0183877 0.0196094 0.00694114 0.00207844 -0.00288939 -0.000427702 -3.10386e-10 4.40102e-10 6.47208e-11 5e-05 1.46608e-10 
107 1 0.0176676 0.0182112 0.00692403 0.00505576 -0.00319501 0.000897243 -7.51013e-10 1.34347e-10 -6.26205e-10 5e-05 1.46608e-10 
108 1 0.0235423 0.017199 0.00724734 0.00544765 -0.00103124 0.000317496 4.84395e-11 4.51319e-11 -1.76157e-10 5e-05 1.46608e-10 
109 1 0.0236315 0.0180372 0.00711361 0.00527756 -0.00103716 0.000187633 3.15639e-10 1.61105e-10 -2.63509e-11 5e-05 1.46608e-10 
110 1 0.0239358 0.0182298 0.00708518 0.00513762 -0.00106745 0.000190713 -1.08254e-10 -5.23205e-11 4.13345e-12 5e-05 1.46608e-10 
111 1 0.0238461 0.0191034 0.00694891 0.00537505 -0.000962816 0.000176538 8.07088e-11 1.3589e-12 6.31821e-12 5e-05 1.46608e-10 
112 1 0.0177647 0.0186993 0.00689987 0.00475071 -0.00314067 -0.000625114 -1.03175e-09 -6.49856e-10 1.07422e-10 5e-05 1.46608e-10 
113 1 0.0190626 0.019066 0.00683993 2.03103e-14 -2.64942e-14 2.77687e-13 3.77401e-24 3.25702e-24 0 5e-05 1.46608e-10 
114 1 0.0180974 0.0194974 0.00695168 0.00517791 -0.00381531 -0.000742687 -4.67101e-10 2.85572e-10 6.11689e-11 5e-05 1.46608e-10 
115 1 0.0236862 0.0178753 0.00713905 0.00553838 -0.00107396 0.000194348 -9.28303e-12 1.70391e-10 -2.935e-11 5e-05 1.46608e-10 
116 1 0.0235216 0.0171086 0.00728474 0.00542599 -0.000931437 0.000521395 2.11148e-11 -2.72383e-12 -3.16466e-10 5e-05 1.46608e-10 
117 1 0.0233744 0.0165399 0.0076649 0.00594806 -0.00099509 0.000668468 -4.74525e-11 -8.55881e-11 6.12356e-11 5e-05 1.46608e-10 
118 1 0.0176127 0.0179432 0.00702584 0.0049847 -0.00330282 0.00139922 -5.37675e-10 5.61367e-10 -2.07069e-10 5e-05 1.46608e-10 
119 1 0.0236786 0.0174225 0.00720942 0.00551478 -0.00109429 0.000197704 -1.36897e-10 5.37695e-11 -4.98199e-12 5e-05 1.46608e-10 
120 1 0.0232358 0.0163562 0.00779563 0.00592036 -0.00096737 0.000649011 2.87543e-11 9.22159e-11 -5.503e-11 5e-05 1.46608e-10 
121 1 0.0231926 0.0161968 0.00790853 0.00587001 -0.000960093 0.000644102 -7.05101e-11 -6.61651e-11 4.90537e-11 5e-05 1.46608e-10 
122 1 0.0239552 0.0183268 0.0070702 0.00517798 -0.00107223 0.000192511 -2.78565e-10 2.03529e-10 -3.62701e-11 5e-05 1.46608e-10 
123 1 0.0177815 0.0183394 0.00690371 0.00469962 -0.00316176 0.000683568 -3.48496e-10 -4.16639e-11 4.56145e-12 5e-05 1.46608e-10 
124 1 0.0238046 0.0184568 0.00704924 0.00524167 -0.00101986 0.000184649 1.97845e-11 8.89486e-11 -1.06104e-11 5e-05 1.46608e-10 
125 1 0.0233528 0.0164603 0.00772135 0.00592803 -0.000978245 0.000656487 -4.94311e-11 -6.4623e-11 3.78838e-11 5e-05 1.46608e-10 
126 1 0.0235905 0.0178437 0.00714349 0.00553101 -0.00107294 0.000194156 7.74112e-13 -1.86642e-11 5.05704e-12 5e-05 1.46608e-10 
127 1 0.0177259 0.0185033 0.00689555 0.00487711 -0.00318423 -0.000299155 -2.73336e-10 -6.11603e-10 -3.09373e-10 5e-05 1.46608e-10 
128 1 0.0236905 0.0183279 0.00706871 0.00519016 -0.00102822 0.000186014 -1.75424e-10 1.30546e-10 -2.12428e-11 5e-05 1.46608e-10 
129 1 0.0237683 0.0187156 0.00700881 0.00529443 -0.000994811 0.000181093 5.03627e-13 -4.64496e-11 3.661e-12 5e-05 1.46608e-10 
130 1 0.0180069 0.0195385 0.00696222 0.00534713 -0.00321339 -0.000697754 -5.04546e-10 2.30204e-10 5.89947e-11 5e-05 1.46608e-10 
131 1 0.0178787 0.0188296 0.00690396 0.00485865 -0.00319329 -0.000659576 -8.68904e-11 8.58808e-10 7.24201e-11 5e-05 1.46608e-10 
132 1 0.0237852 0.0183598 0.00706421 0.00519963 -0.00106413 0.000191301 -1.05707e-10 5.30359e-11 -1.02003e-11 5e-05 1.46608e-10 
133 1 0.0235356 0.0168044 0.007477 0.00672357 -0.000373235 0.000223517 -2.58836e-12 1.22866e-10 -8.31402e-11 5e-05 1.46608e-10 
134 1 0.0236992 0.0175193 0.00719448 0.00552984 -0.00108046 0.000195742 -1.48931e-10 3.73648e-11 -3.814e-12 5e-05 1.46608e-10 
135 1 0.0233312 0.0163806 0.0077778 0.00592008 -0.000974992 0.000654111 9.07752e-11 -9.83687e-11 6.88442e-11 5e-05 1.46608e-10 
136 1 0.0177085 0.0179391 0.00699765 0.00451677 0.00159042 -0.000895183 -1.07196e-11 -4.95103e-11 1.5481e-11 5e-05 1.46608e-10 
137 1 0.0238656 0.0192003 0.00693393 0.00538923 -0.000966499 0.000177902 -2.11922e-11 1.19351e-10 -3.21491e-11 5e-05 1.46608e-10 
138 1 0.0234826 0.0169393 0.00738196 0.00547622 -0.000889403 0.000599137 -1.80041e-10 -1.9787e-12 5.13807e-11 5e-05 1.46608e-10 
140 1 0.0239746 0.0184237 0.00705523 0.00520319 -0.0010771 0.000193625 -8.01387e-11 3.36358e-10 -5.53129e-11 5e-05 1.46608e-10 
141 1 0.0177429 0.0181462 0.00693396 0.00508023 -0.00330197 0.000707322 -8.19895e-10 6.63495e-10 -1.44796e-10 5e-05 1.46608e-10 
142 1 0.0181243 0.0195935 0.00695888 0.00495359 -0.00369264 -0.000714634 -4.64791e-10 2.88342e-10 6.07555e-11 5e-05 1.46608e-10 
143 1 0.0176867 0.0183076 0.00690561 0.00495644 -0.00316064 0.000690633 -4.39911e-10 7.20967e-10 4.53763e-10 5e-05 1.46608e-10 
144 1 0.0181005 0.0193979 0.00694196 0.00381137 -0.00389879 -0.000650758 -3.91989e-10 3.71738e-10 6.44453e-11 5e-05 1.46608e-10 
146 1 0.0179298 0.0185923 0.00687758 0.00469243 -0.00324077 -0.000654027 -4.81231e-10 2.68295e-10 6.41865e-11 5e-05 1.46608e-10 
147 1 0.0176921 0.0178502 0.00704033 0.00462252 0.00156856 -0.000886958 5.34148e-10 -2.79289e-10 1.24923e-10 5e-05 1.46608e-10 
148 1 0.0179996 0.0198194 0.00698955 0.00534484 -0.00368317 -0.000742734 2.35324e-10 9.38118e-11 -2.32501e-11 5e-05 1.46608e-10 
149 1 0.0240498 0.0183587 0.00706572 0.00518863 -0.00108549 0.000194759 -2.8461e-10 2.12017e-10 -3.15211e-11 5e-05 1.46608e-10 
150 1 0.0179783 0.0188252 0.00689626 0.0048187 -0.00285666 -0.000625012 -5.06375e-10 2.26312e-10 5.75979e-11 5e-05 1.46608e-10 
151 1 0.0191751 0.0190279 0.00683962 2.96075e-15 -1.39093e-14 -8.50386e-14 3.23117e-24 1.00813e-24 -2.06795e-25 5e-05 1.46608e-10 
153 1 0.0178193 0.0185356 0.00688025 0.00467513 -0.00337569 -0.000659974 -4.5783e-10 2.71869e-10 1.80924e-11 5e-05 1.46608e-10 
154 1 0.018086 0.0198699 0.00698805 0.0054194 -0.00361326 -0.000741967 -6.13026e-10 2.78252e-09 3.16733e-10 5e-05 1.46608e-10 
155 1 0.0196569 0.0191996 0.0068283 -7.45698e-15 3.50334e-14 2.14188e-13 2.89513e-24 7.75482e-26 2.06795e-25 5e-05 1.46608e-10 
156 1 0.0180861 0.0197703 0.00697855 0.0052979 -0.00365344 -0.000735182 -4.55678e-10 -2.77514e-09 -2.41018e-10 5e-05 1.46608e-10 
157 1 0.0219312 0.0187687 0.00551176 -3.83059e-14 8.16889e-14 2.95885e-13 -7.12383e-22 -1.03604e-22 -5.97638e-23 5e-05 1.46608e-10 
158 1 0.0183289 0.0196895 0.00695308 0.00417309 -0.00131897 -0.00043107 -5.73871e-10 7.8725e-11 4.95407e-11 5e-05 1.46608e-10 
159 1 0.0238411 0.0181978 0.00708968 0.00513403 -0.00107259 0.000190794 -1.92919e-10 2.67996e-11 3.95609e-11 5e-05 1.46608e-10 
160 1 0.018518 0.019853 0.00695485 -1.92028e-15 2.50456e-15 -2.62516e-14 6.07461e-25 -2.32645e-25 0 5e-05 1.46608e-10 
162 1 0.0182844 0.0197783 0.0069648 0.00529548 -0.000756084 -0.000459411 -6.00533e-10 -3.43681e-11 4.08199e-11 5e-05 1.46608e-10 
163 1 0.0247586 0.0150366 0.0139254 0.00448369 0.00401702 0.0049793 1.32011e-11 -4.46168e-11 -5.10223e-11 5e-05 1.46608e-10 
164 1 0.0200689 0.0190733 0.00686284 -3.97535e-15 2.47093e-14 1.44604e-13 7.36708e-25 4.1359e-25 0 5e-05 1.46608e-10 
165 1 0.0187628 0.0194865 0.00690197 -1.92006e-15 2.50468e-15 -2.62516e-14 1.07275e-24 5.94536e-25 0 5e-05 1.46608e-10 
166 1 0.0232411 0.0161252 0.00795884 0.005832 -0.000978823 0.000657484 1.8753e-11 7.36713e-11 -5.35764e-11 5e-05 1.46608e-10 
167 1 0.0179548 0.0187044 0.00688645 0.00485224 -0.00316783 -0.000652062 -4.85841e-10 2.47661e-10 1.18641e-10 5e-05 1.46608e-10 
168 1 0.0184851 0.0195887 0.00693204 0.00227544 -0.00189265 -0.000347007 -4.41396e-10 3.183e-10 6.26667e-11 5e-05 1.46608e-10 
169 1 0.0188279 0.0193982 0.00688879 -1.92002e-15 2.50472e-15 -2.62516e-14 -7.88407e-25 -7.49632e-25 -2.06795e-25 5e-05 1.46608e-10 
170 1 0.01848 0.0197274 0.00694564 -1.92017e-15 2.50464e-15 -2.62516e-14 -2.06795e-25 -6.72084e-25 0 5e-05 1.46608e-10 
171 1 0.0235138 0.0167245 0.0075336 0.00660259 -0.000467976 0.00029184 -2.75598e-11 1.29499e-10 -9.49731e-11 5e-05 1.46608e-10 
172 1 0.018656 0.0194574 0.006907 -1.91998e-15 2.50461e-15 -2.62517e-14 -7.23783e-25 5.16988e-24 6.20385e-25 5e-05 1.46608e-10 
173 1 0.0238415 0.0172497 0.00723711 0.00551244 -0.00112065 0.000200153 -3.8944e-11 -1.29951e-10 2.13729e-11 5e-05 1.46608e-10 
174 1 0.0185979 0.019721 0.0069364 2.0311e-14 -2.64941e-14 2.77686e-13 -4.4461e-24 2.37814e-24 4.1359e-25 5e-05 1.46608e-10 
175 1 0.0174365 0.0238494 0.0116302 5.55856e-06 0.000855985 -0.000165974 2.68742e-13 2.58954e-11 -1.18007e-11 5e-05 1.46608e-10 
176 1 0.0180647 0.0196729 0.00697081 0.00526449 -0.00379352 -0.000745541 1.63566e-09 -4.59399e-10 -1.57962e-10 5e-05 1.46608e-10 
177 1 0.0195627 0.0191016 0.00684105 -7.45713e-15 3.50334e-14 2.14188e-13 8.49153e-24 1.00813e-24 2.06795e-25 5e-05 1.46608e-10 
178 1 0.0192747 0.0190593 0.00683794 2.96009e-15 -1.39094e-14 -8.50386e-14 -8.00685e-24 -5.94536e-25 -2.06795e-25 5e-05 1.46608e-10 
179 1 0.0190373 0.0192555 0.00685985 -1.9202e-15 2.50467e-15 -2.62516e-14 -8.84049e-24 -5.58347e-24 2.06795e-25 5e-05 1.46608e-10 
181 1 0.0181769 0.0199113 0.00698535 0.00485903 -0.00241722 -0.000585674 -5.36192e-10 1.83064e-10 6.92304e-11 5e-05 1.46608e-10 
182 1 0.0234609 0.0168588 0.00743897 0.00626325 -0.000789031 0.00052194 -6.85443e-11 7.75901e-12 1.18136e-11 5e-05 1.46608e-10 
183 1 0.0186056 0.0195478 0.00691932 -2.43251e-14 3.17318e-14 -3.32583e-13 -3.30872e-24 -4.16175e-24 0 5e-05 1.46608e-10 
184 1 0.0237961 0.0181871 0.00717834 0.00515979 -0.00110673 0.000195352 -5.15862e-10 2.51045e-10 3.4842e-11 5e-05 1.46608e-10 
185 1 0.0179783 0.019722 0.00698182 0.00524385 -0.00370462 -0.000739024 1.53277e-09 7.45951e-11 -1.38409e-10 5e-05 1.46608e-10 
186 1 0.0180284 0.0199508 0.00699998 0.00534666 -0.0038037 -0.000754457 -3.32987e-10 7.63286e-10 8.82128e-11 5e-05 1.46608e-10 
187 1 0.023746 0.0172789 0.00723209 0.00551465 -0.00110069 0.000198173 -1.67637e-10 -2.50715e-10 5.7282e-11 5e-05 1.46608e-10 
188 1 0.023994 0.0185209 0.00704021 0.00522028 -0.00109396 0.000196161 1.30377e-10 -6.42157e-11 1.36085e-11 5e-05 1.46608e-10 
189 1 0.0236339 0.0172024 0.00733559 0.00550341 -0.00105737 0.000214052 -8.34434e-11 -1.85871e-10 -1.11815e-10 5e-05 1.46608e-10 
190 1 0.0178046 0.0238511 0.01156 0.00422941 0.000698494 0.000213081 3.22292e-08 5.75121e-07 -2.87685e-06 5e-05 1.46608e-10 
191 1 0.023885 0.0192973 0.00691895 0.00540161 -0.000975369 0.000178737 -1.22138e-10 -5.45711e-11 -1.72441e-12 5e-05 1.46608e-10 
192 1 0.0182041 0.0195342 0.00694739 0.00500734 -0.00360672 -0.000710354 -5.81312e-10 2.5347e-10 6.703e-11 5e-05 1.46608e-10 
193 1 0.0235972 0.0170465 0.00730545 0.00542139 -0.00089243 0.00059928 8.88233e-11 -1.1547e-10 3.04632e-11 5e-05 1.46608e-10 
194 1 0.0183864 0.0188505 0.00686882 -1.92012e-15 2.50466e-15 -2.62516e-14 -2.71419e-25 -3.10193e-25 0 5e-05 1.46608e-10 
195 1 0.0191484 0.0191252 0.0068393 -1.92001e-15 2.50451e-15 -2.62517e-14 -1.52511e-24 -1.44757e-24 0 5e-05 1.46608e-10 
196 1 0.0175158 0.0174974 0.00722297 0.00504754 -0.00306463 0.00127129 1.18562e-10 4.80816e-10 -2.48996e-10 5e-05 1.46608e-10 
197 1 0.0183463 0.023875 0.0116032 -0.00549446 -0.00117623 -0.00957216 -8.42802e-08 5.51798e-08 2.88379e-07 5e-05 1.46608e-10 
198 1 0.0178835 0.0192855 0.0069471 0.00450025 -0.00292727 -0.000608775 -4.96003e-10 2.54852e-10 7.63152e-11 5e-05 1.46608e-10 
199 1 0.0183548 0.0198685 0.00696826 0.00407145 -0.0003074 -0.000326999 -6.0538e-10 -8.16336e-11 3.5074e-11 5e-05 1.46608e-10 
200 1 0.0180357 0.0193218 0.00693944 0.00391557 -0.0039513 -0.000664187 5.23966e-10 -2.50672e-10 -4.5611e-11 5e-05 1.46608e-10 
201 1 0.0210177 0.0208286 0.00743004 -0.023976 -0.122292 -0.0389687 0 0 -1.43822e-09 5e-05 1.46608e-10 
202 1 0.0185486 0.0194632 0.00691542 -1.92045e-15 2.50474e-15 -2.62516e-14 1.22009e-23 6.30725e-24 -2.06795e-25 5e-05 1.46608e-10 
203 1 0.0238413 0.0173205 0.00730778 0.00550896 -0.00112584 0.000206161 4.13995e-11 -2.12425e-10 3.24915e-11 5e-05 1.46608e-10 
204 1 0.0180501 0.0192234 0.006929 0.00169054 -0.00429161 -0.000533079 6.58782e-10 -1.99881e-09 -2.46905e-10 5e-05 1.46608e-10 
205 1 0.0196665 0.0190536 0.00685252 -7.45698e-15 3.50334e-14 2.14188e-13 9.82277e-25 1.55096e-25 0 5e-05 1.46608e-10 
206 1 0.0187558 0.0195859 0.00691197 -1.91997e-15 2.50479e-15 -2.62516e-14 3.74816e-25 1.18907e-24 2.06795e-25 5e-05 1.46608e-10 
207 1 0.0178 0.0184365 0.00688847 0.00496475 -0.00323214 0.000708445 -5.10372e-10 1.27175e-10 -3.64664e-10 5e-05 1.46608e-10 
208 1 0.018384 0.0197734 0.00695705 0.00540951 -0.000204585 -0.000415214 -6.07865e-10 -1.09168e-10 3.44119e-11 5e-05 1.46608e-10 
209 1 0.0180862 0.0187632 0.00688245 -1.91678e-15 2.50679e-15 -2.62517e-14 6.07461e-25 1.62334e-23 1.24077e-24 5e-05 1.46608e-10 
210 1 0.0235213 0.0175274 0.00728459 0.00551942 -0.00105022 0.000184985 -4.61714e-11 -9.41712e-11 1.56053e-11 5e-05 1.46608e-10 
211 1 0.0238994 0.0184887 0.00704474 0.00522232 -0.00105327 0.000189886 -5.70909e-11 1.9531e-10 -3.30389e-11 5e-05 1.46608e-10 
212 1 0.0191355 0.0192248 0.00684974 2.03104e-14 -2.64942e-14 2.77687e-13 0 2.58494e-26 0 5e-05 1.46608e-10 
213 1 0.0236951 0.0170761 0.00728398 0.00555096 -0.00078611 0.00052257 -9.02095e-11 1.77932e-10 -1.71255e-10 5e-05 1.46608e-10 
214 1 0.0238242 0.0185538 0.00703425 0.00525397 -0.00102434 0.000185343 -1.97255e-10 -7.99848e-11 9.58172e-12 5e-05 1.46608e-10 
215 1 0.0176122 0.0238475 0.0115536 1.82317e-05 0.000175325 -0.000156288 2.0445e-11 1.14877e-11 -1.10336e-11 5e-05 1.46608e-10 
216 1 0.0193699 0.0191379 0.0068284 2.96102e-15 -1.39093e-14 -8.50386e-14 2.36522e-24 8.27181e-25 0 5e-05 1.46608e-10 
217 1 0.0235589 0.0168864 0.00741892 0.00551681 -0.000872048 0.000582175 -2.20309e-11 3.44406e-12 -1.07082e-11 5e-05 1.46608e-10 
218 1 0.020139 0.0191474 0.0068521 -3.9756e-15 2.47093e-14 1.44604e-13 1.30539e-24 1.03398e-25 -2.06795e-25 5e-05 1.46608e-10 
219 1 0.0238266 0.0190064 0.00696388 0.0053523 -0.000969926 0.000176862 -1.67493e-11 -6.87433e-11 2.25947e-11 5e-05 1.46608e-10 
220 1 0.0182753 0.0199282 0.00697976 0.0044717 0.000248934 -0.000304046 -6.06748e-10 -1.74564e-10 2.58384e-11 5e-05 1.46608e-10 
221 1 0.0173678 0.0238497 0.0115575 2.54679e-06 0.000186137 -0.000165435 2.21058e-13 1.16151e-11 -1.08306e-11 5e-05 1.46608e-10 
222 1 0.023579 0.0169663 0.00736228 0.00545609 -0.000881967 0.000590808 3.3951e-10 -9.38159e-11 1.3702e-10 5e-05 1.46608e-10 
223 1 0.0182734 0.0196063 0.0069492 0.00199445 -0.000720176 -0.000214589 -4.5516e-10 1.31558e-10 4.58136e-11 5e-05 1.46608e-10 
224 1 0.0179573 0.0196245 0.00697406 0.00490461 -0.00339619 -0.000681068 6.1348e-10 -3.34054e-09 -3.31249e-10 5e-05 1.46608e-10 
225 1 0.0238927 0.0175877 0.0071848 0.00556067 -0.00108251 0.000196141 9.28582e-11 6.51218e-11 -1.67952e-11 5e-05 1.46608e-10 
226 1 0.0189662 0.0191833 0.00685817 -1.91921e-15 2.50544e-15 -2.62516e-14 -4.30392e-24 -3.05023e-24 2.06795e-25 5e-05 1.46608e-10 
227 1 0.0144149 0.0167428 0.0157347 -0.00217919 -0.0102939 -0.00551874 1.12241e-11 -4.83394e-11 2.78449e-11 5e-05 1.46608e-10 
228 1 0.0175027 0.0238485 0.0115554 2.45011e-06 0.000180286 -0.000160179 1.94979e-13 1.16259e-11 -1.0786e-11 5e-05 1.46608e-10 
229 1 0.0161789 0.0169139 0.0186382 0 -0 -0.03 0 0 0 5e-05 1.46608e-10 
230 1 0.0204471 0.0190937 0.00686975 -3.97541e-15 2.47093e-14 1.44604e-13 1.42172e-24 -1.55096e-25 0 5e-05 1.46608e-10 
231 1 0.0179412 0.0238571 0.0115708 -0.00336368 0.000201451 -0.00121098 2.15026e-07 1.02083e-08 1.91746e-08 5e-05 1.46608e-10 
232 1 0.0178873 0.0181889 0.00693201 0.0037381 -0.00319711 0.00065307 -5.82983e-10 6.85799e-10 -1.3256e-10 5e-05 1.46608e-10 
233 1 0.0182313 0.0190554 0.00689972 -1.91993e-15 2.50477e-15 -2.62516e-14 2.36522e-24 1.49926e-24 0 5e-05 1.46608e-10 
234 1 0.0219374 0.0168761 0.0209327 0 -0 -0.03 0 0 0 5e-05 1.46608e-10 
235 1 0.0236592 0.0226202 0.0147272 -0.000141145 0.0677326 -0.0681972 8.91041e-12 2.97975e-10 -4.9091e-10 5e-05 1.46608e-10 
236 1 0.0218135 0.0212992 0.0148576 -2.44365e-05 0.048784 -0.0179944 0 0 -1.43822e-09 5e-05 1.46608e-10 
237 1 0.022659 0.0212241 0.0148578 4.51593e-06 0.0225532 -0.0144048 1.4297e-13 6.34587e-11 -6.52697e-11 5e-05 1.46608e-10 
238 1 0.0180577 0.0241048 0.012109 0.000142102 -0.0379206 0.010867 0 0 -1.43822e-09 5e-05 1.46608e-10 
239 1 0.0149544 0.0198938 0.0154121 -7.25096e-11 0.0236038 -0.00510097 -1.06923e-20 -4.526e-12 -2.08599e-11 5e-05 1.46608e-10 
240 1 0.015389 0.023304 0.010464 -0.0043557 -0.0322846 0.0211918 0 0 -1.43822e-09 5e-05 1.46608e-10 
241 1 0.014703 0.0210274 0.00751097 -0.000455503 -0.0479508 0.0130735 0 0 -1.43822e-09 5e-05 1.46608e-10 
242 1 0.0179834 0.0239462 0.0119358 -0.000418065 -0.102884 -0.0107338 0 0 -1.43822e-09 5e-05 1.46608e-10 
243 1 0.0174002 0.0169086 0.00796245 0.0215151 0.0801294 -0.0455786 0 0 -1.43822e-09 5e-05 1.46608e-10 
244 1 0.0151739 0.0201441 0.0206931 0 -0 -0.03 0 0 0 5e-05 1.46608e-10 
245 1 0.0189893 0.023451 0.0196348 0 -0 -0.03 0 0 0 5e-05 1.46608e-10 
246 1 0.0156334 0.019327 0.0241138 0 -0 -0.03 0 0 0 5e-05 1.46608e-10 
247 1 0.0212006 0.0153929 0.0154506 0 0 -0.243706 0 0 -1.43822e-09 5e-05 1.46608e-10 
248 1 0.0204488 0.0161305 0.0224743 0 -0 -0.03 0 0 0 5e-05 1.46608e-10 
249 1 0.0185182 0.0203902 0.0161348 -1.93855e-06 0.0295326 -0.0264608 0 0 -1.43822e-09 5e-05 1.46608e-10 