ITEM: TIMESTEP
12200000
ITEM: NUMBER OF ATOMS
287
ITEM: BOX BOUNDS ff ff ff
-0.02 0.43
-0.02 0.06
-0.02 0.07
ITEM: ATOMS id type x y z vx vy vz fx fy fz radius mass 
1 1 0.0839905 0.0164324 0.00771443 0.00562615 0.000113373 -0.00036865 -1.15633e-10 1.12715e-10 -3.69821e-11 5e-05 1.46608e-10 
2 1 0.0844165 0.0174847 0.00724731 0.00611556 8.73749e-05 -6.66749e-05 4.19936e-11 -3.17841e-11 1.30371e-11 5e-05 1.46608e-10 
3 1 0.0777521 0.0158332 0.00817245 0.00567814 -3.00821e-05 -2.01487e-05 3.05756e-10 -7.67469e-11 2.55228e-10 5e-05 1.46608e-10 
4 1 0.0843128 0.0178762 0.00710399 0.00627417 6.84653e-05 -6.32161e-05 -8.14124e-11 2.25694e-11 -7.32118e-11 5e-05 1.46608e-10 
5 1 0.0838765 0.0163169 0.00777466 0.00562873 0.000136198 -0.000332962 1.90315e-11 -3.46372e-10 -5.24476e-10 5e-05 1.46608e-10 
6 1 0.0899773 0.0167673 0.0075515 0.00549778 -0.000494978 -6.29155e-05 -1.03891e-12 5.78155e-11 -3.2672e-11 5e-05 1.46608e-10 
7 1 0.0840558 0.0171242 0.00741768 0.00599976 5.15174e-05 -0.000358369 -5.33891e-12 -7.1419e-11 1.93458e-11 5e-05 1.46608e-10 
8 1 0.08378 0.0159477 0.00808958 0.00568152 0.000253906 2.48939e-05 1.18478e-11 -7.01738e-11 5.95077e-11 5e-05 1.46608e-10 
9 1 0.0902471 0.0179089 0.00699348 0.00615298 -0.000595409 9.16551e-05 -2.96652e-11 -1.17047e-10 4.20292e-12 5e-05 1.46608e-10 
10 1 0.0839935 0.0168548 0.00753529 0.00559954 0.000125463 -0.000366403 5.78905e-11 6.16035e-11 -3.3871e-11 5e-05 1.46608e-10 
11 1 0.0844647 0.0176838 0.00717388 0.00620562 -2.45638e-05 -2.81359e-05 -1.12351e-10 -6.95851e-11 4.29812e-11 5e-05 1.46608e-10 
12 1 0.0779455 0.0166325 0.00762233 0.00559088 8.4775e-06 1.13894e-05 -1.1486e-11 7.5563e-11 -4.49743e-11 5e-05 1.46608e-10 
13 1 0.0838569 0.016232 0.00782379 0.00564576 0.000210016 -0.000194862 -3.04444e-10 -3.67996e-10 -5.7301e-10 5e-05 1.46608e-10 
14 1 0.0776757 0.0156227 0.00850368 0.00575509 -4.63547e-05 9.95092e-06 2.007e-11 -1.48596e-10 2.57309e-10 5e-05 1.46608e-10 
15 1 0.0841945 0.0173301 0.00732263 0.00607498 2.25715e-05 -0.000351371 -4.14009e-11 -6.17445e-11 -4.66374e-11 5e-05 1.46608e-10 
16 1 0.0776562 0.0155701 0.00858646 0.00563852 -3.55815e-05 -8.5474e-06 1.48961e-10 -2.34287e-10 3.61621e-10 5e-05 1.46608e-10 
17 1 0.083974 0.0167649 0.00757448 0.00561242 0.000102606 -0.000358694 8.33329e-12 4.45254e-11 -2.23924e-11 5e-05 1.46608e-10 
18 1 0.0901188 0.0173799 0.00724385 0.0059743 -0.000628008 -2.39684e-05 6.46308e-11 3.25026e-11 8.71883e-13 5e-05 1.46608e-10 
19 1 0.0838374 0.0161471 0.00787286 0.00566459 0.000285353 -3.15475e-05 -3.83283e-10 5.45348e-11 -1.30052e-10 5e-05 1.46608e-10 
21 1 0.0839708 0.0163425 0.00775362 0.00562754 8.94096e-05 -0.000393875 -1.31513e-10 -1.37254e-11 -3.62037e-10 5e-05 1.46608e-10 
22 1 0.0840985 0.0173033 0.00733938 0.0060551 5.06307e-05 -0.000361289 -3.42962e-11 -6.18077e-11 2.29871e-11 5e-05 1.46608e-10 
23 1 0.0781194 0.0170002 0.00741098 0.00576631 -5.73802e-05 8.4141e-05 -2.04943e-10 2.23793e-10 -1.08498e-10 5e-05 1.46608e-10 
24 1 0.0901831 0.0176417 0.00711218 0.006098 -0.00063584 -2.91823e-05 1.29773e-10 -6.83612e-13 -3.252e-12 5e-05 1.46608e-10 
25 1 0.0840345 0.0170346 0.00745681 0.00597935 5.40565e-05 -0.000358481 2.82776e-11 2.87333e-11 -1.01649e-11 5e-05 1.46608e-10 
26 1 0.0900559 0.0171178 0.00737559 0.00569408 -0.000526435 -5.8359e-05 -2.36806e-11 3.23176e-11 -1.63439e-11 5e-05 1.46608e-10 
27 1 0.0780241 0.0169725 0.00742665 0.00558771 3.6784e-05 -6.0403e-06 -1.01961e-10 7.58992e-11 2.21753e-11 5e-05 1.46608e-10 
28 1 0.0842967 0.0177838 0.00713863 0.00625443 6.51444e-05 -6.33482e-05 -9.56529e-11 -3.01995e-11 -8.4122e-11 5e-05 1.46608e-10 
29 1 0.0838185 0.0160806 0.00794514 0.00576909 0.000273053 9.86899e-06 5.08109e-11 1.58971e-10 -5.83727e-11 5e-05 1.46608e-10 
30 1 0.0843329 0.0175364 0.00722879 0.00612271 9.41326e-05 -6.9279e-05 5.45267e-11 -4.71102e-11 -1.16115e-11 5e-05 1.46608e-10 
31 1 0.0840771 0.0172137 0.00737856 0.00602858 5.10906e-05 -0.00035969 -1.97378e-11 -9.70072e-11 3.49544e-11 5e-05 1.46608e-10 
32 1 0.0841731 0.0172406 0.00736176 0.00604972 3.11378e-05 -0.000352605 -4.79329e-11 -3.89705e-11 1.84182e-11 5e-05 1.46608e-10 
33 1 0.089997 0.0168549 0.00750752 0.00549341 -0.000488254 -6.57017e-05 4.82592e-12 -3.64711e-11 2.35654e-11 5e-05 1.46608e-10 
34 1 0.0839543 0.0166746 0.00761383 0.00562497 0.000114501 -0.000363478 1.22748e-11 1.30321e-10 -6.1387e-11 5e-05 1.46608e-10 
35 1 0.0841518 0.0171511 0.00740088 0.00601753 4.05895e-05 -0.000355375 3.00808e-11 -5.39346e-11 5.85411e-11 5e-05 1.46608e-10 
36 1 0.0902875 0.0181008 0.00698415 0.00612638 -0.000555004 0.000282067 -2.46186e-11 -7.12672e-11 1.23262e-10 5e-05 1.46608e-10 
37 1 0.0841092 0.0169721 0.00747914 0.00598925 5.74529e-05 -0.000360485 -6.49623e-11 -4.00501e-11 1.95267e-11 5e-05 1.46608e-10 
38 1 0.0842692 0.0172673 0.00734506 0.00605453 4.46694e-06 -0.000336761 -1.10679e-11 7.76367e-11 1.96641e-10 5e-05 1.46608e-10 
39 1 0.0902028 0.0177293 0.00706821 0.00610369 -0.000645286 -2.24545e-05 5.53453e-10 -4.23437e-12 4.96432e-11 5e-05 1.46608e-10 
41 1 0.0839153 0.0164948 0.00769221 0.00563216 0.000113705 -0.000368145 -9.87533e-11 1.13773e-10 -3.91666e-12 5e-05 1.46608e-10 
42 1 0.0841198 0.0173929 0.00730025 0.00607849 4.26549e-05 -0.00035918 -3.95079e-12 -4.14762e-11 2.46772e-11 5e-05 1.46608e-10 
44 1 0.0842903 0.0173569 0.00730593 0.00607493 -6.84411e-07 -0.000340006 -4.94107e-11 2.92337e-11 1.38902e-10 5e-05 1.46608e-10 
45 1 0.0900166 0.0169425 0.00746354 0.00549169 -0.000482704 -6.89418e-05 -2.20184e-11 -2.05234e-11 9.04292e-12 5e-05 1.46608e-10 
46 1 0.0900979 0.0172925 0.00728776 0.00596004 -0.00061159 -3.11468e-05 1.14466e-10 -3.40334e-11 3.39754e-11 5e-05 1.46608e-10 
47 1 0.0839348 0.0165847 0.00765302 0.00563787 0.000112753 -0.000364628 1.7806e-11 7.48965e-11 -4.61461e-11 5e-05 1.46608e-10 
48 1 0.0841624 0.0175719 0.0072221 0.00613364 2.94615e-05 -0.000327073 2.826e-11 1.82331e-10 5.69033e-10 5e-05 1.46608e-10 
49 1 0.0900769 0.0172052 0.00733168 0.00592241 -0.000584311 -4.23923e-05 -9.1239e-11 -3.56328e-11 3.00032e-11 5e-05 1.46608e-10 
50 1 0.0842273 0.0178549 0.00715127 0.00613501 8.44478e-06 -0.00037701 -1.09633e-12 -4.8548e-12 -1.26543e-10 5e-05 1.46608e-10 
51 1 0.0842056 0.0177596 0.0071723 0.00614126 3.92053e-05 -0.000309104 1.63948e-11 8.13935e-11 6.0209e-11 5e-05 1.46608e-10 
52 1 0.0779259 0.0165475 0.00767124 0.00559142 1.28417e-05 8.66845e-06 1.27531e-11 7.45052e-11 -3.36843e-11 5e-05 1.46608e-10 
53 1 0.0901398 0.0174672 0.00719994 0.00597562 -0.000619689 -2.78133e-05 -1.40605e-10 6.10647e-11 -3.1816e-11 5e-05 1.46608e-10 
54 1 0.0839507 0.0162524 0.00779293 0.00556696 6.74571e-05 -0.00034913 -3.49241e-11 -1.39382e-10 4.55123e-11 5e-05 1.46608e-10 
55 1 0.0777147 0.0157279 0.00833814 0.00570224 -3.61726e-05 -1.24458e-05 -1.34626e-10 -1.32802e-10 1.6887e-10 5e-05 1.46608e-10 
56 1 0.0841305 0.0170616 0.00744001 0.00599542 5.08963e-05 -0.000357895 7.60762e-11 -6.67852e-11 2.26469e-11 5e-05 1.46608e-10 
57 1 0.0900363 0.0170302 0.00741957 0.00548389 -0.000481517 -6.84936e-05 3.91214e-11 4.14074e-11 -2.47848e-11 5e-05 1.46608e-10 
59 1 0.0841842 0.0169092 0.00750158 0.00582202 6.04341e-05 -0.000353712 -3.51723e-12 -2.66755e-11 -7.66577e-11 5e-05 1.46608e-10 
60 1 0.0842051 0.0169988 0.00746244 0.00593334 3.34239e-05 -0.00034528 7.39179e-11 -5.80365e-11 -7.66324e-11 5e-05 1.46608e-10 
61 1 0.0838959 0.0164049 0.00773143 0.00562915 0.000113622 -0.000372256 -6.8306e-11 2.20085e-11 3.74784e-11 5e-05 1.46608e-10 
62 1 0.0843116 0.0174464 0.0072668 0.00609974 -9.71932e-06 -0.000339156 -2.58382e-11 -2.23177e-11 3.76918e-13 5e-05 1.46608e-10 
63 1 0.0842587 0.0175997 0.007207 0.00613985 8.92208e-05 -0.000123721 1.26142e-11 -4.66313e-11 -1.7497e-12 5e-05 1.46608e-10 
64 1 0.0901608 0.0175546 0.00715603 0.00603781 -0.00062406 -3.02633e-05 -3.01062e-10 -3.30499e-11 -1.76995e-11 5e-05 1.46608e-10 
65 1 0.0780402 0.0166604 0.00760656 0.00559183 -7.4918e-07 1.6425e-05 -1.59549e-10 1.08442e-10 -5.60749e-11 5e-05 1.46608e-10 
66 1 0.0779814 0.0164054 0.0077533 0.00558949 7.21978e-07 1.57109e-05 -3.6381e-11 1.58343e-10 -8.60642e-11 5e-05 1.46608e-10 
67 1 0.0844454 0.0175897 0.00720856 0.00614748 2.50129e-05 -4.35892e-05 -3.59642e-11 -1.38069e-10 1.34951e-11 5e-05 1.46608e-10 
68 1 0.0843744 0.0177244 0.00715946 0.00623038 3.15831e-05 -4.20792e-05 -4.24537e-11 -7.80282e-11 4.05514e-11 5e-05 1.46608e-10 
69 1 0.0840489 0.0167024 0.00759679 0.00561981 0.000120755 -0.00036702 1.64703e-11 1.34978e-10 -3.83905e-11 5e-05 1.46608e-10 
70 1 0.0902238 0.0178166 0.00702429 0.00613665 -0.000642464 -1.89834e-05 4.96664e-11 -1.91422e-10 5.81356e-12 5e-05 1.46608e-10 
71 1 0.0776947 0.0156753 0.00842084 0.00577464 -4.37932e-05 6.67072e-06 -2.12299e-11 -1.25695e-10 1.82117e-10 5e-05 1.46608e-10 
72 1 0.0843557 0.0176313 0.00719377 0.00614832 3.43941e-05 -4.91242e-05 -5.28413e-11 -1.53493e-12 2.60481e-11 5e-05 1.46608e-10 
73 1 0.0840132 0.0169451 0.00749594 0.00608281 -0.000209552 -0.000257883 -9.39917e-10 3.01719e-10 -4.23081e-10 5e-05 1.46608e-10 
74 1 0.0842158 0.0174197 0.00728351 0.00609564 1.49087e-05 -0.000349867 -4.22403e-11 -9.78573e-11 -1.75245e-10 5e-05 1.46608e-10 
76 1 0.0782435 0.0175064 0.00711089 0.00621175 -0.000251653 0.000304832 -2.55167e-11 9.05032e-11 -1.14814e-10 5e-05 1.46608e-10 
77 1 0.0844626 0.0185062 0.00687155 0.00569555 0.000154785 -8.77786e-05 1.50819e-10 9.61511e-11 -2.15725e-11 5e-05 1.46608e-10 
78 1 0.077769 0.0158875 0.00809021 0.00569251 -1.84506e-05 -1.11546e-05 6.86319e-11 1.35724e-10 2.39572e-10 5e-05 1.46608e-10 
79 1 0.0779652 0.0167175 0.00757342 0.00558465 -4.63561e-06 1.9065e-05 -4.04135e-11 1.29729e-10 -6.86616e-11 5e-05 1.46608e-10 
80 1 0.0842743 0.0180468 0.00704148 0.00624273 8.33915e-05 -6.40253e-05 -5.49575e-12 1.33312e-10 -5.42861e-11 5e-05 1.46608e-10 
81 1 0.0779062 0.0164625 0.00772016 0.00560822 9.78675e-06 1.12582e-05 -6.88688e-11 1.30874e-10 -7.28022e-11 5e-05 1.46608e-10 
82 1 0.0780438 0.0170571 0.00737709 0.00558586 8.59732e-05 8.74287e-05 2.50476e-10 -1.12934e-10 2.84699e-11 5e-05 1.46608e-10 
83 1 0.0780604 0.0163054 0.00781116 0.00550072 -1.98474e-05 2.74237e-05 -3.95749e-11 3.97871e-11 -2.00615e-11 5e-05 1.46608e-10 
84 1 0.090267 0.018004 0.00696991 0.00616972 -0.000559035 0.000276633 1.21563e-11 -2.14526e-11 5.31873e-11 5e-05 1.46608e-10 
85 1 0.0778644 0.0159041 0.00805982 0.00570944 -2.44717e-05 -3.44504e-05 -2.12702e-10 8.50502e-11 3.53505e-12 5e-05 1.46608e-10 
86 1 0.0842787 0.0176913 0.00717214 0.00617425 7.09752e-05 -6.9371e-05 -1.0028e-10 -1.93402e-11 -3.14826e-11 5e-05 1.46608e-10 
87 1 0.0841637 0.0168195 0.00754073 0.00569416 9.31116e-05 -0.000356932 1.81967e-11 2.57173e-11 4.94276e-12 5e-05 1.46608e-10 
88 1 0.0843301 0.0182847 0.00695373 0.0059409 0.000101269 -6.49405e-05 -1.77653e-10 9.58784e-11 1.43138e-11 5e-05 1.46608e-10 
89 1 0.0842958 0.0181385 0.00700768 0.00624829 7.92735e-05 -6.26695e-05 7.88849e-11 1.83416e-10 -4.09524e-11 5e-05 1.46608e-10 
90 1 0.084393 0.0173915 0.0072855 0.00609108 -1.82147e-05 -0.000333067 4.00481e-11 4.07208e-11 -5.19232e-11 5e-05 1.46608e-10 
91 1 0.0779848 0.0168025 0.0075245 0.00558107 -1.27529e-05 2.36743e-05 9.93086e-11 2.20979e-10 -1.36448e-10 5e-05 1.46608e-10 
92 1 0.0844279 0.0179863 0.00706289 0.00626065 0.0001293 -8.28922e-05 -9.03836e-11 3.82777e-11 -2.37639e-11 5e-05 1.46608e-10 
93 1 0.0844098 0.0182278 0.0069742 0.00607134 0.000247977 -0.000125426 3.90467e-12 2.68455e-10 -5.94326e-11 5e-05 1.46608e-10 
94 1 0.0845053 0.0182604 0.00696167 0.0058245 0.000219779 -0.000113723 2.12366e-10 -1.91119e-12 -2.9983e-12 5e-05 1.46608e-10 
95 1 0.084282 0.0180468 0.00714117 0.00623912 7.50803e-05 -5.86249e-05 2.41152e-11 2.73955e-10 -4.2446e-11 5e-05 1.46608e-10 
96 1 0.0844722 0.0180711 0.00703145 0.00624647 0.000212847 -0.00011379 -3.61455e-11 1.67113e-10 -7.59582e-11 5e-05 1.46608e-10 
97 1 0.0778672 0.0162926 0.00781801 0.00556624 8.93862e-06 1.02913e-05 8.6049e-11 1.57926e-10 -5.19491e-11 5e-05 1.46608e-10 
98 1 0.0843483 0.0183769 0.00691971 0.00574827 0.000140216 -7.88567e-05 -2.04074e-10 -5.68036e-11 7.71208e-11 5e-05 1.46608e-10 
99 1 0.0780206 0.0165754 0.00765547 0.00559241 2.5742e-06 1.49477e-05 -4.9498e-11 1.47672e-10 -7.9304e-11 5e-05 1.46608e-10 
100 1 0.0843477 0.0172089 0.00736542 0.006045 -1.29237e-05 -0.000332089 -8.11795e-12 -4.68553e-11 -1.33462e-10 5e-05 1.46608e-10 
101 1 0.0779619 0.0163204 0.00780223 0.00557395 9.25084e-07 1.55675e-05 6.89716e-11 1.89231e-10 -1.06239e-10 5e-05 1.46608e-10 
102 1 0.0643568 0.0187248 0.00531097 4.16238e-15 1.05281e-14 8.29615e-14 3.21351e-21 -7.79049e-22 -6.22453e-23 5e-05 1.46608e-10 
103 1 0.24257 0.0191927 0.00520306 -1.3037e-23 -1.27651e-22 -5.81428e-22 0 0 0 5e-05 1.46608e-10 
104 1 0.0782989 0.0173376 0.00727232 0.00614853 -0.000150276 0.000156012 6.34587e-11 -4.06302e-11 1.37328e-13 5e-05 1.46608e-10 
105 1 0.0778283 0.0161225 0.00791589 0.00559112 1.17377e-06 1.32574e-05 3.49908e-10 -6.22419e-11 1.08831e-11 5e-05 1.46608e-10 
106 1 0.0783807 0.0172859 0.00724704 0.00611027 -0.000171303 0.000114214 -3.17761e-10 -1.76209e-10 -5.89195e-11 5e-05 1.46608e-10 
107 1 0.077789 0.0159582 0.00802232 0.00569569 -1.11645e-05 1.07066e-05 -1.02011e-10 1.46233e-10 2.87632e-10 5e-05 1.46608e-10 
108 1 0.0840881 0.0168825 0.00751827 0.00554937 0.000156718 -0.000377662 -2.9698e-10 8.5567e-11 -2.13516e-11 5e-05 1.46608e-10 
109 1 0.0841839 0.0176631 0.00718699 0.0061512 8.79718e-05 -0.000152041 -2.6231e-11 -4.20377e-11 4.68004e-12 5e-05 1.46608e-10 
110 1 0.0845846 0.0182031 0.00698229 0.00596782 0.000289424 -0.000139648 -2.70425e-10 -5.84417e-11 2.58701e-11 5e-05 1.46608e-10 
111 1 0.0843879 0.0185657 0.00690138 0.00577053 0.000152694 8.20473e-05 2.40129e-10 -2.62993e-11 1.17336e-10 5e-05 1.46608e-10 
112 1 0.0778867 0.0163776 0.00776908 0.00560011 6.19163e-06 1.19625e-05 -4.71712e-11 1.49001e-10 -1.14691e-10 5e-05 1.46608e-10 
113 1 0.0786765 0.0177597 0.00701448 0.00651421 -0.00015474 -0.000363634 2.12502e-10 -2.62995e-10 1.83901e-10 5e-05 1.46608e-10 
114 1 0.0782384 0.0170702 0.00737144 0.00596185 -0.000175748 -1.42598e-05 -5.06557e-11 -1.27652e-10 -2.64075e-10 5e-05 1.46608e-10 
115 1 0.084237 0.0175092 0.00724438 0.00611974 9.55298e-06 -0.000340565 5.31522e-11 -1.05146e-11 5.66377e-11 5e-05 1.46608e-10 
116 1 0.0840686 0.0167926 0.00755746 0.00560287 0.000142336 -0.000374839 1.73095e-11 -2.60359e-11 7.20346e-12 5e-05 1.46608e-10 
117 1 0.0839319 0.0161716 0.00785089 0.00572567 0.000337883 -4.83462e-05 -2.48853e-10 2.08528e-10 -4.16769e-10 5e-05 1.46608e-10 
118 1 0.0777331 0.0157837 0.00825723 0.00564797 -3.32673e-05 -2.87003e-05 1.24417e-10 -9.90199e-11 2.00639e-10 5e-05 1.46608e-10 
119 1 0.0842264 0.0170883 0.00742331 0.0059968 1.87056e-05 -0.000342935 7.86536e-11 -5.17166e-11 -2.4377e-11 5e-05 1.46608e-10 
120 1 0.0837993 0.0160142 0.00801736 0.0057312 0.00025799 2.22244e-05 -2.26211e-10 -9.55594e-12 -3.72039e-11 5e-05 1.46608e-10 
121 1 0.0837608 0.0158813 0.00816181 0.00565096 0.000253116 2.41923e-05 6.84518e-11 1.08722e-10 -1.19398e-10 5e-05 1.46608e-10 
122 1 0.0845993 0.0182959 0.00694808 0.00587888 0.000295406 -0.000140463 -2.52952e-10 -1.68573e-10 6.46534e-11 5e-05 1.46608e-10 
123 1 0.0779034 0.0160654 0.00794901 0.00560772 1.57151e-05 8.18041e-06 5.85811e-10 -4.03445e-12 -7.55629e-11 5e-05 1.46608e-10 
124 1 0.0843725 0.0180645 0.00703444 0.00624259 0.00010127 -7.23635e-05 -1.30055e-11 6.07412e-11 -2.51272e-11 5e-05 1.46608e-10 
125 1 0.083913 0.0161051 0.00792317 0.00573992 0.000324873 -5.38619e-05 -1.17266e-10 2.3031e-10 -2.05734e-10 5e-05 1.46608e-10 
126 1 0.0841411 0.0174824 0.00726113 0.00610148 3.24748e-05 -0.000358269 -3.69491e-12 -4.80143e-11 1.81914e-11 5e-05 1.46608e-10 
127 1 0.0778477 0.0162076 0.00786694 0.00556911 6.60559e-06 1.60489e-05 2.78051e-10 4.4359e-11 -2.49214e-11 5e-05 1.46608e-10 
128 1 0.0842491 0.0179496 0.00712763 0.00614115 3.39827e-05 -0.000248513 -3.78553e-11 -1.03923e-10 -1.7168e-10 5e-05 1.46608e-10 
129 1 0.0843179 0.0182313 0.00703742 0.00620312 7.89273e-05 -3.3263e-05 1.27422e-10 1.14665e-10 -4.96358e-11 5e-05 1.46608e-10 
130 1 0.0781399 0.017085 0.00736224 0.00596475 -5.78951e-05 0.000151378 -1.9092e-11 1.75648e-10 -1.28512e-10 5e-05 1.46608e-10 
131 1 0.078001 0.0164904 0.00770438 0.00559387 1.55187e-06 1.49733e-05 -3.84644e-11 1.50957e-10 -8.88492e-11 5e-05 1.46608e-10 
132 1 0.0843297 0.0179694 0.00707193 0.00625854 7.62263e-05 -6.20401e-05 -4.51649e-11 8.8813e-11 -3.52915e-11 5e-05 1.46608e-10 
133 1 0.0840851 0.0164599 0.00769746 0.00563004 0.000104501 -0.000360673 -8.73617e-11 -2.60032e-12 -4.12172e-11 5e-05 1.46608e-10 
134 1 0.0842477 0.0171778 0.00738418 0.00602867 6.30325e-06 -0.000348559 -6.59447e-11 -4.22606e-11 -2.64745e-11 5e-05 1.46608e-10 
135 1 0.0838941 0.0160387 0.00799545 0.00574666 0.000277918 1.53426e-06 1.62386e-10 5.42816e-11 -6.04762e-11 5e-05 1.46608e-10 
136 1 0.077846 0.0158514 0.00814278 0.00568371 -1.80519e-05 -3.54678e-05 -2.27711e-11 -5.0474e-11 7.07933e-11 5e-05 1.46608e-10 
137 1 0.0844068 0.0186629 0.0068875 0.00581498 0.000146258 0.000124804 8.52077e-12 3.26823e-11 4.54094e-11 5e-05 1.46608e-10 
138 1 0.0840294 0.0166124 0.00763601 0.00564263 0.000105455 -0.000360857 6.52052e-11 -3.07383e-11 -2.05768e-11 5e-05 1.46608e-10 
140 1 0.0845405 0.0184473 0.00689276 0.00572977 0.00020866 -0.000109376 -1.65417e-11 5.57119e-11 8.47621e-12 5e-05 1.46608e-10 
141 1 0.0778836 0.0159803 0.00799798 0.00572997 -5.23489e-06 1.79835e-05 -3.10358e-10 -1.23155e-11 -4.20884e-11 5e-05 1.46608e-10 
142 1 0.0782587 0.0171549 0.00732224 0.00610534 -0.000197245 1.82995e-06 -1.03088e-10 -1.48154e-10 -2.86149e-10 5e-05 1.46608e-10 
143 1 0.0778086 0.0160376 0.00796478 0.0057211 -1.6459e-05 2.38311e-05 -8.74986e-11 3.16645e-11 1.6248e-10 5e-05 1.46608e-10 
144 1 0.078218 0.0169854 0.00742028 0.00578454 -0.000123236 1.27821e-05 -1.98276e-10 -3.61071e-11 -6.3038e-11 5e-05 1.46608e-10 
146 1 0.0780799 0.0163904 0.00776222 0.0055804 -3.32226e-05 3.54035e-05 -7.8874e-11 3.84683e-11 -3.01403e-11 5e-05 1.46608e-10 
147 1 0.0778292 0.0157985 0.00822597 0.00565476 -9.75255e-06 -4.58533e-05 2.93129e-10 -5.33219e-11 4.97457e-11 5e-05 1.46608e-10 
148 1 0.078106 0.017309 0.00722657 0.00617776 -3.61844e-05 0.000179464 6.93184e-11 -1.53013e-10 1.69995e-10 5e-05 1.46608e-10 
149 1 0.0845216 0.0183552 0.00692673 0.00580611 0.00021157 -0.000103644 -3.37743e-11 2.8796e-11 -1.61695e-11 5e-05 1.46608e-10 
150 1 0.0781191 0.0165604 0.0076644 0.00558664 -3.61141e-05 3.14605e-05 -2.48222e-10 -3.4461e-12 1.31582e-10 5e-05 1.46608e-10 
151 1 0.0784723 0.0173209 0.00722716 0.00614309 -0.000220841 0.000187318 -2.0013e-10 -4.04687e-10 4.82471e-10 5e-05 1.46608e-10 
153 1 0.0779424 0.0162354 0.00785116 0.00557007 4.62339e-06 1.29557e-05 1.74493e-10 1.79925e-10 -1.01271e-10 5e-05 1.46608e-10 
154 1 0.0782018 0.0173383 0.00721131 0.00610803 -0.000263952 0.000312259 7.89377e-11 -1.38759e-10 1.35539e-10 5e-05 1.46608e-10 
155 1 0.0782647 0.0175903 0.00706078 0.00627816 -0.000246148 0.000319454 1.56643e-10 2.41539e-10 -7.16115e-11 5e-05 1.46608e-10 
156 1 0.0781814 0.0172536 0.00726189 0.00618635 1.11301e-06 0.000153261 2.36022e-10 -3.47792e-10 2.20977e-10 5e-05 1.46608e-10 
157 1 0.0219312 0.0187687 0.00551176 -3.83116e-14 8.16895e-14 2.95884e-13 -5.13007e-22 -3.31027e-22 2.79173e-23 5e-05 1.46608e-10 
158 1 0.0782863 0.0174315 0.00724041 0.00618683 -0.000130632 0.000176008 1.20176e-10 -2.03963e-11 3.04783e-11 5e-05 1.46608e-10 
159 1 0.0844001 0.0178302 0.0071204 0.00627323 6.72879e-05 -5.89968e-05 -1.63364e-11 3.6015e-11 -4.65748e-12 5e-05 1.46608e-10 
160 1 0.0781685 0.0175622 0.00707531 0.00625225 -0.000212691 0.000292608 2.7803e-12 2.81187e-11 1.03265e-10 5e-05 1.46608e-10 
162 1 0.078127 0.0173942 0.00717565 0.00615733 -0.000235978 0.000299281 -5.06591e-11 -2.63918e-10 1.81428e-10 5e-05 1.46608e-10 
164 1 0.0784461 0.0180113 0.00702211 0.00621598 -0.000298993 -0.000362793 9.57083e-11 -1.86461e-10 -3.02048e-10 5e-05 1.46608e-10 
165 1 0.0785428 0.0175495 0.00709238 0.00637699 -0.000230672 0.000301979 -3.4045e-10 -4.41519e-10 2.40384e-10 5e-05 1.46608e-10 
166 1 0.0840455 0.0162799 0.00777597 0.0056341 9.64431e-05 -0.000360072 -8.79513e-11 1.74735e-10 -1.79505e-10 5e-05 1.46608e-10 
167 1 0.0780995 0.0164754 0.0077133 0.00559441 -3.41977e-05 3.54223e-05 -6.06593e-11 -1.76204e-11 2.14501e-11 5e-05 1.46608e-10 
168 1 0.0783566 0.017369 0.0071969 0.00617755 -0.000153083 0.000159292 2.06215e-10 -4.80302e-10 -4.90577e-11 5e-05 1.46608e-10 
169 1 0.0786027 0.0178272 0.00701716 0.00646573 -0.000217364 -0.000327957 2.96687e-10 -8.33387e-11 -7.09688e-11 5e-05 1.46608e-10 
170 1 0.0784254 0.0174875 0.00712698 0.00629841 -0.000131648 0.000238441 -6.02364e-12 -5.33779e-10 2.4664e-10 5e-05 1.46608e-10 
171 1 0.0840655 0.0163701 0.00773665 0.00562395 0.000100501 -0.000362324 -2.5308e-10 3.93782e-11 -3.52954e-11 5e-05 1.46608e-10 
172 1 0.0785217 0.0174656 0.00714251 0.00624193 -0.000229223 0.000294669 1.01867e-10 -6.19767e-10 2.67488e-10 5e-05 1.46608e-10 
173 1 0.0845668 0.0179064 0.00709145 0.00620155 0.000184596 -0.00010257 -1.37503e-10 1.34327e-10 -5.18518e-11 5e-05 1.46608e-10 
174 1 0.0783407 0.0175326 0.00709749 0.00629569 -0.000139673 0.000227398 7.82295e-11 -8.80654e-11 1.7741e-10 5e-05 1.46608e-10 
175 1 0.0720641 0.0171298 0.00730386 0.00608032 7.31648e-05 -9.44269e-05 1.10582e-10 -1.5484e-09 6.86812e-10 5e-05 1.46608e-10 
176 1 0.0781602 0.0171693 0.00731229 0.0061085 -5.93913e-05 0.000190252 6.5083e-11 1.00828e-10 -5.07215e-11 5e-05 1.46608e-10 
177 1 0.0782117 0.0177528 0.00703922 0.0062767 -0.000293289 -0.000326817 1.96036e-10 4.67875e-11 -4.57083e-11 5e-05 1.46608e-10 
178 1 0.0786551 0.0176623 0.00702714 0.00652172 -0.000284543 0.00035125 5.80462e-10 1.43041e-10 -6.79586e-10 5e-05 1.46608e-10 
179 1 0.0785814 0.0177296 0.00702143 0.00653946 -0.000243906 -5.01729e-05 7.51869e-10 -2.93534e-10 -6.03769e-10 5e-05 1.46608e-10 
181 1 0.0781393 0.0174837 0.00731771 0.0061127 -5.47117e-05 0.000221982 -4.58591e-11 -1.74689e-10 2.85095e-10 5e-05 1.46608e-10 
182 1 0.0840099 0.0165225 0.0076752 0.00563537 0.000108349 -0.000363668 -1.21171e-10 -2.93466e-11 7.92162e-12 5e-05 1.46608e-10 
183 1 0.0783209 0.0174488 0.00714821 0.00622373 -0.000136555 0.000186872 1.75453e-10 -2.56778e-10 1.5356e-10 5e-05 1.46608e-10 
184 1 0.0843416 0.0178554 0.00719748 0.00627949 8.71294e-05 -5.94883e-05 -8.90933e-11 3.41714e-11 -1.92963e-11 5e-05 1.46608e-10 
185 1 0.0780852 0.017225 0.00727674 0.00612498 -4.10629e-05 0.00018182 8.97724e-11 -8.93901e-11 1.19599e-10 5e-05 1.46608e-10 
186 1 0.0781222 0.0173947 0.00727554 0.00609622 -8.38174e-05 0.000302741 5.24978e-11 -2.02083e-10 3.22129e-10 5e-05 1.46608e-10 
187 1 0.0843248 0.0171177 0.00740531 0.00600993 -1.15367e-05 -0.000329559 -5.78867e-12 6.34701e-12 1.20053e-10 5e-05 1.46608e-10 
188 1 0.0844281 0.0183202 0.00694012 0.00580991 0.000208586 -0.000109579 -1.22062e-10 -1.96706e-10 9.95255e-11 5e-05 1.46608e-10 
189 1 0.0843717 0.0173018 0.00732469 0.00606557 -1.18659e-05 -0.000336009 -4.63922e-11 3.82711e-11 -6.92118e-11 5e-05 1.46608e-10 
190 1 0.0721738 0.0172355 0.00722106 0.00623393 8.50239e-05 2.47123e-05 -1.81211e-10 -1.65877e-10 2.1144e-10 5e-05 1.46608e-10 
191 1 0.0844269 0.0187543 0.00692274 0.00579362 0.000150465 0.000126545 1.2908e-11 7.55003e-11 3.10133e-11 5e-05 1.46608e-10 
192 1 0.0783476 0.0171153 0.00734527 0.00606879 -0.000200026 0.000134543 -3.97328e-10 1.14245e-10 -6.15963e-11 5e-05 1.46608e-10 
193 1 0.0841436 0.0167297 0.0075799 0.0056254 0.000109863 -0.000363018 5.50903e-11 4.56585e-12 -2.70981e-12 5e-05 1.46608e-10 
194 1 0.0781584 0.0167303 0.00756657 0.00559443 -4.86177e-05 4.02402e-05 -9.04537e-11 -1.39104e-10 5.91241e-11 5e-05 1.46608e-10 
195 1 0.0785603 0.017634 0.00704183 0.0064806 -0.000188278 0.000304575 6.02629e-10 -2.59537e-10 7.21066e-10 5e-05 1.46608e-10 
196 1 0.0776365 0.0155175 0.00866922 0.00564637 -3.50036e-05 -9.45784e-06 6.32028e-11 -2.56363e-10 3.93006e-10 5e-05 1.46608e-10 
197 1 0.0721283 0.0174076 0.00722559 0.0061845 6.76194e-05 9.60077e-06 7.05203e-11 -9.47765e-11 6.38339e-11 5e-05 1.46608e-10 
198 1 0.0780045 0.0168875 0.00747557 0.00559151 2.91973e-05 -1.5032e-06 3.53254e-12 1.27775e-10 -1.01564e-10 5e-05 1.46608e-10 
199 1 0.0781478 0.0174782 0.00712548 0.0061939 -0.000226266 0.00029326 2.62214e-11 -1.53807e-10 3.66022e-11 5e-05 1.46608e-10 
200 1 0.0780993 0.0169153 0.00745982 0.00564415 -4.93849e-05 4.69489e-05 7.51872e-11 7.82897e-11 -2.34263e-11 5e-05 1.46608e-10 
201 1 0.0785491 0.0180526 0.00702221 0.00625856 -0.00022301 0.000815334 -9.35821e-11 -1.36949e-10 -1.12841e-10 5e-05 1.46608e-10 
202 1 0.0783699 0.0171998 0.00729665 0.00550639 -0.000113764 7.88217e-05 1.66714e-10 -7.87537e-11 6.57385e-11 5e-05 1.46608e-10 
203 1 0.0846188 0.0180312 0.0070453 0.00620625 0.000320959 -0.000152616 -5.77033e-11 2.36551e-10 -9.31854e-11 5e-05 1.46608e-10 
204 1 0.0780795 0.0168303 0.00750873 0.00558619 -3.11517e-05 3.34021e-05 3.52639e-10 -6.77445e-11 5.10211e-11 5e-05 1.46608e-10 
205 1 0.0784033 0.0178156 0.00702793 0.00634891 -0.00029042 -0.000326045 2.56571e-10 -1.24735e-10 -9.31039e-11 5e-05 1.46608e-10 
206 1 0.078363 0.0176259 0.00706923 0.00633548 -0.000176923 0.000148736 3.30544e-10 1.95922e-11 2.27696e-11 5e-05 1.46608e-10 
207 1 0.077923 0.0161504 0.00790009 0.00557666 7.79662e-06 1.15004e-05 3.23564e-10 1.35007e-10 -1.83464e-11 5e-05 1.46608e-10 
208 1 0.0782226 0.0174223 0.00716114 0.00615784 -0.00027045 0.000320879 -5.23201e-11 -5.36852e-11 1.54167e-11 5e-05 1.46608e-10 
209 1 0.0781387 0.0166454 0.00761552 0.00558598 -4.11738e-05 3.61003e-05 -2.18878e-10 -3.66528e-11 1.33811e-10 5e-05 1.46608e-10 
210 1 0.0842334 0.0177159 0.00725784 0.0060453 0.000191019 -0.00016956 -1.66252e-10 3.13345e-11 -1.85748e-10 5e-05 1.46608e-10 
211 1 0.0844836 0.0181643 0.00699711 0.00609187 0.000262208 -0.00013164 -1.38643e-11 2.73727e-10 -6.79146e-11 5e-05 1.46608e-10 
212 1 0.0784465 0.0175714 0.00707677 0.00637208 -0.000148742 0.000250923 2.4496e-10 -5.49752e-10 2.33674e-10 5e-05 1.46608e-10 
213 1 0.0843027 0.0170274 0.00744485 0.00596775 -4.12335e-06 -0.000333165 -1.17331e-11 -1.1221e-10 5.26234e-11 5e-05 1.46608e-10 
214 1 0.0843895 0.0181622 0.00704694 0.00626542 0.000112053 -0.000190762 8.51951e-11 2.96603e-11 -9.94478e-11 5e-05 1.46608e-10 
215 1 0.0721533 0.017146 0.00726128 0.00625783 4.19026e-05 -4.79369e-05 -5.63953e-10 6.89401e-10 -6.01559e-10 5e-05 1.46608e-10 
216 1 0.0781902 0.0176555 0.00704653 0.00627315 -0.000260515 9.33478e-05 -1.28435e-10 -6.09747e-11 -2.34695e-10 5e-05 1.46608e-10 
217 1 0.0841047 0.0165498 0.00765828 0.00564523 0.000104259 -0.000360645 5.20134e-11 -7.97896e-12 3.62865e-11 5e-05 1.46608e-10 
218 1 0.0783081 0.0177855 0.00703427 0.00630733 -0.000295347 -0.000228797 2.82156e-10 5.12879e-10 1.77431e-10 5e-05 1.46608e-10 
219 1 0.0843689 0.0184736 0.0069353 0.0057305 0.000131783 -5.68816e-06 9.89725e-11 -1.81913e-11 1.29892e-10 5e-05 1.46608e-10 
220 1 0.0781894 0.0175631 0.0071731 0.0062565 -0.000220272 0.000291939 -1.41509e-10 -3.44564e-11 1.19377e-10 5e-05 1.46608e-10 
221 1 0.0720626 0.0167669 0.00757592 0.00568181 0.000155494 -0.000139392 5.76469e-11 1.02341e-10 -8.22509e-11 5e-05 1.46608e-10 
222 1 0.0841241 0.0166398 0.00761909 0.0056382 0.000108246 -0.000361977 9.70203e-11 -4.55274e-11 -3.60751e-12 5e-05 1.46608e-10 
223 1 0.0782797 0.0172395 0.00727326 0.00614626 -0.000159535 7.40106e-05 -1.52176e-10 -8.13062e-11 -2.71741e-10 5e-05 1.46608e-10 
224 1 0.0780645 0.017141 0.00732691 0.0061105 -1.25548e-05 0.000162239 -2.89238e-10 -2.63174e-10 1.38523e-10 5e-05 1.46608e-10 
225 1 0.084467 0.0178998 0.00709444 0.00621337 0.000116365 -7.73148e-05 -7.42416e-11 1.32518e-10 -4.46718e-11 5e-05 1.46608e-10 
226 1 0.0784481 0.0174043 0.00717763 0.00621763 -0.000147991 0.000258471 -6.84984e-11 -4.79485e-10 2.53386e-10 5e-05 1.46608e-10 
227 1 0.0721218 0.0169941 0.00738736 0.00576613 -0.000186732 0.000150903 -2.69827e-10 7.13841e-10 -4.07041e-10 5e-05 1.46608e-10 
228 1 0.0720856 0.0172195 0.00726534 0.00615149 6.40733e-05 -8.92272e-05 -1.0662e-09 2.7438e-10 -1.95245e-10 5e-05 1.46608e-10 
229 1 0.0781946 0.0174843 0.0072344 0.00627319 -0.000208356 0.000316812 4.82301e-11 -9.30396e-11 1.6548e-10 5e-05 1.46608e-10 
230 1 0.078488 0.0182065 0.00704235 0.00606406 -0.000301543 0.000769787 1.35878e-10 1.42805e-10 3.02833e-11 5e-05 1.46608e-10 
231 1 0.0720437 0.0170422 0.00734761 0.00599667 8.11879e-05 -8.52938e-05 -7.73541e-10 4.11457e-10 -6.46226e-10 5e-05 1.46608e-10 
232 1 0.0780409 0.0162204 0.00786009 0.00542803 -8.03667e-06 2.04733e-05 6.5529e-12 7.6559e-11 -4.04227e-11 5e-05 1.46608e-10 
233 1 0.0781781 0.0168156 0.00751821 0.00562495 -6.96617e-05 3.04401e-05 -1.19055e-10 -1.03043e-10 2.08529e-11 5e-05 1.46608e-10 
234 1 0.0844434 0.0184139 0.0069056 0.00572321 0.00013862 -0.00013932 -8.21249e-11 -7.07421e-11 -6.90124e-10 5e-05 1.46608e-10 
235 1 0.0785225 0.0184101 0.00708475 0.00580978 -0.000246047 0.000751468 1.4705e-10 -8.46827e-11 -1.01066e-10 5e-05 1.46608e-10 
236 1 0.0785082 0.0183023 0.00706283 0.00593613 -0.00027375 0.000754876 3.43374e-10 -6.45146e-11 1.91711e-10 5e-05 1.46608e-10 
237 1 0.0785895 0.0182441 0.00706319 0.00602175 -0.000129451 0.000797798 2.6878e-10 -1.94015e-10 -1.52057e-11 5e-05 1.46608e-10 
239 1 0.0718685 0.016363 0.00791144 0.0054967 0.000142017 -0.000128325 -9.56935e-11 -1.30062e-10 1.08024e-10 5e-05 1.46608e-10 
240 1 0.0719271 0.0165894 0.00772352 0.0055121 8.74603e-05 -8.37695e-05 -3.19087e-12 -2.91049e-10 2.56787e-10 5e-05 1.46608e-10 
241 1 0.071849 0.0162875 0.00797409 0.00548434 0.000155033 -0.000139237 -2.73854e-11 -9.20978e-11 7.11253e-11 5e-05 1.46608e-10 
242 1 0.0783069 0.0169456 0.00744296 0.00577842 -0.000115997 8.97196e-05 -2.17723e-10 1.22116e-10 -1.3671e-10 5e-05 1.46608e-10 
243 1 0.0780599 0.0167453 0.00755764 0.00557699 -1.47675e-05 2.40336e-05 -8.55768e-11 2.59112e-11 -1.64405e-11 5e-05 1.46608e-10 
244 1 0.071888 0.0164384 0.00784879 0.00551885 0.000122311 -0.000111969 -9.72836e-11 -1.80529e-10 1.5829e-10 5e-05 1.46608e-10 