ITEM: TIMESTEP
19200000
ITEM: NUMBER OF ATOMS
287
ITEM: BOX BOUNDS ff ff ff
-0.02 0.43
-0.02 0.06
-0.02 0.07
ITEM: ATOMS id type x y z vx vy vz fx fy fz radius mass 
1 1 0.124783 0.0163548 0.00776781 0.00577086 -6.49243e-05 0.000198671 1.28211e-13 2.7063e-10 -1.53335e-10 5e-05 1.46608e-10 
2 1 0.125266 0.0176046 0.00708488 0.00583279 -0.000136143 9.20724e-05 -1.50704e-10 1.49273e-10 -5.58681e-11 5e-05 1.46608e-10 
3 1 0.118524 0.0158265 0.00842487 0.00555636 0.000136806 -0.000138332 9.78157e-11 1.32028e-10 -1.09478e-10 5e-05 1.46608e-10 
4 1 0.125116 0.0177329 0.00705333 0.00579774 -0.000150188 9.6445e-05 -5.45652e-12 8.30062e-11 -8.22616e-12 5e-05 1.46608e-10 
5 1 0.124667 0.0162425 0.00783099 0.00561235 2.76199e-05 0.000140722 2.08883e-11 2.09822e-10 -1.22218e-10 5e-05 1.46608e-10 
6 1 0.130715 0.0164625 0.00775941 0.00591559 -0.000689834 0.000170482 1.30814e-12 6.96255e-13 -7.80167e-13 5e-05 1.46608e-10 
7 1 0.124859 0.0169952 0.00737667 0.00624357 -0.000214207 5.26176e-05 1.29774e-10 -7.90937e-11 7.15734e-11 5e-05 1.46608e-10 
8 1 0.124569 0.0158605 0.00813375 0.00564136 -0.000257905 -9.32803e-05 -6.82953e-11 -1.81556e-10 2.63942e-10 5e-05 1.46608e-10 
9 1 0.130992 0.0176006 0.00725551 0.00593401 -0.000400735 0.000603506 -3.98341e-13 1.01718e-12 -3.58737e-13 5e-05 1.46608e-10 
10 1 0.124794 0.0167461 0.00753073 0.00616514 -0.000202506 3.57244e-05 -9.23528e-11 -1.88266e-10 -6.2862e-11 5e-05 1.46608e-10 
11 1 0.125327 0.0177928 0.0070415 0.00585026 -0.000153808 9.59579e-05 -4.49198e-12 -3.01438e-11 6.8409e-12 5e-05 1.46608e-10 
12 1 0.118731 0.0165318 0.00774708 0.00607912 -0.000220926 -0.000318969 2.61293e-10 -2.26597e-11 1.50798e-11 5e-05 1.46608e-10 
13 1 0.124647 0.0161568 0.00788109 0.00562824 -2.03314e-05 0.000172823 -4.0832e-11 -1.8094e-11 3.45864e-11 5e-05 1.46608e-10 
14 1 0.118446 0.0155654 0.00871676 0.00544016 0.00012853 -0.000136659 1.6741e-11 1.42045e-10 -1.69394e-10 5e-05 1.46608e-10 
15 1 0.124997 0.0171867 0.00725471 0.00562552 -0.000127988 1.34489e-05 -2.79037e-11 -6.29755e-11 2.22937e-11 5e-05 1.46608e-10 
16 1 0.118426 0.0155 0.00878986 0.00535864 0.000139321 -0.000146139 -9.97141e-11 1.82908e-10 -2.22804e-10 5e-05 1.46608e-10 
17 1 0.124773 0.0166634 0.00758266 0.00615207 -0.000171805 8.61287e-05 4.98455e-11 -1.78703e-10 -1.51603e-10 5e-05 1.46608e-10 
18 1 0.130863 0.0170416 0.00742545 0.00602635 -0.000418109 0.000616489 3.12948e-13 8.66796e-13 -2.60938e-13 5e-05 1.46608e-10 
19 1 0.124628 0.0160721 0.00793062 0.00565058 -2.39092e-05 0.000170602 -4.81498e-11 -6.93777e-11 2.81541e-11 5e-05 1.46608e-10 
21 1 0.124762 0.0162704 0.00781713 0.00566129 -3.49423e-05 0.000178137 -7.10241e-11 3.16932e-10 -1.76683e-10 5e-05 1.46608e-10 
22 1 0.124902 0.0171602 0.00727227 0.00623596 -0.000230236 6.74487e-05 2.82115e-11 -6.27554e-11 5.50804e-11 5e-05 1.46608e-10 
23 1 0.118932 0.0169066 0.00738268 0.00626954 -0.000251577 -0.00030628 -9.54691e-11 1.04095e-11 -2.46977e-11 5e-05 1.46608e-10 
24 1 0.130927 0.0173203 0.00734071 0.00598031 -0.000409445 0.000610014 -2.79869e-14 9.7993e-13 -3.20687e-13 5e-05 1.46608e-10 
25 1 0.124837 0.0169117 0.00742734 0.00620111 -0.000195805 4.67369e-05 -4.87563e-11 -1.13112e-10 8.6552e-11 5e-05 1.46608e-10 
26 1 0.130798 0.0167616 0.00751054 0.00607259 -0.000426804 0.000622989 4.05454e-13 8.5377e-13 -4.38974e-13 5e-05 1.46608e-10 
27 1 0.118815 0.0168152 0.00747752 0.00621248 -0.000241461 -0.000312943 -1.16628e-10 -4.01065e-12 9.25974e-11 5e-05 1.46608e-10 
28 1 0.125096 0.0176376 0.007076 0.00577879 -0.000141989 0.000104773 6.58579e-12 -3.30269e-11 -9.4682e-12 5e-05 1.46608e-10 
29 1 0.124609 0.0159955 0.00799193 0.00567037 -0.000108557 6.06102e-05 5.13964e-11 -4.66355e-11 7.62892e-11 5e-05 1.46608e-10 
30 1 0.125151 0.0174776 0.00711339 0.00574608 -0.000184483 0.00010153 3.25731e-10 -1.97796e-10 -3.9876e-12 5e-05 1.46608e-10 
31 1 0.12488 0.0170777 0.00732441 0.00625062 -0.000224794 5.88578e-05 2.29944e-11 -9.05325e-11 7.61659e-11 5e-05 1.46608e-10 
32 1 0.124977 0.0171035 0.0073066 0.00622743 -0.000233912 6.94401e-05 1.22577e-11 -1.04571e-10 6.44578e-11 5e-05 1.46608e-10 
33 1 0.130735 0.016531 0.00768945 0.00596249 -0.000698785 0.000175294 1.07022e-12 5.88154e-13 -5.45805e-13 5e-05 1.46608e-10 
34 1 0.124751 0.0165802 0.00763373 0.00614357 -8.91462e-05 0.000226491 -7.08129e-11 -3.37447e-11 -6.02527e-11 5e-05 1.46608e-10 
35 1 0.124955 0.0170206 0.00735833 0.00627427 -0.000203679 5.08595e-05 6.05925e-11 -7.25384e-11 2.91955e-11 5e-05 1.46608e-10 
36 1 0.131035 0.0177874 0.00719872 0.00590315 -0.000394928 0.000599167 -6.18888e-13 1.05899e-12 -3.90711e-13 5e-05 1.46608e-10 
37 1 0.124912 0.0168545 0.007462 0.00620809 -0.000226527 6.28258e-05 -8.41886e-11 7.45765e-11 -2.39114e-11 5e-05 1.46608e-10 
38 1 0.125092 0.0172135 0.00723694 0.00561537 -0.00013096 1.5662e-05 -7.33307e-11 3.32959e-11 -1.05628e-10 5e-05 1.46608e-10 
39 1 0.130949 0.0174137 0.00731231 0.00596487 -0.000406542 0.000607845 -2.00662e-13 9.7739e-13 -3.33953e-13 5e-05 1.46608e-10 
41 1 0.124708 0.0164115 0.00773219 0.00611334 -9.01745e-05 0.000223386 7.21616e-11 -5.24882e-11 3.3973e-11 5e-05 1.46608e-10 
42 1 0.124922 0.0172435 0.00722071 0.00562221 -0.000127976 7.24043e-06 1.47845e-11 -2.86873e-11 -1.40206e-11 5e-05 1.46608e-10 
44 1 0.125112 0.0172967 0.007185 0.00561454 -0.000118906 2.89231e-05 3.63476e-11 -3.12681e-11 -8.36931e-11 5e-05 1.46608e-10 
45 1 0.130755 0.0165995 0.00761948 0.0060094 -0.000707734 0.000180116 1.21493e-12 5.78265e-13 -6.22228e-13 5e-05 1.46608e-10 
46 1 0.130841 0.0169481 0.00745385 0.00604177 -0.000421015 0.000618658 3.78057e-13 8.68665e-13 -2.65307e-13 5e-05 1.46608e-10 
47 1 0.124729 0.0164959 0.00768296 0.00612152 -8.95224e-05 0.000224463 -2.42355e-11 -5.11124e-11 4.81546e-11 5e-05 1.46608e-10 
48 1 0.12496 0.0174153 0.00712598 0.00561513 -0.000262218 0.00013433 -8.12184e-10 4.00182e-10 9.74753e-11 5e-05 1.46608e-10 
49 1 0.130826 0.0168538 0.00748302 0.00605735 -0.000423012 0.000620548 5.49936e-13 9.70231e-13 -1.76146e-13 5e-05 1.46608e-10 
50 1 0.125021 0.0177017 0.00705965 0.00578594 -0.000119753 8.86054e-05 1.01908e-11 3.60422e-11 -1.83581e-11 5e-05 1.46608e-10 
51 1 0.125001 0.0176063 0.00708174 0.00576694 -0.00011938 8.7462e-05 4.16546e-11 4.58696e-11 -1.82903e-11 5e-05 1.46608e-10 
52 1 0.11871 0.016461 0.0078145 0.00603543 -0.000209667 -0.000325131 3.58403e-11 4.75047e-11 -5.91583e-11 5e-05 1.46608e-10 
53 1 0.130891 0.0171358 0.00740773 0.00601128 -0.000414041 0.000613992 2.09062e-13 8.81415e-13 -2.92748e-13 5e-05 1.46608e-10 
54 1 0.124742 0.0161858 0.00786659 0.00562322 -1.83827e-05 0.000167887 -7.19851e-11 1.33529e-10 -3.09281e-11 5e-05 1.46608e-10 
55 1 0.118485 0.0156962 0.0085706 0.00544172 0.000120787 -0.000137139 7.0677e-11 7.41837e-11 -1.42291e-10 5e-05 1.46608e-10 
56 1 0.124933 0.0169374 0.00741024 0.00623038 -0.000225483 6.6719e-05 8.45002e-11 -2.58528e-11 -2.24781e-11 5e-05 1.46608e-10 
57 1 0.130777 0.0166796 0.00756351 0.00604318 -0.000563986 0.0003986 7.72627e-13 7.50367e-13 -5.89291e-13 5e-05 1.46608e-10 
59 1 0.125008 0.0168808 0.00744451 0.00622635 -0.000231275 6.84731e-05 -4.37915e-11 4.70089e-11 -1.5265e-11 5e-05 1.46608e-10 
60 1 0.12503 0.0169641 0.00739253 0.00631261 -0.00016948 2.96514e-05 4.20779e-11 -6.82485e-11 3.76128e-11 5e-05 1.46608e-10 
61 1 0.124686 0.0163272 0.00778143 0.00558911 4.58169e-06 0.000153025 -5.47184e-11 -9.5732e-11 5.67561e-11 5e-05 1.46608e-10 
62 1 0.125131 0.0173822 0.00713549 0.00567403 -0.000176992 9.16264e-05 2.93235e-10 -2.23842e-10 8.68531e-11 5e-05 1.46608e-10 
63 1 0.125056 0.0174466 0.00711965 0.00571917 -0.000113611 8.67288e-05 9.41125e-11 -7.56903e-11 -1.02379e-11 5e-05 1.46608e-10 
64 1 0.130906 0.0172269 0.00736911 0.00599573 -0.00041235 0.000612184 6.20997e-14 9.14809e-13 -2.91591e-13 5e-05 1.46608e-10 
65 1 0.118848 0.0166219 0.00765362 0.00611869 -0.000256264 -0.000288094 1.85968e-10 -4.05735e-11 1.50136e-11 5e-05 1.46608e-10 
66 1 0.118785 0.0164093 0.0078559 0.0060205 -0.000234019 -0.000300598 -9.79932e-11 -3.74389e-11 6.87056e-11 5e-05 1.46608e-10 
67 1 0.125284 0.0177048 0.00706165 0.00580047 -0.000162799 9.70928e-05 -6.18652e-11 -9.72619e-11 1.6308e-11 5e-05 1.46608e-10 
68 1 0.125191 0.0176688 0.0070691 0.00580007 -0.00016246 9.85563e-05 -3.7591e-11 1.68956e-10 -2.79567e-11 5e-05 1.46608e-10 
69 1 0.124847 0.0166063 0.00761735 0.00613927 -0.000205309 9.50284e-05 -8.24137e-11 -7.72572e-11 -1.99893e-10 5e-05 1.46608e-10 
70 1 0.13097 0.0175072 0.00728391 0.00594944 -0.000403639 0.000605675 -2.70857e-13 9.94573e-13 -3.41246e-13 5e-05 1.46608e-10 
71 1 0.118466 0.0156309 0.00864382 0.00547361 0.000102228 -0.000148019 7.61215e-11 9.75083e-11 -1.48079e-10 5e-05 1.46608e-10 
72 1 0.125171 0.0175731 0.00709127 0.0057645 -0.000178082 0.000102723 1.12148e-10 -6.48825e-11 3.00279e-11 5e-05 1.46608e-10 
73 1 0.124816 0.0168289 0.00747904 0.00617944 -0.000191616 4.58608e-05 -3.34981e-10 -1.02331e-10 2.15431e-11 5e-05 1.46608e-10 
74 1 0.125017 0.01727 0.00720277 0.00561587 -0.000119998 2.34669e-05 5.46016e-11 -4.49761e-11 -3.94816e-11 5e-05 1.46608e-10 
76 1 0.119057 0.0174599 0.00720702 0.00578541 0.000185175 0.000169326 2.89374e-10 4.1016e-11 2.9757e-11 5e-05 1.46608e-10 
77 1 0.125126 0.0182068 0.00694264 0.00563614 -9.91227e-05 8.50054e-05 1.73819e-10 8.6832e-11 6.36814e-11 5e-05 1.46608e-10 
78 1 0.118545 0.0158952 0.0083551 0.00572137 4.4544e-05 -0.000173685 -5.58919e-11 -4.63138e-11 -1.69533e-10 5e-05 1.46608e-10 
79 1 0.118752 0.0166027 0.00767966 0.00611294 -0.000228576 -0.0003142 2.76124e-10 -9.75324e-11 5.02216e-11 5e-05 1.46608e-10 
80 1 0.125061 0.0178897 0.00710528 0.00582689 -0.000121115 8.75233e-05 9.07356e-12 1.52267e-11 -4.29338e-11 5e-05 1.46608e-10 
81 1 0.11869 0.0163901 0.00788193 0.00600558 -0.00020305 -0.000331328 -4.00138e-11 7.65775e-11 -1.19216e-10 5e-05 1.46608e-10 
82 1 0.118836 0.0168861 0.00741003 0.00624863 -0.000242655 -0.000312957 -4.31305e-11 -5.09288e-11 1.95812e-13 5e-05 1.46608e-10 
83 1 0.11888 0.0164279 0.00783047 0.00596472 -0.000256031 -0.000277187 5.16304e-11 -5.68478e-11 4.23916e-11 5e-05 1.46608e-10 
84 1 0.131013 0.017694 0.00722712 0.00591858 -0.000397831 0.000601336 -5.0793e-13 1.0389e-12 -3.76447e-13 5e-05 1.46608e-10 
85 1 0.118661 0.0159841 0.00826045 0.00576312 -0.000163496 -0.000341111 -2.78184e-10 -2.33414e-11 5.82631e-11 5e-05 1.46608e-10 
86 1 0.125076 0.0175422 0.00709753 0.00576182 -0.000126003 0.000100833 -9.31085e-12 -3.23354e-11 1.28748e-11 5e-05 1.46608e-10 
87 1 0.124987 0.0167977 0.00749633 0.0061879 -0.000247779 7.99595e-05 -1.42694e-10 4.43818e-11 -5.91434e-12 5e-05 1.46608e-10 
88 1 0.125068 0.0179205 0.00701037 0.00583272 -0.000126054 9.38545e-05 1.14223e-11 2.10753e-11 -2.36377e-11 5e-05 1.46608e-10 
89 1 0.125131 0.0179813 0.0070705 0.00568628 -0.000179838 4.28608e-05 -4.50299e-10 8.24359e-11 -2.79669e-11 5e-05 1.46608e-10 
90 1 0.125246 0.0175091 0.00710701 0.00573786 -0.000122925 8.69215e-05 -2.16533e-10 2.03687e-10 -3.02777e-11 5e-05 1.46608e-10 
91 1 0.118773 0.0166736 0.00761224 0.00614435 -0.000234487 -0.000312107 3.4671e-11 -9.27792e-11 5.69845e-11 5e-05 1.46608e-10 
92 1 0.125271 0.0179531 0.00700346 0.00567962 -1.88521e-05 6.62536e-05 -1.35887e-10 6.82248e-11 3.90948e-11 5e-05 1.46608e-10 
93 1 0.125187 0.0180046 0.00699055 0.00566132 -4.18844e-05 7.09418e-05 -2.02094e-10 7.76201e-11 1.86054e-12 5e-05 1.46608e-10 
94 1 0.125332 0.0182475 0.00693525 0.00568318 -5.68979e-05 7.25961e-05 6.771e-11 6.81587e-11 1.21625e-11 5e-05 1.46608e-10 
95 1 0.125273 0.0180224 0.00707549 0.00567282 -2.5884e-05 7.29599e-05 1.91175e-10 1.91539e-10 3.76831e-11 5e-05 1.46608e-10 
96 1 0.125291 0.0180499 0.00698102 0.00566343 -5.48597e-05 7.06149e-05 -8.97368e-11 -1.24122e-10 1.19314e-11 5e-05 1.46608e-10 
97 1 0.118648 0.0162505 0.00801903 0.00592649 -0.000170299 -0.000351236 2.01368e-10 1.7116e-10 -1.22478e-10 5e-05 1.46608e-10 
98 1 0.125087 0.0180158 0.00698758 0.00564827 -9.20629e-05 8.58426e-05 -2.24823e-10 1.61934e-11 -1.32302e-11 5e-05 1.46608e-10 
99 1 0.118827 0.016551 0.00772104 0.00608961 -0.000249394 -0.000294664 1.94164e-10 -7.54544e-11 4.79669e-11 5e-05 1.46608e-10 
100 1 0.125206 0.0173234 0.0071673 0.00561019 -0.000121688 2.00199e-05 1.10254e-10 9.35937e-11 -3.58485e-11 5e-05 1.46608e-10 
101 1 0.118765 0.0163384 0.00792333 0.00599486 -0.000221319 -0.000310007 -1.43577e-10 4.35201e-11 -6.29664e-11 5e-05 1.46608e-10 
102 1 0.0643568 0.0187248 0.00531097 4.37803e-15 1.04716e-14 8.29577e-14 1.35558e-21 -4.89355e-22 -4.96308e-24 5e-05 1.46608e-10 
103 1 0.24257 0.0191927 0.00520306 -1.01195e-22 5.77616e-22 -5.81428e-22 0 0 0 5e-05 1.46608e-10 
104 1 0.119131 0.0173954 0.00722528 0.00585088 0.00023454 0.000158221 -8.44594e-11 -9.52914e-11 2.77581e-11 5e-05 1.46608e-10 
105 1 0.118607 0.0161067 0.00815156 0.00586301 -0.000154672 -0.000360914 2.22648e-11 -1.86962e-12 -1.37286e-10 5e-05 1.46608e-10 
106 1 0.119205 0.0173311 0.00724349 0.00592144 0.000307986 0.000143282 -1.02725e-10 1.40682e-10 -3.75467e-11 5e-05 1.46608e-10 
107 1 0.118566 0.0159653 0.00828685 0.00576674 -9.14841e-05 -0.000312851 -3.20822e-10 -5.20204e-11 -2.04466e-10 5e-05 1.46608e-10 
108 1 0.12489 0.0167717 0.00751367 0.00617802 -0.000221701 6.37992e-05 -1.23508e-10 8.27984e-11 -2.52903e-12 5e-05 1.46608e-10 
109 1 0.12498 0.0175107 0.00710388 0.00565478 -0.000550852 0.000186941 -2.69289e-11 -1.32784e-10 3.08013e-11 5e-05 1.46608e-10 
110 1 0.125203 0.0185866 0.00686421 0.00558747 -0.000110006 -0.000111749 -7.95056e-11 -2.36439e-10 2.57521e-11 5e-05 1.46608e-10 
111 1 0.125265 0.0183914 0.00690091 0.00569109 -2.81441e-05 6.34733e-05 1.29699e-10 -2.37662e-10 9.84688e-11 5e-05 1.46608e-10 
112 1 0.118669 0.0163192 0.00794935 0.00597275 -0.000190204 -0.000340692 1.82209e-10 1.50846e-10 -8.7623e-11 5e-05 1.46608e-10 
113 1 0.119422 0.0181717 0.00704899 0.00570127 0.000160386 0.00017033 -1.52349e-10 1.57055e-11 -5.18173e-11 5e-05 1.46608e-10 
114 1 0.119069 0.0171093 0.00729192 0.00624942 0.000179878 0.00018518 -1.23915e-10 9.79341e-11 -2.5353e-11 5e-05 1.46608e-10 
115 1 0.125036 0.0173543 0.00715268 0.0056532 -0.000104983 6.49575e-05 2.15525e-10 -5.4414e-11 2.05391e-11 5e-05 1.46608e-10 
116 1 0.124869 0.0166889 0.00756532 0.00614814 -0.000222226 5.70643e-05 -8.3203e-11 1.54029e-11 -7.22758e-11 5e-05 1.46608e-10 
117 1 0.124723 0.0161011 0.00791612 0.00563004 -4.64071e-06 0.000160711 -1.29086e-10 1.89847e-11 -4.83864e-12 5e-05 1.46608e-10 
118 1 0.118505 0.0157667 0.00850255 0.00536662 0.000148711 -0.000156756 1.51358e-10 1.488e-10 -6.81067e-11 5e-05 1.46608e-10 
119 1 0.125052 0.017047 0.00734075 0.00621403 -0.000243466 7.67926e-05 2.3265e-11 -8.05426e-11 4.5617e-11 5e-05 1.46608e-10 
120 1 0.124589 0.0159245 0.00805945 0.0056603 -0.00023562 -7.6087e-05 -8.29808e-11 -2.24558e-11 2.83226e-10 5e-05 1.46608e-10 
121 1 0.12455 0.0157964 0.00820806 0.00563278 -0.000255341 -8.45534e-05 -5.22199e-11 -2.10011e-10 1.94466e-10 5e-05 1.46608e-10 
122 1 0.125185 0.0184966 0.00690414 0.00551227 -0.000141131 -0.000162729 2.06448e-10 4.33881e-11 4.17674e-10 5e-05 1.46608e-10 
123 1 0.118703 0.0161258 0.00812563 0.00587977 -0.000182021 -0.000331706 1.14387e-10 4.89312e-11 3.20302e-11 5e-05 1.46608e-10 
124 1 0.125167 0.0179073 0.00701309 0.00584823 -0.00013697 9.45031e-05 3.05466e-11 8.71287e-11 -2.02346e-11 5e-05 1.46608e-10 
125 1 0.124703 0.0160162 0.00796573 0.00566359 -7.65372e-06 0.000156721 4.10079e-11 1.65236e-11 5.1739e-12 5e-05 1.46608e-10 
126 1 0.124941 0.0173268 0.00716838 0.00568811 -0.000438239 0.000207718 4.24444e-10 1.1013e-10 6.42686e-10 5e-05 1.46608e-10 
127 1 0.118628 0.0161775 0.00808417 0.00590253 -0.00016461 -0.000355267 4.6779e-11 8.43923e-11 -1.34409e-10 5e-05 1.46608e-10 
128 1 0.125039 0.0177924 0.00709751 0.00578344 -0.00011081 8.53379e-05 6.92118e-12 4.37251e-11 -6.02507e-11 5e-05 1.46608e-10 
129 1 0.125268 0.018125 0.00704307 0.0056684 -5.44234e-05 7.23871e-05 -6.79504e-11 -1.42661e-10 2.07279e-11 5e-05 1.46608e-10 
130 1 0.11895 0.0169812 0.0073184 0.00639912 3.78106e-05 0.000229516 -1.31513e-10 -4.22506e-11 4.11095e-11 5e-05 1.46608e-10 
131 1 0.118806 0.0164802 0.00778847 0.00605274 -0.000242215 -0.00029742 1.06753e-10 -1.03799e-10 9.6071e-11 5e-05 1.46608e-10 
132 1 0.125104 0.0178295 0.00703062 0.00582243 -0.00014043 9.38275e-05 4.23365e-11 5.86007e-11 -8.04865e-12 5e-05 1.46608e-10 
133 1 0.1249 0.0164665 0.00770304 0.00612074 -0.000236283 7.25495e-05 -2.50049e-12 -4.32352e-11 3.16318e-11 5e-05 1.46608e-10 
134 1 0.125072 0.0171303 0.00728883 0.005623 -0.000136835 1.83286e-05 -1.04556e-10 -5.20771e-11 4.40881e-11 5e-05 1.46608e-10 
135 1 0.124684 0.0159434 0.00803155 0.00567514 -0.000237377 -9.85369e-05 7.795e-11 -1.3502e-10 -5.73035e-12 5e-05 1.46608e-10 
136 1 0.11864 0.0159133 0.00832805 0.00579123 0.000102255 -9.98075e-05 -1.85178e-10 2.19541e-10 -3.08057e-10 5e-05 1.46608e-10 
137 1 0.125146 0.0183026 0.00692148 0.00567213 -0.000115669 3.78133e-05 -1.26088e-11 2.85171e-11 5.73215e-11 5e-05 1.46608e-10 
138 1 0.124825 0.0165235 0.00766908 0.00612665 -0.000147589 0.000193019 -2.01026e-11 4.673e-12 -1.25189e-10 5e-05 1.46608e-10 
140 1 0.125281 0.0185065 0.00687791 0.00543511 0.000359953 -0.000207932 -1.76647e-12 8.67957e-11 -3.10679e-11 5e-05 1.46608e-10 
141 1 0.118682 0.0160549 0.00819303 0.00582971 -0.000174281 -0.00033449 -3.76933e-11 -1.6863e-11 -1.71451e-11 5e-05 1.46608e-10 
142 1 0.11909 0.0172048 0.00726968 0.00596548 0.000214551 0.000167825 -1.14312e-10 3.98267e-10 -1.12899e-10 5e-05 1.46608e-10 
143 1 0.118586 0.0160358 0.008219 0.00580422 -0.000153537 -0.000377271 -6.82814e-11 -1.3167e-10 -2.38465e-10 5e-05 1.46608e-10 
144 1 0.119048 0.017014 0.00731409 0.0063011 7.13766e-05 0.000210902 -3.93578e-11 6.70908e-11 5.61538e-11 5e-05 1.46608e-10 
146 1 0.118901 0.0164988 0.00776304 0.00605522 -0.000275383 -0.000266202 9.70736e-11 -8.5774e-11 7.47165e-11 5e-05 1.46608e-10 
147 1 0.11862 0.0158478 0.00840128 0.0056999 9.40353e-05 -9.77476e-05 -9.0467e-11 4.11204e-11 -6.73272e-11 5e-05 1.46608e-10 
148 1 0.118899 0.0171431 0.00727755 0.00627835 2.98824e-05 0.000228655 -9.55348e-12 3.2423e-11 1.73654e-11 5e-05 1.46608e-10 
149 1 0.125245 0.0182957 0.00692309 0.00568125 -6.67343e-05 7.73643e-05 3.76763e-11 -1.11327e-10 3.53029e-11 5e-05 1.46608e-10 
150 1 0.118943 0.0166404 0.00762824 0.00613048 -0.000286157 -0.000263562 1.2847e-10 -5.90023e-11 2.59e-11 5e-05 1.46608e-10 
151 1 0.11932 0.0174608 0.00721647 0.00579352 0.000364345 0.000124967 5.00441e-13 -3.3583e-12 2.70004e-12 5e-05 1.46608e-10 
153 1 0.118744 0.0162675 0.00799075 0.00595238 -0.000207804 -0.000323437 3.4546e-11 -7.3312e-13 -5.67771e-11 5e-05 1.46608e-10 
154 1 0.119015 0.0172693 0.0072514 0.0059482 0.000155672 0.000186547 -3.44342e-11 -2.30283e-11 5.27785e-11 5e-05 1.46608e-10 
155 1 0.119077 0.0175561 0.00718458 0.00573128 0.000160742 0.000170573 -2.38746e-11 9.12501e-12 -9.1814e-12 5e-05 1.46608e-10 
156 1 0.118995 0.017174 0.00727361 0.00599887 0.00012893 0.000189546 2.61312e-11 1.49366e-10 -4.98991e-11 5e-05 1.46608e-10 
157 1 0.0219312 0.0187687 0.00551176 -3.83421e-14 8.16647e-14 2.95887e-13 7.37457e-22 5.83628e-22 -6.28657e-23 5e-05 1.46608e-10 
158 1 0.119245 0.0178781 0.00720726 0.00588005 0.000153418 0.000120839 -6.57683e-11 3.44832e-11 3.45158e-11 5e-05 1.46608e-10 
159 1 0.125209 0.0177689 0.00704588 0.00580102 -0.000168773 9.66337e-05 8.23937e-11 1.7398e-10 -6.30002e-11 5e-05 1.46608e-10 
160 1 0.118961 0.0174289 0.00721097 0.00573526 0.00013242 0.000181977 5.40873e-11 -4.75983e-11 5.09913e-11 5e-05 1.46608e-10 
162 1 0.11892 0.0172383 0.00725568 0.00596548 9.75394e-05 0.000221146 -1.07278e-10 7.03816e-11 -7.99761e-11 5e-05 1.46608e-10 
164 1 0.119199 0.017974 0.00708841 0.00574454 0.000162535 0.000166911 1.31557e-10 5.00571e-11 9.82354e-12 5e-05 1.46608e-10 
165 1 0.119384 0.0177489 0.00714943 0.00564611 0.000146989 0.000169489 2.24436e-12 3.62684e-11 6.08979e-11 5e-05 1.46608e-10 
166 1 0.124857 0.0162979 0.00780354 0.00569842 -0.000130924 0.000235732 1.48003e-10 2.24976e-10 -1.31699e-10 5e-05 1.46608e-10 
167 1 0.118922 0.0165697 0.00769562 0.00609938 -0.000281336 -0.00026566 1.42271e-10 -5.99965e-11 6.0463e-11 5e-05 1.46608e-10 
168 1 0.119225 0.0174274 0.00722104 0.00582007 0.000298425 0.000141997 -3.49009e-13 -1.80156e-10 4.72261e-11 5e-05 1.46608e-10 
169 1 0.119438 0.0180342 0.00708268 0.00574109 0.000121065 0.000181258 1.76698e-10 -6.27552e-10 1.49989e-10 5e-05 1.46608e-10 
170 1 0.119245 0.0175253 0.00719821 0.00573758 0.000271865 0.000145443 -3.39695e-14 1.79365e-10 -5.95711e-11 5e-05 1.46608e-10 
171 1 0.124878 0.0163823 0.00775426 0.00591783 -0.000166088 0.000263861 8.49495e-11 3.12385e-10 -1.79613e-10 5e-05 1.46608e-10 
172 1 0.119361 0.0176535 0.00717155 0.00568421 0.000251153 0.000147005 1.08109e-10 -1.27752e-11 -1.80662e-11 5e-05 1.46608e-10 
173 1 0.125366 0.017986 0.00699674 0.00569113 -3.67935e-05 6.7214e-05 -2.1248e-10 -1.34469e-10 3.63559e-11 5e-05 1.46608e-10 
174 1 0.119171 0.0175895 0.00718 0.00571135 0.000212153 0.000157712 -1.35997e-10 8.10127e-11 -5.90569e-11 5e-05 1.46608e-10 
175 1 0.112993 0.0175866 0.00721567 0.0057064 -0.000854848 0.000209304 -4.22019e-11 6.6491e-11 -3.87552e-11 5e-05 1.46608e-10 
176 1 0.118974 0.0170787 0.00729578 0.00628855 4.6699e-05 0.000217648 -7.57342e-11 1.90954e-11 -3.33506e-11 5e-05 1.46608e-10 
177 1 0.119002 0.0176195 0.00716654 0.0057188 0.000131185 0.000174593 -9.44298e-11 -2.05131e-10 7.66458e-11 5e-05 1.46608e-10 
178 1 0.119506 0.0179642 0.00710208 0.00573598 0.000109134 0.00018428 3.18058e-10 -5.11673e-10 1.35805e-10 5e-05 1.46608e-10 
179 1 0.119416 0.0179216 0.007109 0.00573098 8.3023e-05 0.000192219 2.82312e-10 -1.20329e-10 4.10121e-11 5e-05 1.46608e-10 
181 1 0.118973 0.0175015 0.00728939 0.00566732 0.000161408 0.000177481 3.01304e-11 -1.45858e-10 -2.36459e-12 5e-05 1.46608e-10 
182 1 0.124804 0.0164392 0.00771855 0.00598004 -0.000100407 0.000229141 -5.85983e-12 1.75422e-10 -1.02153e-10 5e-05 1.46608e-10 
183 1 0.119151 0.0174919 0.00720278 0.00576704 0.000215374 0.00015971 1.04992e-10 1.5634e-10 -3.34595e-11 5e-05 1.46608e-10 
184 1 0.125347 0.017889 0.00701922 0.00585025 -7.70591e-05 7.80421e-05 3.65894e-11 1.67668e-11 -1.043e-12 5e-05 1.46608e-10 
185 1 0.118878 0.0170496 0.00730582 0.00634123 -5.63048e-05 1.80945e-05 -1.62797e-10 1.38665e-11 3.14022e-11 5e-05 1.46608e-10 
186 1 0.118983 0.0174027 0.00730502 0.00583552 0.000132592 0.00016089 5.14669e-11 -1.18672e-10 7.86978e-11 5e-05 1.46608e-10 
187 1 0.125187 0.0172402 0.00721919 0.00560735 -0.000122186 8.73603e-06 -9.22248e-11 3.74204e-11 -2.49822e-11 5e-05 1.46608e-10 
188 1 0.125206 0.0181017 0.00696805 0.00564926 -7.33318e-05 7.88694e-05 -7.22997e-11 -1.62245e-10 3.97872e-11 5e-05 1.46608e-10 
189 1 0.125226 0.0174137 0.00712911 0.00558911 -9.57096e-05 7.85647e-05 -5.25888e-11 1.90442e-10 -6.92465e-13 5e-05 1.46608e-10 
190 1 0.113162 0.0179444 0.00697395 0.00555587 -0.000765073 0.000160691 1.17833e-11 -4.40818e-11 6.53494e-11 5e-05 1.46608e-10 
191 1 0.125165 0.0183986 0.00690163 0.00568393 -0.000158607 -8.93436e-05 3.28634e-11 -2.84866e-12 1.59573e-10 5e-05 1.46608e-10 
192 1 0.119164 0.0171402 0.00728796 0.0061551 0.000458283 0.000115696 -1.32872e-10 2.44314e-12 -1.56074e-11 5e-05 1.46608e-10 
193 1 0.124965 0.016715 0.007548 0.00615885 -0.000242753 7.6928e-05 -1.35151e-10 5.7742e-11 -6.51558e-11 5e-05 1.46608e-10 
194 1 0.118985 0.0167822 0.00749344 0.00624104 -0.000732018 -0.000928919 -1.50523e-10 -1.54841e-10 -2.96141e-10 5e-05 1.46608e-10 
195 1 0.119443 0.0178281 0.00713251 0.00568372 8.37319e-05 0.000186957 9.02714e-11 -1.46133e-10 4.20613e-11 5e-05 1.46608e-10 
196 1 0.118407 0.0154346 0.00886292 0.00555029 0.000112468 -0.000116122 4.03297e-11 1.95022e-10 -2.21479e-10 5e-05 1.46608e-10 
197 1 0.11305 0.0178329 0.00705406 0.00548978 -0.000787483 0.000234675 5.84452e-11 -6.06536e-11 -1.01352e-10 5e-05 1.46608e-10 
198 1 0.118794 0.0167444 0.00754486 0.00618036 -0.000239359 -0.000312256 -1.39448e-10 -5.2174e-11 6.92461e-11 5e-05 1.46608e-10 
199 1 0.118941 0.0173336 0.00723331 0.00583846 0.000119932 0.000213399 -2.08717e-11 7.51992e-11 1.12312e-10 5e-05 1.46608e-10 
200 1 0.118911 0.0168344 0.00745141 0.00621963 -0.000265998 -0.000293249 -2.86329e-10 -1.4036e-10 6.3529e-11 5e-05 1.46608e-10 
201 1 0.11936 0.0180946 0.00706527 0.00573047 0.000113007 0.000182341 7.60056e-10 1.69699e-10 4.40869e-11 5e-05 1.46608e-10 
202 1 0.119185 0.0172358 0.00726571 0.00592964 0.000209107 0.000167117 -2.73164e-10 -4.22309e-11 -7.79363e-13 5e-05 1.46608e-10 
203 1 0.12538 0.0184954 0.00687779 0.0055157 0.00106396 -0.000193017 -1.07585e-10 -2.89215e-11 -5.5164e-11 5e-05 1.46608e-10 
204 1 0.11889 0.0167635 0.00751883 0.00618593 -0.000263463 -0.000291784 -1.03722e-10 -8.58894e-11 8.19067e-11 5e-05 1.46608e-10 
205 1 0.119183 0.018045 0.00715712 0.00574791 4.71987e-05 0.000266151 1.69641e-10 -1.2415e-10 1.65137e-10 5e-05 1.46608e-10 
206 1 0.119188 0.0176912 0.00715612 0.00568936 0.0002019 0.000157415 -2.40282e-11 8.13518e-11 -2.15895e-11 5e-05 1.46608e-10 
207 1 0.118723 0.0161967 0.00805817 0.00591095 -0.000193791 -0.000331524 1.86758e-10 5.41152e-11 5.35765e-11 5e-05 1.46608e-10 
208 1 0.119036 0.0173646 0.0072292 0.00587352 0.000169085 0.000174852 -4.02662e-11 1.95136e-11 2.45118e-12 5e-05 1.46608e-10 
209 1 0.118964 0.0167113 0.00756083 0.00557862 -5.47443e-05 -0.000432234 -3.96366e-10 1.54715e-10 -1.33918e-10 5e-05 1.46608e-10 
210 1 0.125179 0.0178507 0.00709466 0.00584954 -0.000151046 9.56975e-05 -7.64506e-12 6.07487e-11 -4.14975e-11 5e-05 1.46608e-10 
211 1 0.125313 0.0181515 0.0069575 0.00565616 -4.79097e-05 6.83182e-05 -8.60137e-11 1.27598e-10 -1.51421e-11 5e-05 1.46608e-10 
212 1 0.119264 0.0176255 0.00717475 0.00568603 0.000229746 0.000153624 -3.57309e-11 8.24387e-11 -5.06095e-11 5e-05 1.46608e-10 
213 1 0.125167 0.017157 0.0072711 0.00564929 -0.000106394 -1.43458e-07 -1.04808e-10 2.44857e-10 -1.01047e-10 5e-05 1.46608e-10 
214 1 0.125407 0.0181833 0.00695102 0.0056736 -5.52946e-05 7.087e-05 4.90118e-11 1.04962e-10 -8.73699e-12 5e-05 1.46608e-10 
215 1 0.113149 0.0178615 0.00702838 0.00565015 -0.000655421 8.25869e-05 9.40633e-11 -1.1618e-10 6.52411e-11 5e-05 1.46608e-10 
216 1 0.118982 0.017525 0.00719261 0.00572717 0.000129483 0.000174303 2.79508e-11 -1.95894e-10 -1.58582e-12 5e-05 1.46608e-10 
217 1 0.124922 0.0165493 0.00765135 0.00612146 -0.000235132 7.12732e-05 -1.60151e-10 2.87356e-11 -1.41049e-11 5e-05 1.46608e-10 
218 1 0.119102 0.0177507 0.00713866 0.00569057 0.000153126 0.0001666 2.18656e-11 -4.48242e-10 3.4754e-10 5e-05 1.46608e-10 
219 1 0.125226 0.0181996 0.00694535 0.00563521 -7.64889e-05 7.66913e-05 6.92821e-11 8.73546e-11 4.18544e-11 5e-05 1.46608e-10 
220 1 0.119094 0.0176966 0.0072519 0.0057053 0.000244182 0.000138788 1.24683e-10 -2.31176e-10 -9.91444e-12 5e-05 1.46608e-10 
221 1 0.113047 0.0174465 0.00730309 0.00599463 -0.000781362 0.000144228 -6.19995e-11 4.59348e-11 -2.41766e-11 5e-05 1.46608e-10 
222 1 0.124943 0.0166322 0.00759965 0.00613718 -0.000237123 7.34566e-05 -1.26691e-10 5.43682e-11 -9.18666e-14 5e-05 1.46608e-10 
223 1 0.11911 0.0173001 0.00724748 0.00593262 0.000215347 0.000164686 -1.13513e-10 2.46995e-11 -8.16421e-12 5e-05 1.46608e-10 
224 1 0.118856 0.0169613 0.00734738 0.00630002 -0.000162891 -0.000211402 -9.0583e-11 -1.04171e-10 -7.00036e-11 5e-05 1.46608e-10 
225 1 0.125252 0.0178573 0.00702565 0.00586409 -0.000134411 9.197e-05 -1.53684e-11 -7.65348e-11 2.05374e-11 5e-05 1.46608e-10 
226 1 0.11934 0.0175583 0.00719371 0.00571474 0.000280258 0.000143177 -5.73635e-11 1.37923e-10 -3.24304e-11 5e-05 1.46608e-10 
227 1 0.113106 0.017694 0.00713936 0.00557653 -0.000724634 0.000132745 -6.37904e-12 4.4511e-12 -6.65323e-12 5e-05 1.46608e-10 
228 1 0.113012 0.0176687 0.00716147 0.00554813 -0.000826989 0.000200171 1.50236e-11 5.55195e-11 -5.3149e-11 5e-05 1.46608e-10 
229 1 0.119007 0.0176306 0.00726578 0.00571285 0.000188231 0.000167481 -7.17955e-11 -3.61217e-10 5.82001e-11 5e-05 1.46608e-10 
230 1 0.119281 0.018153 0.00704829 0.00570048 7.27762e-05 0.000193246 4.78009e-10 1.20341e-10 1.51054e-11 5e-05 1.46608e-10 
231 1 0.112973 0.017505 0.00726973 0.00587485 -0.000888389 0.000220326 -2.20731e-11 4.13838e-11 -3.17089e-11 5e-05 1.46608e-10 
232 1 0.11886 0.016357 0.0078979 0.00599904 -0.00026026 -0.000276557 2.51506e-12 6.13401e-11 -5.57998e-11 5e-05 1.46608e-10 
233 1 0.119006 0.0168563 0.00742967 0.00614262 -0.000684586 -0.000889818 5.17737e-11 -7.75709e-11 -1.56678e-10 5e-05 1.46608e-10 
234 1 0.125107 0.0181116 0.00696629 0.00563267 -8.90177e-05 8.0298e-05 -3.52056e-11 -5.90675e-11 -5.59505e-12 5e-05 1.46608e-10 
235 1 0.119176 0.0184541 0.00701252 0.00545142 4.81071e-05 0.000179329 -9.47167e-12 8.95308e-11 -6.36296e-10 5e-05 1.46608e-10 
236 1 0.119339 0.0183536 0.0070021 0.00554069 0.00017702 0.000153019 -1.75023e-10 3.60964e-11 4.71419e-11 5e-05 1.46608e-10 
237 1 0.119195 0.0185482 0.00694993 0.00551702 3.82195e-05 0.000192549 -1.3246e-12 3.2124e-10 -7.89779e-11 5e-05 1.46608e-10 
239 1 0.112779 0.0167726 0.00775541 0.00575153 -0.000852828 0.000204874 -1.24977e-10 3.28569e-11 -1.50562e-11 5e-05 1.46608e-10 
240 1 0.112844 0.0170167 0.00759351 0.00578935 -0.000874657 0.000216798 1.23732e-10 -1.112e-10 7.20602e-11 5e-05 1.46608e-10 
241 1 0.112757 0.0166912 0.00780937 0.00572426 -0.000850052 0.000204881 -4.33456e-11 2.5581e-11 -9.52124e-12 5e-05 1.46608e-10 
242 1 0.119122 0.0169494 0.00733238 0.00634449 0.000114081 0.000206964 -2.0676e-11 3.15924e-11 1.2465e-11 5e-05 1.46608e-10 
243 1 0.118869 0.0166927 0.00758624 0.00615548 -0.000261073 -0.000287561 2.77865e-11 -5.59509e-11 7.25652e-11 5e-05 1.46608e-10 
244 1 0.112801 0.016854 0.00770144 0.00576841 -0.000864138 0.000211186 9.41585e-11 -1.71261e-11 3.90344e-12 5e-05 1.46608e-10 
246 1 0.11293 0.0173422 0.00737766 0.00586631 -0.000885359 0.000219159 1.10516e-10 -6.10236e-11 2.96143e-11 5e-05 1.46608e-10 
247 1 0.119133 0.0178444 0.00716028 0.00572916 0.00016425 0.000196179 -9.55098e-11 -4.65762e-12 2.83896e-10 5e-05 1.46608e-10 
248 1 0.119342 0.01823 0.00703203 0.00566059 0.000123879 0.000173349 1.08267e-10 2.55607e-10 -1.05915e-11 5e-05 1.46608e-10 