ITEM: TIMESTEP
14600000
ITEM: NUMBER OF ATOMS
287
ITEM: BOX BOUNDS ff ff ff
-0.02 0.43
-0.02 0.06
-0.02 0.07
ITEM: ATOMS id type x y z vx vy vz fx fy fz radius mass 
1 1 0.0979821 0.0164216 0.00781295 0.00610673 -9.09376e-06 2.9403e-05 -3.38799e-10 1.80748e-11 -1.56113e-11 5e-05 1.46608e-10 
2 1 0.0984158 0.0174686 0.00717009 0.00556305 4.2141e-05 -1.90786e-05 -2.23885e-12 1.45933e-11 -1.77175e-12 5e-05 1.46608e-10 
3 1 0.0917173 0.0157536 0.00825072 0.00634033 0.000218569 -0.000487242 -2.45415e-11 -2.26576e-11 -1.31217e-10 5e-05 1.46608e-10 
4 1 0.0982964 0.017777 0.00709416 0.00560888 7.2722e-05 -2.63091e-05 -2.88896e-11 1.10376e-10 -2.73986e-11 5e-05 1.46608e-10 
5 1 0.0978639 0.0163233 0.00789626 0.00612489 9.02564e-06 1.39457e-05 -4.46604e-12 -1.80346e-11 1.51519e-11 5e-05 1.46608e-10 
6 1 0.104004 0.0168743 0.00755182 0.00579999 0.000516661 -0.000108749 3.31264e-12 -1.09753e-10 3.81799e-11 5e-05 1.46608e-10 
7 1 0.0980435 0.0169952 0.00732516 0.00573159 4.95808e-05 -1.89118e-05 -9.06756e-11 -3.10236e-11 -1.5798e-11 5e-05 1.46608e-10 
8 1 0.0977552 0.0159516 0.00821254 0.0061262 8.39548e-06 1.49599e-05 -3.99183e-12 3.03768e-14 2.95036e-13 5e-05 1.46608e-10 
9 1 0.104251 0.0179852 0.00697534 0.00576445 0.000460401 -0.000262054 3.49937e-12 -7.10693e-12 2.79449e-12 5e-05 1.46608e-10 
10 1 0.097986 0.0167706 0.00751559 0.00575058 4.98384e-05 -2.23798e-05 7.14348e-11 9.60729e-11 -6.49544e-11 5e-05 1.46608e-10 
11 1 0.0984566 0.0176618 0.00712233 0.0056072 6.43354e-05 -2.44774e-05 -7.33099e-11 6.02812e-12 -3.32308e-12 5e-05 1.46608e-10 
12 1 0.0919315 0.0165701 0.00772069 0.00603018 0.000617359 -0.000161783 -9.32846e-11 -1.45394e-11 -1.35354e-11 5e-05 1.46608e-10 
13 1 0.0978421 0.0162489 0.00795951 0.00613063 1.40162e-05 1.00496e-05 1.46213e-11 -2.80636e-11 2.41422e-11 5e-05 1.46608e-10 
14 1 0.0916343 0.0155507 0.00858496 0.0062242 9.62253e-05 -0.000585312 5.00121e-10 7.29932e-11 9.68759e-12 5e-05 1.46608e-10 
15 1 0.0981789 0.0172058 0.00723534 0.00571319 6.26051e-05 -2.37606e-05 4.18631e-11 5.14283e-11 -3.45054e-11 5e-05 1.46608e-10 
16 1 0.0916138 0.0155019 0.00866974 0.00618129 0.000120225 -0.000614182 -4.56953e-10 7.03288e-11 -9.80951e-11 5e-05 1.46608e-10 
17 1 0.0979666 0.0166959 0.00757917 0.00576262 5.27131e-05 -2.2958e-05 -9.68727e-13 8.72834e-11 -8.16401e-11 5e-05 1.46608e-10 
18 1 0.104136 0.0174283 0.0071447 0.00574127 0.000503728 -0.000103092 8.01973e-11 4.12066e-11 -4.28472e-11 5e-05 1.46608e-10 
19 1 0.0978204 0.0161746 0.00802277 0.00613046 1.23963e-05 1.15072e-05 1.48368e-11 2.40541e-11 -1.98736e-11 5e-05 1.46608e-10 
21 1 0.0979604 0.0163472 0.00787621 0.00610693 9.5688e-07 2.11427e-05 -6.89741e-11 1.16656e-10 -1.01178e-10 5e-05 1.46608e-10 
22 1 0.09808 0.0171704 0.00724422 0.00572049 5.16076e-05 -1.61698e-05 -2.41148e-13 -5.24607e-11 -3.50703e-11 5e-05 1.46608e-10 
23 1 0.092118 0.0169461 0.00749552 0.00591626 0.000637191 -0.000163232 -4.77774e-11 1.39908e-11 -1.80177e-11 5e-05 1.46608e-10 
24 1 0.104193 0.0176982 0.00704048 0.00574326 0.00046432 -0.000266476 -1.31797e-10 2.30632e-11 -1.901e-11 5e-05 1.46608e-10 
25 1 0.0980247 0.0169201 0.00738846 0.00574046 4.78744e-05 -1.94956e-05 -3.76164e-11 2.06251e-11 1.61839e-12 5e-05 1.46608e-10 
26 1 0.104081 0.0171906 0.00731944 0.00570993 0.000505552 -0.000106394 5.60761e-11 2.80413e-11 -2.62993e-11 5e-05 1.46608e-10 
27 1 0.0920121 0.016905 0.00751749 0.0058931 0.000642032 -0.000166108 4.93739e-11 8.30393e-11 -6.69427e-11 5e-05 1.46608e-10 
28 1 0.0982768 0.0176818 0.00711769 0.00557001 8.66729e-05 -2.87065e-05 1.87474e-11 1.14431e-10 6.23345e-12 5e-05 1.46608e-10 
29 1 0.0977987 0.0161003 0.00808603 0.00612637 1.27635e-05 1.12247e-05 -8.11635e-12 3.01478e-11 -2.5893e-11 5e-05 1.46608e-10 
30 1 0.0983131 0.0174273 0.00718047 0.00557013 9.62154e-05 -3.18489e-05 -4.13006e-11 2.13541e-10 -6.63538e-11 5e-05 1.46608e-10 
31 1 0.0980599 0.0170753 0.00726773 0.00572449 5.25642e-05 -1.99301e-05 -1.62777e-11 -3.66525e-11 -8.00496e-12 5e-05 1.46608e-10 
32 1 0.0981587 0.0171139 0.0072692 0.00572471 5.96362e-05 -2.43429e-05 -2.49071e-11 5.17235e-11 -3.20227e-11 5e-05 1.46608e-10 
33 1 0.104024 0.0169534 0.00749377 0.00583296 0.00050372 -9.95336e-05 -4.60748e-11 -3.82503e-11 9.42521e-11 5e-05 1.46608e-10 
34 1 0.0979481 0.0166211 0.00764286 0.00578259 4.99302e-05 -2.14806e-05 -1.55685e-11 7.18491e-11 -6.4197e-11 5e-05 1.46608e-10 
35 1 0.0981372 0.0170219 0.00730202 0.00573302 5.67772e-05 -2.67489e-05 -5.38526e-11 1.86975e-11 -3.99083e-11 5e-05 1.46608e-10 
36 1 0.104291 0.0181784 0.00694378 0.00576018 0.000542025 0.000541182 1.08289e-11 1.93799e-11 1.49433e-13 5e-05 1.46608e-10 
37 1 0.0981006 0.0168706 0.00743083 0.00574392 4.93326e-05 -2.04589e-05 -1.32843e-11 3.10781e-11 -3.43945e-11 5e-05 1.46608e-10 
38 1 0.0982533 0.0171409 0.00725124 0.00572107 6.35194e-05 -2.51167e-05 -1.25219e-10 1.02518e-10 -1.33894e-12 5e-05 1.46608e-10 
39 1 0.104212 0.0177939 0.00701877 0.00574015 0.000466107 -0.0002621 -4.36244e-12 -1.09108e-11 -7.34477e-12 5e-05 1.46608e-10 
41 1 0.0979073 0.016472 0.00776975 0.00612921 4.86111e-07 2.13793e-05 -9.9212e-11 1.30239e-11 -1.47777e-11 5e-05 1.46608e-10 
42 1 0.0981001 0.0172655 0.00722071 0.0057207 5.15238e-05 -1.89675e-05 -7.44731e-11 -5.85414e-12 2.60543e-11 5e-05 1.46608e-10 
44 1 0.0982737 0.0172366 0.00722759 0.00564442 0.000179775 -5.2986e-05 1.4204e-10 -2.88901e-10 7.25973e-11 5e-05 1.46608e-10 
45 1 0.104043 0.0170324 0.00743573 0.00586368 0.000490975 -8.93976e-05 4.97692e-12 -5.21601e-11 1.08384e-11 5e-05 1.46608e-10 
46 1 0.104118 0.0173491 0.00720296 0.00574913 0.000500373 -0.000100382 1.32365e-10 6.32367e-11 -2.99467e-11 5e-05 1.46608e-10 
47 1 0.0979284 0.0165464 0.00770639 0.00578337 5.08416e-05 -2.26183e-05 -2.36915e-11 2.71432e-11 -1.57986e-11 5e-05 1.46608e-10 
48 1 0.0981395 0.0174559 0.00717366 0.00556348 0.000111396 -3.5838e-05 -1.51784e-10 -3.1057e-10 9.14698e-11 5e-05 1.46608e-10 
49 1 0.1041 0.0172699 0.00726118 0.00574959 0.000499544 -9.94285e-05 2.56012e-11 6.63232e-11 -5.138e-11 5e-05 1.46608e-10 
50 1 0.098198 0.0177415 0.00710306 0.00557832 9.57862e-05 -3.18311e-05 7.62035e-11 1.23888e-10 -5.69088e-11 5e-05 1.46608e-10 
51 1 0.0981785 0.0176463 0.0071266 0.00557338 0.000106973 -3.54563e-05 -6.20715e-11 4.58358e-11 -1.97058e-11 5e-05 1.46608e-10 
52 1 0.0919104 0.0164865 0.00777139 0.00623352 0.000583545 -0.000124262 -5.39895e-11 -4.41092e-11 -7.22935e-12 5e-05 1.46608e-10 
53 1 0.104154 0.0175075 0.00708639 0.0057349 0.000507041 -0.000105043 -1.06283e-11 3.07839e-11 -3.30996e-11 5e-05 1.46608e-10 
54 1 0.0979382 0.0162725 0.00793982 0.00611982 1.87301e-05 6.04496e-06 7.96956e-12 1.09047e-11 -9.28241e-12 5e-05 1.46608e-10 
55 1 0.0916761 0.0156484 0.0084155 0.00630514 8.26849e-05 -0.000563429 9.08576e-11 -1.08037e-10 2.04089e-10 5e-05 1.46608e-10 
56 1 0.0981193 0.0169454 0.00736717 0.00573617 5.07536e-05 -2.19818e-05 -6.34315e-11 2.62717e-11 -1.03818e-11 5e-05 1.46608e-10 
57 1 0.104063 0.0171115 0.00737764 0.0056597 0.00051646 -0.000115357 -5.14454e-11 -4.4505e-12 3.11593e-12 5e-05 1.46608e-10 
59 1 0.0981784 0.0168229 0.00747175 0.00575343 5.28791e-05 -2.38703e-05 -6.3445e-12 2.49806e-11 -2.47957e-11 5e-05 1.46608e-10 
60 1 0.0981971 0.0168977 0.00740809 0.00573857 5.78687e-05 -2.82963e-05 -5.095e-11 9.25169e-12 -1.67679e-11 5e-05 1.46608e-10 
61 1 0.0978856 0.0163976 0.007833 0.00611801 6.05218e-06 1.65884e-05 -1.94271e-10 -4.93384e-12 1.55666e-12 5e-05 1.46608e-10 
62 1 0.0982935 0.0173321 0.007204 0.00557341 0.000102381 -3.44822e-05 -1.42698e-10 6.42981e-12 -1.6844e-11 5e-05 1.46608e-10 
63 1 0.0982378 0.0174914 0.00716476 0.00552009 9.33406e-05 -3.14312e-05 -8.47793e-11 2.52952e-10 -7.60652e-11 5e-05 1.46608e-10 
64 1 0.104173 0.0176026 0.00706244 0.00574322 0.000458026 -0.000295305 -9.87093e-11 -2.45969e-11 -2.63191e-10 5e-05 1.46608e-10 
65 1 0.0920371 0.0166113 0.00769919 0.00579792 0.000614965 -0.000156634 -2.22673e-10 -8.32108e-11 3.51954e-11 5e-05 1.46608e-10 
66 1 0.0919745 0.0163593 0.00785245 0.00625409 0.000592911 -0.000125421 3.42261e-11 -1.6727e-11 1.66683e-11 5e-05 1.46608e-10 
67 1 0.0984357 0.0175645 0.0071464 0.0055788 4.22162e-05 -1.90353e-05 -5.06462e-11 8.48932e-12 -3.06306e-12 5e-05 1.46608e-10 
68 1 0.0983521 0.0176177 0.0071334 0.00559709 6.9865e-05 -2.61025e-05 5.39822e-11 1.40596e-10 -3.57441e-11 5e-05 1.46608e-10 
69 1 0.0980425 0.0166464 0.00762158 0.00577663 5.32564e-05 -2.43021e-05 -9.47617e-11 1.11089e-10 -9.99562e-11 5e-05 1.46608e-10 
70 1 0.104232 0.0178895 0.00699706 0.00574137 0.000465544 -0.00026217 -2.29074e-12 -1.21152e-11 5.19598e-12 5e-05 1.46608e-10 
71 1 0.0916549 0.0155996 0.00850017 0.00623808 7.99015e-05 -0.00056791 5.87528e-10 -5.96457e-11 1.79783e-10 5e-05 1.46608e-10 
72 1 0.0983325 0.0175225 0.00715693 0.0055843 8.13744e-05 -2.83433e-05 1.24949e-10 1.76121e-10 -3.33879e-11 5e-05 1.46608e-10 
73 1 0.0980056 0.0168453 0.00745204 0.00574412 4.77907e-05 -2.15804e-05 9.19893e-12 8.19249e-11 3.23442e-12 5e-05 1.46608e-10 
74 1 0.0981988 0.017301 0.00721206 0.00556933 9.29061e-05 -3.02366e-05 -2.01203e-10 1.62698e-10 -4.76945e-14 5e-05 1.46608e-10 
76 1 0.0922416 0.0174577 0.00715493 0.0056543 0.000365769 -0.000499744 2.44742e-10 1.00318e-10 2.68981e-11 5e-05 1.46608e-10 
77 1 0.0983308 0.0183852 0.00694396 0.00564023 8.75584e-05 -3.09572e-05 1.68278e-11 -3.43553e-11 8.21673e-12 5e-05 1.46608e-10 
78 1 0.0917387 0.0158228 0.00818183 0.00638951 0.000449095 -0.000248075 -3.12535e-11 -7.45993e-11 -1.99541e-10 5e-05 1.46608e-10 
79 1 0.0919515 0.0166537 0.00766969 0.00582191 0.000655975 -0.000181652 -1.34355e-10 -5.56906e-11 1.29531e-11 5e-05 1.46608e-10 
80 1 0.0982372 0.0179319 0.00705601 0.00562384 8.41864e-05 -2.79784e-05 -8.20715e-12 3.30965e-11 4.76843e-12 5e-05 1.46608e-10 
81 1 0.0918897 0.0164029 0.00782223 0.0062464 0.000578097 -0.000113951 -1.86056e-11 -2.6958e-11 -3.68386e-11 5e-05 1.46608e-10 
82 1 0.0920323 0.0169884 0.0074661 0.00591137 0.000637008 -0.000164716 3.27851e-11 1.27496e-10 -6.20641e-11 5e-05 1.46608e-10 
83 1 0.0920743 0.0163574 0.00785744 0.00625186 0.000613657 -0.000136833 1.3226e-10 4.89012e-11 -3.16738e-11 5e-05 1.46608e-10 
84 1 0.104271 0.0180808 0.00695363 0.00578582 0.000455846 -0.000261709 2.65207e-11 1.2559e-11 -6.02325e-12 5e-05 1.46608e-10 
85 1 0.0918388 0.0158516 0.0081608 0.00636633 0.000576713 -0.000106374 -1.72231e-10 3.92108e-11 1.65789e-11 5e-05 1.46608e-10 
86 1 0.0982573 0.0175866 0.00714122 0.0055413 8.85954e-05 -3.02077e-05 -8.8618e-11 1.37939e-10 -2.70495e-11 5e-05 1.46608e-10 
87 1 0.0981592 0.0167481 0.00753536 0.00577884 4.28343e-05 -1.57358e-05 1.01335e-11 -4.06314e-12 -1.06471e-12 5e-05 1.46608e-10 
88 1 0.0982732 0.018106 0.00701297 0.00562614 7.66242e-05 -2.75642e-05 4.05981e-11 1.71029e-11 2.02355e-12 5e-05 1.46608e-10 
89 1 0.0982567 0.0180284 0.00707379 0.00562946 8.06487e-05 -2.48145e-05 5.2517e-11 5.29681e-12 2.90377e-11 5e-05 1.46608e-10 
90 1 0.0983946 0.017371 0.00719423 0.00556891 8.35148e-05 -2.90793e-05 -9.79131e-11 1.82022e-10 -4.09625e-11 5e-05 1.46608e-10 
91 1 0.0919719 0.0167374 0.00761883 0.0058115 0.000654715 -0.00017785 -1.59939e-11 -7.7934e-11 2.86392e-11 5e-05 1.46608e-10 
92 1 0.0984111 0.0179032 0.00706282 0.00561753 6.27382e-05 -2.45807e-05 -1.78374e-11 -1.20888e-10 1.85153e-11 5e-05 1.46608e-10 
93 1 0.0983685 0.0180768 0.00702003 0.00562701 7.08509e-05 -2.61753e-05 1.96592e-11 -1.15082e-10 2.2912e-11 5e-05 1.46608e-10 
94 1 0.0984541 0.018244 0.00697864 0.00563914 9.78928e-05 -3.28417e-05 6.42685e-11 -1.46929e-10 -1.01373e-10 5e-05 1.46608e-10 
95 1 0.0983893 0.0179756 0.00712835 0.00562481 6.3709e-05 -2.40585e-05 5.56591e-11 -2.28113e-10 3.78261e-11 5e-05 1.46608e-10 
96 1 0.0984281 0.0179989 0.00703918 0.00562443 6.49732e-05 -2.4002e-05 1.27108e-11 -1.51066e-10 4.01603e-11 5e-05 1.46608e-10 
97 1 0.091846 0.0162363 0.00792377 0.00627505 0.000568855 -0.000109646 6.23694e-11 5.75186e-11 4.26599e-11 5e-05 1.46608e-10 
98 1 0.0982923 0.0182042 0.0070141 0.00560062 8.11275e-05 -3.16387e-05 1.33251e-10 5.90394e-11 -2.47404e-11 5e-05 1.46608e-10 
99 1 0.0920171 0.0165276 0.00775014 0.0061944 0.000856682 -0.000288789 -4.603e-11 1.37724e-10 -1.48568e-10 5e-05 1.46608e-10 
100 1 0.0983551 0.0171802 0.00724139 0.00569605 0.000329459 -9.04352e-05 5.82002e-10 -4.16491e-10 1.03796e-10 5e-05 1.46608e-10 
101 1 0.0919521 0.0162758 0.00790313 0.00626813 0.000580307 -0.000117282 -2.6147e-11 -5.34006e-13 -7.01982e-12 5e-05 1.46608e-10 
102 1 0.0643568 0.0187248 0.00531097 4.06832e-15 1.05283e-14 8.29664e-14 3.91166e-22 -3.0236e-22 1.5096e-23 5e-05 1.46608e-10 
103 1 0.24257 0.0191927 0.00520306 -4.31789e-22 4.86658e-23 -5.81428e-22 0 0 0 5e-05 1.46608e-10 
104 1 0.0923138 0.0173515 0.0072307 0.0055945 0.00044901 -0.000581055 -2.9331e-10 -1.19009e-10 -2.94778e-11 5e-05 1.46608e-10 
105 1 0.0918031 0.0160693 0.00802496 0.00633649 0.000566948 -0.000107958 -3.66171e-11 3.51579e-11 -6.15853e-11 5e-05 1.46608e-10 
106 1 0.0923908 0.0172967 0.00726333 0.00569578 0.000479901 -0.000583395 2.50942e-11 1.84793e-10 -1.22655e-10 5e-05 1.46608e-10 
107 1 0.0917604 0.0159029 0.00812605 0.00637248 0.000562684 -9.97396e-05 -3.8932e-11 6.81455e-12 -7.77266e-11 5e-05 1.46608e-10 
108 1 0.0980814 0.0167958 0.00749444 0.00575194 5.027e-05 -2.11493e-05 -2.20245e-11 1.3639e-10 -1.0442e-10 5e-05 1.46608e-10 
109 1 0.098159 0.0175511 0.00715013 0.00557889 0.000111304 -3.67234e-05 -1.78106e-10 -1.80741e-10 5.1673e-11 5e-05 1.46608e-10 
110 1 0.0985147 0.0183214 0.00695943 0.005647 0.000102307 -3.43072e-05 -1.78746e-11 4.1094e-11 5.09013e-13 5e-05 1.46608e-10 
111 1 0.0983367 0.018399 0.00704282 0.00564129 9.51712e-05 -3.09971e-05 -8.92995e-12 -4.40579e-11 8.00264e-12 5e-05 1.46608e-10 
112 1 0.0918675 0.0163196 0.00787283 0.00626338 0.000567759 -0.000110392 -1.49086e-11 2.23004e-11 2.54783e-11 5e-05 1.46608e-10 
113 1 0.0926646 0.0179825 0.00697141 0.00580812 0.000628042 2.22414e-05 -2.78998e-10 -2.10027e-10 4.90085e-11 5e-05 1.46608e-10 
114 1 0.0922567 0.0171103 0.00739944 0.00580243 0.000669959 -0.000187022 4.398e-11 -2.23214e-11 8.91979e-11 5e-05 1.46608e-10 
115 1 0.0982184 0.0173961 0.00718829 0.0055537 9.11839e-05 -3.15341e-05 2.77268e-11 2.29119e-10 -4.29633e-11 5e-05 1.46608e-10 
116 1 0.0980619 0.0167212 0.007558 0.0057647 5.14152e-05 -2.28766e-05 -1.47532e-11 8.23897e-11 -7.26701e-11 5e-05 1.46608e-10 
117 1 0.0979164 0.0161981 0.00800312 0.00612679 2.58083e-05 9.71677e-08 3.05403e-11 -4.66767e-11 3.92817e-11 5e-05 1.46608e-10 
118 1 0.091696 0.0156973 0.00833061 0.00633646 9.77803e-05 -0.000563369 9.87499e-11 -3.31591e-11 1.19714e-11 5e-05 1.46608e-10 
119 1 0.0982135 0.0169728 0.00734414 0.00573478 5.88676e-05 -3.13504e-05 -8.35737e-11 1.06349e-11 -8.80871e-12 5e-05 1.46608e-10 
120 1 0.097777 0.0160259 0.00814928 0.00612733 1.07538e-05 1.29339e-05 -1.32911e-11 2.14911e-11 -1.79985e-11 5e-05 1.46608e-10 
121 1 0.0977335 0.0158773 0.0082758 0.00612383 6.14499e-06 1.68727e-05 -4.01775e-12 -1.81018e-11 1.55434e-11 5e-05 1.46608e-10 
122 1 0.0985315 0.018432 0.00693212 0.00561867 0.000870371 -0.000223575 -3.14632e-11 -6.8273e-12 -7.95278e-12 5e-05 1.46608e-10 
123 1 0.0918838 0.0160204 0.00805826 0.00634672 0.000573165 -0.00010947 -2.52531e-11 1.15107e-10 -9.98517e-11 5e-05 1.46608e-10 
124 1 0.0983318 0.017968 0.00704694 0.00562795 7.98471e-05 -2.7784e-05 2.21444e-11 -7.81246e-11 2.25243e-11 5e-05 1.46608e-10 
125 1 0.0978946 0.0161237 0.00806641 0.00612415 5.15929e-06 1.76936e-05 -1.2964e-11 3.05964e-11 -2.61037e-11 5e-05 1.46608e-10 
126 1 0.0981199 0.0173607 0.0071972 0.00552366 0.000110963 -3.53317e-05 -6.52451e-10 -6.56404e-11 1.35666e-11 5e-05 1.46608e-10 
127 1 0.0918261 0.0161538 0.00797669 0.00630221 0.000569637 -0.000110041 7.88647e-11 5.50517e-11 -1.907e-11 5e-05 1.46608e-10 
128 1 0.0982176 0.0178367 0.00707953 0.00561317 8.29889e-05 -2.85191e-05 -7.86654e-12 8.07528e-11 -2.7267e-11 5e-05 1.46608e-10 
129 1 0.0983406 0.0181496 0.00708264 0.00559842 6.9098e-05 -3.96242e-05 1.37021e-10 -6.98208e-11 -1.87303e-11 5e-05 1.46608e-10 
130 1 0.092138 0.0170301 0.00744444 0.00582972 0.000662747 -0.00018402 -5.48194e-11 5.18775e-11 -2.53878e-11 5e-05 1.46608e-10 
131 1 0.0919956 0.0164435 0.00780122 0.00624959 0.000598447 -0.000128231 -5.52644e-11 4.03134e-11 1.59608e-10 5e-05 1.46608e-10 
132 1 0.0983161 0.0178722 0.00707063 0.00562653 8.15862e-05 -2.95006e-05 -8.49921e-11 -6.00916e-11 1.21053e-11 5e-05 1.46608e-10 
133 1 0.0980819 0.0164493 0.00778971 0.00576711 3.79997e-05 -1.159e-05 1.69875e-10 1.09229e-10 -9.35098e-11 5e-05 1.46608e-10 
134 1 0.0982327 0.0170476 0.00728052 0.00571248 5.59541e-05 -3.42533e-05 -2.93039e-11 6.41423e-12 8.75189e-11 5e-05 1.46608e-10 
135 1 0.0978729 0.0160494 0.00812967 0.00610029 4.72589e-06 1.79935e-05 -7.39272e-12 2.06197e-11 -1.78835e-11 5e-05 1.46608e-10 
136 1 0.091817 0.0157681 0.00821151 0.00642535 0.000567023 -9.69974e-05 -3.9212e-11 -5.11675e-11 1.01787e-11 5e-05 1.46608e-10 
137 1 0.0983511 0.0184882 0.00694042 0.00561336 6.43366e-05 -3.05448e-05 2.50911e-11 3.72234e-11 3.61627e-11 5e-05 1.46608e-10 
138 1 0.0980232 0.0165709 0.00768585 0.00579564 5.99407e-05 -3.01226e-05 -2.44206e-11 4.92327e-11 -4.12186e-11 5e-05 1.46608e-10 
140 1 0.0984316 0.0184293 0.00693291 0.00563444 9.80891e-05 -3.50901e-05 -6.07122e-11 -7.05963e-11 7.26888e-12 5e-05 1.46608e-10 
141 1 0.0918611 0.015935 0.00811016 0.00634277 0.000541611 -9.08748e-05 -1.83146e-10 1.52408e-10 -6.04634e-11 5e-05 1.46608e-10 
142 1 0.0922759 0.0171931 0.00734674 0.00576758 0.000618758 -0.000284153 -7.29358e-11 6.89758e-11 2.24657e-10 5e-05 1.46608e-10 
143 1 0.0917825 0.0159903 0.00808279 0.00636043 0.000564116 -0.000104049 -1.42851e-10 7.45992e-11 -6.45332e-11 5e-05 1.46608e-10 
144 1 0.0922382 0.0170265 0.00745071 0.00585063 0.000665883 -0.000174705 2.17577e-11 -5.52838e-11 -3.1504e-11 5e-05 1.46608e-10 
146 1 0.0920954 0.016441 0.00780666 0.00625506 0.000617091 -0.000140338 -6.36837e-11 7.04995e-11 -9.83123e-11 5e-05 1.46608e-10 
147 1 0.0917994 0.0157172 0.00829575 0.00637153 0.000340598 -0.000239334 -1.81194e-11 1.77843e-10 1.56363e-10 5e-05 1.46608e-10 
148 1 0.0920901 0.0172398 0.00731303 0.00576328 0.000658502 -0.000188147 6.68739e-12 2.26303e-11 9.64734e-11 5e-05 1.46608e-10 
149 1 0.0984154 0.0183335 0.00695659 0.00564623 9.94748e-05 -3.00022e-05 5.37825e-11 -5.84644e-11 1.45283e-10 5e-05 1.46608e-10 
150 1 0.092137 0.0166081 0.00770503 0.00599651 0.000661165 -0.000176914 -8.73907e-11 4.4443e-11 -2.1365e-11 5e-05 1.46608e-10 
151 1 0.0925105 0.0174022 0.00718293 0.00571257 0.000475892 -0.000580825 -7.24763e-11 1.10885e-10 -8.76264e-11 5e-05 1.46608e-10 
153 1 0.0919304 0.016192 0.00795407 0.00628582 0.000578532 -0.000118785 4.72316e-11 -6.35742e-11 -1.01061e-10 5e-05 1.46608e-10 
154 1 0.0921956 0.0172792 0.00728414 0.00561462 0.000411815 -0.000540124 -1.3749e-10 2.08134e-10 -1.14461e-10 5e-05 1.46608e-10 
155 1 0.0922599 0.0175375 0.00709746 0.00577092 0.000349057 -0.000472113 3.25553e-11 3.38737e-11 1.10581e-10 5e-05 1.46608e-10 
156 1 0.0921761 0.017198 0.00734218 0.00576376 0.000658562 -0.000186409 -6.01961e-11 -7.59916e-11 7.98853e-11 5e-05 1.46608e-10 
157 1 0.0219312 0.0187687 0.00551176 -3.83863e-14 8.15956e-14 2.959e-13 -5.17479e-22 1.37002e-23 -6.82424e-23 5e-05 1.46608e-10 
158 1 0.0922759 0.017444 0.00724948 0.00564276 0.000476897 -0.000554769 3.23127e-12 -1.4602e-10 2.89068e-11 5e-05 1.46608e-10 
159 1 0.0983716 0.0177129 0.00710987 0.00560446 6.426e-05 -2.46861e-05 -6.58894e-11 7.17639e-11 -1.15877e-11 5e-05 1.46608e-10 
160 1 0.092145 0.0174806 0.00714278 0.0056791 0.000424189 -0.000548573 -1.43753e-10 -2.2688e-10 1.96859e-10 5e-05 1.46608e-10 
162 1 0.0921087 0.0173212 0.00725797 0.00563893 0.000436597 -0.000569709 -1.2237e-10 -5.13992e-11 8.64118e-11 5e-05 1.46608e-10 
164 1 0.0923815 0.017884 0.00698524 0.00581403 0.000650818 1.81993e-05 -9.3111e-11 -1.8903e-11 -3.01155e-11 5e-05 1.46608e-10 
165 1 0.0925631 0.0176619 0.00703924 0.00581998 0.000681773 7.01842e-06 1.3306e-10 2.67115e-10 2.20311e-11 5e-05 1.46608e-10 
166 1 0.0980392 0.0163005 0.00791632 0.00609951 -5.33851e-06 2.65901e-05 1.36696e-11 1.79909e-10 -1.52997e-10 5e-05 1.46608e-10 
167 1 0.0921169 0.0165244 0.00775594 0.00617209 0.000635619 -0.000154236 -4.81481e-11 9.01795e-11 -7.57347e-11 5e-05 1.46608e-10 
168 1 0.0924142 0.0173753 0.00720623 0.00570431 0.000487868 -0.000592719 -4.94213e-11 1.38219e-10 -9.04829e-11 5e-05 1.46608e-10 
169 1 0.0925711 0.0179473 0.00697656 0.00578793 0.000638922 2.03882e-05 -2.02998e-10 2.34998e-11 3.31411e-11 5e-05 1.46608e-10 
170 1 0.0924328 0.017455 0.00714866 0.00571964 0.000485075 -0.000610904 -7.93895e-11 1.26339e-10 1.58708e-10 5e-05 1.46608e-10 
171 1 0.0980609 0.0163748 0.00785306 0.00609742 -9.15516e-06 2.99987e-05 -4.3501e-10 1.83425e-10 -1.59225e-10 5e-05 1.46608e-10 
172 1 0.0925449 0.0175655 0.00706504 0.00573805 0.000548395 -0.000637332 1.30754e-10 -9.48877e-11 7.83912e-11 5e-05 1.46608e-10 
173 1 0.0984989 0.0178567 0.00707416 0.00562514 7.13651e-05 -2.65217e-05 4.33184e-11 -3.71034e-11 5.53647e-12 5e-05 1.46608e-10 
174 1 0.092356 0.0175118 0.00711924 0.00568136 0.000534075 -0.000446513 1.97665e-10 1.2661e-10 4.76212e-11 5e-05 1.46608e-10 
175 1 0.0861547 0.017553 0.00721244 0.00549246 -0.000182253 3.65513e-05 -2.16123e-11 -8.279e-11 2.60642e-11 5e-05 1.46608e-10 
176 1 0.092157 0.0171139 0.00739337 0.00580535 0.00067029 -0.000189659 -1.75759e-12 1.03265e-11 -2.20195e-11 5e-05 1.46608e-10 
177 1 0.0921824 0.0176461 0.00703748 0.00581659 0.000513849 -0.000384897 -1.64505e-10 -7.36131e-11 8.31588e-11 5e-05 1.46608e-10 
178 1 0.0926451 0.0178821 0.00699297 0.00579335 0.000622326 2.24752e-05 -2.62774e-10 2.0266e-11 -2.08216e-11 5e-05 1.46608e-10 
179 1 0.09255 0.0178518 0.00699703 0.00579845 0.00063416 2.11363e-05 -5.07567e-12 1.03964e-10 3.52268e-12 5e-05 1.46608e-10 
181 1 0.0921254 0.0174104 0.00729991 0.00566411 0.000439811 -0.0005692 -1.31297e-10 -4.77507e-11 9.28933e-11 5e-05 1.46608e-10 
182 1 0.0980032 0.0164961 0.00774953 0.00576261 3.29284e-05 -7.34585e-06 2.7721e-11 1.49459e-11 -1.57207e-11 5e-05 1.46608e-10 
183 1 0.0923366 0.0174288 0.00717147 0.0055937 0.000463067 -0.000575055 8.34075e-11 -3.87e-11 4.20293e-11 5e-05 1.46608e-10 
184 1 0.0983563 0.0178637 0.00716178 0.00562287 6.80093e-05 -2.74218e-05 -5.81497e-11 9.62926e-11 -2.50977e-11 5e-05 1.46608e-10 
185 1 0.0920711 0.017156 0.00736409 0.00578714 0.000652462 -0.000181909 2.98802e-11 3.26095e-11 -2.92695e-11 5e-05 1.46608e-10 
186 1 0.0921342 0.0173193 0.00735464 0.00603173 0.000748543 -0.000666464 6.56129e-11 2.77203e-10 1.62199e-11 5e-05 1.46608e-10 
187 1 0.098335 0.0170849 0.00726495 0.00572936 6.50632e-05 -2.21202e-05 -2.08466e-10 1.13676e-10 -1.73025e-11 5e-05 1.46608e-10 
188 1 0.0983856 0.0181727 0.00699634 0.00560281 9.72374e-05 -3.35646e-05 1.19258e-10 -4.88858e-11 6.46993e-12 5e-05 1.46608e-10 
189 1 0.098375 0.0172758 0.00721776 0.00556106 8.21449e-05 -2.8381e-05 -1.48096e-10 9.77501e-11 -3.10346e-11 5e-05 1.46608e-10 
190 1 0.0862727 0.0176792 0.00716539 0.00551315 -0.000185284 3.71765e-05 -5.21212e-11 8.71343e-12 -3.6879e-12 5e-05 1.46608e-10 
191 1 0.0983702 0.0185762 0.00689677 0.00563621 5.31739e-05 -2.23529e-05 -1.48564e-11 -1.41529e-11 6.53775e-12 5e-05 1.46608e-10 
192 1 0.092353 0.0171375 0.0073784 0.00571511 0.000470756 -0.000557965 -7.55137e-11 3.65085e-10 3.09985e-10 5e-05 1.46608e-10 
193 1 0.0981396 0.0166735 0.00759891 0.00579298 3.53018e-05 -9.17025e-06 -1.53873e-10 9.53015e-11 -7.94798e-11 5e-05 1.46608e-10 
194 1 0.0921783 0.0167753 0.00760335 0.00575773 0.000689457 -0.000203879 1.40622e-10 -1.68139e-10 1.02557e-10 5e-05 1.46608e-10 
195 1 0.0925788 0.0177584 0.0070184 0.00587678 0.000663904 1.67716e-05 -1.90401e-10 1.98737e-10 -7.66867e-11 5e-05 1.46608e-10 
196 1 0.0915932 0.015453 0.00875453 0.00611353 0.00012723 -0.000625077 -8.30714e-11 5.24752e-11 -1.49721e-10 5e-05 1.46608e-10 
197 1 0.0862134 0.0178291 0.00711064 0.00553336 -0.000186417 3.75748e-05 1.67164e-11 1.05046e-10 -3.65443e-11 5e-05 1.46608e-10 
198 1 0.091992 0.016821 0.00756791 0.0058625 0.000644919 -0.000170453 2.57144e-11 1.88022e-11 4.05501e-12 5e-05 1.46608e-10 
199 1 0.0921268 0.0174009 0.00720037 0.00566527 0.00043695 -0.000557819 8.77949e-11 -1.04137e-10 7.38765e-11 5e-05 1.46608e-10 
200 1 0.0920978 0.0168623 0.00754649 0.00588245 0.000606935 -0.000146804 4.13367e-11 7.95223e-12 -6.54107e-12 5e-05 1.46608e-10 
201 1 0.0925242 0.0180333 0.00695631 0.0057789 0.000638655 2.46212e-05 1.22844e-11 4.26578e-11 4.42689e-11 5e-05 1.46608e-10 
202 1 0.0923721 0.0172171 0.00732088 0.00569258 0.000471661 -0.000575241 1.04846e-10 2.107e-10 -4.36872e-11 5e-05 1.46608e-10 
203 1 0.0985954 0.0182641 0.00697345 0.00563369 8.29812e-05 -2.93893e-05 -2.09505e-11 5.40287e-11 -2.11883e-11 5e-05 1.46608e-10 
204 1 0.0920777 0.0167786 0.00759741 0.00584449 0.000610326 -0.000151004 -7.7284e-11 -4.98631e-12 3.06459e-13 5e-05 1.46608e-10 
205 1 0.0923576 0.0177704 0.00708474 0.00577826 0.00070759 -9.37607e-07 9.54698e-11 -6.9477e-11 5.70462e-11 5e-05 1.46608e-10 
206 1 0.0923771 0.0176006 0.00707834 0.0058194 0.000654598 -0.000149381 7.47361e-11 1.54373e-10 5.40051e-11 5e-05 1.46608e-10 
207 1 0.0919068 0.0161036 0.00800775 0.00633864 0.000613419 -0.000133108 5.14921e-11 3.9166e-11 -3.76746e-11 5e-05 1.46608e-10 
208 1 0.0922142 0.0173596 0.00722607 0.00566157 0.000425303 -0.000550582 -2.75033e-11 -4.4128e-11 1.11208e-11 5e-05 1.46608e-10 
209 1 0.0921573 0.0166918 0.00765414 0.00580129 0.000687971 -0.000201151 -2.48878e-11 -8.60548e-11 5.58231e-11 5e-05 1.46608e-10 
210 1 0.0982186 0.0177075 0.0071948 0.00555956 7.70606e-05 -3.19498e-05 -2.54455e-10 2.23857e-10 -7.5573e-11 5e-05 1.46608e-10 
211 1 0.0984659 0.0181149 0.00701049 0.0056131 9.63128e-05 -3.45927e-05 -1.16447e-10 2.57633e-11 -9.36856e-12 5e-05 1.46608e-10 
212 1 0.0924543 0.0175435 0.00710632 0.00578124 0.000471321 -0.000444194 6.32086e-11 2.88185e-10 1.8229e-10 5e-05 1.46608e-10 
213 1 0.0983138 0.0170032 0.00731862 0.00574405 5.10059e-05 -2.74917e-05 -2.44203e-10 1.10072e-10 -1.48242e-10 5e-05 1.46608e-10 
214 1 0.0984315 0.01808 0.00709767 0.00563508 7.92737e-05 -3.07201e-05 -4.78736e-11 2.17329e-11 3.8691e-11 5e-05 1.46608e-10 
215 1 0.0862523 0.0175862 0.00719969 0.00549886 -0.000184464 3.69136e-05 2.93583e-12 -1.76291e-11 7.23303e-12 5e-05 1.46608e-10 
216 1 0.0921631 0.0175603 0.00708518 0.00573572 0.000413722 -0.000559452 2.55822e-10 -1.47877e-10 1.94725e-10 5e-05 1.46608e-10 
217 1 0.0981017 0.0165239 0.00772618 0.00573979 3.86027e-05 -1.21814e-05 -5.03192e-11 1.33416e-10 -1.12967e-10 5e-05 1.46608e-10 
218 1 0.0922969 0.0177153 0.00702753 0.00580093 0.000660164 1.59635e-05 8.94109e-11 -7.94208e-11 7.12775e-11 5e-05 1.46608e-10 
219 1 0.0983096 0.0182884 0.00706738 0.00560252 9.43138e-05 -2.58328e-05 -3.1508e-11 -7.81846e-11 -2.66335e-11 5e-05 1.46608e-10 
220 1 0.0922023 0.0175559 0.00717709 0.00569581 0.000388951 -0.000554691 2.83074e-10 7.87935e-11 2.47103e-10 5e-05 1.46608e-10 
221 1 0.0861514 0.017124 0.00737577 0.00551923 -0.000301005 0.000365128 -2.3837e-10 4.40137e-10 -1.03322e-11 5e-05 1.46608e-10 
222 1 0.0981202 0.0165988 0.00766249 0.00576466 3.6476e-05 -1.00665e-05 -2.45637e-10 1.32841e-10 -1.1331e-10 5e-05 1.46608e-10 
223 1 0.0922953 0.017273 0.00728981 0.00567241 0.000497033 -0.000488815 -2.5988e-10 -2.79295e-11 4.22248e-11 5e-05 1.46608e-10 
224 1 0.0920521 0.0170727 0.00741605 0.00582248 0.000645062 -0.00018012 -8.14842e-12 1.00802e-10 -7.68038e-11 5e-05 1.46608e-10 
225 1 0.0983912 0.0178081 0.00708634 0.0056103 6.064e-05 -2.4518e-05 -3.58452e-11 -1.49501e-11 1.54335e-11 5e-05 1.46608e-10 
226 1 0.0925328 0.0174841 0.0071236 0.00578589 0.000454836 -0.000572611 4.44501e-12 1.17973e-10 3.84114e-11 5e-05 1.46608e-10 
227 1 0.0862114 0.0174 0.00726839 0.0054538 -0.000174712 3.37147e-05 3.76483e-11 -3.05534e-11 1.32777e-11 5e-05 1.46608e-10 
228 1 0.0861743 0.0176451 0.00717851 0.00550858 -0.000176878 3.38968e-05 -3.09721e-11 -4.50036e-11 2.39881e-11 5e-05 1.46608e-10 
229 1 0.0921824 0.0174766 0.00723542 0.00563678 0.000400841 -0.000547227 1.52855e-10 -4.42749e-12 6.10859e-11 5e-05 1.46608e-10 
230 1 0.0924495 0.0180998 0.00695729 0.00578042 0.000650339 -0.000228161 9.40132e-11 1.28606e-10 1.78234e-10 5e-05 1.46608e-10 
231 1 0.0861353 0.017461 0.00724638 0.00544785 -0.000181676 3.58033e-05 -1.29948e-11 -6.72647e-11 1.63444e-11 5e-05 1.46608e-10 
232 1 0.092052 0.0162741 0.00790803 0.00626324 0.000608004 -0.000134079 3.69186e-11 8.06384e-12 8.62851e-13 5e-05 1.46608e-10 
233 1 0.0921977 0.0168591 0.00755234 0.00588326 0.000665294 -0.00018373 -6.32174e-12 -1.50384e-10 1.08151e-10 5e-05 1.46608e-10 
234 1 0.0983181 0.0182889 0.00696775 0.00561183 8.47094e-05 -2.85863e-05 5.87873e-11 -2.32881e-12 -1.07253e-11 5e-05 1.46608e-10 
235 1 0.092413 0.0183628 0.00695299 0.00617249 0.000581501 -0.000737713 -1.64421e-10 -1.42369e-10 4.5888e-11 5e-05 1.46608e-10 
236 1 0.0924686 0.0181992 0.0069414 0.00583412 0.000689124 -0.000571412 -1.21468e-11 -1.53618e-11 1.03384e-10 5e-05 1.46608e-10 
237 1 0.0925614 0.0182315 0.00692299 0.00589061 0.00042367 -0.000717304 1.40686e-10 -1.10618e-11 -3.55547e-11 5e-05 1.46608e-10 
239 1 0.0859559 0.0166377 0.00756486 0.00573324 -0.000322407 0.000385553 7.95699e-12 1.77708e-12 -5.37491e-12 5e-05 1.46608e-10 
240 1 0.0860169 0.0169107 0.00745655 0.00549954 -0.000269668 0.000353416 1.70551e-11 1.15888e-11 -2.14079e-11 5e-05 1.46608e-10 
241 1 0.0859353 0.0165467 0.00760094 0.00573141 -0.00032195 0.0003848 -1.3599e-11 -4.8208e-11 2.13651e-11 5e-05 1.46608e-10 
242 1 0.0923152 0.0169735 0.00748621 0.00587622 0.000692139 -0.00020109 -2.04122e-10 -1.09849e-10 6.67285e-11 5e-05 1.46608e-10 
243 1 0.0920575 0.016695 0.00764831 0.00579954 0.000615055 -0.000156245 1.59391e-11 -1.58031e-12 8.03448e-13 5e-05 1.46608e-10 
244 1 0.0859765 0.0167286 0.00752879 0.00573406 -0.000320726 0.000384349 4.30923e-12 2.25824e-11 -7.82745e-12 5e-05 1.46608e-10 
246 1 0.0860964 0.0172769 0.00731426 0.00542592 -0.000177992 4.00002e-05 3.25547e-11 1.29367e-10 -3.2018e-11 5e-05 1.46608e-10 