ITEM: TIMESTEP
13600000
ITEM: NUMBER OF ATOMS
287
ITEM: BOX BOUNDS ff ff ff
-0.02 0.43
-0.02 0.06
-0.02 0.07
ITEM: ATOMS id type x y z vx vy vz fx fy fz radius mass 
1 1 0.092112 0.0162731 0.00791099 0.00583413 0.000652007 -0.000177388 3.35976e-10 -1.88252e-10 1.407e-10 5e-05 1.46608e-10 
2 1 0.0925502 0.017335 0.00722913 0.00582518 5.93191e-05 -0.000298948 9.5155e-11 -8.98754e-11 2.64411e-12 5e-05 1.46608e-10 
3 1 0.0859547 0.0160128 0.00811238 0.00574098 -9.18761e-05 -0.000167805 3.51538e-11 2.28169e-10 -2.88272e-10 5e-05 1.46608e-10 
4 1 0.092423 0.0175894 0.00705327 0.00586188 0.000181167 -0.000359898 -1.27989e-10 -2.74074e-11 -8.46034e-11 5e-05 1.46608e-10 
5 1 0.0919964 0.0161613 0.00797558 0.00593053 0.000597006 -0.000139506 -2.71913e-10 -4.58733e-10 2.67626e-10 5e-05 1.46608e-10 
6 1 0.0981217 0.0166598 0.00761047 0.00550575 6.00643e-05 -2.98666e-05 -9.60718e-12 5.40971e-11 -3.27075e-12 5e-05 1.46608e-10 
7 1 0.0921748 0.0169149 0.00751701 0.00563835 0.000645188 -0.000172971 5.52849e-11 -4.68139e-11 2.53338e-10 5e-05 1.46608e-10 
8 1 0.0918936 0.015746 0.00823426 0.00589015 0.000269109 -0.000861222 3.78496e-11 1.61598e-10 -2.63012e-10 5e-05 1.46608e-10 
9 1 0.0983726 0.0177924 0.00709025 0.00610218 -3.29205e-05 -1.12707e-06 -1.45468e-11 2.76316e-11 -3.54987e-12 5e-05 1.46608e-10 
10 1 0.0921166 0.0166635 0.00767004 0.005604 0.000581474 -0.000140848 -2.0124e-11 -1.53201e-11 1.14983e-10 5e-05 1.46608e-10 
11 1 0.0925871 0.0174957 0.00711595 0.00580685 0.00031252 -2.48996e-05 5.78745e-10 1.21416e-10 1.07068e-10 5e-05 1.46608e-10 
12 1 0.086146 0.0167636 0.00752207 0.00552757 1.29558e-05 0.000240621 -4.50053e-11 -3.17901e-10 1.25214e-10 5e-05 1.46608e-10 
13 1 0.0919758 0.0160777 0.00802642 0.00591242 0.000670705 -0.000187234 -5.36345e-11 -3.64079e-10 2.21994e-10 5e-05 1.46608e-10 
14 1 0.0858728 0.0157567 0.00841138 0.00615211 6.58968e-06 -0.000137641 5.24305e-11 7.54759e-10 9.77093e-10 5e-05 1.46608e-10 
15 1 0.0923085 0.0171109 0.00739959 0.00567345 0.000218797 -0.000717765 -2.42329e-10 6.29372e-10 2.09024e-09 5e-05 1.46608e-10 
16 1 0.085851 0.0156912 0.00848376 0.00614276 0.000240106 6.5255e-05 1.9039e-11 -1.75546e-10 2.71498e-10 5e-05 1.46608e-10 
17 1 0.0920972 0.0165797 0.00772105 0.00569631 0.000539326 -0.00011355 6.23886e-10 -2.48401e-10 2.87281e-10 5e-05 1.46608e-10 
18 1 0.0982542 0.0172214 0.00723138 0.00567022 4.1172e-05 -1.81454e-05 1.59556e-10 2.36182e-11 -5.66714e-12 5e-05 1.46608e-10 
19 1 0.0919552 0.0159941 0.00807727 0.00591394 0.000693829 -0.000200042 6.48774e-12 -3.87862e-11 4.00602e-11 5e-05 1.46608e-10 
21 1 0.0920914 0.0161895 0.00796185 0.00597118 0.000593958 -0.000137248 -1.35007e-10 -7.10269e-10 4.35967e-10 5e-05 1.46608e-10 
22 1 0.0922137 0.0170824 0.00741502 0.00564688 0.000641678 -0.000231839 -3.02592e-10 1.02657e-10 1.01783e-09 5e-05 1.46608e-10 
23 1 0.0863191 0.0171594 0.00736881 0.0055682 2.70186e-05 0.000235895 6.07736e-11 4.74182e-10 -2.10972e-10 5e-05 1.46608e-10 
24 1 0.0983126 0.017507 0.00716077 0.00563883 5.1722e-05 -2.13392e-05 4.72629e-11 -8.83484e-11 1.70925e-11 5e-05 1.46608e-10 
25 1 0.0921553 0.0168311 0.00756801 0.00561542 0.000668624 -0.000201913 -4.28617e-10 -6.59253e-10 2.87903e-10 5e-05 1.46608e-10 
26 1 0.0981963 0.0169591 0.00735577 0.00564201 5.04996e-05 -2.23941e-05 1.38448e-10 1.43159e-10 -5.53073e-11 5e-05 1.46608e-10 
27 1 0.0862244 0.0171283 0.00737727 0.00556835 6.22774e-05 0.000221375 -7.56895e-11 1.0652e-10 -5.19864e-11 5e-05 1.46608e-10 
28 1 0.0924048 0.0175086 0.00711163 0.00576825 0.00013727 -0.000346158 -5.40765e-10 -2.29589e-10 1.29798e-10 5e-05 1.46608e-10 
29 1 0.0919347 0.0159105 0.00812813 0.00591221 0.000676585 -0.000192825 6.45276e-11 3.17123e-10 -2.08426e-10 5e-05 1.46608e-10 
30 1 0.0924426 0.0172955 0.00726195 0.00571426 0.000172771 -0.000363929 2.14703e-10 3.26992e-10 5.16179e-11 5e-05 1.46608e-10 
31 1 0.0921943 0.0169987 0.00746602 0.00567198 0.00067299 -0.000181931 -4.0937e-11 -3.82548e-10 4.22579e-11 5e-05 1.46608e-10 
32 1 0.0922889 0.0170277 0.00745172 0.0057123 0.000737318 -0.000239881 -5.04336e-10 5.8644e-10 -8.57737e-10 5e-05 1.46608e-10 
33 1 0.0981403 0.0167346 0.00754679 0.0055256 5.20909e-05 -3.01046e-05 3.84594e-10 -1.56139e-10 1.72577e-10 5e-05 1.46608e-10 
34 1 0.0920775 0.0164959 0.00777201 0.00557704 0.000544748 -0.000121414 -1.89238e-10 -3.17483e-10 1.87131e-10 5e-05 1.46608e-10 
35 1 0.0922695 0.0169439 0.00750272 0.00575565 0.00073531 -0.0002277 1.85204e-10 -1.55378e-10 1.05841e-10 5e-05 1.46608e-10 
36 1 0.0984156 0.017982 0.00704337 0.00614086 -5.14159e-05 3.05386e-06 4.14246e-11 8.74642e-11 -1.70478e-11 5e-05 1.46608e-10 
37 1 0.0922306 0.0167763 0.00760473 0.00572181 0.000621312 -0.000163714 -5.06687e-10 -3.18696e-10 1.24257e-10 5e-05 1.46608e-10 
38 1 0.0923851 0.0170578 0.00743569 0.00557408 0.000180487 -0.000429493 3.87534e-10 -2.93021e-11 5.02119e-10 5e-05 1.46608e-10 
39 1 0.098332 0.0176023 0.00713724 0.00562535 6.10714e-05 -2.37129e-05 1.75881e-11 -7.9767e-11 1.38656e-11 5e-05 1.46608e-10 
41 1 0.0920375 0.0163285 0.00787387 0.00566571 0.000522617 -0.000104106 3.53091e-10 1.85011e-10 -1.00507e-10 5e-05 1.46608e-10 
42 1 0.0922332 0.0171658 0.00736337 0.00568694 0.000454579 -0.000480788 -3.65253e-10 4.42535e-10 1.57053e-10 5e-05 1.46608e-10 
44 1 0.0924043 0.0171375 0.0073785 0.00567124 0.000111284 -0.000455764 7.84064e-10 1.74276e-10 4.17262e-10 5e-05 1.46608e-10 
45 1 0.098159 0.0168095 0.00748312 0.005546 5.61329e-05 -3.34341e-05 -1.24882e-10 -3.73334e-10 2.38827e-10 5e-05 1.46608e-10 
46 1 0.0982348 0.0171261 0.00725492 0.0056671 4.26663e-05 -1.95048e-05 -1.36284e-10 6.18459e-11 -2.31289e-11 5e-05 1.46608e-10 
47 1 0.0920575 0.0164122 0.00782295 0.00549877 0.000547296 -0.000125474 2.61432e-10 4.36884e-11 -1.61502e-11 5e-05 1.46608e-10 
48 1 0.0922717 0.0173269 0.0072513 0.00569439 0.000299403 -0.000570646 1.26261e-10 2.53223e-11 -1.11885e-09 5e-05 1.46608e-10 
49 1 0.0982155 0.0170372 0.00729637 0.00566352 4.15471e-05 -2.01122e-05 -2.14226e-10 1.96411e-10 -7.8825e-11 5e-05 1.46608e-10 
50 1 0.0923291 0.0175642 0.00707716 0.00579484 0.00012064 -0.000608244 4.02827e-10 9.73967e-10 -9.55249e-10 5e-05 1.46608e-10 
51 1 0.0923099 0.0174838 0.0071334 0.00577666 0.000262786 -0.000431261 2.68928e-10 1.24919e-09 -7.10233e-10 5e-05 1.46608e-10 
52 1 0.0861265 0.0166724 0.00755828 0.00553218 6.53119e-07 0.000245403 -1.13615e-11 -6.36317e-10 2.49184e-10 5e-05 1.46608e-10 
53 1 0.0982737 0.0173166 0.00720784 0.00566906 3.78138e-05 -1.72048e-05 8.19304e-11 3.66671e-11 -5.87314e-12 5e-05 1.46608e-10 
54 1 0.0920709 0.0161058 0.00801271 0.00595206 0.000627238 -0.000157265 -5.06095e-10 -2.61444e-11 5.29239e-12 5e-05 1.46608e-10 
55 1 0.0859151 0.0158838 0.00826289 0.00568542 -6.49333e-06 -0.000267459 -6.70208e-11 3.91232e-11 -4.90611e-11 5e-05 1.46608e-10 
56 1 0.09225 0.0168601 0.00755372 0.00574133 0.000693829 -0.000207087 -4.5684e-10 -5.30346e-10 3.63268e-10 5e-05 1.46608e-10 
57 1 0.0981777 0.0168843 0.00741945 0.00561296 5.54005e-05 -2.7512e-05 -2.34644e-10 -9.89036e-11 5.90559e-11 5e-05 1.46608e-10 
59 1 0.0923073 0.0167231 0.00764054 0.0056144 0.000483437 -8.37251e-05 -3.17739e-10 -4.73018e-10 3.56176e-10 5e-05 1.46608e-10 
60 1 0.0923267 0.0168069 0.00758954 0.00559874 0.000484606 -7.53078e-05 -8.26035e-10 -3.05312e-10 2.24978e-10 5e-05 1.46608e-10 
61 1 0.092017 0.0162449 0.00792473 0.0058655 0.000516349 -9.16164e-05 -2.20474e-12 -1.30384e-10 8.64824e-11 5e-05 1.46608e-10 
62 1 0.0924235 0.0172167 0.00732052 0.0056319 0.000175145 -0.000386045 1.0702e-09 -7.49681e-11 2.85258e-10 5e-05 1.46608e-10 
63 1 0.0923663 0.0173495 0.00722669 0.00574159 0.000254735 -0.000437206 1.24768e-10 6.239e-10 -6.0273e-10 5e-05 1.46608e-10 
64 1 0.0982931 0.0174118 0.00718431 0.00565885 4.32073e-05 -1.92152e-05 -6.58035e-11 -4.33794e-11 2.00771e-11 5e-05 1.46608e-10 
65 1 0.0862407 0.0167949 0.00751356 0.00554369 9.44836e-05 0.000207113 -2.14163e-10 1.08332e-10 -8.06597e-11 5e-05 1.46608e-10 
66 1 0.0861823 0.0165214 0.00762217 0.00556751 3.67779e-05 0.000239846 7.09771e-10 -2.58776e-10 2.2207e-10 5e-05 1.46608e-10 
67 1 0.0925695 0.0174148 0.00717206 0.00582524 0.000132651 -0.000245607 6.61239e-10 -1.8423e-10 -1.39529e-10 5e-05 1.46608e-10 
68 1 0.0924811 0.0174551 0.00714782 0.00584807 0.000194167 -0.00025597 -6.70081e-10 3.31735e-10 -1.58753e-10 5e-05 1.46608e-10 
69 1 0.0921722 0.0165247 0.00775788 0.00574906 0.000594544 -0.000145461 4.7234e-11 -3.86748e-10 2.42243e-10 5e-05 1.46608e-10 
70 1 0.0983515 0.0176975 0.0071137 0.00569493 5.202e-05 -2.15193e-05 8.06003e-11 -5.64742e-11 1.14022e-11 5e-05 1.46608e-10 
71 1 0.0858944 0.0158202 0.00833721 0.00613738 -6.57514e-05 -0.000198706 2.73742e-10 1.81821e-10 1.46686e-10 5e-05 1.46608e-10 
72 1 0.0924619 0.017375 0.00720445 0.00587557 0.000146118 -0.000336296 -1.9416e-10 1.63096e-10 -5.62752e-11 5e-05 1.46608e-10 
73 1 0.092136 0.0167473 0.00761903 0.00559374 0.000706105 -0.000219069 4.85249e-11 -4.54242e-10 2.89539e-10 5e-05 1.46608e-10 
74 1 0.0923279 0.0171905 0.00734172 0.0055986 0.000280893 -0.000439576 -4.40829e-10 4.3493e-10 -2.0684e-10 5e-05 1.46608e-10 
76 1 0.0864532 0.0177195 0.00715014 0.00607962 -0.00016193 0.000147736 2.11124e-10 -7.04711e-10 3.24541e-11 5e-05 1.46608e-10 
77 1 0.0924915 0.0181927 0.00692865 0.00518871 8.34057e-05 -0.000662421 -2.43838e-10 -2.19351e-10 -1.76257e-11 5e-05 1.46608e-10 
78 1 0.0859743 0.0160768 0.00803773 0.00573655 -0.000245554 1.04631e-05 8.52094e-11 -9.46613e-13 2.226e-11 5e-05 1.46608e-10 
79 1 0.0861655 0.0168548 0.00748586 0.00553076 3.98845e-05 0.000228928 1.55373e-13 -1.64285e-13 7.71748e-14 5e-05 1.46608e-10 
80 1 0.0923673 0.0177537 0.00703654 0.00588297 0.000672341 -0.00143169 -8.85957e-11 7.09293e-11 1.20433e-10 5e-05 1.46608e-10 
81 1 0.0861071 0.0165813 0.00759449 0.00555715 6.5927e-05 0.000219479 8.71202e-13 8.67804e-12 -3.18212e-12 5e-05 1.46608e-10 
82 1 0.0862441 0.0172194 0.00734108 0.00554535 1.52779e-05 0.000239799 -1.02469e-12 6.65681e-10 -2.49216e-10 5e-05 1.46608e-10 
83 1 0.0862574 0.0164614 0.00764991 0.00551877 3.83179e-05 0.00022958 1.04418e-10 -1.65234e-10 1.39611e-11 5e-05 1.46608e-10 
84 1 0.0983941 0.0178872 0.00706681 0.00612907 -4.1277e-05 8.12219e-07 8.53999e-11 1.15082e-10 -3.45747e-11 5e-05 1.46608e-10 
85 1 0.0860704 0.0160928 0.00801475 0.0057758 -0.000148277 -0.000108552 6.38914e-11 -1.40323e-10 1.53655e-10 5e-05 1.46608e-10 
86 1 0.0923856 0.0174291 0.00716914 0.00579824 0.000177922 -0.000379907 -4.5561e-10 6.30705e-10 -3.09364e-10 5e-05 1.46608e-10 
87 1 0.0922879 0.0166394 0.00769155 0.00566675 0.000491513 -8.6161e-05 4.01535e-10 -3.46204e-10 1.79153e-10 5e-05 1.46608e-10 
88 1 0.092407 0.0179325 0.00697526 0.00635469 0.000357477 0.00010095 -1.06394e-10 2.69969e-11 -6.50945e-11 5e-05 1.46608e-10 
89 1 0.092388 0.0178522 0.00703164 0.00629404 0.000343799 9.01801e-05 1.09346e-10 5.96473e-11 -4.41485e-10 5e-05 1.46608e-10 
90 1 0.0925309 0.0172555 0.00728663 0.00570964 7.59479e-05 -0.000300472 1.35448e-10 -1.05441e-10 3.78502e-10 5e-05 1.46608e-10 
91 1 0.0861851 0.016946 0.00744965 0.00560326 0.000186577 0.0001721 -3.20211e-11 1.32201e-10 -5.1371e-11 5e-05 1.46608e-10 
92 1 0.0925397 0.0177187 0.00702612 0.0060504 0.000357637 6.72891e-05 -5.62882e-11 5.26596e-10 1.59538e-10 5e-05 1.46608e-10 
93 1 0.0924985 0.017894 0.00700098 0.00629888 0.000356524 7.52878e-05 -3.98311e-10 -2.12095e-10 -2.28466e-10 5e-05 1.46608e-10 
94 1 0.0926134 0.0180113 0.00696362 0.0063038 0.000896605 -2.17865e-05 1.81049e-10 -2.89031e-10 4.17352e-11 5e-05 1.46608e-10 
95 1 0.0924692 0.0177784 0.00710846 0.00622418 0.000282828 0.000133296 3.23048e-10 4.25234e-10 1.67253e-10 5e-05 1.46608e-10 
96 1 0.0925592 0.0178146 0.00700547 0.00628261 0.0003212 9.85431e-05 -2.62822e-10 2.47254e-10 -1.86249e-10 5e-05 1.46608e-10 
97 1 0.0860677 0.016399 0.00766685 0.00571301 9.48072e-05 0.000203028 -9.66013e-11 -7.66363e-10 5.7089e-10 5e-05 1.46608e-10 
98 1 0.0924286 0.0180307 0.00698198 0.00622286 -0.000169549 0.000240997 -7.44442e-12 -2.32395e-10 6.76179e-11 5e-05 1.46608e-10 
99 1 0.0862212 0.0167037 0.00754976 0.00554155 5.72828e-05 0.00022213 1.39143e-10 -7.04314e-11 4.9786e-11 5e-05 1.46608e-10 
100 1 0.0924925 0.0170965 0.00740165 0.00566493 0.000125881 -0.000328978 4.67915e-10 -1.01642e-09 4.91369e-10 5e-05 1.46608e-10 
101 1 0.0861627 0.0164302 0.00765837 0.0055279 5.38899e-05 0.000214563 -9.28701e-11 -1.81468e-10 -1.99062e-11 5e-05 1.46608e-10 
102 1 0.0643568 0.0187248 0.00531097 4.43244e-15 1.04581e-14 8.2957e-14 -3.63888e-21 1.1236e-21 4.73561e-23 5e-05 1.46608e-10 
103 1 0.24257 0.0191927 0.00520306 1.3022e-22 -6.56601e-22 -5.81428e-22 -3.23117e-27 0 0 5e-05 1.46608e-10 
104 1 0.0864936 0.0175613 0.00723309 0.00603548 -0.00018514 0.000234315 -2.22833e-10 -7.5338e-10 -4.87658e-10 5e-05 1.46608e-10 
105 1 0.0860308 0.0162687 0.00781399 0.00562976 -0.000120481 -3.59042e-06 -2.68524e-10 -3.90407e-10 3.11919e-10 5e-05 1.46608e-10 
106 1 0.0865693 0.0174967 0.00724275 0.00607531 -0.000137304 0.000323631 3.20237e-10 2.12799e-10 -6.45358e-10 5e-05 1.46608e-10 
107 1 0.0859939 0.0161406 0.00796328 0.00576144 -0.000253223 1.65878e-05 -8.91727e-11 -1.10343e-10 6.5013e-11 5e-05 1.46608e-10 
108 1 0.0922112 0.0166926 0.00765573 0.00569088 0.0005616 -0.000129258 6.02575e-10 -4.16678e-10 3.29503e-10 5e-05 1.46608e-10 
109 1 0.0922908 0.0174061 0.00719331 0.0057349 0.000291147 -0.000484714 -5.32773e-11 5.82462e-10 -9.82202e-10 5e-05 1.46608e-10 
110 1 0.0926897 0.0180761 0.00695147 0.00577957 0.00159989 -0.000190878 -5.07917e-11 -1.86535e-12 1.57275e-11 5e-05 1.46608e-10 
111 1 0.0924658 0.0182028 0.00702476 0.00619308 9.20294e-05 -0.000390598 -1.35212e-10 -6.87158e-10 5.04393e-11 5e-05 1.46608e-10 
112 1 0.0860876 0.0164902 0.00763081 0.00557645 0.00013167 0.000240104 -1.34043e-10 -3.5635e-11 1.11745e-10 5e-05 1.46608e-10 
113 1 0.0869059 0.0182639 0.00694689 0.00628434 -0.000262008 5.98958e-05 -8.14089e-11 1.5491e-10 -5.12232e-11 5e-05 1.46608e-10 
114 1 0.0864343 0.0172815 0.00732427 0.00577395 -5.53619e-05 0.000276247 5.95648e-10 2.42133e-10 -3.30444e-11 5e-05 1.46608e-10 
115 1 0.0923471 0.01727 0.0072842 0.00566114 0.000254036 -0.000420624 -7.13007e-10 6.81434e-10 -3.7573e-10 5e-05 1.46608e-10 
116 1 0.0921918 0.0166088 0.00770675 0.00568124 0.000534377 -0.00011315 1.99938e-09 -9.34219e-10 6.77226e-10 5e-05 1.46608e-10 
117 1 0.0920503 0.0160222 0.00806356 0.0059211 0.000700667 -0.000204375 2.07104e-10 -4.09973e-10 2.53525e-10 5e-05 1.46608e-10 
118 1 0.0859349 0.0159486 0.00818736 0.00571323 -4.85305e-05 -0.000215965 4.19839e-11 4.82404e-11 -4.18673e-11 5e-05 1.46608e-10 
119 1 0.0923462 0.0168907 0.00753855 0.00551191 0.000489077 -6.29201e-05 -3.62618e-10 1.99412e-10 1.34432e-11 5e-05 1.46608e-10 
120 1 0.0919141 0.0158285 0.00818157 0.00590287 0.000371805 -0.000684803 9.38135e-11 8.28441e-11 -4.27013e-10 5e-05 1.46608e-10 
121 1 0.0918756 0.0156968 0.00831944 0.00584941 0.000285085 -0.000878628 1.23163e-10 1.59626e-10 -2.84199e-10 5e-05 1.46608e-10 
122 1 0.092684 0.0181735 0.00692984 0.00532559 0.0015723 -0.000197385 -2.16212e-12 1.42699e-10 -2.40505e-11 5e-05 1.46608e-10 
123 1 0.0861085 0.0162212 0.00786621 0.00559533 -0.000136426 -6.11909e-05 -3.04832e-10 2.06531e-10 4.12347e-10 5e-05 1.46608e-10 
124 1 0.0924583 0.0177847 0.00700926 0.00632673 0.000322804 0.000111916 1.13196e-10 4.78761e-11 -5.97786e-11 5e-05 1.46608e-10 
125 1 0.0920297 0.0159386 0.00811441 0.00590557 0.000701498 -0.000203385 1.02724e-10 1.94361e-10 -1.15382e-10 5e-05 1.46608e-10 
126 1 0.0922525 0.0172475 0.00730896 0.00569367 0.000319464 -0.000623725 3.09894e-10 1.12938e-10 -8.63857e-10 5e-05 1.46608e-10 
127 1 0.0860492 0.0163336 0.0077402 0.00576374 4.38655e-05 0.000150788 -8.29064e-11 -2.78353e-10 7.70413e-10 5e-05 1.46608e-10 
128 1 0.0923488 0.0176553 0.00704071 0.00578461 0.000205632 -0.000326821 -1.16833e-10 -2.49599e-10 -5.32079e-11 5e-05 1.46608e-10 
129 1 0.092469 0.0179737 0.00705354 0.00679315 0.000362449 0.000407007 3.39022e-11 -3.25039e-10 1.83103e-10 5e-05 1.46608e-10 
130 1 0.0863387 0.0172505 0.00733262 0.00545229 -2.2509e-05 0.000248532 1.21996e-09 -3.89751e-10 2.37229e-10 5e-05 1.46608e-10 
131 1 0.0862017 0.0166126 0.00758597 0.00555375 3.69924e-05 0.000230487 7.27511e-10 -2.47227e-10 1.52311e-10 5e-05 1.46608e-10 
132 1 0.0924426 0.0176882 0.00703009 0.00577317 0.00038676 7.89844e-05 -2.54962e-11 2.07031e-10 -1.72828e-11 5e-05 1.46608e-10 
133 1 0.0922082 0.016303 0.0078962 0.00600395 0.00097754 -0.000372147 2.66868e-10 -4.17866e-10 2.68498e-10 5e-05 1.46608e-10 
134 1 0.0923657 0.0169745 0.00748754 0.0054898 0.000459236 -8.03612e-05 -1.00326e-09 -2.75252e-10 -5.10906e-10 5e-05 1.46608e-10 
135 1 0.0920092 0.015855 0.00816526 0.00590008 0.000705607 -0.000205422 1.24306e-10 2.28873e-10 -1.1373e-10 5e-05 1.46608e-10 
136 1 0.0860506 0.016029 0.00808916 0.00575782 -0.000122883 -0.000129207 1.60299e-10 -1.23214e-10 9.84368e-11 5e-05 1.46608e-10 
137 1 0.0924875 0.0182923 0.00693754 0.00633842 0.000168365 -0.000802388 -3.29569e-12 -1.69588e-10 -2.93351e-11 5e-05 1.46608e-10 
138 1 0.0921523 0.0164409 0.00780891 0.00557018 0.000504346 -9.62569e-05 2.83047e-11 -1.98854e-10 1.2712e-10 5e-05 1.46608e-10 
140 1 0.0925901 0.0182067 0.00691993 0.00512429 0.00108866 -8.94762e-05 -1.47376e-10 4.01135e-11 5.13102e-11 5e-05 1.46608e-10 
141 1 0.0860899 0.0161566 0.00794028 0.00570638 -0.000159418 -9.45815e-05 -2.05778e-10 1.36181e-12 2.43183e-10 5e-05 1.46608e-10 
142 1 0.0864552 0.0173724 0.00728824 0.00603097 -9.80744e-05 0.000301018 3.11844e-10 1.61241e-10 4.02537e-12 5e-05 1.46608e-10 
143 1 0.0860124 0.0162047 0.0078886 0.0055354 -0.000179523 -4.36946e-05 2.95571e-10 -2.4171e-10 6.67553e-10 5e-05 1.46608e-10 
144 1 0.0864138 0.0171905 0.00736036 0.00563688 -2.39978e-05 0.000259265 -2.76774e-10 4.54938e-10 -1.67726e-10 5e-05 1.46608e-10 
146 1 0.086277 0.0165525 0.00761372 0.00548934 3.54413e-05 0.000228959 6.54409e-10 -3.23381e-11 5.28073e-11 5e-05 1.46608e-10 
147 1 0.0860306 0.0159653 0.00816357 0.00573916 -0.000108394 -0.000147405 6.73016e-11 -7.83261e-11 8.66341e-11 5e-05 1.46608e-10 
148 1 0.0863044 0.0174934 0.00723414 0.00592646 -0.000110958 0.000144221 2.08687e-10 -2.27368e-10 5.72038e-10 5e-05 1.46608e-10 
149 1 0.0925958 0.0181091 0.00694159 0.00558842 0.00111554 -8.0012e-05 -2.07476e-10 -2.57421e-10 1.29728e-11 5e-05 1.46608e-10 
150 1 0.0863158 0.0167348 0.0075413 0.00555719 3.72931e-05 0.000230221 3.65056e-10 1.46344e-10 -8.17063e-11 5e-05 1.46608e-10 
151 1 0.086664 0.017528 0.00723423 0.00605022 -9.08142e-05 0.000310604 5.15033e-10 4.90008e-11 -1.79952e-10 5e-05 1.46608e-10 
153 1 0.0861459 0.016357 0.00772432 0.0054977 2.31487e-07 0.000119509 -1.89508e-10 -1.60205e-10 -1.39096e-11 5e-05 1.46608e-10 
154 1 0.0864005 0.0175241 0.00722591 0.00602808 -0.00012787 0.000193667 1.04825e-10 4.78632e-10 -3.38076e-10 5e-05 1.46608e-10 
155 1 0.0864744 0.0178111 0.00711607 0.0060681 -0.000183392 0.000147682 1.87379e-11 -2.11327e-10 5.60424e-10 5e-05 1.46608e-10 
156 1 0.0863793 0.0174326 0.0072604 0.00581408 -0.000110882 0.00029967 6.99575e-10 -3.90003e-10 5.45779e-10 5e-05 1.46608e-10 
157 1 0.0219312 0.0187687 0.00551176 -3.82894e-14 8.16768e-14 2.9589e-13 -8.08466e-22 -1.04276e-22 -7.27919e-23 5e-05 1.46608e-10 
158 1 0.0864707 0.0176847 0.00724358 0.00601731 -7.74059e-05 0.000244537 2.41599e-10 -2.43368e-10 5.89337e-10 5e-05 1.46608e-10 
159 1 0.0924989 0.017537 0.00709332 0.00582616 0.000335651 -3.90255e-05 -1.93202e-10 2.76529e-10 -2.98038e-10 5e-05 1.46608e-10 
160 1 0.0863679 0.0177684 0.00713208 0.00606628 -0.000206457 5.17785e-05 9.68646e-12 -2.80489e-10 1.35288e-10 5e-05 1.46608e-10 
162 1 0.0863256 0.0175849 0.00719975 0.00601937 -0.000139203 2.20877e-05 -2.76522e-10 -4.3422e-10 -1.22539e-10 5e-05 1.46608e-10 
164 1 0.0866212 0.0181753 0.00698106 0.00620776 -0.000206248 4.08808e-05 -6.65511e-11 -4.2134e-11 -2.36163e-11 5e-05 1.46608e-10 
165 1 0.0867493 0.017822 0.00711844 0.00604585 -0.000170498 0.00033806 3.83428e-10 8.3357e-11 4.60475e-11 5e-05 1.46608e-10 
166 1 0.0921659 0.016134 0.00799898 0.0060614 0.000666098 -0.000177679 5.49669e-10 -3.16217e-11 3.83355e-11 5e-05 1.46608e-10 
167 1 0.0862964 0.0166437 0.00757751 0.00554169 2.79898e-05 0.000233686 6.87299e-10 8.24698e-11 1.22515e-11 5e-05 1.46608e-10 
168 1 0.0865855 0.0175896 0.0072057 0.00605527 -0.000124355 0.000315213 -2.08282e-10 -4.27683e-10 8.71838e-11 5e-05 1.46608e-10 
169 1 0.0868106 0.0182356 0.00695784 0.00627104 -0.000236805 4.96958e-05 -1.08938e-10 6.3551e-11 1.74507e-11 5e-05 1.46608e-10 
170 1 0.0866333 0.0177004 0.00716275 0.00603363 -0.000136344 0.00032609 3.52596e-10 3.28443e-11 -6.00789e-11 5e-05 1.46608e-10 
171 1 0.0921874 0.0162186 0.00794759 0.0059997 0.000809135 -0.000268323 5.9571e-10 -1.02432e-10 8.46443e-11 5e-05 1.46608e-10 
172 1 0.0867285 0.0177301 0.0071549 0.0060528 -0.00016277 0.000334245 3.22034e-10 4.12136e-10 -8.58912e-11 5e-05 1.46608e-10 
173 1 0.0926269 0.0176715 0.00703889 0.00606665 0.000338971 9.75256e-05 3.12599e-11 3.3094e-10 -5.97619e-11 5e-05 1.46608e-10 
174 1 0.0865589 0.017761 0.0071348 0.0060522 -0.000128397 0.00031221 -6.62374e-11 -2.32328e-10 -1.8974e-11 5e-05 1.46608e-10 
175 1 0.0802837 0.0173958 0.00724332 0.00557681 0.000151114 0.000286667 3.24269e-11 1.56385e-13 1.50224e-11 5e-05 1.46608e-10 
176 1 0.0863589 0.0173416 0.00729649 0.00557375 -5.59547e-05 0.000269624 -1.78716e-10 -5.58759e-10 1.9685e-10 5e-05 1.46608e-10 
177 1 0.0864102 0.0179518 0.00706443 0.00611015 -0.000200708 3.91176e-05 -7.31512e-11 -1.8678e-10 1.7107e-11 5e-05 1.46608e-10 
178 1 0.0868551 0.0181517 0.00698907 0.00622582 -0.000154239 0.000340477 -7.32431e-11 9.36432e-11 -8.82008e-11 5e-05 1.46608e-10 
179 1 0.086761 0.01812 0.00700062 0.00620956 -0.00022505 5.18589e-05 -1.49246e-11 2.11993e-10 5.73307e-11 5e-05 1.46608e-10 
181 1 0.0863422 0.0176641 0.00726501 0.00597956 -0.000172888 6.79566e-05 -8.51279e-11 7.60267e-11 -9.16772e-11 5e-05 1.46608e-10 
182 1 0.0921323 0.0163571 0.0078599 0.00570709 0.00070883 -0.000217574 1.29058e-10 -4.18481e-11 3.60491e-11 5e-05 1.46608e-10 
183 1 0.0865377 0.0176702 0.00717081 0.00609506 -8.13819e-05 0.000311257 4.4575e-10 -2.55926e-10 2.92301e-10 5e-05 1.46608e-10 
184 1 0.092461 0.0176796 0.007128 0.00579219 0.000397941 8.79448e-05 8.61839e-11 3.67086e-10 -1.01752e-10 5e-05 1.46608e-10 
185 1 0.0862833 0.0174017 0.00726871 0.00553832 5.9763e-05 0.000220289 -1.1534e-11 -1.96283e-11 9.69356e-12 5e-05 1.46608e-10 
186 1 0.0863458 0.0175693 0.00729642 0.00601241 -8.4735e-05 1.45225e-05 -1.63447e-10 -2.2647e-10 -6.96989e-10 5e-05 1.46608e-10 
187 1 0.0924733 0.0170169 0.00745917 0.00558248 0.000125418 -0.000362263 -6.24673e-10 -7.13027e-10 4.03451e-10 5e-05 1.46608e-10 
188 1 0.0925167 0.0179861 0.00696651 0.00645565 0.000331738 0.000110923 2.05785e-11 -3.66806e-10 8.00285e-11 5e-05 1.46608e-10 
189 1 0.0925118 0.017176 0.00734415 0.00569993 9.07251e-05 -0.000304533 5.38977e-10 -6.50852e-10 4.98581e-10 5e-05 1.46608e-10 
190 1 0.0803997 0.0175156 0.00719319 0.00611732 8.2689e-05 0.000354905 6.6844e-11 2.69405e-10 -1.11516e-10 5e-05 1.46608e-10 
191 1 0.092509 0.0183898 0.00694301 0.00630654 0.00018391 -0.000789594 -6.39612e-11 -7.24089e-11 7.4268e-12 5e-05 1.46608e-10 
192 1 0.0865302 0.0173124 0.00731596 0.00609352 -5.7052e-05 0.000297967 5.13727e-10 8.9019e-11 -6.58242e-11 5e-05 1.46608e-10 
193 1 0.0922685 0.0165556 0.00774256 0.0056527 0.000403889 -3.14855e-05 2.72277e-09 -1.59875e-10 1.95223e-10 5e-05 1.46608e-10 
194 1 0.0863549 0.0169171 0.00746891 0.0056093 4.7514e-05 0.000230038 -1.74361e-10 1.11044e-10 -5.56252e-11 5e-05 1.46608e-10 
195 1 0.0867597 0.0179334 0.0070736 0.00602618 -0.000198569 0.000345952 -6.91346e-12 1.97129e-10 -1.07372e-10 5e-05 1.46608e-10 
196 1 0.0858294 0.015625 0.00855555 0.00615654 0.000242893 6.3539e-05 -9.33875e-11 -2.34303e-10 2.79078e-10 5e-05 1.46608e-10 
197 1 0.0803455 0.0176619 0.00711938 0.00615885 8.33922e-05 0.00035757 -1.25405e-10 -1.20634e-10 5.51864e-11 5e-05 1.46608e-10 
198 1 0.0862048 0.0170371 0.00741346 0.0055426 -6.11541e-06 0.000248486 8.10112e-12 1.85968e-10 -7.57735e-11 5e-05 1.46608e-10 
199 1 0.0863467 0.0176767 0.00716591 0.00602825 -0.000208859 6.21963e-05 1.25008e-10 -4.47263e-11 9.35462e-11 5e-05 1.46608e-10 
200 1 0.0862995 0.0170683 0.00740499 0.0055658 3.21787e-05 0.000233927 7.91269e-11 1.80668e-10 -6.2003e-11 5e-05 1.46608e-10 
201 1 0.0867656 0.0183195 0.00692725 0.00626618 -0.000234864 5.0855e-05 -8.96967e-11 4.98052e-11 -3.59786e-11 5e-05 1.46608e-10 
202 1 0.0865505 0.0174034 0.00727986 0.00615056 -5.62259e-05 0.000294823 -2.96158e-10 2.93262e-10 -1.98074e-10 5e-05 1.46608e-10 
203 1 0.0927656 0.018013 0.00696747 0.00585595 0.00178501 -0.000230782 3.01677e-10 2.37485e-10 -4.43815e-11 5e-05 1.46608e-10 
204 1 0.0862798 0.0169771 0.00744118 0.00556648 1.22132e-05 0.000241874 -2.48575e-10 9.30321e-11 -4.8498e-11 5e-05 1.46608e-10 
205 1 0.0866068 0.0180436 0.00707673 0.00615858 -0.000203996 3.00318e-05 -1.46373e-10 -4.99095e-11 -1.712e-10 5e-05 1.46608e-10 
206 1 0.08658 0.0178527 0.00710077 0.00607953 -0.000172407 0.000207496 2.00548e-10 -2.60958e-10 1.12744e-10 5e-05 1.46608e-10 
207 1 0.0861287 0.0162876 0.00779425 0.00553246 -7.70884e-05 1.65505e-05 -1.32536e-10 1.78742e-10 3.62684e-10 5e-05 1.46608e-10 
208 1 0.0864216 0.0176144 0.00718843 0.00606049 -0.000189112 0.000112145 2.13192e-10 2.08299e-10 -7.34082e-11 5e-05 1.46608e-10 
209 1 0.0863353 0.016826 0.0075051 0.00555886 5.32265e-05 0.000225592 1.79711e-11 1.7342e-10 -4.71226e-11 5e-05 1.46608e-10 
210 1 0.0923362 0.0174916 0.00722957 0.0058159 0.000316496 -0.000409736 2.01602e-10 -5.69217e-11 -5.78442e-11 5e-05 1.46608e-10 
211 1 0.0925948 0.017915 0.00698433 0.00618062 0.000882706 -1.74388e-05 -4.5465e-10 8.12476e-11 -7.73154e-11 5e-05 1.46608e-10 
212 1 0.0866545 0.0177913 0.00712675 0.00605925 -0.000150303 0.000334874 2.44064e-10 -1.8066e-10 -1.88502e-11 5e-05 1.46608e-10 
213 1 0.0924522 0.0169334 0.00751627 0.00554518 0.000524899 -0.000105503 -5.92188e-10 4.01011e-10 -1.26043e-10 5e-05 1.46608e-10 
214 1 0.0925738 0.0178832 0.00707677 0.0066798 0.000454924 -5.46444e-05 -1.51313e-10 -2.94751e-11 4.52172e-11 5e-05 1.46608e-10 
215 1 0.0803791 0.0174269 0.00723451 0.00580929 0.000139227 0.000307478 -1.95917e-10 3.71585e-10 -1.89464e-10 5e-05 1.46608e-10 
216 1 0.086389 0.0178601 0.00709826 0.00608018 -0.000212519 3.90078e-05 2.3731e-11 -2.74779e-10 3.03427e-10 5e-05 1.46608e-10 
217 1 0.0922283 0.0163869 0.00784517 0.00571835 0.000622707 -0.000163904 -9.33005e-11 -1.73766e-11 7.31412e-12 5e-05 1.46608e-10 
218 1 0.0865187 0.0180015 0.0070551 0.00614043 -0.000196007 4.04377e-05 9.88844e-11 -3.66444e-10 -1.29578e-10 5e-05 1.46608e-10 
219 1 0.0924605 0.0181044 0.00704166 0.00662518 8.84732e-05 -0.000312852 2.84964e-10 -6.3255e-10 -5.21904e-11 5e-05 1.46608e-10 
220 1 0.0864135 0.0178347 0.00719183 0.0060292 -0.000106903 8.95865e-05 2.22072e-10 -4.50629e-10 3.42683e-10 5e-05 1.46608e-10 
221 1 0.0802801 0.0169828 0.00744163 0.00558921 0.000222305 0.000252719 -1.23114e-10 5.8547e-11 -2.06612e-11 5e-05 1.46608e-10 
222 1 0.0922488 0.0164714 0.0077938 0.00590225 0.000729725 -0.000222807 -2.84077e-10 1.26619e-10 -9.27016e-11 5e-05 1.46608e-10 
223 1 0.0864755 0.0174634 0.00725212 0.00607676 -8.34769e-05 0.00030953 -2.46432e-10 3.12887e-10 -1.04377e-10 5e-05 1.46608e-10 
224 1 0.0862637 0.0173105 0.0073049 0.00549428 -9.83131e-07 0.000242764 3.9755e-10 -1.01888e-09 3.85465e-10 5e-05 1.46608e-10 
225 1 0.092517 0.0176235 0.00704643 0.00582893 0.000414806 8.37432e-05 3.20153e-10 3.30474e-10 -1.18472e-10 5e-05 1.46608e-10 
226 1 0.0866806 0.0176196 0.00719773 0.00602953 -0.000105102 0.000321636 3.65272e-10 1.62606e-11 -3.19861e-11 5e-05 1.46608e-10 
227 1 0.080339 0.0172493 0.00731729 0.00551902 0.000194978 0.000262214 -6.5883e-11 1.92733e-10 -8.44246e-11 5e-05 1.46608e-10 
228 1 0.0803039 0.0174845 0.00720196 0.00607633 7.90277e-05 0.000354244 6.64544e-12 -1.70931e-11 1.09234e-11 5e-05 1.46608e-10 
229 1 0.0863916 0.0177433 0.00722593 0.00602056 -0.000120352 9.34451e-05 6.21233e-11 -3.8201e-10 3.17452e-10 5e-05 1.46608e-10 
230 1 0.0866858 0.0183763 0.00690684 0.00626412 -0.000232178 5.13133e-05 -1.22823e-10 -1.76633e-11 1.46496e-11 5e-05 1.46608e-10 
231 1 0.080264 0.0173069 0.00728477 0.00557518 0.000216011 0.000255248 -1.37867e-10 -2.92238e-11 2.2756e-12 5e-05 1.46608e-10 
232 1 0.0862429 0.0163814 0.0077081 0.00554812 -0.000148299 -1.38782e-05 -4.04154e-10 -2.2845e-10 -2.21954e-10 5e-05 1.46608e-10 
233 1 0.0863745 0.0170083 0.00743272 0.00560263 4.61876e-05 0.000229406 1.70097e-10 4.59356e-11 -1.71352e-11 5e-05 1.46608e-10 
234 1 0.092497 0.0180945 0.00694649 0.00568922 0.000184336 -0.000237291 -1.89435e-10 -4.13599e-10 -3.21982e-10 5e-05 1.46608e-10 
235 1 0.0866522 0.0186265 0.00690052 0.00618191 -0.000166512 1.10765e-05 -5.15365e-11 1.38103e-10 8.79399e-11 5e-05 1.46608e-10 
236 1 0.0867082 0.0184706 0.00687847 0.00626903 -0.000210702 -3.73033e-06 -1.91514e-10 7.40548e-11 4.62216e-11 5e-05 1.46608e-10 
237 1 0.0868045 0.0185039 0.00685926 0.00614449 -0.000247077 5.60725e-05 -1.96669e-10 1.48656e-10 -3.60979e-11 5e-05 1.46608e-10 
239 1 0.0800878 0.0165242 0.00769097 0.00550638 3.52688e-05 -4.77296e-06 -2.27373e-12 3.01592e-11 -1.01661e-11 5e-05 1.46608e-10 
240 1 0.0801462 0.0167792 0.00754417 0.00556588 2.79442e-05 -8.41572e-06 -7.06093e-11 -6.84029e-12 -1.11743e-10 5e-05 1.46608e-10 
241 1 0.0800683 0.0164392 0.0077399 0.00550266 4.4279e-05 -9.659e-06 5.07477e-11 1.25336e-11 -6.92945e-12 5e-05 1.46608e-10 
242 1 0.0864889 0.0171305 0.00738809 0.00578167 -7.11305e-05 0.000284598 -4.92009e-10 1.3211e-10 -2.62122e-11 5e-05 1.46608e-10 
243 1 0.0862602 0.016886 0.00747737 0.00558234 0.000122574 0.000197385 -6.98184e-11 1.48601e-10 -6.61634e-11 5e-05 1.46608e-10 
244 1 0.0801072 0.0166092 0.00764203 0.005514 3.21159e-05 -1.02307e-06 -1.6743e-11 3.03318e-11 -3.31476e-11 5e-05 1.46608e-10 
246 1 0.0802247 0.0171292 0.00736767 0.00557829 0.00020498 0.000259654 -1.07579e-10 -1.04421e-10 4.70431e-11 5e-05 1.46608e-10 