ITEM: TIMESTEP
14400000
ITEM: NUMBER OF ATOMS
287
ITEM: BOX BOUNDS ff ff ff
-0.02 0.43
-0.02 0.06
-0.02 0.07
ITEM: ATOMS id type x y z vx vy vz fx fy fz radius mass 
1 1 0.0967994 0.016399 0.00782396 0.00558033 0.000265866 -2.92495e-05 -1.1963e-10 -4.54533e-11 -7.16605e-12 5e-05 1.46608e-10 
2 1 0.0972448 0.0174435 0.00717809 0.00624861 7.9042e-05 -2.9208e-05 -1.36845e-10 1.40556e-11 -7.04931e-12 5e-05 1.46608e-10 
3 1 0.0905544 0.0157658 0.0082903 0.00554477 -0.000533428 0.000545962 2.58201e-11 6.88841e-11 -4.52192e-11 5e-05 1.46608e-10 
4 1 0.0971296 0.0177502 0.00710256 0.00624049 9.01515e-05 -3.13625e-05 -1.23037e-11 -6.59874e-11 1.45777e-11 5e-05 1.46608e-10 
5 1 0.0966851 0.0162965 0.0079043 0.00557142 0.000307953 -6.42073e-05 -1.14237e-11 -2.28875e-11 6.28462e-11 5e-05 1.46608e-10 
6 1 0.102803 0.0167739 0.00756974 0.00566729 0.000585837 -0.000167829 -2.92878e-11 1.43709e-10 -1.21331e-10 5e-05 1.46608e-10 
7 1 0.096861 0.0169756 0.0073369 0.0056731 5.19078e-05 -2.31401e-05 1.22228e-12 2.55124e-11 -2.27438e-11 5e-05 1.46608e-10 
8 1 0.0965874 0.015916 0.00821364 0.00562801 0.000262797 -2.42671e-05 4.19772e-11 8.68263e-11 -7.90925e-11 5e-05 1.46608e-10 
9 1 0.103072 0.0178963 0.00702777 0.00639031 0.000466336 -0.000281344 -1.42773e-11 -1.58775e-11 1.15295e-11 5e-05 1.46608e-10 
10 1 0.0968021 0.0167498 0.00752908 0.0056504 0.000165729 -0.000122945 4.32879e-11 5.45193e-11 3.72714e-11 5e-05 1.46608e-10 
11 1 0.0972889 0.0176342 0.00713095 0.00624473 8.97667e-05 -3.17743e-05 -5.06613e-11 1.6309e-11 -6.09368e-12 5e-05 1.46608e-10 
12 1 0.0907467 0.0165317 0.00769874 0.00542801 -0.000494967 0.00048992 1.76325e-10 2.35159e-11 -9.65888e-11 5e-05 1.46608e-10 
13 1 0.0966657 0.0162204 0.00796617 0.00554356 0.00032868 -8.11253e-05 2.50096e-11 -7.40763e-11 2.88353e-11 5e-05 1.46608e-10 
14 1 0.0904777 0.0155696 0.00863031 0.00559435 -0.000530321 0.000530186 -2.68903e-10 1.09897e-10 -1.61729e-10 5e-05 1.46608e-10 
15 1 0.0969995 0.0171817 0.00724311 0.00623786 9.75745e-05 -3.30527e-05 1.0011e-10 -2.79775e-11 1.71636e-11 5e-05 1.46608e-10 
16 1 0.0904578 0.0155207 0.00871519 0.00556191 -0.000517436 0.000509873 2.09404e-11 7.25365e-11 -1.27293e-10 5e-05 1.46608e-10 
17 1 0.0967827 0.0166752 0.00759279 0.00564727 0.000151738 -0.000152871 8.7647e-11 1.26366e-10 1.48698e-10 5e-05 1.46608e-10 
18 1 0.102942 0.0173268 0.00716374 0.00638743 0.000520404 -9.39683e-05 1.30852e-10 -1.12418e-10 1.3948e-10 5e-05 1.46608e-10 
19 1 0.0966462 0.0161442 0.00802808 0.0055096 0.000281754 -4.40998e-05 -2.24793e-11 -5.7073e-11 4.51828e-11 5e-05 1.46608e-10 
21 1 0.0967799 0.0163229 0.00788583 0.00554785 0.000272985 -3.56612e-05 -1.58895e-10 -4.50047e-11 4.04127e-11 5e-05 1.46608e-10 
22 1 0.0968996 0.0171472 0.00725177 0.00622988 -5.45062e-05 4.05418e-06 -3.98686e-12 -5.0492e-12 3.06378e-12 5e-05 1.46608e-10 
23 1 0.0909286 0.0169026 0.00747656 0.00592547 -0.000568507 0.000561013 9.93263e-10 -1.40228e-10 8.08494e-11 5e-05 1.46608e-10 
24 1 0.103007 0.0176107 0.00709278 0.00639378 0.000452006 -0.00027729 3.21052e-11 -1.1208e-10 -3.97067e-12 5e-05 1.46608e-10 
25 1 0.0968414 0.0169003 0.00740098 0.00575388 0.000417374 -0.000334116 2.04598e-11 2.55446e-10 -2.11579e-10 5e-05 1.46608e-10 
26 1 0.102882 0.0170899 0.00733762 0.00625437 0.000568972 -0.000131915 1.21885e-10 -1.21898e-10 1.00528e-10 5e-05 1.46608e-10 
27 1 0.0908259 0.0168669 0.00749551 0.00579526 -0.000538813 0.000489195 -5.74289e-10 -5.83996e-12 -3.31722e-10 5e-05 1.46608e-10 
28 1 0.0971079 0.0176555 0.00712599 0.00624879 8.58809e-05 -3.10573e-05 -4.68152e-11 -1.41944e-11 8.27474e-12 5e-05 1.46608e-10 
29 1 0.0966268 0.0160681 0.00808997 0.00550095 0.000286735 -4.84318e-05 1.61062e-11 5.52513e-11 -4.46081e-11 5e-05 1.46608e-10 
30 1 0.0971386 0.0174017 0.007194 0.00625985 8.49788e-05 -3.13079e-05 -3.65669e-11 -1.70287e-11 -2.91078e-11 5e-05 1.46608e-10 
31 1 0.0968805 0.0170519 0.00727533 0.00568436 4.85638e-05 -2.11458e-05 1.82805e-11 2.08998e-11 -5.70694e-12 5e-05 1.46608e-10 
32 1 0.0969778 0.0170916 0.00728066 0.00613076 0.000120649 -5.13891e-05 1.3379e-10 -8.12145e-11 2.46652e-11 5e-05 1.46608e-10 
33 1 0.102822 0.0168529 0.00751169 0.0056849 0.000600052 -0.000177761 -1.56996e-11 1.46363e-10 -1.0837e-10 5e-05 1.46608e-10 
34 1 0.0967632 0.0166006 0.00765654 0.00562851 0.000141892 -0.000183603 6.22709e-11 1.23501e-10 8.0336e-11 5e-05 1.46608e-10 
35 1 0.0969566 0.0170061 0.0073281 0.00599962 0.000127845 -9.92468e-05 8.54232e-11 -1.35238e-10 4.25584e-11 5e-05 1.46608e-10 
36 1 0.103116 0.0180866 0.00698443 0.00638996 0.000486392 -0.000285155 -1.20328e-12 -2.50725e-11 6.8725e-12 5e-05 1.46608e-10 
37 1 0.0969167 0.016849 0.00744491 0.0057158 0.000171089 -0.000128218 9.58519e-11 -3.09758e-10 8.44401e-11 5e-05 1.46608e-10 
38 1 0.0970727 0.0171155 0.00725934 0.0061691 2.83843e-05 -1.44688e-05 2.58248e-11 -9.08868e-11 9.88094e-12 5e-05 1.46608e-10 
39 1 0.103029 0.0177059 0.00707111 0.00639432 0.000456377 -0.000276897 -1.12038e-11 -2.43798e-11 -2.98588e-11 5e-05 1.46608e-10 
41 1 0.0967242 0.0164487 0.00778058 0.0055994 0.000284503 -4.09146e-05 -9.3785e-11 -1.02899e-12 -2.06408e-11 5e-05 1.46608e-10 
42 1 0.0969214 0.0172423 0.00722827 0.00626602 0.000123503 -3.63547e-05 6.83622e-11 8.20741e-11 3.00893e-11 5e-05 1.46608e-10 
44 1 0.0970949 0.0172108 0.00723578 0.00624663 5.52207e-05 -2.21698e-05 1.7709e-10 9.59409e-11 -2.74009e-11 5e-05 1.46608e-10 
45 1 0.102842 0.0169319 0.00745364 0.00569841 0.00061655 -0.000190855 1.22325e-10 1.01571e-10 -7.50812e-11 5e-05 1.46608e-10 
46 1 0.102923 0.0172477 0.00722181 0.00634445 0.000547506 -0.000110869 2.47926e-10 -2.64771e-10 2.11257e-10 5e-05 1.46608e-10 
47 1 0.0967437 0.0165248 0.00771871 0.00561211 0.000273203 -3.55659e-05 1.89663e-11 3.51198e-11 -1.17156e-11 5e-05 1.46608e-10 
48 1 0.0969648 0.0174319 0.00718141 0.00625591 8.59156e-05 -3.13261e-05 7.86986e-12 8.40266e-12 -3.24096e-12 5e-05 1.46608e-10 
49 1 0.102902 0.0171689 0.00727966 0.00629649 0.000563773 -0.000125327 -1.00699e-10 -1.94837e-10 1.7797e-10 5e-05 1.46608e-10 
50 1 0.0970301 0.0177164 0.00711106 0.00624462 7.71848e-05 -2.92688e-05 -1.54928e-11 -2.83963e-11 8.74164e-12 5e-05 1.46608e-10 
51 1 0.0970084 0.0176217 0.00713448 0.0062492 7.95098e-05 -2.92429e-05 -3.03969e-11 -5.46488e-11 1.65353e-11 5e-05 1.46608e-10 
52 1 0.0907267 0.0164479 0.00774956 0.00543744 -0.000496826 0.000513586 -3.01158e-11 3.28158e-11 -6.29965e-11 5e-05 1.46608e-10 
53 1 0.102964 0.0174204 0.00713621 0.00640158 0.000434944 -0.000342027 1.35773e-10 7.60122e-12 5.47687e-10 5e-05 1.46608e-10 
54 1 0.0967604 0.0162468 0.00794768 0.00551919 0.000280105 -4.24861e-05 -1.04213e-10 -5.90908e-11 4.8862e-11 5e-05 1.46608e-10 
55 1 0.0905159 0.0156677 0.00846028 0.00554095 -0.000535447 0.000543162 6.98513e-11 1.04969e-10 -1.74267e-10 5e-05 1.46608e-10 
56 1 0.0969366 0.0169249 0.00738291 0.00586834 0.000139548 -0.000127125 -3.61059e-11 -1.55696e-10 2.44335e-11 5e-05 1.46608e-10 
57 1 0.102861 0.0170109 0.00739561 0.00593187 0.000607846 -0.000174407 -6.60684e-11 4.0544e-11 -3.86846e-11 5e-05 1.46608e-10 
59 1 0.0969934 0.0168003 0.00748668 0.00565068 0.000105481 -6.94168e-05 -2.07787e-10 -1.28762e-10 1.10426e-10 5e-05 1.46608e-10 
60 1 0.0970136 0.0168749 0.0074232 0.00578597 8.01586e-05 -4.61555e-05 6.14254e-11 -1.40456e-10 1.3821e-10 5e-05 1.46608e-10 
61 1 0.0967047 0.0163726 0.00784244 0.00558409 0.000293289 -5.14735e-05 3.38078e-11 -4.36803e-11 3.76463e-11 5e-05 1.46608e-10 
62 1 0.0971171 0.0173055 0.00721237 0.00623445 4.69501e-05 -1.95611e-05 6.35906e-11 3.88453e-11 9.95325e-12 5e-05 1.46608e-10 
63 1 0.0970648 0.0174659 0.00717285 0.00625639 8.39161e-05 -2.97758e-05 -1.8299e-11 9.40772e-12 -1.98144e-11 5e-05 1.46608e-10 
64 1 0.102986 0.0175155 0.00711446 0.00639067 0.000446656 -0.00028635 7.44942e-11 -9.02018e-11 2.93271e-10 5e-05 1.46608e-10 
65 1 0.0908477 0.0165679 0.00768013 0.00542888 -0.000484544 0.000502488 3.82037e-10 1.42959e-10 -2.30581e-11 5e-05 1.46608e-10 
66 1 0.0907902 0.0163164 0.00783324 0.00547542 -0.000498613 0.000519532 -1.14261e-10 1.75132e-10 -1.18272e-10 5e-05 1.46608e-10 
67 1 0.0972669 0.017539 0.0071545 0.00624017 7.40706e-05 -2.78703e-05 -8.44287e-11 4.21185e-11 -1.09109e-11 5e-05 1.46608e-10 
68 1 0.0971819 0.01759 0.00714202 0.00624969 8.86299e-05 -3.14785e-05 -7.51963e-11 -1.39169e-12 -3.91816e-12 5e-05 1.46608e-10 
69 1 0.0968579 0.0166258 0.00763653 0.00564224 0.000145565 -0.000142325 1.64401e-10 -8.72711e-11 -1.04997e-10 5e-05 1.46608e-10 
70 1 0.103051 0.0178011 0.00704944 0.00639101 0.00045945 -0.000278711 -1.43742e-12 -1.57808e-12 2.61329e-11 5e-05 1.46608e-10 
71 1 0.0904965 0.0156187 0.00854524 0.00558177 -0.000536147 0.000541251 -1.52706e-11 7.49976e-11 -1.48413e-10 5e-05 1.46608e-10 
72 1 0.0971601 0.0174953 0.00716545 0.00625255 8.62223e-05 -3.04986e-05 -5.79486e-11 3.47417e-11 -1.29845e-12 5e-05 1.46608e-10 
73 1 0.0968218 0.016825 0.00746506 0.00568536 0.000214845 -0.000158453 3.99425e-12 -2.12607e-10 2.96874e-10 5e-05 1.46608e-10 
74 1 0.0970212 0.0172767 0.00722098 0.00627033 8.65272e-05 -3.08461e-05 8.81744e-11 2.06871e-11 -9.77658e-12 5e-05 1.46608e-10 
76 1 0.0910627 0.0174179 0.00717285 0.00615872 -0.000688186 5.88907e-06 -4.85337e-10 2.14862e-10 -4.35975e-11 5e-05 1.46608e-10 
77 1 0.0971719 0.0183567 0.00695155 0.00574657 0.000133642 -1.28865e-05 6.44778e-11 3.77406e-12 -2.58473e-11 5e-05 1.46608e-10 
78 1 0.0905707 0.0158152 0.0082049 0.00552878 -0.000532141 0.000540324 3.55831e-11 4.30159e-11 9.12842e-12 5e-05 1.46608e-10 
79 1 0.090766 0.0166154 0.00764761 0.00542888 -0.000492995 0.000481472 -1.77115e-10 1.30925e-10 6.7817e-11 5e-05 1.46608e-10 
80 1 0.0970733 0.0179087 0.00707837 0.00622258 8.55161e-05 -2.10114e-05 5.25847e-11 -1.31977e-10 -1.7988e-10 5e-05 1.46608e-10 
81 1 0.0907085 0.016364 0.00780075 0.00546139 -0.000502907 0.000521674 -8.52055e-11 3.67644e-11 -2.1783e-11 5e-05 1.46608e-10 
82 1 0.0908468 0.0169502 0.00744417 0.00592135 -0.000562087 0.000511266 8.25348e-11 -2.90677e-10 -4.06804e-11 5e-05 1.46608e-10 
83 1 0.0908803 0.0162811 0.00785848 0.00559793 -0.000279892 0.000389143 -1.20751e-10 1.5612e-10 -9.84016e-11 5e-05 1.46608e-10 
84 1 0.103094 0.0179914 0.0070061 0.00639063 0.00047665 -0.000282911 -8.85759e-12 -1.83086e-11 -4.9174e-12 5e-05 1.46608e-10 
85 1 0.0906733 0.015837 0.00817218 0.00550154 -0.000515985 0.000506083 9.1292e-11 6.84985e-11 -7.38433e-11 5e-05 1.46608e-10 
86 1 0.0970862 0.0175607 0.00714941 0.00625213 8.41602e-05 -3.0506e-05 -3.57406e-11 2.89845e-12 7.97874e-12 5e-05 1.46608e-10 
87 1 0.0969735 0.0167257 0.00755019 0.00559728 0.000122258 -8.15143e-05 -1.73943e-10 -1.14849e-10 1.06502e-10 5e-05 1.46608e-10 
88 1 0.0971145 0.0180843 0.00701972 0.00622585 5.1652e-05 5.88861e-07 6.76416e-11 2.043e-10 2.97541e-11 5e-05 1.46608e-10 
89 1 0.0970947 0.0180064 0.0070792 0.00622745 7.2008e-05 3.84135e-06 1.38091e-10 -3.48058e-11 -4.76125e-11 5e-05 1.46608e-10 
90 1 0.0972225 0.0173479 0.00720173 0.00625685 8.01109e-05 -2.98489e-05 -4.61141e-11 -8.77848e-12 -1.7754e-11 5e-05 1.46608e-10 
91 1 0.0907862 0.0166991 0.00759678 0.00539933 -0.000467493 0.000489844 -1.58741e-10 1.7648e-10 2.17047e-10 5e-05 1.46608e-10 
92 1 0.0972457 0.017875 0.00707159 0.0062292 7.76243e-05 -2.85936e-05 -2.71352e-12 -6.85596e-11 3.5464e-11 5e-05 1.46608e-10 
93 1 0.0972078 0.0180495 0.00702887 0.00623004 6.05918e-05 -1.51888e-05 1.79812e-10 8.5973e-11 3.21844e-11 5e-05 1.46608e-10 
94 1 0.0973023 0.0182085 0.00698914 0.00595262 0.000385273 -8.05211e-05 -2.42748e-11 -2.35529e-10 -2.30415e-11 5e-05 1.46608e-10 
95 1 0.097197 0.0179348 0.00715043 0.00625517 7.1349e-05 -4.98164e-05 8.45378e-13 4.27235e-13 -2.53459e-11 5e-05 1.46608e-10 
96 1 0.0972655 0.0179701 0.00704807 0.00624133 6.73779e-05 -2.28488e-05 5.49444e-11 -5.38529e-11 -3.44057e-11 5e-05 1.46608e-10 
97 1 0.090668 0.0161968 0.00790282 0.00550729 -0.000517271 0.000540972 -1.36695e-10 1.33195e-11 -1.40856e-11 5e-05 1.46608e-10 
98 1 0.0971354 0.018182 0.00702124 0.00619844 4.88904e-05 -5.22896e-06 3.2657e-11 1.29206e-10 7.40561e-11 5e-05 1.46608e-10 
99 1 0.0908284 0.0164841 0.00773114 0.00542374 -0.00048757 0.000508562 -4.41576e-11 1.28909e-10 -7.07347e-11 5e-05 1.46608e-10 
100 1 0.0971785 0.0171574 0.00724882 0.00621228 4.4648e-06 -1.06292e-05 8.219e-11 -8.63349e-11 3.00959e-11 5e-05 1.46608e-10 
101 1 0.0907692 0.0162329 0.00788402 0.00549141 -0.00052262 0.000535216 -8.25554e-11 3.19412e-10 -2.13796e-10 5e-05 1.46608e-10 
102 1 0.0643568 0.0187248 0.00531097 4.50384e-15 1.03947e-14 8.29612e-14 1.33641e-23 -3.85931e-23 3.51552e-24 5e-05 1.46608e-10 
103 1 0.24257 0.0191927 0.00520306 -4.60964e-23 4.86658e-23 -5.81428e-22 3.23117e-27 0 0 5e-05 1.46608e-10 
104 1 0.0911335 0.0173063 0.00723504 0.00617451 -0.000245935 0.000385567 -3.57719e-10 -1.53853e-10 1.43661e-10 5e-05 1.46608e-10 
105 1 0.090629 0.0160292 0.00800441 0.00544004 -0.000503164 0.000523219 1.00051e-11 -4.60517e-12 2.31191e-11 5e-05 1.46608e-10 
106 1 0.0912136 0.0172539 0.00727053 0.00641695 -0.000150302 0.000338375 -5.8857e-10 -7.21809e-11 9.84394e-11 5e-05 1.46608e-10 
107 1 0.0905922 0.0158786 0.00813064 0.00549285 -0.000519277 0.000535971 -5.87642e-12 1.70064e-10 1.93412e-10 5e-05 1.46608e-10 
108 1 0.0968968 0.0167745 0.00750857 0.00564816 0.00016542 -0.000154843 8.83782e-11 -1.83209e-10 4.25771e-11 5e-05 1.46608e-10 
109 1 0.0969866 0.0175266 0.00715798 0.00625405 8.87358e-05 -3.13116e-05 6.03285e-12 -2.28086e-11 1.63765e-12 5e-05 1.46608e-10 
110 1 0.0973678 0.0182818 0.00697095 0.00590177 0.000420265 -7.96771e-05 1.02423e-10 1.52917e-10 5.39781e-11 5e-05 1.46608e-10 
111 1 0.0971777 0.0183701 0.00705048 0.00576329 0.000153798 -1.17292e-05 1.88306e-11 9.76592e-11 -7.62991e-11 5e-05 1.46608e-10 
112 1 0.0906874 0.0162804 0.00785149 0.00546891 -0.000507812 0.000526042 -6.62297e-11 2.69685e-12 -9.49615e-12 5e-05 1.46608e-10 
113 1 0.0915058 0.0179466 0.00703358 0.00614226 -0.000658448 -0.000363545 3.93974e-10 9.71934e-11 3.8922e-11 5e-05 1.46608e-10 
114 1 0.0910661 0.0170459 0.00739328 0.00616441 -0.000149674 0.000329961 2.7388e-10 4.99033e-11 -2.00806e-11 5e-05 1.46608e-10 
115 1 0.0970434 0.0173712 0.00719686 0.0062625 8.34974e-05 -3.05101e-05 4.91906e-12 2.73178e-11 4.80377e-12 5e-05 1.46608e-10 
116 1 0.0968777 0.0167008 0.00757333 0.00565851 0.000152758 -0.000152339 -7.97137e-12 -5.42632e-11 -7.4774e-12 5e-05 1.46608e-10 
117 1 0.0967409 0.0161707 0.00800955 0.00550542 0.00028481 -4.66875e-05 -1.732e-11 -5.25316e-11 4.08204e-11 5e-05 1.46608e-10 
118 1 0.0905351 0.0157179 0.00837592 0.00553184 -0.000532329 0.000546227 9.96895e-11 1.21292e-10 -1.38042e-10 5e-05 1.46608e-10 
119 1 0.0970329 0.0169496 0.00735961 0.00591628 5.79935e-05 -2.55688e-05 8.69977e-11 -1.42959e-10 9.8103e-11 5e-05 1.46608e-10 
120 1 0.0966074 0.015992 0.00815184 0.00564669 0.000265046 -2.54966e-05 -2.61498e-12 8.10711e-11 -6.31864e-11 5e-05 1.46608e-10 
121 1 0.0965674 0.0158399 0.00827544 0.0056198 0.000262972 -2.48885e-05 -3.60553e-12 1.03358e-10 -7.91948e-11 5e-05 1.46608e-10 
122 1 0.0973694 0.0183788 0.00694662 0.00589938 0.000437463 -9.12332e-05 -3.49041e-10 5.90917e-11 -4.63231e-11 5e-05 1.46608e-10 
123 1 0.0907068 0.0159771 0.00803956 0.005415 -0.00052037 0.000530169 7.58913e-11 -9.78588e-12 4.414e-11 5e-05 1.46608e-10 
124 1 0.0971665 0.017941 0.00705542 0.00622546 9.43922e-05 -3.36403e-05 -7.90606e-12 -1.92052e-10 -4.83717e-11 5e-05 1.46608e-10 
125 1 0.0967215 0.0160946 0.00807143 0.00550356 0.000286189 -4.79e-05 -3.83715e-11 5.92186e-12 -6.98919e-12 5e-05 1.46608e-10 
126 1 0.0969431 0.0173371 0.00720483 0.00625974 8.48138e-05 -3.0952e-05 -5.39072e-12 -2.63268e-11 1.15653e-11 5e-05 1.46608e-10 
127 1 0.0906505 0.016114 0.00795606 0.00549789 -0.000515452 0.00054014 -7.14779e-11 -5.40613e-11 2.71867e-11 5e-05 1.46608e-10 
128 1 0.0970518 0.0178113 0.00708761 0.00623901 7.48102e-05 -2.78718e-05 -6.32602e-12 -4.21308e-11 1.03758e-11 5e-05 1.46608e-10 
129 1 0.0971785 0.0181232 0.0070897 0.0061942 4.28362e-05 -1.29234e-05 2.59013e-10 2.21177e-10 3.02092e-11 5e-05 1.46608e-10 
130 1 0.0909503 0.016986 0.00742585 0.00589656 -0.000557494 0.000561317 2.15112e-10 2.86389e-12 -1.17251e-10 5e-05 1.46608e-10 
131 1 0.0908085 0.0164004 0.00778208 0.00544283 -0.000485227 0.000509497 -1.18994e-10 1.06068e-10 -8.50041e-11 5e-05 1.46608e-10 
132 1 0.0971505 0.0178451 0.0070791 0.00622698 9.49911e-05 -3.41978e-05 -2.11933e-11 -1.70438e-10 -2.07433e-11 5e-05 1.46608e-10 
133 1 0.0968956 0.0164268 0.00780435 0.00557058 0.000221013 7.84269e-06 2.29263e-10 1.32957e-10 -7.10722e-11 5e-05 1.46608e-10 
134 1 0.0970505 0.0170246 0.00729581 0.0060455 4.32183e-05 -8.11926e-06 1.34251e-10 -1.61614e-10 2.35333e-11 5e-05 1.46608e-10 
135 1 0.096702 0.0160184 0.00813333 0.00559836 0.000373959 -0.000116828 2.1357e-11 4.82035e-11 -3.73886e-11 5e-05 1.46608e-10 
136 1 0.0906519 0.0157834 0.00825378 0.0055409 -0.000517708 0.000519271 2.41663e-10 -1.7918e-12 -9.63044e-11 5e-05 1.46608e-10 
137 1 0.0971934 0.0184594 0.00694924 0.0058308 0.000381306 -4.98912e-05 1.43038e-10 6.43498e-10 -2.70387e-10 5e-05 1.46608e-10 
138 1 0.0968384 0.0165506 0.00769943 0.0056184 5.79096e-05 -0.000249591 7.42588e-11 -9.17015e-11 -1.71177e-10 5e-05 1.46608e-10 
140 1 0.0972712 0.0183971 0.00694171 0.00585923 0.000367675 -7.03624e-05 -2.4413e-10 2.05312e-10 -6.05545e-11 5e-05 1.46608e-10 
141 1 0.0906869 0.0158933 0.0080906 0.00548491 -0.000485985 0.000516069 -1.34445e-10 7.57906e-11 -4.63824e-11 5e-05 1.46608e-10 
142 1 0.0910877 0.0171294 0.00734258 0.0060969 -0.000189982 0.0003509 5.69797e-10 -7.46046e-10 3.92592e-10 5e-05 1.46608e-10 
143 1 0.0906116 0.0159558 0.00807013 0.00545151 -0.000509206 0.000529243 -3.18483e-11 1.78363e-10 1.74136e-10 5e-05 1.46608e-10 
144 1 0.0910444 0.0169589 0.00744619 0.00593941 -0.000318289 0.000423568 2.52212e-10 -2.31884e-10 3.87135e-12 5e-05 1.46608e-10 
146 1 0.0908986 0.0163651 0.00780732 0.00555759 -0.000248154 0.000367878 -2.12953e-11 1.05779e-10 -6.29563e-11 5e-05 1.46608e-10 
147 1 0.0906356 0.015734 0.00833919 0.00556468 -0.000523957 0.000522476 8.20737e-11 6.04727e-11 -4.76206e-11 5e-05 1.46608e-10 
148 1 0.09091 0.0172017 0.00729348 0.00599521 -0.000556785 0.000512841 1.78053e-10 -6.27286e-10 6.45282e-10 5e-05 1.46608e-10 
149 1 0.0972697 0.0183002 0.00696604 0.00588623 0.000364289 -7.53681e-05 9.30488e-12 8.56427e-11 -2.31512e-11 5e-05 1.46608e-10 
150 1 0.0909379 0.0165326 0.00770536 0.00550009 -0.000378567 0.000445727 3.30588e-10 -2.43079e-10 1.3681e-10 5e-05 1.46608e-10 
151 1 0.0913336 0.0173677 0.00720485 0.00664755 0.000109681 0.000189768 1.91639e-10 -4.36026e-10 2.22821e-10 5e-05 1.46608e-10 
153 1 0.0907497 0.0161491 0.00793502 0.00551298 -0.000538508 0.000545098 9.13975e-11 3.84742e-11 -4.60107e-11 5e-05 1.46608e-10 
154 1 0.0910141 0.0172382 0.00727254 0.00598043 -0.000542269 0.000543359 -2.60557e-11 -1.59347e-10 3.70953e-11 5e-05 1.46608e-10 
155 1 0.0910869 0.0175111 0.00712632 0.0061514 -0.000685568 5.97021e-05 3.73349e-10 3.24504e-10 3.60886e-10 5e-05 1.46608e-10 
156 1 0.0909927 0.0171541 0.0073236 0.00603055 -0.000435067 0.000489222 2.44613e-10 -1.39554e-09 8.7406e-10 5e-05 1.46608e-10 
157 1 0.0219312 0.0187687 0.00551176 -3.83406e-14 8.16474e-14 2.95892e-13 1.48569e-21 3.92084e-22 8.00297e-23 5e-05 1.46608e-10 
158 1 0.091093 0.0173928 0.00726476 0.00608884 -0.000561435 7.71469e-05 -4.07076e-10 2.43612e-10 -1.23423e-10 5e-05 1.46608e-10 
159 1 0.0972035 0.0176848 0.00711859 0.00624784 9.48921e-05 -3.2857e-05 -6.39122e-11 -3.50455e-11 1.35087e-11 5e-05 1.46608e-10 
160 1 0.0909738 0.0174609 0.00715676 0.00607722 -0.000821072 7.09474e-05 -2.66878e-10 3.42163e-10 3.36669e-11 5e-05 1.46608e-10 
162 1 0.090931 0.0172872 0.00724615 0.00600816 -0.000667801 0.00035791 1.0787e-10 -1.31674e-10 5.18124e-10 5e-05 1.46608e-10 
164 1 0.0912217 0.0178544 0.00700501 0.00615027 -0.000849133 0.000233429 -1.8179e-10 -3.56941e-10 3.63856e-11 5e-05 1.46608e-10 
165 1 0.0913977 0.0176265 0.00705221 0.00561576 -0.000855844 0.000121317 -4.53472e-10 4.3274e-10 1.35726e-10 5e-05 1.46608e-10 
166 1 0.0968566 0.0162746 0.00792811 0.00554262 0.000266143 -2.99755e-05 -5.98006e-11 4.73902e-11 -4.07839e-11 5e-05 1.46608e-10 
167 1 0.0909185 0.0164488 0.00775639 0.00555092 -0.000271179 0.000381362 -1.94887e-11 4.81152e-11 -3.04168e-11 5e-05 1.46608e-10 
168 1 0.0912358 0.0173372 0.0072199 0.00637697 -0.000134944 0.000322904 2.17394e-10 -8.39428e-11 1.26743e-10 5e-05 1.46608e-10 
169 1 0.0914112 0.0179155 0.00702421 0.00615076 -0.000763462 0.000231223 4.01504e-10 -2.87913e-10 -2.80003e-10 5e-05 1.46608e-10 
170 1 0.0912619 0.0174258 0.0071662 0.00631016 -0.000180934 0.000356456 3.94999e-10 -1.82205e-10 1.85436e-10 5e-05 1.46608e-10 
171 1 0.0968761 0.0163507 0.00786622 0.00553267 0.000224631 4.38455e-06 1.43341e-10 1.08546e-10 -5.24816e-11 5e-05 1.46608e-10 
172 1 0.0913801 0.0175392 0.00710074 0.00547709 -0.000797583 0.000702391 -1.53922e-10 -2.19286e-10 3.26254e-10 5e-05 1.46608e-10 
173 1 0.0973333 0.0178281 0.00708302 0.00624041 9.90107e-05 -3.44494e-05 1.35878e-10 -3.66393e-11 -2.53877e-12 5e-05 1.46608e-10 
174 1 0.0911796 0.0174764 0.00714047 0.0061927 -0.000401506 0.000256796 4.89747e-10 2.20181e-10 6.82902e-10 5e-05 1.46608e-10 
175 1 0.0850026 0.017604 0.00720017 0.00610341 -0.000248395 5.70117e-05 1.54146e-12 3.62841e-12 -2.28148e-12 5e-05 1.46608e-10 
176 1 0.0909707 0.0170699 0.00737479 0.00607053 -0.000423087 0.00049618 3.13015e-10 -1.99437e-10 1.4082e-10 5e-05 1.46608e-10 
177 1 0.091018 0.0176378 0.00707479 0.00597576 -0.000847595 -8.06355e-05 3.00973e-10 1.43234e-10 -4.33083e-10 5e-05 1.46608e-10 
178 1 0.0914815 0.0178445 0.00701871 0.00617295 -0.000797901 0.000253767 5.95434e-10 -2.16236e-10 -7.81485e-11 5e-05 1.46608e-10 
179 1 0.0913867 0.017814 0.00700912 0.00617532 -0.000817247 0.000244392 1.5033e-10 -5.89433e-10 -8.10069e-12 5e-05 1.46608e-10 
181 1 0.0909517 0.0173688 0.00730066 0.00623481 -0.000550625 0.000185947 -2.46478e-10 2.56187e-10 2.53843e-10 5e-05 1.46608e-10 
182 1 0.0968189 0.0164751 0.00776208 0.00559488 0.000250398 -1.2014e-05 1.3569e-10 5.38354e-11 -8.82357e-11 5e-05 1.46608e-10 
183 1 0.0911578 0.0173915 0.00718861 0.00626908 -0.000371842 0.000270698 4.90726e-10 2.68418e-10 9.26936e-10 5e-05 1.46608e-10 
184 1 0.0971879 0.0178335 0.00717112 0.00621208 0.000116474 -3.72879e-05 1.50855e-10 2.23822e-11 1.16845e-11 5e-05 1.46608e-10 
185 1 0.0908887 0.0171171 0.00734246 0.00600346 -0.000529448 0.000563715 1.04943e-11 -4.44002e-10 3.91527e-10 5e-05 1.46608e-10 
186 1 0.0909552 0.0172781 0.00734277 0.00583745 -0.000470701 0.000361043 -1.38809e-10 1.90684e-10 7.58171e-11 5e-05 1.46608e-10 
187 1 0.0971566 0.0170626 0.00727225 0.00610616 -6.51807e-05 7.16051e-06 -1.01318e-10 1.95603e-11 1.05377e-10 5e-05 1.46608e-10 
188 1 0.0972268 0.0181449 0.00700487 0.00621657 8.67225e-05 -7.44682e-06 -2.24126e-10 1.28527e-11 -1.33875e-10 5e-05 1.46608e-10 
189 1 0.0972007 0.0172521 0.00722542 0.00621391 6.20396e-06 -1.24113e-05 -2.19696e-11 -8.96119e-11 7.16351e-12 5e-05 1.46608e-10 
190 1 0.0851248 0.0177293 0.00715343 0.00612045 -0.000249358 5.72939e-05 -4.06588e-12 -1.69103e-12 5.23404e-13 5e-05 1.46608e-10 
191 1 0.0972107 0.0185469 0.00690395 0.0058456 0.000203914 -3.34068e-05 -9.70669e-12 -2.52413e-10 7.33093e-11 5e-05 1.46608e-10 
192 1 0.0911731 0.0170866 0.0073723 0.00612626 -0.000105884 0.000305076 5.18438e-10 -1.98064e-10 1.63825e-10 5e-05 1.46608e-10 
193 1 0.0969544 0.016651 0.0076138 0.00562099 0.000130142 -8.29302e-05 1.16618e-10 -8.00995e-11 9.62182e-11 5e-05 1.46608e-10 
194 1 0.0909785 0.0167 0.00760359 0.00566944 -0.000278168 0.000390435 -3.11099e-10 3.2087e-10 -2.06133e-10 5e-05 1.46608e-10 
195 1 0.0914056 0.0177158 0.00700804 0.00596069 -0.000895543 2.34336e-05 -7.40039e-11 -3.87441e-11 -7.73918e-10 5e-05 1.46608e-10 
196 1 0.0904366 0.0154719 0.00879989 0.005862 -0.000552425 0.000549364 2.85748e-11 9.00785e-11 -1.56641e-10 5e-05 1.46608e-10 
197 1 0.0850676 0.0178788 0.0070988 0.00612688 -0.000252282 5.83062e-05 3.23959e-12 6.22176e-12 -1.32376e-12 5e-05 1.46608e-10 
198 1 0.0908067 0.0167827 0.00754585 0.00553783 -0.000485333 0.00050382 -5.64102e-10 1.26189e-10 -2.76138e-11 5e-05 1.46608e-10 
199 1 0.0909523 0.0173737 0.00720079 0.00601365 -0.000758686 0.00018798 -1.89185e-10 1.29903e-10 1.6909e-10 5e-05 1.46608e-10 
200 1 0.0909077 0.016819 0.00752734 0.00570943 -0.000541181 0.000567892 5.76762e-10 -3.33007e-10 5.85489e-11 5e-05 1.46608e-10 
201 1 0.0913634 0.018003 0.00703324 0.00607354 -0.000706201 0.000255647 8.80361e-10 -1.51119e-10 3.30973e-11 5e-05 1.46608e-10 
202 1 0.0911944 0.0171701 0.00732155 0.00623882 -0.000131144 0.000321778 -6.43304e-11 -3.2506e-10 1.30158e-10 5e-05 1.46608e-10 
203 1 0.0974467 0.0182221 0.00698558 0.00595828 0.000451882 -0.00012799 -3.56145e-10 1.1616e-10 -5.58407e-11 5e-05 1.46608e-10 
204 1 0.0908884 0.0167352 0.00757836 0.00553682 -0.000502512 0.000528883 -8.00491e-11 1.65952e-10 2.62981e-11 5e-05 1.46608e-10 
205 1 0.0912114 0.0177483 0.00706533 0.00580193 -0.000467068 5.75352e-05 -1.42825e-10 8.08683e-10 -4.61395e-11 5e-05 1.46608e-10 
206 1 0.0912017 0.0175624 0.00709456 0.00600177 -0.000455456 3.37424e-05 4.13965e-10 -1.23292e-10 -2.05765e-10 5e-05 1.46608e-10 
207 1 0.0907291 0.0160613 0.00798842 0.00549928 -0.000537429 0.000544191 1.52203e-11 -8.96997e-11 9.45474e-11 5e-05 1.46608e-10 
208 1 0.0910359 0.0173227 0.00722123 0.00619904 -0.000753073 -0.000464936 -2.82106e-10 6.76574e-11 -4.10061e-10 5e-05 1.46608e-10 
209 1 0.090958 0.0166163 0.00765446 0.00550434 -0.000363364 0.000435165 1.32228e-10 -3.43258e-10 1.62823e-10 5e-05 1.46608e-10 
210 1 0.0970504 0.0176829 0.00720305 0.00623509 6.6534e-05 -3.30001e-05 6.22149e-11 9.18879e-11 3.22067e-11 5e-05 1.46608e-10 
211 1 0.0973038 0.0180829 0.00702017 0.00622365 0.000102968 -3.12661e-05 -1.1334e-10 4.5502e-11 4.10617e-11 5e-05 1.46608e-10 
212 1 0.0912838 0.0175094 0.00711582 0.00617452 -0.000327799 -0.000528488 -3.61722e-10 3.34464e-10 -1.34352e-09 5e-05 1.46608e-10 
213 1 0.0971351 0.0169842 0.00733051 0.0059774 -2.78673e-05 4.70882e-05 2.28709e-10 -2.15486e-10 5.1623e-11 5e-05 1.46608e-10 
214 1 0.0972689 0.0180501 0.00710798 0.00621642 8.92785e-05 -5.01626e-05 -5.53349e-11 -1.30308e-10 3.09486e-11 5e-05 1.46608e-10 
215 1 0.0851022 0.0176367 0.00718759 0.00611207 -0.000248747 5.71185e-05 4.69788e-12 9.01066e-12 -3.23926e-12 5e-05 1.46608e-10 
216 1 0.090995 0.0175483 0.00711304 0.00610999 -0.000869995 -3.46583e-05 1.29068e-10 4.4868e-10 2.89864e-10 5e-05 1.46608e-10 
217 1 0.0969151 0.0165016 0.0077409 0.00559219 8.84792e-05 -0.000153846 9.55023e-11 -1.51669e-10 -2.93516e-10 5e-05 1.46608e-10 
218 1 0.0911327 0.0176926 0.00703472 0.0057265 -0.000625005 -0.000221395 2.0318e-10 -1.14574e-10 -1.29142e-09 5e-05 1.46608e-10 
219 1 0.0971512 0.0182688 0.0070716 0.00608044 -1.40193e-05 2.89068e-05 4.46348e-11 9.81114e-11 7.59881e-11 5e-05 1.46608e-10 
220 1 0.0910283 0.0175294 0.00720544 0.00615421 -0.000786443 -3.74872e-05 -9.03209e-11 -3.99407e-11 4.7578e-10 5e-05 1.46608e-10 
221 1 0.084991 0.0171758 0.00735767 0.00606623 -0.000250019 5.78573e-05 4.02763e-11 4.72756e-11 -1.82506e-11 5e-05 1.46608e-10 
222 1 0.0969346 0.0165763 0.00767733 0.00561402 0.00013416 -9.31548e-05 2.44502e-10 -1.33763e-10 -6.1222e-11 5e-05 1.46608e-10 
223 1 0.0911113 0.0172203 0.00728733 0.00598273 -0.000500318 0.000539798 -9.20827e-11 2.81515e-11 -7.70121e-11 5e-05 1.46608e-10 
224 1 0.0908685 0.0170342 0.00739449 0.00595443 -0.000550414 0.000533149 -1.78901e-10 -3.81834e-10 2.45277e-10 5e-05 1.46608e-10 
225 1 0.0972248 0.01778 0.00709505 0.00623094 0.000111038 -3.47912e-05 -6.69073e-12 -4.83558e-11 1.13039e-11 5e-05 1.46608e-10 
226 1 0.0913583 0.0174537 0.00715266 0.00615113 0.000135314 0.000149507 -4.22127e-10 4.23897e-10 -3.00614e-10 5e-05 1.46608e-10 
227 1 0.0850568 0.0174513 0.00725602 0.00609428 -0.000248445 5.71031e-05 -1.20781e-11 -1.16181e-11 4.474e-12 5e-05 1.46608e-10 
228 1 0.0850242 0.0176956 0.00716638 0.00611146 -0.00024951 5.74133e-05 2.25363e-12 5.9976e-12 -9.69133e-13 5e-05 1.46608e-10 
229 1 0.0910046 0.0174432 0.00725024 0.00612867 -0.000745113 1.68817e-05 -5.26324e-10 -3.95349e-10 -2.05705e-10 5e-05 1.46608e-10 
230 1 0.0912886 0.0180695 0.00703787 0.00605519 -0.000694626 0.000254068 1.12219e-10 1.91125e-10 -9.5068e-11 5e-05 1.46608e-10 
231 1 0.0849809 0.0175124 0.00723396 0.00609575 -0.000246884 5.65484e-05 -1.32363e-12 4.13616e-13 9.74399e-13 5e-05 1.46608e-10 
232 1 0.0908592 0.0161974 0.00790941 0.00597851 0.000331516 2.65e-05 -3.13132e-10 5.67341e-10 -3.62618e-10 5e-05 1.46608e-10 
233 1 0.0909978 0.0167838 0.00755255 0.00575075 -0.000442674 0.000493852 2.26184e-10 -3.906e-10 2.65982e-10 5e-05 1.46608e-10 
234 1 0.0971786 0.01826 0.00697584 0.00599485 0.000147587 -1.59233e-05 6.40331e-11 1.52005e-11 1.5005e-11 5e-05 1.46608e-10 
235 1 0.0912536 0.0183297 0.00707091 0.0058669 -0.00074646 0.00023769 5.86062e-11 4.25729e-11 -1.79957e-12 5e-05 1.46608e-10 
236 1 0.0913085 0.0181665 0.00705209 0.00594167 -0.000639204 0.000257835 1.2473e-10 -8.7645e-11 5.13302e-11 5e-05 1.46608e-10 
237 1 0.0914032 0.0181972 0.00706171 0.00589913 -0.000534998 0.000269067 -3.28738e-10 7.03487e-11 -3.69139e-11 5e-05 1.46608e-10 
239 1 0.0847887 0.0166956 0.00755816 0.00559278 -0.000234628 -0.000214159 5.9703e-12 -2.09603e-11 1.43908e-13 5e-05 1.46608e-10 
240 1 0.0848508 0.0169645 0.00744072 0.00603901 -0.00033721 -0.000195437 2.40839e-11 -4.71306e-12 -2.71506e-12 5e-05 1.46608e-10 
241 1 0.0847694 0.0166056 0.00759736 0.00561462 -0.000237939 -0.000214152 -2.55309e-12 -2.34451e-11 1.26095e-11 5e-05 1.46608e-10 
242 1 0.091132 0.0169194 0.007474 0.00609579 -9.03597e-05 0.000294081 -2.57268e-10 -4.22823e-10 2.32473e-10 5e-05 1.46608e-10 
243 1 0.0908679 0.0166515 0.00762922 0.00545219 -0.00048975 0.000508153 2.73349e-10 6.34222e-11 4.32681e-12 5e-05 1.46608e-10 
244 1 0.084808 0.0167855 0.00751897 0.00557272 -0.000231324 -0.000214921 -1.07601e-11 -1.25263e-11 9.67862e-12 5e-05 1.46608e-10 
246 1 0.0849375 0.0173293 0.00730153 0.00608082 -0.000244463 5.57064e-05 -1.17779e-12 4.51173e-12 -1.10168e-12 5e-05 1.46608e-10 