ITEM: TIMESTEP
21600000
ITEM: NUMBER OF ATOMS
287
ITEM: BOX BOUNDS ff ff ff
-0.02 0.43
-0.02 0.06
-0.02 0.07
ITEM: ATOMS id type x y z vx vy vz fx fy fz radius mass 
1 1 0.138778 0.0165279 0.00789756 0.00604868 -0.000419202 0.000780391 -2.5678e-10 1.42963e-10 -3.01537e-10 5e-05 1.46608e-10 
2 1 0.139263 0.0176737 0.00716376 0.00570712 -0.000908042 0.000498437 8.88854e-11 -1.03814e-10 2.28873e-11 5e-05 1.46608e-10 
3 1 0.132476 0.0155785 0.00853381 0.00618284 0.000629812 0.000560766 -5.91899e-11 4.01118e-11 -1.7419e-10 5e-05 1.46608e-10 
4 1 0.139113 0.0178029 0.00712869 0.00588344 -0.000740953 0.000470386 2.42272e-10 1.6735e-10 8.50448e-11 5e-05 1.46608e-10 
5 1 0.13869 0.0164328 0.00798669 0.00573051 -0.000414911 0.000729354 -1.08988e-10 4.68508e-11 5.94089e-11 5e-05 1.46608e-10 
6 1 0.144657 0.0164796 0.00836596 0.00593292 0.000761354 0.00141753 9.28797e-13 9.35291e-13 -4.17973e-13 5e-05 1.46608e-10 
7 1 0.138854 0.0170273 0.00736214 0.00548382 -0.000633792 0.000272509 -4.07791e-13 4.12992e-11 -5.5609e-12 5e-05 1.46608e-10 
8 1 0.13858 0.0160836 0.00832614 0.00565239 -0.000382349 0.000691707 2.59263e-11 1.08865e-11 -8.42917e-12 5e-05 1.46608e-10 
9 1 0.144952 0.0175286 0.0076448 0.00474865 0.000240283 0.00142353 6.39719e-12 -2.29398e-12 4.36442e-12 5e-05 1.46608e-10 
10 1 0.1388 0.0168334 0.00758425 0.00536491 -0.000705045 0.000209459 1.09108e-11 2.63103e-11 1.21632e-10 5e-05 1.46608e-10 
11 1 0.139295 0.0178874 0.00712083 0.00583522 -0.000798436 0.000481161 -2.85545e-10 1.69588e-10 -3.22085e-11 5e-05 1.46608e-10 
12 1 0.132674 0.0162536 0.00782424 0.00565851 0.000157351 0.000393144 2.15076e-11 -1.45457e-10 -4.53588e-11 5e-05 1.46608e-10 
13 1 0.138667 0.016363 0.00805443 0.00494358 -0.000315031 0.000593981 1.20287e-10 -1.6745e-10 1.6388e-10 5e-05 1.46608e-10 
14 1 0.132393 0.0154334 0.00888799 0.00604364 0.000622149 0.000527413 -1.28413e-10 7.54635e-11 -4.14236e-11 5e-05 1.46608e-10 
15 1 0.138987 0.0172265 0.00724231 0.00546639 -0.000580605 0.000427838 -1.41099e-10 -2.19605e-11 -1.19051e-11 5e-05 1.46608e-10 
16 1 0.132372 0.0153963 0.00897842 0.00601097 0.000613292 0.000527993 1.81709e-10 8.99411e-11 -4.43037e-12 5e-05 1.46608e-10 
17 1 0.138782 0.0167692 0.00765876 0.00533516 -0.000273328 0.000565492 -1.35951e-10 -7.9061e-11 7.72395e-11 5e-05 1.46608e-10 
18 1 0.144821 0.017047 0.00797754 0.00576048 0.000279017 0.00173693 1.4117e-11 -1.10765e-11 -7.44168e-12 5e-05 1.46608e-10 
19 1 0.138644 0.0162931 0.00812236 0.00557248 -0.000414205 0.000722267 3.81426e-10 -5.93588e-11 2.87676e-10 5e-05 1.46608e-10 
21 1 0.138786 0.0164571 0.00796789 0.00598635 -0.000441683 0.000766538 -3.10344e-11 8.23288e-11 -1.53453e-10 5e-05 1.46608e-10 
22 1 0.138894 0.0172031 0.00727218 0.0055263 -0.000491625 0.000461488 -1.74405e-12 4.17616e-10 7.59148e-11 5e-05 1.46608e-10 
23 1 0.132865 0.0167552 0.00767782 0.00547949 0.000104163 0.000404894 3.84026e-10 -2.4214e-10 9.34138e-11 5e-05 1.46608e-10 
24 1 0.14489 0.0172878 0.00781231 0.00585817 0.000275504 0.0017722 -3.71034e-13 3.76666e-12 -4.6792e-12 5e-05 1.46608e-10 
25 1 0.138836 0.0169585 0.00743228 0.00543825 -0.000685787 0.000225215 5.51741e-11 7.93818e-11 1.13243e-10 5e-05 1.46608e-10 
26 1 0.144753 0.0168061 0.00814277 0.00569137 0.000281208 0.00171132 4.62754e-13 1.90859e-12 -1.42272e-12 5e-05 1.46608e-10 
27 1 0.132751 0.0166285 0.00770958 0.00544155 9.7296e-05 0.000404358 6.23722e-12 -4.02469e-11 2.64786e-11 5e-05 1.46608e-10 
28 1 0.139091 0.0177071 0.00714754 0.00579279 -0.000713526 0.000458348 2.2092e-10 3.18995e-10 -4.37837e-11 5e-05 1.46608e-10 
29 1 0.138623 0.0162293 0.00819632 0.00557633 -0.000455396 0.00065935 -2.54505e-10 -6.96025e-10 4.77061e-10 5e-05 1.46608e-10 
30 1 0.139144 0.0175467 0.00718387 0.00569725 -0.000748506 0.000464093 -4.43297e-10 -7.15143e-11 -7.25985e-12 5e-05 1.46608e-10 
31 1 0.138874 0.017116 0.00732024 0.00549644 -0.000566934 0.00040776 1.18996e-10 1.28941e-10 1.32511e-10 5e-05 1.46608e-10 
32 1 0.138954 0.0171245 0.00726186 0.00550991 -0.000514708 0.000415955 6.31988e-11 4.11163e-10 6.37708e-11 5e-05 1.46608e-10 
33 1 0.144681 0.0165623 0.00830949 0.00593597 0.000689 0.00147521 7.86866e-13 9.18272e-13 -4.52802e-13 5e-05 1.46608e-10 
34 1 0.138764 0.0166989 0.00772736 0.00533487 -0.000262063 0.000555827 -2.29947e-10 1.39795e-11 4.38012e-12 5e-05 1.46608e-10 
35 1 0.138944 0.0170447 0.00732128 0.00546943 -0.00061118 0.00030072 -2.13609e-11 -2.25097e-11 -2.53488e-10 5e-05 1.46608e-10 
36 1 0.144987 0.0176892 0.00753119 0.00557832 0.000257866 0.00169129 -1.33373e-12 -6.34153e-12 3.26371e-12 5e-05 1.46608e-10 
37 1 0.138919 0.0169166 0.00747267 0.00543669 -0.000711843 0.000241047 -2.83328e-11 6.89433e-11 -2.20676e-10 5e-05 1.46608e-10 
38 1 0.139083 0.0172586 0.00724074 0.00545948 -0.000686504 0.00042634 -5.0176e-11 -1.83562e-10 1.69299e-10 5e-05 1.46608e-10 
39 1 0.144913 0.017368 0.0077573 0.00587897 0.000275046 0.00178023 -7.85129e-12 8.79504e-12 1.27749e-11 5e-05 1.46608e-10 
41 1 0.138738 0.0166193 0.00789596 0.00607866 -0.000391658 0.000937604 -3.71153e-11 4.19226e-10 -3.81191e-10 5e-05 1.46608e-10 
42 1 0.138913 0.0172932 0.00723347 0.00552343 -0.000480798 0.000440512 4.51253e-11 1.66168e-10 -1.94379e-10 5e-05 1.46608e-10 
44 1 0.139103 0.0173546 0.00722179 0.00559626 -0.000720075 0.000450208 1.63185e-10 -7.38812e-11 9.53033e-11 5e-05 1.46608e-10 
45 1 0.144706 0.0166443 0.00825349 0.00593999 0.000620589 0.00153012 6.47379e-13 9.09707e-13 -4.92537e-13 5e-05 1.46608e-10 
46 1 0.144798 0.0169667 0.00803261 0.00573701 0.000280192 0.00172818 -1.59674e-12 -5.8617e-13 1.26839e-11 5e-05 1.46608e-10 
47 1 0.138745 0.0166285 0.00779597 0.00533966 -0.000248031 0.000542868 -9.128e-11 7.27193e-11 -1.4231e-10 5e-05 1.46608e-10 
48 1 0.138953 0.0174834 0.00718681 0.00571488 -0.000503061 0.000413701 -3.40273e-10 -9.98668e-11 -2.14979e-11 5e-05 1.46608e-10 
49 1 0.144775 0.0168864 0.00808769 0.00571442 0.000280691 0.00171953 -4.60623e-12 1.16505e-12 3.47519e-13 5e-05 1.46608e-10 
50 1 0.139016 0.0177711 0.00713015 0.00598929 -0.000503079 0.000427175 1.67014e-10 2.2122e-10 -3.75622e-11 5e-05 1.46608e-10 
51 1 0.138995 0.0176753 0.00714899 0.00596941 -0.000515314 0.000429632 -1.63799e-10 -8.46473e-11 1.60449e-11 5e-05 1.46608e-10 
52 1 0.132654 0.0161724 0.00787902 0.00563993 -0.000239069 -0.000246339 -9.46289e-11 -1.34113e-10 1.97633e-10 5e-05 1.46608e-10 
53 1 0.144844 0.0171272 0.00792246 0.0057836 0.00027793 0.00174485 -8.14956e-13 1.31138e-12 -5.08711e-12 5e-05 1.46608e-10 
54 1 0.138764 0.0163871 0.00803598 0.00573518 -0.000410172 0.000722577 -6.56299e-11 7.43192e-11 -2.38083e-11 5e-05 1.46608e-10 
55 1 0.132435 0.0155076 0.00870712 0.0061276 0.000621582 0.000542787 -7.94806e-11 -7.31827e-11 -1.15882e-10 5e-05 1.46608e-10 
56 1 0.138936 0.0169804 0.00739741 0.00545546 -0.000678621 0.000257622 2.71549e-11 4.51862e-11 -1.97472e-10 5e-05 1.46608e-10 
57 1 0.14473 0.0167258 0.00819786 0.00594497 0.000555991 0.00158238 5.09953e-13 9.0401e-13 -5.34632e-13 5e-05 1.46608e-10 
59 1 0.139021 0.0169413 0.00743241 0.00542457 -0.00072226 0.00025473 2.02903e-10 2.75152e-10 4.56028e-11 5e-05 1.46608e-10 
60 1 0.139029 0.0170052 0.00735591 0.00545701 -0.000724361 0.000235115 -2.71338e-11 1.23373e-10 -1.65514e-10 5e-05 1.46608e-10 
61 1 0.13871 0.0165294 0.00797106 0.00623298 -0.000469348 0.000950939 -1.19645e-10 1.25074e-10 -1.48173e-10 5e-05 1.46608e-10 
62 1 0.139123 0.0174507 0.00720282 0.00567601 -0.000739541 0.000460408 -1.02878e-10 -1.78142e-10 3.12049e-11 5e-05 1.46608e-10 
63 1 0.139048 0.0175155 0.00718521 0.00573179 -0.000662612 0.000449215 1.98454e-10 5.41178e-10 -8.10169e-11 5e-05 1.46608e-10 
64 1 0.144867 0.0172075 0.00786738 0.00580638 0.000277283 0.00175335 -3.82691e-13 5.22376e-12 -1.5791e-12 5e-05 1.46608e-10 
65 1 0.132788 0.0163798 0.00779272 0.00556598 0.000135737 0.000409904 9.59965e-11 -5.5505e-11 2.97353e-10 5e-05 1.46608e-10 
66 1 0.132729 0.0161225 0.00792942 0.0057793 -0.000199742 -2.72124e-06 -2.10785e-10 7.96478e-11 1.51596e-10 5e-05 1.46608e-10 
67 1 0.139285 0.0177694 0.00714498 0.00575915 -0.000884862 0.000495907 9.96947e-11 2.02238e-10 1.00459e-10 5e-05 1.46608e-10 
68 1 0.139188 0.017738 0.00714631 0.00582984 -0.000765481 0.000470985 4.17031e-11 -5.13561e-11 2.97337e-11 5e-05 1.46608e-10 
69 1 0.138865 0.0167302 0.00770091 0.00533017 -0.000367102 0.000496779 -4.47204e-11 -5.4584e-11 -1.0647e-10 5e-05 1.46608e-10 
70 1 0.144936 0.0174483 0.00770229 0.00590031 0.000273925 0.00178829 1.04026e-11 7.39844e-13 -8.77504e-13 5e-05 1.46608e-10 
71 1 0.132414 0.0154705 0.00879752 0.00609625 0.000626815 0.000532831 5.97736e-11 4.53605e-11 -4.00304e-11 5e-05 1.46608e-10 
72 1 0.139165 0.0176425 0.00716503 0.00574431 -0.000757971 0.000466585 -3.30903e-10 -8.89173e-11 2.83988e-11 5e-05 1.46608e-10 
73 1 0.138818 0.016896 0.00750823 0.00540427 -0.000686026 0.000224288 2.11863e-10 -5.74054e-11 1.44163e-11 5e-05 1.46608e-10 
74 1 0.139008 0.0173233 0.00722339 0.00556365 -0.000600951 0.000428677 -1.83484e-11 4.07261e-10 -5.56049e-11 5e-05 1.46608e-10 
76 1 0.132987 0.0173107 0.00750845 0.00571074 0.000194208 0.000391047 -5.69187e-11 -7.86872e-11 7.81875e-12 5e-05 1.46608e-10 
77 1 0.139107 0.0181719 0.00705317 0.00597067 -0.000720999 0.000474868 2.88192e-11 -6.67837e-11 -2.4119e-10 5e-05 1.46608e-10 
78 1 0.132495 0.0156291 0.0084498 0.00565178 4.00461e-05 8.80112e-05 -5.51175e-11 -1.43275e-10 -2.74672e-10 5e-05 1.46608e-10 
79 1 0.132693 0.0163491 0.00780167 0.00561357 6.41296e-05 0.000457045 9.82847e-11 -4.15538e-10 6.77647e-11 5e-05 1.46608e-10 
80 1 0.139056 0.0178332 0.0072057 0.00541918 -0.000749823 0.00011967 2.79033e-11 3.29549e-11 2.40905e-10 5e-05 1.46608e-10 
81 1 0.132634 0.0161012 0.00795161 0.00564842 -3.98957e-05 -0.000446508 -4.85714e-11 7.61345e-11 -4.10994e-11 5e-05 1.46608e-10 
82 1 0.132771 0.0167223 0.00768087 0.00542463 7.61908e-05 0.000408254 -4.36887e-11 -7.04297e-11 2.8298e-11 5e-05 1.46608e-10 
83 1 0.132824 0.0161401 0.0078963 0.00579208 -0.000250798 -0.000316362 -5.10239e-10 4.59031e-10 -3.39954e-10 5e-05 1.46608e-10 
84 1 0.144968 0.0176089 0.00758757 0.00551495 0.000258079 0.0016697 -2.31862e-12 -5.73294e-12 3.2894e-12 5e-05 1.46608e-10 
85 1 0.13261 0.0157074 0.00834566 0.00555371 -0.000255233 -0.000226507 -1.44355e-10 2.53426e-10 -7.64762e-11 5e-05 1.46608e-10 
86 1 0.139069 0.0176113 0.00716638 0.00576227 -0.000694881 0.000455168 1.80278e-10 4.6697e-10 -9.6465e-11 5e-05 1.46608e-10 
87 1 0.139005 0.0168785 0.00750846 0.00538158 -0.000717301 0.000259854 1.59746e-10 7.48942e-11 7.08395e-11 5e-05 1.46608e-10 
88 1 0.13905 0.0179312 0.00718707 0.00583299 -0.000707674 0.000269602 2.68706e-11 -9.67943e-11 1.90025e-10 5e-05 1.46608e-10 
89 1 0.139227 0.0180086 0.00716692 0.0059356 -0.000784271 0.000484314 -5.98131e-11 1.93394e-10 -1.20159e-11 5e-05 1.46608e-10 
90 1 0.13924 0.0175781 0.00718249 0.0057219 -0.000777154 0.000470354 -1.8904e-10 -4.04615e-12 -1.03661e-11 5e-05 1.46608e-10 
91 1 0.132713 0.0164408 0.00776701 0.00544662 9.83229e-05 0.000404366 -2.4907e-10 -1.20129e-10 -3.09297e-12 5e-05 1.46608e-10 
92 1 0.139263 0.0180524 0.00708472 0.00592629 -0.000776557 0.000480417 1.86245e-10 1.64991e-10 -2.72462e-11 5e-05 1.46608e-10 
93 1 0.139168 0.0180217 0.007086 0.00589655 -0.000733961 0.000470774 -2.28039e-10 1.51852e-11 4.51856e-11 5e-05 1.46608e-10 
94 1 0.139326 0.0183453 0.00702691 0.00597111 -0.000767224 0.000484935 -2.5736e-10 2.58453e-11 -2.75547e-11 5e-05 1.46608e-10 
95 1 0.139242 0.0181228 0.00715233 0.00595552 -0.000759829 0.000477496 6.23081e-11 -1.08292e-12 -2.40489e-11 5e-05 1.46608e-10 
96 1 0.13919 0.0181175 0.00706714 0.00595699 -0.000741132 0.0004763 -1.30967e-11 -4.80311e-11 -4.77524e-11 5e-05 1.46608e-10 
97 1 0.132595 0.0159634 0.00809213 0.00578639 -0.000309833 -0.000183659 -1.02769e-10 1.06347e-10 1.6815e-10 5e-05 1.46608e-10 
98 1 0.139081 0.0180311 0.00716239 0.00616664 -6.82698e-06 -0.000275179 1.25206e-11 2.15297e-10 -3.5348e-10 5e-05 1.46608e-10 
99 1 0.132768 0.016286 0.00782135 0.00567663 0.000113642 0.000434973 3.27682e-10 -4.6888e-11 1.17438e-10 5e-05 1.46608e-10 
100 1 0.139198 0.0173862 0.0072203 0.00563183 -0.000796567 0.000468036 9.22779e-11 2.36436e-10 -3.19951e-11 5e-05 1.46608e-10 
101 1 0.13271 0.0160503 0.00799592 0.00578706 -0.000322306 -0.000151243 -1.54832e-10 -1.60436e-10 1.41163e-10 5e-05 1.46608e-10 
102 1 0.0643568 0.0187248 0.00531097 4.06905e-15 1.0563e-14 8.29619e-14 5.41338e-22 -2.35307e-22 1.03398e-24 5e-05 1.46608e-10 
103 1 0.24257 0.0191927 0.00520306 1.19201e-22 4.01299e-22 8.29106e-22 0 0 0 5e-05 1.46608e-10 
104 1 0.133067 0.0172555 0.00753263 0.00571439 0.000194314 0.000393764 -3.17472e-11 -7.51372e-11 -1.917e-11 5e-05 1.46608e-10 
105 1 0.132555 0.0158263 0.00823209 0.00574274 -0.000317288 -0.000195598 1.58923e-10 -8.97964e-11 -2.31781e-10 5e-05 1.46608e-10 
106 1 0.133144 0.0171967 0.00755773 0.00570504 0.000190026 0.000395639 2.19355e-11 -1.1787e-10 3.58423e-11 5e-05 1.46608e-10 
107 1 0.132515 0.0156907 0.00837356 0.00556799 -0.000229323 -0.000155807 -8.43364e-11 -9.81339e-11 -1.90755e-10 5e-05 1.46608e-10 
108 1 0.138901 0.0168569 0.00755072 0.00540799 -0.000630309 0.000305478 2.59936e-11 2.71462e-10 -5.94189e-11 5e-05 1.46608e-10 
109 1 0.138973 0.0175795 0.00716782 0.00592675 -0.000541909 0.000430696 -4.17734e-10 -4.34828e-10 7.02446e-11 5e-05 1.46608e-10 
110 1 0.139197 0.018569 0.00698131 0.00598899 -0.000799685 0.000298322 -4.03672e-11 -2.1067e-10 7.4375e-11 5e-05 1.46608e-10 
111 1 0.139248 0.0184065 0.00701288 0.00598891 -0.000776696 0.000276171 -2.23646e-10 -1.07193e-10 -4.26849e-10 5e-05 1.46608e-10 
112 1 0.132615 0.0160324 0.0080217 0.00560619 -3.52072e-05 -0.000455852 6.39927e-11 1.48429e-10 -7.83407e-11 5e-05 1.46608e-10 
113 1 0.1334 0.0181379 0.0072175 0.00663084 0.00224752 -0.00101048 -1.01185e-10 4.80186e-11 -1.92793e-11 5e-05 1.46608e-10 
114 1 0.133004 0.0169743 0.00761828 0.00567323 0.000202707 0.000388134 -7.03973e-11 2.85118e-11 1.23296e-12 5e-05 1.46608e-10 
115 1 0.139028 0.0174194 0.0072042 0.00563139 -0.000616859 0.00043736 -2.81184e-10 5.22484e-10 -1.96894e-10 5e-05 1.46608e-10 
116 1 0.138882 0.0167975 0.00762898 0.00536344 -0.000486628 0.000400828 1.73008e-10 1.04549e-10 -7.45613e-11 5e-05 1.46608e-10 
117 1 0.138742 0.0163173 0.00810389 0.00556234 -0.000386879 0.00068979 1.18042e-10 -9.90082e-12 2.42535e-11 5e-05 1.46608e-10 
118 1 0.132458 0.0155694 0.00863182 0.00619667 0.000618161 0.00056406 -9.36264e-11 2.28598e-11 -1.13903e-10 5e-05 1.46608e-10 
119 1 0.139036 0.0170693 0.00727943 0.00546032 -0.000713195 0.000231071 -8.20076e-11 -2.22522e-10 -2.39328e-10 5e-05 1.46608e-10 
120 1 0.138601 0.0161536 0.00825805 0.00562549 -0.000397408 0.000704223 -2.2838e-10 -2.58478e-10 1.19053e-10 5e-05 1.46608e-10 
121 1 0.138558 0.0160136 0.00839423 0.00567099 -0.000375831 0.000688499 4.21177e-11 1.85497e-10 -1.81935e-10 5e-05 1.46608e-10 
122 1 0.139175 0.0184729 0.00699848 0.00598783 -0.00077147 0.000296981 7.81982e-12 1.14423e-10 8.28516e-12 5e-05 1.46608e-10 
123 1 0.13265 0.0158445 0.00820568 0.00574649 -0.000306065 -0.000194668 3.22613e-10 -2.03621e-10 5.92894e-11 5e-05 1.46608e-10 
124 1 0.13906 0.0179629 0.00709244 0.00595029 -0.000684282 0.000456739 -4.8102e-11 -2.39074e-10 7.55488e-11 5e-05 1.46608e-10 
125 1 0.138718 0.0162475 0.00817165 0.0055465 -0.000382493 0.000685667 2.33483e-10 -1.20244e-10 1.88925e-10 5e-05 1.46608e-10 
126 1 0.138933 0.0173873 0.00720582 0.00557759 -0.000482181 0.000405645 5.88767e-11 -5.7416e-11 -9.94791e-11 5e-05 1.46608e-10 
127 1 0.132575 0.0158949 0.0081621 0.00575351 -0.000314773 -0.00018826 1.95367e-10 4.07459e-11 -4.57749e-11 5e-05 1.46608e-10 
128 1 0.139038 0.0178671 0.00711127 0.00594365 -0.00069346 0.000462687 -1.42482e-11 -1.62645e-10 2.85409e-11 5e-05 1.46608e-10 
129 1 0.139261 0.0182277 0.00713445 0.00585408 -0.000829573 0.000440255 -3.70894e-10 -5.02411e-11 1.08222e-10 5e-05 1.46608e-10 
130 1 0.132886 0.0168487 0.00764937 0.005609 8.53478e-05 0.000421166 2.50887e-10 4.41292e-11 4.63174e-12 5e-05 1.46608e-10 
131 1 0.132749 0.016202 0.00787211 0.00574904 9.92591e-07 0.000288732 -2.54492e-10 1.00901e-10 -3.57965e-10 5e-05 1.46608e-10 
132 1 0.139139 0.0178903 0.00716919 0.00585756 -0.00074579 0.000485008 1.50775e-10 -1.42042e-10 3.16176e-10 5e-05 1.46608e-10 
133 1 0.138933 0.0166255 0.00780945 0.0053557 -0.000315567 0.000609791 -3.85237e-10 -1.85146e-11 -5.07165e-11 5e-05 1.46608e-10 
134 1 0.139061 0.0171656 0.00727074 0.00543285 -0.000700646 0.00032167 -4.01201e-10 -1.56551e-10 1.04008e-10 5e-05 1.46608e-10 
135 1 0.138697 0.0161775 0.00823972 0.00559615 -0.000371677 0.00068191 -3.24798e-10 1.63232e-12 -1.17333e-10 5e-05 1.46608e-10 
136 1 0.132589 0.0156389 0.00841564 0.00548498 -0.000575179 -0.000540172 1.92516e-10 -2.25275e-10 -3.20353e-10 5e-05 1.46608e-10 
137 1 0.139129 0.018268 0.00703511 0.00595287 -0.000803977 0.000292773 -6.06344e-11 1.21502e-11 1.37016e-11 5e-05 1.46608e-10 
138 1 0.138847 0.0166603 0.00777021 0.00537466 -0.000282409 0.000580587 2.64467e-11 -2.24452e-11 1.64297e-10 5e-05 1.46608e-10 
140 1 0.139281 0.0185163 0.00699316 0.00597226 -0.0008139 0.000300687 4.55029e-11 1.35821e-10 -1.57979e-11 5e-05 1.46608e-10 
141 1 0.13263 0.015776 0.00827567 0.00567961 -0.000284307 -0.000214473 7.4697e-11 4.94978e-11 -6.53228e-11 5e-05 1.46608e-10 
142 1 0.133025 0.0170678 0.00758982 0.00570432 0.000193477 0.000393558 -9.42567e-11 3.27945e-11 -2.03726e-11 5e-05 1.46608e-10 
143 1 0.132535 0.0157578 0.00830208 0.0057033 -0.000304622 -0.000184329 1.60419e-10 -2.65613e-11 -3.07322e-11 5e-05 1.46608e-10 
144 1 0.132982 0.016881 0.00764663 0.005656 0.000206285 0.000385985 2.14673e-10 1.01425e-10 -3.44614e-11 5e-05 1.46608e-10 
146 1 0.132843 0.0162249 0.00784703 0.00571081 0.000192567 0.00040107 -7.01992e-11 2.34749e-10 1.69007e-10 5e-05 1.46608e-10 
147 1 0.132573 0.0156019 0.00850702 0.00578291 0.000701682 0.000220966 2.67318e-11 1.76908e-10 -2.90772e-10 5e-05 1.46608e-10 
148 1 0.132833 0.0170038 0.0075951 0.00567493 0.000209277 0.000385977 6.73102e-12 1.45751e-10 -5.28545e-11 5e-05 1.46608e-10 
149 1 0.139233 0.0183094 0.00703114 0.00595992 -0.00075486 0.000371004 -1.87673e-10 -7.30989e-11 1.05844e-10 5e-05 1.46608e-10 
150 1 0.132882 0.0164125 0.00778971 0.00554035 0.000202197 0.000377271 3.40898e-11 -4.56751e-12 -5.698e-11 5e-05 1.46608e-10 
151 1 0.133253 0.0173343 0.00751593 0.00575099 -4.62724e-05 -0.000147412 4.11398e-11 -3.27164e-11 5.01781e-11 5e-05 1.46608e-10 
153 1 0.13269 0.0159816 0.00806572 0.00579987 -0.000336204 -0.000185144 -1.31349e-10 -2.34447e-10 -1.53554e-11 5e-05 1.46608e-10 
154 1 0.132951 0.0171293 0.00756404 0.00571225 0.000199017 0.000392731 -7.46908e-11 2.55464e-13 -1.41771e-12 5e-05 1.46608e-10 
155 1 0.133005 0.0174091 0.00747815 0.00570117 0.000183997 0.000392889 1.53539e-10 1.87565e-10 -8.31617e-11 5e-05 1.46608e-10 
156 1 0.13293 0.0170358 0.00759251 0.00568335 0.000202695 0.000389127 -2.55581e-11 3.14308e-11 -1.30406e-11 5e-05 1.46608e-10 
157 1 0.0219312 0.0187687 0.00551176 -3.83624e-14 8.16449e-14 2.9589e-13 5.64292e-22 -1.88804e-22 1.20562e-22 5e-05 1.46608e-10 
158 1 0.133193 0.0178163 0.00734111 0.00584555 -8.89088e-05 -0.000133645 1.14521e-10 -2.23374e-11 -6.49179e-11 5e-05 1.46608e-10 
159 1 0.139211 0.0178337 0.00712753 0.0058629 -0.000758019 0.0004736 1.91006e-10 1.3747e-10 -2.88054e-11 5e-05 1.46608e-10 
160 1 0.132898 0.0172878 0.00754695 0.00571345 0.000192477 0.00039213 -5.10203e-11 -3.18254e-11 5.12127e-11 5e-05 1.46608e-10 
162 1 0.132855 0.0170983 0.00757029 0.00569606 0.000208183 0.000389811 -4.0921e-12 -3.17541e-11 1.65899e-11 5e-05 1.46608e-10 
164 1 0.1331 0.0177579 0.00736509 0.00579253 -0.000133061 -0.000113587 -1.84874e-11 4.13254e-11 1.46001e-11 5e-05 1.46608e-10 
165 1 0.133348 0.0176108 0.00741199 0.00587285 -9.84321e-05 -0.000130869 2.60248e-12 2.80934e-11 1.43948e-11 5e-05 1.46608e-10 
166 1 0.138879 0.0164855 0.00794495 0.00541875 0.000554544 -0.000247045 5.87723e-10 -4.61559e-10 4.87172e-10 5e-05 1.46608e-10 
167 1 0.132863 0.0163187 0.00781839 0.00559622 0.000198462 0.000382771 3.43583e-10 5.50296e-11 -9.61703e-11 5e-05 1.46608e-10 
168 1 0.133159 0.0172928 0.007528 0.00571563 0.00019996 0.000394415 -1.04266e-11 -2.76856e-11 3.14808e-11 5e-05 1.46608e-10 
169 1 0.133451 0.017972 0.00727681 0.00660458 0.00132537 -0.000671015 -7.46725e-11 2.10293e-11 -3.82946e-12 5e-05 1.46608e-10 
170 1 0.133175 0.0173933 0.00749651 0.00575613 -2.74765e-05 -0.000157361 -1.47799e-12 -9.84001e-11 -3.60756e-10 5e-05 1.46608e-10 
171 1 0.138914 0.016553 0.00788013 0.00633132 0.000333393 2.35274e-05 2.64847e-10 -1.42549e-10 1.92572e-10 5e-05 1.46608e-10 
172 1 0.133324 0.0175189 0.0074463 0.00593038 -0.000108412 -0.000133507 8.50067e-11 -2.22003e-11 2.17558e-11 5e-05 1.46608e-10 
173 1 0.139285 0.0181481 0.00706588 0.00594525 -0.000735906 0.000472368 -5.60228e-11 1.53851e-10 -9.60316e-11 5e-05 1.46608e-10 
174 1 0.133096 0.0174496 0.00747236 0.00570612 0.000177813 0.000407112 1.78647e-10 3.85779e-10 -4.68262e-11 5e-05 1.46608e-10 
175 1 0.126908 0.0172482 0.0071935 0.00568392 -8.86488e-05 -7.30592e-06 5.93307e-11 2.40434e-11 -1.12653e-11 5e-05 1.46608e-10 
176 1 0.132908 0.0169424 0.00762087 0.00566089 0.000209572 0.000385114 9.72057e-12 3.66185e-11 -7.30639e-12 5e-05 1.46608e-10 
177 1 0.132941 0.0174792 0.00750947 0.00569824 0.000185757 0.000389266 8.8928e-11 2.89973e-10 -3.82417e-11 5e-05 1.46608e-10 
178 1 0.133425 0.0178814 0.00731071 0.00601259 0.0014758 -0.00071021 -7.42726e-11 4.78521e-11 -1.25752e-12 5e-05 1.46608e-10 
179 1 0.133368 0.0178004 0.00734198 0.00599109 1.69392e-05 -0.000175795 -3.59563e-11 2.46368e-12 6.09669e-11 5e-05 1.46608e-10 
181 1 0.132916 0.0173551 0.00761885 0.00570824 0.000189106 0.000389522 1.07383e-10 -1.84977e-11 1.71159e-12 5e-05 1.46608e-10 
182 1 0.138831 0.0165898 0.00783907 0.00574947 -0.000305614 0.000638548 1.8657e-11 -7.29073e-11 1.72534e-10 5e-05 1.46608e-10 
183 1 0.133084 0.0173529 0.00750258 0.00569939 0.000183722 0.000394963 9.27489e-11 6.74975e-11 3.41864e-12 5e-05 1.46608e-10 
184 1 0.139359 0.0180827 0.00708349 0.00591931 -0.000759318 0.000476793 -2.67837e-13 4.12321e-10 -8.25703e-11 5e-05 1.46608e-10 
185 1 0.132811 0.0169098 0.0076237 0.00564132 0.000119881 0.000412145 1.37564e-10 2.29434e-10 -6.46876e-11 5e-05 1.46608e-10 
186 1 0.132901 0.0172285 0.00762749 0.00569508 0.000220866 0.000387187 -6.46541e-11 -8.2803e-11 -9.46128e-11 5e-05 1.46608e-10 
187 1 0.139177 0.0172901 0.00723926 0.00551853 -0.000818474 0.000465955 -3.60774e-11 -3.50085e-10 6.29231e-11 5e-05 1.46608e-10 
188 1 0.139085 0.0180756 0.00707284 0.00600102 -0.000873594 -0.00190703 7.11957e-11 -5.6016e-11 -1.42453e-09 5e-05 1.46608e-10 
189 1 0.139218 0.0174823 0.00720134 0.00567565 -0.000789758 0.000468901 -3.81541e-10 3.10258e-10 -1.12066e-10 5e-05 1.46608e-10 
190 1 0.127092 0.0176938 0.00708279 0.00618341 -0.000189289 0.000107882 -2.93063e-11 3.99422e-11 -1.36482e-11 5e-05 1.46608e-10 
191 1 0.13915 0.0183645 0.00701785 0.00597676 -0.000756532 0.000280983 -1.99619e-10 -4.74571e-10 1.30891e-10 5e-05 1.46608e-10 
192 1 0.1331 0.0170061 0.00761566 0.00568687 0.000168148 0.000400154 -7.25804e-11 1.09546e-10 -3.94491e-11 5e-05 1.46608e-10 
193 1 0.138989 0.0168155 0.00758459 0.00535371 -0.000708561 0.00026067 3.66622e-10 -1.81247e-10 7.35755e-11 5e-05 1.46608e-10 
194 1 0.132921 0.0166 0.00773236 0.00544443 0.000238045 0.000358842 1.08089e-11 -1.65002e-10 1.0064e-11 5e-05 1.46608e-10 
195 1 0.133364 0.0177066 0.00737645 0.00579701 2.58064e-05 -0.000172154 3.04911e-10 -8.47077e-11 5.12313e-11 5e-05 1.46608e-10 
196 1 0.132351 0.0153593 0.00906887 0.00598847 0.000616251 0.000521268 1.05251e-10 6.17382e-11 -3.27686e-11 5e-05 1.46608e-10 
197 1 0.126964 0.0175311 0.00717114 0.00608781 -0.000161414 9.54657e-05 -1.55754e-11 -1.48451e-11 3.91956e-11 5e-05 1.46608e-10 
198 1 0.132732 0.0165347 0.00773829 0.00542357 9.75176e-05 0.000404694 3.93873e-11 -1.39155e-10 3.01514e-11 5e-05 1.46608e-10 
199 1 0.132876 0.0171906 0.00753832 0.00571449 0.000197099 0.000392468 -8.05705e-11 -7.85209e-11 1.0945e-11 5e-05 1.46608e-10 
200 1 0.132846 0.0166614 0.00770652 0.00543638 9.00894e-05 0.000405082 4.82101e-11 -1.81075e-10 5.44746e-11 5e-05 1.46608e-10 
201 1 0.133355 0.0180003 0.00726915 0.00643281 0.000810566 -0.000477103 -4.86135e-11 3.20067e-11 -3.1612e-11 5e-05 1.46608e-10 
202 1 0.133125 0.0170989 0.00758778 0.00568761 0.00019439 0.000392403 1.23269e-10 -5.65528e-11 3.07902e-11 5e-05 1.46608e-10 
203 1 0.139218 0.0186651 0.00696413 0.00597024 -0.000895983 0.000315125 1.4076e-10 8.12595e-10 -1.62488e-10 5e-05 1.46608e-10 
204 1 0.132826 0.0165676 0.00773522 0.00542496 7.73645e-05 0.00040915 -1.48823e-10 -2.48324e-10 9.09518e-11 5e-05 1.46608e-10 
205 1 0.133209 0.0179061 0.00738201 0.00593247 -8.77482e-05 -0.000181391 3.38911e-12 1.28488e-11 4.11285e-11 5e-05 1.46608e-10 
206 1 0.133094 0.0175647 0.00743513 0.00590498 -4.1018e-05 0.000482272 -7.92435e-11 -1.42177e-10 -3.23775e-11 5e-05 1.46608e-10 
207 1 0.13267 0.0159131 0.00813571 0.00578616 -0.00031903 -0.000191039 3.69612e-10 -3.01917e-10 9.42896e-11 5e-05 1.46608e-10 
208 1 0.132975 0.0172264 0.00756097 0.00570188 0.000199617 0.000387304 -5.26829e-12 -1.22889e-10 4.542e-11 5e-05 1.46608e-10 
209 1 0.132902 0.0165063 0.00776102 0.00549188 0.000218138 0.000367857 -1.19644e-10 -1.04429e-10 3.4953e-11 5e-05 1.46608e-10 
210 1 0.139239 0.0179146 0.00719961 0.00582594 -0.000771555 0.000469357 -4.57569e-10 -9.00563e-11 -7.0464e-12 5e-05 1.46608e-10 
211 1 0.139307 0.018244 0.00704702 0.00589019 -0.00079314 0.000473868 -2.20898e-10 -1.13345e-10 3.84405e-11 5e-05 1.46608e-10 
212 1 0.133175 0.0175087 0.00745427 0.00594375 -0.000161639 -7.15503e-05 1.42276e-10 -4.58649e-11 -2.42024e-11 5e-05 1.46608e-10 
213 1 0.139156 0.0171936 0.00725829 0.00545418 -0.000688714 0.000434631 -3.08289e-10 -1.45164e-10 8.4095e-11 5e-05 1.46608e-10 
214 1 0.139421 0.0183778 0.00702521 0.00597646 -0.000760457 0.000481397 -2.50554e-10 1.04097e-10 -5.16534e-11 5e-05 1.46608e-10 
215 1 0.127032 0.0175722 0.00711061 0.00611086 -0.000196569 0.000104706 1.79479e-10 1.40455e-11 -1.58403e-11 5e-05 1.46608e-10 
216 1 0.132919 0.0173825 0.00752272 0.00570507 0.000188753 0.000389309 1.69935e-11 7.09728e-11 -2.51005e-11 5e-05 1.46608e-10 
217 1 0.13895 0.0166916 0.00773651 0.00528929 -0.000692485 0.000249137 1.02286e-10 -3.00727e-10 -6.56425e-11 5e-05 1.46608e-10 
218 1 0.132975 0.0176224 0.00740703 0.00581611 0.000204589 0.000399558 3.61783e-11 5.40783e-11 -1.042e-10 5e-05 1.46608e-10 
219 1 0.139211 0.0182134 0.00704888 0.00595393 -0.000755105 0.000375867 1.46836e-11 7.73916e-11 1.39131e-11 5e-05 1.46608e-10 
220 1 0.133057 0.0175866 0.00752542 0.00572205 0.000176912 0.000331993 -2.38083e-10 -4.22382e-11 6.44992e-11 5e-05 1.46608e-10 
221 1 0.126963 0.0171085 0.00727958 0.0056707 -9.07966e-05 -1.20186e-05 9.39689e-11 -4.16826e-11 1.7813e-11 5e-05 1.46608e-10 
222 1 0.138967 0.0167538 0.00766002 0.00531517 -0.000696527 0.000253932 6.32598e-11 -2.75471e-10 -4.36771e-11 5e-05 1.46608e-10 
223 1 0.133051 0.0171605 0.00756197 0.00569476 0.000192156 0.000392952 6.58258e-11 -2.21242e-11 -6.52189e-12 5e-05 1.46608e-10 
224 1 0.13279 0.0168162 0.00765218 0.00542722 0.000160775 0.00038044 -2.70374e-10 4.63281e-11 -1.32611e-11 5e-05 1.46608e-10 
225 1 0.139206 0.0179314 0.00710687 0.00585932 -0.000757003 0.000473313 -1.53896e-10 1.65473e-10 4.28749e-11 5e-05 1.46608e-10 
226 1 0.133254 0.0174503 0.00747342 0.00590532 -0.000217413 -8.01525e-05 2.51326e-10 -1.98366e-10 1.31134e-10 5e-05 1.46608e-10 
227 1 0.127023 0.0173753 0.00715655 0.00563952 -7.02946e-05 7.29764e-05 -6.94427e-11 2.03857e-11 -8.17433e-11 5e-05 1.46608e-10 
228 1 0.12693 0.017343 0.0071704 0.00561495 -5.21797e-05 6.838e-05 -2.58485e-12 -5.89191e-12 1.15983e-10 5e-05 1.46608e-10 
229 1 0.133034 0.017482 0.00754422 0.00569406 0.0001907 0.000391907 4.8412e-11 3.03964e-11 -4.63947e-11 5e-05 1.46608e-10 
230 1 0.133265 0.0180418 0.00725648 0.00618262 0.000336505 -0.000299848 -1.95036e-11 1.53367e-11 -2.57111e-11 5e-05 1.46608e-10 
231 1 0.126888 0.017165 0.00724541 0.00566776 -9.03638e-05 -1.23583e-05 -8.54597e-12 4.59098e-12 5.85439e-11 5e-05 1.46608e-10 
232 1 0.132806 0.016071 0.00796656 0.00581241 -0.000287332 -0.000209646 -5.15287e-11 -8.26136e-11 8.81374e-12 5e-05 1.46608e-10 
233 1 0.132942 0.0166937 0.00770377 0.00551576 0.000230306 0.000366693 3.29308e-11 -3.55079e-11 4.57388e-11 5e-05 1.46608e-10 
234 1 0.139127 0.0181335 0.00714332 0.00594311 -0.000745728 0.000467564 -1.13853e-11 2.22151e-10 -8.61778e-11 5e-05 1.46608e-10 
235 1 0.1331 0.0181091 0.00732738 0.00590834 -0.000151566 -0.000157259 -1.24784e-10 -2.95556e-11 4.11919e-11 5e-05 1.46608e-10 
236 1 0.133135 0.0183116 0.00716133 0.00595508 -0.000115715 -0.0001255 3.00584e-12 -4.02653e-11 1.90162e-11 5e-05 1.46608e-10 
237 1 0.133093 0.0181285 0.00722959 0.00591341 -8.89559e-05 -0.000136004 -6.00956e-11 4.45943e-11 -3.22e-11 5e-05 1.46608e-10 
239 1 0.126712 0.0164161 0.00771254 0.00554281 -7.50835e-05 -6.75819e-06 3.22015e-10 9.57848e-11 -3.25264e-11 5e-05 1.46608e-10 
240 1 0.126771 0.0166658 0.0075568 0.00557516 -7.03901e-05 -2.36173e-05 6.93527e-12 -3.80731e-11 4.04702e-11 5e-05 1.46608e-10 
241 1 0.126693 0.0163403 0.00777489 0.00554106 0.000222883 0.000317028 -2.99198e-10 -4.22736e-12 -2.49412e-10 5e-05 1.46608e-10 
242 1 0.133057 0.0168191 0.00767254 0.00560966 0.000202879 0.000382749 2.18942e-10 -1.93346e-10 8.58596e-11 5e-05 1.46608e-10 
243 1 0.132807 0.0164738 0.00776394 0.00513843 0.00091275 0.000118024 -8.37489e-11 1.54199e-10 -8.25377e-11 5e-05 1.46608e-10 
244 1 0.126732 0.0164993 0.00766063 0.00555154 -8.4626e-05 -1.36748e-05 9.35556e-11 -2.6809e-11 7.10854e-11 5e-05 1.46608e-10 
246 1 0.126849 0.0169986 0.0073492 0.00565164 -8.47435e-05 -1.47378e-05 7.16472e-11 -5.32282e-11 3.01045e-11 5e-05 1.46608e-10 
247 1 0.133109 0.017676 0.00749324 0.00743873 0.000819577 -0.000564627 1.05166e-10 -1.18667e-10 3.04127e-11 5e-05 1.46608e-10 
248 1 0.133301 0.0181527 0.00721485 0.00647272 0.00127263 -0.000646577 -3.07392e-11 -3.26048e-11 2.02979e-11 5e-05 1.46608e-10 