ITEM: TIMESTEP
17800000
ITEM: NUMBER OF ATOMS
287
ITEM: BOX BOUNDS ff ff ff
-0.02 0.43
-0.02 0.06
-0.02 0.07
ITEM: ATOMS id type x y z vx vy vz fx fy fz radius mass 
1 1 0.116567 0.0162857 0.00816157 0.00610636 0.000261734 -0.000769152 1.25898e-10 3.64449e-12 -1.67317e-11 5e-05 1.46608e-10 
2 1 0.117043 0.0173311 0.00716408 0.00568945 0.00087671 -1.07679e-05 5.39288e-10 -3.2122e-10 -5.67942e-11 5e-05 1.46608e-10 
3 1 0.110431 0.0160363 0.00816076 0.00589048 -0.000225678 0.000621601 8.70403e-11 7.32447e-11 -8.17108e-11 5e-05 1.46608e-10 
4 1 0.116891 0.0174557 0.00712845 0.00562503 0.000624915 7.0865e-05 1.3702e-12 5.42685e-11 3.04746e-10 5e-05 1.46608e-10 
5 1 0.11645 0.0161958 0.008255 0.00586673 0.000102306 -0.000600376 -3.69463e-10 -2.25913e-10 2.56254e-10 5e-05 1.46608e-10 
6 1 0.122578 0.0164914 0.00762553 0.00630962 0.000112741 0.00010947 -1.59483e-12 2.68733e-12 -1.87107e-12 5e-05 1.46608e-10 
7 1 0.116641 0.016832 0.00764923 0.00611181 6.50813e-05 -0.000586888 -1.35575e-10 -2.05797e-10 1.06628e-10 5e-05 1.46608e-10 
8 1 0.116343 0.0158419 0.00859187 0.00570256 8.72451e-05 -0.000572072 -2.82581e-10 3.40518e-11 4.56755e-11 5e-05 1.46608e-10 
9 1 0.122844 0.0176451 0.00712057 0.00558792 8.185e-05 -0.000259102 -8.99734e-11 -5.47475e-11 1.32449e-11 5e-05 1.46608e-10 
10 1 0.116577 0.0166198 0.0078514 0.00605463 9.68254e-05 -0.000610765 1.27678e-10 -1.07285e-10 9.4158e-11 5e-05 1.46608e-10 
11 1 0.117089 0.0175197 0.00712032 0.00598883 0.000803321 3.96279e-05 4.76443e-10 -3.68611e-11 -7.01737e-11 5e-05 1.46608e-10 
12 1 0.110648 0.0168563 0.00763204 0.00592664 -0.0002196 0.000595881 -8.94475e-11 -2.30696e-10 1.4141e-10 5e-05 1.46608e-10 
13 1 0.116428 0.016125 0.00832237 0.00582818 9.24604e-05 -0.000587075 1.09297e-10 -1.30058e-10 1.06911e-10 5e-05 1.46608e-10 
14 1 0.110348 0.0157039 0.00836028 0.00533583 -0.000156383 0.0005121 -9.48002e-11 -3.23668e-11 6.57437e-12 5e-05 1.46608e-10 
15 1 0.116782 0.0169944 0.00748676 0.00630533 0.000140103 -0.000666062 4.55437e-10 -6.62116e-11 -4.77988e-11 5e-05 1.46608e-10 
16 1 0.110329 0.015621 0.00841291 0.00553158 -0.000178681 0.000527325 -1.69697e-10 -7.17388e-11 -2.0505e-11 5e-05 1.46608e-10 
17 1 0.116556 0.016549 0.00791872 0.00601985 0.000102015 -0.000612507 3.2473e-11 -7.9837e-11 7.10071e-11 5e-05 1.46608e-10 
18 1 0.122722 0.0170828 0.00728003 0.00580423 0.000204049 4.0284e-05 2.31617e-12 1.40414e-11 3.39551e-12 5e-05 1.46608e-10 
19 1 0.116407 0.0160542 0.00838975 0.0058183 8.9102e-05 -0.00058425 2.22602e-10 8.14033e-11 -1.18388e-10 5e-05 1.46608e-10 
21 1 0.116546 0.0162149 0.00822899 0.00598689 0.000163476 -0.000667303 1.2059e-10 -7.68313e-11 5.59177e-11 5e-05 1.46608e-10 
22 1 0.116683 0.0169739 0.0075149 0.00617623 3.2924e-05 -0.00055443 -1.12283e-10 3.62398e-11 3.37573e-11 5e-05 1.46608e-10 
23 1 0.110851 0.0172981 0.0073596 0.00550883 2.54439e-05 0.000409829 3.06401e-10 2.41964e-10 -2.47938e-10 5e-05 1.46608e-10 
24 1 0.122783 0.0173592 0.00718787 0.00583606 2.89356e-05 -0.00025837 -1.05236e-10 -9.54141e-12 2.96048e-11 5e-05 1.46608e-10 
25 1 0.11662 0.0167617 0.00771703 0.00609577 8.22758e-05 -0.000599302 1.04978e-10 -1.27382e-10 1.70771e-10 5e-05 1.46608e-10 
26 1 0.122664 0.0168287 0.0074286 0.00575135 0.00022488 2.80481e-05 -1.47989e-10 5.4279e-11 -4.30556e-11 5e-05 1.46608e-10 
27 1 0.110735 0.0171864 0.00742353 0.00591635 -0.00026762 0.000626647 5.0142e-11 3.60963e-12 8.50931e-11 5e-05 1.46608e-10 
28 1 0.116873 0.0173585 0.00715123 0.00569135 0.000649928 6.25932e-05 2.11466e-11 -1.93397e-10 9.18335e-11 5e-05 1.46608e-10 
29 1 0.116386 0.0159834 0.00845712 0.00579499 9.08619e-05 -0.000585736 1.49001e-12 1.97381e-10 -1.85601e-10 5e-05 1.46608e-10 
30 1 0.116935 0.0172286 0.00725688 0.00557976 0.000540539 -0.000726368 -3.09845e-12 -2.39014e-10 1.21579e-10 5e-05 1.46608e-10 
31 1 0.116662 0.0169032 0.00758226 0.0061287 4.82243e-05 -0.000573773 -3.39769e-10 -9.07214e-12 7.1484e-11 5e-05 1.46608e-10 
32 1 0.11676 0.0169235 0.00755421 0.0065565 0.000302712 -0.000848167 4.93746e-11 -5.2868e-11 7.43049e-11 5e-05 1.46608e-10 
33 1 0.122599 0.0165757 0.00757632 0.00630941 0.00011673 0.000107009 3.85609e-12 -1.63723e-11 9.71148e-12 5e-05 1.46608e-10 
34 1 0.116535 0.0164782 0.00798609 0.00597911 0.000102964 -0.000611458 -1.28538e-10 -7.305e-11 6.48419e-11 5e-05 1.46608e-10 
35 1 0.116739 0.0168525 0.00762184 0.00626811 0.000167449 -0.000699316 -3.36417e-10 -7.08741e-11 3.61583e-12 5e-05 1.46608e-10 
36 1 0.122883 0.0178359 0.00707569 0.00563601 8.32727e-05 -0.00026162 -5.34599e-12 -1.23751e-13 4.06744e-13 5e-05 1.46608e-10 
37 1 0.116696 0.0167109 0.00775666 0.00619303 0.000166401 -0.000687485 -4.9907e-12 -2.71387e-10 2.61264e-10 5e-05 1.46608e-10 
38 1 0.116879 0.0170147 0.00745958 0.00629272 0.000339592 -0.000859487 3.13837e-10 -3.64085e-10 3.41563e-10 5e-05 1.46608e-10 
39 1 0.122803 0.0174545 0.00716544 0.00584731 2.29671e-05 -0.000257595 -4.07582e-12 2.95239e-11 -6.16206e-12 5e-05 1.46608e-10 
41 1 0.116492 0.0163373 0.00812025 0.00592307 0.000103923 -0.000608394 9.88836e-11 -4.90209e-12 -2.24902e-11 5e-05 1.46608e-10 
42 1 0.116705 0.0170443 0.00744713 0.00620642 3.83304e-05 -0.0005558 4.39159e-11 -8.69059e-11 -3.28509e-11 5e-05 1.46608e-10 
44 1 0.116899 0.0170857 0.0073921 0.00599728 0.000387435 -0.000880557 3.90942e-10 -1.93247e-10 1.34349e-10 5e-05 1.46608e-10 
45 1 0.122621 0.01666 0.0075271 0.00631161 0.000120715 0.000104824 -8.33754e-12 -5.75889e-12 4.46976e-12 5e-05 1.46608e-10 
46 1 0.122703 0.016998 0.00732958 0.00577209 0.00021605 3.34064e-05 1.01721e-10 1.27181e-11 1.7266e-12 5e-05 1.46608e-10 
47 1 0.116516 0.0164136 0.00806003 0.00593303 0.00010665 -0.000614518 -4.82605e-11 -3.76127e-11 2.51683e-12 5e-05 1.46608e-10 
48 1 0.116745 0.0171872 0.00731328 0.00550961 0.000155557 -0.000627301 2.17564e-11 -1.50243e-10 1.92823e-10 5e-05 1.46608e-10 
49 1 0.122683 0.0169134 0.00737908 0.00573067 0.000229995 2.49667e-05 -5.72854e-11 1.26023e-11 -2.41127e-11 5e-05 1.46608e-10 
50 1 0.116797 0.0174209 0.0071334 0.00567186 0.000567066 7.14334e-05 8.24046e-10 -1.49152e-11 2.65741e-10 5e-05 1.46608e-10 
51 1 0.116782 0.0173382 0.00718764 0.00563895 0.000500533 -0.000109118 2.12271e-10 -4.50409e-10 3.60606e-10 5e-05 1.46608e-10 
52 1 0.110626 0.0167738 0.00768417 0.00592721 -0.00021819 0.00059534 -1.87532e-11 -7.98961e-11 4.97561e-11 5e-05 1.46608e-10 
53 1 0.122742 0.0171687 0.00723274 0.00582489 3.34006e-05 -0.00025715 2.90982e-11 7.60327e-12 -1.4059e-11 5e-05 1.46608e-10 
54 1 0.116525 0.0161441 0.00829641 0.00585094 7.80859e-05 -0.000576493 -1.02683e-10 3.6011e-11 -1.22816e-11 5e-05 1.46608e-10 
55 1 0.110388 0.0158694 0.0082555 0.00592227 -0.000243 0.000609191 -1.12168e-10 3.29637e-11 -1.36366e-11 5e-05 1.46608e-10 
56 1 0.116717 0.0167817 0.00768925 0.00621954 0.000163858 -0.000686193 -2.2125e-12 -3.53442e-10 3.20183e-10 5e-05 1.46608e-10 
57 1 0.122643 0.0167443 0.00747788 0.00631105 0.000123395 0.000103187 2.60493e-11 -1.18725e-11 7.13683e-12 5e-05 1.46608e-10 
59 1 0.116794 0.0167315 0.00772913 0.00635855 0.000283691 -0.000811053 4.34723e-10 -2.49657e-10 2.05722e-10 5e-05 1.46608e-10 
60 1 0.116815 0.0168023 0.00766175 0.00638633 0.000289014 -0.000817402 -1.36451e-11 -2.15717e-10 2.02812e-10 5e-05 1.46608e-10 
61 1 0.116471 0.0162665 0.00818762 0.00591585 0.000105644 -0.000607982 3.14974e-11 -1.4175e-11 5.60321e-12 5e-05 1.46608e-10 
62 1 0.116918 0.0171569 0.00732448 0.0058227 0.000421902 -0.00089236 1.05299e-10 -1.93731e-10 1.23791e-10 5e-05 1.46608e-10 
63 1 0.116841 0.017208 0.00728483 0.00562226 0.00032034 -0.00063521 -1.38814e-10 -3.92103e-10 4.89789e-10 5e-05 1.46608e-10 
64 1 0.122762 0.017264 0.0072103 0.00582884 3.07335e-05 -0.000257637 2.39969e-11 1.54371e-11 2.72645e-12 5e-05 1.46608e-10 
65 1 0.110765 0.0169675 0.00756852 0.00593581 -0.000190373 0.000576828 8.78068e-11 -3.12912e-10 1.99064e-10 5e-05 1.46608e-10 
66 1 0.1107 0.0167199 0.00772493 0.00594203 -0.000220311 0.00059748 -2.0071e-10 -1.68399e-10 1.03679e-10 5e-05 1.46608e-10 
67 1 0.117076 0.0174233 0.00714307 0.00603008 0.000787418 3.19068e-05 4.07903e-10 -2.60827e-10 8.37597e-11 5e-05 1.46608e-10 
68 1 0.116967 0.0173933 0.00714628 0.0056805 0.000670846 4.74051e-05 -2.02267e-10 5.16252e-10 -1.22285e-10 5e-05 1.46608e-10 
69 1 0.116632 0.0164984 0.00795901 0.00628009 0.000309797 -0.000828336 -8.63146e-11 -2.20437e-10 2.16655e-10 5e-05 1.46608e-10 
70 1 0.122824 0.0175497 0.007143 0.00585898 2.06855e-05 -0.000257004 7.39256e-11 5.00172e-11 -5.26915e-11 5e-05 1.46608e-10 
71 1 0.110368 0.0157867 0.0083079 0.0057014 -0.000212868 0.000573719 -1.59104e-10 3.19401e-11 -3.44249e-11 5e-05 1.46608e-10 
72 1 0.116953 0.0173094 0.00720062 0.00554619 0.000840449 -0.00034061 6.20295e-10 -2.58321e-10 -2.43913e-10 5e-05 1.46608e-10 
73 1 0.116598 0.0166905 0.00778397 0.00607317 9.282e-05 -0.000609408 1.12927e-11 -1.06169e-10 1.22088e-10 5e-05 1.46608e-10 
74 1 0.116802 0.0170652 0.00741934 0.00612216 0.000175305 -0.000705957 2.05449e-10 -4.2172e-10 6.74958e-11 5e-05 1.46608e-10 
76 1 0.110968 0.017826 0.00710165 0.0055515 -0.000477225 -0.000235564 1.59599e-10 9.13709e-13 8.80793e-12 5e-05 1.46608e-10 
77 1 0.116916 0.0180005 0.00712697 0.0056135 0.000384308 -0.000738312 -1.23955e-10 4.446e-10 -2.17477e-10 5e-05 1.46608e-10 
78 1 0.110452 0.0161137 0.00810122 0.00591857 -0.000230151 0.000607468 3.31265e-11 1.89296e-10 -6.69656e-11 5e-05 1.46608e-10 
79 1 0.11067 0.0169389 0.00757991 0.00591433 -0.000229849 0.000600338 -1.07725e-10 -3.73186e-10 2.25626e-10 5e-05 1.46608e-10 
80 1 0.116839 0.0176261 0.00714862 0.00567873 0.000624326 -0.000146809 -9.85848e-11 -2.36426e-10 -6.09692e-10 5e-05 1.46608e-10 
81 1 0.110605 0.0166913 0.0077363 0.00592871 -0.000221204 0.000597004 -6.50959e-11 -6.04144e-11 3.35833e-11 5e-05 1.46608e-10 
82 1 0.110756 0.017269 0.00737131 0.00560451 -0.000214287 0.000577707 3.05081e-10 2.41463e-10 -1.73625e-12 5e-05 1.46608e-10 
83 1 0.110795 0.0167484 0.00771363 0.00592127 -0.00022404 0.000598143 1.31498e-11 4.10098e-11 -2.50757e-11 5e-05 1.46608e-10 
84 1 0.122864 0.0177405 0.00709813 0.00561559 8.32177e-05 -0.000260579 3.91416e-11 -3.06143e-11 5.57539e-12 5e-05 1.46608e-10 
85 1 0.11057 0.0162248 0.00803771 0.00595388 -0.00019563 0.000581179 -7.83394e-10 1.00809e-10 -1.20658e-10 5e-05 1.46608e-10 
86 1 0.116858 0.0172798 0.00721576 0.00566795 0.000258013 -0.000669945 8.54781e-10 -5.39605e-10 2.74496e-10 5e-05 1.46608e-10 
87 1 0.116773 0.0166607 0.0077965 0.00632502 0.000283509 -0.000807963 3.57068e-10 -1.27674e-10 7.47741e-11 5e-05 1.46608e-10 
88 1 0.116854 0.0176974 0.0070802 0.0056156 -0.000151852 -0.000829853 -2.21684e-10 7.70084e-11 1.2981e-10 5e-05 1.46608e-10 
89 1 0.116883 0.0177356 0.00716809 0.00514647 0.000234274 -0.000845238 -6.51975e-10 4.60904e-10 6.89536e-10 5e-05 1.46608e-10 
90 1 0.117032 0.0172531 0.00722559 0.00528654 0.000307743 -0.000781071 6.90823e-10 -2.12546e-10 -5.18912e-10 5e-05 1.46608e-10 
91 1 0.110692 0.0170214 0.00752779 0.00589886 -0.000243634 0.000607787 2.16564e-11 -4.30194e-10 2.89643e-10 5e-05 1.46608e-10 
92 1 0.117027 0.0176765 0.00708028 0.00574919 0.000339765 0.000124547 -1.98398e-10 3.38072e-10 -8.95669e-11 5e-05 1.46608e-10 
93 1 0.116954 0.0177427 0.00709813 0.00570361 0.000376521 -0.000238111 -1.32592e-10 4.96434e-10 9.54178e-12 5e-05 1.46608e-10 
94 1 0.117085 0.0179711 0.00709759 0.00564506 0.000415182 -0.000722152 1.81128e-10 -1.95163e-10 9.78226e-12 5e-05 1.46608e-10 
95 1 0.117029 0.0177267 0.00716672 0.00577924 0.000589567 -2.27411e-05 1.29553e-10 5.8938e-11 -5.38201e-11 5e-05 1.46608e-10 
96 1 0.117043 0.017776 0.00706783 0.00557383 0.000416357 -0.0010131 1.21823e-10 -1.27749e-10 -2.37554e-12 5e-05 1.46608e-10 
97 1 0.110561 0.0165263 0.00784057 0.00592532 -0.000236977 0.000606611 1.40321e-10 1.32387e-11 -1.06155e-11 5e-05 1.46608e-10 
98 1 0.116876 0.0178054 0.00709686 0.00569021 0.000346721 -0.000756742 -6.71478e-12 4.0024e-10 -1.0927e-10 5e-05 1.46608e-10 
99 1 0.110743 0.016885 0.00762066 0.00593125 -0.000206515 0.000587536 -9.67274e-11 -2.09352e-10 1.22175e-10 5e-05 1.46608e-10 
100 1 0.116996 0.0171082 0.00736281 0.00600385 0.000588048 -0.00105864 2.8199e-10 -9.99509e-11 1.60087e-10 5e-05 1.46608e-10 
101 1 0.110678 0.0166374 0.00777705 0.00593883 -0.000227957 0.000602267 -2.80813e-10 -1.6868e-10 8.31012e-11 5e-05 1.46608e-10 
102 1 0.0643568 0.0187248 0.00531097 4.07502e-15 1.05805e-14 8.29593e-14 5.7511e-22 -8.20848e-22 6.59677e-23 5e-05 1.46608e-10 
103 1 0.24257 0.0191927 0.00520306 -1.01195e-22 2.24983e-22 1.23839e-22 0 0 0 5e-05 1.46608e-10 
104 1 0.111043 0.0177622 0.00711889 0.00556587 -0.000459653 -0.000245761 6.59439e-11 -1.63331e-10 5.99585e-11 5e-05 1.46608e-10 
105 1 0.110518 0.0163612 0.00794483 0.00592978 -0.0002186 0.000595842 -1.87254e-10 1.97238e-10 -1.41097e-10 5e-05 1.46608e-10 
106 1 0.111118 0.0176983 0.00713613 0.00556853 -0.000456998 -0.000248103 1.77925e-10 -6.89098e-11 2.68904e-12 5e-05 1.46608e-10 
107 1 0.110474 0.0161962 0.00804909 0.00592159 -0.00022612 0.000598224 1.27613e-10 2.36894e-10 -8.66668e-11 5e-05 1.46608e-10 
108 1 0.116675 0.0166401 0.00782407 0.00618413 0.000183795 -0.000703147 -5.79944e-11 -2.91735e-10 2.71577e-10 5e-05 1.46608e-10 
109 1 0.116765 0.0172645 0.00725299 0.00555614 0.000309673 -0.000407679 4.69937e-11 -2.36914e-10 5.25307e-10 5e-05 1.46608e-10 
110 1 0.116997 0.0183875 0.00718616 0.00552839 0.000395842 -0.00071346 1.64867e-11 1.09762e-10 3.22587e-11 5e-05 1.46608e-10 
111 1 0.117029 0.018132 0.00713496 0.00551449 0.000398193 -0.000710829 9.34356e-11 4.61266e-10 7.13705e-11 5e-05 1.46608e-10 
112 1 0.110583 0.0166088 0.00778843 0.0059235 -0.000227884 0.000601362 -4.05643e-11 -1.1764e-10 7.36904e-11 5e-05 1.46608e-10 
113 1 0.111374 0.0184837 0.00688131 0.00412072 -5.03378e-05 0.000282476 -2.99771e-10 -1.82225e-10 -7.63652e-11 5e-05 1.46608e-10 
114 1 0.110986 0.0174946 0.00724179 0.00548093 -0.000140436 0.000536022 -5.4518e-10 3.79368e-10 -1.90073e-10 5e-05 1.46608e-10 
115 1 0.116823 0.0171362 0.00735186 0.00585842 0.000230418 -0.000709401 2.74379e-10 -3.21808e-10 5.05262e-10 5e-05 1.46608e-10 
116 1 0.116653 0.0165692 0.00789158 0.006145 0.000169882 -0.000686689 -1.46329e-11 -1.52759e-10 1.46976e-10 5e-05 1.46608e-10 
117 1 0.116503 0.0160733 0.00836378 0.00580182 8.77214e-05 -0.000581049 -4.56696e-12 -1.15568e-11 7.83565e-12 5e-05 1.46608e-10 
118 1 0.110409 0.015962 0.00822418 0.00590023 -0.000236392 0.00062376 4.95352e-11 2.72775e-11 -9.49008e-11 5e-05 1.46608e-10 
119 1 0.116837 0.016873 0.00759439 0.00649197 0.000285643 -0.000824552 -2.75137e-10 -1.96778e-10 2.26385e-10 5e-05 1.46608e-10 
120 1 0.116365 0.0159127 0.0085245 0.00576116 9.08389e-05 -0.000583262 -4.29259e-10 1.86363e-10 -9.02567e-11 5e-05 1.46608e-10 
121 1 0.116322 0.0157711 0.00865925 0.00569042 7.83529e-05 -0.000561418 2.82572e-10 -7.549e-11 4.1709e-11 5e-05 1.46608e-10 
122 1 0.116976 0.018291 0.00717158 0.00550991 0.000392337 -0.000708308 -5.48987e-11 1.45957e-10 6.319e-11 5e-05 1.46608e-10 
123 1 0.110613 0.0163899 0.00793345 0.00592389 -0.000244656 0.000611779 6.61675e-10 2.73975e-10 -1.17341e-10 5e-05 1.46608e-10 
124 1 0.116936 0.0176448 0.00710606 0.00570228 0.000418994 1.23322e-05 -4.11342e-11 8.35279e-11 -2.46866e-10 5e-05 1.46608e-10 
125 1 0.116482 0.0160025 0.00843116 0.00579608 8.08762e-05 -0.000573994 1.13629e-10 -5.17961e-11 2.04274e-11 5e-05 1.46608e-10 
126 1 0.116725 0.0171152 0.00737976 0.00599327 8.46312e-05 -0.000565581 3.12225e-10 -3.80668e-10 -2.01694e-10 5e-05 1.46608e-10 
127 1 0.110539 0.0164437 0.0078927 0.00592876 -0.000231661 0.000603232 1.59833e-10 2.48122e-10 -1.20102e-10 5e-05 1.46608e-10 
128 1 0.116816 0.0175163 0.00715644 0.00567147 0.000583399 0.000152675 -3.14323e-10 -1.14553e-10 -2.41294e-11 5e-05 1.46608e-10 
129 1 0.117036 0.0178265 0.00716548 0.00577744 0.000579495 -0.000571745 5.8396e-11 -1.64155e-11 -3.22429e-10 5e-05 1.46608e-10 
130 1 0.110871 0.0173809 0.00730709 0.00534542 2.99615e-05 0.000385095 7.67714e-10 3.26374e-10 -6.26169e-10 5e-05 1.46608e-10 
131 1 0.110722 0.0168025 0.00767279 0.00593576 -0.000214007 0.00059186 -1.61699e-10 -2.02038e-10 1.10744e-10 5e-05 1.46608e-10 
132 1 0.116893 0.0175544 0.00710476 0.00567091 0.000469677 9.56668e-05 -6.43885e-10 3.52848e-10 -1.54905e-10 5e-05 1.46608e-10 
133 1 0.116687 0.0163767 0.008067 0.0067791 0.000757013 -0.00128531 2.02662e-10 1.57957e-10 -1.65752e-10 5e-05 1.46608e-10 
134 1 0.116858 0.0169438 0.007527 0.00648537 0.000297667 -0.000833176 6.34385e-12 -2.31822e-10 2.6747e-10 5e-05 1.46608e-10 
135 1 0.116461 0.0159318 0.00849853 0.00577601 8.1907e-05 -0.00057405 3.11214e-10 2.9927e-12 -4.75783e-11 5e-05 1.46608e-10 
136 1 0.110553 0.0161416 0.0080907 0.00575394 -0.000135811 0.000527622 -4.91851e-10 3.17627e-10 -2.32128e-10 5e-05 1.46608e-10 
137 1 0.116935 0.0180974 0.00714198 0.00554362 0.0003861 -0.000718481 -2.51714e-10 2.92915e-10 1.90739e-11 5e-05 1.46608e-10 
138 1 0.116611 0.0164276 0.00802639 0.00623436 0.00031205 -0.000826718 -1.82763e-10 -1.58731e-10 1.5655e-10 5e-05 1.46608e-10 
140 1 0.11705 0.0182286 0.00714954 0.00553345 0.000420371 -0.000706655 -1.29319e-10 2.53544e-10 7.48803e-11 5e-05 1.46608e-10 
141 1 0.110591 0.0163073 0.00798558 0.00594372 -0.000213399 0.000592589 -2.78991e-10 4.14956e-10 -2.98918e-10 5e-05 1.46608e-10 
142 1 0.111004 0.0175785 0.00718854 0.00549757 -0.000364574 0.000674276 -7.32666e-11 -5.93483e-12 -1.56364e-11 5e-05 1.46608e-10 
143 1 0.110496 0.0162787 0.00799696 0.00592549 -0.000217518 0.000593048 -5.70871e-11 1.37289e-10 -1.20195e-10 5e-05 1.46608e-10 
144 1 0.110965 0.0174107 0.00729494 0.00554454 -4.29289e-05 0.000437281 -2.86619e-10 -3.29301e-10 3.73661e-10 5e-05 1.46608e-10 
146 1 0.110817 0.016831 0.00766149 0.00594122 -0.000197784 0.000582459 4.13672e-11 -1.13326e-11 1.13258e-11 5e-05 1.46608e-10 
147 1 0.110526 0.01606 0.00814185 0.00592758 -0.000229331 0.000604169 1.10714e-10 3.66278e-10 -1.65915e-10 5e-05 1.46608e-10 
148 1 0.110815 0.0175255 0.00722958 0.005393 -0.000344888 3.38982e-06 -3.56658e-11 -1.94183e-10 -5.75406e-10 5e-05 1.46608e-10 
149 1 0.11701 0.018035 0.00711994 0.00557456 0.00039802 -0.000718649 8.26873e-11 3.13988e-10 2.09769e-10 5e-05 1.46608e-10 
150 1 0.110861 0.016996 0.00755721 0.00604102 -0.000108051 0.000531351 3.01888e-10 -3.40955e-10 2.33607e-10 5e-05 1.46608e-10 
151 1 0.111232 0.0178188 0.00708479 0.00554694 -0.000413845 -0.000260894 -1.85631e-12 1.55234e-10 -5.07195e-11 5e-05 1.46608e-10 
153 1 0.110657 0.0165549 0.00782919 0.00585924 -0.000232862 0.000598945 -4.27181e-10 1.79265e-11 -4.75254e-11 5e-05 1.46608e-10 
154 1 0.110929 0.017642 0.00717028 0.00555935 -0.000439399 -2.9157e-05 -8.35726e-11 -1.48651e-10 -2.19091e-10 5e-05 1.46608e-10 
155 1 0.110987 0.017918 0.0070674 0.00553252 -0.000453051 -0.000245541 8.63979e-11 7.45766e-11 -2.41406e-11 5e-05 1.46608e-10 
156 1 0.11091 0.0175525 0.00721095 0.00550536 -0.000465579 -0.000330455 -3.29835e-10 -5.58954e-10 -1.60128e-09 5e-05 1.46608e-10 
157 1 0.0219312 0.0187687 0.00551176 -3.82605e-14 8.16891e-14 2.95891e-13 3.69181e-22 3.37386e-22 -4.15658e-23 5e-05 1.46608e-10 
158 1 0.111012 0.0178935 0.00716125 0.00557002 -0.000387047 -0.000245463 1.91151e-10 7.63021e-11 -7.20039e-12 5e-05 1.46608e-10 
159 1 0.116985 0.0174895 0.00712378 0.00567395 0.000669461 3.99637e-05 -4.49374e-10 5.41328e-10 2.04263e-10 5e-05 1.46608e-10 
160 1 0.110874 0.0177978 0.00711868 0.00556908 -0.000482732 -0.000225199 3.8435e-10 6.18065e-11 -1.13043e-10 5e-05 1.46608e-10 
162 1 0.110835 0.017614 0.00718728 0.00548237 -0.000413624 -0.000187857 -2.95154e-10 -1.80274e-10 -4.40557e-10 5e-05 1.46608e-10 
164 1 0.111162 0.0183199 0.00691119 0.00549143 -0.000445507 -0.000279598 -1.11432e-09 1.11388e-09 1.50919e-09 5e-05 1.46608e-10 
165 1 0.11129 0.0180946 0.00698211 0.005566 -0.000431578 -0.000256685 -3.58511e-10 -2.66649e-11 1.13345e-12 5e-05 1.46608e-10 
166 1 0.116642 0.0162337 0.00820327 0.00647314 0.000557477 -0.00107437 1.51281e-10 -1.9471e-11 3.21735e-12 5e-05 1.46608e-10 
167 1 0.110839 0.0169135 0.00760934 0.00603314 -0.000100144 0.000525857 -1.41718e-10 -2.43072e-10 1.45236e-10 5e-05 1.46608e-10 
168 1 0.111138 0.0177904 0.00710188 0.00555352 -0.000433479 -0.000253589 1.3691e-11 -2.56069e-11 -1.88502e-11 5e-05 1.46608e-10 
169 1 0.111346 0.0183878 0.00687338 0.00557832 -0.000438469 -0.000281372 -3.52227e-10 2.36211e-11 -1.58024e-10 5e-05 1.46608e-10 
170 1 0.111157 0.017883 0.00706743 0.00554247 -0.000418599 -0.000258786 1.01082e-11 2.51691e-10 -9.24463e-11 5e-05 1.46608e-10 
171 1 0.116664 0.0163043 0.00813596 0.00668135 0.000730287 -0.00125267 2.53125e-11 1.7025e-10 -1.62697e-10 5e-05 1.46608e-10 
172 1 0.111271 0.0180026 0.00701634 0.00557106 -0.000423592 -0.000258129 -2.20864e-10 1.0428e-10 -5.28793e-12 5e-05 1.46608e-10 
173 1 0.11712 0.0177122 0.00707511 0.00560563 0.000583549 6.41622e-05 3.24182e-11 -3.93408e-10 5.42551e-11 5e-05 1.46608e-10 
174 1 0.111082 0.0179467 0.00705024 0.00553248 -0.000423085 -0.000256797 -1.11116e-10 1.58327e-10 -7.3167e-11 5e-05 1.46608e-10 
175 1 0.104818 0.0175252 0.00710477 0.00566587 3.1152e-05 0.000251377 6.41365e-12 -4.95544e-11 7.20028e-11 5e-05 1.46608e-10 
176 1 0.110891 0.0174706 0.00726502 0.00560614 -7.15709e-05 0.000280231 -7.71009e-10 -3.04368e-10 -8.02981e-10 5e-05 1.46608e-10 
177 1 0.110912 0.0179817 0.00705023 0.00549655 -0.000487931 -0.000229958 2.57886e-10 7.21061e-11 -8.17319e-11 5e-05 1.46608e-10 
178 1 0.111395 0.0183045 0.00689949 0.00549072 -0.000503791 -0.000217968 1.05871e-10 1.45575e-10 4.5649e-11 5e-05 1.46608e-10 
179 1 0.111303 0.0182718 0.00691799 0.00550508 -0.00043049 -0.000234173 3.48964e-10 8.32634e-11 2.1646e-11 5e-05 1.46608e-10 
181 1 0.110875 0.0177797 0.00721702 0.00549427 -0.000510922 -0.000207833 1.47068e-10 -1.26748e-10 -4.51865e-11 5e-05 1.46608e-10 
182 1 0.11659 0.0163562 0.00809431 0.00616446 0.000311501 -0.000817501 -8.12592e-11 1.24149e-11 1.64104e-11 5e-05 1.46608e-10 
183 1 0.111063 0.0178543 0.00708459 0.00554699 -0.000433541 -0.00024977 1.57762e-10 1.32542e-10 -6.23654e-11 5e-05 1.46608e-10 
184 1 0.117105 0.0176159 0.00709773 0.00574029 0.0005633 7.28969e-05 -1.19983e-10 -1.18833e-10 -5.48636e-11 5e-05 1.46608e-10 
185 1 0.110797 0.0174448 0.00728562 0.00517689 -0.000226308 0.000187437 2.76753e-10 2.55983e-10 3.18756e-10 5e-05 1.46608e-10 
186 1 0.110876 0.0176823 0.00724763 0.00553842 -0.000510385 -0.000254081 5.7934e-11 1.28025e-10 -2.97835e-10 5e-05 1.46608e-10 
187 1 0.116977 0.017037 0.00743043 0.0061773 0.000558827 -0.00104892 2.31993e-11 -2.10607e-10 1.96332e-10 5e-05 1.46608e-10 
188 1 0.116971 0.017841 0.00709052 0.00568317 0.000359316 -0.000559402 -2.71527e-11 1.0498e-10 -1.15844e-10 5e-05 1.46608e-10 
189 1 0.117014 0.0171797 0.0072951 0.0057569 0.000585862 -0.00103558 2.58051e-10 -3.41432e-10 5.9137e-10 5e-05 1.46608e-10 
190 1 0.104951 0.0177324 0.00701187 0.00571877 -0.000153831 -0.000132821 -2.98441e-11 9.55035e-11 -4.3159e-11 5e-05 1.46608e-10 
191 1 0.116954 0.0181944 0.00715699 0.00551677 0.000386489 -0.00071069 -1.61982e-11 2.5618e-10 6.83161e-11 5e-05 1.46608e-10 
192 1 0.11108 0.0175256 0.00722878 0.00552664 -0.000179824 0.000541033 -2.60682e-10 -1.80962e-10 6.15564e-11 5e-05 1.46608e-10 
193 1 0.116752 0.01659 0.00786388 0.00630403 0.00028025 -0.000802986 2.70455e-10 -7.14597e-11 4.28228e-11 5e-05 1.46608e-10 
194 1 0.110904 0.0171618 0.0074525 0.00646904 0.000564059 0.000126058 1.46567e-10 -2.23445e-10 1.37474e-10 5e-05 1.46608e-10 
195 1 0.111329 0.0181804 0.00694863 0.00553084 -0.000424725 -0.000255353 -1.65979e-10 -1.11178e-10 1.40607e-10 5e-05 1.46608e-10 
196 1 0.110309 0.0155578 0.00848788 0.00553127 -0.000616847 0.00014696 2.06298e-10 3.91603e-11 -2.42126e-11 5e-05 1.46608e-10 
197 1 0.104876 0.0177984 0.00699933 0.00574294 -0.000134405 -0.000121192 3.13905e-11 8.16363e-11 2.54147e-11 5e-05 1.46608e-10 
198 1 0.110713 0.0171039 0.00747566 0.00590285 -0.000259824 0.000619887 2.02419e-11 -2.34286e-10 1.55664e-10 5e-05 1.46608e-10 
199 1 0.110854 0.0177058 0.0071529 0.00555357 -0.000466436 -0.000243165 -9.59383e-12 1.09686e-10 -1.30385e-10 5e-05 1.46608e-10 
200 1 0.11083 0.0172153 0.00741194 0.00606943 0.000195133 0.00033454 1.72511e-10 -1.10825e-10 9.90576e-11 5e-05 1.46608e-10 
201 1 0.111269 0.0184516 0.00687231 0.00563761 -0.000323727 0.000100278 -1.26095e-10 8.63924e-11 -2.00634e-10 5e-05 1.46608e-10 
202 1 0.111099 0.0176084 0.00717627 0.00564211 -0.000178236 0.000553599 5.30033e-10 -3.71878e-10 3.77757e-10 5e-05 1.46608e-10 
203 1 0.117124 0.0181649 0.00712743 0.00554669 0.000440801 -0.000705244 -9.18194e-11 2.50824e-10 7.4575e-11 5e-05 1.46608e-10 
204 1 0.110809 0.0171326 0.00746423 0.00600485 -0.000191278 0.000582204 7.18765e-11 -2.49444e-10 2.21791e-10 5e-05 1.46608e-10 
205 1 0.111109 0.0183559 0.00698844 0.00550434 -0.00041957 -0.000310789 -1.54489e-09 1.2439e-09 1.727e-09 5e-05 1.46608e-10 
206 1 0.111101 0.0180386 0.00701601 0.00553866 -0.000408723 -0.000263075 -1.34158e-10 2.28558e-10 -3.99918e-11 5e-05 1.46608e-10 
207 1 0.110635 0.0164724 0.00788132 0.00592731 -0.000252053 0.000616286 2.9541e-10 1.11458e-10 -4.13711e-11 5e-05 1.46608e-10 
208 1 0.110949 0.0177339 0.00713592 0.00557054 -0.000435965 -4.18475e-05 3.88668e-10 -2.48682e-11 7.4412e-10 5e-05 1.46608e-10 
209 1 0.110883 0.0170789 0.0075049 0.00625492 4.98103e-05 0.000444152 9.67365e-11 -1.79058e-10 1.14784e-10 5e-05 1.46608e-10 
210 1 0.116937 0.0175878 0.00718831 0.00570845 0.000471857 8.83556e-05 -4.2093e-10 -1.62662e-10 -2.63407e-10 5e-05 1.46608e-10 
211 1 0.117065 0.0178743 0.00708271 0.00567873 0.000394157 -0.000720559 1.49137e-10 -7.96718e-11 -2.94099e-10 5e-05 1.46608e-10 
212 1 0.111176 0.017975 0.00703318 0.00554105 -0.000425164 -0.00025596 -2.64999e-10 1.66943e-10 -5.18561e-11 5e-05 1.46608e-10 
213 1 0.116957 0.0169658 0.0074981 0.006857 0.000868723 -0.00139697 5.64001e-10 -6.39984e-10 5.30336e-10 5e-05 1.46608e-10 
214 1 0.117159 0.0179065 0.00707522 0.00566967 0.000420215 -0.000732774 4.2339e-10 5.32179e-10 1.77913e-10 5e-05 1.46608e-10 
215 1 0.10493 0.0176366 0.00703366 0.00564848 -0.00019194 -0.000115571 2.25224e-11 -2.64526e-11 -7.51331e-11 5e-05 1.46608e-10 
216 1 0.110893 0.0178897 0.00708445 0.00554033 -0.000486742 -0.000228725 1.69108e-10 1.71437e-10 -4.15647e-11 5e-05 1.46608e-10 
217 1 0.116708 0.0164475 0.0079996 0.00681743 0.00074232 -0.00127507 3.07096e-10 4.73284e-11 -7.38429e-11 5e-05 1.46608e-10 
218 1 0.111025 0.0181031 0.00699859 0.00549786 -0.000516724 -0.000219431 -7.39005e-11 -3.00833e-11 1.10712e-10 5e-05 1.46608e-10 
219 1 0.11699 0.017938 0.00710492 0.00565295 0.000395198 -0.000731234 -7.31948e-11 6.87507e-11 1.03368e-10 5e-05 1.46608e-10 
220 1 0.110943 0.0179649 0.00714382 0.00553618 -0.000462857 -0.00023726 -9.23694e-11 -1.74472e-10 -1.24658e-13 5e-05 1.46608e-10 
221 1 0.10484 0.0172336 0.00731664 0.00572986 -0.000251072 -0.000125837 1.72008e-10 -1.63948e-10 6.16845e-11 5e-05 1.46608e-10 
222 1 0.11673 0.0165192 0.00793125 0.0062651 0.00027703 -0.000796784 1.91466e-10 -8.78142e-12 -5.04722e-12 5e-05 1.46608e-10 
223 1 0.111024 0.0176711 0.00715562 0.00560439 -0.000297287 0.000293416 4.8589e-10 -2.09088e-10 4.60657e-10 5e-05 1.46608e-10 
224 1 0.110776 0.0173592 0.00733312 0.00506408 -0.000143329 0.000386104 3.76064e-10 2.94819e-10 4.42327e-10 5e-05 1.46608e-10 
225 1 0.117014 0.0175852 0.00712474 0.00576958 0.000557033 0.00013747 1.80062e-10 3.67303e-11 2.04569e-10 5e-05 1.46608e-10 
226 1 0.111251 0.0179107 0.00705056 0.00554537 -0.00041582 -0.000260221 -7.36138e-11 1.87827e-10 -5.59944e-11 5e-05 1.46608e-10 
227 1 0.104895 0.0174749 0.00714594 0.00566966 2.96406e-05 0.000249526 2.1549e-10 -6.32237e-11 2.45257e-11 5e-05 1.46608e-10 
228 1 0.104837 0.0176149 0.00706494 0.00570046 -6.87116e-06 0.000180462 4.36298e-11 3.50349e-11 1.77199e-10 5e-05 1.46608e-10 
229 1 0.110912 0.0178668 0.00717991 0.00551125 -0.000511092 -0.000223575 -8.33164e-11 -7.69766e-11 -5.90842e-11 5e-05 1.46608e-10 
230 1 0.111196 0.0185191 0.00687237 0.00567637 -0.00025905 0.000381102 2.93981e-11 1.68465e-10 1.06675e-10 5e-05 1.46608e-10 
231 1 0.104801 0.0174459 0.00716318 0.00564302 3.79288e-05 0.000251905 -3.63794e-12 -8.06539e-11 3.20229e-11 5e-05 1.46608e-10 
232 1 0.110774 0.0166659 0.00776578 0.00595414 -0.000212304 0.000592536 -1.51222e-10 -6.09113e-11 2.39928e-11 5e-05 1.46608e-10 
233 1 0.110926 0.0172451 0.00739985 0.0055139 2.35872e-06 0.000422647 1.09257e-09 5.01821e-10 -2.31875e-10 5e-05 1.46608e-10 
234 1 0.116896 0.0179035 0.00711218 0.00567353 0.000383892 -0.000653337 2.2021e-11 2.48341e-10 3.518e-10 5e-05 1.46608e-10 
235 1 0.111085 0.0188345 0.00689476 0.0055654 -0.000326065 0.000350018 1.61888e-10 1.56527e-10 -4.79178e-11 5e-05 1.46608e-10 
236 1 0.111265 0.0187411 0.0068983 0.00558842 0.000196448 0.000405148 -1.12395e-10 -1.81645e-11 -2.98733e-11 5e-05 1.46608e-10 
237 1 0.11111 0.018961 0.00690854 0.00552704 -0.000393796 0.000344681 3.98219e-11 1.23905e-10 1.25405e-11 5e-05 1.46608e-10 
239 1 0.104619 0.0167199 0.00766263 0.00605218 -0.000307927 -0.000105257 1.20034e-11 3.93482e-11 -2.70056e-11 5e-05 1.46608e-10 
240 1 0.104685 0.0169637 0.00750042 0.006055 -0.000303609 -0.000104761 2.58585e-11 2.28622e-11 -1.28889e-11 5e-05 1.46608e-10 
241 1 0.104598 0.0166386 0.0077167 0.00605092 -0.000308954 -0.000104433 2.7852e-12 1.77539e-11 -1.14777e-11 5e-05 1.46608e-10 
242 1 0.111041 0.0173583 0.00733483 0.00557114 1.49934e-05 0.000412452 -2.81729e-10 -2.32361e-10 1.32955e-10 5e-05 1.46608e-10 
243 1 0.110787 0.01705 0.00751639 0.00595434 -0.000209418 0.000589829 2.92634e-10 -2.37894e-10 2.05745e-10 5e-05 1.46608e-10 
244 1 0.104641 0.0168012 0.00760856 0.00605355 -0.00030642 -0.000106326 8.858e-12 4.23575e-11 -2.81857e-11 5e-05 1.46608e-10 
246 1 0.104764 0.0172875 0.00727958 0.00575617 2.60158e-05 0.000255284 7.27145e-11 -6.16665e-11 7.34232e-11 5e-05 1.46608e-10 
247 1 0.111046 0.0181948 0.00696437 0.00545421 -0.000505972 -0.000220581 1.2536e-11 1.48194e-10 -2.33622e-10 5e-05 1.46608e-10 
248 1 0.111297 0.0185474 0.00688206 0.00421536 4.72917e-05 0.000296612 -1.20587e-10 4.47742e-11 2.72122e-11 5e-05 1.46608e-10 