# vtk DataFile Version 3.0
LIGGGHTS particles timestep 3000000
ASCII
DATASET POLYDATA
POINTS 275 float
0.021936 0.0231848 0.0158374
0.0169807 0.0242937 0.0140931
0.0228581 0.0236835 0.0150966
0.0210079 0.0243035 0.0139276
0.0242553 0.0153805 0.00922428
0.0177796 0.0240804 0.0128641
0.0204238 0.0161389 0.0158724
0.026163 0.0225743 0.00902835
0.0201785 0.0218647 0.0148823
0.0187154 0.0241597 0.0130339
0.0234321 0.017436 0.0156447
0.0159461 0.0207867 0.0156835
0.0203105 0.018786 0.0167573
0.0241996 0.0224243 0.0155091
0.0235859 0.0231754 0.0155082
0.0209217 0.0234996 0.0146348
0.0205934 0.024095 0.013071
0.0180957 0.0244537 0.0138078
0.0226241 0.0235496 0.0141189
0.0220241 0.0202418 0.0158346
0.0179513 0.0160036 0.0153328
0.0296453 0.0194036 0.00583977
0.0211397 0.0180224 0.0157562
0.0218425 0.0240574 0.0143529
0.0188641 0.0237156 0.0139204
0.0222794 0.0190793 0.01599
0.103009 0.0215368 0.00628499
0.0169247 0.0239356 0.0132158
0.0142028 0.0153119 0.0151834
0.0196497 0.0242806 0.0128992
0.0233385 0.0231199 0.0145897
0.0255788 0.0207711 0.0164238
0.0231208 0.0195543 0.015946
0.0209418 0.023353 0.0125358
0.0246602 0.0204302 0.017978
0.0275614 0.021742 0.0148139
0.0191255 0.0236725 0.0151499
0.0242329 0.0168291 0.0153644
0.0211595 0.0147833 0.0145568
0.0214579 0.0244884 0.0185358
0.0214073 0.022481 0.0143352
0.0211373 0.0216371 0.0161075
0.0189697 0.0198015 0.0178343
0.0272878 0.0225995 0.0138003
0.0228525 0.0225559 0.0141416
0.010355 0.029074 0.0364594
0.0248919 0.0174683 0.0167004
0.0192161 0.0226327 0.0153624
0.0263617 0.0229762 0.00967215
0.0205459 0.0227064 0.00928775
0.0228213 0.0167265 0.0152933
0.021659 0.0198964 0.0059291
0.0197045 0.0238028 0.0133405
0.0223457 0.0141491 0.0147577
0.0211625 0.0227848 0.0170007
0.0189236 0.0175254 0.00745713
0.0232401 0.0156037 0.0152893
0.0211564 0.0230768 0.0134302
0.016308 0.0236668 0.0138899
0.0199565 0.023769 0.0146002
0.0350672 0.0187163 0.00573711
0.012686 0.0205835 0.0165319
0.0231674 0.0155508 0.0142647
0.0214124 0.0204401 0.0166156
0.0132407 0.0213604 0.016234
0.0215997 0.0173255 0.0164874
0.0204097 0.0220486 0.0168649
0.0187195 0.0167322 0.00787509
0.0243904 0.0157481 0.0155825
0.0148433 0.0231591 0.0148424
0.0204562 0.0201479 0.00736552
0.0194258 0.0196248 0.0061598
0.021413 0.0233576 0.0109484
0.0258647 0.02174 0.00822862
0.0173702 0.0149813 0.0134664
0.0192405 0.0151465 0.013647
0.0174471 0.0232522 0.0145448
0.0182829 0.0223399 0.0156243
0.00576673 0.0255363 0.0402489
0.0210602 0.0225272 0.00890112
0.0176246 0.0146734 0.0122892
0.0218299 0.0211438 0.0154574
0.0336436 0.0137677 0.0424696
0.0159439 0.0231289 0.0131739
0.000404389 0.0332672 0.0380285
0.0227132 0.0225504 0.0158668
0.0166514 0.0237727 0.0148802
0.0234526 0.0149092 0.0127434
0.0253998 0.0215714 0.0167662
0.0223553 0.0221481 0.0147882
0.0231627 0.014722 0.014824
0.0176651 0.0237418 0.0136904
0.0142526 0.0230061 0.0156346
0.0241016 0.0242786 0.0223781
0.0236569 0.0221691 0.0163061
0.0216883 0.0238532 0.0133626
0.00859489 0.0185578 0.0295009
0.0240799 0.019715 0.0159275
0.0156621 0.0237241 0.0147435
0.01905 0.0183257 0.00725294
0.0181905 0.0236953 0.0156337
0.0258233 0.0197783 0.0167173
0.0161806 0.0196003 0.015922
0.0205435 0.0233106 0.0107805
0.0181535 0.0239494 0.0146676
0.0199841 0.0193755 0.00717207
0.0152624 0.0228897 0.0137256
0.0236406 0.0147482 0.011782
0.0137812 0.0221334 0.0157612
0.0209862 0.0226257 0.0160097
0.011886 0.02096 0.0221162
0.018569 0.0158347 0.0145648
0.0247969 0.0150062 0.0100333
0.0166253 0.0142061 0.0136414
0.0157859 0.0145121 0.0141827
0.0160693 0.0229948 0.0152956
0.0231761 0.0213002 0.0162862
0.0239903 0.0149125 0.0103369
0.0120218 0.0177055 0.0215764
0.0136176 0.0159424 0.0157294
0.0218104 0.0237146 0.0171548
0.0213507 0.0157543 0.0155943
0.0152305 0.0224667 0.0154507
0.0199515 0.0207763 0.0173445
0.0189172 0.0250964 0.018934
0.024856 0.0172171 0.00759391
0.0203379 0.0213466 0.00780913
0.0168619 0.0165734 0.0151882
0.022211 0.0151057 0.0150157
0.0200955 0.0140252 0.0130398
0.0247711 0.0220815 0.0162238
0.0180596 0.0197398 0.015892
0.0137658 0.0211513 0.0172557
0.0149784 0.0148679 0.0146985
0.02185 0.0143667 0.0139169
0.0197485 0.0215639 0.0080095
0.0242651 0.0187326 0.015935
0.0154855 0.0215736 0.0161578
0.0182645 0.0151985 0.0138562
0.0150391 0.0223736 0.0171419
0.0145735 0.0202213 0.017514
0.0182347 0.018606 0.0159371
0.0220186 0.0228481 0.0138133
0.0199587 0.0254865 0.019565
0.0169148 0.0209816 0.0160745
0.0199832 0.0218003 0.0159946
0.0191984 0.0192157 0.00716403
0.0217361 0.023161 0.0129175
0.0198658 0.0244349 0.0138424
0.0234289 0.019694 0.0168959
0.0195772 0.0204808 0.00752698
0.0162358 0.0228368 0.0143202
0.0210466 0.0141333 0.0133688
0.0137268 0.0204125 0.0165833
0.0226041 0.023134 0.0132277
0.0180202 0.0138024 0.0138484
0.0175298 0.017807 0.0157793
0.0235151 0.0223857 0.018169
0.0197957 0.0145748 0.0142649
0.0191811 0.0240122 0.0161054
0.01818 0.0141377 0.0129199
0.025153 0.0189576 0.0167264
0.0216811 0.023393 0.012227
0.0170943 0.0200076 0.0159359
0.0233207 0.0223245 0.0151016
0.0201148 0.0199597 0.0166935
0.0184017 0.0230263 0.014907
0.0237169 0.0215485 0.0170904
0.0198019 0.0232167 0.0161854
0.0226733 0.0233569 0.0179079
0.0191049 0.0171062 0.0163627
0.0164366 0.0232327 0.0161966
0.0166748 0.0223392 0.0157492
0.0204067 0.0230778 0.009983
0.0211972 0.023665 0.0163456
0.0208245 0.0234884 0.0117523
0.0154596 0.0197604 0.0167379
0.0189667 0.013931 0.0141437
0.0158321 0.0206907 0.0166768
0.0186306 0.0146133 0.0119522
0.0191151 0.0138878 0.0131561
0.0193736 0.0223745 0.016541
0.0143403 0.0196379 0.0167361
0.0174788 0.0141443 0.0146165
0.0165736 0.0194824 0.0168728
0.0202299 0.015122 0.0149948
0.0174365 0.0224202 0.0150994
0.0173102 0.0214451 0.0152812
0.0223257 0.0208544 0.0165651
0.0236354 0.0294545 0.0315234
0.0165429 0.0179645 0.0158124
0.0235607 0.0187305 0.0166453
0.0215756 0.0221842 0.0152631
0.017038 0.0230057 0.0135405
0.0219741 0.0231661 0.0148324
0.023714 0.0277497 0.0277585
0.0212709 0.0190656 0.0167909
0.0203313 0.0137749 0.0139673
0.0186045 0.019804 0.0167282
0.0148124 0.0205073 0.016586
0.018928 0.0181492 0.0166614
0.0154783 0.02232 0.0144935
0.024685 0.0202933 0.0166086
0.0226223 0.0229563 0.0168099
0.0201762 0.0228812 0.0151327
0.016497 0.0217549 0.0165516
0.0171003 0.0189825 0.0159416
0.0205051 0.0237111 0.0155945
0.0222665 0.0213585 0.0180174
0.0157192 0.0186851 0.0167751
0.0174532 0.0185022 0.0169086
0.014758 0.0163323 0.0163948
0.0146702 0.0221657 0.016222
0.0238925 0.0206341 0.015667
0.0165649 0.0220273 0.0148054
0.0177747 0.0216084 0.0162072
0.00728714 0.0239846 0.0351259
0.0184409 0.0208135 0.0164442
0.0244164 0.021507 0.0179939
0.0166099 0.0233384 0.0125639
0.017176 0.023905 0.0164697
0.024507 0.0177354 0.015757
0.0236813 0.0214869 0.0153244
0.017233 0.0234049 0.0156055
0.0160197 0.0124587 0.0253877
0.0210343 0.0282168 0.0269552
0.017067 0.0153185 0.015353
0.0193963 0.0191927 0.0167265
0.0238325 0.01778 0.016494
0.0157252 0.0216137 0.015157
0.0187948 0.0230913 0.0161529
0.0175182 0.0226462 0.0161911
0.0191464 0.0144035 0.0150085
0.0201614 0.0174929 0.0165088
0.0223522 0.0158295 0.0156912
0.0188502 0.021651 0.0160747
0.0159008 0.0164736 0.0161632
0.0148787 0.0213908 0.0170498
0.0171021 0.0210977 0.0178616
0.0203727 0.0209049 0.0164406
0.0137074 0.0246204 0.0228458
0.0172511 0.0218915 0.0172113
0.016146 0.0235696 0.0170941
0.0227356 0.021375 0.0152812
0.0239664 0.0159677 0.014704
0.0242704 0.0222452 0.0195339
0.0276386 0.0128915 0.0296091
0.0171184 0.0156998 0.01443
0.0191841 0.024419 0.0170251
0.0243454 0.0212007 0.0163343
0.0183695 0.0171054 0.0154997
0.0174087 0.0204728 0.0167882
0.0178546 0.0206851 0.0156369
0.0180248 0.0234269 0.0166953
0.0173314 0.0225372 0.0188521
0.0204107 0.0179467 0.0176382
0.0172075 0.0160782 0.0159969
0.0200554 0.0242509 0.0165342
0.0151114 0.0156012 0.0154923
0.0168089 0.0170579 0.0161538
0.0156925 0.022559 0.0163323
0.0167782 0.0241745 0.017592
0.0191608 0.0155898 0.0153327
0.0224393 0.0194455 0.0169069
0.0178449 0.0150962 0.0147581
0.0227671 0.0129885 0.0237997
0.0221257 0.0217866 0.0161639
0.0166789 0.0147436 0.0145953
0.0142347 0.0212684 0.0162916
0.0182508 0.0124117 0.0209476
0.015826 0.021775 0.0172929
0.0188709 0.0149406 0.0183711
0.0304858 0.0158454 0.0391648
0.0158811 0.0151445 0.0150464
0.0229434 0.0205045 0.0157382

VERTICES 275 550
1 0
1 1
1 2
1 3
1 4
1 5
1 6
1 7
1 8
1 9
1 10
1 11
1 12
1 13
1 14
1 15
1 16
1 17
1 18
1 19
1 20
1 21
1 22
1 23
1 24
1 25
1 26
1 27
1 28
1 29
1 30
1 31
1 32
1 33
1 34
1 35
1 36
1 37
1 38
1 39
1 40
1 41
1 42
1 43
1 44
1 45
1 46
1 47
1 48
1 49
1 50
1 51
1 52
1 53
1 54
1 55
1 56
1 57
1 58
1 59
1 60
1 61
1 62
1 63
1 64
1 65
1 66
1 67
1 68
1 69
1 70
1 71
1 72
1 73
1 74
1 75
1 76
1 77
1 78
1 79
1 80
1 81
1 82
1 83
1 84
1 85
1 86
1 87
1 88
1 89
1 90
1 91
1 92
1 93
1 94
1 95
1 96
1 97
1 98
1 99
1 100
1 101
1 102
1 103
1 104
1 105
1 106
1 107
1 108
1 109
1 110
1 111
1 112
1 113
1 114
1 115
1 116
1 117
1 118
1 119
1 120
1 121
1 122
1 123
1 124
1 125
1 126
1 127
1 128
1 129
1 130
1 131
1 132
1 133
1 134
1 135
1 136
1 137
1 138
1 139
1 140
1 141
1 142
1 143
1 144
1 145
1 146
1 147
1 148
1 149
1 150
1 151
1 152
1 153
1 154
1 155
1 156
1 157
1 158
1 159
1 160
1 161
1 162
1 163
1 164
1 165
1 166
1 167
1 168
1 169
1 170
1 171
1 172
1 173
1 174
1 175
1 176
1 177
1 178
1 179
1 180
1 181
1 182
1 183
1 184
1 185
1 186
1 187
1 188
1 189
1 190
1 191
1 192
1 193
1 194
1 195
1 196
1 197
1 198
1 199
1 200
1 201
1 202
1 203
1 204
1 205
1 206
1 207
1 208
1 209
1 210
1 211
1 212
1 213
1 214
1 215
1 216
1 217
1 218
1 219
1 220
1 221
1 222
1 223
1 224
1 225
1 226
1 227
1 228
1 229
1 230
1 231
1 232
1 233
1 234
1 235
1 236
1 237
1 238
1 239
1 240
1 241
1 242
1 243
1 244
1 245
1 246
1 247
1 248
1 249
1 250
1 251
1 252
1 253
1 254
1 255
1 256
1 257
1 258
1 259
1 260
1 261
1 262
1 263
1 264
1 265
1 266
1 267
1 268
1 269
1 270
1 271
1 272
1 273
1 274

POINT_DATA 275
SCALARS id int 1
LOOKUP_TABLE default
1
2
3
4
5
6
7
8
9
10
11
12
13
14
15
16
17
19
20
21
22
23
24
25
26
27
28
29
30
31
32
33
34
35
36
37
38
39
40
41
42
43
44
45
46
47
48
49
50
51
52
53
55
57
59
60
61
62
63
64
65
66
67
68
70
71
73
75
76
77
78
79
80
82
83
84
85
86
87
88
89
90
92
93
94
96
97
98
99
100
101
103
104
105
106
107
108
109
110
111
112
113
114
115
116
117
118
119
120
121
122
123
124
125
126
127
128
129
131
132
134
135
136
137
138
140
141
142
143
144
145
146
147
149
151
152
153
154
155
156
157
158
159
160
161
162
163
165
166
167
168
169
170
171
172
173
176
177
178
179
180
181
182
183
184
185
186
187
188
189
190
191
192
193
194
195
197
198
199
200
201
202
203
204
205
206
207
208
209
210
211
212
213
214
216
217
218
219
220
221
222
223
224
225
226
227
228
231
232
233
234
235
236
237
238
239
240
241
242
243
244
245
246
247
249
250
251
252
253
254
255
256
257
258
259
260
261
262
263
264
265
266
267
268
269
270
271
272
273
274
275
276
277
279
280
281
282
283
284
285
286
287
288
289
290
291
292
293
294
295
296
297
298
299
300

SCALARS type int 1
LOOKUP_TABLE default
1
1
1
1
1
1
1
1
1
1
1
1
1
1
1
1
1
1
1
1
1
1
1
1
1
1
1
1
1
1
1
1
1
1
1
1
1
1
1
1
1
1
1
1
1
1
1
1
1
1
1
1
1
1
1
1
1
1
1
1
1
1
1
1
1
1
1
1
1
1
1
1
1
1
1
1
1
1
1
1
1
1
1
1
1
1
1
1
1
1
1
1
1
1
1
1
1
1
1
1
1
1
1
1
1
1
1
1
1
1
1
1
1
1
1
1
1
1
1
1
1
1
1
1
1
1
1
1
1
1
1
1
1
1
1
1
1
1
1
1
1
1
1
1
1
1
1
1
1
1
1
1
1
1
1
1
1
1
1
1
1
1
1
1
1
1
1
1
1
1
1
1
1
1
1
1
1
1
1
1
1
1
1
1
1
1
1
1
1
1
1
1
1
1
1
1
1
1
1
1
1
1
1
1
1
1
1
1
1
1
1
1
1
1
1
1
1
1
1
1
1
1
1
1
1
1
1
1
1
1
1
1
1
1
1
1
1
1
1
1
1
1
1
1
1
1
1
1
1
1
1
1
1
1
1
1
1
1
1
1
1
1
1
1
1
1
1
1
1
1
1
1
1
1
1

SCALARS radius float 1
LOOKUP_TABLE default
0.0005
0.0005
0.0005
0.0005
0.0005
0.0005
0.0005
0.0005
0.0005
0.0005
0.0005
0.0005
0.0005
0.0005
0.0005
0.0005
0.0005
0.0005
0.0005
0.0005
0.0005
0.0005
0.0005
0.0005
0.0005
0.0005
0.0005
0.0005
0.0005
0.0005
0.0005
0.0005
0.0005
0.0005
0.0005
0.0005
0.0005
0.0005
0.0005
0.0005
0.0005
0.0005
0.0005
0.0005
0.0005
0.0005
0.0005
0.0005
0.0005
0.0005
0.0005
0.0005
0.0005
0.0005
0.0005
0.0005
0.0005
0.0005
0.0005
0.0005
0.0005
0.0005
0.0005
0.0005
0.0005
0.0005
0.0005
0.0005
0.0005
0.0005
0.0005
0.0005
0.0005
0.0005
0.0005
0.0005
0.0005
0.0005
0.0005
0.0005
0.0005
0.0005
0.0005
0.0005
0.0005
0.0005
0.0005
0.0005
0.0005
0.0005
0.0005
0.0005
0.0005
0.0005
0.0005
0.0005
0.0005
0.0005
0.0005
0.0005
0.0005
0.0005
0.0005
0.0005
0.0005
0.0005
0.0005
0.0005
0.0005
0.0005
0.0005
0.0005
0.0005
0.0005
0.0005
0.0005
0.0005
0.0005
0.0005
0.0005
0.0005
0.0005
0.0005
0.0005
0.0005
0.0005
0.0005
0.0005
0.0005
0.0005
0.0005
0.0005
0.0005
0.0005
0.0005
0.0005
0.0005
0.0005
0.0005
0.0005
0.0005
0.0005
0.0005
0.0005
0.0005
0.0005
0.0005
0.0005
0.0005
0.0005
0.0005
0.0005
0.0005
0.0005
0.0005
0.0005
0.0005
0.0005
0.0005
0.0005
0.0005
0.0005
0.0005
0.0005
0.0005
0.0005
0.0005
0.0005
0.0005
0.0005
0.0005
0.0005
0.0005
0.0005
0.0005
0.0005
0.0005
0.0005
0.0005
0.0005
0.0005
0.0005
0.0005
0.0005
0.0005
0.0005
0.0005
0.0005
0.0005
0.0005
0.0005
0.0005
0.0005
0.0005
0.0005
0.0005
0.0005
0.0005
0.0005
0.0005
0.0005
0.0005
0.0005
0.0005
0.0005
0.0005
0.0005
0.0005
0.0005
0.0005
0.0005
0.0005
0.0005
0.0005
0.0005
0.0005
0.0005
0.0005
0.0005
0.0005
0.0005
0.0005
0.0005
0.0005
0.0005
0.0005
0.0005
0.0005
0.0005
0.0005
0.0005
0.0005
0.0005
0.0005
0.0005
0.0005
0.0005
0.0005
0.0005
0.0005
0.0005
0.0005
0.0005
0.0005
0.0005
0.0005
0.0005
0.0005
0.0005
0.0005
0.0005
0.0005
0.0005
0.0005
0.0005
0.0005
0.0005
0.0005
0.0005
0.0005
0.0005
0.0005
0.0005
0.0005
0.0005
0.0005
0.0005
0.0005
0.0005
0.0005
0.0005
0.0005
0.0005
0.0005
0.0005

SCALARS mass float 1
LOOKUP_TABLE default
1.46608e-07
1.46608e-07
1.46608e-07
1.46608e-07
1.46608e-07
1.46608e-07
1.46608e-07
1.46608e-07
1.46608e-07
1.46608e-07
1.46608e-07
1.46608e-07
1.46608e-07
1.46608e-07
1.46608e-07
1.46608e-07
1.46608e-07
1.46608e-07
1.46608e-07
1.46608e-07
1.46608e-07
1.46608e-07
1.46608e-07
1.46608e-07
1.46608e-07
1.46608e-07
1.46608e-07
1.46608e-07
1.46608e-07
1.46608e-07
1.46608e-07
1.46608e-07
1.46608e-07
1.46608e-07
1.46608e-07
1.46608e-07
1.46608e-07
1.46608e-07
1.46608e-07
1.46608e-07
1.46608e-07
1.46608e-07
1.46608e-07
1.46608e-07
1.46608e-07
1.46608e-07
1.46608e-07
1.46608e-07
1.46608e-07
1.46608e-07
1.46608e-07
1.46608e-07
1.46608e-07
1.46608e-07
1.46608e-07
1.46608e-07
1.46608e-07
1.46608e-07
1.46608e-07
1.46608e-07
1.46608e-07
1.46608e-07
1.46608e-07
1.46608e-07
1.46608e-07
1.46608e-07
1.46608e-07
1.46608e-07
1.46608e-07
1.46608e-07
1.46608e-07
1.46608e-07
1.46608e-07
1.46608e-07
1.46608e-07
1.46608e-07
1.46608e-07
1.46608e-07
1.46608e-07
1.46608e-07
1.46608e-07
1.46608e-07
1.46608e-07
1.46608e-07
1.46608e-07
1.46608e-07
1.46608e-07
1.46608e-07
1.46608e-07
1.46608e-07
1.46608e-07
1.46608e-07
1.46608e-07
1.46608e-07
1.46608e-07
1.46608e-07
1.46608e-07
1.46608e-07
1.46608e-07
1.46608e-07
1.46608e-07
1.46608e-07
1.46608e-07
1.46608e-07
1.46608e-07
1.46608e-07
1.46608e-07
1.46608e-07
1.46608e-07
1.46608e-07
1.46608e-07
1.46608e-07
1.46608e-07
1.46608e-07
1.46608e-07
1.46608e-07
1.46608e-07
1.46608e-07
1.46608e-07
1.46608e-07
1.46608e-07
1.46608e-07
1.46608e-07
1.46608e-07
1.46608e-07
1.46608e-07
1.46608e-07
1.46608e-07
1.46608e-07
1.46608e-07
1.46608e-07
1.46608e-07
1.46608e-07
1.46608e-07
1.46608e-07
1.46608e-07
1.46608e-07
1.46608e-07
1.46608e-07
1.46608e-07
1.46608e-07
1.46608e-07
1.46608e-07
1.46608e-07
1.46608e-07
1.46608e-07
1.46608e-07
1.46608e-07
1.46608e-07
1.46608e-07
1.46608e-07
1.46608e-07
1.46608e-07
1.46608e-07
1.46608e-07
1.46608e-07
1.46608e-07
1.46608e-07
1.46608e-07
1.46608e-07
1.46608e-07
1.46608e-07
1.46608e-07
1.46608e-07
1.46608e-07
1.46608e-07
1.46608e-07
1.46608e-07
1.46608e-07
1.46608e-07
1.46608e-07
1.46608e-07
1.46608e-07
1.46608e-07
1.46608e-07
1.46608e-07
1.46608e-07
1.46608e-07
1.46608e-07
1.46608e-07
1.46608e-07
1.46608e-07
1.46608e-07
1.46608e-07
1.46608e-07
1.46608e-07
1.46608e-07
1.46608e-07
1.46608e-07
1.46608e-07
1.46608e-07
1.46608e-07
1.46608e-07
1.46608e-07
1.46608e-07
1.46608e-07
1.46608e-07
1.46608e-07
1.46608e-07
1.46608e-07
1.46608e-07
1.46608e-07
1.46608e-07
1.46608e-07
1.46608e-07
1.46608e-07
1.46608e-07
1.46608e-07
1.46608e-07
1.46608e-07
1.46608e-07
1.46608e-07
1.46608e-07
1.46608e-07
1.46608e-07
1.46608e-07
1.46608e-07
1.46608e-07
1.46608e-07
1.46608e-07
1.46608e-07
1.46608e-07
1.46608e-07
1.46608e-07
1.46608e-07
1.46608e-07
1.46608e-07
1.46608e-07
1.46608e-07
1.46608e-07
1.46608e-07
1.46608e-07
1.46608e-07
1.46608e-07
1.46608e-07
1.46608e-07
1.46608e-07
1.46608e-07
1.46608e-07
1.46608e-07
1.46608e-07
1.46608e-07
1.46608e-07
1.46608e-07
1.46608e-07
1.46608e-07
1.46608e-07
1.46608e-07
1.46608e-07
1.46608e-07
1.46608e-07
1.46608e-07
1.46608e-07
1.46608e-07
1.46608e-07
1.46608e-07
1.46608e-07
1.46608e-07
1.46608e-07
1.46608e-07
1.46608e-07
1.46608e-07
1.46608e-07
1.46608e-07
1.46608e-07
1.46608e-07
1.46608e-07
1.46608e-07
1.46608e-07
1.46608e-07
1.46608e-07
1.46608e-07
1.46608e-07
1.46608e-07
1.46608e-07

VECTORS velocity float
-0.0118631 0.00279717 -0.013281
0.000665724 0.00079737 -0.00127977
1.78776e-05 0.000402753 7.56665e-05
0.000146334 -0.000183536 2.2816e-05
0.000270301 -0.0138007 0.0215891
-0.000255639 0.00260143 -0.00141786
-0.000388429 0.00552888 0.00527485
0.00203707 -0.0116017 -0.0164942
-9.93022e-06 0.0206036 -0.0171055
-0.000173323 0.000989064 -0.000197249
0.00424623 0.0158032 0.00774792
0.00880328 -0.0151543 -0.0350398
0.00401861 0.0237813 -0.000273764
-0.00107705 0.00281601 0.000382266
-0.000589864 0.000878454 7.27912e-05
0.00766479 -0.0246612 0.000109379
0.00114092 -0.000376241 -0.00134474
-0.00011748 0.000682473 -0.00127604
0.000300335 -0.000142321 9.54511e-05
0.000870256 0.0212 -0.00525171
-0.00624013 0.0165471 0.0132381
-1.27841e-14 1.14722e-16 -1.49966e-13
2.8405e-06 0.0259829 0.00627691
-0.000254588 6.47368e-05 -0.000160033
0.00165341 0.016165 -0.0249819
0.000144931 0.0240428 0.00188908
-8.34183e-15 7.31857e-14 -1.9661e-13
-0.000194992 0.00157442 -0.0016277
0.000192192 -6.57386e-05 -0.000155479
6.09612e-05 0.00127183 -0.0013757
-0.000572271 0.00053345 0.000559721
0.00397476 -0.00971205 0.00823789
0.00510919 0.011425 -0.00210971
0.00205495 0.00531749 -0.023329
-0.00141049 -0.00123666 -0.0307286
0.00364294 0.00395778 0.00195206
0.00772405 0.00538868 -0.0132898
-0.000127402 0.0132748 0.0065592
-0.00934461 -0.011045 -0.0128298
-0.0158916 -0.0411711 -0.108049
-0.00274966 0.0153766 -0.0165549
-0.00310279 0.0201518 -0.00951782
-0.00636884 -0.0204025 0.0307075
-7.02599e-05 0.0152253 -0.0213731
-0.00157159 0.0113539 -0.0139377
0.0153099 -0.0257253 -0.0125312
0.0126143 -0.00352083 -0.10749
-4.46791e-05 0.0229578 -0.0212188
0.0012866 -0.00748443 -0.0183873
-0.00128215 -0.0103233 -0.0174258
0.00211889 0.0160973 0.00937617
1.99591e-14 -8.8795e-15 1.8247e-13
-0.000240398 0.00301604 -0.0052316
0.00456537 -0.00240813 0.00563797
0.0454295 0.00285092 -0.0324705
0.00028487 -0.0224079 0.00883631
-0.00435433 0.00852769 -0.0106659
0.00112918 0.00742344 -0.0198954
0.002161 1.93317e-06 -0.000877726
0.00661746 -0.0179238 -0.025228
-1.85897e-16 -1.89012e-15 -5.63085e-15
0.00131448 -8.02844e-05 -0.00215335
0.0022455 0.0106559 0.0132929
-2.19965e-09 0.0283733 -0.00747436
0.000638824 0.000290677 -0.000112358
-4.07262e-07 0.0275267 0.00974269
0.0240075 0.0140915 -0.0142432
0.000196323 -0.0223358 0.0133231
0.0014792 -0.00210486 0.00486208
0.00122819 0.00161053 -0.000972062
9.98397e-05 -0.0238091 -0.00735106
-1.51893e-14 6.81221e-15 -1.39019e-13
0.000395578 -0.00367892 -0.0226335
0.000193094 -0.0191929 -0.0158278
7.91785e-05 0.0112037 0.025413
0.000188905 0.0131092 0.0239776
-0.00904012 -0.00987364 0.0177056
0.0180267 -0.00382976 0.00323192
-0.0260548 -0.0116684 0.0411994
0.0021944 0.00117999 -0.00195361
-0.000191507 0.00585712 0.0263799
0.000569201 0.0222182 -0.00980118
-0.0367801 0.00761086 -0.0334123
0.00564721 0.00187323 -0.00496974
-0.0983582 0.0425213 -0.428559
-0.000856303 0.0200757 -0.0100636
0.00158493 -0.00245461 -0.00184323
0.000688888 0.00467359 0.015543
0.000220478 -0.00247131 0.00119645
-0.00736988 -0.00212206 -0.0256832
0.0023743 0.00198566 0.000502233
-0.000278156 0.00332933 -0.00379646
0.00047738 0.000868902 8.91973e-05
-0.0095643 -0.0550584 -0.0933066
0.00108142 -0.00170466 0.00236932
-0.00129697 -0.000743788 -0.000835369
0.029323 -0.0172468 -0.0687475
0.00505396 0.0040078 -0.00285233
0.0010362 0.00029843 -0.00128481
0.000512852 -0.0238927 0.00390194
0.00458777 -0.000416723 -0.000699829
-0.00341654 0.0268688 -0.00373398
0.00197304 0.0218915 -0.0061812
0.000963364 -0.00412211 -0.0219295
-0.00134303 -0.000862709 -6.85642e-05
0.000959809 -0.0187485 -0.00258421
0.00481856 0.00177395 -0.00407945
0.00100597 9.67931e-05 0.0210289
0.000536495 0.000247668 -0.00212204
0.0186089 0.0298796 -0.0373946
0.111343 -0.0731621 -0.307276
0.00154774 0.0185877 0.0195614
0.000457465 -0.00660122 0.012178
0.000711126 0.0011329 -0.0035927
0.00217585 -0.00104351 -0.0010316
0.00246995 0.00203513 0.00357035
0.00898717 -0.00246607 -0.000151345
0.000840702 -0.00876048 0.0231414
0.0698585 -0.0196566 -0.131363
-0.000476366 0.00171454 0.0030957
-0.00114361 -0.0263584 -0.0437496
-0.00195432 -0.00756043 -0.00756805
0.00327468 0.00163124 -0.00535915
-0.00465214 0.0190026 -0.0517387
0.026733 -0.06839 -0.158872
0.00120322 -0.0156187 0.00520567
0.00426627 0.00486192 0.000773707
0.00244058 0.0132678 0.00884896
-0.00127918 -0.000910479 -0.000881539
0.000280426 -0.000929418 0.000138483
-0.000600939 0.00114898 0.00157806
0.00860883 -0.0276285 -0.00351352
-0.000222669 5.26192e-05 -1.64891e-05
0.00163559 0.000160686 -0.00305362
0.0045207 0.000486653 0.00623208
1.77267e-05 -0.015508 -0.0104095
0.00434461 0.00620452 0.000483804
-0.00168295 -0.00547376 -0.0541935
0.0001647 0.0138742 0.0240575
0.00822612 0.0112396 0.0061965
0.00728333 0.0117182 -0.00208622
-3.62949e-09 0.0240701 0.00245383
-0.00300454 0.00843098 -0.0130776
-0.0071577 -0.0291643 -0.0682697
0.00875042 0.00975414 0.017931
0.00993537 0.0175482 -0.0114853
0.000991711 -0.0238705 -0.00179797
0.00477614 0.00824389 -0.0248654
-0.000154816 0.000540668 -0.00120801
0.0169095 0.0184846 0.0156385
0.000230213 -0.0237616 -0.00897693
0.00355773 0.000745161 -0.0025022
0.00327778 -1.78757e-06 0.00495373
0.00294589 0.00257489 -0.00251899
0.000163293 0.000987588 -0.00321542
-0.00155597 -0.000689678 0.0231873
-2.48335e-05 0.0231424 0.00698471
0.0572052 -0.0154892 -0.184527
0.0055046 0.0147711 -0.00525258
0.00225147 0.00169283 0.00217575
0.00191192 0.000209888 0.0190237
2.23911e-09 0.02888 0.000519623
0.00600058 -0.00420771 -0.0317586
0.00905358 0.0107852 0.00681869
-0.00137889 0.00202365 -0.000909314
1.68275e-07 0.0287472 -0.0049062
0.00624317 -0.00119326 -0.00158586
0.0151199 -0.00234524 -0.00352982
0.00221045 0.0057904 -0.0363554
0.053031 -0.0791048 -0.075779
3.70465e-08 0.0268921 0.0107046
0.0107845 0.00139336 0.00839807
0.00634001 -0.00221167 0.000223661
0.000888087 -0.00795082 -0.0195776
-0.0157262 -0.00857178 -0.0462621
0.00171069 -0.00610387 -0.0176679
0.00681559 0.0109253 -0.00131152
0.00398518 0.00550675 0.00963964
0.0152383 0.00902582 -0.0279396
5.99797e-06 -0.00146719 0.00245169
0.00221868 -0.00535053 0.00898484
0.0127176 0.00529959 0.00347912
0.00904298 0.00811911 0.000222997
-0.0073003 0.00459268 0.0213458
0.0431773 -0.0228109 -0.018257
-0.00595222 0.00570078 0.00941339
0.0177622 -0.0123528 0.0125162
0.013196 -0.0170013 0.0028309
-0.00390846 0.0188332 -0.00546567
0.0227463 -0.0387249 -0.0430371
0.000253654 0.0251202 0.00634873
-0.00527105 0.0183255 -0.0266822
0.000543023 0.0206527 -0.0138035
-0.000417389 0.00608643 -0.0114023
0.0130342 0.00159956 -0.0410639
0.0115756 -0.0427165 -0.0923942
0.00757267 0.0308339 -0.000113931
3.01573e-05 -0.000444186 1.94221e-06
-0.0107897 0.0138837 0.00592572
0.00309231 0.00822048 0.000834987
-1.7455e-09 0.0285473 0.00488188
0.00334274 0.00427746 -0.00559935
-0.100116 -0.0504614 0.0319704
-0.0187955 0.00896904 -0.00546021
0.00231203 0.0295572 -0.0324711
0.0115198 0.0145901 0.0126354
2.82893e-06 0.0241012 0.000404439
-0.0283354 -0.00837735 -0.0517227
0.0607839 -0.0365262 -0.174483
5.71059e-09 0.0291797 0.00210452
-0.0720272 -0.0407801 -0.144534
-0.0557505 -0.0140949 -0.0468086
0.00110556 0.00463013 -0.00581091
0.00428766 0.00374555 -0.00234471
0.0121933 0.00299602 -0.000551991
0.0290119 0.0207256 -0.0289717
-0.00446932 -0.024573 -0.0165287
0.0129529 0.0029497 0.00143597
-0.0147907 -0.0304814 -0.0765434
0.00542188 0.00196183 -0.00572942
-0.00543756 -0.00453496 -0.00678874
8.3369e-05 0.0232063 0.00738499
0.00546001 0.00514091 -0.000961608
0.00514325 -0.00984675 -0.00667563
-0.0844119 -0.0656409 0.19672
-0.00958077 -0.0442117 -0.093876
-0.0150654 0.00250099 0.0138144
-0.00197001 0.0224248 0.00100324
0.00257917 0.0143637 0.00970188
0.0116457 -0.000634898 0.0036753
0.00470279 -0.000522895 0.000986283
0.0115194 -9.54086e-05 -0.00159648
0.00777862 0.0142462 0.00210512
-1.88638e-09 0.0277326 0.00847973
-0.00460883 -0.000109384 -0.000937605
0.0153318 0.00323883 -0.00200794
0.00331746 0.00211983 -0.00563077
0.00453724 0.00868102 0.0066609
-0.0455703 0.0346613 -0.0161972
-3.97535e-07 0.0273167 -0.0103166
0.0362245 -0.065254 -0.16969
0.000885998 0.0258518 -0.0101253
-0.00586251 -0.00971157 0.0125963
0.00389822 0.0113898 -0.00623019
-0.000757155 0.00999025 0.00882307
-0.0161369 -0.0584571 -0.0974481
-0.0353543 0.0232771 -0.066401
0.00097032 0.0151491 0.0186474
0.0020413 -0.00501396 -0.0118261
0.00155824 0.00312228 0.00362519
-1.44204e-10 0.0216271 0.0106961
0.0187465 0.00990903 0.0182449
0.00989822 -0.0232192 0.00100784
-0.0068891 -0.00921043 -0.00593076
0.0 -0.0 -0.03
0.0481639 -0.0804412 -0.13326
-0.0201326 0.00375907 -0.00143849
-0.00149229 -0.00584286 -0.0183417
-0.00367918 0.0057843 0.00328344
0.0326702 0.0054502 -0.0588281
0.0146118 -0.00279878 -0.00867461
0.0108776 -0.0110314 -0.0237464
0.0230304 -0.00253444 -0.00360151
0.000638813 0.0301923 -0.00259968
-0.0046164 0.0118652 0.0218213
-0.0495856 0.01001 -0.244368
0.00151465 0.0119719 -0.0118038
-0.00592365 0.0052648 0.00366094
0.00174115 0.00460331 -6.68136e-05
-0.0579823 -0.109964 0.181736
0.00183311 0.00248253 0.00554094
0.0 0.0 -0.04575
0.334425 0.0356325 0.616415
-0.00287657 0.00467505 0.00467945
0.00426458 0.00821195 -0.00415365

VECTORS force float
0.0 0.0 -1.43822e-06
-7.79184e-07 -1.39112e-06 2.89981e-06
1.9208e-06 -2.38879e-06 1.12612e-06
-4.44522e-07 1.78537e-06 -2.04488e-06
-4.15984e-09 8.64977e-09 1.4819e-08
3.49851e-06 -1.38949e-06 3.30754e-06
1.73422e-08 5.49391e-09 2.09042e-08
1.41151e-06 1.48288e-06 6.31552e-07
2.85842e-12 -1.52501e-08 -1.83806e-08
3.72822e-07 2.09268e-08 -2.32444e-06
-4.80195e-08 -1.02142e-07 -1.47102e-06
0.0 0.0 -1.43822e-06
-1.07067e-06 9.25186e-07 1.12076e-06
5.98443e-06 1.94137e-06 7.58943e-07
6.01363e-06 5.25288e-06 -1.828e-06
0.0 0.0 -1.43822e-06
-1.7184e-07 8.04681e-07 -3.59433e-07
-1.28184e-06 -2.04186e-06 1.5654e-05
2.63713e-06 -3.88169e-06 -4.94888e-06
4.50851e-06 -4.87e-06 8.66463e-06
-1.34307e-08 1.02368e-06 2.62238e-07
0.0 3.10191e-20 0.0
3.99274e-13 5.61478e-09 -2.32379e-08
2.97197e-06 -4.05589e-06 -2.5314e-06
0.0 0.0 -1.43822e-06
1.71883e-06 -8.58826e-06 -1.32088e-05
2.18846e-19 -2.11229e-20 -1.20702e-20
1.77339e-06 -2.54709e-06 6.27161e-06
2.74314e-07 2.18195e-07 -3.25183e-07
-4.57345e-07 7.4958e-07 2.37217e-07
8.0662e-06 -2.26703e-06 -2.57245e-06
-2.16493e-05 2.99501e-05 -2.03346e-05
-2.92674e-05 4.28744e-05 1.04947e-05
-1.98661e-06 -4.51261e-07 2.05368e-06
0.0 0.0 -1.43822e-06
-0.000153792 0.000153411 0.000160824
0.0 0.0 -1.43822e-06
8.34015e-09 -5.49255e-08 -3.72064e-08
5.72376e-08 -3.45606e-07 -3.44532e-07
0.0 0.0 -1.43822e-06
4.68143e-06 -1.18842e-06 2.72468e-07
0.0 0.0 -1.43822e-06
0.0 0.0 -1.43822e-06
-1.98296e-09 -9.40404e-09 -1.38397e-08
3.62732e-06 -1.5828e-06 -1.04199e-05
0.0 0.0 -1.43822e-06
0.0 0.0 -1.43822e-06
-1.2309e-08 2.16093e-07 -2.56863e-07
-8.98726e-07 -3.78335e-07 -6.24902e-07
-1.65192e-08 -1.1468e-08 -1.46739e-09
-6.13799e-07 2.80592e-08 8.6463e-07
8.90179e-20 -4.93158e-19 -3.26108e-20
1.34676e-06 2.81432e-07 -4.80742e-07
-1.11704e-08 -1.18676e-07 -1.5617e-06
0.0 0.0 -1.43822e-06
-2.27006e-09 -6.8501e-09 1.95336e-08
0.0 0.0 -1.43822e-06
1.1704e-06 -7.94593e-06 6.24775e-06
1.24913e-06 -1.29976e-06 -9.2503e-07
0.0 0.0 -1.43822e-06
6.61744e-24 1.05879e-22 0.0
2.58915e-07 -5.45426e-07 1.44784e-07
4.54439e-08 -5.49472e-08 3.92717e-08
-1.02113e-14 -5.78921e-09 -2.28204e-08
-3.80648e-07 -1.50842e-06 1.08241e-06
-1.69852e-09 -7.16301e-10 -2.44546e-08
0.0 0.0 -1.43822e-06
-3.53597e-09 1.21369e-09 1.726e-08
2.051e-07 -3.11364e-07 5.93256e-07
-8.57441e-07 -1.43589e-06 -7.91597e-06
3.35213e-09 -9.23963e-09 1.07438e-08
1.77348e-21 8.09975e-21 2.11758e-22
-7.66238e-09 -1.52463e-08 -1.62929e-08
-1.53717e-09 -1.67218e-08 7.16595e-09
-3.79339e-08 -3.13839e-07 -1.83122e-06
-5.26885e-07 2.0339e-06 1.39272e-06
1.13582e-06 2.01891e-06 -1.98654e-06
3.24532e-05 -7.39903e-07 2.7521e-05
0.0 0.0 -1.43822e-06
3.83251e-08 8.58774e-08 1.54995e-07
2.41587e-06 2.53292e-06 -4.7186e-07
-4.29092e-06 3.85121e-06 -7.53729e-06
0.0 0.0 -1.43822e-06
-1.42208e-06 -6.07463e-07 -2.00123e-07
0.0 0.0 -1.43822e-06
0.0 0.0 -1.43822e-06
1.14284e-06 1.16973e-06 6.58813e-06
-3.98729e-06 1.27175e-05 1.57107e-05
-1.19319e-06 7.87929e-06 -2.37636e-06
-1.98177e-05 -3.28188e-05 -1.49422e-05
-6.43819e-07 -3.66416e-07 -7.31812e-08
-8.79181e-06 -1.16571e-05 1.7233e-05
1.77789e-07 1.43453e-07 -1.30622e-06
0.0 0.0 -1.43822e-06
3.63332e-06 -1.61374e-05 1.11226e-05
-2.37349e-07 -1.15926e-06 -1.68209e-06
3.55722e-07 9.74704e-08 -8.88002e-07
-1.95877e-05 8.05739e-05 1.44976e-06
2.13604e-06 3.86095e-08 -6.1249e-07
-2.98176e-09 -9.90174e-09 1.47492e-08
-2.10195e-06 -5.26101e-06 6.6821e-06
-7.19448e-09 -1.02783e-08 -1.67805e-08
0.0 0.0 -1.43822e-06
-1.38641e-08 -1.37568e-08 -3.29678e-08
1.20135e-05 3.06254e-06 -6.14074e-06
1.62906e-09 -4.08251e-08 1.07692e-08
4.90241e-08 -5.49115e-07 -1.00026e-07
1.03252e-06 5.30935e-07 1.67036e-06
2.15668e-07 7.15747e-08 -4.44705e-07
0.0 0.0 -1.43822e-06
0.0 0.0 -1.43822e-06
-6.26848e-07 1.53171e-06 -7.35627e-07
3.96917e-08 3.9551e-08 -7.23926e-08
4.11062e-08 -7.07567e-08 6.32821e-08
-8.56903e-09 -1.4702e-08 3.55446e-08
0.0 0.0 -1.43822e-06
7.08532e-06 -5.66221e-06 -1.58124e-05
-1.45744e-08 1.29687e-08 -1.09221e-07