# vtk DataFile Version 3.0
LIGGGHTS particles timestep 6000000
ASCII
DATASET POLYDATA
POINTS 208 float
0.0229901 0.0178485 0.0157889
0.0171947 0.0243475 0.0139815
0.0222326 0.0236688 0.0150926
0.0208446 0.0243048 0.0139612
0.0184813 0.0240863 0.0129681
0.0166952 0.0141216 0.0138248
0.029315 0.0147888 0.0111051
0.0193876 0.0154629 0.00909899
0.0190804 0.0243259 0.0139423
0.0178798 0.0149982 0.0133236
0.021353 0.0211594 0.0158558
0.0205848 0.023415 0.0170701
0.0229512 0.0223842 0.0177662
0.0136736 0.0219715 0.0158986
0.0207222 0.0240721 0.013042
0.018136 0.0243377 0.0138752
0.0222185 0.0236601 0.0137975
0.0268787 0.0222961 0.0141544
0.0155831 0.0200437 0.015839
0.0287326 0.0168866 0.00626921
0.0201336 0.0164772 0.00806593
0.0216155 0.0240946 0.0143655
0.0199082 0.0241573 0.0128582
0.0160929 0.0176632 0.0157216
0.103009 0.0215368 0.00628499
0.0173614 0.0240365 0.0129016
0.018537 0.0146232 0.0119357
0.0199914 0.0244329 0.0137089
0.0229455 0.0233961 0.014283
0.0199905 0.023037 0.00991326
0.023137 0.0169223 0.0154056
0.0304985 0.0181703 0.0072869
0.0175338 0.0146234 0.0119355
0.028307 0.01653 0.0149584
0.0180488 0.0208235 0.0164474
0.0240691 0.0166128 0.0152144
0.0224266 0.016328 0.0150288
0.0301867 0.0166437 0.00794283
0.0239537 0.0214869 0.0161486
0.0295168 0.0149899 0.0102764
0.0194145 0.0248298 0.0178987
0.0188096 0.019309 0.00718718
0.0471153 0.0194898 0.00590197
0.0208367 0.023109 0.0100412
0.022811 0.0142732 0.0149853
0.0201328 0.0200532 0.0171808
0.043098 0.018187 0.00597143
0.0184309 0.0138708 0.0140027
0.014418 0.023232 0.0154888
0.0398391 0.0191221 0.0057054
0.0156069 0.0234632 0.0179097
0.027735 0.0190806 0.0158246
0.0173956 0.021542 0.0162087
0.0235972 0.0150891 0.00978542
0.0239833 0.0154452 0.0152275
0.0184271 0.0217956 0.0161139
0.0273046 0.0208212 0.0154298
0.0276983 0.0183178 0.00600486
0.0290671 0.0147889 0.0118548
0.0181296 0.015102 0.0148257
0.0228229 0.0151206 0.013586
0.0193185 0.024065 0.0123978
0.0217564 0.0148892 0.0151614
0.0225855 0.0152089 0.0147031
0.0262439 0.0233861 0.0115371
0.027468 0.0200564 0.0156918
0.0210381 0.0196539 0.0178306
0.0158312 0.0144809 0.0141774
0.0345703 0.0181398 0.00594666
0.0248163 0.0220886 0.0164811
0.0169546 0.0222262 0.01462
0.0271476 0.0214559 0.0150028
0.0289135 0.0178603 0.0059009
0.0162306 0.0221748 0.0154891
0.017949 0.015889 0.00857011
0.0215274 0.0238896 0.0132517
0.019128 0.0224167 0.0169618
0.0333745 0.0196852 0.00587267
0.0323386 0.018955 0.00574364
0.0246478 0.0159944 0.0157461
0.0231245 0.0216173 0.0151254
0.0230379 0.0154913 0.0155487
0.0228768 0.0162826 0.0161387
0.021842 0.0143452 0.0139308
0.016648 0.0237925 0.0134509
0.0200657 0.0140397 0.0129938
0.0195936 0.0154086 0.0152873
0.0280721 0.017299 0.0154128
0.0209077 0.0223701 0.0144116
0.0152196 0.0190893 0.0167872
0.0226832 0.019766 0.0167634
0.0237759 0.0187488 0.0159477
0.0283537 0.0679475 0.0114974
0.027155 0.0232503 0.0126549
0.0191802 0.0233657 0.0145114
0.0168807 0.0149827 0.0133516
0.0285179 0.0158262 0.0143666
0.0264684 0.0231356 0.0129104
0.0162263 0.023446 0.0167901
0.0219887 0.0189851 0.018172
0.0237472 0.0228351 0.0153729
0.0152147 0.0216238 0.0152405
0.0219582 0.0182808 0.0158759
0.0131974 0.0182637 0.0166883
0.0185493 0.0141076 0.0127923
0.0679951 0.0181579 0.00579005
0.0192598 0.0170431 0.0170893
0.0199234 0.0233168 0.0106275
0.0173965 0.0153599 0.0141207
0.0535655 -0.0159946 0.0695319
0.0148708 0.0230086 0.0146034
0.0177179 0.0181049 0.0158508
0.016785 0.018207 0.0161961
0.0160074 0.0188749 0.0159558
0.0171201 0.021466 0.0152498
0.0221284 0.0231544 0.0159799
0.0129095 0.020919 0.0164251
0.0252947 0.0204841 0.0165498
0.0186378 0.0149715 0.0139746
0.0234168 0.0157016 0.0144445
0.0180392 0.0239906 0.0119036
0.0254943 0.0214323 0.0167944
0.0221764 0.0173024 0.0155899
0.0219455 0.0220429 0.014807
0.0258223 0.0229802 0.00972507
0.0210672 0.0146754 0.0144694
0.0244129 0.022221 0.0156375
0.0218069 0.0220708 0.0158159
0.0230923 0.0171799 0.0165249
0.0251445 0.0187974 0.00587913
0.0189572 0.0201071 0.00735241
0.0231775 0.023568 0.0152053
0.0207889 0.0231828 0.0129777
0.0199243 0.0243075 0.0165957
0.0234421 0.0148467 0.0106432
0.0176176 0.014041 0.0134464
0.0258016 0.00197399 0.0435188
0.0208067 0.0207475 0.0167575
0.0174387 0.0163254 0.0150213
0.042324 0.0206844 0.00610545
0.0244352 0.0187026 0.0167437
0.0194893 0.0191849 0.016766
0.019423 0.014752 0.0145528
0.0235332 0.0207523 0.0167329
0.0173362 0.020592 0.0156849
0.020192 0.0143918 0.0139214
0.0237862 0.0155249 0.00897584
0.02222 0.0212631 0.015369
0.0206545 0.0156895 0.0155452
0.0213954 0.0227091 0.013917
0.0160795 0.0231691 0.0131042
0.0186999 0.0185106 0.00718715
0.0229113 0.0192512 0.0159371
0.0156073 0.0222684 0.0145775
0.0218074 0.0192963 0.0159364
0.0212935 0.0234413 0.0138758
0.0143807 0.0185212 0.0168342
0.0145453 0.0230143 0.0130478
0.0196083 0.0230979 0.0156805
0.0194391 0.0219098 0.00831651
0.020113 0.0235862 0.0142264
0.0165 0.0231627 0.015757
0.0260052 0.0232819 0.0105912
0.0257981 0.0182528 0.0166984
0.0165083 0.0160513 0.0147782
0.0202649 0.0234303 0.0114833
0.00795985 0.0177067 0.00608549
0.0170854 0.0194275 0.0159709
0.0242258 0.0169195 0.00774136
0.0220699 0.0235392 0.0169113
0.0209255 0.02351 0.0148042
0.0153507 0.0229155 0.0136388
0.0238804 0.017478 0.0177725
0.0246267 0.0186931 0.00720845
0.0204285 0.0237558 0.0156364
0.0210023 0.0141231 0.013334
0.0215278 0.0228433 0.0152435
0.0221163 0.0229576 0.0144432
0.0229103 0.022351 0.0144735
0.0234337 0.0202698 0.0157745
0.0218535 0.0182432 0.019592
0.0161464 0.020887 0.015636
0.0165504 0.0228018 0.013907
0.0174765 0.0140639 0.0144461
0.0215477 0.0202314 0.0161851
0.0199052 0.0213333 0.00785783
0.0206505 0.0147563 0.0159068
0.0200064 0.0224995 0.0164283
0.0224388 0.0203658 0.0157515
0.0279362 0.0182126 0.0157208
0.0229404 0.0221315 0.0159743
0.0222894 0.0242945 0.0187446
0.0207447 0.0223102 0.0156663
0.0226031 0.0210765 0.0165473
0.0211806 0.0167711 0.0162492
0.0250286 0.0215549 0.0159953
0.0159256 0.023591 0.0142787
0.024482 0.0205889 0.0171635
0.0191427 0.0211981 0.00775828
0.0221431 0.0202923 0.0178956
0.0243015 0.0197047 0.0167152
0.0253876 0.0194317 0.0167328
0.0192322 0.0142189 0.0135163
0.0202604 0.014483 0.0150276
0.0212438 0.0236431 0.0163158
0.0210097 0.0235172 0.0121203
0.0274638 0.003903 0.0435188
0.0183781 0.01607 0.0147926

VERTICES 208 416
1 0
1 1
1 2
1 3
1 4
1 5
1 6
1 7
1 8
1 9
1 10
1 11
1 12
1 13
1 14
1 15
1 16
1 17
1 18
1 19
1 20
1 21
1 22
1 23
1 24
1 25
1 26
1 27
1 28
1 29
1 30
1 31
1 32
1 33
1 34
1 35
1 36
1 37
1 38
1 39
1 40
1 41
1 42
1 43
1 44
1 45
1 46
1 47
1 48
1 49
1 50
1 51
1 52
1 53
1 54
1 55
1 56
1 57
1 58
1 59
1 60
1 61
1 62
1 63
1 64
1 65
1 66
1 67
1 68
1 69
1 70
1 71
1 72
1 73
1 74
1 75
1 76
1 77
1 78
1 79
1 80
1 81
1 82
1 83
1 84
1 85
1 86
1 87
1 88
1 89
1 90
1 91
1 92
1 93
1 94
1 95
1 96
1 97
1 98
1 99
1 100
1 101
1 102
1 103
1 104
1 105
1 106
1 107
1 108
1 109
1 110
1 111
1 112
1 113
1 114
1 115
1 116
1 117
1 118
1 119
1 120
1 121
1 122
1 123
1 124
1 125
1 126
1 127
1 128
1 129
1 130
1 131
1 132
1 133
1 134
1 135
1 136
1 137
1 138
1 139
1 140
1 141
1 142
1 143
1 144
1 145
1 146
1 147
1 148
1 149
1 150
1 151
1 152
1 153
1 154
1 155
1 156
1 157
1 158
1 159
1 160
1 161
1 162
1 163
1 164
1 165
1 166
1 167
1 168
1 169
1 170
1 171
1 172
1 173
1 174
1 175
1 176
1 177
1 178
1 179
1 180
1 181
1 182
1 183
1 184
1 185
1 186
1 187
1 188
1 189
1 190
1 191
1 192
1 193
1 194
1 195
1 196
1 197
1 198
1 199
1 200
1 201
1 202
1 203
1 204
1 205
1 206
1 207

POINT_DATA 208
SCALARS id int 1
LOOKUP_TABLE default
1
2
3
4
6
7
8
9
10
11
12
13
15
16
17
19
20
21
22
23
24
25
26
27
28
29
30
31
32
33
35
37
38
39
41
42
43
45
46
50
51
52
53
55
57
60
62
63
64
65
66
67
70
73
76
77
78
79
82
83
84
85
88
89
90
92
93
97
98
99
100
101
103
104
106
107
108
109
111
113
115
116
117
118
120
121
123
124
126
128
129
131
132
134
136
137
140
141
142
143
145
146
147
149
151
152
154
155
156
157
158
159
160
161
162
163
165
166
167
168
169
170
173
176
177
178
179
180
181
182
183
184
185
186
188
189
190
191
192
193
198
199
200
201
202
203
204
205
206
207
209
211
212
213
214
216
217
219
220
221
223
225
228
231
233
234
235
236
237
238
239
240
241
242
243
244
245
247
250
251
255
256
258
260
261
262
264
265
267
268
270
272
275
277
279
281
282
284
285
286
289
290
293
294
295
296
297
299

SCALARS type int 1
LOOKUP_TABLE default
1
1
1
1
1
1
1
1
1
1
1
1
1
1
1
1
1
1
1
1
1
1
1
1
1
1
1
1
1
1
1
1
1
1
1
1
1
1
1
1
1
1
1
1
1
1
1
1
1
1
1
1
1
1
1
1
1
1
1
1
1
1
1
1
1
1
1
1
1
1
1
1
1
1
1
1
1
1
1
1
1
1
1
1
1
1
1
1
1
1
1
1
1
1
1
1
1
1
1
1
1
1
1
1
1
1
1
1
1
1
1
1
1
1
1
1
1
1
1
1
1
1
1
1
1
1
1
1
1
1
1
1
1
1
1
1
1
1
1
1
1
1
1
1
1
1
1
1
1
1
1
1
1
1
1
1
1
1
1
1
1
1
1
1
1
1
1
1
1
1
1
1
1
1
1
1
1
1
1
1
1
1
1
1
1
1
1
1
1
1
1
1
1
1
1
1
1
1
1
1
1
1
1
1
1
1
1
1

SCALARS radius float 1
LOOKUP_TABLE default
0.0005
0.0005
0.0005
0.0005
0.0005
0.0005
0.0005
0.0005
0.0005
0.0005
0.0005
0.0005
0.0005
0.0005
0.0005
0.0005
0.0005
0.0005
0.0005
0.0005
0.0005
0.0005
0.0005
0.0005
0.0005
0.0005
0.0005
0.0005
0.0005
0.0005
0.0005
0.0005
0.0005
0.0005
0.0005
0.0005
0.0005
0.0005
0.0005
0.0005
0.0005
0.0005
0.0005
0.0005
0.0005
0.0005
0.0005
0.0005
0.0005
0.0005
0.0005
0.0005
0.0005
0.0005
0.0005
0.0005
0.0005
0.0005
0.0005
0.0005
0.0005
0.0005
0.0005
0.0005
0.0005
0.0005
0.0005
0.0005
0.0005
0.0005
0.0005
0.0005
0.0005
0.0005
0.0005
0.0005
0.0005
0.0005
0.0005
0.0005
0.0005
0.0005
0.0005
0.0005
0.0005
0.0005
0.0005
0.0005
0.0005
0.0005
0.0005
0.0005
0.0005
0.0005
0.0005
0.0005
0.0005
0.0005
0.0005
0.0005
0.0005
0.0005
0.0005
0.0005
0.0005
0.0005
0.0005
0.0005
0.0005
0.0005
0.0005
0.0005
0.0005
0.0005
0.0005
0.0005
0.0005
0.0005
0.0005
0.0005
0.0005
0.0005
0.0005
0.0005
0.0005
0.0005
0.0005
0.0005
0.0005
0.0005
0.0005
0.0005
0.0005
0.0005
0.0005
0.0005
0.0005
0.0005
0.0005
0.0005
0.0005
0.0005
0.0005
0.0005
0.0005
0.0005
0.0005
0.0005
0.0005
0.0005
0.0005
0.0005
0.0005
0.0005
0.0005
0.0005
0.0005
0.0005
0.0005
0.0005
0.0005
0.0005
0.0005
0.0005
0.0005
0.0005
0.0005
0.0005
0.0005
0.0005
0.0005
0.0005
0.0005
0.0005
0.0005
0.0005
0.0005
0.0005
0.0005
0.0005
0.0005
0.0005
0.0005
0.0005
0.0005
0.0005
0.0005
0.0005
0.0005
0.0005
0.0005
0.0005
0.0005
0.0005
0.0005
0.0005
0.0005
0.0005
0.0005
0.0005
0.0005
0.0005
0.0005
0.0005
0.0005
0.0005
0.0005
0.0005

SCALARS mass float 1
LOOKUP_TABLE default
1.46608e-07
1.46608e-07
1.46608e-07
1.46608e-07
1.46608e-07
1.46608e-07
1.46608e-07
1.46608e-07
1.46608e-07
1.46608e-07
1.46608e-07
1.46608e-07
1.46608e-07
1.46608e-07
1.46608e-07
1.46608e-07
1.46608e-07
1.46608e-07
1.46608e-07
1.46608e-07
1.46608e-07
1.46608e-07
1.46608e-07
1.46608e-07
1.46608e-07
1.46608e-07
1.46608e-07
1.46608e-07
1.46608e-07
1.46608e-07
1.46608e-07
1.46608e-07
1.46608e-07
1.46608e-07
1.46608e-07
1.46608e-07
1.46608e-07
1.46608e-07
1.46608e-07
1.46608e-07
1.46608e-07
1.46608e-07
1.46608e-07
1.46608e-07
1.46608e-07
1.46608e-07
1.46608e-07
1.46608e-07
1.46608e-07
1.46608e-07
1.46608e-07
1.46608e-07
1.46608e-07
1.46608e-07
1.46608e-07
1.46608e-07
1.46608e-07
1.46608e-07
1.46608e-07
1.46608e-07
1.46608e-07
1.46608e-07
1.46608e-07
1.46608e-07
1.46608e-07
1.46608e-07
1.46608e-07
1.46608e-07
1.46608e-07
1.46608e-07
1.46608e-07
1.46608e-07
1.46608e-07
1.46608e-07
1.46608e-07
1.46608e-07
1.46608e-07
1.46608e-07
1.46608e-07
1.46608e-07
1.46608e-07
1.46608e-07
1.46608e-07
1.46608e-07
1.46608e-07
1.46608e-07
1.46608e-07
1.46608e-07
1.46608e-07
1.46608e-07
1.46608e-07
1.46608e-07
1.46608e-07
1.46608e-07
1.46608e-07
1.46608e-07
1.46608e-07
1.46608e-07
1.46608e-07
1.46608e-07
1.46608e-07
1.46608e-07
1.46608e-07
1.46608e-07
1.46608e-07
1.46608e-07
1.46608e-07
1.46608e-07
1.46608e-07
1.46608e-07
1.46608e-07
1.46608e-07
1.46608e-07
1.46608e-07
1.46608e-07
1.46608e-07
1.46608e-07
1.46608e-07
1.46608e-07
1.46608e-07
1.46608e-07
1.46608e-07
1.46608e-07
1.46608e-07
1.46608e-07
1.46608e-07
1.46608e-07
1.46608e-07
1.46608e-07
1.46608e-07
1.46608e-07
1.46608e-07
1.46608e-07
1.46608e-07
1.46608e-07
1.46608e-07
1.46608e-07
1.46608e-07
1.46608e-07
1.46608e-07
1.46608e-07
1.46608e-07
1.46608e-07
1.46608e-07
1.46608e-07
1.46608e-07
1.46608e-07
1.46608e-07
1.46608e-07
1.46608e-07
1.46608e-07
1.46608e-07
1.46608e-07
1.46608e-07
1.46608e-07
1.46608e-07
1.46608e-07
1.46608e-07
1.46608e-07
1.46608e-07
1.46608e-07
1.46608e-07
1.46608e-07
1.46608e-07
1.46608e-07
1.46608e-07
1.46608e-07
1.46608e-07
1.46608e-07
1.46608e-07
1.46608e-07
1.46608e-07
1.46608e-07
1.46608e-07
1.46608e-07
1.46608e-07
1.46608e-07
1.46608e-07
1.46608e-07
1.46608e-07
1.46608e-07
1.46608e-07
1.46608e-07
1.46608e-07
1.46608e-07
1.46608e-07
1.46608e-07
1.46608e-07
1.46608e-07
1.46608e-07
1.46608e-07
1.46608e-07
1.46608e-07
1.46608e-07
1.46608e-07
1.46608e-07
1.46608e-07
1.46608e-07
1.46608e-07
1.46608e-07
1.46608e-07
1.46608e-07
1.46608e-07
1.46608e-07
1.46608e-07
1.46608e-07
1.46608e-07
1.46608e-07

VECTORS velocity float
0.00667331 0.0179688 0.00273927
-0.00118488 -0.00152079 0.00183781
-0.000792965 -0.000476835 0.000212847
-0.000195648 0.000997169 -0.000769362
-9.19099e-05 0.000479081 -0.000357089
0.00156891 -0.00181753 0.00384371
0.0744573 -0.668422 0.134256
3.41097e-05 -0.0158212 0.0209248
-9.59643e-05 -0.000565888 0.000899095
0.00027384 0.00878144 0.0195587
-0.00804329 0.0128028 -0.00422833
-0.00646853 -0.0260151 -0.0404874
0.118231 -0.00225578 -0.00898154
0.0128374 0.0116766 -0.0114273
-0.000563401 0.000808133 -0.000567691
-0.000663366 -0.00574823 0.00259742
-0.000665673 0.000113898 -0.000448007
0.000206901 0.0162106 -0.0193319
0.0407015 -0.0544049 0.0272999
-2.54002e-14 8.63199e-14 2.12262e-13
0.00120574 -0.0105638 0.00880679
-0.000397803 0.000585896 -0.000553059
-0.00051367 -0.000140206 -0.0019718
0.000530215 0.0235036 0.00766541
-8.47805e-15 7.31851e-14 -1.96605e-13
-0.000187063 -4.2203e-05 -0.000451713
-0.000742129 0.00135545 -0.00252426
-0.0006151 2.30083e-05 -0.000540654
-0.000152176 -0.00128701 0.000251852
0.000655408 -0.00660312 -0.0190266
0.00145573 0.0205986 0.0110662
0.00100499 -0.0225141 0.0053139
-4.53921e-07 0.000786767 -0.00130616
0.000551634 0.0192754 0.0134338
-2.97957e-06 0.0271674 -0.0100613
-0.000418525 0.015898 0.0106912
0.000635564 0.0193665 0.0146424
0.00132335 -0.0198561 0.0133977
-0.00739269 -0.00655306 -0.0024393
0.0290388 -0.0267753 -0.0014353
0.111098 0.0375918 0.0583883
0.000435603 -0.0249934 -0.00214337
-3.76943e-15 8.1035e-15 8.41352e-14
0.00172184 -0.000378379 -0.00563724
2.06846e-11 7.6113e-12 7.42844e-12
0.0933755 -0.0809094 0.060041
-1.10786e-14 3.18864e-14 1.75218e-13
-0.0055109 0.00448651 -0.0159591
0.0113419 -0.00589152 -0.0164283
-3.94354e-15 1.88456e-14 -9.32089e-14
0.0412753 -0.027141 -0.092917
0.000690118 0.0235202 -0.000238877
0.00201944 -0.0462106 -0.00184228
0.000422805 -0.0105723 0.0199828
0.00464552 -0.00307286 0.00280079
0.0379598 -0.090315 0.0215478
0.000273975 0.0126205 -0.00539056
-2.40806e-14 2.27451e-16 -2.82485e-13
-0.248064 -0.137575 -0.0999008
-0.00999737 0.00790834 0.00953557
0.00473774 0.0033817 0.00430144
-0.000237657 -0.00481023 -0.00487221
0.00922122 -0.00607614 0.00573136
-0.00154256 -0.0130844 -0.0210997
0.000583736 0.00108027 -0.0247832
-0.000177295 0.0157333 -0.00443687
0.0672743 -0.106311 0.0233548
0.000820855 -0.00165786 0.00179511
-1.77237e-16 -1.89281e-15 -5.63035e-15
-0.000198165 0.000565161 -3.48813e-05
0.00298292 0.00551702 -0.0127979
0.00181861 0.0135482 -0.0099348
6.62739e-15 5.40875e-16 7.76943e-14
0.0383241 -0.0971331 0.16591
0.000416043 -0.016846 0.0181391
-0.000242384 0.0026073 -0.000648794
0.0570014 -0.0488822 -0.0278476
-1.37666e-15 -7.63425e-15 2.96062e-14
-1.72425e-15 -1.80405e-14 -5.36933e-14
-0.00240827 0.000695285 -0.00484531
0.00133843 0.0145258 -0.0101645
0.00522244 -0.011665 0.000306279
-0.000882912 0.00249207 -0.000177703
0.00372968 0.000198265 0.00337954
-0.00081497 -0.000589933 -0.000614742
0.000659288 0.00103398 -0.00201307
0.00564379 0.00966133 0.0102718
0.0004544 0.0225137 0.0114337
0.00100061 0.0144263 -0.0170717
-3.31144e-09 0.0292513 -0.000181716
-0.00356689 0.0259247 -0.00307988
3.85812e-05 0.0241529 0.00141815
0.0712879 0.257394 -0.882072
0.00487703 0.0037483 -0.00923991
-0.0133264 0.0163892 -0.024427
0.000385368 0.00971147 0.0233915
0.000977449 0.0102745 0.0120249
0.000760033 0.00889143 -0.0212157
-0.000268387 -0.0146021 -0.0204122
0.115836 -0.170263 0.041933
0.00298098 0.00175755 -0.00496153
0.022699 -0.0579481 0.106385
0.00252158 0.0145786 0.00275812
-0.0292922 0.00282915 0.000393081
-0.00236009 0.00105296 -0.00302086
-2.53135e-15 -5.06988e-15 -1.74883e-13
-0.0461072 -0.168933 -0.102458
0.0026629 -0.00527545 -0.0168757
0.00424573 0.0129057 0.0192282
0.14324 -0.216114 -0.556776
0.0182807 -0.0079684 -0.0299087
1.1395e-07 0.023563 0.00534521
-0.00127948 0.0333802 -0.00101074
-3.22896e-09 0.0241774 0.000912248
0.00506719 0.00851366 -0.00900261
0.00841584 -0.00443615 -0.0080449
0.00958946 0.0145388 -0.00449807
-0.00136265 0.00100182 -0.000208829
0.0023854 0.00778388 0.0170611
0.00309279 0.00935083 0.0101751
-0.00116283 -0.00558095 -0.00267569
-0.00029666 0.000277116 -0.000178185
0.000748101 0.021722 0.00941938
0.000606506 -0.00332928 0.00408024
0.000883176 -0.00548221 -0.0155038
0.00647811 0.00211362 0.00571685
-0.000205722 0.000849619 -0.000105265
-0.0174944 -0.0075656 -0.00417244
0.022065 0.00854599 -0.00484692
1.4303e-14 2.30374e-15 -2.33189e-13
0.000286036 -0.0246589 -0.00738374
-0.000238243 -0.000157907 -0.000132014
-0.00299007 0.000122719 -1.69413e-05
-0.0022573 -0.0201501 -0.045021
-2.39488e-05 -0.00765958 0.0223181
-0.00578218 0.00646521 -0.0139165
-1.72435e-269 3.32423e-266 -2.57091e-12
0.0436989 -0.0855839 0.011389
0.00495856 0.0103709 0.00693162
-3.62737e-15 3.15669e-14 -1.0013e-13
1.04913e-09 0.0290213 0.00165886
-0.01453 -0.0552134 0.0073017
0.00538373 0.0071585 0.012914
0.0117239 0.0227708 -0.00283215
0.00646024 0.0122211 -0.00436675
0.000327016 -0.0025503 -0.00270253
0.000532037 -0.0140065 0.019526
-0.000501524 -0.0062308 0.00596567
0.00176034 0.0083574 0.00808244
0.00190075 0.0108013 -0.0160575
-0.00272037 0.000844867 -0.00296652
-0.00050761 -0.0245119 0.003447
5.79979e-05 0.0240651 -0.0010443
0.04059 -0.0716721 0.0789974
0.000793807 0.0209686 -0.00126271
-0.000275819 0.00512711 -0.00547947
0.0662481 -0.088023 0.00183512
0.000916642 0.00779909 -0.0217581
0.0242833 -0.048523 -0.049423
-0.000397843 -0.016593 -0.0170044
-0.000382331 -0.00128673 -0.000748085
0.0355157 0.0267219 0.0226824
0.000250982 -0.0052529 -0.0219372
2.38123e-06 0.0287346 0.0045516
0.00102767 0.0164497 0.0150892
0.00255969 -0.00157528 -0.017976
-1.63507e-14 -6.77226e-14 -1.91474e-13
0.00865895 0.0236867 0.0128768
0.000874924 -0.019461 0.0118594
-0.00138758 -0.00924957 -0.00889331
0.000365587 -0.0025013 -0.00241683
-0.00145116 -2.12823e-05 -0.000884489
0.179822 -0.208293 -0.0767255
0.000930571 -0.0229164 0.00259492
-0.00451273 -0.0031308 -0.00460622
-7.6266e-05 0.000370621 -0.000986221
-0.00309261 -0.00419259 0.000611012
-0.00120226 -0.00280412 0.00145222
0.00567111 0.00621191 -0.00901308
0.013717 0.017663 -0.00587263
0.154031 -0.193099 0.138805
0.20531 -0.101543 0.121656
-0.00159899 0.00194668 -0.013732
0.0142837 -0.00552266 -0.0121979
0.00129182 0.0233019 -0.00743048
0.00356572 -0.0152677 -0.00866163
0.0166701 0.00610856 0.00362863
-0.0196723 -0.00936619 -0.0184068
0.00974752 -0.00897873 0.00336011
0.000220633 0.0237127 0.00616048
-0.0171239 0.0208732 -0.0351683
-0.0166766 -0.0397326 -0.101817
0.00807831 0.0247819 -0.0221614
-0.0111781 0.0100129 -0.0204118
-0.00090306 0.0184686 0.00939854
-0.000782339 0.00166009 -0.000421541
-0.0450878 -0.021763 0.076386
0.0410584 0.0297232 -0.0306731
0.000906595 -0.0183764 -0.0103018
0.125645 -0.0647307 0.0410228
0.00289632 0.0192172 -0.00274477
-5.13052e-06 0.02892 -0.00201778
0.000505379 0.00681232 -0.0054462
0.00755191 0.00482885 0.00819439
0.00374046 -0.0176598 -0.0444024
0.00200116 -0.0008393 -0.000289941
9.7017e-317 -9.68243e-317 -1.69736e-12
0.00259697 0.00431888 0.00398157

VECTORS force float
-9.89437e-07 1.32926e-05 1.96786e-05
1.02326e-06 1.19436e-06 -2.79821e-06
9.39036e-07 -1.70916e-07 7.04406e-07
5.09172e-07 -9.0456e-07 6.57937e-07
6.32175e-06 4.68718e-07 -1.14838e-06
2.41018e-08 -1.31832e-07 3.58173e-08
0.468121 -0.816888 0.175094
8.21474e-10 7.62848e-09 1.41323e-08
2.82293e-07 -5.08194e-08 2.49432e-07
-2.87671e-07 -5.05004e-07 -3.42063e-07
-6.0611e-06 -5.33803e-06 7.93566e-06
0.0 0.0 -1.43822e-06
0.0 0.0 -1.43822e-06
0.0 0.0 -1.43822e-06
-2.21477e-06 -6.79872e-07 -1.23461e-06
8.1551e-07 -6.18641e-06 -1.64659e-06
2.21667e-06 -4.67546e-07 1.21663e-06
-3.31245e-09 -6.37161e-09 -1.50568e-08
0.0 0.0 -1.43822e-06
6.88214e-22 2.32934e-21 -1.27055e-21
3.29529e-09 1.70893e-08 -2.21873e-08
9.72254e-07 -1.25577e-07 4.85151e-07
-8.67117e-07 3.79793e-07 5.69799e-07
3.11919e-10 5.0893e-09 -1.94927e-08
-5.33141e-19 -4.18223e-21 2.56227e-20
1.96424e-07 6.41806e-08 -8.13005e-07
2.43847e-07 2.49933e-07 2.78826e-07
-4.21357e-07 -2.65228e-07 1.02684e-06
3.64926e-06 -3.32491e-06 3.57819e-06
7.34806e-07 -4.1416e-07 -4.23622e-07
-5.33091e-08 -6.84398e-08 -4.24383e-08
-6.58101e-09 -1.55507e-08 1.01078e-08
8.68147e-10 -2.39563e-08 3.97768e-08
-2.38358e-10 2.53256e-08 2.85828e-09
-8.73658e-07 -3.17383e-05 -3.2251e-06
-6.69809e-09 7.48173e-08 3.86679e-08
-2.64877e-08 -3.48431e-09 -4.48623e-08
-3.17658e-08 1.01651e-08 -4.56826e-08
0.0 0.0 -1.43822e-06
0.0114431 0.047167 0.00214368
-2.90169e-07 -6.42011e-07 -1.38216e-06
-4.45835e-09 -1.56061e-08 1.7252e-08
2.40875e-21 -1.11173e-21 4.23516e-22
-4.00076e-07 2.13538e-07 2.38867e-07
5.03137e-12 1.80691e-12 1.82782e-12
0.0 0.0 -1.43822e-06
-2.53183e-20 -7.94093e-21 -2.11758e-22
-1.19207e-06 -1.10146e-07 1.04927e-06
0.0 0.0 -1.43822e-06
-1.78472e-20 -2.32405e-20 -4.23516e-21
0.0 0.0 -1.43822e-06
-5.51903e-09 5.94229e-08 -1.22107e-09
8.73659e-07 3.173e-05 1.7651e-06
2.7549e-09 2.55847e-08 -1.15405e-07
-1.46128e-05 -7.42842e-06 -1.05192e-05
0.0 0.0 -1.43822e-06
-4.07395e-07 1.68223e-06 -1.39189e-06
0.0 -1.38518e-20 0.0
0.253618 0.753811 -0.197316
-4.50457e-07 3.40095e-08 1.30281e-06
-2.56972e-09 -8.82763e-09 1.54448e-08
-5.50205e-07 1.12326e-07 -1.15757e-07
1.21042e-06 3.26866e-07 -5.44639e-07
5.31662e-06 2.68405e-06 3.79265e-06
-2.54127e-07 -2.36651e-08 -1.88649e-08
1.69957e-06 -1.36128e-05 4.11355e-06
0.0 0.0 -1.43822e-06
-2.0814e-08 -5.52919e-09 1.81936e-08
4.37413e-21 1.05879e-22 0.0
-5.61981e-08 1.74568e-08 -3.2232e-08
-2.22672e-07 1.15315e-07 -1.41654e-06
6.87082e-06 1.02747e-05 -7.62214e-06
9.23795e-21 1.146e-18 0.0
0.0 0.0 -1.43822e-06
-2.99153e-09 4.95137e-10 1.87021e-08
3.39603e-07 -2.90919e-07 -2.16051e-07
0.0 0.0 -1.43822e-06
-2.22214e-20 1.76818e-20 3.59989e-21
-2.99241e-20 -1.42937e-21 1.05879e-21
-7.65003e-08 -2.08833e-08 -1.07066e-07
-1.81744e-07 1.35845e-06 -9.53626e-07
-2.46623e-05 1.84775e-05 5.17268e-06
0.0 0.0 -1.43822e-06
-6.63157e-07 2.39825e-08 -3.19752e-07
8.85074e-07 5.87197e-07 -1.19644e-07
1.73355e-06 4.48647e-07 -3.88353e-07
4.01617e-07 1.35387e-07 2.13096e-07
6.15453e-08 -6.22473e-08 -3.85582e-08
-1.00217e-07 -1.46562e-06 1.39023e-06
-8.12336e-15 -1.16216e-10 -2.34539e-08
2.33894e-09 8.57628e-08 -3.30762e-07
7.08597e-08 -7.88115e-09 -2.88608e-08
0.0 0.0 -1.43822e-06
1.77242e-06 -3.23295e-07 7.93085e-07
4.23923e-07 6.37852e-07 -5.54267e-07
7.00413e-09 4.18458e-07 1.86699e-07
1.24772e-08 -3.56081e-08 -3.36105e-08
-1.88072e-07 6.35006e-07 -1.93433e-06
3.61166e-07 -1.6461e-07 -8.07553e-07
0.0 0.0 -1.43822e-06
8.66241e-07 4.98014e-07 -1.50862e-06
0.0 0.0 -1.43822e-06
-1.01787e-07 4.91014e-07 7.62649e-08
4.7375e-07 2.52619e-07 6.28764e-08
1.48506e-07 -5.0144e-07 4.05684e-07
-5.10767e-20 4.96507e-20 -8.47033e-22
0.0 0.0 -1.43822e-06
-9.80239e-07 -9.82171e-08 -8.5523e-07
-9.62895e-08 -6.30315e-07 2.87803e-06
0.0 0.0 -1.43822e-06
-5.28106e-07 4.35177e-07 -1.40036e-06
1.35319e-10 4.58805e-09 -1.83115e-08
-3.10097e-08 1.61657e-07 -2.07812e-07
1.34542e-12 8.19586e-10 -2.16432e-08
-1.39591e-07 4.89526e-07 -1.37415e-06
-1.76201e-07 -1.24811e-07 3.19015e-07
3.34184e-08 -3.97947e-08 -6.99292e-08
-2.1009e-07 -1.88458e-07 1.14435e-07
-3.46089e-08 -3.86102e-07 -1.29875e-07
9.87612e-07 -8.30576e-07 -5.31338e-06
1.32217e-07 7.51494e-08 -1.17782e-07
-1.09516e-08 1.28116e-08 1.41175e-09
3.85241e-07 2.71934e-07 6.62245e-07
1.84604e-06 6.38791e-06 -7.42829e-06
-8.91727e-06 -2.42651e-06 -1.23493e-05
-2.34101e-07 1.16845e-07 1.73549e-07
-1.77608e-07 -5.36171e-08 -1.77905e-07
0.0 0.0 -1.43822e-06
-3.26365e-06 -1.06939e-05 1.05955e-05
-6.08805e-22 -1.94421e-20 -2.11758e-22
-4.19211e-09 -1.26308e-08 1.13842e-08
4.91359e-07 -5.17963e-07 1.58898e-06
-3.71544e-05 -3.98053e-06 -6.75376e-06
7.28087e-08 -3.61771e-07 -8.35444e-07
-1.60449e-08 4.16768e-08 -6.44393e-08
1.36332e-07 -4.4126e-08 -5.82531e-07
-3.02725e-272 -8.83902e-270 0.0
0.0 0.0 -1.43822e-06
-6.01068e-09 -7.73635e-08 -6.2273e-08
2.56472e-19 4.01282e-20 2.32934e-21
2.26159e-12 1.0658e-09 -2.32803e-08
0.0 0.0 -1.43822e-06
3.46065e-07 -3.66864e-07 -3.60632e-08
0.0 0.0 -1.43822e-06
-3.09364e-07 6.99713e-07 -5.73792e-07
4.06684e-09 -3.01829e-07 -8.19532e-07
-4.02343e-09 1.37877e-08 1.1411e-08
-5.35922e-06 5.12392e-06 -8.04513e-07
-8.23981e-08 -1.08993e-07 -8.07205e-08
2.11246e-06 -1.94495e-06 3.33134e-06
3.91425e-07 -1.02653e-07 4.96135e-07
4.78236e-09 -9.00393e-09 1.30328e-08
-2.71877e-08 -1.96597e-07 -2.59958e-08
0.0 0.0 -1.43822e-06
-1.42127e-07 5.96408e-07 -3.60381e-08
2.58024e-06 -7.3903e-07 3.5823e-07
0.0 0.0 -1.43822e-06
-7.10338e-09 -6.90745e-09 -2.48935e-08
0.0 0.0 -1.43822e-06
-4.97762e-09 4.15357e-08 9.52816e-08
8.79817e-07 2.22632e-07 6.86707e-07
0.0 0.0 -1.43822e-06
3.04056e-06 -1.52018e-06 -7.53066e-09
-2.23156e-09 -4.80138e-08 -2.86281e-08
9.44813e-10 -1.20292e-08 -3.13662e-08
1.06367e-06 2.00878e-06 -1.38613e-06
-2.02679e-19 5.02396e-20 2.96462e-21
0.0 0.0 -1.43822e-06
-1.17517e-08 -1.84744e-08 2.3418e-08
0.0 0.0 -1.43822e-06
6.51019e-07 2.6087e-07 -6.96605e-08
7.61207e-08 -7.89505e-08 1.0122e-07
0.0 0.0 -1.43822e-06
-5.40701e-09 -1.46921e-08 1.52772e-08
2.08979e-09 7.46409e-09 -1.38008e-06
2.11142e-07 -1.40323e-07 1.72858e-08
-6.12431e-07 2.79725e-07 3.80093e-07
9.49683e-07 1.13835e-06 1.53371e-06
2.84721e-06 -5.55e-06 6.5287e-06
7.20476e-06 -2.88332e-06 5.26587e-06
0.0 0.0 -1.43822e-06
0.0 0.0 -1.43822e-06
0.0 0.0 -1.43822e-06
7.51312e-07 -4.0297e-07 7.18553e-08
0.0 0.0 -1.43822e-06
-1.93875e-08 -6.08573e-08 -2.0753e-08
2.27073e-07 1.91656e-07 5.80122e-07
0.0 0.0 -1.43822e-06
-4.00118e-06 -5.12987e-06 2.04272e-06
2.9593e-08 3.49741e-07 -3.30046e-07
0.0 0.0 -1.43822e-06
-1.10968e-07 -3.45834e-07 -8.59772e-07
0.0 0.0 -1.43822e-06
0.0 0.0 -1.43822e-06
1.32769e-08 1.49953e-07 5.53824e-08
-2.1378e-08 3.54614e-08 -1.07694e-08
0.0 0.0 -1.43822e-06
0.0 0.0 -1.43822e-06
-3.46342e-10 -1.21849e-08 1.62065e-08
0.0 0.0 -1.43822e-06
-2.65729e-07 1.0941e-06 -1.15555e-07
2.85099e-09 3.74191e-09 -2.37003e-08
-1.28481e-06 -1.22965e-06 -1.86351e-06
3.16808e-07 4.97042e-08 2.69117e-07
0.0 0.0 -1.43822e-06
-1.81981e-05 3.9414e-05 3.29222e-05
0.0 0.0 0.0
-4.61576e-08 -1.38358e-07 -1.28134e-07
