# vtk DataFile Version 3.0
LIGGGHTS particles timestep 12000000
ASCII
DATASET POLYDATA
POINTS 139 float
0.0214286 0.0234879 0.0126402
0.0263718 0.0206656 0.0155246
0.0365993 0.022563 0.00907564
0.00550069 0.0060772 0.0435188
0.0215758 0.0160539 0.0149295
0.0211256 0.0164957 0.0159643
0.0203632 0.0209777 0.0155209
0.0329791 0.0178319 0.0155789
0.0284204 0.017496 0.00598401
0.0219671 0.0152902 0.0138507
0.0222899 0.0166808 0.0174472
0.027401 0.0159426 0.0144842
0.103009 0.0215368 0.00628499
0.0280491 0.0148278 0.0120387
0.0228587 0.0168503 0.0153754
0.0208108 0.0234747 0.0118541
0.0413655 0.0203437 0.00598829
0.0282397 0.0147735 0.0112257
0.0381905 0.0210785 0.0151213
0.018699 0.0173807 0.00755221
0.0356491 0.019008 0.00729304
0.0198157 0.0140053 0.0129616
0.0315173 0.0231432 0.0128373
0.000372837 0.0168738 0.0435188
0.0371023 0.0233608 0.011097
0.036959 0.0231812 0.0102711
0.0243279 0.0217972 0.0083093
0.026066 0.0213923 0.0150854
0.0471153 0.0194898 0.00590197
0.043098 0.018187 0.00597143
0.0198143 0.0236109 0.0138762
0.0403048 0.0182839 0.00601097
0.0244499 0.0221904 0.0157171
0.0341845 0.0148057 0.0115076
0.0227197 0.0235293 0.014247
0.0309138 0.0231454 0.0100016
0.0336864 0.0153866 0.0137443
0.0274403 0.0176932 0.00600904
0.0212958 0.0134518 0.0125083
0.0276879 0.0154215 0.0136702
0.0233787 0.0161283 0.0148624
0.0162296 0.0236947 0.013937
0.0293364 0.0161694 0.0147037
0.0339765 0.0148806 0.0125104
0.0338987 0.0217687 0.00645751
0.0205902 0.0199069 0.0158616
0.0345703 0.0181398 0.00594666
0.0169933 0.0239657 0.0133582
0.0332166 0.0168216 0.0151913
0.0295597 0.0179899 0.00591954
0.0187827 0.0139989 0.0129722
0.0195232 0.0230721 0.010065
0.0298675 0.019817 0.00727155
0.0333807 0.0196475 0.0058632
0.0332328 0.0186195 0.00582798
0.0317619 0.0226132 0.0138787
0.0489393 0.0173506 0.00617772
0.0235012 0.0182402 0.00728251
0.0190655 0.0233684 0.01099
0.0194012 0.0178691 0.0157217
0.0187316 0.0223882 0.00887476
0.0807469 0.0205455 0.0180588
0.035377 0.0175944 0.00742493
0.0258953 0.0220515 0.0144769
0.030129 0.020821 0.00756275
0.0344962 0.014975 0.0102234
0.0359822 0.0203988 0.00753679
0.032669 0.019096 0.0158279
0.0224826 0.0209844 0.024088
0.0287823 0.0155342 0.00896963
0.0203497 0.0233924 0.0158159
0.0179378 0.0240694 0.0130568
0.0691092 0.0175584 0.00599029
0.0207513 0.0140409 0.013313
0.0226892 0.0156622 0.0143733
0.0228875 0.0152056 0.0157654
0.0218563 0.022215 0.014949
0.026609 0.0193337 0.0158232
0.0256516 0.0227963 0.0135705
0.0235238 0.0150507 0.0148888
0.0239134 0.019485 0.00585235
0.0210205 0.0233283 0.0140987
0.0241785 0.0155694 0.0154417
0.0324147 0.01939 0.00575332
0.0180398 0.014259 0.0135891
0.0319315 0.0220378 0.0146347
0.0161418 0.014891 0.0130645
0.0292315 0.0168904 0.00774396
0.0223064 0.0202854 0.0157785
0.0256812 0.0172341 0.00627604
0.0239574 0.0201127 0.00742584
0.0174934 0.0235876 0.0141371
0.0258016 0.00197399 0.0435188
0.0254812 0.0232183 0.0126515
0.016958 0.0143167 0.0131267
0.0429143 0.0204304 0.00600353
0.023791 0.022757 0.0152198
0.0212233 0.021479 0.0152235
0.0141169 0.022357 0.01457
0.0299203 0.01951 0.00581641
0.0210105 0.0141371 0.0145001
0.0248087 0.0167438 0.0162263
0.0253805 0.0233763 0.0118143
0.0215459 0.0186603 0.01593
0.0170506 0.015159 0.0136575
0.0227097 0.0146315 0.0144864
0.0222759 0.0212203 0.0258923
0.0217014 0.0147988 0.0146393
0.0202938 0.0209721 0.006131
0.0232891 0.0178078 0.0165656
0.0322512 0.02096 0.0153056
0.0679796 0.0197852 0.00574052
0.00795985 0.0177067 0.00608549
0.0188457 0.0229623 0.0098601
0.0199517 0.023374 0.0110451
0.0311862 0.0233819 0.0115447
0.0219459 0.014869 0.0129719
0.0289431 0.0160628 0.00841373
0.0330286 0.0205577 0.0060926
0.0167199 0.0200051 0.00596898
0.0193259 0.0143275 0.0137716
0.0263548 0.0226476 0.0137073
0.0179143 0.0146189 0.0119429
0.0228216 0.0229236 0.0150388
0.0199155 0.014734 0.0145046
0.0316088 0.0199729 0.00590544
0.0349302 0.0160115 0.00842746
0.0321304 0.018221 0.00605696
0.0193233 0.0207362 0.015561
0.0157449 0.0153014 0.0138854
0.0269495 0.0179961 0.0156253
0.0233097 0.0171991 0.00760699
0.0218133 0.0238571 0.0145275
0.030379 0.0219491 0.0082572
0.0198754 0.00109317 0.0435188
0.0250592 0.0214866 0.0161596
0.0218579 0.0169419 0.0154305
0.0274638 0.003903 0.0435188
0.0210808 0.0176907 0.0157421

VERTICES 139 278
1 0
1 1
1 2
1 3
1 4
1 5
1 6
1 7
1 8
1 9
1 10
1 11
1 12
1 13
1 14
1 15
1 16
1 17
1 18
1 19
1 20
1 21
1 22
1 23
1 24
1 25
1 26
1 27
1 28
1 29
1 30
1 31
1 32
1 33
1 34
1 35
1 36
1 37
1 38
1 39
1 40
1 41
1 42
1 43
1 44
1 45
1 46
1 47
1 48
1 49
1 50
1 51
1 52
1 53
1 54
1 55
1 56
1 57
1 58
1 59
1 60
1 61
1 62
1 63
1 64
1 65
1 66
1 67
1 68
1 69
1 70
1 71
1 72
1 73
1 74
1 75
1 76
1 77
1 78
1 79
1 80
1 81
1 82
1 83
1 84
1 85
1 86
1 87
1 88
1 89
1 90
1 91
1 92
1 93
1 94
1 95
1 96
1 97
1 98
1 99
1 100
1 101
1 102
1 103
1 104
1 105
1 106
1 107
1 108
1 109
1 110
1 111
1 112
1 113
1 114
1 115
1 116
1 117
1 118
1 119
1 120
1 121
1 122
1 123
1 124
1 125
1 126
1 127
1 128
1 129
1 130
1 131
1 132
1 133
1 134
1 135
1 136
1 137
1 138

POINT_DATA 139
SCALARS id int 1
LOOKUP_TABLE default
2
7
8
9
13
16
17
21
23
24
26
27
28
29
30
31
33
35
37
38
39
41
42
43
45
50
51
52
53
62
64
65
66
67
70
73
78
79
82
83
84
85
90
92
93
97
98
99
101
103
104
106
108
109
111
113
115
116
118
120
121
123
124
128
129
134
140
141
142
143
146
149
152
154
155
158
159
160
162
163
166
167
168
169
176
177
178
179
180
182
188
189
190
191
192
193
198
200
203
205
206
207
209
212
213
214
217
219
221
225
228
234
235
238
241
242
244
250
251
255
258
260
262
264
265
267
268
275
279
281
282
284
289
290
293
295
296
297
299

SCALARS type int 1
LOOKUP_TABLE default
1
1
1
1
1
1
1
1
1
1
1
1
1
1
1
1
1
1
1
1
1
1
1
1
1
1
1
1
1
1
1
1
1
1
1
1
1
1
1
1
1
1
1
1
1
1
1
1
1
1
1
1
1
1
1
1
1
1
1
1
1
1
1
1
1
1
1
1
1
1
1
1
1
1
1
1
1
1
1
1
1
1
1
1
1
1
1
1
1
1
1
1
1
1
1
1
1
1
1
1
1
1
1
1
1
1
1
1
1
1
1
1
1
1
1
1
1
1
1
1
1
1
1
1
1
1
1
1
1
1
1
1
1
1
1
1
1
1
1

SCALARS radius float 1
LOOKUP_TABLE default
0.0005
0.0005
0.0005
0.0005
0.0005
0.0005
0.0005
0.0005
0.0005
0.0005
0.0005
0.0005
0.0005
0.0005
0.0005
0.0005
0.0005
0.0005
0.0005
0.0005
0.0005
0.0005
0.0005
0.0005
0.0005
0.0005
0.0005
0.0005
0.0005
0.0005
0.0005
0.0005
0.0005
0.0005
0.0005
0.0005
0.0005
0.0005
0.0005
0.0005
0.0005
0.0005
0.0005
0.0005
0.0005
0.0005
0.0005
0.0005
0.0005
0.0005
0.0005
0.0005
0.0005
0.0005
0.0005
0.0005
0.0005
0.0005
0.0005
0.0005
0.0005
0.0005
0.0005
0.0005
0.0005
0.0005
0.0005
0.0005
0.0005
0.0005
0.0005
0.0005
0.0005
0.0005
0.0005
0.0005
0.0005
0.0005
0.0005
0.0005
0.0005
0.0005
0.0005
0.0005
0.0005
0.0005
0.0005
0.0005
0.0005
0.0005
0.0005
0.0005
0.0005
0.0005
0.0005
0.0005
0.0005
0.0005
0.0005
0.0005
0.0005
0.0005
0.0005
0.0005
0.0005
0.0005
0.0005
0.0005
0.0005
0.0005
0.0005
0.0005
0.0005
0.0005
0.0005
0.0005
0.0005
0.0005
0.0005
0.0005
0.0005
0.0005
0.0005
0.0005
0.0005
0.0005
0.0005
0.0005
0.0005
0.0005
0.0005
0.0005
0.0005
0.0005
0.0005
0.0005
0.0005
0.0005
0.0005

SCALARS mass float 1
LOOKUP_TABLE default
1.46608e-07
1.46608e-07
1.46608e-07
1.46608e-07
1.46608e-07
1.46608e-07
1.46608e-07
1.46608e-07
1.46608e-07
1.46608e-07
1.46608e-07
1.46608e-07
1.46608e-07
1.46608e-07
1.46608e-07
1.46608e-07
1.46608e-07
1.46608e-07
1.46608e-07
1.46608e-07
1.46608e-07
1.46608e-07
1.46608e-07
1.46608e-07
1.46608e-07
1.46608e-07
1.46608e-07
1.46608e-07
1.46608e-07
1.46608e-07
1.46608e-07
1.46608e-07
1.46608e-07
1.46608e-07
1.46608e-07
1.46608e-07
1.46608e-07
1.46608e-07
1.46608e-07
1.46608e-07
1.46608e-07
1.46608e-07
1.46608e-07
1.46608e-07
1.46608e-07
1.46608e-07
1.46608e-07
1.46608e-07
1.46608e-07
1.46608e-07
1.46608e-07
1.46608e-07
1.46608e-07
1.46608e-07
1.46608e-07
1.46608e-07
1.46608e-07
1.46608e-07
1.46608e-07
1.46608e-07
1.46608e-07
1.46608e-07
1.46608e-07
1.46608e-07
1.46608e-07
1.46608e-07
1.46608e-07
1.46608e-07
1.46608e-07
1.46608e-07
1.46608e-07
1.46608e-07
1.46608e-07
1.46608e-07
1.46608e-07
1.46608e-07
1.46608e-07
1.46608e-07
1.46608e-07
1.46608e-07
1.46608e-07
1.46608e-07
1.46608e-07
1.46608e-07
1.46608e-07
1.46608e-07
1.46608e-07
1.46608e-07
1.46608e-07
1.46608e-07
1.46608e-07
1.46608e-07
1.46608e-07
1.46608e-07
1.46608e-07
1.46608e-07
1.46608e-07
1.46608e-07
1.46608e-07
1.46608e-07
1.46608e-07
1.46608e-07
1.46608e-07
1.46608e-07
1.46608e-07
1.46608e-07
1.46608e-07
1.46608e-07
1.46608e-07
1.46608e-07
1.46608e-07
1.46608e-07
1.46608e-07
1.46608e-07
1.46608e-07
1.46608e-07
1.46608e-07
1.46608e-07
1.46608e-07
1.46608e-07
1.46608e-07
1.46608e-07
1.46608e-07
1.46608e-07
1.46608e-07
1.46608e-07
1.46608e-07
1.46608e-07
1.46608e-07
1.46608e-07
1.46608e-07
1.46608e-07
1.46608e-07
1.46608e-07
1.46608e-07
1.46608e-07
1.46608e-07
1.46608e-07
1.46608e-07

VECTORS velocity float
0.00140048 -0.00194655 -0.00176649
0.00161848 0.00663006 -0.000963624
0.000885907 -0.0136404 -0.0177608
-9.6889e-317 9.7308e-317 1.79684e-12
-0.0105613 0.0166228 0.0759881
0.00177956 0.0240678 0.0128924
0.00897108 0.0122307 -0.0112869
0.00013302 0.0247779 0.00773343
-1.22717e-17 4.02478e-17 9.84382e-17
0.00335781 0.00813207 0.0144867
0.205632 0.48637 0.683241
0.00283026 3.31792e-05 0.00205836
-8.28504e-15 7.31798e-14 -1.96614e-13
0.00112792 0.00411891 0.0198934
0.0132851 0.0315377 0.0170638
-0.000119338 0.000431978 -0.000622482
-1.86874e-15 -1.6856e-14 6.31222e-14
0.00224527 -0.00123964 0.0143553
0.00195955 0.00721602 -0.00508151
0.000356327 -0.000594787 0.000945331
-7.82411e-05 -0.0265189 -0.00187772
-0.000298445 0.00125112 -0.00193584
0.000606297 0.0122612 -0.0242291
9.69542e-317 9.69279e-317 2.67039e-12
0.0010117 -0.00124758 -0.0236949
0.000976915 -0.00724183 -0.0202033
0.000591299 -0.0186893 -0.0149967
0.00198443 0.0166273 -0.0124252
-3.75987e-15 8.10678e-15 8.41354e-14
-1.10807e-14 3.18864e-14 1.75218e-13
0.0559869 0.00163084 -0.0390531
9.40391e-16 -8.55122e-15 -2.18641e-14
-0.00382989 0.00269014 -0.00253066
-0.000386598 -0.00161389 0.0260016
-0.00461926 0.000388248 -0.00228426
0.000348896 -0.00830508 -0.0232258
6.10431e-05 0.0127946 0.0226001
-5.79867e-18 -1.12093e-18 1.05111e-16
3.90344e-17 -4.74677e-17 -4.92841e-17
0.000520241 0.012694 0.0225772
-0.000376412 0.0202304 0.0176826
0.000287523 0.00316317 -0.00161412
0.000191244 0.0100116 0.0102182
0.00119842 0.00576407 0.0169759
1.33072e-16 4.91751e-15 -1.6754e-14
0.000501705 0.0243756 -0.00482789
-1.76061e-16 -1.89249e-15 -5.6305e-15
0.00045667 0.000580244 -0.000793767
0.000568918 0.0179875 0.00984268
-1.73671e-14 5.8533e-14 1.441e-13
-0.00378206 0.00010677 -0.000169823
0.000264342 -0.00299303 -0.00930913
0.000169353 -0.0246131 -0.0048473
-1.33149e-15 -7.63937e-15 2.96069e-14
-1.71632e-15 -1.80438e-14 -5.36924e-14
0.000446673 0.0128127 -0.0200439
-4.20613e-15 -1.50453e-14 -2.25948e-13
0.000137296 -0.0249079 0.00454415
0.00090409 -0.00285651 -0.0148192
9.78299e-05 0.027793 0.00762767
0.00597914 -0.00531323 -0.0112083
1.69799e-14 -9.47457e-14 -5.1088e-13
0.000812054 -0.01974 0.00782923
0.000348319 0.0170877 -0.0175457
0.00321379 -0.000212289 -0.000754973
0.000933352 -0.00575239 0.0216027
0.000555633 -0.0232032 -0.00721345
0.000670022 0.0171794 0.000577822
0.181265 -0.210229 0.962444
0.00292796 -0.00292375 0.00125958
-0.0597647 -0.0567459 0.163103
0.000216406 -0.000359053 3.36261e-05
6.10908e-15 -6.49691e-14 -1.71889e-13
0.0138084 0.0208738 -0.0411823
0.00202866 0.0135972 0.016925
0.0406434 0.0843701 0.0131433
0.0718771 -0.0234119 0.0457594
0.000379911 0.024126 -0.00165865
-3.81405e-05 0.0148605 -0.0224107
-0.00619264 -0.0249159 0.0186335
-2.60567e-14 -5.34509e-14 -1.7524e-13
-0.0192278 0.00782444 -0.00669781
0.00760645 0.00406411 0.00356788
3.24609e-15 1.862e-14 -7.21585e-14
-0.0315177 -0.000215192 -0.0334191
0.000820046 0.0156319 -0.0134302
0.00155729 -0.000566226 -0.00104042
0.00103091 -0.0188553 0.0118164
5.6743e-10 0.02328 -0.00647902
-3.41712e-14 -7.00661e-14 -2.29668e-13
-3.12026e-05 -0.0248925 -0.00981881
0.00991894 0.00336686 -0.00704154
9.68647e-317 -9.75393e-317 -2.57091e-12
0.000786113 0.0063598 -0.0222367
0.00306582 0.00115557 -0.00514792
-3.4131e-16 2.93924e-15 -9.32781e-15
-0.00490911 0.00424547 -0.0039103
0.0522388 0.0111663 -0.0124332
0.0047296 0.0529464 -0.0270924
-5.83146e-15 5.94911e-17 -6.84162e-14
0.000309528 0.00241107 -0.00160009
-6.31628e-10 0.0260462 0.0129532
9.50174e-05 0.00254732 -0.0251058
2.93023e-10 0.0240181 0.00226439
0.00321464 -0.00195989 -0.000258838
0.00890031 0.000432413 0.033638
0.237332 -0.172023 1.06619
0.0237461 -0.0181351 0.0132045
-1.81475e-14 8.14013e-15 -1.66091e-13
-7.73463e-08 0.0281449 0.00673807
0.000199433 0.0228274 -0.0110563
7.36356e-17 -2.37234e-15 8.6613e-15
-1.61776e-14 -6.77136e-14 -1.91492e-13
0.0013928 -0.00695843 -0.0171037
0.000220336 -0.00280079 -0.0210588
0.000454364 0.000650126 -0.0246325
0.00767201 -0.00422433 0.0126042
0.00154962 -0.0106264 0.0107196
1.82143e-15 4.88101e-14 -1.66326e-13
-1.72961e-14 -7.00252e-15 1.42686e-13
-0.0102387 -0.00159397 -0.00671756
0.000487286 0.0160002 -0.0213608
1.78989e-05 -0.00148399 0.00246302
-0.00492298 0.00428399 -0.00717565
-0.0386395 -0.0398018 -0.0541858
-2.05106e-15 -5.51982e-14 1.88094e-13
0.000636384 -0.0157382 0.0163154
1.89892e-14 7.41081e-14 1.81202e-13
-3.50923e-06 0.0247986 -0.0102827
0.00568771 0.000430901 0.000465235
-9.59456e-05 0.0248427 0.00951935
0.00151392 -0.0190917 0.00843493
0.00546683 0.0228206 0.0235437
0.000241035 -0.0185615 -0.0175558
9.74462e-317 9.69071e-317 1.36007e-12
-0.0116036 0.0139769 -0.00799267
0.00996787 0.113711 0.0666707
9.7017e-317 -9.68243e-317 -1.69736e-12
0.000603328 0.0230903 0.00762289

VECTORS force float
2.0688e-08 -4.39689e-09 7.64977e-09
1.67652e-08 -1.40817e-07 5.3528e-08
-2.04676e-09 -6.50071e-08 -5.34111e-08
0.0 0.0 0.0
0.0 0.0 -1.43822e-06
2.57305e-07 1.98691e-08 -2.89004e-07
0.0 0.0 -1.43822e-06
-5.74437e-10 1.63355e-08 -1.21139e-08
0.0 -3.30872e-23 0.0
1.23621e-05 -3.99364e-08 -5.14789e-06
0.0 0.0 -1.43822e-06
1.2095e-08 -1.18332e-07 -1.22258e-07
7.37481e-19 5.62748e-20 -4.44692e-21
-4.5467e-09 1.19352e-08 2.21788e-08
-6.96131e-07 -1.07571e-06 -5.0369e-07
-2.07091e-09 8.25721e-09 -1.10063e-08
1.42871e-20 1.74701e-21 1.05879e-21
-1.52107e-08 -2.40729e-08 -8.6734e-09
-1.26575e-08 3.09404e-08 2.3261e-08
-4.81118e-09 -9.20044e-09 -5.31391e-09
4.53599e-10 -3.00813e-09 1.62904e-08
-2.1444e-08 -1.80623e-07 4.36923e-08
1.93389e-08 -2.46362e-08 -1.15778e-08
0.0 0.0 0.0
-2.57346e-10 -1.07983e-08 -1.10235e-08
-1.00269e-08 -2.31706e-08 -2.65592e-08
-3.22389e-09 -1.7833e-08 5.393e-09
1.68221e-08 -2.367e-08 -1.50312e-08
-2.67609e-20 -1.3129e-20 0.0
1.70598e-20 9.58206e-21 -6.35275e-22
0.0 0.0 -1.43822e-06
8.60268e-23 -3.81165e-21 1.69407e-21
3.9031e-07 1.29402e-06 -1.02116e-06
5.57474e-09 1.72211e-08 6.04771e-09
9.92947e-07 2.10826e-06 2.33263e-06
-2.2702e-09 -1.85936e-08 -7.67556e-09
-1.19444e-09 1.7737e-08 -2.04219e-09
0.0 -6.61744e-24 0.0
0.0 0.0 -8.67362e-19
-2.67341e-08 2.99747e-08 5.0205e-08
5.11878e-07 1.41086e-06 1.09684e-06
1.73539e-06 4.33283e-07 -1.50222e-06
-9.24747e-10 -2.53114e-09 -1.7341e-08
-3.76371e-09 1.61572e-07 2.90265e-07
1.33232e-19 1.0535e-20 4.65868e-21
-3.83856e-10 -2.22367e-09 -2.00892e-08
-7.02773e-21 3.70577e-22 -2.11758e-22
-9.14274e-07 -1.5886e-06 1.24376e-06
3.50056e-08 1.24299e-07 -5.67814e-08
-1.39655e-19 -9.39148e-20 2.13876e-20
2.08471e-07 1.70699e-07 -2.80543e-07
-7.37963e-09 1.85724e-09 -5.0514e-08
-1.81129e-09 -1.14374e-08 1.37343e-08
-2.47492e-21 -1.05879e-22 -2.11758e-22
2.71977e-21 3.81165e-21 -1.48231e-21
-4.76296e-09 -4.43827e-09 -1.61891e-08
-1.58819e-22 -1.32349e-22 0.0
-7.4844e-10 -7.75148e-09 1.67815e-08
1.10378e-10 -3.34323e-08 -6.07623e-08
-6.91244e-10 8.26618e-09 -2.51274e-08
7.48626e-05 3.62867e-05 2.36881e-05
-9.0659e-21 -1.37643e-21 0.0
2.89814e-08 -2.80893e-07 2.72699e-07
-2.30931e-09 -5.40732e-09 -1.39369e-08
4.5908e-08 3.1886e-07 -1.22892e-07
-6.21116e-09 4.81917e-09 2.78466e-08
-3.15648e-09 -1.29951e-08 1.17152e-08
4.47383e-09 -2.53094e-07 -2.31595e-08
0.0 0.0 -1.43822e-06
4.53364e-08 7.55341e-08 8.68806e-09
0.0 0.0 -1.43822e-06
-1.17211e-06 -5.27009e-07 8.15521e-07
0.0 0.0 0.0
-4.24365e-08 2.835e-07 -6.68659e-07
6.80785e-06 -8.85629e-08 -2.08416e-06
0.0 0.0 -1.43822e-06
0.0 0.0 -1.43822e-06
-2.07449e-09 1.15221e-08 -1.61505e-08
-1.30401e-09 -1.21348e-08 -1.26909e-08
2.96373e-06 2.6951e-05 1.21654e-05
-1.06117e-19 4.85985e-20 1.90582e-21
0.0 0.0 -1.43822e-06
0.0 0.0 -1.43822e-06
4.69839e-21 1.58819e-22 2.11758e-22
-1.02375e-07 1.36311e-07 -1.08111e-06
7.49804e-09 -2.34339e-08 -5.08357e-09
-1.08241e-09 -1.99077e-08 3.96179e-08
-1.68454e-08 -7.27432e-08 8.49294e-08
7.99837e-16 -4.85273e-09 -1.8277e-08
-1.29702e-21 2.11758e-21 -4.23516e-22
1.01602e-09 -2.55512e-09 1.11583e-08
5.08358e-07 -1.01083e-06 1.03857e-06
0.0 0.0 0.0
-1.577e-09 -1.60216e-08 -1.21034e-08
-2.95291e-09 -5.72029e-09 2.41575e-08
-4.11605e-21 1.05879e-21 4.23516e-22
-1.67453e-07 3.50931e-07 -5.33975e-07
0.0 0.0 -1.43822e-06
0.0 0.0 -1.43822e-06
-1.79995e-21 1.48589e-20 2.11758e-22
1.37418e-06 2.12376e-06 2.98697e-06
-1.14322e-12 1.05671e-08 -2.07868e-08
-2.07994e-10 -1.12827e-08 -1.02191e-08
7.42729e-16 1.9186e-09 -1.87705e-08
6.4568e-09 -3.47744e-09 4.8457e-08
0.0 0.0 -1.43822e-06
0.0 0.0 -1.43822e-06
8.94088e-06 -5.20359e-06 -1.25482e-05
-1.64113e-21 2.71315e-21 4.23516e-22
-1.3802e-13 5.44115e-09 -2.27475e-08
-8.73483e-10 5.62345e-10 -1.82507e-08
2.96958e-21 3.17637e-22 0.0
-5.23374e-19 8.90973e-20 1.12232e-20
2.4714e-10 -1.69266e-08 1.89931e-10
-1.68363e-09 -1.5829e-08 -2.37519e-08
-1.07966e-09 -1.50573e-08 -1.20264e-08
-3.66412e-06 7.19409e-06 -1.0581e-05
2.6648e-08 5.04671e-08 -8.64608e-08
0.0 0.0 0.0
-1.13291e-20 6.07878e-20 1.69407e-21
1.6238e-08 -1.27373e-07 -3.05292e-07
-3.70159e-10 -8.86602e-09 -1.04796e-08
-1.4464e-09 -1.81636e-08 3.30911e-08
1.72493e-07 1.2491e-06 -1.16406e-06
1.17277e-07 -4.01466e-07 -2.77957e-07
-3.28722e-21 1.05879e-22 0.0
-5.61613e-09 5.53806e-10 2.22798e-08
-6.88214e-22 9.52912e-22 -2.11758e-22
1.79828e-13 -9.19872e-09 -2.2185e-08
-1.15036e-08 9.17961e-09 3.1615e-08
-2.52224e-09 9.60547e-10 -1.04032e-08
-1.23699e-08 1.00205e-08 7.3985e-09
0.0 0.0 -1.43822e-06
-3.12734e-10 -1.71625e-08 4.43722e-09
0.0 0.0 0.0
-3.55962e-09 4.6117e-09 -2.17629e-09
0.0 0.0 -1.43822e-06
0.0 0.0 0.0
-2.18791e-10 7.24075e-09 -1.78888e-08
