ITEM: TIMESTEP
200000
ITEM: NUMBER OF ATOMS
70
ITEM: BOX BOUNDS ff ff ff
-0.02 0.43
-0.02 0.06
-0.02 0.07
ITEM: ATOMS id type x y z vx vy vz fx fy fz radius mass 
1 1 0.0172428 0.0142616 0.0117607 0.0067704 -1.58233e-05 -0.00433556 -1.97216e-11 -2.99197e-11 9.48222e-11 5e-05 1.46608e-10 
2 1 0.020801 0.0185836 0.0162835 -1.98158e-09 0.0289218 0.00284555 -2.13344e-19 2.53953e-12 -2.56177e-11 5e-05 1.46608e-10 
3 1 0.0162799 0.0175749 0.023918 0 -0 -0.03 0 0 0 5e-05 1.46608e-10 
4 1 0.0230384 0.0201199 0.0227003 0 -0 -0.03 0 0 0 5e-05 1.46608e-10 
5 1 0.016199 0.0167701 0.0157262 -0.00126616 0.00210212 -0.000505081 -7.93039e-12 -9.15e-12 2.15762e-11 5e-05 1.46608e-10 
6 1 0.0199654 0.0156232 0.0206144 0 -0 -0.03 0 0 0 5e-05 1.46608e-10 
7 1 0.0148173 0.0212963 0.0157589 -8.17756e-06 0.0264152 -0.0139587 -4.21228e-13 2.18901e-11 -4.5999e-11 5e-05 1.46608e-10 
8 1 0.0167297 0.0161526 0.0236818 0 -0 -0.03 0 0 0 5e-05 1.46608e-10 
9 1 0.0232573 0.0232324 0.0097418 0.000808081 -0.0627576 -0.164813 0 0 -1.43822e-09 5e-05 1.46608e-10 
10 1 0.0156328 0.0224028 0.0150102 0 0 -0.260834 0 0 -1.43822e-09 5e-05 1.46608e-10 
11 1 0.020595 0.0201703 0.0245272 0 -0 -0.03 0 0 0 5e-05 1.46608e-10 
12 1 0.021697 0.023802 0.0124561 -0.00227391 -0.000956815 -0.00443572 -1.53221e-10 4.64384e-11 -1.02172e-10 5e-05 1.46608e-10 
13 1 0.0170627 0.0198849 0.00706433 -1.15609e-15 1.50793e-15 -1.58052e-14 -2.1972e-25 2.84343e-25 0 5e-05 1.46608e-10 
14 1 0.015043 0.01872 0.0242519 0 -0 -0.03 0 0 0 5e-05 1.46608e-10 
15 1 0.0182569 0.0231779 0.0252157 0 -0 -0.03 0 0 0 5e-05 1.46608e-10 
16 1 0.0146267 0.0194466 0.0237434 0 -0 -0.03 0 0 0 5e-05 1.46608e-10 
17 1 0.0170032 0.0204705 0.00712456 1.22307e-14 -1.59501e-14 1.67186e-13 -7.06852e-23 -3.54912e-23 2.06795e-24 5e-05 1.46608e-10 
18 1 0.0205144 0.0198064 0.0162208 2.0849e-09 0.0285438 -0.00455899 4.13315e-19 -4.03302e-12 -2.52836e-11 5e-05 1.46608e-10 
19 1 0.0162986 0.0154021 0.014643 -0.00103034 -0.0412141 -0.0557358 0 0 -1.43822e-09 5e-05 1.46608e-10 
20 1 0.0209147 0.0202667 0.0191526 0 -0 -0.03 0 0 0 5e-05 1.46608e-10 
21 1 0.0169519 0.0142568 0.0120321 0.0297336 -0.0021013 -0.0351055 1.33563e-10 3.72122e-10 -8.16696e-10 5e-05 1.46608e-10 
23 1 0.0171238 0.0224213 0.0270593 0 -0 -0.03 0 0 0 5e-05 1.46608e-10 
24 1 0.0196152 0.0148628 0.0180238 0 0 -0.0943781 0 0 -1.43822e-09 5e-05 1.46608e-10 
25 1 0.017305 0.020526 0.0152109 1.11113e-10 0.0223927 -0.00889616 9.61841e-20 -7.86506e-12 -1.97912e-11 5e-05 1.46608e-10 
26 1 0.0199209 0.016359 0.00772111 0.0275613 0.0913765 -0.0576829 0 0 -1.43822e-09 5e-05 1.46608e-10 
27 1 0.0172321 0.0195895 0.0267198 0 -0 -0.03 0 0 0 5e-05 1.46608e-10 
28 1 0.0140722 0.0228972 0.0143745 0.0137849 0.00724461 -0.0104278 0 0 -1.43822e-09 5e-05 1.46608e-10 
29 1 0.0175364 0.0167446 0.0217037 0 -0 -0.03 0 0 0 5e-05 1.46608e-10 
30 1 0.0198546 0.016645 0.0223301 0 -0 -0.03 0 0 0 5e-05 1.46608e-10 
31 1 0.0170528 0.0209794 0.0202686 0 -0 -0.03 0 0 0 5e-05 1.46608e-10 
32 1 0.0191256 0.0201351 0.0223176 0 -0 -0.03 0 0 0 5e-05 1.46608e-10 
33 1 0.0194779 0.0164716 0.0198068 0 -0 -0.03 0 0 0 5e-05 1.46608e-10 
34 1 0.0179392 0.0207802 0.0151088 -7.17412e-11 0.0217714 -0.0104441 -1.03329e-21 -9.2467e-12 -1.92366e-11 5e-05 1.46608e-10 
36 1 0.0236863 0.0196643 0.0205895 0 -0 -0.03 0 0 0 5e-05 1.46608e-10 
37 1 0.0176581 0.021344 0.0147727 -1.0875e-05 0.0260881 -0.0180117 -9.74534e-14 3.53567e-11 -6.50909e-11 5e-05 1.46608e-10 
38 1 0.0188849 0.0222907 0.0230951 0 -0 -0.03 0 0 0 5e-05 1.46608e-10 
39 1 0.0216864 0.0171255 0.0224274 0 -0 -0.03 0 0 0 5e-05 1.46608e-10 
40 1 0.0163876 0.0198651 0.0208138 0 -0 -0.03 0 0 0 5e-05 1.46608e-10 
41 1 0.0164414 0.0149756 0.0214384 0 -0 -0.03 0 0 0 5e-05 1.46608e-10 
42 1 0.0186023 0.019719 0.0182353 0 0 -0.06898 0 0 -1.43822e-09 5e-05 1.46608e-10 
44 1 0.0210292 0.0211164 0.0204674 0 -0 -0.03 0 0 0 5e-05 1.46608e-10 
45 1 0.0194373 0.0161727 0.0185974 0 -0 -0.03 0 0 0 5e-05 1.46608e-10 
46 1 0.020651 0.0182215 0.00702288 -0.000497534 0.0447853 -0.00734259 -2.81298e-11 -4.36437e-10 7.04061e-11 5e-05 1.46608e-10 
47 1 0.0161735 0.0169527 0.0219886 0 -0 -0.03 0 0 0 5e-05 1.46608e-10 
48 1 0.0205117 0.0232201 0.0251635 0 -0 -0.03 0 0 0 5e-05 1.46608e-10 
49 1 0.0187313 0.0153269 0.0130618 5.48004e-05 -0.0569771 -0.107682 0 0 -1.43822e-09 5e-05 1.46608e-10 
50 1 0.021847 0.0181461 0.0253897 0 -0 -0.03 0 0 0 5e-05 1.46608e-10 
51 1 0.0215986 0.0189505 0.0234478 0 -0 -0.03 0 0 0 5e-05 1.46608e-10 
52 1 0.0165344 0.0186388 0.026049 0 -0 -0.03 0 0 0 5e-05 1.46608e-10 
53 1 0.0203516 0.0173587 0.0186389 0 -0 -0.03 0 0 0 5e-05 1.46608e-10 
54 1 0.0164249 0.0149564 0.021935 0 -0 -0.03 0 0 0 5e-05 1.46608e-10 
55 1 0.0148175 0.0177697 0.0248145 0 -0 -0.03 0 0 0 5e-05 1.46608e-10 
56 1 0.0169168 0.02036 0.0161544 -3.99363e-09 0.0281498 -0.00789497 -1.37208e-18 -6.97988e-12 -2.49412e-11 5e-05 1.46608e-10 
57 1 0.0186277 0.0172272 0.01622 0 0 -0.21047 0 0 -1.43822e-09 5e-05 1.46608e-10 
58 1 0.0221062 0.0204172 0.017804 0 0 -0.114979 0 0 -1.43822e-09 5e-05 1.46608e-10 
59 1 0.0191003 0.0144318 0.0209757 0 -0 -0.03 0 0 0 5e-05 1.46608e-10 
60 1 0.0191008 0.0141413 0.0264069 0 -0 -0.03 0 0 0 5e-05 1.46608e-10 
61 1 0.0173369 0.0145672 0.018315 0 0 -0.0565213 0 0 -1.43822e-09 5e-05 1.46608e-10 
62 1 0.0199787 0.0216175 0.0256911 0 -0 -0.03 0 0 0 5e-05 1.46608e-10 
63 1 0.0222889 0.0184249 0.0190794 0 -0 -0.03 0 0 0 5e-05 1.46608e-10 
64 1 0.0203304 0.0181064 0.00703056 0.00448712 0.0197525 -0.00307459 -1.67948e-10 -4.22663e-10 6.32854e-11 5e-05 1.46608e-10 
65 1 0.017687 0.0174519 0.0235192 0 -0 -0.03 0 0 0 5e-05 1.46608e-10 
66 1 0.0155669 0.0221018 0.0253927 0 -0 -0.03 0 0 0 5e-05 1.46608e-10 
68 1 0.015723 0.0182287 0.0162176 -0.000353275 0.0272934 0.00814954 0 0 -1.43822e-09 5e-05 1.46608e-10 
70 1 0.0228944 0.0203849 0.0175966 0 0 -0.131489 0 0 -1.43822e-09 5e-05 1.46608e-10 
71 1 0.0145778 0.0179052 0.0273869 0 -0 -0.03 0 0 0 5e-05 1.46608e-10 
72 1 0.0230906 0.0209042 0.0207518 0 -0 -0.03 0 0 0 5e-05 1.46608e-10 
73 1 0.0170647 0.0202156 0.00709574 -1.15493e-15 1.50852e-15 -1.58053e-14 3.41212e-24 5.84196e-24 6.20385e-25 5e-05 1.46608e-10 
74 1 0.0221414 0.0221204 0.0224616 0 -0 -0.03 0 0 0 5e-05 1.46608e-10 
75 1 0.016666 0.0230287 0.0250883 0 -0 -0.03 0 0 0 5e-05 1.46608e-10 
