ITEM: TIMESTEP
400000
ITEM: NUMBER OF ATOMS
67
ITEM: BOX BOUNDS ff ff ff
-0.02 0.43
-0.02 0.06
-0.02 0.07
ITEM: ATOMS id type x y z vx vy vz fx fy fz radius mass 
1 1 0.0174413 0.0142553 0.0116744 0.000417427 0.000363934 -0.000597143 -2.80142e-10 -6.79344e-11 1.13624e-10 5e-05 1.46608e-10 
2 1 0.0204518 0.0245937 0.0134674 -0.010299 0.0548805 0.0750571 0 0 -1.43822e-09 5e-05 1.46608e-10 
3 1 0.0162799 0.0175749 0.0164784 0 0 -0.19806 0 0 -1.43822e-09 5e-05 1.46608e-10 
4 1 0.0230219 0.0213289 0.015736 -3.86261e-09 0.0256148 -0.0137661 2.95247e-19 -1.21952e-11 -2.26893e-11 5e-05 1.46608e-10 
5 1 0.0161515 0.021809 0.0154346 -0.000991199 0.035256 -0.0258857 -1.09613e-11 1.12563e-10 -1.57544e-10 5e-05 1.46608e-10 
6 1 0.0212533 0.0170385 0.00731524 0.0052465 -0.00254427 0.00104448 9.24384e-13 2.81586e-12 -2.58876e-12 5e-05 1.46608e-10 
7 1 0.0183984 0.0199473 0.00697833 -5.3533e-15 -3.1678e-14 8.22332e-14 -1.03123e-20 -6.08972e-20 -2.5136e-20 5e-05 1.46608e-10 
8 1 0.0167263 0.0160475 0.0154312 -0.00122752 -0.037855 0.0191498 0 0 -1.43822e-09 5e-05 1.46608e-10 
9 1 0.0234152 0.0193715 0.00690389 -2.39346e-15 1.48766e-14 8.70611e-14 -1.9387e-26 0 0 5e-05 1.46608e-10 
10 1 0.0167991 0.0238423 0.0121878 0.0043181 -0.00122504 -0.00894495 1.06407e-10 3.6088e-11 -8.67136e-11 5e-05 1.46608e-10 
11 1 0.020595 0.0201703 0.0185272 0 -0 -0.03 0 0 0 5e-05 1.46608e-10 
13 1 0.0170627 0.0198849 0.00706433 -1.15607e-15 1.50804e-15 -1.58052e-14 -3.87741e-26 -2.58494e-26 0 5e-05 1.46608e-10 
14 1 0.015043 0.01872 0.0180753 0 0 -0.0888649 0 0 -1.43822e-09 5e-05 1.46608e-10 
15 1 0.0182569 0.0231779 0.0192157 0 -0 -0.03 0 0 0 5e-05 1.46608e-10 
16 1 0.0146267 0.0194869 0.0155578 5.72377e-06 0.0310992 0.051989 0 0 -1.43822e-09 5e-05 1.46608e-10 
17 1 0.0170032 0.0204705 0.00712456 1.22318e-14 -1.59488e-14 1.67186e-13 2.10156e-23 4.84418e-23 2.27475e-24 5e-05 1.46608e-10 
18 1 0.0300735 0.0171193 0.0158063 -0.0377365 0.0090195 0.00351898 6.09516e-10 -3.83642e-10 -1.1743e-10 5e-05 1.46608e-10 
19 1 0.0172581 0.0142613 0.0117517 -8.87724e-05 0.00080746 -0.00213112 -2.30218e-10 -8.78304e-11 6.32309e-10 5e-05 1.46608e-10 
21 1 0.0173457 0.0142582 0.0117035 0.00014517 0.000526605 -0.00152211 4.66688e-10 -2.41245e-10 6.92251e-10 5e-05 1.46608e-10 
23 1 0.0171238 0.0224213 0.0210593 0 -0 -0.03 0 0 0 5e-05 1.46608e-10 
24 1 0.0216148 0.0187848 0.00695463 0.00485022 -0.00349687 0.000730872 -2.63317e-13 5.10338e-13 -9.44528e-14 5e-05 1.46608e-10 
25 1 0.0177177 0.0200448 0.00703168 -1.15603e-15 1.50795e-15 -1.58052e-14 -3.61892e-25 0 2.06795e-25 5e-05 1.46608e-10 
26 1 0.0213333 0.0174035 0.00718045 0.00505204 -0.00266669 0.000612323 9.69124e-12 1.58918e-11 -1.91778e-12 5e-05 1.46608e-10 
27 1 0.0172321 0.0195895 0.0207198 0 -0 -0.03 0 0 0 5e-05 1.46608e-10 
28 1 0.0149115 0.0232396 0.0138051 0.00633583 0.00181482 -0.00584762 -2.83548e-11 -2.95571e-12 3.65767e-11 5e-05 1.46608e-10 
29 1 0.0174238 0.0150438 0.0141522 -0.00205138 -0.0556211 -0.0660634 -2.10465e-11 -3.73556e-10 -1.8085e-10 5e-05 1.46608e-10 
30 1 0.0205027 0.0148635 0.0100661 0.0411571 0.0449493 -0.136907 0 0 -1.43822e-09 5e-05 1.46608e-10 
31 1 0.0186072 0.0199509 0.00699389 -0.00500616 -0.0271494 -0.011234 3.62005e-11 1.6637e-10 6.92152e-11 5e-05 1.46608e-10 
32 1 0.0191262 0.0215392 0.0146315 -1.15854e-05 0.0258777 -0.0200311 -1.33623e-13 7.10987e-11 -9.62295e-11 5e-05 1.46608e-10 
33 1 0.0212734 0.0171267 0.00727276 0.00527287 -0.00254945 0.00104586 7.02217e-12 -1.23446e-11 6.88592e-12 5e-05 1.46608e-10 
34 1 0.0182132 0.0198958 0.00698122 -1.46457e-14 1.91048e-14 -2.00237e-13 2.06795e-25 -1.44757e-24 -2.06795e-25 5e-05 1.46608e-10 
36 1 0.0236874 0.0228046 0.0145682 -0.000892395 0.0432257 -0.0569938 -5.6226e-13 2.97778e-10 -5.88452e-10 5e-05 1.46608e-10 
37 1 0.0180332 0.019986 0.007003 -1.46453e-14 1.91043e-14 -2.00237e-13 5.94536e-24 1.60266e-24 0 5e-05 1.46608e-10 
38 1 0.018887 0.0239083 0.0118683 2.87756e-05 -0.0651585 -0.0142997 0 0 -1.43822e-09 5e-05 1.46608e-10 
39 1 0.0216987 0.0155274 0.0134224 0.000162638 -0.0560706 -0.0858536 0 0 -1.43822e-09 5e-05 1.46608e-10 
40 1 0.0163758 0.0237402 0.0127193 0.0381445 -0.0250586 -0.04186 0 0 -1.43822e-09 5e-05 1.46608e-10 
41 1 0.0171705 0.0142644 0.0117999 -0.000389801 0.00110049 -0.00272847 2.75997e-10 -4.16437e-11 -5.83889e-11 5e-05 1.46608e-10 
42 1 0.0184019 0.0204193 0.00716798 -0.000108914 -0.000645239 -0.000266307 2.83224e-11 1.67752e-10 6.92364e-11 5e-05 1.46608e-10 
45 1 0.0212935 0.017215 0.00723028 0.00529784 -0.00255548 0.00104856 1.50284e-11 -1.01495e-11 2.36508e-11 5e-05 1.46608e-10 
46 1 0.0214489 0.0179659 0.00709001 0.0047894 -0.00337864 0.000708997 4.27642e-13 -2.64964e-13 5.70304e-14 5e-05 1.46608e-10 
47 1 0.0161873 0.0161064 0.0153039 0.000897893 -0.0192227 -0.0121772 0 0 -1.43822e-09 5e-05 1.46608e-10 
48 1 0.0205117 0.0232201 0.0191635 0 -0 -0.03 0 0 0 5e-05 1.46608e-10 
49 1 0.0213133 0.0173067 0.00719558 0.00504903 -0.00266479 0.000611239 -1.75915e-11 -1.40894e-12 -1.45339e-11 5e-05 1.46608e-10 
50 1 0.021847 0.0181461 0.0193897 0 -0 -0.03 0 0 0 5e-05 1.46608e-10 
51 1 0.0215885 0.0193732 0.0162991 0.000466067 0.0285255 -0.00658948 0 0 -1.43822e-09 5e-05 1.46608e-10 
52 1 0.0165344 0.0186388 0.020049 0 -0 -0.03 0 0 0 5e-05 1.46608e-10 
53 1 0.0203533 0.020277 0.0153166 -7.19963e-11 0.0230259 -0.00741652 -1.52651e-20 -6.57725e-12 -2.03466e-11 5e-05 1.46608e-10 
54 1 0.0170823 0.0142675 0.0118484 0.00184849 0.00129914 -0.00471283 -4.90986e-11 -3.07189e-11 1.14931e-10 5e-05 1.46608e-10 
55 1 0.0148175 0.0177697 0.0188145 0 -0 -0.03 0 0 0 5e-05 1.46608e-10 
56 1 0.0184383 0.0196598 0.00694224 -1.15628e-15 1.50753e-15 -1.58053e-14 3.1588e-23 2.12482e-23 -2.06795e-25 5e-05 1.46608e-10 
57 1 0.0197684 0.0154414 0.0132661 0.0244244 -0.0344356 -0.0720544 0 0 -1.43822e-09 5e-05 1.46608e-10 
58 1 0.021631 0.023787 0.0123496 0.000923756 0.00163567 0.00193668 1.25881e-07 -6.48405e-07 -5.66358e-07 5e-05 1.46608e-10 
59 1 0.0190875 0.0142264 0.0117223 -0.000240791 -0.00151738 0.00251936 -2.79445e-12 -1.88025e-11 3.12182e-11 5e-05 1.46608e-10 
60 1 0.0191008 0.0141413 0.0204069 0 -0 -0.03 0 0 0 5e-05 1.46608e-10 
61 1 0.0175493 0.014253 0.0116783 -1.40438e-05 0.000396646 -0.00065856 2.19123e-12 -2.64184e-11 4.38999e-11 5e-05 1.46608e-10 
62 1 0.0199787 0.0216175 0.0196911 0 -0 -0.03 0 0 0 5e-05 1.46608e-10 
63 1 0.0222271 0.0236963 0.012977 -0.0605838 0.0698686 -0.0231801 0 0 -1.43822e-09 5e-05 1.46608e-10 
64 1 0.0213534 0.0175003 0.00716531 0.0050559 -0.00266741 0.000612212 -3.41714e-12 -1.97477e-12 2.97099e-12 5e-05 1.46608e-10 
65 1 0.0176631 0.0175704 0.0161068 -0.00214593 0.0106387 -0.0480688 0 0 -1.43822e-09 5e-05 1.46608e-10 
66 1 0.0155669 0.0221018 0.0193927 0 -0 -0.03 0 0 0 5e-05 1.46608e-10 
68 1 0.0163387 0.0238193 0.0134775 0.0594733 0.0277156 -0.00942549 0 0 -1.43822e-09 5e-05 1.46608e-10 
70 1 0.0222801 0.0236551 0.0128986 -0.00264516 0.000733024 -0.000631426 0 0 -1.43822e-09 5e-05 1.46608e-10 
71 1 0.0145778 0.0179052 0.0213869 0 -0 -0.03 0 0 0 5e-05 1.46608e-10 
72 1 0.0211666 0.0238304 0.0118673 -0.00577827 -0.000592261 -0.00801251 7.50551e-13 9.89088e-12 1.84292e-11 5e-05 1.46608e-10 
73 1 0.0170647 0.0202156 0.00709574 -1.15566e-15 1.50817e-15 -1.58052e-14 8.27181e-24 1.75e-23 1.03398e-24 5e-05 1.46608e-10 
74 1 0.0218394 0.0237531 0.0125411 -0.00380232 -0.000867524 -0.00611914 -7.33427e-11 2.94443e-11 -3.62091e-11 5e-05 1.46608e-10 
75 1 0.016666 0.0230287 0.0190883 0 -0 -0.03 0 0 0 5e-05 1.46608e-10 
