LIGGGHTS (Version LIGGGHTS-PUBLIC 3.8.0, compiled 2026-05-30-04:17:57 by root, git commit 3d5c00f20519e6bb6eb6756f51f1ad36564e649d)
###################################Header for General commands#######################################################ELQUECORRIOMANANACONVREALMASCOF

atom_style	granular		#Simulation of particles

boundary	f f f			#fixed boundaries -> particles will be deleted if leaving the simulation box

units		si

communicate	multi vel yes		#default

newton		off			#default


###################################System variables##################################################################

#Definition of boundaries

variable xmin equal -0.02
variable xmax equal 0.43

variable ymin equal -0.02
variable ymax equal 0.06

variable zmin equal -0.02
variable zmax equal 0.07

#Definition of the timestep

variable dt equal 1e-6



###################################Specific variables for current simulation#########################################

variable natoms equal 2 				#1 -> particle #2 ->pipe and screw

####variable for material properties####

####Young Modulus####
variable	youngmodulus1	equal 	7e6
variable	youngmodulus2	equal 	2e8

####Poission ratio####
variable 	poission1	equal	0.30
variable 	poission2	equal	0.29

####variable for contact properties####

####coefficient of restitution####
variable	CoR11	equal	0.4
variable	CoR12	equal	0.5
variable	CoR21	equal	0.5
variable	CoR22	equal	0.45

####sliding friction coefficient####
variable	sf11	equal	0.65	#Particle-particle sliding friction coefficient
variable	sf12	equal	0.5
variable	sf21	equal	0.5
variable	sf22	equal	0.0


####rolling friction coefficient####
variable	rf11	equal	0.75	#Particle-particle rolling friction coefficient
variable	rf12	equal	0.6
variable	rf21	equal	0.6
variable	rf22	equal	0.0


####variable for particle####

#Number of particle radius
variable	nradii	equal	3

variable	radius1	equal	0.00005	#m
variable	radius2	equal	0.00005	#m
variable	radius3	equal	0.00005	#m

variable	frac1	equal	0.3945
variable	frac2	equal	0.4059
variable	frac3	equal	0.1996

variable	density	equal	280		#kg/m³


####filling parameters####

variable	filltime	equal	2.0		#s, prueba rápida: alimentar 2 s

variable	dischargetime	equal	110		#s, tiempo para que puedan salir partículas

variable	fillmass	equal	4.4e-8 		#kg, 2 g de material

variable	fillmassrate	equal	${fillmass}/${filltime}	#kg/s
variable	fillmassrate	equal	4.4e-08/${filltime}	
variable	fillmassrate	equal	4.4e-08/2	

variable	fillsteps	equal	${filltime}/${dt}
variable	fillsteps	equal	2/${dt}
variable	fillsteps	equal	2/1e-06

variable	dischargesteps	equal	${dischargetime}/${dt}
variable	dischargesteps	equal	110/${dt}
variable	dischargesteps	equal	110/1e-06



####screw velocities####

variable	screwPeriod	equal	1.029		#s, prueba rápida: 2 vueltas/s



###################################Definition of simulationbox#######################################################

region		reg block ${xmin} ${xmax} ${ymin} ${ymax} ${zmin} ${zmax} units box
region		reg block -0.02 ${xmax} ${ymin} ${ymax} ${zmin} ${zmax} units box
region		reg block -0.02 0.43 ${ymin} ${ymax} ${zmin} ${zmax} units box
region		reg block -0.02 0.43 -0.02 ${ymax} ${zmin} ${zmax} units box
region		reg block -0.02 0.43 -0.02 0.06 ${zmin} ${zmax} units box
region		reg block -0.02 0.43 -0.02 0.06 -0.02 ${zmax} units box
region		reg block -0.02 0.43 -0.02 0.06 -0.02 0.07 units box

processors 6 1 1

create_box	2 reg
Created orthogonal box = (-0.02 -0.02 -0.02) to (0.43 0.06 0.07)
  6 by 1 by 1 MPI processor grid


neighbor	0.0001 bin

neigh_modify	delay 0


#################################Definition of the contact models####################################################

pair_style gran model hertz tangential history rolling_friction epsd2

pair_coeff	* *

timestep ${dt}
timestep 1e-06

thermo 10000

fix		integrator all nve/sphere

fix		gravi all gravity 9.81 vector 0.0 0.0 -1.0


###################################Definition of Material properties#################################################

fix 		m1 all property/global youngsModulus peratomtype ${youngmodulus1} ${youngmodulus2}
fix 		m1 all property/global youngsModulus peratomtype 7000000 ${youngmodulus2}
fix 		m1 all property/global youngsModulus peratomtype 7000000 200000000

fix 		m2 all property/global poissonsRatio peratomtype ${poission1} ${poission2}
fix 		m2 all property/global poissonsRatio peratomtype 0.3 ${poission2}
fix 		m2 all property/global poissonsRatio peratomtype 0.3 0.29

fix 		m3 all property/global coefficientRestitution peratomtypepair ${natoms} ${CoR11} ${CoR12} ${CoR21} ${CoR22}
fix 		m3 all property/global coefficientRestitution peratomtypepair 2 ${CoR11} ${CoR12} ${CoR21} ${CoR22}
fix 		m3 all property/global coefficientRestitution peratomtypepair 2 0.4 ${CoR12} ${CoR21} ${CoR22}
fix 		m3 all property/global coefficientRestitution peratomtypepair 2 0.4 0.5 ${CoR21} ${CoR22}
fix 		m3 all property/global coefficientRestitution peratomtypepair 2 0.4 0.5 0.5 ${CoR22}
fix 		m3 all property/global coefficientRestitution peratomtypepair 2 0.4 0.5 0.5 0.45

fix 		m4 all property/global coefficientFriction peratomtypepair ${natoms} ${sf11} ${sf12} ${sf21} ${sf22}
fix 		m4 all property/global coefficientFriction peratomtypepair 2 ${sf11} ${sf12} ${sf21} ${sf22}
fix 		m4 all property/global coefficientFriction peratomtypepair 2 0.65 ${sf12} ${sf21} ${sf22}
fix 		m4 all property/global coefficientFriction peratomtypepair 2 0.65 0.5 ${sf21} ${sf22}
fix 		m4 all property/global coefficientFriction peratomtypepair 2 0.65 0.5 0.5 ${sf22}
fix 		m4 all property/global coefficientFriction peratomtypepair 2 0.65 0.5 0.5 0

fix 		m5 all property/global coefficientRollingFriction peratomtypepair ${natoms} ${rf11} ${rf12} ${rf21} ${rf22}
fix 		m5 all property/global coefficientRollingFriction peratomtypepair 2 ${rf11} ${rf12} ${rf21} ${rf22}
fix 		m5 all property/global coefficientRollingFriction peratomtypepair 2 0.75 ${rf12} ${rf21} ${rf22}
fix 		m5 all property/global coefficientRollingFriction peratomtypepair 2 0.75 0.6 ${rf21} ${rf22}
fix 		m5 all property/global coefficientRollingFriction peratomtypepair 2 0.75 0.6 0.6 ${rf22}
fix 		m5 all property/global coefficientRollingFriction peratomtypepair 2 0.75 0.6 0.6 0



###################################Generation and Loading of the Geometry .stl#######################################
fix case all mesh/surface file case_remesh.stl type 2 heal auto_remove_duplicates scale 1.0 curvature 1e-5 curvature_tolerant yes

fix screw all mesh/surface file screw_simplified.stl type 2 scale 1.0 curvature 1e-5 curvature_tolerant yes

fix 		walls 		all wall/gran model hertz tangential history rolling_friction epsd2 mesh n_meshes 2 meshes case screw

fix		Movescrew	all move/mesh mesh screw rotate origin 0.2024435 0.019051 0.011497 axis -1. 0. 0. period ${screwPeriod}
fix		Movescrew	all move/mesh mesh screw rotate origin 0.2024435 0.019051 0.011497 axis -1. 0. 0. period 1.029

fix feed all mesh/surface file feed.stl type 2 scale 1.0 curvature 1e-5 curvature_tolerant yes

fix outlet all mesh/surface file outlet_1.stl type 2 scale 1.0 curvature 1e-5 curvature_tolerant yes


###################################Generation and Insertion of the particles#########################################

fix pts1 all particletemplate/sphere 10487 atom_type 1 density constant ${density} radius constant ${radius1} volume_limit 1e-18
fix pts1 all particletemplate/sphere 10487 atom_type 1 density constant 280 radius constant ${radius1} volume_limit 1e-18
fix pts1 all particletemplate/sphere 10487 atom_type 1 density constant 280 radius constant 5e-05 volume_limit 1e-18

fix pts2 all particletemplate/sphere 11887 atom_type 1 density constant ${density} radius constant ${radius2} volume_limit 1e-18
fix pts2 all particletemplate/sphere 11887 atom_type 1 density constant 280 radius constant ${radius2} volume_limit 1e-18
fix pts2 all particletemplate/sphere 11887 atom_type 1 density constant 280 radius constant 5e-05 volume_limit 1e-18

fix pts3 all particletemplate/sphere 16561 atom_type 1 density constant ${density} radius constant ${radius3} volume_limit 1e-18
fix pts3 all particletemplate/sphere 16561 atom_type 1 density constant 280 radius constant ${radius3} volume_limit 1e-18
fix pts3 all particletemplate/sphere 16561 atom_type 1 density constant 280 radius constant 5e-05 volume_limit 1e-18

fix 		pdd1 all particledistribution/discrete 32452867 ${nradii} pts1 ${frac1} pts2 ${frac2} pts3 ${frac3}
fix 		pdd1 all particledistribution/discrete 32452867 3 pts1 ${frac1} pts2 ${frac2} pts3 ${frac3}
fix 		pdd1 all particledistribution/discrete 32452867 3 pts1 0.3945 pts2 ${frac2} pts3 ${frac3}
fix 		pdd1 all particledistribution/discrete 32452867 3 pts1 0.3945 pts2 0.4059 pts3 ${frac3}
fix 		pdd1 all particledistribution/discrete 32452867 3 pts1 0.3945 pts2 0.4059 pts3 0.1996

fix		ins_mesh all mesh/surface/planar file feed.stl type 1 scale 1.0

fix 		ins all insert/stream seed 15485863 distributiontemplate pdd1         	mass ${fillmass} massrate ${fillmassrate} overlapcheck yes all_in yes vel constant 0 0 -0.03         	insertion_face ins_mesh extrude_length 0.015
fix 		ins all insert/stream seed 15485863 distributiontemplate pdd1         	mass 4.4e-08 massrate ${fillmassrate} overlapcheck yes all_in yes vel constant 0 0 -0.03         	insertion_face ins_mesh extrude_length 0.015
fix 		ins all insert/stream seed 15485863 distributiontemplate pdd1         	mass 4.4e-08 massrate 2.2e-08 overlapcheck yes all_in yes vel constant 0 0 -0.03         	insertion_face ins_mesh extrude_length 0.015


################################### Particle Residence Time Track#########################################

fix 	rt_outlet	all massflow/mesh mesh outlet vec_side 0 0 -1 file rt_outlet.txt writeTime

fix 	rt_inlet	all massflow/mesh mesh feed vec_side 0 0 -1 file rt_inlet.txt writeTime


###################################Outlet mass flow track#########################################

fix	mfout	all massflow/mesh mesh outlet vec_side 0 0 -1

fix	mfin	all massflow/mesh mesh feed vec_side 0 0 -1


variable 	time equal step*dt

variable 	in_mass_flow equal	f_mfin[3]

variable 	out_mass_flow equal	f_mfout[3]

fix mass_flow_rate all print 5000 "${time},${in_mass_flow},${out_mass_flow}" screen no title "t,in_mass_flow,out_mass_flow" file massflow.csv

###################################Dumping of the data for post-processing to visualize############################

#fix ts_check all check/timestep/gran 1000 0.1 0.1

shell 	mkdir -p post

variable dumptime equal 0.2		#guarda cada 0.05 s

variable dumpstep equal ${dumptime}/${dt}
variable dumpstep equal 0.2/${dt}
variable dumpstep equal 0.2/1e-06

dump	dmpparticle all custom ${dumpstep} post/particles_*.liggghts id type x y z vx vy vz fx fy fz radius mass
dump	dmpparticle all custom 200000 post/particles_*.liggghts id type x y z vx vy vz fx fy fz radius mass

dump_modify	dmpparticle sort id

dump	dmpscrew	all	mesh/stl ${dumpstep} post/screw_*.stl screw
dump	dmpscrew	all	mesh/stl 200000 post/screw_*.stl screw


####################################RUN the simulation filling and discharge###########################################################

run	${fillsteps}
run	2000000
Setting up run at Tue Jun  2 04:34:10 2026

WARNING: Fix mesh: Mesh contains highly skewed element, moving mesh (if used) will not parallelize well (../surface_mesh_I.h:657)
WARNING: Fix mesh: Mesh contains highly skewed element, moving mesh (if used) will not parallelize well (../surface_mesh_I.h:657)
INFO: Particle insertion ins: 75.030187 particles every 500000 steps - particle rate 150.060375, (mass rate 2.200000e-08)
      300 particles (mass 4.398230e-08) within 1500000 steps
Memory usage per processor = 2133.46 Mbytes
    Step    Atoms         KinEng            CPU 
       0        0              0              0 
INFO: Particle insertion ins: inserted 75 particle templates (mass 1.099557e-08) at step 1
 - a total of 75 particle templates (mass 1.099557e-08) inserted so far.
   10000       75  5.6353356e-12      186.89709 
   20000       75  7.9860233e-12      260.27004 
   30000       75  1.4215563e-11       353.7001 
   40000       75  1.4359756e-11      432.23914 
   50000       75  1.2742486e-11      654.81961 
   60000       75  1.4718157e-11       1247.487 
   70000       75  1.9426177e-11      1948.8711 
   80000       75  2.0803745e-11      2356.4328 
   90000       75  2.1639618e-11      2814.3399 
  100000       75   1.045928e-11      3487.9869 
  110000       75   1.391376e-11      4127.2546 
  120000       75  2.6677825e-11       4848.478 
  130000       75   2.130756e-11      5039.4599 
  140000       75  1.9966219e-11      5144.1573 
  150000       75  2.5440214e-11      5263.8505 
  160000       75  3.6949144e-11      5403.0254 
  170000       75  2.9768012e-11      5545.4834 
  180000       75  2.2510335e-11      5668.5992 
  190000       75  1.8743854e-11      5780.8887 
  200000       75  2.4470559e-11      5898.6747 
  210000       75   2.382884e-11      6009.9851 
  220000       75  2.6808344e-11      6124.1328 
  230000       75  3.7532385e-11      6268.5159 
  240000       75  1.5134554e-11      6391.5574 
  250000       75  1.4407565e-11      6500.8098 
  260000       75  1.6439966e-11      6587.9026 
  270000       75  2.0179143e-11      6674.3471 
  280000       75   1.983512e-11       6788.996 
  290000       75  2.7315819e-11      6896.9056 
  300000       75  3.0615189e-11      7018.3298 
  310000       74  3.0985658e-11      7323.1682 
  320000       74  2.8576794e-11      7455.5894 
  330000       74  2.6445128e-11      7577.5171 
  340000       74  3.3847143e-11      7690.7953 
  350000       74   3.472773e-11      7815.0371 
  360000       74  1.7589139e-11      7927.5401 
  370000       74   1.629794e-11      8028.8447 
  380000       74  3.0465634e-11       8140.802 
  390000       74  2.1059414e-11      8245.4646 
  400000       74  1.9959779e-11      8356.8858 
  410000       73  1.6932035e-11      8816.1912 
  420000       73  2.0914969e-11      8934.4205 
  430000       73   1.160148e-11      9054.8487 
  440000       73   1.881325e-11      9159.6073 
  450000       73  3.3272932e-11      9278.6187 
  460000       73  3.3640831e-11      9415.5683 
  470000       73  3.3060376e-11      9553.3807 
  480000       73  2.5188823e-11      9681.0357 
  490000       73  2.2085846e-11      9797.6722 
  500000       73  1.5829086e-11      9913.8156 
INFO: Particle insertion ins: inserted 75 particle templates (mass 1.099557e-08) at step 500001
 - a total of 150 particle templates (mass 2.199115e-08) inserted so far.
  510000      147  4.2301727e-11      10907.028 
  520000      147  3.2451931e-11      11034.136 
  530000      147  3.5703886e-11      11141.884 
  540000      147  3.3460922e-11      11257.263 
  550000      146   3.768548e-11      11754.998 
  560000      146  3.7367342e-11      11901.501 
  570000      146  3.4414706e-11      12032.383 
  580000      146  2.6445319e-11      12149.864 
  590000      146  2.5672747e-11      12251.345 
  600000      146  2.8306237e-11      12375.639 
  610000      146  2.5218552e-11      12482.669 
  620000      146  2.2371442e-11      12598.173 
  630000      146  2.0283948e-11      12708.703 
  640000      146  1.8479867e-11      12816.185 
  650000      146  1.6701337e-11      12923.251 
  660000      146  1.7074812e-11      13028.227 
  670000      146  2.3728655e-11      13133.359 
  680000      146  3.0633301e-11      13245.847 
  690000      146  2.7307945e-11       13347.26 
  700000      146  2.0429628e-11      13463.125 
  710000      146  2.5717474e-11       13573.69 
  720000      146  3.0998079e-11      13688.168 
  730000      146  2.4195831e-11      13811.476 
  740000      146  2.8279978e-11       13952.81 
  750000      146  1.2686255e-10      14733.713 
  760000      146  5.7234161e-11      15042.891 
  770000      146   5.184593e-11      15230.843 
  780000      145  5.8305508e-11      15800.822 
  790000      145  5.4576508e-11       15998.06 
  800000      145  5.0692816e-11      16213.188 
  810000      145  5.2143899e-11      16423.331 
  820000      145  4.4750278e-11      16623.071 
  830000      145  4.8417443e-11      16776.828 
  840000      145  3.1323832e-11      16929.678 
  850000      145  2.3432185e-11      17059.747 
  860000      145  2.5997269e-11        17176.7 
  870000      145  3.1427942e-11      17298.442 
  880000      145  2.8435457e-11      17424.436 
  890000      145  2.6954789e-11      17551.493 
  900000      145  1.8721255e-11      17673.904 
  910000      145  2.4520515e-11        17785.2 
  920000      145  3.2780146e-11      17914.245 
  930000      145  2.7017427e-11      18041.144 
  940000      144  1.9843738e-11       18477.29 
  950000      144  2.3036339e-11      18574.757 
  960000      144   2.513895e-11      18695.765 
  970000      144  2.3900502e-11      18810.681 
  980000      144  3.0594801e-11      18931.258 
  990000      144   3.619324e-11      19056.627 
 1000000      144  3.3561302e-11      19182.898 
INFO: Particle insertion ins: inserted 76 particle templates (mass 1.114218e-08) at step 1000001
 - a total of 226 particle templates (mass 3.313333e-08) inserted so far.
 1010000      220  3.1830388e-11      19303.179 
 1020000      220  5.9484781e-10      20053.338 
 1030000      220  2.8152104e-10       20621.93 
 1040000      220  2.6261342e-10      21167.311 
 1050000      220  2.5096221e-10      21699.597 
 1060000      220  3.8622464e-10      22982.747 
 1070000      220  3.2669596e-10      24287.206 
 1080000      220  2.6017232e-10      25619.656 
 1090000      220  2.4385044e-10      26916.866 
 1100000      220  2.1545811e-10      27793.282 
 1110000      220  2.0944232e-10      29166.205 
 1120000      220  1.8746009e-10       30320.83 
 1130000      220  1.8326806e-10      30844.979 
 1140000      220  1.7479069e-10      31863.874 
 1150000      220  1.7943253e-10      32823.508 
 1160000      220  1.7964386e-10      34062.437 
 1170000      220  1.7717256e-10      35343.748 
 1180000      220  1.7052668e-10      35824.895 
 1190000      220  1.9789591e-10      36275.234 
 1200000      220  8.3339537e-11      36847.926 
 1210000      220  7.9734556e-11      37349.811 
 1220000      220  9.8800489e-11      37784.011 
 1230000      220  1.1517129e-10      38054.365 
 1240000      220  1.3224346e-10      38349.999 
 1250000      220   1.533219e-10      38654.279 
 1260000      220  2.5113867e-10      38997.476 
 1270000      220  5.9137638e-09      39981.425 
 1280000      219  2.5259864e-11      41024.969 
 1290000      219  3.4361895e-11      41225.586 
 1300000      219  3.1447595e-11      41520.563 
 1310000      219  3.6110349e-11      41780.721 
 1320000      219  2.6362961e-11      42044.266 
 1330000      219  2.9426866e-11      42309.076 
 1340000      219  3.2967284e-11      42439.367 
 1350000      219  2.8382389e-11      42625.682 
 1360000      219  3.2221566e-11      42842.086 
 1370000      219  3.1775041e-11      43030.623 
 1380000      219  2.3092665e-11      43125.944 
 1390000      219  2.3979437e-11       43218.04 
 1400000      219  2.3746714e-11      43314.609 
 1410000      218  2.8311178e-11      43795.319 
 1420000      218  2.6897235e-11      43903.993 
 1430000      218  2.8316534e-11      44012.585 
 1440000      218  2.2274125e-11      44119.303 
 1450000      218  2.7663486e-11      44223.261 
 1460000      218   2.563132e-11      44320.002 
 1470000      218  1.7768023e-11      44421.081 
 1480000      218  1.8243014e-11       44516.18 
 1490000      218  1.4663562e-11      44594.291 
 1500000      218  3.8861144e-11      44750.223 
INFO: Particle insertion ins: inserted 74 particle templates (mass 1.084897e-08) at step 1500001
 - a total of 300 particle templates (mass 4.398230e-08) inserted so far.
 1510000      292  3.2410113e-11       45390.13 
 1520000      292  3.3669049e-11      45729.767 
 1530000      292  4.0195921e-11      46110.582 
 1540000      292  2.6213913e-10      47197.072 
 1550000      292   2.193556e-10      47582.417 
 1560000      292  3.7003542e-11      47932.912 
 1570000      292  3.3735034e-11      48041.647 
 1580000      292  6.4185467e-11      48216.363 
 1590000      292  3.7761519e-11      48336.513 
 1600000      292  3.2088181e-11      48442.784 
 1610000      292  2.7011422e-11      48548.003 
 1620000      292  2.2657171e-11      48668.277 
 1630000      292  1.7609288e-11      48757.834 
 1640000      292  2.7309042e-11      48852.691 
 1650000      292  3.4697159e-11      48967.668 
 1660000      292   2.491867e-11      49059.071 
 1670000      292  2.0428058e-11      49155.542 
 1680000      292  2.5042252e-11       49242.96 
 1690000      292  2.3109726e-11      49317.093 
 1700000      292  2.3258755e-11      49384.029 
 1710000      292  3.1668013e-11      49472.196 
 1720000      292  3.0550407e-11      49577.527 
 1730000      292   2.296248e-11      49675.231 
 1740000      291  3.2639743e-11      50082.837 
 1750000      290  3.7510768e-11      50815.814 
 1760000      290  2.4092635e-11      50909.523 
 1770000      290  3.4414455e-11      51001.243 
 1780000      290  3.3213492e-11      51099.106 
 1790000      290  3.3898661e-11      51189.075 
 1800000      290   2.766767e-11      51279.212 
 1810000      290  2.3968409e-11      51373.497 
 1820000      290   2.346014e-11       51458.18 
 1830000      290  3.7971521e-11      51545.748 
 1840000      290  2.2952486e-11      51639.849 
 1850000      289  3.9229281e-10       52312.13 
 1860000      289  8.0214565e-11      52548.411 
 1870000      289  4.0235131e-11        52737.2 
 1880000      289  3.8681215e-11      52824.613 
 1890000      289  3.3953894e-11      52925.078 
 1900000      289  3.1343305e-11      53029.573 
 1910000      289  3.3208512e-11      53134.534 
 1920000      289  4.1151445e-11      53258.375 
 1930000      289  3.1968378e-11      53391.756 
 1940000      289  3.0784188e-11       53489.16 
 1950000      289  3.5134194e-11      53591.811 
 1960000      289  2.4226852e-11      53684.641 
 1970000      289  2.4930225e-11      53783.786 
 1980000      289  2.2334663e-11       53876.77 
 1990000      289  2.7552097e-11      53981.031 
 2000000      289  1.7892609e-11      54083.728 
Loop time of 54083.7 on 6 procs for 2000000 steps with 289 atoms, finish time Tue Jun  2 19:36:40 2026


Pair  time (%) = 30.62 (0.0566159)
Neigh time (%) = 19159 (35.4247)
Comm  time (%) = 3994.84 (7.38641)
Outpt time (%) = 63.0328 (0.116547)
Other time (%) = 30836.3 (57.0158)

Nlocal:    48.1667 ave 287 max 0 min
Histogram: 5 0 0 0 0 0 0 0 0 1
Nghost:    0 ave 0 max 0 min
Histogram: 6 0 0 0 0 0 0 0 0 0
Neighs:    169 ave 1014 max 0 min
Histogram: 5 0 0 0 0 0 0 0 0 1

Total # of neighbors = 1014
Ave neighs/atom = 3.50865
Neighbor list builds = 22314
Dangerous builds = 3761

unfix	ins

run	${dischargesteps}
run	110000000
Setting up run at Tue Jun  2 19:36:40 2026

Memory usage per processor = 2138.77 Mbytes
    Step    Atoms         KinEng            CPU 
 2000000      289  1.7892609e-11              0 
 2010000      289  1.9831689e-11      95.507708 
 2020000      289  1.7516943e-11       181.0784 
 2030000      289  1.6881987e-11      269.03344 
 2040000      289  1.7055517e-11      362.60706 
 2050000      289  5.6261432e-11      453.76351 
 2060000      289  2.3677542e-11      608.67867 
 2070000      289  1.9894943e-11      724.80621 
 2080000      289  2.2449909e-11       847.9659 
 2090000      289  9.3806292e-12      944.15523 
 2100000      288  5.6302591e-12      1343.6438 
 2110000      288  8.1002125e-12       1421.881 
 2120000      288   8.561254e-12       1512.099 
 2130000      288  5.9422715e-12       1596.661 
 2140000      288  7.7119124e-12        1694.36 
 2150000      288  5.1584108e-12      1785.6203 
 2160000      288  5.3293729e-12      1861.7229 
 2170000      288  5.4140577e-12      1949.5103 
 2180000      287  6.8294925e-12        2662.91 
 2190000      287  5.0260313e-12      2735.0293 
 2200000      287  2.4447942e-12      2808.3833 
 2210000      287  2.4867383e-12      2879.6394 
 2220000      287  1.5220993e-12      2956.1042 
 2230000      287     3.2147e-12      3013.1191 
 2240000      287  4.8685382e-12      3092.1181 
 2250000      287  4.7495512e-12      3174.7704 
 2260000      287   4.897419e-12      3264.1584 
 2270000      287  1.5922079e-12      3334.2143 
 2280000      287  7.9760997e-13      3399.6944 
 2290000      287  9.8129996e-13      3452.7022 
 2300000      287  1.5086087e-12       3519.673 
 2310000      287   2.439845e-12      3595.3237 
 2320000      287  3.5188885e-12      3684.0433 
 2330000      287  1.4580177e-12      3751.9381 
 2340000      287  1.7749791e-12      3821.9073 
 2350000      287   1.845319e-12      3883.0645 
 2360000      287  2.5697068e-12      3953.7053 
 2370000      287  1.2226968e-12      4196.6784 
 2380000      287  1.7974527e-12      4385.1351 
 2390000      287  1.1405091e-12      4446.5706 
 2400000      287  1.0558682e-12      4659.6224 
 2410000      287  1.5111957e-12      4832.4436 
 2420000      287  2.7191583e-12      4970.2412 
 2430000      287  4.4597686e-12      5056.5846 
 2440000      287  1.4044489e-12       5113.555 
 2450000      287  7.1205335e-13      5169.4392 
 2460000      287  7.2123296e-13      5218.4389 
 2470000      287  6.4163427e-13       5255.727 
 2480000      287  6.4762494e-13       5296.108 
 2490000      287  7.0027673e-13      5334.5902 
 2500000      287  6.5997783e-13      5377.3638 
 2510000      287  9.9098427e-13      5421.5348 
 2520000      287   2.067958e-12      5484.3637 
 2530000      287  2.4845849e-12       5556.314 
 2540000      287  2.9621994e-12       5626.948 
 2550000      287  3.6194024e-12       5700.913 
 2560000      287  4.1327389e-12      5777.1388 
 2570000      287  4.7898402e-12      5857.0518 
 2580000      287  4.2126383e-12       5936.816 
 2590000      287  2.4687705e-12      6009.2228 
 2600000      287  1.2939581e-12      6080.3865 
 2610000      287  6.8022814e-13      6125.5079 
 2620000      287  6.7974464e-13      6163.8695 
 2630000      287  6.8489765e-13      6204.2446 
 2640000      287  6.8357607e-13      6242.3493 
 2650000      287  6.8580049e-13      6284.1298 
 2660000      287   6.938411e-13      6322.0874 
 2670000      287  6.9971333e-13      6360.6686 
 2680000      287  6.9777808e-13      6403.3703 
 2690000      287  6.8784957e-13      6434.4787 
 2700000      287  6.7794483e-13      6469.9664 
 2710000      287  6.8444516e-13      6509.3306 
 2720000      287  6.8097374e-13      6541.7686 
 2730000      287  6.7543564e-13      6582.2323 
 2740000      287  6.8084127e-13      6807.6615 
 2750000      287  6.8642975e-13      6966.4592 
 2760000      287  7.1026253e-13      7104.6564 
 2770000      287  7.4834057e-13      7328.9717 
 2780000      287  7.1600185e-13      7403.8965 
 2790000      287  7.0815754e-13      7646.4761 
 2800000      287  7.1380066e-13      7742.4298 
 2810000      287  7.0729735e-13      7971.8122 
 2820000      287  7.2297532e-13      8099.9097 
 2830000      287  7.1931106e-13      8286.0911 
 2840000      287  6.8663589e-13      8463.9097 
 2850000      287  6.8957814e-13      8497.7176 
 2860000      287  6.8011716e-13      8538.6595 
 2870000      287  6.8022464e-13      8664.6974 
 2880000      287  6.9963094e-13      8933.2802 
 2890000      287  6.9863537e-13      8970.2856 
 2900000      287  7.0101779e-13      9010.4997 
 2910000      287  7.0577848e-13      9046.2432 
 2920000      287  7.0633759e-13      9084.0673 
 2930000      287   7.183293e-13      9124.9861 
 2940000      287  7.1151919e-13      9166.1458 
 2950000      287  6.9989829e-13      9204.1173 
 2960000      287  6.8819894e-13      9238.6833 
 2970000      287  6.8622018e-13      9278.3592 
 2980000      287  6.8068852e-13      9316.2316 
 2990000      287  6.8636374e-13      9352.9638 
 3000000      287  6.9338822e-13      9393.3912 
 3010000      287  6.9721986e-13      9433.0797 
 3020000      287  7.0354272e-13      9474.7564 
 3030000      287  7.1891976e-13      9517.1343 
 3040000      287  7.1970175e-13      9558.5639 
 3050000      287  7.2634183e-13       9594.048 
 3060000      287  7.3634099e-13      9632.6436 
 3070000      287  7.1656541e-13      9669.1519 
 3080000      287  7.0583555e-13       9693.272 
 3090000      287  6.9902368e-13      9725.7004 
 3100000      287  6.9751712e-13      9764.3316 
 3110000      287  6.8083231e-13       9798.839 
 3120000      287  6.8692403e-13      9833.6903 
 3130000      287  6.8513902e-13      9873.5898 
 3140000      287  6.9962828e-13      9917.6854 
 3150000      287  7.0889995e-13      9956.0517 
 3160000      287  7.1640446e-13      9993.4029 
 3170000      287  7.1417441e-13      10021.989 
 3180000      287  7.0627045e-13       10056.85 
 3190000      287  7.2450554e-13      10096.698 
 3200000      287  7.2246528e-13       10133.49 
 3210000      287  7.1146331e-13      10174.806 
 3220000      287  7.0537214e-13      10226.806 
 3230000      287  6.9563811e-13      10278.578 
 3240000      287   6.924911e-13      10327.357 
 3250000      287  6.8279365e-13      10379.224 
 3260000      287   6.899635e-13      10430.729 
 3270000      287  6.8739995e-13      10483.215 
 3280000      287  7.0350766e-13      10528.415 
 3290000      287   7.102499e-13      10580.876 
 3300000      287  7.1949595e-13      10633.133 
 3310000      287  7.1573517e-13      10685.106 
 3320000      287  7.1845514e-13       10734.82 
 3330000      287  7.1756569e-13      10786.928 
 3340000      287  7.0448755e-13      10838.959 
 3350000      287  7.0090773e-13      10887.583 
 3360000      287  6.8355466e-13      10939.679 
 3370000      287  7.0210163e-13      10992.066 
 3380000      287  7.0340588e-13      11044.508 
 3390000      287  6.7437362e-13       11096.68 
 3400000      287   6.770695e-13      11153.269 
 3410000      287  6.9598063e-13      11202.999 
 3420000      287  7.1136726e-13      11252.325 
 3430000      287  7.1676264e-13      11305.127 
 3440000      287  7.2729216e-13      11357.514 
 3450000      287  7.2599727e-13      11409.416 
 3460000      287  7.1953308e-13      11461.417 
 3470000      287  7.0749707e-13      11513.895 
 3480000      287  7.0329816e-13      11555.285 
 3490000      287   6.821103e-13      11606.096 
 3500000      287  6.7118906e-13      11658.878 
 3510000      287  6.7268397e-13      11711.141 
 3520000      287  6.7328678e-13      11763.239 
 3530000      287  6.7888365e-13      11815.461 
 3540000      287  6.9229965e-13      11867.757 
 3550000      287  7.0352241e-13      11912.644 
 3560000      287  7.1100172e-13      11952.636 
 3570000      287    7.19876e-13      11993.584 
 3580000      287  7.2530545e-13      12045.682 
 3590000      287  7.1656519e-13      12097.931 
 3600000      287  7.0165157e-13      12158.071 
 3610000      287  6.9995487e-13       12210.38 
 3620000      287  6.8874538e-13      12263.112 
 3630000      287  6.7216982e-13      12315.379 
 3640000      287  6.7234998e-13      12343.069 
 3650000      287  6.7376845e-13      12382.064 
 3660000      287  6.7817572e-13      12418.145 
 3670000      287  6.8987102e-13      12455.755 
 3680000      287  7.0583391e-13      12495.018 
 3690000      287  7.0659762e-13      12534.363 
 3700000      287  7.2339061e-13      12571.754 
 3710000      287  7.2448288e-13      12613.055 
 3720000      287  7.2111098e-13      12653.476 
 3730000      287  7.0640872e-13      12688.302 
 3740000      287  7.0425478e-13      12729.533 
 3750000      287  6.8880529e-13      12765.879 
 3760000      287  6.7057938e-13      12805.758 
 3770000      287  6.7983046e-13      12844.605 
 3780000      287  6.7721203e-13      12885.429 
 3790000      287  6.8947848e-13      12923.506 
 3800000      287  7.0521469e-13      12968.578 
 3810000      287  7.1578646e-13       13022.69 
 3820000      287  7.2237097e-13      13075.636 
 3830000      287  7.2985228e-13       13160.24 
 3840000      287  7.3082721e-13      13391.603 
 3850000      287  7.2823544e-13      13597.185 
 3860000      287  7.1375199e-13      13868.194 
 3870000      287  7.1361243e-13       14071.88 
 3880000      287   7.026968e-13      14142.461 
 3890000      287   6.886813e-13      14196.556 
 3900000      287  6.8219937e-13      14250.117 
 3910000      287  6.8769421e-13      14302.226 
 3920000      287  6.9512309e-13      14355.247 
 3930000      287  7.0630893e-13      14408.749 
 3940000      287   7.196573e-13      14462.421 
 3950000      287  7.2779339e-13      14515.407 
 3960000      287   7.415276e-13      14565.869 
 3970000      287  7.3971174e-13      14619.958 
 3980000      287   7.340458e-13      14673.765 
 3990000      287  7.1403069e-13      14727.112 
 4000000      287  7.2028191e-13      14786.914 
 4010000      287  7.0546765e-13      14841.152 
 4020000      287  6.9154481e-13      14886.186 
 4030000      287  6.9802742e-13      14926.975 
 4040000      287  7.0606116e-13      14965.557 
 4050000      287  7.0967258e-13      15007.081 
 4060000      287  7.2936739e-13      15046.229 
 4070000      287   7.384409e-13       15088.15 
 4080000      287   7.349035e-13      15129.652 
 4090000      287   7.496702e-13      15387.853 
 4100000      287  7.4986579e-13      15623.304 
 4110000      287   7.283837e-13      15817.113 
 4120000      287  7.2035367e-13       15997.32 
 4130000      287  7.3337831e-13       16173.82 
 4140000      287  7.5089972e-13      16402.396 
 4150000      287  7.4915537e-13      16439.592 
 4160000      287  6.9989195e-13      16470.816 
 4170000      287  7.0475498e-13      16589.974 
 4180000      287  7.1898616e-13      16760.659 
 4190000      287  7.3026508e-13      16800.388 
 4200000      287  7.4061753e-13      16843.105 
 4210000      287  7.3170883e-13      16882.806 
 4220000      287  7.3986497e-13      16915.707 
 4230000      287  7.3697038e-13       16953.62 
 4240000      287  7.3144144e-13      16994.255 
 4250000      287  7.2308676e-13       17024.09 
 4260000      287  7.1499513e-13       17056.67 
 4270000      287  7.1161616e-13      17098.784 
 4280000      287  6.9976323e-13      17139.846 
 4290000      287  6.9434378e-13      17181.367 
 4300000      287   6.955721e-13      17221.957 
 4310000      287  6.9847239e-13      17263.138 
 4320000      287  7.1594772e-13      17305.717 
 4330000      287  7.2030429e-13      17347.192 
 4340000      287  7.2468927e-13       17390.45 
 4350000      287  7.2832106e-13      17422.151 
 4360000      287  7.2191829e-13      17456.628 
 4370000      287  7.2314197e-13      17499.692 
 4380000      287  7.1941879e-13      17537.036 
 4390000      287  7.0611513e-13      17574.034 
 4400000      287  6.9992059e-13      17620.184 
 4410000      287  6.9280259e-13      17657.419 
 4420000      287  6.7916362e-13        17700.8 
 4430000      287  6.7408371e-13      17740.006 
 4440000      287  6.9421723e-13      17778.884 
 4450000      287  7.1221695e-13      17819.135 
 4460000      287  7.1710014e-13      17856.019 
 4470000      287  7.2449753e-13       17891.27 
 4480000      287  7.2659564e-13      17933.452 
 4490000      287  7.2369883e-13      17970.385 
 4500000      287   7.204986e-13      18009.549 
 4510000      287  7.1220668e-13      18049.554 
 4520000      287  6.9864378e-13      18088.441 
 4530000      287  6.8640855e-13      18128.636 
 4540000      287  6.8616037e-13      18164.722 
 4550000      287  6.8144883e-13      18206.231 
 4560000      287  6.8246647e-13      18246.622 
 4570000      287  7.0338542e-13      18287.574 
 4580000      287  7.1299823e-13      18326.694 
 4590000      287   7.229652e-13      18368.424 
 4600000      287   7.206297e-13      18414.735 
 4610000      287   7.273808e-13      18455.026 
 4620000      287  7.2446217e-13      18492.055 
 4630000      287  7.2769039e-13       18533.66 
 4640000      287  7.1575979e-13      18574.836 
 4650000      287  7.0014882e-13       18614.69 
 4660000      287  6.9240198e-13      18655.395 
 4670000      287  6.8416369e-13      18697.813 
 4680000      287  6.7512949e-13      18740.174 
 4690000      287  6.7502161e-13      18778.254 
 4700000      287  6.9557852e-13      18815.601 
 4710000      287  7.1200606e-13      18854.446 
 4720000      287  7.2200572e-13      18896.251 
 4730000      287  7.1867748e-13      18934.899 
 4740000      287  7.2141752e-13      18975.267 
 4750000      287  7.2599578e-13      19014.092 
 4760000      287  7.2491453e-13      19054.407 
 4770000      287  7.0394826e-13      19093.076 
 4780000      287   6.960667e-13      19131.793 
 4790000      287  6.8540063e-13      19171.126 
 4800000      287  6.7908338e-13      19212.536 
 4810000      287  6.7566553e-13      19249.507 
 4820000      287  6.8858448e-13      19297.787 
 4830000      287  6.9548278e-13      19351.382 
 4840000      287  7.0980463e-13      19405.396 
 4850000      287  7.2137251e-13      19451.033 
 4860000      287   7.198316e-13      19499.498 
 4870000      287  7.2456769e-13      19553.762 
 4880000      287  7.1988373e-13      19605.496 
 4890000      287  7.2084632e-13      19655.698 
 4900000      287  7.0746191e-13      19709.514 
 4910000      287  6.9488907e-13       19761.53 
 4920000      287  6.8859766e-13      19811.222 
 4930000      287  6.7518605e-13      19866.134 
 4940000      287  6.8044003e-13      19916.652 
 4950000      287  6.9769786e-13      19966.707 
 4960000      287  7.0431798e-13      20020.528 
 4970000      287  7.1752623e-13      20072.615 
 4980000      287  7.2700599e-13       20122.64 
 4990000      287  7.3392084e-13      20176.551 
 5000000      287  7.4524764e-13       20233.47 
 5010000      287  7.3197402e-13      20274.764 
 5020000      287  7.2252103e-13      20312.396 
 5030000      287  7.1960177e-13      20351.249 
 5040000      287  7.0516312e-13      20390.513 
 5050000      287  6.8880643e-13      20432.922 
 5060000      287  6.8512416e-13      20475.282 
 5070000      287  6.9173591e-13      20515.907 
 5080000      287   7.027663e-13       20559.23 
 5090000      287  7.1725226e-13      20596.042 
 5100000      287  7.3812613e-13      20635.694 
 5110000      287  7.4705362e-13      20691.077 
 5120000      287  7.4571989e-13      20744.891 
 5130000      287   7.613074e-13      20813.884 
 5140000      287  7.4805105e-13      21040.904 
 5150000      287  7.4154367e-13      21306.097 
 5160000      287  7.3201765e-13      21525.779 
 5170000      287  7.4919759e-13      21718.345 
 5180000      287  7.0952883e-13      21768.665 
 5190000      287  7.0974486e-13      21820.088 
 5200000      287  7.0312869e-13      21896.481 
 5210000      287   7.114575e-13      21952.378 
 5220000      287  7.2537794e-13      22006.679 
 5230000      287  7.4126364e-13      22060.735 
 5240000      287  7.3687424e-13      22115.683 
 5250000      287  7.5352087e-13        22169.9 
 5260000      287  7.5303268e-13       22220.23 
 5270000      287  7.5540459e-13      22273.871 
 5280000      287   7.441797e-13      22329.411 
 5290000      287  7.4241197e-13      22384.137 
 5300000      287   7.314464e-13       22439.51 
 5310000      287  7.0819793e-13      22493.053 
 5320000      287  6.9410082e-13      22546.576 
 5330000      287  6.9468363e-13      22600.515 
 5340000      287  7.0254695e-13      22650.889 
 5350000      287   7.162461e-13      22703.372 
 5360000      287  7.1551132e-13      22757.196 
 5370000      287  7.3150933e-13      22810.568 
 5380000      287  7.3109293e-13      22860.901 
 5390000      287  7.3811937e-13      22913.313 
 5400000      287  7.1924029e-13      22970.936 
 5410000      287  7.2990099e-13      23022.311 
 5420000      287  7.2815517e-13      23072.535 
 5430000      287  7.0305828e-13      23123.941 
 5440000      287  7.0952218e-13      23176.121 
 5450000      287  6.9656379e-13      23228.776 
 5460000      287  6.8435994e-13      23278.348 
 5470000      287  6.9164465e-13      23313.136 
 5480000      287  7.1289343e-13      23349.355 
 5490000      287  7.1153859e-13      23389.799 
 5500000      287  7.2223161e-13      23420.501 
 5510000      287  7.1808416e-13      23458.987 
 5520000      287  7.2338641e-13      23499.376 
 5530000      287  7.2317518e-13      23540.087 
 5540000      287  7.3004607e-13      23577.588 
 5550000      287  7.2619487e-13       23620.03 
 5560000      287  7.2385221e-13      23661.418 
 5570000      287  7.1059032e-13      23704.298 
 5580000      287  7.0323375e-13      23738.967 
 5590000      287  6.9980192e-13       23773.83 
 5600000      287  7.1843766e-13      23818.743 
 5610000      287  7.0482484e-13       23862.25 
 5620000      287  7.2023945e-13      23905.687 
 5630000      287  7.2402401e-13      23956.499 
 5640000      287  7.3511783e-13      24010.717 
 5650000      287  7.3611732e-13      24063.845 
 5660000      287  7.5857967e-13      24300.053 
 5670000      287  7.4737846e-13      24502.609 
 5680000      287  7.4262579e-13      24717.043 
 5690000      287  7.3472685e-13      24917.117 
 5700000      287  7.2975485e-13      25037.908 
 5710000      287  7.1093108e-13      25090.952 
 5720000      287  7.0789025e-13      25147.659 
 5730000      287  7.1170573e-13      25203.361 
 5740000      287  7.2047527e-13      25257.453 
 5750000      287   7.326547e-13      25314.764 
 5760000      287  7.2977367e-13      25372.665 
 5770000      287  7.4695168e-13      25430.039 
 5780000      287  7.6460907e-13      25486.744 
 5790000      287  7.6853915e-13      25542.776 
 5800000      287  7.5823449e-13      25615.467 
 5810000      287  7.5016546e-13      25671.179 
 5820000      287  7.3556948e-13      25728.631 
 5830000      287  6.9370266e-13      25848.955 
 5840000      287  7.0742704e-13      25964.296 
 5850000      287  7.2284437e-13      26000.459 
 5860000      287  7.2746934e-13      26040.043 
 5870000      287   7.373895e-13      26080.465 
 5880000      287  7.4663259e-13      26123.743 
 5890000      287   7.532393e-13      26155.031 
 5900000      287  7.5273421e-13      26194.955 
 5910000      287  7.6184362e-13      26240.322 
 5920000      287   7.609716e-13      26475.003 
 5930000      287  7.5543644e-13      26623.931 
 5940000      287  7.3441477e-13      26816.892 
 5950000      287   7.178456e-13      27077.881 
 5960000      287  7.1969945e-13      27256.876 
 5970000      287  7.2389139e-13      27397.848 
 5980000      287  7.2610871e-13      27534.993 
 5990000      287  7.3577783e-13       27575.24 
 6000000      287  7.4147608e-13      27614.315 
 6010000      287  7.4325288e-13      27757.881 
 6020000      287  7.5003507e-13      27847.075 
 6030000      287  7.5709794e-13      27888.927 
 6040000      287  7.7070019e-13      27928.736 
 6050000      287  7.6068336e-13      27970.894 
 6060000      287  7.3288437e-13      28008.075 
 6070000      287  7.1700828e-13      28048.282 
 6080000      287  6.9352251e-13      28086.931 
 6090000      287  6.9816981e-13      28127.275 
 6100000      287  7.0839397e-13      28178.192 
 6110000      287  7.3157904e-13      28229.842 
 6120000      287  7.1505475e-13      28282.767 
 6130000      287  7.2949217e-13      28335.305 
 6140000      287  7.3809424e-13      28383.714 
 6150000      287  7.5226776e-13      28437.198 
 6160000      287  7.4101671e-13      28489.324 
 6170000      287  7.3522648e-13      28542.103 
 6180000      287  7.2720281e-13      28593.862 
 6190000      287  7.1793939e-13      28647.519 
 6200000      287  7.0924188e-13      28710.168 
 6210000      287  6.9239946e-13      28763.651 
 6220000      287   6.950802e-13      28813.145 
 6230000      287  6.9162787e-13      28865.213 
 6240000      287  6.9304405e-13       28917.23 
 6250000      287   7.066579e-13      28969.628 
 6260000      287  7.1765835e-13      29021.453 
 6270000      287  7.3112057e-13      29072.546 
 6280000      287  7.4102966e-13      29124.128 
 6290000      287  7.3425519e-13      29172.088 
 6300000      287  7.3232282e-13      29219.117 
 6310000      287   7.153124e-13      29270.431 
 6320000      287  7.0394895e-13      29322.514 
 6330000      287  7.0451434e-13      29371.196 
 6340000      287  6.8680341e-13      29423.045 
 6350000      287  6.8175952e-13      29475.644 
 6360000      287  6.8478818e-13      29523.038 
 6370000      287  6.8774974e-13      29575.249 
 6380000      287  6.9334979e-13      29624.019 
 6390000      287  7.0807794e-13      29672.946 
 6400000      287  7.1272638e-13      29717.798 
 6410000      287  7.1782867e-13      29755.427 
 6420000      287  7.1494558e-13      29788.286 
 6430000      287  7.0743637e-13      29827.388 
 6440000      287  7.1105271e-13      29870.715 
 6450000      287  7.0347968e-13      29909.813 
 6460000      287  6.9093301e-13      29943.011 
 6470000      287  7.0367843e-13      29985.788 
 6480000      287  6.7037429e-13      30023.857 
 6490000      287  6.6873988e-13      30061.479 
 6500000      287  6.7473653e-13      30101.999 
 6510000      287  6.8902202e-13      30143.645 
 6520000      287  6.9356402e-13      30184.945 
 6530000      287  7.0689679e-13      30226.258 
 6540000      287  7.0519817e-13      30261.164 
 6550000      287  7.0979911e-13      30290.105 
 6560000      287  7.1913065e-13      30331.719 
 6570000      287  7.1328496e-13      30370.923 
 6580000      287  7.1522066e-13      30407.756 
 6590000      287  7.0570675e-13       30446.64 
 6600000      287  7.0382436e-13      30490.301 
 6610000      287   6.922105e-13      30532.713 
 6620000      287  6.7803707e-13      30568.097 
 6630000      287  6.8055023e-13      30604.018 
 6640000      287  6.9730039e-13      30643.972 
 6650000      287  7.0871471e-13      30684.095 
 6660000      287  7.2271002e-13      30719.164 
 6670000      287  7.4700652e-13      30759.016 
 6680000      287  7.4642024e-13      30798.311 
 6690000      287    7.64539e-13      30828.271 
 6700000      287  7.5924608e-13      30861.053 
 6710000      287  7.6839101e-13      30901.846 
 6720000      287  7.3583004e-13      30940.061 
 6730000      287  7.1722414e-13      30979.045 
 6740000      287   6.924443e-13      31022.232 
 6750000      287  7.0563365e-13      31061.739 
 6760000      287  7.0756183e-13      31099.233 
 6770000      287  7.2254068e-13      31142.869 
 6780000      287   7.446395e-13      31183.266 
 6790000      287  7.5438543e-13      31222.672 
 6800000      287  7.6002734e-13      31267.677 
 6810000      287  7.7337139e-13      31304.688 
 6820000      287  7.6408524e-13      31339.567 
 6830000      287  7.5503258e-13      31381.417 
 6840000      287  7.4431691e-13      31417.917 
 6850000      287  7.3512595e-13      31453.396 
 6860000      287  7.0787572e-13      31492.063 
 6870000      287  7.0557328e-13      31526.687 
 6880000      287  7.0723662e-13      31560.627 
 6890000      287  7.1506705e-13      31601.827 
 6900000      287  7.3427363e-13      31642.753 
 6910000      287  7.4474105e-13      31686.366 
 6920000      287  7.4886222e-13      31739.786 
 6930000      287  7.5179506e-13      31793.053 
 6940000      287  7.6135234e-13      31845.285 
 6950000      287  7.6842461e-13       31894.88 
 6960000      287  7.4924578e-13      31947.576 
 6970000      287   7.198393e-13      31996.065 
 6980000      287  7.0798571e-13      32045.251 
 6990000      287  7.0093415e-13       32097.36 
 7000000      287  7.0501436e-13      32157.639 
 7010000      287  7.0298042e-13      32207.028 
 7020000      287  7.1436144e-13      32255.546 
 7030000      287  7.2729298e-13      32305.941 
 7040000      287  7.3423603e-13      32358.473 
 7050000      287   7.463066e-13      32407.983 
 7060000      287  7.5463282e-13      32450.993 
 7070000      287  7.4450611e-13      32495.567 
 7080000      287   7.221166e-13      32539.788 
 7090000      287  7.2664972e-13      32583.602 
 7100000      287  7.0637638e-13      32626.884 
 7110000      287  7.0580796e-13      32668.925 
 7120000      287  6.9903138e-13      32713.623 
 7130000      287  6.9428029e-13      32757.941 
 7140000      287  7.0234284e-13      32801.188 
 7150000      287   7.073317e-13      32845.343 
 7160000      287  7.1561159e-13      32889.516 
 7170000      287  7.3434834e-13      32933.954 
 7180000      287  7.5693341e-13      32979.268 
 7190000      287  7.6390337e-13      33019.658 
 7200000      287   7.412317e-13      33068.668 
 7210000      287  7.2839151e-13      33113.445 
 7220000      287  7.0580543e-13      33157.966 
 7230000      287  6.9487761e-13      33202.026 
 7240000      287    6.88787e-13       33247.94 
 7250000      287  6.8774643e-13      33292.424 
 7260000      287  6.9108358e-13      33337.337 
 7270000      287  6.9521978e-13      33378.264 
 7280000      287  7.0195655e-13      33422.181 
 7290000      287  7.2478976e-13      33467.287 
 7300000      287  7.3518528e-13      33512.372 
 7310000      287  7.4903363e-13      33556.355 
 7320000      287  7.4098517e-13      33601.569 
 7330000      287  7.2969854e-13      33644.967 
 7340000      287  7.0633205e-13      33689.486 
 7350000      287   7.091492e-13      33730.418 
 7360000      287  7.4880952e-13      33773.572 
 7370000      287  6.9755887e-13      33818.043 
 7380000      287  6.9253935e-13      33862.274 
 7390000      287   7.099114e-13      33905.908 
 7400000      287   7.045874e-13      33954.071 
 7410000      287  7.2540491e-13      33998.203 
 7420000      287  7.2800712e-13      34042.541 
 7430000      287   7.542446e-13      34084.385 
 7440000      287  7.3963071e-13      34128.496 
 7450000      287  7.4862192e-13      34172.734 
 7460000      287  7.3940181e-13      34217.118 
 7470000      287  7.3324307e-13      34260.089 
 7480000      287  7.0785263e-13      34304.795 
 7490000      287  6.9467242e-13      34348.843 
 7500000      287  6.8022083e-13      34392.853 
 7510000      287  6.8337254e-13      34433.891 
 7520000      287   6.844868e-13      34478.402 
 7530000      287  6.9898149e-13       34524.02 
 7540000      287  7.0641303e-13      34569.388 
 7550000      287  7.0937906e-13       34613.54 
 7560000      287  7.0409181e-13      34658.863 
 7570000      287  7.3373262e-13      34702.555 
 7580000      287   7.368559e-13      34746.479 
 7590000      287  7.3847202e-13      34788.782 
 7600000      287  7.2062098e-13      34836.253 
 7610000      287  7.0887603e-13      34880.486 
 7620000      287  6.9354829e-13      34924.803 
 7630000      287  6.9203213e-13      34969.926 
 7640000      287  6.9061073e-13      35015.614 
 7650000      287  6.9581851e-13      35060.274 
 7660000      287  6.9692418e-13      35104.976 
 7670000      287  7.0577636e-13      35146.216 
 7680000      287  7.0396364e-13      35189.877 
 7690000      287  7.3538507e-13      35235.018 
 7700000      287  7.4018012e-13      35279.361 
 7710000      287  7.4587574e-13      35323.961 
 7720000      287  7.2936825e-13      35369.598 
 7730000      287  7.2896833e-13      35415.027 
 7740000      287  7.1844543e-13       35458.73 
 7750000      287  7.1342535e-13      35498.869 
 7760000      287  6.9791213e-13      35543.688 
 7770000      287  6.8315666e-13      35587.601 
 7780000      287  6.9357419e-13      35631.043 
 7790000      287  6.9738386e-13      35675.301 
 7800000      287  7.1326973e-13      35723.029 
 7810000      287  7.2951099e-13      35767.127 
 7820000      287  7.4376497e-13      35810.502 
 7830000      287  7.4281401e-13      35851.371 
 7840000      287  7.4998154e-13       35896.37 
 7850000      287  7.4585492e-13      35937.168 
 7860000      287  7.4244415e-13      35977.946 
 7870000      287  7.2502509e-13       36018.84 
 7880000      287  7.1063018e-13      36059.644 
 7890000      287  6.9402478e-13      36100.452 
 7900000      287  6.8705793e-13      36140.867 
 7910000      287  7.0968489e-13      36179.121 
 7920000      287  7.1301255e-13      36219.672 
 7930000      287  7.2931817e-13      36260.612 
 7940000      287  7.4449721e-13      36301.566 
 7950000      287  7.5368513e-13      36341.263 
 7960000      287  7.4247001e-13      36381.467 
 7970000      287  7.4773693e-13      36422.415 
 7980000      287  7.5695262e-13      36463.995 
 7990000      287  7.2641387e-13      36502.433 
 8000000      287  7.1738077e-13      36547.636 
 8010000      287  6.9364252e-13      36587.881 
 8020000      287  6.9164397e-13      36629.405 
 8030000      287  6.9120595e-13      36668.657 
 8040000      287  6.9039998e-13      36709.777 
 8050000      287  7.1638964e-13      36750.476 
 8060000      287  7.1999537e-13       36792.21 
 8070000      287  7.3107058e-13      36830.735 
 8080000      287  7.5209338e-13        36870.7 
 8090000      287  7.5439287e-13       36911.92 
 8100000      287  7.5628649e-13      36953.267 
 8110000      287  7.2826718e-13      36994.092 
 8120000      287  7.0999237e-13      37034.374 
 8130000      287  6.7784147e-13      37075.891 
 8140000      287  6.9000357e-13      37117.844 
 8150000      287  6.8294103e-13      37156.675 
 8160000      287  6.7679408e-13      37199.256 
 8170000      287  7.0111812e-13      37239.814 
 8180000      287  6.9674966e-13      37280.843 
 8190000      287  7.1423332e-13      37321.877 
 8200000      287  7.3303263e-13      37368.008 
 8210000      287  7.6380344e-13      37410.239 
 8220000      287  7.6559117e-13      37452.194 
 8230000      287  7.5965676e-13      37492.333 
 8240000      287  7.2448598e-13      37535.019 
 8250000      287  7.0733946e-13       37577.09 
 8260000      287  6.8315779e-13      37617.791 
 8270000      287  6.9026623e-13      37660.719 
 8280000      287   6.785196e-13      37701.675 
 8290000      287  6.8076379e-13      37743.996 
 8300000      287  6.8239448e-13      37785.184 
 8310000      287  6.8485243e-13      37824.731 
 8320000      287  7.0711797e-13      37866.412 
 8330000      287  7.4368427e-13      37907.957 
 8340000      287  7.5953076e-13      37950.698 
 8350000      287  7.6497976e-13      37993.716 
 8360000      287    7.38499e-13      38035.136 
 8370000      287  7.2187743e-13      38077.566 
 8380000      287  6.9510298e-13      38121.926 
 8390000      287  6.9513326e-13      38164.411 
 8400000      287  6.8342688e-13      38213.313 
 8410000      287  6.8808496e-13      38258.013 
 8420000      287  6.9407236e-13      38302.717 
 8430000      287  6.9519106e-13      38346.697 
 8440000      287  7.2215731e-13      38392.029 
 8450000      287  7.4944453e-13      38435.841 
 8460000      287  7.4795319e-13      38480.031 
 8470000      287  7.6330905e-13      38521.178 
 8480000      287  7.6428747e-13      38564.983 
 8490000      287  7.5844101e-13       38609.07 
 8500000      287   7.264752e-13      38653.668 
 8510000      287  7.0588045e-13      38698.159 
 8520000      287  6.7455657e-13      38742.771 
 8530000      287  6.8627086e-13      38786.861 
 8540000      287  6.7652505e-13      38833.678 
 8550000      287  6.7953455e-13      38885.721 
 8560000      287  6.8018115e-13      38939.665 
 8570000      287  7.1818405e-13      38989.318 
 8580000      287   7.188885e-13      39045.341 
 8590000      287  7.5288095e-13       39099.19 
 8600000      287  7.5723816e-13      39161.495 
 8610000      287  7.6303067e-13      39215.153 
 8620000      287    7.51074e-13      39265.435 
 8630000      287  7.2113335e-13      39317.227 
 8640000      287  6.9643454e-13      39371.845 
 8650000      287  6.8352669e-13      39424.011 
 8660000      287  6.8246616e-13      39478.867 
 8670000      287  6.8351633e-13      39530.464 
 8680000      287  6.8015549e-13      39583.808 
 8690000      287  6.8623206e-13      39638.955 
 8700000      287  6.8698672e-13       39691.89 
 8710000      287  7.0997199e-13       39742.62 
 8720000      287  7.3654069e-13      39792.645 
 8730000      287  7.5455856e-13      39847.697 
 8740000      287  7.5471095e-13      39900.742 
 8750000      287  7.4242088e-13      39953.862 
 8760000      287  7.1400592e-13      40003.439 
 8770000      287  7.0438232e-13      40058.459 
 8780000      287  6.9631242e-13      40113.619 
 8790000      287  7.0633111e-13      40162.249 
 8800000      287  7.0971169e-13       40224.21 
 8810000      287  7.0014534e-13      40279.567 
 8820000      287  7.0240598e-13      40333.334 
 8830000      287  7.2407631e-13      40385.648 
 8840000      287  7.3548344e-13      40437.562 
 8850000      287  7.4602167e-13      40492.878 
 8860000      287  7.7872427e-13      40548.089 
 8870000      287  7.6103829e-13      40596.169 
 8880000      287  7.4890391e-13      40648.728 
 8890000      287   7.208284e-13      40697.448 
 8900000      287  7.2555995e-13      40752.901 
 8910000      287   7.112255e-13      40806.468 
 8920000      287  7.0091514e-13      40858.557 
 8930000      287  7.0063222e-13      40907.191 
 8940000      287  6.9853873e-13      40961.775 
 8950000      287   6.981701e-13      41012.944 
 8960000      287   7.077068e-13      41064.532 
 8970000      287  7.4117782e-13      41115.882 
 8980000      287   7.497304e-13      41168.171 
 8990000      287  7.4081504e-13      41222.155 
 9000000      287  7.3998534e-13      41280.353 
 9010000      287  7.2082165e-13      41333.308 
 9020000      287  6.9017685e-13      41380.014 
 9030000      287  6.9389015e-13      41430.792 
 9040000      287  6.8684275e-13       41484.18 
 9050000      287  6.7241585e-13       41533.87 
 9060000      287  6.7414869e-13      41581.307 
 9070000      287  6.8009977e-13      41635.831 
 9080000      287   6.801178e-13        41690.2 
 9090000      287  7.1219771e-13      41738.753 
 9100000      287  7.3609981e-13      41791.696 
 9110000      287  7.4346804e-13        41827.7 
 9120000      287   7.390908e-13      41882.252 
 9130000      287  7.4121007e-13      41937.224 
 9140000      287  7.1890894e-13      41985.956 
 9150000      287  6.9387398e-13       42032.45 
 9160000      287  6.8048296e-13      42078.202 
 9170000      287  6.8399337e-13      42123.006 
 9180000      287   6.773524e-13      42168.971 
 9190000      287  6.7534918e-13      42210.369 
 9200000      287  6.7173659e-13      42259.916 
 9210000      287  6.8710342e-13      42305.635 
 9220000      287   7.019472e-13      42351.231 
 9230000      287  7.1414313e-13      42396.646 
 9240000      287  7.3610533e-13      42442.386 
 9250000      287  7.5429977e-13      42488.037 
 9260000      287  7.4221382e-13      42533.607 
 9270000      287  7.2041118e-13      42576.187 
 9280000      287   6.905212e-13        42621.4 
 9290000      287  6.9599945e-13      42667.289 
 9300000      287  6.9865749e-13      42713.525 
 9310000      287   6.830826e-13      42759.084 
 9320000      287  6.8250469e-13      42805.629 
 9330000      287  6.8403437e-13      42851.439 
 9340000      287  6.9098556e-13      42896.587 
 9350000      287  6.9471711e-13      42939.953 
 9360000      287  7.1329174e-13      42986.392 
 9370000      287   7.739379e-13       43032.83 
 9380000      287  7.5345792e-13      43078.334 
 9390000      287  7.3297687e-13      43123.605 
 9400000      287  7.1817967e-13      43173.584 
 9410000      287  7.0750683e-13      43218.313 
 9420000      287  6.8239183e-13      43263.568 
 9430000      287   6.927549e-13      43305.348 
 9440000      287  6.8584057e-13      43350.799 
 9450000      287   6.786073e-13      43396.749 
 9460000      287  6.7341672e-13      43442.533 
 9470000      287  6.7886127e-13      43488.665 
 9480000      287  6.9665749e-13      43534.124 
 9490000      287  7.1115838e-13      43579.298 
 9500000      287  7.2644789e-13      43625.523 
 9510000      287  7.4743469e-13      43667.428 
 9520000      287  7.3967081e-13      43714.368 
 9530000      287  7.2098823e-13      43760.753 
 9540000      287  7.1031216e-13      43807.304 
 9550000      287  6.9531079e-13      43854.179 
 9560000      287  6.9511418e-13      43900.007 
 9570000      287  6.9312237e-13      43945.268 
 9580000      287  6.9164313e-13      43990.733 
 9590000      287  6.8326844e-13      44034.583 
 9600000      287  6.8562142e-13      44084.541 
 9610000      287  6.9080207e-13      44130.242 
 9620000      287  7.1881289e-13      44177.127 
 9630000      287  7.4032518e-13      44221.501 
 9640000      287  7.5389341e-13      44266.096 
 9650000      287  7.3310158e-13      44310.245 
 9660000      287  7.1325903e-13      44355.693 
 9670000      287  7.0038721e-13      44398.916 
 9680000      287  6.8725067e-13      44445.436 
 9690000      287  6.9694251e-13      44491.087 
 9700000      287  6.9542316e-13       44536.25 
 9710000      287  6.9590798e-13      44581.866 
 9720000      287  6.9099147e-13      44628.182 
 9730000      287  6.9071338e-13      44673.917 
 9740000      287  7.0047011e-13      44719.967 
 9750000      287  7.2157728e-13      44764.184 
 9760000      287  7.3579493e-13      44807.493 
 9770000      287  7.3305513e-13      44853.057 
 9780000      287  7.2203371e-13      44898.244 
 9790000      287  7.1760817e-13      44944.524 
 9800000      287  7.0667683e-13       44994.98 
 9810000      287  7.0264518e-13      45041.757 
 9820000      287  7.0620133e-13      45086.979 
 9830000      287  7.0026239e-13      45132.693 
 9840000      287   7.012099e-13      45175.524 
 9850000      287  6.9788815e-13      45220.899 
 9860000      287  7.0362528e-13      45265.991 
 9870000      287  7.1150003e-13      45308.428 
 9880000      287  7.3545807e-13      45350.617 
 9890000      287  7.5440855e-13      45394.379 
 9900000      287  7.4917603e-13      45436.272 
 9910000      287  7.5444822e-13      45481.087 
 9920000      287   7.301164e-13      45522.356 
 9930000      287   7.247957e-13       45565.42 
 9940000      287  7.1076217e-13      45607.659 
 9950000      287  6.9932958e-13      45649.708 
 9960000      287  7.0255429e-13      45692.953 
 9970000      287  6.9659588e-13       45736.09 
 9980000      287  6.9552737e-13      45779.945 
 9990000      287  6.9815527e-13      45823.718 
10000000      287  7.0862541e-13      45868.468 
10010000      287   7.343616e-13      45911.983 
10020000      287  7.2796794e-13      45954.434 
10030000      287  7.3185588e-13      45996.906 
10040000      287   7.363791e-13      46038.902 
10050000      287  7.1133278e-13      46080.078 
10060000      287  7.0270179e-13      46122.887 
10070000      287  6.8397171e-13      46164.566 
10080000      287  6.8874407e-13      46204.028 
10090000      287   6.875647e-13      46246.692 
10100000      287  6.8488665e-13      46289.732 
10110000      287   6.861666e-13      46331.999 
10120000      287  6.7506036e-13      46374.318 
10130000      287  7.0799563e-13      46418.179 
10140000      287  7.2187508e-13      46461.034 
10150000      287  7.2388609e-13       46504.22 
10160000      287  7.2765551e-13      46544.146 
10170000      287  7.2418708e-13      46587.861 
10180000      287  7.1805252e-13      46630.805 
10190000      287  7.0757339e-13      46675.613 
10200000      287  6.8290637e-13      46724.353 
10210000      287  6.9166648e-13      46767.517 
10220000      287  6.8450961e-13      46810.793 
10230000      287  6.7440778e-13      46855.135 
10240000      287  6.8184884e-13      46894.236 
10250000      287  6.7860431e-13      46938.537 
10260000      287  6.9564974e-13      46982.135 
10270000      287  7.2657084e-13      47025.056 
10280000      287  7.4317918e-13      47067.555 
10290000      287  7.3311755e-13       47110.49 
10300000      287  7.2689906e-13      47153.378 
10310000      287  7.1713021e-13       47195.95 
10320000      287  7.1064761e-13      47236.443 
10330000      287  6.8583754e-13      47279.595 
10340000      287  6.8789839e-13      47325.237 
10350000      287  6.7752514e-13      47370.996 
10360000      287  6.7546529e-13      47416.172 
10370000      287  6.8047833e-13      47461.614 
10380000      287  6.8246828e-13      47506.755 
10390000      287  6.9885281e-13      47552.327 
10400000      287  7.2197841e-13       47599.34 
10410000      287  7.4213327e-13      47645.337 
10420000      287   7.174227e-13      47691.146 
10430000      287  7.2847882e-13       47736.83 
10440000      287  7.2313775e-13       47781.82 
10450000      287  7.0541468e-13      47827.391 
10460000      287   6.816393e-13      47873.443 
10470000      287  6.8917439e-13      47918.983 
10480000      287  6.7811325e-13      47964.003 
10490000      287  6.7817821e-13      48018.577 
10500000      287   6.804183e-13      48074.166 
10510000      287  6.8802517e-13       48121.03 
10520000      287  7.0814582e-13      48166.775 
10530000      287  7.2242001e-13      48213.224 
10540000      287  7.3953217e-13      48260.157 
10550000      287  7.3517885e-13      48305.152 
10560000      287  7.3965005e-13      48348.191 
10570000      287  7.0963504e-13      48394.579 
10580000      287  7.0386325e-13      48439.258 
10590000      287  6.8905027e-13       48484.04 
10600000      287  6.9943158e-13      48534.262 
10610000      287  6.8892206e-13      48580.039 
10620000      287  6.8399417e-13      48625.204 
10630000      287  6.8302625e-13      48671.806 
10640000      287  7.0101912e-13      48714.016 
10650000      287  7.1835219e-13      48759.365 
10660000      287   7.389834e-13      48805.154 
10670000      287  7.5502266e-13      48850.748 
10680000      287  7.6347592e-13      48896.341 
10690000      287  7.5309593e-13      48942.353 
10700000      287  7.2538499e-13      48987.748 
10710000      287  7.1235511e-13      49033.752 
10720000      287  7.0239577e-13      49077.568 
10730000      287  7.0547364e-13      49123.105 
10740000      287   6.930326e-13      49168.586 
10750000      287  6.9580296e-13      49215.153 
10760000      287  6.9264252e-13      49261.279 
10770000      287  6.9686362e-13      49305.648 
10780000      287  7.2288179e-13      49351.613 
10790000      287  7.4209011e-13      49397.046 
10800000      287  7.5433888e-13      49445.318 
10810000      287  7.6000527e-13      49490.925 
10820000      287  7.3697106e-13       49536.68 
10830000      287  7.2727519e-13       49581.99 
10840000      287   7.127296e-13      49626.441 
10850000      287  7.1335458e-13      49671.326 
10860000      287  6.8998776e-13      49716.894 
10870000      287   7.026262e-13      49762.784 
10880000      287  6.9718997e-13      49806.473 
10890000      287  7.0395392e-13      49852.234 
10900000      287  7.1462376e-13      49898.638 
10910000      287  7.3767334e-13      49943.861 
10920000      287  7.6616637e-13      49989.211 
10930000      287  7.7254662e-13      50033.625 
10940000      287  7.5609255e-13      50079.314 
10950000      287  7.4437376e-13      50125.012 
10960000      287  7.3982861e-13      50167.055 
10970000      287  7.1244489e-13      50213.223 
10980000      287  7.0968015e-13      50259.988 
10990000      287  7.0140191e-13      50306.231 
11000000      287  6.9905043e-13      50356.996 
11010000      287   7.033583e-13      50407.762 
11020000      287  7.0804913e-13      50456.557 
11030000      287  7.1633476e-13      50503.535 
11040000      287  7.3661835e-13      50545.946 
11050000      287  7.4931079e-13      50591.043 
11060000      287  7.4116547e-13      50638.113 
11070000      287  7.5131091e-13      50684.056 
11080000      287  7.3472699e-13      50729.739 
11090000      287  7.2387172e-13      50774.991 
11100000      287  6.9694059e-13      50821.906 
11110000      287  6.9024774e-13      50867.935 
11120000      287  6.9173105e-13      50911.634 
11130000      287  6.8928987e-13       50958.13 
11140000      287  6.8524952e-13      51005.528 
11150000      287  6.9809951e-13      51051.241 
11160000      287  7.0997569e-13      51098.245 
11170000      287  7.3702338e-13      51144.978 
11180000      287  7.4307772e-13      51191.427 
11190000      287  7.3819286e-13      51238.099 
11200000      287   7.374058e-13       51287.06 
11210000      287  7.2110946e-13      51332.846 
11220000      287  7.1349203e-13      51378.555 
11230000      287  6.8671397e-13      51424.425 
11240000      287  6.8893455e-13      51471.977 
11250000      287  6.7524909e-13      51513.734 
11260000      287  6.7945198e-13      51557.515 
11270000      287  6.8027451e-13      51601.465 
11280000      287  6.7614845e-13      51642.594 
11290000      287   6.893885e-13      51687.561 
11300000      287  7.3022152e-13      51731.519 
11310000      287  7.5012066e-13      51774.118 
11320000      287  7.5039604e-13      51816.748 
11330000      287  7.2212584e-13      51860.352 
11340000      287  7.2077042e-13      51902.383 
11350000      287  7.1927736e-13      51945.967 
11360000      287  6.8638241e-13       51986.19 
11370000      287  6.9454828e-13      52028.819 
11380000      287  6.7660816e-13      52071.029 
11390000      287  6.8781438e-13      52114.056 
11400000      287  6.8961401e-13      52160.754 
11410000      287  6.9605548e-13      52203.603 
11420000      287  7.1164552e-13      52246.573 
11430000      287  7.3853865e-13      52290.355 
11440000      287  7.4981313e-13      52330.639 
11450000      287  7.5465825e-13      52373.527 
11460000      287  7.3865964e-13      52416.256 
11470000      287  7.1613102e-13      52459.541 
11480000      287  7.0245943e-13      52502.739 
11490000      287  6.9759942e-13      52547.035 
11500000      287  6.8231383e-13      52589.361 
11510000      287  6.8454207e-13      52631.857 
11520000      287  6.9648739e-13      52671.022 
11530000      287  6.8919325e-13      52714.435 
11540000      287  6.9857267e-13      52757.413 
11550000      287  7.1193279e-13      52801.162 
11560000      287  7.3581099e-13      52843.331 
11570000      287  7.4674328e-13      52886.918 
11580000      287  7.4753679e-13       52931.04 
11590000      287  7.4066697e-13      52973.579 
11600000      287  7.2278663e-13       53018.69 
11610000      287  7.0704758e-13      53061.486 
11620000      287   6.938879e-13      53106.035 
11630000      287  6.8314068e-13      53149.337 
11640000      287  6.7892674e-13       53192.89 
11650000      287  6.7369872e-13      53236.194 
11660000      287  7.1083641e-13      53279.504 
11670000      287  7.2295961e-13       53321.97 
11680000      287    7.38515e-13      53363.095 
11690000      287  7.6831066e-13      53405.713 
11700000      287  7.7973977e-13      53450.177 
11710000      287  7.7872248e-13      53492.625 
11720000      287  7.5606331e-13      53536.774 
11730000      287  7.3602214e-13      53582.233 
11740000      287  7.3963914e-13      53627.677 
11750000      287  7.2390954e-13      53673.704 
11760000      287  7.1268292e-13      53716.865 
11770000      287  7.0967912e-13      53762.272 
11780000      287  7.1282274e-13       53806.87 
11790000      287   7.192716e-13      53852.486 
11800000      287  7.2748601e-13      53901.832 
11810000      287  7.3764585e-13      53947.527 
11820000      287  7.5266709e-13      53992.678 
11830000      287  7.6927024e-13      54038.108 
11840000      287  7.6079138e-13      54081.052 
11850000      287  7.4479315e-13        54126.3 
11860000      287  7.4058672e-13      54171.318 
11870000      287  7.3036604e-13       54223.99 
11880000      287   7.283664e-13      54279.552 
11890000      287  7.2406785e-13      54333.644 
11900000      287  7.1826602e-13      54379.475 
11910000      287  7.2206747e-13      54426.571 
11920000      287  7.3550779e-13       54469.32 
11930000      287  7.4732408e-13      54514.422 
11940000      287  7.6307145e-13      54560.625 
11950000      287  7.8113021e-13      54605.679 
11960000      287  7.9474547e-13      54652.213 
11970000      287  7.6781013e-13      54697.941 
11980000      287   7.542701e-13      54743.981 
11990000      287  7.3506648e-13       54789.29 
12000000      287   7.344519e-13      54837.449 
12010000      287  7.3210339e-13      54884.924 
12020000      287  7.0957668e-13      54931.207 
12030000      287  7.0862054e-13      54977.397 
12040000      287  7.1052268e-13      55025.123 
12050000      287   7.174464e-13      55072.039 
12060000      287  7.3734036e-13       55118.25 
12070000      287  7.4753617e-13      55164.372 
12080000      287  7.6507315e-13      55207.492 
12090000      287  7.4448118e-13      55253.151 
12100000      287  7.4817001e-13      55297.266 
12110000      287  7.4301379e-13      55342.258 
12120000      287  7.2490747e-13      55388.816 
12130000      287  7.2482639e-13      55434.202 
12140000      287   7.083843e-13      55480.611 
12150000      287  6.9004095e-13       55525.59 
12160000      287  6.8742553e-13      55569.286 
12170000      287  7.0273429e-13      55615.047 
12180000      287  7.0496676e-13      55661.223 
12190000      287  7.2042082e-13      55706.913 
12200000      287  7.3749349e-13      55757.804 
12210000      287  7.4481061e-13       55803.05 
12220000      287  7.3804209e-13      55847.816 
12230000      287  7.2918909e-13      55893.586 
12240000      287  7.1665625e-13      55936.606 
12250000      287  7.0483528e-13      55982.344 
12260000      287  6.9300207e-13      56027.636 
12270000      287  6.8233565e-13       56073.65 
12280000      287  6.8621221e-13      56119.493 
12290000      287  6.8517298e-13      56165.132 
12300000      287   6.946117e-13      56210.964 
12310000      287  7.0371627e-13      56257.261 
12320000      287  7.1420146e-13       56300.92 
12330000      287  7.3723954e-13      56347.011 
12340000      287  7.5060708e-13      56393.139 
12350000      287  7.3040523e-13       56437.91 
12360000      287   7.293646e-13      56483.174 
12370000      287  7.2646115e-13      56529.393 
12380000      287  7.1900929e-13      56575.981 
12390000      287  7.1013496e-13      56622.987 
12400000      287  6.9473532e-13      56671.242 
12410000      287  7.0295087e-13       56718.05 
12420000      287  6.8595414e-13      56763.765 
12430000      287  6.9679007e-13       56810.49 
12440000      287  7.0519888e-13      56856.262 
12450000      287   7.236045e-13      56901.922 
12460000      287  7.4135768e-13      56947.075 
12470000      287  7.5048448e-13      56992.561 
12480000      287  7.3854825e-13      57036.298 
12490000      287  7.3019727e-13      57082.449 
12500000      287  7.1998639e-13      57128.246 
12510000      287    7.12026e-13       57174.19 
12520000      287   6.995413e-13      57220.235 
12530000      287  6.9705965e-13      57267.224 
12540000      287  6.8362058e-13      57313.262 
12550000      287  6.9050962e-13      57360.862 
12560000      287  6.9071205e-13      57406.859 
12570000      287  7.1467333e-13       57450.34 
12580000      287  7.2955611e-13      57496.009 
12590000      287  7.3527081e-13      57542.696 
12600000      287   7.342334e-13      57592.817 
12610000      287  7.3500603e-13      57639.658 
12620000      287  7.3289369e-13      57686.275 
12630000      287  7.1960793e-13      57733.157 
12640000      287   7.149619e-13      57779.174 
12650000      287  7.0694714e-13      57819.991 
12660000      287  6.9432029e-13      57862.595 
12670000      287  6.9109546e-13        57904.9 
12680000      287  6.8892443e-13      57947.311 
12690000      287  7.2517897e-13      57989.646 
12700000      287  7.3277817e-13      58032.293 
12710000      287  7.3714853e-13      58075.457 
12720000      287  7.3722943e-13      58118.485 
12730000      287  7.4957015e-13      58157.783 
12740000      287  7.6046994e-13      58201.012 
12750000      287  7.3487517e-13      58240.799 
12760000      287  7.2612606e-13      58283.282 
12770000      287  7.1653204e-13      58324.822 
12780000      287  7.0403462e-13      58367.396 
12790000      287  6.8387443e-13      58410.277 
12800000      287  6.8486177e-13      58457.414 
12810000      287  7.0314181e-13      58496.294 
12820000      287  7.1016643e-13      58539.681 
12830000      287  7.2025194e-13      58582.464 
12840000      287  7.2308431e-13      58624.949 
12850000      287  7.2921967e-13      58667.916 
12860000      287  7.4101953e-13      58709.846 
12870000      287  7.2889205e-13      58750.921 
12880000      287  7.3288956e-13      58793.172 
12890000      287  7.2516681e-13      58832.317 
12900000      287  7.2159058e-13      58874.869 
12910000      287  7.1151056e-13      58918.156 
12920000      287  7.0215083e-13      58961.466 
12930000      287  6.8726692e-13      59003.562 
12940000      287  7.1716814e-13      59047.498 
12950000      287  7.3639916e-13      59090.439 
12960000      287  7.6443049e-13       59132.42 
12970000      287  7.6193551e-13      59171.187 
12980000      287  7.5858151e-13      59213.106 
12990000      287   7.504306e-13      59254.941 
13000000      287   7.403143e-13      59301.752 
13010000      287   7.354287e-13      59344.395 
13020000      287  7.3269255e-13      59387.895 
13030000      287  7.2415681e-13      59429.235 
13040000      287  7.1233859e-13      59470.877 
13050000      287  6.9807813e-13      59512.337 
13060000      287  6.8862951e-13      59553.589 
13070000      287  6.9555224e-13      59594.271 
13080000      287  7.0744803e-13       59635.47 
13090000      287  7.1828556e-13      59678.229 
13100000      287  7.2564679e-13      59720.341 
13110000      287  7.4738869e-13      59761.494 
13120000      287   7.332966e-13      59803.545 
13130000      287  7.3430251e-13      59846.318 
13140000      287  7.1855033e-13      59890.828 
13150000      287  7.1789274e-13       59935.52 
13160000      287  7.1467575e-13      59979.463 
13170000      287  6.8552058e-13      60023.913 
13180000      287  6.7783604e-13      60068.101 
13190000      287  6.8303272e-13       60113.42 
13200000      287   6.865962e-13      60162.403 
13210000      287  7.0637055e-13      60204.117 
13220000      287  7.0545012e-13      60249.029 
13230000      287  7.2740864e-13       60293.02 
13240000      287  7.2450672e-13      60337.888 
13250000      287  7.2191677e-13      60382.973 
13260000      287  7.2930933e-13      60428.403 
13270000      287   7.078541e-13      60473.469 
13280000      287  6.9031948e-13      60528.298 
13290000      287  6.9925301e-13      60580.787 
13300000      287  6.7655278e-13      60632.461 
13310000      287  6.7492789e-13      60677.798 
13320000      287   6.819675e-13      60723.029 
13330000      287  6.8339383e-13      60768.674 
13340000      287  6.9960098e-13      60814.351 
13350000      287  7.0251319e-13      60859.433 
13360000      287  7.2707938e-13      60904.402 
13370000      287   7.358022e-13      60946.969 
13380000      287  7.2095177e-13      60991.627 
13390000      287   7.141386e-13       61038.72 
13400000      287  7.1199258e-13      61088.898 
13410000      287  7.0739529e-13      61134.872 
13420000      287   6.888385e-13      61180.939 
13430000      287   6.871457e-13      61226.643 
13440000      287  6.8512155e-13      61273.339 
13450000      287  6.8590271e-13       61315.94 
13460000      287  7.1387554e-13      61361.022 
13470000      287   7.229298e-13       61405.55 
13480000      287  7.2392409e-13      61451.677 
13490000      287  7.4524174e-13      61497.481 
13500000      287  7.3988682e-13      61542.147 
13510000      287  7.3592162e-13      61587.892 
13520000      287  7.2662509e-13      61632.573 
13530000      287  7.2280802e-13      61676.284 
13540000      287  7.1429276e-13      61722.418 
13550000      287  7.0655489e-13      61767.975 
13560000      287  6.9586122e-13      61813.129 
13570000      287  6.9703148e-13      61858.542 
13580000      287  6.9630311e-13      61904.475 
13590000      287   7.011407e-13      61948.612 
[...]
35400000      271  6.7246135e-13      175517.39 
35410000      271  7.0323323e-13      175552.58 
35420000      271  7.2220301e-13      175590.26 
35430000      271  7.1656609e-13      175632.66 
35440000      271   7.012709e-13       175677.3 
35450000      271  6.7721132e-13      175718.43 
35460000      271  6.4412488e-13      175764.45 
35470000      271  6.3251951e-13      175798.42 
35480000      271  6.5072876e-13       175839.9 
35490000      271  6.8499642e-13      175886.09 
35500000      271  7.0345791e-13      175930.84 
35510000      271  7.2160223e-13      175984.93 
35520000      271  7.4493218e-13      176031.64 
35530000      271  6.9684736e-13      176071.71 
35540000      271  7.2170878e-13      176114.44 
35550000      271  7.3960205e-13      176159.76 
35560000      271  7.3542812e-13      176202.27 
35570000      271  7.2525056e-13      176247.11 
35580000      271  6.8591049e-13      176291.51 
35590000      271  6.5409414e-13      176334.64 
35600000      271  6.9600139e-13      176388.11 
35610000      271  6.7302354e-13      176434.09 
35620000      271  7.4979719e-13       176481.1 
35630000      271    7.46983e-13      176528.96 
35640000      271   7.283939e-13      176582.76 
35650000      271  7.6513479e-13       176622.8 
35660000      271  7.1349557e-13      176664.97 
35670000      271  7.6666623e-13       176706.1 
35680000      271  7.5752985e-13      176750.09 
35690000      271   7.374974e-13       176793.8 
35700000      271  7.3385223e-13      176836.96 
35710000      271   6.962426e-13      176879.11 
35720000      271  6.7165366e-13         176922 
35730000      271  6.8911131e-13      176964.45 
35740000      271  7.1905316e-13       177007.5 
35750000      271  8.0302444e-13      177045.53 
35760000      271  8.4384622e-13      177094.42 
35770000      271  7.8462468e-13      177142.37 
35780000      271  7.6827044e-13      177189.67 
35790000      271  7.2545348e-13      177236.98 
35800000      271  7.7968868e-13      177280.46 
35810000      271  7.6865901e-13      177318.93 
35820000      271  7.6046643e-13      177357.97 
35830000      271  7.2816682e-13      177400.47 
35840000      271  7.0926212e-13      177440.75 
35850000      271  6.8105414e-13      177480.79 
35860000      271  6.8468442e-13      177522.07 
35870000      271  6.9882319e-13      177562.31 
35880000      271  7.4679135e-13      177604.12 
35890000      271  7.8814318e-13      177643.96 
35900000      271  7.2465897e-13      177685.56 
35910000      271  7.6909001e-13       177726.9 
35920000      271  7.2484878e-13      177772.29 
35930000      271  7.5471022e-13      177815.38 
35940000      271  7.4159035e-13      177859.21 
35950000      271  7.2693772e-13      177902.63 
35960000      271  7.1742478e-13      177946.93 
35970000      271  6.7772971e-13      177988.14 
35980000      271  6.7758592e-13      178030.08 
35990000      271  6.9228204e-13      178069.97 
36000000      271  7.4908259e-13      178113.83 
36010000      271  7.4204381e-13      178160.51 
36020000      271  7.7697155e-13      178200.95 
36030000      271  7.2393989e-13      178243.31 
36040000      271  7.1590156e-13      178289.42 
36050000      271  7.6590916e-13      178325.72 
36060000      271  7.6791268e-13      178365.66 
36070000      271  7.5015035e-13      178410.72 
36080000      271  7.2550657e-13      178454.32 
36090000      271  7.1805026e-13         178492 
36100000      271  6.8723861e-13      178528.11 
36110000      271  6.4974787e-13      178564.21 
36120000      271  7.0986615e-13      178604.23 
36130000      271   7.504019e-13      178644.83 
36140000      271  7.6595882e-13      178694.39 
36150000      271  7.7383863e-13      178741.21 
36160000      271  7.8806956e-13      178779.73 
36170000      271  6.8532892e-13      178824.19 
36180000      271  7.4200839e-13      178869.32 
36190000      271  7.4099443e-13      178913.98 
36200000      271  7.3285657e-13      178961.66 
36210000      271  7.1297331e-13      178991.73 
36220000      271  6.8678603e-13      179032.45 
36230000      271  6.5228975e-13      179077.24 
36240000      271  6.4619916e-13      179116.27 
36250000      271  6.5719109e-13      179157.62 
36260000      271  7.1580471e-13      179198.75 
36270000      271  7.0436278e-13      179237.57 
36280000      271  7.1608065e-13      179281.05 
36290000      271  7.5745742e-13      179324.34 
36300000      271  6.9751427e-13      179368.17 
36310000      271  7.2193123e-13       179407.1 
36320000      271  7.2815084e-13      179449.85 
36330000      271  7.3491372e-13      179495.12 
36340000      271  7.0658528e-13      179532.74 
36350000      271  6.7340309e-13      179574.64 
36360000      271  6.3854934e-13      179610.84 
36370000      271  6.9026689e-13       179651.8 
36380000      271  6.7802218e-13      179696.43 
36390000      271  7.5643016e-13      179744.29 
36400000      271  7.9541482e-13      179793.33 
36410000      271  7.0335569e-13      179839.62 
36420000      271  7.2003786e-13      179879.95 
36430000      271  6.8802217e-13      179926.09 
36440000      271  7.2981317e-13       179964.8 
36450000      271  7.2181173e-13      179999.86 
36460000      271  7.3047234e-13      180044.46 
36470000      271  7.0851661e-13      180091.93 
36480000      271  6.6614503e-13      180126.27 
36490000      271   6.396389e-13      180166.66 
36500000      271  6.9753251e-13         180207 
36510000      271   6.920461e-13      180250.78 
36520000      271   7.613106e-13      180296.68 
36530000      271   8.029217e-13      180341.47 
36540000      271  7.0327842e-13      180383.06 
36550000      271  7.0778965e-13         180429 
36560000      271  7.0766308e-13      180471.47 
36570000      271  7.4599826e-13      180506.75 
36580000      271  7.3736846e-13      180550.13 
36590000      271  7.4292759e-13       180595.5 
36600000      271   7.175988e-13      180644.29 
36610000      271  6.7820175e-13      180685.42 
36620000      271  6.6583856e-13       180722.2 
36630000      271  6.8071524e-13      180765.95 
36640000      271  6.9893509e-13      180808.38 
36650000      271  7.2661023e-13      180849.97 
36660000      271  7.7353931e-13      180894.65 
36670000      271  7.3427783e-13       180939.2 
36680000      271  7.4590215e-13      180981.01 
36690000      271  7.2749968e-13      181025.91 
36700000      271  7.5042072e-13      181073.01 
36710000      271  7.6091978e-13      181116.91 
36720000      271   7.543547e-13      181155.58 
36730000      271  7.2287607e-13      181200.94 
36740000      271  6.9539677e-13      181244.17 
36750000      271  7.2144985e-13      181283.63 
36760000      271  7.0251226e-13       181326.6 
36770000      271  7.7048868e-13      181362.61 
36780000      271  7.4019966e-13      181406.86 
36790000      271   7.768683e-13      181442.38 
36800000      271   7.782214e-13      181485.98 
36810000      271  7.4238453e-13       181527.8 
36820000      271  7.6731967e-13      181568.42 
36830000      271  8.0253634e-13      181606.92 
36840000      271  7.6813423e-13      181649.95 
36850000      271  7.4752583e-13      181688.94 
36860000      271   7.194145e-13      181732.89 
36870000      271  6.8659672e-13      181775.25 
36880000      271  6.7828042e-13      181817.49 
36890000      271  7.3265487e-13      181865.68 
36900000      271  8.0672621e-13      181904.98 
36910000      271  7.9586086e-13      181956.14 
36920000      271  7.9226093e-13       182006.2 
36930000      271  8.0744329e-13      182053.13 
36940000      271  7.1483321e-13      182096.74 
36950000      271   7.532276e-13      182286.88 
36960000      271  7.5983155e-13       182369.6 
36970000      271  7.5804056e-13      182608.12 
36980000      271  7.3439964e-13      182835.39 
36990000      271  7.1702115e-13      182957.32 
37000000      271  6.7794848e-13       183155.8 
37010000      271  7.0433348e-13      183304.46 
37020000      271  6.9274941e-13      183445.99 
37030000      271  7.4561745e-13      183587.68 
37040000      271  7.4678498e-13       183756.5 
37050000      271  7.4821906e-13      183941.98 
37060000      271  8.0498769e-13      184139.45 
37070000      271  7.1097394e-13      184187.51 
37080000      271  7.3253146e-13      184234.23 
37090000      271  7.4692636e-13      184281.54 
37100000      271  7.2791302e-13      184326.74 
37110000      271  7.2033671e-13      184373.27 
37120000      271  6.8720496e-13      184417.21 
37130000      271  6.6205115e-13      184463.32 
37140000      271  6.8988081e-13      184509.13 
37150000      271   6.882039e-13      184555.45 
37160000      271   7.412046e-13      184605.04 
37170000      271  8.1442882e-13      184657.27 
37180000      271  7.2375271e-13      184703.87 
37190000      271  7.3620731e-13      184751.51 
37200000      271  7.0856919e-13      184801.85 
37210000      271  7.4222055e-13      184847.55 
37220000      271  7.3264239e-13      184893.43 
37230000      271  7.1011908e-13      184939.39 
37240000      271  7.0918432e-13      184984.19 
37250000      271  6.7759941e-13      185030.59 
37260000      271  6.4291232e-13      185076.95 
37270000      271  7.1149432e-13      185122.43 
37280000      271  7.2202035e-13      185168.04 
37290000      271  7.7471808e-13      185219.49 
37300000      271  8.1115907e-13      185274.41 
37310000      271  7.6126728e-13      185323.97 
37320000      271  7.0123103e-13      185372.37 
37330000      271  7.1651724e-13      185419.15 
37340000      271  7.5796513e-13      185462.22 
37350000      271  7.3517974e-13      185507.84 
37360000      271  7.2168559e-13      185553.91 
37370000      271  7.1966833e-13      185599.43 
37380000      271   6.727984e-13      185644.36 
37390000      271  6.3963758e-13      185690.24 
37400000      271  6.6565734e-13      185739.49 
37410000      271  6.8399792e-13      185785.19 
37420000      271  7.1778747e-13       185830.6 
37430000      271  7.4890469e-13      185879.07 
37440000      271  7.1117462e-13      185924.59 
37450000      271  7.0069494e-13      185970.58 
37460000      271  7.0787032e-13      186016.94 
37470000      271  7.4223269e-13      186062.05 
37480000      271  7.2993466e-13      186107.56 
37490000      271  7.0992738e-13      186152.04 
37500000      271   6.912658e-13      186195.38 
37510000      271  6.5870198e-13      186241.07 
37520000      271  6.9447323e-13      186287.15 
37530000      271  6.8592355e-13      186333.48 
37540000      271  7.8024201e-13      186383.04 
37550000      271  7.5311425e-13      186431.76 
37560000      271  7.3701993e-13      186486.42 
37570000      271  7.6448455e-13       186533.1 
37580000      271  6.9453617e-13      186579.39 
37590000      271  7.3708051e-13      186625.69 
37600000      271  7.3233713e-13       186675.9 
37610000      271  7.2608808e-13      186721.99 
37620000      271  7.1675018e-13       186767.8 
37630000      271  6.9539584e-13      186810.17 
37640000      271  6.6888816e-13      186855.25 
37650000      271  6.8141356e-13      186901.32 
37660000      271  7.0947801e-13      186945.86 
37670000      271  7.8746169e-13      186990.57 
37680000      271  7.8323622e-13      187039.16 
37690000      271   7.438367e-13      187086.93 
37700000      271   7.490575e-13      187135.26 
37710000      271  6.9840001e-13      187177.04 
37720000      271  7.3826223e-13      187217.44 
37730000      271  7.4012901e-13      187259.39 
37740000      271  7.3259522e-13      187300.99 
37750000      271  7.2669818e-13      187344.93 
37760000      271  7.1752361e-13      187386.97 
37770000      271  6.7673962e-13      187430.22 
37780000      271  7.0042621e-13      187473.18 
37790000      271   7.040762e-13      187516.65 
37800000      271  7.4919878e-13       187563.5 
37810000      271  7.7934239e-13      187608.88 
37820000      271  7.2765578e-13      187654.87 
37830000      271  7.7310877e-13      187698.06 
37840000      271  7.0767267e-13      187741.14 
37850000      271  7.3279413e-13      187785.15 
37860000      271  7.3705909e-13      187828.09 
37870000      271  7.2605914e-13      187870.82 
37880000      271  7.1901844e-13      187912.57 
37890000      271  6.9087951e-13      187950.88 
37900000      271  6.5984988e-13      187989.57 
37910000      271  6.9358382e-13      188026.12 
37920000      271  7.2027659e-13      188063.57 
37930000      271  7.3291959e-13      188110.95 
37940000      271  7.7980546e-13      188148.97 
37950000      271  7.0913254e-13      188187.66 
37960000      271  7.1756384e-13      188229.34 
37970000      271  7.0819974e-13      188272.76 
37980000      271   7.170236e-13      188310.71 
37990000      271  7.2457752e-13      188352.66 
38000000      271  7.2237782e-13         188403 
38010000      271  7.1327013e-13      188439.62 
38020000      271  6.7666376e-13      188482.43 
38030000      271  6.4364441e-13      188525.91 
38040000      271  7.1956212e-13      188568.64 
38050000      271  7.3456372e-13      188611.74 
38060000      271  7.7090012e-13      188663.18 
38070000      271  7.9373374e-13      188711.83 
38080000      271  7.8953592e-13      188752.68 
38090000      271  7.0072576e-13       188798.2 
38100000      271  7.0468044e-13      188840.85 
38110000      271  7.2400932e-13      188883.59 
38120000      271  7.2706044e-13      188928.48 
38130000      271  7.0390975e-13      188968.59 
38140000      271  7.0060115e-13      189009.36 
38150000      271  6.7064085e-13      189051.08 
38160000      271  6.5593154e-13      189093.34 
38170000      271  6.6445069e-13      189137.74 
38180000      271  6.9212336e-13      189182.91 
38190000      271  7.0748747e-13      189222.98 
38200000      271  7.1932362e-13      189273.13 
38210000      271  7.4308476e-13      189315.05 
38220000      271  7.0897875e-13      189359.89 
38230000      271  6.8289876e-13      189401.45 
38240000      271  7.2214053e-13      189443.15 
38250000      271  7.1569943e-13      189482.58 
38260000      271  7.1320767e-13      189524.31 
38270000      271  6.8950548e-13      189566.53 
38280000      271  6.5591807e-13      189609.56 
38290000      271  7.0406705e-13      189650.11 
38300000      271  6.7025607e-13      189694.94 
38310000      271  7.4629414e-13      189753.24 
38320000      271  7.4831574e-13      189811.62 
38330000      271  7.0051508e-13      189873.46 
38340000      271  7.5225039e-13      189925.68 
38350000      271  6.8471689e-13      189968.07 
38360000      271  7.0948268e-13      190007.95 
38370000      271  7.3831544e-13      190054.99 
38380000      271  7.2639668e-13      190097.98 
38390000      271  7.2439027e-13      190136.77 
38400000      271  6.9426218e-13      190186.98 
38410000      271  6.6113453e-13      190230.36 
38420000      271  6.8217778e-13      190269.73 
38430000      271   7.080144e-13      190309.82 
38440000      271  7.8831882e-13      190354.92 
38450000      271  8.2164504e-13      190400.84 
38460000      271  7.2025787e-13      190443.75 
38470000      271  7.1094751e-13      190486.86 
38480000      271  6.8360641e-13      190530.89 
38490000      271  7.1776753e-13      190572.31 
38500000      271  7.2237543e-13       190621.3 
38510000      271  7.1715506e-13      190664.45 
38520000      271  7.0902965e-13      190704.99 
38530000      271  6.7581206e-13      190748.29 
38540000      271  6.4967394e-13      190787.82 
38550000      271   6.749307e-13      190828.33 
38560000      271  6.7419972e-13      190872.96 
38570000      271  7.1903365e-13      190916.53 
38580000      271  7.7968161e-13      190955.46 
38590000      271  6.8106399e-13      190997.57 
38600000      271  7.1042945e-13      191042.93 
38610000      271  6.7869709e-13      191084.23 
38620000      271  7.1079064e-13      191123.73 
38630000      271   7.109416e-13      191153.67 
38640000      271  7.0665632e-13      191194.94 
38650000      271  7.0184744e-13      191234.77 
38660000      271  6.8085148e-13      191274.43 
38670000      271  6.6027279e-13      191314.21 
38680000      271  7.0322858e-13       191356.3 
38690000      271  7.5518819e-13      191397.48 
38700000      271  7.4034369e-13       191443.8 
38710000      271  7.5099222e-13      191484.75 
38720000      271  7.5191861e-13      191528.62 
38730000      271  6.7224577e-13      191571.77 
38740000      271  7.1622212e-13      191614.05 
38750000      271  7.1851747e-13      191659.45 
38760000      271  7.2014377e-13      191699.52 
38770000      271  7.1190633e-13       191741.8 
38780000      271  7.0451654e-13      191783.57 
38790000      271  6.7088704e-13      191824.48 
38800000      271  6.5938152e-13      191870.31 
38810000      271  6.9116381e-13      191915.09 
38820000      271  7.5048976e-13      191959.48 
38830000      271  7.2051485e-13      192000.82 
38840000      271  7.2201135e-13      192051.51 
38850000      271  7.4264342e-13      192093.67 
38860000      271  6.6046054e-13      192133.24 
38870000      271  7.0230793e-13      192175.32 
38880000      271  7.1419457e-13      192217.13 
38890000      271  7.1874002e-13      192260.11 
38900000      271  7.1641366e-13       192297.4 
38910000      271  6.8729051e-13      192336.34 
38920000      271  6.7001773e-13      192378.72 
38930000      271  6.9642372e-13      192415.89 
38940000      271  6.8253746e-13      192454.68 
38950000      271  7.4126997e-13      192501.99 
38960000      271  7.1483287e-13      192544.12 
38970000      271  6.8331183e-13      192588.09 
38980000      271  7.3769123e-13      192619.86 
38990000      271  6.6327482e-13      192659.58 
39000000      271  6.9914762e-13      192708.96 
39010000      271  7.0799577e-13      192750.83 
39020000      271  7.2164407e-13      192789.72 
39030000      271  7.2274136e-13      192828.73 
39040000      271  6.8129465e-13       192870.9 
39050000      271  6.6826634e-13      192911.41 
39060000      271  6.9544892e-13      192952.63 
39070000      271  6.9944726e-13      192993.22 
39080000      271  7.8739207e-13      193041.63 
39090000      271  8.0829142e-13       193086.4 
39100000      271  6.9265721e-13      193137.27 
39110000      271  6.8270898e-13      193181.74 
39120000      271  6.7462994e-13      193224.46 
39130000      271  7.0324872e-13      193265.73 
39140000      271  7.1046342e-13      193306.94 
39150000      271  7.3605693e-13      193346.67 
39160000      271  7.5971712e-13      193383.96 
39170000      271  7.1384965e-13      193424.89 
39180000      271  6.6313382e-13      193466.43 
39190000      271   6.977567e-13      193509.54 
39200000      271  6.9213074e-13      193551.79 
39210000      271  7.3478745e-13      193593.78 
39220000      271  7.7383944e-13      193637.65 
39230000      271  6.7296732e-13      193681.84 
39240000      271  6.8445149e-13      193725.55 
39250000      271   6.773454e-13      193766.91 
39260000      271   7.063178e-13      193810.78 
39270000      271  7.1971631e-13      193853.45 
39280000      271   7.308086e-13       193897.7 
39290000      271  7.2884289e-13      193941.33 
39300000      271  6.7289558e-13       193977.8 
39310000      271  6.5870422e-13      194014.25 
39320000      271  6.8714984e-13       194054.3 
39330000      271    7.24746e-13      194092.25 
39340000      271  7.2709476e-13      194141.63 
39350000      271  7.2743848e-13      194186.04 
39360000      271  6.9208991e-13      194223.27 
39370000      271  6.6285468e-13      194265.07 
39380000      271  6.8659198e-13      194303.32 
39390000      271  7.0558084e-13      194350.08 
39400000      271   7.278088e-13       194395.8 
39410000      271  7.3064341e-13      194441.41 
39420000      271   7.160828e-13      194484.08 
39430000      271  6.6596755e-13      194514.94 
39440000      271   6.583348e-13      194558.67 
39450000      271  7.0347392e-13      194598.02 
39460000      271  7.0479602e-13      194645.04 
39470000      271  7