LIGGGHTS (Version LIGGGHTS-PUBLIC 3.8.0, compiled 2026-05-19-03:04:00 by root, git commit 3d5c00f20519e6bb6eb6756f51f1ad36564e649d)
###################################Header for General commands#######################################################

atom_style	granular		#Simulation of particles

boundary	f f f			#fixed boundaries -> particles will be deleted if leaving the simulation box

units		si

communicate	multi vel yes		#default

newton		off			#default


###################################System variables##################################################################

#Definition of boundaries

variable xmin equal -0.02
variable xmax equal 0.43

variable ymin equal -0.02
variable ymax equal 0.06

variable zmin equal -0.02
variable zmax equal 0.07

#Definition of the timestep

variable dt equal 1e-6



###################################Specific variables for current simulation#########################################

variable natoms equal 2 				#1 -> particle #2 ->pipe and screw

####variable for material properties####

####Young Modulus####
variable	youngmodulus1	equal 	7e6
variable	youngmodulus2	equal 	2e8

####Poission ratio####
variable 	poission1	equal	0.30
variable 	poission2	equal	0.29

####variable for contact properties####

####coefficient of restitution####
variable	CoR11	equal	0.6
variable	CoR12	equal	0.8
variable	CoR21	equal	0.8
variable	CoR22	equal	0.45

####sliding friction coefficient####
variable	sf11	equal	0.65	#Particle-particle sliding friction coefficient
variable	sf12	equal	0.5
variable	sf21	equal	0.5
variable	sf22	equal	0.0


####rolling friction coefficient####
variable	rf11	equal	0.75	#Particle-particle rolling friction coefficient
variable	rf12	equal	0.4
variable	rf21	equal	0.4
variable	rf22	equal	0.0


####variable for particle####

#Number of particle radius
variable	nradii	equal	3

variable	radius1	equal	0.00005	#m
variable	radius2	equal	0.00005	#m
variable	radius3	equal	0.00005	#m

variable	frac1	equal	0.3945
variable	frac2	equal	0.4059
variable	frac3	equal	0.1996

variable	density	equal	1000		#kg/m³


####filling parameters####

variable	filltime	equal	0.2		#s, prueba rápida: alimentar 2 s

variable	dischargetime	equal	5		#s, tiempo para que puedan salir partículas

variable	fillmass	equal	0.0000001 		#kg, 2 g de material

variable	fillmassrate	equal	${fillmass}/${filltime}	#kg/s
variable	fillmassrate	equal	1e-07/${filltime}	
variable	fillmassrate	equal	1e-07/0.2	

variable	fillsteps	equal	${filltime}/${dt}
variable	fillsteps	equal	0.2/${dt}
variable	fillsteps	equal	0.2/1e-06

variable	dischargesteps	equal	${dischargetime}/${dt}
variable	dischargesteps	equal	5/${dt}
variable	dischargesteps	equal	5/1e-06



####screw velocities####

variable	screwPeriod	equal	0.5		#s, prueba rápida: 2 vueltas/s



###################################Definition of simulationbox#######################################################

region		reg block ${xmin} ${xmax} ${ymin} ${ymax} ${zmin} ${zmax} units box
region		reg block -0.02 ${xmax} ${ymin} ${ymax} ${zmin} ${zmax} units box
region		reg block -0.02 0.43 ${ymin} ${ymax} ${zmin} ${zmax} units box
region		reg block -0.02 0.43 -0.02 ${ymax} ${zmin} ${zmax} units box
region		reg block -0.02 0.43 -0.02 0.06 ${zmin} ${zmax} units box
region		reg block -0.02 0.43 -0.02 0.06 -0.02 ${zmax} units box
region		reg block -0.02 0.43 -0.02 0.06 -0.02 0.07 units box

create_box	2 reg
Created orthogonal box = (-0.02 -0.02 -0.02) to (0.43 0.06 0.07)
  6 by 2 by 2 MPI processor grid

neighbor	0.005 bin

neigh_modify	delay 0


#################################Definition of the contact models####################################################

pair_style gran model hertz tangential history rolling_friction epsd2
WARNING: 
	The contact model you specified is not located in any whitelist.
	Because of this the model will be run in an unoptimized version (increasing runtime by up to 20%).
	In order to optimize this model you have the following options:
		(i)  Run the genAutoExamplesWhitelist.sh script in your LIGGGHTS(R) source folder to automatically parse the input script
		(ii) Add the model combination by hand to your style_contact_model_user.whitelist that can be found in your LIGGGHTS(R) source folder
		(iii) Use the ENABLE_MODEL_* flag when building with cmake.
	If you perform one of the steps above LIGGGHTS(R) needs to be recompiled to generate the optimized code.

 (../contact_models.h:365)

pair_coeff	* *

timestep ${dt}
timestep 1e-06

thermo 1000

fix		integrator all nve/sphere

fix		gravi all gravity 9.81 vector 0.0 0.0 -1.0


###################################Definition of Material properties#################################################

fix 		m1 all property/global youngsModulus peratomtype ${youngmodulus1} ${youngmodulus2}
fix 		m1 all property/global youngsModulus peratomtype 7000000 ${youngmodulus2}
fix 		m1 all property/global youngsModulus peratomtype 7000000 200000000

fix 		m2 all property/global poissonsRatio peratomtype ${poission1} ${poission2}
fix 		m2 all property/global poissonsRatio peratomtype 0.3 ${poission2}
fix 		m2 all property/global poissonsRatio peratomtype 0.3 0.29

fix 		m3 all property/global coefficientRestitution peratomtypepair ${natoms} ${CoR11} ${CoR12} ${CoR21} ${CoR22}
fix 		m3 all property/global coefficientRestitution peratomtypepair 2 ${CoR11} ${CoR12} ${CoR21} ${CoR22}
fix 		m3 all property/global coefficientRestitution peratomtypepair 2 0.6 ${CoR12} ${CoR21} ${CoR22}
fix 		m3 all property/global coefficientRestitution peratomtypepair 2 0.6 0.8 ${CoR21} ${CoR22}
fix 		m3 all property/global coefficientRestitution peratomtypepair 2 0.6 0.8 0.8 ${CoR22}
fix 		m3 all property/global coefficientRestitution peratomtypepair 2 0.6 0.8 0.8 0.45

fix 		m4 all property/global coefficientFriction peratomtypepair ${natoms} ${sf11} ${sf12} ${sf21} ${sf22}
fix 		m4 all property/global coefficientFriction peratomtypepair 2 ${sf11} ${sf12} ${sf21} ${sf22}
fix 		m4 all property/global coefficientFriction peratomtypepair 2 0.65 ${sf12} ${sf21} ${sf22}
fix 		m4 all property/global coefficientFriction peratomtypepair 2 0.65 0.5 ${sf21} ${sf22}
fix 		m4 all property/global coefficientFriction peratomtypepair 2 0.65 0.5 0.5 ${sf22}
fix 		m4 all property/global coefficientFriction peratomtypepair 2 0.65 0.5 0.5 0

fix 		m5 all property/global coefficientRollingFriction peratomtypepair ${natoms} ${rf11} ${rf12} ${rf21} ${rf22}
fix 		m5 all property/global coefficientRollingFriction peratomtypepair 2 ${rf11} ${rf12} ${rf21} ${rf22}
fix 		m5 all property/global coefficientRollingFriction peratomtypepair 2 0.75 ${rf12} ${rf21} ${rf22}
fix 		m5 all property/global coefficientRollingFriction peratomtypepair 2 0.75 0.4 ${rf21} ${rf22}
fix 		m5 all property/global coefficientRollingFriction peratomtypepair 2 0.75 0.4 0.4 ${rf22}
fix 		m5 all property/global coefficientRollingFriction peratomtypepair 2 0.75 0.4 0.4 0



###################################Generation and Loading of the Geometry .stl#######################################
fix case all mesh/surface file case_remesh.stl type 2 heal auto_remove_duplicates scale 1.0 curvature 1e-5 curvature_tolerant yes

fix screw all mesh/surface file screw_simplified.stl type 2 scale 1.0 curvature 1e-5 curvature_tolerant yes

fix 		walls 		all wall/gran model hertz tangential history rolling_friction epsd2 mesh n_meshes 2 meshes case screw
WARNING: 
	The contact model you specified is not located in any whitelist.
	Because of this the model will be run in an unoptimized version (increasing runtime by up to 20%).
	In order to optimize this model you have the following options:
		(i)  Run the genAutoExamplesWhitelist.sh script in your LIGGGHTS(R) source folder to automatically parse the input script
		(ii) Add the model combination by hand to your style_contact_model_user.whitelist that can be found in your LIGGGHTS(R) source folder
		(iii) Use the ENABLE_MODEL_* flag when building with cmake.
	If you perform one of the steps above LIGGGHTS(R) needs to be recompiled to generate the optimized code.

 (../contact_models.h:365)

fix		Movescrew	all move/mesh mesh screw rotate origin 0.2024435 0.019051 0.011497 axis -1. 0. 0. period ${screwPeriod}
fix		Movescrew	all move/mesh mesh screw rotate origin 0.2024435 0.019051 0.011497 axis -1. 0. 0. period 0.5

fix feed all mesh/surface file feed.stl type 2 scale 1.0 curvature 1e-5 curvature_tolerant yes

fix outlet all mesh/surface file outlet_1.stl type 2 scale 1.0 curvature 1e-5 curvature_tolerant yes


###################################Generation and Insertion of the particles#########################################

fix pts1 all particletemplate/sphere 10487 atom_type 1 density constant ${density} radius constant ${radius1} volume_limit 1e-18
fix pts1 all particletemplate/sphere 10487 atom_type 1 density constant 1000 radius constant ${radius1} volume_limit 1e-18
fix pts1 all particletemplate/sphere 10487 atom_type 1 density constant 1000 radius constant 5e-05 volume_limit 1e-18

fix pts2 all particletemplate/sphere 11887 atom_type 1 density constant ${density} radius constant ${radius2} volume_limit 1e-18
fix pts2 all particletemplate/sphere 11887 atom_type 1 density constant 1000 radius constant ${radius2} volume_limit 1e-18
fix pts2 all particletemplate/sphere 11887 atom_type 1 density constant 1000 radius constant 5e-05 volume_limit 1e-18

fix pts3 all particletemplate/sphere 16561 atom_type 1 density constant ${density} radius constant ${radius3} volume_limit 1e-18
fix pts3 all particletemplate/sphere 16561 atom_type 1 density constant 1000 radius constant ${radius3} volume_limit 1e-18
fix pts3 all particletemplate/sphere 16561 atom_type 1 density constant 1000 radius constant 5e-05 volume_limit 1e-18

fix 		pdd1 all particledistribution/discrete 32452867 ${nradii} pts1 ${frac1} pts2 ${frac2} pts3 ${frac3}
fix 		pdd1 all particledistribution/discrete 32452867 3 pts1 ${frac1} pts2 ${frac2} pts3 ${frac3}
fix 		pdd1 all particledistribution/discrete 32452867 3 pts1 0.3945 pts2 ${frac2} pts3 ${frac3}
fix 		pdd1 all particledistribution/discrete 32452867 3 pts1 0.3945 pts2 0.4059 pts3 ${frac3}
fix 		pdd1 all particledistribution/discrete 32452867 3 pts1 0.3945 pts2 0.4059 pts3 0.1996

fix		ins_mesh all mesh/surface/planar file feed.stl type 1 scale 1.0

fix 		ins all insert/stream seed 15485863 distributiontemplate pdd1         	mass ${fillmass} massrate ${fillmassrate} overlapcheck yes all_in yes vel constant 0 0 -0.10         	insertion_face ins_mesh extrude_length 0.015
fix 		ins all insert/stream seed 15485863 distributiontemplate pdd1         	mass 1e-07 massrate ${fillmassrate} overlapcheck yes all_in yes vel constant 0 0 -0.10         	insertion_face ins_mesh extrude_length 0.015
fix 		ins all insert/stream seed 15485863 distributiontemplate pdd1         	mass 1e-07 massrate 5e-07 overlapcheck yes all_in yes vel constant 0 0 -0.10         	insertion_face ins_mesh extrude_length 0.015


################################### Particle Residence Time Track#########################################

fix 	rt_outlet	all massflow/mesh mesh outlet vec_side 0 0 -1 file rt_outlet.txt writeTime

fix 	rt_inlet	all massflow/mesh mesh feed vec_side 0 0 -1 file rt_inlet.txt writeTime


###################################Outlet mass flow track#########################################

fix	mfout	all massflow/mesh mesh outlet vec_side 0 0 -1

fix	mfin	all massflow/mesh mesh feed vec_side 0 0 -1


variable 	time equal step*dt

variable 	in_mass_flow equal	f_mfin[3]

variable 	out_mass_flow equal	f_mfout[3]

fix mass_flow_rate all print 5000 "${time},${in_mass_flow},${out_mass_flow}" screen no title "t,in_mass_flow,out_mass_flow" file massflow.csv

###################################Dumping of the data for post-processing to visualize############################

#fix ts_check all check/timestep/gran 1000 0.1 0.1

shell 	mkdir -p post

variable dumptime equal 0.2		#guarda cada 0.05 s

variable dumpstep equal ${dumptime}/${dt}
variable dumpstep equal 0.2/${dt}
variable dumpstep equal 0.2/1e-06

dump	dmpparticle all custom ${dumpstep} post/particles_*.liggghts id type x y z vx vy vz fx fy fz radius mass
dump	dmpparticle all custom 200000 post/particles_*.liggghts id type x y z vx vy vz fx fy fz radius mass

dump_modify	dmpparticle sort id

dump	dmpscrew	all	mesh/stl ${dumpstep} post/screw_*.stl screw
dump	dmpscrew	all	mesh/stl 200000 post/screw_*.stl screw


####################################RUN the simulation filling and discharge###########################################################

run	${fillsteps}
run	200000
Setting up run at Fri May 29 00:27:35 2026

WARNING: Fix mesh: Mesh contains highly skewed element, moving mesh (if used) will not parallelize well (../surface_mesh_I.h:657)
WARNING: Fix mesh: Mesh contains highly skewed element, moving mesh (if used) will not parallelize well (../surface_mesh_I.h:657)
INFO: Particle insertion ins: 143.239449 particles every 150000 steps - particle rate 954.929659, (mass rate 5.000000e-07)
      190 particles (mass 9.948377e-08) within 150000 steps
Memory usage per processor = 11.8942 Mbytes
    Step    Atoms         KinEng            CPU 
       0        0              0              0 
INFO: Particle insertion ins: inserted 143 particle templates (mass 7.487462e-08) at step 1
 - a total of 143 particle templates (mass 7.487462e-08) inserted so far.
    1000      143  3.7437312e-10      18.957312 
    2000      143  3.7437312e-10      38.646996 
    3000      143  3.7437312e-10       56.80579 
    4000      143  3.7466028e-10      76.326224 
    5000      143  3.7564392e-10      96.847255 
    6000      143  3.7751346e-10      113.79425 
    7000      143  3.8014134e-10      134.19127 
    8000      143  3.8344823e-10      155.15653 
    9000      143   3.881665e-10      176.32743 
   10000      143  3.9413382e-10      195.75343 
   11000      143  4.0149289e-10      216.40822 
   12000      143  4.1003531e-10      238.82623 
   13000      143  4.2069228e-10      257.44664 
   14000      143  4.3224618e-10       276.8055 
   15000      143  4.4472578e-10      297.90374 
   16000      143  4.5834661e-10      318.81715 
   17000      143   4.738225e-10      335.71942 
   18000      143  4.9125783e-10       356.4548 
   19000      143  5.0974874e-10      375.57521 
   20000      143  5.1704039e-10      396.92917 
   21000      143  5.1747727e-10       414.5156 
   22000      143  5.2732276e-10      433.24877 
   23000      143  5.4101795e-10      454.12243 
   24000      143  5.5034178e-10      474.19343 
   25000      143  5.6151853e-10      494.34885 
   26000      143  5.7660031e-10      515.09334 
   27000      143  5.8167068e-10      538.47606 
   28000      143  5.8183347e-10        561.132 
   29000      143  5.7862667e-10      587.08862 
   30000      143  5.6806671e-10      608.63648 
   31000      143  5.7935016e-10      628.44457 
   32000      143  5.8643276e-10      648.57658 
   33000      143  6.0159663e-10      667.17862 
   34000      143  5.7987197e-10      688.53659 
   35000      143   5.810313e-10      713.08368 
   36000      143  5.7632038e-10      733.60344 
   37000      143  5.6367911e-10      754.25994 
   38000      143  5.8380746e-10      774.93727 
   39000      143  5.9729417e-10      797.35358 
   40000      143  6.0605023e-10      820.08523 
   41000      143    6.05068e-10      841.66937 
   42000      143  5.7690734e-10      862.50723 
   43000      143  5.9109435e-10      884.03761 
   44000      143  5.7004466e-10       905.6749 
   45000      143  5.8509183e-10      927.55185 
   46000      143  5.8842267e-10      949.36306 
   47000      143  5.9905225e-10      968.28784 
   48000      143  6.1098065e-10      972.61254 
   49000      143  6.2401353e-10      977.36526 
   50000      143  6.0699182e-10      982.00953 
   51000      143   6.170331e-10      987.00435 
   52000      143  6.1018957e-10      991.46712 
   53000      143   6.083474e-10      995.79942 
   54000      143  6.1408764e-10       1000.145 
   55000      143  6.1321402e-10      1004.6779 
   56000      143  6.1259821e-10      1009.1621 
   57000      143  6.0619676e-10      1013.5707 
   58000      143  6.2173004e-10      1018.1057 
   59000      143  6.2910374e-10      1023.2751 
   60000      143  6.4666992e-10      1028.2204 
   61000      143  6.5765203e-10      1033.0294 
   62000      143  6.3869852e-10      1037.9103 
   63000      143  6.5692654e-10      1042.9648 
   64000      143  6.6344721e-10      1048.0602 
   65000      143  6.8561672e-10      1053.4761 
   66000      143  6.7648406e-10      1058.6454 
   67000      143  6.7401646e-10      1064.2391 
   68000      143  6.7115749e-10      1069.4749 
   69000      143  6.8718185e-10      1074.8402 
   70000      143  6.7685222e-10      1080.4602 
   71000      143  6.9770808e-10      1085.7543 
   72000      143  7.0272986e-10      1091.2807 
   73000      143  7.2370554e-10      1096.8721 
   74000      143  7.1952262e-10      1102.7418 
   75000      143   7.395441e-10      1108.1996 
   76000      143  7.4566233e-10      1113.9077 
   77000      143  7.1848098e-10       1119.717 
   78000      143  7.1999683e-10      1125.3703 
   79000      143  6.9216028e-10       1130.579 
   80000      143  7.0359814e-10      1136.3513 
   81000      143  7.0089902e-10      1142.4052 
   82000      143  6.8797154e-10      1147.9259 
   83000      143  6.9828871e-10      1153.7565 
   84000      143  6.7740996e-10      1159.3859 
   85000      143  7.0477112e-10      1163.8514 
   86000      143  7.2975525e-10      1169.5505 
   87000      143  7.2390179e-10       1174.153 
   88000      143  7.3172523e-10      1179.3485 
   89000      143   7.228012e-10       1185.723 
   90000      143  7.3491285e-10      1191.4543 
   91000      143  7.4483256e-10       1197.405 
   92000      143  7.5154329e-10      1203.7002 
   93000      143   7.600916e-10      1209.2064 
   94000      143  7.9044178e-10      1215.3475 
   95000      143  8.0146501e-10      1221.7398 
   96000      143   8.143708e-10      1227.8764 
   97000      143   8.209959e-10      1234.1994 
   98000      143   8.296408e-10      1240.8032 
   99000      143  8.2814345e-10      1245.4337 
  100000      143  8.3350334e-10      1250.6934 
  101000      143  8.4572984e-10      1256.5343 
  102000      143  8.1067049e-10      1263.3026 
  103000      143  8.2751382e-10      1268.5808 
  104000      143  8.5787366e-10      1274.3577 
  105000      143  8.8978997e-10      1281.4906 
  106000      143    9.05711e-10      1287.6382 
  107000      143  9.1524862e-10      1294.4688 
  108000      143  9.4180827e-10      1300.9921 
  109000      143   9.669551e-10      1307.2756 
  110000      143  9.6438439e-10      1313.3867 
  111000      143  9.8950184e-10      1320.2405 
  112000      143  1.0025527e-09       1327.172 
  113000      143  1.0042057e-09      1333.6212 
  114000      143  1.0063121e-09      1339.8702 
  115000      143  1.0176797e-09      1346.5724 
  116000      143  9.8249145e-10      1353.3431 
  117000      143  9.9124124e-10      1360.2616 
  118000      143  1.2418321e-09      1366.0394 
  119000      143  1.2143772e-09      1371.7077 
  120000      142  8.9096189e-10      1378.7616 
  121000      142  8.0812305e-10      1385.6882 
  122000      142   8.326926e-10      1391.6784 
  123000      142  8.2304305e-10      1397.2289 
  124000      142  8.0281152e-10      1403.4933 
  125000      142  7.7434532e-10      1411.9051 
  126000      142  7.6286261e-10      1419.7296 
  127000      142  7.2528673e-10      1427.2062 
  128000      142  7.3312212e-10      1434.1388 
  129000      142  7.4518458e-10      1441.4382 
  130000      142  7.5751159e-10      1448.6035 
  131000      142  7.5945646e-10      1454.4983 
  132000      142  7.4265603e-10      1461.3318 
  133000      142  7.2208127e-10      1467.9414 
  134000      142  7.2324248e-10      1475.6034 
  135000      142  7.1686928e-10      1482.3795 
  136000      142  7.0193719e-10      1489.8013 
  137000      142  6.8780511e-10      1496.5285 
  138000      142   6.497317e-10      1504.3808 
  139000      142  6.4847104e-10      1510.6884 
  140000      142  6.6156229e-10      1517.5627 
  141000      142  6.4583587e-10      1525.1235 
  142000      142  6.3270051e-10      1531.2508 
  143000      142  6.1422367e-10      1538.4301 
  144000      142  5.9507153e-10      1546.0563 
  145000      142  6.0642039e-10        1553.66 
  146000      142  6.0137052e-10       1563.905 
  147000      142   6.173195e-10      1579.6244 
  148000      142  6.0590781e-10      1603.0548 
  149000      142  6.2905413e-10      1626.8955 
  150000      142  6.3745915e-10      1650.6421 
INFO: Particle insertion ins: inserted 47 particle templates (mass 2.460914e-08) at step 150001
 - a total of 190 particle templates (mass 9.948377e-08) inserted so far.
  151000      189  7.9035467e-10      1681.0905 
  152000      189  7.8418812e-10        1705.08 
  153000      189  7.6709106e-10      1730.1509 
  154000      189  7.8314332e-10      1755.4176 
  155000      189  7.6003112e-10      1779.0363 
  156000      189  7.3947345e-10      1803.0563 
  157000      189  7.6309527e-10      1826.9927 
  158000      189  7.7477047e-10      1850.2134 
  159000      189  7.9260655e-10      1875.3211 
  160000      189  8.0076046e-10      1898.7833 
  161000      189  8.0495137e-10      1922.0011 
  162000      189  8.2043817e-10      1945.2096 
  163000      189  8.2117353e-10      1968.4987 
  164000      189  8.2183524e-10      1992.5062 
  165000      189  8.2934949e-10      2016.3764 
  166000      189  7.7698128e-10      2041.4739 
  167000      189  7.8211532e-10      2065.5607 
  168000      189  7.8825248e-10      2096.3877 
  169000      189  7.8017085e-10      2131.0573 
  170000      189  7.9071477e-10      2169.1088 
  171000      189  7.7077532e-10      2209.5357 
  172000      189   7.357046e-10      2245.5071 
  173000      189  7.5083598e-10      2271.8748 
  174000      189  7.6390327e-10      2299.4764 
  175000      189  7.1414407e-10      2327.3521 
  176000      189  7.0233889e-10      2353.4229 
  177000      189  6.9765008e-10      2380.7568 
  178000      189  7.5809189e-10      2407.5689 
  179000      189  6.6190337e-10      2438.5372 
  180000      189  6.9031099e-10      2466.7771 
  181000      189  6.3116838e-10      2494.4829 
  182000      189  6.4796823e-10      2521.7697 
  183000      189  6.6487168e-10      2549.8073 
  184000      189  6.3813912e-10      2578.2579 
  185000      189  6.2549381e-10      2604.9772 
  186000      189  6.3160169e-10      2632.6131 
  187000      189  5.7637594e-10       2658.807 
  188000      189  5.8829624e-10      2687.1591 
  189000      189  5.8411431e-10      2712.2021 
  190000      189  5.6739861e-10      2740.1683 
  191000      189  5.8403074e-10      2768.3344 
  192000      189  5.7964442e-10      2795.0307 
  193000      189  5.9456546e-10      2822.3949 
  194000      189  5.9850589e-10      2850.8676 
  195000      189  5.9980864e-10      2879.7063 
  196000      189  5.9754657e-10      2907.3531 
  197000      189  6.0620528e-10      2936.2731 
  198000      189  6.4152965e-10      2964.8661 
  199000      189  6.4533308e-10      2990.9283 
  200000      189  6.3205644e-10      3022.4039 
Loop time of 3022.41 on 24 procs for 200000 steps with 189 atoms, finish time Fri May 29 01:18:05 2026


Pair  time (%) = 2.57753 (0.0852805)
Neigh time (%) = 0.00132547 (4.38547e-05)
Comm  time (%) = 5.70697 (0.188822)
Outpt time (%) = 7.56624 (0.250338)
Other time (%) = 3006.56 (99.4755)

Nlocal:    7.875 ave 93 max 0 min
Histogram: 21 1 0 0 0 0 0 0 1 1
Nghost:    9.08333 ave 113 max 0 min
Histogram: 20 1 1 0 0 1 0 0 0 1
Neighs:    181.625 ave 2822 max 0 min
Histogram: 22 0 0 0 1 0 0 0 0 1

Total # of neighbors = 4359
Ave neighs/atom = 23.0635
Neighbor list builds = 30
Dangerous builds = 0

unfix	ins

run	${dischargesteps}
run	5000000
Setting up run at Fri May 29 01:18:05 2026

Memory usage per processor = 20.233 Mbytes
    Step    Atoms         KinEng            CPU 
  200000      189  6.3205644e-10              0 
  201000      189  6.4129038e-10      30.284661 
  202000      189  6.7177726e-10      58.750152 
  203000      189  6.9520543e-10      87.706677 
  204000      189  7.0926993e-10      113.96904 
  205000      189  7.1997588e-10      142.03107 
  206000      189   7.506263e-10      171.18833 
  207000      189  7.6921645e-10      196.31945 
  208000      189  7.6478482e-10      222.89351 
  209000      189  7.8219676e-10      248.45779 
  210000      189  8.7630782e-10      275.06066 
  211000      189  8.2405396e-10      303.43624 
  212000      189  8.4054709e-10      331.80908 
  213000      189  8.8363828e-10      356.46902 
  214000      189  9.1267656e-10      383.99308 
  215000      189  9.6100255e-10      412.16784 
  216000      189  9.8768534e-10      440.39025 
  217000      189  1.0246068e-09      467.60271 
  218000      189  1.0542123e-09      496.25626 
  219000      189  1.0452039e-09      525.47267 
  220000      189  1.0717455e-09       551.3469 
  221000      189  1.1231204e-09      582.51333 
  222000      189  1.1643184e-09      610.28287 
  223000      189  1.1927806e-09      636.15186 
  224000      189  1.2024567e-09      664.69056 
  225000      189  1.2302989e-09      693.87299 
  226000      189  1.2595147e-09      722.25524 
  227000      189  1.2544328e-09      748.89089 
  228000      189  1.2921766e-09      775.67496 
  229000      189  1.3445086e-09      804.47397 
  230000      189  1.3625138e-09      833.60457 
  231000      189  1.3723968e-09      860.27684 
  232000      189  1.4772166e-09      888.73985 
  233000      189  1.4387777e-09      914.97334 
  234000      189  1.4596347e-09      936.19104 
  235000      189  1.4332993e-09      958.90407 
  236000      189  1.4646569e-09      980.29028 
  237000      189  1.4524654e-09      1002.4972 
  238000      189  1.4811736e-09      1025.1386 
  239000      189  1.4920329e-09      1047.2804 
  240000      189  1.3217302e-09      1070.2061 
  241000      189  1.2586287e-09      1090.8818 
  242000      189  1.2143376e-09      1114.1572 
  243000      189  9.7843381e-10      1136.3775 
  244000      189  9.2017876e-10      1157.5931 
  245000      189  9.4134807e-10      1179.8058 
  246000      189   8.238604e-10      1201.9247 
  247000      189  8.0327169e-10      1223.4316 
  248000      189  7.6241165e-10      1245.9708 
  249000      189  7.2955198e-10      1267.2557 
  250000      189  7.2206466e-10       1288.226 
  251000      189  6.7781499e-10       1309.697 
  252000      189  6.5726989e-10      1331.1883 
  253000      189  6.5511345e-10      1353.1268 
  254000      189  6.3740638e-10      1374.5931 
  255000      189  6.2867364e-10      1396.4982 
  256000      189  6.3090623e-10      1416.1102 
  257000      189   6.289427e-10      1437.6557 
  258000      189  6.1214924e-10      1460.8706 
  259000      189  6.0834716e-10      1483.6769 
  260000      189  6.0944595e-10      1504.0351 
  261000      189  5.6115096e-10      1525.2246 
  262000      189  5.2239559e-10      1546.1697 
  263000      189  5.2186884e-10      1568.2565 
  264000      189  5.2925153e-10      1587.2205 
  265000      189  5.6472174e-10      1607.1851 
  266000      189  5.4235242e-10      1627.2693 
  267000      189  5.0376606e-10      1649.5854 
  268000      189  5.0534777e-10      1678.3986 
  269000      189   5.307503e-10      1704.5987 
  270000      189  5.1376129e-10      1730.3518 
  271000      189  5.2878113e-10       1759.223 
  272000      189  5.0059027e-10      1785.5947 
  273000      189  4.9476477e-10      1811.0811 
  274000      189   4.965796e-10      1837.4398 
  275000      189  4.6744418e-10      1861.0037 
  276000      189  4.5282387e-10      1886.4149 
  277000      189  4.6422686e-10      1913.8029 
  278000      189   4.780917e-10      1940.0714 
  279000      189  4.7351087e-10      1964.5453 
  280000      189  4.8485673e-10      1989.2557 
  281000      189  4.8766718e-10      2014.4835 
  282000      189  5.0003795e-10      2040.3625 
  283000      189  4.8379042e-10      2066.9777 
  284000      189  4.7883169e-10       2091.495 
  285000      189   4.757238e-10      2117.4283 
  286000      189  4.7414217e-10      2144.7558 
  287000      189  4.9933567e-10      2171.0135 
  288000      189  5.0977911e-10      2195.8712 
  289000      189  5.1796084e-10      2220.8423 
  290000      189  5.2631198e-10       2247.384 
  291000      189  5.1277104e-10      2278.0218 
  292000      189  5.1059845e-10      2303.7659 
  293000      189  5.1185419e-10      2329.7623 
  294000      189  5.1933517e-10      2356.1643 
  295000      189  5.3867237e-10       2382.997 
  296000      189  5.6760091e-10       2408.534 
  297000      189  6.2310483e-10      2436.7815 
  298000      189  6.4324584e-10      2464.3772 
  299000      189  6.6356587e-10      2492.5594 
  300000      189  6.8142463e-10      2517.4397 
  301000      189   6.863384e-10      2543.2611 
  302000      189  6.6526772e-10      2568.3991 
  303000      189  6.7739567e-10      2595.2442 
  304000      189  6.5620938e-10      2621.4018 
  305000      189  6.4517805e-10      2652.5383 
  306000      189  6.6177141e-10      2678.6641 
  307000      189  6.4869391e-10       2705.079 
  308000      189  6.4852464e-10      2734.5345 
  309000      189  6.4736925e-10      2773.2612 
  310000      189  6.6412564e-10      2809.6484 
  311000      189  6.7930318e-10      2864.9507 
  312000      189  6.5957591e-10      2926.8419 
  313000      189  6.4082775e-10       2969.138 
  314000      189  6.2405471e-10      3003.0591 
  315000      189  7.6919797e-10       3039.549 
  316000      189  6.6488512e-10      3074.6846 
  317000      189  6.1129707e-10       3109.137 
  318000      189  5.9469629e-10      3140.4546 
  319000      189  5.7997137e-10      3174.5947 
  320000      189  5.8025329e-10      3208.8193 
  321000      189  5.4298004e-10      3242.2841 
  322000      189  5.5376219e-10      3278.6235 
  323000      189  5.0523496e-10      3312.7004 
  324000      189  5.0649447e-10      3346.1312 
  325000      189  5.1448582e-10      3379.9341 
  326000      189  4.9665356e-10      3403.1921 
  327000      189  4.9811536e-10      3425.8973 
  328000      189  4.9107666e-10      3449.5164 
  329000      189  5.0959169e-10      3471.9137 
  330000      189   5.253808e-10      3497.0643 
  331000      189  5.0028045e-10      3522.6425 
  332000      189  5.1691747e-10      3544.8813 
  333000      189  4.7882162e-10      3570.0763 
  334000      189  4.7785556e-10      3594.4612 
  335000      188  2.5508187e-10      3621.6436 
  336000      188  2.5844499e-10      3645.6001 
  337000      188  2.5460578e-10      3670.2596 
  338000      188  2.4461461e-10      3692.8307 
  339000      188  2.4832142e-10      3717.3052 
  340000      188  2.3945634e-10      3740.9502 
  341000      188  2.3591523e-10      3765.7419 
  342000      188  2.3277221e-10       3789.407 
  343000      188  2.2901414e-10      3812.6796 
  344000      188  3.4820008e-10      3836.9002 
  345000      188  2.1540176e-10      3861.5207 
  346000      188  3.3953294e-10      3882.9051 
  347000      188  2.8667017e-10      3906.0109 
  348000      188  3.1960097e-10       3930.078 
  349000      188  3.6022708e-10      3954.6314 
  350000      188  2.8653269e-10      3978.5208 
  351000      188  2.8057961e-10      4001.1971 
  352000      188  2.5905606e-10      4024.7204 
  353000      188  2.5504712e-10      4048.5853 
  354000      188    2.20874e-10      4072.4807 
  355000      188  2.2823307e-10      4096.8734 
  356000      188  2.3311793e-10       4122.976 
  357000      188  2.2434739e-10      4155.8416 
  358000      188  2.2255793e-10      4186.4339 
  359000      188  1.9593016e-10      4214.8708 
  360000      188  1.9765918e-10       4243.703 
  361000      188  1.8642593e-10      4273.8332 
  362000      188  1.8001424e-10      4304.7231 
  363000      188  1.8231479e-10      4335.6327 
  364000      188  2.4568158e-10      4364.0968 
  365000      188   2.219583e-10      4394.8003 
  366000      188  1.8289683e-10      4423.4038 
  367000      188   1.602666e-10      4452.8573 
  368000      188  1.6419524e-10       4483.156 
  369000      188   1.684058e-10       4513.054 
  370000      188  1.7101623e-10      4541.1119 
  371000      188  1.7209773e-10       4569.296 
  372000      188  1.6087872e-10      4598.7533 
  373000      188  1.5913336e-10      4627.5097 
  374000      188  1.5660985e-10      4656.6832 
  375000      188  1.5947858e-10       4685.941 
  376000      188  1.6099418e-10      4714.1921 
  377000      188  1.7018556e-10      4744.3265 
  378000      188  1.7487642e-10      4772.6461 
  379000      188  1.8814206e-10      4804.2537 
  380000      188  2.1649187e-10        4835.27 
  381000      188  1.6643369e-10      4864.4579 
  382000      188  2.1904004e-10      4889.7761 
  383000      188  1.7270002e-10      4919.8084 
  384000      188  1.7870131e-10      4950.7966 
  385000      188  1.7808381e-10      4980.7215 
  386000      188  1.8093347e-10      5008.2687 
  387000      188  1.7266535e-10      5037.4915 
  388000      188  1.7601382e-10      5071.7614 
  389000      188  1.7850585e-10      5102.9132 
  390000      188  2.2592386e-10      5133.6083 
  391000      188  1.7277947e-10      5167.3406 
  392000      188  2.2318541e-10      5200.9805 
  393000      188  2.2739474e-10      5229.1232 
  394000      188  1.8351771e-10      5257.5223 
  395000      188  1.9184988e-10       5287.013 
  396000      188  2.4146131e-10      5317.5577 
  397000      188  1.6642229e-10      5348.2587 
  398000      188   1.816152e-10      5377.1672 
  399000      188  1.6114661e-10      5410.0911 
  400000      188  1.6411762e-10      5444.9761 
  401000      188  1.5854591e-10      5475.0789 
  402000      188  1.6090787e-10      5505.7683 
  403000      188  1.3032546e-10      5537.8395 
  404000      188  1.1931512e-10      5567.0289 
  405000      188  1.1857925e-10      5596.0095 
  406000      188  1.2236324e-10      5625.2097 
  407000      188   1.254439e-10      5656.8341 
  408000      188  1.2377391e-10      5685.6409 
  409000      188  1.2142766e-10       5714.218 
  410000      188   1.392677e-10      5744.1834 
  411000      188   1.573645e-10      5774.5671 
  412000      188  1.2066405e-10      5802.1116 
  413000      188  1.1974812e-10      5831.0175 
  414000      188    1.24529e-10      5861.4439 
  415000      188  1.3763504e-10        5895.87 
  416000      188  1.1047628e-10      5931.0773 
  417000      188  1.0641684e-10      5964.8673 
  418000      188  1.0837925e-10       5994.231 
  419000      188  1.1440069e-10      6024.5605 
  420000      188  1.0245064e-10      6053.1473 
  421000      188   1.075228e-10      6082.7236 
  422000      188    1.10801e-10      6111.6303 
  423000      188  1.0358716e-10      6140.4099 
  424000      188  1.0233797e-10      6168.0902 
  425000      188   9.881247e-11      6198.4045 
  426000      188  8.7406831e-11      6227.2461 
  427000      188  1.6443371e-10      6255.7147 
  428000      188  1.0986707e-10      6284.6583 
  429000      188  1.2878226e-10      6313.0627 
  430000      188  9.9073736e-11       6343.563 
  431000      188  3.8432084e-10      6374.9493 
  432000      188  3.0265937e-10      6403.7625 
  433000      188  1.6021542e-10      6432.1863 
  434000      188  1.6091546e-10      6473.9008 
  435000      188  1.5789611e-10      6540.0691 
  436000      188  1.1430317e-10      6596.1948 
  437000      188  1.1543795e-10      6632.8992 
  438000      188  1.1085596e-10      6670.8637 
  439000      188  9.8783466e-11      6708.9282 
  440000      188  1.3468823e-10      6743.5192 
  441000      188  1.3321573e-10      6780.3694 
  442000      188  1.3224539e-10      6816.8492 
  443000      188  1.7685874e-10      6854.3562 
  444000      188   1.156185e-10      6892.8746 
  445000      188  1.1588883e-10      6932.1267 
  446000      188  1.0881055e-10      6967.9119 
  447000      188  1.9281806e-10      7005.9279 
  448000      188  1.6520229e-10      7042.8351 
  449000      188  1.6607121e-10      7075.5811 
  450000      188  1.4255974e-10       7115.014 
  451000      188  1.3243265e-10      7152.5657 
  452000      188  1.3203676e-10      7190.0376 
  453000      188   8.713905e-11      7230.6073 
  454000      188  8.8513623e-11      7268.6064 
  455000      188  8.7202968e-11       7304.535 
  456000      188  8.9502829e-11      7341.3965 
  457000      188  8.3687408e-11      7375.9798 
  458000      188  8.9487253e-11      7413.9492 
  459000      188  9.2875002e-11      7452.0066 
  460000      188  9.0601419e-11      7489.5613 
  461000      188  7.5661136e-11      7526.2721 
  462000      188  8.8279836e-11      7567.4131 
  463000      188  1.3219719e-10       7605.632 
  464000      188  7.8392599e-11      7644.4254 
  465000      188  6.8235693e-11      7684.5527 
  466000      188  6.7702878e-11       7726.106 
  467000      188  6.4305211e-11      7763.7822 
  468000      188  6.6004425e-11      7796.6162 
  469000      188  6.2875311e-11      7826.4903 
  470000      188  5.7947111e-11      7858.3961 
  471000      188  5.9168672e-11      7892.5976 
  472000      188  8.1432764e-11      7924.7624 
  473000      188  7.4402398e-11      7955.0096 
  474000      188  6.1029764e-11      7989.5956 
  475000      188  6.6533047e-11      8021.7049 
  476000      188  5.8578531e-11      8053.3669 
  477000      188  7.7874104e-11         8085.6 
  478000      188  7.7553529e-11      8115.9978 
  479000      188  1.2892289e-10      8149.1069 
  480000      188   7.588971e-11      8184.8282 
  481000      188  6.0945867e-11      8218.0152 
  482000      188  5.9681874e-11      8251.3586 
  483000      188  5.9281339e-11        8289.08 
  484000      188  5.8584247e-11      8326.9919 
  485000      188  6.1435773e-11      8362.8349 
  486000      188  7.1200023e-11      8400.6018 
  487000      188  6.5155448e-11      8438.7077 
  488000      188  6.4739968e-11      8471.5725 
  489000      188  6.7372218e-11      8509.6335 
  490000      188  6.9355087e-11      8548.8246 
  491000      188  8.2767674e-11      8586.1314 
  492000      188  9.0405629e-11      8625.1788 
  493000      188  1.0976549e-10      8663.3161 
  494000      188  7.8579615e-11      8700.4264 
  495000      188  1.2175641e-10      8736.8736 
  496000      188   7.913261e-11      8765.5906 
  497000      188  6.9131808e-11      8794.9862 
  498000      188  7.4252879e-11      8823.9064 
  499000      188  7.6825478e-11      8855.7863 
  500000      188  8.0974034e-11      8884.5229 
  501000      188  8.7180459e-11      8915.6226 
  502000      188  8.8724163e-11      8946.1873 
  503000      188  8.4715867e-11      8976.2112 
  504000      188   9.272892e-11      9005.6789 
  505000      188  8.7041072e-11      9035.0275 
  506000      188  7.8696596e-11      9062.3916 
  507000      188  8.1811441e-11      9092.5001 
  508000      188  8.3860271e-11      9121.3887 
  509000      188  8.3423854e-11      9150.0773 
  510000      188  8.3594836e-11      9181.5379 
  511000      188  7.5271108e-11      9213.4194 
  512000      188  7.9447011e-11      9245.0051 
  513000      188  8.4823304e-11       9275.169 
  514000      188  7.5703692e-11      9306.0846 
  515000      188  7.9603606e-11      9337.8813 
  516000      188  8.1116222e-11      9366.7581 
  517000      188  7.6455242e-11       9396.015 
  518000      188  7.5989856e-11      9428.0224 
  519000      188   7.035174e-11      9458.9665 
  520000      188  7.0253226e-11      9487.6876 
  521000      188  7.0944154e-11      9521.0772 
  522000      188  1.0425615e-10      9546.6487 
  523000      188  1.6881081e-10        9570.54 
  524000      188  8.2351779e-11      9594.3633 
  525000      188  1.0960892e-10      9618.0844 
  526000      188  2.0262291e-10      9642.4737 
  527000      188  3.9303603e-10       9665.858 
  528000      188   3.781713e-10      9688.6268 
  529000      188  3.7347437e-10      9714.9486 
  530000      188  1.7380502e-10      9741.2705 
  531000      188  1.7157641e-10      9768.0287 
  532000      188  1.7246694e-10      9791.0108 
  533000      188  1.7465872e-10      9815.7765 
  534000      188  1.7093272e-10      9839.2133 
  535000      188   1.374036e-10      9864.3534 
  536000      188  1.7776821e-10      9893.7471 
  537000      188  1.1216744e-10      9917.3912 
  538000      188  1.0519576e-10        9940.93 
  539000      188  1.0568614e-10      9968.3693 
  540000      188  1.0815483e-10      10005.764 
  541000      188   8.332554e-11      10042.882 
  542000      188   8.138884e-11      10075.676 
  543000      188  8.1261225e-11      10104.262 
  544000      188  8.1313078e-11       10125.56 
  545000      188   8.104774e-11      10145.504 
  546000      188  7.6777771e-11      10167.339 
  547000      188  7.4363716e-11      10189.134 
  548000      188  7.4563374e-11      10209.162 
  549000      188  6.3990033e-11      10229.857 
  550000      188  6.6610701e-11      10250.224 
  551000      188  6.8152066e-11      10271.009 
  552000      188  6.3464659e-11       10290.54 
  553000      188  6.3142993e-11      10311.589 
  554000      188   6.247885e-11      10332.349 
  555000      188  6.0811328e-11       10352.72 
  556000      188  8.1521961e-11      10373.094 
  557000      188  9.2170497e-11      10393.185 
  558000      188   5.189491e-11      10414.664 
  559000      188  4.6584182e-11      10437.021 
  560000      188  4.9092182e-11      10457.886 
  561000      188  5.1265542e-11      10478.788 
  562000      188  5.0595596e-11      10498.323 
  563000      188  5.1153343e-11      10519.348 
  564000      188  4.6180078e-11      10539.429 
  565000      188  4.8351511e-11       10560.18 
  566000      188  4.8957822e-11      10579.637 
  567000      188  4.5898076e-11      10600.515 
  568000      188  4.6512596e-11      10621.628 
  569000      188  4.7898468e-11      10641.733 
  570000      188  3.8293465e-11      10662.705 
  571000      188  3.7055259e-11      10682.347 
  572000      188  3.8885426e-11       10703.69 
  573000      188  4.1282021e-11      10725.434 
  574000      188  4.0782772e-11      10746.206 
  575000      188  4.0142459e-11      10767.483 
  576000      188  3.3679282e-11      10789.407 
  577000      188  3.5120644e-11      10810.503 
  578000      188  3.6966808e-11      10833.726 
  579000      188  3.6913913e-11      10854.059 
  580000      188  3.9275124e-11       10875.01 
  581000      188  3.7814628e-11      10895.798 
  582000      188  4.1391342e-11      10916.838 
  583000      188  3.7642024e-11      10938.435 
  584000      188  1.3866236e-10      10964.336 
  585000      188  1.2549229e-10      10989.902 
  586000      188  1.1631757e-10      11016.785 
  587000      188  1.0791946e-10      11041.183 
  588000      188   1.076172e-10      11064.782 
  589000      188  1.0540843e-10      11089.464 
  590000      188  1.0495236e-10      11116.712 
  591000      188  4.7677003e-11      11141.554 
  592000      188  4.8890738e-11      11165.699 
  593000      188   4.778108e-11      11189.821 
  594000      188  4.9380259e-11      11213.918 
  595000      188  4.7664809e-11      11238.195 
  596000      188  5.0852167e-11      11262.715 
  597000      188   5.052233e-11      11288.219 
  598000      188  5.1872293e-11      11313.935 
  599000      188   5.400189e-11      11347.077 
  600000      188  5.3184004e-11      11383.767 
  601000      188  5.5203045e-11      11415.654 
  602000      188  4.1724075e-11      11447.295 
  603000      188  4.1810497e-11      11478.309 
  604000      188  3.6453907e-11       11511.23 
  605000      188  3.2841166e-11      11543.115 
  606000      188  3.2758627e-11      11572.764 
  607000      188  3.1428352e-11      11606.333 
  608000      188  3.1294584e-11      11640.048 
  609000      188  3.1235242e-11       11671.73 
  610000      188  3.1874252e-11      11701.546 
  611000      188  3.2348713e-11       11732.34 
  612000      188   3.189015e-11      11763.341 
  613000      188  3.1343015e-11      11791.284 
  614000      188  3.1348421e-11      11825.646 
  615000      188  5.5059485e-11      11858.719 
  616000      188  3.4246502e-11      11888.826 
  617000      188  3.9324508e-11      11920.507 
  618000      188  2.5135175e-11      11953.639 
  619000      188  4.0615499e-11      11985.049 
  620000      188  1.4009449e-10      12016.951 
  621000      188  3.2256928e-11      12048.558 
  622000      188  2.8758678e-11      12081.063 
  623000      188  2.8683706e-11      12112.509 
  624000      188  2.9482624e-11      12145.343 
  625000      188  3.0404418e-11      12178.617 
  626000      188  3.0420352e-11      12210.192 
  627000      188  3.1619537e-11      12241.886 
  628000      188  3.2384884e-11      12274.458 
  629000      188  2.9266182e-11      12309.077 
  630000      188  2.8904509e-11      12343.713 
  631000      188  2.4054932e-11      12378.572 
  632000      188  2.4209856e-11      12410.237 
  633000      188  2.4672563e-11      12441.441 
  634000      188  2.5439342e-11      12472.828 
  635000      188  4.1241493e-11      12506.471 
  636000      188  2.8864884e-11      12538.186 
  637000      188  3.0389329e-11      12568.504 
  638000      188  2.7905716e-11      12600.312 
  639000      188  2.9587623e-11      12633.971 
  640000      188  2.6948872e-11      12668.509 
  641000      188  2.7612117e-11      12700.577 
  642000      188  2.9075476e-11      12730.958 
  643000      188  3.1091476e-11      12761.478 
  644000      188  3.4126481e-11      12793.926 
  645000      188  3.6585762e-11       12826.51 
  646000      188  3.9610749e-11      12858.847 
  647000      188  4.2999926e-11      12890.927 
  648000      188  3.2142643e-11       12925.28 
  649000      188  3.3069042e-11      12959.252 
  650000      188  3.3730615e-11       12993.71 
  651000      188  3.4835046e-11      13027.365 
  652000      188  3.2461933e-11      13058.319 
  653000      188  3.3714339e-11      13090.676 
  654000      188  3.0843458e-11      13128.831 
  655000      188  2.8285772e-11      13161.588 
  656000      188  2.9616966e-11      13193.066 
  657000      188  2.7934589e-11      13222.547 
  658000      188  2.9450729e-11      13258.081 
  659000      188   2.640974e-11      13305.819 
  660000      188  2.7590018e-11      13354.189 
  661000      188    2.83563e-11      13398.117 
  662000      188  3.0763735e-11      13430.978 
  663000      188  3.2972141e-11      13468.919 
  664000      188  2.9278732e-11      13506.445 
  665000      188  2.6947013e-11      13542.283 
  666000      188  2.8096686e-11      13575.757 
  667000      188  2.5772413e-11      13610.982 
  668000      188  2.7571719e-11      13646.017 
  669000      188  2.9631049e-11      13677.892 
  670000      188  2.7287238e-11      13712.187 
  671000      188  2.6947863e-11      13747.778 
  672000      188  2.8951731e-11      13783.648 
  673000      188  3.1845256e-11      13819.585 
  674000      188  2.6367188e-11      13854.549 
  675000      188  2.6072712e-11      13890.461 
  676000      188  2.6928766e-11       13926.15 
  677000      188  2.5291931e-11      13963.694 
  678000      188  2.6345075e-11      14000.409 
  679000      188  2.3175888e-11      14035.067 
  680000      188  2.4167846e-11      14068.631 
  681000      188    2.34855e-11       14102.85 
  682000      188  2.5436085e-11      14137.707 
  683000      188  2.6894533e-11      14169.656 
  684000      188   2.803179e-11       14203.15 
  685000      188  3.0835463e-11      14237.613 
  686000      188  3.1616839e-11       14269.88 
  687000      188  3.0104297e-11      14302.788 
  688000      188  3.2158241e-11      14338.518 
  689000      188  2.7186372e-11      14375.563 
  690000      188  2.7770969e-11      14409.864 
  691000      188  2.7592179e-11      14443.917 
  692000      188  2.1353526e-11      14477.504 
  693000      188  1.7457478e-11       14510.55 
  694000      188  1.7328233e-11      14545.011 
  695000      188  1.4704183e-11      14578.184 
  696000      188  1.5308283e-11      14611.606 
  697000      188  1.5685732e-11      14644.743 
  698000      188  1.6947144e-11      14675.276 
  699000      188  1.7885665e-11      14710.668 
  700000      188  1.9298511e-11      14742.476 
  701000      188  1.6734581e-11      14775.777 
  702000      188  1.8155106e-11      14805.011 
  703000      188   1.748965e-11      14835.762 
  704000      188  1.8862975e-11      14868.819 
  705000      188  2.0645076e-11      14899.933 
  706000      188  2.2859179e-11      14932.349 
  707000      188  2.3857393e-11       14963.59 
  708000      188  2.4361262e-11      14989.739 
  709000      188   2.268854e-11      15013.509 
  710000      188  2.3676203e-11      15039.365 
  711000      188  2.0978075e-11      15066.885 
  712000      188  2.2201367e-11      15091.715 
  713000      188  1.7515158e-11      15115.218 
  714000      188  1.8275468e-11      15140.129 
  715000      188  1.6722656e-11      15165.269 
  716000      188  1.7675634e-11      15190.801 
  717000      188   1.845179e-11      15217.096 
  718000      188  2.0276009e-11      15242.148 
  719000      188  2.2252065e-11      15266.431 
  720000      188  2.4117214e-11      15292.079 
  721000      188    2.32975e-11      15318.343 
  722000      188  2.5128265e-11      15343.631 
  723000      188  2.2502725e-11      15369.354 
  724000      188   2.297104e-11      15394.241 
  725000      188  2.4246665e-11      15420.349 
  726000      188  1.7228621e-11      15445.811 
  727000      188  1.7986955e-11      15470.749 
  728000      188  1.8492666e-11      15497.715 
  729000      188  1.9625668e-11      15523.168 
  730000      188  1.9253768e-11      15549.139 
  731000      188  2.0614739e-11      15576.226 
  732000      188  2.2429746e-11      15602.337 
  733000      188  1.7285308e-11      15625.458 
  734000      188  1.6322157e-11       15649.47 
  735000      188  1.6560212e-11      15674.788 
  736000      188  1.7029993e-11      15698.207 
  737000      188  1.5992404e-11      15724.477 
  738000      188   1.670079e-11      15750.075 
  739000      188  1.7832082e-11      15775.863 
  740000      188  1.9299114e-11      15803.064 
  741000      188   2.109457e-11      15827.983 
  742000      188  2.1050591e-11      15852.316 
  743000      188  2.2839517e-11       15879.05 
  744000      188   2.357649e-11      15905.131 
  745000      188     2.0971e-11      15931.252 
  746000      188  2.0684641e-11      15958.056 
  747000      188   2.163129e-11      15982.404 
  748000      188  1.6038131e-11      16008.464 
  749000      188  1.4891155e-11      16033.623 
  750000      188  1.4748632e-11      16057.969 
  751000      188  1.4909617e-11      16084.855 
  752000      188  1.3853272e-11      16108.857 
  753000      188  1.2256625e-11      16134.862 
  754000      188  1.2183165e-11      16161.808 
  755000      188  1.2266903e-11      16189.757 
  756000      188   1.315592e-11      16216.466 
  757000      188   1.406789e-11      16243.617 
  758000      188  1.3069076e-11      16270.383 
  759000      188  1.2260681e-11      16295.334 
  760000      188  1.2430505e-11      16321.508 
  761000      188  1.2295269e-11      16349.006 
  762000      188  1.2945487e-11      16375.973 
  763000      188  9.9102418e-12      16402.582 
  764000      188  9.0088659e-12      16430.257 
  765000      188  8.4316341e-12      16457.563 
  766000      188   8.168132e-12      16482.108 
  767000      188  7.9132965e-12      16508.402 
  768000      188  7.6384614e-12      16533.148 
  769000      188  7.5362804e-12      16559.059 
  770000      188  7.5412292e-12      16585.034 
  771000      188  7.7989525e-12      16609.373 
  772000      188  8.1408243e-12      16634.622 
  773000      188  7.9826741e-12      16661.259 
  774000      188   7.766588e-12      16686.143 
  775000      188  7.6254524e-12      16711.975 
  776000      188  7.7129846e-12      16743.528 
  777000      188  7.7165732e-12      16770.775 
  778000      188   8.093083e-12      16795.747 
  779000      188  8.3124303e-12      16819.884 
  780000      188  8.5304001e-12      16846.435 
  781000      188  9.0137768e-12      16872.343 
  782000      188  9.6286424e-12      16898.217 
  783000      188  8.2414634e-12      16924.275 
  784000      188  8.1951325e-12      16958.398 
  785000      188  7.9886655e-12      16996.747 
  786000      188  7.7869761e-12      17032.145 
  787000      188  7.3840484e-12      17065.611 
  788000      188  7.2447376e-12      17095.384 
  789000      188  7.0684244e-12      17121.052 
  790000      188  6.9445219e-12      17146.541 
  791000      188   7.135341e-12      17172.234 
  792000      188  7.2588451e-12       17204.01 
  793000      188  7.5950714e-12      17230.815 
  794000      188  8.0478231e-12      17257.029 
  795000      188  8.1585666e-12      17284.673 
  796000      188  8.3053832e-12      17310.531 
  797000      188  8.5243996e-12      17337.453 
  798000      188  8.8172987e-12      17364.035 
  799000      188  7.7959805e-12      17390.327 
  800000      188  7.4360629e-12      17421.934 
  801000      188  7.3039683e-12      17451.022 
  802000      188  7.2735607e-12      17476.785 
  803000      188  6.9200881e-12      17502.032 
  804000      188  6.8292001e-12      17529.833 
  805000      188  6.6930243e-12      17554.263 
  806000      188  6.6213071e-12      17581.031 
  807000      188  6.6602488e-12      17607.203 
  808000      188  6.8852712e-12      17633.667 
  809000      188  6.9473982e-12      17658.437 
  810000      188   7.145429e-12      17686.646 
  811000      188  7.3758825e-12      17711.736 
  812000      188  6.8726509e-12      17737.743 
  813000      188  6.7172476e-12      17763.447 
  814000      188  6.5140766e-12      17789.266 
  815000      188  6.2610351e-12        17818.5 
  816000      188  6.2373899e-12       17844.41 
  817000      188  6.2583403e-12       17872.34 
  818000      188  6.2427008e-12      17898.048 
  819000      188  6.2923279e-12      17925.579 
  820000      188  6.4799069e-12      17952.694 
  821000      188  6.6970919e-12      17977.773 
  822000      188  6.7607721e-12      18002.585 
  823000      188  6.4111368e-12       18030.14 
  824000      188  6.3683871e-12      18055.749 
  825000      188  6.7002928e-12      18082.627 
  826000      188  6.5167267e-12      18104.972 
  827000      188  6.4333408e-12      18127.304 
  828000      188  6.4893556e-12      18149.116 
  829000      188  6.4890621e-12      18172.204 
  830000      188  6.6877338e-12      18194.455 
  831000      188  6.5254893e-12      18216.351 
  832000      188  6.4095464e-12       18238.31 
  833000      188   6.231576e-12       18261.63 
  834000      188  6.3306328e-12      18282.707 
  835000      188  6.4183303e-12      18305.239 
  836000      188  6.8870612e-12      18326.889 
  837000      188  6.9214098e-12      18349.519 
  838000      188  6.7394581e-12       18371.77 
  839000      188  6.7389461e-12      18392.393 
  840000      188  6.7044125e-12      18413.905 
  841000      188  6.7220103e-12       18436.69 
  842000      188  7.0442891e-12      18459.194 
  843000      188  6.8756324e-12      18482.447 
  844000      188  6.7213208e-12      18504.089 
  845000      188  6.6831788e-12      18528.786 
  846000      188  6.7231488e-12      18554.283 
  847000      188  6.7014098e-12      18581.956 
  848000      188  6.6630169e-12      18607.605 
  849000      188  6.6847704e-12      18632.441 
  850000      188  6.8062977e-12      18659.395 
  851000      188   6.829268e-12      18684.401 
  852000      188  6.8739727e-12      18709.763 
  853000      188  6.8195326e-12       18735.56 
  854000      188  6.8227044e-12      18761.239 
  855000      188  6.7922997e-12      18787.563 
  856000      188  6.9822948e-12      18812.928 
  857000      188  7.0280245e-12      18838.336 
  858000      188  6.8963363e-12      18864.046 
  859000      188  6.9797354e-12      18890.459 
  860000      188  6.9455662e-12      18915.231 
  861000      188  6.9701412e-12      18941.263 
  862000      188  7.0138856e-12      18969.237 
  863000      188  7.0132857e-12      18994.829 
  864000      188  7.1453432e-12      19019.776 
  865000      188  7.0123895e-12      19045.701 
  866000      188  7.0877832e-12      19070.475 
  867000      188  6.8739315e-12      19096.644 
  868000      188  6.8308805e-12      19123.035 
  869000      188  6.8073575e-12      19150.078 
  870000      188  6.7750927e-12      19174.503 
  871000      188  6.6333915e-12      19199.637 
  872000      188  6.5487893e-12       19225.37 
  873000      188  6.6606122e-12      19250.282 
  874000      188  6.5826543e-12      19276.752 
  875000      188  6.5741675e-12       19300.88 
  876000      188  6.4785261e-12      19324.549 
  877000      188   6.538355e-12      19349.856 
  878000      188  6.4254979e-12      19375.864 
  879000      188  6.3997991e-12      19402.966 
  880000      188  6.5626783e-12      19429.893 
  881000      188  6.4278713e-12      19454.785 
  882000      188  6.4070432e-12      19479.074 
  883000      188  6.4039178e-12      19505.193 
  884000      188  6.5156448e-12      19529.091 
  885000      188  6.4993209e-12       19555.73 
  886000      188  6.4456506e-12      19581.991 
  887000      188  6.5153503e-12      19608.982 
  888000      188  6.4580686e-12      19636.378 
  889000      188  6.4273763e-12      19661.763 
  890000      188  6.4216038e-12       19687.58 
  891000      188  6.4485879e-12      19712.823 
  892000      188    6.45085e-12      19739.651 
  893000      188  6.5133568e-12      19764.795 
  894000      188  6.5160017e-12      19791.519 
  895000      188  6.4731904e-12      19819.514 
  896000      188  6.5672831e-12      19848.581 
  897000      188  6.5568898e-12      19876.513 
  898000      188  6.5772013e-12      19903.182 
  899000      188  6.6203258e-12      19930.931 
  900000      188  6.6268823e-12      19958.964 
  901000      188  6.6687245e-12       19988.08 
  902000      188  6.7550937e-12      20014.714 
  903000      188    6.77511e-12      20041.146 
  904000      188   6.827928e-12      20065.591 
  905000      188  6.8171671e-12      20092.005 
  906000      188   6.809369e-12      20118.394 
  907000      188  6.8315404e-12      20144.565 
  908000      188  6.8516772e-12      20170.041 
  909000      188  6.8705231e-12      20195.143 
  910000      188  6.9220392e-12      20222.705 
  911000      188  6.8398224e-12      20257.654 
  912000      188  6.8841236e-12      20300.033 
  913000      188  6.8857481e-12      20348.948 
  914000      188  6.8967379e-12      20384.401 
  915000      188   6.882286e-12      20417.176 
  916000      188  6.8972124e-12      20451.016 
  917000      188   6.945544e-12      20483.628 
  918000      188  6.8000953e-12      20518.149 
  919000      188  6.9558911e-12      20550.561 
  920000      188  7.0441282e-12      20584.047 
  921000      188  7.0621812e-12      20617.706 
  922000      188  7.1372704e-12      20649.152 
  923000      188  7.2246981e-12      20684.747 
  924000      188  7.1748387e-12      20719.081 
  925000      188  7.1312429e-12      20751.633 
  926000      188  7.1368963e-12       20792.97 
  927000      188  7.0330438e-12      20828.208 
  928000      188  7.0671609e-12      20858.441 
  929000      188  7.0325946e-12      20890.836 
  930000      188  6.9587787e-12      20925.566 
  931000      188  6.9657957e-12      20956.424 
  932000      188  7.0678236e-12      20988.941 
  933000      188  6.9014655e-12      21024.909 
  934000      188  6.8237379e-12      21060.016 
  935000      188  6.7827605e-12      21095.091 
  936000      188  6.5365784e-12       21127.62 
  937000      188  6.7653166e-12      21159.856 
  938000      188  6.6150951e-12      21193.758 
  939000      188  6.6692972e-12      21225.888 
  940000      188  6.6801627e-12      21258.724 
  941000      188  6.7748282e-12      21294.349 
  942000      188   6.662931e-12      21326.165 
  943000      188  6.5567697e-12      21360.453 
  944000      188  6.5728994e-12      21395.674 
  945000      188  6.5107298e-12      21430.085 
  946000      188  6.5192219e-12      21464.148 
  947000      188  6.4927096e-12       21495.62 
  948000      188  6.6962726e-12      21529.925 
  949000      188  6.5230003e-12      21560.429 
  950000      188  6.5918757e-12      21594.042 
  951000      188  6.6627578e-12      21628.098 
  952000      188  6.6394841e-12      21663.891 
  953000      188  6.6454537e-12       21695.49 
  954000      188  6.6752513e-12      21729.358 
  955000      188  6.7199424e-12      21764.182 
  956000      188  6.6753109e-12      21800.568 
  957000      188  6.7098633e-12      21835.062 
  958000      188  6.6923843e-12      21870.239 
  959000      188  6.7806256e-12      21904.055 
  960000      188  6.7027546e-12      21938.207 
  961000      188  6.7374924e-12      21974.163 
  962000      188  6.7860057e-12      22007.136 
  963000      188  6.7493309e-12      22040.623 
  964000      188   6.745427e-12      22072.056 
  965000      188  6.8068637e-12      22107.864 
  966000      188  6.9089881e-12      22143.378 
  967000      188  6.8939958e-12      22174.279 
  968000      188  6.9515888e-12      22208.407 
  969000      188  6.9971951e-12      22240.772 
  970000      188   7.002674e-12      22273.981 
  971000      188  7.0392735e-12      22308.555 
  972000      188  7.0473295e-12      22341.057 
  973000      188  7.0446557e-12      22374.631 
  974000      188  7.0426291e-12      22409.564 
  975000      188   7.082183e-12      22442.655 
  976000      188  7.0984681e-12      22475.643 
  977000      188  7.1215367e-12      22510.007 
  978000      188  7.1162665e-12      22543.623 
  979000      188   7.161626e-12       22577.74 
  980000      188   7.167527e-12      22610.571 
  981000      188  7.2087916e-12      22642.208 
  982000      188  7.1887161e-12      22677.127 
  983000      188  7.2903691e-12       22709.76 
  984000      188  7.2439616e-12      22740.769 
  985000      188  7.2372727e-12      22773.379 
  986000      188  7.2767608e-12      22805.791 
  987000      188  7.3254858e-12      22840.565 
  988000      188  7.3482682e-12      22873.155 
  989000      188  7.3638199e-12      22905.821 
  990000      188  7.3320155e-12      22942.704 
  991000      188  7.3078761e-12      22975.376 
  992000      188  7.2630028e-12      23011.345 
  993000      188   7.319882e-12      23045.731 
  994000      188  7.2525608e-12      23076.324 
  995000      188  7.1136874e-12      23113.966 
  996000      188  7.0178924e-12      23155.308 
  997000      188  6.9773444e-12      23196.988 
  998000      188  6.9546131e-12      23238.365 
  999000      188  6.8271673e-12      23275.179 
 1000000      188  6.8557831e-12      23323.109 
 1001000      188  6.9727491e-12       23365.16 
 1002000      188  6.7605106e-12      23406.665 
 1003000      188  6.8136883e-12      23451.124 
 1004000      188  6.7393994e-12      23491.008 
 1005000      188  6.8004893e-12      23533.958 
 1006000      188  6.7114714e-12      23576.658 
 1007000      188  6.6542099e-12      23617.675 
 1008000      188  6.7569751e-12      23657.014 
 1009000      188  6.6725768e-12      23690.674 
 1010000      188  6.6128733e-12      23722.748 
 1011000      188  6.6521047e-12      23756.796 
 1012000      188  6.6925138e-12      23790.101 
 1013000      188  6.6802042e-12      23825.367 
 1014000      188  6.7669339e-12      23858.418 
 1015000      188  6.7243514e-12      23894.562 
 1016000      188  6.7634823e-12      23942.981 
 1017000      188  6.7175503e-12      23996.915 
 1018000      188  6.7741739e-12      24041.491 
 1019000      188  6.7300718e-12      24075.881 
 1020000      188  6.7758193e-12      24106.969 
 1021000      188   6.780728e-12      24139.635 
 1022000      188  6.8231703e-12       24171.32 
 1023000      188  6.8364957e-12      24203.191 
 1024000      188  6.8155696e-12      24236.049 
 1025000      188   6.878176e-12      24271.636 
 1026000      188   6.900932e-12      24306.642 
 1027000      188  6.9479901e-12      24338.312 
 1028000      188  6.9427032e-12      24372.916 
 1029000      188   6.938835e-12      24405.779 
 1030000      188  7.0411498e-12      24435.154 
 1031000      188   7.012837e-12      24466.675 
 1032000      188  7.0576273e-12      24502.712 
 1033000      188  7.1030559e-12      24535.976 
 1034000      188  7.0924429e-12      24569.819 
 1035000      188  7.0895047e-12       24605.73 
 1036000      188  7.0924853e-12      24638.281 
 1037000      188   7.070988e-12      24670.914 
 1038000      188  7.1414306e-12      24704.178 
 1039000      188  7.1452763e-12      24739.796 
 1040000      188   7.167353e-12      24769.988 
 1041000      188  7.2106365e-12      24802.319 
 1042000      188  7.2145795e-12      24835.416 
 1043000      188  7.3400592e-12      24870.126 
 1044000      188  7.2990515e-12      24903.232 
 1045000      188  7.3081146e-12      24936.403 
 1046000      188  7.3761111e-12      24968.571 
 1047000      188  7.3517446e-12      25001.761 
 1048000      188  7.4661603e-12      25035.229 
 1049000      188  7.4150639e-12      25070.461 
 1050000      188   7.525132e-12      25104.538 
 1051000      188  7.3919478e-12      25140.875 
 1052000      188  7.3314502e-12      25171.861 
 1053000      188  7.3771866e-12      25205.406 
 1054000      188  7.2873679e-12      25239.983 
 1055000      188  7.2508067e-12      25275.476 
 1056000      188  7.2543272e-12      25307.659 
 1057000      188  7.2731131e-12      25341.915 
 1058000      188  7.1452458e-12      25377.108 
 1059000      188  6.9468655e-12      25419.149 
 1060000      188  6.9439676e-12      25451.897 
 1061000      188  6.9044022e-12      25486.992 
 1062000      188  6.9334678e-12      25521.737 
 1063000      188   6.863456e-12      25553.965 
 1064000      188  6.9448828e-12       25589.19 
 1065000      188  6.7865747e-12      25622.977 
 1066000      188  6.9038594e-12      25655.208 
 1067000      188  6.8322651e-12      25688.103 
 1068000      188  6.7599346e-12      25723.954 
 1069000      188  6.7609768e-12      25757.429 
 1070000      188   6.732159e-12      25790.548 
 1071000      188  6.7256695e-12      25824.057 
 1072000      188  6.6378048e-12      25857.518 
 1073000      188  6.5969361e-12       25891.52 
 1074000      188  6.7076162e-12      25927.849 
 1075000      188  6.7272307e-12      25962.944 
 1076000      188  6.6745493e-12      25995.682 
 1077000      188  6.7224987e-12      26026.863 
 1078000      188  6.6410515e-12      26053.552 
 1079000      188  6.7448567e-12      26082.272 
 1080000      188   6.673569e-12      26107.972 
 1081000      188  6.7148662e-12      26133.302 
 1082000      188  6.7755755e-12      26159.135 
 1083000      188  6.7090972e-12      26187.337 
 1084000      188  6.7628807e-12      26214.731 
 1085000      188  6.7657682e-12      26241.871 
 1086000      188  6.7918002e-12      26268.085 
 1087000      188  6.7623899e-12      26293.248 
 1088000      188  6.8257887e-12      26316.017 
 1089000      188  6.8395366e-12       26338.43 
 1090000      188  6.8818977e-12      26359.862 
 1091000      188  6.8085452e-12      26382.441 
 1092000      188  6.8822282e-12      26406.648 
 1093000      188  6.9177444e-12      26434.646 
 1094000      188  6.9920258e-12      26464.389 
 1095000      188  6.9715411e-12      26492.806 
 1096000      188  7.0358835e-12      26522.143 
 1097000      188  7.0428197e-12      26550.659 
 1098000      188  7.1138956e-12      26573.884 
 1099000      188  7.1508664e-12      26597.118 
 1100000      188  7.0888537e-12      26618.439 
 1101000      188  7.1357094e-12      26640.468 
 1102000      188  7.1299149e-12      26664.656 
 1103000      188  7.1237159e-12      26685.993 
 1104000      188  7.2316239e-12      26709.745 
 1105000      188  7.2535414e-12      26733.275 
 1106000      188  7.2319422e-12       26756.92 
 1107000      188   7.209387e-12      26779.749 
 1108000      188  7.2208929e-12      26801.593 
 1109000      188  7.1558435e-12      26825.317 
 1110000      188  7.2930675e-12      26848.257 
 1111000      188  7.2349361e-12      26870.555 
 1112000      188  7.2466495e-12      26893.689 
 1113000      188  7.2974421e-12      26916.397 
 1114000      188  7.2263862e-12      26938.994 
 1115000      188  7.1953039e-12      26960.935 
 1116000      188  7.1780153e-12       26984.33 
 1117000      188  7.1788525e-12       27007.92 
 1118000      188  7.1868614e-12      27031.716 
 1119000      188  7.1581624e-12      27054.814 
 1120000      188  7.1033555e-12      27077.594 
 1121000      188  7.0684425e-12       27100.82 
 1122000      188  6.9091926e-12       27123.48 
 1123000      188  6.9208345e-12      27147.946 
 1124000      188  6.9870479e-12       27171.31 
 1125000      188  7.1360992e-12      27194.528 
 1126000      188  6.8499757e-12      27217.809 
 1127000      188  6.9128208e-12      27239.919 
 1128000      188  6.9566065e-12      27262.254 
 1129000      188  6.7478624e-12      27284.649 
 1130000      188  6.9248091e-12      27306.482 
 1131000      188  6.8801874e-12       27329.47 
 1132000      188  6.6722886e-12      27354.051 
 1133000      188  6.7819387e-12      27376.783 
 1134000      188  6.5735086e-12      27397.833 
 1135000      188  6.6097438e-12      27420.803 
 1136000      188   6.661882e-12      27445.155 
 1137000      188  6.5782498e-12      27472.134 
 1138000      188  6.6574726e-12      27506.753 
 1139000      188  6.5893917e-12      27541.281 
 1140000      188  6.6564711e-12      27578.188 
 1141000      188  6.6765801e-12      27606.226 
 1142000      188  6.6503404e-12       27631.17 
 1143000      188  6.7029886e-12      27653.047 
 1144000      188   6.634261e-12       27675.36 
 1145000      188  6.6819103e-12      27699.197 
 1146000      188  6.6475054e-12      27721.911 
 1147000      188  6.6683572e-12      27743.489 
 1148000      188   6.687816e-12      27766.744 
 1149000      188  6.7322869e-12      27794.422 
 1150000      188  6.7651339e-12      27820.167 
 1151000      188  6.7875598e-12      27844.035 
 1152000      188  6.7981849e-12       27864.62 
 1153000      188  6.8464267e-12      27885.293 
 1154000      188  6.7747523e-12      27906.434 
 1155000      188   6.820154e-12      27926.672 
 1156000      188  6.8630966e-12      27947.645 
 1157000      188  6.8806626e-12      27967.676 
 1158000      188  6.9405414e-12      27988.468 
 1159000      188  6.9902948e-12      28008.852 
 1160000      188  7.0081833e-12      28030.223 
 1161000      188  7.0832948e-12      28051.143 
 1162000      188  7.0499266e-12      28072.345 
 1163000      188  7.0735705e-12      28092.318 
 1164000      188  7.1381516e-12      28112.703 
 1165000      188  7.0983217e-12      28133.825 
 1166000      188  7.1900399e-12      28154.411 
 1167000      188  7.1821363e-12      28174.622 
 1168000      188  7.2298018e-12      28194.581 
 1169000      188   7.224847e-12      28214.581 
 1170000      188   7.253864e-12      28234.919 
 1171000      188  7.2301654e-12      28254.824 
 1172000      188  7.2906647e-12      28276.158 
 1173000      188  7.3237441e-12      28296.751 
 1174000      188  7.3780221e-12      28317.682 
 1175000      188  7.3150627e-12      28338.196 
 1176000      188  7.3045884e-12      28358.397 
 1177000      188  7.3606344e-12      28378.111 
 1178000      188  7.2634511e-12      28399.392 
 1179000      188  7.2837448e-12      28420.207 
 1180000      188  7.2349027e-12      28442.515 
 1181000      188  7.2733912e-12      28466.133 
 1182000      188  7.1743148e-12      28489.034 
 1183000      188  7.1814713e-12      28511.351 
 1184000      188  7.1152306e-12      28533.487 
 1185000      188  7.0764682e-12      28558.584 
 1186000      188  6.9309281e-12       28586.43 
 1187000      188  6.9990216e-12      28612.758 
 1188000      188  7.0574908e-12      28641.103 
 1189000      188  7.0242035e-12      28668.111 
 1190000      188  7.0574563e-12      28694.957 
 1191000      188  7.0362704e-12      28722.292 
 1192000      188  6.8629614e-12      28747.762 
 1193000      188  6.9957208e-12        28774.2 
 1194000      188  6.7729306e-12      28808.349 
 1195000      188  6.8053416e-12      28849.734 
 1196000      188   6.864022e-12       28890.04 
 1197000      188  6.6696414e-12      28927.388 
 1198000      188  6.6623652e-12      28966.756 
 1199000      188  6.5994376e-12      29014.716 
 1200000      188  6.5740854e-12       29065.28 
 1201000      188  6.5737288e-12      29092.124 
 1202000      188  6.5700667e-12      29118.524 
 1203000      188  6.5806833e-12      29145.087 
 1204000      188  6.6337332e-12      29170.619 
 1205000      188  6.7207162e-12       29198.62 
 1206000      188  6.6620337e-12       29225.51 
 1207000      188   6.637032e-12      29251.166 
 1208000      188  6.6682216e-12       29275.25 
 1209000      188  6.6317962e-12      29301.912 
 1210000      188  6.7223823e-12      29326.371 
 1211000      188  6.7197343e-12      29349.718 
 1212000      188  6.7075182e-12      29372.045 
 1213000      188  6.7383138e-12      29394.648 
 1214000      188  6.7433379e-12      29417.468 
 1215000      188  6.8083032e-12      29438.773 
 1216000      188  6.8093631e-12      29460.938 
 1217000      188  6.8382144e-12      29485.145 
 1218000      188  6.8461783e-12      29507.359 
 1219000      188  6.8226016e-12      29530.056 
 1220000      188  6.8496942e-12      29551.726 
 1221000      188  6.8870824e-12      29575.132 
 1222000      188  6.9598899e-12      29597.999 
 1223000      188  7.0641033e-12      29620.102 
 1224000      188  7.0440612e-12      29643.501 
 1225000      188   7.084708e-12      29666.823 
 1226000      188   7.094749e-12      29688.401 
 1227000      188   7.096245e-12      29711.165 
 1228000      188  7.1304798e-12      29732.781 
 1229000      188  7.1555512e-12      29755.659 
 1230000      188   7.151642e-12      29777.121 
 1231000      188  7.1588149e-12      29799.376 
 1232000      188  7.1767665e-12      29824.099 
 1233000      188  7.1619069e-12      29846.627 
 1234000      188  7.2885791e-12      29868.574 
 1235000      188  7.2895867e-12      29890.982 
 1236000      188  7.3407138e-12      29913.232 
 1237000      188  7.2586135e-12      29936.785 
 1238000      188  7.2923962e-12      29959.296 
 1239000      188  7.2771413e-12      29981.556 
 1240000      188  7.3148193e-12      30005.897 
 1241000      188  7.3124885e-12      30028.196 
 1242000      188  7.2773024e-12      30050.047 
 1243000      188  7.3117742e-12      30072.975 
 1244000      188  7.2351032e-12      30095.433 
 1245000      188  7.1857099e-12      30117.106 
 1246000      188  7.1545481e-12      30140.037 
 1247000      188  7.1598613e-12      30164.528 
 1248000      188  7.0777771e-12      30187.604 
 1249000      188  6.9668066e-12      30210.297 
 1250000      188  6.9339331e-12      30233.847 
 1251000      188  6.9807906e-12      30255.692 
 1252000      188   7.101669e-12      30277.751 
 1253000      188   7.073549e-12      30299.467 
 1254000      188  6.9804643e-12      30321.487 
 1255000      188  6.9390117e-12      30344.211 
 1256000      188  7.0348508e-12      30365.741 
 1257000      188  6.7379684e-12      30387.353 
 1258000      188  6.7653884e-12      30409.592 
 1259000      188  6.8746857e-12      30431.712 
 1260000      188  6.7932771e-12      30454.474 
 1261000      188  6.6990672e-12      30476.489 
 1262000      188  6.6340997e-12      30498.032 
 1263000      188  6.6266962e-12      30520.543 
 1264000      188  6.6291014e-12      30541.321 
 1265000      188  6.6733321e-12      30563.207 
 1266000      188   6.703511e-12      30584.872 
 1267000      188  6.6875212e-12      30607.566 
 1268000      188  6.6548304e-12      30630.704 
 1269000      188  6.7416329e-12      30652.493 
 1270000      188    6.69132e-12      30675.029 
 1271000      188  6.6551475e-12        30696.7 
 1272000      188  6.6283959e-12      30719.942 
 1273000      188  6.7288937e-12       30746.74 
 1274000      188  6.7206077e-12      30774.167 
 1275000      188  6.7148292e-12      30800.929 
 1276000      188  6.8080317e-12      30829.338 
 1277000      188  6.7735754e-12      30863.848 
 1278000      188   6.785328e-12      30893.662 
 1279000      188  6.7642638e-12      30925.704 
 1280000      188  6.8251377e-12      30957.649 
 1281000      188  6.8072324e-12      30988.806 
 1282000      188  6.8929513e-12      31021.535 
 1283000      188  6.9097742e-12      31053.609 
 1284000      188  6.9651549e-12      31097.548 
 1285000      188  6.9929838e-12      31141.918 
 1286000      188  7.0539452e-12      31190.408 
 1287000      188  7.0444095e-12      31223.009 
 1288000      188  7.0536645e-12      31254.791 
 1289000      188  7.0891466e-12      31285.801 
 1290000      188  7.1023961e-12      31316.708 
 1291000      188  7.0907846e-12        31347.4 
 1292000      188  7.1043588e-12      31379.777 
 1293000      188  7.1664488e-12      31413.416 
 1294000      188  7.1375386e-12      31444.891 
 1295000      188  7.1441899e-12      31476.696 
 1296000      188  7.2619016e-12      31509.665 
 1297000      188  7.3179028e-12      31542.405 
 1298000      188  7.3715336e-12      31572.764 
 1299000      188   7.337221e-12      31612.289 
 1300000      188    7.37401e-12      31642.438 
 1301000      188   7.332692e-12      31673.588 
 1302000      188  7.3499087e-12       31705.32 
 1303000      188  7.3289221e-12       31734.96 
 1304000      188  7.2668201e-12      31767.552 
 1305000      188  7.3023241e-12      31799.632 
 1306000      188  7.2210026e-12      31830.495 
 1307000      188  7.3699244e-12      31864.894 
 1308000      188  7.3063734e-12      31896.063 
 1309000      188  7.2087983e-12      31927.382 
 1310000      188   7.158263e-12      31958.353 
 1311000      188  7.1765112e-12      31991.183 
 1312000      188  7.0002161e-12      32023.697 
 1313000      188  6.9119995e-12      32056.758 
 1314000      188  7.0609211e-12      32088.513 
 1315000      188  6.8834703e-12      32120.292 
 1316000      188  7.0829718e-12      32153.343 
 1317000      188  6.9170854e-12      32180.302 
 1318000      188  6.9084751e-12      32204.343 
 1319000      188  7.0901234e-12      32231.756 
 1320000      188  6.7986185e-12      32255.881 
 1321000      188  6.8175813e-12      32281.839 
 1322000      188   6.769991e-12      32307.156 
 1323000      188  6.7377052e-12      32334.704 
 1324000      188  6.8323837e-12       32359.68 
 1325000      188  6.6773715e-12      32386.041 
 1326000      188  6.7012466e-12      32411.156 
 1327000      188  6.7050071e-12      32438.477 
 1328000      188  6.6846953e-12      32464.855 
 1329000      188  6.6625818e-12      32490.642 
 1330000      188  6.7204721e-12      32516.635 
 1331000      188  6.7095233e-12      32542.523 
 1332000      188  6.6877838e-12      32566.982 
 1333000      188  6.6464037e-12       32593.92 
 1334000      188  6.7016566e-12      32620.207 
 1335000      188  6.7159377e-12      32644.675 
 1336000      188  6.6751703e-12       32669.24 
 1337000      188  6.7035926e-12      32694.425 
 1338000      188  6.7439998e-12      32720.497 
[...]
 4292000      188  7.1716252e-12      115837.15 
 4293000      188  7.1294827e-12         115851 
 4294000      188  7.2104001e-12      115863.16 
 4295000      188  7.2387537e-12      115876.86 
 4296000      188  7.3433298e-12      115891.21 
 4297000      188  7.4395678e-12      115902.32 
 4298000      188  7.4529989e-12      115914.44 
 4299000      188  7.5050784e-12      115930.32 
 4300000      188  7.5366686e-12      115943.15 
 4301000      188  7.5601991e-12      115956.44 
 4302000      188  7.5908918e-12      115969.47 
 4303000      188  7.6123087e-12      115983.52 
 4304000      188  7.6734278e-12       115997.3 
 4305000      188  7.6868773e-12      116008.08 
 4306000      188  7.7755098e-12      116020.14 
 4307000      188    7.66693e-12      116033.74 
 4308000      188  7.5947235e-12      116047.79 
 4309000      188  7.4966627e-12      116059.01 
 4310000      188   7.521109e-12      116072.42 
 4311000      188  7.4892007e-12      116085.56 
 4312000      188  7.4866187e-12      116097.08 
 4313000      188  7.4802518e-12      116110.89 
 4314000      188  7.1300813e-12      116126.74 
 4315000      188  7.4232765e-12      116140.94 
 4316000      188  7.2707979e-12      116155.33 
 4317000      188  7.3645484e-12      116167.51 
 4318000      188  7.3134137e-12      116179.97 
 4319000      188   7.227673e-12      116192.38 
 4320000      188  7.2715642e-12      116205.04 
 4321000      188   7.330792e-12      116218.57 
 4322000      188  7.2713683e-12      116231.46 
 4323000      188  7.2579403e-12         116244 
 4324000      188  7.2455829e-12      116257.66 
 4325000      188  7.2318872e-12      116270.22 
 4326000      188  7.2979184e-12      116284.92 
 4327000      188  7.1183905e-12      116298.54 
 4328000      188  7.1333476e-12      116312.81 
 4329000      188  7.0689557e-12      116323.83 
 4330000      188  7.0759332e-12      116334.06 
 4331000      188   7.044038e-12      116344.99 
 4332000      188   7.046875e-12      116358.44 
 4333000      188  7.0636201e-12      116373.82 
 4334000      188  7.0760174e-12      116386.83 
 4335000      188  6.9812747e-12      116397.86 
 4336000      188  6.9707752e-12      116408.63 
 4337000      188  6.9847791e-12      116419.03 
 4338000      188  7.0016316e-12      116435.45 
 4339000      188  7.0196873e-12      116449.05 
 4340000      188    7.02385e-12      116462.66 
 4341000      188  6.9746439e-12      116473.87 
 4342000      188  6.9361948e-12      116488.23 
 4343000      188  6.9465702e-12      116501.48 
 4344000      188  6.9652881e-12      116517.45 
 4345000      188  6.9890037e-12      116530.97 
 4346000      188  6.9759875e-12      116547.24 
 4347000      188  6.9833855e-12      116563.17 
 4348000      188  6.9720357e-12      116574.99 
 4349000      188  6.8629033e-12      116586.11 
 4350000      188  6.8477405e-12      116598.61 
 4351000      188  6.8512775e-12      116610.45 
 4352000      188  6.9175326e-12      116620.81 
 4353000      188  6.8530881e-12      116633.14 
 4354000      188  6.9238433e-12      116645.56 
 4355000      188  6.8207124e-12      116658.71 
 4356000      188  6.8626023e-12      116671.48 
 4357000      188  7.0376429e-12      116684.99 
 4358000      188  7.1820989e-12      116696.81 
 4359000      188  7.2686907e-12      116709.35 
 4360000      188    7.26169e-12       116721.1 
 4361000      188  7.2697972e-12      116734.61 
 4362000      188  7.3463018e-12      116748.48 
 4363000      188  7.3424062e-12      116762.31 
 4364000      188  7.3453367e-12      116775.76 
 4365000      188  7.3631514e-12      116788.51 
 4366000      188  7.3821211e-12      116804.06 
 4367000      188  7.4847017e-12      116815.39 
 4368000      188  7.1919369e-12      116825.61 
 4369000      188  7.1846048e-12      116836.42 
 4370000      188  7.2671179e-12      116852.22 
 4371000      188  7.3590339e-12      116865.64 
 4372000      188  7.3317311e-12      116876.21 
 4373000      188  7.3065722e-12      116886.87 
 4374000      188  7.2997418e-12      116899.22 
 4375000      188  7.3022173e-12      116908.73 
 4376000      188  7.2349031e-12      116922.72 
 4377000      188   7.040938e-12      116938.56 
 4378000      188  7.1825286e-12       116954.6 
 4379000      188  7.2259471e-12       116965.4 
 4380000      188  7.1525517e-12      116976.59 
 4381000      188  7.0159015e-12       116987.7 
 4382000      188  7.0593797e-12      116998.31 
 4383000      188   7.008318e-12      117013.57 
 4384000      188  6.9209638e-12      117029.04 
 4385000      188  6.9705708e-12      117043.79 
 4386000      188  6.9884173e-12      117058.55 
 4387000      188  6.9591345e-12      117070.33 
 4388000      188  6.9342851e-12      117084.25 
 4389000      188   6.877839e-12      117098.75 
 4390000      188  6.7230873e-12      117110.01 
 4391000      188  6.8410441e-12      117124.59 
 4392000      188  6.7670231e-12      117139.64 
 4393000      188  6.7498925e-12      117152.76 
 4394000      188  6.8272566e-12      117166.93 
 4395000      188  6.6925286e-12       117180.4 
 4396000      188  6.7632468e-12      117196.11 
 4397000      188  6.8504224e-12      117210.61 
 4398000      188  6.7613594e-12      117225.83 
 4399000      188  6.8209396e-12      117237.83 
 4400000      188  6.7481524e-12      117254.48 
 4401000      188  6.6876048e-12      117266.85 
 4402000      188  6.7478392e-12       117278.2 
 4403000      188  6.7486938e-12       117291.2 
 4404000      188  6.7857892e-12      117307.57 
 4405000      188  6.7063238e-12       117320.7 
 4406000      188  6.7649832e-12      117330.94 
 4407000      188  6.7381977e-12      117343.52 
 4408000      188  6.7708728e-12      117356.17 
 4409000      188  6.7620856e-12      117368.89 
 4410000      188  6.7414955e-12      117379.89 
 4411000      188  6.7760613e-12      117392.07 
 4412000      188  6.8088813e-12      117405.61 
 4413000      188  6.7536629e-12      117418.26 
 4414000      188  6.8479453e-12      117430.03 
 4415000      188   6.866391e-12      117441.35 
 4416000      188   6.796465e-12      117454.38 
 4417000      188   6.801605e-12      117467.58 
 4418000      188  6.8100541e-12      117480.36 
 4419000      188   6.754334e-12      117496.47 
 4420000      188  6.8365435e-12      117510.25 
 4421000      188  6.9984532e-12      117525.12 
 4422000      188  7.1409069e-12      117538.82 
 4423000      188  7.2081326e-12       117551.6 
 4424000      188  7.2362491e-12       117564.5 
 4425000      188  7.2281036e-12      117576.11 
 4426000      188  7.2718452e-12      117588.56 
 4427000      188  7.3194423e-12      117602.84 
 4428000      188   7.271727e-12      117617.36 
 4429000      188  7.3854401e-12      117629.34 
 4430000      188  7.3463009e-12      117644.56 
 4431000      188  7.3822558e-12      117659.61 
 4432000      188  7.1301394e-12      117672.22 
 4433000      188  7.1674852e-12      117688.88 
 4434000      188  7.2401487e-12      117700.33 
 4435000      188  7.2664769e-12      117711.91 
 4436000      188  7.2902039e-12      117727.04 
 4437000      188   7.258927e-12      117739.65 
 4438000      188  7.1784886e-12      117753.46 
 4439000      188  7.1519137e-12      117766.45 
 4440000      188  7.1787179e-12      117779.78 
 4441000      188  6.9577441e-12      117791.18 
 4442000      188  6.9859757e-12      117805.83 
 4443000      188   7.161115e-12      117817.68 
 4444000      188  7.0246132e-12      117833.08 
 4445000      188  7.0082272e-12      117847.71 
 4446000      188  6.9387573e-12      117860.74 
 4447000      188  6.9268006e-12      117873.98 
 4448000      188  6.9040366e-12      117887.04 
 4449000      188  6.9384563e-12      117899.37 
 4450000      188  6.8121313e-12      117909.71 
 4451000      188  6.9789902e-12      117926.18 
 4452000      188  6.9550661e-12      117942.55 
 4453000      188  6.9071774e-12      117953.16 
 4454000      188  6.8326835e-12      117964.54 
 4455000      188  6.9768718e-12      117977.19 
 4456000      188  6.7954657e-12      117989.35 
 4457000      188  6.7852818e-12      118002.83 
 4458000      188  6.7514843e-12      118015.15 
 4459000      188  6.6955168e-12      118028.99 
 4460000      188  6.7651489e-12      118040.66 
 4461000      188  6.7923565e-12      118055.34 
 4462000      188   6.788874e-12      118066.96 
 4463000      188  6.8207475e-12      118081.09 
 4464000      188  6.6926808e-12      118093.02 
 4465000      188   6.772255e-12      118106.39 
 4466000      188  6.6884091e-12       118122.5 
 4467000      188  6.7163977e-12      118133.64 
 4468000      188  6.7424503e-12      118146.67 
 4469000      188  6.7598953e-12      118160.48 
 4470000      188  6.7152731e-12         118176 
 4471000      188  6.7571995e-12      118190.47 
 4472000      188  6.7386576e-12       118201.1 
 4473000      188  6.7190665e-12      118215.95 
 4474000      188  6.7440183e-12      118231.78 
 4475000      188  6.7405099e-12      118245.28 
 4476000      188  6.7371746e-12      118257.29 
 4477000      188  6.7070695e-12      118269.79 
 4478000      188  6.7834696e-12      118285.29 
 4479000      188  6.7900734e-12      118298.82 
 4480000      188  6.7614877e-12      118312.59 
 4481000      188   6.751812e-12      118328.83 
 4482000      188  6.7712973e-12      118343.92 
 4483000      188  6.7768689e-12      118355.52 
 4484000      188  6.8625763e-12      118366.98 
 4485000      188  6.9900944e-12      118379.71 
 4486000      188  7.1180421e-12      118393.87 
 4487000      188  7.2034149e-12      118406.23 
 4488000      188  7.2066893e-12      118418.68 
 4489000      188  7.2135339e-12       118431.2 
 4490000      188  7.2576258e-12      118444.08 
 4491000      188  7.3444116e-12      118456.39 
 4492000      188  7.3997643e-12      118466.85 
 4493000      188  7.4428576e-12      118479.36 
 4494000      188  7.4919218e-12      118490.16 
 4495000      188  7.5265339e-12      118502.79 
 4496000      188  7.4427065e-12      118516.95 
 4497000      188   7.138318e-12      118529.97 
 4498000      188   7.226793e-12      118544.76 
 4499000      188  7.2794647e-12      118559.66 
 4500000      188  7.2858723e-12      118575.41 
 4501000      188  7.2413854e-12       118590.6 
 4502000      188  7.2444403e-12      118602.79 
 4503000      188  7.2200943e-12      118614.35 
 4504000      188  7.2377207e-12      118624.67 
 4505000      188  7.0125654e-12      118637.07 
 4506000      188  7.1677244e-12      118648.76 
 4507000      188  7.2032836e-12      118662.65 
 4508000      188  7.0288547e-12      118677.31 
 4509000      188   6.979932e-12      118688.69 
 4510000      188  7.0068549e-12      118703.39 
 4511000      188  6.8729516e-12      118718.53 
 4512000      188  6.9866088e-12      118733.14 
 4513000      188   7.006754e-12      118748.48 
 4514000      188  6.8197363e-12      118763.29 
 4515000      188  6.9710054e-12      118773.73 
 4516000      188  6.9571887e-12      118788.43 
 4517000      188  6.9490778e-12      118802.84 
 4518000      188   6.816223e-12       118813.2 
 4519000      188   6.846507e-12      118828.27 
 4520000      188  6.7556767e-12       118842.2 
 4521000      188  6.8740657e-12      118854.16 
 4522000      188  6.8537697e-12      118870.01 
 4523000      188  6.7921929e-12      118883.97 
 4524000      188  6.7690234e-12       118897.2 
 4525000      188  6.8035151e-12      118910.15 
 4526000      188   6.692944e-12      118923.06 
 4527000      188  6.8151613e-12      118935.72 
 4528000      188  6.7949861e-12      118950.27 
 4529000      188  6.7054529e-12      118960.63 
 4530000      188  6.7982221e-12      118976.31 
 4531000      188    6.74776e-12      118988.08 
 4532000      188  6.7272929e-12      119000.02 
 4533000      188  6.7460989e-12      119011.94 
 4534000      188  6.7259282e-12      119025.16 
 4535000      188  6.7781028e-12      119036.68 
 4536000      188  6.7316536e-12      119048.54 
 4537000      188  6.7263513e-12      119059.03 
 4538000      188  6.7419947e-12      119072.01 
 4539000      188  6.7719653e-12      119086.81 
 4540000      188  6.7438931e-12      119101.59 
 4541000      188  6.8029135e-12      119115.82 
 4542000      188  6.7845801e-12      119127.29 
 4543000      188  6.7996823e-12       119139.6 
 4544000      188  6.8027524e-12      119152.77 
 4545000      188  6.8841473e-12      119162.94 
 4546000      188  6.8925908e-12      119173.83 
 4547000      188   6.893602e-12       119187.3 
 4548000      188  6.9157911e-12      119198.81 
 4549000      188  7.0859746e-12      119213.03 
 4550000      188  7.1565962e-12      119227.22 
 4551000      188  7.1710855e-12      119238.09 
 4552000      188  7.1715023e-12      119251.43 
 4553000      188  7.2496547e-12      119261.81 
 4554000      188  7.2880845e-12      119276.15 
 4555000      188  7.3396145e-12       119291.7 
 4556000      188  7.4187444e-12      119303.03 
 4557000      188   7.422274e-12      119317.61 
 4558000      188  7.4445706e-12      119329.75 
 4559000      188  7.4350483e-12      119341.37 
 4560000      188  7.4966186e-12      119354.06 
 4561000      188  7.3481246e-12      119366.41 
 4562000      188  7.2694988e-12      119376.73 
 4563000      188  7.1876629e-12      119390.93 
 4564000      188  7.2491461e-12      119400.71 
 4565000      188  7.2694233e-12      119414.76 
 4566000      188  7.1949115e-12      119427.69 
 4567000      188  7.2498348e-12      119441.98 
 4568000      188  7.1206934e-12      119454.51 
 4569000      188  7.2271645e-12      119470.08 
 4570000      188  7.1499285e-12      119481.38 
 4571000      188   7.014742e-12      119496.75 
 4572000      188   7.019594e-12      119512.29 
 4573000      188  7.1302009e-12      119525.91 
 4574000      188  6.8991963e-12      119539.53 
 4575000      188  6.9482614e-12      119553.23 
 4576000      188  6.9399048e-12      119568.51 
 4577000      188  6.8623748e-12      119582.92 
 4578000      188  6.8832167e-12      119597.76 
 4579000      188  6.9696349e-12      119609.64 
 4580000      188  6.8350882e-12      119622.23 
 4581000      188  6.8303922e-12      119632.46 
 4582000      188  6.6624565e-12      119642.83 
 4583000      188  6.8577321e-12      119656.18 
 4584000      188   6.780904e-12      119670.02 
 4585000      188  6.8712907e-12       119685.2 
 4586000      188  6.7273609e-12      119698.82 
 4587000      188  6.6786671e-12      119714.54 
 4588000      188  6.8339125e-12      119726.51 
 4589000      188  6.6768147e-12      119740.84 
 4590000      188  6.7111385e-12      119753.65 
 4591000      188  6.7121406e-12      119764.21 
 4592000      188  6.7989464e-12      119777.88 
 4593000      188  6.7059205e-12      119792.13 
 4594000      188  6.7351878e-12      119805.72 
 4595000      188  6.6709393e-12      119819.79 
 4596000      188  6.7248858e-12      119833.07 
 4597000      188  6.7148502e-12      119846.25 
 4598000      188  6.7450317e-12       119860.1 
 4599000      188  6.7214611e-12      119871.96 
 4600000      188  6.7141612e-12      119889.49 
 4601000      188  6.6998774e-12      119903.51 
 4602000      188  6.6974042e-12      119914.09 
 4603000      188  6.7051939e-12      119925.14 
 4604000      188  6.6766824e-12      119940.49 
 4605000      188  6.7361636e-12      119956.61 
 4606000      188  6.7543151e-12      119968.87 
 4607000      188  6.7819721e-12      119981.84 
 4608000      188  6.8281292e-12      119992.39 
 4609000      188  6.7842247e-12      120003.04 
 4610000      188  6.8477748e-12      120016.43 
 4611000      188  6.8836986e-12      120031.03 
 4612000      188  6.9040505e-12      120045.16 
 4613000      188  7.1230984e-12      120058.58 
 4614000      188  7.1681282e-12      120070.53 
 4615000      188  7.1708328e-12      120082.96 
 4616000      188  7.2174606e-12      120096.35 
 4617000      188  7.2511077e-12      120110.28 
 4618000      188   7.335632e-12      120122.38 
 4619000      188  7.3678961e-12      120134.26 
 4620000      188  7.3868574e-12      120148.23 
 4621000      188  7.3984455e-12      120161.48 
 4622000      188   7.423235e-12      120174.03 
 4623000      188   7.452948e-12      120184.16 
 4624000      188  7.4071542e-12      120194.75 
 4625000      188  7.3647753e-12      120207.21 
 4626000      188  7.1592339e-12      120220.91 
 4627000      188  7.1704726e-12       120236.3 
 4628000      188  7.1894568e-12      120248.38 
 4629000      188  7.1979795e-12      120264.44 
 4630000      188  7.1780689e-12      120280.66 
 4631000      188  7.2346468e-12      120294.81 
 4632000      188  6.9378187e-12      120310.65 
 4633000      188   7.225937e-12      120326.51 
 4634000      188  7.1775134e-12      120340.69 
 4635000      188  7.0167554e-12      120353.97 
 4636000      188  7.0318477e-12      120367.03 
 4637000      188   7.075288e-12      120379.58 
 4638000      188  6.9311309e-12      120391.63 
 4639000      188  6.8828775e-12      120405.96 
 4640000      188  6.8334758e-12      120418.83 
 4641000      188  6.9203724e-12      120432.55 
 4642000      188  6.9067862e-12      120447.24 
 4643000      188  6.8942865e-12      120461.62 
 4644000      188   6.906039e-12      120473.55 
 4645000      188  6.7297086e-12      120488.99 
 4646000      188  6.7817273e-12      120504.32 
 4647000      188  6.9287629e-12      120516.67 
 4648000      188  6.8631291e-12      120528.86 
 4649000      188   6.829237e-12      120542.68 
 4650000      188  6.7928511e-12      120555.04 
 4651000      188  6.8200106e-12      120569.13 
 4652000      188  6.7283434e-12      120580.11 
 4653000      188  6.8385142e-12      120593.14 
 4654000      188  6.6533909e-12      120606.13 
 4655000      188  6.6568151e-12      120619.95 
 4656000      188  6.6927229e-12      120634.21 
 4657000      188  6.6952346e-12      120646.74 
 4658000      188  6.7015269e-12      120657.68 
 4659000      188  6.6642395e-12      120671.74 
 4660000      188  6.7507919e-12      120686.62 
 4661000      188  6.6553461e-12       120698.2 
 4662000      188  6.6351539e-12      120710.72 
 4663000      188  6.6578988e-12      120724.68 
 4664000      188  6.6616615e-12      120736.45 
 4665000      188  6.7020156e-12      120751.69 
 4666000      188  6.7005032e-12      120766.89 
 4667000      188  6.7203182e-12      120782.67 
 4668000      188  6.7940413e-12      120796.43 
 4669000      188  6.8028651e-12      120812.14 
 4670000      188  6.8577409e-12      120823.49 
 4671000      188  6.8893425e-12      120836.76 
 4672000      188  6.9645471e-12      120851.14 
 4673000      188  6.9959731e-12      120862.67 
 4674000      188  7.0385109e-12      120874.81 
 4675000      188   7.086894e-12      120887.04 
 4676000      188  7.1103701e-12      120900.78 
 4677000      188  7.3040331e-12      120915.52 
 4678000      188  7.3205059e-12      120927.32 
 4679000      188  7.2775525e-12      120937.68 
 4680000      188  7.3080601e-12      120947.83 
 4681000      188  7.3500918e-12      120958.86 
 4682000      188  7.4331309e-12      120970.66 
 4683000      188  7.4323217e-12      120980.57 
 4684000      188  7.4872806e-12      120993.33 
 4685000      188  7.4511773e-12      121008.14 
 4686000      188  7.4541578e-12      121021.22 
 4687000      188  7.4475009e-12      121035.87 
 4688000      188  7.4570119e-12      121050.66 
 4689000      188  7.4722832e-12       121061.3 
 4690000      188  7.2976843e-12      121077.05 
 4691000      188  7.3565169e-12      121090.89 
 4692000      188  7.3197828e-12      121106.32 
 4693000      188  7.2791176e-12      121119.89 
 4694000      188  7.3139496e-12      121132.34 
 4695000      188  7.3330783e-12      121142.93 
 4696000      188  7.2100891e-12      121156.85 
 4697000      188  7.3115764e-12      121172.41 
 4698000      188  7.2144527e-12      121185.99 
 4699000      188  7.1684666e-12      1