# vtk DataFile Version 3.0
LIGGGHTS particles timestep 3200000
ASCII
DATASET POLYDATA
POINTS 188 float
0.0514251 0.0167497 0.00757229
0.057081 0.0162808 0.0082091
0.0511579 0.016122 0.00806098
0.0574662 0.0177197 0.00720068
0.0513177 0.0170516 0.00744369
0.0517435 0.0177913 0.00718487
0.0571018 0.0163442 0.00813461
0.0515898 0.0174825 0.00729488
0.0510002 0.0159125 0.00830842
0.0513293 0.0167187 0.00757721
0.0512422 0.0163843 0.00777095
0.0571434 0.016471 0.00798563
0.0513585 0.0172348 0.00737433
0.0517826 0.0179752 0.00711509
0.0573453 0.0170832 0.00735929
0.0516704 0.0182772 0.00698605
0.0575888 0.0183068 0.00718775
0.0510633 0.0161087 0.00809038
0.0453649 0.0169156 0.00765009
0.051381 0.0165731 0.00765403
0.0573146 0.0170118 0.00742216
0.0515151 0.0175421 0.00726514
0.0510843 0.0161741 0.0080177
0.0573452 0.0171493 0.00728422
0.0511264 0.0163048 0.00787235
0.0511687 0.0164362 0.00772627
0.0518611 0.0183441 0.00697507
0.0571642 0.0165349 0.00791161
0.0513718 0.0169014 0.00750774
0.0512965 0.0169602 0.00747824
0.0572275 0.0167376 0.00769992
0.051351 0.0168099 0.00754242
0.0513081 0.0166271 0.00761137
0.051221 0.0163182 0.00784294
0.0575062 0.0179156 0.00719638
0.0512868 0.0165397 0.00765485
0.0514461 0.0168414 0.0075376
0.0514541 0.0172674 0.00736917
0.051254 0.0167774 0.00754734
0.0517102 0.0184614 0.0069162
0.0516294 0.0176663 0.00722515
0.0575466 0.0181114 0.00719207
0.051179 0.0161874 0.0079883
0.0515363 0.0180596 0.00706147
0.0452372 0.0167746 0.00768562
0.0574055 0.017426 0.00720714
0.0514879 0.0170246 0.00746831
0.0514675 0.0169331 0.00750297
0.051535 0.0176337 0.00723038
0.051478 0.0165988 0.00763649
0.045071 0.0160614 0.00796386
0.0512643 0.0164562 0.00770516
0.0516494 0.0177581 0.00719036
0.0572711 0.0168748 0.00756114
0.0513789 0.0173264 0.00733963
0.057526 0.0180136 0.00719423
0.0515174 0.0179677 0.00709637
0.0516119 0.018001 0.00709088
0.0518531 0.0174876 0.00731439
0.0514599 0.0176928 0.00720081
0.0573645 0.0172318 0.00723115
0.0517588 0.017455 0.00731962
0.0518181 0.0177317 0.00721461
0.057446 0.0176218 0.00720283
0.0513586 0.0164735 0.0076765
0.0452788 0.016962 0.0076297
0.0451126 0.0162123 0.00785375
0.0516507 0.0181844 0.00702125
0.0516097 0.0175743 0.00726009
0.0518957 0.0181001 0.00707475
0.0452995 0.0170558 0.00760174
0.0453826 0.0174307 0.00748989
0.0571226 0.0164076 0.00806012
0.0451333 0.0163059 0.00782543
0.0572486 0.0168051 0.00762923
0.0571852 0.0166003 0.00783894
0.0572062 0.0166671 0.00776754
0.0514988 0.0178779 0.00713619
0.0573862 0.0173284 0.00721702
0.0574257 0.0175239 0.00720559
0.0516031 0.017148 0.00742873
0.0513993 0.017418 0.00730493
0.0513384 0.0163982 0.00773917
0.0514974 0.0173085 0.00744938
0.0514401 0.0176011 0.00723557
0.0516234 0.0172396 0.00739405
0.0574863 0.0178176 0.00719853
0.0510212 0.0159779 0.00823574
0.0519904 0.0181319 0.00706984
0.0511474 0.0163702 0.00779968
0.0514034 0.0166584 0.00760676
0.0511054 0.0162394 0.00794502
0.0515694 0.0173909 0.00732956
0.0512328 0.0166861 0.0075821
0.0514948 0.0174505 0.00729982
0.051542 0.0168733 0.00753276
0.0512116 0.0165946 0.00761642
0.0516843 0.0175147 0.00728983
0.0518768 0.0180082 0.00710968
0.0518377 0.0178244 0.00717943
0.0515206 0.0167818 0.00756737
0.0517073 0.0180339 0.0070856
0.0518331 0.0173952 0.00734943
0.0517925 0.0172115 0.00741901
0.0510422 0.0160433 0.00816306
0.0518411 0.018251 0.00701038
0.0574412 0.0171746 0.00726025
0.0514134 0.0170843 0.00743853
0.0517181 0.0172713 0.00738919
0.0514197 0.0175096 0.00727024
0.0512 0.0162528 0.00791562
0.0516774 0.0170882 0.00745855
0.0511903 0.0165034 0.00765157
0.0519159 0.0181917 0.00704004
0.0514744 0.017359 0.00733449
0.0515287 0.0172078 0.00739891
0.0517454 0.018218 0.00701568
0.0515557 0.018155 0.00703849
0.0512753 0.0168688 0.00751278
0.051393 0.0169928 0.0074732
0.0516874 0.0179423 0.00712035
0.0515827 0.0170565 0.00746341
0.0513382 0.0171432 0.00740902
0.0516685 0.0178504 0.00715527
0.052011 0.0182239 0.00703048
0.0514338 0.0171759 0.00740385
0.0515544 0.0177255 0.00719554
0.0518129 0.0173031 0.00738433
0.0515083 0.0171162 0.00743363
0.0518015 0.018067 0.00708019
0.0517627 0.0178835 0.00714984
0.0516642 0.0174228 0.00732467
0.0517385 0.0173629 0.0073545
0.0516978 0.0171798 0.00742387
0.0515743 0.0178172 0.00716076
0.0518808 0.0184358 0.00694027
0.0515932 0.0179092 0.00712579
0.051453 0.0165059 0.00767134
0.0519353 0.0182841 0.00700495
0.0453155 0.0167169 0.00770899
0.0516571 0.0169966 0.00749323
0.0516438 0.0173311 0.00735937
0.0454295 0.017617 0.00743469
0.0453411 0.0172432 0.00754581
0.0517239 0.0176985 0.00722011
0.0517666 0.0183107 0.0069806
0.057291 0.0169432 0.00749092
0.0575677 0.0182091 0.00718991
0.0574806 0.01736 0.00720762
0.0516319 0.0180927 0.00705614
0.051549 0.0172994 0.00736423
0.0517263 0.0181259 0.00705065
0.0515812 0.0173705 0.00742673
0.0454037 0.0170988 0.00759532
0.0516367 0.016905 0.00752793
0.0517855 0.0184025 0.00694569
0.0454034 0.0175244 0.00746193
0.0516156 0.0168127 0.00756285
0.0574582 0.0172594 0.00720985
0.0518066 0.0184958 0.00691042
0.0515823 0.0181339 0.00713256
0.0517304 0.0185536 0.00688123
0.0514998 0.0166903 0.00760199
0.0451957 0.0165871 0.00774155
0.0517787 0.0175473 0.0072846
0.045258 0.0168683 0.00765766
0.0514796 0.0172097 0.00748602
0.0515928 0.0183333 0.00695743
0.0517721 0.0171199 0.00745369
0.0452936 0.0166218 0.00773731
0.0515747 0.0182474 0.00700534
0.0451541 0.0163996 0.00779747
0.0515624 0.0169649 0.00749809
0.0516496 0.0186086 0.00686004
0.0451749 0.0164934 0.00776951
0.0517041 0.0176069 0.00725486
0.0516909 0.0183691 0.00695124
0.0452164 0.0166808 0.00771359
0.0453203 0.0171495 0.00757378
0.0516123 0.0184293 0.00693733
0.0514793 0.0177845 0.00716599
0.0453618 0.017337 0.00751785
0.0452709 0.0165258 0.00776583
0.0516303 0.0185147 0.0068885
0.0453368 0.0168113 0.00768085
0.0518207 0.0181592 0.00704516
0.0450916 0.0161197 0.00788526
0.0516019 0.0177555 0.00727831

VERTICES 188 376
1 0
1 1
1 2
1 3
1 4
1 5
1 6
1 7
1 8
1 9
1 10
1 11
1 12
1 13
1 14
1 15
1 16
1 17
1 18
1 19
1 20
1 21
1 22
1 23
1 24
1 25
1 26
1 27
1 28
1 29
1 30
1 31
1 32
1 33
1 34
1 35
1 36
1 37
1 38
1 39
1 40
1 41
1 42
1 43
1 44
1 45
1 46
1 47
1 48
1 49
1 50
1 51
1 52
1 53
1 54
1 55
1 56
1 57
1 58
1 59
1 60
1 61
1 62
1 63
1 64
1 65
1 66
1 67
1 68
1 69
1 70
1 71
1 72
1 73
1 74
1 75
1 76
1 77
1 78
1 79
1 80
1 81
1 82
1 83
1 84
1 85
1 86
1 87
1 88
1 89
1 90
1 91
1 92
1 93
1 94
1 95
1 96
1 97
1 98
1 99
1 100
1 101
1 102
1 103
1 104
1 105
1 106
1 107
1 108
1 109
1 110
1 111
1 112
1 113
1 114
1 115
1 116
1 117
1 118
1 119
1 120
1 121
1 122
1 123
1 124
1 125
1 126
1 127
1 128
1 129
1 130
1 131
1 132
1 133
1 134
1 135
1 136
1 137
1 138
1 139
1 140
1 141
1 142
1 143
1 144
1 145
1 146
1 147
1 148
1 149
1 150
1 151
1 152
1 153
1 154
1 155
1 156
1 157
1 158
1 159
1 160
1 161
1 162
1 163
1 164
1 165
1 166
1 167
1 168
1 169
1 170
1 171
1 172
1 173
1 174
1 175
1 176
1 177
1 178
1 179
1 180
1 181
1 182
1 183
1 184
1 185
1 186
1 187

POINT_DATA 188
SCALARS id int 1
LOOKUP_TABLE default
1
2
3
4
5
6
7
8
9
10
11
12
13
14
15
16
17
18
19
20
21
22
23
25
26
27
28
29
30
31
32
33
34
35
36
37
38
39
40
41
42
43
44
45
46
47
48
49
50
51
52
53
54
55
56
57
58
59
60
61
62
63
64
65
66
67
68
69
70
71
72
73
74
75
76
77
78
79
80
81
82
83
84
85
86
87
88
89
90
91
92
93
94
95
96
97
98
99
100
101
102
103
104
105
106
107
108
109
110
111
112
113
114
115
116
117
118
119
120
121
122
123
124
125
126
127
128
129
130
131
132
133
134
135
136
137
138
139
140
141
142
143
144
145
146
147
148
149
150
151
152
153
154
155
156
157
158
159
160
161
162
163
164
165
166
167
168
169
170
171
173
174
175
176
177
178
179
180
181
182
183
184
185
186
187
188
189
190

SCALARS type int 1
LOOKUP_TABLE default
1
1
1
1
1
1
1
1
1
1
1
1
1
1
1
1
1
1
1
1
1
1
1
1
1
1
1
1
1
1
1
1
1
1
1
1
1
1
1
1
1
1
1
1
1
1
1
1
1
1
1
1
1
1
1
1
1
1
1
1
1
1
1
1
1
1
1
1
1
1
1
1
1
1
1
1
1
1
1
1
1
1
1
1
1
1
1
1
1
1
1
1
1
1
1
1
1
1
1
1
1
1
1
1
1
1
1
1
1
1
1
1
1
1
1
1
1
1
1
1
1
1
1
1
1
1
1
1
1
1
1
1
1
1
1
1
1
1
1
1
1
1
1
1
1
1
1
1
1
1
1
1
1
1
1
1
1
1
1
1
1
1
1
1
1
1
1
1
1
1
1
1
1
1
1
1
1
1
1
1
1
1
1
1
1
1
1
1

SCALARS radius float 1
LOOKUP_TABLE default
5e-05
5e-05
5e-05
5e-05
5e-05
5e-05
5e-05
5e-05
5e-05
5e-05
5e-05
5e-05
5e-05
5e-05
5e-05
5e-05
5e-05
5e-05
5e-05
5e-05
5e-05
5e-05
5e-05
5e-05
5e-05
5e-05
5e-05
5e-05
5e-05
5e-05
5e-05
5e-05
5e-05
5e-05
5e-05
5e-05
5e-05
5e-05
5e-05
5e-05
5e-05
5e-05
5e-05
5e-05
5e-05
5e-05
5e-05
5e-05
5e-05
5e-05
5e-05
5e-05
5e-05
5e-05
5e-05
5e-05
5e-05
5e-05
5e-05
5e-05
5e-05
5e-05
5e-05
5e-05
5e-05
5e-05
5e-05
5e-05
5e-05
5e-05
5e-05
5e-05
5e-05
5e-05
5e-05
5e-05
5e-05
5e-05
5e-05
5e-05
5e-05
5e-05
5e-05
5e-05
5e-05
5e-05
5e-05
5e-05
5e-05
5e-05
5e-05
5e-05
5e-05
5e-05
5e-05
5e-05
5e-05
5e-05
5e-05
5e-05
5e-05
5e-05
5e-05
5e-05
5e-05
5e-05
5e-05
5e-05
5e-05
5e-05
5e-05
5e-05
5e-05
5e-05
5e-05
5e-05
5e-05
5e-05
5e-05
5e-05
5e-05
5e-05
5e-05
5e-05
5e-05
5e-05
5e-05
5e-05
5e-05
5e-05
5e-05
5e-05
5e-05
5e-05
5e-05
5e-05
5e-05
5e-05
5e-05
5e-05
5e-05
5e-05
5e-05
5e-05
5e-05
5e-05
5e-05
5e-05
5e-05
5e-05
5e-05
5e-05
5e-05
5e-05
5e-05
5e-05
5e-05
5e-05
5e-05
5e-05
5e-05
5e-05
5e-05
5e-05
5e-05
5e-05
5e-05
5e-05
5e-05
5e-05
5e-05
5e-05
5e-05
5e-05
5e-05
5e-05
5e-05
5e-05
5e-05
5e-05
5e-05
5e-05
5e-05
5e-05
5e-05
5e-05
5e-05
5e-05

SCALARS mass float 1
LOOKUP_TABLE default
5.23599e-10
5.23599e-10
5.23599e-10
5.23599e-10
5.23599e-10
5.23599e-10
5.23599e-10
5.23599e-10
5.23599e-10
5.23599e-10
5.23599e-10
5.23599e-10
5.23599e-10
5.23599e-10
5.23599e-10
5.23599e-10
5.23599e-10
5.23599e-10
5.23599e-10
5.23599e-10
5.23599e-10
5.23599e-10
5.23599e-10
5.23599e-10
5.23599e-10
5.23599e-10
5.23599e-10
5.23599e-10
5.23599e-10
5.23599e-10
5.23599e-10
5.23599e-10
5.23599e-10
5.23599e-10
5.23599e-10
5.23599e-10
5.23599e-10
5.23599e-10
5.23599e-10
5.23599e-10
5.23599e-10
5.23599e-10
5.23599e-10
5.23599e-10
5.23599e-10
5.23599e-10
5.23599e-10
5.23599e-10
5.23599e-10
5.23599e-10
5.23599e-10
5.23599e-10
5.23599e-10
5.23599e-10
5.23599e-10
5.23599e-10
5.23599e-10
5.23599e-10
5.23599e-10
5.23599e-10
5.23599e-10
5.23599e-10
5.23599e-10
5.23599e-10
5.23599e-10
5.23599e-10
5.23599e-10
5.23599e-10
5.23599e-10
5.23599e-10
5.23599e-10
5.23599e-10
5.23599e-10
5.23599e-10
5.23599e-10
5.23599e-10
5.23599e-10
5.23599e-10
5.23599e-10
5.23599e-10
5.23599e-10
5.23599e-10
5.23599e-10
5.23599e-10
5.23599e-10
5.23599e-10
5.23599e-10
5.23599e-10
5.23599e-10
5.23599e-10
5.23599e-10
5.23599e-10
5.23599e-10
5.23599e-10
5.23599e-10
5.23599e-10
5.23599e-10
5.23599e-10
5.23599e-10
5.23599e-10
5.23599e-10
5.23599e-10
5.23599e-10
5.23599e-10
5.23599e-10
5.23599e-10
5.23599e-10
5.23599e-10
5.23599e-10
5.23599e-10
5.23599e-10
5.23599e-10
5.23599e-10
5.23599e-10
5.23599e-10
5.23599e-10
5.23599e-10
5.23599e-10
5.23599e-10
5.23599e-10
5.23599e-10
5.23599e-10
5.23599e-10
5.23599e-10
5.23599e-10
5.23599e-10
5.23599e-10
5.23599e-10
5.23599e-10
5.23599e-10
5.23599e-10
5.23599e-10
5.23599e-10
5.23599e-10
5.23599e-10
5.23599e-10
5.23599e-10
5.23599e-10
5.23599e-10
5.23599e-10
5.23599e-10
5.23599e-10
5.23599e-10
5.23599e-10
5.23599e-10
5.23599e-10
5.23599e-10
5.23599e-10
5.23599e-10
5.23599e-10
5.23599e-10
5.23599e-10
5.23599e-10
5.23599e-10
5.23599e-10
5.23599e-10
5.23599e-10
5.23599e-10
5.23599e-10
5.23599e-10
5.23599e-10
5.23599e-10
5.23599e-10
5.23599e-10
5.23599e-10
5.23599e-10
5.23599e-10
5.23599e-10
5.23599e-10
5.23599e-10
5.23599e-10
5.23599e-10
5.23599e-10
5.23599e-10
5.23599e-10
5.23599e-10
5.23599e-10
5.23599e-10
5.23599e-10
5.23599e-10
5.23599e-10
5.23599e-10
5.23599e-10
5.23599e-10
5.23599e-10
5.23599e-10
5.23599e-10
5.23599e-10

VECTORS velocity float
0.0125003 -0.000427821 0.00119057
0.0119695 -0.000440056 -0.000909391
0.0122395 -0.00148034 -0.000406134
0.0118151 0.000381959 -0.000165416
0.0119486 -0.000313921 0.00110725
0.0110585 -0.000108762 0.000936534
0.0119879 -0.000449641 -0.000896868
0.0116436 -0.000379398 0.00110164
0.0120161 -0.0014102 -0.000438206
0.0125473 -0.000481742 0.00120502
0.0125857 -0.00140507 2.55331e-06
0.0122391 -0.000450146 -0.000946509
0.0115908 -0.000242982 0.00104563
0.0111179 -0.000211398 0.000977611
0.0127197 -4.51681e-05 -0.000604771
0.011442 -0.000277068 0.00103236
0.0113917 0.000522614 -0.000139728
0.0122768 -0.00150339 -0.000384615
0.0118814 -0.000965963 0.00110516
0.0126189 -0.000539543 0.000975425
0.0126725 0.000361492 -0.000148182
0.0116706 -0.000405281 0.00111385
0.0123019 -0.00151634 -0.00038803
0.011972 0.00038346 -0.000223444
0.0123407 -0.00149027 -0.000416956
0.0126238 -0.00145549 -0.00049951
0.0117182 -0.000426353 0.00110203
0.0122809 -0.000309668 -0.00073409
0.0124234 -0.000416165 0.00117856
0.0123988 -0.000424189 0.00117649
0.0125353 0.00034974 -0.000166997
0.012456 -0.000457788 0.00118831
0.0125883 -0.000512144 0.00123106
0.0123735 -0.00161691 -0.000279195
0.0114381 0.000571722 -0.000190044
0.0126544 -0.000673371 0.00098953
0.0124432 -0.000410172 0.00117773
0.0116498 -0.000273423 0.0010631
0.0125016 -0.000505266 0.00122073
0.0115868 -0.000316427 0.00106745
0.0113768 -0.000145076 0.000999552
0.0111981 0.000547405 -0.000118116
0.0122477 -0.00153834 -0.000372137
0.0112487 -0.000138333 0.00097414
0.012084 -0.00102163 0.00112878
0.0120628 0.000290565 -0.000123857
0.0115723 -0.00031831 0.00107441
0.011902 -0.000411982 0.00112268
0.0113637 -0.000336181 0.00105047
0.0125718 -0.000465097 0.00119955
0.0125696 -0.00115229 0.00082502
0.0127658 -0.00102631 0.000483072
0.0111038 -0.000156488 0.00098311
0.0127706 0.000300617 -0.00019741
0.0116539 -0.000179603 0.00102629
0.0113507 0.000585488 -0.000130663
0.0111816 3.32458e-07 0.000899549
0.0112487 -0.000108952 0.000980295
0.0115955 0.000231402 0.000862464
0.0112908 -0.000288766 0.00103886
0.0121071 0.000341776 -0.000204567
0.0116033 6.2282e-05 0.00091885
0.0110389 -0.000135806 0.000952177
0.0119724 0.000351083 -0.000186656
0.0128646 -0.000366293 0.00118565
0.0119251 -0.000948445 0.00110303
0.0125352 -0.00118346 0.00101858
0.0113462 -0.000144221 0.00098033
0.0116256 -0.000184793 0.00103135
0.0113629 -0.000389247 0.0010833
0.0118605 -0.000920876 0.00108819
0.0114242 -0.00119045 0.00116558
0.01209 -0.000438423 -0.000925126
0.0124315 -0.00116319 0.00121248
0.0125489 0.000383434 -0.000175747
0.0123167 0.000153179 -0.00030273
0.0125415 0.000383949 -0.000112776
0.0110854 -0.000194068 0.000908017
0.0120661 0.000298694 -0.000136581
0.0120922 0.000295761 -0.000112716
0.0116401 -0.000359304 0.00109505
0.0116792 -0.000261338 0.00106068
0.0125826 -0.0015631 -0.000314939
0.0117172 -0.000310762 0.00107819
0.0117006 -0.000390255 0.00110795
0.0116907 -0.000363654 0.00109638
0.0115318 0.000485923 -0.000150669
0.0121672 -0.00143165 -0.000447314
0.0114773 -0.000507714 0.00111879
0.0124935 -0.00159664 -0.000455963
0.0125798 -0.00044569 0.00118495
0.0123503 -0.0015053 -0.000400006
0.0116926 -0.000357871 0.00109566
0.0125574 -0.000502585 0.00121159
0.0116682 -0.00036973 0.00109809
0.0119484 -0.000416546 0.00115677
0.0124513 -0.000502526 0.00127625
0.011513 2.17759e-05 0.000930369
0.0111738 -0.000291397 0.00103276
0.011069 -7.29303e-05 0.000927583
0.0124919 -0.000363679 0.00116764
0.0111857 -0.000176141 0.000977967
0.0115265 -3.02228e-06 0.000941087
0.0116371 -0.000407054 0.00111125
0.0122463 -0.00145188 -0.000437436
0.0115684 -0.000354097 0.0010838
0.0121383 0.000344771 -0.000166191
0.0115843 -0.000256466 0.00104797
0.011598 -0.000449189 0.00112515
0.0116502 -0.000400417 0.00110948
0.0122959 -0.0015943 -0.000323157
0.0116199 -0.000392228 0.00110394
0.0127466 -0.00136205 -0.000612182
0.0115453 -0.000389591 0.00109574
0.0116908 -0.000321439 0.00108389
0.011639 -0.000321972 0.00107784
0.0113971 -0.000307326 0.00105954
0.0112941 -6.73368e-05 0.000881449
0.0124297 -0.000477541 0.00119684
0.0119928 -0.000325387 0.00110762
0.011064 -0.000175833 0.000967279
0.011582 -0.000369898 0.00109205
0.0115114 -0.000391106 0.00109728
0.011062 -0.000111498 0.000955958
0.0120052 -0.000814169 -0.000304985
0.0115959 -0.000266277 0.00105556
0.0113239 -0.000229472 0.00101581
0.0117156 -0.000307725 0.00107961
0.0116078 -0.000296269 0.00106698
0.0112852 -0.00016355 0.000983123
0.0110544 -0.000155557 0.000951219
0.0116632 -0.000331458 0.00108674
0.0116555 -0.000362947 0.00109305
0.0116942 -0.000380017 0.00110757
0.0110978 -0.000154035 0.00096801
0.0120619 -0.000727504 0.00128395
0.0110463 -0.000115065 0.000938911
0.0128252 -0.00027256 0.00116028
0.0117552 -0.000485205 0.00118923
0.0120998 -0.00106355 0.00115105
0.011555 -0.000427423 0.00111307
0.0116487 -0.000405647 0.00110988
0.0137732 -0.00128176 0.00133681
0.0116127 -0.000767452 0.00103686
0.0111486 -0.000149454 0.000967753
0.0115216 -0.000392924 0.00108335
0.0126992 0.000330868 -0.000160151
0.0112786 0.000483757 -0.000146907
0.01202 0.000347694 -0.000136024
0.0112494 -0.000114729 0.000973494
0.0116919 -0.000347611 0.00108642
0.0112956 -0.00013736 0.000976946
0.0116377 -0.0004184 0.00109128
0.0116842 -0.000881563 0.00107062
0.0119622 7.23055e-05 0.000951065
0.0115928 -0.00039346 0.00110133
0.0118058 -0.00108611 0.00114217
0.0124111 -0.000131212 0.001068
0.0120945 0.000380457 -0.000169301
0.0121465 -0.000712839 0.00080697
0.0113486 0.000103029 0.000898263
0.0118554 -0.000508136 0.00111688
0.0125845 -0.000373836 0.00117413
0.0122452 -0.00109493 0.00116181
0.0115107 4.87828e-05 0.000911745
0.0119972 -0.000968345 0.00111108
0.0116322 -0.000323605 0.00107122
0.0114397 -0.000249664 0.00101387
0.0116597 -0.000426577 0.0011228
0.0122388 -0.00110808 0.00117973
0.0113983 -0.000190944 0.000969119
0.0123601 -0.00112775 0.0011654
0.0115359 -0.00037671 0.00108718
0.0116587 -0.000915332 0.000277122
0.0123119 -0.00109659 0.00114078
0.0115072 2.97878e-06 0.000941655
0.0115145 -0.000322522 0.00107659
0.012171 -0.00108284 0.00115133
0.0117589 -0.000883915 0.00107526
0.0115363 -0.000201867 0.00102421
0.0113634 -0.00026155 0.00103283
0.0115698 -0.000708882 0.00102628
0.0123886 -0.0010804 0.00116856
0.011623 -0.000257923 0.00106453
0.0119977 -0.000960401 0.00110658
0.0113282 -0.00038046 0.00107616
0.012667 -0.00116217 0.000830047
0.0111836 -7.32914e-05 0.00102688

VECTORS force float
-2.98727e-10 -2.46313e-11 -1.3406e-10
1.72735e-10 -8.17045e-10 8.86351e-10
8.47625e-10 7.23394e-10 -9.46011e-10
2.78636e-09 1.04224e-09 1.06669e-09
-2.59606e-10 1.70435e-09 -8.77313e-10
-5.6253e-11 -7.03301e-10 7.68352e-10
1.2828e-09 -1.81465e-10 -6.32815e-10
7.70385e-10 -1.55343e-09 6.55387e-10
-1.92213e-09 4.19082e-10 -2.85514e-11
7.65739e-11 9.45745e-10 -3.63329e-10
-7.37754e-10 1.75237e-11 -3.63613e-10
-7.68178e-10 1.06097e-09 -1.44677e-09
-1.21199e-10 -1.7171e-10 1.67715e-10
-5.25794e-10 9.90648e-10 1.16635e-10
-3.70179e-10 9.36887e-10 -2.84146e-10
-1.37775e-09 3.58966e-10 -7.45902e-10
-6.19405e-10 -1.90358e-10 -5.04449e-10
1.99293e-09 3.82428e-10 -1.18274e-09
4.73864e-10 -2.61882e-10 -2.16497e-11
-6.80978e-10 -7.29417e-10 1.51698e-10
6.60646e-10 7.18411e-10 -1.59065e-09
1.943e-09 1.86571e-10 9.91155e-11
1.75691e-10 -7.01692e-10 7.97344e-10
-1.92607e-09 -1.09815e-09 4.38374e-10
-2.41115e-09 8.67924e-10 1.42351e-09
-1.65868e-10 8.79572e-10 -2.48516e-09
-1.78021e-09 1.07126e-09 -1.35881e-09
-1.32918e-10 9.73359e-10 -1.80051e-09
-9.42309e-10 -2.82259e-10 -1.25457e-10
1.31131e-10 -4.10499e-10 -6.96095e-11
2.04293e-09 -2.13452e-09 7.20003e-10
-7.68167e-11 -8.26894e-11 -4.04764e-10
-3.86836e-10 1.25197e-09 -5.57495e-10
-1.784e-09 6.43371e-10 -4.55297e-11
-4.18945e-09 4.13803e-10 -5.45252e-10
1.07693e-09 3.50056e-10 -1.35744e-10
-7.92188e-10 1.19162e-10 -1.12948e-10
-9.64819e-12 -2.07642e-11 1.07751e-10
6.44741e-10 1.55596e-09 -2.41949e-10
5.03298e-10 -6.79326e-10 1.01071e-09
3.58093e-10 1.19942e-09 -4.50419e-10
-2.6318e-09 1.66501e-09 1.46731e-09
-1.33657e-09 3.49464e-10 -6.55903e-10
8.06062e-10 5.23589e-10 -2.37837e-10
-5.86948e-10 -6.20587e-11 5.70047e-10
3.24603e-09 1.89523e-09 -1.18669e-09
-1.04319e-09 2.22711e-10 -2.27055e-10
-3.3771e-09 1.18769e-10 -2.53094e-10
-1.26082e-09 -7.04071e-10 -3.11332e-10
6.09399e-11 4.81268e-10 -4.58798e-10
-7.34256e-10 1.38619e-09 -2.32725e-09
1.85305e-10 7.71721e-10 -4.52662e-10
6.43013e-10 -3.63671e-10 7.15003e-10
-6.97712e-11 -1.25735e-09 1.43077e-09
-6.05217e-11 -3.75408e-10 2.12261e-10
-7.02144e-11 1.70503e-09 5.66016e-10
-1.68965e-09 9.84978e-10 -1.15203e-09
1.86763e-09 4.1642e-10 4.70007e-10
3.08286e-10 -7.33447e-10 4.20561e-10
-6.63411e-10 -1.08419e-09 3.04416e-10
-9.72352e-10 -2.34339e-09 -4.04265e-10
-2.76272e-10 3.1584e-10 -2.01201e-10
5.63232e-10 -7.7373e-10 9.11018e-11
-4.28985e-09 -4.21548e-10 1.02888e-09
7.48086e-10 -8.99528e-10 -7.69269e-10
-5.2634e-10 -4.64691e-11 -4.44539e-10
-1.02105e-09 -7.01237e-10 3.70251e-09
-5.22676e-10 -1.29982e-09 -5.85302e-10
-1.16047e-09 1.26815e-09 -1.50084e-10
-2.17652e-09 1.54861e-09 1.22352e-10
1.04508e-09 9.19476e-10 -7.3575e-11
1.11686e-08 -4.20729e-09 1.3702e-09
-3.04344e-09 5.55981e-10 -2.00632e-09
1.94748e-09 -1.57228e-09 -1.1846e-09
-1.38451e-09 -1.972e-09 1.84497e-09
-3.40483e-10 1.02347e-11 -3.96215e-10
-7.79427e-10 5.82538e-11 2.39042e-10
-5.10381e-10 -1.33169e-09 1.64721e-10
1.52561e-09 -7.33712e-10 4.2795e-10
-6.02555e-10 1.77103e-09 -1.18679e-09
-5.33021e-10 1.23828e-10 1.1994e-10
4.80299e-10 1.12584e-09 -5.20722e-10
5.10924e-10 9.52716e-10 1.69306e-09
2.21373e-10 -1.47183e-10 1.82918e-10
1.85294e-09 5.43271e-10 -9.78969e-11
-9.4465e-10 -5.48525e-10 8.37416e-11
-1.85924e-09 2.48772e-09 8.04488e-10
-2.55125e-09 -4.34659e-11 7.58775e-10
-8.22078e-11 3.33855e-10 -1.05228e-09
-1.47855e-09 -1.45184e-09 -6.21183e-10
-4.33267e-10 -1.86608e-10 -2.88677e-10
-8.37332e-10 -2.597e-11 1.71878e-09
-2.60027e-10 2.56748e-10 -3.22126e-10
-5.11555e-10 1.55896e-09 -1.5814e-09
-3.5188e-10 2.37999e-10 -1.04772e-10
-3.44908e-09 1.31341e-09 -7.20787e-10
-6.85315e-09 2.41004e-09 7.0221e-09
8.06153e-10 4.20679e-10 -4.65021e-11
1.85226e-09 -1.18217e-09 1.02314e-09
-4.33625e-11 -1.10343e-10 -2.39152e-10
-1.69884e-10 3.68163e-10 -2.45931e-10
2.84729e-10 1.32869e-09 -3.05458e-10
-1.28321e-09 1.06884e-09 -6.80502e-10
1.07227e-10 -5.16953e-10 1.87305e-10
6.9574e-12 8.34168e-10 -1.12316e-09
-2.01648e-10 -3.55003e-10 -1.88216e-10
-8.47262e-10 -1.23924e-09 -2.16771e-10
-3.68806e-10 1.0357e-09 -5.27592e-10
4.22474e-10 1.65377e-11 7.77735e-11
-4.2356e-10 7.5772e-10 -2.08657e-10
-2.45849e-09 5.61266e-10 -3.92745e-10
-5.38734e-10 8.80258e-10 -4.95528e-10
3.93381e-10 -1.50141e-10 -1.30662e-09
-5.93914e-10 -1.74527e-10 -5.19486e-11
5.92384e-11 5.48626e-13 3.67522e-11
-3.57234e-10 -3.8095e-10 1.45895e-10
5.64943e-10 -8.01581e-11 1.98405e-10
-1.34517e-09 -9.29024e-10 -1.96739e-09
1.29257e-10 -7.83618e-11 6.04277e-10
-1.63914e-10 6.62043e-10 -2.09759e-10
-3.4225e-12 -4.91989e-10 1.0062e-09
-7.18253e-10 6.1357e-10 -3.9369e-10
1.05878e-10 -2.77039e-10 1.93023e-10
2.44288e-10 5.33399e-10 6.54663e-10
-4.00848e-09 3.88737e-09 3.15221e-09
2.86628e-10 5.29298e-10 -2.34101e-10
-6.64171e-10 -1.39695e-09 3.6547e-10
-6.31649e-10 -4.454e-10 -1.18761e-11
-1.3307e-10 1.13079e-09 -5.30718e-10
-1.08131e-09 4.36322e-10 -4.555e-10
-5.95304e-11 -4.22701e-10 1.72791e-10
-4.16477e-11 5.24561e-10 -8.48524e-11
-2.20026e-10 9.14662e-10 -3.47946e-10
-9.05134e-10 -2.10638e-10 -8.28725e-11
-4.54179e-10 -2.43788e-09 -1.09294e-10
0.0 0.0 -5.1365e-09
-4.38616e-10 7.95245e-11 -4.27132e-11
8.06332e-10 5.08062e-10 -6.25175e-10
-1.68067e-09 9.87671e-10 -1.59518e-09
-1.57017e-09 4.05746e-10 -5.51675e-11
-1.05626e-09 3.48227e-10 -1.7741e-10
5.61625e-10 6.02445e-10 -3.47571e-10
-2.54223e-09 1.55126e-09 -1.03007e-09
-1.2592e-09 -3.7044e-10 2.20625e-12
-1.43642e-10 8.68792e-11 -1.09323e-10
-1.69794e-09 7.28245e-11 5.31379e-11
3.10615e-09 3.57735e-10 -4.00259e-10
2.74611e-11 -1.53285e-10 3.92799e-10
2.00811e-09 -3.25164e-10 -3.93661e-10
-5.04289e-10 1.90116e-10 -8.8395e-10
-2.54434e-10 -1.67457e-10 -2.52081e-12
-9.95774e-10 1.10714e-09 -5.71999e-10
4.3877e-10 1.04012e-09 -5.74188e-10
-1.74188e-11 8.19217e-10 -7.19316e-10
-2.1471e-09 9.14789e-10 -6.48577e-10
-1.24493e-09 1.49878e-09 5.50869e-10
-4.01841e-09 7.68403e-09 -2.40156e-09
8.25215e-10 1.15754e-09 -3.613e-10
5.16029e-10 -1.69948e-10 4.09484e-10
0.0 0.0 -5.1365e-09
-2.12792e-09 7.29904e-10 -1.9993e-10
-2.78725e-09 1.89038e-09 -8.64899e-10
6.70908e-12 2.42957e-10 -2.74527e-10
1.69081e-09 2.8736e-09 -3.10309e-10
1.18239e-09 1.96773e-10 5.50713e-11
-8.27976e-10 -3.3794e-10 -7.05325e-11
-6.88879e-10 1.40252e-10 -9.79418e-11
-6.32951e-10 -1.98427e-10 5.55389e-10
-3.76898e-10 1.04912e-10 -1.18141e-10
6.72456e-10 -2.65197e-11 -4.15936e-10
1.57884e-09 -5.98577e-10 -3.43725e-10
-3.50461e-09 -7.11848e-10 1.2157e-09
-8.74591e-10 5.64603e-10 -2.80603e-10
0.0 0.0 -5.1365e-09
-2.27298e-09 1.65352e-10 -6.04707e-10
1.2065e-09 9.59728e-10 1.64971e-10
-2.30975e-10 4.00092e-09 -6.28583e-10
1.08821e-09 1.26858e-09 4.16591e-10
3.26839e-09 4.83964e-10 2.22248e-10
-8.06961e-11 3.30984e-09 -1.40577e-09
7.16492e-10 -2.02214e-11 3.45189e-10
-2.51917e-09 -6.32575e-09 1.92816e-09
-1.66866e-09 1.32023e-09 7.81566e-10
7.65938e-10 -1.96324e-09 1.76151e-09
-1.45039e-09 5.98006e-10 -3.71438e-10
-8.36289e-10 2.00663e-10 -5.43756e-12
-2.96682e-09 -3.82768e-10 -4.33552e-10
-1.13953e-09 -1.54838e-11 -3.11446e-11
