# vtk DataFile Version 3.0
LIGGGHTS particles timestep 1000000
ASCII
DATASET POLYDATA
POINTS 188 float
0.0250442 0.0168147 0.00746079
0.0307187 0.0162912 0.00787091
0.024775 0.0161589 0.00794109
0.0311109 0.0179106 0.00705357
0.0249329 0.0170838 0.00727119
0.025344 0.017759 0.00716519
0.0307396 0.0163617 0.00780299
0.0252142 0.0175429 0.00719839
0.0246197 0.0158984 0.00813474
0.0249475 0.0167891 0.00747948
0.0248611 0.0164714 0.00770677
0.0307814 0.0165026 0.00766726
0.0249741 0.0172768 0.00723861
0.0253842 0.0179512 0.00712746
0.0309692 0.0172529 0.00724661
0.0252906 0.0183732 0.00705183
0.0312054 0.0179407 0.00704096
0.0246794 0.0161335 0.00795832
0.0192006 0.0179221 0.00702136
0.0250007 0.0166551 0.0075739
0.0309489 0.0171589 0.00727418
0.0251321 0.0175992 0.00718923
0.0247009 0.0162117 0.00789974
0.0309895 0.0173468 0.00721903
0.0247439 0.016368 0.00778258
0.0247869 0.0165254 0.00766707
0.0255229 0.0181429 0.00708751
0.0308022 0.0165725 0.0075988
0.0249897 0.016949 0.0073662
0.0249146 0.0170036 0.00732801
0.0308652 0.0167902 0.00740306
0.0249691 0.0168688 0.00742297
0.0249259 0.0167094 0.00753592
0.0248395 0.0163933 0.00776534
0.0311495 0.0180989 0.00699839
0.0249043 0.0166298 0.00759239
0.0250649 0.016895 0.00740394
0.0250704 0.0173091 0.00723402
0.0248732 0.016844 0.00744111
0.0253366 0.0185404 0.0070193
0.0252482 0.0177273 0.00716988
0.0311882 0.0182872 0.00694321
0.0247965 0.016237 0.0078825
0.0251582 0.0181464 0.00709813
0.0191455 0.0180837 0.00699302
0.0310504 0.0176287 0.0071363
0.0251049 0.0170586 0.0072957
0.0250851 0.0169751 0.00734714
0.0251528 0.0176959 0.00717428
0.0250982 0.0166813 0.00755476
0.0189883 0.0173465 0.00723915
0.0248827 0.0165503 0.0076492
0.0252688 0.0178241 0.00715486
0.0309084 0.0169711 0.00732978
0.0249947 0.0173735 0.00722362
0.0311688 0.0181931 0.0069708
0.0251384 0.0180501 0.00711669
0.025234 0.0180819 0.00710778
0.0253706 0.0170516 0.00729139
0.025077 0.0177603 0.00716389
0.0310099 0.0174408 0.00719146
0.0253311 0.0173055 0.00723588
0.0254245 0.0173409 0.00723085
0.031091 0.0178166 0.00708115
0.0249786 0.0165751 0.00763086
0.0191846 0.0182774 0.00696269
0.0190277 0.0175232 0.00715413
0.0252745 0.0182763 0.00707036
0.0252624 0.0176295 0.00718516
0.0254591 0.0178857 0.00713734
0.019204 0.0183744 0.00694751
0.0192817 0.018762 0.00688681
0.0307605 0.0164322 0.00773512
0.0190474 0.0176115 0.00711163
0.0308869 0.0168799 0.00736451
0.0308231 0.016641 0.00752908
0.0308454 0.0167124 0.00746269
0.0251181 0.0179538 0.00713402
0.0310301 0.0175347 0.00716388
0.0310707 0.0177226 0.00710873
0.0252218 0.0171801 0.00725484
0.0250153 0.0174702 0.00720869
0.0249566 0.0164965 0.00768974
0.0250467 0.0171058 0.00736186
0.0250563 0.0176636 0.00717883
0.0253357 0.0172068 0.00725125
0.0311302 0.0180048 0.00702598
0.0246392 0.0159768 0.00807587
0.0255229 0.0177352 0.00716336
0.0247654 0.0164461 0.00772404
0.0250226 0.016735 0.00751724
0.0247224 0.0162898 0.00784117
0.0251885 0.0174394 0.00721434
0.0248516 0.0167643 0.00749755
0.0251116 0.0175025 0.00720415
0.0251601 0.016921 0.007385
0.02483 0.0166847 0.007554
0.0253459 0.0175654 0.00719555
0.0254389 0.0177891 0.00715594
0.0254647 0.0176556 0.00717997
0.0251402 0.016841 0.00744166
0.0253287 0.0181128 0.0070991
0.0253507 0.0169717 0.00734805
0.02531 0.0168119 0.00746122
0.0246586 0.0160553 0.00801701
0.0254481 0.0182516 0.00706959
0.0309606 0.0168193 0.00739457
0.0250293 0.0171157 0.00726389
0.0252975 0.0171163 0.00726967
0.0250358 0.0175669 0.00719376
0.024818 0.0163152 0.00782392
0.0252553 0.0169472 0.00736588
0.0248085 0.016605 0.00761044
0.0255354 0.0179487 0.00712325
0.0250911 0.0174058 0.00721909
0.0251473 0.017246 0.00724422
0.0253726 0.0183164 0.00705986
0.0251779 0.0182426 0.00707961
0.0248948 0.0169237 0.0073847
0.0250097 0.0170289 0.00730956
0.025309 0.0180164 0.00711765
0.0251992 0.0170814 0.00727131
0.0249535 0.0171802 0.00725415
0.0252891 0.0179202 0.00713617
0.0255431 0.0178319 0.00714475
0.0250498 0.0172124 0.00724895
0.0251733 0.0177927 0.00715939
0.0253304 0.0168918 0.00740463
0.0251267 0.0171494 0.00725999
0.0254038 0.0180475 0.00710893
0.0253643 0.017855 0.00714598
0.0252927 0.0174817 0.00720829
0.0254087 0.0171393 0.00726211
0.0252744 0.0170273 0.00730912
0.0251939 0.0178894 0.00714441
0.0256176 0.017766 0.00715471
0.0252142 0.0179857 0.0071267
0.0250758 0.0166016 0.00761271
0.0255036 0.0180421 0.00710685
0.0191607 0.0177287 0.00705258
0.0252353 0.0168668 0.00742281
0.0252719 0.017385 0.00722322
0.0193207 0.0189558 0.00685647
0.0192428 0.0185682 0.00691716
0.02531 0.0177128 0.0072472
0.025441 0.0183877 0.00704449
0.0309288 0.0170649 0.00730176
0.031207 0.0183815 0.00691561
0.0310642 0.0172821 0.00723421
0.0252537 0.0181781 0.00708926
0.025168 0.0173427 0.00722928
0.0253547 0.0182172 0.00707889
0.0251659 0.0170989 0.00736398
0.0192205 0.0180189 0.00700622
0.025215 0.0167866 0.00747965
0.0254197 0.0185946 0.00700665
0.0193014 0.0188589 0.00687166
0.0251946 0.0167067 0.00753626
0.0310438 0.017188 0.00726183
0.0255972 0.0180767 0.00709753
0.0251795 0.0181073 0.00718768
0.0253555 0.0186702 0.00699456
0.0251197 0.016761 0.0074983
0.0191056 0.0178901 0.0070233
0.0253761 0.0174273 0.00721717
0.0191652 0.0181805 0.00697787
0.0250326 0.0170236 0.00741706
0.0252174 0.0184405 0.00704156
0.0252896 0.0167323 0.00751828
0.019142 0.0176401 0.00709514
0.0251971 0.018339 0.00706108
0.0190663 0.0177 0.00706908
0.0251799 0.017001 0.00732832
0.0252755 0.0187296 0.00698598
0.0190857 0.0177932 0.00703844
0.0253649 0.0176624 0.00718055
0.0253591 0.0184444 0.00703646
0.0191255 0.0179869 0.00700816
0.0192234 0.0184713 0.00693234
0.0252368 0.0185369 0.00702303
0.0250975 0.0178571 0.00714897
0.0192622 0.0186651 0.00690198
0.0191229 0.0175515 0.00713779
0.0252561 0.0186332 0.00700451
0.0191807 0.0178253 0.0070365
0.025423 0.018145 0.00709019
0.019008 0.0174349 0.00719664
0.0251724 0.0175102 0.00728313

VERTICES 188 376
1 0
1 1
1 2
1 3
1 4
1 5
1 6
1 7
1 8
1 9
1 10
1 11
1 12
1 13
1 14
1 15
1 16
1 17
1 18
1 19
1 20
1 21
1 22
1 23
1 24
1 25
1 26
1 27
1 28
1 29
1 30
1 31
1 32
1 33
1 34
1 35
1 36
1 37
1 38
1 39
1 40
1 41
1 42
1 43
1 44
1 45
1 46
1 47
1 48
1 49
1 50
1 51
1 52
1 53
1 54
1 55
1 56
1 57
1 58
1 59
1 60
1 61
1 62
1 63
1 64
1 65
1 66
1 67
1 68
1 69
1 70
1 71
1 72
1 73
1 74
1 75
1 76
1 77
1 78
1 79
1 80
1 81
1 82
1 83
1 84
1 85
1 86
1 87
1 88
1 89
1 90
1 91
1 92
1 93
1 94
1 95
1 96
1 97
1 98
1 99
1 100
1 101
1 102
1 103
1 104
1 105
1 106
1 107
1 108
1 109
1 110
1 111
1 112
1 113
1 114
1 115
1 116
1 117
1 118
1 119
1 120
1 121
1 122
1 123
1 124
1 125
1 126
1 127
1 128
1 129
1 130
1 131
1 132
1 133
1 134
1 135
1 136
1 137
1 138
1 139
1 140
1 141
1 142
1 143
1 144
1 145
1 146
1 147
1 148
1 149
1 150
1 151
1 152
1 153
1 154
1 155
1 156
1 157
1 158
1 159
1 160
1 161
1 162
1 163
1 164
1 165
1 166
1 167
1 168
1 169
1 170
1 171
1 172
1 173
1 174
1 175
1 176
1 177
1 178
1 179
1 180
1 181
1 182
1 183
1 184
1 185
1 186
1 187

POINT_DATA 188
SCALARS id int 1
LOOKUP_TABLE default
1
2
3
4
5
6
7
8
9
10
11
12
13
14
15
16
17
18
19
20
21
22
23
25
26
27
28
29
30
31
32
33
34
35
36
37
38
39
40
41
42
43
44
45
46
47
48
49
50
51
52
53
54
55
56
57
58
59
60
61
62
63
64
65
66
67
68
69
70
71
72
73
74
75
76
77
78
79
80
81
82
83
84
85
86
87
88
89
90
91
92
93
94
95
96
97
98
99
100
101
102
103
104
105
106
107
108
109
110
111
112
113
114
115
116
117
118
119
120
121
122
123
124
125
126
127
128
129
130
131
132
133
134
135
136
137
138
139
140
141
142
143
144
145
146
147
148
149
150
151
152
153
154
155
156
157
158
159
160
161
162
163
164
165
166
167
168
169
170
171
173
174
175
176
177
178
179
180
181
182
183
184
185
186
187
188
189
190

SCALARS type int 1
LOOKUP_TABLE default
1
1
1
1
1
1
1
1
1
1
1
1
1
1
1
1
1
1
1
1
1
1
1
1
1
1
1
1
1
1
1
1
1
1
1
1
1
1
1
1
1
1
1
1
1
1
1
1
1
1
1
1
1
1
1
1
1
1
1
1
1
1
1
1
1
1
1
1
1
1
1
1
1
1
1
1
1
1
1
1
1
1
1
1
1
1
1
1
1
1
1
1
1
1
1
1
1
1
1
1
1
1
1
1
1
1
1
1
1
1
1
1
1
1
1
1
1
1
1
1
1
1
1
1
1
1
1
1
1
1
1
1
1
1
1
1
1
1
1
1
1
1
1
1
1
1
1
1
1
1
1
1
1
1
1
1
1
1
1
1
1
1
1
1
1
1
1
1
1
1
1
1
1
1
1
1
1
1
1
1
1
1
1
1
1
1
1
1

SCALARS radius float 1
LOOKUP_TABLE default
5e-05
5e-05
5e-05
5e-05
5e-05
5e-05
5e-05
5e-05
5e-05
5e-05
5e-05
5e-05
5e-05
5e-05
5e-05
5e-05
5e-05
5e-05
5e-05
5e-05
5e-05
5e-05
5e-05
5e-05
5e-05
5e-05
5e-05
5e-05
5e-05
5e-05
5e-05
5e-05
5e-05
5e-05
5e-05
5e-05
5e-05
5e-05
5e-05
5e-05
5e-05
5e-05
5e-05
5e-05
5e-05
5e-05
5e-05
5e-05
5e-05
5e-05
5e-05
5e-05
5e-05
5e-05
5e-05
5e-05
5e-05
5e-05
5e-05
5e-05
5e-05
5e-05
5e-05
5e-05
5e-05
5e-05
5e-05
5e-05
5e-05
5e-05
5e-05
5e-05
5e-05
5e-05
5e-05
5e-05
5e-05
5e-05
5e-05
5e-05
5e-05
5e-05
5e-05
5e-05
5e-05
5e-05
5e-05
5e-05
5e-05
5e-05
5e-05
5e-05
5e-05
5e-05
5e-05
5e-05
5e-05
5e-05
5e-05
5e-05
5e-05
5e-05
5e-05
5e-05
5e-05
5e-05
5e-05
5e-05
5e-05
5e-05
5e-05
5e-05
5e-05
5e-05
5e-05
5e-05
5e-05
5e-05
5e-05
5e-05
5e-05
5e-05
5e-05
5e-05
5e-05
5e-05
5e-05
5e-05
5e-05
5e-05
5e-05
5e-05
5e-05
5e-05
5e-05
5e-05
5e-05
5e-05
5e-05
5e-05
5e-05
5e-05
5e-05
5e-05
5e-05
5e-05
5e-05
5e-05
5e-05
5e-05
5e-05
5e-05
5e-05
5e-05
5e-05
5e-05
5e-05
5e-05
5e-05
5e-05
5e-05
5e-05
5e-05
5e-05
5e-05
5e-05
5e-05
5e-05
5e-05
5e-05
5e-05
5e-05
5e-05
5e-05
5e-05
5e-05
5e-05
5e-05
5e-05
5e-05
5e-05
5e-05
5e-05
5e-05
5e-05
5e-05
5e-05
5e-05

SCALARS mass float 1
LOOKUP_TABLE default
5.23599e-10
5.23599e-10
5.23599e-10
5.23599e-10
5.23599e-10
5.23599e-10
5.23599e-10
5.23599e-10
5.23599e-10
5.23599e-10
5.23599e-10
5.23599e-10
5.23599e-10
5.23599e-10
5.23599e-10
5.23599e-10
5.23599e-10
5.23599e-10
5.23599e-10
5.23599e-10
5.23599e-10
5.23599e-10
5.23599e-10
5.23599e-10
5.23599e-10
5.23599e-10
5.23599e-10
5.23599e-10
5.23599e-10
5.23599e-10
5.23599e-10
5.23599e-10
5.23599e-10
5.23599e-10
5.23599e-10
5.23599e-10
5.23599e-10
5.23599e-10
5.23599e-10
5.23599e-10
5.23599e-10
5.23599e-10
5.23599e-10
5.23599e-10
5.23599e-10
5.23599e-10
5.23599e-10
5.23599e-10
5.23599e-10
5.23599e-10
5.23599e-10
5.23599e-10
5.23599e-10
5.23599e-10
5.23599e-10
5.23599e-10
5.23599e-10
5.23599e-10
5.23599e-10
5.23599e-10
5.23599e-10
5.23599e-10
5.23599e-10
5.23599e-10
5.23599e-10
5.23599e-10
5.23599e-10
5.23599e-10
5.23599e-10
5.23599e-10
5.23599e-10
5.23599e-10
5.23599e-10
5.23599e-10
5.23599e-10
5.23599e-10
5.23599e-10
5.23599e-10
5.23599e-10
5.23599e-10
5.23599e-10
5.23599e-10
5.23599e-10
5.23599e-10
5.23599e-10
5.23599e-10
5.23599e-10
5.23599e-10
5.23599e-10
5.23599e-10
5.23599e-10
5.23599e-10
5.23599e-10
5.23599e-10
5.23599e-10
5.23599e-10
5.23599e-10
5.23599e-10
5.23599e-10
5.23599e-10
5.23599e-10
5.23599e-10
5.23599e-10
5.23599e-10
5.23599e-10
5.23599e-10
5.23599e-10
5.23599e-10
5.23599e-10
5.23599e-10
5.23599e-10
5.23599e-10
5.23599e-10
5.23599e-10
5.23599e-10
5.23599e-10
5.23599e-10
5.23599e-10
5.23599e-10
5.23599e-10
5.23599e-10
5.23599e-10
5.23599e-10
5.23599e-10
5.23599e-10
5.23599e-10
5.23599e-10
5.23599e-10
5.23599e-10
5.23599e-10
5.23599e-10
5.23599e-10
5.23599e-10
5.23599e-10
5.23599e-10
5.23599e-10
5.23599e-10
5.23599e-10
5.23599e-10
5.23599e-10
5.23599e-10
5.23599e-10
5.23599e-10
5.23599e-10
5.23599e-10
5.23599e-10
5.23599e-10
5.23599e-10
5.23599e-10
5.23599e-10
5.23599e-10
5.23599e-10
5.23599e-10
5.23599e-10
5.23599e-10
5.23599e-10
5.23599e-10
5.23599e-10
5.23599e-10
5.23599e-10
5.23599e-10
5.23599e-10
5.23599e-10
5.23599e-10
5.23599e-10
5.23599e-10
5.23599e-10
5.23599e-10
5.23599e-10
5.23599e-10
5.23599e-10
5.23599e-10
5.23599e-10
5.23599e-10
5.23599e-10
5.23599e-10
5.23599e-10
5.23599e-10
5.23599e-10
5.23599e-10
5.23599e-10
5.23599e-10
5.23599e-10
5.23599e-10
5.23599e-10
5.23599e-10
5.23599e-10
5.23599e-10

VECTORS velocity float
0.0130563 -0.000647071 0.000374299
0.0126162 0.000381878 0.000357926
0.0124891 -0.000439919 0.000580511
0.011623 0.000323685 -0.00059602
0.0116998 -0.000631461 0.000449199
0.0115699 -0.000632794 9.62899e-05
0.0126646 0.000681886 6.35499e-05
0.0116889 -0.0006197 0.00015759
0.0112739 -0.000366806 0.000496041
0.0126251 -0.000751085 0.00041266
0.0125718 -0.000434899 0.000600554
0.0127 0.000487464 0.000178242
0.0116551 -0.000594062 8.4007e-05
0.01109 -0.000639501 -0.000258242
0.0117834 0.000222776 -0.000576177
0.0110177 -0.000660505 -0.000217987
0.0114586 0.000169563 -0.00052739
0.0124717 -0.000433083 0.00058511
0.0112373 -0.00311738 0.000904628
0.0128214 -0.000512621 8.71839e-05
0.0117024 0.000213924 -0.000574008
0.0116576 -0.000645621 0.000172117
0.0125159 -0.000423037 0.000576971
0.0118067 0.000215028 -0.000592134
0.0125709 -0.000386561 0.000549364
0.0126354 -0.000599421 0.00022357
0.0108235 -4.20498e-05 -0.000305168
0.0129067 -0.000676601 -0.000586314
0.0124813 -0.000663222 0.000386663
0.0116387 -0.00072384 0.000375799
0.0129797 0.000320783 0.000413354
0.0128514 -0.000784636 0.000463538
0.012687 -0.000654186 0.000353707
0.0125293 -0.000401221 0.000569068
0.0117199 0.000327257 -0.000586729
0.0126865 -0.000546105 0.000516697
0.0125494 -0.000380057 0.00019211
0.0116832 -0.000640673 0.000157915
0.0126693 -0.000782 0.000481268
0.0111017 -0.000442309 -0.000263947
0.0116752 -0.0005847 0.000147982
0.0117516 5.47327e-05 -0.000523417
0.0124579 -0.000446542 0.000580702
0.0109379 -0.000548525 -0.000259709
0.0111421 -0.00318386 0.000905307
0.011931 0.000228993 -0.000580943
0.0117053 -0.00049369 0.000268224
0.0116527 -0.000506608 0.000280389
0.0116379 -0.000624383 0.000171847
0.0124898 -0.000308997 0.000132445
0.0112579 -0.0026503 0.000912638
0.0126183 -0.000551227 0.000423442
0.0115654 -0.000589301 0.000166198
0.0123916 0.000115868 -0.000370333
0.0117058 -0.000639396 0.000143991
0.0116765 7.47948e-05 -0.000525328
0.0112199 -0.000558653 -0.000279874
0.0108969 -0.000572379 -0.000215428
0.0113139 -0.000497341 0.000252411
0.0117061 -0.000609678 0.000177845
0.0118685 0.00018363 -0.000582371
0.0116104 -0.000569433 0.000141653
0.0116699 -0.000691644 0.000157189
0.0119318 0.000265851 -0.000598846
0.0126964 -0.000491163 0.000660808
0.0107815 -0.00279259 0.000826486
0.011356 -0.00250743 0.000835157
0.0109258 -0.000667812 -0.000214525
0.0116428 -0.000591832 0.000151265
0.0113069 -0.000304321 -0.000292034
0.0108553 -0.00270398 0.000818034
0.0109827 -0.00287251 0.000851094
0.0126297 0.000237887 0.000270992
0.0114488 -0.00251885 0.000846461
0.0129591 0.000181338 0.000435896
0.012884 -0.00073461 -0.000940114
0.0130409 -0.000241255 -0.00050895
0.0116842 -0.000538159 0.000100429
0.0119862 0.00020162 -0.000575441
0.0119295 0.000297653 -0.000597295
0.0115892 -0.000758872 0.000180327
0.0117196 -0.000660917 0.000169504
0.0126258 -0.000462477 0.000639784
0.0116596 -0.000395434 0.000154154
0.011678 -0.000626162 0.000162457
0.011528 -0.000549071 0.000145033
0.01152 0.000309982 -0.00059622
0.0113869 -0.000313798 0.0004709
0.011725 -0.000141171 -0.00030452
0.0126054 -0.000523707 0.000341272
0.01278 -0.000585302 0.000322202
0.0125115 -0.000448787 0.000495692
0.0117119 -0.000618856 0.000138872
0.0126572 -0.000687292 0.000492914
0.0116875 -0.000660789 0.000164477
0.0115967 -0.000539259 0.000313797
0.0126732 -0.000652333 0.000422257
0.011695 -0.000553648 0.000135933
0.0115025 -0.000376107 -0.000321727
0.0117346 -0.000337799 -0.000289116
0.0123077 -0.000406642 0.000200612
0.0111589 -0.000553301 -0.000244847
0.0113072 -0.000434918 0.000214037
0.0118873 -0.000471191 0.000223599
0.0118882 -0.000402209 0.000545847
0.0108941 -0.000704746 -0.000200483
0.0131215 0.000302565 0.000493754
0.0116398 -0.00059395 0.000133691
0.0114428 -0.000480953 0.000183003
0.011674 -0.000639656 0.000176312
0.0126057 -0.000390256 0.00054466
0.0117488 -0.000563365 0.000310163
0.0126369 -0.000630804 0.000309197
0.0112697 -0.000157083 -0.000287665
0.0117141 -0.000676097 0.000142379
0.0116548 -0.000682007 0.00015813
0.0110304 -0.000674625 -0.000223198
0.0110103 -0.000625931 -0.000228636
0.012672 -0.000902727 0.000530051
0.0116162 -0.000522153 0.000298388
0.0108411 -0.000620348 -0.000213911
0.0115298 -0.0006326 0.000355572
0.0116473 -0.000609509 -1.51802e-06
0.0114271 -0.00052463 -0.000242093
0.011459 -0.000183339 -0.000319901
0.0116375 -0.000602579 0.000151806
0.0116739 -0.000591734 0.000179657
0.0115563 -0.000421951 0.000220513
0.0115863 -0.000639473 0.00025391
0.011063 -0.000619464 -0.000224213
0.0113158 -0.000697447 -0.000297661
0.0117038 -0.000578855 0.000135923
0.0114629 -0.000609332 0.00017224
0.0116906 -0.000506506 0.000278036
0.0116378 -0.000529449 0.000123794
0.011534 0.000367937 -0.00042903
0.011202 -0.000680182 -0.000320224
0.0128664 -9.4431e-05 0.000239619
0.0110595 -0.000232446 -0.000306724
0.0108969 -0.00287883 0.000972914
0.0115648 -0.000562735 0.00031953
0.0116816 -0.00056826 0.000136554
0.0112265 -0.00284297 0.000793823
0.0109319 -0.00274048 0.000824849
0.0116806 -0.000616892 0.000168471
0.0109276 -0.000513588 -0.000225685
0.0118332 0.000141774 -0.000638454
0.0114996 0.000144213 -0.000534584
0.0117504 0.000193661 -0.000573153
0.0111408 -0.000586944 -0.000240059
0.0116977 -0.000712558 0.000168579
0.0108022 -0.000730659 -0.000201152
0.0114343 -0.000386471 0.000269499
0.0113682 -0.00304454 0.000905827
0.011961 -0.000674799 0.000382038
0.0112295 -0.000644239 -0.000228365
0.0122299 -0.00317555 0.000943341
0.0121392 -0.000398299 0.000234075
0.0117338 0.000179914 -0.000583887
0.0109862 -3.1692e-05 -0.000353001
0.0108396 -0.00051786 -0.000274127
0.0112628 -0.000600274 -0.000237167
0.0130476 -0.000645284 0.000361229
0.0108657 -0.00345318 0.00094144
0.0116871 -0.000644708 0.000148971
0.0108394 -0.00295559 0.00085488
0.0118588 -0.000304618 0.000291128
0.0110648 -0.00057292 -0.000233296
0.0120524 -0.000299138 0.000488201
0.0107516 -0.00257211 0.000880455
0.0109579 -0.000716139 -0.000208019
0.0109343 -0.00252476 0.000897142
0.0117238 -0.000506638 0.000305264
0.0112505 -0.000604931 -0.000236097
0.0111055 -0.00271512 0.000830646
0.0116851 -0.000578074 0.000153094
0.0108234 -0.000475402 -0.000250499
0.0109567 -0.00343001 0.000939792
0.010895 -0.00270915 0.000820449
0.0111505 -0.000583051 -0.000231937
0.0116817 -0.000574691 0.000180559
0.0109058 -0.00285347 0.000834186
0.0114754 -0.00248191 0.000827449
0.0111839 -0.000620287 -0.000232374
0.0113133 -0.00311081 0.000958917
0.0107535 -0.00075474 -0.000205294
0.0113168 -0.00257276 0.000869029
0.0117343 -0.000676935 0.000171267

VECTORS force float
4.07835e-09 -3.618e-09 2.43768e-09
7.28949e-10 7.83558e-10 -1.06177e-09
5.30663e-10 6.77096e-10 -4.92031e-10
7.4498e-10 -5.62395e-10 -3.6459e-10
1.64879e-09 6.0912e-10 -7.44367e-10
3.09388e-10 -3.45475e-11 -6.60102e-10
2.8837e-09 -1.11595e-10 1.89274e-09
-1.12616e-09 1.40209e-09 5.41482e-10
-1.91543e-09 2.29927e-09 -2.25082e-09
2.99355e-09 -1.98794e-09 2.20149e-09
-4.52291e-10 1.31985e-09 -6.32921e-10
3.47471e-09 -2.41828e-09 -3.6824e-09
-6.13705e-10 -1.41768e-09 -2.6804e-09
-1.92321e-10 -5.17547e-10 -1.17442e-11
-2.91356e-10 -1.96565e-09 2.70747e-09
-4.38787e-10 -3.39777e-10 1.48474e-10
-1.3582e-10 7.57247e-10 5.29768e-10
-3.08516e-10 7.07795e-10 -5.90959e-10
4.27224e-11 3.89987e-09 1.31064e-09
-4.7743e-12 3.10123e-09 1.40626e-08
-1.5184e-09 -9.36382e-10 1.18259e-09
-2.16008e-12 7.63109e-10 9.83803e-10
4.801e-11 2.36111e-09 -1.68469e-09
-5.40086e-10 -1.96831e-09 2.35273e-09
6.4415e-10 1.18106e-09 2.48306e-10
-4.65731e-10 -1.37936e-09 -4.02696e-10
-2.74247e-09 1.08196e-09 6.92145e-10
-2.97043e-09 -1.4911e-09 -3.45564e-10
7.10642e-12 5.00986e-10 4.30981e-10
-3.09546e-09 6.67167e-09 3.34234e-09
-1.78565e-09 7.90096e-10 -4.35139e-09
2.22111e-09 -9.92844e-12 2.60968e-10
-2.2212e-09 -5.91948e-11 5.8356e-09
2.55073e-10 1.17642e-09 -1.2829e-10
1.62108e-09 -6.82904e-10 2.4535e-10
1.22304e-09 -2.46679e-09 -1.45881e-10
1.72793e-09 -1.26352e-09 1.24229e-09
-1.68135e-10 -2.9744e-10 -4.06004e-10
1.58439e-09 5.67241e-10 6.06452e-10
-8.8974e-10 5.15461e-10 1.57391e-11
-4.08714e-10 1.70806e-09 1.73074e-10
-1.14601e-10 -3.22877e-10 3.94545e-11
1.43532e-09 6.05659e-10 -7.1326e-10
3.19962e-09 -3.36146e-10 -8.09861e-10
4.03929e-10 1.79036e-09 -3.14129e-10
2.20992e-09 1.33145e-09 -7.15201e-10
-1.575e-09 4.38008e-10 3.54449e-10
1.2885e-09 1.27162e-09 -1.07333e-10
1.4328e-09 2.46045e-10 2.27293e-10
-1.72642e-09 2.05545e-09 -2.30812e-09
-1.46516e-10 1.11999e-09 -2.53129e-10
2.85457e-10 5.16691e-10 1.03757e-09
1.34435e-09 -5.62823e-10 4.8172e-10
7.38911e-11 -5.96519e-10 -1.26293e-09
-1.58525e-09 6.3799e-10 -1.85185e-09
-1.72636e-09 1.14064e-09 -2.96417e-10
5.1544e-10 -8.81384e-10 1.44784e-09
-8.00283e-11 -2.1632e-10 -6.26013e-10
-1.18385e-09 8.10476e-11 1.95946e-09
-1.65627e-10 2.84624e-10 6.51474e-10
-3.12197e-10 -3.30736e-10 3.79228e-10
-2.07939e-11 -4.4983e-10 8.05705e-10
-1.56625e-09 -4.71427e-11 -2.95712e-10
-2.93758e-10 -3.98211e-09 8.57131e-10
1.83669e-09 -6.54527e-10 -1.05488e-09
2.19087e-09 -1.02024e-09 3.34048e-10
-2.19147e-10 4.80295e-11 -5.06095e-10
2.41026e-09 -1.06499e-09 3.46442e-10
-5.3667e-10 1.50034e-09 -4.61999e-11
-2.91539e-09 1.59572e-09 4.62457e-10
-2.44134e-10 1.32379e-09 -3.10065e-10
-3.14475e-09 -1.94739e-09 7.86712e-12
-7.83277e-09 9.9631e-09 4.97124e-09
-3.01176e-09 -2.83088e-09 7.90384e-10
4.55173e-09 -6.00823e-09 4.00944e-09
-2.68538e-09 -7.23146e-09 7.32234e-10
4.89525e-09 5.37698e-09 2.60949e-10
-1.39544e-09 7.83074e-10 1.16777e-09
2.23382e-09 3.12033e-09 -1.6061e-09
-3.9258e-10 -1.03649e-09 2.82034e-10
-1.08208e-09 -4.19573e-10 2.36536e-10
-9.4756e-10 7.58313e-10 7.72311e-10
1.21224e-10 4.32612e-10 4.55813e-10
-9.01831e-10 -1.19668e-09 3.95886e-10
1.25852e-10 -4.29373e-12 4.32222e-10
3.54066e-10 -3.18689e-10 1.82397e-10
1.36974e-09 1.71612e-09 -7.83217e-10
-2.24854e-09 1.13462e-09 -1.14204e-09
3.98528e-09 -2.06378e-09 4.30488e-10
4.98269e-10 -7.27463e-10 -1.34952e-09
4.24241e-09 -5.0553e-09 3.31343e-09
1.50325e-09 -1.01225e-09 1.95825e-11
-5.36381e-10 -7.19536e-10 1.16461e-09
7.88842e-11 1.27973e-10 2.38629e-09
4.59554e-11 2.29709e-10 8.96216e-10
1.55954e-09 1.24619e-09 -8.06547e-10
-1.18607e-09 -2.77253e-09 2.33291e-09
-7.02463e-10 9.60664e-10 1.05024e-09
1.32803e-10 2.26445e-10 -1.65422e-09
5.60367e-10 8.18677e-10 -1.02863e-09
-4.91003e-10 -2.39998e-10 5.21158e-10
1.6888e-09 1.14082e-09 -7.62138e-10
1.03926e-09 -1.51789e-09 4.62387e-10
-3.02438e-09 -9.30419e-10 9.17938e-10
-6.077e-10 1.30169e-09 -1.23951e-09
-7.98392e-10 8.22547e-10 2.31709e-10
5.9252e-09 -1.97155e-09 3.25799e-09
-8.93644e-10 -1.27644e-09 -1.10816e-09
-2.72195e-10 -4.25513e-11 1.57741e-10
2.491e-10 3.04668e-10 3.3959e-10
5.35059e-10 1.23409e-09 -7.61896e-10
1.07737e-09 -1.12299e-09 4.87983e-10
-2.28609e-09 -2.73108e-09 2.94447e-09
-7.94629e-10 -9.92143e-10 -1.97599e-11
-1.31586e-09 8.89977e-12 6.74312e-10
-3.6438e-10 1.38262e-10 7.67427e-11
-2.04506e-09 7.43844e-10 -7.89425e-12
1.84356e-09 1.78111e-09 -7.33418e-11
1.53297e-09 2.09759e-09 -5.14641e-10
4.56453e-10 9.51667e-10 6.26809e-10
-2.2735e-09 1.9103e-10 2.48948e-10
8.44511e-10 -4.5067e-10 -4.0264e-10
-4.10732e-10 -1.6185e-09 -1.77485e-09
-2.01302e-09 5.59024e-10 -3.88072e-10
-2.43626e-09 6.75234e-10 7.8101e-10
-1.42346e-09 -7.92961e-10 -6.15232e-10
-4.74829e-10 9.99795e-10 -3.16047e-10
-8.25807e-10 -4.23853e-10 1.04192e-09
8.08075e-10 1.19835e-09 4.84625e-11
1.06259e-09 7.35038e-10 -5.8758e-10
-3.40866e-09 2.03323e-09 6.84521e-09
-1.38876e-09 7.66308e-10 3.0807e-10
4.17992e-10 1.55434e-10 -6.58259e-10
1.88477e-09 -1.09627e-10 1.29988e-09
-2.56579e-10 1.34674e-09 -6.06206e-10
4.04858e-09 3.72422e-10 -8.73662e-10
-6.16624e-10 1.20104e-09 -2.9652e-09
5.1934e-09 -5.05021e-09 2.77899e-09
2.75134e-11 -1.48879e-10 2.93378e-10
2.56136e-09 -5.22125e-09 4.75323e-09
1.85492e-10 3.45986e-11 9.68297e-10
-5.03321e-10 -7.57807e-10 2.13474e-10
-3.96608e-09 4.69917e-09 -8.73422e-10
1.84132e-10 2.06296e-09 -8.8151e-10
-1.2062e-09 2.65112e-10 -2.14805e-11
-2.4174e-09 1.24605e-09 4.08619e-10
-1.73825e-09 1.60377e-09 3.92662e-11
-6.81946e-11 -3.86369e-10 1.23456e-10
-1.42271e-09 1.44158e-10 6.81131e-10
2.45218e-09 -6.43835e-10 -1.43012e-10
-2.69969e-10 -6.00476e-10 -1.36143e-09
-8.88348e-10 -1.58737e-10 2.73702e-10
-4.2598e-10 -9.70767e-11 -1.75945e-10
6.9467e-11 6.67119e-10 -6.24379e-10
-2.72961e-09 2.41355e-09 1.09529e-09
1.41044e-10 -8.18393e-10 1.39606e-10
-4.25146e-10 1.79761e-09 -2.77214e-10
5.04773e-10 6.4723e-10 -2.88641e-09
-6.55121e-10 3.04669e-10 2.32735e-10
-2.29219e-09 8.99455e-10 -2.63932e-10
2.03422e-09 -5.66655e-10 -7.51259e-10
-4.70569e-10 -1.13993e-09 1.72132e-10
5.68092e-09 -3.08956e-09 3.05707e-09
5.45346e-09 2.77473e-08 -4.71568e-09
-1.83422e-09 2.61526e-10 3.53665e-10
-1.26662e-09 2.02077e-10 5.62133e-11
5.94022e-10 -1.69666e-09 6.19934e-11
-1.01924e-09 -1.43748e-09 3.48745e-10
-2.63894e-09 -5.51933e-12 -1.65695e-10
-3.36852e-09 -6.98983e-09 3.67568e-09
2.19973e-10 -2.98694e-09 2.8982e-10
-1.54426e-09 -6.68334e-09 3.28377e-09
6.12839e-10 4.84018e-10 -1.91707e-10
1.22651e-10 -1.65939e-10 3.39645e-11
-3.00097e-09 -2.51994e-08 4.38922e-09
-5.65327e-10 6.924e-10 -1.73993e-10
-1.05019e-09 6.03454e-10 -6.39575e-10
-1.68938e-09 4.31283e-09 -6.78458e-10
9.87942e-10 2.36718e-09 -6.92743e-10
5.49569e-10 -1.70895e-10 1.46054e-10
-5.96917e-10 7.32026e-10 -5.06287e-10
6.19366e-09 -3.46007e-09 -6.71656e-11
-1.34097e-09 1.46992e-09 -5.64765e-10
1.2752e-10 -2.21344e-10 1.0882e-10
-5.07111e-10 6.27796e-09 2.91845e-09
-2.25777e-09 1.05015e-09 -3.56422e-10
8.88334e-10 2.77589e-10 -1.7214e-10
-9.56903e-10 1.98673e-09 1.19791e-09
