# vtk DataFile Version 3.0
LIGGGHTS particles timestep 4000000
ASCII
DATASET POLYDATA
POINTS 188 float
0.0609906 0.0166873 0.00771349
0.0666781 0.0161741 0.00804049
0.0607105 0.0160291 0.00834916
0.0670732 0.0177266 0.00707952
0.0608388 0.0167917 0.00763566
0.0613319 0.0176994 0.00717191
0.0666985 0.0162544 0.00798437
0.061153 0.0172834 0.00720377
0.060555 0.0157976 0.00857946
0.0608736 0.0165972 0.00780973
0.0607921 0.0163132 0.00807938
0.0667408 0.0164144 0.00787221
0.0608796 0.0169344 0.00750164
0.0613721 0.0178951 0.00718063
0.0669311 0.0171321 0.00736356
0.0612226 0.0180275 0.007192
0.0671966 0.0183137 0.00707653
0.060615 0.0160108 0.00837714
0.0552058 0.0179423 0.00711597
0.0609498 0.0165453 0.00784835
0.0669099 0.0170522 0.00741989
0.0610593 0.0172543 0.00722287
0.0606352 0.0160818 0.00830972
0.0669524 0.0172116 0.00730682
0.0606759 0.0162238 0.0081749
0.0607167 0.0163658 0.00804009
0.0613044 0.018419 0.00719451
0.0667619 0.0164942 0.00781567
0.0609143 0.0167392 0.0076749
0.0608185 0.0167207 0.00770306
0.0668254 0.0167333 0.00764604
0.0608941 0.0166686 0.00774281
0.0608532 0.0165262 0.00787714
0.0607717 0.0162422 0.00814679
0.0671143 0.0179223 0.00707853
0.0608328 0.0164552 0.00794455
0.0610116 0.0167588 0.00764549
0.0609964 0.0170241 0.0074043
0.0607777 0.0165788 0.00783787
0.0612629 0.0182234 0.00719323
0.0611971 0.0174718 0.00716504
0.0671555 0.018118 0.00707753
0.060731 0.0161001 0.00828177
0.0610635 0.0176969 0.00718502
0.0549238 0.0170828 0.00735443
0.0670202 0.0174515 0.00714021
0.0610524 0.0169011 0.00751102
0.061032 0.0168298 0.00757807
0.0610764 0.0173356 0.00716317
0.0610662 0.0166348 0.00775262
0.0547612 0.016497 0.00783789
0.0608125 0.0163842 0.00801197
0.0612171 0.0175697 0.00716941
0.0668678 0.0168927 0.00753298
0.0609002 0.0170074 0.00743647
0.0671349 0.0180201 0.00707803
0.0610436 0.017599 0.00718187
0.0611624 0.0177338 0.00718116
0.0614067 0.0176332 0.00716567
0.0609831 0.0173054 0.00718307
0.0669734 0.017292 0.00725123
0.0613658 0.0174367 0.00715692
0.0614268 0.0177311 0.00717003
0.0670526 0.0176287 0.00708002
0.0609294 0.0164743 0.00791577
0.0549672 0.0172619 0.00727681
0.0547991 0.0166139 0.0076801
0.0612026 0.0179295 0.00718916
0.0611774 0.0173739 0.00716882
0.061508 0.0181219 0.00718743
0.054989 0.0173514 0.007238
0.0550723 0.0177154 0.00709725
0.0667196 0.0163344 0.00792835
0.0548183 0.0166723 0.00760129
0.0668465 0.0168131 0.00758952
0.0667831 0.0165739 0.00775913
0.0668042 0.0166536 0.00770258
0.0610236 0.017501 0.00717996
0.0669945 0.0173711 0.00719373
0.067032 0.0175309 0.00708053
0.0611912 0.0170718 0.00736124
0.0609209 0.0170816 0.0073727
0.060909 0.0164033 0.00798319
0.0610754 0.0173835 0.00725091
0.0609642 0.0172312 0.0072473
0.0612106 0.017151 0.0073032
0.0670937 0.0178244 0.00707902
0.0605743 0.0158688 0.00851197
0.0613793 0.0183526 0.00719753
0.0606963 0.0162948 0.00810749
0.0609702 0.0166162 0.00778095
0.0606558 0.0161528 0.00824233
0.0611354 0.0172031 0.0072627
0.0610889 0.0174951 0.00725543
0.0610399 0.0171757 0.00728163
0.0611275 0.016848 0.00755024
0.0607574 0.0165078 0.00790527
0.0612721 0.0174057 0.00717277
0.0614874 0.0180242 0.00718309
0.0614671 0.0179263 0.00717873
0.061107 0.0167769 0.00761773
0.0612773 0.0178634 0.00718251
0.0614815 0.017567 0.00715943
0.0614386 0.0173683 0.00715064
0.0605945 0.0159399 0.00844454
0.0614332 0.0181885 0.00719371
0.0670519 0.0172396 0.00728438
0.0609555 0.0168816 0.00753964
0.0613276 0.0172581 0.00722693
0.0609424 0.0171562 0.00730976
0.0607514 0.0161712 0.00821421
0.061287 0.0171 0.00734287
0.060737 0.0164368 0.00797268
0.0615289 0.0182197 0.00719176
0.0610174 0.017097 0.00733911
0.0610934 0.0170452 0.00737845
0.0613176 0.0180591 0.00719168
0.0610834 0.0177949 0.00718654
0.0607981 0.0166497 0.00777047
0.060935 0.0168105 0.0076072
0.0612572 0.0177655 0.00717814
0.0611685 0.0169961 0.00742248
0.0608592 0.0168627 0.00756825
0.061237 0.0176676 0.00717378
0.0614543 0.0182862 0.00719808
0.0609764 0.0169531 0.00747174
0.0611026 0.0174401 0.00717302
0.0614608 0.0174683 0.00715505
0.0610728 0.0169732 0.00744475
0.0613923 0.0179929 0.00718499
0.061352 0.0177972 0.00717627
0.0612511 0.0173089 0.00718739
0.0613452 0.0173375 0.00716864
0.0613065 0.0171791 0.00728486
0.0611222 0.0175381 0.00717151
0.0612505 0.0185771 0.00719214
0.0611422 0.017636 0.00717565
0.0610459 0.0165638 0.00782004
0.061358 0.0182549 0.00719687
0.0551493 0.0176519 0.0071031
0.0612676 0.0170209 0.00740089
0.0612301 0.0172301 0.00724522
0.0551111 0.0179114 0.00710639
0.0550315 0.0175308 0.00716034
0.0613119 0.0176015 0.00716754
0.0613378 0.018157 0.00719563
0.0668888 0.0169729 0.00747705
0.067176 0.0182158 0.00707703
0.0671313 0.0175422 0.00708426
0.0611825 0.0178316 0.00718563
0.061116 0.0171239 0.00732082
0.0612974 0.0179612 0.00718741
0.0612255 0.0173766 0.00725641
0.0551316 0.0180092 0.00711104
0.0612442 0.0169418 0.00745881
0.0612833 0.0183213 0.00719386
0.0550907 0.0178136 0.00710163
0.0612236 0.0168668 0.00752171
0.067073 0.0173194 0.00722778
0.0612252 0.0184803 0.00719133
0.0611615 0.0178847 0.00726862
0.0612043 0.0183826 0.00719068
0.0610866 0.0167058 0.00768521
0.0548803 0.0169037 0.00743217
0.0613866 0.0175353 0.0071613
0.0549455 0.0171723 0.00731562
0.0610053 0.0173183 0.00727973
0.0611235 0.0179908 0.00718832
0.0614226 0.0172876 0.00720757
0.0550611 0.0172286 0.0072858
0.0611035 0.0178929 0.0071876
0.054837 0.0167307 0.00752232
0.0611477 0.016919 0.00748284
0.0611839 0.0182847 0.00719006
0.0548586 0.0168153 0.00747342
0.061292 0.0175035 0.00716682
0.0612427 0.0181254 0.00719262
0.054902 0.0169932 0.00739324
0.0550107 0.017441 0.0071992
0.0611436 0.0180888 0.00718884
0.0610038 0.0174031 0.00717703
0.0550509 0.0176208 0.00712144
0.0550148 0.017043 0.00736628
0.0611637 0.0181867 0.00718944
0.0551853 0.0178445 0.00711127
0.0614126 0.0180908 0.00718935
0.0547802 0.0165554 0.007759
0.0611637 0.0175772 0.00725366

VERTICES 188 376
1 0
1 1
1 2
1 3
1 4
1 5
1 6
1 7
1 8
1 9
1 10
1 11
1 12
1 13
1 14
1 15
1 16
1 17
1 18
1 19
1 20
1 21
1 22
1 23
1 24
1 25
1 26
1 27
1 28
1 29
1 30
1 31
1 32
1 33
1 34
1 35
1 36
1 37
1 38
1 39
1 40
1 41
1 42
1 43
1 44
1 45
1 46
1 47
1 48
1 49
1 50
1 51
1 52
1 53
1 54
1 55
1 56
1 57
1 58
1 59
1 60
1 61
1 62
1 63
1 64
1 65
1 66
1 67
1 68
1 69
1 70
1 71
1 72
1 73
1 74
1 75
1 76
1 77
1 78
1 79
1 80
1 81
1 82
1 83
1 84
1 85
1 86
1 87
1 88
1 89
1 90
1 91
1 92
1 93
1 94
1 95
1 96
1 97
1 98
1 99
1 100
1 101
1 102
1 103
1 104
1 105
1 106
1 107
1 108
1 109
1 110
1 111
1 112
1 113
1 114
1 115
1 116
1 117
1 118
1 119
1 120
1 121
1 122
1 123
1 124
1 125
1 126
1 127
1 128
1 129
1 130
1 131
1 132
1 133
1 134
1 135
1 136
1 137
1 138
1 139
1 140
1 141
1 142
1 143
1 144
1 145
1 146
1 147
1 148
1 149
1 150
1 151
1 152
1 153
1 154
1 155
1 156
1 157
1 158
1 159
1 160
1 161
1 162
1 163
1 164
1 165
1 166
1 167
1 168
1 169
1 170
1 171
1 172
1 173
1 174
1 175
1 176
1 177
1 178
1 179
1 180
1 181
1 182
1 183
1 184
1 185
1 186
1 187

POINT_DATA 188
SCALARS id int 1
LOOKUP_TABLE default
1
2
3
4
5
6
7
8
9
10
11
12
13
14
15
16
17
18
19
20
21
22
23
25
26
27
28
29
30
31
32
33
34
35
36
37
38
39
40
41
42
43
44
45
46
47
48
49
50
51
52
53
54
55
56
57
58
59
60
61
62
63
64
65
66
67
68
69
70
71
72
73
74
75
76
77
78
79
80
81
82
83
84
85
86
87
88
89
90
91
92
93
94
95
96
97
98
99
100
101
102
103
104
105
106
107
108
109
110
111
112
113
114
115
116
117
118
119
120
121
122
123
124
125
126
127
128
129
130
131
132
133
134
135
136
137
138
139
140
141
142
143
144
145
146
147
148
149
150
151
152
153
154
155
156
157
158
159
160
161
162
163
164
165
166
167
168
169
170
171
173
174
175
176
177
178
179
180
181
182
183
184
185
186
187
188
189
190

SCALARS type int 1
LOOKUP_TABLE default
1
1
1
1
1
1
1
1
1
1
1
1
1
1
1
1
1
1
1
1
1
1
1
1
1
1
1
1
1
1
1
1
1
1
1
1
1
1
1
1
1
1
1
1
1
1
1
1
1
1
1
1
1
1
1
1
1
1
1
1
1
1
1
1
1
1
1
1
1
1
1
1
1
1
1
1
1
1
1
1
1
1
1
1
1
1
1
1
1
1
1
1
1
1
1
1
1
1
1
1
1
1
1
1
1
1
1
1
1
1
1
1
1
1
1
1
1
1
1
1
1
1
1
1
1
1
1
1
1
1
1
1
1
1
1
1
1
1
1
1
1
1
1
1
1
1
1
1
1
1
1
1
1
1
1
1
1
1
1
1
1
1
1
1
1
1
1
1
1
1
1
1
1
1
1
1
1
1
1
1
1
1
1
1
1
1
1
1

SCALARS radius float 1
LOOKUP_TABLE default
5e-05
5e-05
5e-05
5e-05
5e-05
5e-05
5e-05
5e-05
5e-05
5e-05
5e-05
5e-05
5e-05
5e-05
5e-05
5e-05
5e-05
5e-05
5e-05
5e-05
5e-05
5e-05
5e-05
5e-05
5e-05
5e-05
5e-05
5e-05
5e-05
5e-05
5e-05
5e-05
5e-05
5e-05
5e-05
5e-05
5e-05
5e-05
5e-05
5e-05
5e-05
5e-05
5e-05
5e-05
5e-05
5e-05
5e-05
5e-05
5e-05
5e-05
5e-05
5e-05
5e-05
5e-05
5e-05
5e-05
5e-05
5e-05
5e-05
5e-05
5e-05
5e-05
5e-05
5e-05
5e-05
5e-05
5e-05
5e-05
5e-05
5e-05
5e-05
5e-05
5e-05
5e-05
5e-05
5e-05
5e-05
5e-05
5e-05
5e-05
5e-05
5e-05
5e-05
5e-05
5e-05
5e-05
5e-05
5e-05
5e-05
5e-05
5e-05
5e-05
5e-05
5e-05
5e-05
5e-05
5e-05
5e-05
5e-05
5e-05
5e-05
5e-05
5e-05
5e-05
5e-05
5e-05
5e-05
5e-05
5e-05
5e-05
5e-05
5e-05
5e-05
5e-05
5e-05
5e-05
5e-05
5e-05
5e-05
5e-05
5e-05
5e-05
5e-05
5e-05
5e-05
5e-05
5e-05
5e-05
5e-05
5e-05
5e-05
5e-05
5e-05
5e-05
5e-05
5e-05
5e-05
5e-05
5e-05
5e-05
5e-05
5e-05
5e-05
5e-05
5e-05
5e-05
5e-05
5e-05
5e-05
5e-05
5e-05
5e-05
5e-05
5e-05
5e-05
5e-05
5e-05
5e-05
5e-05
5e-05
5e-05
5e-05
5e-05
5e-05
5e-05
5e-05
5e-05
5e-05
5e-05
5e-05
5e-05
5e-05
5e-05
5e-05
5e-05
5e-05
5e-05
5e-05
5e-05
5e-05
5e-05
5e-05
5e-05
5e-05
5e-05
5e-05
5e-05
5e-05

SCALARS mass float 1
LOOKUP_TABLE default
5.23599e-10
5.23599e-10
5.23599e-10
5.23599e-10
5.23599e-10
5.23599e-10
5.23599e-10
5.23599e-10
5.23599e-10
5.23599e-10
5.23599e-10
5.23599e-10
5.23599e-10
5.23599e-10
5.23599e-10
5.23599e-10
5.23599e-10
5.23599e-10
5.23599e-10
5.23599e-10
5.23599e-10
5.23599e-10
5.23599e-10
5.23599e-10
5.23599e-10
5.23599e-10
5.23599e-10
5.23599e-10
5.23599e-10
5.23599e-10
5.23599e-10
5.23599e-10
5.23599e-10
5.23599e-10
5.23599e-10
5.23599e-10
5.23599e-10
5.23599e-10
5.23599e-10
5.23599e-10
5.23599e-10
5.23599e-10
5.23599e-10
5.23599e-10
5.23599e-10
5.23599e-10
5.23599e-10
5.23599e-10
5.23599e-10
5.23599e-10
5.23599e-10
5.23599e-10
5.23599e-10
5.23599e-10
5.23599e-10
5.23599e-10
5.23599e-10
5.23599e-10
5.23599e-10
5.23599e-10
5.23599e-10
5.23599e-10
5.23599e-10
5.23599e-10
5.23599e-10
5.23599e-10
5.23599e-10
5.23599e-10
5.23599e-10
5.23599e-10
5.23599e-10
5.23599e-10
5.23599e-10
5.23599e-10
5.23599e-10
5.23599e-10
5.23599e-10
5.23599e-10
5.23599e-10
5.23599e-10
5.23599e-10
5.23599e-10
5.23599e-10
5.23599e-10
5.23599e-10
5.23599e-10
5.23599e-10
5.23599e-10
5.23599e-10
5.23599e-10
5.23599e-10
5.23599e-10
5.23599e-10
5.23599e-10
5.23599e-10
5.23599e-10
5.23599e-10
5.23599e-10
5.23599e-10
5.23599e-10
5.23599e-10
5.23599e-10
5.23599e-10
5.23599e-10
5.23599e-10
5.23599e-10
5.23599e-10
5.23599e-10
5.23599e-10
5.23599e-10
5.23599e-10
5.23599e-10
5.23599e-10
5.23599e-10
5.23599e-10
5.23599e-10
5.23599e-10
5.23599e-10
5.23599e-10
5.23599e-10
5.23599e-10
5.23599e-10
5.23599e-10
5.23599e-10
5.23599e-10
5.23599e-10
5.23599e-10
5.23599e-10
5.23599e-10
5.23599e-10
5.23599e-10
5.23599e-10
5.23599e-10
5.23599e-10
5.23599e-10
5.23599e-10
5.23599e-10
5.23599e-10
5.23599e-10
5.23599e-10
5.23599e-10
5.23599e-10
5.23599e-10
5.23599e-10
5.23599e-10
5.23599e-10
5.23599e-10
5.23599e-10
5.23599e-10
5.23599e-10
5.23599e-10
5.23599e-10
5.23599e-10
5.23599e-10
5.23599e-10
5.23599e-10
5.23599e-10
5.23599e-10
5.23599e-10
5.23599e-10
5.23599e-10
5.23599e-10
5.23599e-10
5.23599e-10
5.23599e-10
5.23599e-10
5.23599e-10
5.23599e-10
5.23599e-10
5.23599e-10
5.23599e-10
5.23599e-10
5.23599e-10
5.23599e-10
5.23599e-10
5.23599e-10
5.23599e-10
5.23599e-10
5.23599e-10
5.23599e-10
5.23599e-10
5.23599e-10
5.23599e-10
5.23599e-10
5.23599e-10
5.23599e-10
5.23599e-10
5.23599e-10

VECTORS velocity float
0.0124333 -0.000318173 -0.0011759
0.0110934 -0.000874839 0.000377305
0.0115552 -0.000133742 -0.00124083
0.0115155 -0.0011551 0.000458928
0.0124638 -0.000305183 -0.00118175
0.0122486 0.000706728 -0.00041746
0.0117804 -0.00101555 0.000459805
0.0126409 0.000503276 -5.23158e-05
0.00977827 0.000134828 -0.00127827
0.0123046 -0.000350308 -0.00112872
0.0118214 -0.000262344 -0.00114441
0.0119256 -0.00114413 0.000440382
0.0126958 -0.00012727 -0.00125342
0.0120766 0.000935971 -0.000388285
0.0124257 -0.00121877 0.000539262
0.0123331 0.000585431 0.000405963
0.0114549 -0.00108091 0.000472663
0.0114098 -0.000179103 -0.00117213
0.0116759 -0.000167673 0.00107915
0.0123984 -0.000316808 -0.00115362
0.0123883 -0.00123223 0.00052152
0.0127206 0.000644641 -8.51618e-05
0.0114933 -0.000195399 -0.00116771
0.0124645 -0.00122423 0.000524024
0.0116429 -0.00022436 -0.0011606
0.0118632 -0.000215872 -0.00119785
0.0154157 0.000352685 0.000615896
0.0119832 -0.00108914 0.000442119
0.0123699 -0.000353195 -0.00111323
0.0123648 -0.000322847 -0.00115735
0.0121078 -0.00117919 0.000499181
0.0122356 -0.000417418 -0.00115263
0.0121274 -0.000327008 -0.00112644
0.0116996 -0.00025608 -0.00113238
0.0114983 -0.00110418 0.000462606
0.0120154 -0.000300063 -0.00113403
0.0120315 -0.000503829 -0.000939348
0.0127596 -0.00010717 -0.00102782
0.0121957 -0.000265425 -0.00118338
0.0119714 0.000860691 0.000430813
0.0126921 0.000387724 -0.000334588
0.0114983 -0.00110199 0.000458584
0.0115964 -0.000164726 -0.00121063
0.0128037 0.00116269 -0.000498982
0.0127479 -0.000590295 -0.000416626
0.01243 -0.00129008 0.000431046
0.0127139 -0.000306246 -0.000823514
0.0123673 -0.000501015 -0.000998988
0.0136159 0.00106997 -0.000509868
0.0122738 -0.000190406 -0.00126983
0.0122288 0.000640465 0.00174365
0.0119115 -0.000285774 -0.00113963
0.0124292 0.000541394 -0.000339921
0.0121369 -0.00117898 0.000500058
0.0129324 0.000164235 -0.00111788
0.0114794 -0.00107816 0.000447276
0.0128792 0.00120733 -0.000636484
0.0120702 0.000878935 -0.000915389
0.0126954 0.000933555 -0.000379084
0.0134361 0.00132126 -0.000550777
0.0126435 -0.00125001 0.000572453
0.0120443 0.000748281 -0.000403861
0.0117773 0.000574436 -0.000422664
0.0116057 -0.00115719 0.00046081
0.0122319 -0.000328373 -0.00113785
0.0127197 -0.000581851 -0.000446296
0.0124545 0.000605655 0.00178489
0.0122429 0.000781948 -0.00112892
0.0126676 0.000486676 -0.000197131
0.0146638 -0.00110889 -0.000615934
0.0127641 -0.000577625 -0.000449729
0.0114791 -0.000138687 1.3132e-05
0.0118811 -0.00107538 0.000521043
0.0126867 0.000666192 0.00176692
0.0122028 -0.00118004 0.000540686
0.0120278 -0.00110286 0.000424424
0.012036 -0.00115216 0.000447808
0.0131633 0.00131192 -0.000372638
0.0126619 -0.00127656 0.000561023
0.0115121 -0.00111462 0.000490373
0.013039 0.000571703 -4.38525e-05
0.0128893 0.000364718 -0.00107935
0.0121502 -0.000153965 -0.00128974
0.013036 0.000472024 -0.000192275
0.0132888 0.000898581 -0.000763348
0.0128766 0.000307047 0.000120837
0.0114773 -0.00114486 0.000471927
0.0108266 -5.45742e-05 -0.00120899
0.016495 0.000178819 0.000678145
0.0117721 -0.000216624 -0.00118857
0.0122946 -0.000325055 -0.00115188
0.0115272 -0.000208563 -0.00115935
0.0123945 0.000289493 7.0801e-05
0.0132864 0.000673073 -0.000274867
0.0132551 0.00084137 -0.000534551
0.0130141 -0.000375502 -0.00122999
0.0120787 -0.000215052 -0.00120861
0.012739 0.000543274 -0.000170401
0.0131417 -0.000651591 -0.000521121
0.0127808 -0.000739015 -0.000515525
0.0126895 -0.000205518 -0.00133509
0.0121385 0.00094182 -0.000467868
0.0122554 0.000255424 -0.00044461
0.0123335 0.000791924 -0.000456658
0.0112543 -0.00015495 -0.00116565
0.0142966 0.000618077 -0.000584991
0.012596 -0.00134988 0.000602038
0.0125849 -0.000338676 -0.00112421
0.0127738 0.000363426 0.000129757
0.0130648 0.000469575 -0.00106181
0.0116023 -0.000257078 -0.00112518
0.0132589 0.000478853 -2.51458e-05
0.0119353 -0.000208769 -0.00120312
0.0173657 -0.0013361 -0.000840643
0.0131643 0.000518699 -0.000549348
0.0131667 0.000620857 -8.34179e-05
0.0122473 0.000914147 -0.00169095
0.0127008 0.00105516 -0.000184064
0.0122807 -0.000301473 -0.0011594
0.0124866 -0.00032964 -0.00110071
0.0121813 0.00074222 -0.000407495
0.013276 0.000404948 -0.000125871
0.0125093 -0.000258006 -0.00120467
0.0124482 0.000965345 -0.000437702
0.018396 -0.000177998 -0.00180228
0.0127707 -0.000295022 -0.00117746
0.01269 0.000668101 -0.000457768
0.0127144 0.000236372 -0.000456723
0.0130046 0.000258386 -0.00036681
0.0121457 0.000856261 -0.000359776
0.0120649 0.000920778 -0.000408362
0.0126567 0.000417304 8.35388e-05
0.012823 0.000628387 -2.35298e-05
0.0130552 0.000530224 -7.78239e-05
0.0123018 0.000715437 -0.000573877
0.0132635 0.00108237 0.000512534
0.012424 0.000693512 -0.000321546
0.0122675 -0.000285334 -0.00117873
0.0127843 0.000915062 0.000500154
0.0112055 -0.000520298 -0.000362405
0.0128834 0.000518685 -5.03023e-05
0.0128646 0.000327395 3.61746e-05
0.0116841 -0.00020115 0.00107756
0.0121574 -0.000433786 -0.000499706
0.0125305 0.000480613 -0.000393799
0.0126227 0.000913492 -0.00113461
0.0122777 -0.00122166 0.000508891
0.0114686 -0.00114621 0.000469138
0.0113496 -0.000614352 0.000424845
0.0121524 0.000735963 -0.0012451
0.0127145 0.000301646 8.2299e-05
0.0122274 0.000966572 -0.00201424
0.0126642 0.000459372 -1.78277e-05
0.0116517 -0.000186935 0.00107403
0.0136167 0.000764754 -0.000269889
0.0125962 0.000838812 0.000490866
0.0116926 -0.000223915 0.00106556
0.0132987 -0.000193023 -0.0013719
0.0127316 -0.00125294 0.000525608
0.0156402 0.000424882 0.000543871
0.0134678 -0.000111587 -0.00025994
0.0133282 0.000963569 0.000487116
0.0124959 -0.000188054 -0.00130011
0.0127437 -0.000581322 -0.00043784
0.0124694 0.000645078 -0.00040355
0.0127206 -0.000594104 -0.000430663
0.0132309 0.000459311 -0.000202237
0.0126167 0.000640533 0.000469324
0.0128844 0.00117765 -0.000467409
0.0127421 -0.000533173 -0.000450876
0.0124879 0.000808517 0.000243805
0.0128002 0.000715052 0.00171412
0.0130408 -0.000221868 -0.00111938
0.0121914 0.00101164 0.000364412
0.012756 -0.000469153 -0.000309245
0.0123931 0.000680822 -0.000771138
0.0116441 0.000887351 0.000317541
0.0127547 -0.000601531 -0.000424274
0.0127683 -0.000545123 -0.000425539
0.0124092 0.000848398 0.000838189
0.0135136 0.0013357 -0.000274317
0.0109464 -0.000168501 -0.000528217
0.0127481 -0.000575645 -0.000452089
0.0113877 0.000782119 0.000352454
0.0117297 -0.000247791 0.0010765
0.0126643 0.000831306 -0.00044385
0.0123566 0.000633699 0.00178143
0.0122612 0.000689057 -0.000376856

VECTORS force float
2.24689e-09 -2.62959e-09 1.73122e-09
-1.83221e-09 1.95784e-09 -7.22546e-10
1.27472e-09 -1.03307e-09 5.95041e-10
-2.15101e-11 -4.38195e-10 -1.00047e-10
2.94915e-09 3.56032e-10 -6.61463e-10
-8.89777e-09 -1.9358e-09 3.64336e-09
-4.61814e-10 1.63218e-09 -5.52743e-10
-3.01373e-09 -6.18951e-10 7.77093e-11
-1.30324e-09 3.16772e-10 -8.12105e-10
3.86514e-10 3.46421e-10 -7.77915e-10
-1.5513e-09 3.01057e-10 -1.82955e-10
9.34683e-10 -9.94961e-10 9.22965e-12
-5.59149e-10 1.74983e-09 -4.61447e-09
-1.26161e-09 2.08226e-09 7.59203e-10
7.75088e-10 -3.85609e-10 -2.53673e-10
2.13282e-08 -1.87938e-08 -5.81846e-10
1.13551e-09 -2.66392e-09 1.36426e-10
-4.45992e-12 -3.77684e-10 1.0546e-09
-1.64418e-10 1.37761e-10 1.90812e-10
-1.60442e-09 1.80965e-10 5.30321e-10
2.17035e-09 5.28182e-10 -2.59623e-10
-1.11907e-09 3.87048e-09 -3.96549e-09
-1.69585e-10 -3.77356e-10 1.91549e-10
-2.18453e-09 -4.0643e-10 -4.12602e-11
-1.80325e-10 8.27817e-11 2.63494e-10
1.40347e-09 8.5422e-11 -3.31018e-10
-1.48159e-09 -1.00851e-10 -2.58307e-09
5.5626e-10 -3.17593e-10 -6.46246e-10
7.01123e-10 -2.3004e-09 1.67992e-09
-1.18249e-09 1.01029e-09 -1.15091e-09
1.1775e-09 -1.73223e-09 1.91919e-09
-1.35736e-09 1.16108e-09 -1.15962e-09
1.54253e-09 1.07454e-09 -8.74507e-10
-5.79023e-10 -1.14427e-10 1.82186e-10
-1.51291e-09 1.45598e-09 2.25647e-10
-2.52395e-10 1.08223e-09 -5.09972e-10
-5.51013e-11 1.85922e-10 -1.40867e-09
4.33243e-10 -9.28935e-10 -9.83002e-10
4.83371e-10 5.31515e-10 -3.78998e-10
-3.44293e-09 -2.28757e-10 1.14605e-09
-1.02968e-09 -1.48323e-10 -2.87428e-09
-1.38992e-09 1.34502e-09 3.69714e-10
-5.67372e-10 -1.11309e-09 9.17594e-10
3.1711e-10 2.56883e-09 6.01902e-09
-1.47455e-10 2.94748e-10 3.83588e-10
-3.66822e-10 9.85255e-10 -4.51166e-11
-1.7368e-09 1.72375e-09 -2.61295e-09
-2.46914e-10 1.4451e-09 -1.22665e-09
1.74643e-10 1.4407e-09 -4.41357e-09
-1.43882e-09 2.38196e-09 -2.38418e-09
2.79901e-10 -3.81525e-11 -7.54433e-10
-1.80305e-10 1.62575e-09 -1.13332e-09
7.61565e-10 1.57069e-09 2.08338e-10
4.59404e-10 -1.48494e-09 1.34234e-09
1.99311e-09 4.03325e-09 -6.23176e-09
-2.42859e-09 9.91197e-10 6.36976e-10
-1.61592e-09 -2.7831e-09 -1.65651e-09
-4.30859e-09 1.69726e-09 -1.32407e-09
-1.9211e-09 -3.6533e-10 -9.11225e-10
-1.01093e-09 1.41114e-09 -5.17065e-09
5.90137e-10 2.8229e-11 5.10108e-10
-2.55115e-09 -4.59207e-10 4.72246e-10
2.59045e-09 -1.29767e-10 -2.74649e-09
-1.0602e-09 -7.0415e-10 2.19447e-10
7.14936e-10 -4.27157e-10 3.73002e-11
6.59967e-10 4.13334e-11 -6.82132e-12
8.57715e-10 1.86829e-09 6.26936e-10
-2.74249e-10 -8.94146e-10 -4.57509e-09
3.35275e-10 1.3377e-09 -5.31818e-09
-1.84792e-09 -6.30115e-11 -1.0554e-09
-2.52051e-10 6.56294e-10 -5.65816e-10
1.60694e-10 -2.17485e-10 1.8508e-10
1.39779e-09 -3.80241e-10 -1.55969e-09
-3.47436e-09 3.38781e-10 -1.33661e-09
1.90197e-09 -8.13945e-10 1.46051e-09
7.82446e-10 7.12833e-10 -6.86996e-11
6.63623e-10 -1.75215e-09 7.80077e-10
8.38671e-10 -5.99416e-09 -1.10277e-08
1.69422e-09 1.57239e-09 -2.00302e-10
-8.25006e-10 -2.44533e-10 -3.12466e-10
-1.28968e-09 5.33431e-09 -3.72151e-09
2.11476e-09 4.88208e-09 -7.94181e-09
-6.57592e-10 4.07646e-10 -4.73331e-10
3.44626e-10 5.74655e-10 -4.66245e-09
4.25465e-09 1.82974e-09 -5.17517e-09
-2.81935e-09 2.06339e-09 -1.66894e-09
5.8382e-10 7.81048e-10 -2.22612e-10
-6.65976e-10 -9.06859e-10 1.15597e-09
-2.29537e-09 -2.09799e-11 -9.58959e-10
-1.02383e-09 3.28941e-10 -1.65071e-10
-4.33731e-11 7.88559e-10 -3.27445e-10
2.92479e-10 -7.5367e-10 4.19956e-10
1.89412e-11 -2.7949e-11 -4.18678e-10
-4.37643e-09 3.87337e-09 -1.37008e-09
1.54027e-09 6.32103e-10 -3.88497e-09
-1.52413e-09 2.7205e-09 -2.45966e-09
-2.29608e-09 -8.28612e-10 8.73528e-10
-7.13325e-09 4.14531e-09 -4.21011e-10
-2.22592e-09 -1.42431e-10 -2.32932e-10
-2.58009e-09 -1.29785e-10 5.53261e-10
-4.25776e-10 -5.3996e-10 -1.19349e-09
-1.86653e-09 -2.985e-10 3.8138e-10
-2.53842e-09 -3.43149e-10 4.40495e-10
1.12815e-08 2.07925e-09 -1.56392e-09
-5.30391e-10 -1.10942e-09 2.44673e-09
1.69996e-11 -5.04877e-11 -5.1512e-09
1.88744e-10 1.68798e-10 -2.30494e-10
-1.73345e-09 1.33546e-09 -5.35432e-10
-3.65616e-09 3.85923e-09 1.02036e-09
3.47941e-09 2.16847e-09 -6.75068e-09
-9.15938e-10 4.89526e-10 -5.33337e-10
-2.18678e-09 2.41135e-09 -1.74731e-09
-1.17151e-09 -5.28175e-10 4.81374e-10
0.0 0.0 -5.1365e-09
5.09355e-10 -5.03193e-10 -3.64339e-10
5.58149e-10 2.01411e-09 6.96433e-10
1.1487e-11 -2.98551e-11 -5.14094e-09
-9.24311e-09 -6.39448e-11 1.27885e-09
3.5257e-10 1.43659e-09 -9.5917e-10
-1.57963e-09 3.7078e-09 -2.05977e-10
-6.53675e-09 -2.57105e-09 4.57346e-09
-9.13295e-10 -1.88249e-09 -4.57477e-09
4.30319e-09 2.19835e-09 -2.37108e-09
-2.5718e-09 -4.06104e-09 4.35312e-09
-1.69996e-11 5.04877e-11 -5.1218e-09
-1.6937e-09 1.85718e-09 -2.36089e-09
-3.42515e-09 7.24453e-10 -3.86013e-09
-2.23624e-09 -2.96943e-10 -2.23322e-10
-1.91077e-09 8.47807e-10 -3.39217e-09
-4.26914e-09 -8.11366e-10 4.25301e-09
8.40787e-10 2.56272e-09 -5.22281e-10
-8.42642e-10 2.88764e-09 1.05468e-09
-1.21683e-08 -2.65234e-09 1.48612e-09
-1.69731e-09 1.54407e-09 -1.90328e-09
2.16838e-09 -3.75782e-10 -1.46131e-09
-3.13981e-09 -2.28093e-10 5.95784e-10
2.82814e-09 5.37088e-10 4.19272e-09
1.04615e-09 8.94256e-10 -7.12976e-10
-1.35708e-09 -2.26546e-10 -2.73834e-09
-4.54241e-10 2.10169e-10 9.74307e-11
-2.18165e-09 2.40854e-09 -1.75769e-09
-2.55362e-09 -8.54226e-10 -8.35773e-10
-1.69565e-11 -2.35179e-10 -1.62399e-10
1.20324e-12 -6.29751e-10 4.81716e-11
-3.68204e-09 -1.61866e-09 2.71433e-09
-7.21888e-12 1.45486e-10 -5.05838e-09
-5.78247e-10 1.43312e-10 1.50382e-09
1.94e-09 9.58528e-13 -1.03212e-11
6.97354e-11 -1.30009e-10 1.83804e-10
-9.5708e-10 -3.18312e-10 -4.4351e-09
-1.091e-09 2.15983e-09 -2.42373e-09
-1.5303e-11 5.81991e-11 -5.10993e-09
3.72422e-10 4.19884e-09 9.30996e-10
-8.26324e-11 -5.62657e-10 6.60469e-10
-2.78223e-09 2.17147e-09 1.0455e-10
-1.13005e-09 3.6048e-13 -2.93149e-09
-4.60568e-11 3.8423e-12 4.67202e-10
7.09909e-11 8.81228e-10 -1.55143e-09
1.66016e-10 -6.58739e-10 1.14222e-09
1.13081e-09 1.99681e-10 2.63518e-10
7.97296e-09 2.23859e-09 1.51537e-10
-1.0352e-10 -6.40168e-09 -3.59554e-10
-1.73364e-09 2.785e-09 -1.54572e-09
8.90262e-10 3.77824e-10 -1.67363e-09
-1.48798e-10 9.84098e-10 -1.74063e-09
2.63831e-10 -1.53812e-10 5.22913e-10
0.0 0.0 -5.1365e-09
-1.05311e-08 6.13976e-09 1.06014e-08
-1.65048e-09 1.75189e-09 -2.51336e-09
6.52884e-10 -7.00898e-10 -8.53467e-10
-9.10664e-09 -9.10195e-09 4.07095e-09
-3.00803e-09 -6.03067e-10 -5.72874e-10
-6.98461e-10 1.86594e-09 -2.48711e-09
-4.03137e-09 -1.70361e-09 8.99312e-11
-2.59059e-10 8.94918e-10 -2.68496e-10
-8.54474e-10 9.51613e-10 -3.30201e-09
2.78352e-11 -7.16735e-11 -5.14193e-09
2.37561e-10 2.09512e-10 -1.52716e-09
1.74202e-10 4.33479e-10 -6.87888e-10
-3.72891e-09 2.29108e-08 -4.95667e-09
2.61177e-09 -3.80145e-09 -3.57493e-09
-4.93546e-10 -8.76299e-10 5.34577e-10
-1.81888e-10 -9.59194e-11 2.73705e-10
8.25016e-10 4.55765e-09 2.15869e-09
4.18685e-10 2.57244e-10 -6.85153e-10
-4.75859e-09 -9.19498e-10 5.33101e-09
-1.52055e-09 5.75077e-10 -6.87372e-10
-2.94648e-09 1.81004e-09 1.86292e-09
