# vtk DataFile Version 3.0
LIGGGHTS particles timestep 3600000
ASCII
DATASET POLYDATA
POINTS 188 float
0.0561806 0.0166806 0.00786138
0.0619114 0.0162566 0.00799978
0.0558828 0.0160958 0.00856007
0.0622814 0.0178387 0.0071439
0.0560283 0.0167505 0.00774835
0.0564981 0.0175934 0.00722163
0.0619314 0.0163277 0.00793234
0.0563215 0.0171791 0.00725856
0.0557221 0.0158923 0.0088102
0.0560645 0.0166021 0.00796484
0.0559786 0.0163483 0.00826203
0.0619722 0.0164849 0.00781561
0.0560621 0.0168816 0.00760203
0.0565415 0.0177886 0.00721726
0.0621449 0.0171969 0.00729336
0.0563892 0.0179181 0.00722084
0.0624109 0.018424 0.00716961
0.0557874 0.0160819 0.00858709
0.0502741 0.0173945 0.00722236
0.0561422 0.0165533 0.00801069
0.0621258 0.0171177 0.0073514
0.0562266 0.0171479 0.00726974
0.0558093 0.0161452 0.00851289
0.0621705 0.0172803 0.00724449
0.0558568 0.0162706 0.00836452
0.0559038 0.0163973 0.00821711
0.0564776 0.0183107 0.0072125
0.0619922 0.0165639 0.00775767
0.0561044 0.0167198 0.00780817
0.0560104 0.0166919 0.00782767
0.06205 0.0168012 0.00758357
0.056085 0.0166614 0.00788697
0.0560441 0.0165396 0.00804032
0.0559548 0.0162851 0.00833639
0.0623246 0.0180338 0.00715244
0.0560236 0.0164758 0.00811457
0.0561989 0.0167445 0.00778662
0.0561706 0.0169537 0.00749053
0.0559691 0.0165751 0.00798462
0.0564335 0.0181146 0.00721543
0.0563597 0.0173643 0.00720605
0.0623677 0.0182289 0.00716103
0.0559078 0.016159 0.0084853
0.0562258 0.0175909 0.0072002
0.0501597 0.0172701 0.00726238
0.0622217 0.017545 0.00713852
0.0562349 0.0168663 0.00763243
0.0562167 0.0168089 0.00771228
0.0562459 0.0172355 0.00722546
0.0562614 0.0166316 0.0079066
0.0500089 0.0166392 0.00769832
0.0560022 0.016411 0.00818779
0.0563788 0.0174623 0.00721072
0.0620884 0.0169598 0.00746797
0.0560769 0.0169239 0.00751267
0.0623462 0.0181314 0.00715674
0.0562063 0.0174928 0.00719999
0.0563242 0.0176254 0.0072128
0.0565803 0.0175366 0.00722068
0.0561499 0.0172036 0.00723804
0.0621827 0.017354 0.00717806
0.0565374 0.0173412 0.0072205
0.056602 0.0176341 0.00721615
0.0622602 0.0177411 0.00713955
0.0561187 0.0164898 0.00808455
0.050199 0.0174534 0.00719282
0.0500449 0.0167713 0.00755253
0.0563674 0.0178205 0.00721976
0.0563388 0.0172644 0.00720239
0.0566801 0.0180138 0.00721064
0.0502187 0.0175451 0.00715804
0.0503025 0.0179181 0.00704406
0.0619518 0.0164059 0.00787349
0.0500629 0.0168373 0.00747964
0.0620688 0.0168804 0.00752547
0.0620116 0.016643 0.00769966
0.0620309 0.0167221 0.00764166
0.0561888 0.0173945 0.00719112
0.0622023 0.0174474 0.00714834
0.0622398 0.0176433 0.0071352
0.0563587 0.0170095 0.00745153
0.0560938 0.0169824 0.00743327
0.0560985 0.0164263 0.00815913
0.0562738 0.0171933 0.00734528
0.0561302 0.0171136 0.00727694
0.0563732 0.0170779 0.00738003
0.062303 0.0179363 0.00714815
0.0557438 0.0159555 0.00873582
0.0565523 0.0182443 0.00721139
0.0558804 0.0163344 0.00829121
0.0561623 0.0166169 0.00793617
0.0558329 0.0162078 0.00843859
0.0563013 0.017098 0.00731352
0.0562323 0.0173994 0.00728101
0.0562057 0.0170715 0.00733075
0.0563111 0.0168262 0.00768382
0.0559483 0.0165167 0.00806308
0.0564335 0.017297 0.00721094
0.0566585 0.0179162 0.00721209
0.0566368 0.0178186 0.00721354
0.0562931 0.0167604 0.00775689
0.0564432 0.0177552 0.00721872
0.0566542 0.0174693 0.00721653
0.0566124 0.0172737 0.0072194
0.0557656 0.0160187 0.00866145
0.0566064 0.0180814 0.00721171
0.0622636 0.0173043 0.00721692
0.0561405 0.0168369 0.00765002
0.0564965 0.0171684 0.00729709
0.0561116 0.0170436 0.00735022
0.0559309 0.016222 0.00841096
0.0564565 0.0170369 0.00743854
0.0559267 0.0164583 0.0081413
0.0567018 0.0181114 0.00720918
0.0561861 0.0170131 0.00740951
0.0562648 0.0169821 0.00747224
0.0564865 0.0179504 0.00721578
0.0562475 0.0176891 0.00720515
0.0559898 0.0166336 0.00790617
0.0561224 0.0167783 0.00772899
0.0564214 0.0176576 0.00722008
0.0563465 0.016951 0.0075317
0.0560436 0.0168091 0.00766848
0.0563999 0.0175601 0.0072154
0.0566281 0.018179 0.00721025
0.0561573 0.0168952 0.00757054
0.0562651 0.0173319 0.00720724
0.0566327 0.0173716 0.00721798
0.0562517 0.0169227 0.00755164
0.0565632 0.0178862 0.00721496
0.0565198 0.017691 0.00721952
0.0564135 0.0172001 0.00722545
0.0565182 0.0172443 0.00723574
0.0564693 0.0170928 0.00735667
0.056284 0.0174299 0.00720094
0.0564205 0.0184699 0.00721229
0.0563034 0.0175278 0.00720612
0.0562417 0.016568 0.0079812
0.0565297 0.0181457 0.00721288
0.0502349 0.0172111 0.00729193
0.0564427 0.0169667 0.00750843
0.0563973 0.0171253 0.00729529
0.0503459 0.01811 0.00700805
0.0502594 0.0177282 0.0070887
0.0564764 0.0174958 0.00722041
0.0565081 0.0180481 0.00721433
0.0621072 0.0170415 0.00741347
0.0623893 0.0183265 0.00716532
0.0622945 0.0174779 0.00712453
0.0563459 0.017723 0.00721512
0.0562812 0.0170405 0.00739282
0.0564648 0.0178528 0.00721723
0.0563811 0.0172704 0.00729278
0.0503132 0.0175774 0.00715294
0.0564269 0.0169005 0.00758165
0.0564559 0.0182131 0.00721395
0.0503242 0.0180141 0.00702605
0.0564066 0.016837 0.00765622
0.0622789 0.0173839 0.0071584
0.0563988 0.0183723 0.00721374
0.0563128 0.0177683 0.00729785
0.0563771 0.0182747 0.0072152
0.0562758 0.0166962 0.0078316
0.0501204 0.0170891 0.00733769
0.0565587 0.0174389 0.00722116
0.0501793 0.0173618 0.0072276
0.0562661 0.017134 0.00742537
0.0562906 0.0178843 0.00721494
0.0565741 0.0171115 0.00732447
0.0502152 0.0171194 0.00732671
0.0562691 0.0177867 0.00720982
0.0500844 0.016908 0.00741226
0.0563294 0.0168893 0.00760847
0.0563554 0.0181771 0.00721786
0.0501009 0.0169954 0.00736659
0.0564553 0.0173981 0.00721587
0.0564108 0.0180156 0.00721705
0.0501401 0.0171784 0.00729716
0.0502384 0.0176368 0.00712327
0.0563121 0.0179818 0.00721938
0.0561702 0.0172964 0.00719795
0.0502809 0.0178222 0.00706206
0.0501955 0.0170275 0.00736158
0.0563338 0.0180795 0.0072184
0.0502545 0.0173028 0.00725715
0.0565847 0.0179838 0.00721316
0.050027 0.0167052 0.00762543
0.0563217 0.0174485 0.00729168

VERTICES 188 376
1 0
1 1
1 2
1 3
1 4
1 5
1 6
1 7
1 8
1 9
1 10
1 11
1 12
1 13
1 14
1 15
1 16
1 17
1 18
1 19
1 20
1 21
1 22
1 23
1 24
1 25
1 26
1 27
1 28
1 29
1 30
1 31
1 32
1 33
1 34
1 35
1 36
1 37
1 38
1 39
1 40
1 41
1 42
1 43
1 44
1 45
1 46
1 47
1 48
1 49
1 50
1 51
1 52
1 53
1 54
1 55
1 56
1 57
1 58
1 59
1 60
1 61
1 62
1 63
1 64
1 65
1 66
1 67
1 68
1 69
1 70
1 71
1 72
1 73
1 74
1 75
1 76
1 77
1 78
1 79
1 80
1 81
1 82
1 83
1 84
1 85
1 86
1 87
1 88
1 89
1 90
1 91
1 92
1 93
1 94
1 95
1 96
1 97
1 98
1 99
1 100
1 101
1 102
1 103
1 104
1 105
1 106
1 107
1 108
1 109
1 110
1 111
1 112
1 113
1 114
1 115
1 116
1 117
1 118
1 119
1 120
1 121
1 122
1 123
1 124
1 125
1 126
1 127
1 128
1 129
1 130
1 131
1 132
1 133
1 134
1 135
1 136
1 137
1 138
1 139
1 140
1 141
1 142
1 143
1 144
1 145
1 146
1 147
1 148
1 149
1 150
1 151
1 152
1 153
1 154
1 155
1 156
1 157
1 158
1 159
1 160
1 161
1 162
1 163
1 164
1 165
1 166
1 167
1 168
1 169
1 170
1 171
1 172
1 173
1 174
1 175
1 176
1 177
1 178
1 179
1 180
1 181
1 182
1 183
1 184
1 185
1 186
1 187

POINT_DATA 188
SCALARS id int 1
LOOKUP_TABLE default
1
2
3
4
5
6
7
8
9
10
11
12
13
14
15
16
17
18
19
20
21
22
23
25
26
27
28
29
30
31
32
33
34
35
36
37
38
39
40
41
42
43
44
45
46
47
48
49
50
51
52
53
54
55
56
57
58
59
60
61
62
63
64
65
66
67
68
69
70
71
72
73
74
75
76
77
78
79
80
81
82
83
84
85
86
87
88
89
90
91
92
93
94
95
96
97
98
99
100
101
102
103
104
105
106
107
108
109
110
111
112
113
114
115
116
117
118
119
120
121
122
123
124
125
126
127
128
129
130
131
132
133
134
135
136
137
138
139
140
141
142
143
144
145
146
147
148
149
150
151
152
153
154
155
156
157
158
159
160
161
162
163
164
165
166
167
168
169
170
171
173
174
175
176
177
178
179
180
181
182
183
184
185
186
187
188
189
190

SCALARS type int 1
LOOKUP_TABLE default
1
1
1
1
1
1
1
1
1
1
1
1
1
1
1
1
1
1
1
1
1
1
1
1
1
1
1
1
1
1
1
1
1
1
1
1
1
1
1
1
1
1
1
1
1
1
1
1
1
1
1
1
1
1
1
1
1
1
1
1
1
1
1
1
1
1
1
1
1
1
1
1
1
1
1
1
1
1
1
1
1
1
1
1
1
1
1
1
1
1
1
1
1
1
1
1
1
1
1
1
1
1
1
1
1
1
1
1
1
1
1
1
1
1
1
1
1
1
1
1
1
1
1
1
1
1
1
1
1
1
1
1
1
1
1
1
1
1
1
1
1
1
1
1
1
1
1
1
1
1
1
1
1
1
1
1
1
1
1
1
1
1
1
1
1
1
1
1
1
1
1
1
1
1
1
1
1
1
1
1
1
1
1
1
1
1
1
1

SCALARS radius float 1
LOOKUP_TABLE default
5e-05
5e-05
5e-05
5e-05
5e-05
5e-05
5e-05
5e-05
5e-05
5e-05
5e-05
5e-05
5e-05
5e-05
5e-05
5e-05
5e-05
5e-05
5e-05
5e-05
5e-05
5e-05
5e-05
5e-05
5e-05
5e-05
5e-05
5e-05
5e-05
5e-05
5e-05
5e-05
5e-05
5e-05
5e-05
5e-05
5e-05
5e-05
5e-05
5e-05
5e-05
5e-05
5e-05
5e-05
5e-05
5e-05
5e-05
5e-05
5e-05
5e-05
5e-05
5e-05
5e-05
5e-05
5e-05
5e-05
5e-05
5e-05
5e-05
5e-05
5e-05
5e-05
5e-05
5e-05
5e-05
5e-05
5e-05
5e-05
5e-05
5e-05
5e-05
5e-05
5e-05
5e-05
5e-05
5e-05
5e-05
5e-05
5e-05
5e-05
5e-05
5e-05
5e-05
5e-05
5e-05
5e-05
5e-05
5e-05
5e-05
5e-05
5e-05
5e-05
5e-05
5e-05
5e-05
5e-05
5e-05
5e-05
5e-05
5e-05
5e-05
5e-05
5e-05
5e-05
5e-05
5e-05
5e-05
5e-05
5e-05
5e-05
5e-05
5e-05
5e-05
5e-05
5e-05
5e-05
5e-05
5e-05
5e-05
5e-05
5e-05
5e-05
5e-05
5e-05
5e-05
5e-05
5e-05
5e-05
5e-05
5e-05
5e-05
5e-05
5e-05
5e-05
5e-05
5e-05
5e-05
5e-05
5e-05
5e-05
5e-05
5e-05
5e-05
5e-05
5e-05
5e-05
5e-05
5e-05
5e-05
5e-05
5e-05
5e-05
5e-05
5e-05
5e-05
5e-05
5e-05
5e-05
5e-05
5e-05
5e-05
5e-05
5e-05
5e-05
5e-05
5e-05
5e-05
5e-05
5e-05
5e-05
5e-05
5e-05
5e-05
5e-05
5e-05
5e-05
5e-05
5e-05
5e-05
5e-05
5e-05
5e-05
5e-05
5e-05
5e-05
5e-05
5e-05
5e-05

SCALARS mass float 1
LOOKUP_TABLE default
5.23599e-10
5.23599e-10
5.23599e-10
5.23599e-10
5.23599e-10
5.23599e-10
5.23599e-10
5.23599e-10
5.23599e-10
5.23599e-10
5.23599e-10
5.23599e-10
5.23599e-10
5.23599e-10
5.23599e-10
5.23599e-10
5.23599e-10
5.23599e-10
5.23599e-10
5.23599e-10
5.23599e-10
5.23599e-10
5.23599e-10
5.23599e-10
5.23599e-10
5.23599e-10
5.23599e-10
5.23599e-10
5.23599e-10
5.23599e-10
5.23599e-10
5.23599e-10
5.23599e-10
5.23599e-10
5.23599e-10
5.23599e-10
5.23599e-10
5.23599e-10
5.23599e-10
5.23599e-10
5.23599e-10
5.23599e-10
5.23599e-10
5.23599e-10
5.23599e-10
5.23599e-10
5.23599e-10
5.23599e-10
5.23599e-10
5.23599e-10
5.23599e-10
5.23599e-10
5.23599e-10
5.23599e-10
5.23599e-10
5.23599e-10
5.23599e-10
5.23599e-10
5.23599e-10
5.23599e-10
5.23599e-10
5.23599e-10
5.23599e-10
5.23599e-10
5.23599e-10
5.23599e-10
5.23599e-10
5.23599e-10
5.23599e-10
5.23599e-10
5.23599e-10
5.23599e-10
5.23599e-10
5.23599e-10
5.23599e-10
5.23599e-10
5.23599e-10
5.23599e-10
5.23599e-10
5.23599e-10
5.23599e-10
5.23599e-10
5.23599e-10
5.23599e-10
5.23599e-10
5.23599e-10
5.23599e-10
5.23599e-10
5.23599e-10
5.23599e-10
5.23599e-10
5.23599e-10
5.23599e-10
5.23599e-10
5.23599e-10
5.23599e-10
5.23599e-10
5.23599e-10
5.23599e-10
5.23599e-10
5.23599e-10
5.23599e-10
5.23599e-10
5.23599e-10
5.23599e-10
5.23599e-10
5.23599e-10
5.23599e-10
5.23599e-10
5.23599e-10
5.23599e-10
5.23599e-10
5.23599e-10
5.23599e-10
5.23599e-10
5.23599e-10
5.23599e-10
5.23599e-10
5.23599e-10
5.23599e-10
5.23599e-10
5.23599e-10
5.23599e-10
5.23599e-10
5.23599e-10
5.23599e-10
5.23599e-10
5.23599e-10
5.23599e-10
5.23599e-10
5.23599e-10
5.23599e-10
5.23599e-10
5.23599e-10
5.23599e-10
5.23599e-10
5.23599e-10
5.23599e-10
5.23599e-10
5.23599e-10
5.23599e-10
5.23599e-10
5.23599e-10
5.23599e-10
5.23599e-10
5.23599e-10
5.23599e-10
5.23599e-10
5.23599e-10
5.23599e-10
5.23599e-10
5.23599e-10
5.23599e-10
5.23599e-10
5.23599e-10
5.23599e-10
5.23599e-10
5.23599e-10
5.23599e-10
5.23599e-10
5.23599e-10
5.23599e-10
5.23599e-10
5.23599e-10
5.23599e-10
5.23599e-10
5.23599e-10
5.23599e-10
5.23599e-10
5.23599e-10
5.23599e-10
5.23599e-10
5.23599e-10
5.23599e-10
5.23599e-10
5.23599e-10
5.23599e-10
5.23599e-10
5.23599e-10
5.23599e-10
5.23599e-10
5.23599e-10
5.23599e-10
5.23599e-10
5.23599e-10
5.23599e-10
5.23599e-10
5.23599e-10

VECTORS velocity float
0.0115719 0.00049272 0.000476404
0.0115829 -0.00102751 -0.000360284
0.0102161 0.002039 -0.00351806
0.012399 -0.000502566 -0.000486918
0.0119321 0.000593467 0.00217682
0.012366 -0.00031114 -0.000258211
0.0115045 -0.000968245 -0.00048078
0.0112626 0.000568718 0.000606506
0.0112342 -0.00138708 0.000325067
0.0137395 0.000109675 -0.00014865
0.0125713 -0.00130378 0.000480246
0.0117833 -0.000150531 0.000373581
0.0113984 0.000966657 4.35091e-05
0.0117293 -0.000236562 -0.00121381
0.011498 -0.000173886 0.000414705
0.0125121 -0.000110198 -0.000413867
0.0121719 -0.000388554 -0.000488583
0.0127082 -0.00213174 0.000448151
0.011503 -0.00026801 0.00104726
0.00695502 0.000234017 9.27382e-05
0.0114432 -0.000130974 0.000403372
0.0119004 0.000219301 0.000900557
0.01303 -0.0022674 0.000320397
0.0115675 -0.000194361 0.00044213
0.0142903 -0.00116828 0.00073938
0.014945 0.000302625 0.00166341
0.0118925 -0.000614334 -0.000315574
0.0115231 -0.000115643 0.000363155
0.0132475 0.00142206 0.00101897
0.0131893 0.00121749 0.000905401
0.0112017 -8.20699e-05 0.000355273
0.0133311 0.00161763 0.000639212
0.0142156 -0.00186874 -0.000589543
0.0149364 -0.00103593 -0.000822094
0.012213 -0.000495324 -0.000465068
0.0126855 -0.00378846 -0.00258508
0.0133747 0.000498136 0.000922872
0.0112614 0.00147446 5.85339e-05
0.0136653 0.00153028 0.00080425
0.012031 -0.000527777 -0.000332685
0.0116297 6.14523e-05 0.00117791
0.0122733 -0.000422959 -0.000491981
0.0144496 0.000976773 -0.00276
0.0126067 -0.000691832 0.00131545
0.0115099 -0.000231202 0.00103045
0.01153 -0.000235935 -7.01942e-05
0.0123718 0.00077945 0.00133538
0.0133289 0.000740992 0.00133328
0.0107726 -0.000108974 -0.000563592
0.0110366 -0.00064168 -0.00024311
0.0109972 -0.0010512 -0.00065813
0.0127367 -0.00427754 -0.0023617
0.0118451 0.00011938 0.0010189
0.0112255 -0.000104113 0.000329394
0.0115428 0.00142428 0.000417489
0.0122123 -0.00044775 -0.000451065
0.0113188 -0.000206303 -0.000149683
0.0123669 0.000416834 0.000922307
0.0128872 0.000377435 -0.000690551
0.011734 -0.00068419 4.75418e-05
0.0116564 -0.000170238 0.000439402
0.0116933 0.000382979 -0.000171472
0.0125962 0.000506966 -0.000263076
0.0120281 -0.000452313 -0.000429286
0.0133435 -0.000739637 -0.0005854
0.0116364 -1.53302e-05 0.000960766
0.0111951 -0.00106901 -0.000672821
0.0124352 6.99364e-05 0.000189702
0.0114562 -0.000553524 -0.000168117
0.0118519 -0.000499882 -0.00025791
0.0118455 0.000180378 0.000874099
0.0126551 -0.000798577 -0.000490482
0.0117977 -0.000171116 0.000373839
0.0113039 -0.00109189 -0.000641369
0.0111938 -9.10479e-05 0.000362004
0.0113449 -9.36248e-05 0.000355783
0.0112426 -7.41671e-05 0.000357502
0.0115278 0.000280115 0.00126057
0.0116113 -0.000221169 0.000280607
0.0116302 -0.000293932 -0.000432812
0.0123063 0.000865196 0.00146917
0.0114368 0.00165392 -4.48452e-05
0.0140715 -0.000934044 -0.000375059
0.0119948 0.00218388 -0.000558394
0.0116291 -0.000178971 -0.00053572
0.0124204 0.00125282 0.00170961
0.0125678 -0.000509066 -0.000582718
0.0120588 0.000598489 -0.00203896
0.0118405 -0.000452935 -0.000271163
0.0141178 -0.000359569 0.00127255
0.00830689 0.000776336 0.00037197
0.0137396 -0.00171801 0.000549558
0.0122448 0.000974372 0.00141883
0.0116689 -0.000893556 0.000961856
0.0111864 0.000683112 0.00120374
0.013065 1.31913e-05 0.000450442
0.0136357 0.00148651 0.000837208
0.0112738 -0.000212338 0.00109566
0.0119513 -0.00049025 -0.000304745
0.0118105 -0.000518095 -0.000270435
0.0133632 -0.000560592 5.9868e-05
0.0118313 -0.000386412 -0.000501215
0.0125889 1.87132e-05 -0.000352867
0.0121663 -1.70514e-05 -0.000268177
0.0117678 -0.00120953 2.9706e-05
0.0118149 -0.000365714 -0.000263017
0.0116386 -0.000179558 0.000441789
0.010652 0.00128893 -0.000102674
0.0121265 0.000377006 0.000167533
0.0116256 0.000863349 0.00142881
0.0164277 0.000904556 -0.00346619
0.012214 0.000682202 0.000902465
0.0147736 0.000844114 0.00126525
0.0118787 -0.000512125 -0.00026354
0.0111242 0.00117899 0.0013526
0.011909 0.000673187 0.00112648
0.0119388 -0.000448632 -0.000306358
0.0123752 0.00042389 0.000788238
0.0135477 0.00124473 0.000866621
0.0102915 0.00146805 0.000178591
0.0120328 -0.000488527 0.000378807
0.0123588 0.000820406 0.00140802
0.0112701 0.00109355 0.000784125
0.0116731 -0.000582288 0.00124646
0.0118783 -0.000484831 -0.00026792
0.0105434 0.00159044 -4.74328e-05
0.0114517 0.000146808 0.00027524
0.0125235 2.42779e-05 -0.000305235
0.0118711 0.000671714 0.00119233
0.0119273 -0.000322741 -0.000904599
0.0118941 -0.000304109 -0.000852376
0.0116028 -0.000542481 -0.000341802
0.0119394 0.000254761 -0.000123986
0.0122861 0.00106173 0.000934702
0.0116927 0.000367974 0.00122202
0.0118991 -0.000623447 -0.000248817
0.0119923 0.000465754 0.00123946
0.0106365 -0.000823996 -0.000162967
0.011965 -0.000511914 -0.000261503
0.011532 -0.000349141 0.00108387
0.0122094 4.75413e-05 0.000298917
0.0117083 0.00105269 0.00129799
0.0126543 -0.000711696 -0.000450099
0.0125737 -0.000419992 0.00119937
0.0119882 -0.000790858 -0.000123659
0.0120077 -0.000504929 -0.00026822
0.0113705 -0.000114679 0.000367347
0.0121102 -0.000403783 -0.000460526
0.0113422 -0.000273107 -0.000404603
0.0124591 0.000283061 0.00066722
0.0120744 0.00111761 0.00141547
0.0118358 -0.000384854 -0.000310621
0.0110214 -0.000563707 9.37054e-05
0.0127197 -0.00107477 0.00137617
0.012509 -0.000840941 -0.000589757
0.0119045 -0.000528201 -0.000294031
0.0126361 -0.00076006 -0.000453466
0.0130383 -0.00123157 -0.000809638
0.0116694 -0.000144328 0.000434365
0.0118945 -0.000757439 -0.000245321
0.012861 0.00020769 0.000810523
0.0118859 -0.000751505 -0.000274148
0.0123124 -0.000457481 -4.7415e-05
0.0114744 -0.000239833 0.0010506
0.0124523 0.000399224 -0.000747251
0.0115363 -0.00014964 0.00100307
0.00965812 0.00181876 -0.000610954
0.0121828 -0.000450286 0.000457991
0.0124138 0.000560747 -0.00212816
0.0115278 -0.000222323 0.00102723
0.0121402 -0.00014656 0.00110668
0.0116632 -0.000697496 -6.18591e-05
0.0124906 0.000571009 0.00101694
0.0120445 -0.000522037 -0.000412047
0.0114976 -0.00018443 0.000947012
0.0112588 -0.000514665 0.00101853
0.0121734 -0.000197062 -0.000974882
0.011451 -0.000267413 0.00104013
0.0128406 0.000123857 0.000908452
0.0120665 -0.00047236 0.000407797
0.0115284 8.66941e-05 -0.000656092
0.0127537 -0.000845616 -0.000434942
0.0115448 -0.000173196 0.00101979
0.0121021 -0.000399267 -0.000595632
0.0114576 -0.00031468 0.00106445
0.0120065 -0.000444262 -0.000302515
0.0111037 -0.00105715 -0.000674458
0.0120093 -0.000195794 0.0010339

VECTORS force float
-1.78439e-09 -1.25972e-09 -4.6868e-09
4.41193e-09 -2.63544e-09 4.11832e-10
-1.2728e-09 2.15633e-09 -2.34003e-09
-5.29226e-09 6.92287e-09 -1.95817e-09
0.0 0.0 -5.1365e-09
1.76063e-09 -1.5127e-10 -1.1579e-09
1.57838e-09 -2.02639e-09 1.16513e-09
-2.29575e-09 9.76875e-09 -1.02556e-08
7.21031e-10 -1.04752e-09 -3.17807e-09
0.0 0.0 -5.1365e-09
0.0 0.0 -5.1365e-09
-8.45175e-10 8.8911e-10 -2.03111e-09
5.67084e-10 2.32146e-10 -1.13274e-09
-2.52495e-10 -3.4592e-09 4.32704e-09
7.07007e-10 -1.52934e-09 3.9101e-10
-6.54254e-10 -5.17209e-10 1.01381e-09
-5.35866e-10 -2.71181e-10 -1.21482e-09
-5.71372e-09 4.25962e-09 -1.2023e-08
1.32227e-09 3.0307e-09 -9.05474e-10
-1.25818e-09 -5.68928e-10 -3.36091e-09
4.03146e-10 1.24174e-10 1.11235e-10
9.18131e-09 -1.14856e-08 6.92226e-09
1.71279e-09 -8.38467e-09 4.86831e-09
7.09454e-10 -2.03482e-09 2.44673e-10
-1.00661e-08 2.4937e-09 2.26481e-09
5.10525e-09 2.69849e-09 -5.81594e-09
4.24045e-09 -6.56159e-09 1.08452e-09
-1.86078e-09 -1.24329e-10 3.63513e-10
1.22097e-08 -1.01965e-08 2.37309e-08
2.27627e-09 -1.41448e-08 1.29612e-09
1.00581e-11 6.0823e-10 -1.15715e-09
-9.49035e-10 1.14728e-09 -4.2791e-09
-1.76072e-08 2.06598e-08 -3.71723e-09
-1.45581e-09 2.70248e-09 -2.78839e-09
2.10472e-09 -1.00444e-09 -1.10103e-09
5.34522e-09 9.15327e-10 4.27299e-10
4.41423e-09 -8.17293e-10 8.67644e-09
1.344e-08 5.61595e-09 4.62883e-09
-6.66809e-09 1.74843e-08 5.1101e-09
4.52455e-10 4.49008e-10 -1.68342e-09
-1.47619e-09 -2.47474e-09 -4.63612e-09
1.30442e-09 9.98196e-10 -2.98963e-09
-1.18927e-09 2.05624e-09 -2.94105e-09
0.0 0.0 -5.1365e-09
6.91298e-10 2.57913e-09 -1.05454e-09
-2.68394e-09 -1.10112e-09 4.18431e-10
1.14067e-10 6.85567e-09 3.36671e-09
-1.37863e-10 -5.76518e-09 4.29317e-09
-2.37113e-08 -4.30032e-09 5.52147e-10
4.10262e-10 -5.48181e-09 8.41814e-10
-9.86894e-10 1.31712e-10 -5.88572e-11
-1.83656e-08 3.59478e-08 2.29505e-08
-9.04118e-09 -5.15453e-09 8.16988e-11
-1.73532e-10 5.00854e-10 -1.06682e-09
2.78736e-09 4.908e-10 -5.72128e-10
-1.77844e-09 -2.35285e-09 6.28668e-10
0.0 0.0 -5.1365e-09
5.85975e-09 2.59532e-09 -4.09067e-09
-2.53064e-09 -4.57187e-09 1.8665e-09
5.53184e-09 1.90817e-09 -4.44483e-09
-1.13445e-09 -7.05534e-10 -5.23934e-11
1.14136e-09 -7.0468e-09 3.27008e-09
1.18467e-09 -2.94092e-09 -1.46986e-09
1.73547e-09 3.17353e-09 -1.82896e-09
1.76072e-08 -2.06598e-08 -6.55578e-09
-2.35122e-09 4.29992e-09 -1.80084e-09
-4.60466e-10 3.49288e-10 1.05865e-09
-9.23475e-10 1.36434e-09 -3.63981e-09
1.32067e-08 1.39227e-08 -1.37121e-08
-1.81007e-09 6.72939e-10 -3.36266e-10
-3.20132e-09 3.9921e-09 -1.59166e-09
-1.81047e-09 7.33725e-10 -1.39994e-09
-2.98674e-09 2.64457e-09 1.58951e-10
-3.21612e-10 -8.66339e-10 2.67446e-10
-2.20603e-11 6.80196e-10 -6.34609e-10
3.15756e-10 -4.05292e-11 5.97958e-10
-1.72421e-10 6.02156e-10 -7.62556e-10
2.97043e-09 -1.56878e-08 1.18664e-09
9.61925e-10 2.61369e-10 9.17841e-10
2.35801e-09 -2.25932e-09 -3.88167e-09
8.98025e-09 1.8973e-09 -1.28571e-09
-1.17975e-08 3.50443e-09 1.12026e-09
0.0 0.0 -5.1365e-09
-5.66551e-10 -3.14073e-09 1.45854e-08
-2.80355e-10 5.53976e-10 -1.16776e-10
6.86125e-09 5.52432e-09 1.67958e-09
8.88181e-10 5.77982e-09 -8.66265e-09
-8.74461e-09 -5.6093e-08 8.1148e-08
-2.35461e-09 1.42444e-10 -1.35756e-10
5.24409e-09 1.21296e-08 -1.22024e-08
1.82033e-09 -3.94014e-10 -5.92993e-09
-4.22385e-09 -1.9063e-08 1.2719e-08
5.21522e-09 -8.47057e-09 -7.63203e-09
0.0 0.0 -5.1365e-09
-4.73606e-09 5.66978e-09 -3.71649e-10
-5.87284e-09 -2.28873e-10 4.41793e-09
-9.35714e-09 -6.11943e-09 -9.79181e-09
-7.12229e-09 1.94539e-09 5.63069e-09
-6.47776e-10 1.34027e-09 -1.05653e-10
-7.57704e-10 1.20844e-09 1.52417e-09
2.26427e-09 -1.6072e-09 2.27095e-09
2.30334e-09 1.87553e-10 -9.34829e-11
2.57275e-09 -2.38523e-09 -2.61491e-10
-1.6743e-09 3.67093e-11 -1.58265e-09
2.43173e-08 4.59566e-08 -6.17727e-08
-5.5191e-10 1.13836e-09 -1.06211e-09
-1.28362e-09 7.17385e-10 -5.1807e-10
-1.21657e-09 -1.42061e-10 -2.47416e-09
-1.39038e-09 9.82375e-10 2.46064e-10
2.18804e-09 -8.11436e-10 -2.88976e-09
0.0 0.0 -5.1365e-09
4.10719e-09 9.37861e-10 -5.59325e-09
-8.68159e-09 7.67364e-10 2.01108e-09
-2.61541e-09 3.10845e-10 3.68292e-10
0.0 0.0 -5.1365e-09
1.10724e-08 4.30305e-11 -1.30986e-08
5.63841e-10 2.51808e-09 -2.75207e-09
2.57641e-09 -7.82656e-10 1.54383e-09
8.17229e-09 -2.17276e-08 -4.65656e-09
-2.70078e-09 3.26056e-09 -2.41813e-09
-2.5747e-09 1.24378e-09 -1.48246e-09
7.22165e-09 -4.1142e-10 8.07668e-10
-5.40756e-09 6.65992e-09 -4.41903e-10
-5.44939e-10 -3.78196e-12 -4.25808e-09
-2.25109e-09 1.42242e-10 -3.55176e-10
1.84917e-09 -3.59828e-09 -6.17272e-09
3.69462e-09 -8.4217e-09 -2.56652e-09
-2.35921e-09 1.2147e-11 -1.27902e-10
-1.73849e-09 5.48933e-09 -4.67479e-09
-2.54591e-09 2.77004e-09 1.13552e-09
5.82734e-10 -3.12362e-09 4.49753e-09
-8.84218e-10 -2.33027e-09 -3.01926e-09
-1.02593e-09 -6.54993e-09 1.95684e-09
2.01803e-09 -1.04952e-09 -4.42438e-09
2.55993e-09 3.87942e-09 -1.00194e-09
4.18598e-09 -1.20019e-09 1.11915e-09
-1.20045e-09 2.21187e-09 -2.24989e-09
-2.76774e-09 -2.87382e-09 -1.21497e-09
2.45298e-09 -2.37216e-09 2.99269e-09
-3.17999e-09 -9.98319e-10 1.67441e-10
6.24572e-09 -5.05524e-09 1.18775e-09
8.01392e-09 9.06407e-09 1.02431e-08
9.05579e-11 -8.07012e-10 -2.32873e-10
2.86537e-11 3.56134e-09 6.53146e-10
-1.74435e-09 5.21522e-09 -3.55631e-09
7.19258e-11 4.48973e-10 -1.35269e-09
6.0914e-10 1.07571e-09 8.09667e-11
2.44275e-09 -1.20988e-09 -1.8739e-09
8.70179e-10 -8.82651e-10 -1.15833e-09
3.17687e-09 5.64644e-09 -1.94059e-09
4.57784e-09 9.53778e-09 -2.37053e-09
3.0518e-09 1.16141e-09 -1.62099e-09
1.34243e-08 1.18187e-09 3.18932e-09
-2.01805e-09 1.44359e-09 -2.0599e-09
-4.47908e-09 -4.73307e-09 2.96489e-09
1.82179e-09 1.31772e-09 -3.76893e-10
5.90572e-10 -1.08853e-09 -8.15339e-10
-1.61239e-09 -6.09111e-09 1.88286e-09
1.05646e-09 -9.91632e-10 -1.89402e-10
-8.06365e-09 1.99123e-09 -8.55949e-10
3.18714e-10 -8.94896e-10 -9.88072e-10
1.75364e-09 -4.00388e-09 4.37509e-09
8.46333e-09 -1.03409e-09 -1.55805e-09
2.15242e-10 -1.53145e-09 2.22363e-09
-2.67896e-09 -5.08705e-09 1.94298e-09
2.01709e-09 4.39465e-09 -1.19477e-09
3.53003e-11 -2.29216e-11 -4.95249e-09
-3.16221e-09 3.55606e-09 5.71084e-11
-1.03297e-09 1.8103e-09 -3.30029e-09
2.97964e-10 -2.10953e-09 5.46858e-10
3.24164e-10 1.54755e-10 1.36871e-09
8.93772e-10 -7.31179e-10 1.5671e-09
5.94166e-10 -9.90849e-09 -2.67151e-09
3.40916e-09 5.63506e-09 1.86772e-09
-1.42086e-09 -2.14737e-09 -6.94502e-11
4.6521e-09 6.27097e-09 3.07493e-10
-1.17632e-09 -6.62079e-10 2.54553e-09
4.81798e-10 7.27009e-11 -5.7876e-11
-6.37424e-09 -4.58793e-10 2.38779e-09
-8.15491e-09 -1.24895e-09 3.8595e-09
-1.72508e-09 1.40222e-09 -1.46068e-09
-3.3817e-11 9.52281e-10 -4.8969e-09
9.54541e-10 -2.93844e-09 5.09278e-10
1.06768e-10 2.32374e-10 -1.07982e-09
-1.59548e-09 1.43928e-09 -6.86364e-10
1.43754e-09 2.99272e-09 -1.63711e-09
-1.23232e-10 3.93506e-10 6.43679e-10
5.73336e-09 3.41337e-10 -1.09892e-09
