# vtk DataFile Version 3.0
LIGGGHTS particles timestep 2200000
ASCII
DATASET POLYDATA
POINTS 188 float
0.0394169 0.0166894 0.00750802
0.0450222 0.015955 0.00819755
0.039157 0.0161095 0.00806204
0.0454136 0.0175637 0.00745033
0.0393075 0.0169847 0.00736336
0.0397314 0.0177254 0.00711227
0.0450406 0.0159919 0.00810636
0.0395778 0.017414 0.00721279
0.038999 0.0159067 0.00831561
0.039322 0.0166625 0.00752411
0.0392398 0.0163512 0.00775429
0.0450788 0.0160836 0.00793409
0.0393481 0.0171652 0.00728867
0.0397699 0.0179116 0.00704998
0.0452667 0.0169078 0.00764587
0.0396574 0.0182216 0.00694403
0.0455823 0.0178722 0.00736508
0.0390615 0.0160879 0.00808487
0.0334118 0.0170697 0.0073956
0.0393771 0.0165147 0.0075967
0.045246 0.0168141 0.00767384
0.0395028 0.0174755 0.00718859
0.0390824 0.0161483 0.00800796
0.0452875 0.0170015 0.00761791
0.0391242 0.0162691 0.00785416
0.0391659 0.0163906 0.00769955
0.0398484 0.0182838 0.00692549
0.0451004 0.0161585 0.00787145
0.0393622 0.0168372 0.00743553
0.0392873 0.0168973 0.00740754
0.0451629 0.0164391 0.00778569
0.0393421 0.0167499 0.00747982
0.0393019 0.0165751 0.00756839
0.0392199 0.0162908 0.00783139
0.0454632 0.0177495 0.00739547
0.0392824 0.0164906 0.00761811
0.0394371 0.0167769 0.00746383
0.0394436 0.0171966 0.00728184
0.0392471 0.0167226 0.00749609
0.0396973 0.0184091 0.00689003
0.0396174 0.0176001 0.00715055
0.0455094 0.017936 0.00734015
0.0391778 0.01617 0.00798513
0.0395247 0.0180021 0.00700879
0.0333568 0.0172184 0.00732756
0.0453498 0.0172827 0.00753403
0.0394777 0.0169535 0.00737941
0.0394574 0.0168647 0.00742064
0.0395226 0.0175685 0.00715749
0.0394724 0.0165426 0.00758003
0.0331937 0.0164991 0.00763729
0.0392609 0.0164158 0.00768092
0.0396368 0.0176934 0.00711934
0.0452044 0.0166266 0.00772976
0.0393685 0.0172581 0.00725764
0.0454865 0.0178427 0.00736784
0.0395055 0.017909 0.00703993
0.0396001 0.0179409 0.00703289
0.0398477 0.0174225 0.007221
0.0394475 0.0176299 0.0071333
0.0453083 0.0170953 0.00758995
0.0397532 0.0173905 0.00722808
0.0398041 0.0176614 0.00713722
0.0453919 0.0174701 0.00747817
0.039356 0.0164334 0.00765436
0.0333965 0.0173984 0.00724999
0.0332344 0.0166789 0.00755986
0.0396385 0.018127 0.0069706
0.0395976 0.0175069 0.00718171
0.0398836 0.0180367 0.00701174
0.0334159 0.0174885 0.00721116
0.0334959 0.0178636 0.00704007
0.0450586 0.0160286 0.00801508
0.0332548 0.0167688 0.00752114
0.0451836 0.0165329 0.00775772
0.0451213 0.0162517 0.00784161
0.0451421 0.0163454 0.00781365
0.0394863 0.017816 0.00707107
0.0453291 0.017189 0.00756199
0.0453707 0.0173765 0.00750608
0.0395991 0.0170801 0.00732823
0.0393884 0.017351 0.00722663
0.0393358 0.016373 0.00773139
0.0394667 0.0171492 0.00739056
0.0394278 0.017537 0.00716439
0.039619 0.017173 0.00729716
0.0454397 0.0176563 0.00742307
0.0390198 0.0159671 0.00823869
0.0399783 0.0180681 0.00700485
0.0391449 0.0163296 0.00777721
0.039397 0.016602 0.00755232
0.0391032 0.0162087 0.00793105
0.0395581 0.017321 0.00724388
0.039227 0.0166352 0.00754038
0.0394831 0.0173825 0.00721967
0.0395378 0.0168102 0.00744427
0.0392069 0.0165478 0.00758469
0.0396781 0.017452 0.00720389
0.0398644 0.0179434 0.00704295
0.0398337 0.017767 0.00710223
0.0395175 0.0167229 0.00748854
0.0396946 0.0179728 0.00702586
0.0398165 0.0173181 0.00725555
0.0397974 0.0170737 0.00733861
0.0390407 0.0160275 0.00816178
0.0398279 0.0181909 0.00695652
0.0452578 0.0164704 0.0077823
0.0394026 0.0170121 0.0073471
0.0397185 0.0171654 0.0073039
0.039408 0.017444 0.00719547
0.039199 0.0162303 0.00790828
0.0396768 0.0169706 0.00736902
0.0391865 0.0164593 0.00762953
0.0399032 0.0181297 0.00698064
0.0394634 0.0172895 0.00725077
0.0395183 0.0171348 0.00730614
0.039733 0.0181591 0.00696351
0.0395439 0.0180951 0.00697765
0.0392672 0.0168099 0.0074518
0.0393824 0.0169246 0.00739124
0.0396754 0.0178797 0.007057
0.0395787 0.0169873 0.00735947
0.0393276 0.0170724 0.00731967
0.0396562 0.0177866 0.00708814
0.0399987 0.018161 0.00697383
0.0394232 0.0171037 0.00731286
0.0395423 0.0176615 0.00712637
0.0398145 0.0171984 0.00729653
0.0394979 0.0170419 0.00733717
0.0397891 0.0180046 0.00701884
0.0397507 0.0178185 0.00708112
0.0396584 0.017359 0.00723498
0.0397381 0.0172584 0.0072728
0.0396977 0.0170663 0.00733705
0.0395616 0.0177547 0.00709518
0.0398703 0.0183819 0.00689272
0.0395809 0.0178478 0.00706403
0.0394526 0.0164574 0.00762855
0.0399236 0.0182225 0.00694962
0.033371 0.0168899 0.00747304
0.0396474 0.0168562 0.00741821
0.0396386 0.017266 0.00726607
0.0335426 0.0180832 0.00692697
0.0334546 0.0176687 0.00713346
0.03971 0.017644 0.00716627
0.0397526 0.0182521 0.00693241
0.0452252 0.0167204 0.0077018
0.0455324 0.0180293 0.00731247
0.0453617 0.0169391 0.00764249
0.0396193 0.018034 0.00700175
0.0395383 0.0172278 0.00727503
0.0397138 0.0180658 0.00699472
0.0395634 0.0172121 0.00737053
0.0334323 0.0171597 0.00735687
0.0396129 0.0167503 0.00747216
0.0397749 0.0183469 0.00690079
0.0335193 0.0179736 0.00698341
0.0395835 0.0165891 0.0075537
0.0453409 0.0168454 0.00767046
0.0397915 0.0184405 0.00686937
0.0395693 0.0180444 0.0070877
0.0397164 0.0185064 0.00687673
0.0394974 0.0166355 0.00753283
0.033316 0.0170386 0.00740499
0.0397774 0.0174889 0.00719533
0.033377 0.0173083 0.00728882
0.0394557 0.0170443 0.00742782
0.0395824 0.0182813 0.00691537
0.0397767 0.0169709 0.00737306
0.0333506 0.0168 0.00751176
0.0395632 0.0181882 0.00694651
0.0332752 0.0168587 0.00748243
0.0395584 0.016898 0.00739971
0.0396408 0.0185711 0.00688623
0.0332956 0.0169486 0.00744371
0.0396978 0.0175449 0.00717279
0.039677 0.0183129 0.0069084
0.0333364 0.0171285 0.00736628
0.0334354 0.0175786 0.00717233
0.0396021 0.0183791 0.00690568
0.0394671 0.0177229 0.0071022
0.0334736 0.0177591 0.00709389
0.0333302 0.01671 0.00755049
0.0396215 0.0184732 0.00687778
0.0333914 0.0169798 0.00743433
0.0398083 0.0180979 0.00698762
0.0332141 0.016589 0.00759858
0.0395682 0.0176496 0.0072222

VERTICES 188 376
1 0
1 1
1 2
1 3
1 4
1 5
1 6
1 7
1 8
1 9
1 10
1 11
1 12
1 13
1 14
1 15
1 16
1 17
1 18
1 19
1 20
1 21
1 22
1 23
1 24
1 25
1 26
1 27
1 28
1 29
1 30
1 31
1 32
1 33
1 34
1 35
1 36
1 37
1 38
1 39
1 40
1 41
1 42
1 43
1 44
1 45
1 46
1 47
1 48
1 49
1 50
1 51
1 52
1 53
1 54
1 55
1 56
1 57
1 58
1 59
1 60
1 61
1 62
1 63
1 64
1 65
1 66
1 67
1 68
1 69
1 70
1 71
1 72
1 73
1 74
1 75
1 76
1 77
1 78
1 79
1 80
1 81
1 82
1 83
1 84
1 85
1 86
1 87
1 88
1 89
1 90
1 91
1 92
1 93
1 94
1 95
1 96
1 97
1 98
1 99
1 100
1 101
1 102
1 103
1 104
1 105
1 106
1 107
1 108
1 109
1 110
1 111
1 112
1 113
1 114
1 115
1 116
1 117
1 118
1 119
1 120
1 121
1 122
1 123
1 124
1 125
1 126
1 127
1 128
1 129
1 130
1 131
1 132
1 133
1 134
1 135
1 136
1 137
1 138
1 139
1 140
1 141
1 142
1 143
1 144
1 145
1 146
1 147
1 148
1 149
1 150
1 151
1 152
1 153
1 154
1 155
1 156
1 157
1 158
1 159
1 160
1 161
1 162
1 163
1 164
1 165
1 166
1 167
1 168
1 169
1 170
1 171
1 172
1 173
1 174
1 175
1 176
1 177
1 178
1 179
1 180
1 181
1 182
1 183
1 184
1 185
1 186
1 187

POINT_DATA 188
SCALARS id int 1
LOOKUP_TABLE default
1
2
3
4
5
6
7
8
9
10
11
12
13
14
15
16
17
18
19
20
21
22
23
25
26
27
28
29
30
31
32
33
34
35
36
37
38
39
40
41
42
43
44
45
46
47
48
49
50
51
52
53
54
55
56
57
58
59
60
61
62
63
64
65
66
67
68
69
70
71
72
73
74
75
76
77
78
79
80
81
82
83
84
85
86
87
88
89
90
91
92
93
94
95
96
97
98
99
100
101
102
103
104
105
106
107
108
109
110
111
112
113
114
115
116
117
118
119
120
121
122
123
124
125
126
127
128
129
130
131
132
133
134
135
136
137
138
139
140
141
142
143
144
145
146
147
148
149
150
151
152
153
154
155
156
157
158
159
160
161
162
163
164
165
166
167
168
169
170
171
173
174
175
176
177
178
179
180
181
182
183
184
185
186
187
188
189
190

SCALARS type int 1
LOOKUP_TABLE default
1
1
1
1
1
1
1
1
1
1
1
1
1
1
1
1
1
1
1
1
1
1
1
1
1
1
1
1
1
1
1
1
1
1
1
1
1
1
1
1
1
1
1
1
1
1
1
1
1
1
1
1
1
1
1
1
1
1
1
1
1
1
1
1
1
1
1
1
1
1
1
1
1
1
1
1
1
1
1
1
1
1
1
1
1
1
1
1
1
1
1
1
1
1
1
1
1
1
1
1
1
1
1
1
1
1
1
1
1
1
1
1
1
1
1
1
1
1
1
1
1
1
1
1
1
1
1
1
1
1
1
1
1
1
1
1
1
1
1
1
1
1
1
1
1
1
1
1
1
1
1
1
1
1
1
1
1
1
1
1
1
1
1
1
1
1
1
1
1
1
1
1
1
1
1
1
1
1
1
1
1
1
1
1
1
1
1
1

SCALARS radius float 1
LOOKUP_TABLE default
5e-05
5e-05
5e-05
5e-05
5e-05
5e-05
5e-05
5e-05
5e-05
5e-05
5e-05
5e-05
5e-05
5e-05
5e-05
5e-05
5e-05
5e-05
5e-05
5e-05
5e-05
5e-05
5e-05
5e-05
5e-05
5e-05
5e-05
5e-05
5e-05
5e-05
5e-05
5e-05
5e-05
5e-05
5e-05
5e-05
5e-05
5e-05
5e-05
5e-05
5e-05
5e-05
5e-05
5e-05
5e-05
5e-05
5e-05
5e-05
5e-05
5e-05
5e-05
5e-05
5e-05
5e-05
5e-05
5e-05
5e-05
5e-05
5e-05
5e-05
5e-05
5e-05
5e-05
5e-05
5e-05
5e-05
5e-05
5e-05
5e-05
5e-05
5e-05
5e-05
5e-05
5e-05
5e-05
5e-05
5e-05
5e-05
5e-05
5e-05
5e-05
5e-05
5e-05
5e-05
5e-05
5e-05
5e-05
5e-05
5e-05
5e-05
5e-05
5e-05
5e-05
5e-05
5e-05
5e-05
5e-05
5e-05
5e-05
5e-05
5e-05
5e-05
5e-05
5e-05
5e-05
5e-05
5e-05
5e-05
5e-05
5e-05
5e-05
5e-05
5e-05
5e-05
5e-05
5e-05
5e-05
5e-05
5e-05
5e-05
5e-05
5e-05
5e-05
5e-05
5e-05
5e-05
5e-05
5e-05
5e-05
5e-05
5e-05
5e-05
5e-05
5e-05
5e-05
5e-05
5e-05
5e-05
5e-05
5e-05
5e-05
5e-05
5e-05
5e-05
5e-05
5e-05
5e-05
5e-05
5e-05
5e-05
5e-05
5e-05
5e-05
5e-05
5e-05
5e-05
5e-05
5e-05
5e-05
5e-05
5e-05
5e-05
5e-05
5e-05
5e-05
5e-05
5e-05
5e-05
5e-05
5e-05
5e-05
5e-05
5e-05
5e-05
5e-05
5e-05
5e-05
5e-05
5e-05
5e-05
5e-05
5e-05
5e-05
5e-05
5e-05
5e-05
5e-05
5e-05

SCALARS mass float 1
LOOKUP_TABLE default
5.23599e-10
5.23599e-10
5.23599e-10
5.23599e-10
5.23599e-10
5.23599e-10
5.23599e-10
5.23599e-10
5.23599e-10
5.23599e-10
5.23599e-10
5.23599e-10
5.23599e-10
5.23599e-10
5.23599e-10
5.23599e-10
5.23599e-10
5.23599e-10
5.23599e-10
5.23599e-10
5.23599e-10
5.23599e-10
5.23599e-10
5.23599e-10
5.23599e-10
5.23599e-10
5.23599e-10
5.23599e-10
5.23599e-10
5.23599e-10
5.23599e-10
5.23599e-10
5.23599e-10
5.23599e-10
5.23599e-10
5.23599e-10
5.23599e-10
5.23599e-10
5.23599e-10
5.23599e-10
5.23599e-10
5.23599e-10
5.23599e-10
5.23599e-10
5.23599e-10
5.23599e-10
5.23599e-10
5.23599e-10
5.23599e-10
5.23599e-10
5.23599e-10
5.23599e-10
5.23599e-10
5.23599e-10
5.23599e-10
5.23599e-10
5.23599e-10
5.23599e-10
5.23599e-10
5.23599e-10
5.23599e-10
5.23599e-10
5.23599e-10
5.23599e-10
5.23599e-10
5.23599e-10
5.23599e-10
5.23599e-10
5.23599e-10
5.23599e-10
5.23599e-10
5.23599e-10
5.23599e-10
5.23599e-10
5.23599e-10
5.23599e-10
5.23599e-10
5.23599e-10
5.23599e-10
5.23599e-10
5.23599e-10
5.23599e-10
5.23599e-10
5.23599e-10
5.23599e-10
5.23599e-10
5.23599e-10
5.23599e-10
5.23599e-10
5.23599e-10
5.23599e-10
5.23599e-10
5.23599e-10
5.23599e-10
5.23599e-10
5.23599e-10
5.23599e-10
5.23599e-10
5.23599e-10
5.23599e-10
5.23599e-10
5.23599e-10
5.23599e-10
5.23599e-10
5.23599e-10
5.23599e-10
5.23599e-10
5.23599e-10
5.23599e-10
5.23599e-10
5.23599e-10
5.23599e-10
5.23599e-10
5.23599e-10
5.23599e-10
5.23599e-10
5.23599e-10
5.23599e-10
5.23599e-10
5.23599e-10
5.23599e-10
5.23599e-10
5.23599e-10
5.23599e-10
5.23599e-10
5.23599e-10
5.23599e-10
5.23599e-10
5.23599e-10
5.23599e-10
5.23599e-10
5.23599e-10
5.23599e-10
5.23599e-10
5.23599e-10
5.23599e-10
5.23599e-10
5.23599e-10
5.23599e-10
5.23599e-10
5.23599e-10
5.23599e-10
5.23599e-10
5.23599e-10
5.23599e-10
5.23599e-10
5.23599e-10
5.23599e-10
5.23599e-10
5.23599e-10
5.23599e-10
5.23599e-10
5.23599e-10
5.23599e-10
5.23599e-10
5.23599e-10
5.23599e-10
5.23599e-10
5.23599e-10
5.23599e-10
5.23599e-10
5.23599e-10
5.23599e-10
5.23599e-10
5.23599e-10
5.23599e-10
5.23599e-10
5.23599e-10
5.23599e-10
5.23599e-10
5.23599e-10
5.23599e-10
5.23599e-10
5.23599e-10
5.23599e-10
5.23599e-10
5.23599e-10
5.23599e-10
5.23599e-10
5.23599e-10
5.23599e-10
5.23599e-10
5.23599e-10
5.23599e-10
5.23599e-10
5.23599e-10
5.23599e-10
5.23599e-10

VECTORS velocity float
0.011693 4.8245e-05 -0.000343842
0.0125208 0.00156363 0.00286113
0.012262 -5.04908e-05 0.000707908
0.0146615 -0.00152018 0.00150317
0.0120048 0.00010149 0.00028745
0.0114049 0.000127837 0.000399581
0.0132597 0.00118762 0.00383619
0.0115124 0.00036664 0.00034284
0.0123585 0.000548723 -5.60956e-05
0.011747 -0.000166742 -0.000265802
0.01362 8.89568e-05 0.000565754
0.0125197 -0.001562 0.00125133
0.0120518 0.000192529 0.000408912
0.0113715 0.000213531 0.000407634
0.0119991 -0.00138461 0.00121074
0.0115661 0.000241932 0.000434968
0.0118104 -0.00114879 0.00117555
0.0127157 0.000721773 -0.000204892
0.0118763 0.00021779 0.000445475
0.0118466 0.000139817 -0.000178022
0.0120832 -0.00140728 0.00119988
0.0115581 0.00034572 0.000353559
0.0127268 0.000890932 -0.000360109
0.0117681 -0.00122429 0.00118185
0.0127729 0.000996816 -0.000639055
0.0127394 -0.000419098 0.00124333
0.0114382 0.000164477 0.000454426
0.0126667 -0.00184215 0.00134391
0.0121192 -0.000137521 -0.000258276
0.011959 -8.92225e-05 -6.16359e-05
0.0122613 -0.00132729 0.00131786
0.0118386 -0.000147978 -0.000231114
0.0116981 -0.000161304 -0.000291677
0.0141458 -2.34818e-05 0.000783744
0.0128518 -0.000914113 0.00116081
0.0118452 -0.000100569 -0.000274234
0.0118104 1.07357e-05 -0.000361886
0.0114748 0.00030152 0.000382534
0.011777 -0.000109856 -0.000254854
0.0114562 0.00022719 -3.28937e-05
0.0113372 0.000320468 0.00035242
0.012593 -0.000774687 0.00109505
0.0123729 0.000373248 0.000178499
0.011536 0.000318824 0.000368864
0.0119258 0.000252192 0.000422944
0.0116782 -0.000667088 0.000992091
0.0120423 0.000219305 0.000277382
0.0119071 0.000105398 -7.45196e-05
0.0115877 0.000313088 0.000366711
0.0118117 0.000163188 -0.000417015
0.0116437 0.000265739 0.000414415
0.0123931 7.86354e-05 5.25718e-05
0.0112897 0.00018967 0.000399058
0.0120979 -0.00148814 0.00129591
0.0115416 0.000316762 0.000354465
0.012345 -0.000760081 0.00107994
0.0115038 0.000351256 0.000355804
0.0114929 0.000267038 0.000381112
0.0113996 0.000429558 0.000322069
0.0116575 0.000308017 0.000371912
0.0117102 -0.000923095 0.00108026
0.0114963 0.000184726 0.000422169
0.0113321 1.04091e-05 0.000431474
0.0134149 -0.00140875 0.00132359
0.0121182 0.000473219 0.000111533
0.0115116 0.000286744 0.000395715
0.0117351 0.000246918 0.000426733
0.0115287 0.000299868 0.000373442
0.011527 0.000287457 0.000371114
0.0114067 0.00023578 0.000409756
0.0115721 0.000311638 0.00038482
0.0119563 0.00224968 -0.00134054
0.0127535 0.00140023 0.00360841
0.0117551 0.000245987 0.000427648
0.012211 -0.00138125 0.00126257
0.0123099 -0.00150545 0.00137431
0.0124741 -0.00151358 0.00100789
0.0114599 0.000359838 0.000347306
0.0117155 -0.000756954 0.00102276
0.0121235 -0.000850019 0.00108593
0.0112839 0.000251328 0.000380863
0.0115137 0.000334938 0.000317426
0.0126588 0.000406888 0.00016091
0.0116048 0.000808809 0.000409262
0.011609 0.00032281 0.000369627
0.0111924 0.000283026 0.000279672
0.0135427 -0.00121652 0.00126686
0.012465 0.000577736 -6.19117e-05
0.0113263 6.23342e-05 0.000466149
0.0130529 0.00106244 -0.000680034
0.0117468 0.000116803 -0.000278078
0.0131024 0.00105838 -0.00046359
0.0113909 0.000377539 0.000349573
0.0116994 -0.00017912 -0.000179743
0.0114981 0.000332236 0.000366032
0.0119248 -1.53103e-05 -0.000296866
0.0117141 2.62564e-06 -0.000348078
0.0114959 0.000251478 0.000391615
0.0113363 0.000116886 0.000424583
0.0113549 9.74305e-05 0.000431965
0.0117956 -5.19558e-05 -0.000313078
0.0114324 0.000250121 0.000384125
0.0115215 0.000121135 0.000423086
0.0115317 0.00465772 -0.00107085
0.0126567 0.000668132 -0.00012301
0.011451 0.000288421 0.000348404
0.0124049 -0.00135144 0.00130293
0.0118545 -0.000518346 -0.0016042
0.0112073 0.000328988 0.000359152
0.0115736 0.000324794 0.000360247
0.013096 9.72813e-05 0.000498194
0.0120628 0.00129468 4.60485e-05
0.011681 0.000266618 -0.000459056
0.0114252 0.00018057 0.000388534
0.0114162 0.000338721 0.000361809
0.0115873 0.000381997 0.000374829
0.0115905 0.000283433 0.000382273
0.0115508 0.000286495 0.000373585
0.0118192 -0.00014903 -0.000204653
0.0120505 -0.000187205 -0.000146347
0.0114538 0.000231789 0.000388782
0.0118866 5.14933e-05 0.000209382
0.0120355 0.000190572 0.000394568
0.0114424 0.000213353 0.00039388
0.0115453 9.52517e-05 0.000467813
0.0120362 0.0001824 0.000381314
0.0113806 0.000366246 0.000337965
0.0113694 0.000381632 0.000336377
0.0120561 0.000234312 0.000364394
0.0113976 0.000215065 0.000389048
0.0114294 0.000177396 0.000414148
0.0113924 0.000320771 0.000371236
0.0113295 0.000303107 0.000372939
0.0116225 0.00182423 -0.000149067
0.0114245 0.000306421 0.00036713
0.0131412 0.00139755 7.04858e-05
0.0114677 0.00028301 0.000378015
0.0118245 0.0003774 9.59886e-05
0.0115041 0.000126189 0.000462229
0.0117905 0.000217909 0.000439668
0.0124248 0.000724665 -0.00065189
0.0113726 0.000337379 0.00034544
0.0121291 0.00216267 -0.00129877
0.0113613 0.000288757 0.000388476
0.011321 0.00019714 0.000376568
0.0115259 0.000180043 0.000384725
0.0120943 -0.00143898 0.00123436
0.0126797 -0.000703889 0.00107697
0.0117622 -0.000570174 0.000978168
0.0114684 0.000268594 0.000378218
0.0113296 0.000346252 0.00035162
0.0114481 0.000258453 0.000370748
0.0115716 0.000565316 0.000302305
0.011927 0.000208388 0.000430717
0.011785 -0.000183859 -0.000225309
0.0115645 0.000240924 0.000380487
0.0120464 0.00222258 -0.0013281
0.0117477 2.82225e-05 -0.000331777
0.012044 -0.000636816 0.000997604
0.0104034 0.000508024 0.000256797
0.01153 0.000292494 0.000359399
0.010828 0.000452952 -0.000126839
0.0117156 -1.82203e-05 -0.000310694
0.01187 0.000263815 0.000421977
0.0113858 0.00038293 0.000352658
0.0114347 0.000395979 0.000340751
0.0099081 0.000345595 -0.000574557
0.0117812 0.000301557 0.000391312
0.0119672 0.00352384 -0.000756181
0.0117624 0.000211498 0.000442973
0.0115872 0.000278976 0.000377933
0.0117956 0.000246872 0.000425692
0.0119362 -0.000316905 -0.000388343
0.0122377 -0.000201026 -0.000795394
0.0118261 0.000257402 0.000428306
0.0113337 0.000266992 0.000358276
0.0114713 0.000162005 0.000396475
0.011888 0.000252446 0.000423965
0.0116497 0.000327567 0.000387181
0.0116764 0.000234694 0.000146382
0.0114039 0.000365735 0.000340693
0.0115383 0.000707969 -0.000544954
0.011732 0.000228404 0.000435117
0.011815 0.000130652 -0.000530557
0.0118257 0.000228356 0.000437269
0.0115245 0.000180092 0.000425557
0.0117059 0.000285579 0.000407336
0.0113952 0.000437156 0.000327912

VECTORS force float
-3.24371e-10 1.84771e-10 -6.009e-10
0.0 0.0 -5.1365e-09
-2.14539e-09 -3.23412e-09 3.86607e-09
-2.91389e-09 5.05466e-09 -1.50105e-09
1.35814e-09 -2.83677e-09 -5.40372e-10
2.35735e-09 3.97979e-10 2.38399e-09
0.0 0.0 -5.1365e-09
-4.17922e-10 9.45858e-11 2.11741e-10
-1.36929e-09 2.0648e-09 -3.53529e-09
-1.98869e-09 -7.0656e-11 -1.22521e-09
4.02067e-10 -2.45565e-09 3.20043e-09
5.72674e-10 -3.66734e-10 -4.8506e-09
1.05993e-09 -2.0085e-09 -2.96216e-09
5.25363e-10 1.08729e-09 -7.66113e-10
7.07216e-10 4.6157e-10 -2.11252e-09
-2.33316e-09 -2.30074e-09 1.31098e-09
-3.00831e-09 1.86328e-09 -2.7997e-10
5.36704e-09 1.06416e-09 1.99433e-09
1.58398e-10 6.35279e-10 -5.32456e-10
-3.22354e-10 4.15336e-10 9.433e-11
-2.80427e-09 -5.56058e-09 2.5309e-10
7.41149e-10 1.63147e-09 4.32981e-10
1.60159e-09 1.47841e-09 -5.18714e-10
8.32364e-09 -1.71161e-11 6.41508e-10
-1.77908e-09 2.47649e-09 -2.91766e-09
-8.31859e-10 1.29096e-09 -9.14649e-10
-1.96713e-09 1.15981e-09 -1.75186e-09
9.07378e-09 -5.87567e-09 -6.84603e-10
-3.25877e-09 7.28315e-10 1.58153e-09
6.05544e-11 -2.0384e-10 9.85568e-10
6.93862e-09 -4.27874e-09 3.21313e-10
1.26828e-09 -2.04272e-10 -1.08862e-10
3.60097e-10 9.78893e-10 1.7458e-09
-5.44167e-10 -3.35679e-09 1.66982e-09
-4.35654e-10 -2.16781e-10 -7.00398e-10
5.79757e-10 1.65139e-09 1.04185e-10
1.64321e-10 -2.63321e-10 5.02737e-10
4.64593e-09 8.59794e-10 -5.8983e-11
-7.80199e-10 -7.79941e-10 5.93487e-10
2.92959e-09 1.13106e-08 -5.51033e-10
-5.3937e-10 -1.33216e-10 2.05731e-10
1.77156e-10 8.22502e-10 4.09457e-10
-3.69499e-09 -1.22513e-09 2.72085e-10
4.09277e-12 7.29651e-10 -4.32218e-10
-9.5701e-10 4.08096e-11 1.35127e-09
-9.55209e-09 -1.92442e-09 1.26216e-09
3.75163e-10 -1.04018e-09 2.3786e-09
1.94283e-09 -7.33573e-10 3.29219e-11
9.33996e-10 2.09677e-09 -4.48691e-10
3.39077e-09 5.37997e-10 -2.0284e-09
6.56387e-10 -3.96443e-10 1.76102e-10
-4.23045e-09 -2.14762e-09 -3.31603e-09
9.35762e-10 -2.33353e-09 1.491e-09
7.60364e-09 -7.55897e-09 5.65041e-09
-7.50796e-10 -2.12096e-09 -9.39708e-10
-1.53972e-09 -1.13863e-09 -5.85072e-12
-2.68546e-10 -2.78444e-11 -1.90238e-10
1.17995e-10 2.81417e-10 4.70961e-10
-1.7731e-10 -1.69088e-09 2.08912e-09
-3.64742e-11 9.19113e-11 3.74815e-10
-2.07996e-09 -3.22407e-10 9.49478e-10
1.06317e-10 -2.16185e-09 1.11467e-09
-3.44254e-11 -8.31857e-10 5.88512e-10
-6.9995e-09 1.00795e-08 -1.62343e-09
2.92802e-09 7.53131e-10 -2.69277e-09
-3.44391e-11 -3.93767e-11 3.19077e-11
-2.15255e-10 3.75216e-10 1.83698e-10
5.49627e-10 -2.33378e-09 1.21669e-09
1.63252e-09 2.82821e-09 -1.19131e-09
1.99725e-09 2.58775e-09 -5.91733e-10
1.20248e-10 -1.75383e-10 1.81353e-10
1.28639e-11 1.31204e-11 -6.91609e-12
0.0 0.0 -5.1365e-09
-5.26535e-10 -5.15463e-10 1.63918e-10
-1.12895e-09 2.74748e-09 -9.51242e-10
8.03333e-09 -5.07571e-09 -5.90912e-10
-4.07764e-10 -8.45675e-10 -4.17252e-09
-1.00369e-09 -1.47166e-10 -1.09414e-10
1.98586e-09 -3.49488e-09 2.04125e-09
9.77502e-09 1.24302e-10 3.77986e-10
-4.22529e-11 -1.6731e-09 -1.48581e-09
-5.57205e-10 -3.39983e-09 1.85491e-10
-4.97751e-09 1.53687e-09 1.16982e-09
3.13594e-11 5.08646e-11 -3.46368e-09
3.59195e-10 -1.0111e-09 4.21256e-10
-9.72223e-10 -4.69523e-10 -2.44414e-09
-2.43493e-09 1.48182e-09 -1.20294e-09
-1.52122e-09 1.69995e-09 -2.92491e-09
-2.36212e-09 1.41021e-09 -1.07815e-09
-7.84716e-10 2.38831e-09 -1.34316e-09
3.23568e-10 8.14345e-10 -1.31043e-09
-3.68226e-09 6.02321e-09 -3.22451e-09
9.15961e-10 -5.58295e-10 -1.11568e-09
9.99022e-10 -1.40855e-09 3.37712e-09
1.38055e-09 3.09023e-09 -1.19236e-09
7.24343e-10 -4.47289e-10 -8.16929e-10
-2.22839e-09 2.14888e-09 -4.13065e-10
1.29843e-10 -1.11641e-09 -3.07162e-10
1.89236e-09 6.85843e-10 6.98546e-10
-5.58942e-10 7.25982e-10 -2.29498e-10
9.37873e-10 -2.76297e-10 5.40586e-10
-2.93822e-10 2.46393e-10 -4.53316e-10
1.20712e-09 -1.223e-09 3.44707e-10
-6.79672e-10 6.5707e-11 -1.35828e-09
-1.85184e-09 -8.5495e-10 -8.84408e-10
-1.82886e-09 -6.50185e-11 -7.96711e-10
2.94702e-09 -3.89634e-09 5.0785e-09
-8.43621e-10 -4.68495e-09 1.17907e-09
-3.16461e-10 -1.47866e-09 -1.13809e-09
-3.05224e-10 -3.1326e-09 1.0009e-09
3.09929e-09 8.66836e-09 -1.44004e-08
7.23458e-10 -2.28618e-09 5.50499e-09
-1.71463e-09 1.74369e-09 -1.70827e-10
-2.19249e-09 1.2869e-09 -1.36211e-09
1.30898e-09 1.29461e-09 -1.23441e-09
2.39424e-09 -3.31292e-10 -6.93758e-10
8.66874e-10 -9.2539e-10 4.66847e-10
-3.86922e-10 -1.21189e-11 -2.92798e-10
1.84527e-09 1.11261e-09 -9.56162e-10
2.29392e-09 -4.30711e-09 1.52452e-09
1.15244e-09 3.36237e-10 -1.15303e-10
2.17578e-10 3.78437e-10 2.33253e-09
-3.04725e-09 -2.35541e-09 2.92865e-10
1.35452e-09 8.05455e-10 -9.49141e-11
-2.72036e-09 1.61896e-09 -4.60954e-10
8.06686e-10 -2.62958e-09 3.62981e-10
-6.41085e-11 -3.84466e-10 1.93939e-10
-4.3086e-10 3.71929e-10 4.17005e-11
-1.38973e-09 -1.29804e-09 5.95949e-10
9.13519e-10 6.5099e-10 -8.64268e-10
2.18493e-09 1.05715e-09 -4.06727e-10
2.63985e-10 1.89717e-10 1.66542e-10
2.13073e-09 1.37924e-10 6.08753e-10
1.31166e-09 -1.29335e-09 3.10217e-10
-5.43257e-10 -1.74391e-09 6.38551e-10
-2.61488e-09 1.3116e-09 -5.32422e-10
2.12163e-10 2.96145e-10 -2.75857e-10
-3.11878e-09 1.53946e-09 1.99143e-09
-2.37377e-09 1.40764e-09 -1.05497e-09
-4.94997e-10 2.35817e-10 -5.80381e-11
-2.04217e-09 1.64417e-09 -5.8596e-10
1.18564e-09 -1.1216e-09 -8.02179e-10
7.8713e-12 8.20374e-12 -4.29217e-12
-3.71482e-10 2.03647e-10 -3.19977e-10
7.20615e-10 -8.80117e-10 1.60627e-09
-2.39984e-09 -9.62703e-10 1.62072e-09
1.2457e-09 -3.58985e-09 1.74495e-09
9.88782e-10 -1.60681e-09 8.23498e-10
-2.68985e-09 1.5435e-09 -7.7751e-10
-3.48134e-10 -1.06227e-09 2.70803e-10
-3.09066e-09 2.20853e-09 1.33283e-09
2.03455e-09 -4.20467e-10 -7.40171e-10
-2.21642e-09 9.85311e-10 4.36257e-09
-4.54533e-11 6.18643e-10 -4.86271e-10
6.24868e-10 3.92107e-10 -5.53666e-10
-3.25505e-09 1.88053e-09 3.78569e-10
7.46603e-12 -3.05522e-12 1.44448e-12
3.12812e-09 -2.75023e-09 1.14963e-09
-3.14373e-09 1.81527e-09 -4.39846e-11
-3.66561e-09 2.02488e-09 1.22371e-09
-4.43375e-10 3.72323e-12 4.51334e-10
9.25546e-10 1.11672e-09 -5.86105e-09
1.29146e-09 -2.82245e-10 -1.06447e-10
2.62345e-10 7.67658e-10 -5.51869e-10
1.08203e-09 -9.20357e-10 5.21849e-12
-2.25171e-09 1.60578e-09 -1.3946e-09
7.34699e-11 5.52948e-11 -4.60498e-09
5.58151e-10 -1.01002e-09 4.98198e-10
-1.63161e-09 2.6227e-10 -7.57628e-12
-3.84993e-10 -3.06364e-10 1.16036e-10
-5.37265e-10 -4.89687e-10 4.31052e-10
-1.78147e-10 -5.60621e-14 1.58513e-11
-5.12129e-09 4.50204e-09 4.96615e-09
-5.58251e-09 -9.02078e-10 7.36878e-09
-1.54013e-10 4.36507e-10 -1.8861e-10
-7.93976e-10 -3.48508e-10 -3.20162e-10
-5.32365e-09 6.57094e-09 6.47505e-09
-3.89527e-10 6.7572e-10 -2.08319e-10
-5.36707e-11 -5.76276e-11 -2.04513e-11
-4.67073e-09 -2.87205e-09 1.12802e-09
-2.12297e-10 -4.82503e-10 3.26015e-10
9.98158e-11 2.2488e-10 -1.09795e-10
2.5731e-10 -7.67928e-10 3.84458e-10
-1.57302e-09 -7.77681e-10 -1.36432e-09
-4.50885e-10 5.53103e-10 -2.10052e-10
2.68791e-09 6.14618e-10 5.48789e-10
-2.42244e-11 -6.23586e-10 4.23116e-10
-3.94279e-10 3.90172e-12 3.8618e-11
