# vtk DataFile Version 3.0
LIGGGHTS particles timestep 3800000
ASCII
DATASET POLYDATA
POINTS 188 float
0.0585783 0.0166711 0.00778569
0.0643176 0.0163209 0.00798725
0.0582999 0.016024 0.00843283
0.0647032 0.0178891 0.00705639
0.0584266 0.016762 0.00769169
0.0589173 0.0176437 0.00718628
0.0643372 0.0164012 0.00793106
0.0587382 0.0172374 0.00724711
0.0581341 0.015795 0.00866076
0.0584648 0.0165778 0.0078778
0.058392 0.0163001 0.00815628
0.0643771 0.0165622 0.00781921
0.058465 0.0169064 0.007559
0.0589598 0.0178391 0.00718196
0.0645576 0.0172737 0.00729864
0.0588104 0.0179721 0.00718098
0.064829 0.0184752 0.00708232
0.0582001 0.0160019 0.0084535
0.0526893 0.0174431 0.00732243
0.0585412 0.0165323 0.00792484
0.0645375 0.0171947 0.00735656
0.058634 0.017202 0.00725196
0.0582252 0.0160703 0.008385
0.064579 0.0173525 0.0072409
0.0582716 0.0162078 0.00824733
0.058316 0.0163455 0.00810931
0.0588956 0.0183632 0.00717233
0.0643972 0.0166417 0.00776207
0.0585026 0.0167165 0.00773875
0.0584079 0.0166927 0.00776124
0.0644573 0.0168787 0.00758828
0.0584837 0.0166472 0.00780827
0.0584468 0.0165084 0.00794744
0.05837 0.0162312 0.00822531
0.0647451 0.0180845 0.00706503
0.0584287 0.016439 0.00801707
0.0585974 0.0167404 0.00771619
0.0585776 0.0169939 0.00746058
0.0583704 0.0165539 0.00790042
0.0588529 0.0181675 0.00717666
0.0587796 0.0174177 0.00719369
0.0647871 0.0182798 0.00707368
0.0583243 0.0160937 0.00836311
0.0586427 0.0176373 0.00718942
0.0525132 0.0171068 0.00747326
0.0646394 0.0176048 0.00709879
0.0586349 0.0168791 0.00757711
0.0586163 0.0168098 0.00764666
0.0586572 0.0172818 0.00719627
0.0586572 0.0166284 0.00782994
0.0523483 0.0163869 0.00778473
0.0584104 0.0163695 0.00808669
0.0588011 0.0175153 0.0071915
0.0644974 0.0170367 0.00747242
0.0584827 0.0169696 0.00748356
0.0647661 0.0181822 0.00706936
0.0586215 0.0175396 0.00719158
0.0587468 0.017679 0.00718745
0.0589947 0.0175804 0.00718669
0.0585576 0.017247 0.00720539
0.0645977 0.0174318 0.00718289
0.0589523 0.0173844 0.00719102
0.0590159 0.017678 0.00718453
0.0646822 0.0177915 0.00705207
0.0585232 0.0164629 0.00799449
0.0525563 0.0172859 0.00739563
0.0523874 0.0165684 0.00770631
0.0587892 0.0178744 0.00718314
0.0587582 0.01732 0.00719441
0.0590975 0.018065 0.007176
0.0525778 0.0173757 0.0073569
0.0526867 0.0178297 0.00716008
0.0643568 0.0164816 0.00787487
0.0524068 0.0166585 0.00766741
0.0644774 0.0169577 0.00753035
0.0644173 0.0167207 0.00770414
0.0644373 0.0167997 0.00764621
0.0586003 0.0174419 0.00719399
0.0646177 0.0175107 0.00712486
0.0646625 0.0176937 0.00705931
0.0587715 0.0170444 0.00741292
0.0585014 0.0170389 0.00741402
0.0585051 0.0163935 0.00806412
0.0586515 0.0173404 0.00727713
0.0585389 0.0171777 0.00727495
0.0587911 0.0171136 0.0073435
0.0647242 0.0179868 0.00706072
0.0581552 0.0158641 0.00859154
0.0589704 0.0182969 0.00717282
0.0582942 0.0162766 0.00817839
0.0585595 0.0166018 0.00785522
0.0582485 0.016139 0.00831619
0.058711 0.0171564 0.00729909
0.0586617 0.0174436 0.00727284
0.0586151 0.0171327 0.00732148
0.0587138 0.0168365 0.00762134
0.0583524 0.0164844 0.00797006
0.0588536 0.0173501 0.00719277
0.0590763 0.0179672 0.00717816
0.059055 0.0178695 0.00718032
0.0586952 0.0167671 0.0076909
0.0588644 0.0178084 0.00718361
0.0590691 0.0175135 0.00718719
0.0590271 0.0173181 0.00719151
0.0581765 0.0159332 0.00852231
0.0590234 0.0181322 0.00717549
0.0646734 0.0173801 0.00722293
0.0585405 0.0168552 0.00759973
0.0589103 0.0172071 0.00725127
0.0585201 0.0171083 0.00734448
0.0583474 0.0161624 0.00829425
0.0588676 0.0170688 0.00738985
0.0583341 0.016415 0.00803968
0.0591187 0.0181627 0.00717384
0.0585964 0.0170633 0.00739103
0.0586728 0.0170179 0.00743816
0.0589068 0.0180038 0.0071793
0.058664 0.017735 0.00718726
0.0583892 0.0166233 0.00783079
0.0585215 0.0167859 0.00766924
0.0588431 0.0177107 0.00718577
0.058752 0.0169751 0.00748234
0.0584454 0.0168314 0.00762214
0.058822 0.017613 0.00718793
0.0590446 0.0182299 0.00717333
0.058559 0.0169246 0.00753014
0.0586831 0.017386 0.00719394
0.059048 0.0174158 0.00718935
0.0586537 0.0169485 0.0075076
0.058981 0.0179368 0.0071798
0.0589386 0.0177414 0.00718412
0.0588314 0.0172525 0.00720428
0.0589304 0.017286 0.0071932
0.058893 0.0171372 0.00732142
0.0587044 0.0174837 0.00719177
0.0588338 0.0185166 0.00716998
0.0587256 0.0175813 0.00718962
0.0586384 0.0165591 0.00789948
0.0589492 0.0181992 0.00717498
0.052639 0.0172307 0.00741444
0.058848 0.0169996 0.00745927
0.0588165 0.017182 0.00727507
0.0527333 0.0180239 0.00707593
0.0526319 0.0176016 0.00725888
0.0588963 0.017546 0.00718844
0.058928 0.0181015 0.00717714
0.0645176 0.0171161 0.00741502
0.0648081 0.0183775 0.007078
0.0647135 0.0175381 0.00710706
0.058768 0.0177767 0.0071853
0.0586919 0.0170871 0.00736858
0.0588856 0.0179061 0.00718146
0.0588129 0.0173174 0.00727809
0.0527365 0.0176649 0.00722667
0.0588284 0.0169303 0.0075287
0.0588743 0.0182654 0.00717449
0.0527099 0.0179266 0.0071181
0.0588091 0.016861 0.00759816
0.0646936 0.0174591 0.00716502
0.0588125 0.0184189 0.00717214
0.0587464 0.0178344 0.00726416
0.0587913 0.0183212 0.0071743
0.0586763 0.0166978 0.00776044
0.0524702 0.0169276 0.0075509
0.0589735 0.0174825 0.00718885
0.0525347 0.0171964 0.00743445
0.0585813 0.0172727 0.00729907
0.0587064 0.0179305 0.00718294
0.0590058 0.0172287 0.00723108
0.052613 0.0171025 0.0074697
0.0586852 0.0178328 0.00718512
0.0524272 0.0167483 0.00762855
0.0587326 0.0169058 0.0075518
0.0587701 0.0182235 0.00717646
0.0524487 0.0168379 0.00758972
0.0588749 0.0174478 0.00719061
0.0588317 0.0180698 0.00717882
0.0524917 0.0170172 0.00751208
0.0526091 0.0175055 0.0073005
0.0587276 0.0180282 0.00718078
0.0585791 0.0173442 0.007196
0.0526628 0.0177301 0.00720321
0.0525764 0.0169667 0.00752876
0.0587489 0.0181259 0.00717862
0.0526748 0.0173483 0.00736308
0.0590022 0.0180345 0.00717765
0.052368 0.0164782 0.00774525
0.0587481 0.0175147 0.00727623

VERTICES 188 376
1 0
1 1
1 2
1 3
1 4
1 5
1 6
1 7
1 8
1 9
1 10
1 11
1 12
1 13
1 14
1 15
1 16
1 17
1 18
1 19
1 20
1 21
1 22
1 23
1 24
1 25
1 26
1 27
1 28
1 29
1 30
1 31
1 32
1 33
1 34
1 35
1 36
1 37
1 38
1 39
1 40
1 41
1 42
1 43
1 44
1 45
1 46
1 47
1 48
1 49
1 50
1 51
1 52
1 53
1 54
1 55
1 56
1 57
1 58
1 59
1 60
1 61
1 62
1 63
1 64
1 65
1 66
1 67
1 68
1 69
1 70
1 71
1 72
1 73
1 74
1 75
1 76
1 77
1 78
1 79
1 80
1 81
1 82
1 83
1 84
1 85
1 86
1 87
1 88
1 89
1 90
1 91
1 92
1 93
1 94
1 95
1 96
1 97
1 98
1 99
1 100
1 101
1 102
1 103
1 104
1 105
1 106
1 107
1 108
1 109
1 110
1 111
1 112
1 113
1 114
1 115
1 116
1 117
1 118
1 119
1 120
1 121
1 122
1 123
1 124
1 125
1 126
1 127
1 128
1 129
1 130
1 131
1 132
1 133
1 134
1 135
1 136
1 137
1 138
1 139
1 140
1 141
1 142
1 143
1 144
1 145
1 146
1 147
1 148
1 149
1 150
1 151
1 152
1 153
1 154
1 155
1 156
1 157
1 158
1 159
1 160
1 161
1 162
1 163
1 164
1 165
1 166
1 167
1 168
1 169
1 170
1 171
1 172
1 173
1 174
1 175
1 176
1 177
1 178
1 179
1 180
1 181
1 182
1 183
1 184
1 185
1 186
1 187

POINT_DATA 188
SCALARS id int 1
LOOKUP_TABLE default
1
2
3
4
5
6
7
8
9
10
11
12
13
14
15
16
17
18
19
20
21
22
23
25
26
27
28
29
30
31
32
33
34
35
36
37
38
39
40
41
42
43
44
45
46
47
48
49
50
51
52
53
54
55
56
57
58
59
60
61
62
63
64
65
66
67
68
69
70
71
72
73
74
75
76
77
78
79
80
81
82
83
84
85
86
87
88
89
90
91
92
93
94
95
96
97
98
99
100
101
102
103
104
105
106
107
108
109
110
111
112
113
114
115
116
117
118
119
120
121
122
123
124
125
126
127
128
129
130
131
132
133
134
135
136
137
138
139
140
141
142
143
144
145
146
147
148
149
150
151
152
153
154
155
156
157
158
159
160
161
162
163
164
165
166
167
168
169
170
171
173
174
175
176
177
178
179
180
181
182
183
184
185
186
187
188
189
190

SCALARS type int 1
LOOKUP_TABLE default
1
1
1
1
1
1
1
1
1
1
1
1
1
1
1
1
1
1
1
1
1
1
1
1
1
1
1
1
1
1
1
1
1
1
1
1
1
1
1
1
1
1
1
1
1
1
1
1
1
1
1
1
1
1
1
1
1
1
1
1
1
1
1
1
1
1
1
1
1
1
1
1
1
1
1
1
1
1
1
1
1
1
1
1
1
1
1
1
1
1
1
1
1
1
1
1
1
1
1
1
1
1
1
1
1
1
1
1
1
1
1
1
1
1
1
1
1
1
1
1
1
1
1
1
1
1
1
1
1
1
1
1
1
1
1
1
1
1
1
1
1
1
1
1
1
1
1
1
1
1
1
1
1
1
1
1
1
1
1
1
1
1
1
1
1
1
1
1
1
1
1
1
1
1
1
1
1
1
1
1
1
1
1
1
1
1
1
1

SCALARS radius float 1
LOOKUP_TABLE default
5e-05
5e-05
5e-05
5e-05
5e-05
5e-05
5e-05
5e-05
5e-05
5e-05
5e-05
5e-05
5e-05
5e-05
5e-05
5e-05
5e-05
5e-05
5e-05
5e-05
5e-05
5e-05
5e-05
5e-05
5e-05
5e-05
5e-05
5e-05
5e-05
5e-05
5e-05
5e-05
5e-05
5e-05
5e-05
5e-05
5e-05
5e-05
5e-05
5e-05
5e-05
5e-05
5e-05
5e-05
5e-05
5e-05
5e-05
5e-05
5e-05
5e-05
5e-05
5e-05
5e-05
5e-05
5e-05
5e-05
5e-05
5e-05
5e-05
5e-05
5e-05
5e-05
5e-05
5e-05
5e-05
5e-05
5e-05
5e-05
5e-05
5e-05
5e-05
5e-05
5e-05
5e-05
5e-05
5e-05
5e-05
5e-05
5e-05
5e-05
5e-05
5e-05
5e-05
5e-05
5e-05
5e-05
5e-05
5e-05
5e-05
5e-05
5e-05
5e-05
5e-05
5e-05
5e-05
5e-05
5e-05
5e-05
5e-05
5e-05
5e-05
5e-05
5e-05
5e-05
5e-05
5e-05
5e-05
5e-05
5e-05
5e-05
5e-05
5e-05
5e-05
5e-05
5e-05
5e-05
5e-05
5e-05
5e-05
5e-05
5e-05
5e-05
5e-05
5e-05
5e-05
5e-05
5e-05
5e-05
5e-05
5e-05
5e-05
5e-05
5e-05
5e-05
5e-05
5e-05
5e-05
5e-05
5e-05
5e-05
5e-05
5e-05
5e-05
5e-05
5e-05
5e-05
5e-05
5e-05
5e-05
5e-05
5e-05
5e-05
5e-05
5e-05
5e-05
5e-05
5e-05
5e-05
5e-05
5e-05
5e-05
5e-05
5e-05
5e-05
5e-05
5e-05
5e-05
5e-05
5e-05
5e-05
5e-05
5e-05
5e-05
5e-05
5e-05
5e-05
5e-05
5e-05
5e-05
5e-05
5e-05
5e-05
5e-05
5e-05
5e-05
5e-05
5e-05
5e-05

SCALARS mass float 1
LOOKUP_TABLE default
5.23599e-10
5.23599e-10
5.23599e-10
5.23599e-10
5.23599e-10
5.23599e-10
5.23599e-10
5.23599e-10
5.23599e-10
5.23599e-10
5.23599e-10
5.23599e-10
5.23599e-10
5.23599e-10
5.23599e-10
5.23599e-10
5.23599e-10
5.23599e-10
5.23599e-10
5.23599e-10
5.23599e-10
5.23599e-10
5.23599e-10
5.23599e-10
5.23599e-10
5.23599e-10
5.23599e-10
5.23599e-10
5.23599e-10
5.23599e-10
5.23599e-10
5.23599e-10
5.23599e-10
5.23599e-10
5.23599e-10
5.23599e-10
5.23599e-10
5.23599e-10
5.23599e-10
5.23599e-10
5.23599e-10
5.23599e-10
5.23599e-10
5.23599e-10
5.23599e-10
5.23599e-10
5.23599e-10
5.23599e-10
5.23599e-10
5.23599e-10
5.23599e-10
5.23599e-10
5.23599e-10
5.23599e-10
5.23599e-10
5.23599e-10
5.23599e-10
5.23599e-10
5.23599e-10
5.23599e-10
5.23599e-10
5.23599e-10
5.23599e-10
5.23599e-10
5.23599e-10
5.23599e-10
5.23599e-10
5.23599e-10
5.23599e-10
5.23599e-10
5.23599e-10
5.23599e-10
5.23599e-10
5.23599e-10
5.23599e-10
5.23599e-10
5.23599e-10
5.23599e-10
5.23599e-10
5.23599e-10
5.23599e-10
5.23599e-10
5.23599e-10
5.23599e-10
5.23599e-10
5.23599e-10
5.23599e-10
5.23599e-10
5.23599e-10
5.23599e-10
5.23599e-10
5.23599e-10
5.23599e-10
5.23599e-10
5.23599e-10
5.23599e-10
5.23599e-10
5.23599e-10
5.23599e-10
5.23599e-10
5.23599e-10
5.23599e-10
5.23599e-10
5.23599e-10
5.23599e-10
5.23599e-10
5.23599e-10
5.23599e-10
5.23599e-10
5.23599e-10
5.23599e-10
5.23599e-10
5.23599e-10
5.23599e-10
5.23599e-10
5.23599e-10
5.23599e-10
5.23599e-10
5.23599e-10
5.23599e-10
5.23599e-10
5.23599e-10
5.23599e-10
5.23599e-10
5.23599e-10
5.23599e-10
5.23599e-10
5.23599e-10
5.23599e-10
5.23599e-10
5.23599e-10
5.23599e-10
5.23599e-10
5.23599e-10
5.23599e-10
5.23599e-10
5.23599e-10
5.23599e-10
5.23599e-10
5.23599e-10
5.23599e-10
5.23599e-10
5.23599e-10
5.23599e-10
5.23599e-10
5.23599e-10
5.23599e-10
5.23599e-10
5.23599e-10
5.23599e-10
5.23599e-10
5.23599e-10
5.23599e-10
5.23599e-10
5.23599e-10
5.23599e-10
5.23599e-10
5.23599e-10
5.23599e-10
5.23599e-10
5.23599e-10
5.23599e-10
5.23599e-10
5.23599e-10
5.23599e-10
5.23599e-10
5.23599e-10
5.23599e-10
5.23599e-10
5.23599e-10
5.23599e-10
5.23599e-10
5.23599e-10
5.23599e-10
5.23599e-10
5.23599e-10
5.23599e-10
5.23599e-10
5.23599e-10
5.23599e-10
5.23599e-10
5.23599e-10
5.23599e-10
5.23599e-10
5.23599e-10
5.23599e-10
5.23599e-10
5.23599e-10

VECTORS velocity float
0.0117445 0.000450211 -0.000274629
0.0111267 -8.30933e-05 -0.000164576
0.0152938 0.00158557 -0.00124637
0.0127421 -0.000539401 -0.000495748
0.0120144 0.000521713 -0.000351788
0.0125221 0.000290982 -0.000142431
0.0111323 -5.93226e-05 -0.000189188
0.0125414 0.00036697 -0.00017412
0.0117931 -0.000140673 0.000321208
0.0116835 0.000374819 -0.000169983
0.011551 0.00043244 -0.000239706
0.0115474 -0.000238708 5.54536e-05
0.0121585 0.000386055 -0.000234796
0.0124122 0.00033096 -0.00013703
0.0125476 -7.94877e-05 0.000360029
0.0124697 0.000346441 -0.000135115
0.0124524 -0.000289048 -0.00051887
0.0146764 0.000792222 -0.000219966
0.016176 0.00354109 -0.00235388
0.0114003 0.000493855 -0.00030755
0.0123876 -8.2449e-05 0.000381104
0.0128578 0.000369587 -0.000127109
0.0131941 -7.85476e-06 0.000171455
0.0126506 -8.83349e-05 0.000399873
0.0129069 0.00012986 8.57283e-05
0.0107923 0.000565121 -0.000391181
0.0122491 0.00054169 -0.000145626
0.0116523 -9.47232e-05 0.000355108
0.0119549 0.000402045 -0.000212383
0.0119048 0.000570045 -0.000384088
0.01201 -5.60165e-06 0.000327179
0.0118041 0.000379909 -0.00018532
0.0114094 0.000400779 -0.000210463
0.0129836 0.000236829 7.91756e-06
0.0126386 -0.000520088 -0.000507741
0.0110332 0.000452287 -0.000272585
0.0120263 0.000424222 -0.000230551
0.0122793 0.000254566 -4.99229e-05
0.0116025 0.000438945 -0.000229603
0.0123797 0.00049349 -0.000146642
0.0124908 0.000331067 -0.000166642
0.0125577 -0.00042555 -0.000556162
0.0132167 6.97472e-05 0.000140186
0.0127314 0.000294958 -0.00016287
0.012845 -0.000494625 -0.000460972
0.0128298 -0.000269976 0.000127777
0.012099 0.000403176 -0.000197268
0.0121066 0.000410289 -0.000206902
0.0128505 0.000444437 -0.000101103
0.0116556 0.00035855 -0.000171468
0.0122652 0.00328518 -0.00203703
0.0110219 0.000466368 -0.000284926
0.012479 0.000312246 -0.000166138
0.0121775 -0.000106417 0.000376399
0.0124246 0.000395661 -0.000257356
0.0126106 -0.000475469 -0.000533714
0.0127792 0.000345272 -0.00016276
0.0126402 0.000326214 -0.000145711
0.0125058 0.000289883 -0.000140761
0.0129358 0.000344334 -0.00017002
0.0127174 -8.77324e-05 0.000453752
0.0124842 0.000241746 -0.000147652
0.012445 0.000294194 -0.000143045
0.0128561 -0.000539395 -0.000461018
0.0110769 0.000516554 -0.000335531
0.0122362 0.000487353 -0.000549903
0.0116252 0.0012034 -0.00115347
0.01256 0.000327741 -0.000124393
0.0127602 0.000288773 -0.000172603
0.012231 0.00040416 -0.000137883
0.0114984 -0.00119752 -0.0011454
0.0128353 0.000801986 -0.00102359
0.0110503 -0.000142668 -0.000152653
0.0116866 0.00121111 -0.00109743
0.0121254 -4.70655e-05 0.000357305
0.0117189 -4.24673e-05 0.000380327
0.0118166 -3.31626e-05 0.000331301
0.0128535 0.000386636 -0.000226834
0.0128379 -0.000139423 0.000434761
0.0127996 -0.000496231 -0.000287954
0.0120769 0.000311927 -0.000132193
0.0125231 0.000427247 -0.000279349
0.0105286 0.000565981 -0.000393427
0.0128575 0.000247783 -0.000270268
0.0129275 0.000330508 -0.000210672
0.0121811 0.000299299 -0.000103054
0.012646 -0.000542652 -0.000523591
0.0120786 0.000561251 -0.00037379
0.0121712 0.000487087 -0.000148514
0.0129011 0.000128798 8.85672e-05
0.0115151 0.000488431 -0.000299476
0.0131434 5.65406e-05 0.000122982
0.0122631 0.000417004 -0.000235574
0.0128227 0.000192921 -0.000183204
0.0128501 0.000319261 -5.85103e-05
0.0120455 0.000349595 -0.000143746
0.0114095 0.0004006 -0.000224764
0.0127816 0.000322117 -0.000154025
0.0123337 0.000497567 -0.000143654
0.0123862 0.000445889 -0.000146256
0.0120503 0.000323217 -0.000143788
0.0125532 0.000345701 -0.000145084
0.0124875 0.000274702 -0.000142781
0.0124511 0.000224608 -0.000156797
0.0126151 0.00060639 -0.000310153
0.0121247 0.000359272 -0.000138651
0.0126986 -0.000170903 0.000497822
0.0120875 0.000365492 -0.000205975
0.0123741 0.000259601 -4.8211e-05
0.0127605 0.000377334 -0.000264771
0.0130347 0.000159416 8.28049e-05
0.0122078 0.000318222 -0.000117995
0.0110129 0.000463915 -0.000295096
0.0121101 0.000393907 -0.000140059
0.0125281 0.000289258 -2.89088e-05
0.0120204 0.000413762 -0.000267514
0.0123978 0.00043186 -0.000141618
0.0127157 2.67074e-06 -0.000174729
0.0117777 0.000473074 -0.000280712
0.0120625 0.00040755 -0.000200258
0.0126064 0.000315803 -0.000141666
0.0120803 0.000318147 -0.000158779
0.0121057 0.000476554 -0.000307872
0.0125736 0.000303867 -0.000144294
0.0120174 0.000387573 -0.000140032
0.0122191 0.000301736 -0.000136906
0.012821 0.000361786 -0.000220124
0.012455 0.000258313 -0.000140714
0.0120954 0.000402413 -0.000231436
0.0123185 0.000353473 -0.000145125
0.0124932 0.000303625 -0.000147377
0.0127456 0.00022249 1.75559e-05
0.0125957 0.000100106 -0.000139112
0.0123279 0.000258073 -6.1434e-05
0.0127881 0.000343879 -0.000144471
0.0122424 0.000512669 -0.000156976
0.0127225 0.000326076 -0.000140651
0.0114069 0.000395814 -0.000216026
0.0122454 0.000479307 -0.000141441
0.0155327 0.00378857 -0.00242867
0.012093 0.000331219 -0.000153746
0.0123829 0.000262703 -7.51826e-05
0.0129562 0.000939607 -0.00108791
0.0127799 0.0010018 -0.00110463
0.0124849 0.000293776 -0.000138108
0.0123305 0.000466417 -0.000143233
0.0122204 -9.15957e-05 0.00037309
0.0125127 -0.000356193 -0.000542704
0.0127383 -0.0002687 0.000516384
0.012625 0.000317962 -0.000140465
0.0120287 0.000437309 -0.000260757
0.0124777 0.00038833 -0.000142895
0.012771 0.000368381 -0.000130802
0.0193174 0.000973574 -0.00134462
0.0120279 0.000319937 -0.000153954
0.0123045 0.000507747 -0.000144571
0.0128894 0.000844647 -0.00104441
0.012039 0.000316837 -0.000125057
0.0125416 -0.000225901 0.000479614
0.0122936 0.000543861 -0.000140311
0.0125786 0.000268267 -9.01288e-05
0.0123293 0.000515517 -0.000146277
0.0119216 0.000310976 -0.000122921
0.0124941 0.00102896 -0.00110887
0.0124605 0.000279821 -0.00014251
0.0125867 -0.000664283 -0.000376587
0.0127399 0.000338001 -0.000257137
0.0125219 0.000266398 -8.72046e-05
0.012368 0.000281241 -5.05346e-05
0.0127368 0.00593097 -0.00316107
0.0125929 0.000248989 -0.000114827
0.0123598 0.00106411 -0.00108705
0.0120422 0.000343039 -0.000159734
0.0123858 0.000446681 -0.000143069
0.0124462 0.0010623 -0.00110954
0.0125089 0.000320564 -0.000156277
0.0123976 0.000368548 -0.000139609
0.0125705 0.000815024 -0.00102408
0.0118865 -7.23765e-05 -0.000600491
0.0124656 0.000302099 -0.000127551
0.012887 0.000365264 -0.000134481
0.0120404 -0.000480351 -0.000525737
0.0125652 0.00102662 -0.00110303
0.0124266 0.000360856 -0.000137616
0.0187631 0.00569232 -0.00465416
0.0122211 0.000351962 -0.000145089
0.0111184 0.00151848 -0.00126082
0.0126083 0.000418292 -6.58047e-05

VECTORS force float
-3.6141e-10 -6.37867e-10 3.83354e-10
1.04878e-09 -1.74246e-10 -2.57554e-10
-1.31203e-09 1.74062e-09 -3.25653e-09
2.01601e-09 -5.34201e-10 -1.85044e-09
8.93739e-10 -1.51701e-09 4.7618e-10
1.04775e-09 -4.98152e-10 3.71009e-10
8.19001e-10 7.23172e-10 -1.63686e-10
3.42257e-10 5.92101e-11 2.90207e-10
-2.23692e-09 3.12057e-09 -2.10515e-09
6.14481e-10 4.52619e-10 -4.41892e-10
1.96419e-09 8.47967e-10 -2.38617e-09
-1.81114e-09 1.79604e-09 2.66013e-09
6.03996e-10 -9.22002e-10 -9.17003e-10
8.61978e-10 -1.48174e-10 -5.07206e-11
-1.313e-09 -6.42541e-10 9.66563e-10
6.86485e-10 -3.07518e-11 -1.82815e-10
-3.18464e-10 -9.03953e-10 -1.66825e-09
0.0 0.0 -5.1365e-09
-2.02594e-09 1.23917e-09 -4.14801e-10
-1.81356e-09 8.89708e-10 -5.30497e-10
-8.55769e-10 -2.19689e-09 8.99119e-10
-2.17386e-09 -9.2331e-10 -9.86643e-10
-1.81317e-09 6.20345e-10 1.03125e-09
1.35512e-10 1.30513e-09 4.67186e-10
-4.10285e-10 2.25123e-09 -1.51335e-09
-3.18988e-09 7.16604e-10 -9.57791e-11
-3.92063e-10 6.54133e-11 3.18424e-10
2.74755e-09 -1.3296e-10 9.95467e-10
-2.42069e-10 5.1834e-11 1.02376e-10
-1.1704e-09 -1.06182e-09 1.0379e-09
-2.14716e-09 1.54003e-09 7.79928e-10
-6.43086e-10 4.65403e-10 -3.67353e-10
-1.44596e-09 -5.83681e-10 7.25558e-10
-1.35594e-09 4.4341e-11 -9.85124e-10
-1.34691e-09 -9.57617e-11 -2.01564e-10
-1.36463e-09 1.34644e-10 -4.29935e-10
7.43697e-11 3.4935e-10 1.71485e-10
8.86954e-10 2.95204e-09 -4.106e-09
1.05985e-09 7.65462e-10 -5.02022e-10
-5.01699e-10 -4.79791e-11 -4.51452e-11
-3.69685e-10 2.28753e-10 -1.19032e-09
-1.46463e-09 3.33755e-09 -6.2643e-10
-3.24847e-09 1.38008e-09 -1.27529e-09
1.4216e-09 7.93813e-09 4.53497e-10
-3.89375e-08 -6.31349e-08 2.66982e-08
-1.6417e-09 1.26664e-10 3.0585e-10
-1.1752e-09 -8.45272e-10 -3.67097e-10
-4.17746e-10 -1.29712e-10 -1.81923e-10
-2.39809e-09 1.45852e-09 -3.98794e-10
1.6195e-09 -5.33132e-10 6.31178e-10
4.27091e-11 1.6902e-10 -7.38191e-11
2.24449e-10 9.87174e-10 -1.5084e-09
5.49431e-10 7.09702e-11 -1.00842e-10
2.50273e-10 7.46351e-10 -1.34611e-10
-1.42929e-10 1.1923e-10 -2.13783e-11
-1.94109e-09 1.418e-09 1.49038e-09
-2.21259e-09 -4.94801e-09 1.57118e-10
2.03381e-09 -5.85622e-10 1.55242e-11
1.42721e-09 -5.56179e-10 -2.29998e-10
8.55081e-10 -7.71084e-10 1.48999e-09
-1.10748e-09 9.48278e-10 -1.70108e-09
1.20889e-09 2.06483e-10 -7.56227e-10
5.76855e-10 3.83652e-10 -2.45694e-11
2.00654e-09 1.67553e-09 -3.99716e-09
-1.74688e-09 1.52236e-09 -1.60203e-09
-9.28836e-09 7.52371e-09 1.46715e-08
3.06365e-09 -2.0125e-09 7.38561e-10
6.63812e-10 3.64262e-10 -1.47584e-10
-2.29914e-09 4.60047e-12 2.45938e-10
-6.61476e-10 8.03411e-10 -2.90091e-10
0.0 0.0 -5.1365e-09
7.4499e-12 1.65002e-11 -7.34389e-12
5.81724e-10 -3.96267e-09 1.62448e-09
2.86585e-09 -1.78865e-09 -4.49308e-10
2.35126e-09 3.40997e-09 -4.97777e-10
6.48579e-10 -1.32734e-09 -2.5186e-10
-1.53285e-09 -2.15777e-10 -3.18236e-10
-7.11331e-11 -2.09777e-09 6.59354e-10
-2.06965e-09 -4.67128e-10 -3.23704e-09
5.20964e-10 1.89675e-09 5.71144e-10
2.50453e-10 6.8153e-10 -4.01957e-10
-1.41015e-09 -7.65516e-10 1.45593e-09
-1.71568e-09 1.70152e-09 -1.8209e-09
7.93994e-11 2.2951e-10 -1.29384e-09
3.84931e-11 -9.62472e-10 3.5455e-09
9.64336e-10 7.89955e-10 -8.88181e-10
4.89966e-10 -1.06962e-09 -1.31442e-10
-4.72293e-10 6.34979e-10 -4.47087e-09
2.24082e-11 7.33129e-10 1.38107e-10
7.83784e-10 -1.41154e-09 -1.16501e-09
-5.55248e-10 9.16871e-11 1.80219e-10
-7.81202e-10 2.68975e-09 -4.74963e-10
3.7073e-10 -1.00917e-09 -1.8272e-10
-2.41607e-09 3.61501e-10 -1.50161e-10
-4.66704e-10 4.03404e-10 8.34669e-14
-5.97868e-10 -8.81617e-11 5.28869e-10
1.94359e-10 1.13285e-09 -6.67861e-10
-1.21883e-09 3.55471e-10 -1.56491e-10
-1.13611e-09 1.41786e-09 -2.09485e-10
-8.07357e-10 4.47718e-10 1.25668e-10
-2.23488e-09 -1.5796e-10 6.78869e-10
5.39337e-10 1.05484e-10 2.70017e-11
1.1367e-09 -1.26433e-09 1.24847e-10
5.83428e-10 -1.36632e-09 -5.11625e-10
-2.01297e-09 2.70939e-09 -2.30322e-09
-9.84116e-10 -2.67232e-10 -1.13829e-10
-1.3163e-09 -3.47916e-10 3.37635e-10
5.83795e-10 -3.82226e-11 2.1132e-10
-4.67309e-10 4.21707e-10 -1.43434e-09
-2.91086e-09 -3.11759e-09 2.53255e-09
7.86776e-10 5.34163e-10 -8.45424e-11
6.50209e-10 -4.89277e-10 1.00664e-10
-1.62737e-09 -4.24413e-10 1.42921e-09
-1.15296e-09 1.38414e-09 1.03953e-10
9.70207e-10 1.65283e-09 -1.97407e-09
-5.09944e-10 3.75376e-10 8.88556e-10
1.0483e-09 7.62241e-11 9.70395e-11
9.39972e-10 -1.55054e-09 -2.4102e-09
1.46816e-09 -1.41282e-10 2.29612e-09
2.30241e-09 -1.71583e-09 8.86947e-10
1.73691e-09 -2.57744e-10 2.50498e-10
4.40913e-10 -3.36345e-10 -4.09736e-10
1.51823e-09 -3.41847e-09 1.33222e-09
2.07432e-09 -5.07264e-10 -3.17623e-10
-2.15389e-09 5.43742e-10 -6.80369e-11
-6.44778e-10 2.38633e-09 -2.64259e-09
-2.12106e-10 3.28472e-10 5.57743e-10
5.80213e-10 -1.14733e-09 -2.27179e-10
-6.18771e-10 1.40286e-10 6.02686e-11
-7.68922e-10 5.93725e-10 4.59951e-10
8.68835e-10 -4.84269e-10 -2.66404e-10
-1.37319e-09 5.56863e-10 -6.49126e-11
-3.73762e-10 -6.63373e-11 1.67106e-10
-1.46621e-10 -1.2408e-09 1.44473e-09
2.87553e-09 -2.50751e-10 7.82183e-10
3.99933e-11 1.5138e-10 -1.80866e-10
2.91186e-09 -1.58027e-10 1.93626e-10
-2.82923e-09 -5.92918e-10 4.98488e-10
-2.24264e-10 4.10837e-10 -1.49358e-10
-8.08303e-10 5.16987e-10 -3.28386e-09
6.12552e-10 -4.18643e-10 -6.94458e-10
7.72046e-10 4.02627e-10 -4.57719e-10
2.11093e-12 1.00413e-11 -4.33184e-12
1.07853e-11 1.1166e-11 -5.27106e-12
4.08096e-10 -2.98347e-10 -2.79058e-10
3.69721e-11 5.29153e-10 -2.95872e-11
-1.03492e-09 -1.09635e-09 1.53362e-09
-1.2735e-09 1.88781e-09 -1.48477e-09
-1.46599e-09 8.53853e-10 5.31054e-11
5.15993e-10 2.16423e-11 2.97907e-10
4.79395e-11 8.09198e-11 8.25584e-10
1.70293e-09 5.61727e-11 -1.73229e-10
-8.73163e-10 6.08566e-10 -1.01504e-09
-5.25758e-10 6.93471e-10 -4.04017e-09
-2.11412e-10 2.78647e-10 -1.29847e-09
-9.39993e-11 3.23174e-10 -2.42596e-10
5.10782e-12 1.46684e-11 -6.44251e-12
6.10178e-10 4.85258e-10 -7.87605e-10
1.42534e-09 1.2949e-09 -2.19999e-10
-7.81936e-10 -6.56318e-10 -1.85543e-10
6.70373e-10 -4.96392e-11 -3.32111e-11
-3.62034e-10 -1.07468e-09 1.9723e-10
8.04997e-10 3.28646e-10 -4.04706e-10
-1.80271e-09 -8.76692e-10 6.22813e-10
2.64259e-10 -2.04488e-11 2.12821e-10
2.06635e-08 1.038e-07 -4.90523e-08
2.12805e-09 -3.37547e-10 2.5691e-09
3.25961e-10 7.62524e-10 -5.29996e-10
-1.21442e-09 -4.69323e-10 -6.68977e-10
8.28404e-09 -5.81424e-09 2.32961e-09
2.4807e-10 1.13475e-09 -1.24945e-11
1.73403e-09 -1.59887e-09 3.34799e-10
7.73442e-11 -4.07371e-10 2.88886e-10
1.2023e-11 -8.12082e-10 -2.97711e-11
9.85102e-11 -2.60454e-10 5.00402e-10
1.61109e-10 3.70856e-10 -2.16195e-10
9.1749e-10 -7.05841e-10 -1.29577e-10
4.54948e-09 -2.45252e-08 9.18443e-09
-2.09242e-09 1.80449e-09 -7.33826e-10
1.27789e-10 5.35399e-10 -3.18877e-10
5.94882e-10 -1.56894e-09 -2.7217e-10
0.0 0.0 -5.1365e-09
4.71637e-10 -3.83494e-09 1.26255e-09
3.60124e-10 -7.83584e-11 -2.92314e-10
0.0 0.0 -5.1365e-09
-8.32299e-10 -1.21598e-10 -9.68249e-11
-1.64574e-09 7.62104e-10 -8.25809e-10
2.50963e-09 -1.39248e-10 5.28228e-10
