# vtk DataFile Version 3.0
LIGGGHTS particles timestep 600000
ASCII
DATASET POLYDATA
POINTS 188 float
0.0204414 0.0177212 0.00709742
0.0260092 0.016621 0.00761663
0.0201805 0.0169684 0.00738164
0.0264009 0.0183443 0.00702292
0.0203359 0.0180464 0.00704056
0.020736 0.0185714 0.00696694
0.0260286 0.0166995 0.00755776
0.0206217 0.0184958 0.00697671
0.0200269 0.0166755 0.00752528
0.0203457 0.0176922 0.00709883
0.0202607 0.0173214 0.00721172
0.0260674 0.0168564 0.00744002
0.0203811 0.0182472 0.00700929
0.0207782 0.0187643 0.00693514
0.0262493 0.0176733 0.00715245
0.020823 0.0191638 0.0068681
0.0264964 0.0183734 0.00701456
0.0200858 0.0169406 0.00739775
0.0169755 0.0186317 0.00698364
0.020398 0.0175289 0.0071305
0.026227 0.0175776 0.00717095
0.0205444 0.0185717 0.00696162
0.0201054 0.0170289 0.00735524
0.0262705 0.0177692 0.00713395
0.0201447 0.0172056 0.00727022
0.0201857 0.017382 0.00718533
0.0210361 0.0186926 0.00695448
0.0260877 0.0169348 0.00738127
0.0203899 0.017886 0.00706868
0.0203142 0.01795 0.00705558
0.0261451 0.0171939 0.0072488
0.0203682 0.0177896 0.0070837
0.0203239 0.0175957 0.00711386
0.0202405 0.0172332 0.00725419
0.0264443 0.0185359 0.00698591
0.0203019 0.017499 0.00712892
0.0204642 0.0178174 0.00708248
0.0204798 0.0182812 0.00700717
0.0202707 0.0177571 0.00708561
0.0207027 0.0193198 0.00683813
0.0206453 0.0186123 0.00695745
0.0264942 0.0187684 0.00694112
0.0202001 0.0170567 0.00733913
0.0205701 0.0191544 0.00686276
0.0160449 0.0225917 0.00954352
0.0263357 0.0180568 0.00707843
0.0204988 0.0180116 0.00705193
0.020488 0.0179134 0.00706761
0.0205651 0.0186707 0.00694526
0.0204944 0.0175599 0.00712566
0.0144368 0.0184935 0.00695294
0.0202807 0.0174097 0.00716923
0.0206666 0.0187116 0.00694107
0.0261842 0.0173858 0.00720796
0.0204028 0.0183437 0.00699427
0.026466 0.0186318 0.00696741
0.0205448 0.0190215 0.00689828
0.0206275 0.019074 0.00687808
0.0207701 0.0178955 0.00708036
0.0204856 0.0187301 0.00693293
0.0262922 0.0178651 0.00711544
0.020732 0.0182011 0.00702905
0.0208284 0.0181755 0.0070366
0.0263791 0.0182484 0.00704143
0.0203765 0.0174342 0.00715465
0.0168262 0.0196161 0.00717788
0.0147295 0.0199045 0.00712417
0.0206825 0.0191565 0.00686549
0.0207191 0.0184742 0.00698309
0.0208421 0.0186183 0.00696184
0.0176456 0.0207975 0.00746338
0.0183515 0.0238654 0.0122256
0.026048 0.016778 0.00749889
0.0163636 0.0183117 0.0069242
0.0261642 0.0172897 0.00722698
0.0261061 0.0170112 0.00731945
0.0261257 0.017101 0.00728005
0.0205267 0.0189232 0.00690107
0.0263139 0.0179609 0.00709694
0.0263574 0.0181526 0.00705993
0.0206594 0.018131 0.00703798
0.0204245 0.0184401 0.00697925
0.0203566 0.0173459 0.00719714
0.0204102 0.0177779 0.00717368
0.0204666 0.0186333 0.00694896
0.0207558 0.0181054 0.00704554
0.0264226 0.0184401 0.00700442
0.0200465 0.0167638 0.00748277
0.0210034 0.0184716 0.00699135
0.0201652 0.0172938 0.00722777
0.0204195 0.0176248 0.00711243
0.020125 0.0171173 0.00731273
0.020599 0.0183996 0.00699195
0.020249 0.0176607 0.00710089
0.0205239 0.0184749 0.00697702
0.0205626 0.0178483 0.00708086
0.0202273 0.0175644 0.00711673
0.0207979 0.018414 0.00699555
0.0208217 0.0185211 0.00697789
0.0209922 0.0183736 0.00700779
0.0205448 0.017751 0.00709615
0.0207966 0.0188613 0.00691908
0.0207636 0.017797 0.00709625
0.020711 0.0176321 0.00712139
0.0200661 0.0168522 0.00744026
0.0208841 0.018814 0.00692955
0.0262004 0.0170364 0.00729604
0.0204363 0.0180883 0.00703721
0.020697 0.0180207 0.00705734
0.0204462 0.0185366 0.00696423
0.0202202 0.017145 0.00729665
0.0206588 0.0178218 0.00708853
0.0202056 0.0174703 0.00714282
0.0210083 0.0185785 0.00697321
0.0205015 0.0183776 0.00699215
0.020595 0.0182062 0.00702345
0.0208788 0.0189381 0.00690821
0.0206251 0.0192369 0.00685017
0.0202924 0.0178535 0.0070706
0.0204057 0.0179844 0.0070764
0.0207119 0.0189133 0.00690785
0.0206018 0.01805 0.00704922
0.0203594 0.0181508 0.00702431
0.020691 0.018812 0.00692458
0.0209215 0.0185277 0.0069795
0.020458 0.0181847 0.00702219
0.0205846 0.0187675 0.00692926
0.0207982 0.0175844 0.00713222
0.0205374 0.0181251 0.0070347
0.0208645 0.0187149 0.00694594
0.0207561 0.018668 0.00695098
0.0206964 0.018378 0.00699887
0.0207968 0.0180153 0.00706169
0.0206747 0.0179244 0.00707232
0.0206062 0.0188639 0.00691339
0.0210907 0.01852 0.00698548
0.0206302 0.0189697 0.00689597
0.0204716 0.017462 0.00714088
0.0209376 0.0186479 0.00695942
0.0165861 0.0183965 0.00695407
0.0206911 0.0177287 0.0071049
0.0206747 0.0182816 0.00701389
0.0189167 0.024117 0.0132851
0.0193381 0.02385 0.0115571
0.0206678 0.018559 0.007039
0.0209724 0.0187682 0.0069398
0.0262053 0.0174817 0.00718945
0.0265291 0.0189435 0.00690747
0.0263453 0.0177036 0.00714384
0.0207255 0.0190551 0.00688401
0.0205773 0.0183032 0.00700697
0.0208336 0.0190658 0.00688513
0.0205194 0.0178181 0.00716586
0.0171629 0.0189619 0.00705667
0.0206161 0.0176624 0.00711312
0.0212484 0.0187029 0.00695861
0.0185098 0.0217869 0.0149461
0.0205943 0.0175576 0.00712951
0.0263225 0.017606 0.00716271
0.0211011 0.018618 0.00696901
0.0205648 0.019105 0.00694955
0.0208618 0.0192603 0.00685268
0.0205163 0.0176563 0.00711064
0.016827 0.0186194 0.00700301
0.0207731 0.0183151 0.00701175
0.0172858 0.0195597 0.00734606
0.0203502 0.0175087 0.007216
0.0207561 0.0192368 0.00685379
0.0206915 0.0175351 0.00713657
0.016319 0.0181883 0.00690894
0.0206037 0.0193331 0.00683314
0.0164606 0.0183808 0.00694496
0.0205794 0.0179537 0.0070642
0.0208009 0.0193383 0.00683769
0.0152293 0.0200222 0.00713681
0.0208973 0.0184043 0.00699993
0.0209593 0.0188801 0.00692033
0.016388 0.019276 0.00704149
0.0185358 0.0231228 0.00997153
0.020683 0.0194263 0.00683794
0.0205051 0.0188269 0.00691693
0.0195995 0.0238545 0.0115619
0.0160786 0.0182002 0.00691125
0.0208341 0.0194326 0.00683683
0.0199555 0.0238615 0.011572
0.0207876 0.0189781 0.00689886
0.0158877 0.0182053 0.00691256
0.0205692 0.018461 0.00706506

VERTICES 188 376
1 0
1 1
1 2
1 3
1 4
1 5
1 6
1 7
1 8
1 9
1 10
1 11
1 12
1 13
1 14
1 15
1 16
1 17
1 18
1 19
1 20
1 21
1 22
1 23
1 24
1 25
1 26
1 27
1 28
1 29
1 30
1 31
1 32
1 33
1 34
1 35
1 36
1 37
1 38
1 39
1 40
1 41
1 42
1 43
1 44
1 45
1 46
1 47
1 48
1 49
1 50
1 51
1 52
1 53
1 54
1 55
1 56
1 57
1 58
1 59
1 60
1 61
1 62
1 63
1 64
1 65
1 66
1 67
1 68
1 69
1 70
1 71
1 72
1 73
1 74
1 75
1 76
1 77
1 78
1 79
1 80
1 81
1 82
1 83
1 84
1 85
1 86
1 87
1 88
1 89
1 90
1 91
1 92
1 93
1 94
1 95
1 96
1 97
1 98
1 99
1 100
1 101
1 102
1 103
1 104
1 105
1 106
1 107
1 108
1 109
1 110
1 111
1 112
1 113
1 114
1 115
1 116
1 117
1 118
1 119
1 120
1 121
1 122
1 123
1 124
1 125
1 126
1 127
1 128
1 129
1 130
1 131
1 132
1 133
1 134
1 135
1 136
1 137
1 138
1 139
1 140
1 141
1 142
1 143
1 144
1 145
1 146
1 147
1 148
1 149
1 150
1 151
1 152
1 153
1 154
1 155
1 156
1 157
1 158
1 159
1 160
1 161
1 162
1 163
1 164
1 165
1 166
1 167
1 168
1 169
1 170
1 171
1 172
1 173
1 174
1 175
1 176
1 177
1 178
1 179
1 180
1 181
1 182
1 183
1 184
1 185
1 186
1 187

POINT_DATA 188
SCALARS id int 1
LOOKUP_TABLE default
1
2
3
4
5
6
7
8
9
10
11
12
13
14
15
16
17
18
19
20
21
22
23
25
26
27
28
29
30
31
32
33
34
35
36
37
38
39
40
41
42
43
44
45
46
47
48
49
50
51
52
53
54
55
56
57
58
59
60
61
62
63
64
65
66
67
68
69
70
71
72
73
74
75
76
77
78
79
80
81
82
83
84
85
86
87
88
89
90
91
92
93
94
95
96
97
98
99
100
101
102
103
104
105
106
107
108
109
110
111
112
113
114
115
116
117
118
119
120
121
122
123
124
125
126
127
128
129
130
131
132
133
134
135
136
137
138
139
140
141
142
143
144
145
146
147
148
149
150
151
152
153
154
155
156
157
158
159
160
161
162
163
164
165
166
167
168
169
170
171
173
174
175
176
177
178
179
180
181
182
183
184
185
186
187
188
189
190

SCALARS type int 1
LOOKUP_TABLE default
1
1
1
1
1
1
1
1
1
1
1
1
1
1
1
1
1
1
1
1
1
1
1
1
1
1
1
1
1
1
1
1
1
1
1
1
1
1
1
1
1
1
1
1
1
1
1
1
1
1
1
1
1
1
1
1
1
1
1
1
1
1
1
1
1
1
1
1
1
1
1
1
1
1
1
1
1
1
1
1
1
1
1
1
1
1
1
1
1
1
1
1
1
1
1
1
1
1
1
1
1
1
1
1
1
1
1
1
1
1
1
1
1
1
1
1
1
1
1
1
1
1
1
1
1
1
1
1
1
1
1
1
1
1
1
1
1
1
1
1
1
1
1
1
1
1
1
1
1
1
1
1
1
1
1
1
1
1
1
1
1
1
1
1
1
1
1
1
1
1
1
1
1
1
1
1
1
1
1
1
1
1
1
1
1
1
1
1

SCALARS radius float 1
LOOKUP_TABLE default
5e-05
5e-05
5e-05
5e-05
5e-05
5e-05
5e-05
5e-05
5e-05
5e-05
5e-05
5e-05
5e-05
5e-05
5e-05
5e-05
5e-05
5e-05
5e-05
5e-05
5e-05
5e-05
5e-05
5e-05
5e-05
5e-05
5e-05
5e-05
5e-05
5e-05
5e-05
5e-05
5e-05
5e-05
5e-05
5e-05
5e-05
5e-05
5e-05
5e-05
5e-05
5e-05
5e-05
5e-05
5e-05
5e-05
5e-05
5e-05
5e-05
5e-05
5e-05
5e-05
5e-05
5e-05
5e-05
5e-05
5e-05
5e-05
5e-05
5e-05
5e-05
5e-05
5e-05
5e-05
5e-05
5e-05
5e-05
5e-05
5e-05
5e-05
5e-05
5e-05
5e-05
5e-05
5e-05
5e-05
5e-05
5e-05
5e-05
5e-05
5e-05
5e-05
5e-05
5e-05
5e-05
5e-05
5e-05
5e-05
5e-05
5e-05
5e-05
5e-05
5e-05
5e-05
5e-05
5e-05
5e-05
5e-05
5e-05
5e-05
5e-05
5e-05
5e-05
5e-05
5e-05
5e-05
5e-05
5e-05
5e-05
5e-05
5e-05
5e-05
5e-05
5e-05
5e-05
5e-05
5e-05
5e-05
5e-05
5e-05
5e-05
5e-05
5e-05
5e-05
5e-05
5e-05
5e-05
5e-05
5e-05
5e-05
5e-05
5e-05
5e-05
5e-05
5e-05
5e-05
5e-05
5e-05
5e-05
5e-05
5e-05
5e-05
5e-05
5e-05
5e-05
5e-05
5e-05
5e-05
5e-05
5e-05
5e-05
5e-05
5e-05
5e-05
5e-05
5e-05
5e-05
5e-05
5e-05
5e-05
5e-05
5e-05
5e-05
5e-05
5e-05
5e-05
5e-05
5e-05
5e-05
5e-05
5e-05
5e-05
5e-05
5e-05
5e-05
5e-05
5e-05
5e-05
5e-05
5e-05
5e-05
5e-05
5e-05
5e-05
5e-05
5e-05
5e-05
5e-05

SCALARS mass float 1
LOOKUP_TABLE default
5.23599e-10
5.23599e-10
5.23599e-10
5.23599e-10
5.23599e-10
5.23599e-10
5.23599e-10
5.23599e-10
5.23599e-10
5.23599e-10
5.23599e-10
5.23599e-10
5.23599e-10
5.23599e-10
5.23599e-10
5.23599e-10
5.23599e-10
5.23599e-10
5.23599e-10
5.23599e-10
5.23599e-10
5.23599e-10
5.23599e-10
5.23599e-10
5.23599e-10
5.23599e-10
5.23599e-10
5.23599e-10
5.23599e-10
5.23599e-10
5.23599e-10
5.23599e-10
5.23599e-10
5.23599e-10
5.23599e-10
5.23599e-10
5.23599e-10
5.23599e-10
5.23599e-10
5.23599e-10
5.23599e-10
5.23599e-10
5.23599e-10
5.23599e-10
5.23599e-10
5.23599e-10
5.23599e-10
5.23599e-10
5.23599e-10
5.23599e-10
5.23599e-10
5.23599e-10
5.23599e-10
5.23599e-10
5.23599e-10
5.23599e-10
5.23599e-10
5.23599e-10
5.23599e-10
5.23599e-10
5.23599e-10
5.23599e-10
5.23599e-10
5.23599e-10
5.23599e-10
5.23599e-10
5.23599e-10
5.23599e-10
5.23599e-10
5.23599e-10
5.23599e-10
5.23599e-10
5.23599e-10
5.23599e-10
5.23599e-10
5.23599e-10
5.23599e-10
5.23599e-10
5.23599e-10
5.23599e-10
5.23599e-10
5.23599e-10
5.23599e-10
5.23599e-10
5.23599e-10
5.23599e-10
5.23599e-10
5.23599e-10
5.23599e-10
5.23599e-10
5.23599e-10
5.23599e-10
5.23599e-10
5.23599e-10
5.23599e-10
5.23599e-10
5.23599e-10
5.23599e-10
5.23599e-10
5.23599e-10
5.23599e-10
5.23599e-10
5.23599e-10
5.23599e-10
5.23599e-10
5.23599e-10
5.23599e-10
5.23599e-10
5.23599e-10
5.23599e-10
5.23599e-10
5.23599e-10
5.23599e-10
5.23599e-10
5.23599e-10
5.23599e-10
5.23599e-10
5.23599e-10
5.23599e-10
5.23599e-10
5.23599e-10
5.23599e-10
5.23599e-10
5.23599e-10
5.23599e-10
5.23599e-10
5.23599e-10
5.23599e-10
5.23599e-10
5.23599e-10
5.23599e-10
5.23599e-10
5.23599e-10
5.23599e-10
5.23599e-10
5.23599e-10
5.23599e-10
5.23599e-10
5.23599e-10
5.23599e-10
5.23599e-10
5.23599e-10
5.23599e-10
5.23599e-10
5.23599e-10
5.23599e-10
5.23599e-10
5.23599e-10
5.23599e-10
5.23599e-10
5.23599e-10
5.23599e-10
5.23599e-10
5.23599e-10
5.23599e-10
5.23599e-10
5.23599e-10
5.23599e-10
5.23599e-10
5.23599e-10
5.23599e-10
5.23599e-10
5.23599e-10
5.23599e-10
5.23599e-10
5.23599e-10
5.23599e-10
5.23599e-10
5.23599e-10
5.23599e-10
5.23599e-10
5.23599e-10
5.23599e-10
5.23599e-10
5.23599e-10
5.23599e-10
5.23599e-10
5.23599e-10
5.23599e-10
5.23599e-10
5.23599e-10
5.23599e-10
5.23599e-10
5.23599e-10
5.23599e-10
5.23599e-10
5.23599e-10
5.23599e-10

VECTORS velocity float
0.0114701 -0.00516619 0.00120955
0.0110445 -0.0013366 0.0012196
0.0105488 -0.00490967 0.00200545
0.0122131 -0.0019866 -5.92791e-06
0.0115244 -0.0051427 0.00122968
0.011484 -0.0038883 0.000988819
0.0111844 -0.00136461 0.00125471
0.0115373 -0.0039748 0.0010175
0.010568 -0.0046563 0.00190239
0.0114817 -0.00539411 0.0012508
0.0113654 -0.00517809 0.0021047
0.0112991 -0.0013294 0.00128182
0.011502 -0.00520933 0.00125263
0.00850216 -0.00320164 0.000901503
0.0121745 -0.00202653 -8.99868e-06
0.011113 -0.00358548 0.000913917
0.0122403 -0.00204229 -3.27467e-06
0.0105784 -0.00489825 0.00199098
0.00244572 0.0011833 0.0465711
0.0115659 -0.00507168 0.0014395
0.0122184 -0.00194252 -8.2865e-05
0.0104672 -0.0050968 0.00114988
0.0105629 -0.00488939 0.00200025
0.0121764 -0.00203163 1.42088e-05
0.0107132 -0.00527244 0.00216206
0.0114396 -0.00524104 0.00216082
0.012368 -0.002851 0.000825652
0.0114696 -0.00134786 0.00119622
0.011435 -0.00536498 0.00129666
0.0115728 -0.00510773 0.00124077
0.0113581 -0.00182824 0.000710457
0.0113862 -0.00535128 0.00128944
0.0114893 -0.00539778 0.00129384
0.0111504 -0.00507871 0.00205862
0.0122379 -0.00203729 5.80127e-07
0.0118372 -0.00548896 0.00138314
0.0115853 -0.005267 0.00127922
0.0115165 -0.00518766 0.00123689
0.0116168 -0.00515022 0.00122109
0.0109327 -0.00358832 0.00091163
0.0112111 -0.00449765 0.00106275
0.0110233 -0.00331799 0.000276934
0.0106074 -0.00493122 0.00201523
0.0106512 -0.00511676 0.00117046
-0.0051899 -0.0363533 -0.00266689
0.0122476 -0.00202925 -4.22811e-06
0.0117717 -0.00521528 0.00127088
0.0117271 -0.00526476 0.00128819
0.010852 -0.00501741 0.0011462
0.0115223 -0.00516216 0.00126443
0.00904664 -0.0111345 -0.00154519
0.0116035 -0.00530703 0.002137
0.0112183 -0.00456117 0.00107449
0.0118851 -0.00188129 1.76097e-05
0.0114778 -0.00530033 0.00127856
0.0122408 -0.00201122 -3.62425e-06
0.0109764 -0.00504431 0.00112349
0.0109486 -0.00498702 0.00117848
0.0125957 -0.00310103 0.000929324
0.0106159 -0.0053653 0.00119004
0.0121981 -0.00198561 -7.02178e-06
0.0107435 -0.00377085 0.00102822
0.0112776 -0.0010116 0.00056094
0.0121861 -0.00199883 5.4883e-07
0.0115671 -0.00494214 0.00207307
0.00330405 -0.0103076 0.0298728
0.00907207 -0.0105951 -0.00132608
0.0120205 -0.00566017 0.00129612
0.0116219 -0.00377003 0.00098154
0.0120018 -0.00314143 0.000849305
-0.0139441 -0.0720582 -0.0584737
-0.00225287 0.130561 -0.101548
0.0112421 -0.00135455 0.00127259
5.61009e-06 -0.000191871 0.0044673
0.0114369 -0.00190799 8.98572e-05
0.0113636 -0.00157395 0.000877097
0.0114157 -0.00170078 0.000829333
0.00822373 -0.00459983 0.00102437
0.0122308 -0.00198638 -1.5297e-05
0.0122099 -0.00204312 5.18154e-06
0.00966792 -0.00378587 0.000887559
0.0115419 -0.00549931 0.00130037
0.0112708 -0.0048984 0.00196881
0.011525 -0.00519688 0.00127625
0.0102698 -0.00530144 0.00118485
0.0104877 -0.0040172 0.00112591
0.0122248 -0.00202792 -4.23754e-07
0.0104861 -0.00490195 0.0020084
0.0117161 -0.0027385 0.000772171
0.0108403 -0.00529778 0.0021317
0.0114648 -0.00511187 0.00126118
0.010558 -0.00482589 0.00195984
0.011496 -0.00407616 0.00108043
0.0116551 -0.0052279 0.00154422
0.0117881 -0.00496515 0.00122347
0.0116236 -0.00542007 0.00126781
0.0117524 -0.00527822 0.00182831
0.0118013 -0.00354735 0.000910792
0.0117286 -0.00340459 0.000914214
0.012059 -0.00279166 0.000784485
0.0111608 -0.00545089 0.00131127
0.0117511 -0.00384583 0.000967748
0.00966254 -0.00302996 0.0008301
0.0115944 -0.00510557 0.00122375
0.0105979 -0.00489995 0.00199437
0.0119687 -0.00340402 0.000917562
0.0113587 -0.00151537 0.000857247
0.0116844 -0.00516645 0.00125322
0.0123164 -0.00469657 0.00118818
0.0113322 -0.00569694 0.00130947
0.0107962 -0.00497208 0.00202698
0.011693 -0.00494447 0.00120979
0.0115782 -0.00524225 0.00214533
0.0110926 -0.00162349 0.000623913
0.0117607 -0.00532709 0.00128092
0.00967296 -0.00414032 0.00104789
0.0115518 -0.00398444 0.000999175
0.0118417 -0.00587511 0.00132698
0.0116065 -0.00511155 0.00125572
0.0117103 -0.00535837 0.000914691
0.0114311 -0.00436047 0.00104273
0.0119779 -0.00522513 0.00127704
0.0116442 -0.00508561 0.00123585
0.00856478 -0.00383379 0.000889157
0.0116175 -0.00293828 0.000830033
0.0116431 -0.00511412 0.00123493
0.0110859 -0.00482272 0.00112355
0.0117023 -0.00507727 0.00124119
0.0118657 -0.00508469 0.00123969
0.00885712 -0.00279514 0.000665983
0.0114608 -0.00400524 0.000983986
0.0115546 -0.00383928 0.00106008
0.0125156 -0.00287663 0.000900329
0.0121269 -0.00465881 0.00115504
0.00835394 -0.00440923 0.000970635
0.0115805 -0.00222864 0.000743664
0.0111274 -0.00477723 0.00111031
0.0113804 -0.00524662 0.00128198
0.0114471 -0.000926994 0.000501706
2.69481e-05 -0.000444758 0.0153461
0.011526 -0.00502153 0.00122328
0.0115222 -0.00331031 0.000987933
0.00281009 0.170829 -0.0836185
-2.12343e-05 0.000631984 -0.000577644
0.0116367 -0.00418793 0.00114985
0.0122134 -0.00290698 0.000841141
0.0120909 -0.00189273 -9.57958e-05
0.011178 -0.00340357 0.000288075
0.0121765 -0.00200622 9.04215e-06
0.0110611 -0.00468244 0.00111351
0.0110543 -0.00416323 0.00107889
0.0101547 -0.00370101 0.000909568
0.0116002 -0.00486989 0.00137554
0.00114801 -0.0459264 -0.0835862
0.0114195 -0.0048772 0.00119796
-1.95538e-05 0.000121486 -0.000774148
-0.0392902 -0.258963 -0.0674751
0.0116474 -0.00515742 0.00125249
0.0122391 -0.00200203 -3.30382e-05
0.0121986 -0.00309685 0.000871082
0.0106203 -0.00515155 0.00111979
0.00867931 -0.00240689 0.000646135
0.0111918 -0.00540292 0.00130858
0.000168203 -0.00268292 0.0293155
0.0115739 -0.00395858 0.000983102
0.00127902 -0.0430997 0.0365264
0.0111938 -0.00433392 0.00143655
0.0117011 -0.00307365 0.000847959
0.0117845 -0.00515511 0.00125332
7.9516e-16 -2.70883e-14 2.2187e-13
0.0105637 -0.00621845 0.00134719
2.21562e-05 -0.000774013 -0.000639282
0.011777 -0.00529604 0.00130908
0.0104669 -0.00102982 0.000462668
2.38467e-06 -8.12094e-05 0.00387953
0.011864 -0.00326882 0.000890371
0.0118726 -0.00362112 0.000951388
-5.93416e-09 2.02108e-07 2.46968e-08
-0.0116841 -0.0757189 -0.0970456
6.47038e-05 -0.00106335 -0.000416941
0.0108396 -0.00523442 0.00120556
4.12362e-06 0.000657414 -0.00061303
9.16742e-11 -3.12152e-09 -3.81612e-10
0.00539949 0.000757459 0.000171958
0.00386235 0.000811509 -0.000450102
0.01143 -0.00436459 0.00108079
-4.14836e-11 1.41268e-09 1.7272e-10
0.0118976 -0.00412686 0.00118915

VECTORS force float
-1.97362e-09 4.2316e-10 6.92278e-10
-6.68513e-10 -1.0208e-09 1.13501e-09
8.83308e-10 1.36876e-09 -6.08688e-10
-1.51612e-09 1.60861e-09 -5.19158e-11
-6.52757e-10 7.20115e-10 3.22952e-10
-6.87319e-10 -3.06624e-09 8.8688e-10
4.79592e-10 -3.68956e-10 -2.50012e-10
4.0985e-09 -1.27911e-09 -1.66027e-09
-1.37086e-10 1.97261e-09 2.29141e-10
-5.45963e-09 3.6623e-09 -2.53537e-09
3.3104e-09 -1.37009e-09 1.17691e-09
2.90929e-09 -3.30325e-11 -2.98678e-09
-2.1523e-10 -1.04727e-08 1.57721e-09
-2.89245e-09 -2.28192e-09 -4.33814e-09
2.6216e-09 1.88063e-09 -1.59591e-09
-1.16405e-09 5.12065e-10 -7.07625e-11
4.43591e-10 -4.40608e-10 1.55633e-10
-5.85267e-10 1.38348e-09 -8.50434e-10
0.0 0.0 -5.1365e-09
-6.35153e-10 -1.58191e-09 -8.90015e-12
-4.94887e-09 3.58732e-09 -9.95487e-10
4.93784e-10 -2.88804e-09 -6.48084e-10
2.18958e-10 6.9879e-10 -4.23092e-10
3.53224e-10 -1.86914e-09 3.77923e-10
-3.19316e-09 4.70357e-09 -2.0964e-09
2.2357e-09 -3.03616e-09 -3.57123e-10
4.22797e-09 -3.39999e-09 8.55172e-10
5.44467e-10 -7.47035e-10 -1.43507e-09
-2.06813e-09 1.76964e-09 -7.38136e-10
1.1703e-09 2.38503e-09 -3.03005e-10
8.44061e-09 -4.18398e-10 -3.60034e-09
1.70057e-10 2.12025e-09 -1.44119e-09
1.37214e-10 1.48907e-09 1.24523e-09
1.48259e-09 -2.05354e-09 7.92858e-10
-2.35852e-10 -1.28043e-10 -1.9647e-12
8.89227e-09 -7.69573e-09 1.17068e-09
3.51677e-09 -2.39908e-09 -3.49875e-10
-1.68868e-09 1.006e-08 -1.60235e-09
-2.503e-09 1.94997e-09 -4.67986e-10
-7.52862e-10 -9.84832e-10 1.9436e-10
1.13885e-09 -2.0587e-09 1.30571e-09
1.27656e-11 -2.09051e-11 2.96692e-12
5.73862e-10 1.57343e-10 5.93515e-12
1.147e-09 -4.40102e-10 1.72818e-10
0.0 0.0 -5.1365e-09
5.43706e-10 1.08627e-09 -4.4085e-10
-4.8598e-09 3.76427e-10 -1.1344e-09
4.72258e-10 -2.66127e-09 1.22859e-09
2.46259e-09 1.4847e-09 3.79478e-10
-5.66081e-09 -5.79556e-09 8.86932e-12
8.14574e-10 -2.44142e-10 -9.42049e-10
2.21683e-09 -2.83728e-09 -1.64415e-10
-4.37378e-09 1.84797e-11 -6.77422e-10
-4.17458e-09 -1.32274e-09 4.15201e-09
-8.34999e-09 -3.97729e-09 -7.43549e-11
4.02398e-10 -5.71398e-10 1.01049e-10
9.25911e-10 2.34099e-09 1.88957e-10
2.99685e-09 -1.4332e-09 5.39624e-10
-2.4662e-09 1.3334e-09 -6.18877e-10
-4.83582e-10 -1.4911e-09 -2.83313e-11
-1.25056e-09 -8.15448e-10 7.71011e-10
-6.65915e-09 -1.24655e-09 1.12555e-09
5.27326e-09 2.35853e-09 -3.73244e-09
-3.91083e-10 -8.38299e-10 3.05515e-10
4.0804e-09 -6.43438e-10 -2.01533e-09
0.0 0.0 -5.1365e-09
5.60463e-12 1.92362e-11 2.3284e-12
6.15147e-10 -3.04261e-09 4.52665e-10
6.03247e-09 -3.17207e-09 9.99573e-10
-1.44481e-10 -9.19194e-10 1.74448e-10
0.0 0.0 -5.1365e-09
0.0 0.0 -5.1365e-09
2.98346e-10 -7.15512e-10 -9.36272e-10
0.0 0.0 -5.1365e-09
1.05794e-09 -2.69316e-09 -7.80121e-10
-2.90247e-09 -1.44946e-09 6.71466e-10
3.74791e-09 2.1567e-10 -2.51296e-09
-1.58862e-09 1.32929e-09 7.24356e-10
-8.08524e-10 1.14842e-09 -1.60951e-10
1.62389e-09 -1.25348e-09 1.12721e-11
-6.55907e-10 -7.25709e-09 -1.14403e-10
-1.30662e-10 2.70192e-09 5.91607e-10
1.16568e-09 -2.37647e-09 -6.69167e-11
-8.1305e-10 1.11259e-09 2.94185e-10
-1.05222e-09 -3.19435e-09 1.41619e-09
-3.63866e-11 2.47502e-11 -5.06793e-09
-1.08126e-10 7.04059e-10 -1.62252e-10
-1.74989e-09 -2.45488e-10 7.64953e-10
6.50198e-09 -4.74348e-09 -2.32438e-10
-1.61694e-09 2.59407e-09 -8.39697e-10
-4.77939e-09 -2.05368e-09 1.92951e-09
9.50197e-10 8.10826e-11 -9.06315e-11
2.95719e-09 -1.14813e-08 1.67305e-09
5.72745e-09 2.41907e-10 2.76609e-10
1.58024e-09 -3.5622e-09 6.69571e-10
2.87993e-09 -8.9514e-10 1.8522e-09
5.11152e-09 -1.4542e-09 -2.33295e-09
7.79012e-09 -3.32821e-09 2.43489e-09
-1.90876e-09 -5.10488e-09 -4.53206e-10
7.02903e-10 2.26945e-11 -1.30395e-09
2.95169e-09 -1.18492e-09 -1.07522e-09
2.02361e-09 2.22133e-09 -1.31915e-09
-2.59951e-09 1.60072e-09 -3.09441e-10
-1.96515e-09 -3.7817e-11 -5.09672e-10
-2.73897e-09 5.59257e-10 1.15344e-10
1.38783e-09 -3.31514e-09 -1.69461e-10
2.49574e-09 -4.86564e-09 -1.12587e-09
-3.9054e-09 4.62104e-09 -1.51127e-09
9.57036e-10 5.75007e-10 -1.00423e-10
-2.44371e-09 -5.82682e-09 6.79019e-11
-1.14767e-09 -8.83108e-10 3.12446e-10
3.74011e-10 1.42024e-10 1.42445e-09
1.03854e-09 -1.60433e-09 4.35901e-09
7.55828e-09 -2.11404e-09 1.95997e-09
1.04846e-09 -3.95904e-09 -8.74039e-10
1.69294e-09 5.49561e-09 -5.81493e-10
3.1598e-09 -1.28425e-09 1.75537e-09
8.70275e-10 -7.45145e-10 -3.07408e-10
-9.16444e-10 1.31821e-09 4.95604e-10
-9.99866e-11 9.5957e-10 -4.47719e-09
3.86033e-10 1.21864e-09 1.43446e-10
-2.14686e-09 1.35139e-09 -4.95998e-10
-8.24691e-10 7.6644e-09 -1.25115e-09
-4.44445e-09 6.31858e-09 -1.9761e-09
2.75146e-09 -5.77256e-10 -4.24397e-10
-2.0543e-09 6.83555e-11 5.24923e-10
-3.41023e-09 7.3494e-10 -5.72048e-10
-2.13691e-09 1.28535e-09 1.4127e-10
-2.47596e-09 3.82023e-11 -1.76825e-10
4.2984e-09 -1.67431e-09 1.08188e-08
-3.36857e-09 3.7512e-09 -9.94093e-10
3.7605e-09 7.40265e-10 3.41933e-09
6.21836e-09 -1.48168e-09 5.22629e-10
-1.96695e-09 -6.80142e-10 9.59429e-10
-1.80836e-09 1.53488e-10 1.14794e-09
1.06134e-08 -2.43927e-09 4.6003e-10
-1.26923e-09 -1.003e-09 8.54211e-10
-1.94123e-09 1.77459e-09 -4.29649e-10
8.80188e-09 -1.37823e-09 -1.41778e-09
0.0 0.0 -5.1365e-09
-1.93252e-10 1.07193e-09 1.18513e-09
2.35453e-08 -9.01307e-10 -1.32757e-09
0.0 0.0 -5.1365e-09
-1.30203e-11 1.71946e-10 -1.67899e-10
4.02496e-09 -1.83603e-09 7.92026e-10
4.4654e-09 -2.51295e-09 1.04728e-09
-6.88911e-09 1.12133e-09 4.53685e-09
1.28432e-11 -5.27398e-12 6.01994e-13
-3.7976e-10 -7.63135e-12 1.08681e-11
3.83937e-09 -2.71419e-09 -1.66371e-09
1.32386e-08 -4.16516e-09 1.07004e-09
-2.43064e-09 8.96133e-10 -2.17199e-10
6.64744e-10 -4.61155e-09 3.69182e-09
0.0 0.0 -5.1365e-09
-2.54806e-09 1.8468e-09 -2.77473e-10
0.0 0.0 -5.1365e-09
0.0 0.0 -5.1365e-09
-1.50667e-09 1.47184e-09 -2.74122e-11
3.16597e-09 1.40223e-09 -2.75344e-09
-3.71032e-09 2.6765e-09 1.42771e-09
1.60566e-09 -6.42627e-10 -1.84976e-11
-6.98461e-10 -2.70873e-10 -2.4461e-10
4.32746e-09 5.04671e-09 -1.30862e-09
0.0 0.0 -5.1365e-09
-2.53095e-09 2.05586e-09 1.23821e-09
0.0 0.0 -5.1365e-09
3.39599e-10 -4.71856e-10 -5.22106e-09
1.34612e-12 3.70232e-10 -1.09409e-10
-3.05724e-09 -2.84325e-10 2.01029e-10
-6.73054e-24 0.0 0.0
-6.25208e-10 -1.48491e-09 2.61164e-10
0.0 0.0 -5.1365e-09
2.06137e-09 -2.45877e-10 7.416e-10
-2.98073e-10 -2.13065e-10 3.63955e-10
0.0 0.0 -5.1365e-09
4.24754e-09 -1.94564e-09 1.27623e-09
5.92919e-10 -6.9994e-10 -6.50163e-10
5.09237e-15 -1.73444e-13 -2.1212e-14
0.0 0.0 -5.1365e-09
-1.96065e-12 2.73898e-11 1.07465e-11
-9.45173e-11 1.50588e-09 -1.26215e-10
1.82318e-08 6.38241e-10 8.8439e-10
1.13829e-13 -3.87688e-12 -4.73761e-13
2.362e-10 3.386e-10 1.59023e-10
-1.33124e-07 -3.22953e-09 -7.70655e-09
2.55461e-09 -4.62332e-09 -3.33619e-10
2.29045e-15 -7.80115e-14 -9.55488e-15
2.46364e-09 -3.3088e-09 -1.11735e-09
