# vtk DataFile Version 3.0
LIGGGHTS particles timestep 4400000
ASCII
DATASET POLYDATA
POINTS 188 float
0.065819 0.0167512 0.00765764
0.0714081 0.0159172 0.00827886
0.0655263 0.0160044 0.00818205
0.0717946 0.0173938 0.00722462
0.0656681 0.0168604 0.00758491
0.0661487 0.0177762 0.00704262
0.0714299 0.0159938 0.00821832
0.0659722 0.0173947 0.00720702
0.0653658 0.0157404 0.00836855
0.0657002 0.0166447 0.00773396
0.065613 0.0163244 0.00795812
0.0714733 0.0161441 0.00809379
0.0657081 0.017021 0.00747263
0.0661884 0.0179724 0.00704156
0.0716653 0.0168206 0.00753219
0.0660333 0.0180989 0.00703379
0.0719137 0.0179816 0.00724058
0.0654308 0.0159804 0.00820064
0.0599779 0.0178764 0.00717008
0.0657764 0.0165909 0.00776979
0.0716454 0.0167454 0.00759502
0.0658774 0.0173695 0.00722646
0.0654524 0.0160604 0.00814467
0.0716837 0.0168962 0.00746942
0.0654957 0.0162204 0.00803273
0.0655391 0.0163803 0.0079208
0.0661171 0.0184903 0.00703834
0.0714951 0.0162192 0.00803144
0.0657428 0.0168051 0.00762178
0.0656473 0.0167803 0.00764097
0.0715602 0.0164445 0.0078444
0.0657218 0.0167248 0.00767797
0.0656785 0.0165648 0.00778992
0.0655914 0.0162444 0.00801409
0.0718329 0.01759 0.00722994
0.0656568 0.0164848 0.0078459
0.0658397 0.0168317 0.0076013
0.0658214 0.0171275 0.00739636
0.065604 0.0166203 0.0077529
0.0660736 0.0182949 0.00703275
0.0659789 0.0175712 0.00708205
0.0718713 0.0177863 0.00723527
0.065548 0.0160844 0.00812608
0.0658741 0.0177635 0.00703202
0.0597159 0.0170497 0.00742285
0.071751 0.0171208 0.00728295
0.0658782 0.0169925 0.00748886
0.0658594 0.0169121 0.00754512
0.065894 0.0174522 0.00716797
0.0658983 0.0167004 0.00769126
0.0595511 0.0164969 0.00797688
0.0656347 0.0164044 0.00790215
0.0660253 0.0176489 0.00703947
0.0716037 0.0165947 0.00771971
0.065727 0.0171017 0.0074167
0.0718517 0.0176882 0.00723261
0.065859 0.0176954 0.00710364
0.0659686 0.0177961 0.00703529
0.0662241 0.0177107 0.00704645
0.065801 0.0174233 0.00719086
0.0717021 0.0169719 0.00740669
0.0661907 0.0175308 0.00710442
0.0662439 0.0178087 0.00704592
0.0717751 0.0172958 0.00722196
0.0657543 0.0165105 0.00782601
0.0597501 0.0171888 0.00728331
0.0595945 0.0166348 0.00783869
0.066014 0.0180008 0.00703434
0.0659823 0.0174893 0.0071394
0.0663248 0.0181996 0.00704388
0.0597759 0.0172618 0.00721999
0.0598445 0.0176482 0.00717604
0.0714516 0.016069 0.00815614
0.0596161 0.0167038 0.0077696
0.071582 0.0165197 0.00778218
0.0715168 0.0162943 0.00796909
0.0715385 0.0163694 0.00790676
0.0658512 0.0176138 0.00716095
0.0717216 0.0170482 0.00734509
0.0717556 0.0171978 0.0072193
0.0660136 0.0171827 0.00735371
0.0657458 0.0171819 0.00736011
0.0657325 0.0164303 0.00788211
0.0659424 0.0175653 0.00719063
0.0657834 0.017344 0.00724915
0.0660324 0.0172629 0.0072969
0.071814 0.0174919 0.00722728
0.0653875 0.0158204 0.00831258
0.0661967 0.0184298 0.00703578
0.0655174 0.0163004 0.00797677
0.065798 0.0166709 0.00771381
0.0654741 0.0161404 0.0080887
0.0659534 0.0173142 0.00726335
0.0659416 0.0176479 0.0071342
0.065859 0.0172885 0.00728383
0.0659572 0.0169414 0.00752272
0.0655824 0.0165403 0.00780887
0.0660902 0.0175039 0.00712869
0.0663038 0.0181018 0.00704436
0.0662833 0.018004 0.00704486
0.0659384 0.0168609 0.00757898
0.0660937 0.0179405 0.00703827
0.0662995 0.017645 0.00705028
0.0662635 0.0174733 0.00714267
0.0654091 0.0159004 0.00825661
0.0662499 0.018266 0.00704005
0.0718017 0.0170012 0.0073821
0.0657833 0.0169661 0.00750915
0.0661445 0.0173712 0.00721772
0.0657643 0.0172625 0.00730383
0.0655697 0.0161644 0.00807007
0.0661102 0.0172104 0.00733152
0.0655607 0.0164603 0.00786483
0.0663463 0.0182973 0.00704342
0.0658402 0.017208 0.00734009
0.0659159 0.0171535 0.00737633
0.0661331 0.0181366 0.0070372
0.0658932 0.0178616 0.00703146
0.0656257 0.0167003 0.00769694
0.0657636 0.0168857 0.0075654
0.0660739 0.0178425 0.00703948
0.0659948 0.0171024 0.00741019
0.0656885 0.0169406 0.00752881
0.0660538 0.0177448 0.00704527
0.0662718 0.0183638 0.00703961
0.0658026 0.017047 0.00745262
0.0658906 0.017534 0.00711063
0.0662866 0.0175527 0.00708634
0.065897 0.017073 0.00743259
0.0662084 0.0180704 0.00704105
0.0661687 0.0178744 0.00704209
0.0660648 0.0174239 0.00718297
0.066168 0.0174504 0.00716144
0.066129 0.0172905 0.00727475
0.0658423 0.0176064 0.00706124
0.066056 0.0186438 0.00704287
0.0659307 0.0176811 0.00703534
0.0658775 0.0166202 0.00774732
0.066175 0.0183322 0.00703624
0.0599199 0.0175825 0.00717651
0.0660914 0.0171302 0.00738829
0.0660512 0.0173432 0.00724044
0.059883 0.0178444 0.00717175
0.0598066 0.0174518 0.00718036
0.0661284 0.0176783 0.00704312
0.0661532 0.0182346 0.00703668
0.0716254 0.0166702 0.00765785
0.0718921 0.017884 0.00723792
0.0718503 0.0172299 0.00722033
0.0659896 0.0178966 0.00703477
0.0659347 0.017234 0.00731996
0.0661133 0.0180386 0.00703773
0.0660447 0.0176259 0.00713482
0.0599028 0.0179424 0.0071696
0.0660726 0.01705 0.00744495
0.0660953 0.0183926 0.00703592
0.0598637 0.0177463 0.0071739
0.0660538 0.0169695 0.00750122
0.0718311 0.0170747 0.00732105
0.0660343 0.0185463 0.00703878
0.0659769 0.0179561 0.00711569
0.0660126 0.0184487 0.00703529
0.0659187 0.0167806 0.00763516
0.0596794 0.0169109 0.00756204
0.0662043 0.0176127 0.00704698
0.0597329 0.0171193 0.00735307
0.0658576 0.0174689 0.0072596
0.0659315 0.0180571 0.00703036
0.0662413 0.0173938 0.00719911
0.0598646 0.0172904 0.00718288
0.065912 0.0179595 0.0070397
0.0596379 0.0167727 0.00770051
0.065976 0.0170219 0.00746646
0.0659909 0.0183511 0.00703317
0.0596595 0.0168417 0.00763145
0.0661122 0.0175845 0.00707369
0.0660525 0.0181971 0.00703324
0.0596994 0.0169812 0.00749385
0.0597872 0.0173538 0.00718247
0.0659508 0.0181553 0.0070298
0.0658213 0.0175208 0.00718226
0.0598253 0.01755 0.00717819
0.0598602 0.0172199 0.00725373
0.0659699 0.0182534 0.00703129
0.0599583 0.0177784 0.00717222
0.0662291 0.0181682 0.00704055
0.0595728 0.0165658 0.00790778
0.065987 0.0177357 0.00711911

VERTICES 188 376
1 0
1 1
1 2
1 3
1 4
1 5
1 6
1 7
1 8
1 9
1 10
1 11
1 12
1 13
1 14
1 15
1 16
1 17
1 18
1 19
1 20
1 21
1 22
1 23
1 24
1 25
1 26
1 27
1 28
1 29
1 30
1 31
1 32
1 33
1 34
1 35
1 36
1 37
1 38
1 39
1 40
1 41
1 42
1 43
1 44
1 45
1 46
1 47
1 48
1 49
1 50
1 51
1 52
1 53
1 54
1 55
1 56
1 57
1 58
1 59
1 60
1 61
1 62
1 63
1 64
1 65
1 66
1 67
1 68
1 69
1 70
1 71
1 72
1 73
1 74
1 75
1 76
1 77
1 78
1 79
1 80
1 81
1 82
1 83
1 84
1 85
1 86
1 87
1 88
1 89
1 90
1 91
1 92
1 93
1 94
1 95
1 96
1 97
1 98
1 99
1 100
1 101
1 102
1 103
1 104
1 105
1 106
1 107
1 108
1 109
1 110
1 111
1 112
1 113
1 114
1 115
1 116
1 117
1 118
1 119
1 120
1 121
1 122
1 123
1 124
1 125
1 126
1 127
1 128
1 129
1 130
1 131
1 132
1 133
1 134
1 135
1 136
1 137
1 138
1 139
1 140
1 141
1 142
1 143
1 144
1 145
1 146
1 147
1 148
1 149
1 150
1 151
1 152
1 153
1 154
1 155
1 156
1 157
1 158
1 159
1 160
1 161
1 162
1 163
1 164
1 165
1 166
1 167
1 168
1 169
1 170
1 171
1 172
1 173
1 174
1 175
1 176
1 177
1 178
1 179
1 180
1 181
1 182
1 183
1 184
1 185
1 186
1 187

POINT_DATA 188
SCALARS id int 1
LOOKUP_TABLE default
1
2
3
4
5
6
7
8
9
10
11
12
13
14
15
16
17
18
19
20
21
22
23
25
26
27
28
29
30
31
32
33
34
35
36
37
38
39
40
41
42
43
44
45
46
47
48
49
50
51
52
53
54
55
56
57
58
59
60
61
62
63
64
65
66
67
68
69
70
71
72
73
74
75
76
77
78
79
80
81
82
83
84
85
86
87
88
89
90
91
92
93
94
95
96
97
98
99
100
101
102
103
104
105
106
107
108
109
110
111
112
113
114
115
116
117
118
119
120
121
122
123
124
125
126
127
128
129
130
131
132
133
134
135
136
137
138
139
140
141
142
143
144
145
146
147
148
149
150
151
152
153
154
155
156
157
158
159
160
161
162
163
164
165
166
167
168
169
170
171
173
174
175
176
177
178
179
180
181
182
183
184
185
186
187
188
189
190

SCALARS type int 1
LOOKUP_TABLE default
1
1
1
1
1
1
1
1
1
1
1
1
1
1
1
1
1
1
1
1
1
1
1
1
1
1
1
1
1
1
1
1
1
1
1
1
1
1
1
1
1
1
1
1
1
1
1
1
1
1
1
1
1
1
1
1
1
1
1
1
1
1
1
1
1
1
1
1
1
1
1
1
1
1
1
1
1
1
1
1
1
1
1
1
1
1
1
1
1
1
1
1
1
1
1
1
1
1
1
1
1
1
1
1
1
1
1
1
1
1
1
1
1
1
1
1
1
1
1
1
1
1
1
1
1
1
1
1
1
1
1
1
1
1
1
1
1
1
1
1
1
1
1
1
1
1
1
1
1
1
1
1
1
1
1
1
1
1
1
1
1
1
1
1
1
1
1
1
1
1
1
1
1
1
1
1
1
1
1
1
1
1
1
1
1
1
1
1

SCALARS radius float 1
LOOKUP_TABLE default
5e-05
5e-05
5e-05
5e-05
5e-05
5e-05
5e-05
5e-05
5e-05
5e-05
5e-05
5e-05
5e-05
5e-05
5e-05
5e-05
5e-05
5e-05
5e-05
5e-05
5e-05
5e-05
5e-05
5e-05
5e-05
5e-05
5e-05
5e-05
5e-05
5e-05
5e-05
5e-05
5e-05
5e-05
5e-05
5e-05
5e-05
5e-05
5e-05
5e-05
5e-05
5e-05
5e-05
5e-05
5e-05
5e-05
5e-05
5e-05
5e-05
5e-05
5e-05
5e-05
5e-05
5e-05
5e-05
5e-05
5e-05
5e-05
5e-05
5e-05
5e-05
5e-05
5e-05
5e-05
5e-05
5e-05
5e-05
5e-05
5e-05
5e-05
5e-05
5e-05
5e-05
5e-05
5e-05
5e-05
5e-05
5e-05
5e-05
5e-05
5e-05
5e-05
5e-05
5e-05
5e-05
5e-05
5e-05
5e-05
5e-05
5e-05
5e-05
5e-05
5e-05
5e-05
5e-05
5e-05
5e-05
5e-05
5e-05
5e-05
5e-05
5e-05
5e-05
5e-05
5e-05
5e-05
5e-05
5e-05
5e-05
5e-05
5e-05
5e-05
5e-05
5e-05
5e-05
5e-05
5e-05
5e-05
5e-05
5e-05
5e-05
5e-05
5e-05
5e-05
5e-05
5e-05
5e-05
5e-05
5e-05
5e-05
5e-05
5e-05
5e-05
5e-05
5e-05
5e-05
5e-05
5e-05
5e-05
5e-05
5e-05
5e-05
5e-05
5e-05
5e-05
5e-05
5e-05
5e-05
5e-05
5e-05
5e-05
5e-05
5e-05
5e-05
5e-05
5e-05
5e-05
5e-05
5e-05
5e-05
5e-05
5e-05
5e-05
5e-05
5e-05
5e-05
5e-05
5e-05
5e-05
5e-05
5e-05
5e-05
5e-05
5e-05
5e-05
5e-05
5e-05
5e-05
5e-05
5e-05
5e-05
5e-05
5e-05
5e-05
5e-05
5e-05
5e-05
5e-05

SCALARS mass float 1
LOOKUP_TABLE default
5.23599e-10
5.23599e-10
5.23599e-10
5.23599e-10
5.23599e-10
5.23599e-10
5.23599e-10
5.23599e-10
5.23599e-10
5.23599e-10
5.23599e-10
5.23599e-10
5.23599e-10
5.23599e-10
5.23599e-10
5.23599e-10
5.23599e-10
5.23599e-10
5.23599e-10
5.23599e-10
5.23599e-10
5.23599e-10
5.23599e-10
5.23599e-10
5.23599e-10
5.23599e-10
5.23599e-10
5.23599e-10
5.23599e-10
5.23599e-10
5.23599e-10
5.23599e-10
5.23599e-10
5.23599e-10
5.23599e-10
5.23599e-10
5.23599e-10
5.23599e-10
5.23599e-10
5.23599e-10
5.23599e-10
5.23599e-10
5.23599e-10
5.23599e-10
5.23599e-10
5.23599e-10
5.23599e-10
5.23599e-10
5.23599e-10
5.23599e-10
5.23599e-10
5.23599e-10
5.23599e-10
5.23599e-10
5.23599e-10
5.23599e-10
5.23599e-10
5.23599e-10
5.23599e-10
5.23599e-10
5.23599e-10
5.23599e-10
5.23599e-10
5.23599e-10
5.23599e-10
5.23599e-10
5.23599e-10
5.23599e-10
5.23599e-10
5.23599e-10
5.23599e-10
5.23599e-10
5.23599e-10
5.23599e-10
5.23599e-10
5.23599e-10
5.23599e-10
5.23599e-10
5.23599e-10
5.23599e-10
5.23599e-10
5.23599e-10
5.23599e-10
5.23599e-10
5.23599e-10
5.23599e-10
5.23599e-10
5.23599e-10
5.23599e-10
5.23599e-10
5.23599e-10
5.23599e-10
5.23599e-10
5.23599e-10
5.23599e-10
5.23599e-10
5.23599e-10
5.23599e-10
5.23599e-10
5.23599e-10
5.23599e-10
5.23599e-10
5.23599e-10
5.23599e-10
5.23599e-10
5.23599e-10
5.23599e-10
5.23599e-10
5.23599e-10
5.23599e-10
5.23599e-10
5.23599e-10
5.23599e-10
5.23599e-10
5.23599e-10
5.23599e-10
5.23599e-10
5.23599e-10
5.23599e-10
5.23599e-10
5.23599e-10
5.23599e-10
5.23599e-10
5.23599e-10
5.23599e-10
5.23599e-10
5.23599e-10
5.23599e-10
5.23599e-10
5.23599e-10
5.23599e-10
5.23599e-10
5.23599e-10
5.23599e-10
5.23599e-10
5.23599e-10
5.23599e-10
5.23599e-10
5.23599e-10
5.23599e-10
5.23599e-10
5.23599e-10
5.23599e-10
5.23599e-10
5.23599e-10
5.23599e-10
5.23599e-10
5.23599e-10
5.23599e-10
5.23599e-10
5.23599e-10
5.23599e-10
5.23599e-10
5.23599e-10
5.23599e-10
5.23599e-10
5.23599e-10
5.23599e-10
5.23599e-10
5.23599e-10
5.23599e-10
5.23599e-10
5.23599e-10
5.23599e-10
5.23599e-10
5.23599e-10
5.23599e-10
5.23599e-10
5.23599e-10
5.23599e-10
5.23599e-10
5.23599e-10
5.23599e-10
5.23599e-10
5.23599e-10
5.23599e-10
5.23599e-10
5.23599e-10
5.23599e-10
5.23599e-10
5.23599e-10
5.23599e-10
5.23599e-10
5.23599e-10
5.23599e-10
5.23599e-10
5.23599e-10
5.23599e-10

VECTORS velocity float
0.0118546 -0.000720762 0.000254525
0.0125883 6.54608e-05 0.000389168
0.0123574 -0.0009815 0.000416511
0.0116866 1.86314e-05 -0.000105945
0.0115509 -0.000991265 0.000453997
0.011333 -0.00108498 0.000462538
0.0124952 -2.13469e-05 0.000386813
0.0111832 -0.00102206 0.000368819
0.0123703 -0.000781933 0.000349125
0.012203 -0.00108735 0.000504873
0.0122453 -0.00106508 0.000487699
0.0125576 -0.000199293 0.000192193
0.0111089 -0.000929836 0.000409755
0.0113882 -0.00103986 0.000456695
0.0119313 -6.59503e-05 9.45464e-06
0.0113509 -0.00104599 0.000477031
0.0114961 -2.18908e-05 2.72742e-05
0.0124353 -0.00097506 0.000385875
0.0116429 0.000142128 -0.000153379
0.012167 -0.00108377 0.000501414
0.0120931 -2.70229e-05 7.52468e-05
0.0111876 -0.00105298 0.00041078
0.0123393 -0.00102458 0.000446085
0.0119236 -5.90299e-05 3.94298e-05
0.0122812 -0.00103348 0.000464541
0.0122229 -0.00106818 0.000487973
0.0119892 -0.00103785 0.000101565
0.0124312 -0.000172959 0.000123571
0.0116902 -0.000859729 0.000350436
0.0120833 -0.00110231 0.000516106
0.0124916 -0.000178766 0.000114873
0.0121437 -0.00104195 0.000473785
0.0123237 -0.00100194 0.000441459
0.0122945 -0.00105617 0.000480442
0.0112276 -6.63166e-06 9.36436e-06
0.0122803 -0.000976675 0.000424273
0.0109808 -0.0011513 0.000530743
0.011162 -0.00101955 0.000476485
0.012179 -0.00110505 0.000516085
0.0119483 -0.00114481 0.000462453
0.0113933 -0.00113912 0.000477394
0.0113471 4.63119e-05 4.78392e-06
0.0123361 -0.000985855 0.000421699
0.0113708 -0.00110852 0.000464863
0.0113733 0.000323604 -0.000168103
0.0117926 -7.39628e-05 3.66699e-05
0.0111621 -0.00109412 0.000482245
0.0111626 -0.00115848 0.000434176
0.0112441 -0.00117802 0.00051259
0.0115708 -0.00106256 0.000484848
0.0121742 0.000294122 -0.000101473
0.0122135 -0.00107583 0.000494943
0.011364 -0.00111417 0.00046832
0.012503 -0.000144018 9.47729e-05
0.0111427 -0.000970643 0.00043341
0.0112734 4.00976e-05 -7.54069e-05
0.0113878 -0.00110863 0.000489405
0.0113693 -0.00109849 0.00045596
0.0113089 -0.00111468 0.000458696
0.0111877 -0.00105684 0.000424798
0.0119765 -7.98711e-05 4.80653e-05
0.0112582 -0.0011495 0.000490268
0.011337 -0.00109237 0.000461852
0.0117324 -2.45502e-05 -2.34617e-05
0.0126314 -0.000742904 0.000255956
0.0117228 0.000242942 -3.50235e-05
0.0122481 0.000207111 4.51709e-05
0.0113124 -0.00103963 0.000441127
0.0112228 -0.00115015 0.000492108
0.0117265 -0.00135198 0.000473336
0.0116442 0.000227118 -6.90828e-05
0.0114004 0.000267116 -0.000141811
0.0126415 -0.000116495 0.000280665
0.0122414 0.00020241 3.84139e-05
0.0125268 -0.000167043 0.000116329
0.0124671 -0.000164338 0.000100522
0.0124761 -0.000172936 0.000103566
0.011381 -0.00111546 0.000490037
0.0119264 -9.48358e-05 5.34947e-05
0.0117604 -7.08112e-05 1.30074e-05
0.0111995 -0.00106613 0.000464753
0.0111952 -0.000988976 0.000448983
0.0125366 -0.000724316 0.00024456
0.011321 -0.00112967 0.000552596
0.0111897 -0.00104077 0.000449507
0.0112189 -0.00108834 0.000423906
0.0115059 -2.40663e-05 5.50238e-05
0.0124614 -0.000945367 0.000374108
0.0119469 -0.00112763 0.000544652
0.0122581 -0.00105007 0.000473832
0.0121488 -0.00104307 0.000476097
0.0122899 -0.00102786 0.000458804
0.0111731 -0.00100205 0.000434144
0.0113786 -0.00116525 0.000472113
0.0112013 -0.00101813 0.000478558
0.0112924 -0.00104602 0.00049878
0.0121586 -0.00109509 0.000510752
0.0112806 -0.00109017 0.000458411
0.0115915 -0.00133616 0.000486661
0.0115057 -0.00134696 0.000464853
0.0112147 -0.00104646 0.000453578
0.0113353 -0.00102635 0.000458474
0.0112713 -0.00115456 0.000456091
0.0112156 -0.00114253 0.000469153
0.0123596 -0.000953846 0.000366107
0.0118731 -0.00114047 0.000486437
0.0119656 -3.81507e-05 5.12926e-06
0.0111117 -0.000929044 0.000461037
0.0113032 -0.00110766 0.000477107
0.0113104 -0.001029 0.000478009
0.0123233 -0.0010147 0.000450734
0.0111802 -0.00108628 0.000457271
0.0121893 -0.00108716 0.00050312
0.0117935 -0.00137574 0.000496244
0.011197 -0.00102015 0.000475443
0.0111788 -0.00104187 0.000493807
0.011836 -0.00111064 0.000480049
0.0113986 -0.0010898 0.00045709
0.012202 -0.001109 0.000515381
0.0113352 -0.000872868 0.000382278
0.0113505 -0.00104661 0.000483321
0.0111909 -0.00104562 0.000504946
0.0113144 -0.000937021 0.000423269
0.0113452 -0.00107603 0.000462635
0.0118637 -0.00124283 0.000480689
0.0111217 -0.00103121 0.000477517
0.0113742 -0.00115068 0.000479708
0.0112216 -0.00114164 0.000474539
0.0111604 -0.00105141 0.00051028
0.0115383 -0.00106679 0.000480064
0.0113703 -0.00105003 0.000464814
0.0112286 -0.0010787 0.000436046
0.0112775 -0.00112008 0.000469633
0.0112355 -0.00109633 0.000454447
0.0114249 -0.00106614 0.000437187
0.0120294 -0.00105482 -0.000449716
0.0113646 -0.00112451 0.000471634
0.0119995 -0.0011422 0.000550896
0.0119112 -0.00112107 0.000477206
0.0114022 0.000316625 -0.000140327
0.011204 -0.00109682 0.000442549
0.0112171 -0.00108321 0.000420291
0.0115033 0.000269255 -0.000127033
0.0115002 0.000241307 -0.000135735
0.0113193 -0.00108749 0.000456561
0.0119234 -0.00112748 0.000486499
0.012343 -8.8855e-05 7.80707e-05
0.0114478 1.15953e-07 4.92296e-05
0.0117547 -9.47009e-06 1.24022e-05
0.0101551 -0.00257854 0.000439948
0.0112047 -0.00102467 0.000481075
0.0115123 -0.00105388 0.000462018
0.0112893 -0.00109423 0.000493751
0.0118745 0.000244068 -0.000116274
0.0112158 -0.00104766 0.000493126
0.0119839 -0.00109296 0.000207803
0.0114223 0.000273603 -0.000135344
0.0113127 -0.00104334 0.00048252
0.0118682 -3.03197e-05 -1.67378e-05
0.0120694 -0.00103688 -0.000531591
0.0113171 -0.00109841 0.00040297
0.0120314 -0.00107016 -0.000129477
0.0112478 -0.00102891 0.000446976
0.0115387 0.000353849 -0.000188518
0.0113003 -0.00116696 0.000453704
0.0115976 0.000305627 -6.48223e-05
0.0112184 -0.00113328 0.000483102
0.0113272 -0.00100756 0.000438372
0.0113202 -0.00113259 0.000480594
0.0115997 0.000316475 -0.000135224
0.0113402 -0.00105184 0.000430493
0.0122717 0.000224198 -1.8067e-05
0.0112303 -0.00103665 0.000524088
0.0120068 -0.00110416 0.00025628
0.0122472 0.000220402 -7.98346e-05
0.0113006 -0.00109566 0.000460764
0.0114525 -0.00106741 0.000514002
0.0114299 0.00028545 -0.000260214
0.0115518 0.000233597 -0.000127201
0.011399 -0.000988554 0.000446912
0.0112747 -0.00109064 0.000445762
0.0114222 0.000245094 -0.000131137
0.0117612 0.000334007 -0.000145052
0.01146 -0.000990797 0.00035504
0.0114416 0.000227947 -0.000124138
0.0117701 -0.00111514 0.000475797
0.0121819 0.00022514 -2.17332e-05
0.0105941 -0.000866614 -0.000179719

VECTORS force float
8.75586e-11 5.68149e-10 -5.61567e-10
-5.21817e-10 -4.67133e-09 2.43945e-09
6.59321e-10 -4.21358e-10 1.69366e-10
-4.13211e-09 5.62032e-10 -4.92786e-09
4.42194e-10 5.90991e-10 -1.81533e-10
1.3013e-09 3.49409e-10 3.78703e-10
-1.84965e-09 3.59641e-09 -4.82349e-09
-7.42925e-10 -1.13621e-09 2.74203e-10
2.95507e-09 -4.93334e-10 6.05732e-10
-6.45963e-10 -2.37911e-10 1.46016e-10
1.11627e-10 1.28578e-09 -9.19924e-10
3.15037e-09 -8.57341e-10 -3.27681e-09
-8.70875e-10 4.79015e-10 -5.81265e-10
2.29562e-10 9.7785e-10 3.61984e-10
5.23848e-10 9.6894e-10 -1.72632e-10
-2.87246e-10 2.45149e-10 -7.63126e-10
4.45635e-10 -5.65949e-10 3.95837e-10
-1.58883e-09 2.0073e-09 -1.08154e-09
1.25957e-09 -2.75089e-10 1.45471e-10
2.31562e-10 3.65613e-10 -1.36603e-10
2.00006e-10 4.1661e-10 4.20009e-10
3.56311e-11 -1.36181e-09 1.30422e-09
-3.02928e-11 5.84759e-10 -4.67704e-10
2.39051e-10 1.28005e-09 -5.99142e-10
2.80945e-10 6.82098e-10 -4.83271e-10
-6.1078e-11 6.76274e-10 -4.12787e-10
5.90733e-11 -2.28164e-10 -1.07841e-09
7.39961e-11 -1.01157e-09 1.78921e-09
-2.73598e-10 -3.33497e-10 2.50632e-10
1.38218e-09 1.22814e-10 -9.27714e-11
4.20161e-10 -4.65456e-10 7.4608e-10
-2.48138e-10 3.38603e-10 -3.19801e-10
-9.15579e-10 -6.5398e-10 3.79602e-10
-9.51343e-10 7.08758e-10 -5.02905e-10
-1.79117e-09 2.3689e-09 1.34667e-09
1.38406e-10 3.89989e-10 -2.07436e-10
1.06058e-09 -3.75675e-10 1.4802e-09
8.8384e-11 -8.39236e-10 3.93326e-10
-7.26929e-11 2.31761e-10 -5.38378e-11
3.76493e-10 -2.85272e-11 -4.82486e-10
-6.7292e-10 -5.04183e-10 6.94688e-11
8.27025e-10 5.32781e-10 -9.35003e-11
-1.93499e-10 -5.56331e-10 2.27686e-10
6.59356e-10 1.43228e-09 -1.55021e-10
6.39169e-10 -1.30307e-09 -5.67095e-10
-2.30759e-10 5.43048e-10 1.9462e-10
2.0264e-10 3.00683e-10 -1.78589e-09
3.26056e-09 2.80472e-10 -1.64354e-09
-5.08301e-10 -5.88496e-11 1.82091e-10
6.38748e-11 -8.14527e-10 5.22777e-10
-5.98844e-10 -2.34879e-09 1.79838e-09
-2.6812e-10 4.69813e-10 -2.58043e-10
1.19089e-09 -8.70626e-10 3.54817e-10
-4.81449e-10 -1.00997e-09 3.03059e-10
4.76606e-11 -1.95571e-10 -4.12158e-11
-4.67762e-09 -7.86995e-10 2.34417e-09
1.17343e-09 1.02342e-10 -3.13799e-10
6.28316e-10 9.39799e-10 -3.6931e-10
6.58175e-10 -4.98049e-11 -8.05866e-11
6.08582e-11 -1.02742e-09 6.22628e-10
-2.15311e-10 7.15171e-10 -4.79852e-10
-4.63481e-10 5.6706e-10 -4.95737e-10
-8.4041e-10 -5.92754e-11 9.49596e-11
-3.62498e-09 2.00707e-09 -5.48524e-10
7.0263e-10 -1.44755e-10 1.35059e-10
3.14784e-10 -7.45102e-10 7.20492e-10
1.2498e-09 1.82442e-09 -2.80068e-09
-9.10493e-10 1.21409e-09 -8.70858e-11
-2.05268e-10 -3.88985e-10 1.18424e-10
-1.45278e-09 5.72853e-10 -5.96558e-11
-1.45965e-11 -5.80323e-11 6.1847e-10
9.16628e-11 -4.36833e-10 -1.7279e-10
-1.76481e-10 2.65373e-09 -3.54028e-09
1.91672e-09 9.13477e-10 -2.64402e-09
3.1351e-10 -5.38618e-10 6.2482e-10
-1.12862e-09 -9.51501e-10 7.89319e-10
-4.35556e-10 -5.76724e-10 8.4088e-10
9.69844e-10 -5.66057e-10 4.00193e-10
1.32033e-11 -3.96771e-10 -1.54612e-10
-9.52247e-10 2.63833e-09 1.7609e-09
1.59914e-10 -1.16479e-09 8.57527e-10
-2.60344e-10 -8.48025e-11 3.9482e-10
1.92055e-10 -1.18443e-10 4.34096e-11
-1.71581e-10 -3.23412e-10 -1.88849e-10
1.7058e-09 -7.55179e-10 5.60025e-10
-2.82751e-10 -1.88403e-09 1.30423e-09
1.6124e-09 2.21926e-09 -8.22745e-10
-2.96787e-09 -4.375e-10 -5.8439e-11
1.08855e-09 1.01816e-09 5.00545e-10
1.31667e-10 9.02696e-10 -5.84181e-10
-2.57901e-09 -3.09246e-10 4.83226e-10
-5.93019e-11 -3.82971e-10 1.22535e-10
8.23206e-10 -1.20581e-09 -4.35857e-10
8.5244e-10 -4.07154e-10 -8.92221e-10
1.34764e-09 -6.9468e-10 2.77549e-10
-4.39902e-10 -7.80077e-10 -1.27629e-09
-4.18288e-10 3.94853e-10 -2.28241e-10
-3.64005e-10 1.87545e-10 -2.85658e-10
-1.06921e-10 3.71944e-10 -5.65458e-10
4.86701e-10 2.15833e-10 -4.30361e-10
-1.05463e-09 -9.30889e-11 -4.59766e-10
-8.18803e-10 1.03751e-09 1.57699e-11
9.98101e-10 -9.50936e-10 2.85957e-10
1.07727e-09 -1.65139e-09 8.15165e-10
-2.36336e-09 1.26201e-09 -9.41919e-11
-2.11062e-09 3.94894e-10 2.05174e-10
1.44375e-10 -1.02037e-09 3.31738e-10
1.07093e-10 -4.34261e-11 1.43907e-09
1.66331e-09 7.28552e-10 -2.81479e-10
-6.28644e-10 -3.57236e-10 1.1336e-10
-1.2957e-10 7.01135e-10 -5.02026e-10
-2.45859e-10 -6.73055e-10 6.03421e-10
-2.33418e-10 3.56161e-10 -3.21572e-10
-3.66225e-10 -3.84853e-10 -1.20325e-09
-9.15293e-11 1.27136e-10 1.03889e-09
-1.21947e-10 -5.877e-11 4.68934e-10
-1.00217e-09 -1.71505e-10 -6.04634e-11
6.9175e-10 1.96468e-09 -1.05565e-09
1.35291e-09 -3.66186e-10 1.40342e-10
-5.68533e-09 -2.48897e-09 2.35198e-09
-1.08769e-10 5.48248e-10 7.05465e-10
-3.32922e-11 -3.17911e-10 3.00253e-10
1.53041e-10 1.40488e-09 -6.30141e-10
7.9849e-10 1.23389e-10 4.70168e-10
-1.65208e-09 1.5688e-09 8.05324e-10
4.37018e-10 -8.28095e-10 4.56657e-10
-9.22196e-10 3.91362e-10 -3.82146e-10
-2.92167e-10 -7.55047e-10 5.98034e-10
1.83395e-10 -3.2882e-10 -4.49181e-10
-1.71045e-09 2.4117e-10 1.08889e-09
-4.31011e-10 9.29016e-10 -2.01972e-11
-9.4632e-10 -3.25919e-10 4.03082e-10
1.93664e-10 6.22982e-10 -4.92554e-10
6.62763e-10 1.52523e-10 3.43764e-10
1.8167e-10 9.72445e-10 -8.36411e-10
4.07372e-09 -3.65247e-09 -7.04023e-10
1.3545e-09 3.69077e-10 1.24844e-10
-4.07807e-10 -1.13831e-09 9.71875e-10
-2.04766e-09 5.96358e-10 -7.08074e-10
1.20011e-11 4.43396e-10 -1.12276e-10
-7.47418e-10 -1.43057e-09 7.03297e-10
-4.24209e-10 -1.57493e-09 8.52534e-10
-1.14862e-09 -3.73121e-10 1.12159e-10
5.79234e-10 3.03963e-10 -2.81494e-10
6.95397e-10 3.34564e-11 5.25255e-11
-5.40407e-11 -4.19839e-10 -9.43933e-11
2.86078e-10 -1.07627e-09 -2.00254e-10
-1.17568e-09 4.74211e-10 4.12622e-10
-3.57068e-10 -1.12841e-09 2.48818e-09
1.7425e-09 -5.47208e-10 -4.24708e-10
5.62549e-10 -9.722e-10 5.26886e-10
-9.08146e-10 5.26559e-10 -1.06014e-10
8.3088e-10 -1.16543e-09 6.65028e-10
-2.12301e-09 9.6866e-10 -6.85988e-10
6.28291e-11 -4.93461e-10 1.04509e-09
-6.1852e-10 1.12759e-09 -6.73224e-10
-7.18469e-10 -5.23195e-11 -2.04601e-10
-4.6916e-10 -8.45376e-11 5.83026e-10
1.90515e-11 2.62911e-10 1.5623e-10
7.61019e-10 2.34023e-09 -1.55189e-09
1.5426e-10 9.06981e-11 -5.67689e-10
-1.03344e-09 1.04107e-09 4.62665e-10
1.4376e-10 4.26599e-11 4.60697e-10
4.08377e-11 -6.78805e-10 7.29217e-10
3.12383e-10 5.75824e-10 -2.22676e-10
4.53086e-10 -1.56022e-09 -2.74208e-11
-6.84092e-10 -7.06952e-10 5.52343e-10
-1.05074e-11 6.32269e-10 1.39735e-09
-3.30205e-10 2.08638e-10 -1.25289e-10
4.77925e-10 -5.34122e-10 -1.5242e-11
2.13269e-09 1.46077e-09 -3.75024e-10
-2.83233e-10 -8.68136e-10 -5.95282e-10
4.59419e-10 1.45596e-10 -9.56776e-12
5.40439e-10 4.22705e-10 2.97996e-10
-5.48498e-10 -8.29812e-10 1.20384e-09
3.56739e-10 2.85907e-10 -4.87881e-10
2.1684e-09 4.2963e-10 -2.60813e-09
1.59974e-09 -1.54906e-09 -9.31819e-10
-4.49982e-11 2.60746e-10 -6.23303e-11
-4.85734e-10 7.77614e-10 -7.0269e-10
-8.24804e-11 -4.70569e-10 8.38461e-10
6.14538e-10 -1.94647e-10 4.3118e-10
4.24549e-10 -4.27406e-10 8.29938e-10
-1.54013e-09 -8.41588e-11 -3.34834e-10
9.38679e-11 5.7948e-10 8.30822e-10
-9.26288e-10 -3.6402e-10 5.08928e-10
-1.17969e-09 -1.31011e-09 1.24276e-09
-8.80526e-11 -4.01306e-10 -9.23801e-10
