# vtk DataFile Version 3.0
LIGGGHTS particles timestep 400000
ASCII
DATASET POLYDATA
POINTS 188 float
0.0183146 0.018965 0.00688499
0.0237147 0.0170326 0.00731461
0.0180247 0.0179924 0.00696897
0.0242117 0.0188709 0.00698687
0.0182421 0.0194813 0.00693956
0.0190302 0.0192724 0.00686198
0.0237335 0.0171128 0.00725786
0.0187497 0.0194682 0.00690119
0.0179259 0.0180296 0.00695941
0.0182386 0.0190288 0.00689665
0.0181525 0.0186393 0.00686756
0.0237719 0.0173067 0.00722789
0.018291 0.0197199 0.00695875
0.0188705 0.0194647 0.00689201
0.0239826 0.018298 0.00707481
0.0199856 0.0190741 0.00686028
0.0242154 0.0189697 0.00697154
0.017988 0.0183135 0.00691513
0.017838 0.0238567 0.0115708
0.0182798 0.0187685 0.00686881
0.023961 0.0182015 0.00708971
0.0185072 0.0197924 0.00695241
0.0180096 0.01841 0.0069001
0.0240041 0.0183945 0.00705991
0.018053 0.0186036 0.00687008
0.0180962 0.0187988 0.00688511
0.0196992 0.0188282 0.00689052
0.0237912 0.0174037 0.00721291
0.018286 0.0192328 0.00691264
0.0182221 0.0193836 0.0069317
0.0238524 0.0177098 0.00716562
0.01826 0.0191267 0.00690441
0.018217 0.0189315 0.00688894
0.0181616 0.0185411 0.00688395
0.0241715 0.0191438 0.00694301
0.0181973 0.0188338 0.00688112
0.0183362 0.0190629 0.00689276
0.0183443 0.0196361 0.00694686
0.0181821 0.0191883 0.00691599
0.0204733 0.0193512 0.00685236
0.0185326 0.019687 0.00693913
0.024233 0.0194536 0.00688345
0.0180936 0.0183569 0.00691171
0.0198969 0.0192072 0.00683523
0.0185338 0.0239743 0.0122507
0.0240688 0.018684 0.00701522
0.0184368 0.01922 0.00690039
0.0183551 0.0191615 0.00690078
0.0185739 0.0197855 0.00703384
0.0183903 0.01871 0.00686429
0.0139869 0.0190853 0.00702681
0.018174 0.0187367 0.00687507
0.0187204 0.0195632 0.00691239
0.0238949 0.0179057 0.00713538
0.018311 0.0198176 0.00696661
0.0241952 0.0192497 0.00692258
0.0189209 0.0183894 0.00705866
0.0197969 0.0192809 0.00681987
0.0191168 0.0185004 0.00692387
0.0191726 0.0149252 0.00954157
0.0240257 0.018491 0.00704502
0.0190167 0.0164892 0.00805791
0.0195215 0.0185634 0.00692764
0.0241119 0.018877 0.00698543
0.0182503 0.0186729 0.00686548
0.0173732 0.0238755 0.011685
0.0140808 0.0206915 0.00729232
0.0198867 0.0190547 0.00686001
0.0189101 0.0193227 0.00687557
0.0195183 0.0190183 0.00685313
0.0177317 0.0238575 0.0115724
0.0183028 0.0239211 0.0122174
0.0237527 0.0172097 0.00724288
0.0172925 0.0238593 0.0115791
0.0238728 0.0178066 0.00715067
0.0238106 0.0175007 0.00719793
0.0238315 0.0176054 0.00718175
0.0196516 0.0193466 0.00682362
0.0240472 0.0185875 0.00703012
0.0240904 0.0187805 0.00700032
0.0185088 0.0193027 0.00690301
0.0183395 0.0199533 0.00697749
0.0182559 0.0185744 0.00688179
0.0182844 0.0190638 0.00697834
0.0187696 0.0198934 0.00699974
0.0187019 0.0189244 0.00685279
0.0241491 0.0190436 0.00695972
0.0179699 0.0181184 0.00694641
0.0193563 0.0187759 0.00688713
0.0180745 0.0187009 0.00687816
0.0182928 0.0188673 0.00687727
0.0180312 0.0185065 0.00688506
0.0185077 0.0195405 0.00692578
0.018161 0.0190908 0.00690825
0.0184051 0.0197852 0.00695665
0.0184109 0.0189974 0.00688104
0.0181394 0.0189935 0.00690053
0.0190251 0.0191143 0.00684727
0.019225 0.0191031 0.00683159
0.0196182 0.0186989 0.00691553
0.0184815 0.0188444 0.00686128
0.0192528 0.0192056 0.00683933
0.0193725 0.0184293 0.0069444
0.0194115 0.0183386 0.00696058
0.0179664 0.018217 0.00693016
0.0199263 0.0189447 0.00688936
0.0239036 0.017537 0.00719275
0.0183133 0.0193441 0.00692126
0.018872 0.0189511 0.0068429
0.0185502 0.0198844 0.00696415
0.0181152 0.0184534 0.00689667
0.0184947 0.0189438 0.0068698
0.0181178 0.0188962 0.00689282
0.0194141 0.0188734 0.0068732
0.0184296 0.0196887 0.00694565
0.0184383 0.0194664 0.00692379
0.0203683 0.0189566 0.00689102
0.0199849 0.0192863 0.00683597
0.0182021 0.019286 0.00692385
0.0182612 0.0193117 0.00700025
0.0190267 0.0185719 0.00690903
0.0186997 0.0191402 0.00687355
0.0182621 0.019579 0.00694741
0.0190809 0.0194398 0.00687425
0.0193125 0.0189172 0.00686251
0.0183388 0.0194575 0.00693022
0.0187639 0.0197313 0.00692525
0.0195263 0.018162 0.00699347
0.0184086 0.0193153 0.00691154
0.0197728 0.0190218 0.00686142
0.0193446 0.0191251 0.00682962
0.0186418 0.0194356 0.00690597
0.0185814 0.0188488 0.00685439
0.0185913 0.0189698 0.00686522
0.0191969 0.0194835 0.00686994
0.0197806 0.0187623 0.00690413
0.0196873 0.0192533 0.00682058
0.0183434 0.0186225 0.00687696
0.0196908 0.0189429 0.00687147
0.0175747 0.0238589 0.0115755
0.0189181 0.0183832 0.00693611
0.0188244 0.0192043 0.00687054
0.0184212 0.0238625 0.0115811
0.0183983 0.0239328 0.0119581
0.0193975 0.014248 0.0116972
0.020159 0.0188522 0.00690261
0.0239207 0.0180047 0.00712012
0.0244884 0.0199507 0.00698012
0.0254728 0.0178257 0.00714882
0.0194557 0.0191725 0.00683398
0.01841 0.0195617 0.00693495
0.0209445 0.0226334 0.00878237
0.0181965 0.0185519 0.00712105
0.018046 0.0238549 0.0115675
0.0184831 0.0186729 0.00687358
0.0183756 0.0154218 0.013938
0.0191415 0.0239456 0.0165343
0.0186258 0.0156242 0.00856143
0.0241297 0.017527 0.0074144
0.0206454 0.0234471 0.0131295
0.0194669 0.0161754 0.00810383
0.0201488 0.023985 0.0148093
0.0183834 0.0188263 0.00686673
0.0176156 0.0238073 0.0128599
0.0187909 0.0183152 0.00733847
0.0183909 0.0222774 0.0151845
0.0182271 0.0187704 0.00695464
0.0205225 0.0232135 0.0109134
0.018769 0.0182765 0.00695734
0.0178777 0.0239241 0.0118468
0.020399 0.0142551 0.0116748
0.0173953 0.023861 0.0115795
0.0185114 0.0190543 0.00687912
0.0201667 0.019755 0.00711138
0.0148208 0.0231127 0.0139207
0.0188694 0.018541 0.00690861
0.020619 0.0202517 0.007211
0.0175334 0.0239356 0.0119435
0.0180251 0.0241161 0.0124735
0.0202049 0.0231351 0.0119248
0.0195215 0.0193478 0.00683324
0.0196744 0.0242547 0.0125396
0.0180782 0.0239573 0.0126622
0.020195 0.0230298 0.0108075
0.0190402 0.0236898 0.0136421
0.0202457 0.0189953 0.00689083
0.017244 0.0239882 0.0136055
0.0192077 0.02106 0.00766668

VERTICES 188 376
1 0
1 1
1 2
1 3
1 4
1 5
1 6
1 7
1 8
1 9
1 10
1 11
1 12
1 13
1 14
1 15
1 16
1 17
1 18
1 19
1 20
1 21
1 22
1 23
1 24
1 25
1 26
1 27
1 28
1 29
1 30
1 31
1 32
1 33
1 34
1 35
1 36
1 37
1 38
1 39
1 40
1 41
1 42
1 43
1 44
1 45
1 46
1 47
1 48
1 49
1 50
1 51
1 52
1 53
1 54
1 55
1 56
1 57
1 58
1 59
1 60
1 61
1 62
1 63
1 64
1 65
1 66
1 67
1 68
1 69
1 70
1 71
1 72
1 73
1 74
1 75
1 76
1 77
1 78
1 79
1 80
1 81
1 82
1 83
1 84
1 85
1 86
1 87
1 88
1 89
1 90
1 91
1 92
1 93
1 94
1 95
1 96
1 97
1 98
1 99
1 100
1 101
1 102
1 103
1 104
1 105
1 106
1 107
1 108
1 109
1 110
1 111
1 112
1 113
1 114
1 115
1 116
1 117
1 118
1 119
1 120
1 121
1 122
1 123
1 124
1 125
1 126
1 127
1 128
1 129
1 130
1 131
1 132
1 133
1 134
1 135
1 136
1 137
1 138
1 139
1 140
1 141
1 142
1 143
1 144
1 145
1 146
1 147
1 148
1 149
1 150
1 151
1 152
1 153
1 154
1 155
1 156
1 157
1 158
1 159
1 160
1 161
1 162
1 163
1 164
1 165
1 166
1 167
1 168
1 169
1 170
1 171
1 172
1 173
1 174
1 175
1 176
1 177
1 178
1 179
1 180
1 181
1 182
1 183
1 184
1 185
1 186
1 187

POINT_DATA 188
SCALARS id int 1
LOOKUP_TABLE default
1
2
3
4
5
6
7
8
9
10
11
12
13
14
15
16
17
18
19
20
21
22
23
25
26
27
28
29
30
31
32
33
34
35
36
37
38
39
40
41
42
43
44
45
46
47
48
49
50
51
52
53
54
55
56
57
58
59
60
61
62
63
64
65
66
67
68
69
70
71
72
73
74
75
76
77
78
79
80
81
82
83
84
85
86
87
88
89
90
91
92
93
94
95
96
97
98
99
100
101
102
103
104
105
106
107
108
109
110
111
112
113
114
115
116
117
118
119
120
121
122
123
124
125
126
127
128
129
130
131
132
133
134
135
136
137
138
139
140
141
142
143
144
145
146
147
148
149
150
151
152
153
154
155
156
157
158
159
160
161
162
163
164
165
166
167
168
169
170
171
173
174
175
176
177
178
179
180
181
182
183
184
185
186
187
188
189
190

SCALARS type int 1
LOOKUP_TABLE default
1
1
1
1
1
1
1
1
1
1
1
1
1
1
1
1
1
1
1
1
1
1
1
1
1
1
1
1
1
1
1
1
1
1
1
1
1
1
1
1
1
1
1
1
1
1
1
1
1
1
1
1
1
1
1
1
1
1
1
1
1
1
1
1
1
1
1
1
1
1
1
1
1
1
1
1
1
1
1
1
1
1
1
1
1
1
1
1
1
1
1
1
1
1
1
1
1
1
1
1
1
1
1
1
1
1
1
1
1
1
1
1
1
1
1
1
1
1
1
1
1
1
1
1
1
1
1
1
1
1
1
1
1
1
1
1
1
1
1
1
1
1
1
1
1
1
1
1
1
1
1
1
1
1
1
1
1
1
1
1
1
1
1
1
1
1
1
1
1
1
1
1
1
1
1
1
1
1
1
1
1
1
1
1
1
1
1
1

SCALARS radius float 1
LOOKUP_TABLE default
5e-05
5e-05
5e-05
5e-05
5e-05
5e-05
5e-05
5e-05
5e-05
5e-05
5e-05
5e-05
5e-05
5e-05
5e-05
5e-05
5e-05
5e-05
5e-05
5e-05
5e-05
5e-05
5e-05
5e-05
5e-05
5e-05
5e-05
5e-05
5e-05
5e-05
5e-05
5e-05
5e-05
5e-05
5e-05
5e-05
5e-05
5e-05
5e-05
5e-05
5e-05
5e-05
5e-05
5e-05
5e-05
5e-05
5e-05
5e-05
5e-05
5e-05
5e-05
5e-05
5e-05
5e-05
5e-05
5e-05
5e-05
5e-05
5e-05
5e-05
5e-05
5e-05
5e-05
5e-05
5e-05
5e-05
5e-05
5e-05
5e-05
5e-05
5e-05
5e-05
5e-05
5e-05
5e-05
5e-05
5e-05
5e-05
5e-05
5e-05
5e-05
5e-05
5e-05
5e-05
5e-05
5e-05
5e-05
5e-05
5e-05
5e-05
5e-05
5e-05
5e-05
5e-05
5e-05
5e-05
5e-05
5e-05
5e-05
5e-05
5e-05
5e-05
5e-05
5e-05
5e-05
5e-05
5e-05
5e-05
5e-05
5e-05
5e-05
5e-05
5e-05
5e-05
5e-05
5e-05
5e-05
5e-05
5e-05
5e-05
5e-05
5e-05
5e-05
5e-05
5e-05
5e-05
5e-05
5e-05
5e-05
5e-05
5e-05
5e-05
5e-05
5e-05
5e-05
5e-05
5e-05
5e-05
5e-05
5e-05
5e-05
5e-05
5e-05
5e-05
5e-05
5e-05
5e-05
5e-05
5e-05
5e-05
5e-05
5e-05
5e-05
5e-05
5e-05
5e-05
5e-05
5e-05
5e-05
5e-05
5e-05
5e-05
5e-05
5e-05
5e-05
5e-05
5e-05
5e-05
5e-05
5e-05
5e-05
5e-05
5e-05
5e-05
5e-05
5e-05
5e-05
5e-05
5e-05
5e-05
5e-05
5e-05
5e-05
5e-05
5e-05
5e-05
5e-05
5e-05

SCALARS mass float 1
LOOKUP_TABLE default
5.23599e-10
5.23599e-10
5.23599e-10
5.23599e-10
5.23599e-10
5.23599e-10
5.23599e-10
5.23599e-10
5.23599e-10
5.23599e-10
5.23599e-10
5.23599e-10
5.23599e-10
5.23599e-10
5.23599e-10
5.23599e-10
5.23599e-10
5.23599e-10
5.23599e-10
5.23599e-10
5.23599e-10
5.23599e-10
5.23599e-10
5.23599e-10
5.23599e-10
5.23599e-10
5.23599e-10
5.23599e-10
5.23599e-10
5.23599e-10
5.23599e-10
5.23599e-10
5.23599e-10
5.23599e-10
5.23599e-10
5.23599e-10
5.23599e-10
5.23599e-10
5.23599e-10
5.23599e-10
5.23599e-10
5.23599e-10
5.23599e-10
5.23599e-10
5.23599e-10
5.23599e-10
5.23599e-10
5.23599e-10
5.23599e-10
5.23599e-10
5.23599e-10
5.23599e-10
5.23599e-10
5.23599e-10
5.23599e-10
5.23599e-10
5.23599e-10
5.23599e-10
5.23599e-10
5.23599e-10
5.23599e-10
5.23599e-10
5.23599e-10
5.23599e-10
5.23599e-10
5.23599e-10
5.23599e-10
5.23599e-10
5.23599e-10
5.23599e-10
5.23599e-10
5.23599e-10
5.23599e-10
5.23599e-10
5.23599e-10
5.23599e-10
5.23599e-10
5.23599e-10
5.23599e-10
5.23599e-10
5.23599e-10
5.23599e-10
5.23599e-10
5.23599e-10
5.23599e-10
5.23599e-10
5.23599e-10
5.23599e-10
5.23599e-10
5.23599e-10
5.23599e-10
5.23599e-10
5.23599e-10
5.23599e-10
5.23599e-10
5.23599e-10
5.23599e-10
5.23599e-10
5.23599e-10
5.23599e-10
5.23599e-10
5.23599e-10
5.23599e-10
5.23599e-10
5.23599e-10
5.23599e-10
5.23599e-10
5.23599e-10
5.23599e-10
5.23599e-10
5.23599e-10
5.23599e-10
5.23599e-10
5.23599e-10
5.23599e-10
5.23599e-10
5.23599e-10
5.23599e-10
5.23599e-10
5.23599e-10
5.23599e-10
5.23599e-10
5.23599e-10
5.23599e-10
5.23599e-10
5.23599e-10
5.23599e-10
5.23599e-10
5.23599e-10
5.23599e-10
5.23599e-10
5.23599e-10
5.23599e-10
5.23599e-10
5.23599e-10
5.23599e-10
5.23599e-10
5.23599e-10
5.23599e-10
5.23599e-10
5.23599e-10
5.23599e-10
5.23599e-10
5.23599e-10
5.23599e-10
5.23599e-10
5.23599e-10
5.23599e-10
5.23599e-10
5.23599e-10
5.23599e-10
5.23599e-10
5.23599e-10
5.23599e-10
5.23599e-10
5.23599e-10
5.23599e-10
5.23599e-10
5.23599e-10
5.23599e-10
5.23599e-10
5.23599e-10
5.23599e-10
5.23599e-10
5.23599e-10
5.23599e-10
5.23599e-10
5.23599e-10
5.23599e-10
5.23599e-10
5.23599e-10
5.23599e-10
5.23599e-10
5.23599e-10
5.23599e-10
5.23599e-10
5.23599e-10
5.23599e-10
5.23599e-10
5.23599e-10
5.23599e-10
5.23599e-10
5.23599e-10
5.23599e-10
5.23599e-10
5.23599e-10
5.23599e-10
5.23599e-10

VECTORS velocity float
0.0112481 -0.00969887 -0.00173182
0.010801 -0.00236053 0.00167841
0.00822515 0.00194153 -0.000657527
0.0113987 -0.00457667 0.000768623
0.00988894 -0.00907306 -0.00163314
-1.70745e-14 2.22721e-14 -2.33438e-13
0.0110386 -0.00310757 0.000529851
-8.82244e-10 -2.76854e-10 3.78384e-11
0.00948041 -0.00970335 0.00186547
0.0112008 -0.00961099 -0.00173956
0.0111767 -0.0104328 0.00174287
0.0107998 -0.00316389 0.000571436
0.0105516 -0.00926955 -0.00162557
2.71528e-14 -3.54197e-14 3.71231e-13
0.0111143 -0.00583837 0.000963378
2.7246e-13 -1.40964e-12 4.29452e-13
0.0116486 -0.00458542 0.000771173
0.0109192 -0.00929077 0.00191453
-0.000440379 -0.00209806 -0.00884481
0.0112475 -0.00891701 -0.00155034
0.0110811 -0.00582998 0.000961944
0.0112714 -0.00906557 -0.00959807
0.0108664 -0.0091053 0.00187441
0.0111475 -0.0058468 0.000964865
0.0132548 -0.0126221 0.00342309
0.00984086 -0.0101937 -0.00175776
-1.04173e-14 4.89425e-14 2.99225e-13
0.0109009 -0.00318324 0.000569935
0.0099088 -0.00949592 -0.00180306
0.010043 -0.00980745 -0.00176102
0.00972512 -0.00569957 0.000943355
0.00995728 -0.00990543 -0.0016732
0.0111296 -0.00961625 -0.00162317
0.0101702 -0.0100444 0.00195226
0.0117151 -0.00455632 0.00048628
0.0108081 -0.00982934 -0.00133565
0.0107064 -0.0091259 -0.00156173
0.0113258 -0.00989876 -0.00164692
0.0097409 -0.0099656 -0.00157908
-0.000359083 0.00186357 -0.0246947
0.00793804 -0.00408095 0.00126535
0.011219 -0.00333875 0.000274748
0.00977188 -0.00941953 0.00188426
4.62167e-15 -2.87245e-14 -1.68101e-13
-0.0214345 -0.0600823 0.0148203
0.0112487 -0.00586758 0.000968623
0.00847959 -0.00565388 -0.00117673
0.0103357 -0.00915562 -0.00168854
0.00459724 -0.0224901 -0.0242802
3.01661e-05 0.000336146 -6.27693e-05
7.94216e-16 -2.70883e-14 2.2187e-13
0.0109637 -0.0101389 0.000119752
-6.92476e-10 -2.17109e-10 2.98228e-11
0.0109914 -0.00573877 0.000946742
0.0105803 -0.00965213 -0.00151933
0.0114788 -0.00386488 0.000370353
0.0059369 0.125916 -0.100014
-1.04257e-14 4.89512e-14 2.99223e-13
-1.04171e-14 4.89423e-14 2.99225e-13
0.00183866 0.0696371 -0.163858
0.0111811 -0.00585432 0.000966197
-0.00279381 0.1252 -0.14509
1.04721e-14 -4.91993e-14 -3.00794e-13
0.0113161 -0.0058812 0.000971064
0.0106286 -0.00986945 0.00181755
0.00241828 -0.0319098 0.00136137
4.66429e-10 -1.55093e-09 -3.14624e-10
8.79592e-09 -4.12539e-08 7.05389e-09
-1.70737e-14 2.22719e-14 -2.33438e-13
-1.04176e-14 4.89426e-14 2.99225e-13
3.43032e-05 -0.00327546 -0.00689233
0.00133342 -0.0753992 0.0186871
0.0108847 -0.00317264 0.000567743
-0.000114146 -0.00165873 0.00120126
0.0112486 -0.00637017 0.0010316
0.0108732 -0.00315744 0.00056199
0.0108226 -0.00313476 0.000547271
7.71907e-09 4.61178e-09 8.59497e-10
0.0112148 -0.00586109 0.000967422
0.0112826 -0.00587418 0.000969771
0.00677081 -0.00245706 -0.000729657
0.0167823 -0.0128584 -0.00222942
0.0101175 -0.0098658 0.00188121
0.0106588 -0.00914481 -0.00100917
0.0165017 0.0191888 -0.0425826
-1.7074e-14 2.22724e-14 -2.33438e-13
0.0116684 -0.00457032 0.000768864
0.00874134 -0.00906513 0.00189233
-1.08059e-14 5.07655e-14 2.98913e-13
0.0101568 -0.0102718 0.000363365
0.0111557 -0.00927637 -0.00164027
0.0109346 -0.00879789 0.00181982
0.00932693 -0.00547226 -0.00111067
0.0106531 -0.0101498 -0.00177919
0.0104943 -0.00707299 -0.00170893
0.00947216 -0.00886554 -0.00149928
0.0106458 -0.0102703 -0.00180798
-1.7075e-14 2.22721e-14 -2.33438e-13
-8.1795e-14 -7.95161e-14 -2.38415e-13
-0.000242311 0.00113924 0.00425431
0.0104665 -0.00804224 -0.00174778
-1.69544e-14 2.19625e-14 -2.33476e-13
3.89714e-15 -1.63648e-14 -1.01049e-13
3.13432e-15 -1.66885e-14 -1.01023e-13
0.0106144 -0.00922483 0.00190425
-0.000361532 0.00143896 -0.0112071
0.0108154 -0.00313184 0.000547639
0.0102836 -0.00802982 -0.00152658
-1.70064e-14 2.22918e-14 -2.33441e-13
-0.000402339 -0.00166794 0.000510728
0.0101677 -0.00991956 0.00198126
0.0105399 -0.0075564 -0.00150475
0.0107558 -0.0098398 -0.00154985
-1.94764e-11 9.15003e-11 -1.55921e-11
0.00789905 -0.00835702 -0.00086001
0.0123082 -0.0116923 -0.00195165
4.51466e-15 -2.80356e-14 -1.68222e-13
0.000818487 -0.0133133 -0.0124077
0.00952008 -0.00968443 -0.00158157
0.0111131 -0.0106462 -0.00270643
-1.04178e-14 4.89424e-14 2.99225e-13
-1.70723e-14 2.22731e-14 -2.33438e-13
0.00948747 -0.00984626 -0.00163671
-1.70751e-14 2.22711e-14 -2.33438e-13
-1.0537e-14 4.9496e-14 2.9913e-13
0.0104212 -0.00760484 -0.00148206
-1.16351e-12 1.51776e-12 5.29004e-13
1.04718e-14 -4.91992e-14 -3.00794e-13
0.0115312 -0.00480569 -0.00136927
-1.04174e-14 4.89424e-14 2.99225e-13
8.40986e-10 -3.95097e-09 6.75748e-10
-1.70742e-14 2.22732e-14 -2.33437e-13
0.00964917 -0.00276734 -0.000969698
0.00864198 -0.00100095 -0.000729647
-1.70745e-14 2.22721e-14 -2.33438e-13
1.04727e-14 -4.91991e-14 -3.00794e-13
-7.48704e-08 -2.69239e-08 8.84361e-10
0.00640135 -0.00306121 0.000779446
-1.04179e-14 4.89423e-14 2.99225e-13
-0.000759096 -0.00523848 -0.00977046
-1.0418e-14 4.89423e-14 2.99225e-13
-1.29495e-11 1.68922e-11 2.52282e-12
-0.000243033 -0.00212759 -0.0037766
0.0610311 0.0116214 0.0405701
-2.55915e-06 0.0257635 -0.0231111
6.1978e-13 -2.91223e-12 6.76721e-13
0.00645421 -0.00143118 0.000254803
-0.000189841 -0.00309509 -0.00182863
8.35501e-05 0.000503675 -0.00358416
-0.000259594 0.00115433 0.00472279
0.0125374 -0.0101402 -0.00203106
0.00455787 0.00409747 -0.155276
0.0309849 0.00921431 -0.0245026
0.000595042 -0.00321803 -0.00528506
1.52843e-07 -1.74198e-06 2.90247e-07
-0.0147395 0.0751535 -0.185448
-0.0178338 0.189939 0.0153973
0.00699015 0.0861367 -0.122407
0.00566476 0.0167551 0.0406984
-0.0268046 -0.121066 -0.0153887
0.0359193 0.205814 -0.200986
0.0531201 0.0173373 -0.149602
0.0107232 -0.00900536 -0.00145234
0.0073566 -0.0920731 -0.0110178
-0.00556763 0.0297284 -0.0386679
0.0108754 -0.122094 -0.11789
0.013022 -0.0112998 0.000779681
0.000344772 -0.0914805 -0.0551564
0.0877424 0.0413142 -0.00651788
-0.00392495 -0.103235 0.0430857
-0.000537246 -0.00352165 0.00584775
0.00261182 -0.00257583 -0.00900955
-2.10587e-14 3.03853e-14 -2.32372e-13
0.007977 -0.0806889 -0.0607689
-0.106707 -0.055947 -0.00105278
-1.04194e-14 4.89425e-14 2.99225e-13
-0.0042757 -0.109973 -0.0455182
0.00893926 -0.0587795 0.0101317
0.00812075 -0.0897622 0.0319843
0.00138341 -0.100533 -0.00994253
-1.70634e-14 2.22578e-14 -2.3344e-13
0.00162154 -0.0821135 0.0449459
-0.0436032 -0.00134013 0.0958752
-0.000115893 -0.0898629 -0.0784995
0.03661 -0.0300134 0.200847
-0.00029142 0.001814 -0.00323267
0.0135645 -0.10189 -0.0768308
0.00164649 -0.0136511 -0.112686

VECTORS force float
6.18612e-09 -4.98249e-09 1.44534e-09
-1.1735e-09 1.03615e-09 2.02157e-09
0.0 0.0 -5.1365e-09
-2.02488e-11 3.55685e-12 -9.18926e-13
-3.20054e-09 -6.961e-09 -2.08215e-09
5.63517e-24 4.1359e-24 0.0
-1.08309e-09 2.77924e-10 -3.56383e-11
1.01084e-14 3.17827e-15 -4.35405e-16
5.33074e-09 -1.72657e-08 1.34911e-08
-5.05322e-09 1.03048e-08 9.89314e-10
-1.88038e-08 2.05052e-08 3.06065e-08
-9.08527e-10 -6.95942e-10 6.26844e-10
-2.63551e-09 2.01438e-09 4.03222e-09
-2.37814e-24 9.71937e-24 8.27181e-25
7.91037e-12 -4.16299e-12 7.31149e-13
5.25541e-18 -2.20414e-17 -6.94317e-18
-8.84049e-11 9.92658e-12 -2.22915e-12
-1.07658e-09 1.6445e-09 -2.90494e-10
0.0 0.0 -5.1365e-09
0.0 0.0 -5.1365e-09
7.65248e-12 -1.16349e-11 1.73044e-12
0.0 0.0 -5.1365e-09
1.3307e-09 -2.89611e-10 1.7321e-10
9.93291e-12 6.45774e-12 -9.06291e-13
0.0 0.0 -5.1365e-09
-3.35721e-08 2.60516e-08 6.28687e-09
-1.49926e-23 -3.20532e-24 0.0
7.6639e-10 -1.27916e-09 -8.89591e-11
-1.75088e-09 1.34237e-09 5.42728e-09
-4.10433e-09 3.02784e-10 1.77459e-09
-1.08122e-09 1.20996e-09 -2.14184e-10
0.0 0.0 -5.1365e-09
-1.05739e-08 3.73591e-09 2.15349e-10
1.38674e-08 -1.65175e-08 -2.25818e-09
1.2409e-10 -4.4923e-11 3.89801e-11
5.03288e-09 -7.32082e-09 -1.82654e-09
3.11923e-09 5.08349e-10 -8.45886e-09
-6.33914e-11 4.88731e-11 -4.91519e-09
-5.91627e-11 3.75447e-09 8.56282e-10
0.0 0.0 -5.1365e-09
0.0 0.0 -5.1365e-09
1.43837e-11 -8.67223e-12 1.03832e-12
-1.96165e-09 2.53357e-09 -5.32294e-10
1.21492e-24 1.13737e-24 0.0
0.0 0.0 -5.1365e-09
6.04616e-12 4.43876e-12 -2.88402e-12
1.55641e-09 -2.17337e-09 -2.32904e-09
-1.95604e-09 1.53415e-09 1.74079e-09
0.0 0.0 -5.1365e-09
-3.00083e-10 -1.24631e-09 -1.00961e-09
4.892e-24 0.0 0.0
-2.91175e-09 -5.3273e-09 1.16874e-08
1.26603e-14 3.96647e-15 -5.43353e-16
-2.30215e-09 1.92923e-09 -2.76144e-10
8.52421e-09 2.44776e-09 -2.246e-09
-2.00337e-09 1.54594e-09 -3.38529e-10
0.0 0.0 -5.1365e-09
-4.52364e-24 -2.6263e-22 4.30134e-23
1.60008e-23 5.16988e-25 0.0
0.0 0.0 -5.1365e-09
9.65225e-12 1.21678e-11 -1.79534e-12
0.0 0.0 -5.1365e-09
3.95496e-24 7.44463e-24 -8.27181e-25
-7.39023e-12 -9.87889e-12 1.86933e-12
2.7184e-08 -1.26167e-08 -6.91729e-09
0.0 0.0 -5.1365e-09
-8.93296e-15 2.97031e-14 6.02163e-15
-2.4483e-13 1.15492e-12 -1.97413e-13
1.16839e-23 1.12703e-23 0.0
-6.46235e-25 6.82424e-24 -1.65436e-24
0.0 0.0 -5.1365e-09
0.0 0.0 -5.1365e-09
2.71393e-09 5.9385e-10 7.32838e-10
4.31594e-08 2.99955e-10 -1.37794e-08
-2.47257e-09 2.16326e-09 1.44852e-10
1.45737e-09 2.27197e-10 -8.57497e-11
2.84506e-10 -1.69551e-10 8.46749e-11
1.34934e-12 5.46337e-13 -2.31905e-14
7.80565e-12 1.1854e-11 -5.81215e-13
-1.1752e-12 -1.54155e-12 7.76552e-13
-1.96432e-09 5.07342e-10 1.92078e-10
0.0 0.0 -5.1365e-09
-5.21367e-10 6.31285e-10 -1.9086e-09
-3.5054e-09 -2.24011e-10 -4.90462e-10
0.0 0.0 -5.1365e-09
1.55096e-24 1.86116e-24 0.0
8.1049e-12 8.39253e-11 -1.37335e-11
6.97434e-09 1.13599e-08 -7.89477e-09
-5.31794e-21 2.46401e-20 -4.21449e-21
3.19366e-09 9.44389e-09 1.25281e-08
-1.22446e-08 -1.40969e-08 -2.1487e-09
-5.5441e-10 8.20287e-10 -2.49722e-09
-1.33168e-09 5.88173e-10 -1.21277e-09
-3.24073e-09 3.71581e-09 -1.43932e-09
1.74134e-08 -2.24809e-08 -8.30817e-09
-1.81024e-09 1.52715e-09 1.43104e-09
-2.95489e-09 6.82013e-09 -1.8403e-10
1.88701e-23 -2.14033e-23 -3.30872e-24
-1.82358e-18 -2.89112e-18 -1.42464e-19
0.0 0.0 -5.1365e-09
2.25031e-08 4.16766e-09 8.58519e-09
-1.82647e-21 5.93833e-21 7.00622e-22
2.17881e-20 9.2439e-21 -7.53562e-22
-2.20764e-20 -9.36648e-21 7.63488e-22
-2.97741e-09 3.54785e-09 1.57287e-09
0.0 0.0 -5.1365e-09
-2.7955e-10 -3.32659e-10 -4.52334e-10
7.67636e-10 2.19368e-09 -5.17227e-10
-1.07745e-21 -1.6585e-21 -7.94093e-23
0.0 0.0 -5.1365e-09
-2.58617e-09 1.18263e-09 -1.85013e-09
-2.0748e-09 1.22068e-09 1.44455e-09
0.0 0.0 -5.1365e-09
1.77497e-15 -8.33891e-15 1.42733e-15
0.0 0.0 -5.1365e-09
-4.13558e-09 3.51537e-09 9.91831e-09
-1.39711e-21 9.0323e-21 -1.58157e-21
0.0 0.0 -5.1365e-09
-8.15477e-09 5.40884e-09 1.0716e-08
6.63889e-10 2.91437e-09 5.66388e-09
-2.32645e-23 -6.20385e-24 0.0
-5.42837e-24 -7.13443e-24 -8.27181e-25
1.76762e-09 8.47399e-09 5.77713e-09
-4.75629e-24 -4.4461e-24 8.27181e-25
1.97223e-21 -5.45464e-21 9.60357e-22
-1.35018e-09 8.14181e-10 -8.21203e-10
-9.02194e-17 1.17678e-16 6.83232e-18
1.27438e-23 2.99853e-24 0.0
-5.28594e-09 3.65544e-09 2.90505e-09
1.21234e-23 -1.13737e-24 1.65436e-24
-2.5064e-14 1.17752e-13 -2.0136e-14
5.29396e-23 1.7164e-23 -2.48154e-24
-2.06274e-09 2.20298e-10 1.58522e-10
-2.14046e-09 -1.83687e-10 1.08962e-10
2.63664e-23 1.91286e-23 0.0
2.86153e-23 4.3427e-24 8.27181e-25
-3.08411e-12 -1.15087e-12 6.15693e-14
-2.05538e-09 1.36908e-09 -1.28576e-09
9.90032e-24 3.92911e-24 0.0
0.0 0.0 -5.1365e-09
-2.11448e-23 -9.30578e-25 -8.27181e-25
7.35274e-16 -9.59137e-16 -1.42717e-16
1.40815e-11 2.81502e-10 3.84886e-10
0.0 0.0 -5.1365e-09
0.0 0.0 -5.1365e-09
-5.38119e-18 2.52989e-17 -7.36572e-18
-1.12123e-09 8.56724e-10 -1.38726e-10
0.0 0.0 -5.1365e-09
0.0 0.0 -5.1365e-09
0.0 0.0 -5.1365e-09
0.0 0.0 -5.1365e-09
0.0 0.0 -5.1365e-09
0.0 0.0 -5.1365e-09
-4.03303e-10 -2.96092e-09 4.94587e-09
2.19402e-11 1.65974e-11 -1.95089e-12
0.0 0.0 -5.1365e-09
0.0 0.0 -5.1365e-09
0.0 0.0 -5.1365e-09
0.0 0.0 -5.1365e-09
0.0 0.0 -5.1365e-09
0.0 0.0 -5.1365e-09
0.0 0.0 -5.1365e-09
-8.76249e-09 2.61029e-09 -1.57757e-09
0.0 0.0 -5.1365e-09
0.0 0.0 -5.1365e-09
0.0 0.0 -5.1365e-09
0.0 0.0 -5.1365e-09
0.0 0.0 -5.1365e-09
0.0 0.0 -5.1365e-09
0.0 0.0 -5.1365e-09
-3.15647e-11 -2.89589e-10 5.0455e-10
0.0 0.0 -5.1365e-09
5.42315e-19 -1.09713e-19 -5.01338e-20
0.0 0.0 -5.1365e-09
0.0 0.0 -5.1365e-09
-1.08206e-22 -1.32349e-23 -1.65436e-24
0.0 0.0 -5.1365e-09
0.0 0.0 -5.1365e-09
0.0 0.0 -5.1365e-09
0.0 0.0 -5.1365e-09
1.03398e-25 5.16988e-25 8.27181e-25
0.0 0.0 -5.1365e-09
0.0 0.0 -5.1365e-09
0.0 0.0 -5.1365e-09
0.0 0.0 -5.1365e-09
0.0 0.0 -5.1365e-09
0.0 0.0 -5.1365e-09
0.0 0.0 -5.1365e-09
