# vtk DataFile Version 3.0
LIGGGHTS particles timestep 2600000
ASCII
DATASET POLYDATA
POINTS 188 float
0.0441561 0.016483 0.00772116
0.0499438 0.016413 0.00794849
0.0439096 0.0158921 0.00825257
0.0503147 0.0179718 0.00703398
0.0440424 0.0167894 0.00761135
0.0444789 0.0175408 0.00739423
0.0499641 0.0164786 0.00787571
0.0443192 0.0172288 0.00748117
0.0437487 0.0157056 0.0085093
0.0440615 0.0164513 0.00772813
0.0439859 0.0161262 0.0079374
0.0500011 0.0166105 0.00772997
0.0440815 0.0169756 0.00754908
0.0445213 0.0177281 0.00733842
0.0501708 0.0173217 0.00724281
0.0444156 0.0180404 0.00723342
0.050475 0.0182885 0.00697049
0.0438126 0.0158801 0.00827385
0.0382702 0.0173087 0.00722942
0.0441167 0.0162966 0.0077835
0.0501511 0.0172304 0.00727869
0.0442445 0.0172906 0.00745675
0.0438318 0.0159386 0.00819505
0.0501904 0.0174133 0.00720803
0.0438702 0.0160556 0.00803747
0.0439069 0.0161734 0.00787901
0.0446071 0.0181026 0.00722688
0.0500191 0.0166765 0.00765708
0.0441003 0.0166374 0.00766588
0.0440229 0.0166963 0.00764249
0.0500732 0.0168751 0.00743879
0.0440809 0.0165444 0.007697
0.0440419 0.0163583 0.00775922
0.0439692 0.0160673 0.00801651
0.050358 0.0181637 0.00699798
0.0440227 0.0162734 0.00780841
0.0441755 0.016576 0.00769004
0.0441799 0.0170094 0.00754154
0.0439841 0.0165102 0.00770474
0.0444589 0.0182276 0.00717771
0.0443619 0.0174161 0.00742539
0.0504014 0.0183556 0.00696197
0.0439308 0.0159513 0.0081748
0.0442744 0.017818 0.00729355
0.0381711 0.0173218 0.00722559
0.0502502 0.0176882 0.00710382
0.0442144 0.0167621 0.00762781
0.0441949 0.0166691 0.00765892
0.0442659 0.0173842 0.00742886
0.0442115 0.0163277 0.00777672
0.0380142 0.016622 0.0075802
0.0440045 0.016194 0.00786636
0.0443833 0.0175097 0.00739751
0.0501149 0.0170462 0.00734758
0.0441026 0.0170683 0.00751813
0.0503797 0.0182597 0.00697997
0.0442529 0.0177242 0.00732149
0.0443516 0.017759 0.00731725
0.0445845 0.017229 0.00749906
0.0441885 0.017443 0.00740521
0.05021 0.017505 0.00717324
0.0444891 0.0171978 0.00750237
0.0445525 0.0174779 0.00741893
0.050293 0.0178759 0.00705199
0.0440957 0.016207 0.007824
0.0382104 0.0174967 0.00713697
0.0380532 0.016797 0.00749153
0.0443941 0.0179468 0.0072613
0.0443406 0.0173224 0.00745329
0.0446376 0.0178527 0.00730725
0.0382302 0.0175866 0.00709788
0.0383154 0.0179573 0.00697419
0.049983 0.0165445 0.00780286
0.0380729 0.0168844 0.00744721
0.0500923 0.0169551 0.00738191
0.0500374 0.0167425 0.0075842
0.0500557 0.0168085 0.00751136
0.0442315 0.0176305 0.00734937
0.0502301 0.0175966 0.00713852
0.0502714 0.0177799 0.00707003
0.0443298 0.0168858 0.00759106
0.044124 0.0171615 0.00748903
0.0440848 0.0161475 0.00790365
0.0441952 0.0169844 0.00763715
0.044167 0.0173493 0.00743312
0.0443507 0.0169791 0.00756154
0.0503363 0.0180678 0.00701598
0.0437704 0.0157637 0.00843087
0.044733 0.0178828 0.00730429
0.0438889 0.0161142 0.00795861
0.0441367 0.0163895 0.00775245
0.043851 0.0159971 0.00811626
0.0442977 0.0171352 0.00750905
0.0439645 0.0164173 0.00773615
0.044223 0.017197 0.00748463
0.0442706 0.0166067 0.00768345
0.0439446 0.0163243 0.0077669
0.0444147 0.0172599 0.00747788
0.0446163 0.0177591 0.00733514
0.0445739 0.0175716 0.00739102
0.0442512 0.0165136 0.00771457
0.0444473 0.0177907 0.0073138
0.0445632 0.0171354 0.00752696
0.0445204 0.0169481 0.00758273
0.0437921 0.0158218 0.00835245
0.0445859 0.0180089 0.0072548
0.050226 0.0171706 0.00730728
0.0441393 0.0168235 0.00760363
0.0444462 0.0170106 0.00755818
0.0441456 0.0172557 0.007461
0.0439504 0.0160097 0.00809604
0.0444045 0.0168235 0.00761566
0.0439247 0.0162321 0.00780004
0.0446597 0.0179462 0.00727946
0.0442013 0.0171027 0.00751269
0.0442549 0.0169478 0.00756575
0.0444897 0.017978 0.00725799
0.044296 0.0179122 0.00726549
0.0440035 0.0166032 0.00767361
0.0441197 0.0167305 0.00763476
0.0444262 0.017697 0.00734172
0.0443095 0.0167928 0.00762141
0.044062 0.0168824 0.00758023
0.0444048 0.0176033 0.00736962
0.0447548 0.0179771 0.00727621
0.0441588 0.0169166 0.00757249
0.0442872 0.0174779 0.00740096
0.0445418 0.0170417 0.00755485
0.0442339 0.0168551 0.0075967
0.0445423 0.0178218 0.00731049
0.0445002 0.0176344 0.00736634
0.0443933 0.0171663 0.00750576
0.0444677 0.0171042 0.00753026
0.0444249 0.0169168 0.00758609
0.0443086 0.0175715 0.00737308
0.0446286 0.0181962 0.007199
0.0443301 0.0176651 0.0073452
0.0441907 0.0162339 0.00780805
0.0446811 0.01804 0.00725152
0.0382152 0.0170949 0.00733796
0.0443776 0.0166556 0.00767107
0.0443718 0.0170727 0.00753367
0.0383582 0.0181427 0.00691234
0.0382726 0.017772 0.00703601
0.0444574 0.0174472 0.00742211
0.0445119 0.0180715 0.00723019
0.0501315 0.0171383 0.00731237
0.050423 0.0184516 0.00694396
0.0502653 0.0173541 0.00723766
0.0443729 0.0178528 0.00728929
0.0442763 0.0170412 0.00753704
0.0444683 0.0178844 0.00728587
0.0442999 0.017027 0.00763315
0.0383144 0.0175355 0.0071189
0.0443459 0.0165455 0.00770756
0.0445331 0.0181652 0.00720228
0.0383368 0.01805 0.00694326
0.0443298 0.0164383 0.00774365
0.0502457 0.0172624 0.00727245
0.0445545 0.0182588 0.00717439
0.0443113 0.017886 0.00736077
0.0444808 0.0183217 0.0071497
0.0442314 0.0164207 0.00774565
0.0381318 0.0171469 0.00731423
0.0445107 0.0172918 0.00747439
0.0381908 0.0174092 0.00718126
0.0441742 0.0168917 0.00766809
0.0443391 0.0181002 0.0072095
0.0444994 0.0168544 0.00761067
0.0381944 0.0170037 0.0073842
0.0443177 0.0180066 0.00723738
0.0380925 0.0169719 0.00740288
0.0442898 0.0166997 0.00765232
0.0444033 0.0183803 0.00712609
0.0381122 0.0170594 0.00735855
0.044436 0.0173536 0.00744998
0.0444377 0.0181338 0.00720563
0.0381515 0.0172343 0.00726991
0.0382512 0.0176793 0.00706693
0.0443608 0.0181959 0.0071901
0.04421 0.0175369 0.00737725
0.038294 0.0178647 0.0070051
0.0381676 0.0169121 0.00743077
0.0443819 0.0182867 0.00715396
0.0382367 0.0171849 0.00729231
0.0445638 0.0179154 0.0072826
0.0380337 0.0167095 0.00753587
0.0443379 0.0174951 0.0074854

VERTICES 188 376
1 0
1 1
1 2
1 3
1 4
1 5
1 6
1 7
1 8
1 9
1 10
1 11
1 12
1 13
1 14
1 15
1 16
1 17
1 18
1 19
1 20
1 21
1 22
1 23
1 24
1 25
1 26
1 27
1 28
1 29
1 30
1 31
1 32
1 33
1 34
1 35
1 36
1 37
1 38
1 39
1 40
1 41
1 42
1 43
1 44
1 45
1 46
1 47
1 48
1 49
1 50
1 51
1 52
1 53
1 54
1 55
1 56
1 57
1 58
1 59
1 60
1 61
1 62
1 63
1 64
1 65
1 66
1 67
1 68
1 69
1 70
1 71
1 72
1 73
1 74
1 75
1 76
1 77
1 78
1 79
1 80
1 81
1 82
1 83
1 84
1 85
1 86
1 87
1 88
1 89
1 90
1 91
1 92
1 93
1 94
1 95
1 96
1 97
1 98
1 99
1 100
1 101
1 102
1 103
1 104
1 105
1 106
1 107
1 108
1 109
1 110
1 111
1 112
1 113
1 114
1 115
1 116
1 117
1 118
1 119
1 120
1 121
1 122
1 123
1 124
1 125
1 126
1 127
1 128
1 129
1 130
1 131
1 132
1 133
1 134
1 135
1 136
1 137
1 138
1 139
1 140
1 141
1 142
1 143
1 144
1 145
1 146
1 147
1 148
1 149
1 150
1 151
1 152
1 153
1 154
1 155
1 156
1 157
1 158
1 159
1 160
1 161
1 162
1 163
1 164
1 165
1 166
1 167
1 168
1 169
1 170
1 171
1 172
1 173
1 174
1 175
1 176
1 177
1 178
1 179
1 180
1 181
1 182
1 183
1 184
1 185
1 186
1 187

POINT_DATA 188
SCALARS id int 1
LOOKUP_TABLE default
1
2
3
4
5
6
7
8
9
10
11
12
13
14
15
16
17
18
19
20
21
22
23
25
26
27
28
29
30
31
32
33
34
35
36
37
38
39
40
41
42
43
44
45
46
47
48
49
50
51
52
53
54
55
56
57
58
59
60
61
62
63
64
65
66
67
68
69
70
71
72
73
74
75
76
77
78
79
80
81
82
83
84
85
86
87
88
89
90
91
92
93
94
95
96
97
98
99
100
101
102
103
104
105
106
107
108
109
110
111
112
113
114
115
116
117
118
119
120
121
122
123
124
125
126
127
128
129
130
131
132
133
134
135
136
137
138
139
140
141
142
143
144
145
146
147
148
149
150
151
152
153
154
155
156
157
158
159
160
161
162
163
164
165
166
167
168
169
170
171
173
174
175
176
177
178
179
180
181
182
183
184
185
186
187
188
189
190

SCALARS type int 1
LOOKUP_TABLE default
1
1
1
1
1
1
1
1
1
1
1
1
1
1
1
1
1
1
1
1
1
1
1
1
1
1
1
1
1
1
1
1
1
1
1
1
1
1
1
1
1
1
1
1
1
1
1
1
1
1
1
1
1
1
1
1
1
1
1
1
1
1
1
1
1
1
1
1
1
1
1
1
1
1
1
1
1
1
1
1
1
1
1
1
1
1
1
1
1
1
1
1
1
1
1
1
1
1
1
1
1
1
1
1
1
1
1
1
1
1
1
1
1
1
1
1
1
1
1
1
1
1
1
1
1
1
1
1
1
1
1
1
1
1
1
1
1
1
1
1
1
1
1
1
1
1
1
1
1
1
1
1
1
1
1
1
1
1
1
1
1
1
1
1
1
1
1
1
1
1
1
1
1
1
1
1
1
1
1
1
1
1
1
1
1
1
1
1

SCALARS radius float 1
LOOKUP_TABLE default
5e-05
5e-05
5e-05
5e-05
5e-05
5e-05
5e-05
5e-05
5e-05
5e-05
5e-05
5e-05
5e-05
5e-05
5e-05
5e-05
5e-05
5e-05
5e-05
5e-05
5e-05
5e-05
5e-05
5e-05
5e-05
5e-05
5e-05
5e-05
5e-05
5e-05
5e-05
5e-05
5e-05
5e-05
5e-05
5e-05
5e-05
5e-05
5e-05
5e-05
5e-05
5e-05
5e-05
5e-05
5e-05
5e-05
5e-05
5e-05
5e-05
5e-05
5e-05
5e-05
5e-05
5e-05
5e-05
5e-05
5e-05
5e-05
5e-05
5e-05
5e-05
5e-05
5e-05
5e-05
5e-05
5e-05
5e-05
5e-05
5e-05
5e-05
5e-05
5e-05
5e-05
5e-05
5e-05
5e-05
5e-05
5e-05
5e-05
5e-05
5e-05
5e-05
5e-05
5e-05
5e-05
5e-05
5e-05
5e-05
5e-05
5e-05
5e-05
5e-05
5e-05
5e-05
5e-05
5e-05
5e-05
5e-05
5e-05
5e-05
5e-05
5e-05
5e-05
5e-05
5e-05
5e-05
5e-05
5e-05
5e-05
5e-05
5e-05
5e-05
5e-05
5e-05
5e-05
5e-05
5e-05
5e-05
5e-05
5e-05
5e-05
5e-05
5e-05
5e-05
5e-05
5e-05
5e-05
5e-05
5e-05
5e-05
5e-05
5e-05
5e-05
5e-05
5e-05
5e-05
5e-05
5e-05
5e-05
5e-05
5e-05
5e-05
5e-05
5e-05
5e-05
5e-05
5e-05
5e-05
5e-05
5e-05
5e-05
5e-05
5e-05
5e-05
5e-05
5e-05
5e-05
5e-05
5e-05
5e-05
5e-05
5e-05
5e-05
5e-05
5e-05
5e-05
5e-05
5e-05
5e-05
5e-05
5e-05
5e-05
5e-05
5e-05
5e-05
5e-05
5e-05
5e-05
5e-05
5e-05
5e-05
5e-05
5e-05
5e-05
5e-05
5e-05
5e-05
5e-05

SCALARS mass float 1
LOOKUP_TABLE default
5.23599e-10
5.23599e-10
5.23599e-10
5.23599e-10
5.23599e-10
5.23599e-10
5.23599e-10
5.23599e-10
5.23599e-10
5.23599e-10
5.23599e-10
5.23599e-10
5.23599e-10
5.23599e-10
5.23599e-10
5.23599e-10
5.23599e-10
5.23599e-10
5.23599e-10
5.23599e-10
5.23599e-10
5.23599e-10
5.23599e-10
5.23599e-10
5.23599e-10
5.23599e-10
5.23599e-10
5.23599e-10
5.23599e-10
5.23599e-10
5.23599e-10
5.23599e-10
5.23599e-10
5.23599e-10
5.23599e-10
5.23599e-10
5.23599e-10
5.23599e-10
5.23599e-10
5.23599e-10
5.23599e-10
5.23599e-10
5.23599e-10
5.23599e-10
5.23599e-10
5.23599e-10
5.23599e-10
5.23599e-10
5.23599e-10
5.23599e-10
5.23599e-10
5.23599e-10
5.23599e-10
5.23599e-10
5.23599e-10
5.23599e-10
5.23599e-10
5.23599e-10
5.23599e-10
5.23599e-10
5.23599e-10
5.23599e-10
5.23599e-10
5.23599e-10
5.23599e-10
5.23599e-10
5.23599e-10
5.23599e-10
5.23599e-10
5.23599e-10
5.23599e-10
5.23599e-10
5.23599e-10
5.23599e-10
5.23599e-10
5.23599e-10
5.23599e-10
5.23599e-10
5.23599e-10
5.23599e-10
5.23599e-10
5.23599e-10
5.23599e-10
5.23599e-10
5.23599e-10
5.23599e-10
5.23599e-10
5.23599e-10
5.23599e-10
5.23599e-10
5.23599e-10
5.23599e-10
5.23599e-10
5.23599e-10
5.23599e-10
5.23599e-10
5.23599e-10
5.23599e-10
5.23599e-10
5.23599e-10
5.23599e-10
5.23599e-10
5.23599e-10
5.23599e-10
5.23599e-10
5.23599e-10
5.23599e-10
5.23599e-10
5.23599e-10
5.23599e-10
5.23599e-10
5.23599e-10
5.23599e-10
5.23599e-10
5.23599e-10
5.23599e-10
5.23599e-10
5.23599e-10
5.23599e-10
5.23599e-10
5.23599e-10
5.23599e-10
5.23599e-10
5.23599e-10
5.23599e-10
5.23599e-10
5.23599e-10
5.23599e-10
5.23599e-10
5.23599e-10
5.23599e-10
5.23599e-10
5.23599e-10
5.23599e-10
5.23599e-10
5.23599e-10
5.23599e-10
5.23599e-10
5.23599e-10
5.23599e-10
5.23599e-10
5.23599e-10
5.23599e-10
5.23599e-10
5.23599e-10
5.23599e-10
5.23599e-10
5.23599e-10
5.23599e-10
5.23599e-10
5.23599e-10
5.23599e-10
5.23599e-10
5.23599e-10
5.23599e-10
5.23599e-10
5.23599e-10
5.23599e-10
5.23599e-10
5.23599e-10
5.23599e-10
5.23599e-10
5.23599e-10
5.23599e-10
5.23599e-10
5.23599e-10
5.23599e-10
5.23599e-10
5.23599e-10
5.23599e-10
5.23599e-10
5.23599e-10
5.23599e-10
5.23599e-10
5.23599e-10
5.23599e-10
5.23599e-10
5.23599e-10
5.23599e-10
5.23599e-10
5.23599e-10
5.23599e-10
5.23599e-10
5.23599e-10
5.23599e-10
5.23599e-10
5.23599e-10
5.23599e-10

VECTORS velocity float
0.0107723 -0.00127898 0.000891885
0.0118638 -0.00144374 -0.000397633
0.0114396 -0.000987358 0.00069449
0.0127256 -0.000390199 -0.000460813
0.0112117 -0.000923542 0.000729021
0.0117589 -0.00108147 0.0011291
0.0116339 -0.000999597 -0.000813614
0.0115722 -0.000971583 0.00109132
0.0122367 -0.00111707 0.000813883
0.0105403 -0.0010504 0.000779166
0.0112047 -0.000991539 0.000737773
0.0111427 -0.000847072 -0.000882495
0.0109711 -0.00090197 0.000765405
0.0118106 -0.00108436 0.00113801
0.0116072 0.000589786 0.000670946
0.0119697 -0.00105162 0.00113923
0.0127547 -0.000415683 -0.000495496
0.0113472 -0.000934973 0.000649674
0.0119689 0.00296841 -0.00179773
0.0113617 -0.00107695 0.000843366
0.0116 0.000626032 0.000414633
0.011598 -0.000936384 0.00107781
0.0114811 -0.00096584 0.000635255
0.0115981 0.000329121 0.000806984
0.0113268 -0.00102984 0.000696472
0.0113689 -0.00107426 0.000822932
0.0119994 -0.00111037 0.00116055
0.0111642 -0.000832044 -0.000946205
0.0110044 -0.000919332 0.000771447
0.0110016 -0.000921948 0.000770456
0.011786 -0.000169702 -5.39002e-05
0.0109342 -0.00103394 0.000766514
0.0113728 -0.00106328 0.000826899
0.0110698 -0.000963976 0.00069802
0.0127385 -0.000367565 -0.000528558
0.0113284 -0.00104603 0.000773173
0.0111181 -0.0012595 0.000898339
0.0115125 -0.00110648 0.000847774
0.0110574 -0.000862179 0.000745537
0.0120659 -0.00104783 0.00114465
0.0117087 -0.00103969 0.00112116
0.0127359 -0.000408004 -0.000517706
0.0113324 -0.000896118 0.000728253
0.0118363 -0.00103008 0.00112353
0.0116084 -0.000299832 -0.000196932
0.0125346 0.000272165 0.000855146
0.0113416 -0.00109993 0.000841029
0.0111204 -0.00118914 0.000879196
0.0116708 -0.00095376 0.00108859
0.011356 -0.00116102 0.000874649
0.0117393 -1.56079e-05 -0.00027588
0.011213 -0.00103503 0.000728908
0.0117376 -0.00112975 0.00115233
0.0114761 0.000597084 0.000669325
0.0114801 -0.00110114 0.000852171
0.0127008 -0.000429646 -0.000504813
0.0117608 -0.00119055 0.00116724
0.0118251 -0.00103235 0.00112309
0.0116101 -0.00115745 0.00114501
0.0116755 -0.000954901 0.00108848
0.0116497 -5.59509e-05 0.000934468
0.0115765 -0.00108476 0.00113347
0.0117307 -0.00112187 0.00114283
0.0127268 -0.000393483 -0.000564709
0.0112418 -0.00109378 0.000805386
0.0116669 -0.000162954 -0.000167047
0.0116699 -0.000138943 -0.000242512
0.0119134 -0.00104297 0.00113299
0.0116417 -0.000994628 0.00109967
0.0118728 -0.00115874 0.00116713
0.0115782 0.000145297 0.000442936
0.0129616 8.56917e-05 0.000502885
0.0110004 -0.00099253 -0.000722178
0.0115366 9.76094e-05 -0.000356178
0.0115109 0.000580699 0.000810182
0.0112252 -0.00101895 -0.000846396
0.0113694 -0.000819164 -0.000631233
0.011719 -0.00112764 0.00114645
0.011744 0.000513277 0.000801138
0.0120568 -0.000150645 -0.000204894
0.0113639 -0.00099159 0.00109106
0.0115124 -0.0010371 0.00110445
0.0111477 -0.00107978 0.000805493
0.0115319 -0.00116634 0.000826126
0.0116331 -0.00091316 0.00107325
0.0114816 -0.000994238 0.00109698
0.0126777 -0.000350578 -0.000517443
0.0121595 -0.00112528 0.000843616
0.0118669 -0.0011308 0.00115676
0.0112237 -0.001 0.000728112
0.0114402 -0.00106217 0.000832274
0.0115372 -0.00107061 0.000648438
0.0115439 -0.000956428 0.00110745
0.0114066 -0.00100742 0.000841415
0.011591 -0.00093495 0.00108097
0.0111602 -0.000999456 0.000809687
0.0113617 -0.00103864 0.000843453
0.0116072 -0.00103709 0.00111119
0.0118275 -0.00114376 0.00115838
0.0117436 -0.00111286 0.0011433
0.0112982 -0.00100898 0.000826006
0.0118429 -0.00104858 0.00112956
0.0115381 -0.00115753 0.00113565
0.0114304 -0.00112243 0.0011122
0.0120635 -0.00120248 0.000922386
0.0119332 -0.0010732 0.00114408
0.011793 0.00081322 0.000657084
0.0111331 -0.00110913 0.000808385
0.011475 -0.00105749 0.00106483
0.0116064 -0.000912887 0.00106906
0.0111308 -0.000789355 0.000795705
0.0112763 -0.00117866 0.000670911
0.0114418 -0.00107619 0.000842673
0.011875 -0.00113064 0.00115805
0.0115042 -0.00100298 0.00109082
0.0115858 -0.00104103 0.000826142
0.0119464 -0.00107501 0.00114548
0.0118906 -0.00098679 0.00110998
0.0109885 -0.000796955 0.000686158
0.0111496 -0.00122105 0.00089091
0.0118024 -0.00104938 0.00112911
0.0112055 -0.000988605 0.000972499
0.0109428 -0.00123145 0.000889505
0.0118385 -0.00106351 0.00113314
0.0119009 -0.00121092 0.00118497
0.0109326 -0.000898147 0.000747205
0.0116979 -0.00110247 0.00113545
0.0113529 -0.00113822 0.00111684
0.0111572 -0.000998637 0.000797685
0.011841 -0.00111642 0.00115151
0.0117818 -0.00107858 0.00113959
0.0115438 -0.00100617 0.00109863
0.0114697 -0.00105345 0.0011148
0.0114279 -0.00102934 0.00113156
0.011728 -0.00111436 0.0011404
0.0120471 -0.00111857 0.0011656
0.0118072 -0.00112389 0.00115363
0.0113056 -0.00114191 0.000839821
0.0119424 -0.0011682 0.00117386
0.0113114 0.00613871 -0.00338296
0.0111083 -0.00113503 0.000852752
0.0115005 -0.00100014 0.00108638
0.0130457 6.50144e-05 0.000515004
0.0128012 2.13313e-05 0.000549624
0.0117103 -0.00107055 0.00112907
0.0119646 -0.001047 0.00113792
0.0115833 0.000658712 0.000648414
0.0128058 -0.000325674 -0.000531157
0.0117385 0.000671847 0.000680735
0.0118706 -0.00100875 0.00111965
0.0114878 -0.000996715 0.00108445
0.0118914 -0.00106172 0.0011382
0.0115049 -0.000941454 0.00109135
0.0130002 0.00116497 0.000177356
0.0112136 -0.000889191 0.000745507
0.0120523 -0.00105975 0.00114773
0.0129909 -9.91676e-05 0.000573285
0.0107448 0.00316949 -0.000635527
0.0115843 0.000748803 0.000630452
0.0120631 -0.00110063 0.00116165
0.0118479 -0.000997143 0.00110197
0.0120842 -0.00107998 0.00115613
0.0114693 -0.00103686 0.00084015
0.011679 -0.000139079 -0.000261148
0.0116356 -0.00110537 0.00113115
0.0116043 -0.000228653 -0.000181801
0.0109441 -0.000957036 0.000719563
0.0119697 -0.0010518 0.00113914
0.0113164 -0.00108656 0.00111378
0.0132948 0.00475382 -0.00274399
0.0119217 -0.00104879 0.00113567
0.00901649 0.00141651 -0.000913836
0.0111385 -0.00101888 0.000848376
0.0120974 -0.00106689 0.00115259
0.0116071 -4.84934e-05 -0.000287002
0.0116677 -0.00106019 0.00112424
0.0119789 -0.00104619 0.00113729
0.0118093 -0.000174044 -0.00020314
0.0127999 -4.31595e-05 0.000534326
0.0119837 -0.00105291 0.00113709
0.0116617 -0.00118707 0.00116145
0.0128545 3.48119e-05 0.000502762
0.012038 0.00568981 -0.00319154
0.0120605 -0.00105613 0.00114753
0.0154463 0.00248526 -0.0017203
0.0119035 -0.00112327 0.00115755
0.011895 9.3936e-05 -0.000442263
0.0116776 -0.0010699 0.00113717

VECTORS force float
-3.55945e-10 -2.36135e-09 -2.33053e-09
-1.35183e-09 2.7417e-09 -2.69034e-09
-2.69362e-09 1.01498e-09 1.88463e-09
3.10268e-09 -2.45892e-09 7.1977e-11
-3.39331e-09 4.27892e-09 -4.6746e-09
2.72625e-10 -2.81367e-12 -8.45536e-11
-9.0748e-10 2.36015e-09 -2.47781e-09
-3.73331e-10 3.18482e-10 -3.78107e-10
7.47891e-10 1.33759e-09 -2.20561e-09
2.30196e-09 6.39074e-10 1.60225e-09
1.2983e-09 -7.67517e-12 3.72923e-10
3.52234e-09 -2.26954e-09 1.20868e-09
-2.78018e-10 2.40911e-10 6.18609e-10
-7.30582e-11 -2.31255e-10 2.50583e-10
-6.93461e-09 2.47255e-09 -1.76147e-09
-9.4307e-11 -7.15023e-11 4.26335e-11
-1.90552e-09 7.98781e-10 -9.25391e-10
-2.91818e-09 -1.21631e-09 1.96938e-09
-2.00124e-09 1.4437e-09 -8.92412e-10
-2.37454e-10 -4.36378e-10 4.67456e-10
-3.09784e-09 -2.78048e-09 1.10657e-09
3.65163e-10 7.06639e-10 -2.17588e-10
7.97785e-10 -8.97113e-10 1.64057e-09
6.06731e-09 1.98827e-09 -1.13823e-10
8.55371e-10 5.03403e-10 -1.54657e-10
2.80469e-10 -1.33766e-09 1.78652e-09
-3.20073e-10 -3.14914e-10 6.84516e-11
-1.64827e-11 -6.17996e-10 8.56527e-10
-2.51827e-10 -2.22294e-11 -8.67226e-11
4.10994e-11 7.52422e-10 -4.75029e-10
1.84457e-09 1.01672e-09 -6.07789e-10
-2.45153e-09 2.55922e-09 -1.68648e-10
-1.17174e-09 -9.37561e-10 -2.45343e-10
-7.05357e-10 5.91572e-10 -1.10854e-09
-3.73197e-10 2.68827e-09 -6.96835e-10
-5.7225e-10 3.87634e-11 4.2009e-11
-7.82434e-10 2.64221e-10 -7.47132e-10
-1.49452e-11 6.37607e-10 -2.51328e-10
-7.35759e-10 3.29359e-09 -8.67728e-10
-1.75762e-10 -1.09286e-10 1.69968e-11
1.90974e-10 3.95504e-10 3.63076e-11
-1.56333e-09 2.45849e-10 7.96127e-10
-3.83227e-10 1.43349e-09 1.36011e-09
-9.2237e-11 -8.91342e-11 1.58622e-11
2.57094e-13 -3.04516e-09 1.38227e-09
-8.3755e-09 4.50644e-09 -5.55942e-09
2.05241e-09 -1.43577e-09 -1.52543e-09
2.21679e-09 -1.24684e-09 8.47037e-10
3.79902e-10 7.2229e-10 -2.54387e-10
1.41826e-10 -1.93006e-11 -4.446e-10
-2.65335e-09 2.47064e-09 -5.49098e-11
4.38477e-11 4.58311e-10 9.26286e-10
-6.02776e-10 -8.26148e-11 -4.65582e-11
-1.00152e-09 3.28439e-09 1.09226e-09
-5.21174e-10 4.82548e-10 -4.33007e-10
-6.47444e-10 -3.84678e-10 3.25419e-10
1.96452e-10 -2.20265e-10 1.25266e-10
-1.27345e-11 1.23553e-10 -6.42764e-11
1.64426e-10 -1.88751e-10 -1.46868e-10
2.88243e-10 8.85718e-10 -2.37509e-10
1.33094e-08 1.81667e-09 3.20239e-09
-1.57239e-10 -4.16176e-10 4.55349e-10
8.39518e-10 5.15049e-10 -6.2332e-11
-3.24667e-09 1.15221e-09 -2.15437e-09
7.30154e-10 -9.4488e-12 1.14343e-09
-4.93279e-10 1.08256e-09 -3.22183e-09
4.31124e-09 -2.44308e-09 5.19716e-10
9.88823e-11 -3.01683e-11 -5.32379e-12
2.18724e-10 4.18103e-10 -8.09702e-11
-2.84094e-10 1.59419e-10 -4.75611e-11
-4.00726e-09 2.63715e-09 3.31944e-09
-1.89706e-10 2.07919e-10 -2.22361e-10
1.52605e-09 -2.31044e-09 1.82369e-09
3.22731e-09 -1.69043e-09 1.08373e-09
1.35423e-09 1.71314e-09 -2.32791e-11
-2.24726e-09 1.94339e-09 4.54298e-09
-5.56235e-10 1.34837e-09 1.14227e-10
-4.59919e-10 -1.60257e-09 4.2789e-10
1.94951e-10 -9.87909e-09 5.6173e-09
5.21541e-09 1.52158e-09 -4.80335e-09
-2.73511e-09 -6.07717e-11 8.20229e-10
2.39352e-10 4.78431e-10 -1.86935e-10
-4.65959e-10 1.38561e-10 5.59469e-10
-9.62352e-10 1.12599e-09 2.02717e-10
1.20156e-10 -5.65218e-11 2.94616e-12
4.65525e-10 -7.69663e-10 6.95424e-10
5.73693e-10 -1.2792e-09 1.27858e-09
2.32455e-09 -2.17147e-09 3.59996e-09
-3.14297e-10 1.85223e-10 -1.06923e-10
-5.72124e-11 -4.68615e-10 -8.31741e-10
-3.57733e-10 -1.44637e-09 -5.04183e-10
9.23268e-10 2.73513e-09 1.33425e-09
-7.70108e-10 -1.21979e-10 2.29255e-10
6.62764e-10 1.60125e-09 -3.36968e-10
-6.38197e-10 6.87013e-11 9.71978e-11
-1.01518e-09 -1.15658e-09 -2.66189e-10
8.03607e-10 -9.69549e-10 2.13705e-09
-3.42547e-10 2.60887e-11 -4.53584e-10
-7.73517e-11 9.61712e-11 -4.64252e-11
-4.83502e-11 2.6118e-10 4.94294e-11
1.30084e-09 -8.59411e-10 -2.14759e-10
1.93447e-10 -5.12894e-11 3.4437e-11
-2.89609e-10 9.11955e-11 -8.38853e-11
-5.191e-10 2.20583e-09 -1.40373e-09
2.08228e-08 -9.34497e-09 1.08373e-08
-2.84079e-11 1.42007e-10 -5.68776e-11
-3.07483e-09 1.79281e-09 -3.17632e-10
3.68355e-09 -3.16876e-09 1.4761e-09
-3.62756e-10 1.24729e-09 -4.66389e-10
2.67802e-11 5.01438e-10 -7.59113e-11
2.05119e-09 -9.63377e-10 -1.6284e-09
3.31054e-10 1.60876e-09 1.17151e-09
2.13178e-09 -7.02437e-10 4.33973e-10
-1.15043e-10 2.22896e-10 -7.12871e-11
1.10777e-10 -5.35102e-10 8.4704e-11
-4.91129e-10 4.27714e-10 6.04004e-10
2.70095e-10 2.63106e-10 -7.75077e-11
-1.52681e-11 -2.7097e-10 9.71104e-11
-1.67298e-09 -2.29919e-09 2.4067e-09
-8.17611e-09 3.3741e-10 -6.85008e-10
-4.15368e-12 -1.07809e-10 -2.27002e-11
8.69054e-10 -4.5028e-11 6.74352e-10
1.36393e-09 -7.88448e-10 -4.86138e-10
5.21679e-11 -5.61155e-10 2.40468e-10
2.79359e-11 -1.23986e-10 1.68133e-11
-2.19002e-09 2.49521e-10 3.23861e-10
-1.23232e-10 2.59849e-10 6.28249e-11
-9.53235e-10 5.25502e-10 4.10955e-10
-1.35923e-09 3.92445e-10 4.46338e-10
5.11901e-11 -2.86564e-10 1.21716e-10
8.5866e-11 -5.27624e-11 -1.27348e-10
-4.71513e-10 2.23651e-10 -2.70226e-10
-5.09501e-10 -3.68656e-10 -2.11503e-10
3.20082e-09 -3.91792e-10 1.13904e-09
3.73517e-10 1.75177e-10 -4.84388e-11
-2.67316e-10 -1.48994e-10 6.09978e-11
4.26389e-10 -6.56827e-11 -4.00942e-12
1.15457e-09 6.33269e-10 -1.21896e-09
-1.23485e-10 -1.65922e-10 8.76628e-11
-1.77134e-09 9.02714e-10 -4.034e-10
2.11772e-09 -1.62116e-09 -2.33303e-11
5.40166e-10 -2.18016e-11 1.32279e-11
1.47562e-11 -6.01804e-10 2.38996e-10
-8.50972e-10 5.20237e-10 -7.16781e-10
6.03003e-10 1.68195e-10 3.41653e-10
-2.59379e-11 -5.81602e-11 1.7941e-11
5.46185e-10 -1.96297e-10 4.85922e-09
-3.58183e-10 -6.28494e-10 2.1401e-10
5.15646e-09 -1.44833e-08 7.85314e-09
1.6673e-10 -1.16099e-10 6.70967e-11
1.02506e-09 -7.98974e-10 -4.64948e-10
3.87151e-10 7.76604e-11 -1.88147e-11
4.28391e-10 -5.05957e-10 -2.12638e-10
0.0 0.0 -5.1365e-09
1.71966e-09 -2.17009e-09 1.7243e-09
-2.47971e-10 -1.80027e-10 1.43348e-11
-3.79531e-10 -2.35929e-10 1.06491e-10
9.54401e-10 8.51987e-10 4.53808e-10
3.14275e-09 -2.33161e-09 2.34697e-09
3.72869e-11 1.25289e-10 -4.5694e-11
4.06066e-11 -4.3783e-10 9.01814e-11
7.09456e-11 1.22317e-10 -4.19736e-11
-9.20472e-10 -1.30809e-10 5.57083e-11
5.84226e-09 -3.56911e-09 1.83563e-09
-2.76596e-10 -1.20806e-10 3.47795e-10
5.7336e-10 8.96897e-10 -1.09543e-09
7.47381e-10 -2.79447e-10 8.16542e-11
-6.7292e-11 -1.35619e-10 3.75638e-11
7.35054e-10 4.87963e-10 3.72744e-10
-1.98548e-09 1.24502e-09 -5.68523e-10
-1.08759e-10 -1.80046e-10 4.95264e-11
-7.18877e-08 6.48481e-08 -3.05863e-08
4.27754e-10 -1.60001e-09 4.80073e-10
7.51084e-12 -3.19442e-12 3.22643e-12
-5.37409e-09 -4.5729e-09 2.56115e-09
8.12996e-11 1.96237e-10 -1.7385e-11
-5.79308e-11 -1.28944e-10 1.40874e-11
2.03439e-09 8.06604e-09 -3.25162e-09
9.37758e-10 -7.57845e-10 1.36823e-10
1.66467e-11 -9.28151e-11 2.20649e-12
5.05108e-12 1.54201e-10 -1.0562e-10
-2.90839e-10 -4.28405e-10 8.17667e-10
2.22279e-07 -1.69615e-07 8.34012e-08
-1.42334e-10 -1.38234e-10 2.7312e-11
0.0 0.0 -5.1365e-09
3.0737e-10 3.76433e-10 -1.08061e-10
-2.62072e-09 2.44059e-09 -1.17592e-10
-4.13479e-10 -2.96738e-10 3.12478e-10
