# vtk DataFile Version 3.0
LIGGGHTS particles timestep 800000
ASCII
DATASET POLYDATA
POINTS 188 float
0.0226912 0.0170284 0.00732362
0.0283474 0.016387 0.00777035
0.0224283 0.0163592 0.00779079
0.0287451 0.0180649 0.00707952
0.0225823 0.0173344 0.00721852
0.0229993 0.0180054 0.0071154
0.028367 0.0164624 0.00770772
0.0228702 0.0177951 0.00714744
0.0222746 0.0160866 0.00797031
0.0225932 0.0170021 0.00734278
0.022509 0.0166823 0.00756934
0.0284062 0.0166133 0.00758247
0.0226251 0.0175274 0.00718785
0.0230447 0.0182065 0.00708435
0.0285942 0.0173986 0.00723219
0.0229395 0.0186437 0.00701516
0.0288402 0.0180955 0.00707361
0.0223335 0.0163312 0.00780686
0.0170186 0.0186031 0.00694526
0.0226492 0.0168685 0.00743692
0.0285721 0.0173036 0.00725397
0.0227871 0.0178501 0.00713909
0.0223531 0.0164127 0.00775237
0.0286154 0.0174939 0.00721036
0.0223923 0.0165758 0.0076434
0.0224338 0.0167363 0.00753161
0.0231803 0.0183806 0.00705797
0.0284259 0.0166894 0.00752067
0.0226356 0.0171734 0.00724777
0.0225607 0.0172393 0.00724025
0.0284867 0.0169236 0.00734472
0.0226157 0.0170866 0.00729359
0.0225733 0.0169218 0.00739966
0.0224884 0.0166026 0.0076261
0.0287856 0.0182558 0.00703573
0.0225518 0.0168421 0.00745614
0.0227098 0.017109 0.00726651
0.022723 0.0175604 0.0071832
0.0225173 0.0170555 0.00730552
0.0229914 0.0188013 0.00698965
0.022908 0.0179557 0.00712267
0.0288254 0.0184468 0.00699191
0.0224479 0.0164407 0.0077363
0.0228149 0.0183967 0.00705371
0.0169216 0.0189229 0.00698286
0.0286803 0.0177794 0.00714494
0.0227551 0.0173018 0.00722357
0.0227315 0.0172028 0.00723885
0.0228085 0.0179466 0.00712358
0.022745 0.0168953 0.0074174
0.0167094 0.0178966 0.00705994
0.02253 0.0167624 0.00751259
0.0229255 0.0180719 0.00710468
0.0285289 0.0171132 0.00729758
0.0226464 0.0176239 0.00717309
0.0288055 0.0183513 0.00701382
0.0227947 0.0182999 0.00706857
0.0228915 0.0183333 0.00706387
0.023022 0.0172982 0.00722547
0.0227319 0.0180101 0.00711357
0.028637 0.0175891 0.00718855
0.0229831 0.0175541 0.00718549
0.0230764 0.0175897 0.00718041
0.0287235 0.0179697 0.00710132
0.0226266 0.0167877 0.0074942
0.0170138 0.0193824 0.00701997
0.0167458 0.0180694 0.00696512
0.0229381 0.0185349 0.00703321
0.0229429 0.0178631 0.00713724
0.0231147 0.018136 0.00709567
0.0174602 0.0190038 0.00695119
0.018489 0.0191091 0.00688599
0.0283866 0.0165379 0.0076451
0.0167639 0.0181556 0.00691781
0.0285073 0.0170181 0.00731939
0.0284455 0.0167642 0.00745723
0.0284651 0.0168396 0.0073946
0.0227744 0.0182032 0.00708379
0.0286586 0.0176842 0.00716674
0.0287019 0.0178745 0.00712313
0.0228742 0.0174312 0.00720405
0.0226678 0.0177205 0.00715826
0.0226046 0.0167078 0.00755074
0.0226777 0.0171317 0.00735845
0.0227105 0.0179135 0.00712824
0.0229877 0.0174554 0.00720086
0.0287656 0.0181603 0.00705764
0.0222942 0.0161682 0.00791583
0.0231806 0.0179881 0.007119
0.0224131 0.0166567 0.00758838
0.0226691 0.0169487 0.00738007
0.0223727 0.0164943 0.00769789
0.0228446 0.0176928 0.00716323
0.0224977 0.0169765 0.0073636
0.0227657 0.0177535 0.00715339
0.0228097 0.0171414 0.0072488
0.0224763 0.0168967 0.00742
0.0230192 0.0177993 0.00714753
0.023094 0.0180373 0.00711091
0.023132 0.0179016 0.0071322
0.0227864 0.0170564 0.00730328
0.0229865 0.0183645 0.00705951
0.0230006 0.0172016 0.00724038
0.0229588 0.0170275 0.00732265
0.0223138 0.0162497 0.00786134
0.0231056 0.0185348 0.00703361
0.0285865 0.0169164 0.00734397
0.0226796 0.0173666 0.00721312
0.0229481 0.0173647 0.00721477
0.0226891 0.017817 0.00714315
0.0224676 0.0165223 0.00768182
0.0229053 0.0171722 0.00724816
0.0224545 0.0168162 0.00747506
0.0231996 0.0181882 0.00708797
0.0227444 0.0176569 0.0071683
0.0227983 0.0174955 0.00719367
0.0230265 0.0185951 0.00702385
0.0228352 0.0184934 0.00703798
0.022539 0.0171461 0.00726926
0.0226573 0.0172691 0.00722819
0.0229662 0.0182677 0.00707445
0.0228528 0.0173346 0.00721897
0.0226037 0.0174308 0.00720281
0.022946 0.0181708 0.00708941
0.0232003 0.018085 0.00710403
0.0227014 0.0174636 0.00719814
0.0228298 0.0180431 0.00710868
0.0229793 0.0171074 0.00726607
0.0227769 0.0173989 0.00720859
0.0230664 0.0183051 0.00706912
0.0230201 0.0181041 0.00710015
0.0229466 0.0177314 0.00715773
0.0230617 0.0173889 0.00721156
0.0229267 0.0172681 0.00722967
0.022851 0.0181397 0.00709377
0.0232754 0.0180197 0.00711455
0.0228713 0.0182365 0.00707882
0.0227253 0.0168153 0.00747408
0.0231632 0.0182802 0.00707348
0.0168817 0.0182765 0.00691769
0.0228819 0.0170821 0.00728457
0.0229255 0.0176348 0.00717265
0.0191335 0.0190407 0.0068929
0.018477 0.0188196 0.00685924
0.0229742 0.0179543 0.00719763
0.0231043 0.0186579 0.00701446
0.0285505 0.0172084 0.00727577
0.0288453 0.0185423 0.00697
0.0286903 0.0174296 0.00722623
0.0229118 0.0184301 0.00704912
0.0228197 0.0175921 0.00717877
0.0230218 0.0184808 0.00704158
0.0227732 0.0171555 0.00734079
0.0172446 0.0186472 0.00693293
0.0228614 0.0170022 0.00734116
0.0230893 0.0187816 0.00699515
0.017776 0.0198288 0.00709583
0.0228425 0.0169212 0.00739852
0.0286676 0.0173327 0.0072484
0.0232563 0.0183164 0.00706833
0.0228337 0.0183548 0.00714254
0.0230494 0.0188857 0.00697682
0.0227669 0.0169749 0.007361
0.0168581 0.0185523 0.00695145
0.0230302 0.0176774 0.00716656
0.0173882 0.0187442 0.00693169
0.0226459 0.0170528 0.00741103
0.0228831 0.0187248 0.00699975
0.0229368 0.0169479 0.00737905
0.0168606 0.0181791 0.00690602
0.0228554 0.01859 0.00702203
0.0167844 0.0182535 0.00691529
0.0228314 0.017238 0.00723388
0.0230246 0.0189812 0.00695983
0.0168045 0.0183508 0.00692704
0.0230322 0.0179078 0.00713073
0.0230171 0.0187062 0.00700653
0.016892 0.018776 0.00697101
0.017834 0.0191043 0.00693344
0.0229094 0.0188573 0.00697783
0.0227532 0.0181066 0.00709879
0.018654 0.0188553 0.0068497
0.0168424 0.0180925 0.00695294
0.0229284 0.0189542 0.0069618
0.0186289 0.0179565 0.00699583
0.0230828 0.0184026 0.00705405
0.0167276 0.017983 0.00701249
0.022827 0.0177634 0.00723183

VERTICES 188 376
1 0
1 1
1 2
1 3
1 4
1 5
1 6
1 7
1 8
1 9
1 10
1 11
1 12
1 13
1 14
1 15
1 16
1 17
1 18
1 19
1 20
1 21
1 22
1 23
1 24
1 25
1 26
1 27
1 28
1 29
1 30
1 31
1 32
1 33
1 34
1 35
1 36
1 37
1 38
1 39
1 40
1 41
1 42
1 43
1 44
1 45
1 46
1 47
1 48
1 49
1 50
1 51
1 52
1 53
1 54
1 55
1 56
1 57
1 58
1 59
1 60
1 61
1 62
1 63
1 64
1 65
1 66
1 67
1 68
1 69
1 70
1 71
1 72
1 73
1 74
1 75
1 76
1 77
1 78
1 79
1 80
1 81
1 82
1 83
1 84
1 85
1 86
1 87
1 88
1 89
1 90
1 91
1 92
1 93
1 94
1 95
1 96
1 97
1 98
1 99
1 100
1 101
1 102
1 103
1 104
1 105
1 106
1 107
1 108
1 109
1 110
1 111
1 112
1 113
1 114
1 115
1 116
1 117
1 118
1 119
1 120
1 121
1 122
1 123
1 124
1 125
1 126
1 127
1 128
1 129
1 130
1 131
1 132
1 133
1 134
1 135
1 136
1 137
1 138
1 139
1 140
1 141
1 142
1 143
1 144
1 145
1 146
1 147
1 148
1 149
1 150
1 151
1 152
1 153
1 154
1 155
1 156
1 157
1 158
1 159
1 160
1 161
1 162
1 163
1 164
1 165
1 166
1 167
1 168
1 169
1 170
1 171
1 172
1 173
1 174
1 175
1 176
1 177
1 178
1 179
1 180
1 181
1 182
1 183
1 184
1 185
1 186
1 187

POINT_DATA 188
SCALARS id int 1
LOOKUP_TABLE default
1
2
3
4
5
6
7
8
9
10
11
12
13
14
15
16
17
18
19
20
21
22
23
25
26
27
28
29
30
31
32
33
34
35
36
37
38
39
40
41
42
43
44
45
46
47
48
49
50
51
52
53
54
55
56
57
58
59
60
61
62
63
64
65
66
67
68
69
70
71
72
73
74
75
76
77
78
79
80
81
82
83
84
85
86
87
88
89
90
91
92
93
94
95
96
97
98
99
100
101
102
103
104
105
106
107
108
109
110
111
112
113
114
115
116
117
118
119
120
121
122
123
124
125
126
127
128
129
130
131
132
133
134
135
136
137
138
139
140
141
142
143
144
145
146
147
148
149
150
151
152
153
154
155
156
157
158
159
160
161
162
163
164
165
166
167
168
169
170
171
173
174
175
176
177
178
179
180
181
182
183
184
185
186
187
188
189
190

SCALARS type int 1
LOOKUP_TABLE default
1
1
1
1
1
1
1
1
1
1
1
1
1
1
1
1
1
1
1
1
1
1
1
1
1
1
1
1
1
1
1
1
1
1
1
1
1
1
1
1
1
1
1
1
1
1
1
1
1
1
1
1
1
1
1
1
1
1
1
1
1
1
1
1
1
1
1
1
1
1
1
1
1
1
1
1
1
1
1
1
1
1
1
1
1
1
1
1
1
1
1
1
1
1
1
1
1
1
1
1
1
1
1
1
1
1
1
1
1
1
1
1
1
1
1
1
1
1
1
1
1
1
1
1
1
1
1
1
1
1
1
1
1
1
1
1
1
1
1
1
1
1
1
1
1
1
1
1
1
1
1
1
1
1
1
1
1
1
1
1
1
1
1
1
1
1
1
1
1
1
1
1
1
1
1
1
1
1
1
1
1
1
1
1
1
1
1
1

SCALARS radius float 1
LOOKUP_TABLE default
5e-05
5e-05
5e-05
5e-05
5e-05
5e-05
5e-05
5e-05
5e-05
5e-05
5e-05
5e-05
5e-05
5e-05
5e-05
5e-05
5e-05
5e-05
5e-05
5e-05
5e-05
5e-05
5e-05
5e-05
5e-05
5e-05
5e-05
5e-05
5e-05
5e-05
5e-05
5e-05
5e-05
5e-05
5e-05
5e-05
5e-05
5e-05
5e-05
5e-05
5e-05
5e-05
5e-05
5e-05
5e-05
5e-05
5e-05
5e-05
5e-05
5e-05
5e-05
5e-05
5e-05
5e-05
5e-05
5e-05
5e-05
5e-05
5e-05
5e-05
5e-05
5e-05
5e-05
5e-05
5e-05
5e-05
5e-05
5e-05
5e-05
5e-05
5e-05
5e-05
5e-05
5e-05
5e-05
5e-05
5e-05
5e-05
5e-05
5e-05
5e-05
5e-05
5e-05
5e-05
5e-05
5e-05
5e-05
5e-05
5e-05
5e-05
5e-05
5e-05
5e-05
5e-05
5e-05
5e-05
5e-05
5e-05
5e-05
5e-05
5e-05
5e-05
5e-05
5e-05
5e-05
5e-05
5e-05
5e-05
5e-05
5e-05
5e-05
5e-05
5e-05
5e-05
5e-05
5e-05
5e-05
5e-05
5e-05
5e-05
5e-05
5e-05
5e-05
5e-05
5e-05
5e-05
5e-05
5e-05
5e-05
5e-05
5e-05
5e-05
5e-05
5e-05
5e-05
5e-05
5e-05
5e-05
5e-05
5e-05
5e-05
5e-05
5e-05
5e-05
5e-05
5e-05
5e-05
5e-05
5e-05
5e-05
5e-05
5e-05
5e-05
5e-05
5e-05
5e-05
5e-05
5e-05
5e-05
5e-05
5e-05
5e-05
5e-05
5e-05
5e-05
5e-05
5e-05
5e-05
5e-05
5e-05
5e-05
5e-05
5e-05
5e-05
5e-05
5e-05
5e-05
5e-05
5e-05
5e-05
5e-05
5e-05
5e-05
5e-05
5e-05
5e-05
5e-05
5e-05

SCALARS mass float 1
LOOKUP_TABLE default
5.23599e-10
5.23599e-10
5.23599e-10
5.23599e-10
5.23599e-10
5.23599e-10
5.23599e-10
5.23599e-10
5.23599e-10
5.23599e-10
5.23599e-10
5.23599e-10
5.23599e-10
5.23599e-10
5.23599e-10
5.23599e-10
5.23599e-10
5.23599e-10
5.23599e-10
5.23599e-10
5.23599e-10
5.23599e-10
5.23599e-10
5.23599e-10
5.23599e-10
5.23599e-10
5.23599e-10
5.23599e-10
5.23599e-10
5.23599e-10
5.23599e-10
5.23599e-10
5.23599e-10
5.23599e-10
5.23599e-10
5.23599e-10
5.23599e-10
5.23599e-10
5.23599e-10
5.23599e-10
5.23599e-10
5.23599e-10
5.23599e-10
5.23599e-10
5.23599e-10
5.23599e-10
5.23599e-10
5.23599e-10
5.23599e-10
5.23599e-10
5.23599e-10
5.23599e-10
5.23599e-10
5.23599e-10
5.23599e-10
5.23599e-10
5.23599e-10
5.23599e-10
5.23599e-10
5.23599e-10
5.23599e-10
5.23599e-10
5.23599e-10
5.23599e-10
5.23599e-10
5.23599e-10
5.23599e-10
5.23599e-10
5.23599e-10
5.23599e-10
5.23599e-10
5.23599e-10
5.23599e-10
5.23599e-10
5.23599e-10
5.23599e-10
5.23599e-10
5.23599e-10
5.23599e-10
5.23599e-10
5.23599e-10
5.23599e-10
5.23599e-10
5.23599e-10
5.23599e-10
5.23599e-10
5.23599e-10
5.23599e-10
5.23599e-10
5.23599e-10
5.23599e-10
5.23599e-10
5.23599e-10
5.23599e-10
5.23599e-10
5.23599e-10
5.23599e-10
5.23599e-10
5.23599e-10
5.23599e-10
5.23599e-10
5.23599e-10
5.23599e-10
5.23599e-10
5.23599e-10
5.23599e-10
5.23599e-10
5.23599e-10
5.23599e-10
5.23599e-10
5.23599e-10
5.23599e-10
5.23599e-10
5.23599e-10
5.23599e-10
5.23599e-10
5.23599e-10
5.23599e-10
5.23599e-10
5.23599e-10
5.23599e-10
5.23599e-10
5.23599e-10
5.23599e-10
5.23599e-10
5.23599e-10
5.23599e-10
5.23599e-10
5.23599e-10
5.23599e-10
5.23599e-10
5.23599e-10
5.23599e-10
5.23599e-10
5.23599e-10
5.23599e-10
5.23599e-10
5.23599e-10
5.23599e-10
5.23599e-10
5.23599e-10
5.23599e-10
5.23599e-10
5.23599e-10
5.23599e-10
5.23599e-10
5.23599e-10
5.23599e-10
5.23599e-10
5.23599e-10
5.23599e-10
5.23599e-10
5.23599e-10
5.23599e-10
5.23599e-10
5.23599e-10
5.23599e-10
5.23599e-10
5.23599e-10
5.23599e-10
5.23599e-10
5.23599e-10
5.23599e-10
5.23599e-10
5.23599e-10
5.23599e-10
5.23599e-10
5.23599e-10
5.23599e-10
5.23599e-10
5.23599e-10
5.23599e-10
5.23599e-10
5.23599e-10
5.23599e-10
5.23599e-10
5.23599e-10
5.23599e-10
5.23599e-10
5.23599e-10
5.23599e-10
5.23599e-10
5.23599e-10
5.23599e-10
5.23599e-10
5.23599e-10
5.23599e-10
5.23599e-10

VECTORS velocity float
0.0125457 -0.00175829 0.00115591
0.0113117 -0.000985458 0.000495472
0.0111233 -0.00149442 0.00133347
0.0122741 -0.00135912 0.000465389
0.0123782 -0.00204045 0.000471151
0.011942 -0.00145071 0.000280017
0.0113417 -0.000987274 0.000499498
0.0122163 -0.00190474 0.000363515
0.0111844 -0.0014512 0.0013173
0.0125154 -0.00176541 0.00115855
0.0119758 -0.00190226 0.0012527
0.011357 -0.00101279 0.000515509
0.0123041 -0.00201628 0.000392508
0.010932 -0.00190864 0.000344916
0.0124629 -0.00128884 0.000455722
0.0114055 -0.00151713 0.000632357
0.0120474 -0.000571139 0.000271095
0.0111532 -0.00146436 0.00131884
-1.70735e-14 2.22731e-14 -2.33438e-13
0.0125313 -0.00174226 0.00114461
0.0125068 -0.00129568 0.000458599
0.0121893 -0.00193818 0.000375592
0.0111447 -0.00145063 0.00130724
0.0124292 -0.00130027 0.000466031
0.0111037 -0.00135602 0.00120644
0.01209 -0.00180062 0.00118163
0.0116484 -0.00179268 0.00034773
0.0113727 -0.000999466 0.000514801
0.0124761 -0.00192119 0.00103451
0.012419 -0.00200527 0.00067689
0.012449 -0.00136697 0.000542268
0.0124599 -0.00187966 0.00116936
0.0123946 -0.00187413 0.00124408
0.0116381 -0.00180225 0.00128568
0.0114821 -0.0012137 0.000448015
0.0123722 -0.0017689 0.00118098
0.0124712 -0.00190641 0.00127079
0.0122974 -0.00196622 0.000369284
0.0124616 -0.00183117 0.00123915
0.0116882 -0.00290723 0.000805472
0.0120653 -0.00170575 0.000316687
0.0115697 -0.00116913 0.000408273
0.0110245 -0.00154334 0.00136214
0.011225 -0.00171587 0.00046896
0.00947394 -0.00850127 -0.0015105
0.0123461 -0.00128511 0.000459629
0.0122939 -0.00204359 0.00043556
0.0124511 -0.00194812 0.000345512
0.0121087 -0.00191992 0.000353784
0.012586 -0.00167508 0.00111315
0.0110007 -0.0033108 0.00186991
0.0122036 -0.00179516 0.00120133
0.0118655 -0.00162436 0.000308579
0.0125325 -0.00136803 0.00047326
0.0122716 -0.00200154 0.000409537
0.0115619 -0.00124726 0.000448549
0.0110531 -0.00177027 0.00036001
0.0109816 -0.00174352 0.000361552
0.0122888 -0.00190027 0.000385484
0.0120605 -0.00202596 0.000387544
0.0123991 -0.0013296 0.000469357
0.0121497 -0.00188781 0.000361177
0.0121499 -0.00198453 0.000371625
0.0123319 -0.00135654 0.000462589
0.0126922 -0.0014894 0.000994257
0.00945174 -0.0086078 -0.00153485
0.0113108 -0.00229008 0.00137727
0.011484 -0.00186622 0.000522412
0.0119035 -0.00176415 0.000332193
0.0116426 -0.00104949 0.00022656
2.71526e-14 -3.54197e-14 3.71231e-13
1.90668e-13 -2.48799e-13 -1.75444e-13
0.0113648 -0.00100432 0.000505772
0.0112514 -0.00274995 0.00129106
0.0125732 -0.00140899 0.000483594
0.0113644 -0.00101249 0.000526768
0.0113579 -0.00105858 0.000534758
0.0113156 -0.00192083 0.000170228
0.0123819 -0.00131265 0.000465065
0.0123237 -0.00132557 0.000467775
0.0122945 -0.00188776 0.000342044
0.012215 -0.00198546 0.000428481
0.0122727 -0.00170137 0.0011224
0.0120762 -0.00158171 0.00102708
0.0121349 -0.00200077 0.000378195
0.0120907 -0.00189406 0.000356425
0.011413 -0.00121425 0.000456303
0.0111628 -0.00148669 0.00133503
0.0118707 -0.00102569 0.000236225
0.0116544 -0.00187444 0.00087289
0.0126006 -0.00167089 0.00109538
0.0111181 -0.00139336 0.0012563
0.0122355 -0.00186012 0.000354598
0.0123962 -0.00185425 0.00124998
0.0122097 -0.00192948 0.00037612
0.0126441 -0.00199978 0.000322751
0.0122626 -0.00183782 0.00125695
0.0120204 -0.00164536 0.000311906
0.0118098 -0.00113603 0.00021796
0.011947 -0.00131193 0.000262616
0.0125932 -0.00176791 0.00118036
0.0114161 -0.00188147 0.000350046
0.0123864 -0.00189508 0.00044194
0.012441 -0.00176974 0.00119033
0.011171 -0.00147125 0.00132112
0.0114089 -0.00169429 0.000308785
0.0127905 0.00359372 -0.000678381
0.0122842 -0.00204784 0.000447337
0.0122483 -0.00190423 0.000350492
0.0121757 -0.00198721 0.000408669
0.0109978 -0.00156711 0.00137737
0.0123904 -0.00179256 0.000796534
0.0122076 -0.00181782 0.00122586
0.0117554 -0.00135319 0.000281849
0.012223 -0.00194591 0.000375576
0.012315 -0.00190524 0.000355962
0.0114301 -0.0016312 0.000239622
0.0113425 -0.00178352 0.000644607
0.0124639 -0.00190124 0.0010294
0.0123939 -0.00196079 0.000473374
0.0109547 -0.00187989 0.000359811
0.0123707 -0.00186155 0.000359521
0.0123407 -0.00203635 0.000410964
0.0113271 -0.00121088 0.000229455
0.0116702 -0.000962407 0.000193673
0.0122782 -0.0019544 0.000352256
0.0119834 -0.00189066 0.00034767
0.0123814 -0.00172828 0.00112444
0.0122913 -0.00191904 0.000340152
0.0115531 -0.00175895 0.00035271
0.0117753 -0.00132647 0.000270885
0.0122357 -0.0018963 0.000360157
0.0121287 -0.00188261 0.000323659
0.0123577 -0.00185682 0.000381162
0.0114553 -0.00174422 0.000327641
0.0115371 -0.000674212 0.000163025
0.0108187 -0.00160998 0.000287796
0.0125523 -0.00168656 0.00113671
0.0115927 -0.00154758 0.000316316
0.00960138 0.00254206 0.000417887
0.0127012 -0.00174188 0.00122308
0.0122299 -0.00184999 0.000356011
0.00188848 -0.00402082 -0.0166167
-1.67551e-14 2.18551e-14 -2.33501e-13
0.0120153 -0.0014867 0.000312684
0.0118104 -0.00353571 0.000588411
0.0125284 -0.00132022 0.000470525
0.0116844 -0.000993558 0.000377987
0.012351 -0.00126794 0.000437673
0.0113116 -0.00192974 0.000356699
0.0122398 -0.00188242 0.000372331
0.011474 -0.00193844 0.000331976
0.01156 0.000246529 -0.000338513
2.71532e-14 -3.54183e-14 3.71231e-13
0.0126231 -0.00167278 0.00118755
0.0121439 -0.000894072 0.000196099
0.00469529 -0.00178944 0.0478913
0.0125614 -0.00174666 0.00114857
0.012486 -0.00126364 0.000450794
0.0116917 -0.00167626 0.000329505
0.0110811 -0.00180996 0.000433312
1.85745e-06 2.24472e-05 -3.63826e-06
0.0126071 -0.00169749 0.00111109
0.0115597 -0.0104688 -0.00170063
0.0122156 -0.00193012 0.000356202
-1.70739e-14 2.22724e-14 -2.33438e-13
0.0132023 -0.00218759 0.00078543
0.0111331 -0.00145146 0.000467529
0.0125518 -0.00178763 0.0012245
0.0112829 0.00167131 -0.000795479
0.0114833 -0.00176201 0.000576834
0.0112635 -0.00319084 -0.00302963
0.0123257 -0.0019158 0.000496212
0.00836563 0.00261835 -0.000215181
0.0107969 -0.00323503 -0.000370987
0.0119521 -0.00150559 0.000300774
0.0122185 -0.00287173 0.000326447
0.00964651 -0.00889313 -0.00156885
-1.70736e-14 2.22722e-14 -2.33438e-13
0.0106153 -0.00440811 0.00104622
0.0119703 -0.0020554 0.000368041
3.40748e-11 1.41516e-11 -7.64352e-13
0.00935254 0.00265035 -0.00141016
0.010368 -0.00438556 0.00103401
-1.55918e-12 1.01102e-12 -5.45511e-13
0.0115937 -0.00189541 0.00033893
0.0111222 -0.00363425 0.00199121
0.0122061 -0.00187542 0.000387155

VECTORS force float
-3.81425e-10 3.51683e-10 1.34901e-09
2.72025e-11 4.34017e-10 -2.24811e-10
7.54453e-11 9.32572e-10 -6.39788e-10
-1.56661e-09 8.22261e-10 -1.09946e-10
-2.07798e-09 -2.13357e-09 -1.28609e-09
3.18893e-10 8.6425e-10 -3.50143e-10
-5.31306e-10 -1.48554e-10 -2.83288e-11
1.09001e-09 -1.23253e-09 -4.01751e-11
-1.94679e-09 -7.25092e-10 8.18758e-10
-1.87923e-10 7.30275e-10 -1.42686e-09
-1.37304e-10 5.05751e-10 1.21087e-10
7.80884e-10 8.16118e-11 8.57876e-10
1.31624e-10 -1.30944e-09 7.90699e-11
-8.87707e-10 5.4569e-10 -4.71078e-10
-5.30267e-10 -1.2138e-09 1.653e-10
3.48007e-09 -5.08777e-10 -3.68823e-09
-7.76227e-10 9.98352e-10 9.94424e-11
-9.53356e-10 1.80365e-09 -1.09228e-09
-1.72157e-23 8.3752e-24 2.48154e-24
5.90743e-10 6.81882e-10 -7.02665e-10
2.60725e-10 -3.74019e-10 2.20083e-10
1.05507e-09 -1.70192e-09 -6.59875e-10
2.88955e-10 1.75722e-09 -1.21025e-09
-5.25998e-10 -1.93083e-09 2.46277e-10
-3.29172e-10 1.36447e-09 -1.48491e-09
3.97182e-10 -2.17712e-10 -2.32426e-10
2.59833e-09 -9.62104e-10 -1.90802e-09
-9.99777e-10 -1.61227e-10 7.50801e-10
-1.60616e-09 1.73486e-09 3.01523e-09
-3.62577e-09 -5.38211e-10 -6.62341e-10
-4.97273e-11 8.91681e-10 -6.91477e-11
6.20835e-10 1.84688e-09 3.5775e-10
6.34365e-10 -3.84918e-10 -8.37996e-12
6.42599e-10 5.52789e-10 3.82916e-10
-2.02336e-09 2.819e-10 -6.25102e-10
-6.3775e-10 -3.66823e-11 1.87635e-10
-2.28914e-09 7.76616e-10 -5.96544e-10
6.14668e-10 -4.90037e-10 4.73745e-10
7.19494e-10 2.14457e-10 -1.90211e-09
-9.65723e-11 -6.4031e-10 4.82187e-12
8.12545e-10 -9.41617e-11 -4.94343e-10
3.54627e-09 -3.50229e-09 6.4665e-10
-4.80645e-09 7.17506e-10 2.38993e-10
-1.04552e-09 3.68266e-09 -1.18748e-09
-8.72586e-10 6.10816e-10 -2.09597e-10
5.74026e-10 -2.65633e-10 2.39683e-10
5.08095e-09 7.84324e-10 -1.38729e-09
-1.52067e-09 6.8325e-10 4.16717e-09
6.66869e-10 -1.23944e-09 2.15325e-10
-2.0266e-10 4.73353e-10 1.79524e-10
-8.91566e-11 1.34195e-09 -8.32345e-10
-2.8163e-11 -9.01935e-10 9.46091e-10
1.93773e-09 5.0919e-10 -1.20874e-10
2.66916e-10 9.01714e-10 -1.02653e-10
3.73457e-10 -1.62457e-10 2.88055e-10
6.57925e-10 1.19164e-09 1.43579e-10
-3.04035e-09 2.64845e-09 1.67931e-09
-1.78834e-09 1.04946e-09 -7.23232e-10
3.62412e-09 3.24295e-10 -1.4241e-09
3.98282e-11 -1.67714e-09 3.75572e-10
-3.09075e-10 -1.69843e-09 5.32851e-10
1.41905e-09 -2.20803e-09 -3.89685e-11
-2.34166e-10 2.48953e-10 3.06572e-11
-1.47852e-09 1.53188e-09 -3.36278e-10
-2.65494e-11 6.63873e-10 2.20773e-10
-2.31936e-09 1.54897e-09 2.5317e-09
-4.87203e-10 5.76291e-10 -4.32507e-09
-1.41854e-10 1.0894e-09 -1.47942e-09
-7.4809e-10 2.69004e-10 1.36873e-10
1.10781e-09 -4.12823e-09 2.22064e-09
1.44757e-23 8.16841e-24 0.0
2.02724e-17 -2.64337e-17 6.88507e-18
1.03915e-10 -2.84285e-10 1.7686e-10
6.44736e-09 -1.29177e-08 -8.99003e-09
1.19981e-09 1.74046e-09 2.45483e-11
-3.57172e-10 -1.1453e-09 1.07636e-09
-4.04407e-10 -8.98341e-10 1.20431e-09
-2.94156e-09 -2.16177e-09 2.21183e-10
6.184e-10 3.09899e-10 -1.07792e-10
-4.94801e-11 -6.11034e-10 5.29686e-11
3.88335e-10 6.08176e-10 -5.29638e-10
1.10141e-09 -2.18445e-10 -6.91183e-10
1.10026e-09 -4.23562e-10 6.89176e-10
-2.05918e-09 4.89494e-10 -3.71339e-10
-1.66677e-10 -1.62587e-09 1.56738e-10
2.81761e-09 -7.38702e-10 1.0436e-09
2.39179e-09 2.10289e-09 -1.07566e-09
6.67269e-10 1.54988e-09 -9.64191e-10
8.94205e-10 -1.47482e-10 -3.46921e-10
2.3074e-10 -1.56587e-09 -1.96583e-09
-1.15425e-09 8.92954e-10 -2.24186e-10
-1.50574e-10 2.08515e-09 -9.8423e-10
2.00274e-09 -1.04743e-09 7.14774e-11
1.24251e-09 4.41486e-10 2.02564e-10
1.25979e-09 -1.00481e-09 2.12936e-10
1.50069e-09 1.08243e-10 -7.12303e-09
2.80787e-10 -1.43337e-10 2.27323e-10
-7.04802e-10 1.46831e-09 -3.23872e-10
9.00208e-10 -4.88354e-10 3.47339e-10
-1.11125e-09 2.79868e-10 -6.72148e-10
-2.93071e-09 -1.08614e-10 1.18417e-09
-2.85095e-09 -6.90043e-10 -1.94006e-09
7.33497e-10 -6.98288e-10 1.16312e-09
5.42347e-10 -7.39951e-10 2.6966e-09
-1.72392e-09 1.83689e-09 -1.31073e-09
-2.42122e-09 1.10106e-09 -4.12499e-10
8.10568e-10 -4.24307e-10 -3.27561e-10
5.32655e-09 6.8283e-10 3.02168e-09
1.77228e-09 -6.02941e-10 9.91121e-10
2.64979e-10 -9.7091e-10 -6.67192e-11
1.17779e-09 -5.13037e-10 -2.08608e-10
4.19561e-09 -2.00828e-09 1.12594e-09
-6.2587e-10 -7.55078e-10 5.62019e-10
5.3487e-10 2.73748e-09 4.36027e-10
6.69206e-10 -5.46784e-11 -7.11124e-10
-2.31997e-10 -8.9707e-10 4.09987e-10
-4.35485e-11 5.85772e-11 -5.11298e-09
1.3401e-09 3.75792e-09 8.12007e-10
-1.39904e-09 8.19446e-11 -5.50093e-10
-3.91544e-09 4.54224e-10 1.23962e-09
-4.04865e-09 -4.93066e-10 1.30563e-09
3.13415e-09 -3.72404e-09 -8.07413e-10
3.6996e-10 -1.81365e-09 -1.27936e-10
7.45777e-09 -1.13548e-08 1.63761e-09
1.97561e-09 1.67968e-09 -1.34306e-09
1.13553e-09 -1.85661e-09 3.07206e-10
2.11508e-09 -2.63711e-10 4.86106e-10
4.78503e-10 -1.43318e-09 6.56446e-10
3.83795e-09 -2.27569e-09 5.4645e-10
-1.12739e-10 1.5808e-09 -4.76746e-10
1.36906e-09 1.36069e-09 -1.52153e-10
1.04663e-09 -1.12797e-09 2.44501e-10
5.32161e-10 1.11283e-09 6.91664e-10
2.33706e-09 -2.31017e-09 -4.88382e-10
8.95731e-10 2.0412e-09 4.12209e-10
-2.5674e-09 9.31086e-10 -1.39223e-10
3.58276e-09 -7.17606e-09 -1.99196e-09
-6.08279e-10 -4.23113e-10 -6.1623e-10
1.11296e-09 2.07642e-09 -2.62385e-10
0.0 0.0 -5.1365e-09
1.88008e-09 5.97639e-09 -2.77737e-09
9.90791e-10 -2.71224e-09 -3.61275e-10
0.0 0.0 -5.1365e-09
-1.55394e-20 2.02901e-20 3.07215e-21
1.04144e-09 6.87089e-10 6.27206e-10
-8.3098e-10 -8.49462e-12 8.17881e-10
4.84924e-11 1.5637e-10 -1.99453e-10
-7.42451e-10 -8.61416e-11 -2.4999e-10
-3.60994e-10 -6.25024e-10 1.12936e-10
-7.14278e-10 1.51886e-09 -2.40562e-09
1.3184e-09 -1.13071e-09 5.7016e-11
3.64533e-10 -1.23922e-09 -7.78741e-10
5.29486e-09 -9.22142e-10 7.46941e-09
6.25555e-24 -1.99557e-23 -2.48154e-24
3.78766e-11 -3.21192e-09 3.63139e-09
-1.73851e-10 -5.24936e-10 -1.0351e-11
0.0 0.0 -5.1365e-09
-1.51262e-10 -1.93632e-09 3.76835e-10
3.60137e-10 1.54361e-09 1.85452e-10
1.18787e-09 -2.02002e-09 6.99958e-10
4.73737e-10 -8.03146e-10 1.69151e-10
-4.1269e-10 -5.79242e-11 3.23948e-12
-8.23564e-10 -3.79092e-10 6.80107e-10
0.0 0.0 -5.1365e-09
2.23404e-10 6.84076e-10 1.1093e-10
-7.13443e-24 -6.20385e-24 0.0
8.1882e-10 -4.96121e-10 6.56288e-10
-3.34352e-09 1.48565e-09 1.01314e-09
1.41997e-09 -2.80442e-09 1.20346e-09
0.0 0.0 -5.1365e-09
-1.9083e-10 4.31915e-09 -1.32453e-09
3.60759e-09 5.07835e-09 -2.03182e-10
2.79323e-09 -3.90179e-09 1.41181e-09
-7.38262e-10 9.66221e-11 1.00173e-10
-1.07085e-09 4.94709e-11 -2.85607e-09
5.86135e-10 -4.02452e-11 6.13437e-10
4.51814e-10 7.19657e-10 -4.06993e-10
-1.35291e-09 9.3197e-10 1.13707e-10
-3.48967e-23 -3.30872e-24 1.65436e-24
-1.71064e-10 -7.6793e-10 1.65748e-11
-1.30366e-11 -1.27967e-09 2.74201e-09
-1.57809e-15 -6.55883e-16 6.10722e-17
-2.37904e-09 1.7079e-09 -4.37434e-10
-3.25859e-10 -6.39835e-10 1.29793e-11
-7.85346e-18 5.93182e-17 -2.51219e-17
1.86703e-09 -1.68282e-09 -1.55904e-10
-1.22649e-09 1.64876e-09 -3.0892e-09
1.36419e-09 -8.80674e-10 5.0889e-10
