# vtk DataFile Version 3.0
LIGGGHTS particles timestep 2000000
ASCII
DATASET POLYDATA
POINTS 188 float
0.0369715 0.0165532 0.00764321
0.0426752 0.0161364 0.00799565
0.0367122 0.0159377 0.00815314
0.0430772 0.0177771 0.00723264
0.036866 0.0168481 0.00749846
0.0372993 0.0175437 0.00713834
0.0426945 0.0161949 0.00791688
0.0371448 0.0172509 0.00728917
0.036559 0.0157338 0.00840835
0.0368755 0.0165268 0.00765906
0.0367912 0.0161868 0.00785071
0.0427382 0.016316 0.00776405
0.0369094 0.0170222 0.00741012
0.037339 0.0177193 0.00704938
0.0429261 0.0171287 0.00744888
0.0372236 0.0180227 0.00695756
0.0432359 0.018089 0.00713833
0.0366174 0.0159155 0.00817686
0.0310026 0.0169957 0.0073187
0.036928 0.016379 0.00773161
0.0429046 0.0170361 0.00747977
0.0370699 0.017311 0.00726116
0.0366368 0.015976 0.0080997
0.0429477 0.0172213 0.00741798
0.0366758 0.0160972 0.00794549
0.0367155 0.0162385 0.00780776
0.0374069 0.0181001 0.00694072
0.0427535 0.0163877 0.007696
0.036919 0.0167008 0.00757073
0.0368442 0.0167611 0.00754263
0.0428183 0.0166656 0.00760334
0.0368972 0.0166138 0.0076149
0.0368538 0.0164397 0.00770323
0.0367703 0.0161194 0.0079216
0.0431201 0.0179624 0.00717083
0.036832 0.0163527 0.0077474
0.0369933 0.0166402 0.00759904
0.0370059 0.017049 0.00739406
0.0368008 0.016587 0.00763096
0.0372617 0.0182163 0.00699023
0.0371841 0.0174265 0.00720019
0.0431604 0.0181499 0.00711414
0.0367319 0.0159983 0.00807601
0.0370908 0.0178087 0.00701243
0.0309478 0.0171541 0.00727561
0.0430124 0.0174992 0.00732531
0.0370369 0.0168144 0.00751063
0.037015 0.0167273 0.00755486
0.0370895 0.0173987 0.00721672
0.0370243 0.0164057 0.00771561
0.0307801 0.0164984 0.00767132
0.0368116 0.0162667 0.00779422
0.0372041 0.0175147 0.0071555
0.0428614 0.0168508 0.00754155
0.0369311 0.0171092 0.00736596
0.0431402 0.0180561 0.00714218
0.0370715 0.0177208 0.00705596
0.037167 0.0177496 0.00703891
0.0374209 0.0172624 0.00727587
0.037014 0.0174582 0.00718903
0.0429693 0.0173139 0.00738709
0.0373265 0.0172337 0.0072928
0.0373758 0.0174854 0.00716547
0.0430556 0.0176845 0.00726353
0.0369067 0.0162918 0.00777582
0.0309884 0.017342 0.00722046
0.0308213 0.0166336 0.00752998
0.0372024 0.0179253 0.00694971
0.0371645 0.0173388 0.00724465
0.0374535 0.0177883 0.00701169
0.0310087 0.0174359 0.00719288
0.0310899 0.0178117 0.00708258
0.0427139 0.0162534 0.0078381
0.0308424 0.016701 0.00745403
0.0428398 0.0167582 0.00757244
0.0427753 0.0164803 0.00766514
0.0427967 0.0165729 0.00763422
0.0370527 0.0176332 0.00710037
0.0429909 0.0174066 0.0073562
0.043034 0.0175918 0.00729442
0.0371681 0.0169445 0.00744191
0.0369529 0.0171963 0.00732179
0.036885 0.0162041 0.00782036
0.0370069 0.0169526 0.00753514
0.0369947 0.0173707 0.00723334
0.0371899 0.0170316 0.00739773
0.0430988 0.0178697 0.00720174
0.0365784 0.0157944 0.00833119
0.0375473 0.017819 0.00699374
0.0366958 0.0161595 0.00786586
0.0369497 0.0164661 0.00768741
0.0366565 0.0160365 0.00802258
0.0371243 0.0171631 0.00733368
0.036779 0.0165 0.00767513
0.0370494 0.0172231 0.00730569
0.0371005 0.01668 0.0075762
0.0367573 0.016413 0.00771942
0.0372514 0.0172935 0.00726492
0.0374369 0.0177002 0.00705627
0.0374054 0.0175861 0.00711422
0.0370786 0.0165927 0.00762049
0.0372626 0.0177778 0.00702217
0.037372 0.01701 0.00740353
0.0373166 0.0167641 0.00752816
0.0365979 0.0158549 0.00825402
0.0373932 0.0179949 0.00693133
0.0429151 0.016697 0.00759656
0.0369624 0.0168749 0.00748239
0.0372695 0.0169767 0.00742305
0.0369746 0.0172833 0.00727763
0.0367512 0.0160589 0.00799883
0.0372257 0.0168022 0.00751158
0.0367356 0.0163259 0.00776347
0.0374698 0.0178764 0.00696716
0.0370276 0.017136 0.00734989
0.0370808 0.016989 0.00742207
0.0372953 0.0179578 0.00693216
0.037112 0.0179027 0.00698591
0.0368225 0.016674 0.0075868
0.0369407 0.0167879 0.00752656
0.0372426 0.0176904 0.0070665
0.0371458 0.0168569 0.00748639
0.0368877 0.0169351 0.00745429
0.0372234 0.0176028 0.00711086
0.0375675 0.0179108 0.00695925
0.0369841 0.016962 0.00743822
0.0371089 0.0174862 0.00717235
0.0373494 0.016922 0.00744821
0.0370586 0.0169015 0.00746645
0.037356 0.0178093 0.00700387
0.0373185 0.0176313 0.00709397
0.0372319 0.017206 0.00730925
0.0372916 0.0170641 0.00737865
0.0372474 0.0168893 0.00746741
0.0371283 0.0175738 0.00712797
0.0375808 0.0180095 0.00692594
0.0371475 0.0176618 0.0070834
0.0370022 0.0163183 0.00775996
0.0374897 0.0179693 0.00693599
0.0309609 0.016816 0.00739601
0.037204 0.0167152 0.00755575
0.0372117 0.0171187 0.00735354
0.0311292 0.0179999 0.0070274
0.0310493 0.0176238 0.00713773
0.0372785 0.0174804 0.00721289
0.0373172 0.018057 0.00695036
0.042883 0.0169434 0.00751066
0.0431806 0.0182437 0.00708611
0.0430225 0.0171595 0.00744227
0.0371871 0.0178373 0.00699472
0.0371025 0.017076 0.00737789
0.0372803 0.0178685 0.00697628
0.0371322 0.0170641 0.00747264
0.0310227 0.0170896 0.00729072
0.0371766 0.0166212 0.00760355
0.0373534 0.0181837 0.00696673
0.0311098 0.0179058 0.007055
0.0371297 0.0164421 0.00769446
0.0430009 0.0170668 0.00747318
0.0375024 0.0180711 0.00693373
0.0371295 0.0178153 0.00710439
0.0372816 0.018313 0.00700633
0.0370496 0.0164965 0.00766945
0.0309073 0.0169674 0.00733465
0.0373519 0.0173278 0.00724499
0.0309682 0.017248 0.00724804
0.0369843 0.0168646 0.0075794
0.0371475 0.0180866 0.00696881
0.0372941 0.0166755 0.00757316
0.0309396 0.0167323 0.00744643
0.037128 0.0179918 0.00694349
0.0308641 0.0167855 0.00740508
0.037124 0.0167696 0.00753068
0.0372063 0.0183736 0.00703253
0.0308856 0.0168782 0.00737438
0.0372708 0.017381 0.00722058
0.0372429 0.0181194 0.00697457
0.0309277 0.0170601 0.00730319
0.031029 0.0175299 0.00716531
0.0371669 0.0181814 0.00699414
0.0370334 0.0175457 0.00714467
0.0310696 0.0177178 0.00711016
0.0309155 0.0166535 0.00750301
0.0371865 0.0182769 0.00701643
0.0309826 0.0169057 0.00735747
0.0373732 0.0179005 0.00695772
0.030801 0.0165686 0.00760318
0.0371172 0.0173947 0.00731272

VERTICES 188 376
1 0
1 1
1 2
1 3
1 4
1 5
1 6
1 7
1 8
1 9
1 10
1 11
1 12
1 13
1 14
1 15
1 16
1 17
1 18
1 19
1 20
1 21
1 22
1 23
1 24
1 25
1 26
1 27
1 28
1 29
1 30
1 31
1 32
1 33
1 34
1 35
1 36
1 37
1 38
1 39
1 40
1 41
1 42
1 43
1 44
1 45
1 46
1 47
1 48
1 49
1 50
1 51
1 52
1 53
1 54
1 55
1 56
1 57
1 58
1 59
1 60
1 61
1 62
1 63
1 64
1 65
1 66
1 67
1 68
1 69
1 70
1 71
1 72
1 73
1 74
1 75
1 76
1 77
1 78
1 79
1 80
1 81
1 82
1 83
1 84
1 85
1 86
1 87
1 88
1 89
1 90
1 91
1 92
1 93
1 94
1 95
1 96
1 97
1 98
1 99
1 100
1 101
1 102
1 103
1 104
1 105
1 106
1 107
1 108
1 109
1 110
1 111
1 112
1 113
1 114
1 115
1 116
1 117
1 118
1 119
1 120
1 121
1 122
1 123
1 124
1 125
1 126
1 127
1 128
1 129
1 130
1 131
1 132
1 133
1 134
1 135
1 136
1 137
1 138
1 139
1 140
1 141
1 142
1 143
1 144
1 145
1 146
1 147
1 148
1 149
1 150
1 151
1 152
1 153
1 154
1 155
1 156
1 157
1 158
1 159
1 160
1 161
1 162
1 163
1 164
1 165
1 166
1 167
1 168
1 169
1 170
1 171
1 172
1 173
1 174
1 175
1 176
1 177
1 178
1 179
1 180
1 181
1 182
1 183
1 184
1 185
1 186
1 187

POINT_DATA 188
SCALARS id int 1
LOOKUP_TABLE default
1
2
3
4
5
6
7
8
9
10
11
12
13
14
15
16
17
18
19
20
21
22
23
25
26
27
28
29
30
31
32
33
34
35
36
37
38
39
40
41
42
43
44
45
46
47
48
49
50
51
52
53
54
55
56
57
58
59
60
61
62
63
64
65
66
67
68
69
70
71
72
73
74
75
76
77
78
79
80
81
82
83
84
85
86
87
88
89
90
91
92
93
94
95
96
97
98
99
100
101
102
103
104
105
106
107
108
109
110
111
112
113
114
115
116
117
118
119
120
121
122
123
124
125
126
127
128
129
130
131
132
133
134
135
136
137
138
139
140
141
142
143
144
145
146
147
148
149
150
151
152
153
154
155
156
157
158
159
160
161
162
163
164
165
166
167
168
169
170
171
173
174
175
176
177
178
179
180
181
182
183
184
185
186
187
188
189
190

SCALARS type int 1
LOOKUP_TABLE default
1
1
1
1
1
1
1
1
1
1
1
1
1
1
1
1
1
1
1
1
1
1
1
1
1
1
1
1
1
1
1
1
1
1
1
1
1
1
1
1
1
1
1
1
1
1
1
1
1
1
1
1
1
1
1
1
1
1
1
1
1
1
1
1
1
1
1
1
1
1
1
1
1
1
1
1
1
1
1
1
1
1
1
1
1
1
1
1
1
1
1
1
1
1
1
1
1
1
1
1
1
1
1
1
1
1
1
1
1
1
1
1
1
1
1
1
1
1
1
1
1
1
1
1
1
1
1
1
1
1
1
1
1
1
1
1
1
1
1
1
1
1
1
1
1
1
1
1
1
1
1
1
1
1
1
1
1
1
1
1
1
1
1
1
1
1
1
1
1
1
1
1
1
1
1
1
1
1
1
1
1
1
1
1
1
1
1
1

SCALARS radius float 1
LOOKUP_TABLE default
5e-05
5e-05
5e-05
5e-05
5e-05
5e-05
5e-05
5e-05
5e-05
5e-05
5e-05
5e-05
5e-05
5e-05
5e-05
5e-05
5e-05
5e-05
5e-05
5e-05
5e-05
5e-05
5e-05
5e-05
5e-05
5e-05
5e-05
5e-05
5e-05
5e-05
5e-05
5e-05
5e-05
5e-05
5e-05
5e-05
5e-05
5e-05
5e-05
5e-05
5e-05
5e-05
5e-05
5e-05
5e-05
5e-05
5e-05
5e-05
5e-05
5e-05
5e-05
5e-05
5e-05
5e-05
5e-05
5e-05
5e-05
5e-05
5e-05
5e-05
5e-05
5e-05
5e-05
5e-05
5e-05
5e-05
5e-05
5e-05
5e-05
5e-05
5e-05
5e-05
5e-05
5e-05
5e-05
5e-05
5e-05
5e-05
5e-05
5e-05
5e-05
5e-05
5e-05
5e-05
5e-05
5e-05
5e-05
5e-05
5e-05
5e-05
5e-05
5e-05
5e-05
5e-05
5e-05
5e-05
5e-05
5e-05
5e-05
5e-05
5e-05
5e-05
5e-05
5e-05
5e-05
5e-05
5e-05
5e-05
5e-05
5e-05
5e-05
5e-05
5e-05
5e-05
5e-05
5e-05
5e-05
5e-05
5e-05
5e-05
5e-05
5e-05
5e-05
5e-05
5e-05
5e-05
5e-05
5e-05
5e-05
5e-05
5e-05
5e-05
5e-05
5e-05
5e-05
5e-05
5e-05
5e-05
5e-05
5e-05
5e-05
5e-05
5e-05
5e-05
5e-05
5e-05
5e-05
5e-05
5e-05
5e-05
5e-05
5e-05
5e-05
5e-05
5e-05
5e-05
5e-05
5e-05
5e-05
5e-05
5e-05
5e-05
5e-05
5e-05
5e-05
5e-05
5e-05
5e-05
5e-05
5e-05
5e-05
5e-05
5e-05
5e-05
5e-05
5e-05
5e-05
5e-05
5e-05
5e-05
5e-05
5e-05
5e-05
5e-05
5e-05
5e-05
5e-05
5e-05

SCALARS mass float 1
LOOKUP_TABLE default
5.23599e-10
5.23599e-10
5.23599e-10
5.23599e-10
5.23599e-10
5.23599e-10
5.23599e-10
5.23599e-10
5.23599e-10
5.23599e-10
5.23599e-10
5.23599e-10
5.23599e-10
5.23599e-10
5.23599e-10
5.23599e-10
5.23599e-10
5.23599e-10
5.23599e-10
5.23599e-10
5.23599e-10
5.23599e-10
5.23599e-10
5.23599e-10
5.23599e-10
5.23599e-10
5.23599e-10
5.23599e-10
5.23599e-10
5.23599e-10
5.23599e-10
5.23599e-10
5.23599e-10
5.23599e-10
5.23599e-10
5.23599e-10
5.23599e-10
5.23599e-10
5.23599e-10
5.23599e-10
5.23599e-10
5.23599e-10
5.23599e-10
5.23599e-10
5.23599e-10
5.23599e-10
5.23599e-10
5.23599e-10
5.23599e-10
5.23599e-10
5.23599e-10
5.23599e-10
5.23599e-10
5.23599e-10
5.23599e-10
5.23599e-10
5.23599e-10
5.23599e-10
5.23599e-10
5.23599e-10
5.23599e-10
5.23599e-10
5.23599e-10
5.23599e-10
5.23599e-10
5.23599e-10
5.23599e-10
5.23599e-10
5.23599e-10
5.23599e-10
5.23599e-10
5.23599e-10
5.23599e-10
5.23599e-10
5.23599e-10
5.23599e-10
5.23599e-10
5.23599e-10
5.23599e-10
5.23599e-10
5.23599e-10
5.23599e-10
5.23599e-10
5.23599e-10
5.23599e-10
5.23599e-10
5.23599e-10
5.23599e-10
5.23599e-10
5.23599e-10
5.23599e-10
5.23599e-10
5.23599e-10
5.23599e-10
5.23599e-10
5.23599e-10
5.23599e-10
5.23599e-10
5.23599e-10
5.23599e-10
5.23599e-10
5.23599e-10
5.23599e-10
5.23599e-10
5.23599e-10
5.23599e-10
5.23599e-10
5.23599e-10
5.23599e-10
5.23599e-10
5.23599e-10
5.23599e-10
5.23599e-10
5.23599e-10
5.23599e-10
5.23599e-10
5.23599e-10
5.23599e-10
5.23599e-10
5.23599e-10
5.23599e-10
5.23599e-10
5.23599e-10
5.23599e-10
5.23599e-10
5.23599e-10
5.23599e-10
5.23599e-10
5.23599e-10
5.23599e-10
5.23599e-10
5.23599e-10
5.23599e-10
5.23599e-10
5.23599e-10
5.23599e-10
5.23599e-10
5.23599e-10
5.23599e-10
5.23599e-10
5.23599e-10
5.23599e-10
5.23599e-10
5.23599e-10
5.23599e-10
5.23599e-10
5.23599e-10
5.23599e-10
5.23599e-10
5.23599e-10
5.23599e-10
5.23599e-10
5.23599e-10
5.23599e-10
5.23599e-10
5.23599e-10
5.23599e-10
5.23599e-10
5.23599e-10
5.23599e-10
5.23599e-10
5.23599e-10
5.23599e-10
5.23599e-10
5.23599e-10
5.23599e-10
5.23599e-10
5.23599e-10
5.23599e-10
5.23599e-10
5.23599e-10
5.23599e-10
5.23599e-10
5.23599e-10
5.23599e-10
5.23599e-10
5.23599e-10
5.23599e-10
5.23599e-10
5.23599e-10
5.23599e-10
5.23599e-10
5.23599e-10
5.23599e-10
5.23599e-10
5.23599e-10
5.23599e-10
5.23599e-10

VECTORS velocity float
0.0128682 0.000120327 -0.000418095
0.0113207 -0.00104284 0.00078758
0.0117742 0.000601405 -0.000136668
0.0120353 -0.00117224 0.000901714
0.012832 0.000130212 -0.000427773
0.0125472 0.0005358 -0.000634681
0.0114251 -0.0010075 0.000772571
0.0117033 0.000560363 -0.00061506
0.0114427 0.000370451 0.00012722
0.0128566 0.000178838 -0.000435074
0.0120459 0.000426642 -0.000211996
0.0120711 -0.00122056 0.000755015
0.0128044 7.3122e-05 -0.000381078
0.0122438 0.000615201 -0.000711363
0.0122261 -0.00114163 0.000897451
0.0116836 0.000227684 -0.000720606
0.0114954 -0.00100492 0.0011021
0.0116025 0.000520785 -8.16307e-05
0.0118179 0.00113616 3.52336e-05
0.0128615 0.000159826 -0.000425236
0.0122532 -0.00112851 0.00089875
0.0116451 0.000509226 -0.000573493
0.011643 0.000558879 -0.000131159
0.0121859 -0.00117807 0.000904106
0.0117753 0.000695277 -0.00015708
0.0118218 0.000351208 -0.000489884
0.0109817 0.00142748 -0.000468194
0.0124567 -0.0011732 0.000858464
0.0128598 0.000148135 -0.00043309
0.0128446 0.000158446 -0.000435584
0.0124007 -0.00117332 0.000897862
0.0128504 0.000155175 -0.000427042
0.0128827 0.000178988 -0.000447094
0.0118399 0.000581979 -8.12037e-05
0.0114587 -0.00101127 0.000836309
0.0128291 0.00017073 -0.00044961
0.0128455 0.000121035 -0.000421528
0.012778 9.1109e-05 -0.000388639
0.0128424 0.000176154 -0.000438004
0.0106295 0.000763538 -0.00173238
0.011327 0.000666408 -0.00064956
0.0115143 -0.000965784 0.00107921
0.0119111 0.000565107 -9.05812e-05
0.0119972 5.17945e-05 -0.000319833
0.0118682 0.00086791 -0.000778004
0.0120743 -0.00118821 0.000906701
0.0129004 0.000267719 -0.000478087
0.0129219 0.000204488 -0.000467226
0.0112543 0.000744888 -0.000683696
0.0127882 7.86805e-05 -0.00040114
0.0130006 0.00102915 -0.00020594
0.0124644 0.000258368 -0.000368992
0.011617 0.000231953 -0.000409334
0.0122973 -0.00117146 0.000912465
0.0127888 5.17477e-05 -0.000372057
0.011437 -0.00094834 0.00105546
0.0120361 9.59303e-05 -0.00035469
0.0120855 0.000231094 -0.000472331
0.0116432 0.00107572 -0.000844018
0.0108878 0.00043312 -0.000504964
0.0121484 -0.00118556 0.000907421
0.011663 0.000876314 -0.000744498
0.0127035 0.000676063 -0.000677223
0.0120424 -0.00112712 0.000885862
0.0125289 0.000242802 -0.000466124
0.0119331 0.000873519 -0.000766884
0.0131011 0.000102233 -0.000765649
0.0119766 0.000142432 -0.000454806
0.0115963 0.00100608 -0.000808318
0.0121036 0.00132241 -0.000997946
0.01203 0.000843197 -0.000763325
0.012138 0.000842615 -0.000751063
0.0112299 -0.00101874 0.000758384
0.0132073 0.000303935 -0.00101961
0.0123378 -0.00119445 0.000923871
0.0124131 -0.00117475 0.000879398
0.0123833 -0.00116437 0.000891163
0.0117515 0.000221071 -0.000458129
0.0121102 -0.00119433 0.000910345
0.0120655 -0.00115433 0.000893027
0.0130202 0.000448066 -0.000580789
0.0127842 6.5727e-05 -0.000387405
0.0121927 -8.56397e-05 -0.000302326
0.0128667 0.000172756 -0.000393566
0.0114681 0.00033315 -0.000476938
0.0130473 0.000504994 -0.000605576
0.0119229 -0.00123549 0.000913513
0.0114534 0.000419232 6.34391e-05
0.0119207 0.00144669 -0.00103324
0.0118782 0.00060404 -0.00012006
0.0128484 0.000162523 -0.000429198
0.0118112 0.000612403 -0.000127393
0.0131107 0.000214999 -0.000465958
0.0128308 0.000166456 -0.0004463
0.0129008 5.11045e-05 -0.000380523
0.0129152 0.000184242 -0.000447858
0.0127977 0.000126032 -0.000470148
0.0113589 0.000675197 -0.000657833
0.0123751 0.0013614 -0.00105102
0.0127509 0.000711272 -0.000700003
0.0128333 8.29512e-05 -0.00039935
0.0120215 0.000261608 -0.000576851
0.013501 0.000768264 -0.000751467
0.0134324 0.00111334 -0.000931278
0.0115588 0.00048747 -7.39798e-06
0.0116789 0.000916801 -0.000329921
0.0123249 -0.00115798 0.000901187
0.0128172 0.000154039 -0.000430201
0.0132857 0.000810527 -0.000769457
0.0128421 6.42221e-05 -0.000385208
0.0117341 0.00049306 -0.00012065
0.0132302 0.000727297 -0.000708553
0.0128673 0.000162376 -0.000412833
0.0116624 0.00131431 -0.000981291
0.0127701 7.57049e-05 -0.000386099
0.0128854 0.00020844 -0.000453851
0.0121775 0.000432836 -0.000388042
0.0119556 5.52725e-05 -0.000298251
0.0128414 0.000172869 -0.000434164
0.0128634 0.000157783 -0.000438768
0.0123528 0.000478918 -0.000586056
0.0130371 0.000513813 -0.000600629
0.0128143 0.000104074 -0.000411488
0.012395 0.000441718 -0.000565508
0.011035 0.00178257 -0.000343438
0.0127964 0.000124127 -0.000400861
0.0109637 0.000347171 -0.000480664
0.0134432 0.00101582 -0.00087785
0.0128785 0.000253484 -0.000458572
0.0119764 0.000564353 -0.000695316
0.0125462 0.000530697 -0.000625074
0.0117409 0.000595352 -0.00063306
0.0134362 0.00068702 -0.000717455
0.0132194 0.000707803 -0.000712238
0.011544 0.000148476 -0.000410349
0.0110356 0.0021441 -0.000317278
0.0122126 0.000283213 -0.000453082
0.0127706 5.22885e-05 -0.000379807
0.011464 0.00173736 -3.27533e-05
0.0132502 0.000906309 0.000171267
0.0132393 0.000720934 -0.000762596
0.0132902 0.000506166 -0.000615427
0.011707 0.000815329 -0.00073504
0.0120404 0.000796425 -0.000749072
0.0120554 0.000708415 -0.000600506
0.0115371 0.000625734 -0.000666115
0.0123021 -0.00113951 0.00089485
0.0115736 -0.000981767 0.00109468
0.0122135 -0.00116536 0.000903664
0.0119294 0.000192114 -0.000355564
0.0128832 0.000210853 -0.000446578
0.0119376 0.000315654 -0.000483987
0.0130988 0.000324959 -0.00048884
0.0118777 0.000867925 -0.000776637
0.0128301 0.000105701 -0.000394241
0.00976861 -0.0030342 -0.00238692
0.0117235 0.000944441 -0.000769973
0.0127895 -4.40293e-05 -0.000335124
0.0122418 -0.00116119 0.000898358
0.0109844 0.00190579 -0.000348821
0.0127485 0.000520105 -0.000432136
0.0111047 0.000835627 -0.00191766
0.0128626 6.90164e-05 -0.000395398
0.013136 0.000877444 2.44988e-05
0.0114823 0.000857648 -0.000733567
0.0118873 0.000884102 -0.000762668
0.0128039 0.000224119 -0.00046176
0.0116284 3.81275e-06 0.000632032
0.0134635 0.00105323 -0.000883304
0.0131507 0.000701686 -0.0001738
0.0117199 8.5226e-05 8.84703e-05
0.0132261 0.00103549 0.000137528
0.01303 0.000502413 -0.000615107
0.0114936 0.00104959 -0.00198075
0.0132254 0.000908692 0.00016623
0.0114106 0.000737551 -0.000687136
0.0116418 0.000315063 -0.00189488
0.0117654 0.000844324 -0.000911373
0.0120726 0.000781028 -0.00074943
0.0116834 0.000230418 -0.000444727
0.010998 0.000384755 -0.000517132
0.0120762 0.000877254 -0.000757858
0.0131038 0.000188029 -0.000834042
0.0119053 0.000726143 -0.00196842
0.0133056 0.000950443 0.000219795
0.0116629 0.000654135 -0.000707745
0.0128112 0.000286521 -0.000692932
0.0116616 0.00109293 -0.000790473

VECTORS force float
2.44657e-10 7.32991e-10 1.38814e-10
-2.32106e-09 4.22854e-09 -2.29928e-09
-5.33699e-10 2.02223e-10 -1.72417e-09
2.68168e-09 -2.89065e-09 1.42338e-09
4.1414e-10 -1.556e-10 1.34135e-10
-2.75133e-09 2.251e-09 -5.12747e-10
-2.44274e-09 2.34057e-09 -2.4298e-09
-4.07072e-10 -1.1181e-09 6.65514e-10
7.93482e-10 3.598e-10 -5.07993e-10
-2.23325e-10 2.13509e-10 -8.43167e-11
1.60523e-09 4.82888e-10 -1.59444e-09
6.29271e-09 -4.94243e-09 7.1313e-09
5.12835e-10 -2.82626e-10 5.28727e-13
9.95258e-10 -2.23966e-09 -5.93508e-10
2.45138e-10 1.24075e-09 -1.39094e-10
-3.37999e-09 -1.83331e-09 7.91712e-09
-5.50506e-11 -1.35696e-10 3.00599e-10
-1.42742e-09 -1.03992e-09 2.29757e-11
1.04852e-09 3.88553e-10 -5.73807e-10
-1.00929e-09 7.29318e-10 -3.8006e-10
4.66112e-10 5.80203e-11 -1.57421e-11
-1.25607e-09 -7.97041e-10 9.5573e-10
-6.93292e-10 -6.79182e-11 5.18143e-10
3.90785e-10 1.09157e-09 -2.75805e-10
5.52118e-10 1.38234e-09 -1.23978e-09
-1.71845e-09 7.93479e-10 1.55319e-10
4.07696e-09 -1.97682e-09 3.89745e-09
1.44891e-09 3.89007e-10 2.47527e-09
3.47939e-10 2.11165e-10 2.96948e-10
3.10954e-10 7.04052e-10 2.01862e-10
-2.45481e-10 -1.0632e-09 4.53637e-10
2.38635e-10 6.41119e-10 3.15869e-10
-1.73779e-09 3.71802e-10 -2.58049e-10
8.0526e-10 4.1374e-10 -1.45946e-09
8.31567e-10 -2.76253e-10 4.57198e-10
-2.68615e-09 -3.98224e-10 -3.64541e-10
2.94608e-10 -2.51412e-10 2.34993e-10
1.10334e-09 -1.11718e-09 5.1227e-10
6.65967e-11 2.48885e-10 -1.83617e-11
-1.1376e-10 -8.63112e-11 -4.75807e-09
-8.04775e-10 -8.88129e-10 3.69244e-10
-6.10728e-10 1.47113e-11 -2.28064e-10
-2.20667e-09 3.40379e-09 -4.8806e-09
3.40206e-09 -2.6745e-09 4.31982e-10
5.70773e-11 4.32605e-10 -4.87612e-10
-1.65746e-10 2.71585e-10 -2.7858e-11
2.31621e-10 -1.8651e-09 2.1822e-09
9.28011e-10 -2.77811e-10 1.89127e-10
6.66767e-11 4.99601e-10 -7.27389e-11
-9.90981e-10 1.23147e-09 -2.62617e-10
-3.15212e-10 1.00571e-09 -2.66602e-09
-1.49999e-09 7.1693e-10 -5.01126e-10
-3.45264e-10 7.30677e-10 -8.66113e-10
1.14993e-10 -1.27957e-09 9.57833e-10
7.26915e-10 -1.00373e-10 2.16335e-10
-1.11364e-09 5.99718e-10 -4.46293e-10
-1.2058e-09 -3.96691e-09 5.42809e-11
-1.53929e-10 -5.07768e-09 4.25974e-09
1.14377e-09 -2.52479e-09 1.17782e-09
6.99297e-10 -5.56213e-10 1.27078e-11
-4.45715e-11 -3.55096e-10 1.39897e-11
5.60082e-11 1.24038e-09 -1.05616e-09
1.46545e-10 -9.61175e-10 -2.06248e-10
6.86264e-11 2.21843e-10 -2.79063e-11
-1.47796e-09 6.19431e-10 -3.87861e-10
-1.93836e-09 -2.28752e-10 5.00189e-10
5.03918e-09 -3.35764e-09 4.12047e-09
-4.07267e-09 -3.0353e-09 -5.16147e-09
-6.86186e-10 4.59615e-10 -1.06462e-09
-1.7329e-09 1.44798e-09 -1.69755e-09
-1.07058e-09 2.99987e-10 3.89178e-10
-2.46604e-09 9.43369e-10 -7.26993e-10
-2.97622e-09 -2.50178e-09 4.25667e-09
8.73052e-10 4.15047e-10 -1.99233e-09
1.06641e-09 -2.59783e-10 -6.00789e-11
2.06258e-09 -3.31533e-10 -8.96251e-10
-3.62626e-10 5.67451e-11 1.24871e-10
-5.22661e-10 -3.66475e-09 2.05952e-09
-6.20967e-11 -8.46633e-10 2.64146e-10
-2.92084e-11 1.14077e-09 -4.39678e-10
1.17088e-09 -1.34907e-09 7.15613e-10
3.12752e-10 4.86215e-10 -2.33573e-10
-1.56356e-09 1.11112e-09 -7.39453e-10
1.76565e-09 -2.54523e-09 1.27965e-09
1.48946e-10 7.7958e-10 -9.89385e-11
1.94886e-09 -5.64405e-10 3.79004e-10
4.51941e-09 -4.71082e-09 2.61585e-09
-1.23381e-10 -4.6744e-11 1.25916e-10
-1.90088e-09 1.59417e-09 -1.36946e-09
-2.03686e-10 2.93445e-10 -4.90086e-09
-6.30773e-10 7.69805e-10 7.87012e-11
4.48128e-10 1.38658e-09 -5.94324e-10
1.67127e-10 -1.09836e-09 3.70772e-10
-1.9651e-09 -1.88766e-10 2.37836e-10
-6.65471e-10 -9.18612e-10 4.78745e-10
1.09325e-09 -1.4863e-09 3.57453e-10
1.29269e-09 2.10546e-10 7.86221e-10
-3.34985e-10 3.47426e-10 -1.31131e-10
1.41662e-09 -1.03868e-09 -1.31543e-09
-1.69863e-09 1.51859e-09 -1.22881e-10
1.32509e-09 -1.64564e-12 -4.60074e-10
-1.18018e-09 8.03088e-10 5.9081e-09
-3.21383e-10 -3.76914e-10 1.38552e-11
3.76853e-10 -1.10101e-09 1.18447e-09
-6.67218e-10 -3.32299e-10 -1.08102e-10
3.93753e-09 5.73808e-09 4.74093e-09
1.57908e-09 2.39786e-10 2.39243e-10
3.86962e-10 -9.60609e-10 1.47365e-09
1.55599e-09 -1.3821e-09 7.00891e-10
1.51751e-10 1.19167e-09 -5.86372e-10
-7.89036e-10 -2.02256e-10 -3.24037e-09
2.01697e-09 -5.40877e-10 5.52601e-10
-3.21067e-10 -1.23669e-09 -3.08778e-10
-4.40583e-09 3.54552e-09 6.80115e-09
5.66014e-10 -5.04583e-10 3.10537e-10
1.04202e-09 -1.39009e-09 7.20789e-10
-1.1163e-08 1.56199e-09 -5.34359e-09
3.96518e-09 -2.92767e-09 4.66491e-09
2.04221e-10 3.88237e-10 1.23159e-10
4.2327e-10 -4.26314e-10 5.37181e-10
2.44702e-09 5.44501e-10 -4.89549e-11
1.80584e-09 -1.02071e-09 3.51398e-10
2.50669e-11 -6.98306e-10 -8.86695e-11
-1.00663e-09 2.63355e-09 2.96183e-10
1.16006e-08 -1.18373e-08 -1.94395e-09
1.03582e-09 -1.99338e-09 8.16823e-10
-4.58519e-10 -2.05487e-09 1.65403e-10
1.35256e-09 -1.15764e-09 4.93695e-10
1.49362e-09 -2.76234e-09 1.13743e-09
2.41927e-09 -3.2303e-09 1.69726e-09
-9.48624e-10 -2.53275e-10 -9.88405e-10
1.85344e-09 7.33638e-11 -4.57922e-10
6.71499e-10 -6.97572e-11 -9.44576e-12
2.05049e-09 -8.51476e-10 4.32625e-10
6.49836e-10 6.03444e-11 7.57496e-11
-3.00102e-10 -1.73873e-09 -9.66015e-11
-1.37203e-09 -2.37056e-09 1.05454e-09
-7.36417e-10 1.09131e-09 -4.09158e-10
-9.05542e-09 5.14383e-09 3.06034e-09
2.16465e-10 1.55077e-09 4.77596e-11
1.97475e-09 3.59106e-10 -5.7437e-10
1.19127e-09 -3.85557e-10 3.41059e-10
-6.94233e-11 -5.15189e-10 2.02913e-10
2.44675e-09 -2.62976e-09 2.95732e-10
-7.88485e-10 1.0788e-09 -8.05229e-10
6.37136e-09 -6.97908e-09 1.88425e-09
-3.7609e-10 -4.68652e-10 -7.111e-11
6.56088e-11 7.73651e-11 -1.33981e-10
-6.11302e-10 4.9225e-10 -3.18586e-10
4.44656e-09 1.79225e-09 -4.8195e-10
1.15119e-09 -1.0777e-09 4.72708e-10
3.89372e-09 1.72893e-09 4.53536e-09
1.35439e-09 -1.49804e-09 5.9079e-10
-4.60817e-10 -8.83012e-10 9.14344e-10
2.41216e-09 -7.6259e-10 2.43435e-10
-2.05063e-09 -3.75704e-10 2.55543e-09
-1.02274e-09 5.64192e-09 -7.09758e-10
1.48768e-09 -8.02182e-10 -2.1752e-10
-1.05171e-09 5.42737e-10 -2.02625e-10
8.22699e-09 4.08609e-09 -1.22606e-09
6.96211e-11 -5.45469e-10 -3.85769e-09
-1.47731e-09 -1.17209e-09 -2.2289e-10
3.52833e-10 -9.25927e-11 2.83052e-10
-3.57517e-09 5.01437e-10 -3.03783e-09
6.96922e-10 -1.02337e-10 -1.25334e-09
-7.30744e-11 1.80872e-10 -6.33176e-10
2.57542e-09 -1.64397e-09 3.78856e-09
3.95961e-10 -7.56076e-09 1.74254e-09
3.31745e-09 -2.9695e-09 9.26869e-10
1.13541e-09 1.39983e-09 1.45646e-09
3.86862e-09 -1.80183e-09 5.87028e-09
-5.01799e-09 3.51077e-09 3.1086e-09
1.59947e-09 -8.77192e-11 2.07549e-09
-4.71707e-09 -3.6088e-09 1.0554e-08
3.37427e-10 1.91041e-09 -1.26107e-09
-1.28302e-09 7.22243e-10 -5.33634e-10
7.80459e-09 -3.53235e-09 1.40758e-08
4.0727e-10 2.10034e-10 -8.47124e-10
1.76734e-09 1.43994e-10 -2.51593e-10
1.73745e-09 -2.26683e-09 -2.72446e-09
7.86777e-10 -2.14418e-09 1.27181e-09
-1.11329e-09 -2.99799e-09 9.61548e-10
2.48533e-09 -1.90643e-09 1.166e-09
5.88353e-09 -4.55007e-09 -4.51114e-09
-1.69466e-09 1.7799e-09 -1.83105e-09
9.93306e-09 2.02866e-09 4.17902e-09
2.89132e-09 -8.0349e-09 2.61801e-09
7.31564e-10 -2.71935e-10 -6.40297e-10
