# vtk DataFile Version 3.0
LIGGGHTS particles timestep 9000000
ASCII
DATASET POLYDATA
POINTS 235 float
0.0652152 0.0160633 0.00814752
0.0713138 0.0167637 0.00758001
0.0651759 0.0159026 0.00825989
0.071191 0.0163119 0.00795514
0.0649166 0.0153618 0.00892875
0.0713343 0.0168391 0.00751749
0.077209 0.0163109 0.00780553
0.0591629 0.0162719 0.00819717
0.0712933 0.0166884 0.00764254
0.0650028 0.0155584 0.00850741
0.0650421 0.0157167 0.00839172
0.0649824 0.0154839 0.00857092
0.0712524 0.0165378 0.00776758
0.0648085 0.0151967 0.00938274
0.0651006 0.0159578 0.00822312
0.0712319 0.0164625 0.0078301
0.0650225 0.0156364 0.00844796
0.0712114 0.0163872 0.00789262
0.0650615 0.0157971 0.00833551
0.0652354 0.0161436 0.00809139
0.0711709 0.0162355 0.00801651
0.0651595 0.0161989 0.00805457
0.0711316 0.0160818 0.00813822
0.065081 0.0158775 0.00827931
0.0653522 0.0168321 0.00771474
0.0653821 0.0167044 0.00769907
0.0656075 0.0172128 0.00734155
0.0654839 0.0167354 0.00767548
0.0651954 0.015983 0.00820369
0.06541 0.0171682 0.00748182
0.0651202 0.0160382 0.00816694
0.00738367 0.018342 0.00543103
0.0711512 0.0161586 0.00807736
0.0712729 0.0166131 0.00770506
0.0622989 0.0169617 0.00747131
0.0654031 0.0167845 0.00764303
0.0652439 0.0165193 0.00783045
0.0711119 0.0160049 0.00819907
0.0648935 0.0153095 0.00901075
0.0595658 0.0174292 0.00726051
0.0656286 0.0172929 0.00728551
0.0649623 0.0154118 0.00863726
0.0652173 0.0164494 0.00798741
0.0649358 0.0153736 0.00883133
0.0648515 0.0152509 0.00919512
0.0651806 0.016279 0.00799854
0.0654565 0.0172451 0.00742336
0.0652977 0.016384 0.0079232
0.0655188 0.0175763 0.00713995
0.0595397 0.0177816 0.00747677
0.0651399 0.0161185 0.00811075
0.0654457 0.0169451 0.00753068
0.0593628 0.0169639 0.00750356
0.0654245 0.0168649 0.00758679
0.0652651 0.0165994 0.00777447
0.0655312 0.0176279 0.00705519
0.065286 0.0166795 0.00771838
0.059443 0.0172704 0.00755039
0.0655503 0.0177195 0.00701991
0.058683 0.0147615 0.00981039
0.0595375 0.0172659 0.00720222
0.0653282 0.0168397 0.00760631
0.0597259 0.0173526 0.00718317
0.0653612 0.0169994 0.00760958
0.0710728 0.0158511 0.0083208
0.0653072 0.0167597 0.00766249
0.0710923 0.015928 0.00825992
0.0157927 0.0215765 0.00607411
0.0653189 0.0164641 0.00786718
0.0653704 0.0169999 0.00749425
0.0655301 0.0172655 0.00730655
0.0654247 0.017058 0.00755921
0.0653401 0.0165442 0.00781115
0.0595807 0.0170863 0.00738377
0.065509 0.0171854 0.00736258
0.059702 0.0171871 0.00728421
0.0649472 0.0153866 0.00873283
0.0647655 0.0151425 0.00957037
0.0309319 0.0177902 0.00780508
0.0586636 0.0147684 0.00990825
0.0655328 0.0169039 0.00755753
0.0593228 0.0168255 0.00764227
0.0648306 0.0152238 0.00928907
0.0654976 0.0174959 0.00725686
0.0654125 0.01716 0.00738219
0.0594428 0.0172407 0.00722612
0.0653427 0.0169188 0.00766575
0.0655912 0.0175073 0.00713746
0.0651412 0.0161654 0.0081993
0.0648863 0.0152772 0.00910514
0.0587046 0.0147872 0.00971615
0.0652559 0.0162238 0.0080353
0.064787 0.0151696 0.00947656
0.0591374 0.0158802 0.00859125
0.0654336 0.0172401 0.00732615
0.0592029 0.0160887 0.00838227
0.0654909 0.0171212 0.00751729
0.0651566 0.0158222 0.0083161
0.0598156 0.0173968 0.00718132
0.0653914 0.0170799 0.00743822
0.0587462 0.014914 0.00956717
0.0588075 0.0151167 0.00935476
0.0587667 0.0149806 0.00949546
0.0654795 0.0173274 0.00736672
0.0647439 0.0151153 0.00966418
0.0587254 0.0148505 0.00964167
0.0654547 0.0173202 0.00727012
0.0655511 0.0173456 0.00725051
0.0656556 0.0173795 0.00722484
0.0587872 0.0150475 0.00942408
0.0589302 0.0155335 0.00894104
0.0588683 0.0153242 0.0091468
0.0623191 0.0170406 0.0074134
0.0213664 0.0168716 0.00826204
0.0596844 0.0171176 0.00735391
0.0588278 0.0151859 0.00928544
0.0589089 0.0154625 0.00900816
0.0594206 0.0165327 0.0079387
0.0591838 0.0160194 0.00845176
0.0590159 0.0157886 0.00868147
0.058848 0.015255 0.00921612
0.0590003 0.0155823 0.00888903
0.0592798 0.0163659 0.00810437
0.0588886 0.0153933 0.00907748
0.0589921 0.01572 0.00875019
0.0594727 0.0173897 0.00728041
0.0654758 0.0174004 0.00721417
0.065509 0.0168202 0.00761607
0.0595006 0.0168095 0.00766124
0.0590623 0.0159261 0.0085438
0.0653493 0.0169198 0.00755028
0.0652766 0.016304 0.00797923
0.0592998 0.0164351 0.008035
0.0597329 0.0174607 0.00718096
0.0589757 0.0156504 0.00882005
0.0595206 0.0168787 0.00759187
0.0655539 0.016984 0.00750148
0.0593168 0.0168491 0.00777594
0.059573 0.0172485 0.00733877
0.226587 0.0186791 0.00533789
0.0652017 0.0163591 0.00794253
0.0653609 0.0166243 0.0077551
0.0530502 0.0158188 0.00843515
0.0596007 0.0171555 0.00731441
0.0595589 0.0173643 0.00718477
0.0654879 0.0171053 0.00741861
0.0595607 0.0170171 0.00745314
0.0596409 0.0174215 0.00718274
0.0593398 0.0165736 0.00789623
0.0591069 0.0160638 0.00840582
0.0595161 0.017577 0.00718112
0.0594853 0.0174317 0.00719054
0.0590394 0.0158573 0.00861269
0.0594806 0.0167403 0.0077306
0.0594366 0.0172931 0.00744962
0.0655725 0.017426 0.0071943
0.0596186 0.0172254 0.00724435
0.053031 0.0157604 0.008514
0.0594927 0.0172928 0.0072953
0.0596443 0.0169792 0.00749266
0.059412 0.0171739 0.00743398
0.0651369 0.0157419 0.00837228
0.0592228 0.0164795 0.00798907
0.059126 0.0161331 0.00833633
0.0654668 0.0170252 0.00747465
0.0592429 0.0165487 0.00791973
0.0159913 0.0152807 0.00678236
0.059392 0.0171047 0.00750335
0.0593199 0.0165043 0.00796563
0.0595856 0.0173207 0.00727073
0.0199208 0.0175026 0.00790632
0.0530884 0.0159357 0.00827744
0.0591428 0.0162027 0.00826652
0.0254028 0.0195569 0.00545165
0.059553 0.0171793 0.00740813
0.0593542 0.0169659 0.00764222
0.0592028 0.0164104 0.00805851
0.0623394 0.0171196 0.00735549
0.0593828 0.0170331 0.0074342
0.0593799 0.016712 0.00775748
0.0594543 0.0173532 0.00737167
0.0593598 0.0166428 0.00782686
0.0596643 0.0170484 0.0074233
0.0655799 0.0170724 0.00743959
0.0594199 0.0168504 0.00761876
0.0591828 0.0163411 0.00812779
0.0530693 0.0158773 0.0083563
0.0531267 0.0160526 0.00811974
0.0531841 0.016228 0.0078832
0.0532032 0.0162864 0.00780433
0.0531075 0.0159942 0.00819859
0.0531649 0.0161695 0.00796203
0.0592198 0.0161583 0.00831246
0.0594606 0.0166711 0.00779996
0.0594599 0.0169888 0.00748001
0.059372 0.0170355 0.00757271
0.018896 0.013113 0.0137667
0.0591613 0.0159497 0.00852157
0.0593999 0.0167812 0.00768812
0.0593796 0.0168811 0.00770497
0.0562249 0.0167346 0.00779389
0.0652228 0.0164392 0.00788652
0.059457 0.0172331 0.00736711
0.0594799 0.017058 0.00741065
0.0532634 0.0165456 0.00766907
0.0593028 0.0167563 0.00771163
0.0590853 0.0159948 0.00847492
0.0596711 0.0173721 0.00726448
0.0594645 0.0173341 0.00719772
0.0596386 0.0173039 0.00718509
0.0594228 0.0171715 0.00729548
0.0594406 0.0166019 0.00786933
0.0593428 0.0168947 0.00757292
0.0594999 0.0171272 0.00734129
0.0592828 0.0166871 0.00778099
0.0592598 0.0162967 0.00817373
0.0533068 0.0167247 0.00759145
0.0532423 0.0164559 0.00770791
0.0597215 0.0172564 0.00721476
0.0533286 0.0168142 0.00755263
0.0532228 0.0163658 0.0077468
0.0594028 0.0171023 0.00736484
0.0592628 0.0166179 0.00785035
0.0533503 0.0169038 0.00751382
0.0592399 0.0162275 0.00824311
0.0595678 0.0174913 0.00718217
0.0591136 0.0158106 0.0086609
0.0592964 0.0167706 0.00783435
0.0595199 0.0171964 0.00727193
0.0595406 0.0169479 0.00752251
0.0594399 0.0169196 0.00754938
0.0596243 0.01691 0.00756208
0.0532851 0.0166351 0.00763026
0.0531458 0.0161111 0.00804089
0.0654968 0.0174804 0.00715806

VERTICES 235 470
1 0
1 1
1 2
1 3
1 4
1 5
1 6
1 7
1 8
1 9
1 10
1 11
1 12
1 13
1 14
1 15
1 16
1 17
1 18
1 19
1 20
1 21
1 22
1 23
1 24
1 25
1 26
1 27
1 28
1 29
1 30
1 31
1 32
1 33
1 34
1 35
1 36
1 37
1 38
1 39
1 40
1 41
1 42
1 43
1 44
1 45
1 46
1 47
1 48
1 49
1 50
1 51
1 52
1 53
1 54
1 55
1 56
1 57
1 58
1 59
1 60
1 61
1 62
1 63
1 64
1 65
1 66
1 67
1 68
1 69
1 70
1 71
1 72
1 73
1 74
1 75
1 76
1 77
1 78
1 79
1 80
1 81
1 82
1 83
1 84
1 85
1 86
1 87
1 88
1 89
1 90
1 91
1 92
1 93
1 94
1 95
1 96
1 97
1 98
1 99
1 100
1 101
1 102
1 103
1 104
1 105
1 106
1 107
1 108
1 109
1 110
1 111
1 112
1 113
1 114
1 115
1 116
1 117
1 118
1 119
1 120
1 121
1 122
1 123
1 124
1 125
1 126
1 127
1 128
1 129
1 130
1 131
1 132
1 133
1 134
1 135
1 136
1 137
1 138
1 139
1 140
1 141
1 142
1 143
1 144
1 145
1 146
1 147
1 148
1 149
1 150
1 151
1 152
1 153
1 154
1 155
1 156
1 157
1 158
1 159
1 160
1 161
1 162
1 163
1 164
1 165
1 166
1 167
1 168
1 169
1 170
1 171
1 172
1 173
1 174
1 175
1 176
1 177
1 178
1 179
1 180
1 181
1 182
1 183
1 184
1 185
1 186
1 187
1 188
1 189
1 190
1 191
1 192
1 193
1 194
1 195
1 196
1 197
1 198
1 199
1 200
1 201
1 202
1 203
1 204
1 205
1 206
1 207
1 208
1 209
1 210
1 211
1 212
1 213
1 214
1 215
1 216
1 217
1 218
1 219
1 220
1 221
1 222
1 223
1 224
1 225
1 226
1 227
1 228
1 229
1 230
1 231
1 232
1 233
1 234

POINT_DATA 235
SCALARS id int 1
LOOKUP_TABLE default
1
4
5
6
8
9
10
11
12
13
15
17
18
19
23
24
25
26
27
29
30
32
33
34
35
36
38
39
41
42
43
44
45
46
48
50
51
53
54
55
57
58
59
60
61
62
63
64
67
68
69
70
71
72
74
76
77
78
80
81
83
84
85
86
87
89
90
91
92
93
94
95
96
97
98
99
100
101
103
105
106
107
108
110
111
112
113
115
116
117
118
119
120
121
122
123
124
125
127
128
129
130
131
133
135
136
137
138
140
141
142
143
144
145
146
147
148
150
153
154
156
158
159
160
162
163
164
166
167
170
171
173
174
175
176
179
182
183
185
186
187
189
190
191
192
193
194
195
196
197
198
199
200
201
202
203
204
205
206
207
208
210
211
212
213
214
215
216
217
218
220
221
222
223
225
226
227
228
229
230
231
232
233
234
235
238
239
240
241
243
244
246
247
248
250
251
252
255
257
258
259
260
261
262
263
264
266
267
268
269
270
271
273
275
277
278
279
280
281
282
283
284
286
289
290
291
292
293
294
295
296
297
298
299
300

SCALARS type int 1
LOOKUP_TABLE default
1
1
1
1
1
1
1
1
1
1
1
1
1
1
1
1
1
1
1
1
1
1
1
1
1
1
1
1
1
1
1
1
1
1
1
1
1
1
1
1
1
1
1
1
1
1
1
1
1
1
1
1
1
1
1
1
1
1
1
1
1
1
1
1
1
1
1
1
1
1
1
1
1
1
1
1
1
1
1
1
1
1
1
1
1
1
1
1
1
1
1
1
1
1
1
1
1
1
1
1
1
1
1
1
1
1
1
1
1
1
1
1
1
1
1
1
1
1
1
1
1
1
1
1
1
1
1
1
1
1
1
1
1
1
1
1
1
1
1
1
1
1
1
1
1
1
1
1
1
1
1
1
1
1
1
1
1
1
1
1
1
1
1
1
1
1
1
1
1
1
1
1
1
1
1
1
1
1
1
1
1
1
1
1
1
1
1
1
1
1
1
1
1
1
1
1
1
1
1
1
1
1
1
1
1
1
1
1
1
1
1
1
1
1
1
1
1
1
1
1
1
1
1
1
1
1
1
1
1
1
1
1
1
1
1

SCALARS radius float 1
LOOKUP_TABLE default
5e-05
5e-05
5e-05
5e-05
5e-05
5e-05
5e-05
5e-05
5e-05
5e-05
5e-05
5e-05
5e-05
5e-05
5e-05
5e-05
5e-05
5e-05
5e-05
5e-05
5e-05
5e-05
5e-05
5e-05
5e-05
5e-05
5e-05
5e-05
5e-05
5e-05
5e-05
5e-05
5e-05
5e-05
5e-05
5e-05
5e-05
5e-05
5e-05
5e-05
5e-05
5e-05
5e-05
5e-05
5e-05
5e-05
5e-05
5e-05
5e-05
5e-05
5e-05
5e-05
5e-05
5e-05
5e-05
5e-05
5e-05
5e-05
5e-05
5e-05
5e-05
5e-05
5e-05
5e-05
5e-05
5e-05
5e-05
5e-05
5e-05
5e-05
5e-05
5e-05
5e-05
5e-05
5e-05
5e-05
5e-05
5e-05
5e-05
5e-05
5e-05
5e-05
5e-05
5e-05
5e-05
5e-05
5e-05
5e-05
5e-05
5e-05
5e-05
5e-05
5e-05
5e-05
5e-05
5e-05
5e-05
5e-05
5e-05
5e-05
5e-05
5e-05
5e-05
5e-05
5e-05
5e-05
5e-05
5e-05
5e-05
5e-05
5e-05
5e-05
5e-05
5e-05
5e-05
5e-05
5e-05
5e-05
5e-05
5e-05
5e-05
5e-05
5e-05
5e-05
5e-05
5e-05
5e-05
5e-05
5e-05
5e-05
5e-05
5e-05
5e-05
5e-05
5e-05
5e-05
5e-05
5e-05
5e-05
5e-05
5e-05
5e-05
5e-05
5e-05
5e-05
5e-05
5e-05
5e-05
5e-05
5e-05
5e-05
5e-05
5e-05
5e-05
5e-05
5e-05
5e-05
5e-05
5e-05
5e-05
5e-05
5e-05
5e-05
5e-05
5e-05
5e-05
5e-05
5e-05
5e-05
5e-05
5e-05
5e-05
5e-05
5e-05
5e-05
5e-05
5e-05
5e-05
5e-05
5e-05
5e-05
5e-05
5e-05
5e-05
5e-05
5e-05
5e-05
5e-05
5e-05
5e-05
5e-05
5e-05
5e-05
5e-05
5e-05
5e-05
5e-05
5e-05
5e-05
5e-05
5e-05
5e-05
5e-05
5e-05
5e-05
5e-05
5e-05
5e-05
5e-05
5e-05
5e-05
5e-05
5e-05
5e-05
5e-05
5e-05
5e-05
5e-05
5e-05
5e-05
5e-05
5e-05
5e-05
5e-05
5e-05
5e-05
5e-05
5e-05
5e-05
5e-05
5e-05
5e-05
5e-05
5e-05
5e-05

SCALARS mass float 1
LOOKUP_TABLE default
1.46608e-10
1.46608e-10
1.46608e-10
1.46608e-10
1.46608e-10
1.46608e-10
1.46608e-10
1.46608e-10
1.46608e-10
1.46608e-10
1.46608e-10
1.46608e-10
1.46608e-10
1.46608e-10
1.46608e-10
1.46608e-10
1.46608e-10
1.46608e-10
1.46608e-10
1.46608e-10
1.46608e-10
1.46608e-10
1.46608e-10
1.46608e-10
1.46608e-10
1.46608e-10
1.46608e-10
1.46608e-10
1.46608e-10
1.46608e-10
1.46608e-10
1.46608e-10
1.46608e-10
1.46608e-10
1.46608e-10
1.46608e-10
1.46608e-10
1.46608e-10
1.46608e-10
1.46608e-10
1.46608e-10
1.46608e-10
1.46608e-10
1.46608e-10
1.46608e-10
1.46608e-10
1.46608e-10
1.46608e-10
1.46608e-10
1.46608e-10
1.46608e-10
1.46608e-10
1.46608e-10
1.46608e-10
1.46608e-10
1.46608e-10
1.46608e-10
1.46608e-10
1.46608e-10
1.46608e-10
1.46608e-10
1.46608e-10
1.46608e-10
1.46608e-10
1.46608e-10
1.46608e-10
1.46608e-10
1.46608e-10
1.46608e-10
1.46608e-10
1.46608e-10
1.46608e-10
1.46608e-10
1.46608e-10
1.46608e-10
1.46608e-10
1.46608e-10
1.46608e-10
1.46608e-10
1.46608e-10
1.46608e-10
1.46608e-10
1.46608e-10
1.46608e-10
1.46608e-10
1.46608e-10
1.46608e-10
1.46608e-10
1.46608e-10
1.46608e-10
1.46608e-10
1.46608e-10
1.46608e-10
1.46608e-10
1.46608e-10
1.46608e-10
1.46608e-10
1.46608e-10
1.46608e-10
1.46608e-10
1.46608e-10
1.46608e-10
1.46608e-10
1.46608e-10
1.46608e-10
1.46608e-10
1.46608e-10
1.46608e-10
1.46608e-10
1.46608e-10
1.46608e-10
1.46608e-10
1.46608e-10
1.46608e-10
1.46608e-10
1.46608e-10
1.46608e-10
1.46608e-10
1.46608e-10
1.46608e-10
1.46608e-10
1.46608e-10
1.46608e-10
1.46608e-10
1.46608e-10
1.46608e-10
1.46608e-10
1.46608e-10
1.46608e-10
1.46608e-10
1.46608e-10
1.46608e-10
1.46608e-10
1.46608e-10
1.46608e-10
1.46608e-10
1.46608e-10
1.46608e-10
1.46608e-10
1.46608e-10
1.46608e-10
1.46608e-10
1.46608e-10
1.46608e-10
1.46608e-10
1.46608e-10
1.46608e-10
1.46608e-10
1.46608e-10
1.46608e-10
1.46608e-10
1.46608e-10
1.46608e-10
1.46608e-10
1.46608e-10
1.46608e-10
1.46608e-10
1.46608e-10
1.46608e-10
1.46608e-10
1.46608e-10
1.46608e-10
1.46608e-10
1.46608e-10
1.46608e-10
1.46608e-10
1.46608e-10
1.46608e-10
1.46608e-10
1.46608e-10
1.46608e-10
1.46608e-10
1.46608e-10
1.46608e-10
1.46608e-10
1.46608e-10
1.46608e-10
1.46608e-10
1.46608e-10
1.46608e-10
1.46608e-10
1.46608e-10
1.46608e-10
1.46608e-10
1.46608e-10
1.46608e-10
1.46608e-10
1.46608e-10
1.46608e-10
1.46608e-10
1.46608e-10
1.46608e-10
1.46608e-10
1.46608e-10
1.46608e-10
1.46608e-10
1.46608e-10
1.46608e-10
1.46608e-10
1.46608e-10
1.46608e-10
1.46608e-10
1.46608e-10
1.46608e-10
1.46608e-10
1.46608e-10
1.46608e-10
1.46608e-10
1.46608e-10
1.46608e-10
1.46608e-10
1.46608e-10
1.46608e-10
1.46608e-10
1.46608e-10
1.46608e-10
1.46608e-10
1.46608e-10
1.46608e-10
1.46608e-10
1.46608e-10
1.46608e-10
1.46608e-10
1.46608e-10
1.46608e-10
1.46608e-10
1.46608e-10
1.46608e-10
1.46608e-10
1.46608e-10
1.46608e-10
1.46608e-10
1.46608e-10
1.46608e-10
1.46608e-10

VECTORS velocity float
0.00557212 -0.00014342 -1.96116e-05
0.00605449 -2.59655e-05 9.81228e-06
0.00539785 -0.000118936 -3.07209e-05
0.00579151 1.36252e-05 -2.20914e-05
0.0053146 8.34408e-05 0.000203574
0.00609785 -3.35185e-05 1.60034e-05
0.00546769 -0.000683174 0.000409588
0.00547742 -0.000111309 0.000196333
0.00601086 -1.84586e-05 3.79193e-06
0.00567572 -0.000125657 -7.5587e-05
0.00548561 -0.000163244 -1.74962e-05
0.00567815 -3.1929e-05 -6.95334e-05
0.00592331 -5.06225e-06 -6.92835e-06
0.00587456 4.21384e-06 0.000426315
0.00553216 -3.61517e-05 -0.000110262
0.00587953 7.80873e-07 -1.21916e-05
0.00557432 -0.000177461 -1.86169e-05
0.00583525 7.0491e-06 -1.74893e-05
0.00553237 -9.81674e-05 -4.76503e-05
0.00534456 -9.05929e-05 -4.60291e-05
0.00549391 0.000153999 5.56879e-05
0.00574846 -0.000171272 3.60915e-05
0.0054883 0.000154666 5.51928e-05
0.00551131 -4.88838e-05 -8.18883e-05
0.0058555 -0.000250147 -0.000159948
0.00592444 -8.70256e-05 -6.13876e-05
0.00632588 -0.00026691 5.27388e-05
0.00616752 -8.36331e-05 -7.6819e-05
0.005616 -0.000154934 -1.12276e-05
0.00605599 -0.000280685 0.000112162
0.00548745 -0.000122254 -2.7744e-05
1.81374e-14 7.52946e-14 2.12932e-13
0.00549268 0.000154033 5.64783e-05
0.00596739 -1.16279e-05 -1.9242e-06
0.00549926 -0.000565605 0.000560166
0.00599202 -6.99624e-05 -9.89088e-05
0.00570193 -0.000351093 -0.000407941
0.00548638 0.000154056 5.54284e-05
0.00564878 4.45949e-05 0.000335142
0.00628638 -0.000852737 0.000302469
0.00627723 -0.000328511 9.70836e-05
0.00566315 9.98342e-05 5.96733e-05
0.00805682 0.0076847 0.00886087
0.00547084 0.000155967 0.000177091
0.00590243 -1.03879e-05 0.000472701
0.00578427 -0.000133224 4.02825e-05
0.00614786 -0.000284053 -3.34307e-05
0.00571517 -9.1113e-05 -4.55838e-05
0.00590911 -0.000136137 -9.30623e-05
0.0111916 0.0332215 -0.00279914
0.00555707 -0.000194071 8.77847e-06
0.00596741 -0.000185998 3.67618e-06
0.00614715 -0.000194449 0.000523954
0.00591619 -0.000247353 4.36161e-05
0.00579261 -0.000316488 -0.000162773
0.00573301 -0.000128506 -3.93224e-05
0.00586736 -0.000238361 2.92015e-05
0.0144379 0.0170155 0.00166236
0.0057271 -7.14442e-05 0.000217345
0.0062711 0.000362265 -4.60525e-05
0.00624293 -0.000233862 0.000375406
0.00591342 -0.000234169 2.32449e-05
0.00619512 0.000601556 -7.11671e-05
0.00589383 -0.000149233 -9.05346e-06
0.00545171 0.00015836 5.0724e-05
0.00585234 -0.000204626 5.72109e-05
0.00548415 0.000154653 5.59337e-05
-7.12362e-15 2.48296e-14 -7.81458e-14
0.00574369 -9.51463e-05 -5.26223e-05
0.00596112 -0.00027677 5.90609e-05
0.00614904 -0.000275691 5.5774e-05
0.00593348 -7.70728e-05 2.07992e-05
0.00574856 -0.000130798 -3.49934e-05
0.00620952 -0.000167918 0.000235663
0.0060591 -0.000285737 6.68253e-05
0.00669487 0.000127327 -2.02461e-05
0.00572295 0.000158414 0.000135669
0.00583334 1.28575e-05 0.000381451
-0.0455415 0.0276467 -0.00701427
0.0062196 0.000480324 -7.12602e-05
0.00607845 -0.000114338 -4.63766e-05
0.00589486 -0.000239222 0.000331162
0.00587137 -6.16064e-06 0.000455703
0.00621612 -0.000271012 1.87597e-05
0.00604395 -0.000288669 7.70951e-05
0.00627879 -0.000119538 0.00027612
0.00587982 -0.000220323 -6.59461e-05
0.00605337 5.32963e-05 -0.000159739
0.00739208 0.00749992 -0.00417823
0.00586396 2.1889e-05 0.000421234
0.00630563 -0.000373633 -0.000301568
0.00544577 -0.000101022 -4.27723e-05
0.00586027 1.14427e-05 0.000400431
0.00608898 -9.50982e-05 0.000194676
0.00607055 -0.000276457 4.09035e-05
0.00534303 -2.96248e-05 0.000115746
0.00612677 -0.000245461 -3.93233e-06
0.00518066 -6.8835e-05 -6.14226e-05
0.00560494 0.00176509 -9.14319e-05
0.00604244 -0.000272114 7.63577e-05
0.00617754 -0.00128405 -0.000437689
0.00598639 -0.000221137 0.000341681
0.00613236 -0.00049584 -8.09558e-05
0.00617371 -0.000256712 -3.82178e-05
0.00584979 3.97858e-05 0.000295955
0.00622907 -0.000503112 -0.000160535
0.00615834 -0.000239061 2.34103e-05
0.00628943 -0.000322677 9.75882e-05
0.0065414 -0.000178075 -1.00077e-05
0.00605681 -0.000180985 0.000213144
0.00578951 -0.000172687 0.000267326
0.00585664 -0.000149217 0.000245376
0.00550097 -0.000565868 0.000560404
-3.56013e-05 -0.0179769 0.0120094
0.0064638 0.000109007 -7.38368e-06
0.00592332 -0.000235898 0.000322308
0.0057097 -0.000151702 0.000256004
0.00585587 -2.68316e-05 0.000122084
0.0056463 -3.96669e-05 0.000131425
0.00619945 -0.00028832 0.000390261
0.00588851 -0.000189488 0.000285071
0.00600784 -0.000331628 0.000430124
0.00567072 -0.000111519 0.00020373
0.00581923 -0.000137236 0.000229025
0.00627941 -0.000304074 0.000405924
0.00626419 1.17319e-05 0.000243606
0.00628908 -0.000203495 9.97567e-06
0.00597137 0.000123787 -0.000208981
0.00594958 -1.96247e-05 0.000105487
0.00593018 -0.000227943 0.000325024
0.00593433 -0.000260906 3.12668e-05
0.00566279 -0.00013415 -8.73876e-06
0.00569588 -8.3788e-05 0.000176408
0.00451031 0.00224871 -9.37855e-05
0.00619534 -0.000296194 0.000400923
0.00604916 5.12277e-06 9.11599e-05
0.00604216 -0.000253039 5.1486e-05
0.00578236 -0.000119563 6.23748e-05
0.00621567 6.73478e-06 0.000267977
-1.59331e-16 2.48915e-14 -2.37494e-13
0.00575762 -0.000179189 -7.51325e-05
0.00585966 -0.000152987 -1.85315e-05
0.00538577 0.000361494 0.00063982
0.0062745 -8.99841e-05 0.000246754
0.00634907 -0.000396273 -0.00015373
0.00599617 -0.00026703 3.72398e-05
0.00622503 -0.000123239 0.000228207
0.0055984 0.000653053 -8.14455e-05
0.00579485 -0.000106603 0.000198244
0.00559321 -0.000151902 0.000243865
0.0059656 -0.00127474 -0.000364836
0.00614233 -0.000616631 -7.13251e-05
0.00605985 -0.000263848 0.000364187
0.0059104 -7.60456e-05 0.000174844
0.00636812 -0.000184725 0.000345438
0.00631626 -0.00028181 6.8417e-05
0.00643495 -7.43835e-05 0.000198134
0.00535846 0.000359377 0.000632124
0.00637195 8.1591e-05 4.31753e-06
0.00655466 0.000334184 -0.00022889
0.0060247 -4.29587e-05 0.000119959
0.00530619 -0.000144286 -2.57616e-05
0.00567805 -0.000119315 0.00021498
0.00524866 -9.17591e-05 0.000177132
0.00603057 -0.000280331 0.000101016
0.00575529 -0.00013907 0.000232543
-2.39467e-14 -9.32251e-14 -1.94033e-13
0.00584183 -0.000182918 0.000200751
0.00576655 -0.000157795 0.00025153
0.0064727 -5.38097e-05 6.25412e-05
4.22841e-10 -0.022193 0.00960103
0.00543023 0.000349872 0.000651687
0.0052244 -8.31992e-05 0.000169751
-1.34506e-14 -2.16684e-15 2.19344e-13
0.00638378 -9.58512e-05 2.61933e-05
0.00597855 0.000327895 -0.000156667
0.00558604 -0.000124989 0.000210128
0.00550268 -0.000566131 0.000560643
0.00605773 -0.000404235 0.000569629
0.00589696 -0.000148458 0.000243294
0.00618507 -7.97891e-05 0.000263603
0.0058811 -9.13737e-05 0.000184868
0.00681357 0.000468607 -0.000360919
0.00618111 0.000198787 -0.00027047
0.00587861 -0.000123122 0.000218653
0.00553485 -0.000136596 0.000217226
0.00542216 0.000360382 0.000645307
0.00552296 0.000384468 0.000645822
0.00558004 0.000388679 0.00064545
0.00558904 0.000367075 0.000665696
0.00546146 0.000368266 0.000646955
0.00553992 0.000370859 0.000651555
0.00534965 -8.17172e-05 0.000169073
0.00601116 -0.000103922 0.00020118
0.00587599 -0.000192408 0.000311562
0.00599273 0.000145449 0.000668199
4.85881e-21 -2.91472e-21 1.37807e-22
0.0060217 -0.000116624 0.000215845
0.00590905 -0.000113108 0.000201884
0.00581803 -6.06521e-05 8.18931e-05
0.00911316 0.0111679 -0.0137627
0.00577926 -0.000376506 -0.000406821
0.00626524 4.88383e-05 6.62615e-05
0.00607213 -0.000264362 0.000371192
0.00604778 -0.000348752 -0.000177426
0.00590743 -0.000128075 0.000216471
0.00587128 -0.000197539 0.000296119
0.00616091 0.000354581 -5.80527e-05
0.0062969 -7.70811e-05 0.000188864
0.00663655 -9.65139e-05 -6.36825e-05
0.00612086 -0.000274415 0.000358803
0.00595678 -4.25901e-05 0.000138809
0.00592611 -0.000242912 0.000448074
0.00627538 -0.000283732 0.000369028
0.00582366 -0.000112664 0.000200619
0.00554435 -0.0001131 0.000200619
0.0060551 -0.000362052 -0.000171109
0.0057896 -0.00028216 -0.000187239
0.00680681 0.000139393 -2.35512e-05
0.00605594 -0.000359979 -0.000171952
0.0056148 -0.000247365 -0.000186993
0.0059276 -0.000494795 0.00048545
0.00577861 -0.000129453 0.000219521
0.00606027 -0.000361714 -0.000172549
0.00547604 -0.000122957 0.000212512
0.0060146 -0.00125815 -5.75438e-05
0.00617299 -0.000179532 0.000280716
0.00579808 -0.00010783 0.000162045
0.00617159 -0.000247534 0.000355365
0.0060836 2.91316e-05 7.43477e-05
0.00599687 -0.000156147 0.000268988
0.006389 0.000297709 -0.00019613
0.00605954 -0.00035379 -0.000175793
0.00551673 0.000357036 0.000659384
0.00626113 -0.000143919 -2.80869e-05

VECTORS force float
1.23993e-09 1.12073e-09 -1.00961e-09
-3.55804e-12 -1.44049e-11 8.95623e-12
6.90593e-11 -3.37673e-11 -5.08318e-11
1.15335e-11 2.76861e-12 -1.21327e-11
5.63523e-10 3.43451e-12 -1.75316e-09
-3.67767e-12 -1.51637e-11 1.20152e-11
2.01717e-13 7.43232e-13 -3.60725e-13
-2.96854e-10 -4.35986e-10 3.90676e-10
-1.89539e-12 -7.83774e-12 1.46113e-11
8.48194e-10 -1.49142e-09 4.53266e-10
-8.42347e-10 -3.81747e-10 5.29031e-10
-8.20188e-11 -1.75993e-09 -9.90358e-10
3.2099e-12 -1.77424e-12 9.71469e-12
1.93307e-10 6.6541e-11 -2.34972e-11
-4.96017e-10 3.45297e-10 -1.83792e-10
1.41178e-13 -2.01411e-12 -1.11097e-11
4.68663e-10 -1.04771e-10 1.34831e-09
-2.95438e-12 1.20157e-11 5.82205e-12
-1.04299e-09 4.43611e-10 -3.30058e-10
1.23711e-09 1.21637e-09 -7.04e-10
-4.49182e-13 -4.18833e-12 -4.82695e-12
2.24209e-11 3.12745e-10 -3.23816e-10
-1.19916e-11 -5.43692e-12 -2.1999e-11
-6.7167e-10 7.30975e-10 -5.31245e-10
-2.55252e-10 -4.2483e-10 8.89284e-10
1.68336e-10 -6.24191e-10 3.48836e-10
-8.14964e-10 7.16119e-10 -4.64595e-10
-1.44804e-10 -7.32597e-11 4.19409e-11
-4.19908e-10 3.09163e-10 -1.64841e-10
-1.86433e-10 1.82898e-10 6.27124e-10
4.5264e-11 -2.08372e-10 8.51854e-11
-3.13514e-22 8.06501e-23 0.0
1.82918e-11 3.35521e-11 -7.41011e-12
-1.20153e-12 -8.80042e-12 2.12148e-12
-5.45681e-13 8.22788e-13 -6.29865e-13
-7.87092e-10 -1.99976e-09 1.42294e-09
1.18481e-09 1.93576e-10 -9.322e-10
8.06169e-12 1.80781e-11 1.77036e-11
1.00879e-10 8.33542e-11 -1.01582e-09
-2.13352e-10 4.28955e-10 -1.90155e-11
3.44164e-12 1.16314e-10 1.34179e-12
-3.91036e-10 -2.64351e-10 -3.36049e-10
0.0 0.0 -1.43822e-09
2.61213e-10 3.52731e-10 -1.58546e-09
-1.24345e-10 -8.15338e-11 3.62731e-10
6.5847e-10 -1.41704e-10 -4.7402e-10
5.09776e-11 2.54392e-11 3.1024e-10
-1.48019e-09 6.53594e-10 5.61369e-11
8.73353e-10 1.69334e-09 -8.1638e-10
0.0 0.0 -1.43822e-09
-5.78385e-10 -2.98457e-11 6.25225e-11
6.01962e-10 2.11491e-10 -1.75894e-10
1.22371e-09 2.33111e-09 -4.19295e-09
1.37785e-09 -1.59142e-09 9.48476e-10
-5.89066e-10 1.87822e-09 -1.68453e-09
-2.24599e-10 6.73052e-11 -1.08126e-09
4.61831e-11 6.83403e-10 -6.85654e-10
0.0 0.0 -1.43822e-09
-2.72599e-10 -3.13746e-10 -2.1925e-10
-5.66557e-10 5.0643e-10 -4.45864e-10
1.4855e-09 1.97664e-10 -3.65074e-10
-2.19979e-10 -3.29298e-10 2.4964e-10
9.87075e-10 -3.74139e-11 -2.6819e-10
9.83449e-11 -5.82607e-10 2.47157e-10
-5.33287e-12 6.57611e-12 -1.15783e-12
-6.5301e-10 -1.22914e-11 -5.40239e-10
4.92289e-12 -2.40585e-12 -2.0019e-11
-4.00924e-22 -1.28161e-22 -9.51258e-24
1.32574e-10 2.84861e-10 -2.7324e-10
-4.66058e-10 -9.68937e-10 4.46993e-10
-1.1099e-09 8.15101e-10 -3.73396e-10
9.27481e-11 1.83546e-11 -5.60105e-10
6.37289e-10 -8.53039e-10 3.9545e-10
-4.06339e-10 -1.35441e-09 5.68834e-10
-9.16427e-10 4.13467e-10 -1.08294e-10
-4.15634e-10 -1.12329e-09 1.34681e-09
-2.39823e-10 9.57914e-10 -8.41763e-10
1.51226e-10 6.59728e-11 -1.51123e-10
8.94926e-12 -5.09155e-10 7.4317e-11
7.0526e-10 -2.86507e-10 -7.22784e-10
1.36465e-09 -5.66149e-10 3.60093e-10
4.81807e-10 -1.73973e-09 2.65664e-09
-4.90971e-10 -2.23725e-10 3.38839e-10
4.25663e-11 1.42789e-10 -1.27039e-09
2.71093e-10 1.02901e-10 1.70886e-10
-1.74275e-10 3.77117e-10 -6.08271e-10
1.91297e-10 -3.55373e-10 1.06469e-09
2.57522e-10 7.18126e-10 -2.15431e-10
0.0 0.0 -1.43822e-09
1.06874e-10 3.49275e-10 -3.9639e-10
1.82303e-10 6.88402e-10 -3.88383e-10
1.76238e-11 7.82112e-11 -2.14475e-11
-3.37188e-10 1.16424e-11 -1.52958e-10
-2.61109e-10 4.5797e-10 -4.69083e-10
6.47674e-10 2.24398e-10 8.94688e-12
-4.61466e-10 1.10096e-10 -1.1023e-10
-2.02415e-10 1.07917e-10 4.65142e-11
9.11165e-10 -1.80692e-09 1.2144e-09
4.94776e-10 2.75031e-10 1.27221e-10
-2.5593e-11 -5.10505e-10 3.59874e-10
-2.42536e-10 -1.04998e-09 5.67198e-10
-1.46999e-10 1.49886e-09 -8.68865e-10
-3.50889e-10 -1.45069e-09 1.55035e-09
-1.29774e-10 2.68863e-11 -4.35909e-10
-1.02001e-10 -1.90438e-10 6.25457e-10
3.71265e-10 3.37552e-10 -9.15568e-10
2.07679e-10 4.63831e-10 -5.14544e-10
-2.76644e-10 8.88947e-10 -5.89011e-10
-8.08e-10 6.97807e-10 -4.65244e-10
-1.49057e-10 1.47376e-09 -2.81473e-09
4.57993e-10 -1.14757e-10 2.81524e-10
3.58911e-11 -3.02207e-10 3.41956e-10
-6.49153e-13 8.40231e-13 -6.34176e-13
-2.81747e-13 2.93602e-11 5.13223e-14
-5.49147e-10 -1.08844e-09 1.10081e-09
1.36706e-10 2.15795e-10 -1.38475e-10
2.77766e-10 6.15237e-11 1.15608e-10
2.08562e-10 4.50523e-11 -6.25494e-11
-2.29095e-10 5.49474e-11 -6.62058e-11
-1.57491e-10 6.82814e-11 -9.83028e-11
-2.0151e-10 -3.33328e-10 2.01743e-10
2.2545e-10 4.39928e-11 2.27037e-10
-1.65048e-10 -3.5622e-10 3.79082e-10
-1.01736e-10 -1.2453e-10 1.45022e-10
-9.615e-11 -1.44353e-10 1.82482e-10
6.65695e-10 8.25698e-10 4.52917e-10
-1.21295e-09 9.02528e-10 -1.03989e-09
-8.05129e-10 6.55648e-10 -4.40529e-10
-4.30616e-10 6.74548e-11 -4.1578e-10
-3.93119e-10 5.12893e-10 -5.35578e-10
5.467e-10 -6.19246e-10 4.57634e-10
5.56125e-10 5.18513e-10 4.43166e-11
-4.99302e-10 -1.29564e-10 2.08201e-10
-8.84904e-10 -4.21145e-10 1.83883e-11
-1.3341e-10 -2.36508e-10 1.90123e-10
-7.09295e-10 6.93781e-10 -6.8555e-10
1.07707e-09 -4.96697e-10 3.51947e-10
-4.53593e-11 1.27543e-10 -4.61321e-10
1.58936e-10 -7.10158e-10 -2.6887e-10
-6.19184e-22 -1.21492e-24 4.1359e-25
-1.82079e-10 4.02143e-10 -8.88549e-12
-9.45297e-10 -5.04375e-10 3.25199e-10
-1.43422e-10 -9.53511e-11 1.29205e-12
1.15618e-09 -2.03398e-09 2.1441e-09
6.48334e-10 2.57762e-10 2.66565e-10
3.57442e-10 9.08336e-10 -3.70018e-10
-5.94988e-10 -4.59611e-10 5.33296e-10
-2.9351e-11 9.95894e-10 -2.51115e-11
-6.48515e-11 1.64208e-11 -2.46759e-11
-5.50439e-10 3.6785e-10 -3.61633e-10
9.51372e-11 5.38158e-10 -1.61985e-10
-6.9906e-10 -1.6646e-09 2.48038e-09
4.46371e-11 4.61195e-10 -4.40614e-10
-4.67711e-10 4.7138e-10 -5.26258e-10
-6.2257e-11 -6.79114e-10 5.56378e-11
-7.36735e-10 6.49959e-10 -5.59621e-10
9.30972e-10 -3.2958e-10 6.93184e-10
2.29364e-11 -1.11805e-11 4.52906e-11
-6.36594e-10 3.85776e-10 5.47847e-10
2.4047e-12 3.04022e-10 -3.07139e-10
-5.85387e-10 -5.19713e-10 -2.25509e-10
3.22292e-10 -4.08218e-10 3.64539e-10
-4.76405e-11 1.88639e-10 -2.7216e-10
3.91893e-10 3.51858e-10 -3.61842e-10
4.61824e-10 -8.8193e-12 -4.12251e-11
1.1638e-10 5.3486e-10 -4.03061e-10
9.58496e-23 1.64402e-23 -2.44018e-23
5.10559e-10 8.49441e-10 1.62259e-09
2.24598e-10 -9.80033e-11 4.34537e-11
3.01519e-10 2.99493e-10 -1.08052e-09
3.04446e-18 8.72583e-12 2.01072e-11
1.09659e-10 -1.54937e-10 2.13913e-10
-8.35068e-10 1.21097e-10 -1.19393e-10
-1.03062e-22 8.8028e-22 1.44757e-24
2.02763e-11 1.224e-09 -5.83971e-10
-8.02202e-11 6.73618e-10 1.32349e-09
2.75018e-10 -3.11841e-10 4.04067e-10
-7.57226e-13 8.58122e-13 -6.52584e-13
2.83093e-09 3.05064e-09 -1.81769e-09
-5.81043e-10 -3.46244e-10 3.42832e-10
-2.94459e-10 6.01053e-13 5.46303e-10
1.45626e-10 1.18394e-10 -1.53387e-10
-7.01402e-10 6.54776e-10 -7.04422e-10
-4.22287e-10 1.95446e-10 -2.16256e-10
-7.11391e-10 -1.50733e-09 3.30723e-09
4.39328e-11 -5.53553e-10 6.45239e-10
1.30326e-10 1.20493e-10 4.82945e-11
1.14052e-10 4.28154e-10 -2.39431e-10
5.43489e-10 -4.2688e-11 2.14878e-10
-1.56199e-10 -2.26642e-10 -3.25064e-11
-4.12057e-10 -4.42933e-10 2.37768e-10
-3.13038e-10 -5.70324e-10 2.37647e-10
7.46306e-10 2.33954e-10 -2.1904e-10
-3.84899e-10 2.61333e-10 -2.48223e-10
8.97853e-10 -2.08276e-09 3.41565e-09