# vtk DataFile Version 3.0
LIGGGHTS particles timestep 7000000
ASCII
DATASET POLYDATA
POINTS 235 float
0.0534363 0.0157438 0.00862399
0.0597733 0.0172187 0.00725353
0.0533946 0.015627 0.00878085
0.0596636 0.0168022 0.00767119
0.0531267 0.015152 0.00944008
0.0597903 0.0172883 0.00718373
0.0656338 0.0166679 0.00771924
0.0475752 0.016414 0.00783905
0.0597561 0.0171492 0.00732329
0.0532752 0.0155406 0.00887796
0.0533185 0.0156673 0.00873003
0.0532544 0.0154872 0.00895994
0.0597212 0.0170102 0.00746274
0.0530249 0.0148851 0.00985042
0.0533821 0.0158477 0.00850286
0.0597029 0.0169407 0.00753235
0.0532966 0.015599 0.00879966
0.059684 0.0168714 0.00760188
0.053341 0.0157161 0.00864566
0.0534599 0.0158022 0.00854611
0.0596419 0.0167333 0.00774028
0.0534867 0.0161178 0.008104
0.0595985 0.0165954 0.00787847
0.0533604 0.0157733 0.00856597
0.0534038 0.0159236 0.00844146
0.0536578 0.0163331 0.00783503
0.0538666 0.0168641 0.00750292
0.053592 0.0163715 0.00792079
0.0534171 0.0156854 0.00870281
0.0534241 0.0159665 0.00835344
0.0534454 0.0160045 0.00826341
0.00738367 0.018342 0.00543103
0.0596202 0.0166643 0.00780938
0.0597386 0.0170797 0.00739302
0.050584 0.016662 0.00758131
0.0537109 0.016542 0.00764664
0.053626 0.0163941 0.00774174
0.0595768 0.0165264 0.00794756
0.0531056 0.0150986 0.00952199
0.0476135 0.016553 0.0077004
0.0536612 0.0166417 0.00771044
0.0532325 0.015424 0.00903427
0.0531689 0.0152588 0.00927634
0.05319 0.0153124 0.00919465
0.0530642 0.0149919 0.009686
0.0535079 0.0161762 0.00802566
0.0536468 0.0166922 0.00762507
0.0535427 0.0160313 0.00823878
0.0537092 0.0165499 0.0077463
0.0469634 0.0149747 0.0102225
0.0534652 0.0160594 0.00818227
0.0536826 0.0167898 0.00763447
0.0478369 0.0168743 0.00753678
0.0537254 0.0166329 0.00760764
0.0536508 0.0164702 0.00768187
0.0537132 0.0169809 0.00755834
0.0536274 0.0165942 0.00762915
0.0469868 0.0150056 0.0101303
0.0536473 0.0167407 0.00771411
0.0470327 0.0150677 0.00994578
0.0480588 0.0169332 0.00740909
0.0536765 0.0168085 0.00753643
0.0469153 0.0149132 0.0104066
0.0535703 0.0163801 0.00782356
0.0595334 0.0163885 0.00808575
0.0537224 0.0167257 0.00756877
0.0595551 0.0164575 0.00801665
0.0157927 0.0215765 0.00607411
0.0535838 0.0161156 0.00812782
0.0537164 0.0169884 0.00745867
0.0538314 0.0171065 0.00740288
0.0535914 0.0164746 0.00778986
0.053605 0.0161741 0.00804947
0.0478841 0.0165334 0.00775133
0.0538117 0.0170165 0.00744177
0.0477742 0.0164694 0.00784228
0.0532112 0.0153668 0.00911347
0.0529856 0.0147782 0.0100148
0.0491897 0.0170654 0.00814289
0.0470097 0.0150367 0.010038
0.0538049 0.0165715 0.00762922
0.0478745 0.0173223 0.00733901
0.0530444 0.0149385 0.00976818
0.0536917 0.0168877 0.00759685
0.053756 0.0171684 0.0073809
0.0469397 0.0149439 0.0103146
0.0535175 0.0162688 0.00806239
0.0535831 0.0163163 0.00800371
0.0531478 0.0152053 0.00935816
0.0530849 0.0150453 0.009604
0.0470556 0.0150987 0.00985352
0.053479 0.0158621 0.00846521
0.0530054 0.0148316 0.00993265
0.047405 0.0156022 0.00865527
0.0537753 0.0172584 0.007342
0.0475108 0.0159469 0.00831246
0.0536129 0.0165546 0.00771981
0.053371 0.0155684 0.00885902
0.0477991 0.0161777 0.00810776
0.0537363 0.0170784 0.00741979
0.0470986 0.0151613 0.00966854
0.0471517 0.0152577 0.00938947
0.047116 0.0151935 0.00957548
0.0536269 0.0166843 0.00779416
0.0529656 0.0147248 0.010097
0.0470776 0.0151299 0.00976112
0.0537947 0.0173485 0.0073031
0.0538515 0.0171974 0.0073636
0.0536232 0.0165649 0.00781874
0.0471335 0.0152257 0.00948243
0.0472714 0.0154766 0.00884593
0.0472096 0.0153531 0.00911101
0.0506024 0.0167319 0.00751216
0.0201942 0.016375 0.00864446
0.0477051 0.0161957 0.00807855
0.0471705 0.0152896 0.00929659
0.047251 0.0154255 0.00892941
0.0474732 0.0158097 0.00844946
0.047452 0.0157404 0.00851837
0.0473564 0.015727 0.0085459
0.04719 0.0153214 0.00920381
0.0472915 0.0155381 0.00876968
0.0475982 0.0162848 0.00797465
0.0472288 0.0153862 0.00901862
0.0473348 0.0156644 0.00862087
0.0475705 0.0164421 0.0079349
0.053814 0.0174386 0.0072642
0.053692 0.0162825 0.0079142
0.0477643 0.0163833 0.00789218
0.0473994 0.0158523 0.00839714
0.0536965 0.0168985 0.00749755
0.0535233 0.0159728 0.00831757
0.0476647 0.0163405 0.00792494
0.0474221 0.0159417 0.00835842
0.0473133 0.0156028 0.00869662
0.0477808 0.0165182 0.00775524
0.0538223 0.0166619 0.00759027
0.0474876 0.016141 0.0081635
0.0475917 0.0165112 0.00786577
0.226587 0.0186791 0.00533789
0.0535297 0.0162346 0.00794746
0.0536268 0.0162324 0.00797127
0.0414028 0.0158795 0.00840687
0.0478702 0.0168754 0.00744251
0.0476731 0.0164869 0.00791842
0.0537918 0.0169265 0.00748065
0.0479182 0.0166788 0.00760549
0.0475071 0.0162724 0.00813691
0.0477265 0.0166158 0.00766501
0.047502 0.0161793 0.00807228
0.0474661 0.0161847 0.00831145
0.0476298 0.0166477 0.00772778
0.0473783 0.0157831 0.00846605
0.0477751 0.0168475 0.00746283
0.0475504 0.0163703 0.00800456
0.0539259 0.0171345 0.00738606
0.0476937 0.0165562 0.0078493
0.0413813 0.0158214 0.00848533
0.0474732 0.0161027 0.00825474
0.0477743 0.0163145 0.00796409
0.0476692 0.016789 0.00757883
0.0533496 0.01551 0.00893732
0.0477331 0.0167166 0.00760472
0.0475221 0.0162711 0.00803805
0.0537719 0.0168366 0.00751953
0.047678 0.0168024 0.00747986
0.0159913 0.0152807 0.00678236
0.0476487 0.0167173 0.00765842
0.0476931 0.0164798 0.00778471
0.0477214 0.0170082 0.0074282
0.0572097 0.0176907 0.00785731
0.0414458 0.0159958 0.00824995
0.0475539 0.0163447 0.00790794
0.0254028 0.0195569 0.00545165
0.0477606 0.0171982 0.00737977
0.047609 0.01659 0.00780673
0.0476326 0.0166224 0.00763108
0.0506226 0.0168235 0.00747746
0.0468887 0.014883 0.0104981
0.0477612 0.0167709 0.00752556
0.047487 0.0162226 0.00822129
0.0478081 0.0166523 0.00762024
0.0475044 0.0158831 0.0083892
0.0538183 0.0167541 0.00755173
0.0478414 0.0167335 0.00757218
0.047674 0.0164104 0.00785404
0.0414243 0.0159377 0.00832841
0.0414887 0.0161122 0.00809304
0.0415515 0.0162869 0.00785739
0.0415711 0.0163453 0.00777866
0.0414673 0.016054 0.0081715
0.0415308 0.0162286 0.00793598
0.0475693 0.0160964 0.00820012
0.0476676 0.0161084 0.00816411
0.0477841 0.0162457 0.00803602
0.0479099 0.0170659 0.00739438
0.018896 0.013113 0.0137667
0.0474286 0.0156713 0.00858681
0.0477958 0.0169417 0.00743517
0.0475943 0.0164835 0.00776972
0.0444681 0.0161814 0.00783751
0.0535536 0.016293 0.0078699
0.0477801 0.0172933 0.00735577
0.0478901 0.0169704 0.00741849
0.0416229 0.0165582 0.00759085
0.0478156 0.0170368 0.00741113
0.0475265 0.0160166 0.00824252
0.0477998 0.0173884 0.00733175
0.0479318 0.0167506 0.00753316
0.0477681 0.0170679 0.00749342
0.0479843 0.0169995 0.00740174
0.047641 0.0160363 0.00823527
0.0478194 0.0174834 0.00730774
0.0478354 0.0171322 0.00738703
0.0478549 0.0172273 0.00736303
0.0476128 0.0162167 0.00804639
0.041663 0.0167441 0.00752874
0.0416028 0.0164653 0.0076219
0.0476972 0.0165739 0.00775094
0.0416831 0.016837 0.00749769
0.041589 0.0164043 0.0076999
0.0479646 0.0169041 0.00742584
0.0477412 0.0171031 0.00740379
0.0417031 0.0169299 0.00746664
0.0475902 0.0161568 0.00812323
0.0477013 0.0169147 0.0074574
0.04738 0.0155333 0.00872331
0.0474415 0.0160171 0.00829568
0.0479296 0.0171612 0.00737029
0.0478216 0.0165841 0.00769204
0.0478516 0.0167874 0.00748617
0.0476933 0.0162693 0.00800141
0.0416429 0.0166511 0.00755979
0.0415104 0.0161703 0.00801461
0.0538335 0.0175286 0.00722531

VERTICES 235 470
1 0
1 1
1 2
1 3
1 4
1 5
1 6
1 7
1 8
1 9
1 10
1 11
1 12
1 13
1 14
1 15
1 16
1 17
1 18
1 19
1 20
1 21
1 22
1 23
1 24
1 25
1 26
1 27
1 28
1 29
1 30
1 31
1 32
1 33
1 34
1 35
1 36
1 37
1 38
1 39
1 40
1 41
1 42
1 43
1 44
1 45
1 46
1 47
1 48
1 49
1 50
1 51
1 52
1 53
1 54
1 55
1 56
1 57
1 58
1 59
1 60
1 61
1 62
1 63
1 64
1 65
1 66
1 67
1 68
1 69
1 70
1 71
1 72
1 73
1 74
1 75
1 76
1 77
1 78
1 79
1 80
1 81
1 82
1 83
1 84
1 85
1 86
1 87
1 88
1 89
1 90
1 91
1 92
1 93
1 94
1 95
1 96
1 97
1 98
1 99
1 100
1 101
1 102
1 103
1 104
1 105
1 106
1 107
1 108
1 109
1 110
1 111
1 112
1 113
1 114
1 115
1 116
1 117
1 118
1 119
1 120
1 121
1 122
1 123
1 124
1 125
1 126
1 127
1 128
1 129
1 130
1 131
1 132
1 133
1 134
1 135
1 136
1 137
1 138
1 139
1 140
1 141
1 142
1 143
1 144
1 145
1 146
1 147
1 148
1 149
1 150
1 151
1 152
1 153
1 154
1 155
1 156
1 157
1 158
1 159
1 160
1 161
1 162
1 163
1 164
1 165
1 166
1 167
1 168
1 169
1 170
1 171
1 172
1 173
1 174
1 175
1 176
1 177
1 178
1 179
1 180
1 181
1 182
1 183
1 184
1 185
1 186
1 187
1 188
1 189
1 190
1 191
1 192
1 193
1 194
1 195
1 196
1 197
1 198
1 199
1 200
1 201
1 202
1 203
1 204
1 205
1 206
1 207
1 208
1 209
1 210
1 211
1 212
1 213
1 214
1 215
1 216
1 217
1 218
1 219
1 220
1 221
1 222
1 223
1 224
1 225
1 226
1 227
1 228
1 229
1 230
1 231
1 232
1 233
1 234

POINT_DATA 235
SCALARS id int 1
LOOKUP_TABLE default
1
4
5
6
8
9
10
11
12
13
15
17
18
19
23
24
25
26
27
29
30
32
33
34
35
36
38
39
41
42
43
44
45
46
48
50
51
53
54
55
57
58
59
60
61
62
63
64
67
68
69
70
71
72
74
76
77
78
80
81
83
84
85
86
87
89
90
91
92
93
94
95
96
97
98
99
100
101
103
105
106
107
108
110
111
112
113
115
116
117
118
119
120
121
122
123
124
125
127
128
129
130
131
133
135
136
137
138
140
141
142
143
144
145
146
147
148
150
153
154
156
158
159
160
162
163
164
166
167
170
171
173
174
175
176
179
182
183
185
186
187
189
190
191
192
193
194
195
196
197
198
199
200
201
202
203
204
205
206
207
208
210
211
212
213
214
215
216
217
218
220
221
222
223
225
226
227
228
229
230
231
232
233
234
235
238
239
240
241
243
244
246
247
248
250
251
252
255
257
258
259
260
261
262
263
264
266
267
268
269
270
271
273
275
277
278
279
280
281
282
283
284
286
289
290
291
292
293
294
295
296
297
298
299
300

SCALARS type int 1
LOOKUP_TABLE default
1
1
1
1
1
1
1
1
1
1
1
1
1
1
1
1
1
1
1
1
1
1
1
1
1
1
1
1
1
1
1
1
1
1
1
1
1
1
1
1
1
1
1
1
1
1
1
1
1
1
1
1
1
1
1
1
1
1
1
1
1
1
1
1
1
1
1
1
1
1
1
1
1
1
1
1
1
1
1
1
1
1
1
1
1
1
1
1
1
1
1
1
1
1
1
1
1
1
1
1
1
1
1
1
1
1
1
1
1
1
1
1
1
1
1
1
1
1
1
1
1
1
1
1
1
1
1
1
1
1
1
1
1
1
1
1
1
1
1
1
1
1
1
1
1
1
1
1
1
1
1
1
1
1
1
1
1
1
1
1
1
1
1
1
1
1
1
1
1
1
1
1
1
1
1
1
1
1
1
1
1
1
1
1
1
1
1
1
1
1
1
1
1
1
1
1
1
1
1
1
1
1
1
1
1
1
1
1
1
1
1
1
1
1
1
1
1
1
1
1
1
1
1
1
1
1
1
1
1
1
1
1
1
1
1

SCALARS radius float 1
LOOKUP_TABLE default
5e-05
5e-05
5e-05
5e-05
5e-05
5e-05
5e-05
5e-05
5e-05
5e-05
5e-05
5e-05
5e-05
5e-05
5e-05
5e-05
5e-05
5e-05
5e-05
5e-05
5e-05
5e-05
5e-05
5e-05
5e-05
5e-05
5e-05
5e-05
5e-05
5e-05
5e-05
5e-05
5e-05
5e-05
5e-05
5e-05
5e-05
5e-05
5e-05
5e-05
5e-05
5e-05
5e-05
5e-05
5e-05
5e-05
5e-05
5e-05
5e-05
5e-05
5e-05
5e-05
5e-05
5e-05
5e-05
5e-05
5e-05
5e-05
5e-05
5e-05
5e-05
5e-05
5e-05
5e-05
5e-05
5e-05
5e-05
5e-05
5e-05
5e-05
5e-05
5e-05
5e-05
5e-05
5e-05
5e-05
5e-05
5e-05
5e-05
5e-05
5e-05
5e-05
5e-05
5e-05
5e-05
5e-05
5e-05
5e-05
5e-05
5e-05
5e-05
5e-05
5e-05
5e-05
5e-05
5e-05
5e-05
5e-05
5e-05
5e-05
5e-05
5e-05
5e-05
5e-05
5e-05
5e-05
5e-05
5e-05
5e-05
5e-05
5e-05
5e-05
5e-05
5e-05
5e-05
5e-05
5e-05
5e-05
5e-05
5e-05
5e-05
5e-05
5e-05
5e-05
5e-05
5e-05
5e-05
5e-05
5e-05
5e-05
5e-05
5e-05
5e-05
5e-05
5e-05
5e-05
5e-05
5e-05
5e-05
5e-05
5e-05
5e-05
5e-05
5e-05
5e-05
5e-05
5e-05
5e-05
5e-05
5e-05
5e-05
5e-05
5e-05
5e-05
5e-05
5e-05
5e-05
5e-05
5e-05
5e-05
5e-05
5e-05
5e-05
5e-05
5e-05
5e-05
5e-05
5e-05
5e-05
5e-05
5e-05
5e-05
5e-05
5e-05
5e-05
5e-05
5e-05
5e-05
5e-05
5e-05
5e-05
5e-05
5e-05
5e-05
5e-05
5e-05
5e-05
5e-05
5e-05
5e-05
5e-05
5e-05
5e-05
5e-05
5e-05
5e-05
5e-05
5e-05
5e-05
5e-05
5e-05
5e-05
5e-05
5e-05
5e-05
5e-05
5e-05
5e-05
5e-05
5e-05
5e-05
5e-05
5e-05
5e-05
5e-05
5e-05
5e-05
5e-05
5e-05
5e-05
5e-05
5e-05
5e-05
5e-05
5e-05
5e-05
5e-05
5e-05
5e-05
5e-05
5e-05
5e-05
5e-05
5e-05
5e-05

SCALARS mass float 1
LOOKUP_TABLE default
1.46608e-10
1.46608e-10
1.46608e-10
1.46608e-10
1.46608e-10
1.46608e-10
1.46608e-10
1.46608e-10
1.46608e-10
1.46608e-10
1.46608e-10
1.46608e-10
1.46608e-10
1.46608e-10
1.46608e-10
1.46608e-10
1.46608e-10
1.46608e-10
1.46608e-10
1.46608e-10
1.46608e-10
1.46608e-10
1.46608e-10
1.46608e-10
1.46608e-10
1.46608e-10
1.46608e-10
1.46608e-10
1.46608e-10
1.46608e-10
1.46608e-10
1.46608e-10
1.46608e-10
1.46608e-10
1.46608e-10
1.46608e-10
1.46608e-10
1.46608e-10
1.46608e-10
1.46608e-10
1.46608e-10
1.46608e-10
1.46608e-10
1.46608e-10
1.46608e-10
1.46608e-10
1.46608e-10
1.46608e-10
1.46608e-10
1.46608e-10
1.46608e-10
1.46608e-10
1.46608e-10
1.46608e-10
1.46608e-10
1.46608e-10
1.46608e-10
1.46608e-10
1.46608e-10
1.46608e-10
1.46608e-10
1.46608e-10
1.46608e-10
1.46608e-10
1.46608e-10
1.46608e-10
1.46608e-10
1.46608e-10
1.46608e-10
1.46608e-10
1.46608e-10
1.46608e-10
1.46608e-10
1.46608e-10
1.46608e-10
1.46608e-10
1.46608e-10
1.46608e-10
1.46608e-10
1.46608e-10
1.46608e-10
1.46608e-10
1.46608e-10
1.46608e-10
1.46608e-10
1.46608e-10
1.46608e-10
1.46608e-10
1.46608e-10
1.46608e-10
1.46608e-10
1.46608e-10
1.46608e-10
1.46608e-10
1.46608e-10
1.46608e-10
1.46608e-10
1.46608e-10
1.46608e-10
1.46608e-10
1.46608e-10
1.46608e-10
1.46608e-10
1.46608e-10
1.46608e-10
1.46608e-10
1.46608e-10
1.46608e-10
1.46608e-10
1.46608e-10
1.46608e-10
1.46608e-10
1.46608e-10
1.46608e-10
1.46608e-10
1.46608e-10
1.46608e-10
1.46608e-10
1.46608e-10
1.46608e-10
1.46608e-10
1.46608e-10
1.46608e-10
1.46608e-10
1.46608e-10
1.46608e-10
1.46608e-10
1.46608e-10
1.46608e-10
1.46608e-10
1.46608e-10
1.46608e-10
1.46608e-10
1.46608e-10
1.46608e-10
1.46608e-10
1.46608e-10
1.46608e-10
1.46608e-10
1.46608e-10
1.46608e-10
1.46608e-10
1.46608e-10
1.46608e-10
1.46608e-10
1.46608e-10
1.46608e-10
1.46608e-10
1.46608e-10
1.46608e-10
1.46608e-10
1.46608e-10
1.46608e-10
1.46608e-10
1.46608e-10
1.46608e-10
1.46608e-10
1.46608e-10
1.46608e-10
1.46608e-10
1.46608e-10
1.46608e-10
1.46608e-10
1.46608e-10
1.46608e-10
1.46608e-10
1.46608e-10
1.46608e-10
1.46608e-10
1.46608e-10
1.46608e-10
1.46608e-10
1.46608e-10
1.46608e-10
1.46608e-10
1.46608e-10
1.46608e-10
1.46608e-10
1.46608e-10
1.46608e-10
1.46608e-10
1.46608e-10
1.46608e-10
1.46608e-10
1.46608e-10
1.46608e-10
1.46608e-10
1.46608e-10
1.46608e-10
1.46608e-10
1.46608e-10
1.46608e-10
1.46608e-10
1.46608e-10
1.46608e-10
1.46608e-10
1.46608e-10
1.46608e-10
1.46608e-10
1.46608e-10
1.46608e-10
1.46608e-10
1.46608e-10
1.46608e-10
1.46608e-10
1.46608e-10
1.46608e-10
1.46608e-10
1.46608e-10
1.46608e-10
1.46608e-10
1.46608e-10
1.46608e-10
1.46608e-10
1.46608e-10
1.46608e-10
1.46608e-10
1.46608e-10
1.46608e-10
1.46608e-10
1.46608e-10
1.46608e-10
1.46608e-10
1.46608e-10
1.46608e-10
1.46608e-10
1.46608e-10
1.46608e-10
1.46608e-10
1.46608e-10
1.46608e-10
1.46608e-10
1.46608e-10
1.46608e-10
1.46608e-10

VECTORS velocity float
0.00591186 0.00039925 0.00069975
0.00567005 0.000168913 -7.83706e-05
0.00588277 0.000388012 0.000703621
0.0059356 0.000115733 -2.06294e-05
0.00564581 0.000125007 0.000290506
0.00564241 0.000152991 -6.85791e-05
0.00592228 -0.000365124 0.000131442
0.0059768 0.000239286 0.000437924
0.00568263 0.000163866 -8.14617e-05
0.00583071 0.000443487 0.000620896
0.00592176 0.00045066 0.000697766
0.00582409 0.000461179 0.000605214
0.00557163 0.000181865 -9.37161e-05
0.00537021 0.000115323 0.000279087
0.00592639 0.000430737 0.000646041
0.00577063 0.000146956 -5.45321e-05
0.00586705 0.000443816 0.000653616
0.00575126 0.000137408 -4.43008e-05
0.00594464 0.000436265 0.00069124
0.00593546 0.000451835 0.00062326
0.00593055 0.000118874 -2.40958e-05
0.00607356 0.000431944 0.00068375
0.00591589 0.000125578 -3.15944e-05
0.00593114 0.000428721 0.000662674
0.00593398 0.000411776 0.000639708
0.00581689 0.000746196 0.000190093
0.00551751 -0.000191087 -0.000213548
0.00614104 0.000520725 0.000540204
0.00594894 0.000396328 0.000701955
0.00598878 0.000404839 0.000644591
0.00600368 0.000422827 0.000644603
1.81073e-14 7.53037e-14 2.12931e-13
0.00592828 0.000127325 -3.20855e-05
0.00564287 0.000179434 -9.11356e-05
0.00521519 -0.00187314 0.00114398
0.00577673 -0.000162159 -0.00023999
0.00521406 0.000509274 0.000375398
0.00590431 0.000121571 -2.68918e-05
0.00559239 0.000119463 0.000289183
0.00575825 0.000307382 0.000358205
0.00585808 -0.000108736 -0.000254374
0.00578789 0.000459861 0.000575171
0.00570705 0.000164259 0.000318478
0.00574065 0.000272038 0.000396671
0.00541687 0.000122771 0.000269777
0.00607777 0.000419095 0.00069731
0.00574935 -0.000123448 -0.000244328
0.00599654 0.000417268 0.000689161
0.00575405 -0.000112686 -0.000242498
0.00610642 -0.000664089 -0.000750022
0.00603653 0.000440082 0.000661802
0.00583108 -0.000103259 -0.000249352
0.00587106 0.000437165 -0.000245348
0.00574287 -0.000145648 -0.000241662
0.00569578 -0.000147298 -0.000299756
0.0055288 -0.000150802 -0.000210911
0.00577765 -0.000149043 -0.000235071
0.00620749 -0.000728807 -0.000616494
0.00592484 -7.87246e-05 -0.000213054
0.00634642 -0.000824485 -0.000424209
0.0055416 -7.70676e-05 -0.000578747
0.00576753 -0.00017932 -0.000237396
0.00723484 -0.000851483 -0.000728492
0.00566137 0.000439023 0.000655781
0.00589807 0.000129074 -3.32337e-05
0.00577212 -0.000163056 -0.000238006
0.0058999 0.00011982 -2.64788e-05
-7.13428e-15 2.48259e-14 -7.81458e-14
0.00622669 0.000785749 0.000213997
0.00553465 -0.000182337 -0.000217469
0.00546144 -0.000168715 -0.000213947
0.00570142 0.000578275 0.000520643
0.00622699 0.000804146 0.000185216
0.00542186 0.000726548 -0.000131089
0.00555962 -0.000200029 -0.000215156
0.00584084 0.000671811 -0.000306389
0.00572909 0.000396192 0.000495272
0.00552428 8.25279e-05 0.000339868
5.04643e-10 -0.0207368 0.0122904
0.00630273 -0.000799677 -0.000474523
0.00576918 -0.000160709 -0.000238299
0.00549323 -7.3928e-05 -0.000569627
0.00538041 0.000118446 0.000274246
0.00543079 -0.00012664 -0.00022916
0.00546371 -0.00016342 -0.000233523
0.00620131 -0.000625969 -0.000901328
0.00602754 0.000560649 0.000351589
0.00614434 0.000583509 0.00054705
0.0056662 0.000123168 0.000295768
0.0055087 0.000125021 0.000277288
0.00627713 -0.000805174 -0.000455277
0.00606519 0.000519593 0.000560043
0.00530335 0.000111399 0.00027806
0.00611912 0.000457393 0.000207996
0.00544949 -0.000147672 -0.000224803
0.00600196 0.000540281 0.000119961
0.00576579 -0.000121571 -0.000226437
0.00585446 0.000406881 0.000671888
0.00623494 0.000544385 0.00014586
0.00556127 -0.000188583 -0.000221368
0.00593875 -0.0007311 -0.000505
0.00563995 -0.00066642 -0.000545228
0.00577625 -0.000707378 -0.000507011
0.00590712 -0.000110062 -0.000172577
0.00552248 7.15409e-05 0.000360931
0.00612246 -0.0007726 -0.000481136
0.00544949 -0.0001523 -0.000228957
0.00545678 -0.00015648 -0.000221965
0.00615781 0.000697361 -0.000361581
0.00573373 -0.000710285 -0.000506552
0.00604085 -9.68899e-05 -0.000359724
0.00570561 -0.000623677 -0.000666876
0.00527046 -0.00186263 0.00116859
0.00403884 0.0196493 -0.010892
0.00616207 0.000368841 0.0003265
0.00569113 -0.000655265 -0.000594099
0.0060158 -0.00046437 -0.000575451
0.00604187 0.000603484 7.62404e-05
0.00606314 0.000553891 0.000115593
0.00605286 0.000501159 0.000247141
0.00571703 -0.000660476 -0.000641577
0.00610032 0.000370727 1.61096e-05
0.00609056 0.000334352 0.000328679
0.00588446 -0.000631377 -0.000660679
0.00608471 0.000504201 0.000256518
0.00554268 0.000237982 0.000461885
0.00549909 -0.000158341 -0.000227939
0.00617039 0.000855196 7.52957e-05
0.00519753 0.000749637 -0.000194289
0.00609273 0.000484688 0.000176888
0.00544696 -0.000144411 -0.000230989
0.00592362 0.000416972 0.000677948
0.00594091 0.000474427 0.000181459
0.00600037 0.0005132 0.000152154
0.00615866 0.000554968 0.000351971
0.00532026 0.000997987 -0.000416574
0.0056979 -0.000153322 -0.000241053
0.00610448 0.000560763 0.000260071
0.00564893 0.000270336 0.000469802
-1.38444e-16 2.48917e-14 -2.37494e-13
0.0060565 0.00041526 0.000702633
0.00615884 0.000762906 0.000210083
0.00586758 -0.000585986 0.000457174
0.00576346 -0.000165837 -0.000423677
0.00596934 0.000563508 0.00018585
0.00553918 -0.000188288 -0.000204827
0.0056618 0.000696821 -0.000109235
0.0059296 0.000626805 0.000163006
0.00607369 0.000249985 -2.00424e-06
0.00614616 0.000525932 0.000210398
0.00588939 0.000589775 0.000192655
0.00586207 0.000276296 0.000468816
0.00606937 0.000520803 0.000200651
0.00561364 0.000208296 0.000376546
0.00608933 0.000428166 0.000331881
0.00546699 -0.000162273 -0.000225984
0.00563403 0.000991988 -0.00043409
0.00582965 -0.000582217 0.000453908
0.00601106 0.00055322 0.000253973
0.00582935 0.000879929 -0.000244509
0.00569349 -0.00018565 0.00042155
0.00579286 0.000406338 0.000656247
0.0059423 7.05031e-05 0.000247207
0.00608298 0.000462744 0.0002286
0.00553223 -0.000198645 -0.000226645
0.00531649 -0.00163425 -0.000190263
-2.39494e-14 -9.32248e-14 -1.94033e-13
0.00582487 0.000388103 0.000315279
0.00554141 0.00051906 -1.6935e-05
0.00557518 -0.000268971 -0.000368601
-2.18475e-09 -0.0225023 0.00843185
0.00588738 -0.000588751 0.000458821
0.00601135 0.000238287 0.000409288
-1.34486e-14 -2.19823e-15 2.19343e-13
0.00540137 -0.000144789 -0.000534279
0.00591231 0.000301529 0.000570825
0.00590282 0.00034995 0.00037805
0.00527174 -0.00186427 0.00117024
0.00624511 -0.000720766 -0.000952285
0.00544946 0.000351874 0.000227228
0.00592233 0.000669334 0.000182891
0.00608826 0.000521015 0.000102792
0.00605078 0.00055353 9.13775e-05
0.00559995 -0.000161217 -0.000223425
0.00557838 0.000573837 5.28944e-05
0.00603327 0.000523422 0.000151307
0.00586616 -0.000596228 0.000467761
0.00592879 -0.000603379 0.000475307
0.00539528 -0.000516856 0.000390478
0.00542902 -0.000521539 0.000396133
0.00592757 -0.000592887 0.000463398
0.0055137 -0.000536777 0.000410572
0.00600677 0.00057715 0.000218574
0.00607387 0.000571872 0.000110612
0.00626898 0.000655054 4.20024e-05
0.00541014 -0.000100131 -0.000544831
4.85881e-21 -2.91472e-21 1.37807e-22
0.00595701 0.000400107 0.000271601
0.00562804 -0.000187483 -0.000450318
0.00573204 0.00031907 0.000382868
0.00620634 -0.000605251 0.000463701
0.00607479 0.00041773 0.00072763
0.0054795 -0.000107767 -0.000552752
0.005604 -9.99462e-05 -0.000565592
0.00548167 -0.000515207 0.000403235
0.00551106 -0.000133634 -0.000583059
0.00600929 0.000567809 0.000137566
0.00548098 -7.24447e-05 -0.000569916
0.00573229 0.000523479 0.000179529
0.00557123 -0.000135343 -0.00053017
0.00534983 -0.000169146 -0.000535718
0.0060394 0.000535659 0.000126862
0.00548215 -5.47203e-05 -0.000572829
0.00540981 -8.96522e-05 -0.000549386
0.00545792 -8.99328e-05 -0.000557605
0.00613573 0.000402634 0.000299142
0.00548307 -0.000514285 0.000402691
0.00547923 -0.000517935 0.000404812
0.00626637 0.000602168 -0.000542593
0.00548441 -0.00051257 0.00040215
0.005463 -0.00052131 0.000403171
0.00548354 -6.39295e-05 -0.000542552
0.00545216 -0.000317141 -0.000660927
0.00548605 -0.000513207 0.000402342
0.00601518 0.000528402 0.000243022
0.00552879 -5.68226e-05 0.000243067
0.00628785 0.000482848 0.000252914
0.00601715 0.000518426 0.000206516
0.00540127 -0.000110569 -0.000547846
0.00586688 0.000603192 1.12545e-05
0.00572374 0.000349256 0.000341908
0.00615546 0.000507982 0.000168721
0.00548365 -0.000514185 0.000402529
0.00579822 -0.00058324 0.000456269
0.00551292 -0.000164418 -0.000225335

VECTORS force float
-2.29403e-11 -4.5703e-11 8.05327e-11
1.33682e-10 -1.24817e-10 1.24515e-10
-2.56987e-10 8.46664e-11 -1.54272e-10
-6.88309e-11 -3.93792e-11 4.05056e-11
1.11631e-10 3.0951e-10 -2.24678e-10
1.18269e-10 1.16482e-10 -2.45976e-11
-4.92204e-13 1.00705e-12 -6.88866e-13
3.65785e-09 3.90333e-11 4.7348e-10
-8.40486e-11 -2.4934e-10 1.37973e-10
-5.76406e-11 4.84331e-11 2.16527e-10
8.29739e-11 5.17664e-11 -1.7504e-10
5.41414e-11 -2.22664e-10 2.34457e-10
-4.04173e-10 7.22939e-11 -8.40535e-11
-1.13097e-10 8.9876e-11 -1.37218e-10
1.59249e-10 2.79904e-10 -3.52459e-10
1.43944e-10 2.99888e-10 -1.26953e-10
4.84503e-11 1.49473e-10 5.61552e-11
-1.37167e-10 6.28714e-12 3.97989e-12
-3.45453e-11 3.12501e-10 -2.01883e-10
-1.88071e-10 -1.18464e-10 1.80703e-10
-4.37371e-12 -1.18677e-10 1.469e-10
-4.0293e-10 -3.25818e-10 2.76821e-10
1.43722e-11 -1.6039e-12 1.9214e-11
1.62833e-10 2.48783e-10 -3.88309e-10
-3.28021e-11 4.2605e-10 -6.61307e-11
9.96542e-10 -3.0024e-10 7.39422e-10
-7.43841e-11 1.37057e-10 7.72979e-11
-1.4286e-10 3.67555e-10 1.60699e-10
-7.7757e-11 1.8901e-10 -1.79492e-10
2.23807e-10 8.04312e-11 -1.12368e-10
3.58208e-10 -1.36363e-10 -7.59187e-11
-9.89515e-23 6.90179e-23 -1.94387e-23
1.03395e-11 -8.15948e-11 6.58654e-11
1.78719e-10 3.02505e-11 4.4721e-11
-9.04875e-11 -1.92589e-11 7.63492e-12
1.53609e-10 -6.37819e-13 -9.95242e-11
9.46245e-12 3.62142e-10 -4.88635e-10
2.52124e-12 3.4498e-11 -4.24588e-11
-3.71625e-10 -6.25142e-12 -6.60219e-11
4.30575e-11 1.25196e-09 -9.40618e-10
1.46623e-10 1.87863e-10 -1.32536e-11
-4.70627e-10 -2.13824e-10 3.40928e-10
-3.87879e-10 -7.31277e-11 8.48671e-11
2.76162e-10 8.5197e-11 -7.06682e-11
1.63476e-10 4.40672e-11 -3.43443e-12
-1.66496e-11 -2.19801e-10 3.83598e-10
-1.66177e-10 1.58389e-10 1.26538e-10
-6.45629e-11 1.13557e-10 -1.14296e-10
-5.91972e-11 -4.06276e-11 -4.57516e-11
-4.91207e-10 -5.82513e-10 1.62298e-09
-9.25467e-11 -1.843e-10 -2.3042e-11
1.41406e-10 1.8303e-10 -3.08538e-10
-1.34065e-09 -8.57604e-10 6.34804e-10
-8.32264e-11 3.66185e-11 5.62302e-11
-1.73636e-10 2.58323e-10 -9.04448e-10
-1.54091e-11 -7.44459e-11 9.69972e-11
2.32364e-11 -2.4635e-10 1.88537e-10
7.24764e-11 -5.32151e-10 9.2974e-10
-1.84235e-10 3.85595e-10 -5.31223e-10
-2.09e-10 -1.79985e-10 5.44166e-10
2.77088e-09 2.46449e-09 -7.16132e-11
-2.57039e-10 -7.88973e-11 -3.59245e-11
1.92241e-10 3.33787e-10 -6.47842e-10
1.31057e-10 -1.27806e-10 1.82573e-10
-1.43546e-11 3.51838e-11 -3.50309e-11
2.04595e-10 2.13676e-10 -9.00231e-11
-1.69979e-12 1.57032e-11 -2.37809e-11
4.74621e-22 1.29919e-22 -6.20385e-24
1.17731e-10 2.21607e-10 -2.85657e-10
1.2145e-10 -1.6807e-11 2.88359e-11
2.53605e-10 -5.88144e-11 -4.68983e-12
-1.92117e-10 -1.76785e-10 8.76588e-11
1.96501e-10 -9.59768e-11 1.24316e-10
-4.60872e-10 -3.43766e-10 3.55531e-10
-1.12642e-10 8.77363e-11 1.28337e-10
5.52385e-09 -3.91479e-10 4.23789e-09
-2.56419e-10 -2.05406e-10 -1.40848e-10
-3.87144e-12 1.30939e-10 -1.67038e-10
1.78127e-18 1.11511e-11 1.87929e-11
1.12509e-09 -6.69228e-10 1.11803e-09
-1.34756e-11 -5.81167e-11 1.05421e-11
-6.22199e-11 -4.8416e-10 1.07294e-10
2.01568e-11 -3.1795e-11 2.65435e-11
-4.14497e-11 1.91002e-11 9.03933e-11
-1.94997e-10 -5.9009e-11 -4.83591e-11
-5.22686e-10 -3.69048e-10 1.21799e-09
-1.68718e-10 -4.0158e-10 1.95718e-10
-2.31668e-10 1.72957e-10 3.9984e-10
-1.22636e-10 -5.18258e-11 -3.22554e-10
-1.44462e-10 5.89541e-11 -1.24937e-10
3.16835e-10 -1.28678e-10 6.34361e-11
-3.3671e-11 1.58606e-10 -2.64828e-10
-3.31106e-10 2.39599e-10 -4.14502e-10
1.50018e-09 -1.05564e-09 1.92813e-09
1.38492e-10 1.16335e-10 -1.72338e-10
-5.02327e-10 -4.14048e-10 4.53333e-10
4.31985e-11 6.83028e-11 -3.77049e-11
-2.45288e-10 -1.55369e-10 1.32209e-10
4.62356e-10 1.56391e-10 -1.8208e-10
-5.9202e-11 -2.24947e-10 6.22544e-11
8.24211e-10 -3.2451e-10 6.83041e-10
7.553e-10 -6.14223e-11 9.05992e-10
-1.27665e-10 -3.83483e-10 7.6597e-10
-8.84637e-11 6.48408e-10 -4.26819e-10
9.87068e-11 1.25735e-10 -1.92809e-10
9.0096e-10 -3.63379e-10 3.77782e-10
-7.46761e-11 -1.93443e-11 1.11187e-10
6.74744e-11 -8.56436e-11 8.90025e-11
-4.75472e-11 -2.92046e-10 5.1643e-10
-2.49076e-10 -1.89143e-10 8.16627e-10
-2.10704e-10 6.39117e-10 -2.9611e-09
-1.08975e-09 7.57704e-10 -7.96436e-10
3.2425e-11 8.62307e-11 -3.1489e-12
0.0 0.0 -1.43822e-09
2.44977e-10 -3.6921e-10 6.91672e-10
-7.01295e-10 -2.15219e-10 7.30483e-10
7.93094e-10 1.76109e-09 -1.45831e-09
-7.84095e-10 -8.41192e-11 1.9974e-10
3.28848e-10 -6.11316e-10 1.02693e-09
3.93005e-10 -1.16469e-11 7.91863e-10
-6.62075e-10 2.8712e-10 8.69426e-11
4.36336e-10 -3.22966e-10 -3.74226e-09
1.31903e-09 -1.14084e-09 1.37133e-09
-1.09891e-10 1.00328e-09 -1.2265e-09
5.2097e-10 8.36817e-10 2.10375e-10
1.57482e-10 -1.13046e-09 4.40761e-11
-4.39493e-11 -6.15667e-11 -1.17841e-11
7.50545e-10 -8.03636e-10 1.19668e-09
-1.40422e-09 1.20866e-09 -1.40046e-10
1.82698e-10 -3.20403e-10 5.55462e-10
3.99863e-10 -1.40614e-10 2.48529e-11
1.76447e-11 1.24207e-10 -5.70074e-11
7.28085e-10 -1.24044e-09 1.66717e-09
-1.81498e-10 -4.8207e-10 1.08295e-09
5.26949e-10 1.41944e-09 -1.81152e-09
-6.55795e-10 5.00581e-10 -7.92393e-10
-9.10298e-11 -1.42325e-10 1.28746e-10
-8.97013e-11 3.50575e-11 3.70708e-10
3.003e-10 2.23708e-10 6.26619e-10
-6.02272e-22 -4.16175e-24 -2.06795e-25
4.35659e-12 -6.47639e-11 8.98114e-11
-5.99133e-10 -1.46992e-10 1.99666e-10
6.09642e-11 9.14592e-11 -9.56227e-11
1.68948e-09 -1.33354e-09 8.19527e-10
7.66412e-10 -6.5135e-11 1.04818e-09
1.37633e-10 -5.88211e-11 -2.87769e-10
3.31618e-10 -1.78382e-11 1.17599e-10
-6.10828e-10 -2.99596e-10 1.05782e-09
-2.50408e-09 1.30234e-09 -2.23036e-09
3.08178e-10 4.74404e-10 7.83975e-11
-3.4787e-11 2.04384e-10 2.55712e-10
-4.48939e-10 7.38178e-12 2.10601e-10
-1.54012e-11 -4.61253e-10 7.86874e-10
6.40663e-10 -8.19303e-10 4.15385e-09
-2.1665e-10 -6.64019e-10 1.23619e-09
-2.23305e-11 4.81906e-11 2.24509e-11
-5.79769e-12 -1.1641e-10 -1.45311e-09
-9.03234e-11 -1.90689e-11 1.98241e-11
8.7915e-11 3.22217e-10 8.34895e-10
-7.88325e-10 6.04134e-10 -6.9189e-10
-1.95859e-10 7.31877e-11 8.11223e-10
-2.73472e-10 -1.58953e-10 2.29274e-10
-7.64663e-10 -3.03739e-10 -5.85814e-10
4.24977e-10 -7.58604e-10 1.25653e-09
1.0938e-12 -7.93507e-12 -4.42607e-11
-1.81139e-11 -9.12957e-11 2.28984e-11
1.15805e-23 -9.82277e-24 -3.51552e-24
2.47133e-10 7.93408e-10 -5.06016e-10
-4.14574e-09 2.31722e-09 2.62624e-09
1.81367e-10 2.59577e-09 -2.49408e-10
4.44912e-18 7.66073e-12 2.0393e-11
-1.24866e-10 -2.30388e-10 2.46511e-10
2.78874e-10 2.02989e-10 9.15547e-11
-1.30953e-22 2.20429e-22 -7.03104e-24
5.46497e-11 -6.06627e-10 1.33457e-10
-6.58701e-10 -5.70471e-10 4.13472e-10
3.0347e-10 1.21241e-09 -7.35474e-10
-1.46182e-11 -9.56987e-12 -3.53835e-12
0.0 0.0 -1.43822e-09
7.95617e-10 -2.68381e-09 -8.48079e-10
5.47957e-11 5.43475e-10 4.87938e-10
2.01179e-09 -9.82924e-10 8.89376e-10
-3.05999e-10 -5.29091e-10 2.88312e-10
8.19453e-12 -1.76461e-10 -4.36139e-11
-2.60004e-10 1.57126e-10 1.2739e-09
1.36911e-09 -8.00933e-10 1.39696e-09
2.1061e-10 -1.20612e-11 2.07389e-11
1.17715e-10 8.87414e-11 -1.11205e-10
8.22773e-11 2.20731e-12 -1.11598e-11
-3.08446e-11 3.32583e-11 -4.19753e-11
1.32969e-10 -4.67304e-11 3.77895e-11
1.69211e-11 -6.49068e-11 8.07277e-11
-6.39202e-10 -4.14063e-10 9.08603e-10
-6.46248e-10 3.24524e-10 -4.01091e-10
2.82927e-10 3.0489e-10 -3.47014e-10
1.36949e-09 -9.98006e-11 -2.32316e-10