# vtk DataFile Version 3.0
LIGGGHTS particles timestep 4000000
ASCII
DATASET POLYDATA
POINTS 235 float
0.0359213 0.0155797 0.00857778
0.0421565 0.0166953 0.00756582
0.0358823 0.0154605 0.00873354
0.0420323 0.0162403 0.00789297
0.0356968 0.0151409 0.0091482
0.0421778 0.016788 0.0075349
0.0480291 0.0162948 0.00801337
0.0295035 0.0148434 0.0100127
0.0421351 0.0166026 0.00759674
0.0358265 0.0155587 0.00860206
0.0358658 0.0156779 0.00844629
0.0358069 0.0154991 0.00867994
0.0420925 0.0164173 0.00765858
0.0355934 0.0148651 0.00954868
0.0359255 0.0158609 0.00821035
0.0420768 0.0163563 0.0077363
0.0358462 0.0156183 0.00852419
0.0420543 0.0162985 0.0078147
0.0358855 0.0157381 0.00836773
0.0359409 0.0156393 0.00849993
0.0420128 0.0161818 0.00797172
0.0360274 0.0161975 0.00787252
0.0419723 0.0160651 0.00812901
0.0359058 0.0158001 0.00828784
0.0359451 0.0159214 0.00813318
0.0362099 0.0165561 0.00766259
0.0359627 0.0160234 0.00814711
0.0361561 0.0167028 0.00759116
0.0359016 0.0155201 0.00865564
0.0359652 0.0159819 0.00805612
0.0359925 0.0160429 0.00797881
0.00738367 0.018342 0.00543103
0.0419923 0.0161235 0.00805033
0.0421138 0.01651 0.00762766
0.033006 0.0163375 0.00774545
0.036275 0.0168173 0.00753016
0.0362316 0.0166432 0.00761842
0.0419523 0.0160067 0.00820769
0.0356696 0.0150844 0.00922615
0.0294579 0.0147786 0.0101963
0.0361709 0.016786 0.00764637
0.0357874 0.0154395 0.00875779
0.0357288 0.0152607 0.00899139
0.0357491 0.0153202 0.00891365
0.0356297 0.0149632 0.0093801
0.0360492 0.016283 0.00782559
0.0362781 0.0172025 0.0073341
0.0360018 0.0158194 0.00826794
0.0360981 0.0164532 0.00774334
0.0296292 0.0150519 0.00946448
0.0360062 0.0161039 0.00790078
0.0362979 0.0172896 0.00728921
0.0295444 0.0149124 0.00982952
0.0362967 0.0169044 0.00748588
0.0362533 0.0167303 0.00757424
0.0363375 0.0174639 0.00719944
0.0362585 0.0171154 0.00737909
0.029648 0.01509 0.00937396
0.0362412 0.0170612 0.00746136
0.0296854 0.0151581 0.00918969
0.0294795 0.0148108 0.0101041
0.0363532 0.0171433 0.00736321
0.029587 0.0149792 0.00964594
0.0361777 0.0167897 0.00754668
0.0419122 0.01589 0.00836505
0.0363139 0.0169963 0.00743903
0.0419323 0.0159484 0.00828637
0.0157927 0.0215765 0.00607411
0.0360261 0.0158795 0.00819172
0.036357 0.0175511 0.00715453
0.0364521 0.0175803 0.0071381
0.0361994 0.0168765 0.00750212
0.0360511 0.0159395 0.00811578
0.0300167 0.0158732 0.00824068
0.0364325 0.0174922 0.00718347
0.0293296 0.0145505 0.0107349
0.0357678 0.0153812 0.00883666
0.0355536 0.0148199 0.00973922
0.0689772 0.0174552 0.0079413
0.0296656 0.0151253 0.00928208
0.0359833 0.0160834 0.0080698
0.0295226 0.0148798 0.00992154
0.0356095 0.0149036 0.00945782
0.0363183 0.0173767 0.00724437
0.0363943 0.0177258 0.00706457
0.0296099 0.0150154 0.00955554
0.0361127 0.0165285 0.00767911
0.0361344 0.0166158 0.00763541
0.0357107 0.015202 0.00907031
0.0356497 0.0150227 0.00930227
0.0297028 0.0151903 0.00909664
0.0359605 0.0156992 0.0084223
0.035572 0.0148389 0.00964278
0.0297813 0.0151586 0.00914984
0.0364131 0.0178132 0.00701981
0.0299161 0.0155206 0.00858059
0.0362211 0.0169634 0.00745756
0.0358629 0.0154009 0.00881145
0.0299764 0.0157322 0.00837664
0.0363759 0.0176384 0.00710957
0.0297408 0.0152524 0.00891052
0.0298033 0.0154214 0.00867475
0.0297581 0.0152937 0.00882111
0.0355143 0.0147898 0.00993293
0.0355342 0.0148027 0.00983578
0.0297216 0.0152182 0.0090025
0.0364318 0.0179011 0.00697594
0.0364705 0.0176677 0.0070931
0.0360706 0.0163595 0.00776484
0.0297795 0.015352 0.00874277
0.0299177 0.0158434 0.00826441
0.0298558 0.015632 0.00846795
0.0330261 0.0164025 0.00767223
0.0185395 0.0165577 0.00848673
0.0301724 0.0163733 0.00775928
0.0298166 0.0154909 0.0086041
0.0298966 0.0157745 0.00833374
0.0298748 0.0153278 0.0088032
0.0298468 0.0152696 0.00887951
0.0300013 0.0161249 0.00799305
0.0298364 0.0155614 0.00853609
0.0299369 0.015914 0.00819619
0.030295 0.0168245 0.00738683
0.0298757 0.0157031 0.00840051
0.029982 0.0160559 0.00806274
0.030295 0.0172535 0.00728063
0.03645 0.0179889 0.00693163
0.0360928 0.0160595 0.00796277
0.0297635 0.0151242 0.00924206
0.0300438 0.0162657 0.00785754
0.0361437 0.0162953 0.00779499
0.0359806 0.0157594 0.00834504
0.0301084 0.0161622 0.00796259
0.0300646 0.0163361 0.00778963
0.0299581 0.0159851 0.00812917
0.0300803 0.0160834 0.00803823
0.0354932 0.0147769 0.0100298
0.0302094 0.0168758 0.00737989
0.0303131 0.0173506 0.00726506
0.226587 0.0186791 0.00533789
0.0361034 0.0161213 0.00788487
0.0360616 0.0160006 0.00803732
0.0239692 0.0159909 0.00805196
0.030581 0.0177795 0.00711368
0.0301505 0.016625 0.00752679
0.0363493 0.0167566 0.0075584
0.029883 0.0153789 0.00871764
0.0301687 0.0166993 0.00746243
0.0294362 0.0147535 0.0102906
0.030229 0.0169699 0.00735235
0.0300857 0.0164077 0.00772311
0.0303517 0.0175329 0.00719365
0.0300218 0.0161955 0.00792526
0.0304866 0.0177493 0.00712634
0.0302702 0.01716 0.00730614
0.0362882 0.0171958 0.00743336
0.0301284 0.016551 0.00759035
0.0239475 0.0159128 0.00811051
0.0301892 0.0167834 0.00741237
0.0298201 0.0152269 0.00896591
0.0303917 0.01772 0.00713873
0.0358438 0.0153412 0.0088894
0.0304469 0.0175609 0.00718157
0.0302505 0.017065 0.00733047
0.0361677 0.0163818 0.00775101
0.0304123 0.0178157 0.00711816
0.0159913 0.0152807 0.00678236
0.0303721 0.017629 0.00717519
0.0299974 0.0158026 0.00830882
0.030466 0.0180813 0.00703287
0.12809 0.018251 0.00766836
0.0240126 0.016149 0.00793748
0.0303767 0.0167686 0.00740084
0.0254028 0.0195569 0.00545165
0.0305043 0.0182693 0.00697777
0.0303314 0.0174395 0.00722326
0.0293935 0.0146743 0.0104692
0.0330449 0.0164927 0.00763331
0.0295658 0.0149453 0.00973757
0.0304662 0.0176551 0.00715398
0.0301083 0.0164802 0.00765808
0.0293722 0.014633 0.0105578
0.0298965 0.01545 0.00864866
0.0361216 0.0162083 0.00783915
0.0305415 0.0175909 0.00716898
0.0301304 0.0162325 0.00789494
0.0239909 0.0160694 0.00799392
0.024056 0.0163083 0.00782462
0.0241212 0.0165472 0.00765532
0.0241429 0.0166269 0.00759889
0.0240343 0.0162287 0.00788105
0.0240994 0.0164676 0.00771175
0.0302159 0.0165151 0.00762283
0.0302378 0.0165854 0.00755517
0.0300496 0.0159583 0.00815918
0.0306292 0.0180407 0.00703736
0.018896 0.013113 0.0137667
0.0298008 0.0151927 0.00905789
0.0305061 0.017844 0.00709857
0.0303883 0.0172847 0.0072626
0.0270759 0.0166463 0.00759252
0.03619 0.0164687 0.00770689
0.0305234 0.0183635 0.00695018
0.0305795 0.0179085 0.00707708
0.0242042 0.0168665 0.00742914
0.0305405 0.0179975 0.00705346
0.0299355 0.0155912 0.00851248
0.0305426 0.0184577 0.00692258
0.0294148 0.0147143 0.0103801
0.0304502 0.0180051 0.00709567
0.0306682 0.0179517 0.00706098
0.0299554 0.0156618 0.00844447
0.030618 0.0183938 0.00693751
0.0305606 0.0181114 0.00702023
0.0305799 0.0182056 0.00699263
0.0302759 0.016736 0.00742923
0.0242422 0.0170267 0.00731564
0.0241852 0.0167864 0.00748589
0.0293084 0.0145092 0.0108235
0.0242666 0.0167388 0.00751906
0.0241646 0.0167065 0.00754245
0.0306544 0.017844 0.00709219
0.0304856 0.0181768 0.00701082
0.024166 0.0163493 0.00779501
0.0302563 0.0166607 0.00749203
0.0304306 0.0179078 0.0070837
0.0297436 0.0150902 0.00933393
0.0301957 0.0164445 0.00769081
0.0306552 0.0181415 0.00700758
0.0293509 0.0145918 0.0106463
0.0305617 0.017685 0.00714135
0.0301512 0.016303 0.00782707
0.0242232 0.0169466 0.00737239
0.0240777 0.016388 0.00776818
0.0354716 0.0147641 0.0101266

VERTICES 235 470
1 0
1 1
1 2
1 3
1 4
1 5
1 6
1 7
1 8
1 9
1 10
1 11
1 12
1 13
1 14
1 15
1 16
1 17
1 18
1 19
1 20
1 21
1 22
1 23
1 24
1 25
1 26
1 27
1 28
1 29
1 30
1 31
1 32
1 33
1 34
1 35
1 36
1 37
1 38
1 39
1 40
1 41
1 42
1 43
1 44
1 45
1 46
1 47
1 48
1 49
1 50
1 51
1 52
1 53
1 54
1 55
1 56
1 57
1 58
1 59
1 60
1 61
1 62
1 63
1 64
1 65
1 66
1 67
1 68
1 69
1 70
1 71
1 72
1 73
1 74
1 75
1 76
1 77
1 78
1 79
1 80
1 81
1 82
1 83
1 84
1 85
1 86
1 87
1 88
1 89
1 90
1 91
1 92
1 93
1 94
1 95
1 96
1 97
1 98
1 99
1 100
1 101
1 102
1 103
1 104
1 105
1 106
1 107
1 108
1 109
1 110
1 111
1 112
1 113
1 114
1 115
1 116
1 117
1 118
1 119
1 120
1 121
1 122
1 123
1 124
1 125
1 126
1 127
1 128
1 129
1 130
1 131
1 132
1 133
1 134
1 135
1 136
1 137
1 138
1 139
1 140
1 141
1 142
1 143
1 144
1 145
1 146
1 147
1 148
1 149
1 150
1 151
1 152
1 153
1 154
1 155
1 156
1 157
1 158
1 159
1 160
1 161
1 162
1 163
1 164
1 165
1 166
1 167
1 168
1 169
1 170
1 171
1 172
1 173
1 174
1 175
1 176
1 177
1 178
1 179
1 180
1 181
1 182
1 183
1 184
1 185
1 186
1 187
1 188
1 189
1 190
1 191
1 192
1 193
1 194
1 195
1 196
1 197
1 198
1 199
1 200
1 201
1 202
1 203
1 204
1 205
1 206
1 207
1 208
1 209
1 210
1 211
1 212
1 213
1 214
1 215
1 216
1 217
1 218
1 219
1 220
1 221
1 222
1 223
1 224
1 225
1 226
1 227
1 228
1 229
1 230
1 231
1 232
1 233
1 234

POINT_DATA 235
SCALARS id int 1
LOOKUP_TABLE default
1
4
5
6
8
9
10
11
12
13
15
17
18
19
23
24
25
26
27
29
30
32
33
34
35
36
38
39
41
42
43
44
45
46
48
50
51
53
54
55
57
58
59
60
61
62
63
64
67
68
69
70
71
72
74
76
77
78
80
81
83
84
85
86
87
89
90
91
92
93
94
95
96
97
98
99
100
101
103
105
106
107
108
110
111
112
113
115
116
117
118
119
120
121
122
123
124
125
127
128
129
130
131
133
135
136
137
138
140
141
142
143
144
145
146
147
148
150
153
154
156
158
159
160
162
163
164
166
167
170
171
173
174
175
176
179
182
183
185
186
187
189
190
191
192
193
194
195
196
197
198
199
200
201
202
203
204
205
206
207
208
210
211
212
213
214
215
216
217
218
220
221
222
223
225
226
227
228
229
230
231
232
233
234
235
238
239
240
241
243
244
246
247
248
250
251
252
255
257
258
259
260
261
262
263
264
266
267
268
269
270
271
273
275
277
278
279
280
281
282
283
284
286
289
290
291
292
293
294
295
296
297
298
299
300

SCALARS type int 1
LOOKUP_TABLE default
1
1
1
1
1
1
1
1
1
1
1
1
1
1
1
1
1
1
1
1
1
1
1
1
1
1
1
1
1
1
1
1
1
1
1
1
1
1
1
1
1
1
1
1
1
1
1
1
1
1
1
1
1
1
1
1
1
1
1
1
1
1
1
1
1
1
1
1
1
1
1
1
1
1
1
1
1
1
1
1
1
1
1
1
1
1
1
1
1
1
1
1
1
1
1
1
1
1
1
1
1
1
1
1
1
1
1
1
1
1
1
1
1
1
1
1
1
1
1
1
1
1
1
1
1
1
1
1
1
1
1
1
1
1
1
1
1
1
1
1
1
1
1
1
1
1
1
1
1
1
1
1
1
1
1
1
1
1
1
1
1
1
1
1
1
1
1
1
1
1
1
1
1
1
1
1
1
1
1
1
1
1
1
1
1
1
1
1
1
1
1
1
1
1
1
1
1
1
1
1
1
1
1
1
1
1
1
1
1
1
1
1
1
1
1
1
1
1
1
1
1
1
1
1
1
1
1
1
1
1
1
1
1
1
1

SCALARS radius float 1
LOOKUP_TABLE default
5e-05
5e-05
5e-05
5e-05
5e-05
5e-05
5e-05
5e-05
5e-05
5e-05
5e-05
5e-05
5e-05
5e-05
5e-05
5e-05
5e-05
5e-05
5e-05
5e-05
5e-05
5e-05
5e-05
5e-05
5e-05
5e-05
5e-05
5e-05
5e-05
5e-05
5e-05
5e-05
5e-05
5e-05
5e-05
5e-05
5e-05
5e-05
5e-05
5e-05
5e-05
5e-05
5e-05
5e-05
5e-05
5e-05
5e-05
5e-05
5e-05
5e-05
5e-05
5e-05
5e-05
5e-05
5e-05
5e-05
5e-05
5e-05
5e-05
5e-05
5e-05
5e-05
5e-05
5e-05
5e-05
5e-05
5e-05
5e-05
5e-05
5e-05
5e-05
5e-05
5e-05
5e-05
5e-05
5e-05
5e-05
5e-05
5e-05
5e-05
5e-05
5e-05
5e-05
5e-05
5e-05
5e-05
5e-05
5e-05
5e-05
5e-05
5e-05
5e-05
5e-05
5e-05
5e-05
5e-05
5e-05
5e-05
5e-05
5e-05
5e-05
5e-05
5e-05
5e-05
5e-05
5e-05
5e-05
5e-05
5e-05
5e-05
5e-05
5e-05
5e-05
5e-05
5e-05
5e-05
5e-05
5e-05
5e-05
5e-05
5e-05
5e-05
5e-05
5e-05
5e-05
5e-05
5e-05
5e-05
5e-05
5e-05
5e-05
5e-05
5e-05
5e-05
5e-05
5e-05
5e-05
5e-05
5e-05
5e-05
5e-05
5e-05
5e-05
5e-05
5e-05
5e-05
5e-05
5e-05
5e-05
5e-05
5e-05
5e-05
5e-05
5e-05
5e-05
5e-05
5e-05
5e-05
5e-05
5e-05
5e-05
5e-05
5e-05
5e-05
5e-05
5e-05
5e-05
5e-05
5e-05
5e-05
5e-05
5e-05
5e-05
5e-05
5e-05
5e-05
5e-05
5e-05
5e-05
5e-05
5e-05
5e-05
5e-05
5e-05
5e-05
5e-05
5e-05
5e-05
5e-05
5e-05
5e-05
5e-05
5e-05
5e-05
5e-05
5e-05
5e-05
5e-05
5e-05
5e-05
5e-05
5e-05
5e-05
5e-05
5e-05
5e-05
5e-05
5e-05
5e-05
5e-05
5e-05
5e-05
5e-05
5e-05
5e-05
5e-05
5e-05
5e-05
5e-05
5e-05
5e-05
5e-05
5e-05
5e-05
5e-05
5e-05
5e-05
5e-05
5e-05
5e-05
5e-05
5e-05
5e-05
5e-05
5e-05

SCALARS mass float 1
LOOKUP_TABLE default
1.46608e-10
1.46608e-10
1.46608e-10
1.46608e-10
1.46608e-10
1.46608e-10
1.46608e-10
1.46608e-10
1.46608e-10
1.46608e-10
1.46608e-10
1.46608e-10
1.46608e-10
1.46608e-10
1.46608e-10
1.46608e-10
1.46608e-10
1.46608e-10
1.46608e-10
1.46608e-10
1.46608e-10
1.46608e-10
1.46608e-10
1.46608e-10
1.46608e-10
1.46608e-10
1.46608e-10
1.46608e-10
1.46608e-10
1.46608e-10
1.46608e-10
1.46608e-10
1.46608e-10
1.46608e-10
1.46608e-10
1.46608e-10
1.46608e-10
1.46608e-10
1.46608e-10
1.46608e-10
1.46608e-10
1.46608e-10
1.46608e-10
1.46608e-10
1.46608e-10
1.46608e-10
1.46608e-10
1.46608e-10
1.46608e-10
1.46608e-10
1.46608e-10
1.46608e-10
1.46608e-10
1.46608e-10
1.46608e-10
1.46608e-10
1.46608e-10
1.46608e-10
1.46608e-10
1.46608e-10
1.46608e-10
1.46608e-10
1.46608e-10
1.46608e-10
1.46608e-10
1.46608e-10
1.46608e-10
1.46608e-10
1.46608e-10
1.46608e-10
1.46608e-10
1.46608e-10
1.46608e-10
1.46608e-10
1.46608e-10
1.46608e-10
1.46608e-10
1.46608e-10
1.46608e-10
1.46608e-10
1.46608e-10
1.46608e-10
1.46608e-10
1.46608e-10
1.46608e-10
1.46608e-10
1.46608e-10
1.46608e-10
1.46608e-10
1.46608e-10
1.46608e-10
1.46608e-10
1.46608e-10
1.46608e-10
1.46608e-10
1.46608e-10
1.46608e-10
1.46608e-10
1.46608e-10
1.46608e-10
1.46608e-10
1.46608e-10
1.46608e-10
1.46608e-10
1.46608e-10
1.46608e-10
1.46608e-10
1.46608e-10
1.46608e-10
1.46608e-10
1.46608e-10
1.46608e-10
1.46608e-10
1.46608e-10
1.46608e-10
1.46608e-10
1.46608e-10
1.46608e-10
1.46608e-10
1.46608e-10
1.46608e-10
1.46608e-10
1.46608e-10
1.46608e-10
1.46608e-10
1.46608e-10
1.46608e-10
1.46608e-10
1.46608e-10
1.46608e-10
1.46608e-10
1.46608e-10
1.46608e-10
1.46608e-10
1.46608e-10
1.46608e-10
1.46608e-10
1.46608e-10
1.46608e-10
1.46608e-10
1.46608e-10
1.46608e-10
1.46608e-10
1.46608e-10
1.46608e-10
1.46608e-10
1.46608e-10
1.46608e-10
1.46608e-10
1.46608e-10
1.46608e-10
1.46608e-10
1.46608e-10
1.46608e-10
1.46608e-10
1.46608e-10
1.46608e-10
1.46608e-10
1.46608e-10
1.46608e-10
1.46608e-10
1.46608e-10
1.46608e-10
1.46608e-10
1.46608e-10
1.46608e-10
1.46608e-10
1.46608e-10
1.46608e-10
1.46608e-10
1.46608e-10
1.46608e-10
1.46608e-10
1.46608e-10
1.46608e-10
1.46608e-10
1.46608e-10
1.46608e-10
1.46608e-10
1.46608e-10
1.46608e-10
1.46608e-10
1.46608e-10
1.46608e-10
1.46608e-10
1.46608e-10
1.46608e-10
1.46608e-10
1.46608e-10
1.46608e-10
1.46608e-10
1.46608e-10
1.46608e-10
1.46608e-10
1.46608e-10
1.46608e-10
1.46608e-10
1.46608e-10
1.46608e-10
1.46608e-10
1.46608e-10
1.46608e-10
1.46608e-10
1.46608e-10
1.46608e-10
1.46608e-10
1.46608e-10
1.46608e-10
1.46608e-10
1.46608e-10
1.46608e-10
1.46608e-10
1.46608e-10
1.46608e-10
1.46608e-10
1.46608e-10
1.46608e-10
1.46608e-10
1.46608e-10
1.46608e-10
1.46608e-10
1.46608e-10
1.46608e-10
1.46608e-10
1.46608e-10
1.46608e-10
1.46608e-10
1.46608e-10
1.46608e-10
1.46608e-10
1.46608e-10
1.46608e-10
1.46608e-10
1.46608e-10
1.46608e-10

VECTORS velocity float
0.00550602 0.000107461 6.89896e-05
0.00606785 -0.000581298 0.000449727
0.00558403 0.00010327 6.41387e-05
0.00597368 -0.000590858 0.00045377
0.00558328 7.91906e-05 9.16503e-05
0.00603978 -0.000584711 0.000449714
0.00594528 0.000193732 0.000476502
0.00595742 -0.000383553 0.000139867
0.00608909 -0.000600397 0.000457927
0.00555254 9.72003e-05 7.32296e-05
0.00555752 7.83706e-05 9.05794e-05
0.00554283 8.83264e-05 8.69495e-05
0.00615891 -0.000593602 0.000454716
0.00558243 4.95888e-05 0.000193741
0.00562814 0.000255778 -3.02167e-05
0.00610692 -0.000598752 0.000451225
0.00553856 7.23047e-05 0.000105441
0.00606485 -0.000582456 0.000465528
0.00561034 0.00019503 -5.44691e-05
0.00550082 0.000106261 6.379e-05
0.00593525 -0.000565998 0.000423921
0.00615272 -6.19636e-05 0.00017237
0.00581469 -0.000549941 0.000412143
0.00564553 0.000325299 -0.00011738
0.00571288 0.000426622 -0.000249459
0.00623526 -0.000137175 -0.000101969
0.00595947 4.27895e-05 2.13318e-05
0.00618653 -0.000151946 -0.000101497
0.00555038 9.64108e-05 7.3846e-05
0.00626587 0.0004467 -0.000240788
0.00629699 -4.6875e-06 0.000322538
1.8126e-14 7.52957e-14 2.12932e-13
0.00593397 -0.000529958 0.000395555
0.00611736 -0.00060869 0.000461092
0.00554426 -0.000805516 0.000606836
0.00615771 -0.000136971 -0.000126145
0.00619832 -0.000118309 -0.000110912
0.00576906 -0.000560682 0.000418959
0.00560337 6.75204e-05 0.000109562
0.0060071 -0.000289016 0.000163756
0.00616739 -0.000217002 -0.000102497
0.00553048 8.55457e-05 8.31829e-05
0.00550018 9.99161e-05 6.72477e-05
0.00552998 9.00148e-05 6.09295e-05
0.00556866 4.58966e-05 0.000147684
0.00610024 -0.000194027 -5.53652e-05
0.00567165 -0.000128174 -1.70239e-05
0.00573141 8.68474e-05 0.000194406
0.00622082 -0.0001488 -5.72732e-05
0.00565134 -0.000292157 6.37993e-05
0.00621157 -3.67987e-06 0.000310385
0.00565478 -0.000125491 -2.59147e-05
0.00597981 -0.00036321 0.000149576
0.00615844 -0.00015826 -8.324e-05
0.00615151 -0.000114816 -0.000117291
0.00580046 -0.00012701 -2.34321e-05
0.00567066 -0.000121162 -2.71387e-06
0.00551088 -0.000236761 5.61824e-05
0.00595963 -0.000153516 1.48404e-05
0.00546239 -0.00027048 3.2091e-05
0.0059992 -0.000397942 0.000135185
0.00570357 -0.000128581 -2.27511e-05
0.00580391 -0.000356589 9.16306e-05
0.00615662 -0.000155365 -8.21489e-05
0.0056912 -0.000535958 0.000402917
0.0061104 7.0323e-05 -0.000132071
0.00574662 -0.000543769 0.000406077
-7.18576e-15 2.48109e-14 -7.81459e-14
0.00586059 4.32564e-05 0.000241993
0.00582105 -0.000114819 -3.64148e-05
0.00568984 -4.75218e-05 -5.89744e-05
0.00613916 -0.000148631 -3.08365e-05
0.0061582 -7.00501e-07 0.00032088
0.00605479 1.86401e-05 0.00032725
0.00582202 -0.000116393 -3.25724e-05
0.00613573 0.000207593 0.000324343
0.00552273 8.66646e-05 6.97305e-05
0.00473449 -0.000137364 -3.57197e-05
-0.00958679 0.0178766 -0.0102137
0.00549774 -0.000247244 5.29187e-05
0.00616575 0.000262174 0.000193855
0.00593428 -0.0003633 0.000144225
0.00557594 3.05154e-05 0.000167692
0.00570247 -0.00012413 -2.82226e-05
0.0056348 -5.16132e-05 -5.07708e-05
0.00573018 -0.000359588 5.95692e-05
0.00622168 -0.000127845 -9.37963e-05
0.00620823 -0.000145467 -9.79897e-05
0.00552015 9.15574e-05 7.59801e-05
0.00558475 5.7584e-05 0.000126817
0.00536788 -0.000289198 7.76844e-06
0.00559147 0.000106623 0.000112238
0.00505156 -1.86039e-05 5.66504e-05
0.00541953 -0.000277221 -3.56709e-05
0.00563875 -4.63603e-05 -4.474e-05
0.00548376 -7.32385e-05 0.00038996
0.00612495 -0.000165444 2.63796e-06
0.00555214 0.000120652 4.16725e-05
0.00572917 -6.70344e-05 0.000387211
0.00566954 -7.63246e-05 -5.90239e-05
0.00545036 -0.000333787 4.1176e-05
0.0055466 -0.000136926 0.000330038
0.00551464 -0.000440525 3.21779e-05
0.00562804 -0.000155917 5.8605e-05
0.00494459 -0.000126419 -1.08405e-05
0.00536441 -0.000296859 1.40009e-05
0.00570876 -8.09088e-05 5.37475e-05
0.00567626 -4.07469e-05 -6.96048e-05
0.00613232 -0.000214162 -0.000102907
0.00555302 -0.000365234 0.000109379
0.00585776 -1.23644e-05 0.000328835
0.00553916 -3.47043e-05 0.000347604
0.00554994 -0.000806271 0.000607745
-1.14277e-10 -0.0186306 0.0154001
0.00618335 -8.93781e-05 0.000447089
0.00554764 -5.48281e-05 0.000378389
0.00581621 -2.15241e-05 0.00034761
0.00567338 -9.82077e-05 0.000323012
0.00564382 -0.000249775 0.000168619
0.00608283 -1.00453e-05 0.000364251
0.00553563 -4.97039e-05 0.000360432
0.00594504 1.24356e-06 0.00034224
0.00536171 -0.000382123 0.000129991
0.00565984 -2.87564e-05 0.000345524
0.00609194 5.23894e-06 0.000361136
0.00568585 -0.00034698 7.44222e-05
0.00583875 -8.16745e-05 5.71403e-05
0.00626564 1.07441e-05 0.000326234
0.00551149 -0.00027097 -7.21029e-05
0.0061085 -3.81961e-05 0.000426462
0.00620634 -0.000172207 -7.69271e-05
0.00570174 0.000113663 0.000167383
0.00614914 5.64619e-05 0.00029687
0.00612785 -6.02515e-05 0.000428981
0.00606315 9.7376e-06 0.000360447
0.00599632 -5.25798e-05 0.000393234
0.00605322 -0.000153737 8.43308e-05
0.005453 -0.000298235 2.6386e-06
0.00568125 -0.00037653 1.54619e-06
-1.45018e-16 2.48917e-14 -2.37494e-13
0.00619553 -0.000101821 0.000202608
0.00632477 2.09921e-05 0.000348958
0.00605959 -0.000415668 0.000433157
0.00555003 -0.000354944 -0.000138276
0.00588584 -0.000355163 4.95134e-05
0.00607652 -0.000213554 -5.75769e-05
0.00558977 -5.83014e-05 0.000353928
0.00540376 -0.000255343 4.97877e-05
0.00599716 -9.66922e-05 0.000202656
0.00564805 -0.000320374 0.000102878
0.00616099 -8.24893e-05 0.000425974
0.00571393 -0.00042593 -0.000110403
0.00611162 -3.14716e-05 0.000391829
0.00561857 -0.00032911 -0.000148218
0.00567811 -0.000322285 0.000121873
0.00567817 -8.02789e-05 4.52129e-06
0.00622409 -0.000345136 0.000131626
0.00605006 -0.000414747 0.000433486
0.00512746 -0.000228535 -2.24086e-05
0.00538569 -0.000303697 2.66691e-05
0.0056212 -0.000392114 -0.000129655
0.00553002 0.000124131 3.60909e-05
0.00568949 -0.000372174 -0.000141296
0.00565476 -0.000303398 0.000149844
0.00622928 -0.000162004 -8.33461e-05
0.00556228 -0.000373632 -0.000130061
-2.3945e-14 -9.32264e-14 -1.94032e-13
0.00567415 -0.00041368 -0.000137671
0.00581744 -2.69142e-05 0.000361314
0.0054612 -0.000326925 -0.000135474
-0.0912855 0.0442468 -0.000645716
0.00607187 -0.0005049 0.000320961
0.00531719 -0.000594482 0.000196338
-1.34579e-14 -2.13206e-15 2.19343e-13
0.00548917 -0.000352305 -0.00013647
0.00571502 -0.00041334 -4.91004e-05
0.00606502 0.000180095 0.000271098
0.00550443 -0.000798998 0.000602685
0.00592615 -0.000371478 0.000127819
0.00561997 -0.000355564 -0.00014278
0.0061368 -0.000138495 0.000321463
0.0060932 0.000222249 0.000268803
0.00549356 -7.05446e-05 0.000378538
0.00622221 -0.000207056 -6.05013e-05
0.00567347 -0.000252641 -0.000171221
0.00620099 -2.47995e-05 0.000364034
0.00606619 -0.00050282 0.000320834
0.00608162 -0.000509076 0.00032394
0.00609931 -0.000508251 0.000323259
0.00610802 -0.000507352 0.00032261
0.00607686 -0.000506658 0.000322248
0.00609237 -0.000510392 0.000324816
0.00618761 -0.00019125 0.000557653
0.0059414 -2.45593e-05 0.000378971
0.00679888 0.00116951 -0.000750849
0.0055129 -0.000327792 -0.000145267
4.85881e-21 -2.91472e-21 1.37807e-22
0.00534794 -0.000284819 -1.89559e-05
0.0055569 -0.000349721 -0.000139139
0.00572357 -0.000415254 -0.000104021
0.00628189 -4.1698e-05 -0.000141411
0.00624983 -0.000151033 -9.17857e-05
0.005512 -0.000369757 -0.000132354
0.00551929 -0.000323112 -0.000145167
0.0056079 -0.000423696 0.00026669
0.00553308 -0.000344858 -0.000138075
0.0055158 -7.81493e-05 0.000393235
0.00555228 -0.000407444 -0.000123699
0.00602484 7.74526e-05 0.000263549
0.0055436 -0.000350427 -0.000122751
0.00550243 -0.000331659 -0.000142629
0.00561048 -7.98159e-05 0.000400022
0.00553377 -0.000439949 -0.000113741
0.00548473 -0.000355401 -0.000133858
0.00549156 -0.000357473 -0.000136476
0.00539335 -0.000433147 -5.36069e-05
0.00570457 -0.000414159 0.000259642
0.00552889 -0.000436902 0.00027356
0.00615157 0.000188748 0.000365623
0.00572804 -0.000189124 9.94203e-05
0.00610294 -0.000517214 0.000329371
0.00550563 -0.000285559 -0.000156421
0.00549151 -0.000345535 -0.000140624
0.00613444 -0.000437005 0.000272709
0.00579321 -0.000349492 7.63256e-06
0.00555187 -0.000361707 -0.000132211
0.00560772 -0.00026487 -0.000104763
0.00592066 -0.000198908 0.000475572
0.00545759 -0.000399434 -0.000121346
0.00612037 0.000223326 0.000283704
0.00556718 -0.000440078 -0.0001147
0.00613432 -0.000108525 0.000460614
0.00564805 -0.000417791 0.00026174
0.00608656 -0.000510679 0.000325073
0.00625048 -0.000141416 -1.97632e-06

VECTORS force float
-1.96017e-10 1.84801e-10 -3.63663e-10
-1.61536e-11 -1.71037e-11 1.19987e-11
-2.85194e-10 6.13259e-11 -9.41171e-11
-1.48233e-10 -3.2385e-10 4.78532e-10
3.03071e-11 3.21711e-10 -4.1817e-10
-8.59983e-14 1.20396e-11 -5.79435e-12
8.69848e-13 6.81254e-13 -6.02141e-13
-2.45388e-10 2.56683e-10 -6.19918e-10
3.3714e-12 -2.44042e-10 8.03961e-11
-2.62036e-11 3.56884e-11 -3.02352e-11
7.76175e-12 -1.00251e-09 1.41972e-09
1.23865e-10 4.38232e-10 -4.95852e-10
-4.4968e-10 4.70055e-10 -2.38706e-10
-4.34792e-11 -4.74759e-10 -3.40047e-11
6.94251e-11 1.6728e-10 -1.99855e-10
-3.93225e-10 4.7742e-10 -4.93878e-10
-2.5745e-10 -5.84628e-10 6.5541e-10
2.58526e-11 -1.16347e-10 1.81072e-10
6.09511e-11 2.02718e-10 -2.68534e-10
-2.02024e-10 -2.26483e-10 7.68666e-11
4.42354e-10 2.85589e-10 -3.02876e-10
-1.06337e-10 1.19167e-10 -2.16489e-10
-7.3135e-10 -5.61736e-10 5.38404e-10
3.75979e-11 1.84149e-10 -2.54722e-10
-6.54646e-10 6.61357e-10 -8.61928e-10
-9.88389e-12 4.10104e-10 -1.2828e-10
9.14279e-10 -1.52508e-09 5.33129e-10
6.56228e-11 3.06966e-10 -2.72714e-10
1.26479e-10 2.78276e-10 -2.52041e-10
-1.47327e-10 2.23842e-10 -6.09137e-10
1.29168e-10 -2.23955e-10 1.40021e-10
1.09395e-22 -1.49409e-23 -5.16988e-24
-4.10764e-11 5.30559e-10 -5.47383e-10
1.47408e-10 1.69011e-10 -7.60931e-11
-6.32858e-12 5.68708e-12 3.45858e-12
-4.21361e-11 5.14101e-10 -1.91431e-10
2.30155e-10 1.59557e-10 -8.62755e-11
4.9491e-10 -3.80798e-10 3.82283e-10
7.81564e-11 2.20017e-10 -2.38684e-10
-2.2962e-11 1.00267e-10 -1.73678e-10
6.07625e-11 6.7595e-12 -2.25809e-10
1.65576e-10 4.26977e-10 -5.12804e-10
1.50676e-10 1.74031e-10 -1.84261e-10
2.19815e-10 2.42029e-10 -1.96664e-10
-2.1297e-10 -5.25541e-12 8.00846e-11
3.60086e-10 1.68164e-10 3.77613e-10
4.62069e-10 1.55262e-10 4.10811e-11
-1.69178e-10 -2.92791e-10 4.12845e-10
-3.99597e-10 1.68548e-10 1.53726e-11
-3.93577e-10 -5.53054e-12 9.74067e-11
-2.32684e-11 -3.3086e-11 -1.40695e-10
4.88682e-10 -3.97169e-12 -2.28955e-11
2.20948e-10 1.76761e-10 -3.09928e-10
2.04194e-10 -1.89962e-10 7.27525e-11
4.18115e-10 7.11046e-11 -7.08529e-11
-4.69379e-10 6.3416e-13 1.74758e-11
-6.64624e-11 1.63611e-11 2.88833e-10
-1.21235e-11 -1.92052e-10 2.99055e-10
-1.03137e-10 -2.2335e-10 2.56568e-10
-6.87146e-10 1.49552e-10 2.9539e-10
-1.02316e-10 2.83587e-10 -4.26245e-10
5.14257e-10 -3.7418e-10 2.37088e-10
1.64339e-10 9.61032e-11 -1.64266e-10
1.81021e-10 1.67321e-10 -2.30968e-10
-6.65991e-11 1.02375e-10 -1.61735e-10
-8.39118e-11 -8.28816e-11 8.70033e-11
1.81236e-10 1.83396e-10 -1.05457e-10
2.59864e-22 6.0591e-23 -7.23783e-24
-2.45516e-10 -1.80567e-10 2.31953e-10
-2.26317e-11 -1.24881e-12 -9.44603e-11
6.33693e-11 1.08472e-10 3.62036e-11
-2.11302e-10 -7.88418e-11 -1.12125e-10
3.27061e-10 -2.6755e-11 3.1641e-10
-6.46321e-10 6.07065e-10 -6.58239e-10
1.43166e-11 -3.34683e-11 1.38369e-11
-1.02629e-10 -2.06301e-10 4.51717e-10
1.41112e-10 3.19494e-10 -3.38713e-10
-3.76507e-10 4.35632e-10 6.42366e-10
1.79008e-10 -1.97626e-10 3.47213e-11
-2.19387e-10 -1.55008e-10 4.33958e-10
-3.69885e-11 1.3276e-10 5.45532e-10
5.65508e-11 1.50111e-10 -5.30819e-10
-2.07102e-10 -1.98019e-10 1.21254e-10
-3.85481e-10 -1.83936e-11 3.92695e-11
-6.66363e-10 -3.94796e-10 -6.86102e-11
-4.35092e-11 8.63833e-11 -3.18093e-11
3.42911e-11 4.14695e-10 -1.21738e-10
1.15185e-10 3.80308e-10 -3.66156e-10
-2.91969e-10 3.26475e-10 -4.38966e-10
-2.57414e-10 1.28491e-10 -7.34087e-11
-1.49263e-10 5.34978e-11 3.10854e-10
2.88765e-10 -5.02397e-10 5.50856e-10
-5.41608e-11 -6.94801e-11 2.93064e-10
-3.03652e-10 -8.12307e-11 3.90821e-10
8.2053e-10 -8.14657e-10 5.27024e-10
-1.27571e-10 -2.92887e-10 2.1502e-10
-1.13808e-10 -1.99237e-10 -6.34467e-11
1.90531e-11 6.10685e-11 -6.66482e-11
5.79513e-10 2.96549e-10 -2.78613e-10
-5.17832e-11 3.31662e-10 -1.7828e-10
-2.60604e-11 1.46403e-10 -2.41222e-10
1.60502e-10 6.78501e-10 -4.44613e-10
2.16436e-10 5.71068e-10 -4.99554e-10
4.86356e-10 -5.55023e-11 -1.3088e-10
5.24309e-10 -1.04852e-10 5.88636e-10
-8.80821e-11 -5.51681e-11 1.27046e-10
-1.41694e-09 3.04538e-10 -5.08982e-10
1.31532e-10 2.9468e-10 -8.72319e-11
-2.96227e-10 -4.97194e-10 2.58339e-10
1.25946e-10 5.7923e-10 -7.88764e-10
-3.90351e-10 -1.87948e-10 2.36589e-10
3.90572e-10 2.06458e-10 -2.68234e-10
2.89043e-12 -3.62913e-12 -5.84642e-12
-2.37831e-19 1.39436e-11 1.69016e-11
9.44629e-10 -6.47388e-10 7.09299e-10
2.17017e-10 6.7668e-10 -4.50978e-10
-3.85937e-10 -2.07224e-10 1.74144e-10
-9.64754e-10 8.79811e-11 3.45084e-10
-7.91323e-10 1.72371e-10 5.90515e-10
5.16477e-10 -8.19961e-11 1.85294e-10
8.9392e-11 4.43805e-10 -4.31166e-10
-7.17539e-10 -1.58421e-10 -3.81561e-11
-6.98874e-10 -1.91755e-10 -2.59917e-10
-1.70263e-10 -2.65209e-10 -6.05212e-11
2.0533e-10 -3.98015e-10 7.58565e-11
1.67112e-10 -2.16682e-10 4.83413e-11
2.18216e-10 1.4003e-09 -2.55213e-10
7.9174e-10 -3.24431e-10 4.13983e-10
-6.62133e-10 2.07779e-11 1.68265e-10
1.79857e-09 -9.51664e-12 1.4743e-10
2.04115e-10 -4.3944e-10 1.8331e-10
1.15283e-11 -3.40383e-10 6.19185e-10
3.8845e-10 -1.71977e-10 1.89036e-10
2.30093e-09 -6.69499e-10 7.67397e-10
-3.84622e-10 -3.14236e-10 1.77541e-10
3.7934e-10 1.74308e-10 -1.06411e-10
-2.80388e-10 -1.10249e-10 7.50213e-10
-9.7176e-10 -2.00528e-10 7.20775e-10
4.66177e-10 -8.59415e-11 -5.77366e-11
3.11646e-22 3.87741e-25 -2.06795e-25
2.40451e-10 -5.16488e-10 3.00905e-10
7.57518e-10 -2.89734e-10 1.94953e-11
-1.38387e-11 -2.58291e-11 2.4276e-11
2.98702e-11 4.26569e-10 -1.07117e-10
-5.72719e-10 2.13474e-10 1.13356e-10
-3.44588e-10 2.34158e-10 -1.43587e-10
-3.95447e-10 -2.1795e-12 1.64927e-10
-3.86355e-10 -9.59403e-11 -4.82896e-11
4.88654e-11 1.96295e-10 1.43316e-11
-1.84018e-10 -7.23424e-10 1.18525e-10
-5.15471e-10 -8.68921e-10 1.31728e-09
2.26699e-10 2.54531e-10 -3.15521e-11
1.82662e-10 7.62252e-11 6.35802e-11
-8.10625e-11 7.88255e-10 -1.78137e-10
-1.24638e-10 -3.14925e-10 2.71484e-10
-6.08531e-11 -1.20003e-10 1.89053e-10
-4.84201e-10 2.48122e-10 9.75992e-10
-9.3996e-12 -1.68175e-11 1.18549e-11
-9.1461e-10 3.02665e-11 5.47467e-10
2.53535e-10 -4.2894e-11 5.91491e-10
3.97464e-11 -1.26287e-10 -4.196e-11
1.44126e-10 2.18815e-10 -2.77084e-10
2.16017e-10 -3.37243e-10 4.25146e-11
-1.29908e-10 -6.39153e-10 1.11221e-10
-2.00785e-10 1.09573e-11 -1.61161e-11
7.15458e-12 4.24937e-12 7.05347e-11
-6.82424e-24 3.41212e-23 -9.92617e-24
4.38214e-10 -9.82934e-12 -2.45865e-10
2.8523e-10 3.49927e-10 -3.62718e-10
-2.86826e-11 -7.6708e-11 -5.41132e-12
0.0 0.0 -1.43822e-09
-8.32062e-12 -4.40784e-12 7.75045e-12
6.17457e-11 3.01632e-12 4.10675e-11
6.94961e-23 -5.1746e-22 -2.06795e-25
-1.98282e-11 -1.34459e-11 2.77747e-11
2.1076e-10 1.74834e-10 -3.39513e-11
9.14789e-12 -1.22912e-10 -7.24053e-11
7.33096e-13 -4.67982e-13 5.45523e-13
5.42532e-11 1.81011e-10 -2.19784e-10
1.661e-10 -4.01128e-10 1.05698e-10
-1.71051e-09 3.13431e-10 1.26859e-09
-6.63472e-11 -8.86868e-11 2.57891e-10
-7.94651e-10 -5.38496e-10 3.03998e-10
1.75672e-10 -8.10579e-10 -1.61057e-10
4.24475e-10 1.0882e-10 -7.33591e-11
-1.34714e-10 2.73311e-10 -2.48189e-10
2.28375e-11 1.03858e-11 -1.50028e-11
-7.77244e-12 -2.20953e-12 3.07586e-12
2.32293e-11 2.29296e-11 -1.74788e-11
3.84435e-11 -4.32265e-11 3.43817e-11
3.48483e-12 -6.95177e-12 2.90446e-12
2.29834e-12 2.03057e-11 -1.29444e-11
4.99471e-10 5.07721e-10 -3.15948e-10