# vtk DataFile Version 3.0
LIGGGHTS particles timestep 2000000
ASCII
DATASET POLYDATA
POINTS 241 float
0.0243777 0.015873 0.00814907
0.0305164 0.0167593 0.00740477
0.0243199 0.0156421 0.00832232
0.0304042 0.0163331 0.0078119
0.0241993 0.0155616 0.00843553
0.0305357 0.0168539 0.00737869
0.0363661 0.0161486 0.00786235
0.0185426 0.0169334 0.00745147
0.0304977 0.0166865 0.0074708
0.0243411 0.0160796 0.00799305
0.0243804 0.0162368 0.00787595
0.0243206 0.016001 0.00805137
0.0304607 0.0165451 0.0076073
0.0240964 0.0152983 0.00884784
0.0244393 0.0164756 0.00770411
0.0304422 0.0164744 0.00767555
0.0243605 0.0161577 0.00793374
0.0304232 0.0164038 0.00774374
0.0244001 0.0163162 0.00781835
0.024401 0.0159542 0.00808824
0.0303851 0.0162625 0.00788006
0.0245933 0.0171303 0.00728431
0.0303461 0.0161213 0.00801623
0.0244198 0.0163957 0.00776101
0.0244587 0.0165556 0.00764741
0.0246861 0.0171547 0.00725611
0.0244973 0.0167236 0.00754719
0.0247153 0.017702 0.00717151
0.0243404 0.0157204 0.00826359
0.0244776 0.0166357 0.00759066
0.024554 0.0169523 0.00736641
0.00738367 0.018342 0.00543103
0.0303661 0.0161918 0.00794823
0.0304792 0.0166158 0.00753905
0.0214748 0.0168568 0.00742602
0.0248321 0.017827 0.0071523
0.0247525 0.0174505 0.00721045
0.030326 0.0160508 0.00808422
0.024181 0.0155086 0.00851831
0.0185033 0.0167593 0.00754174
0.0245169 0.0168098 0.00750039
0.0243001 0.0159226 0.00811006
0.0242386 0.0156888 0.00828764
0.0242591 0.0157661 0.00822749
0.0241399 0.0154041 0.00868377
0.0246129 0.0172227 0.00725139
0.024861 0.0183522 0.00707027
0.0244755 0.0162628 0.00785668
0.0246616 0.0174141 0.00723073
0.0186617 0.0174622 0.00719437
0.0245737 0.0170401 0.00732269
0.0248827 0.0184483 0.00705322
0.0185819 0.017109 0.00736434
0.0248767 0.0179783 0.007129
0.0247885 0.0176346 0.00718199
0.0249261 0.0186395 0.00701354
0.0248393 0.0182558 0.00708566
0.0186825 0.0175503 0.00715194
0.0248192 0.0181666 0.00712608
0.0187242 0.0177266 0.00706707
0.0185229 0.0168463 0.00749661
0.0249347 0.0182852 0.00707921
0.0186212 0.0172857 0.00727932
0.0247363 0.0177986 0.00715624
0.0302857 0.0159097 0.00822019
0.0248367 0.0180688 0.00711473
0.0303058 0.0159803 0.0081522
0.0157927 0.0215765 0.00607411
0.0244952 0.0163417 0.0077984
0.0249487 0.0187365 0.00700527
0.0250434 0.0187638 0.00698678
0.0247595 0.0178957 0.0071515
0.0245147 0.0164218 0.00774171
0.0189804 0.0184365 0.00692956
0.0250216 0.018668 0.00700528
0.0183519 0.0161137 0.00793232
0.0242803 0.0158444 0.00816909
0.0240529 0.0151898 0.0090101
0.0766649 0.0166112 0.00845124
0.0187034 0.0176384 0.00710951
0.024538 0.0168745 0.00742717
0.0185622 0.0170207 0.00740684
0.0241183 0.0153513 0.00876593
0.0249046 0.018544 0.00703412
0.0249901 0.0189262 0.00695822
0.0186413 0.017374 0.00723684
0.024672 0.017509 0.00720094
0.0246928 0.0176057 0.00718602
0.0242199 0.0156176 0.0083553
0.0241613 0.0154562 0.00860116
0.0187455 0.0178184 0.00703376
0.0244358 0.016106 0.00797431
0.0240746 0.0152444 0.00892917
0.0186778 0.017138 0.00734761
0.0250092 0.0190226 0.0069397
0.0188404 0.0177866 0.007035
0.0247798 0.0179936 0.00714798
0.0243018 0.0155831 0.0084011
0.018928 0.0182324 0.00696113
0.0249693 0.0188301 0.00697673
0.0187889 0.018009 0.00699281
0.0188541 0.0182984 0.00694776
0.0188106 0.0181055 0.00697779
0.0240094 0.0150806 0.00917195
0.0240312 0.0151352 0.00909102
0.0187672 0.0179127 0.00700859
0.025028 0.019119 0.00692117
0.0250644 0.0188599 0.00696826
0.0246327 0.0173184 0.00723038
0.0188324 0.0182019 0.00696278
0.0189758 0.0188791 0.00685885
0.0189181 0.018588 0.00690262
0.0214944 0.0169383 0.00737153
0.017794 0.0168532 0.00827891
0.018847 0.0174134 0.00721177
0.0188758 0.0183948 0.00693274
0.0189563 0.0187819 0.00687223
0.0187616 0.0174615 0.00719163
0.0187413 0.0173733 0.00723409
0.0190557 0.0192695 0.00685985
0.0188975 0.0184913 0.00691772
0.0189952 0.0189763 0.00684558
0.0188816 0.0176238 0.00711095
0.0189375 0.0186849 0.00688745
0.0190358 0.0191718 0.00685198
0.0195125 0.0209283 0.00744746
0.0250469 0.0192154 0.00690264
0.0245533 0.0165819 0.00762827
0.0186582 0.0170497 0.00739013
0.0190954 0.0194649 0.00687559
0.0246243 0.016819 0.00746026
0.0244557 0.0161844 0.00791551
0.0190516 0.018815 0.00687014
0.0191143 0.0195628 0.00688354
0.0190154 0.0190742 0.00684441
0.019032 0.0187179 0.00688533
0.0239877 0.015026 0.00925288
0.0192718 0.0202919 0.00717577
0.0194555 0.0210857 0.00750672
0.226587 0.0186791 0.00533789
0.0245725 0.016662 0.00757156
0.0245342 0.0165018 0.00768501
0.0141951 0.0210397 0.00735069
0.0208166 0.020549 0.00727338
0.0191934 0.0199285 0.0070246
0.0246686 0.0166913 0.00755028
0.0187809 0.0175805 0.00713457
0.0192128 0.020019 0.00706226
0.0184837 0.0166722 0.00758688
0.0193296 0.0205488 0.00728276
0.0191344 0.0196552 0.00691601
0.0195608 0.021189 0.00755314
0.0190753 0.0193672 0.00686773
0.0204083 0.0207505 0.00736177
0.0194318 0.0209849 0.0074647
0.0239693 0.0150147 0.0093505
0.0191739 0.0198379 0.00698693
0.01349 0.0211769 0.00741568
0.0192323 0.0201096 0.00709992
0.0187212 0.017285 0.00727657
0.0196683 0.0211731 0.00754438
0.0242813 0.0155303 0.00848352
0.0209755 0.0202656 0.0071589
0.0194107 0.0208947 0.00742707
0.0246319 0.0169004 0.00740268
0.0202773 0.0206791 0.00733699
0.0159913 0.0152807 0.00678236
0.0197436 0.0210387 0.0074901
0.0196363 0.0177645 0.00706232
0.0210506 0.0206817 0.00731969
0.183101 0.0165532 0.00851008
0.0146016 0.0211012 0.0073394
0.0188483 0.0175055 0.00716808
0.0254028 0.0195569 0.00545165
0.0216236 0.0204632 0.00722077
0.0196034 0.0208886 0.00743479
0.0184115 0.0163501 0.00775387
0.0219181 0.0189053 0.00694239
0.0186015 0.0171974 0.00732183
0.0206466 0.0204666 0.00724521
0.0191544 0.0197473 0.00694927
0.0183916 0.0162637 0.00780007
0.018818 0.0176943 0.00707949
0.0245903 0.0167423 0.00751469
0.0213991 0.0201608 0.00710795
0.0190782 0.0189211 0.0068537
0.0146017 0.0210015 0.00732085
0.0151175 0.0208991 0.00727294
0.0156498 0.0232778 0.0107296
0.0148533 0.0232545 0.0139214
0.0148941 0.0208924 0.00728419
0.0153 0.0209061 0.00726403
0.0204968 0.0142512 0.0116813
0.0202478 0.0145172 0.0110357
0.0201027 0.0160424 0.00803013
0.0210936 0.0233119 0.00997528
0.0144665 0.0230863 0.0141636
0.0187523 0.0171988 0.00731651
0.0203401 0.0208206 0.00739076
0.0212044 0.0194361 0.00683206
0.0167054 0.0214529 0.00767296
0.0246506 0.0169805 0.0073459
0.0224092 0.0221402 0.00863703
0.0207166 0.020535 0.00727029
0.0175362 0.0238434 0.0115468
0.0206747 0.0206702 0.00732407
0.018939 0.0175423 0.00714782
0.0233591 0.0232149 0.0116084
0.018431 0.0164372 0.00770873
0.0205329 0.0221029 0.00830349
0.0214602 0.020303 0.00716202
0.0196977 0.0142718 0.0119665
0.0206924 0.0209128 0.0159558
0.023283 0.0202585 0.0153091
0.0194107 0.0181133 0.0162724
0.0220039 0.0206114 0.0154199
0.0204303 0.0182363 0.0163767
0.0225822 0.0219606 0.00852209
0.0203945 0.0142528 0.0116786
0.0169774 0.0196144 0.015454
0.0166497 0.0221975 0.0139683
0.01813 0.0149417 0.0105267
0.017463 0.0215808 0.0148547
0.0162969 0.0212862 0.0148103
0.0224846 0.0234988 0.0104605
0.0210821 0.0199897 0.0162445
0.0213363 0.0213113 0.00770041
0.021257 0.0164591 0.0155505
0.021249 0.0198888 0.0162651
0.0154277 0.0159929 0.0152301
0.0197654 0.0150808 0.0102502
0.0203275 0.021045 0.00747871
0.0184846 0.016229 0.00781233
0.0205998 0.0142482 0.0116863
0.0231814 0.0233701 0.0107683
0.0183717 0.0161837 0.00785672
0.0212318 0.0213008 0.0157827
0.0207597 0.0142496 0.0116988
0.0172009 0.021335 0.0147782
0.0151368 0.021009 0.00729231
0.023949 0.0149286 0.00939726

VERTICES 241 482
1 0
1 1
1 2
1 3
1 4
1 5
1 6
1 7
1 8
1 9
1 10
1 11
1 12
1 13
1 14
1 15
1 16
1 17
1 18
1 19
1 20
1 21
1 22
1 23
1 24
1 25
1 26
1 27
1 28
1 29
1 30
1 31
1 32
1 33
1 34
1 35
1 36
1 37
1 38
1 39
1 40
1 41
1 42
1 43
1 44
1 45
1 46
1 47
1 48
1 49
1 50
1 51
1 52
1 53
1 54
1 55
1 56
1 57
1 58
1 59
1 60
1 61
1 62
1 63
1 64
1 65
1 66
1 67
1 68
1 69
1 70
1 71
1 72
1 73
1 74
1 75
1 76
1 77
1 78
1 79
1 80
1 81
1 82
1 83
1 84
1 85
1 86
1 87
1 88
1 89
1 90
1 91
1 92
1 93
1 94
1 95
1 96
1 97
1 98
1 99
1 100
1 101
1 102
1 103
1 104
1 105
1 106
1 107
1 108
1 109
1 110
1 111
1 112
1 113
1 114
1 115
1 116
1 117
1 118
1 119
1 120
1 121
1 122
1 123
1 124
1 125
1 126
1 127
1 128
1 129
1 130
1 131
1 132
1 133
1 134
1 135
1 136
1 137
1 138
1 139
1 140
1 141
1 142
1 143
1 144
1 145
1 146
1 147
1 148
1 149
1 150
1 151
1 152
1 153
1 154
1 155
1 156
1 157
1 158
1 159
1 160
1 161
1 162
1 163
1 164
1 165
1 166
1 167
1 168
1 169
1 170
1 171
1 172
1 173
1 174
1 175
1 176
1 177
1 178
1 179
1 180
1 181
1 182
1 183
1 184
1 185
1 186
1 187
1 188
1 189
1 190
1 191
1 192
1 193
1 194
1 195
1 196
1 197
1 198
1 199
1 200
1 201
1 202
1 203
1 204
1 205
1 206
1 207
1 208
1 209
1 210
1 211
1 212
1 213
1 214
1 215
1 216
1 217
1 218
1 219
1 220
1 221
1 222
1 223
1 224
1 225
1 226
1 227
1 228
1 229
1 230
1 231
1 232
1 233
1 234
1 235
1 236
1 237
1 238
1 239
1 240

POINT_DATA 241
SCALARS id int 1
LOOKUP_TABLE default
1
4
5
6
8
9
10
11
12
13
15
17
18
19
23
24
25
26
27
29
30
32
33
34
35
36
38
39
41
42
43
44
45
46
48
50
51
53
54
55
57
58
59
60
61
62
63
64
67
68
69
70
71
72
74
76
77
78
80
81
83
84
85
86
87
89
90
91
92
93
94
95
96
97
98
99
100
101
103
105
106
107
108
110
111
112
113
115
116
117
118
119
120
121
122
123
124
125
127
128
129
130
131
133
135
136
137
138
140
141
142
143
144
145
146
147
148
150
153
154
156
158
159
160
162
163
164
166
167
170
171
173
174
175
176
179
182
183
185
186
187
189
190
191
192
193
194
195
196
197
198
199
200
201
202
203
204
205
206
207
208
210
211
212
213
214
215
216
217
218
220
221
222
223
225
226
227
228
229
230
231
232
233
234
235
238
239
240
241
243
244
246
247
248
250
251
252
255
257
258
259
260
261
262
263
264
266
267
268
269
270
271
272
273
274
275
276
277
278
279
280
281
282
283
284
285
286
287
288
289
290
291
292
293
294
295
296
297
298
299
300

SCALARS type int 1
LOOKUP_TABLE default
1
1
1
1
1
1
1
1
1
1
1
1
1
1
1
1
1
1
1
1
1
1
1
1
1
1
1
1
1
1
1
1
1
1
1
1
1
1
1
1
1
1
1
1
1
1
1
1
1
1
1
1
1
1
1
1
1
1
1
1
1
1
1
1
1
1
1
1
1
1
1
1
1
1
1
1
1
1
1
1
1
1
1
1
1
1
1
1
1
1
1
1
1
1
1
1
1
1
1
1
1
1
1
1
1
1
1
1
1
1
1
1
1
1
1
1
1
1
1
1
1
1
1
1
1
1
1
1
1
1
1
1
1
1
1
1
1
1
1
1
1
1
1
1
1
1
1
1
1
1
1
1
1
1
1
1
1
1
1
1
1
1
1
1
1
1
1
1
1
1
1
1
1
1
1
1
1
1
1
1
1
1
1
1
1
1
1
1
1
1
1
1
1
1
1
1
1
1
1
1
1
1
1
1
1
1
1
1
1
1
1
1
1
1
1
1
1
1
1
1
1
1
1
1
1
1
1
1
1
1
1
1
1
1
1
1
1
1
1
1
1

SCALARS radius float 1
LOOKUP_TABLE default
5e-05
5e-05
5e-05
5e-05
5e-05
5e-05
5e-05
5e-05
5e-05
5e-05
5e-05
5e-05
5e-05
5e-05
5e-05
5e-05
5e-05
5e-05
5e-05
5e-05
5e-05
5e-05
5e-05
5e-05
5e-05
5e-05
5e-05
5e-05
5e-05
5e-05
5e-05
5e-05
5e-05
5e-05
5e-05
5e-05
5e-05
5e-05
5e-05
5e-05
5e-05
5e-05
5e-05
5e-05
5e-05
5e-05
5e-05
5e-05
5e-05
5e-05
5e-05
5e-05
5e-05
5e-05
5e-05
5e-05
5e-05
5e-05
5e-05
5e-05
5e-05
5e-05
5e-05
5e-05
5e-05
5e-05
5e-05
5e-05
5e-05
5e-05
5e-05
5e-05
5e-05
5e-05
5e-05
5e-05
5e-05
5e-05
5e-05
5e-05
5e-05
5e-05
5e-05
5e-05
5e-05
5e-05
5e-05
5e-05
5e-05
5e-05
5e-05
5e-05
5e-05
5e-05
5e-05
5e-05
5e-05
5e-05
5e-05
5e-05
5e-05
5e-05
5e-05
5e-05
5e-05
5e-05
5e-05
5e-05
5e-05
5e-05
5e-05
5e-05
5e-05
5e-05
5e-05
5e-05
5e-05
5e-05
5e-05
5e-05
5e-05
5e-05
5e-05
5e-05
5e-05
5e-05
5e-05
5e-05
5e-05
5e-05
5e-05
5e-05
5e-05
5e-05
5e-05
5e-05
5e-05
5e-05
5e-05
5e-05
5e-05
5e-05
5e-05
5e-05
5e-05
5e-05
5e-05
5e-05
5e-05
5e-05
5e-05
5e-05
5e-05
5e-05
5e-05
5e-05
5e-05
5e-05
5e-05
5e-05
5e-05
5e-05
5e-05
5e-05
5e-05
5e-05
5e-05
5e-05
5e-05
5e-05
5e-05
5e-05
5e-05
5e-05
5e-05
5e-05
5e-05
5e-05
5e-05
5e-05
5e-05
5e-05
5e-05
5e-05
5e-05
5e-05
5e-05
5e-05
5e-05
5e-05
5e-05
5e-05
5e-05
5e-05
5e-05
5e-05
5e-05
5e-05
5e-05
5e-05
5e-05
5e-05
5e-05
5e-05
5e-05
5e-05
5e-05
5e-05
5e-05
5e-05
5e-05
5e-05
5e-05
5e-05
5e-05
5e-05
5e-05
5e-05
5e-05
5e-05
5e-05
5e-05
5e-05
5e-05
5e-05
5e-05
5e-05
5e-05
5e-05
5e-05
5e-05
5e-05
5e-05
5e-05
5e-05
5e-05
5e-05
5e-05
5e-05
5e-05
5e-05

SCALARS mass float 1
LOOKUP_TABLE default
1.46608e-10
1.46608e-10
1.46608e-10
1.46608e-10
1.46608e-10
1.46608e-10
1.46608e-10
1.46608e-10
1.46608e-10
1.46608e-10
1.46608e-10
1.46608e-10
1.46608e-10
1.46608e-10
1.46608e-10
1.46608e-10
1.46608e-10
1.46608e-10
1.46608e-10
1.46608e-10
1.46608e-10
1.46608e-10
1.46608e-10
1.46608e-10
1.46608e-10
1.46608e-10
1.46608e-10
1.46608e-10
1.46608e-10
1.46608e-10
1.46608e-10
1.46608e-10
1.46608e-10
1.46608e-10
1.46608e-10
1.46608e-10
1.46608e-10
1.46608e-10
1.46608e-10
1.46608e-10
1.46608e-10
1.46608e-10
1.46608e-10
1.46608e-10
1.46608e-10
1.46608e-10
1.46608e-10
1.46608e-10
1.46608e-10
1.46608e-10
1.46608e-10
1.46608e-10
1.46608e-10
1.46608e-10
1.46608e-10
1.46608e-10
1.46608e-10
1.46608e-10
1.46608e-10
1.46608e-10
1.46608e-10
1.46608e-10
1.46608e-10
1.46608e-10
1.46608e-10
1.46608e-10
1.46608e-10
1.46608e-10
1.46608e-10
1.46608e-10
1.46608e-10
1.46608e-10
1.46608e-10
1.46608e-10
1.46608e-10
1.46608e-10
1.46608e-10
1.46608e-10
1.46608e-10
1.46608e-10
1.46608e-10
1.46608e-10
1.46608e-10
1.46608e-10
1.46608e-10
1.46608e-10
1.46608e-10
1.46608e-10
1.46608e-10
1.46608e-10
1.46608e-10
1.46608e-10
1.46608e-10
1.46608e-10
1.46608e-10
1.46608e-10
1.46608e-10
1.46608e-10
1.46608e-10
1.46608e-10
1.46608e-10
1.46608e-10
1.46608e-10
1.46608e-10
1.46608e-10
1.46608e-10
1.46608e-10
1.46608e-10
1.46608e-10
1.46608e-10
1.46608e-10
1.46608e-10
1.46608e-10
1.46608e-10
1.46608e-10
1.46608e-10
1.46608e-10
1.46608e-10
1.46608e-10
1.46608e-10
1.46608e-10
1.46608e-10
1.46608e-10
1.46608e-10
1.46608e-10
1.46608e-10
1.46608e-10
1.46608e-10
1.46608e-10
1.46608e-10
1.46608e-10
1.46608e-10
1.46608e-10
1.46608e-10
1.46608e-10
1.46608e-10
1.46608e-10
1.46608e-10
1.46608e-10
1.46608e-10
1.46608e-10
1.46608e-10
1.46608e-10
1.46608e-10
1.46608e-10
1.46608e-10
1.46608e-10
1.46608e-10
1.46608e-10
1.46608e-10
1.46608e-10
1.46608e-10
1.46608e-10
1.46608e-10
1.46608e-10
1.46608e-10
1.46608e-10
1.46608e-10
1.46608e-10
1.46608e-10
1.46608e-10
1.46608e-10
1.46608e-10
1.46608e-10
1.46608e-10
1.46608e-10
1.46608e-10
1.46608e-10
1.46608e-10
1.46608e-10
1.46608e-10
1.46608e-10
1.46608e-10
1.46608e-10
1.46608e-10
1.46608e-10
1.46608e-10
1.46608e-10
1.46608e-10
1.46608e-10
1.46608e-10
1.46608e-10
1.46608e-10
1.46608e-10
1.46608e-10
1.46608e-10
1.46608e-10
1.46608e-10
1.46608e-10
1.46608e-10
1.46608e-10
1.46608e-10
1.46608e-10
1.46608e-10
1.46608e-10
1.46608e-10
1.46608e-10
1.46608e-10
1.46608e-10
1.46608e-10
1.46608e-10
1.46608e-10
1.46608e-10
1.46608e-10
1.46608e-10
1.46608e-10
1.46608e-10
1.46608e-10
1.46608e-10
1.46608e-10
1.46608e-10
1.46608e-10
1.46608e-10
1.46608e-10
1.46608e-10
1.46608e-10
1.46608e-10
1.46608e-10
1.46608e-10
1.46608e-10
1.46608e-10
1.46608e-10
1.46608e-10
1.46608e-10
1.46608e-10
1.46608e-10
1.46608e-10
1.46608e-10
1.46608e-10
1.46608e-10
1.46608e-10
1.46608e-10
1.46608e-10
1.46608e-10
1.46608e-10
1.46608e-10
1.46608e-10
1.46608e-10
1.46608e-10
1.46608e-10
1.46608e-10

VECTORS velocity float
0.00547189 -0.00119077 0.00100204
0.00565619 -0.000136475 8.4492e-05
0.00547021 -0.00116171 0.000995548
0.00558593 -2.54181e-05 0.000335004
0.0054628 -0.000852682 0.00128028
0.00562205 -0.00024173 -0.000156047
0.00578866 0.00059194 -0.000454889
0.00478067 -0.00369991 0.00160641
0.00560998 -5.38237e-06 0.000361926
0.00543871 -0.00117101 0.00104098
0.00536867 -0.00117343 0.000933434
0.0054946 -0.00120586 0.00105957
0.00556527 2.80253e-05 0.000293852
0.00592349 -0.00097903 0.00137354
0.00527305 -0.00119542 0.000818686
0.00560874 2.63634e-05 0.0002965
0.00534392 -0.0011563 0.000978235
0.00562074 -1.40913e-05 0.000331708
0.00538923 -0.00118171 0.00090388
0.00555005 -0.0011805 0.000999121
0.00555419 -9.32406e-06 0.000327696
0.0053741 -0.00134928 0.000583969
0.00573413 -3.47073e-05 0.000361414
0.00535634 -0.00119654 0.000861634
0.00522337 -0.00119198 0.000802814
0.00533343 -0.00149065 0.0002587
0.00527975 -0.00125756 0.000732845
0.00573719 -0.00154755 0.000267733
0.00549682 -0.0011565 0.00101355
0.00525308 -0.0012063 0.000806214
0.00537581 -0.00122491 0.000825876
1.81175e-14 7.52989e-14 2.12932e-13
0.00552411 1.28074e-05 0.000308135
0.00557746 -2.10462e-05 0.000324944
0.00547573 -0.000849349 0.000738138
0.00571705 -0.00151815 0.000266538
0.0056249 -0.00157181 0.000274154
0.00571509 -2.46601e-05 0.000350581
0.0056377 -0.000858578 0.00132251
0.00481663 -0.00352225 0.00151506
0.00531159 -0.00131059 0.000680624
0.0054655 -0.00120873 0.00102443
0.00548045 -0.00106803 0.00113053
0.00547188 -0.00114933 0.00106097
0.00603882 -0.00104995 0.00131727
0.00537932 -0.00143302 0.000363068
0.00575518 -0.00151747 0.000257327
0.00540154 -0.00112648 0.000950868
0.00558601 -0.00150777 0.000262773
0.00528059 -0.00367778 0.00158198
0.00537608 -0.00126978 0.000765554
0.00575255 -0.0015541 0.000167769
0.00473869 -0.00370346 0.00161105
0.00573012 -0.00161295 0.000281697
0.00574624 -0.00152534 0.000265286
0.00577116 -0.00158399 0.000110721
0.00576638 -0.00150939 0.000275015
0.00525936 -0.00369723 0.00158684
0.00580174 -0.001541 0.000281059
0.00536497 -0.00374846 0.00162192
0.00482202 -0.00350707 0.00150692
0.00570846 -0.00157937 0.000112041
0.00486303 -0.00358492 0.00155085
0.00572482 -0.00155637 0.000271503
0.00564779 -3.15152e-05 0.000351994
0.00576453 -0.00157206 0.000269805
0.00567997 -2.82004e-05 0.000350103
-7.15279e-15 2.48215e-14 -7.81453e-14
0.00531454 -0.00121399 0.000831642
0.00574283 -0.00160751 0.000125421
0.00573171 -0.00148098 9.97091e-05
0.00570835 -0.00155587 0.000274446
0.00522951 -0.0011982 0.00081792
0.0053627 -0.00397632 0.000836955
0.00578177 -0.0014934 0.000103007
0.00598819 0.00129493 -0.00114604
0.00545756 -0.00120599 0.00100565
0.00585624 -0.000857737 0.00141474
-2.91971e-05 -0.015889 0.0127041
0.0051981 -0.00371954 0.00160185
0.00537536 -0.001273 0.000750767
0.0047897 -0.00367172 0.0015926
0.00599171 -0.00105717 0.00132651
0.00577695 -0.001589 0.000107757
0.0053603 -0.0015258 0.000118972
0.00508155 -0.00361446 0.00155954
0.00567403 -0.00151797 0.000266157
0.00573039 -0.0015347 0.000266919
0.005498 -0.00100223 0.00119822
0.00592011 -0.000978563 0.00130986
0.00529075 -0.00397053 0.000923882
0.00538336 -0.00112413 0.000951659
0.00586154 -0.000876912 0.0014223
0.00501991 -0.00354404 0.00152527
0.00541589 -0.00150103 0.000114043
0.00607181 -0.00168291 0.000618662
0.00573021 -0.00155976 0.000269887
0.0054985 -0.000874418 0.00129976
0.00538087 -0.00398464 0.000838857
0.00573406 -0.00162774 0.000123652
0.00535452 -0.00400162 0.000837387
0.00536065 -0.00400492 0.000841551
0.00536115 -0.00400807 0.000843139
0.00585665 -0.000830401 0.00136947
0.00586211 -0.000843352 0.00139316
0.0053622 -0.00400723 0.000808043
0.00545039 -0.00148167 0.000113148
0.00558801 -0.00113903 4.00387e-05
0.00546872 -0.00147409 0.000256042
0.00535991 -0.00400824 0.000842303
0.0049717 -0.00394289 -8.7715e-06
0.00456077 -0.00384184 0.000788986
0.00549078 -0.000851637 0.000740135
0.000966976 0.0252651 -0.0156222
0.00711697 0.00192858 -0.00113443
0.00535498 -0.0040234 0.00084518
0.00498492 -0.00389825 0.000822473
0.00528314 -0.000909043 0.000267017
0.00499851 -0.000852037 0.000249604
0.00436828 -0.0040485 -0.000708048
0.00534756 -0.00402143 0.000843788
0.00495099 -0.00406308 -0.00110899
0.00730318 -0.00182315 0.000638205
0.0048457 -0.00389306 0.000784971
0.00500334 -0.00411022 -0.000752001
0.00408991 -0.0104659 -0.00393249
0.00552509 -0.00144691 0.000101879
0.00523581 -0.00120705 0.000831284
0.00367116 -0.00334597 0.00147337
0.00463131 -0.0041064 -0.000732851
0.00530575 -0.0012375 0.000847921
0.00534975 -0.00111482 0.000948047
0.00495762 -0.00372219 0.000765061
0.00476968 -0.00421078 -0.000827791
0.00502938 -0.00407319 -0.00161571
0.00500366 -0.0038655 0.000803724
0.0058562 -0.000820691 0.00135248
0.00323369 -0.0105572 -0.00401755
0.00360217 -0.0105016 -0.00397025
-1.11012e-16 2.48918e-14 -2.37494e-13
0.00526567 -0.00122206 0.000835039
0.00520135 -0.00119626 0.000817387
2.17388e-15 -7.21663e-15 3.87971e-14
3.47826e-15 -5.73864e-14 1.46897e-13
0.00468465 -0.00406778 -0.00132034
0.00526824 -0.00124533 0.000848735
0.00534388 -0.00359197 0.00153733
0.00464436 -0.00404903 -0.00131213
0.00477566 -0.00354481 0.00153057
0.0033719 -0.0106847 -0.00405933
0.00486462 -0.00420746 -0.00110003
-4.05666e-15 6.69307e-14 -1.71328e-13
0.00441072 -0.00405187 -0.000706758
-3.20957e-16 5.29446e-15 -1.35526e-14
0.00331841 -0.0114957 -0.00438826
0.0058523 -0.000805295 0.00133557
0.00468754 -0.00409414 -0.00135839
2.17034e-15 -7.21772e-15 3.87971e-14
0.00467192 -0.00397127 -0.00127629
0.00493665 -0.000832258 0.000242018
3.47782e-15 -5.73865e-14 1.46897e-13
0.00545737 -0.000873882 0.00130001
3.47792e-15 -5.73865e-14 1.46897e-13
0.0032978 -0.0115381 -0.0044049
0.00534 -0.0012431 0.000846848
-3.20905e-16 5.29445e-15 -1.35526e-14
-2.39479e-14 -9.32247e-14 -1.94033e-13
-4.05665e-15 6.69306e-14 -1.71328e-13
-4.48968e-15 2.10924e-14 1.28955e-13
-4.05876e-15 6.69308e-14 -1.71328e-13
0.0143879 -0.00477591 0.0037718
-7.77372e-15 2.58486e-14 -1.38943e-13
0.00334416 0.00221366 -0.00115255
-1.34491e-14 -2.17868e-15 2.19344e-13
-4.05729e-15 6.69307e-14 -1.71328e-13
0.00467146 -0.00913589 -0.00367187
0.00555218 -8.73148e-05 -0.000264309
0.00525068 -0.00438903 0.00089433
0.00479616 -0.00365322 0.00158415
-3.21032e-16 5.29444e-15 -1.35526e-14
0.00490745 -0.00403246 -0.00125804
0.00570422 4.39116e-05 5.56646e-05
0.00572827 -0.00293894 0.00121618
0.00528505 -0.00123061 0.000839421
3.47867e-15 -5.73865e-14 1.46897e-13
0.00508261 -0.00357545 0.000760264
-7.77375e-15 2.58485e-14 -1.38943e-13
2.17079e-15 -7.21765e-15 3.87971e-14
-0.00653601 -0.049153 -0.0343595
0.00150841 0.00180335 0.000295587
2.17062e-15 -7.21772e-15 3.8797e-14
-7.77388e-15 2.58485e-14 -1.38943e-13
-3.74492e-05 0.00289449 -0.00480579
-0.000185438 0.0228479 -0.101192
0.00180602 0.100581 -0.114322
0.00193742 -0.0589055 -0.142861
0.0027553 0.000734602 -0.00265313
0.00414966 -0.0011214 0.000403891
3.47834e-15 -5.73865e-14 1.46897e-13
-2.39338e-15 1.48767e-14 8.70611e-14
-0.0516185 -0.00442504 0.00810444
0.005383 -0.00124527 0.000862886
-0.00423886 -0.0172589 -0.0153369
3.47836e-15 -5.73865e-14 1.46897e-13
-1.48808e-05 -0.000409473 -0.000738157
-3.20237e-16 5.29446e-15 -1.35526e-14
0.00197968 0.00487725 -0.00237436
-0.0337215 0.0418098 -0.182614
0.00555474 -8.15076e-05 -0.000266506
-0.0205255 -0.102484 -0.0476768
-4.05663e-15 6.69307e-14 -1.71328e-13
9.71156e-05 0.0330286 -0.100558
-3.89055e-09 0.0269508 -0.0112359
7.3275e-11 0.0229908 -0.00726762
0.000964273 0.0196501 0.0352573
-1.36185e-05 0.0321537 -0.0254995
-0.000764979 0.0285865 0.0111759
-0.00478075 -0.0385754 -0.0267855
-5.05478e-05 0.00160162 -0.00160776
7.23423e-11 0.0238611 -0.00338799
-1.52155e-06 0.0483936 -0.0671732
3.82569e-05 0.0550586 -0.130493
6.37318e-05 0.0520216 -0.0505495
7.75431e-11 0.0199738 -0.0134847
-0.000254492 -0.0453087 -0.167108
-5.14726e-09 0.0286981 -0.00563944
-0.0139538 -0.0491395 -0.044101
1.24831e-07 0.005584 0.00465657
-1.00762e-09 0.0288117 -0.00507944
-0.00202768 -0.023451 -0.033385
7.55595e-06 0.0516677 -0.175727
-4.05811e-15 6.69307e-14 -1.71328e-13
0.00586755 0.000410372 -0.000188191
9.95049e-07 0.00155841 -0.00258746
-0.0418767 0.0391352 -0.215809
0.00569802 0.000110357 0.000135418
-1.09568e-09 0.0259031 -0.0135876
-0.000194302 0.000232527 -0.000622212
3.66011e-06 0.0218265 -0.0150851
2.17072e-15 -7.21763e-15 3.87971e-14
0.0058492 -0.000804694 0.00133554

VECTORS force float
6.29273e-10 -8.55546e-10 5.78874e-10
-4.39584e-10 -7.88243e-10 2.10797e-11
-2.44038e-11 -2.16362e-10 2.00039e-10
-4.22782e-12 -2.03088e-10 2.92634e-10
-2.06382e-11 5.51665e-11 -2.33056e-10
4.13571e-10 -1.03143e-10 3.35089e-10
1.36333e-12 1.49997e-13 -9.63167e-14
-5.77271e-10 -1.71688e-09 8.66215e-10
7.56983e-10 2.53171e-10 8.59466e-11
2.55552e-10 -3.43552e-10 2.78623e-10
-3.16806e-10 -1.2121e-10 3.81559e-10
3.66287e-10 -1.70839e-10 5.22543e-11
3.2028e-10 1.13114e-10 -1.54071e-10
-2.47472e-10 2.11931e-10 1.91153e-10
-3.14288e-10 -2.65938e-10 -1.14556e-10
2.75361e-10 -5.28424e-11 1.23948e-10
-3.73905e-10 -2.62928e-10 2.0269e-10
1.86251e-10 -6.15617e-10 3.74929e-10
-3.05721e-10 -2.86066e-10 -1.6952e-11
-7.12744e-12 -2.10202e-10 1.59096e-10
5.65171e-10 2.47196e-10 -1.23739e-11
-8.16595e-11 6.97313e-11 3.56861e-11
1.33371e-10 6.54763e-11 -4.18634e-11
-1.9996e-10 -3.52172e-10 5.4718e-12
-1.16094e-10 -1.37348e-10 9.65694e-11
-5.85057e-12 -1.01067e-10 3.78256e-12
-6.90023e-11 -3.30075e-10 -4.1436e-10
7.64663e-12 -2.03592e-10 3.92186e-11
6.35811e-10 -8.17433e-11 2.62519e-10
-1.30656e-10 -1.62032e-10 2.55128e-10
-2.12445e-10 5.26131e-11 -3.17339e-10
1.44627e-23 -9.87447e-24 2.68834e-24
-5.95362e-10 -1.98955e-10 3.25914e-11
-7.99479e-11 -1.97895e-10 3.21987e-10
1.90587e-13 4.88224e-13 -3.26742e-13
2.22061e-10 -1.74591e-10 8.14555e-11
-9.43323e-12 -3.43601e-11 2.74787e-12
-4.23918e-11 -2.93223e-11 6.05786e-11
-4.09992e-10 -2.9219e-11 -2.73253e-10
-7.53688e-11 1.48853e-10 -6.36147e-11
-3.85204e-11 -2.90272e-11 -1.11434e-10
6.83311e-10 -2.52072e-10 1.94827e-10
3.38014e-11 1.30144e-10 -2.10819e-11
1.42229e-10 2.72179e-10 1.92038e-10
4.57319e-10 -8.93816e-11 -2.85631e-10
-4.56455e-11 -1.06787e-11 1.49845e-10
-5.85772e-11 1.31354e-11 -3.38615e-10
5.20624e-11 2.30279e-10 -1.63365e-10
-7.23958e-11 -1.91451e-10 -5.34031e-11
-8.88753e-12 4.45574e-10 -2.35015e-10
-7.99241e-11 1.07822e-10 -3.74686e-10
7.61346e-12 -1.19502e-10 2.67911e-11
2.18409e-10 9.10716e-11 -4.90246e-11
-1.00876e-10 -1.47124e-11 2.80044e-11
9.21566e-12 -2.26677e-10 2.16171e-11
2.59721e-10 1.11781e-10 -9.78514e-11
-8.33305e-11 2.16131e-10 -2.87813e-10
3.70674e-10 5.41532e-10 -2.22021e-10
5.62827e-11 3.03363e-10 3.32923e-11
-2.68054e-11 3.18934e-10 -2.45577e-10
1.49072e-10 7.53998e-10 -3.86836e-10
-3.67896e-10 3.7985e-10 2.26595e-10
3.45853e-10 1.53587e-09 -7.06486e-10
4.53146e-11 -4.99058e-11 1.48867e-11
1.91812e-11 2.58864e-11 -7.10207e-11
8.02224e-11 2.26658e-10 -5.3744e-11
7.82325e-11 8.05941e-11 -2.19132e-11
-6.91445e-22 -2.75399e-22 -2.4195e-23
3.07689e-11 1.66596e-10 3.18903e-11
8.77642e-11 -3.78974e-10 -1.11866e-10
1.37642e-09 -6.68573e-10 1.2289e-10
5.77121e-12 6.25429e-11 1.60329e-11
5.79884e-11 1.14373e-10 -6.15305e-11
1.41988e-10 -2.35939e-10 5.69975e-11
6.36983e-10 -7.71007e-10 7.99791e-11
1.30185e-12 1.68647e-13 -1.25868e-13
5.90977e-10 -2.49243e-11 9.33069e-11
-9.59636e-11 -1.61251e-10 2.87074e-10
-8.12834e-13 9.66914e-11 -5.88893e-11
-1.34395e-10 3.83157e-10 -1.79765e-10
1.68102e-10 4.02542e-10 1.00062e-10
2.52474e-10 2.31811e-10 -4.23731e-11
-1.59467e-10 4.54858e-10 -1.37372e-11
2.9463e-10 -1.72417e-10 -1.0111e-10
-4.17522e-10 -3.72043e-10 8.80277e-11
-2.80016e-10 8.51172e-10 -4.74255e-10
-9.05862e-11 -2.27111e-10 2.90174e-12
-7.91627e-11 -2.59369e-10 3.15357e-11
2.96243e-10 -6.04506e-11 -3.02781e-10
1.02953e-10 -1.36217e-10 -2.57642e-10
-1.66367e-10 -2.31961e-10 -9.40232e-10
-2.31082e-11 8.79981e-11 -6.26017e-11
-1.267e-10 -2.41491e-10 2.69385e-10
-3.16077e-10 9.23441e-10 -4.17635e-10
3.62535e-10 -1.66478e-10 -1.92751e-13
-2.01024e-10 8.63524e-11 -5.74065e-11
-2.22329e-11 2.3596e-10 7.67384e-11
7.22326e-11 1.41931e-10 7.92481e-11
1.76916e-12 -7.55949e-11 1.38377e-11
1.14734e-10 -9.69138e-11 -4.87688e-11
-1.6137e-10 -1.63048e-10 5.95117e-11
-4.83564e-11 -5.14823e-11 3.41405e-11
-6.46834e-11 -1.13654e-10 7.81948e-12
-9.25645e-11 -1.10628e-10 1.47061e-10
-5.17244e-11 -1.31243e-10 1.98825e-10
-3.88828e-11 -1.78459e-10 -3.41827e-10
-5.99548e-10 1.29332e-10 -1.79396e-10
-5.05517e-10 3.40761e-10 -6.00021e-11
-1.14718e-10 -1.52199e-10 2.49936e-11
-3.92755e-11 -1.89538e-10 1.35795e-11
-5.76622e-10 2.26819e-10 -7.35551e-10
-3.5746e-10 8.84171e-11 -2.82959e-10
8.81394e-14 5.03403e-13 -3.38368e-13
-1.69748e-11 -5.06603e-11 -5.59025e-11
-5.79446e-10 3.24414e-10 -1.39122e-10
2.34423e-10 2.193e-10 -1.72345e-11
1.11065e-09 8.05537e-10 -2.15672e-10
-1.95046e-10 -6.70212e-10 2.97586e-10
-3.58302e-10 3.01147e-12 8.31657e-12
-6.03486e-10 2.6375e-10 1.06829e-10
1.14278e-10 1.735e-10 -6.41868e-11
-1.83523e-10 1.36826e-10 -1.27683e-09
-7.65903e-10 7.18181e-10 -3.36385e-10
9.62179e-11 -2.83627e-10 2.42307e-11
-2.14494e-10 -3.21098e-10 -6.16244e-11
-2.18011e-11 1.34842e-10 -1.75991e-11
4.01964e-10 7.21199e-10 -6.39038e-11
1.33045e-10 5.18063e-11 -1.20618e-10
-6.8991e-10 4.16917e-10 -1.79579e-10
-9.94155e-10 -7.33041e-10 -4.54077e-10
-5.57376e-12 1.82928e-10 -7.94654e-11
8.90172e-11 1.68258e-10 -1.96007e-10
-2.73577e-10 4.02998e-10 -1.94887e-10
-7.52238e-10 -1.5355e-09 3.65485e-10
-8.87654e-11 2.59907e-11 -1.3415e-09
1.31483e-10 -6.44846e-10 2.60805e-10
4.59834e-11 -1.43593e-11 -2.23986e-11
-5.22882e-14 -2.0957e-12 -8.21386e-13
-9.28994e-13 -2.46505e-12 -1.04625e-12
-2.27914e-22 -4.00666e-24 -2.06795e-25
1.0261e-10 1.15938e-10 -3.70946e-11
4.57626e-10 1.23048e-10 1.57432e-11
2.51773e-23 6.56575e-24 -4.1359e-25
-8.38167e-24 -2.06795e-25 2.06795e-25
-5.30234e-10 -1.28339e-09 -3.09227e-10
1.07272e-10 -9.24969e-11 7.79765e-11
-6.26788e-10 7.93435e-10 -3.24901e-10
1.04217e-10 -3.83312e-11 -5.60091e-12
2.20522e-10 2.86762e-10 -1.67791e-10
-3.76953e-13 -3.0434e-12 -1.24896e-12
-5.80703e-10 1.31747e-09 2.79775e-09
-4.50426e-24 -1.13737e-24 -4.1359e-25
-3.41661e-10 -2.04355e-10 8.58098e-11
-1.12897e-23 -4.1359e-25 0.0
-4.54164e-11 -1.02509e-10 -2.99616e-11
9.16666e-11 1.33167e-10 -1.02902e-10
1.71524e-09 1.46014e-09 -1.88617e-10
-2.12094e-23 -1.03915e-23 -6.20385e-25
1.1742e-12 1.15172e-10 1.75919e-11
-8.65512e-10 6.36223e-10 -2.77572e-10
1.64338e-23 1.65436e-24 0.0
-4.5194e-10 1.28482e-10 -4.61097e-11
2.13904e-24 -1.03398e-25 0.0
-5.73144e-11 9.46119e-11 6.77863e-12
-2.24619e-10 1.01238e-10 -1.64063e-10
0.0 0.0 0.0
9.24116e-23 -3.94979e-23 7.65142e-24
2.13904e-24 -1.65436e-24 -8.27181e-25
8.20718e-25 2.32645e-25 0.0
6.39708e-23 1.55096e-24 -1.03398e-24
1.33259e-10 1.36131e-10 -1.29768e-10
1.0469e-24 2.58494e-25 0.0
-4.48136e-10 5.13542e-10 -2.17923e-10
-9.81114e-23 5.68543e-22 -2.06795e-25
-8.55615e-24 1.24077e-24 8.27181e-25
7.87195e-11 -1.03775e-10 3.00169e-11
1.79349e-11 1.10294e-11 2.64301e-12
-3.48206e-13 3.93488e-13 -7.57375e-14
-3.5808e-10 5.03769e-10 -2.55564e-10
2.1972e-25 0.0 0.0
-2.01868e-09 6.29426e-10 -2.83818e-10
-4.91662e-12 4.20101e-11 7.34416e-11
-2.68226e-10 5.1923e-10 -1.63044e-10
9.50008e-11 9.12395e-11 -1.61669e-10
1.24077e-24 0.0 0.0
-6.29237e-10 6.00567e-10 -2.46578e-10