# vtk DataFile Version 3.0
LIGGGHTS particles timestep 1000000
ASCII
DATASET POLYDATA
POINTS 122 float
0.0189036 0.0172966 0.00726543
0.0250124 0.0182409 0.00708504
0.0188804 0.0173848 0.00722433
0.0245985 0.0164659 0.00771003
0.0188649 0.0175571 0.0071431
0.0250437 0.0183834 0.00705756
0.0306786 0.0167438 0.00741501
0.0139524 0.021117 0.00737866
0.0248214 0.0173829 0.0072213
0.0190884 0.0186093 0.00690506
0.0191271 0.0188043 0.00687452
0.019069 0.0185117 0.00692035
0.024665 0.0167366 0.00751828
0.0187412 0.0170532 0.00738589
0.0192176 0.0192624 0.00684733
0.0246378 0.0166259 0.00759668
0.0191078 0.0187068 0.00688978
0.0246182 0.0165459 0.00765336
0.0191465 0.0189017 0.00685926
0.0189774 0.0174115 0.00720864
0.0245789 0.0163859 0.00776671
0.0195722 0.020835 0.00741402
0.0245396 0.0162286 0.0078838
0.0191706 0.019025 0.00683993
0.0192541 0.0194453 0.00686211
0.0199998 0.0207486 0.0073707
0.019363 0.0199666 0.00705141
0.0203126 0.0207381 0.00735917
0.0189387 0.0174953 0.0071701
0.0193204 0.0197648 0.00696752
0.019519 0.0206144 0.0073219
0.00738367 0.018342 0.00543103
0.0245592 0.016307 0.00782496
0.024685 0.0168166 0.0074616
0.0162008 0.0194366 0.00706176
0.0202785 0.0206461 0.00732407
0.0201033 0.0207481 0.00736806
0.0245199 0.0161501 0.00794264
0.0188433 0.0174691 0.00718548
0.0136378 0.0210901 0.00739126
0.0193889 0.0200742 0.00709632
0.0190491 0.0184146 0.00693554
0.0190157 0.0177206 0.0070609
0.0192014 0.0177407 0.00705107
0.0187848 0.0172308 0.00730031
0.0197947 0.021156 0.0075347
0.0209611 0.0204543 0.00723298
0.0203219 0.0152777 0.0088872
0.0198883 0.0212032 0.00755094
0.0149546 0.0209694 0.00729514
0.0197427 0.0204351 0.0072543
0.0210002 0.0205552 0.00727147
0.0142358 0.0210306 0.00734672
0.020763 0.0202247 0.00714794
0.0202113 0.0207236 0.00735593
0.0211782 0.0204537 0.00722757
0.020818 0.0203724 0.00720437
0.0151369 0.0209094 0.00727377
0.0205224 0.02067 0.00732762
0.0155122 0.0208851 0.00724826
0.0143914 0.0204807 0.00723572
0.021096 0.0201757 0.00712092
0.0147923 0.0209047 0.00729217
0.0204806 0.0205502 0.00728181
0.0244809 0.0159932 0.00806035
0.0205845 0.0205675 0.00728609
0.0245004 0.0160717 0.00800149
0.00989937 0.0198277 0.0169931
0.0204335 0.0144563 0.0112701
0.0220487 0.0235553 0.0104729
0.0219768 0.0199956 0.0070297
0.0204114 0.0207737 0.00737074
0.0206508 0.0142494 0.0116843
0.0175762 0.0238424 0.0115449
0.0218449 0.0201196 0.00708128
0.0166121 0.0216048 0.00795673
0.019611 0.017781 0.00705874
0.0186022 0.0164715 0.00768185
0.0796852 0.0163348 0.00870535
0.0180001 0.0238657 0.0115869
0.0152449 0.0209223 0.00727013
0.0194682 0.0204033 0.00723378
0.0141074 0.0210173 0.00735145
0.0187628 0.0171411 0.00734351
0.0210043 0.0206995 0.00732771
0.0236209 0.0231409 0.0119696
0.0152952 0.0204355 0.00718697
0.0202496 0.0208108 0.00738909
0.0200895 0.0208747 0.00741784
0.0189096 0.0176373 0.00710365
0.0188064 0.0173188 0.00725793
0.0154171 0.0210954 0.0072927
0.0198515 0.0177666 0.00706947
0.0187196 0.0169652 0.00742827
0.0159495 0.0144149 0.0134484
0.0238181 0.0210824 0.0149359
0.0159535 0.0211568 0.0148931
0.021066 0.0236108 0.0130895
0.0188587 0.0171147 0.00735308
0.0161157 0.0196834 0.0154427
0.0226861 0.0217442 0.0083659
0.0162144 0.0208654 0.00721993
0.0184655 0.0219344 0.0167269
0.0166437 0.0216906 0.00809162
0.0203177 0.0239707 0.0117764
0.018549 0.0162351 0.00780847
0.0203283 0.0238968 0.011845
0.0185685 0.0163205 0.00776015
0.0155563 0.0209796 0.00726337
0.0236042 0.0179054 0.0155039
0.0226243 0.0232129 0.0118532
0.0197833 0.0213578 0.0076138
0.0158644 0.019566 0.0163077
0.018814 0.0198666 0.0154118
0.017375 0.0207121 0.0184497
0.0208259 0.0223122 0.0146636
0.0191151 0.0239357 0.0117131
0.016587 0.0143048 0.0124247
0.0150202 0.0223195 0.0150615
0.0187181 0.0230181 0.0184532
0.0216313 0.0185963 0.0163787
0.0150016 0.0165685 0.017182

VERTICES 122 244
1 0
1 1
1 2
1 3
1 4
1 5
1 6
1 7
1 8
1 9
1 10
1 11
1 12
1 13
1 14
1 15
1 16
1 17
1 18
1 19
1 20
1 21
1 22
1 23
1 24
1 25
1 26
1 27
1 28
1 29
1 30
1 31
1 32
1 33
1 34
1 35
1 36
1 37
1 38
1 39
1 40
1 41
1 42
1 43
1 44
1 45
1 46
1 47
1 48
1 49
1 50
1 51
1 52
1 53
1 54
1 55
1 56
1 57
1 58
1 59
1 60
1 61
1 62
1 63
1 64
1 65
1 66
1 67
1 68
1 69
1 70
1 71
1 72
1 73
1 74
1 75
1 76
1 77
1 78
1 79
1 80
1 81
1 82
1 83
1 84
1 85
1 86
1 87
1 88
1 89
1 90
1 91
1 92
1 93
1 94
1 95
1 96
1 97
1 98
1 99
1 100
1 101
1 102
1 103
1 104
1 105
1 106
1 107
1 108
1 109
1 110
1 111
1 112
1 113
1 114
1 115
1 116
1 117
1 118
1 119
1 120
1 121

POINT_DATA 122
SCALARS id int 1
LOOKUP_TABLE default
1
4
5
6
8
9
10
11
12
13
15
17
18
19
23
24
25
26
27
29
30
32
33
34
35
36
38
39
41
42
43
44
45
46
48
50
51
53
54
55
57
58
59
60
61
62
63
64
67
68
69
70
71
72
74
76
77
78
80
81
83
84
85
86
87
89
90
91
92
93
94
95
96
97
98
99
100
101
103
104
105
106
107
108
110
111
112
113
115
116
117
118
119
120
121
122
123
124
125
127
128
129
130
131
132
133
134
135
136
137
138
140
141
142
143
144
145
146
147
148
149
150

SCALARS type int 1
LOOKUP_TABLE default
1
1
1
1
1
1
1
1
1
1
1
1
1
1
1
1
1
1
1
1
1
1
1
1
1
1
1
1
1
1
1
1
1
1
1
1
1
1
1
1
1
1
1
1
1
1
1
1
1
1
1
1
1
1
1
1
1
1
1
1
1
1
1
1
1
1
1
1
1
1
1
1
1
1
1
1
1
1
1
1
1
1
1
1
1
1
1
1
1
1
1
1
1
1
1
1
1
1
1
1
1
1
1
1
1
1
1
1
1
1
1
1
1
1
1
1
1
1
1
1
1
1

SCALARS radius float 1
LOOKUP_TABLE default
5e-05
5e-05
5e-05
5e-05
5e-05
5e-05
5e-05
5e-05
5e-05
5e-05
5e-05
5e-05
5e-05
5e-05
5e-05
5e-05
5e-05
5e-05
5e-05
5e-05
5e-05
5e-05
5e-05
5e-05
5e-05
5e-05
5e-05
5e-05
5e-05
5e-05
5e-05
5e-05
5e-05
5e-05
5e-05
5e-05
5e-05
5e-05
5e-05
5e-05
5e-05
5e-05
5e-05
5e-05
5e-05
5e-05
5e-05
5e-05
5e-05
5e-05
5e-05
5e-05
5e-05
5e-05
5e-05
5e-05
5e-05
5e-05
5e-05
5e-05
5e-05
5e-05
5e-05
5e-05
5e-05
5e-05
5e-05
5e-05
5e-05
5e-05
5e-05
5e-05
5e-05
5e-05
5e-05
5e-05
5e-05
5e-05
5e-05
5e-05
5e-05
5e-05
5e-05
5e-05
5e-05
5e-05
5e-05
5e-05
5e-05
5e-05
5e-05
5e-05
5e-05
5e-05
5e-05
5e-05
5e-05
5e-05
5e-05
5e-05
5e-05
5e-05
5e-05
5e-05
5e-05
5e-05
5e-05
5e-05
5e-05
5e-05
5e-05
5e-05
5e-05
5e-05
5e-05
5e-05
5e-05
5e-05
5e-05
5e-05
5e-05
5e-05

SCALARS mass float 1
LOOKUP_TABLE default
1.46608e-10
1.46608e-10
1.46608e-10
1.46608e-10
1.46608e-10
1.46608e-10
1.46608e-10
1.46608e-10
1.46608e-10
1.46608e-10
1.46608e-10
1.46608e-10
1.46608e-10
1.46608e-10
1.46608e-10
1.46608e-10
1.46608e-10
1.46608e-10
1.46608e-10
1.46608e-10
1.46608e-10
1.46608e-10
1.46608e-10
1.46608e-10
1.46608e-10
1.46608e-10
1.46608e-10
1.46608e-10
1.46608e-10
1.46608e-10
1.46608e-10
1.46608e-10
1.46608e-10
1.46608e-10
1.46608e-10
1.46608e-10
1.46608e-10
1.46608e-10
1.46608e-10
1.46608e-10
1.46608e-10
1.46608e-10
1.46608e-10
1.46608e-10
1.46608e-10
1.46608e-10
1.46608e-10
1.46608e-10
1.46608e-10
1.46608e-10
1.46608e-10
1.46608e-10
1.46608e-10
1.46608e-10
1.46608e-10
1.46608e-10
1.46608e-10
1.46608e-10
1.46608e-10
1.46608e-10
1.46608e-10
1.46608e-10
1.46608e-10
1.46608e-10
1.46608e-10
1.46608e-10
1.46608e-10
1.46608e-10
1.46608e-10
1.46608e-10
1.46608e-10
1.46608e-10
1.46608e-10
1.46608e-10
1.46608e-10
1.46608e-10
1.46608e-10
1.46608e-10
1.46608e-10
1.46608e-10
1.46608e-10
1.46608e-10
1.46608e-10
1.46608e-10
1.46608e-10
1.46608e-10
1.46608e-10
1.46608e-10
1.46608e-10
1.46608e-10
1.46608e-10
1.46608e-10
1.46608e-10
1.46608e-10
1.46608e-10
1.46608e-10
1.46608e-10
1.46608e-10
1.46608e-10
1.46608e-10
1.46608e-10
1.46608e-10
1.46608e-10
1.46608e-10
1.46608e-10
1.46608e-10
1.46608e-10
1.46608e-10
1.46608e-10
1.46608e-10
1.46608e-10
1.46608e-10
1.46608e-10
1.46608e-10
1.46608e-10
1.46608e-10
1.46608e-10
1.46608e-10
1.46608e-10
1.46608e-10
1.46608e-10
1.46608e-10

VECTORS velocity float
0.00571839 -0.00218758 0.000860919
0.00524212 -0.00361828 0.000511355
0.00576425 -0.00218101 0.000856107
0.00559584 -7.69624e-05 2.13012e-05
0.00574403 -0.00215785 0.000845897
0.00495221 -0.00338027 0.00047602
0.00551483 -0.000801761 0.00060425
2.17033e-15 -7.21774e-15 3.87971e-14
0.00534039 -0.00399001 0.000647114
0.00483772 -0.00394602 0.000813854
0.00489589 -0.00400865 0.000826124
0.00480888 -0.00391334 0.000807504
0.00547816 -0.00054865 0.000355502
0.00561711 -0.00230557 0.000919836
0.00462349 -0.00499994 -0.000815215
0.00559501 -7.61013e-05 2.06869e-05
0.00486659 -0.00397849 0.000820171
0.00559531 -7.60565e-05 2.08494e-05
0.00492564 -0.00403648 0.000831712
0.00573259 -0.00215756 0.000846181
0.00559622 -7.73477e-05 2.15989e-05
0.00346649 -0.0109015 -0.00413991
0.00559179 -7.33078e-06 0.000116712
0.00484946 -0.00392243 0.000810408
0.00463417 -0.00500638 -0.000816611
3.47842e-15 -5.73865e-14 1.46897e-13
0.00333468 -0.0111305 -0.00424074
3.47838e-15 -5.73865e-14 1.46897e-13
0.00575312 -0.00214887 0.000841419
0.00328455 -0.0111031 -0.00423316
0.00340447 -0.0110781 -0.004215
1.8097e-14 7.53047e-14 2.12932e-13
0.00559473 -7.20072e-06 0.000116649
0.00599317 -0.000642951 0.000419123
0.00431459 -0.00572955 -0.000714994
-4.0567e-15 6.69307e-14 -1.71328e-13
-3.20927e-16 5.29445e-15 -1.35526e-14
0.00558905 -7.44854e-06 0.000116611
0.00572391 -0.00219035 0.000862025
-7.77438e-15 2.58484e-14 -1.38943e-13
0.00331299 -0.01126 -0.00429417
0.00497388 -0.00410908 0.000845265
-2.82846e-16 -4.33299e-15 -9.13654e-15
1.78346e-15 -8.37431e-15 -5.11989e-14
0.00566011 -0.00223056 0.00088273
-8.00864e-12 1.10653e-10 4.34071e-11
-3.2104e-16 5.29446e-15 -1.35526e-14
-0.000140136 0.0839235 -0.100564
0.000567549 -0.00234869 -0.000930977
2.17031e-15 -7.21756e-15 3.87971e-14
-4.0569e-15 6.69307e-14 -1.71328e-13
-4.05688e-15 6.69307e-14 -1.71328e-13
2.17033e-15 -7.21764e-15 3.87971e-14
-4.05647e-15 6.69307e-14 -1.71328e-13
3.47843e-15 -5.73865e-14 1.46897e-13
-4.05738e-15 6.69307e-14 -1.71328e-13
-4.057e-15 6.69307e-14 -1.71328e-13
2.17015e-15 -7.21761e-15 3.87971e-14
-3.21132e-16 5.29445e-15 -1.35526e-14
2.16969e-15 -7.21787e-15 3.87971e-14
2.17092e-15 -7.21761e-15 3.8797e-14
-3.20364e-16 5.29449e-15 -1.35526e-14
2.1709e-15 -7.21798e-15 3.8797e-14
3.47837e-15 -5.73865e-14 1.46897e-13
0.00555056 -2.22276e-06 0.000111958
3.47843e-15 -5.73865e-14 1.46897e-13
0.00555148 -2.14498e-06 0.000111988
0.194492 0.151993 0.00571185
-0.00018949 0.0228025 -0.075074
0.000672691 -0.054717 -0.0989484
-4.05727e-15 6.69307e-14 -1.71328e-13
-4.05647e-15 6.69306e-14 -1.71328e-13
6.3266e-07 0.00593365 -0.00985178
2.14728e-05 -0.00105188 -0.00189598
-3.20294e-16 5.29451e-15 -1.35526e-14
-0.0200731 -0.0694744 -0.110843
1.78248e-15 -8.37431e-15 -5.11989e-14
0.00549096 -0.000799032 0.000100127
-2.42677e-05 -0.000355733 0.000453171
-0.000203061 -0.0277831 -0.0500838
-7.77408e-15 2.58488e-14 -1.38943e-13
0.00335881 -0.0111904 -0.00426314
2.17047e-15 -7.21774e-15 3.87971e-14
0.00563182 -0.00230871 0.00092087
3.47829e-15 -5.73865e-14 1.46897e-13
-0.0345918 0.0442845 -0.16285
1.99855e-16 -6.79094e-15 5.56219e-14
-4.05691e-15 6.69307e-14 -1.71328e-13
3.47818e-15 -5.73865e-14 1.46897e-13
0.000131707 0.000424425 -0.000205343
0.00569661 -0.00221397 0.000874406
2.17065e-15 -7.21745e-15 3.87971e-14
-4.48955e-15 2.10925e-14 1.28955e-13
0.00560238 -0.00230244 0.000918811
0.0378917 0.0290928 -0.0651062
7.38069e-11 0.0207347 -0.0122493
7.91811e-11 0.0204759 -0.0126995
-0.000673649 0.053923 -0.154628
0.00640501 7.98602e-05 -0.000235785
7.52114e-11 0.0237911 -0.00381534
-0.00277906 -0.0306311 -0.0213153
-1.15626e-15 1.50823e-15 -1.58052e-14
0.0 0.0 -0.182968
-0.0189623 -0.0672752 -0.107477
5.51923e-05 -0.00837819 -0.0149826
0.00571001 0.000256202 -2.07831e-05
0.00100785 -0.00726607 -0.0279155
0.00573549 0.000122478 -0.000383017
2.17062e-15 -7.2177e-15 3.87971e-14
5.67608e-05 0.00782651 0.0386093
2.13029e-05 0.0615139 -0.195887
8.97451e-12 -2.03688e-10 -8.01137e-11
-1.67349e-09 0.0290717 -0.0031095
7.15154e-11 0.0236027 -0.00493368
0.0 -0.0 -0.005
-0.308059 0.283501 -1.1231
-1.80879e-05 -0.00734884 -0.013576
0.00217106 -0.00283271 0.00206414
-0.000242021 0.0302879 -0.0272221
0.0 -0.0 -0.005
-0.000300623 0.0286736 -0.0388724
0.0 0.0 -0.156677

VECTORS force float
-2.09454e-10 3.20897e-11 -1.20497e-11
-3.2579e-13 6.73853e-13 -1.14956e-13
5.61824e-11 2.51654e-11 -1.16959e-11
5.78843e-12 -1.91735e-12 -1.29258e-12
1.11856e-10 2.78953e-10 -1.40247e-10
4.90234e-13 -7.74133e-13 1.51714e-13
-4.65605e-13 7.54332e-14 -5.07558e-14
-7.10858e-24 -1.34417e-24 0.0
6.71738e-13 -5.41486e-14 -1.45832e-14
5.79964e-13 -7.7377e-13 1.23539e-13
3.70544e-13 -5.16398e-13 9.50833e-14
1.00366e-12 1.74393e-13 -8.60239e-16
6.9447e-12 3.02387e-11 -2.13923e-11
-2.78965e-13 -3.57663e-12 1.71085e-12
4.33139e-13 -5.73882e-13 -9.27043e-14
-4.43185e-12 1.24045e-12 -8.88236e-13
5.00049e-13 -5.34504e-13 1.07602e-13
3.43212e-12 -2.52229e-12 2.34273e-12
2.73931e-13 -4.31192e-13 8.01467e-14
1.39717e-10 -1.09028e-10 4.9515e-11
-2.93275e-12 4.8738e-12 -1.14971e-12
-6.99762e-13 -2.12255e-12 -8.99346e-13
-2.93563e-14 2.21449e-12 -3.18426e-13
1.58527e-13 -3.63921e-13 1.6623e-14
2.77754e-13 -4.25389e-13 -6.19854e-14
4.65289e-25 1.03398e-25 0.0
-8.61474e-13 -7.49406e-12 -3.10898e-12
-2.13258e-25 0.0 0.0
-1.60416e-10 -1.45424e-10 6.80691e-11
4.50437e-13 -2.10008e-12 -7.55904e-13
-4.80633e-13 -2.37946e-12 -9.87498e-13
1.17757e-22 -2.00074e-23 -6.82424e-24
-1.55573e-12 -6.99239e-14 -1.83801e-12
-5.12491e-12 -2.2691e-11 1.60648e-11
3.87252e-13 9.33837e-13 1.11929e-13
-4.52364e-24 -2.06795e-25 0.0
-2.42338e-24 -3.10193e-25 0.0
6.60838e-13 1.62939e-12 3.64152e-15
1.56151e-10 1.0403e-10 -4.33732e-11
-3.28287e-24 -2.58494e-25 2.06795e-25
1.56849e-13 -2.86159e-12 -1.14258e-12
4.34593e-13 -1.9843e-13 4.96101e-14
1.7933e-23 -1.44757e-24 2.06795e-25
2.92098e-24 -1.73191e-24 2.06795e-25
8.58974e-12 6.07607e-11 -3.27563e-11
1.24975e-16 -2.26489e-15 -8.92934e-16
-1.0986e-25 0.0 0.0
0.0 0.0 -1.43822e-09
-1.46744e-10 3.46127e-10 1.38693e-10
-2.17006e-23 -3.61892e-24 1.03398e-24
-1.35128e-23 -5.16988e-25 0.0
-9.69352e-26 0.0 0.0
1.37002e-23 1.49926e-24 -4.1359e-25
-5.13757e-24 7.23783e-25 2.06795e-25
7.69019e-25 1.03398e-25 0.0
2.29736e-23 8.27181e-25 -2.06795e-25
-1.1322e-23 -3.10193e-25 2.06795e-25
4.01958e-24 -1.29247e-24 -2.06795e-25
-8.64662e-24 -2.06795e-25 2.06795e-25
-6.95349e-24 -3.36042e-24 -2.06795e-25
-1.88701e-24 -3.98081e-24 -6.20385e-25
-5.46715e-24 -3.10193e-25 0.0
-1.2007e-23 1.44757e-24 6.20385e-25
3.16655e-25 0.0 0.0
1.24677e-13 2.10525e-12 7.66443e-13
-2.1972e-25 0.0 0.0
1.72211e-12 -3.94909e-14 -3.3261e-12
0.0 0.0 -1.43822e-09
0.0 0.0 -1.43822e-09
0.0 0.0 -1.43822e-09
-5.38314e-24 -4.1359e-25 0.0
5.8872e-24 1.34417e-24 2.06795e-25
-2.84999e-14 3.67654e-10 -6.10425e-10
-4.79238e-12 -3.72601e-10 -6.73964e-10
5.76441e-24 -1.03398e-25 -2.06795e-25
-6.00947e-11 -2.23839e-10 -3.58476e-10
-9.6289e-25 1.55096e-25 0.0
6.95673e-14 6.33717e-13 -3.2389e-13
-2.55056e-13 1.94309e-10 -2.15996e-10
1.73189e-12 -3.73184e-10 -6.72729e-10
-2.30835e-23 -5.79026e-24 1.03398e-24
-3.04449e-13 -2.69332e-12 -1.09609e-12
3.16655e-24 1.80946e-24 2.06795e-25
-3.34804e-13 -3.51415e-12 1.72608e-12
1.17615e-24 1.03398e-25 0.0
-2.64201e-10 -7.55281e-11 -1.1489e-09
-1.56389e-24 1.80946e-25 0.0
5.42837e-25 -4.1359e-25 0.0
1.27955e-24 4.1359e-25 2.06795e-25
-2.11002e-10 -2.31207e-10 1.1598e-10
-4.141e-11 1.10831e-10 -5.47823e-11
-2.02401e-23 -6.46235e-24 -2.06795e-25
1.95809e-24 1.29247e-25 0.0
-1.03286e-13 -3.58264e-12 1.64897e-12
0.0 0.0 -1.43822e-09
1.46033e-20 -1.08274e-11 -1.8326e-11
1.12803e-20 -1.12266e-11 -1.80966e-11
0.0 0.0 -1.43822e-09
-5.00085e-12 1.84126e-11 -8.57795e-12
9.12272e-21 -3.37392e-12 -2.10278e-11
2.37336e-11 8.67799e-11 5.96705e-11
1.27179e-23 7.05688e-24 0.0
0.0 0.0 -1.43822e-09
1.85677e-10 -3.50282e-10 -6.45276e-10
0.0 0.0 -1.43822e-09
1.40816e-10 -8.94395e-11 7.78886e-10
0.0 0.0 -1.43822e-09
-2.18202e-11 8.05832e-11 -4.01417e-10
4.2393e-24 7.23783e-25 0.0
0.0 0.0 -1.43822e-09
0.0 0.0 -1.43822e-09
3.72136e-16 -5.87156e-15 -2.30077e-15
-2.54842e-19 -2.75231e-12 -2.57536e-11
1.28093e-20 -4.37505e-12 -2.08591e-11
0.0 0.0 0.0
0.0 0.0 -1.43822e-09
0.0 0.0 -1.43822e-09
1.18385e-11 -2.00089e-11 1.91336e-11
-3.76485e-12 1.21258e-10 -1.64403e-10
0.0 0.0 0.0
0.0 0.0 -1.43822e-09
0.0 0.0 -1.43822e-09
