# vtk DataFile Version 3.0
LIGGGHTS particles timestep 8000000
ASCII
DATASET POLYDATA
POINTS 235 float
0.0593895 0.0161785 0.00829492
0.0655324 0.016943 0.00753035
0.0593462 0.0160405 0.00843315
0.0654024 0.0164631 0.00786616
0.0590176 0.0152596 0.00921429
0.0655541 0.017023 0.00747438
0.0713933 0.016419 0.00786586
0.0533281 0.0161564 0.00801551
0.0655107 0.016863 0.00758632
0.0591655 0.0157428 0.00873001
0.0592084 0.0158808 0.00859175
0.0591448 0.0156737 0.00879927
0.0654674 0.0167031 0.00769826
0.058917 0.0149136 0.00956102
0.0592713 0.016088 0.00838412
0.0654457 0.0166231 0.00775422
0.0591866 0.0158119 0.00866083
0.065424 0.0165431 0.00781019
0.059229 0.0159499 0.00852248
0.0594094 0.0162477 0.00822555
0.0653807 0.0163831 0.00792213
0.0593343 0.0162936 0.00817805
0.0653373 0.0162232 0.00803406
0.0592501 0.016019 0.0084533
0.0592919 0.0161106 0.00847933
0.059558 0.0167312 0.00774101
0.0597571 0.0171033 0.00736954
0.0596565 0.0167562 0.00771739
0.0593686 0.0161094 0.00836417
0.0592929 0.0161929 0.0084224
0.0592953 0.0161658 0.00832615
0.00738367 0.018342 0.00543103
0.065359 0.0163031 0.0079781
0.0654891 0.0167831 0.00764229
0.056508 0.017077 0.0073715
0.0595795 0.0168005 0.00767155
0.059419 0.0165698 0.00790134
0.0653157 0.0161432 0.00809003
0.0589977 0.0151903 0.00928367
0.0533677 0.0163287 0.00795804
0.0597728 0.017173 0.00729959
0.0591231 0.0156048 0.00886836
0.0590597 0.0153976 0.00907591
0.0590808 0.0154667 0.00900671
0.0589574 0.015052 0.00942236
0.0593555 0.0163627 0.00810887
0.0596126 0.0171529 0.00743874
0.059473 0.0164549 0.00801792
0.0596799 0.0175526 0.00717973
0.0527994 0.014715 0.0100982
0.0593132 0.0162246 0.00824723
0.0596222 0.0169389 0.00753294
0.0535822 0.0171264 0.00740782
0.0596006 0.0168696 0.00760237
0.0594402 0.0166388 0.00783217
0.0597001 0.0173471 0.00726504
0.0594614 0.0167078 0.00776299
0.0528199 0.0147683 0.0100161
0.059814 0.0173274 0.0071827
0.0528611 0.0148751 0.00985205
0.0537008 0.0171987 0.00737108
0.0595037 0.0168459 0.00762464
0.0537713 0.0167927 0.00753801
0.0595274 0.0169558 0.00764668
0.0652723 0.0159832 0.00820197
0.0594825 0.0167769 0.00769382
0.065294 0.0160632 0.008146
0.0157927 0.0215765 0.00607411
0.0594942 0.016524 0.0079487
0.0595461 0.016984 0.00748629
0.059696 0.0172176 0.00725348
0.059565 0.0170183 0.00757828
0.0595154 0.016593 0.00787952
0.0537685 0.0166996 0.00757728
0.0596791 0.0171475 0.00732373
0.0536844 0.0163672 0.00779236
0.0591021 0.0155357 0.00893756
0.0588764 0.01478 0.00970413
0.0401478 0.0176448 0.00785761
0.0528405 0.0148217 0.00993408
0.0596999 0.0168952 0.00757819
0.05354 0.0169471 0.00748549
0.0589372 0.0149828 0.00949169
0.0596225 0.0172958 0.00730175
0.0595853 0.0171224 0.00734747
0.0539882 0.0177644 0.00711792
0.0595072 0.0168808 0.00771829
0.0597564 0.0174881 0.00718017
0.0590384 0.0153286 0.00914507
0.0589776 0.0151211 0.00935302
0.0528817 0.0149285 0.00977002
0.0594306 0.0163167 0.00815636
0.0588967 0.0148461 0.00963192
0.0532627 0.015719 0.00862217
0.0596023 0.017192 0.00727768
0.0533254 0.0158955 0.00838504
0.0595947 0.0170833 0.00750834
0.0593245 0.0159716 0.00850224
0.0536622 0.0163087 0.00787058
0.0595672 0.017053 0.0074171
0.0529226 0.0150352 0.00960593
0.052985 0.0151952 0.00936001
0.052943 0.0150886 0.00952387
0.0596307 0.0172223 0.0073691
0.0588584 0.014773 0.00980226
0.0529022 0.0149818 0.00968799
0.0596188 0.0172616 0.00720783
0.0597123 0.0172882 0.00718459
0.0597899 0.0172426 0.00722982
0.0529637 0.0151419 0.00944186
0.0531062 0.0155204 0.00887063
0.0530481 0.0153552 0.00911422
0.0565292 0.0171407 0.00729687
0.0207913 0.0163709 0.00865516
0.0535143 0.0161791 0.0080229
0.0530066 0.0152485 0.00927819
0.0530867 0.0154648 0.00895149
0.0534401 0.0159455 0.00833854
0.0533041 0.0158364 0.00846441
0.0531854 0.0157474 0.0085654
0.0530276 0.0153019 0.00919625
0.0531571 0.0155794 0.00880797
0.0534098 0.0161291 0.00807156
0.0530681 0.0154091 0.00903241
0.053165 0.015689 0.00864395
0.0534053 0.0164952 0.0079014
0.0596393 0.0173566 0.00718405
0.0596777 0.0168253 0.00764821
0.0535881 0.0163396 0.00781095
0.0532261 0.0158642 0.0084083
0.0595249 0.0169149 0.00755546
0.0594518 0.0163858 0.00808713
0.0534199 0.0161875 0.00799096
0.053272 0.0160493 0.00832414
0.0531453 0.0156321 0.00872385
0.0536102 0.016398 0.00773282
0.059721 0.0169642 0.007509
0.0533129 0.0161811 0.00818078
0.0533931 0.0163856 0.00787982
0.226587 0.0186791 0.00533789
0.0593767 0.0164317 0.0080397
0.0595366 0.016662 0.00781034
0.0471792 0.0156944 0.00853466
0.0536855 0.0168415 0.00752207
0.0536082 0.0166018 0.00772099
0.0596614 0.0170774 0.0073941
0.053654 0.0165682 0.00763866
0.0535822 0.0165085 0.00776061
0.0534925 0.0163455 0.00778225
0.0532669 0.0159811 0.00825119
0.0533352 0.0162581 0.00812096
0.0534477 0.0165385 0.00776977
0.0532058 0.0158058 0.00848685
0.053557 0.0165922 0.00763376
0.0533837 0.0164263 0.00797354
0.0597362 0.0173902 0.00718232
0.0537726 0.0168849 0.00749917
0.0471579 0.0156251 0.00860354
0.0535494 0.0169294 0.00758346
0.0535661 0.0162812 0.0078891
0.0535139 0.0168807 0.00766323
0.0593039 0.0159024 0.00857151
0.0533929 0.0163545 0.0077848
0.0532873 0.0160395 0.00817264
0.0596433 0.0170079 0.00746374
0.053414 0.0164211 0.00771332
0.0159913 0.0152807 0.00678236
0.0534796 0.0167717 0.00771473
0.0534705 0.0162871 0.0078604
0.0535257 0.0166905 0.00767907
0.039161 0.0170249 0.00815662
0.0472219 0.015833 0.0083969
0.0533077 0.0160979 0.00809409
0.0254028 0.0195569 0.00545165
0.0534576 0.0166034 0.00763439
0.0534174 0.0164515 0.00780855
0.0533714 0.0162805 0.00784858
0.0565463 0.0172014 0.00721908
0.0536024 0.0172163 0.00736895
0.0535351 0.0165027 0.00767256
0.0534522 0.0166641 0.00777453
0.0535136 0.0164131 0.00771154
0.0534605 0.016004 0.00825996
0.0597393 0.0170338 0.00743922
0.0536766 0.0166576 0.00759988
0.0533511 0.0162221 0.00792717
0.0472006 0.0157637 0.00846578
0.0472646 0.0159715 0.00825913
0.0473286 0.0161794 0.00805249
0.0473512 0.0162556 0.00799189
0.0472432 0.0159023 0.00832802
0.0473072 0.0161101 0.00812137
0.0533457 0.015954 0.00830647
0.0535042 0.0161208 0.00810351
0.0537232 0.0164413 0.00769541
0.0535885 0.0168656 0.00751714
0.018896 0.013113 0.0137667
0.0532836 0.0157779 0.00854308
0.0535791 0.0166817 0.00759496
0.053346 0.0162546 0.0080216
0.050439 0.01678 0.00747973
0.0593979 0.0165007 0.00797052
0.0535553 0.0167833 0.00765052
0.0536352 0.0169731 0.00746945
0.0474136 0.0164557 0.00777778
0.0535864 0.0167735 0.00755598
0.0532465 0.0159226 0.00832975
0.0535072 0.0168308 0.00757686
0.053737 0.0170317 0.00743938
0.0537257 0.0169712 0.0075182
0.0537861 0.0171491 0.00738738
0.0534809 0.0160625 0.00818134
0.0535614 0.0170367 0.00744667
0.0536416 0.0170724 0.0074945
0.053482 0.0167051 0.00759033
0.0533865 0.0160708 0.00814935
0.0474563 0.0165943 0.00764002
0.0473923 0.0163864 0.00784667
0.0535427 0.0164286 0.007806
0.0474776 0.0166635 0.00757114
0.047371 0.0163171 0.00791555
0.0536226 0.0173062 0.00733007
0.0534355 0.0165108 0.00767449
0.0474981 0.0167422 0.00751292
0.0533661 0.0160124 0.00822791
0.0535082 0.0166012 0.0077206
0.0532421 0.0156604 0.00870093
0.0532915 0.0161079 0.00824547
0.0536807 0.0171088 0.00740995
0.0536321 0.0164794 0.00767904
0.0536834 0.0167494 0.00756091
0.053495 0.0162337 0.00794134
0.047435 0.016525 0.0077089
0.0472859 0.0160408 0.00819025
0.0596596 0.0174545 0.00718189

VERTICES 235 470
1 0
1 1
1 2
1 3
1 4
1 5
1 6
1 7
1 8
1 9
1 10
1 11
1 12
1 13
1 14
1 15
1 16
1 17
1 18
1 19
1 20
1 21
1 22
1 23
1 24
1 25
1 26
1 27
1 28
1 29
1 30
1 31
1 32
1 33
1 34
1 35
1 36
1 37
1 38
1 39
1 40
1 41
1 42
1 43
1 44
1 45
1 46
1 47
1 48
1 49
1 50
1 51
1 52
1 53
1 54
1 55
1 56
1 57
1 58
1 59
1 60
1 61
1 62
1 63
1 64
1 65
1 66
1 67
1 68
1 69
1 70
1 71
1 72
1 73
1 74
1 75
1 76
1 77
1 78
1 79
1 80
1 81
1 82
1 83
1 84
1 85
1 86
1 87
1 88
1 89
1 90
1 91
1 92
1 93
1 94
1 95
1 96
1 97
1 98
1 99
1 100
1 101
1 102
1 103
1 104
1 105
1 106
1 107
1 108
1 109
1 110
1 111
1 112
1 113
1 114
1 115
1 116
1 117
1 118
1 119
1 120
1 121
1 122
1 123
1 124
1 125
1 126
1 127
1 128
1 129
1 130
1 131
1 132
1 133
1 134
1 135
1 136
1 137
1 138
1 139
1 140
1 141
1 142
1 143
1 144
1 145
1 146
1 147
1 148
1 149
1 150
1 151
1 152
1 153
1 154
1 155
1 156
1 157
1 158
1 159
1 160
1 161
1 162
1 163
1 164
1 165
1 166
1 167
1 168
1 169
1 170
1 171
1 172
1 173
1 174
1 175
1 176
1 177
1 178
1 179
1 180
1 181
1 182
1 183
1 184
1 185
1 186
1 187
1 188
1 189
1 190
1 191
1 192
1 193
1 194
1 195
1 196
1 197
1 198
1 199
1 200
1 201
1 202
1 203
1 204
1 205
1 206
1 207
1 208
1 209
1 210
1 211
1 212
1 213
1 214
1 215
1 216
1 217
1 218
1 219
1 220
1 221
1 222
1 223
1 224
1 225
1 226
1 227
1 228
1 229
1 230
1 231
1 232
1 233
1 234

POINT_DATA 235
SCALARS id int 1
LOOKUP_TABLE default
1
4
5
6
8
9
10
11
12
13
15
17
18
19
23
24
25
26
27
29
30
32
33
34
35
36
38
39
41
42
43
44
45
46
48
50
51
53
54
55
57
58
59
60
61
62
63
64
67
68
69
70
71
72
74
76
77
78
80
81
83
84
85
86
87
89
90
91
92
93
94
95
96
97
98
99
100
101
103
105
106
107
108
110
111
112
113
115
116
117
118
119
120
121
122
123
124
125
127
128
129
130
131
133
135
136
137
138
140
141
142
143
144
145
146
147
148
150
153
154
156
158
159
160
162
163
164
166
167
170
171
173
174
175
176
179
182
183
185
186
187
189
190
191
192
193
194
195
196
197
198
199
200
201
202
203
204
205
206
207
208
210
211
212
213
214
215
216
217
218
220
221
222
223
225
226
227
228
229
230
231
232
233
234
235
238
239
240
241
243
244
246
247
248
250
251
252
255
257
258
259
260
261
262
263
264
266
267
268
269
270
271
273
275
277
278
279
280
281
282
283
284
286
289
290
291
292
293
294
295
296
297
298
299
300

SCALARS type int 1
LOOKUP_TABLE default
1
1
1
1
1
1
1
1
1
1
1
1
1
1
1
1
1
1
1
1
1
1
1
1
1
1
1
1
1
1
1
1
1
1
1
1
1
1
1
1
1
1
1
1
1
1
1
1
1
1
1
1
1
1
1
1
1
1
1
1
1
1
1
1
1
1
1
1
1
1
1
1
1
1
1
1
1
1
1
1
1
1
1
1
1
1
1
1
1
1
1
1
1
1
1
1
1
1
1
1
1
1
1
1
1
1
1
1
1
1
1
1
1
1
1
1
1
1
1
1
1
1
1
1
1
1
1
1
1
1
1
1
1
1
1
1
1
1
1
1
1
1
1
1
1
1
1
1
1
1
1
1
1
1
1
1
1
1
1
1
1
1
1
1
1
1
1
1
1
1
1
1
1
1
1
1
1
1
1
1
1
1
1
1
1
1
1
1
1
1
1
1
1
1
1
1
1
1
1
1
1
1
1
1
1
1
1
1
1
1
1
1
1
1
1
1
1
1
1
1
1
1
1
1
1
1
1
1
1
1
1
1
1
1
1

SCALARS radius float 1
LOOKUP_TABLE default
5e-05
5e-05
5e-05
5e-05
5e-05
5e-05
5e-05
5e-05
5e-05
5e-05
5e-05
5e-05
5e-05
5e-05
5e-05
5e-05
5e-05
5e-05
5e-05
5e-05
5e-05
5e-05
5e-05
5e-05
5e-05
5e-05
5e-05
5e-05
5e-05
5e-05
5e-05
5e-05
5e-05
5e-05
5e-05
5e-05
5e-05
5e-05
5e-05
5e-05
5e-05
5e-05
5e-05
5e-05
5e-05
5e-05
5e-05
5e-05
5e-05
5e-05
5e-05
5e-05
5e-05
5e-05
5e-05
5e-05
5e-05
5e-05
5e-05
5e-05
5e-05
5e-05
5e-05
5e-05
5e-05
5e-05
5e-05
5e-05
5e-05
5e-05
5e-05
5e-05
5e-05
5e-05
5e-05
5e-05
5e-05
5e-05
5e-05
5e-05
5e-05
5e-05
5e-05
5e-05
5e-05
5e-05
5e-05
5e-05
5e-05
5e-05
5e-05
5e-05
5e-05
5e-05
5e-05
5e-05
5e-05
5e-05
5e-05
5e-05
5e-05
5e-05
5e-05
5e-05
5e-05
5e-05
5e-05
5e-05
5e-05
5e-05
5e-05
5e-05
5e-05
5e-05
5e-05
5e-05
5e-05
5e-05
5e-05
5e-05
5e-05
5e-05
5e-05
5e-05
5e-05
5e-05
5e-05
5e-05
5e-05
5e-05
5e-05
5e-05
5e-05
5e-05
5e-05
5e-05
5e-05
5e-05
5e-05
5e-05
5e-05
5e-05
5e-05
5e-05
5e-05
5e-05
5e-05
5e-05
5e-05
5e-05
5e-05
5e-05
5e-05
5e-05
5e-05
5e-05
5e-05
5e-05
5e-05
5e-05
5e-05
5e-05
5e-05
5e-05
5e-05
5e-05
5e-05
5e-05
5e-05
5e-05
5e-05
5e-05
5e-05
5e-05
5e-05
5e-05
5e-05
5e-05
5e-05
5e-05
5e-05
5e-05
5e-05
5e-05
5e-05
5e-05
5e-05
5e-05
5e-05
5e-05
5e-05
5e-05
5e-05
5e-05
5e-05
5e-05
5e-05
5e-05
5e-05
5e-05
5e-05
5e-05
5e-05
5e-05
5e-05
5e-05
5e-05
5e-05
5e-05
5e-05
5e-05
5e-05
5e-05
5e-05
5e-05
5e-05
5e-05
5e-05
5e-05
5e-05
5e-05
5e-05
5e-05
5e-05
5e-05
5e-05
5e-05
5e-05
5e-05
5e-05
5e-05
5e-05
5e-05
5e-05
5e-05

SCALARS mass float 1
LOOKUP_TABLE default
1.46608e-10
1.46608e-10
1.46608e-10
1.46608e-10
1.46608e-10
1.46608e-10
1.46608e-10
1.46608e-10
1.46608e-10
1.46608e-10
1.46608e-10
1.46608e-10
1.46608e-10
1.46608e-10
1.46608e-10
1.46608e-10
1.46608e-10
1.46608e-10
1.46608e-10
1.46608e-10
1.46608e-10
1.46608e-10
1.46608e-10
1.46608e-10
1.46608e-10
1.46608e-10
1.46608e-10
1.46608e-10
1.46608e-10
1.46608e-10
1.46608e-10
1.46608e-10
1.46608e-10
1.46608e-10
1.46608e-10
1.46608e-10
1.46608e-10
1.46608e-10
1.46608e-10
1.46608e-10
1.46608e-10
1.46608e-10
1.46608e-10
1.46608e-10
1.46608e-10
1.46608e-10
1.46608e-10
1.46608e-10
1.46608e-10
1.46608e-10
1.46608e-10
1.46608e-10
1.46608e-10
1.46608e-10
1.46608e-10
1.46608e-10
1.46608e-10
1.46608e-10
1.46608e-10
1.46608e-10
1.46608e-10
1.46608e-10
1.46608e-10
1.46608e-10
1.46608e-10
1.46608e-10
1.46608e-10
1.46608e-10
1.46608e-10
1.46608e-10
1.46608e-10
1.46608e-10
1.46608e-10
1.46608e-10
1.46608e-10
1.46608e-10
1.46608e-10
1.46608e-10
1.46608e-10
1.46608e-10
1.46608e-10
1.46608e-10
1.46608e-10
1.46608e-10
1.46608e-10
1.46608e-10
1.46608e-10
1.46608e-10
1.46608e-10
1.46608e-10
1.46608e-10
1.46608e-10
1.46608e-10
1.46608e-10
1.46608e-10
1.46608e-10
1.46608e-10
1.46608e-10
1.46608e-10
1.46608e-10
1.46608e-10
1.46608e-10
1.46608e-10
1.46608e-10
1.46608e-10
1.46608e-10
1.46608e-10
1.46608e-10
1.46608e-10
1.46608e-10
1.46608e-10
1.46608e-10
1.46608e-10
1.46608e-10
1.46608e-10
1.46608e-10
1.46608e-10
1.46608e-10
1.46608e-10
1.46608e-10
1.46608e-10
1.46608e-10
1.46608e-10
1.46608e-10
1.46608e-10
1.46608e-10
1.46608e-10
1.46608e-10
1.46608e-10
1.46608e-10
1.46608e-10
1.46608e-10
1.46608e-10
1.46608e-10
1.46608e-10
1.46608e-10
1.46608e-10
1.46608e-10
1.46608e-10
1.46608e-10
1.46608e-10
1.46608e-10
1.46608e-10
1.46608e-10
1.46608e-10
1.46608e-10
1.46608e-10
1.46608e-10
1.46608e-10
1.46608e-10
1.46608e-10
1.46608e-10
1.46608e-10
1.46608e-10
1.46608e-10
1.46608e-10
1.46608e-10
1.46608e-10
1.46608e-10
1.46608e-10
1.46608e-10
1.46608e-10
1.46608e-10
1.46608e-10
1.46608e-10
1.46608e-10
1.46608e-10
1.46608e-10
1.46608e-10
1.46608e-10
1.46608e-10
1.46608e-10
1.46608e-10
1.46608e-10
1.46608e-10
1.46608e-10
1.46608e-10
1.46608e-10
1.46608e-10
1.46608e-10
1.46608e-10
1.46608e-10
1.46608e-10
1.46608e-10
1.46608e-10
1.46608e-10
1.46608e-10
1.46608e-10
1.46608e-10
1.46608e-10
1.46608e-10
1.46608e-10
1.46608e-10
1.46608e-10
1.46608e-10
1.46608e-10
1.46608e-10
1.46608e-10
1.46608e-10
1.46608e-10
1.46608e-10
1.46608e-10
1.46608e-10
1.46608e-10
1.46608e-10
1.46608e-10
1.46608e-10
1.46608e-10
1.46608e-10
1.46608e-10
1.46608e-10
1.46608e-10
1.46608e-10
1.46608e-10
1.46608e-10
1.46608e-10
1.46608e-10
1.46608e-10
1.46608e-10
1.46608e-10
1.46608e-10
1.46608e-10
1.46608e-10
1.46608e-10
1.46608e-10
1.46608e-10
1.46608e-10
1.46608e-10
1.46608e-10
1.46608e-10
1.46608e-10
1.46608e-10
1.46608e-10
1.46608e-10
1.46608e-10

VECTORS velocity float
0.00575066 0.00013622 -5.01465e-05
0.00599955 -0.000421206 0.000168778
0.00574048 0.000129854 -3.71126e-05
0.00594357 -0.00041046 0.000162472
0.00545382 0.000190415 -0.000103713
0.00600888 -0.000422996 0.000169832
0.00608407 7.37717e-05 -7.29511e-05
0.00619082 0.000681623 0.00034987
0.00599022 -0.000419413 0.000167728
0.00562002 0.000235756 -0.000146164
0.00565639 0.000233442 -0.000144049
0.00558296 0.000240465 -0.000153533
0.00597156 -0.000415832 0.000165626
0.00583798 0.000156201 -0.000110482
0.00575728 0.000166278 -6.76797e-05
0.00596223 -0.000414041 0.000164575
0.00564307 0.000234741 -0.000145275
0.0059529 -0.00041225 0.000163525
0.00571005 0.000213004 -0.000121925
0.00578684 0.000125625 -3.44379e-05
0.00593424 -0.000408669 0.000161423
0.00583141 0.000105634 -1.61602e-05
0.00591559 -0.000405086 0.000159321
0.00574295 0.000189113 -0.000102448
0.00573909 0.000168348 -5.88842e-05
0.00604142 0.000137939 -4.20635e-05
0.00590781 0.000119183 -2.38287e-05
0.00613444 0.000199207 -0.000101522
0.00575538 0.000108289 -1.92341e-05
0.00577017 0.000188253 -3.93941e-05
0.00578329 0.000140817 -2.78591e-05
1.81074e-14 7.53009e-14 2.12932e-13
0.00592491 -0.000406878 0.000160369
0.00598089 -0.000417623 0.000166677
0.005403 -0.00293026 0.00269292
0.00609256 0.000130379 -3.42392e-05
0.00594537 0.000138197 -4.36004e-05
0.00590626 -0.000403296 0.000158267
0.00564592 0.000160453 -7.52301e-05
0.00526853 -0.00073233 0.000222688
0.00589812 0.000124013 -2.79697e-05
0.0055781 0.000244192 -0.000155671
0.00549632 0.000199932 -0.000113792
0.00551485 0.000221983 -0.00013436
0.00574702 0.000124012 -3.5163e-05
0.00585583 0.000105392 -1.56439e-05
0.00596798 0.000185547 -3.03733e-05
0.00594095 0.000168357 -7.39218e-05
0.00583478 9.49656e-05 -6.7457e-05
0.00558719 5.12108e-05 0.000398005
0.00579697 0.00011554 -2.12859e-05
0.00608302 0.000219185 -0.000113505
0.00553352 -0.000580228 -5.81976e-05
0.00610464 0.000160822 -6.66554e-05
0.00603869 0.000162968 -5.66014e-05
0.005869 7.29629e-05 -6.14423e-05
0.00605427 0.000144781 -3.58028e-05
0.00566335 0.000247096 9.62402e-05
0.00588832 9.1478e-05 -6.10221e-05
0.00575682 0.000408334 -0.000145988
0.00574366 0.000352309 -0.00045596
0.00607017 8.80487e-05 4.00018e-06
0.00637652 0.000510146 -0.00055647
0.00608998 0.000121244 -3.6666e-05
0.0058876 -0.000399713 0.000156165
0.00606619 0.000127011 -2.42786e-05
0.00589693 -0.000401504 0.000157218
-7.13067e-15 2.48271e-14 -7.81459e-14
0.00597733 0.000130713 -3.19304e-05
0.00596915 0.000112058 -2.80554e-05
0.00588061 0.000133628 -3.84391e-05
0.00609549 9.66776e-05 -6.12049e-05
0.00602216 9.57224e-05 3.4694e-06
0.00638107 0.000386802 -0.000500326
0.00586796 0.000114116 -2.8328e-05
0.00677095 0.00153201 -0.000729739
0.00556196 0.000231358 -0.000143188
0.00589504 -0.000246659 -0.000446366
1.43944e-10 -0.0225019 0.00870906
0.00570903 0.000364385 -8.74138e-05
0.00616559 0.000256847 -0.000158867
0.00601057 -0.000630398 -6.39749e-05
0.00579303 0.000141581 -2.6608e-05
0.00586586 0.000156001 -6.90761e-05
0.00594038 0.000167088 -6.12016e-05
-1.15029e-14 -9.04134e-14 -2.15068e-13
0.00606694 0.000211337 -2.50419e-05
0.0058235 6.32852e-05 -6.53028e-05
0.00540593 0.000202933 -0.000115658
0.0057459 0.000133541 -4.46693e-05
0.00561091 0.000309644 -4.79604e-06
0.00585215 0.000114765 -2.04519e-05
0.00588042 -5.17936e-05 -0.000376465
0.00611767 0.000756931 0.000243798
0.00590811 0.000159217 -6.56671e-05
0.00563116 0.000256935 0.000835395
0.00600758 0.00013953 -5.44634e-05
0.00573276 0.000158935 -6.64001e-05
0.00621039 0.00116486 -0.000357884
0.00598 0.000145611 -4.64023e-05
0.00588188 0.000162833 0.000238076
0.00589675 8.79856e-05 0.000375481
0.00597804 0.000112591 0.000334624
0.00591358 0.000183053 -5.68607e-05
0.00582091 0.000162381 -0.00030758
0.00574997 0.000202199 0.000178729
0.00587338 0.000134788 -5.6709e-05
0.00586516 7.89654e-05 -6.76143e-05
0.00588908 0.000109702 -3.18924e-05
0.00584914 9.57924e-05 0.000349411
0.00556578 0.000386162 0.000643065
0.00554363 0.000161815 0.000267473
0.00549217 -0.00175249 0.001075
3.90008e-06 -0.0151398 0.0145889
0.00698613 0.00133349 -0.000392315
0.00590656 6.67869e-05 0.000389168
0.00557439 0.000340195 0.000494137
0.0063271 0.0014583 -0.000719416
0.00647961 0.000712868 0.000417356
0.00588666 0.000589388 0.000403745
0.00563828 0.000107842 0.000295117
0.00553992 0.000407368 0.000667582
0.00547994 0.000198242 0.000888894
0.00546779 0.000227021 0.000304022
0.00572566 0.000504434 0.000490228
0.00831458 0.0108617 -0.00239981
0.00587449 0.000108671 -6.62794e-05
0.00615879 0.00021663 -0.000119508
0.00584671 0.000922718 9.56167e-06
0.00599335 0.000742448 0.000274331
0.00604224 6.37334e-05 8.99604e-06
0.00592445 0.000172543 -7.83709e-05
0.00623922 0.000206881 0.00101944
0.00589046 0.000664964 0.000482954
0.00561059 0.00043457 0.000550509
0.00584473 0.000865067 -2.82252e-06
0.00613564 0.00026971 -0.000172299
0.00600987 0.00114681 0.000848751
0.00593063 9.73825e-07 0.000423792
-1.33516e-16 2.48918e-14 -2.37494e-13
0.00589173 0.000127853 -3.15274e-05
0.00604254 8.68381e-05 1.23177e-05
0.00586952 0.000234434 0.000425948
0.00625993 0.000406375 -0.000507494
0.00661173 0.000906937 -0.000541822
0.00595271 0.000359995 -0.00026908
0.00615539 0.000452031 -0.00057603
0.00626996 0.000731617 -0.000499881
0.00609919 0.000901735 1.00485e-05
0.00604717 0.000495224 0.000615813
0.00594208 0.00177064 0.0011699
0.00630463 -0.000573641 -0.000149969
0.00597673 0.000705293 0.000320049
0.00583896 -0.000437494 -0.000134679
0.00693705 0.000102901 -0.00799693
0.00585745 5.70925e-05 -6.89589e-05
0.00606124 0.000689494 -0.000625231
0.00584463 0.000236841 0.000420718
0.00607762 -0.000558947 -4.1914e-05
0.00578163 0.000867116 -1.22137e-06
0.00599194 -0.00057248 -2.4834e-05
0.005679 0.000184719 -9.36983e-05
0.00596057 -0.000768943 0.000930445
0.00597143 0.000329615 0.000686736
0.00601985 0.000173853 -8.00795e-05
0.00582489 -0.00188762 0.000590977
-2.39332e-14 -9.32269e-14 -1.94034e-13
0.00584549 -0.0010683 -0.000359659
0.00572049 0.000852972 1.03606e-05
0.00641283 -0.000914924 7.91385e-05
0.00101376 -0.0195618 0.0117875
0.00591924 0.000229708 0.0004365
0.0059006 0.000148613 0.000754293
-1.34505e-14 -2.18647e-15 2.19343e-13
0.00561256 -0.002793 0.00088995
0.00610744 -0.000925389 -0.00059876
0.00591608 -0.000200123 0.00147468
0.0053285 -0.000156873 0.00134921
0.00553622 -0.000707422 1.33113e-06
0.00600127 -0.000435382 -0.000161632
0.00620218 0.000123255 -0.0013922
0.0057582 -0.000424396 2.30095e-05
0.00657837 0.00149419 -0.000716884
0.00580774 0.000131375 -3.84765e-05
0.00639553 0.000395898 -0.000535633
0.00573777 -0.000181493 0.00147533
0.00589437 0.000232077 0.000431276
0.00596899 0.00022501 0.000446988
0.00604408 0.000218232 0.00046298
0.00608804 0.000209543 0.000469333
0.0059441 0.000227385 0.000441735
0.00601863 0.000220171 0.000457808
0.0059382 0.000444986 0.000626168
0.00663957 0.00171833 -0.00102167
0.0062538 0.0010063 -0.00016933
0.00609549 -0.00049686 -0.000124153
4.85881e-21 -2.91472e-21 1.37807e-22
0.00624485 0.000836286 0.000148679
0.00615137 -0.00048941 -0.000114529
0.00604292 0.000807916 0.00110071
0.00577113 -0.00211615 0.00131133
0.00591206 0.000131127 -3.96249e-05
0.00614607 -0.00072477 -2.37813e-05
0.00612429 -0.000718517 -2.62545e-05
0.00614178 0.000209438 0.000482692
0.0061716 -0.000492817 -0.000102517
0.00617194 0.000620495 0.000479299
0.00597232 -0.000764667 8.45616e-05
0.00616172 0.00054069 -0.000548745
0.00586518 0.00052946 -0.000582128
0.00620523 0.00106147 -0.000777762
0.00614315 0.00156121 -0.000903509
0.00592994 -0.000800415 2.31755e-05
0.00614523 -0.000283819 -0.000491738
0.00591624 -0.00136517 0.000248806
0.0062497 0.00037746 0.000724428
0.0061936 0.000201009 0.00049317
0.0061175 0.000210732 0.000478786
0.00606716 0.00104261 -0.000197101
0.00621247 0.000195158 0.000511219
0.0060936 0.000213259 0.000473676
0.00559516 -0.000497372 -9.01413e-05
0.00592119 -0.00160476 0.000351965
0.00559535 -0.000372154 -0.000513458
0.00587292 0.000528984 0.000469775
0.00663572 -0.00111027 0.000444414
0.00618057 0.000687017 0.000344178
0.00592163 0.0005943 0.000272224
0.00568975 0.000285397 -0.000435894
0.00617248 0.00049947 -0.0004091
0.00643809 0.000404471 -0.000513245
0.00574078 0.000988357 -0.00017496
0.00616744 0.000208052 0.000485731
0.00599395 0.000222531 0.000452348
0.00585426 7.36811e-05 -6.65677e-05

VECTORS force float
7.48743e-10 -3.69639e-10 4.49325e-10
-3.71233e-14 6.94591e-13 -6.06841e-13
4.87048e-10 1.75041e-10 -2.05413e-10
6.16893e-13 6.42954e-13 -3.59634e-13
-3.82813e-10 -4.80618e-11 -4.15522e-11
-1.32924e-13 7.68242e-13 -4.75165e-13
7.84094e-13 6.70713e-13 -5.57973e-13
-9.17601e-11 1.02188e-10 -3.35404e-10
7.92195e-14 7.48243e-13 -4.17161e-13
-9.29143e-12 6.21542e-11 -9.29882e-11
-1.02849e-10 7.99931e-11 -8.02968e-11
5.63042e-10 2.56442e-10 -2.32526e-10
3.09935e-13 6.79191e-13 -4.70963e-13
-1.55776e-10 5.99476e-10 -1.81112e-09
-3.378e-11 7.63231e-11 -1.23634e-10
4.17023e-13 6.65157e-13 -3.91266e-13
-6.54513e-12 -4.35141e-11 5.34199e-11
5.49027e-13 6.06195e-13 -5.46075e-13
-9.85753e-11 1.44819e-10 -1.62913e-10
-3.08999e-10 -3.02073e-10 2.69063e-10
7.71823e-13 5.68814e-13 -5.16926e-13
1.06429e-12 -1.35015e-10 2.11449e-10
1.00217e-12 5.31347e-13 -4.60256e-13
1.35211e-10 4.6541e-11 -8.11525e-11
5.03907e-11 -5.99159e-12 -3.81097e-10
7.70492e-10 -3.7894e-10 4.43184e-10
-4.66247e-10 4.24966e-11 -7.42316e-12
1.29838e-10 3.81339e-11 -2.23755e-11
3.76247e-10 2.54927e-10 -1.95964e-10
-2.37313e-10 1.32926e-10 4.82102e-10
2.46676e-10 2.32616e-10 1.38901e-11
2.4765e-22 -4.58051e-23 -1.24077e-24
8.40645e-13 6.03269e-13 -3.48264e-13
1.92545e-13 6.7442e-13 -5.19567e-13
5.1456e-10 4.01787e-10 -2.50616e-10
-1.05299e-10 -1.91082e-10 1.81905e-10
-7.39231e-10 -1.98948e-10 9.33229e-12
1.06314e-12 5.52339e-13 -3.70963e-13
-3.82199e-10 -1.73159e-10 2.37575e-10
0.0 0.0 -1.43822e-09
-4.29336e-10 9.44145e-11 -8.05607e-11
5.73188e-11 2.72346e-10 -2.85433e-10
-7.08238e-11 -1.79715e-10 1.90554e-10
1.01203e-10 -1.55893e-10 1.6193e-10
2.08387e-10 1.74928e-10 -1.53444e-10
1.46964e-10 -3.28891e-10 2.87508e-10
1.43418e-11 -1.81365e-11 -1.48841e-10
-1.84169e-10 1.46096e-10 -2.08689e-10
-1.05852e-10 -4.60653e-10 1.19072e-12
1.4326e-10 3.13227e-10 -4.74436e-10
8.54373e-11 3.13753e-11 1.01877e-10
-6.4131e-10 4.82436e-10 -5.7413e-10
-4.0267e-11 -6.99546e-10 3.23411e-10
-5.77582e-11 -3.62355e-10 3.45335e-10
-3.06002e-10 3.68132e-10 -4.37077e-10
-1.21202e-10 5.33241e-10 -2.4584e-10
5.36354e-10 4.75682e-10 -5.34489e-10
1.21525e-10 2.94569e-10 -4.67879e-10
4.00495e-10 -2.77014e-10 -9.028e-11
4.27956e-10 7.61095e-11 -2.94781e-10
3.77e-11 -8.28376e-11 2.25726e-11
5.57713e-10 5.5566e-10 -3.23974e-10
2.26049e-09 -4.40541e-10 4.75162e-11
-2.60561e-11 -5.12842e-11 4.50483e-10
1.30471e-12 5.11802e-13 -3.27733e-13
4.9672e-10 4.79152e-10 -4.10633e-10
1.22034e-12 5.03146e-13 -4.11007e-13
5.56718e-22 1.49048e-22 5.79026e-24
-5.86145e-10 3.93937e-10 -4.24232e-10
-4.80428e-10 -1.91703e-10 2.26055e-10
-9.69248e-11 2.76201e-10 -2.31371e-10
-2.59333e-10 -2.16335e-10 3.04346e-10
-7.85778e-10 4.6166e-10 -4.41305e-10
1.61715e-09 -2.21272e-10 1.16861e-11
2.27212e-09 3.83991e-10 -3.4867e-10
-6.6187e-10 5.43919e-10 -9.0649e-10
-4.44704e-10 1.57731e-10 -1.72801e-10
-5.76031e-10 -7.00981e-10 7.71258e-10
1.93943e-18 7.90643e-12 2.03939e-11
-1.32557e-11 3.56012e-10 -5.25047e-10
-7.25512e-10 6.95043e-10 -7.00764e-10
-7.09797e-10 -2.54433e-10 9.17117e-10
3.71318e-10 1.13883e-09 -8.85895e-10
2.14968e-11 9.41613e-11 -7.82578e-10
-1.09426e-09 -4.3677e-12 1.17974e-10
2.32645e-25 -2.06795e-25 0.0
1.3795e-10 3.81021e-11 2.68896e-11
3.78989e-11 -3.07338e-10 -1.13455e-11
-5.9875e-10 3.06982e-11 -1.7791e-11
-2.39487e-10 -1.73891e-10 2.81491e-10
-1.54492e-09 -3.41364e-09 5.22701e-09
1.97052e-11 -2.72241e-10 2.61297e-10
7.89038e-11 4.32105e-10 2.76257e-10
-4.37699e-10 5.76374e-10 -9.66888e-10
-6.42765e-12 -1.4349e-10 1.80029e-10
-6.68255e-10 6.40509e-10 -1.05314e-09
5.58257e-11 -3.34718e-10 4.61631e-10
-2.27511e-11 1.42603e-10 -1.76085e-10
8.16458e-10 -7.15096e-10 1.78383e-09
-5.89068e-10 -2.74123e-10 2.55756e-10
-2.3241e-10 -3.23834e-10 2.48832e-10
-2.03203e-10 -3.82391e-10 5.37477e-10
6.14819e-10 -5.42301e-11 -6.06436e-11
6.45322e-10 3.8537e-10 -6.47843e-10
-2.50609e-09 1.82988e-09 -2.29447e-11
-6.62436e-10 -1.02038e-09 1.47211e-09
-9.98703e-11 -2.32601e-10 -5.77625e-11
-4.51526e-10 4.33904e-10 -1.74881e-11
1.64384e-10 -1.28857e-10 3.94676e-11
4.48648e-10 -1.81616e-10 4.76826e-10
-6.44125e-11 -1.13633e-09 8.113e-10
1.17356e-09 6.64425e-10 -5.81822e-10
0.0 0.0 -1.43822e-09
1.19601e-13 9.10198e-11 -5.22716e-11
-6.66102e-10 5.60891e-10 -9.35456e-10
-1.89747e-09 -5.64937e-10 1.15054e-10
1.32873e-09 -6.87344e-10 1.67712e-09
-6.49661e-10 5.32098e-10 -9.11503e-10
-4.02514e-10 3.63025e-10 -1.17718e-09
5.71356e-10 1.03718e-09 -1.40887e-09
-1.50573e-09 5.99119e-10 -7.44957e-10
6.44174e-12 5.82082e-10 -9.30949e-10
5.41124e-09 -1.94731e-09 3.91437e-09
2.33686e-09 2.16692e-10 6.69382e-10
-2.42697e-09 8.35103e-10 -1.67099e-09
1.37889e-10 -1.31018e-10 -1.36399e-09
-3.18205e-10 -1.08886e-10 6.77924e-11
6.101e-11 2.83086e-11 -1.18059e-11
1.18001e-09 3.8171e-10 -2.23917e-10
-1.78157e-10 -1.90033e-09 1.497e-09
-4.56802e-11 -3.13e-10 2.80855e-10
1.41086e-11 -3.72187e-10 4.11467e-10
-2.54884e-09 -2.25038e-09 2.41072e-09
0.0 0.0 -1.43822e-09
-3.83697e-11 1.0885e-09 -9.15048e-10
6.82326e-10 6.90702e-10 -1.28037e-09
-3.86949e-10 4.45665e-10 -4.87735e-10
7.25451e-11 -6.36155e-11 -1.39107e-09
0.0 0.0 -1.43822e-09
3.30782e-22 5.45422e-24 2.06795e-25
-3.94688e-10 -6.57461e-10 5.48697e-10
-2.0547e-11 5.93821e-10 -5.99406e-10
4.06848e-13 -1.23819e-12 7.3138e-13
-6.56495e-10 -1.51602e-09 6.77274e-10
-1.26629e-09 -6.03998e-10 1.06947e-09
-7.48009e-10 7.03978e-10 -6.62841e-10
-1.21856e-09 6.90371e-11 8.62058e-10
-8.1809e-10 -5.20985e-10 3.94017e-10
3.19859e-11 1.5811e-10 -1.35829e-10
-1.10709e-09 -4.90897e-11 2.61145e-10
0.0 0.0 -1.43822e-09
-3.53432e-10 -8.35586e-10 1.86815e-09
2.67637e-09 1.76538e-09 -1.37205e-09
4.44542e-10 1.69604e-10 -2.96208e-10
1.42176e-10 -1.10068e-10 -1.33105e-09
3.60499e-10 -1.14103e-10 6.0784e-11
-6.93593e-12 -3.70954e-10 8.06035e-10
1.36616e-12 -1.17899e-12 1.45951e-12
2.05014e-10 -1.81694e-10 2.04706e-10
4.02682e-09 -5.08965e-10 2.19732e-09
-9.10097e-11 -3.70729e-11 -3.24285e-10
-4.36918e-10 2.42048e-10 -2.33482e-10
-1.21465e-10 3.78606e-10 -2.57691e-10
2.74235e-09 2.31839e-09 2.46145e-09
-5.07982e-10 3.49382e-11 -1.05679e-11
-4.84833e-10 -5.50618e-09 3.74869e-09
6.53473e-23 8.27181e-24 -1.15805e-23
7.35521e-11 -4.06357e-10 -4.17317e-10
-1.08476e-09 5.51668e-10 -7.00172e-10
1.29791e-10 -3.02803e-11 -5.93141e-10
3.50913e-11 4.88744e-11 -1.04201e-11
4.11592e-13 -1.31831e-12 8.55221e-13
6.12031e-09 -4.30625e-09 6.94525e-09
4.28066e-23 -6.42311e-22 -3.10193e-24
-5.02672e-10 1.38284e-10 -2.24701e-10
0.0 0.0 -1.43822e-09
-7.0176e-10 5.37064e-10 -1.38847e-09
0.0 0.0 -1.43822e-09
-1.18697e-10 -8.80522e-10 3.75295e-10
9.80258e-10 8.23204e-10 -7.19165e-10
0.0 0.0 -1.43822e-09
1.10858e-09 2.67507e-09 1.88465e-09
-6.34062e-10 5.20412e-10 -9.2709e-10
-8.41707e-10 6.35855e-12 -5.10154e-11
-1.82376e-10 -8.99878e-10 3.2265e-10
1.79433e-09 8.33238e-10 4.74538e-10
7.56491e-13 -9.1972e-13 1.38434e-12
7.41909e-13 -1.71315e-12 3.50689e-12
-2.65155e-12 5.7905e-12 -8.41728e-12
7.82592e-12 3.20278e-12 -7.43106e-12
9.30232e-13 -1.76375e-12 1.02533e-12
-3.01688e-12 1.96737e-12 -5.76981e-13
-6.76526e-10 6.29357e-10 -1.02564e-09
-6.34708e-10 5.10958e-10 -8.97303e-10
-4.32115e-10 -3.33457e-10 3.76543e-10
-1.10367e-09 1.2911e-09 -5.45839e-10
0.0 0.0 0.0
-6.66909e-10 5.88116e-10 -9.84972e-10
-3.89823e-10 -1.07125e-09 2.97978e-10
0.0 0.0 -1.43822e-09