# vtk DataFile Version 3.0
LIGGGHTS particles timestep 12600000
ASCII
DATASET POLYDATA
POINTS 134 float
0.0219471 0.0176042 0.00743406
0.0210021 0.0235752 0.0141592
0.0206629 0.0146112 0.0123048
0.0328911 0.0148162 0.0108205
0.0255919 0.0181029 0.0168491
0.0197456 0.0232205 0.0130349
0.00938048 0.0183393 0.00587271
0.0260148 0.0196703 0.00594114
0.0308614 0.0209203 0.015342
0.0366849 0.0218066 0.0435188
0.0251381 0.0198245 0.0160782
0.0364103 0.0222412 0.0143186
0.0295064 0.0232122 0.0102638
0.0183023 0.0177721 0.0166628
0.000591717 0.0149731 0.0435188
0.0332029 0.0151644 0.00967937
0.0179445 0.0236953 0.0121672
0.0206272 0.0214826 0.0152207
0.019124 0.0146591 0.0144649
0.0158496 0.0145646 0.0140089
0.0318964 0.0163429 0.0148628
0.0181811 0.0138985 0.0331786
0.0199932 0.0162309 0.014945
0.0255455 0.0205237 0.0157142
0.017613 0.0141031 0.0132813
0.003617 0.0285782 0.0435188
0.0356774 0.0227002 0.00928643
0.0204903 0.0229814 0.0147799
0.0196051 0.0193773 0.00612808
0.0340171 0.018057 0.00729547
0.0166478 0.0142653 0.0134861
0.0183735 0.0143594 0.0138775
0.0356184 0.0233294 0.0108312
0.033365 0.0156242 0.00889466
0.0346364 0.0208422 0.00771558
0.0195337 0.0204504 0.0167123
0.0188891 0.0239258 0.0126228
0.026443 0.0150327 0.0129453
0.0252697 0.02126 0.0163227
0.0317259 0.0170643 0.0153541
0.0278219 0.0169802 0.0076923
0.0259791 0.0192988 0.0169762
0.0321496 0.0156743 0.0141523
0.0323722 0.0206686 0.00752273
0.0350534 0.0222405 0.00860557
0.0255496 0.0180226 0.0158232
0.0315373 0.0178955 0.0156624
0.0170798 0.024013 0.0133272
0.0300053 0.0232913 0.0124306
0.0244042 0.0172833 0.0164807
0.0214483 0.0168437 0.00645098
0.0248527 0.0211683 0.0154015
0.0193689 0.0211161 0.0154409
0.0285804 0.0202679 0.00741811
0.0235296 0.0226265 0.0153895
0.0551527 0.0181697 0.00595147
0.0370456 0.0198341 0.0157217
0.0187394 0.0234718 0.0117446
0.0368494 0.0208824 0.0152769
0.0212432 0.02397 0.0132727
0.0303903 0.00406748 0.0435188
0.0220537 0.015457 0.0141117
0.0318335 0.0196861 0.0157536
0.0165751 0.0148586 0.0146312
0.0354438 0.0230844 0.0100245
0.022366 0.0149793 0.0132773
0.0211778 0.0150832 0.00980364
0.0266698 0.0147562 0.0118077
0.0207945 0.0147348 0.0113216
0.0374429 0.0183251 0.0156678
0.0302734 0.0228009 0.0135471
0.0280855 0.0183047 0.00726985
0.0570019 0.0175547 0.00590579
0.0235809 0.0232591 0.0106285
0.023106 0.0223807 0.00888205
0.0202305 0.0240857 0.0129106
0.0151319 0.0152282 0.0137979
0.0337592 0.0167806 0.00785051
0.0221348 0.00230077 0.0435188
0.0178225 0.0233838 0.0112637
0.0289359 0.0218661 0.00821834
0.0211907 0.0151694 0.0137
0.0202702 0.0153905 0.0140204
0.0173918 0.0145248 0.0141606
0.0200079 0.0143323 0.0141312
0.0220375 0.0237503 0.013839
0.0215067 0.0147283 0.0128333
0.031306 0.0188084 0.0158288
0.0297008 0.023385 0.011277
0.0287793 0.0212236 0.00774878
0.0234545 0.0150053 0.0148467
0.0243682 0.0219462 0.0148419
0.0281482 0.0192305 0.0071524
0.0304213 0.0222943 0.0143225
0.0211079 0.0157636 0.0145045
0.0213437 0.0155593 0.00896249
0.0306229 0.0217274 0.0148967
0.0185545 0.014007 0.0129587
0.026935 0.0188837 0.00598981
0.0245729 0.0220526 0.0156153
0.0192687 0.0193805 0.0159337
0.0348531 0.0216947 0.00805835
0.0241229 0.0155087 0.0153942
0.0197231 0.0174951 0.0156617
0.0326518 0.0147903 0.0118732
0.0221996 0.00109062 0.0435188
0.0204633 0.0146239 0.0132857
0.0324693 0.0150115 0.0128806
0.0227065 0.0146211 0.0143055
0.0241615 0.0230466 0.0131321
0.0211088 0.0168824 0.015384
0.0360966 0.0231502 0.0128235
0.0151912 0.0210867 0.0218014
0.0195649 0.0139777 0.0130075
0.020939 0.0138822 0.0137624
0.0163831 0.014307 0.0175739
0.0310728 0.0196539 0.0157668
0.108836 0.0200055 0.00584234
0.0201245 0.0228115 0.0138649
0.0187278 0.0218533 0.014956
0.0253969 0.0189102 0.0161325
0.0218603 0.0147521 0.014822
0.0274387 0.0158443 0.00860593
0.0209367 0.0145716 0.0144857
0.0217803 0.0167652 0.00781785
0.0193876 0.0243464 0.0133811
0.0247176 0.0220815 0.0164207
0.0180578 0.0241147 0.0131454
0.00937694 0.00505359 0.0435188
0.0197177 0.0234888 0.011802
0.0161333 0.023652 0.0140195
0.0218094 0.0143683 0.0138431
0.024947 0.0190645 0.00586966
0.0291604 0.0225368 0.00889346

VERTICES 134 268
1 0
1 1
1 2
1 3
1 4
1 5
1 6
1 7
1 8
1 9
1 10
1 11
1 12
1 13
1 14
1 15
1 16
1 17
1 18
1 19
1 20
1 21
1 22
1 23
1 24
1 25
1 26
1 27
1 28
1 29
1 30
1 31
1 32
1 33
1 34
1 35
1 36
1 37
1 38
1 39
1 40
1 41
1 42
1 43
1 44
1 45
1 46
1 47
1 48
1 49
1 50
1 51
1 52
1 53
1 54
1 55
1 56
1 57
1 58
1 59
1 60
1 61
1 62
1 63
1 64
1 65
1 66
1 67
1 68
1 69
1 70
1 71
1 72
1 73
1 74
1 75
1 76
1 77
1 78
1 79
1 80
1 81
1 82
1 83
1 84
1 85
1 86
1 87
1 88
1 89
1 90
1 91
1 92
1 93
1 94
1 95
1 96
1 97
1 98
1 99
1 100
1 101
1 102
1 103
1 104
1 105
1 106
1 107
1 108
1 109
1 110
1 111
1 112
1 113
1 114
1 115
1 116
1 117
1 118
1 119
1 120
1 121
1 122
1 123
1 124
1 125
1 126
1 127
1 128
1 129
1 130
1 131
1 132
1 133

POINT_DATA 134
SCALARS id int 1
LOOKUP_TABLE default
1
2
4
5
11
13
15
16
17
18
19
20
24
25
27
28
31
32
33
35
37
41
43
44
47
49
52
54
57
59
62
63
65
67
68
71
73
74
76
79
84
86
87
88
89
90
92
97
103
106
108
109
110
112
116
121
122
124
125
126
128
130
131
133
135
137
138
139
141
142
143
147
149
150
151
157
158
160
161
165
166
167
170
171
173
174
179
185
186
187
191
193
194
197
199
200
205
206
215
224
225
226
227
228
229
232
235
237
240
241
242
247
252
253
256
257
258
260
263
268
269
270
271
272
274
275
277
282
284
288
291
294
299
300

SCALARS type int 1
LOOKUP_TABLE default
1
1
1
1
1
1
1
1
1
1
1
1
1
1
1
1
1
1
1
1
1
1
1
1
1
1
1
1
1
1
1
1
1
1
1
1
1
1
1
1
1
1
1
1
1
1
1
1
1
1
1
1
1
1
1
1
1
1
1
1
1
1
1
1
1
1
1
1
1
1
1
1
1
1
1
1
1
1
1
1
1
1
1
1
1
1
1
1
1
1
1
1
1
1
1
1
1
1
1
1
1
1
1
1
1
1
1
1
1
1
1
1
1
1
1
1
1
1
1
1
1
1
1
1
1
1
1
1
1
1
1
1
1
1

SCALARS radius float 1
LOOKUP_TABLE default
0.0005
0.0005
0.0005
0.0005
0.0005
0.0005
0.0005
0.0005
0.0005
0.0005
0.0005
0.0005
0.0005
0.0005
0.0005
0.0005
0.0005
0.0005
0.0005
0.0005
0.0005
0.0005
0.0005
0.0005
0.0005
0.0005
0.0005
0.0005
0.0005
0.0005
0.0005
0.0005
0.0005
0.0005
0.0005
0.0005
0.0005
0.0005
0.0005
0.0005
0.0005
0.0005
0.0005
0.0005
0.0005
0.0005
0.0005
0.0005
0.0005
0.0005
0.0005
0.0005
0.0005
0.0005
0.0005
0.0005
0.0005
0.0005
0.0005
0.0005
0.0005
0.0005
0.0005
0.0005
0.0005
0.0005
0.0005
0.0005
0.0005
0.0005
0.0005
0.0005
0.0005
0.0005
0.0005
0.0005
0.0005
0.0005
0.0005
0.0005
0.0005
0.0005
0.0005
0.0005
0.0005
0.0005
0.0005
0.0005
0.0005
0.0005
0.0005
0.0005
0.0005
0.0005
0.0005
0.0005
0.0005
0.0005
0.0005
0.0005
0.0005
0.0005
0.0005
0.0005
0.0005
0.0005
0.0005
0.0005
0.0005
0.0005
0.0005
0.0005
0.0005
0.0005
0.0005
0.0005
0.0005
0.0005
0.0005
0.0005
0.0005
0.0005
0.0005
0.0005
0.0005
0.0005
0.0005
0.0005
0.0005
0.0005
0.0005
0.0005
0.0005
0.0005

SCALARS mass float 1
LOOKUP_TABLE default
1.46608e-07
1.46608e-07
1.46608e-07
1.46608e-07
1.46608e-07
1.46608e-07
1.46608e-07
1.46608e-07
1.46608e-07
1.46608e-07
1.46608e-07
1.46608e-07
1.46608e-07
1.46608e-07
1.46608e-07
1.46608e-07
1.46608e-07
1.46608e-07
1.46608e-07
1.46608e-07
1.46608e-07
1.46608e-07
1.46608e-07
1.46608e-07
1.46608e-07
1.46608e-07
1.46608e-07
1.46608e-07
1.46608e-07
1.46608e-07
1.46608e-07
1.46608e-07
1.46608e-07
1.46608e-07
1.46608e-07
1.46608e-07
1.46608e-07
1.46608e-07
1.46608e-07
1.46608e-07
1.46608e-07
1.46608e-07
1.46608e-07
1.46608e-07
1.46608e-07
1.46608e-07
1.46608e-07
1.46608e-07
1.46608e-07
1.46608e-07
1.46608e-07
1.46608e-07
1.46608e-07
1.46608e-07
1.46608e-07
1.46608e-07
1.46608e-07
1.46608e-07
1.46608e-07
1.46608e-07
1.46608e-07
1.46608e-07
1.46608e-07
1.46608e-07
1.46608e-07
1.46608e-07
1.46608e-07
1.46608e-07
1.46608e-07
1.46608e-07
1.46608e-07
1.46608e-07
1.46608e-07
1.46608e-07
1.46608e-07
1.46608e-07
1.46608e-07
1.46608e-07
1.46608e-07
1.46608e-07
1.46608e-07
1.46608e-07
1.46608e-07
1.46608e-07
1.46608e-07
1.46608e-07
1.46608e-07
1.46608e-07
1.46608e-07
1.46608e-07
1.46608e-07
1.46608e-07
1.46608e-07
1.46608e-07
1.46608e-07
1.46608e-07
1.46608e-07
1.46608e-07
1.46608e-07
1.46608e-07
1.46608e-07
1.46608e-07
1.46608e-07
1.46608e-07
1.46608e-07
1.46608e-07
1.46608e-07
1.46608e-07
1.46608e-07
1.46608e-07
1.46608e-07
1.46608e-07
1.46608e-07
1.46608e-07
1.46608e-07
1.46608e-07
1.46608e-07
1.46608e-07
1.46608e-07
1.46608e-07
1.46608e-07
1.46608e-07
1.46608e-07
1.46608e-07
1.46608e-07
1.46608e-07
1.46608e-07
1.46608e-07
1.46608e-07
1.46608e-07
1.46608e-07
1.46608e-07
1.46608e-07
1.46608e-07

VECTORS velocity float
-0.000152573 -0.0199947 0.0068984
-0.00051395 -0.000205088 -0.000784285
-0.0388676 0.0395545 0.0367779
0.00023588 -0.00359685 0.0209842
0.0267448 -0.0249321 0.00368281
-0.00328058 0.00065022 -0.0023
3.6477e-15 5.20492e-16 -3.6901e-14
1.76451e-14 2.8398e-15 -2.87664e-13
0.000128717 0.0165279 -0.00783876
-9.6879e-317 9.73506e-317 2.68131e-13
0.00297834 0.00499152 0.00178373
0.000119915 0.0161096 -0.015767
0.000326511 -0.0060929 -0.0197743
0.00297505 -0.0558449 0.0094765
9.71467e-317 9.75789e-317 -8.23806e-13
0.00212375 -0.00483817 0.00901842
-0.00144741 -0.000718155 -0.0136492
9.82553e-06 0.0331039 -0.0224124
-0.109748 0.0249658 0.0893309
0.000372681 0.000274427 -0.00099031
-0.000710334 0.0151955 0.0134583
-0.0112542 -0.172992 0.103044
0.00673445 -0.00434415 -0.00583427
0.000246217 0.00138615 -0.000551396
-0.00136737 0.000625794 -0.00451109
-9.68849e-317 -9.75601e-317 2.88878e-12
-0.000310137 -0.0105748 -0.0183515
-0.00233436 -0.00026678 -0.0024544
-3.58965e-14 1.60842e-14 -3.28528e-13
0.000640199 -0.0171164 0.0024263
-0.000334019 0.00140912 -0.00214083
-0.0214891 -0.00182497 0.000355967
0.00104525 -0.00217983 -0.0168959
0.000887009 -0.00887189 0.0116553
0.00111842 -0.0104618 -0.00441978
-0.0714265 -0.0131663 0.00589465
0.00145535 0.000161709 -0.00136319
0.000115518 0.00691568 0.0203722
-8.77447e-05 -7.09656e-06 -0.000378745
0.000629905 0.012632 0.00808553
0.00178848 -0.0130861 0.00839706
0.0105556 0.0194251 0.0237154
0.00157041 0.0102512 0.0148626
0.000116501 -0.00204137 -0.0035878
0.00118625 -0.0102172 -0.0127816
0.00351346 0.00790306 0.00259386
0.000608336 0.0191604 0.0051997
0.0010083 -0.000380527 -0.00242662
0.00180196 0.00275061 -0.0168813
-3.58323e-09 0.0233753 0.00859258
-2.38878e-14 5.08841e-14 1.84333e-13
0.00132931 0.00759931 -0.00440673
-0.00647949 0.0270875 -0.0138171
-0.000274671 -0.0208967 -0.00640448
-0.00354367 0.0497526 -0.0468106
-1.3e-14 -1.76762e-14 -2.51654e-13
0.00402814 0.00286154 -0.0012759
-0.000118884 -0.000377619 -0.0056274
0.00106034 0.0117705 -0.00509831
-7.72902e-05 0.000558297 -0.00028722
-9.67556e-317 -9.75879e-317 -3.22607e-12
0.094776 0.0196745 0.0337521
0.00189138 0.0172236 -0.00342097
-0.00039382 0.00110768 -0.000561133
0.000631377 -0.00730848 -0.0175731
-0.0239778 0.0181604 0.0346448
0.000753412 -0.00705694 0.0174294
0.0013522 4.44622e-05 0.0138033
0.000593052 -0.00175993 0.0119432
2.80421e-05 0.0214796 0.0044645
0.000175582 0.0108528 -0.018831
0.0483224 -0.107773 0.0758957
4.3695e-15 1.18817e-14 2.80768e-13
0.000851918 -0.00300774 -0.0138482
0.00180214 -0.0110976 -0.0119684
-0.00131714 -0.000310615 -0.000679464
-0.00098224 -0.000226898 0.00172047
5.94265e-05 -0.0196251 0.0109422
9.74157e-317 -9.69799e-317 9.23294e-13
-0.000217583 -1.48241e-05 -0.00218839
0.000418766 -0.0152297 -0.0140853
0.0225364 0.0332197 0.0558309
0.00276619 -0.00102364 -0.00127435
-0.00109114 0.00396048 -0.00410052
-0.00957214 -0.0788194 0.20699
5.12393e-05 -0.000569463 -0.00094554
-0.0268913 0.0235612 0.0747221
0.000924271 0.0205668 0.002667
0.000379761 -0.000236899 -0.0215343
0.000333564 -0.0175217 -0.00882694
-6.56384e-05 0.000283134 -0.000504939
-0.00038453 0.00568447 -0.000858988
-0.464911 0.00620641 1.67197
0.00124668 0.0117601 -0.0142706
0.00616761 -0.000432177 0.0018078
0.000528203 -0.011983 0.0187331
0.00205917 0.0130064 -0.00903001
0.000202703 -0.000619307 0.00086865
1.43031e-14 2.30435e-15 -2.33189e-13
-6.81186e-05 0.00313494 -0.000262098
0.000467793 0.0209579 -0.00162108
0.00176414 -0.00530293 -0.00677496
-0.000132394 -0.000652525 0.000514365
2.45975e-12 0.0192185 0.00715517
0.00136129 0.000944426 0.0189391
9.58743e-317 9.68145e-317 4.97437e-14
-0.00596871 0.0263409 0.071009
0.000146712 0.0066203 0.0204328
-0.000491842 -0.000745937 0.000744987
0.00135656 0.00897275 -0.0170202
-2.07354e-05 0.00238337 2.15224e-05
0.000185208 0.0069812 -0.0206645
-0.383548 0.0331031 0.126584
-0.00011014 -0.000485072 0.000805709
-0.00260211 -0.0179819 0.0487071
0.124026 0.10051 -0.273515
0.000712101 0.019173 -0.00340034
7.67081e-16 -1.27165e-15 -6.9746e-15
-0.00329155 0.00130907 -0.00231663
-0.00188224 0.0487651 -0.0371971
-0.00702553 0.0036043 0.00912779
0.00619304 0.0104919 0.00801995
0.00128047 -0.0123553 0.0124917
0.00202688 0.0139322 0.0343013
0.000255458 -0.0176453 0.0110547
-0.00139721 -0.000515025 -0.00104396
-7.07376e-05 0.000484489 -0.000321968
1.46516e-05 -0.000229651 -0.00424997
-9.68799e-317 -9.69932e-317 9.23294e-13
-0.000189886 0.00162765 0.00488827
0.00319761 0.00154916 -0.00167791
-0.00264355 0.00109773 -0.0055831
2.626e-15 3.63809e-16 -4.25286e-14
0.000525743 -0.0123206 -0.0157454

VECTORS force float
5.38189e-09 -3.39021e-08 2.72442e-08
-1.00141e-07 4.06229e-08 1.60755e-07
-2.03021e-07 -8.15975e-07 -4.83398e-07
-9.62125e-10 9.61097e-09 6.89526e-09
0.0 0.0 -1.43822e-06
-2.63434e-07 -1.00964e-07 1.01051e-07
1.90582e-21 4.56935e-21 2.11758e-22
-9.26442e-23 -3.29218e-21 0.0
2.76452e-07 1.1366e-07 1.13877e-07
0.0 0.0 0.0
3.09584e-06 -8.60377e-06 1.22958e-06
4.62917e-10 -7.16849e-09 -9.97157e-09
-2.7167e-09 -1.0898e-08 -6.53481e-09
0.0 0.0 -1.43822e-06
0.0 0.0 0.0
7.69328e-10 1.15146e-08 -7.69307e-08
-9.36947e-07 6.06541e-05 7.84033e-05
7.07876e-11 1.31559e-07 -1.46652e-07
0.000124517 6.54736e-06 -2.86229e-05
3.9759e-09 1.60573e-07 -2.66982e-07
1.65936e-08 -7.69942e-11 -3.67327e-08
0.0 0.0 -1.43822e-06
4.2446e-08 -1.60381e-07 -1.08874e-07
1.35056e-06 -2.83438e-06 5.9433e-06
-6.59449e-06 -5.27405e-06 -1.8663e-05
0.0 0.0 0.0
1.00577e-09 -1.01739e-08 3.16764e-10
-2.25832e-07 -3.02428e-07 3.20662e-07
-5.29396e-23 1.68083e-20 6.35275e-22
1.50859e-09 1.73171e-08 1.74337e-08
1.54276e-07 -1.51914e-07 -3.45168e-07
-8.65007e-05 -4.3772e-06 1.23727e-05
-3.37727e-09 -1.26641e-08 5.83188e-09
2.59969e-09 1.95061e-08 1.15154e-08
-3.08518e-09 3.33084e-09 1.92627e-09
0.0 0.0 -1.43822e-06
-1.04171e-07 -2.44723e-06 -3.27545e-06
-4.6609e-10 1.24039e-08 4.16742e-10
3.39392e-06 -1.23043e-07 5.40282e-06
2.39e-08 -7.82289e-08 -8.75592e-08
-9.74115e-09 -3.86152e-09 2.04297e-08
-6.63904e-07 -2.51675e-07 -1.43609e-06
-3.45043e-09 -4.23595e-09 -1.78452e-08
7.64002e-09 1.81025e-07 2.15859e-08
4.47878e-09 -7.6347e-09 1.03009e-08
8.25951e-07 -6.22033e-06 -6.17868e-07
1.28501e-09 -1.20014e-08 -1.47379e-08
3.76405e-07 1.20573e-07 -1.60763e-07
-2.15979e-08 8.94162e-09 -5.18342e-08
2.08714e-12 6.10458e-09 -1.58836e-08
1.43466e-20 -2.74227e-20 1.2282e-20
-3.73643e-08 6.86086e-07 -2.488e-06
2.52911e-07 3.61735e-08 -6.09865e-08
2.08437e-08 -8.41109e-08 -5.18026e-08
2.17072e-08 2.46212e-07 -3.49663e-07
7.71991e-20 -3.58798e-20 -1.69407e-21
8.05352e-10 4.7429e-09 1.04483e-08
3.7209e-05 3.49011e-05 0.000131838
2.15279e-09 -7.82937e-09 1.33246e-09
-1.47068e-09 7.92869e-09 2.62391e-08
0.0 0.0 0.0
7.85848e-05 4.4524e-05 3.50285e-05
-1.53573e-08 3.45992e-08 -1.6169e-08
-5.5563e-07 5.32592e-08 -1.73892e-07
-2.5604e-09 -1.21832e-08 -4.88237e-09
-0.000103103 -5.55155e-05 -8.40843e-05
-1.20453e-08 -6.60321e-09 5.22786e-08
2.57926e-09 7.58995e-09 -3.61496e-08
-1.87888e-07 4.14686e-07 -1.10196e-08
-1.43286e-09 6.17234e-09 -1.03962e-08
2.55727e-08 5.43961e-09 -2.04187e-08
-0.00613804 -0.00479984 0.0198205
-3.72264e-20 1.63186e-20 0.0
2.18511e-09 2.50875e-08 2.07006e-10
-6.66298e-09 -1.56032e-08 -7.00714e-09
-1.55795e-07 7.20944e-09 2.70619e-07
1.91207e-07 -9.95119e-08 -3.71759e-07
-1.05376e-09 2.76011e-09 1.14156e-08
0.0 0.0 0.0
1.2069e-05 7.58207e-06 5.72355e-05
-2.65236e-09 -1.06838e-08 3.04283e-09
-3.43091e-05 -4.34171e-05 -3.02111e-05
-1.74922e-05 2.81164e-05 4.00607e-05
1.03862e-07 -1.90695e-07 -1.28327e-06
-3.06965e-05 6.40408e-06 3.49712e-05
3.91434e-08 1.57922e-08 1.1136e-07
-3.18055e-05 -3.33413e-05 -7.44481e-05
3.69006e-09 -1.39585e-09 -9.34635e-09
1.97465e-09 -1.02281e-08 -2.84268e-09
-3.48503e-09 -1.73186e-08 3.41735e-09
-8.21426e-09 1.04675e-07 -4.14924e-07
-1.01171e-08 -9.39053e-08 3.78335e-07
-1.22512 0.601649 1.77626
-5.07901e-07 3.70132e-07 2.05463e-08
-1.63709e-07 -2.84835e-07 -2.48222e-07
5.93814e-09 -8.22977e-08 1.32e-07
3.29107e-07 4.31833e-07 -2.91544e-07
-1.1101e-07 4.31936e-10 -3.27143e-08
-1.19114e-22 1.24077e-22 0.0
2.78294e-07 -3.46779e-07 1.66469e-06
-2.35705e-10 -1.07147e-10 -1.44147e-08
1.9864e-09 6.31356e-08 2.94564e-08
-4.79778e-08 -5.93281e-08 2.39404e-09
1.23689e-14 4.73908e-09 -1.27961e-08
-1.19493e-08 -1.37253e-08 -5.73565e-08
0.0 0.0 0.0
0.000109444 -2.42454e-05 -9.31517e-05
-9.86028e-10 1.18584e-08 1.76982e-09
5.49136e-08 2.15411e-08 -3.36719e-07
-6.72465e-09 -2.90683e-08 6.95992e-09
9.97471e-10 -9.99565e-08 -4.82453e-08
-2.07605e-09 -5.83372e-09 -1.43916e-08
0.0 0.0 -1.43822e-06
-3.00481e-09 -1.35573e-08 2.24915e-08
-3.46206e-05 4.41755e-05 -5.55374e-05
0.0 0.0 -1.43822e-06
-3.83309e-10 9.57657e-09 -1.75705e-08
0.0 -7.41154e-21 1.27055e-21
3.09525e-07 1.51007e-07 1.86529e-07
2.34586e-08 1.18232e-07 -1.80999e-07
6.85156e-06 -5.52871e-06 -9.1851e-06
2.6234e-05 1.82182e-05 3.42649e-05
1.13153e-08 -5.01103e-08 1.13945e-07
-9.14096e-06 -4.32328e-06 1.02021e-05
-2.55363e-09 -6.1511e-09 1.50317e-08
-3.23531e-07 5.03662e-08 1.80842e-07
-5.68925e-07 8.67899e-07 7.17097e-07
-1.16295e-06 7.69827e-07 1.14964e-06
0.0 0.0 0.0
1.6405e-05 7.43302e-06 7.38345e-05
-1.25323e-08 4.79542e-09 3.07229e-08
-1.18591e-07 3.03423e-07 -1.01588e-06
-1.67501e-19 7.37018e-19 -3.38813e-21
-1.38649e-09 -1.19697e-08 3.50884e-10
