# vtk DataFile Version 3.0
LIGGGHTS particles timestep 4800000
ASCII
DATASET POLYDATA
POINTS 233 float
0.0157785 0.022487 0.0143023
0.0172405 0.0232053 0.0142089
0.019213 0.0241151 0.0143843
0.014649 0.022453 0.0178745
0.0260671 0.0210723 0.00777769
0.021593 0.0227315 0.0140098
0.0180245 0.0240109 0.0163801
0.0187412 0.0179427 0.0158108
0.018768 0.0243216 0.0134731
0.00938048 0.0183393 0.00587271
0.0133719 0.0197837 0.0166926
0.0244886 0.020475 0.0167051
0.0361608 0.021971 0.0436549
0.0204964 0.0226022 0.00908544
0.02836 0.019909 0.0157266
0.0177842 0.0242641 0.0135382
0.025156 0.0218395 0.0166973
0.0166038 0.0236506 0.0151762
0.0133244 0.0298606 0.0338176
0.0173452 0.0199681 0.0158832
0.0263088 0.0219581 0.00837609
0.0173704 0.0157983 0.015226
0.0188188 0.0139671 0.0142781
0.0197424 0.0244735 0.0135076
0.0170697 0.0164641 0.0159074
0.0179952 0.0231154 0.0148576
0.0173923 0.0142011 0.0139516
0.0245864 0.0188106 0.0159348
0.0212631 0.0232171 0.0128247
0.0239851 0.0147541 0.0118828
0.021557 0.0238815 0.013414
0.0201544 0.0227497 0.0152373
0.0182247 0.0240512 0.0126847
0.0175269 0.0236059 0.0155931
0.0206032 0.0211441 0.0163202
0.0168191 0.0183837 0.0162604
0.0186339 0.0236565 0.0154043
0.0217593 0.0240711 0.014344
0.0154242 0.0229822 0.0173999
0.0238909 0.0152966 0.0152364
0.0188737 0.0170429 0.0164617
0.0136151 0.0205141 0.0173307
0.0205245 0.0239893 0.0121386
0.0266596 0.0230395 0.00983766
0.0207948 0.0241939 0.0141025
0.0170286 0.0220348 0.0169986
0.0243964 0.0224412 0.0162045
0.0247895 0.0171352 0.0155076
0.0265124 0.0226736 0.00909046
0.0270317 0.0233994 0.0112482
0.0200249 0.0146646 0.0156732
0.0231115 0.0147885 0.0146239
0.0161459 0.0150023 0.0148835
0.0205818 0.0240643 0.013134
0.0194324 0.0230372 0.0158666
0.0175754 0.0189976 0.0159598
0.0225506 0.0194991 0.0159214
0.0204288 0.0220102 0.0158519
0.0124019 0.0199953 0.016573
0.0176875 0.0150438 0.0134217
0.0191784 0.0139381 0.0130733
0.0143908 0.0197186 0.0167064
0.0203322 0.022015 0.0083835
0.0243109 0.0149313 0.010357
0.0273508 0.0231347 0.0128846
0.0279597 0.0216541 0.01489
0.0188883 0.0194886 0.0167305
0.0227649 0.018409 0.0159083
0.0242464 0.0197564 0.015887
0.0169846 0.0206953 0.0165588
0.0178662 0.0213279 0.0168416
0.0174373 0.0241011 0.014432
0.0225702 0.0204761 0.0157078
0.0225729 0.0213853 0.0152827
0.0225304 0.0235671 0.0140332
0.0206649 0.0157019 0.0160557
0.0251493 0.0214098 0.0160824
0.0209334 0.015002 0.015394
0.0165748 0.0227368 0.01482
0.0203993 0.0187271 0.00600944
0.0194073 0.0220385 0.0158151
0.0159627 0.0144441 0.0140696
0.0153863 0.0216113 0.0161239
0.0228872 0.0154575 0.0153848
0.0183643 0.0198925 0.0158982
0.0171115 0.0208945 0.0155873
0.0168424 0.0217178 0.015089
0.0166553 0.0227939 0.0175318
0.0172662 0.0228675 0.0164413
0.0551067 0.0178697 0.00597491
0.0290183 0.0170336 0.0152636
0.021204 0.0230481 0.0199688
0.0286244 0.0189628 0.015848
0.0192908 0.0240085 0.0160719
0.0196072 0.0147834 0.012755
0.0303903 0.00406748 0.0435188
0.0190677 0.0144799 0.0150997
0.0185771 0.0189172 0.0159691
0.0151674 0.014776 0.0145772
0.0255404 0.0205313 0.0165393
0.0224182 0.0189014 0.0167146
0.0229581 0.0232153 0.014822
0.0281033 0.0209263 0.015404
0.0192031 0.0142385 0.0160623
0.0138261 0.0188943 0.0167453
0.0151699 0.0231515 0.0155476
0.0246297 0.016057 0.0156462
0.0293175 0.0160317 0.0145732
0.0217858 0.0144326 0.0170925
0.018307 0.0152603 0.0150774
0.0196077 0.0192658 0.00721163
0.0182116 0.0230625 0.016098
0.0234554 0.01994 0.016495
0.0195885 0.0155306 0.0153647
0.0200282 0.0179064 0.00732121
0.0222237 0.0232348 0.0126885
0.0169925 0.0238394 0.0164061
0.0190326 0.0146243 0.0119339
0.0183509 0.0236355 0.0140718
0.0173362 0.0217304 0.0160956
0.0156698 0.0226242 0.0164992
0.0411097 0.00506904 0.0343895
0.0168445 0.0239484 0.0135577
0.0158462 0.0216201 0.017021
0.0253366 0.0181613 0.0166828
0.0214412 0.0234578 0.0123027
0.0178891 0.0216658 0.0151419
0.0230928 0.0164262 0.0157506
0.0162216 0.0233814 0.0168486
0.0163753 0.0219628 0.0162449
0.0181467 0.0208311 0.0156296
0.0232104 0.0229694 0.0157202
0.021916 0.0220324 0.0148086
0.0146857 0.0206543 0.0165133
0.0229871 0.0174149 0.0156443
0.0187606 0.0155272 0.0159277
0.0207238 0.0204194 0.00743942
0.018696 0.0225886 0.0153569
0.0220653 0.0150669 0.0149693
0.0238442 0.0179082 0.0157924
0.0173 0.0195371 0.0167851
0.0167129 0.0142024 0.0146853
0.0235079 0.0190815 0.0159574
0.0222688 0.0144904 0.0141756
0.017913 0.0203406 0.0166703
0.0212144 0.0242548 0.0337347
0.021255 0.0147365 0.0144853
0.023447 0.0157275 0.0144508
0.0198058 0.0140709 0.0142977
0.0235716 0.0152737 0.0135681
0.0202019 0.0148953 0.0147165
0.0153504 0.0154204 0.0153221
0.0133328 0.0217047 0.0163107
0.0202258 0.0140518 0.0130413
0.0212046 0.0171964 0.0164163
0.0191613 0.0209344 0.016382
0.0232489 0.0176963 0.0165674
0.0220522 0.0230132 0.0134351
0.0241271 0.0214851 0.0163697
0.0207206 0.0137548 0.0140674
0.0232745 0.0227347 0.0140135
0.019236 0.0231826 0.0147606
0.0203188 0.0166341 0.0161611
0.0181456 0.0164471 0.0151003
0.0180335 0.0146182 0.0119751
0.0175967 0.015323 0.0143767
0.0161538 0.0237866 0.0142579
0.0187797 0.015773 0.00868003
0.0276839 0.0224519 0.0140379
0.0138627 0.0222602 0.01567
0.0143164 0.0215097 0.0161506
0.0239109 0.0166934 0.016271
0.0176745 0.0180117 0.015822
0.0246955 0.0220406 0.0157285
0.0213585 0.0226194 0.0157498
0.0186433 0.0152611 0.0138203
0.01982 0.0178316 0.016606
0.0249325 0.0162978 0.00820113
0.0239119 0.0215749 0.0151705
0.0206921 0.0191497 0.0167543
0.0218997 0.0164878 0.0161165
0.0169005 0.0173883 0.0162467
0.0131543 0.0207335 0.0164677
0.0273591 0.0228567 0.00938401
0.0125004 0.01922 0.0159493
0.0216676 0.015599 0.0157168
0.0239355 0.0166716 0.0152716
0.0158093 0.0224048 0.0153692
0.016737 0.0240857 0.017342
0.0143184 0.0229298 0.0150835
0.0190947 0.0171084 0.00763065
0.0161518 0.0212264 0.0156066
0.0165003 0.0233596 0.0128364
0.0192344 0.0178773 0.00734117
0.0224485 0.0225596 0.0142123
0.0188155 0.0235007 0.0167911
0.0241613 0.0207191 0.0156247
0.0209222 0.0233385 0.0146045
0.0149204 0.0172048 0.0164386
0.0189091 0.0224993 0.0165575
0.0143778 0.0151811 0.01504
0.0200364 0.0237369 0.0151585
0.0174192 0.022303 0.0145315
0.0163713 0.0202907 0.0158799
0.0157996 0.0197745 0.016737
0.0149632 0.0220884 0.016998
0.0193937 0.0163144 0.0159558
0.0219264 0.0231937 0.0148812
0.0239914 0.0225604 0.0153019
0.0207655 0.0232288 0.0103552
0.0165792 0.0193425 0.0161154
0.0155589 0.0230131 0.0135138
0.01477 0.0223968 0.0160667
0.0199418 0.0236976 0.0139284
0.0188879 0.0170207 0.015452
0.0183016 0.0143181 0.0135523
0.0164324 0.0229798 0.0158995
0.0237515 0.0149671 0.0127694
0.0175656 0.0225339 0.0155474
0.0204057 0.0195352 0.00720444
0.00937694 0.00505359 0.0435188
0.0213191 0.014825 0.0162996
0.018369 0.021873 0.0159955
0.0189489 0.0163997 0.00804374
0.0140923 0.0213657 0.0171143
0.0231101 0.0220589 0.014772
0.0189376 0.0159325 0.0146768
0.0157546 0.0207647 0.0165079
0.0214619 0.0142557 0.0136335
0.0211859 0.023023 0.00971801
0.0153215 0.0233428 0.0145808
0.024947 0.0190645 0.00586966
0.0164905 0.0229058 0.0136908

VERTICES 233 466
1 0
1 1
1 2
1 3
1 4
1 5
1 6
1 7
1 8
1 9
1 10
1 11
1 12
1 13
1 14
1 15
1 16
1 17
1 18
1 19
1 20
1 21
1 22
1 23
1 24
1 25
1 26
1 27
1 28
1 29
1 30
1 31
1 32
1 33
1 34
1 35
1 36
1 37
1 38
1 39
1 40
1 41
1 42
1 43
1 44
1 45
1 46
1 47
1 48
1 49
1 50
1 51
1 52
1 53
1 54
1 55
1 56
1 57
1 58
1 59
1 60
1 61
1 62
1 63
1 64
1 65
1 66
1 67
1 68
1 69
1 70
1 71
1 72
1 73
1 74
1 75
1 76
1 77
1 78
1 79
1 80
1 81
1 82
1 83
1 84
1 85
1 86
1 87
1 88
1 89
1 90
1 91
1 92
1 93
1 94
1 95
1 96
1 97
1 98
1 99
1 100
1 101
1 102
1 103
1 104
1 105
1 106
1 107
1 108
1 109
1 110
1 111
1 112
1 113
1 114
1 115
1 116
1 117
1 118
1 119
1 120
1 121
1 122
1 123
1 124
1 125
1 126
1 127
1 128
1 129
1 130
1 131
1 132
1 133
1 134
1 135
1 136
1 137
1 138
1 139
1 140
1 141
1 142
1 143
1 144
1 145
1 146
1 147
1 148
1 149
1 150
1 151
1 152
1 153
1 154
1 155
1 156
1 157
1 158
1 159
1 160
1 161
1 162
1 163
1 164
1 165
1 166
1 167
1 168
1 169
1 170
1 171
1 172
1 173
1 174
1 175
1 176
1 177
1 178
1 179
1 180
1 181
1 182
1 183
1 184
1 185
1 186
1 187
1 188
1 189
1 190
1 191
1 192
1 193
1 194
1 195
1 196
1 197
1 198
1 199
1 200
1 201
1 202
1 203
1 204
1 205
1 206
1 207
1 208
1 209
1 210
1 211
1 212
1 213
1 214
1 215
1 216
1 217
1 218
1 219
1 220
1 221
1 222
1 223
1 224
1 225
1 226
1 227
1 228
1 229
1 230
1 231
1 232

POINT_DATA 233
SCALARS id int 1
LOOKUP_TABLE default
1
2
3
4
5
7
9
11
13
15
16
17
18
19
20
23
24
25
26
27
28
29
30
31
32
33
34
35
36
37
40
41
43
44
45
47
49
50
51
52
53
54
57
59
62
63
64
65
67
68
69
71
73
74
75
76
78
79
80
83
84
85
86
87
88
89
90
91
92
93
95
97
98
99
102
103
104
105
106
108
109
110
111
112
113
114
116
117
118
121
122
124
125
126
127
128
129
130
131
132
133
134
135
137
138
139
141
142
143
144
145
146
147
148
149
150
151
152
153
154
155
156
157
158
160
161
163
164
165
166
167
168
170
171
173
174
175
177
179
181
183
184
185
186
187
189
191
192
193
194
197
199
200
201
203
205
206
208
211
214
215
217
218
220
221
223
224
225
226
227
228
229
230
231
232
234
235
237
239
240
241
242
246
247
248
249
250
251
252
253
254
255
256
257
258
259
260
261
262
263
264
265
266
267
268
269
270
271
272
273
274
275
276
277
278
279
280
281
282
283
284
285
286
288
289
291
293
294
295
296
298
299
300

SCALARS type int 1
LOOKUP_TABLE default
1
1
1
1
1
1
1
1
1
1
1
1
1
1
1
1
1
1
1
1
1
1
1
1
1
1
1
1
1
1
1
1
1
1
1
1
1
1
1
1
1
1
1
1
1
1
1
1
1
1
1
1
1
1
1
1
1
1
1
1
1
1
1
1
1
1
1
1
1
1
1
1
1
1
1
1
1
1
1
1
1
1
1
1
1
1
1
1
1
1
1
1
1
1
1
1
1
1
1
1
1
1
1
1
1
1
1
1
1
1
1
1
1
1
1
1
1
1
1
1
1
1
1
1
1
1
1
1
1
1
1
1
1
1
1
1
1
1
1
1
1
1
1
1
1
1
1
1
1
1
1
1
1
1
1
1
1
1
1
1
1
1
1
1
1
1
1
1
1
1
1
1
1
1
1
1
1
1
1
1
1
1
1
1
1
1
1
1
1
1
1
1
1
1
1
1
1
1
1
1
1
1
1
1
1
1
1
1
1
1
1
1
1
1
1
1
1
1
1
1
1
1
1
1
1
1
1
1
1
1
1
1
1

SCALARS radius float 1
LOOKUP_TABLE default
0.0005
0.0005
0.0005
0.0005
0.0005
0.0005
0.0005
0.0005
0.0005
0.0005
0.0005
0.0005
0.0005
0.0005
0.0005
0.0005
0.0005
0.0005
0.0005
0.0005
0.0005
0.0005
0.0005
0.0005
0.0005
0.0005
0.0005
0.0005
0.0005
0.0005
0.0005
0.0005
0.0005
0.0005
0.0005
0.0005
0.0005
0.0005
0.0005
0.0005
0.0005
0.0005
0.0005
0.0005
0.0005
0.0005
0.0005
0.0005
0.0005
0.0005
0.0005
0.0005
0.0005
0.0005
0.0005
0.0005
0.0005
0.0005
0.0005
0.0005
0.0005
0.0005
0.0005
0.0005
0.0005
0.0005
0.0005
0.0005
0.0005
0.0005
0.0005
0.0005
0.0005
0.0005
0.0005
0.0005
0.0005
0.0005
0.0005
0.0005
0.0005
0.0005
0.0005
0.0005
0.0005
0.0005
0.0005
0.0005
0.0005
0.0005
0.0005
0.0005
0.0005
0.0005
0.0005
0.0005
0.0005
0.0005
0.0005
0.0005
0.0005
0.0005
0.0005
0.0005
0.0005
0.0005
0.0005
0.0005
0.0005
0.0005
0.0005
0.0005
0.0005
0.0005
0.0005
0.0005
0.0005
0.0005
0.0005
0.0005
0.0005
0.0005
0.0005
0.0005
0.0005
0.0005
0.0005
0.0005
0.0005
0.0005
0.0005
0.0005
0.0005
0.0005
0.0005
0.0005
0.0005
0.0005
0.0005
0.0005
0.0005
0.0005
0.0005
0.0005
0.0005
0.0005
0.0005
0.0005
0.0005
0.0005
0.0005
0.0005
0.0005
0.0005
0.0005
0.0005
0.0005
0.0005
0.0005
0.0005
0.0005
0.0005
0.0005
0.0005
0.0005
0.0005
0.0005
0.0005
0.0005
0.0005
0.0005
0.0005
0.0005
0.0005
0.0005
0.0005
0.0005
0.0005
0.0005
0.0005
0.0005
0.0005
0.0005
0.0005
0.0005
0.0005
0.0005
0.0005
0.0005
0.0005
0.0005
0.0005
0.0005
0.0005
0.0005
0.0005
0.0005
0.0005
0.0005
0.0005
0.0005
0.0005
0.0005
0.0005
0.0005
0.0005
0.0005
0.0005
0.0005
0.0005
0.0005
0.0005
0.0005
0.0005
0.0005
0.0005
0.0005
0.0005
0.0005
0.0005
0.0005
0.0005
0.0005
0.0005
0.0005
0.0005
0.0005
0.0005
0.0005
0.0005
0.0005
0.0005
0.0005

SCALARS mass float 1
LOOKUP_TABLE default
1.46608e-07
1.46608e-07
1.46608e-07
1.46608e-07
1.46608e-07
1.46608e-07
1.46608e-07
1.46608e-07
1.46608e-07
1.46608e-07
1.46608e-07
1.46608e-07
1.46608e-07
1.46608e-07
1.46608e-07
1.46608e-07
1.46608e-07
1.46608e-07
1.46608e-07
1.46608e-07
1.46608e-07
1.46608e-07
1.46608e-07
1.46608e-07
1.46608e-07
1.46608e-07
1.46608e-07
1.46608e-07
1.46608e-07
1.46608e-07
1.46608e-07
1.46608e-07
1.46608e-07
1.46608e-07
1.46608e-07
1.46608e-07
1.46608e-07
1.46608e-07
1.46608e-07
1.46608e-07
1.46608e-07
1.46608e-07
1.46608e-07
1.46608e-07
1.46608e-07
1.46608e-07
1.46608e-07
1.46608e-07
1.46608e-07
1.46608e-07
1.46608e-07
1.46608e-07
1.46608e-07
1.46608e-07
1.46608e-07
1.46608e-07
1.46608e-07
1.46608e-07
1.46608e-07
1.46608e-07
1.46608e-07
1.46608e-07
1.46608e-07
1.46608e-07
1.46608e-07
1.46608e-07
1.46608e-07
1.46608e-07
1.46608e-07
1.46608e-07
1.46608e-07
1.46608e-07
1.46608e-07
1.46608e-07
1.46608e-07
1.46608e-07
1.46608e-07
1.46608e-07
1.46608e-07
1.46608e-07
1.46608e-07
1.46608e-07
1.46608e-07
1.46608e-07
1.46608e-07
1.46608e-07
1.46608e-07
1.46608e-07
1.46608e-07
1.46608e-07
1.46608e-07
1.46608e-07
1.46608e-07
1.46608e-07
1.46608e-07
1.46608e-07
1.46608e-07
1.46608e-07
1.46608e-07
1.46608e-07
1.46608e-07
1.46608e-07
1.46608e-07
1.46608e-07
1.46608e-07
1.46608e-07
1.46608e-07
1.46608e-07
1.46608e-07
1.46608e-07
1.46608e-07
1.46608e-07
1.46608e-07
1.46608e-07
1.46608e-07
1.46608e-07
1.46608e-07
1.46608e-07
1.46608e-07
1.46608e-07
1.46608e-07
1.46608e-07
1.46608e-07
1.46608e-07
1.46608e-07
1.46608e-07
1.46608e-07
1.46608e-07
1.46608e-07
1.46608e-07
1.46608e-07
1.46608e-07
1.46608e-07
1.46608e-07
1.46608e-07
1.46608e-07
1.46608e-07
1.46608e-07
1.46608e-07
1.46608e-07
1.46608e-07
1.46608e-07
1.46608e-07
1.46608e-07
1.46608e-07
1.46608e-07
1.46608e-07
1.46608e-07
1.46608e-07
1.46608e-07
1.46608e-07
1.46608e-07
1.46608e-07
1.46608e-07
1.46608e-07
1.46608e-07
1.46608e-07
1.46608e-07
1.46608e-07
1.46608e-07
1.46608e-07
1.46608e-07
1.46608e-07
1.46608e-07
1.46608e-07
1.46608e-07
1.46608e-07
1.46608e-07
1.46608e-07
1.46608e-07
1.46608e-07
1.46608e-07
1.46608e-07
1.46608e-07
1.46608e-07
1.46608e-07
1.46608e-07
1.46608e-07
1.46608e-07
1.46608e-07
1.46608e-07
1.46608e-07
1.46608e-07
1.46608e-07
1.46608e-07
1.46608e-07
1.46608e-07
1.46608e-07
1.46608e-07
1.46608e-07
1.46608e-07
1.46608e-07
1.46608e-07
1.46608e-07
1.46608e-07
1.46608e-07
1.46608e-07
1.46608e-07
1.46608e-07
1.46608e-07
1.46608e-07
1.46608e-07
1.46608e-07
1.46608e-07
1.46608e-07
1.46608e-07
1.46608e-07
1.46608e-07
1.46608e-07
1.46608e-07
1.46608e-07
1.46608e-07
1.46608e-07
1.46608e-07
1.46608e-07
1.46608e-07
1.46608e-07
1.46608e-07
1.46608e-07
1.46608e-07
1.46608e-07
1.46608e-07
1.46608e-07
1.46608e-07
1.46608e-07
1.46608e-07
1.46608e-07
1.46608e-07
1.46608e-07
1.46608e-07
1.46608e-07
1.46608e-07
1.46608e-07

VECTORS velocity float
0.00802064 0.00134175 0.00247937
0.024082 -0.0559954 0.04379
0.00800784 -0.0104051 0.0178182
-0.000322401 -0.00023336 -0.000373793
-0.000204221 -0.0195097 -0.0120488
0.0018097 0.0116867 -0.0163763
0.0180881 0.0042427 0.00525673
0.0229844 -0.100323 0.00249291
-0.00252637 0.00818197 0.00351894
3.64467e-15 5.45078e-16 -3.6901e-14
0.000746527 0.00157301 9.65929e-05
0.0212445 0.0113087 -0.0131384
0.110948 -5.25221e-06 -0.434989
0.000442671 -0.00911395 -0.0140706
0.000816401 0.0189932 -0.00457136
-0.000923784 -0.00374208 -0.000182875
-0.00213427 -0.00732077 0.00608818
0.00505338 -7.01687e-05 -0.000456701
0.0401802 -0.112897 -0.322927
0.0344119 -0.083717 0.0865892
0.000444525 -0.0154369 -0.0138275
0.00452267 -0.0668588 0.0516027
0.0103782 0.00334213 0.00441485
-0.00188895 0.00308757 -0.00476202
-0.00191065 -0.0976223 0.0830096
0.0334065 -0.0171892 0.0464394
-0.00112596 0.00847505 0.014058
0.0100252 -0.00675455 -0.000893238
0.0025358 0.00362851 -0.0053968
0.00157334 0.000164747 0.0166706
-0.000579372 0.000297659 0.000116824
0.00108134 0.00116183 -0.000105251
-1.48156e-05 -0.000382164 -0.000105398
0.0154043 -0.000191642 0.0152901
0.00711853 0.00197276 -0.000448217
0.0191082 -0.089805 0.106539
0.031875 -0.0107738 0.0370267
-0.000139936 -6.24367e-05 0.000307334
-0.000286128 -0.000453487 -0.000897171
-0.000338023 -0.000152631 0.00348391
-0.0032438 0.00387875 -0.0135886
-0.000963202 0.00132619 0.000670226
-0.00396191 -0.00202563 -0.00277625
0.00141404 -0.00652962 -0.0153218
0.000600716 0.00187813 -0.00453279
0.0139624 0.00666861 0.019519
-9.58121e-05 0.000226163 6.4668e-05
0.0042263 0.0112618 0.00512844
0.00123685 -0.0082723 -0.0109515
0.000647858 -0.000114744 -0.0213762
0.00434953 -0.00476826 0.00934562
0.0131078 0.00790679 0.00844905
-0.00922466 0.00601285 0.00673758
-0.0019656 0.00116366 -0.00353489
0.00228472 9.9976e-05 0.00189313
0.0275276 -0.101862 0.0411889
1.52991e-06 0.020423 -0.00200196
0.00308401 0.00152238 -0.000332658
0.000108174 4.03263e-05 0.000246566
0.000416072 0.00825012 0.018458
-0.00199334 -0.000622689 0.00103466
0.00100346 0.000383082 0.000237711
0.000200173 -0.0151714 -0.0137415
0.000375862 -0.00506605 0.0199104
0.00037654 0.0066092 -0.0119547
0.000563627 0.0148596 -0.0126881
0.0127319 -0.0558141 0.0352197
0.00195919 0.0161452 0.00201027
0.0189781 0.00610636 0.000413783
0.012166 -0.0556164 0.0945874
0.0205963 -0.0196974 0.0228035
0.00750904 -0.0154338 0.00726452
-1.37891e-07 0.0194153 -0.00657951
7.00537e-06 0.0190303 -0.0117628
-0.000861017 -0.000718918 0.000668207
-0.00243829 0.0200032 -0.00762362
-8.12218e-05 0.00504472 -0.000108663
0.00390423 0.0139421 0.00162948
0.0194946 0.000747679 -0.00873834
-6.32269e-15 2.81549e-15 -5.78007e-14
0.00396435 0.00447604 -0.00332552
-0.000240337 0.000420217 0.000121941
-0.0016154 -0.00255343 0.00877038
0.00910264 0.00866606 0.00816154
0.0305102 -0.0848925 0.0644746
0.048715 -0.0653096 0.0951975
0.0247913 -0.0698853 0.0793193
0.0024195 0.0106899 0.00777791
0.00222686 -0.00177703 0.0191544
9.82901e-15 1.3332e-14 1.8999e-13
9.45382e-05 0.0190792 0.010903
-0.0532781 0.0256315 0.133554
0.0012712 0.0179762 0.000602848
0.0386095 0.0138608 0.0320666
-0.00132677 0.000707674 0.00546278
9.68077e-228 -1.74275e-227 -3.22607e-12
0.0320882 0.00774233 -0.00132572
0.0254032 -0.097891 0.0472196
-0.00149795 0.00266239 -0.00298412
0.0301596 0.0162501 -0.00259852
0.00178204 0.025074 -0.000342399
-0.000393227 -0.000609128 0.000271669
0.00050604 0.0196492 -0.00819803
-0.000883858 0.0018451 -0.00467286
0.000596166 0.000702222 -0.000298092
-0.000614905 -0.00186423 -0.00145878
-0.00218111 0.00289495 -0.00690201
0.000940869 0.0141762 0.0133073
0.0239046 0.0112597 -0.0102653
0.0183471 -0.0109097 0.0153858
0.000591408 -0.019194 -0.00286302
0.012709 0.00670535 0.00986757
0.00581807 0.0358083 -0.0364012
0.0081776 -0.0063485 -0.00082822
0.000590162 -0.0129461 0.00317582
0.00580829 -0.000776182 -0.0214896
-0.000815804 0.00146932 0.00706127
0.00429414 -0.000711278 0.00112755
0.00196241 0.00107472 0.00707296
0.00243908 -0.0239849 0.0254076
0.000185914 -0.000734739 -0.00141825
0.0729506 -0.114697 -0.529886
0.0003342 -0.00320785 -0.000263522
-0.00742252 0.00268434 0.014184
5.86623e-09 0.0244072 0.00409332
-0.000213363 0.002042 -0.00161349
0.0282652 -0.0604145 0.0764195
0.000726509 0.0203576 0.013066
-0.00341955 0.000582065 0.00156462
0.00786494 -0.00183733 0.0206946
0.0282186 -0.0702437 0.0825752
-3.56057e-05 -8.58968e-05 9.97496e-05
-0.000809882 0.0149445 -0.0125572
0.000603829 0.000449862 0.000366683
0.000481217 0.019711 0.00761585
0.0138146 -0.00854313 0.0219463
1.12246e-05 -0.0198 -0.00708196
0.00440874 -0.0183221 0.00823265
0.0110534 0.00688375 0.00694973
0.000992371 0.0195709 0.00516869
0.0389334 -0.0839828 0.0952798
-0.00844547 0.00480599 0.00856034
0.0160101 0.00502455 -0.00431064
0.0155702 0.00485606 0.00868803
0.0348388 -0.0231236 0.0496229
-0.034587 0.235756 0.904921
0.0108736 0.00573867 0.00699999
-0.000639146 0.0135728 0.0133605
0.0108338 -0.000123695 -0.00159047
0.00105545 0.00963796 0.0156297
0.00149124 0.00252574 0.00865037
-0.0117119 0.00631793 0.00277158
8.86394e-05 0.000628645 1.04134e-05
0.000598714 0.000162769 -9.06158e-05
2.17181e-05 0.0167719 0.00632242
0.00937335 0.00209249 -0.00573566
0.00291009 0.0203514 0.00671557
0.0103335 0.0050316 -0.0167748
0.00949716 0.0475973 0.0138064
0.0140526 0.0024387 0.00652224
5.14676e-05 0.00198441 -0.00129587
-0.00847755 -0.00658275 0.00830838
0.00284007 0.0215027 0.0117342
0.000481837 0.000626338 -0.00196867
0.00445066 -0.000536276 0.00115428
0.00498805 -0.0171705 0.0244812
-0.000569165 -0.000618271 0.000186835
0.00028606 -0.0136917 0.0157573
9.35252e-05 0.0134753 -0.0171683
0.0014521 0.00272586 0.000499732
-0.00179741 0.000146227 0.000782716
0.00596188 0.0126097 0.010102
0.020576 -0.106591 -0.0152291
-0.000234596 0.000779859 0.000125312
0.0234123 0.00891598 -0.0680897
0.00470154 0.0113423 0.018447
-1.05527e-09 0.0240385 0.00568002
0.000301073 -0.0169887 0.0136515
0.00143109 0.000288897 -0.0015933
5.54694e-10 0.0247255 -0.000426827
-3.01437e-05 0.0164881 0.00921125
-0.0026885 -0.0990982 0.101742
-6.42409e-05 0.00099557 0.00041491
0.00442525 -0.00598614 -0.0105631
0.00243418 0.00177452 -0.00170797
0.00280385 0.02063 -0.00656652
0.000257783 0.0159125 0.00988342
0.0163095 -0.00576354 0.00456754
-0.00655162 0.00148431 0.0101083
-0.000176236 0.00177834 -0.000919526
0.00103177 -0.0152625 0.00815505
0.023851 -0.0651202 0.0817562
0.00296739 0.000376163 -0.0013603
0.000637919 -0.0192542 0.00593468
-0.000177795 0.00734743 -0.00892817
-0.00611062 -0.00717602 -0.0103463
0.0116573 -0.00195909 -0.000993036
0.00497491 0.00143661 -0.00652428
-6.8724e-08 0.023246 0.0086899
0.031203 0.0357765 0.0201631
-0.0025078 0.0013023 0.00140806
1.37486e-06 0.000354458 0.000170616
0.0247112 -0.0640483 0.0744312
0.0323644 -0.0685241 0.0944839
-1.81757e-09 0.0246489 -0.00348792
-0.00184723 0.000613699 0.00105333
0.00862985 0.00304552 0.0084156
0.00164868 0.0178099 0.000853988
-0.000152118 0.000197104 -0.000100845
0.00127885 -0.00468039 -0.0160006
0.0312588 -0.0766729 0.107458
0.0065342 0.00138047 0.000619313
0.00116967 0.000317583 0.00184423
4.85126e-05 0.00756871 -0.0179757
0.0155541 -0.0892966 -0.0426422
-0.000899036 0.00551415 0.0128589
0.00803127 0.000894523 0.00891721
0.000711968 0.00724044 0.0194416
0.020306 -0.0220261 0.0352389
0.000558698 -0.016033 -0.00315251
-9.68799e-317 -9.69932e-317 9.23294e-13
0.0117598 0.0153539 -0.00135951
0.0183048 -0.0412475 0.0635604
0.000296262 -0.0143766 0.0107805
-0.000994156 0.000376329 0.000928388
0.00521158 0.0103666 -0.0105376
0.003576 -0.0118715 -0.014769
-0.00114477 0.00296356 0.00625394
0.0147854 0.00425189 0.00956425
0.00207155 -0.00823813 -0.0164249
-0.0007421 -0.00266655 -0.00245193
2.60577e-15 4.46126e-16 -4.2529e-14
0.0117406 0.00522028 0.0026041

VECTORS force float
-5.48506e-06 5.0716e-06 -2.79747e-06
1.44617e-05 1.28407e-06 8.06719e-06
6.89905e-05 -7.26992e-05 0.000139439
-1.29319e-06 8.20892e-07 -1.00768e-06
-2.20185e-09 -6.95751e-09 7.63427e-09
8.05834e-08 -2.67876e-07 -9.12084e-08
-2.73711e-07 -5.99726e-07 -1.28907e-06
0.0 0.0 -1.43822e-06
-3.3309e-06 5.64991e-06 -2.03291e-05
-3.44107e-22 6.35936e-21 0.0
-4.6326e-07 4.34805e-07 -3.90615e-07
0.0 0.0 -1.43822e-06
0.0 0.0 -1.43822e-06
1.43429e-10 1.28022e-08 5.56095e-08
-8.02002e-09 2.2893e-08 -1.15057e-08
-4.67283e-06 4.99123e-06 2.64278e-06
-6.22879e-07 -1.34859e-06 8.40551e-07
-1.58578e-06 -4.13284e-06 -2.01271e-06
0.0 0.0 -1.43822e-06
0.0 0.0 -1.43822e-06
-3.82398e-09 -1.71639e-08 -6.29258e-09
5.3288e-06 -1.05477e-05 2.75783e-06
-3.5786e-06 -1.42784e-06 -2.01363e-06
-1.16011e-05 3.36136e-06 -9.74325e-06
-6.27387e-06 -3.04043e-05 1.58287e-05
1.54913e-05 8.03776e-06 8.39674e-06
-2.00284e-07 5.88135e-09 -1.11518e-06
-3.13156e-07 7.49113e-07 1.42851e-07
8.83785e-08 -3.90615e-08 3.87319e-07
-9.51032e-09 4.28523e-08 2.99988e-08
1.69101e-07 1.24682e-07 1.39204e-07
-1.20712e-07 3.63251e-07 -5.23562e-07
-1.32579e-06 -2.19466e-07 -3.58246e-07
0.0 0.0 -1.43822e-06
-1.08514e-07 4.76174e-07 -4.09581e-07
7.17579e-06 7.04896e-06 6.71929e-06
7.09492e-07 4.41681e-06 2.48589e-06
-2.09216e-07 1.54711e-07 -7.90723e-08
-6.06817e-08 1.68193e-06 1.99046e-06
2.41273e-07 5.38969e-08 -2.5675e-07
0.0 0.0 -1.43822e-06
-9.49056e-07 -1.69857e-06 2.03731e-06
5.05123e-08 1.48017e-08 -1.17254e-09
1.30889e-05 5.83819e-06 1.66174e-05
-1.78403e-07 9.4742e-07 -1.75852e-06
-2.34089e-06 -1.01301e-07 -1.01763e-06
8.37767e-10 -1.21942e-08 2.24953e-08
-2.33169e-07 -6.29455e-08 3.3112e-08
-3.09276e-05 -2.66317e-05 -1.27267e-05
1.99953e-09 -1.11482e-08 -1.73118e-09
9.68502e-08 1.55206e-07 -1.77492e-06
-1.15539e-06 -2.63242e-07 -2.599e-07
2.76529e-07 -4.74885e-07 -2.73345e-07
-3.09042e-08 -6.01892e-08 -4.01982e-07
-1.06331e-07 9.05189e-09 -1.10312e-06
0.0 0.0 -1.43822e-06
1.9695e-09 3.08135e-09 -1.41626e-08
-7.48013e-07 -9.40827e-08 1.30693e-07
-2.41182e-08 6.05225e-07 1.07776e-07
-5.71156e-07 3.2442e-07 3.20482e-07
-1.7404e-08 -1.56697e-09 2.88955e-09
7.41712e-07 -1.86643e-06 5.54904e-07
7.85276e-10 -8.07238e-09 1.04716e-08
-6.96817e-09 7.34735e-09 1.00408e-08
-4.91189e-07 -3.66314e-07 -4.7895e-07
-3.75662e-09 2.95845e-09 -1.84806e-08
0.0 0.0 -1.43822e-06
-2.21826e-07 6.16276e-07 3.43756e-07
-8.30094e-07 4.10352e-07 -3.24264e-06
4.21151e-06 1.3213e-06 -3.46925e-06
9.62533e-07 -7.06209e-06 4.66634e-06
2.16086e-06 4.62704e-06 1.73469e-06
2.91768e-10 5.36495e-09 -1.61724e-08
2.58904e-10 5.29949e-08 -4.93301e-08
-1.96955e-07 -1.7769e-07 1.47971e-07
-4.25166e-07 7.94524e-08 1.47242e-06
1.29592e-07 3.98411e-07 -3.42753e-07
-9.44074e-07 -2.12235e-07 8.67473e-07
5.81897e-06 -2.71731e-05 -3.57779e-06
1.52995e-20 2.48419e-20 -1.27055e-21
-1.36321e-07 1.25995e-06 -8.42002e-07
4.08557e-06 8.77387e-07 2.19271e-06
4.22865e-08 3.62169e-06 -5.69182e-06
-1.61704e-07 -2.38723e-07 -1.72206e-07
0.0 0.0 -1.43822e-06
1.54079e-05 1.16442e-05 5.30916e-06
1.46203e-05 4.39815e-06 6.43476e-06
-7.23814e-07 2.95884e-09 -9.4809e-07
0.0 0.0 -1.43822e-06
3.08373e-21 -1.6676e-20 6.35275e-22
-1.58567e-09 1.14864e-08 -6.82599e-09
0.0 0.0 -1.43822e-06
-8.37183e-09 3.98152e-08 -2.47648e-08
0.0 0.0 -1.43822e-06
-7.08736e-09 2.08819e-09 3.52875e-08
2.21213e-230 -3.98233e-230 0.0
-3.35357e-07 3.4395e-07 -1.09229e-07
0.0 0.0 -1.43822e-06
4.80482e-07 2.59084e-07 -8.96461e-07
-4.92925e-07 4.63945e-07 -2.06093e-07
1.13604e-07 -6.94499e-09 -9.32769e-08
3.37886e-07 8.89033e-08 3.46005e-08
1.32651e-09 3.07423e-11 -9.90583e-09
-7.93526e-08 4.01336e-07 -8.36476e-07
-7.60032e-07 -2.81008e-07 1.06865e-07
2.6388e-06 -1.75919e-06 5.817e-06
1.89019e-08 -7.74218e-08 1.66873e-07
-1.24121e-08 2.38898e-08 1.77694e-08
-3.74516e-07 3.69099e-07 -9.11876e-07
9.92599e-06 -2.13086e-06 4.80484e-06
1.86417e-08 -2.38831e-08 1.7321e-08
1.02871e-06 2.02969e-07 4.54058e-07
0.0 0.0 -1.43822e-06
-6.7812e-07 -1.98138e-07 -2.60209e-08
-3.89286e-09 -2.83724e-10 2.25384e-08
-6.49773e-09 6.0681e-08 -1.28957e-07
1.63114e-07 4.06537e-07 -1.709e-06
2.51979e-07 -9.07194e-09 3.30515e-07
0.0 0.0 -1.43822e-06
-7.9937e-06 -1.79814e-05 1.38868e-05
-2.73794e-09 2.74213e-07 1.27858e-06
0.0 0.0 -1.43822e-06
-2.05269e-06 6.64761e-06 4.06363e-06
1.22045e-05 -9.62957e-06 -3.59144e-07
8.37079e-13 2.7127e-09 -1.6659e-08
-2.94906e-08 2.34139e-08 1.15954e-07
2.55166e-07 -5.65702e-06 1.00569e-05
-1.54053e-08 -1.89139e-10 -1.82612e-08
1.12328e-06 3.0416e-07 -1.4592e-06
2.98373e-07 -5.25788e-06 -5.16081e-06
0.0 0.0 -1.43822e-06
4.08785e-08 4.32793e-07 5.82313e-08
1.51311e-07 2.78002e-06 4.21404e-06
-7.8428e-07 5.64347e-07 -9.99046e-07
-9.23852e-09 2.90114e-08 -1.10339e-09
1.1372e-07 -4.96111e-07 -2.53918e-06
1.18914e-09 -1.99649e-08 8.46427e-09
-3.66268e-07 -1.12641e-07 -1.31695e-06
4.46589e-08 4.03006e-09 -3.92211e-07
8.16504e-09 1.12225e-07 -9.05224e-09
0.0 0.0 -1.43822e-06
2.65737e-08 -3.68346e-08 -1.49471e-06
0.0 0.0 -1.43822e-06
4.64943e-07 -6.10761e-08 -5.49196e-07
-2.11476e-06 -1.51707e-06 5.18799e-06
0.0 0.0 -1.43822e-06
-3.08681e-07 2.94269e-06 -3.06502e-07
-2.41273e-07 -5.38969e-08 -2.61969e-06
-3.3694e-06 -7.32675e-08 -2.75332e-07
-1.36833e-08 3.16342e-08 3.77985e-08
-9.77867e-08 2.04885e-07 -1.19056e-06
3.09484e-07 -4.69663e-07 -2.44797e-07
1.15269e-06 6.58173e-07 -6.98247e-07
-1.4981e-09 -2.87014e-10 1.55559e-10
-2.99993e-10 1.10701e-07 3.47999e-08
0.0 0.0 -1.43822e-06
-5.64596e-09 -4.01601e-08 2.55114e-08
-9.21983e-08 -2.51044e-07 3.26149e-08
0.0 0.0 -1.43822e-06
-1.44324e-06 -2.53224e-07 1.54331e-06
2.81493e-07 -1.35892e-06 -7.73395e-07
3.66268e-07 1.12641e-07 -1.55949e-06
-2.80181e-06 -1.45136e-06 1.70246e-06
0.0 0.0 -1.43822e-06
-4.50438e-08 1.66413e-07 8.89586e-07
-4.37279e-06 -2.36868e-06 3.18122e-06
1.96776e-06 2.25463e-06 2.26026e-06
-2.69479e-09 -2.69431e-09 3.61493e-09
-1.68994e-09 -5.73291e-09 -1.0996e-08
2.40822e-06 1.12828e-06 4.97746e-06
6.47625e-07 2.26123e-06 -1.29585e-06
5.35328e-09 -3.53119e-08 -1.42347e-07
0.0 0.0 -1.43822e-06
-1.46721e-08 4.59968e-08 -2.64167e-08
0.0 0.0 -1.43822e-06
-2.41724e-07 -4.64014e-07 -8.2543e-07
-7.78226e-15 3.82709e-09 -1.64008e-08
-5.85027e-09 4.79779e-10 1.4349e-08
9.7137e-07 -1.52839e-06 9.88169e-07
1.74021e-15 -2.5961e-10 -1.68604e-08
-8.66263e-09 -3.88148e-08 4.0992e-09
-5.89376e-06 -1.17101e-05 1.40295e-05
-4.22223e-07 -2.07653e-06 -7.32246e-08
8.11236e-06 -3.10011e-06 1.67135e-06
2.49923e-08 5.44177e-08 1.32222e-07
7.74696e-07 1.0451e-06 1.01253e-07
-5.41167e-08 -1.12874e-07 -7.3072e-08
1.07388e-05 -8.13587e-06 1.35961e-05
0.0 0.0 -1.43822e-06
-1.5984e-06 1.02487e-06 -1.26513e-06
2.73373e-08 1.41911e-08 8.74541e-09
-5.90046e-06 1.21238e-05 -9.91972e-07
-1.21531e-05 -2.87531e-06 1.10262e-05
-1.18939e-08 -9.22535e-08 3.78436e-08
2.70372e-07 4.96796e-07 1.88882e-06
0.0 0.0 -1.43822e-06
-4.33927e-07 1.41972e-06 -1.14871e-07
-7.99743e-08 8.43972e-07 -5.45096e-07
2.77781e-10 8.45442e-09 -1.70101e-08
-5.95248e-06 -5.24778e-06 -1.05258e-05
3.85296e-07 -2.06046e-07 -2.53462e-07
1.51337e-07 1.62081e-07 -2.35685e-07
1.07532e-05 1.32843e-06 3.49976e-06
4.47353e-06 8.37299e-06 -1.65552e-05
-4.98395e-15 -2.45036e-09 -1.68121e-08
-1.31441e-05 5.78566e-06 3.74309e-06
0.0 0.0 -1.43822e-06
0.0 0.0 -1.43822e-06
-8.33321e-08 -5.70538e-08 2.27129e-07
7.12853e-09 -1.23108e-08 2.46328e-08
2.73782e-06 1.27041e-05 1.94733e-05
1.59386e-06 -7.31337e-07 3.32921e-06
-1.09878e-06 1.1381e-06 -2.16981e-06
1.32196e-05 1.41448e-05 -2.1363e-05
0.0 0.0 -1.43822e-06
5.05391e-07 1.21458e-06 -1.8048e-06
0.0 0.0 -1.43822e-06
1.0167e-08 2.57764e-08 7.22548e-08
1.55682e-05 -2.34835e-06 2.73724e-05
8.27066e-08 -3.46751e-08 2.69049e-08
0.0 0.0 0.0
0.0 0.0 -1.43822e-06
5.95248e-06 5.24778e-06 7.64935e-06
6.7087e-09 7.19826e-09 1.21161e-08
-7.86968e-07 -7.17016e-08 9.04095e-07
0.0 0.0 -1.43822e-06
-1.8581e-08 -1.17828e-07 -1.04389e-06
-7.68101e-06 -2.11249e-06 2.27967e-05