# vtk DataFile Version 3.0
LIGGGHTS particles timestep 6400000
ASCII
DATASET POLYDATA
POINTS 200 float
0.0182929 0.0233997 0.0110728
0.0213629 0.0156142 0.00885818
0.0198905 0.0235452 0.0143095
0.0191087 0.0210645 0.0155341
0.0274973 0.0191023 0.0071691
0.0205538 0.0147903 0.0160372
0.020077 0.0237338 0.0152755
0.0224445 0.0225208 0.00911762
0.0191938 0.0243583 0.0137245
0.00938048 0.0183393 0.00587271
0.0176692 0.023436 0.01157
0.0253014 0.0203654 0.0157603
0.0366849 0.0218066 0.0435188
0.0138612 0.0162597 0.0149732
0.0298304 0.0218078 0.0148664
0.0182178 0.0242942 0.0135206
0.0256737 0.020696 0.0166274
0.0175696 0.0236437 0.0139056
0.0161201 0.0214136 0.0161912
0.020654 0.0158683 0.0085788
0.0277455 0.0200789 0.00734102
0.0205409 0.0188737 0.0164629
0.0204901 0.0150549 0.0134609
0.0201941 0.0243488 0.0138515
0.0169085 0.0146633 0.0144041
0.023568 0.0232174 0.0103426
0.0177073 0.0143558 0.0138632
0.0127315 0.0201287 0.0158108
0.0264182 0.0151251 0.00976932
0.0211014 0.0240022 0.0132473
0.0234073 0.0230456 0.0131642
0.020138 0.0146129 0.0119526
0.0189785 0.0239752 0.014619
0.0199482 0.0215153 0.0153037
0.0191801 0.0177756 0.0157717
0.003617 0.0285782 0.0435188
0.021639 0.0226877 0.0154043
0.0185863 0.023346 0.0136979
0.0255494 0.0188503 0.0159404
0.0206801 0.0223142 0.0156176
0.0196051 0.0193773 0.00612808
0.0281835 0.0219046 0.00826308
0.0208356 0.0236212 0.0141229
0.0136359 0.0182833 0.015875
0.0218681 0.0194969 0.0167164
0.0273997 0.0157743 0.0086968
0.028009 0.0212327 0.00777103
0.0284272 0.0226301 0.00900668
0.0180509 0.0331561 0.0385133
0.0195264 0.0191187 0.0159438
0.0201826 0.0241013 0.0128915
0.018649 0.0143038 0.015613
0.0260579 0.0147463 0.0111587
0.0140657 0.0213093 0.0159088
0.019225 0.023057 0.0148839
0.0208542 0.0145608 0.012648
0.0194839 0.0227813 0.0139026
0.0243212 0.0201776 0.0158181
0.0265704 0.0155877 0.00889285
0.0286807 0.0230868 0.00991792
0.0292951 0.0232242 0.0127367
0.0197078 0.022221 0.0146762
0.0227559 0.0235464 0.0142826
0.0258252 0.0148155 0.0121771
0.0211095 0.0162634 0.0149813
0.0171368 0.0242672 0.0142669
0.0186456 0.022526 0.0142753
0.021613 0.0241955 0.0140736
0.0229171 0.0233836 0.0111982
0.0247664 0.0212088 0.016574
0.014806 0.0166939 0.0152665
0.0189642 0.0240566 0.0128024
0.0214483 0.0168437 0.00645098
0.0248938 0.0212607 0.0155832
0.0184073 0.0197607 0.0159176
0.0203434 0.0196868 0.0159132
0.00793583 0.0244401 0.0341576
0.0218547 0.017449 0.00751575
0.02 0.0241347 0.016192
0.0551067 0.0178697 0.00597491
0.0303592 0.0196215 0.0157573
0.0142996 0.0151441 0.0152473
0.0302031 0.0205391 0.0154306
0.0137196 0.021752 0.0150296
0.0177762 0.0222911 0.0145888
0.0303903 0.00406748 0.0435188
0.0214497 0.00597994 0.0375314
0.0181893 0.0207448 0.0156494
0.00463639 0.0471926 0.0651188
0.019724 0.0137988 0.0133836
0.0295549 0.0225712 0.0138904
0.0185555 0.0139864 0.012993
0.0188333 0.0218516 0.0149866
0.0166663 0.0237089 0.0150973
0.0258621 0.0182676 0.0166906
0.0309069 0.0173625 0.0154498
0.017735 0.014243 0.0148493
0.0216152 0.0149367 0.013177
0.0207253 0.013976 0.0134487
0.0225245 0.0228833 0.00945522
0.024044 0.0212674 0.0153889
0.0195126 0.0148657 0.0148576
0.0155478 0.0202515 0.0166155
0.0202365 0.0149003 0.0104412
0.025472 0.0174127 0.0163487
0.0175292 0.0240303 0.0128421
0.0215189 0.0192245 0.007168
0.0276257 0.0173485 0.00754038
0.0221348 0.00230077 0.0435188
0.0203521 0.0156117 0.0143434
0.017121 0.0224166 0.0155819
0.0182208 0.0235657 0.0154624
0.0132187 0.0209507 0.0155164
0.0218498 0.0150438 0.0157477
0.0166593 0.0155599 0.0154048
0.0251786 0.0161637 0.0147069
0.0213596 0.0163087 0.0159484
0.0233225 0.0149312 0.0147452
0.0212938 0.015386 0.0140105
0.0145205 0.0157133 0.0144554
0.0201704 0.0181724 0.0158539
0.0255133 0.0153308 0.013668
0.0240184 0.0154055 0.0153314
0.0211087 0.0171904 0.00759826
0.0225405 0.014565 0.01424
0.0256807 0.0197174 0.0164207
0.0192276 0.0142223 0.0141413
0.0234162 0.0230725 0.0148446
0.0233817 0.0229506 0.00955357
0.0186669 0.0186164 0.0159425
0.0143017 0.0228991 0.0150673
0.0201512 0.0206408 0.0157047
0.0226398 0.0230463 0.00988183
0.0238323 0.0221841 0.0146509
0.0207866 0.0145689 0.0142856
0.0233836 0.019625 0.016731
0.0189759 0.0238091 0.016098
0.0233516 0.0160921 0.0158703
0.0247849 0.0180921 0.0158384
0.0185134 0.0150104 0.0149185
0.0151292 0.0149331 0.0143114
0.0137336 0.0201441 0.0158063
0.0161186 0.022263 0.0156643
0.016683 0.0238841 0.0135226
0.0212002 0.0190136 0.0172985
0.02883 0.0233476 0.0109424
0.0170894 0.0234412 0.0120403
0.0148262 0.0219577 0.0158723
0.0272728 0.0181227 0.00731511
0.0193171 0.0201348 0.0158477
0.0225028 0.0217262 0.016028
0.0221996 0.00109062 0.0435188
0.0207256 0.0230338 0.0149245
0.0268865 0.0164998 0.00806679
0.0160197 0.0229913 0.0149832
0.0206693 0.0170427 0.0155717
0.0223668 0.0162496 0.0159446
0.016779 0.014214 0.0135202
0.0138903 0.0223609 0.0158042
0.0296844 0.0233525 0.0109735
0.0173376 0.0232341 0.0128499
0.0175431 0.0151968 0.0150799
0.0235694 0.0172578 0.0164594
0.017617 0.0228751 0.0135962
0.0210713 0.0235126 0.0157315
0.0151348 0.0232642 0.0146517
0.0160063 0.0150195 0.0148742
0.0195419 0.015282 0.0138599
0.0194704 0.0159162 0.0147414
0.0151628 0.0211202 0.0163029
0.0249908 0.0171404 0.0155156
0.108836 0.0200055 0.00584234
0.0187391 0.0180787 0.0173499
0.0248268 0.0194135 0.0168431
0.0178342 0.0230342 0.0169699
0.0174659 0.0231758 0.0148832
0.0144064 0.0204855 0.0164625
0.0244398 0.0163124 0.0160462
0.0193285 0.0232041 0.0130428
0.0224653 0.0235584 0.0152146
0.0216552 0.0142472 0.0139001
0.0197728 0.0146626 0.0128822
0.0190676 0.0168186 0.0153469
0.0152087 0.0228225 0.0155465
0.0213075 0.01829 0.0072773
0.0206809 0.0240883 0.0171058
0.01653 0.0231502 0.0159173
0.0227184 0.023243 0.0104276
0.00937694 0.00505359 0.0435188
0.0217942 0.02335 0.0145307
0.0159663 0.0144515 0.0140522
0.0226486 0.0154617 0.015315
0.0217093 0.0148391 0.0147426
0.024569 0.0190629 0.0159428
0.0212464 0.0216275 0.016076
0.0183055 0.0233407 0.012687
0.0208561 0.0152351 0.0151207
0.0159702 0.0236026 0.0141648
0.024947 0.0190645 0.00586966
0.0204694 0.0152526 0.00945784

VERTICES 200 400
1 0
1 1
1 2
1 3
1 4
1 5
1 6
1 7
1 8
1 9
1 10
1 11
1 12
1 13
1 14
1 15
1 16
1 17
1 18
1 19
1 20
1 21
1 22
1 23
1 24
1 25
1 26
1 27
1 28
1 29
1 30
1 31
1 32
1 33
1 34
1 35
1 36
1 37
1 38
1 39
1 40
1 41
1 42
1 43
1 44
1 45
1 46
1 47
1 48
1 49
1 50
1 51
1 52
1 53
1 54
1 55
1 56
1 57
1 58
1 59
1 60
1 61
1 62
1 63
1 64
1 65
1 66
1 67
1 68
1 69
1 70
1 71
1 72
1 73
1 74
1 75
1 76
1 77
1 78
1 79
1 80
1 81
1 82
1 83
1 84
1 85
1 86
1 87
1 88
1 89
1 90
1 91
1 92
1 93
1 94
1 95
1 96
1 97
1 98
1 99
1 100
1 101
1 102
1 103
1 104
1 105
1 106
1 107
1 108
1 109
1 110
1 111
1 112
1 113
1 114
1 115
1 116
1 117
1 118
1 119
1 120
1 121
1 122
1 123
1 124
1 125
1 126
1 127
1 128
1 129
1 130
1 131
1 132
1 133
1 134
1 135
1 136
1 137
1 138
1 139
1 140
1 141
1 142
1 143
1 144
1 145
1 146
1 147
1 148
1 149
1 150
1 151
1 152
1 153
1 154
1 155
1 156
1 157
1 158
1 159
1 160
1 161
1 162
1 163
1 164
1 165
1 166
1 167
1 168
1 169
1 170
1 171
1 172
1 173
1 174
1 175
1 176
1 177
1 178
1 179
1 180
1 181
1 182
1 183
1 184
1 185
1 186
1 187
1 188
1 189
1 190
1 191
1 192
1 193
1 194
1 195
1 196
1 197
1 198
1 199

POINT_DATA 200
SCALARS id int 1
LOOKUP_TABLE default
1
2
3
4
5
7
9
11
13
15
16
17
18
19
20
23
24
25
26
27
28
29
30
31
32
33
34
35
37
40
41
43
44
45
47
49
50
51
52
54
57
59
62
63
64
65
67
68
71
73
74
76
79
80
83
84
85
86
87
88
89
90
91
92
95
97
99
102
103
104
105
106
108
109
110
112
114
116
118
121
122
124
125
126
127
128
130
131
132
133
135
137
138
139
141
142
143
145
147
148
149
150
151
153
154
157
158
160
161
164
165
166
167
170
171
173
174
175
177
179
184
185
186
187
191
192
193
194
197
199
200
201
203
205
206
208
211
214
215
218
220
221
223
224
225
226
227
228
229
230
231
232
235
237
239
240
241
242
246
247
248
249
250
251
252
253
254
255
256
257
258
260
262
263
264
268
269
270
271
272
273
274
275
276
277
280
282
283
284
285
286
288
289
291
293
294
296
298
299
300

SCALARS type int 1
LOOKUP_TABLE default
1
1
1
1
1
1
1
1
1
1
1
1
1
1
1
1
1
1
1
1
1
1
1
1
1
1
1
1
1
1
1
1
1
1
1
1
1
1
1
1
1
1
1
1
1
1
1
1
1
1
1
1
1
1
1
1
1
1
1
1
1
1
1
1
1
1
1
1
1
1
1
1
1
1
1
1
1
1
1
1
1
1
1
1
1
1
1
1
1
1
1
1
1
1
1
1
1
1
1
1
1
1
1
1
1
1
1
1
1
1
1
1
1
1
1
1
1
1
1
1
1
1
1
1
1
1
1
1
1
1
1
1
1
1
1
1
1
1
1
1
1
1
1
1
1
1
1
1
1
1
1
1
1
1
1
1
1
1
1
1
1
1
1
1
1
1
1
1
1
1
1
1
1
1
1
1
1
1
1
1
1
1
1
1
1
1
1
1
1
1
1
1
1
1
1
1
1
1
1
1

SCALARS radius float 1
LOOKUP_TABLE default
0.0005
0.0005
0.0005
0.0005
0.0005
0.0005
0.0005
0.0005
0.0005
0.0005
0.0005
0.0005
0.0005
0.0005
0.0005
0.0005
0.0005
0.0005
0.0005
0.0005
0.0005
0.0005
0.0005
0.0005
0.0005
0.0005
0.0005
0.0005
0.0005
0.0005
0.0005
0.0005
0.0005
0.0005
0.0005
0.0005
0.0005
0.0005
0.0005
0.0005
0.0005
0.0005
0.0005
0.0005
0.0005
0.0005
0.0005
0.0005
0.0005
0.0005
0.0005
0.0005
0.0005
0.0005
0.0005
0.0005
0.0005
0.0005
0.0005
0.0005
0.0005
0.0005
0.0005
0.0005
0.0005
0.0005
0.0005
0.0005
0.0005
0.0005
0.0005
0.0005
0.0005
0.0005
0.0005
0.0005
0.0005
0.0005
0.0005
0.0005
0.0005
0.0005
0.0005
0.0005
0.0005
0.0005
0.0005
0.0005
0.0005
0.0005
0.0005
0.0005
0.0005
0.0005
0.0005
0.0005
0.0005
0.0005
0.0005
0.0005
0.0005
0.0005
0.0005
0.0005
0.0005
0.0005
0.0005
0.0005
0.0005
0.0005
0.0005
0.0005
0.0005
0.0005
0.0005
0.0005
0.0005
0.0005
0.0005
0.0005
0.0005
0.0005
0.0005
0.0005
0.0005
0.0005
0.0005
0.0005
0.0005
0.0005
0.0005
0.0005
0.0005
0.0005
0.0005
0.0005
0.0005
0.0005
0.0005
0.0005
0.0005
0.0005
0.0005
0.0005
0.0005
0.0005
0.0005
0.0005
0.0005
0.0005
0.0005
0.0005
0.0005
0.0005
0.0005
0.0005
0.0005
0.0005
0.0005
0.0005
0.0005
0.0005
0.0005
0.0005
0.0005
0.0005
0.0005
0.0005
0.0005
0.0005
0.0005
0.0005
0.0005
0.0005
0.0005
0.0005
0.0005
0.0005
0.0005
0.0005
0.0005
0.0005
0.0005
0.0005
0.0005
0.0005
0.0005
0.0005
0.0005
0.0005
0.0005
0.0005
0.0005
0.0005
0.0005
0.0005
0.0005
0.0005
0.0005
0.0005

SCALARS mass float 1
LOOKUP_TABLE default
1.46608e-07
1.46608e-07
1.46608e-07
1.46608e-07
1.46608e-07
1.46608e-07
1.46608e-07
1.46608e-07
1.46608e-07
1.46608e-07
1.46608e-07
1.46608e-07
1.46608e-07
1.46608e-07
1.46608e-07
1.46608e-07
1.46608e-07
1.46608e-07
1.46608e-07
1.46608e-07
1.46608e-07
1.46608e-07
1.46608e-07
1.46608e-07
1.46608e-07
1.46608e-07
1.46608e-07
1.46608e-07
1.46608e-07
1.46608e-07
1.46608e-07
1.46608e-07
1.46608e-07
1.46608e-07
1.46608e-07
1.46608e-07
1.46608e-07
1.46608e-07
1.46608e-07
1.46608e-07
1.46608e-07
1.46608e-07
1.46608e-07
1.46608e-07
1.46608e-07
1.46608e-07
1.46608e-07
1.46608e-07
1.46608e-07
1.46608e-07
1.46608e-07
1.46608e-07
1.46608e-07
1.46608e-07
1.46608e-07
1.46608e-07
1.46608e-07
1.46608e-07
1.46608e-07
1.46608e-07
1.46608e-07
1.46608e-07
1.46608e-07
1.46608e-07
1.46608e-07
1.46608e-07
1.46608e-07
1.46608e-07
1.46608e-07
1.46608e-07
1.46608e-07
1.46608e-07
1.46608e-07
1.46608e-07
1.46608e-07
1.46608e-07
1.46608e-07
1.46608e-07
1.46608e-07
1.46608e-07
1.46608e-07
1.46608e-07
1.46608e-07
1.46608e-07
1.46608e-07
1.46608e-07
1.46608e-07
1.46608e-07
1.46608e-07
1.46608e-07
1.46608e-07
1.46608e-07
1.46608e-07
1.46608e-07
1.46608e-07
1.46608e-07
1.46608e-07
1.46608e-07
1.46608e-07
1.46608e-07
1.46608e-07
1.46608e-07
1.46608e-07
1.46608e-07
1.46608e-07
1.46608e-07
1.46608e-07
1.46608e-07
1.46608e-07
1.46608e-07
1.46608e-07
1.46608e-07
1.46608e-07
1.46608e-07
1.46608e-07
1.46608e-07
1.46608e-07
1.46608e-07
1.46608e-07
1.46608e-07
1.46608e-07
1.46608e-07
1.46608e-07
1.46608e-07
1.46608e-07
1.46608e-07
1.46608e-07
1.46608e-07
1.46608e-07
1.46608e-07
1.46608e-07
1.46608e-07
1.46608e-07
1.46608e-07
1.46608e-07
1.46608e-07
1.46608e-07
1.46608e-07
1.46608e-07
1.46608e-07
1.46608e-07
1.46608e-07
1.46608e-07
1.46608e-07
1.46608e-07
1.46608e-07
1.46608e-07
1.46608e-07
1.46608e-07
1.46608e-07
1.46608e-07
1.46608e-07
1.46608e-07
1.46608e-07
1.46608e-07
1.46608e-07
1.46608e-07
1.46608e-07
1.46608e-07
1.46608e-07
1.46608e-07
1.46608e-07
1.46608e-07
1.46608e-07
1.46608e-07
1.46608e-07
1.46608e-07
1.46608e-07
1.46608e-07
1.46608e-07
1.46608e-07
1.46608e-07
1.46608e-07
1.46608e-07
1.46608e-07
1.46608e-07
1.46608e-07
1.46608e-07
1.46608e-07
1.46608e-07
1.46608e-07
1.46608e-07
1.46608e-07
1.46608e-07
1.46608e-07
1.46608e-07
1.46608e-07
1.46608e-07
1.46608e-07
1.46608e-07
1.46608e-07
1.46608e-07
1.46608e-07
1.46608e-07
1.46608e-07
1.46608e-07
1.46608e-07
1.46608e-07
1.46608e-07
1.46608e-07

VECTORS velocity float
0.0015204 0.00112912 -0.000109341
0.00329562 -0.00346458 0.00119736
-0.00270458 0.00066353 -0.0024497
-0.000623326 0.0141244 -0.00873646
0.00343661 -0.011764 0.000830721
0.0220734 0.00483873 -0.0827963
0.00594953 0.00667009 0.00186794
0.00356809 -0.00648443 -0.00631165
-0.00191154 0.00475443 -0.00139763
3.64568e-15 5.40426e-16 -3.6901e-14
0.00231615 0.000154442 -0.00328704
0.00489288 0.00266038 0.00066844
-9.6879e-317 9.73506e-317 2.68131e-13
-0.00228611 0.00579893 0.00368595
0.00185107 0.0119731 -0.00871841
0.00149018 0.00330101 -0.000659999
0.00103967 0.000987196 0.00361667
0.00194043 0.00428829 -0.00766866
0.00285661 -0.000664422 0.00696164
0.000800924 -0.0113677 0.0124221
8.69191e-05 -0.0216395 -0.00611087
0.01889 -0.00797328 0.0128247
0.00521044 -0.00241412 -0.00224366
-0.000873273 0.000117083 0.000186485
-5.50054e-05 0.000686312 0.00186484
0.00223786 0.00129881 -0.00231694
-8.45651e-05 -0.000212436 0.000960576
0.000159249 -0.000259254 -8.82159e-05
-0.0769829 -0.00735558 -0.00206182
-0.000815956 -0.000396731 -0.000875689
0.000786028 0.00808205 -0.0163581
0.000300416 0.0021383 -0.005805
0.000259904 0.00141141 -0.00205363
0.00266024 0.00965937 -0.00373441
0.000138986 0.0134228 0.00461412
-2.02385e-242 -1.05745e-242 2.88878e-12
0.0160664 -0.0531923 0.0069436
-0.00165372 0.0160624 -0.0118565
-0.00224491 0.00261305 0.000815886
-0.0130865 -0.00142808 -0.00302802
-3.58947e-14 1.61032e-14 -3.28527e-13
0.0011208 -0.0140045 -0.0122807
-0.00286481 0.000191682 -0.00154877
-7.03749e-11 0.0201925 0.00354689
-3.26386e-05 0.0245443 -0.00215907
0.000297653 -0.00968129 0.0108593
0.000475466 -0.0167425 -0.00843963
0.000852797 -0.0114599 -0.0152562
-0.0458602 -0.0183599 -0.080742
0.00139764 0.0129168 0.0034381
0.000216948 -0.000851304 0.00092987
-0.000491177 -0.000550683 0.000822912
0.00011418 -0.00248157 0.0216175
0.00420676 0.000286823 -0.00124154
0.000411364 0.000979439 -0.00808593
0.0104103 0.00508503 -0.0144797
0.00428731 0.00316739 -0.00846913
0.00209548 0.0141148 -0.00277804
0.000561596 -0.00918999 0.0119369
0.000156769 -0.00752101 -0.0203365
0.00127861 0.00616171 -0.0170478
0.000746699 0.00215994 -0.0086142
-0.000294479 -0.0013869 1.80421e-05
0.000454765 0.00375238 0.0191324
-0.00120366 0.00744681 0.00646715
0.0011745 0.00046392 -0.00123194
0.00127971 0.0116635 -0.0159342
-0.000976605 -0.00124597 -0.000737735
0.00328044 -6.8801e-05 -0.00834811
-0.0014904 -0.00928801 0.000179309
0.040753 -0.00694287 -0.0177256
0.000112706 0.000356873 -0.00136184
-2.39575e-14 5.08199e-14 1.84342e-13
0.000951921 -0.0014903 0.00227988
0.00305814 0.0199589 -0.00529386
0.00228066 0.0143136 0.00386668
0.0615174 0.0104561 -0.0981393
0.0013037 -0.00929534 0.00432036
-0.061617 -0.078909 -0.0968544
9.77891e-15 1.33284e-14 1.89993e-13
0.000610287 0.0186768 -0.00339851
0.000952491 -0.00183787 0.00225415
0.000534139 0.0193706 -0.00750001
0.0031662 0.00406438 -0.00347565
-5.14458e-06 0.0163921 -0.0185302
-9.67556e-317 -9.75879e-317 -3.22607e-12
0.0269526 0.0275205 0.0483192
-0.00110977 0.0213612 -0.0114031
-0.233107 0.238005 0.15984
-0.00704038 0.000527017 -0.00419559
0.000616224 0.0116295 -0.0176572
-4.3763e-05 -0.000191008 0.000318124
-0.000357026 0.00820228 -0.0105036
0.00178041 0.00198962 0.000559975
0.00441946 0.013712 0.00639348
0.0017619 0.0052099 0.000955222
-8.68469e-06 -4.01747e-05 0.000304549
0.00288764 -0.000639741 -0.000150415
0.00115798 0.00598025 -0.00930874
0.00233497 -0.00365198 -0.00658768
0.00105625 0.0179168 -0.0110093
0.00792974 0.0179331 -0.0595664
0.00815974 0.000566217 -0.000716717
-8.44869e-06 -0.00655528 0.0210135
0.00716538 0.0120185 0.00762865
-0.00182595 0.00131962 -0.00193041
0.000941509 -0.0178522 -0.000376381
8.72505e-05 -0.0178812 0.00631477
-3.59282e-96 -6.73447e-97 9.23294e-13
0.000259044 -0.00679049 -0.00271252
0.00010424 0.0193494 -0.0158934
-0.0233806 0.0307665 0.0374232
0.00109011 0.00134893 -0.000577263
-0.0203189 -0.0194366 -0.049256
-0.0041089 0.00142654 0.00173033
7.924e-05 0.0157209 0.0154718
0.0079981 0.00450296 0.00421817
-0.00642008 -0.00357354 -0.00498572
-0.0105792 -0.00241767 -0.00384209
0.000942766 0.00353491 0.00614027
-0.00400636 0.00466355 0.00104066
0.00061052 0.00926949 0.0171086
-0.00757486 -0.00603381 -0.00612009
0.000927078 -0.0152751 0.00836882
-0.00204435 -0.000814514 -0.000550479
0.000797501 0.00153401 0.00162753
-0.0363881 0.0134705 -0.0298143
-0.00277477 0.00468398 0.00477938
0.00220134 0.000524132 -0.00196047
-0.00109323 0.0209287 0.00341342
-7.5645e-06 -0.000989272 -0.00134006
0.00270309 0.0181386 0.00631736
0.00315692 -0.00196969 -0.00712015
-0.00392054 0.00356687 -0.0036162
0.0131886 -0.00836065 -0.00136654
-8.97333e-09 0.0246341 -0.00260957
-0.0211197 0.00730316 0.0575485
0.00382913 0.00214327 0.00226006
0.00050235 0.0202416 0.0045045
-0.000279603 0.00280801 0.00430219
-0.0017394 0.00305451 -0.00357983
0.002038 0.00117433 -0.000510765
0.000641606 0.0160102 -0.000142623
1.52727e-05 -9.53362e-05 -0.00045837
0.0020166 -0.00460298 -0.0273789
-4.40364e-05 9.91512e-05 -0.0228247
0.00341209 0.000732035 -0.00706819
0.000326125 0.00531465 0.00100198
0.000391416 -0.0209853 0.00287984
0.0036537 0.022876 0.00301478
-0.012054 -0.0188001 0.00873638
-2.32134e-102 -1.53573e-101 4.97437e-14
-0.0038423 -0.00107341 -0.00128145
-0.195415 0.0920427 -0.0271183
0.00137068 0.00515024 -0.00450236
0.0260859 0.0291948 -0.0642778
0.000129843 -0.0017522 0.00266949
-0.000757356 -0.000758081 0.00264114
-0.00350202 -0.0027192 0.00339381
0.000769996 -0.000375066 -0.0139794
0.00136938 0.00331634 -0.0113239
-0.0022728 0.0010366 -0.00161171
-8.94298e-10 0.023276 0.00867932
0.000896506 0.00746362 -0.0151183
0.0238398 -0.00323521 -0.0129205
0.0019875 0.00246047 -0.000619035
-0.00310087 0.00122398 0.000629738
0.00496106 -0.0013672 -0.00541533
0.0110339 0.0168433 -0.0824629
0.00376534 0.00379195 0.00167255
0.00121305 0.0174433 0.00852328
7.53142e-16 -1.2624e-15 -6.97776e-15
-0.0525521 0.094262 -0.0111865
-0.00350301 0.0155135 0.00320463
0.0319383 -0.0177058 0.183529
0.00708376 0.0135661 0.00355682
0.00285873 -0.000647984 -0.000249181
-0.000939324 0.00729721 0.00368906
0.00406328 0.00186532 -0.00611638
-3.34871e-05 -0.000767843 -0.000234471
-0.0022862 -0.00125296 -0.000232224
0.00779803 0.00292469 -0.000414539
0.00180982 0.0129706 0.00713892
0.00384109 0.00807464 0.00582325
0.000237784 -0.0207284 0.00376002
0.0565477 -0.101015 -0.0875242
-0.0145687 0.000446374 -0.000130448
0.00251877 -0.000394101 -0.00677707
-9.68799e-317 -9.69932e-317 9.23294e-13
-0.000308146 -0.00300721 -0.000906329
-0.00159011 0.000804758 0.000815321
-0.00331156 0.000224237 0.00109145
-0.0126679 -0.00794847 -0.0110538
0.000561363 0.0207767 -7.3807e-05
-0.0191965 -0.00391214 -0.000946366
0.000840102 0.00319008 -0.00982678
-0.00688533 -0.0215312 -0.0013626
-8.73215e-05 -0.000486089 -0.000781957
2.60891e-15 4.20843e-16 -4.2529e-14
0.00114217 -0.00803242 0.0155778

VECTORS force float
-4.63082e-06 8.91995e-07 -9.07558e-08
-2.99552e-07 -3.3304e-07 6.57389e-07
9.93048e-06 -1.17408e-06 -8.90608e-06
-4.03959e-06 6.69541e-05 -1.77905e-05
-2.97418e-06 -9.7189e-06 6.5084e-07
0.0 0.0 -1.43822e-06
0.0 0.0 -1.43822e-06
-4.18529e-08 -4.83269e-08 -1.98406e-07
-8.5363e-06 1.41134e-05 -1.83146e-05
1.79995e-21 -1.23448e-20 0.0
-8.52951e-06 -4.92322e-06 -1.51217e-05
-2.71293e-07 -3.90208e-06 3.01963e-07
0.0 0.0 0.0
0.0 0.0 -1.43822e-06
4.26376e-09 -1.16145e-08 -2.99094e-08
-1.6749e-06 8.34366e-06 4.20529e-06
-2.37015e-08 1.292e-07 5.40256e-07
1.4961e-06 1.53701e-06 -1.85414e-06
-2.52858e-06 -8.15565e-06 2.26671e-06
2.12248e-07 4.91472e-07 -6.19591e-07
-7.40265e-10 -7.37351e-09 1.01406e-08
-4.99544e-07 -1.62348e-06 -2.05564e-06
0.0 0.0 -1.43822e-06
-6.29458e-07 2.20144e-06 9.94708e-07
3.4488e-09 -3.59228e-07 1.70423e-07
8.80866e-08 5.45968e-08 2.29878e-07
7.78639e-08 9.9329e-07 1.40185e-06
-8.52358e-08 -1.19232e-07 6.35463e-07
0.0315534 -0.0115102 0.00522272
-8.20865e-06 1.21247e-05 1.37752e-05
-3.96753e-09 -2.16711e-08 1.5438e-09
-3.89842e-06 -9.18844e-07 2.72055e-06
6.09333e-06 -1.64825e-06 -3.2928e-06
-1.03412e-05 5.36744e-05 -2.34194e-05
-1.33258e-07 -7.16176e-06 -4.11923e-06
-5.66375e-245 -2.95926e-245 0.0
0.0 0.0 -1.43822e-06
0.0 0.0 -1.43822e-06
2.22175e-08 -6.14808e-07 -4.63412e-07
3.38369e-06 1.12113e-05 3.68625e-06
-9.79382e-22 8.07328e-22 0.0
-1.35246e-08 -4.56262e-08 -2.61992e-08
-6.4963e-07 1.63312e-05 9.39659e-06
2.70885e-14 2.36536e-09 -1.34344e-08
9.13168e-08 -9.49908e-09 -1.30057e-08
-1.07774e-08 6.70206e-08 -4.6061e-08
-5.11106e-09 -2.67211e-08 -6.63439e-09
-4.62585e-09 -1.72833e-08 -6.08721e-09
0.0 0.0 -1.43822e-06
-1.17732e-05 4.60573e-05 -1.67918e-05
-3.31666e-06 6.35514e-07 1.05439e-06
1.59037e-08 4.73023e-08 -9.64929e-08
-1.53794e-09 1.02672e-08 5.32437e-09
5.25115e-08 -7.19163e-09 -1.38597e-06
9.52781e-06 -4.06957e-06 -6.82975e-06
5.69036e-06 -3.66732e-06 1.65634e-05
5.724e-06 3.58409e-06 -8.99253e-08
3.05699e-07 -7.6051e-07 3.63367e-07
-4.81103e-09 6.22386e-08 -6.08657e-08
-7.64953e-10 -1.17809e-08 -3.01399e-09
2.56437e-09 -1.79872e-08 4.17027e-09
2.29651e-06 2.3537e-05 -2.41688e-05
-4.25128e-06 -1.63803e-06 2.27546e-06
-3.9417e-09 1.24144e-08 1.19823e-08
-1.33537e-08 -1.33912e-07 -1.64797e-07
9.40897e-07 6.94801e-07 -1.52265e-06
1.24604e-05 -2.62034e-06 -3.81961e-06
-2.83632e-06 7.75528e-06 6.35078e-06
9.44101e-07 -4.86423e-09 6.95594e-08
0.0 0.0 -1.43822e-06
0.0 0.0 -1.43822e-06
5.18148e-06 1.16997e-06 4.65385e-06
1.74568e-19 -3.68459e-20 3.45166e-20
9.87343e-06 -1.29938e-05 3.22552e-05
-4.68966e-06 -3.01162e-05 -6.54045e-06
-3.65036e-06 1.40604e-05 -1.06105e-05
0.0 0.0 -1.43822e-06
4.13455e-08 -1.09205e-07 5.39106e-08
0.0 0.0 -1.43822e-06
4.39134e-20 4.50516e-20 -5.29396e-21
-4.74239e-09 1.26878e-08 -1.29056e-08
6.7436e-08 4.1896e-08 2.1295e-07
-9.19671e-09 1.16059e-08 -1.39139e-08
1.38407e-07 1.89385e-07 -5.34857e-07
8.08262e-06 5.31708e-06 -6.00593e-06
0.0 0.0 0.0
0.0 0.0 -1.43822e-06
1.2048e-06 1.64187e-05 -1.27417e-05
0.0 0.0 -1.43822e-06
-4.62089e-09 2.17041e-07 -1.13649e-06
-8.3445e-09 8.25321e-10 -1.3116e-08
-3.39741e-09 -1.49397e-08 2.61558e-08
1.22291e-05 7.4117e-06 -2.63362e-07
1.20213e-05 8.56193e-06 8.19273e-07
3.9252e-08 2.89001e-07 -4.42311e-07
2.02444e-08 -7.01432e-08 2.35276e-09
-3.85336e-08 2.36181e-07 5.73421e-07
-9.44171e-08 -4.92063e-08 -8.274e-07
-1.08805e-06 2.83206e-06 3.30252e-06
-4.79944e-08 2.43279e-08 -8.53692e-08
-8.61568e-06 5.37546e-05 -4.67966e-05
0.0 0.0 -1.43822e-06
0.0 0.0 -1.43822e-06
8.50548e-09 9.05868e-09 8.00162e-10
-7.19197e-08 2.15789e-07 -1.59773e-07
-2.38639e-06 1.13647e-06 3.3478e-06
-2.07469e-09 -1.15037e-08 1.50307e-08
-3.2407e-08 2.58741e-07 -5.85962e-08
1.91085e-99 3.58175e-100 0.0
2.91618e-05 4.30283e-06 1.94337e-05
-3.7583e-07 2.10684e-07 7.20813e-07
0.0 0.0 -1.43822e-06
1.25887e-06 -2.89103e-07 -6.73818e-07
-1.0085e-07 -1.17771e-07 -1.22097e-06
8.27012e-08 -2.25581e-07 -1.76601e-07
-1.29815e-09 9.94951e-09 -4.49034e-09
1.6036e-07 -1.34139e-07 -2.26905e-07
-2.75173e-08 -3.24915e-08 7.6015e-09
-2.10207e-07 1.80299e-07 -1.02972e-06
-7.45123e-08 2.94398e-07 1.9959e-07
5.21649e-07 1.67848e-06 -6.64414e-07
1.69313e-09 9.6259e-09 -6.36401e-09
-2.48861e-07 3.74916e-07 -8.66243e-07
5.95271e-09 -8.36458e-08 7.43693e-08
0.0 0.0 -1.43822e-06
4.55852e-07 -5.34454e-07 2.38611e-07
-1.2528e-07 -3.42882e-08 -1.09318e-06
-5.96349e-06 8.50864e-06 2.84247e-05
3.64913e-08 2.05785e-08 1.00943e-08
-1.57191e-05 4.48846e-05 -2.19796e-05
1.04385e-06 8.55038e-07 -1.06965e-07
-1.00127e-05 8.62628e-06 -6.81903e-06
9.05868e-08 3.69247e-08 4.00339e-07
-2.53773e-07 6.65185e-07 -2.9466e-07
0.0 0.0 -1.43822e-06
-1.91328e-14 -1.70381e-09 -1.68133e-08
0.0 0.0 -1.43822e-06
-2.19968e-07 7.95522e-07 -1.85461e-06
1.29785e-09 2.82819e-08 -5.42294e-09
-1.50862e-08 -4.90072e-08 -2.15255e-07
-3.98345e-07 4.31189e-07 -3.551e-07
1.02445e-06 -2.24759e-07 6.19929e-07
2.61813e-06 8.41722e-06 -1.04383e-05
1.20746e-07 8.55151e-08 -2.90596e-07
0.0 0.0 -1.43822e-06
1.52826e-08 9.94184e-09 -3.43728e-08
7.12974e-07 -1.60795e-06 2.81036e-06
0.0 0.0 -1.43822e-06
-1.31874e-08 1.5099e-07 -1.35505e-08
-1.77767e-05 -4.46799e-05 1.08001e-06
1.41456e-07 8.53339e-07 -3.96548e-07
-5.24175e-105 -3.4678e-104 0.0
-1.60343e-06 -9.08285e-07 2.75853e-06
0.0996747 0.0580475 0.106782
7.21413e-06 4.2608e-06 -2.98134e-06
0.0 0.0 -1.43822e-06
0.0 0.0 -1.43822e-06
-4.16032e-08 1.23226e-07 4.68838e-07
2.12717e-07 3.51492e-07 -1.28789e-06
8.30034e-09 7.16932e-09 1.07692e-08
1.06437e-06 -3.73856e-07 2.32298e-06
4.65308e-07 1.53661e-06 2.53278e-06
-1.42682e-12 6.1248e-09 -1.58193e-08
1.09833e-06 -1.61138e-07 8.55874e-07
1.44694e-07 -2.80561e-08 -6.28364e-07
1.84721e-05 1.17236e-05 -1.10513e-05
7.91226e-08 -2.60719e-07 -2.29818e-07
-6.04335e-07 2.80885e-06 1.14484e-05
0.0 0.0 -1.43822e-06
-1.44397e-08 1.31622e-08 -1.74708e-06
-9.66156e-07 4.03018e-07 1.16548e-06
0.0 -5.29396e-23 0.0
0.0 0.0 -1.43822e-06
2.31054e-07 2.6295e-07 -5.21012e-07
0.0 0.0 -1.43822e-06
-3.97389e-06 -1.96461e-06 1.5757e-05
6.43956e-07 -1.79412e-07 -4.82037e-07
9.88203e-10 -8.25846e-08 -1.64754e-07
1.45563e-05 -4.18942e-07 1.71812e-05
-4.97382e-06 1.58181e-08 1.04868e-06
5.51913e-08 7.51967e-08 -4.93049e-07
3.97903e-07 -9.08446e-09 -1.87406e-06
2.67342e-09 -8.36677e-09 -1.11196e-08
0.0 0.0 -1.43822e-06
-1.7469e-09 -7.11502e-09 1.02443e-08
0.0 0.0 -1.43822e-06
-3.19409e-07 7.78741e-07 -1.57326e-06
-2.35333e-07 -4.92947e-07 -3.20607e-07
0.0 0.0 0.0
-2.57881e-06 8.18584e-08 2.08799e-06
-1.75939e-07 4.64514e-08 1.32008e-07
-6.56815e-08 -1.73366e-07 -1.29542e-07
0.0 0.0 -1.43822e-06
-1.44704e-07 2.75416e-08 -7.4779e-08
1.96659e-07 1.22312e-06 -5.43035e-07
1.02472e-05 -2.86902e-06 -3.81122e-07
3.2779e-08 5.13176e-07 -2.22226e-06
-7.1184e-09 2.32957e-09 3.00677e-08
-4.02341e-21 2.44349e-21 -2.11758e-22
-1.006e-08 -4.58346e-09 2.08409e-08
