# vtk DataFile Version 3.0
LIGGGHTS particles timestep 27800000
ASCII
DATASET POLYDATA
POINTS 107 float
0.0189627 0.0160354 0.00843642
0.0242546 0.020213 0.00583854
0.0330199 0.0181648 0.00598755
0.0552529 0.0189972 0.0058882
0.00938048 0.0183393 0.00587271
0.0260391 0.0196534 0.00594246
0.0764299 0.01907 0.00579421
0.0366849 0.0218066 0.0435188
0.0517123 0.0227405 0.0136524
0.0450883 0.0233371 0.0108568
0.0342322 0.0172097 0.00627001
0.000591717 0.0149731 0.0435188
0.0491896 0.0171137 0.00767554
0.0373572 0.0202824 0.00605833
0.0345319 0.0198505 0.0157128
0.049528 0.0194806 0.00601095
0.0303784 0.0148579 0.0105533
0.0406354 0.0195177 0.0156533
0.0317238 0.0192455 0.00569325
0.003617 0.0285782 0.0435188
0.0860181 0.0183082 0.00577269
0.0177449 0.0174882 0.00600758
0.0502246 0.0212888 0.00782275
0.0281078 0.0214924 0.0150373
0.112778 0.0179068 0.0059233
0.0495635 0.0183123 0.00726441
0.0452523 0.0173614 0.00620617
0.0370167 0.0186542 0.0057303
0.0416861 0.0153318 0.0136229
0.0334291 0.0232355 0.0126305
0.0551402 0.017971 0.00596606
0.0427197 0.0154403 0.00928109
0.0483081 0.0148226 0.0108017
0.0477219 0.0152185 0.0134183
0.0510438 0.0232539 0.010863
0.0415058 0.0159216 0.0144489
0.0475225 0.015758 0.0142615
0.0294035 0.0162676 0.0147218
0.0464577 0.0180237 0.00607863
0.0214483 0.0168437 0.00645098
0.0356453 0.0154271 0.0137692
0.0436687 0.0188803 0.00720576
0.0586827 0.0172628 0.00598816
0.0792417 0.0194286 0.00576565
0.0270776 0.0233332 0.0107329
0.0520967 0.0215713 0.015009
0.0303903 0.00406748 0.0435188
0.0388419 0.0230694 0.00994387
0.052461 0.0201702 0.0156996
0.0438472 0.0171169 0.00621343
0.0480467 0.014903 0.0121429
0.0473953 0.0193073 0.0059321
0.0418859 0.0149699 0.0128459
0.0391573 0.0233646 0.0111088
0.0529652 0.0177654 0.0156203
0.0462045 0.0211355 0.0152846
0.0431225 0.0166699 0.00791484
0.0584376 0.0191695 0.00582359
0.0236027 0.0156447 0.0143563
0.0261733 0.0210118 0.00770783
0.020084 0.0201843 0.0061153
0.0497979 0.0194432 0.00722863
0.0221348 0.00230077 0.0435188
0.201805 0.0186174 0.00570934
0.044532 0.0223447 0.00870298
0.0317111 0.0190699 0.00721091
0.0830234 0.0186618 0.00583976
0.0308159 0.0155651 0.00898874
0.067984 0.0193424 0.00575613
0.047307 0.0165652 0.015005
0.0800972 0.0199306 0.00589216
0.0440294 0.020552 0.00744667
0.0313836 0.017652 0.00740286
0.0253288 0.0204564 0.00590683
0.0434569 0.0179852 0.00738333
0.0466439 0.0194882 0.015796
0.0326176 0.0226402 0.00906141
0.0392951 0.0190642 0.00571675
0.026935 0.0188837 0.00598981
0.0352779 0.0166089 0.015008
0.0506368 0.022707 0.00937096
0.0396807 0.0228374 0.0135234
0.0487123 0.0154008 0.00925449
0.0221996 0.00109062 0.0435188
0.0484883 0.015015 0.0101143
0.0403464 0.020585 0.015556
0.0386284 0.0225755 0.00905433
0.0514293 0.0231863 0.0125598
0.0561606 0.0173315 0.00595822
0.0895649 0.0187731 0.00575225
0.0369729 0.0160174 0.00844313
0.0361833 0.0148157 0.0116274
0.0470623 0.0174096 0.0154673
0.108836 0.0200055 0.00584234
0.0302296 0.0147821 0.0113559
0.0408788 0.018226 0.0156504
0.037438 0.0179582 0.0073145
0.0424146 0.0149281 0.0103502
0.0273839 0.0232821 0.0124681
0.0377576 0.01917 0.00724912
0.0323816 0.0217202 0.00807036
0.00937694 0.00505359 0.0435188
0.0457039 0.018685 0.00600217
0.0342391 0.0210412 0.0151731
0.0239797 0.0191467 0.00594569
0.0254808 0.018723 0.00589902
0.0448428 0.0230231 0.00995

VERTICES 107 214
1 0
1 1
1 2
1 3
1 4
1 5
1 6
1 7
1 8
1 9
1 10
1 11
1 12
1 13
1 14
1 15
1 16
1 17
1 18
1 19
1 20
1 21
1 22
1 23
1 24
1 25
1 26
1 27
1 28
1 29
1 30
1 31
1 32
1 33
1 34
1 35
1 36
1 37
1 38
1 39
1 40
1 41
1 42
1 43
1 44
1 45
1 46
1 47
1 48
1 49
1 50
1 51
1 52
1 53
1 54
1 55
1 56
1 57
1 58
1 59
1 60
1 61
1 62
1 63
1 64
1 65
1 66
1 67
1 68
1 69
1 70
1 71
1 72
1 73
1 74
1 75
1 76
1 77
1 78
1 79
1 80
1 81
1 82
1 83
1 84
1 85
1 86
1 87
1 88
1 89
1 90
1 91
1 92
1 93
1 94
1 95
1 96
1 97
1 98
1 99
1 100
1 101
1 102
1 103
1 104
1 105
1 106

POINT_DATA 107
SCALARS id int 1
LOOKUP_TABLE default
1
2
4
5
15
16
17
18
20
24
25
27
28
32
33
37
41
44
47
49
52
57
59
63
65
67
68
73
74
76
79
84
87
88
89
90
92
97
103
108
109
112
121
122
124
125
128
130
131
133
135
137
139
141
142
143
147
149
150
157
158
160
161
165
166
167
173
174
179
185
186
187
191
193
194
197
200
205
215
225
226
227
229
232
237
241
242
247
252
253
256
257
258
260
268
269
270
271
274
275
277
284
288
291
294
299
300

SCALARS type int 1
LOOKUP_TABLE default
1
1
1
1
1
1
1
1
1
1
1
1
1
1
1
1
1
1
1
1
1
1
1
1
1
1
1
1
1
1
1
1
1
1
1
1
1
1
1
1
1
1
1
1
1
1
1
1
1
1
1
1
1
1
1
1
1
1
1
1
1
1
1
1
1
1
1
1
1
1
1
1
1
1
1
1
1
1
1
1
1
1
1
1
1
1
1
1
1
1
1
1
1
1
1
1
1
1
1
1
1
1
1
1
1
1
1

SCALARS radius float 1
LOOKUP_TABLE default
0.0005
0.0005
0.0005
0.0005
0.0005
0.0005
0.0005
0.0005
0.0005
0.0005
0.0005
0.0005
0.0005
0.0005
0.0005
0.0005
0.0005
0.0005
0.0005
0.0005
0.0005
0.0005
0.0005
0.0005
0.0005
0.0005
0.0005
0.0005
0.0005
0.0005
0.0005
0.0005
0.0005
0.0005
0.0005
0.0005
0.0005
0.0005
0.0005
0.0005
0.0005
0.0005
0.0005
0.0005
0.0005
0.0005
0.0005
0.0005
0.0005
0.0005
0.0005
0.0005
0.0005
0.0005
0.0005
0.0005
0.0005
0.0005
0.0005
0.0005
0.0005
0.0005
0.0005
0.0005
0.0005
0.0005
0.0005
0.0005
0.0005
0.0005
0.0005
0.0005
0.0005
0.0005
0.0005
0.0005
0.0005
0.0005
0.0005
0.0005
0.0005
0.0005
0.0005
0.0005
0.0005
0.0005
0.0005
0.0005
0.0005
0.0005
0.0005
0.0005
0.0005
0.0005
0.0005
0.0005
0.0005
0.0005
0.0005
0.0005
0.0005
0.0005
0.0005
0.0005
0.0005
0.0005
0.0005

SCALARS mass float 1
LOOKUP_TABLE default
1.46608e-07
1.46608e-07
1.46608e-07
1.46608e-07
1.46608e-07
1.46608e-07
1.46608e-07
1.46608e-07
1.46608e-07
1.46608e-07
1.46608e-07
1.46608e-07
1.46608e-07
1.46608e-07
1.46608e-07
1.46608e-07
1.46608e-07
1.46608e-07
1.46608e-07
1.46608e-07
1.46608e-07
1.46608e-07
1.46608e-07
1.46608e-07
1.46608e-07
1.46608e-07
1.46608e-07
1.46608e-07
1.46608e-07
1.46608e-07
1.46608e-07
1.46608e-07
1.46608e-07
1.46608e-07
1.46608e-07
1.46608e-07
1.46608e-07
1.46608e-07
1.46608e-07
1.46608e-07
1.46608e-07
1.46608e-07
1.46608e-07
1.46608e-07
1.46608e-07
1.46608e-07
1.46608e-07
1.46608e-07
1.46608e-07
1.46608e-07
1.46608e-07
1.46608e-07
1.46608e-07
1.46608e-07
1.46608e-07
1.46608e-07
1.46608e-07
1.46608e-07
1.46608e-07
1.46608e-07
1.46608e-07
1.46608e-07
1.46608e-07
1.46608e-07
1.46608e-07
1.46608e-07
1.46608e-07
1.46608e-07
1.46608e-07
1.46608e-07
1.46608e-07
1.46608e-07
1.46608e-07
1.46608e-07
1.46608e-07
1.46608e-07
1.46608e-07
1.46608e-07
1.46608e-07
1.46608e-07
1.46608e-07
1.46608e-07
1.46608e-07
1.46608e-07
1.46608e-07
1.46608e-07
1.46608e-07
1.46608e-07
1.46608e-07
1.46608e-07
1.46608e-07
1.46608e-07
1.46608e-07
1.46608e-07
1.46608e-07
1.46608e-07
1.46608e-07
1.46608e-07
1.46608e-07
1.46608e-07
1.46608e-07
1.46608e-07
1.46608e-07
1.46608e-07
1.46608e-07
1.46608e-07
1.46608e-07

VECTORS velocity float
0.000582529 -0.0138394 0.013983
-9.08601e-15 -1.46377e-15 1.48131e-13
6.30043e-16 6.72204e-15 2.00029e-14
-1.32742e-17 -1.77918e-17 -2.57122e-16
3.64554e-15 5.41329e-16 -3.69009e-14
2.09856e-14 3.38092e-15 -3.42138e-13
-1.47652e-15 8.83767e-15 3.39841e-14
-9.6879e-317 9.73506e-317 2.68131e-13
0.000446894 0.0100985 -0.0180161
0.00119609 -0.00320655 -0.0162787
-1.50951e-16 -1.89163e-15 -5.63081e-15
9.71467e-317 9.75789e-317 -8.23806e-13
0.000945405 -0.0078677 0.00334323
-5.16381e-15 1.75294e-14 -8.08023e-14
0.00137149 0.0162475 -0.00407592
5.78642e-15 -1.24724e-14 -1.29437e-13
0.00116578 -0.00226297 0.0121083
0.000460465 0.0213467 -0.00208934
-2.30864e-15 -6.18776e-14 2.10855e-13
-9.68849e-317 -9.75601e-317 2.88878e-12
-1.22916e-15 3.67134e-14 1.26766e-13
2.62625e-15 1.02246e-14 2.12823e-14
0.000924889 -0.0138539 -0.00940739
0.00102789 0.0139875 -0.0106681
8.48087e-16 3.43614e-15 1.42011e-14
0.000237876 -0.0207983 0.00348418
-3.13884e-15 -1.74617e-14 -1.20236e-13
4.03825e-16 -2.03095e-15 1.00254e-14
0.000794621 0.00965381 0.0163518
0.000991133 0.00468796 -0.0161959
-2.82228e-15 -3.83403e-15 -5.46135e-14
0.000415827 -0.00849498 0.0150806
0.00276258 -0.00119197 -0.00440594
-6.05331e-06 0.00815025 0.0215158
0.000905506 -0.00392234 -0.0180147
0.00012355 0.0143816 0.0161585
0.00123547 0.00443221 0.00444135
0.00107512 0.017064 0.0137814
-3.12636e-15 -1.74654e-14 -1.20236e-13
-2.37756e-14 5.09374e-14 1.84333e-13
8.8415e-05 0.0110987 0.0187628
-0.000156037 -0.0131927 0.00108679
1.03835e-14 -2.15394e-14 -2.64999e-13
-1.23742e-15 -3.97381e-15 -1.67762e-14
0.00197734 -0.00302113 -0.0173907
9.94817e-05 0.0185306 -0.012093
-9.67556e-317 -9.75879e-317 -3.22607e-12
0.000326979 -0.00772665 -0.018868
0.00173861 0.0159944 -0.00458492
5.39789e-16 -1.55034e-15 -8.51066e-15
0.000120704 0.0032233 0.0212942
4.73444e-15 -1.01797e-14 -1.05707e-13
0.00074193 0.00488276 0.0186664
-0.000134617 0.000415815 -0.0219852
0.00205823 0.00737021 0.00204583
2.01453e-05 0.0195717 -0.00988289
0.000245617 -0.0197597 0.0108343
8.15804e-15 -1.68238e-14 -2.07264e-13
0.00403815 0.00312757 0.00327736
0.000283273 -0.0138924 -0.00776216
5.5152e-15 -2.48077e-15 5.04898e-14
-4.43326e-05 -0.0231438 -0.00383728
9.74157e-317 -9.69799e-317 9.23294e-13
-3.8561e-20 -8.56408e-22 -1.30474e-21
0.000492162 -0.0110447 -0.0155486
-1.23208e-07 -0.0222869 -0.00153046
1.15479e-14 3.23739e-14 -1.39058e-13
0.00111207 -0.00973946 0.0147493
3.93168e-15 7.51308e-15 2.61625e-13
0.000215485 0.0171361 0.0131601
1.39375e-15 3.74713e-15 -1.60301e-14
-0.000114693 -0.0207218 -0.00926195
0.000385845 -0.0201916 0.00636854
9.29105e-15 1.4964e-15 -1.51478e-13
0.00177964 -0.00719244 0.00116476
0.00192304 0.0158748 -0.000815595
0.000279913 -0.0123473 -0.017419
2.86772e-15 -1.34626e-14 6.6638e-14
1.43031e-14 2.30379e-15 -2.33189e-13
0.000847552 0.0151649 0.00925714
8.34383e-05 -0.010351 -0.0192484
5.54656e-05 0.0126843 -0.0180971
0.000343782 -0.011991 0.0169813
9.58743e-317 9.68145e-317 4.97437e-14
0.00370888 -0.00271819 0.0018289
0.000901252 0.0128507 -0.00330819
-3.78751e-05 -0.0118605 -0.0192891
-2.24892e-06 0.00644713 -0.021028
1.40314e-14 1.90627e-14 2.71525e-13
-1.30985e-14 1.89709e-14 2.53775e-13
0.000350214 -0.0135002 0.0142831
-0.000290477 -0.000263224 0.0219119
0.00266718 0.0123709 0.00407355
7.53171e-16 -1.2694e-15 -6.97664e-15
0.00203247 -0.000731343 0.00331091
0.000886263 0.0193174 0.00307446
0.000459376 -0.0114055 0.00225258
0.00116191 -0.00377146 0.0180386
0.00188307 0.00305227 -0.015388
-0.000235467 -0.0196861 -0.00157623
0.00029324 -0.0165297 -0.0141371
-9.68799e-317 -9.69932e-317 9.23294e-13
-6.97982e-15 -3.90025e-14 -2.68502e-13
0.00153212 0.0153955 -0.00844864
-2.27379e-14 -4.66211e-14 -1.52821e-13
-2.07802e-14 -3.36773e-15 3.38791e-13
0.000297197 -0.00767892 -0.0193262

VECTORS force float
-7.17111e-09 -6.20893e-09 1.75481e-08
1.32349e-23 -1.35658e-22 0.0
-1.88663e-20 2.43522e-21 -2.11758e-22
-2.64698e-23 -1.58819e-22 0.0
-7.94093e-23 1.64774e-21 0.0
0.0 -1.09188e-22 0.0
-4.33774e-20 -1.16467e-20 -1.48231e-21
0.0 0.0 0.0
-2.96841e-09 -5.89598e-09 -1.15018e-08
4.33544e-06 -1.45867e-06 -2.13217e-06
2.44845e-22 0.0 0.0
0.0 0.0 0.0
-1.24507e-08 -1.38426e-08 3.49264e-09
-3.85135e-21 -1.32349e-21 0.0
-7.17091e-07 -3.62578e-06 3.46112e-06
-1.0032e-20 -3.20284e-21 -2.11758e-22
6.22738e-09 2.24683e-10 3.61249e-08
-1.35059e-08 2.38726e-08 -1.56733e-08
-2.72142e-21 5.29396e-23 0.0
0.0 0.0 0.0
-1.80127e-20 -1.20702e-20 2.96462e-21
-3.46754e-21 -3.38813e-21 1.69407e-21
-1.6136e-08 -1.09408e-09 1.33251e-08
-3.14337e-09 1.08433e-08 -1.92766e-08
-4.74471e-20 1.87406e-20 -1.27055e-21
-8.05933e-10 -4.32527e-09 1.06975e-08
5.36013e-20 -1.48231e-21 -1.27055e-21
-8.53783e-20 -1.64113e-20 2.11758e-22
-6.62062e-09 5.66318e-09 -6.67487e-09
3.1072e-08 -5.69927e-08 1.39158e-07
1.05879e-22 1.32349e-23 0.0
-7.81251e-09 7.90363e-09 3.5225e-08
2.09192e-08 9.08388e-08 -9.84275e-08
-2.25717e-09 1.04572e-08 -5.15612e-10
-3.68775e-09 -1.29159e-08 -8.99716e-09
-1.44715e-09 1.19669e-08 -3.39689e-09
-2.92296e-09 1.61655e-08 3.5152e-08
-3.29584e-08 2.28062e-08 7.2042e-08
9.13207e-22 -5.29396e-23 0.0
-1.42275e-19 9.75147e-20 -4.70103e-20
-6.45386e-10 1.28874e-08 -9.69422e-10
-1.2827e-08 -5.15458e-08 1.28608e-08
2.68007e-21 4.57927e-21 -4.23516e-22
3.70577e-22 1.37643e-21 5.92923e-21
-3.39572e-07 -4.66337e-06 -1.39184e-05
-3.75704e-10 -1.35691e-09 -1.24866e-08
0.0 0.0 0.0
-1.15256e-09 -1.22087e-08 -2.56288e-09
-7.08465e-09 2.06931e-08 -3.09154e-08
-2.33596e-20 4.02341e-21 -2.32934e-21
-5.16064e-10 1.16438e-08 2.46145e-09
1.03762e-20 2.91168e-21 2.11758e-22
-1.29196e-08 -1.98439e-08 -4.19866e-08
1.14048e-08 -1.29483e-08 7.87339e-09
-2.529e-08 4.38276e-08 4.20784e-08
1.69575e-09 7.05587e-10 -1.40527e-08
3.97921e-10 4.87574e-09 1.01632e-08
-6.02518e-20 -2.09508e-20 -6.35275e-22
-6.38071e-10 -6.63875e-09 8.83815e-09
-1.28685e-09 -3.76797e-08 1.18304e-08
-2.09111e-21 -2.93815e-21 4.23516e-22
1.38226e-09 -2.36395e-09 1.10129e-08
0.0 0.0 0.0
0.0 0.0 0.0
3.98563e-09 -4.7901e-10 3.17534e-08
-3.71334e-11 -4.16007e-09 1.10212e-08
4.63221e-22 3.44107e-21 8.47033e-22
-8.11534e-09 -3.62924e-09 2.18212e-08
4.39431e-20 -2.40015e-20 0.0
5.56182e-09 -1.03802e-08 -2.92496e-08
-4.23516e-22 -1.32349e-21 5.71747e-21
2.09771e-09 -9.95059e-09 8.35472e-09
-1.06006e-09 -1.70933e-09 1.13882e-08
0.0 0.0 0.0
5.86743e-09 5.72154e-08 -8.74879e-08
-6.15629e-09 1.72332e-08 -5.02866e-08
-1.37106e-08 -8.49935e-08 -1.17463e-07
-5.91269e-20 -2.50404e-20 -2.32934e-21
-7.94093e-23 2.8455e-22 0.0
-1.7563e-09 1.40429e-08 -5.66424e-09
-2.61293e-10 -1.15751e-08 2.99874e-09
-4.18867e-09 -8.41676e-09 -7.69325e-09
1.70588e-08 5.64287e-08 -6.38036e-08
0.0 0.0 0.0
3.1093e-08 2.63411e-08 -2.35849e-07
6.83262e-09 -1.85993e-08 -1.90528e-08
1.57545e-09 -7.80468e-09 5.56291e-09
-1.29795e-09 -9.68465e-09 -6.14299e-09
3.30872e-22 -2.64698e-23 0.0
1.01909e-19 9.61382e-20 -1.48231e-21
-3.00722e-09 -1.58226e-09 1.70803e-08
5.40993e-09 1.21307e-08 3.7178e-09
-1.77231e-08 6.14231e-08 3.2343e-08
0.0 1.23349e-20 -2.5411e-21
-4.56887e-08 -2.41771e-08 -2.31428e-08
-6.96687e-09 1.86128e-08 -7.83029e-09
2.27302e-09 -1.39225e-08 7.68235e-09
-1.76954e-08 -1.08674e-08 8.57239e-08
-4.07537e-07 3.25423e-06 -6.62483e-06
-5.65413e-09 6.28631e-08 2.26789e-08
9.51588e-10 -8.43629e-09 7.53564e-09
0.0 0.0 0.0
-9.61515e-21 3.70577e-22 2.11758e-22
3.01268e-10 -1.09514e-08 -7.01681e-10
-5.02926e-22 -1.05879e-22 0.0
1.32349e-21 4.7768e-20 4.23516e-22
-6.64223e-08 -4.2374e-07 -8.27063e-07
