# vtk DataFile Version 3.0
LIGGGHTS particles timestep 11400000
ASCII
DATASET POLYDATA
POINTS 147 float
0.0192436 0.0224662 0.0143427
0.0235316 0.0188051 0.0167437
0.0197952 0.0234686 0.0117359
0.0317894 0.0169027 0.0152509
0.023337 0.0228177 0.00945313
0.0207055 0.0242684 0.0139569
0.00938048 0.0183393 0.00587271
0.0245981 0.0217529 0.0151299
0.0297047 0.0233801 0.0110833
0.0366849 0.0218066 0.0435188
0.0237903 0.0234044 0.0114326
0.0349627 0.021923 0.00822186
0.0199558 0.0239892 0.0145569
0.0285205 0.0197888 0.00728489
0.0134728 0.0242492 0.0226911
0.0205873 0.0232146 0.0145402
0.0319625 0.0162557 0.0147721
0.0142073 0.0224253 0.0143893
0.0203872 0.0151775 0.0137182
0.0205948 0.0178212 0.0158961
0.0205939 0.0144662 0.0128851
0.0309762 0.0205794 0.0155014
0.019747 0.0173315 0.0156968
0.0153757 0.0151462 0.0136219
0.0179991 0.0234979 0.0121429
0.0258527 0.0186284 0.0171864
0.0199908 0.0164034 0.01508
0.003617 0.0285782 0.0435188
0.0337016 0.0150207 0.0101206
0.0223393 0.0151251 0.0135798
0.0196051 0.0193773 0.00612808
0.0326832 0.0147579 0.0117748
0.0163012 0.0146294 0.0196327
0.0167403 0.0142171 0.0135371
0.0346155 0.0204764 0.00768897
0.0322484 0.0155908 0.0140207
0.0331863 0.0151597 0.0096738
0.0198367 0.0184734 0.0159048
0.0172842 0.0240555 0.0130975
0.025037 0.0209075 0.0155391
0.0208293 0.019093 0.0159503
0.0306548 0.0218027 0.0148486
0.0212588 0.0152216 0.00948533
0.026641 0.0148217 0.0121187
0.0255688 0.020556 0.0163338
0.0231295 0.0148191 0.0146065
0.031194 0.0195015 0.0157953
0.0323762 0.0154136 0.00913866
0.0338749 0.0170277 0.00770924
0.0242452 0.0227313 0.01365
0.0304541 0.0223718 0.014225
0.0194413 0.0177977 0.016527
0.0288974 0.0215192 0.00790395
-0.000344201 0.0346854 0.0203377
0.0234733 0.023136 0.0100637
0.0214483 0.0168437 0.00645098
0.0258367 0.0196616 0.0167538
0.0178102 0.0123303 0.0223851
0.0276061 0.0161592 0.00831385
0.017661 0.023709 0.0140162
0.0551527 0.0181697 0.00595147
0.0353508 0.0227574 0.00943116
0.020997 0.0202973 0.0157629
0.0351349 0.022314 0.00870492
0.0193238 0.0239585 0.0137847
0.0303903 0.00406748 0.0435188
0.0181892 0.0152003 0.0150645
0.0299451 0.0224979 0.00890074
0.0233604 0.0225011 0.00899463
0.0342576 0.018826 0.0073312
0.0201114 0.0137992 0.0135645
0.0191098 0.0231547 0.0132328
0.0255451 0.0183511 0.0158881
0.0190468 0.0205718 0.0156846
0.035652 0.0233557 0.0108171
0.0290374 0.0221047 0.00845444
0.0270253 0.0148297 0.0106061
0.0570019 0.0175547 0.00590579
0.0220696 0.0158215 0.0145765
0.0214604 0.0183202 0.0158843
0.020049 0.0241699 0.0129873
0.0225814 0.0235911 0.0141962
0.0325199 0.0149717 0.0127402
0.0221348 0.00230077 0.0435188
0.0165475 0.0238176 0.0137319
0.0280283 0.0178526 0.00735587
0.0185442 0.013725 0.0137028
0.0181983 0.0235466 0.013117
0.0176528 0.0233776 0.0112655
0.0183041 0.0233541 0.0111313
0.0205379 0.02222 0.0146276
0.0192103 0.0139808 0.0130022
0.0302751 0.022878 0.013413
0.0287302 0.0207599 0.00754247
0.0278701 0.016948 0.00770054
0.0211967 0.0161919 0.0149006
0.0222793 0.0144093 0.0142724
0.0273389 0.0154259 0.00917071
0.0292726 0.0227108 0.0091361
0.0217555 0.0238663 0.0137045
0.0189963 0.0240587 0.0128458
0.0295089 0.0231545 0.0100853
0.0251914 0.0160329 0.0309414
0.0232093 0.0216815 0.0161605
0.0268146 0.0190088 0.00598366
0.02053 0.021447 0.0152616
0.0210168 0.0240029 0.0130446
0.0225598 0.0153299 0.0152996
0.0183912 0.0231432 0.010401
0.0335227 0.0159339 0.00855568
0.0257512 0.0176982 0.0167572
0.0169703 0.0149908 0.0148311
0.0316661 0.0176268 0.0155466
0.0221996 0.00109062 0.0435188
0.0189152 0.0234549 0.0120165
0.0314095 0.0186311 0.0158028
0.021383 0.0140373 0.0145049
0.0219616 0.0175192 0.00749233
0.0174956 0.0145244 0.0141158
0.0347847 0.0213635 0.00789121
0.0214582 0.014915 0.0131523
0.0207696 0.0146366 0.0119542
0.023836 0.0152824 0.0151584
0.0184773 0.0145972 0.0142914
0.0193995 0.0142701 0.0140854
0.0216344 0.014938 0.0148848
0.0300173 0.0233166 0.0122689
0.108836 0.0200055 0.00584234
0.02325 0.0159305 0.0157033
0.01616 0.0148786 0.0130622
0.0177415 0.014092 0.0132281
0.0241455 0.0228989 0.00951053
0.0244995 0.0158484 0.0156682
0.0264308 0.0151499 0.0132218
0.0232725 0.0231801 0.0147906
0.0199381 0.0232975 0.0126856
0.0212547 0.0154629 0.0141232
0.0240281 0.0225862 0.0154538
0.0157607 0.0235107 0.0142937
0.00937694 0.00505359 0.0435188
0.0184277 0.0228114 0.0138796
0.0184005 0.0243659 0.0136701
0.0230001 0.0218444 0.00845766
0.0200897 0.0198178 0.0158928
0.0211374 0.0140907 0.0135836
0.024947 0.0190645 0.00586966
0.0282351 0.0188207 0.00719617

VERTICES 147 294
1 0
1 1
1 2
1 3
1 4
1 5
1 6
1 7
1 8
1 9
1 10
1 11
1 12
1 13
1 14
1 15
1 16
1 17
1 18
1 19
1 20
1 21
1 22
1 23
1 24
1 25
1 26
1 27
1 28
1 29
1 30
1 31
1 32
1 33
1 34
1 35
1 36
1 37
1 38
1 39
1 40
1 41
1 42
1 43
1 44
1 45
1 46
1 47
1 48
1 49
1 50
1 51
1 52
1 53
1 54
1 55
1 56
1 57
1 58
1 59
1 60
1 61
1 62
1 63
1 64
1 65
1 66
1 67
1 68
1 69
1 70
1 71
1 72
1 73
1 74
1 75
1 76
1 77
1 78
1 79
1 80
1 81
1 82
1 83
1 84
1 85
1 86
1 87
1 88
1 89
1 90
1 91
1 92
1 93
1 94
1 95
1 96
1 97
1 98
1 99
1 100
1 101
1 102
1 103
1 104
1 105
1 106
1 107
1 108
1 109
1 110
1 111
1 112
1 113
1 114
1 115
1 116
1 117
1 118
1 119
1 120
1 121
1 122
1 123
1 124
1 125
1 126
1 127
1 128
1 129
1 130
1 131
1 132
1 133
1 134
1 135
1 136
1 137
1 138
1 139
1 140
1 141
1 142
1 143
1 144
1 145
1 146

POINT_DATA 147
SCALARS id int 1
LOOKUP_TABLE default
1
2
4
5
11
13
15
16
17
18
19
20
23
24
25
27
28
31
32
33
35
37
40
41
43
44
47
49
52
54
57
59
62
63
65
67
68
71
73
74
76
79
80
84
85
86
87
88
89
90
92
97
103
105
106
108
109
110
112
116
121
122
124
125
126
128
130
131
133
135
137
138
139
141
142
143
147
149
150
151
157
158
160
161
165
166
167
170
171
173
174
179
185
186
187
191
193
194
197
199
200
205
206
211
215
220
221
224
225
226
227
228
229
232
235
237
240
241
242
247
248
250
252
253
256
257
258
260
262
263
268
269
270
271
272
274
275
277
282
284
286
288
289
291
294
299
300

SCALARS type int 1
LOOKUP_TABLE default
1
1
1
1
1
1
1
1
1
1
1
1
1
1
1
1
1
1
1
1
1
1
1
1
1
1
1
1
1
1
1
1
1
1
1
1
1
1
1
1
1
1
1
1
1
1
1
1
1
1
1
1
1
1
1
1
1
1
1
1
1
1
1
1
1
1
1
1
1
1
1
1
1
1
1
1
1
1
1
1
1
1
1
1
1
1
1
1
1
1
1
1
1
1
1
1
1
1
1
1
1
1
1
1
1
1
1
1
1
1
1
1
1
1
1
1
1
1
1
1
1
1
1
1
1
1
1
1
1
1
1
1
1
1
1
1
1
1
1
1
1
1
1
1
1
1
1

SCALARS radius float 1
LOOKUP_TABLE default
0.0005
0.0005
0.0005
0.0005
0.0005
0.0005
0.0005
0.0005
0.0005
0.0005
0.0005
0.0005
0.0005
0.0005
0.0005
0.0005
0.0005
0.0005
0.0005
0.0005
0.0005
0.0005
0.0005
0.0005
0.0005
0.0005
0.0005
0.0005
0.0005
0.0005
0.0005
0.0005
0.0005
0.0005
0.0005
0.0005
0.0005
0.0005
0.0005
0.0005
0.0005
0.0005
0.0005
0.0005
0.0005
0.0005
0.0005
0.0005
0.0005
0.0005
0.0005
0.0005
0.0005
0.0005
0.0005
0.0005
0.0005
0.0005
0.0005
0.0005
0.0005
0.0005
0.0005
0.0005
0.0005
0.0005
0.0005
0.0005
0.0005
0.0005
0.0005
0.0005
0.0005
0.0005
0.0005
0.0005
0.0005
0.0005
0.0005
0.0005
0.0005
0.0005
0.0005
0.0005
0.0005
0.0005
0.0005
0.0005
0.0005
0.0005
0.0005
0.0005
0.0005
0.0005
0.0005
0.0005
0.0005
0.0005
0.0005
0.0005
0.0005
0.0005
0.0005
0.0005
0.0005
0.0005
0.0005
0.0005
0.0005
0.0005
0.0005
0.0005
0.0005
0.0005
0.0005
0.0005
0.0005
0.0005
0.0005
0.0005
0.0005
0.0005
0.0005
0.0005
0.0005
0.0005
0.0005
0.0005
0.0005
0.0005
0.0005
0.0005
0.0005
0.0005
0.0005
0.0005
0.0005
0.0005
0.0005
0.0005
0.0005
0.0005
0.0005
0.0005
0.0005
0.0005
0.0005

SCALARS mass float 1
LOOKUP_TABLE default
1.46608e-07
1.46608e-07
1.46608e-07
1.46608e-07
1.46608e-07
1.46608e-07
1.46608e-07
1.46608e-07
1.46608e-07
1.46608e-07
1.46608e-07
1.46608e-07
1.46608e-07
1.46608e-07
1.46608e-07
1.46608e-07
1.46608e-07
1.46608e-07
1.46608e-07
1.46608e-07
1.46608e-07
1.46608e-07
1.46608e-07
1.46608e-07
1.46608e-07
1.46608e-07
1.46608e-07
1.46608e-07
1.46608e-07
1.46608e-07
1.46608e-07
1.46608e-07
1.46608e-07
1.46608e-07
1.46608e-07
1.46608e-07
1.46608e-07
1.46608e-07
1.46608e-07
1.46608e-07
1.46608e-07
1.46608e-07
1.46608e-07
1.46608e-07
1.46608e-07
1.46608e-07
1.46608e-07
1.46608e-07
1.46608e-07
1.46608e-07
1.46608e-07
1.46608e-07
1.46608e-07
1.46608e-07
1.46608e-07
1.46608e-07
1.46608e-07
1.46608e-07
1.46608e-07
1.46608e-07
1.46608e-07
1.46608e-07
1.46608e-07
1.46608e-07
1.46608e-07
1.46608e-07
1.46608e-07
1.46608e-07
1.46608e-07
1.46608e-07
1.46608e-07
1.46608e-07
1.46608e-07
1.46608e-07
1.46608e-07
1.46608e-07
1.46608e-07
1.46608e-07
1.46608e-07
1.46608e-07
1.46608e-07
1.46608e-07
1.46608e-07
1.46608e-07
1.46608e-07
1.46608e-07
1.46608e-07
1.46608e-07
1.46608e-07
1.46608e-07
1.46608e-07
1.46608e-07
1.46608e-07
1.46608e-07
1.46608e-07
1.46608e-07
1.46608e-07
1.46608e-07
1.46608e-07
1.46608e-07
1.46608e-07
1.46608e-07
1.46608e-07
1.46608e-07
1.46608e-07
1.46608e-07
1.46608e-07
1.46608e-07
1.46608e-07
1.46608e-07
1.46608e-07
1.46608e-07
1.46608e-07
1.46608e-07
1.46608e-07
1.46608e-07
1.46608e-07
1.46608e-07
1.46608e-07
1.46608e-07
1.46608e-07
1.46608e-07
1.46608e-07
1.46608e-07
1.46608e-07
1.46608e-07
1.46608e-07
1.46608e-07
1.46608e-07
1.46608e-07
1.46608e-07
1.46608e-07
1.46608e-07
1.46608e-07
1.46608e-07
1.46608e-07
1.46608e-07
1.46608e-07
1.46608e-07
1.46608e-07
1.46608e-07
1.46608e-07
1.46608e-07
1.46608e-07
1.46608e-07
1.46608e-07
1.46608e-07

VECTORS velocity float
0.00108683 0.0613256 -0.0710726
-6.43427e-08 0.0246737 0.00116414
0.00673612 -0.000984329 -0.00145275
0.000173367 0.018836 0.0111214
0.000656215 -0.00617056 -0.0123761
0.000236201 -5.43796e-05 2.72407e-05
3.64397e-15 5.59336e-16 -3.69008e-14
0.00200763 0.00503231 7.56846e-06
0.000537639 -0.000874468 -0.0216702
-9.6879e-317 9.73506e-317 2.68131e-13
0.000374077 0.00110958 -0.0234721
0.00229267 -0.00463059 -0.00564733
0.0108887 -0.00270878 0.0140367
-0.000320438 -0.022299 -0.00544515
0.161019 -0.117374 -0.459248
0.00932794 -0.00478641 0.00530775
-0.000468815 0.0154207 0.0144052
4.6203e-05 0.000233365 -5.36541e-06
0.000539309 0.0102181 0.0201818
0.000396573 0.0219747 0.00647484
0.00408135 -0.000557628 0.00223179
0.000116999 0.0201876 -0.00736436
5.1591e-05 0.0214988 0.00906074
0.000220622 0.000147901 -0.000644922
0.00392758 0.0012782 -0.006365
0.0245156 -0.0137272 -0.0486449
-0.00517324 0.0366307 0.0286333
-9.68849e-317 -9.75601e-317 2.88878e-12
0.00166893 -0.00079769 0.0016153
0.000844596 0.00833361 0.0164314
-3.58844e-14 1.61184e-14 -3.28528e-13
0.00156775 0.00116924 0.0172751
0.00869555 0.0543647 -0.189307
0.00157142 0.000878434 -0.00309965
0.00283027 -0.0150313 -0.00272071
0.00107272 0.0069387 0.0110071
0.000569427 -0.00397503 0.00783539
0.000710206 0.022437 0.00294528
-0.000453904 -0.00110543 -0.000557495
-0.0119184 0.00360458 -0.00293656
-0.000766535 0.0223207 -0.000124885
0.00164998 0.0120667 -0.00903841
0.00139867 -0.00499992 0.00892618
0.0023305 0.00317803 0.0130777
0.00353714 -0.0459104 -0.0041305
0.00324571 0.00353183 0.00628076
0.000688937 0.0184489 -0.00299731
-0.00136695 -0.0123414 0.0193336
0.00120592 -0.0190567 0.00822694
0.00152194 0.0125284 -0.0180933
0.00104136 0.0113776 -0.0148932
-2.1438e-07 0.026118 0.00652047
0.00109384 -0.0138609 -0.00966808
-0.0516138 0.0837631 -0.775497
0.000421363 -0.00308889 -0.00907731
-2.38792e-14 5.09194e-14 1.84325e-13
-0.0177049 -0.03801 -0.0138831
-0.0105425 0.0637412 -0.09216
0.000252435 -0.0162996 0.01431
0.0273695 -0.00386836 -0.0187507
-1.30418e-14 -1.76675e-14 -2.51653e-13
0.00192631 -0.00840189 -0.0135085
8.72542e-11 0.0196668 -0.00578149
0.00324684 -0.00732539 -0.00998105
0.0027407 0.00494806 0.0171906
-9.67556e-317 -9.75879e-317 -3.22607e-12
-0.00607244 -0.0136421 -0.0145054
0.00532038 -0.0153294 -0.0138126
-0.00076901 -0.00429951 -0.00814687
-0.00068558 -0.0243571 -0.00186168
0.00484265 0.0121746 -0.0256942
-6.0103e-05 0.00237553 -0.000463789
3.3905e-07 0.0202492 0.0032773
0.000345346 0.0202381 -0.00745317
0.00114962 -0.00230161 -0.0158091
0.000660592 -0.0154776 -0.0138997
0.0024488 -0.0047903 0.0138324
4.50648e-15 1.18448e-14 2.80767e-13
0.000164556 0.0160198 0.0169299
4.53269e-05 0.0225432 0.00376062
-0.000105755 -3.98226e-05 0.000230515
-0.000925454 0.000898349 0.00051232
0.000156512 0.00614696 0.0203544
9.74157e-317 -9.69799e-317 9.23294e-13
-0.00698415 -0.00816086 -0.00618121
0.000250258 -0.0203074 0.00558189
-0.00117389 0.000702814 -0.00111102
-0.00186347 0.00550046 -0.00848204
0.00329607 -0.000728923 -0.00891562
0.00594213 -0.000433916 -0.00453149
0.00592804 -0.00216389 0.00456452
-3.10322e-05 0.000216057 -0.000332506
-3.30629e-05 0.0106177 -0.0190283
0.000346552 -0.0184803 -0.00730118
0.00173734 -0.0141291 0.00808625
-0.0147299 -0.00395743 -0.00385163
0.00259976 0.00122793 0.0108386
0.000304547 -0.010044 0.016733
0.000963061 -0.0112624 -0.016873
-0.000633056 0.000119508 -0.000394245
0.00160522 0.000484429 0.0032835
0.000181569 -0.00686998 -0.0202469
0.091249 -0.117163 0.004305
-0.0540234 0.12826 0.0767186
-1.91093e-14 -3.08057e-15 3.11554e-13
0.00305758 -0.00236588 0.00181259
-9.62007e-05 0.000962509 -0.000677422
0.00317277 0.000368502 0.0090872
0.00302472 -0.00432343 -0.0111476
0.000329823 -0.0143364 0.0153838
-0.0166418 -0.0283903 -0.0206071
-0.0141173 -0.00816501 -0.0352509
0.000283097 0.0202258 0.0068762
9.58743e-317 9.68145e-317 4.97437e-14
0.00485234 -0.000841218 -0.00549023
0.000510143 0.0207377 0.0031758
1.00457e-05 -0.000132321 0.00098638
0.000774686 -0.0125212 0.00426286
0.0036488 -0.00143766 -0.00400284
0.00130237 -0.0104265 -0.00479282
0.000411764 0.00788242 0.0186725
0.00451275 -0.000136042 0.00303068
0.00256605 0.00284699 0.00119269
0.0041896 -0.00327429 -0.00471854
0.00494364 0.0118033 -0.0254766
0.0140045 0.00296713 0.00663822
0.000930928 0.00276977 -0.0188837
7.53171e-16 -1.26238e-15 -6.97776e-15
0.0116412 -0.000568154 -0.0025165
4.57687e-05 0.00094249 -0.00151967
0.000181719 -0.000155385 0.000303755
0.0015331 -0.00101535 -0.00218918
0.00505321 0.00729043 0.00622538
0.000404272 0.00800768 0.0203093
-0.00103387 0.00222078 0.001455
-0.00160104 -0.000758084 1.16865e-05
0.000794886 0.0132075 0.0185796
-0.0108892 0.00931162 -0.00829416
0.00442331 0.000593344 -0.00543747
-9.68799e-317 -9.69932e-317 9.23294e-13
-0.0131614 0.00780067 -0.0114811
0.00893133 0.014796 -0.0337861
0.0026322 -0.0124707 -0.0101785
-3.13019e-09 0.0202727 -0.0036172
0.00387827 -0.000180346 0.00155808
2.61686e-15 3.2692e-16 -4.25295e-14
0.00120619 -0.0179865 0.00120777

VECTORS force float
1.86873e-05 -2.27243e-05 3.85321e-05
1.34113e-09 3.041e-09 -1.66675e-08
-1.63078e-05 6.24456e-07 -3.001e-06
-5.69321e-09 -5.81077e-08 -4.9278e-09
7.32178e-08 -9.97615e-07 -1.32945e-06
-9.66088e-07 6.13483e-07 5.99411e-07
5.71747e-21 -3.55291e-20 0.0
-2.30356e-09 1.39259e-08 5.49979e-09
2.69959e-09 -1.06296e-08 -2.03369e-09
0.0 0.0 0.0
-5.09462e-06 -7.84719e-07 -2.10143e-05
7.37162e-11 -4.30477e-09 1.58592e-08
2.3306e-05 2.47714e-05 2.44658e-07
-2.62957e-09 -5.07714e-09 1.01972e-08
0.0 0.0 -1.43822e-06
-2.31354e-06 -3.27535e-06 -1.36288e-06
4.83353e-09 2.00168e-08 -1.81422e-08
-7.8299e-10 9.85755e-09 1.10212e-09
-1.14954e-07 -3.5937e-08 2.09747e-06
-1.9327e-08 3.38247e-08 -1.61559e-07
2.26229e-07 -3.22176e-06 -2.11436e-06
-6.54392e-10 1.21473e-09 -1.20154e-08
3.25412e-09 1.83888e-08 -1.41406e-07
2.353e-07 -7.95781e-08 -9.34729e-08
-1.66341e-06 -7.20781e-06 -1.82388e-05
0.0 0.0 -1.43822e-06
9.01448e-08 -1.72641e-07 -7.97802e-07
0.0 0.0 0.0
-1.79405e-08 -4.14014e-10 -1.26108e-09
1.10972e-06 -2.49212e-06 -4.86914e-06
2.06729e-20 4.15046e-20 -2.11758e-22
6.72814e-10 9.89587e-09 -5.7827e-09
0.0 0.0 -1.43822e-06
4.89824e-08 -2.342e-08 1.00073e-07
1.67708e-08 -2.73042e-08 5.10215e-09
1.4516e-06 -6.44037e-07 -1.16278e-06
9.59476e-10 3.17074e-08 -2.65248e-08
6.08162e-08 -6.48479e-08 -3.13008e-08
6.63185e-07 9.25659e-07 6.84175e-07
0.0 0.0 -1.43822e-06
-1.62759e-07 2.2189e-07 -4.03807e-08
-7.77962e-10 -5.11228e-09 -1.38001e-08
-9.06797e-09 4.46074e-09 -1.0646e-08
-5.05697e-09 7.33198e-09 1.64904e-08
0.0 0.0 -1.43822e-06
0.0 0.0 -1.43822e-06
-8.96099e-09 1.20618e-08 -1.12495e-08
-2.70901e-06 5.12619e-07 -1.95321e-06
-7.91744e-09 1.26952e-08 3.75969e-08
4.10859e-09 -7.22087e-09 -9.56275e-09
-2.77555e-08 -2.02657e-09 -3.03294e-08
2.77495e-08 -9.14923e-08 -4.0817e-08
-1.73801e-08 -5.78198e-08 -2.13463e-08
0.0 0.0 -1.43822e-06
2.36254e-07 6.24978e-07 6.61328e-07
1.41666e-19 1.28114e-20 1.58819e-20
0.0 0.0 -1.43822e-06
0.0 0.0 -1.43822e-06
-3.95599e-09 8.17163e-10 1.30893e-08
0.0 0.0 -1.43822e-06
-6.3051e-20 -1.7073e-21 3.38813e-21
-6.63577e-09 -9.81911e-09 -1.17369e-08
1.17905e-16 -3.87509e-09 -1.30773e-08
-8.42195e-09 1.67157e-08 -1.2105e-08
-3.75592e-05 -6.74665e-07 -8.19022e-06
0.0 0.0 0.0
2.9962e-08 -3.32357e-07 -2.76173e-07
4.03073e-08 -1.08897e-07 -1.21318e-07
8.03883e-08 -4.86801e-07 -6.798e-07
-6.02205e-09 -3.68112e-09 1.09531e-08
1.08258e-07 4.49133e-07 -6.91315e-07
-2.51373e-05 4.02858e-05 2.66226e-05
4.96996e-09 1.87496e-08 -1.11594e-08
-6.67307e-10 -2.38842e-09 -1.51283e-08
2.06501e-07 -1.27253e-07 -1.53559e-07
-3.26756e-09 -1.25167e-07 -9.2112e-08
2.44487e-08 3.41192e-08 -5.04262e-08
-1.08086e-19 4.63486e-20 -4.23516e-22
-1.04037e-06 2.43476e-06 2.71377e-06
-2.53449e-08 4.98936e-08 -2.66296e-08
-2.57355e-06 4.13321e-07 1.44251e-06
1.33669e-07 2.57297e-07 4.55716e-08
-1.22906e-09 1.17036e-08 2.39104e-09
0.0 0.0 0.0
3.6095e-07 -1.38296e-07 -1.17777e-06
4.67762e-09 4.74352e-09 9.39496e-09
-4.33943e-08 1.30292e-07 -3.25365e-07
-1.90146e-05 2.57074e-05 -8.55711e-05
-4.24802e-06 6.69506e-06 8.49844e-06
-1.48882e-05 -2.01492e-06 -5.63649e-06
4.30198e-06 7.95504e-07 -4.30025e-06
1.57708e-07 1.56888e-07 -2.53957e-07
1.3567e-09 -4.3902e-09 -1.15111e-08
-4.41074e-09 -9.45622e-08 4.2334e-09
1.5164e-08 -6.70889e-08 9.33663e-08
1.91931e-07 -2.63543e-07 -1.93895e-07
3.06466e-07 5.28387e-07 -3.14912e-06
-1.64385e-09 4.09149e-09 1.48177e-08
8.44909e-08 3.2961e-07 2.60672e-07
-4.02288e-07 4.71578e-08 -1.06931e-07
-5.95725e-06 2.98833e-05 -2.94396e-05
-1.47452e-09 -1.30294e-08 -6.48561e-09
0.0 0.0 -1.43822e-06
0.0 0.0 -1.43822e-06
0.0 -6.45201e-23 0.0
-5.12004e-07 -6.01736e-06 3.66254e-06
-3.68326e-07 -2.28567e-07 -3.76864e-08
0.0 0.0 -1.43822e-06
-2.36427e-05 -2.03149e-05 -2.71231e-05
-2.86732e-09 1.64715e-09 1.2835e-08
0.0 0.0 -1.43822e-06
0.0 0.0 -1.43822e-06
5.37728e-10 -5.7838e-09 -1.07705e-08
0.0 0.0 0.0
-6.99462e-06 5.11292e-07 -1.59763e-05
1.30812e-09 7.36383e-09 -1.01524e-08
7.54274e-07 -1.6741e-06 -2.131e-06
-3.28601e-07 4.81559e-06 -1.46523e-06
1.75212e-07 2.00669e-07 -4.50333e-07
-2.52767e-09 -4.9082e-09 -5.2192e-09
-1.3692e-07 3.27768e-07 1.33617e-06
-2.3333e-07 -8.33812e-08 -8.48807e-07
-3.97845e-07 -3.14707e-07 -3.26023e-07
-1.43486e-07 -2.523e-07 -5.62881e-07
-1.27616e-07 3.66391e-07 -5.80498e-07
1.0541e-07 -8.34075e-07 4.09673e-06
-8.77231e-09 -4.56635e-09 -2.0893e-08
0.0 0.0 0.0
0.0 0.0 -1.43822e-06
-1.68545e-08 -1.23377e-07 2.70899e-07
1.50436e-08 -1.23085e-08 2.01638e-08
-1.06003e-07 2.56684e-07 3.45317e-07
-1.92334e-07 -1.39538e-07 -9.25521e-08
-5.38908e-09 1.10634e-08 1.54432e-10
1.22798e-07 -6.06195e-08 -1.99364e-08
-5.13288e-06 -3.21771e-07 -7.3897e-07
-3.16649e-06 1.25703e-06 5.30446e-06
-2.0758e-08 -3.33609e-08 -1.01922e-07
1.37571e-07 -8.07879e-09 -2.22845e-07
0.0 0.0 0.0
-1.79712e-05 2.3705e-05 -4.11496e-05
0.0 0.0 -1.43822e-06
-4.00252e-08 7.80174e-09 2.94155e-08
-3.49869e-16 -2.75603e-09 -1.5446e-08
6.83283e-07 -3.89357e-06 -3.38982e-06
6.16481e-20 -4.19877e-19 -4.23516e-22
1.47327e-08 4.18198e-10 2.53796e-08
