# vtk DataFile Version 3.0
LIGGGHTS particles timestep 1800000
ASCII
DATASET POLYDATA
POINTS 290 float
0.0217086 0.0235492 0.0148236
0.0146312 0.0198635 0.0159792
0.0258947 0.018305 0.0167596
0.0187849 0.0238537 0.0148386
0.0238549 0.0165535 0.0161222
0.0190899 0.0218619 0.0150212
0.0192963 0.0210502 0.0155406
0.0202446 0.0235949 0.0120265
0.020748 0.0153802 0.0140118
0.0176041 0.0224559 0.00912631
0.0204457 0.0154625 0.0149935
0.0169531 0.0239616 0.0134134
0.0199961 0.0230538 0.0151692
0.0200032 0.0151639 0.00757798
0.0204834 0.020494 0.0169922
0.0208772 0.0243235 0.0139418
0.0210738 0.0146688 0.0122721
0.0184275 0.0240639 0.0128726
0.0252455 0.0205731 0.0157213
0.0215128 0.0150418 0.00991524
0.0188823 0.0165885 0.0161718
0.017827 0.0243368 0.0137226
0.0250354 0.0213609 0.0155586
0.0217513 0.0151116 0.0135627
0.0190019 0.0235484 0.0118219
0.0199721 0.0179757 0.0158264
0.0195528 0.0169587 0.0168147
0.0245056 0.0209834 0.0164194
0.0197658 0.0239441 0.0146791
0.0188283 0.0244328 0.0137111
0.0230344 0.0204942 0.00761286
0.0223049 0.0202742 0.0175651
0.0195047 0.0201522 0.015879
0.0208742 0.0147466 0.0132487
0.0198252 0.0244834 0.0136206
0.0225458 0.0236158 0.0139099
0.0189053 0.0149144 0.0147708
0.0223404 0.022842 0.0151458
0.0209872 0.0229384 0.0150903
0.0209326 0.0225946 0.0169209
0.0236431 0.0228996 0.00948728
0.0160196 0.0236137 0.0141059
0.0200461 0.0220596 0.0166212
0.0226363 0.0238686 0.0147676
0.0241542 0.0225502 0.0090643
0.0214346 0.0223711 0.0157808
0.0225612 0.0154204 0.0140622
0.0207955 0.0236677 0.015802
0.0216762 0.0238977 0.0138314
0.0181067 0.0233276 0.0108375
0.0218962 0.0158116 0.00865722
0.0236753 0.0230952 0.0155293
0.0195756 0.023166 0.0163282
0.0222091 0.0179577 0.0167535
0.0180146 0.0235324 0.0142859
0.02019 0.0170588 0.0154804
0.0234525 0.0222872 0.00878633
0.0197055 0.0191848 0.0159771
0.0199034 0.0243074 0.0166003
0.0202404 0.0236245 0.0138857
0.0243378 0.02249 0.0159703
0.022134 0.0157343 0.0159768
0.0218908 0.0147232 0.0150327
0.0238475 0.0152893 0.0151809
0.0216423 0.0191491 0.0159418
0.0232092 0.0174369 0.0164749
0.0254788 0.0174205 0.0165477
0.0251379 0.0217515 0.0165197
0.0193172 0.0233051 0.0125484
0.0247676 0.0177104 0.017384
0.0232327 0.0231605 0.0184915
0.0194589 0.0241091 0.012841
0.0209369 0.0182408 0.015871
0.0181806 0.0233369 0.0114134
0.0207445 0.0227642 0.0140863
0.0211209 0.01523 0.015865
0.0152432 0.0207538 0.0156143
0.0166404 0.0148352 0.0146038
0.0162992 0.0235425 0.0150632
0.0217202 0.0233145 0.0159482
0.0187573 0.0140078 0.012957
0.0196887 0.0230635 0.0133784
0.0211441 0.0209087 0.0163557
0.0188879 0.0225587 0.0143548
0.0222845 0.0161438 0.0148592
0.0238916 0.023195 0.0102321
0.0153138 0.0151664 0.0136674
0.0189956 0.0234521 0.0139624
0.0169235 0.0147876 0.0163536
0.0191352 0.023756 0.0170204
0.0207515 0.0238525 0.0148098
0.0200472 0.0215605 0.0151709
0.0168496 0.0240787 0.0144064
0.0147757 0.0223909 0.0175844
0.0233645 0.0193637 0.0167439
0.0214321 0.0201223 0.0158094
0.0209433 0.0194016 0.0169411
0.0232318 0.0232044 0.0146399
0.014221 0.0224307 0.0143832
0.0197557 0.0139792 0.0130051
0.019875 0.0223904 0.0144306
0.0189932 0.0231411 0.0155156
0.0239116 0.0214978 0.0170626
0.0247567 0.021961 0.0151502
0.0221372 0.0168728 0.00777281
0.0185719 0.0231628 0.0131177
0.0177955 0.0140821 0.01322
0.0158114 0.022186 0.0157041
0.0181785 0.0237855 0.0119816
0.0173066 0.0242744 0.0175018
0.0152213 0.0232846 0.0146093
0.0181574 0.0141681 0.0146178
0.015159 0.0161375 0.014854
0.0173734 0.014432 0.0140561
0.0233379 0.0215611 0.00824063
0.0208889 0.014558 0.0149113
0.0257479 0.0188499 0.0159333
0.0185331 0.0222787 0.0157439
0.0229559 0.0148645 0.0148412
0.0255315 0.0197831 0.0158583
0.0176437 0.0222253 0.016641
0.0240953 0.0185464 0.0167364
0.0238299 0.0216356 0.0160755
0.0197648 0.0142407 0.0163815
0.0176297 0.0174452 0.0164967
0.0168607 0.0189361 0.0167538
0.0148099 0.0178868 0.0157936
0.0248613 0.016704 0.0162234
0.0243529 0.0195125 0.0167565
0.0257677 0.0208876 0.0154291
0.0231417 0.0222624 0.0156669
0.0171255 0.0199112 0.0166728
0.01812 0.0142633 0.0156249
0.0134651 0.0203784 0.0162018
0.0257077 0.0204392 0.0165978
0.0261245 0.0202767 0.015656
0.0186484 0.0179994 0.0166501
0.0181069 0.019636 0.0167283
0.01663 0.0226328 0.0153435
0.0166674 0.0147513 0.0126213
0.0190698 0.014575 0.0157226
0.0151741 0.0197692 0.0168136
0.0226818 0.0200888 0.0166578
0.0221147 0.016994 0.0154438
0.0204466 0.0227595 0.0160306
0.0146947 0.0215173 0.0152737
0.0171853 0.0231975 0.0147331
0.0234768 0.0207805 0.0164546
0.0155251 0.0231316 0.01555
0.019981 0.0196468 0.0168202
0.014903 0.0224818 0.0151123
0.0169488 0.0235093 0.0158226
0.0165001 0.0203318 0.017356
0.0175388 0.0223343 0.0156348
0.0151951 0.0147567 0.0145717
0.0210388 0.0211871 0.0154009
0.0181798 0.021481 0.0162438
0.0166958 0.0222877 0.0163303
0.0178481 0.0186697 0.0167354
0.0217503 0.0209991 0.0171559
0.0258782 0.0193731 0.0167803
0.0218934 0.0179103 0.0158064
0.0136596 0.0194369 0.0159267
0.0143037 0.0165982 0.0152155
0.018115 0.0229372 0.0150832
0.0160458 0.0155478 0.0142319
0.0137675 0.0217878 0.0149998
0.0142269 0.0207124 0.0156397
0.0154368 0.0225287 0.0167447
0.0189003 0.0224246 0.0167706
0.0178756 0.016144 0.0158788
0.0187908 0.013808 0.013933
0.0195539 0.0144895 0.0141391
0.0212431 0.0160521 0.0147781
0.0179229 0.0237002 0.0157015
0.0215944 0.0186588 0.0171694
0.0138648 0.0184585 0.0159032
0.0169 0.0163842 0.0160136
0.0204413 0.0172175 0.0164349
0.0190653 0.0189232 0.0167895
0.0227769 0.0157974 0.017211
0.0202465 0.0151041 0.0172804
0.0177927 0.0151585 0.0160267
0.0223499 0.0191488 0.0167351
0.0162871 0.0155068 0.0160731
0.0171828 0.0214254 0.0161953
0.0170405 0.0154429 0.0152984
0.0200315 0.0211028 0.0163324
0.0214833 0.0218138 0.0166108
0.0188802 0.0205097 0.01659
0.0230607 0.0219479 0.0166329
0.0231386 0.0156847 0.0158635
0.0222799 0.0218896 0.01601
0.0204721 0.0203485 0.0158476
0.0206838 0.0214663 0.0171122
0.0161898 0.0146056 0.0134949
0.0164716 0.0207743 0.0164598
0.0237762 0.0161172 0.0176509
0.0225214 0.0210664 0.0165229
0.0145984 0.0155633 0.0142544
0.0206786 0.0193803 0.0159752
0.0189 0.0239673 0.0160718
0.0208486 0.0220085 0.0148266
0.0216881 0.0200473 0.0167735
0.0245411 0.0158935 0.0157008
0.0202929 0.0137288 0.0138104
0.0161699 0.0231315 0.0164299
0.0181967 0.023015 0.0163761
0.0231069 0.0183973 0.0167541
0.0225483 0.0228328 0.0162346
0.0179808 0.0151793 0.0150449
-0.0100358 0.0163386 0.0214554
0.0210938 0.0178608 0.0168348
0.0132981 0.0210432 0.0154737
0.0140274 0.0225477 0.0155956
0.0242147 0.0175723 0.0165452
0.018889 0.0204055 0.0213272
0.0208851 0.0177267 0.0241007
0.0180859 0.0184071 0.0197067
0.0238538 0.0202489 0.0172125
0.0215828 0.0175298 0.0204876
0.0150591 0.0216365 0.0169923
0.0156904 0.0213672 0.0162651
0.017829 0.0170462 0.0191005
0.0178526 0.020585 0.0165428
0.0191783 0.0221719 0.0219709
0.0189305 0.0156013 0.0155023
0.019851 0.0228185 0.0172445
0.0193669 0.0231578 0.0207461
0.0171385 0.0198365 0.023434
0.0220084 0.019851 0.0193627
0.0200309 0.0219762 0.0229268
0.0229353 0.0189706 0.0175576
0.0206875 0.0232089 0.0176803
0.0206947 0.0232319 0.0199239
0.0171541 0.0151369 0.0189662
0.0193139 0.0185347 0.0191922
0.0229379 0.0181772 0.0224587
0.0157168 0.0192946 0.0216796
0.0195778 0.0223365 0.0157537
0.0157582 0.0206978 0.0196347
0.0196655 0.0162549 0.0193447
0.0184883 0.0202613 0.0202301
0.0173648 0.0186375 0.0215452
0.0176879 0.0240701 0.0166003
0.0208702 0.0219483 0.020096
0.0211758 0.0203937 0.0177065
0.0221917 0.021245 0.0180469
0.0174041 0.0230338 0.0210467
0.01967 0.0186017 0.0211135
0.0204213 0.0174528 0.0175427
0.0147739 0.0188739 0.0159522
0.0148382 0.0221346 0.0160475
0.0211626 0.0172667 0.0155809
0.0211045 0.0240362 0.017224
0.0198766 0.0158533 0.0157309
0.0155636 0.0195076 0.0159196
0.019897 0.0145267 0.0150777
0.0206835 0.017002 0.0200367
0.0198283 0.0238953 0.0156867
0.0156573 0.0168508 0.0153585
0.0227386 0.0183087 0.0183643
0.0174656 0.0178989 0.0248521
0.0213047 0.0222373 0.0186499
0.0141251 0.0190086 0.0167012
0.0163063 0.0178949 0.0166251
0.0149694 0.0183324 0.0195339
0.0204384 0.023473 0.0167309
0.019131 0.0214772 0.0165502
0.0214877 0.0185159 0.0197961
0.0179683 0.0153576 0.0169908
0.0185544 0.0184247 0.0222826
0.0160151 0.0156868 0.0198052
0.0148922 0.0193486 0.0202504
0.0168768 0.0172398 0.0171219
0.0186408 0.0161101 0.0171793
0.0184411 0.0214011 0.0199562
0.0188709 0.0149406 0.0224497
0.0210161 0.0162086 0.0208568
0.0156139 0.0164404 0.0243838
0.0161234 0.0161916 0.0167834
0.0161613 0.0196494 0.0167084
0.0160729 0.015885 0.0151728
0.0248579 0.020296 0.0171123
0.0202567 0.0158466 0.0247993
0.0210671 0.015936 0.0170038
0.0198009 0.0230552 0.0247218
0.0160612 0.0197825 0.0183872
0.0216135 0.0170268 0.0164762
0.0151788 0.0208905 0.0184475

VERTICES 290 580
1 0
1 1
1 2
1 3
1 4
1 5
1 6
1 7
1 8
1 9
1 10
1 11
1 12
1 13
1 14
1 15
1 16
1 17
1 18
1 19
1 20
1 21
1 22
1 23
1 24
1 25
1 26
1 27
1 28
1 29
1 30
1 31
1 32
1 33
1 34
1 35
1 36
1 37
1 38
1 39
1 40
1 41
1 42
1 43
1 44
1 45
1 46
1 47
1 48
1 49
1 50
1 51
1 52
1 53
1 54
1 55
1 56
1 57
1 58
1 59
1 60
1 61
1 62
1 63
1 64
1 65
1 66
1 67
1 68
1 69
1 70
1 71
1 72
1 73
1 74
1 75
1 76
1 77
1 78
1 79
1 80
1 81
1 82
1 83
1 84
1 85
1 86
1 87
1 88
1 89
1 90
1 91
1 92
1 93
1 94
1 95
1 96
1 97
1 98
1 99
1 100
1 101
1 102
1 103
1 104
1 105
1 106
1 107
1 108
1 109
1 110
1 111
1 112
1 113
1 114
1 115
1 116
1 117
1 118
1 119
1 120
1 121
1 122
1 123
1 124
1 125
1 126
1 127
1 128
1 129
1 130
1 131
1 132
1 133
1 134
1 135
1 136
1 137
1 138
1 139
1 140
1 141
1 142
1 143
1 144
1 145
1 146
1 147
1 148
1 149
1 150
1 151
1 152
1 153
1 154
1 155
1 156
1 157
1 158
1 159
1 160
1 161
1 162
1 163
1 164
1 165
1 166
1 167
1 168
1 169
1 170
1 171
1 172
1 173
1 174
1 175
1 176
1 177
1 178
1 179
1 180
1 181
1 182
1 183
1 184
1 185
1 186
1 187
1 188
1 189
1 190
1 191
1 192
1 193
1 194
1 195
1 196
1 197
1 198
1 199
1 200
1 201
1 202
1 203
1 204
1 205
1 206
1 207
1 208
1 209
1 210
1 211
1 212
1 213
1 214
1 215
1 216
1 217
1 218
1 219
1 220
1 221
1 222
1 223
1 224
1 225
1 226
1 227
1 228
1 229
1 230
1 231
1 232
1 233
1 234
1 235
1 236
1 237
1 238
1 239
1 240
1 241
1 242
1 243
1 244
1 245
1 246
1 247
1 248
1 249
1 250
1 251
1 252
1 253
1 254
1 255
1 256
1 257
1 258
1 259
1 260
1 261
1 262
1 263
1 264
1 265
1 266
1 267
1 268
1 269
1 270
1 271
1 272
1 273
1 274
1 275
1 276
1 277
1 278
1 279
1 280
1 281
1 282
1 283
1 284
1 285
1 286
1 287
1 288
1 289

POINT_DATA 290
SCALARS id int 1
LOOKUP_TABLE default
1
2
3
4
5
6
7
9
10
11
12
13
14
15
16
17
18
19
20
21
22
23
24
25
26
27
28
29
30
31
32
33
34
35
36
37
38
39
40
41
42
43
44
45
46
47
48
49
50
51
52
53
54
56
57
58
59
60
61
62
63
64
65
66
67
68
69
70
71
72
73
74
75
76
78
79
80
81
82
83
84
85
86
87
88
89
90
91
92
93
95
96
97
98
99
100
101
102
103
104
105
106
107
108
109
110
111
112
113
114
115
116
117
118
120
121
122
123
124
125
126
127
128
129
130
131
132
133
134
135
136
137
138
139
141
142
143
144
145
146
147
148
149
150
151
152
153
154
155
156
157
158
159
160
161
162
163
164
165
166
167
168
169
170
171
173
174
175
176
177
178
179
180
181
182
183
184
185
186
187
188
189
190
191
192
193
194
196
197
199
200
201
202
203
204
205
206
208
209
210
211
212
213
214
215
216
217
218
219
220
221
222
223
224
225
226
227
228
229
230
231
232
233
234
235
236
237
238
239
240
241
242
243
244
245
246
247
248
249
250
251
252
253
254
255
256
257
258
259
260
261
262
263
264
265
266
267
268
269
270
271
272
273
274
275
276
277
278
279
280
281
282
283
284
285
286
287
288
289
290
291
292
293
294
295
296
297
298
299
300

SCALARS type int 1
LOOKUP_TABLE default
1
1
1
1
1
1
1
1
1
1
1
1
1
1
1
1
1
1
1
1
1
1
1
1
1
1
1
1
1
1
1
1
1
1
1
1
1
1
1
1
1
1
1
1
1
1
1
1
1
1
1
1
1
1
1
1
1
1
1
1
1
1
1
1
1
1
1
1
1
1
1
1
1
1
1
1
1
1
1
1
1
1
1
1
1
1
1
1
1
1
1
1
1
1
1
1
1
1
1
1
1
1
1
1
1
1
1
1
1
1
1
1
1
1
1
1
1
1
1
1
1
1
1
1
1
1
1
1
1
1
1
1
1
1
1
1
1
1
1
1
1
1
1
1
1
1
1
1
1
1
1
1
1
1
1
1
1
1
1
1
1
1
1
1
1
1
1
1
1
1
1
1
1
1
1
1
1
1
1
1
1
1
1
1
1
1
1
1
1
1
1
1
1
1
1
1
1
1
1
1
1
1
1
1
1
1
1
1
1
1
1
1
1
1
1
1
1
1
1
1
1
1
1
1
1
1
1
1
1
1
1
1
1
1
1
1
1
1
1
1
1
1
1
1
1
1
1
1
1
1
1
1
1
1
1
1
1
1
1
1
1
1
1
1
1
1
1
1
1
1
1
1
1
1
1
1
1
1
1
1
1
1
1
1
1
1
1
1
1
1

SCALARS radius float 1
LOOKUP_TABLE default
0.0005
0.0005
0.0005
0.0005
0.0005
0.0005
0.0005
0.0005
0.0005
0.0005
0.0005
0.0005
0.0005
0.0005
0.0005
0.0005
0.0005
0.0005
0.0005
0.0005
0.0005
0.0005
0.0005
0.0005
0.0005
0.0005
0.0005
0.0005
0.0005
0.0005
0.0005
0.0005
0.0005
0.0005
0.0005
0.0005
0.0005
0.0005
0.0005
0.0005
0.0005
0.0005
0.0005
0.0005
0.0005
0.0005
0.0005
0.0005
0.0005
0.0005
0.0005
0.0005
0.0005
0.0005
0.0005
0.0005
0.0005
0.0005
0.0005
0.0005
0.0005
0.0005
0.0005
0.0005
0.0005
0.0005
0.0005
0.0005
0.0005
0.0005
0.0005
0.0005
0.0005
0.0005
0.0005
0.0005
0.0005
0.0005
0.0005
0.0005
0.0005
0.0005
0.0005
0.0005
0.0005
0.0005
0.0005
0.0005
0.0005
0.0005
0.0005
0.0005
0.0005
0.0005
0.0005
0.0005
0.0005
0.0005
0.0005
0.0005
0.0005
0.0005
0.0005
0.0005
0.0005
0.0005
0.0005
0.0005
0.0005
0.0005
0.0005
0.0005
0.0005
0.0005
0.0005
0.0005
0.0005
0.0005
0.0005
0.0005
0.0005
0.0005
0.0005
0.0005
0.0005
0.0005
0.0005
0.0005
0.0005
0.0005
0.0005
0.0005
0.0005
0.0005
0.0005
0.0005
0.0005
0.0005
0.0005
0.0005
0.0005
0.0005
0.0005
0.0005
0.0005
0.0005
0.0005
0.0005
0.0005
0.0005
0.0005
0.0005
0.0005
0.0005
0.0005
0.0005
0.0005
0.0005
0.0005
0.0005
0.0005
0.0005
0.0005
0.0005
0.0005
0.0005
0.0005
0.0005
0.0005
0.0005
0.0005
0.0005
0.0005
0.0005
0.0005
0.0005
0.0005
0.0005
0.0005
0.0005
0.0005
0.0005
0.0005
0.0005
0.0005
0.0005
0.0005
0.0005
0.0005
0.0005
0.0005
0.0005
0.0005
0.0005
0.0005
0.0005
0.0005
0.0005
0.0005
0.0005
0.0005
0.0005
0.0005
0.0005
0.0005
0.0005
0.0005
0.0005
0.0005
0.0005
0.0005
0.0005
0.0005
0.0005
0.0005
0.0005
0.0005
0.0005
0.0005
0.0005
0.0005
0.0005
0.0005
0.0005
0.0005
0.0005
0.0005
0.0005
0.0005
0.0005
0.0005
0.0005
0.0005
0.0005
0.0005
0.0005
0.0005
0.0005
0.0005
0.0005
0.0005
0.0005
0.0005
0.0005
0.0005
0.0005
0.0005
0.0005
0.0005
0.0005
0.0005
0.0005
0.0005
0.0005
0.0005
0.0005
0.0005
0.0005
0.0005
0.0005
0.0005
0.0005
0.0005
0.0005
0.0005
0.0005
0.0005
0.0005
0.0005
0.0005
0.0005
0.0005
0.0005
0.0005
0.0005
0.0005
0.0005
0.0005
0.0005
0.0005
0.0005
0.0005
0.0005
0.0005
0.0005
0.0005
0.0005
0.0005
0.0005
0.0005

SCALARS mass float 1
LOOKUP_TABLE default
1.46608e-07
1.46608e-07
1.46608e-07
1.46608e-07
1.46608e-07
1.46608e-07
1.46608e-07
1.46608e-07
1.46608e-07
1.46608e-07
1.46608e-07
1.46608e-07
1.46608e-07
1.46608e-07
1.46608e-07
1.46608e-07
1.46608e-07
1.46608e-07
1.46608e-07
1.46608e-07
1.46608e-07
1.46608e-07
1.46608e-07
1.46608e-07
1.46608e-07
1.46608e-07
1.46608e-07
1.46608e-07
1.46608e-07
1.46608e-07
1.46608e-07
1.46608e-07
1.46608e-07
1.46608e-07
1.46608e-07
1.46608e-07
1.46608e-07
1.46608e-07
1.46608e-07
1.46608e-07
1.46608e-07
1.46608e-07
1.46608e-07
1.46608e-07
1.46608e-07
1.46608e-07
1.46608e-07
1.46608e-07
1.46608e-07
1.46608e-07
1.46608e-07
1.46608e-07
1.46608e-07
1.46608e-07
1.46608e-07
1.46608e-07
1.46608e-07
1.46608e-07
1.46608e-07
1.46608e-07
1.46608e-07
1.46608e-07
1.46608e-07
1.46608e-07
1.46608e-07
1.46608e-07
1.46608e-07
1.46608e-07
1.46608e-07
1.46608e-07
1.46608e-07
1.46608e-07
1.46608e-07
1.46608e-07
1.46608e-07
1.46608e-07
1.46608e-07
1.46608e-07
1.46608e-07
1.46608e-07
1.46608e-07
1.46608e-07
1.46608e-07
1.46608e-07
1.46608e-07
1.46608e-07
1.46608e-07
1.46608e-07
1.46608e-07
1.46608e-07
1.46608e-07
1.46608e-07
1.46608e-07
1.46608e-07
1.46608e-07
1.46608e-07
1.46608e-07
1.46608e-07
1.46608e-07
1.46608e-07
1.46608e-07
1.46608e-07
1.46608e-07
1.46608e-07
1.46608e-07
1.46608e-07
1.46608e-07
1.46608e-07
1.46608e-07
1.46608e-07
1.46608e-07
1.46608e-07
1.46608e-07
1.46608e-07
1.46608e-07
1.46608e-07
1.46608e-07
1.46608e-07
1.46608e-07
1.46608e-07
1.46608e-07
1.46608e-07
1.46608e-07
1.46608e-07
1.46608e-07
1.46608e-07
1.46608e-07
1.46608e-07
1.46608e-07
1.46608e-07
1.46608e-07
1.46608e-07
1.46608e-07
1.46608e-07
1.46608e-07
1.46608e-07
1.46608e-07
1.46608e-07
1.46608e-07
1.46608e-07
1.46608e-07
1.46608e-07
1.46608e-07
1.46608e-07
1.46608e-07
1.46608e-07
1.46608e-07
1.46608e-07
1.46608e-07
1.46608e-07
1.46608e-07
1.46608e-07
1.46608e-07
1.46608e-07
1.46608e-07
1.46608e-07
1.46608e-07
1.46608e-07
1.46608e-07
1.46608e-07
1.46608e-07
1.46608e-07
1.46608e-07
1.46608e-07
1.46608e-07
1.46608e-07
1.46608e-07
1.46608e-07
1.46608e-07
1.46608e-07
1.46608e-07
1.46608e-07
1.46608e-07
1.46608e-07
1.46608e-07
1.46608e-07
1.46608e-07
1.46608e-07
1.46608e-07
1.46608e-07
1.46608e-07
1.46608e-07
1.46608e-07
1.46608e-07
1.46608e-07
1.46608e-07
1.46608e-07
1.46608e-07
1.46608e-07
1.46608e-07
1.46608e-07
1.46608e-07
1.46608e-07
1.46608e-07
1.46608e-07
1.46608e-07
1.46608e-07
1.46608e-07
1.46608e-07
1.46608e-07
1.46608e-07
1.46608e-07
1.46608e-07
1.46608e-07
1.46608e-07
1.46608e-07
1.46608e-07
1.46608e-07
1.46608e-07
1.46608e-07
1.46608e-07
1.46608e-07
1.46608e-07
1.46608e-07
1.46608e-07
1.46608e-07
1.46608e-07
1.46608e-07
1.46608e-07
1.46608e-07
1.46608e-07
1.46608e-07
1.46608e-07
1.46608e-07
1.46608e-07
1.46608e-07
1.46608e-07
1.46608e-07
1.46608e-07
1.46608e-07
1.46608e-07
1.46608e-07
1.46608e-07
1.46608e-07
1.46608e-07
1.46608e-07
1.46608e-07
1.46608e-07
1.46608e-07
1.46608e-07
1.46608e-07
1.46608e-07
1.46608e-07
1.46608e-07
1.46608e-07
1.46608e-07
1.46608e-07
1.46608e-07
1.46608e-07
1.46608e-07
1.46608e-07
1.46608e-07
1.46608e-07
1.46608e-07
1.46608e-07
1.46608e-07
1.46608e-07
1.46608e-07
1.46608e-07
1.46608e-07
1.46608e-07
1.46608e-07
1.46608e-07
1.46608e-07
1.46608e-07
1.46608e-07
1.46608e-07
1.46608e-07
1.46608e-07
1.46608e-07
1.46608e-07
1.46608e-07
1.46608e-07
1.46608e-07
1.46608e-07
1.46608e-07
1.46608e-07
1.46608e-07
1.46608e-07
1.46608e-07
1.46608e-07
1.46608e-07
1.46608e-07
1.46608e-07
1.46608e-07
1.46608e-07
1.46608e-07
1.46608e-07
1.46608e-07
1.46608e-07

VECTORS velocity float
0.00192407 -0.00260391 -0.00675271
0.00318745 0.00139663 -0.000964599
-0.00016555 0.00556139 0.00353139
0.000234821 0.000765315 -0.00219799
0.0337107 0.052921 -0.000256254
0.00335422 0.00623124 -0.00215609
0.0027102 0.00917815 0.000283011
-0.0126397 -0.045643 -0.0822795
-0.00249604 0.0127276 0.0236321
3.5542e-05 -0.0119872 -0.0180904
0.0115721 0.0102195 -0.00809642
0.00153111 -0.000405314 -0.00314951
0.0048964 -0.00220981 0.00342429
-0.373666 -0.0833938 0.00468184
0.00120319 0.00973157 -0.00249751
0.00102261 -0.000327012 0.000788388
0.00320254 -5.20761e-06 0.023984
0.00195304 0.00015764 -0.000775123
0.00469433 0.000510828 -0.000452939
0.000769604 -0.00666163 0.0180495
-0.00533162 0.00348357 0.00264625
0.000624598 0.000254269 0.000146085
0.00167798 -0.00186763 -0.000733452
0.00642301 0.00187085 0.00183596
0.000695049 5.74671e-05 -0.000291592
0.000583213 0.0200085 0.00477459
-0.00235706 -0.00343515 0.00332481
-0.0028979 0.00372418 -0.000400873
5.06257e-05 4.9327e-05 -0.00101361
0.00188164 -7.23886e-05 -0.000625586
-0.000346212 -0.019673 -0.0109825
-0.00892844 0.000920808 0.000733821
0.0021689 0.0107248 0.00315253
0.00178196 -0.000660436 0.0251304
-0.000117499 7.77197e-05 -0.000381566
0.00104304 0.000347129 0.000267992
0.00317952 0.00461201 0.00790685
0.0150013 0.00885952 -0.00625143
0.00172613 0.00131389 -0.0013096
0.0139763 0.0139006 -0.00336547
0.00186289 -0.00371202 -0.00957066
0.0002959 5.85943e-05 0.00055942
-0.00223733 0.00823868 0.0121729
0.000530592 8.42722e-05 -7.88863e-05
0.00196186 -0.00751983 -0.0091651
-0.00318263 0.000479117 -9.89481e-05
0.00702899 0.00116145 0.0025492
0.000250642 0.000747301 0.00128176
-0.00569022 -0.0169596 0.0182017
0.00052962 -0.00267251 -0.0107222
0.00069185 -0.00816864 0.0111845
-0.00125675 0.00111381 -0.000598512
0.00588622 0.00580953 -0.00331833
-0.00260641 0.000396575 0.00694609
0.00342194 -7.50998e-05 -0.00154638
-2.98183e-05 0.020566 0.0101472
0.00143321 -0.0108327 -0.011325
0.00175452 0.011243 0.00404478
1.77817e-05 -0.00158921 -0.00715441
0.000607517 0.0010217 -0.00200702
-0.00105098 0.00183787 -0.000524268
0.0654762 0.0487875 0.0621167
0.00447443 0.0256976 0.0671114
0.000100687 0.0017992 -0.000901235
0.000924725 0.0191847 -2.31114e-05
-0.00364865 -0.00418918 -0.00061263
0.000364924 0.0051328 0.000543447
-0.00191088 0.00336678 -0.000149422
0.00370848 0.00175773 -0.00440645
-0.00531547 0.00161523 -0.0181861
0.000247058 -0.0205682 -0.0215105
0.000868035 0.000271244 -0.00128441
0.0015001 0.015421 0.0031624
0.000958426 0.00280221 -0.0150931
-0.000451996 0.0166655 -0.0185419
0.00713386 0.0717029 0.0433797
-0.000495704 0.00274779 0.00054026
-0.00186322 -0.00136183 -0.000939253
0.000645205 0.000305545 -0.000488734
-0.00153922 0.000337107 -0.000255052
-0.000550188 -0.000758773 0.00121132
0.00262992 0.000194213 -0.00258651
-0.00256394 0.0158356 -0.000496689
0.00355775 0.00380431 -0.00324629
-0.00329679 0.0063672 0.0012888
0.00123454 -0.00511823 -0.0166587
-2.91796e-05 0.000553606 -0.000601763
0.00252643 0.00266253 -0.00387435
-0.000756731 0.000336741 0.000413887
-0.00695743 -0.00403361 -0.00908033
-0.00073985 0.000503026 0.000182669
0.00231807 0.00546505 -0.00259246
-2.28235e-05 0.000630153 -0.000386026
0.000358692 0.000107111 -2.61676e-05
-0.00786047 -0.000651131 0.00228493
0.00101882 0.0203 -0.00500762
-0.00199622 0.00519058 -0.0045654
0.000119973 0.000110146 -4.84838e-05
0.0110017 0.00378659 -0.00434053
-0.000568489 -0.000963871 0.00177932
0.000260892 0.00967366 -0.0100485
0.00635223 -0.000626119 -0.00345694
-0.0024761 -0.000199497 -0.00204594
-0.00131081 -0.00745969 0.0054651
0.000618699 -0.0171102 0.0102215
0.00402622 0.00155696 -0.0033572
-0.000711619 0.000227755 -0.000279609
0.00199584 0.000916096 0.00101992
0.000532529 -0.00295719 0.000755182
-0.00716673 -0.00211617 -0.001197
0.00189066 -0.000721211 0.00230603
0.000213516 0.00169721 -0.00116471
0.00506186 0.00710282 0.00612412
-0.00123021 4.58716e-05 -0.000531058
0.000561211 -0.00994409 -0.00869354
-0.0254057 0.0246059 0.068049
0.00153221 0.00791138 -0.000356405
0.00514932 -0.00248719 -0.00758234
-0.00732516 0.0044587 -0.0122722
0.00556491 0.00336092 0.00139517
-0.000469959 0.00222522 0.00343756
-0.00954405 0.00330611 -0.000959208
-0.0037964 0.00333862 -0.000387254
0.00217536 0.00691162 -0.00227205
-0.000254262 0.0234434 0.00745621
0.00547111 0.00445988 -0.000931374
0.00244656 0.000718474 -0.000794382
-0.00248346 0.0068807 0.00339225
-0.00852507 0.00323019 0.00171543
0.00204043 0.00112245 -0.00188407
-0.00639294 0.00413864 -0.00146208
0.00324564 0.000895631 -0.000373891
-0.00907671 0.0108728 -0.00486138
0.00487516 0.00167521 -0.00284748
0.000253056 -0.00076985 0.00238444
0.00495822 0.000535273 0.00132289
1.11113e-10 0.0242546 0.00485892
0.00357328 0.00261006 0.00229633
0.0036624 0.000509361 -3.09612e-06
0.0142985 -0.00345594 -0.0131288
-0.0181505 0.0221484 0.0186189
0.00182706 0.000219943 -1.3118e-06
-0.00654291 0.000684503 0.00267413
-0.000114914 0.0178431 0.00896698
-0.00315708 0.00397 0.00692405
0.0039335 -0.000283447 -0.00751403
0.00156515 0.00198126 -0.00158171
-0.00236832 0.0044452 0.003546
0.0133424 0.00401329 -0.00435635
-0.00176841 0.00960435 0.00130581
0.00525491 -0.00202632 -6.46871e-05
0.00123039 -0.0045813 -0.00140642
0.00669755 1.53572e-05 0.000134792
0.00411207 0.0013144 0.00188916
0.000217676 0.000160703 -0.000655571
0.00530281 0.0160769 -0.00796076
0.0013689 0.00379575 0.00435859
0.00104498 0.00144955 0.000651672
-0.000831278 0.0117434 0.00121816
-0.00243383 0.00485303 -0.000775075
-0.000853201 0.00535348 -0.00110362
-0.00139091 0.0149726 0.00440114
0.00523521 0.000688382 -0.00214284
0.00401795 0.00248944 0.00311201
0.00460693 -0.000431405 -0.000733441
-0.00113176 0.000707297 0.000809164
0.00859887 0.00438595 -0.0036726
0.00486648 0.00243662 -0.00192343
-0.000118684 -0.000158706 -0.00110303
-0.00281866 0.00580107 0.00795443
-0.00697515 0.00238049 -0.00113331
8.47823e-06 -0.00029334 0.000388088
0.0001197 0.00192037 0.00628782
-2.62651e-05 0.00439482 0.00419367
0.000337943 0.000442135 0.000622926
0.00360879 0.000930528 0.017749
0.00524636 0.000320075 0.000236249
-0.00105951 -0.00257045 -0.00123082
0.00341941 7.79935e-05 0.0149318
-9.14462e-10 0.0249076 0.000711313
0.101721 0.105508 0.140352
-0.0928364 0.0233914 0.164579
-0.0011057 0.00236711 0.0024739
-0.00506796 -3.74799e-05 0.00219683
0.00222946 0.00221419 -0.00213939
0.00189581 0.00174807 0.000935642
-0.00647576 -0.00196041 0.000197611
-0.000329679 0.00879877 0.00795165
0.00591283 0.00484205 0.00372834
-0.00303435 0.00519247 -0.0036854
-0.0010973 0.00372977 0.00050827
0.0552371 -0.0030649 0.0112613
-0.00468475 -0.00111615 -0.00168051
0.00102802 0.0143283 0.000953654
0.00713178 0.00887311 0.00135498
0.00962907 0.00703952 -0.0247022
0.00237471 0.000635065 -8.8983e-05
0.126176 0.0913993 0.126
-0.00431013 0.00137226 0.00053227
0.00307872 0.00564636 0.00687683
-0.000150397 0.0128948 0.00378155
-0.00108542 -0.00425699 -0.0102058
0.00243232 0.00272607 -0.0030957
-0.000505963 0.00719108 -0.00356894
0.00428049 0.0092059 0.00687344
0.000526126 -0.000493589 0.00110336
0.000204951 0.00054036 0.00015565
-0.00127084 0.00306771 0.00355004
-0.00421235 -0.00258927 -0.00196316
-0.00399121 0.00495993 0.00120377
0.00127312 0.0035285 0.00306512
-0.140813 0.000791555 -0.843312
0.00204983 -0.00124707 0.0233013
0.00506979 0.00410882 -0.00285808
0.00813734 0.00683819 -0.00375893
-0.00189402 0.00664571 0.00226466
0.0 -0.0 -0.03
0.0 -0.0 -0.03
0.0 -0.0 -0.03
0.000134089 0.00828701 0.00712992
0.0 -0.0 -0.03
-0.000186323 -0.000870375 0.00073494
0.00181224 0.000426339 0.00159376
0.0 -0.0 -0.03
0.00239476 0.00232556 0.00158038
0.0 -0.0 -0.03
-0.00485555 0.00976172 0.00877046
0.00622207 0.0135731 -0.00163556
0.0 -0.0 -0.03
0.0 -0.0 -0.03
0.0 -0.0 -0.03
0.0 -0.0 -0.03
-0.0177976 -0.00661586 -0.00143293
0.0107857 0.0177209 -0.00139731
0.0 -0.0 -0.03
0.0 -0.0 -0.03
0.0 -0.0 -0.03
0.0 -0.0 -0.03
0.0 -0.0 -0.03
0.000554284 -0.00774907 0.00789453
0.0 -0.0 -0.03
0.0 -0.0 -0.03
0.0 -0.0 -0.03
0.0 -0.0 -0.03
-0.00337431 -0.000691064 -1.46334e-05
0.0 -0.0 -0.03
0.000419201 0.00196494 -0.00155506
0.0 0.0 -0.0919452
0.0 -0.0 -0.03
0.0 -0.0 -0.03
-0.0372799 -0.0407181 -0.0341353
0.00609668 0.0015061 -0.00147436
0.00326865 -0.0035374 -0.000706959
-0.00243863 0.0193274 0.00653494
0.00232526 -0.00484092 -0.00718838
0.00183488 0.0021583 0.00374805
0.00400529 0.00134194 -0.000559483
-0.00817929 0.0189965 0.00642144
0.0 -0.0 -0.03
-0.00157527 -0.00447161 -0.0101431
0.000102882 -0.0074776 -0.00432271
0.00681248 0.0649194 -0.0150216
0.0 -0.0 -0.03
0.0 -0.0 -0.03
0.00754084 0.0032282 -0.00162428
-1.70751e-06 0.0241374 0.00551235
0.0 -0.0 -0.03
0.00764273 0.00644787 0.00080697
-0.000425124 0.0065822 0.00677954
0.0 -0.0 -0.03
-0.00397723 0.00165851 0.00312509
0.0 -0.0 -0.03
0.0 -0.0 -0.03
0.0 -0.0 -0.03
-0.0168236 -0.0126106 -0.0248659
-0.00370388 -0.00858219 -0.0329545
0.0 -0.0 -0.03
0.0 -0.0 -0.03
0.0 -0.0 -0.03
0.0 -0.0 -0.03
-0.00252334 0.02452 -0.0287884
0.00280355 0.000746835 0.000713188
0.00656451 0.00326479 -0.00197506
-0.00168162 0.000148723 0.000252795
0.0 -0.0 -0.03
-0.0869827 -0.0373033 -0.0533237
0.0 -0.0 -0.03
0.0 0.0 -0.0421595
-0.0172198 0.145798 0.0534175
0.0 -0.0 -0.03

VECTORS force float
-2.06685e-06 -6.41355e-06 -1.31523e-05
-1.76379e-06 2.74573e-07 -5.35625e-07
0.0 0.0 -1.43822e-06
1.51912e-06 6.72736e-07 8.17145e-07
0.0 0.0 -1.43822e-06
1.15404e-06 1.1315e-06 4.32847e-06
1.93174e-06 -4.13797e-06 3.22756e-06
3.55929e-08 -4.07761e-07 -7.3506e-07
5.40285e-10 -7.96069e-09 -1.4407e-06
-1.40413e-09 -1.05969e-08 4.24209e-09
3.63335e-07 -2.04645e-08 -8.95477e-07
2.29471e-07 1.03354e-07 -1.98101e-07
0.0 0.0 -1.43822e-06
0.0 0.0 -1.43822e-06
-2.72249e-06 -1.5659e-06 -3.05509e-06
-1.94086e-06 2.33092e-06 -2.33446e-06
1.21106e-05 -1.29357e-05 6.80613e-05
-4.40083e-07 -4.09439e-07 -2.08356e-07
1.6907e-06 -3.43081e-06 3.91785e-06
-5.13554e-09 4.70448e-09 1.8154e-08
6.98808e-08 1.1094e-07 -1.00502e-07
-9.2023e-07 8.12417e-07 2.53233e-07
-1.30469e-06 1.36774e-07 -5.94418e-07
-6.08819e-08 -4.07858e-07 -8.3181e-07
-7.30069e-06 -1.43906e-06 4.24326e-06
-4.57734e-12 3.72296e-09 -1.52253e-08
8.06988e-08 2.20032e-08 -1.17549e-06
-1.63939e-06 9.56896e-07 6.23957e-07
-1.56972e-06 3.35697e-06 -1.46194e-06
3.1917e-06 2.00588e-06 6.76496e-07
3.54167e-09 -5.65289e-09 7.94153e-09
-3.5535e-06 1.94029e-06 4.87998e-06
9.58685e-07 -4.73329e-06 6.03691e-06
-1.14463e-07 2.39945e-06 1.81822e-06
2.28772e-06 -5.10816e-07 7.69054e-09
-1.2018e-06 1.78076e-06 -3.1056e-06
5.7207e-07 -6.63197e-07 -8.63221e-08
-3.13309e-07 6.41828e-07 -1.23976e-06
-5.19053e-07 -2.26312e-06 -2.16334e-06
0.0 0.0 -1.43822e-06
6.00081e-09 1.55788e-08 3.22638e-08
1.49221e-07 -1.38269e-07 9.04784e-07
7.43553e-07 -1.1325e-06 4.04563e-06
-1.89441e-06 5.8707e-07 -1.53051e-06
-5.64028e-09 -2.9115e-08 -2.64216e-08
3.67758e-06 2.93719e-08 -7.55624e-07
-1.75552e-07 -4.05218e-07 -5.19634e-07
3.10489e-06 -2.27073e-07 3.12851e-06
2.66782e-05 7.24138e-05 -7.37905e-05
-5.18062e-05 -4.72993e-06 -4.47013e-07
5.29961e-07 1.01156e-05 -4.46174e-06
4.49415e-07 -3.79033e-07 4.25451e-07
7.84327e-07 -1.69247e-07 -7.76292e-07
9.94876e-07 -2.11269e-06 7.21702e-06
4.54489e-07 1.51665e-06 -1.35045e-07
-1.59697e-06 -1.76064e-06 -1.71806e-06
-6.42557e-10 -1.58018e-08 -3.08687e-09
1.30225e-06 -9.03973e-06 2.1174e-06
-9.2449e-08 5.87781e-06 7.61364e-06
2.01014e-06 -4.73573e-06 1.05194e-05
-1.25691e-06 -2.42482e-06 4.45987e-07
0.0 0.0 -1.43822e-06
0.0 0.0 -1.43822e-06
4.98726e-09 -3.73365e-07 -3.39402e-07
2.05197e-07 1.68673e-06 9.45969e-07
5.51596e-08 4.04156e-07 1.4951e-07
5.67811e-07 5.65257e-07 -4.21121e-07
4.16123e-07 -5.51716e-08 3.94268e-07
2.99871e-06 2.73619e-07 3.02065e-06
0.0 0.0 -1.43822e-06
0.0 0.0 -1.43822e-06
9.97548e-07 -5.70785e-08 9.0296e-07
-1.49175e-07 3.35048e-07 4.17175e-08
1.98773e-05 -6.45135e-06 -3.28681e-05
-9.3713e-08 -1.16109e-08 -1.36085e-06
0.0 0.0 -1.43822e-06
2.33e-08 1.76098e-07 -1.32508e-06
2.97431e-07 3.0853e-07 1.63736e-06
-5.7888e-07 -3.88311e-07 3.19289e-06
-1.15675e-06 2.76795e-06 2.92302e-07
8.85205e-08 -7.82302e-09 -5.90071e-07
8.32066e-07 -3.33036e-06 6.15397e-06
2.52065e-06 -2.09391e-05 5.78992e-07
1.15429e-06 4.35782e-06 3.19013e-06
5.03097e-07 -2.85442e-06 1.31447e-05
5.46866e-09 -1.67773e-09 2.14615e-08
4.00948e-07 1.5061e-07 3.19085e-08