# vtk DataFile Version 3.0
LIGGGHTS particles timestep 22200000
ASCII
DATASET POLYDATA
POINTS 109 float
0.0201993 0.0147594 0.0128419
0.0195553 0.0179986 0.0158334
0.0174832 0.0234598 0.0116954
0.0552425 0.0189586 0.00589144
0.00938048 0.0183393 0.00587271
0.0260391 0.0196534 0.00594246
0.0414093 0.0234003 0.01134
0.0366849 0.0218066 0.0435188
0.0466578 0.021973 0.00830563
0.0396375 0.017867 0.00734531
0.0339249 0.0173116 0.00624552
0.000591717 0.0149731 0.0435188
0.0437859 0.0155886 0.0140489
0.023907 0.0224964 0.01446
0.0295817 0.0232964 0.0123351
0.0425811 0.0204347 0.0155818
0.0250626 0.0196752 0.0159149
0.0338513 0.0186456 0.00728695
0.01895 0.0234882 0.0118137
0.003617 0.0285782 0.0435188
0.0860181 0.0183082 0.00577269
0.0177449 0.0174882 0.00600758
0.0448382 0.0153427 0.00977915
0.024727 0.0212551 0.0153755
0.0205849 0.0181487 0.0183891
0.0436358 0.0161821 0.0146443
0.04404 0.0150314 0.012966
0.0449872 0.0157032 0.00885015
0.0349285 0.0181778 0.00592251
0.0350832 0.0231443 0.0101095
0.0287205 0.0222031 0.00851884
0.054387 0.0178804 0.00601135
0.0367887 0.0196446 0.0157691
0.0428664 0.0193586 0.0157722
0.0424082 0.0211862 0.0152599
0.0453045 0.0166582 0.00795713
0.0348609 0.0226876 0.00924225
0.0422534 0.0218637 0.0147141
0.0219333 0.019031 0.00718551
0.0407298 0.0222236 0.00859907
0.0215156 0.0195257 0.0256031
0.0214483 0.0168437 0.00645098
0.0304605 0.0209218 0.0153481
0.0380829 0.0149203 0.0128242
0.0586827 0.0172628 0.00598816
0.0792478 0.0194315 0.00576454
0.012992 0.0205705 0.0156886
0.0468006 0.0224659 0.00891764
0.0303903 0.00406748 0.0435188
0.0325405 0.0148191 0.0108214
0.0473055 0.023335 0.0108826
0.0211838 0.0159933 0.00844367
0.045646 0.0179724 0.00743022
0.0465254 0.0191962 0.00590655
0.0360111 0.0225324 0.0140273
0.0328176 0.0151542 0.00961985
0.0475444 0.0232584 0.0120748
0.040896 0.0228045 0.00936407
0.0373176 0.0172632 0.0153337
0.0584376 0.0191695 0.00582359
0.0208883 0.0146337 0.0121281
0.0173396 0.0141368 0.013367
0.020084 0.0201843 0.0061153
0.0443758 0.0148328 0.0117859
0.0221348 0.00230077 0.0435188
0.201805 0.0186174 0.00570934
0.0392539 0.0163054 0.00816637
0.0269049 0.0153007 0.00934417
0.0830234 0.0186618 0.00583976
0.0259252 0.0152166 0.0134603
0.067984 0.0193424 0.00575613
0.0420052 0.0225718 0.0139101
0.0401311 0.0200398 0.00729645
0.0390084 0.015606 0.00901953
0.0264912 0.0147693 0.0111432
0.0253029 0.02045 0.00590518
0.0377386 0.0157964 0.0143059
0.041174 0.0232387 0.0104442
0.0279517 0.0191376 0.00716437
0.0383457 0.0197753 0.00590075
0.026935 0.0188837 0.00598981
0.0300957 0.0223548 0.0142201
0.0452209 0.0161673 0.0083302
0.0332054 0.0160496 0.00843614
0.0432949 0.0171396 0.0153095
0.0221996 0.00109062 0.0435188
0.0430652 0.0182448 0.0157451
0.0334365 0.0171529 0.00762372
0.0322373 0.0148712 0.0122807
0.0464565 0.0213037 0.00788931
0.0557897 0.0172859 0.0059806
0.0895649 0.0187731 0.00575225
0.031196 0.0176524 0.0155794
0.0309538 0.0190006 0.0158239
0.0417058 0.0231337 0.0129381
0.108836 0.0200055 0.00584234
0.0254037 0.0206124 0.0159887
0.0345407 0.0216688 0.00804341
0.0316989 0.01601 0.0145259
0.0365151 0.0205758 0.0154717
0.0204034 0.0240746 0.0127561
0.0318924 0.0153675 0.0136542
0.0274955 0.0172886 0.00757262
0.00937694 0.00505359 0.0435188
0.0377754 0.021451 0.00628508
0.0290131 0.0230308 0.00976974
0.0239893 0.0191578 0.00594089
0.0254808 0.018723 0.00589902
0.0393822 0.016879 0.00777132

VERTICES 109 218
1 0
1 1
1 2
1 3
1 4
1 5
1 6
1 7
1 8
1 9
1 10
1 11
1 12
1 13
1 14
1 15
1 16
1 17
1 18
1 19
1 20
1 21
1 22
1 23
1 24
1 25
1 26
1 27
1 28
1 29
1 30
1 31
1 32
1 33
1 34
1 35
1 36
1 37
1 38
1 39
1 40
1 41
1 42
1 43
1 44
1 45
1 46
1 47
1 48
1 49
1 50
1 51
1 52
1 53
1 54
1 55
1 56
1 57
1 58
1 59
1 60
1 61
1 62
1 63
1 64
1 65
1 66
1 67
1 68
1 69
1 70
1 71
1 72
1 73
1 74
1 75
1 76
1 77
1 78
1 79
1 80
1 81
1 82
1 83
1 84
1 85
1 86
1 87
1 88
1 89
1 90
1 91
1 92
1 93
1 94
1 95
1 96
1 97
1 98
1 99
1 100
1 101
1 102
1 103
1 104
1 105
1 106
1 107
1 108

POINT_DATA 109
SCALARS id int 1
LOOKUP_TABLE default
1
2
4
5
15
16
17
18
20
24
25
27
28
32
33
37
41
44
47
49
52
57
59
62
63
65
67
68
73
74
76
79
84
87
88
89
90
92
97
103
106
108
109
112
121
122
124
125
128
130
131
133
135
137
139
141
142
143
147
149
150
157
158
160
161
165
166
167
173
174
179
185
186
187
191
193
194
197
200
205
215
225
226
227
229
232
237
241
242
247
252
253
256
257
258
260
268
269
270
271
274
275
277
284
288
291
294
299
300

SCALARS type int 1
LOOKUP_TABLE default
1
1
1
1
1
1
1
1
1
1
1
1
1
1
1
1
1
1
1
1
1
1
1
1
1
1
1
1
1
1
1
1
1
1
1
1
1
1
1
1
1
1
1
1
1
1
1
1
1
1
1
1
1
1
1
1
1
1
1
1
1
1
1
1
1
1
1
1
1
1
1
1
1
1
1
1
1
1
1
1
1
1
1
1
1
1
1
1
1
1
1
1
1
1
1
1
1
1
1
1
1
1
1
1
1
1
1
1
1

SCALARS radius float 1
LOOKUP_TABLE default
0.0005
0.0005
0.0005
0.0005
0.0005
0.0005
0.0005
0.0005
0.0005
0.0005
0.0005
0.0005
0.0005
0.0005
0.0005
0.0005
0.0005
0.0005
0.0005
0.0005
0.0005
0.0005
0.0005
0.0005
0.0005
0.0005
0.0005
0.0005
0.0005
0.0005
0.0005
0.0005
0.0005
0.0005
0.0005
0.0005
0.0005
0.0005
0.0005
0.0005
0.0005
0.0005
0.0005
0.0005
0.0005
0.0005
0.0005
0.0005
0.0005
0.0005
0.0005
0.0005
0.0005
0.0005
0.0005
0.0005
0.0005
0.0005
0.0005
0.0005
0.0005
0.0005
0.0005
0.0005
0.0005
0.0005
0.0005
0.0005
0.0005
0.0005
0.0005
0.0005
0.0005
0.0005
0.0005
0.0005
0.0005
0.0005
0.0005
0.0005
0.0005
0.0005
0.0005
0.0005
0.0005
0.0005
0.0005
0.0005
0.0005
0.0005
0.0005
0.0005
0.0005
0.0005
0.0005
0.0005
0.0005
0.0005
0.0005
0.0005
0.0005
0.0005
0.0005
0.0005
0.0005
0.0005
0.0005
0.0005
0.0005

SCALARS mass float 1
LOOKUP_TABLE default
1.46608e-07
1.46608e-07
1.46608e-07
1.46608e-07
1.46608e-07
1.46608e-07
1.46608e-07
1.46608e-07
1.46608e-07
1.46608e-07
1.46608e-07
1.46608e-07
1.46608e-07
1.46608e-07
1.46608e-07
1.46608e-07
1.46608e-07
1.46608e-07
1.46608e-07
1.46608e-07
1.46608e-07
1.46608e-07
1.46608e-07
1.46608e-07
1.46608e-07
1.46608e-07
1.46608e-07
1.46608e-07
1.46608e-07
1.46608e-07
1.46608e-07
1.46608e-07
1.46608e-07
1.46608e-07
1.46608e-07
1.46608e-07
1.46608e-07
1.46608e-07
1.46608e-07
1.46608e-07
1.46608e-07
1.46608e-07
1.46608e-07
1.46608e-07
1.46608e-07
1.46608e-07
1.46608e-07
1.46608e-07
1.46608e-07
1.46608e-07
1.46608e-07
1.46608e-07
1.46608e-07
1.46608e-07
1.46608e-07
1.46608e-07
1.46608e-07
1.46608e-07
1.46608e-07
1.46608e-07
1.46608e-07
1.46608e-07
1.46608e-07
1.46608e-07
1.46608e-07
1.46608e-07
1.46608e-07
1.46608e-07
1.46608e-07
1.46608e-07
1.46608e-07
1.46608e-07
1.46608e-07
1.46608e-07
1.46608e-07
1.46608e-07
1.46608e-07
1.46608e-07
1.46608e-07
1.46608e-07
1.46608e-07
1.46608e-07
1.46608e-07
1.46608e-07
1.46608e-07
1.46608e-07
1.46608e-07
1.46608e-07
1.46608e-07
1.46608e-07
1.46608e-07
1.46608e-07
1.46608e-07
1.46608e-07
1.46608e-07
1.46608e-07
1.46608e-07
1.46608e-07
1.46608e-07
1.46608e-07
1.46608e-07
1.46608e-07
1.46608e-07
1.46608e-07
1.46608e-07
1.46608e-07
1.46608e-07
1.46608e-07
1.46608e-07

VECTORS velocity float
0.0043054 0.00311896 0.002172
0.0656936 -0.0917618 -0.0218269
0.00380986 -0.000845006 -0.00140554
-9.84513e-15 -1.33741e-14 -1.90504e-13
3.64476e-15 5.46425e-16 -3.69009e-14
2.09857e-14 3.38095e-15 -3.42138e-13
0.000369108 0.000451973 -0.0214515
-9.6879e-317 9.73506e-317 2.68131e-13
0.00169712 -0.011105 -0.0103295
0.000572676 -0.0195111 0.00587454
2.93986e-18 -9.4234e-15 -2.80899e-14
9.71467e-317 9.75789e-317 -8.23806e-13
0.000480954 0.0113423 0.0175193
-0.00340363 -0.00885591 0.00399694
0.00126291 0.00317678 -0.0182771
0.00054681 0.0199371 -0.00549645
-0.00620927 0.0106635 -0.00108081
0.000215269 -0.0224927 -0.00111253
-3.49017e-05 -0.00015549 -3.98355e-05
-9.68849e-317 -9.75601e-317 2.88878e-12
-1.22618e-15 3.67085e-14 1.26768e-13
2.6264e-15 1.02245e-14 2.12824e-14
0.00116698 -0.00775478 0.018542
-0.0113624 0.011478 -0.00447625
0.0810124 -0.0920277 0.201146
0.000726243 0.0141587 0.0106939
0.000554372 0.00725003 0.0186918
0.00146687 -0.00907859 0.0150749
6.32982e-16 6.72305e-15 2.00024e-14
0.000485866 -0.00695515 -0.0180588
0.000187937 -0.0143078 -0.0155961
-1.30049e-14 -1.76677e-14 -2.51655e-13
0.000359123 0.0169796 -0.000976288
0.000477986 0.0198879 -0.00187688
0.000568032 0.0161926 -0.0103059
0.000751895 -0.0147625 0.0081244
5.91024e-05 -0.0107705 -0.0189664
0.000475395 0.0154476 -0.0135112
0.000538168 -0.0189291 0.000861406
0.00100801 -0.00995649 -0.00987325
0.0735413 0.0599064 1.01332
-2.38949e-14 5.08879e-14 1.84331e-13
0.000517014 0.0192295 -0.00883787
0.00135463 0.0022857 0.0106938
1.03791e-14 -2.154e-14 -2.64999e-13
1.16894e-14 4.01769e-14 1.70245e-13
0.0076726 0.0130112 -0.00540419
0.00013088 -0.0115077 -0.0170545
-9.67556e-317 -9.75879e-317 -3.22607e-12
0.000118145 -0.00351281 0.0212401
0.00176397 -0.00323938 -0.0155772
0.000728449 -0.0137354 0.0136911
0.000377729 -0.0201265 0.00564621
2.40261e-15 1.33703e-14 9.20545e-14
0.000266973 0.0153645 -0.0169562
0.000951099 -0.00783554 0.0139242
2.11426e-05 0.00428973 -0.0223056
0.000149261 -0.00972364 -0.0190151
0.000856073 0.0181142 0.00756855
8.12158e-15 -1.68411e-14 -2.07264e-13
0.000327707 0.000654 -0.00109109
0.000919818 0.000597666 -0.0022134
5.51952e-15 -2.46343e-15 5.04902e-14
0.000393307 -0.00115546 0.0216359
9.74157e-317 -9.69799e-317 9.23294e-13
-3.8561e-20 -8.56408e-22 -1.30474e-21
0.000603148 -0.00544547 0.0024861
0.0004617 -0.00957277 0.0175172
1.1548e-14 3.23703e-14 -1.39058e-13
0.000133862 0.00911159 0.0203109
3.89808e-15 7.52923e-15 2.61625e-13
-9.68584e-05 0.0145087 -0.0176039
0.000863152 -0.0191338 -0.00401741
0.000105269 -0.0131007 0.017386
5.30454e-05 -0.00265021 0.0219382
-2.07803e-14 -3.34779e-15 3.38791e-13
0.000162356 0.0136939 0.016106
0.000540555 -0.00556362 -0.0191562
0.00113146 -0.0161176 -0.00163956
5.96684e-15 -2.90129e-14 1.43224e-13
1.43031e-14 2.30437e-15 -2.33189e-13
0.000418365 0.0122383 -0.0156997
0.00167794 -0.0110572 0.00758633
0.000374704 -0.0144471 0.0145611
-0.000117712 0.0189001 0.00972473
9.58743e-317 9.68145e-317 4.97437e-14
0.000699203 0.0127055 0.00344371
0.000460518 -0.018965 0.00894286
0.000495735 0.00425594 0.0196405
0.00180876 -0.0139843 -0.00764688
9.79598e-15 1.33604e-14 1.8999e-13
-1.30851e-14 1.89764e-14 2.53775e-13
0.000421171 0.0192207 0.0062486
0.000596037 0.0177001 0.000937818
0.000521822 0.00645603 -0.0189892
7.53342e-16 -1.27683e-15 -6.975e-15
-0.0165037 0.0156779 -0.0147769
0.00328011 -0.00369703 -0.00474759
0.000370134 0.0146933 0.0143611
0.0011275 0.0164778 -0.00755925
-0.000214539 -0.0011924 -0.000163993
-0.000937351 0.0114346 0.021438
0.000350345 -0.01709 0.00742277
-9.68799e-317 -9.69932e-317 9.23294e-13
-6.85205e-15 2.32843e-14 -1.07318e-13
0.000203263 -0.00801228 -0.0203519
-8.47895e-15 -1.72996e-14 -5.676e-14
-2.07803e-14 -3.34151e-15 3.38791e-13
0.00103804 -0.00795042 0.00346559

VECTORS force float
2.20029e-08 1.7155e-07 -4.56669e-08
0.0 0.0 -1.43822e-06
1.68774e-08 -3.17863e-08 8.56903e-09
2.43522e-21 -2.05141e-21 0.0
1.24408e-21 -7.98395e-21 0.0
-2.64698e-23 -1.5551e-22 0.0
4.06627e-09 -9.31967e-09 1.97476e-09
0.0 0.0 0.0
-9.43969e-09 -2.59281e-08 -8.89526e-09
-6.63965e-09 -1.10869e-08 1.1574e-08
9.59927e-19 -1.38278e-19 1.73642e-20
0.0 0.0 0.0
2.058e-09 8.82563e-09 -2.12414e-09
-1.92757e-07 5.58396e-07 -5.12239e-07
-1.38534e-09 -5.10164e-09 -1.27486e-08
6.37049e-10 -2.83136e-11 -9.14445e-09
5.08035e-07 1.09258e-06 -1.75781e-08
4.65415e-07 1.54018e-07 -1.20322e-07
6.83393e-08 -7.4211e-09 5.13761e-08
0.0 0.0 0.0
2.7378e-20 -8.99973e-22 2.11758e-22
9.52912e-22 -3.81165e-21 1.27055e-21
-9.59282e-09 2.74112e-09 2.03229e-08
0.0 0.0 -1.43822e-06
0.0 0.0 -1.43822e-06
-2.51118e-09 2.39365e-08 4.77496e-09
-4.31338e-09 1.2954e-08 6.7392e-09
-1.86802e-09 6.1836e-09 6.87195e-09
1.54186e-21 -1.74701e-21 6.35275e-22
-1.01737e-09 -1.28942e-08 -8.32611e-09
-4.21662e-10 -1.14113e-08 2.47141e-09
6.2204e-22 -1.33672e-21 2.11758e-22
-3.22087e-09 -3.49323e-08 -2.34407e-08
-4.48685e-09 1.51345e-08 -1.15382e-08
-5.04843e-09 4.93901e-09 -2.13498e-08
-6.28086e-10 1.49236e-08 -2.45772e-09
6.91776e-11 -1.15742e-08 2.39564e-09
-4.2289e-09 9.34332e-10 -1.54149e-08
-4.81453e-09 -1.75505e-08 1.06261e-08
4.44092e-09 2.83537e-08 2.96773e-09
0.0 0.0 -1.43822e-06
3.34578e-20 2.78991e-20 -2.75286e-21
-2.07303e-09 1.46302e-09 -1.24421e-08
1.87321e-09 8.54539e-09 -2.22258e-08
-1.45915e-20 -5.21455e-21 -2.11758e-22
-1.98285e-19 4.82809e-20 1.90582e-21
1.67758e-10 -9.53686e-10 -3.58737e-09
4.72693e-09 -9.84435e-09 5.31792e-09
0.0 0.0 0.0
-4.33284e-10 9.35458e-09 8.47653e-09
-1.46772e-08 -1.41187e-08 -4.14313e-08
-7.76629e-09 -5.88531e-09 2.7083e-08
-3.5136e-09 -4.06264e-09 1.09671e-08
-5.37998e-21 7.67624e-22 0.0
1.35284e-09 -7.73448e-09 -8.96317e-09
4.92759e-08 2.08047e-07 -4.90576e-07
-5.31776e-10 -1.0664e-08 -6.20425e-09
3.76697e-09 -4.29559e-09 1.90508e-08
-5.30865e-09 1.70535e-08 -4.6423e-09
-2.46698e-20 -1.36716e-20 6.35275e-22
6.5682e-08 1.33044e-07 -1.07849e-07
-1.58283e-08 -1.16084e-08 4.3596e-08
3.49401e-21 -1.99847e-21 -6.35275e-22
2.42358e-09 1.33735e-08 5.81015e-09
0.0 0.0 0.0
0.0 0.0 0.0
-1.8146e-08 1.50136e-08 4.26084e-08
-2.37373e-07 -6.20691e-07 6.77109e-07
-2.59404e-21 3.17637e-21 8.47033e-22
-3.74583e-10 1.19847e-08 -3.23595e-10
9.18534e-20 -4.71493e-20 0.0
-4.08042e-10 1.77204e-11 -8.225e-09
-8.04038e-09 -1.56157e-08 7.59683e-09
-1.51383e-09 6.70036e-09 1.02463e-08
-8.7903e-10 1.02621e-08 5.9043e-09
2.64698e-23 -3.83812e-22 0.0
-6.64376e-10 1.31705e-08 -2.20371e-09
-3.51533e-09 -1.29559e-08 -6.22235e-09
4.81787e-09 1.99902e-08 1.28913e-08
-5.87073e-19 -1.19326e-19 4.23516e-22
1.45584e-22 -3.28391e-21 -2.11758e-22
-4.1785e-09 1.49918e-09 -1.82401e-08
-2.255e-08 9.5482e-09 -7.0905e-09
-3.79519e-09 2.20291e-10 1.30706e-08
9.8414e-10 1.09358e-08 -8.32624e-09
0.0 0.0 0.0
-5.34368e-10 -2.42164e-08 -1.37159e-08
-2.02999e-09 -1.80993e-09 1.27237e-08
-4.23106e-09 1.22284e-08 9.65941e-09
-5.35878e-09 -2.46873e-08 -2.57259e-10
3.77856e-20 -2.94609e-20 0.0
-2.7113e-19 -9.71044e-20 -6.56451e-21
-2.59266e-09 1.28661e-08 -6.68037e-09
2.60509e-09 -1.21775e-08 -1.57519e-08
-2.20401e-09 -6.83107e-09 -1.22826e-08
-3.17637e-22 0.0 0.0
4.32099e-08 3.41654e-09 -1.44264e-06
1.26502e-07 1.88389e-07 1.26829e-07
-3.53554e-09 1.25716e-08 -1.83138e-11
-8.53364e-09 2.74061e-08 -1.54436e-08
4.26934e-06 -9.99019e-07 1.2055e-06
-2.9177e-08 8.23782e-09 4.16668e-08
3.70888e-09 -1.41603e-08 3.50836e-08
0.0 0.0 0.0
7.51742e-21 -1.74701e-21 -6.35275e-22
-1.11235e-09 -1.16361e-08 -4.06637e-09
-3.26372e-20 2.08052e-20 -1.90582e-21
-9.35707e-21 2.15447e-20 -6.35275e-22
7.93968e-09 -4.57088e-09 6.5261e-10
