# vtk DataFile Version 3.0
LIGGGHTS particles timestep 8800000
ASCII
DATASET POLYDATA
POINTS 173 float
0.0215851 0.0219031 0.0159025
0.0217395 0.0140683 0.0143289
0.0200587 0.0236905 0.0137538
0.0243866 0.022148 0.0153815
0.0295219 0.0224993 0.0140297
0.022756 0.0231147 0.0100244
0.0230512 0.02336 0.0146065
0.0197935 0.0241037 0.0129182
0.00938048 0.0183393 0.00587271
0.0230426 0.0168894 0.0181706
0.0273766 0.0189478 0.00715542
0.0366849 0.0218066 0.0435188
0.0193999 0.0204759 0.0157075
0.0320116 0.0148323 0.0109779
0.0186759 0.0244345 0.0137407
0.0258096 0.0147762 0.0118702
0.0205594 0.0157256 0.00878728
0.0167053 0.0142249 0.0135387
0.0296979 0.0219261 0.0147239
0.0176608 0.0140952 0.0132717
0.0204828 0.024384 0.0135443
0.0155036 0.0219498 0.0158794
0.0144208 0.0210457 0.016342
0.0247528 0.0168957 0.0312514
0.0177521 0.0234136 0.0113368
0.0284273 0.0228622 0.00936606
0.0213084 0.0234878 0.014661
0.0153881 0.0162249 0.0159503
0.0177321 0.0143566 0.015993
0.0194706 0.0241927 0.0142532
0.0237957 0.0216442 0.0150925
0.003617 0.0285782 0.0435188
0.0193278 0.0195632 0.0161408
0.0193602 0.0230365 0.0151336
0.0294465 0.0233121 0.0107331
0.017757 0.0234254 0.0122012
0.0196051 0.0193773 0.00612808
0.030518 0.0184417 0.0157481
0.0187336 0.0139825 0.0129995
0.01943 0.015301 0.0139157
0.0310731 0.0190204 0.0158383
0.0300323 0.0207591 0.0154101
0.0308884 0.0171762 0.015388
0.0135018 0.0214125 0.0152652
0.0154417 0.0233787 0.0144999
0.0216698 0.020158 0.00734459
0.023527 0.0150366 0.0149181
0.0282177 0.0223368 0.00866071
0.0192211 0.0159236 0.0146774
0.019668 0.0220941 0.014743
0.023387 0.0227805 0.013846
0.023739 0.0224544 0.0146666
0.0236187 0.0296702 0.0324134
0.0286608 0.0232035 0.0102389
0.0310723 0.0162722 0.014765
0.031505 0.0152343 0.0133235
0.0215788 0.014721 0.0129134
0.0245763 0.0187386 0.0159574
0.0280431 0.0217112 0.00806505
0.0236936 0.0170403 0.0163627
0.0130754 0.0206008 0.0156649
0.0243339 0.0197083 0.0159368
0.0150254 0.0159136 0.0147907
0.0264519 0.0153387 0.00930022
0.0212979 0.0203377 0.0173688
0.0207556 0.0165041 0.00798287
0.0214483 0.0168437 0.00645098
0.0186052 0.0222665 0.014591
0.0225719 0.0227982 0.00934566
0.0247653 0.0177761 0.015764
0.0164018 0.0231651 0.0148069
0.0551527 0.0181697 0.00595147
0.0326193 0.0159624 0.00849996
0.0180353 0.0210811 0.0154546
0.032401 0.015282 0.00946369
0.0179255 0.0240713 0.0130129
0.0303903 0.00406748 0.0435188
0.0184633 0.0232513 0.0128453
0.0253241 0.01953 0.0159161
0.0206008 0.0140258 0.0132767
0.0316929 0.0149311 0.012518
0.0219992 0.0217612 0.00829683
0.0211776 0.0227177 0.0385448
0.0253716 0.021172 0.0164274
0.0176435 0.0230344 0.0150862
0.032955 0.0169876 0.00769004
0.0267845 0.0161576 0.00829028
0.0193126 0.0230934 0.0133527
0.0202963 0.0194388 0.0159252
0.0570019 0.0175547 0.00590579
0.0184737 0.0190771 0.0159559
0.0178322 0.0145003 0.0141697
0.00529049 0.0202905 0.0376203
0.0188384 0.0240984 0.012847
0.0247819 0.0212376 0.0153876
0.0302976 0.0194409 0.0157853
0.0221348 0.00230077 0.0435188
0.0144949 0.0229873 0.0149809
0.0255951 0.0183642 0.0158949
0.0199095 0.0147143 0.0113172
0.0160463 0.0150601 0.0148817
0.0223012 0.0203093 0.0166011
0.0183402 0.0154831 0.0155022
0.0176048 0.0150695 0.0149646
0.0241135 0.0206538 0.0156988
0.0227769 0.0233527 0.0108737
0.0212572 0.0184821 0.00722234
0.0278724 0.0209211 0.00762273
0.026191 0.0149406 0.0102879
0.0249668 0.0168587 0.0153594
0.0211868 0.0157732 0.0145145
0.0239196 0.0215924 0.0160895
0.0198802 0.017455 0.0156623
0.0254936 0.0204922 0.0157045
0.0268985 0.0168489 0.00777387
0.021232 0.023978 0.0131284
0.0162327 0.0237089 0.013985
0.0216587 0.0193338 0.00718154
0.0272016 0.0179515 0.00736331
0.021105 0.0238501 0.0181778
0.0233642 0.0207302 0.0165221
0.0268146 0.0190088 0.00598366
0.0305757 0.0256028 0.0668792
0.0185353 0.023453 0.0138846
0.0202241 0.0150171 0.0100896
0.0160108 0.0227975 0.0163509
0.0203888 0.0153727 0.0141086
0.0312855 0.0156322 0.0141071
0.0151987 0.0152128 0.0137374
0.0207313 0.0147919 0.0107934
0.0291253 0.0232854 0.0124962
0.0238422 0.0248997 0.0226058
0.0221996 0.00109062 0.0435188
0.0171693 0.0213027 0.0162661
0.028879 0.0233897 0.0114492
0.0197932 0.0145676 0.0123417
0.0169568 0.00657946 0.035506
0.0248412 0.0220029 0.0162602
0.0168501 0.0146858 0.0144143
0.0154274 0.0227348 0.0152648
0.0318421 0.0147907 0.0117559
0.0137802 0.0192487 0.0159773
0.0159396 0.0216153 0.0182422
0.0167453 0.0227639 0.0156665
0.0201773 0.0184452 0.0159057
0.0174528 0.0159322 0.015749
0.0175082 0.0243668 0.0138721
0.0188583 0.0176662 0.0168531
0.0213876 0.016196 0.00827608
0.027612 0.0199513 0.007305
0.108836 0.0200055 0.00584234
0.0180414 0.0155398 0.0265054
0.0226799 0.0146094 0.0142995
0.0151152 0.014788 0.0146388
0.0206906 0.0146363 0.0119051
0.0175781 0.0231189 0.0133202
0.0246656 0.0166741 0.016345
0.0187096 0.0180677 0.0158649
0.0261205 0.0161726 0.0226875
0.0159009 0.0144887 0.0140731
0.0158824 0.0197119 0.0167154
0.0222961 0.0236862 0.0140357
0.0137221 0.0220849 0.015972
0.0258168 0.0190114 0.0166243
0.00937694 0.00505359 0.0435188
0.0184076 0.0201498 0.0158128
0.0169676 0.0239668 0.0146121
0.0171242 0.0237706 0.0127035
0.0214706 0.0195799 0.0167251
0.0254764 0.0174049 0.0163607
0.019032 0.0168037 0.0153395
0.024947 0.0190645 0.00586966
0.0253112 0.0154739 0.0139513

VERTICES 173 346
1 0
1 1
1 2
1 3
1 4
1 5
1 6
1 7
1 8
1 9
1 10
1 11
1 12
1 13
1 14
1 15
1 16
1 17
1 18
1 19
1 20
1 21
1 22
1 23
1 24
1 25
1 26
1 27
1 28
1 29
1 30
1 31
1 32
1 33
1 34
1 35
1 36
1 37
1 38
1 39
1 40
1 41
1 42
1 43
1 44
1 45
1 46
1 47
1 48
1 49
1 50
1 51
1 52
1 53
1 54
1 55
1 56
1 57
1 58
1 59
1 60
1 61
1 62
1 63
1 64
1 65
1 66
1 67
1 68
1 69
1 70
1 71
1 72
1 73
1 74
1 75
1 76
1 77
1 78
1 79
1 80
1 81
1 82
1 83
1 84
1 85
1 86
1 87
1 88
1 89
1 90
1 91
1 92
1 93
1 94
1 95
1 96
1 97
1 98
1 99
1 100
1 101
1 102
1 103
1 104
1 105
1 106
1 107
1 108
1 109
1 110
1 111
1 112
1 113
1 114
1 115
1 116
1 117
1 118
1 119
1 120
1 121
1 122
1 123
1 124
1 125
1 126
1 127
1 128
1 129
1 130
1 131
1 132
1 133
1 134
1 135
1 136
1 137
1 138
1 139
1 140
1 141
1 142
1 143
1 144
1 145
1 146
1 147
1 148
1 149
1 150
1 151
1 152
1 153
1 154
1 155
1 156
1 157
1 158
1 159
1 160
1 161
1 162
1 163
1 164
1 165
1 166
1 167
1 168
1 169
1 170
1 171
1 172

POINT_DATA 173
SCALARS id int 1
LOOKUP_TABLE default
1
2
3
4
5
7
11
13
15
16
17
18
19
20
23
24
25
27
28
29
31
32
33
34
35
37
40
41
43
44
47
49
50
51
52
54
57
59
62
63
65
67
68
71
73
74
76
79
80
83
84
85
86
87
88
89
90
91
92
95
97
99
102
103
105
106
108
109
110
112
116
121
122
124
125
126
128
130
131
133
135
137
138
139
141
142
143
145
147
149
150
151
154
157
158
160
161
165
166
167
170
171
173
174
175
177
179
185
186
187
191
192
193
194
197
199
200
201
205
206
211
215
218
220
221
224
225
226
227
228
229
230
232
235
237
239
240
241
242
246
247
248
249
250
251
252
253
256
257
258
260
262
263
268
269
270
271
272
273
274
275
277
282
283
284
286
288
289
291
294
298
299
300

SCALARS type int 1
LOOKUP_TABLE default
1
1
1
1
1
1
1
1
1
1
1
1
1
1
1
1
1
1
1
1
1
1
1
1
1
1
1
1
1
1
1
1
1
1
1
1
1
1
1
1
1
1
1
1
1
1
1
1
1
1
1
1
1
1
1
1
1
1
1
1
1
1
1
1
1
1
1
1
1
1
1
1
1
1
1
1
1
1
1
1
1
1
1
1
1
1
1
1
1
1
1
1
1
1
1
1
1
1
1
1
1
1
1
1
1
1
1
1
1
1
1
1
1
1
1
1
1
1
1
1
1
1
1
1
1
1
1
1
1
1
1
1
1
1
1
1
1
1
1
1
1
1
1
1
1
1
1
1
1
1
1
1
1
1
1
1
1
1
1
1
1
1
1
1
1
1
1
1
1
1
1
1
1

SCALARS radius float 1
LOOKUP_TABLE default
0.0005
0.0005
0.0005
0.0005
0.0005
0.0005
0.0005
0.0005
0.0005
0.0005
0.0005
0.0005
0.0005
0.0005
0.0005
0.0005
0.0005
0.0005
0.0005
0.0005
0.0005
0.0005
0.0005
0.0005
0.0005
0.0005
0.0005
0.0005
0.0005
0.0005
0.0005
0.0005
0.0005
0.0005
0.0005
0.0005
0.0005
0.0005
0.0005
0.0005
0.0005
0.0005
0.0005
0.0005
0.0005
0.0005
0.0005
0.0005
0.0005
0.0005
0.0005
0.0005
0.0005
0.0005
0.0005
0.0005
0.0005
0.0005
0.0005
0.0005
0.0005
0.0005
0.0005
0.0005
0.0005
0.0005
0.0005
0.0005
0.0005
0.0005
0.0005
0.0005
0.0005
0.0005
0.0005
0.0005
0.0005
0.0005
0.0005
0.0005
0.0005
0.0005
0.0005
0.0005
0.0005
0.0005
0.0005
0.0005
0.0005
0.0005
0.0005
0.0005
0.0005
0.0005
0.0005
0.0005
0.0005
0.0005
0.0005
0.0005
0.0005
0.0005
0.0005
0.0005
0.0005
0.0005
0.0005
0.0005
0.0005
0.0005
0.0005
0.0005
0.0005
0.0005
0.0005
0.0005
0.0005
0.0005
0.0005
0.0005
0.0005
0.0005
0.0005
0.0005
0.0005
0.0005
0.0005
0.0005
0.0005
0.0005
0.0005
0.0005
0.0005
0.0005
0.0005
0.0005
0.0005
0.0005
0.0005
0.0005
0.0005
0.0005
0.0005
0.0005
0.0005
0.0005
0.0005
0.0005
0.0005
0.0005
0.0005
0.0005
0.0005
0.0005
0.0005
0.0005
0.0005
0.0005
0.0005
0.0005
0.0005
0.0005
0.0005
0.0005
0.0005
0.0005
0.0005
0.0005
0.0005
0.0005
0.0005
0.0005
0.0005

SCALARS mass float 1
LOOKUP_TABLE default
1.46608e-07
1.46608e-07
1.46608e-07
1.46608e-07
1.46608e-07
1.46608e-07
1.46608e-07
1.46608e-07
1.46608e-07
1.46608e-07
1.46608e-07
1.46608e-07
1.46608e-07
1.46608e-07
1.46608e-07
1.46608e-07
1.46608e-07
1.46608e-07
1.46608e-07
1.46608e-07
1.46608e-07
1.46608e-07
1.46608e-07
1.46608e-07
1.46608e-07
1.46608e-07
1.46608e-07
1.46608e-07
1.46608e-07
1.46608e-07
1.46608e-07
1.46608e-07
1.46608e-07
1.46608e-07
1.46608e-07
1.46608e-07
1.46608e-07
1.46608e-07
1.46608e-07
1.46608e-07
1.46608e-07
1.46608e-07
1.46608e-07
1.46608e-07
1.46608e-07
1.46608e-07
1.46608e-07
1.46608e-07
1.46608e-07
1.46608e-07
1.46608e-07
1.46608e-07
1.46608e-07
1.46608e-07
1.46608e-07
1.46608e-07
1.46608e-07
1.46608e-07
1.46608e-07
1.46608e-07
1.46608e-07
1.46608e-07
1.46608e-07
1.46608e-07
1.46608e-07
1.46608e-07
1.46608e-07
1.46608e-07
1.46608e-07
1.46608e-07
1.46608e-07
1.46608e-07
1.46608e-07
1.46608e-07
1.46608e-07
1.46608e-07
1.46608e-07
1.46608e-07
1.46608e-07
1.46608e-07
1.46608e-07
1.46608e-07
1.46608e-07
1.46608e-07
1.46608e-07
1.46608e-07
1.46608e-07
1.46608e-07
1.46608e-07
1.46608e-07
1.46608e-07
1.46608e-07
1.46608e-07
1.46608e-07
1.46608e-07
1.46608e-07
1.46608e-07
1.46608e-07
1.46608e-07
1.46608e-07
1.46608e-07
1.46608e-07
1.46608e-07
1.46608e-07
1.46608e-07
1.46608e-07
1.46608e-07
1.46608e-07
1.46608e-07
1.46608e-07
1.46608e-07
1.46608e-07
1.46608e-07
1.46608e-07
1.46608e-07
1.46608e-07
1.46608e-07
1.46608e-07
1.46608e-07
1.46608e-07
1.46608e-07
1.46608e-07
1.46608e-07
1.46608e-07
1.46608e-07
1.46608e-07
1.46608e-07
1.46608e-07
1.46608e-07
1.46608e-07
1.46608e-07
1.46608e-07
1.46608e-07
1.46608e-07
1.46608e-07
1.46608e-07
1.46608e-07
1.46608e-07
1.46608e-07
1.46608e-07
1.46608e-07
1.46608e-07
1.46608e-07
1.46608e-07
1.46608e-07
1.46608e-07
1.46608e-07
1.46608e-07
1.46608e-07
1.46608e-07
1.46608e-07
1.46608e-07
1.46608e-07
1.46608e-07
1.46608e-07
1.46608e-07
1.46608e-07
1.46608e-07
1.46608e-07
1.46608e-07
1.46608e-07
1.46608e-07
1.46608e-07
1.46608e-07
1.46608e-07
1.46608e-07
1.46608e-07
1.46608e-07
1.46608e-07
1.46608e-07
1.46608e-07
1.46608e-07
1.46608e-07

VECTORS velocity float
8.02055e-05 0.0321298 -0.020717
-0.0101422 -0.0403195 0.0314344
0.000685487 0.000703477 -0.00147383
0.00140031 0.000717366 -0.000626712
-0.000497502 0.012113 -0.013865
0.000957841 0.00235138 0.000972317
-0.00376537 0.00240852 -0.00417717
0.000105434 0.000370475 -0.000404852
3.64504e-15 5.37521e-16 -3.6901e-14
-0.00297671 0.0568578 -0.17135
0.000714488 -0.0184464 0.00111998
-9.6879e-317 9.73506e-317 2.68131e-13
-7.02888e-05 0.0271692 -0.00886903
0.000699612 -0.00265027 0.0197131
4.08554e-05 4.44701e-05 -1.75357e-05
0.000576985 0.000694272 0.0177505
0.000175765 -0.0139505 0.0166066
0.000881894 0.0010226 -0.00333153
0.000610875 0.0139661 -0.0131435
0.000644265 -0.00052153 0.00100537
0.000316766 0.000190516 -0.000660718
0.0028504 0.000688398 0.000503206
-3.01408e-06 0.0227447 -0.00965668
0.0937665 0.03315 0.209595
0.000417475 0.00181052 0.000784562
0.000891409 -0.00902465 -0.0165567
-0.00097346 -0.0357435 0.106903
0.00611385 -0.0172044 -0.102579
0.0104629 0.00459817 -0.00896472
0.000356574 0.000115452 -0.000468293
-0.00108497 0.0128205 -0.00845691
-9.68849e-317 -9.75601e-317 2.88878e-12
-0.000107599 0.024327 -0.00387098
0.00818436 0.0820593 -0.0975853
0.00108657 -0.00192355 -0.016154
0.000859931 0.0022219 -0.000464657
-3.58962e-14 1.60962e-14 -3.28528e-13
-3.13837e-05 0.0198139 0.00340107
0.00172702 0.000362855 -0.000602335
-0.00042708 0.00745051 0.0263164
0.000359313 0.00975241 0.00138924
-0.000258027 0.0205312 -0.00804265
0.000888018 0.0153146 0.0091404
0.0124197 0.0184539 0.00139475
0.000366957 -0.000302099 -0.000710548
0.000458376 -0.0190704 -0.00534841
0.00451442 0.00172902 0.00482684
0.000422678 -0.0132756 -0.0148267
0.000198355 0.0152073 0.015422
-0.00219035 0.0319915 -0.0286317
0.00113911 0.00222283 -0.00453355
0.00242472 0.00763788 -0.00168768
-0.0766704 0.141176 0.197405
0.000796024 -0.00650965 -0.018944
0.000260644 0.0162754 0.0139573
-0.000298756 0.00816064 0.0201402
0.0111252 -0.0164325 -0.029472
0.0100295 0.00882783 0.0029416
0.000735865 -0.0154103 -0.0104855
-1.75565e-09 0.0228439 0.00957755
-0.00244554 0.015978 -0.0042897
0.00329499 0.00712803 0.0044175
-0.0151895 0.0358948 -0.0813457
0.000198011 -0.0101082 0.0176065
-0.0121242 0.0517759 -0.0386347
0.000288588 -0.0172194 0.0118831
-2.39123e-14 5.08608e-14 1.84336e-13
-0.00422786 0.0478173 -0.0492111
7.91435e-05 0.00322531 0.00336354
0.0032913 0.00769685 0.00193376
0.000863943 -0.00174282 -0.00169165
-1.30161e-14 -1.76764e-14 -2.51654e-13
0.000294461 -0.0143516 0.0149429
6.21374e-06 0.0215114 -0.0110736
0.000481819 -0.00572614 0.00949806
5.4622e-06 0.00018004 -0.000590457
-9.67556e-317 -9.75879e-317 -3.22607e-12
0.000211036 0.000826861 -0.000487811
-0.00129928 0.00278012 -0.00120387
0.0174758 0.00283183 0.00173655
0.00022734 0.00564898 0.0200902
0.000200324 -0.0166344 -0.0138303
0.0187194 -0.0105582 0.104777
0.000750625 -0.000309363 0.000931863
0.0376798 -0.00999978 -0.0296524
0.000168161 -0.0193289 0.00980684
0.000384513 -0.0159965 0.0136405
0.00294004 0.003568 -0.00779576
5.63731e-06 0.0205212 -0.00177561
4.38319e-15 1.19215e-14 2.80766e-13
0.000356322 0.0218823 -0.000191867
0.00301921 -0.00163281 0.00106024
-0.110617 0.168798 0.358047
9.09612e-05 0.000270654 -5.00918e-06
0.000644601 0.00120271 -0.00033642
0.0011777 0.0173945 -0.00248149
9.74157e-317 -9.69799e-317 9.23294e-13
0.00305904 0.00238371 8.84877e-06
5.40052e-05 0.0189976 0.00317787
0.00118823 -0.00228961 0.0200276
0.00203292 -0.00198035 -0.00167239
7.02852e-10 0.0239674 -0.00608853
0.00853964 0.0158073 -0.0155356
0.0131815 -0.00801067 -0.0031253
0.0011001 0.00577648 0.00111465
0.00338668 0.00140288 -0.0002717
0.000605021 -0.0194997 0.00248544
0.000401139 -0.0180967 -0.00791016
0.0013409 -0.00276095 0.0108723
0.0029461 0.0167689 0.014865
0.000356712 0.0200955 0.0118405
-0.00519132 0.00795435 0.000248582
5.64946e-07 0.01919 0.00757336
-0.000353104 0.00193133 -0.000226784
0.00102255 -0.0160463 0.0101098
0.000277433 0.000632529 -0.00161925
0.000255573 -0.000227388 -0.000711184
0.000120661 -0.00929537 -0.00135455
9.94066e-05 -0.0196112 0.00271659
-0.0435536 0.205351 -0.13004
-3.29962e-09 0.0236027 -0.00806749
-1.91093e-14 -3.07692e-15 3.11554e-13
0.28632 0.278133 1.06451
-0.0265953 -0.00478371 -0.0344473
-0.000144879 -0.00689627 0.0201538
-0.0275414 -0.0406551 -0.0505237
-0.00318191 -0.00946416 0.0474761
-1.91297e-05 0.011183 0.0169376
0.000928449 -0.000194662 -0.000775369
-0.000122757 -0.00429484 0.021077
0.00152166 0.00344213 -0.0172769
-0.147908 -0.0921196 -0.351405
9.58743e-317 9.68145e-317 4.97437e-14
-0.00236741 0.032566 -0.0157132
0.000192772 0.000240445 -0.020797
0.00335998 0.000142751 0.0102584
-0.0649481 -0.0698471 0.207576
0.000824309 -0.0018882 -0.000868539
0.00200507 -0.00310724 -0.00520927
0.000758278 0.000111024 -0.000159849
0.00114425 -0.000695041 0.0168096
0.00698295 0.00109067 0.01635
0.173722 -0.0386981 0.205323
0.0302182 -0.0255919 -0.059056
3.10939e-11 0.0203234 0.00292992
-0.00206697 -0.00938206 -0.00450262
-0.000355942 -0.000266203 -0.000577706
0.0292698 -0.058261 0.0492332
0.00399091 -0.0121737 0.0110623
4.24616e-05 -0.0216953 -0.0055913
7.52729e-16 -1.27579e-15 -6.9753e-15
-0.00480186 -0.0873186 -0.201324
-0.00569198 -0.00173384 -0.00259983
0.0012507 -0.000523977 -0.000850843
-0.00468312 -0.00399589 0.0176804
0.0061756 0.00951957 -0.0156525
-0.014681 0.00330897 0.0303715
0.00311949 0.00387747 0.0138695
0.00864475 0.0418556 -0.0350362
0.000953195 -0.000351089 -0.00063577
2.35512e-09 0.0245709 -0.00293495
-0.00597712 0.00150639 -0.00403893
0.0216097 0.0303277 0.0194055
0.000546443 0.0185934 0.00337551
-9.68799e-317 -9.69932e-317 9.23294e-13
-8.38192e-11 0.0199545 -0.00491932
0.000279872 -0.000893945 -0.000452526
0.000859976 0.0016708 -0.0030267
1.32415e-05 0.0244886 -0.00245808
0.000341647 1.42983e-05 0.000750806
-2.51167e-05 0.00345408 0.00312361
2.60345e-15 4.36651e-16 -4.25293e-14
0.000913834 0.0111784 0.015489

VECTORS force float
5.98272e-10 9.2003e-08 -1.03184e-07
0.0 0.0 -1.43822e-06
-8.30987e-09 1.95363e-08 -7.75293e-09
-3.9147e-07 7.87833e-07 -1.49786e-06
-1.04451e-08 -1.23547e-08 -2.16899e-08
1.25527e-08 3.50056e-08 1.74855e-07
-2.55163e-07 1.3022e-07 -6.64747e-07
1.23488e-08 8.02549e-09 1.57816e-09
5.29396e-23 -1.20537e-20 -2.11758e-22
0.0 0.0 -1.43822e-06
-5.7812e-09 -1.9437e-08 1.31738e-08
0.0 0.0 0.0
3.07671e-09 -7.80671e-08 -5.11118e-07
1.14495e-06 7.17961e-07 -4.76434e-06
-3.75756e-08 5.96764e-09 6.4437e-09
1.45517e-09 -7.62305e-09 -5.87018e-08
-1.20538e-09 4.75979e-09 1.02002e-08
6.65049e-08 -2.08609e-08 3.86095e-08
-5.32582e-09 2.63379e-09 -1.61526e-08
6.9994e-09 -1.13659e-08 2.71838e-08
-4.39057e-09 9.64974e-09 6.4081e-09
5.00933e-08 3.03462e-07 -4.22492e-07
-8.67192e-09 7.30904e-09 -2.15568e-08
0.0 0.0 -1.43822e-06
-6.98186e-10 -2.41648e-08 7.0741e-08
-5.39876e-09 -8.24257e-09 5.35099e-09
0.0 0.0 -1.43822e-06
0.0 0.0 -1.43822e-06
0.0 0.0 -1.43822e-06
-8.53625e-09 -1.19901e-08 3.02251e-08
-2.70511e-06 3.08512e-06 -1.15788e-06
0.0 0.0 0.0
4.53183e-07 8.44152e-08 -3.91073e-07
0.0 0.0 -1.43822e-06
3.00794e-08 -4.13916e-09 -2.95869e-09
6.50993e-08 -4.2798e-08 1.12816e-07
-8.47033e-22 -6.10128e-21 -2.11758e-22
-1.44702e-07 4.64998e-07 1.7655e-08
-1.76278e-07 -1.39926e-08 2.32192e-08
-1.33045e-06 -6.77394e-06 1.39584e-05
3.31625e-07 2.64503e-08 -1.13899e-08
4.86765e-09 -7.43034e-10 -1.38822e-08
2.23204e-09 -7.12971e-08 -4.87316e-08
5.60047e-07 -1.9732e-05 -1.56339e-05
1.83153e-08 -2.06229e-07 -4.75149e-07
1.32542e-07 1.07033e-06 3.21675e-07
-2.54481e-07 -1.70308e-07 -1.49411e-07
-5.52023e-10 -2.94215e-08 -2.73793e-08
4.94762e-07 -1.508e-05 3.37545e-06
3.96618e-08 1.99174e-07 -2.31571e-07
2.70065e-07 -7.18469e-07 5.20012e-07
-8.99623e-06 3.66014e-06 -4.82144e-06
0.0 0.0 -1.43822e-06
2.99592e-09 -1.4129e-08 1.57162e-09
1.85241e-07 1.37796e-06 6.25756e-07
-1.56526e-06 1.71374e-06 2.58604e-06
0.0 0.0 -1.43822e-06
-5.6344e-08 2.10934e-07 4.59867e-08
-4.76378e-09 -1.51482e-07 -5.90933e-08
-1.2523e-12 6.62234e-09 -1.55476e-08
-7.12321e-07 2.35722e-07 1.76215e-06
1.17815e-07 5.55697e-07 -1.0238e-07
0.0 0.0 -1.43822e-06
-1.00914e-09 1.0232e-08 9.31942e-09
0.0 0.0 -1.43822e-06
-4.20398e-08 2.65534e-07 -1.17288e-07
1.41481e-19 4.15576e-20 6.56451e-21
-8.21231e-09 9.28844e-08 -1.08541e-06
1.01392e-08 -1.73979e-08 1.18045e-07
-8.03565e-08 7.18718e-08 -2.21695e-07
7.09927e-08 1.51343e-07 -2.02635e-07
1.22952e-20 1.91906e-21 -4.23516e-22
-1.21632e-09 3.31549e-09 1.20875e-08
1.08011e-10 3.96671e-08 -4.40063e-08
5.40764e-10 -2.05027e-09 1.50779e-08
1.10642e-07 4.9706e-08 3.49789e-08
0.0 0.0 0.0
4.59136e-08 3.97892e-09 1.25152e-08
-2.85677e-06 -1.31415e-05 6.09658e-06
-2.59516e-07 3.62726e-07 -9.50099e-07
7.03358e-07 -1.86217e-06 -3.56833e-06
-3.94944e-10 -1.12796e-08 6.05303e-09
0.0 0.0 -1.43822e-06
-1.14279e-06 2.45509e-06 7.23471e-07
0.0 0.0 -1.43822e-06
-9.71067e-10 -1.02961e-10 1.256e-08
-3.61275e-09 -7.2849e-10 1.11293e-08
-3.44247e-08 3.55091e-09 -1.45023e-06
3.02986e-07 -2.00094e-08 -5.5403e-08
8.74859e-20 -5.70953e-20 1.05879e-21
7.11795e-08 2.96165e-07 2.58506e-09
3.40175e-09 -6.344e-09 2.51092e-08
0.0 0.0 -1.43822e-06
3.76335e-08 1.13527e-08 3.81653e-09
-7.66685e-08 4.95422e-07 3.4205e-07
2.6274e-07 1.39194e-06 -4.65182e-07
0.0 0.0 0.0
-8.87222e-09 7.71953e-09 2.07969e-08
-1.641e-07 5.29432e-07 4.21129e-08
-4.04893e-06 -4.92879e-06 1.5393e-05
1.44048e-07 -2.60683e-07 -3.12328e-07
4.46885e-15 -4.29562e-09 -1.63118e-08
0.0 0.0 -1.43822e-06
-8.34414e-08 7.07287e-07 -1.64082e-06
3.16913e-07 -1.4405e-06 1.58534e-06
2.5745e-08 6.14994e-08 2.40775e-07
4.17584e-08 -5.03215e-07 1.23392e-07
-2.85088e-09 -3.20586e-08 -1.37073e-08
1.35155e-08 1.44107e-08 -2.9601e-08
1.10288e-06 -1.64613e-05 -1.19297e-07
4.2733e-07 2.09096e-06 -4.65525e-06
0.0 0.0 -1.43822e-06
-2.76508e-08 -7.16237e-09 -1.79212e-08
1.55384e-06 -3.79346e-06 -2.33217e-06
-7.55504e-09 -8.78958e-09 2.0591e-08
1.61117e-09 1.41327e-08 2.41111e-08
3.7835e-08 3.75188e-08 -2.54707e-07
3.4646e-07 1.06046e-07 -5.27037e-08
-5.14788e-08 4.73084e-09 2.54457e-08
0.0 0.0 -1.43822e-06
-5.13831e-15 -5.64434e-09 -1.60688e-08
0.0 1.65436e-24 -2.11758e-22
0.0 0.0 -1.43822e-06
0.0 0.0 -1.43822e-06
-3.42021e-07 -2.51506e-07 5.0424e-07
0.0 0.0 -1.43822e-06
-6.36071e-06 -4.67498e-05 5.57924e-05
1.87942e-06 -4.93078e-06 -4.78575e-06
4.61944e-08 -1.1554e-08 5.97201e-08
1.30064e-06 -1.1705e-07 -7.74105e-07
-8.58898e-09 -6.86866e-09 -2.56372e-08
0.0 0.0 -1.43822e-06
0.0 0.0 0.0
3.72969e-08 3.46774e-09 -3.77062e-08
-1.04223e-09 -8.43508e-09 1.18506e-08
0.0 0.0 -1.43822e-06
0.0 0.0 -1.43822e-06
-1.23319e-06 3.22107e-06 1.17203e-06
-2.41918e-08 -4.16062e-07 -5.79247e-07
-7.67718e-08 -1.38168e-07 -6.17071e-07
-2.74005e-06 2.18151e-07 -5.9422e-07
0.0 0.0 -1.43822e-06
0.0 0.0 -1.43822e-06
0.0 0.0 -1.43822e-06
-5.81814e-16 2.0658e-09 -1.35123e-08
-9.93109e-09 -1.2074e-07 -3.5829e-08
3.54955e-07 -7.02361e-08 -5.53917e-08
0.0 0.0 -1.43822e-06
-4.30184e-06 -8.85366e-07 8.21213e-07
-1.40265e-09 -7.24015e-09 1.0088e-08
1.03232e-21 5.82335e-22 0.0
0.0 0.0 -1.43822e-06
1.89264e-08 -1.46908e-08 4.93212e-08
-8.92522e-09 -1.04123e-07 5.33933e-08
-2.34276e-05 -4.5053e-05 0.000144049
0.0 0.0 -1.43822e-06
0.0 0.0 -1.43822e-06
0.0 0.0 -1.43822e-06
0.0 0.0 -1.43822e-06
2.60552e-08 -1.67674e-08 -3.33936e-09
4.50403e-15 -1.85552e-09 -1.67786e-08
2.77413e-07 -1.18556e-07 4.18286e-07
0.0 0.0 -1.43822e-06
1.29058e-07 7.34396e-07 -2.31688e-07
0.0 0.0 0.0
-6.46772e-16 -3.14526e-09 -1.33182e-08
1.5482e-07 -8.47025e-08 -3.84813e-07
2.53165e-07 2.04374e-08 1.50074e-07
-3.31994e-11 2.58456e-08 -1.987e-08
-5.11774e-08 -1.40039e-07 -6.32806e-08
3.60111e-09 -1.59008e-08 3.85488e-09
-7.14684e-22 -3.82654e-20 -4.23516e-22
-6.77416e-09 2.13701e-08 1.03858e-08
