# vtk DataFile Version 3.0
LIGGGHTS particles timestep 8200000
ASCII
DATASET POLYDATA
POINTS 177 float
0.0230562 0.0202464 0.0157835
0.0221077 0.0143322 0.0142131
0.0202184 0.0234787 0.0144471
0.0207609 0.0228411 0.015055
0.0289789 0.0147711 0.0111773
0.0222081 0.0228397 0.0138383
0.0238997 0.0226384 0.015174
0.0197052 0.0241578 0.0129836
0.00938048 0.0183393 0.00587271
0.0240556 0.0173927 0.0164395
0.0268638 0.0214141 0.0150443
0.0366849 0.0218066 0.0435188
0.0187083 0.0145584 0.0141433
0.0315099 0.0229117 0.00950248
0.018889 0.0244377 0.0137371
0.0253186 0.0226117 0.00905422
0.0200763 0.0233269 0.0123579
0.0165846 0.0142692 0.0135616
0.0292566 0.015043 0.0102183
0.017735 0.0144547 0.014718
0.0205003 0.0243313 0.013598
0.0159949 0.0168378 0.0153662
0.0215845 0.0258744 0.0215442
0.0204996 0.0144746 0.014118
0.0162559 0.0232459 0.0130178
0.0280081 0.0165625 0.0149581
0.0219273 0.0237676 0.0136825
0.0238085 0.0166202 0.0158499
0.0221429 0.0197351 0.0158906
0.0195259 0.0241382 0.0143994
0.0225761 0.0150476 0.0133113
0.003617 0.0285782 0.0435188
0.0212206 0.0203364 0.0157551
0.0219756 0.0169286 0.0154111
0.0286527 0.0169928 0.0152351
0.0153827 0.0229321 0.0136801
0.0196051 0.0193773 0.00612808
0.0297778 0.0164209 0.00810351
0.0178355 0.0142883 0.0137371
0.019059 0.0217232 0.00815363
0.030241 0.0153154 0.00933879
0.0294204 0.0153299 0.00941399
0.0300153 0.017187 0.0076157
0.0183515 0.0236614 0.014039
0.0148379 0.0219102 0.0149129
0.0206492 0.0239073 0.0123817
0.0235178 0.0164497 0.0168022
0.0277574 0.017648 0.0155511
0.0188896 0.0209678 0.00767448
0.0186344 0.0145869 0.0151401
0.0252437 0.0212495 0.016274
0.0221866 0.0160525 0.0149115
0.0176799 0.0157265 0.0156856
0.0281778 0.0158985 0.0144341
0.0303239 0.0186331 0.00720234
0.0308485 0.0207249 0.00753231
0.0212246 0.0141806 0.0134952
0.0235638 0.0156733 0.00882385
0.0275405 0.0184801 0.0158026
0.0230509 0.0161409 0.0154059
0.0173985 0.0241348 0.0143324
0.0233859 0.0151797 0.00963414
0.0210178 0.0239908 0.0145459
0.0256987 0.0232105 0.0103125
0.0180874 0.016153 0.0148781
0.0199762 0.0237151 0.0118554
0.0214483 0.0168437 0.00645098
0.0185509 0.0218772 0.0159224
0.0219062 0.0232824 0.0127758
0.0240826 0.0173788 0.00752654
0.0154126 0.0224894 0.0154909
0.0551527 0.0181697 0.00595147
0.0319274 0.0233727 0.0115628
0.0174894 0.0146256 0.0119465
0.0317141 0.023248 0.0103688
0.0173532 0.0240564 0.0126098
0.0215248 0.0189509 0.0159447
0.0303903 0.00406748 0.0435188
0.0165693 0.022492 0.0143144
0.0192101 0.0227131 0.0152807
0.0213105 0.0147821 0.0146156
0.0310165 0.0214909 0.00792146
0.0205301 0.0227807 0.0138743
0.0170561 0.0235766 0.0156246
0.0231259 0.020904 0.017276
0.0153948 0.0202213 0.0157988
0.0323324 0.0230264 0.0131317
0.0260814 0.0233689 0.0110902
0.0191468 0.0233372 0.014467
0.019574 0.0148114 0.0146041
0.0570019 0.0175547 0.00590579
0.0233696 0.0189638 0.0159455
0.0237137 0.0211878 0.0163017
0.0223387 0.0232084 0.0153053
0.0186727 0.0241081 0.0128552
0.0233314 0.0231328 0.0146348
0.0299274 0.0157964 0.00868734
0.0221348 0.00230077 0.0435188
0.0140708 0.0225886 0.0154581
0.0171792 0.0232275 0.0146553
0.0194859 0.0228223 0.0095317
0.0239285 0.0192447 0.016755
0.0204933 0.020416 0.0166082
0.0209288 0.0218011 0.0150294
0.0219641 0.0239728 0.0146081
0.0238147 0.015259 0.0151482
0.022632 0.0222883 0.014571
0.0202938 0.0234579 0.0132448
0.027241 0.0199075 0.015711
0.0257404 0.0229266 0.00955323
0.0244741 0.0193796 0.0071904
0.0203128 0.0140396 0.0131098
0.0258027 0.0199382 0.0166946
0.020446 0.0145778 0.0151111
0.0245614 0.0158997 0.0157044
0.0260216 0.0233315 0.0119588
0.0212578 0.0239292 0.0130505
0.0155468 0.023469 0.0145126
0.0209801 0.0232068 0.0128493
0.0264177 0.0227587 0.013533
0.0229257 0.0172137 0.0155475
0.022397 0.0152905 0.0142695
0.0268146 0.0190088 0.00598366
0.0195879 0.0142888 0.0137517
0.015926 0.0216748 0.0151039
0.0197352 0.0232632 0.0106043
0.0188693 0.0244958 0.0172742
0.0178632 0.0242496 0.0134605
0.0190632 0.0140169 0.0129424
0.0305585 0.0197003 0.00725426
0.0195468 0.0145642 0.0155726
0.0198256 0.0223484 0.008773
0.0287319 0.014892 0.0122528
0.0179705 0.0227362 0.0152112
0.0221996 0.00109062 0.0435188
0.0170849 0.0165129 0.0151492
0.0284419 0.0153625 0.0136299
0.019686 0.0214277 0.00786752
0.0235776 0.0233057 0.0155017
0.0228753 0.0214452 0.0152465
0.017317 0.0143208 0.0128829
0.0147308 0.0232025 0.0150254
0.0312852 0.0224196 0.00878784
0.0221245 0.0207982 0.0155966
0.0172451 0.0157626 0.0145078
0.0162648 0.0160483 0.0148151
0.0208223 0.0154735 0.0153482
0.0215065 0.0223996 0.0144341
0.0168678 0.0239283 0.0134746
0.0221455 0.0149709 0.0152108
0.0206018 0.0234242 0.0112666
0.0270828 0.0207489 0.0154695
0.108836 0.0200055 0.00584234
0.0182639 0.0171639 0.0164025
0.0230945 0.0147223 0.014707
0.0161961 0.0229953 0.0151306
0.0204004 0.0218048 0.00821591
0.0155973 0.0223831 0.0144793
0.0232482 0.0157679 0.014498
0.0184893 0.0146246 0.0119334
0.019599 0.015549 0.0154068
0.015779 0.0145049 0.014204
0.015795 0.0177391 0.0157503
0.0164314 0.0238806 0.0147299
0.0227389 0.0236649 0.0144076
0.0136052 0.0218665 0.0159696
0.0252275 0.018317 0.0167055
0.00937694 0.00505359 0.0435188
0.0168083 0.0270414 0.0246463
0.0185729 0.0237121 0.0151315
0.0150646 0.0210991 0.0154518
0.0146193 0.0226104 0.0142274
0.0164227 0.015395 0.0140748
0.0240137 0.0162388 0.0149395
0.0186127 0.0198706 0.00727338
0.024947 0.0190645 0.00586966
0.0249886 0.0210157 0.00787975

VERTICES 177 354
1 0
1 1
1 2
1 3
1 4
1 5
1 6
1 7
1 8
1 9
1 10
1 11
1 12
1 13
1 14
1 15
1 16
1 17
1 18
1 19
1 20
1 21
1 22
1 23
1 24
1 25
1 26
1 27
1 28
1 29
1 30
1 31
1 32
1 33
1 34
1 35
1 36
1 37
1 38
1 39
1 40
1 41
1 42
1 43
1 44
1 45
1 46
1 47
1 48
1 49
1 50
1 51
1 52
1 53
1 54
1 55
1 56
1 57
1 58
1 59
1 60
1 61
1 62
1 63
1 64
1 65
1 66
1 67
1 68
1 69
1 70
1 71
1 72
1 73
1 74
1 75
1 76
1 77
1 78
1 79
1 80
1 81
1 82
1 83
1 84
1 85
1 86
1 87
1 88
1 89
1 90
1 91
1 92
1 93
1 94
1 95
1 96
1 97
1 98
1 99
1 100
1 101
1 102
1 103
1 104
1 105
1 106
1 107
1 108
1 109
1 110
1 111
1 112
1 113
1 114
1 115
1 116
1 117
1 118
1 119
1 120
1 121
1 122
1 123
1 124
1 125
1 126
1 127
1 128
1 129
1 130
1 131
1 132
1 133
1 134
1 135
1 136
1 137
1 138
1 139
1 140
1 141
1 142
1 143
1 144
1 145
1 146
1 147
1 148
1 149
1 150
1 151
1 152
1 153
1 154
1 155
1 156
1 157
1 158
1 159
1 160
1 161
1 162
1 163
1 164
1 165
1 166
1 167
1 168
1 169
1 170
1 171
1 172
1 173
1 174
1 175
1 176

POINT_DATA 177
SCALARS id int 1
LOOKUP_TABLE default
1
2
3
4
5
7
11
13
15
16
17
18
19
20
23
24
25
27
28
29
31
32
33
34
35
37
40
41
43
44
47
49
50
51
52
54
57
59
62
63
65
67
68
71
73
74
76
79
80
83
84
85
86
87
88
89
90
91
92
95
97
99
102
103
105
106
108
109
110
112
116
121
122
124
125
126
127
128
130
131
133
135
137
138
139
141
142
143
145
147
149
150
151
154
157
158
160
161
165
166
167
170
171
173
174
175
177
179
185
186
187
191
192
193
194
197
199
200
201
205
206
211
215
218
220
221
223
224
225
226
227
228
229
230
232
235
237
239
240
241
242
246
247
248
249
250
251
252
253
256
257
258
260
262
263
268
269
270
271
272
273
274
275
276
277
282
283
284
285
286
288
289
291
294
298
299
300

SCALARS type int 1
LOOKUP_TABLE default
1
1
1
1
1
1
1
1
1
1
1
1
1
1
1
1
1
1
1
1
1
1
1
1
1
1
1
1
1
1
1
1
1
1
1
1
1
1
1
1
1
1
1
1
1
1
1
1
1
1
1
1
1
1
1
1
1
1
1
1
1
1
1
1
1
1
1
1
1
1
1
1
1
1
1
1
1
1
1
1
1
1
1
1
1
1
1
1
1
1
1
1
1
1
1
1
1
1
1
1
1
1
1
1
1
1
1
1
1
1
1
1
1
1
1
1
1
1
1
1
1
1
1
1
1
1
1
1
1
1
1
1
1
1
1
1
1
1
1
1
1
1
1
1
1
1
1
1
1
1
1
1
1
1
1
1
1
1
1
1
1
1
1
1
1
1
1
1
1
1
1
1
1
1
1
1
1

SCALARS radius float 1
LOOKUP_TABLE default
0.0005
0.0005
0.0005
0.0005
0.0005
0.0005
0.0005
0.0005
0.0005
0.0005
0.0005
0.0005
0.0005
0.0005
0.0005
0.0005
0.0005
0.0005
0.0005
0.0005
0.0005
0.0005
0.0005
0.0005
0.0005
0.0005
0.0005
0.0005
0.0005
0.0005
0.0005
0.0005
0.0005
0.0005
0.0005
0.0005
0.0005
0.0005
0.0005
0.0005
0.0005
0.0005
0.0005
0.0005
0.0005
0.0005
0.0005
0.0005
0.0005
0.0005
0.0005
0.0005
0.0005
0.0005
0.0005
0.0005
0.0005
0.0005
0.0005
0.0005
0.0005
0.0005
0.0005
0.0005
0.0005
0.0005
0.0005
0.0005
0.0005
0.0005
0.0005
0.0005
0.0005
0.0005
0.0005
0.0005
0.0005
0.0005
0.0005
0.0005
0.0005
0.0005
0.0005
0.0005
0.0005
0.0005
0.0005
0.0005
0.0005
0.0005
0.0005
0.0005
0.0005
0.0005
0.0005
0.0005
0.0005
0.0005
0.0005
0.0005
0.0005
0.0005
0.0005
0.0005
0.0005
0.0005
0.0005
0.0005
0.0005
0.0005
0.0005
0.0005
0.0005
0.0005
0.0005
0.0005
0.0005
0.0005
0.0005
0.0005
0.0005
0.0005
0.0005
0.0005
0.0005
0.0005
0.0005
0.0005
0.0005
0.0005
0.0005
0.0005
0.0005
0.0005
0.0005
0.0005
0.0005
0.0005
0.0005
0.0005
0.0005
0.0005
0.0005
0.0005
0.0005
0.0005
0.0005
0.0005
0.0005
0.0005
0.0005
0.0005
0.0005
0.0005
0.0005
0.0005
0.0005
0.0005
0.0005
0.0005
0.0005
0.0005
0.0005
0.0005
0.0005
0.0005
0.0005
0.0005
0.0005
0.0005
0.0005
0.0005
0.0005
0.0005
0.0005
0.0005
0.0005

SCALARS mass float 1
LOOKUP_TABLE default
1.46608e-07
1.46608e-07
1.46608e-07
1.46608e-07
1.46608e-07
1.46608e-07
1.46608e-07
1.46608e-07
1.46608e-07
1.46608e-07
1.46608e-07
1.46608e-07
1.46608e-07
1.46608e-07
1.46608e-07
1.46608e-07
1.46608e-07
1.46608e-07
1.46608e-07
1.46608e-07
1.46608e-07
1.46608e-07
1.46608e-07
1.46608e-07
1.46608e-07
1.46608e-07
1.46608e-07
1.46608e-07
1.46608e-07
1.46608e-07
1.46608e-07
1.46608e-07
1.46608e-07
1.46608e-07
1.46608e-07
1.46608e-07
1.46608e-07
1.46608e-07
1.46608e-07
1.46608e-07
1.46608e-07
1.46608e-07
1.46608e-07
1.46608e-07
1.46608e-07
1.46608e-07
1.46608e-07
1.46608e-07
1.46608e-07
1.46608e-07
1.46608e-07
1.46608e-07
1.46608e-07
1.46608e-07
1.46608e-07
1.46608e-07
1.46608e-07
1.46608e-07
1.46608e-07
1.46608e-07
1.46608e-07
1.46608e-07
1.46608e-07
1.46608e-07
1.46608e-07
1.46608e-07
1.46608e-07
1.46608e-07
1.46608e-07
1.46608e-07
1.46608e-07
1.46608e-07
1.46608e-07
1.46608e-07
1.46608e-07
1.46608e-07
1.46608e-07
1.46608e-07
1.46608e-07
1.46608e-07
1.46608e-07
1.46608e-07
1.46608e-07
1.46608e-07
1.46608e-07
1.46608e-07
1.46608e-07
1.46608e-07
1.46608e-07
1.46608e-07
1.46608e-07
1.46608e-07
1.46608e-07
1.46608e-07
1.46608e-07
1.46608e-07
1.46608e-07
1.46608e-07
1.46608e-07
1.46608e-07
1.46608e-07
1.46608e-07
1.46608e-07
1.46608e-07
1.46608e-07
1.46608e-07
1.46608e-07
1.46608e-07
1.46608e-07
1.46608e-07
1.46608e-07
1.46608e-07
1.46608e-07
1.46608e-07
1.46608e-07
1.46608e-07
1.46608e-07
1.46608e-07
1.46608e-07
1.46608e-07
1.46608e-07
1.46608e-07
1.46608e-07
1.46608e-07
1.46608e-07
1.46608e-07
1.46608e-07
1.46608e-07
1.46608e-07
1.46608e-07
1.46608e-07
1.46608e-07
1.46608e-07
1.46608e-07
1.46608e-07
1.46608e-07
1.46608e-07
1.46608e-07
1.46608e-07
1.46608e-07
1.46608e-07
1.46608e-07
1.46608e-07
1.46608e-07
1.46608e-07
1.46608e-07
1.46608e-07
1.46608e-07
1.46608e-07
1.46608e-07
1.46608e-07
1.46608e-07
1.46608e-07
1.46608e-07
1.46608e-07
1.46608e-07
1.46608e-07
1.46608e-07
1.46608e-07
1.46608e-07
1.46608e-07
1.46608e-07
1.46608e-07
1.46608e-07
1.46608e-07
1.46608e-07
1.46608e-07
1.46608e-07
1.46608e-07
1.46608e-07
1.46608e-07
1.46608e-07
1.46608e-07
1.46608e-07
1.46608e-07
1.46608e-07
1.46608e-07

VECTORS velocity float
1.50284e-10 0.0198146 -0.00538374
-0.00132796 0.00787563 -0.0146799
0.000968025 0.00259894 -0.00982028
-0.00817766 -0.0183655 0.0106876
0.00226039 -0.000330128 0.0143584
-0.00495829 -0.00706928 0.0160051
0.000283308 -0.00046783 -0.00088702
0.00818705 0.0204679 0.0275003
3.64464e-15 5.47457e-16 -3.69009e-14
-0.00055383 0.0229104 0.00739868
0.00192453 0.012852 -0.0104192
-9.6879e-317 9.73506e-317 2.68131e-13
-0.000489315 0.0021459 0.000161479
0.000340884 -0.00919788 -0.018932
0.00195154 0.00136079 -0.000149655
0.00224938 -0.00920293 -0.0101977
0.000212078 0.00325005 -0.0173723
-0.00134553 0.000905166 0.000144091
-0.000786899 -0.00648256 0.0218995
-0.000260109 0.000469367 0.00125774
0.0393649 -0.0107989 -0.00622212
-6.519e-05 0.0202497 0.0116603
-0.0123751 -0.0748593 -0.172767
-0.000581631 -0.00122793 0.00219618
0.00418011 0.000587751 0.00091241
0.000403994 0.0161302 0.0107652
-0.000643919 -0.0011899 0.00110473
0.00297034 0.0230164 0.00291325
0.000463069 0.0208529 -0.00330107
0.00175402 0.00193412 -0.00168926
0.00180097 0.00373193 0.0161549
-9.68849e-317 -9.75601e-317 2.88878e-12
0.00029703 0.020757 -0.00621889
-0.014376 0.0898066 0.0520899
0.00015572 0.0187549 0.010912
0.00416421 0.00241372 -0.00184285
-3.58957e-14 1.61014e-14 -3.28527e-13
0.000695225 -0.0177984 0.013327
-0.000369846 0.000110795 0.00134402
9.91882e-05 -0.0129884 -0.0123422
0.00225436 -0.00866263 0.016444
0.00072017 -0.00963892 0.0177409
-0.000164535 -0.0214353 0.00675392
0.00991498 0.00144012 -0.00916946
0.00441139 0.00232591 -0.00186435
-0.000195052 0.00143411 -0.00560622
-0.0553864 0.0188325 -0.00117107
0.00010874 0.0204482 0.00876963
0.000525569 -0.0185136 -0.00835604
-0.000639463 0.00852477 2.63213e-06
-0.0111015 0.014349 -0.00681598
-0.00502659 0.0228692 0.0358324
-0.0152839 0.00480423 0.000481637
0.00249415 0.00751412 0.00981891
0.000262607 -0.0115505 0.000969138
0.000786439 -0.0173345 -0.00629553
6.17764e-05 -0.00124174 0.00274837
0.00055252 -0.0115914 0.0157475
0.000423383 0.018595 0.00264978
0.010634 0.0192513 0.0112967
0.00411212 0.000403114 0.00051688
0.000510218 -0.00436516 0.01031
0.000642281 -1.04775e-05 -0.000256231
0.000613165 -0.00477442 -0.0169387
-2.44151e-05 0.017602 0.015027
-0.000513803 0.00125576 -0.0108603
-2.39049e-14 5.088e-14 1.84332e-13
0.0236849 -0.00370968 0.00331196
0.000508843 0.000346636 -0.00030831
0.000172849 -0.0217062 0.00744493
0.00268432 0.000174439 0.00156742
-1.30075e-14 -1.76676e-14 -2.51655e-13
0.000197515 0.000536368 -0.0216088
0.000946427 -0.000723148 0.00138313
0.000349935 -0.0056606 -0.0196944
-0.000624478 0.00124113 0.00693182
0.000443762 0.0211245 0.000414993
-9.67556e-317 -9.75879e-317 -3.22607e-12
0.00204389 0.00862486 -0.00974585
-0.000980065 0.0141629 -0.0125979
0.000989504 -0.000253931 -0.00104638
0.000898718 -0.0136146 -0.00999977
-0.000199539 0.00995393 -0.0181289
0.00536249 -0.0236955 -0.0652563
-0.00859531 -0.00752877 -0.043563
0.0055757 0.00322558 0.000757391
-3.62947e-06 0.00967591 -0.0207479
0.000715694 -0.00106814 -0.0184884
0.00173444 0.00354136 -0.00542377
-0.000934983 0.00130871 0.00042859
4.33179e-15 1.18921e-14 2.80768e-13
3.51104e-10 0.0205269 0.000274107
-1.60255e-06 0.0224724 -0.0102523
0.132743 0.0870794 0.138029
0.000685125 -0.0017849 0.00172113
0.000285775 0.00044127 -0.000619618
6.32139e-06 -0.0145756 0.0155806
9.74157e-317 -9.69799e-317 9.23294e-13
0.000356013 0.000138157 0.000237999
-0.00077139 0.000165867 -0.000241941
0.00036104 -0.00983421 -0.0185406
2.67721e-08 0.0247389 -0.000766498
-1.68725e-09 0.0240723 -0.00635529
-0.0480942 -0.0193235 -0.0330743
0.000112688 -0.000148056 0.000502118
0.00339629 0.00294404 0.00247473
0.00473217 -0.0100812 0.0109394
-0.00135412 0.0049637 -0.0195434
0.00108125 0.0180952 -0.00482206
0.00277187 -0.0032354 -0.0123362
0.00352302 -0.0123194 0.000188767
9.82461e-05 -0.00116071 0.00278519
-0.00333113 0.0233105 -0.00397973
-0.0013635 -0.00246563 0.00225233
0.00285806 0.00147979 0.00395654
0.000858734 0.0024852 -0.0220368
-0.000746423 0.000203356 -0.00224516
-0.000148235 -0.000286846 0.000106474
-0.000290373 0.00418639 -0.0134619
-0.000208921 0.0128722 -0.0188805
0.0134293 0.0289212 0.0134271
0.00427311 0.00280495 0.0202132
-1.91093e-14 -3.07695e-15 3.11554e-13
-0.000582719 -0.000345448 0.00165661
0.00566608 0.00264725 -0.003759
0.00126229 -0.00545523 -0.0182417
0.00607107 -0.0381876 -0.0878006
0.00451222 0.00131133 -0.00109527
-0.000330054 -0.00026262 0.000436317
0.000119755 -0.021182 -0.00366502
-0.0020199 0.000728511 4.08688e-05
-0.000238696 -0.0126743 -0.0178697
0.0003873 0.00343869 0.0148912
-0.00383941 0.00889367 -0.00890333
9.58743e-317 9.68145e-317 4.97437e-14
0.000107745 0.019075 0.0133371
-0.0115645 0.0228696 0.04384
0.0013053 -0.012982 -0.00790398
7.68264e-05 -0.000146018 -0.000181669
-0.00175883 0.0263084 -0.0163609
-0.000206395 -0.000433237 0.00125788
0.000180315 0.000331744 9.67422e-05
0.000349613 -0.0134029 -0.0154303
1.71841e-09 0.0188557 -0.00821227
9.81515e-06 0.0156126 0.0170556
-4.16865e-05 0.0180998 0.0147629
0.00458612 -0.00349293 -0.00344368
-0.0193022 -0.0196126 0.0287786
-0.00333512 0.000194844 0.00488952
-0.0213002 -0.0154712 0.0695842
0.0005507 -5.0006e-05 -0.0122947
0.00250167 0.0137379 -0.00582093
7.67066e-16 -1.27707e-15 -6.97346e-15
-0.00646938 -0.00711527 -0.00601553
0.0020015 -0.00504595 0.0124213
0.00265561 -0.000623767 0.000481193
0.00028236 -0.0157054 -0.0131652
0.0040649 0.00283011 -0.00170338
0.000302954 0.00769455 0.00494866
0.00100776 -0.000809087 0.00143909
0.000595053 -0.000167146 -0.00447575
0.00665661 -0.00183269 -0.00550635
1.80237e-05 0.0222284 0.00679613
-0.00136471 -0.000600033 0.000737572
0.000156304 0.000105918 -0.000199849
0.000160578 0.000855863 0.00185207
9.44396e-10 0.0245244 0.00328768
-9.68799e-317 -9.69932e-317 9.23294e-13
-0.310241 0.108988 0.657528
0.00361441 6.49933e-05 -0.000379948
0.00478538 0.00316571 -0.000406852
0.00442742 0.00222969 -0.00165982
7.11178e-06 0.0130557 0.0191935
0.00174317 0.0059286 0.00571305
0.000518423 -0.0208069 -0.00387594
2.53999e-15 7.11949e-16 -4.25304e-14
-0.000216702 -0.0156316 -0.0140001

VECTORS force float
1.19925e-16 -3.47051e-09 -1.3221e-08
-3.36099e-09 1.36521e-07 -4.70265e-07
2.57592e-05 3.71733e-05 -8.15575e-05
0.0 0.0 -1.43822e-06
-7.61469e-08 -3.76942e-08 2.1221e-07
-1.16446e-05 2.14938e-05 -4.21116e-05
-4.6116e-06 3.40611e-06 -1.64541e-06
5.60083e-05 0.000160675 0.000276698
-2.38228e-22 2.62382e-21 0.0
-2.84034e-08 -1.85886e-08 -3.5784e-08
-4.05972e-07 1.3104e-06 1.3917e-07
0.0 0.0 0.0
-1.64197e-08 5.01388e-08 2.19133e-07
-6.95549e-09 -8.20273e-09 -1.77877e-09
-1.64262e-05 -9.56061e-06 2.12913e-05
-6.29148e-06 1.70145e-05 1.80765e-07
-2.19523e-06 1.96597e-06 -4.53747e-06
4.24369e-07 -5.87051e-07 5.57035e-07
-5.15835e-08 -2.84724e-08 1.03276e-07
-1.89916e-07 5.73381e-08 -4.52313e-09
0.000287152 -8.02463e-05 -5.8961e-08
-8.93149e-08 3.95373e-07 -6.86095e-08
0.0 0.0 -1.43822e-06
1.68327e-07 -1.08412e-07 -1.45823e-07
0.0 0.0 -1.43822e-06
4.7773e-09 -1.08072e-08 -2.16507e-08
-1.11893e-05 5.10269e-06 -5.14663e-06
0.0 0.0 -1.43822e-06
-4.83927e-10 -1.35635e-09 -1.45029e-08
-8.25298e-06 -6.21734e-06 -5.00862e-07
-2.5011e-06 -5.38846e-07 9.32971e-06
0.0 0.0 0.0
-9.50915e-10 2.31215e-10 -1.64558e-08
0.0 0.0 -1.43822e-06
-3.9556e-09 5.50672e-09 -8.95747e-09
-6.8953e-07 -3.45227e-07 7.42339e-07
-1.06673e-20 -2.35581e-20 0.0
2.89815e-08 3.21756e-08 -5.39121e-08
6.20116e-08 -2.87225e-07 1.96955e-07
-5.98223e-06 9.27746e-06 3.96976e-06
2.94518e-07 -1.41733e-08 1.16327e-07
2.45648e-08 2.69457e-09 2.35709e-08
5.57746e-08 4.80584e-07 -1.03068e-07
1.14739e-06 -4.57674e-05 2.43408e-05
1.03028e-07 6.24273e-07 6.21195e-07
-6.03689e-07 2.02978e-06 -3.79728e-06
0.0 0.0 -1.43822e-06
2.00036e-09 8.5118e-09 -6.21987e-09
-6.79663e-08 4.10141e-07 3.5818e-07
-3.39872e-07 1.47941e-07 3.58938e-07
-4.77381e-09 3.501e-09 -5.2009e-09
-8.70082e-06 -4.22187e-06 -1.80302e-05
-4.10269e-08 -2.96061e-07 -3.4541e-07
2.28997e-08 -7.86127e-08 -7.85061e-08
7.0712e-08 -1.26277e-07 -8.12058e-08
-5.47733e-09 -1.92965e-08 1.024e-08
2.5298e-07 2.28592e-09 1.26931e-07
-4.46109e-06 2.41618e-07 -2.99708e-06
-2.65036e-09 7.11956e-08 -2.94312e-08
8.70082e-06 4.22187e-06 1.51537e-05
1.49039e-05 4.48357e-06 3.65932e-06
2.60522e-06 -2.27858e-06 -7.0422e-06
1.21264e-05 2.86722e-05 -5.81814e-05
7.06157e-06 -2.30162e-06 -6.95406e-06
6.09942e-08 -1.08543e-08 1.16704e-07
4.10813e-06 3.4265e-06 2.5172e-06
4.7275e-20 -3.34049e-20 1.58819e-20
-2.74334e-07 7.72906e-07 -4.9941e-07
-6.47744e-06 1.68349e-06 -7.27524e-06
1.88476e-09 3.25943e-09 1.26777e-08
1.68347e-07 8.83575e-07 -8.90433e-07
-4.27487e-21 8.99973e-22 2.11758e-22
9.10928e-08 5.14172e-09 6.04444e-08
1.91173e-07 -6.82418e-08 1.00504e-07
-6.9604e-09 -1.4217e-08 -8.92583e-09
-6.50949e-08 -1.16558e-07 1.25476e-07
-1.66971e-10 9.8625e-10 -1.45388e-08
0.0 0.0 0.0
1.33346e-07 8.45856e-08 -2.84419e-09
1.92785e-08 7.10151e-07 -8.52098e-07
3.42622e-07 -1.6167e-07 -6.52736e-08
1.37846e-09 -3.28826e-09 8.28082e-09
1.89609e-06 1.11388e-05 -2.83303e-05
0.0 0.0 -1.43822e-06
0.0 0.0 -1.43822e-06
-1.27656e-07 8.21099e-07 -7.57544e-08
-9.49833e-10 -8.85044e-09 -9.60705e-09
-2.62548e-07 2.61186e-08 8.71247e-08
4.39286e-06 -3.0455e-05 5.55327e-05
2.91872e-07 -1.12577e-08 1.35179e-07
-4.69144e-20 3.79047e-20 -8.47033e-22
6.55005e-16 7.22832e-11 -1.3665e-08
-1.78543e-09 -5.08595e-08 -2.30312e-10
0.0 0.0 -1.43822e-06
-2.19808e-06 -1.72186e-06 4.71131e-06
6.25939e-07 8.05685e-07 -2.36452e-07
1.82577e-07 7.12308e-08 -3.31079e-08
0.0 0.0 0.0
4.81293e-07 -2.89853e-07 -6.07011e-07
9.93926e-06 1.19671e-05 -1.46585e-05
-6.49376e-10 -1.07566e-08 1.35271e-10
1.03287e-10 -6.32496e-10 -1.87344e-08
-3.69055e-15 -4.2796e-09 -1.64434e-08
0.0 0.0 -1.43822e-06
-1.57156e-06 9.96478e-07 -2.33201e-06
-4.51347e-07 7.87887e-08 -9.51584e-07
0.0 0.0 -1.43822e-06
-1.44796e-05 -2.32449e-06 -3.14732e-05
-9.14424e-07 1.70997e-06 -9.72984e-07
-1.55874e-05 -3.34668e-05 -6.37225e-05
7.53457e-06 2.39116e-05 -2.45708e-08
1.32394e-07 -8.32165e-11 -9.0726e-09
-7.62029e-09 -1.06486e-09 -1.55838e-08
2.85594e-07 -1.05966e-07 -3.06186e-07
1.78866e-07 -2.60692e-07 -1.1269e-06
-2.17765e-08 1.15584e-08 3.71217e-09
-4.79592e-06 7.8093e-07 -5.88944e-06
-1.54093e-06 2.85296e-08 -6.01458e-07
-5.15721e-06 8.86496e-09 -1.12581e-05
2.73955e-09 -9.77528e-09 -6.53489e-09
-5.30954e-07 -1.08684e-06 -5.30832e-07
0.0 0.0 -1.43822e-06
7.14684e-22 1.07533e-22 0.0
1.57389e-07 1.57332e-08 -9.64455e-10
-3.88002e-07 1.76517e-06 2.09778e-07
-2.25522e-08 -8.58854e-08 -2.49581e-07
3.28012e-08 -3.88901e-07 -8.87207e-07
6.61577e-06 -1.50764e-05 1.07639e-05
-1.05154e-08 -5.73496e-09 9.52192e-09
-7.03493e-10 -7.21297e-09 1.02406e-08
9.40763e-09 1.07309e-07 9.74119e-08
3.54292e-08 -1.98514e-08 2.22633e-09
-5.3895e-09 8.04629e-09 5.04645e-09
7.72162e-08 7.60746e-07 -7.57178e-07
0.0 0.0 0.0
5.42922e-08 4.73801e-07 1.99871e-07
0.00026095 -0.000171211 -0.000568792
5.79519e-07 -3.54254e-07 4.76699e-07
-9.82482e-07 1.17765e-06 -5.53152e-07
-3.97932e-09 -1.57106e-11 -3.41073e-08
8.48901e-08 -9.11121e-08 2.21498e-07
2.38397e-07 -1.00081e-06 -3.9989e-07
1.09845e-08 -1.69721e-08 -5.44476e-09
2.04866e-11 -1.70102e-08 -8.45615e-09
-1.34204e-08 2.43986e-07 3.42298e-07
9.948e-08 2.86021e-07 3.13071e-07
-8.23649e-08 -2.40202e-07 -1.78712e-07
0.0 0.0 -1.43822e-06
-2.20327e-07 -4.1223e-09 1.57717e-07
0.0 0.0 -1.43822e-06
-1.84619e-06 -7.57746e-06 -3.3563e-05
-7.38526e-06 1.18558e-05 -6.46777e-06
0.0 -8.99973e-21 1.90582e-21
1.9263e-07 1.07799e-07 3.39047e-08
0.0 0.0 -1.43822e-06
-5.89318e-07 2.08344e-07 8.28476e-07
-2.35782e-07 5.57004e-07 2.33161e-07
4.67853e-07 4.50498e-07 3.13239e-08
0.0 0.0 -1.43822e-06
1.55357e-07 -7.53878e-09 -7.25143e-08
1.47244e-08 7.01925e-08 1.20047e-07
7.04186e-09 -2.00453e-08 2.54429e-08
6.57296e-08 -1.60991e-07 3.73714e-08
4.52766e-06 2.91419e-06 -3.68227e-07
4.33675e-07 -4.04745e-08 9.75939e-07
1.49632e-08 -8.14283e-07 -4.29346e-07
3.33864e-15 2.10357e-09 -1.67473e-08
0.0 0.0 0.0
0.0 0.0 -1.43822e-06
2.49239e-05 -2.05249e-05 5.52125e-05
-2.25303e-08 -4.8043e-07 1.1853e-07
3.34685e-08 -8.55038e-07 1.09448e-06
6.71379e-08 2.20448e-07 3.37049e-08
-2.97838e-07 -8.08235e-08 -5.94457e-08
-1.78807e-08 -1.36169e-07 -1.82117e-08
-8.72179e-21 -1.7921e-19 -2.32934e-21
-3.11579e-08 -6.68089e-09 3.44899e-08
