# vtk DataFile Version 3.0
LIGGGHTS particles timestep 21400000
ASCII
DATASET POLYDATA
POINTS 109 float
0.0190974 0.0230684 0.0100482
0.0187298 0.0220691 0.00852999
0.0152815 0.0228843 0.0137507
0.0552425 0.0189586 0.00589144
0.00938048 0.0183393 0.00587271
0.0260148 0.0196703 0.00594114
0.040444 0.0147867 0.0114476
0.0366849 0.0218066 0.0435188
0.0459564 0.0153629 0.0136467
0.0387375 0.019825 0.0157124
0.0339249 0.0173116 0.00624552
0.000591717 0.0149731 0.0435188
0.0431416 0.0231533 0.0102545
0.0220215 0.015073 0.0136928
0.0289341 0.0153831 0.00931115
0.0420405 0.0193876 0.0071917
0.0241189 0.0197267 0.00726492
0.0330516 0.0186009 0.0157908
0.0175604 0.0146163 0.0119472
0.003617 0.0285782 0.0435188
0.0860181 0.0183082 0.00577269
0.0177449 0.0174882 0.00600758
0.04381 0.0230363 0.0131466
0.0233272 0.0163487 0.00813978
0.0196271 0.0140167 0.0129428
0.0429434 0.0226979 0.00929546
0.0433502 0.0233955 0.011078
0.0441887 0.022123 0.0145289
0.0349285 0.0181778 0.00592251
0.0342089 0.014842 0.012349
0.0280826 0.015049 0.0129008
0.054387 0.0178804 0.00601135
0.0359817 0.0193098 0.00733733
0.0422695 0.0204756 0.00741236
0.0418024 0.0184986 0.00722212
0.044721 0.0200053 0.0156308
0.0339478 0.0153432 0.0136281
0.0415055 0.0171351 0.00764285
0.0172224 0.0240316 0.0131469
0.0396912 0.0161622 0.0146008
0.0205977 0.0140686 0.0131776
0.0214483 0.0168437 0.00645098
0.0297825 0.0183709 0.00725313
0.0371176 0.0231222 0.0101407
0.0586827 0.0172628 0.00598816
0.0792478 0.0194315 0.00576454
0.0193002 0.0241344 0.0129924
0.0461809 0.0148899 0.012453
0.0303903 0.00406748 0.0435188
0.0317726 0.0230992 0.0129662
0.0465611 0.0148659 0.0110399
0.020705 0.0234896 0.0118028
0.044928 0.0191165 0.0158058
0.0465254 0.0191962 0.00590655
0.0353058 0.0163275 0.00814701
0.0320748 0.0223978 0.0142509
0.0469041 0.0153582 0.00947464
0.0399731 0.0153299 0.0135961
0.0364968 0.0215717 0.00800433
0.0584376 0.0191695 0.00582359
0.0221397 0.0149045 0.0127144
0.0186087 0.0140241 0.0129304
0.020084 0.0201843 0.0061153
0.0435195 0.0233198 0.0117822
0.0221348 0.00230077 0.0435188
0.201805 0.0186174 0.00570934
0.038492 0.0209717 0.0152738
0.0261692 0.0221163 0.0143835
0.0830234 0.0186618 0.00583976
0.0252588 0.0232959 0.0106776
0.067984 0.0193424 0.00575613
0.0413732 0.0165213 0.00802067
0.0393261 0.0172382 0.0153611
0.0383397 0.0215021 0.0148177
0.0258244 0.0229476 0.0132825
0.0245203 0.0198559 0.00579478
0.036702 0.0221029 0.00843166
0.0401299 0.0149692 0.012796
0.0273091 0.0172479 0.0153404
0.0383457 0.0197753 0.00590075
0.026935 0.0188837 0.00598981
0.0291522 0.0158786 0.00856007
0.0444918 0.0211462 0.0152715
0.0324207 0.0212187 0.0151363
0.0427021 0.0221388 0.00844836
0.0221996 0.00109062 0.0435188
0.0424724 0.0213801 0.00792801
0.0327814 0.0196066 0.0157678
0.0315699 0.0233675 0.0119533
0.0456979 0.0159805 0.0145466
0.0557897 0.0172859 0.0059806
0.0895649 0.0187731 0.00575225
0.0304434 0.0212572 0.00776263
0.0301316 0.0198131 0.00726984
0.0412015 0.016027 0.00849771
0.108836 0.0200055 0.00584234
0.0230041 0.0152337 0.013786
0.03373 0.0159402 0.0144829
0.0309556 0.0227783 0.00926543
0.0355139 0.0172726 0.00757888
0.021828 0.0157065 0.0144418
0.0312282 0.0233163 0.0106053
0.0268002 0.0196167 0.015788
0.00937694 0.00505359 0.0435188
0.0377754 0.021451 0.00628508
0.028462 0.0147683 0.0114271
0.0238438 0.0196161 0.00633366
0.0254808 0.018723 0.00589902
0.0386019 0.0203677 0.0156308

VERTICES 109 218
1 0
1 1
1 2
1 3
1 4
1 5
1 6
1 7
1 8
1 9
1 10
1 11
1 12
1 13
1 14
1 15
1 16
1 17
1 18
1 19
1 20
1 21
1 22
1 23
1 24
1 25
1 26
1 27
1 28
1 29
1 30
1 31
1 32
1 33
1 34
1 35
1 36
1 37
1 38
1 39
1 40
1 41
1 42
1 43
1 44
1 45
1 46
1 47
1 48
1 49
1 50
1 51
1 52
1 53
1 54
1 55
1 56
1 57
1 58
1 59
1 60
1 61
1 62
1 63
1 64
1 65
1 66
1 67
1 68
1 69
1 70
1 71
1 72
1 73
1 74
1 75
1 76
1 77
1 78
1 79
1 80
1 81
1 82
1 83
1 84
1 85
1 86
1 87
1 88
1 89
1 90
1 91
1 92
1 93
1 94
1 95
1 96
1 97
1 98
1 99
1 100
1 101
1 102
1 103
1 104
1 105
1 106
1 107
1 108

POINT_DATA 109
SCALARS id int 1
LOOKUP_TABLE default
1
2
4
5
15
16
17
18
20
24
25
27
28
32
33
37
41
44
47
49
52
57
59
62
63
65
67
68
73
74
76
79
84
87
88
89
90
92
97
103
106
108
109
112
121
122
124
125
128
130
131
133
135
137
139
141
142
143
147
149
150
157
158
160
161
165
166
167
173
174
179
185
186
187
191
193
194
197
200
205
215
225
226
227
229
232
237
241
242
247
252
253
256
257
258
260
268
269
270
271
274
275
277
284
288
291
294
299
300

SCALARS type int 1
LOOKUP_TABLE default
1
1
1
1
1
1
1
1
1
1
1
1
1
1
1
1
1
1
1
1
1
1
1
1
1
1
1
1
1
1
1
1
1
1
1
1
1
1
1
1
1
1
1
1
1
1
1
1
1
1
1
1
1
1
1
1
1
1
1
1
1
1
1
1
1
1
1
1
1
1
1
1
1
1
1
1
1
1
1
1
1
1
1
1
1
1
1
1
1
1
1
1
1
1
1
1
1
1
1
1
1
1
1
1
1
1
1
1
1

SCALARS radius float 1
LOOKUP_TABLE default
0.0005
0.0005
0.0005
0.0005
0.0005
0.0005
0.0005
0.0005
0.0005
0.0005
0.0005
0.0005
0.0005
0.0005
0.0005
0.0005
0.0005
0.0005
0.0005
0.0005
0.0005
0.0005
0.0005
0.0005
0.0005
0.0005
0.0005
0.0005
0.0005
0.0005
0.0005
0.0005
0.0005
0.0005
0.0005
0.0005
0.0005
0.0005
0.0005
0.0005
0.0005
0.0005
0.0005
0.0005
0.0005
0.0005
0.0005
0.0005
0.0005
0.0005
0.0005
0.0005
0.0005
0.0005
0.0005
0.0005
0.0005
0.0005
0.0005
0.0005
0.0005
0.0005
0.0005
0.0005
0.0005
0.0005
0.0005
0.0005
0.0005
0.0005
0.0005
0.0005
0.0005
0.0005
0.0005
0.0005
0.0005
0.0005
0.0005
0.0005
0.0005
0.0005
0.0005
0.0005
0.0005
0.0005
0.0005
0.0005
0.0005
0.0005
0.0005
0.0005
0.0005
0.0005
0.0005
0.0005
0.0005
0.0005
0.0005
0.0005
0.0005
0.0005
0.0005
0.0005
0.0005
0.0005
0.0005
0.0005
0.0005

SCALARS mass float 1
LOOKUP_TABLE default
1.46608e-07
1.46608e-07
1.46608e-07
1.46608e-07
1.46608e-07
1.46608e-07
1.46608e-07
1.46608e-07
1.46608e-07
1.46608e-07
1.46608e-07
1.46608e-07
1.46608e-07
1.46608e-07
1.46608e-07
1.46608e-07
1.46608e-07
1.46608e-07
1.46608e-07
1.46608e-07
1.46608e-07
1.46608e-07
1.46608e-07
1.46608e-07
1.46608e-07
1.46608e-07
1.46608e-07
1.46608e-07
1.46608e-07
1.46608e-07
1.46608e-07
1.46608e-07
1.46608e-07
1.46608e-07
1.46608e-07
1.46608e-07
1.46608e-07
1.46608e-07
1.46608e-07
1.46608e-07
1.46608e-07
1.46608e-07
1.46608e-07
1.46608e-07
1.46608e-07
1.46608e-07
1.46608e-07
1.46608e-07
1.46608e-07
1.46608e-07
1.46608e-07
1.46608e-07
1.46608e-07
1.46608e-07
1.46608e-07
1.46608e-07
1.46608e-07
1.46608e-07
1.46608e-07
1.46608e-07
1.46608e-07
1.46608e-07
1.46608e-07
1.46608e-07
1.46608e-07
1.46608e-07
1.46608e-07
1.46608e-07
1.46608e-07
1.46608e-07
1.46608e-07
1.46608e-07
1.46608e-07
1.46608e-07
1.46608e-07
1.46608e-07
1.46608e-07
1.46608e-07
1.46608e-07
1.46608e-07
1.46608e-07
1.46608e-07
1.46608e-07
1.46608e-07
1.46608e-07
1.46608e-07
1.46608e-07
1.46608e-07
1.46608e-07
1.46608e-07
1.46608e-07
1.46608e-07
1.46608e-07
1.46608e-07
1.46608e-07
1.46608e-07
1.46608e-07
1.46608e-07
1.46608e-07
1.46608e-07
1.46608e-07
1.46608e-07
1.46608e-07
1.46608e-07
1.46608e-07
1.46608e-07
1.46608e-07
1.46608e-07
1.46608e-07

VECTORS velocity float
0.000701444 -0.00734487 -0.0179642
-0.000169192 -0.0140229 -0.0174485
0.00543387 0.0018822 -0.00436015
-9.84478e-15 -1.33743e-14 -1.90504e-13
3.64649e-15 5.41282e-16 -3.69008e-14
1.76444e-14 2.84442e-15 -2.87664e-13
0.000217148 -0.000186236 0.0212563
-9.6879e-317 9.73506e-317 2.68131e-13
5.35871e-05 0.0103374 0.0197551
0.00403121 -0.00479908 0.00324969
-2.62488e-16 -9.40991e-15 -2.80859e-14
9.71467e-317 9.75789e-317 -8.23806e-13
0.000399673 -0.00627285 -0.0188613
-0.0011318 0.011343 0.027528
0.00296881 -0.00588953 0.0100433
0.000268969 -0.0211198 -0.00239325
-0.000341569 -0.0175447 -0.00655088
0.00121211 0.0191025 0.00262599
0.00704053 0.00143443 -0.002377
-9.68849e-317 -9.75601e-317 2.88878e-12
-1.27197e-15 3.67109e-14 1.26766e-13
2.62519e-15 1.02252e-14 2.12821e-14
0.000230446 0.0069341 -0.0186403
0.000213714 -0.0175346 0.0135197
-0.000128997 0.000220041 -0.000365728
0.000161248 -0.0104168 -0.0199641
0.000825934 -0.00195431 -0.0172159
0.00019115 0.0154026 -0.0149124
6.36078e-16 6.72262e-15 2.00025e-14
0.00384292 -0.00176916 -0.00114813
0.000117055 0.00681118 0.0203812
-1.30049e-14 -1.76677e-14 -2.51655e-13
6.61063e-05 -0.0223363 -0.00250598
0.000594781 -0.00844493 -0.00305305
0.000679256 -0.0189998 0.0031104
0.0020179 0.0163163 -0.00445863
7.53844e-05 0.0102943 0.0192757
0.000751324 -0.0170263 0.00778645
4.01365e-05 0.000187225 -0.000117164
-9.38044e-05 0.0153452 0.0158061
-2.24907e-05 0.000363756 -0.000841078
-2.37783e-14 5.08902e-14 1.84346e-13
0.000803846 -0.0190793 0.00361719
0.000612788 -0.00683405 -0.0178374
1.0374e-14 -2.15395e-14 -2.65e-13
1.16758e-14 4.02546e-14 1.70228e-13
0.000685814 0.00106345 -0.000757015
2.65346e-05 0.00411398 0.021328
-9.67556e-317 -9.75879e-317 -3.22607e-12
-1.74583e-05 0.00902891 -0.0204984
0.000169902 -0.00371645 0.0183612
6.83577e-08 0.00119545 -0.00107798
0.00167395 0.0169864 -0.00101066
2.37032e-15 1.33774e-14 9.20543e-14
0.000918241 -0.00796277 0.00704791
0.00096137 0.0113947 -0.0149127
0.000673362 -0.00898201 0.0179735
0.00098105 0.00884941 0.0149986
0.00196925 -0.00632016 -0.00380047
8.16271e-15 -1.68346e-14 -2.07263e-13
-0.00187717 0.00380935 0.0283567
-0.00011458 0.0103502 -0.0171847
5.51698e-15 -2.47743e-15 5.04898e-14
0.000733347 0.00197417 -0.019746
9.74157e-317 -9.69799e-317 9.23294e-13
-3.8561e-20 -1.34215e-22 -1.30474e-21
0.00385043 -0.000380716 0.00624721
0.000289316 0.0147135 -0.0155218
1.15504e-14 3.23714e-14 -1.39058e-13
0.000577726 -0.00473251 -0.019419
3.92908e-15 7.51345e-15 2.61625e-13
0.00231999 -0.0120017 0.00823881
0.00209622 0.0118114 0.00531969
0.00191848 0.0048012 -0.0043564
0.000142067 0.0117695 -0.0192025
-0.00138082 -0.00114098 1.12435e-05
0.00372714 -0.000190782 -0.00363165
0.000707148 0.00293354 0.0144687
0.00020192 0.0195748 0.0102638
6.08171e-15 -2.89759e-14 1.43227e-13
1.4303e-14 2.3043e-15 -2.33189e-13
0.000767557 -0.0126098 0.0116663
0.000735435 0.0169642 -0.00778958
5.78766e-05 0.0197214 -0.0110057
0.000992217 -0.013649 -0.0128845
9.58743e-317 9.68145e-317 4.97437e-14
-0.000749243 -0.0199606 -0.0125085
0.00103083 0.0160708 -0.00283781
0.000307066 0.0032573 -0.0187715
0.000543919 0.0143574 0.0140658
9.81321e-15 1.33397e-14 1.8999e-13
-1.31257e-14 1.89511e-14 2.53775e-13
0.00129787 -0.0155313 -0.00806021
0.000145568 -0.0210507 -0.00395573
0.00319371 -0.00789863 0.00702428
7.71376e-16 -1.26237e-15 -6.97559e-15
0.002544 0.00104087 0.00374897
0.00195354 0.0104989 0.0126424
0.00182791 -0.00372517 -0.00771269
0.00025532 -0.0186442 0.00869892
-0.00117695 0.0188216 0.0215992
0.00101395 -0.00307042 -0.0188834
0.000333881 0.020998 -0.00233395
-9.68799e-317 -9.69932e-317 9.23294e-13
-6.88335e-15 2.32704e-14 -1.07319e-13
0.00182045 -0.000112556 0.0158668
0.00236268 -0.0206536 -0.00173549
-2.078e-14 -3.35551e-15 3.38791e-13
0.00259979 0.00131376 0.00162014

VECTORS force float
-3.26641e-09 -1.47785e-08 -6.98866e-09
-1.79378e-10 -8.73684e-09 4.79764e-09
-6.13986e-09 2.88396e-09 1.50122e-08
-6.2204e-22 -2.51463e-22 0.0
1.03232e-21 1.8198e-21 2.11758e-22
4.36751e-22 1.39794e-21 0.0
-1.03857e-09 9.63874e-09 1.19392e-09
0.0 0.0 0.0
-1.24168e-09 1.15712e-08 -3.01266e-10
-4.02689e-06 1.98184e-06 2.04245e-06
-8.90569e-19 1.03709e-19 -7.6233e-21
0.0 0.0 0.0
-1.98903e-09 -1.14349e-08 -1.05567e-08
4.06279e-11 -4.80166e-08 1.20228e-07
1.14068e-08 1.59311e-08 -5.96066e-08
4.91041e-10 -2.40271e-09 8.86385e-09
1.40171e-08 6.89479e-08 6.67488e-08
1.9359e-08 -6.50841e-08 -1.56094e-08
-1.67656e-07 -1.75854e-08 2.49414e-08
0.0 0.0 0.0
-8.48522e-21 -1.16467e-21 2.11758e-22
4.57927e-21 3.70577e-21 -1.90582e-21
-2.32671e-09 -4.44908e-09 -1.6414e-08
-2.42086e-09 5.21016e-10 1.50154e-08
9.99358e-09 -1.54944e-08 2.45258e-08
-2.94948e-08 -7.00183e-08 -1.14315e-07
-7.62121e-09 -2.05486e-08 -2.23477e-08
-1.26043e-09 -3.64e-09 -1.11001e-08
-4.36751e-21 -2.64698e-22 0.0
-8.79999e-07 -1.85455e-07 9.83053e-08
-6.44997e-10 1.17983e-08 5.35241e-10
1.08526e-21 3.97047e-23 0.0
-7.90983e-10 -3.00157e-09 1.11839e-08
-1.85027e-07 5.05705e-07 2.93536e-07
-6.74026e-09 -1.01458e-08 1.45128e-08
-8.43114e-09 1.98184e-08 -1.21154e-08
-3.58844e-10 1.1979e-08 -1.92109e-09
-8.59221e-07 1.09229e-06 2.81281e-07
1.74627e-09 8.99645e-09 -5.18994e-09
-7.65503e-10 9.69454e-09 -6.07491e-09
4.61269e-09 -1.29675e-08 3.18471e-08
-6.73391e-20 1.52784e-19 -5.06102e-20
-7.12204e-09 -1.50188e-08 1.17164e-08
-5.30398e-09 -1.47003e-08 -1.15405e-08
-6.15422e-22 -1.25731e-21 2.11758e-22
1.15157e-19 7.94623e-20 -2.73168e-20
8.84767e-06 -3.44657e-07 -1.19467e-06
1.29826e-11 1.21409e-08 1.32496e-09
0.0 0.0 0.0
-6.39742e-10 -8.98436e-09 -8.64456e-09
7.15679e-09 3.05283e-08 -9.92032e-08
2.20965e-08 1.43557e-07 -3.71066e-07
-1.02922e-08 2.82386e-08 -1.35554e-08
1.61664e-20 -3.28225e-21 0.0
1.88334e-06 7.85556e-07 -7.78578e-06
1.0429e-06 -2.93922e-06 9.03392e-08
-4.07273e-09 5.10005e-09 1.65137e-08
-4.40568e-10 5.64556e-10 -9.90337e-09
-1.35861e-05 4.00061e-05 -2.16979e-05
3.23461e-20 1.27187e-20 2.11758e-22
5.15717e-08 -9.27386e-08 -1.16935e-07
2.53057e-09 4.05961e-07 -6.73962e-07
4.49986e-21 2.25523e-20 6.35275e-22
-2.11553e-09 -5.06848e-09 -1.31801e-08
0.0 0.0 0.0
0.0 0.0 0.0
1.04342e-06 7.65941e-08 -8.51424e-07
-3.13075e-09 -2.12855e-09 -1.27587e-08
1.36319e-20 -4.23516e-21 0.0
-5.91728e-09 -1.02677e-08 -1.16577e-08
-5.20462e-20 1.99053e-20 2.11758e-22
9.77e-07 -2.22822e-06 6.68746e-07
-3.25623e-08 7.83496e-08 3.93458e-08
-4.61342e-07 -3.90823e-09 1.49382e-07
6.64006e-10 -1.04145e-08 -2.64908e-09
-3.38625e-07 8.52129e-07 7.80314e-09
-7.29812e-05 -1.60889e-05 -2.12394e-05
-3.89489e-09 5.51819e-09 -2.81954e-08
1.12118e-06 2.34747e-06 3.6167e-07
-6.57006e-19 2.69462e-20 3.26108e-20
3.17637e-22 -1.63451e-21 0.0
2.17975e-08 4.50585e-08 2.21624e-08
-6.18392e-09 4.90735e-09 -2.53408e-08
3.24699e-10 -1.36843e-09 -1.37172e-08
-6.7376e-09 -2.47494e-08 -4.77732e-09
0.0 0.0 0.0
-2.26099e-08 -1.63103e-08 -3.98339e-08
-4.84768e-09 2.24188e-08 -1.74968e-08
-8.58793e-09 -2.47513e-08 1.23435e-08
-3.3043e-09 1.57882e-08 7.74693e-10
-3.59857e-20 2.94344e-20 -2.11758e-22
-5.07558e-20 -5.19469e-20 8.47033e-22
-1.2841e-08 -2.91193e-08 -7.51213e-09
-5.323e-10 -9.86577e-09 9.32627e-09
-1.38205e-06 3.29883e-06 -6.14648e-06
-9.23795e-21 -5.29396e-23 -1.05879e-21
7.65831e-09 -3.67482e-08 -1.3732e-08
-1.1983e-08 -8.73434e-09 -3.15271e-08
6.40693e-07 1.26666e-07 -3.73239e-08
-1.91464e-09 -4.2057e-09 1.3336e-08
9.34332e-10 9.93964e-07 4.80733e-07
1.0251e-08 3.06593e-08 9.10321e-08
8.78385e-11 3.56209e-09 -1.09993e-08
0.0 0.0 0.0
-5.62218e-20 -4.07635e-21 2.32934e-21
1.95474e-09 -1.38656e-08 -5.78367e-08
9.46102e-08 -2.50071e-07 5.53751e-08
1.32349e-21 1.52233e-19 1.69407e-21
-2.51325e-06 -3.26749e-07 1.01648e-06
