# vtk DataFile Version 3.0
LIGGGHTS particles timestep 19000000
ASCII
DATASET POLYDATA
POINTS 109 float
0.0196484 0.022449 0.00893373
0.0188976 0.0222484 0.00877636
0.0207162 0.023481 0.0118095
0.0552425 0.0189586 0.00589144
0.00938048 0.0183393 0.00587271
0.0260148 0.0196703 0.00594114
0.0383988 0.021674 0.0146968
0.0366849 0.0218066 0.0435188
0.0433721 0.0233375 0.010805
0.0359846 0.0189328 0.00729695
0.0338436 0.0175423 0.00617057
0.000591717 0.0149731 0.0435188
0.041191 0.0157657 0.00889961
0.0216862 0.0237352 0.0133888
0.0268079 0.0199717 0.0157366
0.0395304 0.0168439 0.0151657
0.0214481 0.0233904 0.0124808
0.0310881 0.0229442 0.00956362
0.0197223 0.0234553 0.0116931
0.003617 0.0285782 0.0435188
0.042904 0.022441 0.00879225
0.0177449 0.0174882 0.00600758
0.041713 0.0177709 0.0073997
0.0164088 0.0153826 0.0142729
0.0185422 0.0213674 0.00783153
0.0406511 0.0148097 0.0110448
0.0413836 0.0162344 0.00823784
0.0419587 0.0187168 0.00717021
0.033606 0.0194093 0.00581187
0.0321168 0.0225461 0.0139888
0.0258806 0.0229876 0.0132196
0.054387 0.0178804 0.00601135
0.0332177 0.0182096 0.0157045
0.0398682 0.0158302 0.0142579
0.0393295 0.0175865 0.015487
0.0423587 0.0206375 0.00747577
0.0317404 0.0232709 0.0124186
0.0388111 0.0199603 0.0156609
0.0191165 0.0152032 0.0135696
0.0367858 0.0220093 0.00834815
0.0201141 0.0238753 0.0125373
0.0214483 0.0168437 0.00645098
0.0277214 0.0162247 0.0146752
0.0342653 0.0149186 0.0125855
0.0586827 0.0172628 0.00598816
0.0440891 0.0226519 0.0139137
0.0173027 0.0146384 0.0120326
0.0435669 0.0233812 0.0116007
0.0303903 0.00406748 0.0435188
0.0297032 0.0177109 0.00740438
0.0431598 0.0209761 0.00766318
0.0227513 0.0235172 0.0142622
0.0426585 0.0216954 0.00810703
0.0465254 0.0191962 0.00590655
0.0324214 0.0215742 0.0149215
0.0299751 0.0187295 0.00718942
0.0445045 0.0214398 0.0151158
0.0370105 0.0226988 0.00935109
0.0337482 0.0161903 0.0147242
0.0584376 0.0191695 0.00582359
0.0205398 0.0140559 0.0131794
0.0172253 0.0240408 0.0131405
0.020084 0.0201843 0.0061153
0.0415068 0.0167615 0.00785336
0.0221348 0.00230077 0.0435188
0.201805 0.0186174 0.00570934
0.0354117 0.0164354 0.00808932
0.0227626 0.0194343 0.0159249
0.0801305 0.0198856 0.00588445
0.0222247 0.0149283 0.0132028
0.067984 0.0193424 0.00575613
0.0386585 0.0204686 0.0155945
0.0365478 0.0213741 0.0079042
0.0349469 0.015195 0.00951775
0.0241333 0.0194277 0.00719605
0.0245476 0.0198163 0.00585259
0.0340097 0.0154125 0.0137346
0.0372708 0.0232202 0.0104247
0.0229798 0.0155128 0.0141918
0.036805 0.0202346 0.00608327
0.026935 0.0188837 0.00598981
0.0273116 0.0176133 0.0155156
0.04219 0.019663 0.00723758
0.0304184 0.0208868 0.00760791
0.0402634 0.014955 0.0125784
0.0221996 0.00109062 0.0435188
0.0400998 0.0151788 0.0133484
0.0306785 0.0217639 0.00809541
0.0293208 0.0160748 0.00842354
0.0431498 0.0230333 0.00992245
0.0557897 0.0172859 0.0059806
0.0895649 0.0187731 0.00575225
0.0284821 0.0147788 0.0116976
0.0280837 0.0151831 0.0132638
0.0385389 0.0211033 0.0151564
0.108836 0.0200055 0.00584234
0.0169018 0.015242 0.015238
0.0313732 0.0233337 0.0108009
0.0289559 0.0152411 0.00964155
0.0329578 0.0193979 0.0158034
0.0195656 0.0140067 0.0129594
0.0291385 0.0155593 0.00893739
0.0219799 0.0155025 0.0141807
0.00937694 0.00505359 0.0435188
0.0231001 0.0184906 0.0159074
0.0265015 0.0213268 0.0150638
0.0233449 0.0160881 0.00835743
0.0254808 0.018723 0.00589902
0.0356778 0.0176406 0.00741597

VERTICES 109 218
1 0
1 1
1 2
1 3
1 4
1 5
1 6
1 7
1 8
1 9
1 10
1 11
1 12
1 13
1 14
1 15
1 16
1 17
1 18
1 19
1 20
1 21
1 22
1 23
1 24
1 25
1 26
1 27
1 28
1 29
1 30
1 31
1 32
1 33
1 34
1 35
1 36
1 37
1 38
1 39
1 40
1 41
1 42
1 43
1 44
1 45
1 46
1 47
1 48
1 49
1 50
1 51
1 52
1 53
1 54
1 55
1 56
1 57
1 58
1 59
1 60
1 61
1 62
1 63
1 64
1 65
1 66
1 67
1 68
1 69
1 70
1 71
1 72
1 73
1 74
1 75
1 76
1 77
1 78
1 79
1 80
1 81
1 82
1 83
1 84
1 85
1 86
1 87
1 88
1 89
1 90
1 91
1 92
1 93
1 94
1 95
1 96
1 97
1 98
1 99
1 100
1 101
1 102
1 103
1 104
1 105
1 106
1 107
1 108

POINT_DATA 109
SCALARS id int 1
LOOKUP_TABLE default
1
2
4
5
15
16
17
18
20
24
25
27
28
32
33
37
41
44
47
49
52
57
59
62
63
65
67
68
73
74
76
79
84
87
88
89
90
92
97
103
106
108
109
112
121
122
124
125
128
130
131
133
135
137
139
141
142
143
147
149
150
157
158
160
161
165
166
167
173
174
179
185
186
187
191
193
194
197
200
205
215
225
226
227
229
232
237
241
242
247
252
253
256
257
258
260
268
269
270
271
274
275
277
284
288
291
294
299
300

SCALARS type int 1
LOOKUP_TABLE default
1
1
1
1
1
1
1
1
1
1
1
1
1
1
1
1
1
1
1
1
1
1
1
1
1
1
1
1
1
1
1
1
1
1
1
1
1
1
1
1
1
1
1
1
1
1
1
1
1
1
1
1
1
1
1
1
1
1
1
1
1
1
1
1
1
1
1
1
1
1
1
1
1
1
1
1
1
1
1
1
1
1
1
1
1
1
1
1
1
1
1
1
1
1
1
1
1
1
1
1
1
1
1
1
1
1
1
1
1

SCALARS radius float 1
LOOKUP_TABLE default
0.0005
0.0005
0.0005
0.0005
0.0005
0.0005
0.0005
0.0005
0.0005
0.0005
0.0005
0.0005
0.0005
0.0005
0.0005
0.0005
0.0005
0.0005
0.0005
0.0005
0.0005
0.0005
0.0005
0.0005
0.0005
0.0005
0.0005
0.0005
0.0005
0.0005
0.0005
0.0005
0.0005
0.0005
0.0005
0.0005
0.0005
0.0005
0.0005
0.0005
0.0005
0.0005
0.0005
0.0005
0.0005
0.0005
0.0005
0.0005
0.0005
0.0005
0.0005
0.0005
0.0005
0.0005
0.0005
0.0005
0.0005
0.0005
0.0005
0.0005
0.0005
0.0005
0.0005
0.0005
0.0005
0.0005
0.0005
0.0005
0.0005
0.0005
0.0005
0.0005
0.0005
0.0005
0.0005
0.0005
0.0005
0.0005
0.0005
0.0005
0.0005
0.0005
0.0005
0.0005
0.0005
0.0005
0.0005
0.0005
0.0005
0.0005
0.0005
0.0005
0.0005
0.0005
0.0005
0.0005
0.0005
0.0005
0.0005
0.0005
0.0005
0.0005
0.0005
0.0005
0.0005
0.0005
0.0005
0.0005
0.0005

SCALARS mass float 1
LOOKUP_TABLE default
1.46608e-07
1.46608e-07
1.46608e-07
1.46608e-07
1.46608e-07
1.46608e-07
1.46608e-07
1.46608e-07
1.46608e-07
1.46608e-07
1.46608e-07
1.46608e-07
1.46608e-07
1.46608e-07
1.46608e-07
1.46608e-07
1.46608e-07
1.46608e-07
1.46608e-07
1.46608e-07
1.46608e-07
1.46608e-07
1.46608e-07
1.46608e-07
1.46608e-07
1.46608e-07
1.46608e-07
1.46608e-07
1.46608e-07
1.46608e-07
1.46608e-07
1.46608e-07
1.46608e-07
1.46608e-07
1.46608e-07
1.46608e-07
1.46608e-07
1.46608e-07
1.46608e-07
1.46608e-07
1.46608e-07
1.46608e-07
1.46608e-07
1.46608e-07
1.46608e-07
1.46608e-07
1.46608e-07
1.46608e-07
1.46608e-07
1.46608e-07
1.46608e-07
1.46608e-07
1.46608e-07
1.46608e-07
1.46608e-07
1.46608e-07
1.46608e-07
1.46608e-07
1.46608e-07
1.46608e-07
1.46608e-07
1.46608e-07
1.46608e-07
1.46608e-07
1.46608e-07
1.46608e-07
1.46608e-07
1.46608e-07
1.46608e-07
1.46608e-07
1.46608e-07
1.46608e-07
1.46608e-07
1.46608e-07
1.46608e-07
1.46608e-07
1.46608e-07
1.46608e-07
1.46608e-07
1.46608e-07
1.46608e-07
1.46608e-07
1.46608e-07
1.46608e-07
1.46608e-07
1.46608e-07
1.46608e-07
1.46608e-07
1.46608e-07
1.46608e-07
1.46608e-07
1.46608e-07
1.46608e-07
1.46608e-07
1.46608e-07
1.46608e-07
1.46608e-07
1.46608e-07
1.46608e-07
1.46608e-07
1.46608e-07
1.46608e-07
1.46608e-07
1.46608e-07
1.46608e-07
1.46608e-07
1.46608e-07
1.46608e-07
1.46608e-07

VECTORS velocity float
-3.96815e-05 -0.0123223 -0.0182157
-0.000270854 -0.0133128 -0.0178081
0.000772874 -0.00034965 0.000853202
-9.84472e-15 -1.33744e-14 -1.90504e-13
3.64576e-15 5.25777e-16 -3.69011e-14
1.76445e-14 2.83264e-15 -2.87664e-13
0.00703353 0.000377622 0.0125357
-9.6879e-317 9.73506e-317 2.68131e-13
0.00026128 -0.00425154 -0.0189113
5.48821e-07 -0.0226797 -0.00118945
-2.40524e-16 -1.88845e-15 -5.62986e-15
9.71467e-317 9.75789e-317 -8.23806e-13
-0.000766908 -0.0124476 0.0173281
-0.000385195 0.000316025 -0.000108057
0.000557903 0.0161389 -0.00339719
0.000264712 0.0102067 0.00587759
-0.0014836 -0.000426942 0.00115071
9.69355e-05 -0.00824033 -0.0164332
0.000982404 0.000702406 -0.00050551
-9.68849e-317 -9.75601e-317 2.88878e-12
0.00064317 -0.0101562 -0.0144203
2.62532e-15 1.02257e-14 2.12819e-14
0.000198824 -0.0198921 0.00630716
0.0371666 0.100469 0.0749764
7.32168e-05 -0.0151788 -0.0100087
0.000333795 -0.00151636 0.0202213
0.00176145 -0.00990241 0.0126308
0.000553748 -0.0185384 0.000722984
-7.05066e-15 -4.0684e-14 1.57632e-13
0.00133355 0.010694 -0.0160891
0.000776525 0.011544 -0.0201944
-1.30046e-14 -1.76679e-14 -2.51655e-13
6.05051e-05 0.0214885 0.00528752
0.00019181 0.013787 0.0164382
0.000940318 0.0172231 0.00573715
0.000398822 -0.0183515 -0.00832345
0.00030381 0.00204152 -0.00997078
0.00317104 0.0122903 -0.000694971
6.708e-05 0.0106492 0.0197327
0.00317086 -0.00797744 -0.00973141
0.0297176 0.0169817 0.0373617
-2.39335e-14 5.08553e-14 1.84335e-13
0.000913302 0.014608 0.012062
0.000749207 0.00543875 0.0180055
1.03742e-14 -2.15393e-14 -2.65e-13
0.00069723 0.0102856 -0.010743
0.000215883 0.000129071 -0.000487776
0.00115812 0.00181151 -0.020152
-9.67556e-317 -9.75879e-317 -3.22607e-12
-0.00279676 -0.0265812 0.00954476
0.000375992 -0.0187342 -0.00911227
-0.00351717 0.00297772 0.00108753
0.00132236 -0.0143293 -0.0103019
2.39951e-15 1.33712e-14 9.20545e-14
4.75231e-05 0.0192606 -0.012354
0.000630678 -0.0129807 0.00057408
0.000961439 0.0147422 -0.0101679
0.00105268 -0.012566 -0.0177495
0.000465466 0.0155957 0.0141875
8.13757e-15 -1.68373e-14 -2.07264e-13
-0.000461284 -0.00114028 0.00238774
0.00014344 0.00102501 -0.000290218
5.52017e-15 -2.44642e-15 5.04909e-14
0.00202211 -0.00514967 -0.00100624
9.74157e-317 -9.69799e-317 9.23294e-13
-3.8561e-20 1.12962e-21 -1.30474e-21
0.000205863 -0.0142453 0.0107351
9.03758e-11 0.0204268 -0.00173136
-9.52813e-15 -2.67154e-14 1.14756e-13
0.00459673 0.00184627 0.00196288
3.91062e-15 7.52773e-15 2.61625e-13
0.00258795 0.00995052 -0.00408076
0.00256507 -0.0120921 -0.00685001
0.000345764 -0.0111646 0.0189907
-0.333806 0.477386 -0.154435
2.60726e-15 4.25729e-16 -4.25291e-14
5.83069e-05 0.0112035 0.0195218
0.00307496 -0.00440891 -0.0107452
0.017269 -0.0550058 -0.0657608
3.19025e-15 -9.7313e-15 4.51397e-14
1.43031e-14 2.30422e-15 -2.33189e-13
8.6512e-05 0.0208276 0.00914006
0.000144016 -0.0211369 -0.00295441
0.00153291 -0.0130396 -0.00466075
0.00112632 0.00311093 0.0148265
9.58743e-317 9.68145e-317 4.97437e-14
0.00230265 0.00634777 0.0113115
0.00013352 -0.0165724 -0.0144262
0.00279074 -0.00462807 0.00453187
0.000228439 -0.00766606 -0.0195541
9.81453e-15 1.33428e-14 1.8999e-13
-1.31279e-14 1.89498e-14 2.53775e-13
0.000875641 0.00190532 0.0180619
-0.000172249 0.00757842 0.018736
0.00210685 0.00899641 -0.00504907
7.67149e-16 -1.26043e-15 -6.97641e-15
-0.131012 0.276732 0.0552285
0.000344294 -0.00155606 -0.0166174
0.000944222 -0.00588015 0.0164406
0.00272282 0.0134437 -0.00293314
-0.000440238 -0.00141917 0.00235662
0.00216811 -0.00666711 0.00537145
0.0168773 -0.0383432 -0.0453107
-9.68799e-317 -9.69932e-317 9.23294e-13
1.03966e-10 0.0203348 0.0026627
0.00115416 0.00790981 -0.00495055
0.0015768 -0.010052 0.0100308
-2.07854e-14 -3.32716e-15 3.38791e-13
0.00103465 -0.0175452 0.00674653

VECTORS force float
-3.49273e-10 -9.56903e-09 3.39402e-09
-3.55049e-11 -1.20136e-08 4.34426e-09
4.20412e-06 6.2325e-07 1.66295e-07
-9.26442e-23 -5.02926e-22 0.0
5.82335e-22 1.86248e-20 4.23516e-22
2.51463e-22 2.58577e-21 0.0
3.70884e-07 -7.46202e-07 1.40069e-06
0.0 0.0 0.0
9.05151e-09 -2.54115e-08 -5.02098e-08
-1.13547e-09 -1.90286e-09 1.0863e-08
1.04628e-19 1.90582e-21 -1.90582e-21
0.0 0.0 0.0
7.68426e-07 3.40769e-06 -5.10465e-06
5.46529e-08 -5.07259e-07 1.3707e-06
-2.88595e-09 2.40876e-08 -3.45517e-08
-1.15642e-07 -6.84454e-07 -1.51821e-07
-1.41431e-05 3.67866e-06 -3.61069e-06
3.85908e-09 -3.92016e-08 -3.20962e-08
1.31468e-05 1.80796e-07 5.56557e-07
0.0 0.0 0.0
4.31911e-07 6.79589e-08 6.37678e-07
-4.02341e-21 -1.05879e-22 2.11758e-22
-1.52425e-09 -3.02654e-09 1.20926e-08
0.0 0.0 -1.43822e-06
7.69765e-09 -1.91626e-07 2.21616e-08
-1.04821e-09 9.90389e-09 9.89715e-09
1.47281e-05 2.40094e-05 -1.14544e-07
3.92464e-08 8.91627e-07 -1.71562e-07
-1.55378e-20 1.24937e-20 1.90582e-21
-1.58265e-08 1.17616e-08 -2.55172e-08
4.66289e-09 -5.23817e-09 -9.95314e-09
-4.23516e-22 -1.85288e-22 0.0
-4.43398e-10 6.21895e-09 -1.02643e-08
-1.1718e-09 1.29985e-08 -1.83393e-09
-1.12237e-06 -2.72373e-07 1.821e-08
-7.69653e-09 -2.08753e-08 8.97523e-09
1.16096e-07 3.96487e-08 1.445e-06
-5.64186e-08 -5.21343e-08 7.98546e-08
4.56685e-10 1.41499e-08 -9.49893e-09
-7.57938e-05 1.94088e-05 2.60601e-06
0.0 0.0 -1.43822e-06
-8.60797e-20 6.2151e-20 -2.77403e-20
-7.93193e-09 2.21569e-08 5.41243e-09
-5.60992e-09 1.42767e-08 1.04742e-08
-2.5411e-21 8.47033e-22 -2.11758e-22
7.69948e-09 -5.37705e-08 2.99141e-08
-1.85973e-08 -1.25508e-08 4.45725e-08
6.24011e-09 -1.4199e-08 7.07405e-08
0.0 0.0 0.0
-4.46692e-08 -1.35698e-07 -3.35147e-08
-2.33321e-08 -7.22977e-08 -2.54026e-08
-1.55027e-08 1.66656e-08 1.07695e-08
3.09195e-08 7.18998e-08 7.95237e-08
1.37643e-21 1.4029e-21 0.0
1.36262e-10 -5.94427e-09 -8.32706e-09
1.61393e-07 9.44561e-07 -1.27167e-07
-8.05635e-09 1.4918e-08 -3.02766e-08
1.47463e-08 -5.53131e-08 -6.9234e-08
3.8862e-07 -9.53901e-07 -7.47216e-07
8.86738e-22 4.63221e-21 -4.23516e-22
-3.88999e-09 -1.0442e-08 2.20181e-08
-1.23951e-09 -4.17451e-08 5.49871e-08
6.35275e-22 -1.77864e-19 -8.68209e-21
1.14428e-05 -2.50363e-05 1.55633e-05
0.0 0.0 0.0
0.0 0.0 0.0
4.1617e-09 6.22228e-09 3.0036e-08
3.20324e-16 -1.1204e-09 -1.3594e-08
1.32349e-23 1.58819e-22 0.0
2.37698e-08 7.41245e-08 -1.22589e-07
-6.04901e-20 2.91962e-20 0.0
-5.92224e-08 -1.157e-07 5.3254e-08
-7.68926e-06 7.16055e-06 5.49942e-06
4.33041e-09 8.93834e-09 4.3247e-09
0.019106 -0.0136545 -0.0171821
8.20563e-22 -4.66364e-21 0.0
-1.15033e-09 1.23178e-08 -9.77683e-10
-6.01083e-09 -1.49021e-09 -1.49506e-08
3.07346e-08 -3.84271e-07 -2.14401e-07
-1.16798e-19 -9.60324e-20 -8.47033e-21
9.26442e-23 1.52532e-21 0.0
-1.08878e-09 1.05452e-08 -9.15254e-09
-1.32861e-08 -6.84496e-07 7.38151e-08
3.63169e-09 -9.77974e-08 -1.39422e-08
-4.32676e-08 -9.12023e-09 -9.12039e-09
0.0 0.0 0.0
1.62978e-08 -1.13193e-08 -6.7174e-08
-9.94243e-10 -1.14225e-08 5.24038e-09
3.86165e-08 4.53186e-08 -1.08013e-07
-4.21947e-09 1.94879e-08 4.37425e-08
8.40416e-21 -8.03358e-21 0.0
4.68647e-20 -1.86612e-21 2.5411e-21
-4.20128e-09 1.25333e-08 1.7885e-08
-6.43186e-09 2.84707e-09 -2.50617e-08
4.18089e-08 -3.49905e-07 3.52777e-07
2.64698e-23 -2.38228e-21 6.35275e-22
0.0 0.0 -1.43822e-06
-5.82983e-06 6.40576e-07 -1.88089e-05
-1.46981e-08 -6.4358e-09 2.34689e-08
-9.46623e-09 8.38171e-09 -1.15174e-08
-3.27083e-09 -1.183e-08 1.96413e-08
-2.10865e-09 2.53459e-08 -4.52592e-08
7.83629e-08 -2.35705e-07 -1.41017e-07
0.0 0.0 0.0
3.04872e-16 1.83848e-09 -1.35231e-08
-3.77555e-09 1.0249e-08 1.04638e-08
6.20898e-09 4.70179e-08 -1.31704e-08
-1.81318e-21 -2.48882e-20 -2.11758e-22
-7.49086e-09 -1.23668e-08 1.48263e-08
