# vtk DataFile Version 3.0
LIGGGHTS particles timestep 4000000
ASCII
DATASET POLYDATA
POINTS 259 float
0.0133115 0.0211045 0.0154413
0.0170009 0.0230952 0.0148886
0.0259299 0.0190124 0.0168848
0.0202902 0.023099 0.0148212
0.0256628 0.0205578 0.0156361
0.0257468 0.0187031 0.0159461
0.0231388 0.022583 0.0153654
0.0221076 0.0207148 0.0196139
0.0181746 0.0143659 0.015101
0.0193596 0.0202801 0.0157692
0.0186909 0.0241814 0.0130865
0.018225 0.021356 0.016639
0.00938048 0.0183393 0.00587271
0.0214785 0.0192834 0.019483
0.0233156 0.0227865 0.0180528
0.0232578 0.0191559 0.0228944
0.0195409 0.0240491 0.0127373
0.0277297 0.0195673 0.00723523
0.0205567 0.0154164 0.0172352
0.0179314 0.024345 0.0137158
0.0251864 0.0216507 0.0165178
0.0150868 0.0222154 0.0156981
0.0214513 0.0172417 0.016424
0.0191325 0.0203147 0.016743
0.024718 0.0187806 0.0163141
0.0161937 0.014381 0.0138779
0.0203642 0.0212528 0.0175574
0.0194978 0.0244512 0.0136509
0.0169341 0.0154597 0.0153351
0.0165911 0.0222587 0.0156685
0.0170698 0.0141732 0.0134429
0.0250727 0.0170829 0.0154841
0.0200372 0.024019 0.0145256
0.022782 0.0232088 0.0103523
0.0193612 0.0148914 0.0164796
0.0213298 0.023968 0.0133139
0.0226801 0.0153268 0.0152036
0.0179328 0.0239469 0.0126329
0.0181512 0.0237761 0.0162736
0.0213912 0.0230168 0.0149648
0.0147081 0.015397 0.0140586
0.0190138 0.0174026 0.0168329
0.0217407 0.0241571 0.0141952
0.017408 0.0240897 0.0168646
0.023656 0.0151378 0.0150135
0.0132102 0.0131819 0.0290582
0.0207928 0.0235775 0.0155433
0.0192318 0.0236413 0.0141653
0.0243692 0.0199777 0.0160482
0.0257461 0.0150128 0.0129296
0.0206062 0.0243591 0.0138139
0.0220352 0.0224571 0.0155574
0.0245361 0.0223686 0.0161063
0.0229408 0.014713 0.0144584
0.0253559 0.0159342 0.0144666
0.0261739 0.0147477 0.0111257
0.0210095 0.0184458 0.016768
0.0130992 0.0155147 0.0256815
0.0211518 0.0142485 0.014275
0.0227201 0.0154591 0.016194
0.0204446 0.0240699 0.0129044
0.0196496 0.0218534 0.0159512
0.0152493 0.0159444 0.0147
0.021497 0.0187543 0.00719648
0.0181611 0.0161497 0.0158976
0.0201897 0.0142027 0.0129566
0.019043 0.0168698 0.0159853
0.0183216 0.0229846 0.0156868
0.0153548 0.0147135 0.0143968
0.0174182 0.0140029 0.0143702
0.0197313 0.0231096 0.0183956
0.0196413 0.0225124 0.0143358
0.0232329 0.0233364 0.012075
0.0265091 0.0151676 0.00962247
0.0271644 0.0171 0.00766059
0.0191112 0.0240144 0.0161275
0.0217103 0.0195946 0.00722981
0.0205806 0.0166435 0.0162164
0.0152912 0.0163195 0.0164352
0.0169229 0.021443 0.0171646
0.0237347 0.0159861 0.0177401
0.0173551 0.0238879 0.0143929
0.0208155 0.0150025 0.0148396
0.0199338 0.0171291 0.0155091
0.0247144 0.0173671 0.016418
0.0212284 0.0156981 0.015652
0.0225558 0.0236093 0.0141735
0.0210217 0.0146597 0.0122426
0.0249619 0.0203584 0.0157857
0.0217487 0.014625 0.0167058
0.0134903 0.0206285 0.0163023
0.0203993 0.0187271 0.00600944
0.0206606 0.0217382 0.0159978
0.0157638 0.015715 0.0157935
0.0177133 0.0177781 0.0176501
0.0205861 0.0150837 0.00976052
0.0196644 0.0221062 0.0169195
0.0154923 0.0173003 0.0164455
0.0192574 0.016444 0.0151044
0.0132935 0.018195 0.0158707
0.0200396 0.0146185 0.0120597
0.0150664 0.0221249 0.0166956
0.0237713 0.022556 0.0146068
0.0281963 0.0216605 0.00804594
0.0219534 0.0181294 0.0166738
0.0280142 0.020912 0.00762361
0.0173744 0.0208178 0.016494
0.0192981 0.0172727 0.0190095
0.0205847 0.0185225 0.0195336
0.0181426 0.020287 0.0168885
0.017533 0.0220185 0.0160572
0.0173527 0.01772 0.0166018
0.0199784 0.0230477 0.0170389
0.0252259 0.0197874 0.0168094
0.0231507 0.0234395 0.0149229
0.0274582 0.018557 0.00723478
0.020347 0.0200643 0.0158349
0.018799 0.0189629 0.0168979
0.0150399 0.0232019 0.0155729
0.0256732 0.0206727 0.0166293
0.0284389 0.0224075 0.00872889
0.0237897 0.0158629 0.0156924
0.0220668 0.0161689 0.0159264
0.0188752 0.0228401 0.0137823
0.0160758 0.0223183 0.0165263
0.0214343 0.0151855 0.0136921
0.019938 0.0218218 0.0149946
0.018645 0.023459 0.0116061
0.0206008 0.0188294 0.0159397
0.0164158 0.0231568 0.016071
0.0188076 0.013991 0.0129853
0.018258 0.0234868 0.014559
0.0145278 0.0215017 0.0161202
0.0164631 0.0237621 0.0168655
0.0201372 0.0209843 0.015504
0.0166179 0.0238618 0.0137162
0.0150764 0.0209577 0.0167764
0.0208158 0.0147932 0.0158177
0.0252876 0.0166141 0.0166251
0.018849 0.0182069 0.0158785
0.0258223 0.0154933 0.0344318
0.0162607 0.0179188 0.0166114
0.024782 0.0161318 0.0159091
0.0192497 0.0226982 0.0154469
0.0145653 0.0216687 0.0199999
0.0168573 0.016255 0.0159453
0.023762 0.0230854 0.0156117
0.0197442 0.0150044 0.013358
0.0161271 0.0134821 0.0277214
0.0219612 0.0207935 0.0076272
0.0195276 0.0155632 0.0142552
0.0192415 0.0232361 0.0129833
0.015629 0.0215056 0.016148
0.0234832 0.0177842 0.016609
0.0204783 0.0153285 0.0139561
0.0239698 0.0167151 0.0162494
0.0220923 0.0144484 0.0140002
0.0158596 0.0192939 0.0167536
0.0189174 0.0233942 0.0177414
0.0212901 0.017774 0.00744043
0.0218212 0.0149937 0.0147931
0.0219096 0.0192176 0.016757
0.0201737 0.0147538 0.0110783
0.019768 0.0149885 0.0152118
0.0203579 0.0175567 0.0166317
0.0224266 0.0224747 0.00905732
0.0219169 0.0149858 0.0157884
0.0229967 0.0224674 0.00895671
0.0224173 0.024436 0.0191621
0.0205651 0.0190258 0.0174514
0.0175607 0.0194828 0.0167649
0.0124807 0.0204501 0.0167323
0.0189859 0.0147705 0.014628
0.0212617 0.0163758 0.0168978
0.0196357 0.0193559 0.0172862
0.0215258 0.0234102 0.0162041
0.0207806 0.0177519 0.0157468
0.017325 0.0194656 0.0696958
0.0191213 0.0212359 0.0153683
0.0251493 0.017987 0.0158129
0.0212512 0.0143546 0.0131668
0.0256789 0.0176416 0.0166762
0.0172191 0.0236277 0.0157064
0.020274 0.024076 0.0163114
0.0239677 0.0216828 0.0158571
0.0218498 0.0193408 0.018153
0.0171565 0.0234311 0.0118172
0.0160152 0.0151529 0.0150056
0.0156679 0.0235059 0.014423
0.0177683 0.0234269 0.0114051
0.0267928 0.015917 0.00851579
0.0136477 0.0219245 0.0159043
0.0173389 0.0219091 0.0203575
0.0198397 0.0180747 0.0158487
0.0198572 0.0185243 0.0167746
0.0249277 0.021271 0.0156265
0.020043 0.0231386 0.0160449
0.0168515 0.0147973 0.0145885
0.0224989 0.0172735 0.0164556
0.0195608 0.0157774 0.015789
0.0235977 0.0231681 0.0102012
0.0222953 0.0169761 0.0178971
0.0172941 0.0228963 0.0164729
0.0201593 0.014273 0.0146325
0.0197257 0.0211194 0.0167375
0.020435 0.0156124 0.0162571
0.0191397 0.0217591 0.0202856
0.0255969 0.0196402 0.0158919
0.0149404 0.0216847 0.0248696
0.0206349 0.0155038 0.00907413
0.0209662 0.023543 0.014228
0.0126511 0.0200002 0.0158557
0.0196262 0.0191866 0.0159512
0.0141221 0.0226988 0.0154858
0.0175531 0.0231081 0.0135275
0.013342 0.0171045 0.0158255
0.0160484 0.0228801 0.0151037
0.0180216 0.022566 0.0142243
0.0208884 0.016672 0.0152655
0.0230177 0.0164436 0.0160814
0.0211934 0.0159201 0.0146765
0.0186264 0.0192244 0.0159483
0.0166541 0.0198999 0.0166907
0.0160388 0.0206651 0.0165022
0.0167835 0.0188526 0.0167504
0.0195668 0.0236379 0.0153212
0.0151235 0.0199657 0.0166595
0.0141526 0.015937 0.0146908
0.0201213 0.0200952 0.0168085
0.0196874 0.0163753 0.0165794
0.0235353 0.0223272 0.0162486
0.02223 0.0234389 0.0153136
0.0243992 0.0219711 0.0152248
0.0183649 0.0203842 0.0157384
0.0219021 0.0227397 0.0168449
0.0138683 0.0219784 0.0148405
0.0186951 0.0220367 0.0174739
0.017968 0.0222137 0.0151581
0.018053 0.0153617 0.0152681
0.0181979 0.0144711 0.0140901
0.0166257 0.0230383 0.0194942
0.0230251 0.0229617 0.00961193
0.0166276 0.0214187 0.0162095
0.0183266 0.0232027 0.0130812
0.00937694 0.00505359 0.0435188
0.0209435 0.0148108 0.0107646
0.0179033 0.0185427 0.0167494
0.0173746 0.0233039 0.0126271
0.018859 0.0148816 0.0156158
0.0242097 0.0208613 0.015868
0.0202743 0.0158388 0.0150625
0.0174784 0.0147236 0.0157805
0.0145369 0.016666 0.0152684
0.0204145 0.0137499 0.0138194
0.0188838 0.022026 0.0148037
0.0181666 0.021359 0.0156389
0.0146956 0.0230764 0.0147588
0.024947 0.0190645 0.00586966
0.0142556 0.0202541 0.0157789

VERTICES 259 518
1 0
1 1
1 2
1 3
1 4
1 5
1 6
1 7
1 8
1 9
1 10
1 11
1 12
1 13
1 14
1 15
1 16
1 17
1 18
1 19
1 20
1 21
1 22
1 23
1 24
1 25
1 26
1 27
1 28
1 29
1 30
1 31
1 32
1 33
1 34
1 35
1 36
1 37
1 38
1 39
1 40
1 41
1 42
1 43
1 44
1 45
1 46
1 47
1 48
1 49
1 50
1 51
1 52
1 53
1 54
1 55
1 56
1 57
1 58
1 59
1 60
1 61
1 62
1 63
1 64
1 65
1 66
1 67
1 68
1 69
1 70
1 71
1 72
1 73
1 74
1 75
1 76
1 77
1 78
1 79
1 80
1 81
1 82
1 83
1 84
1 85
1 86
1 87
1 88
1 89
1 90
1 91
1 92
1 93
1 94
1 95
1 96
1 97
1 98
1 99
1 100
1 101
1 102
1 103
1 104
1 105
1 106
1 107
1 108
1 109
1 110
1 111
1 112
1 113
1 114
1 115
1 116
1 117
1 118
1 119
1 120
1 121
1 122
1 123
1 124
1 125
1 126
1 127
1 128
1 129
1 130
1 131
1 132
1 133
1 134
1 135
1 136
1 137
1 138
1 139
1 140
1 141
1 142
1 143
1 144
1 145
1 146
1 147
1 148
1 149
1 150
1 151
1 152
1 153
1 154
1 155
1 156
1 157
1 158
1 159
1 160
1 161
1 162
1 163
1 164
1 165
1 166
1 167
1 168
1 169
1 170
1 171
1 172
1 173
1 174
1 175
1 176
1 177
1 178
1 179
1 180
1 181
1 182
1 183
1 184
1 185
1 186
1 187
1 188
1 189
1 190
1 191
1 192
1 193
1 194
1 195
1 196
1 197
1 198
1 199
1 200
1 201
1 202
1 203
1 204
1 205
1 206
1 207
1 208
1 209
1 210
1 211
1 212
1 213
1 214
1 215
1 216
1 217
1 218
1 219
1 220
1 221
1 222
1 223
1 224
1 225
1 226
1 227
1 228
1 229
1 230
1 231
1 232
1 233
1 234
1 235
1 236
1 237
1 238
1 239
1 240
1 241
1 242
1 243
1 244
1 245
1 246
1 247
1 248
1 249
1 250
1 251
1 252
1 253
1 254
1 255
1 256
1 257
1 258

POINT_DATA 259
SCALARS id int 1
LOOKUP_TABLE default
1
2
3
4
5
7
9
10
11
12
13
14
15
16
17
18
19
20
21
23
24
25
26
27
28
29
30
31
32
33
34
35
36
37
39
40
41
43
44
45
47
49
50
51
52
53
54
57
58
59
62
63
64
65
67
68
69
70
71
73
74
75
76
78
79
80
81
82
83
84
85
86
87
88
89
90
91
92
93
95
96
97
98
99
100
101
102
103
104
105
106
108
109
110
111
112
113
114
115
116
117
118
121
122
124
125
126
127
128
129
130
131
132
133
134
135
137
138
139
141
142
143
144
145
146
147
148
149
150
151
152
153
154
155
156
157
158
159
160
161
162
163
164
165
166
167
168
170
171
173
174
175
177
178
179
180
181
183
184
185
186
187
189
190
191
192
193
194
196
197
199
200
201
203
205
206
208
210
211
213
214
215
217
218
219
220
221
223
224
225
226
227
228
229
230
231
232
234
235
236
237
239
240
241
242
243
246
247
248
249
250
251
252
253
254
255
256
257
258
259
260
261
262
263
264
265
266
267
268
269
270
271
272
273
274
275
276
277
278
279
280
281
282
283
284
285
286
288
289
290
291
293
294
295
296
297
298
299
300

SCALARS type int 1
LOOKUP_TABLE default
1
1
1
1
1
1
1
1
1
1
1
1
1
1
1
1
1
1
1
1
1
1
1
1
1
1
1
1
1
1
1
1
1
1
1
1
1
1
1
1
1
1
1
1
1
1
1
1
1
1
1
1
1
1
1
1
1
1
1
1
1
1
1
1
1
1
1
1
1
1
1
1
1
1
1
1
1
1
1
1
1
1
1
1
1
1
1
1
1
1
1
1
1
1
1
1
1
1
1
1
1
1
1
1
1
1
1
1
1
1
1
1
1
1
1
1
1
1
1
1
1
1
1
1
1
1
1
1
1
1
1
1
1
1
1
1
1
1
1
1
1
1
1
1
1
1
1
1
1
1
1
1
1
1
1
1
1
1
1
1
1
1
1
1
1
1
1
1
1
1
1
1
1
1
1
1
1
1
1
1
1
1
1
1
1
1
1
1
1
1
1
1
1
1
1
1
1
1
1
1
1
1
1
1
1
1
1
1
1
1
1
1
1
1
1
1
1
1
1
1
1
1
1
1
1
1
1
1
1
1
1
1
1
1
1
1
1
1
1
1
1
1
1
1
1
1
1
1
1
1
1
1
1
1
1
1
1
1
1

SCALARS radius float 1
LOOKUP_TABLE default
0.0005
0.0005
0.0005
0.0005
0.0005
0.0005
0.0005
0.0005
0.0005
0.0005
0.0005
0.0005
0.0005
0.0005
0.0005
0.0005
0.0005
0.0005
0.0005
0.0005
0.0005
0.0005
0.0005
0.0005
0.0005
0.0005
0.0005
0.0005
0.0005
0.0005
0.0005
0.0005
0.0005
0.0005
0.0005
0.0005
0.0005
0.0005
0.0005
0.0005
0.0005
0.0005
0.0005
0.0005
0.0005
0.0005
0.0005
0.0005
0.0005
0.0005
0.0005
0.0005
0.0005
0.0005
0.0005
0.0005
0.0005
0.0005
0.0005
0.0005
0.0005
0.0005
0.0005
0.0005
0.0005
0.0005
0.0005
0.0005
0.0005
0.0005
0.0005
0.0005
0.0005
0.0005
0.0005
0.0005
0.0005
0.0005
0.0005
0.0005
0.0005
0.0005
0.0005
0.0005
0.0005
0.0005
0.0005
0.0005
0.0005
0.0005
0.0005
0.0005
0.0005
0.0005
0.0005
0.0005
0.0005
0.0005
0.0005
0.0005
0.0005
0.0005
0.0005
0.0005
0.0005
0.0005
0.0005
0.0005
0.0005
0.0005
0.0005
0.0005
0.0005
0.0005
0.0005
0.0005
0.0005
0.0005
0.0005
0.0005
0.0005
0.0005
0.0005
0.0005
0.0005
0.0005
0.0005
0.0005
0.0005
0.0005
0.0005
0.0005
0.0005
0.0005
0.0005
0.0005
0.0005
0.0005
0.0005
0.0005
0.0005
0.0005
0.0005
0.0005
0.0005
0.0005
0.0005
0.0005
0.0005
0.0005
0.0005
0.0005
0.0005
0.0005
0.0005
0.0005
0.0005
0.0005
0.0005
0.0005
0.0005
0.0005
0.0005
0.0005
0.0005
0.0005
0.0005
0.0005
0.0005
0.0005
0.0005
0.0005
0.0005
0.0005
0.0005
0.0005
0.0005
0.0005
0.0005
0.0005
0.0005
0.0005
0.0005
0.0005
0.0005
0.0005
0.0005
0.0005
0.0005
0.0005
0.0005
0.0005
0.0005
0.0005
0.0005
0.0005
0.0005
0.0005
0.0005
0.0005
0.0005
0.0005
0.0005
0.0005
0.0005
0.0005
0.0005
0.0005
0.0005
0.0005
0.0005
0.0005
0.0005
0.0005
0.0005
0.0005
0.0005
0.0005
0.0005
0.0005
0.0005
0.0005
0.0005
0.0005
0.0005
0.0005
0.0005
0.0005
0.0005
0.0005
0.0005
0.0005
0.0005
0.0005
0.0005
0.0005
0.0005
0.0005
0.0005
0.0005
0.0005
0.0005
0.0005
0.0005
0.0005
0.0005
0.0005
0.0005
0.0005
0.0005
0.0005
0.0005
0.0005
0.0005
0.0005
0.0005
0.0005
0.0005
0.0005

SCALARS mass float 1
LOOKUP_TABLE default
1.46608e-07
1.46608e-07
1.46608e-07
1.46608e-07
1.46608e-07
1.46608e-07
1.46608e-07
1.46608e-07
1.46608e-07
1.46608e-07
1.46608e-07
1.46608e-07
1.46608e-07
1.46608e-07
1.46608e-07
1.46608e-07
1.46608e-07
1.46608e-07
1.46608e-07
1.46608e-07
1.46608e-07
1.46608e-07
1.46608e-07
1.46608e-07
1.46608e-07
1.46608e-07
1.46608e-07
1.46608e-07
1.46608e-07
1.46608e-07
1.46608e-07
1.46608e-07
1.46608e-07
1.46608e-07
1.46608e-07
1.46608e-07
1.46608e-07
1.46608e-07
1.46608e-07
1.46608e-07
1.46608e-07
1.46608e-07
1.46608e-07
1.46608e-07
1.46608e-07
1.46608e-07
1.46608e-07
1.46608e-07
1.46608e-07
1.46608e-07
1.46608e-07
1.46608e-07
1.46608e-07
1.46608e-07
1.46608e-07
1.46608e-07
1.46608e-07
1.46608e-07
1.46608e-07
1.46608e-07
1.46608e-07
1.46608e-07
1.46608e-07
1.46608e-07
1.46608e-07
1.46608e-07
1.46608e-07
1.46608e-07
1.46608e-07
1.46608e-07
1.46608e-07
1.46608e-07
1.46608e-07
1.46608e-07
1.46608e-07
1.46608e-07
1.46608e-07
1.46608e-07
1.46608e-07
1.46608e-07
1.46608e-07
1.46608e-07
1.46608e-07
1.46608e-07
1.46608e-07
1.46608e-07
1.46608e-07
1.46608e-07
1.46608e-07
1.46608e-07
1.46608e-07
1.46608e-07
1.46608e-07
1.46608e-07
1.46608e-07
1.46608e-07
1.46608e-07
1.46608e-07
1.46608e-07
1.46608e-07
1.46608e-07
1.46608e-07
1.46608e-07
1.46608e-07
1.46608e-07
1.46608e-07
1.46608e-07
1.46608e-07
1.46608e-07
1.46608e-07
1.46608e-07
1.46608e-07
1.46608e-07
1.46608e-07
1.46608e-07
1.46608e-07
1.46608e-07
1.46608e-07
1.46608e-07
1.46608e-07
1.46608e-07
1.46608e-07
1.46608e-07
1.46608e-07
1.46608e-07
1.46608e-07
1.46608e-07
1.46608e-07
1.46608e-07
1.46608e-07
1.46608e-07
1.46608e-07
1.46608e-07
1.46608e-07
1.46608e-07
1.46608e-07
1.46608e-07
1.46608e-07
1.46608e-07
1.46608e-07
1.46608e-07
1.46608e-07
1.46608e-07
1.46608e-07
1.46608e-07
1.46608e-07
1.46608e-07
1.46608e-07
1.46608e-07
1.46608e-07
1.46608e-07
1.46608e-07
1.46608e-07
1.46608e-07
1.46608e-07
1.46608e-07
1.46608e-07
1.46608e-07
1.46608e-07
1.46608e-07
1.46608e-07
1.46608e-07
1.46608e-07
1.46608e-07
1.46608e-07
1.46608e-07
1.46608e-07
1.46608e-07
1.46608e-07
1.46608e-07
1.46608e-07
1.46608e-07
1.46608e-07
1.46608e-07
1.46608e-07
1.46608e-07
1.46608e-07
1.46608e-07
1.46608e-07
1.46608e-07
1.46608e-07
1.46608e-07
1.46608e-07
1.46608e-07
1.46608e-07
1.46608e-07
1.46608e-07
1.46608e-07
1.46608e-07
1.46608e-07
1.46608e-07
1.46608e-07
1.46608e-07
1.46608e-07
1.46608e-07
1.46608e-07
1.46608e-07
1.46608e-07
1.46608e-07
1.46608e-07
1.46608e-07
1.46608e-07
1.46608e-07
1.46608e-07
1.46608e-07
1.46608e-07
1.46608e-07
1.46608e-07
1.46608e-07
1.46608e-07
1.46608e-07
1.46608e-07
1.46608e-07
1.46608e-07
1.46608e-07
1.46608e-07
1.46608e-07
1.46608e-07
1.46608e-07
1.46608e-07
1.46608e-07
1.46608e-07
1.46608e-07
1.46608e-07
1.46608e-07
1.46608e-07
1.46608e-07
1.46608e-07
1.46608e-07
1.46608e-07
1.46608e-07
1.46608e-07
1.46608e-07
1.46608e-07
1.46608e-07
1.46608e-07
1.46608e-07
1.46608e-07
1.46608e-07
1.46608e-07
1.46608e-07
1.46608e-07
1.46608e-07
1.46608e-07
1.46608e-07
1.46608e-07
1.46608e-07
1.46608e-07
1.46608e-07
1.46608e-07
1.46608e-07
1.46608e-07
1.46608e-07
1.46608e-07
1.46608e-07
1.46608e-07
1.46608e-07
1.46608e-07
1.46608e-07

VECTORS velocity float
0.000880133 0.00139571 0.000637284
0.000521753 0.000190124 -0.00161238
-0.000863504 0.00651529 0.00263421
-0.00260038 -0.000567858 0.00130915
0.000400119 0.000689664 -0.000462504
0.00349567 0.00307479 -0.000632406
-0.0154151 0.0027513 -0.00408542
-0.127941 0.127082 0.0737429
-0.0306334 0.00136077 -0.0109516
0.00201877 0.01971 -0.00574265
0.00145022 0.000412025 0.00109744
0.0149672 0.0142933 -0.0171451
3.64598e-15 5.37491e-16 -3.69009e-14
-0.0575709 -0.070067 -0.00264958
-0.0420501 -0.0121347 0.00422704
-0.0642861 0.00998409 0.171279
0.00221003 -0.000636613 -0.000875265
9.45889e-05 -0.0223292 -0.00449247
-0.033152 -0.0355307 0.0193936
0.00107374 0.000454016 0.000710409
0.00828231 -0.0115139 -0.00686609
-0.0011793 -0.00109101 -0.000330068
0.000679551 0.0205443 0.00789537
-0.00436646 0.00357635 -0.0128619
0.014669 0.000825303 -0.05567
0.000575611 -0.000866019 0.000747168
-0.0487542 -0.0407606 -0.0549954
0.000165602 0.002414 -0.00299636
0.00349716 -0.00389786 -0.00609855
0.000429711 0.000779723 -0.00303692
0.000263838 5.18532e-05 -0.000312775
0.00433682 0.00287265 0.000726504
-0.0003563 3.82245e-05 -0.00032019
0.000510576 -0.00467744 -0.0177745
0.0216289 -0.0500965 -0.00431668
0.00033485 -0.000726716 0.000392659
-0.000138947 -0.000554124 -0.00169346
0.00183347 0.00174824 -0.00381318
-0.00252199 0.00147638 -0.00553962
0.00320382 0.000302756 0.00236002
-1.65469e-05 -5.45595e-05 3.33049e-06
-0.00693734 0.0112508 0.00960776
-0.000399203 0.000202107 -0.000178164
2.17735e-05 -0.00185468 -0.000990113
-0.000326669 -0.00101445 0.000421437
-0.368029 -0.350063 0.352194
0.000160725 0.000609445 0.00399959
-0.000211027 0.00336851 -0.00441377
-0.0013331 0.0193332 -0.00375511
9.60045e-05 0.00691915 0.0203928
0.000402185 -0.00049286 0.000363756
0.0262901 -0.00446155 -0.00469123
-5.45377e-05 0.00190831 -0.000735554
2.12068e-05 0.000730978 -0.00131545
0.00021349 0.0146806 0.0160169
0.000187652 -0.00253291 0.0215623
-0.000822812 -0.0192348 -0.00610691
0.123195 0.0669305 0.247137
0.00221754 -0.00143654 0.00776417
-0.000590335 -0.000432186 -0.00122423
0.000844603 -8.77623e-05 0.000136934
0.00949798 0.0099732 -0.00692313
0.00883797 -0.000288948 -0.0021275
0.000525664 -0.0196153 0.00191331
-0.00152072 0.00381123 0.00373258
0.000331134 -0.0044155 0.0225413
0.00165149 0.0112249 0.00674186
-0.00237277 0.0137363 -0.0130864
0.000225321 0.000117647 -0.000778682
-0.000754492 1.68226e-05 -0.000161132
0.0355134 0.130199 -0.0851051
-0.000484149 0.00616149 -0.0176678
0.000153759 0.0034659 -0.0212077
0.000140309 -0.00899005 0.0188186
0.00110135 -0.0159364 0.00782047
0.000251227 0.00211948 0.00367466
0.0010435 -0.0182986 -0.00354097
-0.00704186 -0.00460695 0.00496958
-0.0306835 0.0281159 -0.041942
0.00515211 0.00129958 -0.00138502
-0.031016 -0.0111051 -0.0611859
0.000753619 0.000467824 -0.000404375
0.00623102 -0.000207272 0.00874511
0.000611318 0.00562516 0.00191058
0.00359572 0.0242938 0.0130569
-0.0021695 0.000367089 0.00736055
-0.00151115 0.00120711 -0.00092345
0.00457436 0.00156137 0.00260426
-0.000632627 0.00828002 -0.00298699
-0.00414524 -0.000685001 -0.00168104
-5.10769e-05 0.000515287 0.000345477
-6.30614e-15 2.81918e-15 -5.78023e-14
0.000201001 0.025323 -0.0150283
-0.012061 0.0122708 -0.0129677
-0.00427324 -0.0197893 0.0069414
0.000138361 -0.00635847 0.0181479
-0.00461967 -0.0126538 -0.00906295
3.22518e-07 0.0232191 0.00840633
0.00315729 0.00857732 0.00590638
-1.64521e-10 0.0202186 0.00378398
0.000490781 -0.00271714 0.0229328
0.00135757 0.000881897 0.001427
0.0022081 0.00226039 0.000592774
0.00102125 -0.0088071 -0.00784679
0.0118762 0.00864801 -0.00119899
0.000500679 -0.0168922 -0.00691357
0.0114506 0.00795586 -0.00329946
-0.0162948 -0.0840634 -0.05224
-0.0522447 -0.0733566 -0.0103146
-0.00584176 0.0218813 -0.0227651
0.00997461 0.0157787 -0.0274664
-0.00890959 0.0100268 0.00409828
-0.00369995 0.00468732 -0.00414957
-0.0108847 0.00508888 -0.0165419
-0.00363334 0.00264181 -0.001034
0.0012087 -0.0145332 0.00259249
0.00272715 0.00857263 -0.000362659
-0.00148582 0.00445224 -0.00864882
-0.000292371 0.000135451 -0.000290643
-0.00100844 0.00114109 -0.000400527
0.00044472 -0.0133007 -0.0156182
-0.00112897 -0.00222691 0.00177886
0.00161121 -0.00013514 -0.00535336
-0.00126399 0.00498537 -0.00561136
-0.00333885 0.0190555 -0.00147375
0.00874473 0.000896538 0.000486299
0.00350643 0.00461042 -0.0213314
0.00226665 -2.97897e-05 0.00400868
0.00574953 0.0140436 0.00150052
-5.47406e-06 0.00118144 -0.00166189
-0.00676981 0.00173142 -0.00287447
0.0157441 0.0146099 -0.0230188
0.000299544 -0.00152607 0.000220336
-0.00115704 -0.000662481 0.000407449
0.00381138 0.0093471 -0.00217195
0.00237657 0.00173642 -0.00544037
-0.00514287 0.00635608 -0.00115254
-0.00875432 -0.0080937 0.00858871
-0.0138034 -0.0108311 -0.0106676
-0.00124962 0.0198067 0.00363585
0.0731855 -0.20218 0.557222
2.52502e-06 0.0240678 0.00531655
-0.00556477 -0.0037362 0.00194293
-0.00117451 0.00305517 -0.00054504
-0.189358 0.0163095 -0.0247426
-0.00395143 -0.00127937 -0.00290877
-0.000701274 -0.00112335 -0.00257663
0.00310071 0.0044182 0.0111733
-0.141638 0.0825919 0.468966
0.00065338 -0.0159466 -0.0077093
0.0114711 -0.0204208 -0.0240597
0.00162798 0.00188877 -0.0028659
0.006659 0.00577479 0.00138119
-2.79638e-09 0.0240045 0.00618113
0.0110759 0.00394623 0.00665715
0.00515409 -0.00124632 0.000386709
-0.000345213 0.000164401 -0.000397023
0.000974279 0.00651836 -0.00157317
-0.0431252 0.0592844 -0.108592
-6.23979e-05 -0.0145631 0.00347333
-7.31577e-05 0.000374006 -0.000308211
-0.0138602 0.0242315 -0.000841728
0.000410252 -0.00363996 0.0223132
0.00829188 0.0018041 0.00382425
-0.0157228 -0.00471264 -0.00747589
0.00320888 -0.00798573 -0.00958509
0.000413453 2.74305e-05 -0.000450748
0.00303339 -0.00703972 -0.00929318
-0.00849964 -0.00376197 -0.00956412
-0.00833456 -0.0321364 0.00654349
0.00848267 0.00904695 -0.000917167
0.00312348 0.00538661 -0.00108402
-0.004104 0.0136463 0.0263384
0.027002 -0.0100681 -0.0309269
0.0122106 -0.00389475 -0.018702
0.00717347 0.00773457 -0.00094468
0.000614344 0.0184492 0.00554419
-0.353489 0.0712571 2.82429
-0.00103287 0.00520046 -0.0132418
0.0149413 0.00140701 -0.000337174
0.00376276 0.00095268 0.00265793
0.00462086 -0.0131019 0.0233225
0.00316211 -0.000727784 -0.00131717
-0.00904257 -0.00427855 -0.0241346
0.000765132 0.00585019 -0.00231157
-0.15217 0.111357 -0.0345754
0.000515184 -0.0012782 -0.0158232
-7.38585e-05 0.000311015 -0.00073861
-0.000189831 -0.00013957 -0.000949561
0.000751878 -1.50563e-05 -0.00638749
0.000926802 -0.011504 0.0117089
0.00123376 0.0021095 0.00108122
-0.136548 0.0795103 0.00508659
-0.00335274 0.00752748 3.22306e-05
-0.00736856 -0.00145742 0.000699264
0.000523482 0.00433998 -0.00100564
-0.00512999 -0.0133537 -0.00422467
-0.00553795 -0.00111297 -0.0105816
0.0131779 0.000819442 -0.00177273
-0.00643423 -0.0172312 -0.0244388
0.00459986 -0.00307976 -0.00875587
0.000544897 -0.0975783 -0.08195
0.0144831 0.0139748 -0.016681
-0.000491712 -0.00357869 0.0174792
0.0168798 -0.00858661 -0.0632827
-0.000402009 -0.0109851 0.0115779
-0.238598 0.0443736 0.0779367
-0.00185022 0.00434416 -0.000474968
-0.287129 0.114396 0.242178
0.00125238 -0.00934113 0.0139957
0.000392006 -0.00155001 0.00132471
0.00708338 0.0111435 -0.00326878
-1.89903e-05 0.0206394 -0.000446092
0.00105435 0.00176236 6.56528e-05
0.0016753 0.00451778 -0.00999432
-0.0796592 -0.0188611 -0.0773587
8.29559e-05 0.00028649 -0.00220753
-0.0014151 0.00457426 -0.00795165
0.000180011 0.0126755 0.0084392
0.00431468 0.00134549 0.000757052
0.00243984 0.0104664 0.0107156
0.000415068 0.0210572 -0.000647752
0.00557527 0.00602695 -0.000245475
0.00381863 0.00213294 0.00133367
-0.00150176 0.0216274 0.000973558
0.000486134 0.00276648 0.00378496
-0.00459049 0.00625211 -0.00206887
-0.000154722 0.00189267 -0.00211035
-0.00231156 -0.00632759 -0.000226138
-0.00427636 -0.0196939 0.0123856
-0.000634042 0.000491433 0.000452199
-0.00365619 0.0126062 -0.00897906
0.00029182 0.00284549 -0.000912775
0.00115088 0.0185803 -0.0010962
-0.0228794 -0.0406646 -0.0286087
0.00238703 0.00364662 -0.00322801
-0.00121269 -0.0295657 -0.0509695
-0.000817543 0.0105386 -0.00915047
-0.000758382 0.00616243 0.00571929
-3.28266e-05 0.0122777 0.0220139
-0.20411 0.109118 -0.00775216
0.00149344 -0.00316781 -0.00967157
0.00376872 9.2159e-05 -0.00184295
0.00171156 0.00372959 -0.00644279
-9.68799e-317 -9.69932e-317 9.23294e-13
5.75114e-05 -0.00437276 0.0212481
0.0013816 0.00620271 -0.000171694
0.00250032 0.00349512 -0.0103527
0.00333036 -0.00842311 -0.0127046
0.000890348 0.0145737 -0.00561701
0.00116699 0.0110786 0.00635262
0.000206526 0.000176652 -0.000511018
0.008416 -0.0160032 -0.0088762
-0.000207034 -0.00897815 0.0205311
-0.00109478 0.00995409 -0.0106709
0.00367686 0.0105245 -0.0159553
7.58074e-05 0.00150331 -0.000972619
2.6037e-15 4.72348e-16 -4.25289e-14
0.00506522 0.0189308 -0.00519795

VECTORS force float
6.51297e-07 6.77246e-07 2.07923e-08
-1.94689e-06 4.13409e-07 2.11425e-07
0.0 0.0 -1.43822e-06
-3.54962e-06 2.50556e-06 -3.077e-06
3.66341e-07 -3.5658e-06 7.91879e-07
5.36201e-05 -6.34085e-05 -1.68397e-05
8.74213e-07 1.87874e-06 -1.84307e-06
0.0 0.0 -1.43822e-06
-1.45479e-06 -3.52413e-07 -4.04456e-06
-8.97856e-07 5.55041e-07 6.78852e-07
-2.34284e-06 4.74379e-06 8.05339e-06
0.0 0.0 -1.43822e-06
8.73503e-22 -1.02273e-20 0.0
0.0 0.0 -1.43822e-06
0.0 0.0 -1.43822e-06
0.0 0.0 -1.43822e-06
2.13808e-06 -1.27389e-08 2.53347e-06
-5.36358e-09 -5.87323e-09 7.80657e-09
0.0 0.0 -1.43822e-06
2.94996e-07 -5.56579e-08 -4.75605e-07
0.0 0.0 -1.43822e-06
8.68463e-06 -2.17106e-07 4.28205e-07
-1.00159e-07 1.78475e-07 4.17212e-08
-5.39341e-06 -1.38014e-05 -9.794e-06
0.0 0.0 -1.43822e-06
-2.33311e-08 -3.50813e-09 3.64664e-08
0.0 0.0 -1.43822e-06
6.94404e-06 -1.3084e-06 8.91981e-07
-5.76481e-08 -3.16563e-07 -2.75152e-07
6.8088e-07 2.62206e-06 2.85334e-06
-2.42761e-08 -8.18199e-09 3.7775e-08
-1.09316e-06 -3.75308e-05 -2.72504e-05
-2.18838e-06 7.52366e-07 1.27855e-06
2.96195e-09 -7.01356e-10 1.72107e-08
1.57027e-05 -4.86317e-06 4.27724e-05
3.19564e-07 -4.03298e-07 1.75523e-06
-8.17368e-08 -5.4221e-08 -7.24168e-08
3.76055e-06 -6.06469e-07 -8.0197e-06
-6.92787e-06 2.84775e-06 3.05391e-06
-5.27576e-09 3.84777e-08 -1.4333e-06
-8.81365e-08 2.17289e-07 7.27056e-08
0.0 0.0 -1.43822e-06
1.57607e-06 -2.29956e-06 2.40568e-06
0.0 0.0 -1.43822e-06
-1.03257e-07 -2.3606e-07 -3.38958e-07
0.0 0.0 -1.43822e-06
0.0 0.0 -1.43822e-06
-2.56638e-06 3.83744e-06 5.58034e-06
-5.08507e-07 1.62101e-06 -5.67287e-07
-1.41302e-10 1.23364e-08 2.34165e-09
5.1405e-07 -8.02408e-07 -1.26803e-07
0.0 0.0 -1.43822e-06
4.47465e-07 2.44691e-06 -1.92692e-06
1.89687e-07 -2.28287e-07 -5.97287e-08
-2.16012e-09 1.35688e-08 -1.44792e-09
-1.87058e-09 1.0296e-08 7.71778e-09
0.0 0.0 -1.43822e-06
0.0 0.0 -1.43822e-06
2.35015e-07 8.4889e-08 -1.0287e-06
5.91801e-08 -1.87596e-07 -2.77596e-07
2.33156e-06 3.75738e-08 5.6899e-07
-8.40813e-06 -5.18901e-06 8.43712e-06
-2.58751e-07 -8.6331e-07 1.64833e-06
-2.6697e-09 -1.55385e-08 9.17058e-09
-1.62589e-08 -7.22909e-08 -2.86769e-08
-1.12046e-07 5.09875e-07 1.5612e-07
1.07296e-06 6.46176e-07 -4.66339e-07
2.10588e-05 2.22417e-05 1.60445e-05
-4.47279e-07 3.71244e-08 9.44964e-07
-4.62413e-07 2.33509e-07 3.47437e-07
0.0 0.0 -1.43822e-06
-1.05632e-05 1.71586e-05 -2.47053e-05
1.4616e-09 -1.02233e-08 -6.09187e-09
-5.44867e-10 6.32281e-09 1.15408e-08
-9.95298e-09 -9.92413e-09 1.87339e-08
1.62648e-07 -2.46015e-06 -2.80582e-06
-4.53151e-09 -4.79241e-08 2.45429e-08
-1.37966e-08 -2.19057e-07 -5.78018e-07
0.0 0.0 -1.43822e-06
-6.96359e-08 5.08162e-07 -4.5972e-07
0.0 0.0 -1.43822e-06
-9.02622e-07 1.96332e-08 1.19589e-06
0.0 0.0 -1.43822e-06
-2.59945e-08 7.81099e-08 5.13342e-08
-2.01564e-05 5.06172e-05 8.26162e-05
-5.92429e-07 -1.06512e-06 -2.41937e-06
4.514e-07 -1.55347e-06 -1.16481e-06
6.97639e-07 2.06203e-07 -1.35306e-07
6.6388e-07 -2.9112e-06 -1.79585e-06
2.24544e-07 -2.13851e-07 -9.61056e-07
-8.30753e-08 3.1432e-07 3.30612e-07
-4.27752e-20 -1.23349e-20 4.02341e-21
-1.10307e-09 3.3714e-08 -4.59055e-08
5.22702e-08 1.15354e-07 -5.66405e-07
0.0 0.0 -1.43822e-06
3.62854e-07 6.86325e-07 -2.39447e-07
-3.27907e-06 -2.63495e-06 -2.51117e-06
1.8379e-10 2.13934e-08 -1.14958e-08
-3.24477e-07 -3.08949e-07 6.30117e-07
-2.88813e-16 2.37683e-09 -1.34912e-08
-1.84133e-07 7.46897e-07 1.09651e-06
-1.26547e-07 3.37037e-07 -1.39405e-06
-9.35669e-08 2.4763e-07 -2.10958e-07
3.28902e-08 -1.99317e-08 1.273e-08
-3.97626e-07 2.01e-07 -1.54896e-07
-4.56481e-08 -5.47809e-09 -2.21312e-08
6.01802e-07 -8.9534e-07 9.11635e-07
0.0 0.0 -1.43822e-06
0.0 0.0 -1.43822e-06
0.0 0.0 -1.43822e-06
0.0 0.0 -1.43822e-06
3.76326e-07 5.16042e-07 9.96937e-08
3.27907e-06 2.63495e-06 -3.65272e-07
0.0 0.0 -1.43822e-06
5.62837e-07 -3.11381e-07 -3.90377e-07
1.16926e-08 2.03671e-08 -6.51411e-09
-6.66721e-07 7.68682e-07 -7.36722e-08
0.0 0.0 -1.43822e-06
1.24396e-06 8.77998e-07 -6.96891e-07
-2.16624e-07 5.88449e-07 7.85603e-07
-1.75941e-09 -1.23661e-08 7.67155e-10
-2.94435e-08 -1.42439e-08 1.54171e-08
7.7646e-07 1.06296e-06 -2.82481e-07
7.90405e-07 -1.75324e-06 7.5031e-06
0.0 0.0 -1.43822e-06
-1.65e-07 -1.88081e-07 -6.07603e-07
-2.59325e-05 1.25289e-06 3.76223e-05
-3.24289e-05 -4.10655e-06 -5.84243e-05
-3.74331e-07 4.62144e-07 -2.89209e-06
-1.34926e-06 8.81078e-06 5.53476e-06
1.72735e-07 -1.84559e-08 3.08686e-08
0.0 0.0 -1.43822e-06
-2.09218e-07 1.80523e-06 -2.85565e-07
1.42934e-06 1.19685e-06 -7.45042e-07
2.49581e-08 1.47394e-06 -1.31901e-06
-3.6171e-07 3.09449e-06 -1.64908e-06
8.23747e-07 2.44456e-06 -2.3132e-06
0.0 0.0 -1.43822e-06
-1.02427e-05 -1.04169e-05 -5.48008e-05
1.30215e-08 -3.31985e-09 -1.44984e-07
0.0 0.0 -1.43822e-06
6.0058e-09 4.00516e-08 -7.98331e-09
5.07257e-07 8.15109e-08 7.48115e-07
1.23496e-06 1.43164e-06 -4.03483e-06
0.0 0.0 -1.43822e-06
5.34708e-08 -1.1127e-07 -6.00771e-08
-1.19801e-07 4.21987e-07 1.71569e-07
-1.92073e-07 -5.97349e-07 -4.9205e-07
0.0 0.0 -1.43822e-06
3.87728e-09 -2.27168e-08 1.4338e-08
5.80822e-08 -2.85352e-07 -2.43021e-07
5.28733e-06 8.55009e-07 4.32772e-06
-2.46862e-06 1.25898e-06 -1.92581e-06
-8.63672e-14 4.40271e-09 -1.6337e-08
0.0 0.0 -1.43822e-06
0.0 0.0 -1.43822e-06
-1.59604e-07 -2.90284e-07 7.37891e-08
-3.51662e-08 7.99994e-07 -5.34841e-08
0.0 0.0 -1.43822e-06