# vtk DataFile Version 3.0
LIGGGHTS particles timestep 29600000
ASCII
DATASET POLYDATA
POINTS 107 float
0.0251618 0.020965 0.0155074
0.0242546 0.020213 0.00583854
0.0326588 0.0184133 0.00592296
0.0552529 0.0189972 0.0058882
0.00938048 0.0183393 0.00587271
0.0260391 0.0196534 0.00594246
0.0764299 0.01907 0.00579421
0.0366849 0.0218066 0.0435188
0.053426 0.0221328 0.00844779
0.046933 0.0203983 0.0074402
0.0342322 0.0172097 0.00627001
0.000591717 0.0149731 0.0435188
0.0511062 0.0149064 0.0117566
0.0373572 0.0202824 0.00605833
0.0366868 0.0226347 0.0139023
0.049528 0.0194806 0.00601095
0.0319935 0.0173622 0.0154384
0.0421499 0.0233868 0.0113509
0.0317238 0.0192455 0.00569325
0.003617 0.0285782 0.0435188
0.0860181 0.0183082 0.00577269
0.0177449 0.0174882 0.00600758
0.0520291 0.0164465 0.00805916
0.0297965 0.0231043 0.00996336
0.112778 0.0179068 0.0059233
0.0513753 0.014933 0.0103314
0.0452523 0.0173614 0.00620617
0.0370167 0.0186542 0.0057303
0.0431232 0.0212012 0.0152364
0.035283 0.021824 0.00817206
0.0551402 0.017971 0.00596606
0.0442642 0.0165143 0.0149152
0.0501992 0.0167466 0.0150724
0.049483 0.0197644 0.0157854
0.052786 0.0196551 0.00724674
0.0429011 0.0221487 0.0144458
0.0490178 0.0216536 0.014942
0.0310605 0.0214265 0.0150563
0.0464577 0.0180237 0.00607863
0.0214483 0.0168437 0.00645098
0.0377466 0.0186441 0.0157407
0.0457884 0.0157763 0.00879438
0.0586827 0.0172628 0.00598816
0.0792417 0.0194286 0.00576565
0.0285935 0.0187404 0.00722311
0.0538866 0.0231691 0.0104461
0.0303903 0.00406748 0.0435188
0.0408613 0.0201268 0.00731352
0.0541514 0.023354 0.011442
0.0438472 0.0171169 0.00621343
0.0499165 0.0177055 0.0156104
0.0473953 0.0193073 0.0059321
0.0436207 0.0192162 0.0157712
0.0410849 0.0210785 0.00768362
0.0544286 0.0231001 0.0129591
0.0478038 0.023074 0.0101185
0.0444881 0.0157193 0.0142334
0.0584376 0.0191695 0.00582359
0.026519 0.0155385 0.0140383
0.0276306 0.0153286 0.00933462
0.020084 0.0201843 0.0061153
0.0516043 0.0153219 0.00938977
0.0221348 0.00230077 0.0435188
0.201805 0.0186174 0.00570934
0.0463863 0.0178807 0.0074885
0.0334461 0.0150587 0.00994712
0.0830234 0.0186618 0.00583976
0.0323997 0.0160736 0.0146277
0.067984 0.0193424 0.00575613
0.048818 0.022353 0.0142967
0.0800972 0.0199306 0.00589216
0.045973 0.0162612 0.00824846
0.0328824 0.0149231 0.012596
0.0253288 0.0204564 0.00590683
0.0456262 0.0154047 0.00960755
0.0471107 0.0166378 0.0150705
0.035051 0.0212438 0.00786045
0.0392951 0.0190642 0.00571675
0.026935 0.0188837 0.00598981
0.0370859 0.0211867 0.0150962
0.0523741 0.0178831 0.00738955
0.0414148 0.0220971 0.00843107
0.0507336 0.01515 0.0132153
0.0221996 0.00109062 0.0435188
0.0504992 0.0157497 0.0142669
0.0419179 0.0232662 0.0105417
0.0402105 0.0172616 0.00757126
0.053075 0.020994 0.00767739
0.0561606 0.0173315 0.00595822
0.0895649 0.0187731 0.00575225
0.0391214 0.0148266 0.0116262
0.0380739 0.0170878 0.0153068
0.0484621 0.0229619 0.0130823
0.108836 0.0200055 0.00584234
0.0317789 0.018381 0.0157559
0.0423119 0.023296 0.0123525
0.0393812 0.0149405 0.0101555
0.0439111 0.0177863 0.0156057
0.0288677 0.0201147 0.00733664
0.0397536 0.0156815 0.00890955
0.0339384 0.0160975 0.00838313
0.00937694 0.00505359 0.0435188
0.0457039 0.018685 0.00600217
0.036439 0.0231263 0.0129292
0.0239797 0.0191467 0.00594569
0.0254808 0.018723 0.00589902
0.0466746 0.0193117 0.00723006

VERTICES 107 214
1 0
1 1
1 2
1 3
1 4
1 5
1 6
1 7
1 8
1 9
1 10
1 11
1 12
1 13
1 14
1 15
1 16
1 17
1 18
1 19
1 20
1 21
1 22
1 23
1 24
1 25
1 26
1 27
1 28
1 29
1 30
1 31
1 32
1 33
1 34
1 35
1 36
1 37
1 38
1 39
1 40
1 41
1 42
1 43
1 44
1 45
1 46
1 47
1 48
1 49
1 50
1 51
1 52
1 53
1 54
1 55
1 56
1 57
1 58
1 59
1 60
1 61
1 62
1 63
1 64
1 65
1 66
1 67
1 68
1 69
1 70
1 71
1 72
1 73
1 74
1 75
1 76
1 77
1 78
1 79
1 80
1 81
1 82
1 83
1 84
1 85
1 86
1 87
1 88
1 89
1 90
1 91
1 92
1 93
1 94
1 95
1 96
1 97
1 98
1 99
1 100
1 101
1 102
1 103
1 104
1 105
1 106

POINT_DATA 107
SCALARS id int 1
LOOKUP_TABLE default
1
2
4
5
15
16
17
18
20
24
25
27
28
32
33
37
41
44
47
49
52
57
59
63
65
67
68
73
74
76
79
84
87
88
89
90
92
97
103
108
109
112
121
122
124
125
128
130
131
133
135
137
139
141
142
143
147
149
150
157
158
160
161
165
166
167
173
174
179
185
186
187
191
193
194
197
200
205
215
225
226
227
229
232
237
241
242
247
252
253
256
257
258
260
268
269
270
271
274
275
277
284
288
291
294
299
300

SCALARS type int 1
LOOKUP_TABLE default
1
1
1
1
1
1
1
1
1
1
1
1
1
1
1
1
1
1
1
1
1
1
1
1
1
1
1
1
1
1
1
1
1
1
1
1
1
1
1
1
1
1
1
1
1
1
1
1
1
1
1
1
1
1
1
1
1
1
1
1
1
1
1
1
1
1
1
1
1
1
1
1
1
1
1
1
1
1
1
1
1
1
1
1
1
1
1
1
1
1
1
1
1
1
1
1
1
1
1
1
1
1
1
1
1
1
1

SCALARS radius float 1
LOOKUP_TABLE default
0.0005
0.0005
0.0005
0.0005
0.0005
0.0005
0.0005
0.0005
0.0005
0.0005
0.0005
0.0005
0.0005
0.0005
0.0005
0.0005
0.0005
0.0005
0.0005
0.0005
0.0005
0.0005
0.0005
0.0005
0.0005
0.0005
0.0005
0.0005
0.0005
0.0005
0.0005
0.0005
0.0005
0.0005
0.0005
0.0005
0.0005
0.0005
0.0005
0.0005
0.0005
0.0005
0.0005
0.0005
0.0005
0.0005
0.0005
0.0005
0.0005
0.0005
0.0005
0.0005
0.0005
0.0005
0.0005
0.0005
0.0005
0.0005
0.0005
0.0005
0.0005
0.0005
0.0005
0.0005
0.0005
0.0005
0.0005
0.0005
0.0005
0.0005
0.0005
0.0005
0.0005
0.0005
0.0005
0.0005
0.0005
0.0005
0.0005
0.0005
0.0005
0.0005
0.0005
0.0005
0.0005
0.0005
0.0005
0.0005
0.0005
0.0005
0.0005
0.0005
0.0005
0.0005
0.0005
0.0005
0.0005
0.0005
0.0005
0.0005
0.0005
0.0005
0.0005
0.0005
0.0005
0.0005
0.0005

SCALARS mass float 1
LOOKUP_TABLE default
1.46608e-07
1.46608e-07
1.46608e-07
1.46608e-07
1.46608e-07
1.46608e-07
1.46608e-07
1.46608e-07
1.46608e-07
1.46608e-07
1.46608e-07
1.46608e-07
1.46608e-07
1.46608e-07
1.46608e-07
1.46608e-07
1.46608e-07
1.46608e-07
1.46608e-07
1.46608e-07
1.46608e-07
1.46608e-07
1.46608e-07
1.46608e-07
1.46608e-07
1.46608e-07
1.46608e-07
1.46608e-07
1.46608e-07
1.46608e-07
1.46608e-07
1.46608e-07
1.46608e-07
1.46608e-07
1.46608e-07
1.46608e-07
1.46608e-07
1.46608e-07
1.46608e-07
1.46608e-07
1.46608e-07
1.46608e-07
1.46608e-07
1.46608e-07
1.46608e-07
1.46608e-07
1.46608e-07
1.46608e-07
1.46608e-07
1.46608e-07
1.46608e-07
1.46608e-07
1.46608e-07
1.46608e-07
1.46608e-07
1.46608e-07
1.46608e-07
1.46608e-07
1.46608e-07
1.46608e-07
1.46608e-07
1.46608e-07
1.46608e-07
1.46608e-07
1.46608e-07
1.46608e-07
1.46608e-07
1.46608e-07
1.46608e-07
1.46608e-07
1.46608e-07
1.46608e-07
1.46608e-07
1.46608e-07
1.46608e-07
1.46608e-07
1.46608e-07
1.46608e-07
1.46608e-07
1.46608e-07
1.46608e-07
1.46608e-07
1.46608e-07
1.46608e-07
1.46608e-07
1.46608e-07
1.46608e-07
1.46608e-07
1.46608e-07
1.46608e-07
1.46608e-07
1.46608e-07
1.46608e-07
1.46608e-07
1.46608e-07
1.46608e-07
1.46608e-07
1.46608e-07
1.46608e-07
1.46608e-07
1.46608e-07
1.46608e-07
1.46608e-07
1.46608e-07
1.46608e-07
1.46608e-07
1.46608e-07

VECTORS velocity float
0.00189853 0.00193855 -0.00160858
-9.08586e-15 -1.46377e-15 1.48131e-13
-4.08263e-15 -1.59363e-14 -3.89644e-14
-1.32741e-17 -1.80723e-17 -2.57131e-16
3.64622e-15 5.35877e-16 -3.69009e-14
2.09857e-14 3.38096e-15 -3.42138e-13
-1.49395e-15 8.85508e-15 3.39788e-14
-9.6879e-317 9.73506e-317 2.68131e-13
0.00196493 -0.0067244 -0.0107576
0.000782449 -0.0192446 -0.0066328
-2.0831e-16 -1.89163e-15 -5.62907e-15
9.71467e-317 9.75789e-317 -8.23806e-13
-5.43388e-05 -0.00102787 0.0121706
-5.14694e-15 1.75335e-14 -8.08025e-14
-9.90533e-05 0.0145752 -0.0171167
5.77933e-15 -1.24755e-14 -1.29437e-13
0.00174373 0.0161197 0.00522276
0.00126006 5.05721e-05 -0.0168069
-2.30902e-15 -6.18778e-14 2.10854e-13
-9.68849e-317 -9.75601e-317 2.88878e-12
-1.22482e-15 3.67082e-14 1.26768e-13
2.63052e-15 1.02256e-14 2.12813e-14
0.00068568 -0.0128454 0.00816862
0.000258634 -0.00718796 -0.0201779
7.17347e-16 3.45667e-15 1.42038e-14
0.00167276 -0.00435078 0.0140155
-3.12418e-15 -1.74649e-14 -1.20236e-13
2.62859e-16 -2.06113e-15 1.00253e-14
0.00138382 0.0144177 -0.00930332
0.108349 0.0880429 0.189272
-2.82234e-15 -3.83404e-15 -5.46135e-14
0.00164814 0.0148694 0.0101226
0.000967738 0.0116886 0.00795178
0.00144416 0.0148806 -0.00178747
0.000123332 -0.01657 -0.00307296
0.00292468 0.0117254 -0.00961778
0.00102401 0.0183411 -0.0110883
-7.52938e-05 0.0196731 -0.0113298
-3.1258e-15 -1.74653e-14 -1.20236e-13
-2.39306e-14 5.08691e-14 1.84332e-13
-0.000175257 0.0219757 0.00349221
0.00167741 -0.0100853 0.0141742
1.03889e-14 -2.15386e-14 -2.64999e-13
-1.88672e-17 -6.07994e-17 -2.57031e-16
8.29017e-05 -0.0214896 0.00200263
0.000348309 -0.00559985 -0.0199369
-9.67556e-317 -9.75879e-317 -3.22607e-12
0.000655123 -0.0190677 -0.00446514
0.00206427 -0.000201361 -0.0162433
5.49726e-16 -1.54755e-15 -8.51053e-15
0.00099601 0.0115212 0.00349898
4.73237e-15 -1.01819e-14 -1.05707e-13
0.000427955 0.0202713 -0.00146209
9.297e-05 -0.0188746 -0.0112594
-1.99792e-05 0.00861676 -0.0206417
0.000761878 -0.00693594 -0.0182156
0.000505903 0.0112495 0.0159144
8.11498e-15 -1.68483e-14 -2.07264e-13
0.000659007 0.0115146 0.0156586
0.000513172 -0.0096099 0.0176196
5.51834e-15 -2.47301e-15 5.04898e-14
8.29372e-05 -0.0109902 0.0184387
9.74157e-317 -9.69799e-317 9.23294e-13
-3.8561e-20 4.0743e-22 8.61844e-22
-0.000301508 -0.0207681 0.0037705
0.00362559 -0.00182428 -0.00230046
1.15434e-14 3.23724e-14 -1.39058e-13
0.0015605 0.00693838 0.00683078
3.85571e-15 7.55316e-15 2.61625e-13
0.00216349 0.00830726 -0.00819908
2.17002e-17 5.75767e-17 -2.45976e-16
0.00197542 -0.0133253 0.0112893
0.000383641 0.00548189 0.0201005
9.29105e-15 1.49641e-15 -1.51478e-13
0.000643558 -0.00852409 0.0186128
2.74559e-05 0.0185152 0.0134047
3.58792 -1.40788 2.20281
2.73933e-15 -1.35006e-14 6.66358e-14
1.43031e-14 2.30429e-15 -2.33189e-13
0.000376102 0.0177776 -0.0109718
0.00114664 -0.0176782 0.00582875
0.000722535 -0.0134854 -0.0127261
-0.000448532 0.00660431 0.0218892
9.58743e-317 9.68145e-317 4.97437e-14
0.0013006 0.0113066 0.0123223
0.000818402 -0.0052813 -0.0181425
0.000118809 -0.0202741 0.00839659
0.00213677 -0.0149879 -0.00650825
1.40318e-14 1.90624e-14 2.71525e-13
-1.29639e-14 1.89784e-14 2.53781e-13
0.000112952 0.000361459 0.0217148
0.000958598 0.0169481 0.00777779
0.00023116 0.00748596 -0.0194963
7.53966e-16 -1.26236e-15 -6.97768e-15
0.000139333 0.0215077 0.00427497
0.000208262 0.00484871 -0.0210888
0.00148256 -0.00466588 0.011312
-0.000180133 0.0207885 0.00825458
0.000105638 -0.0209051 -0.00619706
0.000147018 -0.0131935 0.0168188
0.000978939 -0.0137713 0.013814
-9.68799e-317 -9.69932e-317 9.23294e-13
-6.97741e-15 -3.90026e-14 -2.68502e-13
0.000307071 0.00715341 -0.0197876
-2.27376e-14 -4.66213e-14 -1.52821e-13
-2.0782e-14 -3.34175e-15 3.38791e-13
0.00117795 -0.00871634 -0.000501369

VECTORS force float
1.9622e-10 7.28853e-10 -1.41075e-09
0.0 -3.14329e-23 0.0
-2.5411e-21 4.12929e-21 -1.48231e-21
-1.19114e-22 -5.29396e-23 0.0
1.32349e-22 -2.42198e-21 0.0
-1.05879e-22 -5.9557e-23 0.0
1.60936e-20 8.36445e-21 0.0
0.0 0.0 0.0
1.80669e-08 6.34637e-08 1.28641e-07
-9.38913e-09 -3.11791e-08 1.21158e-09
4.59912e-21 0.0 -2.11758e-22
0.0 0.0 0.0
0.00138225 0.00473504 -0.00050329
-6.33951e-21 2.2764e-21 8.47033e-22
8.44449e-09 -1.15107e-08 -1.06029e-08
-6.0404e-20 -1.74965e-20 -8.47033e-22
4.34959e-08 -3.81876e-08 -1.12227e-07
-6.70846e-09 -1.64041e-08 3.24983e-10
-1.70399e-22 0.0 0.0
0.0 0.0 0.0
-2.13727e-20 2.0117e-21 -6.35275e-22
-3.70577e-21 -1.05879e-22 1.27055e-21
-4.32243e-09 1.932e-08 -4.88757e-09
-1.41858e-09 -1.23748e-08 -2.5037e-09
1.50388e-19 5.0769e-20 -2.09641e-20
2.33691e-09 4.66505e-09 -5.0405e-08
-3.33519e-21 4.23516e-22 0.0
-1.32481e-20 -1.83171e-20 -2.75286e-21
-9.67741e-09 1.79889e-08 -1.91378e-08
0.0228968 0.00670304 -0.00350436
-1.32349e-23 -1.32349e-23 -2.11758e-22
-1.67439e-08 3.84779e-08 2.28718e-08
1.31716e-06 -1.2536e-05 -5.59661e-06
-9.18126e-08 -5.33611e-07 3.16306e-07
-6.96548e-09 2.58532e-08 2.52298e-08
2.70044e-09 -3.27761e-08 7.48785e-09
-7.29457e-09 -3.12418e-08 -2.71369e-08
-2.04943e-10 -9.07514e-10 -1.20803e-08
-2.31611e-22 2.64698e-23 0.0
5.57983e-20 6.58568e-20 -1.43996e-20
-1.35896e-09 3.96056e-09 -1.05372e-08
-7.29364e-09 -5.53672e-09 2.0934e-08
-2.85212e-21 1.21761e-21 -2.11758e-22
-5.29396e-23 2.11758e-22 -2.11758e-22
-9.56163e-09 -3.38458e-08 -1.09011e-08
-1.77783e-09 -1.21163e-08 -3.60871e-09
0.0 0.0 0.0
-4.34959e-09 -1.51999e-08 4.72032e-09
1.13189e-06 1.05937e-06 4.61111e-06
2.86138e-20 4.65868e-21 8.47033e-22
-1.14653e-07 1.83196e-06 5.85685e-09
6.53804e-21 2.03817e-21 2.11758e-22
-5.88409e-09 1.34625e-08 -1.06166e-08
-3.72589e-10 -9.59222e-09 7.73456e-09
-1.30232e-09 -8.5404e-09 -1.08994e-08
-7.20719e-09 -1.4448e-08 -1.52691e-08
1.34245e-09 5.09652e-09 -1.2889e-08
-2.03156e-20 -3.70577e-21 -2.11758e-22
4.06888e-08 2.05373e-07 -4.70119e-07
-3.66334e-09 3.24347e-09 1.48565e-08
3.01755e-21 -8.35122e-21 -6.35275e-22
-2.82905e-10 7.48688e-09 9.62955e-09
0.0 0.0 0.0
0.0 0.0 0.0
-2.26535e-08 5.97126e-09 2.11382e-08
-4.41705e-08 7.65298e-09 -1.86598e-07
-6.39245e-21 -1.64113e-21 -8.47033e-22
1.01184e-06 -3.41866e-06 -1.44807e-06
5.35351e-20 -9.75411e-21 -6.35275e-22
-5.90841e-09 -3.54549e-08 7.04996e-08
-5.29396e-23 -7.94093e-23 0.0
-2.19062e-08 -3.62572e-08 6.19376e-08
-4.38207e-09 1.18169e-08 6.72304e-09
0.0 -4.96308e-23 0.0
-5.39495e-09 6.75004e-09 1.53604e-08
-1.77046e-09 1.10269e-08 -8.30569e-09
-0.0966992 -0.0102371 -1.0134
5.97158e-20 8.73503e-21 -8.47033e-22
1.98523e-22 6.78288e-23 0.0
-3.31745e-09 -5.77454e-10 -1.21392e-08
-3.09097e-09 -6.76214e-09 1.21682e-08
-4.97915e-09 -2.50377e-08 2.58557e-09
-3.33239e-07 1.34635e-07 1.19952e-07
0.0 0.0 0.0
-1.15007e-08 3.66388e-08 2.5722e-08
-2.26373e-09 -9.87772e-09 -4.84902e-09
-6.19035e-10 -4.12224e-11 1.11874e-08
-2.30218e-08 -5.89034e-08 -2.80763e-08
1.32349e-22 1.98523e-22 0.0
-1.58289e-19 -2.30803e-19 9.31736e-21
-4.96045e-10 1.08747e-08 5.60091e-09
-4.64395e-09 1.79363e-08 -3.51903e-09
-1.83597e-09 -7.59877e-09 -9.04865e-09
-3.54695e-21 -1.05879e-22 -4.23516e-22
-4.07827e-10 6.85483e-09 -9.93423e-09
-2.67079e-10 -9.25889e-09 -8.30527e-09
-4.22306e-07 -2.10203e-08 7.88576e-08
-8.76784e-10 7.7279e-09 -8.396e-09
-9.80474e-10 -6.85857e-09 8.97378e-09
-8.14665e-10 5.2349e-09 1.10439e-08
-1.394e-08 -2.0833e-08 2.71143e-08
0.0 0.0 0.0
9.46295e-22 -2.38228e-22 0.0
-1.52312e-09 -6.95655e-09 -1.10013e-08
2.56757e-21 9.52912e-22 0.0
3.56019e-21 -1.81153e-21 0.0
-6.51608e-09 -4.4199e-08 -2.31304e-08
