# vtk DataFile Version 3.0
LIGGGHTS particles timestep 12200000
ASCII
DATASET POLYDATA
POINTS 139 float
0.0213585 0.0230187 0.00980638
0.0190715 0.0234396 0.0143941
0.020357 0.019252 0.00716616
0.0326193 0.0206834 0.0075369
0.0240867 0.0159046 0.0144667
0.0174421 0.0235166 0.0142931
0.00938048 0.0183393 0.00587271
0.0260148 0.0196703 0.00594114
0.0305013 0.0149298 0.0125006
0.0366849 0.0218066 0.0435188
0.0246909 0.0147618 0.0119652
0.0360058 0.0161568 0.0146608
0.0292559 0.0192846 0.0158262
0.0175263 0.0231071 0.0133265
0.000591717 0.0149731 0.0435188
0.0328311 0.021431 0.00785993
0.0161919 0.0232248 0.0130601
0.0172835 0.0223555 0.014484
0.0160707 0.0128254 0.020644
0.0159149 0.0144711 0.0140855
0.0316123 0.0161662 0.0083311
0.0180141 0.0162437 0.0149443
0.0191527 0.0150886 0.00982134
0.0252904 0.0177557 0.0159976
0.0175152 0.0140151 0.0141449
0.003617 0.0285782 0.0435188
0.0352552 0.0219354 0.0146512
0.0230396 0.0204926 0.0157044
0.0196051 0.0193773 0.00612808
0.0333862 0.0230605 0.00984088
0.016732 0.0142128 0.0135541
0.0179298 0.0140443 0.0132355
0.0352571 0.0191184 0.0157822
0.0330341 0.0219971 0.00833481
0.0341741 0.0229891 0.0132495
0.0208554 0.0238832 0.0135724
0.0176548 0.0240872 0.0131771
0.0260423 0.0180395 0.00731648
0.0244307 0.0206828 0.0156537
0.0313074 0.0154224 0.00916597
0.0228213 0.0219849 0.0148394
0.0274756 0.0231977 0.0101869
0.02549 0.0209096 0.016407
0.024439 0.0187536 0.0159339
0.0317763 0.0168991 0.00772665
0.0324042 0.0228721 0.0134913
0.034654 0.0216389 0.0147796
0.0251811 0.0151566 0.00970336
0.0311064 0.0150232 0.0100278
0.0156466 0.02298 0.015033
0.0296344 0.0173927 0.0154806
0.0243337 0.0151752 0.0133715
0.0214483 0.0168437 0.00645098
0.0255407 0.0185256 0.0165845
0.0196712 0.0163143 0.0149986
0.0282136 0.0229005 0.0134222
0.0167028 0.0228484 0.0138346
0.0551527 0.0181697 0.00595147
0.0365445 0.0148564 0.0124211
0.0183214 0.0236187 0.0137569
0.0362257 0.0155251 0.013924
0.0193754 0.0238956 0.0135575
0.0303903 0.00406748 0.0435188
0.0200295 0.0149742 0.0133068
0.0313073 0.0148992 0.0123969
0.0239306 0.01654 0.0152228
0.0350477 0.0200147 0.0156657
0.0204089 0.014187 0.0128185
0.0209514 0.0215951 0.0080753
0.0263718 0.0192607 0.00715932
0.0205518 0.0202842 0.00742369
0.0370745 0.0150065 0.0100796
0.0298563 0.0165846 0.0150077
0.0277826 0.0233925 0.0113762
0.0570019 0.0175547 0.00590579
0.0232432 0.0226958 0.0140702
0.022348 0.0229198 0.013688
0.0201237 0.0241106 0.01293
0.0153454 0.0161977 0.0159082
0.0332168 0.0225583 0.00897548
0.0221348 0.00230077 0.0435188
0.0172635 0.0234723 0.0119618
0.0287106 0.0215921 0.0149801
0.0197093 0.0146678 0.012288
0.0193823 0.0155379 0.0089827
0.0189144 0.0147834 0.011021
0.020142 0.0159097 0.00853422
0.0219134 0.0237971 0.0134978
0.0206414 0.0146278 0.0119281
0.0309296 0.0148197 0.0109224
0.02946 0.0182873 0.0157556
0.028507 0.0222175 0.0143326
0.0230797 0.0147716 0.0145978
0.0234622 0.0185408 0.0159138
0.0280075 0.0232785 0.0125103
0.0301094 0.015881 0.0144245
0.0208595 0.0152719 0.0151301
0.0211151 0.022338 0.00879111
0.0303402 0.0153069 0.0134447
0.0187408 0.0136901 0.013701
0.026935 0.0188837 0.00598981
0.00769599 0.000270539 0.0402538
0.0244509 0.0215647 0.0151829
0.018755 0.0146086 0.0119937
0.0344147 0.0224796 0.0141302
0.0238054 0.015313 0.0152223
0.0192452 0.0145911 0.013946
0.0324623 0.0197453 0.0073843
0.0221996 0.00109062 0.0435188
0.0199269 0.0175831 0.00741199
0.0321607 0.0184788 0.00723182
0.02226 0.0144848 0.0141019
0.0232607 0.0195202 0.0159182
0.0200817 0.015541 0.0142282
0.0357083 0.0168799 0.0150836
0.0242382 0.0197325 0.0158982
0.0246919 0.0171228 0.0155067
0.0192233 0.0140428 0.0128994
0.0198885 0.0137483 0.0135865
0.0238464 0.0221823 0.0146802
0.0307475 0.0147711 0.0116693
0.108836 0.0200055 0.00584234
0.0183252 0.0152554 0.0138221
0.0185926 0.014837 0.0129538
0.0249849 0.0148698 0.0105558
0.0219927 0.0150328 0.0148943
0.0272 0.0224896 0.0089012
0.0203519 0.0145385 0.0141481
0.0217096 0.0227743 0.00926166
0.0182531 0.023906 0.0147296
0.0249189 0.0216544 0.016062
0.0167916 0.023815 0.0135947
0.00937694 0.00505359 0.0435188
0.0186191 0.0240876 0.0129255
0.0237049 0.01744 0.0156533
0.0146581 0.0230586 0.0149035
0.0213067 0.0142107 0.0135363
0.024947 0.0190645 0.00586966
0.0288557 0.0208274 0.0154198

VERTICES 139 278
1 0
1 1
1 2
1 3
1 4
1 5
1 6
1 7
1 8
1 9
1 10
1 11
1 12
1 13
1 14
1 15
1 16
1 17
1 18
1 19
1 20
1 21
1 22
1 23
1 24
1 25
1 26
1 27
1 28
1 29
1 30
1 31
1 32
1 33
1 34
1 35
1 36
1 37
1 38
1 39
1 40
1 41
1 42
1 43
1 44
1 45
1 46
1 47
1 48
1 49
1 50
1 51
1 52
1 53
1 54
1 55
1 56
1 57
1 58
1 59
1 60
1 61
1 62
1 63
1 64
1 65
1 66
1 67
1 68
1 69
1 70
1 71
1 72
1 73
1 74
1 75
1 76
1 77
1 78
1 79
1 80
1 81
1 82
1 83
1 84
1 85
1 86
1 87
1 88
1 89
1 90
1 91
1 92
1 93
1 94
1 95
1 96
1 97
1 98
1 99
1 100
1 101
1 102
1 103
1 104
1 105
1 106
1 107
1 108
1 109
1 110
1 111
1 112
1 113
1 114
1 115
1 116
1 117
1 118
1 119
1 120
1 121
1 122
1 123
1 124
1 125
1 126
1 127
1 128
1 129
1 130
1 131
1 132
1 133
1 134
1 135
1 136
1 137
1 138

POINT_DATA 139
SCALARS id int 1
LOOKUP_TABLE default
1
2
4
5
11
13
15
16
17
18
19
20
24
25
27
28
31
32
33
35
37
41
43
44
47
49
52
54
57
59
62
63
65
67
68
71
73
74
76
79
80
84
85
86
87
88
89
90
92
97
103
106
108
109
110
112
116
121
122
124
125
126
128
130
131
133
135
137
138
139
141
142
143
147
149
150
151
157
158
160
161
165
166
167
170
171
173
174
179
185
186
187
191
193
194
197
199
200
205
206
215
220
224
225
226
227
228
229
232
235
237
240
241
242
247
248
252
253
256
257
258
260
263
268
269
270
271
272
274
275
277
282
284
288
289
291
294
299
300

SCALARS type int 1
LOOKUP_TABLE default
1
1
1
1
1
1
1
1
1
1
1
1
1
1
1
1
1
1
1
1
1
1
1
1
1
1
1
1
1
1
1
1
1
1
1
1
1
1
1
1
1
1
1
1
1
1
1
1
1
1
1
1
1
1
1
1
1
1
1
1
1
1
1
1
1
1
1
1
1
1
1
1
1
1
1
1
1
1
1
1
1
1
1
1
1
1
1
1
1
1
1
1
1
1
1
1
1
1
1
1
1
1
1
1
1
1
1
1
1
1
1
1
1
1
1
1
1
1
1
1
1
1
1
1
1
1
1
1
1
1
1
1
1
1
1
1
1
1
1

SCALARS radius float 1
LOOKUP_TABLE default
0.0005
0.0005
0.0005
0.0005
0.0005
0.0005
0.0005
0.0005
0.0005
0.0005
0.0005
0.0005
0.0005
0.0005
0.0005
0.0005
0.0005
0.0005
0.0005
0.0005
0.0005
0.0005
0.0005
0.0005
0.0005
0.0005
0.0005
0.0005
0.0005
0.0005
0.0005
0.0005
0.0005
0.0005
0.0005
0.0005
0.0005
0.0005
0.0005
0.0005
0.0005
0.0005
0.0005
0.0005
0.0005
0.0005
0.0005
0.0005
0.0005
0.0005
0.0005
0.0005
0.0005
0.0005
0.0005
0.0005
0.0005
0.0005
0.0005
0.0005
0.0005
0.0005
0.0005
0.0005
0.0005
0.0005
0.0005
0.0005
0.0005
0.0005
0.0005
0.0005
0.0005
0.0005
0.0005
0.0005
0.0005
0.0005
0.0005
0.0005
0.0005
0.0005
0.0005
0.0005
0.0005
0.0005
0.0005
0.0005
0.0005
0.0005
0.0005
0.0005
0.0005
0.0005
0.0005
0.0005
0.0005
0.0005
0.0005
0.0005
0.0005
0.0005
0.0005
0.0005
0.0005
0.0005
0.0005
0.0005
0.0005
0.0005
0.0005
0.0005
0.0005
0.0005
0.0005
0.0005
0.0005
0.0005
0.0005
0.0005
0.0005
0.0005
0.0005
0.0005
0.0005
0.0005
0.0005
0.0005
0.0005
0.0005
0.0005
0.0005
0.0005
0.0005
0.0005
0.0005
0.0005
0.0005
0.0005

SCALARS mass float 1
LOOKUP_TABLE default
1.46608e-07
1.46608e-07
1.46608e-07
1.46608e-07
1.46608e-07
1.46608e-07
1.46608e-07
1.46608e-07
1.46608e-07
1.46608e-07
1.46608e-07
1.46608e-07
1.46608e-07
1.46608e-07
1.46608e-07
1.46608e-07
1.46608e-07
1.46608e-07
1.46608e-07
1.46608e-07
1.46608e-07
1.46608e-07
1.46608e-07
1.46608e-07
1.46608e-07
1.46608e-07
1.46608e-07
1.46608e-07
1.46608e-07
1.46608e-07
1.46608e-07
1.46608e-07
1.46608e-07
1.46608e-07
1.46608e-07
1.46608e-07
1.46608e-07
1.46608e-07
1.46608e-07
1.46608e-07
1.46608e-07
1.46608e-07
1.46608e-07
1.46608e-07
1.46608e-07
1.46608e-07
1.46608e-07
1.46608e-07
1.46608e-07
1.46608e-07
1.46608e-07
1.46608e-07
1.46608e-07
1.46608e-07
1.46608e-07
1.46608e-07
1.46608e-07
1.46608e-07
1.46608e-07
1.46608e-07
1.46608e-07
1.46608e-07
1.46608e-07
1.46608e-07
1.46608e-07
1.46608e-07
1.46608e-07
1.46608e-07
1.46608e-07
1.46608e-07
1.46608e-07
1.46608e-07
1.46608e-07
1.46608e-07
1.46608e-07
1.46608e-07
1.46608e-07
1.46608e-07
1.46608e-07
1.46608e-07
1.46608e-07
1.46608e-07
1.46608e-07
1.46608e-07
1.46608e-07
1.46608e-07
1.46608e-07
1.46608e-07
1.46608e-07
1.46608e-07
1.46608e-07
1.46608e-07
1.46608e-07
1.46608e-07
1.46608e-07
1.46608e-07
1.46608e-07
1.46608e-07
1.46608e-07
1.46608e-07
1.46608e-07
1.46608e-07
1.46608e-07
1.46608e-07
1.46608e-07
1.46608e-07
1.46608e-07
1.46608e-07
1.46608e-07
1.46608e-07
1.46608e-07
1.46608e-07
1.46608e-07
1.46608e-07
1.46608e-07
1.46608e-07
1.46608e-07
1.46608e-07
1.46608e-07
1.46608e-07
1.46608e-07
1.46608e-07
1.46608e-07
1.46608e-07
1.46608e-07
1.46608e-07
1.46608e-07
1.46608e-07
1.46608e-07
1.46608e-07
1.46608e-07
1.46608e-07
1.46608e-07
1.46608e-07
1.46608e-07
1.46608e-07
1.46608e-07
1.46608e-07
1.46608e-07

VECTORS velocity float
0.00286242 -0.00361091 -0.0088265
0.00260505 0.00083016 -0.00239273
0.000683127 -0.0179089 -0.00151533
0.000552332 -0.017511 -0.00589875
0.00106344 0.0131301 0.0194028
0.00266543 -0.00480816 0.00186202
3.64665e-15 5.39183e-16 -3.69008e-14
1.76445e-14 2.84162e-15 -2.87664e-13
0.000594555 0.00460615 0.0193542
-9.6879e-317 9.73506e-317 2.68131e-13
0.00227934 0.00221102 0.0126034
0.00153254 0.00939707 0.0100187
0.00132824 0.0166092 -0.0017004
-0.000341757 -0.00106518 -0.000415633
6.45841e-276 -8.83484e-276 -8.23806e-13
0.00129573 -0.00939287 -0.00840306
0.00373402 0.00302408 -0.0057393
0.00928794 0.00593901 -0.0050691
0.120737 0.0785611 -0.206831
0.000145626 -0.00112982 0.001764
0.000326142 -0.014621 0.014102
0.00397417 0.00325593 0.00288911
0.00039614 -0.00782507 0.0190346
0.0022319 0.0257841 0.0020388
-0.00121205 -0.00145534 -0.00158054
-9.68849e-317 -9.75601e-317 2.88878e-12
0.000719085 0.0170647 -0.0138139
0.00032429 0.0204791 -0.0070467
-3.5885e-14 1.61234e-14 -3.28527e-13
0.000220437 -0.00807361 -0.0186122
0.000758081 -0.000233931 0.000138134
0.000291322 0.00104161 -0.00182922
0.000196917 0.0224216 0.00189944
0.000702312 -0.01325 -0.0124585
0.000820331 0.00791847 -0.0184413
0.0159582 0.00916653 -0.0179628
0.00227195 0.00029689 0.00285239
0.000163293 -0.0209722 0.00456765
0.00476758 0.00012532 0.00207502
0.000290212 -0.0116261 0.0184699
0.000474577 0.0472915 -0.0406856
0.00060236 -0.00417798 -0.0104533
-0.000322264 -0.000965677 -0.00139942
0.00596309 -0.0022075 -0.00093133
0.000498418 -0.0188809 0.00985534
-1.18441e-05 0.0103497 -0.0193032
9.52115e-05 0.0181757 -0.0128691
0.000692615 -0.00663761 0.0138217
0.000714428 -0.00531065 0.0141805
0.00929995 0.0292958 -0.0329314
0.00121142 0.010913 0.00557789
0.00031119 0.00952789 0.0184594
-2.38713e-14 5.08687e-14 1.8434e-13
0.000172353 0.0259194 0.00273779
-0.00172314 -0.00726963 -0.00609316
-0.000300086 0.011865 -0.0192799
0.00176032 0.00153561 -0.001523
-1.3007e-14 -1.76686e-14 -2.51655e-13
0.000486399 0.00334897 0.0186127
0.000142695 -0.00349376 -0.00150355
7.40989e-05 0.0115059 0.0184168
-0.000314968 2.56553e-05 -0.00353405
-9.67556e-317 -9.75879e-317 -3.22607e-12
-0.0138467 -0.0051947 -0.00560026
0.000965044 0.00344908 0.0153268
0.00134436 0.0184545 0.0149872
0.00125685 0.0174156 -0.00495155
0.0109571 0.00099951 0.00292594
5.27822e-05 -0.0172568 -0.0132667
0.00218581 -0.0103544 -0.0025855
0.000121748 -0.0209899 -0.0069073
0.00150909 -0.00480794 0.0162014
0.000388898 0.0160168 0.0131624
0.0006052 0.00032562 -0.0212394
4.35291e-15 1.19391e-14 2.80765e-13
0.000318043 -0.000407704 0.000371365
0.00371563 0.00346357 -0.00559282
-0.000157541 0.0022495 -0.00181429
0.00363397 -0.0144096 -0.00889263
0.000727665 -0.0104997 -0.0147921
9.74157e-317 -9.69799e-317 9.23294e-13
0.00204171 0.000878349 -0.000725175
0.000641319 0.014957 -0.0116938
0.00523059 0.00231307 0.00729551
0.000147708 -0.0134295 0.0172308
6.61943e-05 -0.00354365 0.0221929
-4.36959e-05 -0.0141456 0.0151634
0.000168526 0.00238094 -0.00149842
0.0024175 -0.000218548 0.000287515
0.000894202 -0.00266474 0.0180089
-0.000126707 0.0198387 0.00401628
0.000319857 0.0138958 -0.0155358
-0.00257835 -0.00177278 -0.0014345
0.001048 0.0183716 0.00221709
0.000930331 0.00338865 -0.0174113
0.000480731 0.0137208 0.0143325
-0.0601348 0.000461747 -0.0491738
9.49834e-05 -0.00683512 -0.00927145
-0.000120382 0.00883449 0.0205694
-0.00194533 -0.00606033 -0.00335909
1.43031e-14 2.30421e-15 -2.33189e-13
-2.932e-05 -0.148083 -0.3084
0.00055351 0.000293144 0.00185386
-0.00081653 -0.00745443 0.0284158
8.97459e-05 0.0125221 -0.0143468
-0.0071379 -0.00319822 0.00356451
-0.0191322 0.0344804 -0.0487861
-0.000269612 -0.0214452 -0.00264431
9.58743e-317 9.68145e-317 4.97437e-14
0.00167073 -0.00954025 0.00268746
0.000276506 -0.0205968 0.0015059
-0.0033566 -0.00181773 -0.00108579
0.00177854 0.0182612 -0.00338564
-0.00246736 -0.00277764 -0.00391378
-0.000675918 0.0173004 0.0104835
0.00860983 -0.00130617 0.000931762
0.00221466 0.0199737 0.00955461
0.00035988 0.000565888 -0.00146799
0.0101689 0.000536024 -0.015857
0.000568584 -7.95219e-05 0.000732889
0.00163429 0.00111078 0.0152535
7.6709e-16 -1.2768e-15 -6.97331e-15
-0.00203351 0.00994143 0.0308562
9.8147e-05 -0.00412202 0.0298935
0.000901946 -0.00457931 0.0193824
-0.014911 -0.0124578 -0.0108524
0.00138488 -0.0103598 -0.0120227
-0.00112393 0.011782 -0.00202192
0.00369751 -0.00663707 -0.0103796
0.00336216 0.000878544 -0.000138212
0.000783491 0.000805601 0.00181014
0.0021509 0.00185524 0.000232959
-9.68799e-317 -9.69932e-317 9.23294e-13
-0.000490514 -0.000202255 -0.000729837
0.000573849 0.0190821 0.00760376
0.00288726 0.00158462 -0.000907696
-0.0170131 -0.00287794 -0.0154935
2.60468e-15 4.5635e-16 -4.25289e-14
0.000279779 0.0196858 -0.0079702

VECTORS force float
-7.19464e-05 -9.98165e-05 -0.000177205
1.92734e-06 8.25304e-07 -1.36971e-06
3.78661e-06 4.05896e-05 2.88986e-06
3.34397e-09 2.23866e-09 1.33354e-08
2.63998e-08 2.97982e-09 -2.29415e-08
-1.1465e-06 1.0687e-07 -1.65329e-06
4.63221e-21 -7.05089e-21 4.23516e-22
-2.44845e-21 1.18138e-20 0.0
-6.5556e-10 1.00866e-08 2.23515e-09
0.0 0.0 0.0
-6.45807e-09 -9.90653e-09 -6.38548e-08
-4.08086e-08 2.34923e-08 -9.11048e-09
-9.23916e-09 2.76153e-08 -1.78192e-08
2.09149e-06 -1.58121e-06 3.69954e-06
2.04185e-278 -2.79317e-278 0.0
5.17223e-09 6.95794e-08 3.04014e-08
-1.5214e-05 4.01625e-06 -1.40779e-05
-3.18576e-07 9.80449e-07 -1.22095e-06
0.0 0.0 -1.43822e-06
1.89622e-07 -9.26776e-08 -9.17428e-08
-9.22379e-09 9.08149e-08 -3.25578e-08
2.59255e-08 -1.10804e-07 -7.43847e-08
-4.35703e-09 5.43512e-09 1.3913e-08
-3.02852e-08 1.16486e-08 6.57258e-09
-5.63029e-07 4.81861e-07 -2.58891e-07
0.0 0.0 0.0
-7.65494e-10 -3.62717e-09 -8.87159e-09
-7.38117e-10 -1.42363e-09 -1.56644e-08
8.4968e-21 -2.6311e-20 -2.11758e-21
-2.57631e-10 -1.22542e-08 -3.1174e-09
-1.08627e-07 1.39291e-08 -1.92512e-07
-7.30332e-07 8.21799e-07 -5.57131e-07
1.94834e-09 4.46866e-10 -1.13412e-08
2.14923e-09 8.45514e-09 4.42237e-09
-1.20461e-08 5.88833e-09 -2.39523e-08
-5.58144e-08 -1.63475e-07 3.6365e-07
5.4525e-06 8.88346e-06 9.13355e-07
-7.00906e-10 -2.70095e-09 1.14187e-08
7.06693e-08 -1.28349e-06 -1.11085e-06
-1.52839e-08 -6.4344e-08 1.11809e-07
1.14976e-10 1.91196e-07 -2.81045e-07
-1.22301e-06 5.47598e-08 -1.10247e-06
-3.46995e-08 1.06296e-07 2.80218e-07
-2.84652e-07 1.83365e-06 2.37547e-06
-2.46149e-07 3.37572e-07 -9.44543e-08
-6.42198e-10 -7.04866e-09 -1.31933e-08
-3.04962e-09 -4.0857e-09 -1.14166e-08
-1.08513e-09 7.3643e-09 -2.91135e-08
-5.10746e-09 1.10596e-08 3.97122e-08
-2.06823e-07 3.3614e-07 -4.70374e-07
-1.83031e-06 1.74047e-06 3.65966e-07
-1.24846e-08 8.05928e-08 1.2722e-07
-1.09638e-19 -2.75815e-20 -7.41154e-21
2.28578e-09 1.68942e-08 -1.28589e-08
2.75428e-08 -1.98519e-07 -1.17414e-07
-1.58753e-09 -7.95673e-09 -7.62482e-09
9.27589e-08 -3.4887e-06 -4.91191e-06
2.92094e-20 -1.61598e-20 -6.35275e-22
1.73255e-09 1.21739e-08 -3.40866e-09
-1.54663e-06 1.49707e-07 1.05273e-06
3.41003e-09 -1.08227e-10 -3.214e-08
0.0 0.0 -1.43822e-06
0.0 0.0 0.0
1.10683e-07 -2.56399e-07 -1.04415e-06
1.15543e-09 -1.49748e-09 -2.11951e-08
2.37416e-08 -1.48682e-08 -1.42885e-08
-8.76412e-09 2.00971e-08 -1.8483e-08
-7.51517e-07 8.11884e-07 -1.16746e-06
1.21504e-10 -1.02197e-08 5.34657e-09
1.78878e-07 1.89306e-06 1.40883e-06
-1.06109e-09 -8.64153e-09 9.32047e-09
-1.16728e-08 3.86261e-10 3.49908e-08
4.92166e-07 3.79232e-07 -2.78004e-08
1.27208e-09 -1.09431e-08 -2.47013e-09
1.09482e-19 -8.39224e-20 1.90582e-21
4.7725e-07 -8.26743e-07 -3.3771e-07
2.65737e-07 -2.11002e-07 6.71306e-07
-7.78022e-08 -3.92525e-09 8.36614e-08
-2.72636e-08 -1.10971e-07 -1.4334e-08
-1.16926e-08 -7.48189e-08 -6.60429e-08
0.0 0.0 0.0
4.2865e-08 -1.86686e-09 -2.48099e-07
-4.5974e-09 3.88186e-09 -2.54876e-08
-4.75124e-07 -3.11291e-07 -1.1452e-06
-9.1161e-10 6.34013e-09 1.01451e-08
-7.53245e-10 1.11161e-08 4.04647e-09
-5.22732e-10 2.33624e-09 1.22144e-08
-2.52835e-08 5.29056e-09 1.15104e-08
-3.90054e-08 -8.56562e-08 -2.58019e-08
-3.09991e-09 4.21856e-09 3.9833e-09
2.95797e-06 1.64163e-06 1.46061e-06
-1.88277e-09 -1.31349e-09 -1.20027e-08
-5.79879e-08 -1.58566e-07 1.78213e-07
1.23762e-07 7.24919e-07 -6.67604e-09
-7.84434e-09 -6.55158e-09 -2.32361e-08
-6.69612e-09 8.66126e-08 6.05947e-08
0.00021438 -0.000239682 0.000517789
2.36334e-05 -0.000104001 2.51412e-06
-2.25327e-09 1.05565e-08 -8.66197e-11
6.15018e-07 2.50695e-07 4.76708e-07
-2.91168e-22 1.71557e-21 0.0
0.0 0.0 -1.43822e-06
1.04619e-06 -3.46764e-07 3.38813e-07
0.0 0.0 -1.43822e-06
4.95819e-09 -9.95613e-09 -1.01777e-08
-1.55018e-07 -2.58958e-07 -2.16324e-07
0.0 0.0 -1.43822e-06
-1.8592e-08 -3.03702e-08 2.13592e-09
0.0 0.0 0.0
-5.69149e-09 2.27118e-08 1.97115e-09
-4.96375e-09 -7.05847e-08 2.12901e-08
1.47632e-06 -6.82982e-07 -1.25082e-05
7.67738e-08 2.46836e-07 -1.35911e-06
0.0 0.0 -1.43822e-06
1.60371e-09 2.7309e-08 1.18683e-08
-4.24537e-07 -2.44242e-07 -9.76554e-07
2.4953e-09 9.99347e-09 -1.23451e-08
1.13169e-07 1.16003e-06 -7.35094e-07
0.0 0.0 -1.43822e-06
2.26465e-06 -2.30863e-08 -1.8732e-06
4.84571e-09 9.76878e-09 -9.66085e-09
0.0 5.29396e-23 0.0
0.0 0.0 -1.43822e-06
0.0 0.0 -1.43822e-06
4.51749e-09 1.58211e-08 4.17368e-09
-1.21007e-06 1.51673e-06 1.3193e-05
-1.41695e-08 -6.59214e-08 -5.82925e-08
0.0 0.0 -1.43822e-06
-0.000264874 -2.51781e-05 -7.44632e-05
-8.09117e-07 -1.52286e-08 -1.22872e-06
1.42527e-07 -1.37145e-08 9.2481e-08
2.64325e-06 1.98773e-05 3.08191e-06
0.0 0.0 0.0
5.10548e-06 1.34177e-06 -1.11247e-05
-2.62667e-10 6.36209e-09 -1.22679e-08
-2.77104e-08 -9.32324e-10 2.80913e-08
-2.12614e-08 -3.35035e-08 4.27291e-08
2.41272e-20 -8.76927e-20 4.23516e-22
8.25144e-10 2.54196e-09 -1.10723e-08
