# vtk DataFile Version 3.0
LIGGGHTS particles timestep 13000000
ASCII
DATASET POLYDATA
POINTS 132 float
0.0224188 0.0149961 0.0133588
0.0203586 0.0240057 0.0127427
0.0210488 0.0204344 0.0157894
0.0332291 0.0191746 0.0158288
0.0257397 0.0202807 0.0166079
0.00938048 0.0183393 0.00587271
0.0260148 0.0196703 0.00594114
0.0311376 0.0225413 0.008904
0.0366849 0.0218066 0.0435188
0.0166152 0.0163025 0.0149933
0.0369876 0.0219313 0.00825508
0.0297938 0.0170914 0.00764665
0.0180999 0.0152708 0.0150474
0.000591717 0.0149731 0.0435188
0.0335549 0.0175664 0.0155044
0.0188701 0.0216201 0.00804463
0.0207272 0.0231906 0.0130758
0.0187271 0.0147348 0.0144825
0.0165596 0.0147743 0.0127428
0.0323464 0.0226217 0.0138778
0.0204353 0.0144566 0.0141014
0.0203552 0.022818 0.0138657
0.025768 0.0233934 0.0115744
0.0176222 0.0142424 0.0128981
0.003617 0.0285782 0.0435188
0.0369631 0.0204878 0.0075647
0.0196051 0.0193773 0.00612808
0.0344781 0.0149742 0.0127259
0.0172823 0.0146385 0.0120454
0.0181413 0.0144291 0.013732
0.0351277 0.0218086 0.00813158
0.0339489 0.016309 0.0147992
0.0350407 0.0149881 0.0101501
0.0247447 0.0218644 0.0159421
0.0177623 0.0237249 0.0139288
0.0267792 0.0210284 0.0153208
0.0232097 0.0222782 0.0158882
0.0320591 0.023146 0.0128879
0.0278276 0.0155686 0.0140859
0.0253253 0.0211468 0.0163266
0.0325726 0.0217426 0.014802
0.0324161 0.0155591 0.00900448
0.0356778 0.0167006 0.00789188
0.0264069 0.0222239 0.0142346
0.0318182 0.0233379 0.0119081
0.0171785 0.0240245 0.0131735
0.0303303 0.0194508 0.0072466
0.017584 0.0161033 0.0148457
0.0214483 0.0168437 0.00645098
0.024114 0.0224969 0.0154929
0.0193005 0.0241236 0.0129614
0.0290426 0.0149868 0.0102568
0.0228485 0.0234686 0.0143454
0.0551527 0.0181697 0.00595147
0.0384608 0.0221872 0.014162
0.0195999 0.0219236 0.00829939
0.037189 0.0226323 0.00918933
0.0212279 0.0239786 0.0132319
0.0303903 0.00406748 0.0435188
0.0225909 0.0219667 0.0151302
0.0324869 0.0233909 0.0113197
0.0167132 0.0151807 0.0136872
0.0360057 0.0179616 0.0073193
0.0227922 0.0210454 0.0154793
0.0215994 0.0181108 0.015845
0.027038 0.0201046 0.0156967
0.0212889 0.0192028 0.0159599
0.038638 0.0215018 0.0148878
0.0305556 0.0204442 0.0074252
0.0283997 0.0150456 0.0129134
0.0570019 0.0175547 0.00590579
0.0241183 0.0183373 0.00726961
0.0234875 0.0159712 0.00849807
0.0192948 0.0228272 0.00953687
0.01615 0.0156573 0.0143734
0.0341448 0.0155298 0.0139753
0.0221348 0.00230077 0.0435188
0.018585 0.0205783 0.00748084
0.029423 0.0157131 0.00880354
0.0218289 0.021307 0.0154206
0.0205923 0.0222465 0.0147521
0.0168336 0.0142025 0.0135164
0.0194391 0.0143486 0.0138961
0.0221183 0.0236033 0.0136757
0.0220432 0.0202912 0.0157714
0.0316408 0.0233548 0.0108005
0.0301104 0.0182543 0.00726384
0.0292517 0.0152923 0.00943397
0.0228525 0.0145814 0.0145289
0.0245476 0.0198163 0.00585259
0.0287484 0.0147558 0.0114476
0.0307923 0.0212481 0.00773416
0.021662 0.0220578 0.0147711
0.0198809 0.0158221 0.0156825
0.0309599 0.0218462 0.00822329
0.0185961 0.0140195 0.0129382
0.026935 0.0188837 0.00598981
0.0234513 0.0231039 0.0150548
0.0197437 0.0148804 0.0146862
0.0354593 0.015817 0.00865929
0.0228567 0.0196282 0.0159035
0.0218068 0.0233089 0.0127724
0.0330586 0.0199411 0.0156589
0.0221996 0.00109062 0.0435188
0.0208176 0.0213682 0.0153908
0.0328022 0.0208406 0.015355
0.0231571 0.0153326 0.0139432
0.0247637 0.0209301 0.0078964
0.021468 0.0228578 0.0138246
0.0367308 0.0212124 0.00783391
0.0151404 0.0228307 0.0138543
0.0195952 0.0139986 0.0129726
0.0205683 0.0140546 0.0131955
0.0176851 0.0153047 0.0138906
0.0313885 0.0230814 0.00986251
0.108836 0.0200055 0.00584234
0.0207861 0.0234821 0.0118538
0.0195848 0.0232608 0.0106163
0.0259899 0.0232388 0.0126344
0.0219804 0.0140935 0.0144955
0.0277688 0.0168802 0.0151654
0.0214326 0.0142232 0.0136691
0.022202 0.0154254 0.0142355
0.0223831 0.0225379 0.0142662
0.0161291 0.0227433 0.013976
0.0181612 0.0240801 0.0130279
0.00937694 0.00505359 0.0435188
0.0203146 0.0231827 0.0102665
0.0163277 0.0237159 0.0138564
0.02292 0.0159482 0.0146948
0.0254808 0.018723 0.00589902
0.0295796 0.0162901 0.0082558

VERTICES 132 264
1 0
1 1
1 2
1 3
1 4
1 5
1 6
1 7
1 8
1 9
1 10
1 11
1 12
1 13
1 14
1 15
1 16
1 17
1 18
1 19
1 20
1 21
1 22
1 23
1 24
1 25
1 26
1 27
1 28
1 29
1 30
1 31
1 32
1 33
1 34
1 35
1 36
1 37
1 38
1 39
1 40
1 41
1 42
1 43
1 44
1 45
1 46
1 47
1 48
1 49
1 50
1 51
1 52
1 53
1 54
1 55
1 56
1 57
1 58
1 59
1 60
1 61
1 62
1 63
1 64
1 65
1 66
1 67
1 68
1 69
1 70
1 71
1 72
1 73
1 74
1 75
1 76
1 77
1 78
1 79
1 80
1 81
1 82
1 83
1 84
1 85
1 86
1 87
1 88
1 89
1 90
1 91
1 92
1 93
1 94
1 95
1 96
1 97
1 98
1 99
1 100
1 101
1 102
1 103
1 104
1 105
1 106
1 107
1 108
1 109
1 110
1 111
1 112
1 113
1 114
1 115
1 116
1 117
1 118
1 119
1 120
1 121
1 122
1 123
1 124
1 125
1 126
1 127
1 128
1 129
1 130
1 131

POINT_DATA 132
SCALARS id int 1
LOOKUP_TABLE default
1
2
4
5
11
15
16
17
18
19
20
24
25
27
28
31
32
33
35
37
41
43
44
47
49
52
57
59
62
63
65
67
68
71
73
74
76
79
84
86
87
88
89
90
92
97
103
106
108
109
110
112
116
121
122
124
125
126
128
130
131
133
135
137
138
139
141
142
143
147
149
150
151
157
158
160
161
165
166
167
170
171
173
174
179
185
186
187
191
193
194
197
199
200
205
206
215
224
225
226
227
228
229
232
235
237
240
241
242
247
252
253
256
257
258
260
263
268
269
270
271
272
274
275
277
282
284
288
291
294
299
300

SCALARS type int 1
LOOKUP_TABLE default
1
1
1
1
1
1
1
1
1
1
1
1
1
1
1
1
1
1
1
1
1
1
1
1
1
1
1
1
1
1
1
1
1
1
1
1
1
1
1
1
1
1
1
1
1
1
1
1
1
1
1
1
1
1
1
1
1
1
1
1
1
1
1
1
1
1
1
1
1
1
1
1
1
1
1
1
1
1
1
1
1
1
1
1
1
1
1
1
1
1
1
1
1
1
1
1
1
1
1
1
1
1
1
1
1
1
1
1
1
1
1
1
1
1
1
1
1
1
1
1
1
1
1
1
1
1
1
1
1
1
1
1

SCALARS radius float 1
LOOKUP_TABLE default
0.0005
0.0005
0.0005
0.0005
0.0005
0.0005
0.0005
0.0005
0.0005
0.0005
0.0005
0.0005
0.0005
0.0005
0.0005
0.0005
0.0005
0.0005
0.0005
0.0005
0.0005
0.0005
0.0005
0.0005
0.0005
0.0005
0.0005
0.0005
0.0005
0.0005
0.0005
0.0005
0.0005
0.0005
0.0005
0.0005
0.0005
0.0005
0.0005
0.0005
0.0005
0.0005
0.0005
0.0005
0.0005
0.0005
0.0005
0.0005
0.0005
0.0005
0.0005
0.0005
0.0005
0.0005
0.0005
0.0005
0.0005
0.0005
0.0005
0.0005
0.0005
0.0005
0.0005
0.0005
0.0005
0.0005
0.0005
0.0005
0.0005
0.0005
0.0005
0.0005
0.0005
0.0005
0.0005
0.0005
0.0005
0.0005
0.0005
0.0005
0.0005
0.0005
0.0005
0.0005
0.0005
0.0005
0.0005
0.0005
0.0005
0.0005
0.0005
0.0005
0.0005
0.0005
0.0005
0.0005
0.0005
0.0005
0.0005
0.0005
0.0005
0.0005
0.0005
0.0005
0.0005
0.0005
0.0005
0.0005
0.0005
0.0005
0.0005
0.0005
0.0005
0.0005
0.0005
0.0005
0.0005
0.0005
0.0005
0.0005
0.0005
0.0005
0.0005
0.0005
0.0005
0.0005
0.0005
0.0005
0.0005
0.0005
0.0005
0.0005

SCALARS mass float 1
LOOKUP_TABLE default
1.46608e-07
1.46608e-07
1.46608e-07
1.46608e-07
1.46608e-07
1.46608e-07
1.46608e-07
1.46608e-07
1.46608e-07
1.46608e-07
1.46608e-07
1.46608e-07
1.46608e-07
1.46608e-07
1.46608e-07
1.46608e-07
1.46608e-07
1.46608e-07
1.46608e-07
1.46608e-07
1.46608e-07
1.46608e-07
1.46608e-07
1.46608e-07
1.46608e-07
1.46608e-07
1.46608e-07
1.46608e-07
1.46608e-07
1.46608e-07
1.46608e-07
1.46608e-07
1.46608e-07
1.46608e-07
1.46608e-07
1.46608e-07
1.46608e-07
1.46608e-07
1.46608e-07
1.46608e-07
1.46608e-07
1.46608e-07
1.46608e-07
1.46608e-07
1.46608e-07
1.46608e-07
1.46608e-07
1.46608e-07
1.46608e-07
1.46608e-07
1.46608e-07
1.46608e-07
1.46608e-07
1.46608e-07
1.46608e-07
1.46608e-07
1.46608e-07
1.46608e-07
1.46608e-07
1.46608e-07
1.46608e-07
1.46608e-07
1.46608e-07
1.46608e-07
1.46608e-07
1.46608e-07
1.46608e-07
1.46608e-07
1.46608e-07
1.46608e-07
1.46608e-07
1.46608e-07
1.46608e-07
1.46608e-07
1.46608e-07
1.46608e-07
1.46608e-07
1.46608e-07
1.46608e-07
1.46608e-07
1.46608e-07
1.46608e-07
1.46608e-07
1.46608e-07
1.46608e-07
1.46608e-07
1.46608e-07
1.46608e-07
1.46608e-07
1.46608e-07
1.46608e-07
1.46608e-07
1.46608e-07
1.46608e-07
1.46608e-07
1.46608e-07
1.46608e-07
1.46608e-07
1.46608e-07
1.46608e-07
1.46608e-07
1.46608e-07
1.46608e-07
1.46608e-07
1.46608e-07
1.46608e-07
1.46608e-07
1.46608e-07
1.46608e-07
1.46608e-07
1.46608e-07
1.46608e-07
1.46608e-07
1.46608e-07
1.46608e-07
1.46608e-07
1.46608e-07
1.46608e-07
1.46608e-07
1.46608e-07
1.46608e-07
1.46608e-07
1.46608e-07
1.46608e-07
1.46608e-07
1.46608e-07
1.46608e-07
1.46608e-07
1.46608e-07
1.46608e-07
1.46608e-07
1.46608e-07

VECTORS velocity float
0.00414693 0.00238737 0.00335141
0.000677212 -4.53394e-05 -0.000876033
0.01231 -0.0370516 0.00269393
0.000958856 0.00613107 0.00118359
-0.00159062 0.00553215 -0.00159343
3.64416e-15 5.36496e-16 -3.69011e-14
1.76446e-14 2.8425e-15 -2.87664e-13
-0.000279672 -0.0121199 -0.0153826
-9.6879e-317 9.73506e-317 2.68131e-13
-0.00203132 0.00284427 0.00303402
0.00173589 -0.0128071 -0.0112136
0.000475802 -0.0181509 0.00862944
-0.00465422 0.0012069 -0.00389562
9.71467e-317 9.75789e-317 -8.23806e-13
0.000154902 0.0198393 0.00728608
0.00105949 -0.0124318 -0.0110439
0.00178876 0.000526633 -0.00427862
0.000217935 0.00210499 0.000451548
0.00430447 -0.000598754 0.0029874
0.000502598 0.0110703 -0.0171422
0.000532061 7.36804e-05 0.000499999
0.00262452 0.00232052 -0.00633534
0.000498583 0.00265018 -0.0193191
-4.03169e-05 -0.00048509 0.00132634
-9.68849e-317 -9.75601e-317 2.88878e-12
0.000280323 -0.0193525 -0.00577575
-3.5898e-14 1.6096e-14 -3.28527e-13
0.0011976 0.00638001 0.0177693
-0.000301596 -0.000425804 0.00145352
0.000203401 0.000392973 0.00103882
0.0209451 -0.198309 -0.212513
0.000996433 0.0091868 0.00820339
0.000960742 -0.0050863 0.0179743
0.000742626 -0.00092209 0.00137806
0.00878569 0.000861611 -0.00123098
0.00204734 0.0114965 -0.00625253
0.00496333 0.00911952 0.0102737
-2.60792e-05 0.00887356 -0.0214604
5.30197 1.5695 0.410786
0.00136881 -0.0012239 0.000577555
0.000106891 0.0190562 -0.013092
-8.82197e-05 -0.0136182 0.0180096
0.000120947 -0.0190665 0.0116309
0.000948847 0.0150757 -0.0157678
0.000281227 0.00170561 -0.0206485
0.00395574 0.000849891 0.0048797
9.70405e-05 -0.0221949 -0.00284077
-0.000855989 0.00610429 0.00656115
-2.38879e-14 5.08833e-14 1.84333e-13
-0.000548402 0.000824123 0.00073074
1.53066e-06 -0.000112511 -7.46291e-06
-5.53592e-05 -0.00731871 0.0204485
-0.000926794 0.000926554 0.000468087
-1.3004e-14 -1.76695e-14 -2.51655e-13
-0.000449948 0.016214 -0.015466
-0.000171869 -0.00556877 -0.006583
0.000306342 -0.0110539 -0.0188538
-2.68695e-05 -6.7326e-05 -0.00132706
-9.67556e-317 -9.75879e-317 -3.22607e-12
0.000918622 0.0114082 -0.0108611
0.000107563 -0.00014329 -0.0215471
-0.00139177 -0.00239154 -0.00268904
0.00127317 -0.0178802 0.00243507
0.00167534 0.0141069 -0.00647186
-1.3777e-10 0.0200731 0.00426777
0.000261032 0.0208781 -0.0047021
0.0237842 -0.085873 0.00482068
0.000568304 0.016466 -0.0126471
0.000559729 -0.0177895 -0.00514965
-2.56744e-05 0.00592246 0.0163823
4.24057e-15 1.19224e-14 2.80768e-13
0.000324746 -0.0207767 0.00335091
0.000741629 -0.0090081 0.00950081
0.000309236 -0.00981815 -0.0185004
0.00583871 -0.00311769 -0.00213998
1.9736e-05 0.0118983 0.0191291
9.74157e-317 -9.69799e-317 9.23294e-13
0.000193616 -0.0198061 -0.00778546
0.00135901 -0.0104728 0.0135361
-0.0045352 -0.00593382 0.00214786
0.0120062 0.00185755 0.00542149
0.00461431 -0.00141625 0.000872487
2.34594e-05 0.000143134 0.00136526
0.000361621 -0.000210053 0.000556316
0.0132947 -0.0316045 0.0122453
0.000119232 -0.00198795 -0.022217
0.000534374 -0.0192757 0.00405408
0.000685279 -0.00855202 0.0176817
0.000592333 0.00120286 -0.000986675
2.60723e-15 4.24522e-16 -4.25291e-14
0.00107326 -0.000857158 0.0134083
0.00134378 -0.00984493 -0.00690954
-0.00357071 0.00304158 -0.00578474
-0.00910399 -0.0286169 -0.0175118
0.000547653 -0.0137745 -0.0122126
-0.000199545 -0.000735798 0.00124575
1.43032e-14 2.30416e-15 -2.33189e-13
-0.000841534 0.00154694 -0.000463352
0.000962621 0.00176887 -0.000101596
0.000339585 -0.0131495 0.015387
0.0389251 -0.0203439 0.00294961
0.000363214 0.000474448 -0.000457607
0.00134506 0.0109086 -0.00124816
9.58743e-317 9.68145e-317 4.97437e-14
-0.00868218 -0.0239521 0.00769962
0.000299137 0.0189439 -0.00842154
0.00401343 0.00313654 0.00313049
0.00175622 -0.0136761 -0.0102011
-0.00679873 0.00503697 -0.00920265
0.00211813 -0.014983 -0.00772936
0.00376462 0.000992507 -0.00365015
-0.000260915 -0.00105531 0.00170325
-2.41474e-05 -0.000137451 0.000495595
-0.000661607 0.000179321 -0.000823577
0.000306194 -0.00767015 -0.0201442
7.66974e-16 -1.26223e-15 -6.97609e-15
-7.54767e-05 0.000296032 -0.000282374
0.000861713 -0.00447913 -0.0164935
0.00190899 0.00390645 -0.0165187
0.000741916 0.000686794 -0.000501859
0.000161133 0.0184434 0.0112391
0.000493351 0.00051523 -0.000470606
0.00427008 0.00719298 0.000996263
0.000935028 -0.00642516 -0.02614
0.00268154 0.000609145 -0.00230703
0.0095288 -0.000898564 0.00973239
-9.68799e-317 -9.69932e-317 9.23294e-13
0.00102695 -0.00523988 -0.0166555
0.00170355 0.00110658 -0.000260865
0.00408132 0.00393172 0.00201255
-2.07778e-14 -3.36075e-15 3.38791e-13
0.00195707 -0.0134348 0.0101218

VECTORS force float
5.5464e-07 -3.82063e-07 -9.39734e-08
1.46359e-06 3.54438e-06 -3.37143e-06
0.0 0.0 -1.43822e-06
6.93506e-06 -3.11328e-05 4.02584e-06
-3.06426e-08 1.11277e-06 -5.38642e-08
-3.44107e-22 -4.16072e-20 -6.35275e-22
-3.83812e-22 3.37159e-21 0.0
-1.47103e-08 -3.72039e-08 -2.70939e-08
0.0 0.0 0.0
-3.27755e-08 -1.08684e-07 -6.02088e-08
3.09995e-06 1.29946e-05 9.11024e-06
-8.05928e-09 -6.5444e-08 5.69964e-08
-1.7226e-08 -7.22827e-08 3.69687e-07
0.0 0.0 0.0
-7.18822e-10 8.92059e-09 -8.22693e-09
-2.13699e-08 -1.45394e-08 1.44882e-08
-1.42456e-06 7.37193e-06 -2.26618e-05
1.10807e-07 1.00748e-07 2.55496e-07
1.78081e-07 -3.42291e-07 -7.22653e-07
-5.37292e-09 3.48552e-11 -1.61306e-08
1.26298e-07 2.57855e-07 -1.90955e-07
-9.63792e-06 3.29644e-05 -3.32013e-05
-4.30222e-09 -3.03988e-08 3.66808e-08
-1.20955e-08 -3.96864e-09 2.02143e-07
0.0 0.0 0.0
-7.5488e-08 -1.07438e-07 -1.85131e-07
1.50878e-21 -2.24993e-22 -2.11758e-22
-1.13897e-08 1.30105e-08 2.08355e-08
-1.24554e-07 -9.02172e-09 3.20913e-08
-1.20939e-07 -2.80892e-08 3.73775e-07
0.305462 -0.489807 -0.886602
-2.9084e-09 -5.77843e-09 -9.46799e-09
-6.61698e-09 4.15257e-09 2.07394e-08
1.64083e-06 -2.88771e-06 8.04624e-07
-1.37369e-07 7.00954e-07 -1.46351e-06
2.3317e-09 -1.14195e-08 4.53219e-09
0.0 0.0 -1.43822e-06
-1.82564e-09 -8.99616e-09 -7.35821e-09
0.00529101 -0.0996529 0.354585
2.64549e-07 1.94522e-07 -7.15976e-07
-1.21043e-09 -3.40353e-09 -1.00402e-08
6.83654e-11 4.45013e-09 1.37119e-08
-4.76283e-11 -3.46335e-09 1.76181e-08
4.05057e-09 -9.6956e-09 -1.83685e-08
-1.94957e-09 -8.51151e-09 -9.8872e-09
1.31886e-06 4.4489e-07 -9.69246e-07
-6.55097e-10 -6.45872e-09 1.03716e-08
-2.28945e-08 1.429e-08 3.53087e-08
-2.43522e-20 -1.50878e-20 1.48231e-21
1.54582e-06 -3.44775e-06 2.90357e-07
-1.68275e-09 1.13293e-08 -5.42887e-09
-2.17583e-08 -4.00287e-08 3.0771e-07
-3.11878e-06 1.15267e-06 -1.25574e-06
8.90046e-20 1.32349e-21 -4.44692e-21
5.71409e-09 -4.446e-09 -1.04627e-08
2.56881e-09 -6.5356e-09 1.10402e-08
-6.80484e-09 -1.15393e-08 1.57271e-09
-1.49982e-06 2.09112e-06 -2.77975e-06
0.0 0.0 0.0
-5.21015e-07 1.50467e-07 -1.54839e-06
-9.11093e-10 -9.53113e-09 -5.33216e-09
2.71244e-08 -4.14367e-07 -6.56715e-07
3.89355e-09 2.17394e-08 1.76943e-08
-3.72133e-07 1.15242e-06 -2.37717e-07
-8.76788e-16 2.7807e-09 -1.33714e-08
-4.38075e-09 6.52244e-09 -1.03139e-08
0.0 0.0 -1.43822e-06
-3.80664e-09 -1.97944e-09 -1.26033e-08
7.47207e-10 -1.00489e-08 6.06462e-09
-4.54049e-09 2.02844e-08 1.18364e-08
9.39412e-20 -8.77473e-21 -1.27055e-21
-1.59944e-09 -6.64294e-09 1.15739e-08
5.46514e-09 1.50962e-09 -2.7972e-08
-1.70861e-09 -1.21744e-08 1.14032e-10
6.52135e-08 -2.18491e-07 -2.04757e-07
-7.09015e-10 1.08736e-08 -2.66977e-09
0.0 0.0 0.0
-1.16261e-09 -9.08096e-09 7.98297e-09
5.91595e-06 4.22042e-07 4.78816e-07
-7.99791e-07 6.5328e-07 -1.06826e-06
0.0 0.0 -1.43822e-06
-1.66952e-07 4.7364e-07 -1.26628e-06
-1.95406e-07 7.60066e-08 -8.13092e-08
2.38989e-07 -1.18409e-07 -1.68423e-06
-2.07691e-07 1.2954e-06 -3.27934e-07
1.57088e-09 -9.30873e-09 2.09431e-09
-4.31991e-09 -1.31914e-08 1.32033e-08
-8.71391e-07 -9.82308e-08 -7.33831e-07
-1.43175e-07 1.7105e-07 -7.85923e-07
4.75133e-21 -2.25787e-20 0.0
-1.30344e-10 2.00444e-09 -4.43499e-08
5.0404e-09 4.81129e-09 1.83143e-08
0.0 0.0 -1.43822e-06
0.0 0.0 -1.43822e-06
1.00687e-09 1.17644e-09 9.51219e-09
-1.01632e-07 -1.74087e-07 3.50335e-07
-6.61744e-23 -2.48154e-23 0.0
-1.38133e-06 2.4448e-07 -2.60484e-06
1.71263e-07 -4.64144e-08 1.92657e-08
-2.60526e-09 6.67438e-10 1.49031e-08
-6.10345e-07 8.34434e-07 -6.55453e-08
-1.00731e-06 3.80353e-07 -1.89193e-06
-6.14501e-06 1.54266e-05 -1.39639e-05
0.0 0.0 0.0
0.0 0.0 -1.43822e-06
-2.7242e-06 6.63298e-06 -4.23998e-06
2.56848e-07 1.59811e-07 4.88296e-07
-1.28532e-08 3.07851e-08 -4.00272e-09
2.40918e-07 7.99308e-07 -1.33814e-06
9.48167e-07 -7.40084e-07 1.78213e-06
8.41639e-08 4.29861e-08 -3.97861e-08
-3.51137e-08 2.7697e-08 -1.169e-07
9.68371e-08 1.67282e-07 -1.79594e-07
-5.18488e-08 -3.30196e-07 -5.79731e-07
-1.31414e-06 7.95755e-07 -3.72525e-06
2.96462e-21 -2.11758e-22 2.11758e-22
-1.77174e-08 8.24177e-09 -4.01047e-08
5.35552e-10 -4.82563e-09 2.3113e-09
-6.63582e-07 4.7848e-07 -2.9073e-06
5.07637e-09 2.03778e-07 -1.25028e-07
-1.28383e-09 1.10008e-08 -6.24776e-09
-1.0349e-08 3.26423e-08 -1.10987e-07
-1.37324e-06 -1.26546e-06 1.71191e-06
0.0 0.0 -1.43822e-06
-1.00718e-07 4.23334e-08 -4.00595e-08
3.48133e-06 1.92561e-07 1.97016e-06
0.0 0.0 0.0
-5.2586e-09 -1.08098e-08 -7.13127e-09
2.04623e-08 3.65307e-10 -4.74158e-08
7.56837e-07 9.94012e-07 6.62177e-08
1.05614e-20 -3.56349e-20 2.11758e-22
-9.64153e-06 -7.74549e-06 2.19899e-06
