# vtk DataFile Version 3.0
LIGGGHTS particles timestep 20200000
ASCII
DATASET POLYDATA
POINTS 109 float
0.0189364 0.0241352 0.0129775
0.0169999 0.0239696 0.0133593
0.0210269 0.0138051 0.0140266
0.0552425 0.0189586 0.00589144
0.00938048 0.0183393 0.00587271
0.0260148 0.0196703 0.00594114
0.0393428 0.0173508 0.0154117
0.0366849 0.0218066 0.0435188
0.0444836 0.0212451 0.015214
0.0372318 0.023258 0.0104505
0.0339249 0.0173116 0.00624552
0.000591717 0.0149731 0.0435188
0.042153 0.0196254 0.00721191
0.0207579 0.0234868 0.0118219
0.0278694 0.0157537 0.0142611
0.0411926 0.0158728 0.00875444
0.0223474 0.0147798 0.0120915
0.0320821 0.0225005 0.0141122
0.0205768 0.0140664 0.0131728
0.003617 0.0285782 0.0435188
0.0439541 0.0228358 0.0136147
0.0177449 0.0174882 0.00600758
0.0427956 0.0222209 0.00854967
0.0224786 0.0235991 0.0140936
0.0192763 0.0232937 0.0106937
0.0419146 0.0187216 0.00718335
0.042324 0.0205795 0.00744002
0.0430051 0.0228151 0.00941276
0.0349285 0.0181778 0.00592251
0.033063 0.0187843 0.0158105
0.0270067 0.0190544 0.0158219
0.054387 0.0178804 0.00601135
0.0342931 0.0148527 0.0122818
0.0413721 0.0163437 0.00813096
0.0404367 0.0147982 0.0117136
0.0434145 0.0233952 0.0111608
0.0327895 0.0197584 0.0157381
0.040137 0.0150039 0.0129409
0.0183227 0.0163143 0.00816541
0.0385218 0.0209945 0.0152282
0.0221793 0.0149373 0.0131979
0.0214483 0.0168437 0.00645098
0.0288396 0.0151153 0.0099329
0.035905 0.0186675 0.00728881
0.0586827 0.0172628 0.00598816
0.0792478 0.0194315 0.00576454
0.0200649 0.023233 0.0104889
0.0447392 0.0201296 0.0155981
0.0303903 0.00406748 0.0435188
0.0306778 0.0219136 0.00822955
0.0451041 0.0216543 0.0149507
0.0233267 0.0161883 0.00827221
0.0435745 0.0233452 0.011853
0.0465254 0.0191962 0.00590655
0.0337469 0.0160484 0.0145919
0.0310847 0.0230115 0.0097177
0.0459084 0.0155936 0.0140706
0.0386242 0.0204018 0.0156361
0.0352756 0.0160742 0.00836406
0.0584376 0.0191695 0.00582359
0.0211238 0.0233244 0.0127407
0.0190796 0.0229219 0.00978165
0.020084 0.0201843 0.0061153
0.0425719 0.0215033 0.0080133
0.0221348 0.00230077 0.0435188
0.201805 0.0186174 0.00570934
0.0367353 0.0220279 0.00836396
0.0235249 0.0171482 0.00763145
0.0830234 0.0186618 0.00583976
0.0229659 0.0152049 0.0137543
0.067984 0.0193424 0.00575613
0.0399759 0.0154312 0.013745
0.0383716 0.0215799 0.0147592
0.036511 0.0214073 0.00794273
0.0236149 0.0156507 0.0143714
0.0245476 0.0198163 0.00585259
0.0355138 0.0170344 0.00770718
0.0387798 0.0198566 0.015672
0.0260264 0.0225205 0.0139567
0.0383457 0.0197753 0.00590075
0.026935 0.0188837 0.00598981
0.0282738 0.0148827 0.0123097
0.0432167 0.023195 0.0103776
0.0313717 0.0233585 0.010999
0.041672 0.0177482 0.0073932
0.0221996 0.00109062 0.0435188
0.0414932 0.0168725 0.00780058
0.0317203 0.0232678 0.012529
0.0304512 0.0211102 0.00768875
0.0441841 0.0222638 0.0143889
0.0557897 0.0172859 0.0059806
0.0895649 0.0187731 0.00575225
0.0293616 0.0163046 0.00820907
0.0290652 0.0155457 0.00893465
0.0396754 0.0163035 0.0147461
0.108836 0.0200055 0.00584234
0.0187259 0.0219294 0.008366
0.0324212 0.0213978 0.0150317
0.0299007 0.0186915 0.00717031
0.0340143 0.0152366 0.0134276
0.0197565 0.0234883 0.0118284
0.0301904 0.0198986 0.00730297
0.0257595 0.0232001 0.0128148
0.00937694 0.00505359 0.0435188
0.0377754 0.021451 0.00628508
0.0275303 0.0166022 0.014986
0.0234607 0.0232796 0.0124198
0.0254808 0.018723 0.00589902
0.0370028 0.0227936 0.00949019

VERTICES 109 218
1 0
1 1
1 2
1 3
1 4
1 5
1 6
1 7
1 8
1 9
1 10
1 11
1 12
1 13
1 14
1 15
1 16
1 17
1 18
1 19
1 20
1 21
1 22
1 23
1 24
1 25
1 26
1 27
1 28
1 29
1 30
1 31
1 32
1 33
1 34
1 35
1 36
1 37
1 38
1 39
1 40
1 41
1 42
1 43
1 44
1 45
1 46
1 47
1 48
1 49
1 50
1 51
1 52
1 53
1 54
1 55
1 56
1 57
1 58
1 59
1 60
1 61
1 62
1 63
1 64
1 65
1 66
1 67
1 68
1 69
1 70
1 71
1 72
1 73
1 74
1 75
1 76
1 77
1 78
1 79
1 80
1 81
1 82
1 83
1 84
1 85
1 86
1 87
1 88
1 89
1 90
1 91
1 92
1 93
1 94
1 95
1 96
1 97
1 98
1 99
1 100
1 101
1 102
1 103
1 104
1 105
1 106
1 107
1 108

POINT_DATA 109
SCALARS id int 1
LOOKUP_TABLE default
1
2
4
5
15
16
17
18
20
24
25
27
28
32
33
37
41
44
47
49
52
57
59
62
63
65
67
68
73
74
76
79
84
87
88
89
90
92
97
103
106
108
109
112
121
122
124
125
128
130
131
133
135
137
139
141
142
143
147
149
150
157
158
160
161
165
166
167
173
174
179
185
186
187
191
193
194
197
200
205
215
225
226
227
229
232
237
241
242
247
252
253
256
257
258
260
268
269
270
271
274
275
277
284
288
291
294
299
300

SCALARS type int 1
LOOKUP_TABLE default
1
1
1
1
1
1
1
1
1
1
1
1
1
1
1
1
1
1
1
1
1
1
1
1
1
1
1
1
1
1
1
1
1
1
1
1
1
1
1
1
1
1
1
1
1
1
1
1
1
1
1
1
1
1
1
1
1
1
1
1
1
1
1
1
1
1
1
1
1
1
1
1
1
1
1
1
1
1
1
1
1
1
1
1
1
1
1
1
1
1
1
1
1
1
1
1
1
1
1
1
1
1
1
1
1
1
1
1
1

SCALARS radius float 1
LOOKUP_TABLE default
0.0005
0.0005
0.0005
0.0005
0.0005
0.0005
0.0005
0.0005
0.0005
0.0005
0.0005
0.0005
0.0005
0.0005
0.0005
0.0005
0.0005
0.0005
0.0005
0.0005
0.0005
0.0005
0.0005
0.0005
0.0005
0.0005
0.0005
0.0005
0.0005
0.0005
0.0005
0.0005
0.0005
0.0005
0.0005
0.0005
0.0005
0.0005
0.0005
0.0005
0.0005
0.0005
0.0005
0.0005
0.0005
0.0005
0.0005
0.0005
0.0005
0.0005
0.0005
0.0005
0.0005
0.0005
0.0005
0.0005
0.0005
0.0005
0.0005
0.0005
0.0005
0.0005
0.0005
0.0005
0.0005
0.0005
0.0005
0.0005
0.0005
0.0005
0.0005
0.0005
0.0005
0.0005
0.0005
0.0005
0.0005
0.0005
0.0005
0.0005
0.0005
0.0005
0.0005
0.0005
0.0005
0.0005
0.0005
0.0005
0.0005
0.0005
0.0005
0.0005
0.0005
0.0005
0.0005
0.0005
0.0005
0.0005
0.0005
0.0005
0.0005
0.0005
0.0005
0.0005
0.0005
0.0005
0.0005
0.0005
0.0005

SCALARS mass float 1
LOOKUP_TABLE default
1.46608e-07
1.46608e-07
1.46608e-07
1.46608e-07
1.46608e-07
1.46608e-07
1.46608e-07
1.46608e-07
1.46608e-07
1.46608e-07
1.46608e-07
1.46608e-07
1.46608e-07
1.46608e-07
1.46608e-07
1.46608e-07
1.46608e-07
1.46608e-07
1.46608e-07
1.46608e-07
1.46608e-07
1.46608e-07
1.46608e-07
1.46608e-07
1.46608e-07
1.46608e-07
1.46608e-07
1.46608e-07
1.46608e-07
1.46608e-07
1.46608e-07
1.46608e-07
1.46608e-07
1.46608e-07
1.46608e-07
1.46608e-07
1.46608e-07
1.46608e-07
1.46608e-07
1.46608e-07
1.46608e-07
1.46608e-07
1.46608e-07
1.46608e-07
1.46608e-07
1.46608e-07
1.46608e-07
1.46608e-07
1.46608e-07
1.46608e-07
1.46608e-07
1.46608e-07
1.46608e-07
1.46608e-07
1.46608e-07
1.46608e-07
1.46608e-07
1.46608e-07
1.46608e-07
1.46608e-07
1.46608e-07
1.46608e-07
1.46608e-07
1.46608e-07
1.46608e-07
1.46608e-07
1.46608e-07
1.46608e-07
1.46608e-07
1.46608e-07
1.46608e-07
1.46608e-07
1.46608e-07
1.46608e-07
1.46608e-07
1.46608e-07
1.46608e-07
1.46608e-07
1.46608e-07
1.46608e-07
1.46608e-07
1.46608e-07
1.46608e-07
1.46608e-07
1.46608e-07
1.46608e-07
1.46608e-07
1.46608e-07
1.46608e-07
1.46608e-07
1.46608e-07
1.46608e-07
1.46608e-07
1.46608e-07
1.46608e-07
1.46608e-07
1.46608e-07
1.46608e-07
1.46608e-07
1.46608e-07
1.46608e-07
1.46608e-07
1.46608e-07
1.46608e-07
1.46608e-07
1.46608e-07
1.46608e-07
1.46608e-07
1.46608e-07

VECTORS velocity float
-9.38517e-06 0.000843006 -0.000152843
0.00167881 0.00117489 -0.000194709
-6.10739e-05 -0.000227002 0.00039646
-9.84491e-15 -1.33743e-14 -1.90504e-13
3.64464e-15 5.44031e-16 -3.6901e-14
1.76457e-14 2.83359e-15 -2.87664e-13
0.000799447 0.0147547 0.00604387
-9.6879e-317 9.73506e-317 2.68131e-13
0.000466353 0.0173264 -0.00832707
0.00360136 0.00163852 0.00045846
-7.42109e-16 -9.35699e-15 -2.80887e-14
9.71467e-317 9.75789e-317 -8.23806e-13
0.000240427 -0.0209063 -0.00313172
1.01755e-05 -7.33098e-05 1.12616e-06
0.000986413 0.00875375 0.0116193
0.000173068 -0.012239 0.016506
0.000771474 0.00317069 0.0196949
0.000682464 0.0114124 -0.015982
-0.000839564 -0.000490582 0.000725711
-9.68849e-317 -9.75601e-317 2.88878e-12
0.00240961 0.00662678 -0.0121329
2.63334e-15 1.02254e-14 2.12811e-14
0.00128342 -0.0124596 -0.0123162
-0.00429104 -0.00190279 -0.00809274
0.00123713 -0.00402556 -0.0169081
0.000545012 -0.0198676 0.000963043
0.000308242 -0.0170575 -0.00723424
2.08264e-05 -0.00996205 -0.0199298
6.62114e-16 6.72189e-15 2.00019e-14
0.000289126 0.0212619 0.00198959
0.000519203 0.0199037 -0.000394008
-1.3005e-14 -1.76676e-14 -2.51655e-13
0.00141827 0.00194851 0.0140066
0.00107814 -0.0146762 0.0127581
8.29273e-05 0.000647448 0.0217189
0.00115073 -0.00100232 -0.0165406
0.000808141 0.0173718 -0.00374118
0.000568575 0.003874 0.0161585
-0.0768146 -0.0100597 0.00826316
0.0019165 0.011708 -0.00788379
0.00375319 0.00150447 0.00591214
-2.38831e-14 5.0877e-14 1.84336e-13
4.02654e-05 -0.00847112 0.0199321
-0.000305001 -0.0229696 -0.000391664
1.03804e-14 -2.15388e-14 -2.64999e-13
1.18006e-14 4.02219e-14 1.70227e-13
0.00253154 -0.00490209 -0.0156224
0.00139483 0.0170499 -0.00499653
-9.67556e-317 -9.75879e-317 -3.22607e-12
0.000201044 -0.0157571 -0.0145871
0.0021828 0.0155469 -0.0129007
0.0010927 -0.010687 0.00861707
0.00078693 0.00205871 -0.020009
2.38185e-15 1.33733e-14 9.20546e-14
0.000726649 0.0145875 0.0140324
0.000172861 -0.00824507 -0.0204154
0.00049892 0.0109378 0.015889
0.00187437 0.00693909 -0.000199818
0.00180937 -0.0117364 0.00933385
8.07911e-15 -1.68509e-14 -2.07265e-13
0.00735819 -0.00101199 -0.00674599
0.000538046 -0.00875706 -0.0184653
5.51554e-15 -2.47937e-15 5.04898e-14
0.00114166 -0.0157047 -0.00959605
9.74157e-317 -9.69799e-317 9.23294e-13
-3.8561e-20 1.12962e-21 -1.30474e-21
0.00559224 -0.00618187 -0.00367506
0.000372413 -0.0107313 0.00482295
1.15538e-14 3.2372e-14 -1.39058e-13
0.00450131 0.00390913 0.00160283
3.88958e-15 7.52457e-15 2.61625e-13
0.000496254 0.0110194 0.0164043
0.00266164 0.010969 -0.00829756
0.00318248 -0.00998376 -0.0053248
0.00491913 0.00428936 0.00336705
2.60877e-15 4.20211e-16 -4.25291e-14
0.000133622 -0.0189515 0.0098732
0.00444571 0.0106572 -0.00162441
3.67956e-05 0.0135742 -0.0172993
6.04994e-15 -2.90174e-14 1.4322e-13
1.43031e-14 2.30467e-15 -2.33189e-13
0.000376692 0.00444515 0.0199255
0.000604822 -0.00588805 -0.0183014
2.37949e-05 -0.00144834 -0.0224912
0.000191489 -0.0199649 0.00657685
9.58743e-317 9.68145e-317 4.97437e-14
0.000537037 -0.0181905 0.00953965
0.000945019 0.00647012 -0.0171361
0.000827755 -0.0149334 -0.00730981
0.000308365 0.0145411 -0.0150825
9.81784e-15 1.33335e-14 1.8999e-13
-1.3063e-14 1.90319e-14 2.53772e-13
-0.174464 0.0825935 0.0405475
0.00145985 -0.00633256 0.00711319
6.46376e-05 0.0158092 0.0151332
7.52852e-16 -1.26235e-15 -6.9778e-15
-1.28667e-05 -0.0147801 -0.0172702
5.6267e-05 0.0195764 -0.0117793
0.00179263 -0.0162796 0.00168016
7.6219e-05 0.00945207 0.0192129
8.66649e-06 -0.000595405 0.00018607
0.000116033 -0.0208503 -0.00443039
0.00165852 0.00613569 -0.0146951
-9.68799e-317 -9.69932e-317 9.23294e-13
-6.88022e-15 2.32706e-14 -1.07319e-13
0.000478316 0.017059 0.0118262
-0.000227763 0.00562777 -0.0214154
-2.07914e-14 -3.30583e-15 3.38791e-13
0.00117628 -0.00562353 -0.00942881

VECTORS force float
2.15881e-08 -5.54229e-08 4.38913e-08
1.20962e-08 1.65787e-08 1.40707e-08
-1.7557e-09 -6.43302e-09 1.04259e-08
-9.26442e-23 -5.29396e-23 0.0
-3.1499e-21 2.81903e-20 2.11758e-22
8.60268e-22 -7.95086e-21 0.0
-2.35835e-09 4.54927e-08 -8.44978e-09
0.0 0.0 0.0
6.09763e-09 -2.16211e-08 -6.89243e-09
1.67022e-06 -9.53242e-07 5.76786e-07
5.5527e-20 8.56033e-20 -3.21873e-20
0.0 0.0 0.0
-1.79408e-09 -9.9247e-09 9.96359e-09
3.56766e-09 -5.80952e-09 2.5827e-08
-6.83102e-09 9.266e-10 -5.33227e-08
-1.1684e-07 1.44191e-06 -5.20907e-07
-8.47247e-09 1.04539e-08 1.58557e-08
-4.16916e-09 -5.88576e-10 -1.78127e-08
-1.93122e-08 -1.30588e-08 1.99177e-08
0.0 0.0 0.0
1.04579e-05 5.31717e-07 1.17767e-06
-9.18501e-21 4.23516e-22 8.47033e-22
-1.59361e-08 -3.71862e-08 -2.2902e-08
-1.67629e-07 -3.74905e-07 -8.23195e-07
-7.21591e-10 -2.62743e-08 -3.8317e-08
-1.68909e-08 3.15628e-08 -9.45686e-09
2.13423e-10 -1.02004e-08 1.23364e-08
-4.49353e-10 -1.21807e-08 1.29844e-09
5.55005e-20 -5.29396e-22 -1.69407e-21
-2.26424e-08 5.79833e-08 -2.8515e-09
-4.09575e-09 1.2504e-08 -1.08714e-08
1.42937e-21 -9.66147e-22 0.0
1.17087e-08 3.8105e-08 3.62803e-08
1.79183e-06 5.43519e-06 -8.18372e-06
-1.16666e-09 1.05971e-08 4.85384e-09
-1.36159e-08 -1.36946e-07 -1.81997e-07
-3.09954e-09 1.36821e-08 -1.43888e-08
-9.8636e-09 7.12909e-09 -1.25854e-08
-0.000360645 -4.81688e-05 3.64914e-05
8.49386e-06 -2.49059e-06 -2.29082e-06
1.31908e-07 -3.23738e-07 -6.60933e-07
7.80064e-20 -1.26526e-20 1.03762e-20
-8.16495e-10 8.42154e-09 8.33476e-09
-3.34776e-10 1.80851e-09 1.1009e-08
-5.36013e-22 2.24993e-22 0.0
-1.02412e-19 2.17052e-20 1.27055e-21
-9.61239e-09 -7.25327e-08 -1.89401e-07
-8.12344e-09 2.59566e-08 -1.86337e-08
0.0 0.0 0.0
-5.44886e-08 1.08868e-08 2.2664e-08
-1.75827e-08 4.98836e-09 -3.45648e-09
1.49149e-05 3.66451e-05 -8.67077e-06
-1.75294e-09 -2.97064e-09 -7.15467e-08
6.4851e-21 -1.87935e-21 0.0
-7.00003e-09 1.95314e-08 5.86087e-09
-1.11887e-09 -1.16415e-08 -3.83219e-09
1.64064e-07 2.18162e-08 9.65501e-08
-2.1219e-05 7.38342e-06 6.54709e-07
-2.56325e-08 -1.09107e-07 2.82872e-07
1.7298e-20 1.04026e-20 -2.11758e-22
0.0 0.0 -1.43822e-06
-3.41054e-09 -1.28276e-08 -2.64427e-09
-1.79995e-21 -1.45054e-20 -4.23516e-22
-2.04307e-08 -7.66621e-08 -3.27184e-08
0.0 0.0 0.0
0.0 0.0 0.0
-2.77691e-08 7.79184e-08 -3.45644e-08
2.15539e-09 -9.63604e-09 7.37933e-09
-3.46754e-21 2.59404e-21 -2.11758e-22
-2.22143e-06 3.63412e-07 -1.04541e-06
-4.86184e-20 -1.31356e-20 1.05879e-21
-2.24602e-09 1.28527e-08 7.02465e-10
-6.90531e-07 -2.42003e-07 2.27902e-08
-1.73173e-08 -2.93394e-08 -1.8934e-08
-5.94486e-07 -3.6225e-07 -4.05617e-07
-5.9557e-22 2.00509e-21 0.0
-8.57447e-10 -1.16827e-09 1.24572e-08
-1.92318e-05 -4.97424e-05 1.38453e-05
-4.55864e-10 -7.69063e-09 -9.80569e-09
4.60323e-19 8.06799e-20 -2.32934e-21
-3.30872e-22 3.45761e-22 0.0
-1.96654e-09 1.18613e-08 4.35185e-09
-1.08273e-08 -1.16982e-08 -5.54e-08
-1.66898e-09 -1.15307e-08 -5.17603e-09
-1.24938e-06 -1.62453e-06 -3.73383e-06
0.0 0.0 0.0
2.86887e-06 2.79735e-06 3.81073e-06
1.30745e-08 -2.93784e-08 5.25186e-09
-3.92709e-07 1.37109e-06 3.84901e-07
-2.24946e-06 1.04085e-06 -4.91008e-07
2.01567e-20 -7.51742e-21 -6.35275e-22
1.28114e-20 1.85288e-21 1.69407e-21
-0.00258601 -0.214372 -0.196693
-4.42521e-08 2.54567e-11 -3.82749e-08
-9.49216e-10 7.46779e-09 -7.46983e-09
1.11173e-21 -5.29396e-23 2.11758e-22
-1.38956e-10 -7.48598e-09 5.42985e-09
-2.60029e-10 -3.60914e-09 -1.08858e-08
-5.52892e-09 -2.53303e-08 2.30423e-08
-1.26765e-10 1.23952e-08 1.54406e-10
-6.93085e-08 9.76279e-09 -1.35701e-09
-5.0455e-10 -7.63317e-09 9.81694e-09
8.31018e-10 -2.5642e-08 -1.9346e-09
0.0 0.0 0.0
-6.19922e-20 -3.44637e-20 -3.38813e-21
-3.71674e-09 1.17777e-08 -4.93995e-09
1.2859e-08 -5.55587e-09 5.77251e-09
1.09453e-20 -3.9574e-20 4.23516e-22
-3.17859e-09 -1.90433e-10 -7.13703e-10
