# vtk DataFile Version 3.0
LIGGGHTS particles timestep 29800000
ASCII
DATASET POLYDATA
POINTS 107 float
0.0254927 0.0230713 0.0130971
0.0242546 0.020213 0.00583854
0.0326588 0.0184133 0.00592296
0.0552529 0.0189972 0.0058882
0.00938048 0.0183393 0.00587271
0.0260391 0.0196534 0.00594246
0.0764299 0.01907 0.00579421
0.0366849 0.0218066 0.0435188
0.053551 0.0186913 0.0072305
0.0471064 0.0168476 0.00781575
0.0342322 0.0172097 0.00627001
0.000591717 0.0149731 0.0435188
0.0512711 0.0164917 0.0149428
0.0373572 0.0202824 0.00605833
0.0369382 0.0232592 0.0105248
0.049528 0.0194806 0.00601095
0.0322543 0.0206489 0.0154404
0.0423657 0.0220942 0.00844889
0.0317238 0.0192455 0.00569325
0.003617 0.0285782 0.0435188
0.0860181 0.0183082 0.00577269
0.0177449 0.0174882 0.00600758
0.052169 0.0148 0.0112081
0.0300227 0.0207013 0.00752904
0.112778 0.0179068 0.0059233
0.0515192 0.0155524 0.0140468
0.0452523 0.0173614 0.00620617
0.0370167 0.0186542 0.0057303
0.0432278 0.023334 0.0120836
0.035678 0.0195275 0.00733341
0.0551402 0.017971 0.00596606
0.0445326 0.0195683 0.0157614
0.0503652 0.0203386 0.0156371
0.0498095 0.0222633 0.0143899
0.0529274 0.0162532 0.008212
0.0430536 0.0233921 0.0112214
0.049536 0.0228668 0.0132601
0.0311911 0.0233428 0.0118641
0.0464577 0.0180237 0.00607863
0.0214483 0.0168437 0.00645098
0.03817 0.0209519 0.0152701
0.0459073 0.0148742 0.0124802
0.0586827 0.0172628 0.00598816
0.0792417 0.0194286 0.00576565
0.0287504 0.015622 0.00887373
0.0540622 0.0208 0.00756603
0.0303903 0.00406748 0.0435188
0.0410247 0.0165969 0.00796459
0.054282 0.021789 0.0081342
0.0438472 0.0171169 0.00621343
0.0501096 0.0212361 0.0151948
0.0473953 0.0193073 0.0059321
0.0437586 0.0225526 0.0140413
0.0412887 0.017511 0.0074968
0.0546281 0.0227779 0.00937767
0.0479049 0.0202819 0.00739027
0.0446794 0.0187657 0.01581
0.0584376 0.0191695 0.00582359
0.0266629 0.0187929 0.0158226
0.0277617 0.0151006 0.0130922
0.020084 0.0201843 0.0061153
0.0518021 0.0150566 0.0129872
0.0221348 0.00230077 0.0435188
0.201805 0.0186174 0.00570934
0.0465925 0.0152957 0.00960391
0.0336894 0.0152276 0.0134415
0.0830234 0.0186618 0.00583976
0.0325389 0.0192881 0.0158101
0.067984 0.0193424 0.00575613
0.048998 0.0233619 0.0109949
0.0800972 0.0199306 0.00589216
0.0462676 0.0149057 0.0108803
0.0330313 0.0173208 0.0154184
0.0253288 0.0204564 0.00590683
0.0456632 0.0152987 0.0135414
0.0464657 0.0197286 0.0157602
0.0352956 0.0175178 0.00745321
0.0392951 0.0190642 0.00571675
0.026935 0.0188837 0.00598981
0.0371927 0.0233581 0.0118503
0.0524715 0.0150294 0.00997302
0.0415259 0.0186291 0.00720161
0.0508999 0.0177375 0.0155914
0.0221996 0.00109062 0.0435188
0.0505765 0.0191996 0.0158086
0.0421373 0.021098 0.00772425
0.0403839 0.014924 0.010267
0.053212 0.0172525 0.007595
0.0561606 0.0173315 0.00595822
0.0895649 0.0187731 0.00575225
0.0392178 0.0165075 0.0149483
0.0383907 0.0202302 0.0156444
0.0487644 0.0229774 0.00993366
0.108836 0.0200055 0.00584234
0.0319264 0.0218177 0.0148048
0.0426623 0.022866 0.00953793
0.0395362 0.0153982 0.0137143
0.0442852 0.020601 0.0154744
0.029018 0.0165262 0.00800633
0.0398772 0.0149362 0.0127208
0.0341077 0.0148092 0.0115498
0.00937694 0.00505359 0.0435188
0.0457039 0.018685 0.00600217
0.0365855 0.022715 0.00925954
0.0239797 0.0191467 0.00594569
0.0254808 0.018723 0.00589902
0.0467864 0.0158649 0.00867462

VERTICES 107 214
1 0
1 1
1 2
1 3
1 4
1 5
1 6
1 7
1 8
1 9
1 10
1 11
1 12
1 13
1 14
1 15
1 16
1 17
1 18
1 19
1 20
1 21
1 22
1 23
1 24
1 25
1 26
1 27
1 28
1 29
1 30
1 31
1 32
1 33
1 34
1 35
1 36
1 37
1 38
1 39
1 40
1 41
1 42
1 43
1 44
1 45
1 46
1 47
1 48
1 49
1 50
1 51
1 52
1 53
1 54
1 55
1 56
1 57
1 58
1 59
1 60
1 61
1 62
1 63
1 64
1 65
1 66
1 67
1 68
1 69
1 70
1 71
1 72
1 73
1 74
1 75
1 76
1 77
1 78
1 79
1 80
1 81
1 82
1 83
1 84
1 85
1 86
1 87
1 88
1 89
1 90
1 91
1 92
1 93
1 94
1 95
1 96
1 97
1 98
1 99
1 100
1 101
1 102
1 103
1 104
1 105
1 106

POINT_DATA 107
SCALARS id int 1
LOOKUP_TABLE default
1
2
4
5
15
16
17
18
20
24
25
27
28
32
33
37
41
44
47
49
52
57
59
63
65
67
68
73
74
76
79
84
87
88
89
90
92
97
103
108
109
112
121
122
124
125
128
130
131
133
135
137
139
141
142
143
147
149
150
157
158
160
161
165
166
167
173
174
179
185
186
187
191
193
194
197
200
205
215
225
226
227
229
232
237
241
242
247
252
253
256
257
258
260
268
269
270
271
274
275
277
284
288
291
294
299
300

SCALARS type int 1
LOOKUP_TABLE default
1
1
1
1
1
1
1
1
1
1
1
1
1
1
1
1
1
1
1
1
1
1
1
1
1
1
1
1
1
1
1
1
1
1
1
1
1
1
1
1
1
1
1
1
1
1
1
1
1
1
1
1
1
1
1
1
1
1
1
1
1
1
1
1
1
1
1
1
1
1
1
1
1
1
1
1
1
1
1
1
1
1
1
1
1
1
1
1
1
1
1
1
1
1
1
1
1
1
1
1
1
1
1
1
1
1
1

SCALARS radius float 1
LOOKUP_TABLE default
0.0005
0.0005
0.0005
0.0005
0.0005
0.0005
0.0005
0.0005
0.0005
0.0005
0.0005
0.0005
0.0005
0.0005
0.0005
0.0005
0.0005
0.0005
0.0005
0.0005
0.0005
0.0005
0.0005
0.0005
0.0005
0.0005
0.0005
0.0005
0.0005
0.0005
0.0005
0.0005
0.0005
0.0005
0.0005
0.0005
0.0005
0.0005
0.0005
0.0005
0.0005
0.0005
0.0005
0.0005
0.0005
0.0005
0.0005
0.0005
0.0005
0.0005
0.0005
0.0005
0.0005
0.0005
0.0005
0.0005
0.0005
0.0005
0.0005
0.0005
0.0005
0.0005
0.0005
0.0005
0.0005
0.0005
0.0005
0.0005
0.0005
0.0005
0.0005
0.0005
0.0005
0.0005
0.0005
0.0005
0.0005
0.0005
0.0005
0.0005
0.0005
0.0005
0.0005
0.0005
0.0005
0.0005
0.0005
0.0005
0.0005
0.0005
0.0005
0.0005
0.0005
0.0005
0.0005
0.0005
0.0005
0.0005
0.0005
0.0005
0.0005
0.0005
0.0005
0.0005
0.0005
0.0005
0.0005

SCALARS mass float 1
LOOKUP_TABLE default
1.46608e-07
1.46608e-07
1.46608e-07
1.46608e-07
1.46608e-07
1.46608e-07
1.46608e-07
1.46608e-07
1.46608e-07
1.46608e-07
1.46608e-07
1.46608e-07
1.46608e-07
1.46608e-07
1.46608e-07
1.46608e-07
1.46608e-07
1.46608e-07
1.46608e-07
1.46608e-07
1.46608e-07
1.46608e-07
1.46608e-07
1.46608e-07
1.46608e-07
1.46608e-07
1.46608e-07
1.46608e-07
1.46608e-07
1.46608e-07
1.46608e-07
1.46608e-07
1.46608e-07
1.46608e-07
1.46608e-07
1.46608e-07
1.46608e-07
1.46608e-07
1.46608e-07
1.46608e-07
1.46608e-07
1.46608e-07
1.46608e-07
1.46608e-07
1.46608e-07
1.46608e-07
1.46608e-07
1.46608e-07
1.46608e-07
1.46608e-07
1.46608e-07
1.46608e-07
1.46608e-07
1.46608e-07
1.46608e-07
1.46608e-07
1.46608e-07
1.46608e-07
1.46608e-07
1.46608e-07
1.46608e-07
1.46608e-07
1.46608e-07
1.46608e-07
1.46608e-07
1.46608e-07
1.46608e-07
1.46608e-07
1.46608e-07
1.46608e-07
1.46608e-07
1.46608e-07
1.46608e-07
1.46608e-07
1.46608e-07
1.46608e-07
1.46608e-07
1.46608e-07
1.46608e-07
1.46608e-07
1.46608e-07
1.46608e-07
1.46608e-07
1.46608e-07
1.46608e-07
1.46608e-07
1.46608e-07
1.46608e-07
1.46608e-07
1.46608e-07
1.46608e-07
1.46608e-07
1.46608e-07
1.46608e-07
1.46608e-07
1.46608e-07
1.46608e-07
1.46608e-07
1.46608e-07
1.46608e-07
1.46608e-07
1.46608e-07
1.46608e-07
1.46608e-07
1.46608e-07
1.46608e-07
1.46608e-07

VECTORS velocity float
0.00127873 0.00925118 -0.0175202
-9.08601e-15 -1.46377e-15 1.48131e-13
-4.08366e-15 -1.59354e-14 -3.89647e-14
-1.33521e-17 -1.80742e-17 -2.57146e-16
3.64561e-15 5.39852e-16 -3.69009e-14
2.09856e-14 3.38089e-15 -3.42138e-13
-1.48144e-15 8.84154e-15 3.39829e-14
-9.6879e-317 9.73506e-317 2.68131e-13
0.000381516 -0.0217625 0.00101145
0.000437277 -0.0133691 0.00614519
-1.512e-16 -1.89163e-15 -5.63081e-15
9.71467e-317 9.75789e-317 -8.23806e-13
0.000145069 0.0169337 0.0130169
-5.15498e-15 1.75302e-14 -8.08027e-14
0.00291131 -0.00353308 -0.00830414
5.79893e-15 -1.2466e-14 -1.29438e-13
0.000206357 0.0194234 -0.00801953
0.0013656 -0.013238 -0.0118589
-2.31354e-15 -6.18771e-14 2.10855e-13
-9.68849e-317 -9.75601e-317 2.88878e-12
-1.22589e-15 3.67076e-14 1.26768e-13
2.62585e-15 1.02274e-14 2.12811e-14
0.000445886 -0.000739535 0.0201844
0.000857922 -0.0134577 -0.00496313
8.15317e-16 3.44075e-15 1.42019e-14
0.00126287 0.00994941 0.0126292
-3.1369e-15 -1.74631e-14 -1.20236e-13
3.88171e-16 -2.03595e-15 1.00251e-14
0.000614923 0.00304275 -0.0182285
-2.83842e-06 -0.0215884 -0.00345018
-2.8224e-15 -3.83395e-15 -5.46135e-14
0.00405239 -0.0017878 0.00248157
0.000743415 0.0182862 -0.00646524
0.00212456 0.00524694 -0.00495102
0.000963649 -0.0114935 0.00820867
0.00160188 0.000284825 -0.0070089
0.000263854 0.00856708 -0.0191971
0.000693871 0.00314279 -0.0221112
-3.1247e-15 -1.74653e-14 -1.20236e-13
-2.40227e-14 5.08715e-14 1.84319e-13
0.00199509 0.0108912 -0.00650855
0.000259627 0.00437224 0.0212457
1.03798e-14 -2.15391e-14 -2.64999e-13
-1.54874e-17 -5.03249e-17 -2.09634e-16
0.00159751 -0.00440675 0.00522735
0.00148516 -0.0165071 -0.00658052
-9.67556e-317 -9.75879e-317 -3.22607e-12
0.00351586 -0.00825452 0.00650451
0.000234958 -0.0160884 -0.0130435
5.36147e-16 -1.53342e-15 -8.51397e-15
0.000141937 0.01889 -0.0104616
4.72614e-15 -1.01836e-14 -1.05707e-13
0.000938813 0.0139179 -0.0132392
0.000129697 -0.0204393 0.00734965
-0.000160262 -0.00968763 -0.0200261
-2.99341e-05 -0.0213118 -0.00768064
0.00374638 -0.000937958 0.00223614
8.10701e-15 -1.68647e-14 -2.07263e-13
0.00126336 0.0181776 0.000284388
0.000127972 0.00768527 0.0205135
5.51641e-15 -2.4771e-15 5.04898e-14
0.0010928 0.00326638 0.0208948
9.74157e-317 -9.69799e-317 9.23294e-13
-3.8561e-20 4.0743e-22 8.61844e-22
0.00038418 -0.00863962 0.0185706
0.000157161 0.00945329 0.019257
1.1601e-14 3.23674e-14 -1.39055e-13
0.00169308 0.00323148 -0.00119833
3.87484e-15 7.5405e-15 2.61625e-13
0.000638476 -0.00142809 -0.0138049
1.76521e-17 4.71258e-17 -2.00969e-16
-0.000313198 -0.00468643 0.0216498
0.000323103 0.0190163 0.00790454
9.29105e-15 1.49627e-15 -1.51478e-13
0.000491993 0.00952722 0.0190837
0.000182968 0.0199512 -0.00321693
0.000685214 -0.0182257 0.00746149
2.80395e-15 -1.34833e-14 6.66365e-14
1.4303e-14 2.30503e-15 -2.33189e-13
0.00139403 0.000438565 -0.0148023
-0.000187418 -0.00933343 0.0203337
0.000988294 -0.0103624 0.000963981
0.000458315 0.0196074 0.0055449
9.58743e-317 9.68145e-317 4.97437e-14
0.000123624 0.0221545 0.000288718
0.000141687 -0.0189477 -0.0114179
0.002142 -0.00441225 0.0137162
0.000239638 -0.0194845 0.00862223
1.40318e-14 1.90624e-14 2.71525e-13
-1.32158e-14 1.8932e-14 2.53772e-13
0.000239642 0.0176285 0.014607
0.00340471 0.00699227 -0.000196743
0.000365045 -0.00792296 -0.0189579
7.5326e-16 -1.27648e-15 -6.97511e-15
0.000168867 0.0194111 -0.0137373
4.0727e-05 -0.00929403 -0.0198342
8.46231e-05 0.01051 0.0155169
2.7695e-05 0.0214238 -0.00644216
0.000562667 -0.0161386 0.0120021
0.000353732 0.00443088 0.0206321
-0.000373843 -0.00144816 0.022188
-9.68799e-317 -9.69932e-317 9.23294e-13
-6.97612e-15 -3.90023e-14 -2.68502e-13
0.000104752 -0.00897658 -0.0153541
-2.27349e-14 -4.66099e-14 -1.52825e-13
-2.07782e-14 -3.34885e-15 3.38791e-13
0.0017502 -0.00684427 0.00770595

VECTORS force float
2.86947e-09 -1.52154e-08 -2.65856e-08
-1.32349e-23 2.81241e-23 0.0
-6.53804e-21 -1.90582e-21 1.69407e-21
-2.11758e-22 -1.32349e-23 0.0
-9.79382e-22 9.20817e-21 0.0
3.97047e-23 8.08983e-22 0.0
2.29956e-20 -1.28114e-20 4.02341e-21
0.0 0.0 0.0
-6.24503e-09 -1.02811e-08 1.02864e-08
9.90759e-09 4.05287e-08 -1.52349e-08
0.0 0.0 0.0
0.0 0.0 0.0
-6.38242e-10 1.04992e-08 -4.72238e-09
-3.20681e-20 -9.52912e-21 0.0
-1.66349e-08 -1.00223e-08 -7.11431e-08
-4.76456e-22 -2.64698e-23 0.0
-6.09375e-10 7.25507e-10 -1.28359e-08
-1.62712e-08 -3.04683e-08 -2.29639e-08
-5.81343e-21 -2.64698e-22 -2.11758e-22
0.0 0.0 0.0
2.173e-20 -9.635e-21 3.17637e-21
4.04988e-21 6.35275e-22 -6.35275e-22
-1.7153e-09 1.07152e-08 7.5429e-09
-2.43541e-09 -4.93765e-08 9.30524e-09
-8.78135e-20 6.56451e-21 2.96462e-21
-1.28252e-08 8.97108e-08 7.04778e-08
3.38747e-20 -8.04681e-21 2.11758e-22
-7.00258e-20 -1.82112e-20 -1.05879e-21
8.18655e-09 -1.57928e-08 4.43524e-08
-4.76899e-10 -3.76154e-09 1.09473e-08
-2.64698e-23 0.0 0.0
2.51916e-10 -1.87216e-07 7.86952e-09
-4.41945e-09 5.73066e-09 -1.45571e-08
2.40433e-05 2.77242e-07 5.04152e-07
2.60616e-09 4.70557e-08 -3.63469e-08
5.59635e-09 1.25668e-08 7.29483e-08
-1.44524e-09 -7.79754e-09 -9.29719e-09
-2.18178e-08 1.31433e-08 4.80873e-08
3.71239e-21 0.0 -2.11758e-22
-3.4371e-19 -3.43048e-20 -3.45166e-20
-4.31232e-07 -1.63579e-07 -2.5561e-05
6.00041e-10 1.25619e-08 2.31806e-09
1.82641e-21 -6.61744e-23 2.11758e-22
5.29396e-23 -4.76456e-22 2.11758e-22
-9.47583e-09 -1.21148e-08 -2.54832e-08
-1.56421e-08 -4.41527e-08 -1.30485e-08
0.0 0.0 0.0
2.0001e-08 8.27082e-08 -6.32653e-08
9.5141e-11 -1.1575e-08 3.36387e-09
-5.59306e-20 -1.65171e-20 -1.27055e-21
-9.06119e-10 -6.02369e-10 -1.19095e-08
-6.08805e-22 1.11173e-21 -2.11758e-22
-1.31395e-09 -1.85947e-08 -7.62698e-08
-8.51519e-10 8.73467e-11 1.22102e-08
-1.53658e-09 -1.11076e-08 2.13192e-09
-2.69814e-09 -1.07647e-08 8.22633e-09
6.96361e-09 -2.03809e-07 -4.1426e-09
1.83369e-20 1.28775e-20 -2.11758e-22
-1.30916e-08 2.70652e-08 -6.46441e-09
-7.72627e-10 1.24017e-08 6.58153e-10
-7.14684e-22 7.54389e-22 0.0
-1.30326e-09 5.10542e-08 4.2838e-09
0.0 0.0 0.0
0.0 0.0 0.0
-2.07795e-09 6.86637e-09 1.31368e-08
-9.53847e-10 1.2798e-08 -4.77858e-10
-1.42804e-20 5.691e-20 1.27055e-20
-5.12213e-10 -5.67511e-08 5.18735e-08
-1.17129e-21 8.84091e-21 -2.11758e-22
-4.16414e-06 -3.05282e-06 -2.07085e-06
1.05879e-22 5.29396e-23 0.0
3.79139e-10 1.08622e-08 3.38986e-09
-1.14831e-09 1.05067e-08 -7.09062e-09
0.0 1.65436e-23 0.0
-1.00261e-08 1.49154e-08 9.908e-09
-1.13093e-09 4.50031e-09 -1.10485e-08
-3.97204e-09 -6.47138e-09 1.51469e-08
3.64026e-20 1.56172e-20 1.90582e-21
-2.77933e-22 1.95545e-21 0.0
-6.1653e-09 -6.25771e-09 -5.68547e-08
2.84059e-09 1.03857e-08 7.54904e-09
-3.64681e-08 -7.58829e-07 1.35454e-07
-1.49298e-08 3.33959e-08 1.70996e-08
0.0 0.0 0.0
-3.18571e-11 5.23149e-09 -1.09165e-08
-4.88908e-10 -9.84507e-09 8.54101e-09
4.86239e-09 1.41354e-08 -1.01269e-08
-1.41715e-09 -6.3104e-10 1.13667e-08
-2.64698e-22 1.85288e-22 0.0
-2.87925e-19 -1.4254e-19 -3.59989e-21
3.72231e-09 1.07001e-08 -4.29177e-09
-2.06283e-06 -1.95726e-05 6.15807e-06
-2.97559e-09 -1.25549e-08 -3.84421e-09
0.0 3.28225e-21 -6.35275e-22
-1.6339e-10 -2.4363e-09 -1.47716e-08
-9.92789e-10 -1.25361e-08 4.50079e-10
4.19292e-10 1.75202e-08 3.15691e-09
1.00358e-09 -2.02704e-09 -1.05009e-08
-3.84645e-09 -3.97228e-09 1.35639e-08
4.89948e-09 1.09364e-08 -9.64578e-08
4.42116e-09 1.17692e-08 3.93369e-09
0.0 0.0 0.0
1.64973e-20 -1.58819e-22 -2.11758e-22
-4.3148e-09 1.70846e-09 2.98133e-08
-1.6676e-21 -1.05879e-20 3.59989e-21
-1.43996e-20 4.08214e-20 -2.11758e-22
-1.92277e-09 2.07667e-08 -3.69923e-08
