# vtk DataFile Version 3.0
LIGGGHTS particles timestep 25000000
ASCII
DATASET POLYDATA
POINTS 107 float
0.0211243 0.0141374 0.0134583
0.0242546 0.020213 0.00583854
0.0175143 0.0146267 0.01193
0.0552529 0.0189972 0.0058882
0.00938048 0.0183393 0.00587271
0.0260391 0.0196534 0.00594246
0.0439029 0.0225283 0.0140591
0.0366849 0.0218066 0.0435188
0.0490757 0.0232408 0.0106744
0.0425716 0.0222021 0.00852984
0.0339249 0.0173116 0.00624552
0.000591717 0.0149731 0.0435188
0.0468187 0.0154065 0.0093718
0.0364748 0.0208476 0.00623738
0.0320356 0.0220876 0.0145774
0.049528 0.0194806 0.00601095
0.0280941 0.0148563 0.0122671
0.0371089 0.0232904 0.0106324
0.022005 0.0149235 0.0131751
0.003617 0.0285782 0.0435188
0.0860181 0.0183082 0.00577269
0.0177449 0.0174882 0.00600758
0.0475668 0.0179075 0.00741503
0.0255423 0.0233012 0.0124811
0.112778 0.0179068 0.0059233
0.0469742 0.0158415 0.00867347
0.0452523 0.0173614 0.00620617
0.0349285 0.0181778 0.00592251
0.0385724 0.0199734 0.0156797
0.0312042 0.0233776 0.0111213
0.0551402 0.017971 0.00596606
0.0399643 0.0150815 0.0131414
0.0458202 0.0153119 0.0136338
0.0450076 0.0182057 0.0157189
0.0480831 0.0202188 0.00737827
0.0384361 0.0206324 0.0154528
0.04478 0.0190998 0.0157936
0.0266833 0.0195096 0.0157936
0.0431134 0.0232811 0.0107146
0.0214483 0.0168437 0.00645098
0.0327182 0.0192347 0.0158137
0.0413131 0.0168575 0.00778222
0.0586827 0.0172628 0.00598816
0.0792478 0.0194315 0.00576454
0.0228653 0.0151474 0.0136329
0.0495187 0.0231422 0.0124684
0.0303903 0.00406748 0.0435188
0.0355241 0.0178775 0.00732418
0.0499101 0.0224543 0.0141124
0.0438472 0.0171169 0.00621343
0.0458335 0.021461 0.015105
0.0473953 0.0193073 0.0059321
0.0392657 0.0170177 0.0152693
0.0359747 0.0198776 0.00743596
0.0501171 0.0218824 0.0147838
0.0433206 0.0233712 0.0115281
0.0404166 0.0148226 0.0110294
0.0584376 0.0191695 0.00582359
0.0187103 0.0241261 0.0129696
0.0202064 0.0140329 0.0130755
0.020084 0.0201843 0.0061153
0.0472776 0.0167629 0.00789055
0.0221348 0.00230077 0.0435188
0.201805 0.0186174 0.00570934
0.0421075 0.0202603 0.00733592
0.0291363 0.0162645 0.00819081
0.0830234 0.0186618 0.00583976
0.0284097 0.0147516 0.0110069
0.067984 0.0193424 0.00575613
0.0446048 0.0200549 0.01561
0.0428272 0.0227967 0.00937465
0.0415909 0.0182907 0.00729862
0.0288466 0.0154828 0.00912594
0.0253288 0.0204564 0.00590683
0.0411306 0.0162954 0.00820595
0.0436464 0.0231325 0.0128509
0.0303497 0.0214094 0.00785133
0.0383457 0.0197753 0.00590075
0.026935 0.0188837 0.00598981
0.0324193 0.0206915 0.0153923
0.0477834 0.0190279 0.00721555
0.0364203 0.0217788 0.00812939
0.0465408 0.0149996 0.0106321
0.0221996 0.00109062 0.0435188
0.0460849 0.0148857 0.0123601
0.0366305 0.0223176 0.00872418
0.0352835 0.0167569 0.00784699
0.0487685 0.0226247 0.00923515
0.0561606 0.0173315 0.00595822
0.0895649 0.0187731 0.00575225
0.0336877 0.0156165 0.0141185
0.0331689 0.0174637 0.0154373
0.0443091 0.0212877 0.0152125
0.108836 0.0200055 0.00584234
0.0277696 0.0154442 0.013799
0.0382716 0.0212942 0.0149818
0.0340108 0.0149515 0.0127393
0.0396876 0.0157618 0.0141531
0.0246895 0.0224882 0.00900678
0.0343031 0.0148536 0.0115616
0.0299327 0.0195916 0.00722086
0.00937694 0.00505359 0.0435188
0.0457039 0.018685 0.00600217
0.0315396 0.0232891 0.0124677
0.0239797 0.0191467 0.00594569
0.0254808 0.018723 0.00589902
0.0423775 0.0214585 0.00800348

VERTICES 107 214
1 0
1 1
1 2
1 3
1 4
1 5
1 6
1 7
1 8
1 9
1 10
1 11
1 12
1 13
1 14
1 15
1 16
1 17
1 18
1 19
1 20
1 21
1 22
1 23
1 24
1 25
1 26
1 27
1 28
1 29
1 30
1 31
1 32
1 33
1 34
1 35
1 36
1 37
1 38
1 39
1 40
1 41
1 42
1 43
1 44
1 45
1 46
1 47
1 48
1 49
1 50
1 51
1 52
1 53
1 54
1 55
1 56
1 57
1 58
1 59
1 60
1 61
1 62
1 63
1 64
1 65
1 66
1 67
1 68
1 69
1 70
1 71
1 72
1 73
1 74
1 75
1 76
1 77
1 78
1 79
1 80
1 81
1 82
1 83
1 84
1 85
1 86
1 87
1 88
1 89
1 90
1 91
1 92
1 93
1 94
1 95
1 96
1 97
1 98
1 99
1 100
1 101
1 102
1 103
1 104
1 105
1 106

POINT_DATA 107
SCALARS id int 1
LOOKUP_TABLE default
1
2
4
5
15
16
17
18
20
24
25
27
28
32
33
37
41
44
47
49
52
57
59
63
65
67
68
73
74
76
79
84
87
88
89
90
92
97
103
108
109
112
121
122
124
125
128
130
131
133
135
137
139
141
142
143
147
149
150
157
158
160
161
165
166
167
173
174
179
185
186
187
191
193
194
197
200
205
215
225
226
227
229
232
237
241
242
247
252
253
256
257
258
260
268
269
270
271
274
275
277
284
288
291
294
299
300

SCALARS type int 1
LOOKUP_TABLE default
1
1
1
1
1
1
1
1
1
1
1
1
1
1
1
1
1
1
1
1
1
1
1
1
1
1
1
1
1
1
1
1
1
1
1
1
1
1
1
1
1
1
1
1
1
1
1
1
1
1
1
1
1
1
1
1
1
1
1
1
1
1
1
1
1
1
1
1
1
1
1
1
1
1
1
1
1
1
1
1
1
1
1
1
1
1
1
1
1
1
1
1
1
1
1
1
1
1
1
1
1
1
1
1
1
1
1

SCALARS radius float 1
LOOKUP_TABLE default
0.0005
0.0005
0.0005
0.0005
0.0005
0.0005
0.0005
0.0005
0.0005
0.0005
0.0005
0.0005
0.0005
0.0005
0.0005
0.0005
0.0005
0.0005
0.0005
0.0005
0.0005
0.0005
0.0005
0.0005
0.0005
0.0005
0.0005
0.0005
0.0005
0.0005
0.0005
0.0005
0.0005
0.0005
0.0005
0.0005
0.0005
0.0005
0.0005
0.0005
0.0005
0.0005
0.0005
0.0005
0.0005
0.0005
0.0005
0.0005
0.0005
0.0005
0.0005
0.0005
0.0005
0.0005
0.0005
0.0005
0.0005
0.0005
0.0005
0.0005
0.0005
0.0005
0.0005
0.0005
0.0005
0.0005
0.0005
0.0005
0.0005
0.0005
0.0005
0.0005
0.0005
0.0005
0.0005
0.0005
0.0005
0.0005
0.0005
0.0005
0.0005
0.0005
0.0005
0.0005
0.0005
0.0005
0.0005
0.0005
0.0005
0.0005
0.0005
0.0005
0.0005
0.0005
0.0005
0.0005
0.0005
0.0005
0.0005
0.0005
0.0005
0.0005
0.0005
0.0005
0.0005
0.0005
0.0005

SCALARS mass float 1
LOOKUP_TABLE default
1.46608e-07
1.46608e-07
1.46608e-07
1.46608e-07
1.46608e-07
1.46608e-07
1.46608e-07
1.46608e-07
1.46608e-07
1.46608e-07
1.46608e-07
1.46608e-07
1.46608e-07
1.46608e-07
1.46608e-07
1.46608e-07
1.46608e-07
1.46608e-07
1.46608e-07
1.46608e-07
1.46608e-07
1.46608e-07
1.46608e-07
1.46608e-07
1.46608e-07
1.46608e-07
1.46608e-07
1.46608e-07
1.46608e-07
1.46608e-07
1.46608e-07
1.46608e-07
1.46608e-07
1.46608e-07
1.46608e-07
1.46608e-07
1.46608e-07
1.46608e-07
1.46608e-07
1.46608e-07
1.46608e-07
1.46608e-07
1.46608e-07
1.46608e-07
1.46608e-07
1.46608e-07
1.46608e-07
1.46608e-07
1.46608e-07
1.46608e-07
1.46608e-07
1.46608e-07
1.46608e-07
1.46608e-07
1.46608e-07
1.46608e-07
1.46608e-07
1.46608e-07
1.46608e-07
1.46608e-07
1.46608e-07
1.46608e-07
1.46608e-07
1.46608e-07
1.46608e-07
1.46608e-07
1.46608e-07
1.46608e-07
1.46608e-07
1.46608e-07
1.46608e-07
1.46608e-07
1.46608e-07
1.46608e-07
1.46608e-07
1.46608e-07
1.46608e-07
1.46608e-07
1.46608e-07
1.46608e-07
1.46608e-07
1.46608e-07
1.46608e-07
1.46608e-07
1.46608e-07
1.46608e-07
1.46608e-07
1.46608e-07
1.46608e-07
1.46608e-07
1.46608e-07
1.46608e-07
1.46608e-07
1.46608e-07
1.46608e-07
1.46608e-07
1.46608e-07
1.46608e-07
1.46608e-07
1.46608e-07
1.46608e-07
1.46608e-07
1.46608e-07
1.46608e-07
1.46608e-07
1.46608e-07
1.46608e-07

VECTORS velocity float
-0.000253741 -0.00065078 0.00103306
-9.08584e-15 -1.46376e-15 1.48131e-13
-6.07228e-06 0.000446632 -0.000741419
-1.33498e-17 -1.80793e-17 -2.57137e-16
3.6459e-15 5.38887e-16 -3.69009e-14
2.09859e-14 3.37807e-15 -3.42138e-13
0.000188635 0.0163001 -0.0153448
-9.6879e-317 9.73506e-317 2.68131e-13
0.00237818 -0.00222194 -0.00474166
0.00092518 -0.0132398 -0.0132751
-1.12495e-15 -9.35902e-15 -2.80758e-14
9.71467e-317 9.75789e-317 -8.23806e-13
0.000702142 -0.00915969 0.0177693
4.37462e-15 -1.48264e-14 6.83463e-14
0.000883611 0.0131511 -0.0114532
5.80952e-15 -1.24569e-14 -1.29438e-13
0.000310626 0.00424785 0.0197855
0.00218514 -0.00255041 -0.0126277
0.00110848 0.00634985 0.0165731
-9.68849e-317 -9.75601e-317 2.88878e-12
-1.21957e-15 3.67085e-14 1.26768e-13
2.62632e-15 1.02256e-14 2.12818e-14
0.00010569 -0.0208982 0.00542512
0.000830282 0.00426288 -0.0189221
7.34816e-16 3.43567e-15 1.42078e-14
0.000170284 -0.0142778 0.0156063
-3.12837e-15 -1.74649e-14 -1.20236e-13
6.36314e-16 6.72277e-15 2.00024e-14
0.00394565 0.00828993 -0.00260217
0.000560771 -0.000842807 -0.021459
-2.82227e-15 -3.83397e-15 -5.46136e-14
0.00175661 0.0039315 0.0130927
0.000171905 0.0101066 0.0195749
0.00105781 0.0187973 0.00379501
0.000698745 -0.0242171 -0.00838845
0.00204998 0.0129497 -0.00539457
0.00309154 0.0148717 -0.0017643
0.000240134 0.0210252 -0.00207859
0.000550686 -0.00462695 -0.018235
-2.38904e-14 5.08916e-14 1.84331e-13
0.00374873 0.00590554 -0.00198522
0.00189205 -0.0147373 0.00751509
1.03774e-14 -2.15482e-14 -2.64999e-13
1.19609e-14 4.01811e-14 1.70225e-13
0.00675947 0.00453445 0.0068187
8.00602e-05 0.00609124 -0.0215771
-9.67556e-317 -9.75879e-317 -3.22607e-12
0.00135894 -0.015721 0.00453028
0.000937096 0.0102689 -0.0150549
5.22051e-16 -1.55239e-15 -8.51139e-15
-0.00486704 -9.02125e-05 -9.65375e-05
4.737e-15 -1.01801e-14 -1.05707e-13
0.00143888 0.0123414 0.00699423
0.00018618 -0.021602 -0.00443292
0.000482559 0.0171977 -0.0124664
0.0020904 0.00137643 -0.0173533
0.000614851 -0.00175675 0.0202518
8.09796e-15 -1.68461e-14 -2.07265e-13
0.000151282 -8.39269e-05 0.000958042
-0.000455922 -0.000773018 0.00155185
5.52134e-15 -2.46642e-15 5.04898e-14
0.000247233 -0.0160583 0.00880792
9.74157e-317 -9.69799e-317 9.23294e-13
-3.8561e-20 4.0743e-22 8.61844e-22
0.000912514 -0.0122482 -0.00323883
0.000327744 -0.0162209 0.0133906
1.14708e-14 3.2375e-14 -1.39064e-13
0.00168347 -0.00422482 0.0178728
3.90537e-15 7.52755e-15 2.61625e-13
0.000991128 0.0168766 -0.00471165
-1.48206e-05 -0.0101009 -0.02001
0.00195742 -0.0198678 0.00567254
0.00213293 -0.00655104 0.0107983
9.29105e-15 1.49639e-15 -1.51478e-13
0.00298975 -0.0074365 0.00622532
0.000202753 0.00632887 -0.0198401
0.00188833 -0.0079792 -0.00588271
5.90933e-15 -2.90053e-14 1.43228e-13
1.43032e-14 2.30436e-15 -2.33189e-13
6.94166e-05 0.0194447 -0.00826999
0.000908991 -0.0111428 -0.000176095
0.00233152 -0.00856077 -0.00701458
-1.19125e-05 -0.0055801 0.0217431
9.58743e-317 9.68145e-317 4.97437e-14
8.82353e-05 0.00397724 0.0217292
0.000583619 -0.0120868 -0.0162828
0.000323164 -0.0187618 0.0108709
5.08027e-05 -0.0113372 -0.019282
1.40318e-14 1.90624e-14 2.71525e-13
-1.33377e-14 1.8969e-14 2.53763e-13
-7.05434e-05 0.0124188 0.0187633
0.000124248 0.0194592 0.00765641
0.00136287 0.0153574 -0.00745765
7.6709e-16 -1.27679e-15 -6.97332e-15
3.71834e-06 0.0116753 0.0197114
0.00227574 0.012395 -0.00848273
0.000108092 0.00649069 0.0191996
9.96533e-05 0.0132673 0.0166279
0.00222414 -0.00948714 -0.0108333
-0.000867015 -0.000312138 0.0238526
9.19137e-05 -0.0215955 -0.00331095
-9.68799e-317 -9.69932e-317 9.23294e-13
-6.98253e-15 -3.90021e-14 -2.68502e-13
0.00137281 0.00530297 -0.0171128
-2.27385e-14 -4.66213e-14 -1.52821e-13
-2.07802e-14 -3.23084e-15 3.38792e-13
-0.000418454 -0.0193959 -0.0124647

VECTORS force float
-4.70069e-09 -1.26664e-08 2.04079e-08
0.0 -9.76073e-23 0.0
8.60294e-09 -1.65944e-08 2.76002e-08
-3.30872e-22 6.61744e-23 0.0
1.64113e-21 -1.07699e-20 0.0
2.24993e-22 -1.79995e-21 0.0
3.60292e-08 -5.44336e-08 4.29197e-08
0.0 0.0 0.0
8.15007e-09 4.43919e-08 7.8894e-08
-9.87674e-09 -2.71381e-08 -7.75805e-09
-8.46087e-19 1.44207e-19 -2.18111e-20
0.0 0.0 0.0
-4.66773e-09 4.25805e-09 1.79335e-08
-6.63068e-21 1.37643e-21 6.35275e-22
4.16235e-09 -1.68248e-08 -2.91304e-09
-1.58554e-20 4.31457e-21 -1.05879e-21
-1.07958e-09 1.23064e-08 4.38613e-09
-2.80408e-06 -3.68248e-08 6.14212e-06
-1.05703e-08 4.1952e-09 -1.76391e-08
0.0 0.0 0.0
2.68172e-21 1.11173e-21 -4.23516e-22
2.38228e-21 -2.11758e-22 -6.35275e-22
-1.91776e-09 -1.55441e-09 1.18743e-08
-6.16472e-09 -7.51502e-09 -2.74402e-08
1.92144e-19 -1.4929e-20 -8.04681e-21
-1.40093e-09 3.66745e-09 1.11798e-08
-5.98217e-21 1.45584e-21 0.0
3.50725e-22 1.37643e-21 -4.23516e-22
1.20642e-05 6.98503e-06 -1.45164e-06
-2.18224e-08 -1.60785e-08 -6.88168e-08
3.97047e-23 2.64698e-23 0.0
-5.07831e-08 2.45886e-08 2.681e-08
-1.15099e-10 1.17836e-08 -1.75616e-09
1.34948e-08 -7.62142e-08 -1.38354e-08
6.3841e-07 2.06774e-06 5.16176e-07
-2.13434e-06 7.96096e-06 -7.80565e-06
-1.02243e-08 1.19942e-08 2.82149e-09
-6.0676e-10 5.40588e-09 -1.10047e-08
5.0056e-08 1.03575e-06 5.29585e-06
-4.88103e-20 -3.88047e-20 4.65868e-21
2.26316e-07 9.53039e-08 -7.50737e-08
3.01568e-09 1.22011e-08 2.77387e-10
-5.75718e-22 -1.38834e-20 1.05879e-21
3.08505e-20 -1.74171e-20 1.90582e-21
-3.54125e-08 -2.88389e-08 -3.01226e-08
-8.86262e-10 -1.06579e-08 -6.14251e-09
0.0 0.0 0.0
-8.16823e-09 -1.10436e-08 2.6778e-08
-3.80442e-09 -8.16702e-10 -1.9321e-08
-2.8058e-20 -1.0535e-20 0.0
7.29014e-06 9.43735e-07 -6.28848e-07
-6.64391e-21 -3.83812e-21 0.0
8.25372e-09 8.69962e-09 9.23675e-09
-1.32703e-09 -5.97338e-09 1.03328e-08
1.43734e-09 -4.78121e-09 -7.61544e-09
-8.20361e-06 4.14564e-07 1.25717e-05
-5.33482e-09 9.40121e-09 1.23704e-08
1.41541e-19 3.14461e-20 3.17637e-21
2.40407e-06 -5.76152e-10 3.68099e-08
-5.98536e-09 -1.1422e-08 2.3273e-08
8.47033e-22 -4.75133e-21 -6.35275e-22
3.43212e-09 1.32074e-08 1.03607e-08
0.0 0.0 0.0
0.0 0.0 0.0
-8.74409e-07 -3.58047e-06 6.07204e-07
-1.74216e-09 1.54248e-09 1.19601e-08
7.84432e-20 4.97632e-21 8.04681e-21
1.73469e-08 4.06357e-08 -3.67366e-08
-6.78851e-20 2.94675e-20 2.11758e-22
-1.26618e-08 5.53062e-08 -3.29318e-08
6.28513e-10 -1.22128e-08 2.47494e-09
3.52363e-10 -4.48462e-08 5.36508e-09
6.81301e-09 1.39316e-08 -3.8745e-08
0.0 -1.32349e-23 0.0
-4.8078e-09 -1.19912e-08 1.00383e-08
-7.21319e-10 -7.3804e-09 -1.01409e-08
-2.17855e-08 -1.1908e-08 -6.1108e-09
6.28657e-21 2.1864e-20 4.02341e-21
-3.04402e-22 2.18376e-22 0.0
-2.54537e-10 8.74877e-10 -1.19242e-08
4.92009e-07 2.55812e-06 -2.22093e-07
-5.35938e-09 -2.17504e-08 -1.97541e-08
-1.76676e-09 9.93187e-09 4.67574e-09
0.0 0.0 0.0
5.22774e-10 1.1733e-08 3.85975e-09
-6.41666e-09 -7.35349e-09 7.06049e-09
1.11551e-09 2.79172e-09 1.07446e-08
-6.50611e-10 -1.1659e-08 2.65588e-09
1.72054e-22 -1.85288e-22 0.0
-6.6058e-19 3.06652e-20 -3.66342e-20
9.78733e-10 1.18197e-08 -4.67489e-09
-8.18367e-10 9.69549e-09 -7.27745e-09
2.33541e-08 -7.28084e-08 4.12534e-08
0.0 0.0 0.0
-2.68429e-08 3.43058e-08 5.38622e-08
-1.21175e-06 5.87967e-07 -6.12529e-07
-2.00776e-09 1.43875e-08 2.32383e-09
-5.76756e-10 1.18821e-08 -3.48899e-09
-1.24754e-08 -2.50275e-08 -2.87785e-08
-1.79537e-08 -1.45036e-08 1.33005e-08
3.4965e-10 -5.02047e-09 1.08921e-08
0.0 0.0 0.0
8.52989e-21 -6.35275e-22 -2.11758e-22
4.02413e-09 -1.88164e-08 7.17443e-09
4.5528e-21 8.47033e-22 -6.35275e-22
8.16593e-20 -1.22441e-19 4.02341e-21
-2.65395e-08 -2.91045e-08 -4.07304e-08
