# vtk DataFile Version 3.0
LIGGGHTS particles timestep 1000000
ASCII
DATASET POLYDATA
POINTS 149 float
0.021236 0.0234142 0.014107
0.0176616 0.0230457 0.0149065
0.0252667 0.0212175 0.0162863
0.0175724 0.0222946 0.0156182
0.0232904 0.0164193 0.0150876
0.0174513 0.0146209 0.0119839
0.0175041 0.0142639 0.0129165
0.0245274 0.0205835 0.0165127
0.0207687 0.0241589 0.0133934
0.0198471 0.0230277 0.00990884
0.0152091 0.0228543 0.0137983
0.0201842 0.0222999 0.00871516
0.0163744 0.0237684 0.0138885
0.0180758 0.0239307 0.0146934
0.0224403 0.0180152 0.0158261
0.0174988 0.014538 0.0139682
0.0216331 0.0241619 0.0139276
0.0208224 0.0233998 0.011207
0.0180757 0.0240697 0.0130226
0.0225349 0.0158848 0.0146189
0.0207951 0.0232694 0.0129728
0.0190097 0.0136901 0.0134963
0.0171084 0.024 0.0132546
0.0223194 0.0166433 0.0152342
0.0197779 0.0140153 0.012945
0.0162739 0.022688 0.0140638
0.0195197 0.0214644 0.00791408
0.0183474 0.0144359 0.0134255
0.0184806 0.0226245 0.0153615
0.0193214 0.0240621 0.0144467
0.0185914 0.0237726 0.013822
0.0215614 0.0233789 0.0125109
0.0212815 0.0229424 0.0152362
0.0180462 0.0162187 0.00823359
0.0200128 0.0233124 0.0107266
0.0198096 0.0244172 0.0135085
0.0212482 0.0213317 0.015386
0.0201577 0.0171331 0.0164092
0.0223571 0.023062 0.0149614
0.0216949 0.0237911 0.0148944
0.0192487 0.0237322 0.0154567
0.0216464 0.0196622 0.0159128
0.0156886 0.0236459 0.0146053
0.0187931 0.023248 0.0146451
0.0224546 0.0237054 0.0142123
0.0226997 0.0228692 0.0137688
0.0208421 0.0221826 0.0157318
0.0204964 0.0138534 0.0136214
0.0227105 0.0225803 0.0157633
0.0218915 0.0232937 0.013408
0.0159699 0.0231439 0.0132291
0.0203559 0.0239146 0.0124831
0.0233367 0.0231236 0.0148206
0.0197675 0.0231565 0.014817
0.0239622 0.0213527 0.0162152
0.0218043 0.0153232 0.0152392
0.0173208 0.0235922 0.0141415
0.0194282 0.0219966 0.00841944
0.021828 0.0226256 0.0141413
0.0188106 0.0194079 0.00719883
0.0166099 0.0232989 0.0147798
0.0202045 0.0236957 0.0140769
0.0234542 0.0222076 0.0163181
0.0234981 0.0156932 0.0144307
0.0214243 0.0142246 0.0136557
0.0227118 0.0149317 0.0150096
0.0208406 0.0147348 0.0159698
0.0238336 0.0225261 0.0154494
0.0257154 0.020377 0.0165897
0.0246043 0.0220151 0.0158295
0.0169374 0.0222131 0.0146406
0.0168478 0.0150266 0.0133875
0.0170977 0.0235776 0.0156066
0.0190723 0.0241085 0.0129058
0.0205122 0.0151652 0.0150817
0.0154251 0.0206184 0.0156672
0.0195756 0.0220838 0.0178184
0.018515 0.0183778 0.0166922
0.0228417 0.021433 0.0161623
0.0155857 0.021467 0.0161708
0.0195569 0.0149889 0.0148058
0.0154071 0.0224494 0.0161219
0.0199021 0.0224497 0.0155183
0.0197685 0.0144284 0.0139955
0.0163497 0.0195255 0.0183963
0.0198355 0.0145941 0.0156812
0.0166046 0.0162443 0.0149986
0.0172792 0.00974756 0.0363847
0.0228775 0.0222838 0.0145404
0.016453 0.0147451 0.0176129
0.017149 0.0211066 0.0154446
0.0166526 0.0226831 0.0155667
0.0167111 0.0217951 0.0160226
0.0148909 -0.018866 0.00795245
0.0205277 0.0236481 0.0152256
0.0177902 0.0154832 0.0141497
0.0157203 0.0229315 0.015304
0.0207597 0.0198189 0.0167304
0.017639 0.0240169 0.0164858
0.0212619 0.021709 0.0165286
0.0161561 0.0199604 0.0158491
0.0219572 0.0222006 0.0152152
0.01413 0.0226679 0.0153561
0.0188616 0.0143368 0.0144077
0.0161393 0.0173644 0.0156119
0.015207 0.0215174 0.0151988
0.0256948 0.030148 0.0358275
0.0231238 0.0216078 0.0152145
0.0206898 0.0228585 0.0137169
0.0159595 0.0220664 0.0147797
0.0168931 0.0142039 0.0147013
0.0164981 0.0208336 0.0161961
0.0150042 0.0222777 0.0145816
0.0181712 0.0235424 0.0156099
0.0148437 0.0232077 0.0149099
0.0179538 0.0142982 0.0148258
0.0182992 0.0223373 0.0163974
0.0174803 0.01515 0.0152003
0.0176343 0.0233515 0.0172347
0.0209778 0.0223217 0.0145117
0.0207209 0.014579 0.0142719
0.0236967 0.0150565 0.0151758
0.0190782 0.0220026 0.0158675
0.0217936 0.0146759 0.0144682
0.0242635 0.0161545 0.0148794
0.0154187 0.0198809 0.0165201
0.0210262 0.0208862 0.0184486
0.022222 0.0212683 0.0153871
0.0161647 0.0212794 0.0153628
0.0197762 0.0156946 0.0155353
0.0196976 0.0194351 0.0185016
0.0195714 0.0204569 0.0165685
0.0253485 0.018124 0.0166609
0.0223832 0.0203242 0.015769
0.0232946 0.0207095 0.0156213
0.0178054 0.0214807 0.0161505
0.016644 0.0155356 0.0142236
0.0213313 0.0181362 0.0189002
0.0187224 0.0210651 0.0163588
0.0234334 0.0189863 0.0159424
0.0239072 0.0177774 0.0157718
0.019886 0.0165115 0.0183426
0.0203596 0.0239826 0.0161528
0.0175949 0.0230383 0.016286
0.0163998 0.0142516 0.0138328
0.0204267 0.0209706 0.0163998
0.0171347 0.0201713 0.0157992
0.0227302 0.0148044 0.0140167
0.0248589 0.0196626 0.0167179

VERTICES 149 298
1 0
1 1
1 2
1 3
1 4
1 5
1 6
1 7
1 8
1 9
1 10
1 11
1 12
1 13
1 14
1 15
1 16
1 17
1 18
1 19
1 20
1 21
1 22
1 23
1 24
1 25
1 26
1 27
1 28
1 29
1 30
1 31
1 32
1 33
1 34
1 35
1 36
1 37
1 38
1 39
1 40
1 41
1 42
1 43
1 44
1 45
1 46
1 47
1 48
1 49
1 50
1 51
1 52
1 53
1 54
1 55
1 56
1 57
1 58
1 59
1 60
1 61
1 62
1 63
1 64
1 65
1 66
1 67
1 68
1 69
1 70
1 71
1 72
1 73
1 74
1 75
1 76
1 77
1 78
1 79
1 80
1 81
1 82
1 83
1 84
1 85
1 86
1 87
1 88
1 89
1 90
1 91
1 92
1 93
1 94
1 95
1 96
1 97
1 98
1 99
1 100
1 101
1 102
1 103
1 104
1 105
1 106
1 107
1 108
1 109
1 110
1 111
1 112
1 113
1 114
1 115
1 116
1 117
1 118
1 119
1 120
1 121
1 122
1 123
1 124
1 125
1 126
1 127
1 128
1 129
1 130
1 131
1 132
1 133
1 134
1 135
1 136
1 137
1 138
1 139
1 140
1 141
1 142
1 143
1 144
1 145
1 146
1 147
1 148

POINT_DATA 149
SCALARS id int 1
LOOKUP_TABLE default
1
2
3
4
5
6
7
8
9
10
11
12
13
14
15
16
17
18
19
20
21
22
23
24
25
26
27
28
29
30
31
32
33
34
35
36
37
38
39
40
41
42
43
44
45
46
47
48
49
50
51
52
53
54
55
56
57
58
59
60
61
62
63
64
65
66
67
68
69
70
71
72
73
74
75
76
77
78
79
80
81
82
83
84
85
86
87
88
89
90
91
92
93
94
95
96
97
98
99
100
101
102
103
104
105
106
107
108
109
110
111
112
113
114
115
116
117
118
119
120
121
122
123
124
125
126
127
128
129
130
131
132
133
134
135
136
137
138
139
141
142
143
144
145
146
147
148
149
150

SCALARS type int 1
LOOKUP_TABLE default
1
1
1
1
1
1
1
1
1
1
1
1
1
1
1
1
1
1
1
1
1
1
1
1
1
1
1
1
1
1
1
1
1
1
1
1
1
1
1
1
1
1
1
1
1
1
1
1
1
1
1
1
1
1
1
1
1
1
1
1
1
1
1
1
1
1
1
1
1
1
1
1
1
1
1
1
1
1
1
1
1
1
1
1
1
1
1
1
1
1
1
1
1
1
1
1
1
1
1
1
1
1
1
1
1
1
1
1
1
1
1
1
1
1
1
1
1
1
1
1
1
1
1
1
1
1
1
1
1
1
1
1
1
1
1
1
1
1
1
1
1
1
1
1
1
1
1
1
1

SCALARS radius float 1
LOOKUP_TABLE default
0.0005
0.0005
0.0005
0.0005
0.0005
0.0005
0.0005
0.0005
0.0005
0.0005
0.0005
0.0005
0.0005
0.0005
0.0005
0.0005
0.0005
0.0005
0.0005
0.0005
0.0005
0.0005
0.0005
0.0005
0.0005
0.0005
0.0005
0.0005
0.0005
0.0005
0.0005
0.0005
0.0005
0.0005
0.0005
0.0005
0.0005
0.0005
0.0005
0.0005
0.0005
0.0005
0.0005
0.0005
0.0005
0.0005
0.0005
0.0005
0.0005
0.0005
0.0005
0.0005
0.0005
0.0005
0.0005
0.0005
0.0005
0.0005
0.0005
0.0005
0.0005
0.0005
0.0005
0.0005
0.0005
0.0005
0.0005
0.0005
0.0005
0.0005
0.0005
0.0005
0.0005
0.0005
0.0005
0.0005
0.0005
0.0005
0.0005
0.0005
0.0005
0.0005
0.0005
0.0005
0.0005
0.0005
0.0005
0.0005
0.0005
0.0005
0.0005
0.0005
0.0005
0.0005
0.0005
0.0005
0.0005
0.0005
0.0005
0.0005
0.0005
0.0005
0.0005
0.0005
0.0005
0.0005
0.0005
0.0005
0.0005
0.0005
0.0005
0.0005
0.0005
0.0005
0.0005
0.0005
0.0005
0.0005
0.0005
0.0005
0.0005
0.0005
0.0005
0.0005
0.0005
0.0005
0.0005
0.0005
0.0005
0.0005
0.0005
0.0005
0.0005
0.0005
0.0005
0.0005
0.0005
0.0005
0.0005
0.0005
0.0005
0.0005
0.0005
0.0005
0.0005
0.0005
0.0005
0.0005
0.0005

SCALARS mass float 1
LOOKUP_TABLE default
1.46608e-07
1.46608e-07
1.46608e-07
1.46608e-07
1.46608e-07
1.46608e-07
1.46608e-07
1.46608e-07
1.46608e-07
1.46608e-07
1.46608e-07
1.46608e-07
1.46608e-07
1.46608e-07
1.46608e-07
1.46608e-07
1.46608e-07
1.46608e-07
1.46608e-07
1.46608e-07
1.46608e-07
1.46608e-07
1.46608e-07
1.46608e-07
1.46608e-07
1.46608e-07
1.46608e-07
1.46608e-07
1.46608e-07
1.46608e-07
1.46608e-07
1.46608e-07
1.46608e-07
1.46608e-07
1.46608e-07
1.46608e-07
1.46608e-07
1.46608e-07
1.46608e-07
1.46608e-07
1.46608e-07
1.46608e-07
1.46608e-07
1.46608e-07
1.46608e-07
1.46608e-07
1.46608e-07
1.46608e-07
1.46608e-07
1.46608e-07
1.46608e-07
1.46608e-07
1.46608e-07
1.46608e-07
1.46608e-07
1.46608e-07
1.46608e-07
1.46608e-07
1.46608e-07
1.46608e-07
1.46608e-07
1.46608e-07
1.46608e-07
1.46608e-07
1.46608e-07
1.46608e-07
1.46608e-07
1.46608e-07
1.46608e-07
1.46608e-07
1.46608e-07
1.46608e-07
1.46608e-07
1.46608e-07
1.46608e-07
1.46608e-07
1.46608e-07
1.46608e-07
1.46608e-07
1.46608e-07
1.46608e-07
1.46608e-07
1.46608e-07
1.46608e-07
1.46608e-07
1.46608e-07
1.46608e-07
1.46608e-07
1.46608e-07
1.46608e-07
1.46608e-07
1.46608e-07
1.46608e-07
1.46608e-07
1.46608e-07
1.46608e-07
1.46608e-07
1.46608e-07
1.46608e-07
1.46608e-07
1.46608e-07
1.46608e-07
1.46608e-07
1.46608e-07
1.46608e-07
1.46608e-07
1.46608e-07
1.46608e-07
1.46608e-07
1.46608e-07
1.46608e-07
1.46608e-07
1.46608e-07
1.46608e-07
1.46608e-07
1.46608e-07
1.46608e-07
1.46608e-07
1.46608e-07
1.46608e-07
1.46608e-07
1.46608e-07
1.46608e-07
1.46608e-07
1.46608e-07
1.46608e-07
1.46608e-07
1.46608e-07
1.46608e-07
1.46608e-07
1.46608e-07
1.46608e-07
1.46608e-07
1.46608e-07
1.46608e-07
1.46608e-07
1.46608e-07
1.46608e-07
1.46608e-07
1.46608e-07
1.46608e-07
1.46608e-07
1.46608e-07
1.46608e-07
1.46608e-07
1.46608e-07
1.46608e-07
1.46608e-07
1.46608e-07

VECTORS velocity float
-0.000170257 0.00218736 -0.00295833
0.000783562 -0.00114858 -0.000612917
-0.00799504 0.010087 -0.00451669
-0.00215178 -0.000689948 -0.000548696
0.000119573 0.00258721 0.00324135
-0.00107483 0.00148416 -0.00356255
-0.00163133 0.0017065 -0.00361829
-0.000275733 0.000627888 -0.00181201
2.2969e-05 0.000227037 3.88146e-05
0.000517363 -0.00782112 -0.0176507
0.00351669 0.00107416 -0.00203666
7.94528e-05 -0.0131647 -0.0155388
0.000413934 0.000375367 0.000120383
-0.000395885 -4.90993e-05 -0.000152018
-4.56174e-10 0.0199435 0.00491237
0.00679131 -0.0162801 -0.0154753
0.000355261 0.000782664 1.91606e-05
-0.0011801 0.00111701 0.00347283
-0.000343754 -1.83857e-05 7.72791e-05
0.00162208 0.0107098 0.0110773
0.00148113 0.00244507 -0.00377286
-0.00264145 0.00249243 -0.0052838
-0.000120328 -1.9202e-05 -0.000270617
0.00177631 0.0127319 0.00816678
0.000284569 0.00122328 -0.00189698
0.00428701 0.00217403 0.000545812
0.000646844 -0.0159379 -0.00989416
0.00598066 0.00894627 -0.0188816
-0.000388398 -0.00178185 -0.000114479
-0.000235696 -0.000267581 -3.02805e-05
-0.00310783 0.00255629 0.00227358
0.000111876 0.00072186 -0.00095352
-0.00239648 -0.00504038 -0.000857306
0.00110445 -0.013113 0.0128357
0.00160362 -0.00424778 -0.0180648
-4.54171e-05 -0.000134732 -0.000201735
0.00301479 0.00831403 -0.00904284
-1.30997e-09 0.023037 0.00924054
0.000822537 -0.00159866 -0.00206427
0.000413468 -0.000545453 -0.000806916
-0.00909414 -0.00414602 -0.00719635
-0.00109268 0.0111501 -0.00103018
0.000937057 0.000689558 0.000313444
-0.00101771 -0.000537414 -0.000655469
0.000123442 -0.00022279 3.76481e-06
0.00430876 0.00252837 -0.00410124
-0.00279934 -0.0113549 0.00895376
0.000136029 0.0010786 -0.00205312
-0.000245833 -0.00252403 0.00209295
0.00337966 0.00312265 -0.00192957
0.00313399 0.00130408 -0.002
0.00159406 0.000754936 -0.00221409
0.000540307 -0.000919935 -0.000856414
1.37697e-05 0.00535089 -0.0070152
8.9978e-05 -0.000679772 -0.00233561
-0.00282824 -0.00642412 -0.00847965
-4.3368e-06 0.000340935 -0.00021525
-0.000173292 -0.0145898 -0.0157129
0.00328597 0.00532676 -0.00563819
0.000468756 -0.0208154 -0.00222649
0.00207213 0.00115354 0.00152157
0.000248767 0.000297293 0.000156315
-0.00149138 -0.00288897 -0.000360407
-0.00122432 0.00239362 0.00491333
0.000205426 0.000726428 -0.00143054
0.00393093 0.0065063 -0.000702463
0.00195051 -0.0419646 0.100169
0.000552336 -0.000338731 0.0005651
-0.00408917 0.0130313 -0.00296843
0.000645481 0.000784782 0.000943354
0.00465389 0.000472535 0.00119422
0.00524118 0.000493546 0.000749354
0.000349813 0.000464501 0.00071431
1.11853e-05 -0.000122239 -9.85098e-05
-0.00243419 -0.0172957 0.0386763
0.00542912 0.000409713 0.00157856
0.0 0.0 -0.113743
1.33282e-09 0.0244358 0.00308113
0.00046795 -0.00999636 0.00124132
0.00437297 0.000979792 0.00141409
-0.00202289 -0.00637242 -0.0116997
0.00160859 0.000518029 8.95877e-05
0.00751118 0.00660771 -0.00445489
-0.00396958 -0.00224345 -0.00491985
0.0 0.0 -0.0399817
-0.00161379 0.00262132 -0.00778396
0.00559575 0.00755426 -0.0235954
0.075091 -0.114386 -0.00661059
0.00239106 0.00172274 -0.00278473
-0.0534276 0.00280696 0.291263
0.00491 0.00810257 -0.00538511
-0.000408384 6.45728e-05 -0.000556196
0.00192554 2.71992e-05 0.000497859
-0.0109839 -0.168362 -0.913806
-0.00147044 0.000880259 -0.000582951
0.0187186 -0.0139004 -0.0244475
0.00118704 0.000982028 -6.76992e-05
-1.80256e-09 0.0246397 -0.00353832
0.00341871 0.00026588 -0.00108702
0.06562 -0.0345391 -0.0242841
0.0038259 -0.00251586 0.0011444
0.0027224 -0.00369648 -0.0069
0.00109198 0.00165401 5.04345e-05
-0.00327297 -0.0164679 -0.0270957
0.000601255 0.0188057 0.00778619
0.00433379 0.00527082 -0.00293426
-0.0225272 -0.0286137 -0.123852
0.00369726 -0.000456774 -0.004718
0.00176805 0.0043445 -0.00748423
0.003776 0.00180343 2.38161e-05
0.00972089 -0.00422801 -0.00594722
0.00397543 -0.00178884 0.000930624
0.00417923 0.00272921 -0.000828396
-0.000396047 -0.00234362 0.000607528
0.000609404 0.00170541 0.00198263
0.000932225 -0.0475895 -0.0206248
-0.000652204 -0.00187553 -0.003218
0.0227771 -0.0204736 0.000546711
0.00624875 0.00182811 -0.000650881
0.000500155 0.0113627 -0.0121772
-0.00127244 0.00461451 -0.00548244
-0.00157554 -0.00221907 0.00103332
0.00410159 0.00721873 -0.00310857
0.00538541 -0.0015182 -0.00393214
0.00191491 0.00206791 -8.87563e-05
-0.00466472 0.0227466 -0.00497837
0.0 -0.0 -0.03
0.00378246 -0.00324211 -0.00539009
0.00276782 0.00152993 -0.00164313
-0.0402323 0.0146609 0.0106848
0.0 -0.0 -0.03
-1.40779e-07 0.0238716 -0.00655003
-2.90571e-09 0.0242625 0.00448138
0.0143028 0.000246661 -0.00232785
0.0151637 0.00300221 -0.000779324
0.000248561 -0.000375617 -0.00142114
0.00334489 0.00217489 0.00137907
0.0 -0.0 -0.03
2.1097e-08 0.0228958 -0.00940799
5.36064e-11 0.0205052 0.000374765
-3.44096e-08 0.0197877 0.00569621
0.0 0.0 -0.0515084
-0.00850063 0.00277883 -0.00260308
0.000148786 0.000350096 -0.000595813
0.00362221 -0.00110227 -0.00281481
-2.98277e-08 0.0230553 -0.00905473
0.0064953 0.00855255 -0.00262992
0.00768844 0.00604942 -0.00369148
0.00657683 0.00236303 -0.00125883

VECTORS force float
-3.27281e-06 2.48349e-06 -2.26776e-06
-5.44683e-08 5.90917e-09 -1.5216e-06
6.64069e-08 -1.56087e-06 -3.25103e-07
-5.93152e-07 -5.88458e-07 1.14484e-06
-2.3843e-09 -1.10455e-07 -5.78803e-08
1.65521e-08 -1.27718e-07 -4.23877e-08
2.34004e-07 5.17977e-08 -5.56651e-08
1.23202e-06 -3.0508e-06 -1.08374e-06
-8.74364e-07 -3.09249e-07 3.01806e-07
4.12949e-09 8.65864e-09 5.44242e-08
1.18576e-06 1.90993e-06 -1.61873e-06
4.44307e-09 -9.948e-08 -9.34469e-08
3.86215e-07 1.69152e-07 -9.37219e-07
-1.16445e-07 -1.55725e-07 -4.41149e-07
-1.56782e-15 3.3843e-09 -1.32485e-08
-3.78838e-08 1.74184e-07 -7.66271e-08
-1.50567e-07 8.171e-07 1.0223e-06
-1.36636e-08 -6.5962e-08 9.92469e-08
-6.94009e-07 -9.2852e-09 -2.75299e-07
4.20118e-09 6.08054e-08 1.69778e-08
-1.87852e-06 1.18615e-06 -1.94003e-06
-1.95503e-07 -3.30286e-07 3.62535e-07
-2.5567e-07 7.42154e-07 1.92202e-07
3.00052e-09 -8.40781e-09 -1.19553e-08
-2.5081e-07 -1.18669e-07 6.5809e-07
6.54222e-07 1.56255e-06 -2.65665e-06
-5.85969e-09 -3.09706e-08 -7.02809e-09
1.10315e-07 -8.93976e-08 -4.78444e-07
1.84848e-06 1.30356e-06 -1.86777e-06
-4.1609e-07 2.85971e-07 -4.79246e-07
-2.72841e-06 2.32735e-06 5.91549e-07
-5.97573e-07 4.97531e-07 1.34868e-06
0.0 0.0 -1.43822e-06
-1.51082e-08 -3.56117e-08 1.56723e-08
5.32575e-09 4.58424e-08 2.21878e-07
-9.58792e-08 -3.41753e-07 -5.67453e-07
-1.29009e-06 4.6698e-06 -6.88835e-06
-1.4342e-14 6.48688e-09 -1.56537e-08
6.21746e-06 1.9747e-06 -4.38028e-06
2.01067e-06 -1.67767e-06 -5.68311e-07
2.275e-07 -3.90245e-07 -9.35402e-07
0.0 0.0 -1.43822e-06
-5.31911e-07 -1.62553e-06 -1.90999e-06
3.74888e-07 2.0709e-07 -5.55155e-07
1.92045e-06 2.74214e-07 1.29408e-08
1.17337e-06 -2.51762e-06 5.53667e-06
0.0 0.0 -1.43822e-06
1.86413e-07 -3.86266e-07 -4.3726e-08
-2.64367e-06 -5.3585e-07 -4.32331e-06
8.9499e-06 2.96657e-06 8.73166e-07
5.69624e-07 7.31773e-07 -1.19368e-06
-2.10628e-07 1.63137e-07 -3.96145e-07
1.49133e-06 9.89636e-07 -8.83631e-07
4.43154e-07 -1.9824e-06 2.32381e-06
3.2424e-06 -4.13219e-06 6.3307e-07
-1.43444e-08 -3.27214e-07 -2.96343e-07
-6.74606e-07 5.23936e-07 1.50801e-07
-2.17153e-08 -3.12661e-08 -2.23983e-08
2.2114e-06 8.83553e-07 4.21748e-06
-2.48382e-09 -8.43792e-09 1.26598e-08
-6.88137e-07 7.92702e-07 1.53051e-06
-6.25451e-08 -6.40984e-08 -2.15382e-07
1.71761e-06 7.40583e-06 1.14285e-06
-8.937e-09 -2.14681e-08 -1.24008e-08
1.68428e-07 1.74012e-07 5.10906e-09
0.0 0.0 -1.43822e-06
0.0 0.0 -1.43822e-06
-2.93812e-06 -1.62553e-06 3.19783e-06
4.30956e-07 9.67136e-08 -1.76298e-07
6.64678e-07 -3.91395e-07 -3.63391e-07
-4.23747e-07 1.51869e-06 -2.28715e-06
8.90215e-07 -9.40147e-07 3.036e-07
2.01746e-06 -3.17153e-07 2.27311e-06
4.95741e-08 1.2548e-08 -1.05021e-09
0.0 0.0 -1.43822e-06
-1.11835e-08 -2.2472e-06 8.44586e-07
0.0 0.0 -1.43822e-06
7.73951e-15 2.02945e-09 -1.66648e-08
-7.98869e-06 -2.64839e-06 -2.5064e-06
-1.48497e-06 -1.01632e-06 -7.63412e-07
-3.65251e-08 -3.95303e-08 2.04658e-08
-8.75756e-07 -2.35029e-07 -4.12537e-07
0.0 0.0 -1.43822e-06
5.12392e-08 -4.72701e-07 -6.66645e-07
0.0 0.0 -1.43822e-06
-3.43456e-08 -3.19464e-08 1.25894e-08
0.0 0.0 -1.43822e-06
0.0 0.0 -1.43822e-06
1.39668e-06 4.54475e-07 -3.96738e-07
0.0 0.0 -1.43822e-06
9.99072e-08 -1.0233e-06 -1.61234e-07
-3.71769e-06 5.90811e-08 -1.36246e-06
-3.94383e-07 2.05275e-06 -4.57601e-07
0.0 0.0 -1.43822e-06
-5.60772e-07 1.93717e-07 8.86308e-07
0.0 0.0 -1.43822e-06
1.06202e-06 -1.14816e-07 1.76593e-06
-3.71578e-15 -2.35103e-09 -1.68243e-08
-2.28727e-06 1.43533e-06 6.23174e-06
0.0 0.0 -1.43822e-06
-2.79661e-07 9.22347e-07 -3.5966e-07
6.54403e-06 4.19167e-06 -1.31991e-05
2.6759e-07 -5.3948e-08 1.8487e-06
0.0 0.0 -1.43822e-06
-5.2822e-10 7.54734e-09 -1.14679e-08
-1.01664e-06 1.09788e-06 -1.25494e-06
0.0 0.0 -1.43822e-06
8.43058e-08 2.19269e-06 -6.1536e-06
-4.00707e-07 1.57346e-06 -4.31168e-06
-3.55292e-07 3.71568e-06 -3.11329e-06
5.24513e-07 -2.69986e-07 4.166e-07
1.49807e-07 7.61063e-07 -1.2069e-06
-2.55256e-07 2.96733e-06 -1.09444e-06
1.33418e-07 6.6882e-07 -9.94115e-07
-8.6134e-07 9.5028e-07 2.25454e-06
8.85739e-07 -3.42887e-07 -9.67822e-07
1.42124e-06 -5.19733e-07 4.46488e-07
0.0 0.0 -1.43822e-06
-4.30955e-07 -1.01677e-07 2.74135e-06
3.38941e-07 1.38072e-06 1.17599e-06
-3.37748e-07 -3.85011e-08 -2.59549e-07
-2.96943e-08 -1.61664e-08 -1.08334e-08
2.23794e-06 7.38657e-07 -1.28745e-06
-9.40885e-08 -4.24955e-07 -6.05689e-07
-2.33025e-08 -2.59037e-08 -6.31767e-10
0.0 0.0 -1.43822e-06
0.0 0.0 0.0
-1.59387e-06 4.32313e-06 -1.98119e-05
-8.81359e-07 1.21287e-06 -6.88982e-07
0.0 0.0 -1.43822e-06
0.0 0.0 0.0
4.82792e-14 -4.65544e-09 -1.71519e-08
-1.37533e-14 3.15845e-09 -1.65244e-08
0.0 0.0 -1.43822e-06
-1.00237e-06 1.78928e-06 3.01036e-07
-1.34423e-07 5.42105e-07 -6.91788e-07
4.48735e-07 2.86159e-07 9.57309e-07
0.0 0.0 0.0
-6.24137e-10 2.57263e-09 -1.96421e-08
1.46377e-16 3.14706e-10 -1.3644e-08
-2.53105e-11 3.73682e-09 -1.31882e-08
0.0 0.0 -1.43822e-06
-8.26876e-07 2.20406e-07 -6.25703e-07
-1.61819e-06 -8.27855e-07 2.17445e-06
-2.25134e-08 2.18671e-08 4.20758e-07
-2.36071e-11 -6.31556e-09 -1.56752e-08
-4.11752e-07 1.03378e-06 -2.34916e-07
0.0 0.0 -1.43822e-06
-3.67272e-07 1.07033e-06 -9.22553e-08
