# vtk DataFile Version 3.0
LIGGGHTS particles timestep 8400000
ASCII
DATASET POLYDATA
POINTS 176 float
0.023858 0.0166816 0.020432
0.0220456 0.0144169 0.0140082
0.0201716 0.023634 0.0139884
0.0222034 0.0218806 0.0149465
0.0292345 0.0158551 0.0143842
0.0226444 0.0230825 0.0133432
0.0240072 0.0225329 0.0152936
0.0197279 0.0241509 0.0129363
0.00938048 0.0183393 0.00587271
0.0226882 0.0154913 0.0154428
0.0269903 0.0233724 0.0116751
0.0366849 0.0218066 0.0435188
0.018729 0.0148953 0.013078
0.03172 0.0203185 0.00741791
0.0188313 0.0245031 0.0136646
0.0255029 0.0193743 0.00718039
0.0203328 0.0224788 0.00895499
0.0167148 0.0141724 0.0136746
0.0294509 0.015332 0.0135853
0.0180292 0.0139491 0.0140393
0.0204999 0.0243426 0.0135411
0.0163069 0.0199295 0.0158616
0.0209893 0.0234972 0.0154848
0.0203305 0.0143952 0.0140394
0.0167096 0.0233502 0.0124776
0.028102 0.0203226 0.0156301
0.0220177 0.0236992 0.0137632
0.0243162 0.0189077 0.0159393
0.0207836 0.0144725 0.0207398
0.0195344 0.0242261 0.014244
0.0231973 0.0160861 0.0148207
0.003617 0.0285782 0.0435188
0.0226138 0.013533 0.0205528
0.022723 0.0190533 0.0159428
0.0290145 0.0196369 0.0157815
0.0160932 0.0231731 0.0130956
0.0196051 0.0193773 0.00612808
0.0300628 0.0148342 0.0109058
0.0185418 0.0139184 0.0131813
0.01914 0.0179971 0.007311
0.0305902 0.014778 0.0116913
0.0295934 0.0149901 0.0127322
0.0302182 0.0149593 0.0102253
0.0159605 0.0153103 0.0171233
0.015688 0.0224239 0.0144433
0.0210407 0.023695 0.0122371
0.023677 0.0151998 0.0149805
0.0279689 0.0211331 0.0152794
0.0189913 0.0171621 0.00761635
0.0191091 0.0158047 0.0145351
0.0246347 0.0219685 0.0158422
0.0228902 0.0179649 0.0158106
0.0184341 0.0153301 0.0139287
0.0283335 0.0193218 0.0158169
0.0304487 0.0154493 0.00912741
0.0309644 0.0169353 0.00772976
0.021224 0.0141835 0.0134883
0.0236682 0.0148647 0.0125312
0.0277905 0.0217676 0.0148071
0.023493 0.0161006 0.0157758
0.0128354 0.020027 0.0193922
0.0234918 0.0151588 0.0133933
0.0209435 0.023994 0.0144922
0.0261716 0.0219995 0.00843241
0.0182798 0.0196456 0.0159103
0.0205217 0.0230419 0.00989502
0.0214483 0.0168437 0.00645098
0.0177382 0.0219558 0.0148789
0.0218846 0.0232938 0.0127222
0.0242706 0.0150155 0.00993327
0.0150881 0.0224519 0.0155564
0.0551527 0.0181697 0.00595147
0.0320881 0.0218441 0.00819228
0.0178192 0.0146634 0.0123262
0.0319219 0.021277 0.00777293
0.0173471 0.0239391 0.0126515
0.0241682 0.0107807 0.0290519
0.0303903 0.00406748 0.0435188
0.0172637 0.023227 0.0133532
0.024865 0.0162539 0.0161847
0.0211833 0.0147065 0.0144583
0.0311759 0.0180625 0.00729097
0.0213804 0.0230254 0.0134493
0.0212835 0.0237297 0.0165874
0.0241079 0.0199274 0.0158541
0.0169691 0.0214133 0.0152647
0.0324747 0.0228835 0.00944685
0.0266665 0.0226902 0.00902991
0.0191517 0.0237699 0.0135375
0.0193993 0.0146522 0.0137791
0.0570019 0.0175547 0.00590579
0.0212343 0.0143156 0.0170574
0.0215879 0.0127003 0.0226392
0.023382 0.0207591 0.0156006
0.0186627 0.0240988 0.0128349
0.0234424 0.0225834 0.014347
0.0300899 0.0147839 0.0113016
0.0221348 0.00230077 0.0435188
0.014377 0.0229598 0.0150704
0.0243345 0.0155677 0.0156871
0.0196655 0.020171 0.00736637
0.0269433 0.00965697 0.0338412
0.0203518 0.0227616 0.0152565
0.0225635 0.0145818 0.0177407
0.0219022 0.0238812 0.0147121
0.0241825 0.0162114 0.0149372
0.0224218 0.0225954 0.0141879
0.0208765 0.0234005 0.0112882
0.0275616 0.0223798 0.0141049
0.025931 0.0210392 0.00773628
0.0246275 0.0158635 0.00857343
0.0203117 0.0140417 0.0131045
0.0256107 0.0207413 0.0164863
0.0202428 0.0144838 0.0150314
0.0248859 0.0168277 0.0153614
0.0264846 0.0229311 0.00959867
0.0212847 0.0239134 0.0131496
0.0160139 0.0236089 0.0141118
0.0213593 0.023018 0.00976504
0.0266571 0.0232052 0.0103279
0.0236143 0.0170838 0.016471
0.0229465 0.017014 0.0154597
0.0268146 0.0190088 0.00598366
0.0194622 0.0136936 0.0135007
0.0167928 0.0222028 0.014669
0.0199235 0.0213192 0.00782941
0.0204437 0.0219064 0.0159404
0.0181008 0.0238189 0.0137079
0.0194476 0.0142055 0.0126293
0.0307301 0.0162223 0.00826073
0.0162001 0.0150773 0.0149786
0.0199915 0.0195101 0.00720207
0.0288374 0.01718 0.0153494
0.0182386 0.0142676 0.0163666
0.0221996 0.00109062 0.0435188
0.0172999 0.0198315 0.0158784
0.0285833 0.0184741 0.0157745
0.0199505 0.0179554 0.00730376
0.0235154 0.023285 0.015446
0.0246189 0.020617 0.0165127
0.0175787 0.0141867 0.0131714
0.0152084 0.0232825 0.0146182
0.031437 0.0191037 0.00719943
0.0237816 0.0215774 0.0151503
0.0173185 0.0156856 0.0144186
0.0165939 0.0186111 0.0159361
0.0208128 0.015292 0.0151792
0.0216305 0.0227918 0.0167672
0.0169596 0.024265 0.0140301
0.0220594 0.0149968 0.0148429
0.0208676 0.0222597 0.00861854
0.0272464 0.0230936 0.0129354
0.108836 0.0200055 0.00584234
0.0181733 0.0160412 0.0147963
0.022953 0.0146934 0.0145122
0.0186613 0.0227164 0.0162047
0.0205034 0.0189318 0.00717244
0.0165485 0.0227912 0.0138992
0.0239315 0.0171722 0.0155269
0.0187714 0.0146246 0.012024
0.0196956 0.0153083 0.015175
0.0158762 0.0144765 0.0141265
0.0160971 0.0208611 0.0155717
0.0163272 0.0214506 0.0163458
0.022893 0.0234602 0.0144426
0.0138899 0.022303 0.0156458
0.0253507 0.0172225 0.0164169
0.00937694 0.00505359 0.0435188
0.0168728 0.014741 0.0164741
0.0160155 0.0217208 0.0150716
0.0154201 0.0229559 0.0136416
0.0175292 0.0151026 0.0135696
0.0246377 0.0179251 0.0158004
0.0187933 0.0162904 0.00817422
0.024947 0.0190645 0.00586966
0.0250236 0.0173393 0.007521

VERTICES 176 352
1 0
1 1
1 2
1 3
1 4
1 5
1 6
1 7
1 8
1 9
1 10
1 11
1 12
1 13
1 14
1 15
1 16
1 17
1 18
1 19
1 20
1 21
1 22
1 23
1 24
1 25
1 26
1 27
1 28
1 29
1 30
1 31
1 32
1 33
1 34
1 35
1 36
1 37
1 38
1 39
1 40
1 41
1 42
1 43
1 44
1 45
1 46
1 47
1 48
1 49
1 50
1 51
1 52
1 53
1 54
1 55
1 56
1 57
1 58
1 59
1 60
1 61
1 62
1 63
1 64
1 65
1 66
1 67
1 68
1 69
1 70
1 71
1 72
1 73
1 74
1 75
1 76
1 77
1 78
1 79
1 80
1 81
1 82
1 83
1 84
1 85
1 86
1 87
1 88
1 89
1 90
1 91
1 92
1 93
1 94
1 95
1 96
1 97
1 98
1 99
1 100
1 101
1 102
1 103
1 104
1 105
1 106
1 107
1 108
1 109
1 110
1 111
1 112
1 113
1 114
1 115
1 116
1 117
1 118
1 119
1 120
1 121
1 122
1 123
1 124
1 125
1 126
1 127
1 128
1 129
1 130
1 131
1 132
1 133
1 134
1 135
1 136
1 137
1 138
1 139
1 140
1 141
1 142
1 143
1 144
1 145
1 146
1 147
1 148
1 149
1 150
1 151
1 152
1 153
1 154
1 155
1 156
1 157
1 158
1 159
1 160
1 161
1 162
1 163
1 164
1 165
1 166
1 167
1 168
1 169
1 170
1 171
1 172
1 173
1 174
1 175

POINT_DATA 176
SCALARS id int 1
LOOKUP_TABLE default
1
2
3
4
5
7
11
13
15
16
17
18
19
20
23
24
25
27
28
29
31
32
33
34
35
37
40
41
43
44
47
49
50
51
52
54
57
59
62
63
65
67
68
71
73
74
76
79
80
83
84
85
86
87
88
89
90
91
92
95
97
99
102
103
105
106
108
109
110
112
116
121
122
124
125
126
127
128
130
131
133
135
137
138
139
141
142
143
145
147
149
150
151
154
157
158
160
161
165
166
167
170
171
173
174
175
177
179
185
186
187
191
192
193
194
197
199
200
201
205
206
211
215
218
220
221
223
224
225
226
227
228
229
230
232
235
237
239
240
241
242
246
247
248
249
250
251
252
253
256
257
258
260
262
263
268
269
270
271
272
273
274
275
276
277
282
283
284
286
288
289
291
294
298
299
300

SCALARS type int 1
LOOKUP_TABLE default
1
1
1
1
1
1
1
1
1
1
1
1
1
1
1
1
1
1
1
1
1
1
1
1
1
1
1
1
1
1
1
1
1
1
1
1
1
1
1
1
1
1
1
1
1
1
1
1
1
1
1
1
1
1
1
1
1
1
1
1
1
1
1
1
1
1
1
1
1
1
1
1
1
1
1
1
1
1
1
1
1
1
1
1
1
1
1
1
1
1
1
1
1
1
1
1
1
1
1
1
1
1
1
1
1
1
1
1
1
1
1
1
1
1
1
1
1
1
1
1
1
1
1
1
1
1
1
1
1
1
1
1
1
1
1
1
1
1
1
1
1
1
1
1
1
1
1
1
1
1
1
1
1
1
1
1
1
1
1
1
1
1
1
1
1
1
1
1
1
1
1
1
1
1
1
1

SCALARS radius float 1
LOOKUP_TABLE default
0.0005
0.0005
0.0005
0.0005
0.0005
0.0005
0.0005
0.0005
0.0005
0.0005
0.0005
0.0005
0.0005
0.0005
0.0005
0.0005
0.0005
0.0005
0.0005
0.0005
0.0005
0.0005
0.0005
0.0005
0.0005
0.0005
0.0005
0.0005
0.0005
0.0005
0.0005
0.0005
0.0005
0.0005
0.0005
0.0005
0.0005
0.0005
0.0005
0.0005
0.0005
0.0005
0.0005
0.0005
0.0005
0.0005
0.0005
0.0005
0.0005
0.0005
0.0005
0.0005
0.0005
0.0005
0.0005
0.0005
0.0005
0.0005
0.0005
0.0005
0.0005
0.0005
0.0005
0.0005
0.0005
0.0005
0.0005
0.0005
0.0005
0.0005
0.0005
0.0005
0.0005
0.0005
0.0005
0.0005
0.0005
0.0005
0.0005
0.0005
0.0005
0.0005
0.0005
0.0005
0.0005
0.0005
0.0005
0.0005
0.0005
0.0005
0.0005
0.0005
0.0005
0.0005
0.0005
0.0005
0.0005
0.0005
0.0005
0.0005
0.0005
0.0005
0.0005
0.0005
0.0005
0.0005
0.0005
0.0005
0.0005
0.0005
0.0005
0.0005
0.0005
0.0005
0.0005
0.0005
0.0005
0.0005
0.0005
0.0005
0.0005
0.0005
0.0005
0.0005
0.0005
0.0005
0.0005
0.0005
0.0005
0.0005
0.0005
0.0005
0.0005
0.0005
0.0005
0.0005
0.0005
0.0005
0.0005
0.0005
0.0005
0.0005
0.0005
0.0005
0.0005
0.0005
0.0005
0.0005
0.0005
0.0005
0.0005
0.0005
0.0005
0.0005
0.0005
0.0005
0.0005
0.0005
0.0005
0.0005
0.0005
0.0005
0.0005
0.0005
0.0005
0.0005
0.0005
0.0005
0.0005
0.0005
0.0005
0.0005
0.0005
0.0005
0.0005
0.0005

SCALARS mass float 1
LOOKUP_TABLE default
1.46608e-07
1.46608e-07
1.46608e-07
1.46608e-07
1.46608e-07
1.46608e-07
1.46608e-07
1.46608e-07
1.46608e-07
1.46608e-07
1.46608e-07
1.46608e-07
1.46608e-07
1.46608e-07
1.46608e-07
1.46608e-07
1.46608e-07
1.46608e-07
1.46608e-07
1.46608e-07
1.46608e-07
1.46608e-07
1.46608e-07
1.46608e-07
1.46608e-07
1.46608e-07
1.46608e-07
1.46608e-07
1.46608e-07
1.46608e-07
1.46608e-07
1.46608e-07
1.46608e-07
1.46608e-07
1.46608e-07
1.46608e-07
1.46608e-07
1.46608e-07
1.46608e-07
1.46608e-07
1.46608e-07
1.46608e-07
1.46608e-07
1.46608e-07
1.46608e-07
1.46608e-07
1.46608e-07
1.46608e-07
1.46608e-07
1.46608e-07
1.46608e-07
1.46608e-07
1.46608e-07
1.46608e-07
1.46608e-07
1.46608e-07
1.46608e-07
1.46608e-07
1.46608e-07
1.46608e-07
1.46608e-07
1.46608e-07
1.46608e-07
1.46608e-07
1.46608e-07
1.46608e-07
1.46608e-07
1.46608e-07
1.46608e-07
1.46608e-07
1.46608e-07
1.46608e-07
1.46608e-07
1.46608e-07
1.46608e-07
1.46608e-07
1.46608e-07
1.46608e-07
1.46608e-07
1.46608e-07
1.46608e-07
1.46608e-07
1.46608e-07
1.46608e-07
1.46608e-07
1.46608e-07
1.46608e-07
1.46608e-07
1.46608e-07
1.46608e-07
1.46608e-07
1.46608e-07
1.46608e-07
1.46608e-07
1.46608e-07
1.46608e-07
1.46608e-07
1.46608e-07
1.46608e-07
1.46608e-07
1.46608e-07
1.46608e-07
1.46608e-07
1.46608e-07
1.46608e-07
1.46608e-07
1.46608e-07
1.46608e-07
1.46608e-07
1.46608e-07
1.46608e-07
1.46608e-07
1.46608e-07
1.46608e-07
1.46608e-07
1.46608e-07
1.46608e-07
1.46608e-07
1.46608e-07
1.46608e-07
1.46608e-07
1.46608e-07
1.46608e-07
1.46608e-07
1.46608e-07
1.46608e-07
1.46608e-07
1.46608e-07
1.46608e-07
1.46608e-07
1.46608e-07
1.46608e-07
1.46608e-07
1.46608e-07
1.46608e-07
1.46608e-07
1.46608e-07
1.46608e-07
1.46608e-07
1.46608e-07
1.46608e-07
1.46608e-07
1.46608e-07
1.46608e-07
1.46608e-07
1.46608e-07
1.46608e-07
1.46608e-07
1.46608e-07
1.46608e-07
1.46608e-07
1.46608e-07
1.46608e-07
1.46608e-07
1.46608e-07
1.46608e-07
1.46608e-07
1.46608e-07
1.46608e-07
1.46608e-07
1.46608e-07
1.46608e-07
1.46608e-07
1.46608e-07
1.46608e-07
1.46608e-07
1.46608e-07
1.46608e-07
1.46608e-07
1.46608e-07
1.46608e-07
1.46608e-07
1.46608e-07
1.46608e-07
1.46608e-07
1.46608e-07

VECTORS velocity float
0.0127967 -0.0900695 -0.195807
0.00454319 0.00176986 0.00146945
0.000803444 0.00170861 -0.00254897
0.00172178 0.0369312 -0.0320094
0.000583531 0.00894231 0.0117139
0.000248683 0.00036773 -0.000447801
-0.00822799 0.0087215 -0.0101976
-0.000103627 0.000780185 -0.000401306
3.64477e-15 5.41789e-16 -3.6901e-14
0.00234555 0.00279278 0.00157441
0.000358712 0.00126067 -0.0212454
-9.6879e-317 9.73506e-317 2.68131e-13
0.000811598 -0.00107379 -0.000870608
0.000288164 -0.0195594 -0.00548641
0.000108826 0.00033839 -0.000267047
0.00141938 -0.0174359 -0.00220161
3.83395e-05 -0.0114271 -0.0160654
-0.00169817 -0.00274363 0.00854206
0.000116608 0.00950948 0.020173
0.000107957 -0.00625203 0.00213875
-0.000413764 0.000731139 -0.00120785
0.00236379 0.011389 0.00374367
-0.00491105 0.0015392 -0.00188931
0.00173354 0.000787301 0.00292085
0.00150171 0.000732002 -0.00365828
0.000431714 0.0190561 -0.00594233
0.00150958 0.000471304 -0.000525834
1.39382e-11 0.0204887 0.00070867
-0.0699025 -0.107209 -0.152578
0.000302503 0.000399463 -0.000607527
0.00125134 0.0129954 0.0108779
-9.68849e-317 -9.75601e-317 2.88878e-12
-0.0433477 -0.0213046 -0.144268
2.01408e-10 0.0205073 -4.80959e-05
0.002266 0.0162929 -0.00315949
0.00281277 0.00071952 -0.00362897
-3.58861e-14 1.6117e-14 -3.28528e-13
0.00137955 -0.00167449 0.0111943
0.00311578 -0.00101693 0.00367954
0.000707396 -0.0163465 0.00483728
0.00328248 -0.00127684 0.00483792
0.000134444 0.00601032 0.0206226
0.000562259 -0.00551136 0.0164174
0.0198667 0.121142 -0.159053
0.003955 0.0035261 -0.00227042
0.00333099 -0.00903914 -0.000760337
0.000449438 0.00764084 -0.00795434
0.000821108 0.0145743 -0.00714234
0.00139903 -0.0133876 0.00693004
0.00238886 0.00721636 0.00831421
-0.00671087 0.00752761 -0.00509662
5.86844e-11 0.0198774 0.00510082
0.00517202 0.00134059 -0.00114751
0.000746504 0.0175106 -0.00218325
0.00115201 -0.00934006 0.0138934
0.00121395 -0.0142605 0.00640129
0.00302636 0.000108622 0.00410224
0.000796871 0.0042287 0.0159791
0.000592721 0.0141516 -0.0132827
0.00499762 0.00549657 0.00984843
0.0290415 -0.0450419 -0.000598189
0.00169455 0.00312138 0.0092438
0.00628495 0.0169183 -0.0239446
0.000791172 -0.0146161 -0.0133812
0.00126709 0.0199406 -0.00235027
0.00142447 -0.00798564 -0.0166189
-2.41346e-14 5.08899e-14 1.843e-13
0.00355152 0.00614203 -0.00228466
7.08517e-05 0.00189092 -0.00110778
0.00149445 -0.00582901 0.0122626
0.0114387 0.0109193 -0.00798124
-1.30213e-14 -1.76693e-14 -2.51654e-13
0.0034409 -0.0026252 -0.00432796
0.0014273 0.00164433 0.0171239
0.000741506 -0.00564171 -0.00319763
0.000855006 -0.000922276 0.000382681
-0.0236318 -0.0152289 -0.0285725
-9.67556e-317 -9.75879e-317 -3.22607e-12
0.00716657 -0.00802336 -0.012558
0.0131036 -0.00593581 -0.00586421
0.00205801 0.000938168 0.00290358
0.000531997 -0.0196552 0.00475778
0.00130013 0.00343965 -0.00606618
-0.0387176 -0.0386572 -0.122016
9.11212e-11 0.0200894 -0.00408201
0.000148955 0.0186899 -0.0116766
0.000121552 -0.00975506 -0.0189701
0.00183685 7.30947e-05 -0.00139707
0.00029119 0.00169102 -0.00160419
0.00184742 -0.00115565 -0.00164709
4.3342e-15 1.18957e-14 2.80768e-13
-0.0700075 0.0371198 -0.1069
-0.0509763 0.0366315 -0.105768
-9.23504e-05 0.0190859 -0.0079824
-3.58792e-05 -0.000217483 -2.98379e-05
-0.00813045 -0.0920904 -0.0862905
-2.63247e-05 -8.59911e-06 0.0117031
9.74157e-317 -9.69799e-317 9.23294e-13
-0.00106884 -0.00253822 -0.00204395
0.000105559 -0.000535816 0.000639491
-0.000103162 -0.0206746 -0.00617196
-0.0351106 -0.104435 0.110505
-0.00939899 0.00801754 -0.00995894
-0.0727858 -0.00570785 -0.107498
-0.00211794 0.000295859 -0.00057597
0.00181387 0.00982946 0.00902376
-0.0376997 0.00578318 -0.0063432
0.000804519 -0.000463357 -0.0179091
0.000166004 0.0135148 -0.0165632
-0.00018733 -0.0190647 -0.0118378
0.00104907 -0.0130348 0.0137385
0.00292794 -0.000735278 0.00329058
-0.0019358 0.0057509 -0.00233156
5.32364e-05 0.001601 0.00304716
0.00353095 0.0113037 0.0056994
0.00109409 -0.00319287 -0.00650087
0.000358963 0.00118559 -0.000882708
0.00323923 0.00217752 -0.00206406
0.00492692 -0.00369181 -0.00743474
0.000674811 -0.00279079 -0.00857808
0.00153418 0.00906156 0.00750343
0.000369675 0.0185307 0.00966465
-1.911e-14 -3.07995e-15 3.11554e-13
0.0030808 -0.00107457 0.00373078
0.00373222 0.0073507 -0.00138544
0.000903178 -0.0159133 -0.00881659
0.0395006 0.0277674 -0.0171206
-0.016508 0.00433976 -0.0433138
0.00226709 -0.00275461 0.00363901
0.000787221 -0.0143945 0.0130723
0.00571788 -0.0054907 -0.00461557
0.000281842 -0.0181737 -0.00312415
0.000103735 0.0199024 0.0106015
0.133301 0.00967991 -0.194255
9.58743e-317 9.68145e-317 4.97437e-14
0.00145768 0.0145494 0.00146631
0.000381235 0.0208965 0.00347617
0.000655713 -0.011294 0.00267703
-0.0198431 0.0106628 -0.00918569
-0.00451971 0.025066 -0.00793525
0.00195783 -0.00393698 0.0144098
-0.000454864 -2.67203e-05 -0.000933115
0.000325031 -0.0222718 -0.00145692
-0.00686485 0.00537019 -0.00341047
0.00166057 0.00933013 0.0116083
0.000476921 0.0206938 0.00187618
0.00272289 -8.31063e-05 0.00307982
0.0064618 -0.0338782 -0.207329
0.0104497 -0.00205297 -0.0253488
0.00230785 0.00192215 0.00227345
0.000867941 -0.0137666 -0.0135905
-0.000473145 0.0120896 -0.0192951
7.5319e-16 -1.27686e-15 -6.97501e-15
0.00295797 0.00717958 0.0105467
0.000652978 0.00117306 -0.000687184
0.013709 -0.000479772 -0.0583274
0.00254852 -0.0146041 0.00107672
0.00470723 0.00360452 -0.00419538
0.000861889 0.0155425 0.00757963
-0.00109094 -8.07357e-05 0.00923682
0.00400819 0.00384309 0.00418286
-0.00359143 0.0010054 0.00303848
0.00391102 0.0112592 0.00605791
0.0173312 0.0118275 0.00352167
0.0282348 -0.0544407 -0.0327754
-0.00176771 -0.00179662 -0.00171797
-0.000188107 0.0201692 0.00713561
-9.68799e-317 -9.69932e-317 9.23294e-13
0.0824671 0.10613 -0.246934
0.00342392 0.00786094 0.00120366
0.00387306 0.00114637 -0.00363297
0.00347288 0.0023231 0.00147055
3.34499e-11 0.0198241 0.00530779
0.00065544 -0.0117317 0.00882977
2.55094e-15 6.87127e-16 -4.253e-14
0.000164484 -0.0216194 0.00724829

VECTORS force float
0.0 0.0 -1.43822e-06
4.27116e-07 -3.12862e-07 6.41493e-07
-7.37971e-07 -1.91839e-06 3.94046e-06
5.91142e-08 1.89237e-07 -5.1139e-07
-8.65556e-10 5.55938e-09 -9.97291e-10
-4.71386e-07 1.42046e-07 9.68997e-07
-1.0502e-05 2.3835e-06 -4.38055e-06
2.87565e-07 4.79241e-08 3.05093e-07
-6.35275e-22 -2.56426e-21 0.0
6.68427e-07 1.29776e-07 2.93268e-07
-2.07714e-07 -2.67734e-07 -7.04512e-07
0.0 0.0 0.0
1.03392e-06 -2.84739e-07 -6.98794e-07
-1.79736e-09 -1.13092e-08 8.06262e-09
4.1004e-08 3.05737e-08 -1.00814e-07
3.22283e-09 8.87145e-09 1.62731e-08
-6.37834e-10 -1.43701e-08 2.10968e-08
7.6471e-08 -3.06782e-07 7.3415e-07
1.76568e-09 -9.27074e-10 -1.75488e-08
-3.59978e-07 3.72772e-07 2.31693e-07
2.35842e-06 -7.20459e-07 2.75428e-06
3.79524e-07 -1.61897e-08 1.14485e-06
2.65995e-08 3.99589e-08 -6.22672e-08
9.45739e-07 1.34386e-06 -8.19643e-07
1.51672e-06 1.43313e-07 -1.00804e-06
-3.64705e-10 2.90226e-10 -1.10273e-08
-4.24159e-06 5.87477e-07 -7.56292e-07
-8.59677e-17 5.12345e-10 -1.36314e-08
0.0 0.0 -1.43822e-06
-1.86859e-07 1.22133e-07 -3.00102e-07
1.23552e-07 7.36755e-08 2.28726e-07
0.0 0.0 0.0
0.0 0.0 -1.43822e-06
1.13336e-15 -6.42508e-11 -1.36456e-08
-1.73039e-08 5.52697e-08 -1.75864e-08
1.29682e-06 6.46932e-07 -3.82843e-07
3.44107e-21 1.72715e-20 2.11758e-22
1.22188e-07 2.24537e-08 -4.13862e-07
2.38062e-07 2.18645e-09 -9.94464e-09
-3.8095e-08 -1.40083e-07 3.65934e-08
-3.64054e-06 5.66201e-07 -2.67164e-07
-6.8749e-10 9.39843e-09 -6.39621e-09
-1.60333e-07 1.61063e-07 -1.73273e-07
0.0 0.0 -1.43822e-06
1.00092e-06 1.78792e-07 -2.23716e-06
3.89261e-07 -2.07757e-06 -5.72346e-07
5.46035e-07 -8.15985e-08 6.07601e-07
-2.74553e-11 -3.44792e-09 -1.12087e-08
5.89311e-08 -1.72116e-08 5.38704e-09
2.63814e-08 -3.43558e-08 3.58687e-08
-1.87134e-07 2.21515e-07 -1.32144e-07
4.74389e-16 3.47221e-09 -1.32093e-08
5.18912e-06 1.73028e-06 2.77328e-06
-2.41435e-09 4.82633e-08 -2.65372e-08
4.42663e-10 7.38419e-09 5.02725e-09
-2.10481e-09 4.65138e-08 -2.52125e-08
3.03354e-08 5.30551e-07 -1.24651e-07
2.13242e-08 -3.01876e-08 -2.13681e-07
-1.3944e-09 -2.65122e-09 -1.0996e-08
3.0741e-07 -3.51896e-09 5.68014e-07
0.0 0.0 -1.43822e-06
-1.61235e-08 2.31523e-08 -1.48455e-08
-2.3841e-05 -6.43484e-05 8.99913e-05
-5.55976e-09 -1.86914e-08 -2.64681e-09
7.72679e-07 -1.07627e-06 1.15505e-08
-1.98784e-06 -2.71988e-06 -7.55655e-06
2.14961e-19 3.09008e-19 -5.48454e-20
1.08131e-06 -2.42303e-06 2.02071e-06
-2.81517e-07 1.28945e-07 -5.29796e-07
-2.88799e-09 1.65955e-08 4.58238e-08
-1.68195e-07 1.56633e-07 -4.97781e-07
3.25049e-20 8.60268e-22 -1.69407e-21
-3.31936e-05 -8.93419e-06 -1.58698e-05
-3.27296e-07 -1.04738e-07 1.70003e-06
4.1321e-05 5.41157e-06 5.05003e-07
1.97963e-07 -5.08777e-08 -6.93321e-07
0.0 0.0 -1.43822e-06
0.0 0.0 0.0
6.09555e-06 4.42645e-06 -3.92654e-06
1.18785e-07 2.09485e-07 -9.76902e-07
6.90784e-07 -5.71848e-07 1.09774e-06
-2.84764e-09 -7.01823e-09 1.23758e-08
-9.17204e-07 5.48523e-07 -1.66953e-06
0.0 0.0 -1.43822e-06
3.93952e-16 -2.7501e-09 -1.336e-08
-4.18452e-08 1.20541e-07 -1.00432e-07
1.15263e-11 -1.27932e-08 -1.29709e-09
2.56144e-06 1.82441e-06 1.34429e-06
2.504e-08 3.54852e-08 -1.26465e-07
5.56252e-07 -6.00164e-07 -8.83244e-07
-6.4401e-20 1.9045e-20 2.11758e-22
0.0 0.0 -1.43822e-06
0.0 0.0 -1.43822e-06
4.7792e-07 4.16036e-07 -1.81612e-07
2.84018e-08 2.72511e-08 -5.12399e-08
0.0 0.0 -1.43822e-06
-4.75879e-07 -8.21931e-08 -6.0347e-07
0.0 0.0 0.0
-4.10324e-07 5.65643e-07 -1.59043e-06
-3.0619e-07 3.93251e-08 -1.56665e-07
-1.90258e-08 -8.9033e-09 1.06266e-08
-2.22451e-07 4.14458e-07 -1.00371e-06
1.00576e-07 1.43173e-07 -1.6272e-07
0.0 0.0 -1.43822e-06
7.05826e-06 -7.84958e-07 8.00105e-07
2.67909e-07 1.60902e-07 -1.01665e-07
5.18141e-07 8.61306e-07 -1.07472e-06
5.22756e-09 -1.69144e-08 -5.99673e-09
-1.65159e-09 -5.30558e-09 -9.81575e-09
-1.23781e-09 -6.85938e-09 8.22271e-09
-2.85159e-10 6.25541e-09 9.02005e-09
2.25495e-07 2.58728e-07 -5.74211e-07
4.53604e-09 -1.16662e-07 -5.71742e-08
2.80834e-07 2.60124e-08 -2.17531e-07
-1.79743e-07 -1.5645e-07 -6.82394e-08
-4.33212e-06 -1.26911e-06 -1.21086e-06
-2.98009e-08 1.09377e-07 -7.13014e-07
1.02682e-07 -6.25542e-07 -6.98118e-07
-1.22152e-06 2.24995e-06 4.80367e-06
4.59049e-06 -2.24816e-06 1.16779e-06
2.63646e-07 1.69801e-07 -7.41009e-08
4.17431e-09 4.1191e-07 2.58736e-07
0.0 6.13768e-22 0.0
9.62146e-08 1.93183e-07 -3.42867e-07
4.64943e-06 4.05052e-06 -2.81443e-06
-4.35403e-09 -1.95258e-08 5.90842e-10
-4.35986e-07 3.64399e-07 -2.5786e-07
0.0 0.0 -1.43822e-06
-8.72491e-07 2.31086e-07 -9.78587e-08
2.56538e-09 7.9184e-09 6.5745e-09
-8.29219e-08 -3.29529e-07 -3.10526e-07
4.55006e-08 1.67458e-07 4.21204e-08
-1.54128e-09 9.7757e-09 -7.62436e-09
0.0 0.0 -1.43822e-06
0.0 0.0 0.0
1.4433e-06 -8.15462e-07 8.13636e-07
1.56704e-09 9.90646e-09 -7.79452e-09
6.75409e-09 7.37825e-08 3.15639e-09
-9.0467e-06 9.07537e-06 -7.94133e-06
8.91432e-08 -3.21882e-08 -2.48492e-08
3.82728e-07 -3.31134e-07 1.81594e-06
-1.21775e-06 -8.1817e-07 -5.35743e-08
-5.69682e-09 -4.76698e-09 1.01754e-08
4.58326e-05 4.22737e-05 -3.64271e-05
2.8334e-08 1.9448e-07 1.59192e-07
1.30715e-11 1.5178e-09 -1.561e-08
-4.9278e-07 7.47377e-07 1.66808e-06
0.0 0.0 -1.43822e-06
0.0 0.0 -1.43822e-06
9.18173e-07 -3.89602e-07 6.34783e-07
-8.7247e-09 -1.1392e-08 -9.76594e-10
2.19606e-08 -1.24907e-08 -9.11119e-09
0.0 0.0 0.0
2.21552e-07 2.5959e-07 1.76756e-07
3.085e-08 1.34456e-07 -4.50772e-07
0.0 0.0 -1.43822e-06
6.21924e-07 1.05854e-06 -8.17952e-08
7.17687e-06 1.08021e-06 -2.95002e-06
3.42126e-07 6.62995e-08 -1.10276e-08
-9.59559e-07 7.97131e-08 1.08933e-07
-3.15956e-07 2.04219e-07 3.13901e-07
-3.70176e-07 2.03411e-07 3.0161e-07
-1.62311e-06 2.79028e-07 -2.15462e-06
4.1474e-07 2.92167e-06 -2.23014e-07
0.0 0.0 -1.43822e-06
-4.80558e-07 4.93715e-07 -3.01217e-07
2.94364e-09 5.36107e-08 1.06859e-08
0.0 0.0 0.0
0.0 0.0 -1.43822e-06
1.2981e-06 7.31974e-07 -3.76113e-06
2.54571e-07 4.35421e-07 -5.12083e-07
2.97865e-06 1.34991e-06 4.70038e-06
3.23874e-16 3.62991e-09 -1.31686e-08
-2.18719e-09 4.46011e-09 1.34063e-08
-7.35728e-20 2.03663e-19 -2.5411e-21
-2.79349e-09 -7.24708e-10 1.3336e-08
