# vtk DataFile Version 3.0
LIGGGHTS particles timestep 18800000
ASCII
DATASET POLYDATA
POINTS 110 float
0.0190552 0.0233418 0.010921
0.0185102 0.0234333 0.011498
0.0206531 0.0234604 0.0120931
0.0552425 0.0189586 0.00589144
0.00938048 0.0183393 0.00587271
0.0260148 0.0196703 0.00594114
0.0377168 0.0204273 0.0155736
0.0366849 0.0218066 0.0435188
0.0430751 0.0226783 0.0138724
0.0356871 0.0219802 0.00830654
0.0366305 0.0231661 0.00796257
0.000591717 0.0149731 0.0435188
0.0408552 0.0182889 0.00725824
0.0223564 0.0236481 0.0140388
0.0266673 0.0162637 0.0147805
0.039374 0.0148446 0.0121147
0.0211605 0.0150707 0.0135114
0.0309756 0.0229174 0.0133682
0.0197224 0.0234639 0.0117254
0.003617 0.0285782 0.0435188
0.0425972 0.0233596 0.0118512
0.0177449 0.0174882 0.00600758
0.0415076 0.0210526 0.0076639
0.0175354 0.0141259 0.0132697
0.018266 0.0231792 0.010512
0.040465 0.0167115 0.00787108
0.0410578 0.0191857 0.0071843
0.0417949 0.0221747 0.00853037
0.033606 0.0194093 0.00581187
0.0319253 0.0194714 0.0157943
0.0256951 0.0203021 0.0156462
0.054387 0.0178804 0.00601135
0.0331197 0.0152081 0.0133993
0.0396659 0.0148231 0.0109092
0.0391543 0.0151723 0.0133252
0.0422076 0.0231501 0.0102514
0.0316151 0.0209752 0.0153
0.038498 0.0171418 0.0153523
0.0190662 0.0150915 0.0097226
0.0364661 0.0233893 0.0112325
0.020026 0.0199245 0.0158605
0.0214483 0.0168437 0.00645098
0.0274355 0.0147537 0.0117939
0.0340214 0.0152881 0.00937483
0.0586827 0.0172628 0.00598816
0.0439808 0.0192162 0.015744
0.0172736 0.0146326 0.0120673
0.0434335 0.0215945 0.0149774
0.0303903 0.00406748 0.0435188
0.0295774 0.0213838 0.00785497
0.0428818 0.0230582 0.010029
0.0249499 0.0213551 0.0164231
0.0424339 0.0233976 0.0110567
0.0465254 0.0191962 0.00590655
0.0321343 0.018602 0.0157823
0.0297983 0.0221354 0.00847128
0.0441754 0.0184378 0.0157812
0.0367941 0.0232708 0.0125038
0.0335518 0.0147897 0.0113464
0.0584376 0.0191695 0.00582359
0.0209301 0.0140975 0.0132962
0.017222 0.0240457 0.0131597
0.020084 0.0201843 0.0061153
0.0412942 0.0200906 0.00729931
0.0221348 0.00230077 0.0435188
0.201805 0.0186174 0.00570934
0.0353357 0.0203539 0.007554
0.0219707 0.0153943 0.0140275
0.0801305 0.0198856 0.00588445
0.0214996 0.0147426 0.0116051
0.067984 0.0193424 0.00575613
0.0381859 0.0185701 0.0156712
0.0358814 0.0223658 0.00880634
0.0348175 0.0182686 0.00728886
0.0239494 0.0225697 0.00909946
0.0245476 0.0198163 0.00585259
0.0338369 0.0149832 0.0102686
0.0370264 0.0227174 0.0137743
0.0221628 0.0149179 0.0131689
0.036805 0.0202346 0.00608327
0.026935 0.0188837 0.00598981
0.0270939 0.015301 0.0135198
0.0420046 0.0226544 0.00920426
0.0302284 0.0231214 0.0100177
0.0401231 0.0156683 0.00889416
0.0221996 0.00109062 0.0435188
0.0398725 0.0149902 0.0101196
0.0305275 0.0233404 0.011507
0.0291185 0.0194282 0.00720942
0.042889 0.0231262 0.0128968
0.0557897 0.0172859 0.0059806
0.0895649 0.0187731 0.00575225
0.0282778 0.0160037 0.00844993
0.0279531 0.0151263 0.00978528
0.0378636 0.0197897 0.0157087
0.108836 0.0200055 0.00584234
0.0185298 0.0140047 0.0129627
0.0312583 0.0221345 0.0144917
0.0286615 0.0172571 0.00758959
0.0327505 0.0160509 0.0145811
-0.0183692 -0.0168616 0.0400615
0.0195297 0.013998 0.0129738
0.0289235 0.0186077 0.00720078
0.021367 0.014722 0.012596
0.00937694 0.00505359 0.0435188
0.0229441 0.0151907 0.0137321
0.0260505 0.0207208 0.0154872
0.0232044 0.019683 0.0072689
0.0254808 0.018723 0.00589902
0.0355336 0.0214477 0.00795272

VERTICES 110 220
1 0
1 1
1 2
1 3
1 4
1 5
1 6
1 7
1 8
1 9
1 10
1 11
1 12
1 13
1 14
1 15
1 16
1 17
1 18
1 19
1 20
1 21
1 22
1 23
1 24
1 25
1 26
1 27
1 28
1 29
1 30
1 31
1 32
1 33
1 34
1 35
1 36
1 37
1 38
1 39
1 40
1 41
1 42
1 43
1 44
1 45
1 46
1 47
1 48
1 49
1 50
1 51
1 52
1 53
1 54
1 55
1 56
1 57
1 58
1 59
1 60
1 61
1 62
1 63
1 64
1 65
1 66
1 67
1 68
1 69
1 70
1 71
1 72
1 73
1 74
1 75
1 76
1 77
1 78
1 79
1 80
1 81
1 82
1 83
1 84
1 85
1 86
1 87
1 88
1 89
1 90
1 91
1 92
1 93
1 94
1 95
1 96
1 97
1 98
1 99
1 100
1 101
1 102
1 103
1 104
1 105
1 106
1 107
1 108
1 109

POINT_DATA 110
SCALARS id int 1
LOOKUP_TABLE default
1
2
4
5
15
16
17
18
20
24
25
27
28
32
33
37
41
44
47
49
52
57
59
62
63
65
67
68
73
74
76
79
84
87
88
89
90
92
97
103
106
108
109
112
121
122
124
125
128
130
131
133
135
137
139
141
142
143
147
149
150
157
158
160
161
165
166
167
173
174
179
185
186
187
191
193
194
197
200
205
215
225
226
227
229
232
237
241
242
247
252
253
256
257
258
260
268
269
270
271
272
274
275
277
284
288
291
294
299
300

SCALARS type int 1
LOOKUP_TABLE default
1
1
1
1
1
1
1
1
1
1
1
1
1
1
1
1
1
1
1
1
1
1
1
1
1
1
1
1
1
1
1
1
1
1
1
1
1
1
1
1
1
1
1
1
1
1
1
1
1
1
1
1
1
1
1
1
1
1
1
1
1
1
1
1
1
1
1
1
1
1
1
1
1
1
1
1
1
1
1
1
1
1
1
1
1
1
1
1
1
1
1
1
1
1
1
1
1
1
1
1
1
1
1
1
1
1
1
1
1
1

SCALARS radius float 1
LOOKUP_TABLE default
0.0005
0.0005
0.0005
0.0005
0.0005
0.0005
0.0005
0.0005
0.0005
0.0005
0.0005
0.0005
0.0005
0.0005
0.0005
0.0005
0.0005
0.0005
0.0005
0.0005
0.0005
0.0005
0.0005
0.0005
0.0005
0.0005
0.0005
0.0005
0.0005
0.0005
0.0005
0.0005
0.0005
0.0005
0.0005
0.0005
0.0005
0.0005
0.0005
0.0005
0.0005
0.0005
0.0005
0.0005
0.0005
0.0005
0.0005
0.0005
0.0005
0.0005
0.0005
0.0005
0.0005
0.0005
0.0005
0.0005
0.0005
0.0005
0.0005
0.0005
0.0005
0.0005
0.0005
0.0005
0.0005
0.0005
0.0005
0.0005
0.0005
0.0005
0.0005
0.0005
0.0005
0.0005
0.0005
0.0005
0.0005
0.0005
0.0005
0.0005
0.0005
0.0005
0.0005
0.0005
0.0005
0.0005
0.0005
0.0005
0.0005
0.0005
0.0005
0.0005
0.0005
0.0005
0.0005
0.0005
0.0005
0.0005
0.0005
0.0005
0.0005
0.0005
0.0005
0.0005
0.0005
0.0005
0.0005
0.0005
0.0005
0.0005

SCALARS mass float 1
LOOKUP_TABLE default
1.46608e-07
1.46608e-07
1.46608e-07
1.46608e-07
1.46608e-07
1.46608e-07
1.46608e-07
1.46608e-07
1.46608e-07
1.46608e-07
1.46608e-07
1.46608e-07
1.46608e-07
1.46608e-07
1.46608e-07
1.46608e-07
1.46608e-07
1.46608e-07
1.46608e-07
1.46608e-07
1.46608e-07
1.46608e-07
1.46608e-07
1.46608e-07
1.46608e-07
1.46608e-07
1.46608e-07
1.46608e-07
1.46608e-07
1.46608e-07
1.46608e-07
1.46608e-07
1.46608e-07
1.46608e-07
1.46608e-07
1.46608e-07
1.46608e-07
1.46608e-07
1.46608e-07
1.46608e-07
1.46608e-07
1.46608e-07
1.46608e-07
1.46608e-07
1.46608e-07
1.46608e-07
1.46608e-07
1.46608e-07
1.46608e-07
1.46608e-07
1.46608e-07
1.46608e-07
1.46608e-07
1.46608e-07
1.46608e-07
1.46608e-07
1.46608e-07
1.46608e-07
1.46608e-07
1.46608e-07
1.46608e-07
1.46608e-07
1.46608e-07
1.46608e-07
1.46608e-07
1.46608e-07
1.46608e-07
1.46608e-07
1.46608e-07
1.46608e-07
1.46608e-07
1.46608e-07
1.46608e-07
1.46608e-07
1.46608e-07
1.46608e-07
1.46608e-07
1.46608e-07
1.46608e-07
1.46608e-07
1.46608e-07
1.46608e-07
1.46608e-07
1.46608e-07
1.46608e-07
1.46608e-07
1.46608e-07
1.46608e-07
1.46608e-07
1.46608e-07
1.46608e-07
1.46608e-07
1.46608e-07
1.46608e-07
1.46608e-07
1.46608e-07
1.46608e-07
1.46608e-07
1.46608e-07
1.46608e-07
1.46608e-07
1.46608e-07
1.46608e-07
1.46608e-07
1.46608e-07
1.46608e-07
1.46608e-07
1.46608e-07
1.46608e-07
1.46608e-07

VECTORS velocity float
0.00281921 -0.00202411 -0.0115577
0.0010661 -0.00110182 -0.0166269
0.000860727 -2.59557e-05 -0.0187137
-9.84484e-15 -1.33743e-14 -1.90504e-13
3.64737e-15 5.32197e-16 -3.69009e-14
1.76445e-14 2.84176e-15 -2.87664e-13
0.00262354 0.00428515 0.00138856
-9.6879e-317 9.73506e-317 2.68131e-13
-4.24172e-05 0.0141033 -0.0180789
0.0018298 -0.00273244 -0.00495816
0.224946 -0.154868 -0.214778
9.71467e-317 9.75789e-317 -8.23806e-13
0.000335104 -0.0192773 0.00446427
-0.0008777 0.000699276 0.000194116
0.000938814 0.0104073 0.00961305
7.7688e-06 0.00205636 0.0219912
-0.000108557 0.00633449 0.0200313
0.000282257 0.0104445 -0.0193912
-1.42356e-05 0.000471889 0.000445714
-9.68849e-317 -9.75601e-317 2.88878e-12
0.000408196 0.00198171 -0.0205848
2.63087e-15 1.02147e-14 2.12865e-14
2.95649e-05 -0.0191902 -0.0112745
-2.96612e-05 0.00119562 -0.00321853
0.00293425 -0.00363035 -0.0113888
0.00129961 -0.0113234 0.00671055
0.000330767 -0.0210136 -0.0012206
0.00244373 -0.00961816 -0.00896858
-7.06685e-15 -4.06781e-14 1.57633e-13
0.00134652 0.0174847 -0.00248804
6.51257e-05 0.0174954 -0.00541031
-1.3005e-14 -1.76676e-14 -2.51655e-13
-7.16193e-05 0.00944113 0.0197738
0.000934306 -0.00172467 0.0193971
0.00112842 0.00932957 0.0185155
0.00057818 -0.00708012 -0.0157328
6.30024e-05 0.0197351 -0.00951149
0.000733815 0.0169549 0.0074914
0.000169965 -0.00785602 0.0187222
0.000741305 -0.000625342 -0.0209025
2.47433e-11 0.0201548 -0.00391615
-2.38688e-14 5.08899e-14 1.84334e-13
0.000983384 0.00192078 0.0166727
0.000306057 -0.0112307 0.0179159
1.03804e-14 -2.15372e-14 -2.65e-13
0.000199569 0.0196951 -0.00260579
0.0014931 0.00133276 -0.00460509
0.000709455 0.015593 -0.0121082
-9.67556e-317 -9.75879e-317 -3.22607e-12
0.00291836 -0.0104618 -0.00520103
0.000167189 -0.00715048 -0.0192066
0.000615168 0.042161 -0.01201
0.00206106 0.000504686 -0.0121908
2.38925e-15 1.33727e-14 9.20545e-14
0.000156966 0.0212768 0.0031026
0.000264242 -0.0143741 -0.0149158
0.000949312 0.0194452 0.00374604
0.000618055 0.00591956 -0.0203189
5.0517e-05 -0.00195505 0.02188
8.06288e-15 -1.68941e-14 -2.07262e-13
0.000575619 -0.0015093 0.0038661
0.000331179 0.00205765 -0.00128981
5.5175e-15 -2.47196e-15 5.049e-14
0.000324168 -0.0197399 -0.00462345
9.74157e-317 -9.69799e-317 9.23294e-13
-3.8561e-20 -8.56408e-22 -1.30474e-21
0.00012135 -0.020193 -0.00610298
0.00205298 0.00580339 0.010201
-9.52806e-15 -2.67156e-14 1.14756e-13
0.00050369 -9.69863e-05 0.0199041
3.87789e-15 7.51674e-15 2.61626e-13
-0.000608577 0.020597 0.00448942
0.00316623 -0.00720125 -0.00888144
0.00107412 -0.020358 0.00138352
0.00205104 -0.00940224 -0.0117293
2.60822e-15 4.21262e-16 -4.25291e-14
0.00191449 -0.00326857 0.0147758
0.000286585 0.0142492 -0.0175498
0.00577182 0.00137526 0.0112377
2.82364e-15 -9.91002e-15 4.51241e-14
1.4303e-14 2.30402e-15 -2.33189e-13
5.17936e-05 0.00936448 0.0203098
0.000394118 -0.0102289 -0.0180194
-2.81772e-05 -0.00809292 -0.0201373
0.000158485 -0.0130952 0.016756
9.58743e-317 9.68145e-317 4.97437e-14
0.0016857 -0.00594411 0.0145658
0.00106493 0.000970503 -0.0238054
0.000188073 -0.0210504 -0.00271677
0.000258293 0.00642147 -0.0196073
9.78868e-15 1.33632e-14 1.8999e-13
-1.3172e-14 1.89028e-14 2.53776e-13
0.000116659 -0.0162063 0.0151763
0.000123573 -0.0087254 0.0194525
0.00285275 0.0110172 -0.000229586
7.53175e-16 -1.27696e-15 -6.97499e-15
-8.20127e-05 -0.000627645 0.00104236
0.00354111 0.0065285 -0.00882009
0.000249497 -0.0177264 0.00708365
0.000660637 0.0148864 0.0141334
-0.182192 -0.237279 -0.636462
-8.88663e-05 -0.000900415 0.00149538
0.000746056 -0.0192671 0.00295543
-0.000788567 -0.00224461 0.0208576
-9.68799e-317 -9.69932e-317 9.23294e-13
0.00762151 0.00532839 0.00712414
0.00264236 0.00963364 -0.00435851
0.00065439 -0.0187571 -0.00571065
-2.078e-14 -3.35046e-15 3.38791e-13
0.00137239 -0.0136808 -0.00615901

VECTORS force float
1.37905e-06 -9.71194e-07 -2.71056e-06
2.36032e-06 1.85123e-06 9.35269e-06
-3.99243e-07 1.33597e-07 -1.52627e-06
-3.83812e-22 1.85288e-22 0.0
3.28225e-21 -3.79477e-20 -2.11758e-22
1.72054e-21 -1.31422e-20 0.0
-1.70106e-09 -1.1536e-07 6.4109e-08
0.0 0.0 0.0
-2.04704e-10 -8.20956e-09 -1.04871e-08
-3.40944e-09 -4.47465e-09 1.19115e-08
0.0 0.0 -1.43822e-06
0.0 0.0 0.0
-2.49613e-09 -1.02127e-08 7.91073e-09
-2.39933e-08 1.97796e-08 6.27924e-09
-7.84724e-09 3.13219e-08 -2.85651e-09
-7.32681e-10 1.20514e-08 2.96614e-09
6.85202e-07 4.72695e-07 -1.14356e-06
-3.94893e-09 -6.24117e-09 -1.2147e-08
9.56821e-08 -1.90589e-08 -1.20268e-07
0.0 0.0 0.0
-1.2381e-08 1.63117e-08 -5.76108e-08
-7.86152e-21 7.6233e-21 -2.5411e-21
2.93522e-10 -9.7725e-09 7.62732e-09
5.99705e-09 1.48204e-07 -4.0902e-07
-1.98263e-07 -3.19513e-08 1.72446e-07
-6.77927e-09 -2.5384e-08 1.53232e-08
-2.07539e-09 -7.20187e-09 9.2355e-09
-2.16076e-08 -5.6661e-08 -4.47163e-08
-6.04173e-20 2.11758e-21 -2.11758e-21
-1.34394e-08 2.96792e-08 -1.08608e-08
-1.06673e-07 7.11523e-08 1.4821e-07
1.7073e-21 1.19114e-22 -2.11758e-22
3.22805e-09 1.3988e-08 -2.9622e-10
-4.30068e-09 8.40035e-09 7.95255e-09
-1.91262e-08 -3.91982e-08 -1.78977e-08
5.50257e-09 -4.77684e-08 -6.45987e-08
3.95289e-10 -1.86813e-09 -1.27004e-08
-4.56523e-09 2.13005e-08 -2.79017e-09
-1.08986e-08 -7.73024e-09 1.53226e-08
2.84563e-09 -1.03227e-08 -1.8866e-09
-2.70921e-16 -2.50876e-09 -1.34346e-08
-6.44274e-20 -1.74171e-20 -4.23516e-22
-2.10056e-09 1.56158e-08 1.82304e-08
2.28325e-09 1.23914e-08 -6.58424e-10
4.26825e-21 -2.89844e-21 2.11758e-22
-2.49131e-08 4.70359e-08 -9.9342e-09
1.58595e-08 2.03238e-07 -5.28848e-07
-3.98362e-09 3.05861e-09 -1.49219e-08
0.0 0.0 0.0
-3.41177e-06 -6.44736e-06 -4.08139e-06
-1.73312e-10 -1.76322e-08 -1.64287e-08
0.0 0.0 -1.43822e-06
-1.0111e-08 -1.58747e-08 -3.29771e-08
1.15011e-20 1.29702e-21 -4.23516e-22
-1.64198e-09 7.8872e-09 -1.16869e-08
-2.83569e-07 -1.54299e-06 -1.51039e-06
-1.82828e-08 4.5129e-08 -4.86404e-09
2.06973e-09 -9.70063e-09 -4.13773e-09
-5.42137e-10 1.10082e-08 3.34023e-09
4.85059e-21 -3.1499e-21 4.23516e-22
-2.46033e-08 -1.79857e-08 6.62341e-09
5.32642e-06 3.81423e-07 -8.01856e-06
1.25202e-20 4.8572e-21 -1.27055e-21
-1.543e-09 -1.15443e-08 8.41553e-09
0.0 0.0 0.0
0.0 0.0 0.0
-8.87429e-10 -8.4355e-09 8.56387e-09
0.0 0.0 -1.43822e-06
-1.19114e-22 0.0 0.0
7.1297e-08 1.00716e-09 -1.39725e-07
5.92989e-20 -3.41923e-20 0.0
-1.56472e-08 -7.71994e-09 -1.38145e-08
-1.57377e-08 -3.75531e-08 -5.38556e-08
-1.79885e-09 7.28886e-09 2.87979e-08
-8.16082e-09 -2.89252e-08 -3.0555e-08
2.64698e-23 -1.04556e-21 0.0
1.97276e-09 -3.3629e-09 9.93794e-09
5.37087e-09 -1.18486e-08 -7.5343e-09
4.20059e-07 -5.68006e-09 -4.5474e-07
-1.99185e-20 1.40078e-19 3.1552e-20
-2.91168e-22 -5.45939e-23 0.0
1.47145e-09 1.16621e-08 -4.04959e-09
-2.1651e-09 -1.6172e-08 -9.27184e-10
-1.9873e-08 -2.70292e-08 -7.17523e-08
-9.21577e-10 5.5653e-09 1.08173e-08
0.0 0.0 0.0
-3.54828e-09 1.16837e-08 1.91915e-09
-1.94313e-08 3.56708e-08 2.28657e-08
-8.35162e-10 -6.70861e-09 9.35609e-09
-2.15244e-09 -5.7603e-09 -1.3184e-08
-1.00585e-21 7.21301e-21 -4.23516e-22
7.92902e-20 3.6568e-20 1.27055e-21
-7.63096e-10 3.84056e-09 1.30699e-08
-2.40162e-10 7.07952e-09 9.07651e-09
8.65759e-10 -7.51147e-08 3.46882e-08
0.0 1.05879e-22 0.0
-5.63224e-10 -1.33538e-08 2.21733e-08
-7.12215e-09 7.95278e-09 -9.38472e-10
8.79462e-09 1.27069e-07 -3.44753e-09
-8.65782e-07 2.26244e-06 2.07758e-06
0.0 0.0 -1.43822e-06
-5.91928e-10 -1.28266e-08 2.12944e-08
-7.42601e-09 -1.52886e-08 1.21881e-08
-2.69042e-07 -3.10936e-08 -2.09987e-06
0.0 0.0 0.0
-5.91107e-07 -3.57074e-07 -8.08051e-07
-7.70483e-08 7.65492e-08 -1.73159e-07
-6.74148e-11 4.66203e-08 4.34665e-08
-7.76888e-21 5.91103e-21 -2.11758e-22
1.06293e-08 -3.70764e-08 -8.47697e-09
