# vtk DataFile Version 3.0
LIGGGHTS particles timestep 3000000
ASCII
DATASET POLYDATA
POINTS 280 float
0.0232803 0.0175727 0.0165302
0.0179343 0.0230103 0.0150031
0.0257734 0.0179373 0.0166795
0.0195152 0.0238528 0.0148309
0.021264 0.0161635 0.0149379
0.021202 0.0147246 0.0111901
0.0214276 0.0149818 0.0100651
0.0217645 0.014808 0.0128587
0.023599 0.0229205 0.00951481
0.0196699 0.0191597 0.016064
0.0214201 0.020664 0.0176369
0.0177811 0.0241059 0.0127614
0.0143796 0.0161348 0.0148572
0.00938048 0.0183393 0.00587271
0.0230056 0.0226813 0.0170522
0.0216499 0.0232586 0.0146358
0.0233752 0.0186087 0.0167321
0.0188706 0.0240521 0.0126999
0.0267894 0.0150308 0.0128921
0.0218489 0.0221444 0.0157403
0.0171935 0.0169172 0.0163024
0.0181191 0.0244852 0.013771
0.0250808 0.0219193 0.0166084
0.0138381 0.0211807 0.0172898
0.0218823 0.0144583 0.0137608
0.0169459 0.0160632 0.0158128
0.0234548 0.0223734 0.00888305
0.0145164 0.0150685 0.0150456
0.020912 0.0235938 0.0152046
0.0190986 0.0244503 0.013639
0.024116 0.0155135 0.0153772
0.013935 0.0179355 0.0158152
0.0170764 0.0149969 0.0156402
0.0238027 0.0231601 0.0101404
0.0199789 0.0242788 0.0140564
0.0224503 0.0236256 0.0139565
0.0204314 0.0197936 0.0161992
0.0200742 0.0150113 0.0150172
0.0214907 0.0239167 0.0134038
0.0211482 0.018033 0.0167021
0.0174494 0.0177889 0.0169157
0.0168995 0.0239636 0.0133383
0.0135771 0.0189199 0.0166996
0.0225077 0.0237204 0.0150415
0.0243038 0.0180165 0.0167281
0.0145696 0.0189709 0.0172808
0.017471 0.0155392 0.0164978
0.0217829 0.024155 0.0142723
0.0198777 0.0182027 0.0158611
0.0223779 0.0185363 0.0167319
0.0232863 0.0232333 0.0154854
0.0202299 0.0231691 0.0146749
0.0189652 0.0235766 0.0140436
0.0233331 0.0216889 0.00833854
0.024879 0.0220055 0.0144638
0.0179437 0.0158676 0.015677
0.0200101 0.0241911 0.0163122
0.0206087 0.0241786 0.0133569
0.0240774 0.0228233 0.0158793
0.0250152 0.0215613 0.0159228
0.0226541 0.0145414 0.0143908
-0.00970794 -0.0063584 0.0347041
0.0241962 0.0233822 0.0118077
0.0250175 0.0212576 0.0152133
0.023074 0.0195864 0.0167141
0.0258293 0.0200937 0.0167937
0.0206448 0.0146702 0.0142143
0.0222845 0.0213658 0.0161917
0.0199073 0.0240859 0.0127346
0.0179358 0.020582 0.0165401
0.0197344 0.0172206 0.0164201
0.0207686 0.024042 0.0123055
0.0176253 0.0140818 0.0141544
0.0190803 0.0234822 0.0117105
0.0168587 0.0142287 0.0134292
0.0165337 0.0237468 0.0149901
0.0198783 0.0160663 0.0187558
0.0215017 0.0170284 0.0154724
0.0208158 0.0149573 0.0132308
0.0151252 0.0188126 0.0164553
0.0210342 0.0146752 0.0122194
0.0255894 0.0205071 0.0156605
0.0257694 0.0185963 0.0159273
0.0182399 0.0222855 0.0156992
0.0198664 0.0235581 0.0134761
0.0216385 0.0180535 0.0158307
0.0150326 0.0232154 0.0183535
0.0237687 0.0217859 0.0162036
0.022979 0.0205959 0.00766927
0.0170159 0.0242365 0.0142463
0.0155748 0.0225565 0.0165533
0.017725 0.0150305 0.0148797
0.0242024 0.0226742 0.00920151
0.0165915 0.0205755 0.0165236
0.0231245 0.0233018 0.0145228
0.0187004 0.0233346 0.0108333
0.0214567 0.0154031 0.0140374
0.0220457 0.0166677 0.00791812
0.0185397 0.0232335 0.0167933
0.0203993 0.0187271 0.00600944
0.0210418 0.022626 0.0153987
0.020496 0.0157309 0.0144661
0.0185873 0.0143535 0.013851
0.0192251 0.0232221 0.0129585
0.0201884 0.0169006 0.0153991
0.0168976 0.0238202 0.0164143
0.0184405 0.0229944 0.0100521
0.0200826 0.0207174 0.0163565
0.0185206 0.0230261 0.0133072
0.0192696 0.0220274 0.0155559
0.0226348 0.0150915 0.0135497
0.0272897 0.0148484 0.0106643
0.0222839 0.0150289 0.0151842
0.0270905 0.0147644 0.0117708
0.0155457 0.0159027 0.0163119
0.0217629 0.0197653 0.0170212
0.0224965 0.0228813 0.0162151
0.0154531 0.0158428 0.0145789
0.0142628 0.0188949 0.0159472
0.0149951 0.0199741 0.0166907
0.0172324 0.0222107 0.0157059
0.0252553 0.0171191 0.0164306
0.0214294 0.0199415 0.0160951
0.0265174 0.015526 0.0139863
0.0165761 0.0243995 0.0184166
0.0226245 0.021376 0.0171321
0.0204873 0.0213942 0.0169715
0.0138989 0.0224546 0.0159558
0.0259122 0.0190454 0.0168107
0.0276269 0.0153436 0.00930989
0.0221541 0.0178813 0.0175834
0.0224458 0.0203539 0.0165874
0.0175378 0.0236295 0.013971
0.0194887 0.0201116 0.0158164
0.0198587 0.0139864 0.0130184
0.0166856 0.0214922 0.0161356
0.0151427 0.0213499 0.0155883
0.0193567 0.0146399 0.0144217
0.0186507 0.0244001 0.0171102
0.0181961 0.0235198 0.0117468
0.0181573 0.0239231 0.0147174
0.0129301 0.0200099 0.0166986
0.0157484 0.0233061 0.0154247
0.0189044 0.0166445 0.0161968
0.0161727 0.0236686 0.0139938
0.0186157 0.0232118 0.0157172
0.0142612 0.0210346 0.0158308
0.0218551 0.0235105 0.0166541
0.0167237 0.0147373 0.012572
0.0242534 0.0190842 0.0167841
0.0202387 0.022152 0.0157456
0.0176969 0.0229404 0.0162247
0.0192529 0.0210351 0.0155138
0.0228935 0.0220593 0.0158035
0.0189194 0.0204248 0.016629
0.0244083 0.0222553 0.0155951
0.0147852 0.0220593 0.0161947
0.0183524 0.023336 0.0125161
0.0193553 0.0229081 0.0151001
0.019912 0.0220859 0.0147504
0.0179488 0.0232955 0.0108524
0.0182321 0.0238211 0.0133923
0.0160946 0.0234515 0.0170091
0.013675 0.0200678 0.0174884
0.0153489 0.017128 0.0155184
0.0188612 0.0140108 0.0129525
0.0206479 0.0188518 0.0159434
0.0212478 0.0144761 0.01673
0.015244 0.022823 0.0174584
0.0154477 0.0169363 0.0168596
0.0165833 0.0227826 0.015205
0.0205996 0.0229616 0.0136212
0.0201077 0.0145664 0.0159119
0.0163177 0.0187756 0.0167466
0.018796 0.0226245 0.0141479
0.0163946 0.0153442 0.016284
0.0217857 0.0141122 0.0146672
0.020242 0.0211065 0.0154482
0.0216999 0.0228593 0.0176581
0.0208039 0.0224056 0.0144145
0.0209928 0.0237198 0.0161933
0.0242755 0.0209539 0.0164287
0.0187059 0.0215118 0.016467
0.01466 0.0179282 0.0172295
0.022404 0.0156281 0.0143673
0.0167131 0.024111 0.0174361
0.0216276 0.0189707 0.0162287
0.0154769 0.0151654 0.0153141
0.0194057 0.0207374 0.0174449
0.0196961 0.021638 0.0164098
0.0221184 0.0173152 0.0163054
0.0214339 0.0215848 0.0172317
0.0177558 0.0214876 0.0161563
0.0149394 0.0180013 0.0158257
0.0157857 0.0237441 0.0179139
0.0236025 0.0207764 0.00775106
0.0208805 0.0139923 0.0134846
0.0247803 0.016172 0.0159312
0.0222205 0.0164159 0.0150834
0.0173455 0.0235899 0.0155506
0.0178992 0.0239605 0.0162962
0.0207574 0.0175794 0.0158624
0.0231899 0.0209945 0.0163989
0.0140854 0.0223861 0.014429
0.0190244 0.0174933 0.0180714
0.0143209 0.0229855 0.0152041
0.0151168 0.0232355 0.0146528
0.0255899 0.0195635 0.0159335
0.0127569 0.0210072 0.0166851
0.019942 0.0184731 0.0168515
0.0168441 0.0146617 0.0143853
0.018708 0.0152221 0.0153506
0.0236314 0.0165032 0.0161834
0.016374 0.0230083 0.0161574
0.0168353 0.0223051 0.0166983
0.0158951 0.0144452 0.0141565
0.0172058 0.0212424 0.0169545
0.0203379 0.0230137 0.0164623
0.0212198 0.0208385 0.0157066
0.0172203 0.0231465 0.0170792
0.0212869 0.0227138 0.0163642
0.013323 0.0207614 0.0158862
0.0182606 0.0143234 0.0153414
0.0188792 0.0192686 0.0167926
0.0196962 0.0198398 0.0168756
0.016524 0.0207102 0.0175168
0.0234304 0.0149881 0.0148343
0.0207352 0.0203047 0.0170031
0.019732 0.0227143 0.0139849
0.0208902 0.0237283 0.0141959
0.0146046 0.0218356 0.0171523
0.0216297 0.0188236 0.0173297
0.0133091 0.0218122 0.0164509
0.0135437 0.0197849 0.0158886
0.014481 0.0223537 0.0179986
0.0200067 0.023473 0.0156143
0.0145021 0.0200642 0.015824
0.0212165 0.0150742 0.014986
0.0160553 0.0219404 0.017207
0.0239682 0.0200375 0.0166849
0.0154831 0.0189364 0.0201271
0.014089 0.0204446 0.0166493
0.0151719 0.0224903 0.0153786
0.0157212 0.0214541 0.0163971
0.0189001 0.0240308 0.0162151
0.0215426 0.0207781 0.0166511
0.0230851 0.0156863 0.0168829
0.0207569 0.0190756 0.0169118
0.0182395 0.0187285 0.0175963
0.0220336 0.0223095 0.0168923
0.0194027 0.0227909 0.0161877
0.0231685 0.0157519 0.0155905
0.0164085 0.0151098 0.0135745
0.0217405 0.0232753 0.0156721
0.0229716 0.0152399 0.0178439
0.0146338 0.0154739 0.0141391
0.0154089 0.0151275 0.0136108
0.0171152 0.0183841 0.0178059
0.0191367 0.0143366 0.0158235
0.0179373 0.0195986 0.0167257
0.0210194 0.021659 0.0151716
0.0193833 0.0158973 0.0157195
0.015504 0.0195753 0.0159279
0.00937694 0.00505359 0.0435188
0.019749 0.0233727 0.0122687
0.0173618 0.0187708 0.0167471
0.0204042 0.0174742 0.0171458
0.0144362 0.021727 0.015044
0.0181403 0.0172407 0.0164445
0.0168437 0.0196253 0.0167088
0.0178919 0.0140699 0.0131908
0.0164283 0.0156 0.0144526
0.0210515 0.02172 0.0161691
0.022457 0.0227482 0.015225
0.0199679 0.0139624 0.0140121
0.0161066 0.0161425 0.0152738
0.0179876 0.0154162 0.0197107
0.0135592 0.0216313 0.0155008
0.0277094 0.0144874 0.0147228
0.0160354 0.0221445 0.0157456

VERTICES 280 560
1 0
1 1
1 2
1 3
1 4
1 5
1 6
1 7
1 8
1 9
1 10
1 11
1 12
1 13
1 14
1 15
1 16
1 17
1 18
1 19
1 20
1 21
1 22
1 23
1 24
1 25
1 26
1 27
1 28
1 29
1 30
1 31
1 32
1 33
1 34
1 35
1 36
1 37
1 38
1 39
1 40
1 41
1 42
1 43
1 44
1 45
1 46
1 47
1 48
1 49
1 50
1 51
1 52
1 53
1 54
1 55
1 56
1 57
1 58
1 59
1 60
1 61
1 62
1 63
1 64
1 65
1 66
1 67
1 68
1 69
1 70
1 71
1 72
1 73
1 74
1 75
1 76
1 77
1 78
1 79
1 80
1 81
1 82
1 83
1 84
1 85
1 86
1 87
1 88
1 89
1 90
1 91
1 92
1 93
1 94
1 95
1 96
1 97
1 98
1 99
1 100
1 101
1 102
1 103
1 104
1 105
1 106
1 107
1 108
1 109
1 110
1 111
1 112
1 113
1 114
1 115
1 116
1 117
1 118
1 119
1 120
1 121
1 122
1 123
1 124
1 125
1 126
1 127
1 128
1 129
1 130
1 131
1 132
1 133
1 134
1 135
1 136
1 137
1 138
1 139
1 140
1 141
1 142
1 143
1 144
1 145
1 146
1 147
1 148
1 149
1 150
1 151
1 152
1 153
1 154
1 155
1 156
1 157
1 158
1 159
1 160
1 161
1 162
1 163
1 164
1 165
1 166
1 167
1 168
1 169
1 170
1 171
1 172
1 173
1 174
1 175
1 176
1 177
1 178
1 179
1 180
1 181
1 182
1 183
1 184
1 185
1 186
1 187
1 188
1 189
1 190
1 191
1 192
1 193
1 194
1 195
1 196
1 197
1 198
1 199
1 200
1 201
1 202
1 203
1 204
1 205
1 206
1 207
1 208
1 209
1 210
1 211
1 212
1 213
1 214
1 215
1 216
1 217
1 218
1 219
1 220
1 221
1 222
1 223
1 224
1 225
1 226
1 227
1 228
1 229
1 230
1 231
1 232
1 233
1 234
1 235
1 236
1 237
1 238
1 239
1 240
1 241
1 242
1 243
1 244
1 245
1 246
1 247
1 248
1 249
1 250
1 251
1 252
1 253
1 254
1 255
1 256
1 257
1 258
1 259
1 260
1 261
1 262
1 263
1 264
1 265
1 266
1 267
1 268
1 269
1 270
1 271
1 272
1 273
1 274
1 275
1 276
1 277
1 278
1 279

POINT_DATA 280
SCALARS id int 1
LOOKUP_TABLE default
1
2
3
4
5
6
7
9
10
11
12
13
14
15
16
17
18
19
20
21
22
23
24
25
26
27
28
29
30
31
32
33
34
35
36
37
38
39
40
41
42
43
44
45
46
47
49
50
51
52
53
54
57
58
59
60
61
62
63
64
65
66
67
68
69
70
71
73
74
75
76
78
79
80
81
82
83
84
85
86
87
88
89
90
91
92
93
95
96
97
98
99
100
101
102
103
104
105
106
108
109
110
111
112
113
114
115
116
117
118
121
122
124
125
126
127
128
129
130
131
132
133
134
135
136
137
138
139
141
142
143
144
145
146
147
148
149
150
151
152
153
154
155
156
157
158
159
160
161
162
163
164
165
166
167
168
169
170
171
173
174
175
176
177
178
179
180
181
182
183
184
185
186
187
189
190
191
192
193
194
196
197
199
200
201
202
203
204
205
206
208
209
210
211
212
213
214
215
216
217
218
219
220
221
223
224
225
226
227
228
229
230
231
232
233
234
235
236
237
238
239
240
241
242
243
246
247
248
249
250
251
252
253
254
255
256
257
258
259
260
261
262
263
264
265
266
267
268
269
270
271
272
273
274
275
276
277
278
279
280
281
282
283
284
285
286
287
288
289
290
291
292
293
294
295
296
297
298
299
300

SCALARS type int 1
LOOKUP_TABLE default
1
1
1
1
1
1
1
1
1
1
1
1
1
1
1
1
1
1
1
1
1
1
1
1
1
1
1
1
1
1
1
1
1
1
1
1
1
1
1
1
1
1
1
1
1
1
1
1
1
1
1
1
1
1
1
1
1
1
1
1
1
1
1
1
1
1
1
1
1
1
1
1
1
1
1
1
1
1
1
1
1
1
1
1
1
1
1
1
1
1
1
1
1
1
1
1
1
1
1
1
1
1
1
1
1
1
1
1
1
1
1
1
1
1
1
1
1
1
1
1
1
1
1
1
1
1
1
1
1
1
1
1
1
1
1
1
1
1
1
1
1
1
1
1
1
1
1
1
1
1
1
1
1
1
1
1
1
1
1
1
1
1
1
1
1
1
1
1
1
1
1
1
1
1
1
1
1
1
1
1
1
1
1
1
1
1
1
1
1
1
1
1
1
1
1
1
1
1
1
1
1
1
1
1
1
1
1
1
1
1
1
1
1
1
1
1
1
1
1
1
1
1
1
1
1
1
1
1
1
1
1
1
1
1
1
1
1
1
1
1
1
1
1
1
1
1
1
1
1
1
1
1
1
1
1
1
1
1
1
1
1
1
1
1
1
1
1
1
1
1
1
1
1
1
1
1
1
1
1
1

SCALARS radius float 1
LOOKUP_TABLE default
0.0005
0.0005
0.0005
0.0005
0.0005
0.0005
0.0005
0.0005
0.0005
0.0005
0.0005
0.0005
0.0005
0.0005
0.0005
0.0005
0.0005
0.0005
0.0005
0.0005
0.0005
0.0005
0.0005
0.0005
0.0005
0.0005
0.0005
0.0005
0.0005
0.0005
0.0005
0.0005
0.0005
0.0005
0.0005
0.0005
0.0005
0.0005
0.0005
0.0005
0.0005
0.0005
0.0005
0.0005
0.0005
0.0005
0.0005
0.0005
0.0005
0.0005
0.0005
0.0005
0.0005
0.0005
0.0005
0.0005
0.0005
0.0005
0.0005
0.0005
0.0005
0.0005
0.0005
0.0005
0.0005
0.0005
0.0005
0.0005
0.0005
0.0005
0.0005
0.0005
0.0005
0.0005
0.0005
0.0005
0.0005
0.0005
0.0005
0.0005
0.0005
0.0005
0.0005
0.0005
0.0005
0.0005
0.0005
0.0005
0.0005
0.0005
0.0005
0.0005
0.0005
0.0005
0.0005
0.0005
0.0005
0.0005
0.0005
0.0005
0.0005
0.0005
0.0005
0.0005
0.0005
0.0005
0.0005
0.0005
0.0005
0.0005
0.0005
0.0005
0.0005
0.0005
0.0005
0.0005
0.0005
0.0005
0.0005
0.0005
0.0005
0.0005
0.0005
0.0005
0.0005
0.0005
0.0005
0.0005
0.0005
0.0005
0.0005
0.0005
0.0005
0.0005
0.0005
0.0005
0.0005
0.0005
0.0005
0.0005
0.0005
0.0005
0.0005
0.0005
0.0005
0.0005
0.0005
0.0005
0.0005
0.0005
0.0005
0.0005
0.0005
0.0005
0.0005
0.0005
0.0005
0.0005
0.0005
0.0005
0.0005
0.0005
0.0005
0.0005
0.0005
0.0005
0.0005
0.0005
0.0005
0.0005
0.0005
0.0005
0.0005
0.0005
0.0005
0.0005
0.0005
0.0005
0.0005
0.0005
0.0005
0.0005
0.0005
0.0005
0.0005
0.0005
0.0005
0.0005
0.0005
0.0005
0.0005
0.0005
0.0005
0.0005
0.0005
0.0005
0.0005
0.0005
0.0005
0.0005
0.0005
0.0005
0.0005
0.0005
0.0005
0.0005
0.0005
0.0005
0.0005
0.0005
0.0005
0.0005
0.0005
0.0005
0.0005
0.0005
0.0005
0.0005
0.0005
0.0005
0.0005
0.0005
0.0005
0.0005
0.0005
0.0005
0.0005
0.0005
0.0005
0.0005
0.0005
0.0005
0.0005
0.0005
0.0005
0.0005
0.0005
0.0005
0.0005
0.0005
0.0005
0.0005
0.0005
0.0005
0.0005
0.0005
0.0005
0.0005
0.0005
0.0005
0.0005
0.0005
0.0005
0.0005
0.0005
0.0005
0.0005
0.0005
0.0005
0.0005
0.0005
0.0005
0.0005
0.0005
0.0005
0.0005
0.0005
0.0005
0.0005
0.0005
0.0005
0.0005
0.0005
0.0005
0.0005
0.0005
0.0005
0.0005
0.0005
0.0005

SCALARS mass float 1
LOOKUP_TABLE default
1.46608e-07
1.46608e-07
1.46608e-07
1.46608e-07
1.46608e-07
1.46608e-07
1.46608e-07
1.46608e-07
1.46608e-07
1.46608e-07
1.46608e-07
1.46608e-07
1.46608e-07
1.46608e-07
1.46608e-07
1.46608e-07
1.46608e-07
1.46608e-07
1.46608e-07
1.46608e-07
1.46608e-07
1.46608e-07
1.46608e-07
1.46608e-07
1.46608e-07
1.46608e-07
1.46608e-07
1.46608e-07
1.46608e-07
1.46608e-07
1.46608e-07
1.46608e-07
1.46608e-07
1.46608e-07
1.46608e-07
1.46608e-07
1.46608e-07
1.46608e-07
1.46608e-07
1.46608e-07
1.46608e-07
1.46608e-07
1.46608e-07
1.46608e-07
1.46608e-07
1.46608e-07
1.46608e-07
1.46608e-07
1.46608e-07
1.46608e-07
1.46608e-07
1.46608e-07
1.46608e-07
1.46608e-07
1.46608e-07
1.46608e-07
1.46608e-07
1.46608e-07
1.46608e-07
1.46608e-07
1.46608e-07
1.46608e-07
1.46608e-07
1.46608e-07
1.46608e-07
1.46608e-07
1.46608e-07
1.46608e-07
1.46608e-07
1.46608e-07
1.46608e-07
1.46608e-07
1.46608e-07
1.46608e-07
1.46608e-07
1.46608e-07
1.46608e-07
1.46608e-07
1.46608e-07
1.46608e-07
1.46608e-07
1.46608e-07
1.46608e-07
1.46608e-07
1.46608e-07
1.46608e-07
1.46608e-07
1.46608e-07
1.46608e-07
1.46608e-07
1.46608e-07
1.46608e-07
1.46608e-07
1.46608e-07
1.46608e-07
1.46608e-07
1.46608e-07
1.46608e-07
1.46608e-07
1.46608e-07
1.46608e-07
1.46608e-07
1.46608e-07
1.46608e-07
1.46608e-07
1.46608e-07
1.46608e-07
1.46608e-07
1.46608e-07
1.46608e-07
1.46608e-07
1.46608e-07
1.46608e-07
1.46608e-07
1.46608e-07
1.46608e-07
1.46608e-07
1.46608e-07
1.46608e-07
1.46608e-07
1.46608e-07
1.46608e-07
1.46608e-07
1.46608e-07
1.46608e-07
1.46608e-07
1.46608e-07
1.46608e-07
1.46608e-07
1.46608e-07
1.46608e-07
1.46608e-07
1.46608e-07
1.46608e-07
1.46608e-07
1.46608e-07
1.46608e-07
1.46608e-07
1.46608e-07
1.46608e-07
1.46608e-07
1.46608e-07
1.46608e-07
1.46608e-07
1.46608e-07
1.46608e-07
1.46608e-07
1.46608e-07
1.46608e-07
1.46608e-07
1.46608e-07
1.46608e-07
1.46608e-07
1.46608e-07
1.46608e-07
1.46608e-07
1.46608e-07
1.46608e-07
1.46608e-07
1.46608e-07
1.46608e-07
1.46608e-07
1.46608e-07
1.46608e-07
1.46608e-07
1.46608e-07
1.46608e-07
1.46608e-07
1.46608e-07
1.46608e-07
1.46608e-07
1.46608e-07
1.46608e-07
1.46608e-07
1.46608e-07
1.46608e-07
1.46608e-07
1.46608e-07
1.46608e-07
1.46608e-07
1.46608e-07
1.46608e-07
1.46608e-07
1.46608e-07
1.46608e-07
1.46608e-07
1.46608e-07
1.46608e-07
1.46608e-07
1.46608e-07
1.46608e-07
1.46608e-07
1.46608e-07
1.46608e-07
1.46608e-07
1.46608e-07
1.46608e-07
1.46608e-07
1.46608e-07
1.46608e-07
1.46608e-07
1.46608e-07
1.46608e-07
1.46608e-07
1.46608e-07
1.46608e-07
1.46608e-07
1.46608e-07
1.46608e-07
1.46608e-07
1.46608e-07
1.46608e-07
1.46608e-07
1.46608e-07
1.46608e-07
1.46608e-07
1.46608e-07
1.46608e-07
1.46608e-07
1.46608e-07
1.46608e-07
1.46608e-07
1.46608e-07
1.46608e-07
1.46608e-07
1.46608e-07
1.46608e-07
1.46608e-07
1.46608e-07
1.46608e-07
1.46608e-07
1.46608e-07
1.46608e-07
1.46608e-07
1.46608e-07
1.46608e-07
1.46608e-07
1.46608e-07
1.46608e-07
1.46608e-07
1.46608e-07
1.46608e-07
1.46608e-07
1.46608e-07
1.46608e-07
1.46608e-07
1.46608e-07
1.46608e-07
1.46608e-07
1.46608e-07
1.46608e-07
1.46608e-07
1.46608e-07
1.46608e-07
1.46608e-07
1.46608e-07
1.46608e-07
1.46608e-07
1.46608e-07
1.46608e-07
1.46608e-07
1.46608e-07
1.46608e-07
1.46608e-07
1.46608e-07
1.46608e-07
1.46608e-07
1.46608e-07
1.46608e-07
1.46608e-07
1.46608e-07
1.46608e-07
1.46608e-07
1.46608e-07
1.46608e-07
1.46608e-07
1.46608e-07
1.46608e-07
1.46608e-07
1.46608e-07

VECTORS velocity float
0.00370004 0.0122917 0.00202928
0.000163033 0.000108835 0.00235172
-0.0015436 0.00241211 -0.00417381
-0.000657617 -0.000450493 -0.000535609
0.00251965 0.00386725 0.0134118
3.05565e-05 -0.00297458 0.0222742
0.000517795 -0.00618365 0.0188767
0.00947128 0.00093339 0.00541262
0.00193022 -0.0050246 -0.00825121
0.00499976 -0.000579816 -0.00118186
-7.47012e-05 0.00428452 -0.0013569
0.00586931 0.000521302 0.00506801
0.00685576 -0.00721918 -0.00770731
3.64404e-15 5.56469e-16 -3.69008e-14
0.000673476 -0.00160873 -0.00115142
0.000906997 0.00265799 -0.000564265
0.00165495 0.0126406 0.000327441
-0.00110477 0.00397851 0.00200002
-1.36824e-05 0.00669854 0.020441
0.00138756 -0.000779192 -0.000849431
0.00260559 -0.00284993 0.00205464
0.00352059 9.21702e-05 -0.00196236
0.00019213 0.000467704 0.000591438
-0.0147019 0.0067581 -0.0373421
0.00960188 0.000634382 0.00361959
0.00612571 0.00196623 0.00254403
0.0017737 -0.00940997 -0.0102505
0.00179042 -0.00140137 -0.000106078
0.000660141 -0.000397672 -0.000348913
0.000756189 0.00177751 0.000371903
-0.00503851 -0.00445073 -0.00382406
0.000540764 0.0200071 0.00537183
-0.00387909 0.00179585 -0.00588758
0.00361235 0.00122388 -0.00549363
-0.000979532 -0.000421256 0.000544664
-0.000272159 0.000122686 -0.000760082
0.00076838 0.00218209 -0.000176474
0.00210563 -0.00434877 -0.002994
-0.000204249 0.000223191 -1.79063e-05
-0.00290137 0.00484079 0.000738323
-0.0203721 -0.00189891 -0.0208829
0.00561848 0.0053849 -0.0089737
0.0152412 0.0212165 0.00432995
-0.000258358 -0.000523267 -0.000225208
0.00517941 0.0137421 -0.0127341
-0.0384143 0.00050906 -0.0453238
0.00542736 -0.0289696 -0.0081456
0.000228754 0.000708154 -8.40339e-05
0.00532129 -0.00148662 -0.000333392
0.000822963 0.0167763 0.00152793
-0.000366525 -0.000373162 3.86266e-05
0.0011998 -0.000575029 -0.00251215
0.00310019 0.00440241 -0.00482665
0.00050468 -0.00989456 -0.00885526
0.000796541 0.0145613 -0.0150145
0.00166476 0.00342188 0.00067157
-0.00681315 -0.00646239 -0.00854828
-0.00193351 -0.00101576 -0.000699083
-0.00130929 0.000146804 0.000491592
0.000113214 0.00262045 0.00124566
0.00557284 0.000204003 0.00272882
-0.201926 -0.147544 -0.737688
0.000216257 0.00224407 -0.0215302
0.00186886 0.00666182 -0.00176798
0.00622803 0.000737647 -0.00074128
-0.00250021 0.0369789 0.0118882
-0.00175327 -0.00105356 0.00967517
0.0010748 -0.00246874 -0.00344067
-0.00454303 -0.000229757 0.00108517
-0.000336659 0.00671565 -0.00205986
0.00546768 -0.00175348 0.000505266
-0.00183999 -0.000527042 -0.000633141
0.000263811 0.00063665 0.000219673
0.0013406 -0.00184576 -0.0071529
0.000299348 0.000401814 -0.0012958
-4.70525e-05 0.00110302 6.96006e-05
-0.0410695 -0.0081085 -0.000726798
0.0117356 0.00102537 0.00248062
0.00426272 0.00174869 0.00357582
0.00912706 0.00957245 -0.0116602
0.00401725 -3.93828e-05 0.0150561
0.000254603 0.00412582 -3.33476e-06
0.0016737 0.00710009 -0.000180078
-0.000647993 0.0011637 0.000452932
-0.00241705 -0.00309901 0.00307011
0.00326696 -0.0020101 0.00128771
0.00150816 0.00322732 0.00216801
-0.00163263 0.000248987 0.00527462
-0.00032587 -0.0194906 -0.0108414
-0.000665715 0.0054817 -0.0112979
0.00187604 0.00374258 0.00243626
0.00261576 0.00244262 0.0018486
0.0018283 -0.00465921 -0.00750329
0.000653644 0.00276107 -0.00110075
-2.58968e-05 -0.00306066 -0.000905657
0.00330458 0.000609775 -0.00671685
0.0108731 -0.0245475 -0.0369261
0.000317227 -0.0175298 0.0117277
0.0125908 -0.0195337 -0.0120048
-6.25798e-15 2.93876e-15 -5.78018e-14
0.00204783 -8.34871e-05 -0.000374507
0.00172415 0.00772622 0.0112527
-0.000837852 -0.000116878 -0.00167802
0.00601302 0.006223 -0.0142859
-0.0062381 0.00382866 -0.000221361
0.00182296 0.0011344 0.00162015
0.00116348 0.000623355 -0.00649365
0.000987842 0.000818112 -0.00293941
0.00353597 0.00517458 -0.01233
0.00281035 -0.000468287 -0.000436794
0.0249584 -0.0089962 -0.0182423
0.00165438 -0.00274641 0.0137007
-0.0399479 0.000445052 -0.014316
0.00162667 0.000222903 0.0145246
-0.0205618 0.0111842 -0.044238
-0.000762111 -0.0025273 -0.00175984
-0.000558001 0.00039344 -3.97833e-05
0.00487032 -0.00386552 -0.000370066
-5.30591e-05 0.0202821 0.000882307
0.000371582 0.014984 -0.000141217
0.00126371 0.00339241 -0.000350855
-0.00462586 0.00318588 -0.000548632
0.00457142 0.00123436 -0.000488758
0.000442216 0.0104315 0.0166392
0.0022834 -0.0100787 -0.0324152
-0.00219564 0.00349757 -0.00271391
0.000135868 0.000493728 -0.00167508
0.000472164 -0.000387413 -0.000907528
5.59637e-05 0.0101059 -0.0058415
0.000550967 -0.009647 0.017478
0.0410886 0.0324149 -0.0685031
0.00154695 -0.00251148 0.00117245
0.00244709 0.00373081 -0.00767234
0.00459873 0.00161906 -0.000876039
0.000548593 9.35288e-05 0.000236833
0.00102244 0.00238102 -0.00171887
0.00410587 0.00432334 0.0010483
0.000294826 0.00655401 -0.00836742
-0.000447844 0.000359373 0.000930514
0.00258785 -0.0012235 -0.00684522
-7.99057e-05 -0.000239081 0.000819283
0.00433789 0.0110957 -0.00194067
0.000665124 0.000554708 0.000437248
0.00173939 0.00497616 0.00227947
0.00247407 0.0008857 -0.00191964
0.00204557 0.000226694 0.00107793
0.00343107 0.00561886 0.000154142
7.279e-05 0.000119231 0.00073081
0.00399502 -0.000359647 -0.0045865
0.010871 -0.0035566 -0.000568704
0.00283041 -0.000912547 -0.00124189
-0.000161777 0.00103039 0.00117923
0.00496166 -0.00027839 -0.00195786
0.000829663 0.0025538 0.000189804
0.00206423 0.0207531 -0.0059849
-0.00299145 -0.000112199 0.001782
0.0023321 0.00334982 0.000803694
0.00250377 0.00337779 -0.0119974
0.000388766 -0.00015474 0.000280908
-0.00150426 0.016926 -0.0157882
0.0040275 -0.00107217 -0.00842897
0.00887715 0.000919359 -0.00516317
0.00119359 0.000696623 0.000751166
0.00646008 -0.00668029 -0.0154671
6.59019e-05 0.0143488 0.0074567
-0.000187338 -0.000530004 0.000541675
0.00335619 0.00248512 0.00113495
0.00371176 0.0362929 -0.073051
0.00139767 0.00323624 0.00211638
-0.0615857 0.0161611 0.0458261
0.000443606 0.00316303 -0.000104657
0.00430736 0.000345377 -0.00142888
0.010425 0.00354449 -0.00422254
-0.00594928 0.00846519 0.00264397
0.00252297 0.00623456 -0.0106678
0.00387476 0.0090922 -0.00459222
0.00069547 0.00101493 0.00165117
0.00492738 -0.000551342 -0.00138296
-0.0177146 0.0250468 -0.027093
0.00481005 0.000432478 -0.0012322
-8.59745e-05 3.44534e-05 -7.73799e-05
0.00389955 0.000411885 0.00115469
0.00200163 0.00225416 -0.00140122
-0.133849 0.0403762 0.0386904
0.0013519 0.0118184 -0.0184946
0.00278816 0.000397957 -0.000672621
0.00537786 0.000526395 0.001307
0.0158848 -0.038166 -0.0274714
0.00619117 0.0218706 -0.00882552
0.002318 0.000729328 -0.00172952
0.00255933 -0.023331 -0.0339724
0.00132975 -0.00154498 -0.000792354
0.00137116 0.00334517 -0.00109256
-1.26733e-06 0.019957 0.00501242
0.000299567 0.000495854 0.000365717
0.000302212 -0.0183836 -0.0100884
-0.000678182 0.000368619 -0.00144114
-0.0021031 -0.00509867 -0.00209803
0.000540024 0.0133235 0.012367
-0.000236104 0.000252757 0.000710282
0.000229265 0.000225669 0.000281387
0.00394954 0.0169849 -0.00879769
0.000462917 -0.00102117 0.00425073
0.000623393 0.000128366 -0.00110443
-0.0314724 0.00538418 -0.0507268
0.000266588 0.000279741 -0.000207826
0.000415836 0.00076338 0.000618602
0.00232243 0.00639356 -0.000472644
0.00346183 0.0191816 -0.00684111
0.00216696 0.0138395 0.00378489
0.00403562 0.0108976 -0.0124419
0.0118759 0.00518489 -0.0728754
0.065506 0.00158177 -0.0963726
0.00206627 0.00155775 0.000447865
0.00444344 0.00186334 -0.00171335
0.00397626 2.10064e-05 -0.00373815
-0.00246419 0.00255982 -0.00444432
-0.000976637 -0.00106739 -0.00662639
0.00502589 0.000798571 -0.00127233
0.00152981 0.00219669 0.00144997
0.000822805 -0.000181788 0.000260147
0.00327551 0.00707413 1.73252e-05
0.00468138 0.00161862 -0.00181635
0.000858883 0.0111486 -0.00154997
0.00169978 0.0113104 -0.00370447
0.0251115 -0.0105669 -0.00644535
0.0082907 0.00550337 0.00471899
1.84465e-05 0.00529266 -0.0016461
0.00256344 0.00291997 -0.00491154
0.0011328 0.00147243 -9.44081e-05
-0.000463401 -0.00246781 -0.00289114
-0.00383039 0.00120242 0.00396507
2.47547e-06 0.00057896 9.73218e-05
0.00290342 0.00652505 -0.000281069
0.000593143 -0.00170019 -0.00339672
-0.00294619 -0.00992478 -0.0079729
0.00528502 0.00882474 -0.023135
0.0390246 -0.0364972 -0.0277645
0.00853352 -0.00461682 -0.00301571
0.006545 -0.00291789 0.00067224
0.000806711 -0.0502715 -0.0124511
-0.00744136 0.000542424 -0.0167419
0.00119203 0.00121982 -0.000997314
0.00321874 0.00290774 0.00135678
0.00117901 0.000660258 0.00114238
0.000777874 -0.00166049 -0.00039596
-0.0222134 0.0251775 -0.0683193
-0.00217055 0.00621238 0.000975078
-0.0336054 0.0319655 -0.0827878
-0.000754063 -0.000494952 -0.00121066
-0.00201933 0.00823447 -0.00961576
-0.0117391 -0.0123654 -0.0238685
2.70466e-05 0.000910443 -0.00108761
0.000359916 0.000342516 1.6615e-05
0.0499656 0.000522195 -0.0623198
-9.38946e-05 0.000444123 0.000212929
2.45943e-05 0.000815922 -0.000803402
-0.068479 0.117622 -0.061841
0.00483725 0.0131413 -0.0212822
-0.0021533 0.00626377 -0.000447397
0.00452154 0.000200502 -0.000580364
0.00043432 -0.000314462 0.000255592
0.00133589 0.0206932 -0.00235701
-9.68799e-317 -9.69932e-317 9.23294e-13
0.00543214 0.00529618 -0.0160445
0.00128489 0.00371241 -0.00108498
0.0189069 -0.0141413 -0.0112574
0.00315513 0.000981873 -0.000659326
0.00353291 0.00718003 0.00349512
0.00106212 0.00393484 -0.00493041
-0.000622892 0.000205162 -7.63665e-05
0.0118535 0.0409425 -0.0196554
0.00277647 -0.000238485 3.7984e-05
-0.000487784 0.00122061 -0.000214952
4.74142e-05 -0.000416935 0.000549712
0.020953 0.00521905 -0.0235682
-0.0786394 -0.0102653 0.0292077
0.00354826 0.00664461 -4.2229e-05
-0.46831 -0.227097 -0.347975
0.00107834 0.00272487 0.000676438

VECTORS force float
-1.16368e-07 6.7106e-08 3.20707e-08
7.71184e-09 -1.41058e-06 1.95876e-06
-1.05283e-09 1.30263e-07 -1.42105e-07
-5.62786e-08 4.0026e-06 -3.56711e-07
6.9646e-07 1.21269e-06 5.72308e-06
-2.6047e-10 1.07473e-08 5.50758e-09
-3.58171e-09 5.73682e-09 1.55658e-08
-4.5669e-06 -8.99245e-07 -2.14447e-06
1.13826e-06 -1.63829e-06 -1.70261e-06
0.0 0.0 -1.43822e-06
1.19394e-06 -2.57461e-07 2.30899e-08
2.00185e-06 9.45144e-06 -7.99519e-05
4.28295e-08 -1.7738e-07 -1.18422e-07
6.27334e-21 -4.16899e-20 0.0
2.32763e-07 1.33698e-07 2.48417e-08
-5.26754e-07 -1.21267e-06 3.02705e-06
1.31578e-07 4.77467e-07 -3.25531e-07
5.91405e-05 -3.78566e-05 2.35236e-05
6.3594e-10 1.22093e-08 -2.37134e-10
9.92266e-07 3.75377e-07 2.7333e-07
-8.78742e-08 1.58946e-07 7.3961e-08
3.42696e-05 2.82997e-06 -5.07971e-05
1.73666e-08 3.02394e-08 -4.634e-08
0.0 0.0 -1.43822e-06
-9.75393e-06 -5.23665e-06 -2.34302e-06
-3.34126e-07 -9.5827e-08 -2.5483e-08
-1.88808e-06 -1.86545e-06 2.97435e-06
-2.27022e-07 6.29675e-07 -2.74608e-07
-8.66068e-07 2.31043e-06 3.00147e-08
-9.65469e-07 1.3469e-05 -5.79593e-06
-4.88655e-08 -2.46999e-07 -1.28979e-07
-8.14262e-10 7.84914e-09 -1.26241e-08
2.83695e-06 -3.32522e-08 1.05546e-06
7.62235e-07 2.03757e-06 4.59265e-06
-2.30699e-05 -5.16089e-06 1.00014e-05
-2.37856e-06 5.18375e-07 -3.07107e-06
-1.67668e-06 1.39219e-06 3.73602e-06
3.16032e-06 1.04871e-05 -5.15539e-06
-1.70431e-05 -5.74551e-06 -1.25231e-05
0.0 0.0 -1.43822e-06
-2.46267e-07 1.62468e-07 -9.06774e-07
-0.00010124 -8.71119e-06 7.08565e-05
0.0 0.0 -1.43822e-06
-2.45717e-07 -5.62892e-09 7.53912e-08
0.0 0.0 -1.43822e-06
0.0 0.0 -1.43822e-06
0.0 0.0 -1.43822e-06
-8.53604e-06 -1.74065e-06 -3.42574e-06
-2.06958e-07 5.71917e-07 1.83586e-07
4.74948e-07 -7.96341e-07 2.70638e-07
-2.25887e-08 1.08242e-07 -1.58551e-07
5.27451e-06 4.37865e-06 5.80435e-06
-4.46399e-06 1.05514e-09 -1.49244e-05
-1.19568e-07 4.42738e-07 4.21938e-07
-3.35535e-08 -4.06466e-08 6.54472e-09
-5.29884e-08 -2.21688e-07 -1.47589e-07
0.0 0.0 -1.43822e-06
-3.74327e-05 -1.58663e-05 -5.64855e-06
4.73056e-09 -5.87597e-09 -6.79137e-08
-1.10713e-07 9.0419e-08 -4.83465e-09
-1.9357e-05 -4.75887e-06 4.22064e-06
0.0 0.0 -1.43822e-06
-6.98049e-10 -1.04629e-08 -7.1609e-09
8.65242e-08 -2.59022e-07 2.59192e-07
-1.70172e-07 -1.36026e-06 9.62133e-07
0.0 0.0 -1.43822e-06
-1.55718e-08 -2.43723e-08 -1.42799e-06
4.48196e-08 -1.28275e-07 -1.04937e-06
-2.74546e-05 -4.67163e-06 2.09923e-05
1.88716e-06 -1.1651e-06 -1.12753e-07
0.0 0.0 -1.43822e-06
-1.11817e-06 -8.62869e-07 2.67331e-07
-8.47864e-08 -1.32827e-07 -8.34613e-07
2.11568e-05 1.44139e-05 -2.97372e-05
1.87194e-08 1.27329e-07 -1.28231e-06
1.75535e-07 1.681e-07 1.29041e-08
0.0 0.0 -1.43822e-06
-4.40075e-07 1.46028e-07 1.68746e-07
-4.61869e-08 -1.76547e-09 8.84559e-08
0.0 0.0 -1.43822e-06
2.00384e-07 2.33232e-06 -2.94132e-06
1.05587e-07 -1.24517e-07 5.46314e-08
1.5812e-07 -7.53173e-07 -1.0773e-07
1.28866e-07 7.02353e-07 -7.23925e-07
-2.96725e-05 2.46237e-05 1.90955e-05
7.99921e-07 -2.49157e-06 -1.32856e-06
-3.90609e-08 -2.55635e-07 9.64679e-08
3.78747e-06 -1.18253e-06 -2.39139e-06
3.95814e-09 -5.10062e-09 9.09508e-09
-4.33429e-05 -4.99896e-05 0.000107454
9.08207e-07 5.30381e-07 -1.52129e-07
-6.26202e-07 -1.24026e-07 1.17831e-07