# vtk DataFile Version 3.0
LIGGGHTS particles timestep 11600000
ASCII
DATASET POLYDATA
POINTS 146 float
0.0210498 0.0230644 0.0134228
0.0227056 0.022632 0.0153068
0.0203053 0.0234394 0.011569
0.0320371 0.0201107 0.0156091
0.0236988 0.0206292 0.00764508
0.0206494 0.0241518 0.0141645
0.00938048 0.0183393 0.00587271
0.0263655 0.0198911 0.00597594
0.0299105 0.0216215 0.00799211
0.0366849 0.0218066 0.0435188
0.0241769 0.022689 0.00922028
0.0354708 0.0197105 0.00738817
0.0237946 0.0171836 0.0187482
0.0286664 0.0162667 0.0082283
0.0171552 0.0234231 0.0143992
0.000684616 0.0148457 0.044047
0.0322696 0.0193273 0.0158381
0.0147762 0.0226704 0.0140777
0.021096 0.0160198 0.0147718
0.0209783 0.0207512 0.0156131
0.0192238 0.0192917 0.0167561
0.0311112 0.0231274 0.0129025
0.0199822 0.0208356 0.0155849
0.0153625 0.0152708 0.0138383
0.0186057 0.0233069 0.0107376
0.0256519 0.0208483 0.0166411
0.0202033 0.0199012 0.0158668
0.003617 0.0285782 0.0435188
0.0341245 0.0149472 0.0125696
0.022401 0.0149776 0.0133226
0.0196051 0.0193773 0.00612808
0.0328715 0.0165962 0.0150334
0.0154417 0.0144612 0.0147812
0.0168202 0.0142867 0.0132971
0.0347146 0.0165169 0.00801698
0.0324286 0.0186037 0.0157402
0.0333942 0.0150388 0.0129742
0.0197564 0.0217397 0.0152223
0.017283 0.0240402 0.0131022
0.0254668 0.0222323 0.0142828
0.0207182 0.0219037 0.0153003
0.0308802 0.0233542 0.01162
0.0216078 0.0147813 0.0127463
0.0268702 0.0165866 0.0149881
0.024466 0.0221859 0.0157447
0.0234852 0.0150328 0.0148529
0.0313326 0.0226698 0.0138127
0.0323772 0.0147928 0.012227
0.0340937 0.015006 0.0101351
0.024442 0.0230928 0.00992623
0.0305785 0.0232976 0.0104883
0.0190252 0.0226129 0.015417
0.0290278 0.0178714 0.00737529
0.0239583 0.0217578 0.00832727
0.0214483 0.0168437 0.00645098
0.0250608 0.0215137 0.0161853
0.0185529 0.0144007 0.0152241
0.027754 0.0147616 0.0117575
0.0180348 0.0236966 0.0140102
0.0551527 0.0181697 0.00595147
0.0358973 0.0217564 0.00811128
0.0216173 0.0222328 0.0151023
0.0357199 0.0210913 0.00780099
0.0191117 0.0244569 0.0136574
0.0303903 0.00406748 0.0435188
0.0174717 0.0151426 0.0149826
0.0304249 0.0209166 0.00763393
0.0234387 0.019491 0.00723332
0.0343939 0.0155507 0.0089819
0.0204114 0.0140342 0.0131708
0.019773 0.0232557 0.0129361
0.0258066 0.0209759 0.0153409
0.0193386 0.022939 0.0137061
0.0360888 0.0221304 0.00854063
0.0292558 0.0187428 0.00719009
0.0271775 0.0157202 0.0142357
0.0570019 0.0175547 0.00590579
0.0221489 0.0191283 0.0159555
0.0217855 0.0212768 0.0153446
0.0201073 0.024179 0.013069
0.0224551 0.0236203 0.0140723
0.0326086 0.017555 0.0155223
0.0221348 0.00230077 0.0435188
0.0165311 0.0237981 0.0137137
0.0281764 0.0151379 0.00975354
0.0187372 0.0136947 0.0137148
0.0188517 0.0234326 0.0115891
0.0184317 0.022941 0.00993714
0.0192197 0.0231573 0.0102651
0.0213996 0.0226871 0.0142595
0.0194068 0.0140108 0.0130399
0.0303634 0.0229471 0.00956814
0.0288219 0.0169955 0.0077107
0.0279635 0.0147864 0.0108408
0.0212534 0.0198254 0.0158785
0.0227853 0.0147226 0.0142097
0.0275152 0.0149735 0.0126724
0.0294614 0.019669 0.00723487
0.0216232 0.0241496 0.0140253
0.0191787 0.0240038 0.0127356
0.0296558 0.0207969 0.00755967
0.0173522 0.0159464 0.0157142
0.0745738 0.00220457 0.0263968
0.0268456 0.0189802 0.00598524
0.0202815 0.0227688 0.0139352
0.0210841 0.0239546 0.0130542
0.0240368 0.0183139 0.016705
0.0185718 0.0218066 0.0082073
0.0337643 0.0147853 0.0117007
0.0253219 0.0199085 0.0167294
0.0168599 0.0151974 0.0137117
0.0318214 0.0210228 0.0152496
0.0221996 0.00109062 0.0435188
0.0194966 0.0234004 0.0111259
0.0316248 0.0220272 0.0146347
0.021788 0.0145564 0.0145539
0.0220846 0.0149522 0.0101759
0.0173499 0.014402 0.0142001
0.0352228 0.0186335 0.00732263
0.0220459 0.0158058 0.0145388
0.0212972 0.0153773 0.0140202
0.024148 0.0155317 0.0154112
0.0184787 0.0145335 0.0142027
0.0195061 0.0143973 0.0139659
0.0230354 0.0159027 0.0146488
0.0302101 0.0224678 0.00882696
0.108836 0.0200055 0.00584234
0.0242584 0.020367 0.0165862
0.0160569 0.0149148 0.0131342
0.0179509 0.0141987 0.0133619
0.0247199 0.02255 0.00902033
0.0249372 0.018986 0.0167572
0.0265442 0.0179565 0.0156011
0.0231647 0.023246 0.014665
0.0205858 0.0233771 0.01248
0.0217673 0.0175727 0.0157014
0.0238057 0.0227534 0.015253
0.0157765 0.0235941 0.0144506
0.00937694 0.00505359 0.0435188
0.0197658 0.0237846 0.0139388
0.0182773 0.0241389 0.0131469
0.0232244 0.0186512 0.00723159
0.0195787 0.0223632 0.0144818
0.0215287 0.0143044 0.0136216
0.024947 0.0190645 0.00586966
0.0284502 0.0156748 0.00885649

VERTICES 146 292
1 0
1 1
1 2
1 3
1 4
1 5
1 6
1 7
1 8
1 9
1 10
1 11
1 12
1 13
1 14
1 15
1 16
1 17
1 18
1 19
1 20
1 21
1 22
1 23
1 24
1 25
1 26
1 27
1 28
1 29
1 30
1 31
1 32
1 33
1 34
1 35
1 36
1 37
1 38
1 39
1 40
1 41
1 42
1 43
1 44
1 45
1 46
1 47
1 48
1 49
1 50
1 51
1 52
1 53
1 54
1 55
1 56
1 57
1 58
1 59
1 60
1 61
1 62
1 63
1 64
1 65
1 66
1 67
1 68
1 69
1 70
1 71
1 72
1 73
1 74
1 75
1 76
1 77
1 78
1 79
1 80
1 81
1 82
1 83
1 84
1 85
1 86
1 87
1 88
1 89
1 90
1 91
1 92
1 93
1 94
1 95
1 96
1 97
1 98
1 99
1 100
1 101
1 102
1 103
1 104
1 105
1 106
1 107
1 108
1 109
1 110
1 111
1 112
1 113
1 114
1 115
1 116
1 117
1 118
1 119
1 120
1 121
1 122
1 123
1 124
1 125
1 126
1 127
1 128
1 129
1 130
1 131
1 132
1 133
1 134
1 135
1 136
1 137
1 138
1 139
1 140
1 141
1 142
1 143
1 144
1 145

POINT_DATA 146
SCALARS id int 1
LOOKUP_TABLE default
1
2
4
5
11
13
15
16
17
18
19
20
23
24
25
27
28
31
32
33
35
37
40
41
43
44
47
49
52
54
57
59
62
63
65
67
68
71
73
74
76
79
80
84
85
86
87
88
89
90
92
97
103
106
108
109
110
112
116
121
122
124
125
126
128
130
131
133
135
137
138
139
141
142
143
147
149
150
151
157
158
160
161
165
166
167
170
171
173
174
179
185
186
187
191
193
194
197
199
200
205
206
211
215
220
221
224
225
226
227
228
229
232
235
237
240
241
242
247
248
250
252
253
256
257
258
260
262
263
268
269
270
271
272
274
275
277
282
284
286
288
289
291
294
299
300

SCALARS type int 1
LOOKUP_TABLE default
1
1
1
1
1
1
1
1
1
1
1
1
1
1
1
1
1
1
1
1
1
1
1
1
1
1
1
1
1
1
1
1
1
1
1
1
1
1
1
1
1
1
1
1
1
1
1
1
1
1
1
1
1
1
1
1
1
1
1
1
1
1
1
1
1
1
1
1
1
1
1
1
1
1
1
1
1
1
1
1
1
1
1
1
1
1
1
1
1
1
1
1
1
1
1
1
1
1
1
1
1
1
1
1
1
1
1
1
1
1
1
1
1
1
1
1
1
1
1
1
1
1
1
1
1
1
1
1
1
1
1
1
1
1
1
1
1
1
1
1
1
1
1
1
1
1

SCALARS radius float 1
LOOKUP_TABLE default
0.0005
0.0005
0.0005
0.0005
0.0005
0.0005
0.0005
0.0005
0.0005
0.0005
0.0005
0.0005
0.0005
0.0005
0.0005
0.0005
0.0005
0.0005
0.0005
0.0005
0.0005
0.0005
0.0005
0.0005
0.0005
0.0005
0.0005
0.0005
0.0005
0.0005
0.0005
0.0005
0.0005
0.0005
0.0005
0.0005
0.0005
0.0005
0.0005
0.0005
0.0005
0.0005
0.0005
0.0005
0.0005
0.0005
0.0005
0.0005
0.0005
0.0005
0.0005
0.0005
0.0005
0.0005
0.0005
0.0005
0.0005
0.0005
0.0005
0.0005
0.0005
0.0005
0.0005
0.0005
0.0005
0.0005
0.0005
0.0005
0.0005
0.0005
0.0005
0.0005
0.0005
0.0005
0.0005
0.0005
0.0005
0.0005
0.0005
0.0005
0.0005
0.0005
0.0005
0.0005
0.0005
0.0005
0.0005
0.0005
0.0005
0.0005
0.0005
0.0005
0.0005
0.0005
0.0005
0.0005
0.0005
0.0005
0.0005
0.0005
0.0005
0.0005
0.0005
0.0005
0.0005
0.0005
0.0005
0.0005
0.0005
0.0005
0.0005
0.0005
0.0005
0.0005
0.0005
0.0005
0.0005
0.0005
0.0005
0.0005
0.0005
0.0005
0.0005
0.0005
0.0005
0.0005
0.0005
0.0005
0.0005
0.0005
0.0005
0.0005
0.0005
0.0005
0.0005
0.0005
0.0005
0.0005
0.0005
0.0005
0.0005
0.0005
0.0005
0.0005
0.0005
0.0005

SCALARS mass float 1
LOOKUP_TABLE default
1.46608e-07
1.46608e-07
1.46608e-07
1.46608e-07
1.46608e-07
1.46608e-07
1.46608e-07
1.46608e-07
1.46608e-07
1.46608e-07
1.46608e-07
1.46608e-07
1.46608e-07
1.46608e-07
1.46608e-07
1.46608e-07
1.46608e-07
1.46608e-07
1.46608e-07
1.46608e-07
1.46608e-07
1.46608e-07
1.46608e-07
1.46608e-07
1.46608e-07
1.46608e-07
1.46608e-07
1.46608e-07
1.46608e-07
1.46608e-07
1.46608e-07
1.46608e-07
1.46608e-07
1.46608e-07
1.46608e-07
1.46608e-07
1.46608e-07
1.46608e-07
1.46608e-07
1.46608e-07
1.46608e-07
1.46608e-07
1.46608e-07
1.46608e-07
1.46608e-07
1.46608e-07
1.46608e-07
1.46608e-07
1.46608e-07
1.46608e-07
1.46608e-07
1.46608e-07
1.46608e-07
1.46608e-07
1.46608e-07
1.46608e-07
1.46608e-07
1.46608e-07
1.46608e-07
1.46608e-07
1.46608e-07
1.46608e-07
1.46608e-07
1.46608e-07
1.46608e-07
1.46608e-07
1.46608e-07
1.46608e-07
1.46608e-07
1.46608e-07
1.46608e-07
1.46608e-07
1.46608e-07
1.46608e-07
1.46608e-07
1.46608e-07
1.46608e-07
1.46608e-07
1.46608e-07
1.46608e-07
1.46608e-07
1.46608e-07
1.46608e-07
1.46608e-07
1.46608e-07
1.46608e-07
1.46608e-07
1.46608e-07
1.46608e-07
1.46608e-07
1.46608e-07
1.46608e-07
1.46608e-07
1.46608e-07
1.46608e-07
1.46608e-07
1.46608e-07
1.46608e-07
1.46608e-07
1.46608e-07
1.46608e-07
1.46608e-07
1.46608e-07
1.46608e-07
1.46608e-07
1.46608e-07
1.46608e-07
1.46608e-07
1.46608e-07
1.46608e-07
1.46608e-07
1.46608e-07
1.46608e-07
1.46608e-07
1.46608e-07
1.46608e-07
1.46608e-07
1.46608e-07
1.46608e-07
1.46608e-07
1.46608e-07
1.46608e-07
1.46608e-07
1.46608e-07
1.46608e-07
1.46608e-07
1.46608e-07
1.46608e-07
1.46608e-07
1.46608e-07
1.46608e-07
1.46608e-07
1.46608e-07
1.46608e-07
1.46608e-07
1.46608e-07
1.46608e-07
1.46608e-07
1.46608e-07
1.46608e-07
1.46608e-07
1.46608e-07
1.46608e-07
1.46608e-07
1.46608e-07
1.46608e-07

VECTORS velocity float
0.00331389 -0.00229027 -0.00378197
-0.00554938 0.000786824 -0.00163995
0.00191581 -0.00103887 -0.00306183
0.00194479 0.0206564 -0.00878785
0.000122762 -0.0192031 -0.00957551
-0.000304798 0.000740816 0.00124186
3.64505e-15 5.42421e-16 -3.6901e-14
-0.0458531 -0.0298745 0.00253728
0.00054384 -0.0149119 -0.0108337
-9.6879e-317 9.73506e-317 2.68131e-13
5.52208e-05 -0.00921464 -0.0134093
2.39712e-05 -0.0215687 -0.00411567
-0.0471941 -0.0369489 -0.0357111
0.00179675 -0.00973512 0.00859863
0.000252659 0.000224854 8.16925e-05
-0.0209775 0.0287803 -0.105717
0.00180609 0.016147 -0.000821664
0.0050818 0.00205218 -0.00348966
0.00317959 -0.0033337 0.00120793
0.00335068 0.00550404 -0.00640181
-6.36238e-09 0.024747 -0.00103348
0.000100945 0.0094128 -0.0213351
0.00280387 0.00881844 -0.00449294
0.00264521 -0.00218251 -0.00361253
0.00413832 -0.000452557 -0.00599915
-0.000140741 0.000283857 -0.000499723
4.73208e-06 0.0201407 -0.00404286
-9.68849e-317 -9.75601e-317 2.88878e-12
0.00123528 0.00628745 0.0194155
0.00467521 0.000668374 0.00445647
-3.58966e-14 1.60984e-14 -3.28527e-13
0.00127553 0.0142421 0.00970613
-0.0401943 0.0101157 0.0455749
0.00196323 0.00304415 -0.00919074
0.00036826 -0.0200598 0.00999943
0.00270026 0.0167937 0.00302938
0.000906779 0.00877066 0.01885
0.00352862 0.00914464 -0.000717179
5.92529e-05 -0.000620121 9.74363e-05
0.000145987 0.0145912 -0.0160227
0.00436955 0.00836246 0.00315101
0.000324853 0.00256002 -0.0223861
0.00366702 0.000998405 0.00611463
0.00119243 0.0115654 0.00785461
-0.000409434 -0.000201313 -0.00113239
0.00583007 0.00349297 0.00410545
0.000309925 0.0110797 -0.0176963
9.03989e-05 0.00419244 0.019902
0.00108481 -0.00502301 0.0177234
0.000278445 -0.00645657 -0.0186758
0.00180695 -0.00208484 -0.0144379
-0.000337935 0.0494766 -0.0422146
0.00128415 -0.0193085 0.00440599
0.000436259 -0.0161677 -0.0129262
-2.38666e-14 5.08835e-14 1.84336e-13
-0.000495418 -3.79029e-05 -0.000860454
-0.00297441 0.00546944 0.0562686
0.000879566 0.00191067 0.0179049
0.000140708 -2.78282e-05 0.000169671
-1.30051e-14 -1.76698e-14 -2.51655e-13
0.00212893 -0.00755673 -0.00603289
0.00552663 0.0099816 0.00590613
0.0023764 -0.0149385 -0.00558698
0.000505287 -3.47318e-05 -0.000499317
-9.67556e-317 -9.75879e-317 -3.22607e-12
-0.0172168 0.12554 0.188083
-0.000140018 -0.0086164 -0.00294878
0.00107006 -0.0131632 -0.00226108
0.000139227 -0.0127966 0.017151
0.0342734 0.00197552 0.0103118
0.00295848 0.00289949 -0.00741868
0.00106462 0.0146139 -0.00821998
0.00386589 -0.000211607 -0.00804796
0.00321711 -0.00872059 -0.00843969
0.000808095 -0.0185558 0.00188288
0.000600866 0.0131317 0.0161778
4.36229e-15 1.1899e-14 2.80767e-13
2.12363e-11 0.0205761 -0.000535821
0.00310727 0.00618247 -0.00612574
-0.000229261 0.000561049 -0.00174039
0.03306 -0.110689 0.0280869
0.000186719 0.0196619 0.00731706
9.74157e-317 -9.69799e-317 9.23294e-13
0.000115835 0.000791119 6.04238e-05
0.000196804 -0.00869534 0.0193046
0.000653655 -0.00978711 0.00906984
0.00241439 -0.000840497 -0.00932947
0.0041256 0.0037172 -0.00148057
0.00298674 -0.00134209 -0.00909778
0.010065 -0.011028 -0.00854757
0.0159685 0.00088351 9.28126e-05
0.000459856 -0.00841947 -0.0195862
0.000616404 -0.0153913 0.0082312
0.00153779 -0.00497386 0.0158825
0.00269486 0.00522989 -0.00174182
0.00643992 0.00115766 0.00396688
0.000263147 0.00588655 0.0199905
0.000141877 -0.0208484 -0.00355862
-0.00787399 -0.0604926 0.0536711
0.000375108 0.000684919 -0.000725434
0.000380246 -0.0187819 -0.00846133
-0.00144886 0.0130514 0.00901311
0.315623 -0.124086 -0.76
0.0252984 -0.0246334 0.0027189
0.00407846 9.05096e-05 -0.00203383
0.00147966 -0.000400804 -0.000872669
-0.000851695 0.0219065 0.00277811
0.00082441 -0.0138522 -0.0159009
-6.79905e-05 -0.000738919 0.0223654
-0.00208985 0.00108114 0.000858827
0.00220972 -0.000277495 4.39656e-05
0.000101374 0.01958 -0.00982185
9.58743e-317 9.68145e-317 4.97437e-14
0.00354497 -0.000111972 -0.0102386
0.00103556 0.010057 -0.00795552
0.00899932 -0.000842266 0.00563419
0.000326631 -0.00607799 0.019506
-0.133476 -0.0120389 0.0854542
9.0882e-05 -0.022672 -0.00110258
0.00359287 -0.00165575 -0.00323156
0.00754352 -0.00459103 -0.0107817
0.00563844 0.0056844 0.00313393
-0.00545813 -0.00462118 0.014094
0.00247224 0.00428395 0.00531837
0.0043194 -0.00126533 -0.00392884
0.000368244 -0.0126118 -0.0156079
7.67176e-16 -1.27679e-15 -6.97331e-15
-6.82803e-09 0.0239092 -0.00630286
0.000846458 0.000170522 -0.00138809
-0.0307363 -0.569188 0.589934
0.00208181 0.0001317 -0.0039765
-0.0063986 0.00281405 0.00163436
0.00242685 0.0255603 0.00947835
0.0187736 -0.0338353 0.00705778
0.00506449 0.000412414 -0.00419675
2.15209e-11 0.0193424 0.00700379
0.00103309 0.000839238 0.000898268
0.00355959 -0.0104995 -0.014627
-9.68799e-317 -9.69932e-317 9.23294e-13
0.00194321 -0.000112968 -0.00427445
8.46397e-05 8.03746e-05 0.000173762
0.000605872 -0.0191487 0.00250357
0.00289468 0.00478326 -0.00335597
0.00564042 0.000512691 0.00610556
2.60892e-15 4.16713e-16 -4.25291e-14
0.00297245 -0.00252426 0.00466435

VECTORS force float
-6.01228e-06 -7.13281e-06 -2.77899e-06
2.07206e-06 -1.37055e-05 1.28018e-05
-5.94801e-06 2.19342e-07 7.22225e-06
1.18202e-06 -2.96708e-06 1.55459e-06
1.10262e-08 1.3285e-08 2.20536e-08
-4.39171e-05 -9.00602e-05 0.000108648
3.17637e-22 -4.29671e-20 -6.35275e-22
0.0 0.0 -1.43822e-06
7.64791e-08 8.5882e-07 5.25097e-07
0.0 0.0 0.0
-1.24621e-06 -3.5492e-06 -3.72825e-06
-5.756e-10 -4.55856e-09 1.07582e-08
0.0 0.0 -1.43822e-06
1.06569e-07 1.73833e-07 -7.51366e-08
-3.92048e-07 -2.50908e-07 -6.69243e-08
0.0 0.0 -1.43822e-06
3.01531e-06 4.053e-06 -5.93296e-06
-7.76183e-09 2.26763e-09 1.62016e-08
0.0 0.0 -1.43822e-06
-1.50329e-07 3.63188e-09 -1.38571e-06
-2.40566e-14 -6.21801e-10 -1.68857e-08
-1.801e-10 -7.86196e-09 -9.35973e-09
7.97425e-08 -1.14046e-06 -4.7212e-08
0.0 0.0 -1.43822e-06
-1.55546e-07 -2.48724e-07 -9.33049e-07
-1.30661e-08 -2.7118e-07 2.05797e-08
-4.12677e-08 5.58892e-08 -2.19981e-08
0.0 0.0 0.0
-1.19238e-08 1.77687e-08 2.20338e-08
1.066e-07 8.8467e-07 -2.35686e-07
1.82641e-21 5.26749e-21 0.0
-3.85123e-10 7.75288e-09 -5.73776e-09
5.30979e-07 2.49054e-07 -1.40394e-06
1.18386e-08 8.53592e-08 -1.33401e-06
2.91033e-08 3.27576e-08 -5.10874e-09
-4.72458e-06 -2.7102e-05 -6.87453e-06
1.20629e-08 6.0716e-08 9.71072e-08
-9.78927e-07 -5.82326e-06 8.23976e-07
-8.57919e-08 6.8294e-09 2.32694e-08
-7.21099e-10 -5.44519e-09 -1.07096e-08
-3.30404e-06 1.18618e-05 -1.32861e-05
-1.54821e-08 5.00128e-09 4.59706e-08
-1.74603e-07 -1.62018e-08 1.79902e-07
1.2783e-09 -1.7245e-08 -1.61674e-08
3.77963e-07 -1.30456e-06 7.33079e-08
-3.2024e-07 4.3494e-07 1.5369e-07
-1.48118e-09 -5.84845e-09 -1.1089e-08
2.83575e-10 1.20517e-08 4.94222e-09
-8.97526e-09 2.25649e-09 2.51116e-08
-2.99177e-07 -1.16138e-06 -1.6012e-06
-9.01362e-09 -2.58234e-08 4.19039e-08
-1.80161e-09 1.72398e-07 -2.41172e-07
-4.10927e-08 1.19179e-08 1.88169e-08
-2.38358e-09 -1.1918e-08 4.75692e-09
3.77459e-20 -2.59404e-20 8.25857e-21
3.72965e-07 -3.54531e-07 -1.26676e-07
0.0 0.0 -1.43822e-06
1.95735e-10 1.50686e-08 -7.93816e-09
-2.72352e-07 -1.68114e-07 9.10471e-07
-7.58359e-21 2.0117e-21 2.11758e-22
-4.7897e-09 -6.51544e-08 -1.77308e-08
6.47762e-07 8.42287e-06 3.46134e-06
-1.26705e-08 -2.66717e-08 -1.84413e-08
-1.56552e-06 1.09914e-07 2.8874e-06
0.0 0.0 0.0
0.0 0.0 -1.43822e-06
3.51275e-07 4.01895e-08 2.67807e-07
5.16523e-08 -6.02988e-08 3.42184e-08
-9.96538e-10 6.23347e-09 1.0785e-08
0.0 0.0 -1.43822e-06
2.83381e-06 -1.52477e-07 3.03593e-06
1.83231e-11 8.3161e-09 -1.22114e-08
-2.94348e-06 3.21329e-06 -1.93351e-06
-6.06293e-09 -4.8094e-08 -9.28922e-08
-8.47026e-09 -1.93076e-08 2.01603e-08
2.50601e-09 -6.66389e-07 -4.72949e-07
9.23531e-20 -5.41439e-20 6.35275e-22
-2.43528e-13 -5.10557e-10 -1.37005e-08
-1.77545e-07 1.05682e-07 -1.52945e-06
1.27348e-06 -1.23931e-06 -3.08361e-07
-7.90307e-05 0.00351731 -0.000431291
-4.95261e-10 9.25201e-09 -8.40537e-09
0.0 0.0 0.0
-1.92775e-07 -5.84068e-08 -1.36225e-07
-2.12117e-09 6.95189e-09 9.60012e-09
-1.41281e-05 -0.000677409 0.000828521
-4.02753e-07 -2.71063e-07 -2.8057e-06
1.33853e-08 2.28207e-07 1.8257e-07
1.50171e-08 -5.91663e-07 -1.18645e-06
6.00097e-07 -1.84704e-06 -4.7548e-08
0.0 0.0 -1.43822e-06
1.38427e-09 -9.95927e-09 1.46407e-09
4.74766e-08 1.62461e-08 2.06007e-09
1.85848e-08 2.88224e-08 -6.7212e-08
-1.5416e-07 1.04993e-06 -9.28583e-08
-6.42995e-07 2.30009e-07 -5.66255e-08
-2.03932e-09 1.2011e-08 5.26311e-09
2.88617e-10 -5.93592e-09 9.97653e-09
1.39933e-05 5.543e-05 0.000510686
2.3009e-06 -5.92325e-07 6.66509e-07
1.06972e-07 3.74103e-07 6.46601e-08
-1.96729e-08 -1.82838e-07 -1.54874e-07
0.0 0.0 -1.43822e-06
-1.91896e-07 1.44657e-07 -1.07282e-06
-6.60606e-06 3.72447e-06 -3.62002e-06
4.22201e-06 -2.71499e-06 1.00842e-06
1.66865e-07 2.64865e-07 3.98886e-08
1.06944e-08 -1.20462e-09 9.52533e-09
-8.51079e-10 1.07695e-08 4.31689e-09
5.92586e-08 -2.88048e-07 -1.31766e-07
-5.27306e-08 -4.78613e-07 -5.56965e-07
-9.67222e-10 -5.98768e-10 -1.19611e-08
0.0 0.0 0.0
-1.04086e-07 -1.09225e-06 -3.13303e-06
2.60575e-09 -2.21182e-08 2.1176e-08
1.41485e-07 4.85002e-08 -4.37268e-07
-2.37233e-09 7.22255e-09 1.21774e-08
0.0 0.0 -1.43822e-06
8.83504e-09 -3.41066e-08 -2.10641e-09
-7.26091e-08 -3.4979e-07 -3.76562e-07
1.23782e-07 -3.28496e-07 -4.8379e-07
-4.08786e-07 -8.57955e-08 -2.93775e-07
0.0 0.0 -1.43822e-06
-4.57934e-08 -4.01603e-07 -8.61907e-07
-9.48533e-08 -3.50377e-07 -3.84055e-07
-2.64358e-09 -1.72265e-08 1.39247e-09
2.64698e-23 -5.82335e-22 0.0
-1.4974e-14 -4.39366e-09 -1.62818e-08
1.7178e-07 9.79459e-08 -3.71149e-07
1.41281e-05 0.000677409 -0.000831397
1.76861e-06 1.84677e-06 2.17894e-06
-1.2346e-07 -4.16469e-08 -9.48305e-08
-2.21303e-08 -1.84407e-08 4.3573e-08
0.000258187 -0.000328687 2.15597e-05
5.05629e-06 -4.99324e-07 4.79007e-06
2.94239e-16 4.81892e-09 -1.28266e-08
3.24902e-05 1.1312e-05 3.42472e-05
0.0 0.0 -1.43822e-06
0.0 0.0 0.0
-3.7556e-06 1.19741e-05 -6.40461e-06
4.02321e-07 -4.35639e-07 1.09839e-07
-3.75875e-08 -1.06282e-08 5.08785e-09
4.8829e-06 -4.00344e-06 6.35641e-06
-1.41446e-08 3.20229e-08 -1.66214e-07
-3.29549e-21 6.21378e-21 -2.11758e-22
-2.44052e-08 2.5208e-08 -1.15205e-07
