# vtk DataFile Version 3.0
LIGGGHTS particles timestep 5800000
ASCII
DATASET POLYDATA
POINTS 222 float
0.0179246 0.0240273 0.0119946
0.0208499 0.0231292 0.0100986
0.0196796 0.0235769 0.0142312
0.0173619 0.015875 0.0146845
0.0270099 0.0212584 0.0152017
0.023429 0.0150679 0.0098621
0.0191981 0.0237117 0.0150967
0.0215915 0.0233652 0.012567
0.0188577 0.0244293 0.0137406
0.00938048 0.0183393 0.00587271
0.0155463 0.0229926 0.0135581
0.0191098 0.0143708 0.0138584
0.0366849 0.0218066 0.0435188
0.0202003 0.0200945 0.0166621
0.0293506 0.0150336 0.0102031
0.0179709 0.0242297 0.0134055
0.0252985 0.0216402 0.016702
0.0165258 0.0236447 0.0151733
0.0177994 0.0238913 0.0161635
0.0202471 0.0234022 0.0123975
0.0272075 0.0205953 0.0155203
0.0238489 0.0154234 0.0150224
0.0185227 0.0143886 0.0123253
0.01981 0.0244264 0.0136234
0.0172524 0.0141116 0.0144398
0.0229445 0.0207073 0.015624
0.0181072 0.014463 0.0138979
0.0132551 0.0200041 0.0166688
0.0226254 0.0151229 0.013598
0.0257547 0.0232229 0.0103424
0.0214528 0.0239121 0.0133956
0.0219885 0.0174237 0.0156341
0.0197103 0.0214372 0.00789761
0.0186846 0.0235885 0.0142469
0.0155392 0.0193048 0.015936
0.0158194 0.0180258 0.015836
0.010401 0.0298182 0.0375933
0.0214883 0.0240319 0.0144416
0.0156939 0.0228085 0.0167245
0.0258504 0.0185419 0.0167273
0.0152178 0.0211879 0.0154045
0.0196051 0.0193773 0.00612808
0.0277165 0.018256 0.0157208
0.0205219 0.0240096 0.0145376
0.0168292 0.0218504 0.0164536
0.0240628 0.0222509 0.0162617
0.0263538 0.0230475 0.00981098
0.0274092 0.0195223 0.0157863
0.0279516 0.0172403 0.0153663
0.0245814 0.0191438 0.0167317
0.0177555 0.014885 0.0130693
0.0205702 0.0241118 0.0131232
0.0268594 0.0363219 0.0607915
0.0187709 0.0198002 0.0168022
0.0386779 0.027598 0.0559965
0.0255935 0.0228705 0.00946264
0.0138873 0.0207616 0.016503
0.0191097 0.022731 0.0152689
0.0194195 0.0140084 0.0129565
0.0158781 0.0218088 0.0149843
0.0229286 0.017057 0.015489
0.0259393 0.023405 0.0112228
0.0281797 0.0160195 0.0145793
0.0288227 0.014843 0.0121086
0.0176675 0.0219596 0.01589
0.0229763 0.0233887 0.0143467
0.0253809 0.0224614 0.00888402
0.0186668 0.0220379 0.0158371
0.0181669 0.0142378 0.0148645
0.0169167 0.0241134 0.0143676
0.0176818 0.0210808 0.0163695
0.0217474 0.0230284 0.014706
0.0222225 0.0237127 0.0139318
0.0242307 0.0196786 0.0175903
0.0247635 0.0218734 0.015897
0.0153187 0.0202681 0.0157753
0.018768 0.024092 0.0128175
0.0214483 0.0168437 0.00645098
0.0237039 0.0176975 0.0157383
0.0168097 0.0147746 0.0127715
0.0160231 0.0223075 0.0159159
0.0180695 0.0154471 0.0140973
0.0187242 0.00288495 0.04339
0.0180633 0.0226711 0.0153087
0.0209109 0.0234729 0.011875
0.0183389 0.0226086 0.0165898
0.0175734 0.0230742 0.017098
0.0551067 0.0178697 0.00597491
0.0297739 0.0160799 0.00838723
0.0300384 0.0127234 0.0347848
0.0295235 0.0153449 0.00932336
0.0133415 0.0208194 0.0183592
0.0127108 0.0137913 0.024425
0.0303903 0.00406748 0.0435188
0.0149543 0.0222753 0.0171361
0.0164138 0.0156893 0.0144259
0.0246011 0.0202523 0.0166158
0.0201027 0.0144452 0.0139993
0.0236695 0.020614 0.0165132
0.0290636 0.0147464 0.0112089
0.0189026 0.0149017 0.0147009
0.0168462 0.021424 0.0155492
0.0153007 0.0229707 0.0156724
0.0257725 0.0197314 0.0167109
0.0301231 0.0171858 0.00761914
0.0198704 0.00980902 0.0266284
0.0285605 0.00673006 0.042108
0.0204127 0.0140576 0.0131158
0.0208379 0.0137675 0.0139779
0.0217853 0.0230208 0.0134458
0.0240338 0.0165739 0.015188
0.0232061 0.014852 0.0107372
0.0175232 0.0229304 0.0161093
0.0112399 0.0230971 0.0271045
0.0198623 0.0232097 0.0103152
0.0187061 0.023388 0.0159057
0.0166983 0.0228189 0.016666
0.0170245 0.0239653 0.013297
0.020916 0.020863 0.0165214
0.026747 0.0233887 0.0117038
0.0224114 0.0156923 0.0144347
0.0204019 0.0231091 0.014852
0.0152608 0.00547644 0.0382255
0.0168296 0.0236505 0.016126
0.0177021 0.0236024 0.0140932
0.0129002 0.0209081 0.0164312
0.0235889 0.0154915 0.00906844
0.0159123 0.0214524 0.016433
0.0247169 0.019866 0.00731546
0.0164498 0.0197221 0.0159075
0.0227515 0.0145923 0.0144382
0.0157411 0.0202376 0.0166915
0.0167483 0.0123086 0.0212552
0.0178378 0.0201265 0.0166295
0.0175723 0.0146209 0.0119395
0.025141 0.0214038 0.00815407
0.0252571 0.0176185 0.0165388
0.020468 0.0231132 0.013279
0.0221468 0.0149463 0.0152269
0.0254957 0.0206822 0.016494
0.021088 0.0152817 0.015272
0.024075 0.0225333 0.0153764
0.0224325 0.0226478 0.0140844
0.0171984 0.0141428 0.0134419
0.0139831 0.0224414 0.0155637
0.0177605 0.0188355 0.0176122
0.022231 0.022006 0.0148394
0.0231542 0.0216433 0.016019
0.0209647 0.0146838 0.0144513
0.0241899 0.0160263 0.00842016
0.01626 0.0236452 0.0170211
0.0233747 0.0154827 0.0141484
0.0242087 0.0176022 0.00743234
0.0173139 0.00511679 0.0562173
0.0184489 0.00930676 0.028544
0.0147091 0.0149965 0.0148765
0.0236893 0.0196183 0.0167157
0.0146412 0.0201271 0.0166733
0.0161201 0.0236496 0.0140261
0.0179742 0.0150454 0.0154262
0.0284486 0.0155798 0.0140352
0.0146876 0.0226396 0.0141223
0.0143159 0.0216447 0.0166943
0.0270201 0.0218835 0.0146179
0.016989 0.0151679 0.0136847
0.023446 0.0231301 0.0151041
0.0222866 0.00166856 0.0435188
-0.00539022 0.0312086 0.0604842
0.0197252 0.0215892 0.016102
0.0262407 0.0232831 0.0124536
0.015017 0.0210121 0.016369
0.0162171 0.0206851 0.0157554
0.0243502 0.0213171 0.0167185
0.0162981 0.0143258 0.0138372
0.013491 0.021692 0.0160588
0.028748 0.0165201 0.0149505
0.0149081 0.021995 0.0148505
0.0164668 0.0147378 0.0147326
0.0231785 0.0161568 0.0148786
0.0160404 0.0227894 0.015027
0.0172096 0.0240708 0.0169513
0.0145791 0.023072 0.0150044
0.0152733 0.0161454 0.0159132
0.0189166 0.0206669 0.00753878
0.0186608 0.0196259 0.0071983
0.00965086 0.0176775 0.0299119
0.0247396 0.0191312 0.00716653
0.108836 0.0200055 0.00584234
0.0186463 -0.00133331 0.0467921
0.0167231 0.0203992 0.0165986
0.0235943 0.0155174 0.0159812
0.0161898 0.0164312 0.0151054
0.0224832 0.0225904 0.0156109
0.0316195 -0.00640545 0.0658432
0.0169675 0.0219335 0.0174483
0.0168949 0.0224083 0.0154358
0.015987 0.0220106 0.0172648
0.02639 0.0206523 0.0224093
0.0171935 0.0205029 0.0157153
0.022638 0.0236588 0.0151395
0.0216798 0.0142942 0.0138343
0.0191516 0.0218012 0.00819418
0.0177932 0.0161026 0.00830778
0.0149771 0.0220451 0.0158541
0.0210053 0.0232713 0.0140767
0.0224223 -0.001406 0.0591326
0.0180275 0.0236513 0.01522
0.0143686 0.0236951 0.020192
0.0213917 0.0199635 0.0158485
0.00937694 0.00505359 0.0435188
0.0230614 0.0195269 0.0159297
0.0154904 0.014623 0.014376
0.0186828 0.0211595 0.0163145
0.0211266 0.0143251 0.0169918
0.0241522 0.0167686 0.0078264
0.0193305 0.0224283 0.0164762
0.0172884 0.0231003 0.0148437
0.0245849 0.0159266 0.0157165
0.0221952 0.0164166 0.0150915
0.0154158 0.0235136 0.0147078
0.024947 0.0190645 0.00586966
0.0200308 0.0234242 0.0114437

VERTICES 222 444
1 0
1 1
1 2
1 3
1 4
1 5
1 6
1 7
1 8
1 9
1 10
1 11
1 12
1 13
1 14
1 15
1 16
1 17
1 18
1 19
1 20
1 21
1 22
1 23
1 24
1 25
1 26
1 27
1 28
1 29
1 30
1 31
1 32
1 33
1 34
1 35
1 36
1 37
1 38
1 39
1 40
1 41
1 42
1 43
1 44
1 45
1 46
1 47
1 48
1 49
1 50
1 51
1 52
1 53
1 54
1 55
1 56
1 57
1 58
1 59
1 60
1 61
1 62
1 63
1 64
1 65
1 66
1 67
1 68
1 69
1 70
1 71
1 72
1 73
1 74
1 75
1 76
1 77
1 78
1 79
1 80
1 81
1 82
1 83
1 84
1 85
1 86
1 87
1 88
1 89
1 90
1 91
1 92
1 93
1 94
1 95
1 96
1 97
1 98
1 99
1 100
1 101
1 102
1 103
1 104
1 105
1 106
1 107
1 108
1 109
1 110
1 111
1 112
1 113
1 114
1 115
1 116
1 117
1 118
1 119
1 120
1 121
1 122
1 123
1 124
1 125
1 126
1 127
1 128
1 129
1 130
1 131
1 132
1 133
1 134
1 135
1 136
1 137
1 138
1 139
1 140
1 141
1 142
1 143
1 144
1 145
1 146
1 147
1 148
1 149
1 150
1 151
1 152
1 153
1 154
1 155
1 156
1 157
1 158
1 159
1 160
1 161
1 162
1 163
1 164
1 165
1 166
1 167
1 168
1 169
1 170
1 171
1 172
1 173
1 174
1 175
1 176
1 177
1 178
1 179
1 180
1 181
1 182
1 183
1 184
1 185
1 186
1 187
1 188
1 189
1 190
1 191
1 192
1 193
1 194
1 195
1 196
1 197
1 198
1 199
1 200
1 201
1 202
1 203
1 204
1 205
1 206
1 207
1 208
1 209
1 210
1 211
1 212
1 213
1 214
1 215
1 216
1 217
1 218
1 219
1 220
1 221

POINT_DATA 222
SCALARS id int 1
LOOKUP_TABLE default
1
2
3
4
5
7
9
11
13
15
16
17
18
19
20
23
24
25
26
27
28
29
30
31
32
33
34
35
36
37
40
41
43
44
45
47
49
50
51
52
54
57
59
62
63
64
65
67
68
71
73
74
75
76
78
79
80
83
84
85
86
87
88
89
90
91
92
93
95
97
98
99
102
103
104
105
106
108
109
110
111
112
113
114
116
117
118
121
122
124
125
126
127
128
130
131
132
133
134
135
137
138
139
141
142
143
144
145
147
148
149
150
151
152
153
154
155
157
158
160
161
163
164
165
166
167
170
171
173
174
175
177
179
183
184
185
186
187
191
192
193
194
197
199
200
201
203
205
206
208
211
214
215
217
218
220
221
223
224
225
226
227
228
229
230
231
232
234
235
237
239
240
241
242
246
247
248
249
250
251
252
253
254
255
256
257
258
260
261
262
263
264
265
266
267
268
269
270
271
272
273
274
275
276
277
279
280
282
283
284
285
286
288
289
291
293
294
295
296
298
299
300

SCALARS type int 1
LOOKUP_TABLE default
1
1
1
1
1
1
1
1
1
1
1
1
1
1
1
1
1
1
1
1
1
1
1
1
1
1
1
1
1
1
1
1
1
1
1
1
1
1
1
1
1
1
1
1
1
1
1
1
1
1
1
1
1
1
1
1
1
1
1
1
1
1
1
1
1
1
1
1
1
1
1
1
1
1
1
1
1
1
1
1
1
1
1
1
1
1
1
1
1
1
1
1
1
1
1
1
1
1
1
1
1
1
1
1
1
1
1
1
1
1
1
1
1
1
1
1
1
1
1
1
1
1
1
1
1
1
1
1
1
1
1
1
1
1
1
1
1
1
1
1
1
1
1
1
1
1
1
1
1
1
1
1
1
1
1
1
1
1
1
1
1
1
1
1
1
1
1
1
1
1
1
1
1
1
1
1
1
1
1
1
1
1
1
1
1
1
1
1
1
1
1
1
1
1
1
1
1
1
1
1
1
1
1
1
1
1
1
1
1
1
1
1
1
1
1
1
1
1
1
1
1
1

SCALARS radius float 1
LOOKUP_TABLE default
0.0005
0.0005
0.0005
0.0005
0.0005
0.0005
0.0005
0.0005
0.0005
0.0005
0.0005
0.0005
0.0005
0.0005
0.0005
0.0005
0.0005
0.0005
0.0005
0.0005
0.0005
0.0005
0.0005
0.0005
0.0005
0.0005
0.0005
0.0005
0.0005
0.0005
0.0005
0.0005
0.0005
0.0005
0.0005
0.0005
0.0005
0.0005
0.0005
0.0005
0.0005
0.0005
0.0005
0.0005
0.0005
0.0005
0.0005
0.0005
0.0005
0.0005
0.0005
0.0005
0.0005
0.0005
0.0005
0.0005
0.0005
0.0005
0.0005
0.0005
0.0005
0.0005
0.0005
0.0005
0.0005
0.0005
0.0005
0.0005
0.0005
0.0005
0.0005
0.0005
0.0005
0.0005
0.0005
0.0005
0.0005
0.0005
0.0005
0.0005
0.0005
0.0005
0.0005
0.0005
0.0005
0.0005
0.0005
0.0005
0.0005
0.0005
0.0005
0.0005
0.0005
0.0005
0.0005
0.0005
0.0005
0.0005
0.0005
0.0005
0.0005
0.0005
0.0005
0.0005
0.0005
0.0005
0.0005
0.0005
0.0005
0.0005
0.0005
0.0005
0.0005
0.0005
0.0005
0.0005
0.0005
0.0005
0.0005
0.0005
0.0005
0.0005
0.0005
0.0005
0.0005
0.0005
0.0005
0.0005
0.0005
0.0005
0.0005
0.0005
0.0005
0.0005
0.0005
0.0005
0.0005
0.0005
0.0005
0.0005
0.0005
0.0005
0.0005
0.0005
0.0005
0.0005
0.0005
0.0005
0.0005
0.0005
0.0005
0.0005
0.0005
0.0005
0.0005
0.0005
0.0005
0.0005
0.0005
0.0005
0.0005
0.0005
0.0005
0.0005
0.0005
0.0005
0.0005
0.0005
0.0005
0.0005
0.0005
0.0005
0.0005
0.0005
0.0005
0.0005
0.0005
0.0005
0.0005
0.0005
0.0005
0.0005
0.0005
0.0005
0.0005
0.0005
0.0005
0.0005
0.0005
0.0005
0.0005
0.0005
0.0005
0.0005
0.0005
0.0005
0.0005
0.0005
0.0005
0.0005
0.0005
0.0005
0.0005
0.0005
0.0005
0.0005
0.0005
0.0005
0.0005
0.0005
0.0005
0.0005
0.0005
0.0005
0.0005
0.0005
0.0005
0.0005
0.0005
0.0005
0.0005
0.0005

SCALARS mass float 1
LOOKUP_TABLE default
1.46608e-07
1.46608e-07
1.46608e-07
1.46608e-07
1.46608e-07
1.46608e-07
1.46608e-07
1.46608e-07
1.46608e-07
1.46608e-07
1.46608e-07
1.46608e-07
1.46608e-07
1.46608e-07
1.46608e-07
1.46608e-07
1.46608e-07
1.46608e-07
1.46608e-07
1.46608e-07
1.46608e-07
1.46608e-07
1.46608e-07
1.46608e-07
1.46608e-07
1.46608e-07
1.46608e-07
1.46608e-07
1.46608e-07
1.46608e-07
1.46608e-07
1.46608e-07
1.46608e-07
1.46608e-07
1.46608e-07
1.46608e-07
1.46608e-07
1.46608e-07
1.46608e-07
1.46608e-07
1.46608e-07
1.46608e-07
1.46608e-07
1.46608e-07
1.46608e-07
1.46608e-07
1.46608e-07
1.46608e-07
1.46608e-07
1.46608e-07
1.46608e-07
1.46608e-07
1.46608e-07
1.46608e-07
1.46608e-07
1.46608e-07
1.46608e-07
1.46608e-07
1.46608e-07
1.46608e-07
1.46608e-07
1.46608e-07
1.46608e-07
1.46608e-07
1.46608e-07
1.46608e-07
1.46608e-07
1.46608e-07
1.46608e-07
1.46608e-07
1.46608e-07
1.46608e-07
1.46608e-07
1.46608e-07
1.46608e-07
1.46608e-07
1.46608e-07
1.46608e-07
1.46608e-07
1.46608e-07
1.46608e-07
1.46608e-07
1.46608e-07
1.46608e-07
1.46608e-07
1.46608e-07
1.46608e-07
1.46608e-07
1.46608e-07
1.46608e-07
1.46608e-07
1.46608e-07
1.46608e-07
1.46608e-07
1.46608e-07
1.46608e-07
1.46608e-07
1.46608e-07
1.46608e-07
1.46608e-07
1.46608e-07
1.46608e-07
1.46608e-07
1.46608e-07
1.46608e-07
1.46608e-07
1.46608e-07
1.46608e-07
1.46608e-07
1.46608e-07
1.46608e-07
1.46608e-07
1.46608e-07
1.46608e-07
1.46608e-07
1.46608e-07
1.46608e-07
1.46608e-07
1.46608e-07
1.46608e-07
1.46608e-07
1.46608e-07
1.46608e-07
1.46608e-07
1.46608e-07
1.46608e-07
1.46608e-07
1.46608e-07
1.46608e-07
1.46608e-07
1.46608e-07
1.46608e-07
1.46608e-07
1.46608e-07
1.46608e-07
1.46608e-07
1.46608e-07
1.46608e-07
1.46608e-07
1.46608e-07
1.46608e-07
1.46608e-07
1.46608e-07
1.46608e-07
1.46608e-07
1.46608e-07
1.46608e-07
1.46608e-07
1.46608e-07
1.46608e-07
1.46608e-07
1.46608e-07
1.46608e-07
1.46608e-07
1.46608e-07
1.46608e-07
1.46608e-07
1.46608e-07
1.46608e-07
1.46608e-07
1.46608e-07
1.46608e-07
1.46608e-07
1.46608e-07
1.46608e-07
1.46608e-07
1.46608e-07
1.46608e-07
1.46608e-07
1.46608e-07
1.46608e-07
1.46608e-07
1.46608e-07
1.46608e-07
1.46608e-07
1.46608e-07
1.46608e-07
1.46608e-07
1.46608e-07
1.46608e-07
1.46608e-07
1.46608e-07
1.46608e-07
1.46608e-07
1.46608e-07
1.46608e-07
1.46608e-07
1.46608e-07
1.46608e-07
1.46608e-07
1.46608e-07
1.46608e-07
1.46608e-07
1.46608e-07
1.46608e-07
1.46608e-07
1.46608e-07
1.46608e-07
1.46608e-07
1.46608e-07
1.46608e-07
1.46608e-07
1.46608e-07
1.46608e-07
1.46608e-07
1.46608e-07
1.46608e-07
1.46608e-07
1.46608e-07
1.46608e-07
1.46608e-07
1.46608e-07
1.46608e-07
1.46608e-07
1.46608e-07
1.46608e-07
1.46608e-07
1.46608e-07
1.46608e-07
1.46608e-07
1.46608e-07
1.46608e-07

VECTORS velocity float
-0.00012158 0.00160249 -0.00794246
0.000120757 -0.00137929 -0.00874836
-0.00115499 -0.00588565 0.00375962
0.0049084 0.00617297 -0.00158716
0.0016431 0.0140625 -0.00930339
0.000473311 -0.00838245 0.0166535
-0.00532001 -0.00196123 0.0028365
-0.00070608 0.00110646 0.000518306
-0.000172314 -0.000317061 0.000142646
3.64473e-15 5.47506e-16 -3.69009e-14
8.54816e-06 6.12984e-05 -0.000658101
0.00609377 -0.000698073 -0.00395534
-9.6879e-317 9.73506e-317 2.68131e-13
4.03499e-10 0.0242663 -0.00509099
0.000326699 -0.0057158 0.0203074
-0.000132325 0.000574382 -0.000743416
-0.00143484 0.000348693 -0.00242115
-0.000396354 -0.000378936 0.00128675
0.00014415 1.4673e-05 -0.000209072
0.000501456 0.00201781 -0.0123584
0.000845027 0.01769 -0.00612729
0.00290613 0.00257008 0.00306847
0.00498698 0.0355816 -0.0590769
0.000583988 -0.00541161 0.00373598
0.0161196 -0.0151147 0.00495903
-0.000428638 0.0213376 -0.00855812
0.0069014 0.0059216 0.00731299
-0.00272382 0.0020094 0.00163221
0.00336811 0.00361724 0.00416155
0.000518716 -0.00526874 -0.019032
-0.000764589 6.04465e-05 0.000722801
0.000377106 0.0132566 0.00526664
0.00226023 -0.0144771 -0.00819949
-0.00191795 -0.00195141 -0.00186847
0.00475405 0.00124453 -0.000430543
0.000510068 0.020118 0.00494498
-0.14997 0.0302562 0.285038
-0.000561889 -0.00129454 0.00154025
0.00429665 -0.00187345 -0.00951051
-0.00260231 0.0136644 0.00126647
0.00267944 0.000741236 -0.00367505
-3.58973e-14 1.60969e-14 -3.28527e-13
0.000375509 0.0194854 0.00613095
-0.000514569 -0.00332779 0.00421414
0.00951041 -0.000425664 -0.000131334
0.000473626 0.00121076 -0.00108657
0.00621573 -0.00571986 -0.0152723
0.000391591 0.0209839 -0.002209
-8.38688e-06 0.0195056 0.0102926
0.0106587 0.0198264 0.000482695
0.00184085 0.00334331 0.00977065
-0.000132816 -0.000684015 -0.000518253
0.108503 0.25166 0.62871
0.0259087 0.0473625 -0.0283562
0.260898 0.0704636 0.48721
0.00264309 -0.00450452 -0.0104451
0.00103153 0.0015731 -0.00112038
-0.004 -0.00301259 0.00308587
-5.27017e-05 0.0010684 -0.00177377
0.00231349 -0.000518895 -0.000420688
9.86764e-06 0.0125386 0.00629941
0.000641074 -0.000274853 -0.0215141
0.00193234 0.014461 0.0111738
0.000259262 0.00240743 0.0144555
0.00340411 -0.00185989 0.00247544
4.73347e-05 0.000282244 -0.000929902
0.0020883 -0.00976634 -0.0102493
-0.00301506 -0.00382457 0.00540624
0.00252318 0.00297888 0.00586436
-0.000272123 0.000224804 -0.00018646
-0.000392514 -0.00293574 0.00432683
-0.00549033 0.00325682 0.000834348
-0.000432329 0.000419267 0.000788817
0.0221423 -0.00606511 0.0157549
-2.67994e-05 0.00701749 -0.00614347
0.00272134 0.00518172 -0.00223275
3.99364e-05 -0.000102754 -0.000186587
-2.40042e-14 5.08269e-14 1.84334e-13
0.000674686 0.00916707 0.00205103
3.20802e-05 0.00508443 0.0194057
0.00143916 -0.00471054 -0.0158134
-0.000117411 0.00738899 0.0102817
-0.091057 -0.124991 0.296606
-0.000771453 -0.000434739 -0.00174378
0.00169067 -0.000643282 -0.00141646
0.00576336 0.0117597 -0.00243398
0.00321918 0.00650819 -0.00317306
9.81268e-15 1.33731e-14 1.89988e-13
0.000243213 -0.0151775 0.0142526
0.00431789 -0.130087 0.141219
0.000732134 -0.0089915 0.0169696
-0.179843 -0.0432171 -0.201326
-0.0852566 0.0906257 -0.0667453
-9.67556e-317 -9.75879e-317 -3.22607e-12
0.00550174 0.0013462 -0.00692427
0.00373414 0.0047727 0.00355673
-0.0178049 0.00828058 -0.00207277
0.00439772 0.00264609 0.00440498
-0.00911551 0.0163316 -0.00711571
0.00155488 -0.0019973 0.0121514
0.00516888 0.00440513 0.00470438
0.00535551 7.21799e-05 0.00443401
-0.000938549 -0.000238192 0.000130737
8.87348e-08 0.0245218 -0.00324692
-0.000309442 -0.0228142 0.00817667
-0.10106 -0.0150613 0.0275561
-0.018256 -0.124026 0.287409
-0.0002428 0.000283899 -0.000773844
0.00528475 0.00360638 -0.00598822
-0.00132722 0.000404111 0.00428402
0.00256163 0.00953581 0.00674044
-6.10184e-05 -0.0062058 0.0195713
-0.00120422 0.000452815 0.00046506
0.118928 -0.0849186 -0.387417
-0.00022258 0.00263393 0.000949645
0.000797928 0.00427915 0.00191221
0.00298872 -0.00142868 -0.00201347
-0.000105158 8.367e-05 -0.000151749
0.0342063 0.0122697 -0.132495
-3.04092e-05 0.00131256 -0.0209764
0.00310587 0.00517384 0.00644863
0.00103689 -0.00571046 0.0122774
-0.129118 -0.0319349 0.146029
-0.000653483 0.000998417 0.000320917
-0.000768176 0.00122405 -0.00185247
0.000827058 0.00398443 0.000559206
0.000238653 -0.0116607 0.0169082
0.00667367 0.00642611 -0.00628295
0.000126719 -0.0203747 -0.00519594
0.00475978 -0.00234989 0.00199981
-0.018375 0.00234743 0.00147241
0.00731047 -0.0107182 0.00142291
-0.0820551 0.0636564 -0.0954924
-0.00655779 -0.00779619 -0.000683196
-7.00397e-09 0.000998711 -0.00165806
0.00254183 -0.0172284 -0.0163689
-0.00308557 -0.00601481 -0.00323644
0.00539478 0.00548137 -0.00505811
-0.0850398 -0.000185184 0.00893864
-0.00471235 -0.011019 0.00526994
-0.0233211 0.083478 -0.0258826
0.000223594 -4.12894e-05 -0.000998673
0.000499207 0.00386098 -0.0028193
0.00861399 -0.00402334 0.00633736
-0.042225 -0.0376984 0.0284484
-0.0994558 -0.0443375 -0.206115
-0.00261721 0.0200806 -0.0180602
-0.0347512 0.0493724 -0.0369742
0.00474056 0.00639047 0.00693509
-0.000465744 -0.0120655 0.0104318
0.00235968 0.00104148 -0.00131128
0.00348009 0.00273813 0.00306121
6.90848e-05 -0.0211522 0.00614349
-0.0736365 -0.354309 0.550396
-0.005633 0.0532445 -0.00981114
0.0023916 0.000121973 -0.00382503
-0.00184609 0.00711079 0.000524646
0.00378004 0.00447594 -0.000965825
-0.000343651 -0.00029517 0.000428369
0.0309578 0.00457573 0.0248051
0.0015941 0.00821822 0.0140342
0.00539302 0.00292647 0.000711897
0.00278158 0.00112668 0.0016561
0.000124886 0.0141635 -0.0141702
-0.00188786 0.00963854 0.0182589
0.00389562 0.00147425 -0.00323027
-1.19437e-301 -9.44146e-301 -3.22607e-12
-0.506693 0.171868 0.608326
-0.000870304 0.0268919 -0.0151529
0.000334178 0.00462628 -0.0199366
0.00452883 0.00651023 -0.00254406
0.00383803 0.000683469 -0.000694169
-0.000646448 0.0039422 0.00674399
0.00486339 -0.000725932 -0.00504009
-0.00307631 -0.00569521 0.000833701
0.000391987 0.0165537 0.0118453
0.00364093 0.00183875 -0.00169845
0.011627 0.00169748 -0.00750857
0.00300164 0.00715062 0.00539421
0.00136649 -0.00117426 0.00363361
0.00184546 0.000385603 -0.000164259
-0.000852551 0.000738986 0.000544868
0.005776 -0.0284599 -0.0162269
0.000163584 -0.0195588 -0.00808985
0.00116606 -0.0184824 -0.00251408
0.0219908 -0.013846 -0.0550135
0.000273198 -0.0202069 0.00110104
7.54832e-16 -1.26241e-15 -6.97758e-15
-0.0600786 -0.466784 0.34446
0.00815588 0.00189784 -0.00182652
2.3008e-06 -3.5461e-06 0.00100904
0.00143218 0.0131517 0.0101814
-0.00109194 -0.0297139 -0.0240606
0.194486 -0.559015 0.759287
0.00736712 0.0101539 -0.00725254
-0.000633674 0.000604487 -0.00274564
0.0065817 0.00443389 -0.0115111
-0.00949671 -0.0337394 -0.162246
0.00432252 -0.00407893 -0.00012765
0.0024669 7.33153e-05 0.000431869
0.00866058 -0.000151842 0.000703871
-9.11438e-05 -0.0133797 -0.0128364
0.000431468 -0.014419 0.0137678
-0.00628125 -0.000312352 -0.00847205
-0.00334215 -0.00742214 0.00745207
-0.0199872 -0.222828 0.528858
-0.000240514 -2.77438e-06 -0.000795448
-0.0330396 -0.0625058 -0.0365441
0.000392473 0.0208582 -0.00434744
-9.68799e-317 -9.69932e-317 9.23294e-13
-0.00250739 0.0194842 -0.00240063
0.00356398 -0.00169611 -0.00167898
-0.00194854 -0.00576635 0.00513289
0.00710963 0.0663016 -0.121023
-8.12232e-05 -0.0170341 0.0110219
0.0171424 0.0480236 -0.043602
-0.000687188 0.00121728 -0.00254664
-0.00197866 -0.00120769 0.000691152
0.00408931 0.00786886 0.00390172
-0.000701614 -0.000545361 -0.000133837
2.60457e-15 4.49202e-16 -4.25291e-14
0.00274322 -0.00241799 -0.0143182

VECTORS force float
2.0187e-08 2.00957e-08 -5.56704e-08
-1.53018e-08 -1.15748e-08 8.3621e-09
-2.00062e-06 -3.77704e-06 7.79837e-06
0.0 0.0 -1.43822e-06
3.54659e-09 -7.40018e-09 -2.52048e-08
-2.45986e-09 3.67536e-08 1.21996e-08
-9.72321e-06 2.86698e-07 8.76894e-06
-1.30452e-07 1.05408e-06 -5.1462e-06
-9.05465e-07 1.29983e-06 -5.56127e-07
5.02926e-22 -2.84881e-21 0.0
4.41378e-07 -2.14993e-07 1.00196e-07
0.0 0.0 -1.43822e-06
0.0 0.0 0.0
4.25463e-12 -3.63849e-09 -1.6524e-08
-2.03297e-08 -4.98657e-09 4.46948e-08
-1.2528e-06 9.95427e-07 1.63261e-06
2.43318e-05 -2.37189e-06 5.99111e-06
-2.98472e-06 2.9842e-06 9.14129e-07
-6.30111e-07 3.05047e-08 -7.22632e-07
-5.93327e-06 1.17921e-05 3.00774e-06
-3.3916e-08 3.02909e-09 1.29667e-08
4.96214e-06 4.9084e-06 7.2749e-07
-2.96916e-08 4.0645e-07 -6.74839e-07
-4.67035e-06 1.23339e-05 -2.08779e-05
1.24545e-06 -1.10272e-06 2.20418e-06
7.22604e-08 -4.26159e-08 -1.53639e-09
-7.28444e-06 2.49529e-07 1.37852e-06
4.08714e-06 -2.68946e-06 1.53815e-06
-1.06213e-06 -5.42456e-07 4.65541e-06
2.28184e-08 -3.02447e-09 5.40399e-09
-2.57479e-06 5.11978e-06 1.69148e-06
-2.30877e-08 1.00327e-07 3.44163e-08
-1.58131e-08 -1.81633e-08 -5.27549e-09
1.12641e-07 4.58124e-06 -4.58172e-07
-5.53581e-08 1.04892e-06 -2.51584e-08
-1.75875e-10 4.31545e-09 -1.33434e-08
2.76989e-07 -2.67919e-07 -9.33143e-07
-6.80374e-06 -1.86116e-06 -4.4513e-07
2.79304e-07 -3.06976e-07 -8.2759e-07
7.18949e-08 3.99189e-07 4.04121e-08
1.28233e-05 9.67104e-06 3.11391e-06
-2.88521e-21 -6.31304e-21 2.11758e-22
-1.55329e-05 3.1709e-06 -4.56263e-06
-5.57758e-06 -1.52032e-06 3.78554e-06
5.71499e-06 2.83235e-06 -3.45479e-06
-2.74408e-06 -3.417e-06 3.41575e-06
-1.23119e-08 -1.30725e-08 -1.45657e-08
-5.87172e-09 1.47863e-08 -1.02379e-08
-1.0975e-09 8.5649e-09 -8.35193e-09
-8.30697e-07 4.42243e-07 -8.09895e-08
-1.52408e-06 -3.28229e-06 -5.22976e-06
-1.41484e-06 3.20368e-06 4.37084e-06
0.0 0.0 -1.43822e-06
0.0 0.0 -1.43822e-06
0.0 0.0 -1.43822e-06
2.28804e-08 1.36881e-08 5.62305e-08
-5.3075e-08 7.84563e-07 -7.3849e-07
-2.63226e-06 1.62231e-06 6.12267e-06
-1.1675e-10 -1.70281e-08 2.82932e-08
8.16059e-06 -8.49998e-06 8.52631e-06
-8.4614e-10 7.57789e-09 -2.78326e-08
5.12045e-09 -1.02786e-08 4.02114e-09
-2.27551e-08 2.24014e-08 3.04284e-08
-3.41345e-10 4.85217e-09 -3.85013e-09
0.0 0.0 -1.43822e-06
-5.07697e-06 -2.21354e-06 3.25974e-06
-1.13984e-09 -1.9236e-07 -5.49923e-08
-2.85466e-06 -1.32995e-06 3.28766e-06
2.13556e-09 1.73963e-06 2.45921e-06
-1.53621e-06 -6.81202e-07 1.36679e-06
0.0 0.0 -1.43822e-06
0.0 0.0 -1.43822e-06
-2.16235e-06 -2.04297e-06 -6.18928e-06
0.0 0.0 -1.43822e-06
-2.56633e-06 7.45407e-07 -1.02896e-06
4.14171e-06 1.67435e-06 1.44509e-06
-1.45954e-06 4.31428e-08 1.60159e-06
-1.41428e-19 7.93564e-20 -3.7693e-20
-4.32298e-08 9.98018e-08 4.23551e-08
1.11422e-06 -2.38665e-06 -7.40881e-06
0.0 0.0 -1.43822e-06
6.98871e-09 -3.85406e-07 -5.34353e-07
0.0 0.0 -1.43822e-06
-2.45509e-07 6.65506e-06 -5.35045e-06
-1.68302e-06 -1.78681e-07 2.12523e-06
9.71942e-07 -2.23536e-07 9.77383e-07
0.0 0.0 -1.43822e-06
1.09558e-19 -1.63054e-20 -4.23516e-21
-5.44944e-10 3.31908e-09 1.20356e-08
0.0 0.0 -1.43822e-06
-6.349e-09 -2.54379e-09 2.74297e-08
0.0 0.0 -1.43822e-06
0.0 0.0 -1.43822e-06
0.0 0.0 0.0
2.09279e-07 -4.82379e-07 -8.22158e-07
2.54221e-07 -1.72905e-07 -2.59679e-07
1.7224e-06 7.29087e-07 -2.6332e-08
-1.05341e-07 -5.25714e-07 -5.81605e-07
2.21336e-07 4.56008e-07 -1.11435e-07
-3.40171e-10 3.33658e-08 4.98418e-08
-1.45091e-07 -3.99728e-07 -5.43141e-07
-1.41145e-06 8.61206e-06 -4.8823e-06
-6.39556e-07 -6.53805e-06 6.28997e-06
-3.724e-10 -2.04069e-08 -1.46918e-08
-3.29737e-09 6.29839e-09 -1.69235e-08
1.24354e-07 3.82069e-07 -1.02193e-06
0.0 0.0 -1.43822e-06
-6.89476e-09 -1.83774e-08 5.6125e-08
-4.2887e-07 5.35319e-07 -7.53017e-07
2.69615e-06 7.61404e-06 -2.34733e-05
-1.55815e-07 -5.08894e-08 -3.01169e-08
-1.2387e-08 1.93192e-08 -4.1835e-08
-1.14463e-06 7.61099e-07 -3.06003e-06
0.0 0.0 -1.43822e-06
2.31247e-08 7.33355e-08 2.33687e-07
-5.6728e-08 2.01205e-08 -1.68528e-06
0.0 0.0 -1.43822e-06
-8.63603e-07 -8.5442e-07 3.23e-07
0.0 0.0 -1.43822e-06
-1.30789e-09 -9.53793e-09 -6.01326e-09
9.76955e-07 3.9974e-07 2.95976e-07
4.28033e-06 -6.78448e-06 1.17338e-05
5.27238e-07 4.81961e-07 -1.28706e-06
6.93448e-08 6.27182e-08 -9.87122e-07
-1.38929e-06 3.95433e-07 1.26502e-06
1.67098e-06 -3.5108e-06 6.11969e-07
-1.23129e-09 6.468e-09 9.14373e-09
9.84854e-07 5.05367e-06 3.1526e-06
9.1182e-07 -4.20329e-06 -8.53449e-07
-1.52666e-07 1.00313e-06 -3.52539e-07
0.0 0.0 -1.43822e-06
-2.51543e-05 -5.70764e-06 -1.80567e-06
0.0 0.0 -1.43822e-06
0.0 0.0 -1.43822e-06
2.02676e-10 -1.84685e-08 3.06698e-08
-5.85811e-08 9.39696e-08 3.59406e-08
1.62955e-08 1.57265e-07 8.38315e-08
-5.85215e-06 -4.73554e-06 -5.89374e-06
0.0 0.0 -1.43822e-06
-2.35611e-06 3.42332e-06 -2.88683e-06
0.0 0.0 -1.43822e-06
-1.36063e-05 -2.86448e-06 9.22105e-07
5.7773e-07 3.28516e-08 -2.56899e-06
-1.03067e-07 -6.16141e-07 3.16224e-06
0.0 0.0 -1.43822e-06
0.0 0.0 -1.43822e-06
1.32645e-07 2.89662e-07 -3.28472e-07
0.0 0.0 -1.43822e-06
-1.23077e-07 -4.20813e-07 -7.23159e-07
3.63295e-08 -6.50929e-08 2.77303e-07
0.0 0.0 -1.43822e-06
3.37643e-06 -1.08198e-06 -2.30643e-06
-1.5425e-09 -3.81537e-09 1.23994e-08
0.0 0.0 -1.43822e-06
0.0 0.0 -1.43822e-06
3.60183e-07 6.09586e-07 8.57843e-07
0.0 0.0 -1.43822e-06
-1.97271e-07 1.09921e-06 -2.15502e-07
-6.88207e-07 -7.75615e-07 6.30569e-07
0.0 0.0 -1.43822e-06
-9.49189e-09 5.0964e-08 2.83193e-08
-1.63845e-06 3.17619e-07 -3.28952e-06
-4.10155e-06 2.16797e-06 -2.6829e-06
-1.14934e-08 -1.35873e-09 -1.08139e-08
0.0 0.0 -1.43822e-06
-5.15618e-05 -2.52461e-05 1.78019e-05
-2.20058e-304 -1.73956e-303 0.0
0.0 0.0 -1.43822e-06
-2.5314e-08 1.25827e-07 -1.66386e-07
2.63041e-09 -1.1408e-08 -4.22936e-09
-2.73361e-06 7.23092e-07 4.7077e-07
7.34199e-06 1.0301e-06 2.24072e-06
4.58098e-07 5.87487e-07 -1.03193e-06
1.67931e-07 -5.52166e-10 -9.9314e-08
6.21732e-07 9.58369e-07 -4.19629e-07
3.38146e-09 1.45698e-08 -3.89758e-09
2.45362e-06 1.95097e-05 -8.11745e-06
3.36089e-07 -1.06655e-08 -3.04681e-07
-1.58312e-07 -2.72371e-07 -2.1952e-07
1.59983e-05 -1.37827e-05 1.56802e-05
-1.21269e-07 -3.47692e-07 -1.2938e-06
-9.89252e-07 -1.6336e-06 -6.13085e-07
0.0 0.0 -1.43822e-06
-7.30444e-10 -9.33377e-09 6.91828e-09
-7.9249e-09 -2.86846e-08 9.02091e-09
0.0 0.0 -1.43822e-06
1.76354e-06 -1.49444e-05 6.66188e-06
3.59989e-21 4.76456e-22 2.11758e-22
0.0 0.0 -1.43822e-06
2.51543e-05 5.70764e-06 -1.07077e-06
4.92446e-06 2.83732e-06 1.78848e-06
-2.36212e-09 1.43554e-08 -1.03726e-10
0.0 0.0 -1.43822e-06
0.0 0.0 -1.43822e-06
0.0 0.0 -1.43822e-06
-1.1197e-05 1.84431e-05 9.02627e-06
0.0 0.0 -1.43822e-06
0.0 0.0 -1.43822e-06
2.68616e-06 -3.92127e-06 1.75326e-08
-3.03823e-05 4.15919e-06 -1.04643e-05
0.0 0.0 -1.43822e-06
2.91807e-09 -2.42301e-09 2.19371e-08
-3.91273e-09 -3.05769e-09 1.97104e-08
1.11935e-05 -6.73253e-06 1.83815e-06
-9.39099e-06 -9.67778e-06 3.9375e-06
0.0 0.0 -1.43822e-06
-2.2705e-06 4.61064e-06 -9.3067e-07
3.98439e-07 -1.50262e-07 -9.31363e-07
-6.82102e-10 -1.46752e-12 -1.52237e-08
0.0 0.0 0.0
0.0 0.0 -1.43822e-06
-5.53728e-08 2.97804e-08 -2.06262e-07
-4.38635e-07 -2.48314e-06 -6.03776e-07
0.0 0.0 -1.43822e-06
5.80876e-09 -2.00893e-08 1.90424e-08
-6.2306e-08 1.62242e-07 -1.1914e-06
-6.26624e-06 1.08814e-05 3.76241e-06
-1.11614e-07 -5.95078e-08 -4.49907e-08
0.0 0.0 -1.43822e-06
-1.50881e-06 -1.75637e-06 -6.37233e-08
-1.32349e-21 5.27907e-21 0.0
-1.26311e-05 8.44804e-06 -6.94041e-06
