# vtk DataFile Version 3.0
LIGGGHTS particles timestep 23800000
ASCII
DATASET POLYDATA
POINTS 108 float
0.0211508 0.0141418 0.0134826
0.0234667 0.0231792 0.0129172
0.0173833 0.0146339 0.0119925
0.0552529 0.0189972 0.0058882
0.00938048 0.0183393 0.00587271
0.0260391 0.0196534 0.00594246
0.0428257 0.0227003 0.00919069
0.0366849 0.0218066 0.0435188
0.0479536 0.0195271 0.00720167
0.0414927 0.017432 0.00751771
0.0339249 0.0173116 0.00624552
0.000591717 0.0149731 0.0435188
0.0456757 0.0157604 0.0143118
0.0364748 0.0208476 0.00623738
0.0310777 0.0232083 0.0102643
0.0442873 0.0215712 0.0149883
0.0271668 0.017747 0.0155381
0.0359833 0.0196947 0.0073989
0.0209898 0.0187712 0.0159351
0.003617 0.0285782 0.0435188
0.0860181 0.0183082 0.00577269
0.0177449 0.0174882 0.00600758
0.0465628 0.0149525 0.0106574
-0.00755281 0.0215382 0.0451892
0.0229167 0.0151817 0.0136851
0.112778 0.0179068 0.0059233
0.0459506 0.0152362 0.01347
0.0452523 0.0173614 0.00620617
0.0349285 0.0181778 0.00592251
0.0371216 0.0232572 0.0105024
0.0301285 0.0201806 0.00735153
0.0551402 0.017971 0.00596606
0.0386019 0.0200731 0.0156646
0.0445658 0.0204145 0.0155223
0.0438024 0.0229075 0.013464
0.0470594 0.0159641 0.00856751
0.03664 0.0222164 0.00858952
0.0434648 0.0233367 0.0120122
0.0255694 0.0233042 0.0123297
0.0421222 0.0201024 0.00730337
0.0214483 0.0168437 0.00645098
0.0317588 0.0229616 0.0132351
0.0399797 0.0151338 0.0132618
0.0586827 0.0172628 0.00598816
0.0792478 0.0194315 0.00576454
0.0187287 0.0223042 0.00884251
0.0482717 0.0207707 0.00756706
0.0303903 0.00406748 0.0435188
0.0340108 0.0150184 0.0129221
0.0486008 0.0222116 0.0085361
0.0438472 0.0171169 0.00621343
0.0463427 0.019144 0.00717887
0.0473953 0.0193073 0.0059321
0.0383012 0.0214072 0.0148999
0.0342874 0.0148161 0.0117936
0.0490801 0.0231908 0.0105389
0.0423792 0.0213029 0.00786158
0.0392725 0.0171336 0.0153324
0.0584376 0.0191695 0.00582359
0.0192631 0.0233616 0.0110401
0.0173675 0.0142909 0.0129316
0.020084 0.0201843 0.0061153
0.0461801 0.0148262 0.0120779
0.0221348 0.00230077 0.0435188
0.201805 0.0186174 0.00570934
0.0411393 0.0161623 0.00836229
0.0282523 0.0147933 0.011803
0.0830234 0.0186618 0.00583976
0.0274267 0.0162222 0.0146828
0.067984 0.0193424 0.00575613
0.0432961 0.0233869 0.0112978
0.0417665 0.0188003 0.00719407
0.0404386 0.0148011 0.0110717
0.0278363 0.0154827 0.0138103
0.0253029 0.02045 0.00590518
0.0396954 0.0158842 0.0143014
0.0425792 0.0220805 0.00841215
0.029141 0.0161571 0.00832199
0.0383457 0.0197753 0.00590075
0.026935 0.0188837 0.00598981
0.0313695 0.0233673 0.0115934
0.0468824 0.0154924 0.0092485
0.0352602 0.0164434 0.00807728
0.0449328 0.0187191 0.0157935
0.0221996 0.00109062 0.0435188
0.0447338 0.0195232 0.0157634
0.0354841 0.0174482 0.00747745
0.0336897 0.0157357 0.014261
0.0477367 0.0186731 0.00725066
0.0561606 0.0173315 0.00595822
0.0895649 0.0187731 0.00575225
0.0325974 0.019958 0.0156921
0.0322372 0.0215931 0.0149288
0.0431066 0.0232095 0.0104873
0.108836 0.0200055 0.00584234
0.0266536 0.0198689 0.0157316
0.0364414 0.0217049 0.00806746
0.0328442 0.0189972 0.0158309
0.0384458 0.0207573 0.0153838
0.0220219 0.0149672 0.0132937
0.0332138 0.0174697 0.0154714
0.0288716 0.0154327 0.00919207
0.00937694 0.00505359 0.0435188
0.0457039 0.018685 0.00600217
0.0303937 0.0214517 0.0078649
0.0239893 0.0191578 0.00594089
0.0254808 0.018723 0.00589902
0.0413139 0.0166592 0.00792434

VERTICES 108 216
1 0
1 1
1 2
1 3
1 4
1 5
1 6
1 7
1 8
1 9
1 10
1 11
1 12
1 13
1 14
1 15
1 16
1 17
1 18
1 19
1 20
1 21
1 22
1 23
1 24
1 25
1 26
1 27
1 28
1 29
1 30
1 31
1 32
1 33
1 34
1 35
1 36
1 37
1 38
1 39
1 40
1 41
1 42
1 43
1 44
1 45
1 46
1 47
1 48
1 49
1 50
1 51
1 52
1 53
1 54
1 55
1 56
1 57
1 58
1 59
1 60
1 61
1 62
1 63
1 64
1 65
1 66
1 67
1 68
1 69
1 70
1 71
1 72
1 73
1 74
1 75
1 76
1 77
1 78
1 79
1 80
1 81
1 82
1 83
1 84
1 85
1 86
1 87
1 88
1 89
1 90
1 91
1 92
1 93
1 94
1 95
1 96
1 97
1 98
1 99
1 100
1 101
1 102
1 103
1 104
1 105
1 106
1 107

POINT_DATA 108
SCALARS id int 1
LOOKUP_TABLE default
1
2
4
5
15
16
17
18
20
24
25
27
28
32
33
37
41
44
47
49
52
57
59
62
63
65
67
68
73
74
76
79
84
87
88
89
90
92
97
103
108
109
112
121
122
124
125
128
130
131
133
135
137
139
141
142
143
147
149
150
157
158
160
161
165
166
167
173
174
179
185
186
187
191
193
194
197
200
205
215
225
226
227
229
232
237
241
242
247
252
253
256
257
258
260
268
269
270
271
274
275
277
284
288
291
294
299
300

SCALARS type int 1
LOOKUP_TABLE default
1
1
1
1
1
1
1
1
1
1
1
1
1
1
1
1
1
1
1
1
1
1
1
1
1
1
1
1
1
1
1
1
1
1
1
1
1
1
1
1
1
1
1
1
1
1
1
1
1
1
1
1
1
1
1
1
1
1
1
1
1
1
1
1
1
1
1
1
1
1
1
1
1
1
1
1
1
1
1
1
1
1
1
1
1
1
1
1
1
1
1
1
1
1
1
1
1
1
1
1
1
1
1
1
1
1
1
1

SCALARS radius float 1
LOOKUP_TABLE default
0.0005
0.0005
0.0005
0.0005
0.0005
0.0005
0.0005
0.0005
0.0005
0.0005
0.0005
0.0005
0.0005
0.0005
0.0005
0.0005
0.0005
0.0005
0.0005
0.0005
0.0005
0.0005
0.0005
0.0005
0.0005
0.0005
0.0005
0.0005
0.0005
0.0005
0.0005
0.0005
0.0005
0.0005
0.0005
0.0005
0.0005
0.0005
0.0005
0.0005
0.0005
0.0005
0.0005
0.0005
0.0005
0.0005
0.0005
0.0005
0.0005
0.0005
0.0005
0.0005
0.0005
0.0005
0.0005
0.0005
0.0005
0.0005
0.0005
0.0005
0.0005
0.0005
0.0005
0.0005
0.0005
0.0005
0.0005
0.0005
0.0005
0.0005
0.0005
0.0005
0.0005
0.0005
0.0005
0.0005
0.0005
0.0005
0.0005
0.0005
0.0005
0.0005
0.0005
0.0005
0.0005
0.0005
0.0005
0.0005
0.0005
0.0005
0.0005
0.0005
0.0005
0.0005
0.0005
0.0005
0.0005
0.0005
0.0005
0.0005
0.0005
0.0005
0.0005
0.0005
0.0005
0.0005
0.0005
0.0005

SCALARS mass float 1
LOOKUP_TABLE default
1.46608e-07
1.46608e-07
1.46608e-07
1.46608e-07
1.46608e-07
1.46608e-07
1.46608e-07
1.46608e-07
1.46608e-07
1.46608e-07
1.46608e-07
1.46608e-07
1.46608e-07
1.46608e-07
1.46608e-07
1.46608e-07
1.46608e-07
1.46608e-07
1.46608e-07
1.46608e-07
1.46608e-07
1.46608e-07
1.46608e-07
1.46608e-07
1.46608e-07
1.46608e-07
1.46608e-07
1.46608e-07
1.46608e-07
1.46608e-07
1.46608e-07
1.46608e-07
1.46608e-07
1.46608e-07
1.46608e-07
1.46608e-07
1.46608e-07
1.46608e-07
1.46608e-07
1.46608e-07
1.46608e-07
1.46608e-07
1.46608e-07
1.46608e-07
1.46608e-07
1.46608e-07
1.46608e-07
1.46608e-07
1.46608e-07
1.46608e-07
1.46608e-07
1.46608e-07
1.46608e-07
1.46608e-07
1.46608e-07
1.46608e-07
1.46608e-07
1.46608e-07
1.46608e-07
1.46608e-07
1.46608e-07
1.46608e-07
1.46608e-07
1.46608e-07
1.46608e-07
1.46608e-07
1.46608e-07
1.46608e-07
1.46608e-07
1.46608e-07
1.46608e-07
1.46608e-07
1.46608e-07
1.46608e-07
1.46608e-07
1.46608e-07
1.46608e-07
1.46608e-07
1.46608e-07
1.46608e-07
1.46608e-07
1.46608e-07
1.46608e-07
1.46608e-07
1.46608e-07
1.46608e-07
1.46608e-07
1.46608e-07
1.46608e-07
1.46608e-07
1.46608e-07
1.46608e-07
1.46608e-07
1.46608e-07
1.46608e-07
1.46608e-07
1.46608e-07
1.46608e-07
1.46608e-07
1.46608e-07
1.46608e-07
1.46608e-07
1.46608e-07
1.46608e-07
1.46608e-07
1.46608e-07
1.46608e-07
1.46608e-07

VECTORS velocity float
-0.00805803 -0.00230692 -0.00537625
0.000213367 0.00563895 -0.0182729
0.000149238 -0.000185441 0.000376401
-1.32466e-17 -1.81195e-17 -2.57127e-16
3.64562e-15 5.38999e-16 -3.69009e-14
2.09856e-14 3.38095e-15 -3.42138e-13
2.31665e-05 -0.0108504 -0.0198169
-9.6879e-317 9.73506e-317 2.68131e-13
0.00119133 -0.0173844 -0.00233685
0.00041614 -0.0177738 0.00683108
-7.7193e-16 -9.46348e-15 -2.80519e-14
9.71467e-317 9.75789e-317 -8.23806e-13
0.00095685 0.0121591 0.0138547
4.37159e-15 -1.48265e-14 6.83465e-14
0.000438537 -0.00635885 -0.0196763
0.00134833 0.0145673 -0.0113893
-0.000152759 0.0201391 0.00885428
9.92705e-05 -0.0219787 -0.00382683
0.000506673 0.0207568 0.00127151
-9.68849e-317 -9.75601e-317 2.88878e-12
-1.25643e-15 3.6708e-14 1.26767e-13
2.62646e-15 1.02273e-14 2.1281e-14
-9.47517e-05 -0.00548638 0.0214795
-0.151759 0.0802562 -0.322551
0.0061189 0.00394476 0.00650282
8.19706e-16 3.43636e-15 1.42027e-14
0.000182074 0.00946598 0.0195459
-3.11669e-15 -1.74687e-14 -1.20236e-13
6.35447e-16 6.72271e-15 2.00025e-14
0.00105457 -0.00482805 -0.0160304
0.000184177 -0.019788 -0.00515551
-2.82244e-15 -3.83404e-15 -5.46135e-14
0.00322597 0.012176 -0.00165877
-0.000457842 0.0211724 -0.00560956
0.000727398 0.00722259 -0.0163098
0.000408837 -0.0142637 0.0148472
0.001748 -0.0101756 -0.0133534
0.00253056 0.00147453 -0.0130823
0.000695884 0.00320334 -0.019804
0.000657001 -0.0198656 -0.00445819
-2.41518e-14 5.0803e-14 1.84321e-13
-0.000412138 0.00985356 -0.0197115
0.00132202 0.00745166 0.0145372
1.03758e-14 -2.15379e-14 -2.65e-13
1.17818e-14 4.01848e-14 1.70237e-13
-0.000108461 -0.0129277 -0.0179938
0.000107701 -0.0195509 -0.00909359
-9.67556e-317 -9.75879e-317 -3.22607e-12
9.32888e-05 0.00718406 0.0190355
0.000196483 -0.013615 -0.0175572
5.56157e-16 -1.53923e-15 -8.51164e-15
-0.000806157 -0.00090511 -0.00137317
4.73246e-15 -1.01806e-14 -1.05707e-13
0.0023209 0.0123263 -0.00837254
-0.000519695 -0.000691604 0.0225211
0.00269927 -0.00398668 -0.0112412
0.000158242 -0.0178626 -0.0118345
0.00149393 0.0147392 0.00676222
8.0978e-15 -1.68471e-14 -2.07265e-13
0.00103031 -0.00318134 -0.0178529
0.000121548 -0.000168356 0.000348752
5.51692e-15 -2.47859e-15 5.04897e-14
7.34275e-05 0.00269264 0.0210822
9.74157e-317 -9.69799e-317 9.23294e-13
-3.8561e-20 -4.95312e-22 8.61844e-22
0.00253263 -0.00352038 0.00205647
0.00143015 0.00226204 0.0170977
1.15514e-14 3.23629e-14 -1.3906e-13
0.00278586 0.0152917 0.00906416
3.8779e-15 7.53977e-15 2.61625e-13
0.00242331 -0.0015769 -0.0125843
0.00258606 -0.0105394 0.00210725
0.000394655 -0.00141287 0.020456
0.00079788 0.0104376 0.0182826
-2.07804e-14 -3.34849e-15 3.38791e-13
2.82453e-05 0.0140416 0.0164444
0.000789162 -0.0138206 -0.0127963
0.00120335 -0.0114405 0.0104267
6.04229e-15 -2.89643e-14 1.43231e-13
1.4303e-14 2.30414e-15 -2.33189e-13
0.000180914 0.000758908 -0.0214337
0.00127373 -0.00924411 0.0164257
0.00031367 -0.0160769 0.0110452
0.00129365 0.0172118 0.0015838
9.58743e-317 9.68145e-317 4.97437e-14
0.000537675 0.0197695 -0.0032389
0.00023671 -0.0184111 0.00801162
0.000936998 0.00852919 0.0114767
0.000114715 -0.020468 0.000909785
1.40302e-14 1.90628e-14 2.71525e-13
-1.31581e-14 1.89212e-14 2.53776e-13
0.00039353 0.018401 -0.00479527
6.61821e-05 0.0192528 -0.0124539
0.000696128 -0.00564217 -0.0176556
7.53175e-16 -1.27688e-15 -6.97501e-15
6.90917e-05 0.0222152 -0.0036124
0.0024024 -0.00718752 -0.00631202
0.0017941 0.0130067 -0.000137935
0.00147027 0.0153746 -0.00791033
0.0011438 0.00685975 0.0162916
0.000148059 0.0194993 0.0075586
0.00393056 -0.00278929 -0.00135267
-9.68799e-317 -9.69932e-317 9.23294e-13
-6.99196e-15 -3.90002e-14 -2.68502e-13
0.000935252 -0.0134754 -0.00917993
-8.43717e-15 -1.73181e-14 -5.67606e-14
-2.07741e-14 -3.39412e-15 3.38791e-13
0.0028682 -0.00858108 0.00338577

VECTORS force float
-1.66575e-08 -2.15354e-08 2.31188e-08
-2.61437e-09 -8.19462e-09 -1.00287e-08
5.86301e-09 -1.64542e-08 5.36292e-08
-7.94093e-23 0.0 0.0
-8.73503e-22 -2.14405e-21 -2.11758e-22
-6.61744e-23 5.21124e-22 0.0
-3.43641e-10 -1.1805e-08 3.45203e-09
0.0 0.0 0.0
2.83267e-09 7.20831e-09 1.49429e-08
5.97806e-09 3.25993e-08 -6.35321e-09
-5.6785e-19 1.56172e-20 1.07997e-20
0.0 0.0 0.0
-7.92735e-09 3.90483e-08 1.59219e-08
-1.11041e-20 -4.76456e-22 6.35275e-22
-6.25598e-09 -1.06073e-08 -9.95154e-09
-1.52875e-08 2.68756e-08 -2.54887e-08
5.82111e-07 4.61146e-07 -1.54802e-07
4.90817e-07 2.64963e-07 1.13255e-07
-1.04652e-10 9.45375e-10 -1.56807e-08
0.0 0.0 0.0
-1.83402e-20 -3.70577e-22 2.11758e-22
-1.72054e-21 -1.90582e-21 1.05879e-21
-1.49623e-09 1.03161e-08 5.86175e-09
0.0 0.0 -1.43822e-06
-1.43628e-08 -1.22911e-08 -9.72105e-09
-3.66606e-21 -2.64698e-21 6.35275e-22
-1.89117e-09 1.23907e-08 6.19055e-10
8.66157e-20 -2.36375e-20 1.05879e-21
-8.14607e-21 -1.58819e-22 2.11758e-22
-8.62966e-09 -1.63211e-08 -2.3266e-08
5.01135e-10 -8.99124e-09 1.11784e-08
0.0 1.32349e-23 -2.11758e-22
3.06296e-05 -1.82461e-05 1.52262e-06
6.95e-09 2.79903e-09 -1.25353e-08
-7.1923e-09 1.39091e-09 -2.46754e-08
-3.32828e-09 -1.31422e-09 1.30521e-08
1.21096e-08 1.79913e-08 3.17941e-08
1.72773e-08 -1.53505e-08 4.54736e-08
-9.27547e-09 7.58199e-10 -2.19206e-08
-1.0487e-08 -2.03625e-08 2.56839e-09
-1.54239e-19 3.11179e-19 -1.08208e-19
4.16367e-08 -4.03058e-08 8.40067e-08
-9.14845e-09 2.73609e-08 2.77627e-08
1.3182e-20 9.22472e-21 -2.11758e-22
-1.22264e-19 1.05614e-19 -1.63054e-20
-6.75675e-10 -9.97925e-09 3.84979e-09
-6.85058e-10 -9.02328e-09 7.70831e-09
0.0 0.0 0.0
-2.21655e-11 1.27958e-08 1.54798e-09
5.6393e-08 7.06148e-08 1.10548e-07
-1.18174e-19 -3.18167e-20 -1.69407e-21
2.3541e-05 1.16343e-05 2.72006e-06
-1.35658e-20 -1.0932e-20 4.23516e-22
-2.02256e-07 -2.50153e-07 1.65065e-07
3.9383e-09 1.20686e-08 3.57206e-09
-1.26587e-08 -7.28723e-09 -4.42333e-08
-1.5707e-09 -1.0758e-08 4.89459e-09
-1.18969e-08 2.36298e-09 5.91808e-09
-3.66673e-20 1.47437e-20 -2.75286e-21
-6.8329e-09 -1.24002e-08 -4.13882e-08
-5.34798e-09 -2.24827e-08 5.78871e-08
-7.94093e-22 1.01512e-20 6.35275e-22
-6.10431e-10 1.16715e-08 2.80586e-09
0.0 0.0 0.0
0.0 0.0 0.0
-2.04723e-08 5.59114e-09 -1.02032e-09
-9.97007e-09 1.19204e-08 3.05128e-08
-2.4339e-20 -1.90582e-21 -2.32934e-21
2.81033e-08 9.5528e-08 2.05102e-08
-3.15222e-20 1.40555e-20 0.0
7.648e-09 -8.32581e-09 -7.92806e-09
-4.05386e-07 -2.01787e-07 -1.55464e-07
-1.57191e-09 1.00488e-08 7.80238e-09
-3.24132e-08 3.25943e-08 1.10051e-08
3.97047e-23 -3.34181e-22 0.0
-7.07173e-10 1.11091e-08 -3.29267e-09
-2.94159e-09 -1.60116e-08 1.31376e-09
4.45338e-09 6.50556e-09 -2.65482e-08
5.2608e-19 -2.23405e-20 -2.68933e-20
1.05879e-22 8.30489e-22 0.0
-1.52618e-09 -1.12269e-08 -7.23725e-09
-8.79554e-09 -7.12396e-10 2.63347e-08
1.2385e-09 1.21905e-07 -4.48593e-08
-7.09397e-09 1.08832e-08 -1.0804e-08
0.0 0.0 0.0
-2.59287e-09 5.067e-09 -8.87711e-09
-1.67613e-09 -5.18382e-09 1.37077e-08
7.33174e-09 -1.25205e-08 -3.286e-08
2.05144e-08 3.15827e-08 -3.14973e-09
2.24993e-22 7.14684e-22 0.0
3.25274e-19 4.07476e-19 -1.41878e-20
-1.45892e-09 6.83238e-09 -1.42062e-08
-5.8083e-10 -4.29622e-09 -1.08324e-08
-3.03668e-09 -5.56165e-09 -1.03958e-08
0.0 5.29396e-23 0.0
-2.68947e-09 8.37423e-09 -1.21655e-08
4.0293e-09 4.83998e-08 2.56994e-08
-1.77352e-07 1.18898e-07 1.21146e-07
5.15117e-06 -1.83861e-06 -1.22342e-06
1.34862e-09 1.44662e-08 -1.26398e-08
-4.64665e-10 9.84148e-09 -7.90978e-09
2.19161e-07 2.69254e-07 -2.35475e-07
0.0 0.0 0.0
-4.10811e-20 6.27334e-21 2.11758e-22
1.38648e-09 -8.89711e-09 6.86268e-09
3.23196e-20 -1.59348e-20 0.0
7.54389e-20 -5.34274e-19 -6.35275e-22
1.18959e-08 5.35757e-08 -6.81446e-08
