# vtk DataFile Version 3.0
LIGGGHTS particles timestep 9800000
ASCII
DATASET POLYDATA
POINTS 159 float
0.0165805 0.014232 0.0136312
0.0220969 0.0144402 0.0140185
0.0209069 0.0228503 0.0152985
0.0302536 0.0155765 0.014042
0.0241478 0.0160634 0.0147956
0.0221763 0.023713 0.0139407
0.0202642 0.0241575 0.0131942
0.00938048 0.0183393 0.00587271
0.0219366 0.0228958 0.00947125
0.0283877 0.0227504 0.0136401
0.0366849 0.0218066 0.0435188
0.0219751 0.0232658 0.0177823
0.0330437 0.0217311 0.00810328
0.0189966 0.0244599 0.0137264
0.0272265 0.0223406 0.00866133
0.0205165 0.0146466 0.0141001
0.0185223 0.0149868 0.0134153
0.0307391 0.0148732 0.0120432
0.0187385 0.0147131 0.0124777
0.0209133 0.0242441 0.0140009
0.0183818 0.0223551 0.0144696
0.0169431 0.0234059 0.0124469
0.0189315 0.0147261 0.0113122
0.0294103 0.0190012 0.015812
0.0169997 0.0223341 0.0144973
0.0198654 0.016439 0.0150983
0.0145618 0.0213462 0.0162284
0.0230192 0.0229192 0.0137169
0.0179319 0.0233894 0.0144647
0.003617 0.0285782 0.0435188
0.0311766 0.0150579 0.0127475
0.0204071 0.0161619 0.00827234
0.0196051 0.0193773 0.00612808
0.0313301 0.0152438 0.00940817
0.0196243 0.0146132 0.0120244
0.019514 0.0238906 0.0161251
0.0328065 0.0177064 0.00738836
0.0309368 0.014786 0.0112745
0.0316044 0.0159327 0.00862843
0.0162392 0.0232535 0.0130041
0.0160522 0.023738 0.0143146
0.0233662 0.0152662 0.0151922
0.0234989 0.0203401 0.0157689
0.0291519 0.0200175 0.0156956
0.0183471 0.0229217 0.0136586
0.0209096 0.0214571 0.00801126
0.0247604 0.0147638 0.0120348
0.0199537 0.0236809 0.0140234
0.020438 0.0158159 0.0156351
0.0296253 0.0177937 0.0156406
0.0317819 0.0166099 0.00792328
0.032433 0.0192126 0.00729912
0.0213377 0.0154928 0.0153339
0.0289186 0.0209427 0.0153385
0.0164535 0.0228809 0.0138479
0.0168469 0.0217364 0.0153596
0.0275664 0.0231953 0.0101749
0.0237057 0.0217153 0.0150635
0.0199098 0.0229074 0.0150379
0.0214483 0.0168437 0.00645098
0.0218601 0.0234063 0.0112653
0.0238141 0.0173746 0.0156148
0.0261427 0.0180156 0.00732019
0.0170685 0.023934 0.0143869
0.0551527 0.0181697 0.00595147
0.0333902 0.0229026 0.0095052
0.019773 0.0165958 0.00795567
0.0332284 0.0223731 0.00869669
0.0183568 0.0240777 0.0129516
0.0303903 0.00406748 0.0435188
0.0203869 0.0177957 0.00737979
0.0274902 0.0208875 0.00763022
0.0204991 0.0143699 0.0124432
0.0326043 0.0202478 0.00742451
0.0235892 0.0185524 0.0159281
0.0152545 0.0226087 0.0153909
0.0235757 0.022515 0.0144765
0.0188446 0.0236085 0.0140804
0.0341737 0.0231269 0.0129177
0.0277954 0.0233832 0.0110062
0.0213363 0.0210688 0.0077482
0.0242571 0.0209441 0.0155246
0.0570019 0.0175547 0.00590579
0.0193545 0.0136806 0.0135008
0.0197066 0.0148536 0.0129915
0.0193395 0.0241002 0.0128852
0.0230571 0.0234145 0.0147104
0.0311198 0.0149348 0.0103428
0.0221348 0.00230077 0.0435188
0.0152016 0.0233021 0.0146542
0.0266556 0.020413 0.00743373
0.023142 0.016036 0.0158223
0.0190959 0.0159498 0.0146811
0.0149435 0.0222131 0.0171626
0.0142936 0.0221827 0.0157181
0.0193238 0.0153187 0.0139128
0.0243448 0.0153325 0.0136939
0.0222197 0.0151433 0.0150184
0.0287818 0.021596 0.0150043
0.0273778 0.0228219 0.00932589
0.0263675 0.0189585 0.007168
0.0222419 0.0232193 0.0130736
0.0203381 0.0187434 0.00722688
0.0262978 0.0171279 0.00763179
0.0279913 0.0233197 0.0120511
0.0212169 0.0239759 0.0130932
0.0168991 0.0239057 0.0133843
0.0229726 0.02115 0.0154339
0.0281637 0.0231597 0.0128653
0.0157852 0.0145245 0.014162
0.0184873 0.0139643 0.0130916
0.0268146 0.0190088 0.00598366
0.0212873 0.0228048 0.00935372
0.0204907 0.0149756 0.0150443
0.0141725 0.0190731 0.016742
0.0186177 0.0170007 0.0154617
0.0319843 0.0175906 0.00744667
0.0180862 0.0162872 0.015
0.0239541 0.019572 0.0165129
0.0301044 0.0161709 0.0147092
0.0221996 0.00109062 0.0435188
0.0186259 0.0232083 0.0154853
0.029867 0.0169232 0.0152393
0.0232545 0.0189943 0.0191979
0.0187555 0.0216803 0.0150981
0.0175293 0.0140998 0.0133445
0.0174423 0.0231444 0.0153123
0.032835 0.0211633 0.00772519
0.0173978 0.022891 0.0137346
0.0193315 0.0237382 0.0149764
0.0140079 -0.020039 0.00160229
0.0201681 0.0156233 0.0143542
0.017497 0.0234696 0.0117204
0.0203342 0.01388 0.0134845
0.0250707 0.0202988 0.0157803
0.0286226 0.0221964 0.0143862
0.108836 0.0200055 0.00584234
0.0225979 0.0224568 0.0143666
0.0229406 0.0146928 0.014492
0.0173282 0.0145478 0.0142156
0.0212769 0.0142133 0.0134932
0.0196038 0.0158605 0.00861077
0.0248595 0.0166224 0.0152206
0.0214507 0.0218996 0.0159344
0.0213736 0.0148106 0.0146013
0.0183092 0.0155336 0.0142254
0.0178171 0.023281 0.0128609
0.0217407 0.0232384 0.0147067
0.0143573 0.0229315 0.0150522
0.0240636 0.0225523 0.0154705
0.00937694 0.00505359 0.0435188
0.0161645 0.0231352 0.0164444
0.0177741 0.0243263 0.0137257
0.0191705 0.0150108 0.0101102
0.0177914 0.0219149 0.0151324
0.0246717 0.0218183 0.015778
0.0195542 0.0183858 0.0178103
0.024947 0.0190645 0.00586966
0.0270141 0.0215775 0.00805425

VERTICES 159 318
1 0
1 1
1 2
1 3
1 4
1 5
1 6
1 7
1 8
1 9
1 10
1 11
1 12
1 13
1 14
1 15
1 16
1 17
1 18
1 19
1 20
1 21
1 22
1 23
1 24
1 25
1 26
1 27
1 28
1 29
1 30
1 31
1 32
1 33
1 34
1 35
1 36
1 37
1 38
1 39
1 40
1 41
1 42
1 43
1 44
1 45
1 46
1 47
1 48
1 49
1 50
1 51
1 52
1 53
1 54
1 55
1 56
1 57
1 58
1 59
1 60
1 61
1 62
1 63
1 64
1 65
1 66
1 67
1 68
1 69
1 70
1 71
1 72
1 73
1 74
1 75
1 76
1 77
1 78
1 79
1 80
1 81
1 82
1 83
1 84
1 85
1 86
1 87
1 88
1 89
1 90
1 91
1 92
1 93
1 94
1 95
1 96
1 97
1 98
1 99
1 100
1 101
1 102
1 103
1 104
1 105
1 106
1 107
1 108
1 109
1 110
1 111
1 112
1 113
1 114
1 115
1 116
1 117
1 118
1 119
1 120
1 121
1 122
1 123
1 124
1 125
1 126
1 127
1 128
1 129
1 130
1 131
1 132
1 133
1 134
1 135
1 136
1 137
1 138
1 139
1 140
1 141
1 142
1 143
1 144
1 145
1 146
1 147
1 148
1 149
1 150
1 151
1 152
1 153
1 154
1 155
1 156
1 157
1 158

POINT_DATA 159
SCALARS id int 1
LOOKUP_TABLE default
1
2
4
5
7
11
13
15
16
17
18
19
20
23
24
25
27
28
29
31
32
33
35
37
40
41
43
44
47
49
52
54
57
59
62
63
65
67
68
71
73
74
76
79
80
83
84
85
86
87
88
89
90
92
97
102
103
105
106
108
109
110
112
116
121
122
124
125
126
128
130
131
133
135
137
138
139
141
142
143
145
147
149
150
151
157
158
160
161
165
166
167
170
171
173
174
177
179
185
186
187
191
193
194
197
199
200
201
205
206
211
215
220
221
224
225
226
227
228
229
232
235
237
240
241
242
246
247
248
250
251
252
253
256
257
258
260
262
263
268
269
270
271
272
273
274
275
277
282
283
284
286
288
289
291
294
298
299
300

SCALARS type int 1
LOOKUP_TABLE default
1
1
1
1
1
1
1
1
1
1
1
1
1
1
1
1
1
1
1
1
1
1
1
1
1
1
1
1
1
1
1
1
1
1
1
1
1
1
1
1
1
1
1
1
1
1
1
1
1
1
1
1
1
1
1
1
1
1
1
1
1
1
1
1
1
1
1
1
1
1
1
1
1
1
1
1
1
1
1
1
1
1
1
1
1
1
1
1
1
1
1
1
1
1
1
1
1
1
1
1
1
1
1
1
1
1
1
1
1
1
1
1
1
1
1
1
1
1
1
1
1
1
1
1
1
1
1
1
1
1
1
1
1
1
1
1
1
1
1
1
1
1
1
1
1
1
1
1
1
1
1
1
1
1
1
1
1
1
1

SCALARS radius float 1
LOOKUP_TABLE default
0.0005
0.0005
0.0005
0.0005
0.0005
0.0005
0.0005
0.0005
0.0005
0.0005
0.0005
0.0005
0.0005
0.0005
0.0005
0.0005
0.0005
0.0005
0.0005
0.0005
0.0005
0.0005
0.0005
0.0005
0.0005
0.0005
0.0005
0.0005
0.0005
0.0005
0.0005
0.0005
0.0005
0.0005
0.0005
0.0005
0.0005
0.0005
0.0005
0.0005
0.0005
0.0005
0.0005
0.0005
0.0005
0.0005
0.0005
0.0005
0.0005
0.0005
0.0005
0.0005
0.0005
0.0005
0.0005
0.0005
0.0005
0.0005
0.0005
0.0005
0.0005
0.0005
0.0005
0.0005
0.0005
0.0005
0.0005
0.0005
0.0005
0.0005
0.0005
0.0005
0.0005
0.0005
0.0005
0.0005
0.0005
0.0005
0.0005
0.0005
0.0005
0.0005
0.0005
0.0005
0.0005
0.0005
0.0005
0.0005
0.0005
0.0005
0.0005
0.0005
0.0005
0.0005
0.0005
0.0005
0.0005
0.0005
0.0005
0.0005
0.0005
0.0005
0.0005
0.0005
0.0005
0.0005
0.0005
0.0005
0.0005
0.0005
0.0005
0.0005
0.0005
0.0005
0.0005
0.0005
0.0005
0.0005
0.0005
0.0005
0.0005
0.0005
0.0005
0.0005
0.0005
0.0005
0.0005
0.0005
0.0005
0.0005
0.0005
0.0005
0.0005
0.0005
0.0005
0.0005
0.0005
0.0005
0.0005
0.0005
0.0005
0.0005
0.0005
0.0005
0.0005
0.0005
0.0005
0.0005
0.0005
0.0005
0.0005
0.0005
0.0005
0.0005
0.0005
0.0005
0.0005
0.0005
0.0005

SCALARS mass float 1
LOOKUP_TABLE default
1.46608e-07
1.46608e-07
1.46608e-07
1.46608e-07
1.46608e-07
1.46608e-07
1.46608e-07
1.46608e-07
1.46608e-07
1.46608e-07
1.46608e-07
1.46608e-07
1.46608e-07
1.46608e-07
1.46608e-07
1.46608e-07
1.46608e-07
1.46608e-07
1.46608e-07
1.46608e-07
1.46608e-07
1.46608e-07
1.46608e-07
1.46608e-07
1.46608e-07
1.46608e-07
1.46608e-07
1.46608e-07
1.46608e-07
1.46608e-07
1.46608e-07
1.46608e-07
1.46608e-07
1.46608e-07
1.46608e-07
1.46608e-07
1.46608e-07
1.46608e-07
1.46608e-07
1.46608e-07
1.46608e-07
1.46608e-07
1.46608e-07
1.46608e-07
1.46608e-07
1.46608e-07
1.46608e-07
1.46608e-07
1.46608e-07
1.46608e-07
1.46608e-07
1.46608e-07
1.46608e-07
1.46608e-07
1.46608e-07
1.46608e-07
1.46608e-07
1.46608e-07
1.46608e-07
1.46608e-07
1.46608e-07
1.46608e-07
1.46608e-07
1.46608e-07
1.46608e-07
1.46608e-07
1.46608e-07
1.46608e-07
1.46608e-07
1.46608e-07
1.46608e-07
1.46608e-07
1.46608e-07
1.46608e-07
1.46608e-07
1.46608e-07
1.46608e-07
1.46608e-07
1.46608e-07
1.46608e-07
1.46608e-07
1.46608e-07
1.46608e-07
1.46608e-07
1.46608e-07
1.46608e-07
1.46608e-07
1.46608e-07
1.46608e-07
1.46608e-07
1.46608e-07
1.46608e-07
1.46608e-07
1.46608e-07
1.46608e-07
1.46608e-07
1.46608e-07
1.46608e-07
1.46608e-07
1.46608e-07
1.46608e-07
1.46608e-07
1.46608e-07
1.46608e-07
1.46608e-07
1.46608e-07
1.46608e-07
1.46608e-07
1.46608e-07
1.46608e-07
1.46608e-07
1.46608e-07
1.46608e-07
1.46608e-07
1.46608e-07
1.46608e-07
1.46608e-07
1.46608e-07
1.46608e-07
1.46608e-07
1.46608e-07
1.46608e-07
1.46608e-07
1.46608e-07
1.46608e-07
1.46608e-07
1.46608e-07
1.46608e-07
1.46608e-07
1.46608e-07
1.46608e-07
1.46608e-07
1.46608e-07
1.46608e-07
1.46608e-07
1.46608e-07
1.46608e-07
1.46608e-07
1.46608e-07
1.46608e-07
1.46608e-07
1.46608e-07
1.46608e-07
1.46608e-07
1.46608e-07
1.46608e-07
1.46608e-07
1.46608e-07
1.46608e-07
1.46608e-07
1.46608e-07
1.46608e-07
1.46608e-07
1.46608e-07
1.46608e-07
1.46608e-07
1.46608e-07
1.46608e-07
1.46608e-07

VECTORS velocity float
0.000292417 -0.000981156 0.00121495
0.000106298 1.34761e-05 -0.000191165
0.13308 -0.0331424 0.00664587
0.000246444 0.00962771 0.0159667
0.00353105 0.00434514 0.00311827
-0.00787417 0.00221221 -0.00324008
-0.000642815 -0.0045731 0.00204386
3.64306e-15 5.67028e-16 -3.69008e-14
0.000514966 -0.00208538 -0.00322501
-0.000121018 0.0122124 -0.0184598
-9.6879e-317 9.73506e-317 2.68131e-13
0.190479 -0.0116307 -0.0364708
0.000963886 -0.00725944 -0.00720026
0.00169237 -0.000583802 0.000395327
0.000634813 -0.0127332 -0.0143978
-0.00211969 0.00315621 -0.00489346
0.00656501 0.00314328 -0.00737204
0.001731 0.00354806 0.0174367
0.00655448 -0.00104694 -0.00563195
-0.000203238 -8.73706e-05 -0.000232565
0.00504064 0.00114136 -0.0021105
0.00380357 -0.000993513 0.000580737
3.51964e-05 -0.00248046 0.0234693
0.237492 0.0722015 0.00258034
0.00631891 0.0141203 -0.0155495
-0.00126061 0.00212818 0.00271173
-5.72338e-09 0.0222144 -0.0108748
0.00301499 -0.00558119 0.00296348
-0.00936575 -0.00514422 0.00162429
-9.68849e-317 -9.75601e-317 2.88878e-12
-0.00113261 0.0166486 0.0295485
0.00162158 -0.0121394 0.00791855
-3.58925e-14 1.61025e-14 -3.28528e-13
0.00112434 -0.00833512 0.0160908
0.0129734 0.000476959 0.00999051
0.0281401 -0.0120058 0.0225012
0.000551105 -0.0192015 0.00694099
0.0014491 -0.00127094 0.0173375
0.158334 -0.10127 -0.0719364
0.0036196 7.39518e-05 -0.00317965
0.0179153 0.033673 0.041244
0.00297766 -0.000631262 -0.00191293
-0.00863145 0.0154941 -0.00517164
0.000363481 0.019834 -0.00507492
0.00720621 0.00029291 -0.00317034
3.21518e-05 -0.0175422 -0.0125119
0.00142799 0.00294242 0.0142561
0.116362 0.0109765 -0.00885308
-0.00572146 -0.0126647 -0.00796462
0.000385567 0.0196009 0.00581356
0.00258731 -0.029253 -0.0128441
-8.07442e-05 -0.0220241 -0.00220499
-0.00395787 -0.00395555 -0.0029347
0.000539246 0.0185707 -0.00854502
0.00441386 0.00277916 -0.00124469
-8.40041e-05 0.026193 -0.00634671
0.000212723 -0.0068774 -0.0175751
0.0142563 -0.00601991 0.000837457
0.088943 -0.0323023 0.0426568
-2.38773e-14 5.08884e-14 1.84333e-13
0.000977761 -0.000407777 -0.0173936
0.000639031 0.0187534 0.00759434
0.000318193 -0.0201986 0.00471201
0.00745968 0.00748926 0.00450389
-1.30035e-14 -1.76928e-14 -2.51653e-13
0.00015738 -0.00956478 -0.0182435
-7.18555e-05 -0.0168641 0.011844
0.00105428 -0.00646792 -0.0087476
-0.00103748 -0.000383203 0.000598065
-9.67556e-317 -9.75879e-317 -3.22607e-12
0.000334597 -0.0159125 0.00404802
0.000180601 -0.0187384 -0.00827303
0.0246753 0.00893964 -0.00878614
0.00116789 -0.0176443 -0.00459147
-9.28449e-08 0.0204617 0.00210662
-0.00529992 -0.00418382 0.00461094
0.00448919 -0.00378646 0.00389914
0.00663192 -0.00134387 -0.000402145
0.000123857 0.00768321 -0.0208163
0.00081115 -0.00100086 -0.0207369
0.00124964 -0.0162081 -0.00838081
0.000277426 0.0064314 -0.00293896
4.32576e-15 1.18981e-14 2.80768e-13
-0.00114516 0.00242459 -0.00386639
0.0191851 0.00018202 0.00539337
-0.000564083 -0.00127218 0.000340526
0.00392738 0.00852781 0.0247415
0.000334221 -0.0055668 0.0198226
9.74157e-317 -9.69799e-317 9.23294e-13
0.00262165 0.00578994 0.00523553
0.000120328 -0.020099 -0.00702576
-0.000825142 -0.0129396 -0.0122508
0.00686305 -0.00810986 -0.00807084
0.0064198 -0.0230182 -0.0474057
-0.00445122 8.30899e-05 -0.000936533
0.00840746 -0.0048645 -0.0061967
0.000944062 0.00966622 0.0152409
-0.000417335 -0.00139206 -0.00371653
0.000994386 0.0144575 -0.010701
0.000492647 -0.0094987 -0.0162481
0.000593063 -0.0182335 0.00120044
0.00148383 0.000308858 -0.00216809
0.00913714 -0.0153751 -0.0100891
-0.000286777 -0.0151262 0.00613452
-0.000616942 0.00335804 -0.0220764
-0.000118316 0.000685405 -0.000950516
0.00683829 0.00234339 -0.00938697
0.0020975 0.00891589 -0.00588791
6.19208e-05 0.00790487 -0.0188497
-0.00109029 0.00238185 -0.00270941
-0.000696879 0.0021265 -0.00534423
-1.911e-14 -3.07692e-15 3.11554e-13
0.000451242 -0.00821922 -0.0148618
-0.00113269 -0.00489364 -0.0036945
-3.98847e-07 0.0246609 -5.21711e-05
0.00827291 0.00971949 0.000532819
0.000993858 -0.0215865 0.00772877
0.00227305 0.00948046 0.00786924
-0.0289387 0.0283921 0.0127524
0.0003546 0.0153441 0.0137508
9.58743e-317 9.68145e-317 4.97437e-14
0.00109904 -0.0191231 -0.0419121
0.000441027 0.0183226 0.0109465
-0.104999 -0.00794675 0.191611
0.00315492 -0.000221493 -0.00612857
0.000251974 -7.77859e-05 0.00026964
-0.0237113 -0.00313782 0.0149975
0.000526096 -0.0102131 -0.00695831
0.00665465 0.000512896 -0.00164309
0.0548439 -0.0424676 0.00734892
-0.0629871 -0.15455 -1.02199
0.000852103 0.00352023 0.00362831
0.000986076 0.00130722 -0.00129958
-0.000728429 0.00135861 -0.00330543
0.0191015 0.00464346 -0.00243829
0.000418295 0.0137649 -0.0153183
7.53297e-16 -1.26247e-15 -6.97773e-15
0.00596225 -0.00842728 0.00888971
0.000160556 -0.000234624 -0.00129379
0.000582389 -7.43323e-05 0.000204598
-0.000128605 -0.000221629 0.000385628
0.00051305 -0.0137441 0.0151075
0.00467232 0.0030094 0.0033028
0.0127226 0.0105905 -0.00816226
-0.00414665 -0.00344844 -0.00321007
0.00734882 -0.00544554 -0.00966503
0.00175435 -0.00246603 0.0022674
-0.0273378 0.00394763 -0.00777219
-0.00187359 -0.00472695 -0.00458202
1.27109e-05 0.000102089 -0.00154368
-9.68799e-317 -9.69932e-317 9.23294e-13
0.0179412 -0.0245226 -0.0634414
0.0248481 0.00501456 0.0116026
0.00138998 -0.00788925 0.0228328
0.00245893 0.0102457 -0.00254789
-0.00214872 0.00439015 -5.56939e-05
0.103637 -0.132088 -0.0705338
2.63674e-15 1.50976e-16 -4.25301e-14
0.000118933 -0.016966 -0.0130319

VECTORS force float
3.34449e-07 -2.03526e-07 -3.78465e-07
-5.65968e-08 -2.20143e-07 -1.54861e-08
0.0 0.0 -1.43822e-06
3.43747e-09 5.89597e-09 -1.71104e-08
2.58383e-06 1.22979e-07 4.246e-06
2.76606e-08 -6.23159e-08 -1.47603e-06
-9.77438e-06 5.76752e-06 -1.14724e-06
-5.63806e-21 -9.16516e-22 -6.35275e-22
-1.4117e-08 2.63483e-08 9.89306e-09
3.48506e-10 -1.02059e-08 -6.07583e-09
0.0 0.0 0.0
0.0 0.0 -1.43822e-06
3.13616e-06 3.44757e-06 -3.72513e-06
-4.44652e-06 2.57604e-06 -1.57838e-06
1.25342e-08 -1.52702e-08 9.1719e-09
-3.62647e-07 2.54514e-07 -2.5587e-07
0.0 0.0 -1.43822e-06
-6.2221e-08 -1.52706e-06 -2.64726e-07
3.68894e-07 8.15513e-08 -1.10092e-06
-1.63121e-06 3.59566e-07 -1.26755e-06
1.15756e-05 5.43579e-06 -9.94653e-06
1.87136e-05 -1.01355e-05 -9.69777e-06
2.13076e-06 -6.05132e-07 -9.61533e-06
0.0310072 0.00528892 0.00330473
-3.50389e-07 4.83245e-07 -5.22284e-07
3.16089e-08 -1.15275e-07 -6.04502e-08
-9.2402e-15 -7.48296e-09 -1.51163e-08
2.92454e-06 -1.30351e-05 1.00545e-05
0.0 0.0 -1.43822e-06
0.0 0.0 0.0
9.8152e-06 2.76555e-06 3.04526e-06
1.54275e-07 3.14036e-08 -2.15863e-08
-4.23516e-21 2.82433e-20 1.69407e-21
-6.27953e-09 -6.39139e-10 3.3266e-08
-3.13389e-06 -5.73069e-07 -7.42841e-07
0.0 0.0 -1.43822e-06
-7.55029e-09 1.24294e-09 4.05876e-09
-3.21778e-08 2.27825e-08 1.31939e-07
0.0678763 -0.711686 -0.610405
1.30834e-05 -1.28528e-06 2.94877e-06
1.49883e-07 -5.37314e-07 -1.45197e-06
-7.65022e-08 -3.2698e-07 -3.48475e-07
-5.12918e-06 -4.28017e-06 5.2261e-06
-1.54769e-09 4.56985e-09 -1.18979e-08
-6.74266e-06 9.81184e-06 -1.0797e-05
-2.3683e-09 -2.5798e-08 -1.88417e-09
-6.77963e-09 4.80517e-08 6.01179e-08
0.0 0.0 -1.43822e-06
-6.46803e-08 -9.82001e-08 -9.77025e-08
-5.39475e-09 1.98145e-08 -7.20081e-09
0.000281004 0.00407985 0.00263983
7.55649e-10 -3.83631e-09 1.15653e-08
-1.49438e-06 2.04936e-06 1.00649e-06
-1.70731e-09 3.54088e-09 -1.17239e-08
1.47539e-06 4.94153e-06 -1.91415e-06
-1.27491e-06 -3.27297e-05 1.67856e-05
-1.66086e-08 -3.9201e-08 -9.8074e-08
-6.72739e-06 -2.21689e-06 6.14681e-06
-4.62552e-07 9.67286e-07 -1.10524e-06
1.6046e-19 8.33798e-20 -4.87044e-21
1.61577e-08 9.75156e-09 8.48635e-08
-2.07156e-09 1.39469e-08 -8.47733e-09
-1.87244e-09 -1.24361e-08 8.49623e-09
0.0 0.0 -1.43822e-06
-1.28378e-21 5.50307e-20 -3.81165e-21
3.04223e-07 2.83269e-07 1.74885e-07
-5.1392e-08 -3.56933e-07 2.69806e-07
8.99338e-07 3.80289e-06 5.38981e-06
1.86572e-05 -5.10928e-06 -6.92242e-06
0.0 0.0 0.0
-0.000721437 0.000136461 -0.000214582
-1.65621e-09 -1.11896e-08 5.8094e-09
8.94729e-08 3.27893e-07 -1.34892e-08
1.05808e-06 3.91998e-07 1.65612e-07
5.10812e-10 1.17831e-08 -1.16297e-08
1.17703e-07 1.20838e-06 -1.08931e-06
9.61609e-06 -1.54972e-05 1.1248e-05
-9.68041e-06 5.17185e-06 -8.6196e-06
-1.57361e-09 -5.54602e-09 -1.65118e-08
-2.98231e-08 1.25571e-09 -5.41061e-08
4.09495e-09 -9.42709e-08 -1.13059e-08
7.67468e-06 6.83935e-06 -3.87053e-06
-3.97742e-20 2.75286e-21 4.23516e-22
-2.57241e-07 2.45934e-07 -5.57968e-07
2.82679e-06 8.77699e-07 1.05019e-06
1.43089e-06 1.36641e-06 9.47826e-07
0.0 0.0 -1.43822e-06
-3.85373e-09 3.71714e-09 2.82291e-08
0.0 0.0 0.0
2.20471e-07 -7.89305e-07 -1.34182e-06
-9.1884e-10 -8.20484e-09 8.92182e-09
-2.3736e-07 -7.14862e-07 4.52762e-06
4.55748e-07 -3.61517e-07 -5.82035e-08
0.0 0.0 -1.43822e-06
1.13228e-07 1.26488e-06 -8.67194e-07
-1.06058e-07 -3.78797e-07 -6.45155e-07
-6.21624e-09 2.18673e-08 1.13102e-08
-2.08461e-06 -1.34609e-06 4.39049e-06
-8.72631e-09 1.75983e-08 -2.99256e-08
4.49743e-08 -2.62889e-08 -1.51522e-08
-3.3726e-09 -1.58077e-08 1.29657e-08
-1.74649e-07 5.2065e-07 2.40864e-07
0.0227126 -0.0440771 -0.169928
2.41209e-08 -8.54894e-08 1.2818e-07
1.28505e-08 8.96145e-09 1.31326e-08
-1.17907e-06 3.69761e-07 1.04641e-06
0.0 0.0 -1.43822e-06
-4.2252e-06 -2.41161e-07 2.648e-06
6.50206e-09 -2.74749e-08 1.0183e-08
-1.33051e-07 7.98901e-08 -1.89784e-08
1.15037e-07 3.71184e-07 -9.55853e-07
0.0 0.0 0.0
7.16526e-09 1.63676e-08 2.8326e-08
1.94316e-07 -5.1828e-07 -8.23255e-07
-5.4708e-10 -5.21199e-11 -1.68169e-08
0.0 0.0 -1.43822e-06
-1.45716e-08 -6.68973e-09 -3.03103e-08
-1.18936e-07 -7.22902e-08 -7.65554e-08
0.0 0.0 -1.43822e-06
-7.48196e-10 1.08969e-08 -6.72424e-09
0.0 0.0 0.0
0.0 0.0 -1.43822e-06
-4.24769e-09 4.85995e-09 -7.5781e-09
0.0 0.0 -1.43822e-06
-3.46734e-06 -2.88429e-05 6.93069e-06
1.39103e-07 1.73627e-08 -3.22562e-07
0.0 0.0 -1.43822e-06
1.9098e-06 2.29299e-06 9.03389e-07
4.10633e-06 4.83422e-06 1.23151e-05
0.0 0.0 -1.43822e-06
0.0 0.0 -1.43822e-06
-2.40369e-07 -8.86437e-08 -3.99863e-07
8.67267e-07 -5.61026e-06 -1.23453e-05
-2.25443e-07 1.86309e-07 -2.26796e-07
-6.50796e-07 7.33719e-07 -2.54282e-07
-1.83214e-09 1.50661e-09 -1.32574e-08
7.41154e-22 0.0 0.0
7.00219e-06 -2.1517e-05 2.4652e-05
1.9812e-06 1.1251e-06 -1.79904e-06
-3.24793e-08 -2.2994e-07 -9.93869e-07
-4.0589e-07 -2.22696e-07 2.34797e-07
-3.7375e-08 -2.19623e-07 3.44335e-07
3.9852e-06 2.87751e-06 2.01493e-06
-3.33863e-07 6.9619e-07 -3.71091e-07
-9.72968e-08 1.25797e-07 -6.00665e-07
-3.57678e-07 -2.00294e-07 -4.79615e-07
2.64932e-05 9.04081e-08 -9.94772e-06
4.41147e-07 1.56179e-06 -1.11847e-06
5.80398e-07 -3.22118e-07 -4.62307e-07
-4.91433e-06 2.69011e-06 -1.87289e-06
0.0 0.0 0.0
3.1442e-07 -2.45194e-07 -8.48431e-07
0.0 0.0 -1.43822e-06
-2.01064e-08 -2.49334e-08 -5.57327e-08
-8.69243e-06 -1.82894e-05 4.42792e-06
0.0 0.0 -1.43822e-06
0.0 0.0 -1.43822e-06
-7.69609e-20 5.39176e-19 6.35275e-22
-2.90631e-09 -1.44883e-08 8.88012e-11
