# vtk DataFile Version 3.0
LIGGGHTS particles timestep 27200000
ASCII
DATASET POLYDATA
POINTS 107 float
0.018091 0.0232949 0.0108123
0.0242546 0.020213 0.00583854
0.0246995 0.0220089 0.015108
0.0552529 0.0189972 0.0058882
0.00938048 0.0183393 0.00587271
0.0260391 0.0196534 0.00594246
0.0764299 0.01907 0.00579421
0.0366849 0.0218066 0.0435188
0.0511835 0.0149067 0.0117674
0.0444866 0.0160517 0.0145763
0.0339249 0.0173116 0.00624552
0.000591717 0.0149731 0.0435188
0.0485965 0.0229144 0.0132492
0.0364748 0.0208476 0.00623738
0.0339579 0.0158671 0.008624
0.049528 0.0194806 0.00601095
0.0299373 0.0231818 0.0101787
0.0397562 0.0154491 0.00923132
0.0321345 0.0189505 0.00575821
0.003617 0.0285782 0.0435188
0.0860181 0.0183082 0.00577269
0.0177449 0.0174882 0.00600758
0.0496536 0.0195491 0.0157887
0.0276341 0.0151569 0.00967721
0.112778 0.0179068 0.0059233
0.0488996 0.0224204 0.0141969
0.0452523 0.0173614 0.00620617
0.0349285 0.0181778 0.00592251
0.0410926 0.0207518 0.00750354
0.0329884 0.0149269 0.0125615
0.0551402 0.017971 0.00596606
0.0421719 0.0233864 0.0111162
0.0478095 0.0229299 0.00977304
0.0473165 0.0214926 0.00796534
0.0503331 0.0165789 0.0150014
0.0408837 0.0198433 0.00726386
0.0469851 0.0202107 0.0074044
0.0286231 0.0184504 0.00724129
0.0456519 0.0144537 0.00936697
0.0214483 0.0168437 0.00645098
0.0351133 0.0212769 0.00786723
0.0431394 0.0214752 0.0150477
0.0586827 0.0172628 0.00598816
0.0792478 0.0194315 0.00576454
0.0264583 0.0160405 0.0145952
0.0516039 0.0151325 0.00973133
0.0303903 0.00406748 0.0435188
0.0379058 0.0182 0.0156653
0.0520002 0.0160454 0.00846764
0.0438472 0.0171169 0.00621343
0.0475376 0.0222885 0.00866418
0.0473953 0.0193073 0.0059321
0.0414175 0.021844 0.00821312
0.0382724 0.0167648 0.015151
0.052392 0.0175578 0.00750811
0.0458567 0.0157266 0.00890815
0.0423421 0.0233114 0.0120582
0.0584376 0.0191695 0.00582359
0.0211183 0.0146741 0.0123346
0.0254254 0.0205994 0.0156709
0.020084 0.0201843 0.0061153
0.0490429 0.0218655 0.0147544
0.0221348 0.00230077 0.0435188
0.201805 0.0186174 0.00570934
0.0439067 0.018188 0.0157278
0.0312551 0.0210063 0.0152748
0.0830234 0.0186618 0.00583976
0.0302753 0.0233737 0.011717
0.067984 0.0193424 0.00575613
0.0467988 0.0194804 0.00718262
0.0757938 0.0221395 0.00716566
0.0436247 0.0195871 0.0157314
0.0309617 0.0222153 0.0143976
0.0253288 0.0204564 0.00590683
0.0428677 0.0224768 0.0140648
0.0460272 0.0162019 0.00831377
0.0320661 0.0174276 0.015497
0.0383457 0.0197753 0.00590075
0.026935 0.0188837 0.00598981
0.034816 0.0196248 0.00738453
0.0500766 0.0174781 0.0155065
0.0391202 0.0148469 0.012026
0.0482907 0.0232539 0.0120077
0.0221996 0.00109062 0.0435188
0.048054 0.0232815 0.0106958
0.039441 0.0149103 0.0103631
0.0375099 0.0200288 0.0156975
0.0509667 0.0150274 0.0127625
0.0561606 0.0173315 0.00595822
0.0895649 0.0187731 0.00575225
0.0361636 0.0233825 0.0110347
0.0354289 0.021929 0.00827857
0.0466542 0.0185532 0.00736299
0.108836 0.0200055 0.00584234
0.0296943 0.0227734 0.0092193
0.0402129 0.0169089 0.00773268
0.0365866 0.0230544 0.0131857
0.0419348 0.0231687 0.0102437
0.0267698 0.0152452 0.0134046
0.0369412 0.0221428 0.014356
0.0318512 0.0184342 0.0157528
0.00937694 0.00505359 0.0435188
0.0457039 0.018685 0.00600217
0.0335232 0.0150482 0.0100739
0.0239797 0.0191467 0.00594569
0.0254808 0.018723 0.00589902
0.0442057 0.0170487 0.0152777

VERTICES 107 214
1 0
1 1
1 2
1 3
1 4
1 5
1 6
1 7
1 8
1 9
1 10
1 11
1 12
1 13
1 14
1 15
1 16
1 17
1 18
1 19
1 20
1 21
1 22
1 23
1 24
1 25
1 26
1 27
1 28
1 29
1 30
1 31
1 32
1 33
1 34
1 35
1 36
1 37
1 38
1 39
1 40
1 41
1 42
1 43
1 44
1 45
1 46
1 47
1 48
1 49
1 50
1 51
1 52
1 53
1 54
1 55
1 56
1 57
1 58
1 59
1 60
1 61
1 62
1 63
1 64
1 65
1 66
1 67
1 68
1 69
1 70
1 71
1 72
1 73
1 74
1 75
1 76
1 77
1 78
1 79
1 80
1 81
1 82
1 83
1 84
1 85
1 86
1 87
1 88
1 89
1 90
1 91
1 92
1 93
1 94
1 95
1 96
1 97
1 98
1 99
1 100
1 101
1 102
1 103
1 104
1 105
1 106

POINT_DATA 107
SCALARS id int 1
LOOKUP_TABLE default
1
2
4
5
15
16
17
18
20
24
25
27
28
32
33
37
41
44
47
49
52
57
59
63
65
67
68
73
74
76
79
84
87
88
89
90
92
97
103
108
109
112
121
122
124
125
128
130
131
133
135
137
139
141
142
143
147
149
150
157
158
160
161
165
166
167
173
174
179
185
186
187
191
193
194
197
200
205
215
225
226
227
229
232
237
241
242
247
252
253
256
257
258
260
268
269
270
271
274
275
277
284
288
291
294
299
300

SCALARS type int 1
LOOKUP_TABLE default
1
1
1
1
1
1
1
1
1
1
1
1
1
1
1
1
1
1
1
1
1
1
1
1
1
1
1
1
1
1
1
1
1
1
1
1
1
1
1
1
1
1
1
1
1
1
1
1
1
1
1
1
1
1
1
1
1
1
1
1
1
1
1
1
1
1
1
1
1
1
1
1
1
1
1
1
1
1
1
1
1
1
1
1
1
1
1
1
1
1
1
1
1
1
1
1
1
1
1
1
1
1
1
1
1
1
1

SCALARS radius float 1
LOOKUP_TABLE default
0.0005
0.0005
0.0005
0.0005
0.0005
0.0005
0.0005
0.0005
0.0005
0.0005
0.0005
0.0005
0.0005
0.0005
0.0005
0.0005
0.0005
0.0005
0.0005
0.0005
0.0005
0.0005
0.0005
0.0005
0.0005
0.0005
0.0005
0.0005
0.0005
0.0005
0.0005
0.0005
0.0005
0.0005
0.0005
0.0005
0.0005
0.0005
0.0005
0.0005
0.0005
0.0005
0.0005
0.0005
0.0005
0.0005
0.0005
0.0005
0.0005
0.0005
0.0005
0.0005
0.0005
0.0005
0.0005
0.0005
0.0005
0.0005
0.0005
0.0005
0.0005
0.0005
0.0005
0.0005
0.0005
0.0005
0.0005
0.0005
0.0005
0.0005
0.0005
0.0005
0.0005
0.0005
0.0005
0.0005
0.0005
0.0005
0.0005
0.0005
0.0005
0.0005
0.0005
0.0005
0.0005
0.0005
0.0005
0.0005
0.0005
0.0005
0.0005
0.0005
0.0005
0.0005
0.0005
0.0005
0.0005
0.0005
0.0005
0.0005
0.0005
0.0005
0.0005
0.0005
0.0005
0.0005
0.0005

SCALARS mass float 1
LOOKUP_TABLE default
1.46608e-07
1.46608e-07
1.46608e-07
1.46608e-07
1.46608e-07
1.46608e-07
1.46608e-07
1.46608e-07
1.46608e-07
1.46608e-07
1.46608e-07
1.46608e-07
1.46608e-07
1.46608e-07
1.46608e-07
1.46608e-07
1.46608e-07
1.46608e-07
1.46608e-07
1.46608e-07
1.46608e-07
1.46608e-07
1.46608e-07
1.46608e-07
1.46608e-07
1.46608e-07
1.46608e-07
1.46608e-07
1.46608e-07
1.46608e-07
1.46608e-07
1.46608e-07
1.46608e-07
1.46608e-07
1.46608e-07
1.46608e-07
1.46608e-07
1.46608e-07
1.46608e-07
1.46608e-07
1.46608e-07
1.46608e-07
1.46608e-07
1.46608e-07
1.46608e-07
1.46608e-07
1.46608e-07
1.46608e-07
1.46608e-07
1.46608e-07
1.46608e-07
1.46608e-07
1.46608e-07
1.46608e-07
1.46608e-07
1.46608e-07
1.46608e-07
1.46608e-07
1.46608e-07
1.46608e-07
1.46608e-07
1.46608e-07
1.46608e-07
1.46608e-07
1.46608e-07
1.46608e-07
1.46608e-07
1.46608e-07
1.46608e-07
1.46608e-07
1.46608e-07
1.46608e-07
1.46608e-07
1.46608e-07
1.46608e-07
1.46608e-07
1.46608e-07
1.46608e-07
1.46608e-07
1.46608e-07
1.46608e-07
1.46608e-07
1.46608e-07
1.46608e-07
1.46608e-07
1.46608e-07
1.46608e-07
1.46608e-07
1.46608e-07
1.46608e-07
1.46608e-07
1.46608e-07
1.46608e-07
1.46608e-07
1.46608e-07
1.46608e-07
1.46608e-07
1.46608e-07
1.46608e-07
1.46608e-07
1.46608e-07
1.46608e-07
1.46608e-07
1.46608e-07
1.46608e-07
1.46608e-07
1.46608e-07

VECTORS velocity float
0.0032625 0.0021332 -0.000123935
-9.08595e-15 -1.46377e-15 1.48131e-13
-0.00126088 0.00589026 -0.000603044
-1.3359e-17 -1.80103e-17 -2.5713e-16
3.64546e-15 5.40889e-16 -3.69009e-14
2.09859e-14 3.37809e-15 -3.42138e-13
-1.48328e-15 8.84125e-15 3.39829e-14
-9.6879e-317 9.73506e-317 2.68131e-13
-0.00136043 0.000688389 0.0170999
0.000821199 0.0137765 0.0121072
-1.09368e-15 -9.44563e-15 -2.80477e-14
9.71467e-317 9.75789e-317 -8.23806e-13
0.000239109 0.00738567 -0.0169718
4.37097e-15 -1.48264e-14 6.83466e-14
0.000682803 -0.00997832 0.0113326
5.79834e-15 -1.24659e-14 -1.29438e-13
6.94568e-05 -0.00714989 -0.0208978
0.000116926 -0.0125249 0.0186769
-1.51322e-14 -5.90526e-14 -1.44396e-13
-9.68849e-317 -9.75601e-317 2.88878e-12
-1.22077e-15 3.67084e-14 1.26768e-13
2.63534e-15 1.02258e-14 2.12806e-14
0.000723552 0.0192984 -0.000803911
0.00023196 -0.00891659 0.0191169
1.01396e-15 3.41074e-15 1.41976e-14
0.00115247 0.00882473 -0.0131973
-3.12123e-15 -1.7466e-14 -1.20236e-13
6.27032e-16 6.72414e-15 2.00023e-14
0.000894652 -0.0154837 -0.00732347
0.000321268 0.00532773 0.0201023
-2.82228e-15 -3.83428e-15 -5.46135e-14
0.00207136 0.000408127 -0.00909574
0.000261364 -0.00877659 -0.0192404
0.000498673 -0.0168444 -0.0107132
0.000575331 0.016061 0.0113522
0.000856333 -0.0179968 -0.00201884
0.00103877 -0.0169474 -0.00531162
0.000882332 -0.0199986 0.00169967
0.00544639 0.349521 0.133662
-2.38577e-14 5.08971e-14 1.84333e-13
0.00196331 -0.0108466 -0.00474998
0.00056011 0.0157182 -0.0115473
1.03803e-14 -2.15399e-14 -2.64999e-13
1.18652e-14 4.01887e-14 1.7023e-13
0.00100333 0.00755376 0.00763346
7.92052e-05 -0.0100048 0.0196016
-9.67556e-317 -9.75879e-317 -3.22607e-12
8.03339e-05 0.0212328 0.00486756
0.254957 -0.0715068 0.0315415
5.43784e-16 -1.54469e-15 -8.51141e-15
-0.00014365 -0.013763 -0.0188924
4.73117e-15 -1.01827e-14 -1.05707e-13
0.000226811 -0.0158086 -0.0126565
0.00187152 0.00771989 0.00613604
0.000816071 -0.0184465 0.00738993
0.00204537 -0.00763222 0.0114116
0.00149943 0.00138554 -0.0186756
8.1492e-15 -1.6825e-14 -2.07264e-13
0.00420914 0.00173407 0.00170335
0.00181982 0.00230331 -0.00151438
5.51607e-15 -2.4777e-15 5.04898e-14
0.000887264 0.0149488 -0.0118598
9.74157e-317 -9.69799e-317 9.23294e-13
-3.8561e-20 -3.14763e-22 8.61844e-22
0.000446905 0.0137353 0.00461015
0.000511149 0.0130444 -0.00599092
1.14664e-14 3.23755e-14 -1.39064e-13
0.000184522 0.00119229 -0.0210312
3.93505e-15 7.51795e-15 2.61625e-13
0.00160233 -0.0101764 -0.00260588
0.695269 -0.0813838 -0.0253921
0.000153099 0.0208986 -0.00284094
0.00089244 0.0115466 -0.0138839
9.29105e-15 1.49748e-15 -1.51478e-13
7.26063e-05 0.0147218 -0.0174035
0.0016288 -0.0037849 0.00334669
0.00153494 0.0151028 0.00549382
6.20404e-15 -2.89644e-14 1.43224e-13
1.43031e-14 2.3042e-15 -2.33189e-13
0.000173262 -0.0215773 -0.0037964
0.00043859 0.016733 0.0079079
-0.00470339 0.00383739 0.0294413
-0.000686698 0.00317253 -0.0207558
9.58743e-317 9.68145e-317 4.97437e-14
0.000701499 -0.00318863 -0.0178547
0.00149513 -0.00340628 0.016406
0.0026214 0.00951887 -0.00185433
-0.000241275 0.00481598 0.0214887
1.4032e-14 1.90622e-14 2.71525e-13
-1.30372e-14 1.89491e-14 2.5378e-13
0.000246426 -0.00143969 -0.0216504
0.00206403 -0.00529212 -0.00461146
0.00136697 -0.0192265 0.00137593
7.53175e-16 -1.27683e-15 -6.97502e-15
0.00126441 -0.00975966 -0.0144244
0.000197441 -0.0141582 0.00769783
0.000570614 0.00772483 -0.0184456
0.00116734 -0.00465064 -0.0128322
3.37613e-05 0.0089475 0.0205263
0.000132028 0.0164994 -0.015647
3.64042e-05 0.0221176 0.00414906
-9.68799e-317 -9.69932e-317 9.23294e-13
-6.97941e-15 -3.90025e-14 -2.68502e-13
0.00271357 -0.00339099 0.0123929
-2.27376e-14 -4.66212e-14 -1.52821e-13
-2.07921e-14 -3.39001e-15 3.3879e-13
0.000198261 0.0187949 0.0102977

VECTORS force float
4.20692e-08 6.77608e-08 1.94431e-07
1.32349e-23 -1.98523e-23 0.0
3.20366e-08 3.96307e-08 -5.31623e-08
7.67624e-22 2.64698e-23 0.0
-7.94093e-22 6.94501e-21 0.0
-4.76456e-22 2.9216e-21 0.0
1.5187e-20 -1.79995e-21 2.5411e-21
0.0 0.0 0.0
4.05465e-10 -2.78426e-08 1.44799e-08
2.08181e-07 -1.44452e-07 -1.3506e-07
-4.1267e-19 5.70688e-20 -5.0822e-21
0.0 0.0 0.0
-4.82094e-09 -1.58381e-08 2.70954e-08
4.5528e-21 3.07049e-21 2.11758e-22
-6.2427e-09 -2.98473e-09 3.34484e-08
1.87935e-21 -1.32349e-22 0.0
-2.39436e-08 -1.35097e-08 -7.04032e-08
-9.73164e-10 7.34961e-09 1.06271e-08
2.88521e-21 2.22346e-21 0.0
0.0 0.0 0.0
-5.09229e-20 5.29396e-22 -4.23516e-22
-4.89691e-21 8.47033e-22 -2.11758e-22
3.37893e-08 -2.14478e-07 5.47861e-08
-1.33296e-09 6.92482e-09 9.99972e-09
-4.51045e-20 -1.23032e-19 3.21873e-20
-1.12795e-08 1.75323e-08 -3.80947e-08
-3.70908e-20 5.39984e-21 0.0
9.2181e-21 -2.91168e-21 8.47033e-22
-3.78162e-09 -4.02152e-08 8.96544e-09
-1.83987e-09 1.14581e-08 3.99964e-09
1.32349e-23 1.32349e-23 -2.11758e-22
4.59351e-08 -1.26496e-08 6.18106e-08
-2.13078e-09 -1.27478e-08 -1.99006e-09
-2.85038e-09 -1.43597e-08 3.52627e-09
1.62159e-08 -3.75359e-08 -5.85997e-08
-2.02385e-08 -1.27073e-07 4.84684e-09
-2.11091e-09 1.49014e-08 9.26373e-09
1.55205e-08 3.4807e-08 6.42133e-09
0.0 0.0 -1.43822e-06
-3.57342e-20 3.70577e-22 -4.65868e-21
7.40203e-09 -3.72133e-08 1.79191e-09
-4.07656e-09 4.60346e-09 -1.57487e-08
3.50725e-22 9.55559e-21 -8.47033e-22
-2.31716e-19 1.05826e-19 -9.95264e-21
9.46103e-10 -2.56815e-08 -2.25765e-08
-5.60915e-10 8.38895e-09 8.15195e-09
0.0 0.0 0.0
-1.06628e-09 7.60062e-09 -9.91029e-09
0.00254964 -0.00117524 -0.00219426
-2.75947e-20 -9.26442e-21 2.11758e-22
5.65078e-09 -1.0011e-08 4.99996e-09
-4.34104e-21 -1.85288e-22 -2.11758e-22
-1.3382e-09 -1.43036e-08 1.9187e-09
-1.30185e-08 1.14795e-08 -1.77428e-08
-3.26172e-09 -5.95594e-09 1.38528e-08
-5.42177e-09 -9.55574e-09 9.79051e-09
-7.21486e-09 1.27773e-08 -8.84253e-08
-1.02637e-20 -1.26128e-20 6.35275e-22
7.25767e-10 -4.44698e-09 2.17983e-08
-2.55108e-08 6.13971e-08 -3.78483e-08
1.32614e-20 -4.8572e-21 -1.69407e-21
-9.30864e-09 3.79831e-08 -4.27078e-08
0.0 0.0 0.0
0.0 0.0 0.0
1.40657e-09 -4.39439e-09 -1.03144e-08
3.19536e-09 1.99751e-08 -2.04182e-09
4.82809e-20 7.88799e-21 5.71747e-21
-1.40779e-10 -9.51549e-09 -7.19053e-09
5.9878e-20 -3.20946e-20 0.0
3.19829e-09 5.73162e-08 1.4037e-08
0.0 0.0 -1.43822e-06
-7.91629e-10 5.82468e-09 -1.10266e-08
-6.30838e-09 6.39092e-09 -2.43851e-08
0.0 1.35658e-22 0.0
4.07163e-10 -8.71693e-09 -8.1664e-09
-2.12535e-08 -1.02817e-08 1.10884e-08
1.25104e-08 -4.2521e-08 -2.68013e-08
-1.25328e-19 1.29173e-20 7.41154e-21
7.94093e-23 -1.22092e-21 0.0
-1.26557e-09 -4.23958e-09 1.08538e-08
8.50358e-09 -1.54207e-08 -2.13267e-08
6.92799e-08 -1.89858e-07 -1.57223e-07
7.47598e-09 -1.27194e-08 -2.36494e-08
0.0 0.0 0.0
-1.08149e-08 -4.95537e-09 8.61062e-10
-7.89961e-09 3.44217e-09 2.48316e-08
-3.4271e-07 1.17248e-06 -3.90056e-07
-1.85096e-09 9.81165e-09 -2.28398e-09
-4.76456e-22 -6.61744e-23 0.0
4.08958e-21 -3.93209e-20 3.59989e-21
4.48162e-10 -1.10931e-08 -3.34278e-09
-1.93217e-08 -3.98272e-08 -5.42974e-08
-1.73612e-08 6.66503e-09 -3.169e-09
0.0 0.0 0.0
-1.19365e-08 -2.30203e-08 -1.53173e-08
-1.33201e-08 1.31015e-07 -2.88333e-08
-3.01173e-09 -6.1478e-09 -1.46718e-08
-2.05555e-08 -1.03003e-07 -8.01176e-08
-6.60824e-12 1.24807e-08 -1.91178e-09
-1.11356e-10 -6.89506e-09 -9.00638e-09
-1.0137e-09 6.00369e-09 -1.03076e-08
0.0 0.0 0.0
2.8058e-21 -6.88214e-22 2.11758e-22
-1.01836e-08 -3.6607e-09 3.56567e-08
-2.32934e-21 -2.17052e-21 4.23516e-22
2.24993e-21 1.61102e-20 2.11758e-22
-1.80558e-09 9.64904e-09 -7.05761e-09
