# vtk DataFile Version 3.0
LIGGGHTS particles timestep 17600000
ASCII
DATASET POLYDATA
POINTS 115 float
0.018344 0.0241237 0.0128957
0.0173149 0.024051 0.0131365
0.0179091 0.0221889 0.00870715
0.0549512 0.0187958 0.00591793
0.00938048 0.0183393 0.00587271
0.0260148 0.0196703 0.00594114
0.0359746 0.0224542 0.00898356
0.0366849 0.0218066 0.0435188
0.0422046 0.0229756 0.00984424
0.0341853 0.0156462 0.00886151
0.0232156 0.0195359 0.00722583
0.000591717 0.0149731 0.0435188
0.0394787 0.0148072 0.0118087
0.0202593 0.0137991 0.013634
0.0257932 0.0208982 0.0153908
0.0212267 0.0239655 0.0132562
0.0379256 0.0198293 0.0157554
0.0189282 0.0233124 0.0127726
0.0298017 0.0220077 0.00834201
0.0215111 0.0147376 0.01175
0.003617 0.0285782 0.0435188
0.0416548 0.0215463 0.00798815
0.0177449 0.0174882 0.00600758
0.0402126 0.0158185 0.00869815
0.0195176 0.013988 0.0129905
0.0182992 0.0238461 0.0138591
0.0391726 0.0151566 0.0132506
0.039776 0.0148678 0.01065
0.0404426 0.0167738 0.00779785
0.0213873 0.0146952 0.0127412
0.0364829 0.0141488 0.0134265
0.0309656 0.023043 0.0130952
0.0239428 0.0224212 0.00894765
0.0377034 0.0206074 0.0155113
0.0320575 0.0190719 0.0158357
0.0379679 0.0194023 0.0157466
0.037791 0.0202 0.0156759
0.0411105 0.0192172 0.00716099
0.0303587 0.0232867 0.0105155
0.0369775 0.0230607 0.0131296
0.0193576 0.0147563 0.0123408
0.035344 0.0201833 0.00750355
0.019137 0.0234826 0.011813
0.0214483 0.0168437 0.00645098
0.0260933 0.0188965 0.0158269
0.0207954 0.0230748 0.0133981
0.032935 0.0156615 0.0141816
0.0583414 0.0172904 0.00597256
0.0426012 0.0234055 0.0116354
0.0211336 0.014284 0.0136166
0.0424051 0.0233185 0.0107661
0.021128 0.0152601 0.013834
0.0303903 0.00406748 0.0435188
0.0284943 0.0164879 0.00803909
0.0411198 0.0164438 0.00811689
0.0234592 0.0205043 0.00760615
0.0413834 0.0202139 0.007326
0.0464479 0.0194185 0.00587894
0.0312791 0.0222215 0.0143856
0.0287885 0.0178014 0.00737355
0.0430344 0.0229053 0.0134828
0.0355359 0.0212121 0.00786629
0.0324474 0.0175448 0.0154991
0.0584248 0.0190396 0.00583365
0.0230021 0.0152322 0.0137842
0.0185181 0.0140037 0.0129649
0.020084 0.0201843 0.0061153
0.0399842 0.0151134 0.00974721
0.0221348 0.00230077 0.0435188
0.201805 0.0186174 0.00570934
0.0337697 0.0149254 0.0107223
0.0186846 0.0231556 0.0103544
0.0796897 0.0217797 0.00698972
0.0201564 0.0239668 0.0126944
0.067984 0.0193424 0.00575613
0.0367399 0.0233303 0.012112
0.0348235 0.0180623 0.00731254
0.033409 0.0148143 0.0121537
0.0220604 0.0152764 0.00940653
0.0245476 0.0198163 0.00585259
0.0326709 0.0164879 0.0149719
0.0356269 0.0218594 0.00816866
0.0243205 0.0223436 0.0156892
0.0358448 0.0221107 0.00847278
0.0198206 0.0231747 0.0131994
0.026935 0.0188837 0.00598981
0.0257461 0.0202457 0.0156798
0.0409065 0.018319 0.0072235
0.0290221 0.0188569 0.00717954
0.0385021 0.0173031 0.0154196
0.0221996 0.00109062 0.0435188
0.0381691 0.0187565 0.0157075
0.0295963 0.0212631 0.00779074
0.0281996 0.0156644 0.00878548
0.0419391 0.0224254 0.0087715
0.0557725 0.0168581 0.00618773
0.0895649 0.0187731 0.00575225
0.0272431 0.0150964 0.0129817
0.0268011 0.0159684 0.0145336
0.0364558 0.0233658 0.0109474
0.108836 0.0200055 0.00584234
0.0175605 0.0141384 0.0132197
0.0301288 0.0228307 0.00932623
0.027598 0.0147544 0.0113619
0.0318679 0.0199082 0.0157051
0.0228416 0.0145751 0.0145207
0.0184022 0.0233467 0.0110136
0.0279508 0.0150476 0.00996917
0.0201367 0.0234824 0.0118163
0.00937694 0.00505359 0.0435188
0.0216047 0.013922 0.0144209
0.0221914 0.0149105 0.0132952
0.0211608 0.022588 0.0141932
0.0254808 0.018723 0.00589902
0.0339734 0.0150704 0.00986188

VERTICES 115 230
1 0
1 1
1 2
1 3
1 4
1 5
1 6
1 7
1 8
1 9
1 10
1 11
1 12
1 13
1 14
1 15
1 16
1 17
1 18
1 19
1 20
1 21
1 22
1 23
1 24
1 25
1 26
1 27
1 28
1 29
1 30
1 31
1 32
1 33
1 34
1 35
1 36
1 37
1 38
1 39
1 40
1 41
1 42
1 43
1 44
1 45
1 46
1 47
1 48
1 49
1 50
1 51
1 52
1 53
1 54
1 55
1 56
1 57
1 58
1 59
1 60
1 61
1 62
1 63
1 64
1 65
1 66
1 67
1 68
1 69
1 70
1 71
1 72
1 73
1 74
1 75
1 76
1 77
1 78
1 79
1 80
1 81
1 82
1 83
1 84
1 85
1 86
1 87
1 88
1 89
1 90
1 91
1 92
1 93
1 94
1 95
1 96
1 97
1 98
1 99
1 100
1 101
1 102
1 103
1 104
1 105
1 106
1 107
1 108
1 109
1 110
1 111
1 112
1 113
1 114

POINT_DATA 115
SCALARS id int 1
LOOKUP_TABLE default
1
2
4
5
15
16
17
18
20
24
25
27
28
32
33
35
37
41
44
47
49
52
57
59
62
63
65
67
68
71
73
74
76
79
84
87
88
89
90
92
97
103
106
108
109
110
112
121
122
124
125
126
128
130
131
133
135
137
139
141
142
143
147
149
150
157
158
160
161
165
166
167
173
174
179
185
186
187
191
193
194
197
200
205
206
215
225
226
227
229
232
237
241
242
247
252
253
256
257
258
260
268
269
270
271
272
274
275
277
284
288
291
294
299
300

SCALARS type int 1
LOOKUP_TABLE default
1
1
1
1
1
1
1
1
1
1
1
1
1
1
1
1
1
1
1
1
1
1
1
1
1
1
1
1
1
1
1
1
1
1
1
1
1
1
1
1
1
1
1
1
1
1
1
1
1
1
1
1
1
1
1
1
1
1
1
1
1
1
1
1
1
1
1
1
1
1
1
1
1
1
1
1
1
1
1
1
1
1
1
1
1
1
1
1
1
1
1
1
1
1
1
1
1
1
1
1
1
1
1
1
1
1
1
1
1
1
1
1
1
1
1

SCALARS radius float 1
LOOKUP_TABLE default
0.0005
0.0005
0.0005
0.0005
0.0005
0.0005
0.0005
0.0005
0.0005
0.0005
0.0005
0.0005
0.0005
0.0005
0.0005
0.0005
0.0005
0.0005
0.0005
0.0005
0.0005
0.0005
0.0005
0.0005
0.0005
0.0005
0.0005
0.0005
0.0005
0.0005
0.0005
0.0005
0.0005
0.0005
0.0005
0.0005
0.0005
0.0005
0.0005
0.0005
0.0005
0.0005
0.0005
0.0005
0.0005
0.0005
0.0005
0.0005
0.0005
0.0005
0.0005
0.0005
0.0005
0.0005
0.0005
0.0005
0.0005
0.0005
0.0005
0.0005
0.0005
0.0005
0.0005
0.0005
0.0005
0.0005
0.0005
0.0005
0.0005
0.0005
0.0005
0.0005
0.0005
0.0005
0.0005
0.0005
0.0005
0.0005
0.0005
0.0005
0.0005
0.0005
0.0005
0.0005
0.0005
0.0005
0.0005
0.0005
0.0005
0.0005
0.0005
0.0005
0.0005
0.0005
0.0005
0.0005
0.0005
0.0005
0.0005
0.0005
0.0005
0.0005
0.0005
0.0005
0.0005
0.0005
0.0005
0.0005
0.0005
0.0005
0.0005
0.0005
0.0005
0.0005
0.0005

SCALARS mass float 1
LOOKUP_TABLE default
1.46608e-07
1.46608e-07
1.46608e-07
1.46608e-07
1.46608e-07
1.46608e-07
1.46608e-07
1.46608e-07
1.46608e-07
1.46608e-07
1.46608e-07
1.46608e-07
1.46608e-07
1.46608e-07
1.46608e-07
1.46608e-07
1.46608e-07
1.46608e-07
1.46608e-07
1.46608e-07
1.46608e-07
1.46608e-07
1.46608e-07
1.46608e-07
1.46608e-07
1.46608e-07
1.46608e-07
1.46608e-07
1.46608e-07
1.46608e-07
1.46608e-07
1.46608e-07
1.46608e-07
1.46608e-07
1.46608e-07
1.46608e-07
1.46608e-07
1.46608e-07
1.46608e-07
1.46608e-07
1.46608e-07
1.46608e-07
1.46608e-07
1.46608e-07
1.46608e-07
1.46608e-07
1.46608e-07
1.46608e-07
1.46608e-07
1.46608e-07
1.46608e-07
1.46608e-07
1.46608e-07
1.46608e-07
1.46608e-07
1.46608e-07
1.46608e-07
1.46608e-07
1.46608e-07
1.46608e-07
1.46608e-07
1.46608e-07
1.46608e-07
1.46608e-07
1.46608e-07
1.46608e-07
1.46608e-07
1.46608e-07
1.46608e-07
1.46608e-07
1.46608e-07
1.46608e-07
1.46608e-07
1.46608e-07
1.46608e-07
1.46608e-07
1.46608e-07
1.46608e-07
1.46608e-07
1.46608e-07
1.46608e-07
1.46608e-07
1.46608e-07
1.46608e-07
1.46608e-07
1.46608e-07
1.46608e-07
1.46608e-07
1.46608e-07
1.46608e-07
1.46608e-07
1.46608e-07
1.46608e-07
1.46608e-07
1.46608e-07
1.46608e-07
1.46608e-07
1.46608e-07
1.46608e-07
1.46608e-07
1.46608e-07
1.46608e-07
1.46608e-07
1.46608e-07
1.46608e-07
1.46608e-07
1.46608e-07
1.46608e-07
1.46608e-07
1.46608e-07
1.46608e-07
1.46608e-07
1.46608e-07
1.46608e-07
1.46608e-07

VECTORS velocity float
-0.00311238 -0.00451003 0.00047596
-0.00028666 -0.00131427 0.0014205
-0.000203441 -0.0139461 -0.0176671
-5.62507e-15 -7.65588e-15 -1.0897e-13
3.64285e-15 5.51541e-16 -3.6901e-14
1.76438e-14 2.84763e-15 -2.87664e-13
0.00319408 -0.0072385 -0.00949439
-9.6879e-317 9.73506e-317 2.68131e-13
0.000268866 -0.00797087 -0.0199614
0.000191798 -0.0130922 0.0167334
0.000372938 -0.0157259 -0.00176015
9.71467e-317 9.75789e-317 -8.23806e-13
6.18217e-05 0.00105178 0.0217437
-0.000375524 -0.000420246 0.000842684
0.000281816 0.0127444 -0.00776562
0.000867128 -0.000399849 0.000255143
0.00260404 0.00127616 0.00241674
0.0038105 0.000521077 -0.00129367
0.000223659 -0.0149365 -0.0146152
0.00163349 -0.000134546 0.0158171
-9.68849e-317 -9.75601e-317 2.88878e-12
0.000251241 -0.0171131 -0.012415
2.62503e-15 1.0226e-14 2.12818e-14
0.000313153 -0.0133309 0.0158986
-5.85914e-05 -0.000209896 0.000479172
-0.00569368 -0.0464821 0.0799642
0.00121241 0.00984512 0.0181836
0.000596607 -0.00300548 0.0195016
-5.74759 0.0991704 -4.32404
0.00250538 -0.00344092 0.016013
-0.127474 -0.0303377 -0.0775211
5.95474e-05 0.00983117 -0.0199228
0.00179685 -0.0106904 -0.0121321
0.00277826 0.001895 0.00219265
0.00130183 0.0148609 0.00071841
0.00325759 -0.000750349 0.00377302
0.00217942 0.00066399 0.000537732
0.000279223 -0.0210563 -0.00127576
0.00171559 -0.00260006 -0.0165139
0.000571571 0.00772426 -0.018506
-3.4115e-06 0.00437362 0.02228
2.91584e-05 -0.0206621 -0.00562343
0.00106969 -0.000302593 -0.000371331
-2.40173e-14 5.08989e-14 1.84312e-13
0.00152519 0.0186289 -0.000571774
0.00278359 -0.0018905 0.000767684
0.000850576 0.0116802 0.0154731
0.0424558 -0.0234387 0.00356793
0.000618997 0.00145122 -0.0192132
0.00292102 -0.00597384 0.015058
0.000344225 -0.00278545 -0.0136071
0.00560252 -0.00138807 -0.00510325
-9.67556e-317 -9.75879e-317 -3.22607e-12
0.000231262 -0.0165186 0.0125086
-1.26548 -0.0231944 -1.04892
0.000578624 -0.0211915 -0.0081095
0.00082946 -0.0183859 -0.00446478
1.06218e-15 -2.36025e-15 -2.4346e-14
0.00173949 0.0107525 -0.0129982
0.000277164 -0.0207309 0.00580954
0.0013766 0.00693717 -0.0134016
0.00200645 -0.0130436 -0.00507579
0.000126885 0.0197553 0.00742356
0.00424989 0.0274193 -0.0020622
0.00637912 0.00454498 0.00583719
-3.58732e-05 -0.000199795 0.00038961
5.54773e-15 -2.46481e-15 5.0487e-14
7.52884e-05 -0.0106331 0.019617
9.74157e-317 -9.69799e-317 9.23294e-13
-3.8561e-20 -8.56408e-22 -5.82543e-22
-0.000285726 -0.00209135 0.0220103
-0.00496171 -0.00405746 -0.0141948
0.00555095 -0.0212807 0.0182856
0.000868696 -0.000140519 1.86188e-05
3.89988e-15 7.5319e-15 2.61625e-13
0.000870522 0.00254012 -0.0161578
0.00108245 -0.017443 0.00199125
0.00227484 0.00181762 0.0140552
0.000124012 -0.0113561 0.0189063
2.60811e-15 4.11776e-16 -4.25292e-14
1.95428e-05 0.0178291 0.0141757
0.00193289 -0.00437504 -0.00421869
-0.064424 0.0609933 -0.0392926
0.00334945 -0.00294812 -0.00672188
0.00224082 -0.00022337 0.00103827
1.43032e-14 2.30368e-15 -2.33189e-13
0.00311991 0.0102786 -0.00411659
0.00035868 -0.018989 0.00395209
0.00149542 -0.0167361 0.00138502
0.000487359 0.018184 0.0072644
9.58743e-317 9.68145e-317 4.97437e-14
0.00212049 0.00779705 0.00136343
0.00131891 -0.015859 -0.00847464
0.000464471 -0.00771838 0.00883609
0.00138647 -0.00903199 -0.0132089
-9.70504e-05 0.00370537 -0.00191711
-1.31293e-14 1.89889e-14 2.53772e-13
0.00167075 0.00659384 0.0151161
0.00116608 0.0114849 0.0112324
0.000140025 -0.00179586 -0.0223776
7.67111e-16 -1.27766e-15 -6.97333e-15
-0.00134911 0.00246203 -0.00578912
0.00106795 -0.00767081 -0.0147759
0.0011477 -0.000879733 0.0134631
0.000627471 0.0128449 -0.00278563
-0.000566479 -0.000494443 -0.000169876
0.00221272 -0.00197708 -0.0137466
0.000111906 -0.0082333 0.0200063
0.000118375 -0.000356955 -4.19684e-05
-9.68799e-317 -9.69932e-317 9.23294e-13
0.00349236 -0.00656728 0.0145296
0.00468684 0.000397144 0.0113916
0.00602957 0.00278554 -0.00481762
-2.07734e-14 -3.36259e-15 3.38792e-13
0.000790682 -0.00628319 0.0165791

VECTORS force float
-1.77164e-05 -7.21416e-06 1.81973e-05
-2.19938e-06 -3.51414e-07 7.28313e-07
-1.60126e-09 -8.94031e-09 5.74405e-09
-1.01909e-20 1.11835e-20 -2.11758e-22
-2.91168e-21 -1.19974e-20 -4.23516e-22
-2.10435e-21 4.1541e-21 0.0
1.42381e-08 9.26782e-10 -3.74992e-08
0.0 0.0 0.0
-3.16556e-09 -1.16951e-08 1.13391e-09
-2.46121e-09 5.70763e-09 1.05267e-08
-1.23602e-08 3.00556e-08 2.39665e-08
0.0 0.0 0.0
-8.36111e-10 1.13893e-08 3.91175e-09
7.22826e-08 -2.73716e-08 -2.49568e-07
-1.31661e-08 3.1739e-08 -7.49286e-09
-1.43162e-06 2.98568e-07 6.26447e-07
-2.64991e-08 -1.66764e-07 3.6762e-08
-1.70786e-07 1.63967e-07 -8.11579e-07
-1.22328e-09 -1.23292e-08 9.69904e-10
1.89284e-09 3.77499e-08 1.59891e-08
0.0 0.0 0.0
-8.12531e-10 -1.08481e-08 5.85354e-09
-5.02926e-22 -2.32934e-21 1.05879e-21
-2.27338e-09 3.2642e-09 1.21279e-08
2.2348e-07 1.74575e-07 -2.02915e-07
0.0 0.0 -1.43822e-06
-1.47995e-08 -2.42427e-08 2.58179e-08
-3.99604e-09 9.46937e-09 1.38371e-08
-1.8548 -3.26223 -5.95955
3.98623e-08 5.18172e-07 6.43486e-08
0.0 0.0 -1.43822e-06
-8.90797e-10 -8.77522e-09 -7.07468e-09
-8.5837e-09 -2.76396e-08 -2.25992e-08
-8.86903e-09 -1.31709e-07 6.13586e-08
3.97995e-09 -8.44682e-09 -1.44929e-08
2.53634e-08 -1.69501e-07 -5.72364e-09
1.78995e-08 -1.01039e-07 -2.30407e-08
-1.34672e-09 -6.95667e-09 1.0134e-08
2.5841e-09 -5.7103e-08 -1.67502e-08
-3.02714e-09 -6.97502e-09 -1.37563e-08
3.27778e-10 1.70561e-08 -2.69504e-09
-1.66687e-10 -7.07207e-09 9.07705e-09
-4.93862e-08 8.92e-08 -1.193e-07
1.50984e-19 1.48495e-19 -2.32934e-20
-5.523e-09 1.91589e-08 -4.44772e-09
3.24002e-07 -4.9132e-07 -3.94341e-07
1.04027e-07 6.63447e-09 -6.65919e-08
-4.86562e-07 3.29414e-07 -4.58315e-08
1.90194e-07 -1.75018e-07 -8.98411e-08
-2.49693e-07 3.10311e-07 -2.27995e-08
-1.83614e-08 2.57303e-07 9.25058e-07
1.68839e-08 -6.45029e-08 -1.84636e-07
0.0 0.0 0.0
-7.12189e-10 3.18468e-10 1.19794e-08
0.0505174 -0.100929 -0.123396
-8.64446e-07 -3.83348e-06 1.09732e-08
-9.50604e-09 -2.63178e-08 1.0276e-10
-4.74074e-20 -2.79256e-20 4.23516e-22
-1.31515e-08 2.02927e-08 -3.56888e-08
-2.12687e-09 -4.2572e-09 1.18834e-08
-2.50175e-08 3.92463e-10 -1.38895e-07
-9.3453e-09 -1.94323e-08 -1.87287e-08
-5.86578e-10 9.41872e-09 -7.20705e-09
-1.18061e-07 -4.21328e-07 2.96218e-08
-8.80656e-08 -9.11182e-08 -1.35388e-07
-9.03025e-09 7.91714e-08 -4.97766e-08
9.66676e-20 3.19623e-20 -8.89385e-21
4.42158e-10 9.34938e-09 7.41298e-09
0.0 0.0 0.0
0.0 0.0 0.0
-3.26267e-08 -6.8746e-09 6.63768e-08
0.000233762 9.54285e-05 0.000111825
0.0 0.0 -1.43822e-06
4.7765e-07 1.74141e-08 -3.76153e-07
1.52234e-20 -1.28908e-20 2.11758e-22
9.57876e-09 -4.91084e-08 4.94747e-08
2.73097e-09 2.70601e-08 1.34897e-08
-3.58761e-08 -9.07784e-09 7.7477e-08
-4.56052e-10 4.53336e-09 1.1029e-08
2.05141e-21 -1.44426e-21 2.11758e-22
-2.96761e-09 1.19428e-08 -3.41512e-09
-8.89587e-09 -1.46396e-10 2.4263e-08
-5.63307e-07 -8.20979e-08 -1.3682e-06
-1.40146e-08 5.99547e-08 6.37997e-08
4.61284e-08 3.05219e-07 -1.71601e-06
1.32349e-23 7.8913e-22 0.0
9.56726e-09 5.27179e-08 -5.41475e-10
-4.03748e-09 -1.2899e-08 1.62395e-08
-7.99621e-09 -2.44158e-08 1.4841e-08
-3.54381e-09 1.79921e-08 -4.59516e-09
0.0 0.0 0.0
1.37427e-08 -4.31783e-08 8.10789e-09
-1.67391e-08 -3.95928e-08 -1.20258e-08
2.45472e-06 6.4341e-06 -7.76718e-06
1.15091e-08 2.04654e-08 4.71176e-08
-1.74367e-09 1.38944e-08 -7.20985e-09
-2.05895e-19 -1.10154e-19 -3.17637e-21
-9.5857e-09 1.87776e-08 2.77248e-08
-9.49064e-08 3.87595e-06 2.11574e-06
-3.01273e-10 -1.20291e-08 -5.22437e-09
0.0 -7.67624e-21 1.69407e-21
3.21487e-08 -1.49677e-08 1.56313e-08
1.47214e-08 -1.52097e-08 2.52039e-08
-3.56022e-09 -3.61777e-09 -1.48896e-08
-1.33167e-09 -1.24329e-08 -3.53027e-09
-1.34115e-07 3.69923e-08 -1.04283e-07
-6.51016e-05 -5.95853e-05 -0.000131533
-1.90615e-10 9.02585e-09 7.42011e-09
1.62805e-07 9.07083e-09 -1.77705e-08
0.0 0.0 0.0
4.07296e-08 -1.625e-08 2.84397e-07
1.11179e-07 1.00988e-07 -8.45378e-08
-2.09767e-07 1.04212e-06 -1.24393e-06
-1.61466e-20 5.54194e-20 -2.11758e-22
-8.46914e-09 4.90626e-09 4.68394e-08
