# vtk DataFile Version 3.0
LIGGGHTS particles timestep 16800000
ASCII
DATASET POLYDATA
POINTS 123 float
0.0202452 0.0241593 0.0130779
0.0231002 0.0230608 0.0142176
0.016143 0.0232022 0.0130987
0.0549512 0.0187958 0.00591793
0.0239346 0.0158947 0.0146352
0.00938048 0.0183393 0.00587271
0.0260148 0.0196703 0.00594114
0.0351808 0.0152107 0.0133481
0.0366849 0.0218066 0.0435188
0.0169439 0.0141789 0.0135089
0.0416123 0.0148198 0.0114852
0.0332666 0.0223245 0.0143296
0.0218692 0.0232945 0.0128244
0.000591717 0.0149731 0.0435188
0.0388231 0.0232756 0.0124109
0.0192203 0.017295 0.00754576
0.0234577 0.0147833 0.0122219
0.0212027 0.0239205 0.0132222
0.036754 0.0174875 0.00752736
0.0182143 0.0155624 0.0089605
0.0292399 0.0151145 0.0130577
0.020986 0.0234485 0.0119804
0.003617 0.0285782 0.0435188
0.0407191 0.0166049 0.0149767
0.0177449 0.0174882 0.00600758
0.0395639 0.021315 0.0150469
0.0188946 0.01801 0.00733551
0.0194506 0.0206516 0.00756507
0.0385241 0.0233549 0.011077
0.0389793 0.0230277 0.0131585
0.0397822 0.020566 0.0155321
0.0204202 0.0232432 0.0105089
0.0237143 0.0166621 0.0152472
0.0301584 0.0154104 0.00922157
0.023255 0.0221769 0.0146674
0.0363288 0.0159788 0.00851967
0.0314914 0.0206839 0.00754737
0.0371601 0.0190967 0.0073168
0.0369527 0.016738 0.00784618
0.040424 0.0176312 0.0155657
0.0296651 0.0147924 0.0111413
0.0360759 0.0151653 0.0095703
0.0193602 0.023274 0.0126868
0.0340411 0.0193059 0.0158192
0.0183384 0.0236977 0.0139019
0.0214483 0.0168437 0.00645098
0.0255989 0.0210085 0.0077627
0.0199879 0.0237348 0.0139515
0.0322683 0.0230577 0.00983825
0.0190955 0.0190896 0.00716261
0.0563057 0.0173438 0.00594987
0.0420338 0.0151652 0.00972435
0.0205016 0.0229623 0.0097143
0.0418217 0.0148792 0.0105674
0.0218905 0.0239119 0.013948
0.0303903 0.00406748 0.0435188
0.0278425 0.0204151 0.0155837
0.0397346 0.0229595 0.0133536
0.0224268 0.0179503 0.0158186
0.0405697 0.0171271 0.0153732
0.0455246 0.0200511 0.00578721
0.0221929 0.0229165 0.0136923
0.0305652 0.0167588 0.00783777
0.0280865 0.0191047 0.0158297
0.0424545 0.0164082 0.00809068
0.0341667 0.0186205 0.0157299
0.0317311 0.0215806 0.00795413
0.058299 0.01847 0.00587501
0.020359 0.0143296 0.0138041
0.0182538 0.0142415 0.0125695
0.020084 0.0201843 0.0061153
0.0392377 0.0224123 0.0140554
0.0221348 0.00230077 0.0435188
0.189217 0.0193841 0.00584892
0.0327687 0.023315 0.0122477
0.0173016 0.0240222 0.0130686
0.0236068 0.0187878 0.015948
0.0198396 0.0199899 0.00729014
0.0466369 0.0201459 0.00581736
0.0175852 0.014625 0.0119327
0.067984 0.0193424 0.00575613
0.0358125 0.0148843 0.010558
0.0339204 0.01996 0.015632
0.0325364 0.023373 0.0111227
0.0211469 0.0229866 0.0135716
0.0245476 0.0198163 0.00585259
0.0319622 0.0224168 0.0087631
0.034481 0.0173876 0.0153591
0.0236518 0.0147549 0.0112541
0.0347436 0.0163614 0.0148416
0.0190205 0.0148224 0.0129024
0.026935 0.0188837 0.00598981
0.0242348 0.0156238 0.00889139
0.0403062 0.018287 0.015618
0.0284164 0.0176848 0.0156033
0.0376779 0.0214075 0.00792737
0.0221996 0.00109062 0.0435188
0.0236568 0.0207801 0.0155959
0.037489 0.0206077 0.00759674
0.0289284 0.0156554 0.0141634
0.0276002 0.0212113 0.0152257
0.0413784 0.014935 0.0126843
0.0229347 0.0158881 0.0146305
0.0895649 0.0187731 0.00575225
0.026533 0.0233975 0.0111361
0.0261608 0.0229219 0.00949527
0.0355971 0.0148105 0.0115304
0.108836 0.0200055 0.00584234
0.0174492 0.0148271 0.0129024
0.0295018 0.0148043 0.0119003
0.0269834 0.023009 0.0131053
0.0311223 0.0192602 0.00720214
0.0226872 0.0147181 0.0143358
0.0183632 0.0240834 0.0129797
0.0273703 0.0219776 0.0145555
0.0192874 0.0241232 0.0133507
0.0227145 0.0166937 0.0152672
0.00937694 0.00505359 0.0435188
0.0213215 0.0142072 0.0135623
0.019913 0.0140215 0.0129638
0.0191531 0.0146257 0.0119312
0.0254808 0.018723 0.00589902
0.0330424 0.0230007 0.013287

VERTICES 123 246
1 0
1 1
1 2
1 3
1 4
1 5
1 6
1 7
1 8
1 9
1 10
1 11
1 12
1 13
1 14
1 15
1 16
1 17
1 18
1 19
1 20
1 21
1 22
1 23
1 24
1 25
1 26
1 27
1 28
1 29
1 30
1 31
1 32
1 33
1 34
1 35
1 36
1 37
1 38
1 39
1 40
1 41
1 42
1 43
1 44
1 45
1 46
1 47
1 48
1 49
1 50
1 51
1 52
1 53
1 54
1 55
1 56
1 57
1 58
1 59
1 60
1 61
1 62
1 63
1 64
1 65
1 66
1 67
1 68
1 69
1 70
1 71
1 72
1 73
1 74
1 75
1 76
1 77
1 78
1 79
1 80
1 81
1 82
1 83
1 84
1 85
1 86
1 87
1 88
1 89
1 90
1 91
1 92
1 93
1 94
1 95
1 96
1 97
1 98
1 99
1 100
1 101
1 102
1 103
1 104
1 105
1 106
1 107
1 108
1 109
1 110
1 111
1 112
1 113
1 114
1 115
1 116
1 117
1 118
1 119
1 120
1 121
1 122

POINT_DATA 123
SCALARS id int 1
LOOKUP_TABLE default
1
2
4
5
11
15
16
17
18
19
20
24
25
27
28
32
33
35
37
41
44
47
49
52
57
59
62
63
65
67
68
71
73
74
76
79
84
87
88
89
90
92
97
103
106
108
109
110
112
116
121
122
124
125
126
128
130
131
133
135
137
138
139
141
142
143
147
149
150
157
158
160
161
165
166
167
170
171
173
174
179
185
186
187
191
193
194
197
200
205
206
215
225
226
227
229
232
235
237
241
242
247
252
253
256
257
258
260
268
269
270
271
272
274
275
277
282
284
288
291
294
299
300

SCALARS type int 1
LOOKUP_TABLE default
1
1
1
1
1
1
1
1
1
1
1
1
1
1
1
1
1
1
1
1
1
1
1
1
1
1
1
1
1
1
1
1
1
1
1
1
1
1
1
1
1
1
1
1
1
1
1
1
1
1
1
1
1
1
1
1
1
1
1
1
1
1
1
1
1
1
1
1
1
1
1
1
1
1
1
1
1
1
1
1
1
1
1
1
1
1
1
1
1
1
1
1
1
1
1
1
1
1
1
1
1
1
1
1
1
1
1
1
1
1
1
1
1
1
1
1
1
1
1
1
1
1
1

SCALARS radius float 1
LOOKUP_TABLE default
0.0005
0.0005
0.0005
0.0005
0.0005
0.0005
0.0005
0.0005
0.0005
0.0005
0.0005
0.0005
0.0005
0.0005
0.0005
0.0005
0.0005
0.0005
0.0005
0.0005
0.0005
0.0005
0.0005
0.0005
0.0005
0.0005
0.0005
0.0005
0.0005
0.0005
0.0005
0.0005
0.0005
0.0005
0.0005
0.0005
0.0005
0.0005
0.0005
0.0005
0.0005
0.0005
0.0005
0.0005
0.0005
0.0005
0.0005
0.0005
0.0005
0.0005
0.0005
0.0005
0.0005
0.0005
0.0005
0.0005
0.0005
0.0005
0.0005
0.0005
0.0005
0.0005
0.0005
0.0005
0.0005
0.0005
0.0005
0.0005
0.0005
0.0005
0.0005
0.0005
0.0005
0.0005
0.0005
0.0005
0.0005
0.0005
0.0005
0.0005
0.0005
0.0005
0.0005
0.0005
0.0005
0.0005
0.0005
0.0005
0.0005
0.0005
0.0005
0.0005
0.0005
0.0005
0.0005
0.0005
0.0005
0.0005
0.0005
0.0005
0.0005
0.0005
0.0005
0.0005
0.0005
0.0005
0.0005
0.0005
0.0005
0.0005
0.0005
0.0005
0.0005
0.0005
0.0005
0.0005
0.0005
0.0005
0.0005
0.0005
0.0005
0.0005
0.0005

SCALARS mass float 1
LOOKUP_TABLE default
1.46608e-07
1.46608e-07
1.46608e-07
1.46608e-07
1.46608e-07
1.46608e-07
1.46608e-07
1.46608e-07
1.46608e-07
1.46608e-07
1.46608e-07
1.46608e-07
1.46608e-07
1.46608e-07
1.46608e-07
1.46608e-07
1.46608e-07
1.46608e-07
1.46608e-07
1.46608e-07
1.46608e-07
1.46608e-07
1.46608e-07
1.46608e-07
1.46608e-07
1.46608e-07
1.46608e-07
1.46608e-07
1.46608e-07
1.46608e-07
1.46608e-07
1.46608e-07
1.46608e-07
1.46608e-07
1.46608e-07
1.46608e-07
1.46608e-07
1.46608e-07
1.46608e-07
1.46608e-07
1.46608e-07
1.46608e-07
1.46608e-07
1.46608e-07
1.46608e-07
1.46608e-07
1.46608e-07
1.46608e-07
1.46608e-07
1.46608e-07
1.46608e-07
1.46608e-07
1.46608e-07
1.46608e-07
1.46608e-07
1.46608e-07
1.46608e-07
1.46608e-07
1.46608e-07
1.46608e-07
1.46608e-07
1.46608e-07
1.46608e-07
1.46608e-07
1.46608e-07
1.46608e-07
1.46608e-07
1.46608e-07
1.46608e-07
1.46608e-07
1.46608e-07
1.46608e-07
1.46608e-07
1.46608e-07
1.46608e-07
1.46608e-07
1.46608e-07
1.46608e-07
1.46608e-07
1.46608e-07
1.46608e-07
1.46608e-07
1.46608e-07
1.46608e-07
1.46608e-07
1.46608e-07
1.46608e-07
1.46608e-07
1.46608e-07
1.46608e-07
1.46608e-07
1.46608e-07
1.46608e-07
1.46608e-07
1.46608e-07
1.46608e-07
1.46608e-07
1.46608e-07
1.46608e-07
1.46608e-07
1.46608e-07
1.46608e-07
1.46608e-07
1.46608e-07
1.46608e-07
1.46608e-07
1.46608e-07
1.46608e-07
1.46608e-07
1.46608e-07
1.46608e-07
1.46608e-07
1.46608e-07
1.46608e-07
1.46608e-07
1.46608e-07
1.46608e-07
1.46608e-07
1.46608e-07
1.46608e-07
1.46608e-07
1.46608e-07
1.46608e-07

VECTORS velocity float
0.00172935 0.000141101 0.00156735
0.00719164 -0.00945707 -0.00691831
0.00207547 0.00130904 -0.000479821
-5.63329e-15 -7.65164e-15 -1.08969e-13
0.00263011 0.0015182 0.00302688
3.64397e-15 5.42575e-16 -3.69011e-14
1.76443e-14 2.84246e-15 -2.87664e-13
0.000263592 0.00935154 0.0188637
-9.6879e-317 9.73506e-317 2.68131e-13
0.0065157 -0.00117721 -0.00102659
0.000100254 2.45104e-05 0.0213229
0.000996698 0.0129157 -0.0122558
7.39699e-05 -0.000460199 0.000617392
9.71467e-317 9.75789e-317 -8.23806e-13
0.000232905 0.00319915 -0.0194213
0.00021608 -0.0188772 0.00853981
0.000239824 0.0036582 0.0203129
0.00201223 0.000564369 0.00339641
0.00125445 -0.014186 0.00520898
7.31721e-05 -0.0139624 0.0177697
8.2206e-05 0.00735335 0.0206938
-0.0019019 0.000869434 0.00225608
-9.68849e-317 -9.75601e-317 2.88878e-12
0.00139163 0.0125705 0.00983794
2.63071e-15 1.0215e-14 2.12864e-14
0.00115994 0.0150909 -0.0108126
0.000635121 -0.0189734 0.00532859
-9.04772e-05 -0.0198168 -0.00850975
0.000580153 -0.00155632 -0.019609
0.000962409 0.00881948 -0.014976
0.00165857 0.0132488 -0.0049841
0.00106368 -0.00343572 -0.0150131
0.000667622 0.00323412 0.00270959
0.00250473 -0.00487463 0.0102257
0.0145061 2.38964e-05 0.00208138
0.00274444 -0.00685412 0.00920079
0.000700901 -0.0178571 -0.00625062
-9.80031e-05 -0.0226724 -0.00150721
-0.000288324 -0.0174768 0.0104092
0.00292807 0.0100468 0.00449245
0.00256772 -0.00158166 0.0179423
0.000108792 -0.0111914 0.019643
2.57175e-06 0.00617384 -0.0219241
0.00214546 0.00902763 0.00161914
0.000133341 0.000258515 0.000169355
-2.38649e-14 5.08879e-14 1.84335e-13
-0.000155003 -0.0191577 -0.0116575
0.00532473 0.00600581 -0.00674832
0.000495531 -0.00797711 -0.0190961
0.000471187 -0.0130975 -0.00052294
-0.00662766 0.00902746 -0.000295598
-8.44847e-05 -0.00863707 0.0167709
0.000574405 -0.00845671 -0.0168521
0.000425126 -0.00441042 0.0185002
0.00910722 -0.00948467 -0.00606812
-9.67556e-317 -9.75879e-317 -3.22607e-12
0.000840608 0.0183065 -0.00618974
0.0010792 0.0122191 -0.0183097
0.000572631 0.0199859 0.00488594
0.00292185 0.00945433 0.0065992
5.15339e-15 -4.38362e-14 1.39096e-13
0.00911949 0.00206899 -0.0043137
0.000831825 -0.0114801 0.00480966
0.000914221 0.0194788 -0.000554044
0.0016804 -0.0116752 0.00832354
0.000487101 0.0187827 0.00327987
1.35141e-05 -0.0173121 -0.0140412
6.12175e-15 -1.27062e-14 -1.56321e-13
-0.000513901 -0.000345861 -0.00079503
0.0062434 0.000923075 -0.0014547
5.52789e-15 -2.45378e-15 5.04897e-14
0.000760049 0.013356 -0.0155737
9.74157e-317 -9.69799e-317 9.23294e-13
0.114714 -0.00899824 0.00447233
0.00161924 0.00178046 -0.0172733
-0.000188922 -0.000855636 -0.00012634
-1.67967e-10 0.0205553 0.00103461
0.000147395 -0.0215187 -0.00598551
1.06701e-14 -2.29127e-14 -2.37918e-13
0.00498222 0.000349952 -0.000355748
3.90334e-15 7.52864e-15 2.61625e-13
0.00031778 -0.00410213 0.020123
0.00264294 0.011853 -0.00459166
0.000137504 -0.000878038 -0.0220739
0.00503423 -0.00119153 0.000549604
2.60597e-15 4.30375e-16 -4.25291e-14
0.000508198 -0.0128225 -0.014918
0.000298819 0.0194069 0.00822697
1.12808e-05 -0.00232718 0.0218874
0.00125999 0.00464943 0.00380022
0.0159944 0.00296187 -0.000534558
1.43032e-14 2.30417e-15 -2.33189e-13
0.00081404 -0.00488183 0.00682053
0.00289408 0.0154437 0.00101485
3.02427e-05 0.0206625 0.0087903
0.00137888 -0.00781475 -0.00531539
9.58743e-317 9.68145e-317 4.97437e-14
-1.1829e-10 0.0189582 -0.0078652
0.00220831 -0.0148105 -0.00464203
0.000248376 0.0106743 0.0159573
0.00332087 0.0102066 -0.00610803
-0.101658 0.0574769 -0.0482776
0.00256375 0.00756224 0.00854768
-1.31799e-14 1.89752e-14 2.5377e-13
0.000643208 -0.00058871 -0.0216458
0.00143954 -0.00705634 -0.0124816
4.98117e-05 -0.000537819 0.0216967
7.53171e-16 -1.26222e-15 -6.97779e-15
0.00612916 0.000760166 -0.000258342
0.000584254 0.00296067 0.0188139
0.000950897 0.0129245 -0.0179493
9.79411e-05 -0.0221969 -0.00206972
0.00338344 0.00846594 0.0193461
0.000446458 0.000381772 -0.000728042
0.000505601 0.0145145 -0.014596
0.000800996 -7.01737e-06 -0.00140509
0.00121668 0.0144941 0.00920475
-9.68799e-317 -9.69932e-317 9.23294e-13
-0.000795491 0.000689808 -0.00243971
-0.000724862 0.000244942 -0.00089996
0.00204962 0.00121426 -0.00299937
-2.07797e-14 -3.35139e-15 3.38791e-13
0.000642528 0.00962501 -0.0188973

VECTORS force float
1.54347e-06 9.23929e-07 1.02405e-06
0.0 0.0 -1.43822e-06
9.67951e-10 1.05536e-08 1.9605e-08
6.08805e-22 7.94093e-23 0.0
-2.35614e-09 -7.56611e-09 1.05401e-08
1.34996e-21 -1.61797e-21 2.11758e-22
-5.29396e-23 2.0299e-21 0.0
-1.43789e-09 1.21554e-08 9.29052e-10
0.0 0.0 0.0
2.80984e-08 -1.06098e-08 1.05555e-08
-2.04112e-07 -5.04769e-09 1.22432e-07
3.44019e-09 -1.73386e-09 -1.78009e-08
5.80223e-07 -1.23472e-07 2.3352e-06
0.0 0.0 0.0
-1.30043e-07 1.29761e-08 2.73583e-08
2.02057e-09 -1.72104e-08 1.11275e-08
-1.17666e-09 1.19383e-08 7.33459e-09
1.32207e-06 3.59845e-07 2.34743e-07
2.54588e-09 -8.60623e-09 -1.36396e-08
1.42198e-10 6.13111e-09 1.03408e-08
-9.83946e-10 1.27129e-08 3.70494e-11
-1.12535e-05 5.25058e-06 6.01834e-06
0.0 0.0 0.0
-8.81202e-09 -1.19286e-08 -1.49255e-08
-1.3976e-20 -5.29396e-22 2.11758e-21
-3.94516e-07 1.04166e-06 8.14413e-07
-1.20912e-08 -7.40176e-08 4.02196e-08
8.02343e-10 -9.97873e-09 7.32574e-09
-6.92772e-09 -1.59412e-08 -7.8877e-08
3.29944e-08 -1.6497e-08 -4.33514e-09
-4.54744e-06 1.48658e-05 -1.19079e-05
2.97964e-09 -7.55122e-09 3.96971e-08
-2.05989e-08 2.90991e-09 1.48648e-08
-7.18087e-08 -4.76377e-07 5.33148e-07
-3.27263e-07 1.056e-06 -1.14693e-06
-4.02995e-08 -4.02944e-07 3.92527e-07
-6.71923e-09 -1.96013e-08 1.8445e-09
-2.29104e-09 -3.13134e-09 1.01842e-08
1.11858e-08 3.06978e-09 7.71465e-09
6.20518e-09 -4.47326e-08 -1.44707e-08
-1.05771e-08 -1.31489e-08 5.05605e-08
-3.87626e-08 -1.79104e-08 7.21279e-08
-1.17656e-13 -1.66869e-08 -4.69756e-09
-1.27742e-09 9.83439e-10 -1.68728e-08
4.15528e-07 9.32365e-07 -6.44994e-07
-1.30761e-20 -4.44692e-21 2.5411e-21
-7.48757e-10 -8.15257e-09 9.60492e-09
-2.13488e-07 5.72353e-07 -1.4834e-06
-8.51391e-10 1.6972e-09 1.75902e-08
1.59321e-08 3.39938e-08 -1.14334e-08
3.36109e-07 -3.25514e-07 -5.46193e-08
1.54869e-12 1.37826e-08 1.53649e-08
-5.24375e-09 -5.75211e-09 7.29626e-09
6.7492e-08 1.39245e-08 4.52037e-08
-8.59579e-07 -3.39782e-07 -8.0996e-07
0.0 0.0 0.0
-4.56741e-07 2.65566e-06 1.13849e-05
1.04954e-07 1.28516e-07 -2.22341e-07
-2.10716e-10 3.99691e-09 -1.30361e-08
9.13321e-09 -6.43801e-08 -3.066e-08
7.3983e-21 -6.35275e-22 -2.11758e-22
-1.77799e-07 6.65709e-07 -1.4011e-06
-1.69224e-08 1.92817e-08 -2.02596e-08
-8.19629e-09 1.6176e-08 -8.86952e-09
5.60167e-09 3.94626e-08 -2.50612e-08
2.02429e-09 -6.62326e-09 -1.14345e-08
5.56164e-11 -1.02417e-08 6.26301e-09
-2.25523e-20 3.83812e-21 -6.35275e-22
1.91044e-08 -5.72658e-09 4.13974e-08
8.5231e-07 -5.91748e-07 1.11037e-06
2.91168e-22 7.9277e-21 2.11758e-22
3.84483e-09 -2.32108e-08 4.2786e-10
0.0 0.0 0.0
-5.49366e-07 6.33313e-08 -2.18766e-08
-9.0597e-06 6.15063e-06 -3.28421e-05
2.8733e-09 6.61762e-09 2.70644e-09
3.06939e-15 5.34426e-10 -1.36982e-08
1.55787e-09 -5.90098e-09 8.64729e-09
-1.3976e-20 -1.36849e-20 8.47033e-22
1.64418e-07 -1.51994e-07 6.53774e-07
6.58436e-22 2.54772e-20 -6.35275e-22
-1.40749e-09 9.63543e-09 6.96008e-09
-5.56204e-09 3.24758e-08 1.10945e-09
-8.94057e-10 -1.15035e-08 -5.1438e-09
3.59779e-07 1.03952e-06 3.2443e-07
3.03079e-21 -1.92121e-20 0.0
-4.36814e-09 -1.6314e-08 -4.71659e-09
-3.20402e-09 8.44525e-09 -8.7507e-09
-8.88216e-10 1.05678e-08 5.747e-09
-9.54358e-09 -2.28776e-08 7.13182e-09
-1.98434e-06 2.66044e-06 1.15142e-05
5.29396e-23 4.26825e-22 0.0
-6.33566e-09 -1.44536e-08 1.32349e-08
-7.55088e-09 -9.68982e-10 8.57118e-09
2.08573e-09 6.90562e-09 -1.01814e-08
-5.84516e-09 -3.46206e-08 -3.78413e-08
0.0 0.0 0.0
-1.79987e-15 -5.13863e-09 -1.26588e-08
-1.24108e-08 -4.07019e-08 -1.55929e-08
1.84011e-09 1.11008e-08 -1.34255e-08
3.29218e-05 -2.05125e-05 -7.02146e-06
-0.0766019 0.672053 -0.291997
5.67027e-09 -1.53883e-08 -1.37688e-08
-6.66377e-20 -1.37775e-20 -3.17637e-21
2.84383e-09 -1.07031e-08 -2.78524e-09
1.77939e-08 -1.22182e-08 2.33111e-08
-9.69089e-10 1.03741e-08 5.94155e-09
0.0 -4.07635e-21 6.35275e-22
1.29261e-07 -2.84434e-07 6.68893e-07
-4.59778e-09 1.25454e-08 2.59237e-08
1.01464e-08 -1.32226e-08 -5.21371e-09
-3.14748e-10 -6.81981e-09 1.1308e-08
-2.99558e-08 3.06239e-08 4.45728e-09
-5.59775e-07 2.32174e-07 3.35594e-07
-3.02645e-09 -2.6285e-09 -1.28164e-08
1.53107e-07 7.34183e-07 -5.62201e-07
-8.09736e-09 3.8612e-08 1.31047e-08
0.0 0.0 0.0
2.05986e-08 -8.52219e-09 4.41723e-08
2.47798e-08 -1.11058e-08 3.86322e-08
-7.09006e-06 5.84076e-06 3.21446e-06
-3.81165e-21 -8.01141e-20 -1.05879e-21
9.61029e-10 -8.68959e-09 -7.22321e-09
