# vtk DataFile Version 3.0
LIGGGHTS particles timestep 10200000
ASCII
DATASET POLYDATA
POINTS 156 float
0.016655 0.0142389 0.0135335
0.0216501 0.0147897 0.0127654
0.016332 0.0213477 0.0337997
0.0306551 0.0219542 0.0147203
0.021982 0.0237698 0.0137899
0.020358 0.024345 0.0136694
0.00938048 0.0183393 0.00587271
0.0220734 0.0179158 0.00735902
0.0287581 0.0207027 0.00754684
0.0366849 0.0218066 0.0435188
0.0239094 0.0226977 0.0154235
0.0333898 0.0154654 0.00914589
0.0191156 0.0244539 0.0137203
0.027469 0.0156748 0.00881578
0.0246529 0.0173205 0.016491
0.0212759 0.0204728 0.0165559
0.0310151 0.0204376 0.0155458
0.0186988 0.0220608 0.0163008
0.0211606 0.0241354 0.0142136
0.0191391 0.0232767 0.0133064
0.0185378 0.0234191 0.0112917
0.0189692 0.0211308 0.0156625
0.0296408 0.0233075 0.010597
0.0182197 0.0232672 0.0130228
0.0235795 0.0220783 0.0192369
0.0132594 0.021022 0.0154947
0.0240834 0.0228409 0.00938993
0.0189469 0.0224564 0.0146856
0.003617 0.0285782 0.0435188
0.0317983 0.0199703 0.0156875
0.0209418 0.0140477 0.0134145
0.0196051 0.0193773 0.00612808
0.0317076 0.0175517 0.0155083
0.0198631 0.0213092 0.0153284
0.0206023 0.0223837 0.0171648
0.0329743 0.0150278 0.0129608
0.0312612 0.0193431 0.0158006
0.031871 0.0167576 0.0151531
0.0177396 0.0234298 0.0112941
0.0163719 0.0237593 0.0138442
0.0228004 0.0146403 0.0143645
0.0170684 0.0150769 0.0149259
0.0294779 0.022998 0.00968078
0.0198644 0.0233384 0.0125359
0.0212064 0.014995 0.00999568
0.025129 0.0200795 0.0158002
0.0205497 0.0234844 0.0149829
0.0255615 0.018054 0.0198594
0.0299848 0.0233407 0.0119513
0.0321246 0.0159815 0.0145149
0.0326498 0.0148317 0.012199
0.0231888 0.016892 0.0241857
0.0293118 0.0226178 0.00897761
0.0180305 0.0234333 0.0121065
0.0240514 0.0213931 0.0163871
0.0279223 0.0170237 0.00769688
0.0256701 0.0204997 0.0165286
0.0204625 0.0227645 0.0142519
0.0214483 0.0168437 0.00645098
0.0230255 0.0217183 0.00835761
0.019496 0.0143484 0.0139102
0.0265812 0.0149431 0.0126226
0.0171596 0.0243572 0.013929
0.0551527 0.0181697 0.00595147
0.0340699 0.017924 0.00733745
0.02034 0.0154238 0.0140952
0.0337723 0.0165022 0.00802428
0.0186378 0.024116 0.0129688
0.0303903 0.00406748 0.0435188
0.0205409 0.0149466 0.0132373
0.0279034 0.0150142 0.0100069
0.0207811 0.021642 0.0152383
0.0329183 0.014768 0.011213
0.0184766 0.0143216 0.0154992
0.0164265 0.0229182 0.015116
0.0242077 0.0230433 0.0131556
0.0192 0.0235495 0.014858
0.0346861 0.0208367 0.00769521
0.028074 0.0178973 0.00736214
0.0218011 0.015492 0.00901386
0.025786 0.0194364 0.0158753
0.0570019 0.0175547 0.00590579
0.0195606 0.0139964 0.0129765
0.0170652 0.0238301 0.0175341
0.019673 0.0241516 0.0129802
0.0228016 0.0235015 0.0142963
0.0315105 0.018434 0.0157632
0.0221348 0.00230077 0.0435188
0.0156149 0.0234439 0.0144162
0.0269708 0.0148015 0.011039
0.0213142 0.015244 0.0137966
0.0120247 0.0189453 0.0227744
0.0137306 0.021772 0.0150256
0.0141741 0.022418 0.0144044
0.0187754 0.018815 0.0212667
0.024821 0.0212373 0.0156975
0.0181424 0.0148848 0.0147208
0.0290905 0.0220565 0.00839311
0.0277002 0.016281 0.00822302
0.0267784 0.0147686 0.0118274
0.0232055 0.0223856 0.0088977
0.0208158 0.0146372 0.0120293
0.0263799 0.0153561 0.0137119
0.028284 0.0187693 0.00720154
0.0211646 0.0239914 0.0131167
0.0176066 0.0240748 0.0130794
0.0285455 0.0197465 0.00725081
0.016028 0.0149224 0.0131589
0.0185606 0.0139944 0.0129798
0.0268146 0.0190088 0.00598366
0.0216344 0.0160983 0.0083445
0.0195708 0.01966 0.0159011
0.0222479 0.0154309 0.0141012
0.0175268 0.0230518 0.0157192
0.032321 0.0154726 0.013836
0.0302384 0.013384 0.034459
0.0253412 0.0189388 0.0162371
0.0304209 0.0225433 0.0139642
0.0221996 0.00109062 0.0435188
0.0142377 0.020433 0.015722
0.0302131 0.0231075 0.0129966
0.018448 0.0231926 0.0140801
0.0199819 0.0234261 0.0137469
0.0176112 0.0141067 0.0132727
0.0485377 0.00243075 0.0601465
0.0332474 0.015125 0.00974016
0.0188927 0.0233802 0.0123722
0.0199642 0.022086 0.0147462
0.022162 0.0206682 0.0174871
0.0182262 0.0232157 0.0105717
0.0206313 0.0180342 0.01593
0.024647 0.0219572 0.0153869
0.0289226 0.0214897 0.0078954
0.108836 0.0200055 0.00584234
0.0233843 0.0228719 0.00952585
0.021971 0.01449 0.0137939
0.0173869 0.0145238 0.0141537
0.0214447 0.0186058 0.0159181
0.0197165 0.0176612 0.0158191
0.0254603 0.0207585 0.0155464
0.0223026 0.0222186 0.0157109
0.0204626 0.0190423 0.015953
0.0164425 0.0222672 0.0166641
0.0194062 0.0234805 0.0117061
0.0214891 0.0229045 0.0150928
0.0147748 0.0231015 0.014837
0.0205598 0.0200557 0.0158685
0.00937694 0.00505359 0.0435188
0.0172579 0.0234676 0.0143613
0.0181725 0.0242081 0.0139908
0.0195249 0.0186369 0.015924
0.0185332 0.015718 0.0155921
0.0186704 0.0139916 0.0164453
0.0240266 0.020261 0.0166134
0.024947 0.0190645 0.00586966
0.0272052 0.0151238 0.00978796

VERTICES 156 312
1 0
1 1
1 2
1 3
1 4
1 5
1 6
1 7
1 8
1 9
1 10
1 11
1 12
1 13
1 14
1 15
1 16
1 17
1 18
1 19
1 20
1 21
1 22
1 23
1 24
1 25
1 26
1 27
1 28
1 29
1 30
1 31
1 32
1 33
1 34
1 35
1 36
1 37
1 38
1 39
1 40
1 41
1 42
1 43
1 44
1 45
1 46
1 47
1 48
1 49
1 50
1 51
1 52
1 53
1 54
1 55
1 56
1 57
1 58
1 59
1 60
1 61
1 62
1 63
1 64
1 65
1 66
1 67
1 68
1 69
1 70
1 71
1 72
1 73
1 74
1 75
1 76
1 77
1 78
1 79
1 80
1 81
1 82
1 83
1 84
1 85
1 86
1 87
1 88
1 89
1 90
1 91
1 92
1 93
1 94
1 95
1 96
1 97
1 98
1 99
1 100
1 101
1 102
1 103
1 104
1 105
1 106
1 107
1 108
1 109
1 110
1 111
1 112
1 113
1 114
1 115
1 116
1 117
1 118
1 119
1 120
1 121
1 122
1 123
1 124
1 125
1 126
1 127
1 128
1 129
1 130
1 131
1 132
1 133
1 134
1 135
1 136
1 137
1 138
1 139
1 140
1 141
1 142
1 143
1 144
1 145
1 146
1 147
1 148
1 149
1 150
1 151
1 152
1 153
1 154
1 155

POINT_DATA 156
SCALARS id int 1
LOOKUP_TABLE default
1
2
4
5
11
13
15
16
17
18
19
20
23
24
25
27
28
29
31
32
33
35
37
40
41
43
44
47
49
52
54
57
59
62
63
65
67
68
71
73
74
76
79
80
83
84
85
86
87
88
89
90
92
97
102
103
105
106
108
109
110
112
116
121
122
124
125
126
128
130
131
133
135
137
138
139
141
142
143
145
147
149
150
151
157
158
160
161
165
166
167
170
171
173
174
177
179
185
186
187
191
193
194
197
199
200
205
206
211
215
220
221
224
225
226
227
228
229
232
235
237
240
241
242
246
247
248
250
252
253
256
257
258
260
262
263
268
269
270
271
272
273
274
275
277
282
283
284
286
288
289
291
294
298
299
300

SCALARS type int 1
LOOKUP_TABLE default
1
1
1
1
1
1
1
1
1
1
1
1
1
1
1
1
1
1
1
1
1
1
1
1
1
1
1
1
1
1
1
1
1
1
1
1
1
1
1
1
1
1
1
1
1
1
1
1
1
1
1
1
1
1
1
1
1
1
1
1
1
1
1
1
1
1
1
1
1
1
1
1
1
1
1
1
1
1
1
1
1
1
1
1
1
1
1
1
1
1
1
1
1
1
1
1
1
1
1
1
1
1
1
1
1
1
1
1
1
1
1
1
1
1
1
1
1
1
1
1
1
1
1
1
1
1
1
1
1
1
1
1
1
1
1
1
1
1
1
1
1
1
1
1
1
1
1
1
1
1
1
1
1
1
1
1

SCALARS radius float 1
LOOKUP_TABLE default
0.0005
0.0005
0.0005
0.0005
0.0005
0.0005
0.0005
0.0005
0.0005
0.0005
0.0005
0.0005
0.0005
0.0005
0.0005
0.0005
0.0005
0.0005
0.0005
0.0005
0.0005
0.0005
0.0005
0.0005
0.0005
0.0005
0.0005
0.0005
0.0005
0.0005
0.0005
0.0005
0.0005
0.0005
0.0005
0.0005
0.0005
0.0005
0.0005
0.0005
0.0005
0.0005
0.0005
0.0005
0.0005
0.0005
0.0005
0.0005
0.0005
0.0005
0.0005
0.0005
0.0005
0.0005
0.0005
0.0005
0.0005
0.0005
0.0005
0.0005
0.0005
0.0005
0.0005
0.0005
0.0005
0.0005
0.0005
0.0005
0.0005
0.0005
0.0005
0.0005
0.0005
0.0005
0.0005
0.0005
0.0005
0.0005
0.0005
0.0005
0.0005
0.0005
0.0005
0.0005
0.0005
0.0005
0.0005
0.0005
0.0005
0.0005
0.0005
0.0005
0.0005
0.0005
0.0005
0.0005
0.0005
0.0005
0.0005
0.0005
0.0005
0.0005
0.0005
0.0005
0.0005
0.0005
0.0005
0.0005
0.0005
0.0005
0.0005
0.0005
0.0005
0.0005
0.0005
0.0005
0.0005
0.0005
0.0005
0.0005
0.0005
0.0005
0.0005
0.0005
0.0005
0.0005
0.0005
0.0005
0.0005
0.0005
0.0005
0.0005
0.0005
0.0005
0.0005
0.0005
0.0005
0.0005
0.0005
0.0005
0.0005
0.0005
0.0005
0.0005
0.0005
0.0005
0.0005
0.0005
0.0005
0.0005
0.0005
0.0005
0.0005
0.0005
0.0005
0.0005

SCALARS mass float 1
LOOKUP_TABLE default
1.46608e-07
1.46608e-07
1.46608e-07
1.46608e-07
1.46608e-07
1.46608e-07
1.46608e-07
1.46608e-07
1.46608e-07
1.46608e-07
1.46608e-07
1.46608e-07
1.46608e-07
1.46608e-07
1.46608e-07
1.46608e-07
1.46608e-07
1.46608e-07
1.46608e-07
1.46608e-07
1.46608e-07
1.46608e-07
1.46608e-07
1.46608e-07
1.46608e-07
1.46608e-07
1.46608e-07
1.46608e-07
1.46608e-07
1.46608e-07
1.46608e-07
1.46608e-07
1.46608e-07
1.46608e-07
1.46608e-07
1.46608e-07
1.46608e-07
1.46608e-07
1.46608e-07
1.46608e-07
1.46608e-07
1.46608e-07
1.46608e-07
1.46608e-07
1.46608e-07
1.46608e-07
1.46608e-07
1.46608e-07
1.46608e-07
1.46608e-07
1.46608e-07
1.46608e-07
1.46608e-07
1.46608e-07
1.46608e-07
1.46608e-07
1.46608e-07
1.46608e-07
1.46608e-07
1.46608e-07
1.46608e-07
1.46608e-07
1.46608e-07
1.46608e-07
1.46608e-07
1.46608e-07
1.46608e-07
1.46608e-07
1.46608e-07
1.46608e-07
1.46608e-07
1.46608e-07
1.46608e-07
1.46608e-07
1.46608e-07
1.46608e-07
1.46608e-07
1.46608e-07
1.46608e-07
1.46608e-07
1.46608e-07
1.46608e-07
1.46608e-07
1.46608e-07
1.46608e-07
1.46608e-07
1.46608e-07
1.46608e-07
1.46608e-07
1.46608e-07
1.46608e-07
1.46608e-07
1.46608e-07
1.46608e-07
1.46608e-07
1.46608e-07
1.46608e-07
1.46608e-07
1.46608e-07
1.46608e-07
1.46608e-07
1.46608e-07
1.46608e-07
1.46608e-07
1.46608e-07
1.46608e-07
1.46608e-07
1.46608e-07
1.46608e-07
1.46608e-07
1.46608e-07
1.46608e-07
1.46608e-07
1.46608e-07
1.46608e-07
1.46608e-07
1.46608e-07
1.46608e-07
1.46608e-07
1.46608e-07
1.46608e-07
1.46608e-07
1.46608e-07
1.46608e-07
1.46608e-07
1.46608e-07
1.46608e-07
1.46608e-07
1.46608e-07
1.46608e-07
1.46608e-07
1.46608e-07
1.46608e-07
1.46608e-07
1.46608e-07
1.46608e-07
1.46608e-07
1.46608e-07
1.46608e-07
1.46608e-07
1.46608e-07
1.46608e-07
1.46608e-07
1.46608e-07
1.46608e-07
1.46608e-07
1.46608e-07
1.46608e-07
1.46608e-07
1.46608e-07
1.46608e-07
1.46608e-07
1.46608e-07
1.46608e-07
1.46608e-07
1.46608e-07

VECTORS velocity float
-0.000251113 0.000432076 -0.00284145
-0.00635214 -0.00191103 -0.00404483
-0.162717 -0.0528347 0.519693
0.0032841 0.00846484 -0.00674285
0.000531149 0.000648434 -0.0011098
0.0018105 0.0195578 0.00185518
3.64547e-15 5.61227e-16 -3.69006e-14
-4.57337e-05 -0.0177935 0.00469858
0.000636132 -0.0187666 -0.00718091
-9.6879e-317 9.73506e-317 2.68131e-13
-0.0280808 0.0335443 0.024089
0.00152817 -0.0111054 0.0173467
0.000803788 -0.000103955 -0.000309697
0.00219867 -0.00894894 0.0155015
0.0452269 -0.0856792 -0.0473409
0.022317 -0.00359483 0.028637
0.00111234 0.020395 -0.00738997
0.00995847 -0.0288973 -0.0602095
0.000790527 -0.00112325 -0.00175295
0.00200057 0.00732558 -0.000834575
0.00308424 0.00156467 -0.00236965
0.00055488 0.0199934 -0.00950713
0.0010282 -0.0032293 -0.0155752
0.00312908 0.00129236 -0.00424194
0.21713 -0.102612 0.394517
0.00809182 0.0136009 -0.0060382
0.00302125 -0.00687248 -0.00571684
-0.0239793 -0.0167284 -0.00480996
-9.68849e-317 -9.75601e-317 2.88878e-12
0.00114079 0.00250288 0.00274895
-0.000795918 0.00142423 -0.00407008
-3.58959e-14 1.61016e-14 -3.28527e-13
0.000278947 0.0185976 0.00616287
0.00216925 0.0142684 -0.00960126
-0.0454164 -0.149597 0.207766
-9.82183e-05 0.00630262 0.0183895
0.0011174 0.0141771 -0.00134945
0.00110908 0.00947937 0.00769007
0.00315738 0.000721492 -0.00480464
0.000872792 0.00144459 0.00106691
0.00216221 0.000136094 0.000654401
-0.00380114 0.00140696 0.0017329
0.000255869 -0.00775495 -0.0187566
0.0052311 0.000405598 -0.00244857
0.000311728 -0.00634762 0.0189029
0.00129323 0.00445187 0.00104778
0.0533327 0.023864 0.0472132
-0.0387473 -0.0503918 0.0133915
0.0004845 0.00159838 -0.0206001
-0.000271784 0.0144165 0.0156158
0.000718738 0.00373002 0.0190182
0.0157661 -0.15602 0.149219
0.000526478 -0.0121333 -0.0160616
0.0047355 0.00287039 -0.00537898
0.115623 -0.129768 0.0553553
0.00109689 -0.016643 0.00842527
0.000327756 0.00334176 0.00142558
0.00222258 0.0140527 -0.0128101
-2.38778e-14 5.07942e-14 1.84359e-13
0.00208474 -0.0132346 -0.0104469
4.51005e-05 -0.000784925 -0.00147109
0.00318765 0.000576813 0.00996747
0.000144539 0.000444469 0.000365341
-1.30051e-14 -1.76841e-14 -2.51654e-13
0.00123128 -0.0167822 0.00493461
0.00280862 0.00486505 0.0079601
0.000774257 -0.0156104 0.0106933
0.00145869 0.000372222 -0.000854822
-9.67556e-317 -9.75879e-317 -3.22607e-12
0.00147384 0.00618284 0.0127934
0.000249203 -0.00806578 0.0199621
0.000626464 0.0168016 -0.0137804
7.47148e-05 -0.0023239 0.0218632
0.0203531 -0.0018738 0.0458179
-0.00142472 -0.0382804 0.0249797
0.00144414 0.00910153 -0.0173205
-0.0321621 -0.00987877 0.0374869
0.00105724 -0.00715244 -0.00330273
0.000358693 -0.0198282 0.00531584
5.47078e-05 -0.0121203 0.0174528
0.00151964 0.00770036 -0.0017528
4.3739e-15 1.18807e-14 2.80768e-13
0.000700438 0.00130335 -0.00212508
-0.133656 -0.000974874 -0.0835058
0.00218818 0.000397202 -0.000282875
-0.000351764 1.77585e-05 -0.000739154
0.000208758 0.02053 0.00373046
9.74157e-317 -9.69799e-317 9.23294e-13
-0.00100692 -0.000921808 -0.00247881
0.000725258 -0.0023043 0.0182863
0.00372035 0.00489368 0.00983883
-0.00837596 -0.139405 0.0752593
0.00065281 0.0015603 0.000807448
0.000175953 0.000989855 -0.000124834
-0.153731 -0.538568 0.725228
0.00190164 0.0156853 -0.00607062
0.000182854 0.0106701 0.0232096
0.000697964 -0.0147858 -0.0143082
0.00180984 -0.0139564 0.0135681
-0.000463796 -0.000359308 0.0146101
0.00168866 -0.0113879 -0.0124794
0.00421277 0.000564613 0.00414455
0.000924936 0.00794082 0.0143489
0.00122388 -0.0176303 0.000447288
-0.000471694 0.00270211 -0.00104959
-1.46996e-05 -0.000283617 -8.65199e-05
-0.000186627 -0.0185573 -0.00403652
-0.000940758 0.00112774 -0.001859
0.000591322 0.00124586 -0.00193217
-1.91092e-14 -3.07691e-15 3.11554e-13
0.000374447 -0.0169415 0.0149436
-0.00712926 0.0265712 -0.00360572
0.00567015 0.00455748 0.00823535
-0.154764 -0.107088 0.0793627
0.000545741 0.0114613 0.0198861
-0.0399477 0.00766874 -0.101764
0.000504341 0.0141086 0.00172169
0.000551641 0.0112324 -0.0163922
9.58743e-317 9.68145e-317 4.97437e-14
1.4188e-10 0.0195032 -0.00633008
5.76364e-05 0.00957043 -0.0211413
0.0103511 0.0164718 -0.0243755
-0.000736776 0.0167598 -0.00421644
0.000663262 0.000218186 -0.00101727
0.356957 -0.228191 0.100307
0.00201971 -0.00472356 0.0104303
0.00365846 0.00115052 -0.000915343
0.00287779 0.0120887 -0.0123337
0.0722094 -0.0967275 0.153907
0.000254642 -0.00104983 -0.00557396
0.000269435 0.0225259 0.00438656
0.00123254 0.00514073 -0.00290401
0.00148566 -0.0147371 -0.00882822
7.67116e-16 -1.26306e-15 -6.97592e-15
0.0012948 -0.00590296 -0.0129891
0.00370553 0.00344785 -0.000452323
0.0020394 0.00579162 -0.00510552
-4.17569e-06 0.0229268 0.00234214
2.93209e-05 0.0220722 0.00781325
-0.00143272 -0.00151041 0.00182809
-0.0268685 -0.0635958 0.0420817
0.000774163 0.0225387 -0.00170803
-0.133627 -0.144409 0.186494
0.00315014 -0.000102422 -0.000638047
-0.0322685 -0.0257659 0.0271403
-0.00173075 -0.00817084 -0.00952308
0.0056074 0.0353322 -0.0195676
-9.68799e-317 -9.69932e-317 9.23294e-13
0.00031308 0.00132326 0.000491195
-0.0193329 -0.00587488 -0.0356611
1.07192e-05 0.0229659 0.00200962
-0.00136125 -0.0264185 -0.0231194
0.0643011 0.000894158 0.0780758
-0.00242118 0.0233989 -0.00559328
2.61132e-15 4.0231e-16 -4.25291e-14
1.18045e-05 -0.00873686 0.0198853

VECTORS force float
-6.93405e-07 -5.01942e-08 -7.03388e-07
1.44429e-08 -1.17512e-08 4.26746e-08
0.0 0.0 -1.43822e-06
4.72184e-08 -1.20487e-07 1.02252e-07
-1.4763e-06 2.47977e-06 4.02379e-06
4.3347e-05 -9.053e-06 -1.33017e-05
-1.11173e-21 3.20185e-20 4.23516e-22
-6.25443e-09 -3.11085e-08 2.41634e-08
-4.27688e-08 -1.80293e-07 -1.088e-07
0.0 0.0 0.0
0.0 0.0 -1.43822e-06
4.82644e-09 -3.68397e-08 2.73962e-08
-3.63001e-06 2.58497e-06 1.11206e-06
-3.31733e-08 -1.18512e-07 1.84732e-07
0.0 0.0 -1.43822e-06
0.0 0.0 -1.43822e-06
-1.02769e-08 -3.08898e-08 8.7513e-09
0.0 0.0 -1.43822e-06
-1.52693e-06 3.58064e-05 -2.59951e-05
-2.18168e-06 3.18647e-05 -1.82595e-06
9.31184e-07 -3.60986e-07 -1.87407e-07
1.18445e-06 2.11653e-07 -4.20586e-07
1.40046e-08 -2.47347e-09 4.42765e-08
1.3014e-06 2.95454e-06 3.67141e-06
0.0 0.0 -1.43822e-06
2.64286e-09 2.56498e-09 -7.22493e-09
-0.000158135 -0.000102296 -0.000152041
0.0 0.0 -1.43822e-06
0.0 0.0 0.0
-3.75978e-08 1.01467e-07 -3.91544e-08
-2.14918e-07 3.45418e-07 -8.92358e-07
6.61744e-22 5.06896e-21 0.0
1.93982e-09 2.09567e-09 -6.67615e-09
4.4005e-06 3.95308e-07 2.80252e-07
0.0 0.0 -1.43822e-06
-9.48125e-07 1.84178e-07 5.14389e-07
-1.50503e-08 4.91083e-08 -9.30389e-09
2.62311e-09 -1.59312e-08 -1.47889e-08
2.98293e-06 -1.21787e-06 1.88769e-06
1.59166e-06 5.19615e-07 1.47068e-06
4.03321e-06 -1.03189e-07 3.67602e-06
6.76406e-08 -3.33816e-07 -4.23884e-07
2.66944e-08 5.14392e-08 9.2028e-08
7.48815e-06 -2.35354e-06 2.26606e-05
-2.50947e-09 6.89039e-09 1.37627e-08
2.18754e-07 -6.03274e-08 -1.32613e-07
0.0 0.0 -1.43822e-06
0.0 0.0 -1.43822e-06
-4.47158e-09 -6.54336e-09 -1.17326e-08
-8.82811e-09 2.56041e-08 -1.71691e-09
2.32328e-07 2.08423e-07 2.98616e-08
0.0 0.0 -1.43822e-06
-4.81937e-08 -1.75436e-07 -8.95668e-08
3.37559e-06 2.48323e-07 7.71752e-06
0.0 0.0 -1.43822e-06
-1.52379e-08 -1.48118e-08 1.88222e-08
2.81845e-07 -6.05166e-07 -4.82071e-07
-3.8887e-06 3.62735e-05 2.16138e-06
-7.36919e-20 3.79577e-20 -1.88465e-20
4.25861e-08 2.59135e-07 1.77167e-07
3.06224e-07 -2.78023e-08 1.10785e-07
3.74938e-06 7.55887e-06 2.5958e-05
1.23842e-06 1.15041e-07 3.38402e-07
5.29396e-23 1.92965e-20 -1.48231e-21
-2.19831e-09 -3.77351e-09 1.42093e-08
3.23527e-09 -2.86572e-07 -4.46335e-07
-3.64965e-09 -9.61979e-09 2.18206e-08
-2.27347e-06 3.27474e-06 2.42933e-06
0.0 0.0 0.0
-1.15043e-06 7.89619e-08 1.95721e-06
6.12284e-10 6.92822e-09 7.54932e-09
2.33758e-06 -3.21835e-06 -4.71699e-07
-7.13276e-10 1.12553e-08 4.78067e-09
0.0 0.0 -1.43822e-06
0.0 0.0 -1.43822e-06
1.66259e-09 -2.78416e-08 1.42189e-08
0.0 0.0 -1.43822e-06
-1.15515e-08 -3.05219e-10 -1.01786e-08
-3.36535e-10 -1.79526e-09 9.71602e-09
2.87068e-10 1.37153e-08 3.68312e-09
1.31014e-07 -2.48241e-07 -1.62443e-07
-6.93508e-20 -1.43599e-20 1.90582e-21
8.02547e-08 -2.32735e-08 -1.00295e-08
0.0 0.0 -1.43822e-06
-6.64206e-06 -1.45362e-06 1.3482e-05
-4.44442e-07 2.95443e-07 -5.32462e-07
2.54077e-10 9.13552e-10 -8.8061e-09
0.0 0.0 0.0
-1.61532e-08 -1.62894e-07 -8.5196e-08
-4.65003e-05 -7.20539e-06 8.06197e-05
2.8769e-06 6.43859e-07 3.23459e-06
0.0 0.0 -1.43822e-06
6.14128e-09 1.90818e-08 9.68534e-09
3.97466e-09 1.20118e-08 -4.30596e-09
0.0 0.0 -1.43822e-06
2.24353e-07 6.46022e-07 8.88614e-07
0.0 0.0 -1.43822e-06
-5.07918e-09 -8.8045e-08 -6.70586e-08
-3.05572e-08 -6.26192e-08 4.41362e-08
1.77749e-05 -5.08499e-06 -8.07248e-05
1.17331e-07 6.15453e-07 1.72616e-06
-3.21832e-09 -9.48142e-09 1.56455e-08
-3.0981e-10 3.81607e-08 1.7268e-08
9.74672e-09 8.56569e-09 1.4696e-08
1.32845e-08 -2.37243e-08 1.13497e-07
-2.1203e-09 1.20038e-08 -4.11628e-09
-4.33531e-09 1.8959e-09 2.49237e-08
5.55866e-08 -6.43738e-07 -6.78284e-07
1.4819e-07 -6.72329e-08 -2.90703e-07
-2.77933e-22 -1.65436e-24 0.0
-5.83757e-09 1.28801e-08 -6.07269e-08
3.73842e-07 -2.09725e-07 1.47475e-09
2.59067e-06 2.45543e-06 8.9519e-07
0.0 0.0 -1.43822e-06
3.49622e-09 1.10533e-08 3.40425e-08
-3.13514e-07 1.63228e-07 -9.84445e-07
1.59119e-08 2.04107e-07 -5.44348e-07
-9.80614e-09 2.25435e-08 -3.74898e-08
0.0 0.0 0.0
1.9511e-16 -4.17379e-09 -1.29898e-08
8.61564e-10 -1.08572e-08 -6.1481e-09
0.0 0.0 -1.43822e-06
-1.35944e-05 7.61751e-05 -4.93295e-06
-4.76123e-07 5.20807e-08 3.99708e-07
0.0 0.0 -1.43822e-06
-1.95356e-08 -7.94103e-09 3.7618e-08
6.04056e-06 -7.1465e-08 6.95756e-06
-1.58821e-06 4.80131e-06 -2.49218e-06
0.0 0.0 -1.43822e-06
-1.00318e-06 1.91939e-07 -5.0445e-08
4.39661e-07 -1.07516e-06 6.27958e-07
-1.04481e-07 3.76493e-07 2.82942e-07
-2.91539e-08 -7.99213e-07 -3.45976e-07
-2.64698e-23 1.79995e-21 -2.11758e-22
-4.81879e-06 -1.61358e-06 1.80249e-05
-2.47739e-07 2.20698e-07 -1.20293e-06
0.0 0.0 -1.43822e-06
4.33073e-07 -1.27257e-06 -1.99692e-07
2.19151e-07 -4.92862e-07 -1.39919e-07
-6.50787e-08 1.60563e-07 -9.17234e-08
0.0 0.0 -1.43822e-06
0.0 0.0 -1.43822e-06
0.0 0.0 -1.43822e-06
1.52144e-05 -5.35478e-06 -5.9807e-07
0.0 0.0 -1.43822e-06
2.32703e-07 -2.57502e-07 -5.74465e-07
0.0 0.0 -1.43822e-06
0.0 0.0 0.0
5.90975e-07 -2.68705e-07 1.03653e-06
0.0 0.0 -1.43822e-06
7.21801e-09 2.16404e-07 5.78193e-07
-2.1931e-09 -2.21213e-07 -8.99739e-08
0.0 0.0 -1.43822e-06
3.49538e-07 3.82457e-07 -9.6545e-08
1.69407e-21 4.57911e-20 4.23516e-22
-3.11287e-10 8.60146e-09 1.0798e-08
