# vtk DataFile Version 3.0
LIGGGHTS particles timestep 17200000
ASCII
DATASET POLYDATA
POINTS 119 float
0.0202683 0.0241027 0.0129355
0.0172805 0.0240274 0.0131329
0.016858 0.0233795 0.0124994
0.0549512 0.0187958 0.00591793
0.0236877 0.0211343 0.0154445
0.00938048 0.0183393 0.00587271
0.0260148 0.0196703 0.00594114
0.0355448 0.0213595 0.0149921
0.0366849 0.0218066 0.0435188
0.0418355 0.0201467 0.0156768
0.0337752 0.0217634 0.00812994
0.0223726 0.023263 0.0104636
0.000591717 0.0149731 0.0435188
0.0390971 0.0189438 0.00721272
0.0201272 0.0141487 0.0127737
0.0239681 0.0201273 0.0158217
0.0212419 0.0239864 0.0133088
0.0371675 0.0151265 0.0132327
0.0191161 0.0153179 0.0139121
0.0294928 0.0215946 0.0149887
0.0212269 0.0196948 0.00723454
0.003617 0.0285782 0.0435188
0.0413173 0.0222083 0.0143658
0.0177449 0.0174882 0.00600758
0.0399155 0.0222879 0.00864415
0.0193945 0.0147653 0.0131242
0.0198791 0.014979 0.0101317
0.0388505 0.0180188 0.00726868
0.039301 0.0199737 0.00727783
0.0401208 0.0228057 0.00943626
0.0207122 0.0174558 0.00750954
0.0249085 0.0210551 0.0154835
0.0306308 0.016724 0.0151544
0.0232046 0.022755 0.013971
0.0367922 0.0162573 0.014733
0.0317888 0.0148567 0.0105394
0.0373739 0.014878 0.0124431
0.0370858 0.0156506 0.0140815
0.0408455 0.0231964 0.0126237
0.0300389 0.0193881 0.0158144
0.0366377 0.0167009 0.0151042
0.0193511 0.0195345 0.00719676
0.0345218 0.0233612 0.0110496
0.0178412 0.0233435 0.0126661
0.0214483 0.0168437 0.00645098
0.0258375 0.0149117 0.0103443
0.019918 0.0237442 0.0138564
0.0326558 0.0172786 0.0075638
0.0195363 0.0146481 0.0121403
0.0562958 0.0173601 0.00594923
0.0423073 0.0180131 0.0156776
0.0205339 0.0166369 0.00788221
0.0421016 0.0191295 0.015763
0.0209708 0.0149398 0.0141812
0.0303903 0.00406748 0.0435188
0.0281053 0.0228513 0.00937298
0.04033 0.0217616 0.00817696
0.0228082 0.0232654 0.0124243
0.0410595 0.0228665 0.0134888
0.0455246 0.0200511 0.00578721
0.0309605 0.0156413 0.0141558
0.0284245 0.0233359 0.0107007
0.0427854 0.0162339 0.014746
0.034733 0.0233699 0.012017
0.0320586 0.0152641 0.00942756
0.058299 0.01847 0.00587501
0.0210858 0.0144438 0.0127726
0.0184912 0.0139863 0.0130296
0.020084 0.0201843 0.0061153
0.0394683 0.020826 0.00754431
0.0221348 0.00230077 0.0435188
0.201805 0.0186174 0.00570934
0.0332211 0.0196438 0.00730811
0.0174456 0.0234734 0.0117599
0.019982 0.0147413 0.0111313
0.0466369 0.0201459 0.00581736
0.0186113 0.0170734 0.0154844
0.067984 0.0193424 0.00575613
0.0363994 0.0176836 0.015461
0.0343042 0.0231745 0.0102146
0.0329472 0.0183275 0.00727176
0.0218064 0.021918 0.00841282
0.0245476 0.0198163 0.00585259
0.0324589 0.016304 0.00818249
0.0349416 0.0230152 0.0132012
0.024326 0.0182984 0.0158842
0.0352482 0.0224043 0.0141762
0.0200912 0.0154582 0.0141274
0.026935 0.0188837 0.00598981
0.0247344 0.0165917 0.0152032
0.0406203 0.0233751 0.0114249
0.0287629 0.0233214 0.0122158
0.0380801 0.0153834 0.00932478
0.0221996 0.00109062 0.0435188
0.0242871 0.0217701 0.015022
0.0377221 0.0148341 0.0109419
0.0292721 0.0223458 0.0141923
0.0279413 0.0222623 0.00861639
0.0416289 0.0209706 0.0153298
0.0234331 0.0220799 0.0147978
0.0895649 0.0187731 0.00575225
0.0269458 0.0183197 0.007272
0.0265015 0.0166055 0.00797587
0.036104 0.0193273 0.0157833
0.108836 0.0200055 0.00584234
0.0174628 0.0141132 0.013351
0.0297928 0.0202995 0.0155911
0.027341 0.020161 0.00736747
0.0315017 0.0148107 0.0119538
0.0223833 0.0145176 0.0141664
0.0183194 0.0241152 0.0130765
0.0276583 0.0213979 0.00788838
0.019307 0.0242316 0.0131773
0.00937694 0.00505359 0.0435188
0.0215173 0.0142785 0.0136613
0.020521 0.0146143 0.0119652
0.0204065 0.0149755 0.0132795
0.0254808 0.018723 0.00589902
0.0335128 0.021043 0.0077176

VERTICES 119 238
1 0
1 1
1 2
1 3
1 4
1 5
1 6
1 7
1 8
1 9
1 10
1 11
1 12
1 13
1 14
1 15
1 16
1 17
1 18
1 19
1 20
1 21
1 22
1 23
1 24
1 25
1 26
1 27
1 28
1 29
1 30
1 31
1 32
1 33
1 34
1 35
1 36
1 37
1 38
1 39
1 40
1 41
1 42
1 43
1 44
1 45
1 46
1 47
1 48
1 49
1 50
1 51
1 52
1 53
1 54
1 55
1 56
1 57
1 58
1 59
1 60
1 61
1 62
1 63
1 64
1 65
1 66
1 67
1 68
1 69
1 70
1 71
1 72
1 73
1 74
1 75
1 76
1 77
1 78
1 79
1 80
1 81
1 82
1 83
1 84
1 85
1 86
1 87
1 88
1 89
1 90
1 91
1 92
1 93
1 94
1 95
1 96
1 97
1 98
1 99
1 100
1 101
1 102
1 103
1 104
1 105
1 106
1 107
1 108
1 109
1 110
1 111
1 112
1 113
1 114
1 115
1 116
1 117
1 118

POINT_DATA 119
SCALARS id int 1
LOOKUP_TABLE default
1
2
4
5
11
15
16
17
18
20
24
25
27
28
32
33
35
37
41
44
47
49
52
57
59
62
63
65
67
68
71
73
74
76
79
84
87
88
89
90
92
97
103
106
108
109
110
112
116
121
122
124
125
126
128
130
131
133
135
137
139
141
142
143
147
149
150
157
158
160
161
165
166
167
171
173
174
179
185
186
187
191
193
194
197
200
205
206
215
225
226
227
229
232
235
237
241
242
247
252
253
256
257
258
260
268
269
270
271
272
274
275
277
284
288
291
294
299
300

SCALARS type int 1
LOOKUP_TABLE default
1
1
1
1
1
1
1
1
1
1
1
1
1
1
1
1
1
1
1
1
1
1
1
1
1
1
1
1
1
1
1
1
1
1
1
1
1
1
1
1
1
1
1
1
1
1
1
1
1
1
1
1
1
1
1
1
1
1
1
1
1
1
1
1
1
1
1
1
1
1
1
1
1
1
1
1
1
1
1
1
1
1
1
1
1
1
1
1
1
1
1
1
1
1
1
1
1
1
1
1
1
1
1
1
1
1
1
1
1
1
1
1
1
1
1
1
1
1
1

SCALARS radius float 1
LOOKUP_TABLE default
0.0005
0.0005
0.0005
0.0005
0.0005
0.0005
0.0005
0.0005
0.0005
0.0005
0.0005
0.0005
0.0005
0.0005
0.0005
0.0005
0.0005
0.0005
0.0005
0.0005
0.0005
0.0005
0.0005
0.0005
0.0005
0.0005
0.0005
0.0005
0.0005
0.0005
0.0005
0.0005
0.0005
0.0005
0.0005
0.0005
0.0005
0.0005
0.0005
0.0005
0.0005
0.0005
0.0005
0.0005
0.0005
0.0005
0.0005
0.0005
0.0005
0.0005
0.0005
0.0005
0.0005
0.0005
0.0005
0.0005
0.0005
0.0005
0.0005
0.0005
0.0005
0.0005
0.0005
0.0005
0.0005
0.0005
0.0005
0.0005
0.0005
0.0005
0.0005
0.0005
0.0005
0.0005
0.0005
0.0005
0.0005
0.0005
0.0005
0.0005
0.0005
0.0005
0.0005
0.0005
0.0005
0.0005
0.0005
0.0005
0.0005
0.0005
0.0005
0.0005
0.0005
0.0005
0.0005
0.0005
0.0005
0.0005
0.0005
0.0005
0.0005
0.0005
0.0005
0.0005
0.0005
0.0005
0.0005
0.0005
0.0005
0.0005
0.0005
0.0005
0.0005
0.0005
0.0005
0.0005
0.0005
0.0005
0.0005

SCALARS mass float 1
LOOKUP_TABLE default
1.46608e-07
1.46608e-07
1.46608e-07
1.46608e-07
1.46608e-07
1.46608e-07
1.46608e-07
1.46608e-07
1.46608e-07
1.46608e-07
1.46608e-07
1.46608e-07
1.46608e-07
1.46608e-07
1.46608e-07
1.46608e-07
1.46608e-07
1.46608e-07
1.46608e-07
1.46608e-07
1.46608e-07
1.46608e-07
1.46608e-07
1.46608e-07
1.46608e-07
1.46608e-07
1.46608e-07
1.46608e-07
1.46608e-07
1.46608e-07
1.46608e-07
1.46608e-07
1.46608e-07
1.46608e-07
1.46608e-07
1.46608e-07
1.46608e-07
1.46608e-07
1.46608e-07
1.46608e-07
1.46608e-07
1.46608e-07
1.46608e-07
1.46608e-07
1.46608e-07
1.46608e-07
1.46608e-07
1.46608e-07
1.46608e-07
1.46608e-07
1.46608e-07
1.46608e-07
1.46608e-07
1.46608e-07
1.46608e-07
1.46608e-07
1.46608e-07
1.46608e-07
1.46608e-07
1.46608e-07
1.46608e-07
1.46608e-07
1.46608e-07
1.46608e-07
1.46608e-07
1.46608e-07
1.46608e-07
1.46608e-07
1.46608e-07
1.46608e-07
1.46608e-07
1.46608e-07
1.46608e-07
1.46608e-07
1.46608e-07
1.46608e-07
1.46608e-07
1.46608e-07
1.46608e-07
1.46608e-07
1.46608e-07
1.46608e-07
1.46608e-07
1.46608e-07
1.46608e-07
1.46608e-07
1.46608e-07
1.46608e-07
1.46608e-07
1.46608e-07
1.46608e-07
1.46608e-07
1.46608e-07
1.46608e-07
1.46608e-07
1.46608e-07
1.46608e-07
1.46608e-07
1.46608e-07
1.46608e-07
1.46608e-07
1.46608e-07
1.46608e-07
1.46608e-07
1.46608e-07
1.46608e-07
1.46608e-07
1.46608e-07
1.46608e-07
1.46608e-07
1.46608e-07
1.46608e-07
1.46608e-07
1.46608e-07
1.46608e-07
1.46608e-07
1.46608e-07
1.46608e-07
1.46608e-07

VECTORS velocity float
0.000238083 -0.00140481 0.00157155
0.000174363 0.000357693 -0.000564951
0.0033504 0.000656916 -0.00277693
-5.63374e-15 -7.64826e-15 -1.0897e-13
0.0028856 0.00124005 0.000873403
3.64515e-15 5.3271e-16 -3.69011e-14
1.76458e-14 2.83347e-15 -2.87664e-13
0.000211548 0.0181391 -0.0115149
-9.6879e-317 9.73506e-317 2.68131e-13
3.74547e-05 0.0202317 -0.00457288
0.00151364 -0.00990646 -0.00855839
0.000333992 -0.00487229 -0.0203151
9.71467e-317 9.75789e-317 -8.23806e-13
2.6588e-06 -0.0218512 -0.00029159
0.00571773 -0.00114856 0.00537518
0.027239 -0.0504208 0.0011617
-6.16404e-05 0.000487049 -0.000258308
0.000547623 0.00865061 0.0185176
0.00195009 0.0090332 0.0108585
0.00104478 0.0146947 -0.0100583
-2.46121e-05 -0.0228219 -0.00502863
-9.68849e-317 -9.75601e-317 2.88878e-12
6.24421e-05 0.0153447 -0.0158127
2.63467e-15 1.02207e-14 2.12832e-14
0.000851509 -0.00900259 -0.0103649
0.00434707 0.00271405 0.0118728
0.000721661 -0.00598624 0.0190726
0.000998839 -0.0162624 0.00272067
0.000337846 -0.0194567 -0.00352513
0.000173862 -0.00994095 -0.0185729
0.000687684 -0.0194624 0.00711614
-0.00799866 0.00890891 -0.00389631
0.000763539 0.0172912 0.0123483
0.00167078 0.00134319 -0.00263198
0.00315759 0.00479629 0.0082812
0.000168489 -0.00434496 0.0203103
0.00075263 0.0041201 0.0195394
3.21569e-05 0.00633017 0.00985239
0.00114352 0.00406282 -0.0189829
0.00285856 0.0126992 -0.00128338
0.00186309 0.0150038 0.00653747
0.00047791 -0.022406 -0.00304656
0.000557331 -0.00108272 -0.0208088
0.00285993 0.00139817 -0.00235251
-2.38746e-14 5.08899e-14 1.84333e-13
0.000623558 -0.00501038 0.0190376
-0.00364111 0.00407546 -0.00161793
0.000392034 -0.0190564 0.00840193
0.00204152 0.00116601 0.00994485
-1.58166e-14 -2.14815e-14 -3.06011e-13
0.0013544 0.0152951 0.00428429
0.000158702 -0.0174053 0.0116761
0.000829046 0.0150763 -0.000136936
-0.00918183 0.00452989 -0.0249936
-9.67556e-317 -9.75879e-317 -3.22607e-12
0.000823826 -0.00817049 -0.0157459
-0.000352211 -0.018725 -0.0136588
0.000384309 0.00404853 -0.020631
0.000193255 0.00954416 -0.0136203
5.15309e-15 -4.38361e-14 1.39096e-13
-0.000213614 0.0108855 0.0158059
0.00111274 -0.00209927 -0.0148668
0.00108949 0.0114894 0.0113552
0.00048324 0.0020131 -0.019459
0.000601786 -0.0102739 0.0167149
6.12898e-15 -1.27027e-14 -1.56321e-13
0.00908056 -0.00115267 0.01412
0.000682095 -0.00070321 0.0014633
5.523e-15 -2.45453e-15 5.04902e-14
0.00057522 -0.0179657 -0.00922007
9.74157e-317 -9.69799e-317 9.23294e-13
1.31328e-17 -5.64756e-14 2.402e-13
4.5665e-05 -0.0216155 -0.00344833
0.00128476 0.000228947 -0.00143598
7.35279e-06 -0.00342692 0.0218324
1.06487e-14 -2.29158e-14 -2.37919e-13
0.00063365 0.0181145 0.00913796
3.9266e-15 7.53659e-15 2.61624e-13
0.000388313 0.0199845 0.00642158
0.000383079 -0.00655493 -0.018634
0.000975907 -0.0192507 0.00180274
4.83716e-05 -0.0157008 -0.0140307
2.60866e-15 4.21168e-16 -4.25291e-14
0.0006644 -0.0142065 0.0125557
0.000895287 0.00917916 -0.0184504
0.000524403 0.0204414 0.00339619
0.000297112 0.0161063 -0.015703
-0.0150045 -0.00481762 -0.00843771
1.43031e-14 2.30422e-15 -2.33189e-13
0.00520905 -0.000218287 -0.000798085
1.02838e-05 0.00068611 -0.0228953
0.000586159 0.00257851 -0.0191423
0.00158913 -0.0127645 0.0238306
9.58743e-317 9.68145e-317 4.97437e-14
-0.000906039 -0.00118871 0.00187651
0.000375578 -0.00236885 0.0204477
0.000503107 0.00992072 -0.010945
0.000297842 -0.0139408 -0.0153132
6.79901e-07 0.0129208 -0.00710661
0.00210447 0.0187429 -0.0165919
-1.31001e-14 1.8979e-14 2.53774e-13
0.00142187 -0.0126359 0.00170883
-0.000103206 -0.0190735 0.011272
-0.000572734 0.0235587 0.00222676
7.55036e-16 -1.27691e-15 -6.9748e-15
0.00118232 0.00163961 -0.00523543
0.000455757 0.0192481 -0.00590391
9.04137e-05 -0.0214647 -0.00632753
0.000862743 0.00282971 0.0187384
-0.00213533 -0.00109922 -0.000211737
0.000634244 0.000528141 0.00028278
0.000761787 -0.0153541 -0.00970964
0.000541453 -0.000697443 0.00220709
-9.68799e-317 -9.69932e-317 9.23294e-13
0.0243423 -0.0044389 0.00989801
0.00363922 -0.00405194 0.0170306
-0.00803278 -0.00213086 -0.00802579
-2.07799e-14 -3.27252e-15 3.38792e-13
0.00128955 -0.0155253 -0.00648514

VECTORS force float
-8.28436e-08 -9.92702e-08 7.30016e-09
3.29033e-06 2.40601e-06 4.18989e-06
-2.73053e-07 -4.03123e-08 7.0408e-07
2.71315e-21 -3.63959e-21 2.11758e-22
-2.5389e-06 7.1043e-06 -3.07321e-06
2.59404e-21 -9.26442e-21 2.11758e-22
1.28378e-21 1.56337e-21 0.0
-4.09362e-09 -4.11827e-10 -1.06384e-08
0.0 0.0 0.0
1.70525e-07 3.30033e-09 -5.79535e-08
-1.72999e-05 -1.5808e-05 -1.13868e-05
-1.74489e-09 -1.14203e-08 -4.59107e-09
0.0 0.0 0.0
-1.83081e-07 -1.64556e-06 2.73759e-07
1.75004e-06 5.81398e-07 3.09376e-07
0.0 0.0 -1.43822e-06
-1.35179e-09 1.14314e-08 -6.79608e-09
-9.14535e-09 1.52717e-08 2.3687e-08
2.11994e-07 6.30237e-08 -1.24718e-06
-6.17804e-09 -1.56502e-09 -1.5096e-08
5.66135e-10 -6.79118e-09 1.10497e-08
0.0 0.0 0.0
-1.26895e-09 -4.68883e-09 -1.07139e-08
5.87629e-21 -1.15408e-20 4.87044e-21
-2.24007e-06 -3.77516e-06 -2.64417e-06
0.0 0.0 -1.43822e-06
-9.28492e-09 1.57342e-09 2.08869e-08
1.50829e-07 -4.5704e-08 1.3368e-07
1.20808e-08 4.71329e-08 2.98415e-08
1.68333e-07 -4.14694e-07 -1.81991e-07
-8.13673e-09 -4.92809e-09 9.97116e-09
9.76621e-10 -1.56394e-08 -4.77123e-08
-1.74757e-06 4.35542e-06 2.64905e-06
1.52553e-07 2.13147e-07 7.71356e-07
4.41976e-08 -2.06447e-07 -8.47794e-08
-5.04475e-10 8.71272e-09 1.01777e-08
-1.49483e-08 2.72362e-08 8.05853e-08
4.71521e-09 -1.30162e-08 -2.56246e-08
-1.09424e-08 -8.20412e-09 9.38534e-09
6.99948e-08 -9.71477e-08 1.47635e-08
4.85264e-09 9.89521e-10 -4.10968e-08
-1.91083e-08 -1.52395e-07 -1.1516e-08
2.85652e-09 -9.42844e-09 -3.20002e-09
1.18747e-06 1.08173e-07 -1.85003e-06
-2.51728e-20 -2.03817e-20 2.5411e-21
-5.04464e-09 7.0476e-09 1.85485e-08
9.3941e-08 7.29069e-07 -1.55682e-06
-1.97634e-09 -2.60824e-09 1.23356e-08
-9.15835e-08 1.04218e-06 -8.17284e-07
-1.17791e-21 1.83965e-21 -2.11758e-22
5.19228e-10 5.88359e-09 -7.43192e-09
-2.06055e-09 -1.28728e-09 1.363e-08
9.76079e-09 -9.79406e-08 -4.31934e-09
0.0 0.0 -1.43822e-06
0.0 0.0 0.0
1.18779e-08 -4.84449e-09 1.65233e-08
3.86218e-05 9.13813e-06 5.41212e-06
-5.4196e-09 -4.61696e-09 -1.1265e-08
5.56138e-09 -3.56987e-08 4.7535e-08
-5.56527e-21 4.76456e-22 6.35275e-22
1.42557e-08 2.10458e-08 -4.34689e-09
5.15047e-09 6.85155e-09 9.3939e-08
4.19849e-09 3.96321e-09 -2.23944e-08
-4.89756e-09 -1.09639e-08 -1.76097e-08
-2.69871e-09 8.76371e-09 1.05003e-08
-1.07666e-20 3.12343e-21 -8.47033e-22
-1.93045e-07 1.85843e-07 -1.48384e-06
1.0452e-08 -1.17296e-08 2.49968e-08
-3.88576e-20 -8.5815e-20 0.0
4.10733e-08 2.10619e-07 1.50486e-07
0.0 0.0 0.0
6.01393e-20 2.64698e-23 -1.05879e-22
-2.49142e-11 -5.72975e-09 1.10738e-08
8.16569e-07 2.85643e-06 5.46484e-06
5.14584e-08 9.2384e-09 2.91292e-09
2.12817e-20 3.97047e-21 4.23516e-22
-3.97906e-10 7.73315e-09 -1.10987e-08
-5.55303e-20 -7.3586e-21 1.05879e-21
-2.55262e-09 9.65903e-09 -8.45664e-09
-2.05956e-09 -1.41503e-08 -3.37505e-09
-4.2598e-08 -2.26311e-07 1.56188e-08
-1.24475e-10 -1.15708e-08 4.12383e-09
-1.05879e-22 6.03015e-21 0.0
-5.45325e-09 -6.87286e-09 2.04112e-08
-1.67477e-08 8.83842e-08 -2.3601e-07
-1.66506e-10 2.9444e-09 -1.36137e-08
2.75482e-09 -5.40453e-09 -7.33739e-09
6.05577e-07 -1.65013e-06 1.81401e-06
-2.51463e-22 -9.5953e-23 0.0
1.30292e-08 -5.96788e-08 -1.89576e-08
-6.13606e-10 -1.20019e-08 -4.68169e-09
-7.2922e-09 -5.59005e-09 -2.16649e-08
-1.31448e-07 4.00352e-08 -6.83066e-08
0.0 0.0 0.0
-5.90751e-07 1.7799e-06 -1.93596e-06
-3.16558e-09 1.0113e-08 9.82494e-09
2.03873e-09 -2.11205e-08 -4.36829e-09
-1.20009e-09 -8.32775e-09 6.22188e-11
-1.16965e-07 2.08242e-07 -2.97423e-07
-3.45101e-07 -2.49051e-07 1.55388e-07
-3.01094e-20 -2.1639e-20 0.0
-2.2076e-09 1.75086e-09 4.67451e-09
2.39972e-08 3.03805e-08 -2.37483e-08
-6.40933e-10 -1.24806e-10 -1.13135e-08
2.2764e-21 0.0 0.0
8.22445e-08 4.68743e-09 2.12069e-07
3.10655e-09 3.27369e-10 -1.09812e-08
-9.38e-10 -8.33218e-09 9.32883e-09
-5.12417e-09 1.36527e-08 1.59421e-08
-2.92084e-11 -1.2535e-08 2.13289e-08
-6.22657e-07 2.02201e-07 -1.04546e-07
-1.73757e-09 -8.55798e-09 5.2882e-09
-5.96024e-07 6.38402e-08 7.01356e-07
0.0 0.0 0.0
0.0 0.0 -1.43822e-06
4.97623e-09 5.73368e-09 -1.41983e-06
8.39705e-08 -3.98471e-07 -9.38273e-07
2.63374e-21 1.1693e-19 1.27055e-21
-4.59783e-07 7.35289e-07 -1.1067e-06
