# vtk DataFile Version 3.0
LIGGGHTS particles timestep 21800000
ASCII
DATASET POLYDATA
POINTS 109 float
0.0193627 0.016655 0.0079328
0.0189659 0.0154165 0.0092095
0.0169169 0.0234166 0.0123699
0.0552425 0.0189586 0.00589144
0.00938048 0.0183393 0.00587271
0.0260391 0.0196534 0.00594246
0.0409904 0.0187067 0.0157272
0.0366849 0.0218066 0.0435188
0.0462151 0.0219847 0.0146775
0.039307 0.0233732 0.0110498
0.0339249 0.0173116 0.00624552
0.000591717 0.0149731 0.0435188
0.0435172 0.0172776 0.00764326
0.0235352 0.0166476 0.0152565
0.0293372 0.017378 0.015462
0.0423124 0.0147824 0.0118876
0.0243994 0.0147354 0.0115524
0.0333463 0.0233334 0.0111825
0.0184 0.0146247 0.0119333
0.003617 0.0285782 0.0435188
0.0860181 0.0183082 0.00577269
0.0177449 0.0174882 0.00600758
0.0440837 0.0198058 0.0072477
0.0237531 0.0158784 0.0146235
0.0194 0.0146255 0.0119319
0.0432617 0.0163912 0.0081174
0.043743 0.0181839 0.00730882
0.0445413 0.0216226 0.00803886
0.0349285 0.0181778 0.00592251
0.0347481 0.0198126 0.0157077
0.0283737 0.0213768 0.0151328
0.054387 0.0178804 0.00601135
0.03635 0.0147921 0.0116813
0.0425517 0.0148222 0.0108108
0.0421142 0.0150185 0.0129706
0.0450191 0.0228814 0.00968518
0.0344951 0.0209175 0.0152329
0.0418929 0.0153858 0.0137264
0.0215199 0.0233715 0.0119631
0.0404476 0.0210076 0.0153131
0.0202817 0.0141579 0.0128252
0.0214483 0.0168437 0.00645098
0.0301857 0.0149596 0.0125417
0.0377273 0.0181511 0.00726173
0.0586827 0.0172628 0.00598816
0.0792478 0.0194315 0.00576454
0.019303 0.0241074 0.0129257
0.0464627 0.021065 0.0153429
0.0303903 0.00406748 0.0435188
0.0322693 0.0205294 0.00752817
0.0469108 0.0190312 0.015822
0.0209044 0.0227187 0.00922126
0.0452687 0.0232916 0.0106907
0.0465254 0.0191962 0.00590655
0.0356262 0.016083 0.0146181
0.0324858 0.0213977 0.0078438
0.0472493 0.017682 0.0155453
0.040633 0.0204796 0.0155484
0.0369265 0.0152869 0.00948275
0.0584376 0.0191695 0.00582359
0.023508 0.0149784 0.0149838
0.018208 0.0144945 0.0129069
0.020084 0.0201843 0.0061153
0.0439187 0.0190363 0.00714992
0.0221348 0.00230077 0.0435188
0.201805 0.0186174 0.00570934
0.0388482 0.0226287 0.00907684
0.0266335 0.021934 0.00834077
0.0830234 0.0186618 0.00583976
0.0257028 0.0179878 0.00732953
0.067984 0.0193424 0.00575613
0.0416684 0.015963 0.0145085
0.0397931 0.0231236 0.0130094
0.038643 0.0220335 0.00834554
0.0262415 0.0203807 0.00742853
0.0253029 0.02045 0.00590518
0.0374002 0.0168071 0.00780324
0.0408053 0.0196926 0.0156639
0.0276092 0.0232866 0.0123879
0.0383457 0.0197753 0.00590075
0.026935 0.0188837 0.00598981
0.0296446 0.0159985 0.0145452
0.0447206 0.0223156 0.00865199
0.0326712 0.0221177 0.00844868
0.0430536 0.0157163 0.00882373
0.0221996 0.00109062 0.0435188
0.0428805 0.0152145 0.0096428
0.0331235 0.0231013 0.00996447
0.0318721 0.0189777 0.00720019
0.0459911 0.0226971 0.0138099
0.0557897 0.0172859 0.0059806
0.0895649 0.0187731 0.00575225
0.030848 0.015116 0.00978694
0.0304225 0.0147674 0.0113689
0.0415038 0.0166529 0.0150904
0.108836 0.0200055 0.00584234
0.0245239 0.0163624 0.0150376
0.034238 0.0218661 0.0145829
0.0312905 0.0164338 0.00809137
0.035842 0.0154952 0.013895
0.0203824 0.024094 0.0127522
0.0315891 0.017439 0.00751346
0.0271872 0.023197 0.0102511
0.00937694 0.00505359 0.0435188
0.0377754 0.021451 0.00628508
0.0287801 0.019667 0.0157836
0.0239893 0.0191578 0.00594089
0.0254808 0.018723 0.00589902
0.0391502 0.023133 0.010107

VERTICES 109 218
1 0
1 1
1 2
1 3
1 4
1 5
1 6
1 7
1 8
1 9
1 10
1 11
1 12
1 13
1 14
1 15
1 16
1 17
1 18
1 19
1 20
1 21
1 22
1 23
1 24
1 25
1 26
1 27
1 28
1 29
1 30
1 31
1 32
1 33
1 34
1 35
1 36
1 37
1 38
1 39
1 40
1 41
1 42
1 43
1 44
1 45
1 46
1 47
1 48
1 49
1 50
1 51
1 52
1 53
1 54
1 55
1 56
1 57
1 58
1 59
1 60
1 61
1 62
1 63
1 64
1 65
1 66
1 67
1 68
1 69
1 70
1 71
1 72
1 73
1 74
1 75
1 76
1 77
1 78
1 79
1 80
1 81
1 82
1 83
1 84
1 85
1 86
1 87
1 88
1 89
1 90
1 91
1 92
1 93
1 94
1 95
1 96
1 97
1 98
1 99
1 100
1 101
1 102
1 103
1 104
1 105
1 106
1 107
1 108

POINT_DATA 109
SCALARS id int 1
LOOKUP_TABLE default
1
2
4
5
15
16
17
18
20
24
25
27
28
32
33
37
41
44
47
49
52
57
59
62
63
65
67
68
73
74
76
79
84
87
88
89
90
92
97
103
106
108
109
112
121
122
124
125
128
130
131
133
135
137
139
141
142
143
147
149
150
157
158
160
161
165
166
167
173
174
179
185
186
187
191
193
194
197
200
205
215
225
226
227
229
232
237
241
242
247
252
253
256
257
258
260
268
269
270
271
274
275
277
284
288
291
294
299
300

SCALARS type int 1
LOOKUP_TABLE default
1
1
1
1
1
1
1
1
1
1
1
1
1
1
1
1
1
1
1
1
1
1
1
1
1
1
1
1
1
1
1
1
1
1
1
1
1
1
1
1
1
1
1
1
1
1
1
1
1
1
1
1
1
1
1
1
1
1
1
1
1
1
1
1
1
1
1
1
1
1
1
1
1
1
1
1
1
1
1
1
1
1
1
1
1
1
1
1
1
1
1
1
1
1
1
1
1
1
1
1
1
1
1
1
1
1
1
1
1

SCALARS radius float 1
LOOKUP_TABLE default
0.0005
0.0005
0.0005
0.0005
0.0005
0.0005
0.0005
0.0005
0.0005
0.0005
0.0005
0.0005
0.0005
0.0005
0.0005
0.0005
0.0005
0.0005
0.0005
0.0005
0.0005
0.0005
0.0005
0.0005
0.0005
0.0005
0.0005
0.0005
0.0005
0.0005
0.0005
0.0005
0.0005
0.0005
0.0005
0.0005
0.0005
0.0005
0.0005
0.0005
0.0005
0.0005
0.0005
0.0005
0.0005
0.0005
0.0005
0.0005
0.0005
0.0005
0.0005
0.0005
0.0005
0.0005
0.0005
0.0005
0.0005
0.0005
0.0005
0.0005
0.0005
0.0005
0.0005
0.0005
0.0005
0.0005
0.0005
0.0005
0.0005
0.0005
0.0005
0.0005
0.0005
0.0005
0.0005
0.0005
0.0005
0.0005
0.0005
0.0005
0.0005
0.0005
0.0005
0.0005
0.0005
0.0005
0.0005
0.0005
0.0005
0.0005
0.0005
0.0005
0.0005
0.0005
0.0005
0.0005
0.0005
0.0005
0.0005
0.0005
0.0005
0.0005
0.0005
0.0005
0.0005
0.0005
0.0005
0.0005
0.0005

SCALARS mass float 1
LOOKUP_TABLE default
1.46608e-07
1.46608e-07
1.46608e-07
1.46608e-07
1.46608e-07
1.46608e-07
1.46608e-07
1.46608e-07
1.46608e-07
1.46608e-07
1.46608e-07
1.46608e-07
1.46608e-07
1.46608e-07
1.46608e-07
1.46608e-07
1.46608e-07
1.46608e-07
1.46608e-07
1.46608e-07
1.46608e-07
1.46608e-07
1.46608e-07
1.46608e-07
1.46608e-07
1.46608e-07
1.46608e-07
1.46608e-07
1.46608e-07
1.46608e-07
1.46608e-07
1.46608e-07
1.46608e-07
1.46608e-07
1.46608e-07
1.46608e-07
1.46608e-07
1.46608e-07
1.46608e-07
1.46608e-07
1.46608e-07
1.46608e-07
1.46608e-07
1.46608e-07
1.46608e-07
1.46608e-07
1.46608e-07
1.46608e-07
1.46608e-07
1.46608e-07
1.46608e-07
1.46608e-07
1.46608e-07
1.46608e-07
1.46608e-07
1.46608e-07
1.46608e-07
1.46608e-07
1.46608e-07
1.46608e-07
1.46608e-07
1.46608e-07
1.46608e-07
1.46608e-07
1.46608e-07
1.46608e-07
1.46608e-07
1.46608e-07
1.46608e-07
1.46608e-07
1.46608e-07
1.46608e-07
1.46608e-07
1.46608e-07
1.46608e-07
1.46608e-07
1.46608e-07
1.46608e-07
1.46608e-07
1.46608e-07
1.46608e-07
1.46608e-07
1.46608e-07
1.46608e-07
1.46608e-07
1.46608e-07
1.46608e-07
1.46608e-07
1.46608e-07
1.46608e-07
1.46608e-07
1.46608e-07
1.46608e-07
1.46608e-07
1.46608e-07
1.46608e-07
1.46608e-07
1.46608e-07
1.46608e-07
1.46608e-07
1.46608e-07
1.46608e-07
1.46608e-07
1.46608e-07
1.46608e-07
1.46608e-07
1.46608e-07
1.46608e-07
1.46608e-07

VECTORS velocity float
0.000564849 -0.0130628 0.00926325
0.000873869 -0.00756125 0.0109751
0.00607645 0.000859319 -0.0075502
-9.84533e-15 -1.33744e-14 -1.90504e-13
3.64538e-15 5.34676e-16 -3.6901e-14
2.09849e-14 3.38365e-15 -3.42138e-13
0.000295261 0.0209055 0.00147131
-9.6879e-317 9.73506e-317 2.68131e-13
0.000717161 0.0148901 -0.0139967
5.17849e-05 -0.000708017 -0.0225897
-7.86184e-16 -9.40591e-15 -2.80707e-14
9.71467e-317 9.75789e-317 -8.23806e-13
0.000125216 -0.0205072 0.00864564
0.00330973 0.00673146 0.00380945
2.54342e-05 0.0205802 0.00998449
0.000122693 0.00133505 0.0218826
-0.000144695 -0.00137395 0.0233704
-0.000516017 0.000446174 -0.0234383
0.00389194 -0.000694044 -0.00143046
-9.68849e-317 -9.75601e-317 2.88878e-12
-1.22575e-15 3.67084e-14 1.26768e-13
2.64028e-15 1.02248e-14 2.12806e-14
0.000492571 -0.0195221 -0.00326494
0.00267724 0.00834605 0.00750162
0.00387732 -0.000585028 0.000618222
0.00218813 -0.0134226 0.0111114
0.000281878 -0.0192845 0.00478783
0.000295141 -0.0165459 -0.0119483
6.34776e-16 6.72171e-15 2.00028e-14
-0.0714999 -0.192981 -0.0198684
0.00206124 0.0129575 -0.00772934
-1.3005e-14 -1.76677e-14 -2.51655e-13
2.95197e-05 4.30095e-05 0.0218813
0.0012455 -0.00251154 0.0181843
0.000870471 0.00670404 0.0181299
0.000148813 -0.00916442 -0.0199716
0.000257304 0.0189119 -0.00952233
0.000595724 0.0106308 0.0172117
0.00320788 0.00105692 -0.0267826
0.00264431 0.0108197 -0.0114414
-0.0142264 0.0160877 -0.0434139
-2.38634e-14 5.08887e-14 1.84335e-13
0.000132914 0.00532203 0.0205724
0.000357104 -0.0153667 0.00180438
1.03684e-14 -2.15384e-14 -2.65e-13
1.16884e-14 4.01916e-14 1.70242e-13
-0.000100184 0.000782301 0.000210678
0.000447857 0.0189044 -0.00931933
-9.67556e-317 -9.75879e-317 -3.22607e-12
0.0019255 -0.0147683 -0.00426132
0.000221792 0.0220645 0.00185198
0.000877043 -0.0092751 -0.0131108
0.000542975 -0.00441191 -0.0178323
2.38785e-15 1.33732e-14 9.20545e-14
0.000448263 0.00810253 0.00912826
0.0013395 -0.00482928 -0.00547103
0.00261091 0.00653315 0.000248419
0.00381392 0.00946471 0.000252865
-7.85695e-05 -0.0118644 0.0193573
8.09665e-15 -1.68531e-14 -2.07264e-13
-0.0177865 -0.000810048 -0.0291318
0.004857 -0.00119499 -0.00102962
5.51419e-15 -2.47881e-15 5.049e-14
0.000642062 -0.0163886 9.01633e-05
9.74157e-317 -9.69799e-317 9.23294e-13
-3.8561e-20 4.0743e-22 8.61844e-22
9.92515e-05 -0.0113206 -0.0186053
0.000338838 -0.0155017 -0.0137249
1.15501e-14 3.2374e-14 -1.39057e-13
0.000127659 -0.0210429 0.00477748
3.8992e-15 7.53201e-15 2.61625e-13
0.000200203 0.0145185 0.015775
0.00101076 0.00614582 -0.0173692
0.000506676 -0.0143787 -0.0128608
5.82945e-05 -0.0202575 -0.00709251
-2.07802e-14 -3.34921e-15 3.38791e-13
0.000250098 -0.0187286 0.0105595
0.00139087 0.0167554 -0.00177365
0.00064735 0.00455141 -0.0193768
6.07882e-15 -2.90346e-14 1.43215e-13
1.43031e-14 2.30388e-15 -2.33189e-13
0.000859757 0.0144292 0.0138034
0.000445796 -0.0109427 -0.0149651
0.00094714 -0.012254 -0.0115785
0.000231195 -0.0128827 0.0164671
9.58743e-317 9.68145e-317 4.97437e-14
-0.000272559 -0.0090592 0.0190073
0.000524047 -0.00730782 -0.018002
0.000141932 -0.0224257 -0.00106616
0.00080183 0.00844523 -0.0150915
9.81528e-15 1.33407e-14 1.8999e-13
-1.29547e-14 1.9107e-14 2.53772e-13
0.000334045 -0.0080294 0.0190381
0.00202089 -0.000271668 0.0115527
0.000188244 0.0171178 0.0110897
7.53171e-16 -1.26345e-15 -6.97756e-15
0.00669832 0.00524491 0.00355104
-0.00183114 0.0190738 -0.0144884
0.000927215 -0.0142415 0.0119368
6.12832e-05 0.0113004 0.0179125
0.000731155 0.00114184 0.00996847
0.000736518 -0.0146772 0.00555156
0.000254328 -0.00606629 -0.0202315
-9.68799e-317 -9.69932e-317 9.23294e-13
-6.88229e-15 2.32705e-14 -1.07319e-13
0.000390447 0.0181547 -0.00350144
-8.39943e-15 -1.73325e-14 -5.67619e-14
-2.07796e-14 -3.48279e-15 3.3879e-13
0.00055149 -0.00682673 -0.018339

VECTORS force float
-1.57035e-09 -1.10224e-08 -7.63949e-09
-4.99117e-09 3.46457e-09 -1.54467e-08
-4.70195e-08 9.44891e-08 3.39501e-08
1.01776e-20 4.10282e-22 -6.35275e-22
-3.17637e-22 1.22952e-20 0.0
-7.27919e-22 7.44793e-21 0.0
-1.88608e-09 6.70203e-09 -1.02266e-08
0.0 0.0 0.0
-1.06371e-08 1.32625e-08 -2.08763e-08
1.10868e-09 -1.29282e-08 -8.27141e-10
-1.40158e-18 9.52912e-20 1.3976e-20
0.0 0.0 0.0
3.7968e-08 -2.0076e-07 1.34184e-07
1.89749e-08 -2.12755e-08 -9.16669e-08
-3.0226e-10 7.13795e-09 -1.06752e-08
-9.13525e-10 1.08755e-08 3.86112e-09
-2.76045e-09 7.77608e-09 6.32926e-09
4.77321e-09 1.94587e-08 1.76941e-08
-4.26014e-06 2.86807e-06 2.69278e-06
0.0 0.0 0.0
-1.35591e-20 1.32349e-21 -4.23516e-22
2.15199e-20 -3.91753e-21 -8.47033e-22
-2.17038e-08 -1.38456e-08 3.67185e-10
5.55952e-08 5.60946e-09 9.9395e-10
5.93464e-07 7.96892e-08 -7.07047e-07
-2.92834e-08 2.40293e-08 -3.47709e-08
-1.40528e-08 -3.37838e-08 4.6743e-08
-1.41703e-09 -9.70512e-09 4.47637e-09
-2.24993e-22 -5.82335e-22 2.11758e-22
0.00826768 0.00307242 0.00149547
1.05579e-08 -3.93935e-08 2.03986e-08
7.54389e-22 -4.89691e-22 0.0
-5.78223e-10 1.15142e-08 4.32501e-09
-8.23393e-09 8.82771e-09 2.37637e-08
-7.35779e-09 2.01751e-08 9.66143e-09
-1.33114e-09 -1.22291e-08 -1.5382e-09
-2.29839e-09 7.11225e-10 -1.1978e-08
-4.22038e-09 9.90295e-09 1.50204e-09
-1.41759e-05 -5.20786e-06 1.59396e-06
2.01338e-08 6.56762e-08 -7.55605e-08
-1.66081e-08 3.94014e-07 -9.07478e-07
8.38298e-20 -3.59989e-20 2.15993e-20
-8.63554e-10 1.14807e-08 2.43445e-09
5.23398e-10 1.7253e-08 7.26511e-09
3.8143e-20 2.69992e-21 1.48231e-21
3.15943e-19 3.26637e-20 -2.98579e-20
-1.54797e-07 -8.53283e-08 5.31972e-08
-1.19286e-09 8.50855e-10 -1.28732e-08
0.0 0.0 0.0
-2.47203e-10 9.9186e-09 6.86457e-09
3.02363e-09 4.11421e-09 -1.07904e-08
1.11084e-09 -5.3884e-08 -4.45498e-08
-3.10708e-09 -1.36018e-08 -1.22111e-08
-2.26515e-20 5.77041e-21 -2.11758e-22
-2.24432e-08 -4.06026e-08 -1.99844e-08
6.88122e-09 9.72085e-08 5.47342e-08
4.08674e-08 -1.37457e-07 -7.28047e-09
-2.78194e-08 -5.20675e-08 3.57502e-08
1.66311e-09 8.23315e-09 9.27716e-09
-5.23903e-20 -8.04681e-21 -1.27055e-21
-2.1409e-07 1.36694e-07 -5.82483e-07
0.0 0.0 -1.43822e-06
-4.68515e-21 -1.78274e-20 -6.35275e-22
1.02625e-07 3.53688e-09 3.75148e-08
0.0 0.0 0.0
0.0 0.0 0.0
-3.17002e-10 -1.15411e-08 2.00245e-09
-1.55683e-09 -1.19312e-08 3.74472e-09
-6.16746e-21 -4.23516e-22 -2.11758e-22
-7.98518e-10 -2.50412e-09 1.212e-08
-2.46037e-20 1.07335e-20 0.0
-7.39896e-10 1.35861e-08 -1.28949e-09
-5.15818e-09 -1.11798e-08 -1.09578e-08
-5.88705e-09 -2.23391e-08 -2.96272e-09
9.40926e-10 -7.47804e-09 9.50333e-09
9.26442e-23 -7.94093e-23 0.0
-1.24985e-10 2.26211e-09 1.14908e-08
1.16946e-08 -1.78731e-08 2.9633e-09
1.8013e-08 -8.8678e-09 1.96144e-08
1.54253e-20 -5.59042e-20 -1.20702e-20
2.11758e-22 -1.79995e-21 0.0
-1.23274e-08 1.94349e-08 1.18424e-08
3.53817e-09 -6.01858e-09 2.15477e-08
-3.6399e-09 5.42466e-08 6.34254e-08
-3.18688e-09 -8.16114e-09 1.81228e-08
0.0 0.0 0.0
9.62152e-09 1.19969e-08 3.36087e-09
-5.06778e-09 -1.73248e-08 -1.47676e-08
-7.45677e-10 -2.29605e-09 1.00651e-08
-7.14552e-09 4.56168e-09 -2.84138e-08
1.37378e-20 -9.0659e-21 0.0
-1.27624e-19 -1.60738e-19 5.0822e-21
-3.77585e-09 3.78506e-09 1.56055e-08
-2.72258e-10 -7.00787e-09 -4.48706e-08
-1.41726e-09 1.4991e-08 -6.25735e-09
0.0 5.82335e-22 -2.11758e-22
2.24772e-08 -2.0447e-08 -1.40163e-08
-3.34148e-11 1.27462e-09 1.16023e-08
-6.43216e-09 -8.53243e-09 1.96189e-08
-1.91367e-08 3.02526e-09 -4.23044e-09
-3.34759e-06 -5.6357e-08 -1.06601e-05
8.41008e-09 2.32279e-08 -7.20177e-09
-1.73939e-09 -9.24722e-09 -8.72603e-09
0.0 0.0 0.0
-6.17408e-20 -3.54695e-21 3.17637e-21
-2.76487e-09 1.56507e-08 -1.37169e-08
-9.68794e-21 2.38228e-21 8.47033e-22
3.13667e-21 5.86636e-21 2.11758e-22
-4.71307e-09 -1.71505e-08 -1.43464e-08
