# vtk DataFile Version 3.0
LIGGGHTS particles timestep 28000000
ASCII
DATASET POLYDATA
POINTS 107 float
0.0191685 0.014622 0.0119377
0.0242546 0.020213 0.00583854
0.0330199 0.0181648 0.00598755
0.0552529 0.0189972 0.0058882
0.00938048 0.0183393 0.00587271
0.0260391 0.0196534 0.00594246
0.0764299 0.01907 0.00579421
0.0366849 0.0218066 0.0435188
0.0520521 0.0233003 0.0112323
0.0452382 0.0212948 0.00784234
0.0342322 0.0172097 0.00627001
0.000591717 0.0149731 0.0435188
0.0494707 0.0150464 0.00982549
0.0373572 0.0202824 0.00605833
0.0346993 0.022831 0.0135545
0.049528 0.0194806 0.00601095
0.0307674 0.0152358 0.0133701
0.0408751 0.0222474 0.0142601
0.0317238 0.0192455 0.00569325
0.003617 0.0285782 0.0435188
0.0860181 0.0183082 0.00577269
0.0177449 0.0174882 0.00600758
0.0503435 0.0174411 0.00747412
0.0281882 0.0233675 0.0116276
0.112778 0.0179068 0.0059233
0.04977 0.015497 0.00918422
0.0452523 0.0173614 0.00620617
0.0370167 0.0186542 0.0057303
0.0418298 0.0184107 0.0157375
0.0335644 0.022541 0.00891695
0.0551402 0.017971 0.00596606
0.0428473 0.0150777 0.0131005
0.0484497 0.0158922 0.014404
0.0479315 0.0179635 0.0156596
0.051265 0.02139 0.00789346
0.041637 0.0193353 0.0157446
0.0477162 0.0189261 0.0157396
0.029517 0.0197849 0.0157352
0.0464577 0.0180237 0.00607863
0.0214483 0.0168437 0.00645098
0.0360465 0.0176172 0.0153237
0.0438838 0.0159171 0.00859053
0.0586827 0.0172628 0.00598816
0.0792417 0.0194286 0.00576565
0.0272885 0.0214934 0.00795926
0.0522646 0.0233474 0.011959
0.0303903 0.00406748 0.0435188
0.0390456 0.0204774 0.00742622
0.0526033 0.0229651 0.013215
0.0438472 0.0171169 0.00621343
0.0481651 0.0171166 0.0153644
0.0473953 0.0193073 0.0059321
0.0420287 0.0175986 0.0155382
0.0393061 0.0216582 0.00805795
0.0530931 0.0215456 0.0150163
0.0463411 0.0232422 0.0122824
0.0432978 0.0148504 0.0108781
0.0584376 0.0191695 0.00582359
0.0244077 0.0162713 0.0149679
0.0262861 0.0171767 0.00759617
0.020084 0.0201843 0.0061153
0.0500133 0.0163095 0.00824338
0.0221348 0.00230077 0.0435188
0.201805 0.0186174 0.00570934
0.0446914 0.0192087 0.00717014
0.0318565 0.0158276 0.00874804
0.0830234 0.0186618 0.00583976
0.031055 0.01485 0.0119997
0.067984 0.0193424 0.00575613
0.0475117 0.0199782 0.0157134
0.0800972 0.0199306 0.00589216
0.0442399 0.017135 0.00777599
0.0315915 0.0150847 0.00987347
0.0253288 0.0204564 0.00590683
0.0436952 0.0154023 0.00937676
0.0467817 0.0225643 0.0140083
0.0328821 0.0199269 0.00737111
0.0392951 0.0190642 0.00571675
0.026935 0.0188837 0.00598981
0.0354752 0.0201169 0.015646
0.0507733 0.0195572 0.00727563
0.039895 0.0230796 0.0100271
0.0490959 0.0150698 0.0121404
0.0221996 0.00109062 0.0435188
0.0487331 0.0153549 0.0135564
0.0405653 0.0231127 0.013073
0.0388071 0.0195328 0.00726071
0.0517946 0.0226609 0.00976462
0.0561606 0.0173315 0.00595822
0.0895649 0.0187731 0.00575225
0.0371205 0.0147876 0.0116805
0.0363396 0.0162794 0.0147866
0.0471911 0.0212103 0.0152486
0.108836 0.0200055 0.00584234
0.0304213 0.0160067 0.0145509
0.0411001 0.0214965 0.015007
0.0376257 0.0151258 0.00976208
0.042556 0.0156168 0.014098
0.0275514 0.0224573 0.00881444
0.0378725 0.0158657 0.00863518
0.0325845 0.0185472 0.00726355
0.00937694 0.00505359 0.0435188
0.0457039 0.018685 0.00600217
0.0343454 0.023357 0.01222
0.0239797 0.0191467 0.00594569
0.0254808 0.018723 0.00589902
0.0449546 0.0202285 0.00732761

VERTICES 107 214
1 0
1 1
1 2
1 3
1 4
1 5
1 6
1 7
1 8
1 9
1 10
1 11
1 12
1 13
1 14
1 15
1 16
1 17
1 18
1 19
1 20
1 21
1 22
1 23
1 24
1 25
1 26
1 27
1 28
1 29
1 30
1 31
1 32
1 33
1 34
1 35
1 36
1 37
1 38
1 39
1 40
1 41
1 42
1 43
1 44
1 45
1 46
1 47
1 48
1 49
1 50
1 51
1 52
1 53
1 54
1 55
1 56
1 57
1 58
1 59
1 60
1 61
1 62
1 63
1 64
1 65
1 66
1 67
1 68
1 69
1 70
1 71
1 72
1 73
1 74
1 75
1 76
1 77
1 78
1 79
1 80
1 81
1 82
1 83
1 84
1 85
1 86
1 87
1 88
1 89
1 90
1 91
1 92
1 93
1 94
1 95
1 96
1 97
1 98
1 99
1 100
1 101
1 102
1 103
1 104
1 105
1 106

POINT_DATA 107
SCALARS id int 1
LOOKUP_TABLE default
1
2
4
5
15
16
17
18
20
24
25
27
28
32
33
37
41
44
47
49
52
57
59
63
65
67
68
73
74
76
79
84
87
88
89
90
92
97
103
108
109
112
121
122
124
125
128
130
131
133
135
137
139
141
142
143
147
149
150
157
158
160
161
165
166
167
173
174
179
185
186
187
191
193
194
197
200
205
215
225
226
227
229
232
237
241
242
247
252
253
256
257
258
260
268
269
270
271
274
275
277
284
288
291
294
299
300

SCALARS type int 1
LOOKUP_TABLE default
1
1
1
1
1
1
1
1
1
1
1
1
1
1
1
1
1
1
1
1
1
1
1
1
1
1
1
1
1
1
1
1
1
1
1
1
1
1
1
1
1
1
1
1
1
1
1
1
1
1
1
1
1
1
1
1
1
1
1
1
1
1
1
1
1
1
1
1
1
1
1
1
1
1
1
1
1
1
1
1
1
1
1
1
1
1
1
1
1
1
1
1
1
1
1
1
1
1
1
1
1
1
1
1
1
1
1

SCALARS radius float 1
LOOKUP_TABLE default
0.0005
0.0005
0.0005
0.0005
0.0005
0.0005
0.0005
0.0005
0.0005
0.0005
0.0005
0.0005
0.0005
0.0005
0.0005
0.0005
0.0005
0.0005
0.0005
0.0005
0.0005
0.0005
0.0005
0.0005
0.0005
0.0005
0.0005
0.0005
0.0005
0.0005
0.0005
0.0005
0.0005
0.0005
0.0005
0.0005
0.0005
0.0005
0.0005
0.0005
0.0005
0.0005
0.0005
0.0005
0.0005
0.0005
0.0005
0.0005
0.0005
0.0005
0.0005
0.0005
0.0005
0.0005
0.0005
0.0005
0.0005
0.0005
0.0005
0.0005
0.0005
0.0005
0.0005
0.0005
0.0005
0.0005
0.0005
0.0005
0.0005
0.0005
0.0005
0.0005
0.0005
0.0005
0.0005
0.0005
0.0005
0.0005
0.0005
0.0005
0.0005
0.0005
0.0005
0.0005
0.0005
0.0005
0.0005
0.0005
0.0005
0.0005
0.0005
0.0005
0.0005
0.0005
0.0005
0.0005
0.0005
0.0005
0.0005
0.0005
0.0005
0.0005
0.0005
0.0005
0.0005
0.0005
0.0005

SCALARS mass float 1
LOOKUP_TABLE default
1.46608e-07
1.46608e-07
1.46608e-07
1.46608e-07
1.46608e-07
1.46608e-07
1.46608e-07
1.46608e-07
1.46608e-07
1.46608e-07
1.46608e-07
1.46608e-07
1.46608e-07
1.46608e-07
1.46608e-07
1.46608e-07
1.46608e-07
1.46608e-07
1.46608e-07
1.46608e-07
1.46608e-07
1.46608e-07
1.46608e-07
1.46608e-07
1.46608e-07
1.46608e-07
1.46608e-07
1.46608e-07
1.46608e-07
1.46608e-07
1.46608e-07
1.46608e-07
1.46608e-07
1.46608e-07
1.46608e-07
1.46608e-07
1.46608e-07
1.46608e-07
1.46608e-07
1.46608e-07
1.46608e-07
1.46608e-07
1.46608e-07
1.46608e-07
1.46608e-07
1.46608e-07
1.46608e-07
1.46608e-07
1.46608e-07
1.46608e-07
1.46608e-07
1.46608e-07
1.46608e-07
1.46608e-07
1.46608e-07
1.46608e-07
1.46608e-07
1.46608e-07
1.46608e-07
1.46608e-07
1.46608e-07
1.46608e-07
1.46608e-07
1.46608e-07
1.46608e-07
1.46608e-07
1.46608e-07
1.46608e-07
1.46608e-07
1.46608e-07
1.46608e-07
1.46608e-07
1.46608e-07
1.46608e-07
1.46608e-07
1.46608e-07
1.46608e-07
1.46608e-07
1.46608e-07
1.46608e-07
1.46608e-07
1.46608e-07
1.46608e-07
1.46608e-07
1.46608e-07
1.46608e-07
1.46608e-07
1.46608e-07
1.46608e-07
1.46608e-07
1.46608e-07
1.46608e-07
1.46608e-07
1.46608e-07
1.46608e-07
1.46608e-07
1.46608e-07
1.46608e-07
1.46608e-07
1.46608e-07
1.46608e-07
1.46608e-07
1.46608e-07
1.46608e-07
1.46608e-07
1.46608e-07
1.46608e-07

VECTORS velocity float
0.00474096 -0.000903686 0.00150043
-9.08586e-15 -1.46378e-15 1.48131e-13
6.38518e-16 6.72218e-15 2.00025e-14
-1.33082e-17 -1.80869e-17 -2.57127e-16
3.64522e-15 5.43845e-16 -3.69009e-14
2.09856e-14 3.38102e-15 -3.42138e-13
-1.63747e-15 8.96545e-15 3.39438e-14
-9.6879e-317 9.73506e-317 2.68131e-13
0.00216765 -0.00260906 -0.00913493
0.000147226 -0.0178027 -0.0108298
-1.81724e-16 -1.89163e-15 -5.62991e-15
9.71467e-317 9.75789e-317 -8.23806e-13
0.0577741 3.75844 2.7069
-5.17767e-15 1.75297e-14 -8.08014e-14
0.000682253 0.0100961 -0.0176386
5.74874e-15 -1.24732e-14 -1.29439e-13
-7.88711e-05 0.00856818 0.0205832
8.98015e-05 0.0152532 -0.016427
-2.30893e-15 -6.18771e-14 2.10855e-13
-9.68849e-317 -9.75601e-317 2.88878e-12
-1.22494e-15 3.67086e-14 1.26768e-13
2.62969e-15 1.02052e-14 2.12912e-14
0.000406112 -0.0194039 0.0075246
0.000416073 0.00252398 -0.0216523
8.34485e-16 3.43132e-15 1.4203e-14
0.0130442 -0.243217 0.53854
-3.12663e-15 -1.74652e-14 -1.20236e-13
4.19375e-16 -2.0178e-15 1.00273e-14
0.000428752 0.0203919 0.00270276
0.000984016 -0.0107806 -0.0143145
-2.82231e-15 -3.83395e-15 -5.46136e-14
0.000796134 0.00434485 0.0137344
0.000854518 0.0136716 0.0138901
0.000691691 0.0190471 0.00431903
0.0011497 -0.0139968 -0.0080391
9.20913e-05 0.0221736 -0.000713759
-0.000738337 0.0230014 0.0015959
0.000282611 0.0191759 -0.00413198
-3.12566e-15 -1.74653e-14 -1.20236e-13
-2.38708e-14 5.08867e-14 1.84335e-13
0.212705 0.268459 -0.222114
0.000883023 -0.00868446 0.00889455
1.03796e-14 -2.15376e-14 -2.65e-13
-7.58159e-16 -2.43477e-15 -1.02786e-14
0.000808504 -0.0101204 -0.00697845
0.00322046 0.00184553 -0.00159361
-9.67556e-317 -9.75879e-317 -3.22607e-12
0.00119575 -0.0137448 -0.00412611
0.000175921 0.00896775 -0.0197304
5.60133e-16 -1.53963e-15 -8.51131e-15
0.000704949 0.0124853 0.00746554
4.73467e-15 -1.01785e-14 -1.05707e-13
0.000464273 0.0196941 0.00842474
0.000150202 -0.0166636 -0.0122521
7.94644e-05 0.0188287 -0.0122164
0.000209914 0.0069497 -0.0205279
0.000728982 -0.00236082 0.0192833
8.11671e-15 -1.68482e-14 -2.07264e-13
0.00409468 0.00310868 0.00304154
0.00101218 -0.0155694 0.00574019
5.51525e-15 -2.49405e-15 5.04891e-14
0.000559111 -0.0148832 0.0134376
9.74157e-317 -9.69799e-317 9.23294e-13
-3.8561e-20 1.12962e-21 -1.30474e-21
0.00228075 -0.0126383 0.000620673
-0.000384916 -0.011085 0.0112252
1.15456e-14 3.23749e-14 -1.39058e-13
0.0026409 0.0029941 0.0141152
3.89446e-15 7.53226e-15 2.61625e-13
0.00133319 0.0103747 -0.001769
8.53499e-16 2.29594e-15 -9.82202e-15
-0.000847927 -0.022329 0.0114538
0.00113597 -0.00513829 0.0164316
9.29105e-15 1.49639e-15 -1.51478e-13
0.000342787 -0.00851923 0.0169722
0.00140064 0.00403576 -0.00550474
0.000132896 -0.0207791 -0.00446994
2.82383e-15 -1.34774e-14 6.66369e-14
1.43031e-14 2.30429e-15 -2.33189e-13
0.000849198 0.0170297 -0.00536749
0.000104816 -0.0219942 -0.00424886
0.00133169 -0.0062564 -0.0143667
0.00187482 0.000113651 0.0215027
9.58743e-317 9.68145e-317 4.97437e-14
-1.44688e-05 0.00449684 0.0196486
0.00109196 0.00617367 -0.0153316
0.000285754 -0.0204162 -0.0023731
0.00210815 -0.0055699 -0.015882
1.40319e-14 1.90624e-14 2.71525e-13
-1.33332e-14 1.88054e-14 2.53775e-13
6.56609e-05 0.000144162 0.0219262
0.00158091 0.00543223 0.00566586
0.000344173 0.0190024 -0.0100023
7.6716e-16 -1.26237e-15 -6.97604e-15
0.000342337 0.0147234 0.01432
0.000523704 0.0161158 -0.0119294
0.258536 -0.567624 0.00061764
0.000869009 0.0119613 0.0160311
0.00123334 -0.0104903 -0.0123269
0.000221671 -0.0135058 0.0155213
0.00190871 -0.0184899 -0.00156284
-9.68799e-317 -9.69932e-317 9.23294e-13
-6.98098e-15 -3.90027e-14 -2.68502e-13
0.00147688 0.00248814 -0.00993499
-2.27385e-14 -4.66214e-14 -1.52821e-13
-2.07795e-14 -3.35361e-15 3.38791e-13
0.000955922 -0.0134032 -0.00476046

VECTORS force float
-3.92362e-09 -1.2609e-08 2.09366e-08
-1.32349e-23 -1.98523e-23 0.0
-2.05207e-20 8.47033e-22 2.11758e-22
0.0 6.61744e-23 0.0
1.29702e-21 -1.29338e-20 0.0
-7.94093e-23 -6.31966e-22 0.0
-4.65537e-20 1.25996e-20 -6.77626e-21
0.0 0.0 0.0
8.71175e-07 9.48473e-08 2.28873e-07
-2.25658e-10 -1.10634e-08 5.47492e-09
1.24745e-19 0.0 -4.02341e-21
0.0 0.0 0.0
-2.3047 5.61862 1.12221
-6.88214e-22 -1.69407e-21 -4.23516e-22
2.13813e-08 6.59511e-08 -9.02719e-08
-5.62483e-20 2.92756e-20 -5.71747e-21
-8.21569e-10 1.14611e-08 -2.56655e-09
-1.10534e-09 -5.69321e-09 -1.09253e-08
1.04225e-22 0.0 0.0
0.0 0.0 0.0
6.91523e-22 5.29396e-22 -4.23516e-22
-8.25857e-21 -1.8423e-20 9.95264e-21
-3.49462e-11 -1.15466e-09 1.29468e-08
1.9281e-08 -1.23271e-08 1.92104e-08
-2.15596e-20 3.97047e-21 4.23516e-22
-0.00154339 -0.0806502 -0.0264028
2.34258e-21 7.94093e-23 0.0
1.89001e-19 2.57816e-20 -2.5411e-21
-2.19351e-09 8.13064e-09 -1.13525e-08
-9.14532e-09 -6.58566e-08 -5.64606e-08
-2.64698e-23 0.0 0.0
1.41108e-09 1.39249e-08 1.18464e-08
-9.18376e-09 1.89315e-08 8.96579e-09
2.82401e-09 1.71197e-09 -1.2775e-08
-5.41275e-09 -2.34009e-08 -1.61725e-09
-2.28709e-09 4.13904e-09 -1.04863e-08
-1.73872e-08 1.89854e-08 1.16712e-08
-2.38712e-09 1.18161e-08 -1.25091e-08
5.03588e-21 1.85288e-22 -2.11758e-22
2.94079e-20 1.11173e-21 6.35275e-22
0.0189195 0.00962952 -0.0647451
2.06787e-06 3.43507e-06 -5.86988e-06
-4.87706e-21 -6.67038e-21 2.11758e-22
3.17637e-22 1.00585e-21 3.17637e-21
5.69805e-10 -1.3887e-08 7.14479e-09
-2.21111e-07 1.28297e-08 9.23309e-08
0.0 0.0 0.0
-3.21366e-09 -3.03806e-08 1.95289e-08
-5.38602e-10 -6.87805e-09 -9.11785e-09
-5.62086e-20 -7.51742e-21 -2.11758e-21
1.01338e-08 -3.51378e-08 -2.29732e-08
1.33143e-20 6.98802e-21 -2.11758e-22
1.12842e-09 5.39617e-09 -8.89977e-09
-1.28706e-10 -1.05874e-08 3.91845e-09
-3.26172e-10 -2.32774e-09 -1.29534e-08
2.81418e-08 -2.53752e-08 4.02979e-08
-1.12782e-08 1.0867e-08 7.61759e-08
1.03166e-20 6.72332e-21 -2.11758e-22
-7.11341e-10 -3.7817e-09 1.09849e-08
1.197e-09 3.49833e-08 3.35368e-09
-1.65436e-20 -7.13361e-21 1.05879e-21
-3.65336e-09 -2.17578e-09 1.63629e-08
0.0 0.0 0.0
0.0 0.0 0.0
-2.65451e-06 2.09676e-05 -2.49358e-06
4.60078e-08 1.20162e-09 -7.72768e-09
-9.62176e-21 1.23349e-20 2.32934e-21
-1.05287e-08 -1.83138e-09 -4.21e-09
4.46942e-20 -2.30089e-20 0.0
1.29578e-09 -3.08065e-08 1.50651e-08
-1.58819e-22 -6.35275e-22 3.81165e-21
-3.15866e-08 -5.43836e-08 -9.85295e-09
-1.61523e-08 -8.39237e-09 9.35551e-08
0.0 1.15805e-23 0.0
-6.52768e-07 -1.96697e-06 4.46519e-06
1.7512e-07 -9.79559e-07 1.64272e-07
-1.37715e-09 -7.58934e-09 9.81942e-09
1.25487e-19 -4.76456e-22 -5.50571e-21
2.64698e-23 -2.96131e-21 0.0
-4.86851e-09 1.53198e-08 -1.61467e-08
-2.94192e-09 -5.10466e-09 9.53317e-09
-7.77015e-09 -2.70707e-08 -3.59243e-08
-3.1563e-08 1.5954e-08 -7.53584e-10
0.0 0.0 0.0
-0.000137936 2.19807e-05 -2.745e-05
3.59033e-09 -3.85425e-08 6.75327e-08
-4.41526e-09 -2.52928e-08 4.92623e-09
-8.16729e-09 2.07887e-08 3.6847e-09
2.64698e-23 -1.32349e-23 0.0
1.41719e-19 -5.65924e-20 1.14349e-20
-4.0606e-10 1.18908e-08 3.91801e-09
1.72425e-07 -9.81887e-08 -9.51374e-08
6.10574e-10 -2.59365e-09 -1.12799e-08
0.0 0.0 0.0
-3.92236e-09 1.40148e-08 5.69262e-10
-1.96579e-09 -3.22416e-09 -1.03261e-08
-0.237231 1.01288 0.147729
-6.73787e-09 1.65318e-08 3.73256e-09
1.34836e-08 2.91723e-08 5.43774e-08
-7.59455e-10 3.33083e-09 1.17015e-08
-1.65082e-06 2.25189e-06 1.12354e-06
0.0 0.0 0.0
5.59174e-21 4.49986e-22 0.0
-3.59333e-08 1.23717e-08 -1.12247e-07
6.61744e-22 5.29396e-23 -6.35275e-22
1.62789e-21 8.69135e-20 6.35275e-22
8.76248e-09 3.0516e-08 1.57353e-08
