# vtk DataFile Version 3.0
LIGGGHTS particles timestep 2000000
ASCII
DATASET POLYDATA
POINTS 287 float
0.0217458 0.0234123 0.0146603
0.015157 0.0205016 0.0168393
0.0258881 0.0191536 0.0167743
0.0188568 0.0238174 0.0148873
0.0236951 0.0156797 0.0158452
0.0199806 0.0221597 0.0146808
0.0202059 0.0213985 0.0152753
0.0207444 0.0234599 0.0116946
0.0212077 0.0169263 0.0154028
0.0176717 0.0191799 0.00718997
0.0211483 0.0166314 0.016357
0.0170939 0.0239948 0.0132691
0.0197086 0.022868 0.0163771
0.00938048 0.0183393 0.00587271
0.0235982 0.0196745 0.017519
0.0208541 0.0243334 0.0139235
0.0216558 0.0153957 0.0140553
0.0185048 0.0241074 0.0128125
0.0257249 0.0225157 0.0139206
0.0218638 0.0148721 0.0132111
0.018741 0.0171965 0.016412
0.0178892 0.0243574 0.0137549
0.0246653 0.0219651 0.0157748
0.0227794 0.0151027 0.0135403
0.0198767 0.0233368 0.0109464
0.02041 0.0205266 0.0157144
0.0210257 0.0178355 0.0157776
0.0242678 0.0208909 0.0164202
0.0198339 0.0239182 0.0146977
0.0188921 0.0244831 0.0136524
0.0231988 0.0169884 0.00770363
0.0141864 0.0164202 0.0160808
0.0201881 0.020527 0.0169631
0.0214291 0.016079 0.0148117
0.0198983 0.0244621 0.0136932
0.0225225 0.0236075 0.0139169
0.0187545 0.0147329 0.0144926
0.0224305 0.022857 0.0151315
0.0203884 0.0230163 0.0149215
0.0206972 0.0229251 0.0165156
0.0240511 0.0206493 0.00766541
0.0162762 0.0237014 0.0139036
0.0191429 0.0221857 0.0168402
0.0226232 0.0238598 0.0147831
0.0242335 0.0197001 0.00723939
0.020547 0.0213674 0.0162434
0.0225745 0.0156497 0.0143581
0.0203746 0.0238092 0.0156815
0.0216694 0.0239337 0.0137987
0.0187257 0.0227217 0.00953937
0.021998 0.0148002 0.0122231
0.0235413 0.0231761 0.0154966
0.0187053 0.0230128 0.0164042
0.0224679 0.0168067 0.0161757
0.0181313 0.0235307 0.0142618
0.020653 0.0195195 0.0159184
0.0235825 0.0187991 0.00721864
0.0213106 0.0197993 0.0168794
0.0191831 0.0245307 0.0172777
0.0203093 0.0235809 0.0138847
0.0241132 0.0225755 0.0159598
0.0228498 0.0180861 0.0158447
0.0220841 0.0144178 0.0140739
0.0236704 0.0152014 0.0149675
0.0221737 0.0212064 0.0154034
0.0227326 0.0153295 0.0152921
0.0258396 0.0181569 0.0167083
0.0250496 0.0219108 0.0165596
0.0201238 0.0234062 0.0122629
0.0247558 0.0185432 0.0167426
0.0226272 0.023107 0.0169823
0.0196952 0.024077 0.0128301
0.0214039 0.0204587 0.0157416
0.0188906 0.0231167 0.0102736
0.0210449 0.0237374 0.0126078
0.0221337 0.0161143 0.0155203
0.0160039 0.0212269 0.0154613
0.0164 0.0144221 0.013538
0.0163728 0.0237443 0.0148978
0.0212872 0.0235072 0.0159564
0.0184675 0.0140185 0.0129567
0.0198683 0.0231786 0.0131113
0.0215411 0.021233 0.0163592
0.01976 0.0228048 0.0139748
0.0229131 0.0166925 0.015279
0.0245049 0.0224587 0.00893953
0.0156147 0.015503 0.0142081
0.0193684 0.0237331 0.0136907
0.0229529 0.0111167 0.0258305
0.0182607 0.0242974 0.0169711
0.0208693 0.0238586 0.0147947
0.0209663 0.0221004 0.0147373
0.0170781 0.0241464 0.0143013
0.0147717 0.0221242 0.01721
0.0230219 0.0199557 0.0166695
0.0219494 0.0220306 0.0148391
0.0226353 0.0207867 0.0176223
0.0232153 0.0232265 0.0145959
0.0145006 0.0225485 0.01424
0.0196139 0.0139942 0.01298
0.0207708 0.0227275 0.0139941
0.0194435 0.0234524 0.01561
0.0203993 0.0187271 0.00600944
0.0222747 0.0148043 0.0109306
0.0192698 0.0234645 0.0119553
0.0174997 0.014266 0.0129151
0.0158461 0.0222239 0.0156366
0.019035 0.0233693 0.0110776
0.0166473 0.0239613 0.0170271
0.0155978 0.0230067 0.0135226
0.0179981 0.014375 0.0137751
0.0153188 0.0171123 0.015498
0.0171756 0.015048 0.0134474
0.0234312 0.017915 0.00736146
0.021212 0.0139365 0.013987
0.0262114 0.0208776 0.0153909
0.0191421 0.0225047 0.0155081
0.0229481 0.0147026 0.0144888
0.0259674 0.0216779 0.0147854
0.0181451 0.0222333 0.0167936
0.0232771 0.0172981 0.0164972
0.0237278 0.0216528 0.0160629
0.0202826 0.0158223 0.0156883
0.0173031 0.0186109 0.0167171
0.0174227 0.0196039 0.0167166
0.0152551 0.0189689 0.0165282
0.0251575 0.0168217 0.0162623
0.0241163 0.0199313 0.0166717
0.0258663 0.0231318 0.0129849
0.023093 0.022292 0.0156225
0.0171734 0.0205521 0.0165193
0.0182471 0.0143542 0.0152667
0.013924 0.0213637 0.0168845
0.0254483 0.0210041 0.016416
0.0268028 0.0211288 0.0152521
0.0184042 0.0191027 0.0167466
0.0190448 0.0209342 0.0164228
0.016534 0.0227921 0.0151829
0.0174456 0.0146304 0.0119619
0.0195675 0.0144602 0.0150266
0.0156159 0.020137 0.0180764
0.0235275 0.0206404 0.0171947
0.0226165 0.0191571 0.015956
0.0201806 0.0244721 0.0173126
0.0150935 0.0215806 0.0151677
0.0172668 0.02324 0.0146709
0.0242657 0.0213003 0.0173339
0.0156962 0.0232644 0.015456
0.0237272 0.0179643 0.0171424
0.0151685 0.0225605 0.0149828
0.0169793 0.0235329 0.0156854
0.016759 0.0210739 0.0174294
0.0175164 0.0225791 0.0153784
0.015785 0.0144295 0.0143263
0.0214512 0.0227387 0.0153386
0.018603 0.021813 0.0159882
0.0168037 0.0224375 0.0160781
0.0183449 0.0200952 0.0166401
0.0233126 0.0215532 0.0175447
0.0258283 0.0201526 0.0167772
0.0223847 0.0202892 0.0157666
0.0142089 0.0204764 0.016522
0.0149045 0.0182795 0.0158944
0.0183804 0.0229446 0.0150326
0.0163678 0.015944 0.0146952
0.0140636 0.0219264 0.0148877
0.0146951 0.0207742 0.0156049
0.0155086 0.0226163 0.0167432
0.015772 0.0233482 0.0173711
0.0176736 0.0176946 0.0165643
0.0187924 0.0137747 0.0138673
0.0195842 0.0144291 0.0140242
0.021969 0.0175172 0.0156795
0.0179675 0.0236606 0.0156015
0.0216433 0.0185324 0.01697
0.0145944 0.019798 0.0158822
0.0168224 0.018072 0.0158365
0.0211779 0.0176375 0.0167639
0.0193396 0.0200208 0.0167208
0.0237953 0.0189791 0.0168057
0.0165804 0.0148991 0.0147095
0.0169961 0.0163792 0.0158789
0.0222617 0.0193357 0.0168769
0.0172279 0.0149601 0.0154691
0.0176054 0.0218408 0.0160481
0.0173129 0.0161262 0.0149648
0.0222993 0.0215582 0.0170801
0.021171 0.0221413 0.0161124
0.0168416 0.0220612 0.0172965
0.0230545 0.0222766 0.0166217
0.0220354 0.0146214 0.0150515
0.0221423 0.0221204 0.0158791
0.0211948 0.0213525 0.0153516
0.0202863 0.0220988 0.0169016
0.0166691 0.0147445 0.0126306
0.0167856 0.0214742 0.0164875
0.0249893 0.0194484 0.017099
0.022769 0.021372 0.0162137
0.0153981 0.0161888 0.0149028
0.0191196 0.0195177 0.0175905
0.01875 0.0239772 0.0161374
0.0213697 0.023117 0.0133081
0.022269 0.0206162 0.0167047
0.0246426 0.0159912 0.0157645
0.0205838 0.0140485 0.013217
0.0162469 0.0232004 0.0164065
0.0177094 0.0229709 0.0162778
0.0228789 0.0185209 0.016804
0.0222102 0.0231376 0.0160669
0.0180252 0.0155622 0.0154258
0.0194586 0.0190286 0.0167676
0.0137436 0.0220841 0.015828
0.0143015 0.0229699 0.0152664
0.0245226 0.0175905 0.016548
0.0196427 0.0213601 0.0171018
0.0208513 0.0177287 0.0177436
0.0160847 0.0157678 0.0156717
0.0192708 0.0142406 0.0160964
0.0222242 0.0177912 0.0166067
0.0150066 0.0214177 0.0163064
0.015931 0.0217333 0.0169443
0.0165042 0.0172131 0.0162614
0.0180489 0.021024 0.0164169
0.0197341 0.0227317 0.017445
0.0187517 0.0161191 0.0158521
0.0169913 0.0230482 0.0172451
0.0193431 0.0235547 0.0170332
0.0178311 0.0200813 0.017498
0.0208106 0.0185968 0.0164197
0.0209382 0.0211655 0.017155
0.0228719 0.0159113 0.0163634
0.0233298 0.0225531 0.0175427
0.0245773 0.0174481 0.0175362
0.0177563 0.0141916 0.0161231
0.0227775 0.01733 0.0174464
0.016148 0.0186862 0.0168808
0.0202735 0.0223509 0.0157263
0.0159746 0.0224072 0.0176819
0.0203586 0.0148113 0.0155345
0.0151386 0.0162007 0.0158684
0.0180666 0.0182638 0.0172886
0.0174882 0.0239659 0.0164293
0.021845 0.0224417 0.0167984
0.0188716 0.0182209 0.0166823
0.0235991 0.0164081 0.0168371
0.0179334 0.023373 0.0171655
0.020386 0.0194277 0.0170241
0.0211417 0.0150621 0.0149648
0.0155319 0.0196495 0.0172068
0.0147297 0.0222496 0.0158257
0.0216631 0.0194829 0.0159211
0.020758 0.0239866 0.0166563
0.0196837 0.0168059 0.0162719
0.0161125 0.0207749 0.016728
0.0205263 0.0145823 0.0143225
0.0218604 0.0169372 0.0169917
0.0197107 0.0241701 0.0163362
0.0158804 0.0184891 0.0159128
0.0219034 0.015189 0.0158638
0.0174656 0.0178989 0.0188521
0.0217305 0.0235304 0.0168523
0.0144578 0.0200478 0.017392
0.0141924 0.0152933 0.0152204
0.0149562 0.0148682 0.0147348
0.0227932 0.0213589 0.0184298
0.0196088 0.0216953 0.0160839
0.0199566 0.0181432 0.0167112
0.0178941 0.0166764 0.0162037
0.0193973 0.018087 0.017539
0.0161471 0.0241216 0.0178806
0.0143323 0.0192783 0.0167659
0.0166321 0.0191139 0.0161159
0.0187993 0.0150847 0.0158414
0.0176504 0.0214748 0.0172177
0.0197185 0.0151887 0.0162211
0.0218816 0.0159649 0.0164939
0.0156139 0.0164404 0.0183711
0.0171116 0.0142153 0.0142093
0.0168441 0.0201041 0.0176569
0.0162754 0.0168418 0.0153614
0.0249062 0.0204436 0.0170478
0.0202567 0.0158466 0.0187993
0.0209673 0.0153025 0.0161988
0.0198009 0.0230552 0.0187218
0.0164397 0.0198324 0.0167829
0.0218707 0.0184851 0.0159102
0.0157159 0.0210178 0.0176133

VERTICES 287 574
1 0
1 1
1 2
1 3
1 4
1 5
1 6
1 7
1 8
1 9
1 10
1 11
1 12
1 13
1 14
1 15
1 16
1 17
1 18
1 19
1 20
1 21
1 22
1 23
1 24
1 25
1 26
1 27
1 28
1 29
1 30
1 31
1 32
1 33
1 34
1 35
1 36
1 37
1 38
1 39
1 40
1 41
1 42
1 43
1 44
1 45
1 46
1 47
1 48
1 49
1 50
1 51
1 52
1 53
1 54
1 55
1 56
1 57
1 58
1 59
1 60
1 61
1 62
1 63
1 64
1 65
1 66
1 67
1 68
1 69
1 70
1 71
1 72
1 73
1 74
1 75
1 76
1 77
1 78
1 79
1 80
1 81
1 82
1 83
1 84
1 85
1 86
1 87
1 88
1 89
1 90
1 91
1 92
1 93
1 94
1 95
1 96
1 97
1 98
1 99
1 100
1 101
1 102
1 103
1 104
1 105
1 106
1 107
1 108
1 109
1 110
1 111
1 112
1 113
1 114
1 115
1 116
1 117
1 118
1 119
1 120
1 121
1 122
1 123
1 124
1 125
1 126
1 127
1 128
1 129
1 130
1 131
1 132
1 133
1 134
1 135
1 136
1 137
1 138
1 139
1 140
1 141
1 142
1 143
1 144
1 145
1 146
1 147
1 148
1 149
1 150
1 151
1 152
1 153
1 154
1 155
1 156
1 157
1 158
1 159
1 160
1 161
1 162
1 163
1 164
1 165
1 166
1 167
1 168
1 169
1 170
1 171
1 172
1 173
1 174
1 175
1 176
1 177
1 178
1 179
1 180
1 181
1 182
1 183
1 184
1 185
1 186
1 187
1 188
1 189
1 190
1 191
1 192
1 193
1 194
1 195
1 196
1 197
1 198
1 199
1 200
1 201
1 202
1 203
1 204
1 205
1 206
1 207
1 208
1 209
1 210
1 211
1 212
1 213
1 214
1 215
1 216
1 217
1 218
1 219
1 220
1 221
1 222
1 223
1 224
1 225
1 226
1 227
1 228
1 229
1 230
1 231
1 232
1 233
1 234
1 235
1 236
1 237
1 238
1 239
1 240
1 241
1 242
1 243
1 244
1 245
1 246
1 247
1 248
1 249
1 250
1 251
1 252
1 253
1 254
1 255
1 256
1 257
1 258
1 259
1 260
1 261
1 262
1 263
1 264
1 265
1 266
1 267
1 268
1 269
1 270
1 271
1 272
1 273
1 274
1 275
1 276
1 277
1 278
1 279
1 280
1 281
1 282
1 283
1 284
1 285
1 286

POINT_DATA 287
SCALARS id int 1
LOOKUP_TABLE default
1
2
3
4
5
6
7
9
10
11
12
13
14
15
16
17
18
19
20
21
22
23
24
25
26
27
28
29
30
31
32
33
34
35
36
37
38
39
40
41
42
43
44
45
46
47
48
49
50
51
52
53
54
56
57
58
59
60
61
62
63
64
65
66
67
68
69
70
71
72
73
74
75
76
78
79
80
81
82
83
84
85
86
87
88
89
90
91
92
93
95
96
97
98
99
100
101
102
103
104
105
106
108
109
110
111
112
113
114
115
116
117
118
120
121
122
123
124
125
126
127
128
129
130
131
132
133
134
135
136
137
138
139
141
142
143
144
145
146
147
148
149
150
151
152
153
154
155
156
157
158
159
160
161
162
163
164
165
166
167
168
169
170
171
173
174
175
176
177
178
179
180
181
182
183
184
185
186
187
188
189
190
191
192
193
194
196
197
199
200
201
202
203
204
205
206
208
209
210
211
212
213
214
215
216
217
218
219
220
221
223
224
225
226
227
228
229
230
231
232
233
234
235
236
237
238
239
240
241
242
243
244
246
247
248
249
250
251
252
253
254
255
256
257
258
259
260
261
262
263
264
265
266
267
268
269
270
271
272
273
274
275
276
277
278
279
280
281
282
283
284
285
286
287
288
289
290
291
292
293
294
295
296
297
298
299
300

SCALARS type int 1
LOOKUP_TABLE default
1
1
1
1
1
1
1
1
1
1
1
1
1
1
1
1
1
1
1
1
1
1
1
1
1
1
1
1
1
1
1
1
1
1
1
1
1
1
1
1
1
1
1
1
1
1
1
1
1
1
1
1
1
1
1
1
1
1
1
1
1
1
1
1
1
1
1
1
1
1
1
1
1
1
1
1
1
1
1
1
1
1
1
1
1
1
1
1
1
1
1
1
1
1
1
1
1
1
1
1
1
1
1
1
1
1
1
1
1
1
1
1
1
1
1
1
1
1
1
1
1
1
1
1
1
1
1
1
1
1
1
1
1
1
1
1
1
1
1
1
1
1
1
1
1
1
1
1
1
1
1
1
1
1
1
1
1
1
1
1
1
1
1
1
1
1
1
1
1
1
1
1
1
1
1
1
1
1
1
1
1
1
1
1
1
1
1
1
1
1
1
1
1
1
1
1
1
1
1
1
1
1
1
1
1
1
1
1
1
1
1
1
1
1
1
1
1
1
1
1
1
1
1
1
1
1
1
1
1
1
1
1
1
1
1
1
1
1
1
1
1
1
1
1
1
1
1
1
1
1
1
1
1
1
1
1
1
1
1
1
1
1
1
1
1
1
1
1
1
1
1
1
1
1
1
1
1
1
1
1
1
1
1
1
1
1
1

SCALARS radius float 1
LOOKUP_TABLE default
0.0005
0.0005
0.0005
0.0005
0.0005
0.0005
0.0005
0.0005
0.0005
0.0005
0.0005
0.0005
0.0005
0.0005
0.0005
0.0005
0.0005
0.0005
0.0005
0.0005
0.0005
0.0005
0.0005
0.0005
0.0005
0.0005
0.0005
0.0005
0.0005
0.0005
0.0005
0.0005
0.0005
0.0005
0.0005
0.0005
0.0005
0.0005
0.0005
0.0005
0.0005
0.0005
0.0005
0.0005
0.0005
0.0005
0.0005
0.0005
0.0005
0.0005
0.0005
0.0005
0.0005
0.0005
0.0005
0.0005
0.0005
0.0005
0.0005
0.0005
0.0005
0.0005
0.0005
0.0005
0.0005
0.0005
0.0005
0.0005
0.0005
0.0005
0.0005
0.0005
0.0005
0.0005
0.0005
0.0005
0.0005
0.0005
0.0005
0.0005
0.0005
0.0005
0.0005
0.0005
0.0005
0.0005
0.0005
0.0005
0.0005
0.0005
0.0005
0.0005
0.0005
0.0005
0.0005
0.0005
0.0005
0.0005
0.0005
0.0005
0.0005
0.0005
0.0005
0.0005
0.0005
0.0005
0.0005
0.0005
0.0005
0.0005
0.0005
0.0005
0.0005
0.0005
0.0005
0.0005
0.0005
0.0005
0.0005
0.0005
0.0005
0.0005
0.0005
0.0005
0.0005
0.0005
0.0005
0.0005
0.0005
0.0005
0.0005
0.0005
0.0005
0.0005
0.0005
0.0005
0.0005
0.0005
0.0005
0.0005
0.0005
0.0005
0.0005
0.0005
0.0005
0.0005
0.0005
0.0005
0.0005
0.0005
0.0005
0.0005
0.0005
0.0005
0.0005
0.0005
0.0005
0.0005
0.0005
0.0005
0.0005
0.0005
0.0005
0.0005
0.0005
0.0005
0.0005
0.0005
0.0005
0.0005
0.0005
0.0005
0.0005
0.0005
0.0005
0.0005
0.0005
0.0005
0.0005
0.0005
0.0005
0.0005
0.0005
0.0005
0.0005
0.0005
0.0005
0.0005
0.0005
0.0005
0.0005
0.0005
0.0005
0.0005
0.0005
0.0005
0.0005
0.0005
0.0005
0.0005
0.0005
0.0005
0.0005
0.0005
0.0005
0.0005
0.0005
0.0005
0.0005
0.0005
0.0005
0.0005
0.0005
0.0005
0.0005
0.0005
0.0005
0.0005
0.0005
0.0005
0.0005
0.0005
0.0005
0.0005
0.0005
0.0005
0.0005
0.0005
0.0005
0.0005
0.0005
0.0005
0.0005
0.0005
0.0005
0.0005
0.0005
0.0005
0.0005
0.0005
0.0005
0.0005
0.0005
0.0005
0.0005
0.0005
0.0005
0.0005
0.0005
0.0005
0.0005
0.0005
0.0005
0.0005
0.0005
0.0005
0.0005
0.0005
0.0005
0.0005
0.0005
0.0005
0.0005
0.0005
0.0005
0.0005
0.0005
0.0005
0.0005
0.0005
0.0005
0.0005
0.0005
0.0005
0.0005
0.0005
0.0005
0.0005
0.0005
0.0005
0.0005
0.0005
0.0005
0.0005
0.0005
0.0005
0.0005

SCALARS mass float 1
LOOKUP_TABLE default
1.46608e-07
1.46608e-07
1.46608e-07
1.46608e-07
1.46608e-07
1.46608e-07
1.46608e-07
1.46608e-07
1.46608e-07
1.46608e-07
1.46608e-07
1.46608e-07
1.46608e-07
1.46608e-07
1.46608e-07
1.46608e-07
1.46608e-07
1.46608e-07
1.46608e-07
1.46608e-07
1.46608e-07
1.46608e-07
1.46608e-07
1.46608e-07
1.46608e-07
1.46608e-07
1.46608e-07
1.46608e-07
1.46608e-07
1.46608e-07
1.46608e-07
1.46608e-07
1.46608e-07
1.46608e-07
1.46608e-07
1.46608e-07
1.46608e-07
1.46608e-07
1.46608e-07
1.46608e-07
1.46608e-07
1.46608e-07
1.46608e-07
1.46608e-07
1.46608e-07
1.46608e-07
1.46608e-07
1.46608e-07
1.46608e-07
1.46608e-07
1.46608e-07
1.46608e-07
1.46608e-07
1.46608e-07
1.46608e-07
1.46608e-07
1.46608e-07
1.46608e-07
1.46608e-07
1.46608e-07
1.46608e-07
1.46608e-07
1.46608e-07
1.46608e-07
1.46608e-07
1.46608e-07
1.46608e-07
1.46608e-07
1.46608e-07
1.46608e-07
1.46608e-07
1.46608e-07
1.46608e-07
1.46608e-07
1.46608e-07
1.46608e-07
1.46608e-07
1.46608e-07
1.46608e-07
1.46608e-07
1.46608e-07
1.46608e-07
1.46608e-07
1.46608e-07
1.46608e-07
1.46608e-07
1.46608e-07
1.46608e-07
1.46608e-07
1.46608e-07
1.46608e-07
1.46608e-07
1.46608e-07
1.46608e-07
1.46608e-07
1.46608e-07
1.46608e-07
1.46608e-07
1.46608e-07
1.46608e-07
1.46608e-07
1.46608e-07
1.46608e-07
1.46608e-07
1.46608e-07
1.46608e-07
1.46608e-07
1.46608e-07
1.46608e-07
1.46608e-07
1.46608e-07
1.46608e-07
1.46608e-07
1.46608e-07
1.46608e-07
1.46608e-07
1.46608e-07
1.46608e-07
1.46608e-07
1.46608e-07
1.46608e-07
1.46608e-07
1.46608e-07
1.46608e-07
1.46608e-07
1.46608e-07
1.46608e-07
1.46608e-07
1.46608e-07
1.46608e-07
1.46608e-07
1.46608e-07
1.46608e-07
1.46608e-07
1.46608e-07
1.46608e-07
1.46608e-07
1.46608e-07
1.46608e-07
1.46608e-07
1.46608e-07
1.46608e-07
1.46608e-07
1.46608e-07
1.46608e-07
1.46608e-07
1.46608e-07
1.46608e-07
1.46608e-07
1.46608e-07
1.46608e-07
1.46608e-07
1.46608e-07
1.46608e-07
1.46608e-07
1.46608e-07
1.46608e-07
1.46608e-07
1.46608e-07
1.46608e-07
1.46608e-07
1.46608e-07
1.46608e-07
1.46608e-07
1.46608e-07
1.46608e-07
1.46608e-07
1.46608e-07
1.46608e-07
1.46608e-07
1.46608e-07
1.46608e-07
1.46608e-07
1.46608e-07
1.46608e-07
1.46608e-07
1.46608e-07
1.46608e-07
1.46608e-07
1.46608e-07
1.46608e-07
1.46608e-07
1.46608e-07
1.46608e-07
1.46608e-07
1.46608e-07
1.46608e-07
1.46608e-07
1.46608e-07
1.46608e-07
1.46608e-07
1.46608e-07
1.46608e-07
1.46608e-07
1.46608e-07
1.46608e-07
1.46608e-07
1.46608e-07
1.46608e-07
1.46608e-07
1.46608e-07
1.46608e-07
1.46608e-07
1.46608e-07
1.46608e-07
1.46608e-07
1.46608e-07
1.46608e-07
1.46608e-07
1.46608e-07
1.46608e-07
1.46608e-07
1.46608e-07
1.46608e-07
1.46608e-07
1.46608e-07
1.46608e-07
1.46608e-07
1.46608e-07
1.46608e-07
1.46608e-07
1.46608e-07
1.46608e-07
1.46608e-07
1.46608e-07
1.46608e-07
1.46608e-07
1.46608e-07
1.46608e-07
1.46608e-07
1.46608e-07
1.46608e-07
1.46608e-07
1.46608e-07
1.46608e-07
1.46608e-07
1.46608e-07
1.46608e-07
1.46608e-07
1.46608e-07
1.46608e-07
1.46608e-07
1.46608e-07
1.46608e-07
1.46608e-07
1.46608e-07
1.46608e-07
1.46608e-07
1.46608e-07
1.46608e-07
1.46608e-07
1.46608e-07
1.46608e-07
1.46608e-07
1.46608e-07
1.46608e-07
1.46608e-07
1.46608e-07
1.46608e-07
1.46608e-07
1.46608e-07
1.46608e-07
1.46608e-07
1.46608e-07
1.46608e-07
1.46608e-07
1.46608e-07
1.46608e-07
1.46608e-07
1.46608e-07
1.46608e-07
1.46608e-07
1.46608e-07
1.46608e-07
1.46608e-07
1.46608e-07
1.46608e-07
1.46608e-07
1.46608e-07
1.46608e-07
1.46608e-07
1.46608e-07
1.46608e-07
1.46608e-07
1.46608e-07
1.46608e-07
1.46608e-07

VECTORS velocity float
-0.00090678 -0.000115804 -0.00302046
-0.001142 0.0122696 0.018536
-3.22796e-05 0.00018723 0.000911555
0.00385109 0.00110743 -0.00305993
0.00398726 0.00981012 -0.0013634
0.00511413 -0.00174028 0.000463327
0.00473867 -0.000523626 0.000488032
-0.000133286 -0.000121791 0.000649652
0.00231007 0.0114765 0.00692957
0.000192672 -0.0215085 -0.00112376
-0.00742174 -0.0011263 0.00346123
0.00240671 -0.000165067 -0.00338376
0.00198418 -0.00402785 -0.00809527
3.64668e-15 5.28919e-16 -3.6901e-14
0.0171157 -0.00445531 -0.0136808
-0.000382546 0.00078225 -0.000497325
0.0015839 0.00855186 0.0129299
0.00023404 -0.000112606 -0.00885346
-2.70801e-05 0.0135243 -0.0173311
0.00207442 -0.00109958 0.0194299
0.00495598 -0.00725939 -0.00450925
0.000726324 0.000106915 -0.000166978
8.79537e-05 -0.000487913 -0.00366292
0.00509373 0.00123669 0.00357717
0.00318019 -0.0011252 -0.00532278
0.0048846 -0.00180231 0.00254595
-0.00242534 0.0149509 0.00765748
0.00355603 0.00628704 0.000256183
0.0056577 -0.00447283 -0.00183807
-0.000879088 -0.000881997 0.000363511
0.00235967 -0.0137048 0.00860405
-0.00668883 0.00668994 0.00421605
0.00814457 -0.0105728 0.0290208
0.00512655 -0.00102545 0.000516402
-0.000516298 -0.000479887 0.000739659
6.31399e-05 0.00401886 -0.00895135
-0.00324058 -0.00843997 -0.0139487
0.00187866 -0.000323165 0.00106824
0.0138062 -0.00661251 0.00321162
0.00200886 -0.00181623 -0.0024777
-0.000123477 -0.0196272 -0.0100829
0.000477613 0.00049764 1.84706e-05
0.00290342 -0.00424803 -0.00545374
-0.000279918 0.00088816 -0.00265968
-0.00140469 -0.015612 -0.00537738
0.00182062 0.011331 -0.00505509
0.00547926 0.00177361 0.00207665
-0.000249163 -0.000375158 -0.00044352
0.000179928 0.00457176 -0.00515599
0.00217446 -0.00862703 -0.014356
0.000211921 0.0036883 0.0202925
-0.00104981 0.00120513 -0.000712538
0.0148081 -0.0144684 -0.0416422
-0.00194943 0.00116055 -0.00630035
0.0026487 0.000222612 -0.00134274
0.00417618 0.0154104 -0.00720134
0.000230345 -0.0204528 0.00151505
0.0269113 -0.0372195 0.0179759
0.00245363 0.000134717 0.000938654
0.00212974 -0.000551493 0.000457775
-0.000337288 0.000202019 -0.000780875
0.00387821 -0.00440083 -0.0028693
-0.00218868 -0.0106563 0.0162474
0.00102158 0.0012083 0.00149597
0.00509108 -0.00179291 0.000828497
0.00201905 -0.00063438 0.00232809
0.00100786 -8.44347e-05 0.000832996
0.000126306 -0.000902666 -0.000937582
-0.00128337 2.27818e-05 0.00347111
-0.00162741 -0.00473455 -0.00183492
-0.000384946 -0.0016363 -0.00395079
-0.000180016 -0.000441542 0.00136111
0.00473813 0.00352663 0.00259598
0.00174205 -0.00533575 -0.0151154
0.00149439 -0.0022374 0.0015507
0.00852453 -0.00433741 -0.00686075
0.0270942 -0.0126739 -0.0743635
-0.00268694 -0.000196367 0.00370368
0.00555151 0.00169504 -0.000461204
0.000265579 1.43575e-05 -0.000906709
-0.00237592 -0.000205783 0.00198049
0.00172317 -0.000801432 0.00268667
0.0118102 0.00775254 -0.0151488
0.00454573 -0.001116 0.00119499
0.00227025 0.0106582 0.00765134
0.00159771 -0.0106875 -0.0123673
-5.97474e-05 0.0136239 0.018782
-0.000720329 -0.00242366 0.0010072
-0.0542901 0.17051 -0.401741
0.00262887 6.1595e-05 -2.76184e-05
-0.000109479 0.000414647 -0.00118343
0.0056401 -0.00241604 0.00224676
0.000285544 0.000700206 -0.000249791
0.00162829 -0.0128521 -0.0209219
-0.000216496 -0.00153669 -0.00166607
0.00559654 -0.00156517 0.00282278
0.0041442 -0.00381945 0.00262797
-0.000180806 0.00328068 -0.00207465
0.00505585 0.00205515 -0.00209565
-0.000887682 -0.000974115 0.00169155
0.00770459 -0.00165773 0.00135362
-0.000858351 -4.18229e-05 0.000396829
-6.42029e-15 2.86623e-15 -5.77876e-14
0.000834855 -0.00298891 0.0161227
0.00308634 0.000949894 -0.015954
-0.00245653 -1.74989e-05 0.0035574
0.00769469 -0.0134975 -0.0111146
0.00154944 -0.00202733 -0.013154
0.000251173 0.000410397 0.00290492
0.00263089 0.00114096 -0.00158187
0.000789768 0.000750586 0.00149992
2.82119e-06 0.0183952 0.00887395
-0.00224468 0.000229107 0.00338073
0.000100572 -0.0215527 0.00512617
-0.00431486 -0.00396664 0.00293815
0.00147471 0.0140936 -0.00683948
0.00013108 -0.000351937 0.000672422
-0.000184126 -0.0089801 0.0112209
0.00113438 0.0146296 -0.0127775
0.00205489 -0.000118577 -0.000514161
0.000221322 0.0076847 -0.0129593
0.00454225 -0.00278588 -0.00463938
0.00363647 0.0135687 0.00564918
-0.00102129 0.00367399 0.000740901
0.00233398 0.00440722 -0.00222744
0.00333408 0.0175525 0.00707074
-0.000450696 0.00816054 0.00398216
0.00284966 -0.00320226 0.000610406
5.69717e-05 0.00729952 -0.0138361
-0.000889978 0.00223275 -0.0022402
-0.000630528 0.00237441 0.00183593
-0.00608972 -0.00606401 -0.0141605
0.00210957 0.000666051 -0.000699587
-0.00416265 -0.0024415 -0.00925703
0.00645906 0.0054044 -0.00504977
0.00220325 -0.000491455 -0.00062368
0.00208681 0.0103577 -0.00221142
0.00410862 -0.000531907 -0.00182759
0.000363251 -0.000321921 0.000636567
-0.00436695 0.00192092 -0.00553412
0.00981014 0.00906624 0.0144844
0.00420761 -0.00437775 -0.00443557
0.00132244 0.0104715 0.00144524
0.00215518 -0.000298467 0.00107503
0.00401473 0.000549696 -0.00198692
0.00241812 0.00191756 -0.00127857
0.00136755 -0.00050239 -0.00622033
0.00522155 0.00113491 -0.000852423
0.0116204 -0.0144538 0.00954309
0.00584627 0.00183892 -0.00225729
0.00289982 -0.000465776 -0.00125223
0.00838479 -0.00204169 0.0250787
0.00304913 0.00240321 -0.000717848
-0.00307772 0.000282099 0.00352147
0.00229351 -0.0014974 0.000403439
0.000113504 0.000241271 0.00123849
0.000180893 0.00103808 -0.000115318
0.00295814 -0.000558546 -0.000989604
-0.00236033 0.00150022 -0.00839488
-0.00340661 -0.00215268 -0.00969264
0.00334881 0.0156893 -0.00201667
0.00690347 0.00156463 -0.000850757
-0.000170665 0.022707 0.00350848
0.00256156 0.000436417 -0.00124062
7.52011e-05 0.0167762 0.0156097
0.00486318 0.00202656 -0.00136367
-0.00288365 0.00197026 -0.00214665
0.00551322 0.0176876 0.015671
0.0119973 0.0082397 0.00888801
-1.65032e-05 0.00410174 0.000836141
9.70575e-05 -0.000226238 0.00031813
-0.00141292 -0.00839101 -0.00816696
0.000332081 0.011917 0.00633742
0.00234493 -0.000197938 -0.000446556
0.0110251 -0.0271837 -0.00154959
-0.00118139 0.00834209 -0.001818
-9.65895e-12 0.0200469 0.0044007
0.0060148 -0.00403365 0.0114399
0.00508186 0.00426189 -0.0143547
-0.000622658 -0.00541119 -0.0240499
0.000633529 0.00954213 -0.0154236
-0.00767208 0.0120781 0.0137909
0.026302 -0.0342574 0.0235791
0.005803 -0.00176717 -0.0189326
0.000665101 0.000425677 -0.000698966
2.09029e-05 0.0183031 0.014562
0.0384688 -0.00623671 -0.0258463
0.0079889 -0.00172441 0.00834143
0.00425238 -0.000717798 0.0213592
-6.10294e-05 -0.00119953 -0.00232199
-0.00219398 -0.0109201 0.0182006
0.0017724 -0.000124411 -0.00521919
0.003426 0.00131307 0.00641994
0.00400435 -0.00240346 -0.00381208
-0.00272139 -0.000188597 0.0038352
0.000784093 0.00865535 0.00973445
-0.00237055 -0.00307064 0.000387127
0.00367894 -0.00740389 -0.0218325
0.000111306 0.0177624 0.0148669
-0.0347556 -0.00139723 -0.0267679
-0.000526631 0.00055268 -5.58577e-05
0.00730579 -0.0011109 0.00396105
-0.00350287 -0.00613581 0.000491795
0.00464953 0.00797648 0.00579539
-0.000433423 -9.84438e-05 0.000263598
0.00597805 0.00621933 -0.000843665
0.00159282 8.122e-05 0.000632776
0.01101 -0.00247612 -0.00681308
-0.00152655 0.00156756 0.00306039
0.000795117 0.00673969 0.00736326
0.00417919 0.00311512 -0.0136079
0.0046077 0.00865635 -0.000106423
0.00201598 -3.77717e-05 -0.00969224
-0.00425001 -0.00360618 0.000844468
0.00368211 -0.00050194 0.00281719
-0.0236289 0.00121395 0.0321503
-0.0124462 -0.0126388 -0.00259827
-0.00010408 0.000941558 -0.00250182
0.00605246 -0.00361279 0.0121008
0.00615653 0.00437059 -0.00450873
0.000943384 0.0184103 0.0230133
0.00272385 0.0227533 0.00493672
0.00107298 0.000687203 0.000338735
0.00597632 -0.00230461 -0.0119384
0.000319612 -0.00761984 -0.00544678
0.00192055 0.00151952 0.0120973
-0.00446195 -0.00748226 -0.00976708
0.00618947 0.000388473 0.000646118
0.00409371 0.0128565 0.00772802
0.00645633 -0.00769046 -0.0133298
-0.00119393 0.000399315 -0.00413739
-0.00164566 0.00185448 -0.000749881
-0.00427099 -0.00565446 0.000528004
0.00157311 0.00324153 -0.00570474
0.00981505 -0.0276403 0.0145951
-0.000506842 0.000130398 -0.011488
0.000740726 0.00550927 0.00738846
0.00676338 0.0243762 0.0119371
-0.00141782 -0.000867515 -0.0199466
-0.00103031 0.0209795 0.0148269
0.00317869 0.00992771 -0.00849027
0.00303999 -0.000289273 -0.00126615
-0.00193407 -0.0171869 -0.00859218
0.00183023 -0.00150712 -0.00162856
0.00608927 0.00646433 -0.0223151
0.00246638 -0.000672617 0.000316601
0.0164348 -0.0337137 0.0119799
0.00829629 0.00129578 -0.00185937
0.00677199 0.00939691 0.0131015
0.0052862 0.00616934 -0.00126114
-0.0045141 0.0139231 -0.00168022
0.00101773 -0.000389567 -7.70845e-05
-1.02986e-09 0.0223607 0.0108287
-0.000876356 0.0167515 0.0258878
-0.00439136 -0.00198969 -0.00165483
0.00287654 -0.00903154 0.00297023
-0.000266672 1.28384e-05 4.49641e-05
-0.000298404 0.0226355 0.00294144
-0.000209873 -0.00254011 0.0122314
0.0 -0.0 -0.03
0.00146418 0.00219977 -0.00322326
-0.00543507 0.00954989 0.0131105
0.00423592 -0.00238612 -0.00583127
0.00568425 -0.0030815 -0.00297467
0.000572352 0.0185518 -0.00708802
-0.0266687 -0.0172624 0.0185705
0.00290853 0.00918222 0.00243187
0.00683656 -0.00547964 -0.00876613
-0.000323261 -0.00837464 -0.00205885
0.00982568 0.0031975 0.00535916
-4.01834e-05 0.0176602 0.000818317
-4.22191e-05 0.0238296 0.00214903
0.00331583 0.00192279 -0.00313334
0.00479597 -0.000137499 0.00675481
0.00801022 -0.0100492 -0.01099
-7.78197e-05 0.00797258 0.000769796
0.0 0.0 -0.04575
0.00034149 -0.00144435 -0.000357571
0.00812171 -0.00435463 0.0214149
-0.00194473 0.0166772 0.00984495
0.00413143 -0.00242713 -0.00261932
0.0 -0.0 -0.03
-0.000388643 0.00757883 -0.00343552
0.0 -0.0 -0.03
0.00520649 0.0176846 0.0138832
0.00430559 0.00981278 0.00246316
-0.00299416 0.0148144 0.0210252

VECTORS force float
1.68302e-06 1.71142e-06 3.35812e-07
0.0 0.0 -1.43822e-06
-4.9169e-08 5.82686e-07 -5.66227e-07
-4.47332e-08 5.20714e-07 -4.75541e-07
-7.81368e-07 9.85809e-07 2.60705e-07
3.77627e-06 -1.48708e-06 2.89619e-07
5.61204e-07 -1.94817e-05 1.50289e-05
-1.66769e-06 3.39563e-07 1.63579e-07
5.99388e-07 6.39708e-07 5.02055e-08
-8.57298e-10 -5.82941e-09 1.08565e-08
0.0 0.0 -1.43822e-06
-2.30134e-07 -8.5749e-08 1.40199e-06
-1.76825e-06 -1.18264e-06 -4.71197e-07
-4.07635e-21 2.76973e-20 0.0
0.0 0.0 -1.43822e-06
-4.43821e-06 6.40542e-06 -1.51547e-05
-9.72581e-08 -3.8697e-07 -4.57181e-07
1.75208e-06 4.23458e-08 -1.29523e-07
-2.50133e-10 -7.86894e-09 -9.00923e-09
3.36546e-06 -2.49952e-07 -6.38073e-07
-1.43821e-07 1.97956e-07 1.1728e-07
3.44425e-07 -3.63083e-09 -3.11798e-07
5.09895e-07 -3.19323e-06 1.41225e-06
1.18689e-06 -4.67092e-07 6.81613e-07
1.06897e-05 1.01257e-07 1.31799e-06
-2.23993e-07 -8.12103e-06 9.2116e-06
0.0 0.0 -1.43822e-06
2.35991e-06 -4.87677e-06 -4.09893e-06
0.0 0.0 -1.43822e-06
-4.57953e-07 7.32961e-07 -1.1868e-06
-2.35469e-06 -7.88202e-06 5.74062e-06
-9.35521e-08 3.70807e-08 -5.79187e-09
0.0 0.0 -1.43822e-06
1.76902e-07 8.00225e-07 -1.58877e-06
-1.8724e-06 1.4214e-06 -3.46494e-06
-3.27141e-06 1.76694e-06 -5.11426e-06
5.47677e-10 -5.64018e-09 -1.42666e-06
-1.11975e-05 -3.11412e-06 6.01159e-06
3.71344e-05 -1.74347e-05 1.97263e-05
-3.73751e-06 -9.62002e-07 2.07333e-06
1.1875e-10 -6.54418e-09 9.44179e-09
9.90934e-08 1.20361e-07 1.13305e-07
-1.18717e-06 3.10737e-06 -8.94115e-07
-3.18678e-07 -8.98367e-08 -3.74266e-07
2.22423e-07 -2.03312e-06 -8.09865e-07
0.0 0.0 -1.43822e-06
-1.78343e-06 -5.61912e-07 4.0643e-07
4.82539e-08 6.51219e-07 1.05089e-06
-8.99418e-06 2.46142e-06 -3.49829e-05
1.02426e-08 -1.54953e-07 -1.93062e-07
1.46026e-07 -2.77892e-07 -5.64871e-07
6.05505e-06 -2.27376e-06 -4.14546e-07
0.0 0.0 -1.43822e-06
-1.41366e-06 -8.06713e-07 -2.83908e-06
1.17494e-07 -1.60618e-09 4.77641e-07
0.0 0.0 -1.43822e-06
-6.94766e-10 -5.80353e-09 1.14785e-08
0.0 0.0 -1.43822e-06
-3.06024e-08 -1.05665e-06 -5.24671e-07
-1.22507e-06 6.38347e-06 -1.25343e-05
2.67603e-06 -3.28553e-06 2.09068e-06
-1.17602e-07 4.07686e-07 1.45443e-07
2.83743e-06 -2.69149e-06 1.10316e-06
-8.64582e-07 5.6415e-07 -1.54629e-06
1.08754e-06 -2.87803e-05 2.31001e-05
1.16378e-06 -5.95663e-07 -2.59e-07
-5.12985e-08 6.54245e-07 1.08155e-07
-1.92766e-06 -3.55659e-06 2.40544e-06
-6.57296e-06 4.38128e-06 -4.6633e-06
9.85055e-08 2.26883e-07 -1.20634e-06
0.0 0.0 -1.43822e-06
-5.98136e-06 3.03566e-08 -2.42272e-06
1.64666e-06 -1.67485e-05 1.0383e-05
-8.05034e-08 1.72115e-07 -5.03061e-07
-2.51874e-05 2.80838e-05 1.20108e-05
6.00639e-07 -3.81418e-07 1.06901e-06
0.0 0.0 -1.43822e-06