# vtk DataFile Version 3.0
LIGGGHTS particles timestep 9000000
ASCII
DATASET POLYDATA
POINTS 165 float
0.0170621 0.0153982 0.0152706
0.0219509 0.0142716 0.0141634
0.0199463 0.0236734 0.0146961
0.0204681 0.0232894 0.0156017
0.0296151 0.023208 0.0102253
0.0232571 0.0223871 0.00888205
0.0227925 0.023507 0.0142915
0.0202728 0.0240943 0.0131347
0.00938048 0.0183393 0.00587271
0.0208398 0.0214759 0.0152215
0.02752 0.0156642 0.00885165
0.0366849 0.0218066 0.0435188
0.0176699 0.0232068 0.0155166
0.0322453 0.0157876 0.0142965
0.0188973 0.0244655 0.0137041
0.0259274 0.0166552 0.0150836
0.0207931 0.0145703 0.0123586
0.0167864 0.0142422 0.0134393
0.0298138 0.0233819 0.0111339
0.0177527 0.0140872 0.013234
0.0207728 0.0243277 0.013902
0.0160425 0.0221186 0.0157522
0.0146562 0.0219287 0.0155638
0.0178548 0.0233744 0.0111862
0.0286685 0.0201182 0.00737413
0.0142152 0.0200436 0.0158334
0.0155426 0.0157379 0.0144649
0.019483 0.014332 0.0138921
0.0187488 0.0232581 0.0151758
0.0243853 0.0222931 0.0147735
0.003617 0.0285782 0.0435188
0.0189538 0.0213673 0.015292
0.0211463 0.0212454 0.016145
0.0298231 0.0218126 0.00814984
0.0187676 0.023463 0.0116643
0.0196051 0.0193773 0.00612808
0.0306931 0.0219588 0.0147226
0.0187145 0.0140019 0.0129672
0.0194381 0.0192259 0.0160275
0.0313828 0.021574 0.0149688
0.0301595 0.0232747 0.0125224
0.0310016 0.0208024 0.0153781
0.0141228 0.022395 0.0144417
0.0156885 0.0234764 0.0143403
0.0218724 0.0166235 0.00791874
0.0235682 0.01507 0.0149397
0.0284186 0.0190792 0.00717175
0.0157217 0.0197464 0.016694
0.0204234 0.0227972 0.0138962
0.0236132 0.0231779 0.0102179
0.018025 0.0241508 0.017462
0.00934134 0.0142286 0.0307873
0.0288731 0.0210772 0.00768504
0.0312025 0.019847 0.0157278
0.0316424 0.0181217 0.0157072
0.0224595 0.0150219 0.0134057
0.0281747 0.0181404 0.00729308
0.0231839 0.0210729 0.0163527
0.0136904 0.0217091 0.0150687
0.0145649 0.0155349 0.014244
0.026604 0.0149516 0.0126899
0.01912 0.0107899 0.0247645
0.0209316 0.014735 0.0113744
0.0214483 0.0168437 0.00645098
0.0194221 0.0227315 0.0139907
0.0230449 0.0216089 0.00827391
0.0250325 0.02031 0.015725
0.0166932 0.0232902 0.0146282
0.0551527 0.0181697 0.00595147
0.0327605 0.0148084 0.0120231
0.0183676 0.0229847 0.0134672
0.0325208 0.0150932 0.013104
0.0184362 0.0240698 0.0128142
0.0303903 0.00406748 0.0435188
0.0191031 0.0233357 0.0125342
0.0257448 0.0199409 0.0158166
0.0197143 0.0139944 0.0129797
0.0317813 0.0172698 0.0154357
0.0221476 0.0180752 0.00731816
0.0130817 0.0209228 0.0189952
0.0258576 0.0196484 0.0167713
0.0180535 0.0239072 0.0137251
0.0332077 0.0149865 0.0101914
0.0268645 0.0147524 0.0116714
0.019875 0.0231796 0.0131473
0.0204926 0.0223022 0.0170798
0.0570019 0.0175547 0.00590579
0.0174752 0.0209856 0.0181578
0.0184747 0.0143682 0.0138662
0.0193716 0.0241516 0.0129106
0.0247888 0.0215656 0.0154988
0.0304335 0.0225982 0.0139073
0.0221348 0.00230077 0.0435188
0.0148638 0.0231384 0.0147932
0.0258624 0.0190361 0.0158986
0.0203764 0.0154464 0.0141124
0.0163219 0.0151393 0.0146499
0.0167326 0.0215076 0.01614
0.0190232 0.0148236 0.0146316
0.0180284 0.0148942 0.0147047
0.0234674 0.0229395 0.00951257
0.0213902 0.0153059 0.00933861
0.0279685 0.0171171 0.00761724
0.026366 0.0154205 0.0138162
0.0252107 0.019439 0.0160381
0.0211909 0.0199605 0.0158466
0.0201938 0.0207622 0.0156015
0.025612 0.0206969 0.0156192
0.027069 0.0148184 0.0108506
0.0212228 0.0239709 0.0131237
0.0164636 0.023789 0.0137916
0.0216724 0.0159245 0.00849668
0.0273184 0.0152013 0.00962966
0.014874 0.0154625 0.0151922
0.0184722 0.0143493 0.015416
0.0268146 0.0190088 0.00598366
0.0190287 0.023566 0.0135505
0.0205893 0.0149158 0.0132788
0.0166339 0.0232932 0.0156285
0.0204117 0.0193829 0.0160271
0.0314095 0.0190181 0.0158379
0.0153034 0.0151685 0.0136783
0.0216544 0.0147623 0.0128492
0.0292968 0.0224637 0.00880161
0.0429042 0.0162336 0.0413946
0.0221996 0.00109062 0.0435188
0.0170787 0.0224011 0.0155509
0.0290056 0.0217683 0.00812243
0.0214228 0.0152244 0.0137607
0.0222241 0.015561 0.0142722
0.0255525 0.0206897 0.0166184
0.0171632 0.0146218 0.0142841
0.0158388 0.0228614 0.0151144
0.0319595 0.0165889 0.0150437
0.014339 0.0209819 0.0155106
0.0178303 0.0233774 0.0145444
0.0198748 0.0217482 0.0150482
0.0186135 0.0154222 0.0153199
0.0172166 0.0240521 0.0131918
0.0203149 0.0137621 0.0137446
0.0217407 0.0147739 0.0111605
0.0277587 0.0163031 0.00818045
0.108836 0.0200055 0.00584234
0.0222207 0.019371 0.0167453
0.0228455 0.0146682 0.0143706
0.0152066 0.0147442 0.0145786
0.021202 0.0141597 0.01351
0.018166 0.0232696 0.0126176
0.0242288 0.0156087 0.0154629
0.0191721 0.020451 0.0157211
0.0238147 0.0163447 0.0160016
0.0159772 0.0144905 0.0139716
0.0153544 0.0215063 0.0161417
0.0219492 0.0237885 0.0137999
0.0141823 0.0228006 0.0154422
0.0259266 0.0185151 0.0167809
0.00937694 0.00505359 0.0435188
0.0188289 0.0223392 0.014735
0.0172436 0.0241493 0.0142965
0.017974 0.0237449 0.0120225
0.0141503 0.0161657 0.0148998
0.0255163 0.0173719 0.0164559
0.0198957 0.0201835 0.0163619
0.024947 0.0190645 0.00586966
0.0256269 0.0181971 0.0158815

VERTICES 165 330
1 0
1 1
1 2
1 3
1 4
1 5
1 6
1 7
1 8
1 9
1 10
1 11
1 12
1 13
1 14
1 15
1 16
1 17
1 18
1 19
1 20
1 21
1 22
1 23
1 24
1 25
1 26
1 27
1 28
1 29
1 30
1 31
1 32
1 33
1 34
1 35
1 36
1 37
1 38
1 39
1 40
1 41
1 42
1 43
1 44
1 45
1 46
1 47
1 48
1 49
1 50
1 51
1 52
1 53
1 54
1 55
1 56
1 57
1 58
1 59
1 60
1 61
1 62
1 63
1 64
1 65
1 66
1 67
1 68
1 69
1 70
1 71
1 72
1 73
1 74
1 75
1 76
1 77
1 78
1 79
1 80
1 81
1 82
1 83
1 84
1 85
1 86
1 87
1 88
1 89
1 90
1 91
1 92
1 93
1 94
1 95
1 96
1 97
1 98
1 99
1 100
1 101
1 102
1 103
1 104
1 105
1 106
1 107
1 108
1 109
1 110
1 111
1 112
1 113
1 114
1 115
1 116
1 117
1 118
1 119
1 120
1 121
1 122
1 123
1 124
1 125
1 126
1 127
1 128
1 129
1 130
1 131
1 132
1 133
1 134
1 135
1 136
1 137
1 138
1 139
1 140
1 141
1 142
1 143
1 144
1 145
1 146
1 147
1 148
1 149
1 150
1 151
1 152
1 153
1 154
1 155
1 156
1 157
1 158
1 159
1 160
1 161
1 162
1 163
1 164

POINT_DATA 165
SCALARS id int 1
LOOKUP_TABLE default
1
2
3
4
5
7
11
13
15
16
17
18
19
20
23
24
25
27
28
29
31
32
33
35
37
40
41
43
44
47
49
50
51
52
54
57
59
62
63
65
67
68
71
73
74
76
79
80
83
84
85
86
87
88
89
90
92
95
97
102
103
105
106
108
109
110
112
116
121
122
124
125
126
128
130
131
133
135
137
138
139
141
142
143
145
147
149
150
151
157
158
160
161
165
166
167
170
171
173
174
177
179
185
186
187
191
193
194
197
199
200
201
205
206
211
215
220
221
224
225
226
227
228
229
230
232
235
237
239
240
241
242
246
247
248
250
251
252
253
256
257
258
260
262
263
268
269
270
271
272
273
274
275
277
282
283
284
286
288
289
291
294
298
299
300

SCALARS type int 1
LOOKUP_TABLE default
1
1
1
1
1
1
1
1
1
1
1
1
1
1
1
1
1
1
1
1
1
1
1
1
1
1
1
1
1
1
1
1
1
1
1
1
1
1
1
1
1
1
1
1
1
1
1
1
1
1
1
1
1
1
1
1
1
1
1
1
1
1
1
1
1
1
1
1
1
1
1
1
1
1
1
1
1
1
1
1
1
1
1
1
1
1
1
1
1
1
1
1
1
1
1
1
1
1
1
1
1
1
1
1
1
1
1
1
1
1
1
1
1
1
1
1
1
1
1
1
1
1
1
1
1
1
1
1
1
1
1
1
1
1
1
1
1
1
1
1
1
1
1
1
1
1
1
1
1
1
1
1
1
1
1
1
1
1
1
1
1
1
1
1
1

SCALARS radius float 1
LOOKUP_TABLE default
0.0005
0.0005
0.0005
0.0005
0.0005
0.0005
0.0005
0.0005
0.0005
0.0005
0.0005
0.0005
0.0005
0.0005
0.0005
0.0005
0.0005
0.0005
0.0005
0.0005
0.0005
0.0005
0.0005
0.0005
0.0005
0.0005
0.0005
0.0005
0.0005
0.0005
0.0005
0.0005
0.0005
0.0005
0.0005
0.0005
0.0005
0.0005
0.0005
0.0005
0.0005
0.0005
0.0005
0.0005
0.0005
0.0005
0.0005
0.0005
0.0005
0.0005
0.0005
0.0005
0.0005
0.0005
0.0005
0.0005
0.0005
0.0005
0.0005
0.0005
0.0005
0.0005
0.0005
0.0005
0.0005
0.0005
0.0005
0.0005
0.0005
0.0005
0.0005
0.0005
0.0005
0.0005
0.0005
0.0005
0.0005
0.0005
0.0005
0.0005
0.0005
0.0005
0.0005
0.0005
0.0005
0.0005
0.0005
0.0005
0.0005
0.0005
0.0005
0.0005
0.0005
0.0005
0.0005
0.0005
0.0005
0.0005
0.0005
0.0005
0.0005
0.0005
0.0005
0.0005
0.0005
0.0005
0.0005
0.0005
0.0005
0.0005
0.0005
0.0005
0.0005
0.0005
0.0005
0.0005
0.0005
0.0005
0.0005
0.0005
0.0005
0.0005
0.0005
0.0005
0.0005
0.0005
0.0005
0.0005
0.0005
0.0005
0.0005
0.0005
0.0005
0.0005
0.0005
0.0005
0.0005
0.0005
0.0005
0.0005
0.0005
0.0005
0.0005
0.0005
0.0005
0.0005
0.0005
0.0005
0.0005
0.0005
0.0005
0.0005
0.0005
0.0005
0.0005
0.0005
0.0005
0.0005
0.0005
0.0005
0.0005
0.0005
0.0005
0.0005
0.0005

SCALARS mass float 1
LOOKUP_TABLE default
1.46608e-07
1.46608e-07
1.46608e-07
1.46608e-07
1.46608e-07
1.46608e-07
1.46608e-07
1.46608e-07
1.46608e-07
1.46608e-07
1.46608e-07
1.46608e-07
1.46608e-07
1.46608e-07
1.46608e-07
1.46608e-07
1.46608e-07
1.46608e-07
1.46608e-07
1.46608e-07
1.46608e-07
1.46608e-07
1.46608e-07
1.46608e-07
1.46608e-07
1.46608e-07
1.46608e-07
1.46608e-07
1.46608e-07
1.46608e-07
1.46608e-07
1.46608e-07
1.46608e-07
1.46608e-07
1.46608e-07
1.46608e-07
1.46608e-07
1.46608e-07
1.46608e-07
1.46608e-07
1.46608e-07
1.46608e-07
1.46608e-07
1.46608e-07
1.46608e-07
1.46608e-07
1.46608e-07
1.46608e-07
1.46608e-07
1.46608e-07
1.46608e-07
1.46608e-07
1.46608e-07
1.46608e-07
1.46608e-07
1.46608e-07
1.46608e-07
1.46608e-07
1.46608e-07
1.46608e-07
1.46608e-07
1.46608e-07
1.46608e-07
1.46608e-07
1.46608e-07
1.46608e-07
1.46608e-07
1.46608e-07
1.46608e-07
1.46608e-07
1.46608e-07
1.46608e-07
1.46608e-07
1.46608e-07
1.46608e-07
1.46608e-07
1.46608e-07
1.46608e-07
1.46608e-07
1.46608e-07
1.46608e-07
1.46608e-07
1.46608e-07
1.46608e-07
1.46608e-07
1.46608e-07
1.46608e-07
1.46608e-07
1.46608e-07
1.46608e-07
1.46608e-07
1.46608e-07
1.46608e-07
1.46608e-07
1.46608e-07
1.46608e-07
1.46608e-07
1.46608e-07
1.46608e-07
1.46608e-07
1.46608e-07
1.46608e-07
1.46608e-07
1.46608e-07
1.46608e-07
1.46608e-07
1.46608e-07
1.46608e-07
1.46608e-07
1.46608e-07
1.46608e-07
1.46608e-07
1.46608e-07
1.46608e-07
1.46608e-07
1.46608e-07
1.46608e-07
1.46608e-07
1.46608e-07
1.46608e-07
1.46608e-07
1.46608e-07
1.46608e-07
1.46608e-07
1.46608e-07
1.46608e-07
1.46608e-07
1.46608e-07
1.46608e-07
1.46608e-07
1.46608e-07
1.46608e-07
1.46608e-07
1.46608e-07
1.46608e-07
1.46608e-07
1.46608e-07
1.46608e-07
1.46608e-07
1.46608e-07
1.46608e-07
1.46608e-07
1.46608e-07
1.46608e-07
1.46608e-07
1.46608e-07
1.46608e-07
1.46608e-07
1.46608e-07
1.46608e-07
1.46608e-07
1.46608e-07
1.46608e-07
1.46608e-07
1.46608e-07
1.46608e-07
1.46608e-07
1.46608e-07
1.46608e-07
1.46608e-07
1.46608e-07
1.46608e-07
1.46608e-07
1.46608e-07
1.46608e-07

VECTORS velocity float
0.012127 -0.00922539 -0.0106106
0.00030121 0.00404235 -0.00649987
0.0276579 0.00897777 0.0141822
0.017025 -0.0409665 0.0644095
0.000387079 -0.00600936 -0.0199671
1.35271 -0.8134 3.92391
-0.00108378 0.000863255 0.000244693
0.000952933 0.000217104 -0.00271514
3.64595e-15 5.38474e-16 -3.69009e-14
-0.000405958 0.0214345 -0.0139089
0.000912265 -0.011478 0.0177471
-9.6879e-317 9.73506e-317 2.68131e-13
0.00924167 0.00493894 -0.00254324
0.000245354 0.0128785 0.0155137
0.00137374 0.00036024 -0.000428358
0.00038873 0.0165396 0.0103209
0.00523436 0.00325075 0.0209006
3.92891e-05 0.0001438 -0.000213002
0.000434635 -0.000691093 -0.0214862
0.000211146 -0.000515625 0.00118148
0.00191524 -0.000746051 -0.000842891
0.00370102 0.000389676 -0.00166884
0.000238538 0.000150344 -0.00093564
0.00164941 -0.000391527 -0.00395123
3.31596e-05 -0.0213551 -0.00627578
-0.0020372 0.000252862 -0.000928279
1.55585e-05 0.000493558 0.0020891
0.000492749 -0.00062249 0.00112576
-0.0850836 -0.0546816 0.00204941
0.00100048 0.0100403 -0.00387015
-9.68849e-317 -9.75601e-317 2.88878e-12
1.82435e-05 0.0237222 -0.0145529
-0.00224504 0.0227971 -0.0129582
0.0003351 -0.015219 -0.0139407
-0.000119608 0.000670659 -0.00943557
-3.58906e-14 1.61116e-14 -3.28527e-13
0.00291556 0.00994488 -0.00949591
-1.10457e-05 0.000226711 -0.000425202
3.94546e-05 0.0233154 -0.000465177
0.000812116 0.0163829 -0.0102679
0.00303132 0.00215698 -0.00810421
0.000305307 0.015369 -0.0070012
0.00188642 0.000454585 -0.00236912
0.000191223 -3.0843e-05 1.5185e-05
2.76355e-05 -0.0168858 0.0116074
-0.00258517 -0.00263422 -0.0014498
0.000179636 -0.0122775 -0.000901658
-0.00809588 0.0313599 -0.00519426
0.00519551 -0.00646521 0.00546912
0.0141976 -0.0103576 -0.0367697
-0.0166711 -0.0483888 -0.159652
0.0621562 -0.10927 0.00834302
0.000287245 -0.0177882 -0.00836449
0.000496711 0.0183494 -0.00446349
0.000585331 0.0183753 0.00376873
0.000841213 0.00128906 -0.000896754
0.000537102 -0.0191686 0.00433442
-8.21084e-09 0.0228905 -0.00939434
0.00570087 0.00857767 -0.00706746
-0.000211401 0.000361852 0.000304977
0.000144693 0.00587591 0.0203571
-0.0271922 0.15478 -0.298671
0.000684301 -0.00124942 0.0136123
-2.38714e-14 5.08914e-14 1.84333e-13
-0.000616883 0.00621348 -0.00958841
0.00198719 -0.0133721 -0.0101571
0.00127388 0.0164133 -0.00548579
0.00282727 -0.00337814 -0.00147438
-1.30059e-14 -1.76685e-14 -2.51655e-13
0.00248485 0.00123086 0.014337
0.000902891 0.00785476 -0.0145118
7.66133e-05 0.00758243 0.0204997
-0.00118029 0.000682793 0.000497936
-9.67556e-317 -9.75879e-317 -3.22607e-12
0.00343758 0.00225474 -0.0162483
0.000319769 0.00524974 -0.00157339
-6.37217e-05 -0.000511727 0.000904544
0.00234234 0.00867941 0.00461606
0.000128885 -0.0172782 0.00406048
0.053818 -0.0563502 -0.179688
0.000518425 0.00933345 0.00212772
-0.00141021 0.00499759 -0.00781842
0.000364099 -0.00576825 0.0193429
0.000594268 0.000119284 0.019556
0.000665468 0.00336811 -0.0127149
0.00494083 -0.142546 0.196567
4.36998e-15 1.18826e-14 2.80768e-13
-0.0598803 -0.0393072 0.0406893
0.000932183 0.000746231 -0.000385939
-0.000257239 0.000292995 -0.000614324
-0.000692145 0.00398443 -0.00137543
0.000217347 0.011794 -0.017358
9.74157e-317 -9.69799e-317 9.23294e-13
-2.13345e-05 0.000719312 -5.66256e-05
-0.00169664 0.000225194 0.000525605
-0.00121739 0.0174861 0.0211933
0.002293 0.0015465 -0.00144807
0.0118103 0.0075293 -0.00503783
0.000688582 -0.00104587 0.00189118
-0.000213167 -0.0010185 -0.00231935
0.042868 0.0266452 0.0104757
5.91108e-05 -0.0115953 0.0189379
0.000702208 -0.0161218 0.0075139
0.000203067 0.0120922 0.0193006
0.00105702 0.0185746 -0.000946414
-8.29917e-06 0.0225869 -0.00471801
0.00162673 0.0235372 -0.00997727
0.00549933 0.00529016 -0.00849464
0.000533312 -0.00340207 0.0208545
0.000222201 0.00114971 -0.002871
0.000366849 -0.00086749 0.000122554
0.000860163 -0.0125097 0.0109458
0.000239738 -0.00904248 0.0191513
-0.000194805 0.00159966 0.000549955
0.00141012 0.000824769 -0.0012765
-1.911e-14 -3.08041e-15 3.11554e-13
0.00143174 0.0019038 -0.0034607
-0.00444474 0.00416135 0.00878954
0.00366814 0.00328508 -0.00503202
8.55983e-05 0.0233213 -0.00174724
0.00126041 0.016311 0.00096708
0.000273188 -0.000684223 0.00175014
0.0105975 -0.00168526 -0.00607162
0.00075708 -0.0107734 -0.013268
0.168502 -0.0539526 -0.470525
9.58743e-317 9.68145e-317 4.97437e-14
0.00534916 0.00524196 -0.00567859
0.000299177 -0.0145209 -0.012149
-0.00149812 0.00135479 0.00863865
-0.00289587 -0.000633494 0.00211785
-0.00361847 0.00329964 -0.0117189
0.000541495 -0.000767854 -0.000496343
0.000550619 0.00125619 -0.000502826
0.00092982 0.0140306 0.0105518
-0.000553206 0.000150861 -0.001265
0.00638116 0.00429735 -0.00635845
-1.35394e-05 0.0263264 -0.0191436
-0.00362541 -0.00061331 0.000836452
-4.97439e-05 6.26828e-05 -0.000110163
0.000454661 -0.00016338 0.000514241
0.00100235 -0.00207922 0.0129901
0.000448999 -0.0162338 0.0131583
7.69864e-16 -1.27011e-15 -6.97457e-15
0.0112595 0.0228771 -0.00162102
-0.000963997 -0.000147575 -0.00129017
0.000259653 -0.00096417 0.00167391
-0.00154874 0.00149064 -0.00517704
0.00128237 0.00331078 -0.0152168
-0.00226822 -0.00142796 -0.00228584
-1.18709e-05 0.0194639 -0.00630621
-0.00887083 0.00147669 -3.97646e-05
0.00066907 -0.000520341 0.00137477
0.00146791 0.00362223 -0.000135014
-0.00369528 0.00149936 -0.00154111
-1.39115e-05 -3.62554e-05 -0.00029882
0.00133563 0.0045913 0.00199615
-9.68799e-317 -9.69932e-317 9.23294e-13
-0.00868963 -0.0159037 -0.0360726
0.0012996 -0.000675916 0.000428673
0.00167633 0.000617838 -0.00505517
0.00439105 0.00280343 0.000962462
0.00594006 0.0158859 0.00379415
0.00760574 0.0219127 -0.00405472
2.61743e-15 4.06284e-16 -4.25287e-14
0.00219921 0.00410844 0.00187508

VECTORS force float
-1.18677e-07 -3.17608e-07 -2.8551e-07
-3.79912e-07 3.93606e-07 -6.20198e-07
0.0 0.0 -1.43822e-06
0.0 0.0 -1.43822e-06
-1.52535e-09 -1.17534e-08 -1.95366e-09
-1.17878 1.09581 -0.78324
-3.02343e-08 2.23148e-08 3.46301e-09
-4.63089e-06 -1.1759e-06 5.26578e-06
5.02926e-22 -1.11537e-20 0.0
-8.24804e-09 5.34647e-08 -5.88148e-08
5.85214e-10 -4.89037e-08 8.15392e-08
0.0 0.0 0.0
9.40304e-08 5.84189e-07 -1.67523e-06
-8.7963e-09 2.06207e-08 -9.13646e-10
-5.06722e-06 1.37264e-06 4.54372e-06
-2.6299e-09 1.72989e-08 -1.77265e-09
0.0 0.0 -1.43822e-06
-7.44234e-07 -4.08191e-08 -2.85799e-07
1.41145e-09 -1.02926e-08 -2.56691e-09
-3.77059e-07 4.26993e-08 4.08657e-08
-1.16395e-06 -3.43424e-07 -4.74953e-06
-2.8647e-07 4.13363e-07 -1.37577e-06
1.77185e-07 -5.94129e-07 1.03868e-07
-1.11497e-07 -1.68727e-07 -1.89346e-06
-8.91044e-10 -6.69999e-09 9.02546e-09
-7.8418e-08 3.10645e-07 -1.42917e-07
-1.31011e-07 -2.05401e-07 4.49686e-07
-6.4696e-08 8.684e-08 -1.95072e-07
0.0 0.0 -1.43822e-06
-1.06002e-08 -1.56843e-08 -7.53823e-08
0.0 0.0 0.0
2.76034e-10 8.92548e-08 -8.54367e-08
-4.39205e-08 7.02975e-09 -5.94798e-08
3.28803e-09 -1.05034e-08 5.39607e-09
-3.72803e-06 7.9126e-07 1.8517e-06
-5.45277e-21 -1.07864e-20 2.11758e-22
-2.58975e-11 -3.29495e-08 1.10194e-08
8.59719e-09 6.5116e-08 -2.14484e-08
2.26837e-09 -3.43715e-08 -5.15079e-08
1.88662e-09 -6.73534e-09 -6.0061e-09
2.40807e-05 -3.28768e-05 4.39381e-06
-2.22884e-09 4.80371e-09 -2.02471e-08
1.37194e-08 6.23968e-08 -1.16702e-07
-1.16804e-07 -8.42902e-07 5.95128e-07
-3.51423e-07 -7.79771e-07 1.39429e-07
-8.40623e-08 -6.56896e-08 2.26956e-08
-6.15479e-08 -6.31083e-08 2.41286e-08
2.61906e-07 -1.66422e-07 1.22999e-08
0.0 0.0 -1.43822e-06
0.000353254 -0.000300578 -0.000409311
0.0 0.0 -1.43822e-06
0.0 0.0 -1.43822e-06
-7.50018e-10 -1.12008e-08 4.56805e-09
1.72266e-09 1.854e-09 -8.07834e-09
2.41786e-09 -6.17784e-09 -1.26883e-08
-1.34272e-08 -3.88008e-07 -9.32392e-07
-4.51767e-08 -7.92558e-07 3.28053e-07
-1.76594e-14 -6.30922e-09 -1.56542e-08
1.90094e-07 2.98678e-07 -2.00534e-07
-1.47893e-07 2.6214e-07 -1.6468e-07
-1.12494e-09 1.2173e-08 1.02074e-09
0.0 0.0 -1.43822e-06
-3.15226e-09 9.10916e-07 -1.3848e-05
5.87629e-21 -3.12343e-21 -1.48231e-21
1.61242e-08 6.55567e-07 -9.26151e-07
1.145e-09 1.36262e-09 7.0167e-09
-7.3196e-08 8.92122e-07 -3.60409e-07
0.0 0.0 -1.43822e-06
6.08805e-22 -3.75871e-21 0.0
-5.80651e-09 1.76927e-08 1.0089e-08
-1.36479e-06 9.73242e-07 -3.4903e-06
-4.38401e-10 1.21799e-08 5.45507e-10
-2.80552e-06 -1.3853e-06 -4.60177e-06
0.0 0.0 0.0
-4.88138e-06 4.34056e-06 -4.20363e-06
-9.97091e-08 -3.3553e-08 7.29964e-08
6.67521e-08 1.02176e-07 -1.82002e-07
3.31307e-08 -1.32804e-07 -4.9385e-08
-4.70106e-09 -7.90406e-09 1.74511e-08
3.66597e-07 -4.8581e-08 -9.85723e-07
-1.40826e-08 4.07763e-08 -2.29569e-08
0.0 0.0 -1.43822e-06
-2.67526e-09 9.36021e-09 1.01438e-08
-6.58763e-09 -2.20266e-08 -5.64282e-08
4.27846e-05 -7.79733e-06 8.38475e-06
0.0 0.0 -1.43822e-06
4.60839e-20 -1.49025e-20 -2.11758e-22
0.0 0.0 -1.43822e-06
-1.51836e-07 4.20416e-08 6.81481e-08
-4.54006e-06 -4.93693e-07 4.20582e-06
4.32161e-08 2.19881e-08 -2.90519e-10
-1.47411e-09 -5.3892e-09 -1.09523e-08
0.0 0.0 0.0
-1.07415e-06 -1.83853e-06 3.1364e-07
-1.12502e-08 4.38021e-07 -2.06781e-07
0.0 0.0 -1.43822e-06
1.57539e-07 -3.0056e-07 -4.34102e-07
-2.66247e-07 8.84471e-07 -4.34841e-07
-5.51062e-08 -4.65618e-07 7.64535e-07
-2.04231e-06 -2.42645e-06 -1.09344e-06
0.0489768 -0.0378994 0.0369534
-5.33248e-10 3.50806e-09 1.07165e-08
5.76565e-10 5.85213e-09 9.53754e-09
-1.60866e-08 8.09073e-08 1.47552e-07
1.49446e-08 1.52089e-07 4.65668e-08
-1.70164e-08 -5.01671e-08 -6.55402e-08
0.0 0.0 -1.43822e-06
2.59146e-07 2.70847e-07 -5.89445e-07
-7.79877e-09 1.19033e-08 4.93842e-09
-4.84918e-07 3.70915e-07 -3.15175e-06
1.32577e-09 -9.79787e-08 3.69802e-07
3.23733e-06 -2.89929e-09 5.14766e-07
-7.01839e-09 -6.0521e-09 2.75789e-08
-2.28521e-08 2.09672e-07 -9.20303e-07
-3.29909e-07 -4.98211e-08 -7.02936e-07
0.0 0.0 0.0
-5.74144e-06 1.69309e-06 2.70874e-06
0.0 0.0 -1.43822e-06
4.55894e-07 1.30543e-06 1.52623e-06
3.02128e-08 -3.22031e-07 -9.14237e-07
-6.43856e-09 -1.23248e-08 -9.66e-09
2.08231e-07 -5.71813e-07 -5.84091e-07
0.0 0.0 -1.43822e-06
5.28695e-08 4.17564e-07 1.45956e-06
0.0 0.0 -1.43822e-06
0.0 0.0 0.0
-8.54772e-07 5.84058e-07 -8.73364e-07
1.08455e-09 -2.4425e-08 1.59258e-08
0.0 0.0 -1.43822e-06
5.82413e-08 -3.14518e-07 -3.37163e-07
0.0 0.0 -1.43822e-06
-1.77302e-06 -1.67742e-06 -2.34851e-06
3.48651e-07 3.15491e-07 -7.69055e-07
1.26714e-08 -3.26175e-08 -3.26101e-08
6.44732e-07 -6.2455e-08 -1.89739e-07
-6.64448e-07 3.15701e-06 -9.80965e-07
-4.57955e-10 1.00977e-07 -1.03871e-07
4.87803e-06 4.20853e-06 2.90693e-06
1.24793e-08 3.2351e-08 4.9844e-08
3.8941e-08 1.13798e-07 -1.63946e-07
-2.95481e-05 -6.13149e-07 3.81702e-06
-3.40153e-09 -8.80462e-09 1.6904e-08
1.84759e-20 1.36055e-20 -6.35275e-22
-5.08133e-07 1.13121e-07 -1.32401e-08
-2.25113e-07 -5.9095e-08 -3.69225e-07
1.67059e-07 3.06234e-07 -7.42951e-07
5.5845e-08 5.68411e-07 -5.90799e-07
-1.08522e-06 1.79944e-07 -2.76518e-06
-8.60948e-08 -1.11838e-07 -1.62249e-08
2.36753e-08 4.04048e-09 -5.40778e-08
0.0 0.0 -1.43822e-06
1.56248e-07 -1.81156e-07 -1.23289e-07
7.35017e-07 4.11505e-07 1.70865e-07
4.14893e-07 -7.72049e-08 1.18773e-06
-5.51767e-07 -1.0113e-06 5.99177e-07
5.04953e-09 5.4234e-08 7.27837e-08
0.0 0.0 0.0
0.0 0.0 -1.43822e-06
-2.7767e-07 -2.18384e-07 3.74217e-07
-1.81238e-06 -2.73312e-07 -5.04424e-06
-1.95178e-07 7.95034e-07 2.79951e-07
7.50606e-08 1.67109e-07 -1.14223e-08
0.0 0.0 -1.43822e-06
-2.062e-20 8.45412e-20 -2.11758e-22
2.73497e-08 2.89916e-07 -8.91812e-08
