# vtk DataFile Version 3.0
LIGGGHTS particles timestep 14000000
ASCII
DATASET POLYDATA
POINTS 130 float
0.0152247 0.0231807 0.0144327
0.0197185 0.0243716 0.0134265
0.0249209 0.0214821 0.0166899
0.0342934 0.0155492 0.00900231
0.0258254 0.0196927 0.0167113
0.00938048 0.0183393 0.00587271
0.0260148 0.0196703 0.00594114
0.0321443 0.0193548 0.0158497
0.0366849 0.0218066 0.0435188
0.0176821 0.0182238 0.0171867
0.038079 0.0195986 0.0157319
0.0307695 0.0233463 0.0116494
0.0193699 0.023353 0.0140395
0.000591717 0.0149731 0.0435188
0.0351978 0.019178 0.00730884
0.0199272 0.0206781 0.0156415
0.0218472 0.0147527 0.011066
0.0191748 0.0140088 0.0129558
0.0164927 0.0237848 0.0137478
0.033124 0.0156737 0.014165
0.0208159 0.0138367 0.0138096
0.0220769 0.0150673 0.00984814
0.0266646 0.0168692 0.0151766
0.0181743 0.0140484 0.0130663
0.003617 0.0285782 0.0435188
0.0378039 0.0205799 0.0154911
0.0196051 0.0193773 0.00612808
0.0358671 0.0218724 0.00822267
0.019216 0.0232578 0.0129383
0.0208686 0.0209845 0.0155002
0.0347467 0.0170787 0.00769046
0.035467 0.0201431 0.00747779
0.0360263 0.022231 0.00863936
0.0154475 0.0222233 0.0146154
0.0194964 0.025118 0.0190292
0.0276325 0.0147605 0.0118086
0.0161912 0.0234481 0.0146397
0.0328607 0.0163353 0.0148483
0.0289348 0.0178929 0.00735472
0.0334432 0.0148493 0.0123175
0.0320953 0.0225452 0.0139964
0.0368312 0.0233708 0.011879
0.0272495 0.0153053 0.0135201
0.0326215 0.0171315 0.0153559
0.0188508 0.0236693 0.0121033
0.0312877 0.0225032 0.0140527
0.0133622 0.016103 0.0162202
0.0214483 0.0168437 0.00645098
0.0232589 0.0231832 0.014638
0.0209686 0.0238432 0.0128022
0.0298019 0.0215551 0.0079624
0.0226697 0.0238127 0.0148713
0.0551527 0.0181697 0.00595147
0.0392235 0.0153564 0.0136557
0.0209008 0.0163963 0.0150818
0.0383604 0.0185175 0.0156756
0.0222932 0.0236577 0.0139712
0.0303903 0.00406748 0.0435188
0.0241946 0.0228263 0.00939551
0.0341152 0.0148507 0.0123336
0.0241413 0.0155301 0.0154074
0.0370699 0.0230349 0.0131659
0.0307275 0.0188227 0.00574705
0.0187483 0.0241373 0.0130264
0.0279534 0.0148738 0.0105396
0.0257198 0.0212615 0.0151796
0.0394792 0.0148599 0.0123806
0.0315195 0.0219644 0.0146947
0.0291577 0.018794 0.00716531
0.0570019 0.0175547 0.00590579
0.0246161 0.0202839 0.0166387
0.0234755 0.0150148 0.0148674
0.0195801 0.0143223 0.013825
0.0202392 0.0228028 0.0139424
0.0356642 0.021352 0.00786234
0.0221348 0.00230077 0.0435188
0.0185861 0.0143862 0.0139126
0.0302813 0.0229307 0.00951439
0.0221937 0.0144407 0.0141123
0.0204118 0.0234892 0.0118128
0.0144347 0.0225218 0.0142837
0.0216691 0.0198266 0.0158804
0.0210557 0.0230719 0.0134315
0.0560485 0.0161291 0.00663408
0.0324708 0.0180001 0.0156412
0.0310874 0.0229868 0.0131459
0.0300598 0.022316 0.00862905
0.0173252 0.0146286 0.0120446
0.0245476 0.0198163 0.00585259
0.0296083 0.0207666 0.00755778
0.031759 0.0209954 0.0152885
0.0198926 0.0238939 0.0125654
0.0319489 0.0200204 0.0156808
0.0218942 0.0161156 0.0148375
0.026935 0.0188837 0.00598981
0.0203633 0.0195069 0.0159263
0.0201678 0.0140264 0.0130721
0.0365126 0.0232933 0.0106309
0.0258128 0.0206073 0.01556
0.023138 0.0187272 0.00720086
0.0340811 0.0151029 0.00981189
0.0221996 0.00109062 0.0435188
0.0233672 0.0195365 0.0072196
0.0338803 0.0148991 0.010874
0.0200785 0.0217239 0.01505
0.0259833 0.0199221 0.0156909
0.0242216 0.0222309 0.00876773
0.0379535 0.0201066 0.0156807
0.0175939 0.0209025 0.0076023
0.0220429 0.0154515 0.0141049
0.0228262 0.0158515 0.0145894
0.0215992 0.0216918 0.0150713
0.0322954 0.0188049 0.0157996
0.108836 0.0200055 0.00584234
0.0215284 0.0147654 0.0126893
0.021113 0.0156689 0.0144015
0.0269941 0.0159219 0.0144591
0.0230081 0.0150761 0.0139847
0.0285419 0.0161666 0.00826434
0.0223149 0.0149695 0.0132721
0.0180679 0.0238327 0.0136929
0.0235344 0.0203786 0.00753414
0.0184202 0.0231518 0.0103307
0.0193956 0.0234166 0.0114177
0.00937694 0.00505359 0.0435188
0.0213354 0.0146981 0.0136683
0.0172534 0.0240427 0.0131523
0.0255945 0.020696 0.016554
0.0254808 0.018723 0.00589902
0.0304744 0.0232917 0.0104696

VERTICES 130 260
1 0
1 1
1 2
1 3
1 4
1 5
1 6
1 7
1 8
1 9
1 10
1 11
1 12
1 13
1 14
1 15
1 16
1 17
1 18
1 19
1 20
1 21
1 22
1 23
1 24
1 25
1 26
1 27
1 28
1 29
1 30
1 31
1 32
1 33
1 34
1 35
1 36
1 37
1 38
1 39
1 40
1 41
1 42
1 43
1 44
1 45
1 46
1 47
1 48
1 49
1 50
1 51
1 52
1 53
1 54
1 55
1 56
1 57
1 58
1 59
1 60
1 61
1 62
1 63
1 64
1 65
1 66
1 67
1 68
1 69
1 70
1 71
1 72
1 73
1 74
1 75
1 76
1 77
1 78
1 79
1 80
1 81
1 82
1 83
1 84
1 85
1 86
1 87
1 88
1 89
1 90
1 91
1 92
1 93
1 94
1 95
1 96
1 97
1 98
1 99
1 100
1 101
1 102
1 103
1 104
1 105
1 106
1 107
1 108
1 109
1 110
1 111
1 112
1 113
1 114
1 115
1 116
1 117
1 118
1 119
1 120
1 121
1 122
1 123
1 124
1 125
1 126
1 127
1 128
1 129

POINT_DATA 130
SCALARS id int 1
LOOKUP_TABLE default
1
2
4
5
11
15
16
17
18
19
20
24
25
27
28
31
32
33
35
37
41
43
44
47
49
52
57
59
62
63
65
67
68
71
73
74
76
79
84
87
88
89
90
92
97
103
106
108
109
110
112
116
121
122
124
125
126
128
130
131
133
135
137
138
139
141
142
143
147
149
150
151
157
158
160
161
165
166
167
170
171
173
174
179
185
186
187
191
193
194
197
200
205
206
215
224
225
226
227
228
229
232
235
237
240
241
242
247
252
253
256
257
258
260
263
268
269
270
271
272
274
275
277
282
284
288
291
294
299
300

SCALARS type int 1
LOOKUP_TABLE default
1
1
1
1
1
1
1
1
1
1
1
1
1
1
1
1
1
1
1
1
1
1
1
1
1
1
1
1
1
1
1
1
1
1
1
1
1
1
1
1
1
1
1
1
1
1
1
1
1
1
1
1
1
1
1
1
1
1
1
1
1
1
1
1
1
1
1
1
1
1
1
1
1
1
1
1
1
1
1
1
1
1
1
1
1
1
1
1
1
1
1
1
1
1
1
1
1
1
1
1
1
1
1
1
1
1
1
1
1
1
1
1
1
1
1
1
1
1
1
1
1
1
1
1
1
1
1
1
1
1

SCALARS radius float 1
LOOKUP_TABLE default
0.0005
0.0005
0.0005
0.0005
0.0005
0.0005
0.0005
0.0005
0.0005
0.0005
0.0005
0.0005
0.0005
0.0005
0.0005
0.0005
0.0005
0.0005
0.0005
0.0005
0.0005
0.0005
0.0005
0.0005
0.0005
0.0005
0.0005
0.0005
0.0005
0.0005
0.0005
0.0005
0.0005
0.0005
0.0005
0.0005
0.0005
0.0005
0.0005
0.0005
0.0005
0.0005
0.0005
0.0005
0.0005
0.0005
0.0005
0.0005
0.0005
0.0005
0.0005
0.0005
0.0005
0.0005
0.0005
0.0005
0.0005
0.0005
0.0005
0.0005
0.0005
0.0005
0.0005
0.0005
0.0005
0.0005
0.0005
0.0005
0.0005
0.0005
0.0005
0.0005
0.0005
0.0005
0.0005
0.0005
0.0005
0.0005
0.0005
0.0005
0.0005
0.0005
0.0005
0.0005
0.0005
0.0005
0.0005
0.0005
0.0005
0.0005
0.0005
0.0005
0.0005
0.0005
0.0005
0.0005
0.0005
0.0005
0.0005
0.0005
0.0005
0.0005
0.0005
0.0005
0.0005
0.0005
0.0005
0.0005
0.0005
0.0005
0.0005
0.0005
0.0005
0.0005
0.0005
0.0005
0.0005
0.0005
0.0005
0.0005
0.0005
0.0005
0.0005
0.0005
0.0005
0.0005
0.0005
0.0005
0.0005
0.0005

SCALARS mass float 1
LOOKUP_TABLE default
1.46608e-07
1.46608e-07
1.46608e-07
1.46608e-07
1.46608e-07
1.46608e-07
1.46608e-07
1.46608e-07
1.46608e-07
1.46608e-07
1.46608e-07
1.46608e-07
1.46608e-07
1.46608e-07
1.46608e-07
1.46608e-07
1.46608e-07
1.46608e-07
1.46608e-07
1.46608e-07
1.46608e-07
1.46608e-07
1.46608e-07
1.46608e-07
1.46608e-07
1.46608e-07
1.46608e-07
1.46608e-07
1.46608e-07
1.46608e-07
1.46608e-07
1.46608e-07
1.46608e-07
1.46608e-07
1.46608e-07
1.46608e-07
1.46608e-07
1.46608e-07
1.46608e-07
1.46608e-07
1.46608e-07
1.46608e-07
1.46608e-07
1.46608e-07
1.46608e-07
1.46608e-07
1.46608e-07
1.46608e-07
1.46608e-07
1.46608e-07
1.46608e-07
1.46608e-07
1.46608e-07
1.46608e-07
1.46608e-07
1.46608e-07
1.46608e-07
1.46608e-07
1.46608e-07
1.46608e-07
1.46608e-07
1.46608e-07
1.46608e-07
1.46608e-07
1.46608e-07
1.46608e-07
1.46608e-07
1.46608e-07
1.46608e-07
1.46608e-07
1.46608e-07
1.46608e-07
1.46608e-07
1.46608e-07
1.46608e-07
1.46608e-07
1.46608e-07
1.46608e-07
1.46608e-07
1.46608e-07
1.46608e-07
1.46608e-07
1.46608e-07
1.46608e-07
1.46608e-07
1.46608e-07
1.46608e-07
1.46608e-07
1.46608e-07
1.46608e-07
1.46608e-07
1.46608e-07
1.46608e-07
1.46608e-07
1.46608e-07
1.46608e-07
1.46608e-07
1.46608e-07
1.46608e-07
1.46608e-07
1.46608e-07
1.46608e-07
1.46608e-07
1.46608e-07
1.46608e-07
1.46608e-07
1.46608e-07
1.46608e-07
1.46608e-07
1.46608e-07
1.46608e-07
1.46608e-07
1.46608e-07
1.46608e-07
1.46608e-07
1.46608e-07
1.46608e-07
1.46608e-07
1.46608e-07
1.46608e-07
1.46608e-07
1.46608e-07
1.46608e-07
1.46608e-07
1.46608e-07
1.46608e-07
1.46608e-07
1.46608e-07
1.46608e-07
1.46608e-07

VECTORS velocity float
0.00109294 0.00101314 0.000382546
-0.000978426 -0.000510229 -0.00088129
0.00238006 -0.0282039 -0.0351171
0.000283673 -0.0120981 0.0165649
-0.0020108 0.0244684 -0.00116311
3.64223e-15 5.42054e-16 -3.69012e-14
1.7644e-14 2.84738e-15 -2.87664e-13
0.00266887 0.00782385 2.83822e-05
-9.6879e-317 9.73506e-317 2.68131e-13
0.00649202 -0.0185374 -0.0356012
0.00454997 0.00481951 0.00286593
0.000819537 0.001829 -0.023819
-0.00538059 0.0526955 -0.086018
9.71467e-317 9.75789e-317 -8.23806e-13
0.000402307 -0.0221738 -0.00206465
8.16904e-05 0.0211991 -0.00830043
0.000336254 -0.00331174 0.0215593
-0.000452307 -0.000282042 0.000467786
-0.000478023 -0.00143481 -0.00208033
-0.00108821 0.0267884 -0.00978224
0.00140614 -0.00012622 0.000947165
0.000745444 -0.00677693 0.0176418
7.88721e-05 0.0141257 0.00809052
-0.000672533 0.000970136 -0.00218043
-9.68849e-317 -9.75601e-317 2.88878e-12
0.00238828 0.00920107 -0.00564239
-3.58959e-14 1.60974e-14 -3.28528e-13
0.00263003 -0.0075207 -0.00616606
0.00447852 0.000884155 -0.00297509
0.000318975 0.0198641 -0.00961824
0.000139681 -0.0189017 0.00966998
0.000135882 -0.0208846 -0.00540106
0.0034185 -0.00714767 -0.00995009
0.00483466 0.00175059 -0.000390872
-0.0202584 -0.129336 -0.384388
0.00114076 0.00220449 0.0175247
-0.00591065 -0.0116809 -0.00772112
0.00169551 0.0118385 0.0113144
0.000604183 -0.0197859 0.00531497
0.000999125 0.00340489 0.0186123
0.000923046 0.0111564 -0.0162938
0.00051699 0.000693006 -0.0212934
-0.000295226 0.00919154 0.0201906
0.000109259 0.0182386 0.00866314
0.00383914 -0.00252462 -0.00500927
0.000704099 0.0110954 -0.0161886
0.035477 0.005462 0.0110007
-2.38559e-14 5.09008e-14 1.84333e-13
-6.32779e-05 -0.000511602 -0.000131196
0.000315831 -0.00038148 0.000109322
0.000884426 -0.0134304 -0.010272
-0.000212526 9.89663e-05 -0.000529817
-1.30063e-14 -1.76681e-14 -2.51655e-13
0.000367894 0.0102564 0.0160689
0.00400536 0.00337643 0.00422273
-0.000943721 0.0208656 0.00388866
-0.00180334 -0.000296595 -0.000771963
-9.67556e-317 -9.75879e-317 -3.22607e-12
0.00125095 -0.00462297 -0.00677492
0.00349302 0.00276961 0.00388564
0.00173402 -0.00268972 0.0100888
0.00164158 0.00644348 -0.0159312
-1.48116e-14 1.45915e-16 -1.73752e-13
8.11832e-05 -0.000840145 -0.000158116
0.00063726 -0.00382794 0.0114983
0.00031189 0.0146674 -0.0104471
-3.76425e-05 0.00324554 0.022299
0.00174715 0.0131081 -0.0102631
0.00137327 -0.0171742 0.00156147
4.34752e-15 1.18944e-14 2.80767e-13
6.31617e-08 0.0241868 -0.00583921
0.0050282 -0.0031567 0.0145121
-0.00161035 -0.000948837 0.00166773
-0.0180677 -0.00199023 -0.0229538
0.00262438 -0.00786739 -0.00411539
9.74157e-317 -9.69799e-317 9.23294e-13
-0.00183838 -0.00121996 -0.000730154
0.000407669 -0.00799077 -0.0167043
0.0064369 0.00113634 0.00477226
-7.46725e-06 -0.000322025 -0.000300435
0.00374502 0.00130955 -0.00287304
-4.38991e-10 0.0202526 -0.00343191
-0.0024303 4.087e-06 0.00191949
0.349892 -0.0166986 -0.0153762
0.00132997 0.0148068 0.00378984
0.000166481 0.0101104 -0.0203003
0.000358377 -0.0136379 -0.0153379
0.00167073 0.00111299 -0.00409505
2.60878e-15 4.19959e-16 -4.25291e-14
0.000462769 -0.0181977 -0.00741289
4.28555e-05 0.0194223 -0.00946944
-0.000340179 -0.000464872 -0.000700313
0.0019667 0.00176378 0.000363224
0.00259278 0.00528216 0.00381997
1.43032e-14 2.30302e-15 -2.33189e-13
1.97598e-09 0.0204248 -0.0022351
-0.000673037 -0.00121752 0.00248596
0.00374015 -0.0029521 -0.00869352
0.00086537 0.0149033 -0.006285
0.000706274 -0.0196746 0.00227238
0.00202383 -0.00570659 0.0126439
9.58743e-317 9.68145e-317 4.97437e-14
0.00160915 -0.0114457 -0.00340874
-0.000500226 -0.00170438 0.0230187
-2.34477e-05 0.0339991 -0.0251292
0.00201847 0.017596 -0.00355997
-9.62212e-05 -0.0049797 -0.00665927
0.00161252 0.00592445 0.00117651
0.000924623 -0.0172177 -0.00778231
0.00515644 0.00276874 0.00391271
0.00453195 0.00615392 0.00652934
-0.00274052 0.029341 -0.0215091
0.00368054 0.00964344 0.00330463
7.67746e-16 -1.2638e-15 -6.97588e-15
0.00444244 0.00167162 0.00630928
0.00357823 0.00456418 0.00319475
0.00122541 0.0116519 0.0119569
0.00494146 0.0027592 0.00686633
0.000418979 -0.016038 0.0137501
0.006817 0.000740676 0.00582971
-0.00142235 0.00101675 0.000477272
0.00037069 -0.0195578 -0.00717179
0.00391177 0.00364286 0.00165866
0.00250574 -0.000775897 -0.00682553
-9.68799e-317 -9.69932e-317 9.23294e-13
0.00421711 0.00246346 0.00767303
-8.51497e-05 0.000910784 -0.000582721
0.0409501 -0.0152182 0.0048908
-2.07749e-14 -3.36668e-15 3.38791e-13
0.00106381 -0.0047354 -0.0179371

VECTORS force float
4.74685e-08 3.11835e-08 1.84067e-08
-1.39378e-07 8.10147e-08 -2.98023e-07
0.0 0.0 -1.43822e-06
-2.90742e-09 3.87316e-09 1.92173e-08
-8.3581e-09 -2.90862e-09 -1.72992e-08
7.41154e-22 -5.38991e-21 0.0
1.32349e-23 -4.55446e-21 0.0
1.84553e-06 8.72738e-07 -6.40135e-07
0.0 0.0 0.0
0.0 0.0 -1.43822e-06
-0.000216994 -6.48033e-06 8.13878e-05
-1.3365e-08 3.23893e-08 3.76292e-08
0.0 0.0 -1.43822e-06
0.0 0.0 0.0
1.36388e-09 -3.48297e-09 1.1681e-08
-7.42482e-10 -3.06266e-09 -1.73333e-08
1.45137e-09 1.09867e-08 2.33976e-09
-3.58602e-09 -1.41746e-08 2.34381e-08
-3.88212e-08 3.62988e-09 1.71867e-07
-0.0419866 0.22602 -0.231091
-1.38036e-08 5.60969e-09 -8.35429e-09
-4.96622e-09 4.26369e-09 2.06832e-08
-3.84394e-09 -2.58067e-09 -1.22672e-08
-1.21951e-08 -1.24631e-08 6.78212e-08
0.0 0.0 0.0
5.03517e-05 -9.29541e-06 5.67881e-06
-6.61744e-22 5.00279e-21 2.11758e-22
-4.22311e-05 4.12738e-06 -1.09889e-05
3.93144e-07 -5.35604e-07 -6.32811e-07
-2.81212e-09 1.25996e-09 -1.81995e-08
-1.44925e-09 -7.83849e-10 1.23266e-08
-9.59629e-10 -7.00073e-09 9.31657e-09
-3.01597e-07 1.81902e-05 1.66223e-05
4.50597e-09 6.98615e-09 2.9276e-08
0.0 0.0 -1.43822e-06
-4.07362e-09 1.44796e-08 1.52444e-08
-8.6163e-08 1.16911e-08 3.56131e-08
0.000451011 -0.00335824 0.00155289
-5.77587e-09 -1.03232e-08 1.14012e-08
-2.89936e-09 1.65948e-08 3.47599e-08
-1.01155e-08 3.31842e-10 -1.77996e-08
-2.73626e-08 1.29983e-08 -1.40053e-07
3.23721e-09 1.32428e-08 -1.47658e-09
1.30617e-05 -1.37883e-05 -4.08343e-06
-1.2082e-07 -1.1441e-07 -4.43235e-07
-2.56439e-09 -4.38471e-09 -1.15924e-08
0.0 0.0 -1.43822e-06
-3.47813e-20 1.52995e-20 -8.25857e-21
-6.09937e-07 1.223e-06 -1.79532e-06
-2.65946e-07 -1.83447e-07 -6.48906e-07
1.1244e-08 7.46695e-09 2.18403e-08
1.28143e-06 -5.77465e-07 -4.54542e-07
-1.01247e-20 2.62051e-21 4.23516e-22
-2.70427e-09 1.96272e-08 8.70719e-09
1.19121e-08 1.61598e-09 4.98217e-09
3.63755e-09 1.67725e-08 -3.03606e-08
-5.24726e-06 -7.54086e-07 -5.62076e-06
0.0 0.0 0.0
-1.96485e-08 -3.56925e-08 -6.8689e-08
-1.73607e-08 7.82714e-09 1.98963e-08
0.0 0.0 -1.43822e-06
9.79115e-07 2.77373e-06 -6.4148e-06
7.94093e-23 8.91039e-21 0.0
6.56823e-07 3.4457e-07 -1.02346e-06
2.24278e-09 6.11344e-09 6.41221e-09
1.447e-06 1.21483e-06 9.58953e-06
-8.93027e-10 1.23612e-08 2.83572e-09
2.19064e-09 -1.48886e-08 -1.00626e-08
-4.58695e-09 -1.96958e-08 1.90865e-08
3.15123e-20 -1.04291e-20 0.0
1.46486e-14 -4.43474e-09 -1.83212e-08
0.0 0.0 -1.43822e-06
1.77128e-08 -1.50779e-08 1.19346e-08
0.0 0.0 -1.43822e-06
4.66526e-06 -1.36247e-05 -1.10147e-05
0.0 0.0 0.0
2.25063e-08 -2.58411e-09 6.23923e-08
2.44808e-09 -2.17566e-08 3.21787e-08
-4.66563e-07 3.3973e-07 -1.3756e-06
-5.61654e-08 5.53873e-08 -3.86864e-08
-7.00366e-09 2.09867e-09 1.73873e-08
-2.23254e-15 -2.15859e-09 -1.35046e-08
-2.66733e-07 -3.36043e-08 -1.15723e-07
0.0 0.0 -1.43822e-06
-2.61576e-06 3.96936e-06 -2.0554e-07
-4.70043e-09 -8.16312e-09 -6.89472e-09
-9.78575e-10 -1.47231e-08 2.45237e-09
-2.88847e-08 -1.9039e-08 7.05603e-08
-9.26442e-23 2.10931e-21 0.0
-6.40785e-09 4.72239e-09 5.4228e-09
-4.75869e-10 -8.71898e-10 -1.23391e-08
7.93976e-08 -1.08146e-07 -1.2349e-07
-8.26953e-07 1.10136e-06 -3.7856e-08
4.88564e-07 4.63688e-07 2.98582e-07
-3.97047e-23 -4.46678e-23 0.0
2.73743e-12 -1.60725e-09 -1.35848e-08
-4.97109e-09 -3.46204e-09 1.36357e-08
-5.1859e-08 5.3929e-08 5.31642e-08
-9.75854e-06 6.31605e-06 1.36945e-06
-1.96746e-09 2.37709e-09 8.26163e-09
-3.21523e-08 -1.82033e-08 1.12692e-07
0.0 0.0 0.0
4.86031e-09 2.80017e-08 2.39642e-08
-3.87902e-08 -2.13128e-09 8.65766e-08
-2.17463e-10 1.36704e-07 -1.56686e-07
2.67266e-06 3.66736e-06 -5.07155e-06
-1.25381e-10 -5.9362e-10 -2.15913e-08
-0.000116392 8.7589e-06 2.9627e-05
-8.98878e-09 -2.8782e-08 -1.92681e-09
-2.32043e-08 2.04855e-07 -1.59329e-06
-1.84989e-07 -6.54132e-07 3.09653e-07
-2.50028e-08 7.58886e-08 -1.01576e-07
2.26646e-06 4.2699e-06 -7.78775e-07
-3.97047e-22 1.18055e-20 -1.90582e-21
1.53741e-07 -1.94636e-07 -7.09007e-07
9.0368e-07 2.12247e-07 1.28498e-07
-1.69999e-09 1.55222e-08 -3.1605e-09
4.29519e-07 7.35974e-07 -6.34461e-07
2.40345e-10 3.54956e-09 1.00309e-08
-1.26751e-06 8.89191e-07 -1.26092e-06
2.93364e-06 7.54548e-09 -1.18767e-06
-1.23105e-08 -2.14583e-08 8.76097e-09
3.24727e-08 9.62582e-08 2.63226e-07
9.44908e-10 -3.85943e-08 -4.1496e-07
0.0 0.0 0.0
0.0 0.0 -1.43822e-06
7.4482e-08 4.74798e-08 1.26027e-07
0.0 0.0 -1.43822e-06
7.26595e-21 6.10459e-22 4.23516e-22
7.64852e-07 2.0091e-06 6.04268e-06
