# vtk DataFile Version 3.0
LIGGGHTS particles timestep 10000000
ASCII
DATASET POLYDATA
POINTS 157 float
0.0166119 0.0142261 0.0136006
0.0215042 0.0141609 0.0138892
0.0207455 0.0228695 0.0151095
0.0304324 0.0186952 0.0157781
0.025861 0.0171972 0.0229582
0.0219408 0.0237848 0.0137831
0.02031 0.0242688 0.0133445
0.00938048 0.0183393 0.00587271
0.0219589 0.0215698 0.00814343
0.0285241 0.023078 0.00986944
0.0366849 0.0218066 0.0435188
0.0227685 0.0229069 0.0150921
0.0332354 0.0185438 0.00729595
0.0190692 0.0244539 0.0137188
0.0273387 0.0189437 0.00717482
0.0208208 0.0177712 0.0165146
0.0185751 0.018373 0.0161308
0.0308899 0.0169478 0.0152451
0.0188797 0.0175349 0.0156775
0.0209732 0.0241923 0.0140891
0.0184416 0.0227455 0.0139542
0.0176599 0.0234565 0.0118604
0.0189639 0.0166108 0.0153045
0.0295351 0.0222674 0.0143076
0.0174732 0.022739 0.0139576
0.0200324 0.0204107 0.015733
0.0151176 0.0224214 0.0155203
0.0232317 0.0233894 0.0109329
0.0186375 0.0218218 0.0149903
0.003617 0.0285782 0.0435188
0.0314475 0.0173788 0.0154895
0.0206688 0.0148261 0.0107414
0.0196051 0.0193773 0.00612808
0.0315891 0.0150271 0.0127801
0.0198172 0.0170629 0.0154796
0.0204892 0.0238077 0.0148943
0.0328908 0.0152636 0.00948266
0.0311225 0.0158861 0.0144481
0.0317707 0.0147837 0.0118866
0.0170128 0.0234567 0.0122919
0.0162856 0.0237338 0.0139564
0.0233606 0.0149427 0.0147912
0.0172041 0.0105644 0.0255637
0.0292893 0.022968 0.0133
0.019161 0.0232369 0.0129209
0.021084 0.0176137 0.00744087
0.0249152 0.0169145 0.0153984
0.019989 0.0236265 0.0140441
0.0204682 0.0201364 0.0165903
0.0297906 0.0214534 0.0150948
0.0319431 0.0147839 0.0109882
0.0325309 0.0157742 0.00872352
0.0217742 0.0180336 0.0166631
0.0290807 0.0233048 0.0125067
0.0172761 0.0231756 0.0131456
0.0178297 0.0233677 0.0158746
0.0277812 0.0207878 0.00755987
0.0243609 0.0223336 0.0157609
0.0197249 0.0231667 0.0149537
0.0214483 0.0168437 0.00645098
0.0223571 0.0228206 0.00940236
0.0216507 0.0149177 0.0145344
0.026347 0.0152069 0.00955067
0.0171024 0.024307 0.0138855
0.0551527 0.0181697 0.00595147
0.0338892 0.0213586 0.00790392
0.019913 0.0147392 0.0111744
0.033543 0.020035 0.00739509
0.0185243 0.0241038 0.0129741
0.0303903 0.00406748 0.0435188
0.0204095 0.0151479 0.00964088
0.0275944 0.0172604 0.00758077
0.0207634 0.0171873 0.0157049
0.0327459 0.0165293 0.00801174
0.0210839 0.0143975 0.0168871
0.0159548 0.0228441 0.0151631
0.024006 0.0217661 0.0150178
0.0189578 0.0235388 0.0139404
0.034323 0.0227308 0.00924534
0.0279836 0.0215857 0.00797351
0.0217941 0.0181849 0.00729882
0.0257659 0.0184382 0.0165306
0.0570019 0.0175547 0.00590579
0.0198979 0.0139412 0.0131401
0.0201283 0.0179516 0.0158162
0.0194924 0.0241135 0.0129049
0.0227001 0.0236431 0.014419
0.0313957 0.0153407 0.0135914
0.0221348 0.00230077 0.0435188
0.0154943 0.0234027 0.0144734
0.0267811 0.0166437 0.00792334
0.0225227 0.0153089 0.0151957
0.0192438 0.0198129 0.0158936
0.0166088 0.0222809 0.015668
0.0140194 0.0224653 0.0153921
0.0194567 0.0188072 0.0159461
0.0247074 0.0178309 0.015779
0.0206479 0.0147386 0.014717
0.0288762 0.0233787 0.0115967
0.0275264 0.0198195 0.00727638
0.0265076 0.0156794 0.00877878
0.0225877 0.0231286 0.0100759
0.0204827 0.0156138 0.00891761
0.0263118 0.0149002 0.0103771
0.0281383 0.0221947 0.00850451
0.0211958 0.0239937 0.0131347
0.017546 0.0240085 0.0129076
0.0283208 0.0227323 0.00914111
0.0158177 0.0145159 0.0141346
0.0185204 0.0139809 0.0130253
0.0268146 0.0190088 0.00598366
0.0214859 0.0196862 0.00724369
0.0193044 0.015396 0.0143735
0.0145196 0.0215458 0.0161093
0.0192978 0.0211355 0.0154242
0.0321734 0.0149752 0.0100469
0.0182281 0.020357 0.0161409
0.025469 0.0174672 0.0163153
0.0302895 0.019406 0.0158322
0.0221996 0.00109062 0.0435188
0.0170208 0.0209103 0.016431
0.0301387 0.0202445 0.0155689
0.0179263 0.0213142 0.0159732
0.0194447 0.0226446 0.0141364
0.0175577 0.0141103 0.0132975
0.017773 0.023601 0.0142425
0.0330984 0.0177076 0.00739611
0.0182134 0.0231994 0.0130945
0.0196559 0.0219455 0.0148763
0.0202566 0.019407 0.015927
0.0179335 0.0233805 0.0111461
0.0205588 0.0147683 0.0130336
0.0251676 0.0207206 0.0156243
0.0287149 0.0233365 0.0107391
0.108836 0.0200055 0.00584234
0.0228292 0.023406 0.0115947
0.0225902 0.0145805 0.0142613
0.0173644 0.0145416 0.0141787
0.0214334 0.0150406 0.0134092
0.0197044 0.0147146 0.0125364
0.0251076 0.0189431 0.0159527
0.0217813 0.0227903 0.0152014
0.0204928 0.0152841 0.0138897
0.0183681 0.0193685 0.0161022
0.0185514 0.0234357 0.0122077
0.021374 0.023367 0.0144933
0.0146582 0.0230539 0.0148968
0.0206723 0.0159933 0.0150179
0.00937694 0.00505359 0.0435188
0.0168159 0.023296 0.0146832
0.0180975 0.0244035 0.0138417
0.0195081 0.0150593 0.0134542
0.0178671 0.0222714 0.0156461
0.0190798 0.020964 0.0170328
0.0227361 0.0183007 0.0167221
0.024947 0.0190645 0.00586966
0.0271547 0.0179867 0.00738255

VERTICES 157 314
1 0
1 1
1 2
1 3
1 4
1 5
1 6
1 7
1 8
1 9
1 10
1 11
1 12
1 13
1 14
1 15
1 16
1 17
1 18
1 19
1 20
1 21
1 22
1 23
1 24
1 25
1 26
1 27
1 28
1 29
1 30
1 31
1 32
1 33
1 34
1 35
1 36
1 37
1 38
1 39
1 40
1 41
1 42
1 43
1 44
1 45
1 46
1 47
1 48
1 49
1 50
1 51
1 52
1 53
1 54
1 55
1 56
1 57
1 58
1 59
1 60
1 61
1 62
1 63
1 64
1 65
1 66
1 67
1 68
1 69
1 70
1 71
1 72
1 73
1 74
1 75
1 76
1 77
1 78
1 79
1 80
1 81
1 82
1 83
1 84
1 85
1 86
1 87
1 88
1 89
1 90
1 91
1 92
1 93
1 94
1 95
1 96
1 97
1 98
1 99
1 100
1 101
1 102
1 103
1 104
1 105
1 106
1 107
1 108
1 109
1 110
1 111
1 112
1 113
1 114
1 115
1 116
1 117
1 118
1 119
1 120
1 121
1 122
1 123
1 124
1 125
1 126
1 127
1 128
1 129
1 130
1 131
1 132
1 133
1 134
1 135
1 136
1 137
1 138
1 139
1 140
1 141
1 142
1 143
1 144
1 145
1 146
1 147
1 148
1 149
1 150
1 151
1 152
1 153
1 154
1 155
1 156

POINT_DATA 157
SCALARS id int 1
LOOKUP_TABLE default
1
2
4
5
7
11
13
15
16
17
18
19
20
23
24
25
27
28
29
31
32
33
35
37
40
41
43
44
47
49
52
54
57
59
62
63
65
67
68
71
73
74
76
79
80
83
84
85
86
87
88
89
90
92
97
102
103
105
106
108
109
110
112
116
121
122
124
125
126
128
130
131
133
135
137
138
139
141
142
143
145
147
149
150
151
157
158
160
161
165
166
167
170
171
173
174
177
179
185
186
187
191
193
194
197
199
200
205
206
211
215
220
221
224
225
226
227
228
229
232
235
237
240
241
242
246
247
248
250
252
253
256
257
258
260
262
263
268
269
270
271
272
273
274
275
277
282
283
284
286
288
289
291
294
298
299
300

SCALARS type int 1
LOOKUP_TABLE default
1
1
1
1
1
1
1
1
1
1
1
1
1
1
1
1
1
1
1
1
1
1
1
1
1
1
1
1
1
1
1
1
1
1
1
1
1
1
1
1
1
1
1
1
1
1
1
1
1
1
1
1
1
1
1
1
1
1
1
1
1
1
1
1
1
1
1
1
1
1
1
1
1
1
1
1
1
1
1
1
1
1
1
1
1
1
1
1
1
1
1
1
1
1
1
1
1
1
1
1
1
1
1
1
1
1
1
1
1
1
1
1
1
1
1
1
1
1
1
1
1
1
1
1
1
1
1
1
1
1
1
1
1
1
1
1
1
1
1
1
1
1
1
1
1
1
1
1
1
1
1
1
1
1
1
1
1

SCALARS radius float 1
LOOKUP_TABLE default
0.0005
0.0005
0.0005
0.0005
0.0005
0.0005
0.0005
0.0005
0.0005
0.0005
0.0005
0.0005
0.0005
0.0005
0.0005
0.0005
0.0005
0.0005
0.0005
0.0005
0.0005
0.0005
0.0005
0.0005
0.0005
0.0005
0.0005
0.0005
0.0005
0.0005
0.0005
0.0005
0.0005
0.0005
0.0005
0.0005
0.0005
0.0005
0.0005
0.0005
0.0005
0.0005
0.0005
0.0005
0.0005
0.0005
0.0005
0.0005
0.0005
0.0005
0.0005
0.0005
0.0005
0.0005
0.0005
0.0005
0.0005
0.0005
0.0005
0.0005
0.0005
0.0005
0.0005
0.0005
0.0005
0.0005
0.0005
0.0005
0.0005
0.0005
0.0005
0.0005
0.0005
0.0005
0.0005
0.0005
0.0005
0.0005
0.0005
0.0005
0.0005
0.0005
0.0005
0.0005
0.0005
0.0005
0.0005
0.0005
0.0005
0.0005
0.0005
0.0005
0.0005
0.0005
0.0005
0.0005
0.0005
0.0005
0.0005
0.0005
0.0005
0.0005
0.0005
0.0005
0.0005
0.0005
0.0005
0.0005
0.0005
0.0005
0.0005
0.0005
0.0005
0.0005
0.0005
0.0005
0.0005
0.0005
0.0005
0.0005
0.0005
0.0005
0.0005
0.0005
0.0005
0.0005
0.0005
0.0005
0.0005
0.0005
0.0005
0.0005
0.0005
0.0005
0.0005
0.0005
0.0005
0.0005
0.0005
0.0005
0.0005
0.0005
0.0005
0.0005
0.0005
0.0005
0.0005
0.0005
0.0005
0.0005
0.0005
0.0005
0.0005
0.0005
0.0005
0.0005
0.0005

SCALARS mass float 1
LOOKUP_TABLE default
1.46608e-07
1.46608e-07
1.46608e-07
1.46608e-07
1.46608e-07
1.46608e-07
1.46608e-07
1.46608e-07
1.46608e-07
1.46608e-07
1.46608e-07
1.46608e-07
1.46608e-07
1.46608e-07
1.46608e-07
1.46608e-07
1.46608e-07
1.46608e-07
1.46608e-07
1.46608e-07
1.46608e-07
1.46608e-07
1.46608e-07
1.46608e-07
1.46608e-07
1.46608e-07
1.46608e-07
1.46608e-07
1.46608e-07
1.46608e-07
1.46608e-07
1.46608e-07
1.46608e-07
1.46608e-07
1.46608e-07
1.46608e-07
1.46608e-07
1.46608e-07
1.46608e-07
1.46608e-07
1.46608e-07
1.46608e-07
1.46608e-07
1.46608e-07
1.46608e-07
1.46608e-07
1.46608e-07
1.46608e-07
1.46608e-07
1.46608e-07
1.46608e-07
1.46608e-07
1.46608e-07
1.46608e-07
1.46608e-07
1.46608e-07
1.46608e-07
1.46608e-07
1.46608e-07
1.46608e-07
1.46608e-07
1.46608e-07
1.46608e-07
1.46608e-07
1.46608e-07
1.46608e-07
1.46608e-07
1.46608e-07
1.46608e-07
1.46608e-07
1.46608e-07
1.46608e-07
1.46608e-07
1.46608e-07
1.46608e-07
1.46608e-07
1.46608e-07
1.46608e-07
1.46608e-07
1.46608e-07
1.46608e-07
1.46608e-07
1.46608e-07
1.46608e-07
1.46608e-07
1.46608e-07
1.46608e-07
1.46608e-07
1.46608e-07
1.46608e-07
1.46608e-07
1.46608e-07
1.46608e-07
1.46608e-07
1.46608e-07
1.46608e-07
1.46608e-07
1.46608e-07
1.46608e-07
1.46608e-07
1.46608e-07
1.46608e-07
1.46608e-07
1.46608e-07
1.46608e-07
1.46608e-07
1.46608e-07
1.46608e-07
1.46608e-07
1.46608e-07
1.46608e-07
1.46608e-07
1.46608e-07
1.46608e-07
1.46608e-07
1.46608e-07
1.46608e-07
1.46608e-07
1.46608e-07
1.46608e-07
1.46608e-07
1.46608e-07
1.46608e-07
1.46608e-07
1.46608e-07
1.46608e-07
1.46608e-07
1.46608e-07
1.46608e-07
1.46608e-07
1.46608e-07
1.46608e-07
1.46608e-07
1.46608e-07
1.46608e-07
1.46608e-07
1.46608e-07
1.46608e-07
1.46608e-07
1.46608e-07
1.46608e-07
1.46608e-07
1.46608e-07
1.46608e-07
1.46608e-07
1.46608e-07
1.46608e-07
1.46608e-07
1.46608e-07
1.46608e-07
1.46608e-07
1.46608e-07
1.46608e-07
1.46608e-07
1.46608e-07
1.46608e-07
1.46608e-07

VECTORS velocity float
0.000734804 -0.001258 0.00117439
-0.00355853 0.00167114 -0.00796738
0.0100641 -0.000215943 0.000455176
0.00173803 0.0189879 0.00229486
0.475122 -0.248796 1.79346
-0.00199223 0.000784362 0.00157931
0.000252225 0.0009571 -6.91922e-05
3.64344e-15 5.48448e-16 -3.6901e-14
4.51357e-05 -0.0170417 -0.0133209
0.000714809 -0.00701458 -0.0185145
-9.6879e-317 9.73506e-317 2.68131e-13
-0.000835943 -0.000245022 -0.000974068
0.00116955 -0.0233391 0.00112339
0.000446916 0.00148746 -0.000268974
0.000561644 -0.0196056 0.0012015
5.8267e-05 0.0261555 0.00687914
0.000164055 0.0234532 0.00357192
0.000624187 0.00967887 0.005285
0.00076167 0.0216823 0.00408696
0.000651928 0.00074888 -0.00105857
3.84112e-05 0.00770891 -0.0119124
0.00444609 0.000402273 -0.00448776
-2.53884e-05 0.0199263 0.0127707
0.00178191 0.0153636 -0.018775
0.0015115 0.00756015 -0.0115315
-0.000169286 0.0198533 -0.00648494
0.00625374 0.00278964 -0.00155229
0.00192458 -0.00345051 -0.0194216
-0.00890615 -0.0740329 0.0413644
-9.68849e-317 -9.75601e-317 2.88878e-12
0.00281867 0.0116754 0.00556996
-4.88582e-05 -0.0045168 0.0211346
-3.5896e-14 1.6099e-14 -3.28527e-13
0.00118456 0.00553561 0.0169046
-8.44827e-05 0.0208767 0.010755
0.000798657 -0.00360657 0.000282881
-7.84528e-05 -0.00497934 0.00766521
0.000394956 0.0137074 0.0143268
0.000698214 0.00248865 0.0184682
0.00373049 0.0021729 -0.00670695
0.00285459 0.000338843 -0.002496
-0.0077155 -0.00489193 -0.00492055
-0.0580243 0.0731477 -0.125164
0.000269327 0.00993301 -0.0191244
0.0025025 0.00069648 -0.000839883
0.0969011 -0.184594 -0.371564
0.00105425 0.01579 0.00850536
-0.00225927 0.00103825 -0.00169753
-1.60466e-07 0.0241047 -0.00521054
0.000208529 0.0202488 -0.0110791
0.000307414 -0.00282907 0.0206379
0.000155993 -0.0133494 0.0155755
0.000500537 0.0252391 0.00501755
0.000497592 0.00397773 -0.018874
0.00257924 0.00376957 -0.00938539
0.0203794 0.0762729 0.178612
0.000401401 -0.018832 -0.00773488
-0.0288229 0.029584 -0.0134222
-0.00980408 -0.0210407 0.0717865
-2.3884e-14 5.08772e-14 1.84336e-13
0.00398876 -0.00225418 -0.00588772
-0.0144477 0.0198171 -0.0325737
0.000344455 -0.00869917 0.0177956
0.00531448 -0.00230518 -0.0127717
-1.30041e-14 -1.7669e-14 -2.51655e-13
0.00114303 -0.00740616 -0.00473322
-6.45018e-05 -0.00313983 0.0220421
0.000155338 -0.0206747 -0.00472608
0.00114576 0.000381448 -0.00158325
-9.67556e-317 -9.75879e-317 -3.22607e-12
-3.99017e-05 -0.00821127 0.013668
0.000455988 -0.0170112 0.00713334
-2.82161e-05 0.0219504 0.009863
0.00129035 -0.0154875 0.0111234
-0.0673496 0.0891067 -0.2035
0.0068276 0.000748057 -0.00306096
-0.0134097 0.0246104 -0.0188916
-0.00540439 0.00848607 0.0118082
0.00017088 -0.0107461 -0.0188514
0.00017819 -0.015636 -0.0105598
0.00119512 -0.0194398 0.00197239
-0.0241644 0.0260532 -0.0765868
4.44498e-15 1.18571e-14 2.80767e-13
0.00201719 -0.0041075 0.0103378
0.000133744 0.0226708 0.00579007
0.000762372 0.00070509 0.000140632
-0.000849954 -0.000208481 -0.00114829
-0.000131136 0.00888625 0.0198852
9.74157e-317 -9.69799e-317 9.23294e-13
0.00239755 0.00212812 0.000814951
0.00054328 -0.0162978 0.0114038
-0.0220819 -0.0155162 -0.0248808
-3.02866e-09 0.0203027 -0.00344303
0.0186026 0.00921511 -0.00856463
-0.000924915 -0.00649495 -0.0128518
0.000865899 0.0210724 0.00102335
0.0012395 0.0168874 0.00450365
-0.0161185 -0.0275037 -0.0253461
0.000352686 0.00052838 -0.0199175
0.000115476 -0.0212973 -0.00501068
0.000802258 -0.0116478 0.0147973
0.00324688 -0.00291411 -0.00981287
0.000162055 -0.0127083 0.0163181
0.000621053 -0.00633198 0.0156711
0.000268314 -0.0138577 -0.0147744
-0.000572704 0.00208048 -0.0015301
0.000978989 0.00137952 -0.00337916
0.000345053 -0.0110591 -0.0159705
-0.000358581 0.00126283 -0.00171272
0.000697379 0.000133715 -0.000828316
-1.91099e-14 -3.08041e-15 3.11554e-13
0.0007504 -0.0213979 -0.00479185
-0.0020273 0.0200212 0.0167138
-4.90543e-06 0.0217722 -0.0118465
2.86572e-10 0.0180815 -0.00968057
0.00127969 -0.00512568 0.0176863
0.00709905 0.0166903 -0.0402829
-0.00280204 -0.00359421 -0.00371947
0.00107858 0.0155253 -0.00147929
9.58743e-317 9.68145e-317 4.97437e-14
-0.00351436 0.0277865 -0.0108125
0.000907608 0.0177431 -0.00613129
-0.00063758 0.021517 -0.00825017
0.00180695 -0.0947364 0.115603
0.000586698 -0.000245601 0.000323918
0.0196919 -0.00629284 6.22398e-05
0.00114039 -0.0188373 0.00553368
0.00185182 0.00225869 -0.00594286
0.00113811 0.00422532 -0.00359489
0.000814799 0.0208509 -0.00164429
0.00332687 -0.00111694 -0.00417167
0.000782343 0.00720253 0.0202772
0.0154724 -0.00202021 0.00244726
0.000752078 -0.00255838 -0.0160959
7.72337e-16 -1.27686e-15 -6.9728e-15
-2.33162e-06 0.00158332 -0.0216885
-0.00743345 -0.00155162 -0.00461446
0.000890185 -0.000242083 0.000419702
0.000233778 0.00948998 0.0199859
0.000165058 0.00491575 0.0217585
-2.12994e-10 0.0205616 0.000689026
-0.00157092 0.00245148 -0.00435346
-0.00102961 0.012169 0.0232783
0.000166961 0.0323043 -0.0393335
0.00490304 0.000757404 -0.00385563
-0.0079562 8.47755e-05 -0.00288497
0.00218499 0.00128376 -0.000310045
-0.0694669 0.0832958 -0.097094
-9.68799e-317 -9.69932e-317 9.23294e-13
0.014347 0.00429125 -0.00438308
0.000748135 -0.000439553 0.0037765
0.000274781 0.00965027 0.0206995
-0.00482032 0.0333191 0.0275993
-0.298331 -0.0146755 -0.0848769
0.00062983 0.0244606 0.00361109
2.60878e-15 4.20559e-16 -4.25291e-14
-2.58637e-05 -0.0212389 0.00365918

VECTORS force float
5.12719e-08 5.2473e-08 -1.33364e-07
-1.44771e-07 3.60602e-07 -9.3261e-07
-2.58407e-05 -3.1283e-06 -4.17976e-06
3.88075e-05 -9.07452e-07 -1.35753e-05
0.0 0.0 -1.43822e-06
-1.42636e-06 1.00629e-06 -1.3262e-06
9.40739e-07 1.62994e-07 1.73404e-06
-7.30566e-21 3.20549e-20 -2.11758e-22
-4.08159e-10 -9.25708e-09 6.80736e-09
-3.52368e-09 -1.37528e-08 -1.48755e-08
0.0 0.0 0.0
-2.00808e-07 1.45076e-07 -4.52277e-07
1.26638e-08 -9.95574e-09 -1.36915e-08
-4.16968e-06 -5.90279e-06 9.37951e-06
-2.92748e-09 -8.10236e-09 1.12418e-08
1.25408e-07 1.53634e-07 4.28639e-07
1.37197e-07 -1.23566e-07 -2.79917e-07
-4.16064e-07 -6.59322e-07 -7.29528e-08
0.0 0.0 -1.43822e-06
2.48598e-08 -3.38031e-08 -1.68757e-07
-6.48447e-06 -1.30749e-05 3.54697e-05
-3.40709e-06 3.8522e-07 5.10426e-07
-1.92214e-07 2.87527e-07 7.66817e-07
-6.03188e-08 -4.21631e-07 1.50877e-07
2.41369e-06 -5.94869e-06 1.23549e-05
1.81906e-10 -4.11732e-09 -1.35823e-08
1.74979e-07 -5.84738e-09 3.61708e-07
-1.34585e-08 -1.0785e-08 -1.19327e-08
0.0 0.0 -1.43822e-06
0.0 0.0 0.0
4.90389e-07 -8.35513e-06 -2.04167e-06
-3.73752e-10 8.44244e-09 5.83461e-09
-1.00585e-21 3.89106e-21 4.23516e-22
4.3764e-08 1.49288e-08 -1.58426e-08
-2.29493e-07 4.58104e-07 1.11398e-07
-1.39461e-05 -5.2939e-07 1.69294e-05
1.04177e-09 -5.04325e-09 2.35616e-09
-2.26647e-09 1.80758e-08 1.22227e-09
9.37455e-08 -6.39816e-09 1.45333e-08
2.59904e-08 6.60015e-07 7.34196e-06
0.0 0.0 -1.43822e-06
-6.31306e-08 -4.72689e-08 4.68101e-08
1.56324e-07 3.96008e-07 -7.87015e-07
7.13087e-10 -7.77826e-09 -9.07315e-09
4.16712e-06 1.13618e-06 -1.10221e-05
-0.207396 0.28007 0.571164
-2.36265e-09 1.45383e-08 -2.79694e-09
1.41046e-08 2.17239e-07 -1.44322e-06
1.73243e-14 -3.51478e-09 -1.66712e-08
1.95485e-10 -5.45241e-09 -9.5393e-09
-1.27833e-07 -1.00477e-07 6.36608e-08
-1.79432e-09 3.204e-08 -1.27934e-08
2.11901e-07 3.52417e-07 6.00326e-08
-5.58579e-09 -1.26931e-08 -2.20113e-08
4.32823e-06 -3.8863e-06 1.3872e-05
0.0 0.0 -1.43822e-06
-4.74606e-08 -5.19517e-08 1.89587e-08
0.0 0.0 -1.43822e-06
-2.66665e-05 -9.38646e-06 -1.33203e-05
1.4876e-20 1.75759e-20 -6.14099e-21
1.00459e-08 5.30374e-08 5.13851e-08
0.0 0.0 -1.43822e-06
7.42611e-10 5.92862e-09 1.36359e-08
2.15065e-07 -5.03935e-07 -7.66426e-07
6.08805e-22 1.4029e-21 -2.11758e-22
-4.40311e-09 -2.40306e-08 -3.89051e-08
-1.12489e-09 9.93011e-09 4.27116e-09
-9.54063e-10 -7.12515e-09 9.14716e-09
6.02685e-07 -4.37204e-06 5.18365e-06
0.0 0.0 0.0
3.51794e-07 9.9338e-08 -2.14851e-07
1.32904e-09 -6.3707e-08 5.31949e-08
-1.00769e-07 1.08728e-07 1.71971e-07
-1.03952e-08 3.49313e-08 -4.17986e-08
0.0 0.0 -1.43822e-06
-2.75359e-08 -5.15232e-07 2.22308e-08
1.59893e-07 9.86773e-08 -1.06864e-06
-4.82853e-05 1.9025e-05 0.000145096
-4.99293e-10 -1.18944e-08 1.9214e-09
-2.30069e-08 1.67073e-08 3.16654e-08
0.00156429 0.00556104 0.00993597
0.0 0.0 -1.43822e-06
3.64429e-19 -1.16149e-19 -8.47033e-22
-1.3903e-07 5.5994e-07 -1.06671e-06
1.47998e-07 -1.42128e-07 -6.07711e-08
1.2341e-06 -1.57828e-06 -1.50652e-06
-1.79769e-07 2.1035e-08 -2.70118e-07
-3.74692e-09 7.7001e-09 -6.11331e-09
0.0 0.0 0.0
6.07332e-08 -3.12315e-08 1.20582e-07
-3.18832e-09 -2.85219e-09 1.48086e-08
-8.02151e-08 -3.9825e-07 1.20581e-07
4.25688e-14 -2.62398e-09 -1.54687e-08
5.06845e-07 -3.49273e-07 8.66195e-08
-6.47053e-08 -8.80111e-08 -1.2335e-06
-3.63419e-08 3.08505e-07 -3.72539e-08
-3.04319e-08 1.27765e-07 2.9234e-08
0.0 0.0 -1.43822e-06
8.52594e-10 -6.094e-09 -1.29056e-08
-1.1714e-09 -4.79204e-09 9.49701e-09
-7.78511e-09 -1.71129e-09 2.61579e-08
3.37349e-10 4.68312e-08 3.26662e-08
2.19857e-08 6.40774e-08 -1.51673e-08
7.38617e-09 3.15833e-08 3.30947e-08
2.14255e-08 -4.96256e-08 -4.82476e-09
5.41463e-08 -2.15711e-08 -6.23619e-07
3.61161e-07 1.74387e-06 8.97564e-06
6.62815e-09 -1.46333e-08 -2.04512e-09
-4.67807e-08 3.94258e-08 -1.07264e-08
2.73232e-08 1.16367e-07 -3.85576e-07
-3.57342e-22 0.0 0.0
1.67736e-06 -7.41289e-06 -2.61762e-06
7.88148e-09 -2.12911e-08 -1.45378e-06
-5.58379e-10 5.33203e-09 -2.18038e-08
8.6565e-13 -6.05663e-09 -1.22208e-08
-1.54776e-08 4.18546e-09 8.24721e-09
-2.04476e-05 8.03999e-05 -8.64569e-06
-7.35038e-09 1.82954e-07 -1.07012e-07
-2.07898e-05 -2.73477e-06 -7.98435e-06
0.0 0.0 0.0
2.19158e-07 2.88548e-08 -2.66868e-08
-3.54684e-06 -3.61012e-06 4.66128e-06
3.29613e-07 1.60454e-07 -1.07344e-06
-1.63995e-07 5.31854e-06 -5.69435e-07
5.94381e-08 2.07306e-08 -3.56546e-08
2.89114e-06 -8.67511e-07 2.59705e-05
-1.8738e-08 -1.95504e-08 4.62531e-08
4.86238e-06 -3.95168e-06 1.58584e-05
-1.94639e-06 4.7025e-05 1.70867e-05
6.74362e-07 3.1187e-07 -4.59048e-08
1.37175e-07 -5.22288e-07 -1.07084e-06
-1.09273e-06 2.13619e-06 2.11147e-06
-2.54984e-07 7.63253e-07 -3.37704e-07
-4.56092e-09 -4.04509e-08 -4.30289e-08
-6.56451e-21 0.0 -6.35275e-22
-3.83765e-09 -9.42834e-09 -6.60718e-09
1.82726e-08 -1.11573e-08 3.68697e-08
2.38528e-08 1.91887e-09 1.6974e-08
-1.73822e-07 6.11255e-07 1.70302e-07
-5.64726e-08 1.2704e-06 -5.45305e-08
2.04138e-15 6.18956e-10 -1.36889e-08
-4.15769e-08 -1.52795e-07 -1.20421e-06
0.0 0.0 -1.43822e-06
2.04476e-05 -8.03999e-05 5.76925e-06
-9.82232e-06 6.6024e-07 6.2958e-06
1.3618e-07 1.98715e-07 -1.69737e-06
4.64721e-07 3.65899e-08 -1.20525e-07
0.0 0.0 -1.43822e-06
0.0 0.0 0.0
0.0 0.0 -1.43822e-06
-4.17549e-06 3.15437e-06 8.39427e-06
3.44231e-07 -6.88109e-08 -9.33584e-08
0.0 0.0 -1.43822e-06
0.0 0.0 -1.43822e-06
2.63517e-08 3.92734e-08 -5.50484e-08
-1.28378e-21 1.43069e-20 2.11758e-22
-2.86708e-08 7.98018e-09 8.93593e-09
