# vtk DataFile Version 3.0
LIGGGHTS particles timestep 2600000
ASCII
DATASET POLYDATA
POINTS 285 float
0.0218471 0.0234137 0.0148722
0.016363 0.0216606 0.0161037
0.0259065 0.018027 0.0169189
0.0190502 0.0240298 0.0145431
0.0245337 0.0197193 0.0158979
0.0209406 0.0203432 0.00744752
0.0211687 0.0213137 0.00787707
0.0209577 0.0179833 0.00736488
0.0227925 0.0224793 0.0142759
0.0190076 0.0147936 0.0129458
0.0197327 0.0185296 0.0159106
0.0175474 0.0240283 0.0129455
0.0196082 0.0228309 0.0175867
0.00938048 0.0183393 0.00587271
0.0205082 0.0245892 0.0180262
0.0207819 0.0241872 0.0141437
0.0223626 0.0158758 0.0156827
0.0184917 0.0240594 0.0127864
0.0264557 0.0181193 0.00729656
0.0221578 0.0194401 0.0167603
0.0193003 0.0192579 0.0168591
0.0179211 0.0244161 0.0138136
0.0247697 0.0220305 0.0160938
0.0235773 0.0195931 0.0160318
0.0206616 0.0161638 0.00828703
0.0211603 0.0226739 0.0153073
0.0226551 0.0229624 0.013494
0.0247687 0.0210375 0.0164891
0.0200035 0.0238867 0.0147418
0.0188574 0.0245129 0.0136266
0.0233084 0.0155231 0.0154096
0.0138723 0.0162407 0.0149399
0.0219743 0.0222498 0.0157039
0.0229118 0.0221448 0.0151629
0.0198199 0.0243699 0.0138541
0.0225164 0.0236174 0.0139596
0.0198599 0.0156522 0.0143619
0.0226456 0.0229698 0.015143
0.0214064 0.0239507 0.0134005
0.0202953 0.023325 0.0168983
0.0245946 0.0153984 0.0137854
0.0167529 0.0238824 0.013465
0.0194837 0.0216357 0.0169161
0.0227383 0.023832 0.0148313
0.0243452 0.0160873 0.0146782
0.0202851 0.0222168 0.0167655
0.00254313 0.0507505 0.0352089
0.0208358 0.0236772 0.0160239
0.0217867 0.0241482 0.0142514
0.0191083 0.0146283 0.0119592
0.0212657 0.0149323 0.0155039
0.0234376 0.0233973 0.0153771
0.0192171 0.0231215 0.0162805
0.0231379 0.019286 0.0168861
0.0183471 0.0236294 0.0140465
0.0222256 0.0233477 0.0121463
0.0242194 0.0166546 0.0155124
0.0174625 0.0151687 0.0161156
0.0196091 0.0247202 0.0176049
0.0204861 0.0241118 0.0132341
0.0241467 0.0227929 0.0158196
0.0247576 0.0212322 0.0153772
0.0223712 0.0145214 0.0141481
0.0257132 0.018558 0.0160531
0.0237778 0.0223867 0.0144139
0.0248567 0.0181087 0.0159978
0.0237407 0.0172496 0.0165977
0.025375 0.0216225 0.0167375
0.0202504 0.0172513 0.00755321
0.0232066 0.0222527 0.0167185
0.0196951 0.0241469 0.0127685
0.018586 0.0171556 0.0163554
0.0192951 0.0148063 0.010711
0.0208417 0.0240144 0.0124201
0.0178382 0.0142571 0.0159476
0.0172932 0.0231778 0.0131363
0.016761 0.0142086 0.0135468
0.0165555 0.023685 0.0150039
0.0212033 0.0237359 0.016989
0.0199675 0.0145754 0.0124679
0.0205319 0.0186761 0.00721459
0.0219381 0.0215527 0.0171571
0.0207133 0.0194876 0.00721442
0.0251859 0.0204212 0.0157271
0.0249893 0.0148118 0.0121089
0.0176115 0.0188404 0.0169259
0.0191959 0.0238764 0.0132835
0.0208389 0.0182128 0.0166885
0.0184208 0.0245479 0.0175235
0.0209445 0.0237448 0.0149928
0.0221605 0.0233977 0.0112665
0.0171397 0.0241354 0.0143373
0.0148991 0.022052 0.0169302
0.0184129 0.0149121 0.0164461
0.0230567 0.023318 0.0121982
0.0165296 0.0183734 0.0167165
0.0232754 0.0231481 0.0144397
0.0170918 0.0234323 0.0122388
0.0209032 0.0146455 0.0121225
0.0217362 0.0229592 0.00965255
0.0193363 0.0236768 0.0154565
0.0203993 0.0187271 0.00600944
0.0233607 0.0204871 0.0156716
0.0198548 0.0159883 0.00846401
0.0184761 0.0152735 0.0147734
0.0178119 0.022516 0.0143386
0.0196771 0.0153304 0.00934016
0.0167061 0.0239217 0.0168643
0.0175751 0.0234452 0.0115402
0.0190508 0.0160921 0.0148177
0.0173455 0.020736 0.0156286
0.0181 0.0177982 0.0157627
0.0239846 0.0177545 0.0157687
0.0215134 0.0142694 0.0136749
0.0270326 0.020682 0.00751659
0.0193362 0.0226814 0.0153646
0.0237736 0.0179979 0.018306
0.0266969 0.0193941 0.00717756
0.0188567 0.0223978 0.0170885
0.0216142 0.0167995 0.0162301
0.0227934 0.0235551 0.0181675
0.0182815 0.0181308 0.0166881
0.0185428 0.0191034 0.0174938
0.0181712 0.0211794 0.0167447
0.016509 0.0205891 0.0165607
0.0254612 0.0172463 0.0164101
0.02025 0.0156951 0.0156994
0.0262096 0.0170955 0.00764716
0.023445 0.0225202 0.0155493
0.0173529 0.021505 0.0162708
0.0191937 0.0163969 0.0157636
0.0137343 0.0220609 0.0158127
0.0256651 0.0206871 0.01654
0.0273571 0.0219188 0.00830991
0.0193069 0.0206786 0.0166886
0.0196462 0.021962 0.0159854
0.0171345 0.0229492 0.0155399
0.0187007 0.0152385 0.0137935
0.0196852 0.0138956 0.0131449
0.0164702 0.0193861 0.0167587
0.0136313 0.0192514 0.0164509
0.019175 0.0164343 0.0167653
0.0194715 0.025109 0.0185164
0.0167188 0.0228376 0.0138102
0.0176747 0.0235806 0.0149748
0.016748 0.0243964 0.0186055
0.0156989 0.0233617 0.0153914
0.0199125 0.014275 0.0163891
0.0160276 0.0236321 0.0141379
0.0172844 0.0237906 0.0160592
0.0177058 0.0209032 0.0180443
0.0180737 0.023088 0.0159629
0.0159432 0.0144623 0.0140636
0.0217376 0.0232788 0.0158575
0.0186824 0.0223008 0.0160592
0.0175871 0.023205 0.016829
0.020126 0.0211418 0.0163271
0.0240543 0.0206728 0.0161634
0.025935 0.0193025 0.0169078
0.024275 0.0220789 0.0152588
0.0146737 0.0217728 0.015997
0.0171362 0.0215953 0.0151586
0.0185891 0.0231779 0.0149232
0.0187701 0.0188148 0.0159409
0.016424 0.0232943 0.0127517
0.0169104 0.0224565 0.0146984
0.0156861 0.023095 0.0171457
0.0160754 0.0238732 0.0176386
0.0158698 0.01605 0.0158026
0.0186864 0.0138785 0.0131951
0.020052 0.015014 0.0133692
0.0233367 0.0213192 0.0154765
0.0185921 0.0239352 0.0160722
0.0165672 0.0153246 0.0156946
0.0162129 0.0225102 0.0155064
0.0187328 0.0226684 0.0140669
0.0218766 0.0206877 0.0165097
0.0206353 0.0220019 0.0158456
0.0177671 0.0187944 0.0159381
0.0184532 0.0196453 0.0163974
0.0205011 0.0149273 0.0146132
0.019105 0.0177585 0.0157494
0.0179538 0.0221576 0.0167325
0.0189005 0.0219085 0.0149011
0.0229366 0.0229472 0.0173853
0.0211949 0.022628 0.0163881
0.0174524 0.0224587 0.0175446
0.0225385 0.0228479 0.0162727
0.0214852 0.0147649 0.0145429
0.0179313 0.024712 0.0183812
0.0208735 0.014587 0.0163564
0.0213915 0.0224588 0.0186326
0.018255 0.0166303 0.0152418
0.0170022 0.022434 0.0163872
0.0250157 0.019741 0.0168514
0.0216496 0.018605 0.0172756
0.0174933 0.0199482 0.0164167
0.020873 0.0214327 0.0169645
0.0191095 0.0243263 0.0168333
0.0225376 0.0232565 0.0104525
0.0206639 0.0137648 0.0139023
0.0249933 0.016283 0.0162723
0.0207712 0.0141824 0.0129992
0.0163958 0.0232173 0.0161948
0.0185509 0.0234645 0.0169546
0.0202709 0.0147051 0.0155606
0.0221887 0.0235696 0.0170448
0.0132121 0.0209421 0.0155289
0.0214576 0.0215242 0.0161581
0.0141887 0.0227476 0.0152459
0.0149443 0.0231841 0.0147666
0.0255239 0.019523 0.0159575
0.0200489 0.0218325 0.0177279
0.0202699 0.0190328 0.0167598
0.0169138 0.014677 0.0144169
0.0187468 0.0155019 0.0157086
0.0213172 0.0153682 0.0171102
0.0157332 0.0223816 0.0163918
0.0164439 0.021859 0.0171401
0.0152312 0.0154426 0.0153284
0.0188784 0.0213204 0.0160519
0.0185365 0.0229143 0.0179368
0.0199472 0.0164408 0.015106
0.0166774 0.0229664 0.0171687
0.019221 0.0237709 0.0176575
0.0188634 0.0211195 0.0175058
0.0228656 0.0205333 0.0165803
0.0192845 0.0180714 0.0166818
0.0192881 0.0146804 0.014877
0.0231003 0.0213804 0.0171954
0.0170998 0.0193572 0.0176217
0.0231996 0.014841 0.0146865
0.0213648 0.0159574 0.0157429
0.0181294 0.0212907 0.0153402
0.0202448 0.0229594 0.0150245
0.0149646 0.0226835 0.0177027
0.0199292 0.0171433 0.0158173
0.0138878 0.0211996 0.0162969
0.0184608 0.0202631 0.0171839
0.0178439 0.0241715 0.0167956
0.0199225 0.0254006 0.0193606
0.0200451 0.0200037 0.0166702
0.0245141 0.0182507 0.0172779
0.0178746 0.0236225 0.0176908
0.0213862 0.0204443 0.0175086
0.0217981 0.0178265 0.0165982
0.0146693 0.0206135 0.0165102
0.0150855 0.0226231 0.0156695
0.0155665 0.0201927 0.0166442
0.0203391 0.0243115 0.0170552
0.0195223 0.01951 0.0159172
0.014608 0.0196227 0.0167116
0.0207264 0.0172307 0.0164244
0.0189112 0.014067 0.016252
0.0199355 0.0241042 0.0161332
0.0178172 0.0222188 0.0155416
0.0222957 0.0151347 0.0149971
0.0160741 0.0150307 0.0148759
0.0215947 0.0244398 0.0185323
0.016864 0.0234011 0.0180494
0.0144381 0.0154998 0.0145616
0.0151482 0.0147935 0.0145723
0.0226484 0.0216477 0.0161321
0.0201674 0.0228696 0.0160172
0.0208896 0.0205259 0.0165371
0.0192379 0.0204496 0.0157169
0.0182315 0.0143129 0.0149216
0.0171328 0.024294 0.0176883
0.00937694 0.00505359 0.0435188
0.01812 0.0229922 0.0134466
0.0173814 0.0152127 0.01512
0.0182557 0.021874 0.0177522
0.0133674 0.0200087 0.0158522
0.0211594 0.0194911 0.0167408
0.0170362 0.0162804 0.0159959
0.0177368 0.0139984 0.0134846
0.0178342 0.0156805 0.01689
0.0182584 0.020534 0.0159835
0.0238592 0.0217612 0.016138
0.0193021 0.0144295 0.0139021
0.0182416 0.0162368 0.0161612
0.0202412 0.0236004 0.017917
0.0172905 0.020502 0.0172257
0.0235238 0.0218788 0.0148267
0.0154661 0.0212376 0.0162891

VERTICES 285 570
1 0
1 1
1 2
1 3
1 4
1 5
1 6
1 7
1 8
1 9
1 10
1 11
1 12
1 13
1 14
1 15
1 16
1 17
1 18
1 19
1 20
1 21
1 22
1 23
1 24
1 25
1 26
1 27
1 28
1 29
1 30
1 31
1 32
1 33
1 34
1 35
1 36
1 37
1 38
1 39
1 40
1 41
1 42
1 43
1 44
1 45
1 46
1 47
1 48
1 49
1 50
1 51
1 52
1 53
1 54
1 55
1 56
1 57
1 58
1 59
1 60
1 61
1 62
1 63
1 64
1 65
1 66
1 67
1 68
1 69
1 70
1 71
1 72
1 73
1 74
1 75
1 76
1 77
1 78
1 79
1 80
1 81
1 82
1 83
1 84
1 85
1 86
1 87
1 88
1 89
1 90
1 91
1 92
1 93
1 94
1 95
1 96
1 97
1 98
1 99
1 100
1 101
1 102
1 103
1 104
1 105
1 106
1 107
1 108
1 109
1 110
1 111
1 112
1 113
1 114
1 115
1 116
1 117
1 118
1 119
1 120
1 121
1 122
1 123
1 124
1 125
1 126
1 127
1 128
1 129
1 130
1 131
1 132
1 133
1 134
1 135
1 136
1 137
1 138
1 139
1 140
1 141
1 142
1 143
1 144
1 145
1 146
1 147
1 148
1 149
1 150
1 151
1 152
1 153
1 154
1 155
1 156
1 157
1 158
1 159
1 160
1 161
1 162
1 163
1 164
1 165
1 166
1 167
1 168
1 169
1 170
1 171
1 172
1 173
1 174
1 175
1 176
1 177
1 178
1 179
1 180
1 181
1 182
1 183
1 184
1 185
1 186
1 187
1 188
1 189
1 190
1 191
1 192
1 193
1 194
1 195
1 196
1 197
1 198
1 199
1 200
1 201
1 202
1 203
1 204
1 205
1 206
1 207
1 208
1 209
1 210
1 211
1 212
1 213
1 214
1 215
1 216
1 217
1 218
1 219
1 220
1 221
1 222
1 223
1 224
1 225
1 226
1 227
1 228
1 229
1 230
1 231
1 232
1 233
1 234
1 235
1 236
1 237
1 238
1 239
1 240
1 241
1 242
1 243
1 244
1 245
1 246
1 247
1 248
1 249
1 250
1 251
1 252
1 253
1 254
1 255
1 256
1 257
1 258
1 259
1 260
1 261
1 262
1 263
1 264
1 265
1 266
1 267
1 268
1 269
1 270
1 271
1 272
1 273
1 274
1 275
1 276
1 277
1 278
1 279
1 280
1 281
1 282
1 283
1 284

POINT_DATA 285
SCALARS id int 1
LOOKUP_TABLE default
1
2
3
4
5
6
7
9
10
11
12
13
14
15
16
17
18
19
20
21
22
23
24
25
26
27
28
29
30
31
32
33
34
35
36
37
38
39
40
41
42
43
44
45
46
47
48
49
50
51
52
53
54
56
57
58
59
60
61
62
63
64
65
66
67
68
69
70
71
73
74
75
76
78
79
80
81
82
83
84
85
86
87
88
89
90
91
92
93
95
96
97
98
99
100
101
102
103
104
105
106
108
109
110
111
112
113
114
115
116
117
118
120
121
122
123
124
125
126
127
128
129
130
131
132
133
134
135
136
137
138
139
141
142
143
144
145
146
147
148
149
150
151
152
153
154
155
156
157
158
159
160
161
162
163
164
165
166
167
168
169
170
171
173
174
175
176
177
178
179
180
181
182
183
184
185
186
187
189
190
191
192
193
194
196
197
199
200
201
202
203
204
205
206
208
209
210
211
212
213
214
215
216
217
218
219
220
221
223
224
225
226
227
228
229
230
231
232
233
234
235
236
237
238
239
240
241
242
243
244
246
247
248
249
250
251
252
253
254
255
256
257
258
259
260
261
262
263
264
265
266
267
268
269
270
271
272
273
274
275
276
277
278
279
280
281
282
283
284
285
286
287
288
289
290
291
292
293
294
295
296
297
298
299
300

SCALARS type int 1
LOOKUP_TABLE default
1
1
1
1
1
1
1
1
1
1
1
1
1
1
1
1
1
1
1
1
1
1
1
1
1
1
1
1
1
1
1
1
1
1
1
1
1
1
1
1
1
1
1
1
1
1
1
1
1
1
1
1
1
1
1
1
1
1
1
1
1
1
1
1
1
1
1
1
1
1
1
1
1
1
1
1
1
1
1
1
1
1
1
1
1
1
1
1
1
1
1
1
1
1
1
1
1
1
1
1
1
1
1
1
1
1
1
1
1
1
1
1
1
1
1
1
1
1
1
1
1
1
1
1
1
1
1
1
1
1
1
1
1
1
1
1
1
1
1
1
1
1
1
1
1
1
1
1
1
1
1
1
1
1
1
1
1
1
1
1
1
1
1
1
1
1
1
1
1
1
1
1
1
1
1
1
1
1
1
1
1
1
1
1
1
1
1
1
1
1
1
1
1
1
1
1
1
1
1
1
1
1
1
1
1
1
1
1
1
1
1
1
1
1
1
1
1
1
1
1
1
1
1
1
1
1
1
1
1
1
1
1
1
1
1
1
1
1
1
1
1
1
1
1
1
1
1
1
1
1
1
1
1
1
1
1
1
1
1
1
1
1
1
1
1
1
1
1
1
1
1
1
1
1
1
1
1
1
1
1
1
1
1
1
1

SCALARS radius float 1
LOOKUP_TABLE default
0.0005
0.0005
0.0005
0.0005
0.0005
0.0005
0.0005
0.0005
0.0005
0.0005
0.0005
0.0005
0.0005
0.0005
0.0005
0.0005
0.0005
0.0005
0.0005
0.0005
0.0005
0.0005
0.0005
0.0005
0.0005
0.0005
0.0005
0.0005
0.0005
0.0005
0.0005
0.0005
0.0005
0.0005
0.0005
0.0005
0.0005
0.0005
0.0005
0.0005
0.0005
0.0005
0.0005
0.0005
0.0005
0.0005
0.0005
0.0005
0.0005
0.0005
0.0005
0.0005
0.0005
0.0005
0.0005
0.0005
0.0005
0.0005
0.0005
0.0005
0.0005
0.0005
0.0005
0.0005
0.0005
0.0005
0.0005
0.0005
0.0005
0.0005
0.0005
0.0005
0.0005
0.0005
0.0005
0.0005
0.0005
0.0005
0.0005
0.0005
0.0005
0.0005
0.0005
0.0005
0.0005
0.0005
0.0005
0.0005
0.0005
0.0005
0.0005
0.0005
0.0005
0.0005
0.0005
0.0005
0.0005
0.0005
0.0005
0.0005
0.0005
0.0005
0.0005
0.0005
0.0005
0.0005
0.0005
0.0005
0.0005
0.0005
0.0005
0.0005
0.0005
0.0005
0.0005
0.0005
0.0005
0.0005
0.0005
0.0005
0.0005
0.0005
0.0005
0.0005
0.0005
0.0005
0.0005
0.0005
0.0005
0.0005
0.0005
0.0005
0.0005
0.0005
0.0005
0.0005
0.0005
0.0005
0.0005
0.0005
0.0005
0.0005
0.0005
0.0005
0.0005
0.0005
0.0005
0.0005
0.0005
0.0005
0.0005
0.0005
0.0005
0.0005
0.0005
0.0005
0.0005
0.0005
0.0005
0.0005
0.0005
0.0005
0.0005
0.0005
0.0005
0.0005
0.0005
0.0005
0.0005
0.0005
0.0005
0.0005
0.0005
0.0005
0.0005
0.0005
0.0005
0.0005
0.0005
0.0005
0.0005
0.0005
0.0005
0.0005
0.0005
0.0005
0.0005
0.0005
0.0005
0.0005
0.0005
0.0005
0.0005
0.0005
0.0005
0.0005
0.0005
0.0005
0.0005
0.0005
0.0005
0.0005
0.0005
0.0005
0.0005
0.0005
0.0005
0.0005
0.0005
0.0005
0.0005
0.0005
0.0005
0.0005
0.0005
0.0005
0.0005
0.0005
0.0005
0.0005
0.0005
0.0005
0.0005
0.0005
0.0005
0.0005
0.0005
0.0005
0.0005
0.0005
0.0005
0.0005
0.0005
0.0005
0.0005
0.0005
0.0005
0.0005
0.0005
0.0005
0.0005
0.0005
0.0005
0.0005
0.0005
0.0005
0.0005
0.0005
0.0005
0.0005
0.0005
0.0005
0.0005
0.0005
0.0005
0.0005
0.0005
0.0005
0.0005
0.0005
0.0005
0.0005
0.0005
0.0005
0.0005
0.0005
0.0005
0.0005
0.0005
0.0005
0.0005
0.0005
0.0005
0.0005
0.0005
0.0005
0.0005
0.0005
0.0005
0.0005
0.0005
0.0005
0.0005
0.0005
0.0005

SCALARS mass float 1
LOOKUP_TABLE default
1.46608e-07
1.46608e-07
1.46608e-07
1.46608e-07
1.46608e-07
1.46608e-07
1.46608e-07
1.46608e-07
1.46608e-07
1.46608e-07
1.46608e-07
1.46608e-07
1.46608e-07
1.46608e-07
1.46608e-07
1.46608e-07
1.46608e-07
1.46608e-07
1.46608e-07
1.46608e-07
1.46608e-07
1.46608e-07
1.46608e-07
1.46608e-07
1.46608e-07
1.46608e-07
1.46608e-07
1.46608e-07
1.46608e-07
1.46608e-07
1.46608e-07
1.46608e-07
1.46608e-07
1.46608e-07
1.46608e-07
1.46608e-07
1.46608e-07
1.46608e-07
1.46608e-07
1.46608e-07
1.46608e-07
1.46608e-07
1.46608e-07
1.46608e-07
1.46608e-07
1.46608e-07
1.46608e-07
1.46608e-07
1.46608e-07
1.46608e-07
1.46608e-07
1.46608e-07
1.46608e-07
1.46608e-07
1.46608e-07
1.46608e-07
1.46608e-07
1.46608e-07
1.46608e-07
1.46608e-07
1.46608e-07
1.46608e-07
1.46608e-07
1.46608e-07
1.46608e-07
1.46608e-07
1.46608e-07
1.46608e-07
1.46608e-07
1.46608e-07
1.46608e-07
1.46608e-07
1.46608e-07
1.46608e-07
1.46608e-07
1.46608e-07
1.46608e-07
1.46608e-07
1.46608e-07
1.46608e-07
1.46608e-07
1.46608e-07
1.46608e-07
1.46608e-07
1.46608e-07
1.46608e-07
1.46608e-07
1.46608e-07
1.46608e-07
1.46608e-07
1.46608e-07
1.46608e-07
1.46608e-07
1.46608e-07
1.46608e-07
1.46608e-07
1.46608e-07
1.46608e-07
1.46608e-07
1.46608e-07
1.46608e-07
1.46608e-07
1.46608e-07
1.46608e-07
1.46608e-07
1.46608e-07
1.46608e-07
1.46608e-07
1.46608e-07
1.46608e-07
1.46608e-07
1.46608e-07
1.46608e-07
1.46608e-07
1.46608e-07
1.46608e-07
1.46608e-07
1.46608e-07
1.46608e-07
1.46608e-07
1.46608e-07
1.46608e-07
1.46608e-07
1.46608e-07
1.46608e-07
1.46608e-07
1.46608e-07
1.46608e-07
1.46608e-07
1.46608e-07
1.46608e-07
1.46608e-07
1.46608e-07
1.46608e-07
1.46608e-07
1.46608e-07
1.46608e-07
1.46608e-07
1.46608e-07
1.46608e-07
1.46608e-07
1.46608e-07
1.46608e-07
1.46608e-07
1.46608e-07
1.46608e-07
1.46608e-07
1.46608e-07
1.46608e-07
1.46608e-07
1.46608e-07
1.46608e-07
1.46608e-07
1.46608e-07
1.46608e-07
1.46608e-07
1.46608e-07
1.46608e-07
1.46608e-07
1.46608e-07
1.46608e-07
1.46608e-07
1.46608e-07
1.46608e-07
1.46608e-07
1.46608e-07
1.46608e-07
1.46608e-07
1.46608e-07
1.46608e-07
1.46608e-07
1.46608e-07
1.46608e-07
1.46608e-07
1.46608e-07
1.46608e-07
1.46608e-07
1.46608e-07
1.46608e-07
1.46608e-07
1.46608e-07
1.46608e-07
1.46608e-07
1.46608e-07
1.46608e-07
1.46608e-07
1.46608e-07
1.46608e-07
1.46608e-07
1.46608e-07
1.46608e-07
1.46608e-07
1.46608e-07
1.46608e-07
1.46608e-07
1.46608e-07
1.46608e-07
1.46608e-07
1.46608e-07
1.46608e-07
1.46608e-07
1.46608e-07
1.46608e-07
1.46608e-07
1.46608e-07
1.46608e-07
1.46608e-07
1.46608e-07
1.46608e-07
1.46608e-07
1.46608e-07
1.46608e-07
1.46608e-07
1.46608e-07
1.46608e-07
1.46608e-07
1.46608e-07
1.46608e-07
1.46608e-07
1.46608e-07
1.46608e-07
1.46608e-07
1.46608e-07
1.46608e-07
1.46608e-07
1.46608e-07
1.46608e-07
1.46608e-07
1.46608e-07
1.46608e-07
1.46608e-07
1.46608e-07
1.46608e-07
1.46608e-07
1.46608e-07
1.46608e-07
1.46608e-07
1.46608e-07
1.46608e-07
1.46608e-07
1.46608e-07
1.46608e-07
1.46608e-07
1.46608e-07
1.46608e-07
1.46608e-07
1.46608e-07
1.46608e-07
1.46608e-07
1.46608e-07
1.46608e-07
1.46608e-07
1.46608e-07
1.46608e-07
1.46608e-07
1.46608e-07
1.46608e-07
1.46608e-07
1.46608e-07
1.46608e-07
1.46608e-07
1.46608e-07
1.46608e-07
1.46608e-07
1.46608e-07
1.46608e-07
1.46608e-07
1.46608e-07
1.46608e-07
1.46608e-07
1.46608e-07
1.46608e-07
1.46608e-07
1.46608e-07
1.46608e-07
1.46608e-07
1.46608e-07
1.46608e-07
1.46608e-07
1.46608e-07
1.46608e-07
1.46608e-07
1.46608e-07
1.46608e-07
1.46608e-07

VECTORS velocity float
0.00193653 0.00270841 0.000730102
0.00800148 0.0155911 -0.00910824
-0.00041004 -0.0248041 0.0236403
-0.00100167 -0.00205157 0.00327244
0.00812729 0.0131236 -0.00132355
0.000156235 -0.0203637 -0.00692121
0.00049443 -0.0148128 -0.00964132
-0.00147799 -0.02371 0.00337149
0.000277276 0.0123249 -0.014049
0.00246462 0.00639669 -0.00241664
0.00635226 -0.00662765 -0.000659654
-0.000319381 0.000998997 -0.00550155
0.00758719 -0.00700086 -0.00802327
3.64599e-15 5.37004e-16 -3.69009e-14
0.0154902 -0.00451619 0.00049215
0.00341416 -0.000429628 0.00172502
-0.000755337 -0.00146612 9.28604e-05
-0.000562945 -0.000238812 -0.000917223
0.000156186 -0.0209257 0.00424495
0.000457538 0.0111436 -0.00220036
0.000186234 0.00138866 -0.00151183
-6.28478e-05 0.00082733 -0.000944776
-0.00145335 0.00281407 -0.00183001
0.000818792 0.0226878 0.00219806
0.00120864 -0.0088946 0.00637181
0.00612431 -0.000581559 0.00390435
0.00134998 0.0100723 -0.0189073
-0.0107896 0.000102776 0.0294306
0.0018096 -0.000786577 0.0112162
0.0001275 0.00116229 -0.000613194
5.51494e-05 0.00187066 -0.00166406
0.00408835 -0.00478809 -0.00361124
0.00252197 -0.00446715 0.00150538
-0.000671111 0.0147169 -0.0136183
-0.0012766 1.98481e-05 0.00105043
-0.00302196 3.44966e-05 0.0024912
-0.0019877 0.000809803 0.000505375
0.00194975 0.00652882 -0.00446894
0.00167951 -0.000852536 0.000868609
0.000590096 -0.00106464 0.00466255
0.00184238 0.0102524 0.0145631
0.00141465 0.000324 -0.00506256
0.00643012 -0.00252094 0.0106018
0.000319075 0.00206675 -0.000418102
0.000792682 0.0142526 0.021685
0.00407352 0.00361855 0.00246399
-0.116307 0.121665 -0.740885
-0.0060177 0.000565879 -0.020725
0.000494617 0.000421946 0.000414478
0.00619668 0.00127034 -0.00658036
-0.00269184 -0.00310385 0.00149953
0.000803294 0.00225014 -0.00134442
-0.000563426 -0.00200646 0.0101739
-0.00615508 -0.0125555 0.0244362
-0.00227235 0.00146246 -0.00589776
0.000203405 0.00344531 -0.020924
-0.000215586 0.0328846 0.0155082
0.00168594 -0.0052974 -0.000524919
0.0113359 0.00226759 0.0021699
3.27635e-05 -0.00351106 0.00369956
-0.000913206 0.000862192 -0.000451155
0.000956204 0.00333472 0.00744022
-0.000563005 -0.000454762 0.000196432
0.00167098 -0.009321 0.00333839
0.000573352 0.00453085 -0.00451082
0.00338888 -0.0121458 -0.00209358
-0.0377863 -0.0334606 0.0250202
-0.00148872 -0.000747242 0.00356646
0.000729274 -0.0185613 0.00824016
-0.00343954 0.00264265 0.0106582
0.000444793 0.00114655 0.000150916
0.00221029 0.0042522 -0.00556246
0.000102953 -0.00451494 0.0211225
-0.00403712 -0.0053065 0.00263093
0.0123679 0.00743596 -0.0234518
0.000589737 0.00486421 -0.012375
0.00031539 7.8312e-05 -0.000430696
-0.00305042 0.00439202 -0.00205564
0.000627332 0.00150462 -0.0483614
0.00259937 0.00050352 -0.0021024
0.000161354 -0.0207209 0.00267977
-0.0306796 -0.0116563 -0.0219312
0.00110182 -0.0192152 -0.00275068
0.0123657 0.00283381 -0.000447452
0.000751229 0.00371076 0.0191143
-0.0126302 -0.0121967 0.00133395
0.00106596 0.00526107 -0.000613586
0.00874386 0.0154211 0.00408667
0.00247167 8.4951e-05 -0.00103226
0.00218278 0.000809755 0.000644244
-5.74476e-05 -0.0003405 -0.0195434
0.000229957 -0.00011998 -0.00201633
0.000724269 -0.00204918 0.00123498
-0.0059939 0.00501961 -0.0074565
8.96218e-05 0.00373172 -0.0206894
0.00109042 -0.0505949 -0.0113535
0.000953471 0.00417389 -0.00294179
0.000360233 0.00297636 -0.00767617
0.00103804 0.00100312 -0.00147267
0.000605043 -0.0065919 -0.0151762
0.00371028 0.00885597 0.00938498
-6.31794e-15 2.81883e-15 -5.78008e-14
-0.000958193 0.0195656 -0.00368777
0.00355566 -0.00403475 0.00272632
0.00403826 0.00504468 0.00330944
0.00183219 0.000480452 -0.0211952
0.000608601 -0.00869537 0.0122942
-0.000257571 -0.00221454 -0.000484331
0.000371855 0.000824102 -0.00123308
0.00254935 0.00441248 0.00469337
0.0102321 -9.30191e-05 -0.00298897
0.000616616 0.0129186 0.00375369
-0.000823828 0.0127917 0.00208581
-0.000236833 -0.000827215 0.00137398
0.000294385 -0.0192737 -0.0076836
0.00215378 -0.00175619 0.00620252
0.000875596 -0.185215 0.0608689
0.00123155 -0.0164309 -0.00193982
0.00486141 -0.00297907 -0.0081049
-0.000126099 0.00788477 0.00375124
-0.0133819 0.0209547 0.0114938
0.0105606 -0.0027631 0.00786578
-0.00207076 -0.010098 -0.00483518
0.00431897 0.00370492 -0.0013973
0.00187314 0.00914866 -0.00225288
-0.0304598 0.00687693 -0.0633562
0.00723172 -0.00298851 -0.0104103
0.00265313 -0.0111035 0.00464165
-0.00199622 0.00629291 -0.00593259
0.00504282 -0.00800463 0.000791457
0.00476196 0.0105636 0.0024771
-0.000235827 0.000796321 0.00177321
-0.00034314 -0.00128311 -0.00141318
0.000721454 -0.0152184 -0.0134671
0.00066685 -0.00561723 0.00385543
0.0103522 -0.00148157 0.00807024
0.00449641 -0.00552772 -0.00285105
0.001785 0.0002346 -0.00159729
0.00146522 -0.000787021 -0.00376123
-0.00717923 -0.0326143 -0.000459236
-0.00461817 -0.0110086 -0.038295
0.00591132 0.0134565 0.00455644
0.00519083 0.00220397 0.00364253
-0.000153162 0.0117495 -0.0194526
-0.0189995 0.00880429 0.0235021
-0.0125506 -0.000480342 -0.00973435
-0.00167342 0.00134424 3.70165e-05
-0.0122048 0.00232962 -0.0116203
0.00341513 0.00130886 -0.00248479
0.00178569 -0.00166371 -0.0027778
0.0159419 0.00573357 -0.0123052
0.00621242 0.00383295 0.00631637
-3.52906e-05 7.22054e-05 -2.22224e-06
-0.00265501 -0.000799877 -0.00422808
0.00671328 0.00505257 -0.00364172
0.000107162 0.000927186 0.00580011
-0.000763394 0.0225955 -0.00977092
-0.0270394 0.0218548 0.0380355
-0.0107634 -0.00948589 -0.014678
-0.0010441 0.00239036 -0.00168839
-0.000493088 -0.00208121 0.00108295
0.00110893 0.00727303 -0.00164923
-0.00882138 0.00675314 0.0252264
0.0138103 -0.012902 -0.00171171
0.00312016 0.00267455 -0.00819376
-0.000496552 0.0159751 -0.0237627
-0.00177524 0.000303949 -0.000157836
-0.0015408 -0.000340446 0.00307054
0.0029086 -0.0010145 -0.000856972
0.000599175 0.00439444 -0.0122711
0.00478812 -0.00223168 -0.00178019
-0.00174295 0.0147133 -0.00825506
6.00446e-05 0.00583805 0.007509
0.00274897 0.00028275 -0.00114217
0.00817022 -0.00345837 0.00154877
0.000159427 0.0100798 -0.0188591
0.00140096 0.00996463 -0.00209408
0.0110693 0.00256316 -0.00353546
0.000741156 0.0194075 0.0011866
0.0157607 -0.0211688 0.01615
-0.00185789 -0.00340387 -0.0108036
0.00121439 0.0162709 0.00566165
0.000848887 0.00428946 -0.00754425
-0.00278504 0.0130002 -0.00766269
-0.0188869 0.0180501 -0.00126483
0.00506252 0.000782535 0.0029803
0.00285359 0.000999556 -0.00237121
-0.00765999 0.00439449 0.00232045
-0.000659803 -0.00218877 0.0021128
-0.0206032 -0.00813905 -0.00976505
-0.0153539 -0.000526484 -0.00349392
-0.0287674 -0.0042169 0.086676
0.00123358 0.0143292 0.00979581
-0.00207165 -0.00362803 0.00525042
-0.0179487 0.0111873 -0.00388841
-0.038362 0.0188126 -0.0477141
0.00575565 0.0212369 -0.0168109
-0.000488231 0.00498279 0.00480332
0.0085768 0.00159783 0.00268352
9.32112e-07 -0.00487834 -0.0199931
-0.0104216 -0.000641541 -0.00343279
-0.0109896 -0.0130849 -0.0117272
-0.00258726 0.000760683 -0.0030404
0.00732331 0.009561 0.00173789
0.000592066 -0.00762989 -0.00763879
-0.00553263 -0.00181845 -0.011238
0.00183384 -0.0147881 -0.0302587
0.00364585 0.00617442 -0.00224978
-0.000672231 0.00352317 0.00185205
-0.00043298 -0.00130468 -1.50983e-05
-0.000285476 0.000959645 0.00195253
0.00489443 -0.01002 0.00288819
0.00854666 -0.0123798 -0.0297974
0.005133 0.0155595 0.000549197
0.0011409 0.000919464 -0.00104647
0.00707026 0.00627224 0.0022364
0.117576 -0.00271118 -0.0367466
0.00341069 0.00644503 -8.98354e-08
0.00114548 -0.0124123 -0.0252196
0.000695846 0.000319205 0.000763185
0.0040423 0.00648825 -0.00271418
0.00244537 -0.0026152 -0.00526741
0.00248529 0.00761611 0.00469151
-0.00142327 -0.000293388 0.00701882
0.0107321 -0.00903685 -0.000335017
-0.00319821 0.000999461 -0.00267411
6.92893e-05 0.0244925 -0.0072344
0.0132249 0.0112591 0.00799428
0.0173189 0.00130768 -0.0397191
0.021202 -0.0108372 -0.00422793
-0.0110935 -0.0261299 -0.00997578
-0.000304918 0.000342101 -0.000596027
0.000326591 0.00809077 0.00585822
0.00680197 0.000682007 2.6138e-05
-0.0012673 0.00231321 0.00489908
0.000393401 0.000143605 -0.000269462
0.0054695 0.0241974 -0.0108199
-0.000589171 -0.000349343 0.00202125
-0.0120535 0.0121528 -0.0126403
0.0106508 0.00116594 0.000479161
0.00421477 0.00208563 0.00696942
0.00895505 0.00993961 -0.00323387
0.0533079 -0.00926571 -0.000622939
0.0056964 0.00205106 -0.00191094
-0.029471 -0.0860813 -0.00452598
0.00582432 0.00821451 0.00188154
0.00277501 0.00311077 -0.000607726
-0.000800253 -0.000538477 0.00182362
0.00616655 0.0104248 -0.00116372
-0.00142395 0.000618604 1.77888e-05
0.00613457 0.00214461 -0.0003817
-0.00291416 0.0142584 -0.00160675
-0.000226622 0.0126446 0.00538841
-0.000298662 0.00813176 -0.015331
0.0125745 0.00616221 0.00517419
0.00622923 -0.000638549 0.000968304
-0.000381053 5.48508e-06 5.85943e-05
9.77085e-05 -0.0010901 0.00089238
-0.00913451 0.00610405 0.00659332
0.000463402 0.00563808 0.00826941
0.0144863 0.0140366 -0.0405717
0.000870717 -0.0020458 0.00284748
-0.00605164 0.000618389 0.0216008
-0.00235728 0.00399392 0.00266876
-4.10865e-05 0.023982 -0.00688454
0.0052808 0.00625736 -0.00129365
-0.000932305 -0.0066777 -0.060993
0.00282939 0.000298042 -0.00175018
-2.39344e-223 -3.93839e-223 9.23294e-13
-0.00144442 0.00721589 -0.0146991
0.000872692 -0.00296011 -0.00015306
-0.0121091 0.00239459 -0.0086704
0.00535473 0.00696872 -0.000207978
-4.50242e-05 0.0115613 -5.64571e-05
-0.000952336 0.0078638 0.00478187
0.000761666 0.00384498 -0.010358
-0.00697397 -0.00146609 0.00201659
0.0279198 0.00218072 0.00926983
0.0051242 -0.000307395 -0.00724539
0.0031888 -0.0132525 0.0068179
0.0014853 0.00285011 0.00213418
0.000848864 -0.0115703 -0.0180308
-0.00133186 0.00507051 -0.00475792
-0.00113432 0.0102899 -0.00980481
0.00768081 0.00741286 -0.00190799

VECTORS force float
-8.94825e-06 1.83156e-05 5.9876e-05
6.02494e-06 -4.98247e-06 1.70865e-06
0.0 0.0 -1.43822e-06
-6.77248e-05 -2.23376e-05 5.70732e-05
2.47484e-05 3.44995e-05 -1.73478e-05
-6.04653e-10 -1.33268e-08 5.32205e-09
5.91866e-09 2.74955e-08 4.44952e-08
2.88187e-08 6.75469e-08 -4.9623e-08
-1.91382e-06 3.77197e-06 -9.61494e-07
0.0 0.0 -1.43822e-06
-2.06764e-07 7.29942e-07 1.68873e-07
1.77428e-06 3.92565e-06 2.82851e-05
0.0 0.0 -1.43822e-06
-8.99973e-22 7.17993e-21 0.0
-5.78902e-07 -4.4808e-07 -1.17187e-06
-7.86489e-06 4.92254e-06 -2.8401e-06
-2.72409e-08 -1.02982e-07 -4.64481e-08
8.84035e-06 6.11231e-06 9.46195e-06
-6.7761e-10 -3.07643e-09 1.16649e-08
1.37004e-06 -7.95676e-08 -5.0581e-07
0.0 0.0 -1.43822e-06
-1.62913e-05 1.60431e-06 3.2508e-06
4.23838e-06 1.83583e-05 4.56236e-06
2.06745e-05 7.13132e-06 1.98482e-05
-2.81127e-08 -3.2211e-08 5.11167e-08
-2.17327e-06 -1.206e-06 -3.54201e-06
-6.06873e-07 3.28154e-06 -4.4487e-06
-9.84241e-06 0.000188762 -0.000184305
-8.92948e-05 -3.12443e-05 4.32992e-05
-3.59219e-06 -1.59193e-06 5.3443e-06
1.99282e-07 -3.21878e-07 7.52762e-07
-4.55049e-08 -1.83374e-07 -1.09787e-07
2.68596e-06 7.45221e-06 -4.57707e-06
8.41074e-07 5.73719e-06 -6.33769e-06
-5.95055e-06 -1.8332e-06 -1.70174e-06
-5.60692e-06 1.11769e-06 9.64175e-06
-1.49203e-07 -6.58496e-08 5.53443e-08
7.41966e-06 1.41076e-05 4.27671e-05
8.73779e-06 1.4764e-07 -5.5738e-06
-2.66029e-07 -4.3197e-06 -9.42041e-07
-1.75088e-08 2.33527e-08 3.12119e-08
-2.20837e-05 -6.88366e-06 -5.01936e-06
1.33084e-05 1.62935e-05 -8.38859e-06
-7.7547e-08 -6.87288e-07 1.29618e-05
8.17334e-08 -4.34085e-08 -7.11643e-08
-3.01273e-07 -3.10886e-07 -3.55851e-07
0.0 0.0 -1.43822e-06
-6.39139e-06 2.08213e-06 -2.45006e-07
4.18486e-06 2.6356e-08 5.07054e-06
-5.40906e-07 -7.28682e-08 -2.06103e-08
2.05196e-08 -1.55978e-08 4.73128e-07
5.81119e-06 -3.27409e-07 6.66673e-06
0.0 0.0 -1.43822e-06
0.0 0.0 -1.43822e-06
-8.88615e-05 -1.32382e-05 9.03701e-05
-3.20917e-09 -1.40254e-08 4.31727e-09
0.0 0.0 -1.43822e-06
-7.07969e-07 -9.09206e-07 -4.6372e-08
-3.00853e-07 1.05407e-07 -1.601e-06
-2.04516e-05 -4.29823e-06 1.2406e-05
5.46782e-06 -6.60791e-06 4.17393e-06
-3.90494e-05 -5.36342e-05 -0.000145553
-1.6601e-08 -5.63906e-08 -1.40599e-07
3.09698e-05 -6.16968e-05 -1.99148e-05
-2.63914e-06 6.03129e-06 -8.17059e-06
8.6525e-06 1.66382e-05 -5.54129e-07
0.0 0.0 -1.43822e-06
1.32307e-06 3.35415e-05 -2.07627e-05
-2.9983e-09 -3.96813e-09 1.38233e-08
9.57398e-06 -3.23274e-06 2.68789e-06
1.93022e-05 5.13844e-06 -1.31215e-05
0.0 0.0 -1.43822e-06
-2.38959e-10 1.06231e-08 7.34254e-09
-3.43907e-06 1.13418e-06 -4.87197e-06
2.4143e-07 3.33205e-07 -6.89017e-07
-1.02285e-05 -7.28386e-06 3.24358e-05
-9.94108e-08 1.26151e-07 3.1386e-08
1.3757e-05 3.71293e-06 -1.76989e-05
0.0 0.0 -1.43822e-06
-1.91036e-06 4.78134e-07 -2.27545e-06
-5.28579e-10 -6.38293e-09 9.47877e-09
0.0 0.0 -1.43822e-06