# vtk DataFile Version 3.0
LIGGGHTS particles timestep 19200000
ASCII
DATASET POLYDATA
POINTS 109 float
0.0196489 0.0215569 0.00800276
0.018975 0.0188281 0.0071877
0.0208372 0.0233987 0.0113183
0.0552425 0.0189586 0.00589144
0.00938048 0.0183393 0.00587271
0.0260148 0.0196703 0.00594114
0.0385069 0.0233897 0.0113667
0.0366849 0.0218066 0.0435188
0.0435444 0.0211932 0.00776521
0.0361934 0.0157978 0.00876713
0.0338436 0.0175423 0.00617057
0.000591717 0.0149731 0.0435188
0.0412874 0.0149039 0.0126218
0.0213673 0.0238827 0.0132659
0.0270517 0.0226729 0.0135842
0.0402283 0.0182058 0.0156241
0.021478 0.0233684 0.012415
0.0312962 0.0203636 0.00742368
0.0199538 0.0226105 0.00911079
0.003617 0.0285782 0.0435188
0.0430643 0.0192643 0.00716639
0.0177449 0.0174882 0.00600758
0.0419075 0.0151263 0.00984074
0.0173034 0.0146176 0.012879
0.0187214 0.0176428 0.00741829
0.0407765 0.0160598 0.0145275
0.0415418 0.014805 0.011492
0.0421418 0.015598 0.00901133
0.033606 0.0194093 0.00581187
0.0322839 0.0232295 0.0102845
0.0260387 0.0228626 0.0094233
0.054387 0.0178804 0.00601135
0.0333556 0.0215647 0.0149359
0.0403282 0.0176062 0.0155453
0.0395746 0.0209053 0.0153479
0.0425597 0.0171209 0.00767903
0.031871 0.0224241 0.00877523
0.0392521 0.0221086 0.0143925
0.019117 0.0188794 0.0158645
0.0372409 0.019937 0.00740915
0.0206735 0.0237344 0.0122055
0.0214483 0.0168437 0.00645098
0.0278586 0.0199556 0.015725
0.0344516 0.0170267 0.0152043
0.0586827 0.0172628 0.00598816
0.0443276 0.0232468 0.0105465
0.0176586 0.0146181 0.0119442
0.043794 0.0221785 0.00849099
0.0303903 0.00406748 0.0435188
0.0298866 0.0150773 0.00990836
0.04355 0.0182115 0.00731284
0.0221802 0.0232498 0.0132477
0.04287 0.0182882 0.00733901
0.0465254 0.0191962 0.00590655
0.0325318 0.023381 0.0115954
0.0301275 0.0155131 0.00903896
0.0446309 0.0233077 0.0120131
0.0375167 0.0211033 0.00774328
0.0339553 0.0194345 0.0157924
0.0584376 0.0191695 0.00582359
0.0204913 0.0140568 0.0131545
0.0177206 0.0220702 0.0165867
0.020084 0.0201843 0.0061153
0.0417146 0.0148714 0.0105736
0.0221348 0.00230077 0.0435188
0.201805 0.0186174 0.00570934
0.0355674 0.0148485 0.0111594
0.0230082 0.022881 0.0138112
0.0801305 0.0198856 0.00588445
0.0230641 0.0152752 0.0138442
0.067984 0.0193424 0.00575613
0.0389772 0.0229249 0.0133962
0.0367746 0.0178836 0.00733427
0.0351778 0.0150562 0.0130163
0.0242519 0.0159535 0.00848143
0.0245476 0.0198163 0.00585259
0.0341616 0.0182679 0.0156588
0.0377169 0.021806 0.00818176
0.0237159 0.0157299 0.0144518
0.036805 0.0202346 0.00608327
0.026935 0.0188837 0.00598981
0.0275204 0.0211599 0.0152434
0.0423529 0.0163479 0.00816203
0.0305436 0.0170256 0.00768487
0.04061 0.016676 0.0150348
0.0221996 0.00109062 0.0435188
0.0404862 0.0171075 0.0153605
0.0308621 0.018175 0.0072713
0.0296004 0.0148061 0.0110979
0.043292 0.0203239 0.00738834
0.0557897 0.0172859 0.0059806
0.0895649 0.0187731 0.00575225
0.028676 0.0164083 0.014844
0.0282269 0.0180118 0.0156681
0.0387227 0.0232624 0.0124983
0.108836 0.0200055 0.00584234
0.016695 0.0233605 0.0125896
0.0315613 0.0212912 0.00776085
0.0291941 0.0150947 0.0128626
0.0331205 0.0226585 0.013875
0.0194684 0.0140677 0.0128581
0.0294296 0.0148233 0.0119099
0.0228057 0.0160125 0.014756
0.00937694 0.00505359 0.0435188
0.0232984 0.0220453 0.0148777
0.0265759 0.0233622 0.0117717
0.0234802 0.0147506 0.01171
0.0254808 0.018723 0.00589902
0.0358626 0.0150398 0.00993169

VERTICES 109 218
1 0
1 1
1 2
1 3
1 4
1 5
1 6
1 7
1 8
1 9
1 10
1 11
1 12
1 13
1 14
1 15
1 16
1 17
1 18
1 19
1 20
1 21
1 22
1 23
1 24
1 25
1 26
1 27
1 28
1 29
1 30
1 31
1 32
1 33
1 34
1 35
1 36
1 37
1 38
1 39
1 40
1 41
1 42
1 43
1 44
1 45
1 46
1 47
1 48
1 49
1 50
1 51
1 52
1 53
1 54
1 55
1 56
1 57
1 58
1 59
1 60
1 61
1 62
1 63
1 64
1 65
1 66
1 67
1 68
1 69
1 70
1 71
1 72
1 73
1 74
1 75
1 76
1 77
1 78
1 79
1 80
1 81
1 82
1 83
1 84
1 85
1 86
1 87
1 88
1 89
1 90
1 91
1 92
1 93
1 94
1 95
1 96
1 97
1 98
1 99
1 100
1 101
1 102
1 103
1 104
1 105
1 106
1 107
1 108

POINT_DATA 109
SCALARS id int 1
LOOKUP_TABLE default
1
2
4
5
15
16
17
18
20
24
25
27
28
32
33
37
41
44
47
49
52
57
59
62
63
65
67
68
73
74
76
79
84
87
88
89
90
92
97
103
106
108
109
112
121
122
124
125
128
130
131
133
135
137
139
141
142
143
147
149
150
157
158
160
161
165
166
167
173
174
179
185
186
187
191
193
194
197
200
205
215
225
226
227
229
232
237
241
242
247
252
253
256
257
258
260
268
269
270
271
274
275
277
284
288
291
294
299
300

SCALARS type int 1
LOOKUP_TABLE default
1
1
1
1
1
1
1
1
1
1
1
1
1
1
1
1
1
1
1
1
1
1
1
1
1
1
1
1
1
1
1
1
1
1
1
1
1
1
1
1
1
1
1
1
1
1
1
1
1
1
1
1
1
1
1
1
1
1
1
1
1
1
1
1
1
1
1
1
1
1
1
1
1
1
1
1
1
1
1
1
1
1
1
1
1
1
1
1
1
1
1
1
1
1
1
1
1
1
1
1
1
1
1
1
1
1
1
1
1

SCALARS radius float 1
LOOKUP_TABLE default
0.0005
0.0005
0.0005
0.0005
0.0005
0.0005
0.0005
0.0005
0.0005
0.0005
0.0005
0.0005
0.0005
0.0005
0.0005
0.0005
0.0005
0.0005
0.0005
0.0005
0.0005
0.0005
0.0005
0.0005
0.0005
0.0005
0.0005
0.0005
0.0005
0.0005
0.0005
0.0005
0.0005
0.0005
0.0005
0.0005
0.0005
0.0005
0.0005
0.0005
0.0005
0.0005
0.0005
0.0005
0.0005
0.0005
0.0005
0.0005
0.0005
0.0005
0.0005
0.0005
0.0005
0.0005
0.0005
0.0005
0.0005
0.0005
0.0005
0.0005
0.0005
0.0005
0.0005
0.0005
0.0005
0.0005
0.0005
0.0005
0.0005
0.0005
0.0005
0.0005
0.0005
0.0005
0.0005
0.0005
0.0005
0.0005
0.0005
0.0005
0.0005
0.0005
0.0005
0.0005
0.0005
0.0005
0.0005
0.0005
0.0005
0.0005
0.0005
0.0005
0.0005
0.0005
0.0005
0.0005
0.0005
0.0005
0.0005
0.0005
0.0005
0.0005
0.0005
0.0005
0.0005
0.0005
0.0005
0.0005
0.0005

SCALARS mass float 1
LOOKUP_TABLE default
1.46608e-07
1.46608e-07
1.46608e-07
1.46608e-07
1.46608e-07
1.46608e-07
1.46608e-07
1.46608e-07
1.46608e-07
1.46608e-07
1.46608e-07
1.46608e-07
1.46608e-07
1.46608e-07
1.46608e-07
1.46608e-07
1.46608e-07
1.46608e-07
1.46608e-07
1.46608e-07
1.46608e-07
1.46608e-07
1.46608e-07
1.46608e-07
1.46608e-07
1.46608e-07
1.46608e-07
1.46608e-07
1.46608e-07
1.46608e-07
1.46608e-07
1.46608e-07
1.46608e-07
1.46608e-07
1.46608e-07
1.46608e-07
1.46608e-07
1.46608e-07
1.46608e-07
1.46608e-07
1.46608e-07
1.46608e-07
1.46608e-07
1.46608e-07
1.46608e-07
1.46608e-07
1.46608e-07
1.46608e-07
1.46608e-07
1.46608e-07
1.46608e-07
1.46608e-07
1.46608e-07
1.46608e-07
1.46608e-07
1.46608e-07
1.46608e-07
1.46608e-07
1.46608e-07
1.46608e-07
1.46608e-07
1.46608e-07
1.46608e-07
1.46608e-07
1.46608e-07
1.46608e-07
1.46608e-07
1.46608e-07
1.46608e-07
1.46608e-07
1.46608e-07
1.46608e-07
1.46608e-07
1.46608e-07
1.46608e-07
1.46608e-07
1.46608e-07
1.46608e-07
1.46608e-07
1.46608e-07
1.46608e-07
1.46608e-07
1.46608e-07
1.46608e-07
1.46608e-07
1.46608e-07
1.46608e-07
1.46608e-07
1.46608e-07
1.46608e-07
1.46608e-07
1.46608e-07
1.46608e-07
1.46608e-07
1.46608e-07
1.46608e-07
1.46608e-07
1.46608e-07
1.46608e-07
1.46608e-07
1.46608e-07
1.46608e-07
1.46608e-07
1.46608e-07
1.46608e-07
1.46608e-07
1.46608e-07
1.46608e-07
1.46608e-07

VECTORS velocity float
0.00151807 -0.0033283 -0.00182102
0.000362706 -0.0203857 -0.000123492
1.87012e-05 0.000130903 -0.00941118
-9.84596e-15 -1.33743e-14 -1.90504e-13
3.64414e-15 5.49166e-16 -3.69009e-14
1.76459e-14 2.83623e-15 -2.87664e-13
0.000116839 0.00037545 -0.022217
-9.6879e-317 9.73506e-317 2.68131e-13
0.000258605 -0.018654 -0.0114903
-0.000553171 -0.0140701 0.0183995
-2.42101e-16 -1.89481e-15 -5.62742e-15
9.71467e-317 9.75789e-317 -8.23806e-13
0.000652096 0.00352451 0.0221973
-0.00583887 0.000201658 -0.00658108
-0.0460583 0.200089 0.0975683
0.00276919 0.0147672 0.00157694
0.00150544 -0.000464257 -0.001334
0.000296021 -0.0194795 -0.00567972
0.000127184 -0.0116773 -0.018279
-9.68849e-317 -9.75601e-317 2.88878e-12
0.000966284 -0.0147189 -0.000837701
2.62497e-15 1.02229e-14 2.12833e-14
0.00059722 -0.00788269 0.016856
0.00425977 -0.0055481 0.00325853
0.000586024 -0.0183923 0.00680947
0.00248494 0.00428533 0.00415062
0.000135289 -0.000143667 0.021183
0.000188924 -0.012559 0.0172365
-7.10328e-15 -4.06723e-14 1.57633e-13
0.000369942 -0.00577288 -0.0195614
0.00144655 -0.00604283 -0.0130156
-1.2996e-14 -1.76723e-14 -2.51655e-13
0.000135036 0.0189529 -0.0121452
0.00262068 0.0102236 0.0049483
0.00132494 0.015347 -0.00845482
0.000222353 -0.0194906 0.00904403
0.000501842 -0.0126779 -0.0150216
0.657729 0.234423 -0.0441848
6.17716e-07 0.0226667 0.000889338
0.000324429 -0.0207312 -0.00443024
0.00315503 -0.00413465 -0.0062152
-2.40558e-14 5.0873e-14 1.84314e-13
0.000431456 0.0193127 -0.00411065
0.000916353 0.0149725 0.00642078
1.03888e-14 -2.15386e-14 -2.64999e-13
0.000552987 -0.00530765 -0.0187135
0.00106882 -0.00123338 0.00204826
0.00143623 -0.0118499 -0.0110488
-9.67556e-317 -9.75879e-317 -3.22607e-12
0.000322587 -0.0077872 0.0195125
0.00331586 -0.000912503 0.0229214
-0.00718243 0.0101537 0.0264656
0.203561 -0.362012 -0.687967
2.39136e-15 1.33719e-14 9.20546e-14
0.00156516 0.00109305 -0.0184188
0.00100375 -0.00955405 0.0135604
2.43776e-05 0.00393117 -0.0223285
0.00185199 -0.0145278 -0.00679908
0.00207546 0.0100153 -0.00022005
8.03145e-15 -1.68802e-14 -2.07264e-13
-0.00064362 -0.000674751 0.00123912
0.0246839 -0.12176 0.0456477
5.51828e-15 -2.46603e-15 5.04902e-14
0.00112283 -0.00417934 0.0195908
9.74157e-317 -9.69799e-317 9.23294e-13
-3.8561e-20 -4.95312e-22 -1.30474e-21
0.000667371 -2.61828e-05 0.0188787
0.0192846 -0.0124023 0.0157977
-9.52815e-15 -2.67153e-14 1.14756e-13
0.00433559 0.00348955 0.00531057
3.91154e-15 7.52357e-15 2.61625e-13
0.000726968 0.0133489 -0.0178596
0.000825277 -0.0176185 0.00329349
0.000634318 0.00769991 0.0185944
0.000448132 -0.0138139 0.0149376
2.60801e-15 4.25467e-16 -4.25291e-14
0.000211018 0.0215603 0.00511508
0.00155615 -0.0133597 -0.0107125
0.00671869 0.0050212 0.00569309
2.89026e-15 -9.79032e-15 4.51461e-14
1.43031e-14 2.30439e-15 -2.33189e-13
0.00202222 0.0118879 -0.006368
0.00187683 -0.0120917 0.010698
0.000301616 -0.0111433 0.00570332
0.00310617 0.00999161 0.00684184
9.58743e-317 9.68145e-317 4.97437e-14
0.0035642 0.0125775 0.00551367
0.000680921 -0.0190499 0.00412397
0.0011981 -0.00153091 0.0104378
0.00193794 -0.0197846 -0.00496926
9.82532e-15 1.33315e-14 1.8999e-13
-1.30913e-14 1.89875e-14 2.53774e-13
0.000383578 0.0162611 0.0122317
0.000740758 0.0195337 0.00706815
0.000508416 0.00388923 -0.0190694
7.52614e-16 -1.26235e-15 -6.97782e-15
0.00194096 0.00093745 -0.00110575
0.00160959 -0.00864328 -0.00627236
0.000133815 0.00672428 0.0208645
0.000582988 0.0108925 -0.0168053
-0.00603313 0.00418131 -0.00694214
0.000244358 0.00283686 0.017991
0.00389631 0.00479082 0.00237119
-9.68799e-317 -9.69932e-317 9.23294e-13
0.0282606 -0.0889192 0.0923576
0.000275481 0.00153946 -0.0212271
0.000922494 0.000203377 0.0199325
-2.07721e-14 -3.3989e-15 3.38791e-13
0.00419617 -0.00195636 0.00538596

VECTORS force float
1.95847e-08 2.91253e-09 -1.9387e-09
-4.38144e-09 8.45011e-08 -1.57911e-08
-2.89218e-06 3.06408e-06 -5.88817e-06
1.05085e-20 -1.10908e-20 4.23516e-22
1.6676e-21 1.62194e-20 4.23516e-22
8.86738e-22 -4.24344e-21 0.0
-4.3769e-10 -1.10434e-08 -5.34054e-09
0.0 0.0 0.0
1.10873e-06 -1.54368e-07 2.53811e-07
-2.4616e-08 -4.4112e-08 3.41209e-08
-4.31457e-20 -4.07635e-21 2.11758e-22
0.0 0.0 0.0
1.12293e-05 -1.83205e-05 -1.50292e-05
-1.2633e-07 -3.9964e-07 -8.7499e-07
0.0407597 -0.18791 -0.110596
1.05722e-07 -4.99031e-07 -1.84709e-07
-1.63183e-05 1.90451e-05 8.51968e-05
-1.51951e-09 -9.87538e-09 8.07656e-09
-1.22398e-09 -1.18543e-08 1.8587e-09
0.0 0.0 0.0
-4.20347e-09 -5.90505e-08 2.67446e-08
-3.62636e-21 2.43522e-21 -6.35275e-22
-1.38781e-08 -2.8566e-10 4.08564e-08
6.21372e-10 -5.39717e-08 1.44324e-08
-4.24524e-09 -3.71777e-09 1.3692e-08
1.98939e-08 -1.80829e-07 -1.727e-07
-1.56777e-09 1.03149e-08 5.21208e-09
-8.50499e-10 4.4143e-09 1.13568e-08
2.89579e-20 -6.67038e-21 -2.11758e-22
-1.44048e-09 -1.28326e-08 -5.32539e-09
1.50234e-08 2.01515e-08 5.28157e-08
-1.64113e-21 2.10435e-21 0.0
5.43723e-10 -3.57193e-09 -1.18182e-08
-4.25759e-07 -1.91837e-06 1.35867e-07
-4.63512e-09 8.22765e-09 -1.63575e-08
-1.22647e-09 -2.30982e-09 1.57879e-08
-3.57729e-09 -1.56397e-08 -3.20663e-09
0.0281605 -0.023027 -0.0150821
3.8166e-13 6.81443e-10 -1.72461e-08
-3.04e-09 -7.48079e-09 9.80238e-09
-1.62501e-05 -3.07998e-05 -8.90005e-05
-3.36087e-19 -4.24046e-20 -3.07049e-20
1.03002e-09 -7.33414e-09 -1.21852e-08
-3.19523e-09 5.36487e-08 -3.40412e-09
6.50495e-21 -7.54389e-22 4.23516e-22
-2.93831e-09 -1.30486e-08 -7.29093e-09
1.44926e-09 -1.17493e-08 1.95136e-08
-1.19862e-08 -3.76481e-08 -2.77578e-08
0.0 0.0 0.0
-2.61099e-09 7.13713e-09 9.85594e-09
0.00839993 0.00522181 0.0175659
0.0 0.0 -1.43822e-06
-0.0997165 0.267803 0.576184
-1.14548e-20 -2.09111e-21 4.23516e-22
-8.04302e-08 -6.32542e-08 -1.81591e-07
4.13917e-09 1.01119e-08 -3.4194e-10
-1.16864e-09 -9.97209e-09 -5.22705e-09
-1.23987e-08 -4.72239e-08 -1.11317e-08
-9.73807e-11 -3.25591e-08 5.39517e-09
1.18512e-19 4.91941e-20 8.47033e-22
-1.06207e-08 -1.20271e-08 2.24784e-08
0.0 0.0 -1.43822e-06
8.60268e-21 -6.61744e-23 -8.47033e-22
-2.06858e-08 -5.6894e-09 4.46644e-09
0.0 0.0 0.0
0.0 0.0 0.0
-1.04856e-08 1.24305e-08 1.3947e-07
0.0 0.0 -1.43822e-06
5.29396e-23 0.0 0.0
-1.43546e-07 -4.54239e-07 -6.16663e-07
2.77933e-21 -1.38305e-21 0.0
1.57811e-09 -1.25079e-08 -5.66487e-10
-5.57067e-09 -3.473e-09 3.39206e-08
-4.15091e-09 1.42063e-08 5.80064e-09
-3.90029e-08 -1.7458e-07 2.114e-07
-4.12929e-21 3.80222e-20 2.11758e-22
-5.54319e-10 5.81164e-09 -1.09044e-08
-1.87482e-08 -5.02208e-08 -3.10564e-08
-4.61541e-07 -6.27296e-07 3.31842e-07
4.25541e-19 8.92032e-20 -4.44692e-21
1.85288e-22 1.85619e-21 2.11758e-22
-4.95681e-09 3.42295e-11 -4.71081e-09
-1.78547e-08 -4.34895e-08 4.24512e-08
-3.15485e-12 7.64933e-09 -6.95158e-09
2.64864e-07 -7.66874e-07 -6.88046e-07
0.0 0.0 0.0
-5.22899e-07 7.71555e-07 3.02399e-07
-4.49167e-09 -1.32637e-08 1.46562e-08
-4.84546e-09 -6.55355e-09 -2.58562e-08
-1.13363e-06 -3.98942e-07 1.01987e-06
1.74965e-20 -1.42672e-20 2.11758e-22
-5.76909e-20 -3.38548e-20 2.11758e-22
1.50732e-07 -1.25035e-06 -8.20331e-07
-2.04919e-08 -6.41649e-08 -2.02144e-08
-4.57554e-09 -6.2713e-09 -1.67888e-08
-1.00585e-21 -5.29396e-23 -2.11758e-22
-3.81638e-09 6.39812e-09 -1.45225e-08
1.27499e-08 1.81551e-08 -5.79461e-08
-1.47755e-09 1.17811e-08 -1.16992e-10
-4.13086e-09 -7.00933e-10 -1.63721e-08
-9.46095e-08 9.06638e-08 -1.50525e-07
1.38233e-09 1.31379e-08 4.99778e-09
0.0 0.0 -1.43822e-06
0.0 0.0 0.0
0.0 0.0 -1.43822e-06
-1.30483e-09 -9.22584e-09 -7.89039e-09
-1.29534e-08 -2.58838e-08 -7.35546e-08
1.28775e-20 -1.29536e-21 6.35275e-22
-2.53865e-07 -1.19971e-06 3.15318e-06
