# vtk DataFile Version 3.0
LIGGGHTS particles timestep 5200000
ASCII
DATASET POLYDATA
POINTS 230 float
0.0173689 0.0233327 0.0126903
0.0193851 0.0231564 0.0132214
0.0192662 0.0241627 0.0143689
0.0149906 0.0224283 0.0172994
0.0263295 0.0149205 0.0103521
0.0225315 0.0227151 0.00931184
0.0184677 0.0241417 0.0165747
0.0201951 0.0206775 0.0159478
0.0187987 0.0243858 0.0134983
0.00938048 0.0183393 0.00587271
0.0138022 0.0211075 0.0154371
0.0189579 0.0137986 0.0138554
0.0366849 0.0218066 0.0435188
0.0207701 0.015977 0.00846508
0.0286795 0.0230114 0.00972281
0.017848 0.0243297 0.0135129
0.0251966 0.0217476 0.01669
0.0166707 0.0237285 0.0150701
0.0175584 0.0241594 0.0170262
0.018563 0.0217344 0.0150408
0.0265812 0.0154612 0.00915123
0.0180908 0.0148944 0.0147677
0.0184168 0.0140005 0.0130391
0.0197183 0.0244831 0.0135475
0.0172251 0.015251 0.0151211
0.0193956 0.0231132 0.014586
0.0180548 0.0143528 0.013902
0.01547 0.0212208 0.0171399
0.0220157 0.0211781 0.00789156
0.0245397 0.0194024 0.0159311
0.021483 0.0239284 0.0134351
0.0203594 0.0227223 0.0153451
0.0186167 0.0234234 0.0114078
0.0184428 0.02393 0.0142026
0.0142137 0.0158771 0.0146276
0.0180824 0.0213094 0.0166577
0.0187646 0.0236941 0.0151193
0.0216255 0.0240512 0.0144023
0.0158862 0.0231207 0.016892
0.0247195 0.0160468 0.0158509
0.017434 0.01467 0.0159077
0.013474 0.0196993 0.0159047
0.0203214 0.0239944 0.0118718
0.0270872 0.0169219 0.0077374
0.0207115 0.0241502 0.0142016
0.0162015 0.0205296 0.0165397
0.0243672 0.0223563 0.0161602
0.0256383 0.0204969 0.0156661
0.0267875 0.0160367 0.0084054
0.0274033 0.0186262 0.00720785
0.0214784 0.0148099 0.0142573
0.0240459 0.0154325 0.015348
0.0171735 0.0146083 0.0142993
0.0205574 0.0241249 0.0132213
0.0209286 0.0235459 0.0156258
0.0204398 0.0153575 0.0139803
0.0210964 0.0218101 0.0160326
0.0248162 0.0207398 0.0156286
0.0124751 0.019744 0.0158997
0.0183636 0.0203643 0.0168442
0.0195156 0.0139659 0.0130271
0.0142359 0.0205269 0.0163305
0.0205486 0.0154197 0.0092126
0.0248196 0.0181315 0.0158524
0.0276773 0.0196428 0.00720945
0.028177 0.0217342 0.0081203
0.0167692 0.0197049 0.0167166
0.0234437 0.0229149 0.0141074
0.0246118 0.02151 0.015116
0.016356 0.0186163 0.0167278
0.0182462 0.014243 0.0155102
0.0173228 0.0241215 0.0143381
0.0157733 0.0196161 0.0167009
0.0219312 0.0231717 0.0147654
0.0223925 0.0236613 0.0140185
0.0217333 0.0200677 0.0166645
0.0249526 0.0216028 0.0158744
0.0212321 0.0188683 0.0167564
0.0179942 0.0234969 0.0135957
0.0203993 0.0187271 0.00600944
0.0231892 0.0159154 0.0168102
0.0163032 0.0143467 0.0137944
0.0158251 0.0222765 0.0156685
0.0234482 0.0174799 0.0165285
0.0193737 0.0187798 0.0328272
0.0170647 0.0210136 0.0168993
0.0186487 0.0228295 0.0139685
0.0166467 0.0223129 0.0172559
0.0190469 0.0230046 0.0171977
0.0551067 0.0178697 0.00597491
0.029321 0.023255 0.0125989
0.019376 0.0246281 0.0174519
0.0288605 0.0233342 0.0107723
0.020609 0.0239913 0.0165376
0.0198364 0.0180606 0.015852
0.0303903 0.00406748 0.0435188
0.0199809 0.0181876 0.0168346
0.0197662 0.0215679 0.0157942
0.0154867 0.0146923 0.0142612
0.0254 0.0174009 0.0162126
0.0215555 0.0151072 0.0152278
0.0212358 0.0194745 0.0177524
0.0284324 0.0225184 0.00886356
0.0183896 0.0155485 0.0154629
0.0144252 0.0195569 0.0161784
0.0151869 0.0231166 0.0155697
0.0250028 0.0186185 0.0167063
0.0296223 0.0225332 0.0140075
0.0227765 0.0163204 0.0159944
0.0193635 0.0199952 0.0158437
0.0200097 0.0146124 0.0119956
0.019507 0.0238904 0.0167262
0.0203678 0.0141152 0.0143201
0.0203877 0.0196953 0.0160077
0.0209533 0.0146763 0.0123571
0.0228365 0.0223785 0.00892973
0.0173936 0.0237191 0.0158714
0.0199755 0.0170746 0.0157676
0.0191763 0.0236939 0.0122009
0.018995 0.0218986 0.0164959
0.016586 0.0228715 0.016028
0.0169339 0.0239699 0.0134159
0.0181942 0.0237261 0.0176739
0.0255787 0.0195326 0.0159248
0.0218469 0.0201773 0.00736837
0.0185827 0.0227166 0.0152287
0.0194466 0.0145878 0.0142272
0.0166343 0.0238175 0.0167157
0.0176587 0.0224386 0.015512
0.0127682 0.0201784 0.0167514
0.0226588 0.023024 0.00983051
0.0152925 0.0214016 0.016172
0.0234431 0.0224212 0.014438
0.0186394 0.019025 0.0170896
0.0208482 0.0150481 0.00983722
0.0195128 0.023058 0.0160343
0.0225036 0.0154204 0.0152914
0.0346928 -0.0171881 0.0392055
0.0198182 0.019231 0.0170872
0.0172046 0.0141545 0.0134063
0.0238387 0.021834 0.0148731
0.0233706 0.0149567 0.0147846
0.0187741 0.0208952 0.0155427
0.0213579 0.0178849 0.0166257
0.0257081 0.0204528 0.0166652
0.0208243 0.0145392 0.013551
0.0240404 0.0212891 0.0155734
0.0206074 0.0186883 0.0159471
0.0163333 0.0149235 0.0147405
0.0134259 0.0219857 0.0163488
0.0208795 0.0174364 0.0158708
0.0232142 0.0212584 0.0163023
0.0212806 0.0228857 0.0179362
0.0222063 0.0191875 0.0167623
0.0233366 0.022904 0.00943835
0.0160148 0.0238665 0.0177254
0.0216574 0.0149467 0.0132033
0.0232286 0.0232494 0.0136846
0.0209009 0.0232606 0.0146232
0.0216563 0.0210456 0.0164028
0.0177048 0.0181364 0.0170381
0.0187032 0.0186488 0.016047
0.0173304 0.0160646 0.0158261
0.016165 0.0236872 0.0140488
0.0189048 0.0177173 0.0157439
0.0279752 0.0208666 0.0075934
0.0138568 0.0220701 0.015172
0.0143006 0.0215191 0.0162185
0.0257633 0.0185075 0.015911
0.0162596 0.0156466 0.0154675
0.0243246 0.0223068 0.0153015
0.0222866 0.00166856 0.0435188
0.0196282 0.0190325 0.0159733
0.0177104 0.0193726 0.0167783
0.0251559 0.0163817 0.0149009
0.0133568 0.0183128 0.0160243
0.020087 0.0220789 0.016915
0.022382 0.0217937 0.0159825
0.0150173 0.0152294 0.014962
0.0132702 0.0210163 0.0165379
0.0279479 0.0180611 0.00732969
0.0129938 0.020573 0.0156854
0.0223155 0.0181731 0.0166898
0.0230653 0.0201622 0.0166475
0.016096 0.0229667 0.014994
0.0171608 0.0243765 0.0179198
0.0143706 0.0229247 0.0150268
0.0194748 0.0155857 0.014285
0.0174653 0.0229676 0.0134046
0.0177089 0.02342 0.0114079
0.0198232 0.0149103 0.0131425
0.0233602 0.0231901 0.0101961
-0.00425552 0.0570204 0.058423
0.0239046 0.0224186 0.0144361
0.0213808 0.0226076 0.0154041
0.0152036 0.0204277 0.0165623
0.0221144 0.0222246 0.0176008
0.0147962 0.0153652 0.0139963
0.0199733 0.0237225 0.0151365
0.0194771 0.0222751 0.0151479
0.0183089 0.0222552 0.0172031
0.0163116 0.021508 0.0161581
0.0157173 0.0221618 0.0166646
0.0207913 0.0201479 0.0170283
0.0152371 0.0185569 0.0167181
0.0228844 0.0237299 0.014922
0.0211446 0.017199 0.00760834
0.0177307 0.0224862 0.0142905
0.017127 0.0234291 0.0119052
0.0148635 0.0223378 0.0161069
0.019951 0.0236507 0.0139501
0.0206781 0.0211948 0.0170126
0.0184949 0.019618 0.0161886
0.0178772 0.0233369 0.0146276
0.024264 0.0204074 0.0161537
0.0183835 0.0229506 0.0163566
0.0204588 0.0148704 0.0106839
0.00937694 0.00505359 0.0435188
0.0213074 0.0157692 0.0145207
0.00903658 0.0193784 0.0283249
0.0190945 0.0167708 0.0154675
0.0140546 0.0211786 0.0171366
0.0228393 0.0233132 0.0107214
0.0193293 0.0207669 0.0166064
0.0173319 0.0216796 0.0160999
0.0224506 0.01472 0.0144727
0.0215118 0.0189744 0.00718729
0.0152904 0.0233541 0.014607
0.024947 0.0190645 0.00586966
0.0181858 0.0236065 0.0122554

VERTICES 230 460
1 0
1 1
1 2
1 3
1 4
1 5
1 6
1 7
1 8
1 9
1 10
1 11
1 12
1 13
1 14
1 15
1 16
1 17
1 18
1 19
1 20
1 21
1 22
1 23
1 24
1 25
1 26
1 27
1 28
1 29
1 30
1 31
1 32
1 33
1 34
1 35
1 36
1 37
1 38
1 39
1 40
1 41
1 42
1 43
1 44
1 45
1 46
1 47
1 48
1 49
1 50
1 51
1 52
1 53
1 54
1 55
1 56
1 57
1 58
1 59
1 60
1 61
1 62
1 63
1 64
1 65
1 66
1 67
1 68
1 69
1 70
1 71
1 72
1 73
1 74
1 75
1 76
1 77
1 78
1 79
1 80
1 81
1 82
1 83
1 84
1 85
1 86
1 87
1 88
1 89
1 90
1 91
1 92
1 93
1 94
1 95
1 96
1 97
1 98
1 99
1 100
1 101
1 102
1 103
1 104
1 105
1 106
1 107
1 108
1 109
1 110
1 111
1 112
1 113
1 114
1 115
1 116
1 117
1 118
1 119
1 120
1 121
1 122
1 123
1 124
1 125
1 126
1 127
1 128
1 129
1 130
1 131
1 132
1 133
1 134
1 135
1 136
1 137
1 138
1 139
1 140
1 141
1 142
1 143
1 144
1 145
1 146
1 147
1 148
1 149
1 150
1 151
1 152
1 153
1 154
1 155
1 156
1 157
1 158
1 159
1 160
1 161
1 162
1 163
1 164
1 165
1 166
1 167
1 168
1 169
1 170
1 171
1 172
1 173
1 174
1 175
1 176
1 177
1 178
1 179
1 180
1 181
1 182
1 183
1 184
1 185
1 186
1 187
1 188
1 189
1 190
1 191
1 192
1 193
1 194
1 195
1 196
1 197
1 198
1 199
1 200
1 201
1 202
1 203
1 204
1 205
1 206
1 207
1 208
1 209
1 210
1 211
1 212
1 213
1 214
1 215
1 216
1 217
1 218
1 219
1 220
1 221
1 222
1 223
1 224
1 225
1 226
1 227
1 228
1 229

POINT_DATA 230
SCALARS id int 1
LOOKUP_TABLE default
1
2
3
4
5
7
9
11
13
15
16
17
18
19
20
23
24
25
26
27
28
29
30
31
32
33
34
35
36
37
40
41
43
44
45
47
49
50
51
52
53
54
57
59
62
63
64
65
67
68
69
71
73
74
75
76
78
79
80
83
84
85
86
87
88
89
90
91
92
93
95
97
98
99
102
103
104
105
106
108
109
110
111
112
113
114
116
117
118
121
122
124
125
126
127
128
129
130
131
132
133
134
135
137
138
139
141
142
143
144
145
146
147
148
149
150
151
152
153
154
155
157
158
160
161
163
164
165
166
167
170
171
173
174
175
177
179
181
183
184
185
186
187
191
192
193
194
197
199
200
201
203
205
206
208
211
214
215
217
218
220
221
223
224
225
226
227
228
229
230
231
232
234
235
237
239
240
241
242
246
247
248
249
250
251
252
253
254
255
256
257
258
259
260
261
262
263
264
265
266
267
268
269
270
271
272
273
274
275
276
277
278
279
280
281
282
283
284
285
286
288
289
291
293
294
295
296
298
299
300

SCALARS type int 1
LOOKUP_TABLE default
1
1
1
1
1
1
1
1
1
1
1
1
1
1
1
1
1
1
1
1
1
1
1
1
1
1
1
1
1
1
1
1
1
1
1
1
1
1
1
1
1
1
1
1
1
1
1
1
1
1
1
1
1
1
1
1
1
1
1
1
1
1
1
1
1
1
1
1
1
1
1
1
1
1
1
1
1
1
1
1
1
1
1
1
1
1
1
1
1
1
1
1
1
1
1
1
1
1
1
1
1
1
1
1
1
1
1
1
1
1
1
1
1
1
1
1
1
1
1
1
1
1
1
1
1
1
1
1
1
1
1
1
1
1
1
1
1
1
1
1
1
1
1
1
1
1
1
1
1
1
1
1
1
1
1
1
1
1
1
1
1
1
1
1
1
1
1
1
1
1
1
1
1
1
1
1
1
1
1
1
1
1
1
1
1
1
1
1
1
1
1
1
1
1
1
1
1
1
1
1
1
1
1
1
1
1
1
1
1
1
1
1
1
1
1
1
1
1
1
1
1
1
1
1
1
1
1
1
1
1

SCALARS radius float 1
LOOKUP_TABLE default
0.0005
0.0005
0.0005
0.0005
0.0005
0.0005
0.0005
0.0005
0.0005
0.0005
0.0005
0.0005
0.0005
0.0005
0.0005
0.0005
0.0005
0.0005
0.0005
0.0005
0.0005
0.0005
0.0005
0.0005
0.0005
0.0005
0.0005
0.0005
0.0005
0.0005
0.0005
0.0005
0.0005
0.0005
0.0005
0.0005
0.0005
0.0005
0.0005
0.0005
0.0005
0.0005
0.0005
0.0005
0.0005
0.0005
0.0005
0.0005
0.0005
0.0005
0.0005
0.0005
0.0005
0.0005
0.0005
0.0005
0.0005
0.0005
0.0005
0.0005
0.0005
0.0005
0.0005
0.0005
0.0005
0.0005
0.0005
0.0005
0.0005
0.0005
0.0005
0.0005
0.0005
0.0005
0.0005
0.0005
0.0005
0.0005
0.0005
0.0005
0.0005
0.0005
0.0005
0.0005
0.0005
0.0005
0.0005
0.0005
0.0005
0.0005
0.0005
0.0005
0.0005
0.0005
0.0005
0.0005
0.0005
0.0005
0.0005
0.0005
0.0005
0.0005
0.0005
0.0005
0.0005
0.0005
0.0005
0.0005
0.0005
0.0005
0.0005
0.0005
0.0005
0.0005
0.0005
0.0005
0.0005
0.0005
0.0005
0.0005
0.0005
0.0005
0.0005
0.0005
0.0005
0.0005
0.0005
0.0005
0.0005
0.0005
0.0005
0.0005
0.0005
0.0005
0.0005
0.0005
0.0005
0.0005
0.0005
0.0005
0.0005
0.0005
0.0005
0.0005
0.0005
0.0005
0.0005
0.0005
0.0005
0.0005
0.0005
0.0005
0.0005
0.0005
0.0005
0.0005
0.0005
0.0005
0.0005
0.0005
0.0005
0.0005
0.0005
0.0005
0.0005
0.0005
0.0005
0.0005
0.0005
0.0005
0.0005
0.0005
0.0005
0.0005
0.0005
0.0005
0.0005
0.0005
0.0005
0.0005
0.0005
0.0005
0.0005
0.0005
0.0005
0.0005
0.0005
0.0005
0.0005
0.0005
0.0005
0.0005
0.0005
0.0005
0.0005
0.0005
0.0005
0.0005
0.0005
0.0005
0.0005
0.0005
0.0005
0.0005
0.0005
0.0005
0.0005
0.0005
0.0005
0.0005
0.0005
0.0005
0.0005
0.0005
0.0005
0.0005
0.0005
0.0005
0.0005
0.0005
0.0005
0.0005
0.0005
0.0005
0.0005
0.0005
0.0005
0.0005
0.0005
0.0005

SCALARS mass float 1
LOOKUP_TABLE default
1.46608e-07
1.46608e-07
1.46608e-07
1.46608e-07
1.46608e-07
1.46608e-07
1.46608e-07
1.46608e-07
1.46608e-07
1.46608e-07
1.46608e-07
1.46608e-07
1.46608e-07
1.46608e-07
1.46608e-07
1.46608e-07
1.46608e-07
1.46608e-07
1.46608e-07
1.46608e-07
1.46608e-07
1.46608e-07
1.46608e-07
1.46608e-07
1.46608e-07
1.46608e-07
1.46608e-07
1.46608e-07
1.46608e-07
1.46608e-07
1.46608e-07
1.46608e-07
1.46608e-07
1.46608e-07
1.46608e-07
1.46608e-07
1.46608e-07
1.46608e-07
1.46608e-07
1.46608e-07
1.46608e-07
1.46608e-07
1.46608e-07
1.46608e-07
1.46608e-07
1.46608e-07
1.46608e-07
1.46608e-07
1.46608e-07
1.46608e-07
1.46608e-07
1.46608e-07
1.46608e-07
1.46608e-07
1.46608e-07
1.46608e-07
1.46608e-07
1.46608e-07
1.46608e-07
1.46608e-07
1.46608e-07
1.46608e-07
1.46608e-07
1.46608e-07
1.46608e-07
1.46608e-07
1.46608e-07
1.46608e-07
1.46608e-07
1.46608e-07
1.46608e-07
1.46608e-07
1.46608e-07
1.46608e-07
1.46608e-07
1.46608e-07
1.46608e-07
1.46608e-07
1.46608e-07
1.46608e-07
1.46608e-07
1.46608e-07
1.46608e-07
1.46608e-07
1.46608e-07
1.46608e-07
1.46608e-07
1.46608e-07
1.46608e-07
1.46608e-07
1.46608e-07
1.46608e-07
1.46608e-07
1.46608e-07
1.46608e-07
1.46608e-07
1.46608e-07
1.46608e-07
1.46608e-07
1.46608e-07
1.46608e-07
1.46608e-07
1.46608e-07
1.46608e-07
1.46608e-07
1.46608e-07
1.46608e-07
1.46608e-07
1.46608e-07
1.46608e-07
1.46608e-07
1.46608e-07
1.46608e-07
1.46608e-07
1.46608e-07
1.46608e-07
1.46608e-07
1.46608e-07
1.46608e-07
1.46608e-07
1.46608e-07
1.46608e-07
1.46608e-07
1.46608e-07
1.46608e-07
1.46608e-07
1.46608e-07
1.46608e-07
1.46608e-07
1.46608e-07
1.46608e-07
1.46608e-07
1.46608e-07
1.46608e-07
1.46608e-07
1.46608e-07
1.46608e-07
1.46608e-07
1.46608e-07
1.46608e-07
1.46608e-07
1.46608e-07
1.46608e-07
1.46608e-07
1.46608e-07
1.46608e-07
1.46608e-07
1.46608e-07
1.46608e-07
1.46608e-07
1.46608e-07
1.46608e-07
1.46608e-07
1.46608e-07
1.46608e-07
1.46608e-07
1.46608e-07
1.46608e-07
1.46608e-07
1.46608e-07
1.46608e-07
1.46608e-07
1.46608e-07
1.46608e-07
1.46608e-07
1.46608e-07
1.46608e-07
1.46608e-07
1.46608e-07
1.46608e-07
1.46608e-07
1.46608e-07
1.46608e-07
1.46608e-07
1.46608e-07
1.46608e-07
1.46608e-07
1.46608e-07
1.46608e-07
1.46608e-07
1.46608e-07
1.46608e-07
1.46608e-07
1.46608e-07
1.46608e-07
1.46608e-07
1.46608e-07
1.46608e-07
1.46608e-07
1.46608e-07
1.46608e-07
1.46608e-07
1.46608e-07
1.46608e-07
1.46608e-07
1.46608e-07
1.46608e-07
1.46608e-07
1.46608e-07
1.46608e-07
1.46608e-07
1.46608e-07
1.46608e-07
1.46608e-07
1.46608e-07
1.46608e-07
1.46608e-07
1.46608e-07
1.46608e-07
1.46608e-07
1.46608e-07
1.46608e-07
1.46608e-07
1.46608e-07
1.46608e-07
1.46608e-07
1.46608e-07
1.46608e-07
1.46608e-07
1.46608e-07
1.46608e-07
1.46608e-07
1.46608e-07
1.46608e-07
1.46608e-07
1.46608e-07
1.46608e-07
1.46608e-07
1.46608e-07
1.46608e-07

VECTORS velocity float
0.00295225 0.00374428 -0.00980329
0.00332801 0.00361386 -0.00591051
-0.0026211 -0.00303979 0.00319247
0.00203443 -0.00263237 -0.0107561
0.0011792 -0.00640634 0.0176461
0.00100029 -0.00520556 -0.0103521
0.0225037 0.00736706 0.015997
0.00104689 0.0237914 0.00861076
-0.00276786 -0.00248826 0.00325371
3.64652e-15 5.3932e-16 -3.69008e-14
0.00164242 0.00891531 -0.00486343
0.00786429 -0.00512606 -0.0034453
-5.38745e-173 1.77806e-173 2.68131e-13
0.000695868 -0.0140429 0.0143122
7.09584e-05 -0.00833077 -0.0206038
-0.00107921 0.000572749 0.00189942
0.000375198 0.000275677 -0.000235893
0.000207266 -0.000261402 -0.00139063
0.0194711 -0.00275813 -0.0069612
-0.00199786 -0.00968917 0.00658796
0.000839109 -0.0109439 0.0201849
0.000987816 0.000623277 0.000928283
0.00139814 -0.000963846 0.00161128
-0.00163218 -0.00180321 0.00114149
-0.00469998 -0.00544931 -0.00783146
-0.0101879 -0.00901632 -0.0094197
0.00266179 -0.00265177 0.00272904
0.0102817 0.0115145 -0.0191427
0.000178121 -0.0184743 -0.0121214
0.000471367 0.0209296 -0.001708
-0.000176904 -0.00120396 0.000113984
-0.0170199 0.00311576 -0.00599491
0.00216298 -0.00036572 -0.0119171
-0.0120855 -0.000466464 0.0134162
-0.000333348 -0.000743852 0.00177961
0.00199039 0.0297016 0.0168049
-0.000362814 -0.0017334 0.00133824
-9.19448e-05 -8.17304e-05 1.68078e-05
-0.00690901 0.00868022 0.0142827
-0.000422298 -0.00115089 0.000483819
-0.000227324 0.00268347 -0.00307014
0.00343887 0.0079558 -0.00213912
0.000557189 0.00540414 -0.000713039
0.00125229 -0.0156417 0.00980706
-0.00161778 -0.00170947 0.00160336
7.33218e-05 0.0240595 -0.00689438
0.000420411 0.000238304 0.000405135
-0.000272814 0.000384834 0.00107879
0.000275464 -0.0163602 0.0145018
0.000345755 -0.020288 0.00229044
-0.000636358 0.00630639 0.0050709
0.000860948 0.000838906 0.000445109
0.00158623 -0.000794055 -0.000579009
-0.00141127 -0.00157757 0.000677262
-0.0026785 -0.00496351 -0.000270042
-0.00716994 0.00553933 0.00749869
0.00531438 0.0184979 -0.0270257
-0.000478582 0.00215649 0.00145122
0.00359318 0.00555154 -0.00212442
-0.0229124 0.0132002 0.0142438
-0.00285429 0.00231333 -0.00373575
0.00125558 -0.00165166 -0.0099876
0.000197546 -0.0110505 0.0178121
0.00116889 0.0192272 0.00409529
-8.35262e-05 -0.0220394 -0.00453906
0.000822085 -0.0140198 -0.0105062
0.0042317 0.0224684 -0.00272698
0.00139063 0.00590163 -0.0080293
0.000434848 0.00357682 -0.00146765
7.77215e-05 0.0233637 0.00201969
0.000194988 -0.000179942 0.000326246
-0.0135506 -0.00923385 -0.0186424
0.00513538 0.0160297 -0.00125479
0.00209442 0.000922107 -0.000302395
0.00012678 0.000689196 -0.000721826
0.00170562 0.0247911 -0.00492465
-8.0224e-05 0.000746714 -0.00026678
5.0939e-05 0.0269835 0.000713259
-0.00383911 0.00244458 0.00549044
-6.27672e-15 2.91984e-15 -5.78006e-14
-0.000300271 -0.00160015 0.00173637
0.00195184 -0.00085777 -0.0010264
-0.00685909 0.00613644 -0.000550901
-2.90083e-09 0.0236076 0.00764325
0.0269093 -0.0681422 0.188823
-0.0352042 -0.0519663 0.00612291
0.00857706 -0.00962597 -0.039949
-0.00270933 0.00485605 0.0514043
0.0365963 -0.00100632 0.0545268
9.85536e-15 1.33015e-14 1.89991e-13
0.00103319 0.00342662 -0.0116882
0.0287961 0.0388989 0.0810574
0.00177835 -0.00187716 -0.0145841
0.091128 -0.0260208 0.01757
-0.000171706 0.0224815 0.00322107
-9.67556e-317 -9.75879e-317 -3.22607e-12
0.0179403 -0.018988 0.0133845
0.0035889 0.030192 0.0386853
0.000480635 -0.000229449 -0.00020989
-0.00915848 -0.004189 -0.0149776
0.0068909 -0.016944 -0.0165215
0.0412315 0.000103358 0.0114201
0.000605816 -0.0124683 -0.0155386
0.00780875 0.00087439 -0.00118613
0.0045139 -0.00096425 -0.011156
0.000506067 -3.69746e-06 0.000119695
0.00930196 0.0292731 -0.00387445
-1.18917e-05 0.0121733 -0.0168902
-0.000213182 0.016527 0.010691
0.0012797 0.0226162 -0.00472358
0.0103357 0.0123087 -0.000730477
0.0612157 0.0357281 0.0765571
-0.0053539 0.0013613 0.00217736
-0.00144077 0.0252383 -0.0228018
0.00216423 -0.0102996 0.00948505
0.00229405 -0.00595908 -0.00563604
0.0318267 -0.00336427 -0.0152304
8.42503e-05 0.0218206 0.0104429
0.00396648 -0.0045929 -0.00909957
0.0324544 0.0424396 0.0513492
0.0452098 -0.0360997 0.0103168
-0.000338187 -9.23008e-05 0.000627356
-0.0046126 0.0200478 0.0302926
-0.000196901 0.00255159 -0.00138585
0.000307572 -0.0207112 -0.00663694
-0.00354726 -0.00468309 0.0010817
-0.00392734 0.0111065 -0.022277
-0.00440353 0.00739259 -0.0032377
0.00927504 0.00286946 0.00211197
0.00563709 8.73115e-05 -0.000396339
0.00236749 -0.00154337 -0.00941597
0.00287171 0.0214573 -0.0103392
-0.00225409 0.0166586 -0.0190573
-0.0101082 -0.0180015 -0.0380765
0.000413138 -0.00704972 0.0191319
0.0670627 0.0286256 0.0407087
0.00110448 -0.00102936 0.00217329
0.0465109 -0.224254 -0.565387
0.0238656 0.00578162 0.0185197
0.00168065 0.000496187 -0.00246712
0.00122769 0.00830361 -0.00568646
0.000476069 -0.000669092 0.0016012
0.00299817 -0.0135488 0.00734108
0.000448133 0.0256931 0.00605302
0.00217605 -0.00106248 -0.00447834
-0.000790891 0.00234771 0.00585233
0.00151813 0.00450457 -0.00206617
-0.0001825 0.0234491 -9.57933e-05
0.00116811 -0.000627997 -0.00113222
0.00208811 0.00125843 -0.00172466
2.81648e-05 0.0227553 0.00794544
-1.91003e-09 0.0225773 -0.0104676
0.0639155 0.0489171 0.278436
2.15144e-05 0.0248385 -0.000433771
0.00367474 -0.000969483 -0.00381597
-0.015881 0.0154495 0.0472273
0.00165492 0.00583934 0.0148358
-0.000811638 0.00206896 -0.00589082
0.0028694 -0.00598427 0.0035564
0.0273161 0.0235515 -0.0354112
-0.0625613 -0.0661331 -0.117804
0.000526583 0.0264682 -0.0081993
-0.000163026 -0.0090896 -0.00740194
-0.0232094 -0.00926394 -0.00725998
-7.0402e-05 0.0217883 0.00705246
0.000190519 -0.0186982 -0.00804705
0.00585707 0.00528403 -0.0172167
-4.45549e-06 -0.00234338 -0.00608986
-0.00108049 0.0181416 0.00161662
-0.00267925 -0.0402586 -0.0299347
0.000325176 0.00147495 0.00124373
-3.74296e-24 -2.9588e-23 -3.22607e-12
-0.00208434 0.0314986 -0.016539
0.00510869 0.0243555 -0.00157438
-5.60761e-05 0.0174509 0.0155074
3.68274e-05 -0.0377217 0.00760268
-0.000447779 0.0456005 0.0875311
0.0188809 0.0498498 -0.0301132
0.00078387 -0.00188989 0.00132756
0.00435326 0.000860663 -0.000803795
0.000478776 -0.0207742 0.00522723
0.00423285 0.00659023 -0.00357227
0.00231705 0.0187124 0.00340232
3.58796e-09 0.024196 -0.00540357
0.000590397 -0.00187075 -0.00363183
0.0045785 -0.00396512 -0.0154377
0.000285413 0.000623166 0.000282387
0.00191459 0.00906491 0.0110009
0.00077796 0.00643141 -0.0133583
0.00233592 0.00018528 -0.0070867
0.00536471 -0.000904719 0.00183089
0.00330265 0.000404502 -0.00526087
-0.161249 0.20327 -0.413322
0.00208756 -0.00329336 0.00471181
-0.015612 0.00782133 -0.0381436
0.00171796 0.0155374 -0.00421085
0.0741166 -0.12366 0.203272
-0.000385322 -0.000503606 0.00169017
0.00850716 -0.00276815 -0.0383186
0.00130326 -0.00343863 0.0062791
-0.0342976 0.0315396 0.0426332
-8.62651e-05 0.0248677 -0.0128553
0.00781586 0.0151925 -0.0130554
0.0218547 0.0223333 0.0191624
-2.1182e-09 0.0245585 0.00223323
0.0528005 -0.0029186 -0.020131
0.00127934 -0.0156333 0.00948909
0.00401658 0.0190192 -0.0223522
0.00371161 0.000554352 -0.00820991
0.000683374 -0.00132208 -0.000677671
-0.00227833 -0.00277708 0.00122991
0.0343749 0.0420415 0.0535976
0.000118588 0.0293225 -0.00522283
-0.053205 0.0229957 0.0386245
-0.000235988 0.00544792 0.00409585
-0.0141033 -0.0341706 0.0560513
-0.00094947 -0.00548871 0.0219334
-9.68799e-317 -9.69932e-317 9.23294e-13
0.00198657 0.00443398 0.00524226
0.162399 -0.00367109 -0.37873
0.00019895 0.0193117 0.0123696
0.0103481 -0.00182437 -0.00793348
0.00116652 -0.000933941 -0.0108088
0.0212253 -0.00074128 0.0275439
0.00379227 0.00361754 -0.0045064
0.000253624 -0.000114259 0.00208284
0.000725601 -0.0189546 0.000917874
-0.000206242 -0.000597375 -0.000473551
2.61039e-15 4.11968e-16 -4.25291e-14
0.00385885 -0.00109134 -0.00984445

VECTORS force float
-6.52353e-07 -1.60323e-06 -7.00627e-06
-4.78608e-08 3.79185e-07 -1.0719e-06
1.10644e-06 -3.66631e-06 -8.32791e-07
0.0 0.0 -1.43822e-06
1.34166e-07 1.83348e-07 -5.61474e-07
3.50095e-08 -7.50129e-08 8.80341e-08
0.0 0.0 -1.43822e-06
0.0 0.0 -1.43822e-06
1.38182e-06 -3.06951e-06 -5.15338e-07
-1.61466e-21 9.92617e-24 0.0
3.57638e-08 6.74875e-07 -3.93218e-07
1.82358e-07 -1.76211e-07 -5.13831e-08
-4.96614e-176 1.63902e-176 0.0
-6.82656e-09 -8.59539e-09 2.28312e-08
-1.52224e-09 -1.27315e-08 -3.9844e-09
1.28147e-06 -1.807e-06 -2.40405e-06
-5.01399e-06 -2.802e-06 2.5341e-06
-1.28277e-06 1.29476e-06 -1.54367e-06
0.0 0.0 -1.43822e-06
3.33549e-08 1.17257e-06 -9.64082e-07
7.00667e-09 -7.37488e-08 1.10556e-07
-8.4733e-07 3.36479e-07 5.84034e-07
7.06099e-08 -3.23524e-08 -1.48076e-07
1.39135e-06 1.57123e-07 8.46946e-07
7.6691e-07 2.55205e-07 5.97771e-07
0.0 0.0 -1.43822e-06
-3.72289e-08 3.23124e-07 4.54323e-09
0.0 0.0 -1.43822e-06
-2.01318e-10 -7.98239e-09 8.14666e-09
-2.40253e-10 -1.33214e-10 -1.4396e-08
1.25454e-06 -1.42805e-06 4.64877e-06
0.0 0.0 -1.43822e-06
-4.13119e-06 7.13055e-07 1.69977e-06
-2.19161e-06 -1.17181e-05 -7.05033e-07
-1.41753e-07 1.62423e-07 1.26517e-07
0.0 0.0 -1.43822e-06
-2.82772e-06 -1.08163e-06 1.0839e-05
5.21079e-07 -1.95187e-07 2.13357e-06
3.18015e-06 5.85791e-06 -3.14003e-06
-6.57613e-09 -1.57867e-08 4.44405e-09
3.75131e-07 -3.50135e-07 4.14171e-07
-1.57481e-08 5.25154e-07 -8.18513e-08
-1.50929e-08 1.31745e-07 2.88985e-07
-5.6017e-07 -1.76461e-06 1.38086e-06
-1.67424e-06 -1.96795e-06 5.14135e-06
4.3498e-07 1.87706e-07 -6.74245e-08
1.88761e-07 4.22999e-07 -4.69353e-08
-6.60862e-08 1.73669e-06 -8.87582e-07
-4.89728e-09 -7.81973e-09 1.86735e-08
-8.32276e-10 -3.34716e-09 1.14857e-08
-2.75448e-06 2.3943e-07 -1.36924e-06
1.25168e-06 4.64365e-07 -2.74905e-07
2.375e-07 3.34882e-07 -2.7061e-08
3.37337e-06 -2.42659e-06 7.17159e-06
0.0 0.0 -1.43822e-06
0.0 0.0 -1.43822e-06
0.0 0.0 -1.43822e-06
9.21923e-07 3.49033e-06 -3.90901e-06
-7.17688e-08 3.8045e-07 -3.46258e-07
0.0 0.0 -1.43822e-06
-2.6143e-08 -1.76409e-07 5.79056e-07
-1.24891e-08 8.15087e-07 -7.41662e-07
-2.74885e-10 -3.7809e-08 7.19417e-08
-1.03256e-06 1.18281e-06 -2.01688e-06
6.24164e-10 -5.14287e-09 1.14059e-08
5.72509e-08 -5.52039e-07 -3.76392e-07
-1.10785e-07 6.52315e-07 -2.42199e-07
7.28803e-09 -4.91747e-08 5.01948e-09
4.96619e-08 3.70698e-07 7.73886e-07
-1.98269e-08 4.42378e-07 1.287e-08
-1.01669e-07 -1.96917e-07 1.42679e-08
0.0 0.0 -1.43822e-06
-1.2563e-06 7.14775e-07 3.97771e-08
-8.5316e-07 2.15563e-07 -6.04014e-08
-6.25919e-08 7.06884e-09 2.89593e-07
-4.84106e-07 3.21848e-08 -2.68256e-08
-2.87975e-07 1.42288e-06 1.23309e-06
-1.93091e-09 -5.48103e-07 8.60506e-08
-1.59788e-06 -2.19283e-06 -8.75564e-06
-9.21148e-21 9.07913e-21 0.0
-4.90966e-08 -3.10516e-08 -6.78205e-08
3.13712e-08 -6.93565e-08 -2.83844e-08
1.19363e-07 -1.13258e-07 -2.10197e-06
-1.9393e-14 5.42604e-09 -1.60511e-08
0.0 0.0 -1.43822e-06
0.0 0.0 -1.43822e-06
0.0 0.0 -1.43822e-06
0.0 0.0 -1.43822e-06
0.0 0.0 -1.43822e-06
-9.65353e-20 1.08089e-19 -2.5411e-21
-8.776e-09 7.06239e-10 -2.65176e-08
-2.3191e-08 -4.61674e-07 -1.03834e-06
1.06394e-08 -3.35047e-08 -3.64802e-08
0.0 0.0 -1.43822e-06
-7.01785e-07 6.34303e-07 8.48736e-06
0.0 0.0 0.0
0.0 0.0 -1.43822e-06
0.0 0.0 -1.43822e-06
-1.74563e-07 -5.64283e-08 2.51424e-07
4.86551e-07 -4.57731e-08 -1.40814e-06
5.31527e-08 -5.23518e-07 -7.6408e-07
0.0 0.0 -1.43822e-06
-3.24356e-09 -1.49641e-08 -2.84041e-09
-3.73295e-07 -5.77062e-07 8.73147e-07
-9.82132e-08 1.71986e-07 -7.44032e-07
-3.6483e-07 -1.01442e-06 -1.21775e-07
6.09881e-07 9.44907e-08 2.12678e-06
2.7665e-09 -8.50155e-09 -7.15227e-09
1.69657e-08 2.66025e-08 2.38633e-09
1.43779e-07 5.80531e-08 -1.37917e-06
0.0 0.0 -1.43822e-06
0.0 0.0 -1.43822e-06
2.15629e-06 -1.17731e-06 -2.67409e-06
-1.83213e-07 -4.4749e-08 -1.31015e-06
0.0 0.0 -1.43822e-06
-1.3208e-07 -5.72867e-08 -1.60296e-07
-2.5292e-07 -4.91154e-07 -1.04997e-06
-1.4877e-06 1.8035e-06 3.24027e-06
-9.30876e-07 2.20601e-07 1.90815e-06
0.0 0.0 -1.43822e-06
0.0 0.0 -1.43822e-06
1.44581e-06 8.36011e-08 -1.48264e-07
0.0 0.0 -1.43822e-06
8.04042e-09 9.34633e-07 -6.02386e-08
-4.08406e-09 -9.98678e-09 8.8842e-09
0.0 0.0 -1.43822e-06
4.34037e-07 -2.02014e-07 -7.06672e-07
0.0 0.0 -1.43822e-06
0.0 0.0 -1.43822e-06
-7.25724e-08 2.59442e-07 -4.83352e-07
1.25159e-08 7.54282e-08 8.30195e-08
-3.74166e-07 4.84273e-07 -5.02157e-07
1.10316e-07 -7.58577e-08 -1.03827e-08
0.0 0.0 -1.43822e-06
8.68823e-11 -1.88923e-09 2.25056e-08
0.0 0.0 -1.43822e-06
-5.9368e-08 -1.82741e-07 -1.24713e-07
0.0 0.0 -1.43822e-06
0.0 0.0 -1.43822e-06
-1.08621e-07 7.70167e-09 8.16367e-08
1.71955e-08 -2.83948e-07 5.11112e-07
2.25446e-07 8.36054e-07 -2.92705e-07
0.0 0.0 -1.43822e-06
-8.47618e-08 -4.06129e-07 -3.51587e-07
0.0 0.0 -1.43822e-06
5.91643e-06 -1.11557e-06 -4.75703e-06
-5.81664e-08 -1.42591e-06 4.40737e-07
-5.47416e-07 1.17935e-07 7.83229e-06
-2.32119e-08 -4.43679e-08 3.6866e-08
6.81017e-07 8.96317e-07 -1.87358e-07
-3.6579e-07 2.94644e-08 1.89227e-06
-3.68943e-15 -7.21022e-09 -1.53766e-08
0.0 0.0 -1.43822e-06
-5.24408e-07 2.33955e-07 -6.1515e-08
2.60227e-07 2.01572e-07 7.4054e-08
5.21437e-07 -4.79347e-07 -1.51069e-06
4.33697e-06 2.59263e-06 -5.29425e-06
-5.01591e-08 -8.92303e-08 8.21661e-09
0.0 0.0 -1.43822e-06
0.0 0.0 -1.43822e-06
0.0 0.0 -1.43822e-06
0.0 0.0 -1.43822e-06
3.96683e-09 -1.63495e-07 -7.08975e-08
0.0 0.0 -1.43822e-06
-5.53363e-07 2.65259e-07 3.47333e-06
-9.49185e-10 -1.17403e-08 6.24524e-09
4.37909e-07 6.17043e-07 -6.16806e-07
-7.07317e-07 -2.89529e-06 -5.39611e-07
-7.69839e-06 -7.48066e-06 -4.82153e-06
-2.06387e-08 -2.31433e-07 3.11964e-08
-1.10902e-08 1.80154e-07 -1.13199e-07
-1.45147e-26 -1.14738e-25 0.0
0.0 0.0 -1.43822e-06
-8.53934e-07 1.08934e-07 -4.64167e-08
-3.74647e-09 1.64108e-08 -5.97088e-10
0.0 0.0 -1.43822e-06
0.0 0.0 -1.43822e-06
-2.55244e-07 3.81671e-08 -1.01012e-07
-2.63684e-07 2.81396e-07 3.27789e-07
2.66466e-07 1.78111e-07 -1.87775e-08
-8.38207e-09 -1.14108e-08 9.86617e-09
-1.13661e-06 -3.12397e-07 3.73987e-08
-2.09358e-07 3.18213e-07 3.36744e-08
2.37484e-15 -3.83431e-09 -1.64761e-08
3.75444e-07 1.84368e-06 -1.52265e-06
2.92033e-08 -3.40641e-07 -1.06058e-06
-1.83195e-06 -5.58637e-07 9.46413e-07
6.44367e-08 -1.76069e-07 -3.51003e-08
-1.16806e-06 1.45076e-06 -6.00403e-06
9.36903e-07 -1.16092e-06 -4.14644e-06
1.97981e-07 2.50063e-08 4.6718e-07
-4.62478e-07 7.78514e-08 1.37581e-07
0.0 0.0 -1.43822e-06
-7.82808e-08 -5.11093e-08 1.08335e-07
0.0 0.0 -1.43822e-06
-2.09292e-07 1.1762e-06 -2.88092e-07
0.0 0.0 -1.43822e-06
-6.15989e-08 9.07411e-09 9.55845e-08
0.0 0.0 -1.43822e-06
0.0 0.0 -1.43822e-06
0.0 0.0 -1.43822e-06
0.0 0.0 -1.43822e-06
-3.18015e-06 -5.85791e-06 2.63592e-07
0.0 0.0 -1.43822e-06
-7.56425e-15 1.44657e-09 -1.67491e-08
0.0 0.0 -1.43822e-06
3.39972e-09 -1.10797e-07 7.65003e-08
3.05829e-06 5.81887e-06 -6.623e-06
4.92122e-08 1.22475e-07 -2.35797e-06
2.37463e-07 4.76548e-07 8.79299e-07
5.20094e-07 4.77912e-07 -2.35295e-06
0.0 0.0 -1.43822e-06
1.71387e-06 -3.08983e-08 -5.45898e-07
-2.42713e-05 7.20209e-06 3.68588e-05
1.04261e-06 -1.60127e-05 -1.35308e-05
0.0 0.0 -1.43822e-06
-1.46209e-09 -4.05064e-09 -6.39788e-09
0.0 0.0 0.0
1.45031e-07 -9.12482e-08 -2.01307e-07
3.85171e-07 3.2774e-08 -9.04413e-07
-4.05249e-07 1.76202e-06 4.26082e-07
3.73842e-07 3.39123e-07 -3.87769e-07
-7.46043e-07 6.37256e-07 1.4473e-07
0.0 0.0 -1.43822e-06
0.0 0.0 -1.43822e-06
-5.36339e-07 -1.66132e-08 -5.44218e-07
-4.42439e-09 -1.49374e-08 1.11316e-08
2.0099e-07 4.88961e-07 -7.12929e-07
2.85344e-20 -3.04631e-19 -1.05879e-21
1.83809e-06 1.48587e-06 -7.42776e-07
