# vtk DataFile Version 3.0
LIGGGHTS particles timestep 6800000
ASCII
DATASET POLYDATA
POINTS 199 float
0.0189479 0.0215282 0.00793583
0.0210548 0.0141751 0.0142955
0.0200408 0.0236562 0.0144105
0.0203118 0.0237732 0.015503
0.0278186 0.0148778 0.0122775
0.0218159 0.0181068 0.015848
0.0227331 0.0230518 0.017118
0.0231124 0.0174357 0.00748266
0.0195325 0.0244781 0.0136286
0.00938048 0.0183393 0.00587271
0.0185468 0.0223629 0.00890377
0.0259183 0.0226983 0.0136616
0.0366849 0.0218066 0.0435188
0.0150539 0.0168526 0.0153707
0.030216 0.0219462 0.00827707
0.0184544 0.024438 0.0138182
0.0256156 0.0202041 0.0166548
0.0179375 0.0236917 0.013924
0.0179096 0.0224629 0.0155222
0.021124 0.0165849 0.0152088
0.027999 0.0147555 0.0113708
0.0204987 0.0220728 0.016475
0.0214095 0.0192929 0.0159447
0.0205196 0.0243649 0.0137464
0.0170353 0.0143357 0.0145288
0.0249354 0.0224289 0.0089074
0.0182524 0.0139019 0.0139972
0.0139166 0.0213515 0.0160322
0.026751 0.017841 0.0155658
0.0212487 0.0239722 0.0131831
0.0242564 0.0224849 0.00893397
0.0201118 0.0142703 0.0139688
0.0190702 0.0238285 0.0143083
0.0156665 0.0223283 0.0162586
0.0198082 0.0221221 0.0147632
0.003617 0.0285782 0.0435188
0.0217005 0.0227551 0.0154937
0.0195654 0.0235955 0.0132347
0.0266244 0.0211099 0.015236
0.0237143 0.0222818 0.0156548
0.0196051 0.0193773 0.00612808
0.0286219 0.0155832 0.00894909
0.0209885 0.0235267 0.0141514
0.0145545 0.0205646 0.0156773
0.0213657 0.0225813 0.0164456
0.0279343 0.0159981 0.0145252
0.0282777 0.0149966 0.0101255
0.0287779 0.0161499 0.00830133
0.0194854 0.0233184 0.01517
0.0205482 0.0225 0.0142982
0.0202761 0.0240927 0.012808
0.0200841 0.0148819 0.0147594
0.0263809 0.019647 0.0157741
0.0150908 0.0223281 0.0145175
0.0170663 0.0143021 0.0167859
0.0220754 0.0162267 0.014979
0.020363 0.0232635 0.012634
0.023006 0.0224344 0.0163801
0.0270702 0.0166686 0.0149515
0.0289824 0.0169634 0.00771978
0.029576 0.0198148 0.00724965
0.0221432 0.02207 0.0174094
0.0227206 0.0235441 0.0142333
0.0261533 0.0205124 0.0155723
0.0219722 0.0212315 0.0153927
0.0171521 0.0241633 0.0142956
0.0202586 0.0229878 0.0135077
0.0217238 0.0241745 0.0141835
0.0240612 0.0214487 0.00810304
0.0187103 0.0237884 0.0157137
0.0160018 0.0165394 0.0151711
0.0192022 0.0240026 0.0124276
0.0214483 0.0168437 0.00645098
0.0251251 0.0214914 0.0168197
0.016834 0.0201541 0.0166333
0.0214576 0.0226699 0.0140525
0.0163213 0.023053 0.0160263
0.0232801 0.015408 0.0140733
0.0196179 0.0240806 0.016156
0.0551527 0.0181697 0.00595147
0.0306221 0.0230671 0.00986571
0.0160323 0.0143654 0.0141151
0.0303957 0.0226294 0.00900096
0.014103 0.0224038 0.014405
0.0191529 0.0232866 0.0124088
0.0303903 0.00406748 0.0435188
0.0179361 0.0208975 0.0164119
0.014436 0.0195991 0.0159091
0.0191492 0.014226 0.0135821
0.0299084 0.020883 0.00758772
0.0183554 0.0140268 0.0130076
0.0200086 0.0224685 0.0156891
0.0166896 0.0236592 0.0151706
0.0253234 0.0171169 0.0163942
0.031157 0.0233021 0.0123897
0.0180523 0.0147881 0.0148847
0.0224173 0.0192904 0.0159441
0.0209002 0.0140714 0.013313
0.0233506 0.018297 0.00727597
0.0570019 0.0175547 0.00590579
0.0199454 0.0140036 0.0130197
0.0166679 0.0161566 0.0158253
0.0238624 0.0193158 0.0167531
0.0245659 0.0207258 0.0165024
0.0176496 0.0240932 0.0131207
0.0218169 0.0148346 0.0123775
0.0282121 0.0151454 0.0131891
0.0221348 0.00230077 0.0435188
0.0212134 0.0206218 0.0156597
0.0174077 0.0232626 0.0146325
0.0147538 0.0219557 0.0160907
0.0139602 0.0216928 0.0150933
0.019303 0.0229561 0.0163406
0.0170386 0.016181 0.0148969
0.0180375 0.0241149 0.0166121
0.0220287 0.0210811 0.0163873
0.0230343 0.0145855 0.0148583
0.0221961 0.0202627 0.0157782
0.0152743 0.0159852 0.0147349
0.0208136 0.0218593 0.015022
0.025859 0.0212003 0.0152427
0.0238889 0.0153221 0.0152043
0.0214016 0.015593 0.0142988
0.0222653 0.0152204 0.0146506
0.0258981 0.0191395 0.0167929
0.0190051 0.0147138 0.0144431
0.0234957 0.0230767 0.0150978
0.024166 0.0195974 0.00721425
0.0196036 0.0227329 0.0140125
0.0144127 0.0230234 0.0151098
0.0172762 0.0217178 0.0160579
0.0234779 0.0191327 0.00718777
0.024541 0.0229383 0.00957873
0.0209949 0.0170072 0.0172337
0.0239894 0.0214763 0.0161796
0.0211143 0.0231055 0.0132477
0.0235163 0.0166302 0.016146
0.0249667 0.0216734 0.0159799
0.0188366 0.0155452 0.0154151
0.0157343 0.0150114 0.0133935
0.0149027 0.0214079 0.0152676
0.0169286 0.0225924 0.0153792
0.0167606 0.0238863 0.0134451
0.021182 0.0215892 0.0159116
0.0292407 0.0179269 0.00739384
0.0186147 0.022949 0.0098892
0.0156651 0.0220548 0.0152892
0.0274948 0.0151541 0.0132703
0.0185506 0.0217366 0.0160501
0.0227261 0.0225307 0.0154244
0.0221996 0.00109062 0.0435188
0.020872 0.0230858 0.015041
0.0271847 0.0159672 0.0144776
0.0160496 0.0229335 0.0150062
0.0217591 0.0220581 0.0147793
0.022958 0.0214626 0.0161513
0.017241 0.014092 0.0135618
0.013948 0.0224735 0.0158037
0.030293 0.0196565 0.00724905
0.0188185 0.0232748 0.0106817
0.0176666 0.0156999 0.0155301
0.0203453 0.0210071 0.0163245
0.0190421 0.0234887 0.0116191
0.0212033 0.0235228 0.0158977
0.0152277 0.0233016 0.0146083
0.0167895 0.0153573 0.0139857
0.0206597 0.0185594 0.0159179
0.0203237 0.0201462 0.0158163
0.0162826 0.0209446 0.0163666
0.0257284 0.0219583 0.0145532
0.108836 0.0200055 0.00584234
0.0183956 0.0232334 0.0147295
0.0234203 0.0202111 0.01662
0.0177292 0.0235349 0.0155601
0.0189262 0.0225433 0.0154701
0.0159272 0.0211025 0.0154454
0.0247916 0.0161653 0.0158834
0.0201464 0.0235091 0.0117906
0.0226183 0.0235071 0.0152707
0.0220515 0.0142837 0.0142409
0.0208815 0.0175766 0.0157004
0.0200474 0.021304 0.0153328
0.0152688 0.0230668 0.0156062
0.0220024 0.0148815 0.0133713
0.0222851 0.0231096 0.0162234
0.0169687 0.0237924 0.016278
0.02376 0.020284 0.00749242
0.00937694 0.00505359 0.0435188
0.0219001 0.0232661 0.0146579
0.0168297 0.014637 0.0126071
0.0230595 0.0164216 0.0150829
0.0234474 0.0216977 0.016991
0.0245239 0.0223199 0.0162333
0.0221113 0.022005 0.0160122
0.0195494 0.0232372 0.0103969
0.0141053 0.01925 0.0167859
0.0160429 0.0236191 0.0140876
0.024947 0.0190645 0.00586966
0.0249007 0.0193954 0.0167592

VERTICES 199 398
1 0
1 1
1 2
1 3
1 4
1 5
1 6
1 7
1 8
1 9
1 10
1 11
1 12
1 13
1 14
1 15
1 16
1 17
1 18
1 19
1 20
1 21
1 22
1 23
1 24
1 25
1 26
1 27
1 28
1 29
1 30
1 31
1 32
1 33
1 34
1 35
1 36
1 37
1 38
1 39
1 40
1 41
1 42
1 43
1 44
1 45
1 46
1 47
1 48
1 49
1 50
1 51
1 52
1 53
1 54
1 55
1 56
1 57
1 58
1 59
1 60
1 61
1 62
1 63
1 64
1 65
1 66
1 67
1 68
1 69
1 70
1 71
1 72
1 73
1 74
1 75
1 76
1 77
1 78
1 79
1 80
1 81
1 82
1 83
1 84
1 85
1 86
1 87
1 88
1 89
1 90
1 91
1 92
1 93
1 94
1 95
1 96
1 97
1 98
1 99
1 100
1 101
1 102
1 103
1 104
1 105
1 106
1 107
1 108
1 109
1 110
1 111
1 112
1 113
1 114
1 115
1 116
1 117
1 118
1 119
1 120
1 121
1 122
1 123
1 124
1 125
1 126
1 127
1 128
1 129
1 130
1 131
1 132
1 133
1 134
1 135
1 136
1 137
1 138
1 139
1 140
1 141
1 142
1 143
1 144
1 145
1 146
1 147
1 148
1 149
1 150
1 151
1 152
1 153
1 154
1 155
1 156
1 157
1 158
1 159
1 160
1 161
1 162
1 163
1 164
1 165
1 166
1 167
1 168
1 169
1 170
1 171
1 172
1 173
1 174
1 175
1 176
1 177
1 178
1 179
1 180
1 181
1 182
1 183
1 184
1 185
1 186
1 187
1 188
1 189
1 190
1 191
1 192
1 193
1 194
1 195
1 196
1 197
1 198

POINT_DATA 199
SCALARS id int 1
LOOKUP_TABLE default
1
2
3
4
5
7
9
11
13
15
16
17
18
19
20
23
24
25
26
27
28
29
30
31
32
33
34
35
37
40
41
43
44
45
47
49
50
51
52
54
57
59
62
63
64
65
67
68
71
73
74
76
79
80
83
84
85
86
87
88
89
90
91
92
95
97
99
102
103
104
105
106
108
109
110
112
114
116
118
121
122
124
125
126
127
128
130
131
133
135
137
138
139
141
142
143
145
147
148
149
150
151
153
154
157
158
160
161
164
165
166
167
170
171
173
174
175
177
179
184
185
186
187
191
192
193
194
197
199
200
201
203
205
206
208
211
214
215
218
220
221
223
224
225
226
227
228
229
230
231
232
235
237
239
240
241
242
246
247
248
249
250
251
252
253
254
255
256
257
258
260
262
263
264
268
269
270
271
272
273
274
275
276
277
280
282
283
284
285
286
288
289
291
293
294
296
298
299
300

SCALARS type int 1
LOOKUP_TABLE default
1
1
1
1
1
1
1
1
1
1
1
1
1
1
1
1
1
1
1
1
1
1
1
1
1
1
1
1
1
1
1
1
1
1
1
1
1
1
1
1
1
1
1
1
1
1
1
1
1
1
1
1
1
1
1
1
1
1
1
1
1
1
1
1
1
1
1
1
1
1
1
1
1
1
1
1
1
1
1
1
1
1
1
1
1
1
1
1
1
1
1
1
1
1
1
1
1
1
1
1
1
1
1
1
1
1
1
1
1
1
1
1
1
1
1
1
1
1
1
1
1
1
1
1
1
1
1
1
1
1
1
1
1
1
1
1
1
1
1
1
1
1
1
1
1
1
1
1
1
1
1
1
1
1
1
1
1
1
1
1
1
1
1
1
1
1
1
1
1
1
1
1
1
1
1
1
1
1
1
1
1
1
1
1
1
1
1
1
1
1
1
1
1
1
1
1
1
1
1

SCALARS radius float 1
LOOKUP_TABLE default
0.0005
0.0005
0.0005
0.0005
0.0005
0.0005
0.0005
0.0005
0.0005
0.0005
0.0005
0.0005
0.0005
0.0005
0.0005
0.0005
0.0005
0.0005
0.0005
0.0005
0.0005
0.0005
0.0005
0.0005
0.0005
0.0005
0.0005
0.0005
0.0005
0.0005
0.0005
0.0005
0.0005
0.0005
0.0005
0.0005
0.0005
0.0005
0.0005
0.0005
0.0005
0.0005
0.0005
0.0005
0.0005
0.0005
0.0005
0.0005
0.0005
0.0005
0.0005
0.0005
0.0005
0.0005
0.0005
0.0005
0.0005
0.0005
0.0005
0.0005
0.0005
0.0005
0.0005
0.0005
0.0005
0.0005
0.0005
0.0005
0.0005
0.0005
0.0005
0.0005
0.0005
0.0005
0.0005
0.0005
0.0005
0.0005
0.0005
0.0005
0.0005
0.0005
0.0005
0.0005
0.0005
0.0005
0.0005
0.0005
0.0005
0.0005
0.0005
0.0005
0.0005
0.0005
0.0005
0.0005
0.0005
0.0005
0.0005
0.0005
0.0005
0.0005
0.0005
0.0005
0.0005
0.0005
0.0005
0.0005
0.0005
0.0005
0.0005
0.0005
0.0005
0.0005
0.0005
0.0005
0.0005
0.0005
0.0005
0.0005
0.0005
0.0005
0.0005
0.0005
0.0005
0.0005
0.0005
0.0005
0.0005
0.0005
0.0005
0.0005
0.0005
0.0005
0.0005
0.0005
0.0005
0.0005
0.0005
0.0005
0.0005
0.0005
0.0005
0.0005
0.0005
0.0005
0.0005
0.0005
0.0005
0.0005
0.0005
0.0005
0.0005
0.0005
0.0005
0.0005
0.0005
0.0005
0.0005
0.0005
0.0005
0.0005
0.0005
0.0005
0.0005
0.0005
0.0005
0.0005
0.0005
0.0005
0.0005
0.0005
0.0005
0.0005
0.0005
0.0005
0.0005
0.0005
0.0005
0.0005
0.0005
0.0005
0.0005
0.0005
0.0005
0.0005
0.0005
0.0005
0.0005
0.0005
0.0005
0.0005
0.0005
0.0005
0.0005
0.0005
0.0005
0.0005
0.0005

SCALARS mass float 1
LOOKUP_TABLE default
1.46608e-07
1.46608e-07
1.46608e-07
1.46608e-07
1.46608e-07
1.46608e-07
1.46608e-07
1.46608e-07
1.46608e-07
1.46608e-07
1.46608e-07
1.46608e-07
1.46608e-07
1.46608e-07
1.46608e-07
1.46608e-07
1.46608e-07
1.46608e-07
1.46608e-07
1.46608e-07
1.46608e-07
1.46608e-07
1.46608e-07
1.46608e-07
1.46608e-07
1.46608e-07
1.46608e-07
1.46608e-07
1.46608e-07
1.46608e-07
1.46608e-07
1.46608e-07
1.46608e-07
1.46608e-07
1.46608e-07
1.46608e-07
1.46608e-07
1.46608e-07
1.46608e-07
1.46608e-07
1.46608e-07
1.46608e-07
1.46608e-07
1.46608e-07
1.46608e-07
1.46608e-07
1.46608e-07
1.46608e-07
1.46608e-07
1.46608e-07
1.46608e-07
1.46608e-07
1.46608e-07
1.46608e-07
1.46608e-07
1.46608e-07
1.46608e-07
1.46608e-07
1.46608e-07
1.46608e-07
1.46608e-07
1.46608e-07
1.46608e-07
1.46608e-07
1.46608e-07
1.46608e-07
1.46608e-07
1.46608e-07
1.46608e-07
1.46608e-07
1.46608e-07
1.46608e-07
1.46608e-07
1.46608e-07
1.46608e-07
1.46608e-07
1.46608e-07
1.46608e-07
1.46608e-07
1.46608e-07
1.46608e-07
1.46608e-07
1.46608e-07
1.46608e-07
1.46608e-07
1.46608e-07
1.46608e-07
1.46608e-07
1.46608e-07
1.46608e-07
1.46608e-07
1.46608e-07
1.46608e-07
1.46608e-07
1.46608e-07
1.46608e-07
1.46608e-07
1.46608e-07
1.46608e-07
1.46608e-07
1.46608e-07
1.46608e-07
1.46608e-07
1.46608e-07
1.46608e-07
1.46608e-07
1.46608e-07
1.46608e-07
1.46608e-07
1.46608e-07
1.46608e-07
1.46608e-07
1.46608e-07
1.46608e-07
1.46608e-07
1.46608e-07
1.46608e-07
1.46608e-07
1.46608e-07
1.46608e-07
1.46608e-07
1.46608e-07
1.46608e-07
1.46608e-07
1.46608e-07
1.46608e-07
1.46608e-07
1.46608e-07
1.46608e-07
1.46608e-07
1.46608e-07
1.46608e-07
1.46608e-07
1.46608e-07
1.46608e-07
1.46608e-07
1.46608e-07
1.46608e-07
1.46608e-07
1.46608e-07
1.46608e-07
1.46608e-07
1.46608e-07
1.46608e-07
1.46608e-07
1.46608e-07
1.46608e-07
1.46608e-07
1.46608e-07
1.46608e-07
1.46608e-07
1.46608e-07
1.46608e-07
1.46608e-07
1.46608e-07
1.46608e-07
1.46608e-07
1.46608e-07
1.46608e-07
1.46608e-07
1.46608e-07
1.46608e-07
1.46608e-07
1.46608e-07
1.46608e-07
1.46608e-07
1.46608e-07
1.46608e-07
1.46608e-07
1.46608e-07
1.46608e-07
1.46608e-07
1.46608e-07
1.46608e-07
1.46608e-07
1.46608e-07
1.46608e-07
1.46608e-07
1.46608e-07
1.46608e-07
1.46608e-07
1.46608e-07
1.46608e-07
1.46608e-07
1.46608e-07
1.46608e-07
1.46608e-07
1.46608e-07
1.46608e-07
1.46608e-07
1.46608e-07
1.46608e-07
1.46608e-07
1.46608e-07
1.46608e-07
1.46608e-07
1.46608e-07
1.46608e-07
1.46608e-07

VECTORS velocity float
7.04434e-05 0.00371848 0.00187126
0.00468016 0.00207748 -0.00661489
-0.00116498 0.00129303 0.000425556
-0.00663298 -0.00152997 -0.0138397
0.000520508 0.00450435 0.018955
-0.000723794 0.0130118 0.00236941
-0.00372333 0.00402626 -0.000649134
6.74742e-05 -0.0215547 0.00703278
-0.00271938 -0.00126894 0.000205984
3.64585e-15 5.39188e-16 -3.69009e-14
-0.000226305 -0.0127315 -0.0180563
3.61385e-05 0.0132794 -0.0179745
-9.6879e-317 9.73506e-317 2.68131e-13
0.000555857 0.0177217 0.0102465
9.70459e-05 -0.0156768 -0.0149672
0.000376977 -0.00110943 -0.000367664
7.87278e-08 0.0242948 -0.00533917
0.000332605 -0.00353066 -0.000792828
-0.00741492 -0.0252812 0.0191694
-0.00192734 -0.00166424 -0.00318372
0.000810212 -0.000539622 0.0159163
-0.0147715 -0.00381919 -0.0196028
2.73818e-05 0.0204856 -0.000941421
0.00186949 -0.000102284 -0.0047226
0.00131217 0.0226666 -0.0388487
0.00201252 -0.00936086 -0.0108867
-0.0136037 -0.00545015 -0.00654964
-0.00892049 -0.00729075 -0.00494108
9.16703e-05 0.0210609 0.00854361
0.000805399 -0.00016162 -0.0010409
0.00121873 -0.0104562 -0.0124388
0.00570808 0.00478504 -0.00430975
-0.00119226 -0.00103775 -0.000318519
0.00479852 -0.0034649 -0.00862687
0.002849 0.00670787 -0.00489216
-9.68849e-317 -9.75601e-317 2.88878e-12
-0.00219418 0.00378249 0.000723654
-0.0109819 -0.00405339 0.00107696
0.00441572 0.00442034 -0.00357105
0.000967397 -0.00123458 -0.00128356
-3.59051e-14 1.60821e-14 -3.28527e-13
0.00325073 -0.00505985 0.0049195
-0.00105019 0.000560361 -0.00175686
0.000504634 0.00169448 -0.000677069
-0.00170903 -0.00464643 -0.00152719
0.00554494 0.0112626 0.010213
0.00011681 -0.00774371 0.0208837
0.00105185 -0.0123686 0.0111176
-0.00647075 0.00177082 0.00203304
0.00296213 0.00423278 -0.00448198
-0.00163996 -0.00109932 -0.00146593
0.0173554 0.010627 -0.00823036
0.000469465 0.0181495 -0.00246025
0.000125115 -0.00114875 0.001509
0.00998008 -0.0205747 0.0153791
0.00354072 -0.00775999 -0.00165152
0.00250016 0.000385027 -0.00360389
-0.00358354 0.00231281 0.00157113
0.00113782 0.0108843 0.0079274
0.00216737 -0.0151726 0.00855212
6.50714e-05 -0.0212326 -0.00409742
0.061542 0.0401308 0.0222831
-0.0018653 -0.000116118 -0.00037222
0.00278294 0.00917593 -0.00179639
0.00376479 0.00637327 -0.00886479
7.43414e-05 -0.000549553 -0.000288063
0.00306439 0.00311312 -0.00547591
-5.58942e-05 -8.13069e-05 -0.00021895
0.000108788 -0.0175651 -0.0122664
-0.00289502 -0.00155857 -0.00300191
5.04543e-05 0.00710681 0.00420712
-0.0035372 0.00137326 0.000976995
-2.38759e-14 5.09192e-14 1.84325e-13
0.000857741 -0.00146199 0.00152749
0.015818 0.00568031 -0.004188
0.00373608 0.0025175 -0.00459735
-0.00232954 -0.00147822 0.00330191
-0.00590133 -0.00877212 -0.00351676
0.00562762 0.000870109 0.000499348
-1.30036e-14 -1.76684e-14 -2.51655e-13
0.00121869 -0.00661579 -0.014294
0.0126456 -0.00955917 3.49394e-05
0.000404181 -0.0118238 -0.015621
0.000400667 0.00226216 -0.000696619
0.00268247 0.00198419 -0.0164794
-9.67556e-317 -9.75879e-317 -3.22607e-12
0.00824513 -0.0614992 0.0265553
-0.000806454 0.00155686 0.000228735
0.00153432 0.00128448 -0.00194732
0.000538641 -0.0184042 -0.0080627
0.000288266 -0.000519971 0.000958109
0.000596404 0.0211635 -0.0215735
-0.000268733 0.000475328 -0.000225382
-0.00705326 6.49728e-05 -0.00077513
0.00187207 0.00246208 -0.0177935
-0.0180509 0.0112183 -0.0497023
0.0130305 -0.0349213 0.00474753
-0.000919999 0.00232045 -0.00572771
0.000302371 -0.0206163 0.00364315
-5.39331e-11 -2.16387e-11 1.76277e-12
0.000631885 0.00139844 -0.00285671
-0.00712863 -0.00165805 0.0019962
1.40527e-09 0.0247182 -0.00141692
-0.00078401 -0.000717536 0.00243208
-8.96448e-05 -0.00112017 -0.000733899
-0.00125695 0.00327979 0.0258027
-0.000324758 0.00616235 0.0159408
2.14537e-281 4.02133e-282 9.23294e-13
-0.00205811 0.0120882 -0.00492534
-0.000654275 5.5557e-05 -0.000492437
0.000319954 -0.00143206 -0.000664696
-0.000879335 0.00212235 -0.00141555
-0.0173439 0.0174414 -0.0226995
0.00232362 0.00481868 0.0054158
0.014275 0.0210052 0.044076
-0.01252 -0.000992715 -0.00751919
-0.0085949 0.00489492 0.00567037
0.00302147 0.0071398 -0.000135546
0.00438737 0.00323437 0.000999455
0.00513804 0.0159855 0.00520098
0.00189351 0.0100463 -0.00673081
-0.0246806 -0.0186272 -0.0212606
0.00550427 0.00221759 -0.00531271
-0.0158131 0.0191128 -0.0464704
-0.00152563 0.0239647 -0.000239513
0.000347302 -0.000126158 -0.000995702
-0.000221318 -0.000231531 -0.000567447
0.000242636 -0.0132581 -0.00393288
0.00178799 0.00653485 -0.00667008
-5.69244e-05 0.000482815 -4.22682e-05
-0.0500226 -0.036316 0.0233399
0.000393364 -0.0178192 0.000246006
0.00194696 -0.00427018 -0.0117256
0.033528 -0.128599 -0.055714
0.00063591 -0.00103957 -0.000694081
0.00311543 0.000489616 -0.00400659
-0.000604245 0.0112028 0.00588768
0.00148731 -0.00625734 0.00401529
0.00790857 0.0055218 0.00323915
-0.0023341 0.000902888 0.000522102
-1.13195e-05 0.00523028 -0.00415717
-0.0023614 -0.00481421 0.00485852
5.39637e-06 -0.000171119 -0.000245995
0.00943832 0.0107879 -0.00255002
-0.000290401 -0.0226674 0.00397321
0.00246824 -0.00607435 -0.0129844
0.00192817 0.000825496 0.00103321
0.00143367 0.00802181 0.0164995
-0.00986075 -0.00320822 -0.0062676
-0.000109766 -0.000373635 -0.000192743
-4.76378e-288 -3.15159e-287 4.97437e-14
0.00386725 0.00482744 -0.00665911
0.00177776 0.00698555 0.00610712
-0.00042113 0.00149264 -5.60891e-05
0.00377357 0.0081722 -0.00221025
-0.0040336 0.00235797 0.00102559
0.00692682 0.0129179 -0.0445696
0.000185619 -0.000633247 -0.0012659
0.000423796 -0.0208619 -0.00363281
0.0013891 -0.00351577 -0.0133976
0.00108588 0.0121662 0.010737
-0.0125926 0.0310859 -0.0194601
0.00173989 0.000250677 -0.00924298
-0.0051081 0.00155181 -0.00260862
-0.000198238 0.000182838 0.000236848
0.00122989 -0.0118484 -0.022016
5.98783e-09 0.020385 0.00235401
-3.90221e-05 0.0226596 -0.00575881
0.00458716 6.55465e-05 0.000533911
0.000191548 0.015123 -0.0147093
7.54321e-16 -1.2673e-15 -6.97697e-15
-0.00107618 -0.000855662 -0.00117201
2.35572e-09 0.0240466 -0.00570843
-0.0103791 -0.0191743 -0.00183225
-0.0146302 -0.00225263 -0.00637036
0.00308023 0.000643313 0.000762202
-0.0134502 -0.0150304 -0.012365
8.872e-05 0.000176754 -0.000796984
-0.000767515 0.000146414 6.99839e-05
-0.0390253 0.0182264 -0.0691598
0.000577217 0.0193495 0.00695979
0.000394476 0.0163159 -0.00937012
-9.95454e-05 0.000408313 -6.22309e-06
0.00424466 0.0108158 0.0391688
-0.00328522 0.00428228 0.00078718
-0.0106009 0.00402514 0.0200145
0.000375378 -0.0190586 -0.00743603
-9.68799e-317 -9.69932e-317 9.23294e-13
-0.00311952 0.00199859 0.00241451
0.0221485 0.0108356 -0.0475678
0.00228933 -0.00827346 -0.00756728
0.000868555 0.00469659 -0.00215482
0.000584173 -0.00231505 0.00070897
2.1455e-06 0.00333786 0.00271121
0.00340711 0.00261303 -0.00221651
-0.00629366 0.0115241 0.00224937
0.000497883 0.00113907 0.000367734
2.60396e-15 4.42272e-16 -4.25291e-14
-8.75957e-09 0.0247519 -0.00178605

VECTORS force float
1.03804e-08 2.39132e-08 9.77863e-08
-6.45177e-08 2.92487e-07 2.90395e-07
6.29774e-06 3.46759e-06 1.93695e-05
-2.87381e-07 3.11209e-06 3.55028e-06
-3.48313e-09 9.74727e-09 9.87921e-09
5.02098e-08 2.23621e-07 5.65759e-08
-9.6784e-08 -3.01058e-07 -1.3109e-06
4.69611e-10 -1.3149e-09 1.42337e-08
1.21551e-06 2.69944e-09 -1.02035e-06
1.69407e-21 -1.10578e-20 0.0
6.90974e-10 -8.62417e-09 4.05894e-09
3.90053e-10 -7.37133e-09 -6.19369e-09
0.0 0.0 0.0
-3.3226e-11 6.98429e-09 -1.16161e-08
-9.96953e-10 -1.21876e-08 3.57659e-09
1.53277e-06 -1.41091e-06 1.18765e-06
-6.91482e-11 -3.35644e-09 -1.66577e-08
-1.00168e-07 -7.15673e-08 -1.87066e-07
5.28361e-06 3.44656e-06 -4.46375e-07
3.10835e-08 -1.7963e-07 -1.0871e-07
-1.02051e-09 9.16372e-09 1.3371e-09
0.0 0.0 -1.43822e-06
-1.05106e-07 3.34777e-07 -5.36645e-08
0.0 0.0 -1.43822e-06
0.0 0.0 -1.43822e-06
-1.18637e-08 -9.81466e-09 -4.23764e-09
0.0 0.0 -1.43822e-06
1.81333e-07 1.0977e-07 -7.28269e-07
-9.3916e-09 9.80424e-09 -7.11537e-09
1.30161e-07 -1.21631e-07 1.95413e-07
3.31069e-09 -4.30042e-09 1.35111e-08
-6.48527e-07 4.94488e-07 4.23422e-07
1.55899e-06 -7.74102e-06 1.58722e-05
-5.07068e-07 -1.22001e-07 -1.22497e-06
-3.63212e-07 1.71847e-06 2.88952e-07
0.0 0.0 0.0
9.29618e-08 7.02146e-07 1.38871e-06
1.74709e-08 -2.1993e-07 -9.22008e-09
-1.37543e-06 -2.64011e-06 -4.87326e-06
-1.07079e-06 6.96708e-07 3.29023e-07
-8.47033e-22 -1.72054e-21 2.11758e-22
1.62991e-08 5.79967e-08 -1.32061e-07
2.5457e-07 3.7519e-06 7.15919e-06
-5.85174e-09 1.11633e-06 -5.02355e-07
0.0 0.0 -1.43822e-06
-1.53748e-05 1.57592e-06 -1.0468e-05
8.22556e-09 1.1856e-08 9.58183e-09
1.3101e-08 5.8916e-08 -5.06592e-08
1.19483e-06 -3.29922e-06 8.62092e-06
1.15777e-07 2.86286e-07 4.5974e-07
3.36235e-07 -2.21655e-07 4.37906e-08
-6.70251e-08 6.39508e-07 2.28786e-07
2.98902e-08 -3.05167e-08 3.18422e-08
5.63239e-07 -5.75825e-07 2.88149e-07
0.0 0.0 -1.43822e-06
0.0 0.0 -1.43822e-06
6.68267e-07 -1.53687e-07 4.95362e-07
-1.00431e-06 -5.68566e-07 2.10892e-06
-8.97331e-05 0.000291733 -0.000945336
-4.81192e-08 9.56092e-08 -2.65126e-08
-3.72546e-10 -6.29656e-09 1.10065e-08
0.0 0.0 -1.43822e-06
3.42603e-06 1.50768e-06 4.01655e-06
-2.48061e-07 -6.47922e-07 2.8772e-07
0.0 0.0 -1.43822e-06
1.76122e-07 1.55e-07 -2.3934e-07
6.92705e-07 1.42666e-07 6.15719e-07
2.04376e-06 -1.31431e-07 1.59118e-06
-7.9937e-10 -1.00793e-08 5.81167e-09
0.0 0.0 -1.43822e-06
-1.1252e-09 -1.59921e-07 -1.11677e-07
2.24257e-07 -2.02955e-08 6.85766e-08
-5.84453e-20 -1.21761e-21 -5.92923e-21
-7.91991e-09 -3.98233e-08 -2.12672e-08
-5.05519e-08 5.28561e-08 -1.49193e-06
-4.23446e-07 -5.78435e-07 2.39465e-06
-2.70367e-08 1.54705e-07 -1.09191e-07
-1.51898e-05 2.30624e-05 3.04229e-05
-1.70536e-07 -5.87164e-07 -7.26524e-07
1.12629e-20 -2.11758e-21 -4.23516e-22
-2.89765e-10 -1.08925e-08 -5.8099e-09
2.92996e-08 5.91037e-07 -1.04367e-06
-2.93167e-09 -1.36909e-08 -5.87835e-09
1.25752e-07 5.8036e-08 -3.75065e-08
-6.16975e-08 2.15824e-08 -2.58103e-07
0.0 0.0 0.0
-7.87389e-08 1.30853e-06 -4.66453e-07
4.14975e-08 8.66449e-07 -4.50632e-07
-5.48154e-07 -4.88872e-07 6.63948e-07
-3.14907e-09 -1.39493e-08 4.85033e-09
-1.45822e-07 -1.40524e-07 -6.11262e-08
0.0 0.0 -1.43822e-06
-7.1195e-07 2.1683e-07 -3.89597e-07
8.82906e-08 5.58767e-08 5.01345e-08
-5.92185e-06 3.44505e-06 -1.61846e-05
0.0 0.0 -1.43822e-06
0.0 0.0 -1.43822e-06
-6.69197e-08 1.21768e-07 -4.16788e-09
-1.24187e-09 -1.07415e-09 5.19472e-09
-5.434e-14 -3.5907e-14 2.26152e-15
2.97848e-07 2.57075e-07 1.19298e-07
-9.7096e-09 -1.16655e-07 -9.45476e-07
-2.87001e-12 -1.11291e-09 -1.68541e-08
-7.32839e-08 1.62966e-08 -6.7413e-08
1.96285e-07 1.05667e-07 -1.2522e-07
3.71063e-08 -5.76208e-08 -4.75379e-08
-4.90807e-09 1.50478e-08 2.08761e-09
2.64787e-284 4.96322e-285 0.0
1.98237e-07 1.10376e-06 -4.52738e-07
-1.34178e-06 3.18017e-07 -6.5021e-08
1.60194e-06 1.85284e-06 4.05815e-06
-2.40589e-07 1.7646e-06 3.77166e-07
0.0 0.0 -1.43822e-06
-1.40177e-07 -6.1572e-08 -4.50719e-07
-2.68593e-07 -6.04367e-07 -1.3023e-06
0.0 0.0 -1.43822e-06
0.0 0.0 -1.43822e-06
0.0 0.0 -1.43822e-06
6.55699e-08 -2.13695e-07 -2.15343e-07
5.38182e-07 1.19075e-06 -3.27841e-06
2.47636e-05 7.04147e-06 -2.18002e-05
-3.45074e-07 4.24731e-07 -6.74362e-07
3.9033e-07 8.30126e-08 -1.08492e-06
0.0 0.0 -1.43822e-06
-7.4796e-09 -2.48808e-09 -1.5468e-08
-2.51071e-08 3.53207e-07 1.34746e-06
-2.21215e-06 1.17172e-06 -3.55165e-07
7.09826e-09 3.17521e-08 6.1382e-10
2.9178e-07 -2.77177e-07 4.36234e-07
9.08275e-08 -3.49498e-08 4.58694e-08
0.0 0.0 -1.43822e-06
1.706e-08 -1.38146e-08 1.83964e-08
7.19776e-09 3.04635e-08 5.05726e-08
0.0 0.0 -1.43822e-06
2.56989e-07 -1.5064e-07 -1.53848e-07
7.29053e-07 -5.29414e-07 5.05662e-07
-1.7031e-09 -1.32381e-08 -5.2114e-09
-1.25041e-08 -1.99352e-07 -1.41404e-07
-1.45096e-07 -3.06805e-07 -2.89693e-07
0.0 0.0 -1.43822e-06
4.32846e-06 9.59697e-06 3.5079e-06
1.87635e-07 2.48357e-06 -2.22529e-06
6.52273e-08 3.96122e-08 3.16938e-08
0.0 0.0 -1.43822e-06
2.68156e-08 4.56124e-08 -1.46628e-08
-2.71883e-09 -1.74673e-09 -2.5934e-09
-3.0634e-08 4.22259e-07 -1.22963e-06
-1.31478e-09 1.7623e-08 1.55833e-09
1.82986e-05 3.43525e-05 2.62126e-05
-1.27233e-06 1.21695e-06 -7.9597e-07
5.16946e-290 3.41998e-289 0.0
-4.06358e-06 -1.49534e-05 1.0934e-05
-1.90205e-05 1.05607e-05 5.46187e-05
-1.39149e-07 -4.25246e-07 4.50124e-07
-3.52162e-07 -9.99537e-07 -9.46789e-07
-4.12511e-07 -1.20227e-06 1.24825e-06
0.0 0.0 -1.43822e-06
7.96903e-07 -8.91445e-07 1.63315e-06
8.61752e-10 -4.27705e-09 8.41449e-09
-1.69309e-08 -7.92298e-09 -4.73498e-08
-3.37968e-08 -1.69046e-07 -1.31734e-07
1.42372e-07 3.58858e-07 -7.49204e-07
-2.86268e-08 -1.27977e-07 -2.50706e-07
2.31769e-07 8.4449e-07 8.13949e-07
-1.61209e-07 -2.32815e-07 1.46527e-07
-1.09107e-08 -4.36546e-07 -6.17994e-07
-6.96277e-12 1.88943e-09 -1.35384e-08
9.27406e-09 1.55196e-09 -2.32058e-08
5.60367e-08 -1.35499e-08 -1.26705e-06
-1.90608e-09 -3.42589e-09 -1.13042e-08
-3.4146e-21 6.08805e-21 -1.48231e-21
-4.20074e-06 -3.41682e-06 7.34323e-06
7.90189e-15 -4.10499e-09 -1.63577e-08
0.0 0.0 -1.43822e-06
0.0 0.0 -1.43822e-06
-1.3647e-07 1.5402e-06 -6.19656e-07
9.42718e-08 -1.11855e-07 -1.37268e-07
2.95969e-07 -7.1098e-08 2.28545e-07
-1.00588e-06 4.35718e-07 -2.90688e-07
-1.06535e-07 4.13156e-07 -8.07982e-07
-2.49247e-10 5.84054e-09 -1.25391e-08
-5.81138e-07 4.28132e-06 -1.71387e-08
9.61648e-09 -1.49953e-07 2.35186e-07
0.0 0.0 -1.43822e-06
2.91145e-07 -9.28115e-07 1.94251e-06
1.3644e-07 -3.12187e-07 -1.06638e-06
9.98624e-10 9.30953e-10 1.58786e-08
0.0 0.0 0.0
4.48793e-06 -2.78179e-06 -4.75621e-06
1.85607e-07 3.59228e-07 -8.62225e-07
-2.37023e-08 -1.9568e-07 -1.1023e-07
1.06228e-07 -1.17655e-07 -1.02946e-06
-2.53166e-08 1.05781e-07 -1.3885e-07
-1.65492e-06 -3.20681e-06 -8.13663e-07
2.83112e-08 1.05723e-07 2.5036e-07
-1.56569e-08 2.10108e-08 -1.31941e-06
-8.93086e-08 -6.785e-09 6.16138e-08
-6.64391e-21 7.30764e-20 4.23516e-22
1.44062e-11 -1.28736e-09 -1.68806e-08
