# vtk DataFile Version 3.0
LIGGGHTS particles timestep 21000000
ASCII
DATASET POLYDATA
POINTS 109 float
0.0186739 0.0234812 0.0118097
0.0175638 0.0234777 0.0117741
0.014106 0.0223889 0.0144342
0.0552425 0.0189586 0.00589144
0.00938048 0.0183393 0.00587271
0.0260148 0.0196703 0.00594114
0.040139 0.0198747 0.00726394
0.0366849 0.0218066 0.0435188
0.0452993 0.0163611 0.00821101
0.0383727 0.0148612 0.0120613
0.0339249 0.0173116 0.00624552
0.000591717 0.0149731 0.0435188
0.0426919 0.0201829 0.0156586
0.0212264 0.0160678 0.00838782
0.0285148 0.0212943 0.00783984
0.041657 0.0232653 0.0124799
0.023585 0.0233007 0.0122383
0.0327816 0.0150449 0.00994958
0.017702 0.0140974 0.0132392
0.003617 0.0285782 0.0435188
0.0449821 0.0155908 0.00922971
0.0177449 0.0174882 0.00600758
0.0434961 0.0166538 0.0149805
0.0227759 0.0224321 0.00896838
0.0199219 0.0139383 0.0131596
0.0424884 0.0209868 0.0153806
0.0429861 0.0190455 0.0158045
0.0437597 0.015899 0.0144421
0.0349285 0.0181778 0.00592251
0.0338591 0.0184461 0.00727804
0.0277621 0.0181022 0.00730272
0.054387 0.0178804 0.00601135
0.0351121 0.0230771 0.0100146
0.0418849 0.022933 0.0134306
0.0414227 0.0233948 0.0111996
0.0442539 0.0148665 0.0123532
0.0334396 0.0169729 0.00771294
0.0411831 0.02319 0.0102871
0.016641 0.0238598 0.0136758
0.0392655 0.0162772 0.00819656
0.020065 0.0240346 0.0128248
0.0214483 0.0168437 0.00645098
0.0294652 0.0233824 0.0114187
0.0367416 0.0200197 0.0157005
0.0586827 0.0172628 0.00598816
0.0792478 0.0194315 0.00576454
0.0203269 0.0145979 0.0124504
0.0454185 0.0169799 0.00780519
0.0303903 0.00406748 0.0435188
0.0314551 0.0169267 0.0152466
0.0459861 0.019168 0.0071994
0.0187336 0.0208937 0.0155517
0.044624 0.0150067 0.0107844
0.0465254 0.0191962 0.00590655
0.0346224 0.0217158 0.00809253
0.0317385 0.0158578 0.0143873
0.0465427 0.0214494 0.00797976
0.039421 0.0168708 0.00778067
0.0359491 0.0228362 0.013642
0.0584376 0.0191695 0.00582359
0.0219333 0.0188143 0.00720761
0.019533 0.014329 0.0140255
0.020084 0.0201843 0.0061153
0.0431255 0.0181601 0.01572
0.0221348 0.00230077 0.0435188
0.201805 0.0186174 0.00570934
0.0375977 0.0164652 0.014919
0.0250491 0.0189239 0.0159545
0.0830234 0.0186618 0.00583976
0.0250661 0.0208848 0.0155515
0.067984 0.0193424 0.00575613
0.0409004 0.0227232 0.00921003
0.0390094 0.0154903 0.00917857
0.0373228 0.0174366 0.0154012
0.025548 0.0200548 0.015832
0.0245181 0.0198668 0.00580713
0.0363571 0.0213093 0.015099
0.039645 0.0177012 0.00739869
0.0268845 0.0151817 0.00958854
0.0383457 0.0197753 0.00590075
0.026935 0.0188837 0.00598981
0.0288644 0.0225963 0.00898498
0.0439506 0.01525 0.0134837
0.0319682 0.0152703 0.0134916
0.0423052 0.0216604 0.0148722
0.0221996 0.00109062 0.0435188
0.0421357 0.0223751 0.0141789
0.0324675 0.0147409 0.0114887
0.031198 0.0178362 0.0156352
0.0452084 0.0159851 0.00848866
0.0557897 0.0172859 0.0059806
0.0895649 0.0187731 0.00575225
0.0301081 0.0224412 0.014118
0.0297375 0.0231661 0.0128201
0.0407416 0.0221189 0.00849752
0.108836 0.0200055 0.00584234
0.021319 0.0147143 0.0125045
0.0332219 0.0159411 0.00854166
0.03065 0.020414 0.0155482
0.0348711 0.0226161 0.0091082
0.0204691 0.0147263 0.0114689
0.0309653 0.0191284 0.0158337
0.0264943 0.0147491 0.0113515
0.00937694 0.00505359 0.0435188
0.0377754 0.021451 0.00628508
0.0281125 0.0198377 0.00726407
0.0238204 0.0199216 0.00640396
0.0254808 0.018723 0.00589902
0.0379458 0.0152857 0.0135748

VERTICES 109 218
1 0
1 1
1 2
1 3
1 4
1 5
1 6
1 7
1 8
1 9
1 10
1 11
1 12
1 13
1 14
1 15
1 16
1 17
1 18
1 19
1 20
1 21
1 22
1 23
1 24
1 25
1 26
1 27
1 28
1 29
1 30
1 31
1 32
1 33
1 34
1 35
1 36
1 37
1 38
1 39
1 40
1 41
1 42
1 43
1 44
1 45
1 46
1 47
1 48
1 49
1 50
1 51
1 52
1 53
1 54
1 55
1 56
1 57
1 58
1 59
1 60
1 61
1 62
1 63
1 64
1 65
1 66
1 67
1 68
1 69
1 70
1 71
1 72
1 73
1 74
1 75
1 76
1 77
1 78
1 79
1 80
1 81
1 82
1 83
1 84
1 85
1 86
1 87
1 88
1 89
1 90
1 91
1 92
1 93
1 94
1 95
1 96
1 97
1 98
1 99
1 100
1 101
1 102
1 103
1 104
1 105
1 106
1 107
1 108

POINT_DATA 109
SCALARS id int 1
LOOKUP_TABLE default
1
2
4
5
15
16
17
18
20
24
25
27
28
32
33
37
41
44
47
49
52
57
59
62
63
65
67
68
73
74
76
79
84
87
88
89
90
92
97
103
106
108
109
112
121
122
124
125
128
130
131
133
135
137
139
141
142
143
147
149
150
157
158
160
161
165
166
167
173
174
179
185
186
187
191
193
194
197
200
205
215
225
226
227
229
232
237
241
242
247
252
253
256
257
258
260
268
269
270
271
274
275
277
284
288
291
294
299
300

SCALARS type int 1
LOOKUP_TABLE default
1
1
1
1
1
1
1
1
1
1
1
1
1
1
1
1
1
1
1
1
1
1
1
1
1
1
1
1
1
1
1
1
1
1
1
1
1
1
1
1
1
1
1
1
1
1
1
1
1
1
1
1
1
1
1
1
1
1
1
1
1
1
1
1
1
1
1
1
1
1
1
1
1
1
1
1
1
1
1
1
1
1
1
1
1
1
1
1
1
1
1
1
1
1
1
1
1
1
1
1
1
1
1
1
1
1
1
1
1

SCALARS radius float 1
LOOKUP_TABLE default
0.0005
0.0005
0.0005
0.0005
0.0005
0.0005
0.0005
0.0005
0.0005
0.0005
0.0005
0.0005
0.0005
0.0005
0.0005
0.0005
0.0005
0.0005
0.0005
0.0005
0.0005
0.0005
0.0005
0.0005
0.0005
0.0005
0.0005
0.0005
0.0005
0.0005
0.0005
0.0005
0.0005
0.0005
0.0005
0.0005
0.0005
0.0005
0.0005
0.0005
0.0005
0.0005
0.0005
0.0005
0.0005
0.0005
0.0005
0.0005
0.0005
0.0005
0.0005
0.0005
0.0005
0.0005
0.0005
0.0005
0.0005
0.0005
0.0005
0.0005
0.0005
0.0005
0.0005
0.0005
0.0005
0.0005
0.0005
0.0005
0.0005
0.0005
0.0005
0.0005
0.0005
0.0005
0.0005
0.0005
0.0005
0.0005
0.0005
0.0005
0.0005
0.0005
0.0005
0.0005
0.0005
0.0005
0.0005
0.0005
0.0005
0.0005
0.0005
0.0005
0.0005
0.0005
0.0005
0.0005
0.0005
0.0005
0.0005
0.0005
0.0005
0.0005
0.0005
0.0005
0.0005
0.0005
0.0005
0.0005
0.0005

SCALARS mass float 1
LOOKUP_TABLE default
1.46608e-07
1.46608e-07
1.46608e-07
1.46608e-07
1.46608e-07
1.46608e-07
1.46608e-07
1.46608e-07
1.46608e-07
1.46608e-07
1.46608e-07
1.46608e-07
1.46608e-07
1.46608e-07
1.46608e-07
1.46608e-07
1.46608e-07
1.46608e-07
1.46608e-07
1.46608e-07
1.46608e-07
1.46608e-07
1.46608e-07
1.46608e-07
1.46608e-07
1.46608e-07
1.46608e-07
1.46608e-07
1.46608e-07
1.46608e-07
1.46608e-07
1.46608e-07
1.46608e-07
1.46608e-07
1.46608e-07
1.46608e-07
1.46608e-07
1.46608e-07
1.46608e-07
1.46608e-07
1.46608e-07
1.46608e-07
1.46608e-07
1.46608e-07
1.46608e-07
1.46608e-07
1.46608e-07
1.46608e-07
1.46608e-07
1.46608e-07
1.46608e-07
1.46608e-07
1.46608e-07
1.46608e-07
1.46608e-07
1.46608e-07
1.46608e-07
1.46608e-07
1.46608e-07
1.46608e-07
1.46608e-07
1.46608e-07
1.46608e-07
1.46608e-07
1.46608e-07
1.46608e-07
1.46608e-07
1.46608e-07
1.46608e-07
1.46608e-07
1.46608e-07
1.46608e-07
1.46608e-07
1.46608e-07
1.46608e-07
1.46608e-07
1.46608e-07
1.46608e-07
1.46608e-07
1.46608e-07
1.46608e-07
1.46608e-07
1.46608e-07
1.46608e-07
1.46608e-07
1.46608e-07
1.46608e-07
1.46608e-07
1.46608e-07
1.46608e-07
1.46608e-07
1.46608e-07
1.46608e-07
1.46608e-07
1.46608e-07
1.46608e-07
1.46608e-07
1.46608e-07
1.46608e-07
1.46608e-07
1.46608e-07
1.46608e-07
1.46608e-07
1.46608e-07
1.46608e-07
1.46608e-07
1.46608e-07
1.46608e-07
1.46608e-07

VECTORS velocity float
-4.33693e-05 -0.000351584 9.16817e-05
0.00233132 0.000227423 -0.00290626
0.000219712 0.00068719 -8.3768e-05
-9.84476e-15 -1.33744e-14 -1.90504e-13
3.64638e-15 5.39747e-16 -3.69009e-14
1.76438e-14 2.84489e-15 -2.87664e-13
0.000597486 -0.0193766 -0.0033769
-9.6879e-317 9.73506e-317 2.68131e-13
0.00228506 -0.00910103 0.00633249
0.000184151 0.00121826 0.0220663
-8.37259e-16 -9.43222e-15 -2.80603e-14
9.71467e-317 9.75789e-317 -8.23806e-13
0.00073054 0.0193212 -0.00489471
0.000830258 -0.013903 0.0109796
0.0015958 -0.015055 -0.00828018
0.00122235 0.00296081 -0.0153581
-7.15141e-05 0.0052215 -0.0213925
0.000714928 -0.00609588 0.0178797
0.000492881 -0.00043651 0.000863566
-9.68849e-317 -9.75601e-317 2.88878e-12
0.000307352 -0.00879277 0.0157049
2.63774e-15 1.02253e-14 2.12806e-14
0.000495047 0.0169769 0.0102324
0.00241753 -0.0096089 -0.0113217
-0.00580002 0.00121177 -0.00152336
0.002251 0.0129001 -0.00477761
0.000179696 0.0200039 -0.000555608
0.00137365 0.00614133 0.0094589
6.3704e-16 6.72269e-15 2.00024e-14
0.000677078 -0.0227637 -0.000623846
0.00023346 -0.0206016 0.00447645
-1.30045e-14 -1.7668e-14 -2.51655e-13
0.00109264 -0.00271623 -0.0111403
0.000843515 0.008995 -0.015979
0.00137054 -0.000884712 -0.0170532
0.000500535 0.00328028 0.0189128
0.000380476 -0.0190335 0.00976985
0.000552164 -0.00621471 -0.0188018
0.00260257 0.00233833 0.000591362
0.00125924 -0.00448817 0.00327908
-0.000343115 -0.00651147 -0.0135874
-2.38094e-14 5.07059e-14 1.84392e-13
0.000198728 0.000277153 -0.0214752
0.00243613 0.0123568 -0.00436009
1.03749e-14 -2.15446e-14 -2.64999e-13
1.20214e-14 4.0118e-14 1.70236e-13
0.000225558 0.00013326 0.0229698
0.000823424 -0.0177769 0.00899516
-9.67556e-317 -9.75879e-317 -3.22607e-12
0.00126645 0.0145989 0.00812668
0.00130686 -0.0127819 0.000141821
-0.0089953 0.0929872 -0.0476939
0.000765491 -0.00499426 0.0210768
2.39296e-15 1.33721e-14 9.20545e-14
0.00203001 -0.00808199 -0.00663444
0.000535255 0.0135881 0.0141273
0.00137279 -0.014449 -0.00876357
0.00241505 -0.00332191 0.00113864
0.00177198 0.0080949 -0.0129506
8.12666e-15 -1.68427e-14 -2.07264e-13
0.000350705 -0.019899 0.00168084
-0.0264492 0.0034507 -0.0137839
5.51428e-15 -2.48026e-15 5.04899e-14
0.000433868 0.0216898 0.00675489
9.74157e-317 -9.69799e-317 9.23294e-13
-3.8561e-20 -8.56408e-22 -1.30474e-21
0.00138069 0.0142174 0.0108431
0.000508511 0.0208368 0.000418651
1.15426e-14 3.23732e-14 -1.39058e-13
-0.0110329 0.0114955 -0.00436018
3.9062e-15 7.5258e-15 2.61625e-13
0.000980549 -0.0095497 -0.0167008
0.000148628 -0.0127315 0.0183039
0.000579258 0.0190541 0.0071967
0.000104429 0.0189269 -0.00437283
6.22873e-16 4.5178e-16 5.46819e-16
0.000151111 0.0176126 -0.0113535
0.00140803 -0.0162437 0.00571699
0.000310402 -0.00910849 0.0186438
6.01152e-15 -2.8965e-14 1.43232e-13
1.43031e-14 2.30458e-15 -2.33189e-13
0.000523783 -0.0116484 -0.0154952
0.000114939 0.00958 0.0190949
0.00112666 0.00900971 0.0171277
0.000441513 0.0162341 -0.0103721
9.58743e-317 9.68145e-317 4.97437e-14
0.000119752 0.0146592 -0.0164222
7.37717e-05 -0.00141778 0.0222806
0.000292259 0.0199536 0.00577857
0.00117381 -0.00811887 0.00686663
9.81944e-15 1.33374e-14 1.8999e-13
-1.31032e-14 1.8974e-14 2.53774e-13
0.000302613 0.0121707 -0.0163198
0.00112744 0.00667469 -0.0177927
0.00137058 -0.0149155 -0.0138864
7.67054e-16 -1.27677e-15 -6.97332e-15
0.000545982 -0.000741946 0.00222695
0.000213418 -0.0143812 0.0151699
0.000402037 0.0200544 -0.00669581
5.27821e-05 -0.0113351 -0.0188008
0.000366995 -0.00271303 0.0225024
0.00131616 0.014243 0.000460092
2.90257e-05 -0.00186774 0.0227273
-9.68799e-317 -9.69932e-317 9.23294e-13
-6.86789e-15 2.32859e-14 -1.07316e-13
5.61341e-05 -0.0214961 -0.00528067
-2.06827e-16 -2.85435e-16 8.49145e-16
-2.07795e-14 -3.34047e-15 3.38791e-13
0.000175964 0.0100173 0.0187522

VECTORS force float
-9.79953e-08 9.60074e-09 -1.65013e-09
4.00205e-05 -2.81159e-06 2.64794e-05
4.19707e-07 -2.76555e-08 5.27367e-07
1.29702e-21 0.0 0.0
-1.87935e-21 2.26647e-21 -2.11758e-22
7.41154e-22 -3.38151e-21 0.0
-5.39934e-09 -1.77106e-08 7.54476e-09
0.0 0.0 0.0
-1.10513e-08 -2.26008e-08 -3.2727e-09
3.88617e-10 9.82846e-09 1.65322e-09
9.31273e-20 5.0822e-20 -1.79995e-20
0.0 0.0 0.0
1.04977e-08 -3.67965e-08 -3.50748e-09
1.06315e-08 4.6737e-08 -2.06564e-08
-1.20699e-08 -3.05753e-08 -6.45216e-09
-5.86834e-09 -9.08931e-09 -7.61782e-08
1.58446e-08 -6.65151e-09 1.25926e-08
-4.62164e-09 4.66347e-09 1.81198e-08
1.27618e-08 -1.19083e-08 2.39864e-08
0.0 0.0 0.0
3.86532e-10 -4.92254e-09 2.34556e-08
-2.75286e-21 3.17637e-22 2.11758e-22
2.99837e-08 -7.41486e-08 1.11187e-08
-1.52851e-09 -1.03228e-08 -3.82185e-09
0.0 0.0 -1.43822e-06
2.79616e-08 -9.40225e-08 5.12086e-08
-8.00565e-10 7.65885e-09 -1.4058e-08
2.26737e-07 -2.4824e-08 1.55706e-07
-1.51142e-20 -5.82335e-22 4.23516e-22
-4.43361e-07 -9.76218e-07 2.7542e-07
4.03013e-11 -3.17801e-09 1.20316e-08
-1.98523e-22 -5.29396e-23 2.11758e-22
-2.54489e-09 -3.87302e-08 -3.94486e-08
-1.59001e-08 1.49858e-09 -5.10973e-08
-1.6481e-08 -1.69798e-08 -1.75756e-08
-1.81168e-09 1.34568e-08 -7.51696e-10
9.58173e-10 4.33113e-10 1.26263e-08
-1.76287e-09 -1.35753e-08 -1.46776e-08
9.51054e-09 1.5595e-08 3.61218e-09
5.60509e-09 -1.04204e-07 8.38988e-08
0.0 0.0 -1.43822e-06
4.91491e-19 7.89858e-20 4.34104e-20
3.79197e-10 -1.07267e-08 -3.48668e-09
-2.32315e-08 6.55422e-08 -1.77857e-08
4.31127e-20 1.89259e-20 2.11758e-22
-1.41349e-19 2.02229e-20 4.65868e-21
1.30007e-07 8.00944e-08 -1.39311e-06
-3.6103e-09 2.08872e-09 5.01659e-09
0.0 0.0 0.0
1.19453e-09 -1.2611e-05 -3.83887e-06
-9.29285e-06 4.38515e-06 -4.66804e-06
3.78211e-08 -5.86164e-08 -3.14621e-07
-6.01991e-09 7.69691e-09 6.33111e-09
-1.00585e-21 5.55865e-22 -2.11758e-22
4.25357e-07 8.31431e-07 -6.54613e-07
-6.63945e-09 1.86956e-08 7.69501e-09
1.22541e-09 3.13121e-09 1.02391e-08
1.53382e-07 -1.04064e-07 -7.73387e-09
-1.14978e-08 -1.65355e-08 -1.08377e-07
5.15102e-20 -2.14141e-20 4.02341e-21
-3.67994e-09 -1.321e-08 1.09852e-08
0.0 0.0 -1.43822e-06
5.82335e-22 2.32934e-21 2.11758e-22
3.80939e-09 3.40008e-09 -9.32692e-09
0.0 0.0 0.0
0.0 0.0 0.0
-1.10653e-08 9.49443e-09 -1.94512e-09
-1.82036e-10 9.69058e-10 -1.40151e-08
1.37511e-20 2.5411e-21 1.90582e-21
-6.25146e-07 5.39051e-07 1.75924e-07
-3.06255e-20 1.47106e-20 0.0
4.7828e-09 -1.3308e-08 1.30274e-08
-9.18168e-11 7.0841e-09 1.18231e-08
-3.1056e-09 1.08835e-08 -7.57667e-09
-9.83419e-08 -8.74946e-07 7.17549e-08
0.0 8.67362e-19 0.0
-6.92528e-10 -1.22852e-09 -1.24267e-08
2.08926e-07 5.15709e-07 -4.58094e-07
-1.07451e-09 6.74342e-09 1.06608e-08
-5.33154e-19 1.12761e-20 2.47757e-20
5.29396e-23 1.52201e-21 0.0
-4.05666e-09 -1.52485e-08 -4.83244e-09
-5.24532e-10 1.20804e-08 -8.07249e-10
-1.41607e-08 3.24315e-08 4.02346e-08
2.81329e-08 -5.59277e-08 2.70178e-08
0.0 0.0 0.0
3.15421e-08 -6.05974e-08 6.79019e-08
-4.27107e-11 1.14813e-08 3.92658e-09
-1.90237e-09 1.07537e-08 -7.91093e-09
-3.479e-09 -5.88285e-09 8.40202e-10
1.54451e-20 -3.78518e-21 -6.35275e-22
6.02187e-21 -5.94247e-21 1.05879e-21
-1.68509e-09 -1.90477e-09 -1.45562e-08
-1.32556e-08 -1.31443e-08 -2.98415e-08
-6.43864e-09 -5.29933e-09 -1.54668e-08
2.64698e-23 -5.82335e-22 0.0
-3.12847e-07 -8.64914e-08 -1.98555e-07
-1.27257e-09 2.82174e-09 1.15712e-08
-4.10549e-09 3.36533e-09 -1.19224e-08
-1.69724e-10 -1.1145e-08 3.09928e-09
-5.68132e-08 -6.3384e-08 5.31917e-08
1.17733e-09 6.8108e-11 -1.40125e-08
-1.33109e-10 1.10354e-08 4.25574e-09
0.0 0.0 0.0
5.99011e-20 1.36055e-20 -1.05879e-21
-9.06589e-10 -5.42147e-09 9.31969e-09
-1.0842e-19 -2.1684e-19 0.0
1.69407e-21 6.37128e-20 6.35275e-22
-1.24786e-09 1.22584e-08 -2.15178e-10
