# vtk DataFile Version 3.0
LIGGGHTS particles timestep 26400000
ASCII
DATASET POLYDATA
POINTS 107 float
0.0159238 0.0231334 0.0132891
0.0242546 0.020213 0.00583854
0.0226583 0.0153868 0.0145608
0.0552529 0.0189972 0.0058882
0.00938048 0.0183393 0.00587271
0.0260391 0.0196534 0.00594246
0.0764299 0.01907 0.00579421
0.0366849 0.0218066 0.0435188
0.0505376 0.0231399 0.012681
0.0437566 0.0227607 0.00932447
0.0339249 0.0173116 0.00624552
0.000591717 0.0149731 0.0435188
0.0478385 0.0156206 0.00893475
0.0364748 0.0208476 0.00623738
0.0332148 0.0212661 0.0151178
0.049528 0.0194806 0.00601095
0.0293464 0.0147879 0.0111945
0.0390386 0.0219328 0.0145284
0.0321345 0.0189505 0.00575821
0.003617 0.0285782 0.0435188
0.0860181 0.0183082 0.00577269
0.0177449 0.0174882 0.00600758
0.0487914 0.0191356 0.00718414
0.0270196 0.0220281 0.0144763
0.112778 0.0179068 0.0059233
0.0481408 0.0164413 0.00812589
0.0452523 0.0173614 0.00620617
0.0349285 0.0181778 0.00592251
0.0402142 0.0169248 0.0152436
0.0324179 0.0232959 0.0121094
0.0551402 0.017971 0.00596606
0.0415456 0.0149623 0.0101622
0.0471639 0.0148338 0.0118215
0.0466613 0.015638 0.0141333
0.0495262 0.0221297 0.00853741
0.0400715 0.0175332 0.0154984
0.0462967 0.0166601 0.0150772
0.0279583 0.0181493 0.0157331
0.0445051 0.0232217 0.0125345
0.0214483 0.0168437 0.00645098
0.0340095 0.0178122 0.015512
0.0425807 0.018369 0.00724396
0.0586827 0.0172628 0.00598816
0.0792478 0.0194315 0.00576454
0.0257394 0.0228071 0.00932184
0.0508459 0.0224704 0.0140714
0.0303903 0.00406748 0.0435188
0.0372298 0.0212413 0.0077833
0.0510868 0.0219202 0.0147529
0.0438472 0.0171169 0.00621343
0.0468489 0.0151398 0.0131223
0.0473953 0.0193073 0.0059321
0.0405579 0.0159285 0.0144146
0.0374352 0.0218769 0.00820704
0.0514165 0.0205059 0.0155559
0.044732 0.022834 0.0135914
0.0417466 0.0154036 0.00928342
0.0584376 0.0191695 0.00582359
0.0199302 0.014029 0.0129547
0.0228486 0.0151382 0.0136111
0.020084 0.0201843 0.0061153
0.0483694 0.017367 0.00756796
0.0221348 0.00230077 0.0435188
0.201805 0.0186174 0.00570934
0.043165 0.0209124 0.00761435
0.0305244 0.018078 0.00730996
0.0830234 0.0186618 0.00583976
0.0295355 0.0149662 0.0103618
0.067984 0.0193424 0.00575613
0.0460631 0.0176506 0.0155779
0.0441706 0.0233851 0.0111475
0.0428741 0.0194265 0.00721006
0.030089 0.01619 0.00829352
0.0253288 0.0204564 0.00590683
0.0422461 0.0168438 0.00778279
0.0449429 0.022308 0.0143199
0.0315331 0.0220965 0.00843017
0.0383457 0.0197753 0.00590075
0.026935 0.0188837 0.00598981
0.0336646 0.0194206 0.0157863
0.0490783 0.0205633 0.00749227
0.038498 0.0232682 0.0125033
0.047649 0.0151908 0.00979716
0.0221996 0.00109062 0.0435188
0.0474114 0.0148717 0.0108592
0.0386854 0.0228959 0.0134073
0.0368748 0.0194723 0.00735978
0.0501771 0.0233672 0.0112436
0.0561606 0.0173315 0.00595822
0.0895649 0.0187731 0.00575225
0.0354685 0.0148749 0.0106414
0.0343502 0.0164648 0.0149302
0.0457869 0.0189617 0.0158083
0.108836 0.0200055 0.00584234
0.0291151 0.0147981 0.01187
0.0394166 0.0203747 0.0156104
0.0356338 0.0151199 0.00970297
0.0413961 0.0148499 0.0110389
0.0260273 0.0232653 0.0105014
0.0360851 0.0162047 0.00824838
0.0312084 0.0211522 0.00768971
0.00937694 0.00505359 0.0435188
0.0457039 0.018685 0.00600217
0.0326998 0.0228491 0.0135512
0.0239797 0.0191467 0.00594569
0.0254808 0.018723 0.00589902
0.0434378 0.0218966 0.008237

VERTICES 107 214
1 0
1 1
1 2
1 3
1 4
1 5
1 6
1 7
1 8
1 9
1 10
1 11
1 12
1 13
1 14
1 15
1 16
1 17
1 18
1 19
1 20
1 21
1 22
1 23
1 24
1 25
1 26
1 27
1 28
1 29
1 30
1 31
1 32
1 33
1 34
1 35
1 36
1 37
1 38
1 39
1 40
1 41
1 42
1 43
1 44
1 45
1 46
1 47
1 48
1 49
1 50
1 51
1 52
1 53
1 54
1 55
1 56
1 57
1 58
1 59
1 60
1 61
1 62
1 63
1 64
1 65
1 66
1 67
1 68
1 69
1 70
1 71
1 72
1 73
1 74
1 75
1 76
1 77
1 78
1 79
1 80
1 81
1 82
1 83
1 84
1 85
1 86
1 87
1 88
1 89
1 90
1 91
1 92
1 93
1 94
1 95
1 96
1 97
1 98
1 99
1 100
1 101
1 102
1 103
1 104
1 105
1 106

POINT_DATA 107
SCALARS id int 1
LOOKUP_TABLE default
1
2
4
5
15
16
17
18
20
24
25
27
28
32
33
37
41
44
47
49
52
57
59
63
65
67
68
73
74
76
79
84
87
88
89
90
92
97
103
108
109
112
121
122
124
125
128
130
131
133
135
137
139
141
142
143
147
149
150
157
158
160
161
165
166
167
173
174
179
185
186
187
191
193
194
197
200
205
215
225
226
227
229
232
237
241
242
247
252
253
256
257
258
260
268
269
270
271
274
275
277
284
288
291
294
299
300

SCALARS type int 1
LOOKUP_TABLE default
1
1
1
1
1
1
1
1
1
1
1
1
1
1
1
1
1
1
1
1
1
1
1
1
1
1
1
1
1
1
1
1
1
1
1
1
1
1
1
1
1
1
1
1
1
1
1
1
1
1
1
1
1
1
1
1
1
1
1
1
1
1
1
1
1
1
1
1
1
1
1
1
1
1
1
1
1
1
1
1
1
1
1
1
1
1
1
1
1
1
1
1
1
1
1
1
1
1
1
1
1
1
1
1
1
1
1

SCALARS radius float 1
LOOKUP_TABLE default
0.0005
0.0005
0.0005
0.0005
0.0005
0.0005
0.0005
0.0005
0.0005
0.0005
0.0005
0.0005
0.0005
0.0005
0.0005
0.0005
0.0005
0.0005
0.0005
0.0005
0.0005
0.0005
0.0005
0.0005
0.0005
0.0005
0.0005
0.0005
0.0005
0.0005
0.0005
0.0005
0.0005
0.0005
0.0005
0.0005
0.0005
0.0005
0.0005
0.0005
0.0005
0.0005
0.0005
0.0005
0.0005
0.0005
0.0005
0.0005
0.0005
0.0005
0.0005
0.0005
0.0005
0.0005
0.0005
0.0005
0.0005
0.0005
0.0005
0.0005
0.0005
0.0005
0.0005
0.0005
0.0005
0.0005
0.0005
0.0005
0.0005
0.0005
0.0005
0.0005
0.0005
0.0005
0.0005
0.0005
0.0005
0.0005
0.0005
0.0005
0.0005
0.0005
0.0005
0.0005
0.0005
0.0005
0.0005
0.0005
0.0005
0.0005
0.0005
0.0005
0.0005
0.0005
0.0005
0.0005
0.0005
0.0005
0.0005
0.0005
0.0005
0.0005
0.0005
0.0005
0.0005
0.0005
0.0005

SCALARS mass float 1
LOOKUP_TABLE default
1.46608e-07
1.46608e-07
1.46608e-07
1.46608e-07
1.46608e-07
1.46608e-07
1.46608e-07
1.46608e-07
1.46608e-07
1.46608e-07
1.46608e-07
1.46608e-07
1.46608e-07
1.46608e-07
1.46608e-07
1.46608e-07
1.46608e-07
1.46608e-07
1.46608e-07
1.46608e-07
1.46608e-07
1.46608e-07
1.46608e-07
1.46608e-07
1.46608e-07
1.46608e-07
1.46608e-07
1.46608e-07
1.46608e-07
1.46608e-07
1.46608e-07
1.46608e-07
1.46608e-07
1.46608e-07
1.46608e-07
1.46608e-07
1.46608e-07
1.46608e-07
1.46608e-07
1.46608e-07
1.46608e-07
1.46608e-07
1.46608e-07
1.46608e-07
1.46608e-07
1.46608e-07
1.46608e-07
1.46608e-07
1.46608e-07
1.46608e-07
1.46608e-07
1.46608e-07
1.46608e-07
1.46608e-07
1.46608e-07
1.46608e-07
1.46608e-07
1.46608e-07
1.46608e-07
1.46608e-07
1.46608e-07
1.46608e-07
1.46608e-07
1.46608e-07
1.46608e-07
1.46608e-07
1.46608e-07
1.46608e-07
1.46608e-07
1.46608e-07
1.46608e-07
1.46608e-07
1.46608e-07
1.46608e-07
1.46608e-07
1.46608e-07
1.46608e-07
1.46608e-07
1.46608e-07
1.46608e-07
1.46608e-07
1.46608e-07
1.46608e-07
1.46608e-07
1.46608e-07
1.46608e-07
1.46608e-07
1.46608e-07
1.46608e-07
1.46608e-07
1.46608e-07
1.46608e-07
1.46608e-07
1.46608e-07
1.46608e-07
1.46608e-07
1.46608e-07
1.46608e-07
1.46608e-07
1.46608e-07
1.46608e-07
1.46608e-07
1.46608e-07
1.46608e-07
1.46608e-07
1.46608e-07
1.46608e-07

VECTORS velocity float
0.00498059 0.00103269 -0.00539178
-9.08592e-15 -1.46377e-15 1.48131e-13
0.00393213 0.00256966 0.00414608
-1.28531e-17 -1.79615e-17 -2.57183e-16
3.6438e-15 5.52334e-16 -3.69009e-14
2.09856e-14 3.38086e-15 -3.42138e-13
-1.46733e-15 8.8415e-15 3.39834e-14
-9.6879e-317 9.73506e-317 2.68131e-13
8.78092e-06 0.00676673 -0.0209556
3.75983e-05 -0.0102628 -0.0197778
-1.48023e-15 -9.43938e-15 -2.80376e-14
9.71467e-317 9.75789e-317 -8.23806e-13
9.80707e-05 -0.013806 0.016972
4.37214e-15 -1.48264e-14 6.83465e-14
6.07182e-05 0.0192754 -0.0109292
5.78914e-15 -1.24645e-14 -1.29438e-13
0.00230546 -0.00166438 0.00894313
0.000112754 0.0158525 -0.0147626
-1.51245e-14 -5.90556e-14 -1.44396e-13
-9.68849e-317 -9.75601e-317 2.88878e-12
-1.22496e-15 3.67096e-14 1.26767e-13
2.63427e-15 1.02204e-14 2.12834e-14
0.00180749 -0.0168541 0.000365471
0.000332365 0.0144887 -0.0151126
8.47265e-16 3.42756e-15 1.42032e-14
0.000306921 -0.0151106 0.0127313
-3.12624e-15 -1.7465e-14 -1.20236e-13
6.38096e-16 6.72375e-15 2.0002e-14
0.00321169 0.00179456 0.00420852
0.000478982 0.00259476 -0.0212913
-2.82236e-15 -3.83422e-15 -5.46135e-14
0.000853103 -0.00639341 0.0152714
-4.11884e-05 0.00172312 0.0210443
0.000660662 0.0107819 0.0150531
0.000146313 -0.0134329 -0.0183066
0.0034615 0.00885432 0.00056758
3.69556e-05 0.0181176 0.0133237
-0.000101975 0.0178718 0.00652766
9.7176e-05 0.00552306 -0.0207809
-2.39061e-14 5.08844e-14 1.84331e-13
0.000762039 0.0223734 0.0045466
0.000546551 -0.0189916 0.00353317
1.03704e-14 -2.1545e-14 -2.64999e-13
1.17937e-14 4.02072e-14 1.70231e-13
0.00233043 -0.00422191 -0.00721282
0.00167216 0.00775746 -0.0108246
-9.67556e-317 -9.75879e-317 -3.22607e-12
0.00323179 0.00473702 3.72345e-05
0.00111838 0.0159924 -0.0115191
5.5046e-16 -1.54254e-15 -8.51139e-15
0.000612812 0.00457497 0.0141813
4.73903e-15 -1.01782e-14 -1.05707e-13
0.000167771 0.0143666 0.0162604
0.00187802 -0.000399188 -0.00314982
0.000414903 0.0183881 -0.00722913
0.000852606 0.00873641 -0.015293
0.00112912 -0.0100297 0.0167373
8.11609e-15 -1.68456e-14 -2.07264e-13
-1.95954e-06 -3.64351e-05 5.63411e-05
0.00395813 0.00260438 0.00414228
5.51655e-15 -2.47683e-15 5.04898e-14
-6.65094e-05 -0.0215019 0.00744551
9.74157e-317 -9.69799e-317 9.23294e-13
-3.8561e-20 4.0743e-22 8.61844e-22
-5.85823e-05 -0.0206121 -0.010032
0.000581446 -0.0197166 0.00475302
1.15469e-14 3.23721e-14 -1.39058e-13
0.00105337 -0.00421859 0.0166203
3.90311e-15 7.5491e-15 2.61624e-13
0.000248048 0.0189688 0.0058806
0.00236373 -0.0021939 -0.0148134
-0.000344516 -0.0220794 -0.00377882
0.000335304 -0.0152992 0.0139571
9.29105e-15 1.4964e-15 -1.51478e-13
-0.000215381 -0.0202277 0.0101693
0.000595845 0.014749 -0.015044
0.000234987 -0.0148183 -0.0150282
6.09694e-15 -2.89367e-14 1.43234e-13
1.43021e-14 2.30938e-15 -2.33189e-13
0.00454513 0.00312205 0.00142089
-0.000425873 -0.0160556 -0.00793705
0.00023801 0.00395973 -0.0192389
0.000391711 -0.00818556 0.0191552
9.58743e-317 9.68145e-317 4.97437e-14
0.000474367 -0.00176283 0.0209373
-0.000366848 0.0135621 -0.0160996
4.02535e-06 -0.0218237 -0.00290041
0.00298109 0.000160139 -0.00978937
1.40318e-14 1.90623e-14 2.71525e-13
-1.31707e-14 1.89036e-14 2.53776e-13
0.000245232 -0.00365496 0.0200613
0.00350186 0.00253806 0.00201489
0.00108651 0.0181408 0.000692549
7.67064e-16 -1.26237e-15 -6.97605e-15
0.00209647 0.00115752 0.00700455
0.00363439 0.0100277 -0.00340179
0.00119118 -0.00693164 0.0141211
0.000938841 -0.00295896 0.0206796
0.000570365 -0.00481179 -0.019509
0.00140561 -0.0116737 0.0114407
0.00101859 -0.0137809 -0.00684323
-9.68799e-317 -9.69932e-317 9.23294e-13
-6.97874e-15 -3.90037e-14 -2.68502e-13
0.000319027 0.0103441 -0.0184744
-2.27373e-14 -4.6621e-14 -1.52821e-13
-2.07687e-14 -3.41827e-15 3.38791e-13
0.000712967 -0.0151992 -0.0124975

VECTORS force float
5.34382e-08 2.60359e-08 -3.15084e-08
1.32349e-23 -3.63959e-23 0.0
-1.58141e-09 -2.54746e-08 1.36626e-08
-2.75286e-21 1.60142e-21 0.0
-5.0822e-21 1.23018e-20 -2.11758e-22
-2.64698e-23 -3.93738e-22 0.0
-4.19215e-20 -1.27584e-20 6.35275e-22
0.0 0.0 0.0
-1.25081e-09 -9.27637e-09 -7.27672e-09
-3.97532e-10 -1.20952e-08 1.8446e-09
2.72864e-19 8.50209e-20 -3.64224e-20
0.0 0.0 0.0
-4.15328e-10 6.69604e-09 1.05909e-08
-5.4263e-22 1.05879e-22 -2.11758e-22
1.01314e-10 -2.79101e-09 -1.22361e-08
4.36751e-21 -3.91753e-21 4.23516e-22
-3.38454e-06 -3.26027e-06 -9.70524e-07
-1.27996e-09 -4.51303e-09 -1.06748e-08
-5.24102e-21 3.81165e-21 -2.5411e-21
0.0 0.0 0.0
-1.63914e-20 -2.11758e-21 6.35275e-22
-1.85288e-21 -3.17637e-22 4.23516e-22
-1.33329e-08 -3.20494e-08 1.0324e-08
-1.82117e-09 -3.72624e-09 -1.20291e-08
1.03232e-20 5.18808e-21 -1.69407e-21
-2.97785e-09 -4.0072e-09 1.62048e-08
1.74701e-21 -3.17637e-22 0.0
-1.56172e-21 -1.85288e-21 8.47033e-22
-6.10833e-08 -1.57856e-09 1.26258e-07
-1.95591e-08 2.28872e-08 -4.35371e-08
6.61744e-23 -2.64698e-23 0.0
4.1119e-09 1.88862e-08 -1.59851e-08
-2.32647e-10 1.13249e-08 7.22855e-09
8.855e-10 7.82354e-09 -1.01748e-08
1.31903e-09 -6.95252e-09 4.39413e-09
-1.7888e-06 3.22669e-08 3.50551e-07
-1.37946e-09 1.21565e-08 -4.03315e-09
8.7024e-09 -4.68983e-08 -3.20033e-08
-3.84753e-10 -9.21237e-09 -7.93881e-09
2.01964e-20 -3.19755e-20 1.2282e-20
3.29317e-08 1.05305e-07 -2.57334e-09
-3.08709e-09 -7.45079e-09 1.29863e-08
-1.31224e-20 3.29549e-21 -6.35275e-22
6.79215e-20 -5.43689e-20 8.68209e-21
8.19555e-06 6.99692e-06 6.98722e-06
9.59111e-06 1.61641e-05 -2.11323e-06
0.0 0.0 0.0
0.000134664 -9.08927e-06 4.39803e-05
-1.31887e-05 -5.63868e-06 6.09232e-06
-9.75411e-21 4.39398e-21 -1.05879e-21
-1.86023e-09 1.12874e-10 -9.53369e-09
2.67345e-21 1.53525e-21 0.0
-7.96632e-10 1.1138e-08 -3.98174e-09
1.16849e-06 -6.62222e-05 -4.63335e-05
-3.49766e-09 7.98117e-09 -1.38018e-08
1.42976e-08 -2.02056e-08 2.38403e-08
1.40216e-09 2.18104e-08 -2.08517e-08
8.89583e-20 2.08317e-20 1.90582e-21
4.62286e-09 -9.62698e-09 1.53631e-08
-2.23576e-09 -7.67273e-09 9.10495e-09
4.76456e-22 -8.66885e-21 -2.11758e-22
-6.64683e-09 -3.39664e-09 9.53829e-09
0.0 0.0 0.0
0.0 0.0 0.0
-2.94344e-08 -8.15627e-08 -4.07078e-08
-5.12093e-09 -9.25632e-09 1.15473e-08
-5.47924e-21 -1.74701e-21 -6.35275e-22
3.67803e-07 2.6726e-06 4.66128e-06
-3.19953e-21 -1.4651e-20 4.23516e-22
-2.54953e-09 1.74529e-08 -5.56348e-09
1.35385e-06 1.17843e-05 4.20507e-05
-8.17586e-09 1.82122e-09 2.32858e-08
-2.58815e-09 -3.29165e-10 1.40721e-08
0.0 1.65436e-24 0.0
5.1869e-09 2.46601e-09 1.30876e-08
-1.47318e-09 -1.13926e-08 2.85889e-10
-4.65401e-10 -1.11658e-08 2.70999e-09
-3.15718e-19 -5.66983e-20 4.23516e-22
3.61312e-21 -1.20189e-20 0.0
1.87861e-07 1.76655e-09 -9.67568e-08
-1.37924e-08 -4.39226e-09 2.87252e-08
-5.91348e-09 -2.24092e-08 9.81762e-09
-2.82398e-09 7.4079e-09 1.03317e-08
0.0 0.0 0.0
7.74525e-11 2.5636e-09 1.89275e-07
1.00042e-08 -1.30372e-08 2.74142e-09
-1.0509e-09 -4.98749e-09 1.07178e-08
2.47257e-08 1.22845e-08 1.12893e-07
-5.29396e-23 -1.32349e-23 0.0
7.93432e-20 1.51142e-20 3.38813e-21
-1.31575e-09 5.35906e-09 1.44142e-08
-2.80833e-08 -5.50928e-08 2.66306e-08
1.37918e-08 -2.43752e-08 -1.21726e-08
-8.99973e-22 0.0 0.0
-1.21824e-06 -1.50388e-06 1.18924e-06
3.08195e-06 2.54822e-06 5.25709e-07
6.17811e-10 1.41701e-08 -1.73448e-09
-1.60036e-08 -2.89419e-09 -1.69037e-08
-3.77474e-09 -1.11388e-08 -8.03108e-09
-1.07556e-08 -2.31783e-08 2.79699e-08
4.18372e-08 -1.06643e-07 -5.75159e-09
0.0 0.0 0.0
-1.47238e-20 3.04402e-21 0.0
-2.57797e-11 -6.53398e-09 -1.02054e-08
-1.82641e-21 5.29396e-22 4.23516e-22
2.44978e-20 -3.85747e-20 1.05879e-21
-3.53808e-09 -1.47548e-08 7.11976e-10
