# vtk DataFile Version 3.0
LIGGGHTS particles timestep 23000000
ASCII
DATASET POLYDATA
POINTS 108 float
0.0205474 0.0218896 0.0082996
0.0244521 0.0163052 0.0149995
0.0189696 0.015525 0.00902305
0.0552425 0.0189586 0.00589144
0.00938048 0.0183393 0.00587271
0.0260391 0.0196534 0.00594246
0.0421598 0.014897 0.0126182
0.0366849 0.0218066 0.0435188
0.0473524 0.0170858 0.0153532
0.0407929 0.0195352 0.0156803
0.0339249 0.0173116 0.00624552
0.000591717 0.0149731 0.0435188
0.044653 0.0222351 0.00854287
0.0364748 0.0208476 0.00623738
0.0303502 0.0147764 0.0114636
0.0434565 0.017187 0.00765277
0.0264775 0.0214191 0.00794952
0.0347225 0.0198259 0.015722
0.0195647 0.017502 0.00747061
0.003617 0.0285782 0.0435188
0.0860181 0.0183082 0.00577269
0.0177449 0.0174882 0.00600758
0.0453477 0.0233738 0.0113976
0.0236124 0.0221975 0.00867193
0.0203272 0.0141036 0.0129706
0.0443245 0.0208794 0.00758388
0.0449098 0.0228042 0.00947542
0.0452523 0.0173614 0.00620617
0.0349285 0.0181778 0.00592251
0.0363481 0.0147958 0.0114928
0.0294885 0.0165056 0.0149452
0.054387 0.0178804 0.00601135
0.0377385 0.0183918 0.00722603
0.0436696 0.0180489 0.00734991
0.0431898 0.0162984 0.00818352
0.0462327 0.0217428 0.0149016
0.0358136 0.0154821 0.013839
0.0429349 0.0154898 0.00923221
0.0237352 0.0157858 0.0145346
0.0415043 0.0165134 0.0149789
0.0214483 0.0168437 0.00645098
0.0311025 0.0159952 0.00849134
0.0392234 0.0232897 0.0106554
0.0586827 0.0172628 0.00598816
0.0792478 0.0194315 0.00576454
0.0163495 0.0232648 0.012915
0.0475552 0.0162074 0.0147123
0.0303903 0.00406748 0.0435188
0.0331905 0.0232718 0.0105034
0.0478236 0.015402 0.0137644
0.0235075 0.0165884 0.0152096
0.0466713 0.0201766 0.0156692
0.0473953 0.0193073 0.0059321
0.0369829 0.0155531 0.00900382
0.0335144 0.0233315 0.0121331
0.0481143 0.0150011 0.0125945
0.0416971 0.0158008 0.0142843
0.0386368 0.0221576 0.00846116
0.0584376 0.0191695 0.00582359
0.0194948 0.0240992 0.0129312
0.0183551 0.0146261 0.011931
0.020084 0.0201843 0.0061153
0.045201 0.0232201 0.0105634
0.0221348 0.00230077 0.0435188
0.201805 0.0186174 0.00570934
0.0404167 0.0209464 0.0153872
0.0276108 0.0232472 0.0125806
0.0830234 0.0186618 0.00583976
0.0267857 0.0225477 0.00896407
0.067984 0.0193424 0.00575613
0.0426916 0.0149829 0.0101498
0.0409871 0.0185204 0.0157111
0.0397783 0.0230479 0.0131461
0.0271843 0.0232488 0.0104308
0.0253029 0.02045 0.00590518
0.0388478 0.0227317 0.00925055
0.0419036 0.0152485 0.0135071
0.028547 0.0206084 0.0155332
0.0383457 0.0197753 0.00590075
0.026935 0.0188837 0.00598981
0.030734 0.0150383 0.0100354
0.0459915 0.0225952 0.0139844
0.0342525 0.0216944 0.014716
0.0440451 0.0198308 0.00726717
0.0221996 0.00109062 0.0435188
0.0438625 0.0190301 0.00716507
0.0344937 0.0207424 0.0153191
0.0328666 0.0227633 0.00927595
0.0471702 0.0177819 0.0155804
0.0557897 0.0172859 0.0059806
0.0895649 0.0187731 0.00575225
0.0319349 0.0194978 0.00725577
0.0315873 0.0176033 0.00742948
0.0423844 0.0147776 0.0113577
0.108836 0.0200055 0.00584234
0.0260469 0.0198296 0.00725479
0.0355187 0.0162312 0.0147269
0.0323647 0.0210285 0.00768457
0.0375178 0.0173706 0.0075302
0.0212009 0.0232803 0.0106015
0.0325904 0.0219712 0.00831481
0.0281327 0.0219981 0.0145929
0.00937694 0.00505359 0.0435188
0.0457039 0.018685 0.00600217
0.0296626 0.0157975 0.0143446
0.0239893 0.0191578 0.00594089
0.0254808 0.018723 0.00589902
0.0405939 0.0203817 0.0155639

VERTICES 108 216
1 0
1 1
1 2
1 3
1 4
1 5
1 6
1 7
1 8
1 9
1 10
1 11
1 12
1 13
1 14
1 15
1 16
1 17
1 18
1 19
1 20
1 21
1 22
1 23
1 24
1 25
1 26
1 27
1 28
1 29
1 30
1 31
1 32
1 33
1 34
1 35
1 36
1 37
1 38
1 39
1 40
1 41
1 42
1 43
1 44
1 45
1 46
1 47
1 48
1 49
1 50
1 51
1 52
1 53
1 54
1 55
1 56
1 57
1 58
1 59
1 60
1 61
1 62
1 63
1 64
1 65
1 66
1 67
1 68
1 69
1 70
1 71
1 72
1 73
1 74
1 75
1 76
1 77
1 78
1 79
1 80
1 81
1 82
1 83
1 84
1 85
1 86
1 87
1 88
1 89
1 90
1 91
1 92
1 93
1 94
1 95
1 96
1 97
1 98
1 99
1 100
1 101
1 102
1 103
1 104
1 105
1 106
1 107

POINT_DATA 108
SCALARS id int 1
LOOKUP_TABLE default
1
2
4
5
15
16
17
18
20
24
25
27
28
32
33
37
41
44
47
49
52
57
59
62
63
65
67
68
73
74
76
79
84
87
88
89
90
92
97
103
108
109
112
121
122
124
125
128
130
131
133
135
137
139
141
142
143
147
149
150
157
158
160
161
165
166
167
173
174
179
185
186
187
191
193
194
197
200
205
215
225
226
227
229
232
237
241
242
247
252
253
256
257
258
260
268
269
270
271
274
275
277
284
288
291
294
299
300

SCALARS type int 1
LOOKUP_TABLE default
1
1
1
1
1
1
1
1
1
1
1
1
1
1
1
1
1
1
1
1
1
1
1
1
1
1
1
1
1
1
1
1
1
1
1
1
1
1
1
1
1
1
1
1
1
1
1
1
1
1
1
1
1
1
1
1
1
1
1
1
1
1
1
1
1
1
1
1
1
1
1
1
1
1
1
1
1
1
1
1
1
1
1
1
1
1
1
1
1
1
1
1
1
1
1
1
1
1
1
1
1
1
1
1
1
1
1
1

SCALARS radius float 1
LOOKUP_TABLE default
0.0005
0.0005
0.0005
0.0005
0.0005
0.0005
0.0005
0.0005
0.0005
0.0005
0.0005
0.0005
0.0005
0.0005
0.0005
0.0005
0.0005
0.0005
0.0005
0.0005
0.0005
0.0005
0.0005
0.0005
0.0005
0.0005
0.0005
0.0005
0.0005
0.0005
0.0005
0.0005
0.0005
0.0005
0.0005
0.0005
0.0005
0.0005
0.0005
0.0005
0.0005
0.0005
0.0005
0.0005
0.0005
0.0005
0.0005
0.0005
0.0005
0.0005
0.0005
0.0005
0.0005
0.0005
0.0005
0.0005
0.0005
0.0005
0.0005
0.0005
0.0005
0.0005
0.0005
0.0005
0.0005
0.0005
0.0005
0.0005
0.0005
0.0005
0.0005
0.0005
0.0005
0.0005
0.0005
0.0005
0.0005
0.0005
0.0005
0.0005
0.0005
0.0005
0.0005
0.0005
0.0005
0.0005
0.0005
0.0005
0.0005
0.0005
0.0005
0.0005
0.0005
0.0005
0.0005
0.0005
0.0005
0.0005
0.0005
0.0005
0.0005
0.0005
0.0005
0.0005
0.0005
0.0005
0.0005
0.0005

SCALARS mass float 1
LOOKUP_TABLE default
1.46608e-07
1.46608e-07
1.46608e-07
1.46608e-07
1.46608e-07
1.46608e-07
1.46608e-07
1.46608e-07
1.46608e-07
1.46608e-07
1.46608e-07
1.46608e-07
1.46608e-07
1.46608e-07
1.46608e-07
1.46608e-07
1.46608e-07
1.46608e-07
1.46608e-07
1.46608e-07
1.46608e-07
1.46608e-07
1.46608e-07
1.46608e-07
1.46608e-07
1.46608e-07
1.46608e-07
1.46608e-07
1.46608e-07
1.46608e-07
1.46608e-07
1.46608e-07
1.46608e-07
1.46608e-07
1.46608e-07
1.46608e-07
1.46608e-07
1.46608e-07
1.46608e-07
1.46608e-07
1.46608e-07
1.46608e-07
1.46608e-07
1.46608e-07
1.46608e-07
1.46608e-07
1.46608e-07
1.46608e-07
1.46608e-07
1.46608e-07
1.46608e-07
1.46608e-07
1.46608e-07
1.46608e-07
1.46608e-07
1.46608e-07
1.46608e-07
1.46608e-07
1.46608e-07
1.46608e-07
1.46608e-07
1.46608e-07
1.46608e-07
1.46608e-07
1.46608e-07
1.46608e-07
1.46608e-07
1.46608e-07
1.46608e-07
1.46608e-07
1.46608e-07
1.46608e-07
1.46608e-07
1.46608e-07
1.46608e-07
1.46608e-07
1.46608e-07
1.46608e-07
1.46608e-07
1.46608e-07
1.46608e-07
1.46608e-07
1.46608e-07
1.46608e-07
1.46608e-07
1.46608e-07
1.46608e-07
1.46608e-07
1.46608e-07
1.46608e-07
1.46608e-07
1.46608e-07
1.46608e-07
1.46608e-07
1.46608e-07
1.46608e-07
1.46608e-07
1.46608e-07
1.46608e-07
1.46608e-07
1.46608e-07
1.46608e-07
1.46608e-07
1.46608e-07
1.46608e-07
1.46608e-07
1.46608e-07
1.46608e-07

VECTORS velocity float
-3.3124e-06 -0.0159069 -0.0139771
0.00556106 0.00454917 0.00274897
5.04973e-05 -0.0138082 0.0180008
-9.84474e-15 -1.33745e-14 -1.90504e-13
3.64495e-15 5.46436e-16 -3.69009e-14
2.09856e-14 3.38082e-15 -3.42138e-13
0.00224185 0.00152631 0.0114368
-9.6879e-317 9.73506e-317 2.68131e-13
0.00281554 0.012441 0.00726805
0.00131486 0.0177653 -0.00184579
-1.39744e-15 -9.38412e-15 -2.80587e-14
9.71467e-317 9.75789e-317 -8.23806e-13
0.000583158 -0.0111736 -0.0138205
4.37292e-15 -1.48263e-14 6.83465e-14
0.00331342 -0.00284717 0.00239198
0.0005388 -0.018094 0.00855091
2.53577e-05 -0.0177382 -0.0127197
0.00194408 0.0105616 -0.00149625
0.000626526 -0.0184712 0.00716098
-9.68849e-317 -9.75601e-317 2.88878e-12
-1.2278e-15 3.67086e-14 1.26768e-13
2.6248e-15 1.02255e-14 2.12821e-14
0.00103763 -0.000951762 -0.0129149
0.00238566 -0.00429705 -0.00485631
-0.0113499 0.00726916 -0.0219251
-0.000309871 -0.0176879 -0.0101159
5.85232e-05 -0.00985049 -0.0196931
-3.1255e-15 -1.74653e-14 -1.20236e-13
6.11011e-16 6.7251e-15 2.00024e-14
6.01177e-05 -0.000635398 0.0216164
0.00159813 0.0143259 0.0118016
-1.3005e-14 -1.76673e-14 -2.51655e-13
0.00077701 -0.0137104 0.000892033
0.00325985 -0.00111449 -0.000738408
0.00187954 -0.0100456 0.00849363
0.000720609 0.0151087 -0.0123653
5.57216e-05 0.0112776 0.0186945
0.000707895 -0.00810417 0.0149399
0.00357038 0.0057852 0.00442751
0.000738855 0.0118816 0.0107422
-2.3823e-14 5.0886e-14 1.84341e-13
0.00105019 -0.0147553 0.0140504
0.00163613 -0.00327687 -0.0121292
1.03815e-14 -2.15394e-14 -2.64999e-13
1.20306e-14 4.01136e-14 1.70237e-13
0.00199721 0.000897892 -0.0011665
0.000207278 0.0159272 0.0141934
-9.67556e-317 -9.75879e-317 -3.22607e-12
0.000921401 -0.00361584 -0.0118666
0.000309683 0.00869019 0.0176464
0.00442161 0.00056504 0.00206642
0.000450468 0.0202953 -0.00503793
4.73863e-15 -1.01792e-14 -1.05707e-13
0.00110491 -0.00926956 0.0136835
0.00136171 0.00155867 -0.0183644
0.000128015 0.00497989 0.0216149
0.000671766 0.0129898 0.0153129
0.000986408 -0.0126362 -0.0123691
8.1697e-15 -1.6842e-14 -2.07262e-13
5.5554e-06 0.000513882 -0.000317034
0.00514088 0.000310473 -0.000513185
5.51765e-15 -2.50557e-15 5.04883e-14
0.000288485 -0.00352033 -0.0144196
9.74157e-317 -9.69799e-317 9.23294e-13
-3.8561e-20 4.0743e-22 8.61844e-22
0.00272227 0.00485659 -0.00189879
0.000359415 0.00445178 -0.0195654
1.15582e-14 3.23714e-14 -1.39057e-13
0.00208466 -0.00928173 -0.0117583
3.91799e-15 7.51588e-15 2.61625e-13
0.000100174 -0.00707765 0.0203301
0.000423849 0.0204532 0.00209035
0.000742919 0.00773799 -0.0159322
0.000407639 -0.00546126 -0.0197627
-2.07804e-14 -3.34757e-15 3.38791e-13
0.000107129 -0.010666 -0.0188949
0.00143002 0.0080505 0.0135179
0.000289445 0.0202145 -0.00726869
6.13555e-15 -2.88796e-14 1.43244e-13
1.43031e-14 2.30432e-15 -2.33189e-13
0.000132729 -0.00753933 0.0203307
0.00110933 0.0094298 -0.0129275
-0.00126617 0.0183083 -0.0141612
0.00688696 -0.00969989 0.000206126
9.58743e-317 9.68145e-317 4.97437e-14
0.00107387 -0.0116687 0.00219921
0.000428489 0.0188155 -0.00874997
0.000243828 -0.0107379 -0.0191533
0.0023143 0.0154224 0.00288979
9.81919e-15 1.33364e-14 1.8999e-13
-1.30107e-14 1.90071e-14 2.53777e-13
8.67394e-05 -0.0215667 -0.00291153
0.000168997 -0.0210109 0.00692995
0.000258098 -0.000688529 0.0209391
7.67101e-16 -1.26237e-15 -6.97605e-15
-2.72923e-05 -0.0222392 -0.00527748
0.00127391 -0.00201291 0.000189831
0.000862063 -0.0155008 -0.00665018
0.000259986 -0.0187881 0.00821924
-0.000152592 -0.00384511 -0.0214019
0.00022107 -0.0156282 -0.014892
0.000321998 0.0144133 -0.0145361
-9.68799e-317 -9.69932e-317 9.23294e-13
-6.98137e-15 -3.90028e-14 -2.68502e-13
0.00104453 0.0129109 0.0139353
-8.4514e-15 -1.73091e-14 -5.67612e-14
-2.07826e-14 -3.33962e-15 3.38791e-13
0.00317198 0.00969607 -0.00233416

VECTORS force float
4.97486e-08 -1.5614e-07 -2.48873e-07
2.68086e-09 2.53594e-08 5.12995e-09
3.79167e-10 6.53811e-09 9.90727e-09
-3.97047e-22 -3.70577e-22 0.0
1.27055e-21 -1.06309e-20 0.0
-3.97047e-23 -3.47416e-22 0.0
-1.0405e-08 1.31738e-09 -2.40837e-08
0.0 0.0 0.0
-1.10247e-08 -3.16936e-09 -9.33304e-09
1.91708e-09 -2.00843e-08 6.20655e-09
6.46418e-19 -3.70577e-21 -1.927e-20
0.0 0.0 0.0
7.71088e-10 -1.43848e-08 1.45871e-08
-1.12364e-20 1.00585e-21 8.47033e-22
1.85327e-08 -8.65881e-08 -3.61738e-07
-7.14145e-07 -3.15678e-07 7.93482e-08
-1.57086e-09 -9.75861e-09 6.6355e-09
5.07651e-08 -3.86054e-07 1.69508e-07
-3.38648e-09 -3.32311e-09 1.78591e-08
0.0 0.0 0.0
3.27332e-20 3.70577e-22 2.11758e-22
1.85288e-22 1.27055e-21 -6.35275e-22
-9.89658e-05 2.0107e-05 -3.32771e-05
-4.51938e-09 4.16262e-08 2.24204e-08
-1.38247e-07 1.63701e-07 -4.38654e-07
1.93151e-08 -2.9959e-08 3.97507e-08
-1.09361e-09 -1.24512e-08 1.68547e-09
3.77194e-21 -1.32349e-22 0.0
6.33289e-20 1.69936e-20 -7.83505e-21
-5.77177e-10 1.12796e-08 4.81237e-09
-2.37193e-08 -1.58942e-08 7.65158e-09
3.70577e-22 -3.97047e-22 0.0
5.91929e-07 5.47427e-07 -1.20244e-07
1.11647e-06 5.50929e-07 4.05464e-07
6.09524e-06 -3.6456e-05 -1.12199e-05
-4.85752e-09 5.01042e-09 -1.7055e-08
-9.13887e-10 1.18778e-08 -2.47305e-09
-1.73637e-08 -4.6296e-08 1.11967e-07
3.76406e-08 -6.65809e-08 -4.35787e-08
3.9619e-09 -7.42361e-08 -5.8635e-08
-3.03344e-20 -3.28755e-20 1.69407e-21
-3.82095e-08 -1.10211e-08 7.33099e-08
-6.68469e-09 -2.15851e-08 -4.80922e-08
-1.70002e-20 -6.32628e-21 0.0
9.41133e-20 -2.34522e-20 -2.11758e-21
3.54618e-09 1.40134e-08 8.59773e-08
-2.39167e-09 1.23533e-08 -4.23297e-09
0.0 0.0 0.0
1.82169e-07 -1.85394e-07 4.4523e-07
1.30977e-08 -1.36936e-08 -5.45845e-08
-2.46508e-09 3.83861e-09 1.98227e-08
-2.32124e-10 2.41281e-09 -1.07656e-08
1.10247e-20 6.00864e-21 -2.11758e-22
9.46203e-09 3.38951e-08 -3.07484e-08
2.1586e-06 -2.46403e-06 3.21128e-06
6.2439e-10 1.27436e-08 9.14687e-10
-9.42419e-09 1.98464e-08 1.56741e-08
-1.56573e-08 -5.15864e-08 -3.24207e-08
-4.55346e-20 -2.51066e-20 2.11758e-22
1.08605e-10 1.05388e-08 -7.57773e-09
-3.56125e-09 -1.60498e-08 2.53184e-08
-2.65227e-20 4.44295e-20 5.0822e-21
0.000195685 0.000259027 0.000870463
0.0 0.0 0.0
0.0 0.0 0.0
6.77212e-09 -2.85645e-08 4.89755e-08
-1.43614e-08 9.65989e-09 -3.4683e-08
-1.10419e-19 2.2764e-21 -8.04681e-21
-1.27908e-08 -3.60665e-08 -3.37093e-08
7.7927e-20 -6.79215e-20 8.47033e-22
-5.27654e-10 9.65223e-09 8.17792e-09
-2.34718e-09 8.06908e-09 -9.92651e-09
-1.24086e-07 1.25001e-07 -2.56978e-07
-4.01236e-09 -1.0462e-08 -9.60718e-09
0.0 -1.45253e-21 0.0
3.91935e-09 -5.0752e-09 2.03071e-08
-3.86702e-09 4.08372e-08 3.66174e-08
-6.0883e-10 1.88739e-09 -1.27112e-08
-6.96228e-19 -4.40457e-20 2.0117e-20
3.17637e-22 -1.43268e-21 0.0
2.62129e-10 4.6696e-09 1.5772e-08
5.18651e-09 -3.00447e-08 6.11354e-08
-1.53378e-08 5.50042e-09 -3.1288e-09
-3.43629e-05 4.50923e-05 -1.40035e-06
0.0 0.0 0.0
-7.93573e-05 -1.96105e-05 -3.31886e-05
-3.61085e-09 2.81261e-09 -1.27137e-08
-5.55617e-09 -1.43719e-08 -9.03257e-09
-1.40082e-08 4.01951e-08 -2.10445e-09
1.00585e-20 -1.29173e-20 4.23516e-22
-6.8795e-20 -2.00641e-20 -1.90582e-21
1.1463e-10 -5.41586e-09 1.0959e-08
-2.8811e-09 -9.30273e-09 1.36651e-08
-1.35097e-09 1.07403e-08 6.23245e-09
0.0 0.0 0.0
-1.19648e-10 -6.29669e-09 1.1011e-08
2.75425e-08 -6.83208e-08 -9.791e-08
-4.89282e-09 -2.10522e-08 -1.15288e-09
-6.79836e-10 -2.85779e-09 1.25506e-08
5.88368e-09 -4.31179e-09 -2.42246e-09
-1.11951e-09 -1.18765e-08 1.2469e-09
-1.47015e-09 -2.07233e-09 -1.31611e-08
0.0 0.0 0.0
8.8012e-22 2.11758e-22 -2.11758e-22
-8.08498e-09 1.94331e-08 5.38332e-09
-6.16746e-21 2.32934e-21 2.11758e-22
5.9557e-22 1.9356e-22 0.0
-2.12678e-08 -5.26781e-08 7.23918e-08
