# vtk DataFile Version 3.0
LIGGGHTS particles timestep 19600000
ASCII
DATASET POLYDATA
POINTS 109 float
0.0198769 0.0151299 0.00974693
0.0194927 0.0146259 0.0119312
0.0209848 0.0188799 0.00718751
0.0552425 0.0189586 0.00589144
0.00938048 0.0183393 0.00587271
0.0260148 0.0196703 0.00594114
0.0388076 0.0181776 0.00727242
0.0366849 0.0218066 0.0435188
0.0439476 0.0153811 0.00937036
0.0366342 0.0163547 0.0148663
0.0338436 0.0175423 0.00617057
0.000591717 0.0149731 0.0435188
0.0416021 0.0208009 0.0154643
0.0210061 0.0240111 0.0129748
0.0274078 0.0208515 0.00761247
0.0406109 0.0233494 0.0117879
0.0219216 0.0225836 0.00907552
0.0316092 0.0147654 0.0111623
0.0202396 0.015901 0.00855673
0.003617 0.0285782 0.0435188
0.0434559 0.0148078 0.0115668
0.0177449 0.0174882 0.00600758
0.0422138 0.0182326 0.0157071
0.0170394 0.0141747 0.0134586
0.0189586 0.0154332 0.0141727
0.0414536 0.0214921 0.0149616
0.0417502 0.0200805 0.0156866
0.0423691 0.0173512 0.0154244
0.033606 0.0194093 0.00581187
0.0326396 0.0175819 0.00743847
0.0264347 0.0165634 0.00800036
0.054387 0.0178804 0.00601135
0.0336779 0.0218275 0.00816165
0.040788 0.0231887 0.012774
0.0398908 0.0223947 0.0087509
0.0428743 0.0157539 0.0142654
0.0323802 0.0163022 0.00817481
0.0394803 0.0212089 0.00775628
0.019176 0.0231851 0.0103252
0.037489 0.0148297 0.0115849
0.0213738 0.0207833 0.00762219
0.0214483 0.0168437 0.00645098
0.0280993 0.0230023 0.00969419
0.0349327 0.0228639 0.0134736
0.0586827 0.0172628 0.00598816
0.0446446 0.0176525 0.00747526
0.0187682 0.0161379 0.0148559
0.0442314 0.0160199 0.00849923
0.0303903 0.00406748 0.0435188
0.0301948 0.0183206 0.0157246
0.0440411 0.0147736 0.0119659
0.0222456 0.0232143 0.0103474
0.0431144 0.0150766 0.0131013
0.0465254 0.0191962 0.00590655
0.0329323 0.0187259 0.00725474
0.0306241 0.0164104 0.0149153
0.0450214 0.0191086 0.00719661
0.0378078 0.015019 0.0100414
0.0343311 0.0233193 0.0107215
0.0584376 0.0191695 0.00582359
0.0207168 0.0159427 0.0148704
0.018368 0.0234834 0.0118194
0.020084 0.0201843 0.0061153
0.0420013 0.0191471 0.0157543
0.0221348 0.00230077 0.0435188
0.201805 0.0186174 0.00570934
0.0360919 0.01878 0.0156479
0.0228196 0.0231634 0.0128705
0.0801305 0.0198856 0.00588445
0.0210711 0.0144252 0.0127928
0.067984 0.0193424 0.00575613
0.0392918 0.0203128 0.0073573
0.0370226 0.0152598 0.013491
0.0355226 0.0210646 0.0151907
0.024644 0.0165817 0.0152053
0.0245476 0.0198163 0.00585259
0.0346207 0.0233706 0.0118048
0.0380743 0.0155717 0.00899878
0.0251095 0.0182447 0.0158747
0.036805 0.0202346 0.00608327
0.026935 0.0188837 0.00598981
0.0278038 0.022168 0.00849197
0.0426253 0.0163891 0.0148723
0.0309543 0.0154983 0.0139129
0.0412 0.0222615 0.0143047
0.0221996 0.00109062 0.0435188
0.040961 0.0228581 0.0135272
0.0312755 0.0149796 0.0125069
0.0299822 0.019266 0.0158054
0.0436998 0.0149318 0.0106479
0.0557897 0.0172859 0.0059806
0.0895649 0.0187731 0.00575225
0.028872 0.0230125 0.0132332
0.0286013 0.0233605 0.011737
0.0390694 0.0192159 0.00719347
0.108836 0.0200055 0.00584234
0.0173684 0.0234804 0.011814
0.0318508 0.0150741 0.00992302
0.0294632 0.0214404 0.0151092
0.0334401 0.0211792 0.00774612
0.0197915 0.0156867 0.0146392
0.0296481 0.0204997 0.0155153
0.0238508 0.0201146 0.0158148
0.00937694 0.00505359 0.0435188
0.0245273 0.0214789 0.0152385
0.0269882 0.0188325 0.00719914
0.0244213 0.0175449 0.0156807
0.0254808 0.018723 0.00589902
0.03643 0.0171715 0.0152453

VERTICES 109 218
1 0
1 1
1 2
1 3
1 4
1 5
1 6
1 7
1 8
1 9
1 10
1 11
1 12
1 13
1 14
1 15
1 16
1 17
1 18
1 19
1 20
1 21
1 22
1 23
1 24
1 25
1 26
1 27
1 28
1 29
1 30
1 31
1 32
1 33
1 34
1 35
1 36
1 37
1 38
1 39
1 40
1 41
1 42
1 43
1 44
1 45
1 46
1 47
1 48
1 49
1 50
1 51
1 52
1 53
1 54
1 55
1 56
1 57
1 58
1 59
1 60
1 61
1 62
1 63
1 64
1 65
1 66
1 67
1 68
1 69
1 70
1 71
1 72
1 73
1 74
1 75
1 76
1 77
1 78
1 79
1 80
1 81
1 82
1 83
1 84
1 85
1 86
1 87
1 88
1 89
1 90
1 91
1 92
1 93
1 94
1 95
1 96
1 97
1 98
1 99
1 100
1 101
1 102
1 103
1 104
1 105
1 106
1 107
1 108

POINT_DATA 109
SCALARS id int 1
LOOKUP_TABLE default
1
2
4
5
15
16
17
18
20
24
25
27
28
32
33
37
41
44
47
49
52
57
59
62
63
65
67
68
73
74
76
79
84
87
88
89
90
92
97
103
106
108
109
112
121
122
124
125
128
130
131
133
135
137
139
141
142
143
147
149
150
157
158
160
161
165
166
167
173
174
179
185
186
187
191
193
194
197
200
205
215
225
226
227
229
232
237
241
242
247
252
253
256
257
258
260
268
269
270
271
274
275
277
284
288
291
294
299
300

SCALARS type int 1
LOOKUP_TABLE default
1
1
1
1
1
1
1
1
1
1
1
1
1
1
1
1
1
1
1
1
1
1
1
1
1
1
1
1
1
1
1
1
1
1
1
1
1
1
1
1
1
1
1
1
1
1
1
1
1
1
1
1
1
1
1
1
1
1
1
1
1
1
1
1
1
1
1
1
1
1
1
1
1
1
1
1
1
1
1
1
1
1
1
1
1
1
1
1
1
1
1
1
1
1
1
1
1
1
1
1
1
1
1
1
1
1
1
1
1

SCALARS radius float 1
LOOKUP_TABLE default
0.0005
0.0005
0.0005
0.0005
0.0005
0.0005
0.0005
0.0005
0.0005
0.0005
0.0005
0.0005
0.0005
0.0005
0.0005
0.0005
0.0005
0.0005
0.0005
0.0005
0.0005
0.0005
0.0005
0.0005
0.0005
0.0005
0.0005
0.0005
0.0005
0.0005
0.0005
0.0005
0.0005
0.0005
0.0005
0.0005
0.0005
0.0005
0.0005
0.0005
0.0005
0.0005
0.0005
0.0005
0.0005
0.0005
0.0005
0.0005
0.0005
0.0005
0.0005
0.0005
0.0005
0.0005
0.0005
0.0005
0.0005
0.0005
0.0005
0.0005
0.0005
0.0005
0.0005
0.0005
0.0005
0.0005
0.0005
0.0005
0.0005
0.0005
0.0005
0.0005
0.0005
0.0005
0.0005
0.0005
0.0005
0.0005
0.0005
0.0005
0.0005
0.0005
0.0005
0.0005
0.0005
0.0005
0.0005
0.0005
0.0005
0.0005
0.0005
0.0005
0.0005
0.0005
0.0005
0.0005
0.0005
0.0005
0.0005
0.0005
0.0005
0.0005
0.0005
0.0005
0.0005
0.0005
0.0005
0.0005
0.0005

SCALARS mass float 1
LOOKUP_TABLE default
1.46608e-07
1.46608e-07
1.46608e-07
1.46608e-07
1.46608e-07
1.46608e-07
1.46608e-07
1.46608e-07
1.46608e-07
1.46608e-07
1.46608e-07
1.46608e-07
1.46608e-07
1.46608e-07
1.46608e-07
1.46608e-07
1.46608e-07
1.46608e-07
1.46608e-07
1.46608e-07
1.46608e-07
1.46608e-07
1.46608e-07
1.46608e-07
1.46608e-07
1.46608e-07
1.46608e-07
1.46608e-07
1.46608e-07
1.46608e-07
1.46608e-07
1.46608e-07
1.46608e-07
1.46608e-07
1.46608e-07
1.46608e-07
1.46608e-07
1.46608e-07
1.46608e-07
1.46608e-07
1.46608e-07
1.46608e-07
1.46608e-07
1.46608e-07
1.46608e-07
1.46608e-07
1.46608e-07
1.46608e-07
1.46608e-07
1.46608e-07
1.46608e-07
1.46608e-07
1.46608e-07
1.46608e-07
1.46608e-07
1.46608e-07
1.46608e-07
1.46608e-07
1.46608e-07
1.46608e-07
1.46608e-07
1.46608e-07
1.46608e-07
1.46608e-07
1.46608e-07
1.46608e-07
1.46608e-07
1.46608e-07
1.46608e-07
1.46608e-07
1.46608e-07
1.46608e-07
1.46608e-07
1.46608e-07
1.46608e-07
1.46608e-07
1.46608e-07
1.46608e-07
1.46608e-07
1.46608e-07
1.46608e-07
1.46608e-07
1.46608e-07
1.46608e-07
1.46608e-07
1.46608e-07
1.46608e-07
1.46608e-07
1.46608e-07
1.46608e-07
1.46608e-07
1.46608e-07
1.46608e-07
1.46608e-07
1.46608e-07
1.46608e-07
1.46608e-07
1.46608e-07
1.46608e-07
1.46608e-07
1.46608e-07
1.46608e-07
1.46608e-07
1.46608e-07
1.46608e-07
1.46608e-07
1.46608e-07
1.46608e-07
1.46608e-07

VECTORS velocity float
0.00036364 -0.00870166 0.017456
0.00513352 0.000343332 -0.000571361
0.000550795 -0.0195927 0.00134548
-9.84483e-15 -1.33754e-14 -1.90504e-13
3.64399e-15 5.42925e-16 -3.6901e-14
1.76433e-14 2.84486e-15 -2.87664e-13
0.000377924 -0.019865 0.00289906
-9.6879e-317 9.73506e-317 2.68131e-13
0.000307756 -0.00902654 0.0175281
0.00274893 0.0077858 0.00658757
-2.2493e-16 -1.91567e-15 -5.62126e-15
9.71467e-317 9.75789e-317 -8.23806e-13
0.00177139 0.0136429 -0.00544151
-0.000197537 0.000755259 -0.00090471
0.000835059 -0.0182429 -0.00778037
0.000384546 0.00190671 -0.0219142
0.000519586 -0.010841 -0.0139915
0.000104368 -0.00249669 0.0225757
0.000453985 -0.0141408 0.0151143
-9.68849e-317 -9.75601e-317 2.88878e-12
0.000426739 0.000151344 0.0219666
2.6257e-15 1.02259e-14 2.12818e-14
0.00176445 0.0170779 0.00467332
0.00050983 0.000453022 -0.0015544
-6.75196e-05 0.0147052 0.0193311
0.00100699 0.0142242 -0.0115646
0.000720364 0.0184164 -0.00416903
0.000187847 0.0192537 0.00905527
-7.02909e-15 -4.06923e-14 1.57631e-13
0.00160463 -0.0168906 0.00701885
0.000848568 -0.017452 0.0101616
-1.30056e-14 -1.76672e-14 -2.51655e-13
0.0038228 -0.0018839 -0.00243807
0.000233605 0.00401872 -0.0198659
0.000646689 -0.011105 -0.014749
0.00065803 0.0126275 0.0156168
0.000851798 -0.0138433 0.0122734
0.000207089 -0.0184558 -0.0112633
0.00131632 -0.00519732 -0.0155917
0.000115037 -7.02889e-05 0.0222579
0.00063105 -0.0185242 -0.00929629
-2.3787e-14 5.09412e-14 1.8433e-13
0.000140919 -0.00844287 -0.0206035
-0.000175698 0.0103037 -0.0192874
1.03982e-14 -2.15428e-14 -2.64998e-13
0.000128635 -0.0203246 0.00686569
-0.0004322 0.0184139 0.0167763
0.00243573 -0.00764309 0.0109398
-9.67556e-317 -9.75879e-317 -3.22607e-12
0.000483281 0.0206164 0.00423903
0.00385426 0.000942968 0.0196615
0.000257292 -0.00553802 -0.0206769
0.000277372 0.00786252 0.0189764
2.33246e-15 1.3384e-14 9.20544e-14
-9.12691e-05 -0.0224866 0.000475271
0.000305267 0.01654 0.0135872
0.00164369 -0.0155721 0.00119782
0.00210112 -0.000573146 0.0041765
0.00171639 -0.00193393 -0.0133877
8.09864e-15 -1.68438e-14 -2.07265e-13
0.000344968 0.0168127 0.0140016
-7.5206e-06 -0.000429754 0.0001533
5.51573e-15 -2.47837e-15 5.04899e-14
0.000163018 0.0195476 -0.000272462
9.74157e-317 -9.69799e-317 9.23294e-13
-3.8561e-20 4.0743e-22 8.61844e-22
0.000939562 0.0216611 0.00511288
0.00115345 0.00436978 -0.0174314
-9.5282e-15 -2.67156e-14 1.14756e-13
-0.030325 0.0280464 -0.0966158
3.90834e-15 7.51969e-15 2.61625e-13
0.000709327 -0.0176705 -0.00486556
0.000158288 0.00977364 0.0188247
0.000289812 0.0157173 -0.0100059
0.00218927 0.0107473 0.00793153
2.60864e-15 4.21355e-16 -4.25291e-14
0.000484318 0.00120663 -0.0201586
0.000545032 -0.00842288 0.0118065
-1.06378e-10 0.0201739 0.00385926
3.20347e-15 -9.79283e-15 4.51254e-14
1.43031e-14 2.30441e-15 -2.33189e-13
0.00110871 -0.0129162 -0.0120974
0.00174349 0.0132109 0.00937849
0.000223132 0.00990075 0.017
5.64312e-05 0.0150599 -0.0159664
9.58743e-317 9.68145e-317 4.97437e-14
0.000526913 0.0119592 -0.0166496
0.00272199 0.00458535 0.0149309
0.00376055 0.00991098 -0.00153552
0.000140103 -0.00535023 0.0218112
9.81483e-15 1.33407e-14 1.8999e-13
-1.31243e-14 1.89714e-14 2.53774e-13
-0.000126347 0.0101507 -0.0197925
0.000232917 0.00125135 -0.0211454
0.000141047 -0.021682 -0.0013167
7.67071e-16 -1.26279e-15 -6.97597e-15
-0.000100573 -0.000306508 0.000128556
0.00051049 -0.00659959 0.0184263
0.000718902 0.00891874 -0.00493405
0.00217677 0.00221539 -0.00128742
0.00106652 0.00407431 0.0238893
0.000187961 0.020292 -0.00696721
0.000383044 0.02078 -0.00507579
-9.68799e-317 -9.69932e-317 9.23294e-13
-0.0094567 0.0111486 -0.00616296
0.00124012 -0.0182563 0.00169426
-8.59184e-12 0.0192807 0.00699825
-2.07824e-14 -3.35431e-15 3.38791e-13
0.00186508 0.0151841 0.00626525

VECTORS force float
-1.25099e-08 9.67339e-09 -2.47207e-08
-1.06374e-08 -1.87618e-08 3.36412e-08
-3.54198e-09 -1.54767e-08 1.15493e-08
-7.01449e-22 -1.72054e-22 0.0
-1.27055e-21 9.29751e-22 0.0
7.01449e-22 -1.23035e-20 0.0
5.93398e-09 7.44211e-08 -3.21657e-08
0.0 0.0 0.0
-2.63575e-09 3.67554e-09 1.56632e-08
-3.68961e-05 4.9248e-05 3.75869e-05
-1.75971e-19 1.12179e-19 -3.3246e-20
0.0 0.0 0.0
2.7103e-07 -2.40413e-06 3.00488e-06
-1.707e-09 8.14902e-09 -6.11927e-09
-1.03373e-08 -2.25452e-08 -2.18721e-09
-9.02226e-09 -4.52443e-09 -1.79246e-08
-2.4927e-09 -1.54416e-08 -4.51781e-09
5.89086e-10 1.23835e-08 3.36008e-10
-1.84164e-09 2.49048e-09 1.28405e-08
0.0 0.0 0.0
-7.3938e-07 -2.29117e-07 8.44003e-07
-4.2881e-21 5.29396e-22 2.11758e-22
1.09229e-08 -7.41135e-09 -5.73373e-08
-7.5181e-09 -1.10795e-08 3.35749e-08
-1.42318e-07 -5.93078e-06 3.77918e-06
-3.11042e-06 8.52047e-06 -4.69175e-06
7.64147e-07 -3.33473e-06 7.23158e-07
-1.69302e-09 7.16648e-09 -9.70578e-09
8.11563e-20 -1.73112e-20 -1.05879e-21
8.66033e-08 -2.91338e-08 1.25226e-07
1.90039e-08 3.29145e-08 -4.79523e-09
1.90582e-21 -1.04556e-21 0.0
-0.0001214 -7.39984e-06 -6.57571e-05
-1.76395e-08 1.0256e-08 -1.12262e-07
2.09785e-09 -4.30843e-09 1.82366e-08
-3.0147e-09 1.60459e-08 -1.17034e-09
-4.86601e-09 -4.9845e-09 1.94374e-08
1.1914e-10 -1.26188e-09 1.43534e-08
-1.5593e-08 -1.93612e-08 -8.69073e-08
-3.32887e-10 1.13904e-08 2.35338e-09
-4.78556e-09 -9.02533e-09 6.33304e-09
-4.08693e-19 2.2007e-19 -1.14561e-19
2.47841e-10 -1.26284e-08 -7.15013e-10
-2.68988e-09 7.84126e-09 -1.21645e-09
-1.21761e-20 4.56604e-21 -8.47033e-22
-5.79963e-10 -9.14456e-10 1.20282e-08
-6.32453e-07 9.95916e-07 3.46843e-06
-4.47492e-09 -5.57682e-08 8.92927e-08
0.0 0.0 0.0
2.37959e-10 -1.773e-08 -1.80664e-08
-2.95561e-06 -3.84291e-07 -2.87796e-06
1.21796e-10 -8.9843e-09 -3.48634e-09
-2.39279e-09 1.29856e-08 4.51625e-09
-3.0652e-20 4.04988e-21 4.23516e-22
-1.25886e-08 -2.34911e-08 5.33732e-09
1.07457e-10 9.79095e-09 -6.25779e-09
-1.32652e-08 -3.30459e-08 6.40258e-09
-3.79498e-06 -6.22121e-06 1.78569e-05
2.5786e-09 1.14694e-08 6.66263e-08
-1.54186e-20 -4.72353e-20 3.17637e-21
-3.86906e-07 6.78052e-06 -1.40374e-06
-1.98059e-09 8.35273e-09 -4.50547e-08
4.71162e-21 -1.16202e-20 -1.05879e-21
-5.23248e-08 -3.99661e-07 -1.03932e-07
0.0 0.0 0.0
0.0 0.0 0.0
2.37702e-09 3.98171e-09 -1.31871e-08
-7.82915e-09 6.54384e-09 -4.07161e-08
1.32349e-22 0.0 0.0
-1.71572e-07 3.42192e-07 -9.28295e-07
7.66201e-20 -1.93957e-20 -6.35275e-22
-8.09799e-09 -3.04638e-08 1.19346e-08
-6.99234e-10 1.23155e-08 4.35682e-10
-3.06706e-09 5.46449e-08 -5.78617e-08
-6.80501e-09 2.8801e-08 1.35385e-08
-5.29396e-23 -4.74636e-21 0.0
-5.23927e-09 -7.81215e-09 -1.76856e-08
-6.28886e-09 5.22506e-09 2.73341e-08
4.00656e-13 2.68837e-09 -1.34074e-08
1.69661e-18 -2.16523e-20 -1.10538e-19
3.04402e-22 1.838e-21 0.0
-1.33136e-08 -8.89819e-08 -5.74616e-08
-1.67815e-08 4.02509e-08 2.38952e-08
-3.65058e-09 5.09132e-08 3.05297e-08
-1.83878e-09 -4.99206e-09 -1.07085e-08
0.0 0.0 0.0
6.06932e-09 8.75441e-09 -9.32552e-09
-7.13705e-09 4.20284e-09 8.35538e-09
-1.81958e-08 4.92789e-08 6.24119e-09
4.52216e-08 9.31279e-08 -9.30554e-08
6.8292e-21 -6.68362e-21 2.11758e-22
9.3081e-20 6.97743e-20 -6.35275e-22
2.07925e-09 -9.50944e-09 -8.52699e-09
-1.14615e-09 -9.50305e-09 -8.3167e-09
-1.35284e-09 -7.23217e-09 1.02874e-08
0.0 1.27055e-21 -2.11758e-22
2.59575e-07 1.37509e-07 4.42516e-07
-6.21897e-09 4.33372e-09 1.18473e-08
-5.49029e-06 -3.27664e-05 1.71007e-05
5.87469e-05 2.88767e-05 2.10652e-05
-3.76909e-06 2.96681e-05 -9.96017e-06
-2.34607e-09 1.59003e-09 -1.15428e-08
-5.50184e-10 -1.13809e-09 -1.5217e-08
0.0 0.0 0.0
-1.282e-08 7.48981e-09 -3.64522e-08
-1.13999e-08 -2.92798e-08 6.81338e-09
2.30248e-14 4.70036e-09 -1.28143e-08
-5.72938e-20 2.08474e-19 -1.27055e-21
-5.13284e-07 5.97192e-06 4.36141e-06
