# vtk DataFile Version 3.0
LIGGGHTS particles timestep 7200000
ASCII
DATASET POLYDATA
POINTS 195 float
0.0190226 0.0154568 0.0090859
0.0210728 0.0137414 0.0142052
0.0200219 0.0237697 0.0143549
0.0193972 0.0234534 0.0150685
0.0280431 0.0207056 0.0154665
0.0179711 0.0150522 0.0154213
0.0234124 0.0154998 0.0141038
0.0195614 0.0243768 0.0134341
0.00938048 0.0183393 0.00587271
0.0187216 0.0159965 0.00845862
0.0261285 0.0210893 0.00776805
0.0366849 0.0218066 0.0435188
0.0164174 0.0198606 0.0158772
0.0304851 0.0154134 0.0091867
0.0184468 0.0244077 0.0137876
0.0256634 0.0205475 0.0166047
0.0178707 0.0236178 0.0139503
0.0181871 0.0232354 0.016092
0.0174661 0.014556 0.0145751
0.0283007 0.0197234 0.0157833
0.021692 0.0163931 0.0160698
0.0206018 0.0243658 0.0138001
0.0154667 0.0146423 0.0143736
0.0251495 0.0165232 0.0080254
0.0178072 0.0145617 0.0126212
0.0145512 0.0219545 0.0159016
0.0272027 0.0232802 0.012493
0.0220823 0.0237796 0.0139115
0.0246343 0.0157288 0.00870065
0.0204574 0.0145374 0.0141952
0.0190982 0.0236748 0.0139712
0.0165912 0.0220437 0.0159776
0.021315 0.0231011 0.0132438
0.003617 0.0285782 0.0435188
0.0273286 0.0103166 0.0333988
0.0203245 0.0223175 0.00873583
0.0272274 0.0228882 0.00941674
0.0102001 0.0210816 0.0680396
0.0196051 0.0193773 0.00612808
0.0290139 0.0167073 0.0150623
0.0188985 0.0142104 0.0144665
0.0159429 0.0216263 0.0151116
0.0203048 0.0230344 0.0149705
0.0286156 0.0215722 0.0149816
0.0285817 0.0186883 0.0158081
0.0292739 0.0158304 0.0144031
0.0144375 0.0169584 0.016339
0.0220036 0.0228186 0.0137922
0.0204706 0.0240458 0.0124891
0.019639 0.0149212 0.0146579
0.0269742 0.0233782 0.0113843
0.0162295 0.0232647 0.0130503
0.0188161 0.015037 0.0134051
0.0241259 0.0186572 0.0159356
0.0208441 0.0231694 0.0102066
0.0251467 0.0148941 0.0216537
0.0274448 0.0227797 0.0135363
0.0295272 0.0152104 0.0133205
0.0299933 0.0147695 0.0114384
0.0210473 0.0154683 0.015353
0.0228373 0.0237456 0.0148111
0.0265961 0.0230783 0.00991591
0.0230993 0.0155968 0.015473
0.0171066 0.0241072 0.0143727
0.0218204 0.0233461 0.0126972
0.0211036 0.023717 0.014636
0.0243479 0.0150943 0.00978174
0.0184882 0.0226074 0.0153745
0.0165831 0.0188773 0.0159556
0.0192712 0.0240995 0.0124653
0.0214483 0.0168437 0.00645098
0.0251197 0.0214827 0.0168169
0.0178494 0.0207099 0.0156286
0.022882 0.0230851 0.013726
0.0165377 0.0230775 0.0158757
0.0240861 0.0167448 0.0152968
0.0189849 0.0238869 0.0158695
0.0551527 0.0181697 0.00595147
0.0310148 0.0170932 0.00764517
0.0163373 0.0143728 0.0139619
0.0307539 0.0161334 0.00833237
0.0154924 0.0229683 0.0135947
0.0196969 0.0200163 0.00730788
0.0303903 0.00406748 0.0435188
0.018472 0.0210744 0.0163209
0.0161525 0.0207821 0.0155938
0.019136 0.0144001 0.0127037
0.0302033 0.0148863 0.0104843
0.0185339 0.0146224 0.011937
0.0160428 0.0234005 0.0170159
0.0165607 0.0235554 0.0149952
0.0256 0.0182806 0.0166689
0.0315077 0.019203 0.00722551
0.0249209 0.016832 0.0158403
0.0178676 0.0113302 0.0237186
0.0209709 0.0141219 0.0132953
0.023564 0.0151079 0.0132186
0.0570019 0.0175547 0.00590579
0.0200255 0.0140371 0.0129808
0.0182996 0.0155821 0.0142818
0.000771391 0.00134964 0.0554394
0.0236994 0.0160497 0.0176328
0.0177825 0.024054 0.0130611
0.0231021 0.0165936 0.0152037
0.0288407 0.0205231 0.0155379
0.0221348 0.00230077 0.0435188
0.0226859 0.0229593 0.0154735
0.017484 0.0232501 0.014786
0.0157972 0.0224846 0.0155596
0.0157034 0.022674 0.0145266
0.0171134 0.0204673 0.0162608
0.0192243 0.015846 0.0145886
0.0177681 0.0240453 0.0165193
0.0208226 0.023601 0.0156529
0.0230311 0.0148473 0.0147661
0.0199505 0.0155126 0.0154239
0.0167832 0.0179084 0.0158054
0.0264466 0.0226812 0.00911738
0.0246824 0.0178146 0.0157797
0.0225606 0.018966 0.0160559
0.023699 0.0176262 0.0157101
0.0258927 0.0195038 0.0168287
0.0195547 0.0144606 0.0137546
0.0236476 0.0228997 0.0151764
0.0249628 0.0148773 0.0105187
0.0211401 0.0239616 0.0130946
0.0148422 0.0231605 0.0148378
0.0170181 0.0212645 0.0155194
0.0237638 0.0148312 0.0123427
0.0250351 0.0172553 0.00759724
0.0213524 0.0148205 0.0146351
-0.00229104 0.00212726 0.0433494
0.0217699 0.0233641 0.010944
0.000864278 -0.0146799 0.0589898
0.0249563 0.0216719 0.0159629
0.0189381 0.0137343 0.0134229
0.0177561 0.0164644 0.0151282
0.0167364 0.0221314 0.0147935
0.0175492 0.0222949 0.0158013
0.0168583 0.0239514 0.0134198
0.0204865 0.0146309 0.0151904
0.0297738 0.0148923 0.0122726
0.01895 0.0167123 0.00785586
0.0165549 0.0227307 0.0140046
0.0279087 0.0214077 0.0150804
0.0144 0.0210772 0.016357
0.0432173 -0.018652 0.0228798
0.0221996 0.00109062 0.0435188
0.0194858 0.0225257 0.0154306
0.027716 0.022068 0.0144168
0.0171524 0.0230981 0.0132922
0.0233543 0.0217037 0.0150784
0.0207931 0.00776367 0.0336209
0.0172448 0.0141508 0.013522
0.0141322 0.0226664 0.0153383
0.0307034 0.014748 0.0110408
0.0191097 0.0175554 0.00742082
0.0167885 0.0238221 0.0165
0.0166441 0.0150612 0.0149916
0.0194421 0.0189228 0.00718155
0.0198211 0.0233106 0.0159649
0.0159318 0.0236059 0.0142243
0.0173305 0.0157825 0.0145332
0.0187169 0.0239775 0.0168284
0.0220617 0.0219944 0.0150494
0.0178831 0.0215883 0.0151519
0.0262399 0.0220305 0.00849612
0.108836 0.0200055 0.00584234
0.0184758 0.0233421 0.0146967
0.0222994 0.0141525 0.0147066
0.0173597 0.0236393 0.015699
0.0155603 0.021682 0.0161097
0.0176701 0.0223161 0.0145098
0.0238971 0.0158402 0.0149091
0.0202506 0.0217379 0.00812799
0.0181089 0.0138331 0.0139729
0.0217907 0.0143507 0.0138688
0.0209562 0.00560763 0.0371835
0.0205189 0.0162526 0.0161233
0.0156441 0.0234303 0.015356
0.0227607 0.0180124 0.0158311
0.0158045 0.0225384 0.0165687
0.0241438 0.0148361 0.0107624
0.00937694 0.00505359 0.0435188
0.0162683 0.0208896 0.0165947
0.017565 0.0151665 0.013724
0.0245064 0.0158169 0.0157033
0.0136324 0.0203982 0.0165735
0.0245191 0.0223185 0.0162311
0.0189536 0.0133607 0.0179704
0.020233 0.0190135 0.00716419
0.0135671 0.0218017 0.0159914
0.0170755 0.0234418 0.0121823
0.024947 0.0190645 0.00586966
0.0233791 0.0195256 0.0159267

VERTICES 195 390
1 0
1 1
1 2
1 3
1 4
1 5
1 6
1 7
1 8
1 9
1 10
1 11
1 12
1 13
1 14
1 15
1 16
1 17
1 18
1 19
1 20
1 21
1 22
1 23
1 24
1 25
1 26
1 27
1 28
1 29
1 30
1 31
1 32
1 33
1 34
1 35
1 36
1 37
1 38
1 39
1 40
1 41
1 42
1 43
1 44
1 45
1 46
1 47
1 48
1 49
1 50
1 51
1 52
1 53
1 54
1 55
1 56
1 57
1 58
1 59
1 60
1 61
1 62
1 63
1 64
1 65
1 66
1 67
1 68
1 69
1 70
1 71
1 72
1 73
1 74
1 75
1 76
1 77
1 78
1 79
1 80
1 81
1 82
1 83
1 84
1 85
1 86
1 87
1 88
1 89
1 90
1 91
1 92
1 93
1 94
1 95
1 96
1 97
1 98
1 99
1 100
1 101
1 102
1 103
1 104
1 105
1 106
1 107
1 108
1 109
1 110
1 111
1 112
1 113
1 114
1 115
1 116
1 117
1 118
1 119
1 120
1 121
1 122
1 123
1 124
1 125
1 126
1 127
1 128
1 129
1 130
1 131
1 132
1 133
1 134
1 135
1 136
1 137
1 138
1 139
1 140
1 141
1 142
1 143
1 144
1 145
1 146
1 147
1 148
1 149
1 150
1 151
1 152
1 153
1 154
1 155
1 156
1 157
1 158
1 159
1 160
1 161
1 162
1 163
1 164
1 165
1 166
1 167
1 168
1 169
1 170
1 171
1 172
1 173
1 174
1 175
1 176
1 177
1 178
1 179
1 180
1 181
1 182
1 183
1 184
1 185
1 186
1 187
1 188
1 189
1 190
1 191
1 192
1 193
1 194

POINT_DATA 195
SCALARS id int 1
LOOKUP_TABLE default
1
2
3
4
5
7
11
13
15
16
17
18
19
20
23
24
25
26
27
28
29
31
32
33
34
35
37
40
41
43
44
45
47
49
50
51
52
54
57
59
62
63
64
65
67
68
71
73
74
76
79
80
83
84
85
86
87
88
89
90
91
92
95
97
99
102
103
104
105
106
108
109
110
112
114
116
118
121
122
124
125
126
127
128
130
131
133
135
137
138
139
141
142
143
145
147
148
149
150
151
153
154
157
158
160
161
164
165
166
167
170
171
173
174
175
177
179
185
186
187
191
192
193
194
197
199
200
201
203
205
206
208
211
214
215
218
220
221
223
224
225
226
227
228
229
230
231
232
235
237
239
240
241
242
246
247
248
249
250
251
252
253
254
255
256
257
258
260
262
263
264
268
269
270
271
272
273
274
275
276
277
282
283
284
285
286
288
289
291
293
294
296
298
299
300

SCALARS type int 1
LOOKUP_TABLE default
1
1
1
1
1
1
1
1
1
1
1
1
1
1
1
1
1
1
1
1
1
1
1
1
1
1
1
1
1
1
1
1
1
1
1
1
1
1
1
1
1
1
1
1
1
1
1
1
1
1
1
1
1
1
1
1
1
1
1
1
1
1
1
1
1
1
1
1
1
1
1
1
1
1
1
1
1
1
1
1
1
1
1
1
1
1
1
1
1
1
1
1
1
1
1
1
1
1
1
1
1
1
1
1
1
1
1
1
1
1
1
1
1
1
1
1
1
1
1
1
1
1
1
1
1
1
1
1
1
1
1
1
1
1
1
1
1
1
1
1
1
1
1
1
1
1
1
1
1
1
1
1
1
1
1
1
1
1
1
1
1
1
1
1
1
1
1
1
1
1
1
1
1
1
1
1
1
1
1
1
1
1
1
1
1
1
1
1
1
1
1
1
1
1
1

SCALARS radius float 1
LOOKUP_TABLE default
0.0005
0.0005
0.0005
0.0005
0.0005
0.0005
0.0005
0.0005
0.0005
0.0005
0.0005
0.0005
0.0005
0.0005
0.0005
0.0005
0.0005
0.0005
0.0005
0.0005
0.0005
0.0005
0.0005
0.0005
0.0005
0.0005
0.0005
0.0005
0.0005
0.0005
0.0005
0.0005
0.0005
0.0005
0.0005
0.0005
0.0005
0.0005
0.0005
0.0005
0.0005
0.0005
0.0005
0.0005
0.0005
0.0005
0.0005
0.0005
0.0005
0.0005
0.0005
0.0005
0.0005
0.0005
0.0005
0.0005
0.0005
0.0005
0.0005
0.0005
0.0005
0.0005
0.0005
0.0005
0.0005
0.0005
0.0005
0.0005
0.0005
0.0005
0.0005
0.0005
0.0005
0.0005
0.0005
0.0005
0.0005
0.0005
0.0005
0.0005
0.0005
0.0005
0.0005
0.0005
0.0005
0.0005
0.0005
0.0005
0.0005
0.0005
0.0005
0.0005
0.0005
0.0005
0.0005
0.0005
0.0005
0.0005
0.0005
0.0005
0.0005
0.0005
0.0005
0.0005
0.0005
0.0005
0.0005
0.0005
0.0005
0.0005
0.0005
0.0005
0.0005
0.0005
0.0005
0.0005
0.0005
0.0005
0.0005
0.0005
0.0005
0.0005
0.0005
0.0005
0.0005
0.0005
0.0005
0.0005
0.0005
0.0005
0.0005
0.0005
0.0005
0.0005
0.0005
0.0005
0.0005
0.0005
0.0005
0.0005
0.0005
0.0005
0.0005
0.0005
0.0005
0.0005
0.0005
0.0005
0.0005
0.0005
0.0005
0.0005
0.0005
0.0005
0.0005
0.0005
0.0005
0.0005
0.0005
0.0005
0.0005
0.0005
0.0005
0.0005
0.0005
0.0005
0.0005
0.0005
0.0005
0.0005
0.0005
0.0005
0.0005
0.0005
0.0005
0.0005
0.0005
0.0005
0.0005
0.0005
0.0005
0.0005
0.0005
0.0005
0.0005
0.0005
0.0005
0.0005
0.0005
0.0005
0.0005
0.0005
0.0005
0.0005
0.0005

SCALARS mass float 1
LOOKUP_TABLE default
1.46608e-07
1.46608e-07
1.46608e-07
1.46608e-07
1.46608e-07
1.46608e-07
1.46608e-07
1.46608e-07
1.46608e-07
1.46608e-07
1.46608e-07
1.46608e-07
1.46608e-07
1.46608e-07
1.46608e-07
1.46608e-07
1.46608e-07
1.46608e-07
1.46608e-07
1.46608e-07
1.46608e-07
1.46608e-07
1.46608e-07
1.46608e-07
1.46608e-07
1.46608e-07
1.46608e-07
1.46608e-07
1.46608e-07
1.46608e-07
1.46608e-07
1.46608e-07
1.46608e-07
1.46608e-07
1.46608e-07
1.46608e-07
1.46608e-07
1.46608e-07
1.46608e-07
1.46608e-07
1.46608e-07
1.46608e-07
1.46608e-07
1.46608e-07
1.46608e-07
1.46608e-07
1.46608e-07
1.46608e-07
1.46608e-07
1.46608e-07
1.46608e-07
1.46608e-07
1.46608e-07
1.46608e-07
1.46608e-07
1.46608e-07
1.46608e-07
1.46608e-07
1.46608e-07
1.46608e-07
1.46608e-07
1.46608e-07
1.46608e-07
1.46608e-07
1.46608e-07
1.46608e-07
1.46608e-07
1.46608e-07
1.46608e-07
1.46608e-07
1.46608e-07
1.46608e-07
1.46608e-07
1.46608e-07
1.46608e-07
1.46608e-07
1.46608e-07
1.46608e-07
1.46608e-07
1.46608e-07
1.46608e-07
1.46608e-07
1.46608e-07
1.46608e-07
1.46608e-07
1.46608e-07
1.46608e-07
1.46608e-07
1.46608e-07
1.46608e-07
1.46608e-07
1.46608e-07
1.46608e-07
1.46608e-07
1.46608e-07
1.46608e-07
1.46608e-07
1.46608e-07
1.46608e-07
1.46608e-07
1.46608e-07
1.46608e-07
1.46608e-07
1.46608e-07
1.46608e-07
1.46608e-07
1.46608e-07
1.46608e-07
1.46608e-07
1.46608e-07
1.46608e-07
1.46608e-07
1.46608e-07
1.46608e-07
1.46608e-07
1.46608e-07
1.46608e-07
1.46608e-07
1.46608e-07
1.46608e-07
1.46608e-07
1.46608e-07
1.46608e-07
1.46608e-07
1.46608e-07
1.46608e-07
1.46608e-07
1.46608e-07
1.46608e-07
1.46608e-07
1.46608e-07
1.46608e-07
1.46608e-07
1.46608e-07
1.46608e-07
1.46608e-07
1.46608e-07
1.46608e-07
1.46608e-07
1.46608e-07
1.46608e-07
1.46608e-07
1.46608e-07
1.46608e-07
1.46608e-07
1.46608e-07
1.46608e-07
1.46608e-07
1.46608e-07
1.46608e-07
1.46608e-07
1.46608e-07
1.46608e-07
1.46608e-07
1.46608e-07
1.46608e-07
1.46608e-07
1.46608e-07
1.46608e-07
1.46608e-07
1.46608e-07
1.46608e-07
1.46608e-07
1.46608e-07
1.46608e-07
1.46608e-07
1.46608e-07
1.46608e-07
1.46608e-07
1.46608e-07
1.46608e-07
1.46608e-07
1.46608e-07
1.46608e-07
1.46608e-07
1.46608e-07
1.46608e-07
1.46608e-07
1.46608e-07
1.46608e-07
1.46608e-07
1.46608e-07
1.46608e-07
1.46608e-07
1.46608e-07
1.46608e-07
1.46608e-07
1.46608e-07
1.46608e-07
1.46608e-07
1.46608e-07
1.46608e-07
1.46608e-07
1.46608e-07
1.46608e-07

VECTORS velocity float
-3.11454e-05 -0.0132369 0.017279
9.90551e-05 0.000559105 -0.000617117
0.000476909 0.000291954 -0.00146811
-8.33975e-05 0.000966982 -0.00183648
1.75521e-05 0.0198444 -0.00760099
0.136524 0.121318 -0.0300445
0.00460059 0.00666863 0.0259957
0.00145122 0.000177528 -0.00107073
3.64507e-15 5.43205e-16 -3.6901e-14
0.000403835 -0.0143771 0.0145913
2.58584e-05 -0.0157159 -0.0101469
-9.6879e-317 9.73506e-317 2.68131e-13
0.00325227 0.0064154 -0.000370088
0.00374174 -0.00298848 0.00510446
-0.00218709 -0.000957717 -0.000487062
0.00871181 -0.0291296 0.00123104
0.00451604 -0.0115073 -0.00776778
0.0043339 0.00371491 -0.0046098
0.0146956 -0.0279685 0.0175232
0.000437032 0.0188344 -0.00338481
0.0120015 0.0147504 0.00933656
0.000262058 5.55166e-05 -0.000621439
-0.00290164 0.000504911 0.00294584
-0.000665264 -0.0153309 0.00858251
0.00437845 0.00174413 0.00414929
0.00346777 0.00120639 -0.000152628
0.000321438 0.00521909 -0.0187512
6.87909e-05 0.000249524 0.00074578
0.00132497 -0.0114351 0.0139936
-0.00157351 -0.00987253 -0.0203532
0.00103689 0.000388975 -0.00153977
0.00809997 0.00773648 -0.00376918
0.0013504 0.00335441 -0.00743283
-9.68849e-317 -9.75601e-317 2.88878e-12
-0.0938914 0.0750465 -0.26551
0.000662528 -0.011514 -0.0138499
0.00393002 -0.00717301 -0.0140136
-0.117981 -0.0101682 -0.0654788
-3.58934e-14 1.61053e-14 -3.28527e-13
0.00040021 0.0176577 0.0116001
-0.00178366 0.00126897 -0.00591728
0.00474784 0.00129402 4.02685e-06
0.00329744 0.00270578 -0.000881941
0.00611701 0.00566807 -0.00595409
0.000827483 0.0193663 0.00155061
0.00105183 0.0127615 0.0141681
0.00155425 -0.00186624 -0.0018849
-0.0024417 0.000696961 3.98207e-05
-0.00127663 -0.00122198 -0.00105153
-0.00802599 -0.000571189 -0.0177912
8.91805e-05 0.000317483 -0.0221837
0.00234404 0.00165493 -0.000688057
-0.00277632 -0.00092451 -0.00230367
-4.49922e-08 0.0204972 0.00166306
-3.06675e-05 -0.0029676 -0.0100928
-0.0966634 0.0621214 -0.318961
-0.000194812 0.0121732 -0.0189158
-3.61727e-05 0.00839824 0.0206554
0.0004366 0.000489308 0.0180971
0.000558446 -0.00245824 0.00121037
-0.00303236 0.00689983 -0.0482668
0.000231154 -0.00690373 -0.0189974
-0.0231784 -0.0307974 -0.0507977
0.00356254 0.000611647 -0.000818674
0.000886372 0.00109965 -0.00114109
-0.0750365 0.0221631 -0.0548815
0.000341801 -0.00953516 0.0198663
0.00176016 0.00358499 -0.00534318
0.00337311 0.0068677 0.000162855
0.000334328 -0.00289964 0.000578933
-2.38452e-14 5.08776e-14 1.8434e-13
-0.000166976 0.000655197 -0.000506996
0.00311199 0.0108617 -0.00308746
-0.00051175 -0.000183391 5.30203e-05
0.00492544 0.00179264 -0.00120676
0.000477901 0.0176642 0.0106796
0.000161369 0.000102163 -0.00160832
-1.30045e-14 -1.76675e-14 -2.51655e-13
0.000737788 -0.0122593 0.00518021
-0.000672607 0.00361138 0.00545991
0.00058453 -0.0150867 0.0139567
0.00360976 0.000884201 -0.00382218
2.81269e-05 -0.0213609 -0.00601089
-9.67556e-317 -9.75879e-317 -3.22607e-12
0.00368133 0.0244285 -0.00901292
0.00510103 0.00229062 0.000274367
0.00105543 0.00125482 -0.0026656
4.8911e-06 -0.00524501 0.0183186
-0.000797588 0.000816439 -0.00136867
0.00200536 0.0020927 -1.38168e-05
0.00212064 0.00238424 0.00182652
-0.0122989 -0.0782652 -0.0126523
7.82888e-05 -0.0221094 -0.00206828
0.00105382 0.0177199 0.00977852
-0.0398661 0.109974 -0.267716
0.000980686 0.0017623 -0.00182126
0.000272114 0.00746268 0.0172933
4.37256e-15 1.18891e-14 2.80767e-13
0.00146952 0.00177334 -0.00326574
-0.00279269 0.00620116 0.00682185
-0.163972 -0.0706628 -0.222639
-0.0492521 -0.0508701 -0.0365613
0.00088396 -0.00158341 -0.0102642
0.000179835 0.0185818 0.0123613
-6.06847e-05 0.0201204 -0.0069165
9.74157e-317 -9.69799e-317 9.23294e-13
0.0024172 -0.035307 -0.0295184
0.00120464 0.0055573 0.00294493
0.00549113 0.00292458 -0.00157849
0.00796084 -0.0151218 -0.01153
0.00191949 0.00790524 -0.00124732
-3.92805e-05 0.010223 0.0113391
0.00316444 -0.000222751 -0.00127728
0.000208781 -0.00634427 -0.0037916
0.00844859 -0.0106775 0.00709785
-0.031148 0.0304592 -0.0892751
0.00461371 0.00258343 -0.0009603
0.00122997 -0.0094605 -0.0131181
2.0901e-10 0.0198122 0.00554714
0.000487209 0.0219188 -0.00225949
-1.11718e-08 0.0194678 0.00648861
0.00594316 -0.00524296 0.0134417
7.64801e-05 0.00174988 -0.00404326
0.0660731 -0.00880407 0.102534
0.000796848 -0.00515017 0.0205715
0.000456562 0.000984828 -0.00190207
-0.000283202 -0.00108536 -2.60684e-05
0.00414077 0.00684848 -0.0036059
0.000420709 0.00396801 0.0200528
0.00177117 -0.0166493 0.00761829
-0.00544089 0.00114604 0.00280633
-0.232708 -0.171935 -0.296939
-5.93516e-05 0.000119987 -0.00596855
-0.215277 -0.245334 -0.144718
0.000335241 0.00296035 -0.00111288
0.00159264 0.000717159 -0.00300972
0.00621205 0.0122644 0.00847911
0.00319769 0.00461813 -0.000224211
0.0125495 0.012806 -0.00148611
-0.00209361 -0.000158891 0.000687193
-0.00262304 0.00115347 -0.0214619
0.000499846 0.00431777 0.0198488
0.000217776 -0.0146028 0.00882351
0.0053253 0.00826192 -0.0116641
0.000823321 0.0154536 -0.0103318
0.00234065 0.00184926 0.000226922
0.138445 -0.266072 -0.717178
9.58743e-317 9.68145e-317 4.97437e-14
-0.000302609 0.00088944 -0.00212305
0.000599258 0.0140893 -0.0152724
0.00836712 0.00628624 -0.0117232
0.020172 -0.0614485 0.0270051
-0.0119566 0.0910848 -0.171578
-0.016954 -0.0429725 -0.0594651
-0.000548485 0.000300157 0.00108921
0.00180501 -0.00272395 0.0194249
0.000431711 -0.0181652 0.00720756
0.00175857 -3.86198e-06 -0.00131079
-0.0129159 -0.0120172 -0.00919385
0.000928688 -0.0186305 -0.000509365
-0.025227 -0.0094382 -0.00257902
0.00216215 0.00090646 -0.000588158
0.00138196 0.0107196 0.0122029
0.00368187 0.00195232 -0.00377609
0.0688394 -0.0604132 0.0832265
0.00242876 0.00854824 -0.00692646
0.000812383 -0.0141727 -0.0131769
7.67075e-16 -1.27689e-15 -6.9733e-15
0.00162994 0.00316631 -0.00354465
-0.00198198 -0.00566592 0.00764747
0.00119105 -0.000925771 -0.00236594
0.000142517 0.00829905 -0.00260916
0.00211851 0.00685404 -0.00746959
0.0165953 0.0188194 0.0152244
-0.000479336 -0.0101353 -0.00851084
-0.00352307 0.00436146 -0.0113951
0.002557 0.00204762 0.00676874
-0.0234958 0.0751651 -0.172185
-0.048562 0.0181374 -0.0547741
8.59726e-06 0.00253079 -0.00221678
0.000481962 0.0202033 0.00501312
-0.0028922 0.00898395 -0.0110252
0.000128272 -0.00401197 0.0211265
-9.68799e-317 -9.69932e-317 9.23294e-13
-0.000757908 -0.0190899 0.0062151
0.00568995 -0.0108853 -0.00761671
0.0176043 0.0174962 0.0121485
-8.0614e-10 0.0238573 -0.00639066
-6.85641e-05 0.000780278 2.55442e-05
-0.0490398 0.108206 -0.351659
0.00278109 -0.013822 0.00059118
0.00286968 0.00517489 -0.000867315
0.00188408 0.000569099 -0.00139616
2.65296e-15 3.14992e-16 -4.25275e-14
0.000917405 0.021262 -0.00238002

VECTORS force float
4.40384e-10 7.40328e-09 8.92926e-09
2.81209e-09 -1.27259e-08 1.50697e-08
-1.51993e-06 -3.45134e-07 7.78621e-07
2.50313e-06 2.79351e-06 -1.90686e-06
1.45442e-09 -2.55704e-10 -1.13002e-08
0.0 0.0 -1.43822e-06
6.56697e-06 5.36396e-07 -4.74221e-06
-7.91804e-06 -1.09715e-06 -9.92937e-07
-5.16161e-21 1.88101e-20 -2.11758e-22
1.30979e-09 1.13653e-08 -3.97219e-09
-3.68668e-08 2.59569e-07 1.92491e-07
0.0 0.0 0.0
1.08158e-06 -2.34028e-06 1.38231e-07
2.03713e-06 1.47547e-06 -1.57463e-06
-6.71355e-06 -9.20937e-07 -6.40014e-06
0.0 0.0 -1.43822e-06
-1.24352e-05 -1.1736e-05 -2.9552e-05
-8.46944e-07 2.0431e-07 -2.64971e-07
0.0 0.0 -1.43822e-06
-2.2751e-09 9.98583e-09 -1.50481e-08
0.0 0.0 -1.43822e-06
-1.82974e-07 2.69642e-08 -1.97447e-07
3.09636e-07 -1.81231e-07 -1.54167e-07
-1.39446e-08 -5.50529e-09 4.69888e-08
-6.00837e-08 -2.69225e-08 3.81153e-08
-2.2138e-07 4.58073e-08 -2.0789e-07
-6.70362e-09 -3.96022e-09 4.37023e-08
-1.75256e-06 1.48812e-07 -3.04099e-06
-6.53235e-09 -2.11305e-09 2.70959e-08
2.36665e-08 -4.77531e-07 -7.05078e-07
-1.29206e-05 2.35968e-07 5.76719e-06
-5.06075e-06 -2.5951e-06 6.12226e-06
-1.64125e-07 1.44117e-07 -9.67789e-08
0.0 0.0 0.0
-2.16117e-07 2.51745e-07 -9.6381e-07
-1.77637e-08 4.9771e-08 7.81654e-08
-1.46815e-06 -4.08774e-07 2.89379e-07
0.0 0.0 -1.43822e-06
-1.82641e-21 -8.54974e-21 -2.11758e-22
-4.13044e-09 1.32665e-08 -3.87858e-09
-2.89907e-07 -3.09329e-07 -1.95928e-07
1.71948e-06 -1.12125e-05 9.35561e-06
-6.99393e-07 -2.47791e-06 2.76799e-06
-4.29985e-08 3.87311e-08 -1.1159e-08
-1.24756e-08 5.94898e-08 -1.05049e-08
-4.29612e-09 1.59328e-08 -1.47139e-09
0.0 0.0 -1.43822e-06
1.21556e-06 7.37134e-07 -3.5764e-06
2.6425e-08 1.83048e-08 6.27652e-09
0.0 0.0 -1.43822e-06
-2.0269e-09 -1.01421e-08 -7.75481e-09
1.37515e-05 -1.04852e-05 4.22077e-06
-1.01776e-07 8.94381e-08 3.51742e-07
1.41944e-10 1.40148e-09 -1.35944e-08
-1.38083e-09 8.1763e-10 5.69717e-09
-2.77093e-07 2.26246e-07 -1.00382e-06
-2.79741e-09 -4.93572e-09 -1.22998e-08
-7.0661e-10 1.13619e-08 -1.67814e-09
2.07362e-07 3.2906e-07 2.87663e-07
-5.17163e-08 -1.59618e-07 -9.79289e-08
0.0 0.0 -1.43822e-06
2.33702e-06 3.71987e-08 -1.6658e-06
0.0 0.0 -1.43822e-06
-9.38909e-07 3.03128e-06 9.80713e-06
-3.79149e-07 1.13444e-07 -2.94036e-07
0.0 0.0 -1.43822e-06
2.8685e-10 -9.00361e-10 -8.39229e-08
1.35878e-06 -8.02834e-06 9.91254e-06
-3.8565e-07 1.49763e-06 1.18515e-06
6.839e-08 1.42154e-08 -1.73122e-07
4.05517e-20 5.35748e-20 -9.31736e-21
-5.84158e-09 1.459e-08 2.27777e-09
-1.42981e-06 -2.96322e-07 -2.01902e-06
-9.39842e-07 1.78622e-06 -1.51054e-06
1.49881e-06 1.8496e-06 -1.95659e-06
-1.18385e-09 5.90543e-10 -1.6484e-08
3.41831e-06 2.07761e-06 -1.7494e-06
6.08805e-21 -3.16314e-21 0.0
3.78685e-09 1.2921e-08 -4.12376e-09
-4.7902e-08 -3.99064e-07 -8.10491e-07
-1.85502e-09 1.91002e-09 1.1842e-08
3.53849e-06 -2.55637e-06 8.15715e-08
-6.68975e-10 -7.15988e-09 9.93624e-09
0.0 0.0 0.0
8.48307e-07 1.67875e-06 3.71713e-07
5.59839e-06 -1.80954e-05 5.45581e-06
1.55498e-07 1.91306e-08 2.80465e-07
-1.65564e-07 -1.3834e-07 -3.53181e-08
5.19062e-08 -3.19709e-08 2.18737e-07
1.27216e-07 -4.61956e-07 -1.21426e-06
2.53437e-07 8.31777e-06 -2.8454e-06
1.44104e-07 6.70652e-07 2.48152e-07
-4.78972e-10 -3.75226e-09 1.09801e-08
1.14217e-08 -4.98146e-08 -1.5713e-08
0.0 0.0 -1.43822e-06
2.84613e-08 -6.26028e-09 2.98731e-08
-8.35555e-07 1.67844e-06 1.46357e-07
-2.4564e-20 8.57621e-21 0.0
1.03606e-07 1.17309e-08 -1.14159e-08
1.11207e-07 -3.91753e-07 -5.2432e-07
0.0 0.0 -1.43822e-06
0.0 0.0 -1.43822e-06
-7.77188e-06 3.60879e-07 -7.68429e-06
-2.75018e-09 9.68933e-09 -2.99811e-08
1.32823e-09 2.36554e-09 -1.063e-08
0.0 0.0 0.0
0.0 0.0 -1.43822e-06
4.17485e-06 1.36825e-05 -6.8711e-06
-5.43579e-06 -1.36386e-06 5.4501e-07
-3.86676e-07 2.03946e-06 7.88627e-06
3.10129e-06 1.96054e-06 2.73164e-06
4.24605e-09 -2.42554e-07 -2.28256e-07
-2.5728e-07 -5.18716e-07 -9.90517e-07
0.0 0.0 -1.43822e-06
0.0 0.0 -1.43822e-06
0.0 0.0 -1.43822e-06
-2.34231e-07 4.82389e-07 7.73811e-07
3.19137e-06 4.19681e-08 1.19635e-06
2.4058e-12 4.54175e-09 -1.28784e-08
1.82779e-10 -3.0245e-09 -2.19909e-08
3.39443e-11 -5.24988e-09 -1.65717e-08
0.0 0.0 -1.43822e-06
3.72835e-08 -2.25936e-07 -7.86279e-10
0.0 0.0 -1.43822e-06
3.78944e-09 1.63136e-08 3.97096e-09
5.66295e-08 1.41426e-07 -5.68647e-08
9.00674e-07 1.3918e-06 -1.43694e-06
-5.60314e-06 -4.79434e-06 -1.28467e-05
1.99414e-07 1.45158e-07 8.77994e-08
-3.33728e-08 -3.52522e-08 1.96772e-08
-1.58383e-07 1.54791e-07 -8.4014e-07
0.0 0.0 -1.43822e-06
1.89035e-08 2.68285e-08 6.9893e-08
0.0 0.0 -1.43822e-06
-3.01585e-08 5.949e-08 3.53456e-08
-5.90004e-08 -3.07464e-08 3.44407e-07
-1.21913e-06 -1.79413e-07 5.94661e-06
-9.69854e-06 -4.43375e-06 -4.11622e-06
0.0 0.0 -1.43822e-06
-9.43351e-06 -8.41418e-06 8.6598e-06
2.30992e-08 -4.75742e-07 -5.44275e-07
-7.1777e-08 3.38957e-08 -3.94202e-09
3.27214e-08 4.13545e-09 5.99349e-08
-1.06263e-06 -2.27667e-06 6.66221e-06
-1.28619e-08 -1.03802e-08 -1.74275e-08
2.37394e-07 1.65854e-07 7.24571e-09
0.0 0.0 -1.43822e-06
0.0 0.0 0.0
-1.33258e-06 1.75228e-06 5.80083e-07
-5.841e-09 7.40636e-10 -1.50734e-08
5.28957e-05 -3.65992e-07 1.84417e-05
0.0 0.0 -1.43822e-06
0.0 0.0 -1.43822e-06
0.0 0.0 -1.43822e-06
2.47261e-06 1.8003e-06 -2.86129e-06
9.63797e-07 -1.90741e-07 -1.26493e-06
-8.01054e-08 1.24281e-08 -9.3292e-08
-1.8003e-08 -3.70239e-07 -1.06048e-06
1.0253e-07 -3.00845e-07 -2.31297e-07
-5.81225e-09 1.1947e-08 2.07988e-08
0.0 0.0 -1.43822e-06
7.48937e-06 1.88391e-06 -4.69106e-06
4.44943e-08 -1.33496e-07 -2.43435e-07
-5.24749e-06 6.45985e-07 9.34047e-06
0.0 0.0 -1.43822e-06
-4.07345e-06 -1.33488e-05 -3.06614e-06
1.02742e-06 -1.76112e-07 -5.70131e-07
0.0 1.58819e-22 0.0
5.92392e-06 6.88957e-06 3.74166e-06
5.09713e-08 3.48432e-07 -5.26676e-07
-7.85455e-08 -4.23775e-07 -8.86643e-07
5.07463e-08 1.26384e-06 -8.81551e-07
3.56742e-06 3.66634e-06 -1.02399e-05
1.74118e-06 -6.74677e-07 1.44469e-05
1.89377e-07 5.70636e-08 9.05427e-08
-5.21252e-07 -6.19035e-09 -2.62545e-07
-1.99869e-07 -2.45575e-07 -5.76873e-07
1.42937e-08 3.92097e-07 -8.85774e-07
0.0 0.0 -1.43822e-06
6.17567e-07 3.49056e-06 -5.48572e-06
-6.22178e-12 3.54918e-09 -1.36231e-08
1.68495e-08 -8.96681e-08 -1.44603e-06
1.11223e-09 9.49407e-09 4.46677e-09
0.0 0.0 0.0
0.0 0.0 -1.43822e-06
0.0 0.0 -1.43822e-06
0.0 0.0 -1.43822e-06
8.88815e-15 -4.40375e-09 -1.62533e-08
3.2558e-07 3.24534e-07 -1.65498e-07
0.0 0.0 -1.43822e-06
-1.03422e-08 -7.49786e-08 5.56313e-09
9.24448e-08 -2.33469e-09 -7.20488e-08
1.1017e-08 7.38298e-08 4.16355e-07
-6.13967e-20 -2.2458e-20 -3.81165e-21
-4.03018e-10 -6.97618e-10 -1.49108e-08
