ITEM: TIMESTEP
34000000
ITEM: NUMBER OF ATOMS
211
ITEM: BOX BOUNDS ff ff ff
-0.02 0.43
-0.02 0.06
-0.02 0.07
ITEM: ATOMS id type x y z vx vy vz fx fy fz radius mass 
1 1 0.211673 0.0177692 0.0071166 0.00631295 0.000530896 -0.000367963 5.64077e-11 -4.14395e-11 1.19788e-11 5e-05 1.46608e-10 
2 1 0.211306 0.0176988 0.00719814 0.00626221 0.00057168 -0.000386713 -1.44136e-11 -5.20798e-11 -1.14619e-10 5e-05 1.46608e-10 
3 1 0.199427 0.0182151 0.00692217 0.00578647 0.000149427 -9.73055e-05 3.65088e-10 -1.65386e-10 2.78741e-11 5e-05 1.46608e-10 
4 1 0.211062 0.0162976 0.00789741 0.00563218 0.000419529 -0.000858302 -5.70472e-10 5.20816e-11 -1.0169e-10 5e-05 1.46608e-10 
5 1 0.211453 0.017571 0.00718441 0.00629461 0.000605555 -0.000390468 -2.06181e-11 -6.75599e-11 2.65517e-11 5e-05 1.46608e-10 
6 1 0.217123 0.0169441 0.00757227 0.00567906 -0.000684574 0.000158337 -6.39807e-11 -1.56023e-10 1.03143e-10 5e-05 1.46608e-10 
7 1 0.210852 0.0159084 0.00837914 0.00600489 0.000289183 -0.000724158 -2.45428e-10 -1.31695e-10 1.49747e-10 5e-05 1.46608e-10 
8 1 0.21093 0.0161566 0.00807546 0.00544272 0.000327685 -0.000739036 5.71537e-10 -6.1399e-11 6.9716e-11 5e-05 1.46608e-10 
9 1 0.217324 0.0177471 0.00705354 0.00611562 -0.000675676 0.000325849 1.56435e-11 -5.6147e-11 6.17682e-12 5e-05 1.46608e-10 
10 1 0.210874 0.0159706 0.00830407 0.00589808 0.000291207 -0.000726793 -4.17538e-11 -1.66286e-10 1.55138e-10 5e-05 1.46608e-10 
11 1 0.210892 0.0160322 0.00822751 0.00568054 0.000311323 -0.000731923 -1.59175e-10 -1.27434e-10 1.7989e-10 5e-05 1.46608e-10 
13 1 0.211242 0.0174107 0.00724031 0.00629827 0.000573025 -0.000380069 1.01367e-10 7.4323e-11 -2.51159e-11 5e-05 1.46608e-10 
15 1 0.211422 0.0177157 0.00722966 0.00628362 0.000545853 -0.00037601 1.21516e-12 -1.02261e-10 1.68405e-11 5e-05 1.46608e-10 
17 1 0.211255 0.0170689 0.00734463 0.00620242 0.000598128 -0.000388519 1.67232e-10 -1.72522e-10 -5.70081e-11 5e-05 1.46608e-10 
18 1 0.217367 0.0179407 0.00702779 0.00610104 -0.000661605 0.000323566 1.82088e-11 -6.00112e-13 -2.68822e-12 5e-05 1.46608e-10 
19 1 0.210701 0.0154763 0.00890869 0.00612229 0.000215268 -0.000646517 3.98867e-12 6.05159e-11 -8.24042e-11 5e-05 1.46608e-10 
20 1 0.211533 0.0182442 0.00697581 0.00591642 0.00063789 -0.000387519 -3.50901e-11 1.48631e-10 -4.37927e-11 5e-05 1.46608e-10 
21 1 0.210723 0.015541 0.00883551 0.00610788 0.000235443 -0.000674651 5.77845e-11 8.73621e-11 -1.72211e-10 5e-05 1.46608e-10 
22 1 0.211566 0.0176584 0.00715397 0.00629435 0.000548012 -0.000372541 -4.3187e-11 -2.57184e-11 7.09901e-12 5e-05 1.46608e-10 
23 1 0.205308 0.0176633 0.00706547 0.00614799 -0.000661905 9.00306e-05 -3.72378e-11 -7.40009e-11 -2.29608e-10 5e-05 1.46608e-10 
24 1 0.217302 0.0176503 0.00706642 0.00613923 -0.000674865 0.000327027 3.17297e-11 1.12243e-10 3.25138e-11 5e-05 1.46608e-10 
25 1 0.211297 0.0172555 0.00728629 0.00629415 0.000585624 -0.000384543 -7.55588e-11 -8.10484e-11 1.67077e-11 5e-05 1.46608e-10 
26 1 0.217201 0.0172438 0.0073191 0.00590461 -0.000726555 0.000175385 -3.62876e-10 -1.43164e-10 6.57552e-11 5e-05 1.46608e-10 
28 1 0.211511 0.018146 0.00700658 0.00636348 0.000548057 -0.000374764 1.46163e-11 5.11658e-11 -1.81333e-11 5e-05 1.46608e-10 
29 1 0.211214 0.0168825 0.00740447 0.00584924 0.00067117 -0.000395011 -1.50937e-10 -2.50813e-11 -2.58589e-11 5e-05 1.46608e-10 
30 1 0.211264 0.0175039 0.0072111 0.00630519 0.000568053 -0.000378654 1.1402e-11 5.57347e-11 -4.72129e-12 5e-05 1.46608e-10 
31 1 0.210911 0.0160944 0.00815153 0.00549059 0.000329568 -0.000737671 4.62653e-11 -1.0908e-10 1.75828e-10 5e-05 1.46608e-10 
32 1 0.211192 0.016789 0.00743219 0.00582824 0.000677702 -0.000395718 1.33826e-10 6.40555e-12 -2.93686e-11 5e-05 1.46608e-10 
33 1 0.217143 0.017019 0.00750898 0.00576209 -0.000692361 0.000164568 -2.25328e-10 1.57416e-10 -1.83133e-10 5e-05 1.46608e-10 
34 1 0.211117 0.0168552 0.0074273 0.00579864 0.000605112 -0.000544652 -5.35802e-12 -6.81896e-11 -3.74203e-11 5e-05 1.46608e-10 
36 1 0.217345 0.0178439 0.00704067 0.00611114 -0.000668278 0.000324711 -3.83094e-11 -8.16105e-11 1.41263e-11 5e-05 1.46608e-10 
37 1 0.211043 0.0162354 0.00797346 0.00546971 0.000433531 -0.000870973 2.90052e-11 -2.20212e-11 -6.89375e-11 5e-05 1.46608e-10 
38 1 0.211436 0.0174721 0.00721523 0.00630751 0.000606959 -0.000391233 2.36268e-12 2.28993e-11 -8.36007e-12 5e-05 1.46608e-10 
39 1 0.21728 0.0175535 0.0070793 0.00615486 -0.000667044 0.000330267 -2.84369e-10 1.52549e-10 -1.16629e-10 5e-05 1.46608e-10 
41 1 0.210766 0.0156614 0.00868181 0.00607818 0.000269698 -0.000708268 5.66599e-12 6.69803e-11 -7.25533e-11 5e-05 1.46608e-10 
42 1 0.211415 0.0173762 0.00724527 0.00630421 0.000606746 -0.000390712 4.18181e-11 4.0883e-11 -7.45614e-12 5e-05 1.46608e-10 
44 1 0.211355 0.017892 0.00717845 0.00631281 0.000578146 -0.000372354 3.43943e-11 -6.91363e-11 -1.60082e-11 5e-05 1.46608e-10 
45 1 0.217182 0.0171687 0.00738247 0.00584768 -0.000711617 0.00017073 1.65223e-10 3.16933e-11 -1.00558e-10 5e-05 1.46608e-10 
47 1 0.210809 0.0157849 0.00853047 0.00601247 0.000291731 -0.000730967 -3.45364e-11 2.34706e-12 -9.73247e-12 5e-05 1.46608e-10 
49 1 0.21722 0.0173187 0.00725581 0.00599017 -0.000733244 0.000184215 -2.30241e-10 -9.46198e-11 4.18113e-11 5e-05 1.46608e-10 
50 1 0.211654 0.0183812 0.00692998 0.00590152 0.000653507 -0.000391862 2.62624e-11 -4.3945e-11 1.43158e-11 5e-05 1.46608e-10 
51 1 0.205497 0.0185396 0.00699345 0.00557824 -0.000551119 0.000293837 1.83235e-11 6.43296e-12 -1.20105e-11 5e-05 1.46608e-10 
52 1 0.211552 0.0183391 0.00694616 0.00589785 0.00065 -0.000390347 1.30177e-11 -3.56332e-11 1.70681e-11 5e-05 1.46608e-10 
53 1 0.217241 0.0173949 0.00719444 0.00605128 -0.000744411 0.000201629 2.63864e-10 6.41582e-11 -1.73105e-10 5e-05 1.46608e-10 
54 1 0.211617 0.0181915 0.00698922 0.00589438 0.00059709 -0.000374435 -3.88738e-11 1.27634e-10 -3.47664e-11 5e-05 1.46608e-10 
55 1 0.205265 0.0174843 0.00714092 0.00613648 -0.000692449 2.15513e-05 4.83499e-11 -4.2378e-11 -1.89999e-11 5e-05 1.46608e-10 
56 1 0.211475 0.0177625 0.00712508 0.00631252 0.000555531 -0.000375303 6.18679e-11 -2.3076e-11 2.57899e-12 5e-05 1.46608e-10 
57 1 0.217162 0.0170939 0.00744568 0.00582074 -0.000700028 0.00016814 -4.4944e-11 2.80335e-10 -2.39798e-10 5e-05 1.46608e-10 
59 1 0.211275 0.0171623 0.00731526 0.00629622 0.000582979 -0.000381666 1.0986e-10 -1.01403e-10 2.50617e-11 5e-05 1.46608e-10 
60 1 0.211711 0.0182229 0.00697654 0.00603587 0.000763739 -0.000430067 -3.67127e-12 -1.73241e-10 5.04885e-11 5e-05 1.46608e-10 
61 1 0.210787 0.0157232 0.00860614 0.00605649 0.000279626 -0.000718363 6.66092e-11 2.63203e-11 -4.04841e-11 5e-05 1.46608e-10 
62 1 0.211285 0.0176012 0.00720249 0.00628711 0.000571959 -0.000376955 3.93156e-12 -7.95494e-12 -6.81572e-12 5e-05 1.46608e-10 
63 1 0.210985 0.0163432 0.00784731 0.00571326 0.000318363 -0.000733224 -1.21497e-10 1.86896e-10 -3.18347e-10 5e-05 1.46608e-10 
64 1 0.217263 0.0174732 0.00713633 0.0060752 -0.000731728 0.000228257 -1.89757e-10 3.18303e-10 -2.48603e-10 5e-05 1.46608e-10 
65 1 0.204921 0.0161127 0.0080772 0.00535435 -0.000264383 0.000399481 2.76649e-10 1.38524e-10 -5.21424e-11 5e-05 1.46608e-10 
66 1 0.204842 0.0158049 0.00832016 0.00543326 -0.000300408 0.000433312 -8.89551e-11 4.17403e-10 -3.4186e-10 5e-05 1.46608e-10 
67 1 0.211444 0.0182897 0.00696477 0.00590543 0.000638289 -0.000387163 -4.35203e-11 1.5235e-10 -4.91739e-11 5e-05 1.46608e-10 
69 1 0.211574 0.0177537 0.00712456 0.0063107 0.000547911 -0.000372951 6.10823e-11 -4.16602e-11 1.12292e-11 5e-05 1.46608e-10 
70 1 0.211575 0.0184408 0.0069143 0.00589762 0.000638517 -0.000386857 -3.61382e-11 -2.44136e-11 3.87094e-12 5e-05 1.46608e-10 
72 1 0.2111 0.0164221 0.00774552 0.00567918 0.000420773 -0.000861645 2.40423e-11 -8.04775e-11 -9.84697e-12 5e-05 1.46608e-10 
73 1 0.211023 0.0164678 0.00769534 0.00571122 0.000248266 -0.000763254 3.74873e-10 1.48033e-10 -1.08259e-10 5e-05 1.46608e-10 
74 1 0.211463 0.0183835 0.00693547 0.00587618 0.000651901 -0.00038838 6.91814e-11 1.33251e-10 -4.01088e-11 5e-05 1.46608e-10 
76 1 0.145405 0.0205718 0.00539992 7.45009e-15 9.10995e-15 -2.35014e-13 -1.4548e-22 1.67226e-22 1.24077e-24 5e-05 1.46608e-10 
77 1 0.211425 0.0181961 0.00699405 0.00635886 0.000548681 -0.00037494 3.38383e-11 7.382e-11 -2.22633e-11 5e-05 1.46608e-10 
78 1 0.205531 0.0182781 0.00701526 0.00553348 -0.000532543 0.000290338 1.48977e-11 9.39228e-13 -1.59496e-12 5e-05 1.46608e-10 
80 1 0.211482 0.0184772 0.00690618 0.00590014 0.000636411 -0.000385762 3.88078e-12 7.70433e-11 -2.4094e-11 5e-05 1.46608e-10 
81 1 0.205097 0.0168086 0.00753459 0.00550061 -0.00035253 0.000316115 -2.02205e-10 -9.26768e-11 2.02544e-10 5e-05 1.46608e-10 
82 1 0.20502 0.0164977 0.00777393 0.00538874 -0.000303707 0.000406364 4.45783e-11 -1.82483e-11 -1.77625e-10 5e-05 1.46608e-10 
84 1 0.217388 0.0180374 0.00701491 0.00608598 -0.00066119 0.000322791 -1.05607e-11 3.5999e-11 -2.97412e-12 5e-05 1.46608e-10 
85 1 0.210744 0.0155997 0.00875747 0.00609898 0.000255556 -0.000693735 -2.49057e-11 1.04053e-10 -1.36197e-10 5e-05 1.46608e-10 
86 1 0.211692 0.0181271 0.00700645 0.00632033 0.000701188 -0.000420225 6.12626e-11 -7.18603e-11 2.08744e-11 5e-05 1.46608e-10 
87 1 0.211177 0.0171313 0.00732793 0.00628291 0.000575998 -0.000380982 6.15292e-13 3.48717e-11 -1.01101e-11 5e-05 1.46608e-10 
88 1 0.211636 0.0182871 0.00695932 0.00592149 0.00065655 -0.000393662 -1.46896e-11 -1.31748e-10 4.22147e-11 5e-05 1.46608e-10 
90 1 0.211644 0.0179346 0.00706693 0.00634703 0.000544678 -0.000373865 1.0161e-11 -2.64336e-11 1.63489e-11 5e-05 1.46608e-10 
91 1 0.211136 0.0169444 0.00738644 0.00579188 0.00067534 -0.000396315 -3.7201e-11 -3.35471e-11 1.81131e-11 5e-05 1.46608e-10 
92 1 0.211463 0.017953 0.0070672 0.00634457 0.000555017 -0.000376156 2.08621e-11 -1.96855e-11 4.87121e-12 5e-05 1.46608e-10 
93 1 0.21741 0.0181342 0.00700204 0.00607367 -0.000662074 0.000322527 8.54734e-12 -6.02208e-12 3.36186e-13 5e-05 1.46608e-10 
94 1 0.211609 0.0178432 0.00709603 0.0063351 0.000546049 -0.00037321 5.11275e-11 -3.5803e-11 8.05595e-12 5e-05 1.46608e-10 
95 1 0.211041 0.0165307 0.00761991 0.00578338 0.000374177 -0.000635673 -2.69908e-10 7.71084e-11 -9.64404e-11 5e-05 1.46608e-10 
96 1 0.21106 0.0165943 0.00754506 0.00585676 0.000610574 -0.000426404 -1.39591e-10 1.30277e-10 -1.36342e-10 5e-05 1.46608e-10 
98 1 0.211707 0.0178597 0.0070878 0.00633837 0.000538237 -0.00037088 5.72149e-11 1.95106e-12 -1.83339e-12 5e-05 1.46608e-10 
99 1 0.205498 0.0177228 0.00705688 0.00616844 -0.00062383 0.000328112 -1.40914e-10 1.25072e-10 1.55448e-11 5e-05 1.46608e-10 
101 1 0.20516 0.017061 0.00738511 0.00597372 -0.000649958 8.55304e-06 -1.11596e-10 7.28917e-11 7.19392e-12 5e-05 1.46608e-10 
102 1 0.0694385 0.0202053 0.00537268 3.96164e-15 4.47098e-15 -7.68261e-14 -7.64005e-22 1.769e-22 -2.97785e-23 5e-05 1.46608e-10 
104 1 0.0249839 0.0195037 0.00542543 -3.58898e-15 -5.78174e-16 5.85127e-14 -5.55762e-25 4.52041e-24 0 5e-05 1.46608e-10 
106 1 0.199368 0.0179255 0.00697347 0.00555236 0.000211346 -0.000100326 4.76622e-11 1.24273e-11 7.05169e-12 5e-05 1.46608e-10 
107 1 0.205 0.0164205 0.00783419 0.00538608 -0.00027764 0.00041155 -1.14929e-10 1.68733e-10 -2.21029e-10 5e-05 1.46608e-10 
108 1 0.211176 0.0166978 0.00747001 0.00585557 0.000630464 -0.000504103 3.3528e-10 -1.57525e-10 -3.32431e-11 5e-05 1.46608e-10 
110 1 0.211786 0.018159 0.00699364 0.00622272 0.000956578 -0.000495172 5.41561e-11 -1.83171e-10 5.4992e-11 5e-05 1.46608e-10 
111 1 0.20518 0.0171457 0.00733625 0.00600128 -0.000657296 1.2052e-05 1.68585e-11 8.24486e-11 -3.15727e-11 5e-05 1.46608e-10 
112 1 0.204941 0.0161896 0.00801648 0.00533751 -0.000265752 0.000400969 8.26747e-10 -4.44701e-11 1.08905e-10 5e-05 1.46608e-10 
115 1 0.211098 0.0167566 0.00744615 0.00584467 0.000659522 -0.000389303 2.28341e-10 5.27826e-11 4.4306e-11 5e-05 1.46608e-10 
116 1 0.21173 0.0183192 0.00694643 0.0058969 0.000658788 -0.000393491 1.24193e-10 3.30682e-11 -1.38359e-11 5e-05 1.46608e-10 
117 1 0.211671 0.0180327 0.00703601 0.00636981 0.000547679 -0.000374859 -5.39568e-12 2.42033e-11 -6.93638e-12 5e-05 1.46608e-10 
118 1 0.205077 0.0167284 0.00759105 0.00546708 -0.000281784 0.000425757 5.31883e-11 -1.90925e-10 2.52073e-10 5e-05 1.46608e-10 
119 1 0.211502 0.0185749 0.00689951 0.00592209 0.000621169 -0.000372843 2.46564e-11 2.85384e-11 -9.29477e-11 5e-05 1.46608e-10 
120 1 0.21068 0.0154146 0.00898436 0.00613682 0.000197825 -0.00062558 -3.24337e-12 -2.11075e-11 2.55681e-11 5e-05 1.46608e-10 
121 1 0.21174 0.0179624 0.00705532 0.00635528 0.000532486 -0.000369684 -3.01815e-11 -1.40115e-11 1.82583e-12 5e-05 1.46608e-10 
122 1 0.211576 0.0180046 0.00704773 0.00635003 0.000548827 -0.000374244 3.12829e-11 -3.10441e-11 2.61802e-11 5e-05 1.46608e-10 
124 1 0.211382 0.0180098 0.00705246 0.00634611 0.000556302 -0.000376647 2.00829e-12 -1.28969e-11 -6.0298e-13 5e-05 1.46608e-10 
125 1 0.211081 0.0163601 0.00782158 0.00571299 0.000407888 -0.000860078 8.39897e-11 -3.34717e-11 -1.63781e-11 5e-05 1.46608e-10 
126 1 0.210967 0.016281 0.00792339 0.00565628 0.000314307 -0.000723226 -3.79618e-10 3.32739e-10 -3.10708e-10 5e-05 1.46608e-10 
127 1 0.205456 0.017535 0.00710105 0.0061362 -0.000752299 5.50343e-05 8.22922e-11 1.55533e-10 -5.41202e-11 5e-05 1.46608e-10 
128 1 0.211382 0.0177276 0.0071388 0.00627641 0.000551957 -0.000373807 3.49535e-11 -9.35225e-13 2.32289e-11 5e-05 1.46608e-10 
129 1 0.205372 0.0179541 0.00703325 0.00609875 -0.000620318 0.000321795 -3.71333e-13 1.10495e-10 -1.48106e-11 5e-05 1.46608e-10 
131 1 0.205286 0.0175698 0.00709335 0.00615542 -0.000683576 3.70155e-05 -4.15842e-11 -8.05769e-11 -1.62607e-10 5e-05 1.46608e-10 
132 1 0.211156 0.0170381 0.00735715 0.00575958 0.000683757 -0.00039579 -4.56951e-11 2.79307e-12 3.6998e-12 5e-05 1.46608e-10 
133 1 0.211673 0.0184764 0.00690021 0.00593608 0.000640614 -0.000388939 2.02695e-11 -1.51321e-11 8.29912e-12 5e-05 1.46608e-10 
134 1 0.211383 0.0178232 0.00710951 0.00631269 0.000551473 -0.000374519 -7.43052e-11 -5.56994e-12 2.48872e-11 5e-05 1.46608e-10 
135 1 0.211004 0.0164055 0.00777129 0.00570904 0.000293507 -0.000738676 3.17549e-10 2.02534e-10 -2.43772e-10 5e-05 1.46608e-10 
136 1 0.20534 0.0174246 0.00717004 0.00610589 -0.000734065 4.56499e-05 9.15721e-12 -6.26874e-11 -7.50158e-12 5e-05 1.46608e-10 
137 1 0.21136 0.0179166 0.00708167 0.00633543 0.000558446 -0.000376704 -8.5922e-11 -5.30749e-12 3.73478e-13 5e-05 1.46608e-10 
138 1 0.211079 0.0166626 0.00747453 0.00588944 0.000671538 -0.000381092 -1.04288e-10 2.12631e-10 -6.81096e-11 5e-05 1.46608e-10 
140 1 0.211376 0.0179879 0.00714989 0.0063424 0.000557776 -0.000376608 -1.36882e-11 -1.1285e-10 -3.80138e-11 5e-05 1.46608e-10 
141 1 0.20498 0.0163436 0.00789489 0.00540018 -0.000271446 0.000403807 1.4927e-10 2.34549e-11 1.08425e-10 5e-05 1.46608e-10 
143 1 0.393994 0.0150325 6.48596e-05 -2.1271e-21 1.6267e-21 -1.45327e-21 0 0 0 5e-05 1.46608e-10 
146 1 0.20552 0.0178211 0.00705025 0.00612584 -0.000618754 0.000323641 -1.14282e-10 1.89399e-10 -1.43585e-11 5e-05 1.46608e-10 
147 1 0.20535 0.0178566 0.00703984 0.00612199 -0.00062936 0.000318557 -3.45764e-11 2.53002e-11 -1.05239e-11 5e-05 1.46608e-10 
148 1 0.00869685 0.0166856 0.00841775 0.000857489 0.00608145 -0.0046232 7.14642e-12 2.33474e-10 -2.22822e-10 5e-05 1.46608e-10 
149 1 0.211319 0.0173484 0.00725687 0.00630123 0.000592192 -0.00038622 -2.84162e-11 -6.96462e-11 9.51095e-12 5e-05 1.46608e-10 
150 1 0.204822 0.015728 0.00838085 0.00545098 -0.000330482 0.000457409 -6.05374e-11 8.45398e-11 -6.48271e-11 5e-05 1.46608e-10 
151 1 0.205489 0.018083 0.00702853 0.00606143 -0.000612077 0.000320678 -1.02259e-10 3.84211e-11 -5.2434e-12 5e-05 1.46608e-10 
154 1 0.205361 0.01751 0.00712078 0.0061297 -0.000710094 3.59899e-05 6.14712e-11 8.18547e-11 -1.0209e-10 5e-05 1.46608e-10 
155 1 0.199447 0.0183116 0.00690508 0.00581252 0.000154235 -9.85277e-05 -1.51182e-10 -3.08264e-10 3.87811e-11 5e-05 1.46608e-10 
157 1 0.205222 0.0173151 0.00723858 0.00606936 -0.000690107 1.49304e-06 -4.26444e-11 -5.62928e-11 -2.25796e-10 5e-05 1.46608e-10 
165 1 0.20551 0.0181804 0.00702192 0.00576478 -0.000563974 0.000303545 -3.47653e-10 6.08481e-11 -2.11246e-11 5e-05 1.46608e-10 
166 1 0.211025 0.0161732 0.0080495 0.00540014 0.00043714 -0.000871187 3.7776e-10 -2.79022e-15 -2.57245e-11 5e-05 1.46608e-10 
168 1 0.281141 0.017178 0.0080804 0.00520693 0.00148466 5.87933e-05 -1.2512e-10 2.14472e-11 -3.72679e-11 5e-05 1.46608e-10 
171 1 0.210948 0.0162192 0.00799975 0.00550818 0.000320198 -0.000734918 8.66515e-11 2.05008e-10 -1.38501e-10 5e-05 1.46608e-10 
172 1 0.205381 0.0175954 0.00707156 0.00611885 -0.000690856 2.71387e-05 -1.25203e-11 1.06525e-10 -1.30563e-10 5e-05 1.46608e-10 
176 1 0.204902 0.0160357 0.00813799 0.0053877 -0.000269825 0.000405232 -5.79069e-10 7.92641e-11 -8.77652e-11 5e-05 1.46608e-10 
177 1 0.20496 0.0162666 0.00795566 0.0053607 -0.000265321 0.000397124 6.78595e-10 -2.28382e-10 2.84996e-10 5e-05 1.46608e-10 
179 1 0.199347 0.0178292 0.00699053 0.00568547 0.000189494 -9.79317e-05 -9.07616e-11 -2.84314e-11 7.77582e-11 5e-05 1.46608e-10 
181 1 0.204882 0.0159587 0.00819874 0.00546815 -0.000272589 0.000412616 -4.1551e-10 -1.4742e-10 7.62445e-11 5e-05 1.46608e-10 
182 1 0.211157 0.0166161 0.00752442 0.00576121 0.000490486 -0.000751168 -1.75267e-10 -1.08995e-10 -5.24477e-11 5e-05 1.46608e-10 
184 1 0.211328 0.017796 0.00718874 0.00623757 0.00056507 -0.000423849 -1.69627e-11 -7.82952e-12 1.31979e-10 5e-05 1.46608e-10 
187 1 0.211341 0.0174415 0.00722767 0.00630299 0.000595474 -0.000387214 3.30754e-12 -5.94566e-11 1.51778e-11 5e-05 1.46608e-10 
188 1 0.211597 0.0180978 0.00701851 0.00637175 0.000553868 -0.000376735 2.56457e-11 6.50274e-11 -2.04163e-11 5e-05 1.46608e-10 
189 1 0.211466 0.0176673 0.00715449 0.00629199 0.00055944 -0.000376359 -3.00442e-11 -1.6363e-11 3.5088e-12 5e-05 1.46608e-10 
191 1 0.211199 0.0172244 0.00729872 0.00629074 0.000578231 -0.000381687 5.65246e-11 2.77779e-11 -2.44606e-11 5e-05 1.46608e-10 
192 1 0.202362 0.0182037 0.00689416 0.00660987 0.000844533 -8.12564e-05 3.7599e-14 5.96315e-13 -3.12353e-13 5e-05 1.46608e-10 
193 1 0.214191 0.017425 0.00714 0.00615651 0.00154424 -0.000672829 -8.08324e-13 -1.87122e-13 8.34341e-14 5e-05 1.46608e-10 
197 1 0.204802 0.0156511 0.0084415 0.00567518 -0.000373118 0.000500133 2.02884e-11 -4.97502e-10 3.98539e-10 5e-05 1.46608e-10 
198 1 0.205425 0.0177905 0.00704833 0.00613427 -0.000632918 0.000323757 -1.16474e-10 1.17441e-10 -8.20113e-12 5e-05 1.46608e-10 
200 1 0.205476 0.0184419 0.00700011 0.00557337 -0.000529377 0.000292197 -1.36594e-11 5.16081e-11 -2.4851e-11 5e-05 1.46608e-10 
201 1 0.205393 0.0180516 0.00702664 0.0060748 -0.00061684 0.000321159 -6.17265e-11 8.39051e-11 -1.12207e-11 5e-05 1.46608e-10 
203 1 0.21122 0.0173176 0.00726952 0.00629278 0.000577667 -0.000381008 7.32667e-11 8.92469e-11 -4.13558e-11 5e-05 1.46608e-10 
204 1 0.199328 0.0177334 0.00701129 0.00608372 9.04725e-05 -0.000155628 -1.13608e-10 2.6551e-11 3.12292e-10 5e-05 1.46608e-10 
206 1 0.199388 0.018022 0.00695637 0.00570218 0.000174367 -9.87886e-05 -1.27038e-10 1.44642e-10 -4.9199e-11 5e-05 1.46608e-10 
207 1 0.060646 0.0186723 0.00546139 1.1615e-15 5.18612e-15 3.71388e-14 -3.00499e-24 -1.11152e-24 2.06795e-25 5e-05 1.46608e-10 
208 1 0.205329 0.0177608 0.00705826 0.00613776 -0.000652274 0.000214372 -6.0285e-11 -2.88424e-12 -8.53297e-11 5e-05 1.46608e-10 
209 1 0.199137 0.0169691 0.00744033 0.00612797 0.000228837 0.000108022 2.23075e-11 1.21434e-11 8.39826e-13 5e-05 1.46608e-10 
210 1 0.211476 0.0178581 0.00709579 0.00633142 0.000554096 -0.000375456 6.78532e-11 -1.58595e-11 3.01157e-12 5e-05 1.46608e-10 
211 1 0.205456 0.0183442 0.00700678 0.00555264 -0.000517359 0.000290829 -1.49794e-11 4.87179e-11 2.39212e-11 5e-05 1.46608e-10 
212 1 0.205118 0.0168919 0.00748339 0.00579258 -0.000546761 0.000105632 -2.53418e-10 -9.60321e-11 2.1265e-11 5e-05 1.46608e-10 
213 1 0.211374 0.0176313 0.00716852 0.00628288 0.00058202 -0.000381776 1.45301e-12 -3.07987e-11 1.00938e-11 5e-05 1.46608e-10 
214 1 0.211519 0.0186597 0.00684914 0.00598617 0.000588078 -0.000375377 -1.98713e-12 6.70166e-11 -3.17471e-11 5e-05 1.46608e-10 
217 1 0.211119 0.0164841 0.00766935 0.00566225 0.000418052 -0.000864594 -5.61316e-10 7.32232e-11 3.69658e-11 5e-05 1.46608e-10 
218 1 0.211593 0.0185347 0.00688498 0.00592684 0.00063019 -0.000383483 8.61491e-11 3.47615e-11 -2.62417e-11 5e-05 1.46608e-10 
221 1 0.199075 0.0167178 0.0075919 0.00561226 0.000320551 3.08356e-05 1.18186e-11 -3.80555e-11 2.50867e-11 5e-05 1.46608e-10 
222 1 0.21083 0.0158466 0.00845483 0.00600315 0.000293912 -0.000732784 -1.03871e-10 -2.81861e-11 7.31054e-11 5e-05 1.46608e-10 
223 1 0.220117 0.0170698 0.0072546 0.00555356 -0.000884838 0.000334425 -4.30274e-13 5.5826e-14 -3.71582e-14 5e-05 1.46608e-10 
225 1 0.21136 0.0175352 0.00719838 0.00629921 0.000594235 -0.00038695 -2.50858e-11 -4.38614e-11 2.98611e-11 5e-05 1.46608e-10 
226 1 0.205245 0.0174003 0.00719126 0.00609343 -0.00068907 1.28323e-05 1.83921e-10 -7.43485e-11 -7.47134e-11 5e-05 1.46608e-10 
228 1 0.0507861 0.0189683 0.00558458 -5.34209e-15 -1.91182e-14 -2.87013e-13 -3.38831e-22 9.92229e-23 -1.24077e-24 5e-05 1.46608e-10 
231 1 0.197479 0.018695 0.00523156 -1.09169e-15 -2.6984e-14 1.45242e-13 -2.45052e-23 -3.25702e-24 -1.03398e-24 5e-05 1.46608e-10 
232 1 0.189081 0.0184947 0.00541361 -2.16309e-15 1.32462e-15 5.80683e-14 -2.66378e-23 -2.51967e-23 -2.06795e-25 5e-05 1.46608e-10 
234 1 0.211552 0.0179249 0.00710303 0.00634461 0.000551632 -0.00037503 1.81763e-11 -3.55987e-11 1.29011e-11 5e-05 1.46608e-10 
235 1 0.194679 0.0184196 0.00544868 1.51685e-14 9.62648e-14 2.3455e-13 -1.20263e-21 8.45792e-23 3.26736e-23 5e-05 1.46608e-10 
238 1 0.199158 0.0170528 0.00738986 0.00615595 0.000224445 0.000111543 -2.14303e-11 5.47391e-11 -3.10518e-11 5e-05 1.46608e-10 
239 1 0.198977 0.0162981 0.00784528 0.00563341 0.000312932 3.6368e-05 1.34314e-11 -2.92925e-12 3.21595e-12 5e-05 1.46608e-10 
240 1 0.199055 0.0166339 0.00764257 0.00561736 0.000321166 3.0632e-05 -1.20545e-11 -8.06403e-12 5.32744e-12 5e-05 1.46608e-10 
241 1 0.198996 0.0163821 0.0077946 0.00563008 0.000313051 3.61384e-05 -3.3998e-12 2.00469e-11 -1.31553e-11 5e-05 1.46608e-10 
242 1 0.199467 0.0184081 0.00688799 0.00587533 0.000155583 -9.75492e-05 -2.29187e-10 1.05219e-10 -3.4324e-11 5e-05 1.46608e-10 
243 1 0.198957 0.0162142 0.00789596 0.00560889 0.000322777 2.91661e-05 -3.03342e-11 -5.12228e-11 3.07735e-11 5e-05 1.46608e-10 
244 1 0.199016 0.016466 0.00774392 0.00562612 0.00031612 3.411e-05 1.76333e-11 2.94942e-11 -1.80245e-11 5e-05 1.46608e-10 
245 1 0.199179 0.0171366 0.00733936 0.00620071 0.000219941 0.00011617 6.40194e-11 6.15738e-11 -3.28835e-11 5e-05 1.46608e-10 
246 1 0.199095 0.0168017 0.00754131 0.00573949 0.000297094 5.02942e-05 6.32958e-12 -7.45559e-11 4.57781e-11 5e-05 1.46608e-10 
248 1 0.204862 0.0158818 0.00825944 0.00547679 -0.000277358 0.000416099 1.34253e-10 2.06377e-10 -1.4014e-10 5e-05 1.46608e-10 
249 1 0.199222 0.0173039 0.00723845 0.00627279 0.000210425 0.000125544 -1.52759e-10 7.51988e-11 -5.79776e-11 5e-05 1.46608e-10 
251 1 0.211234 0.0169755 0.00737416 0.00597682 0.000635574 -0.000418554 -9.6291e-11 -1.26821e-10 -1.35809e-10 5e-05 1.46608e-10 
252 1 0.1992 0.0172203 0.00728888 0.00623233 0.000218686 0.00011908 3.23435e-11 7.61195e-11 -4.54706e-11 5e-05 1.46608e-10 
254 1 0.224843 0.0176482 0.00785778 0.0197944 0.0279808 -0.0139291 -2.6357e-10 -4.75989e-12 -8.27602e-11 5e-05 1.46608e-10 
255 1 0.205202 0.0172303 0.00728743 0.00603334 -0.000671409 1.41268e-05 9.84695e-11 -1.43072e-11 -1.48724e-10 5e-05 1.46608e-10 
256 1 0.225327 0.0176598 0.00785313 0.0223892 0.0316207 -0.0156419 -2.76495e-10 1.66664e-12 -9.35456e-11 5e-05 1.46608e-10 
257 1 0.205402 0.0176933 0.00705486 0.00617612 -0.000640174 0.000334225 -1.40903e-10 5.54534e-11 -6.40016e-11 5e-05 1.46608e-10 
258 1 0.205541 0.0179186 0.00704364 0.00609324 -0.000621391 0.000322754 -1.28565e-10 1.44862e-10 -1.54317e-11 5e-05 1.46608e-10 
259 1 0.199242 0.0173877 0.00718791 0.00629557 0.000205538 0.000129342 1.3358e-10 2.31278e-12 2.57324e-11 5e-05 1.46608e-10 
260 1 0.205446 0.017888 0.00704173 0.00609935 -0.000625262 0.000323498 -1.97054e-10 5.51857e-11 -4.222e-12 5e-05 1.46608e-10 
261 1 0.205563 0.0180161 0.00703704 0.00608012 -0.000614857 0.000321691 -4.17889e-11 1.42928e-10 -1.25283e-11 5e-05 1.46608e-10 
262 1 0.205468 0.0179855 0.00703513 0.00608642 -0.000618025 0.000322017 -8.161e-11 1.51808e-10 -1.90103e-11 5e-05 1.46608e-10 
263 1 0.199407 0.0181186 0.00693926 0.00579347 0.000159455 -9.75682e-05 9.10224e-11 1.85365e-10 -3.0019e-11 5e-05 1.46608e-10 
265 1 0.205414 0.018149 0.00702004 0.00604593 -0.000615347 0.000320193 3.58939e-11 9.58211e-11 -1.01859e-11 5e-05 1.46608e-10 
270 1 0.211488 0.0180513 0.00703631 0.00635079 0.000548778 -0.000374739 2.36064e-11 -2.81008e-12 -2.32177e-11 5e-05 1.46608e-10 
271 1 0.2879 0.0179455 0.00776032 -3.40153e-10 -0.0231118 0.00682786 -1.71316e-18 6.18192e-12 2.09541e-11 5e-05 1.46608e-10 
272 1 0.199284 0.0175551 0.00708697 0.00634976 0.000189426 0.000139898 -3.99355e-11 -1.60958e-10 1.36353e-10 5e-05 1.46608e-10 
273 1 0.0220854 0.0172827 0.00801461 -0.02412 0.0005788 0.00116924 -6.47592e-10 2.9936e-10 -1.6286e-10 5e-05 1.46608e-10 
274 1 0.199265 0.0174711 0.00713773 0.006322 0.000196476 0.000133705 1.60511e-10 -1.48984e-10 1.02794e-10 5e-05 1.46608e-10 
275 1 0.205436 0.0182465 0.00701344 0.00577866 -0.000560675 0.000303709 -1.80065e-10 7.80509e-11 -1.70053e-11 5e-05 1.46608e-10 
276 1 0.205138 0.0169764 0.00743394 0.00593626 -0.000639664 4.13903e-06 -1.46036e-11 -4.71265e-11 1.82111e-11 5e-05 1.46608e-10 
277 1 0.205038 0.0165746 0.00771277 0.00542994 -0.000311355 0.000414999 -2.66177e-10 -1.90293e-10 7.77853e-11 5e-05 1.46608e-10 
279 1 0.199487 0.0185046 0.0068709 0.00589777 0.000132915 -9.32243e-05 -2.57741e-12 2.29366e-10 -3.81509e-11 5e-05 1.46608e-10 
282 1 0.199116 0.0168854 0.00749083 0.00599736 0.000251146 8.89395e-05 -3.32408e-11 -4.41638e-11 2.70623e-11 5e-05 1.46608e-10 
283 1 0.199036 0.0165499 0.00769325 0.00562183 0.000319477 3.18367e-05 -1.95586e-12 1.43781e-11 -8.43059e-12 5e-05 1.46608e-10 
284 1 0.205058 0.0166514 0.00765184 0.00545891 -0.000296767 0.000426441 8.53437e-11 -3.13545e-10 2.06407e-10 5e-05 1.46608e-10 
288 1 0.205476 0.0176255 0.00706343 0.00611768 -0.000625477 0.000325613 -1.74591e-10 1.73612e-10 -6.82194e-11 5e-05 1.46608e-10 
293 1 0.199305 0.0176395 0.00703767 0.00636403 1.24408e-05 -0.000162236 1.06571e-10 -6.93639e-11 2.2949e-10 5e-05 1.46608e-10 
294 1 0.152576 0.0182562 0.00546336 5.35899e-16 -1.4125e-15 1.14581e-14 1.40634e-22 2.47637e-23 -2.89513e-24 5e-05 1.46608e-10 
295 1 0.275252 0.0179625 0.0077577 0.0304739 0.0258412 -0.007922 -3.93929e-10 -1.24986e-10 -3.49893e-11 5e-05 1.46608e-10 
297 1 0.211403 0.0181029 0.00702326 0.00635306 0.000552715 -0.000375602 1.45068e-11 2.893e-11 4.17847e-15 5e-05 1.46608e-10 
300 1 0.211136 0.0165464 0.00759321 0.00571965 0.000402126 -0.000857798 -4.86857e-10 1.30343e-10 9.6089e-11 5e-05 1.46608e-10 
