ITEM: TIMESTEP
15400000
ITEM: NUMBER OF ATOMS
284
ITEM: BOX BOUNDS ff ff ff
-0.02 0.43
-0.02 0.06
-0.02 0.07
ITEM: ATOMS id type x y z vx vy vz fx fy fz radius mass 
1 1 0.102645 0.0164261 0.00782181 0.00571462 0.000522095 -0.000118255 -6.98894e-11 2.04814e-10 -1.67764e-10 5e-05 1.46608e-10 
2 1 0.103046 0.0173553 0.00714824 0.00567991 0.000274878 -0.000219573 1.81977e-12 -4.2239e-11 1.39538e-11 5e-05 1.46608e-10 
3 1 0.0966178 0.0163145 0.00788718 0.00580538 0.000195273 3.75056e-05 -1.0356e-11 9.1678e-11 -8.41394e-11 5e-05 1.46608e-10 
4 1 0.103032 0.0177084 0.00707047 0.00605022 0.000210092 -0.000213947 -1.05919e-10 1.12433e-11 -5.74564e-12 5e-05 1.46608e-10 
5 1 0.10255 0.0163985 0.00783784 0.00573593 0.000409696 -3.34085e-05 -1.65339e-11 1.98182e-10 -1.56813e-10 5e-05 1.46608e-10 
6 1 0.108611 0.0166532 0.00769366 0.00559029 0.000185345 -0.000477935 1.25098e-12 -3.10969e-12 1.03869e-12 5e-05 1.46608e-10 
7 1 0.102648 0.0167938 0.00754752 0.00555783 0.000411777 -4.12538e-05 6.04141e-12 7.89246e-11 -5.2238e-11 5e-05 1.46608e-10 
8 1 0.102563 0.0161101 0.00805373 0.00576433 0.000381355 -1.05709e-05 2.64949e-11 -2.72158e-11 5.93635e-11 5e-05 1.46608e-10 
9 1 0.108856 0.0177538 0.00728301 0.00584403 0.000130285 -0.000477045 1.91481e-12 2.04689e-12 -6.95545e-13 5e-05 1.46608e-10 
10 1 0.102667 0.0168729 0.00748938 0.00558406 0.000406828 -3.72823e-05 1.45372e-11 2.3988e-11 -9.78747e-12 5e-05 1.46608e-10 
11 1 0.10278 0.0169803 0.00741459 0.00561533 0.000394392 -2.75872e-05 1.29771e-11 -4.47118e-11 3.37106e-11 5e-05 1.46608e-10 
12 1 0.102856 0.0172967 0.00718208 0.00576756 0.000381357 -1.07202e-05 -1.46471e-11 3.09266e-12 2.89736e-12 5e-05 1.46608e-10 
13 1 0.102858 0.0177098 0.00716344 0.00573263 0.000342042 -0.000235576 -4.86741e-12 1.47453e-11 6.6179e-13 5e-05 1.46608e-10 
14 1 0.0963168 0.0155367 0.00851927 0.00626203 0.00012557 0.000110854 6.96696e-11 1.40733e-12 -2.8784e-11 5e-05 1.46608e-10 
15 1 0.102761 0.0172687 0.00719851 0.00576919 0.000389582 -1.61747e-05 -2.26824e-11 -5.22082e-11 2.37545e-11 5e-05 1.46608e-10 
16 1 0.0962956 0.0154593 0.00857891 0.00628604 0.000122017 0.000113046 1.34689e-11 -6.67839e-12 9.48327e-12 5e-05 1.46608e-10 
17 1 0.102995 0.0176841 0.00716022 0.00596474 0.000281759 -0.000218398 -2.58491e-11 -4.80448e-12 3.7048e-13 5e-05 1.46608e-10 
18 1 0.108752 0.0172956 0.00745411 0.00565223 0.000171838 -0.000477706 2.16188e-12 -8.29567e-13 2.31163e-13 5e-05 1.46608e-10 
19 1 0.102509 0.0162407 0.00795366 0.0057936 0.000399012 -2.11714e-05 -1.71351e-10 1.4316e-10 -1.13344e-10 5e-05 1.46608e-10 
20 1 0.102975 0.0175886 0.00718189 0.00573915 0.000327689 -0.000235244 -5.9616e-11 -2.65934e-11 2.97797e-11 5e-05 1.46608e-10 
21 1 0.10253 0.0163196 0.00789574 0.00580338 0.000401176 -2.35084e-05 -4.72333e-11 1.87455e-10 -1.26142e-10 5e-05 1.46608e-10 
22 1 0.102818 0.0171385 0.00729836 0.00569947 0.000386216 -1.73605e-05 -6.72296e-11 -1.3704e-12 -1.90916e-12 5e-05 1.46608e-10 
23 1 0.0966576 0.0168198 0.00746887 0.00558784 9.6337e-05 -6.17515e-05 4.4985e-11 -2.48933e-12 1.96115e-11 5e-05 1.46608e-10 
24 1 0.108835 0.0176622 0.00731723 0.00580568 0.000138651 -0.000477209 1.90893e-12 1.4397e-12 -6.4304e-13 5e-05 1.46608e-10 
25 1 0.102742 0.0168221 0.00753088 0.00556425 0.00040082 -3.51077e-05 2.07722e-11 -2.86959e-11 3.53083e-11 5e-05 1.46608e-10 
26 1 0.10869 0.0170206 0.00755677 0.00545911 0.000214005 -0.000478598 -3.09057e-12 -3.59478e-13 2.78328e-13 5e-05 1.46608e-10 
27 1 0.0965818 0.0165168 0.00771976 0.00564538 0.000238659 -2.66756e-06 -1.6899e-11 1.45201e-11 -7.17684e-11 5e-05 1.46608e-10 
28 1 0.10286 0.0174611 0.00721408 0.00578113 0.00035173 -0.000184009 -9.2413e-11 6.84065e-11 5.44327e-11 5e-05 1.46608e-10 
29 1 0.102666 0.0165056 0.00776344 0.00546586 0.000430181 -6.14337e-05 -1.0131e-10 3.12456e-10 -2.39126e-10 5e-05 1.46608e-10 
30 1 0.103012 0.0176128 0.00709218 0.00582961 0.000252042 -0.000218075 -8.98025e-11 1.31823e-11 -1.76372e-12 5e-05 1.46608e-10 
31 1 0.102742 0.0171895 0.00725668 0.00573769 0.000388907 -1.7147e-05 -1.47053e-11 -1.9394e-11 3.44366e-12 5e-05 1.46608e-10 
32 1 0.102799 0.0170594 0.00735645 0.00565318 0.0003907 -2.30178e-05 -2.52472e-11 -2.91683e-11 2.30649e-11 5e-05 1.46608e-10 
33 1 0.108631 0.016745 0.00765944 0.00558867 0.000185742 -0.000478076 -3.37179e-13 -2.14824e-12 7.06347e-13 5e-05 1.46608e-10 
34 1 0.102663 0.0168869 0.00758832 0.00561043 0.000405345 -3.42024e-05 3.22935e-11 -1.25802e-10 3.2132e-11 5e-05 1.46608e-10 
36 1 0.108877 0.0178455 0.00724879 0.00588236 0.000121867 -0.000476864 2.02371e-12 2.42012e-12 -1.17779e-12 5e-05 1.46608e-10 
37 1 0.102686 0.016952 0.00743123 0.00561189 0.000403166 -3.39999e-05 -7.08385e-12 -1.95985e-12 3.65069e-12 5e-05 1.46608e-10 
38 1 0.102837 0.0172177 0.00724019 0.00573954 0.000383179 -1.31779e-05 -3.98999e-11 4.42318e-12 -7.36127e-12 5e-05 1.46608e-10 
39 1 0.108815 0.0175705 0.00735145 0.00576732 0.000146985 -0.000477332 2.04068e-12 8.70194e-13 -3.02813e-13 5e-05 1.46608e-10 
41 1 0.10257 0.0164775 0.00777988 0.0056014 0.000424354 -5.04321e-05 -1.29388e-10 8.83477e-11 -9.41225e-11 5e-05 1.46608e-10 
42 1 0.102723 0.0171104 0.00731482 0.00566708 0.000395867 -2.69638e-05 -1.9119e-11 -1.87388e-11 7.17807e-12 5e-05 1.46608e-10 
44 1 0.102955 0.0173347 0.00718423 0.00571515 0.000328676 -0.000109566 2.74625e-12 -1.56601e-11 -2.38104e-11 5e-05 1.46608e-10 
45 1 0.108671 0.0169288 0.00759099 0.00545887 0.000213901 -0.000478336 4.18311e-12 -3.08715e-12 3.34018e-12 5e-05 1.46608e-10 
46 1 0.108732 0.017204 0.00748833 0.00561387 0.000180103 -0.000477858 2.03638e-12 -1.3891e-12 -8.52229e-14 5e-05 1.46608e-10 
47 1 0.10261 0.0166356 0.00766379 0.00546779 0.000438174 -6.76115e-05 1.21217e-10 1.67789e-10 -1.09412e-10 5e-05 1.46608e-10 
48 1 0.102932 0.0172458 0.00722366 0.00575115 0.000366806 8.70952e-08 -3.2858e-11 -2.69269e-12 -4.88959e-12 5e-05 1.46608e-10 
49 1 0.108711 0.0171123 0.00752255 0.00557552 0.000188394 -0.000478027 1.26835e-12 -1.05343e-12 4.25358e-13 5e-05 1.46608e-10 
50 1 0.102896 0.0174848 0.00712379 0.00572026 0.000317773 -0.000222354 1.94499e-11 -2.63501e-11 1.9765e-11 5e-05 1.46608e-10 
51 1 0.102992 0.0175173 0.00711388 0.00571512 0.000275599 -0.000219187 4.33931e-11 4.19548e-12 1.31654e-11 5e-05 1.46608e-10 
52 1 0.102937 0.0181011 0.0070786 0.00625087 0.000217088 -0.00022312 -5.97132e-12 -4.43737e-12 2.40468e-12 5e-05 1.46608e-10 
53 1 0.108773 0.0173873 0.00741989 0.00569061 0.000163551 -0.000477624 1.85689e-12 -2.52826e-13 -3.38627e-13 5e-05 1.46608e-10 
54 1 0.102625 0.0163469 0.00787992 0.00589003 0.000540781 -0.000123995 -3.50506e-10 1.72111e-10 -1.40654e-10 5e-05 1.46608e-10 
55 1 0.0963596 0.0156868 0.0083942 0.00621628 0.000131513 0.000104115 1.47357e-11 1.04537e-11 -3.64353e-12 5e-05 1.46608e-10 
56 1 0.102705 0.0170312 0.00737305 0.00564331 0.000413659 -4.07349e-05 -1.9023e-11 -9.437e-11 6.79709e-11 5e-05 1.46608e-10 
57 1 0.108651 0.0168369 0.00762522 0.00543238 0.000219317 -0.000478541 3.10759e-13 -3.00089e-12 -9.58161e-13 5e-05 1.46608e-10 
59 1 0.102875 0.0170085 0.00739806 0.0056277 0.000378229 -1.47235e-05 -1.79744e-11 -2.52922e-11 2.04294e-11 5e-05 1.46608e-10 
60 1 0.102894 0.0170876 0.00733996 0.00565461 0.000376567 -1.24576e-05 1.26156e-11 -1.80419e-11 7.83466e-12 5e-05 1.46608e-10 
61 1 0.10259 0.0165565 0.00772188 0.0054828 0.000440482 -6.80989e-05 -1.03865e-10 1.27329e-10 -1.08206e-10 5e-05 1.46608e-10 
62 1 0.103147 0.0179615 0.00709832 0.00621859 0.000188525 -0.000210493 1.14864e-11 3.38927e-11 -1.18677e-11 5e-05 1.46608e-10 
63 1 0.102913 0.0171666 0.00728189 0.0057067 0.000370415 -6.89442e-06 1.99756e-11 -1.66637e-11 -2.89952e-14 5e-05 1.46608e-10 
64 1 0.108794 0.0174789 0.00738567 0.00572897 0.000155272 -0.000477492 1.81187e-12 3.7248e-13 -2.63225e-13 5e-05 1.46608e-10 
65 1 0.0966201 0.0166691 0.00759593 0.00554001 0.000239903 -5.36871e-06 3.37604e-11 -9.82512e-11 1.37552e-11 5e-05 1.46608e-10 
66 1 0.0968687 0.0175329 0.00724041 0.00565573 7.63123e-05 -4.66139e-05 -4.59151e-10 1.14305e-10 -9.92471e-11 5e-05 1.46608e-10 
67 1 0.103087 0.0175478 0.00710449 0.00575943 0.000156986 -0.000194676 2.85251e-11 2.08115e-10 -4.73602e-11 5e-05 1.46608e-10 
68 1 0.102876 0.0173883 0.00714567 0.00575703 0.000328727 -0.000232624 3.20858e-13 -6.01538e-12 -1.17277e-11 5e-05 1.46608e-10 
69 1 0.102761 0.0169012 0.00747273 0.00558734 0.00039859 -3.22421e-05 7.02747e-11 -4.72136e-11 4.55656e-11 5e-05 1.46608e-10 
70 1 0.102879 0.0175567 0.00719199 0.00574335 0.000348209 -0.000231295 -2.15584e-11 4.06574e-11 6.3404e-13 5e-05 1.46608e-10 
71 1 0.0963383 0.0156109 0.00845578 0.0062407 0.000128749 0.000107555 2.9852e-11 3.03662e-11 -3.79724e-11 5e-05 1.46608e-10 
72 1 0.103051 0.0178909 0.00709827 0.00620556 0.000203376 -0.000215092 1.86247e-11 2.11068e-11 8.96235e-12 5e-05 1.46608e-10 
73 1 0.103015 0.0177797 0.0071386 0.00617121 0.000239587 -0.000205091 -1.39484e-11 1.25354e-11 3.45442e-11 5e-05 1.46608e-10 
74 1 0.10304 0.0181542 0.00697157 0.00627122 0.000204867 -0.000219344 3.79619e-11 2.7423e-12 -8.8718e-12 5e-05 1.46608e-10 
76 1 0.0972001 0.0184705 0.00692308 0.0062944 2.51922e-05 1.31513e-05 1.58356e-11 -2.49794e-11 7.72329e-12 5e-05 1.46608e-10 
77 1 0.102986 0.0183135 0.00693783 0.00629832 0.000210907 -0.000222333 -9.60062e-12 -4.38536e-12 -1.22062e-11 5e-05 1.46608e-10 
78 1 0.096444 0.0159903 0.00814771 0.00569455 0.000200293 3.34597e-05 1.54198e-11 -3.32667e-11 2.47128e-12 5e-05 1.46608e-10 
79 1 0.0966763 0.0168947 0.00740513 0.00563661 0.000148813 -0.000106469 -1.6709e-12 -3.13818e-11 2.25321e-11 5e-05 1.46608e-10 
80 1 0.102878 0.0178055 0.00714152 0.00569735 0.00035113 -0.00023092 -6.1349e-11 -6.95766e-11 2.76059e-11 5e-05 1.46608e-10 
81 1 0.0966011 0.0165929 0.00765787 0.00566443 0.000231738 4.83625e-06 -2.00459e-11 4.75561e-11 1.35275e-11 5e-05 1.46608e-10 
82 1 0.0966389 0.0167447 0.00753279 0.00555996 0.000132666 -9.29508e-05 -1.10383e-11 -9.23805e-11 8.32031e-11 5e-05 1.46608e-10 
83 1 0.096543 0.0163646 0.00784353 0.00581412 0.000202416 3.26638e-05 5.98835e-12 5.54772e-11 -3.78097e-11 5e-05 1.46608e-10 
84 1 0.108898 0.0179371 0.00721457 0.00592068 0.000113388 -0.000476666 1.91307e-12 2.82931e-12 -1.0699e-12 5e-05 1.46608e-10 
85 1 0.102468 0.0160829 0.00806952 0.00575673 0.000390551 -1.84644e-05 7.38244e-11 -1.70558e-11 -6.33626e-12 5e-05 1.46608e-10 
86 1 0.102935 0.0176764 0.00708026 0.00571884 0.000346546 -0.000235271 1.00213e-11 -3.76441e-11 9.12986e-12 5e-05 1.46608e-10 
87 1 0.103029 0.0172723 0.00720856 0.00572304 0.000377961 -1.0181e-05 1.18448e-11 1.80207e-12 3.84137e-12 5e-05 1.46608e-10 
88 1 0.103147 0.0181991 0.00695866 0.00628323 0.000181684 -0.000214732 -2.46021e-11 5.21929e-12 -1.09854e-11 5e-05 1.46608e-10 
89 1 0.102976 0.017868 0.00703671 0.00620698 0.000214344 -0.000219638 4.20804e-12 -3.66483e-11 1.13517e-11 5e-05 1.46608e-10 
90 1 0.10314 0.0178485 0.00703645 0.00619198 0.00018007 -0.000211316 -4.69444e-11 -3.06854e-11 9.61378e-12 5e-05 1.46608e-10 
91 1 0.102801 0.0174535 0.007134 0.00576066 0.000345334 -0.000168697 -6.39823e-12 -2.80814e-11 -2.53923e-12 5e-05 1.46608e-10 
92 1 0.103188 0.0180274 0.00699552 0.00624115 0.000170358 -0.000211358 -2.48819e-12 -4.71813e-11 8.0957e-12 5e-05 1.46608e-10 
93 1 0.102943 0.018123 0.00698118 0.00626007 0.0002208 -0.000222528 -2.02095e-11 -1.54973e-11 2.17571e-12 5e-05 1.46608e-10 
94 1 0.102954 0.0177721 0.00705854 0.00570105 0.000348486 -0.000235805 -1.56638e-13 -6.71343e-11 1.43252e-11 5e-05 1.46608e-10 
95 1 0.102859 0.0177403 0.00706821 0.0057168 0.000348173 -0.000235293 -1.35937e-11 -3.07148e-11 -1.20189e-13 5e-05 1.46608e-10 
96 1 0.102899 0.0179317 0.00702472 0.00621943 0.000226522 -0.000223059 -3.93495e-12 -4.66445e-11 1.24215e-11 5e-05 1.46608e-10 
97 1 0.0967898 0.016994 0.00732112 0.00567794 0.000124261 -6.49805e-05 -3.37867e-12 -9.99112e-11 -4.80687e-11 5e-05 1.46608e-10 
98 1 0.103088 0.0183505 0.00692679 0.00630796 0.000189981 -0.000216994 -1.76083e-11 8.7973e-12 4.70494e-13 5e-05 1.46608e-10 
99 1 0.096695 0.0169695 0.00734145 0.00566723 0.000141391 -0.000101406 6.12368e-12 -1.45768e-11 6.47571e-12 5e-05 1.46608e-10 
100 1 0.103126 0.0181038 0.00698034 0.00626173 0.000187168 -0.0002158 7.66981e-11 1.41375e-11 -5.31759e-12 5e-05 1.46608e-10 
101 1 0.0966573 0.0164674 0.00776295 0.00564654 0.000242453 -4.74124e-06 3.29044e-11 6.03968e-12 4.05714e-12 5e-05 1.46608e-10 
102 1 0.0694385 0.0202053 0.00537268 3.85025e-15 4.48431e-15 -7.68312e-14 -6.50319e-22 8.30528e-22 1.90252e-23 5e-05 1.46608e-10 
104 1 0.0967524 0.0168443 0.00744837 0.00557921 0.000122854 -8.49717e-05 1.16615e-10 -1.56621e-10 1.28797e-10 5e-05 1.46608e-10 
105 1 0.0965026 0.0162126 0.00796705 0.00573799 0.000201146 3.08765e-05 -5.10174e-11 5.62105e-11 -5.79033e-11 5e-05 1.46608e-10 
106 1 0.0968491 0.0172697 0.00722162 0.00567053 0.00013547 -4.17587e-05 -9.42511e-11 9.03345e-11 -2.44497e-11 5e-05 1.46608e-10 
107 1 0.0964636 0.0160806 0.00810949 0.00568879 0.000197957 2.89245e-05 2.96965e-11 -5.37247e-12 -5.57978e-11 5e-05 1.46608e-10 
108 1 0.102643 0.0168066 0.0076466 0.00560541 0.000401273 -3.3923e-05 7.19184e-11 -1.82722e-10 -6.20862e-12 5e-05 1.46608e-10 
109 1 0.10282 0.017549 0.00711164 0.00574697 0.000336625 -0.000232526 4.62238e-12 -3.45125e-11 1.05853e-12 5e-05 1.46608e-10 
110 1 0.102879 0.0178364 0.00704641 0.00569687 0.000341144 -0.000233699 3.96349e-12 -5.98706e-11 1.56685e-11 5e-05 1.46608e-10 
111 1 0.103118 0.0184602 0.00690166 0.00633557 0.000195142 -0.000219249 -5.86902e-11 -6.56623e-12 1.6509e-12 5e-05 1.46608e-10 
112 1 0.0965625 0.0164407 0.00778166 0.0055951 0.00023209 -1.31713e-06 1.74166e-10 5.49227e-11 -8.34838e-12 5e-05 1.46608e-10 
113 1 0.0968665 0.0169424 0.00736521 0.00567846 0.000103112 -6.61257e-05 2.56677e-10 5.57176e-12 -3.38583e-11 5e-05 1.46608e-10 
115 1 0.10284 0.0176447 0.00708992 0.00573231 0.000341913 -0.000235761 -1.64397e-11 -2.39946e-11 1.48104e-11 5e-05 1.46608e-10 
116 1 0.102856 0.0169294 0.00745619 0.00559747 0.000379723 -1.77334e-05 3.5354e-11 -4.54202e-11 3.50907e-11 5e-05 1.46608e-10 
117 1 0.102723 0.0167429 0.00758908 0.00552807 0.000397347 -3.36975e-05 -6.94864e-12 2.72069e-11 -2.80572e-11 5e-05 1.46608e-10 
118 1 0.0964024 0.0158385 0.00827107 0.00616365 0.000133394 9.97802e-05 -4.61287e-12 -4.27696e-11 4.91414e-11 5e-05 1.46608e-10 
119 1 0.103107 0.0176434 0.00708278 0.00597219 0.000118088 -0.000192004 3.27107e-11 2.19261e-10 -5.08577e-11 5e-05 1.46608e-10 
120 1 0.102489 0.0161619 0.00801167 0.00576822 0.000393023 -1.91852e-05 -6.60944e-11 1.00931e-10 -9.86757e-11 5e-05 1.46608e-10 
121 1 0.102584 0.0161891 0.00799575 0.00575783 0.000361545 3.68047e-06 7.83434e-11 4.03323e-11 1.81482e-12 5e-05 1.46608e-10 
122 1 0.102997 0.0179632 0.00701504 0.0062312 0.000210406 -0.000219731 -3.46837e-11 -2.76731e-11 4.19634e-12 5e-05 1.46608e-10 
123 1 0.0965227 0.0162886 0.00790528 0.00578986 0.00019926 3.34865e-05 -1.76507e-11 5.18737e-11 -2.89407e-11 5e-05 1.46608e-10 
124 1 0.102959 0.0179398 0.00710458 0.00621926 0.000217554 -0.000223152 -1.8935e-11 -8.15641e-12 8.14908e-12 5e-05 1.46608e-10 
125 1 0.102604 0.016268 0.00793782 0.00581894 0.000461046 -6.73455e-05 2.52007e-10 -1.7443e-10 1.706e-10 5e-05 1.46608e-10 
126 1 0.102781 0.0173591 0.00716059 0.00577134 0.000376219 -4.56355e-05 -1.11774e-11 -5.64655e-12 3.15456e-11 5e-05 1.46608e-10 
127 1 0.097084 0.0178396 0.0071635 0.00615508 -1.90487e-05 -2.81288e-05 3.02563e-10 -1.11836e-10 -1.11969e-10 5e-05 1.46608e-10 
128 1 0.103051 0.017804 0.00704876 0.00618467 0.000188941 -0.000213274 -2.20425e-11 -2.56714e-11 6.67849e-12 5e-05 1.46608e-10 
129 1 0.102921 0.0180271 0.007003 0.00624009 0.000219284 -0.00022187 -2.23541e-11 -4.40539e-11 1.13421e-11 5e-05 1.46608e-10 
131 1 0.0967712 0.0169191 0.00738471 0.00561625 0.00012183 -8.05254e-05 1.0313e-10 -1.26523e-10 8.72921e-11 5e-05 1.46608e-10 
132 1 0.103093 0.0179348 0.00701868 0.00622314 0.000191764 -0.000215293 1.76202e-11 1.69024e-11 -9.04011e-12 5e-05 1.46608e-10 
133 1 0.102685 0.0165847 0.00770535 0.00544896 0.000433802 -6.52683e-05 -2.41528e-10 1.89271e-10 -1.71205e-10 5e-05 1.46608e-10 
134 1 0.103202 0.0176745 0.00707326 0.00611263 0.000128785 -0.000198308 1.71458e-11 -1.51081e-11 1.82442e-12 5e-05 1.46608e-10 
135 1 0.102799 0.016692 0.00763061 0.00552598 0.000391983 -3.0179e-05 -8.17104e-11 -1.04069e-10 7.89529e-11 5e-05 1.46608e-10 
136 1 0.096424 0.0159142 0.0082095 0.00598964 0.000158851 7.34713e-05 4.5461e-13 -4.61761e-11 3.79967e-11 5e-05 1.46608e-10 
137 1 0.103007 0.0184087 0.00691616 0.00632398 0.000211582 -0.000221967 -5.18324e-11 3.58312e-11 -1.74653e-11 5e-05 1.46608e-10 
138 1 0.103061 0.0182495 0.00694989 0.00628926 0.000196709 -0.000217418 -2.21826e-11 2.21743e-11 3.29056e-11 5e-05 1.46608e-10 
140 1 0.102916 0.0175807 0.00710197 0.00573578 0.000344499 -0.000234673 -2.58775e-13 -3.37864e-12 4.41082e-12 5e-05 1.46608e-10 
141 1 0.0965975 0.0162385 0.00794895 0.00574483 0.000158219 6.54925e-05 -7.86288e-11 2.80803e-11 -2.79617e-11 5e-05 1.46608e-10 
142 1 0.0966957 0.0166197 0.00763906 0.00554265 0.000247978 -1.28705e-05 4.50532e-11 -7.5106e-11 1.07038e-10 5e-05 1.46608e-10 
143 1 0.0964824 0.0161366 0.00802881 0.00569744 0.000201221 2.81345e-05 -2.92205e-11 2.92859e-11 -6.78293e-11 5e-05 1.46608e-10 
146 1 0.0967719 0.0165685 0.00768343 0.00568331 0.000130625 -3.55948e-05 -1.32801e-10 5.86312e-11 -5.65462e-11 5e-05 1.46608e-10 
147 1 0.0963811 0.0157626 0.00833264 0.00619402 0.000132336 0.000101563 2.83388e-11 -3.45061e-11 3.33809e-11 5e-05 1.46608e-10 
148 1 0.00869498 0.0178201 0.00778761 -0.000222915 0.0112163 -0.00449185 -3.34021e-11 -1.80014e-10 1.80075e-11 5e-05 1.46608e-10 
149 1 0.1031 0.0180312 0.00704404 0.00623674 0.000192281 -0.000219256 1.68329e-11 3.20058e-11 -2.39308e-11 5e-05 1.46608e-10 
150 1 0.0966766 0.0165435 0.00770105 0.00567346 0.000238543 -3.10484e-06 1.02073e-10 -5.88385e-11 -2.70611e-11 5e-05 1.46608e-10 
151 1 0.097174 0.0175535 0.00715106 0.00591004 -3.1847e-05 -1.57213e-06 -7.8205e-11 3.57043e-11 4.08318e-12 5e-05 1.46608e-10 
153 1 0.0967526 0.0164926 0.00774549 0.00579469 0.000173974 5.31865e-05 -2.37108e-11 4.04815e-11 -2.52742e-11 5e-05 1.46608e-10 
154 1 0.096888 0.0174601 0.00717455 0.00566292 0.000132212 -4.35341e-05 -5.64855e-14 1.44908e-11 -1.98595e-11 5e-05 1.46608e-10 
155 1 0.0909441 0.017701 0.00704091 0.00549739 -0.000731839 5.30493e-05 -7.83289e-12 5.56945e-12 -2.22192e-12 5e-05 1.46608e-10 
156 1 0.0967722 0.0173318 0.00720641 0.00568609 0.000143058 -4.32054e-05 -1.25731e-11 6.64907e-11 -4.46504e-11 5e-05 1.46608e-10 
157 1 0.0969483 0.0177454 0.00710405 0.00608884 6.41498e-05 -3.02655e-05 4.37874e-11 2.27995e-10 2.08759e-12 5e-05 1.46608e-10 
158 1 0.096999 0.017142 0.00725291 0.0056885 0.000110654 -3.93445e-05 -1.37977e-10 1.21063e-10 -3.54802e-11 5e-05 1.46608e-10 
159 1 0.10317 0.0182941 0.006937 0.00629668 0.000176754 -0.000213994 -1.83129e-11 4.36416e-11 -8.58427e-12 5e-05 1.46608e-10 
160 1 0.0968501 0.0177126 0.00711215 0.00611393 5.65036e-05 5.93197e-06 9.19171e-11 -1.92625e-11 -2.8836e-11 5e-05 1.46608e-10 
162 1 0.09681 0.0170824 0.00727899 0.00571346 0.000129509 -4.54803e-05 -2.28644e-11 -4.75688e-11 -7.2273e-11 5e-05 1.46608e-10 
163 1 0.0970198 0.0172369 0.00722944 0.00568473 0.000109251 -3.52887e-05 -1.91721e-10 1.08148e-10 -4.16619e-11 5e-05 1.46608e-10 
164 1 0.0970718 0.0178767 0.00707147 0.00617008 3.16734e-05 -1.17522e-05 9.31915e-11 -2.41368e-11 -7.88165e-11 5e-05 1.46608e-10 
165 1 0.0969458 0.0168961 0.00740493 0.00564424 6.8003e-05 -3.54954e-05 3.15425e-10 -2.87292e-11 1.20832e-11 5e-05 1.46608e-10 
166 1 0.102428 0.0159256 0.00818621 0.00587975 0.000220227 -0.000203805 2.10465e-10 1.45245e-10 5.63367e-10 5e-05 1.46608e-10 
167 1 0.0967911 0.016644 0.00762068 0.00557228 7.88811e-05 -0.000133856 -6.6114e-11 9.06185e-11 -7.0583e-12 5e-05 1.46608e-10 
168 1 0.0969074 0.0175553 0.00715101 0.00561192 0.000171242 -5.18857e-05 8.02528e-10 2.25958e-11 -1.31071e-10 5e-05 1.46608e-10 
169 1 0.0970586 0.0174274 0.00718236 0.00580308 8.24176e-05 -3.04286e-05 -5.41595e-11 2.91905e-11 -3.39425e-11 5e-05 1.46608e-10 
170 1 0.0969834 0.0174914 0.00716669 0.00579654 8.45665e-05 -3.02535e-05 -6.80809e-11 1.50719e-11 2.56981e-11 5e-05 1.46608e-10 
171 1 0.102818 0.0167711 0.00757248 0.00552632 0.000390459 -2.88101e-05 -2.00557e-11 -6.9896e-11 5.58394e-11 5e-05 1.46608e-10 
172 1 0.0972359 0.0178402 0.00708019 0.0061598 3.24163e-05 -1.77819e-05 1.09778e-10 -1.06415e-10 6.16501e-11 5e-05 1.46608e-10 
173 1 0.103067 0.0174521 0.00712622 0.00569162 0.000245829 -0.000212945 6.5336e-11 1.3656e-11 -7.87571e-13 5e-05 1.46608e-10 
174 1 0.096899 0.0177683 0.00718804 0.00606429 2.32415e-05 -3.4888e-05 -1.72791e-10 3.92874e-11 -3.5325e-11 5e-05 1.46608e-10 
175 1 0.0937355 0.0174046 0.00712849 0.00557267 -0.000801352 0.000331284 -2.22989e-13 4.26775e-14 7.74954e-15 5e-05 1.46608e-10 
176 1 0.0967527 0.0172366 0.00722995 0.0057089 0.000142666 -4.31481e-05 1.00177e-11 9.56269e-11 -8.55906e-11 5e-05 1.46608e-10 
177 1 0.0972707 0.0180569 0.00702665 0.00621436 -7.93553e-06 -6.27619e-06 1.92435e-10 -1.2196e-10 -2.96159e-11 5e-05 1.46608e-10 
178 1 0.0972168 0.0177431 0.00710418 0.00611368 -6.07822e-05 5.05379e-06 3.12981e-12 -5.03313e-11 -1.49406e-12 5e-05 1.46608e-10 
179 1 0.0907877 0.017412 0.00719102 0.00549435 -0.000734645 5.46285e-05 -2.86284e-12 1.11817e-11 -5.79012e-12 5e-05 1.46608e-10 
180 1 0.0969244 0.0172091 0.00724802 0.00567919 0.000109359 -4.36442e-05 -6.13147e-11 -1.7868e-11 -3.83862e-11 5e-05 1.46608e-10 
181 1 0.0969637 0.0173962 0.00719039 0.00574159 9.75393e-05 -3.70051e-05 7.38209e-11 -2.95014e-11 3.08878e-11 5e-05 1.46608e-10 
182 1 0.102989 0.0171143 0.00732451 0.0056435 0.000391751 -2.46069e-05 3.64008e-11 -1.79821e-11 1.46873e-11 5e-05 1.46608e-10 
183 1 0.0970783 0.0175226 0.00715884 0.00592319 5.26125e-05 -2.07834e-05 8.7608e-11 3.12969e-11 -1.50867e-11 5e-05 1.46608e-10 
184 1 0.102964 0.0182182 0.00695951 0.00628236 0.000217402 -0.000223312 2.69998e-11 2.12906e-11 -1.43841e-11 5e-05 1.46608e-10 
185 1 0.0967917 0.017427 0.00718287 0.00566438 0.000134628 -4.35593e-05 -1.92909e-11 5.18291e-11 1.12979e-11 5e-05 1.46608e-10 
186 1 0.0968296 0.0171744 0.00724516 0.00572513 0.00014326 -4.24487e-05 1.05285e-11 9.38374e-11 -2.19563e-11 5e-05 1.46608e-10 
187 1 0.103009 0.0171932 0.00726658 0.0056436 0.000390325 -2.32605e-05 8.07224e-12 -6.08035e-12 2.6273e-12 5e-05 1.46608e-10 
188 1 0.103018 0.0180585 0.00699336 0.00624749 0.000207087 -0.000220029 -2.87564e-12 -1.05681e-11 2.14558e-12 5e-05 1.46608e-10 
189 1 0.102704 0.0166638 0.00764722 0.00553222 0.000415518 -4.75941e-05 -1.80202e-10 4.60487e-11 -4.47211e-11 5e-05 1.46608e-10 
190 1 0.0972739 0.0184051 0.00693973 0.00628732 1.71363e-05 1.51662e-05 1.23618e-10 1.33333e-10 -3.16658e-11 5e-05 1.46608e-10 
191 1 0.103028 0.0185039 0.00689448 0.00634114 0.000206622 -0.000221993 8.15229e-11 9.33282e-11 -1.4702e-11 5e-05 1.46608e-10 
192 1 0.0968685 0.0173649 0.00719809 0.0056692 0.000148469 -4.58145e-05 -9.66666e-11 1.06249e-10 -2.64183e-11 5e-05 1.46608e-10 
193 1 0.10305 0.0185992 0.00687281 0.00636386 0.000202385 -0.000221493 8.51993e-12 5.92536e-11 -1.06081e-11 5e-05 1.46608e-10 
194 1 0.0967147 0.0166949 0.00757586 0.00553913 0.000168496 -9.1337e-05 -3.62367e-11 -5.9317e-11 1.31764e-11 5e-05 1.46608e-10 
195 1 0.097003 0.0175865 0.00714316 0.00584067 7.63444e-05 -3.17198e-05 -9.78054e-11 -2.82324e-11 -9.38327e-11 5e-05 1.46608e-10 
196 1 0.0962768 0.0154322 0.00867334 0.00628612 0.000122157 0.000109762 8.10467e-12 2.84261e-12 2.74083e-11 5e-05 1.46608e-10 
197 1 0.0969523 0.0179205 0.00714291 0.00616396 6.85769e-05 -3.91301e-06 8.995e-12 -1.25674e-10 -3.28918e-11 5e-05 1.46608e-10 
198 1 0.0967138 0.0170449 0.00727732 0.00568063 4.83429e-05 -2.06841e-05 2.02383e-13 5.81884e-15 2.04946e-15 5e-05 1.46608e-10 
199 1 0.0968306 0.0176175 0.0071358 0.00561211 0.000128487 -3.10724e-05 3.60766e-11 -1.11687e-12 -6.13735e-11 5e-05 1.46608e-10 
200 1 0.0967335 0.0167695 0.00751202 0.00556346 0.000123855 -8.53885e-05 7.9945e-11 -1.84568e-10 1.60505e-10 5e-05 1.46608e-10 
201 1 0.0971786 0.0183757 0.00694681 0.00627518 2.62274e-05 1.30469e-05 1.3611e-10 -1.13332e-11 -8.48961e-13 5e-05 1.46608e-10 
203 1 0.103196 0.0179299 0.00701689 0.00620995 0.000166607 -0.000209075 1.58891e-11 -2.53813e-11 3.75997e-12 5e-05 1.46608e-10 
204 1 0.0968482 0.0168681 0.00742965 0.00562526 9.931e-05 -8.73418e-05 2.13863e-10 -2.98725e-11 -1.04849e-10 5e-05 1.46608e-10 
205 1 0.0969327 0.0180184 0.00713693 0.00618898 6.88076e-05 3.234e-06 -3.06152e-11 -3.53124e-11 5.23647e-12 5e-05 1.46608e-10 
206 1 0.0969277 0.0176504 0.00712763 0.005881 0.000100318 -8.32295e-05 1.87153e-10 1.43102e-10 1.82204e-11 5e-05 1.46608e-10 
207 1 0.0967327 0.0164165 0.00780732 0.00583569 0.000181056 7.47598e-05 6.46777e-11 3.28556e-11 1.47533e-11 5e-05 1.46608e-10 
208 1 0.0968111 0.0175222 0.00715933 0.00564582 0.000119083 -3.95826e-05 -7.76146e-11 -5.41749e-11 -5.91691e-11 5e-05 1.46608e-10 
209 1 0.0908076 0.0174996 0.00714706 0.00550134 -0.000736919 5.53406e-05 7.98538e-12 9.85819e-12 -5.17227e-12 5e-05 1.46608e-10 
210 1 0.102448 0.016004 0.00812744 0.00574613 0.000393731 -2.00713e-05 9.97866e-11 -6.33666e-11 1.07797e-10 5e-05 1.46608e-10 
211 1 0.102986 0.0181838 0.00705069 0.00626427 0.000210998 -0.000224178 3.12934e-11 -2.20826e-11 -5.63024e-12 5e-05 1.46608e-10 
212 1 0.0971958 0.0176482 0.00712764 0.00598162 -3.99393e-05 7.04873e-07 1.12068e-11 -2.57564e-11 -3.99397e-12 5e-05 1.46608e-10 
213 1 0.103215 0.0177838 0.00704868 0.00616487 0.000149021 -0.00020427 3.81991e-11 2.4704e-11 -5.28982e-12 5e-05 1.46608e-10 
214 1 0.103007 0.0180302 0.00708862 0.00624362 0.000210269 -0.000220766 -2.47942e-11 -7.39773e-12 -1.22317e-12 5e-05 1.46608e-10 
215 1 0.0969048 0.0171138 0.00727116 0.00569327 0.000104204 -5.12453e-05 -5.71323e-11 4.05568e-11 -5.32144e-11 5e-05 1.46608e-10 
216 1 0.0969789 0.0170469 0.00727654 0.00568654 0.000102268 -7.10654e-05 -4.20971e-11 1.18501e-10 -1.1348e-10 5e-05 1.46608e-10 
217 1 0.102837 0.0168503 0.00751434 0.00555108 0.00038635 -2.46459e-05 -3.01934e-11 -5.21279e-11 3.65494e-11 5e-05 1.46608e-10 
218 1 0.0970451 0.0177765 0.00709621 0.00612101 2.11579e-05 -1.47472e-05 2.03986e-11 3.4575e-11 1.97144e-11 5e-05 1.46608e-10 
219 1 0.102992 0.0182819 0.0070325 0.00628615 0.000210095 -0.000220518 3.05536e-11 -3.94797e-12 -9.25797e-12 5e-05 1.46608e-10 
220 1 0.0968849 0.0170242 0.00731082 0.00570132 0.000104066 -5.86047e-05 8.52001e-11 4.1872e-11 -5.65973e-11 5e-05 1.46608e-10 
221 1 0.0906899 0.0169788 0.00742022 0.00545148 -0.000483056 0.000508712 9.34134e-13 -5.99838e-13 8.67916e-13 5e-05 1.46608e-10 
222 1 0.102629 0.0167146 0.00760567 0.00552348 0.000418032 -5.01995e-05 -1.65396e-11 1.34557e-10 -1.11124e-10 5e-05 1.46608e-10 
223 1 0.0969441 0.017301 0.00721374 0.00570708 0.000106153 -3.68587e-05 -3.54843e-11 -3.01661e-11 3.39386e-13 5e-05 1.46608e-10 
224 1 0.0967333 0.0171412 0.0072535 0.00572053 0.00013673 -4.15241e-05 2.69128e-11 2.27772e-11 -9.27201e-12 5e-05 1.46608e-10 
225 1 0.103127 0.0177394 0.00706098 0.00615556 0.000167594 -0.000208049 7.54399e-12 -2.30272e-11 6.8766e-12 5e-05 1.46608e-10 
226 1 0.0969644 0.0169716 0.00734068 0.00570114 9.85748e-05 -6.81741e-05 8.20438e-11 1.47942e-10 -1.55686e-10 5e-05 1.46608e-10 
227 1 0.0907493 0.0172365 0.00727901 0.00548262 -0.000732514 5.38996e-05 -6.80073e-12 9.26941e-12 -5.17954e-12 5e-05 1.46608e-10 
228 1 0.0507861 0.0189683 0.00558458 -5.35534e-15 -1.91091e-14 -2.87013e-13 -3.05915e-22 5.88074e-23 8.27181e-25 5e-05 1.46608e-10 
229 1 0.0965565 0.0160859 0.00807292 0.00565753 0.000168006 5.45033e-05 -2.92804e-11 4.28777e-11 -3.29768e-11 5e-05 1.46608e-10 
230 1 0.0969347 0.01809 0.00706709 0.00612694 8.35865e-05 -7.79195e-06 -1.60878e-11 -8.39525e-11 2.99942e-12 5e-05 1.46608e-10 
231 1 0.197479 0.018695 0.00523156 -1.0996e-15 -2.69835e-14 1.45243e-13 -1.47586e-22 -5.27328e-24 -2.06795e-24 5e-05 1.46608e-10 
232 1 0.0965773 0.0161624 0.00801076 0.00571606 0.000179105 4.76614e-05 -3.2401e-11 1.20761e-10 -1.03708e-10 5e-05 1.46608e-10 
233 1 0.096829 0.0167936 0.00749352 0.00557305 8.25424e-05 -0.000125837 6.83768e-11 -4.77236e-11 -1.55362e-10 5e-05 1.46608e-10 
234 1 0.102386 0.0157747 0.00831039 0.00625917 0.000121454 -0.000204123 -1.13299e-10 -3.20499e-10 2.83908e-10 5e-05 1.46608e-10 
235 1 0.0971047 0.018441 0.00693019 0.00628124 3.67311e-05 1.03766e-05 7.30524e-11 -3.01056e-11 1.17187e-11 5e-05 1.46608e-10 
236 1 0.0971262 0.0185358 0.00690648 0.00630181 3.7887e-05 1.02198e-05 -5.97152e-11 -1.41663e-10 3.36427e-11 5e-05 1.46608e-10 
237 1 0.0970353 0.0182308 0.00698315 0.00623535 4.27097e-05 9.46696e-06 8.53662e-11 -1.59951e-10 3.45747e-11 5e-05 1.46608e-10 
238 1 0.090827 0.0175873 0.00710307 0.00550825 -0.00073868 5.58089e-05 -8.76378e-13 3.9604e-12 -2.99048e-12 5e-05 1.46608e-10 
239 1 0.090593 0.0165598 0.00767526 0.00549904 -0.000491349 0.000515699 -1.83047e-12 -6.05102e-12 3.66526e-12 5e-05 1.46608e-10 
240 1 0.0906706 0.016895 0.00747124 0.00541048 -0.000477059 0.000503426 -2.04675e-12 -3.39428e-12 1.83044e-12 5e-05 1.46608e-10 
241 1 0.0906123 0.0166436 0.00762425 0.00536122 -0.000470391 0.000497422 4.34799e-13 -6.56433e-12 4.04416e-12 5e-05 1.46608e-10 
242 1 0.0909033 0.0175277 0.00712797 0.00550815 -0.000738788 5.58647e-05 -4.91619e-12 2.58498e-12 -1.32582e-12 5e-05 1.46608e-10 
243 1 0.0905731 0.0164761 0.0077262 0.00548383 -0.00048926 0.000513816 1.13456e-12 -4.2884e-12 2.71298e-12 5e-05 1.46608e-10 
244 1 0.0906317 0.0167274 0.00757324 0.00537586 -0.000472296 0.000499167 1.48841e-12 -6.59944e-12 4.2237e-12 5e-05 1.46608e-10 
245 1 0.090848 0.0176759 0.00706185 0.00550638 -0.000719072 9.67407e-05 -7.54482e-12 -2.22482e-13 -7.60526e-12 5e-05 1.46608e-10 
246 1 0.0907093 0.0170626 0.00736921 0.0054723 -0.000485991 0.00051147 4.63444e-12 4.03877e-12 -3.72768e-13 5e-05 1.46608e-10 
247 1 0.0970988 0.0176176 0.00713535 0.00604048 2.56093e-05 -1.66004e-05 -7.43147e-11 6.28199e-11 -3.10404e-11 5e-05 1.46608e-10 