ITEM: TIMESTEP
11800000
ITEM: NUMBER OF ATOMS
284
ITEM: BOX BOUNDS ff ff ff
-0.02 0.43
-0.02 0.06
-0.02 0.07
ITEM: ATOMS id type x y z vx vy vz fx fy fz radius mass 
1 1 0.0816223 0.0162867 0.00786279 0.00558249 0.000228152 0.000250252 6.27945e-11 1.37538e-10 -6.15634e-11 5e-05 1.46608e-10 
2 1 0.0820292 0.0172763 0.00741333 0.00589268 3.7964e-05 0.000361996 -5.9343e-11 -2.80666e-11 1.62745e-11 5e-05 1.46608e-10 
3 1 0.0755772 0.0160947 0.00797939 0.00586011 0.000411571 -0.000704807 -7.25485e-10 1.93155e-10 -6.77126e-11 5e-05 1.46608e-10 
4 1 0.0820291 0.0176822 0.0072182 0.00598839 0.000126596 0.000326066 -1.01808e-10 -1.46664e-10 6.98166e-11 5e-05 1.46608e-10 
5 1 0.0815271 0.0162552 0.00787177 0.0056247 0.000249076 0.000243446 -1.24802e-10 -4.81778e-13 1.55763e-11 5e-05 1.46608e-10 
6 1 0.0876494 0.0167852 0.00757993 0.00544247 -0.000216431 0.000329209 -2.65448e-14 8.43604e-12 -2.60813e-12 5e-05 1.46608e-10 
7 1 0.0816759 0.0167293 0.00765348 0.00548979 0.00022594 0.000244277 -9.48751e-11 1.98064e-11 -3.52147e-11 5e-05 1.46608e-10 
8 1 0.0815417 0.0159344 0.00803506 0.0055994 0.000198053 -9.79478e-05 -2.48875e-10 -1.09464e-11 -3.62753e-11 5e-05 1.46608e-10 
9 1 0.0879109 0.0179386 0.00709296 0.00641958 0.00123313 -0.000959712 1.11243e-12 3.60334e-13 -2.46789e-13 5e-05 1.46608e-10 
10 1 0.0816516 0.0168161 0.00761019 0.00549093 0.000228527 0.000243505 -3.40956e-11 4.85302e-11 -4.04469e-11 5e-05 1.46608e-10 
11 1 0.0817678 0.0169382 0.00755898 0.00552605 0.000162177 0.000279538 -1.77999e-10 1.87013e-10 -1.0435e-10 5e-05 1.46608e-10 
12 1 0.0818505 0.0172931 0.00739373 0.00587444 0.000134252 0.00031256 -5.34736e-11 9.89321e-11 -1.63826e-10 5e-05 1.46608e-10 
13 1 0.0818549 0.0176987 0.00733005 0.00609018 0.000194534 0.000261112 2.17412e-10 -9.90755e-11 -1.75274e-10 5e-05 1.46608e-10 
14 1 0.0752787 0.0154257 0.00872517 0.00637032 0.000564871 -0.000493743 -1.49788e-10 -1.10383e-10 1.49785e-10 5e-05 1.46608e-10 
15 1 0.0817528 0.0172599 0.00740336 0.00587169 0.000174278 0.000291349 3.6776e-10 2.78103e-10 -5.63329e-11 5e-05 1.46608e-10 
16 1 0.075257 0.015372 0.00880666 0.00635914 0.000575986 -0.000511837 -1.07442e-10 -1.47799e-10 2.08707e-10 5e-05 1.46608e-10 
17 1 0.0819394 0.0175281 0.00738396 0.00597492 0.000136061 0.000290104 -7.86412e-12 -9.73817e-11 1.09613e-11 5e-05 1.46608e-10 
18 1 0.0877907 0.0174225 0.00732708 0.00581504 -0.00028426 0.000373344 7.37917e-13 -2.58681e-12 1.34843e-12 5e-05 1.46608e-10 
19 1 0.0814869 0.0160779 0.00795513 0.00554168 0.000201585 0.000109137 1.25842e-10 -3.36493e-11 -5.06491e-11 5e-05 1.46608e-10 
20 1 0.0819245 0.0174092 0.00743295 0.00595893 0.000172728 0.000300378 2.48905e-10 4.34572e-11 -1.1344e-10 5e-05 1.46608e-10 
21 1 0.081507 0.0161665 0.00791316 0.00563203 0.000248302 0.000244818 -4.39343e-11 -4.95947e-11 -2.18412e-11 5e-05 1.46608e-10 
22 1 0.0818088 0.0171157 0.00747633 0.00582579 0.000167131 0.000296184 -2.78452e-11 -1.1343e-10 1.18204e-10 5e-05 1.46608e-10 
23 1 0.0756173 0.016621 0.00759231 0.00573882 0.000533219 -0.000775012 -6.61901e-11 -2.39066e-11 -3.45123e-10 5e-05 1.46608e-10 
24 1 0.0878829 0.017819 0.00715304 0.00636248 0.00125533 -0.000967406 1.28583e-12 3.4703e-13 -2.42292e-13 5e-05 1.46608e-10 
25 1 0.0817715 0.016761 0.00764441 0.00552507 0.000254032 0.000234062 1.74366e-11 1.14834e-11 -1.06525e-11 5e-05 1.46608e-10 
26 1 0.087728 0.0171497 0.00743519 0.00542249 -0.000213289 0.000327095 -1.75268e-13 -1.62592e-12 6.27902e-13 5e-05 1.46608e-10 
27 1 0.0755399 0.0163061 0.00782641 0.00582534 0.000538835 -0.000795172 8.96457e-11 2.29965e-10 -2.08433e-10 5e-05 1.46608e-10 
28 1 0.0818092 0.0174232 0.00741867 0.005939 0.000200427 0.000299465 2.01955e-11 1.82482e-11 -1.21937e-10 5e-05 1.46608e-10 
29 1 0.0816424 0.0163755 0.0078214 0.00561831 0.000224539 0.000254333 1.27847e-10 7.61366e-11 -1.88531e-11 5e-05 1.46608e-10 
30 1 0.0820099 0.0175923 0.00726019 0.00598126 0.000113398 0.000329818 -1.08293e-10 3.17215e-11 -6.91277e-12 5e-05 1.46608e-10 
31 1 0.081732 0.0171713 0.00744465 0.00584301 0.0001905 0.000288253 -2.60606e-10 1.32169e-10 -2.12957e-11 5e-05 1.46608e-10 
32 1 0.0817881 0.017027 0.00751762 0.00574934 0.000127918 0.000310683 -7.75898e-11 2.81549e-10 -1.41635e-10 5e-05 1.46608e-10 
33 1 0.087669 0.0168763 0.00754375 0.00543747 -0.000215721 0.000328772 5.57784e-12 3.36708e-12 -2.63932e-12 5e-05 1.46608e-10 
34 1 0.0816437 0.0168058 0.00770934 0.00548831 0.000205248 0.000242406 4.49757e-11 1.11879e-11 -7.46409e-11 5e-05 1.46608e-10 
36 1 0.0879387 0.0180574 0.00703331 0.00647709 0.00121464 -0.000953856 9.58035e-13 3.38556e-13 -2.33618e-13 5e-05 1.46608e-10 
37 1 0.0816713 0.016905 0.00756874 0.00549111 0.000231515 0.000243657 4.863e-11 1.18307e-10 -4.80086e-11 5e-05 1.46608e-10 
38 1 0.0818297 0.0172044 0.00743502 0.00582705 0.000141257 0.000305421 -1.49244e-10 -7.80125e-11 7.38879e-11 5e-05 1.46608e-10 
39 1 0.0878556 0.0177022 0.00721171 0.00628914 0.00120188 -0.000937182 2.62395e-12 5.19806e-12 -2.71945e-12 5e-05 1.46608e-10 
41 1 0.0815471 0.016344 0.00783038 0.00562118 0.000246025 0.000243347 -5.76988e-11 -1.0259e-11 8.98257e-12 5e-05 1.46608e-10 
42 1 0.0817112 0.0170826 0.00748594 0.00578308 0.000180897 0.000286484 -7.84542e-11 -4.25383e-11 -3.83964e-11 5e-05 1.46608e-10 
44 1 0.081946 0.017324 0.00738503 0.00595295 0.000139966 0.000317189 8.19984e-11 1.55341e-10 -4.34901e-11 5e-05 1.46608e-10 
45 1 0.0877083 0.0170586 0.00747137 0.00542758 -0.000214183 0.000327643 2.2999e-12 2.09389e-12 -1.04253e-12 5e-05 1.46608e-10 
46 1 0.0877697 0.0173316 0.0073631 0.00578213 -0.000278502 0.000369534 8.67399e-13 -3.20422e-12 5.00643e-13 5e-05 1.46608e-10 
47 1 0.0815867 0.0165217 0.00774753 0.00546172 0.000267376 0.000223793 -3.35177e-11 1.75585e-11 -1.18293e-11 5e-05 1.46608e-10 
48 1 0.0819253 0.0172353 0.00742634 0.0058546 0.000101588 0.000333043 -1.39576e-10 3.27442e-11 1.78713e-12 5e-05 1.46608e-10 
49 1 0.0877487 0.0172407 0.00739912 0.0057493 -0.000272494 0.000365613 5.92024e-13 -2.60752e-12 1.16316e-12 5e-05 1.46608e-10 
50 1 0.0818931 0.0174716 0.00731066 0.00601492 0.000161966 0.000310567 2.38152e-10 3.50851e-10 -1.02778e-10 5e-05 1.46608e-10 
51 1 0.0819905 0.0175033 0.00730168 0.00597566 0.00010308 0.00032676 -1.79012e-10 -5.94364e-11 -4.63354e-11 5e-05 1.46608e-10 
52 1 0.0819434 0.0180812 0.00708895 0.0061527 0.000170827 0.00029467 -2.42778e-11 1.69657e-10 -1.16592e-10 5e-05 1.46608e-10 
53 1 0.0878117 0.0175133 0.00729105 0.00584803 -0.000289869 0.000377073 6.89033e-13 -2.10829e-12 1.11237e-12 5e-05 1.46608e-10 
54 1 0.0816023 0.0161979 0.00790418 0.00561526 0.000242264 0.000246022 -1.15394e-10 3.01074e-11 -4.63431e-11 5e-05 1.46608e-10 
55 1 0.0753221 0.0155332 0.00856219 0.00637836 0.000560795 -0.000461596 8.12641e-11 -2.12163e-11 -2.51655e-11 5e-05 1.46608e-10 
56 1 0.081691 0.0169938 0.0075273 0.00557348 0.000217934 0.000254437 -2.06165e-10 8.07729e-11 -7.47928e-11 5e-05 1.46608e-10 
57 1 0.0876887 0.0169675 0.00750756 0.00543244 -0.000214711 0.000328085 -3.06603e-12 4.08559e-12 -7.21502e-13 5e-05 1.46608e-10 
59 1 0.0818628 0.0169691 0.00755027 0.00572046 9.12291e-05 0.000324605 -2.53466e-10 -2.65822e-11 3.06112e-12 5e-05 1.46608e-10 
60 1 0.0818836 0.0170578 0.00750897 0.0058071 0.000158913 0.000295999 4.75326e-11 -1.38737e-10 4.09768e-11 5e-05 1.46608e-10 
61 1 0.0815671 0.0164328 0.00778899 0.00562853 0.000246261 0.000245043 -1.21676e-11 -2.54641e-11 -5.34921e-12 5e-05 1.46608e-10 
62 1 0.082098 0.0177895 0.00725478 0.00599521 0.000564563 0.000318341 -2.07602e-10 1.5579e-10 9.67892e-12 5e-05 1.46608e-10 
63 1 0.0819044 0.0171465 0.00746768 0.00579577 0.000103181 0.000324816 -2.66847e-10 -2.68036e-12 -7.07192e-11 5e-05 1.46608e-10 
64 1 0.0878328 0.0176042 0.00725503 0.00588098 -0.000295503 0.000380832 4.96911e-14 -2.7881e-12 1.2141e-12 5e-05 1.46608e-10 
65 1 0.0755792 0.0164628 0.00770847 0.00572602 0.000542491 -0.000795472 -3.1198e-10 2.47634e-10 -2.06578e-10 5e-05 1.46608e-10 
66 1 0.0757722 0.0172158 0.00733513 0.0057725 0.000705832 -0.000297761 7.99185e-11 8.14591e-11 4.45715e-11 5e-05 1.46608e-10 
67 1 0.0820881 0.0175248 0.00729766 0.005884 0.000633906 7.44791e-05 -3.82519e-10 2.49822e-10 -1.29249e-10 5e-05 1.46608e-10 
68 1 0.081872 0.0173826 0.00735207 0.00596007 0.00016806 0.000306798 -1.44883e-10 -4.93654e-11 3.42233e-11 5e-05 1.46608e-10 
69 1 0.0817465 0.0168476 0.00760115 0.00550485 0.000246002 0.000236632 -2.34362e-11 1.12669e-14 2.60177e-12 5e-05 1.46608e-10 
70 1 0.0818122 0.0175167 0.00737903 0.00599955 0.000215859 0.000295803 6.67568e-11 8.63052e-12 -1.05697e-10 5e-05 1.46608e-10 
71 1 0.0753004 0.0154795 0.00864368 0.00637934 0.000556076 -0.000473664 1.39133e-11 -5.44965e-12 8.81448e-11 5e-05 1.46608e-10 
72 1 0.0819869 0.0176767 0.00730872 0.00598375 0.000150825 0.000330198 -1.9149e-10 -3.5634e-11 8.86191e-12 5e-05 1.46608e-10 
73 1 0.0818851 0.0176062 0.00735314 0.00602773 0.000195059 0.00029786 -1.14522e-10 1.04091e-11 4.03112e-10 5e-05 1.46608e-10 
74 1 0.0820726 0.0180997 0.00702031 0.006194 0.000160196 0.000320924 5.1323e-11 4.75634e-12 4.42975e-11 5e-05 1.46608e-10 
76 1 0.0761967 0.0179851 0.00714173 0.0061004 0.000593959 -0.000333864 -1.48354e-11 9.96977e-12 9.63342e-13 5e-05 1.46608e-10 
77 1 0.0820312 0.0184555 0.00691054 0.0063407 0.000253884 -9.28336e-06 -2.06332e-11 -1.75994e-11 3.45744e-11 5e-05 1.46608e-10 
78 1 0.0754004 0.0157625 0.00824452 0.00542679 0.000530132 -0.000801491 1.30886e-10 9.45046e-11 -6.3128e-11 5e-05 1.46608e-10 
79 1 0.0756367 0.0167028 0.00753816 0.00577164 0.000641675 -0.000577107 -2.31701e-10 7.33907e-11 -2.98843e-10 5e-05 1.46608e-10 
80 1 0.0818839 0.0178089 0.00724775 0.0060717 0.00016942 0.000324399 -9.45549e-11 1.01355e-10 1.31269e-10 5e-05 1.46608e-10 
81 1 0.0755596 0.0163844 0.00776745 0.00574649 0.000549937 -0.00079102 -2.68011e-10 3.15794e-10 -1.75951e-10 5e-05 1.46608e-10 
82 1 0.075598 0.0165413 0.00764946 0.00572734 0.000499407 -0.000841002 -1.90503e-10 1.23107e-10 -2.50566e-10 5e-05 1.46608e-10 
83 1 0.0755011 0.0161494 0.00794438 0.0059842 0.000515425 -0.000790638 -4.72684e-10 3.19169e-10 -1.94368e-10 5e-05 1.46608e-10 
84 1 0.0879663 0.0181754 0.00697401 0.0065351 0.0011998 -0.000949813 8.21497e-13 2.84519e-13 -1.77508e-13 5e-05 1.46608e-10 
85 1 0.0814468 0.0159069 0.00805066 0.00561345 0.000105833 -4.6415e-05 -1.4053e-10 -6.56451e-11 7.00259e-11 5e-05 1.46608e-10 
86 1 0.0819349 0.0176499 0.00722765 0.00599121 0.00012332 0.000331178 -1.29311e-10 -5.06589e-11 1.6687e-11 5e-05 1.46608e-10 
87 1 0.0820085 0.0171876 0.00745463 0.00584206 7.76427e-05 0.00033793 -6.28264e-11 6.20232e-11 -3.36798e-11 5e-05 1.46608e-10 
88 1 0.0819682 0.0181781 0.00708452 0.00624042 0.000175744 0.000309256 -1.51495e-11 -1.40042e-11 -1.75811e-10 5e-05 1.46608e-10 
89 1 0.0819801 0.017843 0.00713771 0.00614397 0.000134254 0.000333693 1.13722e-11 2.86626e-12 2.03416e-14 5e-05 1.46608e-10 
90 1 0.0821381 0.0178075 0.00716497 0.00619752 0.000147694 0.000327335 -1.87877e-11 -6.44726e-11 2.61385e-11 5e-05 1.46608e-10 
91 1 0.0817944 0.0174373 0.00732079 0.00597083 0.000203231 0.00029169 -1.68159e-10 8.28368e-11 -4.48215e-11 5e-05 1.46608e-10 
92 1 0.0821583 0.017939 0.00710306 0.00617766 0.00015369 0.00032611 1.35672e-10 -1.02651e-10 7.27426e-11 5e-05 1.46608e-10 
93 1 0.0819557 0.0181257 0.00700025 0.00624517 0.000162283 0.000317266 -1.43114e-10 2.26239e-11 -8.5282e-11 5e-05 1.46608e-10 
94 1 0.0819436 0.0177399 0.00718495 0.00608006 0.000119072 0.000334396 2.16274e-10 -1.05377e-10 8.32612e-11 5e-05 1.46608e-10 
95 1 0.081858 0.0177137 0.00723123 0.00602846 0.000181604 0.00025429 3.94003e-11 1.29932e-10 -1.55167e-10 5e-05 1.46608e-10 
96 1 0.0819022 0.0178975 0.00710649 0.00614522 0.000133299 0.000332681 -3.3369e-11 6.77506e-12 -2.10677e-12 5e-05 1.46608e-10 
97 1 0.0757516 0.0168128 0.00746684 0.0058097 0.000751539 -0.000310451 -7.18239e-11 8.13728e-11 -4.63806e-11 5e-05 1.46608e-10 
98 1 0.0820105 0.0183683 0.00695726 0.00626766 0.000175633 0.000314053 -2.4157e-11 -2.76557e-11 4.09696e-12 5e-05 1.46608e-10 
99 1 0.0756562 0.0167857 0.00748575 0.00580331 0.000712682 -0.000427017 -1.57915e-10 4.80567e-11 -3.52912e-10 5e-05 1.46608e-10 
100 1 0.0821163 0.0180197 0.00706157 0.00617541 0.000151792 0.000324386 7.20382e-11 -9.64908e-11 -1.52752e-12 5e-05 1.46608e-10 
101 1 0.075616 0.0162514 0.00786141 0.00572199 0.000447255 -0.000720889 -6.33588e-11 1.01034e-10 -7.3599e-11 5e-05 1.46608e-10 
102 1 0.0694385 0.0202053 0.00537268 3.9659e-15 4.43314e-15 -7.68282e-14 -1.05278e-21 1.12985e-21 1.32349e-23 5e-05 1.46608e-10 
104 1 0.0757129 0.0166473 0.00757201 0.00576195 0.000678998 -0.000427909 -1.04925e-10 2.75495e-11 -9.00419e-11 5e-05 1.46608e-10 
105 1 0.0754609 0.0159929 0.00806227 0.0058852 0.000524902 -0.000798075 -2.62238e-10 2.14549e-10 -1.50577e-10 5e-05 1.46608e-10 
106 1 0.075812 0.0170653 0.00731596 0.00582248 0.000748265 -0.000306161 -5.40496e-11 1.71999e-11 -3.01707e-11 5e-05 1.46608e-10 
107 1 0.0754207 0.0158374 0.00818139 0.00598013 0.000489294 -0.000710044 1.37983e-10 1.52421e-10 -9.94781e-12 5e-05 1.46608e-10 
108 1 0.081621 0.0167056 0.00773365 0.00539154 0.000280402 0.000181798 -9.98323e-13 -1.60636e-12 3.03449e-11 5e-05 1.46608e-10 
109 1 0.0818151 0.0175259 0.00727951 0.00600873 0.000198142 0.000294765 1.74698e-10 2.55003e-10 -6.53764e-11 5e-05 1.46608e-10 
110 1 0.0818815 0.0178089 0.00714778 0.00608987 0.000124575 0.000329489 4.02789e-11 -1.24686e-10 7.01548e-11 5e-05 1.46608e-10 
111 1 0.0820839 0.0183732 0.00688953 0.0062858 0.000138793 0.000334708 -5.4515e-11 -8.08435e-12 -2.7889e-12 5e-05 1.46608e-10 
112 1 0.0755209 0.0162277 0.00788542 0.00594555 0.000519595 -0.00079022 4.8661e-11 2.5171e-10 -1.62799e-10 5e-05 1.46608e-10 
113 1 0.0758285 0.016759 0.00750129 0.00579927 0.000734007 -0.000298427 -7.84847e-11 6.78279e-11 -2.88776e-11 5e-05 1.46608e-10 
115 1 0.0818369 0.0176228 0.00726713 0.0060065 0.00019885 0.000293313 1.80272e-10 3.31531e-10 2.03229e-10 5e-05 1.46608e-10 
116 1 0.0818412 0.016879 0.00759219 0.00553767 0.00017594 0.00027215 -1.99851e-10 -4.12639e-11 2.29605e-11 5e-05 1.46608e-10 
117 1 0.0817005 0.0166426 0.00769676 0.00548333 0.00021884 0.000247865 4.05331e-11 3.45313e-11 -1.19443e-11 5e-05 1.46608e-10 
118 1 0.0753603 0.0156411 0.00839828 0.00590994 0.000605815 -0.000562471 1.42177e-10 7.88799e-11 -8.90711e-11 5e-05 1.46608e-10 
119 1 0.0821075 0.0176137 0.00725617 0.00583544 0.000631488 7.13817e-05 -1.9482e-10 1.25375e-10 -4.13528e-11 5e-05 1.46608e-10 
120 1 0.0814669 0.0159918 0.00800179 0.00549292 0.000132044 -3.20057e-05 -6.7982e-11 3.65389e-11 4.6814e-11 5e-05 1.46608e-10 
121 1 0.0815619 0.01602 0.00798709 0.00540063 0.000130203 0.000279893 -3.57816e-11 -1.21912e-10 8.12638e-11 5e-05 1.46608e-10 
122 1 0.0820024 0.0179335 0.00709566 0.00619112 0.000144283 0.000327692 5.83565e-11 4.49512e-11 -5.02317e-11 5e-05 1.46608e-10 
123 1 0.0754812 0.0160711 0.00800333 0.00590914 0.000528398 -0.000798859 -5.57751e-10 2.82371e-10 -2.00422e-10 5e-05 1.46608e-10 
124 1 0.0819223 0.0178904 0.0072042 0.0061625 0.000158272 0.000330375 -4.41751e-11 -8.9378e-11 2.61916e-11 5e-05 1.46608e-10 
125 1 0.0815821 0.0161091 0.0079456 0.00562591 0.000239644 0.000249187 6.81595e-12 -3.65168e-11 -3.47167e-11 5e-05 1.46608e-10 
126 1 0.0817736 0.0173486 0.00736208 0.00589666 0.000173008 0.000295607 -7.36406e-11 -1.80366e-10 -1.53677e-12 5e-05 1.46608e-10 
127 1 0.0759916 0.0173305 0.007256 0.00593383 0.000595336 -0.00029694 -3.64782e-11 -2.32754e-11 7.02083e-11 5e-05 1.46608e-10 
128 1 0.0820394 0.0177721 0.00717565 0.00610823 0.000115529 0.000336425 -1.85998e-10 -1.41374e-10 6.68789e-11 5e-05 1.46608e-10 
129 1 0.081923 0.0179862 0.0070652 0.0061858 0.000135462 0.000330354 1.34899e-10 1.69142e-10 -3.04997e-11 5e-05 1.46608e-10 
131 1 0.075732 0.0167287 0.00751715 0.00579245 0.000756167 -0.000310908 -1.34054e-10 1.2026e-10 -3.32615e-11 5e-05 1.46608e-10 
132 1 0.082081 0.01788 0.00712644 0.00619006 0.000144922 0.00032909 4.65973e-11 1.05458e-11 -1.97199e-12 5e-05 1.46608e-10 
133 1 0.081662 0.0164644 0.00777994 0.00543389 0.00025462 0.000228054 -1.35318e-12 -2.62842e-11 8.31294e-12 5e-05 1.46608e-10 
134 1 0.082183 0.0175567 0.00728845 0.00580623 0.000611261 7.96596e-05 -2.94641e-10 2.64349e-10 -1.41501e-10 5e-05 1.46608e-10 
135 1 0.0817758 0.0165851 0.00772925 0.0054645 0.000249148 0.00023301 1.32456e-11 8.9892e-11 -4.53076e-11 5e-05 1.46608e-10 
136 1 0.0753799 0.0157018 0.00832124 0.00564106 0.000555958 -0.000693095 -1.68246e-11 1.79214e-10 -4.13791e-11 5e-05 1.46608e-10 
137 1 0.0820518 0.0185516 0.00692905 0.00633396 0.000343769 -0.000485479 1.39997e-11 -2.06943e-11 2.59339e-11 5e-05 1.46608e-10 
138 1 0.0820667 0.0181895 0.00697675 0.006226 0.000161298 0.000321227 5.02801e-11 2.46876e-11 -4.84683e-11 5e-05 1.46608e-10 
140 1 0.0819148 0.0175601 0.0072695 0.00599881 0.000165399 0.000306574 1.14065e-10 1.31354e-10 1.02883e-10 5e-05 1.46608e-10 
141 1 0.0755572 0.0160164 0.00803834 0.00582556 0.000416007 -0.000704717 -6.75544e-10 9.65593e-11 -2.40936e-11 5e-05 1.46608e-10 
142 1 0.0756553 0.0164081 0.00774348 0.00566244 0.000470857 -0.000733671 -3.86381e-10 1.49204e-10 -7.49722e-11 5e-05 1.46608e-10 
143 1 0.0754403 0.0159147 0.00812114 0.00597777 0.000481213 -0.000757365 5.54928e-11 1.74525e-10 -4.92287e-11 5e-05 1.46608e-10 
146 1 0.0757323 0.0163543 0.00777773 0.00567174 0.000465858 -0.000731377 -3.80614e-10 7.7158e-12 2.18685e-11 5e-05 1.46608e-10 
147 1 0.0753438 0.0155877 0.00848122 0.00622609 0.000592843 -0.000485522 3.07568e-10 -1.07072e-10 -7.25508e-11 5e-05 1.46608e-10 
148 1 0.00854268 0.0178545 0.00777529 -0.00385971 0.0104576 0.00143578 0 0 -1.43822e-09 5e-05 1.46608e-10 
149 1 0.0819538 0.018075 0.00718821 0.00613706 0.000158704 0.000287664 5.06931e-11 7.68695e-11 -1.89898e-10 5e-05 1.46608e-10 
150 1 0.0756357 0.0163297 0.00780245 0.00566134 0.000462563 -0.000730053 -3.75474e-10 1.27588e-10 -3.28586e-11 5e-05 1.46608e-10 
151 1 0.076076 0.0170045 0.0073593 0.00580628 0.000704975 -0.000279425 -1.4391e-10 4.04842e-11 -3.59353e-11 5e-05 1.46608e-10 
153 1 0.0757127 0.016276 0.0078367 0.00566506 0.000465027 -0.000730391 -3.23076e-10 5.20843e-11 -1.7899e-11 5e-05 1.46608e-10 
154 1 0.0758501 0.0172408 0.0072238 0.00579051 0.000676092 -0.000263044 5.88783e-11 1.46515e-11 -3.28247e-12 5e-05 1.46608e-10 
155 1 0.0698551 0.0172886 0.00719442 0.00552444 -0.000508496 0.00022357 1.20849e-11 1.53628e-11 -1.0311e-11 5e-05 1.46608e-10 
156 1 0.0757359 0.0171227 0.00728593 0.00583107 0.000752039 -0.000312802 7.48588e-11 1.22431e-10 1.92552e-11 5e-05 1.46608e-10 
157 1 0.0759182 0.0175311 0.00716473 0.00615697 0.000612521 -0.000337604 -2.58646e-11 4.73769e-11 1.4279e-11 5e-05 1.46608e-10 
158 1 0.0759539 0.0168836 0.0074292 0.00580182 0.000719458 -0.000288716 -5.12796e-11 8.36525e-11 -6.05081e-11 5e-05 1.46608e-10 
159 1 0.082198 0.0180735 0.007041 0.00619758 0.000122759 0.00034087 -1.46461e-11 -2.46225e-11 1.56689e-11 5e-05 1.46608e-10 
160 1 0.075812 0.0174842 0.00717205 0.00604601 0.000707554 -0.000332675 -3.65615e-11 4.26829e-11 6.5576e-11 5e-05 1.46608e-10 
162 1 0.0757713 0.0168972 0.00741643 0.00581295 0.000749848 -0.000306665 5.75668e-11 1.2121e-10 -6.61232e-11 5e-05 1.46608e-10 
163 1 0.0759741 0.0169677 0.00737896 0.00580174 0.000718147 -0.000287063 -1.07529e-10 5.87224e-11 -4.25243e-11 5e-05 1.46608e-10 
164 1 0.0761109 0.0175946 0.00715337 0.00614048 0.000589367 -0.000334135 -6.91958e-11 7.04845e-12 3.85714e-12 5e-05 1.46608e-10 
165 1 0.0758948 0.0166312 0.00758012 0.00577143 0.000717864 -0.000290076 -2.36699e-11 -5.11218e-12 8.2955e-12 5e-05 1.46608e-10 
166 1 0.0814098 0.015786 0.00820538 0.00572329 8.79403e-06 -0.000102312 1.34228e-09 -8.97031e-11 -3.15806e-10 5e-05 1.46608e-10 
167 1 0.0757511 0.0164328 0.0077187 0.00567977 0.000465183 -0.000737203 -3.33959e-10 1.82713e-11 1.27683e-11 5e-05 1.46608e-10 
168 1 0.0758762 0.0173511 0.00722054 0.00588656 0.000647317 -0.000268555 -4.2436e-11 -3.16912e-11 -3.47027e-11 5e-05 1.46608e-10 
169 1 0.0760104 0.0171381 0.00728091 0.005843 0.000710295 -0.000282853 3.28251e-11 4.91555e-11 -3.37189e-11 5e-05 1.46608e-10 
170 1 0.0759371 0.0172775 0.00719102 0.00585233 0.000583178 -0.00020288 2.89053e-11 -1.03324e-11 -2.08337e-11 5e-05 1.46608e-10 
171 1 0.0817951 0.016674 0.00768774 0.00550061 0.00024666 0.000236087 1.60736e-10 1.28712e-10 -4.63343e-11 5e-05 1.46608e-10 
172 1 0.0761323 0.0172562 0.00720878 0.00603071 0.000545247 -0.00017667 -4.25644e-11 9.40102e-11 -4.82391e-11 5e-05 1.46608e-10 
173 1 0.0820569 0.017375 0.00736767 0.00603771 0.000125378 0.000329503 -4.5577e-12 -1.19968e-10 4.38242e-11 5e-05 1.46608e-10 
174 1 0.0758323 0.0175821 0.00716835 0.00619331 0.000679755 -0.000341704 -1.00195e-11 3.60511e-11 2.12352e-12 5e-05 1.46608e-10 
175 1 0.0726968 0.0171934 0.00722089 0.00572922 -2.50288e-05 9.70279e-06 -3.12334e-13 3.83008e-14 -1.32647e-14 5e-05 1.46608e-10 
176 1 0.0757157 0.0170364 0.0073322 0.00582491 0.000761891 -0.000305691 -8.93784e-12 1.67498e-10 5.7596e-12 5e-05 1.46608e-10 
177 1 0.0762278 0.0177212 0.00714487 0.00612251 0.000602266 -0.000335372 -6.85946e-12 -1.98741e-11 -5.11827e-12 5e-05 1.46608e-10 
178 1 0.0761004 0.0171747 0.00725716 0.00591939 0.000577111 -0.000199546 7.35676e-11 3.81337e-11 -2.28494e-11 5e-05 1.46608e-10 
179 1 0.0697468 0.0171901 0.00728616 0.00553128 -0.000518017 0.000216293 -1.00719e-11 -9.05429e-12 -1.53299e-11 5e-05 1.46608e-10 
180 1 0.0758887 0.0170113 0.00735052 0.00580614 0.000737368 -0.000299611 -9.45867e-11 4.62712e-11 -2.00785e-11 5e-05 1.46608e-10 
181 1 0.0759252 0.01718 0.00724957 0.00585422 0.000734786 -0.000295741 6.89938e-11 -2.13742e-11 2.29038e-11 5e-05 1.46608e-10 
182 1 0.0819668 0.0170101 0.00753726 0.00577751 0.000119533 0.000315867 2.12028e-11 1.17896e-11 5.79718e-13 5e-05 1.46608e-10 
183 1 0.0760128 0.0172221 0.00722633 0.00589985 0.000667471 -0.000254881 -3.24058e-11 2.5944e-11 -8.10843e-12 5e-05 1.46608e-10 
184 1 0.0820391 0.0182754 0.00693368 0.0062553 0.000171934 0.000319201 2.12054e-11 2.65749e-11 -2.77006e-11 5e-05 1.46608e-10 
185 1 0.0757552 0.0172077 0.00723692 0.00584609 0.000742006 -0.000312861 1.70811e-10 5.00719e-11 1.20038e-11 5e-05 1.46608e-10 
186 1 0.0757918 0.0169812 0.00736621 0.00582417 0.000752701 -0.000306302 1.09613e-11 1.55961e-10 -9.50814e-11 5e-05 1.46608e-10 
187 1 0.0819877 0.0170989 0.00749592 0.00579477 9.26319e-05 0.000329069 -1.7772e-10 1.66471e-10 -7.15259e-11 5e-05 1.46608e-10 
188 1 0.0820166 0.0180231 0.00705353 0.00614897 0.00016164 0.000317441 -2.47357e-10 8.20392e-11 -7.53405e-11 5e-05 1.46608e-10 
189 1 0.0816815 0.0165533 0.00773847 0.0054614 0.000253836 0.000230134 -1.1399e-10 4.13118e-12 -1.54349e-11 5e-05 1.46608e-10 
190 1 0.076249 0.0178201 0.00714196 0.00611847 0.000625706 -0.000335368 -1.72779e-13 -1.05368e-11 -2.9783e-12 5e-05 1.46608e-10 
191 1 0.0820722 0.0186471 0.00695051 0.00629071 0.000350731 -0.000483393 -3.89276e-12 -1.95331e-11 -7.14171e-12 5e-05 1.46608e-10 
192 1 0.0758313 0.0171495 0.00726561 0.00584243 0.00074531 -0.000301511 9.74448e-11 1.05165e-11 -1.21515e-11 5e-05 1.46608e-10 
193 1 0.0821376 0.0182635 0.00694573 0.00638713 0.000922276 -3.23342e-05 -2.04613e-11 1.58883e-11 -1.52853e-11 5e-05 1.46608e-10 
194 1 0.0756741 0.0164866 0.00768445 0.00567668 0.000475953 -0.00073608 -3.00874e-10 6.34927e-11 -1.05051e-10 5e-05 1.46608e-10 
195 1 0.0759729 0.0173671 0.00716481 0.00591529 0.000520006 -0.000323106 -7.30424e-11 1.2385e-12 3.50728e-11 5e-05 1.46608e-10 
196 1 0.0752352 0.0153183 0.00888815 0.00636096 0.000584833 -0.000525657 -2.25443e-11 -1.56314e-10 2.45513e-10 5e-05 1.46608e-10 
197 1 0.0758532 0.0176798 0.00716548 0.00626213 0.000668982 -0.000348243 -3.30148e-11 1.19964e-11 -1.2244e-11 5e-05 1.46608e-10 
198 1 0.0756757 0.0168693 0.00743443 0.00581783 0.000753211 -0.000338913 8.87176e-12 -8.52772e-12 -3.64906e-10 5e-05 1.46608e-10 
199 1 0.0757932 0.0173862 0.00717702 0.0058972 0.000735471 -0.000305017 -9.39789e-11 4.6972e-11 5.49534e-11 5e-05 1.46608e-10 
200 1 0.0756933 0.0165657 0.00762641 0.00570994 0.000548928 -0.000636929 -1.72859e-10 -2.17257e-11 -1.69046e-10 5e-05 1.46608e-10 
201 1 0.0761226 0.0180522 0.00714443 0.00612026 0.000615675 -0.000335311 1.90433e-11 4.77155e-11 -2.22408e-12 5e-05 1.46608e-10 
203 1 0.0822154 0.0178665 0.00714159 0.00619086 0.000162116 0.00032122 7.63519e-11 -1.65175e-10 6.75717e-11 5e-05 1.46608e-10 
204 1 0.0758095 0.0166763 0.00755424 0.00577691 0.000667797 -0.000401832 -1.54796e-11 -2.17444e-11 -6.65264e-11 5e-05 1.46608e-10 
205 1 0.0758748 0.0177774 0.00716257 0.00624215 0.000676568 -0.000346178 -3.96541e-12 2.30699e-11 -2.46768e-11 5e-05 1.46608e-10 
206 1 0.0758979 0.0174331 0.00716759 0.00597811 0.000589074 -0.000326276 -5.22098e-11 1.18009e-11 6.31626e-12 5e-05 1.46608e-10 
207 1 0.075693 0.0161977 0.00789567 0.00572139 0.000450641 -0.000724782 -2.76991e-10 2.86227e-11 -6.99569e-12 5e-05 1.46608e-10 
208 1 0.0757735 0.0172882 0.00718044 0.00585257 0.000743331 -0.000299985 1.8178e-11 2.45697e-11 -1.41659e-11 5e-05 1.46608e-10 
209 1 0.0697717 0.0172795 0.00724894 0.00552416 -0.000514283 0.000221905 1.5333e-11 -1.25252e-11 -2.59884e-11 5e-05 1.46608e-10 
210 1 0.0814286 0.0158432 0.00812558 0.0057555 5.74574e-05 -6.15721e-05 -2.00665e-10 4.46702e-11 -2.65779e-10 5e-05 1.46608e-10 
211 1 0.081979 0.0182312 0.00700047 0.00623283 0.000172329 0.000309672 3.42758e-11 5.30629e-11 -1.26265e-10 5e-05 1.46608e-10 
212 1 0.076093 0.0170891 0.00730868 0.0058152 0.000670651 -0.000258274 4.06016e-12 8.66054e-12 -1.02753e-11 5e-05 1.46608e-10 
213 1 0.0822024 0.0176456 0.00724697 0.00583088 0.000589685 9.17412e-05 -3.66285e-10 -2.59368e-12 3.33794e-12 5e-05 1.46608e-10 
214 1 0.0819437 0.0179788 0.00716277 0.00619134 0.000148539 0.000322064 1.46386e-10 1.16283e-10 -8.65369e-11 5e-05 1.46608e-10 
215 1 0.0758685 0.0169272 0.00740076 0.00581135 0.000734809 -0.000297042 -5.35007e-11 1.03696e-10 -4.61151e-11 5e-05 1.46608e-10 
216 1 0.0759334 0.0167996 0.00747941 0.00579896 0.000723309 -0.000290645 1.63718e-11 7.10712e-11 -5.88866e-11 5e-05 1.46608e-10 
217 1 0.081866 0.0167923 0.00763545 0.00556507 0.000186216 0.000269303 -3.41196e-11 -6.44378e-11 2.29081e-11 5e-05 1.46608e-10 
218 1 0.0760143 0.0175631 0.00715909 0.0062318 0.000604511 -0.000350086 -1.60319e-10 -5.3313e-11 -3.8181e-11 5e-05 1.46608e-10 
219 1 0.082 0.0183189 0.00704359 0.00626627 0.000172254 0.000307924 6.57705e-12 -3.01096e-11 -4.26145e-11 5e-05 1.46608e-10 
220 1 0.075848 0.0168432 0.00745096 0.00580284 0.000733118 -0.000296467 5.61467e-11 9.02577e-11 -6.17953e-11 5e-05 1.46608e-10 
221 1 0.0696202 0.0166558 0.00762975 0.00540554 -0.000284968 0.00040577 -7.21835e-11 -4.36787e-12 2.19948e-11 5e-05 1.46608e-10 
222 1 0.0816062 0.0166106 0.00770606 0.00546449 0.000262979 0.000225108 6.61475e-12 5.90539e-11 1.30903e-12 5e-05 1.46608e-10 
223 1 0.075908 0.0170955 0.00730017 0.00582989 0.000734888 -0.000296496 1.19372e-11 -2.28817e-12 -2.11237e-12 5e-05 1.46608e-10 
224 1 0.0756952 0.0169519 0.00738149 0.00582162 0.000764763 -0.000312577 4.73796e-11 1.47067e-10 -6.53108e-11 5e-05 1.46608e-10 
225 1 0.0821269 0.0177026 0.00721469 0.00587426 0.00063448 7.73638e-05 -3.27244e-10 7.40638e-11 -9.2317e-11 5e-05 1.46608e-10 
226 1 0.0759139 0.0167154 0.00752973 0.00579712 0.000723873 -0.000291387 -1.47031e-11 7.51754e-11 -6.2729e-11 5e-05 1.46608e-10 
227 1 0.069676 0.0168838 0.00745975 0.00551014 -0.000485144 0.000178518 -1.44381e-10 8.90444e-11 -1.12733e-10 5e-05 1.46608e-10 
228 1 0.0507861 0.0189683 0.00558458 -5.3609e-15 -1.91064e-14 -2.87013e-13 -4.92211e-22 1.1291e-22 8.27181e-25 5e-05 1.46608e-10 
229 1 0.0755163 0.01586 0.0081562 0.00593138 0.000446889 -0.000735332 8.84796e-11 3.53072e-10 -2.51194e-10 5e-05 1.46608e-10 
230 1 0.0759179 0.0179726 0.00715696 0.00621275 0.000686449 -0.000339868 4.13985e-11 5.08335e-11 -7.05436e-12 5e-05 1.46608e-10 
231 1 0.197479 0.018695 0.00523156 -1.08094e-15 -2.69845e-14 1.45242e-13 1.69654e-22 1.6647e-23 3.92911e-24 5e-05 1.46608e-10 
232 1 0.0755369 0.0159382 0.00809725 0.00583037 0.000414102 -0.000703541 -5.49677e-10 3.59662e-11 -1.15235e-12 5e-05 1.46608e-10 
233 1 0.0757897 0.0165912 0.00760279 0.00575146 0.000576904 -0.000572386 -6.73017e-11 -7.02051e-11 -1.54917e-10 5e-05 1.46608e-10 
234 1 0.081371 0.0156827 0.00837214 0.00566921 0.000355588 0.000121925 -2.46527e-11 1.70897e-10 2.2226e-09 5e-05 1.46608e-10 
235 1 0.0760956 0.0183226 0.00714095 0.00615974 0.000730306 -0.000339676 1.26187e-11 4.24957e-11 -1.53875e-12 5e-05 1.46608e-10 
236 1 0.0761429 0.018151 0.00714157 0.00619732 0.000622633 -0.000339511 1.24168e-11 9.31382e-11 -3.70715e-12 5e-05 1.46608e-10 
237 1 0.0760483 0.018119 0.00714716 0.00617657 0.000678572 -0.000339434 2.45716e-11 4.26387e-11 -2.32923e-12 5e-05 1.46608e-10 
238 1 0.0697849 0.0173597 0.00719073 0.00552232 -0.000512323 0.000223766 2.67789e-11 8.40592e-12 -5.80409e-12 5e-05 1.46608e-10 
239 1 0.0695228 0.0162713 0.00793414 0.00547234 -0.000297674 0.000416213 3.0637e-11 5.0234e-11 -3.10623e-11 5e-05 1.46608e-10 
240 1 0.0696001 0.016579 0.00769053 0.00539916 -0.000285258 0.000402277 -9.33293e-11 -8.31245e-11 6.36098e-11 5e-05 1.46608e-10 
241 1 0.0695425 0.0163482 0.00787328 0.0053401 -0.000274809 0.00039444 -1.99854e-11 4.14591e-11 -3.07681e-11 5e-05 1.46608e-10 
242 1 0.0698314 0.0171997 0.00723367 0.00552658 -0.00051712 0.000206775 7.20793e-12 1.14921e-11 -2.29133e-11 5e-05 1.46608e-10 
243 1 0.0695031 0.0161944 0.00799498 0.00544597 -0.000298176 0.000416083 9.56257e-11 7.16634e-11 -5.37462e-11 5e-05 1.46608e-10 
244 1 0.0695617 0.0164251 0.00781237 0.00524823 -0.00026068 0.000379976 -1.12143e-10 1.19424e-12 -4.31436e-12 5e-05 1.46608e-10 
245 1 0.0698043 0.0174579 0.00719018 0.00599201 -0.000602939 0.000242467 -1.695e-11 -6.20795e-12 5.38373e-12 5e-05 1.46608e-10 
246 1 0.0696691 0.0167247 0.00757622 0.00545351 -0.000303728 0.000425484 4.90915e-11 1.89873e-11 1.33783e-11 5e-05 1.46608e-10 
247 1 0.0760485 0.0173025 0.00717872 0.00603466 0.000621899 -0.000228614 -1.06209e-10 4.69648e-11 -9.28159e-12 5e-05 1.46608e-10 