ITEM: TIMESTEP
20600000
ITEM: NUMBER OF ATOMS
284
ITEM: BOX BOUNDS ff ff ff
-0.02 0.43
-0.02 0.06
-0.02 0.07
ITEM: ATOMS id type x y z vx vy vz fx fy fz radius mass 
1 1 0.132836 0.0159126 0.00812157 0.00560177 -0.000515691 3.60383e-05 -2.67403e-10 1.89677e-10 -2.4858e-10 5e-05 1.46608e-10 
2 1 0.133248 0.0169234 0.00765423 0.00583074 -0.000138273 0.000510435 -1.35623e-10 -4.0966e-11 1.1736e-11 5e-05 1.46608e-10 
3 1 0.126905 0.0162077 0.00791701 0.00541284 -0.000424603 0.000907702 1.72995e-10 -1.3155e-10 7.53502e-11 5e-05 1.46608e-10 
4 1 0.133229 0.0172691 0.00754047 0.00576689 -0.000409788 -0.000118286 -1.00945e-10 8.02723e-11 -1.38631e-09 5e-05 1.46608e-10 
5 1 0.13274 0.0158921 0.00815054 0.00553887 -0.00042718 -6.13198e-05 -3.2219e-10 1.43489e-10 -4.74315e-10 5e-05 1.46608e-10 
6 1 0.138933 0.0167169 0.00770742 0.00569351 -0.000758557 0.000271529 1.58165e-10 -4.69533e-11 1.18405e-10 5e-05 1.46608e-10 
7 1 0.132836 0.016271 0.00784614 0.00552998 -0.000190923 0.000411454 -9.54584e-11 -3.58688e-10 1.06433e-10 5e-05 1.46608e-10 
8 1 0.132762 0.0156609 0.00841906 0.00569661 0.000555148 0.000614552 4.45558e-10 1.95868e-10 8.54497e-13 5e-05 1.46608e-10 
9 1 0.139175 0.017685 0.00715667 0.00601369 -0.000663872 0.00046221 -4.00979e-12 -1.57632e-11 3.17225e-12 5e-05 1.46608e-10 
10 1 0.132856 0.0163599 0.00780454 0.00551725 -0.000121566 0.000475372 6.39628e-11 -1.21202e-10 -1.31014e-11 5e-05 1.46608e-10 
11 1 0.132971 0.0164862 0.007773 0.00554916 -7.79236e-05 0.000468586 1.21124e-10 -1.55029e-10 7.49196e-11 5e-05 1.46608e-10 
12 1 0.133056 0.0168601 0.00765926 0.00583692 -0.000124043 0.00050539 1.08561e-10 6.60527e-11 -8.45523e-12 5e-05 1.46608e-10 
13 1 0.13308 0.0173246 0.00761415 0.00583385 5.06043e-05 0.000448552 3.37066e-11 1.18381e-10 -1.30923e-10 5e-05 1.46608e-10 
14 1 0.126635 0.0155441 0.00854145 0.00540356 -0.0006731 0.000565438 -3.17291e-12 1.73562e-10 2.11143e-10 5e-05 1.46608e-10 
15 1 0.132959 0.0168278 0.00766195 0.00583122 -0.000164998 0.000519176 9.86499e-11 5.15421e-10 -1.72112e-10 5e-05 1.46608e-10 
16 1 0.126617 0.015498 0.00862815 0.00537294 -0.000636117 0.00056915 2.95096e-11 -8.89356e-11 1.52065e-10 5e-05 1.46608e-10 
17 1 0.133298 0.0175403 0.00752712 0.00581668 -0.000164669 -8.03593e-05 9.44795e-11 -1.41055e-10 -5.2827e-11 5e-05 1.46608e-10 
18 1 0.139067 0.017206 0.00725089 0.00608518 -0.000680553 0.000468861 -1.16051e-11 -7.99766e-11 -5.48654e-12 5e-05 1.46608e-10 
19 1 0.132701 0.0157561 0.00829204 0.00563146 -0.000453996 -4.26684e-05 3.12678e-10 7.29832e-10 -4.16891e-10 5e-05 1.46608e-10 
20 1 0.133263 0.0173431 0.0075986 0.00565182 -0.000280781 -7.38621e-05 5.2907e-11 -8.64377e-11 -3.80554e-11 5e-05 1.46608e-10 
21 1 0.13272 0.0158233 0.00822061 0.00563976 -0.000462271 -5.95118e-05 3.70926e-10 6.68703e-10 -4.29111e-10 5e-05 1.46608e-10 
22 1 0.133012 0.0166733 0.00771602 0.00585275 -0.000117357 0.000505491 -7.73979e-11 -1.02642e-10 2.5607e-11 5e-05 1.46608e-10 
23 1 0.126948 0.0167247 0.00751809 0.00593699 -0.00085516 0.000459074 1.28335e-10 2.25284e-11 -8.61432e-12 5e-05 1.46608e-10 
24 1 0.139153 0.0175892 0.00717551 0.00602764 -0.00066785 0.00046384 1.2821e-12 3.67709e-12 -2.6802e-12 5e-05 1.46608e-10 
25 1 0.132931 0.0162987 0.00783032 0.0055118 -9.43715e-05 0.000467249 -1.33039e-10 -8.0709e-12 -2.30455e-11 5e-05 1.46608e-10 
26 1 0.139008 0.0169718 0.00740871 0.00592701 -0.000772992 0.000332234 -9.47824e-11 4.80234e-11 5.67809e-11 5e-05 1.46608e-10 
27 1 0.12687 0.0164 0.00773707 0.00543121 -0.000469408 0.000946733 -7.39139e-11 -6.70213e-12 -5.45105e-11 5e-05 1.46608e-10 
28 1 0.133085 0.0171366 0.00768352 0.00582438 -0.000131064 0.00050192 -4.67255e-11 -1.28723e-10 8.88382e-11 5e-05 1.46608e-10 
29 1 0.132856 0.0159812 0.00805157 0.00560269 -0.000517179 -6.60407e-06 8.27707e-10 -4.5274e-11 -2.4919e-10 5e-05 1.46608e-10 
30 1 0.133214 0.0171749 0.00757038 0.0058307 -0.000145424 0.000511525 -6.16105e-11 -3.416e-10 1.09562e-10 5e-05 1.46608e-10 
31 1 0.132938 0.0167344 0.00769032 0.00584015 -0.000132199 0.000509381 -1.24526e-10 -4.25087e-10 1.50952e-10 5e-05 1.46608e-10 
32 1 0.132991 0.0165798 0.00774447 0.00576465 -0.000104411 0.000494644 -3.32172e-10 -9.03886e-11 -5.94156e-12 5e-05 1.46608e-10 
33 1 0.138951 0.0167794 0.00763153 0.00574353 -0.000772552 0.000281488 1.08899e-10 -1.30327e-10 1.30962e-10 5e-05 1.46608e-10 
34 1 0.1331 0.017038 0.00770219 0.00580936 -0.000135011 0.000506737 -6.69698e-11 -7.8047e-11 5.55598e-12 5e-05 1.46608e-10 
36 1 0.139196 0.0177808 0.00713782 0.00600015 -0.000660282 0.000460774 1.98704e-13 -5.02769e-12 1.61e-12 5e-05 1.46608e-10 
37 1 0.132874 0.0164538 0.00777575 0.00543183 -7.87712e-05 0.000459246 -6.61321e-10 2.02736e-10 -1.36966e-10 5e-05 1.46608e-10 
38 1 0.133034 0.0167666 0.00768769 0.00584139 -0.000117972 0.000505279 7.01614e-11 6.4942e-11 -2.12956e-11 5e-05 1.46608e-10 
39 1 0.139132 0.0174934 0.00719436 0.0060413 -0.000669849 0.00046488 6.88393e-12 3.83599e-11 -2.58975e-12 5e-05 1.46608e-10 
41 1 0.132759 0.0159607 0.00808049 0.00551142 -0.000436708 -3.20789e-05 2.87002e-10 3.55091e-10 -4.18554e-10 5e-05 1.46608e-10 
42 1 0.132916 0.016641 0.00771871 0.00584322 -0.000129345 0.000509436 -3.89764e-13 -1.18811e-10 4.63174e-11 5e-05 1.46608e-10 
44 1 0.133152 0.0168941 0.00766327 0.00584486 -0.000135511 0.000509551 1.03604e-10 1.87878e-10 1.86827e-11 5e-05 1.46608e-10 
45 1 0.138988 0.0169043 0.00747975 0.00589841 -0.000801111 0.000292598 1.63636e-10 9.96886e-11 2.50625e-11 5e-05 1.46608e-10 
46 1 0.139045 0.0171102 0.00726973 0.00609849 -0.00068859 0.000473198 1.83875e-10 -2.79526e-11 4.98171e-11 5e-05 1.46608e-10 
47 1 0.132798 0.0161014 0.00794374 0.0055525 -0.000437554 1.9099e-05 4.25182e-10 2.49651e-11 -7.71232e-10 5e-05 1.46608e-10 
48 1 0.133131 0.0167988 0.00768498 0.00583691 -0.000123458 0.000505621 1.2719e-10 1.6909e-10 -3.62515e-11 5e-05 1.46608e-10 
49 1 0.139032 0.0170412 0.0073408 0.00608227 -0.000800481 0.000362329 3.79593e-11 -8.10079e-11 5.70784e-11 5e-05 1.46608e-10 
50 1 0.1331 0.0170467 0.00760258 0.00583308 -0.000138839 0.000508882 6.006e-11 1.01279e-10 -1.30415e-11 5e-05 1.46608e-10 
51 1 0.133196 0.0170785 0.00760003 0.00583751 -0.000144203 0.000510536 -1.11101e-10 4.94625e-11 -2.61502e-11 5e-05 1.46608e-10 
52 1 0.133315 0.0179649 0.00736146 0.00596101 0.000341904 -0.000323479 -6.33231e-11 6.85039e-11 -5.26346e-11 5e-05 1.46608e-10 
53 1 0.139088 0.0173018 0.00723204 0.00607175 -0.000672273 0.000466902 -1.62602e-11 -4.07141e-11 -3.69355e-12 5e-05 1.46608e-10 
54 1 0.132817 0.015844 0.00819162 0.00554174 -0.000524441 4.43873e-05 -7.3417e-10 1.99943e-10 -1.0261e-10 5e-05 1.46608e-10 
55 1 0.126676 0.0156676 0.00839084 0.00535183 -0.000370842 0.000850843 1.58518e-10 -1.17084e-10 -4.66307e-11 5e-05 1.46608e-10 
56 1 0.132894 0.0165476 0.00774709 0.00584831 -0.000136735 0.0005115 3.39961e-12 4.20042e-11 -1.46781e-11 5e-05 1.46608e-10 
57 1 0.13897 0.0168418 0.0075557 0.00585562 -0.000790912 0.000291185 5.38031e-11 -3.38608e-11 4.80524e-11 5e-05 1.46608e-10 
59 1 0.133066 0.0165185 0.00777019 0.00577051 -9.19287e-05 0.000491371 1.80268e-11 7.56239e-11 -4.34287e-11 5e-05 1.46608e-10 
60 1 0.133087 0.016612 0.00774174 0.00586071 -0.000107648 0.000503133 -4.04655e-11 9.44903e-11 -3.23071e-12 5e-05 1.46608e-10 
61 1 0.132779 0.0160295 0.00801064 0.00557731 -0.000458954 1.50803e-05 9.47224e-10 1.82852e-10 -5.66108e-10 5e-05 1.46608e-10 
62 1 0.133448 0.0177558 0.00735609 0.00665367 0.000778784 -0.000473517 1.39283e-11 2.60705e-11 1.02703e-12 5e-05 1.46608e-10 
63 1 0.133109 0.0167054 0.00771341 0.0058477 -0.000112242 0.000503114 1.67582e-11 8.3351e-11 -3.41223e-11 5e-05 1.46608e-10 
64 1 0.13911 0.0173976 0.0072132 0.00605594 -0.000669712 0.000466004 7.56367e-12 2.87168e-11 -1.07521e-11 5e-05 1.46608e-10 
65 1 0.126909 0.0165583 0.00762186 0.00543585 -0.000820211 0.000447789 7.9885e-11 1.14604e-10 -1.662e-10 5e-05 1.46608e-10 
66 1 0.127197 0.0175115 0.00721033 0.00602444 -0.000928992 0.000306539 -7.39051e-10 -2.61677e-11 -4.143e-11 5e-05 1.46608e-10 
67 1 0.13329 0.0171147 0.00759532 0.00596566 -0.000214031 -9.447e-05 6.33379e-11 -8.57219e-11 6.13099e-11 5e-05 1.46608e-10 
68 1 0.133078 0.0169533 0.00763097 0.00584073 -0.000134084 0.000508669 7.00583e-11 1.16002e-10 -4.28571e-11 5e-05 1.46608e-10 
69 1 0.132951 0.0163925 0.00780162 0.0054486 -7.3091e-05 0.000460655 -4.44817e-11 -1.07587e-10 2.98048e-12 5e-05 1.46608e-10 
70 1 0.133068 0.0172277 0.00764182 0.00584219 -0.000129909 0.000501435 2.93938e-10 -1.03665e-11 1.72714e-10 5e-05 1.46608e-10 
71 1 0.126654 0.0155984 0.00845958 0.00546468 -0.000645828 0.000604304 4.72639e-11 1.84199e-10 1.46129e-10 5e-05 1.46608e-10 
72 1 0.133267 0.0174585 0.00747002 0.00575941 -0.000296382 -5.72241e-05 -8.87559e-11 2.34617e-10 -7.40356e-11 5e-05 1.46608e-10 
73 1 0.133378 0.0176062 0.00748645 0.00446141 0.00140029 -0.00123156 -1.28036e-10 -1.58997e-11 1.99481e-10 5e-05 1.46608e-10 
74 1 0.13322 0.0176732 0.00739276 0.00583433 0.000283823 -0.000277302 -1.91914e-10 2.31437e-10 -1.8003e-10 5e-05 1.46608e-10 
76 1 0.127359 0.0185335 0.00709927 0.005628 -0.000843116 0.000940344 9.55171e-12 2.79284e-11 5.86717e-12 5e-05 1.46608e-10 
77 1 0.133156 0.0176951 0.00746698 0.00583317 9.88414e-05 -0.00026164 -1.59235e-10 1.00974e-10 3.14787e-10 5e-05 1.46608e-10 
78 1 0.126752 0.0159639 0.00813333 0.00536153 -0.000393287 0.000880218 -2.14996e-11 7.84275e-11 -7.89496e-11 5e-05 1.46608e-10 
79 1 0.12697 0.0168076 0.00746636 0.00595073 -0.000865464 0.000465406 -3.97882e-11 -1.91462e-10 8.01104e-11 5e-05 1.46608e-10 
80 1 0.133106 0.0174197 0.00758441 0.00587225 8.57439e-05 0.000463321 7.08839e-11 1.14286e-10 4.92855e-10 5e-05 1.46608e-10 
81 1 0.126889 0.0164751 0.00767376 0.00544766 -0.000832572 0.000449526 1.93761e-12 1.19616e-10 -4.23071e-11 5e-05 1.46608e-10 
82 1 0.126929 0.0166415 0.00756996 0.00544724 -0.000761338 0.000407199 1.32915e-11 3.14034e-11 -2.15205e-11 5e-05 1.46608e-10 
83 1 0.12683 0.0162529 0.00786828 0.00542519 -0.00043708 0.0009218 5.98062e-11 4.71709e-11 -1.65143e-11 5e-05 1.46608e-10 
84 1 0.139218 0.0178766 0.00711898 0.00598611 -0.000658016 0.000459516 -9.13534e-13 1.84106e-12 -7.25744e-13 5e-05 1.46608e-10 
85 1 0.132663 0.0156486 0.00845554 0.00547608 0.000189401 0.000319493 7.54871e-10 5.03348e-10 7.10805e-10 5e-05 1.46608e-10 
86 1 0.133139 0.0172408 0.0075722 0.00583513 -0.000147504 0.000508384 -4.56054e-11 -3.48575e-11 4.88777e-11 5e-05 1.46608e-10 
87 1 0.133226 0.0168301 0.00768256 0.00583996 -0.000154001 0.000515851 1.41228e-10 1.8218e-10 -4.90925e-11 5e-05 1.46608e-10 
88 1 0.133219 0.017934 0.00729728 0.00589325 -7.27158e-05 -0.000140451 -2.64125e-11 -1.62389e-11 1.59512e-11 5e-05 1.46608e-10 
89 1 0.133192 0.0174464 0.00754109 0.00577933 -0.000231415 -1.38356e-06 -2.1194e-10 -6.39607e-11 -7.65998e-12 5e-05 1.46608e-10 
90 1 0.133352 0.0175188 0.00744555 0.00569817 0.000597187 -0.000367896 7.14983e-11 5.56136e-11 -7.1016e-11 5e-05 1.46608e-10 
91 1 0.133003 0.0170186 0.00762649 0.00582901 -0.000137824 0.000503484 -9.49831e-11 -1.56092e-10 7.86613e-11 5e-05 1.46608e-10 
92 1 0.13338 0.0179286 0.00729471 0.00600913 0.000395026 -0.000312205 -3.98542e-11 -9.50551e-11 2.14053e-12 5e-05 1.46608e-10 
93 1 0.133148 0.017587 0.00762496 0.00623548 0.000486141 -6.82967e-05 7.30986e-11 3.85655e-10 -6.05667e-11 5e-05 1.46608e-10 
94 1 0.133157 0.017337 0.00755126 0.00589732 -0.000260289 0.000429083 -2.81687e-10 7.37751e-12 -7.88085e-10 5e-05 1.46608e-10 
95 1 0.133066 0.0172879 0.00752213 0.00583077 -0.000132007 0.0005152 6.56707e-11 2.26044e-10 -8.31274e-11 5e-05 1.46608e-10 
96 1 0.13311 0.0174747 0.00746538 0.0058265 -0.000149633 0.000519376 -1.55643e-10 1.33999e-10 -9.82855e-11 5e-05 1.46608e-10 
97 1 0.127087 0.0169169 0.00739707 0.00602366 -0.000866693 0.000468319 4.27777e-11 1.59868e-10 -1.16691e-10 5e-05 1.46608e-10 
98 1 0.133318 0.0180032 0.00726914 0.00597206 0.000368643 -0.000305331 8.95268e-12 -2.1635e-11 -7.11523e-12 5e-05 1.46608e-10 
99 1 0.126991 0.0168905 0.00741463 0.00599534 -0.000886679 0.00047767 -3.5234e-10 -2.70686e-10 1.78989e-10 5e-05 1.46608e-10 
100 1 0.133298 0.0178757 0.00731641 0.0061359 0.00020891 -0.000256146 1.52235e-11 1.29048e-10 2.26428e-11 5e-05 1.46608e-10 
101 1 0.126944 0.016354 0.00778643 0.00542042 -0.000422665 0.000912639 1.17787e-10 -1.58805e-10 1.89225e-10 5e-05 1.46608e-10 
102 1 0.0694385 0.0202053 0.00537268 4.04414e-15 4.44331e-15 -7.68236e-14 -1.64699e-22 -2.56491e-22 -2.00591e-23 5e-05 1.46608e-10 
104 1 0.127045 0.016751 0.00750058 0.00575217 -0.000857877 0.000401881 -3.56701e-11 1.97669e-10 6.13772e-11 5e-05 1.46608e-10 
105 1 0.126791 0.0161066 0.00799884 0.0054134 -0.000421427 0.000907211 9.04438e-13 3.38128e-11 -5.32542e-11 5e-05 1.46608e-10 
106 1 0.127151 0.0171655 0.00724191 0.00610092 -0.000830586 0.00045333 -1.68575e-10 -1.77945e-11 -8.13882e-11 5e-05 1.46608e-10 
107 1 0.127315 0.0176384 0.00718176 0.00580635 -0.00101392 0.000310923 4.27927e-11 -4.95198e-11 -1.78355e-11 5e-05 1.46608e-10 
108 1 0.133086 0.0169429 0.00773009 0.00582217 -0.000149548 0.000510256 -1.5447e-10 -5.9063e-11 -6.46675e-11 5e-05 1.46608e-10 
109 1 0.133026 0.0171138 0.00760646 0.00582625 -0.000147072 0.000503324 -6.53658e-11 -1.60042e-11 3.66831e-11 5e-05 1.46608e-10 
110 1 0.133088 0.0173813 0.00749375 0.00583959 -0.000117686 0.00052686 -1.73713e-10 1.30784e-10 3.9015e-11 5e-05 1.46608e-10 
111 1 0.133272 0.0181571 0.00721407 0.00600356 0.000350433 -0.000296909 1.8665e-12 -9.07837e-12 -2.4275e-12 5e-05 1.46608e-10 
112 1 0.12685 0.0163261 0.00780298 0.00543142 -0.000439932 0.000924774 5.99639e-11 1.62156e-11 -5.38275e-12 5e-05 1.46608e-10 
113 1 0.127162 0.0168601 0.00743142 0.00602256 -0.000876484 0.000472613 6.28025e-11 2.95171e-10 -1.39985e-10 5e-05 1.46608e-10 
115 1 0.133045 0.0171945 0.00755051 0.00582228 -0.000145504 0.000507917 6.34315e-11 1.2427e-10 3.52794e-11 5e-05 1.46608e-10 
116 1 0.133046 0.0164249 0.00779877 0.00555733 -5.66549e-05 0.000461103 3.14553e-11 -3.43413e-11 1.56378e-11 5e-05 1.46608e-10 
117 1 0.13291 0.0162047 0.00785894 0.00559096 -0.000116856 0.000493026 -2.98776e-10 -4.02013e-10 8.94456e-12 5e-05 1.46608e-10 
118 1 0.126714 0.015814 0.00825998 0.00534443 -0.000376857 0.000859398 -1.45243e-10 -2.74103e-11 4.41911e-11 5e-05 1.46608e-10 
119 1 0.133308 0.0172107 0.00755962 0.00564079 -0.000513289 3.11012e-05 -4.667e-10 3.88196e-10 -3.63124e-10 5e-05 1.46608e-10 
120 1 0.132682 0.0156952 0.00836906 0.00563743 -0.000333839 7.02724e-05 1.51853e-10 3.6771e-10 -2.12994e-10 5e-05 1.46608e-10 
121 1 0.132778 0.0157066 0.00833172 0.00559509 -0.000552373 4.84788e-05 -8.52331e-10 -1.76552e-10 2.73063e-10 5e-05 1.46608e-10 
122 1 0.133205 0.0175331 0.00749294 0.00581165 -0.000247581 -6.54302e-06 9.82615e-11 1.38803e-11 1.09465e-10 5e-05 1.46608e-10 
123 1 0.126811 0.0161798 0.00793355 0.00541662 -0.000430244 0.000914744 2.92813e-11 4.99777e-11 -3.85971e-11 5e-05 1.46608e-10 
124 1 0.133231 0.0176376 0.00750056 0.00586898 0.000160909 -0.000147961 -2.64729e-10 6.91883e-11 -1.67099e-11 5e-05 1.46608e-10 
125 1 0.132798 0.0157753 0.00826169 0.00558174 -0.00054552 4.9927e-05 -4.10775e-10 -2.37465e-10 3.32338e-10 5e-05 1.46608e-10 
126 1 0.132981 0.0169213 0.00763355 0.005833 -0.000130375 0.000506998 -1.78433e-11 -1.27132e-10 5.05661e-11 5e-05 1.46608e-10 
127 1 0.127521 0.0177918 0.00715147 0.00537536 -0.00149288 0.000620847 9.99236e-12 -1.46924e-10 2.62201e-11 5e-05 1.46608e-10 
128 1 0.13324 0.0173669 0.00750437 0.00565133 -0.000263542 -6.7293e-05 3.24102e-11 -2.37508e-10 -6.7044e-11 5e-05 1.46608e-10 
129 1 0.133122 0.0175243 0.00755133 0.00595621 4.9261e-05 0.000380805 3.51097e-10 5.74764e-10 -4.26551e-10 5e-05 1.46608e-10 
131 1 0.127066 0.016834 0.0074488 0.00593784 -0.000858194 0.000451498 2.22694e-10 1.61782e-10 -4.07825e-11 5e-05 1.46608e-10 
132 1 0.133263 0.0175793 0.00742594 0.00564702 -0.000116692 -8.65283e-05 2.75708e-10 3.82304e-10 5.64887e-12 5e-05 1.46608e-10 
133 1 0.132875 0.0160518 0.00798315 0.00556065 -0.00042416 7.60757e-05 6.54609e-10 -1.10854e-11 -1.86937e-10 5e-05 1.46608e-10 
134 1 0.133443 0.0175562 0.00742929 0.00512931 0.00174101 -0.000781387 -5.89287e-11 5.73036e-11 5.61962e-11 5e-05 1.46608e-10 
135 1 0.132986 0.0161437 0.00788467 0.00560692 -7.32818e-05 0.000475428 -1.69994e-10 -6.63851e-11 -4.99059e-11 5e-05 1.46608e-10 
136 1 0.126733 0.0158873 0.00819457 0.0053404 -0.000384136 0.000866198 -5.98044e-11 4.58638e-11 -1.89149e-11 5e-05 1.46608e-10 
137 1 0.133176 0.0177632 0.00739643 0.00589035 9.58798e-05 -0.000284798 -1.26691e-11 -2.82705e-10 7.12203e-11 5e-05 1.46608e-10 
138 1 0.133268 0.0177625 0.00735868 0.00579488 0.000856692 -0.000495787 2.54231e-11 4.38837e-10 -3.27556e-10 5e-05 1.46608e-10 
140 1 0.133121 0.0171441 0.00759047 0.00582502 -0.000159766 0.000502713 -4.48157e-11 6.67991e-11 4.40055e-11 5e-05 1.46608e-10 
141 1 0.126886 0.0161345 0.00798229 0.00541753 -0.000422835 0.000909018 -4.71007e-11 -8.40174e-12 2.86092e-11 5e-05 1.46608e-10 
142 1 0.126984 0.0165074 0.00766421 0.00541791 -0.00062666 0.000661844 -3.78726e-11 -6.55639e-11 1.49077e-10 5e-05 1.46608e-10 
143 1 0.126772 0.0160334 0.00806413 0.00539926 -0.00041043 0.000897349 1.04784e-10 8.82557e-11 -4.77957e-11 5e-05 1.46608e-10 
146 1 0.127059 0.0164551 0.00770464 0.00541227 -0.000428906 0.000908005 -1.30263e-10 -1.62215e-10 -6.18352e-11 5e-05 1.46608e-10 
147 1 0.126694 0.0157409 0.00832518 0.00534538 -0.000370841 0.000855138 -2.86663e-11 -8.36763e-11 5.66842e-11 5e-05 1.46608e-10 
148 1 0.00868864 0.0168795 0.00826377 5.75267e-05 -0.0186277 0.0126302 2.36835e-12 7.03573e-11 -1.7943e-11 5e-05 1.46608e-10 
149 1 0.133357 0.017718 0.00737249 0.00621103 0.00165209 -0.000791048 -5.46654e-11 -4.80015e-10 1.16215e-10 5e-05 1.46608e-10 
150 1 0.126964 0.016431 0.00772567 0.00541015 -0.000486174 0.000830872 2.0815e-11 -1.11621e-10 2.2519e-10 5e-05 1.46608e-10 
151 1 0.127504 0.0175315 0.00712498 0.00578793 -0.000797027 0.0002443 -4.21506e-10 1.57742e-10 -1.53065e-12 5e-05 1.46608e-10 
153 1 0.127039 0.016382 0.00776989 0.00540466 -0.000421333 0.000911898 1.19895e-10 -1.24713e-10 -1.75962e-11 5e-05 1.46608e-10 
154 1 0.127194 0.0173438 0.00716571 0.00608044 -0.00100613 0.000359347 -1.80763e-10 3.23491e-11 -3.96192e-10 5e-05 1.46608e-10 
155 1 0.121273 0.0177091 0.00717376 0.00618675 0.000134792 -0.000297119 -3.65919e-11 -5.54065e-11 1.40297e-11 5e-05 1.46608e-10 
156 1 0.127076 0.017222 0.00720774 0.00597603 -0.000944036 0.000521814 8.05238e-11 2.00031e-11 -4.49414e-11 5e-05 1.46608e-10 
157 1 0.127259 0.0176299 0.00709946 0.00580789 -0.000914595 0.00027613 -1.00083e-10 1.84299e-10 -1.70279e-10 5e-05 1.46608e-10 
158 1 0.127301 0.017052 0.00731065 0.00600151 -0.000923125 0.000502058 -7.63174e-11 2.15153e-10 -1.35873e-10 5e-05 1.46608e-10 
159 1 0.133357 0.0181071 0.00723 0.00599696 0.000337029 -0.000292061 8.65295e-12 -3.05943e-11 9.56834e-12 5e-05 1.46608e-10 
160 1 0.127163 0.0175988 0.00710574 0.00597586 -0.000933313 0.000277836 -2.34466e-10 2.87982e-10 1.47206e-10 5e-05 1.46608e-10 
162 1 0.127109 0.0169996 0.00734544 0.0059911 -0.000839648 0.000450893 -2.56869e-10 2.91451e-10 -1.6475e-10 5e-05 1.46608e-10 
163 1 0.127321 0.017135 0.00725882 0.00603182 -0.000936907 0.000508852 -9.20254e-11 2.11126e-10 -1.40618e-10 5e-05 1.46608e-10 
164 1 0.127376 0.0177569 0.00707097 0.0055909 -0.00094538 0.000280831 -2.26555e-10 -1.35177e-10 -6.05492e-11 5e-05 1.46608e-10 
165 1 0.127237 0.0168033 0.00746581 0.00596471 -0.000938454 0.00051043 8.53146e-11 3.55122e-10 -2.43627e-10 5e-05 1.46608e-10 
166 1 0.132629 0.0155624 0.00863203 0.00553416 0.000567552 0.000549093 -3.72008e-10 -8.66779e-10 1.37153e-09 5e-05 1.46608e-10 
167 1 0.127078 0.0165284 0.00763922 0.0054049 -0.000414086 0.000885324 -5.15332e-11 -1.99855e-11 1.62308e-10 5e-05 1.46608e-10 
168 1 0.127215 0.0174389 0.00714365 0.0059984 -0.00102595 0.000284836 -4.86993e-10 -1.83622e-10 2.09734e-10 5e-05 1.46608e-10 
169 1 0.127365 0.0173103 0.00717527 0.00611057 -0.000960849 0.00028596 1.61338e-10 6.23871e-12 -1.75075e-10 5e-05 1.46608e-10 
170 1 0.127291 0.0173763 0.00716071 0.00600535 -0.00104809 0.000257149 4.81799e-11 1.61796e-10 -7.70557e-12 5e-05 1.46608e-10 
171 1 0.133006 0.0162374 0.00785604 0.00555471 -6.20053e-05 0.000467143 2.44199e-10 -1.75167e-10 3.61344e-11 5e-05 1.46608e-10 
172 1 0.127565 0.0178216 0.0070665 0.00554465 -0.000777649 0.000937609 1.53428e-10 2.15183e-10 1.6531e-10 5e-05 1.46608e-10 
173 1 0.13327 0.0170168 0.00762585 0.00586175 -0.000121093 0.000507603 -1.09477e-10 -2.91789e-11 1.37647e-12 5e-05 1.46608e-10 
174 1 0.127224 0.0177529 0.00715588 0.00568081 -0.00101444 0.000452466 -4.73986e-10 -4.55277e-10 -1.38458e-10 5e-05 1.46608e-10 
175 1 0.124056 0.0174164 0.00712006 0.00598208 0.00116373 -0.000520904 -1.38781e-12 -2.69202e-13 1.21318e-13 5e-05 1.46608e-10 
176 1 0.127055 0.0171393 0.0072599 0.0058243 -0.000901777 0.000524017 -3.24219e-10 7.17598e-11 1.56087e-10 5e-05 1.46608e-10 
177 1 0.127579 0.0179226 0.00707911 0.00555495 -0.000918548 0.000919464 8.47412e-11 -2.13855e-11 1.44304e-11 5e-05 1.46608e-10 
178 1 0.127545 0.017723 0.00708064 0.0056409 -0.000832579 0.000251446 1.28344e-10 -2.76542e-10 1.63162e-11 5e-05 1.46608e-10 
179 1 0.121067 0.0172065 0.00729632 0.00627219 0.000115331 -0.000296338 -4.78735e-11 -6.85853e-11 8.18038e-12 5e-05 1.46608e-10 
180 1 0.127226 0.0171088 0.00727623 0.00602775 -0.000899849 0.000488767 -1.51854e-10 1.58549e-10 -1.07591e-10 5e-05 1.46608e-10 
181 1 0.12727 0.0172827 0.0071883 0.00606147 -0.00104439 0.000319714 -3.39098e-11 2.21563e-10 -3.84123e-10 5e-05 1.46608e-10 
182 1 0.133182 0.0166424 0.00773955 0.00586355 -9.74612e-05 0.000500124 -5.47799e-11 -1.10517e-10 2.58312e-11 5e-05 1.46608e-10 
183 1 0.127387 0.0174056 0.00715322 0.00598468 -0.000912008 0.000276617 1.94172e-10 -3.44786e-11 1.67425e-11 5e-05 1.46608e-10 
184 1 0.133137 0.0176212 0.0075316 0.00591129 2.42387e-05 -0.000269188 -4.33349e-10 -7.81344e-10 -4.90396e-10 5e-05 1.46608e-10 
185 1 0.127097 0.017315 0.0071777 0.0060793 -0.000968859 0.000487213 -7.46865e-11 3.37153e-11 4.43693e-11 5e-05 1.46608e-10 
186 1 0.127131 0.0170825 0.00729375 0.00602893 -0.000830773 0.000444971 -7.09807e-11 2.20573e-10 -1.34958e-10 5e-05 1.46608e-10 
187 1 0.133204 0.0167367 0.00771092 0.00582443 -0.000137057 0.000509334 -1.49378e-10 1.08172e-10 -4.67695e-11 5e-05 1.46608e-10 
188 1 0.133131 0.0175672 0.00743407 0.00582172 -0.000295517 -4.90139e-05 5.36315e-12 -2.1371e-10 1.46127e-10 5e-05 1.46608e-10 
189 1 0.132895 0.0161281 0.00792166 0.00554911 -0.000237388 0.000308801 1.09405e-10 1.32281e-10 -2.1464e-10 5e-05 1.46608e-10 
190 1 0.127424 0.0183838 0.00709634 0.0057091 -0.000839592 0.000960249 2.09423e-10 4.42304e-11 3.18846e-11 5e-05 1.46608e-10 
191 1 0.133196 0.017838 0.00733308 0.00593143 0.000118407 -0.000210453 -9.10461e-12 -4.13732e-11 1.54819e-11 5e-05 1.46608e-10 
192 1 0.127172 0.0172492 0.00718972 0.006056 -0.000969609 0.000526971 1.70563e-10 5.89216e-11 -1.98811e-11 5e-05 1.46608e-10 
193 1 0.133251 0.018077 0.00727018 0.00596484 0.000357338 -0.000299142 -1.38025e-12 -2.19413e-11 -4.30725e-12 5e-05 1.46608e-10 
194 1 0.127004 0.0165865 0.0076064 0.00543203 -0.000746455 0.000482497 -5.65499e-12 -1.59537e-10 -4.47339e-11 5e-05 1.46608e-10 
195 1 0.127313 0.017471 0.00713716 0.00590521 -0.00099574 0.000295132 -2.1328e-10 1.20474e-10 -4.94993e-11 5e-05 1.46608e-10 
196 1 0.126597 0.015452 0.00871487 0.00559043 -0.000655799 0.000590596 -9.4658e-11 -3.45036e-12 4.68758e-11 5e-05 1.46608e-10 
197 1 0.127339 0.0178777 0.00713232 0.00584421 -0.00101203 0.000756279 -7.54394e-12 -3.09487e-10 8.30641e-13 5e-05 1.46608e-10 
198 1 0.127012 0.0169734 0.00736293 0.00599356 -0.000914976 0.000510303 -2.64326e-10 -2.1657e-10 2.01957e-10 5e-05 1.46608e-10 
199 1 0.127141 0.0175037 0.00712794 0.00606115 -0.000979021 0.000296132 -1.69523e-10 9.44019e-11 2.39742e-10 5e-05 1.46608e-10 
200 1 0.127024 0.0166681 0.00755239 0.00560045 -0.000842352 0.000383152 -1.54259e-10 -4.43893e-11 -1.28403e-10 5e-05 1.46608e-10 
201 1 0.127476 0.0182381 0.0070913 0.00567418 -0.000885628 0.000943367 8.01993e-11 -1.32234e-10 2.34034e-12 5e-05 1.46608e-10 
203 1 0.133435 0.0176589 0.00739194 0.00676371 0.00234326 -0.00105134 6.46289e-10 -2.48145e-10 6.70454e-11 5e-05 1.46608e-10 
204 1 0.127141 0.0167772 0.00748318 0.00584305 -0.000902469 0.000486188 -6.88724e-11 8.08097e-12 5.2129e-11 5e-05 1.46608e-10 
205 1 0.127237 0.0178504 0.00713792 0.00561839 -0.000992827 0.000447552 -9.26447e-11 -1.54616e-10 1.00581e-10 5e-05 1.46608e-10 
206 1 0.127237 0.0175341 0.00712163 0.00598715 -0.000935623 0.000278163 -4.56844e-10 5.67284e-11 -2.50586e-11 5e-05 1.46608e-10 
207 1 0.12702 0.0163088 0.0078353 0.00540582 -0.000426334 0.000910545 -5.35038e-12 2.65398e-11 6.08623e-12 5e-05 1.46608e-10 
208 1 0.127119 0.0174091 0.00715188 0.00608196 -0.000984824 0.000369689 -1.40901e-10 1.13567e-10 1.50682e-10 5e-05 1.46608e-10 
209 1 0.121106 0.0172957 0.00727443 0.00626187 0.000123896 -0.000297268 -6.33145e-11 4.89419e-11 1.46665e-11 5e-05 1.46608e-10 
210 1 0.132645 0.0155991 0.00854041 0.00555876 0.000548432 0.000554415 3.07167e-10 -5.1914e-11 1.11098e-09 5e-05 1.46608e-10 
211 1 0.133319 0.0178352 0.00740535 0.00640267 0.000258253 -0.000296058 -1.26105e-10 1.22164e-10 -5.83833e-11 5e-05 1.46608e-10 
212 1 0.127525 0.0176275 0.00710275 0.00575004 -0.000750181 0.000235838 5.32333e-11 -3.03336e-10 8.14673e-11 5e-05 1.46608e-10 
213 1 0.133346 0.0174001 0.00748919 0.00576453 -0.00031252 -4.64529e-05 -1.83286e-10 8.89105e-11 -4.38746e-11 5e-05 1.46608e-10 
214 1 0.133367 0.0177043 0.00747105 0.00664765 0.00173345 -0.000848496 3.84522e-11 -1.37696e-10 9.59314e-11 5e-05 1.46608e-10 
215 1 0.127206 0.0170257 0.00732809 0.00600861 -0.000861636 0.000463522 -2.08417e-10 3.43902e-10 -2.38956e-10 5e-05 1.46608e-10 
216 1 0.12728 0.0169689 0.00736248 0.00597128 -0.000911299 0.000494267 -2.2096e-10 3.57652e-10 -2.01335e-10 5e-05 1.46608e-10 
217 1 0.133026 0.0163311 0.00782741 0.00547477 -4.48163e-05 0.00045374 5.45957e-11 -1.02543e-10 8.51101e-11 5e-05 1.46608e-10 
218 1 0.127355 0.0176615 0.00709306 0.00566762 -0.000949997 0.000276871 -1.22565e-10 -8.85321e-12 1.05555e-12 5e-05 1.46608e-10 
219 1 0.133236 0.0179087 0.00739244 0.00611038 -6.94426e-06 -0.000164054 2.53181e-11 1.7008e-11 2.73701e-11 5e-05 1.46608e-10 
220 1 0.127184 0.0169429 0.00737979 0.00596598 -0.000860051 0.000461174 -1.58325e-10 3.93372e-10 -1.96517e-10 5e-05 1.46608e-10 
221 1 0.12096 0.0167403 0.0074333 0.00571153 0.000346164 -4.07088e-05 4.07682e-10 -2.38497e-10 1.48508e-10 5e-05 1.46608e-10 
222 1 0.132817 0.0161827 0.00788904 0.00551903 -0.000339533 0.000128155 3.77159e-11 -3.33377e-10 -1.78168e-10 5e-05 1.46608e-10 
223 1 0.127246 0.0171922 0.00722424 0.00603431 -0.000971258 0.000530259 6.05177e-11 -7.38705e-11 7.92208e-11 5e-05 1.46608e-10 
224 1 0.127034 0.0170564 0.00731135 0.00587911 -0.000906828 0.00051546 -6.9911e-10 -3.92079e-11 1.25138e-10 5e-05 1.46608e-10 
225 1 0.13332 0.0173098 0.00752302 0.00564299 -0.00031237 -3.93229e-05 2.59635e-10 -1.69431e-10 2.1381e-11 5e-05 1.46608e-10 
226 1 0.127259 0.016886 0.00741418 0.00592837 -0.000905748 0.000490992 -9.76531e-11 4.03262e-10 -2.62375e-10 5e-05 1.46608e-10 
227 1 0.121024 0.0170164 0.00734117 0.00630096 9.63222e-05 -0.000293143 -4.91168e-11 -1.83691e-10 5.20164e-11 5e-05 1.46608e-10 
228 1 0.0507861 0.0189683 0.00558458 -5.35652e-15 -1.91052e-14 -2.87013e-13 2.65422e-22 -3.60728e-23 -2.48154e-24 5e-05 1.46608e-10 
229 1 0.126847 0.0159882 0.00811296 0.00537829 -0.000418829 0.000903174 5.88063e-11 7.57717e-11 -3.88731e-11 5e-05 1.46608e-10 
230 1 0.127308 0.0179726 0.00712863 0.00581854 -0.00100521 0.000924933 2.30425e-10 -1.44673e-10 1.01515e-10 5e-05 1.46608e-10 
231 1 0.197479 0.018695 0.00523156 -1.0998e-15 -2.69842e-14 1.45242e-13 -2.79836e-22 -4.60119e-24 -2.89513e-24 5e-05 1.46608e-10 
232 1 0.126867 0.0160613 0.00804769 0.00540727 -0.000420513 0.00090608 -2.43582e-11 2.5314e-11 -4.7289e-11 5e-05 1.46608e-10 
233 1 0.12712 0.016694 0.00753506 0.00578787 -0.000809273 0.000425818 -7.08934e-11 1.30994e-10 -5.37525e-11 5e-05 1.46608e-10 
234 1 0.132589 0.0154882 0.00881337 0.00596909 0.000690326 0.000332971 1.6363e-10 3.14924e-10 -8.37075e-10 5e-05 1.46608e-10 
235 1 0.127391 0.0182907 0.00708113 0.00568715 -0.000843693 0.00095669 1.96156e-11 1.21476e-11 -6.22898e-12 5e-05 1.46608e-10 
236 1 0.12734 0.0184363 0.00708615 0.00568604 -0.000861148 0.000949157 2.96371e-11 1.50321e-11 4.11017e-12 5e-05 1.46608e-10 
237 1 0.127338 0.0180172 0.00704459 0.00553168 -0.000779289 0.000934438 6.78951e-11 1.26634e-10 6.71013e-11 5e-05 1.46608e-10 
238 1 0.121109 0.0173932 0.00725225 0.00624329 0.000124613 -0.000299248 4.05278e-11 1.39429e-10 -3.7183e-11 5e-05 1.46608e-10 
239 1 0.120863 0.0163904 0.00777472 0.00565494 5.70698e-05 -0.000442394 1.94715e-10 -1.05845e-10 1.01338e-10 5e-05 1.46608e-10 
240 1 0.120942 0.0166632 0.00749434 0.00559839 0.000188208 -0.000286793 1.1533e-09 -4.35716e-10 2.31802e-10 5e-05 1.46608e-10 
241 1 0.120883 0.0164544 0.00770045 0.0057041 4.93975e-05 -0.00043663 -3.9771e-10 4.14268e-12 -3.88094e-12 5e-05 1.46608e-10 
242 1 0.121251 0.0176137 0.00719627 0.00618733 0.000124103 -0.000294745 -3.19019e-11 5.50427e-11 -1.88015e-12 5e-05 1.46608e-10 
243 1 0.120844 0.0163264 0.00784905 0.00563855 6.35023e-05 -0.000447949 1.82151e-10 -1.7239e-12 3.32002e-11 5e-05 1.46608e-10 
244 1 0.120902 0.0165185 0.00762605 0.00570942 4.6823e-05 -0.00043522 1.41411e-10 4.57347e-11 1.33603e-11 5e-05 1.46608e-10 
245 1 0.121129 0.0174906 0.0072635 0.00620206 0.000130987 -0.000331585 1.20766e-10 1.82608e-10 -2.39119e-10 5e-05 1.46608e-10 
246 1 0.120981 0.0168266 0.00738705 0.00632807 6.06677e-05 -0.000324491 -6.18187e-11 -3.78961e-10 -1.36995e-10 5e-05 1.46608e-10 
247 1 0.127409 0.0175011 0.00713112 0.00579438 -0.000861992 0.000264909 4.27489e-10 1.54754e-10 -1.70994e-11 5e-05 1.46608e-10 
248 1 0.12745 0.0176922 0.00708686 0.00565061 -0.000867726 0.000261097 -6.32603e-11 -1.14968e-10 -4.64953e-11 5e-05 1.46608e-10 