ITEM: TIMESTEP
29800000
ITEM: NUMBER OF ATOMS
212
ITEM: BOX BOUNDS ff ff ff
-0.02 0.43
-0.02 0.06
-0.02 0.07
ITEM: ATOMS id type x y z vx vy vz fx fy fz radius mass 
1 1 0.187195 0.0177737 0.00699077 0.00573816 -2.12661e-05 0.000108242 -5.12959e-11 -3.99283e-11 3.63229e-12 5e-05 1.46608e-10 
2 1 0.186817 0.0176591 0.00705598 0.00574079 -0.000147711 -5.23559e-05 4.74198e-11 2.20867e-11 -1.15291e-11 5e-05 1.46608e-10 
3 1 0.175042 0.0187706 0.00686417 0.00558902 -0.000338348 0.000104463 1.16779e-10 -5.79936e-11 2.43162e-11 5e-05 1.46608e-10 
4 1 0.186566 0.0162446 0.00787054 0.00616932 -4.98636e-05 0.000300672 -1.45652e-10 -5.52555e-11 3.74522e-11 5e-05 1.46608e-10 
5 1 0.18697 0.0175438 0.00711618 0.00574942 -0.000136178 -6.03142e-05 -8.76266e-13 -1.40873e-11 3.20254e-12 5e-05 1.46608e-10 
6 1 0.192624 0.0167871 0.00745804 0.00564169 -0.000145572 0.000270315 1.58418e-12 5.74194e-13 -5.24925e-13 5e-05 1.46608e-10 
7 1 0.186343 0.0157595 0.00824034 0.00561146 -0.000109243 7.68291e-05 -1.61219e-11 5.08169e-11 -4.4576e-12 5e-05 1.46608e-10 
8 1 0.186427 0.0160544 0.00799313 0.00617793 -4.84248e-05 0.00027462 3.22002e-11 -1.84039e-11 -5.13415e-11 5e-05 1.46608e-10 
9 1 0.19282 0.0176746 0.00707276 0.00562748 -0.000273398 -2.56175e-05 -8.43576e-14 5.14565e-14 1.46944e-12 5e-05 1.46608e-10 
10 1 0.186363 0.0158144 0.00815912 0.00566181 -8.16029e-06 0.000156292 -3.63548e-11 6.21793e-11 1.02325e-11 5e-05 1.46608e-10 
11 1 0.186386 0.0158864 0.00809375 0.00600564 -1.5194e-05 0.000270001 -9.9877e-11 3.11598e-11 -2.47432e-11 5e-05 1.46608e-10 
13 1 0.186762 0.0174018 0.00719958 0.00578819 -0.000171493 -4.23734e-05 8.07317e-11 -3.19047e-11 5.044e-12 5e-05 1.46608e-10 
15 1 0.186749 0.0172281 0.00739184 0.0057586 -0.000185123 -3.65215e-05 -1.14458e-10 8.69994e-11 1.53315e-10 5e-05 1.46608e-10 
17 1 0.18678 0.0170868 0.00737326 0.00558057 -0.00021835 -1.16473e-05 -1.11566e-11 -7.36274e-11 2.72638e-11 5e-05 1.46608e-10 
18 1 0.192859 0.0178615 0.00701325 0.00567062 -0.000279473 -2.42155e-05 -4.47022e-10 3.26824e-10 -7.24946e-11 5e-05 1.46608e-10 
19 1 0.186208 0.0154372 0.00884595 0.00546118 3.30063e-05 0.000180901 -2.43089e-11 -5.13361e-13 -7.83145e-11 5e-05 1.46608e-10 
20 1 0.187028 0.0182638 0.00694154 0.00562209 -8.24116e-05 0.000111017 1.26657e-11 4.0964e-12 -7.77881e-13 5e-05 1.46608e-10 
21 1 0.186228 0.0154863 0.0087611 0.00545298 8.91535e-06 0.000157593 -8.98916e-11 6.67415e-11 -1.07486e-10 5e-05 1.46608e-10 
22 1 0.187082 0.017657 0.00705093 0.00571392 -9.76218e-05 -8.3057e-05 -7.59474e-11 8.04718e-11 8.2741e-12 5e-05 1.46608e-10 
23 1 0.180829 0.0177293 0.00713481 0.0054481 -0.000156132 -0.000279234 2.57513e-10 -3.64935e-11 -5.4639e-11 5e-05 1.46608e-10 
24 1 0.1928 0.0175812 0.00710252 0.00560373 -0.000268679 -2.64504e-05 2.61285e-12 -1.3372e-12 -2.85978e-12 5e-05 1.46608e-10 
25 1 0.186818 0.0172584 0.0072775 0.005798 -0.000161638 -4.76268e-05 -6.63637e-11 -1.11498e-10 7.02229e-11 5e-05 1.46608e-10 
26 1 0.1927 0.0171145 0.00725123 0.00579211 -0.000305883 -1.85948e-05 1.34805e-12 8.20882e-13 -7.73682e-13 5e-05 1.46608e-10 
28 1 0.187009 0.0181661 0.00695039 0.00559954 -7.52338e-05 0.000109942 5.98046e-13 -5.7364e-13 1.87632e-12 5e-05 1.46608e-10 
29 1 0.18674 0.0169157 0.00746878 0.0054849 -0.00020352 -1.68288e-05 1.72396e-11 -1.40815e-10 7.69451e-11 5e-05 1.46608e-10 
30 1 0.186781 0.0174874 0.00715177 0.00576892 -0.000164584 -4.59519e-05 4.512e-11 -3.31759e-11 -2.05706e-11 5e-05 1.46608e-10 
31 1 0.186405 0.0159694 0.00804111 0.00618883 -3.24379e-05 0.000308019 -2.79052e-11 -2.22086e-11 -5.70011e-11 5e-05 1.46608e-10 
32 1 0.186718 0.0168298 0.0075168 0.0062154 0.000107571 -0.000206131 -5.49445e-11 1.65636e-10 -9.24729e-11 5e-05 1.46608e-10 
33 1 0.192642 0.016862 0.00739437 0.00569937 -0.000152947 0.000278116 1.16977e-12 5.18565e-13 -4.40059e-13 5e-05 1.46608e-10 
34 1 0.186643 0.0168882 0.00748627 0.00592401 -0.000184078 -3.81541e-05 -1.22354e-10 -4.57815e-12 8.0964e-12 5e-05 1.46608e-10 
36 1 0.19284 0.0177681 0.007043 0.00565122 -0.000278024 -2.46089e-05 -3.16558e-12 7.86048e-12 -1.8547e-12 5e-05 1.46608e-10 
37 1 0.186544 0.0161608 0.00792362 0.00617032 -3.43607e-05 0.000289713 -3.02121e-11 2.18151e-13 1.48598e-11 5e-05 1.46608e-10 
38 1 0.186882 0.0171233 0.00735067 0.00563345 -0.000317341 3.92987e-05 -7.36917e-11 8.15306e-11 -5.66684e-11 5e-05 1.46608e-10 
39 1 0.192781 0.0174878 0.00713228 0.00557996 -0.000264021 -2.76051e-05 3.49865e-13 4.95571e-13 2.32527e-12 5e-05 1.46608e-10 
41 1 0.186267 0.0155829 0.00859031 0.0055238 -0.000336202 -3.58915e-05 3.34659e-11 6.3777e-11 -5.19575e-11 5e-05 1.46608e-10 
42 1 0.186862 0.017036 0.00739939 0.00554698 -0.000269986 1.8323e-05 1.20688e-10 -6.9396e-11 2.83219e-11 5e-05 1.46608e-10 
44 1 0.186856 0.0178434 0.00699321 0.00564998 -0.000102108 3.14886e-05 -3.74613e-11 2.57139e-11 -7.80982e-11 5e-05 1.46608e-10 
45 1 0.19268 0.0170204 0.00727829 0.0057869 -0.000245536 0.000187266 1.69736e-12 2.71566e-13 1.5315e-13 5e-05 1.46608e-10 
47 1 0.186312 0.0156725 0.00841757 0.00552589 -0.000344518 -4.81541e-05 -2.45985e-11 1.5467e-11 -5.868e-11 5e-05 1.46608e-10 
49 1 0.192721 0.0172077 0.00722151 0.00580345 -0.000308225 -1.80924e-05 7.5906e-13 5.33906e-13 -2.49434e-13 5e-05 1.46608e-10 
50 1 0.187143 0.0183932 0.00692823 0.00565973 -9.26766e-05 -9.73896e-05 2.28721e-11 -2.31357e-11 2.96366e-12 5e-05 1.46608e-10 
51 1 0.181005 0.0186017 0.00700173 0.00551948 -7.29251e-05 -0.000296115 -1.04645e-11 1.45562e-11 -5.81052e-13 5e-05 1.46608e-10 
52 1 0.187048 0.0183615 0.00693271 0.00563059 -7.38873e-05 0.000110141 6.52211e-13 -7.10087e-12 2.97068e-12 5e-05 1.46608e-10 
53 1 0.192741 0.017301 0.00719179 0.00581487 -0.000310548 -1.75674e-05 9.56126e-13 2.57946e-13 2.55179e-13 5e-05 1.46608e-10 
54 1 0.187103 0.0181983 0.0069491 0.00562974 -6.12806e-05 0.000109151 -5.49547e-11 -9.37485e-12 -2.47037e-13 5e-05 1.46608e-10 
55 1 0.180789 0.0175356 0.0071644 0.00557668 -0.00019287 -0.000280635 1.92567e-11 -7.24591e-11 4.42507e-11 5e-05 1.46608e-10 
56 1 0.187006 0.0177157 0.00702087 0.00574534 -0.000131827 -6.19136e-05 -5.45165e-11 -2.57657e-11 -1.58379e-10 5e-05 1.46608e-10 
57 1 0.192662 0.0169399 0.00733489 0.00569535 -0.000272933 0.000119773 4.70193e-13 1.31873e-12 5.36227e-13 5e-05 1.46608e-10 
59 1 0.186799 0.0171725 0.00732545 0.00569174 -0.000235741 -1.05689e-05 -1.03215e-10 -2.01788e-11 5.73819e-11 5e-05 1.46608e-10 
60 1 0.187198 0.0182304 0.00694781 0.00564169 -5.88835e-05 0.000109309 -4.89828e-12 -4.59691e-11 1.68341e-11 5e-05 1.46608e-10 
61 1 0.186286 0.015628 0.00850316 0.00552588 -0.000507127 -0.000128423 -8.39385e-11 1.31098e-11 -8.80416e-11 5e-05 1.46608e-10 
62 1 0.186799 0.0175733 0.00710388 0.00574759 -0.000155629 -4.86355e-05 2.61828e-11 -1.32964e-11 -1.60868e-11 5e-05 1.46608e-10 
63 1 0.186492 0.016299 0.00783224 0.00617711 -4.19295e-05 0.00029026 1.40975e-11 4.82006e-11 -2.49579e-11 5e-05 1.46608e-10 
64 1 0.192761 0.0173944 0.00716203 0.00555622 -0.000259329 -2.85426e-05 1.6152e-12 -3.18071e-13 -9.6409e-13 5e-05 1.46608e-10 
65 1 0.180443 0.0161733 0.00804142 0.00600144 -0.000250354 0.000201262 -1.70875e-10 -1.68341e-10 1.27246e-10 5e-05 1.46608e-10 
66 1 0.180357 0.0158763 0.00829509 0.00597175 -0.000226454 0.000181371 4.82878e-11 -7.76862e-12 1.43907e-12 5e-05 1.46608e-10 
67 1 0.186953 0.0183293 0.00693399 0.00562787 -7.97697e-05 0.000110885 -4.63353e-12 -3.54758e-12 9.59943e-13 5e-05 1.46608e-10 
69 1 0.187101 0.0177428 0.00700313 0.00573681 -8.70621e-05 -5.1034e-05 -7.03649e-11 -2.90129e-11 -1.2139e-10 5e-05 1.46608e-10 
70 1 0.187068 0.0184587 0.00691984 0.0056437 -0.000105004 -9.52125e-05 -1.76673e-12 -2.4988e-11 1.87844e-12 5e-05 1.46608e-10 
72 1 0.18661 0.0164095 0.00776607 0.00617109 -5.12798e-05 0.00030199 -8.59908e-11 4.20992e-11 -5.65483e-11 5e-05 1.46608e-10 
73 1 0.186535 0.0164656 0.00773051 0.00617221 -8.58082e-05 0.000215839 -3.39771e-11 -1.37542e-11 -1.07593e-10 5e-05 1.46608e-10 
74 1 0.186973 0.018427 0.00692516 0.00562565 -8.06484e-05 0.000110687 -1.06426e-11 -2.64899e-11 5.40846e-12 5e-05 1.46608e-10 
76 1 0.145405 0.0205718 0.00539992 7.41937e-15 9.13083e-15 -2.35014e-13 -1.85308e-22 1.90129e-22 2.06795e-24 5e-05 1.46608e-10 
77 1 0.186934 0.0182316 0.00694284 0.00558746 -7.21641e-05 0.000109149 -8.44569e-14 4.24789e-11 -2.99341e-12 5e-05 1.46608e-10 
78 1 0.181041 0.018342 0.00703645 0.0054829 -0.000102639 -0.00028975 -6.1198e-11 -6.32709e-11 1.25862e-11 5e-05 1.46608e-10 
80 1 0.186992 0.0185241 0.00691146 0.00563137 -0.000114223 -9.37013e-05 1.7028e-12 -1.66706e-11 1.2738e-12 5e-05 1.46608e-10 
81 1 0.180636 0.0168416 0.00747047 0.00592963 -0.000214497 0.000171177 5.28422e-12 1.4312e-10 -1.58069e-10 5e-05 1.46608e-10 
82 1 0.180552 0.0165442 0.0077245 0.00609982 -0.000263958 0.000213309 -3.1133e-10 2.32066e-11 -5.97723e-11 5e-05 1.46608e-10 
84 1 0.192879 0.017955 0.00698347 0.005541 -0.000257027 -2.8941e-05 6.0008e-12 3.92292e-12 -8.32871e-13 5e-05 1.46608e-10 
85 1 0.186247 0.0155352 0.00867604 0.00549298 -0.00016329 5.82262e-05 2.96692e-12 7.90274e-11 -6.70431e-11 5e-05 1.46608e-10 
86 1 0.187179 0.0181327 0.00695665 0.00564045 -6.15634e-05 0.000109291 7.15288e-11 -7.87177e-11 1.50418e-11 5e-05 1.46608e-10 
87 1 0.186704 0.0171447 0.00734305 0.00564457 -0.00014115 -5.54424e-05 -2.08599e-11 -1.62688e-11 3.8471e-11 5e-05 1.46608e-10 
88 1 0.187123 0.0182959 0.00694026 0.00563909 -6.28957e-05 0.000109403 -3.82744e-11 -3.60359e-11 5.20089e-12 5e-05 1.46608e-10 
90 1 0.187139 0.0179371 0.00697436 0.00564525 -2.87664e-05 0.000106503 5.76002e-11 -4.47851e-11 2.97521e-13 5e-05 1.46608e-10 
91 1 0.186664 0.0169736 0.00743857 0.00556924 -0.000117617 -6.62387e-05 7.97217e-11 -4.03915e-11 1.63582e-11 5e-05 1.46608e-10 
92 1 0.18697 0.0179706 0.00696808 0.00561366 -6.2373e-05 0.00010875 -2.89445e-11 5.18391e-12 4.85691e-12 5e-05 1.46608e-10 
93 1 0.192898 0.0180485 0.00695369 0.00556413 -0.000261508 -2.80623e-05 -7.42682e-14 -1.38371e-12 1.5147e-13 5e-05 1.46608e-10 
94 1 0.18712 0.017839 0.00698323 0.00564272 -3.73874e-05 0.000106817 -5.98492e-11 -9.13956e-12 -1.59938e-11 5e-05 1.46608e-10 
95 1 0.186557 0.0165492 0.00768015 0.00616542 -0.000159769 9.62242e-05 3.39775e-11 -4.90491e-11 -1.13822e-10 5e-05 1.46608e-10 
96 1 0.186579 0.0166331 0.00763023 0.00617147 -0.000208698 2.36943e-05 2.90685e-12 -2.89818e-12 5.0889e-12 5e-05 1.46608e-10 
98 1 0.187214 0.0178715 0.00698192 0.00567014 -6.1921e-06 0.000104876 4.85747e-11 -6.50183e-11 1.26923e-11 5e-05 1.46608e-10 
99 1 0.181003 0.0176687 0.00713368 0.00551787 5.47277e-05 -0.000313834 8.05171e-10 -1.04386e-10 -2.9837e-11 5e-05 1.46608e-10 
101 1 0.18069 0.0170624 0.00727479 0.00554418 -6.0549e-05 0.000219091 3.88955e-11 -2.7859e-10 2.08028e-12 5e-05 1.46608e-10 
102 1 0.0694385 0.0202053 0.00537268 3.95805e-15 4.38402e-15 -7.68316e-14 -9.72971e-22 7.1829e-22 -1.03398e-23 5e-05 1.46608e-10 
104 1 0.0249839 0.0195037 0.00542543 -3.58893e-15 -5.78184e-16 5.85127e-14 -9.04729e-26 -2.72711e-24 0 5e-05 1.46608e-10 
106 1 0.174983 0.0184875 0.00694431 0.00551302 -0.000337156 0.000104121 7.98582e-11 6.06559e-11 -2.01885e-11 5e-05 1.46608e-10 
107 1 0.18053 0.0164702 0.00778776 0.00606678 -0.000269393 0.000216063 1.56655e-10 1.13856e-11 3.65691e-12 5e-05 1.46608e-10 
108 1 0.186697 0.0167442 0.00756462 0.00617783 -0.000185925 -4.39093e-05 -8.86279e-11 -1.64036e-11 8.71962e-12 5e-05 1.46608e-10 
110 1 0.187273 0.0181648 0.00695537 0.00564061 -5.73492e-05 0.000109 5.72176e-11 -1.76835e-11 -3.04586e-12 5e-05 1.46608e-10 
111 1 0.180708 0.017149 0.00722834 0.00557869 -6.54166e-05 0.000247607 -1.6867e-10 -2.99204e-10 1.5161e-10 5e-05 1.46608e-10 
112 1 0.180465 0.0162475 0.00797801 0.00603201 -0.000250823 0.000202504 -2.01966e-10 -1.39506e-10 1.07579e-10 5e-05 1.46608e-10 
115 1 0.186622 0.0168029 0.00753392 0.00613752 -0.000227837 -2.11182e-05 -3.47978e-11 -3.44219e-11 2.7136e-11 5e-05 1.46608e-10 
116 1 0.187218 0.0183278 0.00693663 0.00566596 -8.58195e-05 -9.86614e-05 3.89074e-11 -2.78606e-11 -1.11149e-11 5e-05 1.46608e-10 
117 1 0.187159 0.0180351 0.00696549 0.00562795 -6.50395e-05 0.000109439 6.5767e-12 -8.81264e-11 5.6053e-12 5e-05 1.46608e-10 
118 1 0.180616 0.0167672 0.00753404 0.00607137 -0.000241419 0.000194892 -9.10829e-11 2.1105e-10 -1.90593e-10 5e-05 1.46608e-10 
119 1 0.187012 0.018621 0.00689645 0.00563114 -0.000117932 -9.32408e-05 -1.63594e-11 -1.45306e-11 2.48419e-12 5e-05 1.46608e-10 
120 1 0.186189 0.0153879 0.00893081 0.00543275 2.4733e-06 0.000167264 -4.22326e-11 -4.2537e-12 -1.53315e-11 5e-05 1.46608e-10 
121 1 0.187234 0.0179694 0.00697306 0.00565129 -4.25544e-05 0.000107804 5.79683e-11 -4.04254e-11 6.72483e-12 5e-05 1.46608e-10 
122 1 0.187064 0.0180028 0.00696679 0.00561643 -5.02685e-05 0.000107972 -5.91236e-12 -9.66861e-11 9.06939e-12 5e-05 1.46608e-10 
124 1 0.186895 0.0180363 0.00696053 0.00560414 -6.93876e-05 0.000109182 1.33912e-11 4.68485e-11 -7.05364e-12 5e-05 1.46608e-10 
125 1 0.186588 0.016327 0.00781835 0.00617453 -5.30882e-05 0.000301389 -5.30482e-11 4.2618e-12 1.8628e-12 5e-05 1.46608e-10 
126 1 0.186471 0.0162165 0.00788472 0.00616905 -4.57695e-05 0.000277038 2.92701e-11 3.22536e-11 -1.61136e-11 5e-05 1.46608e-10 
127 1 0.180958 0.0174998 0.00716006 0.00558809 -1.69107e-06 -0.000310367 5.41759e-10 -2.2418e-11 -4.61536e-11 5e-05 1.46608e-10 
128 1 0.186912 0.0176874 0.00703811 0.00574434 -0.000148602 -5.56098e-05 -5.31287e-11 5.32943e-11 -7.01517e-11 5e-05 1.46608e-10 
129 1 0.180887 0.0180202 0.00709046 0.00547743 -0.000130868 -0.000285124 -7.10831e-11 -1.16152e-11 4.21409e-12 5e-05 1.46608e-10 
131 1 0.180809 0.0176324 0.00714961 0.00549308 -0.000174389 -0.000280273 -1.45893e-10 -1.06953e-10 3.0526e-11 5e-05 1.46608e-10 
132 1 0.186684 0.0170591 0.00739081 0.00548492 -0.000106013 -7.10807e-05 1.83677e-10 -5.78551e-11 1.95805e-11 5e-05 1.46608e-10 
133 1 0.187162 0.0184901 0.00691322 0.00564372 -9.24863e-05 -9.71848e-05 2.48197e-11 -2.94261e-11 5.93076e-12 5e-05 1.46608e-10 
134 1 0.186929 0.0177758 0.00698887 0.0056758 -6.64078e-05 -9.72829e-05 5.85398e-11 8.47905e-11 -3.98573e-11 5e-05 1.46608e-10 
135 1 0.186514 0.0163814 0.00778005 0.00618118 -4.24835e-05 0.000291973 -5.13746e-11 4.70818e-11 -3.74888e-11 5e-05 1.46608e-10 
136 1 0.180863 0.0174693 0.00716963 0.00561363 -0.00011071 -0.000295688 2.27649e-10 -7.23989e-11 -2.62052e-12 5e-05 1.46608e-10 
137 1 0.18695 0.0178729 0.00697693 0.00564349 -3.27513e-05 0.000107446 -3.55208e-11 8.2626e-11 -5.29256e-12 5e-05 1.46608e-10 
138 1 0.1866 0.0167177 0.00758157 0.00616707 -0.00022803 -9.85568e-06 -1.3024e-11 -1.07062e-11 4.36519e-11 5e-05 1.46608e-10 
140 1 0.186875 0.0179386 0.00696936 0.00560837 -6.99206e-05 0.000109551 -1.65144e-11 4.938e-11 9.2424e-12 5e-05 1.46608e-10 
141 1 0.180508 0.0163959 0.00785117 0.0060528 -0.000266817 0.000214324 3.3334e-10 5.64762e-11 -1.39701e-11 5e-05 1.46608e-10 
143 1 0.393994 0.0150325 6.48596e-05 -2.1271e-21 1.6267e-21 -1.45327e-21 0 0 0 5e-05 1.46608e-10 
146 1 0.181023 0.0177694 0.00711838 0.00539521 0.000293554 -0.000340786 1.77104e-10 -3.31307e-12 -1.91272e-11 5e-05 1.46608e-10 
147 1 0.180868 0.0179232 0.00710524 0.00544275 -0.000143446 -0.000280472 -6.52198e-12 -2.16997e-10 3.67373e-11 5e-05 1.46608e-10 
148 1 0.00869006 0.0177391 0.00783343 0.00134673 0.0154442 -0.00811663 1.75032e-11 -8.69859e-11 -2.04825e-11 5e-05 1.46608e-10 
149 1 0.186838 0.0173442 0.00722963 0.0057904 -0.000168897 -4.3245e-05 1.4587e-10 -3.5247e-11 1.5889e-11 5e-05 1.46608e-10 
150 1 0.180335 0.0158021 0.00835851 0.00596072 -0.00021991 0.000175573 9.32752e-11 5.87914e-11 -5.73485e-11 5e-05 1.46608e-10 
151 1 0.181002 0.0181481 0.00706603 0.00548301 -0.000115945 -0.000287928 6.60663e-11 3.48612e-11 -7.55014e-12 5e-05 1.46608e-10 
154 1 0.180883 0.0175661 0.00715483 0.00552679 -9.70656e-05 -0.000293188 4.83836e-10 -6.89175e-11 -2.4231e-11 5e-05 1.46608e-10 
155 1 0.175061 0.018865 0.00683746 0.00561715 -0.000342495 0.000109863 -4.63649e-11 2.36241e-10 -1.39878e-10 5e-05 1.46608e-10 
157 1 0.180749 0.0173419 0.00719439 0.00561498 -0.000156872 -0.000148624 -1.31527e-10 -7.12757e-11 3.55518e-11 5e-05 1.46608e-10 
165 1 0.181021 0.0182451 0.00705124 0.00549037 -0.000115379 -0.000288265 -1.03089e-10 -7.5655e-12 5.8781e-12 5e-05 1.46608e-10 
166 1 0.186522 0.0160784 0.00797581 0.00615846 -3.67577e-05 0.00029064 5.59152e-11 -3.0153e-12 -1.99168e-11 5e-05 1.46608e-10 
168 1 0.238579 0.0182517 0.00767784 -4.9575e-08 -0.023628 0.0049656 2.03168e-14 -1.94698e-11 2.80612e-11 5e-05 1.46608e-10 
171 1 0.186449 0.0161359 0.00793956 0.00616297 -5.15499e-05 0.000263873 5.73373e-11 1.83815e-11 -1.05215e-11 5e-05 1.46608e-10 
172 1 0.180904 0.0176631 0.00714001 0.00552089 -6.35119e-05 -0.000297397 5.3386e-10 -2.7023e-10 -1.27964e-11 5e-05 1.46608e-10 
176 1 0.180422 0.016099 0.00810484 0.00600424 -0.000250703 0.000201409 2.17395e-10 -4.65066e-11 4.51174e-11 5e-05 1.46608e-10 
177 1 0.180486 0.0163217 0.00791459 0.0060516 -0.000256463 0.000207178 -9.49684e-11 -2.03984e-11 2.36447e-11 5e-05 1.46608e-10 
179 1 0.174964 0.0183931 0.00697102 0.00552968 -0.0003503 0.000108554 8.56085e-11 1.45294e-10 -2.13445e-11 5e-05 1.46608e-10 
181 1 0.1804 0.0160248 0.00816826 0.00600623 -0.000240599 0.00019315 -1.61704e-11 4.26952e-11 -2.65671e-11 5e-05 1.46608e-10 
182 1 0.186675 0.0166589 0.00761229 0.00614636 -0.00024575 -8.75386e-06 2.38939e-11 1.93927e-11 -7.76543e-12 5e-05 1.46608e-10 
184 1 0.186836 0.0177474 0.00701273 0.00574058 -0.000145717 -6.52038e-05 7.32401e-12 1.16449e-11 -1.05199e-10 5e-05 1.46608e-10 
187 1 0.186857 0.0174298 0.00718182 0.00577342 -0.000161615 -4.60461e-05 4.05478e-11 -1.66684e-12 3.69802e-11 5e-05 1.46608e-10 
188 1 0.187084 0.0181006 0.00695794 0.00560378 -5.78869e-05 0.00010841 4.21024e-11 -1.55336e-11 2.3032e-12 5e-05 1.46608e-10 
189 1 0.186988 0.0176296 0.00706828 0.00572453 -0.00013218 -6.32233e-05 -6.7579e-11 4.43093e-11 1.62645e-11 5e-05 1.46608e-10 
191 1 0.186723 0.0172303 0.00729524 0.0057539 -0.000165074 -4.31632e-05 -1.98368e-11 1.06503e-11 3.91382e-11 5e-05 1.46608e-10 
192 1 0.177779 0.0177717 0.00710855 0.00553628 -0.000982194 0.000163603 4.74e-13 1.3413e-13 -4.83932e-14 5e-05 1.46608e-10 
193 1 0.189713 0.0174466 0.00710714 0.00561218 -0.000829115 0.0003295 8.66824e-13 -1.27644e-13 4.89954e-14 5e-05 1.46608e-10 
197 1 0.180314 0.0157279 0.00842193 0.00594751 -0.000215201 0.000171544 6.13405e-11 1.36515e-10 -1.17514e-10 5e-05 1.46608e-10 
198 1 0.180943 0.0178573 0.00711039 0.00539323 -0.000105097 -0.000284675 -1.9531e-10 -1.39345e-11 1.22381e-11 5e-05 1.46608e-10 
200 1 0.180985 0.0185048 0.00701652 0.00551354 -8.03751e-05 -0.000294266 1.06551e-11 -6.52133e-11 9.61689e-12 5e-05 1.46608e-10 
201 1 0.180907 0.0181171 0.00707567 0.00549569 -0.000117486 -0.000288311 5.76914e-11 1.34122e-10 -3.03197e-11 5e-05 1.46608e-10 
203 1 0.186742 0.0173161 0.00724737 0.00578972 -0.000171674 -4.11347e-05 3.97497e-11 1.03476e-12 7.05262e-12 5e-05 1.46608e-10 
204 1 0.174944 0.0182987 0.00699773 0.00552751 -0.000350779 0.00010791 2.6516e-11 5.85462e-12 8.09878e-12 5e-05 1.46608e-10 
206 1 0.175003 0.0185818 0.0069176 0.00555435 -0.000331424 0.000101916 -2.04813e-10 -1.15354e-10 -9.24844e-13 5e-05 1.46608e-10 
207 1 0.060646 0.0186723 0.00546139 1.16329e-15 5.18594e-15 3.71388e-14 1.76164e-23 -3.74816e-24 -2.06795e-25 5e-05 1.46608e-10 
208 1 0.180848 0.0178262 0.00712003 0.0054014 -0.000146762 -0.000278363 -3.23889e-11 -2.10584e-10 9.70343e-12 5e-05 1.46608e-10 
209 1 0.174769 0.0174494 0.00723812 0.00549973 -0.000332794 0.000102621 8.1505e-12 6.7031e-12 2.78744e-12 5e-05 1.46608e-10 
210 1 0.187025 0.017807 0.00698451 0.005642 -3.70861e-05 0.000108622 -1.13463e-10 4.01226e-11 -8.52129e-12 5e-05 1.46608e-10 
211 1 0.180966 0.0184079 0.00703131 0.00550828 -8.99631e-05 -0.000293087 -6.59998e-11 -8.64057e-11 1.40089e-11 5e-05 1.46608e-10 
212 1 0.180656 0.016916 0.0074066 0.00576709 -0.000184465 0.000145139 -9.36905e-11 6.8597e-11 -1.16696e-10 5e-05 1.46608e-10 
213 1 0.186893 0.0176016 0.00708601 0.00572847 -0.000156641 -4.82724e-05 8.72061e-11 9.87176e-11 -6.05697e-11 5e-05 1.46608e-10 
214 1 0.187032 0.0187178 0.00688144 0.00563687 -0.000122263 -9.273e-05 2.56637e-11 5.33721e-12 -1.35364e-12 5e-05 1.46608e-10 
217 1 0.186632 0.016492 0.00771383 0.00617872 -5.3366e-05 0.000302878 7.4685e-11 6.53748e-11 -4.16465e-11 5e-05 1.46608e-10 
218 1 0.187087 0.0185557 0.00690481 0.0056333 -0.000110048 -9.44492e-05 1.51175e-11 -8.6241e-12 -6.0028e-13 5e-05 1.46608e-10 
221 1 0.174709 0.0171795 0.00735158 0.00565165 -0.000707332 -0.000578528 1.3824e-11 -1.9929e-12 -2.18874e-11 5e-05 1.46608e-10 
222 1 0.186325 0.015714 0.00832755 0.00555502 -0.000217568 1.11604e-05 3.80662e-11 2.29439e-11 -3.37735e-11 5e-05 1.46608e-10 
223 1 0.195652 0.0172023 0.00732267 0.00629072 0.000292212 0.000161734 -2.90613e-13 7.77031e-13 -3.8013e-13 5e-05 1.46608e-10 
225 1 0.186875 0.0175157 0.00713392 0.00575504 -0.000153812 -5.10381e-05 6.43622e-12 1.27898e-12 2.55199e-11 5e-05 1.46608e-10 
226 1 0.180769 0.0174388 0.0071792 0.00562267 -0.000186561 -0.000282914 1.76356e-10 -9.92348e-11 -1.7599e-11 5e-05 1.46608e-10 
228 1 0.0507861 0.0189683 0.00558458 -5.33251e-15 -1.91152e-14 -2.87013e-13 1.27502e-23 5.81611e-25 -2.06795e-25 5e-05 1.46608e-10 
231 1 0.197479 0.018695 0.00523156 -1.1079e-15 -2.69829e-14 1.45243e-13 -1.48868e-22 2.99853e-24 -6.20385e-25 5e-05 1.46608e-10 
232 1 0.189081 0.0184947 0.00541361 -2.1577e-15 1.32211e-15 5.80686e-14 -2.12702e-22 -3.22103e-22 -1.03398e-24 5e-05 1.46608e-10 
234 1 0.187045 0.0179049 0.00697565 0.00564407 -3.10029e-05 0.000106627 -3.50535e-12 3.38667e-11 -1.36467e-11 5e-05 1.46608e-10 
235 1 0.194679 0.0184196 0.00544868 1.52069e-14 9.62555e-14 2.34552e-13 -1.55072e-21 1.27799e-22 5.91434e-23 5e-05 1.46608e-10 
238 1 0.174788 0.0175437 0.00721142 0.00551592 -0.000335061 0.000103397 1.2572e-11 3.43015e-12 5.14083e-12 5e-05 1.46608e-10 
239 1 0.174607 0.0167778 0.00763075 0.00600247 -0.000831199 -0.000628486 -1.76767e-11 -1.83496e-11 1.75743e-11 5e-05 1.46608e-10 
240 1 0.174689 0.0170958 0.00740272 0.00569116 -0.000745831 -0.000624265 -5.14585e-12 1.40069e-11 -1.53439e-11 5e-05 1.46608e-10 
241 1 0.174628 0.016857 0.00757372 0.00593887 -0.000813212 -0.000627929 -1.08827e-11 6.97638e-12 -3.37488e-13 5e-05 1.46608e-10 
242 1 0.175081 0.0189593 0.00681075 0.00563016 -0.000355647 9.48187e-05 -3.11214e-10 1.56283e-10 -3.13721e-10 5e-05 1.46608e-10 
243 1 0.174585 0.0166985 0.00768778 0.00600394 -0.000831676 -0.000628702 -8.36427e-12 -3.31106e-11 2.11081e-11 5e-05 1.46608e-10 
244 1 0.17465 0.0169362 0.0075167 0.00583611 -0.000784242 -0.000627108 -9.66945e-11 4.89965e-11 -1.4428e-11 5e-05 1.46608e-10 
245 1 0.174808 0.017638 0.00718473 0.00552779 -0.000337024 0.000103839 -2.63908e-11 -1.24864e-11 4.27706e-12 5e-05 1.46608e-10 
246 1 0.174731 0.0172677 0.00730992 0.00563949 -0.000571243 -0.000300669 -1.02368e-11 -1.29174e-11 -2.99063e-11 5e-05 1.46608e-10 
248 1 0.180378 0.0159505 0.00823169 0.00598215 -0.000232972 0.000186835 1.23004e-11 -5.35523e-11 4.39239e-11 5e-05 1.46608e-10 
249 1 0.174847 0.0178268 0.0071313 0.00532314 -0.000299609 9.30915e-05 5.37333e-12 4.1736e-11 -1.04722e-11 5e-05 1.46608e-10 
250 1 0.181633 0.0163411 0.0153295 0.0057627 -0.000225011 0.000423062 3.08609e-13 3.23068e-13 1.63695e-13 5e-05 1.46608e-10 
251 1 0.18676 0.0170013 0.00742102 0.00548448 -0.000202462 -1.74862e-05 2.17157e-10 -1.31007e-10 7.1669e-11 5e-05 1.46608e-10 
252 1 0.174828 0.0177324 0.00715802 0.00539499 -0.000312952 9.68624e-05 8.34836e-11 -1.80775e-11 5.07099e-12 5e-05 1.46608e-10 
254 1 0.176309 0.0172453 0.00804121 -5.72403e-10 -0.0213785 0.0111542 -1.74055e-18 1.01e-11 1.93861e-11 5e-05 1.46608e-10 
255 1 0.180729 0.0172452 0.00720996 0.00557946 -9.82736e-05 0.000113625 -4.17084e-10 -1.10233e-10 2.7574e-10 5e-05 1.46608e-10 
256 1 0.18649 0.0181092 0.00771535 0.0123079 -0.000482716 0.000692012 -3.57482e-10 -2.75713e-10 4.12218e-11 5e-05 1.46608e-10 
257 1 0.180923 0.0177603 0.00712517 0.0054346 -0.00012798 -0.000283694 3.11757e-10 -1.34134e-10 -4.42568e-12 5e-05 1.46608e-10 
258 1 0.181042 0.0178673 0.00710347 0.00535148 0.000265595 -0.00033404 -3.9824e-10 1.34155e-10 -4.73713e-12 5e-05 1.46608e-10 
259 1 0.174866 0.0179212 0.00710458 0.00542153 -0.000314645 9.77038e-05 -2.2242e-10 1.23307e-10 -3.89846e-11 5e-05 1.46608e-10 
260 1 0.180962 0.0179543 0.0070956 0.00541463 -0.000101568 -0.00028614 -2.17269e-10 -4.15026e-11 1.92253e-11 5e-05 1.46608e-10 
261 1 0.181061 0.0179653 0.00708854 0.00536021 0.000295236 -0.000339189 -2.14548e-10 -1.44425e-11 1.34609e-11 5e-05 1.46608e-10 
262 1 0.180982 0.0180512 0.00708082 0.00547847 -0.000116689 -0.000287468 4.4534e-11 -5.51484e-11 5.06945e-12 5e-05 1.46608e-10 
263 1 0.175022 0.0186762 0.00689088 0.00559365 -0.000331812 0.000102063 -7.33187e-11 -1.5419e-10 3.95474e-11 5e-05 1.46608e-10 
265 1 0.180927 0.018214 0.00706088 0.0054936 -0.000115971 -0.00028825 5.57712e-11 6.54178e-11 -1.69302e-11 5e-05 1.46608e-10 
270 1 0.186989 0.0180683 0.00695924 0.00560314 -5.92513e-05 0.000108552 4.89983e-11 -5.93859e-12 2.34744e-12 5e-05 1.46608e-10 
271 1 0.245589 0.0182516 0.00768058 0.0047131 -0.0108167 0.0018706 3.08279e-11 -3.50132e-10 8.28379e-11 5e-05 1.46608e-10 
272 1 0.174905 0.0181099 0.00705116 0.00548964 -0.000325404 0.000100433 -7.04043e-11 2.40229e-11 -1.26691e-11 5e-05 1.46608e-10 
273 1 0.0648667 0.0181306 0.0077095 -0.0284823 0.017289 -0.00213383 1.73312e-11 -3.6894e-10 2.67848e-11 5e-05 1.46608e-10 
274 1 0.174886 0.0180156 0.00707787 0.00547141 -0.000318751 9.90567e-05 -4.90522e-11 6.68738e-11 -2.69545e-11 5e-05 1.46608e-10 
275 1 0.180946 0.0183109 0.0070461 0.00550028 -0.000104757 -0.000290218 -5.52042e-11 -5.22122e-11 1.52753e-11 5e-05 1.46608e-10 
276 1 0.180673 0.0169902 0.00734196 0.00562077 -0.000112563 0.000179478 -1.16545e-10 -2.94089e-11 -1.71727e-11 5e-05 1.46608e-10 
277 1 0.180573 0.0166186 0.00766093 0.00610641 -0.00025541 0.000206528 3.3599e-10 9.39191e-12 -3.06632e-11 5e-05 1.46608e-10 
279 1 0.1751 0.0190572 0.00680434 0.00560663 -0.000401027 -0.000154327 8.69381e-11 -3.63953e-11 1.59847e-10 5e-05 1.46608e-10 
282 1 0.174748 0.0173552 0.00726479 0.00548857 -0.000330212 0.000102356 -2.11504e-11 -8.23002e-12 -9.16916e-12 5e-05 1.46608e-10 
283 1 0.17467 0.0170159 0.0074597 0.00575967 -0.000763943 -0.000625489 -1.25624e-10 5.21661e-11 -1.39243e-11 5e-05 1.46608e-10 
284 1 0.180595 0.0166935 0.00759828 0.00610904 -0.000252067 0.000202903 9.46448e-11 1.46471e-10 -1.48012e-10 5e-05 1.46608e-10 
288 1 0.181026 0.0175721 0.00714608 0.00554687 5.12393e-05 -0.00031469 9.34013e-10 -3.08685e-10 -1.77309e-11 5e-05 1.46608e-10 
293 1 0.174925 0.0182043 0.00702444 0.00549808 -0.000335828 0.000103158 6.94091e-11 -4.2191e-11 1.41177e-11 5e-05 1.46608e-10 
294 1 0.152576 0.0182562 0.00546336 5.48364e-16 -1.41003e-15 1.14578e-14 -9.93909e-23 -1.21518e-22 -9.71937e-24 5e-05 1.46608e-10 
295 1 0.226795 0.0176936 0.00784083 -5.10917e-10 -0.0226165 0.00837924 -2.19247e-18 7.58238e-12 2.05072e-11 5e-05 1.46608e-10 
297 1 0.186914 0.018134 0.00695168 0.00559737 -7.01603e-05 0.000109653 8.85575e-12 4.5626e-11 -7.31161e-13 5e-05 1.46608e-10 
300 1 0.186653 0.0165745 0.00766158 0.00618473 -5.2386e-05 0.000304211 6.92438e-11 6.21558e-11 -5.98775e-11 5e-05 1.46608e-10 
