ITEM: TIMESTEP
17200000
ITEM: NUMBER OF ATOMS
284
ITEM: BOX BOUNDS ff ff ff
-0.02 0.43
-0.02 0.06
-0.02 0.07
ITEM: ATOMS id type x y z vx vy vz fx fy fz radius mass 
1 1 0.11312 0.0164144 0.00796666 0.00575057 -0.000776885 0.000155885 9.29622e-11 2.79793e-11 -3.91198e-11 5e-05 1.46608e-10 
2 1 0.113537 0.017368 0.0073244 0.00516018 -0.00077668 0.000191468 1.47719e-10 -2.48744e-12 -1.12776e-11 5e-05 1.46608e-10 
3 1 0.10712 0.016307 0.00780939 0.0057525 -0.000275552 8.66435e-05 -1.09656e-10 9.07713e-11 2.17709e-11 5e-05 1.46608e-10 
4 1 0.113514 0.0176661 0.00713282 0.00549231 -0.000728115 0.000142652 -2.90875e-11 -4.64409e-11 3.51036e-11 5e-05 1.46608e-10 
5 1 0.113025 0.0163914 0.00798729 0.00574633 -0.000808368 0.000176285 3.99704e-11 -3.96455e-11 -2.09086e-12 5e-05 1.46608e-10 
6 1 0.119109 0.0166323 0.00762145 0.00548024 -0.000498541 -9.42076e-06 -2.35272e-11 4.58075e-11 -4.27693e-11 5e-05 1.46608e-10 
7 1 0.113132 0.0167985 0.00771739 0.00603952 -0.000847138 0.000187883 -1.4143e-10 1.72805e-10 -1.32578e-10 5e-05 1.46608e-10 
8 1 0.113036 0.0160885 0.00818265 0.00585772 -0.00077835 0.000150463 5.9075e-11 -1.14323e-10 6.90335e-11 5e-05 1.46608e-10 
9 1 0.119339 0.0176842 0.00716338 0.00548046 -0.00032954 0.000280656 9.30997e-13 -3.10236e-12 -1.55321e-12 5e-05 1.46608e-10 
10 1 0.113154 0.0168798 0.00766342 0.00613678 -0.000864444 0.000190093 9.30534e-12 1.20583e-10 -9.54327e-11 5e-05 1.46608e-10 
11 1 0.113268 0.0169862 0.00758772 0.00529335 -0.000718468 0.000145013 -1.23019e-10 7.8812e-11 -3.6054e-11 5e-05 1.46608e-10 
12 1 0.113343 0.017314 0.00737102 0.0053305 -0.00070633 0.000135515 -1.56775e-10 -2.21815e-11 2.27839e-11 5e-05 1.46608e-10 
13 1 0.113388 0.0177789 0.00716644 0.00552918 -0.000754428 0.000191794 1.09703e-10 -5.74445e-11 1.0533e-10 5e-05 1.46608e-10 
14 1 0.10683 0.0157207 0.00856436 0.0060284 0.000258493 0.000472964 -1.10073e-10 6.29146e-11 -1.68301e-10 5e-05 1.46608e-10 
15 1 0.113249 0.0172893 0.00739271 0.00532131 -0.000674919 0.000116061 -8.92234e-11 -5.8032e-11 5.10736e-11 5e-05 1.46608e-10 
16 1 0.10681 0.0156906 0.00865758 0.00594395 0.000294747 0.000479014 2.8579e-11 6.27384e-11 9.98561e-11 5e-05 1.46608e-10 
17 1 0.113497 0.0177666 0.00716935 0.00533191 -0.000508358 0.000112571 -1.393e-10 6.13559e-11 -9.96096e-11 5e-05 1.46608e-10 
18 1 0.119242 0.0172067 0.00727481 0.00550047 -0.000334679 0.000283129 2.95987e-11 -4.16889e-11 -3.74069e-12 5e-05 1.46608e-10 
19 1 0.112983 0.0162284 0.00809528 0.00580748 -0.000805749 0.00017152 -1.66374e-10 -2.11123e-10 1.61869e-10 5e-05 1.46608e-10 
20 1 0.113443 0.0176403 0.00725163 0.00545719 -0.000712924 0.00015754 -1.21518e-11 1.37311e-11 2.81541e-11 5e-05 1.46608e-10 
21 1 0.113004 0.0163099 0.00804128 0.00577404 -0.000812493 0.000178791 1.0383e-10 -1.46494e-10 8.09077e-11 5e-05 1.46608e-10 
22 1 0.113305 0.0171502 0.0074793 0.00529037 -0.000704754 0.000136891 -1.41889e-10 1.61949e-11 -3.85251e-12 5e-05 1.46608e-10 
23 1 0.107165 0.0169005 0.00753597 0.00540861 5.93018e-05 0.000490628 -5.3553e-11 5.11984e-11 -2.97925e-11 5e-05 1.46608e-10 
24 1 0.11932 0.0175887 0.00718566 0.00549122 -0.000332018 0.000281835 6.74634e-12 -1.23366e-12 2.72451e-12 5e-05 1.46608e-10 
25 1 0.113228 0.0168221 0.00769627 0.00656277 -0.000521336 -5.82891e-05 3.69359e-11 1.83673e-10 -1.27207e-10 5e-05 1.46608e-10 
26 1 0.119184 0.01693 0.00736739 0.00558543 -0.00042291 0.000135895 3.27499e-11 4.20634e-11 -2.24322e-11 5e-05 1.46608e-10 
27 1 0.107085 0.0165378 0.0076847 0.00554592 1.35003e-05 0.000524069 2.5533e-11 5.7111e-11 -4.99514e-11 5e-05 1.46608e-10 
28 1 0.113348 0.0176147 0.00727348 0.00539465 -0.000723738 0.000149912 1.07059e-10 -1.17669e-11 1.16929e-11 5e-05 1.46608e-10 
29 1 0.113142 0.0164958 0.00791268 0.00570768 -0.000765392 0.000150418 -7.50845e-11 -7.16255e-11 3.68987e-11 5e-05 1.46608e-10 
30 1 0.113495 0.0175843 0.00718695 0.00541736 -0.000713702 0.0001373 -3.72707e-11 -5.13372e-11 5.85672e-11 5e-05 1.46608e-10 
31 1 0.11323 0.0172074 0.00744685 0.00528406 -0.000671075 0.00011572 -1.78984e-10 -1.41357e-11 2.03167e-11 5e-05 1.46608e-10 
32 1 0.113286 0.0170683 0.00753345 0.00531783 -0.000717394 0.000143007 -7.89314e-11 1.95834e-11 -7.57126e-12 5e-05 1.46608e-10 
33 1 0.119128 0.0167035 0.00755384 0.00548611 -0.000499558 -1.26608e-05 2.09961e-10 -6.07515e-11 3.30454e-11 5e-05 1.46608e-10 
34 1 0.113195 0.0170512 0.00765479 0.00527827 -0.000717955 0.000123362 2.85519e-12 -2.11558e-11 -1.39976e-11 5e-05 1.46608e-10 
36 1 0.119359 0.0177797 0.00714109 0.00546989 -0.000327048 0.000279745 2.24381e-12 2.60803e-12 3.447e-13 5e-05 1.46608e-10 
37 1 0.113173 0.0169616 0.00760933 0.00528523 -0.000695216 0.000127195 -3.93573e-12 5.46332e-11 -6.97221e-11 5e-05 1.46608e-10 
38 1 0.113324 0.0172321 0.00742516 0.00529499 -0.000700537 0.000133757 -8.00668e-11 -1.7906e-11 9.85375e-12 5e-05 1.46608e-10 
39 1 0.1193 0.0174932 0.00720795 0.00550169 -0.000334061 0.000282494 1.86344e-11 1.37259e-11 -4.55172e-12 5e-05 1.46608e-10 
41 1 0.113046 0.0164728 0.00793329 0.00571758 -0.00080452 0.000173496 -8.02409e-11 1.0068e-10 -7.3868e-11 5e-05 1.46608e-10 
42 1 0.113211 0.0171255 0.007501 0.00527929 -0.000674262 0.000118277 -1.97559e-10 -6.09632e-12 1.51637e-11 5e-05 1.46608e-10 
44 1 0.113438 0.0173386 0.00734937 0.00528246 -0.000688989 0.000127346 -1.12692e-10 -7.31174e-11 4.93899e-11 5e-05 1.46608e-10 
45 1 0.119165 0.0168463 0.00741853 0.00561302 -0.000514689 -5.09933e-07 -2.49317e-10 -8.98137e-11 9.88812e-11 5e-05 1.46608e-10 
46 1 0.119223 0.0171111 0.00729713 0.00551098 -0.000337994 0.000282999 -1.73179e-11 1.62454e-11 2.66767e-11 5e-05 1.46608e-10 
47 1 0.113089 0.0166357 0.00782531 0.00576505 -0.000802236 0.000172408 2.58288e-10 3.50752e-10 -2.36495e-10 5e-05 1.46608e-10 
48 1 0.113419 0.0172568 0.00740351 0.00529306 -0.000694428 0.000130331 -1.16878e-10 -8.90619e-11 6.46264e-11 5e-05 1.46608e-10 
49 1 0.119203 0.0170156 0.00731941 0.00552541 -0.000338448 0.000277449 3.60075e-11 7.01163e-11 -7.96946e-11 5e-05 1.46608e-10 
50 1 0.113381 0.0174777 0.00726274 0.00538884 -0.000732968 0.000149796 4.93342e-11 1.16097e-11 -1.2723e-11 5e-05 1.46608e-10 
51 1 0.113476 0.0175024 0.0072411 0.00528194 -0.000687573 0.000126381 -9.922e-11 -5.0256e-11 3.77548e-11 5e-05 1.46608e-10 
52 1 0.113444 0.0180419 0.00710362 0.00595864 -0.000819804 0.000359385 5.13781e-11 -1.63209e-11 3.95641e-11 5e-05 1.46608e-10 
53 1 0.119262 0.0173021 0.00725255 0.00550557 -0.000333949 0.000282849 -1.34174e-11 -2.15768e-11 2.0693e-12 5e-05 1.46608e-10 
54 1 0.113099 0.0163329 0.00802065 0.00576161 -0.000795098 0.000167579 1.75177e-10 -1.86543e-10 9.83779e-11 5e-05 1.46608e-10 
55 1 0.10687 0.0157808 0.00837798 0.00613568 0.000317122 0.000485707 4.27683e-11 1.38747e-10 -2.51704e-10 5e-05 1.46608e-10 
56 1 0.113192 0.0170436 0.00755514 0.00529508 -0.000684628 0.000122036 -5.41909e-11 1.30689e-11 -9.96257e-12 5e-05 1.46608e-10 
57 1 0.119146 0.0167749 0.00748617 0.00555957 -0.000514574 -6.96792e-06 2.17673e-10 -8.52888e-11 1.095e-10 5e-05 1.46608e-10 
59 1 0.113362 0.017011 0.00756598 0.00529586 -0.000713786 0.000142523 -2.73245e-10 3.83713e-11 -5.79243e-12 5e-05 1.46608e-10 
60 1 0.113381 0.0170929 0.00751183 0.00529016 -0.000706096 0.000137683 -1.52469e-10 -5.19432e-11 3.79505e-11 5e-05 1.46608e-10 
61 1 0.113068 0.0165542 0.00787932 0.00568847 -0.000795474 0.000171131 3.59947e-10 2.1849e-10 -1.87365e-10 5e-05 1.46608e-10 
62 1 0.113653 0.0180048 0.00707237 0.00595584 -0.00090183 0.000307234 7.15933e-11 1.51651e-11 5.94358e-11 5e-05 1.46608e-10 
63 1 0.1134 0.0171748 0.00745765 0.00529482 -0.000700167 0.000133964 1.75465e-11 -1.09775e-10 7.48891e-11 5e-05 1.46608e-10 
64 1 0.119281 0.0173977 0.00723023 0.00551337 -0.000334254 0.000283204 -2.27785e-11 1.90341e-11 -7.98288e-12 5e-05 1.46608e-10 
65 1 0.107126 0.0167191 0.00761041 0.00555538 2.73393e-05 0.000517387 -5.27084e-11 -8.56343e-11 2.13754e-11 5e-05 1.46608e-10 
66 1 0.107356 0.0176991 0.00729923 0.00590448 -1.78834e-05 0.000566602 -1.01203e-11 2.4421e-11 -3.08453e-12 5e-05 1.46608e-10 
67 1 0.113575 0.0175318 0.00721611 0.00532088 -0.000810197 0.00020037 -8.84562e-11 1.54801e-11 3.06787e-13 5e-05 1.46608e-10 
68 1 0.113362 0.0173959 0.00731688 0.00536143 -0.00071961 0.000142841 -1.35044e-11 2.85834e-11 -1.88621e-11 5e-05 1.46608e-10 
69 1 0.113248 0.016904 0.00764208 0.00527859 -0.000715683 0.000144783 -2.6441e-12 8.47589e-11 -5.69837e-11 5e-05 1.46608e-10 
70 1 0.113367 0.0176966 0.00721935 0.00544309 -0.000736488 0.000163545 1.8028e-11 6.14802e-11 1.44034e-10 5e-05 1.46608e-10 
71 1 0.106853 0.0157533 0.0084727 0.00615372 0.000208011 0.000471289 5.25921e-11 1.03535e-10 -2.63205e-10 5e-05 1.46608e-10 
72 1 0.113558 0.0178346 0.00703526 0.00558308 -0.000785166 0.000106967 6.66107e-11 2.27001e-11 -1.7386e-11 5e-05 1.46608e-10 
73 1 0.113505 0.017886 0.00710257 0.00567768 -0.000901614 0.000276763 1.77315e-12 1.08051e-10 1.95961e-11 5e-05 1.46608e-10 
74 1 0.113522 0.0180843 0.00698938 0.00598487 -0.000795188 0.000332886 2.87946e-11 -2.25668e-11 1.21239e-11 5e-05 1.46608e-10 
76 1 0.107728 0.0185516 0.00687809 0.00648197 0.00114929 0.000133577 1.71749e-10 2.83286e-10 -1.02859e-12 5e-05 1.46608e-10 
77 1 0.113462 0.0182388 0.00699997 0.0059628 -0.000812028 0.00032666 6.25537e-12 -3.23848e-12 3.71049e-11 5e-05 1.46608e-10 
78 1 0.106945 0.015962 0.00803912 0.00569335 -0.000365825 -6.29527e-05 -1.94943e-10 -9.05007e-11 1.09859e-10 5e-05 1.46608e-10 
79 1 0.107184 0.0169912 0.00749873 0.00544228 7.07729e-05 0.0004877 1.72173e-11 -4.82668e-11 2.67526e-11 5e-05 1.46608e-10 
80 1 0.113409 0.0178621 0.00711509 0.00565038 -0.000785238 0.000207498 -2.34718e-11 1.49571e-11 1.62993e-10 5e-05 1.46608e-10 
81 1 0.107106 0.0166292 0.00764929 0.0055517 1.81312e-05 0.000521811 4.60759e-11 -1.58638e-11 2.63306e-12 5e-05 1.46608e-10 
82 1 0.107145 0.0168098 0.00757322 0.00540312 5.74188e-05 0.000489904 -3.53335e-11 -1.26325e-10 4.29014e-11 5e-05 1.46608e-10 
83 1 0.107046 0.0163642 0.00777403 0.00576663 -0.000191084 0.000257029 2.45058e-11 1.35735e-10 2.04428e-11 5e-05 1.46608e-10 
84 1 0.11938 0.017875 0.00711889 0.00588602 -0.000408091 0.000314568 -2.18771e-12 -1.83021e-12 1.47944e-13 5e-05 1.46608e-10 
85 1 0.112941 0.0160655 0.00820327 0.00587257 -0.000801749 0.000164863 -1.43316e-12 -6.9497e-11 4.16717e-11 5e-05 1.46608e-10 
86 1 0.11342 0.0176415 0.00715446 0.00543799 -0.000749066 0.00015905 5.04388e-11 5.40598e-11 4.43196e-13 5e-05 1.46608e-10 
87 1 0.113518 0.0172861 0.00737854 0.00519856 -0.000784021 0.000194378 -2.06266e-11 4.19169e-11 -2.54563e-11 5e-05 1.46608e-10 
88 1 0.113605 0.0182596 0.00701159 0.00595775 -0.000782463 0.000326255 3.55114e-12 -5.61118e-12 1.61759e-12 5e-05 1.46608e-10 
89 1 0.113459 0.017805 0.00704636 0.00550535 -0.000741134 0.000194994 -4.10609e-11 -7.06653e-11 6.49277e-13 5e-05 1.46608e-10 
90 1 0.113655 0.0178584 0.00699988 0.00578889 -0.000902117 0.000233504 1.84911e-11 -7.37989e-11 -9.68343e-11 5e-05 1.46608e-10 
91 1 0.113287 0.017453 0.00728443 0.00537007 -0.000692614 0.000123975 -1.27859e-10 -1.11397e-10 2.35917e-11 5e-05 1.46608e-10 
92 1 0.113685 0.0181991 0.00701117 0.00593296 -0.000810859 0.000321765 -3.44745e-12 -1.01089e-11 3.67189e-13 5e-05 1.46608e-10 
93 1 0.113419 0.0180453 0.00700695 0.00596915 -0.000771923 0.000359247 -2.28814e-11 -1.13317e-10 7.09283e-11 5e-05 1.46608e-10 
94 1 0.113439 0.0177233 0.00710033 0.005462 -0.000754434 0.000159691 -4.08656e-11 -2.06172e-11 1.71013e-11 5e-05 1.46608e-10 
95 1 0.113344 0.0176987 0.00712201 0.00546008 -0.000721595 0.000142722 3.09045e-11 8.10327e-11 -2.65838e-11 5e-05 1.46608e-10 
96 1 0.113384 0.0178648 0.00701824 0.00551888 -0.000679376 0.000248597 1.70469e-10 -1.44102e-11 4.02883e-11 5e-05 1.46608e-10 
97 1 0.107299 0.0171146 0.00745643 0.00546142 5.57148e-05 0.000496922 -1.42578e-10 -7.65652e-11 3.63037e-11 5e-05 1.46608e-10 
98 1 0.113576 0.0183549 0.00701876 0.00594125 -0.000789659 0.000324416 -7.20607e-12 -1.53211e-11 -1.75563e-12 5e-05 1.46608e-10 
99 1 0.107204 0.017082 0.00746151 0.00545237 5.90725e-05 0.000494554 -1.33244e-11 9.02659e-11 -2.00764e-11 5e-05 1.46608e-10 
100 1 0.113623 0.018121 0.00699956 0.00594797 -0.000824572 0.00032131 -1.00737e-11 5.61958e-12 1.67074e-11 5e-05 1.46608e-10 
101 1 0.10716 0.0164798 0.00771685 0.00554884 5.32028e-06 0.000526515 4.47428e-12 1.35558e-11 -1.36905e-11 5e-05 1.46608e-10 
102 1 0.0694385 0.0202053 0.00537268 3.92232e-15 4.51873e-15 -7.68254e-14 7.86093e-22 -2.10481e-21 -8.04433e-23 5e-05 1.46608e-10 
104 1 0.107259 0.0169332 0.00753087 0.00542382 5.56598e-05 0.000493113 -2.40556e-10 7.73608e-12 -2.45145e-11 5e-05 1.46608e-10 
105 1 0.107005 0.0162001 0.00788088 0.00571414 -0.000362101 -5.18887e-05 1.64956e-10 -1.50825e-10 -5.40462e-11 5e-05 1.46608e-10 
106 1 0.107358 0.0173868 0.00734477 0.00573534 2.74101e-05 0.000532238 -1.95911e-10 -4.99366e-10 3.19653e-10 5e-05 1.46608e-10 
107 1 0.106969 0.0160546 0.00801039 0.00574045 -0.000370729 -5.16657e-05 -1.7307e-10 -1.07307e-10 2.06565e-11 5e-05 1.46608e-10 
108 1 0.113137 0.016818 0.00781533 0.00605196 -0.000849959 0.000194379 -2.36394e-11 -4.21637e-11 -1.38859e-10 5e-05 1.46608e-10 
109 1 0.113306 0.0175349 0.00723029 0.00540493 -0.00070526 0.000129254 -7.78537e-11 5.13099e-11 -7.76391e-11 5e-05 1.46608e-10 
110 1 0.113364 0.0177806 0.00706802 0.00548453 -0.000703696 0.000187784 1.0139e-10 1.0483e-11 -4.03066e-11 5e-05 1.46608e-10 
111 1 0.113546 0.0186171 0.00704182 0.00589183 -0.000802014 0.00031973 -5.9226e-12 -1.85183e-11 -2.44546e-12 5e-05 1.46608e-10 
112 1 0.107065 0.0164472 0.00772185 0.00553868 1.3676e-05 0.000514449 1.07289e-10 1.03556e-10 -2.88931e-11 5e-05 1.46608e-10 
113 1 0.107373 0.0170566 0.00748858 0.0054319 4.57961e-05 0.000497533 -1.10252e-12 -1.6046e-10 7.17233e-11 5e-05 1.46608e-10 
115 1 0.113325 0.0176168 0.00717615 0.00543409 -0.000720856 0.000139279 1.52147e-10 2.21795e-11 -3.96451e-11 5e-05 1.46608e-10 
116 1 0.113343 0.0169291 0.00762013 0.0053039 -0.000716791 0.000143945 -2.13599e-10 4.0225e-11 -1.55662e-11 5e-05 1.46608e-10 
117 1 0.113206 0.0167403 0.00775055 0.00615299 -0.000761628 0.000121114 7.20471e-11 3.96391e-11 -1.9855e-11 5e-05 1.46608e-10 
118 1 0.106908 0.015841 0.00819104 0.00565051 0.000307021 0.000382808 -4.3976e-10 -1.03084e-11 -1.41766e-10 5e-05 1.46608e-10 
119 1 0.113594 0.0176136 0.00716198 0.00545022 -0.000835508 0.000210595 -6.78892e-11 -1.20096e-11 5.82433e-12 5e-05 1.46608e-10 
120 1 0.112962 0.016147 0.00814928 0.00584244 -0.000799787 0.000165133 -9.51484e-12 -1.72974e-10 1.09841e-10 5e-05 1.46608e-10 
121 1 0.113057 0.01617 0.00812865 0.00583354 -0.000775353 0.00014985 -1.23481e-11 -1.03096e-10 7.01271e-11 5e-05 1.46608e-10 
122 1 0.113482 0.0178932 0.00700547 0.00577116 -0.00077527 0.000268908 -3.21274e-11 -6.84133e-11 7.6768e-12 5e-05 1.46608e-10 
123 1 0.107025 0.0162819 0.00782704 0.00574144 -0.000314466 4.03214e-05 2.28654e-11 3.62604e-11 1.72959e-11 5e-05 1.46608e-10 
124 1 0.113425 0.0179512 0.0070655 0.00552362 -0.000715067 0.000309708 -2.26565e-11 3.29236e-11 -5.02728e-11 5e-05 1.46608e-10 
125 1 0.113078 0.0162514 0.00807465 0.00580045 -0.000791765 0.00016278 -7.37648e-11 -3.33483e-10 2.3048e-10 5e-05 1.46608e-10 
126 1 0.113268 0.0173711 0.00733857 0.00534724 -0.000685691 0.000121179 7.40788e-11 -4.98347e-11 2.27552e-11 5e-05 1.46608e-10 
127 1 0.107593 0.0179476 0.00721599 0.00602177 -7.25518e-05 0.000612425 -2.55424e-10 -1.88626e-11 -4.09197e-11 5e-05 1.46608e-10 
128 1 0.113535 0.0177477 0.00707878 0.00530483 -0.000692812 0.000132538 4.91975e-11 -3.10364e-12 1.53398e-11 5e-05 1.46608e-10 
129 1 0.113402 0.0179496 0.00696825 0.00553005 -0.000654118 0.000306919 1.80196e-11 3.24154e-13 -1.25624e-13 5e-05 1.46608e-10 
131 1 0.107279 0.0170239 0.00749365 0.00544806 5.30426e-05 0.000496446 -9.02704e-11 -5.99437e-11 1.5755e-11 5e-05 1.46608e-10 
132 1 0.113584 0.0179276 0.00700891 0.00584232 -0.00083204 0.000204207 5.02277e-11 -5.86816e-12 -8.19396e-12 5e-05 1.46608e-10 
133 1 0.113163 0.0165772 0.00785868 0.0057061 -0.000760035 0.000147962 8.33957e-10 -4.53142e-10 2.33824e-10 5e-05 1.46608e-10 
134 1 0.11375 0.0178887 0.00698582 0.00581482 -0.000931094 0.000304773 2.50361e-11 7.40342e-11 2.55349e-11 5e-05 1.46608e-10 
135 1 0.113281 0.0166827 0.00778333 0.00653242 -0.000418815 -0.000123409 1.81676e-10 -2.41262e-10 1.60025e-10 5e-05 1.46608e-10 
136 1 0.106928 0.0158898 0.00810608 0.005498 -0.0001813 7.3804e-05 -4.47858e-10 3.34446e-11 1.22009e-11 5e-05 1.46608e-10 
137 1 0.113482 0.0183274 0.00704159 0.00594476 -0.000808013 0.000326316 2.80236e-11 -4.71043e-12 2.9202e-11 5e-05 1.46608e-10 
138 1 0.113544 0.0181814 0.00699999 0.00597441 -0.000793545 0.000327095 9.64237e-12 -1.54461e-11 6.76537e-12 5e-05 1.46608e-10 
140 1 0.113401 0.0175596 0.0072086 0.00541544 -0.000741498 0.000153422 7.83064e-11 4.04063e-11 -3.04969e-11 5e-05 1.46608e-10 
141 1 0.1071 0.0162236 0.00786075 0.00570406 -0.000348118 -6.63219e-05 2.46966e-10 -4.37617e-11 7.16265e-12 5e-05 1.46608e-10 
142 1 0.1072 0.0166611 0.00764254 0.00555912 3.41829e-05 0.000515242 -1.47555e-10 -1.40765e-10 3.93538e-11 5e-05 1.46608e-10 
143 1 0.106984 0.0161186 0.00793503 0.00573107 -0.000361643 -4.81401e-05 2.22002e-11 -1.2428e-10 9.84253e-12 5e-05 1.46608e-10 
146 1 0.107275 0.016603 0.00767471 0.00554433 6.57446e-05 0.00049988 -1.20968e-10 -8.63675e-13 -5.79663e-12 5e-05 1.46608e-10 
147 1 0.10689 0.0158112 0.00828482 0.00616362 0.000385043 0.0005061 -1.50417e-10 2.27595e-10 -8.61231e-11 5e-05 1.46608e-10 
148 1 0.00854019 0.0178169 0.00779368 0.000463758 0.0139569 -0.00942507 2.83037e-13 -4.12284e-11 -3.70686e-11 5e-05 1.46608e-10 
149 1 0.113602 0.0180239 0.00698882 0.00596174 -0.000828851 0.000322778 7.55909e-11 -3.08616e-12 1.36086e-11 5e-05 1.46608e-10 
150 1 0.107181 0.0165704 0.00767972 0.00554791 6.81729e-06 0.000525421 2.67379e-11 -1.61019e-11 3.2744e-12 5e-05 1.46608e-10 
151 1 0.107684 0.0176651 0.00725598 0.00596648 -9.67359e-05 0.000610285 -4.23067e-11 3.25536e-11 -1.88623e-11 5e-05 1.46608e-10 
153 1 0.107256 0.0165122 0.00771193 0.00563866 5.0586e-05 0.000516245 -4.58745e-11 -7.27746e-12 -4.48597e-12 5e-05 1.46608e-10 
154 1 0.107399 0.0175679 0.00727062 0.00587368 -4.06099e-06 0.00056154 -1.76089e-11 8.52451e-12 -4.17705e-12 5e-05 1.46608e-10 
155 1 0.10143 0.017689 0.00711429 0.00569182 0.000435259 -0.000100159 -2.69019e-11 -4.87265e-11 9.21762e-12 5e-05 1.46608e-10 
156 1 0.107283 0.0174448 0.00731263 0.00578062 2.89811e-05 0.000537561 4.84596e-11 5.5457e-11 -5.20125e-11 5e-05 1.46608e-10 
157 1 0.10746 0.0178396 0.0071594 0.00599681 -3.6415e-05 0.00058732 -3.35714e-11 4.13468e-11 -2.30529e-11 5e-05 1.46608e-10 
158 1 0.107508 0.0172705 0.00740919 0.00563558 -3.32568e-05 0.000551381 -1.11027e-10 3.14964e-11 -2.50904e-11 5e-05 1.46608e-10 
159 1 0.113598 0.0184524 0.00702956 0.00592227 -0.00079023 0.000322914 -2.10468e-12 -8.88252e-12 -2.72487e-12 5e-05 1.46608e-10 
160 1 0.107365 0.0178071 0.00716434 0.00595691 -2.05283e-05 0.00057603 4.5107e-11 3.84742e-11 -8.15166e-12 5e-05 1.46608e-10 
162 1 0.107318 0.0172053 0.00741921 0.00547585 5.98798e-05 0.000496708 1.7223e-11 -1.70631e-11 1.7328e-11 5e-05 1.46608e-10 
163 1 0.107528 0.0173611 0.00737204 0.00576535 -5.08739e-05 0.000571238 4.80797e-11 -7.91542e-12 7.34686e-12 5e-05 1.46608e-10 
164 1 0.10758 0.0179622 0.00711796 0.00602522 -6.94888e-05 0.000608684 -2.81214e-11 2.66496e-11 -4.56015e-11 5e-05 1.46608e-10 
165 1 0.107448 0.0169984 0.00752077 0.00539082 4.57574e-06 0.000511756 -9.49564e-11 6.43191e-11 -3.66338e-11 5e-05 1.46608e-10 
166 1 0.112898 0.0159026 0.00831127 0.00593172 -0.000817064 0.000171061 1.02486e-11 4.1634e-11 -2.61892e-11 5e-05 1.46608e-10 
167 1 0.107295 0.0166937 0.00763751 0.0054329 8.1195e-05 0.00048271 -2.33145e-11 -3.71023e-11 1.17618e-11 5e-05 1.46608e-10 
168 1 0.107419 0.0176585 0.00723355 0.00591131 -1.39262e-05 0.000568955 -5.84785e-11 3.71862e-11 -2.62325e-11 5e-05 1.46608e-10 
169 1 0.107569 0.0175422 0.00729793 0.00584365 -5.39932e-05 0.000580158 3.07793e-11 3.88113e-11 -1.50754e-11 5e-05 1.46608e-10 
170 1 0.107494 0.0176004 0.0072657 0.00589973 -3.0724e-05 0.00057548 -5.60017e-11 2.31883e-11 -1.89538e-11 5e-05 1.46608e-10 
171 1 0.113304 0.0167651 0.00772861 0.00737859 0.000211215 -0.000581444 -3.95866e-11 7.7684e-11 -4.72891e-11 5e-05 1.46608e-10 
172 1 0.107742 0.0179498 0.0071388 0.00610341 -0.000175805 0.000656922 -4.227e-10 2.15213e-10 -1.29854e-10 5e-05 1.46608e-10 
173 1 0.113556 0.0174498 0.00727026 0.00519261 -0.000783744 0.000193376 4.05161e-13 8.65528e-12 -2.31376e-12 5e-05 1.46608e-10 
174 1 0.107396 0.0178846 0.00722583 0.0059755 -5.99528e-05 0.000585596 -1.073e-10 -1.47561e-11 -2.49862e-11 5e-05 1.46608e-10 
175 1 0.104259 0.0175275 0.00707644 0.00594364 0.000852221 -0.000353693 -2.1203e-13 2.14732e-14 2.93263e-14 5e-05 1.46608e-10 
176 1 0.107263 0.0173541 0.00734984 0.00546081 5.69276e-05 0.000494986 -1.02394e-10 4.37454e-11 -6.07467e-11 5e-05 1.46608e-10 
177 1 0.107802 0.0181587 0.00705452 0.00669845 0.000721787 0.000328023 -6.41462e-11 2.54327e-10 -1.12151e-10 5e-05 1.46608e-10 
178 1 0.107729 0.0178457 0.00718238 0.0059886 -0.000105168 0.000615278 -8.57364e-11 1.24332e-10 -5.56624e-11 5e-05 1.46608e-10 
179 1 0.101277 0.0173718 0.00719116 0.00573934 0.000420479 -9.61378e-05 7.74208e-12 -1.86872e-11 2.67405e-12 5e-05 1.46608e-10 
180 1 0.107432 0.0173287 0.00737692 0.00571062 2.16356e-05 0.000535497 2.9568e-10 -2.03203e-10 5.24828e-11 5e-05 1.46608e-10 
181 1 0.107473 0.0175099 0.00730277 0.00585647 -2.513e-05 0.000568875 -3.08572e-11 -8.91436e-12 -1.09355e-12 5e-05 1.46608e-10 
182 1 0.11348 0.0171223 0.00748682 0.00521261 -0.000786919 0.000194991 1.6018e-10 8.71058e-12 -1.23768e-11 5e-05 1.46608e-10 
183 1 0.107589 0.0176328 0.00726083 0.00590486 -6.34594e-05 0.000590013 4.59755e-11 1.73508e-11 -1.37113e-12 5e-05 1.46608e-10 
184 1 0.11344 0.0181415 0.00698921 0.00598771 -0.000789304 0.000327724 2.08124e-11 1.22393e-11 -3.43595e-12 5e-05 1.46608e-10 
185 1 0.107303 0.0175354 0.00727556 0.00582945 1.4622e-05 0.000546855 1.61762e-10 2.50083e-10 -5.22825e-11 5e-05 1.46608e-10 
186 1 0.107338 0.0172961 0.00738199 0.00546517 5.01501e-05 0.00050062 -1.44065e-10 1.32923e-10 -8.55025e-11 5e-05 1.46608e-10 
187 1 0.113499 0.0172042 0.00743267 0.00520981 -0.0007866 0.000194511 -8.17922e-11 5.40394e-11 -3.22479e-11 5e-05 1.46608e-10 
188 1 0.113496 0.0179885 0.0069783 0.00594208 -0.000784081 0.00032431 1.16809e-12 -5.48142e-11 1.46628e-11 5e-05 1.46608e-10 
189 1 0.113185 0.0166585 0.00780475 0.00583546 -0.000807345 0.000170543 -2.0139e-10 -7.79251e-11 6.97714e-11 5e-05 1.46608e-10 
190 1 0.107794 0.0184852 0.00691304 0.00634351 0.0010055 0.000170521 -4.62249e-10 1.03794e-10 -5.40109e-11 5e-05 1.46608e-10 
191 1 0.113503 0.018423 0.00702034 0.0059283 -0.000806401 0.000322108 2.51931e-12 -7.21552e-12 1.5049e-12 5e-05 1.46608e-10 
192 1 0.107378 0.0174773 0.0073077 0.00581601 6.50438e-07 0.000553372 -5.11493e-11 -2.91888e-10 9.74063e-11 5e-05 1.46608e-10 
193 1 0.113524 0.01852 0.00703108 0.00591008 -0.000804153 0.000320719 -3.3057e-12 -1.19861e-11 -2.2796e-12 5e-05 1.46608e-10 
194 1 0.10722 0.0167517 0.00760535 0.00539864 5.32809e-05 0.000491615 2.78309e-11 -6.70909e-11 2.8623e-11 5e-05 1.46608e-10 
195 1 0.107515 0.017691 0.00722862 0.00594878 -4.05331e-05 0.000584414 7.37161e-12 1.21985e-11 -8.28445e-12 5e-05 1.46608e-10 
196 1 0.10679 0.0156605 0.00875084 0.0058624 0.000295883 0.000469402 1.48408e-10 -8.54569e-11 2.77611e-10 5e-05 1.46608e-10 
197 1 0.107472 0.018006 0.00718656 0.00600136 -1.97092e-06 0.000557883 2.05026e-10 1.32556e-10 -1.69038e-10 5e-05 1.46608e-10 
198 1 0.107224 0.0171727 0.00742428 0.00545521 5.06472e-05 0.000498249 2.2264e-10 3.75094e-10 -1.12029e-10 5e-05 1.46608e-10 
199 1 0.107344 0.0177165 0.00720141 0.00591276 -1.16502e-05 0.000567927 -4.92151e-11 1.97788e-11 -1.62275e-11 5e-05 1.46608e-10 
200 1 0.10724 0.0168425 0.00756811 0.00540929 5.27237e-05 0.00049292 -2.52445e-10 7.91993e-11 -5.71366e-11 5e-05 1.46608e-10 
201 1 0.1077 0.0184507 0.00691894 0.00647505 0.000677145 0.000324195 1.15806e-10 -2.48911e-11 4.30556e-11 5e-05 1.46608e-10 
203 1 0.113677 0.0179573 0.00698749 0.00585337 -0.000796887 0.000316334 7.99679e-12 -1.18152e-11 -2.57448e-11 5e-05 1.46608e-10 
204 1 0.107354 0.0169658 0.0075258 0.00540108 6.00478e-05 0.000488795 2.68029e-10 -2.82909e-11 3.28066e-11 5e-05 1.46608e-10 
205 1 0.107434 0.0181073 0.00717483 0.0060521 -0.000147197 0.000540457 4.60971e-11 -3.64002e-11 -1.62162e-10 5e-05 1.46608e-10 
206 1 0.10744 0.0177491 0.00719647 0.00596187 -2.00882e-05 0.000576732 3.65352e-11 2.86217e-11 -1.28603e-11 5e-05 1.46608e-10 
207 1 0.107236 0.0164216 0.00774908 0.00573626 3.21443e-05 0.000533499 4.37979e-11 -5.34846e-11 -3.5785e-11 5e-05 1.46608e-10 
208 1 0.107324 0.0176259 0.00723848 0.00587299 -2.54907e-06 0.000560806 3.55597e-11 6.65403e-11 -2.15767e-11 5e-05 1.46608e-10 
209 1 0.101296 0.0174671 0.00716803 0.00572656 0.000423002 -9.71379e-05 -7.02506e-12 -1.64598e-11 2.48539e-12 5e-05 1.46608e-10 
210 1 0.11292 0.015984 0.00825727 0.00590259 -0.00080854 0.000167315 -1.32163e-12 6.52444e-12 -5.16054e-12 5e-05 1.46608e-10 
211 1 0.113494 0.0181322 0.0070727 0.00598521 -0.000784516 0.000329477 7.61775e-11 1.34522e-11 -2.24181e-12 5e-05 1.46608e-10 
212 1 0.107707 0.0177553 0.00721926 0.00597972 -9.90194e-05 0.000612575 1.02009e-10 -1.96298e-11 1.78047e-11 5e-05 1.46608e-10 
213 1 0.113638 0.0177763 0.00705408 0.00570176 -0.00088775 0.000231716 1.28903e-14 -3.18762e-11 5.01509e-12 5e-05 1.46608e-10 
214 1 0.113543 0.0179992 0.0070658 0.00596009 -0.000845874 0.000318235 2.72983e-11 6.70187e-11 2.17723e-11 5e-05 1.46608e-10 
215 1 0.107413 0.017238 0.00741414 0.00523085 0.000130664 0.000442029 -7.15395e-10 5.60416e-10 -3.04806e-10 5e-05 1.46608e-10 
216 1 0.107488 0.0171798 0.00744635 0.0055083 -1.29313e-05 0.00053046 1.78042e-10 6.59993e-12 1.45897e-11 5e-05 1.46608e-10 
217 1 0.113324 0.0168472 0.00767426 0.00529767 -0.000716028 0.000144115 -5.81388e-11 4.48e-11 -2.62774e-11 5e-05 1.46608e-10 
218 1 0.107558 0.0178718 0.00715482 0.00597657 -7.25699e-05 0.000601329 -4.07741e-11 8.46648e-12 -2.84888e-11 5e-05 1.46608e-10 
219 1 0.113527 0.0182448 0.00707558 0.0059559 -0.000799663 0.000328713 1.68061e-11 -1.04559e-11 1.82897e-11 5e-05 1.46608e-10 
220 1 0.107393 0.0171473 0.00745136 0.00551107 8.15029e-05 0.000489632 2.06468e-10 1.01791e-10 -1.62807e-11 5e-05 1.46608e-10 
221 1 0.101182 0.0169323 0.00738396 0.00565872 0.000262632 -0.000279604 5.20654e-11 3.14929e-12 4.52517e-12 5e-05 1.46608e-10 
222 1 0.113111 0.016717 0.00777143 0.00589984 -0.000808822 0.000170744 -9.50047e-11 3.01325e-10 -1.9646e-10 5e-05 1.46608e-10 
223 1 0.107453 0.0174193 0.00733985 0.00580981 -7.20803e-06 0.000556481 2.41474e-10 -1.66871e-10 1.01266e-10 5e-05 1.46608e-10 
224 1 0.107243 0.0172634 0.00738706 0.00544893 4.16493e-05 0.000501704 2.5133e-11 1.4609e-10 -7.55065e-11 5e-05 1.46608e-10 
225 1 0.113615 0.0176951 0.00710796 0.00558387 -0.000862796 0.00022192 -8.93994e-11 -1.65805e-11 1.02071e-11 5e-05 1.46608e-10 
226 1 0.107468 0.0170891 0.00748355 0.00543103 1.45015e-06 0.000516825 1.26679e-10 -2.85894e-11 2.24429e-11 5e-05 1.46608e-10 
227 1 0.101238 0.0171812 0.00723764 0.00575558 0.000421369 -7.11412e-05 -6.64861e-12 -1.04926e-11 3.90056e-12 5e-05 1.46608e-10 
228 1 0.0507861 0.0189683 0.00558458 -5.33717e-15 -1.91151e-14 -2.87013e-13 -1.61733e-22 1.89218e-23 1.65436e-24 5e-05 1.46608e-10 
229 1 0.10706 0.0160604 0.00796917 0.0057248 -0.000341279 -7.58055e-05 2.62021e-12 -2.52627e-10 1.78341e-10 5e-05 1.46608e-10 
230 1 0.107458 0.0181764 0.00710683 0.0061334 -0.000108671 0.000620473 5.94996e-11 3.3656e-11 -1.13652e-10 5e-05 1.46608e-10 
231 1 0.197479 0.018695 0.00523156 -1.09702e-15 -2.6983e-14 1.45243e-13 -8.3395e-23 -7.13443e-24 -2.48154e-24 5e-05 1.46608e-10 
232 1 0.10708 0.016142 0.00791495 0.00570129 -0.000336685 -6.97949e-05 4.58749e-10 -2.01536e-10 7.47133e-11 5e-05 1.46608e-10 
233 1 0.107334 0.0168751 0.00756304 0.0054069 5.8399e-05 0.000490001 -2.07973e-10 2.11369e-10 -1.08128e-10 5e-05 1.46608e-10 
234 1 0.112856 0.0157396 0.00841926 0.00599034 -0.000832177 0.000177297 1.74592e-11 7.13929e-11 -4.62688e-11 5e-05 1.46608e-10 
235 1 0.107625 0.0185079 0.00688708 0.00625893 0.000442441 0.000406162 1.10307e-10 -4.49512e-11 1.00734e-10 5e-05 1.46608e-10 
236 1 0.107647 0.0186096 0.0068758 0.00621264 0.000762308 -0.000354277 -1.07821e-10 -1.2166e-10 -3.82624e-11 5e-05 1.46608e-10 
237 1 0.10753 0.0182491 0.00698954 0.0061941 -0.000198851 0.000666264 -6.42476e-11 -7.64808e-11 8.63561e-11 5e-05 1.46608e-10 
238 1 0.101316 0.0175624 0.00714491 0.00571485 0.000425071 -9.76871e-05 -1.25601e-11 -7.65114e-12 3.98911e-12 5e-05 1.46608e-10 
239 1 0.101087 0.0165528 0.0076953 0.00565207 0.000259431 -0.000306628 1.88738e-11 -5.94168e-12 -1.3286e-11 5e-05 1.46608e-10 
240 1 0.101162 0.0168562 0.0074458 0.0056318 0.000253095 -0.000300765 -9.98507e-12 2.74113e-11 -1.00223e-11 5e-05 1.46608e-10 
241 1 0.101106 0.0166286 0.00763295 0.0056843 0.000249654 -0.000299555 -1.78069e-11 -2.84911e-11 1.85898e-11 5e-05 1.46608e-10 
242 1 0.101411 0.0175937 0.00713741 0.0057115 0.000434418 -9.99916e-05 -2.06399e-11 -4.9795e-11 8.99688e-12 5e-05 1.46608e-10 
243 1 0.101068 0.016477 0.00775764 0.00562289 0.000267396 -0.000312304 3.50567e-11 4.71245e-11 -3.19009e-11 5e-05 1.46608e-10 
244 1 0.101125 0.0167044 0.0075706 0.00562477 0.000256855 -0.00030393 4.90169e-12 -8.26059e-12 8.01715e-12 5e-05 1.46608e-10 
245 1 0.101335 0.0176578 0.00712179 0.00569878 0.00042889 -9.87933e-05 1.08761e-11 9.73279e-12 1.3959e-12 5e-05 1.46608e-10 
246 1 0.101202 0.0170087 0.00732262 0.00569326 0.000316952 -0.000200698 9.16666e-12 -3.53224e-12 7.47087e-12 5e-05 1.46608e-10 
247 1 0.10761 0.0177234 0.00722374 0.00597623 -7.54494e-05 0.00060191 -6.49132e-11 7.36295e-12 -1.0369e-11 5e-05 1.46608e-10 
248 1 0.107654 0.017904 0.00715016 0.00600345 -9.14953e-05 0.000611662 -7.83912e-11 -5.60592e-12 1.61791e-11 5e-05 1.46608e-10 
249 1 0.101376 0.0178481 0.00707562 0.00617517 0.000322401 -7.24248e-05 9.7048e-12 3.0047e-11 -2.11278e-12 5e-05 1.46608e-10 