ITEM: TIMESTEP
13600000
ITEM: NUMBER OF ATOMS
284
ITEM: BOX BOUNDS ff ff ff
-0.02 0.43
-0.02 0.06
-0.02 0.07
ITEM: ATOMS id type x y z vx vy vz fx fy fz radius mass 
1 1 0.0921077 0.0162557 0.00792156 0.00587432 0.000470307 -6.39026e-05 1.16172e-10 -4.01194e-11 2.45013e-11 5e-05 1.46608e-10 
2 1 0.0925368 0.0172634 0.00728071 0.00575391 0.000307887 -0.000466635 2.65192e-11 -4.83357e-11 6.74225e-11 5e-05 1.46608e-10 
3 1 0.0861338 0.0163161 0.00775453 0.00571793 -0.00010141 -9.04228e-05 1.36374e-09 -1.69681e-09 2.44015e-09 5e-05 1.46608e-10 
4 1 0.092504 0.0175482 0.00707915 0.00584849 0.000312793 -0.000480443 -2.49203e-10 -9.1902e-11 8.22541e-12 5e-05 1.46608e-10 
5 1 0.0920127 0.0162276 0.00793527 0.00586276 0.000465119 -6.05836e-05 5.33009e-11 -8.17003e-11 6.32456e-11 5e-05 1.46608e-10 
6 1 0.0981316 0.0166998 0.00757648 0.00551951 8.2073e-05 -4.91125e-05 5.99836e-12 1.15026e-10 -1.21113e-10 5e-05 1.46608e-10 
7 1 0.0921448 0.0166678 0.00767082 0.00553183 0.00057597 -0.000142957 1.65183e-11 -7.13949e-11 1.48443e-11 5e-05 1.46608e-10 
8 1 0.0920255 0.0159213 0.00812497 0.00585896 0.000472759 -6.86174e-05 -1.15904e-10 2.05959e-11 -6.58364e-11 5e-05 1.46608e-10 
9 1 0.0983622 0.0177464 0.0071016 0.00609101 -4.22138e-05 1.00198e-06 -4.9168e-11 -3.97817e-11 8.14095e-12 5e-05 1.46608e-10 
10 1 0.0921369 0.0167514 0.00761652 0.00556217 0.000578132 -0.000138707 3.75243e-11 -1.38926e-11 1.90998e-11 5e-05 1.46608e-10 
11 1 0.0922515 0.0168647 0.00755094 0.00560195 0.000536346 -0.000116342 -2.12002e-11 -2.42471e-11 -3.3989e-12 5e-05 1.46608e-10 
12 1 0.0923296 0.0171951 0.0073385 0.00571772 0.000322108 -0.000474384 2.01362e-10 -6.53476e-11 -3.72323e-10 5e-05 1.46608e-10 
13 1 0.0923252 0.0175682 0.00718816 0.0057052 0.000187352 -0.000316958 -1.1472e-10 -1.66274e-10 3.57306e-10 5e-05 1.46608e-10 
14 1 0.0858395 0.015656 0.00852194 0.00609133 5.1733e-05 0.000268833 -4.68706e-11 -9.29046e-11 1.19459e-10 5e-05 1.46608e-10 
15 1 0.0922341 0.01717 0.00736094 0.00569479 0.000427861 -0.000378649 6.93452e-11 4.83613e-10 1.90699e-10 5e-05 1.46608e-10 
16 1 0.0858178 0.0155899 0.00859373 0.00610038 5.53665e-05 0.000266266 -4.43785e-11 -1.12308e-10 8.71898e-11 5e-05 1.46608e-10 
17 1 0.0924356 0.0175078 0.00721323 0.0056789 0.000327964 -0.000361092 -1.16038e-10 -1.3565e-10 -6.45889e-11 5e-05 1.46608e-10 
18 1 0.0982642 0.0172705 0.00721925 0.00568806 6.14832e-05 -2.53708e-05 -8.90965e-11 1.05223e-11 5.52473e-13 5e-05 1.46608e-10 
19 1 0.0919716 0.0160603 0.00803697 0.00587027 0.000477355 -6.57062e-05 2.69095e-11 9.50232e-11 3.17991e-11 5e-05 1.46608e-10 
20 1 0.0924178 0.0174274 0.00726988 0.00573015 0.000251297 -0.000447363 9.16158e-12 -5.15031e-11 8.71664e-12 5e-05 1.46608e-10 
21 1 0.0919921 0.016144 0.00798612 0.00586565 0.000467849 -6.32366e-05 3.96094e-11 -2.66248e-11 6.74664e-12 5e-05 1.46608e-10 
22 1 0.0922908 0.0170327 0.00744874 0.00564432 0.000605606 -0.000155646 -1.65909e-10 1.76266e-10 -1.72826e-10 5e-05 1.46608e-10 
23 1 0.0861745 0.0168966 0.00746925 0.00557528 0.000117427 0.000199512 -8.86932e-11 -2.61487e-11 1.4355e-11 5e-05 1.46608e-10 
24 1 0.0983421 0.0176513 0.00712511 0.00555957 6.38181e-05 -2.44909e-05 -1.08102e-10 6.77399e-11 -1.88581e-11 5e-05 1.46608e-10 
25 1 0.0922395 0.0166957 0.00765486 0.00556203 0.000547825 -0.000124005 1.00569e-10 -1.73899e-10 1.04125e-10 5e-05 1.46608e-10 
26 1 0.0982065 0.016999 0.00732181 0.00565557 5.38516e-05 -3.01435e-05 4.38846e-11 -1.38694e-10 1.5108e-10 5e-05 1.46608e-10 
27 1 0.0860965 0.016532 0.00761407 0.00555687 5.86942e-05 0.000209246 -4.96984e-11 -1.66664e-11 1.7055e-10 5e-05 1.46608e-10 
28 1 0.0922983 0.0173378 0.00734373 0.00578431 0.000329761 -0.000512536 -1.12189e-10 -3.85252e-11 -1.81818e-10 5e-05 1.46608e-10 
29 1 0.0921281 0.0163396 0.0078705 0.00582821 0.000535004 -0.000105327 -8.28601e-11 -7.97014e-11 4.71621e-11 5e-05 1.46608e-10 
30 1 0.0924913 0.0174674 0.00713731 0.00580063 0.00039216 -0.00053178 1.19499e-10 2.7868e-11 7.08502e-11 5e-05 1.46608e-10 
31 1 0.0922147 0.0170865 0.00741253 0.00561609 0.000579231 -0.00013996 9.70742e-11 3.3789e-10 -9.50402e-11 5e-05 1.46608e-10 
32 1 0.0922712 0.0169488 0.0074998 0.00566166 0.000561965 -0.000144508 -5.89308e-11 2.38639e-10 -1.61701e-10 5e-05 1.46608e-10 
33 1 0.0981503 0.0167746 0.00751281 0.00556244 7.79931e-05 -4.36133e-05 -1.3013e-11 1.03333e-10 -8.51149e-11 5e-05 1.46608e-10 
34 1 0.0921311 0.016756 0.00771625 0.0055613 0.00062913 -0.000137797 4.05363e-11 -6.22093e-11 3.92275e-11 5e-05 1.46608e-10 
36 1 0.0983837 0.0178412 0.00707816 0.00611479 -4.08381e-05 6.18425e-07 -2.15611e-11 -6.29993e-11 1.91659e-11 5e-05 1.46608e-10 
37 1 0.0921565 0.0168352 0.00756554 0.00559481 0.000565192 -0.000132843 1.33512e-10 -2.85775e-11 -7.57463e-12 5e-05 1.46608e-10 
38 1 0.0923104 0.0171155 0.00739592 0.00571857 0.00035113 -0.000427291 -2.2711e-11 -3.07489e-10 -5.04968e-10 5e-05 1.46608e-10 
39 1 0.0983226 0.0175561 0.00714864 0.00562998 5.80744e-05 -2.28014e-05 2.90673e-11 9.769e-11 -1.98693e-11 5e-05 1.46608e-10 
41 1 0.0920333 0.0163112 0.00788443 0.00586384 0.000458349 -5.70582e-05 -2.66333e-11 -9.62189e-11 5.75386e-11 5e-05 1.46608e-10 
42 1 0.0921952 0.0170028 0.00746352 0.00564044 0.000557679 -0.000139511 3.76633e-11 2.47194e-10 -3.01515e-11 5e-05 1.46608e-10 
44 1 0.0924317 0.0172275 0.00731088 0.00575263 0.000362447 -0.000507895 2.13412e-10 -4.7397e-11 -2.43304e-11 5e-05 1.46608e-10 
45 1 0.0981876 0.0169242 0.00738546 0.00560689 5.68422e-05 -3.52727e-05 8.07313e-11 -2.11539e-10 1.71523e-10 5e-05 1.46608e-10 
46 1 0.0982448 0.0171752 0.00724279 0.00567234 5.58373e-05 -2.4353e-05 -1.41806e-10 9.7996e-11 -1.49639e-12 5e-05 1.46608e-10 
47 1 0.0920732 0.0164786 0.00778255 0.00566522 0.000539426 -0.000114526 -2.29853e-11 -3.71441e-11 3.00855e-11 5e-05 1.46608e-10 
48 1 0.0924122 0.0171476 0.00736869 0.00571039 0.000305772 -0.000466699 2.52651e-10 7.80253e-11 -1.01657e-10 5e-05 1.46608e-10 
49 1 0.0982254 0.01708 0.00726632 0.00567592 4.99815e-05 -2.32877e-05 1.8136e-10 6.07497e-11 1.0945e-11 5e-05 1.46608e-10 
50 1 0.0923681 0.0173542 0.00722331 0.00567908 0.000281682 -0.000440419 1.61445e-11 1.49086e-11 -5.32862e-11 5e-05 1.46608e-10 
51 1 0.092471 0.0173874 0.00719518 0.00575384 0.000325218 -0.00047885 -1.88386e-10 3.63395e-11 -1.27285e-10 5e-05 1.46608e-10 
52 1 0.0924229 0.0179509 0.00709398 0.00634047 0.00038089 8.2971e-05 5.40655e-12 2.42384e-11 -1.56438e-10 5e-05 1.46608e-10 
53 1 0.0982837 0.0173657 0.00719571 0.00566431 6.52849e-05 -2.44787e-05 -1.67257e-11 -2.60695e-11 1.21315e-12 5e-05 1.46608e-10 
54 1 0.0920871 0.0161721 0.00797242 0.00586585 0.000472576 -6.66928e-05 2.0548e-11 -6.74038e-11 1.67724e-11 5e-05 1.46608e-10 
55 1 0.085883 0.015787 0.00837719 0.00599863 -0.000206116 2.59673e-05 -2.10323e-10 2.4755e-10 2.27605e-10 5e-05 1.46608e-10 
56 1 0.0921757 0.016919 0.00751452 0.00561893 0.000555251 -0.000134859 1.05547e-11 5.97237e-11 -5.44176e-11 5e-05 1.46608e-10 
57 1 0.098169 0.0168494 0.00744914 0.00559158 6.45788e-05 -3.74281e-05 1.86288e-10 7.08019e-11 4.33785e-11 5e-05 1.46608e-10 
59 1 0.0923518 0.0168998 0.00753312 0.00568599 0.000586826 -0.000142726 -1.93329e-10 1.02332e-10 -1.13093e-10 5e-05 1.46608e-10 
60 1 0.0923714 0.0169837 0.0074821 0.00562444 0.000583763 -0.000142909 -2.44116e-10 2.99759e-10 -1.91929e-10 5e-05 1.46608e-10 
61 1 0.0920533 0.0163949 0.00783349 0.00565198 0.000549362 -0.000121558 3.17218e-11 4.38806e-11 -2.80404e-11 5e-05 1.46608e-10 
62 1 0.092604 0.0177831 0.00710086 0.00596617 0.000336324 1.85086e-05 -1.42505e-12 1.05416e-10 -1.23365e-10 5e-05 1.46608e-10 
63 1 0.092393 0.017068 0.0074262 0.00574781 0.000312145 -0.000462372 1.26493e-10 2.29817e-11 -2.81349e-10 5e-05 1.46608e-10 
64 1 0.0983031 0.0174609 0.00717218 0.00564653 6.24635e-05 -2.35138e-05 -2.18105e-11 9.65778e-13 6.52199e-12 5e-05 1.46608e-10 
65 1 0.0861355 0.0167143 0.00754166 0.0055412 6.38458e-05 0.000218189 6.00732e-11 -9.22385e-11 -1.61318e-11 5e-05 1.46608e-10 
66 1 0.086355 0.0176068 0.00728041 0.00596689 3.0994e-05 0.000101246 1.84986e-10 -2.86749e-11 -1.36215e-10 5e-05 1.46608e-10 
67 1 0.0925759 0.0174224 0.00716575 0.00574996 0.000306468 -0.000466751 1.23752e-10 1.01454e-11 -3.98397e-11 5e-05 1.46608e-10 
68 1 0.0923488 0.0172746 0.00728088 0.00574391 0.000362149 -0.000511723 5.19637e-11 -9.14389e-11 -4.46018e-11 5e-05 1.46608e-10 
69 1 0.0922317 0.0167804 0.00760225 0.00558016 0.000548752 -0.000122926 1.30991e-10 -1.18558e-10 8.09163e-11 5e-05 1.46608e-10 
70 1 0.0922999 0.0174203 0.0072872 0.0056285 0.000353358 -0.000484692 -2.87655e-11 -5.44501e-11 1.71222e-11 5e-05 1.46608e-10 
71 1 0.0858612 0.0157222 0.00845015 0.00607097 4.92159e-05 0.000272192 1.99547e-11 -6.81043e-11 8.18901e-11 5e-05 1.46608e-10 
72 1 0.0924743 0.0176808 0.007121 0.00571112 0.000527182 2.74345e-05 -7.75838e-11 -1.35956e-10 -1.94402e-14 5e-05 1.46608e-10 
73 1 0.092452 0.0175934 0.00716407 0.00562385 0.000477482 -0.000125753 -1.78677e-10 -1.4957e-10 -3.50154e-11 5e-05 1.46608e-10 
74 1 0.0924914 0.0179987 0.00696303 0.00632354 0.000387459 9.03757e-05 -1.94533e-10 -1.55905e-11 -5.03409e-11 5e-05 1.46608e-10 
76 1 0.0867981 0.0184457 0.0068807 0.0062312 -0.000144946 1.82049e-05 -6.14507e-11 4.14777e-12 5.08683e-13 5e-05 1.46608e-10 
77 1 0.092467 0.0181992 0.00693232 0.00629667 1.7384e-05 -0.000792679 3.39889e-11 1.33019e-10 2.39368e-10 5e-05 1.46608e-10 
78 1 0.0859634 0.0160413 0.00807916 0.00572206 -0.000206301 -2.88278e-05 5.45693e-11 6.57636e-12 -1.16166e-12 5e-05 1.46608e-10 
79 1 0.0861941 0.0169878 0.00743306 0.00557055 9.55614e-05 0.000208175 -1.39492e-11 -7.92337e-11 3.42829e-11 5e-05 1.46608e-10 
80 1 0.0923505 0.0176582 0.00715269 0.0057474 0.000249891 -5.94121e-05 -2.28172e-11 -1.52839e-10 6.42434e-10 5e-05 1.46608e-10 
81 1 0.086116 0.0166231 0.00757787 0.00555404 5.81259e-05 0.000207686 -1.85942e-11 -3.34339e-11 2.83778e-11 5e-05 1.46608e-10 
82 1 0.086155 0.0168055 0.00750545 0.00553955 6.36824e-05 0.000219641 9.77471e-14 -7.59244e-13 3.18061e-13 5e-05 1.46608e-10 
83 1 0.0860576 0.0163628 0.00770964 0.00563536 1.12246e-05 0.000141449 5.80198e-10 -4.9423e-10 6.1426e-10 5e-05 1.46608e-10 
84 1 0.0984052 0.0179361 0.00705473 0.00613691 -3.95298e-05 4.13496e-07 -5.28897e-12 -5.41106e-11 1.18178e-11 5e-05 1.46608e-10 
85 1 0.0919304 0.0158943 0.00814063 0.00585844 0.000460941 -7.63017e-05 3.59607e-10 -3.19767e-10 3.37598e-11 5e-05 1.46608e-10 
86 1 0.0924093 0.0175155 0.0071065 0.00584403 0.000439806 -0.000577528 3.4702e-11 -1.003e-10 2.19112e-11 5e-05 1.46608e-10 
87 1 0.0925175 0.0171839 0.00733821 0.00573245 0.000319099 -0.000473913 3.12838e-10 -1.31239e-10 -2.41947e-11 5e-05 1.46608e-10 
88 1 0.0925597 0.018033 0.00703107 0.00641431 0.000384498 9.95274e-05 -2.99879e-10 -1.47773e-10 -2.30478e-12 5e-05 1.46608e-10 
89 1 0.0924417 0.0176982 0.00702786 0.00573373 0.000544767 3.09571e-05 3.83987e-11 -4.89598e-11 9.25129e-11 5e-05 1.46608e-10 
90 1 0.0926082 0.0176888 0.00703455 0.00584192 0.000397103 7.54678e-05 -9.7999e-11 2.42401e-10 2.14573e-11 5e-05 1.46608e-10 
91 1 0.0922726 0.01733 0.00724741 0.0057199 0.000337422 -0.000503242 2.89991e-11 -6.64914e-11 -1.85137e-10 5e-05 1.46608e-10 
92 1 0.0926259 0.0178661 0.00699599 0.00619637 0.000306486 0.000103684 -1.24257e-10 -8.76142e-11 -7.12748e-11 5e-05 1.46608e-10 
93 1 0.0924103 0.0179494 0.00699479 0.00631627 0.00038243 8.86654e-05 -6.59001e-11 -4.56405e-11 -1.18853e-10 5e-05 1.46608e-10 
94 1 0.0924246 0.0176009 0.00704885 0.00568305 0.000388982 7.75225e-05 4.68356e-11 2.18157e-11 -5.96108e-11 5e-05 1.46608e-10 
95 1 0.0923314 0.0175747 0.00708571 0.00575615 0.000402017 -0.000317797 -7.74555e-11 -7.37914e-11 3.39042e-10 5e-05 1.46608e-10 
96 1 0.092369 0.0177653 0.007042 0.00572931 0.00053112 2.48852e-05 -4.84364e-13 3.78921e-11 4.18716e-11 5e-05 1.46608e-10 
97 1 0.0863085 0.0171101 0.00738838 0.00556788 3.68896e-05 0.000232 -2.01516e-11 5.06525e-11 -2.61876e-11 5e-05 1.46608e-10 
98 1 0.0925333 0.0181681 0.00700043 0.00597965 0.000760025 -0.000293011 3.84839e-11 1.78652e-10 -3.22046e-11 5e-05 1.46608e-10 
99 1 0.0862138 0.017079 0.00739686 0.00556775 7.23055e-05 0.000217255 3.19732e-11 1.7456e-11 -3.57157e-12 5e-05 1.46608e-10 
100 1 0.0925788 0.0179519 0.00697576 0.00630939 0.000361753 9.64278e-05 -1.95617e-10 -5.40055e-11 -6.32924e-11 5e-05 1.46608e-10 
101 1 0.0861716 0.016472 0.0076418 0.00565972 0.000128963 0.000193702 4.09231e-10 5.56225e-10 -6.43167e-10 5e-05 1.46608e-10 
102 1 0.0694385 0.0202053 0.00537268 3.9862e-15 4.39427e-15 -7.68294e-14 1.50924e-21 1.78619e-22 8.99559e-23 5e-05 1.46608e-10 
104 1 0.0862692 0.0169278 0.00746076 0.00556011 8.39273e-05 0.000212134 2.8114e-11 -2.29625e-11 3.52655e-13 5e-05 1.46608e-10 
105 1 0.0860209 0.0162322 0.00785661 0.00551022 -0.000183457 -6.34293e-05 5.0936e-10 2.85179e-10 -3.2483e-10 5e-05 1.46608e-10 
106 1 0.0863682 0.0173834 0.00727992 0.00594873 -2.7705e-05 0.000272479 1.16211e-10 -1.15591e-10 -2.35695e-11 5e-05 1.46608e-10 
107 1 0.0859838 0.0161129 0.00801235 0.00557994 -0.000188036 -4.31574e-05 3.36317e-11 -6.47053e-12 3.25119e-12 5e-05 1.46608e-10 
108 1 0.0921078 0.0166561 0.00776299 0.00544123 0.000584698 -0.000179285 5.58381e-11 -5.80152e-11 2.77672e-12 5e-05 1.46608e-10 
109 1 0.0922917 0.0174083 0.00718826 0.00573563 0.000327909 -0.000492502 -4.59732e-11 -7.50985e-11 -2.16317e-11 5e-05 1.46608e-10 
110 1 0.09235 0.0176674 0.00705311 0.00575335 0.000491755 -3.66856e-05 -4.39929e-12 -8.23867e-11 3.83522e-10 5e-05 1.46608e-10 
111 1 0.0925794 0.0182566 0.00692606 0.00641939 0.000339922 -0.000651214 1.57978e-10 1.28199e-11 6.59996e-10 5e-05 1.46608e-10 
112 1 0.0860769 0.0164409 0.00765025 0.00568661 3.59742e-05 0.000221134 4.5484e-10 -6.40592e-10 2.37761e-10 5e-05 1.46608e-10 
113 1 0.0863835 0.0170501 0.0074161 0.00558823 5.47578e-05 0.000224802 2.88433e-13 5.53997e-11 -2.01449e-11 5e-05 1.46608e-10 
115 1 0.0923108 0.0174877 0.00713057 0.00576182 0.000321359 -0.00047452 -1.41495e-10 -1.07197e-10 1.21786e-10 5e-05 1.46608e-10 
116 1 0.0923322 0.016816 0.00758417 0.00560096 0.000532301 -0.000112698 -3.63466e-11 -8.12888e-11 4.96973e-11 5e-05 1.46608e-10 
117 1 0.092188 0.0165908 0.00771771 0.00551654 0.000574218 -0.000140826 9.83671e-11 -6.39949e-11 4.28719e-11 5e-05 1.46608e-10 
118 1 0.0859249 0.0159136 0.00822815 0.00588585 -0.000226044 -1.58816e-05 1.15609e-10 3.02443e-11 2.15017e-11 5e-05 1.46608e-10 
119 1 0.0925906 0.0175026 0.00710792 0.00572881 0.000308511 -0.000446131 -1.90349e-10 -1.07226e-11 -6.69271e-11 5e-05 1.46608e-10 
120 1 0.091951 0.0159767 0.00808782 0.00586724 0.000489896 -6.74354e-05 -1.24671e-10 -1.79352e-10 -1.59087e-10 5e-05 1.46608e-10 
121 1 0.092046 0.0160049 0.00807411 0.00586794 0.00047347 -6.48206e-05 1.16277e-10 6.13402e-11 -1.15466e-11 5e-05 1.46608e-10 
122 1 0.0924576 0.0177955 0.00700686 0.0058573 0.000263807 0.000101154 -1.36859e-10 2.56163e-10 -2.57351e-11 5e-05 1.46608e-10 
123 1 0.0860397 0.0162969 0.00778276 0.00557691 -9.30941e-05 1.16846e-05 -4.804e-10 3.58755e-10 -8.38599e-11 5e-05 1.46608e-10 
124 1 0.0924032 0.0177498 0.00713466 0.00571406 0.000526005 2.31869e-05 1.24552e-11 -3.64884e-11 6.41174e-12 5e-05 1.46608e-10 
125 1 0.0920666 0.0160885 0.00802327 0.00586717 0.000472218 -6.53561e-05 -3.91235e-11 2.98936e-11 3.52815e-11 5e-05 1.46608e-10 
126 1 0.0922535 0.0172512 0.007306 0.00572445 0.000343658 -0.00048701 2.36447e-10 3.36736e-13 -2.65602e-10 5e-05 1.46608e-10 
127 1 0.0865428 0.0176675 0.00726031 0.00607673 -1.65821e-05 0.000280738 5.08254e-11 6.14099e-13 3.77921e-13 5e-05 1.46608e-10 
128 1 0.0925215 0.0176398 0.00704296 0.0057375 0.000554663 3.78328e-05 1.47924e-10 -1.76048e-12 2.5975e-11 5e-05 1.46608e-10 
129 1 0.0923918 0.0178627 0.00704095 0.00601275 0.000445418 7.27248e-05 -4.2417e-11 1.02325e-10 -5.73326e-11 5e-05 1.46608e-10 
131 1 0.0862889 0.017019 0.00742457 0.00557566 6.18208e-05 0.000222419 -2.10165e-11 -1.12441e-10 5.22052e-11 5e-05 1.46608e-10 
132 1 0.0925544 0.0177718 0.00701477 0.00583865 0.000141631 0.000128313 -2.48342e-10 4.68141e-11 3.50023e-11 5e-05 1.46608e-10 
133 1 0.0921482 0.0164233 0.00781959 0.00566115 0.00055844 -0.000126372 -1.26903e-10 -8.10447e-11 4.17909e-11 5e-05 1.46608e-10 
134 1 0.0926907 0.0175391 0.00707757 0.00565445 0.000228047 -0.000397293 -2.14569e-10 -4.79032e-10 3.27642e-10 5e-05 1.46608e-10 
135 1 0.092263 0.0165359 0.0077545 0.0055119 0.000572443 -0.000140756 1.40763e-10 -1.23885e-10 7.9073e-11 5e-05 1.46608e-10 
136 1 0.0859451 0.0159774 0.00815388 0.0058304 -0.000256025 -5.07572e-05 1.54495e-10 -5.09061e-11 -3.06193e-11 5e-05 1.46608e-10 
137 1 0.0924885 0.0182967 0.00693779 0.00627263 -1.05666e-05 -0.000796416 1.06166e-10 2.7047e-10 2.99309e-11 5e-05 1.46608e-10 
138 1 0.0925428 0.0180827 0.00694594 0.00635208 0.000361706 9.8011e-05 -2.80907e-11 -1.10651e-10 8.3212e-12 5e-05 1.46608e-10 
140 1 0.0923878 0.0174342 0.00716543 0.00576963 0.000334856 -0.000490403 -2.94378e-10 -1.34452e-10 4.98594e-11 5e-05 1.46608e-10 
141 1 0.086116 0.016252 0.00782921 0.00581778 -0.000241299 -3.68209e-07 -1.44547e-09 -4.82326e-10 1.02673e-09 5e-05 1.46608e-10 
142 1 0.0862106 0.0166544 0.00756935 0.00554655 6.41135e-05 0.000216425 -1.26445e-10 1.28821e-11 -2.76759e-11 5e-05 1.46608e-10 
143 1 0.086002 0.0161682 0.0079311 0.00552751 -0.000188258 -4.84094e-05 1.84915e-11 1.25385e-10 -1.08671e-10 5e-05 1.46608e-10 
146 1 0.0862858 0.0165944 0.00759707 0.00553436 6.2484e-05 0.000219961 -1.42565e-10 1.06434e-10 -3.99917e-11 5e-05 1.46608e-10 
147 1 0.0859046 0.01585 0.00830262 0.00592865 -0.000203354 8.67798e-06 -6.51953e-11 8.755e-11 5.28456e-11 5e-05 1.46608e-10 
148 1 0.00857269 0.0178504 0.00777388 -0.00130178 0.0125948 -0.00656602 0 0 -1.43822e-09 5e-05 1.46608e-10 
149 1 0.0925504 0.0178607 0.00706134 0.0061877 0.000285665 0.000107061 1.49547e-12 -1.55108e-10 8.63447e-11 5e-05 1.46608e-10 
150 1 0.0861912 0.0165632 0.00760556 0.00554874 6.42704e-05 0.000219149 5.61614e-11 -3.51778e-12 -1.00144e-10 5e-05 1.46608e-10 
151 1 0.0866141 0.0172939 0.00732719 0.0058541 -5.60627e-05 0.000281931 1.17671e-10 -8.87805e-11 2.6963e-11 5e-05 1.46608e-10 
153 1 0.0862663 0.0165033 0.00763327 0.00554403 6.26721e-05 0.000220521 1.29406e-10 1.32975e-10 -1.18875e-11 5e-05 1.46608e-10 
154 1 0.0864104 0.0175653 0.00720805 0.00602172 -2.67976e-05 0.000189078 1.07446e-10 -1.96804e-10 -4.65411e-10 5e-05 1.46608e-10 
155 1 0.0804297 0.0176098 0.00714985 0.00617698 0.000177202 0.000312412 -1.75242e-10 2.36601e-11 5.64007e-11 5e-05 1.46608e-10 
156 1 0.0862931 0.0174446 0.00725517 0.0059568 -3.47353e-05 0.000203625 -2.82838e-11 -2.13686e-10 -6.51399e-11 5e-05 1.46608e-10 
157 1 0.0864712 0.0178428 0.00710415 0.0060824 -0.000119706 1.14414e-05 1.06404e-10 -5.8602e-11 -3.14654e-11 5e-05 1.46608e-10 
158 1 0.0864982 0.0171723 0.0073715 0.00564778 3.51671e-05 0.00023634 5.34517e-12 2.29826e-11 -8.867e-12 5e-05 1.46608e-10 
159 1 0.0926312 0.0180376 0.00695833 0.00640657 0.00047394 7.61044e-05 1.24408e-10 -2.27822e-10 7.02572e-11 5e-05 1.46608e-10 
160 1 0.0863775 0.0178102 0.00711666 0.00608445 -9.59075e-05 -1.82089e-06 -4.32023e-11 -8.30287e-11 8.44663e-11 5e-05 1.46608e-10 
162 1 0.0863281 0.0172015 0.00735273 0.00555982 5.95884e-06 0.000180733 1.96938e-10 3.65004e-11 3.56143e-10 5e-05 1.46608e-10 
163 1 0.0865188 0.0172633 0.00733542 0.00579802 1.34067e-05 0.000251437 5.82854e-11 -4.53744e-11 1.67312e-11 5e-05 1.46608e-10 
164 1 0.0866243 0.0179509 0.0070638 0.00611372 -0.000173849 1.97677e-05 1.28523e-11 4.94214e-11 8.70277e-11 5e-05 1.46608e-10 
165 1 0.086439 0.016899 0.00748002 0.00556384 6.3753e-05 0.000220883 -1.13059e-10 2.74144e-11 -1.59109e-11 5e-05 1.46608e-10 
166 1 0.091892 0.0157475 0.00826583 0.00588726 0.000293485 -0.000127924 -3.10884e-11 -2.51722e-10 1.54359e-10 5e-05 1.46608e-10 
167 1 0.0863053 0.0166856 0.00756087 0.00555182 6.19199e-05 0.000220947 -2.1066e-10 9.86906e-11 -7.45939e-11 5e-05 1.46608e-10 
168 1 0.0864317 0.0176573 0.00717427 0.00606267 -3.37438e-05 0.000158253 3.21365e-11 -6.79316e-11 -5.40061e-11 5e-05 1.46608e-10 
169 1 0.0865604 0.0174451 0.00726332 0.00599417 -1.09461e-05 0.000271765 7.66831e-11 -3.70787e-11 7.96866e-11 5e-05 1.46608e-10 
170 1 0.0865067 0.0175961 0.00719956 0.00604984 -9.67841e-06 0.000273881 1.16183e-10 1.27903e-12 -7.80449e-11 5e-05 1.46608e-10 
171 1 0.0922826 0.0166197 0.00770346 0.00553088 0.000536119 -0.00011784 1.63634e-10 -2.04622e-10 1.32989e-10 5e-05 1.46608e-10 
172 1 0.086685 0.0175756 0.00721579 0.00608925 3.94504e-05 0.000253451 -7.77118e-11 -3.9751e-11 1.47682e-11 5e-05 1.46608e-10 
173 1 0.0925561 0.017343 0.0072232 0.00573566 0.000308301 -0.000464796 -8.74985e-11 6.34256e-13 3.62686e-11 5e-05 1.46608e-10 
174 1 0.0863992 0.0179068 0.00713091 0.00610809 -9.80406e-05 1.4771e-06 1.01679e-12 -7.21404e-11 -6.29032e-11 5e-05 1.46608e-10 
175 1 0.0833172 0.0178326 0.00715897 0.00582942 0.000687714 -0.000618476 -3.30332e-13 5.54128e-13 -1.97835e-13 5e-05 1.46608e-10 
176 1 0.0862727 0.0173524 0.00728826 0.00553729 1.65779e-05 0.000239424 6.07366e-11 -3.46009e-11 2.41464e-11 5e-05 1.46608e-10 
177 1 0.0868543 0.0182836 0.00693997 0.00633203 -0.000165519 2.50362e-05 -1.14574e-10 3.77276e-11 -1.3613e-11 5e-05 1.46608e-10 
178 1 0.0866604 0.0174801 0.00725353 0.00600903 -4.71473e-05 0.000281362 1.83998e-10 -8.50831e-11 -7.89683e-11 5e-05 1.46608e-10 
179 1 0.0803054 0.017491 0.00719894 0.00611209 0.000240661 0.000277133 -1.47083e-10 1.512e-10 -7.18057e-11 5e-05 1.46608e-10 
180 1 0.0864434 0.0173234 0.00730765 0.00576498 5.1311e-05 0.00023547 2.26274e-11 -3.72399e-11 4.17867e-11 5e-05 1.46608e-10 
181 1 0.0864855 0.0175053 0.00723555 0.00601646 5.23761e-06 0.000266268 6.88406e-11 -1.56014e-11 -9.80614e-11 5e-05 1.46608e-10 
182 1 0.0924791 0.0170249 0.00745323 0.00576353 0.000310604 -0.000468766 1.07782e-10 6.59269e-11 1.14599e-10 5e-05 1.46608e-10 
183 1 0.0865817 0.017536 0.00722733 0.00604476 -5.27708e-06 0.000271419 1.04577e-10 -4.55256e-11 9.28629e-11 5e-05 1.46608e-10 
184 1 0.0924455 0.018104 0.00695406 0.00632177 0.000223814 4.82806e-05 1.41555e-11 1.36311e-10 -7.63204e-11 5e-05 1.46608e-10 
185 1 0.0863141 0.0175356 0.00721936 0.00600926 -4.43672e-05 0.000147422 -5.97614e-12 -1.31874e-10 2.30328e-10 5e-05 1.46608e-10 
186 1 0.0863477 0.0172924 0.00731601 0.00553219 4.01152e-05 0.000232537 -9.4175e-11 -1.75203e-10 4.57286e-11 5e-05 1.46608e-10 
187 1 0.0924983 0.0171044 0.00739572 0.00572112 0.00031279 -0.000474071 2.56129e-10 -6.64974e-11 9.56469e-12 5e-05 1.46608e-10 
188 1 0.0924899 0.0178893 0.00698708 0.00626526 0.000348982 8.6368e-05 8.12572e-11 2.92877e-11 -1.29085e-11 5e-05 1.46608e-10 
189 1 0.0921681 0.016507 0.00776865 0.00554788 0.000572505 -0.000139603 -1.94944e-12 -8.52621e-11 5.48864e-11 5e-05 1.46608e-10 
190 1 0.0868726 0.018383 0.00690332 0.00626199 -0.000113857 6.6907e-06 -3.67689e-11 3.11886e-11 -1.30358e-11 5e-05 1.46608e-10 
191 1 0.0925121 0.0184037 0.00694379 0.00632978 0.00029794 -0.000783742 2.00673e-11 3.25024e-11 3.10311e-11 5e-05 1.46608e-10 
192 1 0.0863892 0.0174743 0.00724389 0.00599518 -3.0873e-06 0.000261785 -1.76703e-11 -2.68934e-10 1.04617e-10 5e-05 1.46608e-10 
193 1 0.092598 0.0183548 0.0069287 0.00636673 0.000358089 -0.0007745 -3.37546e-11 4.6293e-11 -5.82152e-11 5e-05 1.46608e-10 
194 1 0.0862301 0.0167456 0.00753315 0.00552449 9.91906e-05 0.000203971 9.56024e-11 1.2229e-10 -5.14746e-11 5e-05 1.46608e-10 
195 1 0.0865281 0.0176873 0.00716341 0.00604236 -2.79264e-05 0.000276479 -6.13507e-11 -5.04909e-11 -1.89777e-11 5e-05 1.46608e-10 
196 1 0.0857962 0.0155237 0.00866552 0.00610908 5.49735e-05 0.000267763 -2.07136e-11 -7.82515e-11 9.17833e-11 5e-05 1.46608e-10 
197 1 0.0864342 0.0180571 0.00712283 0.00618169 -0.000121326 1.5256e-05 -4.34002e-11 3.96896e-11 -8.37374e-11 5e-05 1.46608e-10 
198 1 0.0862334 0.0171701 0.00736067 0.00554217 2.80699e-06 0.000243449 2.93354e-11 2.72881e-11 -2.12321e-11 5e-05 1.46608e-10 
199 1 0.0863564 0.0177185 0.00715048 0.00605885 -8.84851e-05 7.54034e-06 -1.06838e-10 -2.18921e-10 2.31909e-11 5e-05 1.46608e-10 
200 1 0.0862496 0.0168367 0.00749695 0.00554082 9.50154e-05 0.000206893 -1.47689e-10 1.28088e-10 -6.97443e-11 5e-05 1.46608e-10 
201 1 0.0867029 0.0184064 0.00689567 0.00630882 -0.000182624 3.1728e-05 1.42553e-11 1.08405e-10 -4.25263e-11 5e-05 1.46608e-10 
203 1 0.092658 0.0177738 0.00701722 0.00610547 0.000270613 0.00010846 5.08433e-11 -1.37401e-11 1.21517e-11 5e-05 1.46608e-10 
204 1 0.0863639 0.016959 0.00745229 0.00557286 6.45454e-05 0.000220626 3.10703e-11 5.18052e-11 -2.1582e-11 5e-05 1.46608e-10 
205 1 0.0864567 0.0181502 0.00708911 0.00615805 -0.000134428 2.00788e-05 -2.75114e-12 1.0222e-12 1.63953e-11 5e-05 1.46608e-10 
206 1 0.0864546 0.0177506 0.00713901 0.00606011 -6.59244e-05 0.000134054 -4.55446e-11 -1.6938e-11 1.21817e-10 5e-05 1.46608e-10 
207 1 0.0862467 0.0164121 0.00766947 0.00561102 5.56966e-05 0.00020762 7.75863e-10 1.43781e-10 -7.29917e-10 5e-05 1.46608e-10 
208 1 0.0863352 0.0176269 0.00718447 0.0060254 -6.97782e-05 6.86307e-05 5.72871e-12 -2.87056e-10 -1.18711e-10 5e-05 1.46608e-10 
209 1 0.080327 0.0175888 0.00719863 0.00605496 9.8254e-05 0.000279956 -3.45051e-10 3.57226e-10 -1.0138e-11 5e-05 1.46608e-10 
210 1 0.0919098 0.0158096 0.00818949 0.00588103 0.000462347 -2.2262e-05 5.93465e-10 2.63209e-10 3.44497e-10 5e-05 1.46608e-10 
211 1 0.0924303 0.0180408 0.00703006 0.0063714 0.000343468 0.00015668 -1.42616e-10 3.66445e-11 -2.30082e-10 5e-05 1.46608e-10 
212 1 0.0866358 0.0173855 0.00729091 0.00595127 -5.77935e-05 0.000286054 1.85761e-10 4.31358e-11 -7.2542e-11 5e-05 1.46608e-10 
213 1 0.0926947 0.0176348 0.00704885 0.00577406 0.00034557 6.62447e-05 9.51849e-11 -8.0457e-11 9.74636e-11 5e-05 1.46608e-10 
214 1 0.092463 0.0178272 0.00710156 0.00589558 0.000250681 0.000105765 -5.4348e-11 2.92317e-10 4.56362e-11 5e-05 1.46608e-10 
215 1 0.0864228 0.0172324 0.00734372 0.00554236 7.16557e-05 0.000219482 1.86092e-10 -3.15631e-11 5.27973e-11 5e-05 1.46608e-10 
216 1 0.0864782 0.0170813 0.00740764 0.00558024 4.66706e-05 0.000228206 -7.23391e-11 6.35128e-11 -3.13137e-11 5e-05 1.46608e-10 
217 1 0.0923313 0.0167309 0.0076367 0.00556949 0.000531013 -0.000112745 1.01567e-11 -1.05837e-10 6.70349e-11 5e-05 1.46608e-10 
218 1 0.0865649 0.0178754 0.00709164 0.00608018 -0.000145837 1.66511e-05 1.44272e-10 4.27692e-11 1.45927e-10 5e-05 1.46608e-10 
219 1 0.0924508 0.0181376 0.00704809 0.0062018 0.000513245 -4.96603e-05 6.6177e-11 2.65136e-10 -4.53399e-13 5e-05 1.46608e-10 
220 1 0.0864032 0.0171413 0.00737991 0.00557947 5.60157e-05 0.000224248 1.99403e-10 -4.29011e-11 1.73736e-11 5e-05 1.46608e-10 
221 1 0.0802075 0.0170516 0.00740387 0.00560563 0.00027629 0.000228814 -1.11879e-10 -1.24762e-10 7.56585e-11 5e-05 1.46608e-10 
222 1 0.0920931 0.0165623 0.00773161 0.00567413 0.000526563 -0.000104685 -6.07251e-12 -5.9333e-11 2.56009e-11 5e-05 1.46608e-10 
223 1 0.0864643 0.0174143 0.00727161 0.00601646 1.97475e-05 0.000258269 2.08328e-10 -9.69874e-11 5.48052e-11 5e-05 1.46608e-10 
224 1 0.0862531 0.0172612 0.00732448 0.00553977 8.03375e-06 0.00024052 -4.07705e-11 -3.85301e-11 8.29645e-11 5e-05 1.46608e-10 
225 1 0.0926062 0.0175903 0.0070625 0.00572239 0.000452449 -0.000145591 4.39883e-11 8.74494e-11 4.17328e-10 5e-05 1.46608e-10 
226 1 0.0864586 0.0169901 0.00744382 0.00558555 4.94741e-05 0.00022748 1.14106e-11 7.13353e-11 -3.56954e-11 5e-05 1.46608e-10 
227 1 0.0802654 0.0173134 0.00728174 0.00559529 0.000288762 0.000222131 -6.5842e-11 -9.84093e-11 6.74532e-11 5e-05 1.46608e-10 
228 1 0.0507861 0.0189683 0.00558458 -5.38329e-15 -1.91118e-14 -2.87012e-13 -3.01908e-22 9.40013e-23 -2.06795e-25 5e-05 1.46608e-10 
229 1 0.0860782 0.016124 0.00797843 0.00554602 -0.000171009 -6.81105e-05 -5.94133e-11 -5.30089e-12 8.07909e-12 5e-05 1.46608e-10 
230 1 0.0864783 0.0182473 0.00695543 0.00622849 -0.000144209 1.9294e-05 7.90885e-11 1.21116e-10 -5.09585e-11 5e-05 1.46608e-10 
231 1 0.197479 0.018695 0.00523156 -1.10454e-15 -2.69835e-14 1.45243e-13 -5.08248e-23 -1.13737e-24 -8.27181e-25 5e-05 1.46608e-10 
232 1 0.0860971 0.0161879 0.00790389 0.00551034 -0.000168588 -6.86924e-05 2.99494e-11 1.24058e-11 7.51618e-11 5e-05 1.46608e-10 
233 1 0.0863443 0.0168679 0.00748847 0.00554901 6.88773e-05 0.000218153 6.08075e-11 4.18338e-11 -1.35023e-11 5e-05 1.46608e-10 
234 1 0.0918524 0.0156354 0.00842576 0.00632933 -1.66752e-05 -0.000424931 -5.72113e-10 -1.04823e-10 -9.17202e-10 5e-05 1.46608e-10 
235 1 0.0866406 0.018563 0.00687698 0.00621146 -0.000169311 2.04141e-05 -2.12265e-11 3.19846e-11 4.6416e-11 5e-05 1.46608e-10 
236 1 0.0867188 0.018503 0.00686005 0.0062162 -0.00016225 2.33512e-05 -4.7981e-11 1.66348e-11 -5.10283e-12 5e-05 1.46608e-10 
237 1 0.0866053 0.0183706 0.00690936 0.0062362 -0.00016551 2.50637e-05 7.63781e-11 -4.34377e-12 2.202e-11 5e-05 1.46608e-10 
238 1 0.0803433 0.0176528 0.00712361 0.00616528 0.000144785 0.000330448 1.30526e-10 2.91493e-10 1.21092e-12 5e-05 1.46608e-10 
239 1 0.0801097 0.01662 0.00763583 0.00554031 0.000136734 -6.25682e-05 -1.78633e-11 5.76207e-11 -3.59831e-11 5e-05 1.46608e-10 
240 1 0.0801879 0.0169627 0.00744531 0.00560345 0.000283678 0.000225949 -2.43256e-11 -2.37184e-10 7.42377e-11 5e-05 1.46608e-10 
241 1 0.0801292 0.016705 0.0075869 0.0055399 0.000142714 -6.77869e-05 -1.41523e-10 8.44745e-11 -6.4352e-11 5e-05 1.46608e-10 
242 1 0.080401 0.017522 0.00719022 0.00605776 0.000109301 0.000332033 -5.18798e-11 8.99878e-11 -3.09674e-12 5e-05 1.46608e-10 
243 1 0.0800902 0.016535 0.00768477 0.00552511 0.000130078 -5.87363e-05 2.10013e-12 5.99171e-11 -3.30492e-11 5e-05 1.46608e-10 
244 1 0.0801486 0.01679 0.00753797 0.00559379 0.000140243 -6.13353e-05 7.52641e-11 4.52852e-11 1.85504e-11 5e-05 1.46608e-10 
245 1 0.0803641 0.0177415 0.00708232 0.00621574 0.000149154 0.000332635 -9.02323e-11 -8.28844e-11 9.39995e-11 5e-05 1.46608e-10 
246 1 0.0802491 0.0171346 0.00736666 0.00561012 0.000266456 0.000233782 1.74001e-12 9.45581e-11 -5.03391e-11 5e-05 1.46608e-10 
247 1 0.0866027 0.0176269 0.0071913 0.00606185 -2.90826e-06 0.000268779 -3.24862e-11 -4.29901e-11 -4.51104e-11 5e-05 1.46608e-10 