ITEM: TIMESTEP
25200000
ITEM: NUMBER OF ATOMS
212
ITEM: BOX BOUNDS ff ff ff
-0.02 0.43
-0.02 0.06
-0.02 0.07
ITEM: ATOMS id type x y z vx vy vz fx fy fz radius mass 
1 1 0.160015 0.0169957 0.00740587 0.00546353 -0.000394961 -7.94237e-05 2.94657e-11 8.80747e-11 -3.96792e-11 5e-05 1.46608e-10 
2 1 0.160108 0.0182286 0.00698612 0.00609609 -0.000374968 0.000491723 -1.27968e-11 -1.60931e-10 5.72176e-11 5e-05 1.46608e-10 
3 1 0.148243 0.018838 0.00682481 0.00559524 -0.000693462 0.00034593 -2.09741e-12 -2.12398e-11 7.46776e-12 5e-05 1.46608e-10 
4 1 0.159882 0.0167921 0.00750921 0.00549025 -0.000396568 -7.98906e-05 3.76281e-11 4.84658e-11 -2.55883e-11 5e-05 1.46608e-10 
5 1 0.159996 0.0169074 0.00744877 0.00546164 -0.000390412 -8.09671e-05 2.7308e-11 6.79374e-11 -3.27945e-11 5e-05 1.46608e-10 
6 1 0.165741 0.0165541 0.00762102 0.00569399 0.000212373 -0.000149195 1.34498e-14 -3.36829e-12 4.211e-12 5e-05 1.46608e-10 
7 1 0.15963 0.0161094 0.00793705 0.00575938 -1.55946e-05 0.000466425 4.09663e-12 -1.05857e-10 1.55333e-10 5e-05 1.46608e-10 
8 1 0.159863 0.0167097 0.00756267 0.00551076 -0.000403672 -7.72742e-05 -1.72592e-11 1.81064e-11 -2.52283e-11 5e-05 1.46608e-10 
9 1 0.165931 0.0174368 0.00728067 0.00558291 0.000253269 -0.000124463 -5.58577e-11 7.20232e-12 -2.13382e-12 5e-05 1.46608e-10 
10 1 0.159651 0.0161839 0.007874 0.0057281 -0.000146335 0.000297075 2.79419e-11 -1.77547e-10 1.95599e-10 5e-05 1.46608e-10 
11 1 0.159669 0.0162565 0.00780763 0.00551681 -0.000309103 6.03965e-05 -9.04794e-11 -2.24256e-10 1.7911e-10 5e-05 1.46608e-10 
13 1 0.160066 0.0180397 0.00703711 0.00604946 -0.000381645 0.000491239 2.67085e-11 1.51875e-10 -5.36971e-11 5e-05 1.46608e-10 
15 1 0.159768 0.0166832 0.00758128 0.00556266 -0.000438148 -6.48453e-05 -2.40412e-11 -3.57758e-11 1.73823e-11 5e-05 1.46608e-10 
17 1 0.159978 0.0176512 0.00723858 0.00551129 -0.000234372 0.000422685 2.81571e-11 -1.83946e-10 -2.78668e-12 5e-05 1.46608e-10 
18 1 0.166039 0.0174875 0.00726748 0.00556869 0.000254869 -0.000124129 2.61071e-11 5.27713e-11 -1.50634e-11 5e-05 1.46608e-10 
19 1 0.159487 0.0156763 0.00846794 0.00607018 -4.77706e-05 0.00053134 3.89102e-11 1.88385e-10 -2.28927e-10 5e-05 1.46608e-10 
20 1 0.160258 0.018104 0.007031 0.00610621 -0.000356137 0.000487327 6.57601e-11 -9.02135e-11 2.76849e-11 5e-05 1.46608e-10 
21 1 0.159509 0.015738 0.00839235 0.00607463 -4.95111e-05 0.000532837 5.54086e-11 1.86714e-10 -2.00635e-10 5e-05 1.46608e-10 
22 1 0.159714 0.0164141 0.00769719 0.00538652 -0.000395867 -7.50361e-05 -1.78454e-10 -2.09334e-10 8.91897e-11 5e-05 1.46608e-10 
23 1 0.153902 0.0173329 0.00746762 0.00561446 -0.000140469 -0.000284945 2.51996e-11 2.49898e-11 9.92272e-12 5e-05 1.46608e-10 
24 1 0.165911 0.0173414 0.00730334 0.0055917 0.000249603 -0.000123223 -9.13956e-12 3.02365e-11 -9.71175e-12 5e-05 1.46608e-10 
25 1 0.160057 0.0175998 0.00716164 0.00551315 -0.000235314 0.000418189 -6.4867e-11 9.97125e-11 8.9575e-11 5e-05 1.46608e-10 
26 1 0.165814 0.0168643 0.00741732 0.00566146 0.000230533 -0.000134816 3.73522e-12 1.14843e-12 6.96314e-13 5e-05 1.46608e-10 
28 1 0.160184 0.0181664 0.00700853 0.00610469 -0.000357024 0.000487888 7.43612e-11 -1.35734e-10 5.97243e-11 5e-05 1.46608e-10 
29 1 0.160035 0.0170837 0.00736299 0.00548762 -0.000402394 -7.76426e-05 3.67844e-11 1.27201e-10 -5.06282e-11 5e-05 1.46608e-10 
30 1 0.160087 0.0181341 0.00701163 0.00605951 -0.000407327 0.000498478 -2.55927e-11 -1.35222e-10 2.99713e-11 5e-05 1.46608e-10 
31 1 0.159748 0.0165901 0.00761184 0.00557395 -0.000434041 -6.48814e-05 -1.14607e-11 -1.06333e-10 6.14722e-11 5e-05 1.46608e-10 
32 1 0.159979 0.0172324 0.00729505 0.00552925 -0.000410236 -8.01609e-05 9.2079e-12 1.07795e-10 5.36543e-12 5e-05 1.46608e-10 
33 1 0.165758 0.016614 0.00754289 0.00575663 0.000205621 -0.000139086 -1.71704e-12 -4.01857e-12 6.72062e-12 5e-05 1.46608e-10 
34 1 0.159963 0.0175672 0.00716491 0.00552472 -0.000239648 0.000418211 -1.40412e-11 -6.4573e-12 7.35576e-12 5e-05 1.46608e-10 
36 1 0.16595 0.0175322 0.007258 0.00556658 0.000252581 -0.000123577 -7.0441e-12 -3.99022e-11 1.11011e-11 5e-05 1.46608e-10 
37 1 0.159842 0.0166171 0.00759436 0.00556677 -0.000418837 -7.32017e-05 -6.85617e-11 3.5724e-12 1.00122e-11 5e-05 1.46608e-10 
38 1 0.159957 0.0167309 0.00753465 0.00551775 -0.000373769 -9.19356e-05 2.90375e-11 1.07898e-11 -9.8607e-12 5e-05 1.46608e-10 
39 1 0.165892 0.0172459 0.00732601 0.00560893 0.00024566 -0.000122126 5.07703e-12 1.03768e-11 -4.67058e-12 5e-05 1.46608e-10 
41 1 0.159552 0.0158616 0.00824117 0.00608633 -4.53318e-05 0.000530331 -7.13474e-11 1.44036e-11 -1.49049e-10 5e-05 1.46608e-10 
42 1 0.159693 0.0163263 0.00774 0.00527085 -0.00036852 -8.38617e-05 -1.71094e-10 -2.04963e-10 1.57514e-10 5e-05 1.46608e-10 
44 1 0.160143 0.0182931 0.00705511 0.00614904 -0.000363952 0.000491391 -1.69441e-10 -8.50016e-11 -8.28076e-11 5e-05 1.46608e-10 
45 1 0.165795 0.0167688 0.00744031 0.0057619 0.000210863 -0.000132435 3.91457e-12 -3.02961e-12 2.94803e-12 5e-05 1.46608e-10 
47 1 0.159596 0.015985 0.0080901 0.00590082 -2.75701e-05 0.000490205 -1.4039e-10 -2.78395e-11 -4.28711e-11 5e-05 1.46608e-10 
49 1 0.165834 0.0169597 0.00739435 0.00561505 0.000240193 -0.000135875 1.80509e-12 4.02432e-12 -1.28219e-12 5e-05 1.46608e-10 
50 1 0.160195 0.017821 0.00710743 0.00606138 -0.000346458 0.000482236 1.13035e-10 3.26276e-11 -2.59497e-12 5e-05 1.46608e-10 
51 1 0.153953 0.017492 0.00753194 0.00561033 -0.000151743 -0.000282063 2.65153e-11 -2.39657e-11 1.68644e-11 5e-05 1.46608e-10 
52 1 0.160332 0.0180406 0.00705371 0.00610131 -0.000360053 0.000488398 1.0436e-10 -6.83066e-11 2.84569e-11 5e-05 1.46608e-10 
53 1 0.165853 0.0170551 0.00737143 0.00561781 0.000240786 -0.000134123 1.78011e-12 1.83846e-12 -5.22561e-12 5e-05 1.46608e-10 
54 1 0.160249 0.0176644 0.0071554 0.00594694 -0.000361366 0.000478738 -2.32939e-10 -3.82579e-11 4.59425e-11 5e-05 1.46608e-10 
55 1 0.153881 0.0172357 0.00747637 0.00561165 -0.000154651 -0.000282761 5.22066e-11 -3.05821e-11 -4.04257e-11 5e-05 1.46608e-10 
56 1 0.160018 0.0174105 0.00721297 0.00553032 -0.000235547 0.000414112 2.91066e-11 8.1946e-11 -2.52393e-11 5e-05 1.46608e-10 
57 1 0.165775 0.016674 0.00746464 0.00581832 0.000199435 -0.000129423 8.78959e-13 -4.01716e-12 6.43468e-12 5e-05 1.46608e-10 
59 1 0.160113 0.0174441 0.00721316 0.00549887 -0.000274896 0.000287245 -4.46521e-11 -5.51116e-11 -5.07712e-10 5e-05 1.46608e-10 
60 1 0.160228 0.0175699 0.00718094 0.00579735 -0.000332955 0.000462846 -2.31759e-10 -2.07473e-11 -4.48272e-11 5e-05 1.46608e-10 
61 1 0.159574 0.0159238 0.00816587 0.00601498 -5.54688e-05 0.00050219 -6.30359e-11 1.48282e-12 -1.18602e-10 5e-05 1.46608e-10 
62 1 0.160077 0.0180928 0.00712105 0.00600765 -0.000314742 0.000449834 1.21621e-12 2.17538e-11 1.22557e-11 5e-05 1.46608e-10 
63 1 0.159826 0.0169439 0.00744715 0.00543598 -0.000393997 -4.27317e-05 -5.62813e-11 8.14951e-11 -1.26969e-10 5e-05 1.46608e-10 
64 1 0.165872 0.0171505 0.00734868 0.00562075 0.000243232 -0.000122033 -4.75665e-12 -3.40722e-12 -6.47324e-12 5e-05 1.46608e-10 
65 1 0.153655 0.016271 0.00798591 0.0057554 6.99299e-05 7.06991e-05 -4.39343e-10 4.23126e-11 -2.18716e-10 5e-05 1.46608e-10 
66 1 0.15357 0.0160577 0.00831298 0.00584144 -2.42886e-05 0.000178211 5.32678e-10 3.2119e-10 -3.31932e-10 5e-05 1.46608e-10 
67 1 0.160173 0.0185169 0.00692073 0.00616879 -0.000342016 0.000487284 5.89518e-12 -9.6947e-11 -6.81218e-11 5e-05 1.46608e-10 
69 1 0.160054 0.0171761 0.00732955 0.00552724 -0.000411798 -7.82111e-05 -4.29522e-11 1.1969e-10 -3.79249e-11 5e-05 1.46608e-10 
70 1 0.160323 0.0176014 0.00717799 0.00586538 -0.000456973 0.00050089 -2.0994e-10 -4.70233e-13 -2.7253e-11 5e-05 1.46608e-10 
72 1 0.159976 0.0168192 0.00749168 0.00548065 -0.000388161 -8.32769e-05 6.62046e-11 5.01476e-11 -2.01283e-11 5e-05 1.46608e-10 
73 1 0.159865 0.0171169 0.00735556 0.00550984 -0.000409064 -7.03099e-05 7.63374e-12 8.75824e-11 -9.59936e-11 5e-05 1.46608e-10 
74 1 0.160247 0.0184496 0.00693202 0.00617082 -0.000343117 0.000490651 -5.45156e-11 -1.00781e-11 1.4896e-11 5e-05 1.46608e-10 
76 1 0.145405 0.0205718 0.00539992 7.44259e-15 9.11684e-15 -2.35014e-13 1.23612e-22 -8.30024e-23 6.20385e-25 5e-05 1.46608e-10 
77 1 0.160226 0.0183552 0.00695755 0.00617229 -0.00034583 0.00048862 6.06422e-11 -3.37936e-11 2.44673e-11 5e-05 1.46608e-10 
78 1 0.153889 0.0166348 0.00760197 0.00520071 0.000756968 -0.000233553 -1.49708e-10 1.58833e-10 -3.76843e-10 5e-05 1.46608e-10 
80 1 0.160194 0.0186075 0.00688382 0.00620721 -0.000351509 0.000483251 -2.949e-10 -2.02666e-10 8.30451e-13 5e-05 1.46608e-10 
81 1 0.153823 0.0165742 0.00752786 0.00527775 -0.00034013 0.000381425 -3.16415e-10 7.62122e-10 -6.77962e-10 5e-05 1.46608e-10 
82 1 0.153807 0.0164555 0.00770359 0.00595936 0.000388635 -0.000787024 9.17397e-10 -1.11924e-09 8.06774e-10 5e-05 1.46608e-10 
84 1 0.165971 0.0176273 0.00723538 0.0059152 0.000181239 -0.00011071 2.70037e-11 -3.64011e-11 9.24369e-12 5e-05 1.46608e-10 
85 1 0.159531 0.0157998 0.00831684 0.00607489 -4.75503e-05 0.000531467 1.20914e-11 1.31227e-10 -1.45852e-10 5e-05 1.46608e-10 
86 1 0.16012 0.0178831 0.00708503 0.00605756 -0.000334308 0.000478061 1.24149e-10 4.21045e-11 -1.11771e-11 5e-05 1.46608e-10 
87 1 0.160002 0.0177565 0.00711357 0.00550343 -0.000256453 0.000420153 3.0582e-11 -2.07794e-11 4.55009e-12 5e-05 1.46608e-10 
88 1 0.160216 0.0179154 0.00708194 0.00608477 -0.000358 0.000486579 6.03587e-11 -8.17416e-13 -2.18027e-12 5e-05 1.46608e-10 
90 1 0.160133 0.0175377 0.00718403 0.00551015 -0.000237549 0.000415857 -1.12985e-10 8.84894e-11 -1.20991e-10 5e-05 1.46608e-10 
91 1 0.159967 0.0174593 0.00728676 0.00552441 -0.000268547 0.000403736 -7.78991e-12 7.92125e-11 5.60898e-12 5e-05 1.46608e-10 
92 1 0.160237 0.0180097 0.00705648 0.00608633 -0.000358761 0.00048733 6.87587e-12 -5.26588e-11 1.24953e-11 5e-05 1.46608e-10 
93 1 0.165993 0.0177224 0.00721277 0.00593817 0.000176108 -0.000109902 1.51789e-15 -3.4974e-12 1.7428e-13 5e-05 1.46608e-10 
94 1 0.160094 0.0173497 0.00723975 0.00554454 -0.000345056 8.37779e-05 -7.91983e-11 -5.21738e-11 -4.20536e-10 5e-05 1.46608e-10 
95 1 0.159884 0.0172051 0.00731266 0.00551984 -0.000409211 -7.9161e-05 -7.33334e-11 1.07027e-10 -3.51639e-11 5e-05 1.46608e-10 
96 1 0.159904 0.0172933 0.00726976 0.00553586 -0.0004085 -8.27448e-05 6.16291e-11 1.92792e-10 1.11568e-10 5e-05 1.46608e-10 
98 1 0.160074 0.0172592 0.00727764 0.00554222 -0.000417271 -7.3048e-05 -7.26621e-12 4.2493e-11 -3.89449e-11 5e-05 1.46608e-10 
99 1 0.153951 0.0167109 0.00750567 0.005419 -0.000199339 -0.000648752 -2.48308e-10 -1.99753e-10 2.40916e-11 5e-05 1.46608e-10 
101 1 0.153802 0.0168451 0.00751196 0.00550629 -6.34113e-05 -0.00033003 2.20284e-10 2.05464e-11 1.5204e-10 5e-05 1.46608e-10 
102 1 0.0694385 0.0202053 0.00537268 3.89629e-15 4.48409e-15 -7.68289e-14 -2.58856e-22 7.91134e-22 3.28804e-23 5e-05 1.46608e-10 
104 1 0.0249839 0.0195037 0.00542543 -3.58898e-15 -5.78172e-16 5.85127e-14 5.81611e-25 -4.31039e-24 0 5e-05 1.46608e-10 
106 1 0.148206 0.0186517 0.00688935 0.00615054 -0.000621539 0.000331227 9.81545e-11 -9.85208e-11 4.9238e-11 5e-05 1.46608e-10 
107 1 0.153727 0.016513 0.0076843 0.00560129 -4.99659e-05 -0.000220791 3.93611e-10 -3.93678e-10 2.22322e-10 5e-05 1.46608e-10 
108 1 0.1599 0.0172859 0.00736942 0.00553719 -0.000409021 -9.23294e-05 -6.48822e-12 5.14826e-11 3.96744e-11 5e-05 1.46608e-10 
110 1 0.160169 0.0172868 0.0072599 0.0055204 -0.000430867 -6.53374e-05 -5.9085e-11 1.09461e-10 -5.89989e-11 5e-05 1.46608e-10 
111 1 0.153878 0.0167786 0.00751194 0.00550597 -0.000129075 -0.000509695 -1.14783e-10 2.86049e-11 3.60932e-10 5e-05 1.46608e-10 
112 1 0.153681 0.0163234 0.00790464 0.00565362 9.70797e-05 5.52469e-05 5.03132e-12 2.20396e-10 1.06848e-10 5e-05 1.46608e-10 
115 1 0.159943 0.0174725 0.00719057 0.00553648 -0.000231006 0.000410569 1.18069e-11 7.57345e-11 -1.23207e-11 5e-05 1.46608e-10 
116 1 0.160188 0.0173808 0.00723215 0.00556869 -0.000294557 0.000440539 -1.39234e-10 5.95705e-11 -2.1169e-11 5e-05 1.46608e-10 
117 1 0.160153 0.0176323 0.00715842 0.00567838 -0.000266735 0.000434989 -1.90161e-11 9.89628e-11 -1.1491e-11 5e-05 1.46608e-10 
118 1 0.153764 0.0166529 0.00754708 0.00550451 -5.47064e-05 -0.000234838 -2.64764e-10 -2.16857e-10 6.20952e-10 5e-05 1.46608e-10 
119 1 0.160216 0.0187047 0.00687456 0.00621325 -0.000468462 -0.000642079 2.87523e-10 1.61955e-10 -1.95915e-10 5e-05 1.46608e-10 
120 1 0.159466 0.0156145 0.00854353 0.00606262 -4.75817e-05 0.000530103 6.20465e-11 1.96409e-10 -2.50551e-10 5e-05 1.46608e-10 
121 1 0.16013 0.0171121 0.00734492 0.00551369 -0.000431226 -6.50674e-05 -1.43911e-10 1.05716e-10 -5.82458e-11 5e-05 1.46608e-10 
122 1 0.160173 0.0177267 0.0071329 0.00592821 -0.000316088 0.00046504 9.02591e-11 4.86441e-11 -1.43748e-11 5e-05 1.46608e-10 
124 1 0.160151 0.0184179 0.006935 0.00616465 -0.000340564 0.000487574 -7.60923e-11 -2.33226e-10 5.55298e-11 5e-05 1.46608e-10 
125 1 0.159901 0.0168804 0.0074663 0.00545225 -0.000407399 -7.1332e-05 6.97814e-11 6.76726e-11 -2.85664e-11 5e-05 1.46608e-10 
126 1 0.159787 0.0167648 0.00752683 0.0055136 -0.000429062 -6.61128e-05 -3.83991e-13 5.87904e-11 -2.82724e-11 5e-05 1.46608e-10 
127 1 0.153779 0.0166527 0.00766784 0.00582947 -3.22669e-05 -0.000310596 -2.68242e-10 -9.89812e-10 2.78228e-10 5e-05 1.46608e-10 
128 1 0.160141 0.0179778 0.00705947 0.00606914 -0.000373681 0.000490206 -2.25748e-11 2.9669e-11 -2.54771e-11 5e-05 1.46608e-10 
129 1 0.15395 0.0175468 0.00744836 0.00561216 -0.000159694 -0.000283861 4.6373e-11 4.6074e-11 1.44859e-11 5e-05 1.46608e-10 
131 1 0.153935 0.0170719 0.00748629 0.00564092 -0.000175252 -0.000283123 1.19437e-10 3.09403e-11 -5.11725e-11 5e-05 1.46608e-10 
132 1 0.159982 0.0176618 0.00713924 0.0055087 -0.000248896 0.000419805 -4.02616e-11 -1.90808e-11 1.76629e-11 5e-05 1.46608e-10 
133 1 0.160303 0.017507 0.00720354 0.00571418 -0.000433255 0.000480822 -2.19201e-10 7.11764e-11 3.39826e-11 5e-05 1.46608e-10 
134 1 0.160099 0.017999 0.00714776 0.00583733 -0.000375207 0.000379755 -3.48331e-11 -3.41768e-14 -5.99547e-11 5e-05 1.46608e-10 
135 1 0.159846 0.0170336 0.00740747 0.00548223 -0.000395259 -4.2179e-05 -5.81407e-11 5.94483e-11 -1.89428e-10 5e-05 1.46608e-10 
136 1 0.153922 0.0165693 0.00753423 0.00530659 0.000655743 -0.000120134 2.19843e-10 1.7409e-10 -2.50388e-10 5e-05 1.46608e-10 
137 1 0.160162 0.0180721 0.00703401 0.00606901 -0.000381646 0.000491954 9.8559e-11 2.23606e-11 3.78701e-12 5e-05 1.46608e-10 
138 1 0.159924 0.0173815 0.00722706 0.0055437 -0.000392648 -2.80021e-05 8.97753e-12 2.24177e-10 3.21748e-10 5e-05 1.46608e-10 
140 1 0.160205 0.0182608 0.00698306 0.00614582 -0.000348544 0.000487366 -4.03677e-12 -2.28396e-11 1.34699e-12 5e-05 1.46608e-10 
141 1 0.153707 0.0164312 0.00773837 0.0055984 4.96499e-05 -4.40656e-06 2.70178e-10 2.01024e-10 2.77671e-10 5e-05 1.46608e-10 
143 1 0.393994 0.0150325 6.48596e-05 -2.1271e-21 1.6267e-21 -1.45327e-21 0 0 0 5e-05 1.46608e-10 
146 1 0.153897 0.0168765 0.00750362 0.00553403 -0.000138995 -0.000284813 1.30725e-10 1.11507e-10 2.22201e-11 5e-05 1.46608e-10 
147 1 0.153977 0.0172667 0.00746884 0.00561367 -0.000158779 -0.000282839 5.98158e-11 -3.10248e-11 -4.23158e-12 5e-05 1.46608e-10 
148 1 0.00854345 0.0175101 0.00792352 -4.31115e-10 -0.0221092 0.00950667 4.17628e-19 8.59807e-12 2.0051e-11 5e-05 1.46608e-10 
149 1 0.160077 0.0176944 0.007136 0.00477013 -0.000116435 0.00033491 -1.73738e-10 3.28468e-10 -9.54487e-11 5e-05 1.46608e-10 
150 1 0.153548 0.0160045 0.00839484 0.00585688 -2.10224e-05 0.000201182 4.57864e-11 3.90851e-10 -5.64497e-10 5e-05 1.46608e-10 
151 1 0.153999 0.0173639 0.00746009 0.00561897 -0.000157513 -0.000284307 -5.28252e-11 -4.77483e-12 -8.23056e-12 5e-05 1.46608e-10 
154 1 0.153972 0.0168095 0.00749917 0.00552079 -0.000171578 -0.000655235 -8.92784e-11 -1.63711e-10 1.05179e-10 5e-05 1.46608e-10 
155 1 0.148302 0.0186827 0.00688025 0.00556927 -0.000495627 0.000276674 -8.88302e-11 1.18526e-10 -7.26817e-11 5e-05 1.46608e-10 
157 1 0.15384 0.0170407 0.00749379 0.00553903 -5.20952e-05 -0.000285992 -3.50219e-10 1.70858e-10 3.20836e-11 5e-05 1.46608e-10 
165 1 0.154066 0.0168418 0.00748648 0.0055282 -0.000193983 -0.000666814 -1.51249e-10 -9.24954e-11 7.35394e-12 5e-05 1.46608e-10 
166 1 0.159728 0.0165078 0.00766514 0.00555238 -0.000419017 -5.73153e-05 1.05484e-11 -1.82867e-10 8.85742e-11 5e-05 1.46608e-10 
168 1 0.194338 0.0169927 0.00818929 1.65972e-05 -0.0113892 0.00682058 2.49938e-13 1.54201e-10 -9.76883e-11 5e-05 1.46608e-10 
171 1 0.159807 0.016853 0.00748392 0.00545195 -0.000413997 -6.62916e-05 2.68196e-11 8.66228e-11 -4.90084e-11 5e-05 1.46608e-10 
172 1 0.153842 0.0168143 0.00759819 0.00566294 -0.00017557 -0.00044471 2.80154e-12 7.18047e-11 1.61059e-11 5e-05 1.46608e-10 
176 1 0.153634 0.0162173 0.00806762 0.00592512 3.75893e-05 0.000104119 -2.76158e-10 -1.22521e-10 -2.81783e-10 5e-05 1.46608e-10 
177 1 0.153692 0.016378 0.00782166 0.00562482 0.000120552 6.50697e-05 -7.14721e-10 3.42465e-10 2.3454e-10 5e-05 1.46608e-10 
179 1 0.14826 0.0184976 0.00694428 0.00612743 -0.000616764 0.000327573 7.15992e-11 1.18167e-10 -6.15205e-11 5e-05 1.46608e-10 
181 1 0.153613 0.0161641 0.00814947 0.00583766 4.27941e-05 0.000100755 -1.68175e-10 4.37708e-10 -3.61662e-10 5e-05 1.46608e-10 
182 1 0.15996 0.0171442 0.00733795 0.00552057 -0.000409431 -7.74608e-05 -5.08217e-11 6.67103e-11 -2.88554e-11 5e-05 1.46608e-10 
184 1 0.16013 0.0183229 0.00696065 0.00613544 -0.0003534 0.000490581 3.02888e-11 6.24215e-11 -3.11259e-11 5e-05 1.46608e-10 
187 1 0.160026 0.0177554 0.00721055 0.00550503 -0.000233949 0.000418611 4.87424e-11 5.03381e-12 2.11112e-11 5e-05 1.46608e-10 
188 1 0.160126 0.0177756 0.00720578 0.00599324 -0.000285973 0.000486247 -8.52995e-11 -7.45867e-11 -7.67615e-11 5e-05 1.46608e-10 
189 1 0.159999 0.0173206 0.00725214 0.00553586 -0.000441836 -5.97912e-05 -4.49689e-11 9.60833e-11 -7.62164e-11 5e-05 1.46608e-10 
191 1 0.160023 0.0178508 0.0070881 0.00598917 -0.000357993 0.000480439 2.11628e-11 4.67163e-11 -1.61803e-11 5e-05 1.46608e-10 
192 1 0.150991 0.0179907 0.00711034 0.00556617 -0.000474543 3.69529e-05 -3.66819e-13 4.86946e-13 -1.45409e-13 5e-05 1.46608e-10 
193 1 0.162745 0.0168243 0.0074702 0.00555422 -0.00112771 0.000189892 5.77714e-13 3.55692e-13 -8.78684e-14 5e-05 1.46608e-10 
197 1 0.153526 0.0159513 0.00847669 0.00582203 -2.73606e-05 0.000210635 1.45432e-10 3.34911e-10 -5.54343e-10 5e-05 1.46608e-10 
198 1 0.153956 0.0171695 0.00747759 0.00561461 -0.000161645 -0.00028323 1.87735e-10 -1.65107e-11 -4.13089e-11 5e-05 1.46608e-10 
200 1 0.153994 0.0177413 0.00743086 0.00561792 -0.00015835 -0.000283906 1.90423e-11 6.86925e-12 -7.90015e-12 5e-05 1.46608e-10 
201 1 0.154015 0.0174708 0.00745088 0.0056125 -0.000153754 -0.000283562 9.06251e-11 6.11448e-11 -2.44991e-12 5e-05 1.46608e-10 
203 1 0.160044 0.0179452 0.00706263 0.00603185 -0.000350712 0.000480134 8.53756e-12 -1.93904e-13 -6.17035e-12 5e-05 1.46608e-10 
204 1 0.148185 0.0185593 0.00692129 0.00609892 -0.000643742 0.00033608 -2.66323e-10 -2.01938e-10 8.4208e-11 5e-05 1.46608e-10 
206 1 0.148226 0.0187443 0.00685731 0.00555959 -0.000500858 0.00027841 -5.01135e-12 1.66557e-10 -5.71971e-11 5e-05 1.46608e-10 
207 1 0.060646 0.0186723 0.00546139 1.16179e-15 5.18607e-15 3.71388e-14 3.96788e-24 -1.68021e-24 2.06795e-25 5e-05 1.46608e-10 
208 1 0.153924 0.0174301 0.00745887 0.00561632 -0.000155343 -0.000283894 3.93081e-11 1.18528e-10 -4.2042e-11 5e-05 1.46608e-10 
209 1 0.147995 0.017728 0.00720879 0.00581021 -0.000602184 0.000316233 -4.27423e-11 -3.58268e-10 4.11601e-11 5e-05 1.46608e-10 
210 1 0.16011 0.0170223 0.00738857 0.00547435 -0.000414596 -7.10847e-05 -1.39771e-10 -1.18863e-11 1.24184e-11 5e-05 1.46608e-10 
211 1 0.153972 0.0176441 0.00743961 0.0056145 -0.000160338 -0.000283911 1.405e-11 2.02719e-11 2.31209e-12 5e-05 1.46608e-10 
212 1 0.153784 0.0167471 0.00751971 0.00551433 -7.26612e-05 -0.000269672 4.11878e-10 -8.8719e-11 -1.0967e-11 5e-05 1.46608e-10 
213 1 0.160039 0.0179196 0.00715914 0.006032 -0.000336933 0.000479368 -3.51018e-11 4.90143e-11 -1.89222e-11 5e-05 1.46608e-10 
214 1 0.16027 0.0177588 0.00712985 0.00604209 -0.000375361 0.000489421 -1.69467e-11 -1.15357e-10 1.94197e-11 5e-05 1.46608e-10 
217 1 0.15992 0.0169687 0.00742337 0.00549716 -0.00041133 -7.32197e-05 1.83933e-10 2.85057e-11 -1.82918e-11 5e-05 1.46608e-10 
218 1 0.160294 0.0178564 0.00710364 0.00608128 -0.00036448 0.000488354 9.93506e-11 -5.82708e-11 2.14353e-11 5e-05 1.46608e-10 
221 1 0.147931 0.0174509 0.00730462 0.00574287 -0.000587926 0.000314455 -3.43021e-10 1.0971e-10 -5.29797e-11 5e-05 1.46608e-10 
222 1 0.159613 0.0160478 0.00801415 0.00578389 -8.11789e-06 0.000478888 -1.0254e-10 -9.18509e-11 4.81534e-11 5e-05 1.46608e-10 
223 1 0.168568 0.0161078 0.00793652 0.00591028 -0.00141154 0.0012166 -2.24437e-14 1.15857e-12 -3.41107e-13 5e-05 1.46608e-10 
225 1 0.160098 0.0177888 0.0071105 0.00599395 -0.000354496 0.000478094 -1.98811e-11 1.94093e-10 -5.23931e-11 5e-05 1.46608e-10 
226 1 0.153859 0.0171384 0.00748513 0.00562634 -6.54417e-05 -0.000295323 -8.53778e-11 1.12168e-11 8.42981e-11 5e-05 1.46608e-10 
228 1 0.0507861 0.0189683 0.00558458 -5.32582e-15 -1.91134e-14 -2.87013e-13 2.07529e-22 -4.5482e-23 -1.44757e-24 5e-05 1.46608e-10 
231 1 0.197479 0.018695 0.00523156 -1.09826e-15 -2.69836e-14 1.45243e-13 -4.79191e-22 -1.13737e-24 -3.10193e-24 5e-05 1.46608e-10 
232 1 0.189081 0.0184947 0.00541361 -2.15741e-15 1.31642e-15 5.80687e-14 9.57074e-24 9.96947e-23 -1.44757e-24 5e-05 1.46608e-10 
234 1 0.160208 0.0174754 0.00720651 0.00567296 -0.000310333 0.000450803 -7.85412e-11 -1.47169e-11 -5.3618e-11 5e-05 1.46608e-10 
235 1 0.194679 0.0184196 0.00544868 1.52321e-14 9.62547e-14 2.34551e-13 8.29119e-23 -7.25851e-23 2.50222e-23 5e-05 1.46608e-10 
238 1 0.148016 0.0178203 0.00717685 0.00588374 -0.000594783 0.00032058 -3.46184e-10 1.37326e-10 -5.77659e-11 5e-05 1.46608e-10 
239 1 0.147831 0.0169918 0.0074743 0.00538564 -0.000928155 -0.000570472 -8.56794e-11 -7.46376e-11 9.79456e-11 5e-05 1.46608e-10 
240 1 0.14791 0.0173585 0.00733657 0.00569282 -0.000588415 0.000310256 2.38065e-11 -4.04469e-11 -6.48557e-12 5e-05 1.46608e-10 
241 1 0.147851 0.0170806 0.00743274 0.00539644 -0.000533126 0.000284179 -8.69821e-12 1.59723e-11 5.26962e-11 5e-05 1.46608e-10 
242 1 0.14832 0.0187778 0.00684731 0.00558764 -0.000700702 0.00034843 6.64665e-12 -1.17418e-11 4.24442e-12 5e-05 1.46608e-10 
243 1 0.147812 0.0169157 0.00753637 0.00535762 -0.000920951 -0.000574054 3.87007e-11 -1.55089e-10 7.53241e-11 5e-05 1.46608e-10 
244 1 0.14787 0.0171733 0.00740066 0.00539874 -0.000529642 0.00028431 -7.31464e-11 8.5478e-11 -2.51182e-11 5e-05 1.46608e-10 
245 1 0.148037 0.0179127 0.0071449 0.00589674 -0.00061568 0.000324073 3.61757e-10 1.68422e-10 3.81168e-11 5e-05 1.46608e-10 
246 1 0.147953 0.0175432 0.00727268 0.00579149 -0.000600775 0.000317426 1.1322e-10 2.53788e-10 -5.05883e-11 5e-05 1.46608e-10 
248 1 0.153593 0.0161143 0.00823408 0.00575163 3.77119e-06 0.000100551 -1.1964e-10 1.10371e-10 -8.14425e-10 5e-05 1.46608e-10 
249 1 0.148079 0.0180975 0.00708102 0.00596205 -0.000595583 0.000320389 -4.14557e-10 -1.80856e-10 -7.03826e-12 5e-05 1.46608e-10 
250 1 0.154984 0.0156925 0.0147874 0.00759195 -0.00439754 -0.0028018 5.28346e-12 -1.9444e-11 -1.06255e-11 5e-05 1.46608e-10 
251 1 0.160038 0.0175051 0.0071873 0.0055336 -0.000235032 0.000415151 -5.06062e-11 4.13391e-11 -4.36841e-11 5e-05 1.46608e-10 
252 1 0.148058 0.0180051 0.00711296 0.00590601 -0.000613572 0.000320287 7.33066e-11 -2.78868e-10 6.4529e-11 5e-05 1.46608e-10 
254 1 0.126379 0.0172077 0.00805664 -1.24616e-05 -0.0146116 0.00722994 -2.24157e-13 1.34166e-10 -7.52859e-11 5e-05 1.46608e-10 
255 1 0.153821 0.0169428 0.00750243 0.0055092 -5.18593e-05 -0.000287378 -3.67831e-11 9.67915e-11 -4.99387e-11 5e-05 1.46608e-10 
256 1 0.161208 0.0171617 0.00808719 -1.19773e-10 -0.0210937 0.011673 -9.07867e-19 1.05719e-11 1.91276e-11 5e-05 1.46608e-10 
257 1 0.153916 0.0169743 0.00749497 0.00560724 -0.000165189 -0.000275311 9.66672e-11 8.49749e-11 -1.69276e-10 5e-05 1.46608e-10 
258 1 0.153825 0.0167162 0.00760551 0.00592056 -0.000278744 -0.000523705 -3.2366e-10 -1.32883e-10 5.47786e-10 5e-05 1.46608e-10 
259 1 0.148101 0.0181898 0.00704907 0.00600564 -0.000607347 0.00032604 2.04552e-10 2.24084e-10 -2.27623e-12 5e-05 1.46608e-10 
260 1 0.153991 0.0169076 0.00749296 0.00554244 -0.000168116 -0.000670975 -1.46915e-10 -1.61598e-10 4.90488e-12 5e-05 1.46608e-10 
261 1 0.15401 0.0170055 0.00748672 0.00557185 -0.000161371 -0.000635073 -5.56047e-11 -1.65118e-10 -1.47482e-10 5e-05 1.46608e-10 
262 1 0.15403 0.0171031 0.00747883 0.00562755 -0.000138003 -0.00028307 5.43001e-11 -1.21983e-10 -1.39007e-11 5e-05 1.46608e-10 
263 1 0.148282 0.0185901 0.00691231 0.00615333 -0.000610035 0.000327057 6.8274e-11 8.3016e-11 -4.92367e-11 5e-05 1.46608e-10 
265 1 0.154105 0.0170362 0.00747402 0.00556789 -0.000168765 -0.000671384 -1.85791e-10 4.37238e-11 8.75927e-11 5e-05 1.46608e-10 
270 1 0.160136 0.0181702 0.00709616 0.00582551 -0.000212459 0.000331281 2.45414e-12 2.0741e-12 5.07385e-11 5e-05 1.46608e-10 
271 1 0.208757 0.017686 0.00784738 -1.34911e-11 -0.0225735 0.00843482 -1.25306e-18 7.64012e-12 2.04662e-11 5e-05 1.46608e-10 
272 1 0.148143 0.0183746 0.00698518 0.00605247 -0.000621637 0.000330155 -3.46451e-10 2.6436e-11 -9.50167e-11 5e-05 1.46608e-10 
273 1 0.111297 0.0182035 0.00769476 -0.0178279 0.00419818 -0.000841892 4.0479e-10 -2.48401e-10 2.46224e-11 5e-05 1.46608e-10 
274 1 0.148122 0.0182822 0.00701713 0.00600342 -0.000626419 0.000326155 2.42818e-10 -1.11469e-10 7.28649e-11 5e-05 1.46608e-10 
275 1 0.154073 0.0172963 0.00746149 0.00561732 -0.000155413 -0.000284469 2.43554e-11 1.40702e-10 2.20171e-12 5e-05 1.46608e-10 
276 1 0.153857 0.0166797 0.00751836 0.00530929 -0.000238929 -0.000719124 1.90927e-09 -3.96159e-10 -1.02639e-09 5e-05 1.46608e-10 
277 1 0.153745 0.0165779 0.00761049 0.00546395 -3.45085e-05 -0.000277836 2.41633e-10 -9.09865e-10 4.48438e-10 5e-05 1.46608e-10 
279 1 0.148386 0.018633 0.00689923 0.00557571 -0.000489406 0.000274209 -1.71353e-10 1.00973e-12 8.09911e-12 5e-05 1.46608e-10 
282 1 0.147974 0.0176356 0.00724074 0.00579386 -0.000615048 0.000320718 2.87973e-10 -7.25601e-12 4.69129e-11 5e-05 1.46608e-10 
283 1 0.14789 0.0172659 0.00736859 0.00553833 -0.000556324 0.000297018 5.21489e-11 4.54978e-11 -3.46605e-11 5e-05 1.46608e-10 
284 1 0.153815 0.016507 0.00761824 0.0055305 7.602e-05 -0.000905475 -1.4608e-10 -6.93818e-10 1.63316e-09 5e-05 1.46608e-10 
288 1 0.153915 0.0165045 0.00761001 0.00554066 -8.50092e-06 -0.000688804 -3.69661e-10 8.48926e-10 -5.17971e-11 5e-05 1.46608e-10 
293 1 0.148164 0.0184669 0.00695324 0.00607488 -0.000642356 0.000340038 2.41344e-10 1.66119e-10 5.2885e-11 5e-05 1.46608e-10 
294 1 0.152576 0.0182562 0.00546336 5.34749e-16 -1.41412e-15 1.1458e-14 1.91208e-22 9.74264e-23 3.92911e-24 5e-05 1.46608e-10 
295 1 0.175516 0.0176911 0.00783657 0.0193648 0.0318272 -0.0165903 -2.39815e-10 -2.65051e-13 -9.36634e-11 5e-05 1.46608e-10 
297 1 0.16028 0.0181984 0.00700553 0.0061398 -0.0003583 0.00049004 5.03055e-11 -6.3816e-11 2.7752e-11 5e-05 1.46608e-10 
300 1 0.15994 0.0170603 0.0073888 0.00551436 -0.000410538 -7.5884e-05 1.04193e-10 9.97618e-12 -1.81055e-11 5e-05 1.46608e-10 
