ITEM: TIMESTEP
6600000
ITEM: NUMBER OF ATOMS
284
ITEM: BOX BOUNDS ff ff ff
-0.02 0.43
-0.02 0.06
-0.02 0.07
ITEM: ATOMS id type x y z vx vy vz fx fy fz radius mass 
1 1 0.0513475 0.0164087 0.00774397 0.00600146 -0.00069858 0.000356398 -4.16598e-11 -1.25365e-10 -1.98651e-10 5e-05 1.46608e-10 
2 1 0.051657 0.0170193 0.00748425 0.00563035 -0.000341286 0.000595289 3.7692e-10 -1.37561e-10 9.03661e-11 5e-05 1.46608e-10 
3 1 0.0452371 0.0160554 0.00804078 0.00520979 0.000513292 0.00130526 -8.88287e-09 6.19694e-09 -4.05402e-09 5e-05 1.46608e-10 
4 1 0.0517194 0.0177204 0.00721106 0.00540014 -0.000311 0.000564491 -5.89593e-11 -2.04396e-11 2.30286e-12 5e-05 1.46608e-10 
5 1 0.0512409 0.0163787 0.00778104 0.00606878 -0.000823531 -1.22427e-05 -1.45685e-11 -1.62887e-10 5.51996e-10 5e-05 1.46608e-10 
6 1 0.0572978 0.016684 0.00775197 0.00602822 0.000128808 -3.21245e-05 -2.37686e-11 -6.92065e-11 6.04914e-11 5e-05 1.46608e-10 
7 1 0.0514425 0.0168564 0.00753135 0.00555665 -0.00038596 0.000607908 -9.07501e-12 -7.37546e-10 3.23467e-10 5e-05 1.46608e-10 
8 1 0.0512625 0.0161388 0.00802632 0.00583402 -0.00101074 0.000130518 -2.44474e-11 -1.47539e-10 2.05375e-10 5e-05 1.46608e-10 
9 1 0.0575298 0.0176421 0.00720152 0.00550007 0.000209149 -6.44816e-05 -2.21668e-10 3.71125e-11 -7.50207e-12 5e-05 1.46608e-10 
10 1 0.0513888 0.0170046 0.00746815 0.00560333 -0.00036798 0.000591242 6.77892e-11 1.15554e-10 -1.20814e-11 5e-05 1.46608e-10 
11 1 0.0515068 0.0171373 0.00742512 0.00563525 -0.000341587 0.000596283 1.44074e-10 -1.71843e-10 9.9746e-11 5e-05 1.46608e-10 
12 1 0.0515864 0.0175042 0.00728601 0.00532547 -0.000284628 0.000547964 2.87397e-11 -7.04399e-11 3.03182e-11 5e-05 1.46608e-10 
13 1 0.0513147 0.0167034 0.00766663 0.00559962 -0.000406263 0.00060557 1.19026e-10 6.30914e-11 -2.60374e-10 5e-05 1.46608e-10 
14 1 0.0449705 0.0156982 0.00887647 0.00550678 0.000548321 0.00154917 -2.46702e-10 -1.3497e-10 -2.28388e-10 5e-05 1.46608e-10 
15 1 0.0514919 0.0174713 0.00729133 0.00546231 -0.000302526 0.000566116 -1.60928e-11 -6.63922e-12 8.35412e-12 5e-05 1.46608e-10 
16 1 0.0449529 0.0156615 0.00896782 0.00546217 0.000557577 0.00151852 -5.06162e-11 -7.65049e-11 -1.72951e-10 5e-05 1.46608e-10 
17 1 0.0513992 0.0170729 0.00754046 0.00562252 -0.000351116 0.000582935 -1.50507e-10 6.10082e-11 1.13753e-11 5e-05 1.46608e-10 
18 1 0.0574344 0.0171688 0.00726603 0.00564202 0.00016638 -6.99922e-05 -2.39742e-10 -1.53965e-10 1.29035e-10 5e-05 1.46608e-10 
19 1 0.0511979 0.0162454 0.00792374 0.00602932 -0.000865283 -5.56222e-05 -1.95384e-10 -5.57905e-11 -1.32804e-11 5e-05 1.46608e-10 
20 1 0.0516615 0.0174452 0.00731556 0.00535459 -0.000291081 0.000552858 9.15324e-11 3.70367e-11 -8.99808e-12 5e-05 1.46608e-10 
21 1 0.0512194 0.0163107 0.0078511 0.00605477 -0.00087219 -7.4959e-05 -9.02642e-11 -2.1889e-10 3.7585e-10 5e-05 1.46608e-10 
22 1 0.0515472 0.0173206 0.00735568 0.00546459 -0.000294185 0.000563608 2.90262e-11 -2.78729e-11 -2.0691e-11 5e-05 1.46608e-10 
23 1 0.0453082 0.0167064 0.00771179 0.00588809 -0.000216708 0.000464816 -1.77756e-12 5.78697e-10 -1.89335e-11 5e-05 1.46608e-10 
24 1 0.0575105 0.017544 0.00720366 0.00560783 0.00018056 -6.53784e-05 -1.89995e-11 -1.06218e-11 -5.82354e-12 5e-05 1.46608e-10 
25 1 0.0514684 0.0169559 0.00750402 0.0056039 -0.000355321 0.000589282 1.9086e-10 8.52538e-11 -1.90046e-11 5e-05 1.46608e-10 
26 1 0.0573818 0.0169604 0.00747529 0.00564377 0.000146681 -8.04649e-05 1.34991e-09 -7.61264e-10 4.83294e-10 5e-05 1.46608e-10 
27 1 0.0452276 0.0163309 0.00782402 0.00613959 -0.000143648 0.000436701 2.21504e-10 6.38989e-10 -9.8881e-10 5e-05 1.46608e-10 
28 1 0.0513397 0.0168085 0.00763543 0.00560684 -0.000350985 0.000582892 2.48737e-12 2.10982e-11 3.68463e-11 5e-05 1.46608e-10 
29 1 0.0513606 0.0164793 0.00767435 0.00567332 -0.000348112 0.000613259 -2.8806e-10 1.42675e-10 7.35364e-11 5e-05 1.46608e-10 
30 1 0.0517752 0.0175696 0.00727547 0.00535699 -0.000319386 0.000564303 1.02003e-10 1.06386e-10 -3.48264e-11 5e-05 1.46608e-10 
31 1 0.0514721 0.0173797 0.00732609 0.00544925 -0.000303626 0.000565245 -5.0682e-13 -7.70766e-13 8.16291e-12 5e-05 1.46608e-10 
32 1 0.0515273 0.0172289 0.00739044 0.00545591 -0.000280293 0.000557149 -7.66216e-11 -6.39402e-11 1.56462e-11 5e-05 1.46608e-10 
33 1 0.0573194 0.016753 0.00768285 0.00604675 0.00012189 -2.46198e-05 4.86093e-11 -5.33887e-11 7.21458e-11 5e-05 1.46608e-10 
34 1 0.051369 0.0169238 0.0075237 0.00558776 -0.000374861 0.000502047 2.53603e-10 2.08461e-10 7.21475e-10 5e-05 1.46608e-10 
36 1 0.057549 0.0177402 0.00719937 0.00547393 0.000222575 -6.51414e-05 3.56444e-11 3.81908e-11 -1.545e-11 5e-05 1.46608e-10 
37 1 0.0514122 0.0171156 0.007451 0.00558541 -0.000350191 0.000582276 -6.24129e-11 8.04626e-12 5.48995e-11 5e-05 1.46608e-10 
38 1 0.0515671 0.0174124 0.00732085 0.00545846 -0.000300304 0.000564826 -1.03843e-10 -8.84693e-11 2.20623e-11 5e-05 1.46608e-10 
39 1 0.0574907 0.017446 0.00720581 0.00568265 0.000159286 -6.70026e-05 -4.28438e-11 4.82464e-11 -6.43862e-12 5e-05 1.46608e-10 
41 1 0.0512626 0.0164569 0.00772261 0.00604946 -0.00070136 0.00016499 1.16653e-10 -3.55642e-10 5.2148e-11 5e-05 1.46608e-10 
42 1 0.0514523 0.017288 0.00736084 0.00542805 -0.000304287 0.000564265 -3.78008e-11 -4.31666e-11 3.67402e-11 5e-05 1.46608e-10 
44 1 0.0516423 0.0173534 0.0073504 0.00545305 -0.000295169 0.000562499 -3.08959e-11 3.20413e-11 -2.07601e-12 5e-05 1.46608e-10 
45 1 0.057362 0.016891 0.00754455 0.00565138 0.000167799 -7.70129e-05 -1.77352e-11 -5.26504e-11 7.32061e-11 5e-05 1.46608e-10 
46 1 0.0574163 0.0171005 0.00733681 0.00558431 0.000156051 -6.17229e-05 8.505e-10 -1.0753e-09 2.73705e-10 5e-05 1.46608e-10 
47 1 0.0513023 0.0166193 0.007614 0.00561544 -0.000327761 0.000583401 -1.38498e-10 2.36898e-10 -1.88487e-11 5e-05 1.46608e-10 
48 1 0.0516225 0.0172618 0.00738516 0.00547178 -0.000286702 0.000561703 -4.16496e-11 -1.69633e-11 2.46248e-11 5e-05 1.46608e-10 
49 1 0.057398 0.0170299 0.00740526 0.00570561 9.11426e-05 -3.86408e-05 2.56154e-09 -1.44474e-09 9.59128e-10 5e-05 1.46608e-10 
50 1 0.0516443 0.0177794 0.0071815 0.00541245 -0.000303704 0.000562555 -1.60791e-11 -1.29709e-11 2.9352e-12 5e-05 1.46608e-10 
51 1 0.051625 0.0176876 0.00721634 0.00537849 -0.000335161 0.000571962 -1.34285e-10 1.11592e-10 -5.86233e-11 5e-05 1.46608e-10 
52 1 0.0517799 0.0184214 0.00693775 0.00554547 -0.000319285 0.000579031 -1.00313e-10 2.7053e-11 2.25362e-11 5e-05 1.46608e-10 
53 1 0.0574511 0.01725 0.00721011 0.00571379 0.000151938 -6.89401e-05 -1.62096e-10 1.90793e-10 3.05299e-11 5e-05 1.46608e-10 
54 1 0.0513269 0.0163375 0.00781105 0.00605235 -0.00090323 0.000203341 -4.4696e-10 -3.03657e-12 -2.87772e-10 5e-05 1.46608e-10 
55 1 0.045013 0.0157743 0.00869659 0.0056197 0.000521833 0.00161633 7.68448e-10 4.04895e-11 6.29941e-10 5e-05 1.46608e-10 
56 1 0.0514318 0.0171965 0.00739551 0.00563016 -0.000348111 0.000597636 7.20177e-11 -3.66152e-11 2.14692e-11 5e-05 1.46608e-10 
57 1 0.0573409 0.016822 0.00761374 0.00605088 0.000114553 -1.76644e-05 -5.92742e-11 -1.23075e-10 8.40638e-11 5e-05 1.46608e-10 
59 1 0.0515623 0.016987 0.00748932 0.00562582 -0.000330061 0.000590454 3.49532e-10 -1.29099e-10 8.27197e-11 5e-05 1.46608e-10 
60 1 0.0515822 0.0170786 0.00745458 0.00564126 -0.000331078 0.000591216 2.55668e-10 -1.5834e-10 9.28122e-11 5e-05 1.46608e-10 
61 1 0.051283 0.0165424 0.00767496 0.00562704 -0.000399996 0.000508025 -6.26411e-10 1.56892e-10 -1.40872e-10 5e-05 1.46608e-10 
62 1 0.0516808 0.0175369 0.00728072 0.00535326 -0.000294708 0.00055428 1.65737e-10 1.66621e-12 1.17316e-11 5e-05 1.46608e-10 
63 1 0.0516027 0.0171701 0.00741991 0.00549854 -0.000294393 0.000565841 -1.40268e-10 -1.18311e-10 3.4644e-11 5e-05 1.46608e-10 
64 1 0.0574711 0.0173479 0.00720796 0.00568819 0.000152026 -6.70961e-05 5.68615e-12 1.48524e-10 -2.2635e-11 5e-05 1.46608e-10 
65 1 0.0452679 0.0165186 0.00776791 0.00604692 1.79933e-05 0.000400216 -5.20052e-10 -9.90679e-10 2.74401e-10 5e-05 1.46608e-10 
66 1 0.0452803 0.016199 0.00790914 0.00597584 0.00028546 0.00129194 6.06609e-10 3.43795e-10 5.2781e-10 5e-05 1.46608e-10 
67 1 0.0517171 0.0172941 0.00738005 0.00546261 -0.000268397 0.000552385 -2.61195e-10 -1.01217e-11 -2.53634e-11 5e-05 1.46608e-10 
68 1 0.0516056 0.0175959 0.00725117 0.00536127 -0.000275576 0.000547382 1.07258e-10 -3.63366e-11 2.47913e-11 5e-05 1.46608e-10 
69 1 0.0514821 0.0170446 0.0074599 0.00556914 -0.000356081 0.000594118 -1.54022e-11 4.19847e-11 -3.97491e-11 5e-05 1.46608e-10 
70 1 0.0515304 0.0176548 0.00722165 0.00535458 -0.000287856 0.000552858 -1.15516e-10 -1.03831e-10 2.0369e-11 5e-05 1.46608e-10 
71 1 0.0449896 0.0157351 0.00878552 0.00557127 0.000541315 0.00158683 -2.58448e-10 -4.37029e-11 -2.63716e-11 5e-05 1.46608e-10 
72 1 0.0517001 0.0176286 0.00724589 0.00537359 -0.000302861 0.000559158 2.66609e-11 7.10485e-12 2.08332e-12 5e-05 1.46608e-10 
73 1 0.0514396 0.016932 0.00759675 0.00556373 -0.000368376 0.000577305 6.53136e-11 1.52062e-11 -1.01457e-10 5e-05 1.46608e-10 
74 1 0.0518696 0.0176023 0.00727021 0.0053988 -0.000316138 0.000566423 2.97252e-11 5.2449e-11 -1.76889e-11 5e-05 1.46608e-10 
76 1 0.0460055 0.0178074 0.00741401 0.0060083 0.000244209 0.000329799 1.28571e-09 -8.20153e-10 3.60769e-10 5e-05 1.46608e-10 
77 1 0.051766 0.0187678 0.00686093 0.00581718 -0.000490968 0.000106933 -2.13366e-11 -3.31509e-11 9.77112e-11 5e-05 1.46608e-10 
78 1 0.0450868 0.0159318 0.00833716 0.00592486 0.000599196 0.00170941 3.05529e-11 2.39677e-10 -4.75948e-10 5e-05 1.46608e-10 
79 1 0.0453283 0.0168002 0.00768375 0.00582821 -0.000310656 0.000493504 1.03408e-10 -1.43244e-10 3.37865e-11 5e-05 1.46608e-10 
80 1 0.0516271 0.0181135 0.00704749 0.00548332 -0.000308069 0.000570135 6.89599e-11 2.2885e-10 -8.16176e-11 5e-05 1.46608e-10 
81 1 0.0452477 0.0164247 0.00779595 0.00615518 -9.56784e-05 0.000448084 6.35356e-10 -4.48415e-10 -5.67128e-10 5e-05 1.46608e-10 
82 1 0.045288 0.0166124 0.00773987 0.00595974 -0.000191346 0.000462479 3.96796e-10 8.89983e-10 -1.43825e-10 5e-05 1.46608e-10 
83 1 0.0451873 0.0161432 0.00788028 0.00624834 -0.00020868 0.000395192 -1.62306e-10 -1.04622e-09 -5.48843e-10 5e-05 1.46608e-10 
84 1 0.0575685 0.0178382 0.00719722 0.0054867 0.000226025 -6.54727e-05 -1.17846e-11 5.16256e-11 -1.95387e-11 5e-05 1.46608e-10 
85 1 0.0511556 0.0161147 0.00806908 0.00596783 -0.000886564 -2.46808e-05 1.22117e-10 1.72277e-11 -3.5713e-11 5e-05 1.46608e-10 
86 1 0.051683 0.0179628 0.00711185 0.00545799 -0.000305121 0.000566895 -6.15799e-12 6.39353e-11 -2.19614e-11 5e-05 1.46608e-10 
87 1 0.0516395 0.0169273 0.00751932 0.00562264 -0.000341046 0.000593913 3.37469e-10 -1.33763e-10 5.94372e-11 5e-05 1.46608e-10 
88 1 0.0517045 0.0184804 0.00690819 0.00556911 -0.000304022 0.000574835 6.65164e-11 8.32617e-11 -6.6861e-11 5e-05 1.46608e-10 
89 1 0.0517217 0.0181463 0.0070422 0.00549931 -0.000309968 0.000571942 5.0901e-11 2.91555e-11 6.02716e-12 5e-05 1.46608e-10 
90 1 0.0517945 0.0176613 0.00724064 0.00539822 -0.000314984 0.000566017 -2.0403e-10 -1.83058e-10 5.57457e-11 5e-05 1.46608e-10 
91 1 0.0515497 0.0177465 0.00718682 0.0053914 -0.000310637 0.000563124 6.59238e-11 1.75631e-10 -5.2672e-11 5e-05 1.46608e-10 
92 1 0.0518139 0.0177531 0.00720579 0.00539759 -0.000340335 0.000576023 -4.75689e-12 -6.70377e-11 2.41015e-11 5e-05 1.46608e-10 
93 1 0.0518355 0.0182707 0.00700211 0.00549142 -0.000350503 0.0005885 -1.76053e-10 8.82652e-11 -4.10464e-11 5e-05 1.46608e-10 
94 1 0.0517023 0.0180546 0.00707702 0.00548257 -0.000309206 0.000570269 4.57277e-12 9.35207e-11 -3.95195e-11 5e-05 1.46608e-10 
95 1 0.0516078 0.0180218 0.00708232 0.00546558 -0.000293521 0.000563267 -1.92369e-11 -1.79936e-11 8.8692e-12 5e-05 1.46608e-10 
96 1 0.0517774 0.0179955 0.00710659 0.0054716 -0.000323456 0.000575353 -7.99715e-11 2.1926e-11 -2.66699e-11 5e-05 1.46608e-10 
97 1 0.045447 0.0169304 0.007651 0.0057939 -0.00011813 0.000425171 8.1046e-11 7.62576e-11 -2.75866e-10 5e-05 1.46608e-10 
98 1 0.0517438 0.0186703 0.00685697 0.00556734 -0.000436376 0.000282529 7.58619e-12 1.64215e-11 1.24178e-10 5e-05 1.46608e-10 
99 1 0.0453485 0.0168941 0.00765571 0.00581883 -0.000133445 0.000433227 7.42644e-11 1.81582e-10 -1.71091e-10 5e-05 1.46608e-10 
100 1 0.0518889 0.017694 0.00723537 0.00540027 -0.000340378 0.000576198 8.08024e-11 -1.07915e-11 1.18252e-11 5e-05 1.46608e-10 
101 1 0.045306 0.0162736 0.0078478 0.00608864 -0.000111832 0.000828234 3.90159e-10 5.1079e-10 -3.64307e-10 5e-05 1.46608e-10 
102 1 0.0694385 0.0202053 0.00537268 3.84657e-15 4.4772e-15 -7.68317e-14 -8.98628e-22 9.3664e-22 1.42689e-23 5e-05 1.46608e-10 
104 1 0.0454067 0.0167427 0.00770708 0.00587325 -0.000179542 0.000453297 2.19258e-10 -1.15e-10 -4.11148e-11 5e-05 1.46608e-10 
105 1 0.0451424 0.0160294 0.00805968 0.00585018 0.000655658 0.00171175 -8.92011e-09 -3.13078e-09 8.29982e-11 5e-05 1.46608e-10 
106 1 0.0455103 0.0172114 0.00756723 0.00620805 -0.000238228 0.000498691 -1.06439e-10 1.6661e-10 -5.30736e-12 5e-05 1.46608e-10 
107 1 0.0451043 0.0159557 0.00824165 0.00601585 0.000622561 0.00173239 -2.39391e-10 1.4375e-10 -6.78979e-10 5e-05 1.46608e-10 
108 1 0.051348 0.0168231 0.00753686 0.00560764 -0.000330267 0.000587884 -8.38951e-12 -4.88775e-11 2.13482e-11 5e-05 1.46608e-10 
109 1 0.0515691 0.0178383 0.00715198 0.00541761 -0.000303438 0.000562643 -2.55398e-11 -6.90211e-11 2.23014e-11 5e-05 1.46608e-10 
110 1 0.051741 0.018238 0.00700737 0.00551585 -0.000309919 0.000574056 -6.8244e-12 3.4383e-12 -2.71765e-11 5e-05 1.46608e-10 
111 1 0.0518362 0.0187015 0.00683479 0.00554887 -0.000676397 -0.000132889 -1.7337e-11 2.74675e-11 -3.44329e-11 5e-05 1.46608e-10 
112 1 0.0452074 0.016237 0.00785203 0.00618468 -0.000137456 0.00047301 -5.33058e-10 5.73121e-10 6.29149e-11 5e-05 1.46608e-10 
113 1 0.0455216 0.0168684 0.00767546 0.00563238 -0.000331236 0.000479406 -4.94261e-10 -4.20133e-10 -2.63043e-10 5e-05 1.46608e-10 
115 1 0.0515884 0.01793 0.00711714 0.00543982 -0.000293736 0.000559945 -3.12328e-11 -1.3434e-10 4.15641e-11 5e-05 1.46608e-10 
116 1 0.051545 0.016895 0.00752443 0.00562067 -0.000335948 0.000591996 2.15791e-10 -3.03017e-11 3.12958e-11 5e-05 1.46608e-10 
117 1 0.0514529 0.0167369 0.00757965 0.00562121 -0.000330951 0.000590475 1.58876e-12 2.21718e-10 -7.32926e-11 5e-05 1.46608e-10 
118 1 0.0450477 0.0158457 0.00851309 0.00577594 0.000574327 0.00166592 -6.85908e-10 -2.88058e-10 1.51933e-10 5e-05 1.46608e-10 
119 1 0.0517559 0.0174778 0.0073103 0.00534353 -0.000308914 0.000559072 1.10651e-10 8.03753e-11 -2.18792e-11 5e-05 1.46608e-10 
120 1 0.0511765 0.0161801 0.00799639 0.00599096 -0.000875013 -3.61688e-05 1.96056e-10 1.28456e-11 -5.6279e-11 5e-05 1.46608e-10 
121 1 0.0512839 0.0162041 0.00795367 0.00597022 -0.001031 0.000133346 2.22664e-10 -1.95759e-10 1.37998e-10 5e-05 1.46608e-10 
122 1 0.0517968 0.0180872 0.00707176 0.00549228 -0.000320157 0.000575792 4.57155e-11 2.13093e-11 4.41142e-12 5e-05 1.46608e-10 
123 1 0.0451656 0.0160741 0.00794926 0.00619261 0.00071074 0.00142717 1.63423e-09 5.2153e-10 2.51439e-09 5e-05 1.46608e-10 
124 1 0.0516465 0.0182052 0.00701266 0.0055031 -0.00030538 0.00057063 1.04114e-11 -2.82924e-11 1.74722e-11 5e-05 1.46608e-10 
125 1 0.0513054 0.0162694 0.00788103 0.00605351 -0.00103765 0.000120089 -4.26975e-10 8.28805e-11 -1.52613e-10 5e-05 1.46608e-10 
126 1 0.0515111 0.017563 0.00725649 0.0053277 -0.000285409 0.000548161 2.64156e-11 -7.82154e-11 3.84497e-11 5e-05 1.46608e-10 
127 1 0.0452558 0.0161235 0.00796999 0.00575263 0.000541809 0.00155519 -6.05123e-09 3.08607e-10 -1.52128e-09 5e-05 1.46608e-10 
128 1 0.0517387 0.0178121 0.00717624 0.0054165 -0.000317389 0.000568366 2.07552e-11 -4.78928e-12 4.3583e-12 5e-05 1.46608e-10 
129 1 0.0517603 0.0183301 0.00697347 0.00552902 -0.00031264 0.000575014 -1.56534e-10 5.93502e-11 -1.57279e-11 5e-05 1.46608e-10 
131 1 0.0454269 0.0168366 0.00767904 0.00584461 -0.000136784 0.000442271 3.55146e-10 1.65921e-10 -1.40715e-10 5e-05 1.46608e-10 
132 1 0.0517581 0.0179038 0.00714141 0.00544209 -0.000320685 0.000571825 -7.4436e-11 2.10141e-11 -1.38169e-11 5e-05 1.46608e-10 
133 1 0.0513852 0.0165701 0.00764034 0.00565409 -0.000336556 0.000586159 -2.7176e-10 3.52004e-10 1.19649e-10 5e-05 1.46608e-10 
134 1 0.0516973 0.0172024 0.00741483 0.00544027 -0.000279836 0.000554932 -2.36507e-10 2.3263e-10 -1.1433e-10 5e-05 1.46608e-10 
135 1 0.0514837 0.0165581 0.00765311 0.00566303 -0.000341083 0.00059598 -4.79394e-11 4.15596e-11 9.37654e-12 5e-05 1.46608e-10 
136 1 0.0450664 0.0158845 0.00842284 0.00585109 0.00058744 0.0016748 -1.71499e-10 -6.91113e-11 -1.65467e-10 5e-05 1.46608e-10 
137 1 0.0517836 0.018864 0.00688146 0.00607542 -0.000563565 0.00020547 -7.20592e-12 -6.62122e-11 1.26653e-11 5e-05 1.46608e-10 
138 1 0.051855 0.0183624 0.00696731 0.00552155 -0.000333804 0.000585742 -3.87251e-11 1.2113e-10 -8.42395e-11 5e-05 1.46608e-10 
140 1 0.0516636 0.0178711 0.00714667 0.00543039 -0.000300189 0.00056264 4.85304e-11 -1.1451e-11 4.44528e-12 5e-05 1.46608e-10 
141 1 0.0452187 0.0160186 0.00813193 0.00599736 0.000581672 0.00160455 -3.15987e-09 2.87219e-10 -1.6937e-09 5e-05 1.46608e-10 
142 1 0.0453464 0.0164612 0.00779121 0.00583315 -0.000151733 0.000447262 1.89719e-10 1.37789e-10 2.36473e-10 5e-05 1.46608e-10 
143 1 0.0451236 0.0159925 0.00815071 0.00608196 0.000620048 0.00173151 8.86685e-10 1.68274e-10 -5.3187e-11 5e-05 1.46608e-10 
146 1 0.0454211 0.0163986 0.0078137 0.00605251 -0.000406237 -0.000547197 -6.46764e-10 -4.08601e-10 9.00029e-10 5e-05 1.46608e-10 
147 1 0.0450278 0.0158087 0.00860386 0.00568979 0.000546632 0.00164506 -1.27566e-10 -2.57956e-10 5.63627e-10 5e-05 1.46608e-10 
148 1 0.00854224 0.0166649 0.00843695 0.000279128 0.00166453 -0.00044828 2.62433e-12 2.1694e-10 -1.90026e-10 5e-05 1.46608e-10 
149 1 0.0516852 0.0183886 0.00694301 0.00554282 -0.000305925 0.000574328 -1.54934e-10 -7.70075e-11 3.22265e-11 5e-05 1.46608e-10 
150 1 0.0453263 0.0163673 0.00781926 0.00604985 -0.000203292 0.000477924 -6.09721e-11 3.14723e-10 -8.62733e-11 5e-05 1.46608e-10 
151 1 0.045712 0.0169289 0.00766038 0.00579541 -0.000611508 -0.00048531 -2.49563e-10 2.0804e-10 4.48644e-10 5e-05 1.46608e-10 
153 1 0.0454011 0.0163036 0.00783774 0.00607865 -0.000444633 -0.000533033 1.34191e-10 2.1065e-10 -5.86581e-11 5e-05 1.46608e-10 
154 1 0.045558 0.0173976 0.00751212 0.00619943 -0.000250773 0.000498823 5.7635e-11 -3.33169e-11 -5.46228e-11 5e-05 1.46608e-10 
155 1 0.0396046 0.017578 0.00715759 0.00553197 -7.55325e-05 0.000254434 5.05286e-11 5.20997e-11 -1.71297e-11 5e-05 1.46608e-10 
156 1 0.0454306 0.0172692 0.00754373 0.00715881 -0.000866613 0.000756069 -4.8017e-11 -1.63915e-10 4.80205e-11 5e-05 1.46608e-10 
157 1 0.0456275 0.0176774 0.00742916 0.00615782 -0.000256815 0.000495531 5.44812e-10 -1.75905e-09 4.64031e-10 5e-05 1.46608e-10 
158 1 0.0456377 0.0169938 0.00764405 0.00601897 -0.000145211 0.000448324 9.62088e-11 -6.80968e-10 -2.05761e-10 5e-05 1.46608e-10 
159 1 0.0518525 0.0179364 0.00713617 0.00543444 -0.000372172 0.000591577 -1.86632e-10 -6.38694e-11 1.13431e-11 5e-05 1.46608e-10 
160 1 0.045526 0.0176419 0.00743342 0.00614572 -0.000247587 0.000491397 3.59702e-10 -7.34728e-10 3.93505e-10 5e-05 1.46608e-10 
162 1 0.0454673 0.0170242 0.00762298 0.00578736 -0.000125582 0.00043 -1.48867e-10 4.45654e-10 -2.46508e-10 5e-05 1.46608e-10 
163 1 0.0456593 0.0170873 0.00761621 0.00626737 -0.000178442 0.000489982 4.26887e-10 -1.18926e-10 2.88605e-11 5e-05 1.46608e-10 
164 1 0.0458165 0.0177425 0.00742156 0.00605666 9.94711e-05 0.000378137 2.77897e-10 -1.253e-09 4.14829e-10 5e-05 1.46608e-10 
165 1 0.0455762 0.0167121 0.00772717 0.00585103 -0.000236648 0.000415294 -3.16372e-10 -1.2071e-10 2.588e-10 5e-05 1.46608e-10 
166 1 0.0511122 0.0159843 0.00821433 0.00591144 -0.000903979 4.81729e-06 5.16511e-11 -8.63488e-11 1.05116e-10 5e-05 1.46608e-10 
167 1 0.0454412 0.016493 0.00778764 0.00574867 -0.000143321 0.000402826 5.6809e-11 3.91398e-10 -2.45833e-10 5e-05 1.46608e-10 
168 1 0.0455815 0.0174909 0.00748451 0.00619438 -0.000240681 0.000495054 -8.47975e-11 4.1712e-10 -8.79982e-11 5e-05 1.46608e-10 
169 1 0.045707 0.0172736 0.00756108 0.00621063 -0.000215621 0.000490106 3.82598e-10 1.09648e-10 4.16918e-12 5e-05 1.46608e-10 
170 1 0.0456563 0.0174292 0.00750889 0.00618692 -0.000250275 0.000496944 1.7909e-10 -5.26706e-11 3.24547e-11 5e-05 1.46608e-10 
171 1 0.0514895 0.0166511 0.00761669 0.00564043 -0.000336821 0.000592509 -8.22649e-11 2.11715e-10 -7.77344e-11 5e-05 1.46608e-10 
172 1 0.0458261 0.0173959 0.00753081 0.00622524 -0.000293898 0.000513163 4.68791e-10 -5.74752e-10 2.07866e-10 5e-05 1.46608e-10 
173 1 0.0516775 0.0171108 0.00744958 0.0053942 -0.000276838 0.000550404 -5.5094e-10 -1.82364e-11 -4.35988e-11 5e-05 1.46608e-10 
174 1 0.0455493 0.0177352 0.00740578 0.00618244 -0.00034311 0.000512389 1.1329e-09 7.02416e-10 -2.72136e-10 5e-05 1.46608e-10 
175 1 0.042348 0.0170949 0.00743661 0.00547012 -0.000528548 0.000407013 -3.33748e-12 -1.88323e-11 6.35713e-12 5e-05 1.46608e-10 
176 1 0.0454089 0.0171756 0.00757159 0.00564639 -0.000242786 0.000456786 -7.43234e-11 -4.60049e-11 1.02445e-12 5e-05 1.46608e-10 
177 1 0.0459109 0.0177752 0.00741771 0.00602365 0.000104366 0.000375008 1.6312e-10 -1.82891e-09 5.71704e-10 5e-05 1.46608e-10 
178 1 0.0457928 0.0172265 0.00758163 0.00620964 -0.000201887 0.00048349 6.04767e-11 -5.63537e-11 -1.75475e-11 5e-05 1.46608e-10 
179 1 0.0395099 0.0175463 0.00716457 0.005514 -8.21932e-05 0.00025615 1.77218e-12 5.13458e-11 -1.19081e-11 5e-05 1.46608e-10 
180 1 0.0455849 0.0171495 0.00759169 0.00600736 -0.00045601 0.000545672 -4.87706e-10 3.04955e-10 -1.14937e-10 5e-05 1.46608e-10 
181 1 0.0456329 0.017336 0.00753651 0.00620246 -0.000238396 0.000494862 -4.58508e-11 -2.64866e-10 7.2117e-11 5e-05 1.46608e-10 
182 1 0.0515591 0.0167196 0.00759517 0.00562873 -0.000324867 0.00058701 9.18003e-11 1.92785e-10 -8.08832e-11 5e-05 1.46608e-10 
183 1 0.0457305 0.0173668 0.00753347 0.00621904 -0.00022953 0.000492816 2.30276e-10 5.61716e-12 5.60254e-11 5e-05 1.46608e-10 
184 1 0.0518186 0.0186048 0.0068681 0.00558946 -0.000341784 0.000589126 4.16962e-11 3.65345e-11 -4.63071e-11 5e-05 1.46608e-10 
185 1 0.045456 0.0173623 0.0075163 0.00629674 -0.00034016 0.000533545 -5.98305e-11 -2.92133e-10 8.38441e-11 5e-05 1.46608e-10 
186 1 0.0454883 0.0171179 0.00759505 0.00591642 -0.000163529 0.000454738 1.0732e-11 2.85654e-10 -1.6789e-10 5e-05 1.46608e-10 
187 1 0.0516184 0.0168341 0.00755458 0.00558997 -0.000382157 0.000607757 1.77734e-10 -3.81516e-11 3.08879e-11 5e-05 1.46608e-10 
188 1 0.0518161 0.018179 0.00703694 0.00550565 -0.000317334 0.000575538 5.86706e-11 2.4697e-11 -6.50845e-12 5e-05 1.46608e-10 
189 1 0.0513907 0.0166661 0.00761288 0.00562867 -0.000340435 0.000590025 -9.71584e-11 3.45424e-10 -8.71661e-11 5e-05 1.46608e-10 
190 1 0.0459306 0.0178691 0.00738962 0.00580081 0.000106828 0.000360042 1.56559e-09 -5.35049e-10 2.64552e-10 5e-05 1.46608e-10 
191 1 0.0518049 0.0189562 0.00691402 0.00604795 -0.000557381 0.000208329 -7.73111e-11 -1.38238e-10 7.8283e-11 5e-05 1.46608e-10 
192 1 0.0455342 0.0173045 0.00753968 0.00633278 -0.000281087 0.000514904 -1.22325e-10 -2.01574e-10 3.40402e-11 5e-05 1.46608e-10 
193 1 0.0517529 0.017052 0.00747907 0.00540146 -0.000235211 0.000534218 1.14871e-10 4.67984e-11 -1.20741e-11 5e-05 1.46608e-10 
194 1 0.0453666 0.016555 0.00776318 0.00579312 -0.000142521 0.000442166 -1.95471e-10 4.42424e-11 2.3512e-10 5e-05 1.46608e-10 
195 1 0.0456794 0.0175225 0.00748123 0.00624972 -0.00021702 0.000491768 -6.51941e-10 6.03062e-10 -2.33403e-10 5e-05 1.46608e-10 
196 1 0.0449322 0.0156244 0.00905836 0.00537871 0.000537509 0.0014801 -3.62573e-10 -2.17823e-10 -4.84721e-12 5e-05 1.46608e-10 
197 1 0.0455671 0.0178294 0.00737745 0.00539124 -0.000111737 0.000417738 -4.3218e-10 1.81299e-10 -3.21119e-10 5e-05 1.46608e-10 
198 1 0.0453686 0.0169879 0.00762767 0.00578029 -0.00011743 0.000427667 -5.30826e-11 6.11777e-11 1.04475e-11 5e-05 1.46608e-10 
199 1 0.0455029 0.0175487 0.00746107 0.00614513 -0.00023743 0.000491386 -5.39744e-10 1.06597e-10 -6.42817e-11 5e-05 1.46608e-10 
200 1 0.0453866 0.0166489 0.00773512 0.00587564 -0.000180888 0.000444799 -3.2276e-10 1.89526e-10 8.54912e-11 5e-05 1.46608e-10 
201 1 0.045821 0.0181801 0.00728476 0.00557422 -0.000235279 0.000450469 -2.52235e-11 -2.13076e-11 -5.32691e-11 5e-05 1.46608e-10 
203 1 0.0517337 0.0169603 0.00751392 0.00559001 -0.000263669 0.00056176 3.72066e-10 1.09638e-10 -1.06884e-12 5e-05 1.46608e-10 
204 1 0.0455015 0.0167746 0.0077035 0.00574268 -0.000305186 0.000461482 -2.71482e-10 -5.81255e-10 -9.6319e-11 5e-05 1.46608e-10 
205 1 0.0455872 0.0179233 0.00734941 0.00539649 -0.000277476 0.000452218 -3.50416e-11 -1.55811e-10 4.50964e-11 5e-05 1.46608e-10 
206 1 0.0456046 0.0175841 0.00745684 0.0062014 -0.000225031 0.000489799 4.86355e-10 -2.41321e-11 6.9006e-12 5e-05 1.46608e-10 
207 1 0.0453784 0.0162062 0.00786261 0.00596945 -0.000561643 -0.000511838 1.2845e-10 -8.10226e-11 -1.42408e-10 5e-05 1.46608e-10 
208 1 0.0454798 0.0174554 0.00748873 0.00612949 -0.00028795 0.000505819 -6.00594e-11 -1.62577e-11 -3.91003e-12 5e-05 1.46608e-10 
209 1 0.0395293 0.0176393 0.00713345 0.00552415 -8.40595e-05 0.000256892 -1.31918e-11 -6.50382e-12 -1.07944e-12 5e-05 1.46608e-10 
210 1 0.0511336 0.0160496 0.00814168 0.0059395 -0.000897429 -6.77995e-06 -2.45393e-10 -3.73487e-11 1.0561e-10 5e-05 1.46608e-10 
211 1 0.0517995 0.0185131 0.00690296 0.00557013 -0.000331801 0.000586602 6.75281e-11 -6.24778e-11 -1.04509e-10 5e-05 1.46608e-10 
212 1 0.0457678 0.0171307 0.00760792 0.00659132 -0.000248177 -0.00064474 2.99664e-10 -5.83356e-11 -2.47995e-10 5e-05 1.46608e-10 
213 1 0.0517727 0.0171437 0.00744431 0.00539523 -0.000243357 0.000537679 -7.16495e-11 -1.44888e-10 5.13297e-11 5e-05 1.46608e-10 
214 1 0.0516658 0.0182969 0.00697784 0.00552264 -0.000306711 0.000571119 -3.44518e-11 -5.95704e-11 1.36555e-11 5e-05 1.46608e-10 
215 1 0.0455632 0.0170559 0.00761955 0.00567789 -0.000403408 0.00050922 1.26506e-09 4.80208e-10 7.42298e-11 5e-05 1.46608e-10 
216 1 0.0456167 0.0169001 0.00767202 0.00587025 -0.000160878 0.00043677 -5.50028e-10 -3.49982e-10 -7.9481e-11 5e-05 1.46608e-10 
217 1 0.0515217 0.0168088 0.00756946 0.00561889 -0.000329645 0.000587693 1.82369e-10 2.52828e-11 3.84999e-11 5e-05 1.46608e-10 
218 1 0.045722 0.0177098 0.00742542 0.00609205 1.27355e-05 0.000409211 -2.61514e-10 -2.38923e-10 7.40047e-11 5e-05 1.46608e-10 
219 1 0.0517244 0.0185777 0.00688924 0.00556193 -0.000361308 0.0004842 1.05558e-10 5.26673e-11 4.35711e-11 5e-05 1.46608e-10 
220 1 0.0455421 0.0169622 0.00764747 0.00562494 -0.000381643 0.000500592 6.609e-10 1.89984e-10 -2.43789e-11 5e-05 1.46608e-10 
221 1 0.0393727 0.0169032 0.0074022 0.00573623 -0.00025712 -2.66084e-05 2.42552e-11 -3.9308e-11 3.32803e-11 5e-05 1.46608e-10 
222 1 0.0513275 0.0167316 0.00757151 0.00560355 -0.000359438 0.000604359 6.42785e-11 4.17349e-10 -1.62562e-10 5e-05 1.46608e-10 
223 1 0.0456088 0.0172426 0.00756414 0.00636106 -0.000226507 0.000500323 5.84012e-11 -1.55739e-10 -1.12799e-10 5e-05 1.46608e-10 
224 1 0.0453888 0.0170818 0.00759963 0.00568632 -0.000258412 0.000465031 -5.30048e-11 -5.70504e-11 4.27926e-11 5e-05 1.46608e-10 
225 1 0.0518121 0.0173275 0.00737458 0.00557211 -4.181e-05 0.000471736 6.07854e-11 5.67483e-11 -1.78205e-11 5e-05 1.46608e-10 
226 1 0.0455963 0.0168063 0.0077 0.00584148 -0.000199016 0.00050447 -6.07957e-10 -1.17363e-10 4.26391e-10 5e-05 1.46608e-10 
227 1 0.0394314 0.0171743 0.00728896 0.00563499 -9.96684e-05 0.000267906 -1.75364e-10 -3.73992e-11 -4.39211e-12 5e-05 1.46608e-10 
228 1 0.0507861 0.0189683 0.00558458 -5.35676e-15 -1.91036e-14 -2.87013e-13 -3.81796e-23 4.74724e-23 -2.68834e-24 5e-05 1.46608e-10 
229 1 0.0451831 0.0159454 0.00831392 0.00585267 0.000608871 0.00160618 7.49896e-10 3.10047e-10 -1.52287e-10 5e-05 1.46608e-10 
230 1 0.0456276 0.0181116 0.00729314 0.00553262 -0.000139855 0.000417984 -6.09332e-11 -1.78502e-10 1.92704e-10 5e-05 1.46608e-10 
231 1 0.197479 0.018695 0.00523156 -1.09379e-15 -2.69831e-14 1.45243e-13 -1.01866e-22 3.36042e-24 -2.06795e-25 5e-05 1.46608e-10 
232 1 0.0452024 0.015989 0.00822604 0.00595377 0.000617993 0.00162694 9.76038e-10 4.34595e-10 -1.42889e-10 5e-05 1.46608e-10 
233 1 0.0454813 0.0166808 0.00773154 0.00584504 -0.00025981 0.00046637 -2.49715e-10 -8.36196e-10 2.99422e-10 5e-05 1.46608e-10 
234 1 0.0510693 0.0158537 0.00835962 0.00588645 -0.000904021 7.40198e-06 -1.03013e-10 2.00083e-11 -2.97974e-11 5e-05 1.46608e-10 
235 1 0.0457854 0.0184288 0.00720444 0.00575027 -0.000163734 0.000444273 -1.41816e-11 -3.21005e-10 6.64334e-11 5e-05 1.46608e-10 
236 1 0.0458412 0.0182745 0.00725657 0.00560681 -0.000225653 0.000450566 6.55571e-10 -4.15837e-10 1.47088e-10 5e-05 1.46608e-10 
237 1 0.0457455 0.018241 0.00726057 0.00561543 -0.000159724 0.000426215 -2.44984e-10 2.44389e-10 -1.22568e-10 5e-05 1.46608e-10 
238 1 0.0395488 0.0177324 0.00710233 0.00553532 -8.44293e-05 0.000257551 -6.99117e-12 -1.23653e-11 6.49537e-12 5e-05 1.46608e-10 
239 1 0.0392707 0.0164667 0.00762355 0.00574081 -0.000255022 -2.97228e-05 2.33402e-11 -5.10029e-12 3.10373e-12 5e-05 1.46608e-10 
240 1 0.0393524 0.0168159 0.00744647 0.00580513 -0.000272019 -2.34962e-05 -5.57957e-11 -3.29867e-11 2.6116e-11 5e-05 1.46608e-10 
241 1 0.0392912 0.016554 0.00757928 0.00575759 -0.000255374 -2.99365e-05 -1.80632e-10 1.02227e-11 1.98429e-11 5e-05 1.46608e-10 
242 1 0.0395851 0.017485 0.00718873 0.00550456 -9.26124e-05 0.000259071 -1.00765e-11 -7.70368e-12 3.82633e-12 5e-05 1.46608e-10 
243 1 0.0392522 0.0163983 0.00769416 0.00572969 4.02536e-05 0.000254915 1.51494e-11 5.34494e-12 1.06459e-11 5e-05 1.46608e-10 
244 1 0.0393116 0.0166413 0.00753501 0.00578116 -0.000260091 -2.85803e-05 -4.59497e-11 8.67508e-11 -3.09215e-11 5e-05 1.46608e-10 
245 1 0.0395683 0.0178254 0.00707122 0.00558283 -9.23905e-05 0.000262416 7.40879e-12 6.78733e-12 -4.76722e-12 5e-05 1.46608e-10 
246 1 0.0393919 0.016992 0.00736033 0.00563761 -0.00016939 0.000115848 -1.13821e-12 2.60015e-11 -5.40762e-12 5e-05 1.46608e-10 
247 1 0.0457536 0.01746 0.00750581 0.00626384 -0.000237669 0.000498079 -2.32239e-10 1.2316e-10 -6.74395e-11 5e-05 1.46608e-10 