ITEM: TIMESTEP
7800000
ITEM: NUMBER OF ATOMS
284
ITEM: BOX BOUNDS ff ff ff
-0.02 0.43
-0.02 0.06
-0.02 0.07
ITEM: ATOMS id type x y z vx vy vz fx fy fz radius mass 
1 1 0.0583059 0.016433 0.0080211 0.00634509 9.75967e-05 2.40052e-06 -1.10901e-10 -1.62358e-10 1.45432e-10 5e-05 1.46608e-10 
2 1 0.0586484 0.016978 0.00747773 0.00555157 0.000142791 -5.44223e-05 1.51366e-10 -2.96378e-11 6.11592e-11 5e-05 1.46608e-10 
3 1 0.0523235 0.016387 0.0077883 0.00549939 5.53078e-05 8.36692e-05 1.67984e-11 1.57267e-11 6.35245e-11 5e-05 1.46608e-10 
4 1 0.0586842 0.0175186 0.00719131 0.00596387 5.43996e-05 -6.48173e-05 2.82324e-10 6.41394e-11 -2.51688e-11 5e-05 1.46608e-10 
5 1 0.0582091 0.0164111 0.00804157 0.00613325 0.000152638 -5.46366e-05 -4.56291e-11 -1.13228e-10 1.19689e-10 5e-05 1.46608e-10 
6 1 0.0643478 0.0168972 0.00757177 0.00556379 0.000494736 -0.000223143 2.47404e-11 -2.3985e-11 1.38754e-11 5e-05 1.46608e-10 
7 1 0.0584025 0.0167806 0.00767256 0.00549002 0.000193669 -0.000105368 2.70421e-10 5.98829e-11 2.23317e-11 5e-05 1.46608e-10 
8 1 0.0582174 0.0161574 0.00829718 0.00585652 0.000180449 -8.685e-05 7.24095e-12 -2.54703e-11 2.62485e-11 5e-05 1.46608e-10 
9 1 0.0645795 0.0179033 0.00706173 0.00624086 0.000370056 -0.000209855 1.18472e-10 -4.43123e-11 6.90782e-12 5e-05 1.46608e-10 
10 1 0.0583465 0.0168863 0.00756523 0.00557159 0.000212262 -0.000112386 8.69723e-11 -1.65346e-11 3.98172e-11 5e-05 1.46608e-10 
11 1 0.0584602 0.0169808 0.00747188 0.00557918 0.000196756 -0.000108037 -1.53279e-10 -3.60037e-11 2.76438e-11 5e-05 1.46608e-10 
12 1 0.0585316 0.0172633 0.00719801 0.00572887 0.000146255 -6.96842e-05 2.30214e-10 -3.60766e-10 8.36072e-12 5e-05 1.46608e-10 
13 1 0.0584588 0.0173699 0.00728967 0.00573721 0.000175844 -8.03323e-05 -5.33173e-11 -1.16539e-10 5.699e-11 5e-05 1.46608e-10 
14 1 0.0520325 0.0156976 0.00848988 0.00611502 0.000272723 9.0222e-05 1.42347e-10 1.43446e-10 -2.19268e-10 5e-05 1.46608e-10 
15 1 0.0584375 0.0172335 0.0072171 0.00572331 0.000166535 -7.72023e-05 2.84912e-12 -6.15693e-11 -2.07911e-12 5e-05 1.46608e-10 
16 1 0.0520108 0.0156443 0.00857168 0.00610686 0.000267836 0.000101912 7.61176e-11 1.88607e-10 -3.28563e-10 5e-05 1.46608e-10 
17 1 0.0584467 0.0172725 0.00730872 0.00571273 0.000167837 -6.79288e-05 5.5341e-11 -1.36175e-10 -3.47422e-11 5e-05 1.46608e-10 
18 1 0.0644823 0.0174511 0.00716546 0.00573417 0.000470584 -0.000201356 -7.28232e-11 4.94526e-11 -2.96316e-11 5e-05 1.46608e-10 
19 1 0.0581651 0.0162733 0.00817966 0.00580393 0.0001903 -9.73614e-05 -6.45043e-12 3.92056e-11 -3.24733e-11 5e-05 1.46608e-10 
20 1 0.0585968 0.0172448 0.00727453 0.00572269 0.000152997 -7.06297e-05 -3.55504e-11 -1.03374e-10 2.80562e-11 5e-05 1.46608e-10 
21 1 0.0581868 0.0163422 0.00811056 0.00590486 0.000180325 -8.57689e-05 -8.13337e-11 -5.52027e-11 4.21768e-11 5e-05 1.46608e-10 
22 1 0.058497 0.0171196 0.00733269 0.00567814 0.000180896 -9.12984e-05 2.09556e-10 -3.36289e-11 1.95783e-11 5e-05 1.46608e-10 
23 1 0.0523659 0.0169889 0.00753069 0.00549948 -5.78134e-05 -0.000270159 1.0373e-10 -2.90746e-10 8.52175e-11 5e-05 1.46608e-10 
24 1 0.064559 0.0178055 0.00705739 0.00613701 0.000397419 -0.000207593 1.01809e-11 -4.01257e-11 9.43702e-12 5e-05 1.46608e-10 
25 1 0.05843 0.0168669 0.00763016 0.00554078 0.00017937 -0.000112761 1.45032e-10 2.22794e-11 5.05106e-11 5e-05 1.46608e-10 
26 1 0.0644245 0.0172138 0.00733957 0.00566147 0.000473436 -0.000208814 1.47085e-10 -1.22741e-10 1.37967e-10 5e-05 1.46608e-10 
27 1 0.0522874 0.0166286 0.00768635 0.00544958 -0.000106743 -0.000246212 -7.08704e-11 -2.52319e-10 1.13083e-10 5e-05 1.46608e-10 
28 1 0.0584235 0.0172044 0.00737822 0.00566149 0.000156644 -8.76094e-05 5.71191e-11 -1.31692e-10 1.01267e-10 5e-05 1.46608e-10 
29 1 0.0583291 0.0165017 0.00795226 0.00651034 0.000104734 -4.54488e-06 8.26553e-11 8.06464e-11 -1.71021e-10 5e-05 1.46608e-10 
30 1 0.0587559 0.0174489 0.0071919 0.00595625 4.59602e-05 -7.09485e-05 -2.42093e-11 -1.53525e-10 4.00599e-11 5e-05 1.46608e-10 
31 1 0.05842 0.0171639 0.00728683 0.00569483 0.000177075 -8.93657e-05 9.6533e-11 -4.7038e-11 3.13884e-11 5e-05 1.46608e-10 
32 1 0.058479 0.0170502 0.00740234 0.0056383 0.000186888 -9.65603e-05 -1.79934e-10 -9.43536e-11 1.07392e-10 5e-05 1.46608e-10 
33 1 0.064367 0.0169764 0.00751372 0.00558259 0.000492692 -0.000220772 -4.22678e-11 -2.50909e-11 -1.01267e-11 5e-05 1.46608e-10 
34 1 0.0583318 0.01685 0.00765722 0.00558938 0.00022137 -0.000113786 9.26925e-11 5.70132e-11 7.80861e-11 5e-05 1.46608e-10 
36 1 0.064601 0.0180008 0.00706603 0.00622649 0.000375313 -0.000211245 6.25447e-12 -3.15667e-11 2.35069e-11 5e-05 1.46608e-10 
37 1 0.0583638 0.0169559 0.00749546 0.00556443 0.00020302 -0.000115042 1.25922e-10 1.49895e-11 2.38666e-11 5e-05 1.46608e-10 
38 1 0.0585145 0.0171892 0.00726296 0.00571158 0.000162554 -7.18114e-05 -8.54894e-11 -9.35183e-11 7.02748e-11 5e-05 1.46608e-10 
39 1 0.0645399 0.0177074 0.00705297 0.00590974 0.000442271 -0.00019818 -7.64656e-11 1.88687e-12 2.55728e-11 5e-05 1.46608e-10 
41 1 0.0582321 0.0164799 0.00797269 0.00638637 0.000117157 -1.67501e-05 9.62756e-11 -4.85762e-11 9.57331e-11 5e-05 1.46608e-10 
42 1 0.058402 0.0170945 0.00735647 0.00565775 0.000187048 -9.82512e-05 2.76172e-11 -4.05211e-11 -1.68446e-11 5e-05 1.46608e-10 
44 1 0.058595 0.0171506 0.00730797 0.00568783 0.000152334 -5.62895e-05 -1.86086e-10 -1.37979e-10 1.17776e-10 5e-05 1.46608e-10 
45 1 0.0644053 0.0171346 0.00739762 0.00564894 0.000480138 -0.000209723 3.03607e-10 9.42096e-11 2.55193e-11 5e-05 1.46608e-10 
46 1 0.0644628 0.017372 0.00722348 0.00572238 0.000473758 -0.00020394 1.26062e-10 3.59464e-11 -4.22713e-12 5e-05 1.46608e-10 
47 1 0.0582761 0.0166171 0.00783517 0.00510563 0.000291184 -0.000213522 1.49781e-11 -4.43036e-11 7.03969e-11 5e-05 1.46608e-10 
48 1 0.0585778 0.0170786 0.00737528 0.00562295 0.000154442 -6.08237e-05 -1.48462e-10 -1.19736e-10 1.65938e-10 5e-05 1.46608e-10 
49 1 0.0644441 0.0172928 0.00728158 0.005708 0.000473461 -0.000206163 -1.24154e-10 -9.80222e-11 8.14026e-11 5e-05 1.46608e-10 
50 1 0.0585933 0.0175602 0.00719148 0.0059429 4.56053e-05 -6.79088e-05 1.11101e-10 1.9653e-10 8.94144e-12 5e-05 1.46608e-10 
51 1 0.0585726 0.017462 0.00719364 0.00579469 5.14259e-05 -6.4254e-05 -2.02798e-10 1.0475e-10 3.52774e-11 5e-05 1.46608e-10 
52 1 0.0587444 0.0182442 0.00717633 0.00594259 9.07515e-05 -6.70694e-05 -3.92894e-11 5.88663e-11 5.94734e-12 5e-05 1.46608e-10 
53 1 0.0645027 0.0175301 0.00710758 0.00578015 0.000463047 -0.000194521 5.04542e-11 -1.76124e-11 2.26857e-11 5e-05 1.46608e-10 
54 1 0.058283 0.0163642 0.00808998 0.00611956 0.000141128 -4.2947e-05 4.3485e-10 -6.24498e-11 5.74364e-11 5e-05 1.46608e-10 
55 1 0.0520752 0.0158044 0.00832625 0.00597125 0.000293672 4.28067e-05 -1.00021e-10 1.22333e-10 1.97145e-10 5e-05 1.46608e-10 
56 1 0.0583831 0.0170252 0.007426 0.0056035 0.000194855 -0.000105668 8.30595e-11 -3.25908e-11 2.36346e-11 5e-05 1.46608e-10 
57 1 0.0643861 0.0170555 0.00745567 0.00562662 0.000492831 -0.0002167 -2.44692e-10 6.43956e-11 -5.36052e-11 5e-05 1.46608e-10 
59 1 0.0585218 0.0168708 0.00758364 0.00551216 0.000164507 -7.7369e-05 1.3674e-10 -2.3536e-10 2.10796e-10 5e-05 1.46608e-10 
60 1 0.0585412 0.0169401 0.0075142 0.00556787 0.000152202 -6.50628e-05 2.96305e-10 -2.00449e-10 1.92794e-10 5e-05 1.46608e-10 
61 1 0.0582552 0.0165544 0.00791015 0.00650611 8.79833e-05 3.06498e-06 1.35796e-12 -6.7804e-11 1.92353e-11 5e-05 1.46608e-10 
62 1 0.0586307 0.0173362 0.00725244 0.00580196 0.000128032 -6.05925e-05 1.57851e-10 -3.03244e-11 3.15658e-11 5e-05 1.46608e-10 
63 1 0.0585595 0.0170139 0.00744928 0.0055826 0.000153597 -6.45088e-05 -6.49851e-11 -1.92446e-10 2.20583e-10 5e-05 1.46608e-10 
64 1 0.0645204 0.0176094 0.00704934 0.00579613 0.000462135 -0.00019161 1.9784e-11 -1.60039e-11 4.11114e-11 5e-05 1.46608e-10 
65 1 0.0523266 0.0168088 0.00760852 0.00546752 -0.000112858 -0.000243544 -9.15262e-12 -2.74605e-11 2.0535e-11 5e-05 1.46608e-10 
66 1 0.0524411 0.0173253 0.00748722 0.00571794 -1.31401e-05 -0.000355642 1.0958e-10 -1.15053e-10 -7.83878e-11 5e-05 1.46608e-10 
67 1 0.0586792 0.0171888 0.00726596 0.00570267 0.000129031 -3.44563e-05 2.26236e-10 1.11519e-11 4.82158e-11 5e-05 1.46608e-10 
68 1 0.0585514 0.0173621 0.00719585 0.00575009 0.000159025 -6.60173e-05 1.43569e-10 -1.16023e-10 1.33377e-13 5e-05 1.46608e-10 
69 1 0.0584408 0.0169116 0.00754134 0.00554562 0.000193421 -0.000107661 1.53944e-10 -7.27057e-11 6.84745e-11 5e-05 1.46608e-10 
70 1 0.058476 0.0174278 0.00719538 0.00577045 0.000140946 -6.63686e-05 5.522e-11 1.96837e-11 -2.08694e-11 5e-05 1.46608e-10 
71 1 0.0520542 0.0157509 0.00840809 0.00611518 0.000264309 7.89408e-05 -1.51062e-11 7.98366e-11 1.32398e-11 5e-05 1.46608e-10 
72 1 0.0586634 0.0174262 0.00722332 0.00592422 7.13401e-05 -5.42347e-05 2.69846e-10 1.48144e-11 8.92657e-11 5e-05 1.46608e-10 
73 1 0.0585462 0.0174173 0.00727908 0.00577078 0.000117776 -4.22422e-05 -8.17806e-11 -1.19435e-10 2.31585e-11 5e-05 1.46608e-10 
74 1 0.0588887 0.017596 0.00718754 0.00590428 -1.28929e-05 -6.45435e-05 6.1564e-11 -2.81791e-12 -6.71413e-12 5e-05 1.46608e-10 
76 1 0.0529554 0.0183402 0.00693109 0.00620634 1.15302e-05 -0.000337354 1.52831e-11 -1.40816e-10 5.42194e-11 5e-05 1.46608e-10 
77 1 0.0587316 0.0185999 0.00716946 0.00594114 9.01477e-05 -6.66631e-05 1.21257e-10 -2.40222e-11 -1.83766e-11 5e-05 1.46608e-10 
78 1 0.0521548 0.016025 0.0080029 0.00570918 -0.000410775 -0.000492827 -1.1485e-10 -1.98138e-10 5.75462e-11 5e-05 1.46608e-10 
79 1 0.0523865 0.0170787 0.00749183 0.0057342 -0.000121761 -0.00025532 1.79597e-10 3.59862e-10 -1.61261e-10 5e-05 1.46608e-10 
80 1 0.0585801 0.0179167 0.00718459 0.00604571 0.000138454 -6.8624e-05 1.12453e-10 2.19208e-10 -5.90571e-12 5e-05 1.46608e-10 
81 1 0.052307 0.0167187 0.00764742 0.00546985 -0.000115916 -0.000242874 -1.96121e-11 1.98524e-11 -8.61458e-12 5e-05 1.46608e-10 
82 1 0.0523463 0.0168989 0.00756958 0.00549025 -1.82038e-05 -0.000285993 -1.24847e-10 -9.25817e-12 1.31024e-11 5e-05 1.46608e-10 
83 1 0.0522485 0.0164467 0.00775982 0.00546386 0.000151991 0.000386692 6.24147e-11 9.74234e-11 -2.88255e-11 5e-05 1.46608e-10 
84 1 0.0646225 0.0180984 0.00707032 0.00620735 0.000378885 -0.000211753 -9.66141e-12 1.6496e-11 3.61237e-12 5e-05 1.46608e-10 
85 1 0.0581219 0.0161371 0.00831955 0.00582466 0.000167841 -7.51055e-05 1.21255e-10 1.0627e-10 -9.18357e-11 5e-05 1.46608e-10 
86 1 0.0586362 0.0177561 0.00718715 0.0060265 8.8491e-05 -6.783e-05 1.48653e-10 2.60214e-10 -2.45761e-11 5e-05 1.46608e-10 
87 1 0.0586302 0.0169086 0.00754736 0.00557591 0.000145679 -5.65388e-05 5.56924e-10 -9.04643e-11 1.21874e-10 5e-05 1.46608e-10 
88 1 0.0586667 0.0183071 0.00717594 0.00597154 0.000118793 -6.68664e-05 -8.33128e-11 -1.42587e-10 2.11397e-11 5e-05 1.46608e-10 
89 1 0.0586795 0.0179514 0.00718282 0.00601882 0.000105985 -6.79364e-05 -1.84709e-10 8.70118e-12 2.98858e-12 5e-05 1.46608e-10 
90 1 0.0587794 0.017549 0.00718966 0.00596498 2.45655e-05 -6.62388e-05 2.32848e-10 -1.00571e-10 1.55913e-11 5e-05 1.46608e-10 
91 1 0.0584956 0.0175258 0.00719323 0.00584729 0.000123786 -6.62197e-05 -1.14594e-10 1.46553e-10 -2.51002e-11 5e-05 1.46608e-10 
92 1 0.0588009 0.0176467 0.0071875 0.00599029 2.35882e-05 -6.57612e-05 -2.30142e-10 -2.20745e-10 -9.28481e-12 5e-05 1.46608e-10 
93 1 0.0588126 0.0181022 0.00717839 0.00599658 0.000100679 -6.78014e-05 -2.2438e-10 1.57275e-10 -1.06392e-12 5e-05 1.46608e-10 
94 1 0.0586578 0.0178537 0.00718498 0.00603124 0.00010355 -6.80412e-05 -1.6069e-10 1.02218e-10 1.38401e-11 5e-05 1.46608e-10 
95 1 0.0585585 0.0178191 0.00718676 0.00605267 0.000116841 -6.89841e-05 1.39311e-10 2.90096e-10 -6.76203e-11 5e-05 1.46608e-10 
96 1 0.058747 0.017811 0.00719983 0.00601893 5.74759e-05 -6.81326e-05 -1.13461e-10 -4.23179e-12 1.05012e-11 5e-05 1.46608e-10 
97 1 0.0525033 0.0171958 0.00743637 0.0057907 -0.000143322 -0.000248559 -4.66047e-11 -4.34884e-11 8.62378e-11 5e-05 1.46608e-10 
98 1 0.0587099 0.0185023 0.00717162 0.00595979 0.000102613 -6.81592e-05 4.53691e-11 -6.4138e-14 -2.19971e-11 5e-05 1.46608e-10 
99 1 0.0524075 0.0171684 0.00745299 0.00576511 -0.000145516 -0.000250259 8.08382e-11 3.6398e-10 -1.94626e-10 5e-05 1.46608e-10 
100 1 0.0589078 0.0176942 0.00718539 0.00598363 -2.9556e-05 -6.47252e-05 -7.86395e-11 -1.37628e-11 2.10806e-11 5e-05 1.46608e-10 
101 1 0.0523625 0.0165664 0.0077085 0.00542849 -0.000118163 -0.00024589 6.7925e-11 1.1811e-10 -1.06275e-10 5e-05 1.46608e-10 
102 1 0.0694385 0.0202053 0.00537268 3.98933e-15 4.46006e-15 -7.68254e-14 -1.62089e-22 -2.26557e-22 -2.04727e-23 5e-05 1.46608e-10 
104 1 0.0524614 0.0170163 0.00751406 0.005734 -0.00012768 -0.00025255 -7.24104e-10 1.67992e-10 -3.72075e-11 5e-05 1.46608e-10 
105 1 0.0522087 0.0162717 0.00784608 0.00562861 0.000117961 0.000382496 8.9347e-11 3.40336e-11 1.49755e-10 5e-05 1.46608e-10 
106 1 0.0525661 0.0174649 0.00731986 0.00589695 -0.000149601 -0.000252682 -2.23356e-11 -2.79079e-11 1.71319e-11 5e-05 1.46608e-10 
107 1 0.0521686 0.0160972 0.00793504 0.00561782 -0.000255282 -0.000345714 5.15051e-11 -2.46572e-10 3.7805e-11 5e-05 1.46608e-10 
108 1 0.058313 0.0167715 0.00771626 0.00545804 0.000237604 -0.00014581 1.37025e-10 6.14785e-11 1.30977e-10 5e-05 1.46608e-10 
109 1 0.058516 0.0176237 0.00719108 0.00597067 0.000103074 -6.9539e-05 -1.23006e-10 2.02118e-10 1.75468e-11 5e-05 1.46608e-10 
110 1 0.0587011 0.018049 0.00718066 0.00599108 9.69928e-05 -6.7557e-05 -2.37325e-10 7.69827e-11 -4.06995e-12 5e-05 1.46608e-10 
111 1 0.0588093 0.018537 0.00716985 0.00596059 0.000108652 -6.7443e-05 1.17975e-10 -9.9885e-11 5.10462e-12 5e-05 1.46608e-10 
112 1 0.0522679 0.0165384 0.007725 0.00545219 8.42589e-05 0.000317385 1.19067e-10 -2.58717e-10 6.38245e-11 5e-05 1.46608e-10 
113 1 0.0525781 0.0171332 0.00745867 0.00577618 -0.000169964 -0.000242994 5.24929e-11 -1.13687e-11 3.66392e-12 5e-05 1.46608e-10 
115 1 0.0585369 0.0177215 0.00718892 0.00606268 9.85804e-05 -7.02826e-05 1.18368e-10 2.65991e-10 -2.70122e-11 5e-05 1.46608e-10 
116 1 0.0585033 0.0168015 0.00765322 0.00544001 0.000180191 -9.31452e-05 -3.93231e-10 -2.00865e-10 1.93784e-10 5e-05 1.46608e-10 
117 1 0.0583878 0.0167107 0.00774276 0.00528011 8.72077e-05 -2.93807e-06 1.54479e-10 -7.18711e-11 2.27625e-10 5e-05 1.46608e-10 
118 1 0.0521126 0.0159111 0.00816142 0.00572261 0.000298142 1.16318e-05 -2.69047e-10 -1.59281e-11 1.03488e-10 5e-05 1.46608e-10 
119 1 0.0587118 0.0173436 0.00719446 0.00580849 -1.92401e-05 -6.15684e-05 2.3697e-10 -8.99e-11 -1.96779e-11 5e-05 1.46608e-10 
120 1 0.0581436 0.0162043 0.00824877 0.00582394 0.000180238 -8.67579e-05 4.49097e-11 1.50162e-10 -1.45715e-10 5e-05 1.46608e-10 
121 1 0.058239 0.0162264 0.00822807 0.00582254 0.000188278 -9.56422e-05 1.21303e-11 2.25415e-11 -2.0568e-11 5e-05 1.46608e-10 
122 1 0.0587691 0.017907 0.00718271 0.0060308 7.11303e-05 -6.8368e-05 -8.38547e-11 1.16835e-10 7.42734e-12 5e-05 1.46608e-10 
123 1 0.0522286 0.016355 0.00779457 0.0056243 0.000131127 0.000410393 5.88354e-11 4.36192e-11 -2.46418e-11 5e-05 1.46608e-10 
124 1 0.0586018 0.0180143 0.00718243 0.00603677 0.000151875 -7.16947e-05 -1.41165e-10 5.60648e-11 4.79858e-11 5e-05 1.46608e-10 
125 1 0.0582607 0.0162953 0.00815897 0.00590849 0.000178003 -8.32964e-05 1.08098e-10 2.18803e-11 -1.46226e-11 5e-05 1.46608e-10 
126 1 0.0584568 0.0173297 0.00719811 0.0057405 0.000155276 -7.18184e-05 8.51215e-11 -6.05487e-11 -2.17701e-11 5e-05 1.46608e-10 
127 1 0.052454 0.0172305 0.00751615 0.00570947 -9.22619e-06 -0.00035449 -2.47781e-10 -1.78672e-11 3.87457e-11 5e-05 1.46608e-10 
128 1 0.0587051 0.0176163 0.00718915 0.00605453 1.85581e-05 -6.66689e-05 -3.58787e-10 -3.48286e-11 8.22095e-11 5e-05 1.46608e-10 
129 1 0.0587228 0.0181466 0.0071785 0.00594731 0.00010811 -6.71104e-05 2.61854e-12 1.43089e-10 -2.46874e-12 5e-05 1.46608e-10 
131 1 0.0524824 0.017106 0.00747522 0.0057647 -0.000145444 -0.000246389 -5.46461e-12 1.76628e-11 -2.88583e-11 5e-05 1.46608e-10 
132 1 0.0587269 0.0177139 0.00718699 0.00600487 4.22255e-05 -6.70823e-05 -6.17922e-11 -1.12298e-10 1.46448e-11 5e-05 1.46608e-10 
133 1 0.0583508 0.0165709 0.00788298 0.00507164 0.000264322 -0.000184884 6.1583e-11 2.54879e-11 -3.16922e-11 5e-05 1.46608e-10 
134 1 0.0586837 0.0171235 0.00734543 0.00566654 0.000127626 -3.30009e-05 -1.0235e-10 -5.25578e-11 4.08361e-11 5e-05 1.46608e-10 
135 1 0.0584458 0.0165935 0.00786168 0.00508363 0.000237964 -0.000157833 -2.30265e-11 1.0846e-10 -9.24021e-11 5e-05 1.46608e-10 
136 1 0.0521304 0.0159652 0.00807919 0.00583118 -0.00013087 -0.00023796 2.71202e-11 -1.72653e-10 5.77289e-11 5e-05 1.46608e-10 
137 1 0.0587532 0.0186975 0.00716729 0.00592193 8.63868e-05 -6.63749e-05 5.3077e-12 -1.85524e-10 5.00901e-12 5e-05 1.46608e-10 
138 1 0.058834 0.0181998 0.00717623 0.00594727 0.0001118 -6.72293e-05 -5.08839e-11 5.04743e-11 -9.06266e-13 5e-05 1.46608e-10 
140 1 0.0586143 0.0176582 0.00718932 0.00606115 5.66539e-05 -6.51552e-05 -4.70907e-11 2.26265e-10 -1.32324e-10 5e-05 1.46608e-10 
141 1 0.0523035 0.0162958 0.0078242 0.00563617 0.000153512 0.000397731 1.0807e-10 -1.91852e-12 -1.07111e-11 5e-05 1.46608e-10 
142 1 0.0524016 0.0167464 0.00763072 0.00546851 -0.000103514 -0.00024909 1.75709e-11 9.36993e-11 -3.24664e-11 5e-05 1.46608e-10 
143 1 0.0521886 0.0161833 0.00788827 0.00562164 -1.47761e-05 0.000102376 -1.02376e-11 -2.9834e-11 2.19071e-10 5e-05 1.46608e-10 
146 1 0.0524769 0.0166838 0.00765301 0.00545982 -9.68807e-05 -0.000250601 -7.27707e-11 1.15297e-10 -5.25227e-11 5e-05 1.46608e-10 
147 1 0.0520947 0.0158597 0.00824528 0.00569278 0.00042896 7.30246e-05 -1.3231e-10 -2.68792e-11 1.46764e-10 5e-05 1.46608e-10 
148 1 0.00853628 0.0176483 0.00788063 0.000556067 0.0200818 -0.00783403 9.77556e-13 -1.32625e-10 -1.25951e-11 5e-05 1.46608e-10 
149 1 0.058645 0.0182095 0.00717811 0.00598601 0.00013687 -6.7032e-05 -3.62288e-11 -2.11514e-10 1.50087e-11 5e-05 1.46608e-10 
150 1 0.052382 0.0166564 0.00766961 0.00544899 -0.000111543 -0.000244427 3.64594e-11 1.26096e-10 -7.65182e-11 5e-05 1.46608e-10 
151 1 0.0527746 0.0171931 0.00742298 0.00577536 -0.000235937 -0.00020967 -1.25171e-11 -4.61952e-11 1.86066e-11 5e-05 1.46608e-10 
153 1 0.0524574 0.0165938 0.0076919 0.00546302 -9.95188e-05 -0.000249635 2.16176e-11 7.10691e-11 -1.97055e-11 5e-05 1.46608e-10 
154 1 0.052608 0.017645 0.00724356 0.00596639 -0.000162016 -0.0002507 -1.48194e-11 -3.06773e-11 6.90245e-12 5e-05 1.46608e-10 
155 1 0.0464952 0.0171754 0.00752001 0.00578458 0.000199386 -0.000662969 3.66297e-11 4.31895e-11 -1.60585e-11 5e-05 1.46608e-10 
156 1 0.0524914 0.0175276 0.00729753 0.00591569 -0.000130665 -0.000261427 1.60367e-11 5.46906e-11 -2.34468e-11 5e-05 1.46608e-10 
157 1 0.0526709 0.0179136 0.00712566 0.0060688 -0.000184791 -0.000247018 -7.5449e-13 -2.78621e-11 6.19736e-12 5e-05 1.46608e-10 
158 1 0.0526967 0.0172523 0.00740226 0.00581733 -0.000192781 -0.000230236 3.83222e-11 2.25826e-11 -1.74071e-11 5e-05 1.46608e-10 
159 1 0.0588244 0.0177494 0.00718522 0.00600443 1.70913e-05 -6.62006e-05 -1.66342e-10 -1.53716e-10 -5.6007e-12 5e-05 1.46608e-10 
160 1 0.0525752 0.0178865 0.00714216 0.00605236 -0.000165787 -0.000253944 1.0032e-11 -2.27245e-11 1.2196e-11 5e-05 1.46608e-10 
162 1 0.0525244 0.0172862 0.00739935 0.00583402 -0.000146629 -0.000249828 -7.37021e-11 -3.02805e-11 6.59696e-11 5e-05 1.46608e-10 
163 1 0.0527179 0.0173422 0.00736332 0.0058382 -0.000207552 -0.000225056 1.1572e-10 1.09195e-10 -5.46846e-11 5e-05 1.46608e-10 
164 1 0.0528698 0.0179766 0.00708852 0.00609033 -0.000250506 -0.000220608 1.99986e-11 -2.62097e-12 -2.35246e-12 5e-05 1.46608e-10 
165 1 0.0526325 0.0169815 0.00751954 0.00572042 -0.00019628 -0.000223402 8.67414e-11 -3.78538e-11 5.59347e-12 5e-05 1.46608e-10 
166 1 0.0580788 0.0159974 0.00845606 0.00585342 0.000151895 -5.82618e-05 -2.19621e-11 -3.08492e-11 3.29725e-11 5e-05 1.46608e-10 
167 1 0.0524963 0.0167739 0.00761411 0.00546232 -9.78336e-05 -0.000251716 -1.44623e-11 9.19947e-11 -5.59692e-11 5e-05 1.46608e-10 
168 1 0.0526289 0.0177341 0.00720334 0.00599994 -0.000170134 -0.000249244 3.35814e-12 -3.34431e-11 1.35767e-11 5e-05 1.46608e-10 
169 1 0.0527608 0.0175229 0.00728509 0.00591934 -0.000202488 -0.000231675 -3.09148e-11 1.18108e-12 -9.10771e-12 5e-05 1.46608e-10 
170 1 0.0527039 0.0176718 0.00722555 0.00597726 -0.000188571 -0.000240088 -1.93733e-11 -2.79385e-11 1.08463e-11 5e-05 1.46608e-10 
171 1 0.0584661 0.0166627 0.00779236 0.0051645 0.000225001 -0.000142764 6.20808e-12 -5.26622e-11 6.71181e-11 5e-05 1.46608e-10 
172 1 0.0528853 0.0176488 0.0072255 0.00596403 -0.000251873 -0.000213107 -2.00856e-11 9.75479e-12 -2.91157e-12 5e-05 1.46608e-10 
173 1 0.0586674 0.0170474 0.00740822 0.00558996 0.000137504 -4.78749e-05 -3.32968e-10 -8.07455e-11 3.79929e-11 5e-05 1.46608e-10 
174 1 0.0525962 0.0179762 0.00710331 0.00608261 -0.000174442 -0.000252193 -1.25934e-11 -4.87072e-11 2.08599e-11 5e-05 1.46608e-10 
175 1 0.0493731 0.0171951 0.00722789 0.00559027 -0.000458592 0.000638647 -2.44877e-13 6.25084e-13 -2.58912e-13 5e-05 1.46608e-10 
176 1 0.0524704 0.0174378 0.00733638 0.00587689 -0.000142054 -0.000255131 -2.0048e-11 -6.34724e-11 3.22689e-11 5e-05 1.46608e-10 
177 1 0.0529819 0.0180259 0.0070618 0.00610678 -0.000287519 -0.000205867 1.7412e-11 -1.16576e-11 4.79029e-12 5e-05 1.46608e-10 
178 1 0.0528467 0.0174742 0.00730095 0.00605353 9.33627e-06 -0.000327679 -3.23329e-11 4.2637e-11 -1.39337e-11 5e-05 1.46608e-10 
179 1 0.0464002 0.0171483 0.0075364 0.00578612 0.000214955 -0.000667155 -3.92506e-11 1.18352e-11 3.74985e-12 5e-05 1.46608e-10 
180 1 0.052641 0.0174026 0.00734208 0.00587665 -0.00016872 -0.000243895 -1.10284e-11 -6.63221e-12 -2.60613e-12 5e-05 1.46608e-10 
181 1 0.0526829 0.0175821 0.00726449 0.00594283 -0.000181552 -0.000241957 -2.18058e-11 -1.64453e-11 3.15763e-11 5e-05 1.46608e-10 
182 1 0.0585922 0.0167699 0.00768639 0.00546454 0.000206539 -0.000119686 -1.59721e-10 2.63373e-10 -2.67334e-10 5e-05 1.46608e-10 
183 1 0.0527818 0.0176126 0.00724624 0.00597868 -0.000184673 -0.000242069 -3.72182e-11 -2.14766e-11 1.21347e-11 5e-05 1.46608e-10 
184 1 0.0587877 0.0184394 0.00717201 0.00597364 9.23726e-05 -6.69075e-05 3.63212e-10 -1.19567e-10 -4.12103e-12 5e-05 1.46608e-10 
185 1 0.0525123 0.0176173 0.00725869 0.00595125 -0.000132243 -0.000262639 9.70843e-12 5.72471e-11 -2.55188e-11 5e-05 1.46608e-10 
186 1 0.0525451 0.0173752 0.0073587 0.0058693 -0.000148515 -0.00025194 -5.71546e-11 -5.81417e-11 1.15212e-11 5e-05 1.46608e-10 
187 1 0.0586111 0.0168393 0.00761685 0.00508508 0.000207891 -0.000127571 -2.43225e-10 2.30815e-10 -2.35929e-10 5e-05 1.46608e-10 
188 1 0.0587908 0.0180046 0.00718055 0.00600918 9.16459e-05 -6.72081e-05 -4.00936e-10 2.42511e-10 5.17642e-12 5e-05 1.46608e-10 
189 1 0.058371 0.0166402 0.00781349 0.0051242 0.000276648 -0.000196554 -1.1348e-11 2.89673e-12 5.21553e-13 5e-05 1.46608e-10 
190 1 0.0530099 0.0181864 0.00699284 0.00613435 -0.000338911 -0.000185093 7.11399e-11 -4.87927e-11 2.42534e-11 5e-05 1.46608e-10 
191 1 0.0587748 0.0187951 0.00716513 0.00591151 9.19124e-05 -6.65421e-05 -5.1908e-11 -2.08624e-10 3.27766e-12 5e-05 1.46608e-10 
192 1 0.0525871 0.0175547 0.00728117 0.00593055 -0.000154456 -0.000252452 -2.49141e-11 -2.55848e-11 9.46652e-12 5e-05 1.46608e-10 
193 1 0.0587688 0.0171539 0.00730261 0.00570798 9.80133e-05 7.32547e-06 -1.47423e-10 9.36191e-11 -1.57633e-10 5e-05 1.46608e-10 
194 1 0.0524212 0.0168365 0.00759181 0.00543805 -3.44088e-05 -0.000276197 -4.29811e-11 6.50024e-11 -2.41276e-11 5e-05 1.46608e-10 
195 1 0.0527249 0.0177615 0.0071867 0.00600848 -0.000198808 -0.000238019 -6.63214e-12 -1.69751e-11 2.0987e-11 5e-05 1.46608e-10 
196 1 0.0519891 0.015591 0.00865348 0.00609766 0.000263042 0.000108735 7.97786e-11 1.4976e-10 -2.33266e-10 5e-05 1.46608e-10 
197 1 0.0526172 0.0180659 0.00706447 0.00611799 -0.000181234 -0.00025104 -7.84819e-12 -3.35945e-11 1.32691e-11 5e-05 1.46608e-10 
198 1 0.0524285 0.0172583 0.00741409 0.00580372 -0.00012821 -0.000258293 -1.03188e-10 -1.29876e-10 2.98031e-11 5e-05 1.46608e-10 
199 1 0.0525543 0.0177967 0.007181 0.00601348 -0.000160874 -0.00025432 -1.00393e-11 -3.22565e-11 1.15216e-11 5e-05 1.46608e-10 
200 1 0.052441 0.0169264 0.00755293 0.00543543 -4.28794e-05 -0.000272549 -1.45985e-10 2.19104e-11 -1.34797e-12 5e-05 1.46608e-10 
201 1 0.0528756 0.0183987 0.00694556 0.00622925 -0.000113609 0.000306288 3.28408e-11 -2.35695e-11 -4.96589e-11 5e-05 1.46608e-10 
203 1 0.0587709 0.0170834 0.00737357 0.00561669 7.62333e-05 1.282e-05 1.77063e-10 1.32125e-10 -1.32324e-10 5e-05 1.46608e-10 
204 1 0.0525572 0.0170435 0.00749751 0.00575125 -0.00016198 -0.00024045 1.14328e-10 4.28427e-11 1.16123e-10 5e-05 1.46608e-10 
205 1 0.0526381 0.0181557 0.00702562 0.00615485 -0.000185605 -0.000251116 7.94054e-12 3.10784e-12 -8.29376e-13 5e-05 1.46608e-10 
206 1 0.0526499 0.0178238 0.0071645 0.00603332 -0.000178208 -0.000247791 -1.97358e-11 -3.83585e-11 2.04841e-11 5e-05 1.46608e-10 
207 1 0.0524377 0.0165038 0.00773079 0.0054463 -0.000100553 -0.000249395 1.08745e-10 -2.43622e-11 -8.4604e-12 5e-05 1.46608e-10 
208 1 0.0525333 0.017707 0.00721984 0.00598 -0.000153338 -0.000255641 -7.42771e-12 -2.74553e-11 2.3382e-11 5e-05 1.46608e-10 
209 1 0.0464218 0.0172429 0.00751228 0.00579316 0.000208181 -0.000665832 5.18311e-11 5.13184e-11 -1.96439e-11 5e-05 1.46608e-10 
210 1 0.0581007 0.0160663 0.008387 0.005847 0.00015666 -6.31194e-05 -2.4703e-12 6.40568e-11 -5.80576e-11 5e-05 1.46608e-10 
211 1 0.058766 0.0183418 0.00717417 0.00592718 9.95497e-05 -6.67435e-05 1.49049e-10 -2.09637e-10 -5.82593e-12 5e-05 1.46608e-10 
212 1 0.0528186 0.0173748 0.00734424 0.00584939 -0.00023227 -0.000215223 -2.1119e-11 -1.9077e-12 2.52409e-12 5e-05 1.46608e-10 
213 1 0.0587672 0.0172246 0.00723189 0.00577067 4.2621e-05 -7.27142e-05 -1.61271e-10 -6.40566e-11 -3.51208e-10 5e-05 1.46608e-10 
214 1 0.0586234 0.0181119 0.00718027 0.00601921 0.000151449 -7.04479e-05 -1.49959e-10 -1.1501e-10 -3.01926e-12 5e-05 1.46608e-10 
215 1 0.05262 0.0173128 0.00738092 0.00584853 -0.000162893 -0.000244104 1.15368e-11 -4.52397e-12 2.23258e-11 5e-05 1.46608e-10 
216 1 0.0526749 0.0171616 0.00744158 0.00579307 -0.000197228 -0.000227331 3.4992e-11 5.97331e-11 1.46712e-12 5e-05 1.46608e-10 
217 1 0.0584853 0.016732 0.00772288 0.00531816 0.000201949 -0.000117559 -2.70049e-10 -1.31858e-10 1.38119e-10 5e-05 1.46608e-10 
218 1 0.0527668 0.0179409 0.00710902 0.00607835 -0.000216015 -0.00023398 7.5896e-12 -2.02235e-11 5.88e-13 5e-05 1.46608e-10 
219 1 0.0586883 0.0184047 0.00717378 0.00596069 0.000107649 -6.74473e-05 1.37359e-10 1.08545e-10 -1.05733e-11 5e-05 1.46608e-10 
220 1 0.052599 0.017223 0.00741982 0.0058109 -0.000174529 -0.000234172 7.73474e-12 1.05362e-12 -8.19422e-11 5e-05 1.46608e-10 
221 1 0.0462591 0.0164837 0.00770469 0.00561819 0.000247968 -0.000659802 -8.86922e-11 -3.05583e-11 2.17836e-12 5e-05 1.46608e-10 
222 1 0.0582932 0.0166867 0.00776539 0.00519651 0.000278952 -0.000194466 -1.55073e-10 8.82473e-11 9.34878e-11 5e-05 1.46608e-10 
223 1 0.052662 0.0174923 0.00730323 0.00590835 -0.000173702 -0.000242504 -1.75442e-11 -2.3235e-11 -7.16876e-12 5e-05 1.46608e-10 
224 1 0.0524494 0.017348 0.00737525 0.0058473 -0.00012083 -0.000264584 6.27622e-11 -4.76035e-11 3.31914e-11 5e-05 1.46608e-10 
225 1 0.0588438 0.0174012 0.00719187 0.00592915 -1.6071e-06 -6.65706e-05 6.05895e-11 -6.66004e-12 -1.92814e-11 5e-05 1.46608e-10 
226 1 0.0526535 0.0170714 0.00748064 0.0057541 -0.000186307 -0.000225632 1.85828e-10 -1.28172e-10 -9.43866e-11 5e-05 1.46608e-10 
227 1 0.0463167 0.0167692 0.00763272 0.00563806 0.000245516 -0.000657365 -7.14142e-11 -6.08459e-13 1.38769e-11 5e-05 1.46608e-10 
228 1 0.0507861 0.0189683 0.00558458 -5.36684e-15 -1.91085e-14 -2.87013e-13 -2.46529e-22 5.89625e-23 1.03398e-24 5e-05 1.46608e-10 
229 1 0.0522596 0.0161131 0.00789314 0.00540372 -0.000239918 0.000549875 2.75356e-11 -2.92451e-11 1.13803e-11 5e-05 1.46608e-10 
230 1 0.0526804 0.0183367 0.00694728 0.00633587 0.000283471 -0.000458013 1.48343e-12 4.77539e-12 -2.19781e-12 5e-05 1.46608e-10 
231 1 0.197479 0.018695 0.00523156 -1.08837e-15 -2.69837e-14 1.45243e-13 2.00355e-22 -1.08567e-23 -4.1359e-25 5e-05 1.46608e-10 
232 1 0.0522817 0.0162045 0.00785865 0.0056609 0.000156714 0.000393938 8.24116e-11 -2.59472e-11 1.0955e-10 5e-05 1.46608e-10 
233 1 0.0525365 0.0169537 0.00753636 0.00567137 -0.000144015 -0.000241894 9.61806e-11 -2.54553e-11 -6.18231e-12 5e-05 1.46608e-10 
234 1 0.0580357 0.0158595 0.00859428 0.00587922 0.000148396 -5.44047e-05 -7.11342e-11 -2.55258e-10 2.54748e-10 5e-05 1.46608e-10 
235 1 0.0528412 0.0186563 0.00691786 0.00568783 0.000158605 0.000530773 2.73241e-11 1.24897e-10 7.66083e-12 5e-05 1.46608e-10 
236 1 0.0528958 0.0184927 0.00691821 0.00618943 -2.36536e-05 0.000572311 6.70516e-11 4.90492e-12 -6.36158e-13 5e-05 1.46608e-10 
237 1 0.0527967 0.0184579 0.00690803 0.00627762 6.48628e-05 0.000582831 6.42429e-11 1.85769e-11 2.89884e-13 5e-05 1.46608e-10 
238 1 0.0464434 0.0173375 0.00748816 0.00580823 0.000208211 -0.000667784 -5.36056e-11 -3.60551e-11 1.81337e-11 5e-05 1.46608e-10 
239 1 0.0461633 0.0161035 0.00799807 0.00570241 0.000694875 -7.01105e-05 1.67395e-10 -1.71762e-11 2.41324e-11 5e-05 1.46608e-10 
240 1 0.04624 0.0163885 0.00772868 0.00564696 0.000237089 -0.000665948 -8.70125e-11 1.93518e-11 1.26025e-10 5e-05 1.46608e-10 
241 1 0.0461824 0.016173 0.00792874 0.00573782 0.000695531 -6.48958e-05 -1.61327e-10 -4.62232e-11 -2.98095e-11 5e-05 1.46608e-10 
242 1 0.0464735 0.0170807 0.00754415 0.00577925 0.000207308 -0.000664457 -8.30835e-12 -4.58673e-11 8.09464e-12 5e-05 1.46608e-10 
243 1 0.0461439 0.0160341 0.00806736 0.0059281 0.000681178 -2.69614e-05 -3.35435e-11 -1.4171e-11 -5.43383e-12 5e-05 1.46608e-10 
244 1 0.0462021 0.0162425 0.00785952 0.00579853 0.00069439 -5.39266e-05 2.39901e-10 9.05329e-12 -6.71033e-12 5e-05 1.46608e-10 
245 1 0.0464651 0.0174321 0.00746404 0.00582253 0.000205818 -0.000668731 3.14081e-11 1.37857e-11 -1.00476e-11 5e-05 1.46608e-10 
246 1 0.0462782 0.0165788 0.00768071 0.00560664 0.00025398 -0.000656342 1.20654e-10 -3.66819e-11 -3.94343e-11 5e-05 1.46608e-10 