ITEM: TIMESTEP
10800000
ITEM: NUMBER OF ATOMS
284
ITEM: BOX BOUNDS ff ff ff
-0.02 0.43
-0.02 0.06
-0.02 0.07
ITEM: ATOMS id type x y z vx vy vz fx fy fz radius mass 
1 1 0.0757551 0.0161585 0.00792023 0.0057892 0.000501976 -0.000764576 3.57834e-10 2.14966e-10 -1.14502e-10 5e-05 1.46608e-10 
2 1 0.0761541 0.0169591 0.00738871 0.00639999 0.000520959 -0.000154918 2.36573e-10 1.98617e-09 -1.15186e-09 5e-05 1.46608e-10 
3 1 0.0697276 0.0161069 0.0080723 0.00533462 -0.000327743 0.000436115 -6.63098e-11 4.74363e-11 -4.0945e-11 5e-05 1.46608e-10 
4 1 0.0761577 0.0174139 0.00715417 0.006302 0.000250781 -0.000347888 -1.15951e-10 1.78241e-10 -1.10299e-10 5e-05 1.46608e-10 
5 1 0.0756599 0.0161353 0.00794379 0.00577446 0.000507262 -0.000766677 1.23266e-10 3.13334e-10 -2.33089e-10 5e-05 1.46608e-10 
6 1 0.0818146 0.0168076 0.00762478 0.00594279 0.000104255 0.000333093 1.27687e-12 7.19867e-13 -3.70107e-13 5e-05 1.46608e-10 
7 1 0.075827 0.0165582 0.00762247 0.00595091 0.000507688 -0.000140073 -4.61386e-10 -1.3935e-10 1.58428e-10 5e-05 1.46608e-10 
8 1 0.0756768 0.0158451 0.00815613 0.00574871 0.000519675 -0.000782866 -1.38432e-10 -4.94334e-10 5.13578e-10 5e-05 1.46608e-10 
9 1 0.0820734 0.0178701 0.00713071 0.00613304 7.2139e-05 0.0003608 -1.08804e-13 9.65699e-13 -5.24224e-13 5e-05 1.46608e-10 
10 1 0.0757914 0.0166619 0.00755967 0.00705498 -0.002758 0.00144335 0 0 -1.43822e-09 5e-05 1.46608e-10 
11 1 0.0759095 0.0167781 0.00749181 0.00623024 0.000317345 -3.31482e-05 2.05274e-10 -4.22408e-10 2.18287e-10 5e-05 1.46608e-10 
12 1 0.0759952 0.017114 0.00729116 0.0063679 0.000285773 -1.41877e-05 -1.10416e-10 3.70901e-10 -1.06772e-10 5e-05 1.46608e-10 
13 1 0.0759736 0.0174367 0.00726629 0.00640494 0.000408871 -0.00026806 -7.77256e-11 2.36733e-10 -1.04821e-11 5e-05 1.46608e-10 
14 1 0.069437 0.0153653 0.00874541 0.00569453 -0.00038395 0.000536721 1.77725e-10 5.15539e-11 -6.78158e-11 5e-05 1.46608e-10 
15 1 0.0758956 0.0170829 0.00730765 0.0063208 0.000313522 -1.99189e-05 2.75507e-11 4.87955e-10 -1.13476e-10 5e-05 1.46608e-10 
16 1 0.0694211 0.0153411 0.00884114 0.00564917 -0.000398665 0.000523704 3.66611e-10 -5.83552e-11 3.31554e-11 5e-05 1.46608e-10 
17 1 0.0760453 0.0172664 0.00730783 0.00625157 0.000498506 -0.000162767 -2.74728e-10 -1.17316e-10 1.19297e-10 5e-05 1.46608e-10 
18 1 0.0819655 0.0174274 0.00733658 0.00605372 8.53523e-05 0.000349327 3.44405e-13 1.03259e-12 -3.46563e-13 5e-05 1.46608e-10 
19 1 0.0756208 0.0159786 0.00806174 0.00575443 0.000510189 -0.000781527 -5.9612e-11 -2.83182e-10 1.54858e-10 5e-05 1.46608e-10 
20 1 0.0760636 0.0171709 0.0073491 0.00639675 0.000284958 -2.08681e-05 3.91026e-10 3.727e-11 -1.316e-10 5e-05 1.46608e-10 
21 1 0.0756404 0.016057 0.00800276 0.0057577 0.000502831 -0.000763306 -2.96456e-11 2.42838e-11 -1.06667e-11 5e-05 1.46608e-10 
22 1 0.075952 0.0169459 0.00739159 0.00628261 0.000310554 -2.88669e-05 -6.38888e-10 -4.05616e-10 2.22457e-10 5e-05 1.46608e-10 
23 1 0.0697726 0.0166183 0.00766469 0.00590974 -0.000361616 0.000483248 1.83017e-11 -1.37681e-10 7.11639e-11 5e-05 1.46608e-10 
24 1 0.0820518 0.0177816 0.00717189 0.00611718 7.47991e-05 0.000358498 -1.35697e-14 9.65957e-13 -4.72348e-13 5e-05 1.46608e-10 
25 1 0.0759014 0.0166245 0.00761387 0.00619437 0.000278542 -3.75417e-05 -7.73926e-10 4.39227e-11 1.97623e-10 5e-05 1.46608e-10 
26 1 0.0819008 0.0171618 0.00746009 0.00600617 9.33633e-05 0.000342411 9.18465e-13 7.3609e-13 -7.48064e-13 5e-05 1.46608e-10 
27 1 0.0696918 0.0163111 0.00790777 0.00543422 -0.000302764 0.000419073 2.25395e-10 1.07891e-10 -4.66341e-11 5e-05 1.46608e-10 
28 1 0.0759708 0.0172054 0.00733476 0.00640839 0.00034157 -4.40644e-05 2.7152e-10 7.80098e-11 2.22384e-11 5e-05 1.46608e-10 
29 1 0.0757747 0.0162368 0.00786126 0.00584107 0.000509124 -0.000779447 1.91601e-10 2.5788e-10 -2.07887e-10 5e-05 1.46608e-10 
30 1 0.0761411 0.017317 0.0071723 0.00600124 0.000356639 -7.11919e-05 2.15536e-10 1.53661e-10 -6.45394e-11 5e-05 1.46608e-10 
31 1 0.0758743 0.0169989 0.00735761 0.00629996 0.000332704 -4.25106e-05 1.40755e-10 3.35912e-10 -1.67522e-10 5e-05 1.46608e-10 
32 1 0.0759307 0.016862 0.00744169 0.0062462 0.00032856 -3.79312e-05 -2.35197e-10 -2.71411e-10 1.92146e-10 5e-05 1.46608e-10 
33 1 0.0818361 0.0168962 0.00758361 0.00595864 0.000101506 0.000335419 9.62515e-13 8.48074e-13 -4.27102e-13 5e-05 1.46608e-10 
34 1 0.0757767 0.0166374 0.00765704 0.00616662 0.000695903 -0.000318024 -1.33078e-10 3.15193e-10 -2.65757e-10 5e-05 1.46608e-10 
36 1 0.082095 0.0179587 0.00708954 0.0061489 6.94431e-05 0.000363113 -2.70304e-13 1.00346e-12 -5.96271e-13 5e-05 1.46608e-10 
37 1 0.0758105 0.0167473 0.00750791 0.00623564 -3.55387e-05 0.000171551 -4.20989e-10 4.19513e-10 -7.58575e-10 5e-05 1.46608e-10 
38 1 0.0759736 0.0170302 0.00734124 0.00629414 0.000280966 -1.20734e-05 -2.11606e-10 5.8242e-10 -2.71372e-10 5e-05 1.46608e-10 
39 1 0.0820303 0.017693 0.00721306 0.00610132 7.74404e-05 0.000356205 1.01834e-13 9.61809e-13 -4.47546e-13 5e-05 1.46608e-10 
41 1 0.0756796 0.0162137 0.00788482 0.00579912 0.000520704 -0.000782022 2.28611e-10 4.07007e-10 -4.29535e-10 5e-05 1.46608e-10 
42 1 0.075853 0.016915 0.00740772 0.00627017 0.000350146 -5.27105e-05 4.80335e-11 -1.5662e-11 1.12514e-10 5e-05 1.46608e-10 
44 1 0.076083 0.017074 0.00731754 0.00642275 0.000356292 -5.35981e-05 -2.45765e-10 2.26764e-10 -1.9989e-10 5e-05 1.46608e-10 
45 1 0.0818793 0.0170732 0.00750127 0.00599031 9.60742e-05 0.000340105 1.12275e-12 7.40218e-13 -4.14452e-13 5e-05 1.46608e-10 
46 1 0.081944 0.0173389 0.00737775 0.00603787 8.80073e-05 0.000347025 4.47555e-13 1.02072e-12 -3.77907e-13 5e-05 1.46608e-10 
47 1 0.075719 0.0163703 0.00776689 0.00585896 0.000563343 -0.000796943 7.13468e-10 6.25715e-10 -4.09829e-10 5e-05 1.46608e-10 
48 1 0.0760614 0.0169901 0.00736761 0.00635723 0.000377501 -6.9457e-05 -5.02195e-10 2.03432e-10 -2.26974e-10 5e-05 1.46608e-10 
49 1 0.0819224 0.0172503 0.00741892 0.00602202 9.06754e-05 0.000344716 5.76844e-13 9.56635e-13 -4.93852e-13 5e-05 1.46608e-10 
50 1 0.0760411 0.0172892 0.00718659 0.00632412 0.000265135 -3.2794e-06 -2.38956e-10 -3.36867e-10 2.03907e-10 5e-05 1.46608e-10 
51 1 0.0761152 0.0172471 0.00723898 0.00633705 0.000313616 -1.84689e-05 -1.08053e-10 1.87183e-10 3.02345e-11 5e-05 1.46608e-10 
52 1 0.0761881 0.0179701 0.00714246 0.00615023 0.000293428 -0.000330479 -5.61082e-12 -2.6469e-11 1.06365e-11 5e-05 1.46608e-10 
53 1 0.0819871 0.0175159 0.0072954 0.00606959 8.27101e-05 0.000351624 2.70127e-13 1.01931e-12 -3.28676e-13 5e-05 1.46608e-10 
54 1 0.0757354 0.0160801 0.0079792 0.00576201 0.000496285 -0.000762785 6.76051e-12 1.21311e-10 -8.74514e-11 5e-05 1.46608e-10 
55 1 0.0694748 0.0154657 0.0085769 0.00551694 -0.000384958 0.000488661 -6.46315e-11 1.83771e-11 2.46289e-11 5e-05 1.46608e-10 
56 1 0.0758319 0.0168322 0.00745963 0.0062529 0.000369445 -4.15614e-05 2.93339e-10 -2.52651e-11 7.69708e-11 5e-05 1.46608e-10 
57 1 0.0818577 0.0169847 0.00754244 0.00597446 9.8788e-05 0.000337764 8.55013e-13 1.0339e-12 1.29657e-13 5e-05 1.46608e-10 
59 1 0.0759984 0.0167391 0.00751931 0.00622159 0.00034289 -4.80429e-05 1.63008e-10 -9.8763e-11 -1.60584e-10 5e-05 1.46608e-10 
60 1 0.0760187 0.0168224 0.00746779 0.00624699 0.0003485 -5.2727e-05 -3.79927e-10 -1.66163e-10 3.99567e-11 5e-05 1.46608e-10 
61 1 0.0756992 0.016292 0.00782585 0.00582554 0.000532228 -0.000809347 2.84821e-10 4.49183e-10 -5.19785e-10 5e-05 1.46608e-10 
62 1 0.0762117 0.0173398 0.00725134 0.00617824 0.000425034 3.13795e-05 2.79458e-10 3.23732e-10 -1.44766e-10 5e-05 1.46608e-10 
63 1 0.07604 0.0169068 0.00741853 0.00627521 0.000377092 -7.39109e-05 1.10282e-10 8.09691e-12 3.18947e-11 5e-05 1.46608e-10 
64 1 0.0820087 0.0176045 0.00725423 0.00608545 8.00747e-05 0.000353916 2.03185e-13 9.76923e-13 -3.96669e-13 5e-05 1.46608e-10 
65 1 0.0697316 0.0164648 0.00778615 0.00566716 -0.000324159 0.000443714 9.08117e-12 -6.13823e-11 5.2945e-11 5e-05 1.46608e-10 
66 1 0.0699221 0.0171779 0.00735422 0.00632979 -0.00053644 0.000275709 -3.22322e-10 -2.6032e-10 -6.63094e-11 5e-05 1.46608e-10 
67 1 0.076216 0.0171217 0.00729211 0.00645567 0.000427687 -9.53613e-05 3.74231e-10 5.30556e-10 -3.00903e-10 5e-05 1.46608e-10 
68 1 0.0760162 0.017198 0.00724101 0.00639769 0.000295297 -9.13523e-06 1.7556e-10 -2.361e-10 1.89379e-10 5e-05 1.46608e-10 
69 1 0.0758892 0.0166958 0.0075449 0.00620082 0.00028551 -5.53075e-05 -6.08286e-10 -5.81792e-12 2.70271e-10 5e-05 1.46608e-10 
70 1 0.0759446 0.0173086 0.00728845 0.00627475 0.000541699 -0.000166389 -2.08534e-11 1.12499e-10 -9.97613e-11 5e-05 1.46608e-10 
71 1 0.0694588 0.0154123 0.0086599 0.00561185 -0.000403507 0.000500038 1.66076e-10 4.28795e-11 -6.97321e-14 5e-05 1.46608e-10 
72 1 0.0761229 0.017385 0.00724335 0.00631244 0.000607869 -0.000255655 -1.05639e-10 -2.47735e-10 -1.95558e-10 5e-05 1.46608e-10 
73 1 0.0760297 0.017354 0.00726203 0.00638046 0.000505767 -0.000123893 2.60107e-10 -4.15139e-10 4.33071e-10 5e-05 1.46608e-10 
74 1 0.0763718 0.0175708 0.00713998 0.00609915 0.000601193 -0.000334661 -1.29437e-10 1.29329e-11 1.53352e-11 5e-05 1.46608e-10 
76 1 0.0703598 0.0179462 0.00722052 0.00585174 -0.00046888 0.000393501 -1.16095e-10 -1.1357e-11 -1.85141e-11 5e-05 1.46608e-10 
77 1 0.0761688 0.018321 0.0071371 0.00600809 0.000277613 -0.000322463 2.71475e-11 1.23362e-10 -7.59672e-12 5e-05 1.46608e-10 
78 1 0.0695547 0.0157735 0.00833426 0.00538643 -0.000362991 0.000479031 -1.20968e-10 -5.20974e-11 -1.70683e-11 5e-05 1.46608e-10 
79 1 0.0697932 0.0166951 0.00760399 0.00594315 -0.000370426 0.000493569 -1.77764e-10 -7.23177e-11 1.00327e-10 5e-05 1.46608e-10 
80 1 0.0760231 0.0176367 0.00715728 0.00626015 0.000223093 -0.000269659 -5.74766e-11 -7.72454e-11 2.60631e-11 5e-05 1.46608e-10 
81 1 0.0697115 0.016388 0.00784692 0.00543089 -0.000293666 0.000411549 -2.20408e-10 1.42376e-11 -2.88604e-11 5e-05 1.46608e-10 
82 1 0.069752 0.0165416 0.00772539 0.00585954 -0.000355966 0.000475647 -4.52373e-11 -9.75425e-11 7.48307e-11 5e-05 1.46608e-10 
83 1 0.0696525 0.0161573 0.00802952 0.00542154 -0.000292501 0.000410791 -8.1263e-11 1.06307e-11 -1.07697e-11 5e-05 1.46608e-10 
84 1 0.0821161 0.0180474 0.00704825 0.00568027 0.000165792 0.000286579 -3.30921e-12 -2.20776e-11 1.0413e-11 5e-05 1.46608e-10 
85 1 0.0755818 0.0158229 0.00818095 0.00575955 0.000553207 -0.000844666 -1.34766e-10 4.95745e-10 1.3785e-09 5e-05 1.46608e-10 
86 1 0.0760838 0.0174812 0.00715687 0.00633045 0.000276336 -0.000357087 -2.37556e-10 -1.80029e-11 -2.22908e-10 5e-05 1.46608e-10 
87 1 0.0761327 0.0168752 0.0074388 0.00640001 0.00055307 -0.000172727 -1.11656e-09 -1.31814e-09 7.54875e-10 5e-05 1.46608e-10 
88 1 0.0761064 0.0180277 0.00714574 0.00612685 0.00025982 -0.000329476 -1.5154e-11 -2.84778e-11 -3.2637e-12 5e-05 1.46608e-10 
89 1 0.0761256 0.0176768 0.0071511 0.00622567 0.000271698 -0.000327287 5.89944e-11 -3.15607e-11 -5.39447e-12 5e-05 1.46608e-10 
90 1 0.0762546 0.0174468 0.00714844 0.0062298 0.000310584 -0.000330982 -4.75937e-10 2.53965e-10 1.4299e-10 5e-05 1.46608e-10 
91 1 0.0759381 0.0172505 0.00720733 0.00636283 0.000269606 1.27305e-05 -1.6478e-10 -3.65474e-10 2.08701e-10 5e-05 1.46608e-10 
92 1 0.0762755 0.0175445 0.00714556 0.00619706 0.000320844 -0.000335199 1.1435e-10 -1.44278e-10 2.25052e-11 5e-05 1.46608e-10 
93 1 0.076283 0.0180009 0.00713687 0.00613937 0.000335896 -0.000331632 -3.98239e-11 -2.32937e-11 -5.79911e-12 5e-05 1.46608e-10 
94 1 0.0761048 0.017579 0.00715398 0.00626504 0.000277058 -0.000322497 -5.68852e-11 -1.13896e-10 -3.03625e-11 5e-05 1.46608e-10 
95 1 0.0760022 0.0175389 0.00716111 0.00629876 0.000205401 -0.000342932 -3.63748e-11 -1.98268e-10 -1.76335e-10 5e-05 1.46608e-10 
96 1 0.0762206 0.0177076 0.00714551 0.00619949 0.000277186 -0.000332896 1.60875e-10 1.44726e-10 -1.47592e-12 5e-05 1.46608e-10 
97 1 0.0699099 0.016798 0.00752545 0.00596881 -0.000428295 0.000550866 -2.13732e-10 -9.48501e-12 -5.84146e-11 5e-05 1.46608e-10 
98 1 0.076148 0.0182232 0.00713998 0.0060517 0.000277106 -0.000325652 2.35367e-11 8.42616e-11 -1.0574e-11 5e-05 1.46608e-10 
99 1 0.0698141 0.0167718 0.00754332 0.00595532 -0.000389043 0.000489776 -5.07677e-10 -5.76824e-11 -1.12981e-10 5e-05 1.46608e-10 
100 1 0.0763926 0.0176686 0.0071371 0.00614015 0.000525906 -0.000334762 -2.16586e-10 1.92288e-10 1.48711e-11 5e-05 1.46608e-10 
101 1 0.069767 0.0162606 0.00795061 0.00551727 -0.000351197 0.000460872 9.77507e-12 1.54066e-12 -1.0301e-11 5e-05 1.46608e-10 
102 1 0.0694385 0.0202053 0.00537268 4.02337e-15 4.34205e-15 -7.68307e-14 -2.55405e-22 1.58715e-23 -1.55096e-23 5e-05 1.46608e-10 
104 1 0.0698689 0.0166445 0.00764691 0.00591775 -0.000431887 0.000534796 7.47125e-11 -4.05632e-11 6.87957e-11 5e-05 1.46608e-10 
105 1 0.0696132 0.0160036 0.00815122 0.00542751 -0.000272242 0.000394577 -3.48011e-11 -1.63607e-10 1.26437e-10 5e-05 1.46608e-10 
106 1 0.0699744 0.0170315 0.00734856 0.00601711 -0.0018189 -0.00139316 1.85655e-10 -8.08418e-11 -6.15312e-10 5e-05 1.46608e-10 
107 1 0.0695741 0.0158532 0.00827716 0.00535625 -0.000369299 0.000467216 6.29069e-11 3.34192e-11 -2.43167e-12 5e-05 1.46608e-10 
108 1 0.0757565 0.016546 0.0076923 0.00557267 0.0007691 -0.000387233 -1.07486e-09 6.24744e-10 2.25389e-11 5e-05 1.46608e-10 
109 1 0.0759596 0.0173468 0.00719111 0.00633558 0.000254416 -6.12618e-05 -9.09454e-11 -4.03949e-10 4.14152e-10 5e-05 1.46608e-10 
110 1 0.0761464 0.0177746 0.00714822 0.00620054 0.000270632 -0.000331721 1.67951e-11 -3.88354e-11 8.46408e-11 5e-05 1.46608e-10 
111 1 0.0762505 0.0182634 0.00713382 0.00603373 0.000337469 -0.000325336 4.74493e-11 8.96563e-11 -1.84411e-12 5e-05 1.46608e-10 
112 1 0.0696722 0.0162343 0.00796863 0.00542508 -0.000302137 0.000418575 -7.30574e-11 -1.43083e-14 -1.25425e-11 5e-05 1.46608e-10 
113 1 0.0699881 0.0167506 0.00756591 0.00598888 -0.000439768 0.000540684 -2.15854e-10 1.60326e-10 -5.33169e-11 5e-05 1.46608e-10 
115 1 0.0759815 0.0174413 0.00716671 0.00631884 0.000206964 -0.00028719 9.73082e-11 -3.34833e-10 1.83843e-10 5e-05 1.46608e-10 
116 1 0.075986 0.0166533 0.00756906 0.00621042 0.000318404 -3.49018e-05 6.56826e-10 -2.44915e-10 -9.29776e-11 5e-05 1.46608e-10 
117 1 0.0758305 0.016477 0.00768077 0.00600193 0.00018809 -0.000638148 -7.30903e-12 -7.4748e-12 -9.59313e-10 5e-05 1.46608e-10 
118 1 0.069515 0.0156201 0.00845623 0.00551386 -0.000384941 0.000482912 -4.39478e-11 -7.96453e-11 1.24231e-10 5e-05 1.46608e-10 
119 1 0.076213 0.017231 0.00722605 0.00633131 0.000512721 -0.000146294 -1.71406e-10 -1.50131e-12 1.44208e-11 5e-05 1.46608e-10 
120 1 0.0756013 0.0159003 0.00812073 0.00575932 0.000509218 -0.000833597 -2.34365e-11 -1.95623e-10 4.76719e-10 5e-05 1.46608e-10 
121 1 0.0756963 0.0159234 0.00809715 0.00575483 0.000505538 -0.000769306 -7.80548e-11 -2.82141e-10 2.88474e-10 5e-05 1.46608e-10 
122 1 0.0762414 0.0178053 0.00714263 0.00619447 0.000295314 -0.000332988 -2.14659e-11 1.70316e-11 -8.0954e-12 5e-05 1.46608e-10 
123 1 0.0696329 0.0160804 0.00809037 0.0054313 -0.000284203 0.000404784 -1.62623e-10 -5.46179e-12 -3.16623e-12 5e-05 1.46608e-10 
124 1 0.0760439 0.0177344 0.00715443 0.00622106 0.000232099 -0.00027165 5.4623e-11 3.02943e-11 1.57665e-10 5e-05 1.46608e-10 
125 1 0.0757159 0.0160018 0.00803818 0.00576351 0.000495759 -0.000763359 -6.87592e-11 -3.73768e-11 5.17578e-11 5e-05 1.46608e-10 
126 1 0.0759171 0.0171677 0.0072593 0.00634958 0.000285349 9.23751e-06 -1.88132e-10 1.80431e-10 1.36724e-10 5e-05 1.46608e-10 
127 1 0.0701063 0.0172492 0.00730384 0.00618812 -0.000617561 0.000256151 2.12768e-10 -2.13952e-10 1.27114e-11 5e-05 1.46608e-10 
128 1 0.0761788 0.0175119 0.00715128 0.00627102 0.000307751 -0.000335162 -2.14729e-11 1.91974e-10 -4.20962e-11 5e-05 1.46608e-10 
129 1 0.0761672 0.0178723 0.00714534 0.00618085 0.000280697 -0.000332977 -3.68247e-11 -9.49807e-12 -2.29228e-11 5e-05 1.46608e-10 
131 1 0.0698896 0.0167212 0.00758623 0.00593453 -0.00043334 0.000542899 2.49095e-11 -5.97961e-11 9.81215e-12 5e-05 1.46608e-10 
132 1 0.0761998 0.0176098 0.00714839 0.00623173 0.000318338 -0.000334577 5.34471e-11 -7.63346e-11 3.01413e-11 5e-05 1.46608e-10 
133 1 0.0757945 0.0163151 0.00780231 0.00587075 0.000522871 -0.000797366 1.19164e-10 8.54961e-11 -7.73284e-11 5e-05 1.46608e-10 
134 1 0.0763144 0.0171076 0.00730308 0.00652235 0.000740322 -0.000282801 2.41481e-10 1.26523e-10 -9.56402e-11 5e-05 1.46608e-10 
135 1 0.0759085 0.0164163 0.00772005 0.00598924 9.41488e-05 -0.000485677 -7.84726e-11 -2.16129e-10 8.52219e-11 5e-05 1.46608e-10 
136 1 0.0695367 0.0156959 0.00839479 0.0054763 -0.000378452 0.000479486 -5.92201e-11 -8.82094e-11 7.48224e-11 5e-05 1.46608e-10 
137 1 0.0761897 0.0184188 0.00713422 0.00597059 0.000269945 -0.000320665 1.20504e-11 1.61328e-10 9.87556e-12 5e-05 1.46608e-10 
138 1 0.0763039 0.0180986 0.00713399 0.00609979 0.000356824 -0.000329066 1.15767e-11 -7.92272e-11 -1.37417e-12 5e-05 1.46608e-10 
140 1 0.0760625 0.0173831 0.00715978 0.00631496 0.000185832 -0.000327069 2.5003e-10 -5.53696e-10 -1.36878e-11 5e-05 1.46608e-10 
141 1 0.0697081 0.01603 0.00813316 0.00530676 -0.000329015 0.000436328 -8.96927e-11 5.11026e-11 -4.96574e-11 5e-05 1.46608e-10 
142 1 0.0698069 0.0164143 0.007829 0.00571224 -0.000382797 0.000492322 7.82323e-11 -4.23462e-11 5.77701e-11 5e-05 1.46608e-10 
143 1 0.0695936 0.0159267 0.00821209 0.00539334 -0.000261603 0.000385265 -1.2196e-10 -2.16592e-10 1.73826e-10 5e-05 1.46608e-10 
146 1 0.069885 0.0163668 0.00786957 0.00564694 -0.000443173 0.000539032 1.07382e-10 1.2848e-11 -1.3061e-11 5e-05 1.46608e-10 
147 1 0.0694957 0.0155424 0.00851622 0.00550805 -0.000382619 0.000484561 -2.93004e-10 -2.84379e-11 2.16641e-11 5e-05 1.46608e-10 
148 1 0.00853746 0.0173871 0.00797979 -4.17036e-10 -0.0217618 0.0102682 4.2576e-19 9.28921e-12 1.97367e-11 5e-05 1.46608e-10 
149 1 0.0760856 0.0179299 0.00714862 0.00616404 0.000248634 -0.000331993 1.42564e-12 -1.86961e-11 -8.9352e-14 5e-05 1.46608e-10 
150 1 0.069787 0.0163375 0.00788982 0.00560943 -0.0003664 0.000475543 5.74188e-11 -5.96001e-13 1.28365e-11 5e-05 1.46608e-10 
151 1 0.0702295 0.016961 0.00740554 0.0062209 -0.000538147 0.000636328 1.35679e-10 5.56831e-11 -2.30906e-11 5e-05 1.46608e-10 
153 1 0.0698651 0.0162899 0.0079304 0.0055478 -0.00042729 0.000523082 1.88917e-10 -9.08176e-12 3.49178e-12 5e-05 1.46608e-10 
154 1 0.0700145 0.0172036 0.00724839 0.00620642 -0.000690007 0.000302623 2.64818e-10 2.27683e-11 -9.73373e-11 5e-05 1.46608e-10 
155 1 0.0641113 0.0176377 0.00706528 0.00588212 0.000204994 -0.000203527 6.08424e-10 4.61028e-10 -2.06408e-11 5e-05 1.46608e-10 
156 1 0.0698994 0.0170865 0.00731176 0.00615287 -0.000610369 0.000320849 -2.03741e-10 -1.62509e-10 -3.91074e-10 5e-05 1.46608e-10 
157 1 0.070088 0.017491 0.00720101 0.00609655 -0.0006128 0.000290027 -1.04522e-11 1.45362e-11 -1.15201e-10 5e-05 1.46608e-10 
158 1 0.0701063 0.0168548 0.00748645 0.00609432 -0.000446933 0.000558573 -1.3357e-10 2.74507e-10 -2.19538e-10 5e-05 1.46608e-10 
159 1 0.0762963 0.0176423 0.00714268 0.0062112 0.000308211 -0.00033482 -1.50039e-10 -2.0927e-10 2.51604e-12 5e-05 1.46608e-10 
160 1 0.0699803 0.0174419 0.00719734 0.00613229 -0.000677349 0.000205183 1.33912e-10 -7.9968e-11 -1.48594e-10 5e-05 1.46608e-10 
162 1 0.0699305 0.0168747 0.00746473 0.00602268 -0.000436939 0.000549912 -1.0733e-10 -5.98756e-13 2.59894e-11 5e-05 1.46608e-10 
163 1 0.0701289 0.0169312 0.00742606 0.00598429 -0.000410187 0.0005322 -2.53527e-10 2.21762e-10 -9.67717e-11 5e-05 1.46608e-10 
164 1 0.070278 0.017554 0.00721211 0.00600762 -0.000488921 0.000403302 -3.62612e-10 -9.64237e-12 -3.72907e-11 5e-05 1.46608e-10 
165 1 0.070044 0.0166245 0.00766863 0.00606846 -0.000294925 0.00043357 1.79242e-10 -1.56091e-10 1.30626e-10 5e-05 1.46608e-10 
166 1 0.0755439 0.0156944 0.00832695 0.00584523 0.000711574 -0.000751059 1.12747e-10 -8.20004e-11 2.44285e-10 5e-05 1.46608e-10 
167 1 0.0699051 0.0164437 0.00780868 0.00575496 -0.000457017 0.000553272 1.36903e-10 -1.47458e-11 1.68022e-11 5e-05 1.46608e-10 
168 1 0.0700405 0.0173001 0.00723767 0.00614303 -0.00069046 0.000279828 2.28788e-10 -1.16272e-10 1.28319e-10 5e-05 1.46608e-10 
169 1 0.0701674 0.0170884 0.00730265 0.00621967 -0.000641196 0.000519027 6.14905e-10 4.47026e-11 -9.13358e-11 5e-05 1.46608e-10 
170 1 0.070102 0.0172278 0.00720624 0.00618341 -0.000635821 0.000262522 -6.54947e-11 -4.02809e-10 1.76667e-10 5e-05 1.46608e-10 
171 1 0.0759275 0.0164982 0.00766598 0.00617361 0.000131288 -0.000333223 5.63553e-10 -4.06768e-10 6.40613e-11 5e-05 1.46608e-10 
172 1 0.0702875 0.0172002 0.00723642 0.00621056 -0.000573865 0.000386091 2.06244e-10 -6.37352e-10 -5.75683e-10 5e-05 1.46608e-10 
173 1 0.0761756 0.0170429 0.00733864 0.00646172 0.00042448 -9.28708e-05 9.77723e-11 -8.97324e-11 5.38319e-11 5e-05 1.46608e-10 
174 1 0.0700008 0.0175398 0.00719717 0.00604922 -0.000653968 0.000273067 -3.08459e-11 -9.28537e-11 -1.58319e-11 5e-05 1.46608e-10 
175 1 0.0669395 0.0175399 0.00707677 0.0055526 -0.000544622 0.000224945 -1.34279e-12 1.14709e-13 -4.76511e-14 5e-05 1.46608e-10 
176 1 0.0698767 0.0170075 0.00736868 0.00611106 -0.000565462 0.000348475 -1.4555e-10 -1.61955e-10 -2.06676e-10 5e-05 1.46608e-10 
177 1 0.0703931 0.017683 0.00722086 0.00596828 -0.000447838 0.000401043 -1.25441e-10 3.36296e-11 1.9175e-12 5e-05 1.46608e-10 
178 1 0.0702616 0.0171156 0.0072829 0.00620738 -0.000481214 0.00060499 6.21003e-10 -6.89585e-11 2.37173e-11 5e-05 1.46608e-10 
179 1 0.0640034 0.0175275 0.00714474 0.00624919 0.000110689 8.14055e-05 -4.54053e-10 1.08796e-10 -2.00116e-10 5e-05 1.46608e-10 
180 1 0.0700526 0.0169808 0.00738457 0.00594596 -0.000971246 -6.51196e-05 -1.16397e-10 6.94281e-11 -5.75033e-10 5e-05 1.46608e-10 
181 1 0.0700885 0.0171395 0.00726859 0.00619837 -0.000716187 0.000387773 5.59561e-10 5.82087e-11 -4.0339e-10 5e-05 1.46608e-10 
182 1 0.0760911 0.0167072 0.00753912 0.00622881 0.000461938 -0.000110958 5.12702e-10 1.01973e-10 -2.68339e-11 5e-05 1.46608e-10 
183 1 0.0701789 0.0171733 0.00724234 0.00614412 -0.000670741 0.000283334 6.34491e-10 -5.87283e-11 5.74951e-11 5e-05 1.46608e-10 
184 1 0.0762297 0.0181656 0.0071367 0.00607685 0.000323305 -0.000328023 1.21493e-11 2.72501e-11 -1.48422e-11 5e-05 1.46608e-10 
185 1 0.0699219 0.0171657 0.00725497 0.00618648 -0.000664576 0.000291047 -1.27e-11 6.41503e-11 -1.27855e-10 5e-05 1.46608e-10 
186 1 0.0699517 0.016953 0.00740619 0.00607992 -0.000488401 0.000509659 -3.14811e-11 -1.47529e-10 -3.02869e-10 5e-05 1.46608e-10 
187 1 0.0761114 0.0167913 0.0074889 0.00632112 0.000449293 -0.000109989 9.68841e-11 -6.06476e-11 -3.31928e-12 5e-05 1.46608e-10 
188 1 0.0762622 0.0179031 0.00713975 0.00617159 0.000313768 -0.000332253 7.54248e-12 -2.14809e-12 9.8329e-12 5e-05 1.46608e-10 
189 1 0.075814 0.0163935 0.00774332 0.00581075 0.000547182 -0.000798961 -4.143e-11 -1.24369e-10 6.533e-11 5e-05 1.46608e-10 
190 1 0.0704135 0.017781 0.00722296 0.00592754 -0.000460761 0.000397874 -6.91048e-11 -5.25966e-12 -3.20893e-12 5e-05 1.46608e-10 
191 1 0.0762105 0.0185165 0.00713134 0.00593324 0.000266111 -0.000319093 5.10223e-11 1.77669e-10 -8.16495e-12 5e-05 1.46608e-10 
192 1 0.0699963 0.0171157 0.00729921 0.00612053 -0.000804414 0.000324185 3.62875e-10 3.19571e-10 -1.83833e-10 5e-05 1.46608e-10 
193 1 0.0763934 0.0173028 0.00718722 0.00607299 0.000936733 -0.000417239 -4.89489e-10 -3.20803e-10 3.71002e-11 5e-05 1.46608e-10 
194 1 0.0698269 0.0164911 0.0077682 0.00580744 -0.00040024 0.000509907 1.65176e-11 -8.1249e-11 3.75174e-11 5e-05 1.46608e-10 
195 1 0.0701343 0.0173225 0.00720492 0.00615309 -0.00064282 0.000247187 1.68226e-10 -4.26448e-10 1.21035e-10 5e-05 1.46608e-10 
196 1 0.0694017 0.0153164 0.00893608 0.00556868 -0.000371439 0.000512222 -3.32912e-11 1.19446e-11 4.83807e-11 5e-05 1.46608e-10 
197 1 0.0700213 0.0176376 0.00719768 0.00599152 -0.000636817 0.000334717 -1.76295e-10 -6.12724e-11 -3.58142e-11 5e-05 1.46608e-10 
198 1 0.0698349 0.0168498 0.00748429 0.00599487 -0.000457973 0.000431954 -3.43524e-10 -3.13315e-10 -4.20996e-10 5e-05 1.46608e-10 
199 1 0.0699599 0.017344 0.00719792 0.00618302 -0.000691115 0.000212024 2.16425e-10 -2.91767e-12 -5.2345e-11 5e-05 1.46608e-10 
200 1 0.0698478 0.0165678 0.00770753 0.00586594 -0.000418684 0.000525165 -1.30285e-11 -9.22551e-11 5.26643e-11 5e-05 1.46608e-10 
201 1 0.0702854 0.0180129 0.00721597 0.00581803 -0.000502246 0.000391673 -6.36673e-11 3.32549e-11 -1.37549e-12 5e-05 1.46608e-10 
203 1 0.0763371 0.0173741 0.0071454 0.00563729 0.000669726 -0.000304414 -1.29388e-10 -8.6023e-11 1.79842e-11 5e-05 1.46608e-10 
204 1 0.0699678 0.0166738 0.00762668 0.00593523 -0.000434703 0.000542429 2.10061e-10 7.24935e-11 -3.37721e-11 5e-05 1.46608e-10 
205 1 0.0700417 0.0177355 0.0071988 0.00594827 -0.000617499 0.000360655 -1.36631e-10 -7.97648e-11 -4.52298e-12 5e-05 1.46608e-10 
206 1 0.0700662 0.0173947 0.00721727 0.00616563 -0.0006317 0.000200139 2.1421e-10 -3.93022e-11 -3.61253e-10 5e-05 1.46608e-10 
207 1 0.0698451 0.0162131 0.0079912 0.00544885 -0.000412278 0.000507523 -9.23295e-12 1.54644e-11 -6.78333e-12 5e-05 1.46608e-10 
208 1 0.0699391 0.0172462 0.00719828 0.00618876 -0.000687688 0.00025175 7.46248e-11 1.63205e-10 7.37431e-11 5e-05 1.46608e-10 
209 1 0.064025 0.0176205 0.00711509 0.00611598 0.000125319 1.82035e-05 -4.73297e-10 1.4756e-10 -1.75825e-10 5e-05 1.46608e-10 
210 1 0.0755623 0.0157484 0.00824483 0.00576847 0.000685288 -0.000751921 -1.54067e-10 -3.29291e-10 2.22268e-10 5e-05 1.46608e-10 
211 1 0.0762089 0.0180679 0.00713958 0.00611419 0.00030894 -0.000330002 -2.6727e-11 -5.69152e-12 3.46113e-12 5e-05 1.46608e-10 
212 1 0.0702436 0.0170385 0.00734398 0.00623315 -0.000533533 0.000612994 3.04642e-10 -1.47848e-10 -1.28533e-11 5e-05 1.46608e-10 
213 1 0.0763017 0.0171924 0.00725158 0.00652359 0.000870748 -0.000362781 -5.03203e-10 3.45047e-10 -2.30622e-10 5e-05 1.46608e-10 
214 1 0.0760647 0.0178322 0.0071515 0.00619382 0.000240141 -0.000325118 5.54112e-12 -1.58338e-11 4.30046e-11 5e-05 1.46608e-10 
215 1 0.07003 0.016904 0.00744456 0.00609808 -0.000437664 0.00055465 -4.02113e-11 1.60377e-10 -1.75655e-10 5e-05 1.46608e-10 
216 1 0.070085 0.0167781 0.00754707 0.00600688 -0.00043583 0.000542438 -9.91038e-11 5.83173e-11 -4.31453e-11 5e-05 1.46608e-10 
217 1 0.0759834 0.0165677 0.00762067 0.00619944 0.000294465 -3.45019e-05 -3.86868e-11 -2.00436e-10 -1.91815e-10 5e-05 1.46608e-10 
218 1 0.0701831 0.0175217 0.00720544 0.00606411 -0.000494394 0.000413062 -1.51255e-11 -3.11041e-11 -2.35175e-11 5e-05 1.46608e-10 
219 1 0.0761272 0.0181255 0.00714286 0.00609059 0.000270105 -0.000327703 -3.16676e-12 2.37576e-11 6.39204e-12 5e-05 1.46608e-10 
220 1 0.0700087 0.0168274 0.0075052 0.00600105 -0.000443236 0.000550729 -4.79307e-11 8.41223e-11 1.69289e-12 5e-05 1.46608e-10 
221 1 0.0638593 0.0169713 0.00750437 0.00610705 0.00012597 6.6336e-05 5.53749e-11 1.55888e-10 4.41266e-11 5e-05 1.46608e-10 
222 1 0.0757385 0.0164489 0.00770828 0.00584279 0.000599586 -0.000824419 2.25902e-10 2.44129e-10 -1.14591e-09 5e-05 1.46608e-10 
223 1 0.0700743 0.0170596 0.00732699 0.00618651 -0.000710164 0.000384663 1.88318e-10 2.01444e-10 -1.27143e-10 5e-05 1.46608e-10 
224 1 0.0698555 0.0169284 0.00742605 0.0060504 -0.000519338 0.000373672 -7.58013e-11 -2.52866e-10 -2.59731e-10 5e-05 1.46608e-10 
225 1 0.0762411 0.017348 0.00715612 0.00573226 0.000421529 -0.000107418 8.28211e-12 7.93608e-10 -3.51412e-10 5e-05 1.46608e-10 
226 1 0.0700643 0.0167013 0.00760783 0.0059913 -0.000443191 0.000549497 -3.35448e-10 1.58568e-10 -1.4733e-10 5e-05 1.46608e-10 
227 1 0.0639212 0.0172042 0.00733365 0.00620251 0.000118285 7.31493e-05 7.59681e-11 1.76156e-10 -8.34811e-11 5e-05 1.46608e-10 
228 1 0.0507861 0.0189683 0.00558458 -5.32908e-15 -1.91194e-14 -2.87013e-13 1.69478e-22 1.14125e-23 -3.51552e-24 5e-05 1.46608e-10 
229 1 0.0696689 0.0158762 0.00825488 0.00534213 -0.000342179 0.000447625 1.93756e-10 -1.50745e-11 5.89461e-11 5e-05 1.46608e-10 
230 1 0.0700825 0.0179313 0.00720196 0.00586358 -0.000586086 0.000389677 -2.68281e-11 -1.64348e-12 -2.95754e-10 5e-05 1.46608e-10 
231 1 0.197479 0.018695 0.00523156 -1.10756e-15 -2.69832e-14 1.45243e-13 -2.33058e-22 2.68834e-24 -1.24077e-24 5e-05 1.46608e-10 
232 1 0.0696885 0.0159531 0.00819403 0.00532613 -0.000336944 0.000442929 8.4342e-11 1.78125e-11 -5.78095e-12 5e-05 1.46608e-10 
233 1 0.0699471 0.0165971 0.00768737 0.00589561 -0.000467579 0.000565554 8.84908e-12 4.90084e-11 -4.05513e-11 5e-05 1.46608e-10 
234 1 0.0755057 0.0155865 0.00849093 0.00583111 0.000738491 -0.00079262 -1.51318e-10 -1.67017e-10 2.87854e-10 5e-05 1.46608e-10 
235 1 0.0702543 0.0182802 0.00721581 0.00568771 -0.000525814 0.000381596 -1.26021e-11 1.06231e-10 -4.52933e-12 5e-05 1.46608e-10 
236 1 0.0703055 0.0181126 0.00721806 0.00577198 -0.000507377 0.000387906 9.68477e-13 2.12835e-10 1.82948e-12 5e-05 1.46608e-10 
237 1 0.0702113 0.0180798 0.00721143 0.00578279 -0.000543343 0.000388456 4.66653e-11 1.98571e-10 8.25819e-12 5e-05 1.46608e-10 
238 1 0.0640446 0.0177112 0.00707757 0.00576742 0.000100004 -0.000216242 9.19063e-12 8.69373e-11 1.2912e-10 5e-05 1.46608e-10 
239 1 0.0637544 0.016577 0.00779339 0.00593135 0.00016248 3.40384e-05 -1.4113e-10 4.05615e-11 -5.23975e-11 5e-05 1.46608e-10 
240 1 0.0638383 0.0168925 0.00756218 0.00609574 0.0001569 4.82932e-05 8.91993e-11 2.4995e-10 -8.59123e-11 5e-05 1.46608e-10 
241 1 0.0637754 0.0166559 0.00773558 0.00596666 0.000150067 4.03231e-05 4.15757e-10 8.29341e-11 2.72966e-11 5e-05 1.46608e-10 
242 1 0.0640828 0.0175442 0.00708633 0.00616656 0.000186836 6.5312e-07 -1.07937e-09 3.48451e-10 -4.72332e-10 5e-05 1.46608e-10 
243 1 0.0637335 0.0164981 0.00785119 0.00589465 0.00016952 2.69687e-05 -8.45574e-11 -1.84067e-11 3.09859e-11 5e-05 1.46608e-10 
244 1 0.0637964 0.0167347 0.00767778 0.00597491 0.000153476 3.61638e-05 1.74643e-10 -1.87096e-10 6.4952e-11 5e-05 1.46608e-10 
245 1 0.0640683 0.0178083 0.00707579 0.00572079 0.00011803 -0.000213116 -4.6333e-10 7.02098e-11 3.32543e-11 5e-05 1.46608e-10 
246 1 0.0639007 0.017045 0.00745094 0.00611825 0.000109034 7.43345e-05 -6.14965e-10 7.54091e-11 4.5964e-11 5e-05 1.46608e-10 
247 1 0.0702131 0.0172611 0.00720883 0.006143 -0.00066004 0.000249551 4.60457e-10 -3.41576e-11 7.49947e-11 5e-05 1.46608e-10 