ITEM: TIMESTEP
2000000
ITEM: NUMBER OF ATOMS
285
ITEM: BOX BOUNDS ff ff ff
-0.02 0.43
-0.02 0.06
-0.02 0.07
ITEM: ATOMS id type x y z vx vy vz fx fy fz radius mass 
1 1 0.0245342 0.0165033 0.00768391 0.00545353 -0.000391359 0.000244074 -4.34336e-10 2.90748e-11 -2.25084e-11 5e-05 1.46608e-10 
2 1 0.0248691 0.0171409 0.00725972 0.00547176 -0.00058791 0.000120864 -4.34338e-11 3.92398e-10 2.62683e-10 5e-05 1.46608e-10 
3 1 0.0188546 0.0179074 0.00701173 0.00565059 -0.00248526 0.000604698 1.12451e-10 -1.22703e-10 5.51778e-10 5e-05 1.46608e-10 
4 1 0.0249446 0.0178872 0.0071435 0.00594838 -0.00050183 0.000107605 3.41505e-11 1.1093e-10 -9.20547e-12 5e-05 1.46608e-10 
5 1 0.0244201 0.016397 0.00775976 0.0055729 -0.000384469 0.000239244 9.1112e-11 2.20912e-10 -9.33986e-11 5e-05 1.46608e-10 
6 1 0.0304595 0.0165407 0.00761161 0.00568637 0.000543709 -0.000209057 5.60252e-12 9.08811e-12 -9.75843e-12 5e-05 1.46608e-10 
7 1 0.0246502 0.0169838 0.00734359 0.00557333 -0.000418042 0.000263942 8.55138e-11 1.34089e-11 1.23374e-10 5e-05 1.46608e-10 
8 1 0.0243724 0.01608 0.00799265 0.00566078 -0.000300536 0.000340443 1.93931e-11 6.31456e-11 -5.29451e-11 5e-05 1.46608e-10 
9 1 0.0306918 0.0176006 0.00715974 0.00615526 0.000245803 -0.000335071 -2.62661e-11 -1.84902e-11 9.14557e-12 5e-05 1.46608e-10 
10 1 0.0245945 0.0171318 0.0072743 0.00553569 -0.000402385 0.000177216 2.197e-10 2.78793e-11 2.45168e-10 5e-05 1.46608e-10 
11 1 0.0247086 0.0172572 0.00724032 0.00556823 -0.000448937 8.46771e-05 -7.61582e-11 -1.27547e-11 -2.20744e-10 5e-05 1.46608e-10 
12 1 0.0247912 0.0176439 0.00718056 0.00597194 -0.000509349 0.000108065 1.25642e-10 -1.02494e-10 2.25858e-13 5e-05 1.46608e-10 
13 1 0.0244974 0.0167173 0.00753291 0.00550995 -0.000369436 0.000229051 1.78715e-11 3.07115e-11 -6.39994e-12 5e-05 1.46608e-10 
14 1 0.0185748 0.0170773 0.0073796 0.00507536 -0.00243096 0.000999098 -1.37553e-11 -5.21579e-11 1.13854e-10 5e-05 1.46608e-10 
15 1 0.0246944 0.0176127 0.00718494 0.00596121 -0.000505634 0.000108941 -2.28826e-11 -3.069e-10 3.14355e-11 5e-05 1.46608e-10 
16 1 0.0185552 0.0169891 0.00742255 0.00505873 -0.00246526 0.000981865 3.92116e-11 -2.32653e-10 -1.02372e-10 5e-05 1.46608e-10 
17 1 0.0245554 0.0169574 0.00736279 0.00555431 -0.000384862 0.000244149 1.53176e-10 -3.94145e-11 7.38767e-11 5e-05 1.46608e-10 
18 1 0.0305926 0.0171304 0.00729765 0.00574332 0.000344346 -0.000345593 -9.33802e-12 1.41648e-11 8.97672e-12 5e-05 1.46608e-10 
19 1 0.0243806 0.0162376 0.00787392 0.00548956 -0.000346679 0.00028763 1.0055e-10 -7.47617e-11 -2.4678e-11 5e-05 1.46608e-10 
20 1 0.0248667 0.0175783 0.00719114 0.00591229 -0.000544277 0.000113879 3.04478e-11 -3.16408e-12 2.61329e-11 5e-05 1.46608e-10 
21 1 0.0244003 0.0163171 0.0078165 0.00554848 -0.000376518 0.000255893 5.64727e-11 9.25439e-11 -7.66908e-11 5e-05 1.46608e-10 
22 1 0.0247482 0.0174509 0.00721036 0.00573303 -0.000467153 0.000101676 -2.44218e-10 6.93782e-11 2.58604e-11 5e-05 1.46608e-10 
23 1 0.0189301 0.0186494 0.00689298 0.00514449 -0.00240798 0.000572794 -2.1236e-10 -3.02021e-10 -2.34841e-13 5e-05 1.46608e-10 
24 1 0.0306705 0.0175069 0.0071873 0.00567594 0.000352632 -0.000344643 5.24595e-11 -1.52393e-11 4.77853e-12 5e-05 1.46608e-10 
25 1 0.0246691 0.0170661 0.00728531 0.00550355 -0.000426284 0.000277891 2.59455e-10 3.30954e-11 -1.15494e-10 5e-05 1.46608e-10 
26 1 0.0305345 0.0168479 0.00738042 0.00575459 0.000341987 -0.000345691 -8.69806e-12 2.37219e-11 1.50428e-11 5e-05 1.46608e-10 
27 1 0.0188461 0.018263 0.00695326 0.00570961 -0.00247657 0.000605697 4.14109e-11 1.54022e-10 -1.22027e-11 5e-05 1.46608e-10 
28 1 0.0245165 0.0167973 0.0074762 0.00551066 -0.000370257 0.000247823 3.04161e-11 4.82063e-13 7.33321e-11 5e-05 1.46608e-10 
29 1 0.0245536 0.0165834 0.00762721 0.00547156 -0.000392454 0.000245133 -2.23036e-10 5.86242e-11 -4.21069e-11 5e-05 1.46608e-10 
30 1 0.0249814 0.0177097 0.00717129 0.00599923 -0.000618523 0.00012692 5.24176e-12 -2.23408e-11 -5.02991e-12 5e-05 1.46608e-10 
31 1 0.0246727 0.0175162 0.00719983 0.0059563 -0.000504712 0.000109835 -2.62562e-11 -3.36308e-10 6.96884e-11 5e-05 1.46608e-10 
32 1 0.0247276 0.0173542 0.00722529 0.00560024 -0.000449283 9.62727e-05 -1.31009e-10 3.38252e-11 -6.14323e-12 5e-05 1.46608e-10 
33 1 0.0304781 0.0166114 0.00754337 0.00572266 0.000538796 -0.000202429 -9.01914e-12 -5.54147e-12 7.89777e-12 5e-05 1.46608e-10 
34 1 0.0245748 0.0170412 0.0073118 0.00559358 -0.000392272 0.000239081 -3.78283e-11 4.4422e-11 6.6259e-11 5e-05 1.46608e-10 
36 1 0.0307133 0.0176943 0.00713219 0.00617767 0.00024095 -0.000334626 -7.52225e-12 -8.46971e-12 2.87234e-12 5e-05 1.46608e-10 
37 1 0.0246139 0.0172256 0.00724555 0.00556781 -0.000437941 8.26283e-05 -2.18461e-11 2.58224e-12 1.25342e-10 5e-05 1.46608e-10 
38 1 0.0247697 0.0175474 0.00719546 0.00590424 -0.000498 0.000107475 1.16485e-10 -6.93186e-11 3.07028e-11 5e-05 1.46608e-10 
39 1 0.030651 0.0174127 0.00721489 0.00569241 0.000350078 -0.000344555 -8.81902e-12 -1.70178e-11 1.25486e-11 5e-05 1.46608e-10 
41 1 0.0244396 0.016477 0.00770307 0.00549691 -0.000362728 0.000223333 7.49195e-11 2.20353e-10 -1.46964e-10 5e-05 1.46608e-10 
42 1 0.024652 0.0174195 0.00721476 0.00576421 -0.000461325 0.000101827 -5.61453e-12 -3.11083e-10 4.25699e-11 5e-05 1.46608e-10 
44 1 0.0248451 0.0174818 0.00720603 0.00583349 -0.000526326 0.000111829 -2.89919e-11 -2.01137e-11 1.2969e-11 5e-05 1.46608e-10 
45 1 0.0305152 0.0167538 0.00740792 0.00577683 0.000317043 -0.00041942 5.75567e-12 -3.71021e-12 -8.23748e-12 5e-05 1.46608e-10 
46 1 0.0305732 0.0170362 0.00732524 0.00575784 0.000340936 -0.000344457 1.35945e-11 -1.17959e-12 9.95583e-12 5e-05 1.46608e-10 
47 1 0.0244781 0.0166372 0.00758963 0.00548638 -0.000358446 0.000221147 -1.19646e-10 7.20505e-11 -6.24991e-11 5e-05 1.46608e-10 
48 1 0.0248239 0.0173852 0.00722095 0.00569629 -0.000496919 0.000107139 -4.61008e-11 -3.79634e-11 6.92149e-14 5e-05 1.46608e-10 
49 1 0.0305538 0.0169421 0.00735283 0.00575693 0.000341539 -0.000345513 -7.84603e-13 1.91618e-11 -1.00332e-11 5e-05 1.46608e-10 
50 1 0.0248563 0.0179335 0.00713586 0.00595991 -0.000492393 0.000106509 2.32731e-11 -6.78279e-11 5.75999e-12 5e-05 1.46608e-10 
51 1 0.0248347 0.017837 0.00715075 0.00597233 -0.00050202 0.000107931 6.18779e-11 -9.87904e-11 2.5826e-11 5e-05 1.46608e-10 
52 1 0.0250082 0.0186063 0.00701717 0.00599307 -0.000585114 -7.57204e-05 -4.68855e-12 -4.97328e-11 2.35166e-11 5e-05 1.46608e-10 
53 1 0.0306121 0.0172245 0.00727007 0.0057267 0.000346688 -0.000345372 3.65173e-12 6.54171e-12 -7.05297e-12 5e-05 1.46608e-10 
54 1 0.0245151 0.0164233 0.00774065 0.00547975 -0.00039381 0.000246372 -2.28163e-10 -1.50838e-11 1.56233e-11 5e-05 1.46608e-10 
55 1 0.0186142 0.017254 0.00729459 0.00522203 -0.00242418 0.000987543 -1.98678e-10 1.03118e-10 -6.1196e-12 5e-05 1.46608e-10 
56 1 0.0246328 0.0173225 0.00722975 0.0055761 -0.000432134 5.91875e-05 -1.48502e-10 -1.21528e-10 1.70252e-10 5e-05 1.46608e-10 
57 1 0.0304966 0.0166821 0.00747511 0.00575853 0.00053323 -0.000195654 -9.24602e-12 -1.2268e-11 1.39503e-11 5e-05 1.46608e-10 
59 1 0.0247637 0.0170963 0.00727364 0.00551382 -0.000458251 0.000218291 7.43222e-11 -5.72582e-11 -3.45103e-10 5e-05 1.46608e-10 
60 1 0.0247835 0.0171917 0.00725096 0.00553734 -0.000475178 0.000110469 -1.03322e-10 -6.43188e-11 -3.30656e-10 5e-05 1.46608e-10 
61 1 0.0244587 0.0165571 0.00764634 0.00547106 -0.000350167 0.000216529 -6.94271e-11 1.5398e-10 -1.16039e-10 5e-05 1.46608e-10 
62 1 0.0248878 0.0176749 0.00717622 0.00597471 -0.000549131 0.000114688 2.04674e-11 -2.5497e-11 -8.61848e-12 5e-05 1.46608e-10 
63 1 0.0248035 0.0172885 0.00723589 0.0055861 -0.0004779 9.92029e-05 -1.0586e-10 -1.56938e-11 -6.9475e-11 5e-05 1.46608e-10 
64 1 0.0306316 0.0173186 0.00724248 0.00570998 0.000348453 -0.000344868 1.16556e-11 -1.30225e-11 1.48883e-12 5e-05 1.46608e-10 
65 1 0.0188896 0.0184559 0.00692322 0.00569738 -0.00247977 0.000603136 -7.68879e-11 5.8813e-12 -1.72812e-11 5e-05 1.46608e-10 
66 1 0.0188982 0.0181005 0.00698166 0.00567191 -0.00250217 0.000608094 -9.055e-11 4.37205e-12 -5.87985e-11 5e-05 1.46608e-10 
67 1 0.0249196 0.0174158 0.00721667 0.0057669 -0.000593801 0.000121352 -5.93698e-11 8.48409e-11 -5.25086e-12 5e-05 1.46608e-10 
68 1 0.0248131 0.0177405 0.00716565 0.00598704 -0.000512523 0.000109377 1.0776e-11 -8.88783e-11 7.84073e-12 5e-05 1.46608e-10 
69 1 0.0246886 0.0171599 0.00725531 0.00554066 -0.000471011 9.77759e-05 -2.26763e-10 2.27411e-11 3.16639e-11 5e-05 1.46608e-10 
70 1 0.0247379 0.0178056 0.00715516 0.00597302 -0.000505015 0.000107611 -1.50706e-11 -1.32721e-10 1.58163e-11 5e-05 1.46608e-10 
71 1 0.0185945 0.0171656 0.00733709 0.00511477 -0.00242425 0.000991327 -1.42655e-10 -4.60271e-11 1.87341e-11 5e-05 1.46608e-10 
72 1 0.0249227 0.0177903 0.00715847 0.00596623 -0.000508073 0.000108761 2.64082e-10 9.15635e-11 -1.47215e-11 5e-05 1.46608e-10 
73 1 0.024536 0.0168774 0.00741954 0.00551592 -0.000369639 0.000248589 7.70322e-11 -7.88172e-11 1.32728e-10 5e-05 1.46608e-10 
74 1 0.0250559 0.0176438 0.00718191 0.00595099 -0.000671004 0.000133756 -1.85712e-11 -1.78021e-12 1.122e-11 5e-05 1.46608e-10 
76 1 0.0195498 0.0190183 0.00685422 0.00471795 -0.00240792 0.000560187 -1.50437e-10 2.00062e-10 5.58819e-11 5e-05 1.46608e-10 
77 1 0.0249968 0.01896 0.00695173 0.00556816 -0.000471957 -8.32361e-05 -3.0316e-10 -9.05023e-12 -1.16914e-11 5e-05 1.46608e-10 
78 1 0.0186959 0.0176068 0.00712475 0.0056175 -0.00243285 0.000980313 2.48058e-11 2.92211e-10 -6.64682e-11 5e-05 1.46608e-10 
79 1 0.0189492 0.0187464 0.00687779 0.00522908 -0.00245099 0.000579392 -1.18423e-10 -3.58409e-10 1.61939e-10 5e-05 1.46608e-10 
80 1 0.0248466 0.0182885 0.00708061 0.00597633 -0.000528981 0.000120707 2.0093e-10 2.08759e-10 8.04331e-11 5e-05 1.46608e-10 
81 1 0.0188679 0.0183595 0.00693824 0.00571481 -0.00247579 0.00060459 5.34458e-11 1.01069e-10 -1.10186e-11 5e-05 1.46608e-10 
82 1 0.0189106 0.0185525 0.00690816 0.00512774 -0.00238071 0.000567458 -1.18822e-10 -1.10117e-10 3.36664e-11 5e-05 1.46608e-10 
83 1 0.0188027 0.0180701 0.0069833 0.00567362 -0.00248546 0.000566797 -4.66305e-10 -3.08382e-11 -3.08715e-10 5e-05 1.46608e-10 
84 1 0.0307347 0.017788 0.00710463 0.00619681 0.000234858 -0.00033388 1.0025e-11 1.44826e-11 -3.65405e-12 5e-05 1.46608e-10 
85 1 0.024323 0.0160101 0.00804445 0.00574107 -0.000345988 0.000374897 1.17318e-10 7.34425e-11 -5.91751e-11 5e-05 1.46608e-10 
86 1 0.0248997 0.0181265 0.00710607 0.00597489 -0.000498658 0.000104136 -2.14686e-11 1.04963e-10 -1.47627e-11 5e-05 1.46608e-10 
87 1 0.0248394 0.0170384 0.0073039 0.00551741 -0.000430596 0.000274137 -2.1559e-11 -4.6373e-11 4.09293e-11 5e-05 1.46608e-10 
88 1 0.0249335 0.018672 0.00700726 0.00599153 -0.000583788 -7.65977e-05 -8.78318e-11 -1.63702e-10 3.51262e-11 5e-05 1.46608e-10 
89 1 0.0249431 0.0183189 0.00707305 0.00597638 -0.000581988 -4.37824e-05 1.02704e-10 7.37718e-11 -4.0811e-10 5e-05 1.46608e-10 
90 1 0.0250224 0.0177999 0.00715747 0.00587718 -0.000566457 0.000117359 -1.56113e-10 2.47088e-11 -1.50727e-12 5e-05 1.46608e-10 
91 1 0.0247597 0.0179023 0.00714022 0.0059642 -0.000515687 0.000110135 -2.04306e-11 -1.75352e-10 2.45336e-11 5e-05 1.46608e-10 
92 1 0.0250685 0.0178876 0.00714407 0.00592376 -0.000582258 0.000119788 -3.02087e-10 7.45435e-11 2.7054e-11 5e-05 1.46608e-10 
93 1 0.0251711 0.0181293 0.00710091 0.0059181 -0.000632201 -6.53831e-05 4.15601e-10 -1.56533e-10 -4.14126e-11 5e-05 1.46608e-10 
94 1 0.0249214 0.0182229 0.00709117 0.00599971 -0.000533064 4.40692e-05 4.51229e-11 2.42706e-11 -1.20539e-10 5e-05 1.46608e-10 
95 1 0.0248249 0.018192 0.00709551 0.00599026 -0.00045312 0.000100374 -4.99258e-12 1.19179e-10 -1.67045e-11 5e-05 1.46608e-10 
96 1 0.0249951 0.0181561 0.00710141 0.00597447 -0.000591128 -4.16731e-05 -1.64376e-10 7.11072e-11 -1.01009e-10 5e-05 1.46608e-10 
97 1 0.0190635 0.0188754 0.00686067 0.00532924 -0.00251211 0.000606765 -4.56416e-10 1.93468e-10 -1.98321e-10 5e-05 1.46608e-10 
98 1 0.0249769 0.0188637 0.00697025 0.00599767 -0.000585652 -7.68911e-05 -3.14793e-11 -6.0159e-11 5.8971e-12 5e-05 1.46608e-10 
99 1 0.0189691 0.0188441 0.0068705 0.00528125 -0.00247624 0.00041049 -3.43137e-10 1.18211e-11 8.04489e-11 5e-05 1.46608e-10 
100 1 0.0250968 0.017734 0.00716809 0.0058478 -0.000607396 0.000123672 -7.246e-11 8.16195e-11 -1.3687e-11 5e-05 1.46608e-10 
101 1 0.01892 0.018197 0.00696664 0.00568742 -0.00250297 0.000608353 -1.91986e-11 5.0512e-11 4.07073e-12 5e-05 1.46608e-10 
102 1 0.0694385 0.0202053 0.00537268 3.9509e-15 4.4062e-15 -7.68305e-14 1.21974e-21 -7.4843e-22 1.75776e-23 5e-05 1.46608e-10 
104 1 0.0190249 0.018681 0.00689112 0.00515204 -0.0024379 0.000577035 -1.22575e-11 -2.32353e-10 7.24391e-11 5e-05 1.46608e-10 
105 1 0.0187592 0.0178778 0.00701641 0.00568306 -0.00246 0.000818806 -4.5794e-11 4.28466e-11 -4.50654e-11 5e-05 1.46608e-10 
106 1 0.0192213 0.0190941 0.00684141 0.00485731 -0.00233308 9.98401e-05 1.69184e-09 -7.09241e-10 -6.04954e-10 5e-05 1.46608e-10 
107 1 0.0187169 0.0176949 0.00708235 0.00566297 -0.00242347 0.000976637 7.34259e-11 1.75026e-10 -8.29163e-11 5e-05 1.46608e-10 
108 1 0.0246309 0.0169036 0.00740037 0.00551807 -0.00042764 0.000271286 3.67821e-10 1.70233e-10 -1.26303e-10 5e-05 1.46608e-10 
109 1 0.0247814 0.017999 0.0071253 0.00596347 -0.000505067 0.000108614 -2.32924e-12 -9.91705e-11 2.05722e-11 5e-05 1.46608e-10 
110 1 0.0249648 0.0184146 0.00705423 0.00597232 -0.000590813 -7.58014e-05 8.22929e-11 7.24314e-12 -1.98153e-10 5e-05 1.46608e-10 
111 1 0.0250716 0.0188944 0.00696161 0.00585193 -0.000203788 -0.000141447 1.9678e-11 4.01082e-11 -2.53982e-11 5e-05 1.46608e-10 
112 1 0.0188244 0.0181666 0.00696828 0.00570113 -0.00247881 0.000605065 -1.26065e-10 8.15952e-11 -9.34368e-11 5e-05 1.46608e-10 
113 1 0.0191387 0.0188104 0.00687391 0.00517805 -0.00243862 0.00057744 -7.12006e-10 3.31507e-10 -3.64726e-11 5e-05 1.46608e-10 
115 1 0.0248032 0.0180955 0.0071104 0.00597066 -0.000482367 0.000105331 -6.64824e-11 -2.3037e-10 2.86318e-11 5e-05 1.46608e-10 
116 1 0.024744 0.0170118 0.00732326 0.00556556 -0.000421294 0.000276852 2.38271e-10 3.50778e-11 -7.46111e-11 5e-05 1.46608e-10 
117 1 0.0247067 0.0168502 0.00743771 0.00551935 -0.000431801 0.000273254 1.89675e-10 -1.61249e-10 1.39313e-10 5e-05 1.46608e-10 
118 1 0.0186542 0.0174306 0.00720961 0.00552851 -0.00243293 0.000985864 -9.14243e-11 1.48421e-10 -1.09466e-10 5e-05 1.46608e-10 
119 1 0.0249623 0.017609 0.00718684 0.00592944 -0.000606565 0.000124101 -9.47378e-13 -2.80849e-11 3.0478e-12 5e-05 1.46608e-10 
120 1 0.0243607 0.0161592 0.00793265 0.0055007 -0.000315196 0.000346718 -7.61565e-11 -4.54115e-11 4.44554e-11 5e-05 1.46608e-10 
121 1 0.0244757 0.0162643 0.00785554 0.00550905 -0.000350562 0.000376106 6.96821e-13 7.42288e-11 -1.05134e-10 5e-05 1.46608e-10 
122 1 0.0250168 0.018252 0.00708284 0.00595753 -0.000602286 -6.12214e-05 3.22404e-10 1.90493e-12 -1.60215e-10 5e-05 1.46608e-10 
123 1 0.0187809 0.0179738 0.00699897 0.00567131 -0.0024929 0.000613111 -1.25228e-12 -1.79001e-10 -4.36718e-10 5e-05 1.46608e-10 
124 1 0.0248684 0.0183845 0.00706277 0.00596528 -0.000619744 -5.24582e-05 1.28975e-10 4.30884e-10 -9.1811e-11 5e-05 1.46608e-10 
125 1 0.0244956 0.0163432 0.00779734 0.00555942 -0.000401123 0.000250904 -1.66116e-10 3.67859e-11 -1.11251e-11 5e-05 1.46608e-10 
126 1 0.0247161 0.0177091 0.00717005 0.00596752 -0.000505111 0.000108655 -2.98963e-11 -2.47267e-10 5.04386e-11 5e-05 1.46608e-10 
127 1 0.0188764 0.0180039 0.00699671 0.00563733 -0.00250867 0.000598905 -1.48233e-10 1.69723e-10 -1.50451e-11 5e-05 1.46608e-10 
128 1 0.0250106 0.017968 0.00713126 0.00592441 -0.000568354 0.000118596 -3.13478e-10 2.97984e-11 -5.32327e-11 5e-05 1.46608e-10 
129 1 0.0249865 0.0185105 0.00703568 0.00598911 -0.000588066 -7.13713e-05 5.98231e-11 -9.86532e-11 -6.19876e-11 5e-05 1.46608e-10 
131 1 0.0190441 0.018778 0.00687593 0.00520329 -0.00246252 0.000582383 -2.81104e-10 -2.62628e-10 2.35993e-11 5e-05 1.46608e-10 
132 1 0.0249734 0.0180597 0.00711682 0.00593283 -0.000552068 0.000116117 -2.22521e-10 3.34574e-11 5.55576e-11 5e-05 1.46608e-10 
133 1 0.0245728 0.0166635 0.00757049 0.00551986 -0.000399722 0.00025044 1.93633e-11 4.08817e-11 -3.17408e-11 5e-05 1.46608e-10 
134 1 0.0248985 0.0173192 0.00723159 0.00562674 -0.000575087 0.000117889 -5.00127e-11 8.57425e-11 -1.25903e-11 5e-05 1.46608e-10 
135 1 0.0246678 0.01669 0.00755115 0.00556614 -0.00039882 0.000249364 4.82745e-12 1.11995e-10 -8.2284e-11 5e-05 1.46608e-10 
136 1 0.018675 0.0175187 0.00716718 0.00556973 -0.00242665 0.000980726 -2.11689e-10 1.95898e-10 -1.08614e-10 5e-05 1.46608e-10 
137 1 0.0250157 0.0190564 0.0069332 0.00562726 -0.000451128 -8.93754e-05 -1.33215e-10 3.55331e-11 -7.79898e-11 5e-05 1.46608e-10 
138 1 0.0251028 0.0182014 0.00708959 0.00591815 -0.000642075 -6.18532e-05 3.19961e-10 -3.83028e-10 5.06468e-11 5e-05 1.46608e-10 
140 1 0.024878 0.01803 0.00712096 0.00595763 -0.000488237 0.000108773 5.10487e-12 -5.42776e-13 -1.67054e-11 5e-05 1.46608e-10 
141 1 0.0188165 0.0177267 0.00706417 0.005668 -0.00242879 0.000977364 3.63872e-12 1.49796e-10 -7.51261e-11 5e-05 1.46608e-10 
142 1 0.0189635 0.0183899 0.0069366 0.00568555 -0.00248822 0.000604926 1.68599e-11 2.1594e-10 -3.73885e-11 5e-05 1.46608e-10 
143 1 0.0187376 0.017783 0.00703988 0.00568169 -0.00242299 0.000962358 -4.63978e-11 1.05127e-10 -1.11874e-10 5e-05 1.46608e-10 
146 1 0.0189942 0.0181313 0.00697996 0.00566201 -0.00253176 0.000611017 -3.26821e-11 1.08563e-10 -1.59353e-11 5e-05 1.46608e-10 
147 1 0.0186339 0.0173423 0.00725208 0.0054128 -0.00243393 0.000989121 7.85514e-11 1.58687e-10 -7.35879e-11 5e-05 1.46608e-10 
148 1 0.028917 0.017146 0.00809778 -0.00947026 0.0234195 -0.0149115 1.27057e-10 1.12452e-10 -1.50561e-10 5e-05 1.46608e-10 
149 1 0.0249118 0.0185762 0.00702576 0.00598463 -0.000584627 -7.6149e-05 9.12163e-11 -8.27711e-11 1.98079e-11 5e-05 1.46608e-10 
150 1 0.0189417 0.0182934 0.00695162 0.00573546 -0.00247834 0.000604919 -1.18582e-10 -1.82085e-13 4.27401e-12 5e-05 1.46608e-10 
151 1 0.01936 0.0187931 0.00688446 0.00483113 -0.00277413 0.000620905 -1.20025e-10 -4.236e-10 4.38825e-11 5e-05 1.46608e-10 
153 1 0.0189725 0.0180349 0.00699498 0.00563078 -0.00252867 0.000610422 -3.29024e-12 1.34644e-10 -5.61718e-12 5e-05 1.46608e-10 
154 1 0.0191649 0.0193694 0.00686139 0.00524193 -0.00222152 -0.00059211 2.06444e-10 -1.45999e-10 -2.59027e-11 5e-05 1.46608e-10 
155 1 0.0179 0.0238513 0.011561 -0.000258758 -0.000335118 -0.000609151 2.97205e-11 -1.00604e-11 -1.06217e-10 5e-05 1.46608e-10 
156 1 0.0190488 0.0192352 0.00685708 0.00511572 -0.00238068 -0.000609331 1.70914e-11 3.81408e-10 2.89403e-11 5e-05 1.46608e-10 
157 1 0.0197434 0.0192271 0.00682681 0.0037957 -4.83446e-05 0.000132629 -1.69819e-10 8.36568e-11 -1.94453e-10 5e-05 1.46608e-10 
158 1 0.0192529 0.0189398 0.00685674 0.00509931 -0.00253123 0.000589922 -3.79839e-10 2.60087e-10 2.14185e-11 5e-05 1.46608e-10 
159 1 0.0250764 0.0180984 0.00710957 0.00592847 -0.000667162 -6.62065e-05 -1.2794e-10 2.34483e-10 -1.04827e-10 5e-05 1.46608e-10 
160 1 0.0192044 0.0195065 0.00687158 0.00526281 -0.00218665 -0.000570117 3.68229e-10 -6.55261e-10 -1.00316e-10 5e-05 1.46608e-10 
162 1 0.0190824 0.0189725 0.00684545 0.00537 -0.00247719 0.000596051 -9.26782e-11 -1.82284e-11 -1.30906e-11 5e-05 1.46608e-10 
163 1 0.0193385 0.0188893 0.00686796 0.00499572 -0.00271934 0.000617051 2.3254e-11 -2.40056e-11 9.29203e-11 5e-05 1.46608e-10 
164 1 0.020069 0.0190411 0.00686833 4.23999e-15 -2.6364e-14 -1.54285e-13 -5.80319e-23 -9.15069e-24 0 5e-05 1.46608e-10 
165 1 0.019196 0.0185869 0.00691247 0.0050638 -0.00249045 0.000582978 -5.20313e-10 -2.51002e-10 1.59586e-11 5e-05 1.46608e-10 
166 1 0.024282 0.0158535 0.00816189 0.00571447 -0.000351347 0.000378564 -8.9752e-11 -5.39723e-11 3.87937e-11 5e-05 1.46608e-10 
167 1 0.0190163 0.0182281 0.0069649 0.00571978 -0.00252108 0.000611443 -7.33595e-11 9.3348e-11 -2.1635e-11 5e-05 1.46608e-10 
168 1 0.0192516 0.0194191 0.00685979 0.00528894 -0.00221722 -0.000593418 4.88132e-11 5.57875e-11 2.3613e-10 5e-05 1.46608e-10 
169 1 0.0193206 0.0192467 0.00683829 0.00411817 -0.000516335 -0.000365316 1.32407e-10 -4.02892e-11 -1.81184e-11 5e-05 1.46608e-10 
170 1 0.01934 0.0193736 0.00684898 0.00541761 -0.00203879 -0.000594742 -9.98552e-10 -8.77805e-10 9.26851e-12 5e-05 1.46608e-10 
171 1 0.0246872 0.0167701 0.00749445 0.0055408 -0.000394991 0.000247171 1.57437e-10 6.53366e-11 -4.92099e-11 5e-05 1.46608e-10 
172 1 0.0194125 0.0192002 0.00682725 0.00506483 -0.00224981 -0.000425117 2.29637e-10 8.1671e-11 -1.71247e-10 5e-05 1.46608e-10 
173 1 0.0249238 0.0172236 0.00724658 0.00551769 -0.000616084 0.000123372 -5.75972e-11 1.90181e-10 4.6986e-11 5e-05 1.46608e-10 
174 1 0.0193039 0.0195154 0.00686631 0.00527295 -0.00225785 -0.000557448 9.08708e-10 4.43648e-10 2.7623e-10 5e-05 1.46608e-10 
175 1 0.0173104 0.0153385 0.00884185 0.0828156 0.0194209 0.156422 0 0 -1.43822e-09 5e-05 1.46608e-10 
176 1 0.0190288 0.0191373 0.00685601 0.00531412 -0.00243515 -0.000143864 8.54848e-11 1.97931e-10 4.78376e-10 5e-05 1.46608e-10 
177 1 0.019626 0.0190826 0.00684636 0.00334086 -0.000792289 0.000243655 -7.8147e-10 -1.58677e-12 -3.59516e-11 5e-05 1.46608e-10 
178 1 0.019452 0.0190378 0.00684764 0.0046591 -0.00255566 0.000586199 9.6751e-10 -3.18249e-10 -6.28383e-11 5e-05 1.46608e-10 
179 1 0.0175955 0.0238919 0.0116342 0.00291801 -0.0305791 -0.0551241 -1.60967e-11 -4.4105e-10 -7.95068e-10 5e-05 1.46608e-10 
180 1 0.019368 0.0189838 0.00685355 0.00460184 -0.00255799 0.000582284 6.36107e-11 6.67645e-10 -2.60442e-11 5e-05 1.46608e-10 
181 1 0.0192274 0.0192923 0.00684946 0.00518553 -0.00231578 -0.000600117 2.13412e-10 3.95382e-10 -5.06047e-12 5e-05 1.46608e-10 
182 1 0.0248029 0.0168779 0.00741755 0.00558 -0.000445472 0.000282117 -1.35104e-10 -8.62081e-11 5.58398e-11 5e-05 1.46608e-10 
183 1 0.019406 0.0192995 0.00683708 0.00540511 -0.00211579 -0.000575267 1.5248e-10 4.22762e-10 -3.25567e-10 5e-05 1.46608e-10 
184 1 0.0250505 0.0187968 0.00698042 0.00600919 -0.000577439 -7.82773e-05 1.26504e-10 -3.9096e-11 5.01201e-12 5e-05 1.46608e-10 
185 1 0.0190683 0.019333 0.00686498 0.00509976 -0.00240116 -0.000601141 3.24157e-11 2.66121e-10 1.05151e-10 5e-05 1.46608e-10 
186 1 0.0191038 0.0190713 0.00685144 0.00525386 -0.00243132 0.000347348 -5.98108e-11 6.0172e-11 6.36656e-10 5e-05 1.46608e-10 
187 1 0.0248199 0.0169583 0.00736059 0.00555343 -0.000432965 0.000272611 -1.31483e-10 -1.37835e-10 9.71003e-11 5e-05 1.46608e-10 
188 1 0.0250385 0.0183478 0.00706433 0.00594849 -0.000618512 -7.10578e-05 -5.65238e-11 1.28912e-10 -5.53996e-11 5e-05 1.46608e-10 
189 1 0.024592 0.0167436 0.00751376 0.00552914 -0.000400468 0.000252646 1.32398e-10 7.62713e-11 -5.23749e-11 5e-05 1.46608e-10 
190 1 0.0194847 0.0191312 0.00683349 0.00481339 -0.0025376 0.000589901 2.07678e-10 4.0204e-10 -4.8378e-10 5e-05 1.46608e-10 
191 1 0.0250346 0.0191528 0.00691467 0.00568953 -0.000438475 -9.0396e-05 4.75702e-11 2.85178e-10 -4.2088e-12 5e-05 1.46608e-10 
192 1 0.0191365 0.0191884 0.0068462 0.00514171 -0.00240342 -0.000607264 -3.34402e-10 9.68669e-11 -2.54938e-10 5e-05 1.46608e-10 
193 1 0.0249327 0.0170673 0.0072829 0.00552563 -0.000475321 0.000309856 -7.39081e-11 1.71476e-10 1.59701e-11 5e-05 1.46608e-10 
194 1 0.0189847 0.0184867 0.0069215 0.00511926 -0.00238508 0.00056837 -3.75252e-10 9.85927e-11 -2.98173e-11 5e-05 1.46608e-10 
195 1 0.0197406 0.0191224 0.00684384 0.00384436 -0.0021401 0.000484221 -6.72087e-10 5.78136e-10 -1.01963e-10 5e-05 1.46608e-10 
196 1 0.0185355 0.0169021 0.00746768 0.00505424 -0.00248489 0.000979302 -6.42066e-11 -2.69512e-10 6.11668e-11 5e-05 1.46608e-10 
197 1 0.0195057 0.0193028 0.0068301 0.00530525 -0.000843648 -0.000484313 -4.2608e-10 2.95207e-10 2.68228e-11 5e-05 1.46608e-10 
198 1 0.0189889 0.0189419 0.00686284 0.00531616 -0.00247882 0.000339499 -2.43349e-10 3.49577e-11 -9.13476e-10 5e-05 1.46608e-10 
199 1 0.0191078 0.0195303 0.00688092 0.00518628 -0.00237113 -0.000609977 -1.57297e-10 -8.49742e-10 3.74734e-11 5e-05 1.46608e-10 
200 1 0.0190055 0.0185841 0.0069063 0.0051199 -0.00241642 0.000572975 -7.62041e-11 -3.27882e-10 9.14212e-11 5e-05 1.46608e-10 
201 1 0.0207377 0.0190368 0.00688747 4.24144e-15 -2.63637e-14 -1.54285e-13 -5.53177e-24 -4.65289e-25 -2.06795e-25 5e-05 1.46608e-10 
203 1 0.0249161 0.0169858 0.00734058 0.00554536 -0.000406428 0.000252973 -1.40749e-10 1.32726e-11 9.62177e-12 5e-05 1.46608e-10 
204 1 0.0191012 0.0186177 0.00690413 0.00511166 -0.00245828 0.000580475 -2.35381e-10 -4.33824e-10 5.5021e-11 5e-05 1.46608e-10 
205 1 0.0198071 0.0193035 0.0068163 0.000767053 0.0023791 -0.000385905 -2.14964e-10 -9.91319e-11 6.43355e-11 5e-05 1.46608e-10 
206 1 0.0195906 0.0192505 0.00682287 0.00557031 -0.000361109 -1.7709e-05 -9.26517e-10 1.08791e-10 1.29802e-09 5e-05 1.46608e-10 
207 1 0.01895 0.0179375 0.00701013 0.00559932 -0.00254831 0.000607637 7.05531e-10 5.33251e-10 -8.47413e-11 5e-05 1.46608e-10 
208 1 0.0190882 0.0194325 0.00687302 0.00514131 -0.00237479 -0.000602314 7.51844e-10 2.61958e-10 -5.66561e-11 5e-05 1.46608e-10 
209 1 0.0179157 0.0238992 0.0116474 -0.00403521 -4.8977e-05 -8.78656e-05 5.82048e-10 -1.2469e-10 -2.16249e-10 5e-05 1.46608e-10 
210 1 0.0243025 0.0159318 0.00810317 0.00572637 -0.000351232 0.00037867 6.2902e-11 1.84753e-11 -1.90039e-11 5e-05 1.46608e-10 
211 1 0.0251024 0.018573 0.00702046 0.00599909 -0.000575892 -7.80591e-05 5.27131e-11 9.47401e-12 -5.93306e-12 5e-05 1.46608e-10 
212 1 0.0194359 0.0189117 0.0068677 0.00485951 -0.00174999 0.000455287 -7.13904e-10 4.67141e-10 -1.01166e-10 5e-05 1.46608e-10 
213 1 0.0249874 0.0171474 0.00725874 0.00560165 -0.000573409 0.000112264 -7.04354e-11 1.79994e-10 -9.49277e-11 5e-05 1.46608e-10 
214 1 0.0248901 0.0184803 0.00704427 0.00597178 -0.000572515 -7.77117e-05 1.04185e-11 -2.19039e-10 5.97468e-11 5e-05 1.46608e-10 
215 1 0.0191776 0.0190042 0.00684357 0.00518682 -0.00246113 0.000573114 -2.45646e-10 4.55958e-11 4.14967e-11 5e-05 1.46608e-10 
216 1 0.0192492 0.0188411 0.00687274 0.00485269 -0.00250785 0.000577087 -1.58053e-10 2.70982e-10 -8.69199e-11 5e-05 1.46608e-10 
217 1 0.024726 0.0169303 0.00738093 0.00556485 -0.000442493 0.000279281 -6.58921e-11 -2.15009e-11 1.44815e-11 5e-05 1.46608e-10 
218 1 0.0201475 0.0191443 0.00685286 -3.9759e-15 2.47093e-14 1.44604e-13 1.22138e-24 -4.1359e-25 2.06795e-25 5e-05 1.46608e-10 
219 1 0.0249552 0.0187679 0.00698875 0.00599692 -0.000586983 -7.55864e-05 7.14137e-12 -1.57864e-10 2.56304e-11 5e-05 1.46608e-10 
220 1 0.0191583 0.0189073 0.00685875 0.00510013 -0.00243893 0.000577385 -8.58527e-10 2.99771e-10 -3.33355e-12 5e-05 1.46608e-10 
221 1 0.0172236 0.0234928 0.010949 -0.0102692 -0.0469177 -0.0758446 1.52023e-10 -4.27271e-10 -7.64671e-10 5e-05 1.46608e-10 
222 1 0.0246115 0.0168236 0.00745707 0.00551191 -0.000417857 0.000263691 3.30782e-10 1.49101e-10 -9.93601e-11 5e-05 1.46608e-10 
223 1 0.0192362 0.019193 0.00684139 0.00516709 -0.00236635 -0.000419716 -7.6383e-11 2.15463e-10 1.33284e-10 5e-05 1.46608e-10 
224 1 0.0190085 0.0190394 0.00685289 0.00534383 -0.00247192 0.000312342 4.49302e-11 1.93334e-10 -1.78934e-10 5e-05 1.46608e-10 
225 1 0.0249938 0.0173496 0.00722733 0.00569168 -0.000677619 0.00013339 8.58048e-11 6.03635e-11 -5.89668e-12 5e-05 1.46608e-10 
226 1 0.0192723 0.0187452 0.00688923 0.00475827 -0.00248418 0.00057295 1.34407e-09 1.64993e-10 5.63907e-11 5e-05 1.46608e-10 
227 1 0.0163186 0.0143725 0.0126573 0.0129104 -0.00549856 -0.00732209 -9.69037e-11 1.58253e-12 1.23511e-10 5e-05 1.46608e-10 
228 1 0.0177635 0.0238484 0.0115557 -2.17186e-05 -0.000358676 -0.000646589 2.72436e-12 2.39991e-11 4.31507e-11 5e-05 1.46608e-10 
229 1 0.0187743 0.0175498 0.00714935 0.00562778 -0.00242435 0.000973475 -1.63464e-10 3.0264e-10 -1.45628e-10 5e-05 1.46608e-10 
230 1 0.0204607 0.0190408 0.00687916 4.24138e-15 -2.63637e-14 -1.54285e-13 -5.75149e-25 1.55096e-25 -2.06795e-25 5e-05 1.46608e-10 
231 1 0.156017 0.0149599 0.00721233 0.505669 0.153183 -0.076847 0 0 -1.43822e-09 5e-05 1.46608e-10 
232 1 0.0187955 0.0176381 0.00710682 0.00570388 -0.00237274 0.000947125 -1.85995e-11 3.41253e-11 2.44554e-11 5e-05 1.46608e-10 
233 1 0.0190818 0.0185208 0.00691931 0.00505359 -0.00246929 0.000579103 -1.65355e-10 -3.97443e-10 4.74801e-11 5e-05 1.46608e-10 
234 1 0.024241 0.0156969 0.00827933 0.0056941 -0.000349145 0.000376753 4.2483e-12 -7.30991e-13 -5.78418e-13 5e-05 1.46608e-10 
235 1 0.0213747 0.0193157 0.00685731 -3.97534e-15 2.47093e-14 1.44604e-13 -1.46049e-24 -5.16988e-26 0 5e-05 1.46608e-10 
236 1 0.021154 0.0192141 0.00686861 -3.97515e-15 2.47093e-14 1.44604e-13 6.24909e-24 -1.34417e-24 4.1359e-25 5e-05 1.46608e-10 
237 1 0.0210158 0.0192276 0.00686251 4.24168e-15 -2.63636e-14 -1.54285e-13 1.12445e-24 -4.65289e-25 2.06795e-25 5e-05 1.46608e-10 
238 1 0.0180504 0.0239075 0.011673 0.00652591 0.0130592 0.00891541 0 0 -1.43822e-09 5e-05 1.46608e-10 
239 1 0.0147029 0.0203216 0.0071887 3.60552e-15 -1.19881e-14 6.44398e-14 1.18907e-23 2.17135e-24 -2.06795e-25 5e-05 1.46608e-10 
240 1 0.0151747 0.0203438 0.0071762 -7.57998e-16 2.58188e-14 -2.11472e-13 -6.44619e-25 -2.58494e-26 0 5e-05 1.46608e-10 
241 1 0.0148655 0.0202546 0.00716714 3.60334e-15 -1.19887e-14 6.44398e-14 7.94869e-24 6.56575e-24 6.20385e-25 5e-05 1.46608e-10 
242 1 0.0182781 0.023859 0.0115743 -0.0141309 0.0020436 0.00652224 2.25943e-06 4.75361e-08 -1.02582e-06 5e-05 1.46608e-10 
243 1 0.0146057 0.020346 0.00719868 -1.29115e-14 4.2933e-14 -2.30778e-13 6.5916e-25 -4.1359e-25 -2.06795e-25 5e-05 1.46608e-10 
244 1 0.0148418 0.0211293 0.00743851 0.00230004 -0.0540698 0.0462168 0 0 -1.43822e-09 5e-05 1.46608e-10 
245 1 0.0189779 0.0238643 0.011584 -0.00271624 0.00127516 0.00088885 -7.02971e-08 -2.40063e-09 6.22299e-09 5e-05 1.46608e-10 
246 1 0.0156334 0.019327 0.0175625 0 0 -0.134011 0 0 -1.43822e-09 5e-05 1.46608e-10 
247 1 0.0204223 0.014253 0.0116783 -0.00010356 0.00238013 -0.00416007 -1.32734e-10 -6.13219e-09 4.23252e-09 5e-05 1.46608e-10 
248 1 0.0204141 0.0141886 0.0119171 0.00136046 0.0304089 -0.00455085 0 0 -1.43822e-09 5e-05 1.46608e-10 