ITEM: TIMESTEP
8800000
ITEM: NUMBER OF ATOMS
284
ITEM: BOX BOUNDS ff ff ff
-0.02 0.43
-0.02 0.06
-0.02 0.07
ITEM: ATOMS id type x y z vx vy vz fx fy fz radius mass 
1 1 0.0641591 0.0164604 0.00789007 0.00607323 0.000302449 -6.72826e-05 -4.7757e-11 8.36204e-12 -5.28795e-12 5e-05 1.46608e-10 
2 1 0.0645373 0.0172175 0.00733971 0.00566881 0.000382802 -0.000137273 -3.97463e-11 5.71488e-11 -3.17291e-11 5e-05 1.46608e-10 
3 1 0.0581239 0.0163943 0.00805712 0.00591029 9.19707e-05 2.53048e-06 -7.84262e-11 5.57176e-11 -8.13288e-11 5e-05 1.46608e-10 
4 1 0.0645447 0.0176806 0.0070646 0.00569375 0.000292763 -0.000109589 9.83705e-11 -1.22415e-10 5.07476e-11 5e-05 1.46608e-10 
5 1 0.0640627 0.0164342 0.00790699 0.0060764 0.000297714 -6.36377e-05 -3.74942e-11 -8.20362e-12 1.42676e-11 5e-05 1.46608e-10 
6 1 0.0700989 0.0165206 0.00775347 0.00602975 -0.000194616 0.000352476 1.82352e-11 2.47243e-11 -1.43989e-11 5e-05 1.46608e-10 
7 1 0.0642534 0.0168587 0.00759783 0.00595003 0.00031776 -8.22779e-05 -1.03371e-10 1.02479e-10 -7.81888e-11 5e-05 1.46608e-10 
8 1 0.0640724 0.0161422 0.00811635 0.00611621 0.000177172 -0.000248899 2.55005e-11 -4.50282e-11 5.05764e-11 5e-05 1.46608e-10 
9 1 0.0703289 0.0175113 0.00721525 0.00545145 -0.000131135 0.000370743 1.30393e-10 -1.82443e-13 -3.09761e-12 5e-05 1.46608e-10 
10 1 0.0642046 0.0169646 0.00751823 0.00580894 0.000337233 -0.000101572 -1.01246e-10 2.96243e-11 -1.7255e-11 5e-05 1.46608e-10 
11 1 0.0643272 0.0170801 0.00743593 0.00568924 0.000355081 -0.000116345 8.64845e-11 -5.14079e-12 -2.57328e-13 5e-05 1.46608e-10 
12 1 0.064399 0.0173973 0.00720313 0.00560763 0.000359345 -0.000119321 1.78597e-11 2.44027e-11 6.56136e-12 5e-05 1.46608e-10 
13 1 0.0643337 0.0175447 0.00724618 0.00557517 0.000394798 -0.000175055 1.08569e-11 -1.24493e-11 1.923e-10 5e-05 1.46608e-10 
14 1 0.0578142 0.0157085 0.00877356 0.00577373 -0.000294141 -0.000341265 2.24386e-11 -7.97714e-11 1.01876e-10 5e-05 1.46608e-10 
15 1 0.0642983 0.0173606 0.00722767 0.00560246 0.000347004 -0.000111911 -4.42324e-12 -4.64952e-11 4.98207e-11 5e-05 1.46608e-10 
16 1 0.0577926 0.0156452 0.00884797 0.0057796 -0.00029761 -0.00034016 7.74225e-11 -7.6386e-11 4.41703e-11 5e-05 1.46608e-10 
17 1 0.0643592 0.017427 0.0072899 0.00563957 0.000345683 -0.000114296 9.02834e-11 -8.96149e-11 4.20212e-11 5e-05 1.46608e-10 
18 1 0.0702346 0.017059 0.00732728 0.00561274 -0.000123247 0.000284564 -2.58311e-11 4.9822e-11 -5.07052e-11 5e-05 1.46608e-10 
19 1 0.0640194 0.0162767 0.00802239 0.00609919 0.000297285 -6.39802e-05 -1.24305e-11 -4.28673e-11 2.59796e-11 5e-05 1.46608e-10 
20 1 0.064478 0.0174443 0.00726892 0.00557439 0.000369156 -9.28828e-05 9.93022e-12 1.41917e-10 -1.60511e-10 5e-05 1.46608e-10 
21 1 0.0640411 0.0163554 0.00796469 0.00608629 0.000297522 -6.28287e-05 -2.36179e-11 -4.55116e-11 3.77215e-11 5e-05 1.46608e-10 
22 1 0.0643645 0.0172385 0.0073197 0.00565809 0.000354407 -0.000115664 -8.90718e-12 -3.95681e-11 2.80077e-11 5e-05 1.46608e-10 
23 1 0.0581769 0.0168537 0.00759532 0.00573901 0.000124185 -3.67181e-05 -4.73398e-11 3.79293e-12 8.70121e-11 5e-05 1.46608e-10 
24 1 0.07031 0.0174131 0.00721325 0.00547375 -0.000132704 0.000372542 -3.22251e-11 -6.39637e-11 3.30513e-11 5e-05 1.46608e-10 
25 1 0.0642891 0.01695 0.00757785 0.00584988 0.000347887 -9.41817e-05 -7.70646e-11 6.41816e-11 -1.30813e-10 5e-05 1.46608e-10 
26 1 0.0701783 0.016828 0.00751019 0.00572514 -0.000149458 0.000306165 -4.93413e-11 4.21928e-13 -1.07664e-11 5e-05 1.46608e-10 
27 1 0.0580922 0.0165776 0.00787201 0.00590791 0.000107219 -1.15529e-05 -9.42011e-11 7.01701e-11 -8.3071e-11 5e-05 1.46608e-10 
28 1 0.0642945 0.0173664 0.00733637 0.00513214 0.000633125 -0.000466301 9.66526e-12 2.08373e-11 -3.09431e-11 5e-05 1.46608e-10 
29 1 0.0641812 0.0165391 0.00783245 0.00606551 0.000302577 -6.69922e-05 1.31838e-11 4.1092e-11 -3.13012e-11 5e-05 1.46608e-10 
30 1 0.064582 0.0175878 0.00706691 0.00567975 0.000296961 -7.25846e-05 1.52809e-10 -7.67241e-11 8.81003e-11 5e-05 1.46608e-10 
31 1 0.0642802 0.0172813 0.00728589 0.00556019 0.000351621 -0.000115039 3.51861e-12 -5.31518e-11 6.41008e-11 5e-05 1.46608e-10 
32 1 0.0643456 0.0171594 0.00737778 0.00567552 0.000353805 -0.000115382 -8.64427e-13 -2.80409e-11 2.22414e-11 5e-05 1.46608e-10 
33 1 0.0701198 0.0165973 0.00769281 0.00562295 -0.00013016 0.000287774 -1.80412e-10 1.89724e-11 -5.88673e-11 5e-05 1.46608e-10 
34 1 0.0641899 0.0169346 0.00761246 0.00594291 0.000313384 -9.33696e-05 -1.00582e-10 7.47997e-12 1.61887e-11 5e-05 1.46608e-10 
36 1 0.0703478 0.0176094 0.00721725 0.00544511 -0.000136388 0.000369964 7.70037e-11 -2.28021e-11 8.01964e-12 5e-05 1.46608e-10 
37 1 0.0642244 0.0170437 0.00746026 0.00582627 0.00033058 -9.51211e-05 -2.3098e-11 3.21194e-11 -2.1197e-11 5e-05 1.46608e-10 
38 1 0.0643829 0.0173178 0.00726156 0.00563325 0.000355846 -0.000117226 2.16197e-11 -1.62122e-11 2.04214e-11 5e-05 1.46608e-10 
39 1 0.070291 0.0173149 0.0072116 0.00566142 -0.000168205 0.00022494 -3.84974e-11 -7.61483e-11 1.00257e-10 5e-05 1.46608e-10 
41 1 0.0640844 0.0165129 0.00784929 0.0060674 0.000298007 -6.41677e-05 -5.05554e-12 2.48747e-11 -1.00341e-11 5e-05 1.46608e-10 
42 1 0.0642617 0.0172021 0.00734403 0.00567399 0.000347593 -0.000111223 8.98814e-12 -3.03348e-11 2.4871e-11 5e-05 1.46608e-10 
44 1 0.0644772 0.0173481 0.00724154 0.0056248 0.00037751 -0.000136824 3.72708e-12 5.36052e-11 -7.83492e-11 5e-05 1.46608e-10 
45 1 0.0701588 0.0167511 0.00757106 0.00567898 -0.00013977 0.000297068 -1.64084e-11 5.78394e-11 -2.83357e-11 5e-05 1.46608e-10 
46 1 0.0702166 0.0169819 0.00738836 0.00562075 -0.000130338 0.000288767 -7.43688e-11 7.99404e-11 -3.58439e-11 5e-05 1.46608e-10 
47 1 0.0641276 0.01667 0.00773419 0.00604741 0.000300323 -6.67305e-05 -1.61415e-11 5.8192e-11 -4.16436e-11 5e-05 1.46608e-10 
48 1 0.0644611 0.0172686 0.00729997 0.00565195 0.000370887 -0.000129623 -4.77108e-11 -8.39709e-12 7.59962e-12 5e-05 1.46608e-10 
49 1 0.0701996 0.0169047 0.00744957 0.00562492 -0.000135257 0.000291104 -1.0509e-11 3.46946e-11 4.77143e-12 5e-05 1.46608e-10 
50 1 0.0644464 0.0176434 0.00705311 0.0056999 0.000299395 -0.000194385 -3.83608e-11 5.03314e-11 -3.02131e-11 5e-05 1.46608e-10 
51 1 0.0644364 0.0175628 0.00711139 0.00567397 0.000332447 -0.000143852 -1.8035e-11 -5.47006e-12 -6.21866e-11 5e-05 1.46608e-10 
52 1 0.0645898 0.0183324 0.00708376 0.00596464 0.000268846 -0.000207823 6.03915e-11 -4.93882e-11 -5.63047e-12 5e-05 1.46608e-10 
53 1 0.0702618 0.0171346 0.00726772 0.00560977 -0.000123717 0.000281778 5.52418e-11 -6.78862e-12 -3.16375e-11 5e-05 1.46608e-10 
54 1 0.0641374 0.0163817 0.00794777 0.00608031 0.000302648 -6.93989e-05 -7.47987e-11 -5.24731e-12 -6.96108e-12 5e-05 1.46608e-10 
55 1 0.0578591 0.0158346 0.00862498 0.00583356 -0.000297365 -0.000350296 1.16529e-10 -1.64224e-11 4.30381e-11 5e-05 1.46608e-10 
56 1 0.0642433 0.0171228 0.00740218 0.00567412 0.000349227 -0.000112017 -1.61193e-11 1.40911e-11 -7.27096e-12 5e-05 1.46608e-10 
57 1 0.0701393 0.0166742 0.00763194 0.00565388 -0.00013067 0.000291134 3.56519e-11 7.23438e-11 -5.62094e-11 5e-05 1.46608e-10 
59 1 0.0644053 0.0170309 0.00747436 0.0056884 0.000361087 -0.000120558 5.69388e-11 -1.86478e-11 1.19175e-11 5e-05 1.46608e-10 
60 1 0.0644237 0.0171102 0.0074162 0.00568333 0.000362541 -0.00012186 3.87033e-11 -2.23104e-11 1.68284e-11 5e-05 1.46608e-10 
61 1 0.0641065 0.0165956 0.00779759 0.00605862 0.000298589 -6.50107e-05 1.23453e-11 5.02948e-11 -2.66902e-11 5e-05 1.46608e-10 
62 1 0.0645022 0.0175362 0.00721117 0.00563197 0.000303281 -8.30649e-05 7.32623e-12 -6.82861e-11 -3.52827e-11 5e-05 1.46608e-10 
63 1 0.0644426 0.0171893 0.00735812 0.00567011 0.000368497 -0.000126114 1.19939e-11 -4.01633e-11 3.32458e-11 5e-05 1.46608e-10 
64 1 0.0702715 0.0172168 0.00721171 0.00569266 -0.000175327 0.000224411 -2.39574e-11 1.42972e-11 1.04378e-10 5e-05 1.46608e-10 
65 1 0.0581357 0.0167155 0.00773384 0.00593063 0.000103421 -9.53701e-06 -2.8489e-11 -5.41263e-11 3.12397e-11 5e-05 1.46608e-10 
66 1 0.0582509 0.0171716 0.00743394 0.00514882 0.000234863 -8.42683e-05 1.12487e-11 1.70671e-10 -1.14581e-11 5e-05 1.46608e-10 
67 1 0.0645644 0.0173967 0.00720785 0.00559405 0.000329056 -0.000103853 1.9188e-10 1.74429e-10 -1.86493e-10 5e-05 1.46608e-10 
68 1 0.0643951 0.0174776 0.00714364 0.00562045 0.000360793 -0.000120241 -2.38777e-12 -4.17107e-12 -4.44447e-11 5e-05 1.46608e-10 
69 1 0.0643091 0.0170009 0.00749413 0.00575519 0.000353035 -0.00010738 9.7247e-11 1.62657e-11 -9.07742e-11 5e-05 1.46608e-10 
70 1 0.0643437 0.0175655 0.00714888 0.0056655 0.00040376 -0.00016828 2.98851e-11 -9.05924e-11 1.04924e-10 5e-05 1.46608e-10 
71 1 0.0578357 0.0157717 0.00869916 0.00580308 -0.000294295 -0.000347405 -2.13869e-10 -3.90234e-11 9.43025e-11 5e-05 1.46608e-10 
72 1 0.0645158 0.0176179 0.00713697 0.00566179 0.000331424 -6.8882e-05 -9.88379e-11 -1.0202e-10 7.7907e-11 5e-05 1.46608e-10 
73 1 0.0644247 0.0176573 0.00714973 0.00564572 0.000351049 -0.000205206 -5.54547e-11 7.73416e-11 -4.74708e-11 5e-05 1.46608e-10 
74 1 0.0647582 0.0178077 0.00705009 0.00571938 0.000283948 -0.000197484 -1.78565e-10 -2.74571e-10 2.02373e-10 5e-05 1.46608e-10 
76 1 0.058742 0.0181788 0.00717765 0.00578263 9.32726e-05 -6.51456e-05 -1.56944e-10 -2.85435e-11 9.31807e-13 5e-05 1.46608e-10 
77 1 0.0645798 0.0186909 0.00710286 0.00597588 0.000266258 -0.000208454 2.73424e-11 2.54494e-11 -2.03916e-12 5e-05 1.46608e-10 
78 1 0.0579438 0.0161061 0.00834447 0.00588106 8.16522e-05 8.19247e-06 1.26099e-10 5.99223e-11 -6.37407e-11 5e-05 1.46608e-10 
79 1 0.0581956 0.0169231 0.00752576 0.00575427 0.000113234 -2.7004e-05 5.30018e-11 9.3267e-12 4.1655e-11 5e-05 1.46608e-10 
80 1 0.0644311 0.0180067 0.00707266 0.00562956 0.000291772 -0.000193468 2.79679e-11 -1.16884e-10 -2.12822e-11 5e-05 1.46608e-10 
81 1 0.0581139 0.0166466 0.00780292 0.00590735 0.00010843 -1.37402e-05 3.19601e-11 5.2436e-12 -5.1996e-13 5e-05 1.46608e-10 
82 1 0.0581573 0.0167845 0.00766474 0.0059514 9.74654e-05 -4.66818e-06 -3.13712e-11 -7.42912e-11 7.54878e-11 5e-05 1.46608e-10 
83 1 0.0580501 0.0164504 0.00801975 0.00591004 9.29376e-05 -2.14395e-06 -1.25834e-11 4.36871e-11 -8.69162e-11 5e-05 1.46608e-10 
84 1 0.070367 0.0177076 0.00721926 0.00542353 -0.000130114 0.000368251 6.47112e-11 -4.17821e-11 4.30948e-12 5e-05 1.46608e-10 
85 1 0.0639761 0.0161176 0.00813561 0.00613194 6.47007e-05 -0.000388427 2.67183e-12 -6.94047e-11 -5.83285e-11 5e-05 1.46608e-10 
86 1 0.0644877 0.0178434 0.00706202 0.00567454 0.00030984 -0.000206424 -1.18427e-10 -1.06466e-10 7.25526e-11 5e-05 1.46608e-10 
87 1 0.0645185 0.0171379 0.00739812 0.00567386 0.000375404 -0.000131638 2.71818e-11 -7.17512e-11 5.1103e-11 5e-05 1.46608e-10 
88 1 0.0645146 0.0183979 0.00708999 0.00596816 0.000279667 -0.000207418 6.18767e-11 9.53809e-11 -2.16006e-12 5e-05 1.46608e-10 
89 1 0.0645261 0.0180395 0.00707083 0.00566199 0.00030549 -0.000193334 1.88499e-10 -1.87286e-10 -3.35548e-11 5e-05 1.46608e-10 
90 1 0.0646385 0.0177125 0.00705073 0.00569425 0.000280245 -0.000129348 -7.52598e-11 -5.68152e-11 3.08855e-11 5e-05 1.46608e-10 
91 1 0.0643523 0.0175968 0.00705432 0.00575856 0.000425274 -0.000160168 6.19887e-11 -2.0506e-11 5.69991e-11 5e-05 1.46608e-10 
92 1 0.0646583 0.0178107 0.00705397 0.00572214 0.000232135 -0.000201436 -3.45274e-11 1.60953e-10 7.57968e-11 5e-05 1.46608e-10 
93 1 0.064666 0.0182674 0.00707753 0.00595678 0.000275621 -0.000207221 -9.23002e-11 7.00073e-11 1.45659e-11 5e-05 1.46608e-10 
94 1 0.0645067 0.0179415 0.00706644 0.00557615 0.000328641 -0.000192589 2.04363e-10 -2.64785e-10 -7.04121e-11 5e-05 1.46608e-10 
95 1 0.0644121 0.0179086 0.00706824 0.00566448 0.000293106 -0.000195131 -4.36008e-11 -1.91386e-11 -6.53899e-12 5e-05 1.46608e-10 
96 1 0.0646026 0.0179745 0.0070646 0.00583861 0.000267921 -0.000205957 -1.22079e-10 -1.56556e-10 -5.5011e-13 5e-05 1.46608e-10 
97 1 0.0583091 0.0170204 0.00743924 0.00565188 0.000154015 -6.48102e-05 8.38273e-11 4.22609e-11 -2.26037e-11 5e-05 1.46608e-10 
98 1 0.0645581 0.0185932 0.00709857 0.0059618 0.000236938 -0.000208951 -1.28685e-11 -2.28705e-12 6.1408e-12 5e-05 1.46608e-10 
99 1 0.0582141 0.0169925 0.00745618 0.0056994 0.000125315 -3.47512e-05 6.03135e-12 7.06971e-11 -9.47549e-11 5e-05 1.46608e-10 
100 1 0.0647775 0.0179057 0.0070545 0.00577405 0.000277851 -0.000203834 2.12521e-10 -5.3267e-10 4.48256e-12 5e-05 1.46608e-10 
101 1 0.0581669 0.016531 0.00792011 0.0058935 9.19146e-05 2.82968e-06 7.81238e-11 -2.76503e-11 1.72899e-11 5e-05 1.46608e-10 
102 1 0.0694385 0.0202053 0.00537268 3.97186e-15 4.43322e-15 -7.68279e-14 1.90471e-21 -1.95711e-21 -8.27181e-24 5e-05 1.46608e-10 
104 1 0.0582712 0.0168821 0.00757797 0.00572583 0.000146461 -6.8457e-05 -4.971e-11 1.11562e-10 1.31603e-10 5e-05 1.46608e-10 
105 1 0.0580107 0.0163272 0.00816556 0.00590301 7.10193e-05 -7.41396e-06 1.41809e-10 -6.40187e-11 -3.18657e-11 5e-05 1.46608e-10 
106 1 0.0583582 0.0172247 0.00722462 0.00562852 0.000124004 -3.13452e-05 -8.74151e-11 -1.57744e-11 1.51612e-11 5e-05 1.46608e-10 
107 1 0.0579657 0.0161882 0.00829188 0.0058863 7.85643e-05 -6.14515e-07 2.62353e-11 2.10358e-11 -5.53483e-11 5e-05 1.46608e-10 
108 1 0.0641694 0.0168442 0.00765015 0.00595763 0.000309004 -8.27374e-05 -1.27484e-10 8.4657e-11 -9.22955e-11 5e-05 1.46608e-10 
109 1 0.0643744 0.0177124 0.0070594 0.00569805 0.000307585 -0.000195504 2.18135e-11 5.44843e-11 2.19554e-11 5e-05 1.46608e-10 
110 1 0.0645465 0.0181373 0.00707518 0.00590506 0.000242614 -0.000207196 -1.76928e-10 5.3463e-11 2.82367e-11 5e-05 1.46608e-10 
111 1 0.0646547 0.0186249 0.00709663 0.0059709 0.000261244 -0.000208516 6.26694e-12 4.5867e-11 2.08399e-12 5e-05 1.46608e-10 
112 1 0.0580705 0.0165086 0.00794109 0.00592036 9.97701e-05 -4.84005e-06 -7.58691e-11 5.95284e-11 -9.39964e-11 5e-05 1.46608e-10 
113 1 0.0583854 0.0169708 0.00748079 0.00565265 0.000152722 -6.85687e-05 1.69865e-11 4.6907e-11 -4.97461e-11 5e-05 1.46608e-10 
115 1 0.0643932 0.0178105 0.00706382 0.0056923 0.00029884 -0.000196013 8.40983e-12 8.09136e-11 2.86347e-11 5e-05 1.46608e-10 
116 1 0.0643811 0.016946 0.00753657 0.00582769 0.000412289 -0.000154258 -2.52057e-11 -8.87727e-12 1.18508e-11 5e-05 1.46608e-10 
117 1 0.0642443 0.0167783 0.00765712 0.00599184 0.000334537 -8.94292e-05 -2.42378e-11 1.66403e-10 -1.46261e-10 5e-05 1.46608e-10 
118 1 0.0579005 0.0159689 0.00848285 0.00584733 -8.94442e-06 -7.3255e-05 -7.66245e-11 -3.57154e-12 6.45763e-11 5e-05 1.46608e-10 
119 1 0.0645267 0.0175201 0.00711555 0.00566153 0.000311599 -8.04044e-05 9.12322e-11 2.70167e-11 -3.48786e-11 5e-05 1.46608e-10 
120 1 0.0639977 0.0161976 0.00807966 0.00611247 0.000211054 -0.000183619 2.22517e-11 1.61511e-11 7.41252e-11 5e-05 1.46608e-10 
121 1 0.0640941 0.0162222 0.00806038 0.00611011 0.000176931 -0.000249958 1.89879e-11 -5.26095e-11 -6.97936e-12 5e-05 1.46608e-10 
122 1 0.0646228 0.0180724 0.00706895 0.00593764 0.000259011 -0.000207337 1.79992e-11 -1.67455e-10 -3.68112e-11 5e-05 1.46608e-10 
123 1 0.0580276 0.0163722 0.00807784 0.00590248 8.72137e-05 9.5209e-07 4.76463e-11 3.9847e-11 -5.42756e-11 5e-05 1.46608e-10 
124 1 0.06445 0.0181048 0.00707708 0.00559818 0.00029397 -0.000192795 -4.11639e-11 -2.31294e-10 -1.06093e-11 5e-05 1.46608e-10 
125 1 0.0641158 0.0163023 0.00800466 0.00609552 0.000180243 -0.000243165 4.36472e-11 -1.89427e-11 9.52948e-12 5e-05 1.46608e-10 
126 1 0.0643178 0.0174557 0.00720348 0.00560327 0.00035269 -9.77716e-05 6.51501e-12 2.31795e-11 9.18824e-11 5e-05 1.46608e-10 
127 1 0.0584211 0.0172928 0.0072851 0.00562603 0.000142255 -5.32897e-05 -2.21443e-11 -1.70404e-11 -3.01669e-11 5e-05 1.46608e-10 
128 1 0.0645637 0.0177785 0.00705772 0.0056976 0.000286282 -0.000183644 -5.90642e-11 -1.7088e-10 2.54698e-11 5e-05 1.46608e-10 
129 1 0.0645682 0.0182348 0.00707947 0.00595303 0.000266102 -0.000207277 -4.32051e-11 -1.48272e-10 -1.07266e-11 5e-05 1.46608e-10 
131 1 0.0582908 0.0169463 0.00750389 0.00567784 0.000158238 -6.67891e-05 -3.78086e-11 1.78221e-11 -4.94033e-11 5e-05 1.46608e-10 
132 1 0.0645829 0.0178766 0.00706022 0.00573332 0.000282431 -0.000215231 1.48173e-11 -2.40285e-10 -1.86242e-13 5e-05 1.46608e-10 
133 1 0.0642027 0.0166179 0.0077747 0.00605593 0.000305712 -7.00833e-05 -1.20324e-10 -2.36804e-12 -4.46993e-12 5e-05 1.46608e-10 
134 1 0.0646453 0.0173505 0.00724408 0.00563738 0.000395425 -0.000145912 -3.49449e-12 -6.65472e-11 5.13589e-11 5e-05 1.46608e-10 
135 1 0.0643242 0.0167086 0.00771075 0.00606304 0.000385289 -0.000129519 -1.57884e-10 1.27489e-10 -9.76316e-11 5e-05 1.46608e-10 
136 1 0.0579286 0.0160363 0.00841448 0.00587479 8.2037e-05 1.65671e-05 -8.74993e-12 5.84899e-11 5.54079e-11 5e-05 1.46608e-10 
137 1 0.0646015 0.0187884 0.00710714 0.00598089 0.000266728 -0.000208662 -2.96748e-11 -3.85384e-11 9.39433e-14 5e-05 1.46608e-10 
138 1 0.0646873 0.0183651 0.00708184 0.0059684 0.000275153 -0.000207602 3.48365e-11 1.16254e-10 1.02622e-12 5e-05 1.46608e-10 
140 1 0.0644688 0.0177453 0.00705774 0.0057048 0.000297124 -0.000190383 3.40844e-11 -9.92272e-11 2.70224e-11 5e-05 1.46608e-10 
141 1 0.0581026 0.0163253 0.00812627 0.00591239 9.34875e-05 1.8603e-06 -1.38343e-11 3.70523e-11 -7.78072e-11 5e-05 1.46608e-10 
142 1 0.05821 0.016669 0.00778188 0.00590929 9.02252e-05 4.63005e-06 9.03115e-11 1.0392e-10 3.14443e-11 5e-05 1.46608e-10 
143 1 0.0579898 0.0162749 0.00824816 0.00590199 6.80071e-05 -9.96099e-06 1.36218e-11 -6.4944e-11 -8.04225e-11 5e-05 1.46608e-10 
146 1 0.0582853 0.0166232 0.00782924 0.00591401 9.20031e-05 1.84365e-06 4.21582e-11 -1.58081e-11 -1.05946e-11 5e-05 1.46608e-10 
147 1 0.0578788 0.0159003 0.00855225 0.0058326 -0.000198837 -0.000260313 1.61424e-10 -4.80752e-11 -8.45998e-12 5e-05 1.46608e-10 
148 1 0.00854952 0.0168358 0.00828192 0.000457956 0.0246052 -0.0250711 2.63917e-12 2.80602e-10 -3.5618e-10 5e-05 1.46608e-10 
149 1 0.0644928 0.0183003 0.00708569 0.00596015 0.000272461 -0.000207053 7.70397e-11 1.61096e-10 -5.92935e-13 5e-05 1.46608e-10 
150 1 0.0581885 0.0166 0.007851 0.00589115 9.40997e-05 1.44685e-06 4.75746e-11 -7.68077e-11 -8.90389e-11 5e-05 1.46608e-10 
151 1 0.0586109 0.0171606 0.00729331 0.00563825 0.000143387 -5.24651e-05 -4.96139e-11 -2.34949e-12 2.28213e-11 5e-05 1.46608e-10 
153 1 0.0582629 0.0165535 0.00789902 0.00589239 0.000100308 -5.61382e-06 -3.43852e-12 9.12189e-11 7.07539e-11 5e-05 1.46608e-10 
154 1 0.0583986 0.0174192 0.0071964 0.0055897 0.000148274 -6.25232e-05 1.71863e-11 3.78405e-11 -5.57389e-12 5e-05 1.46608e-10 
155 1 0.0524364 0.0176279 0.00725828 0.00562127 0.000640211 -0.000569769 5.78036e-13 2.50391e-13 -1.49187e-13 5e-05 1.46608e-10 
156 1 0.0582851 0.0172885 0.00720022 0.0056227 0.000109609 -6.6069e-05 1.04059e-11 3.79234e-11 -4.87006e-12 5e-05 1.46608e-10 
157 1 0.0584558 0.0177136 0.00718996 0.00558302 0.00018268 -6.46577e-05 -1.67747e-10 -9.38763e-11 -4.93619e-12 5e-05 1.46608e-10 
158 1 0.0584996 0.017062 0.00739082 0.00564873 0.00014845 -5.69122e-05 3.04668e-11 -5.00241e-11 4.00328e-11 5e-05 1.46608e-10 
159 1 0.0646776 0.0179087 0.00705837 0.00579331 0.000230206 -0.000206061 -2.13593e-11 6.68071e-11 -1.53315e-11 5e-05 1.46608e-10 
160 1 0.0583613 0.0176811 0.00719164 0.00557465 0.000213757 -6.78238e-05 1.42486e-10 3.18188e-10 -1.18286e-11 5e-05 1.46608e-10 
162 1 0.0583262 0.0170875 0.00736711 0.00565019 0.00014326 -5.9415e-05 8.59044e-11 6.06062e-11 5.1619e-12 5e-05 1.46608e-10 
163 1 0.0585111 0.0171321 0.00732044 0.00564565 0.000147203 -4.9502e-05 -5.73424e-11 -3.06323e-11 5.41429e-11 5e-05 1.46608e-10 
164 1 0.0586562 0.0177882 0.00718629 0.00567178 0.000115797 -6.43291e-05 -3.58763e-11 3.21315e-11 9.05902e-12 5e-05 1.46608e-10 
165 1 0.0584411 0.0168542 0.00759913 0.00582876 0.000132865 -3.93203e-05 -1.44122e-10 3.08915e-11 -3.06839e-11 5e-05 1.46608e-10 
166 1 0.0639329 0.0159575 0.0082474 0.00615458 0.000162906 -0.000239946 3.63797e-12 1.91986e-11 -1.225e-11 5e-05 1.46608e-10 
167 1 0.0583066 0.0166922 0.00776009 0.00593719 8.80718e-05 5.52391e-06 7.63699e-11 -5.52681e-11 -2.17947e-11 5e-05 1.46608e-10 
168 1 0.0584176 0.0175173 0.00719425 0.00557863 0.000167602 -6.45297e-05 5.14395e-12 1.0991e-11 6.35747e-12 5e-05 1.46608e-10 
169 1 0.0585546 0.0173082 0.00723658 0.00561352 0.000141571 -5.77401e-05 -9.17065e-11 2.84158e-11 4.92296e-11 5e-05 1.46608e-10 
170 1 0.0584932 0.0174517 0.00719472 0.00558653 0.000151747 -6.34681e-05 2.45571e-11 6.33477e-11 -4.93191e-13 5e-05 1.46608e-10 
171 1 0.0643437 0.0167876 0.00765274 0.00598102 0.000397276 -0.000140565 5.56539e-11 7.91399e-11 -4.45008e-11 5e-05 1.46608e-10 
172 1 0.0586712 0.0174285 0.00719323 0.00559027 0.000153344 -6.47112e-05 -2.08636e-10 3.28057e-11 -5.15327e-12 5e-05 1.46608e-10 
173 1 0.0646074 0.0172757 0.00729847 0.0056333 0.000405788 -0.00015512 4.02545e-11 -9.51723e-11 6.71395e-11 5e-05 1.46608e-10 
174 1 0.0583804 0.0177793 0.00718949 0.00550019 3.89701e-05 -6.1299e-05 8.51429e-11 1.88901e-10 8.85558e-13 5e-05 1.46608e-10 
175 1 0.0552416 0.0173673 0.00721781 0.00580784 0.000739523 -0.000621498 4.07502e-13 -1.27761e-12 5.17599e-13 5e-05 1.46608e-10 
176 1 0.0582679 0.017217 0.00726798 0.00564131 0.000111631 -6.35649e-05 3.21329e-11 9.14783e-11 1.34654e-11 5e-05 1.46608e-10 
177 1 0.0587725 0.017916 0.0071825 0.0057294 0.000108479 -6.48431e-05 7.30978e-11 -5.93939e-12 3.50862e-13 5e-05 1.46608e-10 
178 1 0.0586446 0.0173231 0.0071956 0.00560597 0.000157005 -6.4202e-05 -9.79974e-11 9.26002e-11 1.39998e-11 5e-05 1.46608e-10 
179 1 0.0523189 0.0175008 0.00731801 0.00550228 0.000255168 -0.00040155 1.22018e-11 2.01049e-11 -9.55279e-12 5e-05 1.46608e-10 
180 1 0.0584365 0.0171815 0.00726937 0.00563396 0.000129141 -3.85903e-05 -2.60633e-11 3.6933e-11 -6.16072e-11 5e-05 1.46608e-10 
181 1 0.0584742 0.0173535 0.00719686 0.0056072 0.000155831 -6.36469e-05 -1.38681e-11 1.58663e-10 5.84799e-13 5e-05 1.46608e-10 
182 1 0.0644779 0.0169765 0.00751649 0.0056749 0.000352134 -0.00011423 1.11955e-10 1.29912e-11 -7.13347e-12 5e-05 1.46608e-10 
183 1 0.0585765 0.0173964 0.0071949 0.00559058 0.000145388 -6.39694e-05 -6.95304e-11 3.98494e-11 2.0514e-11 5e-05 1.46608e-10 
184 1 0.0646331 0.0185274 0.00709234 0.00595883 0.000264937 -0.000207798 1.32571e-11 6.20273e-11 5.17434e-12 5e-05 1.46608e-10 
185 1 0.0583041 0.0173867 0.00719807 0.00559535 0.00011528 -6.31225e-05 1.10601e-12 4.77093e-11 -1.84743e-11 5e-05 1.46608e-10 
186 1 0.0583415 0.0171548 0.00729475 0.00565602 0.000139705 -5.16668e-05 1.71893e-11 2.09248e-11 -5.63937e-11 5e-05 1.46608e-10 
187 1 0.0644996 0.0170587 0.00745621 0.00568445 0.000373284 -0.000129808 -1.47898e-11 -5.93838e-11 4.22371e-11 5e-05 1.46608e-10 
188 1 0.064644 0.01817 0.00707326 0.00596428 0.000267252 -0.000207253 1.96395e-10 -9.12002e-11 -1.15556e-11 5e-05 1.46608e-10 
189 1 0.064225 0.0166973 0.00771653 0.00606529 0.000310408 -7.37348e-05 -1.04915e-10 3.78224e-11 -4.4387e-11 5e-05 1.46608e-10 
190 1 0.0587941 0.0180136 0.00718034 0.00573472 8.18885e-05 -6.4451e-05 7.51579e-11 1.92373e-10 -3.40677e-12 5e-05 1.46608e-10 
191 1 0.0646233 0.0188859 0.00711143 0.00598507 0.000267509 -0.00020868 -3.1673e-11 -8.89605e-11 -1.4857e-12 5e-05 1.46608e-10 
192 1 0.0583797 0.017321 0.00719854 0.00561856 0.000134477 -5.95547e-05 -3.78786e-13 9.40476e-11 -1.36864e-11 5e-05 1.46608e-10 
193 1 0.0647079 0.0174685 0.00715845 0.0056218 0.000295338 -7.2874e-05 3.50675e-11 -6.25752e-11 4.04355e-11 5e-05 1.46608e-10 
194 1 0.0582317 0.0167414 0.00771571 0.00594412 9.10655e-05 -4.94522e-06 -7.00955e-12 -1.24271e-10 8.16294e-11 5e-05 1.46608e-10 
195 1 0.0585123 0.0175498 0.00719257 0.00557367 0.000156103 -6.41535e-05 7.20813e-11 1.07409e-10 9.34881e-13 5e-05 1.46608e-10 
196 1 0.0577711 0.015582 0.00892237 0.0057606 -0.000294204 -0.000343362 -1.53616e-10 -1.115e-10 1.24692e-10 5e-05 1.46608e-10 
197 1 0.0584003 0.0178773 0.00718734 0.00573593 -5.469e-05 -6.03026e-05 -9.1474e-11 -1.8111e-10 4.35507e-12 5e-05 1.46608e-10 
198 1 0.0582312 0.017062 0.0073864 0.00564466 0.000132524 -4.30194e-05 -1.36213e-11 9.99462e-11 -1.18317e-10 5e-05 1.46608e-10 
199 1 0.0583421 0.017583 0.00719378 0.00556914 0.000109854 -6.25387e-05 -1.47168e-12 3.14393e-12 1.90309e-11 5e-05 1.46608e-10 
200 1 0.0582516 0.0168144 0.00764895 0.00587026 -0.000701317 -0.000845567 -3.14082e-10 3.35375e-10 4.76174e-10 5e-05 1.46608e-10 
201 1 0.0586586 0.0182341 0.00717747 0.00581103 0.000126864 -6.61039e-05 -8.33807e-11 -6.51154e-12 4.20903e-12 5e-05 1.46608e-10 
203 1 0.0647744 0.0176167 0.00705053 0.0057104 0.000277854 -4.34151e-05 1.21117e-10 2.18646e-10 -2.7853e-10 5e-05 1.46608e-10 
204 1 0.058366 0.0169005 0.00755126 0.00568982 0.000179416 -8.94762e-05 -7.97355e-12 1.35716e-10 -9.96222e-11 5e-05 1.46608e-10 
205 1 0.0584222 0.0179756 0.00718516 0.00581484 0.000191162 -6.81979e-05 1.44791e-10 1.00422e-10 -2.52287e-11 5e-05 1.46608e-10 
206 1 0.0584367 0.0176155 0.00719211 0.00558018 0.000181661 -6.51026e-05 1.18092e-10 -6.75401e-13 -4.31603e-12 5e-05 1.46608e-10 
207 1 0.0582421 0.0164844 0.00796826 0.00590182 0.000101657 -6.01146e-06 3.41842e-11 -1.43316e-12 -5.4581e-12 5e-05 1.46608e-10 
208 1 0.0583231 0.0174848 0.00719593 0.00555222 0.000117106 -6.17232e-05 1.80454e-10 -7.27217e-12 -4.17148e-12 5e-05 1.46608e-10 
209 1 0.0523393 0.0175951 0.00727726 0.00560775 0.000657481 -0.000576307 5.92457e-13 4.37215e-13 -2.20244e-13 5e-05 1.46608e-10 
210 1 0.0639545 0.0160375 0.00819142 0.00614143 0.000165623 -0.000242096 -6.05765e-12 -1.04278e-11 1.92523e-12 5e-05 1.46608e-10 
211 1 0.0646114 0.0184299 0.00708805 0.00596364 0.000264467 -0.000207929 3.55328e-11 4.83491e-11 -2.71494e-12 5e-05 1.46608e-10 
212 1 0.0586166 0.017231 0.00722251 0.00562975 0.000148851 -5.75817e-05 -7.31837e-11 3.05022e-11 -3.55462e-12 5e-05 1.46608e-10 
213 1 0.0646047 0.0174708 0.00715409 0.00564351 0.000306385 -7.86973e-05 1.37422e-10 1.39633e-10 -9.20283e-11 5e-05 1.46608e-10 
214 1 0.0644711 0.0182027 0.00708141 0.00596792 0.000310401 -0.000206522 2.9806e-11 3.25358e-10 1.98549e-11 5e-05 1.46608e-10 
215 1 0.0584172 0.0171269 0.0073545 0.00564248 0.000151725 -5.86503e-05 -1.78364e-11 1.69525e-11 8.42332e-12 5e-05 1.46608e-10 
216 1 0.0584808 0.0169926 0.00746036 0.00565626 0.000151625 -6.17025e-05 -2.11498e-11 -2.40185e-11 -1.05022e-11 5e-05 1.46608e-10 
217 1 0.0643596 0.0168672 0.00759429 0.00589976 0.00040288 -0.000145974 1.69343e-10 2.25641e-11 -2.17088e-11 5e-05 1.46608e-10 
218 1 0.0585513 0.0177459 0.00718828 0.00556834 0.000161598 -6.41902e-05 -6.95216e-11 1.21982e-10 -3.47483e-12 5e-05 1.46608e-10 
219 1 0.0645363 0.0184957 0.00709428 0.00596318 0.000247941 -0.000208809 1.04167e-11 5.85751e-11 -4.38621e-13 5e-05 1.46608e-10 
220 1 0.0584037 0.0170412 0.00741015 0.00565046 0.000144373 -5.28358e-05 3.657e-11 -9.4874e-12 -1.1954e-11 5e-05 1.46608e-10 
221 1 0.0521751 0.0168473 0.00759483 0.0055983 -0.000322538 0.000585304 6.50331e-13 4.50959e-13 -1.64662e-13 5e-05 1.46608e-10 
222 1 0.0641492 0.0167507 0.0076792 0.00603668 0.000297835 -7.3435e-05 2.65721e-12 5.16081e-11 -7.35919e-11 5e-05 1.46608e-10 
223 1 0.0584514 0.0172513 0.00719933 0.00562916 0.000138722 -4.85295e-05 -7.72757e-11 4.72663e-11 -4.5352e-11 5e-05 1.46608e-10 
224 1 0.0582511 0.0171467 0.0073371 0.00562032 0.000124705 -5.42435e-05 9.01299e-11 1.32548e-10 -1.20152e-11 5e-05 1.46608e-10 
225 1 0.0646746 0.0176194 0.00704596 0.005698 0.00027272 -5.23543e-05 5.24211e-11 -1.02106e-10 3.6626e-11 5e-05 1.46608e-10 
226 1 0.058461 0.0169234 0.00752975 0.00572161 0.00014483 -5.36661e-05 -8.25692e-12 1.2117e-11 -2.3758e-11 5e-05 1.46608e-10 
227 1 0.0522395 0.0171334 0.0074767 0.00569085 0.000816451 -0.000647581 3.2581e-13 -2.86096e-12 1.18807e-12 5e-05 1.46608e-10 
228 1 0.0507861 0.0189683 0.00558458 -5.37953e-15 -1.91062e-14 -2.87013e-13 -2.72944e-22 -2.52807e-23 8.06501e-24 5e-05 1.46608e-10 
229 1 0.0580619 0.0161872 0.00826468 0.00589318 9.47459e-05 -8.58281e-07 -4.42762e-11 8.91421e-11 -1.11678e-10 5e-05 1.46608e-10 
230 1 0.0584656 0.0181713 0.00718082 0.00583831 0.000186052 -6.86513e-05 -1.16808e-10 -2.37386e-10 1.12396e-11 5e-05 1.46608e-10 
231 1 0.197479 0.018695 0.00523156 -1.0679e-15 -2.69837e-14 1.45243e-13 1.40879e-23 2.74004e-24 0 5e-05 1.46608e-10 
232 1 0.0580771 0.0162569 0.00819467 0.0058964 9.73239e-05 -1.88151e-06 7.24743e-11 4.97261e-11 -7.07898e-11 5e-05 1.46608e-10 
233 1 0.058346 0.0168313 0.00762062 0.00572833 0.000155625 -7.01864e-05 1.70307e-10 1.16078e-10 -4.08785e-11 5e-05 1.46608e-10 
234 1 0.0638896 0.0157975 0.00835935 0.00617935 0.000152852 -0.000233457 1.79551e-11 6.9365e-11 -4.73881e-11 5e-05 1.46608e-10 
235 1 0.0586275 0.0184961 0.00717264 0.00586844 0.000145415 -6.70571e-05 4.74676e-11 -1.87172e-11 -3.58496e-13 5e-05 1.46608e-10 
236 1 0.0586803 0.0183317 0.00717531 0.00583831 0.000132378 -6.66112e-05 3.94749e-12 -2.96676e-11 1.36084e-12 5e-05 1.46608e-10 
237 1 0.0585838 0.0183004 0.00717698 0.00583546 0.000144594 -6.69711e-05 1.50326e-11 7.07384e-11 5.47581e-12 5e-05 1.46608e-10 
238 1 0.0523594 0.0176881 0.00723709 0.00562203 0.000640942 -0.000570119 3.28286e-13 -1.00893e-13 3.73649e-14 5e-05 1.46608e-10 
239 1 0.0520722 0.0163897 0.00776806 0.00561372 -0.000325135 0.000587595 1.12381e-12 4.29189e-13 4.06643e-14 5e-05 1.46608e-10 
240 1 0.0521545 0.0167557 0.00762947 0.00560138 -0.00032306 0.000585755 6.35832e-13 5.1784e-13 -1.2608e-13 5e-05 1.46608e-10 
241 1 0.0520928 0.0164812 0.00773341 0.00561064 -0.00032462 0.000587131 1.00979e-12 4.06665e-13 -1.66582e-13 5e-05 1.46608e-10 
242 1 0.052415 0.0175241 0.00730308 0.00434371 0.004053 -0.00193616 5.82652e-13 -6.7739e-12 2.81061e-12 5e-05 1.46608e-10 
243 1 0.0520517 0.0162981 0.00780271 0.00561681 -0.000325658 0.000588051 1.25137e-12 3.5301e-13 -8.54926e-14 5e-05 1.46608e-10 
244 1 0.0521134 0.0165727 0.00769877 0.00560755 -0.000324098 0.000586674 8.63315e-13 4.54845e-13 -6.66531e-14 5e-05 1.46608e-10 
245 1 0.0523873 0.0178173 0.00718129 0.00564117 0.000614047 -0.000559833 2.04664e-13 -2.92121e-13 1.11063e-13 5e-05 1.46608e-10 
246 1 0.0521956 0.0169388 0.00756018 0.00559521 -0.000322018 0.000584843 4.95571e-13 4.8638e-13 -1.74599e-13 5e-05 1.46608e-10 
247 1 0.058596 0.0174944 0.00719275 0.00558048 0.000141561 -6.41834e-05 -1.6047e-10 4.05037e-11 1.78371e-11 5e-05 1.46608e-10 