ITEM: TIMESTEP
17400000
ITEM: NUMBER OF ATOMS
284
ITEM: BOX BOUNDS ff ff ff
-0.02 0.43
-0.02 0.06
-0.02 0.07
ITEM: ATOMS id type x y z vx vy vz fx fy fz radius mass 
1 1 0.114249 0.0162867 0.008018 0.00578067 -0.000261155 0.000717208 5.73491e-11 -6.32335e-11 -4.01199e-11 5e-05 1.46608e-10 
2 1 0.114682 0.0172149 0.00735435 0.00530064 -0.000629704 8.78383e-05 -4.33535e-10 1.57485e-10 -7.30251e-11 5e-05 1.46608e-10 
3 1 0.108269 0.0162973 0.00784587 0.00620227 -2.07852e-06 -0.000454102 -2.32069e-11 1.12052e-10 -3.86445e-11 5e-05 1.46608e-10 
4 1 0.114666 0.0175162 0.00716037 0.00520505 -0.000601206 7.28343e-05 1.46578e-10 2.54362e-10 -1.67867e-10 5e-05 1.46608e-10 
5 1 0.114154 0.0162655 0.00804192 0.0057765 -0.000248523 0.00070903 -6.74723e-11 -1.03578e-10 2.72237e-11 5e-05 1.46608e-10 
6 1 0.120245 0.0165297 0.00764169 0.00603117 -0.000603985 0.000687735 1.69766e-10 1.81113e-10 -1.78776e-10 5e-05 1.46608e-10 
7 1 0.114261 0.0166523 0.00774393 0.00586195 -0.000754439 0.000133038 3.22557e-10 3.53171e-10 -1.95396e-10 5e-05 1.46608e-10 
8 1 0.114165 0.0159962 0.0082803 0.00565949 -0.00022917 0.000683237 -2.19178e-10 2.76653e-10 -2.67631e-10 5e-05 1.46608e-10 
9 1 0.120497 0.017588 0.00722911 0.00586302 -0.000913427 0.000435507 3.37086e-11 4.43729e-11 -9.32598e-12 5e-05 1.46608e-10 
10 1 0.114282 0.0167337 0.00768996 0.00587283 -0.000754528 0.000133535 3.19377e-11 1.38954e-10 -6.30171e-11 5e-05 1.46608e-10 
11 1 0.114399 0.0168378 0.0076155 0.00589535 -0.000739995 0.000123448 2.72987e-11 1.29274e-11 -4.31975e-11 5e-05 1.46608e-10 
12 1 0.114485 0.0171633 0.00739964 0.00596342 -0.000740993 0.000119537 1.54068e-10 8.37796e-11 -5.55563e-11 5e-05 1.46608e-10 
13 1 0.114536 0.0176276 0.00719309 0.00523312 -0.00057821 6.28586e-05 3.003e-12 -2.30704e-10 -1.64446e-10 5e-05 1.46608e-10 
14 1 0.108003 0.0157742 0.00856168 0.00560374 -0.000117548 -0.000133991 -6.9814e-11 -1.5584e-10 -5.12087e-10 5e-05 1.46608e-10 
15 1 0.11439 0.0171405 0.00742015 0.00596498 -0.000724617 0.000109519 -1.05805e-10 1.35839e-10 -8.15291e-11 5e-05 1.46608e-10 
16 1 0.107987 0.0157418 0.0086549 0.00554383 0.000136293 -4.52847e-05 1.44558e-10 1.47995e-10 -5.30219e-10 5e-05 1.46608e-10 
17 1 0.114633 0.017648 0.00717653 0.00526599 -0.000623169 0.000119816 -5.61516e-11 -2.02427e-12 -8.03615e-11 5e-05 1.46608e-10 
18 1 0.120391 0.0171121 0.00733984 0.00600728 -0.000924392 0.00044299 -1.34553e-11 -7.01758e-11 1.79091e-11 5e-05 1.46608e-10 
19 1 0.114111 0.0161147 0.00816603 0.00570706 -0.000254923 0.000709553 -1.92606e-10 -1.0796e-10 5.63905e-11 5e-05 1.46608e-10 
20 1 0.114594 0.0174894 0.00728004 0.00524468 -0.000538338 4.56795e-05 -4.9002e-10 1.43199e-11 -3.04092e-12 5e-05 1.46608e-10 
21 1 0.114133 0.0161873 0.00810055 0.00575646 -0.000247534 0.000708995 -2.65191e-10 -4.86413e-11 1.11293e-11 5e-05 1.46608e-10 
22 1 0.114442 0.0170006 0.00750757 0.00594379 -0.000737293 0.000119202 -2.56133e-11 2.08508e-10 -1.31949e-10 5e-05 1.46608e-10 
23 1 0.108325 0.0169118 0.00762252 0.00605706 -9.62705e-06 -0.000444254 5.42931e-11 1.02154e-10 2.62278e-11 5e-05 1.46608e-10 
24 1 0.120476 0.0174928 0.00725125 0.00589234 -0.000911452 0.000436046 -1.16034e-11 9.35191e-11 -2.2761e-11 5e-05 1.46608e-10 
25 1 0.114356 0.0166751 0.00772342 0.00587396 -0.000746949 0.000128685 -8.13219e-11 7.03522e-11 -4.09203e-11 5e-05 1.46608e-10 
26 1 0.120328 0.0168265 0.00740628 0.00606727 -0.000958411 0.000459685 2.92787e-10 -2.09092e-10 1.15506e-10 5e-05 1.46608e-10 
27 1 0.108239 0.0165462 0.00775986 0.00612352 -5.0213e-05 -0.000435408 -1.02838e-11 8.2272e-11 -6.86584e-11 5e-05 1.46608e-10 
28 1 0.114497 0.0174642 0.00730157 0.00524898 -0.000572276 6.27962e-05 -3.15733e-10 2.36005e-10 -2.98558e-10 5e-05 1.46608e-10 
29 1 0.11427 0.0163635 0.0079575 0.00581818 -0.000392759 0.00055996 4.71098e-10 -3.08742e-11 -6.02707e-11 5e-05 1.46608e-10 
30 1 0.114646 0.0174337 0.00721497 0.00520771 -0.000593861 6.56135e-05 -2.31421e-10 2.71685e-10 -1.18253e-10 5e-05 1.46608e-10 
31 1 0.114368 0.0170591 0.00747412 0.0059427 -0.000726674 0.000112056 -4.87687e-11 -9.12659e-12 -1.59264e-11 5e-05 1.46608e-10 
32 1 0.114421 0.0169192 0.00756153 0.00592188 -0.000736954 0.000120213 -9.54864e-11 1.42735e-10 -8.34836e-11 5e-05 1.46608e-10 
33 1 0.120266 0.016595 0.00756869 0.0060625 -0.000623352 0.00069986 -9.58818e-11 6.69159e-12 -1.43091e-11 5e-05 1.46608e-10 
34 1 0.114328 0.0169042 0.00768169 0.00591794 -0.000757796 0.000118965 -3.39188e-11 -1.53449e-11 -3.90684e-11 5e-05 1.46608e-10 
36 1 0.120518 0.0176832 0.00720694 0.00546564 -0.000833327 0.000401869 -6.6753e-11 4.12283e-12 -4.99694e-12 5e-05 1.46608e-10 
37 1 0.114304 0.016815 0.007636 0.00588962 -0.000750833 0.000130095 3.68625e-11 -3.94835e-11 -1.95069e-11 5e-05 1.46608e-10 
38 1 0.114464 0.0170819 0.0074536 0.00595928 -0.000735669 0.000116994 -8.91806e-11 1.2207e-10 -7.09453e-11 5e-05 1.46608e-10 
39 1 0.120455 0.0173976 0.0072734 0.00592363 -0.000909364 0.000436508 3.536e-11 1.44532e-10 -3.13281e-11 5e-05 1.46608e-10 
41 1 0.114175 0.0163333 0.00796866 0.00584216 -0.0002721 0.00077859 8.4047e-10 -5.78707e-11 1.93131e-12 5e-05 1.46608e-10 
42 1 0.114347 0.0169778 0.00752808 0.00592593 -0.000732848 0.000116473 1.21919e-10 -5.07476e-11 9.21303e-12 5e-05 1.46608e-10 
44 1 0.114583 0.017188 0.00737775 0.0059922 -0.000737764 0.000115834 -3.20374e-10 -1.51454e-10 1.17559e-10 5e-05 1.46608e-10 
45 1 0.120307 0.0167313 0.00742843 0.00611413 -0.00096647 0.000450796 3.40043e-11 -1.08486e-10 -1.40292e-10 5e-05 1.46608e-10 
46 1 0.12037 0.0170169 0.00736199 0.00603479 -0.000936268 0.000446943 -4.20178e-11 -1.26112e-10 3.3002e-11 5e-05 1.46608e-10 
47 1 0.114217 0.0164895 0.00785185 0.00583073 -0.000722527 0.00010745 -2.96708e-10 6.51384e-11 1.60229e-10 5e-05 1.46608e-10 
48 1 0.114561 0.0171065 0.00743187 0.00596558 -0.000738219 0.000117809 1.75708e-10 6.6083e-11 -5.98275e-11 5e-05 1.46608e-10 
49 1 0.120349 0.0169217 0.00738413 0.00605369 -0.000950354 0.000451316 -2.34843e-11 -1.70638e-10 7.93922e-11 5e-05 1.46608e-10 
50 1 0.114529 0.0173264 0.00729151 0.00532985 -0.000500184 3.25604e-06 -1.69514e-10 1.27981e-10 -8.68455e-11 5e-05 1.46608e-10 
51 1 0.114626 0.0173521 0.00726905 0.00529411 -0.000551449 3.67461e-05 -4.79867e-10 -3.96129e-10 2.7251e-10 5e-05 1.46608e-10 
52 1 0.114624 0.0178996 0.0071678 0.0057116 -0.000538124 0.000316878 1.19576e-10 -9.20185e-11 -3.10911e-10 5e-05 1.46608e-10 
53 1 0.120413 0.0172072 0.00731769 0.00597926 -0.000915606 0.000440281 -3.4963e-12 3.25555e-12 -8.50573e-12 5e-05 1.46608e-10 
54 1 0.114229 0.016214 0.00808374 0.00575744 -0.000259658 0.000718647 -3.41127e-10 4.51324e-11 -6.54797e-11 5e-05 1.46608e-10 
55 1 0.108035 0.0158282 0.00837166 0.00557152 -0.000501656 -0.000264836 -4.90625e-11 8.7178e-11 -1.4896e-10 5e-05 1.46608e-10 
56 1 0.114325 0.0168964 0.00758204 0.00590889 -0.000738715 0.000120657 -5.62578e-11 -5.95596e-11 1.61231e-11 5e-05 1.46608e-10 
57 1 0.120287 0.0166604 0.007496 0.00613531 -0.00103128 0.000375439 4.14882e-11 -1.13628e-10 -6.6839e-11 5e-05 1.46608e-10 
59 1 0.114496 0.0168616 0.00759431 0.00590013 -0.000754076 0.000132103 1.21062e-11 1.53207e-10 -9.92303e-11 5e-05 1.46608e-10 
60 1 0.114517 0.0169429 0.00754035 0.00593172 -0.000758298 0.000132813 -7.65327e-11 9.9339e-11 -6.74123e-11 5e-05 1.46608e-10 
61 1 0.114196 0.0164082 0.00790582 0.00581201 -0.0007515 8.74072e-05 -4.37644e-10 -2.81343e-10 -1.61369e-10 5e-05 1.46608e-10 
62 1 0.114804 0.0178573 0.00713524 0.00555985 -0.000602809 0.00032087 1.23739e-10 -1.97239e-11 8.47063e-12 5e-05 1.46608e-10 
63 1 0.114539 0.017025 0.0074859 0.00596205 -0.000735416 0.000116239 -7.85823e-11 -1.90759e-11 1.70064e-11 5e-05 1.46608e-10 
64 1 0.120434 0.0173024 0.00729555 0.00595114 -0.000910456 0.000438195 3.27856e-11 9.80831e-11 -2.09033e-11 5e-05 1.46608e-10 
65 1 0.108282 0.0167289 0.00769095 0.00609067 -3.44858e-05 -0.000436014 7.38227e-11 1.69359e-10 -8.06947e-11 5e-05 1.46608e-10 
66 1 0.10853 0.0177138 0.00740456 0.00596909 0.000508837 0.000315833 5.31599e-11 6.18365e-10 -3.06882e-11 5e-05 1.46608e-10 
67 1 0.114723 0.0173783 0.00724622 0.00519639 -0.000624002 8.90353e-05 -2.75245e-10 8.34968e-11 -6.22073e-11 5e-05 1.46608e-10 
68 1 0.114507 0.0172448 0.00734558 0.00599654 -0.000732382 0.000112369 -1.9044e-11 1.4239e-10 -8.18313e-11 5e-05 1.46608e-10 
69 1 0.114378 0.0167564 0.00766947 0.0058785 -0.000737416 0.000122282 2.48082e-11 5.89257e-11 -3.5756e-11 5e-05 1.46608e-10 
70 1 0.114517 0.0175458 0.00724719 0.00526788 -0.000577763 6.16889e-05 -3.73724e-10 -4.11538e-12 -3.90373e-10 5e-05 1.46608e-10 
71 1 0.108019 0.0158029 0.00846712 0.00563697 -0.000419829 -0.000227098 -4.27907e-11 -7.19513e-11 -3.10407e-10 5e-05 1.46608e-10 
72 1 0.114701 0.017683 0.00705584 0.00537042 -0.000610457 0.000180887 -9.94894e-11 6.77051e-11 -2.05129e-10 5e-05 1.46608e-10 
73 1 0.11467 0.0177321 0.00713744 0.00545136 -0.000651592 0.000230336 2.79556e-11 8.03333e-11 1.7677e-11 5e-05 1.46608e-10 
74 1 0.114675 0.0179421 0.00705397 0.00560889 -0.000585734 0.000326415 -7.10784e-11 -1.91264e-10 -9.21687e-11 5e-05 1.46608e-10 
76 1 0.108817 0.0186525 0.00693836 0.00561544 0.00022082 0.000440132 4.88176e-11 1.21242e-10 -5.1884e-11 5e-05 1.46608e-10 
77 1 0.114605 0.0180843 0.00706208 0.005298 -0.001184 0.000242124 7.62973e-11 -2.3855e-11 3.44033e-11 5e-05 1.46608e-10 
78 1 0.108106 0.0159766 0.0080115 0.00571186 0.000417383 0.000163784 -3.02284e-11 -1.69331e-10 9.67085e-11 5e-05 1.46608e-10 
79 1 0.108346 0.0170032 0.00758831 0.00603885 -3.35314e-06 -0.000449813 3.24385e-11 1.07179e-11 5.40434e-11 5e-05 1.46608e-10 
80 1 0.114552 0.0177114 0.00714098 0.00537944 -0.000549204 0.00016842 4.53163e-11 -2.75411e-10 1.68088e-10 5e-05 1.46608e-10 
81 1 0.10826 0.0166376 0.00772554 0.00610344 -4.52375e-05 -0.000436403 7.03728e-11 1.11878e-10 -7.22895e-11 5e-05 1.46608e-10 
82 1 0.108303 0.0168203 0.00765674 0.00607605 -1.77439e-05 -0.000442952 -3.39329e-11 1.36196e-10 -6.92525e-11 5e-05 1.46608e-10 
83 1 0.108196 0.016363 0.0078278 0.00616178 -4.26356e-05 -0.000439592 -5.80961e-12 9.0945e-12 -5.86674e-11 5e-05 1.46608e-10 
84 1 0.120539 0.0177785 0.00718472 0.00548062 -0.000831641 0.000401517 -6.35143e-12 -1.35463e-10 3.10669e-11 5e-05 1.46608e-10 
85 1 0.114069 0.0159696 0.00829706 0.00564462 -0.000263298 0.000714763 -1.40603e-10 -9.58183e-11 5.12171e-11 5e-05 1.46608e-10 
86 1 0.114569 0.0174901 0.00718311 0.00523082 -0.000577843 5.94477e-05 -1.59886e-10 7.47989e-11 -4.91228e-11 5e-05 1.46608e-10 
87 1 0.114661 0.0171335 0.00740834 0.0059692 -0.000760683 0.000132299 -4.93599e-11 6.74609e-11 -4.32888e-11 5e-05 1.46608e-10 
88 1 0.114754 0.0181186 0.00707545 0.00554598 -0.000573271 0.000315259 -1.23134e-11 1.92919e-10 -4.16629e-11 5e-05 1.46608e-10 
89 1 0.114607 0.0176562 0.00707846 0.00532015 -0.000559784 0.000114082 -9.34715e-11 -1.0717e-10 -1.67364e-10 5e-05 1.46608e-10 
90 1 0.114795 0.0177126 0.0070393 0.00537827 -0.000544253 0.000308979 7.61415e-11 -1.06202e-11 1.68811e-11 5e-05 1.46608e-10 
91 1 0.114433 0.0173032 0.00731223 0.005989 -0.000736934 0.00011551 3.07891e-11 1.40378e-10 -9.77005e-11 5e-05 1.46608e-10 
92 1 0.114832 0.0180554 0.0070746 0.00554714 -0.000602431 0.000317761 1.21068e-10 1.67576e-10 1.70529e-11 5e-05 1.46608e-10 
93 1 0.114565 0.017894 0.00708723 0.00566056 -0.000585304 0.000350421 -3.83429e-11 -3.81745e-10 2.8864e-11 5e-05 1.46608e-10 
94 1 0.114589 0.0175719 0.00712899 0.00523407 -0.000574439 5.85748e-05 -1.14319e-10 3.29071e-12 -4.19292e-11 5e-05 1.46608e-10 
95 1 0.114491 0.0175491 0.00714964 0.00562692 -0.000603636 5.09542e-05 -4.21823e-11 -5.12638e-11 1.52432e-11 5e-05 1.46608e-10 
96 1 0.114528 0.0177131 0.00704127 0.00574712 -0.000609888 4.8377e-05 1.16132e-10 1.96848e-11 -4.46397e-11 5e-05 1.46608e-10 
97 1 0.108464 0.0171223 0.00753997 0.00601493 8.13965e-06 -0.000556608 2.307e-11 -1.52147e-12 -1.8119e-10 5e-05 1.46608e-10 
98 1 0.11472 0.0182124 0.00708213 0.00546429 -0.000596515 0.000308173 -1.87718e-10 6.41744e-11 -4.35878e-11 5e-05 1.46608e-10 
99 1 0.108368 0.0170947 0.0075541 0.00601773 1.39165e-05 -0.000444442 -1.32425e-10 3.06789e-11 1.67025e-10 5e-05 1.46608e-10 
100 1 0.114771 0.0179764 0.00706299 0.00557244 -0.000587262 0.000318251 9.67739e-13 -9.65526e-11 -2.48368e-11 5e-05 1.46608e-10 
101 1 0.108312 0.0164811 0.00777707 0.00613904 -4.65075e-05 -0.000436395 -1.05152e-10 3.22816e-11 -1.14371e-11 5e-05 1.46608e-10 
102 1 0.0694385 0.0202053 0.00537268 4.02387e-15 4.32176e-15 -7.68318e-14 4.63867e-23 -2.86398e-22 -6.82424e-24 5e-05 1.46608e-10 
104 1 0.108421 0.0169388 0.00760691 0.00604724 1.57553e-05 -0.000470497 3.0986e-11 1.13346e-10 1.53015e-10 5e-05 1.46608e-10 
105 1 0.108152 0.0161971 0.00792789 0.00617433 0.00033299 9.00028e-05 -1.12092e-10 -1.33828e-10 -9.60478e-11 5e-05 1.46608e-10 
106 1 0.108529 0.0173976 0.00743994 0.00587656 -1.76186e-05 -0.000945769 -3.28877e-10 8.95223e-11 -7.55244e-10 5e-05 1.46608e-10 
107 1 0.108127 0.0160571 0.00806712 0.00572341 0.000419314 0.000151453 1.3279e-10 -1.23359e-10 9.51688e-11 5e-05 1.46608e-10 
108 1 0.114265 0.0166729 0.00784169 0.00585672 -0.000755043 0.000130731 1.02807e-10 2.10548e-10 5.90861e-11 5e-05 1.46608e-10 
109 1 0.114454 0.0173847 0.00725824 0.00523796 -0.000575365 5.84873e-05 -2.45029e-10 1.00669e-10 -8.58057e-11 5e-05 1.46608e-10 
110 1 0.11451 0.0176311 0.00709545 0.00568964 -0.000605869 4.93678e-05 -1.00866e-11 3.33525e-11 2.49369e-11 5e-05 1.46608e-10 
111 1 0.114683 0.018472 0.0071045 0.00517776 -0.000663207 0.000285179 -1.79538e-11 6.95822e-11 9.78144e-14 5e-05 1.46608e-10 
112 1 0.108217 0.0164545 0.00779358 0.00613814 -4.5674e-05 -0.000437394 -3.15424e-12 6.37307e-11 9.17907e-13 5e-05 1.46608e-10 
113 1 0.108537 0.0170561 0.00755539 0.00602064 6.29681e-05 -0.000459452 1.72012e-10 1.26853e-10 4.90705e-12 5e-05 1.46608e-10 
115 1 0.114473 0.0174669 0.00720391 0.00553444 -0.000790694 0.000181093 -5.67348e-11 9.13356e-11 -1.91097e-10 5e-05 1.46608e-10 
116 1 0.114474 0.0167802 0.00764828 0.00586633 -0.000763102 0.000139992 9.21394e-11 9.13322e-11 -6.47703e-11 5e-05 1.46608e-10 
117 1 0.114334 0.0165937 0.00777739 0.00586054 -0.000749812 0.000130742 -4.18082e-11 9.75118e-11 -1.85384e-11 5e-05 1.46608e-10 
118 1 0.10807 0.0158854 0.00818332 0.00539798 -0.000386919 -0.000272643 4.7645e-11 -1.91831e-10 -6.31805e-11 5e-05 1.46608e-10 
119 1 0.114742 0.0174601 0.0071921 0.00518353 -0.000625319 9.1528e-05 -1.4473e-10 7.11063e-11 -3.2615e-11 5e-05 1.46608e-10 
120 1 0.11409 0.0160422 0.00823155 0.00564874 -0.000255769 0.000705794 1.08628e-10 9.34655e-12 -3.67518e-11 5e-05 1.46608e-10 
121 1 0.114186 0.016069 0.00821462 0.00569195 -0.00026629 0.000719979 -2.33369e-10 8.95545e-11 -1.05643e-10 5e-05 1.46608e-10 
122 1 0.114626 0.01775 0.0070495 0.00550407 -0.000560897 0.000217851 2.75468e-10 -2.25251e-10 -1.10856e-10 5e-05 1.46608e-10 
123 1 0.108174 0.0162739 0.00786745 0.00616651 5.06081e-05 -0.000254936 1.88241e-11 -8.0255e-11 -9.63742e-11 5e-05 1.46608e-10 
124 1 0.114587 0.0178037 0.0071243 0.00557835 -0.000599703 0.000363394 -4.80252e-11 -3.7557e-10 2.11705e-11 5e-05 1.46608e-10 
125 1 0.114207 0.0161415 0.00814914 0.00573267 -0.000263159 0.00072003 -3.39012e-10 1.23866e-11 -6.80472e-11 5e-05 1.46608e-10 
126 1 0.114412 0.0172219 0.00736619 0.00597996 -0.000730781 0.000112906 2.65447e-10 1.69331e-10 -1.15445e-10 5e-05 1.46608e-10 
127 1 0.108775 0.0179524 0.00730882 0.00711764 3.61437e-05 -0.00131573 0 0 -1.43822e-09 5e-05 1.46608e-10 
128 1 0.114684 0.0175983 0.00710617 0.00530455 -0.000620849 8.85104e-05 4.53175e-12 2.63937e-10 -1.70145e-10 5e-05 1.46608e-10 
129 1 0.114548 0.0178106 0.0070321 0.00548749 -0.000520615 0.000329679 2.01383e-10 7.09751e-11 1.48346e-10 5e-05 1.46608e-10 
131 1 0.108442 0.0170305 0.00757345 0.00602877 2.0237e-05 -0.000492744 5.09297e-11 1.99385e-10 1.88345e-10 5e-05 1.46608e-10 
132 1 0.114719 0.017785 0.00704116 0.00554532 -0.000622743 0.000316707 3.71667e-10 -9.67369e-11 8.096e-11 5e-05 1.46608e-10 
133 1 0.114291 0.0164353 0.00789143 0.00581423 -0.000637857 0.000282813 1.94737e-10 1.12449e-10 -1.70239e-10 5e-05 1.46608e-10 
134 1 0.114892 0.0177358 0.00704804 0.00541196 -0.000719578 0.000294331 1.44081e-10 -2.13697e-11 2.13713e-11 5e-05 1.46608e-10 
135 1 0.114409 0.016536 0.00781022 0.00588149 -0.000742831 0.000126222 2.61607e-11 2.21211e-10 -1.54532e-10 5e-05 1.46608e-10 
136 1 0.108087 0.0159184 0.00809049 0.0057047 0.000154477 -2.82213e-05 -3.65311e-11 -2.53798e-10 -4.01368e-11 5e-05 1.46608e-10 
137 1 0.114624 0.0181792 0.00708681 0.00536093 -0.000747217 -0.00151734 3.83158e-11 1.53863e-10 -3.65205e-10 5e-05 1.46608e-10 
138 1 0.114694 0.0180397 0.00706383 0.00557735 -0.000597175 0.000323212 1.24346e-10 -9.49467e-11 -4.73717e-11 5e-05 1.46608e-10 
140 1 0.114549 0.0174084 0.00723718 0.00523312 -0.000583097 6.06893e-05 -2.48117e-10 9.38336e-11 4.11436e-11 5e-05 1.46608e-10 
141 1 0.108244 0.016204 0.00788097 0.00615753 -1.74476e-05 -0.000455483 1.54331e-10 -1.82278e-10 -1.54814e-10 5e-05 1.46608e-10 
142 1 0.108356 0.0166641 0.0077086 0.0061016 -4.04617e-05 -0.000435137 2.15494e-10 3.16848e-10 -1.1768e-10 5e-05 1.46608e-10 
143 1 0.108132 0.0161237 0.00799268 0.0060271 0.000450332 0.000186901 1.68501e-10 -9.35738e-11 -1.10771e-11 5e-05 1.46608e-10 
146 1 0.108429 0.0165987 0.00772651 0.00614335 -1.28102e-05 -0.000448474 -1.11336e-10 -5.34357e-12 1.12655e-11 5e-05 1.46608e-10 
147 1 0.108052 0.0158569 0.0082774 0.00550881 -0.00055417 -0.000295861 -7.76495e-12 2.43115e-11 -6.3747e-11 5e-05 1.46608e-10 
148 1 0.00866158 0.0166914 0.00840399 0.00122188 -0.00437373 0.00423513 1.39106e-11 1.8967e-10 -1.45616e-10 5e-05 1.46608e-10 
149 1 0.114752 0.0178789 0.00705235 0.0055884 -0.000584244 0.000320546 1.39763e-10 -6.17761e-11 -1.99917e-12 5e-05 1.46608e-10 
150 1 0.108334 0.0165726 0.00774283 0.00611751 -4.04901e-05 -0.000436814 5.25286e-11 6.77069e-11 -4.0722e-11 5e-05 1.46608e-10 
151 1 0.108858 0.017658 0.00731709 0.00590001 0.000100948 -0.000477048 -4.0784e-10 4.26689e-10 -1.65034e-10 5e-05 1.46608e-10 
153 1 0.108408 0.0165072 0.00776075 0.00616218 -4.78808e-06 -0.00045259 -2.88469e-11 -3.87281e-11 1.70329e-11 5e-05 1.46608e-10 
154 1 0.108572 0.0175802 0.00737094 0.00587291 8.87365e-05 -0.000618717 -8.3632e-10 1.37535e-10 -1.23808e-09 5e-05 1.46608e-10 
155 1 0.102615 0.0177139 0.00708081 0.00581755 0.000330082 -0.000234703 -2.56964e-11 1.506e-10 -3.17643e-11 5e-05 1.46608e-10 
156 1 0.108454 0.0174605 0.00741719 0.00598255 0.000313059 -7.81994e-05 -8.37335e-11 -9.84863e-12 -7.39377e-10 5e-05 1.46608e-10 
157 1 0.108636 0.0178534 0.00726503 0.00578423 0.000340056 0.000225408 -7.33411e-10 -1.68626e-10 -2.68252e-10 5e-05 1.46608e-10 
158 1 0.108675 0.0172653 0.0074706 0.00584443 0.000102694 -0.000465511 -5.76444e-10 3.66934e-10 -1.38316e-10 5e-05 1.46608e-10 
159 1 0.11474 0.0183099 0.00709279 0.00532222 -0.000563463 0.000303666 -2.34535e-11 5.16313e-11 -1.2148e-11 5e-05 1.46608e-10 
160 1 0.108541 0.0178221 0.0072699 0.0059276 0.000559327 0.000294295 -3.90673e-10 -4.04493e-10 8.69866e-11 5e-05 1.46608e-10 
162 1 0.108485 0.0172138 0.00750597 0.00600999 -5.39917e-05 -0.000742574 -8.21862e-11 -9.53602e-11 -2.61549e-10 5e-05 1.46608e-10 
163 1 0.108697 0.0173567 0.00743638 0.00584477 0.000100095 -0.000460418 -7.60712e-10 6.57871e-10 1.96163e-11 5e-05 1.46608e-10 
164 1 0.108756 0.017972 0.00721261 0.00583925 0.000341459 -0.000995805 -5.76195e-10 5.50372e-10 -1.10302e-09 5e-05 1.46608e-10 
165 1 0.108611 0.0169908 0.00757325 0.0059841 4.77982e-05 -0.000459795 -1.20829e-10 7.46742e-12 5.1881e-11 5e-05 1.46608e-10 
166 1 0.114027 0.0158245 0.0084281 0.00558648 -0.000267857 0.000713619 1.04558e-10 3.81303e-11 2.71932e-11 5e-05 1.46608e-10 
167 1 0.108451 0.0166902 0.00769227 0.0060985 1.00598e-05 -0.000452941 -3.89077e-10 1.99965e-10 -3.54562e-11 5e-05 1.46608e-10 
168 1 0.108593 0.0176714 0.00733599 0.00590803 0.000101443 -0.000480472 -5.15879e-10 -3.02937e-10 -1.14698e-09 5e-05 1.46608e-10 
169 1 0.108741 0.0175399 0.00736781 0.00586196 0.000106752 -0.000469387 -6.85704e-10 1.81938e-10 3.53111e-10 5e-05 1.46608e-10 
170 1 0.108668 0.0176073 0.00735417 0.00588081 5.70083e-05 -0.000605053 -3.28697e-10 -9.24853e-12 -5.3619e-10 5e-05 1.46608e-10 
171 1 0.114431 0.0166174 0.00775625 0.00587031 -0.000737771 0.000123796 6.59074e-11 1.82759e-10 -1.58838e-10 5e-05 1.46608e-10 
172 1 0.108926 0.0179428 0.00721047 0.00528139 -0.000382656 -0.000247923 1.12461e-10 6.64297e-11 -1.026e-10 5e-05 1.46608e-10 
173 1 0.114703 0.0172965 0.00730031 0.00519621 -0.000617087 8.58367e-05 -6.28452e-11 6.02875e-11 -4.54582e-11 5e-05 1.46608e-10 
174 1 0.108573 0.0178979 0.00733132 0.00590066 0.00038206 0.000228521 1.58324e-10 3.41977e-11 3.80147e-10 5e-05 1.46608e-10 
175 1 0.10545 0.0176324 0.0070572 0.0055929 -0.00055334 0.000771406 9.16993e-13 -9.49634e-14 1.32168e-13 5e-05 1.46608e-10 
176 1 0.108433 0.0173696 0.0074528 0.00600639 -8.84058e-05 -0.000994689 2.3201e-11 -1.34668e-10 -1.17762e-09 5e-05 1.46608e-10 
177 1 0.108991 0.0183445 0.00706233 0.00562438 -4.78204e-05 -0.000398454 6.00857e-12 -4.26824e-11 6.69677e-12 5e-05 1.46608e-10 
178 1 0.108906 0.0178439 0.00724725 0.00525459 -0.000146237 -0.000337774 -2.86351e-10 2.10561e-10 -1.09868e-10 5e-05 1.46608e-10 
179 1 0.10246 0.0173971 0.00715528 0.00578235 9.88129e-05 -0.000192644 9.46914e-12 -1.7141e-10 -4.68907e-11 5e-05 1.46608e-10 
180 1 0.108602 0.0173306 0.00745273 0.00588581 8.4911e-05 -0.000465551 2.2902e-11 4.92977e-10 -2.96664e-10 5e-05 1.46608e-10 
181 1 0.108645 0.0175138 0.00738414 0.0057513 9.21475e-05 -0.000563181 -1.98099e-09 1.27692e-09 5.00491e-09 5e-05 1.46608e-10 
182 1 0.114618 0.0169708 0.00751626 0.00595508 -0.000740741 0.000120376 2.12922e-10 2.30988e-10 -1.61937e-10 5e-05 1.46608e-10 
183 1 0.108763 0.0176319 0.0073334 0.0059024 0.000106006 -0.000472702 -4.49207e-10 3.5378e-10 -4.98183e-11 5e-05 1.46608e-10 
184 1 0.114584 0.0179853 0.00705123 0.0054619 -0.000546582 0.000314182 -1.19345e-10 -5.49713e-10 -1.4781e-10 5e-05 1.46608e-10 
185 1 0.108476 0.017551 0.00738057 0.00596335 0.000515436 0.000343875 -1.86867e-10 1.49972e-10 -5.71307e-11 5e-05 1.46608e-10 
186 1 0.108507 0.0173058 0.00747308 0.00598848 -0.000176911 -0.00133337 6.83112e-11 1.66676e-10 -5.4948e-10 5e-05 1.46608e-10 
187 1 0.114639 0.0170521 0.0074623 0.00596111 -0.000746164 0.000123442 3.27131e-10 1.86982e-10 -1.40211e-10 5e-05 1.46608e-10 
188 1 0.114641 0.0178485 0.007042 0.00563809 -0.000584483 0.00031943 -1.14177e-10 -3.91531e-10 -1.88932e-10 5e-05 1.46608e-10 
189 1 0.114313 0.0165123 0.00783137 0.00583034 -0.000746896 0.000138195 1.83817e-10 1.38847e-10 -3.77657e-11 5e-05 1.46608e-10 
190 1 0.108878 0.0185821 0.0069745 0.00564352 0.000241135 0.000433786 -1.67661e-10 -1.38373e-11 -1.21712e-11 5e-05 1.46608e-10 
191 1 0.114644 0.0182771 0.00708319 0.00537322 -0.000699872 0.000290922 -2.15338e-11 1.38024e-10 -2.05818e-11 5e-05 1.46608e-10 
192 1 0.10855 0.0174891 0.00740584 0.00588093 4.93694e-05 -0.000745263 -1.25596e-09 5.0319e-10 -4.62098e-10 5e-05 1.46608e-10 
193 1 0.114664 0.0183745 0.00709385 0.0052207 -0.000669373 0.000286883 -2.45234e-11 4.74945e-11 9.87989e-12 5e-05 1.46608e-10 
194 1 0.108377 0.0167556 0.00767438 0.00607975 -5.05245e-06 -0.000446006 -4.03463e-11 1.8519e-10 -8.08119e-11 5e-05 1.46608e-10 
195 1 0.10869 0.0176991 0.0073205 0.00597644 0.000158938 -0.000612872 -3.76805e-10 2.92337e-10 -1.08413e-09 5e-05 1.46608e-10 
196 1 0.107972 0.0157092 0.00874811 0.00510879 0.000140072 -0.000110468 2.65567e-11 2.01836e-10 -6.19421e-10 5e-05 1.46608e-10 
197 1 0.108657 0.0180222 0.00729085 0.00732698 0.000117513 0.000627814 -5.40345e-10 -4.70535e-10 4.32403e-10 5e-05 1.46608e-10 
198 1 0.108389 0.0171863 0.00752017 0.00602294 -8.41673e-05 -0.000776617 3.38067e-11 3.67187e-11 -3.61917e-10 5e-05 1.46608e-10 
199 1 0.108519 0.0177318 0.00730679 0.00594167 0.000549594 0.000318075 8.64233e-11 1.06969e-10 -1.87379e-11 5e-05 1.46608e-10 
200 1 0.108399 0.016847 0.00764016 0.00607093 5.10793e-06 -0.000449891 5.05619e-11 1.21545e-10 -3.01612e-11 5e-05 1.46608e-10 
201 1 0.108867 0.0184905 0.00701293 0.00560335 0.00024583 0.000427681 -4.21714e-11 -3.97267e-12 4.81577e-12 5e-05 1.46608e-10 
203 1 0.114823 0.017808 0.00705031 0.00556177 -0.000596874 0.000317871 1.66277e-10 -4.17465e-11 2.18191e-11 5e-05 1.46608e-10 
204 1 0.108516 0.0169646 0.00758961 0.00603851 4.70052e-05 -0.000468124 5.45998e-12 1.61708e-10 -3.18612e-11 5e-05 1.46608e-10 
205 1 0.1086 0.0181028 0.00727493 0.00751636 0.00021875 0.000783234 3.82123e-10 7.43139e-10 1.34939e-09 5e-05 1.46608e-10 
206 1 0.108615 0.0177625 0.00730071 0.00586143 0.000197081 -0.000171665 -8.33313e-10 -8.37766e-11 -5.06548e-10 5e-05 1.46608e-10 
207 1 0.108386 0.0164157 0.00779499 0.0061782 -1.58574e-05 -0.000449337 -9.51296e-11 1.06916e-10 -3.46589e-11 5e-05 1.46608e-10 
208 1 0.108497 0.0176414 0.00734368 0.005949 0.000530853 0.000324355 -5.6724e-11 1.76132e-10 -1.62612e-11 5e-05 1.46608e-10 
209 1 0.10248 0.0174926 0.00713358 0.00583043 8.93506e-05 -0.000178374 -2.81754e-11 -1.86715e-10 7.48668e-11 5e-05 1.46608e-10 
210 1 0.114048 0.015897 0.00836259 0.00564399 -0.000270485 0.000721645 1.73435e-11 -6.89858e-11 6.93238e-11 5e-05 1.46608e-10 
211 1 0.114641 0.0179921 0.00713361 0.00552925 -0.000653212 0.000286444 1.59074e-10 -3.04415e-10 -1.12822e-10 5e-05 1.46608e-10 
212 1 0.10888 0.0177494 0.00728285 0.00586011 0.000119782 -0.000468551 -5.16024e-10 3.28907e-10 -1.46543e-10 5e-05 1.46608e-10 
213 1 0.114778 0.0176261 0.00708646 0.00536326 -0.000583364 0.000227668 1.09305e-10 -6.06103e-11 -7.62565e-11 5e-05 1.46608e-10 
214 1 0.114695 0.0178431 0.00712626 0.00562668 -0.000668237 0.000313153 1.20711e-10 -2.01133e-10 -5.67033e-11 5e-05 1.46608e-10 
215 1 0.10858 0.0172391 0.00748695 0.00601618 6.97773e-05 -0.000475181 -1.67251e-10 -5.60382e-11 -1.3939e-11 5e-05 1.46608e-10 
216 1 0.108654 0.0171738 0.00750481 0.00601652 7.67233e-05 -0.000469907 -1.14172e-10 3.46308e-10 -1.20541e-10 5e-05 1.46608e-10 
217 1 0.114452 0.0166987 0.0077023 0.00587391 -0.000736344 0.000122592 6.00221e-12 2.06969e-10 -1.17694e-10 5e-05 1.46608e-10 
218 1 0.108733 0.017882 0.00725098 0.00584985 0.000164759 -0.000349892 -2.44194e-10 -1.70895e-10 -7.30182e-10 5e-05 1.46608e-10 
219 1 0.114675 0.0181075 0.00713474 0.005078 -0.000137953 -0.000237112 -1.23103e-10 1.04536e-10 -3.47671e-10 5e-05 1.46608e-10 
220 1 0.108559 0.0171476 0.00752117 0.00602058 5.81535e-05 -0.000467071 -1.21407e-10 -4.24001e-11 -1.13409e-10 5e-05 1.46608e-10 
221 1 0.102362 0.0169771 0.00739713 0.00626678 0.000177238 0.000164763 1.19084e-10 2.08679e-10 -8.30083e-11 5e-05 1.46608e-10 
222 1 0.114239 0.0165709 0.00779789 0.00586069 -0.00073275 0.000115121 4.5176e-11 3.85451e-10 -2.27832e-10 5e-05 1.46608e-10 
223 1 0.108623 0.0174221 0.00741847 0.00578775 0.000131086 -0.000556667 -2.74641e-09 1.72524e-09 6.43298e-09 5e-05 1.46608e-10 
224 1 0.108411 0.017278 0.00748673 0.00601929 -0.000213842 -0.00121687 1.60126e-10 2.38888e-10 -1.68992e-10 5e-05 1.46608e-10 
225 1 0.114761 0.017542 0.00713794 0.00521985 -0.000626577 0.000105001 3.86117e-10 -7.66882e-11 -2.4729e-11 5e-05 1.46608e-10 
226 1 0.108632 0.0170823 0.00753904 0.00596889 3.78894e-05 -0.000450211 -5.03741e-11 1.52357e-10 -2.64264e-11 5e-05 1.46608e-10 
227 1 0.102419 0.0172144 0.00722274 0.00581875 0.000262192 7.62734e-05 -2.26407e-10 -4.26814e-11 -6.68886e-11 5e-05 1.46608e-10 
228 1 0.0507861 0.0189683 0.00558458 -5.36286e-15 -1.91063e-14 -2.87013e-13 1.24045e-23 3.62925e-23 -1.86116e-24 5e-05 1.46608e-10 
229 1 0.108179 0.0160366 0.00797793 0.00582178 0.000322167 0.000228529 -1.19314e-10 -1.65708e-10 1.02691e-10 5e-05 1.46608e-10 
230 1 0.108633 0.0181794 0.00721986 0.0064728 0.000365365 0.000382329 1.44073e-10 -4.08687e-10 3.82068e-11 5e-05 1.46608e-10 
231 1 0.197479 0.018695 0.00523156 -1.10078e-15 -2.69838e-14 1.45242e-13 -2.32142e-22 -2.99853e-24 -2.27475e-24 5e-05 1.46608e-10 
232 1 0.108212 0.0161168 0.00792816 0.00608523 0.000258762 0.000294466 -2.56616e-10 -1.36019e-10 5.1566e-11 5e-05 1.46608e-10 
233 1 0.108494 0.0168732 0.00762383 0.00606329 3.80504e-05 -0.000460554 7.35358e-11 2.02612e-10 -4.90868e-11 5e-05 1.46608e-10 
234 1 0.113987 0.0156791 0.00855951 0.00533486 -0.000232309 0.000658622 -2.0754e-10 -1.65748e-10 1.36527e-10 5e-05 1.46608e-10 
235 1 0.108785 0.0185402 0.00698372 0.0055853 0.000230684 0.000432835 1.04924e-11 7.67732e-11 -4.63365e-11 5e-05 1.46608e-10 
236 1 0.108725 0.0186852 0.00691551 0.00560893 0.000207479 0.000444455 2.90703e-11 7.38456e-11 -3.35873e-11 5e-05 1.46608e-10 
237 1 0.108707 0.0182422 0.00710473 0.00585609 0.000107257 0.000498717 3.04668e-11 4.8501e-10 -6.57287e-11 5e-05 1.46608e-10 
238 1 0.1025 0.017588 0.00711189 0.00585579 0.000104695 -0.000185675 -1.70802e-10 -1.34823e-10 5.86761e-11 5e-05 1.46608e-10 
239 1 0.102254 0.0165834 0.00768584 0.00617431 0.000189008 0.000152358 -3.14423e-11 -7.72721e-11 5.02478e-11 5e-05 1.46608e-10 
240 1 0.102341 0.0168983 0.00745495 0.00623667 0.000175414 0.000163621 -8.70065e-11 7.69207e-11 -5.95221e-11 5e-05 1.46608e-10 
241 1 0.102276 0.0166621 0.0076281 0.00618827 0.000176451 0.000162467 8.6967e-12 9.29315e-11 -6.36446e-11 5e-05 1.46608e-10 
242 1 0.102595 0.017618 0.0071026 0.00587778 0.000105826 -0.000186681 -4.17449e-11 1.53265e-10 -4.76804e-11 5e-05 1.46608e-10 
243 1 0.102233 0.0165046 0.00774359 0.00616654 0.000210077 0.000136121 -8.40213e-11 -2.9375e-10 2.11503e-10 5e-05 1.46608e-10 
244 1 0.102297 0.0167409 0.00757036 0.00620815 0.000172585 0.000165688 5.86759e-11 1.36486e-10 -7.86267e-11 5e-05 1.46608e-10 
245 1 0.102521 0.0176835 0.00709019 0.00588254 0.000113262 -0.0001891 2.63306e-11 -2.63909e-11 -1.59757e-12 5e-05 1.46608e-10 
246 1 0.102383 0.017056 0.00733927 0.00585047 0.000247129 9.41091e-05 -6.41322e-11 1.49525e-10 -1.15008e-10 5e-05 1.46608e-10 
247 1 0.108784 0.0177236 0.00729907 0.00584458 5.32588e-05 -0.000449147 -3.97917e-10 2.95844e-10 -2.21293e-10 5e-05 1.46608e-10 
248 1 0.10883 0.0179073 0.00723016 0.00553034 0.000132254 -0.000466265 -6.20743e-10 3.95457e-10 2.72699e-10 5e-05 1.46608e-10 