ITEM: TIMESTEP
30200000
ITEM: NUMBER OF ATOMS
212
ITEM: BOX BOUNDS ff ff ff
-0.02 0.43
-0.02 0.06
-0.02 0.07
ITEM: ATOMS id type x y z vx vy vz fx fy fz radius mass 
1 1 0.189528 0.0177895 0.00701733 0.00566059 4.25366e-05 0.000112117 -7.02685e-10 2.22545e-10 -6.76438e-11 5e-05 1.46608e-10 
2 1 0.189148 0.0176612 0.00704116 0.00566759 0.000180707 5.98098e-05 -1.13325e-10 -1.17944e-10 -1.49287e-10 5e-05 1.46608e-10 
3 1 0.177325 0.0185407 0.00691389 0.00578282 -0.000444002 0.00025166 -2.60318e-11 8.24967e-11 -4.56897e-11 5e-05 1.46608e-10 
4 1 0.188904 0.0163009 0.0079355 0.00607086 6.41383e-05 0.000221481 -5.58852e-11 -5.56392e-11 3.52507e-11 5e-05 1.46608e-10 
5 1 0.189299 0.0175356 0.00707586 0.0055781 0.000158807 7.45366e-05 -2.69874e-10 2.25447e-10 -1.80962e-11 5e-05 1.46608e-10 
6 1 0.194952 0.0167814 0.00748768 0.00580095 0.000206941 0.000178559 4.1453e-13 6.47562e-13 2.54478e-13 5e-05 1.46608e-10 
7 1 0.18868 0.0157786 0.00826274 0.00619865 8.11769e-05 0.000213741 -2.52427e-13 -9.27335e-12 1.09155e-11 5e-05 1.46608e-10 
8 1 0.188766 0.0161104 0.00805644 0.00614597 8.09583e-05 0.000213495 -1.51975e-11 -4.56271e-11 4.13817e-11 5e-05 1.46608e-10 
9 1 0.195149 0.0176718 0.00707749 0.00562405 0.000232416 0.000158231 -1.52327e-12 -2.38408e-13 1.73541e-12 5e-05 1.46608e-10 
10 1 0.188701 0.0158613 0.00821024 0.00617902 8.40676e-05 0.000212491 -1.10363e-11 -2.23767e-11 9.75369e-12 5e-05 1.46608e-10 
11 1 0.188722 0.0159437 0.00815799 0.00616023 8.57068e-05 0.000211967 -1.39261e-11 -2.48253e-11 1.91595e-11 5e-05 1.46608e-10 
13 1 0.189092 0.0174031 0.00717466 0.00572256 -2.89339e-05 -0.000155599 -3.28028e-11 -1.66908e-11 -3.57548e-10 5e-05 1.46608e-10 
15 1 0.18916 0.0176303 0.00713546 0.00567597 8.83108e-05 2.90648e-05 8.90664e-11 2.50582e-11 -2.68398e-10 5e-05 1.46608e-10 
17 1 0.189114 0.0171116 0.00738449 0.00550307 -0.000119859 -0.000187373 -2.80705e-10 1.67901e-10 -1.21913e-10 5e-05 1.46608e-10 
18 1 0.195187 0.0178502 0.00699527 0.00567958 0.000224273 0.000164563 -1.36177e-12 9.81246e-12 -1.37896e-11 5e-05 1.46608e-10 
19 1 0.188537 0.015381 0.0088047 0.00556154 -0.000163365 -9.31675e-05 4.70358e-11 2.60404e-11 -5.48178e-11 5e-05 1.46608e-10 
20 1 0.189362 0.0182681 0.00690337 0.00562347 6.15096e-05 -0.000105358 5.10503e-11 3.16376e-10 2.45827e-09 5e-05 1.46608e-10 
21 1 0.188557 0.0154257 0.0087175 0.00557749 -0.000163514 -9.37131e-05 1.23335e-11 3.02827e-11 -5.46222e-11 5e-05 1.46608e-10 
22 1 0.189414 0.0176623 0.00704666 0.00559631 -1.84759e-05 0.00012544 -2.28319e-10 4.72698e-10 -1.43065e-10 5e-05 1.46608e-10 
23 1 0.183167 0.0177558 0.00701639 0.00575276 0.000509213 -3.32409e-05 -1.05319e-11 -3.1411e-12 -9.36124e-12 5e-05 1.46608e-10 
24 1 0.19513 0.0175827 0.00711861 0.00559588 0.000236899 0.000154777 3.707e-12 -1.41359e-12 9.09444e-13 5e-05 1.46608e-10 
25 1 0.189151 0.0172689 0.00726658 0.00566753 -0.000132198 -0.000179161 -6.60493e-11 1.89491e-10 -1.43662e-10 5e-05 1.46608e-10 
26 1 0.195033 0.0171372 0.00732389 0.00561198 0.000236782 0.000155639 1.84046e-12 3.27956e-13 6.92141e-13 5e-05 1.46608e-10 
28 1 0.189342 0.0181719 0.0069224 0.00570183 0.000101369 3.33294e-05 -2.77279e-10 2.05169e-10 -6.53796e-11 5e-05 1.46608e-10 
29 1 0.189077 0.0169544 0.00750237 0.00537017 -0.000101409 -0.000193602 -2.22233e-10 3.06394e-10 -1.59788e-10 5e-05 1.46608e-10 
30 1 0.189111 0.0174838 0.00711863 0.00570744 0.000104181 6.11602e-06 -2.46999e-11 2.58123e-10 8.04003e-12 5e-05 1.46608e-10 
31 1 0.188744 0.0160262 0.00810573 0.00615261 8.41241e-05 0.000212762 -5.44666e-12 -4.72775e-11 9.75603e-12 5e-05 1.46608e-10 
32 1 0.189057 0.016876 0.00756122 0.00551623 -0.000130858 -0.0001791 2.81473e-10 2.67588e-10 -1.99999e-10 5e-05 1.46608e-10 
33 1 0.194973 0.0168703 0.00744674 0.00581741 0.000203893 0.000180884 1.03301e-12 7.47737e-13 1.39181e-12 5e-05 1.46608e-10 
34 1 0.188981 0.0169324 0.00752931 0.00557703 9.37761e-05 4.77218e-05 6.82731e-11 4.98741e-11 -1.13093e-10 5e-05 1.46608e-10 
36 1 0.195168 0.017761 0.00703638 0.00565205 0.000228013 0.000161626 -5.77741e-12 4.16479e-12 -3.88269e-12 5e-05 1.46608e-10 
37 1 0.188883 0.0162183 0.00798783 0.0061222 0.000100641 0.000200059 7.41757e-12 -8.60264e-11 6.22419e-11 5e-05 1.46608e-10 
38 1 0.189281 0.017451 0.00712587 0.0057021 -4.50211e-05 -0.000232884 -4.62398e-11 6.21111e-11 -3.82252e-10 5e-05 1.46608e-10 
39 1 0.195111 0.0174935 0.00715971 0.00572678 0.000216565 0.000170504 -9.38114e-13 -2.22777e-13 -6.23701e-13 5e-05 1.46608e-10 
41 1 0.188596 0.0155152 0.00854302 0.00559327 -0.000160149 -0.00010157 -1.26319e-11 3.28047e-11 -7.37202e-11 5e-05 1.46608e-10 
42 1 0.189263 0.0173722 0.00718471 0.00572257 -4.7133e-05 -0.000259906 2.55337e-10 2.32623e-10 -2.27884e-10 5e-05 1.46608e-10 
44 1 0.189187 0.0178517 0.00699434 0.00567821 0.000183237 7.74556e-05 -1.87409e-10 -3.05881e-10 4.05227e-11 5e-05 1.46608e-10 
45 1 0.195013 0.0170482 0.00736488 0.00585022 0.000197378 0.000185468 1.42899e-12 1.77548e-13 -7.19784e-13 5e-05 1.46608e-10 
47 1 0.18864 0.0156238 0.00838126 0.00621129 8.24992e-05 0.000227073 3.01628e-11 1.94163e-12 -2.89524e-11 5e-05 1.46608e-10 
49 1 0.195053 0.0172263 0.00728285 0.00564061 0.000231561 0.000159273 7.8663e-13 2.04166e-13 -1.91843e-12 5e-05 1.46608e-10 
50 1 0.189476 0.0183964 0.00688176 0.00567843 3.60259e-05 -0.000116837 -1.12871e-11 -1.69227e-10 -9.96975e-12 5e-05 1.46608e-10 
51 1 0.183343 0.0186272 0.0068831 0.0057348 0.000481491 -9.75513e-05 5.13694e-13 1.54507e-11 -8.10623e-13 5e-05 1.46608e-10 
52 1 0.189381 0.018365 0.00688836 0.00566781 5.0803e-05 -0.000125467 -7.04777e-11 1.77806e-10 4.6318e-11 5e-05 1.46608e-10 
53 1 0.195072 0.0173154 0.0072418 0.00566925 0.000226497 0.000163228 1.80859e-12 4.17765e-13 -6.74541e-14 5e-05 1.46608e-10 
54 1 0.189437 0.0182026 0.006912 0.00569128 0.000111978 0.0001037 -3.27676e-10 1.09261e-10 1.54882e-10 5e-05 1.46608e-10 
55 1 0.183129 0.0175802 0.00710425 0.00569907 0.000523775 -4.20748e-05 1.24854e-12 -1.12723e-11 5.96379e-12 5e-05 1.46608e-10 
56 1 0.189339 0.0177261 0.00702907 0.00565269 6.54603e-05 0.00010983 -2.81949e-10 3.04402e-10 -1.13319e-10 5e-05 1.46608e-10 
57 1 0.194993 0.0169593 0.00740581 0.00583395 0.000200627 0.00018309 1.05006e-12 -1.15945e-14 -1.57101e-12 5e-05 1.46608e-10 
59 1 0.189132 0.0171902 0.00732553 0.00559876 -0.000127007 -0.000183006 -1.89761e-10 2.06925e-10 -1.07213e-10 5e-05 1.46608e-10 
60 1 0.189532 0.0182341 0.00690618 0.00564217 0.000137777 7.63336e-05 -4.26005e-10 5.28732e-11 -1.4933e-10 5e-05 1.46608e-10 
61 1 0.188616 0.0155656 0.00845894 0.00564004 9.94855e-06 3.50785e-06 -1.62281e-11 1.24534e-11 -6.67953e-11 5e-05 1.46608e-10 
62 1 0.189129 0.017566 0.00706455 0.00567179 0.000180986 8.4996e-05 6.25483e-11 5.71477e-11 -8.3707e-11 5e-05 1.46608e-10 
63 1 0.18883 0.016356 0.00789678 0.00608819 7.20339e-05 0.000217146 -2.76784e-11 -5.01078e-11 7.10992e-11 5e-05 1.46608e-10 
64 1 0.195092 0.0174044 0.00720075 0.005698 0.000221429 0.00016678 2.35202e-14 1.44736e-12 5.3663e-13 5e-05 1.46608e-10 
65 1 0.182789 0.0161647 0.00796055 0.00626785 6.26317e-05 -0.000387667 -4.56534e-12 6.475e-12 -7.07362e-12 5e-05 1.46608e-10 
66 1 0.182702 0.0158753 0.00822261 0.00624092 8.0138e-05 -0.000401565 4.34352e-11 -5.81089e-11 5.75382e-11 5e-05 1.46608e-10 
67 1 0.189285 0.0183316 0.0068953 0.00569131 8.11483e-05 -0.000119763 -5.18454e-12 1.63343e-11 7.07079e-10 5e-05 1.46608e-10 
69 1 0.189434 0.0177579 0.00702318 0.00566018 3.59375e-05 0.000114438 -5.55223e-10 3.10132e-10 -5.97945e-11 5e-05 1.46608e-10 
70 1 0.189401 0.0184619 0.00687335 0.00568585 3.42525e-05 -0.000117729 3.65567e-11 1.4519e-10 -8.12507e-11 5e-05 1.46608e-10 
72 1 0.188948 0.0164659 0.00783099 0.00609426 6.25116e-05 0.000223597 4.92912e-11 -8.99743e-11 5.06561e-11 5e-05 1.46608e-10 
73 1 0.188874 0.0165209 0.00779228 0.00610015 6.62458e-05 0.000221971 1.07222e-10 -1.84994e-11 2.58876e-11 5e-05 1.46608e-10 
74 1 0.189305 0.0184285 0.00688029 0.00569155 6.04372e-05 -0.000132269 -4.89277e-12 -2.05589e-10 1.19829e-10 5e-05 1.46608e-10 
76 1 0.145405 0.0205718 0.00539992 7.42584e-15 9.12949e-15 -2.35014e-13 -3.46705e-23 9.61533e-23 2.48154e-24 5e-05 1.46608e-10 
77 1 0.189265 0.0182348 0.0069105 0.0057229 0.000117631 -7.57091e-05 -2.93891e-10 -1.97259e-10 -8.62512e-11 5e-05 1.46608e-10 
78 1 0.183379 0.0183657 0.00690332 0.00577196 0.000448409 -0.000383923 -1.22717e-11 -6.07537e-12 3.82229e-13 5e-05 1.46608e-10 
80 1 0.189324 0.0185254 0.00686528 0.00570291 5.52826e-05 -0.000121416 -4.98211e-12 3.70607e-10 -1.23244e-10 5e-05 1.46608e-10 
81 1 0.182974 0.0168784 0.00745532 0.0059027 0.000477709 -1.23647e-05 9.77118e-11 -5.11181e-11 3.6689e-11 5e-05 1.46608e-10 
82 1 0.182894 0.0165323 0.00763849 0.00580887 0.000408896 -0.000134377 2.49776e-11 4.83845e-11 -2.07637e-11 5e-05 1.46608e-10 
84 1 0.195206 0.0179394 0.00695415 0.00570935 0.000221132 0.000166331 -3.72426e-11 -8.8061e-13 -1.6943e-11 5e-05 1.46608e-10 
85 1 0.188576 0.0154705 0.00863018 0.00559459 -0.000162633 -9.50996e-05 2.32661e-11 3.68357e-11 -6.76028e-11 5e-05 1.46608e-10 
86 1 0.189512 0.0181388 0.00692958 0.00568266 0.000137079 8.95711e-05 -7.39422e-11 -2.56239e-10 1.11618e-10 5e-05 1.46608e-10 
87 1 0.189038 0.0171674 0.00735188 0.0055417 -9.04485e-05 -0.000234747 -1.10445e-10 3.09379e-10 8.15754e-11 5e-05 1.46608e-10 
88 1 0.189457 0.0182995 0.00689681 0.00565042 4.64288e-05 -0.000185373 -4.76894e-10 1.73981e-10 1.60347e-09 5e-05 1.46608e-10 
90 1 0.189473 0.0179484 0.00697638 0.00567544 5.24367e-05 0.000109101 -2.35931e-10 -1.73472e-11 -1.23792e-11 5e-05 1.46608e-10 
91 1 0.189001 0.0170122 0.00747251 0.00544368 -1.86428e-05 -0.000161139 -2.54558e-10 2.72548e-11 -3.21984e-10 5e-05 1.46608e-10 
92 1 0.189303 0.0179804 0.00696466 0.00572912 0.000114151 9.35477e-05 1.63268e-10 -2.46197e-11 6.52637e-11 5e-05 1.46608e-10 
93 1 0.195225 0.0180288 0.00691377 0.00572028 7.67544e-05 -0.000136105 3.47941e-11 -1.01081e-11 1.25919e-11 5e-05 1.46608e-10 
94 1 0.189453 0.0178531 0.00699978 0.0056497 4.7122e-05 0.000110634 -4.47944e-10 9.84475e-11 -3.38666e-11 5e-05 1.46608e-10 
95 1 0.188895 0.0166034 0.00774003 0.00610411 6.24314e-05 0.000223704 7.96481e-11 -1.31241e-11 1.5332e-11 5e-05 1.46608e-10 
96 1 0.188917 0.0166859 0.00768779 0.00607965 6.49543e-05 0.000223084 -2.85741e-11 3.50316e-12 -3.46126e-11 5e-05 1.46608e-10 
98 1 0.189548 0.0178848 0.00699392 0.00564537 4.56483e-05 0.000111371 -4.51558e-10 1.42322e-10 -4.19168e-11 5e-05 1.46608e-10 
99 1 0.183337 0.0177289 0.00703675 0.00572372 0.000473694 -1.57508e-05 2.30001e-11 1.16627e-11 -4.35215e-12 5e-05 1.46608e-10 
101 1 0.183034 0.0171412 0.00732385 0.00585281 0.000494017 -2.12056e-05 -2.9979e-11 -2.66647e-11 1.46314e-11 5e-05 1.46608e-10 
102 1 0.0694385 0.0202053 0.00537268 3.86162e-15 4.58864e-15 -7.68246e-14 -5.41235e-22 -9.0637e-22 -8.16841e-23 5e-05 1.46608e-10 
104 1 0.0249839 0.0195037 0.00542543 -3.58896e-15 -5.78165e-16 5.85127e-14 5.94536e-25 -5.29589e-24 0 5e-05 1.46608e-10 
106 1 0.177266 0.0182552 0.00698239 0.00551125 -0.000449731 2.01174e-05 2.3266e-10 -8.39355e-11 -1.02629e-10 5e-05 1.46608e-10 
107 1 0.182875 0.0164558 0.00769999 0.00586926 0.000225371 -0.000340633 9.55421e-12 3.60767e-11 -1.25574e-11 5e-05 1.46608e-10 
108 1 0.189034 0.016796 0.00762138 0.00645425 0.000420103 -0.000634899 1.6389e-10 -7.58321e-11 6.2027e-11 5e-05 1.46608e-10 
110 1 0.189607 0.0181704 0.00692374 0.00565367 0.000255015 5.66625e-05 1.25606e-10 -3.6776e-10 9.5274e-11 5e-05 1.46608e-10 
111 1 0.183053 0.0172291 0.00727989 0.00581054 0.0005015 -2.64635e-05 1.87934e-11 -1.67185e-11 3.85905e-12 5e-05 1.46608e-10 
112 1 0.182811 0.0162371 0.00789503 0.00627774 6.11935e-05 -0.000387447 -3.27463e-11 -4.63814e-11 2.63044e-11 5e-05 1.46608e-10 
115 1 0.18896 0.0168508 0.00758324 0.00582336 0.000113394 0.000179665 1.88841e-10 3.84367e-11 1.25909e-11 5e-05 1.46608e-10 
116 1 0.189551 0.0183309 0.00689017 0.00568378 5.18752e-05 -0.000119167 -4.73513e-11 -4.38951e-10 1.90746e-11 5e-05 1.46608e-10 
117 1 0.189492 0.0180436 0.00695299 0.00569096 7.33908e-05 0.0001037 -2.45655e-10 -4.61881e-11 2.97919e-11 5e-05 1.46608e-10 
118 1 0.182953 0.0167908 0.00749893 0.00588786 0.00047851 -1.10607e-05 4.67523e-11 6.37458e-12 3.46927e-13 5e-05 1.46608e-10 
119 1 0.189344 0.0186224 0.00685026 0.00570092 3.95014e-05 -0.000118647 3.54306e-11 1.22043e-10 -1.33873e-11 5e-05 1.46608e-10 
120 1 0.188517 0.0153362 0.00889196 0.00555122 -0.000161869 -9.44568e-05 4.99281e-12 4.00451e-11 -7.54275e-11 5e-05 1.46608e-10 
121 1 0.189568 0.01798 0.00697053 0.00566824 4.34611e-05 0.000112341 -1.06913e-10 2.85643e-11 -4.02565e-11 5e-05 1.46608e-10 
122 1 0.189398 0.018012 0.00695883 0.0056892 8.40084e-05 0.00010463 -1.45567e-10 -1.22218e-10 9.47931e-11 5e-05 1.46608e-10 
124 1 0.189226 0.0180422 0.00694754 0.00574621 0.000163989 8.3626e-05 -5.08154e-11 -7.14062e-13 1.9638e-10 5e-05 1.46608e-10 
125 1 0.188926 0.0163834 0.00788324 0.00608266 6.31634e-05 0.000222731 -5.97242e-11 -7.33316e-11 5.29274e-11 5e-05 1.46608e-10 
126 1 0.188809 0.0162735 0.00794907 0.00610259 7.8218e-05 0.000214802 1.87072e-12 -9.59353e-11 2.50109e-11 5e-05 1.46608e-10 
127 1 0.183299 0.0175533 0.00712461 0.0056625 0.000487818 -2.53905e-05 -6.0339e-11 -2.31407e-11 7.69611e-12 5e-05 1.46608e-10 
128 1 0.189244 0.017695 0.0070362 0.00562963 0.000116245 8.31624e-05 -4.52877e-11 1.55808e-10 -6.46608e-11 5e-05 1.46608e-10 
129 1 0.183226 0.0180439 0.00695731 0.00579061 0.000430664 -0.000381968 1.05452e-11 6.39763e-12 7.48858e-12 5e-05 1.46608e-10 
131 1 0.183148 0.017668 0.00706032 0.0057267 0.000516877 -3.74717e-05 -5.65809e-12 -1.34867e-11 7.95406e-12 5e-05 1.46608e-10 
132 1 0.18902 0.0170904 0.00741305 0.00543225 -8.51307e-05 -0.000255989 -2.35643e-10 2.09085e-10 -9.86718e-11 5e-05 1.46608e-10 
133 1 0.189496 0.0184933 0.00686674 0.00568643 4.10235e-06 -0.000112734 -1.32267e-10 -1.34759e-10 1.31153e-11 5e-05 1.46608e-10 
134 1 0.189264 0.0177899 0.00701147 0.00561443 0.000124907 9.34959e-05 -1.84133e-10 5.97322e-11 -8.86442e-12 5e-05 1.46608e-10 
135 1 0.188852 0.0164384 0.00784453 0.00608616 7.04596e-05 0.000217371 -4.1618e-12 -4.26999e-11 6.73443e-12 5e-05 1.46608e-10 
136 1 0.183205 0.0175228 0.00713642 0.00566897 0.000510728 -3.6991e-05 -5.07214e-11 4.89685e-11 -2.41645e-11 5e-05 1.46608e-10 
137 1 0.189283 0.0178852 0.00698807 0.00564228 0.000128574 9.11187e-05 9.24993e-11 -9.5632e-11 3.55939e-11 5e-05 1.46608e-10 
138 1 0.188938 0.0167684 0.00763558 0.00602809 8.11148e-05 0.000221387 1.88993e-11 2.41321e-11 -4.30412e-11 5e-05 1.46608e-10 
140 1 0.189207 0.017947 0.00697094 0.00570394 0.000174633 7.9718e-05 -5.07571e-11 -1.70241e-10 -6.64163e-11 5e-05 1.46608e-10 
141 1 0.182854 0.0163819 0.00776396 0.00599313 0.000118374 -0.000422745 -2.26642e-11 3.74505e-11 1.92018e-11 5e-05 1.46608e-10 
143 1 0.393994 0.0150325 6.48596e-05 -2.1271e-21 1.6267e-21 -1.45327e-21 0 0 0 5e-05 1.46608e-10 
146 1 0.183356 0.0178168 0.00699283 0.00575312 0.000470312 -1.24221e-05 1.66149e-11 -2.56654e-12 -5.83816e-12 5e-05 1.46608e-10 
147 1 0.183206 0.0179474 0.00697445 0.00577223 0.000451822 -0.000286314 3.18274e-11 2.76555e-11 4.68427e-11 5e-05 1.46608e-10 
148 1 0.00853771 0.0178201 0.00780002 0.00115515 -0.00760827 0.0040562 -3.60164e-11 -3.64693e-10 7.79048e-11 5e-05 1.46608e-10 
149 1 0.189169 0.0173476 0.00720757 0.00573261 -8.23407e-05 -0.000237662 2.12385e-10 3.02996e-10 -2.6882e-10 5e-05 1.46608e-10 
150 1 0.182681 0.0158029 0.00828813 0.00624447 8.06869e-05 -0.000402734 1.05261e-10 -3.06393e-11 1.37265e-11 5e-05 1.46608e-10 
151 1 0.18334 0.0181718 0.00693289 0.00578353 0.000443746 -0.000383804 -8.89233e-12 -1.44576e-11 3.06344e-12 5e-05 1.46608e-10 
154 1 0.183224 0.0176106 0.00709251 0.00568411 0.000506656 -3.42293e-05 -2.66895e-11 2.04627e-11 -1.19769e-11 5e-05 1.46608e-10 
155 1 0.177345 0.0186374 0.00689901 0.00606392 -0.000511767 0.000270106 -8.79019e-11 1.1416e-10 -2.69788e-11 5e-05 1.46608e-10 
157 1 0.183091 0.0174044 0.00719219 0.00570881 0.000515947 -3.78036e-05 -1.06951e-11 1.103e-11 -8.76592e-12 5e-05 1.46608e-10 
165 1 0.183359 0.0182688 0.00691811 0.00577756 0.000446195 -0.000383764 -1.20587e-11 -8.18985e-12 5.97995e-13 5e-05 1.46608e-10 
166 1 0.188861 0.0161359 0.00804005 0.00615629 9.9775e-05 0.000202088 -6.54015e-11 -1.05875e-10 6.19229e-11 5e-05 1.46608e-10 
168 1 0.242316 0.0178852 0.00777673 -7.89689e-11 -0.0230048 0.00721834 -1.64481e-18 6.55132e-12 2.08522e-11 5e-05 1.46608e-10 
171 1 0.188787 0.016191 0.00800129 0.00612742 8.01939e-05 0.000213616 -1.18184e-11 -7.08756e-11 2.87273e-11 5e-05 1.46608e-10 
172 1 0.183243 0.0176984 0.0070486 0.00571086 0.000501913 -3.06476e-05 5.27254e-11 -5.88618e-12 6.4469e-12 5e-05 1.46608e-10 
176 1 0.182767 0.0160924 0.00802606 0.00627028 6.59262e-05 -0.000391734 3.29287e-11 6.4056e-11 -6.43641e-11 5e-05 1.46608e-10 
177 1 0.182833 0.0163094 0.00782952 0.00618293 8.05292e-05 -0.000400997 -2.13239e-11 -1.94111e-11 2.8556e-11 5e-05 1.46608e-10 
179 1 0.177246 0.0181609 0.00700945 0.00550825 -0.000452532 1.45741e-05 3.65341e-11 -8.19136e-11 -1.27827e-11 5e-05 1.46608e-10 
181 1 0.182746 0.01602 0.00809158 0.00626697 7.31719e-05 -0.0003986 -7.47104e-11 5.93442e-11 -4.84876e-11 5e-05 1.46608e-10 
182 1 0.189012 0.0167133 0.0076742 0.00604276 8.88749e-05 0.000205098 -2.47892e-11 3.82042e-11 -1.86545e-11 5e-05 1.46608e-10 
184 1 0.189168 0.0177565 0.00701775 0.00567801 0.000181896 5.80605e-05 -3.42809e-10 -2.13266e-10 -8.94097e-12 5e-05 1.46608e-10 
187 1 0.189187 0.0174264 0.00714857 0.00568961 -5.61956e-05 -0.000246605 -2.65151e-11 1.2157e-10 -6.92116e-11 5e-05 1.46608e-10 
188 1 0.189417 0.0181072 0.00693544 0.00569117 8.6373e-05 0.000107647 -2.61263e-10 3.14978e-11 1.1438e-10 5e-05 1.46608e-10 
189 1 0.189319 0.0176309 0.00705246 0.00558336 6.54654e-05 0.000101383 -7.83528e-11 2.70605e-10 5.2536e-11 5e-05 1.46608e-10 
191 1 0.189056 0.0172438 0.0072899 0.00562337 -9.19149e-05 -0.00021985 -2.00971e-10 2.41295e-10 -1.06165e-10 5e-05 1.46608e-10 
192 1 0.180011 0.0172981 0.00719644 0.00534339 -0.00225247 0.000526883 5.54603e-13 -2.33283e-13 5.66489e-14 5e-05 1.46608e-10 
193 1 0.191972 0.0171129 0.00723976 0.00561805 -0.000829982 0.000329844 8.7279e-13 -1.32492e-13 5.00627e-14 5e-05 1.46608e-10 
197 1 0.182659 0.0157306 0.00835365 0.00623866 8.36748e-05 -0.000405644 -4.67536e-11 -2.19529e-11 1.68812e-11 5e-05 1.46608e-10 
198 1 0.183281 0.0178823 0.00698467 0.00576271 0.000469266 -0.000107196 1.93799e-11 5.1522e-12 -1.68987e-11 5e-05 1.46608e-10 
200 1 0.183324 0.0185293 0.00688924 0.00575175 0.000477172 -9.66466e-05 4.77832e-12 1.08524e-11 2.17943e-12 5e-05 1.46608e-10 
201 1 0.183245 0.0181409 0.00694252 0.00578612 0.000433688 -0.000382647 -3.82193e-12 -9.7851e-12 7.2101e-13 5e-05 1.46608e-10 
203 1 0.189074 0.0173226 0.00723122 0.00569093 -8.96749e-05 -0.000217261 -8.51337e-11 -2.0146e-11 -3.96419e-10 5e-05 1.46608e-10 
204 1 0.177226 0.0180667 0.00703651 0.00550974 -0.000452389 1.46771e-05 1.28798e-10 -1.67362e-10 6.29858e-11 5e-05 1.46608e-10 
206 1 0.177285 0.0183495 0.00695547 0.00551954 -0.000420365 0.000116254 -6.30497e-11 2.98557e-11 1.06997e-10 5e-05 1.46608e-10 
207 1 0.060646 0.0186723 0.00546139 1.16202e-15 5.186e-15 3.71388e-14 -2.5914e-24 2.06795e-25 0 5e-05 1.46608e-10 
208 1 0.183186 0.0178514 0.00699461 0.00575505 0.000498989 -8.4085e-05 1.13021e-11 3.947e-11 5.45379e-11 5e-05 1.46608e-10 
209 1 0.17705 0.0172184 0.00728008 0.00543254 -0.00053329 3.66699e-05 -8.25192e-11 -4.64045e-11 -6.10088e-14 5e-05 1.46608e-10 
210 1 0.189358 0.0178215 0.00700564 0.00560361 0.00012073 9.11979e-05 -2.53193e-10 8.68763e-11 -3.46667e-12 5e-05 1.46608e-10 
211 1 0.183304 0.0184317 0.00689816 0.0057687 0.000444711 -0.000384804 -2.16439e-12 1.71722e-14 -4.47542e-12 5e-05 1.46608e-10 
212 1 0.182994 0.016966 0.00741142 0.00591935 0.00047711 -1.00388e-05 -1.92515e-11 -7.23291e-11 1.95656e-11 5e-05 1.46608e-10 
213 1 0.189225 0.017601 0.00706402 0.00558337 0.000134567 6.34771e-05 9.50217e-12 3.76954e-10 3.67122e-10 5e-05 1.46608e-10 
214 1 0.189364 0.0187193 0.00683525 0.00569692 3.9474e-05 -0.000118154 5.29327e-11 7.66939e-11 -1.26423e-11 5e-05 1.46608e-10 
217 1 0.188969 0.0165483 0.00777874 0.00610399 6.58639e-05 0.000221913 2.47055e-11 -6.21501e-11 3.0877e-11 5e-05 1.46608e-10 
218 1 0.189421 0.0185588 0.00685834 0.00569653 2.37566e-05 -0.000115418 3.65483e-11 8.46447e-11 8.94964e-14 5e-05 1.46608e-10 
221 1 0.17699 0.0169359 0.00736123 0.00548887 -0.000545958 2.64719e-05 2.65278e-10 -1.7568e-10 -5.529e-10 5e-05 1.46608e-10 
222 1 0.188657 0.0156963 0.00831474 0.00620559 8.054e-05 0.00021843 1.12367e-11 3.87775e-12 -1.29107e-12 5e-05 1.46608e-10 
223 1 0.198118 0.017789 0.00698347 0.00563495 -0.00052332 0.000154304 5.02796e-13 -3.89519e-14 1.24072e-14 5e-05 1.46608e-10 
225 1 0.189205 0.0175059 0.00708896 0.00560477 -4.90292e-05 -0.000252869 -1.57642e-10 9.61232e-11 -2.11628e-12 5e-05 1.46608e-10 
226 1 0.18311 0.0174923 0.00714822 0.00566928 0.000519836 -4.13416e-05 -3.39385e-12 8.0865e-12 -9.25149e-13 5e-05 1.46608e-10 
228 1 0.0507861 0.0189683 0.00558458 -5.37736e-15 -1.91048e-14 -2.87013e-13 -3.23486e-22 5.75537e-23 1.03398e-24 5e-05 1.46608e-10 
231 1 0.197479 0.018695 0.00523156 -1.08667e-15 -2.69839e-14 1.45243e-13 -2.35092e-22 6.77254e-24 -2.06795e-25 5e-05 1.46608e-10 
232 1 0.189081 0.0184947 0.00541361 -2.1669e-15 1.31156e-15 5.80685e-14 -6.45072e-23 -9.1216e-23 0 5e-05 1.46608e-10 
234 1 0.189378 0.0179167 0.00698223 0.00564202 0.000102629 9.57614e-05 -1.48639e-10 -2.67318e-11 1.76459e-11 5e-05 1.46608e-10 
235 1 0.194679 0.0184196 0.00544868 1.51831e-14 9.62684e-14 2.34548e-13 1.45893e-21 -3.69336e-22 6.7622e-23 5e-05 1.46608e-10 
238 1 0.17707 0.0173126 0.00725303 0.00541311 -0.000518222 3.42654e-05 -6.45027e-11 -9.7802e-11 2.18671e-11 5e-05 1.46608e-10 
239 1 0.176893 0.0165356 0.00763039 0.00567708 -0.000276484 0.000471995 4.79159e-11 1.73389e-10 -1.53017e-10 5e-05 1.46608e-10 
240 1 0.17697 0.0168425 0.0073906 0.00543197 -0.000573631 -0.000127797 -3.98695e-10 3.94664e-10 8.34973e-10 5e-05 1.46608e-10 
241 1 0.176912 0.0166084 0.00756455 0.00571043 -0.000290989 0.000485408 -4.71122e-11 8.21857e-11 -1.90002e-10 5e-05 1.46608e-10 
242 1 0.177366 0.018734 0.00688417 0.00610272 -0.000529792 0.000273601 1.17731e-10 1.03166e-10 -1.50888e-11 5e-05 1.46608e-10 
243 1 0.176874 0.0164628 0.00769624 0.0056312 -0.000267758 0.000459392 7.29323e-12 1.26642e-10 -1.02946e-10 5e-05 1.46608e-10 
244 1 0.176933 0.016681 0.00749891 0.00560804 -0.000291254 0.000475012 -6.094e-11 1.11512e-10 4.49466e-11 5e-05 1.46608e-10 
245 1 0.17709 0.0174069 0.00722597 0.00543063 -0.000520814 3.51747e-05 -3.88589e-12 -1.00724e-10 2.61386e-11 5e-05 1.46608e-10 
246 1 0.17701 0.0170301 0.00733417 0.00554331 -0.000550319 6.31958e-05 7.50072e-11 1.62307e-11 -1.86429e-10 5e-05 1.46608e-10 
248 1 0.182724 0.0159476 0.00815709 0.00625091 7.88245e-05 -0.000401856 -1.45381e-10 -7.70876e-12 3.38746e-11 5e-05 1.46608e-10 
249 1 0.177128 0.0175954 0.00717183 0.00541788 -0.000503224 3.08543e-05 2.08631e-11 -1.13212e-10 2.61973e-11 5e-05 1.46608e-10 
250 1 0.183873 0.0167296 0.0155698 0.00556966 0.00082768 0.000518285 1.94435e-13 4.1337e-13 1.5524e-13 5e-05 1.46608e-10 
251 1 0.189096 0.0170329 0.00744345 0.00539176 -0.000104575 -0.000194403 -9.15727e-11 1.81781e-10 -1.13411e-10 5e-05 1.46608e-10 
252 1 0.177109 0.0175012 0.00719889 0.00542121 -0.000513708 3.34378e-05 1.51339e-10 -7.40583e-11 5.38517e-12 5e-05 1.46608e-10 
254 1 0.181548 0.0182127 0.00767633 0.034519 0.036762 -0.013448 -3.64936e-10 -1.25398e-10 -5.7129e-11 5e-05 1.46608e-10 
255 1 0.183072 0.0173185 0.0072396 0.00576785 0.000507498 -3.12815e-05 1.12106e-11 -1.11716e-12 -6.56885e-12 5e-05 1.46608e-10 
256 1 0.189481 0.0180065 0.00774348 6.85721e-10 -0.0232126 0.00646319 8.86924e-16 5.77488e-12 2.10683e-11 5e-05 1.46608e-10 
257 1 0.183262 0.0177862 0.00700465 0.00574477 0.000495811 -2.55829e-05 5.63745e-12 1.38446e-11 9.4695e-12 5e-05 1.46608e-10 
258 1 0.183375 0.0179117 0.00696769 0.00574329 0.000381838 -0.000373077 2.95767e-11 -7.85475e-11 1.22661e-11 5e-05 1.46608e-10 
259 1 0.177148 0.0176897 0.00714476 0.00545601 -0.000490471 2.62382e-05 -1.70484e-10 -8.75454e-11 2.82942e-11 5e-05 1.46608e-10 
260 1 0.183301 0.0179779 0.00696249 0.00577633 0.000416405 -0.000379342 1.69514e-11 -3.72935e-11 7.09373e-12 5e-05 1.46608e-10 
261 1 0.183395 0.0180088 0.00695286 0.00576823 0.000436769 -0.000381764 -1.72824e-11 2.10838e-11 8.96618e-13 5e-05 1.46608e-10 
262 1 0.18332 0.0180749 0.00694768 0.00578236 0.000457876 -0.000385794 -2.14711e-11 5.00173e-11 -3.9822e-12 5e-05 1.46608e-10 
263 1 0.177305 0.0184438 0.0069288 0.00553668 -0.000386725 0.000235596 -1.0591e-10 3.45258e-11 3.22325e-11 5e-05 1.46608e-10 
265 1 0.183265 0.0182378 0.00692773 0.00577897 0.000437682 -0.000382508 -5.65933e-12 -1.6459e-11 2.76496e-12 5e-05 1.46608e-10 
270 1 0.189322 0.0180756 0.00694127 0.00571575 0.000117017 0.000106282 2.29772e-10 1.78824e-10 -1.16158e-10 5e-05 1.46608e-10 
271 1 0.249625 0.0179555 0.00775644 -6.27225e-11 -0.0231303 0.00678434 -1.90945e-18 6.15856e-12 2.0966e-11 5e-05 1.46608e-10 
272 1 0.177187 0.0178782 0.00709064 0.00548 -0.000456256 1.59705e-05 -1.85377e-10 -1.05932e-10 3.69792e-11 5e-05 1.46608e-10 
273 1 0.0608305 0.0181886 0.00769828 -0.0042431 -0.00407006 0.000394597 2.77807e-10 -2.71639e-10 5.4473e-11 5e-05 1.46608e-10 
274 1 0.177167 0.017784 0.0071177 0.00548636 -0.000472243 2.03397e-05 -1.01822e-11 -8.88021e-11 2.0879e-11 5e-05 1.46608e-10 
275 1 0.183285 0.0183347 0.00691294 0.00577423 0.000441276 -0.00038274 -7.15327e-12 -1.17862e-11 2.72073e-12 5e-05 1.46608e-10 
276 1 0.183014 0.0170538 0.00736816 0.00590008 0.000483739 -1.44521e-05 -5.13047e-11 -4.66689e-11 2.75456e-11 5e-05 1.46608e-10 
277 1 0.182912 0.0166157 0.00758644 0.00585832 0.000479672 -1.11813e-05 3.43336e-11 7.32479e-11 -4.7847e-12 5e-05 1.46608e-10 
279 1 0.177388 0.0188306 0.00686933 0.00612026 -0.000545761 0.000274988 1.71981e-11 1.47481e-10 -1.91272e-11 5e-05 1.46608e-10 
282 1 0.17703 0.0171243 0.00730713 0.00548291 -0.000549404 4.06279e-05 4.54224e-11 3.28398e-11 9.08289e-11 5e-05 1.46608e-10 
283 1 0.17695 0.016754 0.00743281 0.00552267 -0.000294209 0.000471373 -1.01152e-10 -9.11107e-11 1.75899e-11 5e-05 1.46608e-10 
284 1 0.182934 0.0167032 0.00754287 0.00587469 0.000477881 -1.15962e-05 -2.53699e-11 4.52221e-11 -2.43058e-11 5e-05 1.46608e-10 
288 1 0.183318 0.0176411 0.0070807 0.00569101 0.000483176 -2.18409e-05 4.1536e-11 -3.39911e-11 1.76702e-11 5e-05 1.46608e-10 
293 1 0.177207 0.0179725 0.00706357 0.00549894 -0.000450861 1.37209e-05 -5.85984e-11 -1.64712e-10 4.81282e-11 5e-05 1.46608e-10 
294 1 0.152576 0.0182562 0.00546336 5.41246e-16 -1.41315e-15 1.14578e-14 1.04108e-22 3.78694e-23 4.1359e-25 5e-05 1.46608e-10 
295 1 0.231057 0.0172953 0.00800518 0.0247012 0.0419112 -0.0112434 0 0 -1.43822e-09 5e-05 1.46608e-10 
297 1 0.189246 0.0181387 0.00692999 0.00574222 0.000154242 3.09568e-05 1.22793e-10 4.88166e-11 -1.72035e-10 5e-05 1.46608e-10 
300 1 0.188991 0.0166308 0.00772648 0.00609983 7.3613e-05 0.000216868 -4.22e-11 -1.61519e-11 1.40501e-11 5e-05 1.46608e-10 
