ITEM: TIMESTEP
3000000
ITEM: NUMBER OF ATOMS
284
ITEM: BOX BOUNDS ff ff ff
-0.02 0.43
-0.02 0.06
-0.02 0.07
ITEM: ATOMS id type x y z vx vy vz fx fy fz radius mass 
1 1 0.0303183 0.0162982 0.00784123 0.00586917 0.000412835 -6.99336e-05 -1.62958e-10 5.39039e-11 -4.06524e-11 5e-05 1.46608e-10 
2 1 0.0306427 0.0168751 0.00736845 0.00582169 0.000382991 -0.000287548 4.67558e-11 1.03764e-10 -3.65825e-11 5e-05 1.46608e-10 
3 1 0.0243561 0.0164428 0.00772777 0.00563902 -0.000412667 0.000258486 -7.86788e-12 1.77122e-12 1.8898e-12 5e-05 1.46608e-10 
4 1 0.0307055 0.0175992 0.00715955 0.00569633 0.000352155 -0.000345663 1.2651e-11 -1.24779e-10 2.27088e-11 5e-05 1.46608e-10 
5 1 0.0302026 0.0162028 0.00792822 0.00626674 0.000354096 1.18061e-05 -3.10789e-11 4.3929e-11 -6.48625e-11 5e-05 1.46608e-10 
6 1 0.0363426 0.0167623 0.00755573 0.00572773 -0.000221249 -4.60143e-05 8.05521e-11 6.26853e-11 -3.77874e-11 5e-05 1.46608e-10 
7 1 0.0304331 0.0167312 0.00744312 0.00588602 0.000359252 -0.000171798 -2.26911e-10 1.61738e-10 -6.97888e-11 5e-05 1.46608e-10 
8 1 0.0301504 0.0159213 0.00820119 0.00619916 0.000290851 6.93954e-05 3.66393e-11 -9.90369e-11 1.5307e-10 5e-05 1.46608e-10 
9 1 0.0365758 0.0178098 0.00701872 0.00565824 -0.000187144 7.14802e-06 1.0713e-10 -8.00462e-11 6.80504e-11 5e-05 1.46608e-10 
10 1 0.0303758 0.0168771 0.00737565 0.00575873 0.000346245 -1.29962e-05 -5.87716e-11 1.32626e-10 -4.55215e-11 5e-05 1.46608e-10 
11 1 0.0304938 0.0170057 0.00734109 0.0057573 0.00030227 -0.000372185 1.3135e-10 1.22135e-10 1.00715e-10 5e-05 1.46608e-10 
12 1 0.0305721 0.0173812 0.00722785 0.0056674 0.000135699 -0.0010864 1.56167e-11 -1.14416e-10 -6.04457e-10 5e-05 1.46608e-10 
13 1 0.0302805 0.0164851 0.00765587 0.00590196 0.000420551 -7.43801e-05 1.52871e-10 -6.93921e-11 1.10122e-10 5e-05 1.46608e-10 
14 1 0.0240712 0.0157073 0.00826846 0.00616343 -0.000482835 0.000429702 2.93234e-11 -1.28925e-10 -1.49358e-10 5e-05 1.46608e-10 
15 1 0.0304751 0.0173485 0.00724073 0.00563067 0.000361781 -0.000345595 -8.01935e-11 7.07547e-11 -9.23451e-11 5e-05 1.46608e-10 
16 1 0.0240495 0.0156308 0.00832909 0.00617618 -0.000390437 0.000556445 3.70624e-11 1.60398e-11 -5.99634e-11 5e-05 1.46608e-10 
17 1 0.0303368 0.0167014 0.00745595 0.00572249 0.000150665 -0.000832707 -8.17582e-11 -3.13549e-10 -6.06852e-10 5e-05 1.46608e-10 
18 1 0.0364806 0.0173734 0.00724346 0.00547778 -0.000191556 1.24483e-05 1.0521e-11 2.84196e-11 3.70973e-12 5e-05 1.46608e-10 
19 1 0.0301591 0.0160621 0.00806361 0.00621818 0.000307783 5.39768e-05 6.6568e-12 -4.41414e-12 1.23232e-11 5e-05 1.46608e-10 
20 1 0.0306472 0.0173168 0.00724232 0.00564238 0.000357081 -0.000343053 5.52958e-11 -1.48608e-10 6.42884e-11 5e-05 1.46608e-10 
21 1 0.0301809 0.0161324 0.00799592 0.00623399 0.000331837 3.00231e-05 -1.3548e-10 9.08132e-11 -4.75045e-11 5e-05 1.46608e-10 
22 1 0.0305333 0.0171934 0.00728443 0.00563792 0.000355034 -0.000327678 -1.35475e-10 4.47637e-11 -2.54973e-10 5e-05 1.46608e-10 
23 1 0.0244161 0.0170637 0.00730586 0.00563358 -0.000413902 0.000216093 3.40158e-11 2.72609e-11 -9.48705e-11 5e-05 1.46608e-10 
24 1 0.0365567 0.0177225 0.00706366 0.00561921 -0.000190686 8.03606e-06 -2.02984e-11 -6.51359e-11 1.45592e-11 5e-05 1.46608e-10 
25 1 0.0304535 0.0168194 0.00740074 0.00583658 0.000330361 -0.000250452 -1.58007e-10 1.32033e-10 9.04787e-12 5e-05 1.46608e-10 
26 1 0.0364227 0.0171117 0.00737824 0.00554687 -0.000201777 4.8627e-06 -2.15045e-10 -7.77051e-11 1.66213e-11 5e-05 1.46608e-10 
27 1 0.0243399 0.016736 0.00752063 0.00572579 -0.000406493 0.000269458 -9.33842e-11 -2.4464e-11 -2.43693e-11 5e-05 1.46608e-10 
28 1 0.0302996 0.0165558 0.00758771 0.00592878 0.000411579 -6.4551e-05 2.47503e-11 7.10355e-12 1.84615e-11 5e-05 1.46608e-10 
29 1 0.0303383 0.0163687 0.00777323 0.00589306 0.00041861 -7.4036e-05 2.6769e-10 2.16249e-11 1.62188e-11 5e-05 1.46608e-10 
30 1 0.0307613 0.0174409 0.00720213 0.0056658 0.000341281 -0.000341274 1.46214e-10 1.04581e-10 -6.89776e-11 5e-05 1.46608e-10 
31 1 0.0304556 0.0172544 0.00726832 0.0056136 0.000343544 -0.000339849 5.36188e-11 9.80396e-11 -1.06768e-10 5e-05 1.46608e-10 
32 1 0.0305137 0.0170995 0.00731266 0.00578192 0.000315055 -0.000328248 1.02582e-11 1.31097e-10 -3.33668e-11 5e-05 1.46608e-10 
33 1 0.0363631 0.0168496 0.00751146 0.00573688 -0.000226157 -4.39398e-05 -3.33381e-11 -7.0452e-11 3.94996e-11 5e-05 1.46608e-10 
34 1 0.0303556 0.0167806 0.00739779 0.00579884 0.000658055 -8.65132e-05 -4.2436e-11 -6.93108e-12 6.86346e-11 5e-05 1.46608e-10 
36 1 0.0366008 0.0178958 0.00697431 0.00566742 -0.000180066 2.08198e-05 -2.30099e-10 -1.20094e-10 -8.06976e-11 5e-05 1.46608e-10 
37 1 0.0303959 0.016972 0.00735114 0.00575959 0.000286448 -0.000328124 3.62046e-11 -1.27321e-10 1.83747e-11 5e-05 1.46608e-10 
38 1 0.0305527 0.0172874 0.00725659 0.00564401 0.00036109 -0.000337146 -1.09236e-11 5.8597e-11 -1.84638e-10 5e-05 1.46608e-10 
39 1 0.0365379 0.0176352 0.00710862 0.00555306 -0.00019015 9.54492e-06 -3.03938e-11 6.69125e-12 9.15461e-12 5e-05 1.46608e-10 
41 1 0.0302234 0.0162732 0.00786036 0.00584837 0.000425039 -8.35191e-05 -2.86448e-10 9.37931e-11 -1.13242e-10 5e-05 1.46608e-10 
42 1 0.0304361 0.0171602 0.00729591 0.00577928 0.000323082 -0.00033169 4.14694e-11 1.61391e-10 -1.80713e-11 5e-05 1.46608e-10 
44 1 0.0306278 0.0172227 0.0072699 0.00564573 0.000351524 -0.000338898 -1.07162e-10 -1.44681e-10 -3.10173e-11 5e-05 1.46608e-10 
45 1 0.0364031 0.0170244 0.00742287 0.00552751 -0.000201027 -3.88225e-05 -4.55447e-11 -4.4683e-11 1.36924e-10 5e-05 1.46608e-10 
46 1 0.0364616 0.0172861 0.00728841 0.00547517 -0.000195771 1.43587e-05 6.98475e-10 -8.47077e-11 1.3293e-11 5e-05 1.46608e-10 
47 1 0.0302615 0.0164145 0.00772403 0.0058528 0.000435785 -9.06573e-05 3.20971e-11 -1.06001e-10 1.41892e-10 5e-05 1.46608e-10 
48 1 0.0306082 0.0171284 0.00729754 0.00576523 0.000378909 -0.00035268 1.8447e-11 -4.09004e-11 -9.32456e-11 5e-05 1.46608e-10 
49 1 0.0364422 0.0171989 0.00733333 0.00558913 -0.000206337 1.88025e-05 -1.33808e-10 1.33571e-10 -6.37258e-11 5e-05 1.46608e-10 
50 1 0.0306304 0.0176635 0.00714452 0.00568277 0.000347415 -0.00034343 3.41893e-11 -6.52202e-11 2.11518e-11 5e-05 1.46608e-10 
51 1 0.0306109 0.0175693 0.00717211 0.00569012 0.000347802 -0.000344867 -2.24781e-10 5.75241e-11 1.87738e-12 5e-05 1.46608e-10 
52 1 0.0307677 0.0183221 0.00695142 0.0058368 0.000284424 -0.000332295 -1.21025e-10 6.38082e-12 1.81645e-12 5e-05 1.46608e-10 
53 1 0.0364997 0.0174607 0.00719851 0.00550342 -0.000195227 1.19798e-05 1.00489e-11 3.12195e-11 -1.17937e-11 5e-05 1.46608e-10 
54 1 0.0302977 0.0162276 0.00790932 0.00586445 0.000428385 -8.61042e-05 -2.54009e-10 2.48158e-10 -2.67886e-10 5e-05 1.46608e-10 
55 1 0.0241146 0.0158634 0.00815113 0.00613871 -0.000437185 0.000456506 1.7877e-11 -1.13046e-10 4.7927e-11 5e-05 1.46608e-10 
56 1 0.030416 0.017066 0.00732356 0.00576835 0.000316235 -0.000338442 -2.08144e-11 -9.47368e-11 3.04384e-11 5e-05 1.46608e-10 
57 1 0.0363835 0.016937 0.00746719 0.00551111 -0.000188629 -5.78366e-05 -3.73322e-11 -2.40637e-11 3.11772e-11 5e-05 1.46608e-10 
59 1 0.030548 0.0168456 0.00738088 0.00584264 0.000418722 -6.84599e-05 1.12874e-10 -9.96103e-11 -1.85522e-10 5e-05 1.46608e-10 
60 1 0.0305685 0.0169401 0.00735276 0.00577983 0.000323883 -0.00033927 1.21308e-10 1.0587e-10 5.90656e-11 5e-05 1.46608e-10 
61 1 0.0302426 0.0163438 0.00779223 0.00586426 0.000432829 -8.85951e-05 -2.12268e-10 -5.46515e-11 2.10459e-11 5e-05 1.46608e-10 
62 1 0.0306667 0.0174109 0.00721473 0.00565963 0.000357558 -0.0003462 1.36969e-11 -9.62281e-11 4.14005e-11 5e-05 1.46608e-10 
63 1 0.0305884 0.0170342 0.00732517 0.00578574 0.000321763 -0.000340849 -4.67752e-11 9.54463e-11 5.46859e-11 5e-05 1.46608e-10 
64 1 0.0365187 0.017548 0.00715356 0.00552612 -0.000194292 1.18205e-05 -4.00615e-11 3.81131e-11 -1.78182e-11 5e-05 1.46608e-10 
65 1 0.0243786 0.0168972 0.00740884 0.00563684 -0.000387334 0.000263539 9.6993e-11 1.28669e-11 -2.25856e-11 5e-05 1.46608e-10 
66 1 0.0243966 0.0166034 0.00761403 0.00573222 -0.000411952 0.000257848 2.61183e-11 9.46093e-11 -6.86742e-11 5e-05 1.46608e-10 
67 1 0.0307028 0.0171583 0.00728497 0.00573793 0.000448331 -0.000368382 1.25834e-10 -6.85508e-11 -3.31169e-11 5e-05 1.46608e-10 
68 1 0.0305914 0.0174752 0.0071997 0.00563813 0.000366999 -0.00034586 -9.59798e-11 5.92777e-11 -1.68776e-11 5e-05 1.46608e-10 
69 1 0.0304737 0.0169108 0.00736551 0.00578862 0.000300604 -0.000344186 9.74399e-12 7.58925e-11 -1.78398e-11 5e-05 1.46608e-10 
70 1 0.0305142 0.0175372 0.00718542 0.00562246 0.000356511 -0.000343734 -1.26539e-11 6.62488e-11 -1.45167e-11 5e-05 1.46608e-10 
71 1 0.0240928 0.0157853 0.00820966 0.00615205 -0.000448746 0.000457553 -1.15327e-11 -4.64075e-11 5.15366e-11 5e-05 1.46608e-10 
72 1 0.030686 0.0175051 0.00718714 0.00568181 0.000354928 -0.000345943 -1.807e-11 -1.06512e-10 3.01927e-11 5e-05 1.46608e-10 
73 1 0.0303186 0.0166264 0.0075195 0.00569797 0.000596028 -0.000255115 5.89595e-10 4.6065e-11 2.18456e-10 5e-05 1.46608e-10 
74 1 0.0308364 0.0173767 0.00721716 0.00565132 0.000334998 -0.000337743 -2.14069e-11 -1.71272e-10 4.48243e-11 5e-05 1.46608e-10 
76 1 0.0249724 0.0174573 0.00721049 0.00547812 -0.000338069 7.99321e-05 4.26455e-12 3.05312e-11 -5.22255e-12 5e-05 1.46608e-10 
77 1 0.0307537 0.0186707 0.0068821 0.00627495 0.000225305 -0.000245445 9.64119e-11 -7.13928e-11 -3.42237e-10 5e-05 1.46608e-10 
78 1 0.0242002 0.0161765 0.00791748 0.00586437 -0.000418848 0.000345785 9.0549e-11 3.49829e-11 8.31523e-11 5e-05 1.46608e-10 
79 1 0.0244357 0.0171542 0.00726816 0.00549127 -0.000413309 0.000143593 1.88913e-11 9.71827e-12 -1.04202e-10 5e-05 1.46608e-10 
80 1 0.0306126 0.0180086 0.00704721 0.00567159 0.000304308 -0.000330965 2.11954e-10 6.26435e-10 -1.85088e-10 5e-05 1.46608e-10 
81 1 0.02436 0.0168162 0.00746442 0.00569632 -0.000397244 0.00027005 -6.72365e-11 -2.08512e-11 -3.07907e-11 5e-05 1.46608e-10 
82 1 0.0243966 0.0169763 0.00735038 0.00563829 -0.000399502 0.000247401 1.55181e-10 3.72536e-11 -2.52865e-11 5e-05 1.46608e-10 
83 1 0.0243003 0.016576 0.00763395 0.00568118 -0.000409971 0.00025607 -5.18829e-11 -2.00568e-11 1.6427e-11 5e-05 1.46608e-10 
84 1 0.0366141 0.0179862 0.00693361 0.00572003 -0.000160621 5.44226e-05 1.64096e-10 7.86867e-11 -1.43622e-10 5e-05 1.46608e-10 
85 1 0.0300966 0.0158596 0.00825862 0.00620918 0.000289992 6.8458e-05 -1.11308e-11 -8.69496e-11 7.63816e-11 5e-05 1.46608e-10 
86 1 0.0306695 0.0178517 0.00708935 0.00569408 0.000356398 -0.000346655 -8.08046e-11 1.94805e-11 -5.67276e-12 5e-05 1.46608e-10 
87 1 0.0306227 0.016781 0.0073961 0.00589452 0.000505361 5.26497e-05 3.52473e-10 -3.28563e-11 -2.89262e-11 5e-05 1.46608e-10 
88 1 0.0306914 0.0183852 0.00693678 0.00577907 0.000299235 -0.000333726 -2.34281e-10 9.92673e-11 -4.49734e-11 5e-05 1.46608e-10 
89 1 0.0307086 0.0180399 0.00703417 0.00567481 0.000313701 -0.000333504 1.01135e-10 -3.3324e-11 -4.7086e-12 5e-05 1.46608e-10 
90 1 0.0307808 0.017535 0.00717454 0.00567124 0.000335894 -0.000339523 -2.99349e-11 -1.75753e-10 4.58926e-11 5e-05 1.46608e-10 
91 1 0.0305339 0.0176315 0.00715776 0.00565872 0.000318106 -0.000334403 -1.95273e-11 1.24183e-10 -3.615e-11 5e-05 1.46608e-10 
92 1 0.0308003 0.0176291 0.00714696 0.00572594 0.000334298 -0.000341895 4.0615e-12 -1.90319e-10 6.0075e-11 5e-05 1.46608e-10 
93 1 0.0309338 0.0178472 0.00707923 0.00571714 0.000356296 -0.000347594 9.40206e-11 -1.06525e-10 2.64094e-11 5e-05 1.46608e-10 
94 1 0.030689 0.0179458 0.00706176 0.00569247 0.000326705 -0.000338315 8.66092e-11 1.49965e-10 -4.37317e-11 5e-05 1.46608e-10 
95 1 0.0305929 0.0179144 0.00707483 0.00570234 0.000421028 -0.00036575 -1.75366e-11 5.11372e-11 -1.15397e-11 5e-05 1.46608e-10 
96 1 0.0307642 0.0178815 0.00707679 0.00570325 0.00033351 -0.000340752 1.11712e-11 4.17112e-11 -1.1161e-11 5e-05 1.46608e-10 
97 1 0.0245501 0.0172804 0.00723588 0.00546072 -0.000434743 9.50311e-05 -3.23643e-11 9.78818e-11 -2.00233e-11 5e-05 1.46608e-10 
98 1 0.030732 0.0185731 0.00688163 0.00627117 0.000214824 -0.00033651 -1.71884e-10 -1.33581e-10 2.53143e-10 5e-05 1.46608e-10 
99 1 0.0244554 0.0172484 0.00724114 0.00546311 -0.000422969 9.76491e-05 7.9325e-12 -1.78446e-11 -5.01877e-11 5e-05 1.46608e-10 
100 1 0.0308559 0.0174708 0.00718957 0.00566962 0.000341964 -0.000341759 -4.45319e-11 -1.14524e-10 4.52551e-11 5e-05 1.46608e-10 
101 1 0.0244167 0.0166834 0.0075573 0.0057331 -0.000408292 0.000255463 -6.19974e-11 1.83472e-11 -1.84677e-11 5e-05 1.46608e-10 
102 1 0.0694385 0.0202053 0.00537268 4.0007e-15 4.4214e-15 -7.6827e-14 2.00721e-22 2.82663e-23 1.19941e-23 5e-05 1.46608e-10 
104 1 0.0245092 0.0170865 0.00727183 0.00553011 -0.000373334 0.000233973 -1.07876e-11 2.26327e-11 -3.81875e-11 5e-05 1.46608e-10 
105 1 0.0242597 0.0164162 0.00774715 0.00564014 -0.00040556 0.000253066 -1.52343e-12 -2.42459e-11 1.85849e-11 5e-05 1.46608e-10 
106 1 0.0246802 0.0175148 0.00720008 0.005479 -0.000450124 9.73463e-05 1.18766e-10 -6.42411e-11 1.41254e-11 5e-05 1.46608e-10 
107 1 0.0242199 0.0162563 0.00786043 0.00563376 -0.000410594 0.000259781 -4.11679e-11 -9.59045e-12 2.78569e-11 5e-05 1.46608e-10 
108 1 0.0304134 0.0166523 0.00750131 0.00585999 0.000422854 -9.93147e-05 -2.74873e-10 1.8614e-10 -1.22516e-10 5e-05 1.46608e-10 
109 1 0.0305536 0.0177258 0.00713013 0.00566148 0.000324878 -0.000336378 5.11225e-11 7.63604e-11 -2.36108e-11 5e-05 1.46608e-10 
110 1 0.0307282 0.018134 0.00700659 0.00567589 0.000316739 -0.000334574 -8.17321e-11 1.04322e-11 3.52093e-12 5e-05 1.46608e-10 
111 1 0.0308272 0.0186043 0.00686866 0.00624681 0.000246259 -0.000331177 3.30709e-10 -2.27604e-10 -1.43106e-10 5e-05 1.46608e-10 
112 1 0.02432 0.016656 0.00757727 0.00572331 -0.000415333 0.000261994 -3.71317e-11 -2.3145e-11 8.98178e-12 5e-05 1.46608e-10 
113 1 0.0246247 0.0172144 0.00724655 0.00547447 -0.000379263 7.45869e-05 2.78796e-13 6.58782e-11 1.42077e-11 5e-05 1.46608e-10 
115 1 0.0305733 0.0178202 0.00710244 0.00567732 0.000379442 -0.000352621 -1.17202e-10 -3.86353e-10 1.13845e-10 5e-05 1.46608e-10 
116 1 0.0305269 0.016752 0.00740902 0.00585179 0.000293813 -0.00039552 -7.82144e-11 -4.26586e-12 9.86692e-12 5e-05 1.46608e-10 
117 1 0.0304895 0.0166071 0.00754821 0.00593704 0.000413888 -6.76252e-05 -2.43966e-10 7.29068e-11 5.90554e-12 5e-05 1.46608e-10 
118 1 0.0241577 0.0160196 0.00803397 0.00611186 -0.000430669 0.000444985 -5.62269e-11 -3.11436e-11 4.27832e-11 5e-05 1.46608e-10 
119 1 0.0307418 0.0173467 0.00722975 0.00564423 0.000340157 -0.000341297 -9.83969e-11 1.67353e-12 2.9744e-12 5e-05 1.46608e-10 
120 1 0.0301378 0.0159917 0.00813138 0.00620403 0.000294374 6.32709e-05 2.40197e-10 -1.26949e-10 5.72917e-11 5e-05 1.46608e-10 
121 1 0.0302547 0.0160864 0.00804526 0.00626695 0.000350306 1.29549e-05 -2.39627e-10 9.68824e-11 -1.19752e-10 5e-05 1.46608e-10 
122 1 0.0307838 0.0179756 0.0070492 0.00568632 0.000320052 -0.000335832 2.18172e-10 1.13783e-10 -3.76812e-11 5e-05 1.46608e-10 
123 1 0.0242801 0.0164961 0.00769055 0.00564854 -0.000404401 0.000252513 -6.9329e-11 -2.55416e-11 1.7482e-11 5e-05 1.46608e-10 
124 1 0.0306323 0.0181028 0.00701959 0.00566587 0.000287013 -0.000325751 -1.34345e-10 -4.93785e-10 1.42824e-10 5e-05 1.46608e-10 
125 1 0.0302764 0.0161567 0.00797754 0.00625137 0.00033202 3.13832e-05 -1.02577e-10 8.42713e-11 -1.00594e-10 5e-05 1.46608e-10 
126 1 0.0304947 0.0174428 0.00721309 0.00559878 0.000244462 -0.000308463 -1.01793e-11 -1.03024e-10 8.41255e-12 5e-05 1.46608e-10 
127 1 0.024377 0.0165233 0.00767074 0.00567308 -0.000413016 0.000258473 -1.25177e-10 1.08001e-11 -3.58962e-12 5e-05 1.46608e-10 
128 1 0.0307251 0.0176933 0.00713196 0.00571633 0.000343893 -0.00034379 4.32094e-11 -6.22606e-11 1.28427e-11 5e-05 1.46608e-10 
129 1 0.0307478 0.0182281 0.006979 0.00568853 0.000311291 -0.00033373 -3.86842e-11 2.08743e-11 1.36563e-12 5e-05 1.46608e-10 
131 1 0.0245301 0.0171825 0.00725117 0.00547294 -0.000378174 9.03884e-05 2.97148e-11 3.0332e-11 -4.09446e-11 5e-05 1.46608e-10 
132 1 0.0307446 0.0177874 0.00710437 0.00570703 0.00034264 -0.000343331 -1.45683e-11 1.50229e-11 3.86144e-12 5e-05 1.46608e-10 
133 1 0.0303576 0.0164394 0.0077051 0.00592722 0.000419656 -7.38609e-05 1.02231e-10 -2.86233e-11 -5.97974e-11 5e-05 1.46608e-10 
134 1 0.0306831 0.0170639 0.00731266 0.00578297 0.000383492 -0.000355535 -2.34692e-11 3.28049e-11 -6.6063e-11 5e-05 1.46608e-10 
135 1 0.030452 0.0164657 0.00768467 0.00596855 0.000428679 -8.09654e-05 -1.18779e-10 1.08177e-10 -1.0944e-10 5e-05 1.46608e-10 
136 1 0.0241793 0.0160978 0.00797541 0.00611021 -0.000422271 0.000443435 1.07351e-10 2.92075e-11 2.12476e-11 5e-05 1.46608e-10 
137 1 0.0307754 0.0187683 0.0068857 0.00630259 0.000209976 0.000491976 4.36467e-11 -2.69052e-11 -6.44072e-11 5e-05 1.46608e-10 
138 1 0.030862 0.0179149 0.00706309 0.0056983 0.000333308 -0.000340319 2.93477e-10 1.41968e-10 -5.61904e-11 5e-05 1.46608e-10 
140 1 0.0306499 0.0177576 0.00711694 0.00567032 0.000359904 -0.000346769 -6.89448e-12 -1.03552e-10 3.08721e-11 5e-05 1.46608e-10 
141 1 0.0243357 0.0163629 0.00778437 0.00563083 -0.000411464 0.000258522 4.25155e-11 1.82366e-11 -1.65766e-11 5e-05 1.46608e-10 
142 1 0.0244558 0.0168435 0.00744393 0.00567971 -0.000389791 0.000242188 -1.68831e-10 -7.18365e-12 -7.21245e-12 5e-05 1.46608e-10 
143 1 0.0242403 0.0163361 0.00780385 0.00563741 -0.00040821 0.00025567 3.53222e-11 -2.414e-11 2.45267e-11 5e-05 1.46608e-10 
146 1 0.0245143 0.0167115 0.0075369 0.00565945 -0.000387606 0.000240485 1.91373e-10 -4.36647e-11 2.8416e-11 5e-05 1.46608e-10 
147 1 0.024136 0.0159415 0.00809253 0.00612866 -0.000434302 0.000451148 -6.65998e-11 -9.73679e-11 5.90774e-11 5e-05 1.46608e-10 
148 1 0.021773 0.0169501 0.00821831 1.63281e-05 -0.0113724 0.00719467 2.48298e-13 1.53266e-10 -9.64938e-11 5e-05 1.46608e-10 
149 1 0.0306716 0.0182911 0.00696436 0.00567854 0.000303614 -0.00033064 -1.76112e-11 4.45824e-11 -1.08239e-11 5e-05 1.46608e-10 
150 1 0.0244368 0.0167634 0.00750068 0.00569477 -0.000397702 0.000246129 -1.08417e-10 1.6059e-11 -2.06544e-11 5e-05 1.46608e-10 
151 1 0.0248174 0.0172236 0.00724605 0.00547182 -0.000354461 8.28495e-05 -4.3493e-11 1.32751e-10 -1.34436e-11 5e-05 1.46608e-10 
153 1 0.0244941 0.0166316 0.00759351 0.00573867 -0.000400827 0.000248623 -1.56211e-10 5.16762e-13 1.39307e-12 5e-05 1.46608e-10 
154 1 0.0246562 0.0177768 0.00715922 0.00543198 -0.000426977 9.36865e-05 1.16805e-11 1.22096e-10 -1.48814e-11 5e-05 1.46608e-10 
155 1 0.0188298 0.0186016 0.00689732 0.0057312 -0.00222618 0.000563399 -7.79375e-11 7.5575e-11 -8.3099e-12 5e-05 1.46608e-10 
156 1 0.0245329 0.0176361 0.00718048 0.00547116 -0.000430959 9.34286e-05 -2.44585e-11 1.83156e-12 8.67416e-13 5e-05 1.46608e-10 
157 1 0.0247229 0.0180744 0.00711329 0.00577016 -0.000576255 0.000118433 -7.96662e-11 -3.06176e-11 2.94728e-12 5e-05 1.46608e-10 
158 1 0.0247404 0.0173418 0.00722728 0.00546123 -0.000365902 8.43179e-05 -5.80818e-11 4.87038e-11 -1.10708e-11 5e-05 1.46608e-10 
159 1 0.0308392 0.0178172 0.00709183 0.00571592 0.000344191 -0.000344184 -1.23358e-11 6.61832e-11 -1.98163e-11 5e-05 1.46608e-10 
160 1 0.0246128 0.0180234 0.00712066 0.0057775 -0.000509362 0.000108067 1.07161e-12 -2.2169e-11 1.51229e-11 5e-05 1.46608e-10 
162 1 0.0245696 0.0173773 0.00722091 0.00547178 -0.000436133 9.53418e-05 7.11279e-11 1.02113e-10 -2.26199e-11 5e-05 1.46608e-10 
163 1 0.0248379 0.0173203 0.00723111 0.00546776 -0.000358709 8.32018e-05 -6.28271e-11 4.81352e-11 -4.64489e-12 5e-05 1.46608e-10 
164 1 0.0249307 0.0181655 0.00710016 0.00579471 -0.000631814 0.000126647 3.45609e-11 -2.48723e-11 4.95859e-13 5e-05 1.46608e-10 
165 1 0.0246641 0.0169804 0.00734591 0.00562507 -0.000347529 0.000212463 4.88861e-11 -3.3416e-11 2.42092e-11 5e-05 1.46608e-10 
166 1 0.0300531 0.0157189 0.00839401 0.00620711 0.000307929 5.19257e-05 -1.01049e-11 -5.77876e-12 3.62039e-12 5e-05 1.46608e-10 
167 1 0.0245332 0.0167916 0.00748014 0.00567266 -0.000391163 0.000243081 -4.49505e-11 2.52974e-11 -1.75199e-11 5e-05 1.46608e-10 
168 1 0.0246757 0.0178737 0.00714425 0.0054196 -0.000430055 9.35754e-05 6.59722e-11 2.97038e-10 -3.55871e-11 5e-05 1.46608e-10 
169 1 0.0248112 0.0176532 0.00717923 0.00548933 -0.000409972 9.11795e-05 2.20342e-11 -6.23168e-10 9.69218e-11 5e-05 1.46608e-10 
170 1 0.0247604 0.0178212 0.00715284 0.0054034 -0.000444967 9.60973e-05 -9.03706e-11 -1.23532e-10 1.99372e-11 5e-05 1.46608e-10 
171 1 0.0304705 0.0165364 0.00761638 0.00595155 0.00041193 -6.64141e-05 -1.07766e-10 2.21856e-11 9.48921e-12 5e-05 1.46608e-10 
172 1 0.0248977 0.0176036 0.00718736 0.00542734 -0.000369389 8.45487e-05 1.00301e-10 5.72431e-11 -8.40155e-12 5e-05 1.46608e-10 
173 1 0.0306632 0.0169696 0.00734031 0.00578936 0.000342433 -0.000349265 -7.99192e-11 -2.65329e-10 1.78894e-10 5e-05 1.46608e-10 
174 1 0.0246342 0.01812 0.00710576 0.00580431 -0.000523524 0.000109963 1.41766e-10 1.77669e-10 -3.16549e-11 5e-05 1.46608e-10 
175 1 0.0214011 0.0172579 0.00720662 0.00544855 -0.00115247 0.000378195 5.35455e-13 -1.21988e-13 5.14538e-14 5e-05 1.46608e-10 
176 1 0.0245136 0.0175392 0.00719546 0.00547615 -0.000432031 9.44352e-05 1.04553e-12 6.43515e-12 -4.81527e-12 5e-05 1.46608e-10 
177 1 0.024954 0.0178711 0.00714606 0.00544329 -0.000726986 0.000140253 1.98038e-10 -5.73707e-12 2.32256e-12 5e-05 1.46608e-10 
178 1 0.0248849 0.0175056 0.00720254 0.00545493 -0.000366584 8.42786e-05 -6.13768e-12 2.8182e-11 -5.47073e-12 5e-05 1.46608e-10 
179 1 0.0187551 0.0186667 0.00688406 0.00576078 -0.0022085 0.000560762 -7.43468e-12 3.76492e-11 7.02844e-11 5e-05 1.46608e-10 
180 1 0.0247886 0.0174284 0.00721406 0.00545225 -0.000367836 8.4405e-05 -1.91627e-11 -3.25782e-11 9.30213e-12 5e-05 1.46608e-10 
181 1 0.0247224 0.0177028 0.00717107 0.00546718 -0.0003837 8.69257e-05 -1.77199e-10 -1.36854e-10 2.35633e-11 5e-05 1.46608e-10 
182 1 0.0305861 0.0166344 0.00752691 0.00591828 0.000404841 -6.76427e-05 2.66496e-10 9.76438e-11 -1.15807e-10 5e-05 1.46608e-10 
183 1 0.0248299 0.0177502 0.00716422 0.0054254 -0.000417976 9.21677e-05 5.89273e-11 -3.72437e-10 5.64647e-11 5e-05 1.46608e-10 
184 1 0.0308082 0.01851 0.00689627 0.00628424 0.000211843 -0.00033001 -1.42898e-10 -1.87761e-11 -9.90136e-12 5e-05 1.46608e-10 
185 1 0.0245536 0.0177328 0.00716555 0.00544885 -0.000432179 9.4356e-05 -3.56786e-11 -8.97503e-12 2.84386e-12 5e-05 1.46608e-10 
186 1 0.024589 0.0174742 0.00720593 0.00547789 -0.00043476 9.51467e-05 8.12092e-11 5.1373e-11 -1.01635e-11 5e-05 1.46608e-10 
187 1 0.0306026 0.0167053 0.00745836 0.00592424 0.000432799 -3.08689e-05 1.36757e-10 -9.57537e-11 1.21269e-12 5e-05 1.46608e-10 
188 1 0.0308033 0.0180697 0.00702161 0.00567124 0.000311482 -0.000333019 1.59416e-11 1.66659e-10 -4.79708e-11 5e-05 1.46608e-10 
189 1 0.0303762 0.0165102 0.00763702 0.00594683 0.000421087 -7.13128e-05 -1.06879e-10 2.62018e-12 -8.96139e-11 5e-05 1.46608e-10 
190 1 0.0249849 0.0175553 0.0071953 0.00544546 -0.000329409 7.84804e-05 5.51883e-11 -5.06838e-11 8.26964e-12 5e-05 1.46608e-10 
191 1 0.0307969 0.0188636 0.00690673 0.00627477 0.000229354 0.000481298 -2.08848e-12 -1.01663e-10 -6.85373e-11 5e-05 1.46608e-10 
192 1 0.0246247 0.017597 0.00718703 0.00548029 -0.00044378 9.63918e-05 -2.19443e-11 -1.51636e-11 4.65663e-12 5e-05 1.46608e-10 
193 1 0.0307182 0.016812 0.00738675 0.00583215 0.000481441 5.97324e-05 1.73629e-11 6.55913e-12 -2.75508e-11 5e-05 1.46608e-10 
194 1 0.0244734 0.0169238 0.00738704 0.00565689 -0.000382283 0.000238724 5.61722e-11 -5.47753e-11 2.16837e-11 5e-05 1.46608e-10 
195 1 0.0247812 0.0179179 0.00713791 0.00578132 -0.000511322 0.000108328 -1.83216e-11 -7.09894e-11 9.15479e-12 5e-05 1.46608e-10 
196 1 0.0240284 0.0155781 0.00841141 0.00614158 -0.000388491 0.000548396 -7.23269e-11 2.22864e-11 -3.89686e-11 5e-05 1.46608e-10 
197 1 0.0246555 0.0182165 0.00709085 0.00581709 -0.0005408 0.000113263 6.90741e-11 5.89448e-11 -5.21641e-12 5e-05 1.46608e-10 
198 1 0.0244746 0.0173453 0.00722541 0.00547038 -0.000429485 9.21982e-05 4.61102e-12 -1.41017e-11 -1.87326e-11 5e-05 1.46608e-10 
199 1 0.0245915 0.0179269 0.00713557 0.00542632 -0.000431002 9.41968e-05 -2.7959e-10 -9.70757e-11 3.6316e-11 5e-05 1.46608e-10 
200 1 0.0244934 0.0170068 0.00733401 0.00563739 -0.000405175 0.000237979 8.54531e-11 2.99812e-11 -5.94341e-11 5e-05 1.46608e-10 
201 1 0.0250104 0.0185198 0.00703321 0.00591166 -0.000653332 -6.07223e-05 4.74197e-11 2.76545e-11 7.4746e-12 5e-05 1.46608e-10 
203 1 0.0306974 0.0167262 0.00743365 0.00590823 0.000153138 -0.000493507 1.76742e-10 2.19424e-11 -1.11823e-10 5e-05 1.46608e-10 
204 1 0.0245864 0.0170344 0.00730819 0.00554075 -0.000366251 0.000226428 8.35156e-13 5.26782e-11 -3.84814e-11 5e-05 1.46608e-10 
205 1 0.0246769 0.0183131 0.00707594 0.00584407 -0.00055327 0.000115266 -7.62973e-11 -9.27429e-11 1.022e-11 5e-05 1.46608e-10 
206 1 0.0247009 0.0179766 0.00712838 0.00576581 -0.000526152 0.000110412 -5.29758e-12 -8.14826e-12 7.6641e-12 5e-05 1.46608e-10 
207 1 0.0244742 0.0165516 0.00765016 0.00576261 -0.000386886 0.000239551 -7.22751e-12 7.64179e-11 -5.48411e-11 5e-05 1.46608e-10 
208 1 0.024572 0.01783 0.00715054 0.00543055 -0.000436996 9.55676e-05 -1.5526e-11 -2.07007e-11 8.88938e-12 5e-05 1.46608e-10 
209 1 0.0187766 0.0187637 0.00687282 0.00578131 -0.00220796 0.000554769 -4.70215e-11 4.07506e-11 -4.35469e-11 5e-05 1.46608e-10 
210 1 0.0300752 0.0157892 0.00832638 0.00621425 0.000298805 6.15608e-05 -5.42963e-11 -4.05334e-11 2.76039e-11 5e-05 1.46608e-10 
211 1 0.0307879 0.0184161 0.00692384 0.0061391 0.000229887 -0.000329584 -2.52445e-10 3.18325e-12 -2.49839e-12 5e-05 1.46608e-10 
212 1 0.0248864 0.0174068 0.00721791 0.00547743 -0.000361641 8.3597e-05 4.34284e-11 -3.56369e-11 5.77286e-12 5e-05 1.46608e-10 
213 1 0.0307382 0.0169051 0.00735539 0.00574516 0.000296212 -0.000334956 2.41533e-11 -1.62155e-10 7.30056e-12 5e-05 1.46608e-10 
214 1 0.0306519 0.018197 0.00699197 0.00568829 0.000347558 -0.000343974 -7.3186e-11 -9.95172e-11 3.47813e-11 5e-05 1.46608e-10 
215 1 0.0246643 0.0174093 0.00721641 0.00547453 -0.000438472 9.55022e-05 6.25046e-11 6.75186e-11 -5.55242e-12 5e-05 1.46608e-10 
216 1 0.0247198 0.0172451 0.00724222 0.00547084 -0.000368072 8.32905e-05 -3.96375e-11 7.64987e-11 -1.73769e-11 5e-05 1.46608e-10 
217 1 0.030509 0.0166777 0.00748013 0.00591126 0.000419638 -6.4469e-05 -1.05019e-10 1.43318e-10 6.01467e-11 5e-05 1.46608e-10 
218 1 0.0248361 0.0181331 0.00710472 0.00578621 -0.000559806 0.000116142 -6.98441e-11 -4.55487e-11 8.6125e-12 5e-05 1.46608e-10 
219 1 0.0307115 0.0184792 0.0069092 0.00624013 0.000221213 -0.00033136 -4.97125e-12 -2.43645e-11 -6.30722e-11 5e-05 1.46608e-10 
220 1 0.0246448 0.0173121 0.00723142 0.00546147 -0.000457213 9.84358e-05 2.56956e-11 1.08714e-10 -1.55716e-12 5e-05 1.46608e-10 
221 1 0.0186109 0.01799 0.00698974 0.00523403 -0.00207207 0.000521372 1.46225e-11 -9.45887e-11 -7.97449e-11 5e-05 1.46608e-10 
222 1 0.0303945 0.0165808 0.00756858 0.00592179 0.000431268 -7.39899e-05 -4.87808e-11 1.33694e-10 -7.26131e-11 5e-05 1.46608e-10 
223 1 0.0247244 0.017604 0.00718644 0.00548021 -0.000374684 8.55445e-05 -9.87457e-11 -2.63798e-10 3.80773e-11 5e-05 1.46608e-10 
224 1 0.0244942 0.0174422 0.00721044 0.00547689 -0.000431376 9.37703e-05 4.19895e-11 -3.22323e-11 -1.39326e-11 5e-05 1.46608e-10 
225 1 0.0307778 0.017094 0.00730002 0.0057374 0.000453029 -0.000376125 8.31824e-11 5.17657e-11 6.11882e-11 5e-05 1.46608e-10 
226 1 0.0246936 0.0171428 0.007258 0.00548908 -0.000367915 9.04381e-05 7.27838e-12 2.3246e-11 -2.5174e-11 5e-05 1.46608e-10 
227 1 0.0186701 0.0182806 0.00694427 0.00556989 -0.00214181 0.000543546 8.85341e-11 5.71041e-11 -9.89714e-12 5e-05 1.46608e-10 
228 1 0.0507861 0.0189683 0.00558458 -5.35419e-15 -1.91053e-14 -2.87013e-13 -1.30737e-22 -2.85636e-23 4.3427e-24 5e-05 1.46608e-10 
229 1 0.0242959 0.0162033 0.00789806 0.00562707 -0.000344992 0.000372219 -3.63953e-12 -5.93491e-11 6.24235e-11 5e-05 1.46608e-10 
230 1 0.0247338 0.0185707 0.0070323 0.00591848 -0.000587696 -6.28043e-05 -1.195e-11 -1.13672e-10 -2.10544e-10 5e-05 1.46608e-10 
231 1 0.197479 0.018695 0.00523156 -1.10107e-15 -2.69835e-14 1.45243e-13 -1.08383e-22 7.75482e-25 -4.1359e-25 5e-05 1.46608e-10 
232 1 0.0243163 0.0162829 0.00784107 0.00562786 -0.000414742 0.000257721 5.53527e-11 -4.75184e-11 -4.53495e-11 5e-05 1.46608e-10 
233 1 0.0245704 0.016952 0.00736657 0.00564997 -0.000391529 0.000243744 6.49859e-11 -6.97387e-12 -4.60093e-13 5e-05 1.46608e-10 
234 1 0.0300097 0.0155783 0.00852941 0.00620296 0.000315108 4.42417e-05 1.18276e-10 1.98065e-10 -1.89708e-10 5e-05 1.46608e-10 
235 1 0.024894 0.0188896 0.006968 0.00601668 -0.000636142 -6.76235e-05 6.83292e-12 -1.48168e-10 2.77709e-11 5e-05 1.46608e-10 
236 1 0.0249509 0.0186661 0.00700782 0.00594 -0.000615721 -6.879e-05 2.22235e-10 -1.04009e-10 1.53913e-11 5e-05 1.46608e-10 
237 1 0.0248633 0.0187138 0.00700166 0.00594762 -0.000615821 -6.92231e-05 1.73155e-10 -3.94963e-12 -2.05432e-12 5e-05 1.46608e-10 
238 1 0.0187979 0.0188596 0.006854 0.00582235 -0.00220495 0.000565754 6.29223e-12 7.03315e-11 -3.16927e-11 5e-05 1.46608e-10 
239 1 0.0185136 0.0175351 0.00716438 0.0051806 -0.00200248 0.000789492 7.24613e-11 -1.43826e-11 -1.38084e-11 5e-05 1.46608e-10 
240 1 0.0185915 0.0178931 0.00700528 0.00525082 -0.00207853 0.000512136 -1.25213e-11 -2.53798e-10 -6.95783e-10 5e-05 1.46608e-10 
241 1 0.018533 0.0176235 0.00712186 0.00519725 -0.00199582 0.000785654 -1.16098e-10 2.19766e-11 -1.10514e-11 5e-05 1.46608e-10 
242 1 0.0188082 0.0185049 0.00691238 0.00572058 -0.00222323 0.000562543 -8.28015e-11 -7.32904e-11 4.15616e-12 5e-05 1.46608e-10 
243 1 0.0184942 0.0174467 0.00720691 0.00512302 -0.00199894 0.000789732 -6.10367e-12 9.05724e-12 -5.23756e-12 5e-05 1.46608e-10 
244 1 0.0185527 0.0177118 0.00707935 0.00522531 -0.00199308 0.000783335 2.28391e-11 3.10149e-11 -3.21358e-11 5e-05 1.46608e-10 
245 1 0.0188195 0.018957 0.00684731 0.005803 -0.00228108 -0.000646823 -4.09484e-11 4.59858e-12 1.10263e-10 5e-05 1.46608e-10 
246 1 0.0186304 0.0180869 0.00697457 0.00521314 -0.00207065 0.000519517 5.22188e-12 -4.60416e-11 -2.86283e-12 5e-05 1.46608e-10 