ITEM: TIMESTEP
24200000
ITEM: NUMBER OF ATOMS
215
ITEM: BOX BOUNDS ff ff ff
-0.02 0.43
-0.02 0.06
-0.02 0.07
ITEM: ATOMS id type x y z vx vy vz fx fy fz radius mass 
1 1 0.154068 0.016484 0.00762535 0.00588048 -0.000198596 -0.000411132 4.4302e-12 1.01819e-09 2.17982e-10 5e-05 1.46608e-10 
2 1 0.154161 0.0177445 0.00742176 0.00576072 -0.000294699 -0.00028224 9.03343e-13 -2.16309e-11 4.64624e-13 5e-05 1.46608e-10 
3 1 0.142272 0.018172 0.00711457 0.00605246 -8.25532e-05 -0.000283079 2.46159e-12 1.22081e-11 -3.58929e-12 5e-05 1.46608e-10 
4 1 0.15394 0.016369 0.00782923 0.00556625 -0.000347173 -0.000101403 3.57904e-11 2.77018e-11 -6.83679e-11 5e-05 1.46608e-10 
5 1 0.154053 0.0164331 0.00771009 0.00565664 -0.000151988 -0.000476249 -1.7927e-10 2.70624e-11 -3.24307e-10 5e-05 1.46608e-10 
6 1 0.159946 0.01675 0.00752611 0.00547693 -0.000755068 9.12785e-05 3.72329e-12 1.2332e-11 -6.17008e-12 5e-05 1.46608e-10 
7 1 0.153686 0.0159293 0.00851536 0.006474 -5.84014e-05 0.000279584 4.05211e-10 -9.05864e-11 1.23794e-10 5e-05 1.46608e-10 
8 1 0.153929 0.0163264 0.00791909 0.00566846 -0.000351377 -9.69256e-05 1.40389e-10 -4.22942e-10 -1.83709e-10 5e-05 1.46608e-10 
9 1 0.160155 0.0176503 0.00715345 0.00601451 -0.000660116 0.00056823 -4.99872e-11 2.05981e-12 -9.49543e-12 5e-05 1.46608e-10 
10 1 0.153709 0.0159824 0.00843373 0.00675723 -9.36096e-05 0.000333557 2.99507e-11 -9.6128e-11 3.77256e-11 5e-05 1.46608e-10 
11 1 0.153731 0.0160356 0.008352 0.00686577 -0.000114911 0.000360297 -3.32792e-10 5.6687e-11 -6.74845e-11 5e-05 1.46608e-10 
13 1 0.154118 0.0175484 0.00743938 0.00580415 -0.000344872 -0.000284653 2.59057e-11 3.84064e-11 -2.35971e-10 5e-05 1.46608e-10 
15 1 0.153837 0.0162995 0.00794632 0.00561454 1.64862e-05 0.000156193 2.5365e-10 6.8178e-11 -3.19263e-10 5e-05 1.46608e-10 
17 1 0.154023 0.0171134 0.00756537 0.00599175 -8.90563e-05 -0.000324013 4.24274e-10 3.15512e-10 -2.91927e-11 5e-05 1.46608e-10 
18 1 0.160261 0.0176948 0.00714751 0.00601749 -0.000662186 0.000568889 5.50874e-12 3.20827e-12 2.63063e-12 5e-05 1.46608e-10 
19 1 0.153533 0.0155569 0.00908788 0.00568265 -9.43677e-05 0.000310594 -2.34004e-11 -6.9903e-11 1.10428e-10 5e-05 1.46608e-10 
20 1 0.154315 0.0176165 0.00742367 0.00577303 -0.00028272 -0.000279661 -6.72104e-11 -1.49804e-10 8.07093e-11 5e-05 1.46608e-10 
21 1 0.153555 0.0156101 0.00900606 0.00568481 -7.5557e-05 0.000281716 -4.29731e-11 -1.27735e-10 1.94837e-10 5e-05 1.46608e-10 
22 1 0.153775 0.016142 0.00818839 0.00608304 -2.56651e-05 0.000211514 2.96069e-10 1.44497e-10 -2.45546e-10 5e-05 1.46608e-10 
23 1 0.148417 0.0188688 0.00681725 0.00549912 -0.00121701 0.00055752 -1.70501e-10 5.68373e-10 -6.07071e-10 5e-05 1.46608e-10 
24 1 0.160133 0.017556 0.00717887 0.00600897 -0.000661485 0.000568205 3.63499e-13 -4.00389e-11 7.53234e-12 5e-05 1.46608e-10 
25 1 0.154115 0.0170984 0.00747077 0.00578094 -0.000472577 -0.000711325 9.9588e-11 -2.64172e-10 -1.6297e-10 5e-05 1.46608e-10 
26 1 0.160026 0.0171024 0.00735458 0.00591094 -0.000846686 0.000114575 1.07068e-10 -1.18735e-11 -1.03122e-11 5e-05 1.46608e-10 
28 1 0.15424 0.0176831 0.0074224 0.00576428 -0.000292626 -0.000280895 -2.58025e-11 -1.0586e-10 -3.82761e-11 5e-05 1.46608e-10 
29 1 0.154087 0.0165777 0.00759602 0.00537861 -7.45865e-05 -7.03631e-05 -8.98098e-10 2.13915e-10 3.51422e-11 5e-05 1.46608e-10 
30 1 0.15414 0.0176466 0.00743056 0.00578413 -0.000305036 -0.000281259 2.66245e-11 -1.77672e-10 -1.04418e-11 5e-05 1.46608e-10 
31 1 0.153834 0.0162452 0.00803024 0.00574044 1.91233e-05 0.000151496 -3.03579e-11 1.2107e-10 -4.86672e-10 5e-05 1.46608e-10 
32 1 0.154032 0.0167081 0.0074984 0.00559294 -0.000375776 -0.00065323 -2.32901e-11 9.86755e-10 -3.77761e-10 5e-05 1.46608e-10 
33 1 0.159966 0.0168381 0.00748321 0.00546831 -0.000749771 8.91887e-05 3.20455e-12 1.0057e-11 -5.49265e-12 5e-05 1.46608e-10 
34 1 0.15401 0.0170576 0.00748348 0.00596363 -0.000140527 -0.000307786 4.93077e-11 3.27979e-10 -8.73004e-11 5e-05 1.46608e-10 
36 1 0.160177 0.0177445 0.00712803 0.0060181 -0.000662691 0.000569334 2.28049e-11 3.06493e-11 -4.25968e-12 5e-05 1.46608e-10 
37 1 0.154006 0.0162815 0.0079647 0.00587123 -0.000236477 -0.000329673 1.57776e-10 2.3561e-11 -1.16679e-10 5e-05 1.46608e-10 
38 1 0.154021 0.0163321 0.00787974 0.00540312 -7.69908e-05 -0.000538279 -9.57322e-10 -1.88875e-10 4.84263e-10 5e-05 1.46608e-10 
39 1 0.160112 0.0174618 0.00720428 0.006007 -0.00066314 0.000568554 3.49003e-11 -2.13008e-11 7.68787e-12 5e-05 1.46608e-10 
41 1 0.153598 0.0157165 0.0088424 0.00568879 -3.41862e-05 0.000218231 -4.78952e-11 -1.0608e-10 1.7656e-10 5e-05 1.46608e-10 
42 1 0.153755 0.0160886 0.00827055 0.00657989 -7.51614e-05 0.000299504 4.65715e-11 5.2585e-11 -1.25178e-10 5e-05 1.46608e-10 
44 1 0.154179 0.0176965 0.00750759 0.00577232 -0.000281467 -0.000280944 3.92548e-12 -6.06149e-11 -6.01895e-11 5e-05 1.46608e-10 
45 1 0.160005 0.0170144 0.00739744 0.00567902 -0.000796114 0.000101421 8.08239e-11 -7.06053e-11 3.21219e-11 5e-05 1.46608e-10 
47 1 0.153642 0.015823 0.00867876 0.00578143 -5.4417e-06 0.000175725 -3.20958e-10 2.94318e-11 -4.74951e-11 5e-05 1.46608e-10 
49 1 0.160047 0.0171902 0.00731176 0.00594023 -0.000854276 0.000114365 -7.34908e-11 -2.75783e-11 -6.99482e-11 5e-05 1.46608e-10 
50 1 0.154252 0.0173238 0.00744457 0.00590802 -0.00038789 -0.000766314 5.23933e-11 -2.22182e-10 -8.2464e-10 5e-05 1.46608e-10 
51 1 0.148534 0.0194185 0.00702112 0.00299204 -0.011462 -0.00492336 1.37962e-12 -6.82882e-13 -3.35526e-13 5e-05 1.46608e-10 
52 1 0.154388 0.0175488 0.00741898 0.00574997 -0.000266203 -0.000688595 -5.36037e-11 -8.9667e-12 -1.96485e-11 5e-05 1.46608e-10 
53 1 0.160068 0.0172784 0.00726956 0.00597084 -0.000854829 0.00011973 2.25993e-11 1.04839e-11 -6.90659e-11 5e-05 1.46608e-10 
54 1 0.154315 0.0171575 0.0074436 0.00564715 -0.000342089 -0.000672478 -5.20598e-10 8.41987e-11 1.88253e-11 5e-05 1.46608e-10 
55 1 0.148403 0.0187874 0.00687372 0.00553644 -0.0012607 0.000534981 -1.07927e-10 7.32277e-10 -9.0671e-10 5e-05 1.46608e-10 
56 1 0.15407 0.0169038 0.00748347 0.00574782 -0.000457358 -0.000684469 -2.59385e-10 4.40083e-10 1.57736e-10 5e-05 1.46608e-10 
57 1 0.159985 0.0169263 0.00744031 0.00545428 -0.000747478 8.89105e-05 -3.89866e-12 -5.02129e-11 2.77425e-11 5e-05 1.46608e-10 
59 1 0.154168 0.0169347 0.00747042 0.00567713 -0.000527304 -0.0006633 1.23732e-10 -1.97804e-10 -5.9615e-11 5e-05 1.46608e-10 
60 1 0.154284 0.0170628 0.00745118 0.00578099 -0.000418006 -0.000678201 -4.24742e-10 8.1483e-11 -1.18776e-10 5e-05 1.46608e-10 
61 1 0.15362 0.0157698 0.00876058 0.00570248 -1.37819e-05 0.000187927 -6.58722e-11 -4.02678e-11 6.84201e-11 5e-05 1.46608e-10 
62 1 0.154112 0.0175625 0.0075923 0.00560249 -0.000306694 -0.000385731 4.06332e-11 3.96454e-11 -8.3705e-11 5e-05 1.46608e-10 
63 1 0.153878 0.0164623 0.00769849 0.0056702 -3.76407e-05 0.000194436 -2.0528e-10 -2.01496e-10 -3.54238e-10 5e-05 1.46608e-10 
64 1 0.16009 0.0173675 0.0072297 0.00600665 -0.000663713 0.000568195 1.95673e-11 1.90432e-11 -1.82457e-11 5e-05 1.46608e-10 
65 1 0.148147 0.0176292 0.00724617 0.00577947 -0.00127132 0.000551814 -1.47299e-12 -4.71288e-11 1.58244e-11 5e-05 1.46608e-10 
66 1 0.14806 0.0172602 0.00737375 0.00574972 -0.00125626 0.000545952 5.02466e-12 1.43128e-11 -4.85488e-12 5e-05 1.46608e-10 
67 1 0.154226 0.0180385 0.00739534 0.00567574 -0.000356729 -0.000271045 6.32655e-12 3.5522e-11 -2.67639e-12 5e-05 1.46608e-10 
69 1 0.154111 0.0166571 0.00753968 0.00510807 -0.000129801 -0.000330609 -3.34356e-10 1.32746e-10 -2.05321e-10 5e-05 1.46608e-10 
70 1 0.154381 0.0170827 0.00743857 0.00577117 -0.000259087 -0.000689373 -5.0552e-10 -7.48831e-12 4.84191e-11 5e-05 1.46608e-10 
72 1 0.154039 0.0163823 0.00779514 0.00540081 -7.83249e-05 -0.000523335 3.82092e-10 -5.91062e-11 1.28107e-10 5e-05 1.46608e-10 
73 1 0.153914 0.0165697 0.00753369 0.00566444 -5.33734e-05 0.000249149 1.77699e-10 1.08475e-10 -4.90518e-11 5e-05 1.46608e-10 
74 1 0.154321 0.0180683 0.00738799 0.00567174 -0.000351313 -0.000271779 -1.28431e-11 1.55619e-11 1.51206e-12 5e-05 1.46608e-10 
76 1 0.145405 0.0205718 0.00539992 7.41273e-15 9.13256e-15 -2.35015e-13 9.65539e-23 -7.49956e-23 -2.06795e-25 5e-05 1.46608e-10 
77 1 0.154282 0.0178779 0.00740495 0.00573317 -0.00029147 -0.000279765 1.6345e-11 1.31098e-11 -2.64876e-12 5e-05 1.46608e-10 
78 1 0.148347 0.0181101 0.00716891 0.00582639 -0.00130936 0.000556694 4.06564e-11 4.53668e-10 1.78644e-11 5e-05 1.46608e-10 
80 1 0.154248 0.0181358 0.0073866 0.00566023 -0.000360274 -0.000270668 -3.12716e-12 2.30248e-11 2.58865e-15 5e-05 1.46608e-10 
81 1 0.148358 0.0181357 0.00707279 0.00582486 -0.00126757 0.0005535 -1.86625e-10 1.91822e-11 -2.56429e-10 5e-05 1.46608e-10 
82 1 0.14831 0.0179375 0.00714127 0.00581528 -0.00127863 0.000555173 -5.99915e-11 7.87291e-12 4.71664e-12 5e-05 1.46608e-10 
84 1 0.160198 0.0178388 0.00710262 0.00602063 -0.000664487 0.00056965 -1.1938e-11 1.02262e-11 -5.4702e-12 5e-05 1.46608e-10 
85 1 0.153576 0.0156633 0.00892423 0.00568813 -5.53071e-05 0.000250459 -9.59982e-11 -1.44359e-10 2.19855e-10 5e-05 1.46608e-10 
86 1 0.154178 0.0173908 0.00744861 0.00587437 -0.000384945 -0.000423621 3.10222e-10 -1.65512e-10 -4.49326e-11 5e-05 1.46608e-10 
87 1 0.154053 0.0172536 0.00746587 0.00585 -0.000374419 -0.000279679 -1.54038e-10 -2.51927e-11 -6.58566e-11 5e-05 1.46608e-10 
88 1 0.154272 0.0174216 0.00743888 0.00584913 -0.000366035 -0.000652571 1.51223e-10 -2.81804e-10 -3.41832e-10 5e-05 1.46608e-10 
90 1 0.154189 0.0170321 0.00746452 0.00577858 -0.000514557 -0.000689861 1.17208e-10 -1.21283e-10 -2.29158e-11 5e-05 1.46608e-10 
91 1 0.153987 0.0168162 0.0075843 0.0075691 -0.000570553 -0.00126845 -3.65881e-10 1.94159e-09 -2.12102e-09 5e-05 1.46608e-10 
92 1 0.154294 0.0175191 0.00743168 0.00578989 -0.000327024 -0.000575216 1.15901e-10 -3.00577e-10 -4.26365e-11 5e-05 1.46608e-10 
93 1 0.16022 0.017933 0.0070772 0.00602408 -0.000664447 0.000569929 3.09691e-12 -4.49038e-12 5.86026e-12 5e-05 1.46608e-10 
94 1 0.154148 0.0168369 0.00747676 0.00563203 -0.000540509 -0.000675873 4.93953e-11 -1.06638e-10 -2.40519e-10 5e-05 1.46608e-10 
95 1 0.153932 0.016667 0.00751933 0.00560672 -6.45727e-05 -9.61034e-05 -5.22942e-10 1.31641e-10 9.50412e-10 5e-05 1.46608e-10 
96 1 0.15395 0.0167646 0.00750692 0.00574983 -0.000164924 -0.000690003 -6.41153e-10 2.91817e-10 -6.88696e-10 5e-05 1.46608e-10 
98 1 0.154126 0.0167397 0.00748529 0.00560537 -0.000521702 -0.000735888 2.18715e-10 -2.47491e-11 6.89367e-11 5e-05 1.46608e-10 
99 1 0.14846 0.0181727 0.00706172 0.00541476 -0.00111544 0.000488944 -1.8799e-10 1.10539e-10 -3.91452e-11 5e-05 1.46608e-10 
101 1 0.14832 0.0183793 0.00698682 0.00544789 -0.00120102 0.00051654 -7.45395e-11 -2.15359e-10 8.77183e-11 5e-05 1.46608e-10 
102 1 0.0694385 0.0202053 0.00537268 4.01459e-15 4.45479e-15 -7.68245e-14 2.32477e-22 1.61145e-22 1.88184e-23 5e-05 1.46608e-10 
104 1 0.0249839 0.0195037 0.00542543 -3.58901e-15 -5.77786e-16 5.85127e-14 2.06795e-25 -2.78204e-24 0 5e-05 1.46608e-10 
106 1 0.142228 0.0179846 0.00716925 0.00605325 -8.24147e-05 -0.000283155 4.11551e-12 1.62219e-11 -4.75775e-12 5e-05 1.46608e-10 
107 1 0.148234 0.0179983 0.00711859 0.00580963 -0.00128381 0.000556138 2.89959e-11 4.80609e-11 -1.28607e-11 5e-05 1.46608e-10 
108 1 0.153947 0.0167255 0.00759901 0.00579163 0.000581209 -0.000569098 2.47112e-10 -1.93168e-09 2.34455e-09 5e-05 1.46608e-10 
110 1 0.154221 0.0167688 0.00747063 0.00562401 -0.000587432 -0.000662941 8.96574e-11 -3.9318e-10 -1.78243e-10 5e-05 1.46608e-10 
111 1 0.148399 0.0183214 0.00700852 0.00543529 -0.00119923 0.000518413 4.11362e-11 -8.08172e-11 4.23066e-11 5e-05 1.46608e-10 
112 1 0.148169 0.0177215 0.00721428 0.00578534 -0.00127856 0.000554329 -1.75527e-11 -2.04944e-11 6.70672e-12 5e-05 1.46608e-10 
115 1 0.153988 0.0169603 0.00749152 0.00598056 -0.000178238 -0.000460455 -2.33551e-10 1.66327e-10 1.97447e-10 5e-05 1.46608e-10 
116 1 0.154242 0.0168664 0.00746407 0.0055828 -0.000542016 -0.000658971 -3.59418e-11 -1.98307e-10 2.00147e-12 5e-05 1.46608e-10 
117 1 0.154209 0.0171299 0.00745751 0.00581843 -0.000478405 -0.000690343 -3.74597e-10 -9.53544e-11 -2.28503e-11 5e-05 1.46608e-10 
118 1 0.14828 0.0181941 0.00705087 0.00579275 -0.00130293 0.000538237 -1.22134e-10 -6.04463e-10 1.23257e-10 5e-05 1.46608e-10 
119 1 0.154269 0.0182331 0.00737785 0.00563696 -0.000358985 -0.000269545 9.16104e-12 2.17245e-11 -3.22383e-12 5e-05 1.46608e-10 
120 1 0.153511 0.0155036 0.00916971 0.00568368 -0.000108519 0.000332601 -1.22706e-11 -1.35688e-11 2.01425e-11 5e-05 1.46608e-10 
121 1 0.15417 0.016576 0.00754063 0.00545672 0.000172855 9.09742e-05 -6.94049e-10 1.81837e-10 3.76245e-11 5e-05 1.46608e-10 
122 1 0.154241 0.0172245 0.00744991 0.00547578 -0.000343943 -0.00065194 -4.43227e-10 -1.977e-11 4.5563e-11 5e-05 1.46608e-10 
124 1 0.154205 0.0179412 0.00740408 0.00570409 -0.000347741 -0.000273678 2.94812e-11 6.71982e-11 -1.04306e-11 5e-05 1.46608e-10 
125 1 0.153957 0.0164197 0.00774391 0.00621013 -2.83436e-05 -0.000723086 -3.2738e-11 1.30766e-10 -2.67785e-10 5e-05 1.46608e-10 
126 1 0.153842 0.0163536 0.00786245 0.00550604 -2.30232e-06 0.000151145 2.04909e-10 7.74302e-11 -1.98677e-10 5e-05 1.46608e-10 
127 1 0.148253 0.0180755 0.00717909 0.00580914 -0.00127571 0.000551519 -9.50615e-12 1.72697e-10 -5.02128e-11 5e-05 1.46608e-10 
128 1 0.154198 0.0174884 0.00743985 0.00582935 -0.000334217 -0.000268303 -6.47261e-12 -3.27067e-11 -3.82807e-11 5e-05 1.46608e-10 
129 1 0.148557 0.0195285 0.00706625 0.00298975 -0.0113732 -0.00488608 9.26909e-13 -1.96247e-12 -8.4943e-13 5e-05 1.46608e-10 
131 1 0.148458 0.0186252 0.00690326 0.0055672 -0.00129191 0.000548225 -3.45532e-10 1.09244e-10 2.37936e-10 5e-05 1.46608e-10 
132 1 0.154031 0.0171549 0.00747474 0.00592092 -0.000136788 -0.000302686 2.77759e-10 3.18228e-10 -5.87828e-11 5e-05 1.46608e-10 
133 1 0.154362 0.0169633 0.00744568 0.00578302 -0.000541632 -0.000679091 -4.01939e-10 2.71248e-11 7.56247e-11 5e-05 1.46608e-10 
134 1 0.154142 0.0174976 0.00752214 0.00579629 -0.000354059 -0.000277919 1.71206e-10 2.54224e-11 -1.09054e-10 5e-05 1.46608e-10 
135 1 0.153897 0.0165179 0.0076175 0.00572268 -6.74661e-05 0.000220654 -2.24719e-10 -1.76087e-10 -4.7439e-10 5e-05 1.46608e-10 
136 1 0.148424 0.0180654 0.00709861 0.00581208 -0.0012822 0.000556257 -2.7262e-10 1.43378e-10 -1.41983e-11 5e-05 1.46608e-10 
137 1 0.154219 0.0175857 0.00743112 0.00579584 -0.000307683 -0.000279625 1.43314e-10 -1.21039e-10 -8.04977e-12 5e-05 1.46608e-10 
138 1 0.153969 0.0168624 0.0074975 0.00593226 -0.000202651 -0.000709738 -1.21182e-10 4.5469e-10 -9.70986e-10 5e-05 1.46608e-10 
140 1 0.154261 0.0177804 0.00741366 0.00575098 -0.000286132 -0.000280569 -3.18292e-11 -3.1942e-11 2.7214e-11 5e-05 1.46608e-10 
141 1 0.148212 0.017906 0.00715049 0.00580006 -0.00128493 0.000557079 -1.45661e-11 5.02237e-11 -9.17767e-12 5e-05 1.46608e-10 
143 1 0.393994 0.0150325 6.48596e-05 -2.1271e-21 1.6267e-21 -1.45327e-21 0 0 0 5e-05 1.46608e-10 
146 1 0.148422 0.0184198 0.00697451 0.00546442 -0.00118547 0.000514287 6.09316e-12 5.43379e-12 -1.31971e-12 5e-05 1.46608e-10 
147 1 0.148496 0.0188117 0.0068387 0.00551906 -0.00121276 0.000535462 5.80972e-11 5.48965e-10 -5.26273e-10 5e-05 1.46608e-10 
148 1 0.00854079 0.0169017 0.00825252 1.13774e-05 -0.0192539 0.0128165 6.12516e-13 5.72792e-11 -8.66073e-12 5e-05 1.46608e-10 
149 1 0.154135 0.0171961 0.00746414 0.00583204 -0.000439712 -0.00064152 -1.81429e-11 -1.42537e-10 -5.52804e-10 5e-05 1.46608e-10 
150 1 0.148038 0.0171679 0.00740565 0.00574116 -0.0012585 0.000546581 4.66314e-12 2.12411e-11 -7.41214e-12 5e-05 1.46608e-10 
151 1 0.148512 0.0189052 0.00680697 0.0050337 -0.00159784 -0.000916823 -9.4622e-10 -5.18669e-10 7.53387e-10 5e-05 1.46608e-10 
154 1 0.14848 0.0182672 0.00702902 0.00540983 -0.00121756 0.00052594 9.65557e-11 -4.65436e-11 6.82285e-12 5e-05 1.46608e-10 
155 1 0.142195 0.0174523 0.00731997 0.00605579 -8.14967e-05 -0.000283533 2.30143e-11 1.94965e-11 -6.9121e-12 5e-05 1.46608e-10 
157 1 0.148366 0.0186019 0.00693761 0.0055355 -0.00128763 0.000528967 -9.5e-11 -3.60591e-10 3.34928e-12 5e-05 1.46608e-10 
165 1 0.148539 0.0181153 0.00708327 0.00548092 -0.00102467 0.000460134 -3.49447e-10 2.11686e-10 -7.94228e-11 5e-05 1.46608e-10 
166 1 0.153791 0.0161957 0.0081057 0.00581289 -8.41767e-07 0.000175641 5.02113e-11 3.07472e-10 -3.69061e-10 5e-05 1.46608e-10 
168 1 0.187169 0.0172815 0.00801193 0.014675 0.0314173 -0.00856889 0 0 -1.43822e-09 5e-05 1.46608e-10 
171 1 0.153861 0.0164071 0.00778008 0.00556137 -3.48104e-05 0.000155446 -6.46147e-11 1.22469e-11 -1.74169e-10 5e-05 1.46608e-10 
172 1 0.148338 0.0183547 0.00708205 0.00544456 -0.00118363 0.000513662 8.33194e-12 -1.21291e-10 1.68432e-10 5e-05 1.46608e-10 
176 1 0.148125 0.017537 0.00727807 0.00577333 -0.00126247 0.000548452 -2.12847e-11 -5.10352e-11 1.66325e-11 5e-05 1.46608e-10 
177 1 0.14819 0.0178137 0.00718238 0.005793 -0.00128364 0.000556392 3.1136e-11 2.20035e-11 -5.65126e-12 5e-05 1.46608e-10 
179 1 0.141989 0.0169517 0.00746125 0.00578245 0.000136289 0.000281267 -2.25409e-10 3.71038e-11 -5.84636e-11 5e-05 1.46608e-10 
181 1 0.148104 0.0174447 0.00730996 0.00576768 -0.00125655 0.000546457 -2.06845e-12 -2.09751e-11 7.2764e-12 5e-05 1.46608e-10 
182 1 0.154015 0.0166113 0.00751699 0.00551564 -0.000147009 0.00027479 6.24249e-10 8.7542e-10 -2.97832e-10 5e-05 1.46608e-10 
184 1 0.154183 0.0178421 0.00741299 0.00574397 -0.000282564 -0.000281268 5.28366e-11 1.43853e-10 -1.85845e-11 5e-05 1.46608e-10 
187 1 0.15408 0.0172028 0.00754761 0.00614551 -0.000212858 -0.000397165 1.12923e-10 1.59696e-10 1.33363e-10 5e-05 1.46608e-10 
188 1 0.154164 0.0171456 0.00754529 0.00589294 -0.000436049 -0.000638462 -3.51525e-10 1.10353e-10 -2.47371e-10 5e-05 1.46608e-10 
189 1 0.154051 0.0168059 0.00748989 0.00569302 -0.000430643 -0.000728986 -5.1765e-10 8.20331e-10 -3.47263e-10 5e-05 1.46608e-10 
191 1 0.154074 0.0173509 0.00745713 0.00584859 -0.000341627 -0.000289251 -2.06348e-10 -2.20193e-10 1.52104e-11 5e-05 1.46608e-10 
192 1 0.145025 0.0174789 0.00770844 0.00549599 0.000231319 0.00168417 3.74985e-13 1.47309e-13 -2.91095e-14 5e-05 1.46608e-10 
193 1 0.156956 0.0170634 0.00740799 0.00589076 0.000817154 -0.000174346 1.04522e-12 1.58884e-12 -5.85404e-13 5e-05 1.46608e-10 
197 1 0.148087 0.0170859 0.00743527 0.00575115 -0.00125549 0.000545693 6.08117e-12 3.14128e-11 -1.0963e-11 5e-05 1.46608e-10 
198 1 0.148476 0.0187191 0.00687074 0.00555231 -0.00126765 0.000547999 -5.21942e-10 4.27767e-10 -1.83871e-10 5e-05 1.46608e-10 
200 1 0.148788 0.0192883 0.00695633 9.40243e-15 -9.73154e-14 2.32273e-13 -1.02053e-22 -2.58494e-24 3.10193e-24 5e-05 1.46608e-10 
201 1 0.148611 0.0189148 0.00680698 0.00510443 -0.00124335 -0.000719732 -5.80383e-10 -1.04136e-10 -5.02272e-12 5e-05 1.46608e-10 
203 1 0.154096 0.0174482 0.00744839 0.00582545 -0.000370661 -0.000293857 3.35932e-11 -2.65817e-10 -1.70248e-11 5e-05 1.46608e-10 
204 1 0.142207 0.0178909 0.00719659 0.00605372 -8.21607e-05 -0.000283256 3.04624e-12 1.47164e-11 -4.47726e-12 5e-05 1.46608e-10 
206 1 0.14225 0.0180783 0.00714191 0.00605281 -8.25743e-05 -0.000283096 2.98492e-12 1.48109e-11 -4.2107e-12 5e-05 1.46608e-10 
207 1 0.060646 0.0186723 0.00546139 1.16249e-15 5.18593e-15 3.71388e-14 1.49603e-23 -3.10193e-24 0 5e-05 1.46608e-10 
208 1 0.148437 0.0189651 0.00683511 0.00554316 -0.000967495 -0.000640344 6.15222e-11 4.22984e-10 -1.03719e-09 5e-05 1.46608e-10 
209 1 0.142011 0.0170475 0.00744239 0.00605942 6.07717e-05 0.000209338 -4.45272e-12 6.80478e-12 -6.75917e-11 5e-05 1.46608e-10 
210 1 0.154163 0.0164937 0.00759702 0.00588452 -0.000167955 -0.000397986 -6.69127e-11 9.02757e-11 -2.72737e-10 5e-05 1.46608e-10 
211 1 0.148581 0.0196319 0.00710865 0.00290784 -0.0110829 -0.00476114 1.02776e-12 -1.88729e-12 -8.42514e-13 5e-05 1.46608e-10 
212 1 0.148301 0.0182865 0.00701895 0.00540137 -0.00118593 0.000519048 -9.39881e-11 -1.71959e-10 1.69332e-10 5e-05 1.46608e-10 
213 1 0.154068 0.0173089 0.00754772 0.00598681 -0.000363097 -0.00030552 1.34128e-10 4.12409e-10 -1.20018e-10 5e-05 1.46608e-10 
214 1 0.154335 0.0172552 0.0074372 0.00576782 -0.000333522 -0.000691291 -4.23855e-10 -7.30478e-11 9.17406e-11 5e-05 1.46608e-10 
217 1 0.153975 0.0164718 0.00766035 0.00563953 -0.00216007 -0.00183811 -4.971e-10 1.39534e-10 -7.87934e-10 5e-05 1.46608e-10 
218 1 0.154346 0.0173544 0.00743187 0.00591982 -0.000313321 -0.000712958 3.90259e-11 -2.87831e-10 9.52626e-11 5e-05 1.46608e-10 
221 1 0.141893 0.0165125 0.00764369 0.00565309 -0.000168711 -0.000145603 -9.20119e-12 6.66575e-12 -3.30237e-11 5e-05 1.46608e-10 
222 1 0.153664 0.0158762 0.00859702 0.00606545 -2.16663e-05 0.000209526 -1.55481e-10 1.82986e-11 -1.23223e-11 5e-05 1.46608e-10 
223 1 0.162931 0.0169353 0.00744116 0.00542756 -0.00104571 0.000172168 -7.69992e-14 4.89556e-13 -9.09685e-14 5e-05 1.46608e-10 
225 1 0.154157 0.0172935 0.00745794 0.00593683 -0.00043792 -0.0005443 5.98987e-10 -2.48092e-10 -5.23763e-10 5e-05 1.46608e-10 
226 1 0.148384 0.018693 0.00690068 0.00555564 -0.0013065 0.000493893 -7.76758e-11 3.29029e-10 3.19195e-10 5e-05 1.46608e-10 
227 1 0.141949 0.0167596 0.00749922 0.00563077 0.000170343 0.00026248 3.56344e-12 -3.18819e-12 -4.81702e-12 5e-05 1.46608e-10 
228 1 0.0507861 0.0189683 0.00558458 -5.35646e-15 -1.91116e-14 -2.87013e-13 -5.29832e-22 8.856e-23 4.54949e-24 5e-05 1.46608e-10 
231 1 0.197479 0.018695 0.00523156 -1.09583e-15 -2.69835e-14 1.45243e-13 1.54308e-22 -1.03398e-23 -6.20385e-25 5e-05 1.46608e-10 
232 1 0.189081 0.0184947 0.00541361 -2.16173e-15 1.31178e-15 5.80687e-14 6.69241e-23 8.74614e-23 4.1359e-25 5e-05 1.46608e-10 
234 1 0.154262 0.0169641 0.00745772 0.00575597 -0.000571959 -0.000681306 -3.4253e-10 -2.0946e-10 1.54984e-10 5e-05 1.46608e-10 
235 1 0.194679 0.0184196 0.00544868 1.5112e-14 9.62836e-14 2.34546e-13 2.94812e-22 -2.313e-22 6.90696e-23 5e-05 1.46608e-10 
238 1 0.142033 0.0171413 0.00741531 0.00604742 -6.37686e-05 -0.000228949 3.66123e-11 3.10191e-11 7.12319e-11 5e-05 1.46608e-10 
239 1 0.141797 0.0161921 0.00801467 0.0054728 -0.000253621 -0.000298913 2.96972e-11 -4.78493e-12 9.72045e-14 5e-05 1.46608e-10 
240 1 0.141872 0.0164417 0.00771131 0.00561315 -0.000282925 -0.000278636 4.67926e-11 9.75752e-12 -7.17325e-12 5e-05 1.46608e-10 
241 1 0.141816 0.0162545 0.00793882 0.00551093 -0.000261538 -0.000293777 1.37289e-11 -1.9106e-11 1.91861e-11 5e-05 1.46608e-10 
242 1 0.142174 0.0173585 0.00734736 0.00605863 -7.93878e-05 -0.000284336 -1.38934e-12 -1.75828e-12 2.12311e-13 5e-05 1.46608e-10 
243 1 0.141778 0.0161298 0.0080905 0.00544399 -0.000249623 -0.000300558 4.97763e-11 5.59695e-12 -1.38406e-11 5e-05 1.46608e-10 
244 1 0.141836 0.0163168 0.00786309 0.00554061 -0.000267966 -0.000289324 -6.34928e-11 -1.29307e-11 2.23989e-11 5e-05 1.46608e-10 
245 1 0.142054 0.017235 0.00738796 0.00605645 -8.06932e-05 -0.000283143 -8.95303e-12 -7.76953e-12 -2.05586e-11 5e-05 1.46608e-10 
246 1 0.141915 0.0165908 0.00758551 0.00566909 4.56771e-05 0.000146022 -1.95578e-11 2.30126e-11 -1.7837e-11 5e-05 1.46608e-10 
248 1 0.148082 0.0173524 0.00734186 0.00575951 -0.00125475 0.000545613 -1.30881e-12 1.0293e-13 7.157e-13 5e-05 1.46608e-10 
249 1 0.142098 0.0174224 0.00733329 0.00605611 -8.16879e-05 -0.000283654 8.25245e-12 1.46594e-11 -4.46959e-12 5e-05 1.46608e-10 
250 1 0.149358 0.0150633 0.0139937 0.00427437 0.00533268 0.00546363 1.51897e-10 -9.12336e-10 -6.98994e-10 5e-05 1.46608e-10 
251 1 0.154092 0.0170012 0.00747691 0.00580719 -0.000481939 -0.000703102 1.98987e-10 -6.66054e-11 1.48099e-10 5e-05 1.46608e-10 
252 1 0.142076 0.0173287 0.00736062 0.00605722 -8.09519e-05 -0.000283566 9.73639e-12 1.3626e-11 8.00952e-13 5e-05 1.46608e-10 
254 1 0.115915 0.0175196 0.0079151 0.0256845 0.0269505 -0.0100276 -2.20484e-10 -8.43773e-11 -4.459e-11 5e-05 1.46608e-10 
255 1 0.148339 0.0184721 0.00695468 0.00547764 -0.00122192 0.000524862 -7.51901e-11 -2.51053e-10 1.16433e-10 5e-05 1.46608e-10 
256 1 0.15797 0.0167443 0.00835787 4.30248e-05 0.00659799 -0.00577063 3.51343e-13 2.36271e-10 -2.28725e-10 5e-05 1.46608e-10 
257 1 0.148425 0.0185211 0.00693911 0.00552683 -0.00129489 0.000561038 1.3441e-10 -6.05129e-10 1.97421e-10 5e-05 1.46608e-10 
258 1 0.14832 0.0182608 0.00711384 0.00543159 -0.00117335 0.000533406 6.99576e-10 6.10038e-10 4.84385e-10 5e-05 1.46608e-10 
259 1 0.14212 0.0175161 0.00730595 0.00605522 -8.22659e-05 -0.000283253 6.44795e-12 1.00093e-11 -4.32448e-12 5e-05 1.46608e-10 
260 1 0.148513 0.018381 0.00698978 0.00584781 -0.000327763 0.000223039 -3.88112e-11 9.27347e-11 -4.38098e-11 5e-05 1.46608e-10 
261 1 0.148515 0.0184817 0.00695455 0.00595897 -0.000409936 0.000255651 1.09871e-10 -1.25569e-10 9.23573e-11 5e-05 1.46608e-10 
262 1 0.148615 0.0184732 0.00695938 0.00615663 0.00147675 -0.000403211 -1.3293e-10 3.7169e-11 1.86452e-11 5e-05 1.46608e-10 
263 1 0.142129 0.0171703 0.00740229 0.00605609 -8.15964e-05 -0.000282775 8.3279e-12 -3.51772e-11 5.56393e-12 5e-05 1.46608e-10 
265 1 0.148613 0.0183788 0.00699238 0.00588517 0.00151704 -0.000422433 -1.05774e-10 6.67007e-11 -1.7994e-11 5e-05 1.46608e-10 
270 1 0.154164 0.017597 0.0075139 0.00576688 -0.000334618 -0.000290735 1.47837e-10 -1.92792e-10 -2.77466e-11 5e-05 1.46608e-10 
271 1 0.204092 0.0169512 0.00821343 -4.76415e-06 -0.0179118 0.0115799 -1.46847e-13 8.80092e-11 -3.1615e-11 5e-05 1.46608e-10 
272 1 0.142163 0.0177035 0.00725127 0.00605454 -8.21448e-05 -0.00028328 1.64406e-12 6.06391e-12 -2.47461e-12 5e-05 1.46608e-10 
273 1 0.121859 0.017814 0.00780161 1.36205e-10 -0.0228501 0.00766079 1.77917e-18 6.9545e-12 2.07111e-11 5e-05 1.46608e-10 
274 1 0.142141 0.0176098 0.00727861 0.00605485 -8.23521e-05 -0.000283281 1.91735e-12 5.96841e-12 -1.09598e-12 5e-05 1.46608e-10 
275 1 0.148595 0.0188208 0.00683733 0.00546366 -0.000957051 0.0004601 1.47782e-09 -3.60248e-10 -1.49547e-11 5e-05 1.46608e-10 
276 1 0.14838 0.0182284 0.00704073 0.00540291 -0.00116033 0.000506132 9.67721e-12 1.08965e-11 3.04734e-11 5e-05 1.46608e-10 
277 1 0.148258 0.0181019 0.00708277 0.00582148 -0.00127826 0.000549662 -4.84429e-11 -1.68189e-10 -1.45591e-11 5e-05 1.46608e-10 
279 1 0.142151 0.017264 0.00737495 0.00605585 -8.25356e-05 -0.000283209 1.10123e-12 1.90201e-12 1.7699e-12 5e-05 1.46608e-10 
280 1 0.141968 0.0168559 0.00748012 0.00558989 0.000176962 0.000264344 -1.18931e-10 4.13201e-12 -3.06747e-11 5e-05 1.46608e-10 
282 1 0.141931 0.0166631 0.00751836 0.0056714 0.000165643 0.000271283 -1.20455e-11 1.23004e-11 -9.65781e-12 5e-05 1.46608e-10 
283 1 0.141854 0.0163793 0.00778717 0.00558973 -0.00027814 -0.000282735 8.95706e-11 -2.51127e-11 2.42264e-11 5e-05 1.46608e-10 
284 1 0.148327 0.0180336 0.00710792 0.00581819 -0.0012753 0.000546556 -9.71644e-11 8.76353e-12 5.21394e-11 5e-05 1.46608e-10 
288 1 0.148403 0.017973 0.00713055 0.00580954 -0.00128549 0.000553884 -1.4719e-10 6.97402e-12 -4.28356e-11 5e-05 1.46608e-10 
293 1 0.142185 0.0177972 0.00722393 0.00605415 -8.20472e-05 -0.000283311 2.84129e-12 1.02125e-11 -2.51014e-12 5e-05 1.46608e-10 
294 1 0.152576 0.0182562 0.00546336 5.38467e-16 -1.41484e-15 1.14577e-14 2.71936e-23 6.5218e-23 5.58347e-24 5e-05 1.46608e-10 
295 1 0.16508 0.0183805 0.00765125 0.00473972 -0.00993905 0.000919067 -2.22254e-10 -3.2575e-10 7.25513e-11 5e-05 1.46608e-10 
297 1 0.154336 0.0177138 0.00741493 0.00575433 -0.000273344 -0.000282872 -9.63571e-11 -1.23278e-10 6.50076e-13 5e-05 1.46608e-10 
299 1 0.132657 0.0157783 0.00812954 6.4409e-06 -0.02056 0.0199794 3.91903e-12 2.30633e-10 -5.55664e-10 5e-05 1.46608e-10 
300 1 0.153996 0.0165385 0.00758264 0.00556522 -0.000259896 0.000117211 4.07871e-10 1.03927e-09 -5.06557e-10 5e-05 1.46608e-10 
