ITEM: TIMESTEP
9400000
ITEM: NUMBER OF ATOMS
284
ITEM: BOX BOUNDS ff ff ff
-0.02 0.43
-0.02 0.06
-0.02 0.07
ITEM: ATOMS id type x y z vx vy vz fx fy fz radius mass 
1 1 0.0676051 0.0162697 0.00794932 0.00585267 -0.00058319 0.000243687 3.56917e-11 -1.09989e-10 7.12225e-11 5e-05 1.46608e-10 
2 1 0.0680099 0.0170399 0.00739737 0.00616971 -0.000547086 0.000209707 -3.49108e-11 1.50852e-10 -1.06488e-10 5e-05 1.46608e-10 
3 1 0.0616302 0.0163799 0.00791985 0.0059294 -0.00038571 -0.000334843 1.0156e-10 -4.85733e-13 -2.0799e-10 5e-05 1.46608e-10 
4 1 0.068018 0.0174887 0.00711974 0.00582122 -0.000469923 0.000230817 3.30482e-11 1.07056e-10 -2.25949e-11 5e-05 1.46608e-10 
5 1 0.0675093 0.0162457 0.00796886 0.00583952 -0.000559942 0.000226935 -1.74692e-10 1.93076e-10 -1.28155e-10 5e-05 1.46608e-10 
6 1 0.0735808 0.0165154 0.00778171 0.00600203 -9.25518e-05 6.48022e-05 1.29464e-12 -5.01906e-11 4.24486e-11 5e-05 1.46608e-10 
7 1 0.0676979 0.016672 0.00766437 0.00588153 -0.000579691 0.000242352 -2.05938e-11 1.08791e-10 -3.89394e-11 5e-05 1.46608e-10 
8 1 0.0675224 0.0159504 0.00817568 0.00544672 -0.000529292 0.000216953 5.99106e-11 -2.03728e-11 1.31438e-11 5e-05 1.46608e-10 
9 1 0.0738287 0.0174881 0.00723083 0.00615518 -0.00011518 7.50303e-06 -3.24458e-13 2.24191e-11 -1.09665e-11 5e-05 1.46608e-10 
10 1 0.067653 0.0167798 0.0075901 0.00597372 -0.000609812 0.00026344 2.3585e-11 -2.2662e-11 3.22855e-12 5e-05 1.46608e-10 
11 1 0.0677788 0.0168926 0.00750726 0.00605174 -0.000600192 0.000249646 4.9629e-11 8.12792e-11 -7.5617e-11 5e-05 1.46608e-10 
12 1 0.0678624 0.017212 0.00728077 0.00610293 -0.000590469 0.000239759 -6.43222e-12 1.40853e-11 -3.70689e-11 5e-05 1.46608e-10 
13 1 0.0677971 0.0173543 0.00732773 0.00601081 -0.0005983 0.000259108 1.55711e-11 -3.64378e-11 6.08182e-11 5e-05 1.46608e-10 
14 1 0.0613291 0.0156548 0.00861932 0.0054451 -0.000351023 -0.000316678 -3.14406e-10 1.77985e-10 -1.43334e-10 5e-05 1.46608e-10 
15 1 0.0677598 0.0171781 0.00730747 0.00608486 -0.000630745 0.000266717 1.26966e-11 4.11561e-12 -1.12956e-11 5e-05 1.46608e-10 
16 1 0.0613094 0.0155837 0.00868678 0.00541568 -0.00036008 -0.000307738 7.24121e-11 1.64625e-10 -2.26973e-10 5e-05 1.46608e-10 
17 1 0.0678276 0.0172565 0.00736325 0.00610769 -0.00063035 0.000254171 2.52594e-11 -3.96964e-11 -4.52132e-11 5e-05 1.46608e-10 
18 1 0.0737286 0.0170418 0.00734468 0.00594355 -8.04001e-05 5.77123e-05 6.60188e-11 -3.25819e-11 1.38828e-11 5e-05 1.46608e-10 
19 1 0.067467 0.0160863 0.00808194 0.00562156 -0.000513154 0.000200784 5.39464e-11 1.33693e-11 -6.1533e-12 5e-05 1.46608e-10 
20 1 0.0679432 0.0172556 0.0073479 0.00610321 -0.000554652 0.000243284 9.09037e-11 -8.94418e-11 -2.98977e-11 5e-05 1.46608e-10 
21 1 0.0674879 0.016166 0.00802537 0.00580244 -0.000551191 0.000222207 -5.57909e-11 -1.33856e-11 1.38024e-11 5e-05 1.46608e-10 
22 1 0.0678217 0.017052 0.00739418 0.00606821 -0.000601142 0.000249513 3.03932e-11 7.17362e-11 -5.77647e-11 5e-05 1.46608e-10 
23 1 0.061683 0.0168877 0.00751014 0.00612989 -5.9464e-05 0.000204332 -4.78047e-11 -1.93251e-10 1.51119e-10 5e-05 1.46608e-10 
24 1 0.073809 0.0173901 0.00722817 0.00619511 -0.000128182 6.05841e-06 -2.09952e-11 1.74892e-11 -9.02789e-12 5e-05 1.46608e-10 
25 1 0.0677482 0.0167564 0.00764585 0.00591172 -0.000597735 0.000232526 -3.12913e-11 1.13575e-10 -6.03074e-11 5e-05 1.46608e-10 
26 1 0.0736648 0.0168163 0.0075319 0.00614141 -0.000123553 9.59386e-05 4.29673e-11 3.61117e-10 -1.84487e-10 5e-05 1.46608e-10 
27 1 0.0615979 0.0165795 0.00775019 0.00600536 -0.000256471 -0.000124464 -6.55897e-11 -7.15456e-11 3.08243e-10 5e-05 1.46608e-10 
28 1 0.0677609 0.0171863 0.00740713 0.00608167 -0.000638581 0.00026269 3.84744e-11 1.0535e-10 -2.1579e-11 5e-05 1.46608e-10 
29 1 0.0676265 0.0163493 0.00789282 0.00586986 -0.000581434 0.000241759 -9.51606e-11 -1.01333e-11 2.37957e-12 5e-05 1.46608e-10 
30 1 0.0680493 0.0173965 0.00714645 0.00590947 -0.000491696 0.000237501 7.7067e-11 -2.12995e-11 2.23918e-11 5e-05 1.46608e-10 
31 1 0.0677384 0.0170984 0.00736398 0.0060526 -0.00062708 0.000267249 4.72088e-11 -1.42855e-11 1.36692e-11 5e-05 1.46608e-10 
32 1 0.0678002 0.0169723 0.00745074 0.00605389 -0.000605894 0.000254331 -1.38277e-11 -1.60163e-13 6.08139e-13 5e-05 1.46608e-10 
33 1 0.0736018 0.0165906 0.00771926 0.00602225 -0.000100992 7.03405e-05 1.93195e-10 -7.91349e-11 7.93302e-11 5e-05 1.46608e-10 
34 1 0.0676388 0.0167501 0.00768455 0.00587471 -0.000580738 0.000254478 -3.12884e-11 1.37134e-11 -5.7479e-12 5e-05 1.46608e-10 
36 1 0.0738483 0.0175862 0.00723349 0.00608112 -9.70432e-05 8.62687e-06 7.93717e-12 5.70955e-11 -5.25191e-14 5e-05 1.46608e-10 
37 1 0.0676742 0.0168594 0.00753351 0.00599472 -0.000618922 0.000264093 1.93223e-11 -2.67201e-11 1.97872e-11 5e-05 1.46608e-10 
38 1 0.0678431 0.0171317 0.00733764 0.00610184 -0.000614026 0.000255045 -2.2097e-11 3.1114e-11 -4.47253e-11 5e-05 1.46608e-10 
39 1 0.0737894 0.0172921 0.00722551 0.00592696 -8.04318e-05 6.45127e-06 -1.78459e-11 8.67292e-11 -2.07124e-11 5e-05 1.46608e-10 
41 1 0.0675307 0.0163254 0.00791235 0.00586225 -0.000570838 0.000234278 -2.64701e-11 1.3983e-10 -9.95828e-11 5e-05 1.46608e-10 
42 1 0.067717 0.0170188 0.00742049 0.00603851 -0.000626835 0.000268635 -3.41857e-11 -3.64658e-11 2.7514e-11 5e-05 1.46608e-10 
44 1 0.0679419 0.0171613 0.00731409 0.00613422 -0.000564195 0.000221766 7.18202e-11 8.16264e-11 -5.94703e-11 5e-05 1.46608e-10 
45 1 0.0736438 0.016741 0.00759436 0.00611157 -0.000104669 8.22154e-05 -2.37261e-10 1.95942e-10 -1.95101e-10 5e-05 1.46608e-10 
46 1 0.0737067 0.0169667 0.007407 0.00619863 -0.000128005 9.59264e-05 -2.16959e-10 -1.15805e-10 6.27573e-11 5e-05 1.46608e-10 
47 1 0.0675735 0.0164847 0.00779932 0.00589207 -0.000579645 0.000238546 -1.2384e-10 -6.87623e-11 6.84881e-11 5e-05 1.46608e-10 
48 1 0.0679228 0.0170812 0.00737083 0.00614685 -0.000570817 0.000225487 -6.38552e-11 4.76508e-11 -4.87045e-11 5e-05 1.46608e-10 
49 1 0.0736866 0.0168913 0.00746957 0.00616485 -0.000132703 9.85308e-05 -2.74705e-10 1.3296e-10 -7.11677e-11 5e-05 1.46608e-10 
50 1 0.0679124 0.0174445 0.00711619 0.00563664 -0.000578818 0.000235705 -6.80537e-11 -3.17083e-11 5.87802e-11 5e-05 1.46608e-10 
51 1 0.0679127 0.017372 0.00718499 0.00599271 -0.000573153 0.000206956 -1.69907e-10 1.51822e-10 3.04533e-11 5e-05 1.46608e-10 
52 1 0.0680565 0.0181312 0.00711268 0.00561239 -0.000444986 0.00022594 6.51849e-13 1.47051e-12 3.84929e-13 5e-05 1.46608e-10 
53 1 0.0737568 0.0171156 0.00728339 0.00566638 -2.15443e-05 7.75037e-06 -1.30261e-10 1.39585e-10 -9.75875e-11 5e-05 1.46608e-10 
54 1 0.0675839 0.01619 0.00800586 0.00573115 -0.000561919 0.000232068 9.24057e-11 -1.23471e-10 8.43708e-11 5e-05 1.46608e-10 
55 1 0.0613694 0.0157969 0.00848446 0.0055894 -0.000364335 -0.000320485 5.12007e-10 -1.63236e-11 -4.9568e-11 5e-05 1.46608e-10 
56 1 0.0676956 0.0169391 0.007477 0.00602117 -0.000626722 0.000268982 -3.88655e-11 -3.77541e-11 2.2929e-11 5e-05 1.46608e-10 
57 1 0.0736228 0.0166658 0.00765681 0.00604771 -0.000103378 7.23367e-05 -1.61351e-10 -1.15454e-10 -6.7189e-12 5e-05 1.46608e-10 
59 1 0.0678579 0.0168415 0.00754091 0.00607148 -0.000587526 0.000240441 6.47064e-11 2.72793e-12 -1.02343e-11 5e-05 1.46608e-10 
60 1 0.0678798 0.0169217 0.007484 0.00608527 -0.000566292 0.000224683 -1.06934e-10 -1.00146e-10 6.33572e-11 5e-05 1.46608e-10 
61 1 0.0675522 0.016405 0.00785584 0.00586604 -0.000577172 0.000238703 -5.07876e-11 -5.06764e-11 3.20787e-11 5e-05 1.46608e-10 
62 1 0.0679504 0.0173598 0.00727682 0.00599292 -0.000503938 0.000215349 -5.2576e-11 -1.05442e-10 3.17046e-11 5e-05 1.46608e-10 
63 1 0.0679014 0.0170015 0.00742735 0.00610864 -0.000564623 0.000223339 -2.66211e-10 4.05154e-12 4.143e-12 5e-05 1.46608e-10 
64 1 0.0737693 0.0171942 0.00722285 0.00563659 -1.97601e-05 7.23405e-06 7.21907e-11 1.62904e-10 -7.18306e-11 5e-05 1.46608e-10 
65 1 0.0616402 0.0167301 0.00762561 0.00608143 -3.92923e-05 0.000182974 -1.21863e-10 -1.82224e-10 1.25094e-10 5e-05 1.46608e-10 
66 1 0.0618848 0.0173807 0.00727309 0.00572843 0.000167301 -2.51559e-05 -1.33394e-10 3.74561e-11 -4.75094e-11 5e-05 1.46608e-10 
67 1 0.0680292 0.0172018 0.00728318 0.00609367 -0.000539457 0.000205995 -6.72764e-11 8.12504e-11 -8.66597e-11 5e-05 1.46608e-10 
68 1 0.0678633 0.0172939 0.00722326 0.00603834 -0.000584031 0.00023788 -7.37285e-11 1.45054e-11 3.87317e-11 5e-05 1.46608e-10 
69 1 0.067758 0.0168129 0.00756389 0.00597964 -0.00060134 0.000234297 5.35802e-11 5.69022e-11 -1.18568e-10 5e-05 1.46608e-10 
70 1 0.0678072 0.0173775 0.00723098 0.0057803 -0.000585176 0.000243456 5.88617e-11 -2.46314e-11 7.8686e-11 5e-05 1.46608e-10 
71 1 0.0613489 0.0157259 0.00855186 0.00555163 -0.000362567 -0.000318194 -4.6748e-12 3.79629e-11 -3.09067e-11 5e-05 1.46608e-10 
72 1 0.0679797 0.0174445 0.00720085 0.00592925 -0.000522627 0.000245508 -2.49549e-12 5.14065e-11 -2.73113e-11 5e-05 1.46608e-10 
73 1 0.0678749 0.0174826 0.00720071 0.00564889 -0.000585199 0.000235939 -2.53962e-10 1.54256e-10 3.26474e-11 5e-05 1.46608e-10 
74 1 0.0682329 0.0176168 0.00712645 0.00573478 -0.00037284 0.000229769 8.77095e-11 1.67909e-12 5.47882e-12 5e-05 1.46608e-10 
76 1 0.0622667 0.0182503 0.00716591 0.00616856 -0.00020616 -0.000237852 5.0784e-10 1.07097e-10 1.28019e-11 5e-05 1.46608e-10 
77 1 0.0680419 0.0184902 0.00710732 0.00526257 -0.000391429 0.000211292 -1.59377e-11 1.94008e-11 2.8998e-13 5e-05 1.46608e-10 
78 1 0.0614524 0.0160799 0.00821557 0.00572129 -0.000360282 -0.000341603 -1.48164e-10 3.54554e-11 -2.19535e-11 5e-05 1.46608e-10 
79 1 0.0617044 0.0169665 0.00745241 0.00614982 -6.62242e-05 0.000207171 6.23148e-12 -1.58252e-10 1.21656e-10 5e-05 1.46608e-10 
80 1 0.0678985 0.0178036 0.00711085 0.00561911 -0.000574319 0.000228006 -5.7283e-12 -5.55145e-11 -3.95547e-12 5e-05 1.46608e-10 
81 1 0.0616191 0.0166553 0.00768844 0.00602208 -0.000104672 7.29939e-05 -5.03434e-11 -1.64056e-10 2.10011e-10 5e-05 1.46608e-10 
82 1 0.0616616 0.0168089 0.00756788 0.00611066 -4.73315e-05 0.000196895 -9.52991e-11 -1.9516e-10 1.08877e-10 5e-05 1.46608e-10 
83 1 0.0615563 0.0164367 0.00788359 0.00590677 -0.000447587 -0.000383782 1.04435e-10 -9.61155e-11 2.80395e-11 5e-05 1.46608e-10 
84 1 0.073868 0.0176842 0.00723615 0.00602611 -8.43885e-05 8.80251e-06 1.47161e-11 8.44832e-11 7.13254e-12 5e-05 1.46608e-10 
85 1 0.0674276 0.0159256 0.00819578 0.00544943 -0.00054556 0.000227773 9.2197e-12 1.61066e-10 -8.69774e-11 5e-05 1.46608e-10 
86 1 0.0679535 0.0176403 0.00711519 0.00564496 -0.000574964 0.000228729 -1.35158e-10 3.58966e-11 -9.57936e-12 5e-05 1.46608e-10 
87 1 0.0679885 0.0169602 0.00745388 0.00613358 -0.000539529 0.000204977 -1.76764e-10 1.3035e-10 -8.10176e-11 5e-05 1.46608e-10 
88 1 0.0679808 0.0181965 0.00710884 0.00560653 -0.000451233 0.000225731 1.44926e-11 3.16967e-11 -1.72649e-13 5e-05 1.46608e-10 
89 1 0.0679951 0.0178375 0.00711419 0.0056423 -0.000458041 0.00022729 -6.61343e-11 -6.88604e-11 -1.34725e-12 5e-05 1.46608e-10 
90 1 0.0681129 0.0175202 0.00712304 0.00580646 -0.000438201 0.000233497 3.42806e-11 -1.63246e-11 -8.88139e-12 5e-05 1.46608e-10 
91 1 0.0678167 0.0174158 0.00713908 0.00563099 -0.000571029 0.000238414 3.19741e-11 -1.98738e-11 4.07095e-11 5e-05 1.46608e-10 
92 1 0.068133 0.0176182 0.00712252 0.00574149 -0.000420692 0.000230492 3.79773e-11 1.47353e-12 2.29518e-12 5e-05 1.46608e-10 
93 1 0.0681399 0.0180761 0.00711668 0.00561541 -0.000444952 0.000226074 -4.08294e-11 -7.17286e-11 -2.03621e-12 5e-05 1.46608e-10 
94 1 0.067974 0.0177381 0.00711468 0.00567285 -0.000512428 0.000229204 -1.09774e-11 -7.89537e-11 1.81696e-12 5e-05 1.46608e-10 
95 1 0.067878 0.0177057 0.00711135 0.00563762 -0.000562746 0.000227579 -4.30571e-11 7.53533e-11 5.70204e-12 5e-05 1.46608e-10 
96 1 0.0680785 0.0177825 0.00711819 0.00565825 -0.000443766 0.00022763 -4.9956e-11 -3.01429e-11 3.59189e-12 5e-05 1.46608e-10 
97 1 0.0618219 0.0170714 0.00737782 0.00622334 -3.62747e-05 0.000187035 2.17189e-10 -3.94612e-14 2.17262e-11 5e-05 1.46608e-10 
98 1 0.0680219 0.0183922 0.00710784 0.00558552 -0.000453714 0.000225066 3.41673e-12 1.88762e-11 -2.43045e-12 5e-05 1.46608e-10 
99 1 0.0617258 0.0170453 0.00739468 0.00615481 -6.70619e-05 0.000207623 1.09334e-10 -1.0485e-10 9.62614e-11 5e-05 1.46608e-10 
100 1 0.0682531 0.0177151 0.00712594 0.00568311 -0.000356578 0.000227552 -3.31353e-11 8.80705e-11 -2.02421e-12 5e-05 1.46608e-10 
101 1 0.061672 0.0165229 0.00778643 0.00601008 -0.000159336 1.20408e-05 8.88103e-11 -9.75627e-11 1.22681e-10 5e-05 1.46608e-10 
102 1 0.0694385 0.0202053 0.00537268 3.94781e-15 4.50283e-15 -7.6825e-14 1.11911e-21 -3.2198e-22 3.86707e-23 5e-05 1.46608e-10 
104 1 0.0617789 0.0169138 0.00749329 0.0061824 -4.20947e-05 0.000190323 7.22177e-11 -1.5672e-10 1.21919e-10 5e-05 1.46608e-10 
105 1 0.0615145 0.0162915 0.00801446 0.00587281 -0.000383712 -0.00033585 -1.49956e-10 8.81559e-11 -8.68681e-11 5e-05 1.46608e-10 
106 1 0.0618818 0.0173086 0.00720385 0.00566233 8.62414e-06 0.000146379 3.08698e-10 -1.13456e-10 3.68122e-12 5e-05 1.46608e-10 
107 1 0.0614738 0.0161578 0.00815672 0.00579766 -0.000372134 -0.000344688 -3.42954e-10 1.77212e-10 -1.32556e-10 5e-05 1.46608e-10 
108 1 0.0676162 0.0166597 0.0077209 0.00589119 -0.000583048 0.000245832 3.40171e-12 3.82098e-11 4.60452e-11 5e-05 1.46608e-10 
109 1 0.0678369 0.01751 0.00711235 0.00564532 -0.000579572 0.000232467 3.21266e-11 -6.52265e-12 -1.47683e-11 5e-05 1.46608e-10 
110 1 0.0680155 0.0179354 0.00711368 0.00562919 -0.000450924 0.000226616 -4.32195e-11 -5.34749e-11 -4.11435e-12 5e-05 1.46608e-10 
111 1 0.0681175 0.0184249 0.00711115 0.00526351 -0.000384975 0.000211491 -1.40298e-10 -8.91656e-11 -4.24578e-12 5e-05 1.46608e-10 
112 1 0.0615768 0.0165052 0.00781363 0.0059736 -0.000412977 -0.000326387 -1.15399e-10 -6.65301e-11 2.22784e-10 5e-05 1.46608e-10 
113 1 0.0618968 0.0170191 0.00741846 0.00633495 6.8489e-05 0.000112176 1.01501e-10 -1.22159e-10 9.50949e-11 5e-05 1.46608e-10 
115 1 0.0678574 0.0176079 0.00711185 0.00564064 -0.000572451 0.000228379 -3.38131e-11 2.71199e-11 6.21046e-12 5e-05 1.46608e-10 
116 1 0.0678371 0.0167617 0.00759749 0.00597064 -0.000604752 0.000255904 -3.14447e-11 1.16914e-10 -1.19037e-10 5e-05 1.46608e-10 
117 1 0.0676895 0.0165905 0.00772176 0.0058971 -0.000582253 0.000242239 1.38437e-11 1.06635e-10 -8.01748e-11 5e-05 1.46608e-10 
118 1 0.061411 0.0159387 0.0083497 0.00566624 -0.000356886 -0.000339324 -4.732e-10 2.41854e-10 -1.32816e-10 5e-05 1.46608e-10 
119 1 0.0680005 0.0173256 0.0071973 0.00597502 -0.000546414 0.0002228 5.22047e-11 -6.70933e-11 4.21347e-11 5e-05 1.46608e-10 
120 1 0.0674473 0.0160063 0.00813863 0.00545134 -0.000485341 0.000186693 4.11696e-11 4.40012e-11 -4.35414e-11 5e-05 1.46608e-10 
121 1 0.0675424 0.0160304 0.00811902 0.00542839 -0.000518714 0.000210297 6.95925e-11 1.08033e-11 -1.15786e-11 5e-05 1.46608e-10 
122 1 0.0680989 0.0178804 0.00711768 0.00563497 -0.000441696 0.000226808 -8.15479e-11 -5.44527e-11 -5.11372e-12 5e-05 1.46608e-10 
123 1 0.0615352 0.0163624 0.00794707 0.00589407 -0.000393126 -0.000335873 2.39187e-12 6.50681e-12 -8.26443e-11 5e-05 1.46608e-10 
124 1 0.0679192 0.0179025 0.00711035 0.0056333 -0.000464101 0.000226884 -1.23207e-11 -2.98676e-11 2.83215e-14 5e-05 1.46608e-10 
125 1 0.0675629 0.0161102 0.00806241 0.00551672 -0.000526927 0.000213477 -9.27632e-11 1.12009e-11 -2.46773e-12 5e-05 1.46608e-10 
126 1 0.0677814 0.0172704 0.00727564 0.00607233 -0.000623355 0.000271756 -2.18495e-11 -3.20091e-11 -1.91186e-13 5e-05 1.46608e-10 
127 1 0.0619802 0.0174242 0.00723211 0.00580613 0.000259844 -0.000187164 -1.23558e-11 -2.42824e-11 2.12593e-10 5e-05 1.46608e-10 
128 1 0.0680381 0.0175866 0.00711922 0.00576581 -0.000464006 0.000231351 -1.5974e-11 9.38551e-11 5.89527e-12 5e-05 1.46608e-10 
129 1 0.068036 0.0180333 0.00711318 0.00562077 -0.000446515 0.000226494 -2.21101e-11 -4.08067e-11 2.49172e-12 5e-05 1.46608e-10 
131 1 0.0618004 0.0169926 0.00743555 0.00619556 -2.53056e-05 0.000177749 1.86989e-10 -3.11854e-12 3.23167e-12 5e-05 1.46608e-10 
132 1 0.0680583 0.0176846 0.00711871 0.00570729 -0.000455152 0.000229669 3.07284e-11 8.46851e-12 4.24361e-12 5e-05 1.46608e-10 
133 1 0.0676479 0.016429 0.00783629 0.00588941 -0.000582842 0.000242154 -1.28443e-10 -6.06427e-11 5.57312e-11 5e-05 1.46608e-10 
134 1 0.0681304 0.0172024 0.00727995 0.00607786 -0.000475833 0.000160794 -1.3405e-10 -7.19779e-11 5.24891e-11 5e-05 1.46608e-10 
135 1 0.0677679 0.0165227 0.00776716 0.00589476 -0.000595123 0.000250827 1.18044e-10 3.06642e-11 -2.37e-11 5e-05 1.46608e-10 
136 1 0.0614411 0.0160072 0.0082834 0.00565753 -0.000347155 -0.000347864 3.17403e-10 6.88066e-11 -8.63522e-11 5e-05 1.46608e-10 
137 1 0.0680623 0.0185881 0.00710681 0.0052598 -0.000397308 0.000211959 1.67299e-10 1.09874e-11 1.65504e-11 5e-05 1.46608e-10 
138 1 0.0681604 0.018174 0.00711618 0.00560689 -0.000444704 0.000225747 -1.35133e-11 -6.14341e-11 -5.87767e-13 5e-05 1.46608e-10 
140 1 0.0679329 0.0175424 0.00711569 0.00564338 -0.000579053 0.000229959 -8.93348e-11 6.48757e-12 1.40573e-12 5e-05 1.46608e-10 
141 1 0.0616094 0.0163089 0.00798733 0.00586303 -0.000400818 -0.000319469 9.33369e-11 2.35055e-11 1.50718e-13 5e-05 1.46608e-10 
142 1 0.0617147 0.0166775 0.0076665 0.00609225 -2.97489e-05 0.000176682 -1.70159e-10 -3.54174e-11 1.51364e-12 5e-05 1.46608e-10 
143 1 0.0614951 0.0162301 0.00809095 0.00582873 -0.000378927 -0.000343159 3.2899e-10 -1.30041e-11 -8.41828e-11 5e-05 1.46608e-10 
146 1 0.0617894 0.016625 0.00770726 0.0061343 6.19391e-06 0.000153993 -1.25953e-10 1.57863e-10 -1.25545e-10 5e-05 1.46608e-10 
147 1 0.0613902 0.0158678 0.00841708 0.00561284 -0.000361322 -0.000326155 2.21865e-10 -1.94689e-12 6.13447e-12 5e-05 1.46608e-10 
148 1 0.00864264 0.0170792 0.0081411 -8.31017e-10 -0.0207658 0.0121737 2.25579e-18 1.10179e-11 1.88352e-11 5e-05 1.46608e-10 
149 1 0.0679603 0.0180986 0.00710934 0.00561786 -0.000445061 0.000226049 -1.50184e-11 -6.9453e-11 1.80931e-13 5e-05 1.46608e-10 
150 1 0.0616931 0.0165985 0.00772439 0.00601199 -2.77479e-05 0.000173331 6.01222e-11 -5.18988e-11 1.44417e-10 5e-05 1.46608e-10 
151 1 0.062127 0.0172352 0.00726451 0.00610401 0.00019692 1.52398e-05 3.7284e-11 9.4938e-11 -1.86961e-10 5e-05 1.46608e-10 
153 1 0.0617674 0.0165456 0.00776543 0.006049 2.06598e-05 0.000140045 9.45056e-12 -1.05877e-10 1.48579e-10 5e-05 1.46608e-10 
154 1 0.0619262 0.0174968 0.00715638 0.00573743 -7.91494e-05 -0.000174739 -1.28875e-10 1.77548e-10 -2.99448e-10 5e-05 1.46608e-10 
155 1 0.0559228 0.0175045 0.00716969 0.00553973 -0.000900738 0.000479727 1.16035e-11 2.6826e-11 -5.49501e-11 5e-05 1.46608e-10 
156 1 0.0618047 0.0173614 0.00716281 0.00572475 9.01376e-06 0.00012894 -2.05712e-10 -1.95338e-10 4.96862e-10 5e-05 1.46608e-10 
157 1 0.0619875 0.0177901 0.00715229 0.00568323 -5.55545e-05 -0.000214538 1.02851e-10 1.45588e-11 4.79983e-11 5e-05 1.46608e-10 
158 1 0.0620142 0.0171256 0.00734272 0.00634159 7.88573e-05 9.865e-05 -3.93722e-10 -6.17398e-10 4.20504e-10 5e-05 1.46608e-10 
159 1 0.0681532 0.0177161 0.007122 0.00568726 -0.000410587 0.000228493 1.80632e-12 2.33585e-11 -4.65476e-12 5e-05 1.46608e-10 
160 1 0.0618863 0.0177505 0.00715395 0.00569552 -0.000103779 -0.000217019 -3.18922e-12 -2.3742e-11 -5.24726e-12 5e-05 1.46608e-10 
162 1 0.0618433 0.0171503 0.00732001 0.00628043 -2.49052e-05 0.000180839 1.62391e-10 -1.25098e-10 1.06686e-10 5e-05 1.46608e-10 
163 1 0.0620338 0.0172068 0.00728778 0.00616159 0.000107545 8.35199e-05 -9.07172e-11 -3.0682e-10 2.17065e-10 5e-05 1.46608e-10 
164 1 0.0621827 0.0178596 0.00714863 0.00563962 1.7883e-05 -0.000209669 7.14414e-11 -1.21794e-11 -4.96385e-11 5e-05 1.46608e-10 
165 1 0.0619513 0.016889 0.00751611 0.00638431 0.000163164 4.38079e-05 1.90308e-10 -3.26845e-11 3.58425e-11 5e-05 1.46608e-10 
166 1 0.0673886 0.0157656 0.0083092 0.00547975 -0.000568023 0.000233377 3.40115e-11 -6.58653e-11 -1.80956e-10 5e-05 1.46608e-10 
167 1 0.0618109 0.0167038 0.00764947 0.00618124 -8.0418e-06 0.000165291 1.55414e-10 -8.32173e-11 7.04885e-11 5e-05 1.46608e-10 
168 1 0.0619472 0.0175943 0.00715019 0.0057475 -7.60982e-05 -0.00021734 -3.11597e-12 2.51243e-10 -9.66933e-11 5e-05 1.46608e-10 
169 1 0.0620685 0.0173833 0.00718312 0.00581614 -0.000178508 -0.000522571 1.9846e-10 -1.95034e-10 -3.03227e-11 5e-05 1.46608e-10 
170 1 0.0620197 0.0175267 0.0071373 0.00570468 -8.44755e-05 -0.000213808 -4.20979e-12 -1.25386e-10 1.28926e-11 5e-05 1.46608e-10 
171 1 0.0677901 0.0166022 0.00771073 0.00590765 -0.000600318 0.000253068 1.07938e-10 5.00666e-11 -3.46768e-11 5e-05 1.46608e-10 
172 1 0.0621966 0.0175001 0.00712935 0.00589183 9.42165e-05 -0.000210601 5.99939e-11 4.0655e-10 -2.96231e-10 5e-05 1.46608e-10 
173 1 0.068029 0.01712 0.00734063 0.00614933 -0.000543895 0.000208001 4.61778e-11 1.33688e-10 -9.80684e-11 5e-05 1.46608e-10 
174 1 0.0619068 0.0178488 0.00715833 0.00567987 -6.51025e-05 -0.000220784 -1.06548e-11 -1.32549e-10 8.6355e-11 5e-05 1.46608e-10 
175 1 0.058717 0.0172588 0.00719607 0.00643427 0.00017676 -7.39635e-05 6.58246e-14 -3.73222e-14 -7.54732e-16 5e-05 1.46608e-10 
176 1 0.0617869 0.0172822 0.00722122 0.00567413 2.7667e-05 0.000206914 7.06028e-11 -4.3639e-10 -6.306e-11 5e-05 1.46608e-10 
177 1 0.062298 0.0179882 0.00715105 0.00560807 -3.86116e-05 -0.000210946 -9.53693e-11 -2.4774e-10 -2.02545e-11 5e-05 1.46608e-10 
178 1 0.0621667 0.0173931 0.00714871 0.00600153 0.00017554 4.2059e-05 9.23972e-10 2.88075e-10 -2.25501e-10 5e-05 1.46608e-10 
179 1 0.0558072 0.0173779 0.00719423 0.00553391 -0.000881865 0.000173183 -1.22374e-10 8.57836e-10 -2.36041e-10 5e-05 1.46608e-10 
180 1 0.0619581 0.017258 0.00724701 0.00610599 7.35079e-05 0.000130208 2.06071e-10 4.39696e-11 1.53929e-10 5e-05 1.46608e-10 
181 1 0.0619936 0.0174266 0.00713304 0.0056464 -0.000133178 -0.000218048 4.3856e-12 -2.31899e-11 1.23136e-10 5e-05 1.46608e-10 
182 1 0.0679455 0.0168009 0.00756689 0.00610838 -0.000540138 0.000206156 -5.84793e-12 -2.18291e-10 1.50597e-10 5e-05 1.46608e-10 
183 1 0.0621014 0.0174685 0.00714242 0.0058161 8.66894e-06 -0.00014557 1.88494e-10 -3.03915e-10 -5.53405e-10 5e-05 1.46608e-10 
184 1 0.0680975 0.0183269 0.00711168 0.00559354 -0.000445114 0.000225212 -6.68412e-11 -7.77494e-13 -2.29481e-12 5e-05 1.46608e-10 
185 1 0.0618251 0.0174568 0.00714089 0.00575695 -7.00497e-05 -0.000211873 -3.36797e-11 -3.19496e-11 -1.76166e-10 5e-05 1.46608e-10 
186 1 0.0618635 0.0172293 0.00726206 0.00617546 -3.04498e-05 0.000178895 -5.26524e-11 -1.80893e-10 2.13554e-10 5e-05 1.46608e-10 
187 1 0.0679671 0.0168806 0.00751039 0.00609577 -0.000534837 0.000202873 -5.10383e-11 -5.35354e-11 4.38754e-11 5e-05 1.46608e-10 
188 1 0.0681194 0.0179783 0.00711718 0.00562465 -0.000442441 0.000226384 -4.14709e-11 -6.44363e-11 1.15565e-12 5e-05 1.46608e-10 
189 1 0.0676697 0.0165086 0.00777982 0.00589898 -0.00058302 0.000242664 1.28001e-11 1.54755e-11 -1.96511e-11 5e-05 1.46608e-10 
190 1 0.0623187 0.018086 0.00715539 0.00559689 -4.69499e-05 -0.000210491 2.71276e-10 -4.31605e-10 -2.43765e-11 5e-05 1.46608e-10 
191 1 0.0680825 0.018686 0.0071063 0.00536909 -0.000424247 0.000215807 2.61442e-11 6.87056e-11 -8.74305e-12 5e-05 1.46608e-10 
192 1 0.0619049 0.0174002 0.00717083 0.00570721 -6.4387e-05 -3.67921e-05 -2.23849e-10 1.49754e-10 -3.36302e-10 5e-05 1.46608e-10 
193 1 0.0681798 0.017273 0.00722898 0.00600591 -0.000448834 0.000145125 5.85562e-11 -2.47201e-11 1.61903e-11 5e-05 1.46608e-10 
194 1 0.0617361 0.0167562 0.00760876 0.00614063 -3.48743e-05 0.000184719 -8.76477e-14 -1.34605e-10 8.68814e-11 5e-05 1.46608e-10 
195 1 0.0620417 0.0176258 0.00714165 0.0057554 -3.36973e-05 -0.000216478 8.77839e-11 -3.20522e-11 3.08288e-11 5e-05 1.46608e-10 
196 1 0.0612898 0.0155125 0.00875425 0.00538851 -0.000366952 -0.000299904 -1.23372e-10 1.27587e-10 -9.97139e-11 5e-05 1.46608e-10 
197 1 0.0619271 0.0179466 0.00716268 0.00567125 -4.40495e-05 -0.000215191 -7.92863e-11 -1.2618e-10 1.41466e-11 5e-05 1.46608e-10 
198 1 0.0617473 0.017124 0.00733696 0.00618792 -7.44457e-05 0.000214646 6.69126e-11 -1.20361e-10 1.01399e-10 5e-05 1.46608e-10 
199 1 0.0618658 0.0176525 0.0071496 0.00572366 -8.41063e-05 -0.000133525 9.49296e-11 3.90899e-10 -2.99825e-10 5e-05 1.46608e-10 
200 1 0.0617575 0.016835 0.00755102 0.00613694 -5.61175e-05 0.000200863 1.02943e-10 -1.25767e-10 1.02539e-10 5e-05 1.46608e-10 
201 1 0.062187 0.0183104 0.00717201 0.00614721 -0.000276686 -0.000244285 -6.68446e-10 -3.35224e-10 -1.34192e-10 5e-05 1.46608e-10 
203 1 0.0682428 0.0174221 0.00712944 0.0058888 -0.000359774 0.000235887 6.05058e-11 2.68045e-11 1.14444e-11 5e-05 1.46608e-10 
204 1 0.0618753 0.0169403 0.00747619 0.00628594 6.21363e-05 0.000116362 1.25701e-10 -7.63995e-11 4.86027e-11 5e-05 1.46608e-10 
205 1 0.0619475 0.0180446 0.00716704 0.00561519 -0.00017877 -0.000210654 1.57643e-10 7.42763e-10 -1.0785e-10 5e-05 1.46608e-10 
206 1 0.0619673 0.0176923 0.0071479 0.00572095 -6.76441e-05 -0.000214205 9.42893e-11 1.27739e-10 -4.07582e-12 5e-05 1.46608e-10 
207 1 0.0617462 0.0164683 0.00782528 0.00601633 -0.000405091 -0.000333033 1.62097e-10 -1.6017e-10 9.79819e-11 5e-05 1.46608e-10 
208 1 0.0618455 0.0175546 0.00714524 0.00574525 -6.606e-05 -0.000218897 -4.27704e-11 3.12086e-10 1.54626e-11 5e-05 1.46608e-10 
209 1 0.0558284 0.0174752 0.00718481 0.00554149 -0.000919071 0.00036373 1.03119e-10 5.16864e-10 -1.49275e-10 5e-05 1.46608e-10 
210 1 0.0674081 0.0158456 0.00825249 0.00546278 -0.000553499 0.000232175 -9.14373e-11 1.35687e-10 -1.84791e-11 5e-05 1.46608e-10 
211 1 0.068077 0.018229 0.00711218 0.00560426 -0.000445683 0.000225605 1.22313e-11 7.11075e-12 2.06129e-12 5e-05 1.46608e-10 
212 1 0.0621387 0.0173156 0.00720533 0.00600835 0.000165924 4.8466e-05 1.14887e-09 2.90716e-10 -3.86952e-11 5e-05 1.46608e-10 
213 1 0.0680779 0.0172727 0.00723213 0.00601736 -0.000498605 0.000192146 -3.31384e-11 -3.9871e-11 5.11449e-11 5e-05 1.46608e-10 
214 1 0.0679398 0.0180007 0.00710984 0.00562504 -0.000453632 0.000226551 -2.58111e-11 -7.29772e-11 2.6293e-12 5e-05 1.46608e-10 
215 1 0.0619383 0.0171769 0.00730276 0.00626486 1.94934e-05 0.000142513 -7.31434e-10 -7.07905e-10 5.53953e-10 5e-05 1.46608e-10 
216 1 0.0619941 0.0170466 0.00740063 0.00648551 0.000161406 4.74798e-05 3.83913e-10 -1.40255e-10 1.01701e-10 5e-05 1.46608e-10 
217 1 0.0678137 0.0166814 0.00765447 0.00590956 -0.000600526 0.000253798 -3.02874e-11 9.77566e-11 -3.24915e-11 5e-05 1.46608e-10 
218 1 0.0620827 0.0178217 0.00715036 0.00566044 -1.0349e-05 -0.000210762 1.28005e-11 1.63722e-10 -6.18687e-12 5e-05 1.46608e-10 
219 1 0.0680014 0.0182943 0.00710834 0.00559707 -0.000451723 0.000225474 -1.07959e-11 1.23996e-11 1.55741e-12 5e-05 1.46608e-10 
220 1 0.0619181 0.0170979 0.0073607 0.00637108 5.55004e-05 0.000122813 2.60863e-10 -1.89068e-10 1.70091e-10 5e-05 1.46608e-10 
221 1 0.0556667 0.0168276 0.00756188 0.00596237 0.000175616 0.00126142 1.12311e-09 -1.13097e-10 2.00297e-09 5e-05 1.46608e-10 
222 1 0.0675953 0.0165645 0.00774317 0.00590139 -0.00058506 0.000237744 -2.27246e-12 5.22359e-11 4.7821e-11 5e-05 1.46608e-10 
223 1 0.0619791 0.017335 0.00718683 0.00587362 0.000122381 6.15558e-05 -4.72247e-10 2.11328e-11 -1.04707e-10 5e-05 1.46608e-10 
224 1 0.0617686 0.0172028 0.00727921 0.0062123 -8.17967e-05 0.000222244 -8.06643e-11 -1.40121e-10 7.18073e-11 5e-05 1.46608e-10 
225 1 0.0681429 0.0174248 0.00712548 0.00588518 -0.000414973 0.000235668 3.64634e-11 -3.38524e-11 -1.46793e-11 5e-05 1.46608e-10 
226 1 0.0619727 0.0169678 0.00745839 0.00643901 0.000164146 4.46067e-05 2.41337e-10 -7.65651e-12 9.25331e-12 5e-05 1.46608e-10 
227 1 0.0557263 0.0170149 0.00734007 0.00610432 -0.000803249 0.000454229 1.12782e-09 -1.02222e-09 7.51823e-10 5e-05 1.46608e-10 
228 1 0.0507861 0.0189683 0.00558458 -5.35644e-15 -1.91111e-14 -2.87013e-13 4.86557e-22 -8.11542e-23 -4.75629e-24 5e-05 1.46608e-10 
229 1 0.0615673 0.016167 0.00812226 0.00580376 -0.000390364 -0.000322878 3.16655e-10 -1.12051e-10 -6.43382e-11 5e-05 1.46608e-10 
230 1 0.0619862 0.0182407 0.00717584 0.00569163 -2.7065e-05 -0.000212124 -4.7202e-10 -2.61928e-10 -2.633e-11 5e-05 1.46608e-10 
231 1 0.197479 0.018695 0.00523156 -1.10071e-15 -2.69838e-14 1.45242e-13 -5.01607e-23 6.25555e-24 2.06795e-25 5e-05 1.46608e-10 
232 1 0.0615885 0.0162378 0.00805492 0.0058517 -0.000406017 -0.000311781 -1.46363e-11 1.21567e-10 -1.27669e-10 5e-05 1.46608e-10 
233 1 0.0618538 0.0168615 0.00753395 0.00627434 3.58237e-05 0.000135262 2.36762e-10 -7.75557e-11 5.08567e-11 5e-05 1.46608e-10 
234 1 0.0673499 0.0156049 0.00842179 0.00547359 -0.000563164 0.000277554 2.18124e-11 -3.53643e-11 2.60065e-11 5e-05 1.46608e-10 
235 1 0.0621587 0.0185712 0.00718669 0.00532669 -0.000193803 -0.000208947 -3.37049e-10 1.19048e-10 -2.27496e-11 5e-05 1.46608e-10 
236 1 0.0622102 0.0184076 0.00717622 0.00554503 -0.000139586 -0.000213433 7.40351e-10 2.51174e-10 -5.83874e-11 5e-05 1.46608e-10 
237 1 0.0621121 0.0183764 0.00717824 0.00609699 -0.000351777 -0.000238791 -6.26332e-10 3.59006e-10 1.0616e-10 5e-05 1.46608e-10 
238 1 0.0558482 0.0175711 0.00716471 0.00554436 -0.000927106 0.000482657 1.39454e-10 4.13113e-10 -1.52365e-10 5e-05 1.46608e-10 
239 1 0.0555689 0.0165354 0.00795562 0.00577677 0.000163619 0.000996082 3.38731e-11 8.8577e-11 -2.31721e-10 5e-05 1.46608e-10 
240 1 0.0556482 0.0167694 0.00764103 0.00599451 7.60662e-05 0.00108712 6.59986e-10 -1.16308e-09 1.34645e-09 5e-05 1.46608e-10 
241 1 0.0555886 0.0165938 0.00787689 0.00582451 0.000159312 0.0010117 -1.98698e-11 8.9193e-11 -1.03698e-10 5e-05 1.46608e-10 
242 1 0.0558993 0.0174074 0.0071658 0.0055081 -0.000877054 7.57989e-05 9.60288e-11 -5.39233e-11 -9.73726e-11 5e-05 1.46608e-10 
243 1 0.0555493 0.016477 0.00803437 0.00571688 0.000164493 0.000984735 1.3549e-10 1.90133e-10 -2.75881e-10 5e-05 1.46608e-10 
244 1 0.055608 0.0166523 0.00779812 0.0058809 0.000156427 0.00103484 7.82503e-11 5.9597e-11 1.21947e-10 5e-05 1.46608e-10 
245 1 0.0558686 0.0176689 0.0071694 0.00552139 -0.000931822 0.000484812 3.22454e-11 -4.04621e-11 2.77705e-11 5e-05 1.46608e-10 
246 1 0.0556877 0.0168978 0.00749378 0.00568909 0.00042496 0.00137742 1.09203e-09 -2.84286e-09 -1.19224e-09 5e-05 1.46608e-10 