ITEM: TIMESTEP
20400000
ITEM: NUMBER OF ATOMS
284
ITEM: BOX BOUNDS ff ff ff
-0.02 0.43
-0.02 0.06
-0.02 0.07
ITEM: ATOMS id type x y z vx vy vz fx fy fz radius mass 
1 1 0.131691 0.0160296 0.00810511 0.00610254 -0.000459368 -7.52653e-05 -4.19227e-11 9.90619e-11 -7.06589e-11 5e-05 1.46608e-10 
2 1 0.132116 0.0169897 0.00754235 0.00566407 -0.000244564 0.000531067 1.07463e-11 1.13706e-10 -4.31382e-11 5e-05 1.46608e-10 
3 1 0.125773 0.0162677 0.00781599 0.00595437 -0.000343372 0.000141143 3.18087e-10 -3.06745e-10 1.78776e-10 5e-05 1.46608e-10 
4 1 0.132088 0.0173324 0.00742961 0.00572652 -0.000252759 0.000534639 -8.0914e-11 4.70109e-11 -9.7291e-11 5e-05 1.46608e-10 
5 1 0.131595 0.0160123 0.0081307 0.00607958 -0.000439523 -9.27012e-05 2.05075e-11 1.26215e-10 -1.00713e-10 5e-05 1.46608e-10 
6 1 0.137789 0.0167271 0.00763086 0.00614932 0.000452689 0.000172718 7.66098e-11 -1.04021e-10 1.83698e-10 5e-05 1.46608e-10 
7 1 0.131703 0.0163549 0.00778296 0.0061929 -0.00040041 -0.000120739 -1.25316e-10 -1.41109e-10 -2.81066e-10 5e-05 1.46608e-10 
8 1 0.131605 0.0157566 0.00838441 0.00602051 -0.000424831 -0.000103299 1.36772e-10 -8.7676e-11 6.75454e-11 5e-05 1.46608e-10 
9 1 0.138018 0.0177373 0.00710488 0.00562772 0.000460151 5.7759e-05 -3.7527e-13 6.7109e-12 9.63032e-13 5e-05 1.46608e-10 
10 1 0.131723 0.0164238 0.0077099 0.00559064 -0.000445397 -3.99195e-05 -1.50111e-11 2.7326e-11 -2.53372e-11 5e-05 1.46608e-10 
11 1 0.131839 0.0165475 0.00767144 0.00556598 -0.00226345 -0.00555533 -2.06102e-10 -6.26108e-10 -1.23344e-09 5e-05 1.46608e-10 
12 1 0.131922 0.0169188 0.00754968 0.00567178 -0.000161942 0.000493379 -4.94209e-10 2.46548e-10 -2.79158e-10 5e-05 1.46608e-10 
13 1 0.131935 0.0173826 0.00750525 0.00562931 -5.24729e-05 0.000464207 2.19036e-11 -7.99309e-11 -2.12766e-13 5e-05 1.46608e-10 
14 1 0.125488 0.0156557 0.00846262 0.00601497 -0.0004567 0.000165376 1.83722e-10 -2.69793e-10 4.54684e-10 5e-05 1.46608e-10 
15 1 0.131826 0.0168861 0.00755255 0.00561253 -0.000173712 0.000491667 -2.36909e-11 1.44692e-10 4.15382e-10 5e-05 1.46608e-10 
16 1 0.125468 0.0156099 0.00854921 0.00597845 -0.000441487 0.000148871 7.28695e-11 -2.72921e-10 4.8837e-10 5e-05 1.46608e-10 
17 1 0.132129 0.0175728 0.00745732 0.00554504 0.0010945 -0.000215083 2.11418e-10 1.1805e-10 -1.91087e-11 5e-05 1.46608e-10 
18 1 0.137919 0.017262 0.00721931 0.00574781 0.000228897 -0.000566246 8.36387e-11 5.97465e-11 -7.828e-11 5e-05 1.46608e-10 
19 1 0.131552 0.0158758 0.00827034 0.00606882 -0.000419046 -0.000112842 4.53264e-11 1.51471e-10 -1.73259e-10 5e-05 1.46608e-10 
20 1 0.132133 0.0173998 0.00749004 0.00568844 -0.00044271 0.000585629 -1.8806e-10 1.0919e-10 -2.1526e-10 5e-05 1.46608e-10 
21 1 0.131574 0.015944 0.00820052 0.00607429 -0.000435604 -9.63771e-05 2.88701e-10 2.12457e-10 -2.58211e-10 5e-05 1.46608e-10 
22 1 0.13188 0.0167317 0.0076067 0.005623 -0.000197379 0.000510193 3.21281e-10 4.84009e-11 2.3277e-10 5e-05 1.46608e-10 
23 1 0.125819 0.0168235 0.00747033 0.00556979 -0.000260299 9.45457e-05 -2.67337e-10 6.31891e-11 -3.35007e-11 5e-05 1.46608e-10 
24 1 0.137998 0.0176408 0.00712219 0.00563008 0.000460957 5.78075e-05 3.23047e-11 5.41266e-12 -6.09736e-12 5e-05 1.46608e-10 
25 1 0.131798 0.0163714 0.00775575 0.00620141 -0.00047306 -0.000154353 -3.53449e-10 2.2269e-10 -2.49561e-10 5e-05 1.46608e-10 
26 1 0.137863 0.0170075 0.00735557 0.00593969 0.000473196 0.000129935 3.83839e-11 9.40177e-11 -1.26693e-10 5e-05 1.46608e-10 
27 1 0.125739 0.016491 0.00767773 0.00578933 -0.000330231 0.00013545 1.39457e-10 -7.86857e-11 5.46776e-11 5e-05 1.46608e-10 
28 1 0.13194 0.0171979 0.00757676 0.00560528 -0.00014406 0.000505222 1.49014e-10 1.30206e-10 2.22022e-10 5e-05 1.46608e-10 
29 1 0.131712 0.0160979 0.00803529 0.00612591 -0.000459241 -7.65997e-05 1.45849e-10 1.34287e-10 -1.51561e-10 5e-05 1.46608e-10 
30 1 0.132073 0.0172347 0.00745993 0.00558055 -0.000189346 0.000511943 -5.32891e-11 1.4406e-10 -1.47058e-10 5e-05 1.46608e-10 
31 1 0.131805 0.0167925 0.00758109 0.00562267 -0.000197077 0.000510979 4.42901e-11 1.38754e-10 -2.04081e-10 5e-05 1.46608e-10 
32 1 0.131861 0.0166412 0.00764456 0.00539179 -0.001173 -0.00192266 1.73923e-10 -4.66173e-10 -1.22182e-10 5e-05 1.46608e-10 
33 1 0.137808 0.0167971 0.00756216 0.00575073 0.000489963 9.26751e-05 1.58672e-10 -1.51072e-10 1.15592e-10 5e-05 1.46608e-10 
34 1 0.13196 0.0171011 0.00759216 0.00576895 -3.01267e-05 0.000470551 2.86867e-10 2.2741e-10 3.74273e-11 5e-05 1.46608e-10 
36 1 0.138037 0.0178338 0.00708757 0.00562707 0.000460585 5.72551e-05 1.34065e-12 -4.217e-12 2.55013e-12 5e-05 1.46608e-10 
37 1 0.131744 0.0165117 0.0076667 0.00561367 -0.000201843 0.000510147 -2.24452e-11 -2.12584e-10 -6.65775e-11 5e-05 1.46608e-10 
38 1 0.131901 0.0168253 0.00757816 0.00564998 -0.000176974 0.000502625 7.14112e-11 -1.05828e-10 -4.35433e-10 5e-05 1.46608e-10 
39 1 0.137979 0.0175442 0.00713951 0.00568458 0.000451049 6.04477e-05 -1.91487e-11 -4.26247e-11 -2.40623e-11 5e-05 1.46608e-10 
41 1 0.131617 0.0160805 0.00806088 0.00611493 -0.000434006 -9.78408e-05 -4.87793e-11 1.65856e-10 -1.65052e-10 5e-05 1.46608e-10 
42 1 0.131785 0.0166989 0.00760963 0.00560457 -0.000226684 0.000526004 6.58459e-11 8.98026e-11 -7.68729e-11 5e-05 1.46608e-10 
44 1 0.132015 0.0169567 0.00755609 0.00594819 1.34e-05 0.000466107 1.1765e-10 -6.19521e-11 -2.61465e-11 5e-05 1.46608e-10 
45 1 0.137846 0.0169373 0.00742464 0.00589877 0.000477371 0.000120275 8.03354e-11 7.00324e-11 -7.35015e-11 5e-05 1.46608e-10 
46 1 0.1379 0.0171696 0.00725208 0.00576194 0.000248243 -0.000520626 1.49594e-11 1.4544e-10 1.65641e-10 5e-05 1.46608e-10 
47 1 0.13166 0.016217 0.00792125 0.0061778 -0.000429273 -0.000104661 2.24555e-10 2.57342e-10 -1.91341e-10 5e-05 1.46608e-10 
48 1 0.131999 0.0168597 0.00757487 0.00594749 8.46441e-06 0.000467957 4.11565e-11 -5.74394e-11 -1.22987e-11 5e-05 1.46608e-10 
49 1 0.13788 0.0170778 0.00728644 0.00572869 0.000486263 8.40018e-05 -3.3494e-10 -3.98832e-11 -1.22803e-10 5e-05 1.46608e-10 
50 1 0.131961 0.0171065 0.00749231 0.00572802 -6.22751e-05 0.000471594 1.15928e-10 -1.22823e-10 7.00366e-11 5e-05 1.46608e-10 
51 1 0.132056 0.0171401 0.00748908 0.00575354 4.55666e-05 0.000454698 -8.11248e-11 -1.45895e-10 1.84561e-10 5e-05 1.46608e-10 
52 1 0.132172 0.0179628 0.00732185 0.00554907 -0.000102837 0.000452936 -6.81993e-11 3.3881e-11 -4.34884e-11 5e-05 1.46608e-10 
53 1 0.137939 0.0173548 0.00718787 0.00579012 0.000323183 -0.00024892 -1.24363e-11 -1.94832e-11 6.57189e-12 5e-05 1.46608e-10 
54 1 0.131669 0.0159614 0.00817493 0.00607433 -0.000456838 -7.59133e-05 1.03222e-11 1.59154e-10 -1.49904e-10 5e-05 1.46608e-10 
55 1 0.125528 0.0157473 0.00828946 0.006128 -0.000474057 0.000203545 5.61903e-11 -6.18105e-11 4.15917e-10 5e-05 1.46608e-10 
56 1 0.131764 0.0166053 0.00763816 0.00560531 -0.000227971 0.000523125 9.77508e-11 -2.9137e-10 1.57171e-10 5e-05 1.46608e-10 
57 1 0.137826 0.0168673 0.0074933 0.00583251 0.00048824 0.000104931 -7.74853e-11 -1.94918e-11 -2.84075e-11 5e-05 1.46608e-10 
59 1 0.13194 0.0165786 0.00766084 0.00612713 -7.67241e-05 0.000516684 1.42184e-10 -1.04913e-11 -8.68777e-12 5e-05 1.46608e-10 
60 1 0.13196 0.0166724 0.00763219 0.00600496 -3.67093e-05 0.000492615 1.80372e-10 -6.0661e-11 6.50261e-11 5e-05 1.46608e-10 
61 1 0.131639 0.0161488 0.00799106 0.00615185 -0.000432796 -9.64851e-05 1.7549e-10 2.11913e-10 -2.32907e-10 5e-05 1.46608e-10 
62 1 0.132331 0.0177281 0.00732144 0.0054678 -0.00013258 0.000479519 -2.46305e-10 1.17584e-12 -1.48127e-11 5e-05 1.46608e-10 
63 1 0.13198 0.0167673 0.00760812 0.00592686 -1.48746e-06 0.000470847 1.60259e-10 -6.94742e-11 2.78894e-11 5e-05 1.46608e-10 
64 1 0.137959 0.0174477 0.0071568 0.00579014 0.00042747 6.89362e-05 6.53409e-11 -4.181e-11 1.02142e-10 5e-05 1.46608e-10 
65 1 0.125779 0.0166573 0.00757401 0.00569476 -0.000298574 0.000116896 -5.09322e-11 -1.30491e-11 5.60578e-12 5e-05 1.46608e-10 
66 1 0.126048 0.0176181 0.00717363 0.00554847 -0.000279125 0.00012274 -8.64535e-12 -8.55867e-11 2.89185e-12 5e-05 1.46608e-10 
67 1 0.132152 0.0171778 0.00748456 0.00554868 -0.000219432 0.000518578 -2.90275e-10 -9.33891e-11 -3.01928e-12 5e-05 1.46608e-10 
68 1 0.13194 0.017013 0.00752075 0.00587153 -7.41185e-05 0.000487272 1.34138e-10 -1.04797e-10 3.58628e-11 5e-05 1.46608e-10 
69 1 0.131823 0.016456 0.00770836 0.00619674 -9.33793e-05 0.000532304 2.77555e-10 -1.48526e-10 -5.667e-10 5e-05 1.46608e-10 
70 1 0.131925 0.0172871 0.00753308 0.00566339 -5.07334e-05 0.000436817 5.24035e-11 5.66227e-11 1.9764e-10 5e-05 1.46608e-10 
71 1 0.125509 0.015702 0.00837641 0.00607474 -0.000479906 0.00017525 -5.38265e-10 -1.69913e-10 3.47472e-10 5e-05 1.46608e-10 
72 1 0.132125 0.0175214 0.00737163 0.00602524 -0.000251199 0.000565059 -1.24623e-10 -2.71282e-10 1.54603e-10 5e-05 1.46608e-10 
73 1 0.132222 0.0176101 0.00745429 0.00598689 3.89259e-05 0.000371882 7.17111e-11 1.0468e-10 -1.49545e-10 5e-05 1.46608e-10 
74 1 0.132101 0.0177023 0.00735916 0.00621946 -0.00020686 0.000543019 -3.33214e-10 6.93954e-11 8.62038e-11 5e-05 1.46608e-10 
76 1 0.126207 0.0186612 0.00690232 0.00613856 -0.000241965 0.00109088 6.32309e-10 2.02727e-10 1.6897e-10 5e-05 1.46608e-10 
77 1 0.132017 0.0177422 0.00739609 0.00623465 -0.000114681 0.000548309 -6.42156e-12 3.05645e-10 2.38282e-10 5e-05 1.46608e-10 
78 1 0.125613 0.0159999 0.00799801 0.00622945 -9.38052e-05 0.000559013 2.5675e-10 -1.56147e-10 -7.04799e-11 5e-05 1.46608e-10 
79 1 0.125839 0.0169066 0.00741846 0.00552312 -0.000249012 8.88379e-05 -5.19481e-11 2.17474e-11 1.04783e-12 5e-05 1.46608e-10 
80 1 0.13196 0.0174754 0.00747703 0.00610977 -3.68726e-05 0.0007578 -1.37939e-10 -1.81088e-10 -1.01562e-10 5e-05 1.46608e-10 
81 1 0.125759 0.0165742 0.00762587 0.00572389 -0.000310574 0.000123943 2.24026e-12 -2.87274e-11 1.46889e-11 5e-05 1.46608e-10 
82 1 0.125799 0.0167404 0.00752217 0.00565199 -0.000281232 0.000106634 -2.25618e-10 4.27055e-11 -3.42143e-11 5e-05 1.46608e-10 
83 1 0.125699 0.0163247 0.00778146 0.00594055 -0.000358551 0.000149843 4.07098e-10 -1.98445e-10 1.15168e-10 5e-05 1.46608e-10 
84 1 0.138057 0.0179304 0.00707026 0.00566169 0.000454412 5.9543e-05 6.62186e-12 -1.46431e-12 -5.2099e-13 5e-05 1.46608e-10 
85 1 0.131509 0.0157392 0.00840999 0.0060324 -0.000380535 -0.000146906 -1.3729e-10 -5.11482e-11 1.10813e-10 5e-05 1.46608e-10 
86 1 0.131999 0.0173017 0.00746354 0.00565417 -0.000103076 0.000494864 1.00126e-10 1.01549e-10 1.46551e-10 5e-05 1.46608e-10 
87 1 0.132092 0.0168953 0.00757087 0.00597638 4.5386e-05 0.00046783 -8.55454e-11 9.25777e-11 -6.20821e-11 5e-05 1.46608e-10 
88 1 0.132125 0.0179289 0.00724028 0.00548803 -8.09708e-05 0.000465733 -1.63582e-10 8.43051e-11 -1.81078e-11 5e-05 1.46608e-10 
89 1 0.13205 0.0175064 0.0074361 0.00608182 -0.000174498 0.000641102 -4.22685e-11 -1.07731e-10 1.88151e-10 5e-05 1.46608e-10 
90 1 0.132229 0.0175621 0.00736676 0.006031 -0.000358698 0.000594744 1.22909e-10 -2.92285e-11 9.06132e-11 5e-05 1.46608e-10 
91 1 0.131866 0.0170798 0.00752304 0.00578357 -0.000173909 0.000533924 2.92831e-11 -3.12567e-11 1.92581e-10 5e-05 1.46608e-10 
92 1 0.132229 0.0179554 0.00724002 0.00558964 -0.000145177 0.00049215 2.95739e-11 -2.4106e-11 1.14057e-11 5e-05 1.46608e-10 
93 1 0.131988 0.0176096 0.00754039 0.00620584 -1.81109e-05 0.000648135 -2.22378e-11 -2.88527e-11 -6.62085e-11 5e-05 1.46608e-10 
94 1 0.132015 0.0173986 0.00744445 0.00585644 -0.000129183 0.000567364 1.09818e-10 6.05022e-11 1.27847e-10 5e-05 1.46608e-10 
95 1 0.131927 0.0173482 0.00741168 0.00560797 -0.000157039 0.000501513 -7.35266e-11 -2.31194e-11 -3.21872e-11 5e-05 1.46608e-10 
96 1 0.131969 0.0175354 0.00735461 0.00542533 -0.000257863 0.00053411 -6.5089e-10 1.54993e-09 1.75801e-10 5e-05 1.46608e-10 
97 1 0.125953 0.0170165 0.0073489 0.00556176 -0.000293254 0.000115953 -1.61124e-10 4.09491e-11 -5.74743e-11 5e-05 1.46608e-10 
98 1 0.132158 0.0180198 0.00721353 0.00562187 -0.000119934 0.000486457 -5.83066e-11 -4.13035e-11 -5.28423e-11 5e-05 1.46608e-10 
99 1 0.125858 0.0169901 0.00736639 0.00550592 -0.000391192 0.000175153 8.38095e-12 2.63377e-11 -1.56968e-11 5e-05 1.46608e-10 
100 1 0.132184 0.0178532 0.00726936 0.00550173 -9.06021e-05 0.000465286 -2.30756e-10 6.4815e-11 -3.43538e-11 5e-05 1.46608e-10 
101 1 0.125814 0.0164344 0.00771201 0.00584435 -0.000293118 0.000111713 2.62881e-10 1.61644e-11 -1.46132e-11 5e-05 1.46608e-10 
102 1 0.0694385 0.0202053 0.00537268 3.93147e-15 4.53052e-15 -7.68244e-14 -6.07189e-22 1.1668e-21 3.78435e-23 5e-05 1.46608e-10 
104 1 0.125914 0.01685 0.00745272 0.00549538 -0.000272276 0.00010262 -1.1824e-10 1.40589e-10 -8.42148e-11 5e-05 1.46608e-10 
105 1 0.125657 0.0161589 0.0078851 0.00622932 -0.000371743 0.000205066 5.72561e-11 -4.89464e-11 2.48848e-10 5e-05 1.46608e-10 
106 1 0.12601 0.0172666 0.00719367 0.00551009 -0.000295549 0.00010185 1.10238e-10 -5.11965e-11 -1.81581e-10 5e-05 1.46608e-10 
107 1 0.126154 0.0177369 0.00715046 0.00558889 -0.000259586 0.000110515 2.67306e-11 -7.56413e-11 -4.56377e-11 5e-05 1.46608e-10 
108 1 0.131946 0.017006 0.00762029 0.00591932 -2.77158e-05 0.000482613 1.4446e-10 1.96803e-10 -2.55741e-10 5e-05 1.46608e-10 
109 1 0.131887 0.0171735 0.00749532 0.00565709 -0.000156182 0.000499687 8.46654e-11 -7.67258e-11 1.28264e-10 5e-05 1.46608e-10 
110 1 0.131948 0.0174418 0.00738314 0.00559786 -0.000328381 0.000562246 -4.65237e-10 -1.05085e-09 3.32977e-10 5e-05 1.46608e-10 
111 1 0.132105 0.0181725 0.00716004 0.00570585 -0.00013379 0.000498866 -3.8104e-11 -1.10035e-10 -3.51231e-11 5e-05 1.46608e-10 
112 1 0.125719 0.0164079 0.00772959 0.00586935 -0.000344921 0.000143638 2.17533e-10 -1.40616e-10 7.31988e-11 5e-05 1.46608e-10 
113 1 0.126028 0.0169601 0.00738299 0.00554528 -0.00029173 0.000114575 -4.00656e-11 6.84173e-11 -3.98648e-11 5e-05 1.46608e-10 
115 1 0.131907 0.0172546 0.00744022 0.00559755 -0.000161739 0.000494508 2.32619e-10 2.95298e-10 7.28965e-11 5e-05 1.46608e-10 
116 1 0.131916 0.0164857 0.00768886 0.00620575 -0.000104453 0.000536898 1.95644e-10 6.60101e-11 -1.03829e-10 5e-05 1.46608e-10 
117 1 0.131777 0.0163029 0.00782557 0.00620376 -0.000414611 -0.000125187 -8.13008e-11 1.10428e-10 -1.13577e-10 5e-05 1.46608e-10 
118 1 0.125571 0.0158521 0.00812487 0.00622488 -0.000133011 0.000507859 -4.67841e-10 2.2127e-10 3.31739e-10 5e-05 1.46608e-10 
119 1 0.132166 0.0172744 0.00745452 0.00559223 -0.000436711 0.00058837 -1.20152e-10 1.99963e-10 -1.30061e-10 5e-05 1.46608e-10 
120 1 0.131531 0.0158075 0.00834017 0.00605512 -0.000399901 -0.000131495 -1.47751e-10 7.65203e-11 -3.57097e-11 5e-05 1.46608e-10 
121 1 0.131626 0.0158248 0.00831458 0.00604985 -0.000428615 -0.000100607 9.4532e-11 -1.07717e-10 6.73435e-11 5e-05 1.46608e-10 
122 1 0.132059 0.0175951 0.00738777 0.0057814 -0.000344324 -0.00010179 1.61553e-10 2.58811e-10 2.43009e-10 5e-05 1.46608e-10 
123 1 0.125678 0.0162418 0.00783322 0.0061745 -0.000394198 0.00017085 -3.23478e-11 -1.23544e-10 1.55432e-10 5e-05 1.46608e-10 
124 1 0.132097 0.0176836 0.00745732 0.0062834 -0.000117586 0.000580489 -9.8929e-11 2.69084e-11 1.33198e-11 5e-05 1.46608e-10 
125 1 0.131648 0.0158931 0.00824475 0.00604134 -0.000451023 -7.78345e-05 1.7021e-10 1.09004e-10 -1.26637e-10 5e-05 1.46608e-10 
126 1 0.131846 0.0169832 0.00753989 0.00564075 -0.000131387 0.000480421 -3.04026e-11 6.38387e-11 -6.54703e-10 5e-05 1.46608e-10 
127 1 0.126379 0.0179108 0.00710404 0.0055858 -0.000330376 0.000126589 2.12166e-11 1.12006e-11 -9.76857e-12 5e-05 1.46608e-10 
128 1 0.1321 0.0174273 0.00739992 0.00588711 -0.000274369 0.000559613 -7.70958e-11 9.27166e-11 -1.04897e-10 5e-05 1.46608e-10 
129 1 0.131974 0.0175703 0.00744938 0.00616297 -7.122e-05 0.000685977 -9.82573e-13 -1.05103e-10 -7.09367e-11 5e-05 1.46608e-10 
131 1 0.125933 0.0169332 0.00740084 0.0055406 -0.000283006 0.000109905 -6.84987e-11 7.17787e-11 -5.02969e-11 5e-05 1.46608e-10 
132 1 0.132147 0.0176148 0.00734326 0.00608807 -0.000277771 0.000571757 -2.18404e-10 -1.36805e-10 8.4556e-11 5e-05 1.46608e-10 
133 1 0.131734 0.0161661 0.00796547 0.00615193 -0.000464296 -7.49165e-05 4.54536e-11 1.73572e-10 -2.21225e-10 5e-05 1.46608e-10 
134 1 0.132328 0.0175757 0.00737031 0.0059778 7.41304e-05 0.000454295 3.48778e-10 -1.75563e-11 -6.19832e-12 5e-05 1.46608e-10 
135 1 0.131857 0.0162566 0.00786465 0.00631306 -0.000267512 -0.000287258 -3.59539e-10 1.95603e-10 -1.54234e-10 5e-05 1.46608e-10 
136 1 0.125591 0.0159202 0.00805448 0.00623521 -2.77814e-05 0.000626709 1.30792e-10 1.32611e-10 1.25299e-10 5e-05 1.46608e-10 
137 1 0.132027 0.0178025 0.00731691 0.00550019 -0.000121113 0.000491127 3.47647e-10 3.42941e-10 5.38689e-11 5e-05 1.46608e-10 
138 1 0.132118 0.0177726 0.00729011 0.00548105 -7.53868e-05 0.000464019 1.0834e-10 -5.08515e-12 1.12281e-10 5e-05 1.46608e-10 
140 1 0.131981 0.017206 0.00748617 0.00563519 -9.1384e-05 0.000492968 6.9201e-11 -2.24629e-12 1.41618e-10 5e-05 1.46608e-10 
141 1 0.125752 0.0161846 0.00786781 0.00621082 -0.000355358 0.000145615 -6.49644e-12 -2.72576e-11 4.30096e-11 5e-05 1.46608e-10 
142 1 0.125853 0.0166007 0.00760828 0.00574011 -0.000256718 9.0385e-05 -3.61408e-11 4.5069e-11 -3.01849e-11 5e-05 1.46608e-10 
143 1 0.125635 0.016078 0.00793955 0.00625892 -0.000260478 0.000362887 -1.12394e-11 3.99061e-11 2.72562e-10 5e-05 1.46608e-10 
146 1 0.125929 0.0165441 0.0076425 0.00586395 -0.000140951 1.70027e-05 -2.93466e-11 4.23097e-11 -2.62186e-11 5e-05 1.46608e-10 
147 1 0.125549 0.0157965 0.00820489 0.00615885 -0.000356318 0.000311165 2.55905e-10 -2.68506e-10 2.87784e-10 5e-05 1.46608e-10 
148 1 0.00859061 0.0175554 0.00790181 0.00201999 0.0260975 -0.00799266 8.98618e-11 -1.78877e-10 -1.98584e-11 5e-05 1.46608e-10 
149 1 0.132193 0.0177116 0.00731576 0.00549933 -4.26208e-05 0.00045111 -2.88963e-10 -2.5355e-10 -1.93656e-11 5e-05 1.46608e-10 
150 1 0.125834 0.0165175 0.00766015 0.00576203 -0.000273339 0.000100379 1.03618e-11 8.10342e-11 -5.34998e-11 5e-05 1.46608e-10 
151 1 0.126352 0.0176413 0.00708748 0.00556556 -0.000312302 0.000130437 3.10089e-11 -1.19387e-10 2.89713e-11 5e-05 1.46608e-10 
153 1 0.125909 0.0164609 0.00769437 0.00579587 -0.000233515 7.54156e-05 -9.49969e-11 9.23784e-11 -5.72452e-11 5e-05 1.46608e-10 
154 1 0.126048 0.0174507 0.00712889 0.00554081 -0.000281082 0.000124241 6.5489e-11 -1.18978e-10 -1.51798e-11 5e-05 1.46608e-10 
155 1 0.120099 0.0177246 0.00718156 0.00545129 -0.000194285 0.000248132 1.92332e-11 -4.14366e-11 2.57161e-11 5e-05 1.46608e-10 
156 1 0.125934 0.0173239 0.00715825 0.00569441 -0.000305915 0.000118291 -8.8106e-11 -1.38417e-10 7.65327e-11 5e-05 1.46608e-10 
157 1 0.126107 0.0177374 0.00706248 0.00555671 -0.000288209 0.000124684 -6.55292e-12 1.26818e-11 -2.78794e-12 5e-05 1.46608e-10 
158 1 0.126162 0.0171544 0.00726077 0.00544361 -0.000304332 0.000123271 1.86974e-10 -1.29798e-10 1.90684e-10 5e-05 1.46608e-10 
159 1 0.132182 0.0181147 0.00718489 0.00572447 -0.000110597 0.000494244 1.46813e-10 -1.99489e-11 4.15738e-13 5e-05 1.46608e-10 
160 1 0.126012 0.0177059 0.00706887 0.00555112 -0.00027232 0.000121726 -8.78646e-12 -1.09238e-11 2.05736e-11 5e-05 1.46608e-10 
162 1 0.125972 0.0170998 0.00729695 0.00556432 -0.000299327 0.000117337 -2.9336e-10 1.22017e-10 -1.10085e-10 5e-05 1.46608e-10 
163 1 0.126181 0.0172376 0.00720883 0.00547373 -0.000304977 0.000125043 1.82145e-10 -8.72125e-11 1.7351e-10 5e-05 1.46608e-10 
164 1 0.126221 0.0178649 0.00703385 0.00558172 -0.000296944 0.000128771 4.99996e-11 -4.44174e-11 2.83168e-11 5e-05 1.46608e-10 
165 1 0.126104 0.0169045 0.00741662 0.00559736 -0.000245113 8.52177e-05 1.42492e-10 1.67171e-10 -1.0905e-10 5e-05 1.46608e-10 
166 1 0.131466 0.0156027 0.00854963 0.006026 -0.000349032 -0.000178503 3.4886e-12 -2.68852e-10 2.52681e-10 5e-05 1.46608e-10 
167 1 0.125949 0.0166272 0.00759065 0.00583436 -0.000102953 -6.22675e-06 -9.71545e-11 7.97878e-11 -4.72144e-11 5e-05 1.46608e-10 
168 1 0.126068 0.0175463 0.00710675 0.00554206 -0.000278937 0.00012176 -6.26418e-12 -3.76277e-11 1.72835e-11 5e-05 1.46608e-10 
169 1 0.126219 0.0174187 0.00713814 0.00552563 -0.000303464 0.000128794 -8.73117e-11 4.15133e-11 -4.78524e-12 5e-05 1.46608e-10 
170 1 0.126143 0.0174827 0.0071224 0.0055361 -0.000296483 0.00012625 5.16877e-12 -1.16539e-10 3.53426e-11 5e-05 1.46608e-10 
171 1 0.131878 0.016325 0.00779474 0.00639197 -0.000281034 -0.000270374 -1.0174e-10 4.3176e-10 -7.29797e-11 5e-05 1.46608e-10 
172 1 0.126419 0.0179422 0.0070178 0.00557772 -0.000313909 0.000130378 1.23505e-11 1.29734e-11 1.79081e-12 5e-05 1.46608e-10 
173 1 0.132135 0.0170835 0.00751361 0.0054996 -0.000212584 0.000507858 -1.17299e-10 3.77984e-11 -7.39169e-12 5e-05 1.46608e-10 
174 1 0.126069 0.0178623 0.00711673 0.00557879 -0.00028123 0.000126318 5.30488e-11 1.71819e-11 2.28214e-11 5e-05 1.46608e-10 
175 1 0.122843 0.0171804 0.00722569 0.00609585 0.00118586 -0.000530809 7.65912e-13 1.47201e-13 -6.60771e-14 5e-05 1.46608e-10 
176 1 0.125915 0.0172406 0.0072102 0.00566921 -0.000289223 0.000111292 6.75428e-11 -2.95306e-11 2.19124e-11 5e-05 1.46608e-10 
177 1 0.126422 0.0180431 0.00699425 0.00556845 -0.000284053 0.000123782 -7.49526e-11 3.58817e-11 -1.8744e-12 5e-05 1.46608e-10 
178 1 0.126392 0.0178325 0.00704318 0.00555643 -0.000331383 0.000134681 -3.23579e-11 5.10969e-11 -1.0926e-11 5e-05 1.46608e-10 
179 1 0.119906 0.0172189 0.00729629 0.00559022 -0.000219317 0.000259562 7.45172e-12 -2.48246e-12 9.97867e-12 5e-05 1.46608e-10 
180 1 0.126086 0.0172101 0.00722752 0.00547167 -0.000292949 0.000109639 1.6519e-10 -7.55724e-11 2.0623e-10 5e-05 1.46608e-10 
181 1 0.126124 0.0173872 0.00714452 0.00552379 -0.000294255 0.000126879 1.12359e-10 -1.12699e-10 4.98745e-11 5e-05 1.46608e-10 
182 1 0.132055 0.0167043 0.00762945 0.00596945 7.77081e-05 0.00045327 8.59081e-11 -6.32602e-11 3.25743e-11 5e-05 1.46608e-10 
183 1 0.126238 0.0175142 0.007116 0.00555457 -0.000313084 0.000129894 -1.03641e-10 8.78711e-11 -6.74642e-12 5e-05 1.46608e-10 
184 1 0.131998 0.017667 0.00745915 0.00622493 -7.5653e-05 0.000598949 1.1063e-10 -8.05272e-11 -2.5808e-11 5e-05 1.46608e-10 
185 1 0.125953 0.0174192 0.00713529 0.00554431 -0.000281892 0.000122436 2.50912e-11 -2.29386e-11 3.53427e-11 5e-05 1.46608e-10 
186 1 0.125991 0.017183 0.00724501 0.00553595 -0.000299885 0.000108257 -2.04008e-10 1.82443e-10 -8.3647e-11 5e-05 1.46608e-10 
187 1 0.132075 0.0167997 0.00760029 0.00591189 -2.38642e-05 0.000479554 1.05825e-10 -3.77512e-10 8.98338e-11 5e-05 1.46608e-10 
188 1 0.131989 0.0176291 0.00732599 0.00537742 -0.000181132 0.000477099 -1.72096e-10 -3.90096e-10 1.27953e-10 5e-05 1.46608e-10 
189 1 0.131756 0.0162345 0.00789555 0.00620408 -0.000420834 -0.000121141 6.40593e-11 1.13204e-10 -8.44091e-11 5e-05 1.46608e-10 
190 1 0.126265 0.018501 0.006897 0.00550837 -9.55119e-05 0.00097557 -2.84193e-10 4.52087e-10 1.43234e-10 5e-05 1.46608e-10 
191 1 0.132041 0.017876 0.0072506 0.00552547 -0.000158009 0.000488777 -8.93191e-11 1.23592e-10 -4.72926e-11 5e-05 1.46608e-10 
192 1 0.126029 0.0173552 0.00715103 0.00553292 -0.000286931 0.000122254 -9.47476e-11 -1.50374e-10 -1.13684e-10 5e-05 1.46608e-10 
193 1 0.132088 0.0180917 0.0072166 0.00562092 -0.000124179 0.000484983 5.9169e-11 2.29069e-11 -1.9735e-11 5e-05 1.46608e-10 
194 1 0.125874 0.0166838 0.00755644 0.00572927 -0.000204717 5.82554e-05 -2.62682e-11 1.95397e-10 -1.19843e-10 5e-05 1.46608e-10 
195 1 0.126163 0.0175783 0.00710025 0.00554047 -0.000296107 0.000126246 9.86792e-14 -8.50252e-11 7.70115e-11 5e-05 1.46608e-10 
196 1 0.125448 0.0155641 0.00863578 0.0059243 -0.000426579 0.000131921 -9.89106e-11 -2.91701e-10 4.98606e-10 5e-05 1.46608e-10 
197 1 0.126184 0.0179896 0.00708812 0.00558753 -0.000288753 0.000124362 -3.41483e-11 -5.39295e-11 6.36999e-12 5e-05 1.46608e-10 
198 1 0.125877 0.0170734 0.00731444 0.00558057 -0.000386145 0.000175815 -3.55509e-11 1.08386e-10 -6.37045e-11 5e-05 1.46608e-10 
199 1 0.125992 0.0176103 0.00709101 0.00554632 -0.000274848 0.000121449 -1.87575e-11 -6.42658e-11 1.13653e-11 5e-05 1.46608e-10 
200 1 0.125894 0.0167669 0.00750459 0.0055508 -0.000288376 0.000112188 -1.5613e-10 2.67627e-10 -1.76623e-10 5e-05 1.46608e-10 
201 1 0.126325 0.0183498 0.00692154 0.00549014 -0.000292252 0.000131693 -6.18604e-10 3.29158e-10 -3.61868e-11 5e-05 1.46608e-10 
203 1 0.132269 0.0176514 0.00734121 0.00551798 -2.86195e-05 0.000450727 4.24906e-11 1.17758e-10 -6.14868e-11 5e-05 1.46608e-10 
204 1 0.126009 0.0168769 0.00743491 0.00555758 -0.000275692 0.000103942 1.01762e-10 2.82911e-10 -1.82036e-10 5e-05 1.46608e-10 
205 1 0.126076 0.0179603 0.00709797 0.00560401 -0.000285877 0.000122704 2.07571e-11 1.30583e-11 -1.92729e-11 5e-05 1.46608e-10 
206 1 0.126087 0.0176418 0.00708462 0.00554386 -0.00028196 0.0001227 1.4422e-11 8.50673e-12 7.23408e-12 5e-05 1.46608e-10 
207 1 0.125889 0.0163778 0.00774623 0.00560672 -0.000195163 5.36741e-05 -3.71732e-10 1.76756e-10 -1.05204e-10 5e-05 1.46608e-10 
208 1 0.125973 0.0175148 0.00711315 0.00554462 -0.000277866 0.000121731 2.44769e-11 -7.90531e-11 7.4468e-11 5e-05 1.46608e-10 
209 1 0.119943 0.0173099 0.00727817 0.00554617 -0.000226575 0.000135935 -4.61596e-12 -3.83282e-11 2.59275e-11 5e-05 1.46608e-10 
210 1 0.131488 0.015671 0.00847981 0.0060273 -0.000363722 -0.000163104 6.09452e-11 -1.84787e-10 1.81357e-10 5e-05 1.46608e-10 
211 1 0.132183 0.0178075 0.00735833 0.00549903 -9.32528e-05 0.0004637 -6.73416e-11 1.66106e-10 -2.87773e-11 5e-05 1.46608e-10 
212 1 0.126372 0.0177369 0.00706533 0.00557206 -0.000305092 0.000128704 1.53299e-10 1.48081e-10 -2.84295e-11 5e-05 1.46608e-10 
213 1 0.132207 0.0174688 0.00739513 0.00593126 -0.00033794 0.000582447 -3.43104e-10 2.67613e-10 -1.0073e-10 5e-05 1.46608e-10 
214 1 0.132194 0.0176975 0.00741476 0.00556707 -3.24315e-05 0.000445111 -3.7836e-10 -1.29149e-10 -2.27312e-11 5e-05 1.46608e-10 
215 1 0.126067 0.0171266 0.00727913 0.00547746 -0.000294159 0.0001092 2.65714e-10 -1.18201e-10 1.27246e-10 5e-05 1.46608e-10 
216 1 0.126143 0.0170711 0.0073127 0.00546994 -0.000309617 0.000127899 3.24242e-10 -1.58151e-10 1.13935e-10 5e-05 1.46608e-10 
217 1 0.131899 0.0163938 0.00772444 0.00612637 -0.000366161 -0.000177176 -8.63917e-11 -3.3648e-11 -1.48444e-10 5e-05 1.46608e-10 
218 1 0.126202 0.0177693 0.00705599 0.0055695 -0.000299613 0.000128323 1.03738e-10 -6.58871e-11 1.24569e-11 5e-05 1.46608e-10 
219 1 0.132105 0.0178736 0.00732745 0.00552738 -0.000131566 0.000480079 -1.71445e-10 -2.66222e-11 1.75478e-11 5e-05 1.46608e-10 
220 1 0.126047 0.0170434 0.00733106 0.00550794 -0.000293187 0.000113728 2.14407e-10 -7.84056e-11 4.78362e-11 5e-05 1.46608e-10 
221 1 0.119807 0.0167602 0.00745644 0.00557392 -0.000384915 -5.20737e-05 1.22662e-11 5.01817e-12 3.1831e-11 5e-05 1.46608e-10 
222 1 0.131682 0.0162853 0.00785142 0.00619579 -0.000417581 -0.000116551 2.21618e-10 1.18752e-10 -2.05604e-10 5e-05 1.46608e-10 
223 1 0.126105 0.017295 0.00717822 0.0054984 -0.000290077 0.000124404 2.10792e-10 -9.25411e-11 2.26498e-10 5e-05 1.46608e-10 
224 1 0.125896 0.0171571 0.00726229 0.00559518 -0.00049416 0.000241975 -1.37232e-11 -3.2889e-10 1.99287e-10 5e-05 1.46608e-10 
225 1 0.132205 0.0173736 0.00742568 0.00573472 -0.000303716 0.000560813 2.16323e-10 -2.38838e-10 1.62385e-10 5e-05 1.46608e-10 
226 1 0.126123 0.0169878 0.00736464 0.00547444 -0.000313963 0.000128941 2.05009e-10 -7.89987e-11 4.14239e-11 5e-05 1.46608e-10 
227 1 0.119866 0.017028 0.00734081 0.00559227 -0.000220254 0.000258363 -8.97298e-12 3.81068e-11 -1.03318e-11 5e-05 1.46608e-10 
228 1 0.0507861 0.0189683 0.00558458 -5.32804e-15 -1.91061e-14 -2.87014e-13 4.41143e-22 -9.54747e-23 -1.44757e-24 5e-05 1.46608e-10 
229 1 0.125708 0.0160197 0.00797447 0.00627677 -6.13357e-05 0.000653393 -5.79864e-12 -5.34128e-11 1.03843e-10 5e-05 1.46608e-10 
230 1 0.126169 0.0180937 0.00706788 0.00558739 -0.000288487 0.000136288 -1.31284e-11 -2.58489e-11 8.52362e-11 5e-05 1.46608e-10 
231 1 0.197479 0.018695 0.00523156 -1.09963e-15 -2.69837e-14 1.45242e-13 -3.73189e-22 1.13737e-23 -4.1359e-25 5e-05 1.46608e-10 
232 1 0.12573 0.0161007 0.0079202 0.00623029 -0.000388602 0.000168432 5.49234e-11 -8.45817e-11 4.2123e-11 5e-05 1.46608e-10 
233 1 0.125989 0.0167937 0.00748681 0.00551373 -0.000248397 8.75606e-05 -3.74422e-10 -2.58298e-11 5.93662e-12 5e-05 1.46608e-10 
234 1 0.131423 0.0154662 0.00868928 0.00599193 -0.000336665 -0.000187786 -1.33218e-10 -3.89666e-10 3.98253e-10 5e-05 1.46608e-10 
235 1 0.126242 0.0184052 0.00691451 0.00553598 -0.000188604 0.000479925 7.27524e-11 2.49378e-10 5.20316e-10 5e-05 1.46608e-10 
236 1 0.126187 0.018564 0.00688918 0.00554164 -0.000113762 0.000961212 -6.50749e-10 -2.73638e-10 4.824e-11 5e-05 1.46608e-10 
237 1 0.126184 0.0181225 0.00697324 0.00557966 -0.000303401 0.000130255 3.67415e-11 1.16345e-10 3.25981e-11 5e-05 1.46608e-10 
238 1 0.119945 0.0174065 0.0072525 0.00543025 -0.000197173 0.000248162 1.89523e-11 -3.57949e-11 4.04807e-11 5e-05 1.46608e-10 
239 1 0.119712 0.0163984 0.00778751 0.00560228 -0.000137783 0.000156363 -3.27131e-10 -7.74274e-11 -5.35195e-12 5e-05 1.46608e-10 
240 1 0.119788 0.0166825 0.00751645 0.00566484 -0.000432941 -8.60484e-05 1.08525e-10 -4.32828e-11 1.61153e-11 5e-05 1.46608e-10 
241 1 0.119731 0.0164689 0.00771919 0.00554363 -0.00040171 -0.00011527 3.52441e-11 2.34521e-10 2.24612e-10 5e-05 1.46608e-10 
242 1 0.120081 0.0176289 0.00720392 0.00547674 -0.000199313 0.000249538 1.21738e-11 2.26458e-12 5.00311e-12 5e-05 1.46608e-10 
243 1 0.119691 0.0163333 0.00786034 0.00609124 -0.000213973 0.000249407 1.84412e-10 3.02765e-11 2.82626e-11 5e-05 1.46608e-10 
244 1 0.11975 0.0165402 0.00765158 0.00565406 -0.000430391 -9.67311e-05 -1.64129e-10 6.3688e-12 -6.74917e-11 5e-05 1.46608e-10 
245 1 0.119962 0.0175026 0.00727423 0.00539036 -0.000179272 0.000207886 6.87936e-11 4.95382e-12 -1.93376e-10 5e-05 1.46608e-10 
246 1 0.119828 0.0168449 0.00740753 0.00545761 -0.000289294 6.45331e-05 6.76491e-11 2.15718e-11 4.07596e-11 5e-05 1.46608e-10 
247 1 0.126258 0.0176098 0.00709387 0.00556617 -0.000315248 0.000130626 1.12637e-10 1.93456e-11 -1.58229e-11 5e-05 1.46608e-10 
248 1 0.126297 0.0178009 0.00704959 0.00556963 -0.000307488 0.000129502 5.83655e-11 3.01095e-11 -1.79274e-12 5e-05 1.46608e-10 