ITEM: TIMESTEP
32400000
ITEM: NUMBER OF ATOMS
211
ITEM: BOX BOUNDS ff ff ff
-0.02 0.43
-0.02 0.06
-0.02 0.07
ITEM: ATOMS id type x y z vx vy vz fx fy fz radius mass 
1 1 0.202375 0.0179129 0.00706555 0.00582109 1.64401e-05 0.000355756 -6.80039e-10 6.20335e-10 -4.17002e-10 5e-05 1.46608e-10 
2 1 0.201997 0.0177917 0.00711291 0.00557046 0.00027568 0.000177802 -3.63752e-10 -1.57836e-10 -8.0397e-12 5e-05 1.46608e-10 
3 1 0.190103 0.0182914 0.00690426 0.00573223 0.000341996 3.90297e-05 -1.20126e-11 -3.23399e-11 1.20656e-11 5e-05 1.46608e-10 
4 1 0.201748 0.0163758 0.007928 0.00604199 0.000205322 0.000258212 5.27985e-11 2.61077e-10 -1.53887e-10 5e-05 1.46608e-10 
5 1 0.202148 0.0176813 0.00718719 0.00546686 0.000102723 0.00028342 -2.93954e-10 -1.89138e-10 8.52284e-11 5e-05 1.46608e-10 
6 1 0.207759 0.0167126 0.0075967 0.00566224 -0.000316683 -4.2434e-05 2.32807e-11 -1.48088e-11 9.25286e-12 5e-05 1.46608e-10 
7 1 0.201528 0.0158381 0.0082316 0.00619964 0.00012098 0.000245785 4.43984e-11 -1.56899e-10 -1.18021e-10 5e-05 1.46608e-10 
8 1 0.20161 0.0161786 0.0080391 0.00609798 0.000161397 0.000284809 1.16235e-10 1.81749e-10 -5.10804e-11 5e-05 1.46608e-10 
9 1 0.20795 0.0175489 0.00711909 0.00556966 -8.26628e-05 0.000193858 1.97007e-11 2.72869e-11 -3.11122e-11 5e-05 1.46608e-10 
10 1 0.201546 0.0159232 0.00818241 0.00617451 0.000150253 0.000291113 1.17739e-10 -5.16916e-11 -7.75339e-11 5e-05 1.46608e-10 
11 1 0.201569 0.0160071 0.00813312 0.0061519 0.000155954 0.000296108 2.10479e-11 5.78345e-11 -3.4286e-11 5e-05 1.46608e-10 
13 1 0.20194 0.0175361 0.00725934 0.00535698 0.000225933 0.000201883 -3.64645e-10 6.66083e-11 -1.42826e-10 5e-05 1.46608e-10 
15 1 0.202017 0.0177943 0.00721073 0.00565567 0.000183801 0.000141574 -7.37031e-10 -4.38821e-11 3.95734e-10 5e-05 1.46608e-10 
17 1 0.201959 0.0172261 0.00744238 0.00527588 0.000127584 0.000257204 7.16919e-10 1.91831e-10 -3.63305e-11 5e-05 1.46608e-10 
18 1 0.207989 0.0177374 0.0070647 0.00558544 -0.000114589 0.000203132 1.16812e-10 -2.17141e-10 1.54675e-10 5e-05 1.46608e-10 
19 1 0.201381 0.0154453 0.00876163 0.00601703 -0.000256033 -0.000212107 -1.82272e-10 -1.81805e-10 4.32863e-10 5e-05 1.46608e-10 
20 1 0.202207 0.0183599 0.00688233 0.00549119 -3.47011e-05 0.000250372 -1.20262e-11 1.29292e-09 5.67193e-10 5e-05 1.46608e-10 
21 1 0.201401 0.0154798 0.00866992 0.00608384 -0.000266768 -0.000194819 2.5885e-10 -8.65703e-11 3.17777e-10 5e-05 1.46608e-10 
22 1 0.202262 0.0177972 0.00712631 0.00566618 -8.27471e-05 0.000401534 -7.13643e-10 -2.70381e-10 1.93487e-10 5e-05 1.46608e-10 
23 1 0.195996 0.0177755 0.00704187 0.00570352 0.000130542 -0.000207598 2.33622e-11 -4.13103e-11 4.72627e-11 5e-05 1.46608e-10 
24 1 0.20793 0.0174547 0.00714629 0.00556123 -8.89458e-05 0.000195873 3.40663e-11 1.32675e-10 -3.93418e-11 5e-05 1.46608e-10 
25 1 0.201997 0.0173965 0.00734476 0.00537321 0.000262589 0.000181382 -1.93039e-10 3.27814e-10 -1.84001e-10 5e-05 1.46608e-10 
26 1 0.207835 0.0170166 0.00734832 0.00554917 -0.000249083 -2.33862e-06 3.20857e-11 -5.45512e-11 -1.18696e-11 5e-05 1.46608e-10 
28 1 0.202188 0.0182624 0.00689396 0.00545847 -0.000176677 0.000297967 -1.39052e-09 4.63129e-10 -1.06452e-09 5e-05 1.46608e-10 
29 1 0.201919 0.0170553 0.00754011 0.00565549 0.000417703 0.000108827 4.19369e-10 -3.35956e-10 2.18472e-10 5e-05 1.46608e-10 
30 1 0.201959 0.0176213 0.00721053 0.00548545 0.000232526 0.000203334 2.60659e-10 8.59967e-11 -1.08219e-10 5e-05 1.46608e-10 
31 1 0.201589 0.0160922 0.00808441 0.00612576 0.000157129 0.000290763 3.19882e-11 1.29146e-10 -4.62174e-11 5e-05 1.46608e-10 
32 1 0.201898 0.0169698 0.00758889 0.00594278 0.000417512 0.000127458 4.42281e-10 -2.62222e-10 1.80198e-10 5e-05 1.46608e-10 
33 1 0.207778 0.0167885 0.00753453 0.00569605 -0.000326227 -3.76301e-05 -1.13693e-10 -3.27633e-11 1.6265e-11 5e-05 1.46608e-10 
34 1 0.201823 0.0170253 0.00755167 0.0057336 0.000189188 0.000246051 -7.30642e-11 -5.37828e-10 3.08167e-10 5e-05 1.46608e-10 
36 1 0.207969 0.0176432 0.0070919 0.0055692 -8.8042e-05 0.000193744 -1.3776e-10 -2.60507e-10 9.33452e-11 5e-05 1.46608e-10 
37 1 0.201727 0.016291 0.00797644 0.00605181 0.000193279 0.000265658 1.74122e-10 3.03273e-10 -1.72155e-10 5e-05 1.46608e-10 
38 1 0.20213 0.0175961 0.00723603 0.00539863 0.000109255 0.000274011 -2.87883e-10 1.6644e-10 -1.15661e-10 5e-05 1.46608e-10 
39 1 0.207911 0.0173605 0.00717348 0.00554904 -9.34127e-05 0.000197063 6.4465e-11 -5.8124e-12 6.83764e-12 5e-05 1.46608e-10 
41 1 0.201439 0.0155492 0.00848618 0.00620572 -0.000275416 -0.000191157 -3.28251e-10 -1.97602e-11 -1.03284e-10 5e-05 1.46608e-10 
42 1 0.202111 0.0175109 0.00728481 0.00542106 0.000105683 0.00027773 -8.03568e-10 3.24813e-10 -2.48325e-10 5e-05 1.46608e-10 
44 1 0.202034 0.0179622 0.0070153 0.00569342 0.000317764 0.000174002 -1.20846e-09 5.13475e-10 -5.50328e-10 5e-05 1.46608e-10 
45 1 0.207816 0.0169403 0.00741015 0.00552123 -0.000292554 -5.34854e-05 1.72429e-11 -6.15753e-12 4.52691e-12 5e-05 1.46608e-10 
47 1 0.201484 0.0156782 0.00834232 0.00623396 -1.65765e-05 7.10514e-05 -9.50793e-12 2.61309e-10 1.7266e-10 5e-05 1.46608e-10 
49 1 0.207854 0.0170941 0.00728786 0.00564556 -0.000167078 0.000126921 -4.31733e-11 2.16626e-11 3.70286e-11 5e-05 1.46608e-10 
50 1 0.202323 0.0184904 0.00689748 0.00598294 -0.000333397 0.000227261 -6.15427e-10 -1.80771e-10 -3.40308e-11 5e-05 1.46608e-10 
51 1 0.196172 0.0186265 0.00685593 0.00627902 7.98375e-05 -0.000137139 7.67991e-12 5.64069e-11 -3.31511e-12 5e-05 1.46608e-10 
52 1 0.202226 0.0184577 0.006891 0.005772 5.69572e-05 0.00022566 -1.74277e-09 1.09413e-09 5.46119e-11 5e-05 1.46608e-10 
53 1 0.207871 0.0171721 0.0072278 0.00570618 -0.000118535 0.000208412 5.73601e-11 -5.94618e-11 -9.05558e-12 5e-05 1.46608e-10 
54 1 0.202282 0.0182935 0.00687992 0.0056378 -0.000149312 0.000217208 -7.64532e-10 -9.42594e-11 -5.14044e-11 5e-05 1.46608e-10 
55 1 0.195958 0.0176047 0.00713881 0.00562568 0.000179626 -0.000169753 2.12523e-11 -7.77743e-11 3.98238e-11 5e-05 1.46608e-10 
56 1 0.202186 0.0178517 0.00708959 0.00559406 -5.67293e-06 0.000341956 -9.62773e-10 -2.33027e-10 3.73795e-10 5e-05 1.46608e-10 
57 1 0.207797 0.0168643 0.00747237 0.00575916 -0.000333157 -3.36567e-05 -2.13058e-11 1.93784e-10 -6.22326e-11 5e-05 1.46608e-10 
59 1 0.201978 0.0173113 0.00739358 0.00536827 0.000172835 0.000235725 -2.12748e-10 3.78893e-10 -2.08602e-10 5e-05 1.46608e-10 
60 1 0.20238 0.0183284 0.0068866 0.00548244 0.000124943 0.000242933 -5.20107e-10 6.3546e-10 -1.79016e-10 5e-05 1.46608e-10 
61 1 0.20146 0.0156045 0.00840558 0.00624158 -0.00018722 -0.000126097 1.33047e-10 2.37156e-10 4.42096e-11 5e-05 1.46608e-10 
62 1 0.201978 0.0177065 0.00716172 0.00554795 0.00024277 0.000195616 -1.0318e-10 -1.35912e-10 1.40133e-11 5e-05 1.46608e-10 
63 1 0.201674 0.0164314 0.00789072 0.00603144 0.000198809 0.000261296 4.04084e-11 2.1215e-10 -1.16691e-10 5e-05 1.46608e-10 
64 1 0.207891 0.0172663 0.00720066 0.00570547 -0.00012315 0.000210068 6.64736e-11 -1.22457e-10 2.84688e-11 5e-05 1.46608e-10 
65 1 0.195623 0.0161513 0.00793022 0.0060902 -4.48436e-05 -0.000312166 -2.72683e-11 4.84979e-11 -4.04277e-11 5e-05 1.46608e-10 
66 1 0.195535 0.01587 0.00820079 0.00625189 -7.11445e-05 -0.000279134 7.2912e-11 6.06592e-12 -1.23445e-11 5e-05 1.46608e-10 
67 1 0.20213 0.0184239 0.00688453 0.00565944 0.000207479 0.000232926 -8.2712e-10 7.66911e-10 5.78901e-10 5e-05 1.46608e-10 
69 1 0.202281 0.0178824 0.00707751 0.00569906 -4.80487e-05 0.000387559 -9.88228e-10 -4.32315e-10 1.57954e-10 5e-05 1.46608e-10 
70 1 0.202247 0.0185558 0.0068998 0.00605749 -0.000157017 0.000195954 -6.33868e-10 -2.52247e-11 -1.25015e-10 5e-05 1.46608e-10 
72 1 0.201791 0.0165455 0.00783112 0.00596507 0.000213257 0.000248746 -1.25012e-11 1.65846e-10 -9.80291e-11 5e-05 1.46608e-10 
73 1 0.201717 0.0166011 0.00779385 0.00598464 0.00022398 0.00024365 -2.15616e-11 5.63494e-11 -3.33275e-11 5e-05 1.46608e-10 
74 1 0.202149 0.0185218 0.00689315 0.00577167 0.000233093 0.000228352 -1.04452e-09 9.33073e-10 1.38771e-11 5e-05 1.46608e-10 
76 1 0.145405 0.0205718 0.00539992 7.42174e-15 9.12662e-15 -2.35015e-13 2.06149e-22 -1.41887e-22 1.03398e-24 5e-05 1.46608e-10 
77 1 0.202111 0.018324 0.00687564 0.00584325 0.00056635 0.000268986 -6.06993e-10 2.1746e-09 -1.17096e-11 5e-05 1.46608e-10 
78 1 0.196208 0.0183657 0.00687003 0.00571509 0.000208083 -0.000134401 -1.72608e-10 -2.86988e-11 9.41237e-12 5e-05 1.46608e-10 
80 1 0.20217 0.0186192 0.00690186 0.00630181 0.000189516 0.000279663 -1.06161e-09 -1.56862e-09 -1.40851e-11 5e-05 1.46608e-10 
81 1 0.195803 0.016896 0.00747416 0.00573384 0.000314094 0.000124874 4.70623e-11 1.26714e-11 5.84027e-13 5e-05 1.46608e-10 
82 1 0.195721 0.0165404 0.00763784 0.00583825 0.000294214 0.000139927 3.23193e-11 1.85413e-11 1.46426e-11 5e-05 1.46608e-10 
84 1 0.208008 0.0178316 0.00703751 0.00563098 -0.000123845 0.000242959 9.96339e-10 5.87292e-11 -2.34499e-11 5e-05 1.46608e-10 
85 1 0.20142 0.0155145 0.00857811 0.00612974 -0.00026904 -0.000190034 -6.53452e-10 8.04025e-11 -3.58795e-11 5e-05 1.46608e-10 
86 1 0.202359 0.0182326 0.00690704 0.00577388 4.61909e-05 0.000327408 -3.2884e-10 9.32836e-10 -8.85585e-11 5e-05 1.46608e-10 
87 1 0.201883 0.0172805 0.00740576 0.00537954 0.000209284 0.000215999 2.16691e-10 -9.45032e-11 5.43782e-11 5e-05 1.46608e-10 
88 1 0.202302 0.0183923 0.00688869 0.00558651 4.82662e-05 0.000221201 -7.88157e-10 -1.24411e-10 -1.10958e-11 5e-05 1.46608e-10 
90 1 0.202319 0.0180527 0.00698007 0.00591088 -1.09379e-05 0.00040707 -5.38571e-11 1.05518e-10 -3.2772e-10 5e-05 1.46608e-10 
91 1 0.201844 0.0171103 0.00750316 0.0054715 0.000211462 0.000218708 -3.92508e-11 -5.15479e-10 2.98376e-10 5e-05 1.46608e-10 
92 1 0.202148 0.0180787 0.00695407 0.0056082 8.45572e-05 0.000307249 -6.12606e-10 3.02067e-11 -7.67533e-11 5e-05 1.46608e-10 
93 1 0.208028 0.0179279 0.0070188 0.00563574 -0.00029286 -0.000860926 -3.48242e-10 -2.61158e-10 -6.00389e-11 5e-05 1.46608e-10 
94 1 0.2023 0.0179676 0.00702873 0.00583165 -2.09439e-05 0.000397472 -1.09834e-09 -4.98206e-10 -1.85078e-12 5e-05 1.46608e-10 
95 1 0.201738 0.016686 0.00774542 0.00595765 0.000231179 0.000237653 -5.53796e-11 -6.25688e-11 3.04952e-11 5e-05 1.46608e-10 
96 1 0.201759 0.0167708 0.00769698 0.00592895 0.000232208 0.00023512 -2.49566e-11 -1.96065e-10 1.16213e-10 5e-05 1.46608e-10 
98 1 0.202395 0.017998 0.00701686 0.00595575 3.59862e-05 0.000351129 -6.68654e-10 6.07046e-10 -4.32582e-10 5e-05 1.46608e-10 
99 1 0.196166 0.0177451 0.00705456 0.0057145 9.15196e-05 -0.000185624 3.71787e-11 -6.81742e-11 8.30212e-11 5e-05 1.46608e-10 
101 1 0.195862 0.0171631 0.00735115 0.00559916 0.000336679 0.000108093 1.05506e-11 -4.77214e-11 1.63065e-11 5e-05 1.46608e-10 
102 1 0.0694385 0.0202053 0.00537268 3.95878e-15 4.47576e-15 -7.68262e-14 -4.30806e-22 1.15834e-21 4.3427e-23 5e-05 1.46608e-10 
104 1 0.0249839 0.0195037 0.00542543 -3.58902e-15 -5.77604e-16 5.85127e-14 3.61892e-25 -5.8145e-24 0 5e-05 1.46608e-10 
106 1 0.190044 0.0180058 0.00697444 0.00573931 0.000324039 4.3709e-05 1.67776e-11 1.86077e-11 -1.1601e-12 5e-05 1.46608e-10 
107 1 0.195701 0.0164535 0.00768317 0.00552361 0.000240971 -9.45744e-05 -9.58784e-13 -3.84547e-12 6.22303e-12 5e-05 1.46608e-10 
108 1 0.201876 0.0168849 0.00763737 0.00589686 0.000234022 0.000232132 2.47144e-10 -1.55389e-10 1.08181e-10 5e-05 1.46608e-10 
110 1 0.202453 0.01826 0.00688395 0.00568682 0.000208843 0.000232343 -2.23475e-10 7.07488e-11 5.29467e-11 5e-05 1.46608e-10 
111 1 0.195882 0.0172523 0.00731039 0.00556746 0.000342336 0.000103662 -4.12345e-11 -5.22183e-11 1.55624e-11 5e-05 1.46608e-10 
112 1 0.195642 0.0162216 0.00786162 0.00570577 2.93423e-05 -0.000343604 3.34856e-11 2.76103e-11 -2.0275e-11 5e-05 1.46608e-10 
115 1 0.201802 0.0169405 0.00760011 0.00587526 0.000200837 0.000249945 -1.53826e-10 -5.38865e-10 2.98732e-10 5e-05 1.46608e-10 
116 1 0.202399 0.018426 0.00689507 0.00636178 3.89094e-05 -0.000261037 -2.08065e-10 3.24445e-10 -1.31103e-09 5e-05 1.46608e-10 
117 1 0.20234 0.0181377 0.00693146 0.00584673 2.72665e-05 0.000383856 -8.12907e-11 9.11041e-10 -3.16967e-10 5e-05 1.46608e-10 
118 1 0.195784 0.016807 0.0075152 0.00579146 0.000304356 0.00013281 -1.21488e-11 -1.38155e-11 4.94202e-12 5e-05 1.46608e-10 
119 1 0.202192 0.0187164 0.0069106 0.0061656 -3.37316e-05 0.000175196 -1.9709e-09 -5.29332e-09 6.33677e-13 5e-05 1.46608e-10 
120 1 0.201362 0.0154107 0.00885344 0.00594048 -0.000247177 -0.000225953 -2.26855e-10 -2.7152e-10 5.7591e-10 5e-05 1.46608e-10 
121 1 0.202415 0.018083 0.00696824 0.00598598 8.18618e-05 0.000312044 -6.97683e-10 6.28207e-10 -3.86121e-10 5e-05 1.46608e-10 
122 1 0.202243 0.0181073 0.00694324 0.00574781 -8.13866e-05 0.000421835 -3.67562e-10 -5.64949e-12 -2.38279e-10 5e-05 1.46608e-10 
124 1 0.202072 0.0181326 0.00691769 0.00580309 0.00038607 0.000152288 1.18278e-09 1.61381e-09 -5.72018e-10 5e-05 1.46608e-10 
125 1 0.20177 0.0164607 0.00787956 0.00600358 0.000203181 0.000257024 4.88144e-11 2.16618e-10 -1.26334e-10 5e-05 1.46608e-10 
126 1 0.201653 0.0163466 0.00793916 0.00604778 0.000185167 0.000270242 9.46208e-11 2.19398e-10 -1.26741e-10 5e-05 1.46608e-10 
127 1 0.196128 0.0175735 0.00715044 0.00561839 9.92421e-05 -0.000188409 1.70014e-11 -7.34023e-11 2.76516e-11 5e-05 1.46608e-10 
128 1 0.202091 0.0178227 0.00710067 0.00555523 0.000245143 0.000209791 2.27281e-10 2.88497e-10 -2.41789e-10 5e-05 1.46608e-10 
129 1 0.196054 0.0180418 0.00691742 0.00578585 0.000234736 4.07102e-05 -1.2345e-11 6.01359e-11 -3.76924e-11 5e-05 1.46608e-10 
131 1 0.195977 0.0176897 0.00708975 0.00566478 0.00014122 -0.00021423 -1.29446e-11 -7.85269e-11 2.95605e-11 5e-05 1.46608e-10 
132 1 0.201864 0.0171953 0.00745453 0.00535387 0.00020901 0.000213082 1.19668e-11 -3.40555e-10 2.07904e-10 5e-05 1.46608e-10 
133 1 0.202345 0.0185878 0.00690328 0.00613357 -0.000307086 -0.000162264 -7.00111e-10 -3.10294e-11 5.2585e-11 5e-05 1.46608e-10 
134 1 0.20211 0.017908 0.00705181 0.0056027 0.000166696 0.000243274 -5.28975e-10 6.14346e-10 -3.32749e-10 5e-05 1.46608e-10 
135 1 0.201695 0.0165163 0.00784229 0.00600932 0.000212403 0.000251763 8.27542e-12 1.44071e-10 -8.4385e-11 5e-05 1.46608e-10 
136 1 0.196034 0.017546 0.00716793 0.00559732 0.000126815 -0.000204003 4.18314e-11 -8.52286e-11 1.29415e-11 5e-05 1.46608e-10 
137 1 0.202129 0.0179932 0.00700301 0.00559828 0.000189081 0.000240386 -1.8548e-10 5.61399e-10 -3.40068e-10 5e-05 1.46608e-10 
138 1 0.201781 0.0168557 0.00764854 0.00590648 0.000223618 0.00023899 1.35682e-11 -3.84282e-10 2.26869e-10 5e-05 1.46608e-10 
140 1 0.202053 0.0180474 0.00696651 0.00578725 0.000337983 0.000169481 6.77782e-10 8.47216e-10 -4.17383e-10 5e-05 1.46608e-10 
141 1 0.195683 0.016369 0.00773309 0.00490975 0.000178704 -0.000428242 5.1057e-12 -4.46112e-11 -1.83654e-11 5e-05 1.46608e-10 
143 1 0.393994 0.0150325 6.48596e-05 -2.1271e-21 1.6267e-21 -1.45327e-21 0 0 0 5e-05 1.46608e-10 
146 1 0.196186 0.0178307 0.00700673 0.00573759 9.06743e-05 -0.000186768 3.18645e-11 -8.18314e-11 5.88781e-11 5e-05 1.46608e-10 
147 1 0.196035 0.0179506 0.00695374 0.00576281 0.000206814 -2.41887e-05 -1.06975e-11 3.14019e-11 -9.11251e-12 5e-05 1.46608e-10 
148 1 0.00853673 0.0175869 0.00789241 -4.39834e-10 -0.0223009 0.00903239 4.30938e-19 8.16873e-12 2.02242e-11 5e-05 1.46608e-10 
149 1 0.202016 0.0174818 0.00729595 0.00535926 0.000350457 0.000129493 -1.02257e-09 1.24725e-10 -1.36831e-10 5e-05 1.46608e-10 
150 1 0.195514 0.0157998 0.00826858 0.0062519 -7.01686e-05 -0.00028033 6.14565e-11 1.93639e-11 -3.04954e-11 5e-05 1.46608e-10 
151 1 0.196169 0.0181716 0.00689871 0.00573971 0.000219926 3.59893e-05 -1.60365e-10 2.05615e-10 1.5987e-11 5e-05 1.46608e-10 
154 1 0.196053 0.0176317 0.00712006 0.00563906 0.000118307 -0.00020049 1.04611e-11 -7.24876e-11 8.95326e-12 5e-05 1.46608e-10 
155 1 0.190122 0.0183866 0.00688086 0.00573623 0.000353697 3.65159e-05 1.68877e-11 -4.22242e-11 1.13982e-11 5e-05 1.46608e-10 
157 1 0.19592 0.0174304 0.00722794 0.00557993 0.000339828 0.000105856 1.7964e-11 -4.34495e-11 1.68936e-11 5e-05 1.46608e-10 
165 1 0.196189 0.0182685 0.00688386 0.0057224 0.0002254 3.59458e-05 -3.13367e-10 6.81389e-11 -8.50007e-11 5e-05 1.46608e-10 
166 1 0.201706 0.0162062 0.00802487 0.006086 0.000183634 0.000273064 2.49279e-10 2.63587e-10 -1.33174e-10 5e-05 1.46608e-10 
168 1 0.264689 0.0178796 0.00777693 -1.49705e-10 -0.0230004 0.0072616 -1.84888e-18 6.59789e-12 2.08454e-11 5e-05 1.46608e-10 
171 1 0.201631 0.0162618 0.0079876 0.00607287 0.000170679 0.000279964 1.03618e-10 2.07502e-10 -1.12715e-10 5e-05 1.46608e-10 
172 1 0.196072 0.0177174 0.00707215 0.00566696 9.5632e-05 -0.000188488 1.08209e-11 -7.1435e-11 5.23847e-11 5e-05 1.46608e-10 
176 1 0.195601 0.0160807 0.00799743 0.00626806 -7.19372e-05 -0.000280622 1.58969e-11 3.52095e-11 -4.6072e-11 5e-05 1.46608e-10 
177 1 0.195662 0.0162921 0.00779366 0.00530742 0.000100222 -0.000390373 -1.49051e-11 -1.28016e-11 -2.96504e-12 5e-05 1.46608e-10 
179 1 0.190024 0.0179105 0.00699783 0.00574009 0.000321197 4.45618e-05 -5.30362e-11 -9.19587e-12 9.02365e-13 5e-05 1.46608e-10 
181 1 0.195579 0.0160105 0.00806522 0.00626623 -7.0926e-05 -0.000280442 3.24817e-11 2.21457e-11 -1.72958e-11 5e-05 1.46608e-10 
182 1 0.201855 0.0168001 0.00768581 0.00592166 0.000265135 0.000215458 2.58903e-10 1.02756e-11 1.11736e-11 5e-05 1.46608e-10 
184 1 0.202015 0.017877 0.00706411 0.00563472 0.000287382 0.000176732 -2.56811e-10 2.0752e-11 -2.5265e-10 5e-05 1.46608e-10 
187 1 0.202034 0.017567 0.00724714 0.00568973 0.000411277 0.000114914 -8.26155e-10 7.80129e-11 -1.02791e-10 5e-05 1.46608e-10 
188 1 0.202264 0.0181995 0.00691061 0.00569959 -1.34979e-05 0.000412742 -1.47091e-10 6.406e-10 -1.44651e-09 5e-05 1.46608e-10 
189 1 0.202167 0.0177665 0.00713839 0.00552804 8.37383e-05 0.000297373 -3.1712e-10 -7.08926e-10 4.39757e-10 5e-05 1.46608e-10 
191 1 0.201902 0.0173657 0.00735697 0.00543123 0.000199977 0.000223459 -1.17671e-10 7.50357e-11 -5.80412e-11 5e-05 1.46608e-10 
192 1 0.192774 0.0169945 0.00728683 0.00567233 -0.000838001 0.000333031 6.37071e-13 -9.52029e-14 3.52196e-14 5e-05 1.46608e-10 
193 1 0.204929 0.0177139 0.00703192 0.00548498 -0.0011849 0.00033903 2.69948e-13 -5.99767e-14 1.93687e-14 5e-05 1.46608e-10 
197 1 0.195492 0.0157295 0.00833637 0.006245 -6.7857e-05 -0.000282313 -2.80936e-11 1.90669e-11 -1.5639e-11 5e-05 1.46608e-10 
198 1 0.196111 0.0178895 0.00697744 0.00574606 0.000137571 -0.000124988 1.26792e-11 8.72393e-11 1.94093e-10 5e-05 1.46608e-10 
200 1 0.196151 0.0185288 0.00686193 0.00569994 0.000214748 -0.000133582 8.68683e-11 6.40457e-11 2.58774e-11 5e-05 1.46608e-10 
201 1 0.196074 0.0181388 0.00690258 0.0057725 0.000235887 3.55477e-05 1.19443e-11 3.95006e-11 -8.97756e-11 5e-05 1.46608e-10 
203 1 0.201921 0.0174509 0.00730814 0.0054061 0.000197446 0.000217633 -8.84382e-11 3.4789e-11 -3.09689e-11 5e-05 1.46608e-10 
204 1 0.190005 0.0178153 0.00702123 0.0057413 0.000316235 4.61513e-05 -1.78248e-11 2.7951e-11 -5.12551e-12 5e-05 1.46608e-10 
206 1 0.190064 0.018101 0.00695104 0.00573475 0.000326501 4.29267e-05 2.8738e-11 2.46513e-11 -7.07297e-12 5e-05 1.46608e-10 
207 1 0.060646 0.0186723 0.00546139 1.16293e-15 5.1859e-15 3.71388e-14 -1.01847e-23 3.28287e-24 0 5e-05 1.46608e-10 
208 1 0.196015 0.0178619 0.00699545 0.0057346 0.000153525 -0.000144679 1.24447e-11 -1.90377e-11 3.28473e-11 5e-05 1.46608e-10 
209 1 0.189834 0.0170367 0.00740351 0.00552446 9.91265e-05 -0.000350001 1.59567e-10 -2.88034e-11 3.91252e-11 5e-05 1.46608e-10 
210 1 0.202205 0.0179369 0.00704083 0.00560768 -8.12997e-05 0.000328916 -1.22171e-09 9.12877e-11 3.82737e-10 5e-05 1.46608e-10 
211 1 0.196132 0.0184309 0.00686792 0.00572661 0.000222582 -0.000135664 -6.74148e-11 5.11648e-11 3.54758e-11 5e-05 1.46608e-10 
212 1 0.195825 0.0169847 0.00743344 0.005689 0.000322019 0.000118929 5.20922e-11 9.32728e-12 -4.13755e-12 5e-05 1.46608e-10 
213 1 0.202072 0.0177374 0.00714952 0.00546918 0.000185842 0.000230518 2.44767e-10 2.55416e-10 -8.22637e-10 5e-05 1.46608e-10 
214 1 0.202213 0.0188138 0.00691693 0.00614411 -0.000208308 -8.4181e-05 1.96588e-09 8.2257e-09 3.05161e-10 5e-05 1.46608e-10 
217 1 0.201812 0.0166304 0.00778268 0.00596224 0.000251489 0.000226102 2.00859e-11 1.62098e-10 -9.32814e-11 5e-05 1.46608e-10 
218 1 0.202269 0.0186533 0.00690813 0.00593581 -0.00037725 -0.000110431 -1.58493e-09 -6.99606e-11 1.93675e-09 5e-05 1.46608e-10 
221 1 0.189777 0.0168012 0.00758018 0.00568606 7.89019e-05 -0.000344194 3.9262e-11 -1.50879e-11 9.23353e-12 5e-05 1.46608e-10 
222 1 0.201503 0.0157546 0.0082809 0.00621967 8.54537e-05 0.000197029 -4.31526e-11 -5.00882e-11 -2.38105e-11 5e-05 1.46608e-10 
223 1 0.210708 0.0167078 0.00745122 0.0055038 -0.000932737 0.000442851 1.24006e-12 -2.89692e-14 5.54155e-14 5e-05 1.46608e-10 
225 1 0.202053 0.0176522 0.00719832 0.0054563 0.000142961 0.000255973 4.56718e-11 5.47052e-10 -3.29953e-10 5e-05 1.46608e-10 
226 1 0.19594 0.0175209 0.00719014 0.00560022 0.000283381 -1.29597e-05 5.59042e-11 -6.00856e-11 1.46927e-11 5e-05 1.46608e-10 
228 1 0.0507861 0.0189683 0.00558458 -5.32905e-15 -1.91177e-14 -2.87013e-13 -1.82203e-22 -3.33457e-24 3.10193e-24 5e-05 1.46608e-10 
231 1 0.197479 0.018695 0.00523156 -1.08336e-15 -2.69832e-14 1.45243e-13 1.02919e-22 -5.79026e-24 -8.27181e-25 5e-05 1.46608e-10 
232 1 0.189081 0.0184947 0.00541361 -2.16229e-15 1.31517e-15 5.80686e-14 1.1229e-22 9.75815e-23 2.48154e-24 5e-05 1.46608e-10 
234 1 0.202224 0.0180223 0.00699232 0.00569093 -0.000117651 0.000353913 -3.33454e-10 2.25857e-10 2.34946e-10 5e-05 1.46608e-10 
235 1 0.194679 0.0184196 0.00544868 1.50649e-14 9.62733e-14 2.34553e-13 -2.78308e-22 -1.05362e-22 5.60415e-23 5e-05 1.46608e-10 
238 1 0.189853 0.0171154 0.00734454 0.00553916 9.65204e-05 -0.000347741 1.8607e-11 -2.3847e-11 1.72986e-11 5e-05 1.46608e-10 
239 1 0.189674 0.01641 0.00787403 0.00609124 -2.21859e-05 -0.000289916 2.82436e-11 -2.22301e-11 1.02599e-11 5e-05 1.46608e-10 
240 1 0.189757 0.0167229 0.00763898 0.00576184 6.40543e-05 -0.000336454 -4.0823e-11 -2.76981e-11 1.21488e-11 5e-05 1.46608e-10 
241 1 0.189696 0.016488 0.00781536 0.00607831 -2.08697e-05 -0.000290385 -4.93386e-12 -8.80143e-11 7.63146e-11 5e-05 1.46608e-10 
242 1 0.190142 0.0184819 0.00685747 0.00572221 0.000366771 3.35655e-05 -4.50259e-11 -8.28645e-11 1.21364e-11 5e-05 1.46608e-10 
243 1 0.189652 0.0163319 0.0079327 0.00610623 -2.18447e-05 -0.000290915 1.7591e-11 3.21975e-11 -2.59303e-11 5e-05 1.46608e-10 
244 1 0.189717 0.0165661 0.00775665 0.00583209 3.21496e-05 -0.000317007 1.14889e-10 -6.96538e-11 5.00606e-11 5e-05 1.46608e-10 
245 1 0.189871 0.017194 0.00728559 0.00554988 8.89951e-05 -0.000346934 9.15173e-11 -1.46425e-10 9.10353e-12 5e-05 1.46608e-10 
246 1 0.189796 0.0168797 0.00752131 0.00555626 9.68877e-05 -0.000351912 6.92727e-11 -3.79729e-11 2.85686e-11 5e-05 1.46608e-10 
248 1 0.195557 0.0159403 0.00813301 0.00625524 -7.00485e-05 -0.000280443 -1.37453e-11 8.92686e-12 4.16189e-12 5e-05 1.46608e-10 
249 1 0.189908 0.0173545 0.00717211 0.0057037 0.000261737 -4.49938e-05 1.00231e-10 3.24537e-11 2.48775e-10 5e-05 1.46608e-10 
251 1 0.20194 0.0171409 0.00749115 0.00550592 0.000335281 0.000148089 -4.6839e-11 -4.8984e-10 3.16039e-10 5e-05 1.46608e-10 
252 1 0.18989 0.0172737 0.00722805 0.00561213 0.000144868 -0.000245729 9.94913e-11 -1.38481e-10 8.87164e-11 5e-05 1.46608e-10 
254 1 0.208596 0.0179387 0.00776246 -5.11373e-11 -0.0230938 0.00688642 -2.10061e-18 6.24925e-12 2.09335e-11 5e-05 1.46608e-10 
255 1 0.195901 0.0173412 0.00726908 0.00557866 0.000340532 0.00010523 -5.84284e-11 -3.86889e-11 2.4215e-11 5e-05 1.46608e-10 
256 1 0.209459 0.017175 0.00808399 0.0165961 0.0204875 -0.0117109 -2.51115e-10 1.11192e-10 -1.35509e-10 5e-05 1.46608e-10 
257 1 0.196091 0.0178032 0.00702427 0.00572079 0.00011562 -0.000170233 9.57847e-11 3.5132e-11 7.11713e-11 5e-05 1.46608e-10 
258 1 0.196205 0.0179169 0.00695864 0.0057459 8.69905e-05 -0.000189139 -4.08389e-11 4.19252e-11 3.50922e-11 5e-05 1.46608e-10 
259 1 0.189926 0.0174344 0.00711483 0.00572065 0.000322265 4.50253e-05 1.62395e-10 6.61536e-11 8.00905e-11 5e-05 1.46608e-10 
260 1 0.196128 0.017976 0.00692864 0.00576731 0.000199449 4.05706e-05 -1.0605e-11 -4.69567e-11 1.15352e-11 5e-05 1.46608e-10 
261 1 0.196224 0.018009 0.00692474 0.0057429 0.000178173 4.65228e-05 -4.74648e-11 6.13828e-12 5.79313e-11 5e-05 1.46608e-10 
262 1 0.19615 0.018075 0.00691571 0.00576966 0.000218136 4.0445e-05 1.53761e-10 1.63537e-10 -7.57566e-11 5e-05 1.46608e-10 
263 1 0.190083 0.0181962 0.00692765 0.00573304 0.000332292 4.15955e-05 -3.83556e-12 -8.31705e-12 -1.43378e-12 5e-05 1.46608e-10 
265 1 0.196093 0.0182357 0.00688774 0.00575418 0.000238413 3.89714e-05 -2.68493e-11 2.32066e-11 2.04335e-10 5e-05 1.46608e-10 
270 1 0.202168 0.0181638 0.00690537 0.00559532 0.000139831 0.000270901 -4.90944e-10 5.85227e-10 -4.01965e-10 5e-05 1.46608e-10 
271 1 0.271687 0.0178565 0.00778805 -2.58975e-10 -0.0229343 0.00739791 -1.68326e-18 6.7156e-12 2.07879e-11 5e-05 1.46608e-10 
272 1 0.189965 0.0176249 0.00706802 0.0057418 0.000312177 4.53125e-05 2.67349e-11 7.53588e-12 -2.09705e-11 5e-05 1.46608e-10 
273 1 0.0391585 0.0174278 0.0079531 -0.0304246 0.0381938 -0.0149803 -3.48597e-10 5.64565e-12 -1.04606e-10 5e-05 1.46608e-10 
274 1 0.189946 0.0175296 0.00709145 0.00572149 0.000318255 4.28628e-05 7.26647e-11 2.8797e-12 3.39302e-12 5e-05 1.46608e-10 
275 1 0.196113 0.0183332 0.00687673 0.00574288 0.000229962 -6.58136e-05 -7.41773e-11 -4.21758e-12 -4.38472e-11 5e-05 1.46608e-10 
276 1 0.195842 0.0170741 0.00739215 0.00565618 0.000325586 0.000115479 3.48577e-12 -1.317e-11 7.87014e-12 5e-05 1.46608e-10 
277 1 0.195742 0.0166302 0.00759893 0.00586653 0.00028874 0.000141734 3.88453e-11 -3.44859e-11 1.1883e-12 5e-05 1.46608e-10 
279 1 0.190162 0.0185783 0.00684077 0.00634879 0.000214198 -0.000158159 -1.70952e-11 -7.33189e-11 1.48564e-11 5e-05 1.46608e-10 
282 1 0.189816 0.0169581 0.00746244 0.00549046 0.000106872 -0.000355127 -2.18947e-11 -2.26821e-11 2.41712e-11 5e-05 1.46608e-10 
283 1 0.189737 0.0166445 0.00769782 0.00580794 4.54433e-05 -0.000325509 -1.95514e-10 3.16925e-11 -1.27195e-11 5e-05 1.46608e-10 
284 1 0.195762 0.0167182 0.00755604 0.00584554 0.000292337 0.000140723 -2.30688e-11 -5.24667e-11 3.13152e-12 5e-05 1.46608e-10 
288 1 0.196147 0.0176594 0.00710246 0.00562597 5.35582e-05 -0.000165205 2.38674e-11 -4.46022e-11 2.46657e-11 5e-05 1.46608e-10 
293 1 0.189985 0.0177201 0.00704462 0.00574637 0.00031247 4.71314e-05 5.17003e-11 4.56186e-11 -2.97567e-11 5e-05 1.46608e-10 
294 1 0.152576 0.0182562 0.00546336 5.60601e-16 -1.4078e-15 1.14575e-14 2.48645e-22 6.90179e-24 -1.09601e-23 5e-05 1.46608e-10 
295 1 0.258096 0.0170762 0.00813641 -1.64519e-05 -0.0118166 0.00639092 -2.50255e-13 1.53021e-10 -9.64347e-11 5e-05 1.46608e-10 
297 1 0.202092 0.0182276 0.00689342 0.00582859 0.000479169 0.000202931 3.14615e-10 1.96301e-09 -3.13412e-10 5e-05 1.46608e-10 
300 1 0.201834 0.0167152 0.00773424 0.00594046 0.000264788 0.000216891 1.99779e-10 5.33333e-11 -1.96004e-11 5e-05 1.46608e-10 
