ITEM: TIMESTEP
19000000
ITEM: NUMBER OF ATOMS
284
ITEM: BOX BOUNDS ff ff ff
-0.02 0.43
-0.02 0.06
-0.02 0.07
ITEM: ATOMS id type x y z vx vy vz fx fy fz radius mass 
1 1 0.123609 0.0162583 0.00779211 0.0058342 0.000209559 4.1428e-05 1.68856e-11 -4.83987e-11 1.04453e-11 5e-05 1.46608e-10 
2 1 0.124015 0.0172483 0.0072183 0.00567883 0.000193829 4.4004e-05 1.16063e-10 4.75969e-11 -2.1564e-11 5e-05 1.46608e-10 
3 1 0.117576 0.0162679 0.00809105 0.00607237 0.000141355 -0.000654443 1.38142e-10 9.99449e-12 -2.07785e-11 5e-05 1.46608e-10 
4 1 0.123997 0.0175808 0.00708802 0.00573705 0.000172278 -0.000173344 1.38899e-11 -8.96233e-11 -5.37283e-11 5e-05 1.46608e-10 
5 1 0.123513 0.0162302 0.00780606 0.00585944 0.000230552 2.90828e-05 1.05694e-11 -6.30912e-12 -3.48289e-11 5e-05 1.46608e-10 
6 1 0.129585 0.016575 0.007746 0.00565571 -0.000236446 -0.000257998 -1.30788e-10 3.18308e-11 -4.44318e-11 5e-05 1.46608e-10 
7 1 0.123614 0.0166529 0.00755899 0.00568985 0.000249756 1.09016e-05 -7.01992e-11 -2.4392e-11 1.1026e-11 5e-05 1.46608e-10 
8 1 0.123533 0.0159811 0.00806474 0.00590984 -8.16625e-05 -0.000297779 1.24488e-11 6.07617e-11 -7.75019e-11 5e-05 1.46608e-10 
9 1 0.129813 0.0175664 0.00717236 0.00563144 0.000312913 0.00034915 3.42855e-11 -1.35051e-11 1.52466e-11 5e-05 1.46608e-10 
10 1 0.123634 0.0167376 0.0075095 0.00570401 0.000246034 1.38911e-05 -2.42714e-11 -2.9432e-11 1.92104e-11 5e-05 1.46608e-10 
11 1 0.123748 0.0168511 0.00744563 0.00573087 0.000225603 2.60361e-05 -3.00398e-11 1.08912e-11 2.60113e-12 5e-05 1.46608e-10 
12 1 0.123825 0.01719 0.00724745 0.00568245 0.000253613 1.70608e-05 1.40827e-10 -1.00103e-10 2.97489e-11 5e-05 1.46608e-10 
13 1 0.123894 0.0177052 0.00715436 0.0057565 0.000210346 -0.000189838 1.58814e-10 -2.31757e-11 -1.20691e-10 5e-05 1.46608e-10 
14 1 0.117282 0.0156118 0.00872404 0.0061051 0.000127089 -0.000643934 -1.10286e-11 -4.23748e-11 3.97152e-11 5e-05 1.46608e-10 
15 1 0.12373 0.017161 0.00726191 0.0056871 0.000247137 1.13154e-05 4.88819e-10 2.87738e-11 2.86676e-11 5e-05 1.46608e-10 
16 1 0.117261 0.0155411 0.00879137 0.00611068 0.000126395 -0.00064378 4.55595e-12 1.55648e-11 -1.44684e-11 5e-05 1.46608e-10 
17 1 0.124 0.0177476 0.00713922 0.00569775 0.000168861 -0.000166573 -7.92819e-11 -8.22166e-11 -3.00037e-11 5e-05 1.46608e-10 
18 1 0.129719 0.0170998 0.00732419 0.00564234 0.000325102 0.000326492 6.19807e-12 -5.81771e-12 -3.28547e-11 5e-05 1.46608e-10 
19 1 0.123477 0.0160919 0.00794597 0.00584483 -1.39332e-05 -0.00020009 -1.30972e-10 5.91878e-11 -9.8785e-11 5e-05 1.46608e-10 
20 1 0.123981 0.0176504 0.0071582 0.00571836 0.000202021 -0.000163861 -5.57624e-11 2.54807e-11 9.79635e-11 5e-05 1.46608e-10 
21 1 0.123496 0.0161607 0.00787584 0.00586566 0.000153392 -4.38112e-05 -3.86135e-11 -4.33354e-11 -1.01298e-10 5e-05 1.46608e-10 
22 1 0.123787 0.0170205 0.00734653 0.00562022 0.000234793 1.6964e-05 -1.13933e-10 -5.229e-11 8.07455e-11 5e-05 1.46608e-10 
23 1 0.117625 0.0167445 0.0076475 0.00546301 0.000271899 -0.000717782 7.7138e-11 1.25921e-12 -2.52595e-11 5e-05 1.46608e-10 
24 1 0.129794 0.0174726 0.00720103 0.00563145 0.000317889 0.000347906 -1.76256e-12 2.04337e-11 -1.05511e-11 5e-05 1.46608e-10 
25 1 0.123709 0.0166817 0.00754463 0.00570304 0.000244484 1.48051e-05 -6.93567e-11 -7.53226e-11 3.72823e-11 5e-05 1.46608e-10 
26 1 0.129659 0.0168514 0.00746673 0.00542871 -5.39818e-05 -0.000142325 2.23733e-11 -2.09358e-11 -8.70367e-11 5e-05 1.46608e-10 
27 1 0.117543 0.0164599 0.00791614 0.00603379 0.000144668 -0.000654023 -1.73274e-10 -2.70563e-11 3.8566e-11 5e-05 1.46608e-10 
28 1 0.123853 0.0175142 0.00719665 0.00556582 0.000226453 -0.000258375 8.76887e-11 -2.6524e-10 -4.86286e-10 5e-05 1.46608e-10 
29 1 0.123629 0.0163429 0.00774266 0.00586564 0.000207027 4.1447e-05 5.03025e-11 -6.96635e-11 1.90784e-11 5e-05 1.46608e-10 
30 1 0.123978 0.0174846 0.00710803 0.0057224 0.00013141 -0.000273006 1.40163e-10 -7.0349e-11 -1.20271e-10 5e-05 1.46608e-10 
31 1 0.123711 0.0170763 0.00731147 0.00565229 0.000254406 6.96942e-06 2.06645e-10 -7.81784e-11 4.27584e-11 5e-05 1.46608e-10 
32 1 0.123767 0.0169358 0.00739606 0.0057227 0.000228831 2.67069e-05 1.00302e-10 3.84596e-11 2.81177e-12 5e-05 1.46608e-10 
33 1 0.129604 0.0166438 0.00767592 0.00569465 -0.000241745 -0.000252922 1.47514e-10 2.38534e-11 -4.9402e-11 5e-05 1.46608e-10 
34 1 0.123825 0.0174218 0.00722302 0.00551257 0.000243363 -0.000220071 5.49045e-10 -3.55543e-10 -1.83092e-10 5e-05 1.46608e-10 
36 1 0.129833 0.0176601 0.0071437 0.00563165 0.000310663 0.000350152 -3.58356e-11 -4.09397e-11 7.30396e-12 5e-05 1.46608e-10 
37 1 0.123653 0.0168222 0.00746001 0.00572085 0.000240662 1.66175e-05 -4.75364e-12 -3.66165e-11 1.83748e-11 5e-05 1.46608e-10 
38 1 0.123806 0.0171053 0.007297 0.00566375 0.000237775 1.60769e-05 1.82671e-10 -1.2588e-10 3.99063e-11 5e-05 1.46608e-10 
39 1 0.129774 0.0173788 0.0072297 0.00557404 0.000331583 0.000337934 1.15436e-10 1.67387e-13 -1.73088e-12 5e-05 1.46608e-10 
41 1 0.123534 0.0163147 0.00775672 0.00586113 0.000227525 2.84219e-05 5.60475e-11 -4.27677e-11 3.31425e-12 5e-05 1.46608e-10 
42 1 0.123692 0.0169916 0.007361 0.00560515 0.000259546 2.45943e-06 -3.32531e-11 -3.39352e-11 -2.01784e-11 5e-05 1.46608e-10 
44 1 0.12392 0.0172189 0.00723301 0.00566496 0.000226003 2.77484e-05 -1.35614e-10 -6.4529e-11 1.0813e-10 5e-05 1.46608e-10 
45 1 0.129641 0.0167814 0.00753568 0.00554894 -0.000218105 -0.000268749 7.20933e-11 -2.24452e-11 -4.71539e-11 5e-05 1.46608e-10 
46 1 0.129696 0.0170045 0.00734417 0.00559736 0.000332765 0.000342373 -1.91399e-11 -2.09983e-11 3.72851e-11 5e-05 1.46608e-10 
47 1 0.123575 0.0164837 0.00765793 0.00589216 0.00022078 3.39351e-05 -3.45509e-12 -4.44077e-11 1.95245e-11 5e-05 1.46608e-10 
48 1 0.123901 0.0171342 0.00728253 0.00564083 0.000236669 1.90635e-05 -2.2584e-10 -4.70369e-11 8.81379e-11 5e-05 1.46608e-10 
49 1 0.129678 0.0169236 0.00739999 0.00558354 0.00021282 0.000176277 1.82016e-11 -1.96492e-11 -8.30665e-12 5e-05 1.46608e-10 
50 1 0.123864 0.0173619 0.00715302 0.00571675 0.00019822 -9.49227e-05 9.66552e-11 -2.07845e-10 -3.67085e-10 5e-05 1.46608e-10 
51 1 0.123958 0.0173895 0.00713325 0.00570852 0.000182221 4.2006e-05 -3.5641e-11 1.54905e-10 -5.88657e-11 5e-05 1.46608e-10 
52 1 0.123987 0.0180166 0.00715658 0.00590688 0.000119484 -0.000150034 -3.00764e-12 1.75e-10 2.40566e-10 5e-05 1.46608e-10 
53 1 0.129735 0.0171912 0.00728706 0.00559228 0.000335969 0.000340364 7.09546e-11 -3.6748e-12 2.26861e-12 5e-05 1.46608e-10 
54 1 0.123589 0.0161738 0.00784151 0.00581853 4.78299e-05 -0.000227708 -1.1434e-12 -5.43115e-11 -1.25096e-10 5e-05 1.46608e-10 
55 1 0.117326 0.0157532 0.00858938 0.00609303 0.000125264 -0.000641206 -4.4365e-11 -1.35603e-10 1.29822e-10 5e-05 1.46608e-10 
56 1 0.123673 0.0169069 0.00741053 0.00573398 0.000232555 2.18498e-05 2.19288e-11 6.59834e-12 1.38928e-11 5e-05 1.46608e-10 
57 1 0.129623 0.0167125 0.00760585 0.00574098 -0.000252749 -0.000247612 -1.39302e-10 -1.24402e-10 2.6006e-11 5e-05 1.46608e-10 
59 1 0.123843 0.0168801 0.0074311 0.00571153 0.000215145 3.1083e-05 7.23804e-11 1.52786e-10 -8.89495e-11 5e-05 1.46608e-10 
60 1 0.123862 0.0169648 0.00738157 0.00570996 0.000235537 1.97513e-05 1.44318e-10 -2.11761e-11 5.41487e-12 5e-05 1.46608e-10 
61 1 0.123554 0.0163992 0.00770731 0.00587982 0.000222551 3.19029e-05 1.99657e-11 -5.95153e-11 3.06779e-11 5e-05 1.46608e-10 
62 1 0.124254 0.0179293 0.00701426 0.00592554 -0.000168008 -0.000107533 -3.4371e-10 5.22328e-10 -9.3474e-11 5e-05 1.46608e-10 
63 1 0.123881 0.0170495 0.00733205 0.00565937 0.000241964 1.43877e-05 -1.58317e-11 -8.29361e-11 3.81476e-11 5e-05 1.46608e-10 
64 1 0.129755 0.017285 0.00725838 0.00559072 0.000331343 0.000339562 6.80946e-12 2.69726e-12 3.12836e-11 5e-05 1.46608e-10 
65 1 0.117586 0.0166013 0.00778146 0.00588439 0.000179093 -0.000673063 1.41307e-10 -1.14246e-11 5.67879e-12 5e-05 1.46608e-10 
66 1 0.117872 0.0174835 0.00725467 0.00574311 0.000604629 8.89047e-05 8.19091e-11 -9.45252e-11 -5.77944e-11 5e-05 1.46608e-10 
67 1 0.124053 0.0174192 0.0071196 0.00569014 8.75007e-05 -0.000253163 4.10996e-10 2.16006e-11 -2.03323e-10 5e-05 1.46608e-10 
68 1 0.123844 0.0172767 0.00720133 0.00568243 0.000249997 -1.14327e-05 2.47611e-10 -1.02422e-10 -1.34976e-10 5e-05 1.46608e-10 
69 1 0.123728 0.0167664 0.00749514 0.00571034 0.000239477 1.77129e-05 -7.18636e-11 -8.46797e-11 4.59153e-11 5e-05 1.46608e-10 
70 1 0.123876 0.0176089 0.00717469 0.00566771 0.000216359 -0.000223373 -8.64283e-11 -1.39311e-10 -4.38371e-10 5e-05 1.46608e-10 
71 1 0.117304 0.0156825 0.00865671 0.00609928 0.000126678 -0.000643067 -2.89703e-11 -9.77722e-11 9.33093e-11 5e-05 1.46608e-10 
72 1 0.124036 0.0177732 0.00704973 0.00569476 0.00015702 -0.000169648 -6.41328e-11 -3.32857e-11 -5.34221e-11 5e-05 1.46608e-10 
73 1 0.124072 0.0178391 0.00711609 0.00575668 0.000150841 -0.000204249 5.32827e-11 -3.46438e-10 2.16149e-12 5e-05 1.46608e-10 
74 1 0.123989 0.0179988 0.00700706 0.00560713 0.000209993 -0.000174485 8.66603e-11 -3.28322e-10 6.57148e-11 5e-05 1.46608e-10 
76 1 0.11802 0.0185251 0.00706634 0.00615319 0.000486945 -0.000786381 9.40376e-11 1.37845e-10 -5.23622e-12 5e-05 1.46608e-10 
77 1 0.12392 0.0180702 0.00699481 0.0055917 0.000157209 -0.000161422 2.10527e-10 7.58738e-11 -1.16239e-11 5e-05 1.46608e-10 
78 1 0.117413 0.0160359 0.00832008 0.00607382 0.000122154 -0.000636734 2.37818e-11 -2.71541e-11 2.08041e-11 5e-05 1.46608e-10 
79 1 0.117644 0.0168148 0.00757878 0.00550416 0.000265347 -0.000719957 8.9254e-11 3.452e-12 -1.17234e-11 5e-05 1.46608e-10 
80 1 0.12389 0.0178047 0.00714527 0.00571157 0.000214358 -0.000179923 1.57434e-11 -4.56876e-12 6.75388e-11 5e-05 1.46608e-10 
81 1 0.117564 0.0165306 0.00784881 0.00603033 0.000145686 -0.000654673 -3.17905e-12 -2.49522e-11 2.58543e-11 5e-05 1.46608e-10 
82 1 0.117606 0.0166722 0.00771401 0.00562933 0.000234516 -0.000702297 7.72887e-11 5.67745e-12 -1.59306e-11 5e-05 1.46608e-10 
83 1 0.1175 0.0163185 0.00805084 0.00606227 0.000134251 -0.000647016 5.25764e-11 -7.04884e-11 6.15826e-11 5e-05 1.46608e-10 
84 1 0.129853 0.0177539 0.00711504 0.00563219 0.000306534 0.000350873 1.50366e-11 -3.41867e-11 1.74463e-11 5e-05 1.46608e-10 
85 1 0.123436 0.0159622 0.00809272 0.00624937 -0.000182965 -0.000205628 -1.18328e-11 3.67814e-11 -9.43646e-11 5e-05 1.46608e-10 
86 1 0.123903 0.0175501 0.00709838 0.00573427 0.000157965 -0.000188261 1.37278e-11 -1.03398e-10 -2.24499e-10 5e-05 1.46608e-10 
87 1 0.123995 0.0171633 0.00726796 0.00563759 0.000192895 4.13601e-05 9.29086e-11 -4.01567e-11 -8.36042e-11 5e-05 1.46608e-10 
88 1 0.124106 0.0181623 0.0069725 0.00613647 -3.11161e-06 -0.00014122 -1.32475e-10 -2.83565e-10 2.26295e-11 5e-05 1.46608e-10 
89 1 0.123942 0.0177421 0.00705802 0.00569842 0.00017115 -0.000167801 -9.62646e-11 3.08874e-12 1.21924e-11 5e-05 1.46608e-10 
90 1 0.12413 0.0178081 0.00704076 0.00570386 6.51371e-05 -0.000148447 2.67724e-11 5.72804e-11 -4.38615e-11 5e-05 1.46608e-10 
91 1 0.123769 0.0173305 0.0071628 0.005705 0.000266699 -7.95702e-07 7.70662e-11 -2.36635e-10 1.12589e-10 5e-05 1.46608e-10 
92 1 0.124194 0.0181146 0.00697972 0.00612236 -1.34907e-05 -0.000140789 -9.58713e-11 -2.17801e-10 3.96211e-11 5e-05 1.46608e-10 
93 1 0.123897 0.0179735 0.00715482 0.00590933 8.53085e-05 -0.000129317 4.00474e-11 6.07813e-11 7.79451e-11 5e-05 1.46608e-10 
94 1 0.123922 0.0176459 0.00707716 0.00571525 0.000172897 -0.000162563 -1.04592e-11 -5.37182e-11 -6.45369e-13 5e-05 1.46608e-10 
95 1 0.123827 0.0176142 0.00708556 0.00571706 0.000164344 -0.000153506 2.87563e-10 1.28951e-10 3.6793e-11 5e-05 1.46608e-10 
96 1 0.123866 0.0178069 0.00704722 0.00569587 0.000175289 -0.000170673 -1.23498e-11 1.3122e-10 -3.3861e-11 5e-05 1.46608e-10 
97 1 0.117757 0.0169081 0.00748257 0.00555244 0.000218178 -0.000679736 -1.43017e-11 6.03483e-11 -6.59893e-11 5e-05 1.46608e-10 
98 1 0.12406 0.0182506 0.00696701 0.00621654 3.2527e-05 -0.000161991 9.92051e-11 -1.28157e-10 -3.38042e-11 5e-05 1.46608e-10 
99 1 0.117662 0.0168861 0.00751114 0.00553603 0.000261683 -0.000718073 6.58157e-11 1.31426e-11 -1.08422e-11 5e-05 1.46608e-10 
100 1 0.124108 0.0180642 0.00699152 0.00613513 -9.38815e-06 -0.000142234 5.58941e-11 6.91435e-13 -7.8617e-12 5e-05 1.46608e-10 
101 1 0.117619 0.0164094 0.00795629 0.00603288 0.000153462 -0.00066214 -4.04901e-11 -3.18529e-11 3.39848e-11 5e-05 1.46608e-10 
102 1 0.0694385 0.0202053 0.00537268 3.94161e-15 4.50091e-15 -7.68255e-14 6.57389e-22 -8.0853e-22 -1.22009e-23 5e-05 1.46608e-10 
104 1 0.117721 0.0167652 0.00761804 0.00540306 0.000230756 -0.000679473 -2.22562e-11 -5.82465e-12 9.95365e-12 5e-05 1.46608e-10 
105 1 0.117456 0.0161772 0.00818542 0.00606801 0.000130918 -0.000644902 9.25567e-11 3.3729e-11 -4.66751e-11 5e-05 1.46608e-10 
106 1 0.117811 0.0171223 0.00727955 0.00566386 0.000218796 -0.000676935 -6.071e-11 1.65655e-10 -7.90799e-11 5e-05 1.46608e-10 
107 1 0.117943 0.0175538 0.00726173 0.00579484 0.000521324 -9.28353e-05 -4.3135e-11 4.90853e-11 -7.0488e-13 5e-05 1.46608e-10 
108 1 0.123749 0.0171575 0.00736018 0.00603999 0.000894185 -0.00108051 0 0 -1.43822e-09 5e-05 1.46608e-10 
109 1 0.123788 0.017423 0.00713013 0.00569765 0.000158506 -0.000282603 -7.37233e-11 -3.30887e-10 1.29861e-10 5e-05 1.46608e-10 
110 1 0.123847 0.0177106 0.00706638 0.00571348 0.000185081 -0.000169356 -6.98177e-13 -1.13521e-10 -2.33178e-11 5e-05 1.46608e-10 
111 1 0.124007 0.0184708 0.00691495 0.00619728 -0.000111031 -0.000125178 7.99016e-11 6.44754e-11 -9.17492e-12 5e-05 1.46608e-10 
112 1 0.117521 0.0163892 0.00798346 0.00604406 0.000139974 -0.000650573 -9.58147e-11 -6.18149e-11 6.8548e-11 5e-05 1.46608e-10 
113 1 0.117835 0.0168586 0.00752173 0.00547673 0.000182305 -0.000641477 -7.00018e-11 6.63496e-11 -4.36505e-11 5e-05 1.46608e-10 
115 1 0.123808 0.0175187 0.00710765 0.00573086 0.000141491 -0.000235743 1.01306e-10 3.87029e-10 7.54207e-12 5e-05 1.46608e-10 
116 1 0.123823 0.0167953 0.00748069 0.00572851 0.000218553 3.07757e-05 6.53e-12 7.83039e-11 -5.16899e-11 5e-05 1.46608e-10 
117 1 0.123689 0.016597 0.00759412 0.00568875 0.000247502 1.24624e-05 -3.30762e-11 -2.37205e-11 2.01173e-11 5e-05 1.46608e-10 
118 1 0.117369 0.0158945 0.00845473 0.00608022 0.000121916 -0.000637068 -4.44925e-11 -1.259e-10 1.22372e-10 5e-05 1.46608e-10 
119 1 0.124072 0.0175155 0.00709892 0.00571838 0.000141416 -0.000164664 1.86716e-10 6.01503e-11 -3.4132e-11 5e-05 1.46608e-10 
120 1 0.123457 0.0160261 0.00801853 0.00587083 -0.000107959 -0.000266058 -2.94089e-12 6.72181e-11 -5.64444e-11 5e-05 1.46608e-10 
121 1 0.123553 0.0160451 0.00799047 0.00588615 -7.16088e-05 -0.000303524 1.54504e-10 4.77099e-11 -6.78296e-11 5e-05 1.46608e-10 
122 1 0.123967 0.017834 0.00708869 0.0057102 0.000167489 -0.000194147 2.44978e-10 -2.50716e-11 5.39995e-11 5e-05 1.46608e-10 
123 1 0.117479 0.0162484 0.00811899 0.00607534 0.00013077 -0.000645338 1.63969e-10 -3.16663e-11 1.83085e-11 5e-05 1.46608e-10 
124 1 0.123971 0.0179066 0.00715742 0.00588009 9.6439e-05 -0.000147288 8.6357e-12 -1.15436e-10 6.23766e-11 5e-05 1.46608e-10 
125 1 0.123571 0.0161093 0.007916 0.00584618 -7.51107e-05 -0.000315529 2.54852e-11 8.35025e-11 -7.60174e-11 5e-05 1.46608e-10 
126 1 0.123749 0.0172458 0.00721235 0.00567803 0.000248224 1.21328e-05 2.34907e-10 1.75836e-10 -2.40316e-11 5e-05 1.46608e-10 
127 1 0.11817 0.0177595 0.00718556 0.00598084 0.00043595 0.000113126 6.57429e-11 -5.64674e-12 -3.20616e-11 5e-05 1.46608e-10 
128 1 0.124017 0.017677 0.00706888 0.00571396 0.000172309 -0.000168852 -7.71576e-11 -4.07533e-11 1.24679e-11 5e-05 1.46608e-10 
129 1 0.12388 0.0178921 0.00709782 0.00561112 0.000196996 -0.00019514 2.45339e-11 6.55804e-11 3.95207e-11 5e-05 1.46608e-10 
131 1 0.117739 0.0168365 0.00755039 0.00550159 0.000218533 -0.000676339 2.73158e-11 1.06666e-11 5.33353e-12 5e-05 1.46608e-10 
132 1 0.124042 0.0178785 0.00702915 0.00563873 0.000124707 -0.000161337 -7.49125e-11 -1.83966e-10 1.29277e-10 5e-05 1.46608e-10 
133 1 0.123649 0.0164275 0.00769325 0.00591766 0.000247152 1.91998e-05 7.70326e-11 1.48956e-11 -8.55959e-12 5e-05 1.46608e-10 
134 1 0.124227 0.0178301 0.00703418 0.00572589 -0.000106568 -0.000114411 -1.10994e-10 1.02276e-10 -1.09893e-11 5e-05 1.46608e-10 
135 1 0.123764 0.0165412 0.0076292 0.00568223 0.000240676 1.62722e-05 -4.68985e-11 -6.20398e-11 3.47052e-11 5e-05 1.46608e-10 
136 1 0.117391 0.0159652 0.0083874 0.00607571 0.000121512 -0.000636365 -2.76473e-11 -8.07319e-11 7.86102e-11 5e-05 1.46608e-10 
137 1 0.12394 0.0181663 0.00697567 0.00615586 3.22717e-05 -0.000152417 1.35151e-10 2.75977e-10 -7.49399e-11 5e-05 1.46608e-10 
138 1 0.124017 0.0181032 0.00698612 0.00614472 1.31938e-05 -0.000148726 2.15901e-11 -4.17511e-11 -3.13258e-11 5e-05 1.46608e-10 
140 1 0.123883 0.0174547 0.0071212 0.00573517 0.000156739 -0.000189008 -8.83991e-11 1.10815e-11 -3.06215e-10 5e-05 1.46608e-10 
141 1 0.117555 0.0161972 0.00815843 0.00608017 0.000132182 -0.000646692 2.46216e-10 -6.79394e-12 -1.73019e-11 5e-05 1.46608e-10 
142 1 0.117663 0.0165512 0.00782124 0.00601768 0.000293854 -0.000790805 1.49639e-10 4.77387e-11 -6.173e-11 5e-05 1.46608e-10 
143 1 0.117434 0.0161066 0.00825282 0.00606829 0.000125702 -0.000639965 8.26347e-11 1.21891e-11 -3.29208e-11 5e-05 1.46608e-10 
146 1 0.117741 0.0165024 0.00785972 0.00580515 0.000105618 -0.000598165 -1.19445e-11 -6.26969e-11 6.06501e-11 5e-05 1.46608e-10 
147 1 0.117348 0.0158238 0.00852208 0.00608674 0.00012331 -0.000638899 -5.21228e-11 -1.44892e-10 1.39095e-10 5e-05 1.46608e-10 
148 1 0.0085376 0.0177955 0.00780549 5.90283e-05 0.0147545 -0.00942164 9.31537e-12 -4.77595e-11 -3.56697e-11 5e-05 1.46608e-10 
149 1 0.124085 0.0179689 0.00701058 0.00590889 3.56223e-05 -0.000144294 -2.97182e-10 1.44544e-10 4.46427e-12 5e-05 1.46608e-10 
150 1 0.117641 0.0164802 0.00788889 0.00603199 0.000148432 -0.000657416 1.45607e-11 4.6534e-13 -2.3242e-12 5e-05 1.46608e-10 
151 1 0.118157 0.0174949 0.00716553 0.00581628 0.000429526 0.000110174 4.04011e-10 1.08711e-10 -8.70545e-12 5e-05 1.46608e-10 
153 1 0.11772 0.0164316 0.00792708 0.00594896 7.88841e-05 -0.000585794 -1.49024e-10 -4.49403e-11 5.34641e-11 5e-05 1.46608e-10 
154 1 0.117848 0.017301 0.00720088 0.0057383 0.00056344 7.00593e-05 -5.72668e-11 2.86452e-11 -3.80813e-11 5e-05 1.46608e-10 
155 1 0.111986 0.0179555 0.00701771 0.00566573 0.000306623 0.000234785 6.51193e-11 -9.60289e-11 1.20911e-10 5e-05 1.46608e-10 
156 1 0.117735 0.0171794 0.00724991 0.00569992 0.000350492 -0.000539911 -4.19498e-11 3.42765e-10 2.92164e-10 5e-05 1.46608e-10 
157 1 0.117908 0.0175872 0.00713415 0.00572997 0.000572754 7.01952e-05 -4.87428e-12 -5.72611e-11 -2.88719e-11 5e-05 1.46608e-10 
158 1 0.117966 0.0170241 0.00736039 0.00548766 0.000236836 -0.000384502 3.9971e-11 1.36799e-10 3.24155e-10 5e-05 1.46608e-10 
159 1 0.124079 0.0183444 0.00693781 0.00618493 4.26148e-05 -0.000145356 9.66523e-11 -1.68898e-10 -1.11153e-10 5e-05 1.46608e-10 
160 1 0.117812 0.0175534 0.00713875 0.0057404 0.000568607 7.5275e-05 -1.96264e-11 -4.5869e-11 -1.22874e-11 5e-05 1.46608e-10 
162 1 0.117775 0.0169795 0.00741491 0.00563184 0.000207971 -0.000678168 -4.56622e-11 6.60151e-11 -6.06805e-11 5e-05 1.46608e-10 
163 1 0.117983 0.0170998 0.00729729 0.00564392 0.000449587 -8.2422e-05 -7.30915e-12 1.44605e-11 2.0758e-10 5e-05 1.46608e-10 
164 1 0.118021 0.0177175 0.00711681 0.00588286 0.000281892 -0.00112851 1.98475e-11 6.0459e-11 4.61739e-10 5e-05 1.46608e-10 
165 1 0.117912 0.0168083 0.00756168 0.0053969 0.000105742 -0.000568839 -9.32778e-11 4.66896e-11 -1.40699e-12 5e-05 1.46608e-10 
166 1 0.123393 0.0158349 0.00824077 0.00621028 -0.000197975 -0.000185665 2.92152e-12 -2.0047e-12 1.2785e-11 5e-05 1.46608e-10 
167 1 0.117762 0.0165733 0.00779228 0.00553566 0.000159218 -0.000624679 2.04568e-10 -7.82944e-11 5.25163e-11 5e-05 1.46608e-10 
168 1 0.117868 0.0173965 0.0071786 0.00573809 0.00056526 7.23551e-05 1.7849e-10 -3.53647e-11 -4.90494e-11 5e-05 1.46608e-10 
169 1 0.118019 0.0172748 0.00722563 0.00573425 0.000553417 7.73394e-05 -1.83731e-11 -3.42715e-11 -1.66992e-11 5e-05 1.46608e-10 
170 1 0.117945 0.0173357 0.00719609 0.00573701 0.000564057 7.66837e-05 -4.18297e-11 -1.48214e-10 8.84934e-12 5e-05 1.46608e-10 
171 1 0.123784 0.0166259 0.00757971 0.0056953 0.00023961 1.73046e-05 -3.939e-11 -5.16853e-11 3.01169e-11 5e-05 1.46608e-10 
172 1 0.118214 0.0177823 0.00709838 0.0060233 0.000400742 0.00012509 1.03788e-10 -4.34729e-12 1.3905e-12 5e-05 1.46608e-10 
173 1 0.124033 0.0173338 0.00716826 0.0056878 0.000165071 6.27001e-05 1.68882e-10 3.5223e-10 -2.56898e-10 5e-05 1.46608e-10 
174 1 0.117853 0.0176996 0.00720006 0.0056261 0.000778312 -3.09393e-05 1.22441e-10 -9.48478e-11 1.24423e-11 5e-05 1.46608e-10 
175 1 0.114789 0.017695 0.00703723 0.00553898 -0.000951432 0.000281694 -2.00412e-13 7.16926e-14 3.01459e-14 5e-05 1.46608e-10 
176 1 0.117715 0.0171004 0.0073081 0.0056741 0.000231705 -0.000715661 3.60702e-11 1.98918e-10 2.14298e-11 5e-05 1.46608e-10 
177 1 0.118228 0.0178836 0.00707451 0.00608519 0.000425626 0.000121273 2.50845e-11 -4.10117e-11 -9.31943e-13 5e-05 1.46608e-10 
178 1 0.118192 0.0176865 0.00712066 0.00594851 0.000406361 0.000122024 -2.10385e-11 8.83136e-11 -5.66178e-11 5e-05 1.46608e-10 
179 1 0.11183 0.0176724 0.00719033 0.00560175 0.000319878 0.000216672 3.65912e-11 -2.23191e-11 7.72637e-11 5e-05 1.46608e-10 
180 1 0.117889 0.0170731 0.00731905 0.00560385 0.000228699 -0.000555378 -1.21928e-10 8.32165e-11 2.35375e-11 5e-05 1.46608e-10 
181 1 0.117924 0.0172392 0.00721859 0.00572942 0.000560009 7.53125e-05 -8.74308e-11 -7.43346e-11 -2.89825e-11 5e-05 1.46608e-10 
182 1 0.123957 0.0169939 0.00736703 0.00572845 0.000333109 -3.73864e-05 -1.42886e-10 -2.34373e-10 1.41741e-10 5e-05 1.46608e-10 
183 1 0.118038 0.0173714 0.00720792 0.00555748 0.000160988 -0.000847688 1.03573e-10 -5.2284e-11 2.87356e-10 5e-05 1.46608e-10 
184 1 0.123901 0.0179928 0.00705538 0.00561933 0.000155125 -0.000156292 6.25493e-11 4.64731e-12 3.39212e-11 5e-05 1.46608e-10 
185 1 0.117753 0.0172713 0.00721541 0.00572806 0.000523825 -7.43283e-05 -4.45878e-11 1.62711e-10 5.09497e-11 5e-05 1.46608e-10 
186 1 0.117793 0.0170509 0.00734723 0.00456142 0.000401496 -0.000766106 -2.89673e-10 1.25827e-10 -9.79529e-11 5e-05 1.46608e-10 
187 1 0.123976 0.0170786 0.0073175 0.00565888 0.000247639 1.18937e-05 -1.37099e-10 5.33694e-11 -4.09152e-11 5e-05 1.46608e-10 
188 1 0.123947 0.0179088 0.00702553 0.0056384 0.000169771 -0.00016997 1.66693e-11 -2.6436e-11 4.92529e-11 5e-05 1.46608e-10 
189 1 0.123669 0.0165123 0.00764369 0.00566845 0.000244752 1.35707e-05 1.43543e-10 4.19681e-11 -1.99955e-11 5e-05 1.46608e-10 
190 1 0.118072 0.0183606 0.00702896 0.00617049 0.000334905 -0.000816584 -1.14058e-10 -5.88222e-11 9.84801e-11 5e-05 1.46608e-10 
191 1 0.123961 0.0182621 0.00695656 0.00617565 -5.21985e-06 -0.000146001 -1.26711e-10 -1.74227e-10 4.42987e-11 5e-05 1.46608e-10 
192 1 0.117828 0.0172046 0.00722335 0.00579341 0.000610371 6.17063e-05 -1.56341e-10 -6.86087e-11 2.40312e-11 5e-05 1.46608e-10 
193 1 0.123988 0.0183815 0.00695551 0.00613972 -9.81153e-05 -0.000138512 1.00789e-10 6.85739e-11 4.72405e-11 5e-05 1.46608e-10 
194 1 0.117684 0.0166226 0.00775328 0.00556678 0.000191228 -0.000656866 6.31811e-11 -6.60196e-12 4.30899e-14 5e-05 1.46608e-10 
195 1 0.117961 0.0174344 0.0071947 0.0057323 0.0005641 7.52081e-05 1.57994e-10 -2.33179e-10 -8.90692e-11 5e-05 1.46608e-10 
196 1 0.117239 0.0154705 0.0088587 0.00611604 0.000124942 -0.000642888 1.9216e-11 5.89167e-11 -5.6383e-11 5e-05 1.46608e-10 
197 1 0.117973 0.0178335 0.00716904 0.00594262 0.000504886 8.05374e-05 -8.09083e-11 -5.27165e-11 -5.07723e-11 5e-05 1.46608e-10 
198 1 0.11768 0.0169576 0.0074435 0.00559211 0.000258339 -0.000718181 1.62617e-11 5.87157e-11 -3.36881e-11 5e-05 1.46608e-10 
199 1 0.117793 0.0174637 0.0071786 0.0057495 0.000570992 8.25955e-05 6.5052e-11 -6.67872e-12 -1.59733e-10 5e-05 1.46608e-10 
200 1 0.117703 0.0166939 0.00768567 0.00541973 0.000222053 -0.000672826 9.63826e-11 -1.98366e-11 8.64125e-12 5e-05 1.46608e-10 
201 1 0.118116 0.0181959 0.00699518 0.00629901 0.000327398 0.000155375 -6.87437e-11 2.55445e-10 -1.57511e-10 5e-05 1.46608e-10 
203 1 0.124158 0.0179019 0.00702185 0.00588064 5.06253e-06 -0.000139633 -7.91013e-11 2.16669e-10 -4.6704e-11 5e-05 1.46608e-10 
204 1 0.117817 0.0167872 0.00758939 0.00547559 0.000182716 -0.000642005 -3.48584e-12 5.83256e-11 -4.53832e-11 5e-05 1.46608e-10 
205 1 0.117859 0.0178027 0.00717527 0.00572356 0.000622918 4.82364e-05 3.08503e-11 1.32329e-10 2.06347e-10 5e-05 1.46608e-10 
206 1 0.117889 0.0174917 0.00715647 0.00573511 0.000569903 7.58767e-05 1.80582e-10 -6.46094e-11 -1.85796e-11 5e-05 1.46608e-10 
207 1 0.117698 0.016361 0.00799441 0.00595146 8.36584e-05 -0.000590475 4.99587e-11 -7.09973e-11 6.08473e-11 5e-05 1.46608e-10 
208 1 0.117773 0.0173667 0.00719251 0.00574925 0.000567166 7.23834e-05 2.75762e-11 8.63877e-11 -1.46298e-10 5e-05 1.46608e-10 
209 1 0.11185 0.0177553 0.00713776 0.00560667 0.000308993 0.000229464 1.55172e-10 9.02714e-11 3.31545e-11 5e-05 1.46608e-10 
210 1 0.123415 0.0158985 0.00816676 0.00621987 -0.000188045 -0.000195746 3.87156e-11 2.80339e-11 -2.58336e-11 5e-05 1.46608e-10 
211 1 0.12398 0.0180731 0.00707438 0.00597734 -2.15886e-05 -0.000240369 6.40083e-11 -1.05651e-10 -1.45658e-11 5e-05 1.46608e-10 
212 1 0.118174 0.0175907 0.0071431 0.00586174 0.000420708 0.000114803 9.01176e-11 1.37647e-10 -4.45522e-11 5e-05 1.46608e-10 
213 1 0.124112 0.0177082 0.00706059 0.00571306 0.000185979 -0.000171318 -8.5839e-11 -1.15396e-10 -2.66748e-12 5e-05 1.46608e-10 
214 1 0.124034 0.0179531 0.00709534 0.00588222 8.66476e-05 -0.000139519 -3.57986e-10 1.38134e-10 -4.37581e-11 5e-05 1.46608e-10 
215 1 0.117871 0.0170013 0.0073864 0.00545793 0.000196858 -0.000628836 -9.85957e-11 8.0191e-11 4.12458e-11 5e-05 1.46608e-10 
216 1 0.117948 0.0169511 0.00742648 0.00537275 0.000116407 -0.000552027 2.75942e-10 1.48894e-11 1.35685e-10 5e-05 1.46608e-10 
217 1 0.123804 0.0167106 0.00753022 0.00570695 0.000239582 1.7798e-05 -7.00075e-11 -3.75623e-11 2.09268e-11 5e-05 1.46608e-10 
218 1 0.118003 0.0176194 0.00712987 0.0057336 0.000591557 6.73435e-05 9.19907e-11 -3.12598e-11 -2.74167e-11 5e-05 1.46608e-10 
219 1 0.124017 0.0181907 0.00703452 0.00616856 3.69996e-05 -0.000173345 1.97781e-10 4.77273e-11 -1.63725e-10 5e-05 1.46608e-10 
220 1 0.117854 0.0169299 0.00745409 0.00543035 0.000191018 -0.000644002 -3.71261e-11 3.42287e-11 -2.8831e-11 5e-05 1.46608e-10 
221 1 0.111736 0.0172579 0.00745334 0.00561951 0.000292071 0.000231197 3.89687e-10 1.06726e-11 2.53178e-10 5e-05 1.46608e-10 
222 1 0.123594 0.0165683 0.00760848 0.00568274 0.000253878 8.7764e-06 9.57408e-12 -4.01288e-11 2.32906e-11 5e-05 1.46608e-10 
223 1 0.117904 0.0171461 0.00724942 0.00580736 0.000266884 -0.000747292 -9.09699e-11 -6.14396e-11 4.18284e-11 5e-05 1.46608e-10 
224 1 0.117698 0.0170289 0.00737579 0.00565904 0.00024248 -0.00071209 -2.7556e-11 9.31633e-11 -5.99243e-11 5e-05 1.46608e-10 
225 1 0.124092 0.017612 0.00707973 0.00573876 0.000185 -0.000171359 -6.50359e-11 -8.87044e-11 1.62994e-11 5e-05 1.46608e-10 
226 1 0.11793 0.0168796 0.00749405 0.0053948 0.000104519 -0.0005634 -6.15252e-11 2.64821e-11 -3.93859e-11 5e-05 1.46608e-10 
227 1 0.111792 0.0175066 0.0072955 0.00584272 0.00031042 0.000237266 3.06171e-10 -3.38538e-10 2.14414e-10 5e-05 1.46608e-10 
228 1 0.0507861 0.0189683 0.00558458 -5.32544e-15 -1.9117e-14 -2.87013e-13 2.01751e-22 -9.87447e-24 -2.89513e-24 5e-05 1.46608e-10 
229 1 0.117511 0.016056 0.00829297 0.00606564 0.000122308 -0.000636174 8.97797e-11 7.80581e-12 -1.55878e-11 5e-05 1.46608e-10 
230 1 0.11796 0.0179321 0.00715759 0.00619985 0.000548065 0.000154259 -1.49718e-11 -1.29939e-11 -4.99757e-11 5e-05 1.46608e-10 
231 1 0.197479 0.018695 0.00523156 -1.09627e-15 -2.69838e-14 1.45243e-13 1.83822e-22 -8.06501e-24 -8.27181e-25 5e-05 1.46608e-10 
232 1 0.117532 0.0161267 0.00822564 0.00607249 0.000125878 -0.000640225 1.91912e-10 7.50129e-12 -2.69919e-11 5e-05 1.46608e-10 
233 1 0.117799 0.0167158 0.00765705 0.00545686 0.000182081 -0.000639283 2.85392e-10 8.82436e-12 -3.55191e-11 5e-05 1.46608e-10 
234 1 0.12335 0.0157076 0.00838882 0.00619851 -0.000207481 -0.000173688 2.79839e-11 -3.30038e-11 3.61324e-11 5e-05 1.46608e-10 
235 1 0.118046 0.0182641 0.0070153 0.00624411 0.000367128 -0.000126798 -3.37996e-11 1.63048e-10 -2.41959e-10 5e-05 1.46608e-10 
236 1 0.117999 0.0184285 0.00705172 0.00617462 0.000489335 -0.00077791 -1.9901e-11 4.95013e-11 -5.06614e-11 5e-05 1.46608e-10 
237 1 0.117987 0.0179731 0.00707045 0.00613392 0.000494103 0.000106323 1.41357e-11 6.17271e-11 -2.138e-11 5e-05 1.46608e-10 
238 1 0.111869 0.0178382 0.00708525 0.00562418 0.000296433 0.000242844 1.45783e-10 1.91266e-11 5.23366e-11 5e-05 1.46608e-10 
239 1 0.111636 0.016844 0.00771553 0.00649674 0.000166373 0.000385104 -6.70124e-11 4.20122e-11 -1.20905e-10 5e-05 1.46608e-10 
240 1 0.111717 0.0171749 0.00750596 0.0056006 0.000333483 0.000220765 4.79816e-10 2.71838e-10 -2.4883e-10 5e-05 1.46608e-10 
241 1 0.11166 0.0169263 0.00766365 0.00632101 0.00024305 0.000327821 -3.76187e-10 -4.49773e-10 1.02811e-10 5e-05 1.46608e-10 
242 1 0.111965 0.0178702 0.00707164 0.00566296 0.000288723 0.000244133 -1.10453e-10 -1.21446e-10 7.26391e-11 5e-05 1.46608e-10 
243 1 0.111613 0.0167617 0.00776735 0.00576852 0.000397138 0.000181512 8.37621e-11 1.23514e-10 -5.72298e-11 5e-05 1.46608e-10 
244 1 0.111679 0.0170091 0.00761119 0.00550859 0.000349665 0.000183392 -6.15765e-11 4.47645e-10 -1.91306e-10 5e-05 1.46608e-10 
245 1 0.111888 0.0179211 0.00703264 0.00565246 0.000285173 0.000242855 -2.56239e-11 9.33274e-12 7.336e-11 5e-05 1.46608e-10 
246 1 0.111755 0.0173408 0.00740073 0.00569343 0.000303814 0.000229385 2.11022e-10 -5.39369e-10 2.25942e-10 5e-05 1.46608e-10 
247 1 0.118054 0.0174624 0.00716959 0.00573855 0.000512682 8.09458e-05 2.00686e-11 -3.08698e-11 1.54183e-11 5e-05 1.46608e-10 
248 1 0.118097 0.0176525 0.00712538 0.00593617 0.000474508 0.000104344 -8.85687e-11 2.36519e-11 -3.02363e-12 5e-05 1.46608e-10 
249 1 0.111927 0.0180918 0.0069362 0.00573753 -8.22028e-05 -0.000395363 1.72192e-11 1.10401e-11 2.28089e-12 5e-05 1.46608e-10 