ITEM: TIMESTEP
22400000
ITEM: NUMBER OF ATOMS
283
ITEM: BOX BOUNDS ff ff ff
-0.02 0.43
-0.02 0.06
-0.02 0.07
ITEM: ATOMS id type x y z vx vy vz fx fy fz radius mass 
1 1 0.143386 0.0162452 0.00811818 0.00551307 0.000298688 0.00163884 2.05138e-10 4.34415e-11 6.84162e-12 5e-05 1.46608e-10 
2 1 0.143816 0.0172245 0.00749751 0.00573046 0.00163423 0.000665477 -5.14054e-10 3.31059e-10 -4.44823e-10 5e-05 1.46608e-10 
3 1 0.137447 0.0164493 0.00787613 0.00583438 0.000112646 0.000482562 2.24022e-10 -6.45426e-11 9.27626e-11 5e-05 1.46608e-10 
4 1 0.143807 0.0174692 0.00730279 0.0063113 0.00109488 0.00129906 1.85135e-10 4.31347e-11 8.32195e-12 5e-05 1.46608e-10 
5 1 0.143293 0.0162047 0.00811816 0.00547399 0.000329539 0.00159935 8.15403e-11 1.1645e-10 -1.71511e-11 5e-05 1.46608e-10 
6 1 0.149567 0.0172747 0.00738358 0.00589783 -0.000614881 7.69892e-05 8.0492e-13 2.06511e-13 7.37456e-14 5e-05 1.46608e-10 
7 1 0.143396 0.0166063 0.00783885 0.00565636 0.000289728 0.00167985 4.74364e-10 1.76853e-10 4.10204e-10 5e-05 1.46608e-10 
8 1 0.143307 0.0159239 0.008343 0.0054746 0.000302949 0.00162622 1.48572e-11 2.11823e-10 -1.4306e-10 5e-05 1.46608e-10 
9 1 0.149784 0.0181981 0.00706702 0.00597263 -0.000631139 8.08169e-05 -3.54871e-13 5.46785e-13 -1.92043e-13 5e-05 1.46608e-10 
10 1 0.143417 0.0167041 0.00783797 0.00556344 0.000285357 0.00145603 1.28829e-09 -4.99681e-10 9.61062e-10 5e-05 1.46608e-10 
11 1 0.143441 0.0167788 0.0077189 0.00574835 0.000282288 0.00173294 2.69281e-11 -1.31281e-10 2.447e-10 5e-05 1.46608e-10 
12 1 0.143599 0.0170711 0.00754404 0.00584708 0.000322292 0.00172795 1.74527e-10 4.04547e-11 -3.01105e-11 5e-05 1.46608e-10 
13 1 0.143635 0.0174804 0.00736619 0.00607836 0.000437001 0.00168946 -3.27686e-10 3.87177e-10 2.49053e-11 5e-05 1.46608e-10 
14 1 0.137175 0.0157917 0.00851148 0.00578799 0.000182743 0.000406637 -6.07461e-10 3.16147e-10 -3.76298e-10 5e-05 1.46608e-10 
15 1 0.143519 0.0171095 0.0075898 0.0057465 0.000458683 0.00132789 2.64276e-09 -2.32913e-09 1.20018e-09 5e-05 1.46608e-10 
16 1 0.137154 0.0157218 0.00857988 0.00578372 0.000179213 0.000410633 6.05491e-11 3.26298e-10 -3.22715e-10 5e-05 1.46608e-10 
17 1 0.143856 0.0177042 0.00726373 0.00615303 -0.000240326 -0.000222312 -4.83644e-10 -1.3263e-10 -1.39895e-10 5e-05 1.46608e-10 
18 1 0.149883 0.0182301 0.00705405 0.0059801 -0.000632772 8.12047e-05 -4.86985e-13 3.32609e-13 -1.05459e-13 5e-05 1.46608e-10 
19 1 0.143253 0.0160441 0.00823027 0.00525283 0.00031908 0.0015334 -1.00638e-11 2.37455e-12 1.85816e-12 5e-05 1.46608e-10 
20 1 0.143808 0.0175668 0.00733394 0.0066457 0.00122818 0.00130149 2.4659e-11 -4.8011e-10 1.02656e-10 5e-05 1.46608e-10 
21 1 0.143272 0.0161244 0.00817405 0.00523453 0.000319408 0.00152402 -2.7714e-10 6.07094e-11 -1.22292e-10 5e-05 1.46608e-10 
22 1 0.143494 0.0169386 0.0076119 0.00558406 0.000254984 0.00172139 3.38565e-10 -8.71296e-11 9.59957e-11 5e-05 1.46608e-10 
23 1 0.137491 0.0169295 0.00743705 0.00610615 0.000104763 0.000426427 -3.47712e-11 -2.41743e-10 -1.95825e-10 5e-05 1.46608e-10 
24 1 0.149762 0.0181058 0.00709868 0.00596515 -0.000629511 8.04359e-05 -1.76132e-13 4.46236e-13 -1.12947e-13 5e-05 1.46608e-10 
25 1 0.143499 0.0166456 0.00784295 0.00576949 0.000300053 0.00172198 2.97913e-10 -4.71441e-12 1.76376e-10 5e-05 1.46608e-10 
26 1 0.149654 0.0176441 0.00725696 0.00592775 -0.000621385 7.85202e-05 4.01416e-13 2.52179e-13 -1.89625e-13 5e-05 1.46608e-10 
27 1 0.137411 0.0166321 0.0076881 0.00591848 0.000108763 0.000495116 6.4313e-11 6.3271e-11 -3.06216e-11 5e-05 1.46608e-10 
28 1 0.143677 0.0173163 0.00747528 0.00613572 0.00035131 0.00175508 -3.77462e-10 -4.24152e-11 -1.87647e-10 5e-05 1.46608e-10 
29 1 0.143407 0.0163255 0.00806232 0.00561454 0.000293847 0.00167565 -2.75222e-11 5.21745e-12 6.80914e-12 5e-05 1.46608e-10 
30 1 0.143753 0.0173914 0.00734535 0.00632369 0.000632095 0.00165021 -2.32536e-10 -2.04043e-10 1.3933e-10 5e-05 1.46608e-10 
31 1 0.143482 0.0169606 0.00770872 0.00553026 0.00031321 0.00172466 -1.60108e-10 -4.08533e-10 3.07745e-10 5e-05 1.46608e-10 
32 1 0.14355 0.0168429 0.00770588 0.00583431 0.000292096 0.00175258 1.05169e-10 1.96616e-11 3.16501e-11 5e-05 1.46608e-10 
33 1 0.149589 0.0173671 0.00735192 0.00590532 -0.000616511 7.73665e-05 6.76957e-13 1.98862e-13 -1.68153e-13 5e-05 1.46608e-10 
34 1 0.143651 0.0172428 0.00754192 0.00599689 0.00040344 0.00177183 -3.54594e-10 2.77506e-10 -4.54296e-10 5e-05 1.46608e-10 
36 1 0.149806 0.0182905 0.00703537 0.00598012 -0.000632753 8.1198e-05 -3.96662e-13 7.49609e-13 -2.26248e-13 5e-05 1.46608e-10 
37 1 0.143439 0.0167995 0.00781744 0.00554083 0.000286372 0.00153933 -3.08416e-12 1.87675e-10 -4.59604e-10 5e-05 1.46608e-10 
38 1 0.143502 0.0170184 0.00755225 0.00588742 0.000288326 0.00177049 -1.94704e-10 -3.1997e-10 -3.53532e-11 5e-05 1.46608e-10 
39 1 0.149741 0.0180135 0.00713033 0.00595767 -0.000627885 8.00541e-05 -5.60698e-14 4.15624e-13 -1.05994e-13 5e-05 1.46608e-10 
41 1 0.143313 0.016285 0.0080623 0.0055269 0.000345712 0.00160751 3.58523e-11 -5.83653e-11 6.32406e-11 5e-05 1.46608e-10 
42 1 0.143461 0.0168591 0.00766304 0.00580698 0.0002924 0.00174041 -3.07338e-10 -3.11906e-10 5.36846e-11 5e-05 1.46608e-10 
44 1 0.143697 0.0171178 0.00754062 0.00580414 0.000324889 0.00172145 5.45902e-10 1.3688e-10 -7.05871e-11 5e-05 1.46608e-10 
45 1 0.149632 0.0175517 0.00728861 0.00592027 -0.000619759 7.81392e-05 5.11166e-13 2.41209e-13 -8.66387e-14 5e-05 1.46608e-10 
47 1 0.143355 0.0164457 0.00795057 0.00560272 0.000350581 0.00163164 1.06553e-10 2.93358e-11 -1.08102e-11 5e-05 1.46608e-10 
48 1 0.143675 0.0170342 0.00759845 0.00588977 0.000352137 0.00172759 2.18279e-10 9.79927e-11 1.24959e-11 5e-05 1.46608e-10 
49 1 0.149676 0.0177364 0.0072253 0.00593523 -0.000623011 7.89015e-05 2.60547e-13 3.09434e-13 -1.57586e-13 5e-05 1.46608e-10 
50 1 0.143643 0.0172316 0.00743293 0.00601326 0.000369688 0.00176476 -3.96165e-10 2.15575e-10 -1.30712e-10 5e-05 1.46608e-10 
51 1 0.14376 0.0173141 0.00740836 0.00615465 0.000771961 0.00148205 -4.47818e-10 5.46666e-10 -5.46478e-10 5e-05 1.46608e-10 
52 1 0.14378 0.0181667 0.00703976 0.00613392 -0.000130842 -0.000274422 -3.06256e-11 1.4317e-10 -4.35199e-12 5e-05 1.46608e-10 
53 1 0.149697 0.0178288 0.00719364 0.00594271 -0.000624635 7.9287e-05 1.60626e-13 3.45597e-13 -1.18342e-13 5e-05 1.46608e-10 
54 1 0.143366 0.0161648 0.00817408 0.00540225 0.000296341 0.00160161 -7.70801e-11 -3.81928e-11 -1.98663e-11 5e-05 1.46608e-10 
55 1 0.137217 0.0159315 0.00837475 0.00628116 0.000128893 0.000510923 2.85776e-11 -1.60651e-10 6.16976e-11 5e-05 1.46608e-10 
56 1 0.143469 0.0168764 0.0077612 0.00576362 0.000298836 0.00173353 -3.29807e-11 1.45706e-10 -5.02683e-10 5e-05 1.46608e-10 
57 1 0.14961 0.0174594 0.00732027 0.0059128 -0.000618135 7.77527e-05 5.80485e-13 2.35539e-13 -6.44576e-14 5e-05 1.46608e-10 
59 1 0.143647 0.0168543 0.0077297 0.00584483 0.000261524 0.00177438 3.85938e-10 1.56303e-10 -4.43234e-11 5e-05 1.46608e-10 
60 1 0.1436 0.0169231 0.00767364 0.00588254 0.000300897 0.00176289 3.74631e-10 9.39311e-11 1.14209e-10 5e-05 1.46608e-10 
61 1 0.143334 0.0163654 0.00800643 0.00556421 0.000354327 0.00161542 1.37143e-10 8.30206e-11 -6.54403e-11 5e-05 1.46608e-10 
62 1 0.144004 0.0180129 0.00707152 0.00610703 -8.14036e-05 -0.000278774 -4.2563e-10 4.53393e-10 -1.59137e-10 5e-05 1.46608e-10 
63 1 0.143585 0.0169908 0.0076018 0.00588943 0.000308775 0.00176098 -1.18582e-10 9.13085e-12 -2.17737e-11 5e-05 1.46608e-10 
64 1 0.149719 0.0179211 0.00716199 0.00595019 -0.000626261 7.96673e-05 2.63477e-14 3.90059e-13 -1.43235e-13 5e-05 1.46608e-10 
65 1 0.13745 0.0167726 0.00755037 0.00606239 0.000163295 0.000457422 -2.43513e-11 -1.61854e-10 1.51399e-10 5e-05 1.46608e-10 
66 1 0.137743 0.0177447 0.00718528 0.00605572 -0.000396484 0.000164164 -5.15488e-12 -4.17295e-12 -2.67282e-11 5e-05 1.46608e-10 
67 1 0.143844 0.01738 0.00738515 0.00674728 0.00156057 0.00106729 -1.48165e-10 -2.47215e-10 9.58081e-11 5e-05 1.46608e-10 
68 1 0.143619 0.0171514 0.00748786 0.00588236 0.000363843 0.00170586 1.43703e-10 -1.14268e-10 -4.43774e-11 5e-05 1.46608e-10 
69 1 0.143497 0.016724 0.00778087 0.00578513 0.000306072 0.00172985 2.50624e-10 1.67013e-11 1.4275e-10 5e-05 1.46608e-10 
70 1 0.143652 0.0174008 0.00742438 0.00605043 0.000412805 0.00167997 -8.40545e-11 2.71303e-10 -6.60116e-10 5e-05 1.46608e-10 
71 1 0.137196 0.0158616 0.00844312 0.00612202 0.000151941 0.000473152 -1.92724e-10 1.22596e-10 -1.27845e-10 5e-05 1.46608e-10 
72 1 0.143787 0.0176308 0.00719142 0.00608151 -0.000129777 -0.000121486 -2.68294e-10 3.93719e-10 8.18937e-10 5e-05 1.46608e-10 
73 1 0.143893 0.0178585 0.00712033 0.00612587 -0.000172638 -0.000263343 -2.92841e-10 1.85663e-10 4.81699e-11 5e-05 1.46608e-10 
74 1 0.143787 0.0178184 0.00713693 0.0061164 -0.000151283 -0.00027379 1.27651e-10 1.22499e-10 -9.83223e-11 5e-05 1.46608e-10 
76 1 0.13789 0.0186988 0.00692429 0.00551633 -0.000289562 0.000192608 -7.28191e-13 -1.24938e-10 1.55585e-11 5e-05 1.46608e-10 
77 1 0.143693 0.0177927 0.00715689 0.00611621 -0.000166103 -0.00026124 -4.28888e-11 3.47724e-10 -4.43011e-10 5e-05 1.46608e-10 
78 1 0.137295 0.0162117 0.00810016 0.00556909 0.000177603 0.000389024 -5.08076e-11 -1.5851e-10 1.38086e-10 5e-05 1.46608e-10 
79 1 0.137512 0.0170055 0.00737534 0.00613495 -0.000146961 0.000138892 -8.61979e-12 7.15729e-11 2.83909e-11 5e-05 1.46608e-10 
80 1 0.14364 0.0175773 0.00733044 0.00609051 0.000303436 0.0016026 9.30468e-11 1.046e-10 2.1865e-09 5e-05 1.46608e-10 
81 1 0.137431 0.0167025 0.00761907 0.00597192 9.91329e-05 0.000509758 3.0633e-11 -6.65649e-11 1.07232e-10 5e-05 1.46608e-10 
82 1 0.13747 0.0168426 0.00748171 0.00609818 0.000146717 0.000476864 -2.78432e-11 -1.61962e-10 1.2557e-10 5e-05 1.46608e-10 
83 1 0.137372 0.0164919 0.00782552 0.00585663 0.000139307 0.000457727 2.53606e-10 -6.59595e-11 9.05507e-11 5e-05 1.46608e-10 
84 1 0.149825 0.0183833 0.00700359 0.00554807 -0.000599163 7.9425e-05 9.25601e-13 -1.2376e-12 3.16101e-13 5e-05 1.46608e-10 
85 1 0.143213 0.0159015 0.0083669 0.00549284 0.000115347 0.00154907 1.25353e-10 2.6339e-10 -6.16781e-12 5e-05 1.46608e-10 
86 1 0.143669 0.017416 0.00729748 0.00605915 0.00030376 0.00179141 -4.25001e-10 1.35994e-10 4.3131e-11 5e-05 1.46608e-10 
87 1 0.143793 0.0171442 0.00755244 0.00558492 0.00159657 0.000646273 3.33215e-10 2.49043e-10 -9.68712e-11 5e-05 1.46608e-10 
88 1 0.143758 0.018073 0.0070671 0.00612616 -0.000134551 -0.000276954 -7.78706e-11 7.47803e-11 6.37145e-11 5e-05 1.46608e-10 
89 1 0.143727 0.0176074 0.00729193 0.00610003 0.000650302 0.00174221 2.8356e-10 -2.859e-11 -5.92435e-10 5e-05 1.46608e-10 
90 1 0.143864 0.0177075 0.0071641 0.00607522 -0.000212782 -0.000235884 2.70124e-10 4.44848e-10 6.51663e-11 5e-05 1.46608e-10 
91 1 0.143547 0.0171915 0.00743185 0.00598699 0.000475564 0.00164949 -6.22417e-10 -1.50191e-09 8.67674e-10 5e-05 1.46608e-10 
92 1 0.143931 0.0181911 0.00702529 0.00582497 -0.000106602 -0.000263968 5.24538e-11 -8.82897e-10 2.45004e-10 5e-05 1.46608e-10 
93 1 0.143772 0.0177968 0.00723332 0.00613697 -0.00030529 -0.000319117 -1.75573e-10 2.306e-10 -2.23136e-10 5e-05 1.46608e-10 
94 1 0.143715 0.0175084 0.00730678 0.00608348 0.000552397 0.00158757 2.69367e-10 3.05929e-10 2.91052e-10 5e-05 1.46608e-10 
95 1 0.143591 0.0173709 0.00734115 0.00604572 0.000409637 0.00173737 -2.37498e-10 3.98039e-10 -1.1802e-10 5e-05 1.46608e-10 
96 1 0.143644 0.0175795 0.00721109 0.00597341 -0.000865557 -5.98137e-05 -4.21005e-13 -3.53261e-12 1.05046e-12 5e-05 1.46608e-10 
97 1 0.137627 0.0171087 0.0072952 0.00619889 -0.000457659 -0.000389015 2.09474e-10 1.06943e-10 -1.97598e-10 5e-05 1.46608e-10 
98 1 0.143891 0.0182798 0.00700248 0.00572236 -0.000152562 -0.000246516 2.74349e-10 -2.77872e-11 -1.52672e-11 5e-05 1.46608e-10 
99 1 0.137532 0.0170867 0.00732074 0.00615271 -0.000376423 -0.000192029 5.76406e-11 -2.05025e-11 -1.20143e-10 5e-05 1.46608e-10 
100 1 0.143854 0.0181013 0.00705434 0.0061103 -0.000134107 -0.000276888 -3.29721e-10 2.13562e-10 -4.26462e-11 5e-05 1.46608e-10 
101 1 0.137486 0.0165894 0.00773878 0.00587355 0.000116817 0.000482637 1.36236e-10 -2.44434e-11 4.63816e-11 5e-05 1.46608e-10 
102 1 0.0694385 0.0202053 0.00537268 3.85733e-15 4.49271e-15 -7.68303e-14 -1.24968e-21 2.27914e-22 -5.50075e-23 5e-05 1.46608e-10 
104 1 0.137587 0.0169475 0.00740627 0.00613382 3.08034e-05 0.000461272 -9.5182e-11 1.05191e-10 2.91851e-10 5e-05 1.46608e-10 
105 1 0.137334 0.0163518 0.00796284 0.00570564 0.000168385 0.00041623 5.82522e-11 -5.14299e-11 7.68528e-11 5e-05 1.46608e-10 
106 1 0.137693 0.017386 0.00719729 0.00617154 -0.000469391 -0.000366281 -4.62458e-11 -5.45761e-11 2.86832e-11 5e-05 1.46608e-10 
107 1 0.13796 0.0180283 0.00712332 0.00608386 1.03166e-05 0.000146265 -1.35552e-10 1.30693e-10 -1.17268e-11 5e-05 1.46608e-10 
108 1 0.143604 0.0171622 0.00758612 0.00583433 0.000283264 0.00170312 -2.00225e-10 7.29054e-11 -5.99544e-10 5e-05 1.46608e-10 
109 1 0.143566 0.0172671 0.00749434 0.0059863 0.000427922 0.00174108 -4.92576e-10 -8.34743e-11 -4.65112e-10 5e-05 1.46608e-10 
110 1 0.143623 0.0175002 0.00726893 0.00608648 0.000302488 0.00166785 1.81047e-10 9.5909e-10 3.59399e-10 5e-05 1.46608e-10 
111 1 0.143836 0.0184397 0.00696045 0.00568055 -0.000331092 -0.000194016 -1.56711e-10 -7.81372e-11 1.76955e-11 5e-05 1.46608e-10 
112 1 0.137392 0.0165619 0.00775686 0.00586317 0.000136968 0.000462075 6.02771e-11 -2.54452e-11 5.6841e-11 5e-05 1.46608e-10 
113 1 0.137703 0.0170545 0.0073323 0.00618162 -0.000110117 0.000260118 -1.14964e-11 1.19729e-10 1.22792e-10 5e-05 1.46608e-10 
115 1 0.14357 0.0172907 0.00739725 0.00603206 0.000454445 0.00176095 -3.03307e-10 6.04109e-11 -2.66697e-10 5e-05 1.46608e-10 
116 1 0.143592 0.0167788 0.00777025 0.0058188 0.000270653 0.00176399 -5.378e-11 8.32439e-11 -1.69433e-10 5e-05 1.46608e-10 
117 1 0.143468 0.0165659 0.00789499 0.00569044 0.000306428 0.0016873 -1.43209e-10 -2.2738e-10 1.51069e-10 5e-05 1.46608e-10 
118 1 0.137256 0.0160716 0.00823761 0.00545306 0.000200359 0.000355781 -8.97744e-11 -9.96779e-11 9.28655e-11 5e-05 1.46608e-10 
119 1 0.143897 0.0174547 0.00734463 0.00655593 0.00160668 0.000959686 2.8843e-10 5.81032e-11 1.50692e-11 5e-05 1.46608e-10 
120 1 0.143233 0.0159637 0.00828652 0.00522236 0.000319594 0.00152003 1.4295e-11 7.87406e-11 -2.34191e-11 5e-05 1.46608e-10 
121 1 0.143326 0.0160046 0.00828675 0.00524058 0.00028388 0.00152504 -1.98317e-10 9.27293e-11 -1.2407e-10 5e-05 1.46608e-10 
122 1 0.143756 0.0176976 0.00726022 0.00613176 -0.000112348 -0.00021676 -1.00365e-10 -3.37859e-10 -2.77079e-11 5e-05 1.46608e-10 
123 1 0.137353 0.0164218 0.00789418 0.00580941 0.000150637 0.000442147 2.66935e-10 -7.88769e-11 1.06767e-10 5e-05 1.46608e-10 
124 1 0.143865 0.0178018 0.00719759 0.00612375 -0.000185305 -0.000248398 -5.35559e-10 4.50912e-10 2.5589e-11 5e-05 1.46608e-10 
125 1 0.143345 0.0160845 0.00822993 0.00522888 0.000299207 0.00153959 -3.13638e-10 -1.53672e-11 -8.42011e-11 5e-05 1.46608e-10 
126 1 0.143526 0.0171098 0.0074887 0.00588898 0.000301968 0.00174445 -2.60026e-10 -4.06101e-10 1.43227e-11 5e-05 1.46608e-10 
127 1 0.138118 0.0184467 0.00697657 0.00574205 -0.000277519 0.000196476 -6.96016e-11 -7.38006e-12 -1.48879e-11 5e-05 1.46608e-10 
128 1 0.143777 0.0175418 0.00723593 0.00579661 0.000684307 0.00142169 -2.45821e-11 -2.61641e-10 -5.50793e-11 5e-05 1.46608e-10 
129 1 0.143657 0.0176748 0.00731671 0.00593646 0.000361467 0.00221784 2.5816e-10 4.05139e-10 -1.12093e-09 5e-05 1.46608e-10 
131 1 0.137602 0.0170154 0.00732833 0.00611915 -0.00044383 -0.000375847 1.07763e-10 -1.58573e-10 -1.34347e-10 5e-05 1.46608e-10 
132 1 0.143765 0.0177245 0.00716433 0.00608892 -0.000165387 -0.000251483 -1.49746e-10 3.25699e-10 -1.79245e-10 5e-05 1.46608e-10 
133 1 0.143428 0.0164058 0.00800647 0.00563506 0.00030158 0.00167994 -3.78918e-10 -2.74144e-11 -7.48827e-11 5e-05 1.46608e-10 
134 1 0.143943 0.0177743 0.00714141 0.00607166 -0.000195731 -0.000258339 -3.56117e-10 2.20148e-10 8.29886e-11 5e-05 1.46608e-10 
135 1 0.14354 0.0165233 0.00795263 0.0056804 0.000256001 0.00172771 -4.76165e-10 -3.9883e-10 1.4504e-10 5e-05 1.46608e-10 
136 1 0.137276 0.0161416 0.00816892 0.00549726 0.000189352 0.00037069 1.26276e-10 -1.45813e-10 1.73636e-10 5e-05 1.46608e-10 
137 1 0.143715 0.0178856 0.00712178 0.00612175 -0.000157967 -0.00026176 1.05478e-10 -6.03754e-11 -2.53489e-11 5e-05 1.46608e-10 
138 1 0.143818 0.0179227 0.00710616 0.00612908 -0.000161535 -0.000265241 -2.52298e-10 -4.10468e-11 -2.3277e-11 5e-05 1.46608e-10 
140 1 0.143666 0.0173144 0.00737597 0.00602189 0.000354705 0.00177357 -2.57684e-10 7.25522e-10 -6.07374e-10 5e-05 1.46608e-10 
141 1 0.137428 0.0163793 0.00794479 0.00575147 0.000114429 0.000472761 4.97463e-11 -6.46457e-11 6.56486e-11 5e-05 1.46608e-10 
142 1 0.137525 0.0167336 0.00760582 0.00596708 0.000108341 0.000499231 2.49418e-11 -8.55294e-12 1.08165e-11 5e-05 1.46608e-10 
143 1 0.137314 0.0162818 0.0080315 0.00562743 0.000171329 0.000403218 -4.20945e-11 -1.00573e-10 9.62651e-11 5e-05 1.46608e-10 
146 1 0.137601 0.016687 0.00765207 0.00593695 9.05955e-05 0.000515668 -1.05615e-10 -6.25659e-11 5.08714e-11 5e-05 1.46608e-10 
147 1 0.137236 0.0160015 0.00830618 0.00547948 0.000204336 0.000354015 -5.0576e-10 -6.86816e-11 2.9579e-12 5e-05 1.46608e-10 
148 1 0.00854121 0.0168865 0.00826271 1.12264e-05 -0.0189421 0.0127673 5.27249e-13 6.36181e-11 -1.3064e-11 5e-05 1.46608e-10 
149 1 0.143894 0.0179924 0.00708283 0.00607172 -0.000104184 -0.00027486 -3.99798e-10 2.07716e-10 -8.56656e-12 5e-05 1.46608e-10 
150 1 0.137506 0.0166595 0.00767014 0.0059192 0.000114478 0.000490253 9.4931e-11 -1.4176e-11 7.01654e-11 5e-05 1.46608e-10 
151 1 0.138044 0.0177588 0.00710157 0.00594664 3.27754e-06 0.000151938 -3.89953e-10 1.1061e-10 -4.53852e-11 5e-05 1.46608e-10 
153 1 0.137581 0.016617 0.00772066 0.00589224 8.88558e-05 0.000512429 1.55081e-10 -7.80847e-12 2.81519e-11 5e-05 1.46608e-10 
154 1 0.137736 0.0175709 0.00713212 0.00616987 -0.000493506 -0.000397813 8.27851e-11 -3.24182e-11 -6.17846e-11 5e-05 1.46608e-10 
155 1 0.131733 0.0176023 0.00731418 0.00591482 -0.00032237 0.000576658 -6.13949e-13 2.68414e-12 -1.46356e-12 5e-05 1.46608e-10 
156 1 0.137619 0.0174513 0.00718188 0.00617534 -0.00044993 -0.000306339 -9.92977e-11 -5.91111e-11 1.90608e-10 5e-05 1.46608e-10 
157 1 0.137802 0.0178588 0.007077 0.00612192 -0.000314712 0.000214001 1.806e-10 -1.10417e-11 5.51332e-11 5e-05 1.46608e-10 
158 1 0.137841 0.0172545 0.00722848 0.00616656 -0.000455657 -0.000373384 7.09182e-11 -2.31503e-11 1.19277e-12 5e-05 1.46608e-10 
159 1 0.143924 0.0183924 0.00696927 0.00568378 -0.000337399 -0.00019335 3.4948e-11 -8.81779e-12 1.60676e-12 5e-05 1.46608e-10 
160 1 0.137706 0.017828 0.00708026 0.00614585 -0.000334176 0.000219504 4.09027e-11 5.40401e-11 -4.78997e-11 5e-05 1.46608e-10 
162 1 0.13765 0.0172019 0.00726232 0.00615434 -0.000466765 -0.00036952 1.24322e-11 -1.87675e-10 -3.9466e-10 5e-05 1.46608e-10 
163 1 0.137862 0.0173466 0.007196 0.00616955 -0.000457831 -0.000372309 -2.6609e-11 4.68194e-12 -7.33114e-12 5e-05 1.46608e-10 
164 1 0.137766 0.018015 0.00704727 0.00596006 -0.000234579 0.000194223 6.62716e-10 -4.38363e-11 4.80029e-11 5e-05 1.46608e-10 
165 1 0.137777 0.0169934 0.00736109 0.00618613 5.24409e-05 0.000579929 -5.19878e-11 3.93685e-11 7.78523e-11 5e-05 1.46608e-10 
166 1 0.143172 0.0157687 0.00851065 0.00556546 -0.000658428 0.000848725 -3.14945e-11 8.79187e-11 -1.95178e-10 5e-05 1.46608e-10 
167 1 0.137623 0.0167568 0.00758388 0.00598683 8.47526e-05 0.000525376 -9.41512e-11 -7.59442e-11 6.51384e-11 5e-05 1.46608e-10 
168 1 0.137759 0.0176675 0.0071174 0.00617759 -0.000361389 0.000175421 1.17119e-10 -5.62396e-11 1.81847e-10 5e-05 1.46608e-10 
169 1 0.137905 0.0175334 0.00713964 0.00620214 -0.000341761 0.000219133 1.72073e-10 -8.834e-11 -6.03312e-11 5e-05 1.46608e-10 
170 1 0.137832 0.0175997 0.00712555 0.00618964 -0.000346629 0.000220201 1.71423e-10 -9.14828e-11 9.72911e-11 5e-05 1.46608e-10 
171 1 0.143569 0.0166032 0.00790005 0.00574745 0.000248012 0.00175349 -2.79545e-11 -4.42749e-10 2.66861e-10 5e-05 1.46608e-10 
172 1 0.138059 0.0183309 0.00699643 0.00570004 -0.000286385 0.000196598 -1.12879e-10 1.8207e-10 -3.07864e-12 5e-05 1.46608e-10 
173 1 0.143854 0.0173033 0.00744851 0.00654949 0.00150604 0.00104434 -1.60435e-11 -3.68781e-11 6.81847e-11 5e-05 1.46608e-10 
174 1 0.138025 0.0180414 0.00704897 0.00600164 0.000159351 0.000121597 1.63254e-10 -2.08231e-10 1.08275e-10 5e-05 1.46608e-10 
175 1 0.134309 0.0164419 0.00779933 0.00575683 0.000602939 -0.000690468 8.38074e-14 8.18087e-13 -2.51336e-13 5e-05 1.46608e-10 
176 1 0.137597 0.0173592 0.00721436 0.00617082 -0.000452405 -0.000326776 -3.74276e-11 -1.07892e-10 -3.52091e-11 5e-05 1.46608e-10 
177 1 0.138049 0.0185169 0.00696187 0.00576845 -0.000254123 0.00019239 3.26626e-11 3.83731e-11 -9.54259e-12 5e-05 1.46608e-10 
178 1 0.138145 0.0181677 0.0070287 0.00565606 -0.000233523 0.000186244 -1.4525e-10 -5.61077e-10 1.08167e-10 5e-05 1.46608e-10 
179 1 0.131527 0.0171033 0.00745865 0.00593523 -0.000326988 0.000579658 6.3897e-12 1.73084e-11 -6.60163e-12 5e-05 1.46608e-10 
180 1 0.137767 0.0173204 0.00721282 0.00616634 -0.000470522 -0.000368827 1.44737e-10 3.90985e-11 -8.80584e-12 5e-05 1.46608e-10 
181 1 0.13781 0.0175047 0.00714787 0.00617052 -0.000469742 -0.000362579 -7.65842e-11 4.46193e-12 6.89237e-11 5e-05 1.46608e-10 
182 1 0.143693 0.0169598 0.0076628 0.00589956 0.000305991 0.00175479 9.69217e-10 2.42166e-10 5.45367e-11 5e-05 1.46608e-10 
183 1 0.137927 0.0176299 0.00712239 0.0061906 -0.000332502 0.000219257 8.4047e-11 -2.58808e-10 -2.23983e-11 5e-05 1.46608e-10 
184 1 0.14368 0.0177619 0.00725282 0.00602668 -0.000331069 -0.00112172 7.98261e-11 -1.68093e-10 -8.65054e-10 5e-05 1.46608e-10 
185 1 0.137641 0.0175438 0.0071509 0.00617483 -0.000467101 -0.000341164 -4.40542e-12 2.02243e-11 3.68139e-10 5e-05 1.46608e-10 
186 1 0.137672 0.0172939 0.00722977 0.00616831 -0.000467949 -0.000363598 4.18788e-11 -4.55353e-11 1.04462e-11 5e-05 1.46608e-10 
187 1 0.14377 0.017064 0.00760744 0.00562255 0.00156494 0.000682959 4.37434e-10 2.887e-10 -6.94504e-11 5e-05 1.46608e-10 
188 1 0.143667 0.0176794 0.00718194 0.00596048 -0.000919071 -4.41755e-05 2.93337e-13 2.36735e-13 -9.22998e-14 5e-05 1.46608e-10 
189 1 0.143445 0.0164908 0.00795692 0.00564898 0.000307837 0.0016757 -4.07165e-10 -1.96437e-10 -4.96402e-11 5e-05 1.46608e-10 
190 1 0.137985 0.0186699 0.00693203 0.00551937 -0.000265889 0.000188622 2.12147e-11 5.88007e-11 -1.39268e-11 5e-05 1.46608e-10 
191 1 0.143736 0.0179793 0.00709444 0.00614058 -0.000141215 -0.000271865 -1.08682e-10 -6.70575e-11 4.91333e-11 5e-05 1.46608e-10 
192 1 0.137715 0.0174782 0.00716478 0.0061745 -0.000466747 -0.000352113 -3.88713e-11 -9.24566e-11 1.41681e-10 5e-05 1.46608e-10 
193 1 0.143817 0.0183455 0.00698782 0.00562966 -0.000299512 -0.00020156 2.11074e-11 1.38e-10 -4.27205e-11 5e-05 1.46608e-10 
194 1 0.137547 0.0167991 0.00753357 0.00601062 0.000100742 0.000508781 -8.14818e-11 -3.1563e-11 3.33113e-11 5e-05 1.46608e-10 
195 1 0.137854 0.0176972 0.00711084 0.00615722 -0.000379348 8.84877e-05 6.06256e-11 -2.47668e-10 4.97849e-10 5e-05 1.46608e-10 
196 1 0.137133 0.0156519 0.0086483 0.00582002 0.00016887 0.000424681 1.06931e-10 3.62172e-10 -3.55712e-10 5e-05 1.46608e-10 
197 1 0.13807 0.0182333 0.00701473 0.00563667 -0.000272164 0.000191228 -2.21864e-10 6.56421e-11 -2.63075e-11 5e-05 1.46608e-10 
198 1 0.137554 0.0171754 0.00727989 0.00616953 -0.000469171 -0.000388436 6.91121e-11 2.16147e-11 -9.10022e-11 5e-05 1.46608e-10 
199 1 0.137685 0.0177333 0.00710465 0.00616615 -0.000384227 6.41328e-05 4.29527e-11 -1.49227e-11 -4.86273e-11 5e-05 1.46608e-10 
200 1 0.137566 0.0168691 0.00746483 0.00606001 9.4491e-05 0.000518767 -1.34806e-11 -4.45898e-11 7.28057e-11 5e-05 1.46608e-10 
201 1 0.138067 0.0186137 0.00694447 0.00554806 -0.000222703 0.000181615 -5.143e-11 -4.14393e-11 1.13299e-11 5e-05 1.46608e-10 
203 1 0.143965 0.0179243 0.00709827 0.00612501 -0.000148339 -0.000273967 -7.42205e-10 4.02763e-10 -1.46632e-10 5e-05 1.46608e-10 
204 1 0.13768 0.016968 0.00737676 0.00616478 5.23319e-05 0.000578968 -3.94035e-11 3.77687e-11 1.84433e-10 5e-05 1.46608e-10 
205 1 0.137854 0.0180711 0.00710301 0.00595787 -0.000220808 0.000231431 3.19827e-11 -4.24225e-11 -1.05861e-10 5e-05 1.46608e-10 
206 1 0.13778 0.0177624 0.00709423 0.00615667 -0.000341985 0.000221284 1.71599e-10 -6.16431e-11 8.52919e-11 5e-05 1.46608e-10 
207 1 0.137561 0.0165469 0.00778931 0.00584702 8.71135e-05 0.000509733 2.68563e-10 3.47667e-11 -1.10744e-11 5e-05 1.46608e-10 
208 1 0.137663 0.017638 0.00712535 0.00617499 -0.000444359 -0.000227842 4.91982e-11 1.27671e-11 9.45828e-11 5e-05 1.46608e-10 
209 1 0.131549 0.0171987 0.00743822 0.00592412 -0.000325683 0.000579277 -5.92644e-12 1.74731e-11 -6.45394e-12 5e-05 1.46608e-10 
210 1 0.143193 0.015833 0.00843689 0.00545801 -0.000400704 0.00103589 3.5726e-10 1.50499e-10 -8.14526e-11 5e-05 1.46608e-10 
211 1 0.143907 0.0180866 0.00713805 0.00613098 -0.00014915 -0.000303315 -4.89903e-10 -1.54043e-10 -1.69706e-10 5e-05 1.46608e-10 
212 1 0.137977 0.0179493 0.00706476 0.00599066 -2.23369e-05 0.000150615 -1.62747e-10 4.44319e-11 -1.11864e-10 5e-05 1.46608e-10 
213 1 0.143881 0.0176089 0.00721853 0.00615792 0.00150115 0.000911952 4.85556e-11 -9.50803e-11 2.71174e-10 5e-05 1.46608e-10 
214 1 0.143957 0.0180029 0.0071595 0.00610608 -0.000165006 -0.000267866 -4.60858e-10 2.42587e-10 -2.69823e-10 5e-05 1.46608e-10 
215 1 0.137745 0.0172284 0.0072453 0.00615471 -0.000478754 -0.000360529 1.60547e-10 -1.52461e-11 1.53094e-11 5e-05 1.46608e-10 
216 1 0.137819 0.0171624 0.00726097 0.00614043 -0.000488307 -0.000359451 3.95333e-11 -1.93953e-10 3.70833e-11 5e-05 1.46608e-10 
217 1 0.143583 0.0166989 0.0078296 0.00579584 0.000260599 0.00176049 2.08251e-10 1.24091e-10 3.84492e-11 5e-05 1.46608e-10 
218 1 0.137897 0.0178909 0.00707347 0.00598031 2.33674e-05 0.000146936 1.44136e-11 4.70542e-10 3.42803e-10 5e-05 1.46608e-10 
219 1 0.143818 0.0180314 0.00713538 0.00603676 -0.000181408 -0.000268093 -1.05947e-10 2.70259e-10 1.02941e-10 5e-05 1.46608e-10 
220 1 0.137724 0.0171368 0.0072793 0.00612031 -0.000498919 -0.000374914 9.3579e-11 -1.15005e-10 -2.47064e-10 5e-05 1.46608e-10 
221 1 0.13142 0.0166361 0.00760074 0.00549667 -0.000245849 0.000515072 -8.06349e-12 2.59539e-11 3.21157e-11 5e-05 1.46608e-10 
222 1 0.143375 0.016526 0.00789471 0.00565028 0.000331924 0.00166 -2.87415e-10 -2.52794e-10 2.54565e-11 5e-05 1.46608e-10 
223 1 0.137789 0.0174125 0.00718035 0.00617305 -0.000466706 -0.000369628 1.17279e-11 1.4658e-11 -6.23861e-11 5e-05 1.46608e-10 
224 1 0.137576 0.0172672 0.00724682 0.00616701 -0.000463229 -0.000368676 -1.85169e-12 -2.64119e-11 -9.10319e-12 5e-05 1.46608e-10 
225 1 0.143885 0.0175308 0.00728095 0.00660771 0.00160707 0.000983781 3.20633e-10 -4.69547e-12 1.13644e-10 5e-05 1.46608e-10 
226 1 0.137797 0.0170699 0.00729363 0.00604747 -0.000563294 -0.000333178 1.4073e-10 -7.04206e-11 -1.00956e-10 5e-05 1.46608e-10 
227 1 0.131484 0.0169166 0.0075154 0.00593853 -0.000328235 0.000580673 -7.1043e-13 -3.16286e-11 2.08519e-11 5e-05 1.46608e-10 
228 1 0.0507861 0.0189683 0.00558458 -5.35857e-15 -1.91121e-14 -2.87013e-13 -1.93483e-22 1.02002e-22 -3.10193e-24 5e-05 1.46608e-10 
229 1 0.137389 0.0162392 0.00808212 0.00558396 0.00012786 0.000441776 -1.06863e-10 -1.15645e-10 1.09137e-10 5e-05 1.46608e-10 
230 1 0.13793 0.0182888 0.00709118 0.0056728 -0.000255685 0.000185764 -5.8867e-11 1.03279e-10 7.44312e-11 5e-05 1.46608e-10 
231 1 0.197479 0.018695 0.00523156 -1.08673e-15 -2.69832e-14 1.45243e-13 -1.78144e-22 5.06648e-24 -1.03398e-24 5e-05 1.46608e-10 
232 1 0.137409 0.0163092 0.00801345 0.00565576 0.000117973 0.000459931 -2.2788e-11 -9.24075e-11 9.901e-11 5e-05 1.46608e-10 
233 1 0.137663 0.0168968 0.00744684 0.00613605 9.6519e-05 0.000570941 4.80335e-12 -7.01984e-11 -6.11847e-12 5e-05 1.46608e-10 
234 1 0.14313 0.015647 0.00866345 0.00565614 -0.000679708 0.00088881 -1.36853e-10 -2.45981e-10 3.37012e-10 5e-05 1.46608e-10 
235 1 0.13785 0.0185059 0.00695887 0.00571598 -0.000323362 0.000203981 3.56306e-11 5.89914e-12 -4.87026e-11 5e-05 1.46608e-10 
236 1 0.13787 0.0186023 0.00694159 0.00574109 -0.000326897 0.000207562 -2.25866e-11 -1.02054e-11 -7.25011e-12 5e-05 1.46608e-10 
237 1 0.137769 0.0181134 0.00702921 0.00567565 -0.000217094 0.000185949 -4.59999e-11 -9.17919e-11 2.01918e-11 5e-05 1.46608e-10 
238 1 0.131571 0.0172895 0.00740208 0.00592788 -0.000326355 0.000579087 -1.54848e-12 6.72608e-12 -2.50284e-12 5e-05 1.46608e-10 
239 1 0.131323 0.0162586 0.00790928 0.00546151 -0.000528308 4.99692e-05 -3.78223e-11 -7.33778e-11 5.54926e-11 5e-05 1.46608e-10 
240 1 0.131401 0.0165522 0.00765165 0.00549605 -0.000389588 0.000276877 -3.75839e-11 -1.66062e-11 4.30849e-11 5e-05 1.46608e-10 
241 1 0.131343 0.0163272 0.00783928 0.00550338 -0.000535526 5.16172e-05 8.49257e-11 -7.61377e-11 9.65917e-12 5e-05 1.46608e-10 
242 1 0.13171 0.0175075 0.00734292 0.00591523 -0.000320348 0.000576446 -7.70231e-12 8.07507e-12 7.21026e-12 5e-05 1.46608e-10 
243 1 0.131303 0.01619 0.00797933 0.00544825 -0.000529574 5.17968e-05 1.40618e-10 -2.40078e-11 2.36496e-11 5e-05 1.46608e-10 
244 1 0.131361 0.016396 0.00776918 0.0055055 -0.000540573 5.28016e-05 1.91908e-10 1.32183e-11 4.09187e-11 5e-05 1.46608e-10 
245 1 0.131592 0.0173829 0.0073737 0.00592525 -0.000324964 0.000578366 7.38072e-13 4.40223e-12 3.68586e-13 5e-05 1.46608e-10 
246 1 0.131441 0.0167297 0.00757221 0.00560713 -0.000264759 0.000534349 -3.28243e-11 2.30356e-11 -3.00095e-11 5e-05 1.46608e-10 
247 1 0.137949 0.0177267 0.0071051 0.00613883 -0.000366462 0.000220792 1.89898e-10 3.58438e-11 -1.0173e-10 5e-05 1.46608e-10 
248 1 0.137885 0.0179891 0.00705508 0.00596812 -0.000147992 0.000171306 7.87269e-11 -1.08659e-10 3.78477e-11 5e-05 1.46608e-10 
249 1 0.131636 0.0175709 0.00732136 0.00591315 -0.000323017 0.000573249 -6.07911e-12 -1.61893e-12 -1.66715e-11 5e-05 1.46608e-10 
250 1 0.137932 0.0180765 0.00704015 0.00591346 -3.19969e-05 0.000159479 1.72319e-10 3.03288e-10 -8.87024e-11 5e-05 1.46608e-10 