ITEM: TIMESTEP
4200000
ITEM: NUMBER OF ATOMS
284
ITEM: BOX BOUNDS ff ff ff
-0.02 0.43
-0.02 0.06
-0.02 0.07
ITEM: ATOMS id type x y z vx vy vz fx fy fz radius mass 
1 1 0.0372852 0.0161716 0.00788182 0.00584063 0.000801286 -0.000726893 -6.68134e-11 1.54041e-10 -1.51996e-10 5e-05 1.46608e-10 
2 1 0.037617 0.0168212 0.00749135 0.00589089 0.000914808 -0.000619365 3.9065e-10 -1.22926e-10 3.15666e-11 5e-05 1.46608e-10 
3 1 0.0313014 0.0162843 0.0078957 0.00545139 -0.000334016 0.0002001 -5.68051e-11 -5.27615e-13 -6.92975e-12 5e-05 1.46608e-10 
4 1 0.0376759 0.0174831 0.00715841 0.00638481 0.000751156 -0.000551647 -5.16527e-10 2.23585e-10 -9.06205e-11 5e-05 1.46608e-10 
5 1 0.0371707 0.0160903 0.0079806 0.00571616 0.000795892 -0.000723082 -3.22405e-12 4.46609e-11 -4.69449e-11 5e-05 1.46608e-10 
6 1 0.0432313 0.016302 0.0077451 0.00546079 -0.000530997 0.000406813 -4.74992e-13 2.70104e-12 -1.82902e-12 5e-05 1.46608e-10 
7 1 0.0373994 0.0166688 0.00757363 0.00582008 0.000843032 -0.000581483 3.57556e-10 -1.51456e-10 6.47018e-11 5e-05 1.46608e-10 
8 1 0.0371346 0.0158489 0.00829045 0.00580902 0.00073654 -0.000640571 -4.7756e-10 1.4866e-10 -1.82894e-10 5e-05 1.46608e-10 
9 1 0.0434737 0.0174167 0.00737266 0.00575645 -0.000584125 0.000438006 1.34741e-12 -5.19723e-12 9.67866e-13 5e-05 1.46608e-10 
10 1 0.0373439 0.0168161 0.0075014 0.0057817 0.000726593 -0.000522375 -7.96503e-11 -2.08822e-10 1.12301e-10 5e-05 1.46608e-10 
11 1 0.0374583 0.0169311 0.00744066 0.00577184 0.000807359 -0.000561693 1.69977e-10 -8.68112e-11 4.91534e-11 5e-05 1.46608e-10 
12 1 0.0375379 0.0172808 0.00726345 0.00604153 0.000794002 -0.000563479 7.62512e-11 2.18159e-10 -1.12154e-10 5e-05 1.46608e-10 
13 1 0.0372461 0.0163785 0.00772315 0.00587032 0.00122406 -0.000773575 1.19146e-11 5.06163e-11 -2.56448e-11 5e-05 1.46608e-10 
14 1 0.0310264 0.0156319 0.00853472 0.00557169 -0.00012519 0.000440423 8.50858e-11 1.16881e-10 -1.23812e-10 5e-05 1.46608e-10 
15 1 0.0374423 0.017254 0.00727949 0.00580312 0.000885616 -0.000602302 9.49288e-12 4.79191e-11 -2.42574e-11 5e-05 1.46608e-10 
16 1 0.0310059 0.0155614 0.00860264 0.00556905 -0.000120702 0.000435681 -9.6142e-11 9.06334e-11 -1.03912e-10 5e-05 1.46608e-10 
17 1 0.0373046 0.0166412 0.00759005 0.00581992 0.000831559 -0.000576677 -1.88866e-11 -2.63744e-11 2.87642e-12 5e-05 1.46608e-10 
18 1 0.0433667 0.0169533 0.00752722 0.0053673 -0.000511356 0.000396868 8.24298e-13 3.85426e-14 -5.96904e-13 5e-05 1.46608e-10 
19 1 0.037133 0.0159691 0.00813515 0.00575596 0.000767222 -0.000683425 1.68882e-11 4.39569e-11 -8.00932e-11 5e-05 1.46608e-10 
20 1 0.0376133 0.0172212 0.00729123 0.00626207 0.000881364 -0.000612206 -3.02621e-10 2.32551e-10 -1.4431e-10 5e-05 1.46608e-10 
21 1 0.0371523 0.0160297 0.00805796 0.00572511 0.000783291 -0.000705188 -1.42194e-10 6.69377e-11 -9.21232e-11 5e-05 1.46608e-10 
22 1 0.0374976 0.0171061 0.00735202 0.00583505 0.000826592 -0.000573606 -5.73881e-10 1.83145e-10 -1.01124e-10 5e-05 1.46608e-10 
23 1 0.0313573 0.0168413 0.00740293 0.00563446 -0.000177296 0.000321528 -7.41298e-11 -6.36892e-11 4.48534e-11 5e-05 1.46608e-10 
24 1 0.0434522 0.017324 0.00740356 0.00573713 -0.000580626 0.000435903 3.38965e-14 -3.40903e-12 2.63583e-12 5e-05 1.46608e-10 
25 1 0.037419 0.0167562 0.00752931 0.00584392 0.000819364 -0.000571213 4.73212e-10 -3.23821e-10 1.63713e-10 5e-05 1.46608e-10 
26 1 0.0433083 0.0166743 0.00762057 0.00541965 -0.000521694 0.000402572 1.18536e-12 1.24092e-12 -1.00791e-12 5e-05 1.46608e-10 
27 1 0.0312808 0.016527 0.00762448 0.00553636 -0.000340722 9.12058e-05 2.9684e-13 1.50357e-10 -1.70309e-10 5e-05 1.46608e-10 
28 1 0.0372656 0.016466 0.00767881 0.00586946 0.00124017 -0.000781617 1.0924e-11 4.64264e-11 -2.35708e-11 5e-05 1.46608e-10 
29 1 0.0373017 0.0162409 0.00781164 0.00578112 0.000832287 -0.000723738 -3.35548e-10 2.72913e-10 -9.04021e-11 5e-05 1.46608e-10 
30 1 0.0377394 0.0173472 0.00722467 0.00643201 0.00100952 -0.000681425 6.44683e-11 -1.92492e-10 6.99255e-11 5e-05 1.46608e-10 
31 1 0.0374227 0.0171665 0.00732383 0.00583188 0.00100252 -0.00066161 8.89248e-12 4.09918e-11 -2.07841e-11 5e-05 1.46608e-10 
32 1 0.037478 0.0170186 0.00739634 0.00575762 0.000819397 -0.000568741 8.86699e-12 -6.07914e-11 4.42923e-11 5e-05 1.46608e-10 
33 1 0.0432505 0.0163951 0.00771396 0.00544187 -0.000526926 0.00040553 1.0013e-12 1.80071e-12 -1.11305e-12 5e-05 1.46608e-10 
34 1 0.0373243 0.0167286 0.00754572 0.00581173 0.000843766 -0.000581784 6.65504e-11 -8.12639e-11 3.72043e-11 5e-05 1.46608e-10 
36 1 0.0434952 0.0175093 0.00734176 0.00577583 -0.000587768 0.000439815 -1.54208e-12 -4.69473e-12 8.90208e-13 5e-05 1.46608e-10 
37 1 0.0373636 0.0169035 0.00745708 0.00578303 0.000759584 -0.000537815 2.9908e-12 -1.50194e-10 6.66083e-11 5e-05 1.46608e-10 
38 1 0.0375176 0.0171935 0.00730772 0.00594963 0.000814321 -0.000570215 -7.38308e-10 3.44114e-10 -1.37498e-10 5e-05 1.46608e-10 
39 1 0.0434307 0.0172314 0.00743447 0.00571782 -0.0005772 0.000433913 7.79481e-13 -2.9799e-12 -8.64869e-13 5e-05 1.46608e-10 
41 1 0.0371892 0.016151 0.00790327 0.00574667 0.000801876 -0.000729235 1.82649e-10 -1.88413e-11 1.04028e-12 5e-05 1.46608e-10 
42 1 0.0374029 0.0170785 0.00736843 0.00575845 0.000750375 -0.000532411 -2.5073e-11 -2.14972e-11 7.80675e-12 5e-05 1.46608e-10 
44 1 0.0375931 0.0171338 0.00733551 0.00600828 0.000896457 -0.000614926 -5.66182e-10 3.15005e-10 -1.1871e-10 5e-05 1.46608e-10 
45 1 0.043289 0.0165812 0.00765169 0.0054036 -0.00051949 0.000401184 6.03559e-13 1.33942e-12 -3.11026e-13 5e-05 1.46608e-10 
46 1 0.0433472 0.0168603 0.00755833 0.00538493 -0.000514758 0.000398803 4.06134e-13 7.27483e-13 -4.4183e-14 5e-05 1.46608e-10 
47 1 0.0372266 0.016291 0.0077675 0.00586617 0.00118544 -0.000754126 1.32771e-11 5.61991e-11 -2.84799e-11 5e-05 1.46608e-10 
48 1 0.037573 0.0170464 0.0073798 0.00579961 0.000887683 -0.000601949 -8.79161e-11 1.52576e-10 -3.43959e-11 5e-05 1.46608e-10 
49 1 0.0433278 0.0167673 0.00758945 0.00540201 -0.000518216 0.00040065 2.47586e-13 1.29331e-12 -8.83563e-14 5e-05 1.46608e-10 
50 1 0.0376003 0.0175425 0.00713073 0.00638126 0.000744327 -0.000548044 -4.17593e-10 1.51886e-11 -5.52311e-12 5e-05 1.46608e-10 
51 1 0.0375794 0.0174553 0.00717496 0.00632117 0.00074093 -0.000543763 -1.30723e-10 -5.95588e-11 1.36973e-11 5e-05 1.46608e-10 
52 1 0.0377487 0.0181857 0.00693368 0.00652122 0.00094679 -0.000188924 -3.22916e-11 -2.71676e-11 3.98086e-10 5e-05 1.46608e-10 
53 1 0.0433877 0.0170461 0.00749627 0.00567907 -0.000570488 0.000430004 1.41396e-12 -1.19388e-12 -1.11671e-12 5e-05 1.46608e-10 
54 1 0.0372679 0.0161108 0.00795934 0.0058512 0.000795903 -0.000713844 -2.2972e-10 1.06495e-10 -1.67253e-10 5e-05 1.46608e-10 
55 1 0.0310672 0.0157729 0.00839884 0.00558167 -0.000130337 0.000446243 -7.11625e-11 1.40498e-10 -1.41089e-10 5e-05 1.46608e-10 
56 1 0.0373832 0.016991 0.00741275 0.00578142 0.000794495 -0.000556672 -1.27114e-10 -2.67066e-10 1.41696e-10 5e-05 1.46608e-10 
57 1 0.0432698 0.0164882 0.00768283 0.00542305 -0.000523264 0.000403268 2.34729e-12 2.38491e-12 -4.78399e-13 5e-05 1.46608e-10 
59 1 0.037514 0.0167841 0.00751276 0.00583465 0.00082548 -0.000571804 4.38671e-10 -1.90679e-10 1.21901e-10 5e-05 1.46608e-10 
60 1 0.0375336 0.0168715 0.00746844 0.005787 0.000830696 -0.000575624 4.35475e-10 -7.87672e-11 4.91456e-11 5e-05 1.46608e-10 
61 1 0.0372071 0.0162117 0.00782585 0.00578371 0.000800364 -0.000728983 -7.87038e-11 -2.67756e-11 1.27295e-11 5e-05 1.46608e-10 
62 1 0.0376338 0.0173085 0.00724697 0.00634161 0.000897092 -0.000622223 -7.17905e-11 -9.9957e-12 2.78825e-11 5e-05 1.46608e-10 
63 1 0.0375533 0.016959 0.00742412 0.0057331 0.000855224 -0.000584676 8.38757e-10 8.8556e-11 -1.01729e-10 5e-05 1.46608e-10 
64 1 0.0434092 0.0171387 0.00746537 0.0056984 -0.000573799 0.000431929 -4.92195e-13 -7.88324e-13 3.56838e-12 5e-05 1.46608e-10 
65 1 0.0313182 0.0166611 0.00748056 0.00561 -0.000201782 0.000345615 9.71014e-11 1.89712e-10 -1.17676e-10 5e-05 1.46608e-10 
66 1 0.0313392 0.0164133 0.00774764 0.00544793 -0.000377392 0.000137053 -1.6584e-12 5.53912e-11 -6.06837e-11 5e-05 1.46608e-10 
67 1 0.0376768 0.0170841 0.00735812 0.00587098 0.000738156 -0.00053017 -7.81853e-11 6.19303e-10 -3.0443e-10 5e-05 1.46608e-10 
68 1 0.0375585 0.0173681 0.00721919 0.0061804 0.000759158 -0.000548708 3.65287e-10 9.64859e-11 -7.01403e-11 5e-05 1.46608e-10 
69 1 0.0374387 0.0168437 0.00748499 0.00580918 0.000798663 -0.000559358 1.65285e-10 -2.66795e-10 1.07132e-10 5e-05 1.46608e-10 
70 1 0.0374839 0.0174284 0.00719101 0.0063565 0.000789086 -0.000569133 8.54262e-12 2.59215e-11 -1.29411e-11 5e-05 1.46608e-10 
71 1 0.0310467 0.0157024 0.00846677 0.0055965 -0.000133341 0.000448938 9.34756e-12 1.37012e-10 -1.28906e-10 5e-05 1.46608e-10 
72 1 0.0376548 0.0173957 0.0072027 0.00628976 0.00074725 -0.000546466 1.93224e-11 -1.46795e-10 1.1475e-10 5e-05 1.46608e-10 
73 1 0.0372851 0.0165537 0.00763438 0.00575938 0.000826529 -0.000571191 -8.35805e-11 4.86056e-11 -9.67669e-13 5e-05 1.46608e-10 
74 1 0.0378314 0.0173112 0.00724017 0.00661121 0.00145441 -0.000909386 -8.76093e-11 6.47399e-11 -2.40593e-11 5e-05 1.46608e-10 
76 1 0.0319139 0.0172052 0.00726775 0.00603334 -0.000283274 0.000400063 -1.514e-10 8.40563e-11 -3.40951e-11 5e-05 1.46608e-10 
77 1 0.037737 0.0185437 0.00697079 0.00647541 0.00112044 -0.00126828 -4.57986e-12 -6.56192e-11 -1.75043e-10 5e-05 1.46608e-10 
78 1 0.0311484 0.0160549 0.00812703 0.00547282 -0.000113121 0.000419623 2.88848e-10 -8.75084e-11 9.44065e-11 5e-05 1.46608e-10 
79 1 0.0313769 0.0169313 0.0073641 0.00561628 -0.000170813 0.000331548 1.98798e-11 -6.36826e-11 2.09784e-11 5e-05 1.46608e-10 
80 1 0.0375888 0.017867 0.00697518 0.00655066 0.000961552 -6.02363e-05 -1.42288e-11 -9.1493e-11 4.3214e-11 5e-05 1.46608e-10 
81 1 0.0312994 0.0165925 0.00755082 0.00556227 -0.000395232 0.000151234 8.34671e-11 2.14178e-10 -2.20849e-10 5e-05 1.46608e-10 
82 1 0.0313377 0.0167512 0.00744174 0.00564022 -0.0001918 0.000340648 -1.20217e-11 1.63477e-10 -4.34061e-11 5e-05 1.46608e-10 
83 1 0.0312436 0.0163961 0.00777166 0.00544797 -0.000394434 0.000154445 2.99198e-11 -7.77193e-11 1.15328e-10 5e-05 1.46608e-10 
84 1 0.0435166 0.0176019 0.00731086 0.00579506 -0.000591354 0.00044203 -2.4129e-13 -5.87813e-12 2.62668e-12 5e-05 1.46608e-10 
85 1 0.0370778 0.0157971 0.00835439 0.00581879 0.000717435 -0.000615725 -2.26483e-10 1.1923e-10 -2.27832e-10 5e-05 1.46608e-10 
86 1 0.0376424 0.0177177 0.00704399 0.00645864 0.000823293 -0.000416778 -3.54195e-10 5.66469e-12 -1.46879e-10 5e-05 1.46608e-10 
87 1 0.0375932 0.0167286 0.00753835 0.00583956 0.000821353 -0.000571752 5.49672e-10 -3.05582e-10 1.29829e-10 5e-05 1.46608e-10 
88 1 0.0376743 0.0182518 0.00694327 0.00651255 0.000991434 -0.000193926 1.11929e-10 -9.1329e-11 -3.54563e-11 5e-05 1.46608e-10 
89 1 0.0376859 0.0178976 0.00696867 0.00653763 0.000983235 -5.79409e-05 -8.39717e-11 -2.47404e-10 -4.65905e-11 5e-05 1.46608e-10 
90 1 0.0377607 0.0174348 0.00718025 0.00640419 0.000784824 -0.000568295 -5.69181e-10 4.39771e-10 -2.31141e-10 5e-05 1.46608e-10 
91 1 0.0375048 0.0175157 0.00714677 0.00638614 0.000779359 -0.000564817 -1.82984e-10 -2.57713e-10 1.14246e-10 5e-05 1.46608e-10 
92 1 0.0377816 0.017522 0.00713602 0.0064233 0.000824386 -0.000589138 -3.19849e-10 3.80477e-10 -1.00098e-10 5e-05 1.46608e-10 
93 1 0.0378036 0.0180227 0.0069306 0.0064286 0.000906817 -4.81659e-05 9.2366e-12 4.54774e-10 -2.07201e-10 5e-05 1.46608e-10 
94 1 0.0376642 0.0178063 0.00700312 0.00651186 0.000943001 -0.000158477 -1.83809e-10 -8.26544e-11 -2.21599e-11 5e-05 1.46608e-10 
95 1 0.0375675 0.0177773 0.00701406 0.00649902 0.000760945 -0.000558243 -3.01151e-11 -1.27512e-10 5.60488e-11 5e-05 1.46608e-10 
96 1 0.0377402 0.0177466 0.00702895 0.00650328 0.000783028 -0.000435837 -1.8505e-10 -5.59172e-11 -1.2776e-10 5e-05 1.46608e-10 
97 1 0.0314912 0.0170524 0.00731591 0.00559985 -0.000161896 0.000327617 -4.98682e-11 -1.11027e-10 3.60312e-11 5e-05 1.46608e-10 
98 1 0.0377161 0.0184463 0.00696155 0.00649975 0.00109555 -0.00107633 -1.74149e-11 3.81407e-11 -2.67833e-10 5e-05 1.46608e-10 
99 1 0.0313964 0.0170214 0.00732529 0.00560452 -0.000179397 0.000334045 2.11308e-11 -2.56728e-11 5.32275e-11 5e-05 1.46608e-10 
100 1 0.0378571 0.01741 0.00719002 0.00672371 0.00173671 -0.00105322 -5.84199e-10 4.16833e-10 -1.92124e-10 5e-05 1.46608e-10 
101 1 0.031358 0.0164793 0.00767493 0.00547297 -0.000373304 0.00013207 -5.64989e-11 -5.33294e-11 -2.53006e-10 5e-05 1.46608e-10 
102 1 0.0694385 0.0202053 0.00537268 3.92371e-15 4.45229e-15 -7.68291e-14 2.14894e-21 -1.58444e-22 1.04638e-22 5e-05 1.46608e-10 
104 1 0.031452 0.0168723 0.00739354 0.00559841 -0.000179725 0.000332449 1.14328e-10 -9.1998e-11 3.05224e-11 5e-05 1.46608e-10 
105 1 0.0312063 0.0162646 0.00791955 0.00540224 -0.000283046 3.53072e-05 -7.63773e-12 -5.3408e-11 2.18884e-11 5e-05 1.46608e-10 
106 1 0.0316204 0.0172741 0.00722405 0.00581088 -0.000410935 0.000447737 -8.59909e-11 1.93403e-11 -4.18171e-11 5e-05 1.46608e-10 
107 1 0.0311678 0.0161255 0.00805894 0.00549408 -0.000116628 0.000427214 5.41044e-11 -1.46228e-11 4.20952e-11 5e-05 1.46608e-10 
108 1 0.0373799 0.0165813 0.00761796 0.00577386 0.000867631 -0.000591811 6.2418e-11 -5.93201e-11 8.03902e-12 5e-05 1.46608e-10 
109 1 0.0375257 0.0176029 0.00710253 0.00641112 0.000871365 -0.00061706 -1.22493e-10 2.62107e-10 -1.29394e-10 5e-05 1.46608e-10 
110 1 0.0377064 0.0179905 0.00693766 0.00653765 0.000971328 -7.8809e-05 -1.0655e-10 -2.2891e-10 4.38992e-11 5e-05 1.46608e-10 
111 1 0.0378114 0.018478 0.00695868 0.00650571 0.000947095 -0.000195637 1.37866e-10 2.68979e-11 -2.06133e-11 5e-05 1.46608e-10 
112 1 0.0312623 0.0164617 0.00769791 0.00549459 -0.000333212 8.24301e-05 -3.9187e-11 1.94091e-10 -1.51298e-10 5e-05 1.46608e-10 
113 1 0.0315663 0.0169932 0.00734543 0.00562451 -0.000155721 0.000323975 -1.66318e-10 2.20644e-10 -8.19581e-11 5e-05 1.46608e-10 
115 1 0.0375466 0.0176901 0.0070583 0.00650953 0.000896003 -0.000625435 -4.04388e-10 1.86853e-10 -1.53362e-10 5e-05 1.46608e-10 
116 1 0.0374944 0.0166966 0.00755708 0.00583351 0.000828592 -0.000573633 6.53052e-10 -2.98785e-10 1.05121e-10 5e-05 1.46608e-10 
117 1 0.0374553 0.0165217 0.00764574 0.0057711 0.000818139 -0.000567459 -1.66187e-10 -1.93865e-10 1.03068e-10 5e-05 1.46608e-10 
118 1 0.0311079 0.0159139 0.00826296 0.00564409 -0.000131825 0.000450865 -1.12382e-10 3.74847e-12 -1.56475e-11 5e-05 1.46608e-10 
119 1 0.0377183 0.0172597 0.00726905 0.00639934 0.00101346 -0.000683612 -7.51364e-11 5.4115e-11 -1.95093e-11 5e-05 1.46608e-10 
120 1 0.0371149 0.0159084 0.00821254 0.00578785 0.000747591 -0.000655817 -1.66966e-10 1.47686e-10 -1.2922e-10 5e-05 1.46608e-10 
121 1 0.0372285 0.0159898 0.00811358 0.00575707 0.000784298 -0.00070568 -1.76358e-10 1.205e-10 -1.46531e-10 5e-05 1.46608e-10 
122 1 0.0377619 0.0178372 0.00699255 0.00649754 0.000938923 -4.97461e-05 2.39264e-10 -5.71424e-11 5.2828e-11 5e-05 1.46608e-10 
123 1 0.0312249 0.0163304 0.0078456 0.00542288 -0.000338969 9.29439e-05 1.33236e-11 2.54564e-10 -2.33542e-10 5e-05 1.46608e-10 
124 1 0.0376115 0.0179636 0.00695769 0.00655302 0.00101112 -1.63291e-05 1.08899e-10 -1.15056e-10 -1.5044e-11 5e-05 1.46608e-10 
125 1 0.0372487 0.0160502 0.00803655 0.00580427 0.000790388 -0.000710949 -4.47586e-10 1.14485e-10 -1.75622e-10 5e-05 1.46608e-10 
126 1 0.037463 0.0173412 0.00723524 0.00632072 0.000795116 -0.000571164 7.86746e-12 2.85657e-11 -1.45761e-11 5e-05 1.46608e-10 
127 1 0.0313203 0.0163483 0.00782121 0.00544138 -0.000402804 0.000125033 -2.43794e-11 7.75497e-11 -4.87866e-11 5e-05 1.46608e-10 
128 1 0.037697 0.0175706 0.00711402 0.0064057 0.000775621 -0.000569659 -6.46102e-10 6.0787e-11 -8.93474e-11 5e-05 1.46608e-10 
129 1 0.0377278 0.0180879 0.00693131 0.00649986 0.000965335 -0.000215522 -3.09671e-10 -1.3229e-10 5.02301e-10 5e-05 1.46608e-10 
131 1 0.0314716 0.0169623 0.00735473 0.00561419 -0.000163996 0.000328413 -5.08331e-11 -5.15556e-11 3.45693e-11 5e-05 1.46608e-10 
132 1 0.0377183 0.017658 0.00706969 0.00644864 0.000748964 -0.000551744 -4.02199e-10 4.83581e-11 -5.86525e-11 5e-05 1.46608e-10 
133 1 0.0373222 0.0163214 0.00775599 0.00566704 0.000895743 -0.000672561 -3.48234e-10 2.07464e-10 -5.81659e-11 5e-05 1.46608e-10 
134 1 0.0376568 0.0169967 0.00740241 0.00571731 0.00080059 -0.000558092 5.77732e-10 5.49321e-10 -3.3582e-10 5e-05 1.46608e-10 
135 1 0.0374165 0.0163467 0.00773442 0.0057415 0.000788781 -0.000547651 -3.12337e-10 -1.54002e-10 5.92763e-11 5e-05 1.46608e-10 
136 1 0.0311283 0.0159844 0.00819503 0.00566757 -0.000133292 0.000453821 -1.93903e-11 -5.20734e-11 2.14218e-11 5e-05 1.46608e-10 
137 1 0.0377575 0.0186404 0.00698582 0.00640743 0.00108616 -0.000953852 -5.1161e-11 -1.78111e-10 -5.89899e-11 5e-05 1.46608e-10 
138 1 0.0378887 0.0180733 0.00691677 0.00617855 0.00124429 -0.000164602 3.182e-10 2.41509e-10 6.33099e-12 5e-05 1.46608e-10 
140 1 0.0376212 0.0176297 0.00708654 0.00640041 0.00075528 -0.000555992 -4.71533e-10 8.23288e-12 1.28787e-11 5e-05 1.46608e-10 
141 1 0.0312821 0.01622 0.00796982 0.00548946 -0.000183267 0.000356669 3.1553e-11 -1.8957e-10 -9.57616e-11 5e-05 1.46608e-10 
142 1 0.0313951 0.016618 0.00753574 0.00563531 -0.000236445 0.000293078 -1.37186e-11 1.56671e-10 1.64835e-11 5e-05 1.46608e-10 
143 1 0.0311873 0.0161961 0.00799085 0.0055092 -0.000126341 0.000440286 3.61732e-11 4.06365e-11 8.62627e-12 5e-05 1.46608e-10 
146 1 0.0314699 0.01652 0.00762741 0.00555119 -0.000358793 0.000139016 1.6481e-10 -8.95188e-11 -3.85608e-10 5e-05 1.46608e-10 
147 1 0.0310875 0.0158434 0.0083309 0.00558235 -0.000126962 0.000442524 -6.58561e-11 8.72883e-11 -1.03467e-10 5e-05 1.46608e-10 
148 1 0.0117775 0.0177759 0.00781033 -0.0273823 0.027778 -0.00644195 -3.42865e-10 -1.79227e-10 -2.39778e-11 5e-05 1.46608e-10 
149 1 0.0376532 0.0181541 0.00693858 0.00653043 0.000982741 -0.000199825 -3.20436e-10 1.92933e-11 2.15146e-10 5e-05 1.46608e-10 
150 1 0.0313765 0.0165468 0.00760354 0.00554877 -0.000328062 0.00018099 -2.00709e-11 2.8627e-11 -1.26435e-10 5e-05 1.46608e-10 
151 1 0.0317575 0.0169984 0.00735181 0.00567101 -0.000203161 0.000347295 -1.06469e-10 5.73187e-11 -3.51201e-11 5e-05 1.46608e-10 
153 1 0.0314513 0.0164523 0.00769861 0.0054725 -0.000396068 9.07471e-05 -7.55916e-11 2.64161e-11 -2.39634e-10 5e-05 1.46608e-10 
154 1 0.0316047 0.0175239 0.0071422 0.00611233 -0.000482645 -0.000122631 -2.25541e-10 -1.65252e-10 5.72268e-11 5e-05 1.46608e-10 
155 1 0.0255634 0.0173819 0.00722516 0.00598997 -0.000339295 8.29465e-05 -2.09622e-12 -2.34102e-11 4.35493e-12 5e-05 1.46608e-10 
156 1 0.0314762 0.0173882 0.00718812 0.00610429 -0.000482659 -0.000247441 -6.01952e-11 -6.83025e-11 -2.79121e-10 5e-05 1.46608e-10 
157 1 0.0316697 0.0178049 0.00705955 0.00616955 -0.000510152 -0.000120787 9.92341e-11 -1.14664e-10 2.14515e-11 5e-05 1.46608e-10 
158 1 0.0316821 0.0171131 0.00729784 0.00574245 -0.000305725 0.000394929 2.90089e-11 -4.0106e-11 3.13086e-11 5e-05 1.46608e-10 
159 1 0.0378189 0.0176892 0.00705132 0.00644843 0.000655311 -0.000500348 2.08779e-11 1.1551e-10 -5.03436e-11 5e-05 1.46608e-10 
160 1 0.0315628 0.0177624 0.00707624 0.0061375 -0.000475292 -0.000129502 -3.45983e-11 1.85645e-10 -6.16975e-11 5e-05 1.46608e-10 
162 1 0.0315107 0.0171425 0.00727709 0.00538305 -0.00011482 0.000292988 -1.00623e-10 -1.71368e-10 -5.81706e-11 5e-05 1.46608e-10 
163 1 0.0317778 0.0170884 0.00731309 0.00574569 -0.000315893 0.0003998 -1.7932e-10 -3.01674e-10 1.3332e-10 5e-05 1.46608e-10 
164 1 0.0318735 0.0178751 0.0070308 0.00622463 -0.00063279 -8.83783e-05 5.83915e-10 1.07281e-10 -5.32807e-11 5e-05 1.46608e-10 
165 1 0.0316157 0.0167909 0.00743686 0.00565504 -0.00021381 0.000351989 -1.63337e-11 -1.1003e-10 5.26522e-11 5e-05 1.46608e-10 
166 1 0.0370372 0.0156761 0.00850843 0.00626139 0.000648637 -0.000500381 -8.00846e-11 2.96676e-10 -4.0802e-10 5e-05 1.46608e-10 
167 1 0.0314884 0.0165911 0.00755959 0.00562548 -0.000245869 0.000273091 -4.84649e-12 2.29645e-11 -1.8989e-10 5e-05 1.46608e-10 
168 1 0.0316264 0.0176176 0.00711465 0.0061316 -0.000491699 -0.00012509 -8.2213e-11 -1.84473e-10 3.78767e-11 5e-05 1.46608e-10 
169 1 0.031758 0.0174038 0.00717759 0.00592856 -0.000304419 -4.69246e-06 -1.93342e-10 -3.33307e-11 -1.63989e-10 5e-05 1.46608e-10 
170 1 0.0317003 0.017552 0.00713008 0.00615356 -0.00048895 -0.000126798 -1.0693e-10 -2.86026e-10 9.11122e-11 5e-05 1.46608e-10 
171 1 0.0374359 0.0164342 0.00769008 0.00575092 0.00080314 -0.000559364 -1.14565e-10 -2.21053e-10 1.07183e-10 5e-05 1.46608e-10 
172 1 0.0318426 0.0173547 0.0071986 0.00586346 -0.00027329 0.000393808 -1.05974e-10 -2.0526e-11 -2.60664e-11 5e-05 1.46608e-10 
173 1 0.037637 0.0169093 0.00744673 0.00566015 0.000818775 -0.000564477 1.37306e-09 1.41992e-11 -4.34288e-11 5e-05 1.46608e-10 
174 1 0.0315844 0.017856 0.00704869 0.00616683 -0.00047378 -0.000130714 1.39667e-10 1.54785e-10 -3.95516e-11 5e-05 1.46608e-10 
175 1 0.0283188 0.0169078 0.00734259 0.00566983 -0.000389461 0.000161844 -2.1686e-13 -2.51904e-14 4.79433e-15 5e-05 1.46608e-10 
176 1 0.0314551 0.0172967 0.00722238 0.00578595 -0.000459649 -0.000395752 1.61498e-10 -1.15291e-10 -3.00932e-10 5e-05 1.46608e-10 
177 1 0.031907 0.0176298 0.00709909 0.00617382 -0.000505568 -0.000124621 4.5263e-11 -4.07547e-11 1.26312e-10 5e-05 1.46608e-10 
178 1 0.0318376 0.017263 0.00723879 0.00594384 -0.000368046 0.000431647 9.17536e-11 6.393e-11 -5.39652e-11 5e-05 1.46608e-10 
179 1 0.0254888 0.0174477 0.00721456 0.00610739 -0.000207927 6.41888e-05 -4.32106e-12 -3.47821e-11 1.72399e-11 5e-05 1.46608e-10 
180 1 0.0317025 0.017203 0.00725912 0.0058464 -0.000327734 0.000406709 2.57053e-10 -1.25996e-10 8.26629e-11 5e-05 1.46608e-10 
181 1 0.0316672 0.0174481 0.00716105 0.00604004 -0.000533413 -0.000115013 -3.05574e-10 -3.65857e-10 -2.28401e-10 5e-05 1.46608e-10 
182 1 0.0375499 0.0165494 0.00762925 0.00581104 0.000843915 -0.000581657 1.4313e-10 -2.5871e-10 1.26528e-10 5e-05 1.46608e-10 
183 1 0.0317812 0.0174947 0.0071429 0.00621373 -0.000425736 -0.000146755 1.18734e-10 -6.69365e-11 8.54446e-11 5e-05 1.46608e-10 
184 1 0.0377906 0.0183806 0.00695035 0.00650733 0.000946973 -0.000199607 -1.23579e-10 -1.87186e-11 -6.39252e-11 5e-05 1.46608e-10 
185 1 0.0314985 0.0174812 0.0071589 0.00611777 -0.000464265 -0.000145555 -1.40504e-10 -6.2603e-12 -9.31872e-11 5e-05 1.46608e-10 
186 1 0.0315306 0.017235 0.00724448 0.00572225 -0.000348306 0.00011527 5.04007e-11 -3.26305e-11 -1.59084e-10 5e-05 1.46608e-10 
187 1 0.0375696 0.0166369 0.00758493 0.00583655 0.000851172 -0.000586252 5.16788e-10 -4.96055e-10 2.38921e-10 5e-05 1.46608e-10 
188 1 0.0377824 0.01793 0.00696154 0.00647644 0.000928659 -4.55789e-05 4.16541e-10 1.18825e-10 -7.45908e-11 5e-05 1.46608e-10 
189 1 0.0373409 0.0164063 0.00770662 0.00555394 0.000931826 -0.000623362 -6.42256e-11 1.06387e-10 -4.03708e-11 5e-05 1.46608e-10 
190 1 0.0319264 0.0173064 0.00722372 0.00588307 -0.000252337 0.000379402 6.64011e-11 1.86418e-10 -3.83182e-11 5e-05 1.46608e-10 
191 1 0.037778 0.0187369 0.00700179 0.00636133 0.0010939 -0.000945493 -7.21164e-11 -2.82813e-10 -1.7283e-11 5e-05 1.46608e-10 
192 1 0.0315702 0.0173544 0.00719187 0.00614382 -0.000426241 -0.000134797 -2.63462e-11 -3.57794e-13 5.62165e-11 5e-05 1.46608e-10 
193 1 0.0377064 0.0167804 0.00750935 0.00598435 0.00102317 -0.000675979 5.03202e-10 -3.96439e-10 1.8759e-10 5e-05 1.46608e-10 
194 1 0.0314129 0.0166922 0.00747117 0.00564424 -0.000191459 0.000341025 -5.49136e-11 7.84681e-11 -5.213e-11 5e-05 1.46608e-10 
195 1 0.0317222 0.0176457 0.00710252 0.00613212 -0.000482364 -0.00012462 1.50727e-10 -6.5274e-11 4.27853e-11 5e-05 1.46608e-10 
196 1 0.0309851 0.015491 0.00867049 0.00604052 -0.000180921 0.000521614 9.11077e-11 1.42096e-10 -1.60446e-10 5e-05 1.46608e-10 
197 1 0.0316061 0.0179497 0.00702114 0.00615875 -0.00048833 -0.000126526 4.67209e-11 -6.51548e-11 1.3819e-11 5e-05 1.46608e-10 
198 1 0.031416 0.0171114 0.00728647 0.00558893 -0.000182735 0.000331794 -7.02265e-12 -5.71402e-11 6.34939e-12 5e-05 1.46608e-10 
199 1 0.0315411 0.0176687 0.00710379 0.00613345 -0.000473955 -0.000130036 1.45163e-11 4.24669e-11 -4.85241e-12 5e-05 1.46608e-10 
200 1 0.0314324 0.0167826 0.00743307 0.00563864 -0.000184321 0.000331315 -1.23274e-10 9.0814e-12 -1.63351e-11 5e-05 1.46608e-10 
201 1 0.0319345 0.0183344 0.00689765 0.00575593 -0.000490998 -0.000115613 -9.33118e-11 1.86451e-10 -1.92531e-11 5e-05 1.46608e-10 
203 1 0.0376757 0.0166773 0.00756181 0.00584879 0.000825966 -0.00057366 4.98486e-10 -4.77742e-10 2.26561e-10 5e-05 1.46608e-10 
204 1 0.0315468 0.0169029 0.00738437 0.00560527 -0.000236724 0.000358756 -6.44182e-11 -2.64716e-11 -6.77179e-12 5e-05 1.46608e-10 
205 1 0.0316278 0.0180433 0.00699359 0.00617835 -0.0004705 -0.000132618 -3.25459e-11 -4.58358e-11 1.4954e-11 5e-05 1.46608e-10 
206 1 0.0316482 0.0177112 0.00708711 0.0061333 -0.000496432 -0.000124249 2.23178e-11 -1.70383e-10 -1.23003e-11 5e-05 1.46608e-10 
207 1 0.0314325 0.016387 0.00777199 0.00544138 -0.000370408 0.000121753 -9.68646e-11 1.4136e-10 -8.46101e-11 5e-05 1.46608e-10 
208 1 0.0315195 0.017575 0.00713136 0.00612403 -0.000466258 -0.000130413 -9.54652e-11 -9.22758e-12 -7.43603e-12 5e-05 1.46608e-10 
209 1 0.0255105 0.0175441 0.0071993 0.00610333 -0.000235808 -0.00014612 -8.39932e-12 -2.44449e-11 -9.7827e-12 5e-05 1.46608e-10 
210 1 0.0370573 0.0157366 0.00843138 0.00589288 0.00069792 -0.000584685 -3.74746e-10 3.25402e-10 -3.92023e-10 5e-05 1.46608e-10 
211 1 0.0377692 0.0182832 0.00694204 0.00652055 0.000945306 -0.000196185 -3.03253e-12 -7.99046e-13 1.51348e-10 5e-05 1.46608e-10 
212 1 0.0317982 0.0171783 0.00727436 0.00583162 -0.000317095 0.000405664 2.62189e-10 -2.11645e-10 9.63023e-11 5e-05 1.46608e-10 
213 1 0.0377289 0.016873 0.00746237 0.00559029 0.000697941 -0.000502901 7.38806e-10 -1.92918e-10 8.9869e-11 5e-05 1.46608e-10 
214 1 0.0376322 0.0180569 0.00692827 0.00656331 0.000967905 -0.000140238 5.54099e-12 -5.52405e-11 4.08852e-10 5e-05 1.46608e-10 
215 1 0.0316058 0.0171732 0.00726784 0.00579654 -0.00017038 0.000338431 -7.02219e-11 5.49867e-11 -5.4564e-11 5e-05 1.46608e-10 
216 1 0.0316618 0.0170232 0.00733656 0.0056529 -0.000286148 0.000382595 -4.43748e-11 -2.00123e-11 2.65875e-11 5e-05 1.46608e-10 
217 1 0.0374747 0.0166092 0.0076014 0.00580496 0.000828509 -0.000573613 2.16373e-10 -2.69858e-10 1.27844e-10 5e-05 1.46608e-10 
218 1 0.0317769 0.0178477 0.00704276 0.00620768 -0.000583937 -0.000101484 1.61498e-10 -2.97597e-10 7.44941e-11 5e-05 1.46608e-10 
219 1 0.0376949 0.0183487 0.00695622 0.00651273 0.00107216 -0.000752405 3.00419e-11 5.02529e-11 -3.29601e-10 5e-05 1.46608e-10 
220 1 0.031586 0.0170832 0.00730663 0.00571955 -0.000160359 0.000331459 -7.07692e-11 1.59246e-10 -9.90495e-11 5e-05 1.46608e-10 
221 1 0.0253486 0.0168225 0.00745361 0.00563005 -8.05494e-05 8.77527e-05 3.23424e-11 5.10244e-11 7.22651e-11 5e-05 1.46608e-10 
222 1 0.0373603 0.0164938 0.00766232 0.0056192 0.000910803 -0.00060656 -6.07966e-11 7.29957e-11 4.46849e-11 5e-05 1.46608e-10 
223 1 0.031673 0.0173565 0.00720067 0.00602818 -0.000257497 0.000511954 -1.17809e-10 -2.28881e-10 1.97826e-10 5e-05 1.46608e-10 
224 1 0.0314353 0.0172051 0.00725736 0.00534555 -0.000410562 -0.000525464 1.60335e-10 -7.26119e-11 -3.32264e-11 5e-05 1.46608e-10 
225 1 0.0377687 0.0170478 0.00737376 0.00587054 0.000743784 -0.000533125 -4.28736e-10 2.76655e-10 -1.24762e-10 5e-05 1.46608e-10 
226 1 0.0316416 0.0169332 0.0073753 0.0056106 -0.000271455 0.000375083 -1.47667e-10 -4.14169e-11 -1.52835e-11 5e-05 1.46608e-10 
227 1 0.0254073 0.0170625 0.00728351 0.00565799 -0.00012044 5.12443e-05 -1.20997e-11 -1.79481e-11 1.47972e-11 5e-05 1.46608e-10 
228 1 0.0507861 0.0189683 0.00558458 -5.3309e-15 -1.91147e-14 -2.87013e-13 3.0279e-22 -5.04968e-23 -2.06795e-24 5e-05 1.46608e-10 
229 1 0.0312431 0.0160803 0.00810753 0.00548299 -0.000141537 0.000423893 2.50239e-10 -5.19641e-12 -6.462e-11 5e-05 1.46608e-10 
230 1 0.0316772 0.0182582 0.00693267 0.00594369 -0.000566099 1.74764e-05 2.62431e-11 -1.28673e-10 -1.43872e-10 5e-05 1.46608e-10 
231 1 0.197479 0.018695 0.00523156 -1.0892e-15 -2.69841e-14 1.45243e-13 -3.27255e-22 1.45791e-23 -4.1359e-25 5e-05 1.46608e-10 
232 1 0.0312626 0.0161509 0.00803943 0.0055084 -0.000122923 0.000440535 4.31726e-11 -5.57904e-11 -6.83032e-11 5e-05 1.46608e-10 
233 1 0.0315254 0.0167505 0.00745127 0.00564416 -0.000187715 0.000338837 -5.69643e-11 -5.21409e-11 9.13374e-12 5e-05 1.46608e-10 
234 1 0.0369939 0.0155555 0.00866193 0.0062564 0.000614044 -0.000459057 3.14371e-11 2.87095e-10 -3.61519e-10 5e-05 1.46608e-10 
235 1 0.031847 0.0186026 0.00694692 0.00562892 -0.000494198 0.000292359 -1.93899e-10 1.41473e-10 7.96772e-11 5e-05 1.46608e-10 
236 1 0.0319043 0.0184297 0.00689517 0.0056223 -0.000511589 0.000287992 -2.68239e-10 1.82214e-10 1.34227e-11 5e-05 1.46608e-10 
237 1 0.0318066 0.0184193 0.00691362 0.00562159 -0.000586378 0.000196592 -1.73353e-10 4.7966e-11 2.13286e-10 5e-05 1.46608e-10 
238 1 0.0255322 0.01764 0.0071808 0.00610055 -0.000230881 -0.000145521 -1.50827e-11 -5.57988e-12 7.57271e-12 5e-05 1.46608e-10 
239 1 0.0252511 0.0164291 0.00774647 0.00554932 -1.98187e-05 0.000125242 3.4268e-11 -1.8728e-11 1.60624e-11 5e-05 1.46608e-10 
240 1 0.025329 0.016743 0.00751103 0.00561822 -3.79123e-05 0.000139222 1.86644e-11 4.55406e-12 -4.56864e-12 5e-05 1.46608e-10 
241 1 0.0252705 0.0165076 0.0076876 0.00557652 -2.57184e-05 0.000130118 2.52565e-12 -5.03974e-12 5.0739e-12 5e-05 1.46608e-10 
242 1 0.0255417 0.0172854 0.00724006 0.00599854 -0.00034298 8.30622e-05 2.97078e-11 -3.25225e-11 1.03282e-11 5e-05 1.46608e-10 
243 1 0.0252316 0.0163507 0.00780534 0.00551742 -1.33391e-05 0.000119664 5.50158e-12 -2.26508e-11 1.70553e-11 5e-05 1.46608e-10 
244 1 0.0252902 0.016586 0.00762876 0.00559078 -2.96965e-05 0.000133702 -1.55518e-11 -5.29757e-12 1.13027e-12 5e-05 1.46608e-10 
245 1 0.025554 0.0177358 0.00716229 0.00609801 -0.000226754 -0.000146165 -4.97699e-12 -2.02383e-12 4.62957e-12 5e-05 1.46608e-10 
246 1 0.0253684 0.0169024 0.0073969 0.00565419 -0.000113385 5.43977e-05 1.36405e-10 -2.71529e-11 2.39566e-11 5e-05 1.46608e-10 