ITEM: TIMESTEP
25000000
ITEM: NUMBER OF ATOMS
212
ITEM: BOX BOUNDS ff ff ff
-0.02 0.43
-0.02 0.06
-0.02 0.07
ITEM: ATOMS id type x y z vx vy vz fx fy fz radius mass 
1 1 0.158846 0.0169895 0.00746601 0.0062763 0.000503359 -0.000545849 8.71912e-12 -7.51582e-11 3.61079e-11 5e-05 1.46608e-10 
2 1 0.15894 0.0181771 0.0069268 0.00577848 0.00070151 0.000159359 8.34771e-11 4.04821e-10 -1.1715e-10 5e-05 1.46608e-10 
3 1 0.147083 0.0188973 0.00686148 0.0056488 0.000123806 -0.000179833 -7.29951e-11 9.816e-12 8.39057e-11 5e-05 1.46608e-10 
4 1 0.158706 0.0167873 0.00756898 0.00626986 0.000498779 -0.00054362 -3.75269e-11 -9.00457e-11 2.49976e-11 5e-05 1.46608e-10 
5 1 0.158823 0.0169019 0.00750877 0.00627804 0.000503439 -0.00054649 -1.10399e-10 -6.73385e-11 3.58324e-11 5e-05 1.46608e-10 
6 1 0.164554 0.0165146 0.0076459 0.00620074 0.000155294 -6.22939e-05 -1.0018e-11 -2.70489e-11 4.13684e-11 5e-05 1.46608e-10 
7 1 0.158447 0.0160625 0.00792667 0.00584169 0.000567071 -0.000550265 3.44797e-10 -3.86733e-12 1.57116e-10 5e-05 1.46608e-10 
8 1 0.158685 0.0167078 0.00762574 0.00626237 0.000497211 -0.000541128 -3.76166e-11 -9.00989e-11 1.11976e-11 5e-05 1.46608e-10 
9 1 0.164763 0.0173935 0.00730623 0.00616453 0.000139282 -0.000120331 1.29891e-11 7.50408e-11 -1.66157e-11 5e-05 1.46608e-10 
10 1 0.158466 0.0161507 0.00788353 0.00581496 0.000569334 -0.000554717 1.35774e-10 4.08628e-11 1.51272e-12 5e-05 1.46608e-10 
11 1 0.158487 0.0162435 0.0078525 0.00580805 0.000573445 -0.00055853 -9.63386e-11 1.12371e-10 -4.13972e-11 5e-05 1.46608e-10 
13 1 0.158902 0.0179902 0.00698732 0.00594144 0.000377084 -0.000469935 1.70092e-11 5.03073e-11 -2.42581e-11 5e-05 1.46608e-10 
15 1 0.158589 0.0166811 0.00764167 0.00625197 0.000499234 -0.000544146 -6.15461e-11 -6.51501e-11 2.06503e-11 5e-05 1.46608e-10 
17 1 0.158823 0.0176348 0.00725896 0.00576457 0.000623424 -0.000558371 1.67204e-10 -4.01126e-12 6.63631e-11 5e-05 1.46608e-10 
18 1 0.164873 0.0174426 0.00729299 0.00615567 0.000164672 -0.000126154 6.98447e-11 1.73608e-10 -4.30706e-11 5e-05 1.46608e-10 
19 1 0.158319 0.0157313 0.0085188 0.00552439 -0.000160065 -0.00100048 2.28289e-10 7.27498e-10 -3.53806e-10 5e-05 1.46608e-10 
20 1 0.159091 0.0180532 0.00697161 0.00567078 0.000660011 0.000171158 -7.81236e-11 -2.42848e-11 2.70675e-11 5e-05 1.46608e-10 
21 1 0.158337 0.0157681 0.0084276 0.00559577 -0.00017359 -0.00096506 -2.44535e-10 -1.27351e-10 -9.35981e-10 5e-05 1.46608e-10 
22 1 0.158529 0.0164128 0.00775579 0.00613409 0.000505338 -0.000540333 1.03246e-10 2.60157e-11 -2.4992e-11 5e-05 1.46608e-10 
23 1 0.152801 0.0176023 0.00737543 0.00531606 -0.00248248 0.00102364 2.53284e-11 1.9904e-10 1.05659e-11 5e-05 1.46608e-10 
24 1 0.164742 0.0172986 0.00732913 0.00618489 0.000135968 -0.000119805 1.31168e-11 6.30513e-11 -1.61868e-11 5e-05 1.46608e-10 
25 1 0.1589 0.0175756 0.00718474 0.00576584 0.000559602 -0.000554124 5.58616e-10 4.02092e-11 -6.50258e-11 5e-05 1.46608e-10 
26 1 0.164635 0.0168238 0.00744361 0.00629383 0.000129099 -0.000116891 -4.23533e-11 1.10554e-12 -1.48588e-12 5e-05 1.46608e-10 
28 1 0.159016 0.0181151 0.00694926 0.0057477 0.000739621 0.000153052 4.73909e-11 -1.61414e-10 6.84632e-11 5e-05 1.46608e-10 
29 1 0.158869 0.0170818 0.00743359 0.00628285 0.000507919 -0.000544642 9.65879e-11 8.14601e-11 -7.43686e-12 5e-05 1.46608e-10 
30 1 0.158921 0.0180846 0.00695989 0.00575818 0.000739596 0.00016004 -1.70544e-11 8.15074e-11 -6.74309e-11 5e-05 1.46608e-10 
31 1 0.158568 0.0165878 0.00767065 0.00623841 0.000496839 -0.000542268 -8.21503e-11 -3.56425e-11 2.46201e-11 5e-05 1.46608e-10 
32 1 0.158815 0.0172242 0.00735588 0.0063001 0.000502002 -0.000546412 2.38308e-11 4.38605e-12 -2.74481e-12 5e-05 1.46608e-10 
33 1 0.164573 0.0165744 0.00756801 0.00626596 0.000148378 -5.25539e-05 -1.43458e-11 -3.6199e-11 5.43076e-11 5e-05 1.46608e-10 
34 1 0.158805 0.0175489 0.00720189 0.00630843 0.000473627 -0.00053489 1.32173e-11 1.07597e-11 -5.28912e-12 5e-05 1.46608e-10 
36 1 0.164785 0.0174885 0.00728333 0.00614364 0.000143154 -0.00012088 1.76718e-11 7.90532e-11 -1.91537e-11 5e-05 1.46608e-10 
37 1 0.158663 0.0166143 0.0076534 0.00624485 0.000496392 -0.000540637 -5.53787e-11 -7.46107e-11 2.32408e-11 5e-05 1.46608e-10 
38 1 0.158779 0.016724 0.00759554 0.00626233 0.000496063 -0.00054196 -4.12746e-11 -1.42016e-10 7.26227e-11 5e-05 1.46608e-10 
39 1 0.164721 0.0172036 0.00735202 0.00620486 0.000133233 -0.000119342 1.82823e-11 4.16181e-11 -7.97805e-12 5e-05 1.46608e-10 
41 1 0.158371 0.0158352 0.00824236 0.00570852 -0.00021618 -0.000947384 1.4307e-10 -4.84329e-10 -5.43833e-10 5e-05 1.46608e-10 
42 1 0.158506 0.0163254 0.00779847 0.00596665 0.000543623 -0.000550762 5.42342e-11 6.68208e-11 -5.84391e-11 5e-05 1.46608e-10 
44 1 0.158983 0.0182159 0.00700836 0.00573507 0.000771046 0.0001348 -1.11045e-10 9.32925e-11 -2.40135e-11 5e-05 1.46608e-10 
45 1 0.164614 0.0167288 0.00746653 0.00631665 0.000134735 -7.61484e-05 9.05452e-12 -2.36152e-11 -3.50582e-11 5e-05 1.46608e-10 
47 1 0.15841 0.0159293 0.00807034 0.00582332 0.000477266 -0.000542957 -2.6674e-10 -4.9289e-11 5.14569e-12 5e-05 1.46608e-10 
49 1 0.164656 0.0169188 0.00742072 0.00626717 0.000129009 -0.000120535 -2.56268e-11 1.16813e-11 1.93237e-12 5e-05 1.46608e-10 
50 1 0.159034 0.0177807 0.00708052 0.00581656 0.000477577 -0.000511328 1.84444e-10 2.05394e-11 8.45137e-11 5e-05 1.46608e-10 
51 1 0.152839 0.0177746 0.00744602 0.0051916 -0.00244109 0.00100379 8.30696e-11 7.46037e-11 -2.47589e-11 5e-05 1.46608e-10 
52 1 0.159166 0.017991 0.00699404 0.00593552 0.000964343 9.9354e-05 -2.51107e-10 2.35876e-10 -6.94238e-12 5e-05 1.46608e-10 
53 1 0.164678 0.0170137 0.00739782 0.00624832 0.000129964 -0.000119288 2.24831e-11 2.08461e-11 -1.94375e-11 5e-05 1.46608e-10 
54 1 0.15909 0.017632 0.00714847 0.00578952 0.000444391 -0.000494051 1.71594e-10 -1.96856e-10 9.20195e-11 5e-05 1.46608e-10 
55 1 0.152782 0.0175044 0.00736911 0.00538963 -0.00249281 0.00103742 -8.5471e-11 2.67115e-10 -1.30934e-11 5e-05 1.46608e-10 
56 1 0.158858 0.0173997 0.0072703 0.00631171 0.000492407 -0.00054284 -5.83596e-11 -2.63401e-11 4.45544e-12 5e-05 1.46608e-10 
57 1 0.164592 0.0166341 0.00749008 0.00632652 0.000141338 -4.2498e-05 -3.9608e-12 -3.36403e-11 6.01666e-11 5e-05 1.46608e-10 
59 1 0.158955 0.0174269 0.00725258 0.00628916 0.000467276 -0.000529973 -1.52478e-10 -1.84686e-10 9.97726e-11 5e-05 1.46608e-10 
60 1 0.159071 0.0175436 0.00719143 0.00578254 0.000485153 -0.000513951 3.43628e-10 -1.65796e-10 6.65347e-11 5e-05 1.46608e-10 
61 1 0.15839 0.0158809 0.0081554 0.00577388 -4.76328e-05 -0.000835825 1.00962e-11 -2.81229e-11 -5.1117e-11 5e-05 1.46608e-10 
62 1 0.158914 0.0180569 0.00709251 0.00584014 0.000590669 7.12099e-05 -1.27421e-10 -1.61141e-10 -1.46608e-10 5e-05 1.46608e-10 
63 1 0.158654 0.0169414 0.00751133 0.00626923 0.000501235 -0.000547955 -4.76852e-11 -4.80396e-11 5.89282e-11 5e-05 1.46608e-10 
64 1 0.164699 0.0171087 0.00737492 0.0062262 0.000131487 -0.000119138 -1.55116e-11 2.62384e-11 -1.61747e-12 5e-05 1.46608e-10 
65 1 0.152531 0.0164221 0.0077073 0.00568687 -0.00131327 0.00228159 -4.10869e-11 -1.8795e-10 1.11357e-10 5e-05 1.46608e-10 
66 1 0.152458 0.01621 0.00803743 0.00542897 -0.00126918 0.00221845 2.85653e-10 2.22537e-11 1.21138e-10 5e-05 1.46608e-10 
67 1 0.159 0.0184711 0.00691487 0.00583649 0.000753814 -0.000168268 4.57783e-11 -6.78615e-11 1.34305e-10 5e-05 1.46608e-10 
69 1 0.15889 0.0171719 0.00739562 0.00629886 0.000500008 -0.000549598 5.93001e-11 9.09936e-11 -4.47016e-11 5e-05 1.46608e-10 
70 1 0.159168 0.0175738 0.00717235 0.00577699 0.000426792 -0.00048565 1.63064e-10 -2.26392e-10 9.48578e-11 5e-05 1.46608e-10 
72 1 0.158802 0.0168123 0.00755244 0.00626968 0.000497981 -0.000543047 -2.74301e-11 5.58815e-13 5.40706e-12 5e-05 1.46608e-10 
73 1 0.158697 0.0171103 0.00741584 0.0062899 0.00050359 -0.000546735 -3.02388e-12 -6.07435e-11 2.62321e-11 5e-05 1.46608e-10 
74 1 0.159072 0.0184024 0.00688986 0.00575741 0.000725623 -0.00029485 -1.82281e-10 -1.04953e-10 -4.0717e-11 5e-05 1.46608e-10 
76 1 0.145405 0.0205718 0.00539992 7.41846e-15 9.12345e-15 -2.35015e-13 -5.22675e-23 9.35102e-24 -8.27181e-25 5e-05 1.46608e-10 
77 1 0.159051 0.018305 0.00689751 0.00580345 0.000736337 0.000152442 1.58399e-11 -2.0781e-10 1.00926e-10 5e-05 1.46608e-10 
78 1 0.15273 0.0168453 0.00754973 0.00561606 -0.00258604 0.000755228 5.57624e-11 -1.528e-10 1.67579e-11 5e-05 1.46608e-10 
80 1 0.159019 0.0185662 0.00693871 0.00581263 0.000772947 -0.000282516 8.98057e-11 1.35009e-10 3.21654e-11 5e-05 1.46608e-10 
81 1 0.152733 0.0168651 0.00745176 0.00564258 -0.002599 0.000755433 1.37464e-10 1.55476e-11 3.81512e-11 5e-05 1.46608e-10 
82 1 0.15269 0.0166802 0.00751513 0.00561331 -0.00266235 0.000773643 -6.6407e-12 2.3902e-10 -3.39224e-11 5e-05 1.46608e-10 
84 1 0.164806 0.0175834 0.00726043 0.00612261 0.000147067 -0.000121516 1.06695e-11 6.81659e-11 -1.48601e-11 5e-05 1.46608e-10 
85 1 0.158354 0.0157996 0.00833417 0.00566648 -0.000152632 -0.000942576 -1.30187e-10 -2.12785e-10 -5.89814e-10 5e-05 1.46608e-10 
86 1 0.158958 0.0178414 0.00705584 0.00589189 0.000519546 -0.000534229 1.16623e-10 1.22756e-10 7.19469e-11 5e-05 1.46608e-10 
87 1 0.158844 0.0177253 0.0071161 0.00583265 0.000561908 -0.000549162 -2.85043e-11 7.23002e-11 6.47553e-12 5e-05 1.46608e-10 
88 1 0.159053 0.017869 0.00703756 0.00592187 0.000472214 -0.000604057 1.78206e-10 -6.88626e-12 5.48083e-10 5e-05 1.46608e-10 
90 1 0.158976 0.017515 0.00720971 0.00576573 0.000570199 -0.000554345 4.15296e-10 -2.50242e-10 6.51352e-11 5e-05 1.46608e-10 
91 1 0.158817 0.0174136 0.00736048 0.00630799 0.000485839 -0.000542062 -6.00662e-11 2.55266e-11 -1.76694e-11 5e-05 1.46608e-10 
92 1 0.159072 0.0179585 0.00699729 0.00594114 0.000904475 0.000120522 -1.18119e-10 9.41085e-11 -5.49938e-11 5e-05 1.46608e-10 
93 1 0.164828 0.0176784 0.00723754 0.00610276 0.000151582 -0.000122275 1.60944e-11 6.78288e-11 -1.68871e-11 5e-05 1.46608e-10 
94 1 0.158933 0.0173388 0.0072956 0.00631614 0.000498559 -0.000545726 -7.56102e-13 8.78527e-11 -4.03266e-11 5e-05 1.46608e-10 
95 1 0.158718 0.017198 0.00737305 0.00629579 0.000503647 -0.00054677 -9.20873e-12 -5.82076e-11 1.88026e-11 5e-05 1.46608e-10 
96 1 0.15874 0.0172857 0.00733026 0.00630188 0.000500089 -0.000546362 -1.47337e-11 -5.58447e-11 2.88658e-11 5e-05 1.46608e-10 
98 1 0.158912 0.017251 0.00733839 0.00630402 0.000500745 -0.000547365 2.94844e-11 8.74647e-11 -5.2611e-11 5e-05 1.46608e-10 
99 1 0.152851 0.016986 0.00740835 0.00559877 -0.00260906 0.000757425 -2.85082e-10 2.99047e-11 1.51455e-11 5e-05 1.46608e-10 
101 1 0.152703 0.0171152 0.00737125 0.00559135 -0.00255364 0.000981298 -3.87054e-11 1.61911e-10 4.20989e-13 5e-05 1.46608e-10 
102 1 0.0694385 0.0202053 0.00537268 3.90461e-15 4.48229e-15 -7.68285e-14 1.60305e-22 -4.18786e-22 -2.19203e-23 5e-05 1.46608e-10 
104 1 0.0249839 0.0195037 0.00542543 -3.58894e-15 -5.7842e-16 5.85127e-14 8.14256e-25 -1.69475e-24 0 5e-05 1.46608e-10 
106 1 0.147046 0.018712 0.00685529 0.00564891 1.55447e-05 0.000108934 7.2627e-11 7.04908e-11 -2.44493e-10 5e-05 1.46608e-10 
107 1 0.152616 0.0167448 0.00749495 0.00566925 -0.00259642 0.000748424 5.75367e-11 1.83058e-10 -5.42221e-11 5e-05 1.46608e-10 
108 1 0.158737 0.0172782 0.00742991 0.00629505 0.000509708 -0.000548602 -3.10714e-11 -8.71791e-11 3.77614e-11 5e-05 1.46608e-10 
110 1 0.159008 0.0172773 0.00732117 0.00631123 0.000491706 -0.000542482 1.13293e-11 1.2212e-10 -5.96487e-11 5e-05 1.46608e-10 
111 1 0.152777 0.017051 0.0073918 0.00559373 -0.00260017 0.000835485 -1.89607e-10 1.15274e-10 -5.4714e-11 5e-05 1.46608e-10 
112 1 0.152552 0.0164949 0.00764215 0.00569717 -0.0016522 0.0019249 -3.37903e-12 -1.17113e-10 1.36095e-10 5e-05 1.46608e-10 
115 1 0.158784 0.0174612 0.00724468 0.00630494 0.000482441 -0.000538006 -8.16655e-11 -3.29344e-11 1.11254e-11 5e-05 1.46608e-10 
116 1 0.159031 0.0173668 0.00727746 0.00631315 0.000495564 -0.000544445 -5.53734e-11 -5.37058e-11 2.75143e-11 5e-05 1.46608e-10 
117 1 0.158995 0.017604 0.00716642 0.00581122 0.000512563 -0.000529592 2.19059e-10 -1.36705e-10 7.20313e-11 5e-05 1.46608e-10 
118 1 0.15266 0.0169295 0.00743168 0.00563044 -0.00259493 0.000794899 8.73088e-11 5.81173e-11 -1.19393e-10 5e-05 1.46608e-10 
119 1 0.159039 0.0186614 0.00696283 0.00563604 0.000794058 -0.000263806 4.99041e-11 1.84406e-10 3.33393e-11 5e-05 1.46608e-10 
120 1 0.158301 0.0156949 0.00861029 0.00551551 0.000625604 -0.000721874 -1.12336e-09 -7.10341e-11 2.69347e-10 5e-05 1.46608e-10 
121 1 0.158963 0.0171038 0.00740591 0.00628824 0.000490369 -0.000541025 7.47218e-11 1.31581e-10 -7.5403e-11 5e-05 1.46608e-10 
122 1 0.159014 0.0176923 0.00712347 0.00582323 0.00048477 -0.000512845 1.49308e-10 -1.39171e-10 5.0707e-11 5e-05 1.46608e-10 
124 1 0.15898 0.0183732 0.00691316 0.00582881 0.000758987 6.38095e-05 -2.56868e-11 -2.45063e-10 2.78338e-10 5e-05 1.46608e-10 
125 1 0.158729 0.0168776 0.00753219 0.00627155 0.000499679 -0.000544009 -8.96253e-11 -7.48916e-11 4.45928e-11 5e-05 1.46608e-10 
126 1 0.158611 0.0167614 0.007586 0.00626968 0.000497434 -0.000543572 4.44617e-12 -6.3258e-11 3.63693e-11 5e-05 1.46608e-10 
127 1 0.152634 0.0168176 0.00756128 0.00563255 -0.00262256 0.000747899 9.3312e-11 2.41992e-10 1.03236e-10 5e-05 1.46608e-10 
128 1 0.158977 0.0179304 0.00701452 0.00594168 0.00064555 -0.00022002 3.2372e-11 9.64638e-11 1.87544e-10 5e-05 1.46608e-10 
129 1 0.152851 0.0178578 0.00739189 0.00516589 -0.00243809 0.000995463 -1.23246e-10 5.05023e-11 -5.4521e-11 5e-05 1.46608e-10 
131 1 0.152836 0.017342 0.00738216 0.00548137 -0.0024926 0.00106344 -4.60575e-11 1.79469e-10 -3.1047e-10 5e-05 1.46608e-10 
132 1 0.158825 0.017637 0.00715902 0.00579048 0.000577239 -0.000558205 3.40917e-10 -4.38127e-11 4.20213e-11 5e-05 1.46608e-10 
133 1 0.159148 0.0174848 0.0072156 0.00573725 0.000445121 -0.000492485 3.00329e-10 -3.79909e-10 1.62301e-10 5e-05 1.46608e-10 
134 1 0.158944 0.0179619 0.00710334 0.00590653 0.000557249 -0.00023834 4.04246e-12 -2.71769e-12 2.03245e-10 5e-05 1.46608e-10 
135 1 0.158676 0.0170313 0.00747355 0.00627775 0.000502841 -0.000548391 -5.13925e-11 -4.35806e-11 5.53059e-11 5e-05 1.46608e-10 
136 1 0.152809 0.0168029 0.00747108 0.00563587 -0.00260489 0.000755285 2.28158e-10 8.21032e-12 3.24464e-12 5e-05 1.46608e-10 
137 1 0.158996 0.0180203 0.00697497 0.00583935 0.000815759 0.000126446 -1.71437e-10 -3.43003e-11 -2.36547e-11 5e-05 1.46608e-10 
138 1 0.158762 0.0173735 0.00728747 0.00630445 0.000492266 -0.000543096 -3.04199e-11 -6.8136e-11 3.16669e-11 5e-05 1.46608e-10 
140 1 0.159035 0.0182097 0.00692359 0.00577288 0.000737375 0.000150571 3.5143e-11 -3.09203e-10 7.66072e-11 5e-05 1.46608e-10 
141 1 0.152595 0.0166529 0.00752792 0.00566958 -0.00255616 0.000789938 3.35715e-11 3.70239e-10 4.97443e-10 5e-05 1.46608e-10 
143 1 0.393994 0.0150325 6.48596e-05 -2.1271e-21 1.6267e-21 -1.45327e-21 0 0 0 5e-05 1.46608e-10 
146 1 0.152798 0.0171458 0.00736773 0.00559461 -0.00251389 0.00103441 -1.16246e-10 1.11807e-10 4.23648e-11 5e-05 1.46608e-10 
147 1 0.152876 0.017538 0.00738924 0.0053651 -0.00243508 0.00103565 -2.32987e-10 9.91101e-11 -5.74065e-11 5e-05 1.46608e-10 
148 1 0.00855729 0.0167385 0.00837875 0.000505396 0.0122073 -0.0109566 3.661e-12 2.5264e-10 -2.67525e-10 5e-05 1.46608e-10 
149 1 0.15892 0.0176648 0.00714164 0.00581711 0.000523415 -0.000536699 2.07046e-10 8.04298e-11 2.49507e-11 5e-05 1.46608e-10 
150 1 0.152439 0.0161569 0.00812013 0.0053757 -0.0012559 0.00220003 -7.98875e-11 -1.03421e-10 2.24678e-10 5e-05 1.46608e-10 
151 1 0.152896 0.0176364 0.00739564 0.00529263 -0.00242525 0.00102174 -2.67736e-11 -6.50493e-11 7.7217e-12 5e-05 1.46608e-10 
154 1 0.152872 0.0170786 0.00737709 0.00560791 -0.00249904 0.00108833 -1.66561e-10 3.22263e-11 -1.03874e-11 5e-05 1.46608e-10 
155 1 0.14714 0.0187414 0.00683828 0.00568114 -5.19303e-05 0.000135476 -4.69922e-11 5.94683e-11 -9.62551e-12 5e-05 1.46608e-10 
157 1 0.152743 0.0173085 0.0073573 0.00549295 -0.00252543 0.00111414 1.73464e-10 3.45623e-10 -2.23511e-10 5e-05 1.46608e-10 
165 1 0.152964 0.0171099 0.00739682 0.00561277 -0.00247229 0.00108685 -6.61714e-11 -2.08167e-10 -2.65892e-12 5e-05 1.46608e-10 
166 1 0.158546 0.016506 0.00772385 0.00623217 0.000490529 -0.000539485 -2.2527e-11 1.5933e-12 3.59818e-11 5e-05 1.46608e-10 
168 1 0.193103 0.0180216 0.00773062 0.0111342 0.0153166 -0.00662858 -1.87573e-10 -1.76606e-10 5.47359e-12 5e-05 1.46608e-10 
171 1 0.158632 0.0168491 0.0075432 0.00627354 0.000497921 -0.0005439 -2.20936e-11 -6.21503e-11 3.64938e-11 5e-05 1.46608e-10 
172 1 0.15272 0.0170885 0.00746614 0.00567872 -0.00258715 0.00096719 4.31026e-12 9.80514e-11 -5.84319e-11 5e-05 1.46608e-10 
176 1 0.152514 0.0163697 0.00779072 0.00567205 -0.0013203 0.00226206 -6.84413e-11 -1.26606e-10 2.20263e-10 5e-05 1.46608e-10 
177 1 0.152573 0.01657 0.00757938 0.00566132 -0.00226794 0.00120702 4.99943e-11 3.87514e-10 6.26798e-10 5e-05 1.46608e-10 
179 1 0.147104 0.0185556 0.00690262 0.00559017 -7.88164e-05 0.000132296 7.85079e-12 -9.80503e-11 2.64429e-11 5e-05 1.46608e-10 
181 1 0.152494 0.0163158 0.00787266 0.00558828 -0.00129196 0.00225381 -3.84236e-10 -1.6717e-10 1.25688e-10 5e-05 1.46608e-10 
182 1 0.158793 0.0171365 0.00739867 0.00629061 0.000504865 -0.000547001 5.15271e-11 2.04154e-12 -2.11888e-12 5e-05 1.46608e-10 
184 1 0.15896 0.0182752 0.0069253 0.00579257 0.000712076 0.000140344 -1.04157e-11 -3.62371e-10 1.90469e-10 5e-05 1.46608e-10 
187 1 0.15887 0.0177183 0.00721265 0.00580004 0.00056353 -0.000533973 -1.04877e-11 1.70479e-10 8.49197e-11 5e-05 1.46608e-10 
188 1 0.158975 0.0177059 0.00721434 0.00578924 0.000538975 -0.000534439 2.21396e-10 1.37124e-11 6.93638e-11 5e-05 1.46608e-10 
189 1 0.158836 0.0173119 0.00731309 0.00630417 0.000499964 -0.000546529 -2.83649e-11 7.39751e-13 -6.30843e-13 5e-05 1.46608e-10 
191 1 0.158864 0.0178136 0.00707318 0.00588571 0.000558089 -0.00055257 8.94534e-11 1.86613e-10 -1.52568e-10 5e-05 1.46608e-10 
192 1 0.149862 0.0181014 0.00709797 0.00596328 -0.00065816 9.01481e-05 -6.13768e-13 5.50752e-13 -1.71013e-13 5e-05 1.46608e-10 
193 1 0.161618 0.0170682 0.00741145 0.00579279 -0.0015454 0.000805748 -9.75562e-14 -3.02928e-12 8.58581e-13 5e-05 1.46608e-10 
197 1 0.152421 0.0161038 0.00820282 0.00528187 -0.00124795 0.00217866 -8.04922e-11 -1.60276e-10 2.07876e-10 5e-05 1.46608e-10 
198 1 0.152857 0.0174399 0.00738289 0.00545078 -0.00246997 0.0010559 -1.61933e-10 2.69775e-10 -2.93907e-11 5e-05 1.46608e-10 
200 1 0.152897 0.0180518 0.00740595 0.00623684 -0.00276995 0.00120535 -7.57744e-11 -2.65757e-10 -1.38485e-11 5e-05 1.46608e-10 
201 1 0.152919 0.0177338 0.00740275 0.00522406 -0.00238347 0.00100868 -8.62234e-11 -9.5109e-11 -3.15038e-11 5e-05 1.46608e-10 
203 1 0.158883 0.0179019 0.00703029 0.00592418 0.00055424 -0.000531563 2.1888e-11 9.81324e-11 -2.31431e-10 5e-05 1.46608e-10 
204 1 0.147028 0.0186169 0.00687978 0.00560673 1.60267e-05 0.000101503 -1.21299e-10 5.45937e-11 -1.67623e-10 5e-05 1.46608e-10 
206 1 0.147065 0.0188057 0.00682582 0.0056834 -3.90329e-07 7.51852e-05 5.00153e-12 3.23989e-11 -1.31515e-10 5e-05 1.46608e-10 
207 1 0.060646 0.0186723 0.00546139 1.16218e-15 5.18598e-15 3.71388e-14 9.64182e-24 -1.88701e-24 0 5e-05 1.46608e-10 
208 1 0.15282 0.0177003 0.00738174 0.00525691 -0.00247128 0.0010152 1.69826e-11 6.47053e-11 1.7629e-11 5e-05 1.46608e-10 
209 1 0.146855 0.0177824 0.00716869 0.00568408 1.5754e-05 0.00010003 3.95421e-11 -2.41415e-11 -6.02907e-12 5e-05 1.46608e-10 
210 1 0.158941 0.0170146 0.00744938 0.00626663 0.000497342 -0.000541806 3.80764e-11 2.68593e-11 -6.00466e-12 5e-05 1.46608e-10 
211 1 0.15287 0.0179557 0.00739821 0.00503341 -0.0024157 0.000968921 -5.9366e-10 -5.3755e-12 -1.13555e-10 5e-05 1.46608e-10 
212 1 0.152681 0.0170222 0.00740103 0.00560632 -0.00257839 0.000880469 4.0847e-11 1.09825e-10 -1.05649e-10 5e-05 1.46608e-10 
213 1 0.158879 0.0178917 0.00713363 0.00582664 0.000526417 -0.000469544 -1.30472e-10 1.25686e-10 3.83577e-11 5e-05 1.46608e-10 
214 1 0.159113 0.0177239 0.00710364 0.00575993 0.000451087 -0.000494573 -5.8779e-11 -9.98697e-11 1.23522e-10 5e-05 1.46608e-10 
217 1 0.158748 0.0169627 0.00748351 0.00627329 0.000499947 -0.000544719 -1.06745e-10 -7.01508e-11 4.50804e-11 5e-05 1.46608e-10 
218 1 0.159136 0.0178176 0.00705795 0.00593738 0.000528255 -0.000540919 2.08623e-10 -8.24561e-11 -1.30165e-10 5e-05 1.46608e-10 
221 1 0.146792 0.0175286 0.00731433 0.00599328 -0.00059542 -0.000972692 -3.75368e-11 6.38832e-11 -2.75037e-11 5e-05 1.46608e-10 
222 1 0.158427 0.0159902 0.00799289 0.00586366 0.000700101 -0.000392442 -1.47111e-10 -5.31206e-11 9.01075e-11 5e-05 1.46608e-10 
223 1 0.167468 0.0163736 0.00770917 0.00534803 -0.00130985 0.00110996 -2.39478e-13 1.0016e-12 -3.21906e-13 5e-05 1.46608e-10 
225 1 0.158939 0.0177529 0.00709834 0.00585287 0.000523633 -0.000531624 6.38667e-11 -5.66941e-11 -3.9558e-11 5e-05 1.46608e-10 
226 1 0.152762 0.0174065 0.00736302 0.00544238 -0.0025086 0.00107318 2.01355e-11 3.30501e-10 -3.66958e-10 5e-05 1.46608e-10 
228 1 0.0507861 0.0189683 0.00558458 -5.34563e-15 -1.91143e-14 -2.87013e-13 -2.92305e-22 9.4221e-23 1.03398e-24 5e-05 1.46608e-10 
231 1 0.197479 0.018695 0.00523156 -1.0853e-15 -2.69843e-14 1.45242e-13 -6.82973e-23 -2.06795e-24 -4.1359e-25 5e-05 1.46608e-10 
232 1 0.189081 0.0184947 0.00541361 -2.15658e-15 1.31395e-15 5.80688e-14 7.49439e-23 -2.12631e-22 7.23783e-24 5e-05 1.46608e-10 
234 1 0.159052 0.0174551 0.00723445 0.00577848 0.000592775 -0.000564756 5.26376e-10 -2.36964e-10 8.99935e-11 5e-05 1.46608e-10 
235 1 0.194679 0.0184196 0.00544868 1.51437e-14 9.62547e-14 2.34556e-13 1.47614e-21 -1.04638e-22 -6.70016e-23 5e-05 1.46608e-10 
238 1 0.146876 0.0178748 0.00713672 0.005713 4.70888e-06 0.00010324 1.14833e-10 -8.35532e-11 3.796e-11 5e-05 1.46608e-10 
239 1 0.146686 0.0171514 0.00762495 0.00583748 -0.000592485 -0.000935656 -8.8558e-11 1.53511e-11 1.07412e-11 5e-05 1.46608e-10 
240 1 0.146771 0.0174531 0.00737646 0.00596662 -0.00059169 -0.000967075 5.33497e-11 8.19408e-11 -7.3381e-11 5e-05 1.46608e-10 
241 1 0.146709 0.0172263 0.0075628 0.00587745 -0.000595703 -0.000943314 1.60918e-10 2.94699e-11 -4.18003e-11 5e-05 1.46608e-10 
242 1 0.147206 0.0188156 0.00682231 0.00554702 -3.62475e-05 -0.000235649 1.87588e-10 8.80603e-12 2.11708e-11 5e-05 1.46608e-10 
243 1 0.146665 0.0170759 0.00768707 0.00579642 -0.000592463 -0.000926247 -3.21263e-11 -7.55497e-11 6.72706e-11 5e-05 1.46608e-10 
244 1 0.146729 0.0173022 0.00750071 0.00590176 -0.000592352 -0.000950862 8.84669e-11 7.87408e-11 -1.06867e-10 5e-05 1.46608e-10 
245 1 0.146895 0.0179676 0.00710461 0.00573322 -6.7672e-06 0.000108361 -3.46906e-11 -9.40597e-11 4.17968e-11 5e-05 1.46608e-10 
246 1 0.146814 0.0176087 0.00725852 0.00605448 -0.00054883 -0.000888821 3.86087e-11 2.9085e-12 -6.23859e-11 5e-05 1.46608e-10 
248 1 0.152479 0.0162692 0.00795987 0.00547717 -0.00127234 0.00224134 3.60416e-10 -2.62741e-10 1.28413e-10 5e-05 1.46608e-10 
249 1 0.146934 0.0181527 0.00704054 0.00564949 -8.89421e-06 0.000106669 -3.67909e-11 -1.00536e-10 4.6374e-11 5e-05 1.46608e-10 
250 1 0.153859 0.0155449 0.0146374 0.00613521 -0.00205337 -0.000378505 3.15326e-13 7.37951e-13 4.26647e-13 5e-05 1.46608e-10 
251 1 0.15888 0.0174874 0.0072275 0.00629827 0.000470237 -0.00053184 -9.67002e-11 -1.68443e-10 8.7156e-11 5e-05 1.46608e-10 
252 1 0.146918 0.01806 0.00707449 0.00571958 -1.89927e-05 8.8363e-05 -1.00161e-10 -9.12994e-11 4.24665e-11 5e-05 1.46608e-10 
254 1 0.124458 0.0180101 0.00773807 0.0173948 0.0170177 -0.00708759 -2.69327e-10 -1.48114e-10 -7.60043e-12 5e-05 1.46608e-10 
255 1 0.152724 0.0172106 0.00735017 0.00555464 -0.00253214 0.00107363 3.83531e-11 1.84503e-10 1.28567e-10 5e-05 1.46608e-10 
256 1 0.160421 0.0173968 0.0079708 0.0112832 0.0296779 -0.0129732 -1.47523e-10 -3.92133e-11 -6.94377e-11 5e-05 1.46608e-10 
257 1 0.152818 0.0172437 0.00737021 0.00553683 -0.00250406 0.00107329 -2.14383e-10 -2.22755e-11 -1.35949e-10 5e-05 1.46608e-10 
258 1 0.152701 0.0169948 0.00749533 0.00567548 -0.00264322 0.00084416 -8.3191e-11 1.35151e-10 -7.50603e-11 5e-05 1.46608e-10 
259 1 0.146953 0.0182455 0.0070084 0.00559299 -4.19923e-06 0.000104845 8.28365e-12 -9.89922e-11 3.64963e-11 5e-05 1.46608e-10 
260 1 0.152892 0.0171772 0.00738359 0.00558147 -0.00248566 0.00107631 -1.45358e-10 -2.11616e-11 -6.56413e-11 5e-05 1.46608e-10 
261 1 0.152911 0.0172757 0.00738991 0.00551551 -0.0024737 0.00106654 -1.12805e-10 1.43507e-12 9.85875e-11 5e-05 1.46608e-10 
262 1 0.15293 0.0173735 0.00739629 0.00548894 -0.00246509 0.00106105 -1.70931e-10 1.58584e-10 -2.0919e-11 5e-05 1.46608e-10 
263 1 0.147122 0.0186484 0.00687047 0.00565492 -7.72513e-05 0.000132628 6.94283e-11 -6.39321e-11 3.08421e-11 5e-05 1.46608e-10 
265 1 0.153004 0.0173069 0.00740965 0.00550811 -0.0024678 0.00106524 -1.34303e-10 -1.01209e-10 -3.2832e-11 5e-05 1.46608e-10 
270 1 0.158979 0.0181141 0.00704234 0.00573591 0.000791039 0.000148947 -1.09395e-10 -9.97462e-11 3.37762e-11 5e-05 1.46608e-10 
271 1 0.207459 0.0168805 0.00824496 0.00574772 0.0173907 -0.00697452 0 0 -1.43822e-09 5e-05 1.46608e-10 
272 1 0.146992 0.0184309 0.00694419 0.00555391 8.62738e-07 0.000101069 1.89237e-10 -7.67064e-11 7.6764e-12 5e-05 1.46608e-10 
273 1 0.11398 0.0171588 0.00808888 1.0519e-05 -0.0155191 0.00828104 2.07313e-13 1.24369e-10 -6.50032e-11 5e-05 1.46608e-10 
274 1 0.146972 0.0183383 0.00697628 0.00557521 -3.78464e-06 0.000104449 1.17341e-10 -9.51192e-11 3.96894e-11 5e-05 1.46608e-10 
275 1 0.152969 0.0175696 0.00740896 0.00534683 -0.00235791 0.00103454 -1.90566e-10 -2.47942e-10 -5.46953e-11 5e-05 1.46608e-10 
276 1 0.152755 0.0169576 0.00742006 0.00559039 -0.00261678 0.000759629 4.21111e-11 2.46725e-10 5.97984e-11 5e-05 1.46608e-10 
277 1 0.152638 0.0168372 0.00746329 0.00565245 -0.00260082 0.000753824 3.11718e-11 1.37355e-10 -3.19885e-11 5e-05 1.46608e-10 
279 1 0.147224 0.0186897 0.00685791 0.00569759 -9.1895e-05 0.000133366 -2.10908e-10 3.67778e-11 -4.09807e-11 5e-05 1.46608e-10 
282 1 0.146835 0.0176935 0.00721014 0.00603284 -0.000434226 -0.000698619 8.50288e-11 -6.22368e-11 -1.72996e-10 5e-05 1.46608e-10 
283 1 0.14675 0.0173777 0.00743858 0.00594578 -0.000594373 -0.000959667 8.62207e-11 9.7939e-11 -8.35378e-11 5e-05 1.46608e-10 
284 1 0.152712 0.0167727 0.00748342 0.00568251 -0.00260749 0.00075354 4.05263e-11 -1.00391e-11 2.58701e-12 5e-05 1.46608e-10 
288 1 0.152787 0.0167102 0.00750285 0.00568908 -0.00262499 0.000758613 -3.62233e-11 -1.60788e-10 8.0208e-11 5e-05 1.46608e-10 
293 1 0.147009 0.018524 0.00691195 0.00555276 5.96935e-06 0.000101531 6.51294e-12 -3.56194e-12 2.05476e-11 5e-05 1.46608e-10 
294 1 0.152576 0.0182562 0.00546336 5.42162e-16 -1.4113e-15 1.14579e-14 -3.94333e-23 7.66435e-23 9.92617e-24 5e-05 1.46608e-10 
295 1 0.173625 0.0178004 0.0078014 -2.08584e-10 -0.022848 0.00775258 -1.79605e-18 7.04424e-12 2.07063e-11 5e-05 1.46608e-10 
297 1 0.159111 0.0181481 0.00694588 0.00568858 0.000681789 0.000166055 3.13362e-10 -2.14332e-10 1.03134e-10 5e-05 1.46608e-10 
300 1 0.158772 0.0170553 0.00745301 0.00628298 0.000506305 -0.000544737 5.43772e-11 -2.83498e-11 1.09966e-11 5e-05 1.46608e-10 
