ITEM: TIMESTEP
15200000
ITEM: NUMBER OF ATOMS
284
ITEM: BOX BOUNDS ff ff ff
-0.02 0.43
-0.02 0.06
-0.02 0.07
ITEM: ATOMS id type x y z vx vy vz fx fy fz radius mass 
1 1 0.101455 0.0163732 0.00783616 0.0060683 6.78112e-05 -0.000156303 2.85829e-11 1.32856e-10 -1.22488e-10 5e-05 1.46608e-10 
2 1 0.101879 0.0173034 0.00719212 0.00579776 0.000125918 -0.000188259 -1.36533e-10 -3.95841e-10 3.65347e-11 5e-05 1.46608e-10 
3 1 0.0954329 0.0162783 0.00787864 0.00588047 0.000118999 9.92993e-05 1.73349e-10 -6.45804e-11 5.30129e-12 5e-05 1.46608e-10 
4 1 0.101865 0.0176553 0.00711462 0.00579374 0.000223023 -0.000210029 -7.55406e-11 -3.28635e-11 3.99263e-11 5e-05 1.46608e-10 
5 1 0.101359 0.0163498 0.00785686 0.00605696 7.68353e-05 -0.000163966 3.10601e-10 5.68199e-11 -2.66324e-11 5e-05 1.46608e-10 
6 1 0.107453 0.0167166 0.00764264 0.00588973 -0.000520688 0.000785625 5.04255e-13 2.75255e-13 -4.81672e-14 5e-05 1.46608e-10 
7 1 0.101464 0.0167276 0.00754664 0.00622776 0.000137542 -8.0992e-05 -6.07065e-11 -5.1967e-11 -2.89378e-11 5e-05 1.46608e-10 
8 1 0.101373 0.0160709 0.00808486 0.00567638 9.56293e-05 -0.000172817 -8.5933e-11 -2.63392e-11 2.10441e-11 5e-05 1.46608e-10 
9 1 0.107714 0.0178012 0.00720012 0.00586497 -0.000515442 0.000781011 1.02443e-13 8.742e-13 -8.91339e-13 5e-05 1.46608e-10 
10 1 0.101486 0.0168041 0.00748583 0.0062609 0.000223781 4.81253e-05 7.45964e-11 -3.79748e-11 3.28227e-11 5e-05 1.46608e-10 
11 1 0.101603 0.0169095 0.00741151 0.00631437 0.000221358 0.000135723 -9.47294e-11 -8.27878e-11 4.71427e-11 5e-05 1.46608e-10 
12 1 0.101688 0.0172413 0.0072112 0.00586858 0.000206248 -0.000216354 -3.68979e-10 -4.4197e-10 1.43847e-10 5e-05 1.46608e-10 
13 1 0.101691 0.0176584 0.00720746 0.00571715 0.000252701 -0.000208272 1.53242e-10 6.20668e-10 6.04501e-12 5e-05 1.46608e-10 
14 1 0.0951437 0.0155207 0.00853023 0.00558986 4.75429e-07 -0.000193002 1.30368e-10 1.11897e-10 7.21918e-10 5e-05 1.46608e-10 
15 1 0.101592 0.0172123 0.00722615 0.00634568 0.000200523 9.98189e-05 1.00287e-10 6.80804e-12 3.84682e-11 5e-05 1.46608e-10 
16 1 0.0951234 0.0154676 0.00861246 0.00552423 -0.000128676 -0.000284262 3.01307e-10 -2.1314e-10 6.26547e-11 5e-05 1.46608e-10 
17 1 0.101817 0.017618 0.00721236 0.00580572 0.000176824 -0.000179514 -7.07322e-12 2.01785e-10 6.30743e-11 5e-05 1.46608e-10 
18 1 0.107605 0.0173493 0.0073845 0.00587525 -0.000517677 0.000782946 4.70535e-13 4.61724e-13 -1.27051e-13 5e-05 1.46608e-10 
19 1 0.101318 0.0161988 0.00798112 0.00581296 0.000126479 -0.000200081 -1.92163e-11 -9.09558e-11 9.46928e-11 5e-05 1.46608e-10 
20 1 0.101811 0.0175217 0.00723871 0.00578293 0.000165027 -0.000208305 -2.32725e-10 -1.66765e-11 8.08865e-11 5e-05 1.46608e-10 
21 1 0.101339 0.0162743 0.00791899 0.00602578 8.67122e-05 -0.000170869 2.74157e-11 5.75985e-11 -1.80565e-11 5e-05 1.46608e-10 
22 1 0.101645 0.0170674 0.00729575 0.00619161 9.22553e-05 0.000214289 5.10989e-10 6.46255e-10 -4.91572e-10 5e-05 1.46608e-10 
23 1 0.0954857 0.0167991 0.00748478 0.00623093 -0.000103371 -0.000191232 1.63133e-10 2.14795e-10 -4.7396e-12 5e-05 1.46608e-10 
24 1 0.107692 0.0177108 0.007237 0.00586701 -0.000515849 0.000781358 -8.37586e-13 9.6977e-13 -4.71017e-13 5e-05 1.46608e-10 
25 1 0.10156 0.0167519 0.00752712 0.00624547 0.000247703 0.000109999 1.181e-10 3.20643e-11 8.33485e-11 5e-05 1.46608e-10 
26 1 0.10754 0.0170781 0.00749513 0.00588138 -0.000519017 0.000784099 1.09752e-13 -6.49992e-13 3.97952e-13 5e-05 1.46608e-10 
27 1 0.0954003 0.0164839 0.00771578 0.00614835 6.51682e-05 7.2208e-05 1.37624e-10 -1.23523e-10 -2.26787e-10 5e-05 1.46608e-10 
28 1 0.101692 0.0174101 0.00725736 0.00575819 0.000196307 -0.000205117 4.9033e-10 1.45637e-10 8.26064e-11 5e-05 1.46608e-10 
29 1 0.101476 0.0164487 0.00777403 0.00609257 6.54694e-05 -0.000154589 -1.18033e-10 6.52721e-11 -4.12206e-11 5e-05 1.46608e-10 
30 1 0.101845 0.0175598 0.00713632 0.00580903 0.000196868 -0.000203069 -1.06212e-10 -8.87773e-11 7.15634e-11 5e-05 1.46608e-10 
31 1 0.101571 0.0171187 0.00725388 0.00635983 0.000215362 0.000140795 -1.65656e-10 -1.58749e-10 8.29635e-11 5e-05 1.46608e-10 
32 1 0.101625 0.0169882 0.00735381 0.0063345 0.000207726 0.000144212 -1.22598e-10 -1.6689e-10 1.22837e-10 5e-05 1.46608e-10 
33 1 0.107475 0.016807 0.00760576 0.00588761 -0.000520292 0.00078523 2.34033e-13 -6.01993e-13 2.34363e-13 5e-05 1.46608e-10 
34 1 0.10148 0.0168211 0.00758423 0.00610558 0.000114654 6.18548e-05 -1.74358e-11 9.95272e-11 2.06819e-10 5e-05 1.46608e-10 
36 1 0.107735 0.0178915 0.00716324 0.00586288 -0.000515012 0.000780603 -1.22057e-12 1.3739e-12 -2.21609e-13 5e-05 1.46608e-10 
37 1 0.101507 0.0168823 0.00742724 0.00630001 0.000259336 0.000112439 -3.29929e-11 -2.40005e-11 5.59046e-11 5e-05 1.46608e-10 
38 1 0.101667 0.0171466 0.00723764 0.00638692 0.000256375 0.000113174 -1.96173e-10 -2.08919e-10 5.21871e-11 5e-05 1.46608e-10 
39 1 0.10767 0.0176204 0.00727387 0.0058691 -0.000516298 0.000781761 -5.48186e-13 9.95865e-13 -7.96309e-13 5e-05 1.46608e-10 
41 1 0.10138 0.0164253 0.00779473 0.00608005 8.65457e-05 -0.000171379 -6.48572e-11 -1.54412e-10 9.70723e-11 5e-05 1.46608e-10 
42 1 0.10155 0.0170399 0.00731181 0.00634575 0.000231504 0.000137258 3.02525e-11 -1.87327e-10 8.35774e-11 5e-05 1.46608e-10 
44 1 0.101785 0.0172745 0.00720606 0.00574829 0.000189542 -0.000215772 -1.36378e-10 -2.39113e-10 1.17029e-11 5e-05 1.46608e-10 
45 1 0.107518 0.0169878 0.00753201 0.00588353 -0.000519441 0.000784494 -6.23921e-13 9.0031e-13 -5.70938e-13 5e-05 1.46608e-10 
46 1 0.107583 0.0172589 0.00742138 0.00587734 -0.000518107 0.000783331 -1.00739e-12 8.89002e-13 -5.6686e-13 5e-05 1.46608e-10 
47 1 0.101422 0.0165763 0.00767049 0.00615055 8.72501e-05 -0.00017635 1.93657e-10 1.73214e-11 4.94928e-11 5e-05 1.46608e-10 
48 1 0.101763 0.017186 0.00724721 0.00581212 0.000213367 -8.93321e-05 9.6192e-11 -1.80252e-10 4.74299e-11 5e-05 1.46608e-10 
49 1 0.107562 0.0171685 0.00745826 0.0058794 -0.000518628 0.000783748 1.02015e-12 4.17541e-13 -5.81522e-15 5e-05 1.46608e-10 
50 1 0.101729 0.0174337 0.00716745 0.00573347 0.000210383 -0.000206102 -5.17774e-13 2.17863e-10 9.68976e-12 5e-05 1.46608e-10 
51 1 0.101825 0.0174643 0.00715802 0.0057898 0.000190272 -0.000208526 -1.27818e-10 -1.74863e-10 9.94682e-11 5e-05 1.46608e-10 
52 1 0.101771 0.0180514 0.007121 0.00576769 -8.50228e-06 -0.000105672 -5.50222e-11 -1.74081e-10 -2.05478e-10 5e-05 1.46608e-10 
53 1 0.107627 0.0174397 0.00734763 0.00587319 -0.000517192 0.00078253 -7.34423e-13 4.18056e-13 -3.68634e-13 5e-05 1.46608e-10 
54 1 0.101434 0.0162977 0.00789828 0.00606909 6.41528e-05 -0.000153471 1.52398e-10 1.05917e-11 -1.34626e-11 5e-05 1.46608e-10 
55 1 0.0951809 0.0156491 0.008385 0.00558925 0.000217958 4.77815e-05 -5.27718e-10 -2.18059e-10 2.62651e-11 5e-05 1.46608e-10 
56 1 0.101528 0.0169611 0.00736946 0.00633366 0.000245287 0.000127264 -7.45781e-11 -7.36269e-11 6.43276e-11 5e-05 1.46608e-10 
57 1 0.107496 0.0168974 0.00756889 0.00588559 -0.000519929 0.000784907 1.11522e-12 2.24202e-13 6.02059e-14 5e-05 1.46608e-10 
59 1 0.101699 0.0169361 0.0073962 0.00632891 0.000208376 0.000145783 5.09712e-11 -9.11228e-11 4.10685e-11 5e-05 1.46608e-10 
60 1 0.10172 0.0170152 0.00733816 0.00629371 0.000246608 0.000114138 -3.16369e-10 1.25706e-10 -1.35592e-10 5e-05 1.46608e-10 
61 1 0.101401 0.0165008 0.00773261 0.00611958 9.42629e-05 -0.000177938 -2.41638e-10 -8.37657e-11 2.85586e-11 5e-05 1.46608e-10 
62 1 0.10198 0.0179092 0.00714351 0.00592684 0.00020559 -0.000197436 -4.94671e-10 3.94158e-10 4.81539e-11 5e-05 1.46608e-10 
63 1 0.10174 0.0170943 0.00728018 0.00614118 0.000208568 0.000153767 5.00054e-10 -1.50744e-11 -3.75504e-11 5e-05 1.46608e-10 
64 1 0.107648 0.01753 0.00731075 0.00587115 -0.000516774 0.000782174 3.01971e-13 9.20913e-13 -2.54541e-14 5e-05 1.46608e-10 
65 1 0.095443 0.016641 0.00759957 0.00617607 -8.74712e-05 -0.000147192 -1.43756e-10 -2.47349e-10 -6.91077e-11 5e-05 1.46608e-10 
66 1 0.0957084 0.017504 0.00724404 0.00576741 0.00017887 9.53993e-05 5.03289e-11 1.80014e-10 2.60265e-11 5e-05 1.46608e-10 
67 1 0.10192 0.0174944 0.00714873 0.00584237 0.00017927 -0.000201509 6.44985e-11 -1.17039e-10 2.59056e-11 5e-05 1.46608e-10 
68 1 0.101709 0.0173375 0.0071893 0.00576089 0.000233285 -0.00021466 1.42717e-10 -1.17668e-10 1.42747e-11 5e-05 1.46608e-10 
69 1 0.101581 0.0168307 0.00746929 0.00626547 0.000224424 0.000131627 -1.51006e-10 -1.04123e-11 2.96418e-11 5e-05 1.46608e-10 
70 1 0.101712 0.0175072 0.00723571 0.00576239 0.000166484 -0.000219304 -1.02816e-10 1.97505e-10 5.9493e-11 5e-05 1.46608e-10 
71 1 0.0951612 0.0155731 0.00844684 0.00556142 0.000178948 -2.01987e-05 -3.41207e-10 -4.78876e-10 4.60608e-10 5e-05 1.46608e-10 
72 1 0.101858 0.0178093 0.00716897 0.00591828 0.00020684 -0.000174157 9.19187e-11 1.78169e-12 -2.46251e-10 5e-05 1.46608e-10 
73 1 0.101837 0.0177137 0.0071906 0.0058657 0.000247318 -0.000208341 -3.04919e-10 1.52015e-10 -6.74285e-11 5e-05 1.46608e-10 
74 1 0.101868 0.0181025 0.00701435 0.00593781 0.0003238 -6.33943e-05 1.8727e-10 1.46623e-10 -1.48623e-10 5e-05 1.46608e-10 
76 1 0.0960283 0.0184491 0.00692484 0.00559419 6.5231e-05 6.9805e-09 -3.70695e-10 1.16055e-10 -2.45017e-11 5e-05 1.46608e-10 
77 1 0.101815 0.0182646 0.00697494 0.00561141 1.21342e-05 3.8918e-06 -1.25769e-11 -2.27682e-11 4.63744e-12 5e-05 1.46608e-10 
78 1 0.095259 0.0159535 0.00813755 0.0056093 0.000141004 6.90563e-05 7.99044e-12 -2.0617e-10 -2.22381e-11 5e-05 1.46608e-10 
79 1 0.095507 0.0168782 0.00742747 0.00625974 -0.000103716 -0.000193221 4.20942e-11 1.27829e-10 -1.64146e-10 5e-05 1.46608e-10 
80 1 0.101713 0.0177539 0.00718616 0.00577203 0.000188401 -0.000178719 3.49187e-11 -7.09288e-11 -1.00899e-10 5e-05 1.46608e-10 
81 1 0.0954217 0.0165623 0.00765753 0.00615795 -2.42295e-05 -4.59171e-05 8.12677e-11 -2.6268e-10 -1.43397e-10 5e-05 1.46608e-10 
82 1 0.0954643 0.0167199 0.00754209 0.00620769 -0.000110218 -0.000193337 -8.41125e-11 7.28249e-11 8.5074e-11 5e-05 1.46608e-10 
83 1 0.0953578 0.0163278 0.00783337 0.00610784 0.0001141 0.000118503 -4.53762e-10 1.36471e-10 -1.30441e-10 5e-05 1.46608e-10 
84 1 0.107756 0.0179821 0.00712614 0.00556283 -0.000467604 0.000731595 9.43957e-13 7.61629e-13 -1.71637e-13 5e-05 1.46608e-10 
85 1 0.101278 0.0160472 0.00810584 0.00561715 0.000204189 -0.000261072 -1.09838e-10 1.47543e-11 -9.23157e-12 5e-05 1.46608e-10 
86 1 0.10177 0.0176246 0.00712406 0.0058062 0.000206682 -0.000194832 1.50284e-10 -7.00109e-11 2.42052e-11 5e-05 1.46608e-10 
87 1 0.101856 0.0172048 0.0072146 0.00586004 0.000312112 -0.000241961 5.36998e-12 -3.65041e-10 4.20069e-11 5e-05 1.46608e-10 
88 1 0.101974 0.018147 0.0070028 0.00584536 0.000187128 -0.000189131 -6.81248e-11 4.31132e-11 -5.64652e-11 5e-05 1.46608e-10 
89 1 0.101811 0.0178157 0.00708088 0.00586281 0.000258046 -0.0001503 1.20916e-10 1.41665e-10 -3.9233e-10 5e-05 1.46608e-10 
90 1 0.101974 0.0177968 0.00708029 0.00587152 0.000217896 -0.000210926 4.57421e-11 2.07542e-10 -1.84605e-10 5e-05 1.46608e-10 
91 1 0.101633 0.0174018 0.00717718 0.00575204 0.000241261 -0.000206322 2.9128e-10 -3.48583e-11 3.1131e-13 5e-05 1.46608e-10 
92 1 0.102019 0.0179768 0.00703921 0.00578707 0.000114752 -0.000180866 6.6196e-12 3.12006e-11 -2.49794e-11 5e-05 1.46608e-10 
93 1 0.101775 0.0180684 0.00702253 0.00591878 0.00035347 -5.87264e-05 1.25303e-10 5.0478e-10 -1.30661e-10 5e-05 1.46608e-10 
94 1 0.10179 0.0177201 0.00710237 0.0057847 0.000242958 -0.00017711 7.84279e-11 1.38668e-10 -1.79466e-10 5e-05 1.46608e-10 
95 1 0.101694 0.0176883 0.00711208 0.00579894 0.000239691 -0.000214713 1.4762e-10 1.0198e-10 -1.33039e-10 5e-05 1.46608e-10 
96 1 0.101734 0.0178792 0.00706842 0.00586395 0.000327699 -5.81248e-05 8.35443e-11 2.99371e-10 -4.85389e-11 5e-05 1.46608e-10 
97 1 0.0956243 0.0169807 0.00734935 0.00627528 -0.000107798 -0.000189562 -6.94906e-11 1.64509e-10 -1.75414e-10 5e-05 1.46608e-10 
98 1 0.101914 0.0183011 0.00696618 0.00576849 0.000142707 -3.07637e-05 -1.8636e-10 2.97179e-10 3.38691e-11 5e-05 1.46608e-10 
99 1 0.0955284 0.0169573 0.00737015 0.0062847 -0.000124037 -0.000202614 -2.94706e-10 -1.16959e-11 -1.14378e-10 5e-05 1.46608e-10 
100 1 0.101954 0.0180515 0.00702447 0.00587405 0.000190256 -0.000213863 -2.14688e-10 7.75645e-11 4.74887e-11 5e-05 1.46608e-10 
101 1 0.0954747 0.0164291 0.00775412 0.00612458 8.31366e-05 0.000131028 3.38528e-11 -1.5839e-10 1.10221e-10 5e-05 1.46608e-10 
102 1 0.0694385 0.0202053 0.00537268 3.91926e-15 4.47688e-15 -7.6828e-14 -2.0107e-22 3.3842e-22 1.0133e-23 5e-05 1.46608e-10 
104 1 0.0955814 0.0168223 0.00746409 0.00623264 -0.000107214 -0.000190977 2.51897e-11 2.18603e-10 -1.23236e-10 5e-05 1.46608e-10 
105 1 0.0953164 0.016176 0.00795674 0.00561396 0.000170962 5.09801e-05 -6.47966e-11 2.23131e-10 -1.45408e-10 5e-05 1.46608e-10 
106 1 0.095687 0.0172398 0.00721896 0.00565139 8.24556e-05 0.000139749 -6.18069e-10 2.7455e-10 -7.30582e-11 5e-05 1.46608e-10 
107 1 0.0952785 0.0160439 0.00809942 0.00559902 0.000160043 6.23489e-05 1.04309e-10 -6.26934e-11 1.69254e-10 5e-05 1.46608e-10 
108 1 0.10146 0.0167443 0.00764515 0.00617915 -1.82291e-05 -6.08605e-05 1.52809e-11 1.27742e-10 1.0423e-10 5e-05 1.46608e-10 
109 1 0.101653 0.0174974 0.00715547 0.00574719 0.000242372 -0.000213374 9.48382e-11 1.36391e-10 3.02929e-12 5e-05 1.46608e-10 
110 1 0.101714 0.0177839 0.00709077 0.00581407 0.000283336 -0.000138012 1.21893e-10 1.89891e-10 -1.92133e-10 5e-05 1.46608e-10 
111 1 0.101941 0.0184082 0.0069402 0.0057648 0.000193999 -4.08451e-05 2.10742e-10 3.0418e-10 -6.43096e-11 5e-05 1.46608e-10 
112 1 0.095379 0.0164049 0.00777327 0.00613957 0.000114416 0.000129297 6.66278e-13 9.77361e-11 -2.00481e-10 5e-05 1.46608e-10 
113 1 0.0956984 0.0169241 0.0073865 0.00626243 -0.000124965 -0.000176948 -1.72995e-10 3.56387e-11 -5.14861e-11 5e-05 1.46608e-10 
115 1 0.101674 0.0175928 0.00713399 0.00578034 0.000233582 -0.000227392 1.17484e-10 2.52933e-10 7.19087e-11 5e-05 1.46608e-10 
116 1 0.101677 0.0168574 0.0074539 0.00630584 0.00021226 0.000141836 -9.17227e-11 4.24685e-11 -4.29849e-11 5e-05 1.46608e-10 
117 1 0.101539 0.0166752 0.00758768 0.00620774 7.8548e-05 -0.000107937 -5.55284e-11 -1.10112e-10 -3.79045e-11 5e-05 1.46608e-10 
118 1 0.0952198 0.0158019 0.00826195 0.00562647 0.000145431 6.28076e-05 4.1555e-10 2.33698e-10 3.4395e-11 5e-05 1.46608e-10 
119 1 0.10194 0.0175898 0.00712703 0.00584273 0.000197634 -0.000207034 6.88812e-11 8.85919e-13 -4.34338e-11 5e-05 1.46608e-10 
120 1 0.101298 0.0161231 0.00804337 0.00560017 0.000170285 -0.000232879 -9.86102e-12 -2.15366e-10 1.71844e-10 5e-05 1.46608e-10 
121 1 0.101393 0.0161465 0.00802264 0.00591042 6.49099e-05 -0.000151577 -2.9854e-10 8.0592e-11 -6.43778e-11 5e-05 1.46608e-10 
122 1 0.101831 0.0179112 0.00705924 0.00589566 0.000266004 -0.00019109 1.30958e-10 1.6071e-10 -2.7482e-10 5e-05 1.46608e-10 
123 1 0.0953369 0.0162519 0.00789502 0.00587669 0.000135917 9.01678e-05 -5.2338e-10 3.19744e-10 -3.10874e-10 5e-05 1.46608e-10 
124 1 0.101793 0.0178892 0.00714903 0.00597549 0.000281026 -0.000113305 2.40529e-10 3.73567e-10 -1.62951e-10 5e-05 1.46608e-10 
125 1 0.101413 0.0162221 0.00796045 0.00604838 5.36653e-05 -0.000144543 -5.56648e-11 6.53424e-11 -4.82495e-11 5e-05 1.46608e-10 
126 1 0.101613 0.0173068 0.00720086 0.00589256 0.000235552 -0.000126885 -5.60227e-11 -4.77977e-11 -1.41657e-10 5e-05 1.46608e-10 
127 1 0.0959224 0.0178127 0.00716738 0.00584648 7.34163e-05 1.61925e-05 -1.13252e-10 -3.28697e-11 -8.15651e-12 5e-05 1.46608e-10 
128 1 0.101886 0.0177508 0.00709292 0.00586716 0.000225586 -0.0002033 7.81748e-11 9.42113e-11 -2.3228e-10 5e-05 1.46608e-10 
129 1 0.101755 0.0179763 0.00705608 0.00591662 0.000336517 -3.57499e-05 1.21075e-10 4.05253e-10 -2.38243e-10 5e-05 1.46608e-10 
131 1 0.0956029 0.0169014 0.00740674 0.00635428 -0.000101658 -0.000205454 -1.72353e-10 3.97005e-10 -3.53871e-10 5e-05 1.46608e-10 
132 1 0.101927 0.0178834 0.00706243 0.00589618 0.000207922 -0.000224041 -1.6235e-10 -1.55021e-10 -2.80409e-11 5e-05 1.46608e-10 
133 1 0.101497 0.0165242 0.00771191 0.00612072 6.42433e-05 -0.000153776 5.07684e-11 -1.89552e-11 1.98987e-11 5e-05 1.46608e-10 
134 1 0.102035 0.0176201 0.0071177 0.00586407 0.000205082 -0.000204464 -1.47965e-11 6.6336e-10 -1.90855e-10 5e-05 1.46608e-10 
135 1 0.101613 0.0166226 0.00762941 0.00618864 2.97613e-05 -0.000127533 -9.66152e-11 -1.97114e-11 1.70476e-11 5e-05 1.46608e-10 
136 1 0.0952399 0.0158774 0.00819947 0.00558258 0.000139871 6.88263e-05 -2.60117e-10 3.07275e-11 1.13353e-11 5e-05 1.46608e-10 
137 1 0.101834 0.0183599 0.00695181 0.00564073 3.57668e-06 5.48101e-06 -1.14323e-10 -1.0064e-10 -2.61742e-12 5e-05 1.46608e-10 
138 1 0.10189 0.0182007 0.00699052 0.00562792 2.17375e-05 4.72965e-07 3.05678e-11 -4.03538e-12 3.20085e-12 5e-05 1.46608e-10 
140 1 0.10175 0.0175291 0.00714576 0.00577431 0.000203313 -0.000205513 3.10507e-11 3.74817e-11 6.94924e-11 5e-05 1.46608e-10 
141 1 0.0954121 0.0162014 0.00793909 0.00571877 0.000141179 7.89467e-05 -5.32585e-11 6.84898e-11 -1.17208e-10 5e-05 1.46608e-10 
142 1 0.0955173 0.0165852 0.00763649 0.00616352 -5.03294e-05 -7.66853e-05 -8.34013e-11 3.44615e-11 7.49948e-11 5e-05 1.46608e-10 
143 1 0.0952967 0.0160999 0.00801859 0.00560492 0.000163364 5.56991e-05 1.98936e-10 1.45917e-11 6.90528e-12 5e-05 1.46608e-10 
146 1 0.0955913 0.0165301 0.00767515 0.00616619 0.000104964 0.00013008 1.65635e-10 2.8682e-10 -9.88355e-11 5e-05 1.46608e-10 
147 1 0.0952002 0.0157253 0.00832311 0.00567448 0.000169561 5.92313e-05 2.99563e-10 2.53416e-11 7.21899e-11 5e-05 1.46608e-10 
148 1 0.0085418 0.0168309 0.00830098 2.43367e-05 -0.0173803 0.0123151 7.50538e-13 8.85994e-11 -3.20967e-11 5e-05 1.46608e-10 
149 1 0.101932 0.0179793 0.00709022 0.00589506 0.000190445 -0.000243362 -7.70961e-10 -2.13675e-10 -3.61355e-10 5e-05 1.46608e-10 
150 1 0.095496 0.016507 0.00769508 0.00615882 3.41134e-05 5.73837e-05 5.2548e-11 -9.24477e-11 -1.65942e-10 5e-05 1.46608e-10 
151 1 0.096014 0.017525 0.00715666 0.00577668 3.80819e-05 7.21953e-06 -7.81082e-11 1.08487e-11 2.35483e-11 5e-05 1.46608e-10 
153 1 0.09557 0.0164542 0.00773679 0.00614933 7.64455e-05 0.000155255 -8.81993e-11 4.76459e-11 -2.28548e-10 5e-05 1.46608e-10 
154 1 0.0957275 0.0174315 0.00717784 0.00572089 0.000115385 0.000134306 -1.41309e-11 -8.3869e-12 3.79012e-11 5e-05 1.46608e-10 
155 1 0.0898129 0.0178285 0.00704127 0.00581084 0.000385103 -0.000511486 6.90787e-11 1.25359e-10 -7.59213e-11 5e-05 1.46608e-10 
156 1 0.0956119 0.017304 0.00720284 0.00567488 0.000129442 0.000126208 2.66277e-11 2.02255e-10 5.25781e-11 5e-05 1.46608e-10 
157 1 0.0957887 0.0177172 0.00710774 0.00576733 8.69375e-05 -5.62843e-06 -1.96182e-10 2.57624e-11 3.37063e-13 5e-05 1.46608e-10 
158 1 0.0958338 0.017112 0.0072512 0.00606574 0.000208194 0.000126913 -3.28975e-10 1.99282e-10 2.01124e-11 5e-05 1.46608e-10 
159 1 0.101994 0.0182425 0.00698048 0.00582577 0.000215644 -5.0298e-05 -5.68427e-10 1.52345e-10 -8.68672e-11 5e-05 1.46608e-10 
160 1 0.095693 0.0176857 0.00711533 0.00575903 9.54043e-05 -1.1197e-05 -1.34036e-11 -3.08638e-11 -1.9795e-11 5e-05 1.46608e-10 
162 1 0.0956464 0.0170604 0.00729154 0.00615201 -0.000222182 -0.000106377 1.28988e-10 7.48218e-12 -1.01612e-10 5e-05 1.46608e-10 
163 1 0.0958576 0.0172082 0.00723067 0.00588861 0.000290003 9.18387e-05 -4.0451e-10 -2.52903e-10 3.15436e-11 5e-05 1.46608e-10 
164 1 0.0959105 0.0178491 0.00707501 0.00582072 4.6907e-05 6.95746e-06 -6.6842e-12 3.49639e-11 -1.21312e-11 5e-05 1.46608e-10 
165 1 0.0957747 0.0168699 0.00742183 0.00624215 -0.000149352 -0.000158817 4.09253e-11 1.24107e-10 -2.98271e-11 5e-05 1.46608e-10 
166 1 0.101239 0.0158957 0.00823042 0.00560985 0.00018098 -0.000241083 2.79418e-11 8.61307e-12 -1.8305e-12 5e-05 1.46608e-10 
167 1 0.0956126 0.0166076 0.00761575 0.0061493 -0.000111445 -0.000180716 2.91883e-10 -5.59716e-11 5.80239e-11 5e-05 1.46608e-10 
168 1 0.0957481 0.0175272 0.00715528 0.00571307 5.97248e-05 -9.24472e-06 -1.83268e-10 2.56659e-10 1.41199e-11 5e-05 1.46608e-10 
169 1 0.0958987 0.0173996 0.00718798 0.00570981 6.94014e-05 3.9346e-05 -4.79088e-11 6.32012e-11 -6.21695e-11 5e-05 1.46608e-10 
170 1 0.0958239 0.0174649 0.00717475 0.00573272 6.55759e-05 2.45485e-05 -2.11421e-10 2.34143e-10 5.1616e-10 5e-05 1.46608e-10 
171 1 0.101634 0.0166998 0.00756948 0.00622799 0.000223693 0.000130002 5.85122e-11 4.02014e-11 8.35717e-11 5e-05 1.46608e-10 
172 1 0.0960736 0.0178137 0.0070844 0.00577197 0.000151705 -2.00195e-05 -3.27921e-11 5.96711e-11 -1.55329e-11 5e-05 1.46608e-10 
173 1 0.1019 0.0173989 0.00717043 0.00584635 0.000144719 -0.000193505 -5.05128e-11 -2.25926e-10 4.54502e-11 5e-05 1.46608e-10 
174 1 0.0957431 0.0177423 0.00719309 0.00571501 3.75319e-05 -2.12872e-05 -1.9859e-11 1.62884e-10 5.97144e-11 5e-05 1.46608e-10 
175 1 0.0926097 0.0175665 0.00706156 0.00619436 -0.000890751 0.000368243 -2.33604e-13 3.37085e-14 -1.21899e-14 5e-05 1.46608e-10 
176 1 0.0955912 0.0172083 0.00722325 0.00574509 0.000115464 0.000138118 1.4914e-10 -2.37466e-11 3.97261e-11 5e-05 1.46608e-10 
177 1 0.096107 0.0180364 0.00702864 0.00568921 0.000189396 -3.00175e-05 -1.20395e-10 8.79755e-11 -2.22422e-11 5e-05 1.46608e-10 
178 1 0.0960547 0.017715 0.00710911 0.00580212 1.06699e-05 1.54221e-05 -1.89042e-11 4.41684e-11 -2.0178e-11 5e-05 1.46608e-10 
179 1 0.0896603 0.0175378 0.00719201 0.00577028 0.000339046 -0.00048552 -1.20852e-10 -1.18554e-10 6.32306e-11 5e-05 1.46608e-10 
180 1 0.0957635 0.0171831 0.00725309 0.00588085 3.85673e-05 1.78136e-05 -3.6301e-10 2.47061e-10 -6.63008e-11 5e-05 1.46608e-10 
181 1 0.0958037 0.0173688 0.00719377 0.00570669 9.68968e-05 0.000144167 1.31462e-10 1.69308e-10 1.24077e-11 5e-05 1.46608e-10 
182 1 0.101815 0.017042 0.00732273 0.00621248 0.000381724 1.08939e-05 3.76737e-11 -3.38178e-10 2.33017e-10 5e-05 1.46608e-10 
183 1 0.0959191 0.0174945 0.00716406 0.00575211 4.93635e-05 8.81498e-06 -2.19216e-11 8.33123e-11 9.78244e-11 5e-05 1.46608e-10 
184 1 0.101796 0.0181692 0.00699807 0.00557533 2.02392e-05 4.47007e-06 2.90758e-12 -1.88597e-12 -2.29348e-11 5e-05 1.46608e-10 
185 1 0.0956319 0.0173998 0.00718219 0.00570482 0.000127618 0.000128448 -2.30142e-10 1.25124e-10 -5.38052e-11 5e-05 1.46608e-10 
186 1 0.0956658 0.0171437 0.00723956 0.00602438 0.000386291 8.2201e-05 -1.74332e-10 1.06123e-10 -3.46072e-10 5e-05 1.46608e-10 
187 1 0.101836 0.0171207 0.00726503 0.00598352 0.000416266 -3.09296e-05 -8.71332e-11 -2.56481e-10 2.06901e-10 5e-05 1.46608e-10 
188 1 0.101852 0.0180065 0.00703727 0.0059129 0.000215786 -0.00032599 -4.13724e-10 -2.77104e-11 -1.00249e-09 5e-05 1.46608e-10 
189 1 0.101518 0.0165997 0.00764978 0.00616232 5.6483e-05 -0.000149902 4.19103e-12 -1.16962e-11 5.18493e-12 5e-05 1.46608e-10 
190 1 0.0961038 0.0183855 0.00694103 0.00561995 7.36344e-05 -1.0013e-06 -4.60513e-10 -6.64721e-12 -6.00575e-12 5e-05 1.46608e-10 
191 1 0.101854 0.0184553 0.00692868 0.00567765 1.86798e-05 1.77725e-06 -1.2135e-10 -1.74547e-10 4.78776e-11 5e-05 1.46608e-10 
192 1 0.0957071 0.0173358 0.00719839 0.00569959 0.000101786 0.000137832 -1.77389e-10 2.07645e-10 3.65954e-11 5e-05 1.46608e-10 
193 1 0.101873 0.0185506 0.00690555 0.00571408 7.36301e-05 -1.4454e-05 -2.11545e-10 -5.60543e-11 -7.99709e-11 5e-05 1.46608e-10 
194 1 0.0955387 0.016664 0.00757877 0.00615975 -0.000114335 -0.000179309 -5.79618e-11 -8.06491e-11 7.73991e-11 5e-05 1.46608e-10 
195 1 0.0958443 0.017559 0.0071476 0.0057378 6.36153e-05 2.79285e-06 -1.0971e-10 1.1919e-10 3.3454e-11 5e-05 1.46608e-10 
196 1 0.0951056 0.0154313 0.00870392 0.00547036 -0.000152666 -0.000272292 -4.99927e-10 2.07685e-10 -6.26581e-10 5e-05 1.46608e-10 
197 1 0.0957908 0.0178972 0.0071465 0.00580982 6.0862e-05 -2.56675e-07 2.0526e-11 9.18642e-11 -3.99396e-11 5e-05 1.46608e-10 
198 1 0.0955498 0.0170366 0.0073131 0.00626561 -0.00013862 -0.000220235 -4.55889e-10 6.51142e-11 1.9903e-10 5e-05 1.46608e-10 
199 1 0.0956727 0.0175907 0.00713912 0.00575056 0.000110118 2.76836e-05 1.54597e-11 -1.35948e-11 -1.72409e-10 5e-05 1.46608e-10 
200 1 0.09556 0.0167431 0.00752145 0.00619692 -0.000129878 -0.00017763 8.76386e-11 2.29158e-11 9.44174e-11 5e-05 1.46608e-10 
201 1 0.0960092 0.0183535 0.00694876 0.00560994 0.000137538 -1.63901e-05 -1.80167e-10 1.10605e-10 -3.94413e-11 5e-05 1.46608e-10 
203 1 0.102027 0.0178794 0.00706053 0.00591571 0.000145408 -0.000190413 -3.9933e-10 2.19593e-10 -1.02709e-12 5e-05 1.46608e-10 
204 1 0.0956767 0.016845 0.00744378 0.00623545 -0.000120682 -0.000182867 4.78907e-11 1.79027e-11 3.59321e-11 5e-05 1.46608e-10 
205 1 0.0957662 0.0179939 0.00714042 0.00582909 6.95612e-05 -1.43572e-06 1.00196e-10 1.19444e-10 -1.24161e-10 5e-05 1.46608e-10 
206 1 0.0957685 0.0176222 0.00713151 0.00574995 9.03195e-05 -1.66595e-06 -5.99587e-13 8.20219e-11 -6.48778e-11 5e-05 1.46608e-10 
207 1 0.0955493 0.0163782 0.00779848 0.00601063 8.59263e-05 0.000131052 -1.38002e-10 2.93957e-10 -2.15457e-10 5e-05 1.46608e-10 
208 1 0.0956523 0.0174955 0.00716166 0.00573215 0.000131912 0.00012844 -1.10018e-10 4.57475e-11 4.58371e-11 5e-05 1.46608e-10 
209 1 0.0896795 0.0176255 0.00714802 0.00580466 0.000338504 -0.000488688 -2.46633e-10 -9.99259e-11 3.74033e-11 5e-05 1.46608e-10 
210 1 0.101258 0.0159715 0.00816813 0.00561191 0.000193473 -0.000252049 -2.57948e-11 -1.80119e-11 2.32196e-11 5e-05 1.46608e-10 
211 1 0.101814 0.0181365 0.00709084 0.00572677 4.44176e-05 -1.54261e-05 -3.97239e-11 -1.78269e-10 -7.37822e-11 5e-05 1.46608e-10 
212 1 0.0960344 0.0176199 0.00713289 0.00578518 7.58927e-06 1.50336e-05 -3.8011e-11 -1.16974e-10 2.52028e-11 5e-05 1.46608e-10 
213 1 0.102048 0.017731 0.00709278 0.00588847 0.000149144 -0.000200135 6.25839e-11 -1.39211e-10 5.32485e-11 5e-05 1.46608e-10 
214 1 0.101839 0.0179788 0.00713247 0.00600383 0.000300486 -0.000249629 2.5298e-10 4.48688e-10 -6.14964e-10 5e-05 1.46608e-10 
215 1 0.0957413 0.0170915 0.00728655 0.00614987 -9.18132e-05 -0.000151085 -5.51279e-11 2.59704e-10 8.04839e-11 5e-05 1.46608e-10 
216 1 0.0958176 0.0170299 0.00730593 0.00622757 -6.48372e-05 -0.000223803 -3.93049e-10 1.09852e-11 1.60173e-11 5e-05 1.46608e-10 
217 1 0.101656 0.0167786 0.00751169 0.00629039 0.000213734 0.000138307 3.27067e-11 5.91877e-11 -3.53102e-11 5e-05 1.46608e-10 
218 1 0.0958851 0.0177489 0.00710007 0.00580155 4.65532e-05 6.24185e-06 -5.67773e-11 3.10207e-11 -6.61762e-12 5e-05 1.46608e-10 
219 1 0.10182 0.0182341 0.00707004 0.00564033 -4.96235e-06 1.7015e-06 -4.70307e-11 -1.02272e-10 -1.33355e-11 5e-05 1.46608e-10 
220 1 0.0957197 0.017005 0.00733182 0.00628169 -0.000140276 -0.000185299 -5.09255e-11 7.31942e-11 -1.91601e-10 5e-05 1.46608e-10 
221 1 0.0895544 0.0171013 0.00741152 0.00626072 0.00029855 -0.000493486 2.35684e-11 9.37844e-11 -4.55441e-11 5e-05 1.46608e-10 
222 1 0.101443 0.0166518 0.00760838 0.00618452 8.49788e-05 -0.000161833 3.29045e-11 -4.60256e-11 3.3407e-11 5e-05 1.46608e-10 
223 1 0.0957833 0.0172731 0.0072143 0.00572056 0.000105074 0.000135179 -3.85898e-11 2.09233e-10 -1.89906e-10 5e-05 1.46608e-10 
224 1 0.0955711 0.0171161 0.00725646 0.00623255 -9.71563e-05 -0.000168281 -6.0927e-10 1.35715e-10 4.2576e-10 5e-05 1.46608e-10 
225 1 0.10196 0.0176854 0.00710533 0.00585439 0.000199226 -0.000211325 -1.19188e-10 1.10894e-10 5.78851e-12 5e-05 1.46608e-10 
226 1 0.0957968 0.0169499 0.00736383 0.0062351 -0.000180379 -0.000144257 -1.26025e-10 3.35993e-10 -4.88295e-11 5e-05 1.46608e-10 
227 1 0.0896196 0.0173628 0.0072799 0.00624821 0.000233575 -0.000460791 2.42467e-11 -1.39603e-10 6.3012e-11 5e-05 1.46608e-10 
228 1 0.0507861 0.0189683 0.00558458 -5.37251e-15 -1.91019e-14 -2.87013e-13 2.3205e-22 -2.73745e-23 -2.89513e-24 5e-05 1.46608e-10 
229 1 0.0953713 0.0160495 0.00806255 0.00563542 0.000133099 8.03568e-05 1.26823e-10 -1.24717e-10 -7.00201e-12 5e-05 1.46608e-10 
230 1 0.0957729 0.0180635 0.00706885 0.00578692 8.89817e-05 7.89691e-06 2.05045e-11 1.19008e-10 -5.55055e-11 5e-05 1.46608e-10 
231 1 0.197479 0.018695 0.00523156 -1.09405e-15 -2.69837e-14 1.45243e-13 -3.26833e-23 6.20385e-25 -4.1359e-25 5e-05 1.46608e-10 
232 1 0.0953918 0.0161254 0.00800083 0.00564892 0.000145725 7.40198e-05 -7.22599e-11 9.07981e-11 -9.67361e-11 5e-05 1.46608e-10 
233 1 0.0956553 0.0167659 0.00750109 0.00619386 -0.000114289 -0.000187505 -1.60133e-10 8.17804e-12 6.31259e-12 5e-05 1.46608e-10 
234 1 0.101199 0.0157443 0.008355 0.00557298 0.000163162 -0.000225876 3.47118e-11 6.8895e-11 -5.6273e-11 5e-05 1.46608e-10 
235 1 0.0959338 0.0184172 0.00693256 0.00558503 0.00012337 -1.46835e-05 -2.30549e-10 -5.81629e-11 6.56708e-12 5e-05 1.46608e-10 
236 1 0.0959528 0.0185126 0.00690868 0.00558268 7.51357e-05 -1.30442e-06 -1.90527e-10 1.4441e-10 -3.36153e-11 5e-05 1.46608e-10 
237 1 0.0958672 0.0182056 0.00698816 0.00567167 0.00012982 -1.25824e-05 1.51904e-11 2.69471e-11 4.17377e-11 5e-05 1.46608e-10 
238 1 0.0896987 0.0177132 0.00710403 0.00586502 0.000340854 -0.000491872 1.60822e-11 -9.92012e-11 7.70241e-11 5e-05 1.46608e-10 
239 1 0.0894458 0.0166653 0.0076309 0.00623688 0.000236261 -0.000461711 2.82083e-11 1.09958e-10 -5.40486e-11 5e-05 1.46608e-10 
240 1 0.0895327 0.0170141 0.0074554 0.00625494 0.000282063 -0.000485071 2.60199e-11 9.60957e-11 -4.62585e-11 5e-05 1.46608e-10 
241 1 0.0894675 0.0167525 0.00758703 0.00624106 0.000244195 -0.000465847 3.1428e-11 1.03605e-10 -5.51019e-11 5e-05 1.46608e-10 
242 1 0.0897754 0.017654 0.00712876 0.00584489 0.000315849 -0.000478865 -1.96574e-10 -1.20613e-10 6.96927e-11 5e-05 1.46608e-10 
243 1 0.089424 0.0165781 0.00767478 0.00623335 0.000229589 -0.000458109 3.48113e-11 1.08789e-10 -5.5668e-11 5e-05 1.46608e-10 
244 1 0.0894892 0.0168397 0.00754315 0.00624549 0.00025465 -0.00047128 2.64203e-11 1.03341e-10 -5.37209e-11 5e-05 1.46608e-10 
245 1 0.089718 0.017801 0.00706003 0.00590882 0.00035057 -0.000498245 -8.08032e-11 -1.45861e-10 1.46282e-11 5e-05 1.46608e-10 
246 1 0.0895761 0.0171885 0.00736765 0.00625499 0.000270545 -0.000479479 -1.10607e-10 -3.61231e-10 1.91913e-10 5e-05 1.46608e-10 
247 1 0.0959394 0.0175895 0.00714024 0.00577643 3.84873e-05 9.37776e-06 4.93754e-11 1.03581e-10 3.52053e-11 5e-05 1.46608e-10 
248 1 0.09598 0.0177794 0.00709271 0.0058169 3.32008e-05 1.04886e-05 -4.10684e-11 3.39095e-12 5.87604e-12 5e-05 1.46608e-10 