ITEM: TIMESTEP
11400000
ITEM: NUMBER OF ATOMS
284
ITEM: BOX BOUNDS ff ff ff
-0.02 0.43
-0.02 0.06
-0.02 0.07
ITEM: ATOMS id type x y z vx vy vz fx fy fz radius mass 
1 1 0.0792932 0.0162764 0.00783147 0.0058907 0.000167489 -7.93848e-05 3.39215e-11 5.36441e-11 -3.06924e-11 5e-05 1.46608e-10 
2 1 0.0796934 0.0171432 0.00733507 0.0056691 0.000221092 0.000131378 -1.47749e-10 8.07632e-11 1.05189e-10 5e-05 1.46608e-10 
3 1 0.0732248 0.0160826 0.00814147 0.00603855 4.65594e-05 -4.6512e-05 7.18284e-11 -3.00916e-10 2.4979e-10 5e-05 1.46608e-10 
4 1 0.0796834 0.0175569 0.00712715 0.00569149 0.000338291 0.000206558 1.1942e-10 4.86314e-11 -2.03468e-11 5e-05 1.46608e-10 
5 1 0.079198 0.016249 0.00784699 0.00585857 0.000136907 -6.1809e-05 2.51434e-11 -2.65044e-11 1.42411e-11 5e-05 1.46608e-10 
6 1 0.0853533 0.0169064 0.00745463 0.00545904 -0.00025436 6.28328e-05 -6.86133e-13 1.83862e-12 -7.06833e-13 5e-05 1.46608e-10 
7 1 0.0793523 0.0167013 0.0075868 0.00554296 0.000196734 -9.38934e-05 1.39018e-10 -6.39046e-11 5.7967e-11 5e-05 1.46608e-10 
8 1 0.0792107 0.0159368 0.0080269 0.00581957 0.000131561 -5.89854e-05 2.39524e-11 -1.30648e-11 1.24077e-11 5e-05 1.46608e-10 
9 1 0.0855915 0.0180099 0.00704766 0.00601513 -0.000360814 9.89507e-05 -2.02564e-12 -1.0746e-11 1.03045e-13 5e-05 1.46608e-10 
10 1 0.0793237 0.0167842 0.00753889 0.0055081 0.000186254 -9.17376e-05 1.1742e-10 -1.05623e-10 6.80566e-11 5e-05 1.46608e-10 
11 1 0.0794376 0.0168975 0.00747394 0.0055441 0.000200758 -9.9398e-05 -7.59053e-11 -3.75745e-12 1.85783e-12 5e-05 1.46608e-10 
12 1 0.079516 0.0172388 0.00727747 0.00567531 0.000185175 -9.01014e-05 -7.59745e-11 -4.41307e-11 4.21825e-11 5e-05 1.46608e-10 
13 1 0.0795147 0.0176457 0.00720971 0.00562204 0.000292352 0.000197787 1.0506e-10 6.69088e-11 -2.49076e-11 5e-05 1.46608e-10 
14 1 0.0729147 0.0153019 0.00877639 0.006255 0.000102989 0.000207673 3.70113e-11 1.28911e-10 -2.34454e-10 5e-05 1.46608e-10 
15 1 0.0794204 0.0172099 0.00729389 0.00564901 0.000172364 -8.13273e-05 1.5377e-11 1.40675e-11 -2.27086e-11 5e-05 1.46608e-10 
16 1 0.0728938 0.0152481 0.00885803 0.00624529 0.000106956 0.000203494 5.71982e-11 1.61709e-10 -2.10524e-10 5e-05 1.46608e-10 
17 1 0.0795654 0.0174167 0.00728711 0.00570775 0.000295756 0.000224459 8.00665e-11 1.74076e-10 -1.64262e-10 5e-05 1.46608e-10 
18 1 0.0854905 0.0175505 0.00721712 0.00549878 -0.000254346 6.25569e-05 -1.49684e-11 4.7741e-12 -7.93511e-13 5e-05 1.46608e-10 
19 1 0.0791568 0.0160794 0.00794461 0.00584396 0.00014454 -6.638e-05 -3.74943e-11 -4.59029e-11 3.22581e-11 5e-05 1.46608e-10 
20 1 0.0795753 0.0173081 0.00731959 0.00565611 0.000236655 0.000240059 3.53179e-11 4.16486e-11 -2.24779e-10 5e-05 1.46608e-10 
21 1 0.0791773 0.0161642 0.00789579 0.0058498 0.000141761 -6.49788e-05 -5.68553e-12 -4.14837e-11 2.34502e-11 5e-05 1.46608e-10 
22 1 0.0794769 0.0170685 0.00737552 0.00559537 0.000180944 -8.33993e-05 -7.80409e-12 6.18308e-11 6.42626e-11 5e-05 1.46608e-10 
23 1 0.0732716 0.016586 0.00772371 0.00552332 -5.63739e-05 3.36647e-05 -9.52748e-12 -7.54747e-12 3.95731e-11 5e-05 1.46608e-10 
24 1 0.0855708 0.0179181 0.00708152 0.0059757 -0.00035131 9.54334e-05 -1.99531e-12 -7.68581e-12 2.79341e-12 5e-05 1.46608e-10 
25 1 0.0794469 0.0167295 0.00757083 0.00553883 0.000195503 -9.83969e-05 1.43171e-10 -3.06223e-11 -1.77565e-12 5e-05 1.46608e-10 
26 1 0.0854316 0.0172745 0.0073189 0.00549393 -0.000256024 6.32799e-05 3.45917e-12 9.88998e-12 -3.50682e-12 5e-05 1.46608e-10 
27 1 0.0731924 0.0162843 0.00797413 0.00563161 -5.66114e-05 3.91889e-05 -7.28014e-11 -9.80723e-11 1.55344e-10 5e-05 1.46608e-10 
28 1 0.0794768 0.0173715 0.00729749 0.0057619 0.000123346 -0.000105592 5.50789e-11 3.72577e-10 -4.8499e-10 5e-05 1.46608e-10 
29 1 0.0793135 0.0163613 0.00778258 0.00568539 0.000176318 -8.51331e-05 -3.73906e-11 -2.33319e-10 1.34145e-10 5e-05 1.46608e-10 
30 1 0.0796683 0.0174678 0.00716988 0.00569724 0.000324596 0.000208076 9.18992e-11 2.93044e-11 -7.79431e-11 5e-05 1.46608e-10 
31 1 0.079401 0.0171249 0.00734283 0.00559495 0.000182552 -9.18058e-05 -1.14057e-10 -6.44705e-11 2.02583e-11 5e-05 1.46608e-10 
32 1 0.0794575 0.0169834 0.00742452 0.00557837 0.000186651 -9.12158e-05 -1.88004e-11 -3.16192e-11 2.21458e-11 5e-05 1.46608e-10 
33 1 0.0853728 0.0169985 0.0074207 0.00545846 -0.00025369 6.26168e-05 2.55697e-12 -1.11583e-12 1.81204e-13 5e-05 1.46608e-10 
34 1 0.079316 0.0167792 0.00763846 0.00551035 0.00019174 -9.04437e-05 1.41177e-11 2.28359e-10 8.58454e-11 5e-05 1.46608e-10 
36 1 0.0856122 0.0181017 0.0070138 0.0060535 -0.000370954 0.000102293 -5.41874e-12 -3.15163e-12 5.85697e-12 5e-05 1.46608e-10 
37 1 0.079343 0.0168693 0.00748994 0.0055445 0.000191756 -9.43619e-05 -2.27276e-11 -1.07618e-10 5.24963e-11 5e-05 1.46608e-10 
38 1 0.0794964 0.0171537 0.0073265 0.00565784 0.000179446 -8.73851e-05 -8.37559e-11 -1.40274e-11 3.10351e-11 5e-05 1.46608e-10 
39 1 0.0855501 0.0178263 0.00711538 0.00593624 -0.00034201 9.2499e-05 1.90054e-13 -8.16828e-12 4.08586e-12 5e-05 1.46608e-10 
41 1 0.0792184 0.0163338 0.00779816 0.0058553 0.000134598 -6.05199e-05 9.70525e-12 3.44657e-12 -3.97458e-12 5e-05 1.46608e-10 
42 1 0.0793817 0.0170398 0.00739178 0.00557307 0.000183013 -8.96066e-05 -6.71978e-12 -3.42108e-11 -1.82439e-12 5e-05 1.46608e-10 
44 1 0.0796106 0.017212 0.00729556 0.00568129 0.000201543 2.0923e-05 7.91255e-11 3.20849e-11 -2.53891e-11 5e-05 1.46608e-10 
45 1 0.0854119 0.0171825 0.00735283 0.0054921 -0.000257302 6.37344e-05 2.22482e-12 7.45302e-12 -3.0083e-12 5e-05 1.46608e-10 
46 1 0.0854709 0.0174585 0.00725105 0.00549721 -0.00025441 6.26832e-05 7.96451e-12 4.08548e-12 -1.94834e-12 5e-05 1.46608e-10 
47 1 0.0792584 0.0165036 0.00770041 0.00565185 0.000166774 -7.97597e-05 1.02214e-10 3.8257e-11 -2.00541e-11 5e-05 1.46608e-10 
48 1 0.0795912 0.0171263 0.00734332 0.00563101 0.000180894 -4.10576e-05 4.35433e-11 6.98967e-12 -1.17771e-10 5e-05 1.46608e-10 
49 1 0.0854512 0.0173665 0.00728497 0.00549568 -0.000254975 6.28461e-05 2.00772e-12 8.78998e-12 -3.19747e-12 5e-05 1.46608e-10 
50 1 0.0795548 0.0174137 0.00718773 0.00570967 0.000296716 0.000227677 -5.92391e-11 8.89716e-11 -1.01541e-10 5e-05 1.46608e-10 
51 1 0.079643 0.0173914 0.00722923 0.00571713 0.000310003 0.000217482 -2.07589e-11 1.3286e-11 -1.26019e-10 5e-05 1.46608e-10 
52 1 0.0796852 0.018075 0.00702659 0.00603803 3.68571e-05 -0.000611065 -1.06722e-09 5.74057e-10 8.22232e-10 5e-05 1.46608e-10 
53 1 0.0855102 0.0176424 0.00718319 0.00550042 -0.000255014 6.29774e-05 1.02547e-11 -3.54165e-12 1.10028e-12 5e-05 1.46608e-10 
54 1 0.0792728 0.0161915 0.0078803 0.0058533 0.000132718 -5.94779e-05 5.01274e-12 -8.0466e-11 4.66571e-11 5e-05 1.46608e-10 
55 1 0.072958 0.0154422 0.00864092 0.00623361 -0.000386572 -0.000234204 7.47148e-11 -9.1943e-11 -3.56918e-10 5e-05 1.46608e-10 
56 1 0.0793624 0.0169548 0.00744073 0.00555581 0.000182948 -8.93119e-05 -1.10971e-11 -2.54698e-11 1.2622e-11 5e-05 1.46608e-10 
57 1 0.0853923 0.0170905 0.00738676 0.00545798 -0.000252406 6.21617e-05 -5.21425e-14 2.93229e-12 -7.15818e-13 5e-05 1.46608e-10 
59 1 0.0795327 0.016871 0.0074896 0.00553807 0.00018208 -8.81938e-05 -7.92623e-11 9.77229e-11 -6.03197e-11 5e-05 1.46608e-10 
60 1 0.0795524 0.0169559 0.00744062 0.00557675 0.000173447 -8.53339e-05 -6.28987e-11 8.3836e-11 -5.89461e-11 5e-05 1.46608e-10 
61 1 0.0792386 0.0164187 0.0077493 0.0056724 0.000162939 -7.74233e-05 1.38789e-10 2.98228e-13 2.38666e-12 5e-05 1.46608e-10 
62 1 0.0797148 0.017516 0.00724413 0.0056826 0.000315129 0.000220004 -1.94148e-11 1.10432e-10 -3.0457e-11 5e-05 1.46608e-10 
63 1 0.0795717 0.017041 0.00739167 0.00559692 0.000169685 -8.02739e-05 -5.02626e-11 8.00758e-11 -2.66196e-11 5e-05 1.46608e-10 
64 1 0.0855298 0.0177344 0.00714927 0.00550098 -0.000255742 6.30737e-05 -3.94375e-12 -1.00778e-11 1.94506e-12 5e-05 1.46608e-10 
65 1 0.073233 0.016435 0.00784904 0.00549108 -4.71815e-05 3.12507e-05 4.3144e-10 -2.11509e-10 1.38954e-10 5e-05 1.46608e-10 
66 1 0.0734118 0.0171356 0.00738233 0.00558737 -4.48658e-05 -6.15743e-06 -1.2345e-10 1.16416e-10 9.40628e-11 5e-05 1.46608e-10 
67 1 0.0797426 0.0173219 0.00724393 0.0056964 0.000266812 0.000243205 1.03974e-10 -8.14672e-11 -7.04005e-12 5e-05 1.46608e-10 
68 1 0.0795358 0.0173247 0.00722926 0.00565578 0.000288412 0.000234306 3.94558e-11 2.97015e-10 -1.05171e-10 5e-05 1.46608e-10 
69 1 0.0794184 0.0168125 0.0075229 0.00554818 0.000197979 -9.81808e-05 5.7957e-11 -4.81551e-11 2.04442e-11 5e-05 1.46608e-10 
70 1 0.0794713 0.0174618 0.00725485 0.00568875 0.000269283 0.000227092 -9.45578e-11 8.42135e-11 -4.56134e-10 5e-05 1.46608e-10 
71 1 0.0729366 0.0153685 0.00870508 0.00626573 -0.000457737 -0.000306754 9.1883e-11 -1.7069e-10 -4.70558e-10 5e-05 1.46608e-10 
72 1 0.0796219 0.0175865 0.00720019 0.00568569 0.000336219 0.000201708 -5.9741e-11 2.16323e-10 -1.43612e-10 5e-05 1.46608e-10 
73 1 0.0795598 0.0175073 0.00724508 0.00567646 0.000302316 0.000226684 -9.68082e-11 1.64751e-10 -1.94131e-10 5e-05 1.46608e-10 
74 1 0.0798836 0.0177227 0.00706036 0.00602739 6.64677e-05 0.000357414 9.00667e-11 -1.14863e-10 6.02907e-11 5e-05 1.46608e-10 
76 1 0.0738426 0.0178935 0.00724171 0.00580526 -8.03874e-05 7.39132e-06 -8.81031e-11 -8.87558e-11 -5.48627e-12 5e-05 1.46608e-10 
77 1 0.0796855 0.0184299 0.0071241 0.00606802 0.000203101 -0.000501446 -3.84131e-11 -1.67069e-10 -6.0921e-11 5e-05 1.46608e-10 
78 1 0.0730431 0.015754 0.00840528 0.00612777 -0.000328547 -0.000210361 -4.59169e-12 -1.69406e-10 -2.4883e-10 5e-05 1.46608e-10 
79 1 0.0732911 0.0166615 0.00766106 0.00553131 -4.87644e-05 3.10074e-05 -1.06611e-10 1.37792e-10 -1.75133e-10 5e-05 1.46608e-10 
80 1 0.0795373 0.0177583 0.00711073 0.00554251 0.000312542 0.000177165 3.4865e-10 6.89152e-11 -7.76086e-11 5e-05 1.46608e-10 
81 1 0.0732128 0.0163597 0.0079116 0.00551734 -4.95852e-05 2.65922e-05 1.72478e-10 -1.62957e-10 1.4344e-10 5e-05 1.46608e-10 
82 1 0.0732524 0.0165105 0.00778638 0.00550499 -5.34537e-05 3.575e-05 2.03058e-10 -7.74113e-11 1.76713e-10 5e-05 1.46608e-10 
83 1 0.0731502 0.0161339 0.008099 0.00590219 -8.65041e-05 5.52287e-05 -4.26781e-11 -1.61328e-10 1.43193e-10 5e-05 1.46608e-10 
84 1 0.0856328 0.0181935 0.00697994 0.00609339 -0.000380128 0.000105507 8.96789e-12 1.08635e-11 -4.54114e-12 5e-05 1.46608e-10 
85 1 0.0791156 0.0159097 0.00804224 0.00583404 0.000152796 -7.23421e-05 2.2216e-11 -5.29161e-11 2.42639e-11 5e-05 1.46608e-10 
86 1 0.0795941 0.0175957 0.00710458 0.00568948 0.000325553 0.000194553 2.59533e-11 -1.7704e-10 -7.38641e-11 5e-05 1.46608e-10 
87 1 0.0796704 0.017058 0.00738219 0.00565902 0.000112706 -6.84616e-05 -8.87609e-11 6.60637e-11 9.89289e-11 5e-05 1.46608e-10 
88 1 0.0796221 0.0181449 0.00706022 0.00614954 0.000111153 -0.000426803 -2.81893e-10 -1.86691e-10 -4.90918e-10 5e-05 1.46608e-10 
89 1 0.0796203 0.0177964 0.00705079 0.00587908 0.000157955 0.000300034 -2.54885e-11 -1.26603e-11 5.14276e-11 5e-05 1.46608e-10 
90 1 0.0797749 0.0175954 0.00711454 0.00574339 0.000254 0.000248517 6.90798e-11 1.40582e-12 -8.6045e-12 5e-05 1.46608e-10 
91 1 0.0794593 0.0173807 0.00719741 0.00569547 0.000330364 0.000212472 -5.4626e-11 5.75537e-11 -2.49673e-11 5e-05 1.46608e-10 
92 1 0.0797807 0.0176855 0.0070716 0.0059528 0.000254497 0.000261205 8.11133e-11 2.26763e-11 -1.00824e-11 5e-05 1.46608e-10 
93 1 0.0797865 0.0181092 0.00702576 0.00608893 0.000228354 -0.000497299 1.32928e-10 -1.51872e-10 1.26725e-10 5e-05 1.46608e-10 
94 1 0.0795918 0.0176964 0.0070542 0.00556443 0.000378196 0.000165077 -1.6534e-10 -4.16096e-10 9.79374e-11 5e-05 1.46608e-10 
95 1 0.0795178 0.0176601 0.00711079 0.00565478 0.000279919 0.000198512 -9.86422e-11 -4.0873e-10 -1.80684e-11 5e-05 1.46608e-10 
96 1 0.0796572 0.0178643 0.00697769 0.00533291 0.00113429 -0.000202537 2.86904e-11 3.52975e-11 1.38169e-11 5e-05 1.46608e-10 
97 1 0.0734042 0.0167624 0.00757707 0.00553552 -4.6258e-05 2.94215e-05 3.0633e-10 2.10069e-10 -1.97296e-10 5e-05 1.46608e-10 
98 1 0.0796645 0.0183374 0.0070925 0.00608009 0.000181689 -0.000497487 2.01397e-11 -2.43902e-10 -6.90616e-11 5e-05 1.46608e-10 
99 1 0.0733099 0.016737 0.00759833 0.00553158 -4.1218e-05 2.75702e-05 -1.56272e-11 2.6959e-10 -2.21627e-10 5e-05 1.46608e-10 
100 1 0.0798068 0.0178634 0.00698776 0.00629777 0.000225659 0.000296316 -2.63253e-10 7.74262e-11 -4.3871e-11 5e-05 1.46608e-10 
101 1 0.0732678 0.0162337 0.008016 0.0057399 2.65116e-05 -3.41827e-05 1.58009e-10 3.26165e-13 -7.34378e-12 5e-05 1.46608e-10 
102 1 0.0694385 0.0202053 0.00537268 3.96868e-15 4.46026e-15 -7.68267e-14 7.18277e-22 -1.43566e-21 -3.97047e-23 5e-05 1.46608e-10 
104 1 0.0733669 0.0166112 0.00770265 0.00547125 -8.94143e-05 6.42751e-05 -3.41566e-10 3.16119e-10 -2.55306e-10 5e-05 1.46608e-10 
105 1 0.0731071 0.0159837 0.00822375 0.00604555 -9.54757e-05 7.26363e-05 7.08898e-11 -1.11704e-10 9.36501e-11 5e-05 1.46608e-10 
106 1 0.0734607 0.0169891 0.00738888 0.00555045 -2.7207e-05 1.13687e-05 2.26812e-10 2.44107e-10 -1.98175e-10 5e-05 1.46608e-10 
107 1 0.0730645 0.0158343 0.00834967 0.00608003 -0.000181941 -1.93759e-05 -7.76287e-13 -1.70956e-10 -1.55881e-10 5e-05 1.46608e-10 
108 1 0.0792956 0.0166857 0.0076677 0.00557777 0.000179366 -7.23635e-05 6.44513e-12 7.68894e-11 -1.87882e-11 5e-05 1.46608e-10 
109 1 0.0794791 0.0174705 0.00715553 0.00569448 0.00028879 0.000226089 -1.30043e-10 -2.02921e-10 -1.25429e-10 5e-05 1.46608e-10 
110 1 0.0795605 0.0178396 0.00698333 0.00566228 -2.34966e-05 0.000375485 2.9027e-11 7.43272e-11 2.01148e-11 5e-05 1.46608e-10 
111 1 0.079759 0.0183701 0.00709193 0.00606737 0.000245902 -0.000489756 -1.23842e-10 -9.34755e-11 -3.43714e-11 5e-05 1.46608e-10 
112 1 0.0731714 0.0162091 0.00803658 0.0057579 -6.93156e-05 4.85148e-05 -5.91185e-11 -2.27269e-10 8.1285e-11 5e-05 1.46608e-10 
113 1 0.0734828 0.0167148 0.00761643 0.00554079 -6.09211e-05 4.10073e-05 2.38545e-10 9.56229e-11 -7.06572e-11 5e-05 1.46608e-10 
115 1 0.0794982 0.017568 0.00714447 0.00563144 0.000276322 0.000180805 3.73196e-10 -4.19215e-10 2.33913e-10 5e-05 1.46608e-10 
116 1 0.0795257 0.0167845 0.00753932 0.00553552 0.000183684 -9.04111e-05 -1.1036e-10 1.03576e-10 -3.51589e-11 5e-05 1.46608e-10 
117 1 0.079373 0.0166165 0.00763573 0.00564985 0.00016979 -8.12907e-05 3.09576e-11 9.76286e-12 -5.62702e-12 5e-05 1.46608e-10 
118 1 0.0730006 0.0155973 0.00852215 0.00617938 -0.000330051 -0.00018598 -2.48048e-12 6.69005e-11 -6.52705e-11 5e-05 1.46608e-10 
119 1 0.0797455 0.0174122 0.00720072 0.00570734 0.0003371 0.000207831 1.66345e-10 8.55317e-11 -6.89896e-11 5e-05 1.46608e-10 
120 1 0.0791362 0.0159946 0.00799343 0.00583747 0.000148347 -6.81519e-05 -1.12866e-11 -4.62689e-11 2.97843e-11 5e-05 1.46608e-10 
121 1 0.0792315 0.0160219 0.00797793 0.00584428 0.000139635 -6.35794e-05 -1.09953e-10 -9.77341e-11 5.61468e-11 5e-05 1.46608e-10 
122 1 0.0797311 0.0179205 0.00701958 0.00631828 0.000293474 0.000234168 -7.22397e-11 7.54636e-11 -3.21886e-11 5e-05 1.46608e-10 
123 1 0.0731286 0.0160588 0.00816136 0.00601407 -9.72869e-05 7.01552e-05 -1.51916e-11 -1.49617e-10 1.40924e-10 5e-05 1.46608e-10 
124 1 0.0795573 0.0178562 0.0071084 0.0060712 0.00017668 2.8505e-05 5.83531e-11 1.44171e-10 1.50369e-10 5e-05 1.46608e-10 
125 1 0.0792521 0.0161067 0.00792911 0.00584516 0.000135699 -6.12098e-05 -3.34773e-11 -9.02258e-11 4.85077e-11 5e-05 1.46608e-10 
126 1 0.0794398 0.0172949 0.00724495 0.00566 0.000162712 -8.29542e-05 -2.56425e-11 3.83598e-11 -6.81342e-11 5e-05 1.46608e-10 
127 1 0.0736394 0.0172202 0.007306 0.00558016 -3.30185e-05 -2.25642e-05 2.38337e-10 -3.6935e-10 -3.41987e-10 5e-05 1.46608e-10 
128 1 0.0796773 0.017647 0.00708344 0.00559778 0.000458235 0.000139291 -6.1814e-11 1.52293e-11 -1.74473e-11 5e-05 1.46608e-10 
129 1 0.0796516 0.0179808 0.00702659 0.00616727 0.000127438 0.000133975 2.41821e-10 6.23377e-10 -1.44968e-10 5e-05 1.46608e-10 
131 1 0.0733856 0.0166867 0.00763991 0.00554259 -7.74642e-05 5.41686e-05 -2.21452e-10 3.01925e-10 -2.39991e-10 5e-05 1.46608e-10 
132 1 0.0796992 0.0177356 0.00704242 0.00604342 0.000379964 0.000216649 5.84926e-11 4.38928e-11 -1.20308e-12 5e-05 1.46608e-10 
133 1 0.0793335 0.0164463 0.00773367 0.00566289 0.000171751 -8.25013e-05 1.13666e-10 4.90118e-11 -2.88916e-11 5e-05 1.46608e-10 
134 1 0.0798192 0.0172661 0.00727572 0.00566838 0.000241525 0.000249699 1.8189e-10 8.53598e-12 -2.53968e-11 5e-05 1.46608e-10 
135 1 0.0794494 0.0165553 0.00767116 0.00564913 0.000165169 -7.87747e-05 1.17031e-10 -2.68907e-12 -1.81126e-15 5e-05 1.46608e-10 
136 1 0.0730221 0.0156757 0.00846393 0.00616509 -0.000371797 -0.000251367 -6.88639e-11 -2.15862e-11 -1.58318e-10 5e-05 1.46608e-10 
137 1 0.0797062 0.0185271 0.00713504 0.00601791 0.00022425 -0.000488873 -2.49595e-11 -1.07724e-10 -4.40484e-11 5e-05 1.46608e-10 
138 1 0.0798125 0.0182035 0.00704644 0.0060883 0.000238984 -0.000499307 2.26818e-10 7.58626e-11 -4.53006e-11 5e-05 1.46608e-10 
140 1 0.0795738 0.0175027 0.00714617 0.00562759 0.000307834 0.000215868 3.62085e-10 5.53571e-11 -2.15981e-10 5e-05 1.46608e-10 
141 1 0.0732031 0.0160074 0.00820385 0.00603516 -7.52626e-05 5.16746e-05 7.80017e-11 -1.56464e-10 1.22829e-10 5e-05 1.46608e-10 
142 1 0.0733086 0.0163846 0.00789073 0.00545394 -8.6682e-05 6.02316e-05 -1.38814e-10 -2.33444e-10 1.6654e-10 5e-05 1.46608e-10 
143 1 0.0730857 0.0159085 0.00828613 0.00606544 -9.88429e-05 7.17693e-05 -3.22464e-11 -7.10633e-11 4.53331e-11 5e-05 1.46608e-10 
146 1 0.0733875 0.0163372 0.00792992 0.00550427 -6.57691e-05 4.59536e-05 1.42186e-10 -2.72037e-10 2.51687e-10 5e-05 1.46608e-10 
147 1 0.0729804 0.0155191 0.00858108 0.006205 -0.00033568 -0.000181548 6.11236e-11 4.90686e-11 -1.1787e-10 5e-05 1.46608e-10 
148 1 0.00865979 0.0176327 0.00788326 -0.00115642 0.0218963 -0.00794981 3.87587e-11 -1.45884e-10 -1.2828e-11 5e-05 1.46608e-10 
149 1 0.0796005 0.0180491 0.00707882 0.00610274 0.000171779 5.16083e-05 5.664e-11 1.50258e-11 3.86077e-10 5e-05 1.46608e-10 
150 1 0.0732884 0.0163092 0.00795329 0.00544596 -9.46622e-05 6.80971e-05 6.96167e-11 -3.17162e-10 2.76449e-10 5e-05 1.46608e-10 
151 1 0.0737229 0.0169282 0.00743896 0.00560355 -3.00272e-05 1.41534e-05 1.36742e-10 -1.19271e-10 1.14027e-10 5e-05 1.46608e-10 
153 1 0.0733673 0.0162618 0.00799247 0.00556739 -6.55532e-05 4.15736e-05 2.6254e-10 -5.39403e-10 4.20226e-10 5e-05 1.46608e-10 
154 1 0.0734993 0.0171508 0.00727066 0.00566839 -1.27566e-05 -2.59182e-06 -6.25816e-11 -1.01642e-10 1.10776e-10 5e-05 1.46608e-10 
155 1 0.067569 0.0174888 0.00710213 0.00554048 -0.000533252 0.000223436 1.58833e-11 3.59557e-11 2.1967e-11 5e-05 1.46608e-10 
156 1 0.0733847 0.0170398 0.00734788 0.00557149 -1.11595e-05 -3.73184e-05 -9.57319e-11 1.05253e-10 2.05657e-10 5e-05 1.46608e-10 
157 1 0.0735644 0.0174387 0.00722903 0.00578842 -0.000224158 -2.39007e-05 7.22095e-10 3.44651e-10 -2.0913e-10 5e-05 1.46608e-10 
158 1 0.0736053 0.0168248 0.00752491 0.00547131 -7.73482e-05 5.33378e-05 -1.50264e-10 1.96955e-10 -1.70322e-10 5e-05 1.46608e-10 
159 1 0.0798027 0.0177772 0.0070382 0.00615034 0.000223187 0.000288523 9.56523e-11 5.70502e-11 -3.25313e-11 5e-05 1.46608e-10 
160 1 0.0734578 0.0173874 0.00722746 0.00571011 -3.61482e-05 8.54798e-06 4.83689e-10 5.26004e-10 -4.21395e-11 5e-05 1.46608e-10 
162 1 0.0734231 0.016838 0.00751434 0.00552109 -4.02903e-05 2.33969e-05 5.646e-10 2.33939e-10 -1.87772e-10 5e-05 1.46608e-10 
163 1 0.0736241 0.0169004 0.00746218 0.00550811 -7.39426e-05 5.05695e-05 3.98578e-11 2.45407e-10 -1.91824e-10 5e-05 1.46608e-10 
164 1 0.0737565 0.017503 0.0072311 0.00579395 -2.3042e-05 9.01977e-06 1.61692e-10 2.36236e-10 3.80991e-11 5e-05 1.46608e-10 
165 1 0.073549 0.0165981 0.00771312 0.00552757 -9.47349e-05 6.72631e-05 -1.08085e-10 -1.08373e-10 9.09527e-11 5e-05 1.46608e-10 
166 1 0.0790813 0.0158017 0.00820691 0.00614436 2.05427e-05 -9.84577e-05 -3.32779e-11 -3.85845e-11 3.89334e-11 5e-05 1.46608e-10 
167 1 0.0734068 0.0164127 0.00786726 0.00551326 -7.52905e-05 5.20134e-05 2.04088e-10 -1.88095e-10 1.27211e-10 5e-05 1.46608e-10 
168 1 0.0735209 0.0172488 0.00726748 0.00568522 6.88685e-05 -3.3189e-05 -3.00789e-10 1.12408e-11 -2.13819e-10 5e-05 1.46608e-10 
169 1 0.073659 0.0170519 0.00733645 0.00562199 -6.58621e-05 4.46745e-05 3.37631e-10 7.70996e-11 -1.23736e-10 5e-05 1.46608e-10 
170 1 0.0735844 0.0171821 0.00722857 0.00567131 -7.28783e-06 3.13691e-06 -3.83599e-10 -3.64175e-10 -2.73857e-11 5e-05 1.46608e-10 
171 1 0.0794692 0.0166403 0.00762227 0.00565712 0.000163176 -7.7569e-05 -1.54844e-12 2.77091e-11 -1.38813e-11 5e-05 1.46608e-10 
172 1 0.0737752 0.0171553 0.00725038 0.00563972 -7.73639e-05 5.26475e-05 3.26808e-10 4.4508e-10 -3.2204e-10 5e-05 1.46608e-10 
173 1 0.0797135 0.0172285 0.00728698 0.00568639 0.000277071 0.000232238 -8.45083e-11 3.28735e-11 2.28161e-11 5e-05 1.46608e-10 
174 1 0.0734761 0.0174857 0.00723012 0.00581517 -3.39562e-05 -2.58612e-06 -2.59578e-10 1.06949e-09 -1.94753e-11 5e-05 1.46608e-10 
175 1 0.070368 0.017204 0.00721566 0.00568671 -0.000314314 0.00022975 1.34822e-10 -4.36046e-10 -2.79741e-10 5e-05 1.46608e-10 
176 1 0.0733661 0.0169639 0.00741026 0.00554915 -1.57447e-05 -3.74883e-05 -2.82321e-11 1.803e-10 1.45887e-10 5e-05 1.46608e-10 
177 1 0.0738736 0.017629 0.00723468 0.00588188 -0.000126101 7.53938e-06 -7.13281e-11 5.27513e-11 -2.4508e-13 5e-05 1.46608e-10 
178 1 0.0737517 0.0170805 0.00731248 0.00564403 -8.84238e-05 6.78723e-05 1.16688e-10 5.36429e-10 -4.05402e-10 5e-05 1.46608e-10 
179 1 0.0674615 0.0173959 0.00720399 0.00553122 -0.000522036 0.000214864 -1.56888e-11 -4.24963e-11 1.02384e-11 5e-05 1.46608e-10 
180 1 0.0735395 0.0169415 0.00742827 0.00553936 -3.62782e-05 2.04929e-05 8.96014e-11 2.61718e-10 -2.0451e-10 5e-05 1.46608e-10 
181 1 0.0735744 0.0170929 0.00730253 0.00565079 -3.38423e-05 1.13642e-05 3.00962e-10 -3.30115e-11 -3.5765e-11 5e-05 1.46608e-10 
182 1 0.0796308 0.0168881 0.00747994 0.00554706 0.000145337 -6.72256e-05 -1.20693e-10 7.55889e-11 -3.64368e-11 5e-05 1.46608e-10 
183 1 0.0736627 0.0171289 0.00727255 0.00567519 -2.88139e-05 1.25262e-05 2.8159e-10 -4.97685e-11 -9.30227e-12 5e-05 1.46608e-10 
184 1 0.0797391 0.0182716 0.0070697 0.00606523 0.000195701 -0.000501245 -7.5479e-11 -1.90273e-10 -4.46694e-14 5e-05 1.46608e-10 
185 1 0.0734048 0.0171147 0.00728479 0.00563023 -4.07532e-06 -1.07482e-05 -6.68447e-11 -1.76254e-10 9.15603e-11 5e-05 1.46608e-10 
186 1 0.073442 0.0169135 0.00745163 0.00550307 -3.16096e-05 1.51364e-05 2.45376e-10 2.8267e-10 -2.46643e-10 5e-05 1.46608e-10 
187 1 0.0796506 0.016973 0.00743104 0.00557693 0.000136852 -6.37029e-05 -7.17072e-11 3.58589e-11 -1.72677e-11 5e-05 1.46608e-10 
188 1 0.0797618 0.0180146 0.00700491 0.0060453 0.000234034 -0.000508091 1.80813e-10 -4.18003e-10 -3.41189e-10 5e-05 1.46608e-10 
189 1 0.0793533 0.0165312 0.00768478 0.00565025 0.000171036 -8.22771e-05 1.04746e-10 4.61239e-11 -2.4379e-11 5e-05 1.46608e-10 
190 1 0.0738949 0.0177277 0.00723736 0.00577385 -2.60555e-05 9.81102e-06 2.72135e-10 2.70486e-10 4.33949e-12 5e-05 1.46608e-10 
191 1 0.0797271 0.0186226 0.00715643 0.00598044 0.000237099 -0.000482097 -1.59806e-11 -1.02552e-10 -2.55696e-12 5e-05 1.46608e-10 
192 1 0.0734806 0.0170645 0.00732629 0.00560656 -2.67922e-05 8.00324e-06 1.62128e-10 1.33335e-10 -9.33315e-11 5e-05 1.46608e-10 
193 1 0.0799402 0.017499 0.00717157 0.00571453 0.000215835 0.000264594 9.06086e-11 -5.60809e-11 2.66454e-11 5e-05 1.46608e-10 
194 1 0.073328 0.0164601 0.00782807 0.00549713 -7.75847e-05 5.19401e-05 1.45355e-10 -1.51123e-10 1.13653e-10 5e-05 1.46608e-10 
195 1 0.0736204 0.0172753 0.00722475 0.00577972 -5.24943e-05 -7.15508e-05 -2.89844e-10 -7.28169e-10 3.17493e-10 5e-05 1.46608e-10 
196 1 0.0728716 0.0151944 0.00893944 0.00622605 0.000113258 0.000192578 3.36008e-11 1.22567e-10 -2.03366e-10 5e-05 1.46608e-10 
197 1 0.0734955 0.0175837 0.0072328 0.00591144 2.75592e-06 -3.46201e-05 -7.56074e-10 5.74163e-10 -7.80119e-10 5e-05 1.46608e-10 
198 1 0.0733283 0.0168129 0.00753582 0.00549131 -9.50094e-06 7.39012e-06 -7.97152e-11 1.00258e-10 -1.91287e-10 5e-05 1.46608e-10 
199 1 0.0734399 0.0172891 0.00722479 0.00561387 -1.3718e-05 9.83482e-06 -1.7518e-10 -1.02568e-10 3.43098e-11 5e-05 1.46608e-10 
200 1 0.0733472 0.0165356 0.00776539 0.00551903 -7.05007e-05 4.79691e-05 6.98561e-11 -1.05441e-10 3.32836e-11 5e-05 1.46608e-10 
201 1 0.0737674 0.0179594 0.00724334 0.00587658 1.74183e-06 1.16596e-05 1.67311e-11 -1.84672e-10 -1.42448e-11 5e-05 1.46608e-10 
203 1 0.0798547 0.0175433 0.00714473 0.00571605 0.000219269 0.000263375 3.20432e-11 -1.15682e-10 7.24456e-11 5e-05 1.46608e-10 
204 1 0.0734644 0.0166392 0.00767921 0.00554833 -6.74999e-05 4.48217e-05 1.1833e-10 -1.15735e-11 -1.06801e-11 5e-05 1.46608e-10 
205 1 0.0735171 0.0176813 0.00723544 0.00591648 -4.42149e-05 -3.80795e-06 -1.90356e-10 1.37864e-09 -7.18235e-10 5e-05 1.46608e-10 
206 1 0.0735458 0.0173408 0.0072369 0.00562554 -0.000214753 -0.000201935 -1.84219e-10 -4.23783e-10 2.59076e-10 5e-05 1.46608e-10 
207 1 0.0733468 0.0161865 0.008055 0.00565725 -6.25899e-05 4.20579e-05 -2.87684e-10 -6.79622e-10 5.77169e-10 5e-05 1.46608e-10 
208 1 0.0734216 0.0171908 0.00722213 0.00565653 -4.95335e-06 6.01421e-06 -2.56756e-10 -4.60771e-10 7.22939e-11 5e-05 1.46608e-10 
209 1 0.0674836 0.0174828 0.00715971 0.00554313 -0.000518881 0.000221878 -1.95616e-11 -3.18609e-11 8.07671e-12 5e-05 1.46608e-10 
210 1 0.0791011 0.015855 0.00812463 0.00592453 5.84298e-05 -0.000124327 1.43096e-11 -3.54556e-11 4.89588e-11 5e-05 1.46608e-10 
211 1 0.0797162 0.0181765 0.00704855 0.00610866 0.000204616 -0.000493909 3.71956e-11 -2.0436e-10 -2.7213e-10 5e-05 1.46608e-10 
212 1 0.0737377 0.0170044 0.00737572 0.0055466 -9.7407e-05 6.97491e-05 -1.964e-10 3.27001e-10 -3.18735e-10 5e-05 1.46608e-10 
213 1 0.0798324 0.0173637 0.00722967 0.00570604 0.000226328 0.000261658 1.84023e-10 -1.75612e-10 8.59985e-11 5e-05 1.46608e-10 
214 1 0.0795803 0.0179518 0.00709042 0.00611366 0.000167967 7.66434e-05 1.65889e-10 3.05459e-11 -3.03931e-10 5e-05 1.46608e-10 
215 1 0.0735206 0.0168659 0.00749099 0.0055035 -4.06943e-05 2.27062e-05 8.0997e-11 2.52102e-10 -2.03093e-10 5e-05 1.46608e-10 
216 1 0.0735864 0.0167493 0.00758763 0.00548516 -8.63897e-05 6.08835e-05 -2.88202e-11 4.31808e-11 -3.9131e-11 5e-05 1.46608e-10 
217 1 0.0795427 0.0166992 0.00758856 0.00562113 0.000198315 -9.79124e-05 -1.0898e-10 9.42508e-11 -6.14602e-11 5e-05 1.46608e-10 
218 1 0.0736601 0.0174712 0.00723007 0.00590715 -5.70538e-05 1.09544e-05 8.72255e-11 -8.19701e-10 3.60381e-12 5e-05 1.46608e-10 
219 1 0.0796436 0.018242 0.0070711 0.00608846 0.000157972 -0.000509089 -3.16209e-10 -4.53716e-11 -4.57369e-10 5e-05 1.46608e-10 
220 1 0.0735017 0.0167904 0.00755371 0.00552187 -4.93633e-05 2.99201e-05 2.45641e-10 1.88317e-10 -1.44796e-10 5e-05 1.46608e-10 
221 1 0.067333 0.0168476 0.0075515 0.00536454 -0.000469333 0.000176766 4.96061e-12 -4.82816e-11 6.88957e-11 5e-05 1.46608e-10 
222 1 0.0792783 0.0165886 0.00765151 0.00564249 0.000171532 -8.27192e-05 2.69693e-11 6.72609e-11 -3.20483e-11 5e-05 1.46608e-10 
223 1 0.0735592 0.0170169 0.00736566 0.0055993 -3.79055e-05 1.95516e-05 2.17058e-10 1.47942e-10 -1.32917e-10 5e-05 1.46608e-10 
224 1 0.0733471 0.0168882 0.00747283 0.0055074 -2.36691e-06 -1.11637e-05 -3.6517e-11 1.03185e-10 -7.96184e-11 5e-05 1.46608e-10 
225 1 0.0797633 0.0175048 0.00715735 0.00568098 0.000327003 0.000212102 8.06938e-11 -1.7199e-11 2.98616e-11 5e-05 1.46608e-10 
226 1 0.0735675 0.0166737 0.00765035 0.00552727 -8.87707e-05 6.33372e-05 7.12133e-11 -7.78718e-11 6.52302e-11 5e-05 1.46608e-10 
227 1 0.0673891 0.0170818 0.00738557 0.00544375 -0.000506489 0.000195978 4.235e-11 -6.93331e-11 -4.40294e-11 5e-05 1.46608e-10 
228 1 0.0507861 0.0189683 0.00558458 -5.35261e-15 -1.91036e-14 -2.87013e-13 6.87271e-23 -8.13868e-23 4.54949e-24 5e-05 1.46608e-10 
229 1 0.07316 0.0158529 0.00832324 0.00607641 -0.000283819 -0.000210431 -8.40271e-11 -1.27344e-10 1.02552e-10 5e-05 1.46608e-10 
230 1 0.0735604 0.0178765 0.00724074 0.0058628 -8.16108e-05 1.00086e-05 1.57339e-11 8.29579e-11 1.33565e-11 5e-05 1.46608e-10 
231 1 0.197479 0.018695 0.00523156 -1.10148e-15 -2.69836e-14 1.45243e-13 1.6588e-22 -4.96308e-24 -4.1359e-25 5e-05 1.46608e-10 
232 1 0.0731816 0.0159308 0.00826443 0.00606386 -0.000284175 -0.000208935 3.32217e-11 -1.43627e-10 1.08367e-10 5e-05 1.46608e-10 
233 1 0.0734456 0.0165636 0.00774194 0.00553498 -7.31921e-05 5.04273e-05 1.77185e-11 -1.82203e-12 4.07656e-11 5e-05 1.46608e-10 
234 1 0.0790393 0.0156968 0.00837196 0.00625094 9.18663e-06 -8.38463e-05 -1.09604e-11 2.57537e-11 -3.43046e-11 5e-05 1.46608e-10 
235 1 0.0737382 0.0182261 0.00725043 0.00581603 -4.81849e-05 8.46771e-06 -1.50784e-10 8.04145e-14 1.05203e-11 5e-05 1.46608e-10 
236 1 0.0737869 0.0180574 0.007246 0.00583576 -2.20027e-06 1.0873e-05 -1.18804e-10 -1.87118e-10 1.29004e-11 5e-05 1.46608e-10 
237 1 0.0736922 0.0180252 0.00724497 0.00584281 -2.89038e-05 1.2399e-05 -4.41956e-11 -2.17255e-10 -2.64979e-11 5e-05 1.46608e-10 
238 1 0.0674991 0.0175603 0.00709844 0.00556194 -0.000515315 0.000225302 -2.10739e-11 -4.92202e-12 8.18628e-12 5e-05 1.46608e-10 
239 1 0.0672355 0.0164475 0.00783502 0.00562807 -0.000489061 0.000183949 5.73985e-11 -4.52716e-11 2.92677e-11 5e-05 1.46608e-10 
240 1 0.0673134 0.0167676 0.0076082 0.00533665 -0.000458779 0.000170325 -3.41515e-11 -5.99508e-11 2.04764e-11 5e-05 1.46608e-10 
241 1 0.0672556 0.0165274 0.00777837 0.00548181 -0.000465707 0.000171586 4.48179e-10 -1.13259e-10 6.25247e-11 5e-05 1.46608e-10 
242 1 0.0675473 0.0174059 0.00715364 0.0055296 -0.000530113 0.000215771 -3.05634e-11 -8.36912e-12 -2.70567e-12 5e-05 1.46608e-10 
243 1 0.067215 0.0163676 0.00789164 0.00562159 -0.000481232 0.000178394 -5.64653e-11 -9.60267e-11 6.94068e-11 5e-05 1.46608e-10 
244 1 0.067275 0.0166074 0.00772166 0.00544016 -0.000463062 0.000170624 -3.00236e-11 -4.5589e-11 3.85745e-11 5e-05 1.46608e-10 
245 1 0.067518 0.0176584 0.00709787 0.00563134 -0.000517966 0.000227805 -1.36641e-10 1.68824e-11 -2.10041e-12 5e-05 1.46608e-10 
246 1 0.0673779 0.0169201 0.00749932 0.00541016 -0.000495078 0.000192235 -3.30767e-11 -8.35386e-11 1.14275e-11 5e-05 1.46608e-10 
247 1 0.0736956 0.0172094 0.00722312 0.00568506 -1.85277e-05 8.44204e-06 -9.37446e-12 1.72892e-10 -1.68879e-11 5e-05 1.46608e-10 