ITEM: TIMESTEP
14600000
ITEM: NUMBER OF ATOMS
284
ITEM: BOX BOUNDS ff ff ff
-0.02 0.43
-0.02 0.06
-0.02 0.07
ITEM: ATOMS id type x y z vx vy vz fx fy fz radius mass 
1 1 0.0979559 0.0163344 0.0078871 0.00611561 -3.04693e-05 4.80097e-05 -6.05508e-11 4.94663e-11 -4.15955e-11 5e-05 1.46608e-10 
2 1 0.0983642 0.0172498 0.0072242 0.00559267 0.000113131 -3.71096e-05 2.39749e-11 -3.53985e-11 1.53283e-11 5e-05 1.46608e-10 
3 1 0.0919169 0.0161671 0.00796894 0.00628611 0.000524653 -8.16629e-05 -8.23039e-11 -1.09767e-10 5.63434e-11 5e-05 1.46608e-10 
4 1 0.0983474 0.0175997 0.00713785 0.00561827 0.000144509 -4.42667e-05 -5.17837e-11 8.57978e-11 -6.72345e-11 5e-05 1.46608e-10 
5 1 0.0978604 0.0163113 0.00790647 0.00611741 -3.55172e-05 5.22562e-05 1.33171e-11 1.06234e-10 -9.3614e-11 5e-05 1.46608e-10 
6 1 0.104018 0.0169296 0.00751125 0.00577064 0.000303442 4.67471e-05 1.0419e-10 1.78005e-10 -9.86898e-11 5e-05 1.46608e-10 
7 1 0.0979636 0.0166838 0.00758943 0.00568727 7.16398e-05 -4.18775e-05 2.48623e-10 -8.87789e-11 9.64761e-11 5e-05 1.46608e-10 
8 1 0.0978689 0.016037 0.00814022 0.00610073 -5.60822e-05 6.97983e-05 -1.36505e-10 -1.14829e-11 9.08873e-12 5e-05 1.46608e-10 
9 1 0.104246 0.0179577 0.00698157 0.00569508 0.00022408 -0.000210606 -1.49576e-10 2.51141e-12 -3.99748e-11 5e-05 1.46608e-10 
10 1 0.0979827 0.0167586 0.00752583 0.00576342 6.29991e-05 -3.32559e-05 1.53815e-10 -1.36181e-10 1.38845e-10 5e-05 1.46608e-10 
11 1 0.0980969 0.0168574 0.00744206 0.00582604 6.62377e-05 -3.77916e-05 -3.5319e-10 -2.41899e-11 -1.21489e-10 5e-05 1.46608e-10 
12 1 0.0981728 0.0171861 0.00724021 0.0057349 8.83082e-05 -2.86759e-05 8.79207e-11 1.05376e-10 1.37365e-11 5e-05 1.46608e-10 
13 1 0.0981722 0.0176056 0.00722766 0.00558281 0.000103216 -3.98728e-05 -1.05763e-11 -3.28175e-11 -3.0403e-11 5e-05 1.46608e-10 
14 1 0.0916118 0.0154971 0.00867795 0.00619963 0.000179466 -0.000712322 -4.32078e-10 1.84783e-10 -3.30608e-10 5e-05 1.46608e-10 
15 1 0.0980765 0.0171539 0.00724831 0.0057288 0.000105691 -3.55294e-05 5.50519e-11 5.57754e-11 -2.87894e-12 5e-05 1.46608e-10 
16 1 0.0915912 0.0154483 0.00876273 0.0061229 0.000183928 -0.000724811 -3.88639e-10 4.05258e-11 -1.53136e-10 5e-05 1.46608e-10 
17 1 0.0982893 0.0175558 0.00723793 0.00558247 0.000147648 -3.89416e-05 -7.51086e-11 2.7824e-11 -8.62661e-11 5e-05 1.46608e-10 
18 1 0.104149 0.0174837 0.00710394 0.00567679 0.000315443 2.96846e-05 3.10765e-11 -1.08363e-10 7.71181e-11 5e-05 1.46608e-10 
19 1 0.0978169 0.0161626 0.00803298 0.00611502 -4.79314e-05 6.28732e-05 7.17244e-12 3.52365e-11 -3.02638e-11 5e-05 1.46608e-10 
20 1 0.0982912 0.0174608 0.00726883 0.00558445 0.00014536 -3.89096e-05 -5.8969e-11 9.48723e-11 7.00275e-11 5e-05 1.46608e-10 
21 1 0.0978386 0.016237 0.00796972 0.00611728 -4.32371e-05 5.89467e-05 2.06805e-11 6.71611e-11 -5.63498e-11 5e-05 1.46608e-10 
22 1 0.0981338 0.0170071 0.00731474 0.00560556 0.000106877 -4.31459e-05 4.98696e-11 -1.53464e-10 -2.36773e-10 5e-05 1.46608e-10 
23 1 0.0919688 0.0167238 0.00762708 0.00584434 0.000610709 -0.000151723 3.26441e-10 2.42023e-11 -1.30413e-11 5e-05 1.46608e-10 
24 1 0.104226 0.0178621 0.00700329 0.00568681 0.000221332 -0.000205558 -1.20168e-11 4.38095e-11 -5.93024e-11 5e-05 1.46608e-10 
25 1 0.0980585 0.0167079 0.00756928 0.00573446 8.80411e-05 -5.43765e-05 -1.35695e-10 7.84387e-11 -8.98002e-11 5e-05 1.46608e-10 
26 1 0.104094 0.017246 0.00727872 0.00570498 0.000334913 2.01815e-05 -4.30374e-10 -8.97338e-11 4.50197e-11 5e-05 1.46608e-10 
27 1 0.0918854 0.0163895 0.00783032 0.00624358 0.000532218 -8.78643e-05 -2.89728e-11 -1.11362e-10 6.18512e-11 5e-05 1.46608e-10 
28 1 0.0981738 0.0173541 0.00728264 0.0055608 0.000101057 -3.58303e-05 3.82176e-11 -4.76694e-11 -2.38864e-11 5e-05 1.46608e-10 
29 1 0.0979778 0.0164088 0.00782378 0.00611711 -2.87085e-05 4.65726e-05 -5.44412e-11 8.63515e-11 -7.41159e-11 5e-05 1.46608e-10 
30 1 0.098328 0.0175044 0.00716139 0.0055828 0.00014553 -4.33926e-05 -3.39242e-11 7.76809e-11 -4.52107e-11 5e-05 1.46608e-10 
31 1 0.0980565 0.0170588 0.00727181 0.00572937 0.000102051 -3.53272e-05 1.0047e-11 -1.12125e-11 1.47188e-11 5e-05 1.46608e-10 
32 1 0.0981157 0.0169322 0.00737841 0.00559789 9.40359e-05 -6.02073e-05 1.9383e-10 -7.06835e-11 -1.56764e-11 5e-05 1.46608e-10 
33 1 0.104038 0.0170086 0.0074532 0.0058079 0.000307631 4.4723e-05 6.93547e-11 1.37855e-10 -8.00515e-11 5e-05 1.46608e-10 
34 1 0.0979798 0.0167775 0.00762397 0.00574084 5.30696e-05 -3.35834e-05 -9.68353e-12 1.52528e-10 9.64809e-11 5e-05 1.46608e-10 
36 1 0.104265 0.0180533 0.00695986 0.00573682 0.000222246 -0.000214168 5.69669e-11 -3.73507e-12 1.5855e-10 5e-05 1.46608e-10 
37 1 0.098002 0.0168333 0.00746223 0.00583534 5.25169e-05 -2.28507e-05 -1.19357e-10 -1.93095e-10 1.4153e-10 5e-05 1.46608e-10 
38 1 0.0981527 0.017091 0.00726371 0.00570942 9.46718e-05 -2.60019e-05 1.16156e-10 -4.42314e-11 -1.66803e-10 5e-05 1.46608e-10 
39 1 0.104207 0.0177664 0.007025 0.00569348 0.000219172 -0.000204588 4.25943e-11 8.47239e-11 -2.35467e-11 5e-05 1.46608e-10 
41 1 0.0978821 0.0163856 0.00784321 0.00612181 -2.57309e-05 4.40985e-05 -7.77188e-12 1.18244e-10 -1.0207e-10 5e-05 1.46608e-10 
42 1 0.0980385 0.0169832 0.00733469 0.0056846 9.68191e-05 -5.86534e-05 1.16619e-11 -3.92744e-11 2.95177e-11 5e-05 1.46608e-10 
44 1 0.0982694 0.0172188 0.00723198 0.00560437 0.000117018 -3.6176e-05 7.19875e-11 2.58634e-11 -6.69835e-11 5e-05 1.46608e-10 
45 1 0.104076 0.0171668 0.00733694 0.00557451 0.000348558 9.71547e-07 3.52983e-10 -4.33481e-10 1.29264e-10 5e-05 1.46608e-10 
46 1 0.104131 0.0174044 0.00716229 0.00571155 0.000318993 3.23483e-05 1.51559e-10 -1.82277e-10 1.68527e-10 5e-05 1.46608e-10 
47 1 0.0979251 0.0165344 0.00771663 0.00570093 6.08255e-05 -3.14223e-05 -1.92038e-10 1.4275e-10 -1.23009e-10 5e-05 1.46608e-10 
48 1 0.0982499 0.0171286 0.00727037 0.00560338 0.000108605 -3.87388e-05 -7.40458e-11 1.30296e-10 -1.05854e-10 5e-05 1.46608e-10 
49 1 0.104112 0.0173252 0.00722048 0.00574787 0.000324044 3.09799e-05 -4.48442e-11 -1.16081e-10 1.48822e-10 5e-05 1.46608e-10 
50 1 0.0982124 0.0173766 0.00719313 0.00556747 0.000106945 -3.39515e-05 5.42698e-12 2.77542e-11 -1.127e-11 5e-05 1.46608e-10 
51 1 0.0983086 0.0174092 0.00718493 0.00558037 0.000139248 -4.14126e-05 1.97834e-11 3.22184e-11 1.01624e-11 5e-05 1.46608e-10 
52 1 0.0982503 0.0179994 0.00714785 0.00550849 0.000163426 -0.000125108 -1.28271e-11 1.68261e-10 1.5129e-10 5e-05 1.46608e-10 
53 1 0.104168 0.0175752 0.00706846 0.00568354 0.000224121 -0.000179476 1.71612e-10 2.14736e-10 7.70631e-10 5e-05 1.46608e-10 
54 1 0.0979341 0.01626 0.00795043 0.0061249 -2.99687e-05 4.76349e-05 -6.05781e-11 8.10083e-11 -6.92262e-11 5e-05 1.46608e-10 
55 1 0.0916532 0.0155948 0.00850843 0.00625154 0.000149012 -0.000670372 1.08529e-10 1.62628e-10 -2.07037e-10 5e-05 1.46608e-10 
56 1 0.0980206 0.0169082 0.00739846 0.00562237 0.000106412 -7.09333e-05 -7.54636e-12 -5.01813e-11 5.9052e-11 5e-05 1.46608e-10 
57 1 0.104057 0.0170876 0.00739516 0.00585402 0.000314848 4.42197e-05 -4.1836e-11 3.20433e-11 -6.592e-11 5e-05 1.46608e-10 
59 1 0.0981928 0.016881 0.00742225 0.00558743 8.77413e-05 -5.51428e-05 -2.39881e-10 7.17401e-11 -1.93212e-10 5e-05 1.46608e-10 
60 1 0.0982108 0.016956 0.00735849 0.00559414 9.71614e-05 -5.12877e-05 6.48877e-11 7.57832e-12 -2.32808e-10 5e-05 1.46608e-10 
61 1 0.0979038 0.01646 0.00777996 0.00613281 -1.68961e-05 3.69104e-05 1.47723e-11 1.13949e-10 -9.38926e-11 5e-05 1.46608e-10 
62 1 0.0984556 0.0178547 0.00716387 0.00561282 0.000125632 -4.4807e-05 -3.5673e-10 -3.51179e-11 1.73215e-10 5e-05 1.46608e-10 
63 1 0.0982287 0.0170358 0.00730098 0.00561117 0.000103 -3.88679e-05 2.59303e-11 1.49788e-10 -1.07567e-10 5e-05 1.46608e-10 
64 1 0.104187 0.0176708 0.00704671 0.00567985 0.000218027 -0.000204387 2.53983e-10 2.94786e-11 7.49382e-11 5e-05 1.46608e-10 
65 1 0.0919282 0.0165565 0.00772885 0.00608593 0.000552645 -0.000106649 3.03575e-11 2.17183e-12 2.73935e-12 5e-05 1.46608e-10 
66 1 0.092151 0.0173922 0.00730874 0.00563337 0.000457652 -0.000555038 -2.41727e-11 -2.57425e-10 3.44398e-10 5e-05 1.46608e-10 
67 1 0.0984033 0.0174405 0.00717707 0.00562611 0.000110844 -3.61257e-05 -2.41052e-10 1.46898e-10 -3.74886e-11 5e-05 1.46608e-10 
68 1 0.0981927 0.0172812 0.00721669 0.0055935 0.000115487 -3.82583e-05 1.14165e-10 6.50544e-11 -2.09938e-11 5e-05 1.46608e-10 
69 1 0.0980777 0.0167826 0.00750567 0.00580603 7.45436e-05 -4.59064e-05 2.69301e-11 4.42899e-11 1.09152e-11 5e-05 1.46608e-10 
70 1 0.0981918 0.0174539 0.00725947 0.0055629 0.000108909 -3.57241e-05 1.62002e-11 -3.53658e-11 1.03387e-12 5e-05 1.46608e-10 
71 1 0.0916323 0.015546 0.00859316 0.0062504 0.00016486 -0.000688567 1.55309e-10 3.41976e-10 -4.15695e-10 5e-05 1.46608e-10 
72 1 0.0983281 0.0177463 0.00719091 0.00566316 0.000155397 -4.59748e-05 -1.49354e-11 -7.60139e-11 -2.30115e-10 5e-05 1.46608e-10 
73 1 0.0983088 0.0176511 0.00721443 0.005637 0.000160359 -3.83183e-05 1.21466e-10 -1.6037e-12 -5.55137e-11 5e-05 1.46608e-10 
74 1 0.0983412 0.0180445 0.00702805 0.00562475 0.000134792 -4.50108e-05 -3.74389e-10 -2.1586e-10 -5.63166e-11 5e-05 1.46608e-10 
76 1 0.0925707 0.0182157 0.00692047 0.00579142 0.000626701 -0.000688355 1.03209e-10 -2.10052e-11 -7.073e-11 5e-05 1.46608e-10 
77 1 0.0982952 0.018213 0.00698654 0.00562663 0.00010587 -3.8465e-05 5.51171e-11 3.21946e-10 -1.52635e-10 5e-05 1.46608e-10 
78 1 0.0917362 0.0158116 0.00818615 0.00638876 0.000260619 -0.000520717 -2.30763e-10 4.40503e-11 6.47121e-11 5e-05 1.46608e-10 
79 1 0.0919886 0.0168075 0.00757613 0.00585042 0.00062112 -0.000158009 7.74268e-11 1.218e-10 -7.4391e-11 5e-05 1.46608e-10 
80 1 0.0981927 0.0177012 0.00720424 0.00557791 6.44507e-05 -3.37415e-05 -1.26331e-11 6.50013e-11 2.92545e-11 5e-05 1.46608e-10 
81 1 0.0919069 0.016473 0.00777959 0.00621804 0.000534861 -9.01995e-05 -3.00833e-11 -8.70932e-11 5.4147e-11 5e-05 1.46608e-10 
82 1 0.091949 0.0166401 0.00767804 0.00590726 0.000584479 -0.000133298 2.45211e-10 1.23027e-10 -6.94803e-11 5e-05 1.46608e-10 
83 1 0.0918425 0.0162226 0.00793176 0.00627751 0.000517577 -7.71615e-05 -3.44411e-11 -9.0066e-11 6.64094e-11 5e-05 1.46608e-10 
84 1 0.104285 0.01815 0.0069431 0.00573366 0.00036377 0.000540704 -5.53715e-11 -1.03023e-10 -2.3726e-11 5e-05 1.46608e-10 
85 1 0.0977735 0.0160139 0.00815949 0.0061109 -4.57409e-05 6.09937e-05 -7.18272e-12 3.26588e-11 -2.69514e-11 5e-05 1.46608e-10 
86 1 0.0982514 0.017567 0.00714606 0.00556544 9.687e-05 -3.41105e-05 -7.94184e-11 1.25674e-13 -2.01357e-11 5e-05 1.46608e-10 
87 1 0.0983439 0.0171541 0.00724784 0.00560775 0.000117817 -3.49153e-05 7.80343e-11 -3.75093e-11 -5.72212e-12 5e-05 1.46608e-10 
88 1 0.0984392 0.0180984 0.00705435 0.0056266 0.000108829 -2.91896e-05 -2.84205e-10 1.56337e-10 1.11713e-11 5e-05 1.46608e-10 
89 1 0.0982912 0.0177584 0.00709876 0.0056424 0.000128554 -4.03941e-05 -1.02978e-10 -1.47765e-10 -1.43886e-12 5e-05 1.46608e-10 
90 1 0.0984515 0.0177465 0.00710144 0.00563261 0.000180975 -5.3377e-05 1.36276e-10 -4.22849e-11 -2.44571e-11 5e-05 1.46608e-10 
91 1 0.0981166 0.0173442 0.00720128 0.00557319 0.000103147 -3.60517e-05 -1.01279e-12 -4.55464e-11 6.63379e-12 5e-05 1.46608e-10 
92 1 0.0984995 0.0179301 0.00705605 0.00562055 8.75063e-05 -2.76394e-05 -1.72745e-10 9.62718e-12 -3.83777e-11 5e-05 1.46608e-10 
93 1 0.0982515 0.018001 0.00703893 0.00562651 0.000121582 -3.9623e-05 -7.2611e-11 -4.35868e-10 1.03655e-11 5e-05 1.46608e-10 
94 1 0.0982709 0.0176622 0.00712253 0.00557462 9.07341e-05 -3.10465e-05 -1.06593e-11 -5.78638e-11 2.32072e-11 5e-05 1.46608e-10 
95 1 0.0981751 0.0176298 0.00713068 0.0055779 0.000110248 -3.64537e-05 -3.17205e-11 -3.83541e-12 -5.48473e-12 5e-05 1.46608e-10 
96 1 0.0982142 0.0178203 0.00708359 0.00561566 8.90334e-05 -2.7594e-05 -2.28457e-11 -5.18341e-11 1.13663e-11 5e-05 1.46608e-10 
97 1 0.0921043 0.0169201 0.00751104 0.00589522 0.000603311 -0.000144578 1.34241e-10 1.35452e-10 -7.64035e-11 5e-05 1.46608e-10 
98 1 0.0983854 0.0182516 0.00700572 0.00565807 1.15092e-05 -0.000112234 -6.46808e-11 2.47669e-10 -3.43795e-10 5e-05 1.46608e-10 
99 1 0.0920089 0.0168912 0.00752525 0.00588368 0.000618724 -0.00015556 -4.4623e-11 2.16422e-10 -1.34412e-10 5e-05 1.46608e-10 
100 1 0.0984301 0.018 0.00703889 0.00563047 0.000115852 -3.3692e-05 -9.32722e-11 8.58551e-11 -3.79986e-11 5e-05 1.46608e-10 
101 1 0.0919598 0.016334 0.00786749 0.00625512 0.00054666 -9.60735e-05 -7.48234e-11 -7.15111e-11 4.36977e-11 5e-05 1.46608e-10 
102 1 0.0694385 0.0202053 0.00537268 3.91542e-15 4.41517e-15 -7.68317e-14 -1.25507e-21 9.78206e-22 -3.10193e-24 5e-05 1.46608e-10 
104 1 0.0920638 0.0167528 0.00761285 0.00583776 0.00062099 -0.000158657 1.72843e-10 2.6147e-10 -1.39015e-10 5e-05 1.46608e-10 
105 1 0.0917998 0.0160557 0.00803324 0.00631127 0.00050478 -6.84057e-05 -8.93841e-11 -2.84906e-11 4.2905e-11 5e-05 1.46608e-10 
106 1 0.0921634 0.0171724 0.00735754 0.00558007 0.00069275 -0.000212447 1.32612e-10 3.78245e-11 -1.62942e-11 5e-05 1.46608e-10 
107 1 0.0917589 0.0159036 0.00815403 0.0063319 0.000389431 -0.000183988 7.42994e-11 -4.36893e-11 -1.83834e-11 5e-05 1.46608e-10 
108 1 0.0979598 0.0167028 0.00768756 0.00568934 6.00601e-05 -4.17556e-05 -1.00204e-10 8.06908e-11 7.79693e-11 5e-05 1.46608e-10 
109 1 0.0981361 0.0174394 0.00717774 0.00557268 0.000107075 -3.57113e-05 -9.70317e-12 -1.98581e-11 9.89822e-12 5e-05 1.46608e-10 
110 1 0.0981946 0.017725 0.00710714 0.00557239 8.00797e-05 -2.90802e-05 1.09069e-11 -1.98906e-11 6.56551e-12 5e-05 1.46608e-10 
111 1 0.0984168 0.0183481 0.00695298 0.00564875 7.9655e-05 -2.86924e-05 -5.90008e-11 -1.13318e-10 3.01115e-11 5e-05 1.46608e-10 
112 1 0.091864 0.0163061 0.00788104 0.00626031 0.000525437 -8.32611e-05 -6.43678e-11 -1.21705e-10 7.77027e-11 5e-05 1.46608e-10 
113 1 0.092181 0.016867 0.00754682 0.0058681 0.000573211 -0.000127502 6.39922e-11 -1.2847e-11 9.45076e-12 5e-05 1.46608e-10 
115 1 0.0981556 0.0175346 0.00715421 0.00557503 0.000109607 -3.58514e-05 -1.37059e-11 -7.51559e-12 6.96559e-12 5e-05 1.46608e-10 
116 1 0.098174 0.0168063 0.0074859 0.00561331 8.06476e-05 -4.77376e-05 -4.68529e-10 1.10402e-10 -1.15505e-10 5e-05 1.46608e-10 
117 1 0.0980392 0.0166332 0.00763286 0.00570787 8.79035e-05 -5.44615e-05 -1.14132e-10 1.20709e-10 -8.96062e-11 5e-05 1.46608e-10 
118 1 0.0916955 0.0156924 0.00833906 0.00635301 0.000138093 -0.000663175 9.25842e-11 -8.32383e-11 -4.02755e-11 5e-05 1.46608e-10 
119 1 0.0984227 0.0175357 0.00715353 0.00561992 0.000119518 -3.79081e-05 -7.42111e-11 1.44983e-10 -3.3108e-11 5e-05 1.46608e-10 
120 1 0.0977952 0.0160883 0.00809623 0.0061117 -4.84024e-05 6.33008e-05 -1.50246e-11 3.61507e-11 -3.15404e-11 5e-05 1.46608e-10 
121 1 0.0978906 0.0161113 0.00807696 0.00611165 -5.6307e-05 7.00543e-05 -3.25015e-11 -1.25602e-11 1.02119e-11 5e-05 1.46608e-10 
122 1 0.0983079 0.0178542 0.00707509 0.00559717 0.000126531 -3.40232e-05 1.06237e-10 -4.03351e-12 2.57323e-11 5e-05 1.46608e-10 
123 1 0.0918211 0.0161392 0.00798249 0.0062939 0.000510816 -7.20422e-05 -1.28689e-11 -5.98503e-11 4.00805e-11 5e-05 1.46608e-10 
124 1 0.0982817 0.0178321 0.00716904 0.00557819 0.000117728 -2.6228e-05 -1.25017e-11 -1.04504e-10 -9.5785e-11 5e-05 1.46608e-10 
125 1 0.0979124 0.0161857 0.0080137 0.00611506 -4.62699e-05 6.14955e-05 -5.84974e-11 3.63092e-11 -3.11593e-11 5e-05 1.46608e-10 
126 1 0.0980966 0.017249 0.00722479 0.0057276 7.64201e-05 -2.78267e-05 -1.8998e-11 -3.94812e-11 1.03974e-11 5e-05 1.46608e-10 
127 1 0.0923961 0.0176726 0.00711361 0.00585996 0.000374504 -0.000135419 -2.23238e-11 -1.00974e-10 4.54423e-11 5e-05 1.46608e-10 
128 1 0.0983669 0.0176949 0.00711432 0.00564499 0.000143326 -4.53332e-05 -5.53713e-12 3.04197e-11 -6.89517e-11 5e-05 1.46608e-10 
129 1 0.098233 0.0179183 0.00709196 0.00558655 0.000108742 -5.39245e-05 7.0965e-11 2.39703e-10 2.81937e-10 5e-05 1.46608e-10 
131 1 0.0920841 0.0168364 0.00756196 0.00587077 0.000599981 -0.000144017 -5.99967e-11 2.09303e-10 -1.41822e-10 5e-05 1.46608e-10 
132 1 0.0984054 0.0178327 0.00708024 0.00559867 0.000162746 -3.97271e-05 3.01323e-10 -1.32567e-10 1.04816e-11 5e-05 1.46608e-10 
133 1 0.0979992 0.0164834 0.00776031 0.00571472 7.14387e-05 -4.02389e-05 -2.28194e-10 2.16271e-10 -1.8528e-10 5e-05 1.46608e-10 
134 1 0.0985174 0.0175669 0.00714567 0.00561988 0.000133363 -4.13367e-05 -6.01451e-11 1.73931e-11 -3.01973e-12 5e-05 1.46608e-10 
135 1 0.0981151 0.0165823 0.00767653 0.00570853 6.06348e-05 -3.10287e-05 5.92543e-11 -1.81267e-10 1.59623e-10 5e-05 1.46608e-10 
136 1 0.0917155 0.0157413 0.00825417 0.00636954 0.000136261 -0.000665244 -7.83836e-11 7.01509e-11 -2.70653e-11 5e-05 1.46608e-10 
137 1 0.0983149 0.0183081 0.00696301 0.00564891 0.000106722 -2.77907e-05 1.116e-10 5.95991e-10 -1.7632e-10 5e-05 1.46608e-10 
138 1 0.0983708 0.0181493 0.00700213 0.00562164 0.000102224 -3.5191e-05 -6.72942e-11 2.20703e-10 -4.64121e-11 5e-05 1.46608e-10 
140 1 0.0982319 0.0174718 0.00716959 0.00557244 0.000107987 -3.43167e-05 -2.87383e-11 1.31261e-11 -4.18871e-12 5e-05 1.46608e-10 
141 1 0.0918955 0.0160836 0.00801967 0.00627072 0.000510612 -7.39402e-05 -1.45035e-10 -1.30357e-10 6.83081e-11 5e-05 1.46608e-10 
142 1 0.0920028 0.0165011 0.00776594 0.00623861 0.000692033 -0.000186684 5.71329e-11 -1.20532e-11 7.38134e-12 5e-05 1.46608e-10 
143 1 0.0917782 0.0159722 0.00808394 0.00633848 0.000502787 -6.44873e-05 -5.12312e-11 -1.82397e-11 1.89859e-11 5e-05 1.46608e-10 
146 1 0.0920779 0.0164463 0.0078027 0.00637171 0.000816074 -0.000258146 8.12101e-11 -4.11632e-11 2.95484e-11 5e-05 1.46608e-10 
147 1 0.0916734 0.0156437 0.00842359 0.00630013 0.000140841 -0.000662112 -2.44508e-10 -4.69215e-11 -3.32635e-11 5e-05 1.46608e-10 
148 1 0.00862832 0.0171803 0.00809631 -0.00140707 0.0295326 -0.0179021 2.51326e-11 8.35006e-11 -1.45117e-10 5e-05 1.46608e-10 
149 1 0.0984147 0.017928 0.00710905 0.00560293 0.000159182 -3.82693e-05 -4.06424e-11 -1.12477e-10 3.33158e-11 5e-05 1.46608e-10 
150 1 0.0919813 0.0164175 0.00781676 0.00623367 0.000553625 -0.000101443 1.30185e-11 -1.25835e-11 9.93926e-12 5e-05 1.46608e-10 
151 1 0.0925018 0.017431 0.00716277 0.00565252 0.000382766 -0.000506103 -1.00645e-12 1.36109e-11 4.49251e-11 5e-05 1.46608e-10 
153 1 0.0920562 0.0163625 0.00785362 0.00623808 0.000559494 -0.000104852 4.35858e-11 3.97451e-11 -2.35266e-11 5e-05 1.46608e-10 
154 1 0.0922015 0.0173345 0.00724447 0.00559957 0.000398864 -0.000526266 1.82985e-10 1.11833e-10 1.2355e-11 5e-05 1.46608e-10 
155 1 0.0863116 0.0178506 0.00710218 0.00553106 -0.000247417 5.98943e-05 7.4933e-12 3.04816e-12 -1.17839e-12 5e-05 1.46608e-10 
156 1 0.0920873 0.0172262 0.00732134 0.00555518 0.000656774 -0.000190304 -4.82689e-11 -9.12154e-11 9.39995e-12 5e-05 1.46608e-10 
157 1 0.0922583 0.0175789 0.00706782 0.00570264 0.000465382 -0.000579806 8.88154e-11 -2.9427e-10 1.90933e-10 5e-05 1.46608e-10 
158 1 0.0923221 0.0170716 0.00742589 0.00565684 0.000802076 -0.000276907 3.25572e-11 9.54495e-13 -7.47054e-13 5e-05 1.46608e-10 
159 1 0.0984674 0.0181744 0.00699579 0.00560991 0.000102767 -3.57917e-05 -6.25999e-11 5.77449e-11 1.29241e-11 5e-05 1.46608e-10 
160 1 0.0921619 0.0175563 0.0071086 0.00565956 0.000393558 -0.000484455 6.76069e-12 -1.88387e-10 1.61639e-10 5e-05 1.46608e-10 
162 1 0.0921247 0.0170045 0.00745975 0.00592966 0.000732472 -0.000211144 -9.47106e-11 1.40459e-11 -3.49645e-11 5e-05 1.46608e-10 
163 1 0.0923494 0.017162 0.00736109 0.00560412 0.000429742 -0.000548767 1.22857e-10 -1.74265e-11 2.81501e-11 5e-05 1.46608e-10 
164 1 0.0923804 0.0177121 0.00702311 0.00574016 0.000654745 1.34055e-05 1.29185e-10 6.78559e-11 1.77623e-12 5e-05 1.46608e-10 
165 1 0.0922579 0.0168139 0.00758256 0.0058529 0.000556162 -0.000117678 1.68795e-11 -9.54862e-11 6.30981e-11 5e-05 1.46608e-10 
166 1 0.09773 0.0158653 0.008286 0.00611187 -3.60968e-05 5.28026e-05 3.34457e-12 3.6128e-11 -3.03673e-11 5e-05 1.46608e-10 
167 1 0.0921 0.0165312 0.00775111 0.00613325 0.000792215 -0.00025265 -9.45275e-11 -4.49926e-10 2.7255e-10 5e-05 1.46608e-10 
168 1 0.0922211 0.0174162 0.00718542 0.00564127 0.000394792 -0.000535238 4.64276e-11 -1.90523e-10 1.45672e-10 5e-05 1.46608e-10 
169 1 0.0923861 0.0173213 0.00724594 0.00561644 0.000409669 -0.000536915 1.86685e-10 -1.3451e-11 -1.81461e-11 5e-05 1.46608e-10 
170 1 0.0923008 0.0173655 0.00721816 0.00563439 0.000415342 -0.000537614 2.22359e-10 -3.27019e-11 4.3481e-11 5e-05 1.46608e-10 
171 1 0.098135 0.0166569 0.00761303 0.00568465 6.51869e-05 -3.52317e-05 2.31722e-10 -1.67433e-10 1.32498e-10 5e-05 1.46608e-10 
172 1 0.0925543 0.0176908 0.00703263 0.00570411 0.000632485 1.66903e-05 -4.41709e-12 -3.20674e-10 1.09653e-10 5e-05 1.46608e-10 
173 1 0.0983838 0.0173452 0.00720061 0.00560874 0.000111767 -3.64219e-05 -1.62353e-10 1.40635e-10 -2.64373e-11 5e-05 1.46608e-10 
174 1 0.0922077 0.0176357 0.00715724 0.00594802 5.74677e-05 -0.000238711 -5.286e-10 -1.92898e-10 2.0717e-10 5e-05 1.46608e-10 
175 1 0.0891815 0.0179324 0.00702547 0.00601584 0.00142422 -0.00102965 -1.87364e-11 1.53634e-11 3.30229e-11 5e-05 1.46608e-10 
176 1 0.0920683 0.0171426 0.0073727 0.00563512 0.000704162 -9.23375e-05 8.17592e-11 -1.48465e-10 -1.20539e-10 5e-05 1.46608e-10 
177 1 0.0925764 0.0179152 0.00698378 0.00579316 0.000527974 4.27419e-05 -1.44148e-10 -5.79274e-11 3.81553e-11 5e-05 1.46608e-10 
178 1 0.092539 0.0175942 0.00705349 0.00567464 0.00064575 5.26224e-06 -4.00188e-10 -1.63952e-10 -5.7229e-11 5e-05 1.46608e-10 
179 1 0.0861706 0.0176279 0.00718484 0.00549273 -0.000240953 5.77165e-05 -1.12321e-12 -8.296e-12 2.09456e-12 5e-05 1.46608e-10 
180 1 0.0922419 0.0171211 0.00739224 0.00563005 0.000761881 -0.000253141 7.33369e-11 4.32736e-12 3.6593e-12 5e-05 1.46608e-10 
181 1 0.0922829 0.0172857 0.00727578 0.00559532 0.000410545 -0.00053473 1.49248e-10 1.63547e-10 -9.11691e-11 5e-05 1.46608e-10 
182 1 0.098307 0.0169838 0.00733513 0.00562332 9.57897e-05 -6.16608e-05 -3.67671e-10 4.52444e-11 5.06787e-11 5e-05 1.46608e-10 
183 1 0.0924044 0.017401 0.00718834 0.00561798 0.000397262 -0.000517385 -1.49359e-10 -3.02787e-10 1.37327e-10 5e-05 1.46608e-10 
184 1 0.0982756 0.0181178 0.00701007 0.0056235 0.00012631 -5.59353e-05 -2.02564e-10 -1.1369e-10 1.627e-11 5e-05 1.46608e-10 
185 1 0.0921058 0.017309 0.00726843 0.00560681 0.000501886 -0.000401128 7.46824e-11 -3.88792e-11 6.96544e-11 5e-05 1.46608e-10 
186 1 0.0921444 0.0170885 0.00740859 0.0056639 0.000682812 -0.000200713 2.4965e-11 2.07409e-11 -9.36773e-13 5e-05 1.46608e-10 
187 1 0.098322 0.0170593 0.00727129 0.00560981 0.000111663 -4.04056e-05 -1.95806e-10 -2.87474e-11 8.41038e-13 5e-05 1.46608e-10 
188 1 0.098335 0.0179476 0.00705198 0.00562729 0.000135698 -4.01019e-05 8.34653e-11 -1.3485e-10 9.18557e-11 5e-05 1.46608e-10 
189 1 0.0980201 0.0165582 0.00769669 0.00570712 5.65306e-05 -2.76395e-05 -1.05244e-10 6.23093e-11 -5.67664e-11 5e-05 1.46608e-10 
190 1 0.0925956 0.0181206 0.00693904 0.00568849 0.000735331 -3.80626e-06 -5.89764e-11 -1.46851e-11 9.684e-11 5e-05 1.46608e-10 
191 1 0.0983345 0.0184033 0.00693949 0.0056383 7.17362e-05 -2.61793e-05 -2.29572e-11 -7.60735e-11 1.58436e-11 5e-05 1.46608e-10 
192 1 0.092182 0.0172544 0.00730323 0.00559465 0.000413383 -0.000536859 2.88771e-10 9.9921e-11 3.81599e-11 5e-05 1.46608e-10 
193 1 0.0983542 0.0184985 0.00691596 0.00563781 6.4462e-05 -2.4512e-05 -3.09275e-13 -6.1131e-11 1.62692e-11 5e-05 1.46608e-10 
194 1 0.0920242 0.0165853 0.00771476 0.00597589 0.00063838 -0.000163846 -2.15265e-10 -2.3517e-10 1.41339e-10 5e-05 1.46608e-10 
195 1 0.0923192 0.0174454 0.00716037 0.0056323 0.000401064 -0.000528603 -1.4568e-10 -2.75875e-10 1.33697e-10 5e-05 1.46608e-10 
196 1 0.0915707 0.0153994 0.00884752 0.00610702 0.000185731 -0.000728142 2.85664e-10 7.43516e-11 -1.17545e-10 5e-05 1.46608e-10 
197 1 0.0922799 0.0177709 0.007104 0.00577689 0.00066491 1.16859e-05 -4.68769e-11 1.18284e-10 -2.26713e-10 5e-05 1.46608e-10 
198 1 0.092029 0.0169749 0.00747434 0.00590449 0.00061775 -0.000149817 3.25444e-11 1.72089e-10 -6.78928e-11 5e-05 1.46608e-10 
199 1 0.0921424 0.0174708 0.00715677 0.00565045 0.000319299 -0.000623136 -2.76754e-11 -7.24029e-11 4.43797e-10 5e-05 1.46608e-10 
200 1 0.092044 0.0166691 0.0076638 0.00588156 0.000649852 -0.00017365 2.90228e-10 -6.2961e-11 3.87279e-11 5e-05 1.46608e-10 
201 1 0.0924775 0.0181807 0.00692942 0.00581792 0.000519401 -0.000693131 1.53407e-10 -1.34325e-11 -1.04418e-10 5e-05 1.46608e-10 
203 1 0.0985056 0.0178332 0.00707996 0.0055972 7.81757e-05 -2.69996e-05 -2.61007e-10 -1.31208e-10 2.5585e-11 5e-05 1.46608e-10 
204 1 0.0921604 0.0167828 0.00759802 0.0058689 0.000583919 -0.000133928 -1.58245e-10 1.01861e-11 -8.00411e-12 5e-05 1.46608e-10 
205 1 0.0922244 0.0178528 0.00708956 0.00578275 0.000648672 -6.00523e-06 1.68948e-11 -2.79129e-10 1.02209e-10 5e-05 1.46608e-10 
206 1 0.0922395 0.0174961 0.00712765 0.00565039 0.000401647 -0.000531617 4.04995e-11 -1.49412e-10 -2.71663e-11 5e-05 1.46608e-10 
207 1 0.0920341 0.0162783 0.00790475 0.00627147 0.000566238 -0.000107788 3.08312e-11 3.64393e-11 -2.11863e-11 5e-05 1.46608e-10 
208 1 0.0921245 0.0173897 0.00721235 0.00562598 0.000390949 -0.000545811 2.86245e-11 2.49508e-11 3.8998e-10 5e-05 1.46608e-10 
209 1 0.0861902 0.0177199 0.0071509 0.00550608 -0.000241783 5.80106e-05 -5.0291e-12 -1.06495e-11 3.73135e-12 5e-05 1.46608e-10 
210 1 0.0977517 0.0159396 0.00822274 0.00611189 -4.13927e-05 5.72841e-05 9.11317e-12 3.08668e-11 -2.61617e-11 5e-05 1.46608e-10 
211 1 0.0982856 0.0180813 0.00710262 0.00557926 0.000151325 -7.57126e-05 -8.02417e-11 -5.53702e-11 -1.16927e-10 5e-05 1.46608e-10 
212 1 0.0925181 0.0175117 0.00710599 0.00568233 0.000449942 -0.000358468 -1.2641e-10 2.75531e-11 1.04328e-10 5e-05 1.46608e-10 
213 1 0.0985268 0.0176825 0.00711713 0.0056229 0.000128854 -4.03269e-05 -6.67417e-11 2.4547e-10 -6.03055e-11 5e-05 1.46608e-10 
214 1 0.0983198 0.0179221 0.00714748 0.0055909 0.000133016 -3.5246e-05 -1.01927e-10 3.77162e-11 -3.19396e-11 5e-05 1.46608e-10 
215 1 0.0922225 0.0170368 0.00744355 0.00568802 0.00071099 -0.000221393 6.57043e-12 6.1674e-11 -5.09703e-11 5e-05 1.46608e-10 
216 1 0.0923014 0.016986 0.00747799 0.00568294 0.000708254 -0.000217411 -9.30315e-11 -2.75671e-11 -1.78117e-12 5e-05 1.46608e-10 
217 1 0.0981546 0.0167315 0.00754948 0.00565187 7.17365e-05 -4.06722e-05 -1.09459e-10 -1.31558e-11 3.00873e-11 5e-05 1.46608e-10 
218 1 0.0923562 0.0176108 0.00704475 0.00563397 0.000573224 1.8088e-05 -1.37746e-10 -1.67225e-11 5.866e-12 5e-05 1.46608e-10 
219 1 0.0982942 0.0181843 0.00708235 0.00564053 4.31231e-05 -5.93664e-05 -1.42295e-10 8.03358e-11 -5.23361e-11 5e-05 1.46608e-10 
220 1 0.0922024 0.0169523 0.00749495 0.00602087 0.000818405 -0.000270288 -5.47561e-11 5.43438e-11 -5.43549e-11 5e-05 1.46608e-10 
221 1 0.0860731 0.0171678 0.00735452 0.00555569 -0.000249545 6.09754e-05 5.28187e-11 -6.42648e-11 5.59021e-11 5e-05 1.46608e-10 
222 1 0.0979443 0.0166091 0.00765302 0.00570213 6.54336e-05 -3.64576e-05 -2.01037e-11 1.81719e-11 -1.57428e-11 5e-05 1.46608e-10 
223 1 0.092263 0.0172047 0.00733441 0.00559715 0.000422152 -0.000545323 2.27884e-10 1.68756e-11 4.81192e-12 5e-05 1.46608e-10 
224 1 0.0920489 0.0170586 0.00742347 0.00581846 0.000649791 -0.000120196 -8.24077e-11 7.88827e-11 3.42381e-12 5e-05 1.46608e-10 
225 1 0.0984421 0.0176309 0.00712999 0.00562495 0.000129322 -4.00913e-05 -6.68445e-12 1.08255e-10 -5.70117e-11 5e-05 1.46608e-10 
226 1 0.0922811 0.0169013 0.00752952 0.006133 0.000938485 -0.000343002 -6.51095e-11 7.14114e-11 -2.66945e-11 5e-05 1.46608e-10 
227 1 0.0861317 0.0174438 0.00725271 0.00543629 -0.000230913 5.43669e-05 2.04669e-12 -1.28501e-11 4.88872e-12 5e-05 1.46608e-10 
228 1 0.0507861 0.0189683 0.00558458 -5.35314e-15 -1.91102e-14 -2.87013e-13 3.02729e-22 -9.90807e-23 1.24077e-24 5e-05 1.46608e-10 
229 1 0.0918524 0.0159166 0.00812119 0.00635883 0.000519725 -7.0485e-05 -2.59395e-11 -4.75243e-11 -2.15046e-11 5e-05 1.46608e-10 
230 1 0.0922361 0.0179203 0.00701672 0.00577128 0.000625932 8.19271e-06 1.36524e-10 3.83426e-12 6.17741e-11 5e-05 1.46608e-10 
231 1 0.197479 0.018695 0.00523156 -1.0941e-15 -2.69834e-14 1.45243e-13 -5.63371e-23 1.18907e-24 0 5e-05 1.46608e-10 
232 1 0.0918741 0.016 0.00807048 0.00633123 0.000523149 -7.81857e-05 -1.03262e-10 -1.22012e-11 3.46362e-11 5e-05 1.46608e-10 
233 1 0.0921402 0.0166992 0.00764891 0.0058125 0.000587165 -0.000138653 -3.4291e-11 1.38775e-10 -9.78313e-11 5e-05 1.46608e-10 
234 1 0.0976865 0.0157166 0.00841251 0.00611123 -2.70976e-05 4.51597e-05 1.81576e-11 4.46297e-11 -3.80982e-11 5e-05 1.46608e-10 
235 1 0.092399 0.0182939 0.00694898 0.00579574 0.00057313 -0.000685771 4.23507e-10 -6.21354e-10 1.14174e-11 5e-05 1.46608e-10 
236 1 0.0924973 0.0182819 0.00693542 0.00579819 0.000586192 -0.000691306 1.45334e-10 -4.18022e-11 -3.34504e-11 5e-05 1.46608e-10 
237 1 0.0923245 0.01807 0.00696013 0.00579973 0.000598917 -0.000110887 -3.05198e-10 -2.93604e-11 4.36297e-10 5e-05 1.46608e-10 
238 1 0.0862097 0.0178119 0.00711697 0.00551761 -0.000245168 5.91391e-05 7.46299e-14 -2.36945e-12 1.03935e-12 5e-05 1.46608e-10 
239 1 0.0859728 0.0167125 0.00753519 0.00576244 -0.000193867 0.000334252 3.33412e-12 6.80328e-12 -3.0459e-12 5e-05 1.46608e-10 
240 1 0.0860532 0.0170767 0.00739066 0.00555375 -0.00014937 0.000306635 -1.11931e-11 2.1737e-11 -3.91005e-11 5e-05 1.46608e-10 
241 1 0.0859934 0.0168034 0.00749911 0.00576502 -0.000191103 0.000333227 -2.29963e-12 6.44189e-12 -2.05127e-12 5e-05 1.46608e-10 
242 1 0.086266 0.0176586 0.00717302 0.00551005 -0.000237426 5.63401e-05 1.14677e-11 9.75916e-12 -3.53093e-12 5e-05 1.46608e-10 
243 1 0.0859522 0.0166215 0.00757127 0.0057608 -0.000195762 0.00033495 1.98967e-12 3.1873e-12 -1.23647e-12 5e-05 1.46608e-10 
244 1 0.0860133 0.0168945 0.00746297 0.00552244 -0.000147963 0.000305004 8.37715e-12 4.38908e-12 -4.36457e-14 5e-05 1.46608e-10 
245 1 0.0862293 0.0179039 0.00708304 0.00553027 -0.000248248 6.02055e-05 -1.04768e-12 -5.79841e-12 2.04234e-12 5e-05 1.46608e-10 
246 1 0.0860928 0.0172598 0.0073206 0.0054172 -0.000221 5.08365e-05 -1.86264e-11 9.61174e-12 -2.4848e-12 5e-05 1.46608e-10 
247 1 0.0924212 0.017481 0.00713065 0.00555435 0.000408131 -0.000464723 3.24793e-10 -8.26265e-10 -1.85069e-09 5e-05 1.46608e-10 