ITEM: TIMESTEP
16000000
ITEM: NUMBER OF ATOMS
284
ITEM: BOX BOUNDS ff ff ff
-0.02 0.43
-0.02 0.06
-0.02 0.07
ITEM: ATOMS id type x y z vx vy vz fx fy fz radius mass 
1 1 0.106126 0.0163602 0.00782092 0.00618642 -0.000267664 -0.000138252 3.00084e-12 -3.15213e-10 2.04424e-10 5e-05 1.46608e-10 
2 1 0.106547 0.0173579 0.00727994 0.00563526 0.000183713 0.000457891 1.25813e-10 5.93399e-11 -8.06172e-12 5e-05 1.46608e-10 
3 1 0.100122 0.0163619 0.00786758 0.00609943 -6.86027e-05 -4.14732e-05 -8.03938e-11 4.97078e-11 -8.41247e-11 5e-05 1.46608e-10 
4 1 0.10653 0.0176883 0.00713597 0.00563122 0.000240393 0.000434091 -2.0115e-11 1.78402e-10 -1.28911e-10 5e-05 1.46608e-10 
5 1 0.106031 0.0163373 0.0078407 0.00613042 -0.000300334 -0.000114538 -8.61907e-12 -2.91883e-10 1.525e-10 5e-05 1.46608e-10 
6 1 0.112193 0.0170569 0.00760675 0.00586611 -0.000359224 -0.000121293 7.55226e-13 4.41316e-12 -3.22901e-12 5e-05 1.46608e-10 
7 1 0.106139 0.0167436 0.00757036 0.00616644 -0.000262837 -0.000145717 -8.09439e-11 8.81284e-10 -3.99685e-10 5e-05 1.46608e-10 
8 1 0.106039 0.0160351 0.00803722 0.00617086 -0.000219707 -0.000167939 -1.6898e-10 -3.84877e-11 3.67591e-11 5e-05 1.46608e-10 
9 1 0.112432 0.0180433 0.00696739 0.00561956 -0.000111995 0.000218507 -6.22825e-13 -1.4923e-12 1.46161e-12 5e-05 1.46608e-10 
10 1 0.106161 0.0168248 0.00751629 0.00623781 -0.000200923 -0.000163361 -3.99761e-10 4.31835e-10 -3.20227e-10 5e-05 1.46608e-10 
11 1 0.106277 0.0169331 0.00744603 0.0058603 -0.000103931 6.02832e-05 8.39855e-10 -1.89409e-10 1.84927e-10 5e-05 1.46608e-10 
12 1 0.106357 0.0172924 0.00729014 0.00580728 0.000183439 0.000486381 2.45353e-10 1.52644e-10 3.07552e-10 5e-05 1.46608e-10 
13 1 0.106393 0.0177209 0.00720342 0.00568398 0.000199896 0.000470426 -2.03578e-10 -1.07749e-10 5.29588e-11 5e-05 1.46608e-10 
14 1 0.0998142 0.0155908 0.00850369 0.00560523 -8.65357e-06 -8.60289e-05 4.16021e-11 2.29574e-11 -6.61788e-12 5e-05 1.46608e-10 
15 1 0.106262 0.0172597 0.00729511 0.00578543 0.000179799 0.000481055 2.52766e-10 -6.06803e-11 2.23711e-10 5e-05 1.46608e-10 
16 1 0.099795 0.015515 0.00856603 0.00563005 -1.29699e-05 -8.3005e-05 -3.66051e-11 9.36917e-12 3.86262e-12 5e-05 1.46608e-10 
17 1 0.106483 0.0176836 0.00722433 0.00562091 0.000255926 0.000435367 2.99573e-10 2.74544e-10 -6.09538e-11 5e-05 1.46608e-10 
18 1 0.11234 0.0176273 0.00722874 0.00567664 -0.000324119 -0.000132662 1.11767e-11 -4.77978e-12 4.72541e-12 5e-05 1.46608e-10 
19 1 0.105987 0.0161748 0.00794884 0.00615312 -0.000245976 -0.000150359 -9.04091e-11 -1.51052e-10 1.24283e-10 5e-05 1.46608e-10 
20 1 0.106464 0.0175915 0.00726181 0.00563138 0.000228336 0.000448658 -3.14405e-11 -9.0486e-11 -1.92407e-11 5e-05 1.46608e-10 
21 1 0.106009 0.016256 0.00789477 0.00613739 -0.000277776 -0.000128185 -2.18908e-11 -2.75275e-10 1.95322e-10 5e-05 1.46608e-10 
22 1 0.106317 0.0171112 0.00736435 0.00564024 0.000168774 0.000412084 -9.64219e-10 -9.81638e-11 3.40322e-10 5e-05 1.46608e-10 
23 1 0.100173 0.0168615 0.00744601 0.00571976 6.16022e-05 -3.12442e-05 -1.19376e-10 -1.41547e-11 1.53841e-11 5e-05 1.46608e-10 
24 1 0.112413 0.017957 0.00701423 0.00561108 -0.000240359 -2.15165e-05 2.39179e-12 6.49704e-13 -1.22307e-12 5e-05 1.46608e-10 
25 1 0.106235 0.0167668 0.00755039 0.00632685 -0.000182726 -0.000199649 1.95294e-12 9.63453e-10 -3.32836e-10 5e-05 1.46608e-10 
26 1 0.11228 0.0173823 0.00739094 0.0058775 -0.000361193 -0.000120649 3.57004e-11 5.19765e-12 -7.32711e-12 5e-05 1.46608e-10 
27 1 0.100091 0.0165634 0.00769971 0.00616255 -1.69412e-05 3.62444e-05 -3.19445e-11 -1.10125e-11 -8.81384e-12 5e-05 1.46608e-10 
28 1 0.106335 0.0175242 0.00728249 0.00562292 0.000207884 0.000472605 -1.03774e-10 -1.26478e-10 9.94363e-11 5e-05 1.46608e-10 
29 1 0.106148 0.0164415 0.00776684 0.00620374 -0.000277305 -0.000132973 -1.08539e-10 -1.09126e-10 8.56212e-11 5e-05 1.46608e-10 
30 1 0.10651 0.0175974 0.00717328 0.00564304 0.000212293 0.000447311 1.0668e-11 2.70316e-11 -1.19913e-11 5e-05 1.46608e-10 
31 1 0.106241 0.0171691 0.00733223 0.00577014 0.000213792 0.000458084 8.0218e-12 2.05342e-11 -3.53136e-12 5e-05 1.46608e-10 
32 1 0.106297 0.0170232 0.00740751 0.00561186 5.6612e-05 0.00023803 2.34169e-10 2.82219e-10 1.37751e-09 5e-05 1.46608e-10 
33 1 0.112215 0.0171382 0.0075528 0.00586815 -0.000359876 -0.000120994 3.05167e-11 -5.19061e-12 1.58676e-12 5e-05 1.46608e-10 
34 1 0.106158 0.0168364 0.00761557 0.00614321 -0.000279606 -0.000156841 -9.87775e-11 3.39762e-10 -6.83437e-10 5e-05 1.46608e-10 
36 1 0.112448 0.0181305 0.00692139 0.00562651 -3.04912e-05 0.00037573 6.60816e-13 -3.05986e-12 7.97899e-13 5e-05 1.46608e-10 
37 1 0.106182 0.016907 0.00746309 0.00563342 -0.00034273 -0.000691766 0 0 -1.43822e-09 5e-05 1.46608e-10 
38 1 0.106337 0.0172018 0.00732729 0.00580785 0.000192511 0.000474123 -7.89035e-11 -5.05388e-10 -2.88393e-10 5e-05 1.46608e-10 
39 1 0.112395 0.0178735 0.00706613 0.00559737 -0.000309248 -0.000137383 -1.12532e-13 3.59664e-12 -3.29455e-12 5e-05 1.46608e-10 
41 1 0.106053 0.0164185 0.00778663 0.00613115 -0.000311394 -0.000106494 4.65391e-12 -1.95291e-10 1.73588e-10 5e-05 1.46608e-10 
42 1 0.106221 0.0170785 0.00736934 0.00575045 0.000216689 0.000454175 4.11657e-13 2.33044e-11 -1.30274e-11 5e-05 1.46608e-10 
44 1 0.106452 0.0173251 0.00728508 0.00580815 0.000128906 0.000495161 -4.50814e-11 -1.83895e-10 -3.98347e-11 5e-05 1.46608e-10 
45 1 0.112258 0.0173009 0.00744489 0.00587297 -0.000359592 -0.00012147 -3.01637e-11 -2.0083e-12 5.26295e-13 5e-05 1.46608e-10 
46 1 0.112322 0.0175453 0.00728293 0.00581183 -0.00034924 -0.000124618 -2.17142e-11 -5.08802e-13 2.47779e-12 5e-05 1.46608e-10 
47 1 0.106096 0.0165811 0.0076785 0.00614411 -0.0003153 -0.000107533 -5.25768e-11 4.60661e-11 -1.70849e-10 5e-05 1.46608e-10 
48 1 0.106432 0.0172341 0.00732237 0.00579201 0.000165614 0.000476135 -2.49385e-10 -1.19112e-10 2.29788e-10 5e-05 1.46608e-10 
49 1 0.112302 0.0174636 0.00733698 0.00587865 -0.000362534 -0.000119922 9.59121e-12 9.16099e-12 -7.19821e-12 5e-05 1.46608e-10 
50 1 0.106397 0.0174737 0.00721573 0.00563051 0.000180876 0.000460807 3.57322e-10 1.29805e-10 -7.15427e-11 5e-05 1.46608e-10 
51 1 0.106491 0.0175066 0.00721056 0.0056515 0.000211902 0.000448272 -1.71666e-10 -1.53872e-11 1.27057e-12 5e-05 1.46608e-10 
52 1 0.106431 0.0180622 0.00708289 0.00558018 0.00043871 0.000161282 4.14649e-10 2.21859e-10 -4.28251e-10 5e-05 1.46608e-10 
53 1 0.112359 0.0177092 0.00717458 0.00560394 -0.000310276 -0.000137252 4.24526e-12 -1.02028e-12 2.08333e-13 5e-05 1.46608e-10 
54 1 0.106104 0.016279 0.00787499 0.00616766 -0.00025435 -0.000145321 1.16681e-10 -4.17767e-10 2.6107e-10 5e-05 1.46608e-10 
55 1 0.0998549 0.015742 0.00837928 0.00591181 -6.052e-05 -4.92384e-05 1.46678e-10 6.75434e-11 -5.63598e-11 5e-05 1.46608e-10 
56 1 0.106201 0.0169884 0.0074077 0.00570134 -6.92366e-05 -0.00024304 8.30953e-12 1.92375e-11 -1.35619e-11 5e-05 1.46608e-10 
57 1 0.112237 0.0172196 0.00749884 0.00586855 -0.000359709 -0.000121196 1.46859e-12 -1.72501e-11 1.0326e-11 5e-05 1.46608e-10 
59 1 0.106372 0.0169621 0.00743381 0.00580709 0.000127562 0.000470971 4.5239e-10 3.13673e-11 -2.04243e-10 5e-05 1.46608e-10 
60 1 0.106392 0.0170528 0.00739669 0.00579372 0.000139064 0.000483108 1.41395e-10 -2.75183e-10 -1.35659e-10 5e-05 1.46608e-10 
61 1 0.106074 0.0164998 0.00773256 0.00613676 -0.000316081 -0.000100767 -6.38179e-11 -1.57023e-10 7.78546e-11 5e-05 1.46608e-10 
62 1 0.106633 0.0179546 0.00712546 0.00558598 0.000187179 0.00045329 -2.16192e-10 -3.8504e-11 -1.021e-10 5e-05 1.46608e-10 
63 1 0.106411 0.0171435 0.00735945 0.00578802 0.000156446 0.000487885 -1.73367e-10 -3.4972e-10 6.55453e-11 5e-05 1.46608e-10 
64 1 0.112377 0.0177913 0.00712037 0.00559779 -0.000309177 -0.000137502 4.92612e-12 2.97399e-12 -3.03663e-12 5e-05 1.46608e-10 
65 1 0.100134 0.0167121 0.00757316 0.00618466 -1.84739e-05 3.62981e-05 3.83323e-11 -1.09124e-11 8.0238e-12 5e-05 1.46608e-10 
66 1 0.100386 0.0175766 0.00722456 0.00562871 6.16321e-05 -1.76708e-05 -9.82058e-13 8.1809e-12 1.45009e-11 5e-05 1.46608e-10 
67 1 0.106585 0.0175394 0.00720539 0.00566314 0.000223329 0.000444061 -1.35523e-10 6.97438e-12 -7.66694e-12 5e-05 1.46608e-10 
68 1 0.106377 0.017383 0.00725298 0.00581424 0.000159393 0.000475251 1.39345e-10 2.36975e-10 -5.36372e-11 5e-05 1.46608e-10 
69 1 0.106256 0.0168489 0.00749585 0.00634087 -0.000293708 -4.93378e-05 -8.51556e-10 -3.62203e-11 -3.39054e-10 5e-05 1.46608e-10 
70 1 0.106354 0.017615 0.00724525 0.00559792 0.000194822 0.000452049 7.89248e-11 -1.8497e-10 1.27501e-10 5e-05 1.46608e-10 
71 1 0.0998339 0.0156665 0.00844141 0.00569715 -2.40706e-05 -7.53159e-05 2.42482e-10 2.46816e-11 -2.08906e-11 5e-05 1.46608e-10 
72 1 0.106557 0.0178734 0.00713096 0.00558182 0.000227172 0.000431713 7.27188e-11 2.49898e-11 -9.571e-12 5e-05 1.46608e-10 
73 1 0.106511 0.0177739 0.00719088 0.0044872 6.60003e-05 -3.97705e-05 -6.44247e-11 2.6172e-11 4.84314e-11 5e-05 1.46608e-10 
74 1 0.106533 0.0181085 0.00695517 0.00547357 -7.78599e-05 0.000570983 2.54825e-09 8.37907e-10 7.54545e-10 5e-05 1.46608e-10 
76 1 0.100704 0.0185192 0.00691206 0.00572258 2.44965e-05 -3.99891e-07 -2.20499e-11 -1.3403e-10 2.72332e-11 5e-05 1.46608e-10 
77 1 0.106476 0.0182734 0.00694522 0.00560768 6.49785e-05 -0.000264943 -4.15681e-11 -1.65703e-10 3.36669e-10 5e-05 1.46608e-10 
78 1 0.0999414 0.0160435 0.00813111 0.00607216 -7.39566e-05 -3.85228e-05 -1.77334e-11 -1.25273e-11 2.47352e-11 5e-05 1.46608e-10 
79 1 0.100191 0.0169364 0.00738227 0.00579187 5.80406e-05 -2.7066e-05 -3.31918e-11 -6.17323e-11 3.62888e-11 5e-05 1.46608e-10 
80 1 0.106418 0.0178357 0.0071588 0.00567756 0.000197793 0.000459091 -1.6649e-10 5.73412e-11 1.36102e-11 5e-05 1.46608e-10 
81 1 0.100113 0.0166378 0.00763643 0.00617124 -1.68203e-05 3.54372e-05 5.50109e-11 -1.80793e-11 1.21435e-11 5e-05 1.46608e-10 
82 1 0.100154 0.0167867 0.00750967 0.00573353 5.20212e-05 -2.38985e-05 -2.54033e-10 1.98648e-11 -2.98601e-11 5e-05 1.46608e-10 
83 1 0.100048 0.0164146 0.00782614 0.00610646 -3.00257e-05 6.35126e-06 -1.47632e-10 -4.88577e-11 -2.76468e-11 5e-05 1.46608e-10 
84 1 0.112467 0.0182281 0.00693202 0.00560325 -2.58017e-05 0.000374722 3.45284e-12 -1.41067e-12 -2.02756e-12 5e-05 1.46608e-10 
85 1 0.105944 0.0160122 0.00805698 0.00614913 -0.000207036 -0.000178643 4.45669e-10 -4.55058e-10 2.0337e-10 5e-05 1.46608e-10 
86 1 0.106435 0.0176553 0.0071412 0.00562657 0.000195932 0.000448096 4.12465e-11 1.0033e-10 1.73949e-11 5e-05 1.46608e-10 
87 1 0.106527 0.0172672 0.00731719 0.00584914 0.000151916 0.00049432 9.38393e-11 1.78289e-11 -5.88076e-12 5e-05 1.46608e-10 
88 1 0.106642 0.0181668 0.00694046 0.00563715 0.000163146 0.000469331 6.70325e-10 1.06145e-10 4.09412e-10 5e-05 1.46608e-10 
89 1 0.106475 0.0178361 0.00706698 0.00557285 0.00022688 0.000430752 -1.68424e-10 5.23615e-11 -6.34649e-12 5e-05 1.46608e-10 
90 1 0.106636 0.0178318 0.00708421 0.00558672 0.000229615 0.000432062 -1.28892e-10 3.8385e-11 -1.12609e-10 5e-05 1.46608e-10 
91 1 0.106302 0.0174409 0.00722088 0.00581032 0.000157692 0.0004821 -1.82725e-11 -2.89642e-11 -8.8518e-11 5e-05 1.46608e-10 
92 1 0.106692 0.0180088 0.00701325 0.00558834 0.000209435 0.00044425 -7.56227e-11 -1.29347e-11 -2.63969e-11 5e-05 1.46608e-10 
93 1 0.106436 0.018074 0.00696079 0.00563815 0.000213291 0.000440478 -8.62124e-12 2.46175e-11 -1.0864e-10 5e-05 1.46608e-10 
94 1 0.106454 0.0177488 0.00711113 0.00560073 0.000209467 0.000436527 -1.60414e-10 9.89974e-11 -4.16603e-11 5e-05 1.46608e-10 
95 1 0.10636 0.0177132 0.0071091 0.0056778 0.000179593 0.000466562 -9.59288e-11 -6.23739e-11 1.80963e-11 5e-05 1.46608e-10 
96 1 0.106399 0.0179001 0.00705099 0.00556703 0.000235778 0.000417874 -4.53e-12 8.16787e-11 1.44932e-10 5e-05 1.46608e-10 
97 1 0.100304 0.0170362 0.00729764 0.00587496 4.58194e-05 -1.82791e-05 1.98785e-10 -7.87649e-11 3.8144e-11 5e-05 1.46608e-10 
98 1 0.10657 0.0183057 0.00693955 0.00565387 0.000150838 -0.000322172 -6.3441e-11 4.74059e-11 9.60904e-11 5e-05 1.46608e-10 
99 1 0.10021 0.0170113 0.00731857 0.00587361 4.70119e-05 -1.96267e-05 1.10174e-10 -7.83045e-11 6.36808e-11 5e-05 1.46608e-10 
100 1 0.106626 0.0180756 0.00697821 0.00557647 0.000176634 0.000452076 1.86674e-10 7.54959e-11 2.10009e-11 5e-05 1.46608e-10 
101 1 0.100165 0.0165125 0.00774334 0.00616042 -1.71881e-05 3.78381e-05 -5.03501e-11 -2.71983e-11 -8.52128e-12 5e-05 1.46608e-10 
102 1 0.0694385 0.0202053 0.00537268 3.91377e-15 4.47219e-15 -7.68287e-14 -5.12335e-22 2.7275e-22 -1.11669e-23 5e-05 1.46608e-10 
104 1 0.100268 0.0168865 0.00742508 0.00571978 6.23505e-05 -3.30008e-05 -1.9066e-10 -3.66049e-11 3.91656e-11 5e-05 1.46608e-10 
105 1 0.100005 0.0162642 0.00795058 0.00610745 -9.08455e-05 -5.6663e-05 6.24239e-11 -4.09328e-11 5.4491e-11 5e-05 1.46608e-10 
106 1 0.100366 0.0173131 0.00720549 0.00561742 8.73254e-05 -3.02141e-05 3.31109e-11 -1.40446e-10 3.49892e-11 5e-05 1.46608e-10 
107 1 0.0999648 0.0161331 0.00809337 0.00610363 -7.64797e-05 -3.66194e-05 7.23971e-11 -6.74165e-11 7.77731e-11 5e-05 1.46608e-10 
108 1 0.10614 0.0167536 0.00766985 0.00615703 -0.000267692 -0.000132778 -3.75205e-12 1.57325e-10 -6.80546e-10 5e-05 1.46608e-10 
109 1 0.106322 0.0175317 0.00718364 0.00563311 0.000179432 0.000461934 2.75069e-10 -3.03108e-11 6.69042e-12 5e-05 1.46608e-10 
110 1 0.10638 0.0178039 0.00707183 0.00569644 0.000174761 0.000464824 2.06963e-11 -3.17647e-12 -1.03618e-12 5e-05 1.46608e-10 
111 1 0.106609 0.0184366 0.00693582 0.00565827 0.000137624 -0.00031742 -2.9473e-11 4.93999e-11 4.64439e-11 5e-05 1.46608e-10 
112 1 0.100069 0.0164891 0.00776297 0.00614462 -1.61955e-05 3.66285e-05 -1.01329e-10 -6.68673e-11 -1.27334e-11 5e-05 1.46608e-10 
113 1 0.100382 0.0169849 0.00734168 0.00564907 9.07009e-05 -4.87748e-05 -1.11347e-10 7.29848e-12 -1.83213e-11 5e-05 1.46608e-10 
115 1 0.106341 0.0176224 0.00714637 0.00562655 0.000176541 0.000456993 5.84006e-11 -1.03869e-11 5.86154e-11 5e-05 1.46608e-10 
116 1 0.106351 0.0168733 0.00747509 0.00593679 -0.000188841 -0.000199995 3.01568e-10 -1.64904e-10 -1.04421e-09 5e-05 1.46608e-10 
117 1 0.106213 0.0166855 0.0076045 0.00626004 -0.000238356 -0.000173753 6.15334e-11 7.59161e-10 -4.71057e-10 5e-05 1.46608e-10 
118 1 0.0998981 0.0158928 0.00825518 0.00604656 -7.81216e-05 -3.74668e-05 -5.3371e-11 7.73911e-11 -6.104e-11 5e-05 1.46608e-10 
119 1 0.106605 0.0176302 0.00716813 0.00564493 0.000234143 0.000437895 -8.43082e-11 5.79443e-11 -3.14224e-11 5e-05 1.46608e-10 
120 1 0.105966 0.0160935 0.00800291 0.0061563 -0.000216126 -0.000168952 -1.65919e-10 -1.98403e-10 1.00574e-10 5e-05 1.46608e-10 
121 1 0.106061 0.0161164 0.00798315 0.00616328 -0.000230326 -0.000161566 2.33241e-11 -5.82883e-11 3.50247e-11 5e-05 1.46608e-10 
122 1 0.106493 0.017927 0.00702962 0.00559479 0.000228075 0.000437024 1.0657e-11 1.4279e-11 -1.28634e-11 5e-05 1.46608e-10 
123 1 0.100026 0.0163398 0.00788889 0.00609301 -7.51871e-05 -4.77847e-05 -7.91172e-11 -2.08597e-11 3.646e-11 5e-05 1.46608e-10 
124 1 0.106465 0.0179171 0.00712489 0.00559723 0.000237017 0.000438773 -2.726e-11 1.81698e-11 2.25301e-11 5e-05 1.46608e-10 
125 1 0.106083 0.0161977 0.00792906 0.00615458 -0.000247415 -0.000149869 9.53218e-11 -3.82491e-10 2.45516e-10 5e-05 1.46608e-10 
126 1 0.106282 0.0173503 0.007258 0.00576907 0.000176456 0.000466872 1.8033e-10 -1.29272e-10 2.39666e-10 5e-05 1.46608e-10 
127 1 0.100597 0.0178837 0.00714962 0.00557917 9.91905e-05 -1.78425e-05 -1.14351e-11 1.43323e-10 -4.63558e-11 5e-05 1.46608e-10 
128 1 0.10655 0.017779 0.00709883 0.00557743 0.000225525 0.000431189 -1.81761e-10 9.37787e-11 -4.16524e-11 5e-05 1.46608e-10 
129 1 0.106418 0.017991 0.00701381 0.00558993 0.000220313 0.000416383 -1.17965e-10 -6.80479e-11 -2.85697e-10 5e-05 1.46608e-10 
131 1 0.100286 0.0169614 0.00736134 0.00579737 5.44065e-05 -2.53805e-05 -2.01006e-11 -5.55195e-11 4.24051e-11 5e-05 1.46608e-10 
132 1 0.106591 0.0179123 0.00704525 0.00558675 0.000228826 0.000434903 -8.49945e-11 -5.61073e-12 -4.8636e-11 5e-05 1.46608e-10 
133 1 0.10617 0.0165228 0.00771276 0.00621411 -0.000278737 -0.000132021 -1.5768e-10 1.09457e-10 -4.07908e-11 5e-05 1.46608e-10 
134 1 0.106699 0.0176624 0.00716327 0.00562378 0.000257021 0.000425584 -1.65621e-10 1.12408e-10 -5.77807e-11 5e-05 1.46608e-10 
135 1 0.106288 0.0166281 0.00763817 0.00650223 -2.5567e-05 -0.000311792 -6.29104e-11 -6.46067e-11 -7.41748e-11 5e-05 1.46608e-10 
136 1 0.0999211 0.0159679 0.00819332 0.00605187 -7.50145e-05 -3.90944e-05 2.1569e-11 4.7598e-11 -3.56577e-11 5e-05 1.46608e-10 
137 1 0.106495 0.0183716 0.00694295 0.00566736 0.000168832 -0.000313889 -9.91763e-11 2.40417e-10 7.30899e-11 5e-05 1.46608e-10 
138 1 0.106551 0.0182077 0.00694395 0.00565048 0.000165371 0.000300707 -1.1181e-10 -4.63472e-10 4.11666e-10 5e-05 1.46608e-10 
140 1 0.106416 0.0175645 0.00717847 0.00563581 0.000193253 0.000455117 7.57133e-11 1.79023e-10 -5.66792e-11 5e-05 1.46608e-10 
141 1 0.1001 0.0162865 0.00792962 0.00609799 -6.44327e-05 -4.88542e-05 3.56265e-11 6.34573e-11 -5.1838e-11 5e-05 1.46608e-10 
142 1 0.100209 0.0166615 0.00761657 0.00618024 -8.16808e-06 2.90283e-05 9.61131e-11 4.28299e-11 -5.43471e-11 5e-05 1.46608e-10 
143 1 0.0999832 0.0161882 0.00801199 0.00611956 -8.08006e-05 -3.73009e-05 2.41429e-10 -1.01089e-10 1.01427e-10 5e-05 1.46608e-10 
146 1 0.100284 0.0166115 0.00765944 0.00617762 3.73929e-06 1.87773e-05 1.0411e-10 3.3006e-11 -1.84669e-11 5e-05 1.46608e-10 
147 1 0.0998764 0.0158174 0.00831722 0.0060343 -7.9331e-05 -3.60791e-05 -7.49644e-11 7.54753e-11 -5.59598e-11 5e-05 1.46608e-10 
148 1 0.0085487 0.0167723 0.00834514 0.000404612 0.0189693 -0.0182153 2.57377e-12 2.69305e-10 -3.15499e-10 5e-05 1.46608e-10 
149 1 0.106599 0.0180143 0.00705265 0.00558723 0.000185631 0.000455735 -1.24377e-10 7.10988e-11 -8.06918e-11 5e-05 1.46608e-10 
150 1 0.100187 0.0165871 0.00767987 0.00616272 -1.3592e-05 3.09058e-05 -5.44071e-11 -5.50049e-11 6.6441e-11 5e-05 1.46608e-10 
151 1 0.100691 0.0175971 0.00713589 0.00569604 0.000192416 -4.10482e-05 -2.79856e-11 -4.6589e-11 1.23173e-11 5e-05 1.46608e-10 
153 1 0.100262 0.0165367 0.00772219 0.00618026 -5.49755e-05 -4.9498e-05 2.20645e-11 8.8833e-12 -1.50501e-11 5e-05 1.46608e-10 
154 1 0.100406 0.0175033 0.00715846 0.00564958 7.70636e-05 -2.62528e-05 -4.47441e-11 -6.26251e-11 6.99941e-12 5e-05 1.46608e-10 
155 1 0.0944563 0.017752 0.00707192 0.00546754 -0.00042271 0.000244986 3.13517e-11 1.21697e-11 5.70229e-13 5e-05 1.46608e-10 
156 1 0.100289 0.0173758 0.00719013 0.00561293 9.9637e-05 -3.30572e-05 -1.82833e-11 -7.52802e-11 1.20598e-11 5e-05 1.46608e-10 
157 1 0.100465 0.0177894 0.00708899 0.00559456 0.00011218 -2.13901e-05 -1.06148e-10 -7.92899e-11 -2.6311e-12 5e-05 1.46608e-10 
158 1 0.100516 0.0171852 0.00723683 0.00561428 0.000112466 -3.6204e-05 -3.08097e-12 5.62417e-11 -2.60276e-11 5e-05 1.46608e-10 
159 1 0.106661 0.0182647 0.00693495 0.00562496 0.000109866 -0.000314065 -1.78037e-10 5.87057e-11 9.46066e-11 5e-05 1.46608e-10 
160 1 0.100369 0.0177565 0.0070969 0.00568126 8.00041e-05 -1.32629e-05 2.06529e-11 5.88401e-11 -7.30387e-13 5e-05 1.46608e-10 
162 1 0.100326 0.0171229 0.00725251 0.00589505 4.35142e-05 -1.87685e-05 1.5336e-10 -2.97637e-11 3.35743e-11 5e-05 1.46608e-10 
163 1 0.100536 0.0172803 0.00721332 0.00560034 0.000111859 -3.61445e-05 6.04733e-11 5.61075e-11 -3.36298e-11 5e-05 1.46608e-10 
164 1 0.100583 0.0179197 0.00705748 0.00555493 8.96482e-05 -1.62851e-05 4.09383e-12 7.86208e-11 -2.73855e-11 5e-05 1.46608e-10 
165 1 0.100459 0.0169364 0.00738329 0.0056631 8.60098e-05 -5.27758e-05 2.30842e-11 1.38196e-10 -1.16977e-10 5e-05 1.46608e-10 
166 1 0.105901 0.0158497 0.00816513 0.00574774 -0.000130556 -0.000187423 -1.716e-10 -5.55869e-10 -1.79413e-10 5e-05 1.46608e-10 
167 1 0.100304 0.016686 0.007596 0.0061885 9.77774e-06 1.42917e-05 1.76274e-10 1.40424e-11 -8.84543e-12 5e-05 1.46608e-10 
168 1 0.100426 0.0175987 0.00713526 0.00564935 6.28035e-05 -1.06442e-05 8.58562e-12 4.42624e-11 -8.11017e-12 5e-05 1.46608e-10 
169 1 0.100576 0.0174706 0.00716649 0.0056406 5.87419e-05 -9.9976e-06 -5.78427e-11 4.71258e-11 -2.13668e-11 5e-05 1.46608e-10 
170 1 0.100501 0.0175349 0.0071508 0.00566602 8.82115e-05 -1.70459e-05 -7.81189e-11 -7.66516e-12 2.93064e-12 5e-05 1.46608e-10 
171 1 0.10631 0.0167095 0.00758394 0.00657234 2.43744e-05 -0.000352863 5.9591e-11 -1.78458e-10 -2.38091e-11 5e-05 1.46608e-10 
172 1 0.100748 0.0178873 0.00706549 0.00559092 7.9375e-05 -1.39764e-05 -3.1806e-11 6.75764e-11 -1.20613e-11 5e-05 1.46608e-10 
173 1 0.106566 0.0174487 0.00724266 0.00564979 0.000216019 0.000444795 -1.50517e-10 1.46701e-11 -4.7563e-12 5e-05 1.46608e-10 
174 1 0.100411 0.0178094 0.00717062 0.00562134 0.000121004 -9.57627e-06 -1.26724e-10 1.09547e-10 4.16384e-11 5e-05 1.46608e-10 
175 1 0.0971594 0.0170487 0.00727569 0.00571513 4.86355e-05 -2.08095e-05 1.32253e-12 9.9221e-15 -1.78436e-14 5e-05 1.46608e-10 
176 1 0.100269 0.0172806 0.00721365 0.00561522 9.57275e-05 -3.19356e-05 9.65904e-12 -6.04641e-11 5.8181e-12 5e-05 1.46608e-10 
177 1 0.10078 0.018103 0.00701315 0.00559756 1.28734e-05 2.3793e-06 7.18091e-11 -9.86271e-11 2.58347e-11 5e-05 1.46608e-10 
178 1 0.10073 0.0177882 0.00708954 0.00558227 0.000120683 -2.40561e-05 1.38982e-10 2.0926e-10 -5.04457e-11 5e-05 1.46608e-10 
179 1 0.0943019 0.0174327 0.00713801 0.00558703 -0.000453057 0.000254908 -2.65595e-11 2.15946e-11 9.99809e-11 5e-05 1.46608e-10 
180 1 0.100441 0.0172495 0.00722107 0.00559707 0.000107581 -3.49669e-05 -2.51597e-11 -5.57677e-11 2.76722e-11 5e-05 1.46608e-10 
181 1 0.100481 0.0174397 0.0071741 0.00562452 9.74711e-05 -2.86655e-05 -1.83791e-11 6.04803e-12 7.25614e-11 5e-05 1.46608e-10 
182 1 0.106486 0.0170854 0.00739159 0.00578902 0.00017292 0.000487317 1.99151e-10 -2.214e-10 -2.19476e-11 5e-05 1.46608e-10 
183 1 0.100596 0.0175659 0.00714338 0.00566455 5.89458e-05 -9.38821e-06 -5.91763e-11 -1.37069e-10 2.88035e-11 5e-05 1.46608e-10 
184 1 0.106455 0.0181714 0.00694758 0.00571735 0.000443379 -0.000109424 1.72544e-10 -3.11662e-09 1.6124e-09 5e-05 1.46608e-10 
185 1 0.100309 0.0174709 0.00716663 0.00562771 9.69859e-05 -3.51451e-05 -1.37191e-10 -3.9759e-11 2.12541e-11 5e-05 1.46608e-10 
186 1 0.100346 0.017218 0.007229 0.00561144 9.62162e-05 -3.21831e-05 3.61062e-11 -8.81889e-11 1.9237e-11 5e-05 1.46608e-10 
187 1 0.106507 0.017176 0.00735451 0.00583782 0.000193456 0.000473811 -2.64167e-10 4.18555e-11 -8.82162e-11 5e-05 1.46608e-10 
188 1 0.106512 0.0180178 0.00699229 0.00560336 0.000174598 0.000457949 -4.3986e-11 1.74893e-11 -6.12165e-11 5e-05 1.46608e-10 
189 1 0.106191 0.0166041 0.00765867 0.00621346 -0.000278661 -0.000133166 -1.34545e-10 1.80962e-10 -1.49805e-10 5e-05 1.46608e-10 
190 1 0.100779 0.0184551 0.00692769 0.00573587 2.31805e-05 1.67332e-07 9.10648e-11 -2.50857e-10 6.15956e-11 5e-05 1.46608e-10 
191 1 0.106515 0.0184696 0.00694068 0.00566256 0.000162389 -0.000316986 6.36441e-11 2.28188e-10 3.68923e-11 5e-05 1.46608e-10 
192 1 0.100386 0.0174082 0.00718198 0.00561309 8.36126e-05 -2.88159e-05 -1.44775e-10 -9.39022e-11 2.64038e-11 5e-05 1.46608e-10 
193 1 0.106534 0.0185676 0.00693841 0.00565029 0.000176927 -0.000317978 3.37055e-11 8.21835e-11 5.06627e-12 5e-05 1.46608e-10 
194 1 0.100229 0.0167361 0.00755311 0.00618356 5.2225e-06 1.76451e-05 6.14853e-11 -3.24666e-11 1.80542e-11 5e-05 1.46608e-10 
195 1 0.100521 0.0176302 0.0071277 0.00568533 8.49818e-05 -1.63666e-05 -3.39271e-11 -1.323e-11 3.31571e-12 5e-05 1.46608e-10 
196 1 0.0997758 0.0154392 0.00862837 0.00565554 -1.89032e-05 -7.87653e-05 8.24768e-12 -1.17724e-11 8.96317e-12 5e-05 1.46608e-10 
197 1 0.100467 0.0179614 0.00713023 0.00553702 0.000119669 -1.3293e-05 1.34434e-10 -9.99111e-11 -1.09553e-11 5e-05 1.46608e-10 
198 1 0.100229 0.0170905 0.00726064 0.00589282 4.36472e-05 -1.84827e-05 1.19917e-10 -6.58466e-11 3.97413e-11 5e-05 1.46608e-10 
199 1 0.100349 0.0176612 0.00711999 0.0056729 8.63432e-05 -1.67154e-05 2.46066e-11 3.6869e-11 -7.07034e-12 5e-05 1.46608e-10 
200 1 0.100249 0.0168107 0.00748961 0.00570978 8.36338e-05 -5.02819e-05 -1.55443e-10 -3.12531e-12 -1.06562e-12 5e-05 1.46608e-10 
201 1 0.100684 0.0184235 0.00693525 0.00569022 3.90913e-05 -4.01678e-06 -1.39641e-10 -1.75956e-10 4.46238e-11 5e-05 1.46608e-10 
203 1 0.106691 0.0179169 0.00705275 0.00557866 0.00021422 0.000440565 1.41733e-11 7.13078e-11 -2.32312e-11 5e-05 1.46608e-10 
204 1 0.100363 0.0169101 0.00740533 0.00567227 9.05854e-05 -5.46257e-05 -3.6488e-11 8.01308e-12 -3.97079e-12 5e-05 1.46608e-10 
205 1 0.100449 0.0180608 0.00712332 0.0055553 0.000106059 -2.1317e-05 -2.91319e-11 1.16637e-10 -2.40609e-11 5e-05 1.46608e-10 
206 1 0.100446 0.017694 0.00711212 0.00568292 8.15282e-05 -1.37378e-05 3.65726e-11 6.71591e-11 -2.66717e-12 5e-05 1.46608e-10 
207 1 0.100241 0.0164613 0.00778423 0.00617851 -5.93236e-05 -5.26619e-05 4.2384e-11 -3.52647e-11 -1.26004e-12 5e-05 1.46608e-10 
208 1 0.100329 0.017566 0.0071432 0.00565359 8.95583e-05 -2.98577e-05 -9.42639e-11 -9.39425e-12 1.69e-11 5e-05 1.46608e-10 
209 1 0.0943219 0.0175285 0.00711745 0.00559641 -0.000455342 0.000252979 -2.78492e-11 9.71636e-12 -1.10832e-11 5e-05 1.46608e-10 
210 1 0.105922 0.0159309 0.00811106 0.00601412 -0.000176204 -0.000182117 8.98199e-10 -6.81276e-10 5.10122e-10 5e-05 1.46608e-10 
211 1 0.106482 0.018135 0.00703702 0.0048063 0.000949865 -4.70641e-05 8.78234e-11 2.2525e-11 -1.51963e-09 5e-05 1.46608e-10 
212 1 0.10071 0.0176928 0.00711269 0.00563804 0.000198339 -4.27582e-05 -1.35142e-11 -1.29141e-10 3.11617e-11 5e-05 1.46608e-10 
213 1 0.106709 0.0177725 0.00711679 0.00559526 0.000243098 0.000428875 -1.01743e-10 1.71227e-10 -5.55607e-11 5e-05 1.46608e-10 
214 1 0.106509 0.0180016 0.00709422 0.00550543 0.00039202 0.000299448 5.54335e-10 -8.19795e-10 1.0427e-09 5e-05 1.46608e-10 
215 1 0.100421 0.0171544 0.00724458 0.00561215 0.0001048 -3.34942e-05 -3.15573e-11 -6.35739e-11 2.31558e-11 5e-05 1.46608e-10 
216 1 0.100496 0.0170901 0.00726034 0.00562031 0.000114098 -3.8942e-05 -8.84982e-11 -8.64624e-12 -6.28869e-12 5e-05 1.46608e-10 
217 1 0.106331 0.0167917 0.00752929 0.00634657 -0.000419 -4.90455e-05 -4.12237e-10 4.85421e-10 3.87049e-10 5e-05 1.46608e-10 
218 1 0.10056 0.0178208 0.00708146 0.00556347 0.000113717 -2.24154e-05 6.50088e-11 -4.36831e-12 1.21937e-11 5e-05 1.46608e-10 
219 1 0.106508 0.0182324 0.00703062 0.00547922 0.000653549 9.8435e-05 -4.58823e-10 3.53785e-10 3.21213e-10 5e-05 1.46608e-10 
220 1 0.100403 0.0170652 0.00728594 0.00562757 0.000100364 -3.91937e-05 -1.14299e-10 -1.15754e-11 -1.81314e-12 5e-05 1.46608e-10 
221 1 0.0942077 0.0170159 0.00738523 0.00566073 -0.000545548 0.000145452 -5.69799e-12 1.78629e-11 -1.36607e-11 5e-05 1.46608e-10 
222 1 0.106118 0.0166623 0.00762443 0.00615072 -0.000303642 -0.0001308 -1.17327e-10 3.64452e-10 -4.19659e-10 5e-05 1.46608e-10 
223 1 0.100461 0.0173446 0.00719756 0.00559716 0.00010476 -3.44431e-05 1.40069e-11 2.13491e-12 7.06894e-11 5e-05 1.46608e-10 
224 1 0.100249 0.0171855 0.00723716 0.0058894 4.15988e-05 -2.0166e-05 -1.42826e-11 -8.6262e-11 2.28652e-11 5e-05 1.46608e-10 
225 1 0.106625 0.0177208 0.007131 0.00560135 0.00024073 0.00043017 -1.20642e-10 1.31517e-10 -8.99471e-11 5e-05 1.46608e-10 
226 1 0.10048 0.0170112 0.00731961 0.00562551 9.67895e-05 -6.2222e-05 -1.07785e-10 1.34174e-12 7.21538e-12 5e-05 1.46608e-10 
227 1 0.094265 0.0172552 0.00721359 0.0055513 -0.000492049 0.000184031 -3.69444e-11 -2.85027e-12 1.32611e-12 5e-05 1.46608e-10 
228 1 0.0507861 0.0189683 0.00558458 -5.35935e-15 -1.91088e-14 -2.87013e-13 -2.13022e-22 2.03435e-23 3.51552e-24 5e-05 1.46608e-10 
229 1 0.100057 0.0161355 0.00805393 0.0060979 -0.00010353 -1.72339e-05 1.72788e-10 -2.48648e-10 1.90587e-10 5e-05 1.46608e-10 
230 1 0.100446 0.0181353 0.00705655 0.00557338 9.11941e-05 -2.00445e-05 6.60661e-12 5.0866e-11 -3.17174e-11 5e-05 1.46608e-10 
231 1 0.197479 0.018695 0.00523156 -1.10321e-15 -2.69832e-14 1.45243e-13 -2.02979e-22 -6.72084e-25 -1.65436e-24 5e-05 1.46608e-10 
232 1 0.100079 0.0162111 0.00799166 0.00612425 -6.41226e-05 -5.19076e-05 2.1733e-10 5.01341e-11 -5.92431e-11 5e-05 1.46608e-10 
233 1 0.100344 0.0168354 0.00746893 0.00569814 9.26369e-05 -5.79718e-05 -9.35778e-11 1.50349e-11 1.95001e-11 5e-05 1.46608e-10 
234 1 0.105862 0.0157266 0.00830847 0.00573179 0.000429029 0.000132799 -4.42343e-10 1.67377e-10 -1.31345e-09 5e-05 1.46608e-10 
235 1 0.100609 0.0184876 0.00691963 0.00568723 3.68788e-05 -2.44734e-06 -5.54755e-12 -3.42622e-12 -7.13381e-12 5e-05 1.46608e-10 
236 1 0.100628 0.018583 0.00689649 0.0056768 -3.5867e-06 6.26737e-06 6.97238e-11 4.42897e-11 -9.68388e-12 5e-05 1.46608e-10 
237 1 0.100537 0.0182698 0.00697243 0.00563808 7.2931e-05 -1.21725e-05 -1.94841e-11 2.93797e-12 -6.45126e-12 5e-05 1.46608e-10 
238 1 0.0943419 0.0176249 0.00709995 0.00559916 -0.000456021 0.000257592 -2.66113e-12 4.46166e-14 3.90714e-12 5e-05 1.46608e-10 
239 1 0.0941057 0.0166194 0.00767222 0.00601884 -0.000617445 0.000180955 -2.68664e-12 -2.84436e-12 1.68419e-12 5e-05 1.46608e-10 
240 1 0.0941893 0.0169362 0.00744281 0.0055929 -0.000534904 0.000140323 7.67296e-12 1.37578e-11 -4.82997e-12 5e-05 1.46608e-10 
241 1 0.0941274 0.0166985 0.00761495 0.0060204 -0.00061659 0.000180266 4.19931e-16 6.32605e-13 6.02076e-13 5e-05 1.46608e-10 
242 1 0.0944367 0.017656 0.00709255 0.00555807 -0.000348013 0.000231403 2.82084e-11 6.60132e-11 -2.49913e-11 5e-05 1.46608e-10 
243 1 0.094084 0.0165404 0.0077295 0.00601672 -0.000618121 0.000181565 -1.54869e-12 -6.85817e-12 5.20609e-12 5e-05 1.46608e-10 
244 1 0.0941492 0.0167775 0.00755767 0.00602424 -0.000615728 0.000179572 -5.00082e-13 1.90661e-11 -1.26e-11 5e-05 1.46608e-10 
245 1 0.0943617 0.0177201 0.00707634 0.00547107 -0.00043156 0.00024715 -4.89873e-11 -3.55025e-11 -9.29234e-13 5e-05 1.46608e-10 
246 1 0.0942263 0.0170955 0.00732767 0.005693 -0.00055132 0.000147032 -4.47198e-12 1.37216e-11 -1.7173e-11 5e-05 1.46608e-10 
247 1 0.100616 0.0176613 0.00712024 0.0056593 0.000150123 -2.98498e-05 -4.25551e-11 -7.74401e-11 1.90887e-11 5e-05 1.46608e-10 
248 1 0.100655 0.0178522 0.00707393 0.00557313 0.000108832 -2.14807e-05 -1.78513e-11 4.45594e-11 2.68472e-12 5e-05 1.46608e-10 