ITEM: TIMESTEP
29000000
ITEM: NUMBER OF ATOMS
212
ITEM: BOX BOUNDS ff ff ff
-0.02 0.43
-0.02 0.06
-0.02 0.07
ITEM: ATOMS id type x y z vx vy vz fx fy fz radius mass 
1 1 0.182554 0.0178754 0.00701838 0.00583104 -2.01552e-05 -0.000320613 1.10552e-10 1.16267e-10 -1.40939e-11 5e-05 1.46608e-10 
2 1 0.182175 0.0177548 0.00705692 0.00579531 -7.39729e-05 -0.000321944 4.15844e-11 9.28757e-11 -2.56189e-10 5e-05 1.46608e-10 
3 1 0.170169 0.0178115 0.0073482 0.00594669 0.000501843 -0.000461765 -6.76234e-13 6.12817e-13 -2.32789e-13 5e-05 1.46608e-10 
4 1 0.181917 0.0163492 0.00784274 0.00602762 -0.000243357 -0.000103526 -1.16354e-10 6.59746e-11 -4.1827e-11 5e-05 1.46608e-10 
5 1 0.182321 0.0176189 0.00706758 0.00549999 -0.000484392 -0.000231397 3.41158e-10 4.42076e-10 -2.19147e-10 5e-05 1.46608e-10 
6 1 0.187956 0.0168499 0.00754038 0.00618669 0.000320397 6.1178e-05 -1.3075e-11 -2.9065e-11 1.90006e-11 5e-05 1.46608e-10 
7 1 0.1817 0.0158923 0.00826064 0.00554001 -0.000115298 -0.000192953 -9.00153e-11 -1.31792e-10 1.17706e-10 5e-05 1.46608e-10 
8 1 0.18178 0.0161831 0.00799777 0.00587342 -0.000196379 -0.00013631 -4.80145e-10 1.36514e-10 -9.28674e-11 5e-05 1.46608e-10 
9 1 0.188159 0.0176768 0.00701633 0.00589494 0.00025304 -0.000154012 -6.86618e-11 2.97349e-11 -3.56135e-11 5e-05 1.46608e-10 
10 1 0.18172 0.0159652 0.00819502 0.00554155 -0.000121506 -0.000184554 -3.08372e-11 -1.04545e-10 1.2427e-10 5e-05 1.46608e-10 
11 1 0.18174 0.0160378 0.00812915 0.00554913 -0.000131842 -0.000177354 6.75539e-11 -5.07213e-11 6.53773e-11 5e-05 1.46608e-10 
13 1 0.182116 0.0174802 0.00715751 0.00520755 0.000128535 -0.00011565 -1.66951e-10 2.3191e-10 2.51215e-10 5e-05 1.46608e-10 
15 1 0.182109 0.017231 0.00733329 0.00637526 0.000149807 0.000130038 9.13515e-12 1.79109e-10 -1.17426e-10 5e-05 1.46608e-10 
17 1 0.182129 0.0171443 0.00728665 0.00624482 -1.04279e-06 0.000246551 -5.90429e-11 5.02153e-11 -3.32005e-11 5e-05 1.46608e-10 
18 1 0.1882 0.0178702 0.00698632 0.00591399 0.000241208 -0.000152495 6.17743e-11 -6.48102e-11 -3.99747e-13 5e-05 1.46608e-10 
19 1 0.181563 0.0153795 0.00871676 0.00568072 1.10883e-05 -1.50483e-05 2.05007e-11 -7.49453e-11 4.42667e-11 5e-05 1.46608e-10 
20 1 0.18239 0.0183666 0.00695807 0.00563448 -4.85814e-05 -0.000305884 -9.06343e-11 -1.15011e-10 2.27972e-11 5e-05 1.46608e-10 
21 1 0.181583 0.015454 0.00865312 0.00551333 3.35513e-05 -2.88062e-05 3.74711e-10 -2.0809e-10 -1.15497e-11 5e-05 1.46608e-10 
22 1 0.182439 0.0177481 0.00704279 0.00575442 -0.000157442 -0.000296676 1.88623e-11 -6.31467e-12 -3.98758e-12 5e-05 1.46608e-10 
23 1 0.176256 0.0181445 0.00703453 0.0055281 -9.84126e-05 -8.73994e-05 1.53396e-11 -6.70053e-11 -1.04199e-11 5e-05 1.46608e-10 
24 1 0.188141 0.0175936 0.00706875 0.0058522 0.000368422 1.57261e-05 -1.27316e-11 1.38429e-11 1.31526e-11 5e-05 1.46608e-10 
25 1 0.18217 0.0173202 0.0071988 0.00614767 4.8008e-05 0.000222142 1.77279e-10 -2.56097e-10 1.71388e-10 5e-05 1.46608e-10 
26 1 0.188042 0.0171798 0.00733129 0.00626566 0.000310435 7.14672e-05 5.60604e-11 -8.89175e-12 9.70071e-12 5e-05 1.46608e-10 
28 1 0.182371 0.0182697 0.00697286 0.00558112 -4.0983e-05 -0.000303982 -1.67345e-10 -5.69636e-11 1.86786e-11 5e-05 1.46608e-10 
29 1 0.182086 0.0169694 0.00737392 0.00623554 7.50829e-06 0.000242083 2.80808e-11 2.24513e-10 -1.03111e-10 5e-05 1.46608e-10 
30 1 0.182135 0.0175674 0.00711254 0.00540308 3.91413e-05 -0.000191055 9.59911e-11 3.26156e-10 4.93727e-10 5e-05 1.46608e-10 
31 1 0.18176 0.0161105 0.00806359 0.00567241 -0.000159285 -0.000159417 1.27385e-10 -4.2718e-12 -7.62804e-13 5e-05 1.46608e-10 
32 1 0.182064 0.016882 0.00741755 0.00622922 7.2203e-06 0.0002422 9.53813e-11 2.04477e-10 -1.10492e-10 5e-05 1.46608e-10 
33 1 0.187977 0.0169324 0.00748811 0.00620757 0.000317853 6.39584e-05 1.03833e-11 -1.80488e-11 1.57837e-11 5e-05 1.46608e-10 
34 1 0.18199 0.0169408 0.00738469 0.00625487 6.16843e-06 0.000246065 4.65807e-11 1.24406e-10 -5.29374e-11 5e-05 1.46608e-10 
36 1 0.18818 0.0177735 0.00700132 0.00591212 0.000247464 -0.00015374 1.33612e-10 3.67448e-11 -1.33911e-11 5e-05 1.46608e-10 
37 1 0.181896 0.0162767 0.00790836 0.00597249 -0.000241003 -0.000102372 -5.28936e-11 -1.60271e-10 1.57726e-10 5e-05 1.46608e-10 
38 1 0.182226 0.0171743 0.00727522 0.00648005 0.000446564 2.58052e-05 -1.44815e-10 1.34537e-10 -6.54457e-11 5e-05 1.46608e-10 
39 1 0.188123 0.0175105 0.00712155 0.00584136 0.000371321 1.30089e-05 4.01941e-11 -2.59854e-11 1.45757e-11 5e-05 1.46608e-10 
41 1 0.181622 0.0156015 0.00852378 0.00551271 -0.000107915 -0.000206133 -2.75907e-11 -6.08149e-11 -1.41671e-10 5e-05 1.46608e-10 
42 1 0.182203 0.0170858 0.00731937 0.0062024 -3.76509e-05 0.000263416 -1.00912e-10 3.15744e-12 -5.46366e-12 5e-05 1.46608e-10 
44 1 0.182216 0.0179482 0.00702687 0.00582284 -7.70265e-05 -0.000312745 4.32375e-11 6.93595e-11 -2.07856e-11 5e-05 1.46608e-10 
45 1 0.18802 0.0170973 0.00738356 0.00624619 0.000314938 6.77456e-05 -1.05536e-10 -2.53182e-11 -5.18024e-12 5e-05 1.46608e-10 
47 1 0.181661 0.0157471 0.00839251 0.00553646 -0.0001129 -0.000201098 -1.68485e-10 1.4578e-10 -5.66315e-11 5e-05 1.46608e-10 
49 1 0.188063 0.0172623 0.00727901 0.00628144 0.000305805 7.48422e-05 -6.68502e-12 3.84564e-12 -2.22376e-12 5e-05 1.46608e-10 
50 1 0.182505 0.0184949 0.0069336 0.00549266 8.23423e-05 -0.000316499 -2.47594e-10 -5.97129e-11 2.21671e-11 5e-05 1.46608e-10 
51 1 0.176427 0.0189988 0.00681259 0.00568242 -9.70349e-06 0.000174754 3.15535e-11 -1.34127e-10 5.99046e-11 5e-05 1.46608e-10 
52 1 0.18241 0.0184636 0.00694326 0.00553342 -2.38611e-05 -0.000303799 -1.32887e-10 -1.48536e-10 2.98965e-11 5e-05 1.46608e-10 
53 1 0.188085 0.0173448 0.00722674 0.00630318 0.00030159 7.8384e-05 -1.85038e-11 7.00322e-12 3.14858e-12 5e-05 1.46608e-10 
54 1 0.182465 0.0183007 0.00696322 0.0056267 -5.87775e-05 -0.000304 -7.75593e-11 -1.3609e-10 2.27547e-11 5e-05 1.46608e-10 
55 1 0.176217 0.0179566 0.0070904 0.00575805 -0.000149609 -7.63871e-05 4.46338e-11 -1.03003e-10 3.8694e-11 5e-05 1.46608e-10 
56 1 0.182365 0.0178149 0.00703746 0.00583048 -7.01135e-05 -0.000313985 3.28241e-11 1.55742e-11 -2.40576e-11 5e-05 1.46608e-10 
57 1 0.187999 0.0170149 0.00743583 0.00622204 0.000315293 6.55305e-05 3.0086e-11 -4.71179e-11 2.73915e-11 5e-05 1.46608e-10 
59 1 0.182151 0.0172323 0.00724277 0.00631782 0.000278834 0.000105167 -3.79804e-11 2.92949e-10 -1.43499e-10 5e-05 1.46608e-10 
60 1 0.18256 0.0183316 0.0069536 0.00553665 0.000197443 -0.00033521 -1.82404e-10 9.6785e-11 -3.49353e-12 5e-05 1.46608e-10 
61 1 0.181641 0.0156741 0.00845788 0.00552051 -0.000102922 -0.000197351 1.21949e-11 1.45164e-10 -1.39345e-10 5e-05 1.46608e-10 
62 1 0.182155 0.0176592 0.00707803 0.00562341 -3.85972e-05 -0.00029542 1.7368e-10 -1.06231e-10 -1.38149e-10 5e-05 1.46608e-10 
63 1 0.181842 0.016401 0.00780115 0.00602521 -0.000227727 -0.000115765 -3.13641e-10 -3.82525e-11 6.41643e-12 5e-05 1.46608e-10 
64 1 0.188105 0.0174275 0.00717429 0.00583668 0.000373462 1.19455e-05 1.79671e-10 -4.58012e-11 3.325e-11 5e-05 1.46608e-10 
65 1 0.17586 0.0164391 0.00769278 0.00614222 -0.000174576 6.79046e-05 -4.99463e-10 1.34824e-10 -6.40782e-11 5e-05 1.46608e-10 
66 1 0.175779 0.0161599 0.00796732 0.00579045 -0.000133682 2.73183e-05 -2.91671e-11 1.00961e-10 -1.00501e-10 5e-05 1.46608e-10 
67 1 0.182315 0.0184326 0.0069529 0.00564194 -3.18021e-05 -0.000308653 3.05149e-11 -4.86029e-11 6.73116e-12 5e-05 1.46608e-10 
69 1 0.18246 0.0178451 0.00702793 0.00583769 -6.06869e-05 -0.00031495 1.13183e-10 1.90251e-11 -2.08339e-11 5e-05 1.46608e-10 
70 1 0.18243 0.0185608 0.00692845 0.00549277 9.442e-05 -0.0003182 -1.20984e-10 -4.42736e-11 1.25424e-11 5e-05 1.46608e-10 
72 1 0.181958 0.0164943 0.00771147 0.00609525 -0.000253733 -9.81416e-05 8.36484e-11 -3.66007e-11 2.49098e-11 5e-05 1.46608e-10 
73 1 0.181883 0.0165458 0.00766961 0.00612416 -0.000230597 -0.000118321 1.29078e-10 -2.79861e-11 4.29018e-11 5e-05 1.46608e-10 
74 1 0.182335 0.0185295 0.00693812 0.00552205 -1.92301e-06 -0.00030621 -7.81193e-11 -1.31959e-11 4.79799e-12 5e-05 1.46608e-10 
76 1 0.145405 0.0205718 0.00539992 7.44766e-15 9.10944e-15 -2.35014e-13 1.28252e-22 -1.45338e-23 3.30872e-24 5e-05 1.46608e-10 
77 1 0.182296 0.0183357 0.00696769 0.00561433 -2.47692e-05 -0.000308104 -1.12326e-10 -5.06761e-11 1.2047e-11 5e-05 1.46608e-10 
78 1 0.176539 0.0185616 0.0069107 0.00577454 0.000471522 -0.000253284 7.29379e-11 -1.71679e-11 3.17865e-11 5e-05 1.46608e-10 
80 1 0.182354 0.0186266 0.00692334 0.00552901 -1.43411e-05 -0.000304844 -2.91652e-11 -1.45398e-11 4.66291e-12 5e-05 1.46608e-10 
81 1 0.176051 0.0172039 0.00730489 0.006171 -0.000259086 -5.55695e-05 1.82477e-11 -3.86317e-11 3.79877e-11 5e-05 1.46608e-10 
82 1 0.175966 0.0168285 0.00741295 0.00625236 -0.000339545 -0.000134044 8.22823e-12 1.2863e-10 -3.23375e-10 5e-05 1.46608e-10 
84 1 0.188221 0.017967 0.00697132 0.00592394 0.000239677 -0.000152284 8.19037e-11 -1.27435e-10 1.86412e-11 5e-05 1.46608e-10 
85 1 0.181602 0.0155286 0.00858939 0.00551137 -8.21597e-05 -0.000171405 -4.6727e-11 -3.05268e-10 -1.19835e-10 5e-05 1.46608e-10 
86 1 0.18254 0.0182345 0.00696842 0.00563748 -4.54354e-05 -0.000306486 -1.12091e-10 -2.41806e-10 4.04682e-11 5e-05 1.46608e-10 
87 1 0.182055 0.0172029 0.00725395 0.00627944 2.80404e-05 0.000234367 2.19499e-12 1.03181e-10 -5.47591e-11 5e-05 1.46608e-10 
88 1 0.182485 0.0183976 0.00694843 0.00554489 -4.34469e-05 -0.000301656 -1.16857e-10 -8.00478e-11 1.75167e-11 5e-05 1.46608e-10 
90 1 0.1825 0.0180396 0.00699818 0.00578062 1.85635e-05 -0.000323473 4.691e-11 3.99249e-11 -8.71678e-12 5e-05 1.46608e-10 
91 1 0.182012 0.0170281 0.00734117 0.00624369 1.51485e-05 0.000238971 -9.98836e-11 1.51671e-10 -7.18795e-11 5e-05 1.46608e-10 
92 1 0.182331 0.0180753 0.00700251 0.00580998 -4.88849e-05 -0.000315719 9.5928e-11 1.91848e-11 -4.8376e-12 5e-05 1.46608e-10 
93 1 0.188241 0.0180638 0.00695631 0.00566423 0.000299567 -0.000156851 -2.79831e-11 7.3183e-11 -8.40811e-12 5e-05 1.46608e-10 
94 1 0.18248 0.0179421 0.00701309 0.00582271 -3.48962e-05 -0.000318046 7.11007e-11 5.01731e-11 -8.96546e-12 5e-05 1.46608e-10 
95 1 0.181904 0.0166184 0.00760399 0.00616783 -0.000234751 -0.000117463 9.82739e-11 -8.49258e-12 -2.22597e-11 5e-05 1.46608e-10 
96 1 0.181925 0.0166935 0.00754148 0.00619057 -0.000203404 -8.03171e-05 5.42758e-11 4.82102e-11 -6.37484e-11 5e-05 1.46608e-10 
98 1 0.182575 0.0179729 0.00700348 0.00580026 5.04949e-05 -0.000329139 1.69186e-12 1.3409e-10 -1.77878e-11 5e-05 1.46608e-10 
99 1 0.176426 0.0180479 0.00705834 0.00556252 -1.36958e-06 -0.000114604 2.24721e-10 6.84501e-11 -3.19758e-11 5e-05 1.46608e-10 
101 1 0.176115 0.0174855 0.00722382 0.0056114 -0.000138717 -7.65197e-05 -6.74401e-11 1.7986e-10 -3.69587e-11 5e-05 1.46608e-10 
102 1 0.0694385 0.0202053 0.00537268 3.99282e-15 4.45007e-15 -7.68259e-14 -9.16232e-23 1.23806e-22 -1.24077e-24 5e-05 1.46608e-10 
104 1 0.0249839 0.0195037 0.00542543 -3.58898e-15 -5.78225e-16 5.85127e-14 9.30578e-25 -5.11333e-24 0 5e-05 1.46608e-10 
106 1 0.170123 0.0176227 0.00743042 0.00598009 0.000581439 -0.000497016 -4.14347e-13 6.45388e-13 -2.61236e-13 5e-05 1.46608e-10 
107 1 0.175944 0.0167348 0.00744027 0.00628273 -0.000346031 -0.000183153 -1.03636e-11 4.87076e-10 1.93081e-10 5e-05 1.46608e-10 
108 1 0.182043 0.0167944 0.00746131 0.00622638 -1.64551e-05 0.000251507 5.05341e-11 -9.26143e-12 -6.6241e-13 5e-05 1.46608e-10 
110 1 0.182635 0.0182655 0.00695879 0.00554766 0.000211607 -0.000337817 -2.53284e-10 3.19484e-11 9.75947e-12 5e-05 1.46608e-10 
111 1 0.176137 0.0175794 0.00719681 0.00521233 -5.79047e-05 -9.13711e-05 -3.07768e-11 2.18962e-10 -6.01103e-11 5e-05 1.46608e-10 
112 1 0.175881 0.016509 0.00762432 0.00620954 -0.00015717 0.000122708 2.73846e-12 2.45094e-10 -1.04101e-10 5e-05 1.46608e-10 
115 1 0.181969 0.016857 0.00743513 0.00623218 -3.36093e-05 0.000184891 1.14082e-10 1.0481e-10 -1.335e-11 5e-05 1.46608e-10 
116 1 0.18258 0.0184289 0.00693877 0.00550382 9.7218e-05 -0.000319223 -1.67492e-10 3.27839e-11 4.87328e-12 5e-05 1.46608e-10 
117 1 0.18252 0.0181375 0.00698324 0.00573089 0.000102107 -0.000332461 1.18772e-10 -1.13439e-10 8.23537e-12 5e-05 1.46608e-10 
118 1 0.17603 0.01711 0.0073318 0.00619669 -0.000271228 -4.95498e-05 1.66718e-11 -9.31644e-11 -8.48671e-13 5e-05 1.46608e-10 
119 1 0.182373 0.0187236 0.00690857 0.00554547 -3.70877e-05 -0.000302454 -1.5346e-10 -1.87819e-11 9.66675e-12 5e-05 1.46608e-10 
120 1 0.181543 0.015305 0.0087804 0.00568048 1.43114e-05 -2.37122e-05 -4.85063e-11 -8.25101e-11 9.63985e-11 5e-05 1.46608e-10 
121 1 0.182595 0.0180709 0.00698851 0.00575395 0.000119744 -0.000336304 -7.51605e-11 1.41945e-10 -1.61729e-11 5e-05 1.46608e-10 
122 1 0.182426 0.0181061 0.00699291 0.00577847 1.62904e-05 -0.000323213 9.66422e-11 -4.68951e-11 2.30495e-12 5e-05 1.46608e-10 
124 1 0.182256 0.0181418 0.00699727 0.00564207 -3.69936e-05 -0.000308265 -2.34888e-10 1.18615e-10 1.35794e-13 5e-05 1.46608e-10 
125 1 0.181937 0.0164218 0.00777709 0.00605558 -0.00024772 -0.000100893 -4.46731e-11 -6.20868e-11 5.25907e-11 5e-05 1.46608e-10 
126 1 0.181821 0.0163286 0.00786691 0.00599475 -0.000220691 -0.000119866 1.23006e-10 2.78594e-11 -4.1563e-11 5e-05 1.46608e-10 
127 1 0.17639 0.0179046 0.00709962 0.00572827 -8.66065e-05 -9.37794e-05 -1.62771e-10 4.1348e-11 -1.10146e-11 5e-05 1.46608e-10 
128 1 0.18227 0.0177848 0.00704697 0.0058174 -8.05588e-05 -0.0003131 5.78669e-12 5.7202e-11 -4.0325e-11 5e-05 1.46608e-10 
129 1 0.176314 0.0184275 0.00695329 0.00564835 -8.59423e-05 -9.2243e-05 1.5738e-11 -2.1979e-10 8.03598e-11 5e-05 1.46608e-10 
131 1 0.176237 0.0180502 0.00706159 0.00575781 -0.000146101 -7.7336e-05 -6.41779e-11 -1.23277e-10 2.66453e-11 5e-05 1.46608e-10 
132 1 0.182034 0.0171154 0.00729763 0.00624887 2.38806e-05 0.000235302 -8.68306e-11 1.47746e-10 -6.87587e-11 5e-05 1.46608e-10 
133 1 0.182524 0.0185923 0.00691876 0.0055354 -7.32676e-05 -0.000296883 -1.18575e-10 1.01715e-10 -9.26203e-12 5e-05 1.46608e-10 
134 1 0.18229 0.0178816 0.00703216 0.0058272 -7.59255e-05 -0.00031365 3.48985e-11 5.2733e-11 -3.46149e-11 5e-05 1.46608e-10 
135 1 0.181862 0.0164733 0.00773523 0.00607849 -0.000227783 -0.00011873 -4.31431e-11 -4.30511e-11 4.53956e-11 5e-05 1.46608e-10 
136 1 0.176291 0.0178916 0.00710534 0.0057359 -0.000186741 -6.54611e-05 -6.70155e-11 -4.45849e-11 1.33809e-11 5e-05 1.46608e-10 
137 1 0.182311 0.0179784 0.00701735 0.00582389 -7.59348e-05 -0.00031222 7.61323e-11 -1.16142e-11 -3.12138e-12 5e-05 1.46608e-10 
138 1 0.181947 0.0167737 0.00748597 0.00618674 -0.000118889 3.34601e-05 6.96783e-11 1.01338e-10 -1.84953e-11 5e-05 1.46608e-10 
140 1 0.182236 0.018045 0.00701207 0.00582292 -7.73192e-05 -0.000312118 5.61466e-11 6.62077e-11 -5.13378e-12 5e-05 1.46608e-10 
141 1 0.175922 0.01665 0.00748862 0.00628465 -5.60229e-05 0.000285398 -6.05008e-11 2.10949e-10 -2.72225e-10 5e-05 1.46608e-10 
143 1 0.393994 0.0150325 6.48596e-05 -2.1271e-21 1.6267e-21 -1.45327e-21 0 0 0 5e-05 1.46608e-10 
146 1 0.176445 0.0181422 0.00703126 0.00548804 -0.000144617 -7.24899e-05 8.47482e-11 2.30647e-10 -6.16864e-11 5e-05 1.46608e-10 
147 1 0.176295 0.0183331 0.00698037 0.00550123 -8.15339e-05 -9.08909e-05 -3.44879e-10 -2.14455e-10 7.57326e-11 5e-05 1.46608e-10 
148 1 0.00863616 0.0170123 0.00818726 -0.00286587 0.0271641 -0.0128763 5.01006e-11 3.79699e-11 -1.05903e-10 5e-05 1.46608e-10 
149 1 0.182187 0.0174082 0.00715468 0.00584416 0.000104978 0.000177574 -2.87033e-10 -8.96443e-11 4.43186e-11 5e-05 1.46608e-10 
150 1 0.175759 0.01609 0.00803606 0.00555202 -9.83895e-05 -1.52394e-06 4.59542e-11 1.04448e-10 -9.64219e-11 5e-05 1.46608e-10 
151 1 0.176432 0.0185117 0.00692703 0.00552012 1.56625e-05 -0.000118796 -1.30469e-10 6.5829e-11 4.61898e-12 5e-05 1.46608e-10 
154 1 0.176312 0.017986 0.0070782 0.00575674 -0.00015058 -7.61609e-05 1.10547e-11 -4.64269e-12 5.30538e-13 5e-05 1.46608e-10 
155 1 0.170191 0.017901 0.00730923 0.00594034 0.000503238 -0.000462093 -7.82106e-13 6.33341e-13 -2.381e-13 5e-05 1.46608e-10 
157 1 0.176177 0.0177677 0.00714274 0.00555945 -0.000120373 -8.07925e-05 -5.42712e-10 1.76672e-10 -4.04449e-11 5e-05 1.46608e-10 
165 1 0.176451 0.0186077 0.00689948 0.00558595 0.0001357 -0.000152098 9.5404e-11 -1.07029e-10 1.78747e-11 5e-05 1.46608e-10 
166 1 0.181875 0.0162041 0.00797398 0.00590525 -0.000237895 -0.000101651 1.79109e-10 -2.42284e-10 2.11874e-10 5e-05 1.46608e-10 
168 1 0.23004 0.0180258 0.0077347 0.0233796 0.0227127 -0.00816575 -3.51433e-10 -1.32001e-10 -2.62368e-11 5e-05 1.46608e-10 
171 1 0.1818 0.0162557 0.0079321 0.00597142 -0.000211564 -0.000127066 -7.1822e-11 1.03482e-10 -8.24786e-11 5e-05 1.46608e-10 
172 1 0.176331 0.0180806 0.00705105 0.00554599 -6.88173e-05 -9.45227e-05 1.48379e-10 -1.26653e-11 6.37288e-11 5e-05 1.46608e-10 
176 1 0.17584 0.0163693 0.00776139 0.00609903 -0.000169886 5.28605e-05 -2.32597e-10 -1.57781e-11 2.23892e-11 5e-05 1.46608e-10 
177 1 0.175902 0.0165792 0.00755619 0.00628147 -9.35045e-05 0.000228457 -5.49247e-11 3.07743e-10 -2.71722e-10 5e-05 1.46608e-10 
179 1 0.170179 0.0174733 0.00749166 0.00598643 0.000580043 -0.000496687 -3.0109e-13 6.26918e-13 -2.57719e-13 5e-05 1.46608e-10 
181 1 0.17582 0.0162994 0.00783014 0.00602381 -0.000155796 4.49251e-05 1.61552e-10 -1.08266e-11 -7.98202e-11 5e-05 1.46608e-10 
182 1 0.182022 0.0167166 0.00752075 0.00619045 -0.000155162 6.20683e-05 -2.1126e-11 -2.95792e-11 -5.196e-11 5e-05 1.46608e-10 
184 1 0.182195 0.0178515 0.00704168 0.00581511 -7.42013e-05 -0.000314028 3.457e-11 8.27943e-11 -8.51163e-12 5e-05 1.46608e-10 
187 1 0.182205 0.0174961 0.00711066 0.00552895 0.000157391 0.000121699 -7.16124e-10 -1.80923e-11 -1.11217e-10 5e-05 1.46608e-10 
188 1 0.182446 0.0182036 0.00697803 0.00562942 9.76863e-07 -0.00031267 -5.68989e-11 -9.61739e-11 1.43349e-11 5e-05 1.46608e-10 
189 1 0.182344 0.017718 0.00705231 0.00575693 -0.000160661 -0.000296397 -1.61599e-11 6.58791e-12 -2.87851e-11 5e-05 1.46608e-10 
191 1 0.182076 0.0172957 0.00722375 0.00610452 4.70248e-05 0.000144423 -1.55127e-10 1.2487e-10 -2.26417e-10 5e-05 1.46608e-10 
192 1 0.172851 0.0168068 0.00795711 0.0156775 0.0380097 -0.0283958 5.7561e-12 1.96807e-10 -1.32176e-10 5e-05 1.46608e-10 
193 1 0.185129 0.0178187 0.00700763 0.00609363 0.00204962 -0.00127683 -1.33939e-12 -1.44409e-11 8.00603e-12 5e-05 1.46608e-10 
197 1 0.175739 0.0160201 0.00810481 0.00555699 -9.53284e-05 -5.73287e-06 2.03666e-11 1.25565e-10 -1.16077e-10 5e-05 1.46608e-10 
198 1 0.17637 0.0182695 0.00699681 0.00554769 -4.92151e-05 -0.000100805 3.59855e-11 5.87744e-11 -2.05901e-11 5e-05 1.46608e-10 
200 1 0.176408 0.0189018 0.00682755 0.0056673 -3.57535e-06 0.00017913 1.06021e-13 -8.06892e-11 8.16423e-12 5e-05 1.46608e-10 
201 1 0.176333 0.0185219 0.0069262 0.00550509 -4.8566e-05 -9.87374e-05 -1.83041e-10 -1.48617e-10 4.82491e-11 5e-05 1.46608e-10 
203 1 0.182096 0.0173884 0.0071921 0.00570712 7.0435e-05 -1.32975e-05 -2.29151e-10 4.86611e-11 -2.64174e-10 5e-05 1.46608e-10 
204 1 0.170102 0.0175332 0.00746939 0.00598643 0.000580043 -0.000496688 -2.96647e-13 6.13576e-13 -2.39361e-13 5e-05 1.46608e-10 
206 1 0.170147 0.017722 0.00738718 0.00595303 0.000500447 -0.000461437 -5.66061e-13 5.68334e-13 -2.14621e-13 5e-05 1.46608e-10 
207 1 0.060646 0.0186723 0.00546139 1.16233e-15 5.18595e-15 3.71388e-14 -6.33956e-24 1.91286e-24 0 5e-05 1.46608e-10 
208 1 0.176276 0.0182388 0.00700745 0.00556167 -0.000106209 -8.44448e-05 3.35593e-11 -1.59132e-10 5.25092e-11 5e-05 1.46608e-10 
209 1 0.169878 0.0166126 0.00787029 0.00614828 0.000963951 -0.000666741 9.46618e-13 6.76993e-13 -3.43517e-13 5e-05 1.46608e-10 
210 1 0.182385 0.0179117 0.00702264 0.00583081 -6.89635e-05 -0.000313607 9.24427e-11 -3.27974e-11 -1.33133e-11 5e-05 1.46608e-10 
211 1 0.176389 0.0188052 0.00684491 0.00563262 -5.15564e-05 -0.000102584 8.92142e-12 -6.22288e-11 -1.19297e-11 5e-05 1.46608e-10 
212 1 0.176073 0.0172977 0.00727781 0.00615415 -0.000254191 -5.51493e-05 3.1516e-11 2.18844e-11 -1.58444e-11 5e-05 1.46608e-10 
213 1 0.182249 0.0176879 0.00706183 0.00566595 -0.000262775 -0.000283655 -2.16656e-10 -3.05713e-11 2.70665e-10 5e-05 1.46608e-10 
214 1 0.182393 0.0188206 0.00689379 0.0055592 -5.87337e-05 -0.000300431 3.73038e-11 -3.15698e-11 3.19305e-12 5e-05 1.46608e-10 
217 1 0.181979 0.0165668 0.00764585 0.00613775 -0.000259167 -9.32971e-05 1.61166e-10 4.9826e-12 -8.39087e-12 5e-05 1.46608e-10 
218 1 0.182449 0.018658 0.00691365 0.00552969 -7.11577e-05 -0.000296955 -4.69729e-11 1.00754e-10 -8.27203e-12 5e-05 1.46608e-10 
221 1 0.169796 0.0162736 0.00801794 0.00621928 0.00115229 -0.000749818 1.37781e-12 8.4211e-13 -4.56656e-13 5e-05 1.46608e-10 
222 1 0.181681 0.0158196 0.00832638 0.0055397 -0.000113685 -0.000198265 -1.2673e-10 -4.80653e-11 7.98691e-11 5e-05 1.46608e-10 
223 1 0.191 0.0172565 0.00718271 0.00551755 -0.000815133 0.000323943 -1.23161e-12 1.73012e-13 -6.69979e-14 5e-05 1.46608e-10 
225 1 0.182226 0.0175893 0.00707703 0.00542453 -0.000260102 -0.000260701 6.15165e-10 -6.27593e-12 -1.68928e-11 5e-05 1.46608e-10 
226 1 0.176196 0.017862 0.00711566 0.00572029 -0.000140426 -7.79365e-05 -1.17693e-10 -3.44162e-11 7.19624e-12 5e-05 1.46608e-10 
228 1 0.0507861 0.0189683 0.00558458 -5.35776e-15 -1.91093e-14 -2.87013e-13 9.28736e-23 6.33827e-23 -6.61744e-24 5e-05 1.46608e-10 
231 1 0.197479 0.018695 0.00523156 -1.07236e-15 -2.69847e-14 1.45243e-13 -1.94387e-23 -4.3944e-24 -6.20385e-25 5e-05 1.46608e-10 
232 1 0.189081 0.0184947 0.00541361 -2.16541e-15 1.28699e-15 5.80691e-14 5.12529e-23 1.04457e-22 -2.06795e-25 5e-05 1.46608e-10 
234 1 0.182406 0.0180088 0.00700779 0.00581986 -4.1298e-05 -0.000317297 3.31511e-11 -8.1186e-11 1.1329e-11 5e-05 1.46608e-10 
235 1 0.194679 0.0184196 0.00544868 1.50889e-14 9.62598e-14 2.34558e-13 1.10548e-21 -1.00709e-22 -2.99853e-23 5e-05 1.46608e-10 
238 1 0.169901 0.0167063 0.00782951 0.00612964 0.000915896 -0.000645523 8.00048e-13 6.94463e-13 -3.55857e-13 5e-05 1.46608e-10 
239 1 0.169687 0.0157832 0.00823443 0.00555478 -7.34409e-05 8.36014e-05 -3.5322e-11 -2.45439e-11 -2.91013e-11 5e-05 1.46608e-10 
240 1 0.169767 0.0161531 0.00807042 0.00624576 0.00122441 -0.000781601 1.59055e-12 7.86254e-13 -3.54876e-13 5e-05 1.46608e-10 
241 1 0.169706 0.0158535 0.00816593 0.00562808 0.0004578 0.000654415 5.88854e-11 6.66046e-11 -2.65641e-11 5e-05 1.46608e-10 
242 1 0.170213 0.0179905 0.00727025 0.005934 0.000504634 -0.000462422 -9.01164e-13 6.61298e-13 -2.42818e-13 5e-05 1.46608e-10 
243 1 0.169667 0.0157142 0.00830395 0.00562193 -0.000601553 -0.000426884 1.35428e-11 -1.17296e-11 3.35837e-11 5e-05 1.46608e-10 
244 1 0.169723 0.0159489 0.00814168 0.00557644 0.000463794 0.000644235 -6.23542e-11 1.45796e-10 -1.15807e-10 5e-05 1.46608e-10 
245 1 0.169925 0.0168062 0.00778598 0.00611023 0.000866675 -0.000623778 6.38737e-13 7.88672e-13 -3.69251e-13 5e-05 1.46608e-10 
246 1 0.169826 0.0163966 0.00796438 0.00619293 0.00108152 -0.000718615 1.20612e-12 8.34282e-13 -4.07634e-13 5e-05 1.46608e-10 
248 1 0.175799 0.0162298 0.00789861 0.00602353 -0.000163492 5.40528e-05 -1.44382e-11 1.02844e-10 -1.02699e-10 5e-05 1.46608e-10 
249 1 0.169976 0.0170153 0.00769494 0.00607141 0.000770973 -0.000581449 4.3395e-13 5.74886e-13 -2.42937e-13 5e-05 1.46608e-10 
250 1 0.177172 0.015583 0.0146791 0.00229088 0.0135947 0.0115031 -2.86308e-10 -1.9948e-09 -5.44454e-10 5e-05 1.46608e-10 
251 1 0.182108 0.0170567 0.0073304 0.00622989 3.70208e-06 0.000243083 -1.38782e-10 2.88212e-10 -1.61352e-10 5e-05 1.46608e-10 
252 1 0.16995 0.0169091 0.0077412 0.00609083 0.000818334 -0.000602404 5.45131e-13 6.08924e-13 -2.9146e-13 5e-05 1.46608e-10 
254 1 0.166358 0.0172241 0.0080583 -4.41113e-07 -0.0210665 0.0111922 -4.76648e-14 3.27576e-11 6.9174e-12 5e-05 1.46608e-10 
255 1 0.176157 0.0176736 0.00716977 0.0052183 -5.80942e-05 -9.11019e-05 -3.6851e-10 2.44403e-10 -6.10299e-11 5e-05 1.46608e-10 
256 1 0.180272 0.0176777 0.00783622 0.0118047 0.028995 -0.0156014 -1.42237e-10 -2.12389e-11 -7.87136e-11 5e-05 1.46608e-10 
257 1 0.176351 0.0181752 0.00702389 0.00551649 -6.16798e-05 -9.58934e-05 9.89809e-11 -8.76941e-11 1.67178e-11 5e-05 1.46608e-10 
258 1 0.176485 0.0182301 0.00700558 0.00526946 -6.00762e-05 -9.17155e-05 4.21682e-11 1.55785e-10 -4.45513e-11 5e-05 1.46608e-10 
259 1 0.170003 0.0171245 0.00764738 0.00605213 0.000725063 -0.000561115 2.18317e-13 6.75608e-13 -3.09539e-13 5e-05 1.46608e-10 
260 1 0.17639 0.0183642 0.00696962 0.00565239 -6.24316e-05 -9.91781e-05 3.63998e-11 -2.79481e-10 7.52018e-11 5e-05 1.46608e-10 
261 1 0.176482 0.0183263 0.00697845 0.0056502 -4.82047e-05 -0.000102892 6.95424e-11 3.74587e-11 -1.40198e-11 5e-05 1.46608e-10 
262 1 0.176469 0.0184221 0.00695161 0.00558254 3.42953e-05 -0.000125172 -8.42632e-11 5.28747e-11 -1.75174e-11 5e-05 1.46608e-10 
263 1 0.170219 0.0176565 0.00741205 0.00595303 0.000500446 -0.000461436 -5.52392e-13 6.00536e-13 -2.34768e-13 5e-05 1.46608e-10 
265 1 0.176351 0.0186163 0.0068991 0.00556611 -4.93919e-05 -0.000100808 -1.16648e-11 -1.59434e-10 1.89247e-11 5e-05 1.46608e-10 
270 1 0.182351 0.0181726 0.00698768 0.0056056 6.93399e-05 -0.00032109 -1.73866e-10 1.83486e-10 -1.7441e-11 5e-05 1.46608e-10 
271 1 0.237542 0.0179721 0.00775438 0.0325745 0.0268248 -0.00820153 -4.05845e-10 -1.18098e-10 -3.98012e-11 5e-05 1.46608e-10 
272 1 0.170057 0.0173475 0.00755028 0.00601496 0.000640465 -0.000523579 -7.2657e-14 6.44516e-13 -2.74439e-13 5e-05 1.46608e-10 
273 1 0.0733587 0.0172258 0.00804903 -0.0108861 0.0232556 -0.0151208 1.49707e-10 1.09972e-10 -1.47425e-10 5e-05 1.46608e-10 
274 1 0.17003 0.0172355 0.00759905 0.00603325 0.000681407 -0.000541758 1.11524e-13 5.64783e-13 -2.46192e-13 5e-05 1.46608e-10 
275 1 0.17637 0.0187107 0.00687201 0.00560081 -4.78139e-05 -0.000101719 -2.41912e-11 -9.07135e-11 7.94939e-11 5e-05 1.46608e-10 
276 1 0.176094 0.0173916 0.00725082 0.00598007 -0.000214958 -6.12876e-05 -1.39687e-10 1.4123e-10 -3.79748e-11 5e-05 1.46608e-10 
277 1 0.175987 0.0169224 0.00738575 0.00623073 -0.00030664 -4.60656e-05 -6.75794e-11 -1.97108e-11 -3.83279e-12 5e-05 1.46608e-10 
279 1 0.170234 0.0180802 0.00723117 0.00591446 0.000451698 -0.00043909 -1.02841e-12 6.12771e-13 -2.18447e-13 5e-05 1.46608e-10 
282 1 0.169857 0.0165226 0.00790948 0.00616661 0.00101183 -0.000687873 1.08893e-12 6.95152e-13 -3.00894e-13 5e-05 1.46608e-10 
283 1 0.169741 0.0160443 0.00811729 0.00595627 0.000305192 0.000313753 -3.54703e-11 -5.15585e-11 4.24918e-11 5e-05 1.46608e-10 
284 1 0.176012 0.0170155 0.00735916 0.00621904 -0.000287995 -4.51647e-05 -7.57897e-11 -1.04758e-10 -1.02217e-11 5e-05 1.46608e-10 
288 1 0.17647 0.0179616 0.00708183 0.00563438 4.04311e-05 -0.000127681 -1.73929e-10 -7.39972e-11 1.82867e-11 5e-05 1.46608e-10 
293 1 0.17008 0.0174437 0.00750837 0.00599278 0.000578648 -0.000496359 -1.89002e-13 5.96449e-13 -2.46447e-13 5e-05 1.46608e-10 
294 1 0.152576 0.0182562 0.00546336 5.2584e-16 -1.41891e-15 1.14578e-14 -3.01662e-23 3.16138e-23 5.99706e-24 5e-05 1.46608e-10 
295 1 0.216741 0.0175673 0.00789291 -5.75612e-10 -0.0222932 0.00916596 -1.7845e-18 8.30036e-12 2.02132e-11 5e-05 1.46608e-10 
297 1 0.182276 0.0182388 0.00698248 0.00558198 -2.19961e-05 -0.000306739 -1.76614e-10 1.89236e-11 4.14803e-12 5e-05 1.46608e-10 
300 1 0.182 0.0166394 0.00758022 0.00615038 -0.000264322 -9.33675e-05 1.90807e-11 5.4056e-12 -3.058e-11 5e-05 1.46608e-10 
