ITEM: TIMESTEP
2200000
ITEM: NUMBER OF ATOMS
284
ITEM: BOX BOUNDS ff ff ff
-0.02 0.43
-0.02 0.06
-0.02 0.07
ITEM: ATOMS id type x y z vx vy vz fx fy fz radius mass 
1 1 0.0256864 0.0164505 0.00773902 0.00614471 -0.000143352 0.000230714 5.68294e-12 3.74591e-11 -3.30152e-11 5e-05 1.46608e-10 
2 1 0.026026 0.017059 0.00728232 0.00571904 -0.000279468 6.71405e-05 8.58652e-11 1.04435e-10 -9.73466e-11 5e-05 1.46608e-10 
3 1 0.0199223 0.0174251 0.007173 0.00521857 -0.00219471 0.000878113 5.30256e-11 9.59721e-12 -1.11264e-10 5e-05 1.46608e-10 
4 1 0.0260975 0.0178046 0.00713271 0.00564085 0.000204553 -0.000212251 -1.88949e-10 1.06727e-10 -1.3544e-11 5e-05 1.46608e-10 
5 1 0.0255689 0.0163471 0.00781476 0.00614995 -0.000134468 0.000223796 4.17935e-11 1.07358e-10 -6.62316e-11 5e-05 1.46608e-10 
6 1 0.031635 0.0165539 0.0075763 0.00626556 -0.000286807 -6.10044e-06 5.18856e-12 1.31414e-11 -1.58969e-11 5e-05 1.46608e-10 
7 1 0.0258104 0.0169209 0.00738624 0.00567581 -1.05886e-05 0.000113799 -5.68473e-11 1.6145e-10 -1.69539e-10 5e-05 1.46608e-10 
8 1 0.025514 0.0160334 0.0080505 0.00611729 -0.000136578 0.000224491 -1.26677e-10 -6.97122e-11 4.89495e-11 5e-05 1.46608e-10 
9 1 0.0318765 0.017623 0.00710232 0.00562882 -4.23098e-05 -0.00023115 9.9871e-12 -3.63792e-12 -9.38984e-12 5e-05 1.46608e-10 
10 1 0.0257534 0.0170539 0.00728753 0.00579523 -0.000140278 6.68406e-05 -2.40658e-11 2.01312e-11 -8.02596e-11 5e-05 1.46608e-10 
11 1 0.0258695 0.0171805 0.00725685 0.00579723 -0.000196649 -8.58569e-05 1.03451e-10 -5.90858e-11 1.97571e-10 5e-05 1.46608e-10 
12 1 0.025951 0.0175649 0.00718183 0.00561431 -0.000110725 -0.000153359 -4.52725e-11 1.59716e-10 -5.23089e-11 5e-05 1.46608e-10 
13 1 0.0256556 0.0166595 0.00758056 0.00620377 -0.000109093 0.000213049 -5.89028e-11 9.73378e-11 -1.25462e-10 5e-05 1.46608e-10 
14 1 0.0196473 0.0166027 0.00757153 0.00567417 -0.00234323 0.0009365 9.86705e-11 -1.25559e-11 -1.47086e-11 5e-05 1.46608e-10 
15 1 0.0258561 0.0175344 0.00719045 0.00561363 -0.000148724 -0.000153384 -1.6509e-10 -1.35302e-10 -1.00659e-11 5e-05 1.46608e-10 
16 1 0.0196258 0.0165147 0.00761392 0.00573023 -0.00234335 0.000958003 1.7635e-10 9.91119e-11 3.39303e-10 5e-05 1.46608e-10 
17 1 0.0257156 0.0168946 0.00740419 0.00569441 -8.11778e-05 7.14281e-05 2.75673e-11 2.47059e-10 -2.35462e-10 5e-05 1.46608e-10 
18 1 0.031777 0.0171665 0.00727862 0.00579064 7.81264e-05 0.000229541 -3.15366e-11 -2.47758e-12 7.86421e-12 5e-05 1.46608e-10 
19 1 0.0255255 0.0161909 0.00793186 0.00612529 -0.000133466 0.00022269 3.82452e-11 -2.76427e-11 2.08184e-11 5e-05 1.46608e-10 
20 1 0.0260262 0.0174997 0.00719164 0.00558735 -0.0001502 -0.000139912 1.24421e-12 -1.18328e-10 -4.47502e-12 5e-05 1.46608e-10 
21 1 0.0255472 0.016269 0.00787331 0.00613975 -0.000132698 0.00022229 -8.97615e-11 3.45714e-11 -2.67954e-11 5e-05 1.46608e-10 
22 1 0.0259106 0.0173725 0.00721888 0.00578118 -0.000204334 -0.000141934 -5.05613e-11 -1.35069e-10 -8.08447e-12 5e-05 1.46608e-10 
23 1 0.0199841 0.0181563 0.00701033 0.00506262 -0.00235531 0.000561501 4.21274e-13 2.69031e-13 1.84746e-15 5e-05 1.46608e-10 
24 1 0.0318568 0.0175289 0.00712991 0.00560529 -3.85598e-05 -0.000233014 -6.46168e-11 -1.74576e-12 3.85312e-11 5e-05 1.46608e-10 
25 1 0.0258287 0.0170002 0.00732673 0.00574802 -7.40017e-05 0.000162545 -7.6546e-11 1.43205e-10 -1.25628e-10 5e-05 1.46608e-10 
26 1 0.0317166 0.0168966 0.00739486 0.00571529 8.50639e-05 0.000222505 -3.99639e-12 3.16381e-12 2.29652e-11 5e-05 1.46608e-10 
27 1 0.0199059 0.0177686 0.00707103 0.00520091 -0.00230788 0.000553048 -4.47572e-11 -3.32504e-10 1.74503e-10 5e-05 1.46608e-10 
28 1 0.0256773 0.0167376 0.00752203 0.00622221 -9.72439e-05 0.000205927 -4.84719e-11 1.76323e-10 -1.64363e-10 5e-05 1.46608e-10 
29 1 0.0257081 0.0165286 0.00768046 0.00616638 -0.0001428 0.000230215 1.3598e-13 2.12163e-11 -1.34657e-11 5e-05 1.46608e-10 
30 1 0.0261397 0.0176299 0.00716391 0.00557175 -0.00013762 -0.000147071 -2.82191e-11 -3.19256e-11 1.36018e-11 5e-05 1.46608e-10 
31 1 0.0258359 0.0174382 0.00720896 0.00578924 -0.000192378 -0.000142585 -6.9465e-11 -2.7227e-10 3.49581e-12 5e-05 1.46608e-10 
32 1 0.02589 0.0172764 0.00723744 0.00578773 -0.000202109 -0.000136775 -3.66836e-12 -1.26041e-10 1.90874e-10 5e-05 1.46608e-10 
33 1 0.0316561 0.0166267 0.0075111 0.00563992 9.34354e-05 0.000215471 7.7926e-12 2.19647e-11 -1.52504e-11 5e-05 1.46608e-10 
34 1 0.0257342 0.0169733 0.00734532 0.00574648 -8.32527e-05 9.95659e-05 -2.22534e-11 1.97774e-10 4.00367e-11 5e-05 1.46608e-10 
36 1 0.0318962 0.0177171 0.00707473 0.0056512 -4.75344e-05 -0.000229993 -2.28739e-12 -5.27211e-13 -1.6609e-12 5e-05 1.46608e-10 
37 1 0.0257739 0.0171485 0.00726251 0.00579753 -0.000143228 5.04014e-05 -7.29744e-11 -4.70329e-11 1.21551e-11 5e-05 1.46608e-10 
38 1 0.0259309 0.0174687 0.00720036 0.00563693 -0.000121513 -0.000150138 -7.41431e-11 -1.02187e-10 5.03459e-11 5e-05 1.46608e-10 
39 1 0.0318373 0.0174364 0.00716237 0.00560267 0.000114559 0.000206667 7.98757e-11 4.49236e-11 -1.72802e-11 5e-05 1.46608e-10 
41 1 0.0255906 0.0164252 0.00775621 0.00614993 -0.000133694 0.000223099 8.29977e-11 4.55846e-11 -4.36219e-11 5e-05 1.46608e-10 
42 1 0.0258153 0.0173421 0.00722748 0.00578432 -0.000200298 -0.000137729 -9.03623e-11 -3.1913e-10 7.48317e-11 5e-05 1.46608e-10 
44 1 0.0260061 0.0174035 0.00721017 0.0055977 -0.000172548 -0.000165051 3.93148e-12 -1.80695e-10 -1.84268e-10 5e-05 1.46608e-10 
45 1 0.0316964 0.0168066 0.0074336 0.00568998 8.69544e-05 0.000220486 1.98365e-11 1.54934e-12 -2.47449e-11 5e-05 1.46608e-10 
46 1 0.0317569 0.0170765 0.00731736 0.00576568 7.95178e-05 0.000227257 3.57842e-11 5.21483e-12 -2.95008e-11 5e-05 1.46608e-10 
47 1 0.0256339 0.0165814 0.0076391 0.00618263 -0.000119076 0.000215182 -4.23114e-11 2.94706e-11 -1.84378e-11 5e-05 1.46608e-10 
48 1 0.0259858 0.0173074 0.00722868 0.00578297 -0.0002182 -0.000136805 -2.86126e-11 -1.00872e-10 2.93252e-11 5e-05 1.46608e-10 
49 1 0.0317367 0.0169866 0.00735611 0.00574265 8.27761e-05 0.000224172 -8.42336e-12 6.22431e-12 3.21812e-12 5e-05 1.46608e-10 
50 1 0.0260108 0.0178539 0.00712622 0.00551719 -6.20747e-06 -0.000169177 -1.2771e-10 1.24348e-10 -1.94323e-11 5e-05 1.46608e-10 
51 1 0.0259909 0.0177575 0.00714477 0.00556345 -0.000147047 -0.000144575 7.48703e-12 1.02525e-10 -2.4691e-11 5e-05 1.46608e-10 
52 1 0.0261476 0.0185283 0.00699651 0.00551377 -0.000160009 -0.000140575 -2.48036e-11 -6.45893e-11 1.41035e-11 5e-05 1.46608e-10 
53 1 0.0317972 0.0172564 0.00723987 0.00581923 7.70065e-05 0.00023048 1.29529e-11 -2.77487e-11 3.52305e-12 5e-05 1.46608e-10 
54 1 0.0256647 0.0163724 0.00779757 0.00611507 -0.000147026 0.000232449 4.4864e-11 4.29214e-11 -2.4791e-11 5e-05 1.46608e-10 
55 1 0.0196879 0.0167791 0.0074866 0.00517048 -0.00223193 0.000898368 -1.48467e-10 6.23247e-11 -6.42107e-12 5e-05 1.46608e-10 
56 1 0.0257947 0.017246 0.00724599 0.00578884 -0.000207073 -0.000141183 -7.97864e-11 -3.51193e-10 1.01065e-10 5e-05 1.46608e-10 
57 1 0.0316763 0.0167167 0.00747235 0.00566487 8.98193e-05 0.00021784 6.06997e-12 2.75897e-11 4.33429e-12 5e-05 1.46608e-10 
59 1 0.0259236 0.0170263 0.00730886 0.00575723 -0.000102711 0.000189989 2.83762e-11 3.39779e-11 4.89402e-12 5e-05 1.46608e-10 
60 1 0.0259448 0.0171161 0.00727033 0.00580115 -0.000180314 2.62446e-05 6.46176e-12 8.31734e-12 1.57646e-10 5e-05 1.46608e-10 
61 1 0.0256122 0.0165033 0.00769765 0.0061618 -0.000129637 0.00021922 1.11083e-11 -6.35262e-12 -7.55513e-12 5e-05 1.46608e-10 
62 1 0.0260461 0.017596 0.00717316 0.0055779 -0.000147558 -0.000145327 -6.66292e-11 7.8235e-11 -4.5706e-12 5e-05 1.46608e-10 
63 1 0.0259653 0.0172115 0.00724843 0.00578727 -0.00021407 -0.000120546 -1.75462e-10 -2.45136e-11 -2.26213e-11 5e-05 1.46608e-10 
64 1 0.0318173 0.0173464 0.00720113 0.00584185 7.35911e-05 0.00023253 -2.66954e-11 -4.23837e-11 1.90956e-11 5e-05 1.46608e-10 
65 1 0.0199451 0.0179624 0.00704069 0.00504397 -0.00238807 0.000566242 -1.4316e-10 7.49006e-10 -1.27259e-10 5e-05 1.46608e-10 
66 1 0.0199614 0.0176078 0.00710199 0.00523414 -0.00228733 0.000655307 1.57075e-10 -9.10008e-11 -1.99207e-10 5e-05 1.46608e-10 
67 1 0.0260807 0.0173377 0.0072201 0.00573758 -5.85786e-05 -0.000142447 9.91495e-11 -2.27058e-10 -3.86996e-10 5e-05 1.46608e-10 
68 1 0.025971 0.0176613 0.00716329 0.00557284 -0.000145897 -0.000145255 -4.55549e-11 8.66863e-11 -1.60979e-11 5e-05 1.46608e-10 
69 1 0.0258482 0.0170823 0.00727317 0.00577374 -0.000162817 5.49793e-05 -1.00497e-10 -6.12241e-12 3.60323e-11 5e-05 1.46608e-10 
70 1 0.0258961 0.0177268 0.0071534 0.00556726 -0.000146755 -0.000144837 -3.8109e-11 6.99126e-11 -2.03053e-11 5e-05 1.46608e-10 
71 1 0.0196676 0.0166909 0.00752907 0.00518509 -0.00223878 0.000901785 -2.48551e-10 -8.25622e-12 -1.46468e-12 5e-05 1.46608e-10 
72 1 0.0260767 0.0177066 0.00715159 0.00556544 -0.000141728 -0.000145825 3.0875e-11 5.44863e-11 -1.22475e-11 5e-05 1.46608e-10 
73 1 0.0256967 0.0168161 0.00746313 0.00565708 -2.03391e-05 0.000126549 -5.37715e-10 3.7896e-10 -3.53302e-10 5e-05 1.46608e-10 
74 1 0.0262146 0.0175643 0.0071738 0.00556665 -0.000139193 -0.000146025 3.69489e-11 -1.13698e-10 1.85131e-11 5e-05 1.46608e-10 
76 1 0.0205391 0.0185566 0.00696406 0.0051847 -0.00218702 0.00051606 -1.07921e-10 4.78277e-11 -4.77561e-12 5e-05 1.46608e-10 
77 1 0.0261311 0.0188824 0.00693113 0.00555723 -0.00015639 -0.000142434 1.20692e-11 5.0877e-11 -8.40505e-12 5e-05 1.46608e-10 
78 1 0.019768 0.0171323 0.00731666 0.0052842 -0.00223494 0.000896634 1.07919e-10 1.51929e-10 -6.81082e-11 5e-05 1.46608e-10 
79 1 0.0200036 0.0182533 0.00699515 0.00511814 -0.00227647 0.000550616 3.39124e-11 2.9664e-11 -1.60275e-12 5e-05 1.46608e-10 
80 1 0.0259941 0.0182083 0.00706079 0.00547806 -0.000137327 -0.000143867 -1.48906e-11 4.83744e-11 -1.78246e-12 5e-05 1.46608e-10 
81 1 0.0199256 0.0178655 0.00705587 0.00507149 -0.00224924 0.00054471 1.26038e-10 -7.34975e-10 1.3456e-10 5e-05 1.46608e-10 
82 1 0.0199646 0.0180593 0.00702552 0.00505277 -0.00238466 0.000565958 1.51106e-12 5.79937e-12 -9.03516e-13 5e-05 1.46608e-10 
83 1 0.0198659 0.0175754 0.00710348 0.00518952 -0.00220521 0.00086064 -3.38417e-10 1.13801e-10 -1.44737e-10 5e-05 1.46608e-10 
84 1 0.0319159 0.0178112 0.00704715 0.00567424 -5.24591e-05 -0.000229513 -1.85626e-12 -1.36251e-11 2.41068e-12 5e-05 1.46608e-10 
85 1 0.0254627 0.0159645 0.00810158 0.00609722 -0.000128907 0.000218798 -1.35108e-11 -6.56924e-11 6.68769e-11 5e-05 1.46608e-10 
86 1 0.0260498 0.0180467 0.00708913 0.00545067 -0.00014966 -0.000140609 2.96429e-11 1.66246e-11 -2.44015e-12 5e-05 1.46608e-10 
87 1 0.0259993 0.016975 0.00734915 0.00574001 -0.000124276 0.000212756 -4.78557e-11 1.40241e-11 2.74632e-11 5e-05 1.46608e-10 
88 1 0.0260724 0.0185935 0.0069867 0.00552351 -0.000148261 -0.000142972 -9.48235e-12 -6.89709e-12 2.67862e-12 5e-05 1.46608e-10 
89 1 0.0260889 0.0182394 0.00705207 0.00547631 -0.000153089 -0.000140646 2.44294e-11 -7.27333e-11 1.18119e-11 5e-05 1.46608e-10 
90 1 0.0261754 0.0177215 0.00714576 0.00556312 -0.000126443 -0.000148265 8.53657e-11 -6.14553e-11 4.12673e-12 5e-05 1.46608e-10 
91 1 0.025916 0.017823 0.00713488 0.0055619 -0.00014522 -0.000144941 -3.29117e-11 5.12941e-11 -7.54455e-12 5e-05 1.46608e-10 
92 1 0.0262178 0.0178103 0.00712793 0.00551005 -9.58671e-05 -0.000152068 1.17765e-10 -3.58758e-11 7.66336e-12 5e-05 1.46608e-10 
93 1 0.0263155 0.0180476 0.00708076 0.00544395 -0.00018847 -0.000133067 7.60343e-11 7.27145e-12 -1.41651e-12 5e-05 1.46608e-10 
94 1 0.0260693 0.0181431 0.0070706 0.00546249 -0.00015211 -0.000140159 4.76729e-11 -1.7932e-11 -4.35572e-12 5e-05 1.46608e-10 
95 1 0.0259746 0.0181119 0.00707932 0.00546465 -0.000131149 -0.00014431 -3.6052e-11 4.31391e-11 -8.9889e-12 5e-05 1.46608e-10 
96 1 0.0261445 0.0180779 0.00708041 0.00544494 -0.000164248 -0.000138629 6.24881e-11 -3.66562e-11 2.72575e-11 5e-05 1.46608e-10 
97 1 0.020118 0.0183824 0.00697802 0.00512333 -0.00227362 0.000550096 4.89018e-12 -9.66846e-13 -9.87193e-13 5e-05 1.46608e-10 
98 1 0.0261115 0.0187861 0.00694965 0.00554263 -0.000153193 -0.000142791 -4.28752e-11 -2.74582e-11 5.70399e-12 5e-05 1.46608e-10 
99 1 0.0200233 0.0183502 0.00697999 0.00512136 -0.00227903 0.000550589 1.28915e-11 1.74126e-11 -5.36706e-13 5e-05 1.46608e-10 
100 1 0.0262503 0.017656 0.00715565 0.00556478 -0.000118418 -0.000149817 9.37424e-11 -1.01405e-10 1.36324e-11 5e-05 1.46608e-10 
101 1 0.0199813 0.0177042 0.00708422 0.00520368 -0.00229172 0.000578633 1.01888e-10 -2.09936e-10 -4.16269e-10 5e-05 1.46608e-10 
102 1 0.0694385 0.0202053 0.00537268 3.91855e-15 4.53936e-15 -7.68244e-14 1.2334e-21 -8.81917e-22 1.55096e-23 5e-05 1.46608e-10 
104 1 0.0200788 0.0181887 0.00700834 0.00512225 -0.00227149 0.00054984 3.03923e-11 -8.81532e-12 3.78388e-12 5e-05 1.46608e-10 
105 1 0.0198275 0.0173974 0.00718908 0.00516451 -0.00201114 0.000794529 -9.95201e-12 -2.73837e-10 1.47557e-10 5e-05 1.46608e-10 
106 1 0.0202495 0.0186148 0.00694459 0.00514721 -0.00225746 0.000549726 -1.98178e-11 3.46447e-11 8.78161e-13 5e-05 1.46608e-10 
107 1 0.0197882 0.0172205 0.00727418 0.00531181 -0.00222658 0.00089164 -3.58793e-11 1.21029e-10 -5.88765e-11 5e-05 1.46608e-10 
108 1 0.0257916 0.0168422 0.0074453 0.00567098 -4.46505e-05 0.000145116 -3.18053e-12 -4.86654e-11 4.08274e-11 5e-05 1.46608e-10 
109 1 0.0259358 0.0179193 0.00711636 0.00541402 -0.000114426 -0.000145965 9.84743e-12 3.55449e-11 4.91677e-13 5e-05 1.46608e-10 
110 1 0.0261085 0.0183357 0.00703355 0.00549105 -0.000154741 -0.000140767 -1.37702e-11 -5.14186e-11 1.20362e-11 5e-05 1.46608e-10 
111 1 0.0262062 0.0188171 0.00694096 0.00554542 -0.000166695 -0.000140269 -7.29112e-11 -3.03375e-11 6.92416e-12 5e-05 1.46608e-10 
112 1 0.0198859 0.0176718 0.00708616 0.00522334 -0.00231273 0.000573378 4.67721e-10 3.15272e-10 -7.62288e-12 5e-05 1.46608e-10 
113 1 0.0201931 0.0183177 0.00699122 0.0051166 -0.00227896 0.000550876 5.70692e-12 2.61374e-11 -5.34405e-12 5e-05 1.46608e-10 
115 1 0.0259552 0.0180156 0.00709784 0.00543604 -0.000120262 -0.000145265 7.98545e-11 1.7009e-11 -6.6019e-12 5e-05 1.46608e-10 
116 1 0.0259049 0.0169479 0.00736799 0.00572291 -9.01333e-05 0.000193328 -9.18449e-12 3.52174e-11 -6.57292e-11 5e-05 1.46608e-10 
117 1 0.0258672 0.0167907 0.0074857 0.00563201 -8.47618e-05 0.000175727 2.45952e-10 4.79295e-11 -2.39013e-11 5e-05 1.46608e-10 
118 1 0.0197284 0.0169556 0.00740165 0.00520844 -0.00223475 0.000898952 1.27382e-10 1.22584e-10 -4.49504e-11 5e-05 1.46608e-10 
119 1 0.0261209 0.0175304 0.007183 0.00557885 -0.000153254 -0.000143685 4.29736e-11 2.19762e-10 -4.692e-11 5e-05 1.46608e-10 
120 1 0.0255038 0.0161127 0.00799042 0.00612413 -0.000133753 0.000222699 7.12149e-11 -4.03019e-11 2.82187e-11 5e-05 1.46608e-10 
121 1 0.0256214 0.0162161 0.00791468 0.00613646 -0.000141595 0.00022887 -2.22138e-12 5.32112e-11 -3.98817e-11 5e-05 1.46608e-10 
122 1 0.0261641 0.0181742 0.00706189 0.005462 -0.000168187 -0.000137192 2.70985e-11 -6.64461e-11 3.40958e-12 5e-05 1.46608e-10 
123 1 0.0198467 0.0174863 0.00714631 0.00517657 -0.00219697 0.000881728 5.82903e-11 4.9704e-11 -6.65819e-11 5e-05 1.46608e-10 
124 1 0.0260137 0.0183046 0.00704227 0.00548541 -0.000146332 -0.000142202 9.5058e-11 6.0066e-11 -1.84955e-11 5e-05 1.46608e-10 
125 1 0.025643 0.0162942 0.00785613 0.00614653 -0.000141529 0.000228859 8.25561e-11 9.78098e-11 -7.53788e-11 5e-05 1.46608e-10 
126 1 0.0258762 0.0176306 0.00717192 0.00557646 -0.000146517 -0.000146445 -3.94931e-11 2.29094e-11 4.98622e-12 5e-05 1.46608e-10 
127 1 0.0199416 0.0175153 0.00713422 0.0051938 -0.00224151 0.000777195 3.54291e-10 -1.30118e-10 -1.5972e-10 5e-05 1.46608e-10 
128 1 0.0261561 0.0178879 0.00711539 0.00544905 -0.000147265 -0.000141749 1.56416e-11 -4.63619e-11 -2.73148e-13 5e-05 1.46608e-10 
129 1 0.026128 0.018432 0.00701503 0.00550123 -0.000156613 -0.000140763 1.91371e-11 -4.60478e-11 6.67679e-12 5e-05 1.46608e-10 
131 1 0.0200984 0.0182855 0.00699318 0.00512308 -0.00227345 0.000549671 1.81954e-11 7.3526e-12 2.5962e-12 5e-05 1.46608e-10 
132 1 0.026125 0.0179815 0.00709894 0.0054299 -0.000156863 -0.000137188 1.54572e-11 -3.79847e-12 9.1055e-12 5e-05 1.46608e-10 
133 1 0.0257298 0.0166067 0.00762187 0.00617129 -0.000143595 0.000226277 -3.44604e-11 7.53141e-11 -4.54532e-11 5e-05 1.46608e-10 
134 1 0.0260603 0.0172414 0.00723867 0.00580795 -0.000212756 -0.000151501 1.406e-10 1.02467e-10 -3.03388e-10 5e-05 1.46608e-10 
135 1 0.0258276 0.0166338 0.0076034 0.00621779 -0.000148161 0.000235465 -3.443e-10 2.27784e-10 -1.73244e-10 5e-05 1.46608e-10 
136 1 0.0197487 0.0170439 0.00735918 0.0052426 -0.00223584 0.000898192 1.39129e-10 1.24931e-10 -7.53562e-11 5e-05 1.46608e-10 
137 1 0.0261506 0.0189787 0.00691261 0.00556929 -0.000162269 -0.000141754 -4.13556e-12 8.00987e-11 -1.32747e-11 5e-05 1.46608e-10 
138 1 0.0262483 0.0181207 0.00706923 0.00545299 -0.000181541 -0.000134562 6.52068e-11 -1.10002e-11 -1.23771e-12 5e-05 1.46608e-10 
140 1 0.0260304 0.0179503 0.00710767 0.00542021 -0.000130011 -0.000143414 -7.75811e-12 2.29912e-12 -1.38532e-11 5e-05 1.46608e-10 
141 1 0.0199029 0.0173367 0.00721552 0.00535432 -0.00221716 0.000884013 -2.11716e-10 1.93582e-10 -6.95205e-11 5e-05 1.46608e-10 
142 1 0.0200206 0.0178979 0.00705387 0.00510555 -0.00226674 0.000549695 1.45333e-11 -8.18682e-11 6.12095e-12 5e-05 1.46608e-10 
143 1 0.0198083 0.0173088 0.0072317 0.00534924 -0.00222467 0.000890156 -7.03172e-11 5.55866e-11 -5.06425e-12 5e-05 1.46608e-10 
146 1 0.0200562 0.0176393 0.00709741 0.00520089 -0.00227395 0.000562968 5.43478e-11 4.36826e-11 1.36593e-10 5e-05 1.46608e-10 
147 1 0.0197077 0.0168675 0.0074441 0.00520047 -0.00223729 0.000900534 6.15853e-11 8.90341e-11 -6.52902e-11 5e-05 1.46608e-10 
148 1 0.0272842 0.0176842 0.00784848 2.76639e-10 -0.0225612 0.0084604 1.27524e-18 7.67639e-12 2.04502e-11 5e-05 1.46608e-10 
149 1 0.0260528 0.0184972 0.00700522 0.00550905 -0.000147233 -0.000142816 -2.76059e-11 -4.51663e-11 8.2309e-12 5e-05 1.46608e-10 
150 1 0.020001 0.017801 0.00706904 0.00514388 -0.00227637 0.000553816 -9.15706e-11 -7.82143e-11 -1.05481e-10 5e-05 1.46608e-10 
151 1 0.0203705 0.0182948 0.00700114 0.00511903 -0.00226683 0.000548979 -7.39216e-11 4.55328e-11 -1.0271e-11 5e-05 1.46608e-10 
153 1 0.0200359 0.0175423 0.00711394 0.00525573 -0.00222985 0.000895005 -6.75463e-11 4.55651e-11 -6.54942e-11 5e-05 1.46608e-10 
154 1 0.020224 0.0188768 0.00690067 0.00517404 -0.00225394 0.000537224 -6.64703e-12 3.05279e-11 -3.97466e-11 5e-05 1.46608e-10 
155 1 0.0167943 0.0200539 0.00710009 -1.92004e-15 2.50472e-15 -2.62516e-14 -1.38294e-24 -1.18907e-24 0 5e-05 1.46608e-10 
156 1 0.0201018 0.0187377 0.00691934 0.00515227 -0.00224401 0.000547189 -4.24572e-11 -1.68973e-10 1.1989e-11 5e-05 1.46608e-10 
157 1 0.0203686 0.0191096 0.00686487 0.00491911 -0.00126487 0.000351388 8.31664e-11 2.31225e-10 -3.76128e-11 5e-05 1.46608e-10 
158 1 0.0203074 0.0184467 0.0069741 0.00511107 -0.00228321 0.000551599 -4.42821e-12 9.87168e-11 -2.04063e-11 5e-05 1.46608e-10 
159 1 0.0262215 0.0180147 0.00708979 0.00543767 -0.000175914 -0.000135185 7.67803e-11 -2.47587e-11 -6.81919e-12 5e-05 1.46608e-10 
160 1 0.0201803 0.0191249 0.00685708 0.005173 -0.00224781 0.000525966 -1.40675e-12 3.38286e-11 -5.8635e-12 5e-05 1.46608e-10 
162 1 0.0201377 0.0184793 0.00696286 0.00512735 -0.00226729 0.000549535 -1.38586e-12 -2.7044e-11 6.8e-12 5e-05 1.46608e-10 
163 1 0.0203901 0.0183917 0.00698597 0.00509192 -0.00230582 0.00055441 -3.08451e-11 1.30616e-10 -1.99035e-11 5e-05 1.46608e-10 
164 1 0.0206317 0.0190585 0.00688084 0.000479636 0.000277138 -3.47391e-05 3.52804e-11 -9.50742e-11 1.78771e-11 5e-05 1.46608e-10 
165 1 0.0202448 0.0180833 0.00703135 0.00511438 -0.00228309 0.000551427 -5.26752e-11 -8.85956e-11 1.32577e-11 5e-05 1.46608e-10 
166 1 0.0254204 0.0158081 0.00821884 0.00560288 -5.21751e-05 0.000152056 -1.93512e-10 7.46932e-12 1.02396e-12 5e-05 1.46608e-10 
167 1 0.0200761 0.0177363 0.00708224 0.00516395 -0.00223917 0.000547945 8.25539e-12 -5.13069e-11 -5.13051e-11 5e-05 1.46608e-10 
168 1 0.0202444 0.0189747 0.00688451 0.00519402 -0.0022309 0.000525307 -2.58957e-11 1.38618e-10 -5.85279e-11 5e-05 1.46608e-10 
169 1 0.0203775 0.0187561 0.00692553 0.00516918 -0.00225975 0.000527744 1.50417e-11 2.05803e-10 -2.17385e-11 5e-05 1.46608e-10 
170 1 0.0203309 0.0189257 0.00689527 0.00520014 -0.00222825 0.000524594 -1.21267e-11 2.15971e-10 -6.36966e-11 5e-05 1.46608e-10 
171 1 0.0258477 0.0167122 0.00754457 0.00623831 -0.000180429 0.000261088 -6.77822e-10 1.59026e-10 -1.24559e-10 5e-05 1.46608e-10 
172 1 0.0204691 0.0187171 0.0069347 0.00518897 -0.00223058 0.000522346 -3.31378e-11 1.82866e-10 -4.45179e-11 5e-05 1.46608e-10 
173 1 0.0260727 0.0171444 0.00725939 0.00560211 -0.000202195 0.000127174 -2.6017e-10 2.63078e-10 -1.09015e-10 5e-05 1.46608e-10 
174 1 0.0201999 0.0192217 0.00684109 0.00517964 -0.00227437 0.000530992 -1.59668e-13 -9.06181e-12 2.29257e-12 5e-05 1.46608e-10 
175 1 0.0177592 0.018559 0.00688689 2.03111e-14 -2.6494e-14 2.77686e-13 -5.27328e-24 -3.51552e-24 0 5e-05 1.46608e-10 
176 1 0.0200822 0.0186408 0.0069345 0.00514481 -0.0022493 0.000546845 -5.87928e-11 -1.74299e-10 1.59924e-11 5e-05 1.46608e-10 
177 1 0.0205875 0.0187926 0.00692505 0.00558065 -0.00112871 0.000346624 -3.22814e-10 -1.00214e-11 -1.31563e-11 5e-05 1.46608e-10 
178 1 0.020451 0.0186028 0.00695356 0.00514362 -0.00226076 0.000548574 -7.03768e-11 5.49416e-11 -3.08229e-11 5e-05 1.46608e-10 
179 1 0.0166291 0.0202912 0.00713482 -1.91989e-15 2.50486e-15 -2.62516e-14 2.44277e-24 2.1455e-24 0 5e-05 1.46608e-10 
180 1 0.0203631 0.018529 0.00696258 0.00511443 -0.00228796 0.000551971 -5.44046e-11 1.21765e-10 -2.41607e-11 5e-05 1.46608e-10 
181 1 0.0202897 0.0188028 0.00691513 0.00517183 -0.00225718 0.000540956 -1.48411e-11 5.37188e-11 5.14829e-11 5e-05 1.46608e-10 
182 1 0.0259618 0.0168178 0.00746706 0.00563018 -0.000123251 0.00020612 6.18826e-11 -1.67295e-11 2.25265e-11 5e-05 1.46608e-10 
183 1 0.0203978 0.0188527 0.00690957 0.0051805 -0.00225224 0.00052649 -5.54771e-11 2.42446e-10 -3.58004e-11 5e-05 1.46608e-10 
184 1 0.0261866 0.0187208 0.00695948 0.00553413 -0.000162627 -0.000140651 1.97874e-11 9.44443e-11 -1.97912e-11 5e-05 1.46608e-10 
185 1 0.0201214 0.0188346 0.00690418 0.0051621 -0.00224 0.000547026 -7.78973e-12 -1.01544e-10 -4.26009e-11 5e-05 1.46608e-10 
186 1 0.0201573 0.0185762 0.0069477 0.00514113 -0.0022575 0.000548556 -2.98508e-11 -5.50948e-11 1.52513e-11 5e-05 1.46608e-10 
187 1 0.0259807 0.0168964 0.00740812 0.00569833 -0.000127021 0.000208339 5.43156e-11 -1.76128e-11 -5.69588e-11 5e-05 1.46608e-10 
188 1 0.0261836 0.0182705 0.00704337 0.00548614 -0.000158704 -0.000139923 3.16114e-11 -3.52625e-11 5.26347e-12 5e-05 1.46608e-10 
189 1 0.0257521 0.0166853 0.00756295 0.00620344 -0.000136579 0.000228581 -3.25837e-10 1.22709e-10 -1.30345e-10 5e-05 1.46608e-10 
190 1 0.0205464 0.0186549 0.00694746 0.00523665 -0.00218575 0.000517136 -1.29437e-10 7.38823e-11 -2.3916e-11 5e-05 1.46608e-10 
191 1 0.0261702 0.019075 0.00689408 0.00557415 -0.000170052 -0.000140707 4.10447e-11 9.50679e-11 -1.89417e-11 5e-05 1.46608e-10 
192 1 0.0201922 0.018696 0.0069293 0.0051413 -0.00225864 0.000548812 1.43033e-10 9.36475e-11 -6.59735e-13 5e-05 1.46608e-10 
193 1 0.0260936 0.0170011 0.00732813 0.00575771 -0.000273512 9.73227e-06 -2.55751e-10 -2.05085e-10 -4.228e-10 5e-05 1.46608e-10 
194 1 0.02004 0.0179948 0.0070387 0.00509508 -0.00226275 0.000546624 -4.91911e-11 -6.29411e-11 2.39622e-11 5e-05 1.46608e-10 
195 1 0.0204221 0.0189664 0.00689082 0.00440151 -0.000453696 0.000198934 1.9369e-11 1.60211e-10 -2.62473e-11 5e-05 1.46608e-10 
196 1 0.0196041 0.0164283 0.00765935 0.0057516 -0.00201395 0.00151531 -3.62253e-10 2.07656e-10 -4.18108e-10 5e-05 1.46608e-10 
197 1 0.0202374 0.0193134 0.00682645 3.49464e-07 3.36144e-07 -1.98793e-08 7.22878e-13 2.23095e-12 2.75935e-12 5e-05 1.46608e-10 
198 1 0.0200429 0.0184471 0.00696483 0.00512472 -0.00228097 0.000551135 1.28804e-13 -3.8156e-13 -3.90078e-12 5e-05 1.46608e-10 
199 1 0.0201607 0.0190282 0.00687307 0.00517944 -0.00224013 0.000528197 -4.41939e-11 9.72788e-12 -4.23552e-11 5e-05 1.46608e-10 
200 1 0.0200593 0.0180918 0.00702351 0.00511536 -0.00226731 0.000548669 -1.89558e-12 -5.39842e-11 3.13981e-12 5e-05 1.46608e-10 
201 1 0.0208258 0.0190981 0.00687941 6.25241e-06 -5.2025e-06 6.89998e-07 1.87111e-11 -2.45933e-11 8.64787e-13 5e-05 1.46608e-10 
203 1 0.0260753 0.0169238 0.00738933 0.00572101 -0.000148934 0.000225446 -5.08148e-11 2.60518e-10 -1.12639e-10 5e-05 1.46608e-10 
204 1 0.020154 0.0181241 0.00702152 0.00511781 -0.00227597 0.000550811 -2.26902e-12 8.5673e-12 -1.87212e-12 5e-05 1.46608e-10 
205 1 0.0203222 0.0193661 0.00682298 3.20879e-07 3.3451e-07 1.72542e-08 -4.93284e-12 8.92956e-12 -1.20246e-13 5e-05 1.46608e-10 
206 1 0.0202716 0.0190852 0.00686637 0.00517338 -0.00221655 0.000520865 8.15457e-11 1.93467e-10 -2.08888e-11 5e-05 1.46608e-10 
207 1 0.0200173 0.0174537 0.0071565 0.00522639 -0.00222601 0.000892671 -1.76238e-10 9.1484e-11 -9.61402e-11 5e-05 1.46608e-10 
208 1 0.0201411 0.0189315 0.00688931 0.00517228 -0.00223957 0.000537546 -1.47165e-11 -5.3918e-11 -1.84896e-10 5e-05 1.46608e-10 
209 1 0.0169005 0.0201086 0.00709754 2.03104e-14 -2.64943e-14 2.77686e-13 -4.65289e-25 -1.75776e-24 0 5e-05 1.46608e-10 
210 1 0.0254417 0.0158862 0.00816023 0.00589207 -9.50573e-05 0.000189125 1.07716e-10 -4.38322e-11 3.53139e-11 5e-05 1.46608e-10 
211 1 0.0262427 0.0184976 0.00699928 0.00551106 -0.00017018 -0.000138497 2.54109e-11 9.3595e-11 -1.93512e-11 5e-05 1.46608e-10 
212 1 0.0204538 0.0184881 0.00697243 0.00511165 -0.00229297 0.000553109 -1.22863e-10 2.79318e-11 -1.04476e-11 5e-05 1.46608e-10 
213 1 0.0261405 0.0170729 0.00727682 0.00567891 -0.000147772 9.81315e-05 -5.08136e-10 2.06676e-10 2.12604e-10 5e-05 1.46608e-10 
214 1 0.0260333 0.0184009 0.00702375 0.00549685 -0.000149424 -0.000141893 -3.86507e-11 -3.9757e-11 1.02876e-11 5e-05 1.46608e-10 
215 1 0.0202325 0.0185116 0.00696088 0.00512635 -0.00226971 0.000549423 -7.92241e-12 3.61949e-11 -8.7588e-12 5e-05 1.46608e-10 
216 1 0.0202878 0.0183498 0.00698926 0.00511359 -0.00227795 0.000550605 1.04035e-11 8.57471e-11 -1.18322e-11 5e-05 1.46608e-10 
217 1 0.025886 0.0168692 0.00742676 0.0056852 -8.29152e-05 0.000184384 2.66741e-11 9.83242e-11 6.27886e-11 5e-05 1.46608e-10 
218 1 0.0204536 0.0191619 0.00685828 0.00388199 0.00036009 4.6621e-05 2.35236e-10 -2.78903e-11 9.02511e-12 5e-05 1.46608e-10 
219 1 0.0260919 0.0186898 0.00696818 0.00553283 -0.000152875 -0.000142557 8.13458e-11 -6.16584e-12 2.47188e-12 5e-05 1.46608e-10 
220 1 0.0202128 0.0184146 0.00697606 0.00511695 -0.00227607 0.00055062 1.91442e-12 2.97527e-11 -5.72098e-12 5e-05 1.46608e-10 
221 1 0.016055 0.0195901 0.00708104 -7.58069e-16 2.58188e-14 -2.11472e-13 -3.55429e-26 0 0 5e-05 1.46608e-10 
222 1 0.0257722 0.0167637 0.00750417 0.00626343 -0.000132637 0.000226952 -3.80526e-10 1.15011e-10 -1.24776e-10 5e-05 1.46608e-10 
223 1 0.0202923 0.0187042 0.00693145 0.00515948 -0.00225753 0.000549035 3.56671e-11 7.23754e-11 7.55291e-11 5e-05 1.46608e-10 
224 1 0.0200625 0.0185439 0.00694967 0.00513192 -0.00227791 0.000551023 2.86335e-11 2.50055e-11 1.33533e-12 5e-05 1.46608e-10 
225 1 0.0261552 0.0172719 0.00723085 0.00575161 4.31751e-05 5.44827e-05 4.34528e-10 2.04983e-10 -7.84107e-12 5e-05 1.46608e-10 
226 1 0.0202682 0.0182529 0.00700442 0.00511526 -0.00228712 0.000552073 -3.76349e-11 -1.35781e-11 3.79078e-12 5e-05 1.46608e-10 
227 1 0.0172263 0.0142504 0.0118016 0.00078981 -0.00106471 0.00237182 1.21427e-11 -1.83889e-11 4.19545e-11 5e-05 1.46608e-10 
228 1 0.0507861 0.0189683 0.00558458 -5.38071e-15 -1.91086e-14 -2.87013e-13 3.66066e-22 -1.01433e-22 -4.1359e-25 5e-05 1.46608e-10 
229 1 0.0198631 0.0171598 0.00730068 0.00527763 -0.00225926 0.000908331 -2.56178e-11 1.06414e-10 -4.90165e-11 5e-05 1.46608e-10 
230 1 0.0206991 0.0193312 0.00683609 0.00172729 0.00314655 -0.000490134 -9.45409e-11 -6.77954e-11 3.88579e-12 5e-05 1.46608e-10 
231 1 0.197479 0.018695 0.00523156 -1.08534e-15 -2.69837e-14 1.45243e-13 2.22208e-23 7.90991e-24 1.65436e-24 5e-05 1.46608e-10 
232 1 0.0198834 0.0172483 0.00725804 0.0053402 -0.00222099 0.000888646 -1.1497e-10 1.42114e-10 -4.08152e-11 5e-05 1.46608e-10 
233 1 0.0201347 0.0180272 0.00703671 0.00510395 -0.00227639 0.000550131 -5.27085e-11 -5.51567e-12 -4.14451e-12 5e-05 1.46608e-10 
234 1 0.0253821 0.015651 0.00833666 0.00563743 -7.47249e-05 0.000168995 3.48959e-11 1.16258e-11 6.60934e-13 5e-05 1.46608e-10 
235 1 0.0213747 0.0193157 0.00685731 -3.97539e-15 2.47093e-14 1.44604e-13 -1.05983e-24 -2.58494e-25 0 5e-05 1.46608e-10 
236 1 0.0211907 0.0191732 0.00687661 -3.97529e-15 2.47093e-14 1.44604e-13 9.49965e-25 4.1359e-25 0 5e-05 1.46608e-10 
237 1 0.0210258 0.0192136 0.00686516 4.24211e-15 -2.63635e-14 -1.54285e-13 -1.11605e-23 0 -4.1359e-25 5e-05 1.46608e-10 
238 1 0.0170379 0.0201207 0.00708864 -1.92052e-15 2.50443e-15 -2.62516e-14 5.29913e-25 1.55096e-25 -2.06795e-25 5e-05 1.46608e-10 
239 1 0.0147029 0.0203216 0.0071887 3.60612e-15 -1.19879e-14 6.44398e-14 -4.35562e-24 -1.75776e-24 0 5e-05 1.46608e-10 
240 1 0.0151747 0.0203438 0.0071762 -7.57969e-16 2.58188e-14 -2.11472e-13 -1.555e-24 0 0 5e-05 1.46608e-10 
241 1 0.0148622 0.0202394 0.00716458 3.3118e-16 -1.12794e-14 9.2385e-14 2.07684e-24 0 0 5e-05 1.46608e-10 
242 1 0.0176031 0.0217028 0.00782311 -0.0306065 -0.102415 -0.163091 1.67484e-10 -4.26334e-10 -7.67751e-10 5e-05 1.46608e-10 
243 1 0.0146057 0.020346 0.00719868 -1.29117e-14 4.29331e-14 -2.30778e-13 6.46235e-26 -3.10193e-25 -2.06795e-25 5e-05 1.46608e-10 
244 1 0.0149389 0.0203058 0.00717255 -1.29113e-14 4.2933e-14 -2.30778e-13 -2.59786e-24 -1.96455e-24 0 5e-05 1.46608e-10 
245 1 0.0189123 0.0238499 0.0115578 -0.00809153 0.000100177 -0.000825501 6.59023e-07 -1.0872e-07 -1.11473e-07 5e-05 1.46608e-10 
246 1 0.0158572 0.0201827 0.00715409 -0.000930022 -0.00290269 -0.000351058 1.89125e-10 4.5524e-10 5.49028e-11 5e-05 1.46608e-10 
247 1 0.0205612 0.0189023 0.00690559 0.00424276 -0.0009758 0.000282497 -1.94742e-11 -3.07762e-11 7.73974e-12 5e-05 1.46608e-10 