ITEM: TIMESTEP
30400000
ITEM: NUMBER OF ATOMS
212
ITEM: BOX BOUNDS ff ff ff
-0.02 0.43
-0.02 0.06
-0.02 0.07
ITEM: ATOMS id type x y z vx vy vz fx fy fz radius mass 
1 1 0.190704 0.0178082 0.00703821 0.00592333 4.9096e-05 0.000116344 6.02278e-10 -9.34631e-10 2.47718e-10 5e-05 1.46608e-10 
2 1 0.190325 0.0176832 0.00706128 0.00625941 -7.34031e-05 0.000151136 -6.07897e-11 -4.12918e-10 1.38609e-10 5e-05 1.46608e-10 
3 1 0.178485 0.0184502 0.00696436 0.00577634 -0.000223268 0.000213667 -1.85353e-10 1.68585e-10 -7.07888e-11 5e-05 1.46608e-10 
4 1 0.190067 0.0163167 0.00792306 0.00555001 1.39857e-05 -0.000287745 -2.2329e-10 -2.43756e-10 2.1463e-10 5e-05 1.46608e-10 
5 1 0.190473 0.0175537 0.00709687 0.00632969 6.07893e-05 0.000123439 1.70479e-10 5.79285e-11 -9.22292e-12 5e-05 1.46608e-10 
6 1 0.196113 0.0168363 0.00751707 0.00611573 0.000321326 0.000139687 1.45558e-12 1.85161e-12 -7.97991e-13 5e-05 1.46608e-10 
7 1 0.189855 0.0158159 0.00828949 0.00561442 0.000324002 3.52906e-05 -3.2592e-11 -1.42103e-10 9.65988e-11 5e-05 1.46608e-10 
8 1 0.189932 0.0161404 0.008069 0.00554499 4.39413e-05 -0.000338233 4.81289e-11 -4.4049e-11 3.47347e-10 5e-05 1.46608e-10 
9 1 0.196329 0.0177112 0.00706942 0.00633583 0.00011833 -0.000222168 4.54856e-10 3.08188e-10 8.20193e-11 5e-05 1.46608e-10 
10 1 0.189874 0.0158989 0.00823677 0.00550638 0.000328162 2.50065e-05 -3.78936e-11 -1.37876e-10 1.22971e-10 5e-05 1.46608e-10 
11 1 0.189893 0.0159808 0.00818301 0.00544501 0.000209126 -0.000165988 -2.11613e-10 -1.3338e-10 5.4729e-11 5e-05 1.46608e-10 
13 1 0.19026 0.0174059 0.00715347 0.00629091 -5.86579e-05 -4.25817e-05 -6.39614e-11 -6.50616e-11 5.09642e-10 5e-05 1.46608e-10 
15 1 0.190341 0.0176497 0.0071541 0.00633818 2.04327e-05 0.000163829 1.61012e-10 -4.73467e-10 2.1405e-10 5e-05 1.46608e-10 
17 1 0.190273 0.0170991 0.00733539 0.00621488 -0.000122313 -0.000222954 -2.67776e-11 6.42094e-11 -5.68015e-11 5e-05 1.46608e-10 
18 1 0.196368 0.0178824 0.00697378 0.00549326 5.78845e-05 -0.000460512 1.73461e-11 -6.18302e-10 -5.16886e-10 5e-05 1.46608e-10 
19 1 0.189717 0.0153531 0.00877204 0.00583198 -9.06301e-05 -0.000250763 2.16398e-11 1.19599e-10 -2.40345e-10 5e-05 1.46608e-10 
20 1 0.190539 0.0182856 0.00691519 0.00589374 -7.23449e-05 0.00015072 -2.91289e-10 -3.34388e-10 -5.41571e-11 5e-05 1.46608e-10 
21 1 0.189736 0.0153979 0.00868471 0.00585511 -9.53273e-05 -0.00025274 7.81359e-11 1.14588e-10 -2.49981e-10 5e-05 1.46608e-10 
22 1 0.190589 0.0176806 0.00706765 0.00605827 0.000778281 -6.30922e-05 4.11606e-10 9.38477e-11 -1.73571e-11 5e-05 1.46608e-10 
23 1 0.18435 0.0178029 0.00703483 0.00562236 -0.000224943 -3.44713e-05 -2.128e-10 4.2815e-10 -4.58942e-10 5e-05 1.46608e-10 
24 1 0.196307 0.0176259 0.00711711 0.00623539 -8.11923e-05 -0.000109327 -3.3248e-10 -7.01125e-11 1.02182e-10 5e-05 1.46608e-10 
25 1 0.190314 0.0172566 0.00721717 0.00630688 -8.36273e-05 -0.000252008 4.20224e-11 -1.75875e-10 2.05023e-10 5e-05 1.46608e-10 
26 1 0.196199 0.0171913 0.0073539 0.00616631 0.000241705 0.000179612 6.44068e-13 1.58026e-13 -6.13002e-14 5e-05 1.46608e-10 
28 1 0.190519 0.0181904 0.00693858 0.00582001 -3.77682e-05 0.000138323 -2.50491e-10 -1.95801e-10 -4.24055e-11 5e-05 1.46608e-10 
29 1 0.190231 0.0169429 0.00745283 0.00611678 -9.71071e-05 -0.000236205 -6.84629e-11 1.22423e-10 -9.26861e-11 5e-05 1.46608e-10 
30 1 0.190281 0.0174993 0.00712456 0.00627719 -3.96291e-05 8.72579e-05 -1.76528e-10 -3.45652e-10 -3.51415e-12 5e-05 1.46608e-10 
31 1 0.189914 0.0160611 0.00812684 0.00553506 4.35472e-05 -0.000357361 -6.59988e-11 -5.99953e-11 2.55122e-10 5e-05 1.46608e-10 
32 1 0.190211 0.0168645 0.00751167 0.00607353 -8.70408e-05 -0.000240822 -2.82848e-10 1.79442e-10 -1.19968e-10 5e-05 1.46608e-10 
33 1 0.196135 0.0169251 0.00747625 0.0061161 0.000250827 0.000172924 9.72562e-13 1.0826e-13 1.36602e-14 5e-05 1.46608e-10 
34 1 0.190135 0.0169188 0.00747536 0.00610485 -5.72748e-05 -0.000264427 -2.07346e-10 1.93184e-10 -1.22347e-10 5e-05 1.46608e-10 
36 1 0.196349 0.0177967 0.00702167 0.005757 7.822e-05 -0.000206453 -1.00277e-09 1.00153e-09 4.26042e-10 5e-05 1.46608e-10 
37 1 0.190047 0.0162383 0.00798191 0.00553345 3.56953e-05 -0.00030378 -8.67924e-12 -1.68163e-10 8.7779e-11 5e-05 1.46608e-10 
38 1 0.190451 0.0174584 0.00712023 0.00631284 3.34654e-05 0.00012891 3.36014e-10 -9.89886e-11 3.26991e-11 5e-05 1.46608e-10 
39 1 0.196286 0.0175407 0.00716481 0.00630515 0.000251035 -0.000290148 2.7255e-11 1.07593e-10 -6.01792e-11 5e-05 1.46608e-10 
41 1 0.189776 0.0154989 0.00851675 0.00570501 0.000240509 -8.34549e-05 6.52169e-11 6.18604e-11 -1.25662e-10 5e-05 1.46608e-10 
42 1 0.190427 0.0173641 0.0071433 0.00631989 4.73407e-05 0.000121626 1.20221e-10 -8.32086e-11 2.18857e-11 5e-05 1.46608e-10 
44 1 0.190365 0.0178734 0.00701453 0.00574915 7.55399e-06 0.000123625 -3.70381e-10 5.84428e-11 -2.05059e-11 5e-05 1.46608e-10 
45 1 0.196178 0.0171026 0.00739468 0.00614957 0.000244744 0.00017738 7.16487e-13 1.58848e-13 -6.28343e-14 5e-05 1.46608e-10 
47 1 0.189817 0.0156503 0.00839463 0.00570379 0.000333297 3.22161e-05 7.76738e-12 -4.8542e-11 2.92235e-11 5e-05 1.46608e-10 
49 1 0.196222 0.0172848 0.00730789 0.00620991 0.000205184 -0.000262503 2.96724e-11 1.16474e-10 -6.51768e-11 5e-05 1.46608e-10 
50 1 0.190653 0.0184128 0.00688365 0.00564867 -0.000212353 -4.99279e-05 8.2494e-10 -7.68813e-10 -4.16512e-10 5e-05 1.46608e-10 
51 1 0.184525 0.018655 0.00686731 0.00560852 -0.000257421 -5.24623e-05 1.17414e-10 2.56878e-10 6.65032e-12 5e-05 1.46608e-10 
52 1 0.190558 0.0183808 0.00689181 0.00571864 -2.91565e-05 0.000149821 -1.05245e-09 2.68517e-10 2.75418e-11 5e-05 1.46608e-10 
53 1 0.196244 0.0173701 0.0072602 0.00623969 0.00021258 -0.000267305 2.90202e-11 1.14176e-10 -6.38438e-11 5e-05 1.46608e-10 
54 1 0.190614 0.0182219 0.00693276 0.00593436 -7.04598e-05 0.000153819 -3.04029e-10 -9.20297e-10 2.02622e-10 5e-05 1.46608e-10 
55 1 0.18431 0.0176293 0.00712574 0.00621671 -0.000169231 0.00033589 -3.39863e-10 4.38348e-10 -2.99331e-10 5e-05 1.46608e-10 
56 1 0.190515 0.017745 0.00704992 0.00572481 0.000387545 2.73756e-05 4.40906e-10 3.02895e-10 -6.5401e-11 5e-05 1.46608e-10 
57 1 0.196156 0.0170138 0.00743547 0.00613284 0.000247786 0.000175151 8.42908e-13 1.39997e-13 -1.23873e-14 5e-05 1.46608e-10 
59 1 0.190293 0.0171774 0.00727661 0.00625884 -0.000130869 -0.000221973 -6.02828e-11 6.62688e-11 -4.026e-11 5e-05 1.46608e-10 
60 1 0.190709 0.0182533 0.00692697 0.00593327 0.000159141 8.82926e-05 -4.95163e-10 3.46615e-10 2.27971e-11 5e-05 1.46608e-10 
61 1 0.189794 0.0155679 0.00844677 0.00570879 0.000341152 2.44582e-05 -2.00352e-11 2.77124e-11 -4.3157e-11 5e-05 1.46608e-10 
62 1 0.190303 0.0175884 0.0070845 0.0063031 -4.39098e-05 0.000148181 -1.41665e-10 -4.71148e-10 1.75928e-11 5e-05 1.46608e-10 
63 1 0.189991 0.0163716 0.00788736 0.00555626 4.21535e-05 -0.000304311 -1.08277e-10 -1.52836e-10 2.05456e-11 5e-05 1.46608e-10 
64 1 0.196265 0.0174554 0.0072125 0.00627515 0.000242799 -0.000284874 2.78145e-11 1.10118e-10 -6.15569e-11 5e-05 1.46608e-10 
65 1 0.183955 0.0161628 0.00790055 0.00559945 -0.000319316 -5.10493e-05 -1.80123e-10 -4.0932e-11 -3.90231e-10 5e-05 1.46608e-10 
66 1 0.183877 0.0158716 0.00816352 0.00551301 -0.000295013 -2.80865e-05 1.94733e-10 1.90097e-10 -2.34988e-10 5e-05 1.46608e-10 
67 1 0.190464 0.0183494 0.00689761 0.00586354 -6.38973e-05 0.000146114 3.39626e-10 9.12637e-10 -3.73383e-10 5e-05 1.46608e-10 
69 1 0.190609 0.0177767 0.00704405 0.0057816 0.000302291 5.03469e-05 -6.02458e-11 2.10164e-10 -5.70084e-11 5e-05 1.46608e-10 
70 1 0.190578 0.0184762 0.00686524 0.00564893 -0.000110297 8.48072e-05 1.11452e-09 3.02035e-10 1.33929e-10 5e-05 1.46608e-10 
72 1 0.190107 0.0164734 0.00780546 0.00570793 -4.02613e-05 -0.000257309 9.87716e-11 -2.19889e-10 1.45639e-10 5e-05 1.46608e-10 
73 1 0.190032 0.0165277 0.00776914 0.00575681 1.34268e-06 -0.000290929 3.56694e-10 -1.90092e-11 -1.03393e-11 5e-05 1.46608e-10 
74 1 0.190483 0.018445 0.006876 0.0056492 -8.28539e-06 0.000176207 2.21924e-10 1.38246e-09 -1.22851e-10 5e-05 1.46608e-10 
76 1 0.145405 0.0205718 0.00539992 7.41674e-15 9.13851e-15 -2.35014e-13 2.03234e-22 -2.3059e-22 -2.68834e-24 5e-05 1.46608e-10 
77 1 0.190444 0.0182542 0.00692099 0.00581451 -4.64967e-05 0.000137616 -1.66921e-10 1.15468e-10 -6.53054e-11 5e-05 1.46608e-10 
78 1 0.184561 0.0183933 0.00688403 0.00545181 5.08715e-06 7.68437e-05 3.71409e-10 -1.05293e-09 -1.9109e-10 5e-05 1.46608e-10 
80 1 0.190502 0.0185397 0.00684885 0.00534406 -0.000667911 -0.00661998 -9.32148e-11 -5.32411e-10 -1.00708e-09 5e-05 1.46608e-10 
81 1 0.184137 0.0169305 0.00747449 0.0060602 -0.000105853 0.000293014 -2.40509e-10 -4.6342e-10 2.07224e-10 5e-05 1.46608e-10 
82 1 0.184053 0.0165808 0.00764909 0.00591331 -8.29886e-05 0.000275679 2.44138e-10 -3.43177e-10 1.77189e-10 5e-05 1.46608e-10 
84 1 0.196385 0.017972 0.00693258 0.00578987 0.000196718 3.70507e-05 4.52522e-11 -2.13134e-10 8.91229e-11 5e-05 1.46608e-10 
85 1 0.189756 0.0154456 0.008599 0.00582259 7.19266e-06 -0.000206871 7.35923e-11 9.06419e-11 -2.02324e-10 5e-05 1.46608e-10 
86 1 0.190689 0.0181581 0.00695036 0.00591617 -4.71622e-05 0.000139253 3.17482e-10 -5.64953e-10 1.94879e-10 5e-05 1.46608e-10 
87 1 0.190197 0.017154 0.00729983 0.0062436 -9.98813e-05 -0.000247163 -9.68039e-11 -1.74636e-11 -3.88825e-11 5e-05 1.46608e-10 
88 1 0.190634 0.0183171 0.00690938 0.00565124 -8.64177e-05 0.000149462 1.74045e-09 3.32593e-10 2.86379e-10 5e-05 1.46608e-10 
90 1 0.190649 0.0179677 0.00699713 0.00582874 -2.08372e-05 0.000132136 4.43909e-10 -5.61615e-10 1.30453e-10 5e-05 1.46608e-10 
91 1 0.190155 0.0169972 0.00741652 0.00614536 -6.85005e-05 -0.000260281 3.93196e-11 1.5362e-10 -1.12875e-10 5e-05 1.46608e-10 
92 1 0.190479 0.018 0.00698535 0.00577158 -1.95353e-06 0.000125664 8.19329e-11 2.12729e-10 -6.02519e-11 5e-05 1.46608e-10 
93 1 0.196405 0.0180688 0.00691776 0.00582772 0.000178692 4.59046e-05 -1.52005e-10 -9.69581e-11 5.85786e-11 5e-05 1.46608e-10 
94 1 0.190629 0.0178725 0.00702052 0.00581874 -4.20809e-05 0.000137304 -6.13389e-11 -6.00142e-10 1.54914e-10 5e-05 1.46608e-10 
95 1 0.190052 0.016606 0.00771035 0.0058945 -2.09539e-05 -0.000281309 1.50641e-10 -4.54876e-11 1.39515e-11 5e-05 1.46608e-10 
96 1 0.190072 0.0166846 0.007652 0.00597296 -3.85502e-05 -0.000272898 4.12397e-11 7.94917e-12 5.70797e-12 5e-05 1.46608e-10 
98 1 0.190724 0.0179039 0.00701473 0.00586798 2.12807e-05 0.00012225 7.32395e-10 -1.39334e-09 3.68408e-10 5e-05 1.46608e-10 
99 1 0.184521 0.0177719 0.00704788 0.00621589 -0.000336779 4.05699e-05 -8.39609e-12 -3.39247e-11 -4.19414e-11 5e-05 1.46608e-10 
101 1 0.184202 0.0171926 0.00734368 0.00611727 -0.000135424 0.00031079 -6.07039e-11 1.07712e-10 -4.19436e-11 5e-05 1.46608e-10 
102 1 0.0694385 0.0202053 0.00537268 3.98177e-15 4.45935e-15 -7.68259e-14 -8.10055e-22 6.56717e-22 4.1359e-25 5e-05 1.46608e-10 
104 1 0.0249839 0.0195037 0.00542543 -3.58891e-15 -5.7869e-16 5.85127e-14 5.94536e-25 -2.42015e-24 0 5e-05 1.46608e-10 
106 1 0.178424 0.0181599 0.00700904 0.00569125 -0.000274261 0.000220242 2.75703e-10 -2.34659e-10 7.10416e-11 5e-05 1.46608e-10 
107 1 0.184033 0.016493 0.00769295 0.00572977 -6.51167e-05 0.000256419 -1.33921e-10 -2.88094e-10 9.886e-11 5e-05 1.46608e-10 
108 1 0.19019 0.0167862 0.00757044 0.00602415 -7.72126e-05 -0.000245622 -2.41976e-10 1.32827e-10 -8.9923e-11 5e-05 1.46608e-10 
110 1 0.190783 0.0181894 0.00694457 0.00603114 0.00022725 7.14238e-05 -4.17731e-10 1.62139e-10 -9.63489e-11 5e-05 1.46608e-10 
111 1 0.184224 0.0172799 0.00730015 0.00612901 -0.00014526 0.000315433 1.97582e-10 1.79588e-10 -8.16342e-11 5e-05 1.46608e-10 
112 1 0.183975 0.0162365 0.00783585 0.00562648 -0.000182528 0.000113771 1.09777e-10 -1.28685e-10 -3.5532e-10 5e-05 1.46608e-10 
115 1 0.190115 0.016841 0.00753469 0.00605589 -4.80073e-05 -0.000268497 -2.86524e-10 1.40176e-10 -9.46355e-11 5e-05 1.46608e-10 
116 1 0.190728 0.0183493 0.00690213 0.00571942 -0.000222122 -3.86942e-05 1.65269e-09 1.04238e-09 -4.19126e-10 5e-05 1.46608e-10 
117 1 0.190669 0.0180629 0.00697375 0.00586405 -1.23433e-05 0.000129259 2.48939e-10 -5.05151e-10 1.26724e-10 5e-05 1.46608e-10 
118 1 0.184116 0.0168431 0.0075181 0.00603055 -0.000100984 0.000288477 -3.96942e-11 -4.52069e-10 2.16659e-10 5e-05 1.46608e-10 
119 1 0.190521 0.0186374 0.00683913 0.00566909 -6.10834e-05 8.74134e-05 1.98027e-10 -3.5069e-10 4.70139e-10 5e-05 1.46608e-10 
120 1 0.189698 0.0153084 0.00885928 0.00576872 -8.47837e-05 -0.000258064 6.71384e-11 1.11636e-10 -2.13069e-10 5e-05 1.46608e-10 
121 1 0.190744 0.0179991 0.00699134 0.00585455 -7.8734e-06 0.000129783 1.39299e-10 -4.57574e-10 1.04379e-10 5e-05 1.46608e-10 
122 1 0.190574 0.0180315 0.00697954 0.0058333 -7.81139e-06 0.000127363 4.21446e-11 -3.22374e-10 7.55736e-11 5e-05 1.46608e-10 
124 1 0.190404 0.0180638 0.00696776 0.00576795 9.21861e-06 0.000123837 1.06722e-10 1.24256e-10 2.42152e-11 5e-05 1.46608e-10 
125 1 0.190087 0.0163951 0.00786426 0.00560003 -8.19931e-06 -0.000275045 -8.68341e-11 -2.67193e-10 2.26433e-10 5e-05 1.46608e-10 
126 1 0.189972 0.0162927 0.00794559 0.00554312 4.66096e-05 -0.000312098 -5.2731e-11 -2.37796e-10 1.54294e-10 5e-05 1.46608e-10 
127 1 0.184482 0.0176004 0.00714359 0.00651892 -5.13114e-05 -0.000121213 3.924e-11 -5.67951e-11 4.85592e-11 5e-05 1.46608e-10 
128 1 0.19042 0.017714 0.00705561 0.00586639 3.29189e-05 0.000118749 6.69709e-10 -1.27892e-10 4.84836e-11 5e-05 1.46608e-10 
129 1 0.184405 0.0180689 0.00691172 0.0057985 -0.000224402 0.000122556 -2.76352e-10 -2.23276e-11 -2.73516e-11 5e-05 1.46608e-10 
131 1 0.184331 0.0177167 0.00708212 0.00622494 -0.000161121 0.000334862 7.35308e-11 3.65242e-10 -1.99595e-10 5e-05 1.46608e-10 
132 1 0.190176 0.0170758 0.00735825 0.00619704 -8.51194e-05 -0.000255418 2.18347e-11 6.44468e-11 -7.3692e-11 5e-05 1.46608e-10 
133 1 0.190672 0.0185074 0.00685354 0.00567081 -8.15287e-05 -9.19656e-05 -5.84972e-11 -8.37765e-11 8.56267e-11 5e-05 1.46608e-10 
134 1 0.19044 0.0178093 0.0070322 0.00572827 0.000145472 8.75888e-05 4.21351e-10 -7.65273e-11 2.66296e-11 5e-05 1.46608e-10 
135 1 0.190011 0.01645 0.00782865 0.00562372 2.51338e-05 -0.000297811 2.91497e-10 -5.87518e-11 -4.82206e-11 5e-05 1.46608e-10 
136 1 0.184384 0.0175704 0.0071586 0.00618392 -0.000233042 0.000363803 -4.02594e-10 2.66379e-10 -1.45005e-10 5e-05 1.46608e-10 
137 1 0.19046 0.0179047 0.00700877 0.00573356 5.60094e-05 0.000110702 -1.39462e-09 1.5226e-09 -4.0758e-10 5e-05 1.46608e-10 
138 1 0.190093 0.016763 0.00759349 0.00600792 -4.29766e-05 -0.00027129 -1.30497e-10 6.71585e-11 -4.68921e-11 5e-05 1.46608e-10 
140 1 0.190385 0.0179686 0.00699115 0.00574139 2.04652e-05 0.00012038 -4.01555e-11 1.50233e-10 -5.56772e-11 5e-05 1.46608e-10 
141 1 0.184014 0.0164053 0.00773682 0.00560747 -6.26446e-05 0.000248231 -4.16036e-10 -1.74217e-10 9.93071e-11 5e-05 1.46608e-10 
143 1 0.393994 0.0150325 6.48596e-05 -2.1271e-21 1.6267e-21 -1.45327e-21 0 0 0 5e-05 1.46608e-10 
146 1 0.18454 0.0178576 0.00700005 0.00608368 -0.000292602 5.22746e-05 -3.55594e-11 -1.91687e-11 -6.92893e-11 5e-05 1.46608e-10 
147 1 0.184385 0.0179747 0.00693893 0.00571887 -0.000241405 2.01141e-05 3.19135e-10 3.09031e-11 7.06966e-10 5e-05 1.46608e-10 
148 1 0.0085399 0.0166965 0.00841422 0.000302917 0.00847524 -0.00691816 2.38704e-12 2.41375e-10 -2.40014e-10 5e-05 1.46608e-10 
149 1 0.190332 0.0173359 0.00715775 0.00630608 -5.85849e-05 -0.000270088 -5.59909e-12 -1.06103e-10 6.41612e-11 5e-05 1.46608e-10 
150 1 0.183858 0.0157989 0.00822928 0.00551201 -0.000290376 -3.38381e-05 8.92416e-11 2.27856e-10 -1.86269e-10 5e-05 1.46608e-10 
151 1 0.184521 0.0181979 0.0069017 0.00589389 -0.000196996 0.000130715 -9.20002e-11 -2.90828e-10 5.96215e-11 5e-05 1.46608e-10 
154 1 0.184406 0.0176581 0.00711361 0.00637692 -0.000180639 -3.06128e-05 5.18688e-11 1.46892e-10 -4.29831e-11 5e-05 1.46608e-10 
155 1 0.178505 0.0185471 0.00694943 0.00569147 -0.000187173 0.000209479 3.18176e-10 3.66785e-10 -4.22915e-11 5e-05 1.46608e-10 
157 1 0.184267 0.0174545 0.00721299 0.0061275 -0.000152834 0.000318799 1.62276e-10 2.47245e-10 -1.13728e-10 5e-05 1.46608e-10 
165 1 0.184541 0.0182954 0.00689289 0.00554918 -0.000142474 9.98804e-05 3.74161e-10 -4.52554e-10 7.52273e-11 5e-05 1.46608e-10 
166 1 0.190028 0.0161599 0.00804076 0.00556749 5.28238e-05 -0.000318757 2.13089e-10 -2.55527e-11 5.6027e-12 5e-05 1.46608e-10 
168 1 0.244009 0.0174238 0.0079534 0.0267208 0.0297286 -0.0111696 4.2237e-10 4.65456e-11 -1.03996e-10 5e-05 1.46608e-10 
171 1 0.189952 0.0162143 0.00800444 0.00554586 4.8083e-05 -0.000318724 4.72099e-11 -2.01342e-10 8.0449e-11 5e-05 1.46608e-10 
172 1 0.184426 0.0177445 0.00706549 0.0062336 -0.000247834 0.000242568 4.37973e-11 -2.48599e-12 -2.53176e-10 5e-05 1.46608e-10 
176 1 0.183935 0.01609 0.00796621 0.00557822 -0.000305081 -4.2445e-05 7.36762e-11 1.92955e-10 -4.05138e-10 5e-05 1.46608e-10 
177 1 0.183994 0.0163176 0.00778069 0.00560526 -7.28652e-05 0.000265035 1.61866e-10 -1.04333e-10 -1.82178e-11 5e-05 1.46608e-10 
179 1 0.178404 0.0180631 0.00702393 0.00561253 -0.000258421 0.000216753 1.05918e-10 -4.64255e-10 -5.91398e-12 5e-05 1.46608e-10 
181 1 0.183916 0.0160172 0.00803198 0.00554419 -0.000286957 -4.31916e-05 -1.4416e-10 3.95317e-10 -1.42132e-10 5e-05 1.46608e-10 
182 1 0.190169 0.0167081 0.00762914 0.00598221 -7.4751e-05 -0.000246322 -9.86847e-11 1.41026e-11 1.22955e-12 5e-05 1.46608e-10 
184 1 0.190345 0.0177782 0.00703792 0.00581817 -1.47815e-05 0.000128411 3.92535e-10 -1.72547e-10 6.51048e-11 5e-05 1.46608e-10 
187 1 0.190353 0.0174298 0.00712528 0.00631341 2.17558e-05 0.000128122 -8.70505e-11 -3.14652e-10 1.40524e-10 5e-05 1.46608e-10 
188 1 0.190594 0.0181266 0.00695616 0.00586068 5.06524e-06 0.000128811 -1.37683e-11 -2.17071e-10 1.2894e-10 5e-05 1.46608e-10 
189 1 0.190494 0.0176492 0.00707343 0.00620819 0.000299838 5.98503e-05 1.57573e-11 -9.73356e-11 2.55978e-11 5e-05 1.46608e-10 
191 1 0.190217 0.0172318 0.00724031 0.0062745 -0.000114345 -0.000240916 -1.28137e-10 -7.75904e-11 9.32617e-11 5e-05 1.46608e-10 
192 1 0.181151 0.0172012 0.00721925 0.00597905 0.000991058 -0.000268939 -8.81979e-13 7.84631e-13 -4.32686e-13 5e-05 1.46608e-10 
193 1 0.193112 0.017018 0.00728859 0.00595049 0.000546478 2.57325e-05 -1.79162e-13 2.39771e-12 -1.12945e-12 5e-05 1.46608e-10 
197 1 0.183838 0.0157261 0.00829505 0.00550618 -0.000279523 -4.3796e-05 8.85452e-11 2.90512e-10 -2.76089e-10 5e-05 1.46608e-10 
198 1 0.184462 0.0179171 0.00696898 0.00556692 -0.000140422 -6.14663e-05 6.67855e-11 -6.83348e-11 5.23024e-11 5e-05 1.46608e-10 
200 1 0.184506 0.0185571 0.00687346 0.00559691 -0.000243444 -4.73517e-05 1.21488e-11 1.52312e-10 -7.35459e-13 5e-05 1.46608e-10 
201 1 0.184425 0.0181664 0.00690292 0.00582845 -0.000221649 0.000127186 -3.36772e-11 -1.56994e-10 5.91756e-12 5e-05 1.46608e-10 
203 1 0.190238 0.0173153 0.0071893 0.0062884 -9.71733e-05 -0.000187805 -3.36765e-11 3.1283e-11 5.39614e-10 5e-05 1.46608e-10 
204 1 0.178384 0.0179666 0.00704097 0.00558763 -0.000272861 0.000108659 -4.45812e-10 -6.83559e-11 -5.70809e-10 5e-05 1.46608e-10 
206 1 0.178445 0.0182567 0.00699415 0.00571027 -0.000267815 0.000225102 3.29046e-11 -1.60657e-10 5.01315e-11 5e-05 1.46608e-10 
207 1 0.060646 0.0186723 0.00546139 1.16214e-15 5.18597e-15 3.71388e-14 -7.01165e-24 2.11965e-24 -2.06795e-25 5e-05 1.46608e-10 
208 1 0.184368 0.0178888 0.00698686 0.00570635 -0.000222121 -9.39685e-06 6.5742e-11 3.53541e-10 -3.7321e-11 5e-05 1.46608e-10 
209 1 0.178193 0.0171215 0.00728392 0.00612522 -0.000719147 8.72571e-05 -9.24919e-11 -6.62683e-10 2.46862e-10 5e-05 1.46608e-10 
210 1 0.190535 0.0178409 0.00702636 0.00570095 0.000317671 4.44688e-05 1.85851e-09 -1.14346e-09 3.25535e-10 5e-05 1.46608e-10 
211 1 0.184486 0.0184593 0.0068796 0.00543679 -0.000181759 -2.55503e-05 7.84364e-11 2.49322e-10 3.46778e-11 5e-05 1.46608e-10 
212 1 0.184159 0.0170178 0.00743094 0.00609408 -0.000117957 0.000300117 1.97437e-11 -3.29179e-10 1.74386e-10 5e-05 1.46608e-10 
213 1 0.190399 0.0176189 0.00707896 0.00630253 9.454e-06 0.000135561 5.33161e-11 -2.64634e-10 4.42749e-11 5e-05 1.46608e-10 
214 1 0.190541 0.0187352 0.00684513 0.00570697 -8.29115e-06 -0.000135936 2.29952e-11 2.21162e-10 -5.0453e-10 5e-05 1.46608e-10 
217 1 0.190128 0.0165517 0.00774667 0.00582907 -6.99151e-05 -0.000241424 2.36599e-10 -1.29076e-10 8.20123e-11 5e-05 1.46608e-10 
218 1 0.190596 0.0185715 0.00684118 0.0056466 -0.00010187 8.30137e-05 4.77194e-10 -2.23822e-10 -2.26932e-10 5e-05 1.46608e-10 
221 1 0.178128 0.0168508 0.00738934 0.00616598 -0.000412766 0.00062854 1.88453e-10 1.44462e-10 -2.1689e-10 5e-05 1.46608e-10 
222 1 0.189834 0.0157333 0.00834182 0.0056861 0.000323936 3.71167e-05 -3.2391e-11 -1.02137e-10 6.70459e-11 5e-05 1.46608e-10 
223 1 0.199258 0.0176831 0.00701469 0.00562283 -0.000522192 0.000153971 -1.20782e-12 1.15314e-13 -3.20223e-14 5e-05 1.46608e-10 
225 1 0.190377 0.0175241 0.00710221 0.00632234 1.30609e-05 0.000135327 1.61628e-10 -3.57172e-10 8.26463e-11 5e-05 1.46608e-10 
226 1 0.184288 0.0175419 0.00716933 0.00616783 -0.000163894 0.000327371 1.23626e-11 3.15126e-10 -1.91547e-10 5e-05 1.46608e-10 
228 1 0.0507861 0.0189683 0.00558458 -5.35807e-15 -1.91061e-14 -2.87013e-13 -1.01727e-22 5.5098e-23 -2.48154e-24 5e-05 1.46608e-10 
231 1 0.197479 0.018695 0.00523156 -1.08994e-15 -2.69838e-14 1.45243e-13 -3.43409e-23 -2.68834e-24 -6.20385e-25 5e-05 1.46608e-10 
232 1 0.189081 0.0184947 0.00541361 -2.163e-15 1.30876e-15 5.80687e-14 -6.9341e-24 -4.98829e-23 1.03398e-24 5e-05 1.46608e-10 
234 1 0.190554 0.0179363 0.00700293 0.00578611 -1.79523e-05 0.000130603 -1.19039e-10 4.5235e-11 -3.27169e-11 5e-05 1.46608e-10 
235 1 0.194679 0.0184196 0.00544868 1.51116e-14 9.62674e-14 2.34553e-13 -8.59363e-23 1.19424e-22 -3.24668e-23 5e-05 1.46608e-10 
238 1 0.178214 0.0172153 0.00725694 0.00611848 -0.000714097 7.35701e-05 -6.59885e-11 -3.86257e-10 1.00448e-10 5e-05 1.46608e-10 
239 1 0.178028 0.0164873 0.00771792 0.00546222 -0.00043645 0.000611662 3.83579e-10 3.47902e-10 -1.98807e-10 5e-05 1.46608e-10 
240 1 0.178108 0.0167782 0.00745502 0.00613282 -0.00043455 0.000642687 -1.4652e-11 8.15408e-11 -6.96705e-11 5e-05 1.46608e-10 
241 1 0.178048 0.0165601 0.00765215 0.00551351 -0.000425577 0.000600617 -2.16399e-10 1.61015e-10 -1.45661e-10 5e-05 1.46608e-10 
242 1 0.178524 0.0186441 0.00693447 0.00560641 -0.000147065 0.000197392 -3.05516e-11 4.9453e-10 -9.64119e-11 5e-05 1.46608e-10 
243 1 0.178009 0.0164146 0.00778369 0.00543138 -0.000446214 0.000615989 -1.70851e-10 -8.56118e-11 9.87482e-11 5e-05 1.46608e-10 
244 1 0.178068 0.0166328 0.00758641 0.00590795 -0.000453018 0.000639157 -2.79027e-11 -9.40696e-11 -6.82439e-12 5e-05 1.46608e-10 
245 1 0.178236 0.0173091 0.00722995 0.00611447 -0.000693097 6.94716e-05 4.29196e-11 2.02668e-11 -8.41455e-11 5e-05 1.46608e-10 
246 1 0.178149 0.0169339 0.00733794 0.00614149 -0.000727185 9.93512e-05 -2.25667e-11 -6.38441e-10 -8.85996e-10 5e-05 1.46608e-10 
248 1 0.183897 0.0159444 0.00809775 0.00551833 -0.000292939 -3.70504e-05 -6.81097e-12 2.73225e-10 -2.25203e-10 5e-05 1.46608e-10 
249 1 0.178279 0.0174968 0.00717599 0.00615657 -0.000621366 4.92441e-05 -2.41209e-10 4.34344e-10 -1.34817e-10 5e-05 1.46608e-10 
250 1 0.184985 0.0169478 0.0156893 0.00546779 0.00109793 0.000594733 -8.26309e-13 -1.88762e-12 -5.34317e-13 5e-05 1.46608e-10 
251 1 0.190251 0.0170211 0.00739406 0.00616163 -0.000110119 -0.000228354 -3.48999e-12 1.12431e-10 -7.84946e-11 5e-05 1.46608e-10 
252 1 0.178258 0.017403 0.00720297 0.00613077 -0.000660075 6.00902e-05 2.48431e-10 2.85558e-10 -1.24188e-10 5e-05 1.46608e-10 
254 1 0.184423 0.0182374 0.0076815 -1.17057e-10 -0.0235993 0.00501642 -1.28131e-18 4.53406e-12 2.1396e-11 5e-05 1.46608e-10 
255 1 0.184245 0.0173689 0.00725989 0.00612633 -0.000150129 0.00031769 -6.27766e-11 2.07678e-10 -1.24563e-10 5e-05 1.46608e-10 
256 1 0.19064 0.0171028 0.00812355 0.0150649 0.0223408 -0.0127161 -2.07493e-10 1.07531e-10 -1.39515e-10 5e-05 1.46608e-10 
257 1 0.184444 0.0178312 0.0070169 0.00561207 -0.000142198 -4.12613e-05 7.80546e-11 1.0596e-10 4.13861e-11 5e-05 1.46608e-10 
258 1 0.184559 0.0179436 0.00695268 0.00593815 -0.000216672 0.000102742 2.1164e-11 3.8069e-11 3.37653e-11 5e-05 1.46608e-10 
259 1 0.178301 0.0175906 0.00714901 0.00612961 -0.00056308 3.13121e-05 -3.01414e-10 4.27684e-10 -9.04921e-11 5e-05 1.46608e-10 
260 1 0.18448 0.018003 0.00692108 0.00563016 -0.000155842 -4.9948e-05 2.15014e-10 -1.88919e-10 1.43878e-10 5e-05 1.46608e-10 
261 1 0.184576 0.0180357 0.00691799 0.00587815 -0.000179329 0.000123699 -7.33294e-11 -7.28757e-11 -1.67217e-11 5e-05 1.46608e-10 
262 1 0.1845 0.0181004 0.00691051 0.00584085 -0.00019735 0.000120732 3.0899e-11 -1.42279e-10 -3.56838e-12 5e-05 1.46608e-10 
263 1 0.178465 0.0183535 0.00697926 0.0057449 -0.000249592 0.000219294 -3.31377e-10 8.94031e-11 5.47911e-11 5e-05 1.46608e-10 
265 1 0.184446 0.0182639 0.00689411 0.0058214 -0.000257684 0.000134018 -4.64597e-11 -1.18319e-10 -1.29186e-11 5e-05 1.46608e-10 
270 1 0.190499 0.0180952 0.00696196 0.00581299 -4.27503e-06 0.000127679 2.02662e-10 -3.29368e-11 5.73511e-11 5e-05 1.46608e-10 
271 1 0.251288 0.0173444 0.00798095 0.0150288 0.0261862 -0.00931923 0 0 -1.43822e-09 5e-05 1.46608e-10 
272 1 0.178344 0.0177782 0.00709504 0.00604587 -0.000447003 1.35795e-05 8.95671e-11 3.12542e-10 -8.80148e-11 5e-05 1.46608e-10 
273 1 0.0592339 0.0171614 0.00809024 -0.0170591 0.0137734 -0.00678995 3.11884e-10 1.08316e-10 -1.12204e-10 5e-05 1.46608e-10 
274 1 0.178323 0.0176844 0.00712202 0.00613022 -0.000511051 1.65661e-05 1.49633e-10 3.40888e-10 -2.81063e-11 5e-05 1.46608e-10 
275 1 0.184466 0.0183615 0.0068861 0.00553974 -0.000221835 -1.56752e-06 3.69124e-10 -8.37984e-11 6.99452e-10 5e-05 1.46608e-10 
276 1 0.184181 0.0171053 0.00738751 0.0060943 -0.000126771 0.000304676 -1.02653e-10 -9.31609e-11 2.95455e-11 5e-05 1.46608e-10 
277 1 0.184073 0.0166684 0.0076053 0.00600552 -9.62734e-05 0.000285215 -1.03846e-10 -3.35778e-10 1.65685e-10 5e-05 1.46608e-10 
279 1 0.178544 0.0187411 0.00691952 0.00562588 -0.000124193 0.000196487 3.43956e-12 4.63075e-10 -6.21583e-11 5e-05 1.46608e-10 
282 1 0.178171 0.0170277 0.00731092 0.006125 -0.000725171 7.94944e-05 -9.24184e-11 -8.09183e-10 -2.54088e-10 5e-05 1.46608e-10 
283 1 0.178088 0.0167055 0.00752068 0.00604417 -0.000445853 0.000640406 -1.1995e-10 -1.17005e-10 2.54191e-11 5e-05 1.46608e-10 
284 1 0.184095 0.0167556 0.00756183 0.00601243 -9.43869e-05 0.000284129 9.5488e-11 -4.00065e-10 2.05556e-10 5e-05 1.46608e-10 
288 1 0.184501 0.0176862 0.0070957 0.00624845 -0.000349655 4.76849e-05 -1.2988e-10 5.11378e-12 -2.96878e-11 5e-05 1.46608e-10 
293 1 0.178364 0.0178725 0.00706799 0.00580147 -0.00036419 1.23419e-05 -2.97681e-10 2.07217e-10 -3.53323e-10 5e-05 1.46608e-10 
294 1 0.152576 0.0182562 0.00546336 5.54952e-16 -1.40851e-15 1.14577e-14 -2.61428e-22 -2.0085e-23 8.06501e-24 5e-05 1.46608e-10 
295 1 0.234716 0.018654 0.00760834 0.0363571 0.0138285 0.00218477 1.18224e-09 -4.06562e-10 -3.89196e-09 5e-05 1.46608e-10 
297 1 0.190424 0.018159 0.00694438 0.00579225 -1.3304e-05 0.000131658 1.22862e-10 -6.81613e-11 -8.20335e-11 5e-05 1.46608e-10 
300 1 0.190148 0.0166299 0.00768789 0.00592088 -7.74873e-05 -0.000240963 8.1743e-11 -9.3228e-12 2.11371e-11 5e-05 1.46608e-10 
