ITEM: TIMESTEP
34600000
ITEM: NUMBER OF ATOMS
211
ITEM: BOX BOUNDS ff ff ff
-0.02 0.43
-0.02 0.06
-0.02 0.07
ITEM: ATOMS id type x y z vx vy vz fx fy fz radius mass 
1 1 0.215145 0.0176417 0.0070567 0.00580848 4.28362e-05 0.0006751 3.30657e-11 -4.16454e-12 -3.94486e-11 5e-05 1.46608e-10 
2 1 0.214782 0.0175965 0.00716757 0.00554399 -0.000130724 8.89077e-05 2.11373e-10 3.07686e-10 -5.13776e-11 5e-05 1.46608e-10 
3 1 0.202938 0.0183229 0.00689502 0.00610636 0.000341551 0.000254193 4.44521e-11 -3.04735e-11 2.49696e-11 5e-05 1.46608e-10 
4 1 0.214532 0.0163386 0.00818632 0.00569394 -2.3341e-05 0.000719053 5.12762e-11 1.33526e-10 -1.38179e-10 5e-05 1.46608e-10 
5 1 0.214929 0.0174684 0.00719039 0.00555955 7.74201e-05 0.000622402 -2.35011e-10 -2.2957e-10 7.33624e-11 5e-05 1.46608e-10 
6 1 0.220576 0.0166908 0.00767148 0.00584104 0.000160781 -0.00110646 8.41929e-11 -2.58581e-10 4.45394e-10 5e-05 1.46608e-10 
7 1 0.214306 0.0158723 0.00858975 0.00573884 1.71503e-06 0.000702159 5.16625e-11 -6.03798e-12 -3.56156e-12 5e-05 1.46608e-10 
8 1 0.214393 0.0161642 0.0083305 0.0057099 -2.0775e-05 0.000719102 5.40937e-11 7.768e-11 -3.22016e-11 5e-05 1.46608e-10 
9 1 0.22076 0.0174843 0.00718463 0.00580345 0.00103101 -0.000371515 -5.13501e-11 6.62441e-12 4.7726e-11 5e-05 1.46608e-10 
10 1 0.214328 0.0159452 0.00852496 0.00572442 -6.8357e-06 0.000708318 -1.42574e-11 -1.41359e-12 -1.74323e-12 5e-05 1.46608e-10 
11 1 0.214349 0.0160182 0.00846012 0.00571873 -1.43269e-05 0.000714622 5.43446e-11 1.12938e-11 1.40156e-11 5e-05 1.46608e-10 
13 1 0.214726 0.0173331 0.00729264 0.00548557 7.97795e-05 0.000613333 2.44673e-10 1.04507e-10 -3.57249e-10 5e-05 1.46608e-10 
15 1 0.214899 0.0176472 0.00716227 0.00514612 0.000689762 -3.82966e-05 -1.06254e-10 1.19051e-10 3.455e-10 5e-05 1.46608e-10 
17 1 0.21475 0.0170706 0.00753629 0.00548999 1.59024e-06 0.000672391 -2.84811e-10 -1.77939e-10 1.87965e-10 5e-05 1.46608e-10 
18 1 0.220799 0.0176783 0.00715519 0.00578257 0.00102357 -0.000368839 -4.18024e-12 -1.73278e-10 1.13675e-11 5e-05 1.46608e-10 
19 1 0.214154 0.0153574 0.0090388 0.00578994 -0.000410635 -3.23112e-05 -6.02298e-10 -7.91946e-10 1.33575e-09 5e-05 1.46608e-10 
20 1 0.21498 0.0181009 0.00699626 0.00574439 -0.000254443 0.000347305 -2.77656e-10 1.66297e-10 -2.01699e-10 5e-05 1.46608e-10 
21 1 0.214176 0.0154332 0.00897734 0.00580049 -0.000417942 7.97836e-06 4.35932e-11 1.23374e-09 1.07212e-09 5e-05 1.46608e-10 
22 1 0.215043 0.0175478 0.00713098 0.00548449 -6.41186e-05 0.000734313 2.11992e-11 3.36533e-10 -1.40553e-10 5e-05 1.46608e-10 
23 1 0.208764 0.0175053 0.0071568 0.00570476 0.000405085 5.47481e-05 4.30288e-11 7.16321e-11 -2.47039e-11 5e-05 1.46608e-10 
24 1 0.220741 0.0173874 0.00719936 0.00580706 0.0010439 -0.000374596 -3.34637e-11 3.4077e-11 -2.6394e-11 5e-05 1.46608e-10 
25 1 0.214788 0.0172171 0.00740542 0.00549178 3.58824e-05 0.000642533 1.8062e-10 6.04664e-11 -8.42435e-12 5e-05 1.46608e-10 
26 1 0.220646 0.0169465 0.00737292 0.00590998 0.000997559 -0.00038238 7.02768e-12 1.85719e-10 -4.81757e-11 5e-05 1.46608e-10 
28 1 0.214958 0.0180049 0.00697795 0.00558067 -0.000239503 0.000376453 9.34362e-11 -1.00937e-10 3.78402e-11 5e-05 1.46608e-10 
29 1 0.214706 0.0169228 0.00766751 0.00570144 3.80522e-05 0.000663428 8.52499e-11 -2.48461e-10 2.49191e-10 5e-05 1.46608e-10 
30 1 0.214743 0.017412 0.00723368 0.00552959 9.18086e-05 0.000612659 -8.45386e-11 1.49173e-10 -1.6084e-10 5e-05 1.46608e-10 
31 1 0.214372 0.0160911 0.00839554 0.00571583 -1.87427e-05 0.000717551 2.49307e-12 7.97475e-13 -2.59272e-11 5e-05 1.46608e-10 
32 1 0.214685 0.0168496 0.00773265 0.00570141 2.63054e-05 0.000674868 8.05836e-11 -2.53275e-10 2.57758e-10 5e-05 1.46608e-10 
33 1 0.220594 0.0167505 0.00759328 0.00586956 0.000150206 -0.001105 3.27446e-10 -1.6008e-10 2.63733e-10 5e-05 1.46608e-10 
34 1 0.214611 0.0168978 0.00768709 0.00567037 -4.49081e-06 0.000697869 1.5014e-11 -1.48827e-10 1.86699e-10 5e-05 1.46608e-10 
36 1 0.22078 0.0175813 0.00716991 0.00580037 0.00102166 -0.000371224 1.78286e-10 -5.15922e-11 -3.54087e-11 5e-05 1.46608e-10 
37 1 0.21451 0.0162656 0.00825114 0.00569909 -2.48937e-05 0.000722281 1.66471e-11 1.43387e-10 -1.2609e-10 5e-05 1.46608e-10 
38 1 0.214915 0.0173949 0.00725668 0.00552734 8.61279e-05 0.000597854 3.08467e-10 -1.1323e-10 2.27595e-10 5e-05 1.46608e-10 
39 1 0.220722 0.0172903 0.00721407 0.0058282 0.0010363 -0.000379009 -2.8707e-10 9.0617e-11 -9.56106e-11 5e-05 1.46608e-10 
41 1 0.214219 0.0155803 0.00884906 0.00579849 4.76891e-05 0.00066927 -7.28597e-10 2.53202e-10 -1.08109e-10 5e-05 1.46608e-10 
42 1 0.214898 0.0173216 0.00732233 0.0054753 8.66303e-05 0.000589259 3.01267e-10 -1.84264e-10 1.32104e-10 5e-05 1.46608e-10 
44 1 0.214865 0.0177663 0.00710179 0.00573233 -0.000558669 -0.000123594 -1.45505e-11 -1.66644e-10 8.85733e-11 5e-05 1.46608e-10 
45 1 0.220629 0.0168765 0.00744226 0.00584907 0.000742078 -0.000629372 -2.84694e-11 2.09536e-10 -7.95703e-12 5e-05 1.46608e-10 
47 1 0.214263 0.0157263 0.00871943 0.0058132 1.78314e-05 0.000697536 5.11372e-10 -7.53918e-12 8.4108e-11 5e-05 1.46608e-10 
49 1 0.220665 0.0170216 0.00730973 0.00588462 0.000999345 -0.000403194 -1.33045e-10 9.07795e-11 -2.72876e-11 5e-05 1.46608e-10 
50 1 0.215115 0.0182606 0.00703241 0.00525791 -0.000176932 0.000364564 3.54469e-10 -2.68466e-10 -1.37459e-11 5e-05 1.46608e-10 
51 1 0.208945 0.0183617 0.00695994 0.00617486 7.99749e-05 -0.000847053 -2.35078e-11 -2.07924e-11 1.13989e-12 5e-05 1.46608e-10 
52 1 0.215 0.0181973 0.0070132 0.00599393 -0.000294507 0.000397945 -2.02925e-10 3.77627e-10 -6.23458e-11 5e-05 1.46608e-10 
53 1 0.220683 0.0170968 0.00724622 0.00584118 0.00101437 -0.000415363 -1.39648e-11 8.16154e-12 -1.03462e-10 5e-05 1.46608e-10 
54 1 0.215074 0.0180679 0.00699713 0.00572519 -0.000260961 0.000385934 -1.30553e-10 1.94793e-10 2.82216e-11 5e-05 1.46608e-10 
55 1 0.208725 0.0173188 0.00721721 0.00566745 0.000415404 5.42429e-05 1.02353e-10 1.80024e-10 1.61175e-10 5e-05 1.46608e-10 
56 1 0.214947 0.0176304 0.00707607 0.00552452 -0.000195108 0.000299202 -1.47332e-10 -5.62591e-10 -2.92717e-11 5e-05 1.46608e-10 
57 1 0.220611 0.0168103 0.00751506 0.00582967 0.000268903 -0.00104289 7.06869e-12 1.07047e-10 1.1636e-10 5e-05 1.46608e-10 
59 1 0.214771 0.0171437 0.00747132 0.00547989 1.83436e-05 0.0006574 1.1619e-10 -1.65386e-10 1.1281e-10 5e-05 1.46608e-10 
60 1 0.21517 0.0180964 0.00700902 0.00578421 -0.000473094 0.000354124 -3.46299e-11 1.91532e-10 2.07437e-11 5e-05 1.46608e-10 
61 1 0.214241 0.0156533 0.0087842 0.00577956 4.17471e-05 0.000668869 -1.71696e-10 -8.0845e-11 -2.73175e-11 5e-05 1.46608e-10 
62 1 0.214762 0.0175056 0.0072043 0.00554416 8.23128e-05 0.000612475 5.53026e-13 2.64591e-10 -1.44149e-10 5e-05 1.46608e-10 
63 1 0.214458 0.0163831 0.00813605 0.00569729 -1.72825e-05 0.00071449 3.56725e-11 1.89152e-10 -5.10132e-11 5e-05 1.46608e-10 
64 1 0.220703 0.0171933 0.00722916 0.00583884 0.0010246 -0.000400777 -1.49012e-10 5.2271e-11 -2.52639e-10 5e-05 1.46608e-10 
65 1 0.208388 0.0159685 0.00816307 0.00620407 -3.44498e-05 -0.000296338 2.14561e-10 -1.92881e-10 8.31194e-11 5e-05 1.46608e-10 
66 1 0.208301 0.0156776 0.00842215 0.00625209 0.000463222 8.05129e-05 1.38238e-10 -5.6741e-12 5.2113e-11 5e-05 1.46608e-10 
67 1 0.2149 0.0181632 0.00700004 0.00550383 -0.000339879 0.000360171 6.17956e-11 -9.73907e-11 -6.11715e-12 5e-05 1.46608e-10 
69 1 0.215046 0.0176213 0.00706327 0.00562568 -6.18688e-05 0.000759855 1.12228e-10 8.37502e-11 -1.13237e-10 5e-05 1.46608e-10 
70 1 0.21502 0.0182936 0.00703084 0.00597086 -0.000288473 0.00040712 -1.64386e-10 -1.63227e-10 -4.44896e-10 5e-05 1.46608e-10 
72 1 0.214576 0.0164846 0.00805663 0.00569719 3.23832e-06 0.000695684 -1.85587e-10 1.45934e-11 -2.36844e-11 5e-05 1.46608e-10 
73 1 0.214501 0.0165291 0.00800642 0.00569471 -2.82728e-06 0.000698039 -7.06624e-11 -1.08212e-11 -8.99011e-11 5e-05 1.46608e-10 
74 1 0.214922 0.0182595 0.00701775 0.00600783 -0.000257914 0.000400131 2.34802e-11 7.04428e-10 7.0631e-11 5e-05 1.46608e-10 
76 1 0.145405 0.0205718 0.00539992 7.43815e-15 9.116e-15 -2.35014e-13 -6.08365e-23 1.377e-22 3.30872e-24 5e-05 1.46608e-10 
77 1 0.214881 0.018065 0.00699975 0.00552283 -0.000343278 0.000328035 6.83644e-11 -1.76303e-10 4.48951e-10 5e-05 1.46608e-10 
78 1 0.208974 0.0181026 0.00698708 0.00569638 0.00041884 5.16241e-05 3.11396e-11 9.66441e-11 -1.34627e-11 5e-05 1.46608e-10 
80 1 0.214943 0.0183575 0.00703579 0.00592687 -0.000352307 0.000359357 -1.05703e-09 -1.46421e-09 -6.64614e-10 5e-05 1.46608e-10 
81 1 0.208574 0.0166495 0.00760466 0.00564104 0.000151875 -0.000421349 3.62688e-10 -2.04831e-10 1.35386e-10 5e-05 1.46608e-10 
82 1 0.208494 0.0163462 0.00785316 0.00593015 6.98597e-05 -0.000368574 2.50249e-10 -1.79793e-10 8.46751e-11 5e-05 1.46608e-10 
84 1 0.220819 0.0177753 0.00714047 0.00577073 0.00101787 -0.000369606 -1.58128e-10 1.81326e-11 5.39226e-11 5e-05 1.46608e-10 
85 1 0.214197 0.0155073 0.00891384 0.00579182 5.97486e-05 0.0006398 7.19692e-12 -1.46192e-11 -5.82384e-10 5e-05 1.46608e-10 
86 1 0.215148 0.0180004 0.00699133 0.0056084 -0.000359461 0.000357797 2.3615e-11 2.50712e-10 5.38033e-11 5e-05 1.46608e-10 
87 1 0.214673 0.0171184 0.00749456 0.00550869 1.23841e-05 0.000646496 1.36859e-10 7.36664e-11 -2.38913e-10 5e-05 1.46608e-10 
88 1 0.215094 0.0181644 0.00701475 0.00597453 -0.000323015 0.000394572 -2.19918e-10 5.33437e-11 -3.21607e-11 5e-05 1.46608e-10 
90 1 0.2151 0.0178058 0.00699389 0.00541292 -0.00021191 -0.000106452 2.24463e-11 1.85585e-10 -3.4599e-10 5e-05 1.46608e-10 
91 1 0.214632 0.0169667 0.00761777 0.00565529 -9.19485e-06 0.000697888 9.82922e-11 -5.81947e-11 1.11537e-10 5e-05 1.46608e-10 
92 1 0.214921 0.0178097 0.00699854 0.00563112 -0.000368046 -7.63898e-05 1.08423e-10 -4.1351e-10 7.99347e-12 5e-05 1.46608e-10 
93 1 0.220838 0.0178722 0.00712575 0.00575242 0.000986932 -0.000364756 2.32428e-11 4.77565e-12 -1.20129e-11 5e-05 1.46608e-10 
94 1 0.215077 0.0177114 0.00703374 0.00564353 -0.000131752 0.000572351 4.42615e-11 -1.60178e-11 -2.15536e-10 5e-05 1.46608e-10 
95 1 0.214523 0.0166021 0.00794161 0.00569036 4.15052e-06 0.0006952 2.68448e-11 -7.00928e-11 -3.38315e-11 5e-05 1.46608e-10 
96 1 0.214545 0.0166751 0.00787679 0.00568501 7.67394e-06 0.000692243 7.02671e-12 -6.93446e-11 1.33473e-10 5e-05 1.46608e-10 
98 1 0.215171 0.0177378 0.00701237 0.00548502 -0.000159141 -0.000123485 2.07393e-10 -1.84896e-10 2.51743e-10 5e-05 1.46608e-10 
99 1 0.208954 0.0175684 0.00714396 0.00571031 0.000419638 5.04163e-05 6.26785e-11 -2.14404e-11 6.51981e-12 5e-05 1.46608e-10 
101 1 0.208629 0.0168778 0.00741812 0.00559249 0.000132614 -0.000483072 1.3396e-11 4.91206e-11 -7.49331e-11 5e-05 1.46608e-10 
102 1 0.0694385 0.0202053 0.00537268 3.92725e-15 4.51979e-15 -7.68252e-14 -8.59066e-22 -7.34769e-23 -5.8523e-23 5e-05 1.46608e-10 
104 1 0.0249839 0.0195037 0.00542543 -3.58896e-15 -5.78206e-16 5.85127e-14 9.04729e-25 -4.37824e-24 0 5e-05 1.46608e-10 
106 1 0.20288 0.0180427 0.00697388 0.00568503 0.000191384 -0.00040173 -2.2914e-11 -1.45902e-11 -3.38344e-11 5e-05 1.46608e-10 
107 1 0.208474 0.0162705 0.00791523 0.0061037 2.83919e-05 -0.000346726 -3.80273e-11 -4.92096e-11 5.5829e-11 5e-05 1.46608e-10 
108 1 0.214663 0.0167767 0.00779724 0.00570176 2.72487e-05 0.000673067 3.05353e-11 -2.65244e-10 2.69705e-10 5e-05 1.46608e-10 
110 1 0.215243 0.0180277 0.00700306 0.00566598 -0.000573868 0.0003287 1.72877e-10 1.16929e-10 -6.84401e-12 5e-05 1.46608e-10 
111 1 0.208649 0.0169575 0.00736104 0.00553883 0.000228062 -0.000366388 -5.48124e-11 7.79467e-11 -1.39216e-10 5e-05 1.46608e-10 
112 1 0.20841 0.016044 0.0081011 0.00619116 -3.05297e-05 -0.000299952 7.34371e-11 -9.88341e-11 3.2809e-11 5e-05 1.46608e-10 
115 1 0.214588 0.016821 0.00774716 0.00567607 1.56191e-06 0.000693844 5.29485e-11 -2.18418e-10 1.56249e-10 5e-05 1.46608e-10 
116 1 0.215189 0.0181932 0.00702669 0.00596154 -0.000406005 0.000378435 -2.56812e-10 7.4518e-11 -6.06627e-12 5e-05 1.46608e-10 
117 1 0.215124 0.0179018 0.00697303 0.00552783 -0.00034223 0.000362337 1.97374e-10 1.75144e-10 1.39039e-10 5e-05 1.46608e-10 
118 1 0.208554 0.0165736 0.0076668 0.00562495 0.000149134 -0.000415395 2.01385e-10 -1.94116e-10 1.40425e-10 5e-05 1.46608e-10 
119 1 0.214957 0.0184104 0.00711956 0.00502865 -0.000416936 0.000423574 9.55699e-10 6.48439e-10 -5.38101e-10 5e-05 1.46608e-10 
120 1 0.214132 0.0152822 0.00910109 0.00585804 -0.000311828 -7.33874e-05 1.70756e-10 3.21327e-10 -3.39693e-10 5e-05 1.46608e-10 
121 1 0.215196 0.017833 0.00698246 0.00545471 -0.000476079 -3.24303e-05 -1.23541e-10 -4.29009e-11 6.8398e-11 5e-05 1.46608e-10 
122 1 0.215034 0.0178789 0.00701123 0.00549412 -0.000229418 0.000358982 -4.96628e-11 4.78305e-11 -9.75921e-11 5e-05 1.46608e-10 
124 1 0.214846 0.0178753 0.00698809 0.0056274 -0.000354808 0.000172255 2.34083e-10 -5.98846e-11 -4.29408e-11 5e-05 1.46608e-10 
125 1 0.214554 0.0164116 0.00812152 0.00570016 -2.12387e-05 0.000719626 6.26315e-11 7.90145e-11 -1.95058e-10 5e-05 1.46608e-10 
126 1 0.214436 0.0163101 0.00820086 0.00569985 -2.20617e-05 0.000717475 1.59921e-11 1.21294e-10 -1.48219e-10 5e-05 1.46608e-10 
127 1 0.208915 0.01738 0.00719833 0.00567196 0.0003993 5.5099e-05 -2.08649e-11 -9.9723e-11 3.37213e-11 5e-05 1.46608e-10 
128 1 0.214846 0.017602 0.0070907 0.00563144 -0.000208183 0.00016701 -1.84609e-11 2.46186e-10 -3.09384e-10 5e-05 1.46608e-10 
129 1 0.208823 0.0177879 0.00707526 0.00571279 0.000434346 4.4379e-05 -4.19417e-11 -3.43662e-11 1.49744e-11 5e-05 1.46608e-10 
131 1 0.208745 0.0174111 0.00718398 0.00568745 0.000407631 5.31729e-05 1.06347e-10 1.09392e-10 -3.07921e-12 5e-05 1.46608e-10 
132 1 0.214653 0.0170397 0.00755285 0.00558972 2.40528e-06 0.000680627 3.85669e-10 -5.22047e-11 3.97783e-12 5e-05 1.46608e-10 
133 1 0.215117 0.0183591 0.00704907 0.00439559 -0.000202062 0.000295188 -7.47986e-10 1.05072e-09 1.18904e-10 5e-05 1.46608e-10 
134 1 0.214852 0.0176883 0.00704052 0.00564569 -0.000444585 -0.000234559 -1.95838e-10 1.58225e-10 -1.95588e-10 5e-05 1.46608e-10 
135 1 0.21448 0.0164561 0.00807124 0.00570091 -9.89306e-06 0.000710371 -3.70309e-11 1.59672e-10 -3.17403e-11 5e-05 1.46608e-10 
136 1 0.208801 0.0172542 0.00723196 0.00567276 0.00041069 5.28818e-05 2.90172e-11 7.24102e-11 1.72317e-11 5e-05 1.46608e-10 
137 1 0.214826 0.01778 0.0070107 0.00562749 -0.000410893 -5.83311e-05 -5.61119e-11 1.66729e-11 -5.36434e-11 5e-05 1.46608e-10 
138 1 0.214567 0.016748 0.00781204 0.00567724 5.77247e-06 0.000688044 -4.56841e-11 -1.53427e-10 1.55788e-10 5e-05 1.46608e-10 
140 1 0.214888 0.0178613 0.00707771 0.00584561 -0.000403524 6.92373e-05 2.6095e-10 -4.96455e-10 -9.3866e-11 5e-05 1.46608e-10 
141 1 0.208453 0.016195 0.00797722 0.0061895 -7.6967e-07 -0.000324477 2.48507e-11 -2.17363e-11 8.65446e-11 5e-05 1.46608e-10 
143 1 0.393994 0.0150325 6.48596e-05 -2.1271e-21 1.6267e-21 -1.45327e-21 0 0 0 5e-05 1.46608e-10 
146 1 0.208974 0.0176627 0.00711677 0.00571122 0.00041585 5.16497e-05 -8.29053e-11 1.02814e-10 -3.31319e-11 5e-05 1.46608e-10 
147 1 0.208804 0.0176937 0.00710244 0.0057098 0.000425128 4.88808e-05 -1.65609e-11 -2.0182e-11 5.92443e-12 5e-05 1.46608e-10 
148 1 0.00854244 0.017279 0.00803158 -3.48023e-10 -0.0214426 0.0109358 -6.46705e-19 9.89358e-12 1.9448e-11 5e-05 1.46608e-10 
149 1 0.214804 0.0172905 0.00733958 0.00548037 5.57084e-05 0.000623047 1.24136e-10 7.89926e-11 -8.19153e-11 5e-05 1.46608e-10 
150 1 0.20828 0.0156164 0.00849822 0.00624626 0.000460083 7.80498e-05 1.17256e-11 7.16261e-11 -1.81668e-10 5e-05 1.46608e-10 
151 1 0.208937 0.0179139 0.00704158 0.00570181 0.000427976 4.86593e-05 -1.5706e-11 5.15864e-11 2.28013e-12 5e-05 1.46608e-10 
154 1 0.20882 0.0173484 0.00720476 0.00567536 0.00040537 5.36154e-05 4.34779e-12 5.95927e-14 1.30392e-11 5e-05 1.46608e-10 
155 1 0.202959 0.0184205 0.00688836 0.00633569 0.000291134 0.000262672 9.79715e-12 -1.12508e-11 1.1869e-11 5e-05 1.46608e-10 
157 1 0.208686 0.0171287 0.00726546 0.00568943 0.000428167 4.93303e-05 3.04752e-12 9.635e-11 -3.62585e-11 5e-05 1.46608e-10 
165 1 0.208955 0.0180083 0.0070143 0.00569902 0.00042472 5.17229e-05 4.76685e-11 8.46376e-11 2.34169e-11 5e-05 1.46608e-10 
166 1 0.214489 0.0161926 0.00831596 0.00569928 -2.72805e-05 0.000724021 -6.19178e-11 1.20879e-10 -1.20455e-10 5e-05 1.46608e-10 
168 1 0.287199 0.0177007 0.00784168 -1.80667e-10 -0.0226035 0.00835791 -1.81702e-18 7.58294e-12 2.04887e-11 5e-05 1.46608e-10 
171 1 0.214415 0.0162372 0.00826568 0.0057037 -2.14324e-05 0.000720507 2.761e-11 1.06006e-10 -1.09076e-10 5e-05 1.46608e-10 
172 1 0.20884 0.0174426 0.00717757 0.00567893 0.00040631 5.31738e-05 -6.12244e-11 -2.86081e-11 1.31081e-12 5e-05 1.46608e-10 
176 1 0.208366 0.0158931 0.00822498 0.00621291 -3.97279e-05 -0.000305104 -2.7364e-10 -2.14375e-10 1.21224e-10 5e-05 1.46608e-10 
177 1 0.208431 0.0161195 0.00803916 0.0061883 -1.6148e-05 -0.000310289 -1.87511e-10 -4.69128e-11 6.1125e-12 5e-05 1.46608e-10 
179 1 0.202858 0.0179563 0.0070191 0.00569055 0.000175269 -0.000436508 -7.12129e-11 -1.23715e-12 9.35208e-12 5e-05 1.46608e-10 
181 1 0.208345 0.0158176 0.00828692 0.00620988 -5.77934e-05 -0.000330583 -2.93938e-10 5.56569e-10 1.0576e-09 5e-05 1.46608e-10 
182 1 0.214641 0.0167036 0.00786221 0.00568848 2.52171e-05 0.000674448 1.79056e-11 -1.41236e-10 1.17686e-10 5e-05 1.46608e-10 
184 1 0.214801 0.0176856 0.00712656 0.00553949 -0.000322389 -0.000320477 -2.03029e-10 -5.30542e-11 -2.0321e-10 5e-05 1.46608e-10 
187 1 0.214821 0.0173639 0.00727371 0.00550696 5.85588e-05 0.000622146 -5.83612e-11 1.55964e-10 -1.28259e-10 5e-05 1.46608e-10 
188 1 0.215053 0.0179719 0.00697944 0.00558115 -0.000229205 0.000380195 8.68848e-11 1.54419e-10 2.85493e-11 5e-05 1.46608e-10 
189 1 0.214944 0.0175537 0.00714019 0.0054949 3.14575e-05 0.000558426 -2.46961e-10 -5.22021e-10 -1.52451e-10 5e-05 1.46608e-10 
191 1 0.214694 0.0171918 0.00743001 0.00548732 2.8728e-05 0.000629145 2.27966e-10 2.07147e-10 -2.62817e-10 5e-05 1.46608e-10 
192 1 0.20572 0.0175431 0.00708081 0.0055005 -0.00118825 0.000339989 9.84576e-14 -2.06802e-14 7.76882e-15 5e-05 1.46608e-10 
193 1 0.217701 0.0174546 0.00710915 0.00554973 -0.000884227 0.000334194 3.19345e-13 -5.55667e-14 2.40595e-14 5e-05 1.46608e-10 
197 1 0.208258 0.0155552 0.00857429 0.00622122 0.00045674 8.37392e-05 4.92445e-11 1.83913e-10 -1.90415e-10 5e-05 1.46608e-10 
198 1 0.208879 0.0176311 0.0071232 0.00570741 0.000414786 5.12988e-05 -2.18217e-11 -4.91628e-11 1.7315e-11 5e-05 1.46608e-10 
200 1 0.208924 0.0182648 0.00694752 0.00581353 0.000152455 -0.000785335 -1.40805e-11 1.81597e-11 1.70141e-11 5e-05 1.46608e-10 
201 1 0.208843 0.0178848 0.00705993 0.00569459 0.000433026 5.22211e-06 -5.51393e-11 -6.90498e-11 -6.45514e-11 5e-05 1.46608e-10 
203 1 0.214707 0.0172588 0.0073569 0.00546674 6.36804e-05 0.000624827 4.89991e-10 1.93539e-10 -2.98079e-10 5e-05 1.46608e-10 
204 1 0.202839 0.0178712 0.00706805 0.00566581 0.00017678 -0.000437826 -1.07961e-10 2.0414e-11 5.44571e-12 5e-05 1.46608e-10 
206 1 0.2029 0.0181327 0.0069348 0.00522808 0.00035732 -0.000234408 -8.71353e-11 -1.61978e-11 -6.40283e-11 5e-05 1.46608e-10 
207 1 0.060646 0.0186723 0.00546139 1.16148e-15 5.18615e-15 3.71388e-14 -7.30245e-25 -8.27181e-25 2.06795e-25 5e-05 1.46608e-10 
208 1 0.208784 0.0175995 0.00712962 0.00570404 0.00041354 5.19457e-05 -7.34033e-12 2.11129e-12 6.68166e-12 5e-05 1.46608e-10 
209 1 0.202666 0.0171058 0.00750855 0.00544872 0.000216831 -0.000446574 4.42541e-11 2.96249e-11 -1.47723e-11 5e-05 1.46608e-10 
210 1 0.214947 0.0177174 0.00702685 0.00563275 -0.000350949 3.70193e-06 -2.68397e-11 -3.61102e-10 3.02969e-10 5e-05 1.46608e-10 
211 1 0.208903 0.0181714 0.0069766 0.00568681 0.000363984 -0.000206082 -5.21198e-12 3.68516e-11 4.31971e-12 5e-05 1.46608e-10 
212 1 0.208592 0.0167256 0.00754237 0.00564657 0.000156165 -0.000422424 -2.17448e-11 -1.30325e-10 3.63943e-11 5e-05 1.46608e-10 
213 1 0.214836 0.0175139 0.00713688 0.00554244 4.61439e-05 0.000625664 -5.18848e-11 2.98497e-10 -2.3674e-10 5e-05 1.46608e-10 
214 1 0.214973 0.0184892 0.00706004 0.00588244 -0.000661711 0.000320133 -4.64805e-10 -3.68413e-10 -1.73085e-10 5e-05 1.46608e-10 
217 1 0.214597 0.0165576 0.00799183 0.00569596 8.98841e-06 0.000689682 -1.09511e-10 1.48585e-11 1.93127e-11 5e-05 1.46608e-10 
218 1 0.215029 0.0184073 0.00705056 0.00452843 -0.000876785 0.000230408 -9.65452e-10 -1.20048e-10 2.09075e-10 5e-05 1.46608e-10 
221 1 0.202607 0.0168509 0.00765532 0.00584867 0.000134203 -0.000423766 2.28562e-10 -9.58697e-11 3.36518e-11 5e-05 1.46608e-10 
222 1 0.214284 0.0157993 0.0086546 0.0057869 5.52317e-06 0.000704639 5.47689e-10 -2.15206e-11 1.13329e-10 5e-05 1.46608e-10 
223 1 0.223733 0.017599 0.00705339 0.00596194 0.000973998 -0.000370436 3.26196e-13 4.48916e-14 -6.92495e-15 5e-05 1.46608e-10 
225 1 0.214836 0.0174374 0.00720762 0.00555568 7.00151e-05 0.000620188 -1.77718e-10 1.35168e-11 1.24068e-11 5e-05 1.46608e-10 
226 1 0.208706 0.0172231 0.00723854 0.0056774 0.000419548 5.32106e-05 5.48531e-13 1.56317e-10 1.03267e-10 5e-05 1.46608e-10 
228 1 0.0507861 0.0189683 0.00558458 -5.36005e-15 -1.91065e-14 -2.87013e-13 2.23003e-22 -5.65197e-23 1.24077e-24 5e-05 1.46608e-10 
231 1 0.197479 0.018695 0.00523156 -1.08013e-15 -2.6984e-14 1.45243e-13 2.38205e-22 -1.34417e-24 1.65436e-24 5e-05 1.46608e-10 
232 1 0.189081 0.0184947 0.00541361 -2.15613e-15 1.31322e-15 5.80688e-14 8.79526e-24 -5.31593e-23 1.86116e-24 5e-05 1.46608e-10 
234 1 0.215015 0.017788 0.00704782 0.00543399 -0.000247041 0.000291798 7.74138e-11 -1.4797e-10 -8.0912e-11 5e-05 1.46608e-10 
235 1 0.194679 0.0184196 0.00544868 1.51189e-14 9.62645e-14 2.34553e-13 -1.69268e-21 3.01507e-22 -1.67504e-23 5e-05 1.46608e-10 
238 1 0.202685 0.0171908 0.00745961 0.00545082 0.000219688 -0.000448229 -4.11524e-10 1.13957e-10 -3.69301e-11 5e-05 1.46608e-10 
239 1 0.202502 0.0164274 0.00789957 0.00605473 0.000107482 -0.00042125 1.41504e-12 1.14451e-11 -6.39289e-12 5e-05 1.46608e-10 
240 1 0.202586 0.0167662 0.00770417 0.00591378 0.00012086 -0.000420081 1.06934e-10 -8.93442e-12 -1.68096e-11 5e-05 1.46608e-10 
241 1 0.202523 0.0165121 0.00785072 0.0060194 0.000112221 -0.000421787 -7.3821e-12 -2.78168e-11 1.57595e-11 5e-05 1.46608e-10 
242 1 0.202981 0.018518 0.00688474 0.00633229 0.000275574 -0.000138794 3.07509e-11 -1.51784e-11 -1.13738e-11 5e-05 1.46608e-10 
243 1 0.202481 0.0163427 0.00794842 0.00608897 0.000100724 -0.00041948 1.02877e-11 4.3976e-11 -2.5376e-11 5e-05 1.46608e-10 
244 1 0.202544 0.0165968 0.00780187 0.00598541 0.000114862 -0.00042139 -7.04849e-12 -4.96341e-11 2.85971e-11 5e-05 1.46608e-10 
245 1 0.202705 0.0172759 0.00741066 0.00549441 0.000212496 -0.000446768 -1.93955e-10 2.85924e-11 -1.04619e-11 5e-05 1.46608e-10 
246 1 0.202627 0.0169357 0.00760643 0.00574084 0.000155416 -0.0004294 1.5595e-11 -7.08767e-11 3.99264e-11 5e-05 1.46608e-10 
248 1 0.208323 0.0157424 0.00834907 0.00624666 -0.000178735 -0.000487017 -1.32345e-10 -1.15932e-11 2.61269e-10 5e-05 1.46608e-10 
249 1 0.202743 0.0174459 0.00731279 0.00553353 0.000195699 -0.00043986 -3.19421e-11 1.66193e-10 -8.32925e-11 5e-05 1.46608e-10 
251 1 0.214728 0.0169962 0.00760236 0.00566254 8.14473e-05 0.000618385 3.77012e-10 -1.8921e-10 1.68599e-10 5e-05 1.46608e-10 
252 1 0.202724 0.0173609 0.00736171 0.00552207 0.000203464 -0.000443467 6.2239e-11 9.18743e-11 -5.13961e-11 5e-05 1.46608e-10 
254 1 0.230591 0.0169819 0.00819697 7.5909e-06 -0.0164882 0.0104322 1.80308e-13 1.08093e-10 -4.90744e-11 5e-05 1.46608e-10 
255 1 0.208669 0.0170405 0.00730921 0.00572465 0.000370531 -6.08106e-05 3.18584e-11 3.39744e-11 -1.83973e-10 5e-05 1.46608e-10 
256 1 0.230879 0.0171228 0.00811193 7.70408e-06 -0.0169443 0.00953398 1.81479e-13 1.08082e-10 -4.92196e-11 5e-05 1.46608e-10 
257 1 0.208859 0.0175369 0.00715038 0.00569111 0.000409385 5.28623e-05 -8.53527e-11 -4.86757e-11 1.70702e-11 5e-05 1.46608e-10 
258 1 0.208993 0.0177569 0.00708958 0.00569686 0.000419789 5.01431e-05 -1.50088e-10 1.35721e-10 -4.6897e-11 5e-05 1.46608e-10 
259 1 0.202762 0.017531 0.00726382 0.00556839 0.000187493 -0.000436947 -2.23386e-11 1.48711e-10 -7.32397e-11 5e-05 1.46608e-10 
260 1 0.208899 0.0177253 0.00709602 0.005708 0.000422236 4.96858e-05 -1.0379e-10 -2.00134e-12 -7.49158e-12 5e-05 1.46608e-10 
261 1 0.209012 0.0178518 0.00706217 0.00570874 0.00043307 4.66494e-05 -8.02008e-11 -1.84539e-11 4.22924e-12 5e-05 1.46608e-10 
262 1 0.208918 0.0178195 0.00706883 0.0056993 0.000430246 4.80493e-05 -1.16989e-10 2.90274e-11 -2.73792e-11 5e-05 1.46608e-10 
263 1 0.202917 0.0182254 0.0069016 0.00573163 0.000424589 0.000224544 -2.2819e-12 -1.94118e-11 -8.93734e-12 5e-05 1.46608e-10 
265 1 0.208862 0.0179807 0.00703953 0.00568173 0.000405396 -1.74217e-05 4.65514e-11 2.14706e-10 3.33295e-10 5e-05 1.46608e-10 
270 1 0.21494 0.0179046 0.00696887 0.00560637 -0.000376034 -7.21388e-05 2.13606e-10 -1.77145e-10 -4.81828e-11 5e-05 1.46608e-10 
271 1 0.295081 0.018534 0.00763551 0.043166 0.0236855 -0.00466705 -5.20186e-10 -2.06877e-10 -3.14569e-11 5e-05 1.46608e-10 
272 1 0.202801 0.017701 0.00716597 0.00562084 0.000177402 -0.000434821 -8.63907e-12 1.04145e-11 -2.49903e-12 5e-05 1.46608e-10 
273 1 0.0159587 0.0178354 0.00779467 5.15572e-11 -0.0228944 0.00752505 -1.84711e-18 6.82712e-12 2.07529e-11 5e-05 1.46608e-10 
274 1 0.202782 0.0176161 0.00721488 0.0055924 0.000180992 -0.000434901 -9.85355e-12 7.28635e-11 -3.59188e-11 5e-05 1.46608e-10 
275 1 0.208882 0.0180766 0.00701579 0.00567373 0.000400129 -1.65764e-05 4.55513e-11 1.51797e-10 1.4334e-10 5e-05 1.46608e-10 
276 1 0.208611 0.0168016 0.00748017 0.00561593 0.000164375 -0.000433552 -1.1933e-10 -3.34246e-11 -5.15875e-11 5e-05 1.46608e-10 
277 1 0.208513 0.0164222 0.00779095 0.00573748 0.000103475 -0.000386399 2.654e-10 -1.92532e-10 1.67238e-10 5e-05 1.46608e-10 
279 1 0.203002 0.0186156 0.00688876 0.00633009 0.00027505 -0.000139413 4.75877e-13 -1.05562e-11 8.19248e-12 5e-05 1.46608e-10 
282 1 0.202647 0.0170207 0.0075575 0.00552792 0.000198382 -0.000440971 2.06692e-10 -7.20937e-11 2.83965e-11 5e-05 1.46608e-10 
283 1 0.202565 0.0166815 0.00775302 0.00595118 0.000116789 -0.000420383 -6.96419e-11 -2.63344e-11 1.99516e-11 5e-05 1.46608e-10 
284 1 0.208533 0.016498 0.00772885 0.00561222 0.000140778 -0.000409082 -9.18817e-11 -1.77255e-10 1.17237e-10 5e-05 1.46608e-10 
288 1 0.208934 0.0174742 0.00717114 0.0056784 0.00039683 5.61948e-05 -1.19681e-10 -9.50485e-11 2.19255e-11 5e-05 1.46608e-10 
293 1 0.20282 0.0177862 0.00711699 0.00564118 0.000178147 -0.00043659 2.32201e-11 -6.03408e-12 3.90008e-12 5e-05 1.46608e-10 
294 1 0.152576 0.0182562 0.00546336 5.21884e-16 -1.42396e-15 1.14574e-14 -4.92689e-23 -2.32903e-23 1.44757e-24 5e-05 1.46608e-10 
295 1 0.281017 0.0170299 0.00816181 -2.05552e-05 -0.00920242 0.00484514 -2.73765e-13 1.69641e-10 -1.1727e-10 5e-05 1.46608e-10 
297 1 0.214865 0.0179708 0.00696521 0.00561545 -0.000320685 0.000369586 1.85814e-10 1.43136e-10 -5.36353e-11 5e-05 1.46608e-10 
300 1 0.214619 0.0166306 0.00792696 0.00570343 2.44825e-05 0.000676739 1.08764e-11 -1.14472e-10 1.1113e-10 5e-05 1.46608e-10 
