ITEM: TIMESTEP
16600000
ITEM: NUMBER OF ATOMS
284
ITEM: BOX BOUNDS ff ff ff
-0.02 0.43
-0.02 0.06
-0.02 0.07
ITEM: ATOMS id type x y z vx vy vz fx fy fz radius mass 
1 1 0.10963 0.016433 0.00783032 0.00572406 0.000692898 -1.48723e-05 6.68398e-12 3.92709e-11 -2.83379e-11 5e-05 1.46608e-10 
2 1 0.110056 0.0174387 0.007307 0.00615333 0.000265435 -0.000548106 4.26308e-11 -5.05866e-11 1.58035e-11 5e-05 1.46608e-10 
3 1 0.103633 0.0164586 0.00784444 0.00577084 -3.94841e-05 0.000302103 3.10512e-10 -3.03518e-10 2.05316e-10 5e-05 1.46608e-10 
4 1 0.110048 0.017778 0.0071866 0.00618445 0.000283735 -0.000556401 -1.95892e-11 7.23202e-11 -1.21547e-11 5e-05 1.46608e-10 
5 1 0.109536 0.0164035 0.00784231 0.00568069 0.000868439 -0.000132554 2.34686e-11 1.24126e-10 -8.07489e-11 5e-05 1.46608e-10 
6 1 0.1156 0.0166919 0.00775486 0.00563643 -0.00043779 0.00087114 2.53854e-11 1.22345e-10 -1.65604e-10 5e-05 1.46608e-10 
7 1 0.109639 0.0168178 0.00758016 0.00612111 0.000628795 5.83056e-05 -3.51653e-11 -1.17462e-10 7.18076e-11 5e-05 1.46608e-10 
8 1 0.109551 0.0161018 0.00804021 0.00563564 0.000706953 -3.07828e-05 4.28978e-11 -5.31841e-12 8.03891e-12 5e-05 1.46608e-10 
9 1 0.115843 0.0176326 0.0071022 0.00606875 -0.0010219 0.000310134 3.86196e-10 -6.7633e-11 4.7821e-11 5e-05 1.46608e-10 
10 1 0.10966 0.0169067 0.00753978 0.00612574 0.000545518 -0.000104526 -3.96487e-12 1.24128e-10 4.6414e-10 5e-05 1.46608e-10 
11 1 0.109778 0.0170201 0.00747729 0.00616578 0.000352613 -0.000436989 6.91088e-11 -3.10654e-11 -6.00459e-11 5e-05 1.46608e-10 
12 1 0.109865 0.0173856 0.00734002 0.00616059 0.00028434 -0.000555425 5.45541e-11 7.92675e-13 -2.23902e-12 5e-05 1.46608e-10 
13 1 0.109936 0.0178455 0.00726124 0.00618599 0.000299036 -0.000559838 -5.2808e-11 -4.93746e-12 -9.1347e-12 5e-05 1.46608e-10 
14 1 0.103342 0.0156422 0.0084297 0.00560515 -0.000212141 -0.000134848 2.44764e-11 2.6379e-10 2.11623e-10 5e-05 1.46608e-10 
15 1 0.109769 0.0173587 0.00735673 0.00616553 0.000299042 -0.000561889 1.27692e-11 1.43069e-10 -5.30075e-11 5e-05 1.46608e-10 
16 1 0.103322 0.0155606 0.00848391 0.00562912 -0.000156648 -0.000183418 -1.25389e-10 -6.82788e-10 4.40547e-10 5e-05 1.46608e-10 
17 1 0.11001 0.0177809 0.00727916 0.00618558 0.000281021 -0.000554762 -6.05032e-11 6.75677e-11 -1.37973e-11 5e-05 1.46608e-10 
18 1 0.115739 0.0172038 0.00729814 0.00592083 -0.000974443 0.000247007 -2.26137e-10 -1.75435e-10 -1.23285e-10 5e-05 1.46608e-10 
19 1 0.109496 0.0162373 0.00794764 0.0056513 0.000700287 -2.52536e-05 -8.27871e-12 -3.27177e-11 1.9412e-11 5e-05 1.46608e-10 
20 1 0.109988 0.0176895 0.00731333 0.00618271 0.000280609 -0.000556618 -2.9269e-12 3.6136e-11 -3.10754e-11 5e-05 1.46608e-10 
21 1 0.109516 0.0163201 0.00789515 0.00564078 0.000694073 -2.19449e-05 -2.22566e-11 -1.42481e-11 8.0468e-12 5e-05 1.46608e-10 
22 1 0.109821 0.0172028 0.00740845 0.00615757 0.000287507 -0.00055671 4.01205e-11 1.63682e-10 -5.42452e-11 5e-05 1.46608e-10 
23 1 0.103683 0.0169834 0.00745519 0.0060664 -0.000129805 0.000389298 1.28207e-10 2.42567e-10 -1.27678e-10 5e-05 1.46608e-10 
24 1 0.115823 0.0175353 0.00709151 0.00609478 -0.00101935 0.000308816 1.04796e-10 1.89838e-11 -2.93155e-11 5e-05 1.46608e-10 
25 1 0.109735 0.0168462 0.00756892 0.00611205 0.000619579 5.67218e-05 -3.41874e-11 -1.21426e-10 9.23472e-11 5e-05 1.46608e-10 
26 1 0.115679 0.0169827 0.00749184 0.00583976 -0.000444178 0.000895045 -1.73263e-10 -2.72614e-11 3.15817e-11 5e-05 1.46608e-10 
27 1 0.1036 0.0166679 0.00768667 0.00590457 -8.06138e-05 0.000340434 -1.39791e-10 -4.08622e-10 3.64308e-10 5e-05 1.46608e-10 
28 1 0.10986 0.0176161 0.00734909 0.00617506 0.000288886 -0.000562222 -8.05285e-12 3.41115e-11 -2.93522e-11 5e-05 1.46608e-10 
29 1 0.109651 0.0165157 0.00777797 0.00592409 0.000662791 1.98443e-05 -1.71429e-10 8.13508e-11 -6.11946e-11 5e-05 1.46608e-10 
30 1 0.110026 0.0176866 0.00722082 0.00618463 0.000282058 -0.000556461 1.28568e-11 6.04621e-11 -2.31202e-11 5e-05 1.46608e-10 
31 1 0.109747 0.0172672 0.00739094 0.00615862 0.000305262 -0.000563521 4.27862e-11 1.6222e-10 -3.89736e-11 5e-05 1.46608e-10 
32 1 0.1098 0.0171114 0.00744266 0.00614615 0.00029885 -0.000559607 -5.187e-11 8.14836e-11 -1.62413e-12 5e-05 1.46608e-10 
33 1 0.11562 0.0167646 0.0076891 0.00569454 -0.000442652 0.000877805 9.60183e-11 1.17285e-10 -8.57933e-11 5e-05 1.46608e-10 
34 1 0.109663 0.0169404 0.00763388 0.00634403 0.00147946 -0.000445151 -1.35658e-10 -1.25024e-10 5.13519e-10 5e-05 1.46608e-10 
36 1 0.115863 0.0177301 0.00711286 0.00599188 -0.00101354 0.00031391 1.73104e-10 5.73127e-11 4.0181e-11 5e-05 1.46608e-10 
37 1 0.109682 0.0169936 0.00749525 0.00613761 0.000364245 -0.000458706 -3.46822e-13 2.82838e-10 6.26061e-10 5e-05 1.46608e-10 
38 1 0.109843 0.0172942 0.00737424 0.00615742 0.000279863 -0.000553652 -2.70575e-11 6.93012e-11 -2.99961e-11 5e-05 1.46608e-10 
39 1 0.115808 0.017449 0.00713971 0.00609156 -0.00102018 0.000288028 -6.27337e-11 -8.8619e-11 4.53046e-11 5e-05 1.46608e-10 
41 1 0.109555 0.0164865 0.00778969 0.00564955 0.000754387 -6.06137e-05 7.6587e-11 1.0126e-11 -5.39473e-13 5e-05 1.46608e-10 
42 1 0.109725 0.0171758 0.00742515 0.00615524 0.000314203 -0.000566134 7.95371e-11 1.40768e-10 -5.04759e-11 5e-05 1.46608e-10 
44 1 0.109961 0.0174123 0.00732345 0.00615518 0.000277838 -0.000552466 4.66064e-11 -7.23482e-11 2.55722e-11 5e-05 1.46608e-10 
45 1 0.11566 0.01691 0.00755758 0.00580437 -0.000447398 0.000894552 1.48445e-11 -2.2461e-12 3.69266e-11 5e-05 1.46608e-10 
46 1 0.115719 0.0171281 0.0073603 0.0059828 -0.000446917 0.000913472 -5.84323e-11 -9.44587e-11 8.25111e-11 5e-05 1.46608e-10 
47 1 0.109597 0.0166519 0.00768507 0.00606574 0.000669721 2.6434e-05 -1.80548e-11 7.9906e-11 -5.25165e-11 5e-05 1.46608e-10 
48 1 0.109939 0.0173209 0.00735767 0.00615268 0.000276748 -0.00055204 7.78286e-11 -9.57613e-11 2.38856e-11 5e-05 1.46608e-10 
49 1 0.115699 0.0170554 0.00742608 0.0059411 -0.000447899 0.000908759 -1.8133e-10 -6.38279e-11 4.26423e-11 5e-05 1.46608e-10 
50 1 0.109908 0.0175685 0.00727159 0.0061747 0.000288739 -0.000558091 3.88282e-12 -2.70496e-11 2.4686e-12 5e-05 1.46608e-10 
51 1 0.110004 0.0175951 0.00725503 0.00617059 0.000276924 -0.000553593 1.5468e-12 -5.04286e-11 1.84302e-11 5e-05 1.46608e-10 
52 1 0.109969 0.0181764 0.00714852 0.00574921 0.000397682 -0.000565169 2.75722e-11 5.97789e-11 3.3134e-11 5e-05 1.46608e-10 
53 1 0.11576 0.0172852 0.0072439 0.00600819 -0.000980812 0.000273224 -9.53962e-11 -1.67188e-10 -2.23909e-11 5e-05 1.46608e-10 
54 1 0.10961 0.0163502 0.00788274 0.00562751 0.000708933 -3.26311e-05 1.77581e-12 2.60741e-11 -1.59534e-11 5e-05 1.46608e-10 
55 1 0.103382 0.0158048 0.00832039 0.00543669 3.71661e-05 0.000232602 1.44423e-10 -8.17996e-11 1.36699e-11 5e-05 1.46608e-10 
56 1 0.109704 0.0170844 0.00745936 0.00615856 0.000326289 -0.000553857 6.54673e-11 1.43103e-10 9.9194e-12 5e-05 1.46608e-10 
57 1 0.11564 0.0168373 0.00762334 0.00575056 -0.000441329 0.00088469 1.29587e-10 -1.58392e-11 -5.29007e-11 5e-05 1.46608e-10 
59 1 0.109874 0.0170466 0.00746032 0.0061413 0.000285765 -0.000555212 -1.11072e-10 7.03178e-11 -1.9818e-11 5e-05 1.46608e-10 
60 1 0.109896 0.017138 0.0074261 0.00615433 0.000269946 -0.000549841 -6.94515e-11 8.68992e-11 -2.79675e-11 5e-05 1.46608e-10 
61 1 0.109576 0.0165693 0.00773732 0.00603172 0.000672696 2.31778e-05 -1.3693e-10 1.30664e-10 -1.1368e-10 5e-05 1.46608e-10 
62 1 0.110165 0.0181356 0.00713684 0.00569013 0.000419043 -0.000557049 7.85732e-11 4.13152e-11 -1.1281e-11 5e-05 1.46608e-10 
63 1 0.109917 0.0172294 0.00739188 0.00616284 0.00028123 -0.000554429 5.01347e-11 5.59058e-11 -2.16949e-11 5e-05 1.46608e-10 
64 1 0.115784 0.0173661 0.00719013 0.00608133 -0.00100509 0.000284959 -1.59935e-10 -8.78532e-11 1.04222e-10 5e-05 1.46608e-10 
65 1 0.103642 0.0168257 0.00757093 0.00596728 -0.000118174 0.000370602 -3.13998e-10 -2.65405e-10 1.33655e-10 5e-05 1.46608e-10 
66 1 0.103908 0.0176638 0.00714204 0.00551813 -0.000371034 -3.39414e-05 2.73931e-10 -1.43903e-10 2.11886e-11 5e-05 1.46608e-10 
67 1 0.1101 0.0176215 0.00723858 0.00618985 0.000285619 -0.000557844 -2.56796e-11 4.65994e-11 -1.76558e-11 5e-05 1.46608e-10 
68 1 0.109887 0.0174771 0.00730581 0.00616653 0.000286992 -0.000556796 4.10867e-11 -1.35281e-11 -2.71511e-12 5e-05 1.46608e-10 
69 1 0.109757 0.0169315 0.00751884 0.00615217 0.000353042 -0.000504569 -7.20987e-11 1.49195e-10 1.81462e-10 5e-05 1.46608e-10 
70 1 0.109886 0.0177071 0.00731364 0.00618634 0.000291946 -0.000559909 -5.85846e-11 1.91615e-11 -2.80355e-11 5e-05 1.46608e-10 
71 1 0.103362 0.0157245 0.00837651 0.00559619 -0.000220824 -8.95417e-05 -4.04848e-11 1.19285e-10 2.06965e-10 5e-05 1.46608e-10 
72 1 0.11009 0.0179689 0.00713829 0.00625965 0.000241301 -0.000753269 -1.02105e-10 -8.68516e-11 -1.14469e-10 5e-05 1.46608e-10 
73 1 0.110031 0.0178795 0.0072429 0.00619231 0.000279289 -0.000555383 -8.95551e-11 -3.59179e-11 2.23122e-13 5e-05 1.46608e-10 
74 1 0.110074 0.0182332 0.00702228 0.00569969 0.00040738 -0.000565937 -3.15912e-11 2.18687e-11 -1.08298e-11 5e-05 1.46608e-10 
76 1 0.104237 0.0186076 0.00694109 0.00555532 -0.000321644 0.000516239 -1.68786e-10 2.42433e-10 -1.59417e-11 5e-05 1.46608e-10 
77 1 0.110002 0.0183656 0.00698037 0.00582523 0.000386304 -0.000564379 -7.95667e-12 -1.24929e-11 -7.88794e-13 5e-05 1.46608e-10 
78 1 0.10346 0.016121 0.00808818 0.0054703 7.35805e-05 0.000205561 -1.76603e-11 -2.26382e-12 1.4811e-10 5e-05 1.46608e-10 
79 1 0.103704 0.0170623 0.00739732 0.00611665 -0.000157875 0.000412615 -5.83481e-11 1.30895e-10 -1.36712e-10 5e-05 1.46608e-10 
80 1 0.109956 0.0179424 0.007226 0.00619953 0.000289482 -0.000561086 -1.04916e-10 -9.66624e-11 3.78153e-11 5e-05 1.46608e-10 
81 1 0.103621 0.0167468 0.0076288 0.00594131 -0.000100806 0.000357004 5.76792e-11 -3.97319e-10 2.98128e-10 5e-05 1.46608e-10 
82 1 0.103662 0.0169045 0.00751306 0.00601349 -0.000122986 0.000378518 -1.00493e-10 1.55213e-10 -5.08869e-11 5e-05 1.46608e-10 
83 1 0.103559 0.0165102 0.00780242 0.00580757 -4.11719e-05 0.000304997 -2.04948e-10 -6.12905e-10 3.33185e-10 5e-05 1.46608e-10 
84 1 0.115883 0.0178274 0.00712414 0.0059092 -0.00103659 0.000580019 -4.10514e-12 1.47864e-10 6.00364e-11 5e-05 1.46608e-10 
85 1 0.109457 0.0160716 0.00805266 0.00562901 0.000714401 -3.60228e-05 -1.11586e-11 2.44691e-11 -1.66731e-11 5e-05 1.46608e-10 
86 1 0.109952 0.0177515 0.00720309 0.00618753 0.000286206 -0.000557807 -5.16411e-12 3.69716e-11 -1.63164e-11 5e-05 1.46608e-10 
87 1 0.110035 0.0173473 0.00734121 0.00614793 0.000271571 -0.000549878 8.20717e-11 -5.93727e-11 1.46374e-11 5e-05 1.46608e-10 
88 1 0.110191 0.0183679 0.0069656 0.00583465 0.000367932 -0.000562182 1.01971e-10 -2.34037e-10 9.00511e-11 5e-05 1.46608e-10 
89 1 0.109995 0.0179345 0.00713461 0.00620269 0.000285135 -0.000558082 -2.78682e-11 -1.53326e-11 7.33165e-12 5e-05 1.46608e-10 
90 1 0.110181 0.0179875 0.00710202 0.00617291 0.000723764 -0.000713252 -7.33212e-11 -6.74917e-12 2.22384e-11 5e-05 1.46608e-10 
91 1 0.109812 0.0175415 0.0072883 0.00617376 0.000293208 -0.000559568 6.23746e-11 9.49184e-11 -3.96316e-11 5e-05 1.46608e-10 
92 1 0.110271 0.0183098 0.00698043 0.00583409 0.000373942 -0.000563293 2.61392e-10 -4.56869e-11 -5.10805e-12 5e-05 1.46608e-10 
93 1 0.109964 0.0181816 0.00704882 0.00572444 0.000401504 -0.000563912 -4.82681e-12 -1.07654e-12 8.71308e-12 5e-05 1.46608e-10 
94 1 0.109974 0.0178431 0.00716882 0.00619072 0.000288383 -0.000557747 -9.67851e-12 1.95027e-11 -4.97753e-12 5e-05 1.46608e-10 
95 1 0.109877 0.0178158 0.00718567 0.00619459 0.000293971 -0.000561632 -3.09402e-11 1.03522e-11 -1.1923e-11 5e-05 1.46608e-10 
96 1 0.109921 0.0179986 0.00711725 0.00620631 0.000288854 -0.000559132 -2.47287e-12 -6.24172e-11 7.2332e-12 5e-05 1.46608e-10 
97 1 0.10382 0.0171687 0.00732341 0.00619209 -0.000200075 0.000442171 1.93617e-10 1.19958e-10 -7.70461e-11 5e-05 1.46608e-10 
98 1 0.110117 0.0184331 0.00694777 0.00584006 0.000365755 -0.000560127 7.98555e-11 -2.27452e-10 7.87142e-11 5e-05 1.46608e-10 
99 1 0.103725 0.0171411 0.00733945 0.0061384 -0.00017605 0.000428504 -6.02854e-12 9.28484e-11 -8.18416e-11 5e-05 1.46608e-10 
100 1 0.110172 0.0182703 0.0070018 0.00582975 0.000380165 -0.000565151 -1.16924e-10 1.00263e-11 3.00177e-12 5e-05 1.46608e-10 
101 1 0.103675 0.0166164 0.0077287 0.00587546 -7.84769e-05 0.000337874 -2.43104e-10 -5.6224e-11 1.22523e-11 5e-05 1.46608e-10 
102 1 0.0694385 0.0202053 0.00537268 3.96382e-15 4.44535e-15 -7.68277e-14 1.18849e-21 -9.15094e-22 1.05466e-23 5e-05 1.46608e-10 
104 1 0.103779 0.0170107 0.00743935 0.00619864 -0.000130464 0.000392401 -1.53093e-10 2.99707e-11 -3.63859e-11 5e-05 1.46608e-10 
105 1 0.103518 0.0163524 0.00791823 0.00561391 1.47769e-05 0.000255766 3.35179e-10 -4.2675e-10 3.00574e-10 5e-05 1.46608e-10 
106 1 0.103883 0.0174161 0.00716684 0.00599177 -0.000294396 0.000343515 1.61464e-10 5.63101e-11 -2.29225e-10 5e-05 1.46608e-10 
107 1 0.103479 0.0162127 0.00805359 0.00546012 8.7954e-05 0.000220395 -1.01225e-10 -5.03667e-11 2.33998e-10 5e-05 1.46608e-10 
108 1 0.109637 0.0168347 0.00767871 0.00612637 0.000635952 5.65162e-05 -1.11245e-11 -1.03761e-10 9.8536e-11 5e-05 1.46608e-10 
109 1 0.109834 0.0176329 0.00725409 0.00617939 0.000293216 -0.000560561 2.66751e-11 2.85011e-11 -1.83688e-11 5e-05 1.46608e-10 
110 1 0.109899 0.0179072 0.00715146 0.00620058 0.000290323 -0.000560662 5.81396e-11 1.40469e-11 -4.60681e-11 5e-05 1.46608e-10 
111 1 0.110076 0.0187349 0.00684959 0.00570827 0.000539378 -5.3551e-05 -3.11974e-11 4.28588e-11 1.91219e-11 5e-05 1.46608e-10 
112 1 0.103579 0.0165891 0.00774455 0.00585526 -6.09429e-05 0.000324841 -2.84894e-10 -4.26265e-10 3.58745e-10 5e-05 1.46608e-10 
113 1 0.103894 0.0171165 0.00736587 0.00623841 -0.000170991 0.0004232 -2.56029e-10 1.60703e-10 -1.07159e-10 5e-05 1.46608e-10 
115 1 0.109856 0.0177244 0.00721988 0.00618691 0.00029444 -0.000560727 -2.42052e-11 6.01882e-12 -1.57967e-11 5e-05 1.46608e-10 
116 1 0.109852 0.0169585 0.00750469 0.00617926 0.000592289 9.2847e-05 4.53726e-12 -1.26678e-10 1.31577e-10 5e-05 1.46608e-10 
117 1 0.109713 0.0167637 0.00762109 0.00608256 0.000626834 5.3795e-05 -5.54486e-11 -9.06531e-11 -6.70074e-12 5e-05 1.46608e-10 
118 1 0.103421 0.0159629 0.00820427 0.00542544 5.34131e-05 0.000218815 2.65689e-11 5.44368e-11 -4.53616e-11 5e-05 1.46608e-10 
119 1 0.110121 0.017713 0.00720436 0.00618941 0.000287655 -0.000558534 -1.07229e-10 1.67575e-11 1.08364e-12 5e-05 1.46608e-10 
120 1 0.109476 0.0161545 0.00800013 0.00565796 0.000703286 -2.65867e-05 -3.06297e-12 -5.3044e-11 3.47771e-11 5e-05 1.46608e-10 
121 1 0.109571 0.0161846 0.00798772 0.005651 0.00070446 -2.78718e-05 2.22918e-11 7.81671e-12 -5.79706e-12 5e-05 1.46608e-10 
122 1 0.110017 0.0180264 0.00710022 0.00621283 0.000296199 -0.000565192 -7.54211e-11 -3.40892e-11 1.79378e-11 5e-05 1.46608e-10 
123 1 0.103538 0.0164313 0.00786029 0.00576259 -3.00633e-05 0.000290428 3.10994e-11 -6.07767e-10 4.22177e-10 5e-05 1.46608e-10 
124 1 0.109978 0.0180337 0.00719161 0.00622132 0.00029043 -0.000564803 -6.49565e-11 3.83838e-11 3.35614e-12 5e-05 1.46608e-10 
125 1 0.109591 0.0162674 0.00793523 0.0056479 0.000705776 -2.91198e-05 -2.1816e-11 2.74644e-11 -1.86712e-11 5e-05 1.46608e-10 
126 1 0.10979 0.0174501 0.00732251 0.00617062 0.000295567 -0.000560044 6.94599e-11 1.3502e-10 -6.55301e-11 5e-05 1.46608e-10 
127 1 0.104124 0.0179639 0.00706711 0.00556791 -0.000312107 -2.79243e-05 2.40718e-10 -1.21567e-10 -1.00437e-10 5e-05 1.46608e-10 
128 1 0.110071 0.0178715 0.00715149 0.00619923 0.000280879 -0.000556003 -5.89043e-11 -2.00626e-11 1.06036e-11 5e-05 1.46608e-10 
129 1 0.109942 0.01809 0.00708303 0.00621137 0.000288638 -0.000559987 -2.14255e-11 -3.84984e-11 2.22359e-11 5e-05 1.46608e-10 
131 1 0.103799 0.0170896 0.00738148 0.00617573 -0.000144396 0.000404227 -2.32535e-10 3.33042e-12 -6.30253e-12 5e-05 1.46608e-10 
132 1 0.110124 0.0180659 0.00707828 0.00572942 0.000428533 -0.000577405 -1.74164e-12 -1.23555e-11 2.24261e-11 5e-05 1.46608e-10 
133 1 0.109671 0.0165985 0.00772556 0.00604015 0.000646034 4.03026e-05 -1.37114e-10 4.39845e-11 -2.99546e-11 5e-05 1.46608e-10 
134 1 0.110217 0.01774 0.00718765 0.00618117 0.000265862 -0.000550216 1.04009e-11 7.35382e-11 -2.6732e-11 5e-05 1.46608e-10 
135 1 0.109787 0.0167097 0.00766192 0.00606314 0.000608518 6.7395e-05 -4.30013e-11 -7.0578e-11 1.01746e-10 5e-05 1.46608e-10 
136 1 0.103441 0.0160419 0.00814627 0.0054442 6.26403e-05 0.000206237 9.58083e-11 8.15166e-11 -2.70225e-11 5e-05 1.46608e-10 
137 1 0.110021 0.0184607 0.00695648 0.0058452 0.000378038 -0.000561504 7.49904e-11 -3.06672e-11 -6.08632e-11 5e-05 1.46608e-10 
138 1 0.110096 0.0183326 0.00698519 0.00582387 0.000375541 -0.000562419 -4.15276e-11 2.3136e-11 -8.66856e-12 5e-05 1.46608e-10 
140 1 0.10993 0.0176599 0.00723737 0.00618088 0.000286701 -0.000558135 -7.36121e-12 1.64575e-11 -1.04121e-11 5e-05 1.46608e-10 
141 1 0.103613 0.0163797 0.00790234 0.0056851 -1.07034e-05 0.000278914 3.81772e-10 -9.87646e-11 1.30099e-10 5e-05 1.46608e-10 
142 1 0.103716 0.0167741 0.00761296 0.00596717 -0.000115736 0.000369657 -1.96305e-10 9.11432e-11 -8.35675e-11 5e-05 1.46608e-10 
143 1 0.103498 0.0162734 0.00797624 0.00546997 5.94416e-05 0.000224317 5.74188e-11 -2.70387e-10 1.69246e-10 5e-05 1.46608e-10 
146 1 0.103791 0.0167222 0.00765523 0.00594972 -0.000127113 0.000377288 1.70989e-11 -1.96505e-10 1.25232e-10 5e-05 1.46608e-10 
147 1 0.103401 0.0158839 0.00826234 0.00542465 4.33496e-05 0.000226067 1.73661e-10 -1.47911e-11 7.23251e-11 5e-05 1.46608e-10 
148 1 0.00864627 0.0171353 0.00810814 -8.42027e-10 -0.0209695 0.0118261 6.10088e-19 1.07021e-11 1.90196e-11 5e-05 1.46608e-10 
149 1 0.110139 0.0181601 0.00704358 0.00570345 0.000410236 -0.000565 2.56772e-11 1.75734e-11 -1.50879e-11 5e-05 1.46608e-10 
150 1 0.103696 0.0166952 0.00767083 0.00593282 -0.000100102 0.000356491 -2.35366e-10 -1.66789e-11 2.37195e-11 5e-05 1.46608e-10 
151 1 0.104213 0.0176777 0.00704448 0.00561021 -0.00014903 -0.000127176 -1.85677e-10 -6.3684e-10 1.53557e-10 5e-05 1.46608e-10 
153 1 0.10377 0.0166433 0.0077131 0.00589955 -0.000116337 0.000366991 -3.12842e-10 -2.64409e-11 6.54898e-12 5e-05 1.46608e-10 
154 1 0.103928 0.0175894 0.00707829 0.00565976 -0.000383067 2.34911e-05 -1.70946e-10 2.47591e-10 -1.08327e-10 5e-05 1.46608e-10 
155 1 0.0979386 0.0176527 0.0071254 0.00625454 9.80915e-05 -3.38157e-05 1.2238e-11 1.85852e-11 -4.683e-12 5e-05 1.46608e-10 
156 1 0.103809 0.0174613 0.00710451 0.00610132 -0.000416843 0.000500717 1.52445e-09 -3.52464e-09 3.44135e-09 5e-05 1.46608e-10 
157 1 0.103988 0.0178745 0.00700716 0.00558986 -0.000384993 -6.5709e-05 1.89513e-10 8.27032e-11 -1.2146e-10 5e-05 1.46608e-10 
158 1 0.104033 0.0173014 0.00723449 0.00614225 -6.76637e-05 0.000344128 -1.00649e-10 1.91841e-10 -1.454e-10 5e-05 1.46608e-10 
159 1 0.110135 0.0185799 0.00689413 0.00558387 0.000403063 -0.000555679 -1.64494e-11 -1.67535e-12 7.64838e-12 5e-05 1.46608e-10 
160 1 0.103892 0.0178427 0.00701687 0.00555633 -0.000653293 -9.69179e-06 -2.1231e-11 -1.06738e-10 2.41691e-11 5e-05 1.46608e-10 
162 1 0.103842 0.0172481 0.00726518 0.00620612 -0.00022696 0.000464797 2.37604e-10 6.33828e-11 1.80851e-11 5e-05 1.46608e-10 
163 1 0.104053 0.0173808 0.00717619 0.00590458 -7.7906e-05 0.000337541 3.26037e-10 3.59813e-10 -1.90267e-10 5e-05 1.46608e-10 
164 1 0.104103 0.0179998 0.00697624 0.00563606 -0.000377462 -7.13694e-05 2.6373e-10 -1.92901e-10 8.00646e-12 5e-05 1.46608e-10 
165 1 0.103969 0.0170649 0.00740794 0.00623873 -0.000204204 0.000448681 -3.02791e-10 1.11457e-10 -9.77672e-11 5e-05 1.46608e-10 
166 1 0.109418 0.0159059 0.00815769 0.00564333 0.00070241 -2.70477e-05 -1.45814e-11 -1.65423e-11 1.18455e-11 5e-05 1.46608e-10 
167 1 0.103811 0.016801 0.00759736 0.00601473 -0.000129762 0.000383437 -1.1893e-10 -4.7224e-11 3.58352e-11 5e-05 1.46608e-10 
168 1 0.103948 0.0176834 0.00705057 0.00554996 -0.000401351 -6.76079e-05 8.51845e-11 1.05991e-10 1.21627e-10 5e-05 1.46608e-10 
169 1 0.104097 0.0175518 0.00707613 0.00570581 -0.000357664 -0.000162782 -3.55244e-10 6.63118e-12 -3.57553e-10 5e-05 1.46608e-10 
170 1 0.104023 0.0176176 0.00706305 0.0056296 -0.000394885 -0.000105442 -4.10607e-10 2.25192e-10 4.03096e-10 5e-05 1.46608e-10 
171 1 0.109808 0.0167923 0.0076097 0.00607792 0.000594483 7.62228e-05 -9.41417e-12 -1.91331e-10 1.25444e-10 5e-05 1.46608e-10 
172 1 0.104273 0.0179646 0.00697929 0.00558099 -0.000349449 -7.87202e-05 3.81298e-10 3.33949e-10 -1.20191e-10 5e-05 1.46608e-10 
173 1 0.110078 0.0175301 0.00727279 0.00616135 0.000268946 -0.000549951 5.57719e-11 -4.32461e-11 1.20264e-11 5e-05 1.46608e-10 
174 1 0.103933 0.0179021 0.00708589 0.00563161 -0.000381335 -1.81869e-05 2.03251e-10 -2.52183e-10 -2.46577e-11 5e-05 1.46608e-10 
175 1 0.100659 0.0170785 0.00726295 0.00583603 4.96662e-05 -2.12504e-05 -7.72115e-13 -2.15918e-14 6.03372e-15 5e-05 1.46608e-10 
176 1 0.103788 0.0173824 0.00716239 0.0061974 -0.00039495 0.000594971 -8.34942e-11 3.76363e-10 -1.77754e-10 5e-05 1.46608e-10 
177 1 0.104312 0.0181608 0.00694569 0.00570461 -0.000314331 0.00052948 -1.16782e-10 -6.86898e-11 -6.59945e-11 5e-05 1.46608e-10 
178 1 0.104253 0.0178691 0.00700099 0.00546625 -0.000313144 -8.05999e-05 4.18483e-10 1.43764e-10 -6.77632e-11 5e-05 1.46608e-10 
179 1 0.0977771 0.0173377 0.0072034 0.00629504 7.48152e-05 -2.83436e-05 4.41289e-11 -4.40369e-12 1.93036e-12 5e-05 1.46608e-10 
180 1 0.103958 0.0173529 0.00719253 0.00604532 -0.000134952 0.000387139 -2.10533e-10 1.05829e-10 -1.48894e-10 5e-05 1.46608e-10 
181 1 0.104002 0.0175261 0.00709958 0.00578506 -0.000208331 0.000150489 4.13713e-11 2.22718e-10 -2.12769e-10 5e-05 1.46608e-10 
182 1 0.109991 0.017164 0.00740982 0.00616556 0.000283355 -0.000555281 4.4439e-11 -8.4321e-11 2.48829e-11 5e-05 1.46608e-10 
183 1 0.104118 0.0176474 0.00705382 0.00562994 -0.000256402 -8.86822e-05 -4.52808e-10 -3.64064e-10 3.7029e-11 5e-05 1.46608e-10 
184 1 0.109983 0.0182736 0.00701459 0.00569931 0.000409642 -0.000565682 -5.72248e-11 -4.58858e-12 1.35297e-11 5e-05 1.46608e-10 
185 1 0.10383 0.0175563 0.00708197 0.00609653 -0.000541577 0.000178619 4.2582e-09 -3.07792e-09 1.8041e-09 5e-05 1.46608e-10 
186 1 0.103861 0.0173272 0.00720701 0.00615924 -0.000273117 0.000469265 -2.13496e-10 2.09304e-10 -3.80472e-10 5e-05 1.46608e-10 
187 1 0.110013 0.0172558 0.00737544 0.00614831 0.000275505 -0.000551255 1.45608e-10 -1.09485e-10 2.90362e-11 5e-05 1.46608e-10 
188 1 0.110046 0.0181265 0.00706238 0.00572192 0.00040544 -0.000566541 1.86995e-12 3.17089e-13 5.18733e-12 5e-05 1.46608e-10 
189 1 0.109692 0.0166811 0.00767325 0.00606781 0.00063446 4.90862e-05 -1.16414e-11 -1.79087e-11 -1.76098e-11 5e-05 1.46608e-10 
190 1 0.104311 0.0185413 0.0069477 0.00556243 -0.000361682 0.000518795 -2.5863e-10 4.12699e-10 -3.34362e-11 5e-05 1.46608e-10 
191 1 0.110039 0.0185486 0.00691232 0.00591004 0.000356341 -0.000562814 -2.34211e-11 -2.2094e-11 -3.68565e-11 5e-05 1.46608e-10 
192 1 0.103907 0.0175012 0.00712037 0.00577313 -0.000320922 0.000186675 5.33029e-11 6.80766e-11 -2.51686e-10 5e-05 1.46608e-10 
193 1 0.110057 0.0186409 0.0068781 0.00559553 0.000412626 -0.0005587 1.96481e-11 2.45386e-11 -5.00884e-12 5e-05 1.46608e-10 
194 1 0.103737 0.016853 0.00755509 0.00600259 -0.000123107 0.000376866 -4.7338e-10 3.87964e-11 -5.79296e-11 5e-05 1.46608e-10 
195 1 0.104043 0.017713 0.00704136 0.00555278 -0.000367986 -7.72114e-05 -4.38195e-10 1.09893e-10 2.39849e-10 5e-05 1.46608e-10 
196 1 0.103302 0.015479 0.00853812 0.0056407 -0.000146408 -0.000190077 6.93297e-11 3.01151e-10 -2.06974e-10 5e-05 1.46608e-10 
197 1 0.103991 0.0180415 0.00705356 0.00567556 -0.000393928 -8.06274e-05 -7.48544e-11 -2.16862e-11 -1.17719e-10 5e-05 1.46608e-10 
198 1 0.103745 0.01722 0.00728159 0.00617514 -0.000214605 0.000453523 1.05384e-10 1.12178e-10 -3.56705e-11 5e-05 1.46608e-10 
199 1 0.103872 0.0177471 0.00703858 0.0055003 -0.000545004 -3.89497e-05 2.10089e-10 1.96998e-09 -3.26899e-10 5e-05 1.46608e-10 
200 1 0.103758 0.0169318 0.00749722 0.00607964 -0.00012263 0.000380688 -1.44383e-10 -3.01869e-11 3.71657e-11 5e-05 1.46608e-10 
201 1 0.104217 0.0185078 0.00693875 0.00552784 -0.000310846 0.000512419 6.71717e-11 3.35373e-10 -2.63146e-11 5e-05 1.46608e-10 
203 1 0.110217 0.0181002 0.00705916 0.00567008 0.000386835 -0.000555199 5.23495e-11 9.54612e-11 -4.84124e-11 5e-05 1.46608e-10 
204 1 0.103874 0.0170377 0.00742374 0.00618561 -0.000147745 0.000405053 -3.54877e-10 1.06568e-10 -7.67078e-11 5e-05 1.46608e-10 
205 1 0.103983 0.0181435 0.00704559 0.00596853 -0.00098768 -3.77258e-05 8.92387e-13 -3.11729e-10 -7.78271e-10 5e-05 1.46608e-10 
206 1 0.103968 0.0177789 0.00702886 0.00552204 -0.00039027 -7.16507e-05 8.0303e-11 -1.39255e-11 -2.40685e-12 5e-05 1.46608e-10 
207 1 0.103749 0.0165644 0.00777098 0.00581818 -0.000129137 0.000372915 -6.38369e-11 1.48873e-10 -9.79166e-11 5e-05 1.46608e-10 
208 1 0.103852 0.0176515 0.00706029 0.0055599 -0.000495805 -4.63065e-05 -2.73939e-10 3.48737e-10 1.35312e-10 5e-05 1.46608e-10 
209 1 0.0977986 0.0174325 0.00717997 0.00628304 7.52705e-05 -2.81782e-05 -2.6992e-12 -2.19429e-12 6.98648e-13 5e-05 1.46608e-10 
210 1 0.109437 0.0159887 0.00810518 0.0056375 0.000708679 -3.18125e-05 2.30486e-11 -8.9659e-12 6.7901e-12 5e-05 1.46608e-10 
211 1 0.110024 0.01826 0.00710468 0.00570262 0.000409349 -0.000566203 6.67586e-12 1.16692e-11 -3.24682e-12 5e-05 1.46608e-10 
212 1 0.104233 0.0177736 0.00702269 0.00549046 -0.000240862 -9.91821e-05 1.03187e-09 9.14505e-10 -2.25221e-10 5e-05 1.46608e-10 
213 1 0.110172 0.017894 0.00713609 0.00287333 0.00111451 -0.000609269 -4.34276e-10 4.75056e-11 1.5067e-11 5e-05 1.46608e-10 
214 1 0.110044 0.0181063 0.00716028 0.00578609 0.000385084 -0.000568355 -4.02307e-11 1.6003e-10 2.54776e-11 5e-05 1.46608e-10 
215 1 0.103937 0.0172741 0.00725033 0.00618924 -0.00014574 0.000406459 4.16075e-10 -2.38922e-11 -4.8338e-12 5e-05 1.46608e-10 
216 1 0.104012 0.0172226 0.0072923 0.00630811 -2.99424e-05 0.000325835 3.065e-10 -4.71894e-10 3.95946e-10 5e-05 1.46608e-10 
217 1 0.10983 0.0168751 0.00755738 0.00609785 0.000651351 4.16913e-05 -1.41546e-10 -3.04021e-11 2.09481e-11 5e-05 1.46608e-10 
218 1 0.104083 0.0179041 0.00699795 0.00562453 -0.000377678 -7.43744e-05 4.5188e-10 -2.78908e-10 3.76251e-11 5e-05 1.46608e-10 
219 1 0.110068 0.0184177 0.00703366 0.00584916 0.000358821 -0.000557882 1.85066e-11 -9.01218e-11 3.64803e-11 5e-05 1.46608e-10 
220 1 0.103916 0.0171953 0.00730808 0.00626067 -0.000163272 0.000419087 2.8895e-10 1.08115e-10 -1.24696e-10 5e-05 1.46608e-10 
221 1 0.0976718 0.0169042 0.00740063 0.00623499 7.41136e-05 -4.13481e-05 -1.50995e-11 3.13743e-12 3.70007e-11 5e-05 1.46608e-10 
222 1 0.109618 0.0167352 0.00763241 0.0060974 0.0006431 4.68469e-05 -4.60977e-12 -1.08652e-10 6.8681e-11 5e-05 1.46608e-10 
223 1 0.103978 0.0174319 0.00713447 0.00588966 -0.000134188 0.000362533 -6.03628e-11 -2.99128e-11 -1.25609e-10 5e-05 1.46608e-10 
224 1 0.103766 0.0172988 0.00722372 0.00617829 -0.000241123 0.000471829 1.46834e-10 2.35255e-10 -9.35472e-11 5e-05 1.46608e-10 
225 1 0.110143 0.0178044 0.00717015 0.00619565 0.000280342 -0.000556055 -4.95567e-11 4.56865e-12 1.43767e-12 5e-05 1.46608e-10 
226 1 0.10399 0.0171438 0.00735009 0.0062584 -0.000169038 0.000424559 2.42069e-10 1.84617e-10 -1.24214e-10 5e-05 1.46608e-10 
227 1 0.0977337 0.0171482 0.00725025 0.00632032 6.3385e-05 -2.58633e-05 -1.1059e-10 -9.13796e-11 5.03249e-11 5e-05 1.46608e-10 
228 1 0.0507861 0.0189683 0.00558458 -5.32924e-15 -1.91125e-14 -2.87013e-13 -6.44726e-22 1.09937e-22 4.96308e-24 5e-05 1.46608e-10 
229 1 0.103573 0.0162218 0.00801827 0.00549602 -7.10653e-06 0.00025978 -2.68409e-10 -2.84916e-11 7.06244e-11 5e-05 1.46608e-10 
230 1 0.103976 0.0182211 0.00698295 0.00581846 -0.000583171 0.00039858 5.20793e-12 -4.02344e-11 -3.53826e-10 5e-05 1.46608e-10 
231 1 0.197479 0.018695 0.00523156 -1.11006e-15 -2.69835e-14 1.45242e-13 -7.27838e-23 -4.60119e-24 -1.24077e-24 5e-05 1.46608e-10 
232 1 0.103593 0.0163008 0.00796031 0.0055589 1.08258e-06 0.000263671 4.09298e-11 -1.0871e-10 3.2224e-11 5e-05 1.46608e-10 
233 1 0.103853 0.0169588 0.00748162 0.00607649 -0.000129839 0.000384322 -1.92013e-10 3.67974e-11 -3.44202e-11 5e-05 1.46608e-10 
234 1 0.109379 0.0157403 0.00826265 0.00581543 0.000669575 7.15882e-06 -3.0425e-11 1.48797e-11 -8.37716e-12 5e-05 1.46608e-10 
235 1 0.104143 0.018574 0.00693215 0.00553646 -0.000280517 0.000514708 -1.69225e-10 2.3903e-10 7.71198e-11 5e-05 1.46608e-10 
236 1 0.104161 0.0186724 0.00693437 0.00557287 -0.000267777 0.000519007 -2.22135e-10 2.90158e-10 -3.74511e-11 5e-05 1.46608e-10 
237 1 0.104074 0.0183423 0.00692449 0.00573981 -0.000406699 0.000535333 9.09112e-11 -1.09489e-10 1.05591e-10 5e-05 1.46608e-10 
238 1 0.0978202 0.0175273 0.00715654 0.00627119 7.79304e-05 -2.88044e-05 2.39789e-11 -1.9577e-11 4.9473e-12 5e-05 1.46608e-10 
239 1 0.0975697 0.0165315 0.00771783 0.00581254 0.000146373 -0.000104592 1.10556e-10 -1.66909e-13 3.56896e-11 5e-05 1.46608e-10 
240 1 0.097651 0.0168297 0.00746401 0.00620866 8.65252e-05 -4.93334e-05 1.97893e-10 1.27799e-10 -3.20059e-11 5e-05 1.46608e-10 
241 1 0.0975899 0.016606 0.00765436 0.00606992 0.000103595 -6.92252e-05 1.65908e-10 -2.78096e-11 9.02497e-11 5e-05 1.46608e-10 
242 1 0.0979169 0.0175579 0.00714883 0.00626489 8.67761e-05 -3.10687e-05 -4.5203e-11 -2.85509e-11 7.88181e-12 5e-05 1.46608e-10 
243 1 0.0975498 0.0164568 0.00778134 0.0055861 0.000182426 -0.0001351 -5.64315e-11 3.69348e-11 -5.27336e-11 5e-05 1.46608e-10 
244 1 0.0976103 0.0166806 0.00759091 0.00608199 9.1208e-05 -6.39909e-05 1.93875e-10 -3.05287e-10 2.37921e-10 5e-05 1.46608e-10 
245 1 0.0978419 0.017622 0.00713311 0.00625855 8.12911e-05 -2.96571e-05 -2.23772e-11 -7.03928e-12 1.69153e-12 5e-05 1.46608e-10 
246 1 0.0976936 0.0169785 0.00733738 0.00632375 5.45018e-05 -2.45698e-05 1.57803e-11 -1.32762e-10 1.08739e-10 5e-05 1.46608e-10 
247 1 0.104138 0.0177433 0.00703203 0.00549915 -0.000270657 -9.31213e-05 3.08256e-10 -3.18127e-10 9.68365e-11 5e-05 1.46608e-10 
248 1 0.104178 0.0179343 0.00698862 0.00551058 -0.000262682 -9.38768e-05 3.03572e-10 -1.48689e-10 5.66905e-11 5e-05 1.46608e-10 