ITEM: TIMESTEP
1200000
ITEM: NUMBER OF ATOMS
216
ITEM: BOX BOUNDS ff ff ff
-0.02 0.43
-0.02 0.06
-0.02 0.07
ITEM: ATOMS id type x y z vx vy vz fx fy fz radius mass 
1 1 0.020082 0.0173972 0.0071813 0.00505599 -0.00248087 0.00102078 -4.32851e-11 -7.49719e-12 1.27947e-11 5e-05 1.46608e-10 
2 1 0.0204607 0.0183309 0.00699838 0.0055226 -0.00271448 0.000636311 -1.72743e-10 1.88983e-11 -1.36991e-11 5e-05 1.46608e-10 
3 1 0.0162226 0.0196347 0.00708588 -7.5887e-16 2.58188e-14 -2.11472e-13 9.02305e-25 -7.75482e-26 0 5e-05 1.46608e-10 
4 1 0.0205903 0.0190182 0.00688658 0.00556939 -0.00271769 0.000617483 5.4704e-10 -1.8063e-10 4.78628e-11 5e-05 1.46608e-10 
5 1 0.0200027 0.0174531 0.00715723 0.00508668 -0.00245076 0.00100757 -3.49554e-11 -4.62204e-12 2.67299e-11 5e-05 1.46608e-10 
6 1 0.0258567 0.0167913 0.00748499 0.00558406 -6.38151e-05 0.000159081 3.19419e-12 1.13271e-11 -9.01653e-12 5e-05 1.46608e-10 
7 1 0.0202355 0.0181558 0.00701917 0.00539373 -0.00268726 0.000627369 -1.41752e-10 2.67248e-11 -1.20792e-11 5e-05 1.46608e-10 
8 1 0.0199263 0.0171029 0.00732572 0.00500633 -0.00245543 0.00100997 4.63589e-11 -3.93954e-11 1.60599e-11 5e-05 1.46608e-10 
9 1 0.0261856 0.0183341 0.00703146 0.0055801 -0.00202821 0.000205051 8.62065e-13 -4.02319e-13 5.73534e-14 5e-05 1.46608e-10 
10 1 0.0201823 0.0183176 0.00699086 0.00551174 -0.00268432 0.00063026 1.72126e-10 -1.39077e-11 2.83103e-11 5e-05 1.46608e-10 
11 1 0.0202997 0.0184454 0.00697405 0.00553536 -0.00270853 0.000636563 -1.73636e-10 1.04276e-11 -2.78647e-12 5e-05 1.46608e-10 
12 1 0.0203912 0.018837 0.00691208 0.0056143 -0.00262374 0.000603119 4.83053e-10 -1.08642e-09 1.4971e-10 5e-05 1.46608e-10 
13 1 0.020081 0.0178339 0.00706645 0.00511088 -0.00258949 0.000597738 2.94965e-10 2.99703e-11 3.03047e-11 5e-05 1.46608e-10 
14 1 0.0145668 0.0200477 0.00714536 0.00450762 -0.00546393 -0.00126869 3.21985e-13 -4.5007e-13 -1.00643e-13 5e-05 1.46608e-10 
15 1 0.0202897 0.0188012 0.00692969 0.00563515 -0.00270699 0.000634517 -5.54129e-10 8.029e-10 -1.04074e-10 5e-05 1.46608e-10 
16 1 0.0145099 0.0197855 0.00711042 0.00473618 -0.00553747 -0.000693053 -5.28058e-13 4.71375e-13 5.4721e-14 5e-05 1.46608e-10 
17 1 0.0201406 0.0181243 0.00702102 0.00538441 -0.00265991 0.000622727 -1.55705e-10 1.72233e-11 -7.19722e-12 5e-05 1.46608e-10 
18 1 0.0259907 0.0174026 0.00721081 0.00552818 -0.000191107 -0.00013502 -3.05337e-12 -6.02794e-12 7.00557e-13 5e-05 1.46608e-10 
19 1 0.0199641 0.0172763 0.00724229 0.00504552 -0.00244766 0.00100528 -9.27552e-11 -6.73757e-11 4.12624e-11 5e-05 1.46608e-10 
20 1 0.0204642 0.0187272 0.00693285 0.00563129 -0.00259511 0.000596543 -5.49228e-10 -3.12367e-09 4.9383e-10 5e-05 1.46608e-10 
21 1 0.0199836 0.0173649 0.00720009 0.00506472 -0.00244778 0.00100647 -2.62628e-10 -7.41098e-12 8.10679e-12 5e-05 1.46608e-10 
22 1 0.0203426 0.0186384 0.00694396 0.00554851 -0.00271385 0.000637246 -1.29108e-09 -1.94939e-10 -2.74122e-11 5e-05 1.46608e-10 
23 1 0.0168418 0.0200743 0.00709856 -2.09927e-14 2.73398e-14 -2.86756e-13 2.64594e-21 2.75247e-21 6.92764e-23 5e-05 1.46608e-10 
24 1 0.0260689 0.0177878 0.00713671 0.00552601 -0.000189469 -0.000135385 -3.05333e-12 -1.70027e-11 3.96321e-12 5e-05 1.46608e-10 
25 1 0.0202569 0.0182524 0.00700413 0.00548667 -0.00270035 0.000632293 1.73194e-10 -8.23003e-11 1.30742e-11 5e-05 1.46608e-10 
26 1 0.0259328 0.0171155 0.00726601 0.00556107 -0.000195625 -0.000135083 6.24424e-12 -9.36004e-13 1.59079e-12 5e-05 1.46608e-10 
27 1 0.0163817 0.0198236 0.00710829 -1.30746e-14 2.34304e-14 -2.30392e-13 3.61892e-25 -5.94536e-25 0 5e-05 1.46608e-10 
28 1 0.0201005 0.0179308 0.00705128 0.00508042 -0.00259062 0.000599203 7.33429e-11 1.7565e-11 -2.0667e-11 5e-05 1.46608e-10 
29 1 0.0201008 0.0174857 0.00713874 0.00510557 -0.00248606 0.00102263 1.76912e-11 -2.04688e-11 -5.25048e-11 5e-05 1.46608e-10 
30 1 0.0205899 0.0188242 0.00691973 0.00556556 -0.000260534 0.000197338 1.07815e-09 1.47962e-09 -2.28507e-10 5e-05 1.46608e-10 
31 1 0.0202679 0.0187036 0.00693069 0.00560282 -0.00268848 0.000635718 -2.3882e-10 1.5232e-10 -6.83469e-11 5e-05 1.46608e-10 
32 1 0.0203211 0.0185419 0.006959 0.0055784 -0.00271419 0.000637833 -2.59543e-11 5.44208e-11 -2.531e-12 5e-05 1.46608e-10 
33 1 0.0258756 0.0168699 0.00742604 0.00562664 -6.9235e-05 0.000164043 5.88173e-12 9.79207e-12 -7.56832e-12 5e-05 1.46608e-10 
34 1 0.0201609 0.0182211 0.0070059 0.00548804 -0.00267836 0.000629597 -1.71163e-10 -3.00174e-11 2.49472e-13 5e-05 1.46608e-10 
36 1 0.0262385 0.0185738 0.00698523 0.00564506 -0.00207403 0.00021157 5.97297e-13 -3.08976e-13 4.45753e-14 5e-05 1.46608e-10 
37 1 0.0202037 0.0184141 0.00697582 0.00552076 -0.00268615 0.000631056 7.37448e-11 -1.79788e-10 1.04909e-11 5e-05 1.46608e-10 
38 1 0.0203646 0.018735 0.00692878 0.00573515 -0.00249716 0.000581617 -1.03471e-09 1.54791e-09 -3.353e-10 5e-05 1.46608e-10 
39 1 0.0260493 0.0176915 0.00715524 0.00553455 -0.000191876 -0.000135183 -3.10354e-12 -1.55313e-11 3.87887e-12 5e-05 1.46608e-10 
41 1 0.0200223 0.0175468 0.00712806 0.00511166 -0.00248482 0.000933218 4.12138e-11 1.79076e-11 -8.46661e-11 5e-05 1.46608e-10 
42 1 0.0202465 0.0186071 0.00694574 0.00559884 -0.0026885 0.000634963 5.57216e-11 1.20391e-10 1.16757e-12 5e-05 1.46608e-10 
44 1 0.0205064 0.018638 0.00694925 0.00548014 -0.00280395 0.000633148 4.08912e-09 -1.55482e-09 4.14747e-10 5e-05 1.46608e-10 
45 1 0.0259132 0.017027 0.00730814 0.00571021 -8.09189e-05 0.000174284 -4.36635e-12 -1.30021e-12 -1.96251e-12 5e-05 1.46608e-10 
46 1 0.0259713 0.0173063 0.00722933 0.00553954 -0.000192821 -0.000135285 5.19203e-12 -6.38671e-12 8.45173e-13 5e-05 1.46608e-10 
47 1 0.0200615 0.017737 0.00708162 0.00512584 -0.00258032 0.000610623 1.57926e-10 3.92707e-11 2.08426e-11 5e-05 1.46608e-10 
48 1 0.020424 0.0185817 0.00695608 0.00545117 -0.0027499 0.000636439 -4.93461e-10 -1.67707e-09 2.18331e-10 5e-05 1.46608e-10 
49 1 0.0259658 0.0172081 0.00724776 0.00555009 -0.00019264 -0.000135505 1.06083e-11 -6.38667e-12 6.51084e-13 5e-05 1.46608e-10 
50 1 0.0205099 0.0190765 0.00687442 0.00552762 -0.00275441 0.000622477 -7.85851e-10 -2.88182e-10 2.29306e-11 5e-05 1.46608e-10 
51 1 0.0204269 0.0190212 0.00688158 0.00567553 -0.00267044 0.000611504 1.35419e-12 1.06863e-09 -2.1499e-10 5e-05 1.46608e-10 
52 1 0.0217695 0.0192772 0.00687475 4.24174e-15 -2.63636e-14 -1.54285e-13 -1.45274e-23 -8.27181e-25 -2.06795e-25 5e-05 1.46608e-10 
53 1 0.0260102 0.0174989 0.00719228 0.00550613 -0.000186881 -0.000135352 1.80323e-12 -7.45873e-12 1.692e-12 5e-05 1.46608e-10 
54 1 0.0200594 0.017305 0.00722573 0.00505442 -0.00246495 0.00101258 -3.179e-10 3.6762e-11 -2.01079e-11 5e-05 1.46608e-10 
55 1 0.0146395 0.0204009 0.00720701 0.00343553 -0.00655701 -0.00141206 -2.4427e-10 3.56381e-10 7.99664e-11 5e-05 1.46608e-10 
56 1 0.0202251 0.0185106 0.00696078 0.00555846 -0.00267773 0.000632835 -2.53808e-10 -1.74043e-10 -4.85219e-12 5e-05 1.46608e-10 
57 1 0.0258946 0.0169484 0.00736712 0.00566811 -7.47572e-05 0.000169103 6.30787e-12 4.97066e-12 -2.26188e-12 5e-05 1.46608e-10 
59 1 0.0203529 0.0182836 0.00700235 0.00547872 -0.00271842 0.000635542 1.16631e-11 1.27857e-10 -1.06909e-11 5e-05 1.46608e-10 
60 1 0.0203744 0.0183802 0.00698731 0.00552699 -0.00271421 0.000636048 -9.9421e-11 5.00767e-11 -3.84756e-12 5e-05 1.46608e-10 
61 1 0.0200419 0.0176405 0.00709938 0.00511747 -0.00254693 0.000743349 2.73318e-11 3.07012e-11 -1.62572e-10 5e-05 1.46608e-10 
62 1 0.02049 0.0188225 0.00691727 0.00567793 -0.00240528 0.000567119 3.05078e-10 -2.47216e-09 4.53556e-10 5e-05 1.46608e-10 
63 1 0.0204026 0.0184852 0.00697112 0.00557219 -0.00272672 0.00064014 1.39413e-11 1.04833e-11 -1.42023e-11 5e-05 1.46608e-10 
64 1 0.0260297 0.0175952 0.00717376 0.00554393 -0.000194264 -0.000135089 -2.19282e-12 -8.15145e-12 -2.81202e-14 5e-05 1.46608e-10 
65 1 0.0166467 0.019938 0.00709982 -1.92014e-15 2.50471e-15 -2.62516e-14 2.49447e-24 3.02438e-24 2.06795e-25 5e-05 1.46608e-10 
66 1 0.0163328 0.019703 0.00709382 -7.58109e-16 2.58188e-14 -2.11472e-13 -1.29085e-24 0 0 5e-05 1.46608e-10 
67 1 0.0205968 0.01844 0.00698528 0.00611157 -0.000581322 0.000307702 1.03806e-10 -8.8498e-12 3.04791e-12 5e-05 1.46608e-10 
68 1 0.0204395 0.0189235 0.00689863 0.00562725 -0.00263798 0.000606346 5.58721e-10 6.90908e-10 -1.18235e-10 5e-05 1.46608e-10 
69 1 0.0202783 0.0183489 0.00698909 0.00550547 -0.00269861 0.000632979 2.55218e-11 6.52569e-11 -2.3879e-11 5e-05 1.46608e-10 
70 1 0.0203317 0.0189909 0.00688415 0.00565945 -0.00272783 0.00063043 2.2868e-10 2.10905e-10 7.16139e-11 5e-05 1.46608e-10 
71 1 0.0145949 0.0201815 0.00716868 0.00453863 -0.00547251 -0.00127202 1.26651e-13 -7.00842e-13 -1.34871e-13 5e-05 1.46608e-10 
72 1 0.0205383 0.018909 0.00690382 0.00565883 -0.00218667 0.000529182 -1.41736e-10 1.61602e-09 -2.66169e-10 5e-05 1.46608e-10 
73 1 0.0201203 0.0180276 0.00703613 0.00518431 -0.00261641 0.000608722 -5.57925e-11 -7.03122e-12 3.83902e-12 5e-05 1.46608e-10 
74 1 0.0206609 0.0187532 0.00693381 0.00521082 0.00190548 -0.000181927 -3.51246e-10 1.17701e-10 -1.48755e-11 5e-05 1.46608e-10 
76 1 0.0207607 0.0238802 0.011613 -2.26962e-05 -0.000776078 -0.00139902 1.34622e-12 2.18687e-11 3.92385e-11 5e-05 1.46608e-10 
77 1 0.0225584 0.0195075 0.00685708 4.24148e-15 -2.63636e-14 -1.54285e-13 2.72711e-24 6.72084e-25 0 5e-05 1.46608e-10 
78 1 0.015183 0.0202984 0.00717063 -7.58033e-16 2.58188e-14 -2.11472e-13 3.47351e-25 0 -2.06795e-25 5e-05 1.46608e-10 
79 1 0.0167685 0.0202479 0.00712048 -1.92032e-15 2.50458e-15 -2.62516e-14 -2.68834e-24 -4.16175e-24 -4.1359e-25 5e-05 1.46608e-10 
80 1 0.0205115 0.0193731 0.00682377 0.00526716 -0.000397069 0.000220512 -3.80016e-11 3.93299e-11 1.13234e-10 5e-05 1.46608e-10 
81 1 0.016411 0.0228576 0.0100891 -0.0044052 -0.0337662 -0.105801 0 0 -1.43822e-09 5e-05 1.46608e-10 
82 1 0.01677 0.020143 0.00711036 -2.09607e-14 2.73731e-14 -2.86756e-13 -2.47715e-21 -2.57693e-21 -6.45201e-23 5e-05 1.46608e-10 
83 1 0.0157368 0.0202286 0.00716012 -7.58927e-16 2.58188e-14 -2.11472e-13 -1.31509e-24 -1.03398e-25 2.06795e-25 5e-05 1.46608e-10 
84 1 0.0262772 0.0187487 0.0069515 0.00569367 -0.00210196 0.000215265 4.02065e-13 -2.2533e-13 4.09807e-14 5e-05 1.46608e-10 
85 1 0.0198935 0.016955 0.00739687 0.00512563 -0.00248028 0.00101795 1.72463e-11 -2.59165e-11 1.23445e-11 5e-05 1.46608e-10 
86 1 0.0204931 0.0192739 0.00684022 0.00529615 -0.00113769 0.000343422 6.39807e-11 5.22671e-11 5.07307e-11 5e-05 1.46608e-10 
87 1 0.0204271 0.0182179 0.00701569 0.00546461 -0.0027248 0.000635826 -7.00064e-11 4.37002e-11 -1.26172e-11 5e-05 1.46608e-10 
88 1 0.0218213 0.0193837 0.00685798 5.15396e-15 -3.20385e-14 -1.87495e-13 1.00813e-24 -2.58494e-25 2.06795e-25 5e-05 1.46608e-10 
89 1 0.0207009 0.0192832 0.00684434 4.24144e-15 -2.63637e-14 -1.54285e-13 3.73459e-23 5.73857e-24 0 5e-05 1.46608e-10 
90 1 0.0206359 0.0189308 0.00690278 0.00570434 -0.00265337 0.000609415 8.08336e-10 1.89711e-09 -3.1018e-10 5e-05 1.46608e-10 
91 1 0.020353 0.0190873 0.00686826 0.00565901 -0.00273797 0.00061919 -2.09538e-11 3.32257e-10 -9.73886e-11 5e-05 1.46608e-10 
92 1 0.020731 0.0189617 0.0069001 0.00539713 -0.00121653 0.000356254 -3.96748e-11 8.32499e-12 -1.30175e-13 5e-05 1.46608e-10 
93 1 0.0215118 0.0189909 0.00691658 -3.97581e-15 2.47093e-14 1.44604e-13 -4.6335e-24 -3.10193e-25 -2.06795e-25 5e-05 1.46608e-10 
94 1 0.0205931 0.019277 0.00684245 0.00524071 0.000913751 -1.32011e-05 -8.34525e-11 1.40997e-11 1.85297e-11 5e-05 1.46608e-10 
95 1 0.0204117 0.0193782 0.0068256 0.00509338 -0.00282646 -0.00123751 -1.43996e-10 -1.48934e-10 -3.50173e-10 5e-05 1.46608e-10 
96 1 0.0206727 0.0191617 0.00686434 0.00583297 -0.000340358 0.000218171 -1.03796e-10 7.41591e-11 -2.8452e-11 5e-05 1.46608e-10 
97 1 0.0172246 0.0200745 0.00707058 2.03094e-14 -2.64928e-14 2.77687e-13 7.4834e-24 -1.72674e-23 -2.27475e-24 5e-05 1.46608e-10 
98 1 0.0222442 0.0194149 0.00686427 5.1543e-15 -3.20384e-14 -1.87495e-13 2.40399e-24 -1.03398e-25 0 5e-05 1.46608e-10 
99 1 0.0165183 0.0205671 0.00716923 -1.92011e-15 2.50466e-15 -2.62516e-14 -7.88407e-25 1.80946e-25 2.06795e-25 5e-05 1.46608e-10 
100 1 0.020698 0.0188537 0.00691765 0.00560947 -0.00277179 0.000628076 -2.47381e-10 3.11714e-10 -6.26705e-11 5e-05 1.46608e-10 
101 1 0.01697 0.0142713 0.0119837 0.0210505 0.000849848 -0.0313501 0 0 -1.43822e-09 5e-05 1.46608e-10 
102 1 0.0694385 0.0202053 0.00537268 3.95093e-15 4.48357e-15 -7.6826e-14 -6.09115e-22 7.88704e-22 1.44757e-23 5e-05 1.46608e-10 
104 1 0.0170266 0.020057 0.00708339 -1.9207e-15 2.50437e-15 -2.62516e-14 -6.55282e-24 -5.81611e-24 -2.06795e-25 5e-05 1.46608e-10 
105 1 0.0153544 0.0204311 0.00718622 3.32068e-16 -1.12793e-14 9.2385e-14 1.26748e-22 1.29247e-24 -4.1359e-25 5e-05 1.46608e-10 
106 1 0.0194982 0.0238424 0.0115443 -0.0394576 0.0049713 0.011813 1.16014e-06 -1.54334e-06 2.881e-07 5e-05 1.46608e-10 
107 1 0.0151984 0.020401 0.0071831 -7.58297e-16 2.58188e-14 -2.11472e-13 2.22305e-24 2.58494e-26 -2.06795e-25 5e-05 1.46608e-10 
108 1 0.0202152 0.018059 0.00703429 0.00528378 -0.00278799 0.00063995 -8.39695e-11 4.89675e-11 -1.02347e-11 5e-05 1.46608e-10 
109 1 0.0203744 0.0191836 0.00685238 0.00570607 -0.00274384 0.000626176 -1.35553e-10 1.2414e-10 -5.47927e-11 5e-05 1.46608e-10 
110 1 0.0208459 0.0192482 0.00685431 0.00387416 0.00329139 -0.000455958 -7.43623e-11 -1.6026e-11 -1.33753e-12 5e-05 1.46608e-10 
111 1 0.0226393 0.0194113 0.00687575 -3.97625e-15 2.47093e-14 1.44604e-13 1.2272e-23 1.13737e-24 0 5e-05 1.46608e-10 
112 1 0.0156731 0.0205246 0.00719649 -7.57462e-16 2.58188e-14 -2.11472e-13 2.50416e-24 3.87741e-25 0 5e-05 1.46608e-10 
113 1 0.0203131 0.023875 0.0116032 -0.00323289 -0.00230781 0.0364639 -1.0548e-08 5.42734e-07 -4.24391e-06 5e-05 1.46608e-10 
115 1 0.0203934 0.0192805 0.00683635 0.00519242 -0.00266072 0.000601264 6.43645e-11 2.07867e-11 -3.64458e-11 5e-05 1.46608e-10 
116 1 0.0203315 0.0181871 0.0070174 0.00546168 -0.00272233 0.000635525 1.50168e-10 -2.27727e-11 1.10969e-11 5e-05 1.46608e-10 
117 1 0.0202005 0.0174913 0.00713304 0.00462627 0.00334079 -0.0017265 1.61655e-11 3.18652e-11 -1.26688e-11 5e-05 1.46608e-10 
118 1 0.0149828 0.0203375 0.00717613 3.31177e-16 -1.12794e-14 9.2385e-14 -2.10026e-26 0 0 5e-05 1.46608e-10 
119 1 0.0205641 0.0187281 0.00693545 0.00575151 -0.000347455 0.00021874 -1.2638e-09 3.43947e-11 -8.41865e-11 5e-05 1.46608e-10 
120 1 0.0199643 0.017186 0.00728513 0.00501259 -0.00244985 0.00100652 1.53668e-13 -5.14032e-11 2.14926e-11 5e-05 1.46608e-10 
121 1 0.0199635 0.0170186 0.00736453 0.00507704 -0.00243056 0.000995702 5.60823e-11 -7.26792e-11 3.39376e-11 5e-05 1.46608e-10 
122 1 0.0207703 0.0191833 0.00686332 0.00541187 0.00154659 -0.000115309 -7.91457e-11 3.3137e-11 -2.42471e-12 5e-05 1.46608e-10 
123 1 0.015585 0.020327 0.00717268 3.31243e-16 -1.12794e-14 9.2385e-14 1.6584e-24 0 0 5e-05 1.46608e-10 
124 1 0.020639 0.019388 0.00682474 4.2421e-15 -2.63636e-14 -1.54285e-13 -3.81279e-25 -2.58494e-25 -2.06795e-25 5e-05 1.46608e-10 
125 1 0.0200586 0.0172147 0.0072686 0.0050238 -0.00246861 0.00101582 -9.50654e-11 2.6821e-12 3.59829e-12 5e-05 1.46608e-10 
126 1 0.0203103 0.0188945 0.00690003 0.0056158 -0.00271523 0.000599295 4.76106e-10 3.61263e-10 -2.91571e-10 5e-05 1.46608e-10 
127 1 0.0158612 0.0200755 0.00714099 -7.58974e-16 2.58188e-14 -2.11472e-13 1.19255e-23 4.91138e-25 2.06795e-25 5e-05 1.46608e-10 
128 1 0.0206853 0.0190492 0.0068839 0.00512258 -0.00122941 0.000350784 1.21548e-09 8.27749e-11 1.61622e-11 5e-05 1.46608e-10 
129 1 0.0213904 0.0193702 0.00684843 -3.97553e-15 2.47093e-14 1.44604e-13 2.82405e-24 1.03398e-25 2.06795e-25 5e-05 1.46608e-10 
131 1 0.0169167 0.0202133 0.00710635 -1.92053e-15 2.50436e-15 -2.62516e-14 4.03251e-24 -1.44757e-24 -4.1359e-25 5e-05 1.46608e-10 
132 1 0.020573 0.0191676 0.00686059 0.00572285 -0.00191579 0.000484578 -1.95119e-10 -1.88062e-10 4.75047e-11 5e-05 1.46608e-10 
133 1 0.0201205 0.0175796 0.00710942 0.00512061 -0.00254424 0.000606118 1.28679e-10 -3.79581e-11 2.72242e-11 5e-05 1.46608e-10 
134 1 0.0205004 0.0184653 0.00697777 0.00572152 -0.00201366 0.000528792 5.57595e-11 -1.22568e-10 3.13974e-11 5e-05 1.46608e-10 
135 1 0.0198737 0.0168666 0.00743937 0.00510246 -0.00248061 0.00101891 -9.06854e-13 -3.19662e-11 1.47842e-11 5e-05 1.46608e-10 
136 1 0.0150811 0.0203191 0.00717353 -7.58229e-16 2.58188e-14 -2.11472e-13 1.82804e-24 7.75482e-26 0 5e-05 1.46608e-10 
137 1 0.0227552 0.0194406 0.00687392 -3.97477e-15 2.47094e-14 1.44604e-13 6.24909e-24 -1.55096e-25 2.06795e-25 5e-05 1.46608e-10 
138 1 0.0208755 0.0191105 0.00687866 0.00342532 0.00383107 -0.000560503 -5.72976e-10 -2.66972e-10 3.02757e-11 5e-05 1.46608e-10 
140 1 0.020473 0.0191679 0.00685778 0.00570115 -0.00271342 0.00062086 -3.75407e-10 -5.16651e-11 1.04048e-11 5e-05 1.46608e-10 
141 1 0.0153247 0.0202154 0.00715999 3.31866e-16 -1.12794e-14 9.2385e-14 7.66031e-24 3.36042e-25 0 5e-05 1.46608e-10 
142 1 0.0180064 0.0223647 0.00883196 -0.0450958 -0.120242 -0.194155 0 0 -1.43822e-09 5e-05 1.46608e-10 
143 1 0.0154544 0.0201827 0.00715553 -7.58175e-16 2.58188e-14 -2.11472e-13 5.57192e-23 1.78361e-24 2.06795e-25 5e-05 1.46608e-10 
144 1 0.00923123 0.00787531 0.0180634 -0.201867 -0.839579 -0.0154506 0 0 -1.43822e-09 5e-05 1.46608e-10 
146 1 0.0172636 0.0142489 0.0117817 3.45954e-05 -9.27151e-05 0.000270959 0 0 -1.43822e-09 5e-05 1.46608e-10 
147 1 0.0147394 0.0203897 0.00719933 0.00422784 -0.00244751 -0.000691869 -5.27311e-10 9.24085e-11 4.66938e-11 5e-05 1.46608e-10 
148 1 0.034064 0.0169283 0.00823026 -8.44747e-06 -0.0158146 0.0104528 -1.88838e-13 1.13702e-10 -5.42531e-11 5e-05 1.46608e-10 
149 1 0.0212594 0.0193927 0.00684099 4.24241e-15 -2.63637e-14 -1.54285e-13 2.03952e-23 2.27475e-24 2.06795e-25 5e-05 1.46608e-10 
150 1 0.0173527 0.0142443 0.0117365 0.00155684 -0.00113782 0.00204937 -2.34986e-10 -2.98653e-11 3.19826e-10 5e-05 1.46608e-10 
151 1 0.0202019 0.020177 0.024442 0 -0 -0.03 0 0 0 5e-05 1.46608e-10 
152 1 0.01617 0.0189135 0.0255722 0 -0 -0.03 0 0 0 5e-05 1.46608e-10 
153 1 0.0172253 0.0142294 0.011872 -0.00175285 -0.00112321 -0.000458911 0 0 -1.43822e-09 5e-05 1.46608e-10 
154 1 0.0174712 0.019065 0.0157204 -5.70672e-05 0.0224214 -0.0927018 0 0 -1.43822e-09 5e-05 1.46608e-10 
155 1 0.0154545 0.0212038 0.0207826 0 -0 -0.03 0 0 0 5e-05 1.46608e-10 
156 1 0.0173038 0.0232965 0.0208353 0 -0 -0.03 0 0 0 5e-05 1.46608e-10 
157 1 0.0217048 0.0205476 0.0224827 0 -0 -0.03 0 0 0 5e-05 1.46608e-10 
158 1 0.0161578 0.0224653 0.020617 0 -0 -0.03 0 0 0 5e-05 1.46608e-10 
159 1 0.0207793 0.0190833 0.00688067 0.00414846 0.00121142 -9.28623e-05 6.30102e-11 -1.40374e-10 2.66345e-11 5e-05 1.46608e-10 
160 1 0.0184226 0.0209162 0.0274502 0 -0 -0.03 0 0 0 5e-05 1.46608e-10 
161 1 0.0229587 0.0180441 0.0195849 0 -0 -0.03 0 0 0 5e-05 1.46608e-10 
162 1 0.0175423 0.0233519 0.0210642 0 -0 -0.03 0 0 0 5e-05 1.46608e-10 
163 1 0.0203962 0.0195585 0.0162826 1.99017e-09 0.028916 -0.0030986 -2.08846e-19 -2.77381e-12 -2.56124e-11 5e-05 1.46608e-10 
164 1 0.0237336 0.0193386 0.0229318 0 -0 -0.03 0 0 0 5e-05 1.46608e-10 
165 1 0.0192127 0.0207602 0.0229249 0 -0 -0.03 0 0 0 5e-05 1.46608e-10 
166 1 0.0215956 0.0158621 0.0274328 0 -0 -0.03 0 0 0 5e-05 1.46608e-10 
167 1 0.0156831 0.0164901 0.0269161 0 -0 -0.03 0 0 0 5e-05 1.46608e-10 
168 1 0.0196355 0.0238478 0.0115542 -0.00357595 -0.00254488 -0.0202018 2.39859e-10 1.79776e-06 1.31925e-06 5e-05 1.46608e-10 
169 1 0.0202272 0.0221235 0.0191734 0 -0 -0.03 0 0 0 5e-05 1.46608e-10 
170 1 0.0187086 0.0189789 0.019932 0 -0 -0.03 0 0 0 5e-05 1.46608e-10 
171 1 0.0218324 0.0162383 0.0202008 0 -0 -0.03 0 0 0 5e-05 1.46608e-10 
172 1 0.0201391 0.0204827 0.0226787 0 -0 -0.03 0 0 0 5e-05 1.46608e-10 
173 1 0.0209282 0.0179309 0.00708007 2.96247e-15 -1.39088e-14 -8.50386e-14 -1.24917e-23 -5.16988e-26 -4.1359e-25 5e-05 1.46608e-10 
174 1 0.0183074 0.0205554 0.0242047 0 -0 -0.03 0 0 0 5e-05 1.46608e-10 
175 1 0.0176061 0.0170396 0.0274249 0 -0 -0.03 0 0 0 5e-05 1.46608e-10 
176 1 0.0175396 0.0230361 0.0107794 0.0220221 -0.103409 -0.0443543 0 0 -1.43822e-09 5e-05 1.46608e-10 
177 1 0.0210262 0.0208862 0.0194776 0 -0 -0.03 0 0 0 5e-05 1.46608e-10 
178 1 0.0208525 0.0205134 0.0183453 0 0 -0.0509885 0 0 -1.43822e-09 5e-05 1.46608e-10 
179 1 0.0171845 0.0234184 0.0249928 0 -0 -0.03 0 0 0 5e-05 1.46608e-10 
180 1 0.020454 0.0238758 0.0116053 5.40778e-05 -0.00355693 -0.00540115 0 0 -1.43822e-09 5e-05 1.46608e-10 
181 1 0.016032 0.0189085 0.0183235 0 0 -0.0550204 0 0 -1.43822e-09 5e-05 1.46608e-10 
182 1 0.020393 0.0180359 0.00704427 0.00535538 -0.00274303 0.000635107 -4.59826e-12 -2.66911e-11 2.97354e-12 5e-05 1.46608e-10 
183 1 0.0196976 0.0194351 0.0223187 0 -0 -0.03 0 0 0 5e-05 1.46608e-10 
184 1 0.0219911 0.0169287 0.0230778 0 -0 -0.03 0 0 0 5e-05 1.46608e-10 
185 1 0.0188192 0.0230738 0.0124285 -0.0537821 0.0610774 -0.162496 0 0 -1.43822e-09 5e-05 1.46608e-10 
186 1 0.0159667 0.0228051 0.0183363 0 0 -0.0526856 0 0 -1.43822e-09 5e-05 1.46608e-10 
187 1 0.0209993 0.0149057 0.00951054 -0.0163649 0.0609662 -0.196586 0 0 -1.43822e-09 5e-05 1.46608e-10 
188 1 0.0224213 0.0188553 0.00696477 4.24164e-15 -2.63636e-14 -1.54285e-13 -5.64163e-24 1.03398e-25 -2.06795e-25 5e-05 1.46608e-10 
189 1 0.02107 0.0170872 0.0220739 0 -0 -0.03 0 0 0 5e-05 1.46608e-10 
190 1 0.0156072 0.0181684 0.0199657 0 -0 -0.03 0 0 0 5e-05 1.46608e-10 
191 1 0.0235608 0.0190598 0.0159036 6.87866e-06 0.0343439 0.0712592 0 0 -1.43822e-09 5e-05 1.46608e-10 
192 1 0.0187601 0.0212681 0.0210697 0 -0 -0.03 0 0 0 5e-05 1.46608e-10 
193 1 0.0202932 0.0166047 0.00758204 0.00172758 0.11268 -0.0868764 0 0 -1.43822e-09 5e-05 1.46608e-10 
194 1 0.0179506 0.0155736 0.0261168 0 -0 -0.03 0 0 0 5e-05 1.46608e-10 
195 1 0.0213313 0.0181362 0.0187646 0 -0 -0.03 0 0 0 5e-05 1.46608e-10 
196 1 0.0147682 0.0170801 0.0204365 0 -0 -0.03 0 0 0 5e-05 1.46608e-10 
197 1 0.018635 0.0173842 0.0240264 0 -0 -0.03 0 0 0 5e-05 1.46608e-10 
198 1 0.0167767 0.0230522 0.0110784 0.00338904 0.0400826 -0.0308344 0 0 -1.43822e-09 5e-05 1.46608e-10 
199 1 0.019518 0.0198793 0.0154129 1.7328e-06 0.0234565 -0.000770761 0 0 -1.43822e-09 5e-05 1.46608e-10 
200 1 0.0172284 0.0203212 0.00712114 -0.00805575 -0.0445937 0.0322786 0 0 -1.43822e-09 5e-05 1.46608e-10 
201 1 0.0231437 0.0176511 0.0271134 0 -0 -0.03 0 0 0 5e-05 1.46608e-10 
202 1 0.0193886 0.023838 0.0115364 0.000930564 0.000319961 -0.00321882 -3.00765e-07 9.64114e-08 1.22396e-07 5e-05 1.46608e-10 
203 1 0.019886 0.0165115 0.0269262 0 -0 -0.03 0 0 0 5e-05 1.46608e-10 
204 1 0.0183739 0.0233926 0.0108046 -1.69675e-06 -0.0996667 -0.105584 0 0 -1.43822e-09 5e-05 1.46608e-10 
205 1 0.0141608 0.0215363 0.015607 -6.13049e-05 0.0368297 -0.022868 -7.91275e-13 1.49812e-10 -1.59623e-10 5e-05 1.46608e-10 
206 1 0.0188428 0.0223694 0.0243463 0 -0 -0.03 0 0 0 5e-05 1.46608e-10 
207 1 0.0170876 0.015219 0.0211082 0 -0 -0.03 0 0 0 5e-05 1.46608e-10 
208 1 0.0195295 0.0186718 0.0182789 0 0 -0.062476 0 0 -1.43822e-09 5e-05 1.46608e-10 
209 1 0.0162047 0.0182577 0.0194805 0 -0 -0.03 0 0 0 5e-05 1.46608e-10 
210 1 0.0200958 0.0154267 0.0216917 0 -0 -0.03 0 0 0 5e-05 1.46608e-10 
211 1 0.0221567 0.0232234 0.0120046 0.00273051 0.0484023 -0.119553 0 0 -1.43822e-09 5e-05 1.46608e-10 
212 1 0.0208805 0.0222565 0.0254894 0 -0 -0.03 0 0 0 5e-05 1.46608e-10 
213 1 0.022659 0.0158496 0.0178396 0 0 -0.111899 0 0 -1.43822e-09 5e-05 1.46608e-10 
214 1 0.0208878 0.0194092 0.00682795 5.15323e-15 -3.20385e-14 -1.87495e-13 -2.10673e-24 1.39587e-24 -2.06795e-25 5e-05 1.46608e-10 
215 1 0.016672 0.0214482 0.0230042 0 -0 -0.03 0 0 0 5e-05 1.46608e-10 
216 1 0.0195972 0.0204017 0.025531 0 -0 -0.03 0 0 0 5e-05 1.46608e-10 
217 1 0.0203101 0.0180906 0.00703244 0.00537068 -0.00271817 0.000631564 3.78469e-11 1.20048e-10 -1.48911e-11 5e-05 1.46608e-10 
218 1 0.0238348 0.0203469 0.0258133 0 -0 -0.03 0 0 0 5e-05 1.46608e-10 
219 1 0.022736 0.0222134 0.0182086 0 0 -0.0726686 0 0 -1.43822e-09 5e-05 1.46608e-10 
220 1 0.0185279 0.0220241 0.0204475 0 -0 -0.03 0 0 0 5e-05 1.46608e-10 
221 1 0.0148761 0.0215405 0.0156067 -6.13189e-05 0.036831 -0.0228954 -7.91343e-13 1.49809e-10 -1.59643e-10 5e-05 1.46608e-10 
222 1 0.0201763 0.0178669 0.00706436 0.00509578 -0.00257919 0.000598982 1.50391e-10 3.5838e-11 -6.42594e-12 5e-05 1.46608e-10 
223 1 0.0164664 0.0210217 0.0184921 0 -0 -0.03 0 0 0 5e-05 1.46608e-10 
224 1 0.0171796 0.0209509 0.00749235 -0.0186108 -0.0793804 -0.0344683 0 0 -1.43822e-09 5e-05 1.46608e-10 
225 1 0.0234485 0.0170682 0.0254068 0 -0 -0.03 0 0 0 5e-05 1.46608e-10 
226 1 0.0198378 0.0226428 0.0247003 0 -0 -0.03 0 0 0 5e-05 1.46608e-10 
