ITEM: TIMESTEP
31000000
ITEM: NUMBER OF ATOMS
212
ITEM: BOX BOUNDS ff ff ff
-0.02 0.43
-0.02 0.06
-0.02 0.07
ITEM: ATOMS id type x y z vx vy vz fx fy fz radius mass 
1 1 0.19419 0.0177919 0.00700877 0.00580525 -0.000313614 -1.78176e-05 -7.66365e-11 1.75964e-10 -1.16369e-10 5e-05 1.46608e-10 
2 1 0.19381 0.0176722 0.00705391 0.00568046 -0.000114746 -7.23336e-05 1.15917e-10 3.75054e-10 -9.25745e-11 5e-05 1.46608e-10 
3 1 0.181949 0.0183209 0.00698903 0.00616097 -0.000137136 -0.000323112 4.12785e-11 1.59021e-10 -3.51638e-11 5e-05 1.46608e-10 
4 1 0.193578 0.0163 0.00789967 0.00541962 0.000130309 3.03368e-05 5.46895e-10 -6.13227e-11 -1.74737e-11 5e-05 1.46608e-10 
5 1 0.193961 0.0175458 0.00709071 0.00571956 -6.7037e-05 -1.78436e-05 1.37522e-10 1.5343e-10 -3.4319e-11 5e-05 1.46608e-10 
6 1 0.199635 0.0168983 0.00750391 0.00554805 0.000501091 -8.25167e-05 6.05997e-13 -5.1084e-12 4.22437e-12 5e-05 1.46608e-10 
7 1 0.193357 0.0158293 0.00829692 0.00601496 -0.000127592 0.000265622 -2.91882e-10 -6.9184e-10 5.90809e-10 5e-05 1.46608e-10 
8 1 0.193442 0.0161301 0.00804763 0.00590363 -4.90693e-05 0.00018922 -5.7823e-10 -1.05552e-10 -9.58931e-11 5e-05 1.46608e-10 
9 1 0.199827 0.0177435 0.0070053 0.00581937 0.00052814 5.42697e-05 8.51035e-11 1.44019e-11 3.6829e-11 5e-05 1.46608e-10 
10 1 0.193378 0.0159038 0.00823371 0.00599264 -0.000152491 0.000284925 -1.83852e-10 -9.35252e-10 7.78093e-10 5e-05 1.46608e-10 
11 1 0.1934 0.0159781 0.00817061 0.00602937 -0.00016825 0.000299752 5.46775e-11 -2.24976e-10 2.03036e-10 5e-05 1.46608e-10 
13 1 0.193751 0.0173919 0.00714321 0.0056737 -0.000169589 -5.88756e-05 3.92043e-12 -5.27789e-11 1.47068e-11 5e-05 1.46608e-10 
15 1 0.19383 0.0176445 0.00714781 0.00571545 -0.000114355 -6.74991e-05 1.94417e-10 -4.76686e-11 -1.32381e-10 5e-05 1.46608e-10 
17 1 0.193768 0.0170668 0.0072985 0.00566269 0.000121692 0.000188455 -5.19647e-10 1.95165e-10 -2.9782e-10 5e-05 1.46608e-10 
18 1 0.199866 0.0179355 0.00696568 0.0057931 0.000484645 -0.000155295 -1.16439e-11 1.57783e-11 -6.82285e-12 5e-05 1.46608e-10 
19 1 0.193206 0.0153081 0.00873913 0.00622022 -0.000144342 0.00028696 2.67555e-10 1.81323e-10 4.40077e-11 5e-05 1.46608e-10 
20 1 0.194027 0.0182686 0.00688855 0.00629241 -0.000137185 7.73537e-05 3.8135e-12 1.10912e-10 1.487e-11 5e-05 1.46608e-10 
21 1 0.193227 0.0153826 0.00867595 0.00619867 -0.00014979 0.000283256 -4.79896e-12 9.64795e-11 -1.15042e-10 5e-05 1.46608e-10 
22 1 0.194075 0.0176688 0.00704972 0.00573827 -0.000228407 -4.33619e-05 -2.09824e-10 1.26489e-10 -7.37816e-11 5e-05 1.46608e-10 
23 1 0.18781 0.0176656 0.00704108 0.00564616 -0.000202263 7.68335e-05 -1.84492e-13 -1.98828e-10 -7.71673e-11 5e-05 1.46608e-10 
24 1 0.199808 0.0176583 0.00705405 0.00580504 0.000527669 5.27481e-05 -1.87571e-10 -6.65163e-11 3.78719e-11 5e-05 1.46608e-10 
25 1 0.193807 0.0172444 0.00721499 0.00568982 9.63217e-05 0.000228225 2.93236e-10 -2.85367e-11 -9.87139e-11 5e-05 1.46608e-10 
26 1 0.199711 0.0172344 0.00730095 0.00564232 0.000490749 -7.22253e-05 -2.82448e-11 -9.60702e-12 5.91004e-12 5e-05 1.46608e-10 
28 1 0.194004 0.0181699 0.00689363 0.00625345 -0.000405939 -8.43631e-06 1.29581e-09 -2.14814e-09 3.98686e-10 5e-05 1.46608e-10 
29 1 0.193732 0.0168972 0.00739592 0.00559926 0.000120184 0.000154907 -3.87763e-10 1.09875e-10 -2.20249e-10 5e-05 1.46608e-10 
30 1 0.193771 0.0174853 0.00711345 0.00570035 -6.19232e-05 -0.00012778 -5.42149e-11 1.94833e-10 -1.83761e-10 5e-05 1.46608e-10 
31 1 0.193421 0.0160527 0.00810736 0.00606084 -0.000131359 0.000269783 2.71808e-10 3.09174e-10 -2.22845e-10 5e-05 1.46608e-10 
32 1 0.193713 0.0168117 0.00744406 0.00566627 3.39057e-05 3.91595e-05 -2.37007e-10 -5.2562e-11 -2.56363e-10 5e-05 1.46608e-10 
33 1 0.199654 0.0169823 0.00745317 0.0055708 0.000498359 -7.99161e-05 -3.68197e-12 -8.81502e-12 4.69299e-12 5e-05 1.46608e-10 
34 1 0.193634 0.0168572 0.00738922 0.00562089 0.000120741 0.000212408 2.12493e-11 1.28858e-10 -6.28827e-11 5e-05 1.46608e-10 
36 1 0.199847 0.0178389 0.00698278 0.00581018 0.000480499 -0.000153937 4.13903e-11 3.1296e-11 -1.36913e-11 5e-05 1.46608e-10 
37 1 0.193558 0.0162253 0.0079632 0.00568065 0.000107121 5.44879e-05 2.43066e-10 2.76292e-10 -7.16402e-11 5e-05 1.46608e-10 
38 1 0.193941 0.0174532 0.007123 0.00573333 2.79812e-05 0.000262475 1.8564e-10 1.45603e-10 -2.78782e-11 5e-05 1.46608e-10 
39 1 0.199788 0.0175732 0.00710279 0.00577314 0.000528935 4.98878e-05 9.96553e-11 -6.40744e-12 7.54957e-11 5e-05 1.46608e-10 
41 1 0.19327 0.0155315 0.00854959 0.00614566 -0.000166367 0.000301099 7.66759e-11 3.47269e-10 -3.00134e-10 5e-05 1.46608e-10 
42 1 0.193921 0.0173638 0.00716418 0.00565645 -4.54276e-05 0.000298903 -6.28429e-11 1.60338e-10 6.36571e-12 5e-05 1.46608e-10 
44 1 0.193849 0.0178592 0.00699437 0.00565879 -0.000107423 -7.80504e-05 -3.81815e-11 1.11044e-10 -4.04131e-11 5e-05 1.46608e-10 
45 1 0.199692 0.0171504 0.00735169 0.00561357 0.000492286 -7.48754e-05 1.96491e-11 -4.36656e-11 2.19027e-11 5e-05 1.46608e-10 
47 1 0.193314 0.0156804 0.00842327 0.0061435 -0.000153221 0.000289176 -9.03062e-12 2.13817e-10 -2.00895e-10 5e-05 1.46608e-10 
49 1 0.199731 0.0173184 0.00725022 0.00569971 0.000481126 -6.50726e-05 4.11639e-11 -9.63476e-12 -3.20078e-11 5e-05 1.46608e-10 
50 1 0.194145 0.0183973 0.00688781 0.00617982 -0.000281827 8.06178e-05 -5.03741e-10 -1.26756e-10 -2.08236e-11 5e-05 1.46608e-10 
51 1 0.187996 0.0185308 0.00689065 0.00623174 -0.000279318 -8.06829e-05 2.35163e-11 4.67473e-11 -6.71517e-12 5e-05 1.46608e-10 
52 1 0.194049 0.0183662 0.00688716 0.00631564 -0.000136476 8.15562e-05 -1.88182e-10 7.08925e-11 -6.2569e-12 5e-05 1.46608e-10 
53 1 0.19975 0.0174029 0.00720027 0.00572527 0.00054081 4.37597e-05 -1.15036e-10 -1.30281e-11 -1.6127e-11 5e-05 1.46608e-10 
54 1 0.194101 0.0182014 0.0068906 0.00630515 -0.000155546 8.33173e-05 2.82196e-10 3.05278e-10 5.06024e-11 5e-05 1.46608e-10 
55 1 0.18777 0.0174897 0.0071273 0.00563789 -0.000202276 8.35237e-05 8.38072e-12 -1.71856e-10 -1.01466e-11 5e-05 1.46608e-10 
56 1 0.194 0.0177326 0.00703116 0.00566039 -8.20811e-05 -9.17904e-05 2.72885e-10 -6.61721e-12 2.04843e-11 5e-05 1.46608e-10 
57 1 0.199673 0.0170664 0.00740243 0.00559517 0.000495666 -7.72836e-05 1.58686e-11 -8.06335e-12 1.48385e-11 5e-05 1.46608e-10 
59 1 0.193787 0.0171556 0.00725674 0.00569394 9.98323e-05 0.000195274 -1.27035e-10 6.42266e-11 -2.98448e-10 5e-05 1.46608e-10 
60 1 0.194197 0.0182326 0.00689126 0.00625241 -0.000270571 8.44328e-05 -6.01683e-10 -9.71046e-11 -8.97654e-11 5e-05 1.46608e-10 
61 1 0.193292 0.015606 0.00848642 0.00615396 -0.00016351 0.000298368 4.00105e-11 3.68421e-10 -3.29601e-10 5e-05 1.46608e-10 
62 1 0.19379 0.0175788 0.00708367 0.00568813 -9.80449e-05 -8.49027e-05 -5.07998e-11 1.13829e-11 1.55807e-11 5e-05 1.46608e-10 
63 1 0.193502 0.0163511 0.00785396 0.00575363 2.6077e-05 0.000138953 -2.54583e-10 3.03736e-10 -8.4877e-10 5e-05 1.46608e-10 
64 1 0.199769 0.017488 0.00715153 0.0057583 0.000534938 4.7719e-05 1.08074e-10 7.28812e-11 2.6525e-11 5e-05 1.46608e-10 
65 1 0.187436 0.0160793 0.00801484 0.00569383 -6.35381e-05 0.000287695 -1.15658e-11 9.46388e-11 -5.80958e-11 5e-05 1.46608e-10 
66 1 0.187353 0.0157487 0.00822451 0.00566032 -4.46853e-05 0.000266899 -2.52639e-11 -6.97208e-11 2.7448e-11 5e-05 1.46608e-10 
67 1 0.193951 0.0183335 0.00688651 0.00628585 -0.000113982 7.68305e-05 2.20634e-11 1.44926e-10 9.59214e-12 5e-05 1.46608e-10 
69 1 0.194095 0.0177622 0.00701997 0.00579251 -0.000239112 -4.18762e-05 -1.72701e-10 1.26631e-10 -6.10626e-12 5e-05 1.46608e-10 
70 1 0.19407 0.0184638 0.00688577 0.00631151 -0.000150647 7.97934e-05 -2.34613e-10 5.34421e-11 3.83588e-13 5e-05 1.46608e-10 
72 1 0.193619 0.0164447 0.00776791 0.00539058 -0.000256075 -0.000387684 -3.73739e-10 -3.52483e-10 1.54071e-10 5e-05 1.46608e-10 
73 1 0.193541 0.0164941 0.00771981 0.00551629 -0.000173602 -0.000146581 -1.81238e-10 -5.14068e-10 3.59261e-10 5e-05 1.46608e-10 
74 1 0.193973 0.0184311 0.00688512 0.00628252 -0.000113236 7.83752e-05 -2.09557e-10 -1.74671e-10 3.3299e-12 5e-05 1.46608e-10 
76 1 0.145405 0.0205718 0.00539992 7.44598e-15 9.10689e-15 -2.35015e-13 1.04574e-22 -6.89145e-23 4.1359e-25 5e-05 1.46608e-10 
77 1 0.193929 0.0182357 0.0068879 0.00626076 -0.000357734 8.01825e-05 1.49542e-09 2.12159e-10 9.53859e-12 5e-05 1.46608e-10 
78 1 0.188028 0.0182722 0.00692906 0.00621449 -0.000271561 -8.13089e-05 1.81444e-11 3.86674e-11 -1.01915e-11 5e-05 1.46608e-10 
80 1 0.193994 0.0185288 0.00688373 0.0062651 -0.00020481 7.99285e-05 1.82472e-11 3.5974e-10 -3.96014e-13 5e-05 1.46608e-10 
81 1 0.187616 0.0168237 0.00754254 0.00542462 -3.93326e-05 0.000260674 -1.93987e-10 -1.80926e-10 8.73269e-11 5e-05 1.46608e-10 
82 1 0.187538 0.0164925 0.00775273 0.00558984 -5.39571e-05 0.000276547 -3.13341e-11 -9.99728e-12 -4.6571e-12 5e-05 1.46608e-10 
84 1 0.199886 0.0180321 0.00694858 0.00577183 0.000487991 -0.000155041 -7.43736e-12 -3.97183e-12 -5.91082e-12 5e-05 1.46608e-10 
85 1 0.193249 0.0154571 0.00861277 0.00617817 -0.000158997 0.000296571 3.49788e-11 2.31348e-10 -2.23803e-10 5e-05 1.46608e-10 
86 1 0.194176 0.0181355 0.00690104 0.00619291 -0.000306812 -0.000246075 -3.22023e-10 -1.58059e-10 -1.12278e-09 5e-05 1.46608e-10 
87 1 0.193693 0.0171245 0.00726607 0.00566954 0.000237609 0.000158975 1.12571e-10 1.19003e-10 -3.92028e-11 5e-05 1.46608e-10 
88 1 0.194123 0.0182992 0.00688921 0.00629322 -0.000198451 8.06278e-05 -5.01116e-10 -2.31722e-11 2.7917e-11 5e-05 1.46608e-10 
90 1 0.194135 0.0179489 0.00696049 0.00603299 -0.000251861 -4.82118e-05 -6.68558e-11 4.98887e-11 -2.51411e-10 5e-05 1.46608e-10 
91 1 0.193654 0.0169463 0.00734817 0.00562597 0.000118981 0.000212192 7.30231e-11 2.00965e-10 -9.12459e-11 5e-05 1.46608e-10 
92 1 0.193964 0.017983 0.00695318 0.0056784 -0.0001252 -7.32865e-05 -1.00859e-12 5.68181e-11 -7.48865e-12 5e-05 1.46608e-10 
93 1 0.199905 0.0181287 0.00693147 0.00575655 0.000491774 -0.000155577 8.38973e-12 1.66264e-11 -1.01694e-12 5e-05 1.46608e-10 
94 1 0.194115 0.0178556 0.00699023 0.00588761 -0.000241668 -4.28535e-05 -3.02664e-10 8.69388e-11 -8.67913e-11 5e-05 1.46608e-10 
95 1 0.19356 0.016565 0.00765158 0.00556239 -0.000208033 -0.000112014 -5.88853e-11 3.0978e-11 -2.46238e-11 5e-05 1.46608e-10 
96 1 0.193578 0.0166358 0.00758343 0.00562301 -0.000203027 -0.000119028 7.13381e-11 -2.98109e-11 1.47959e-11 5e-05 1.46608e-10 
98 1 0.19421 0.0178852 0.00697903 0.00591256 -0.000358534 -2.9411e-06 3.18095e-10 3.77944e-11 -1.61948e-11 5e-05 1.46608e-10 
99 1 0.187979 0.0176311 0.0070441 0.00561912 -0.000316215 3.08513e-05 1.07307e-10 -2.70241e-12 -2.16669e-10 5e-05 1.46608e-10 
101 1 0.187674 0.0170725 0.00738516 0.00552793 -7.48861e-05 0.000287841 -1.12836e-10 1.99282e-11 -3.27762e-11 5e-05 1.46608e-10 
102 1 0.0694385 0.0202053 0.00537268 4.00352e-15 4.39818e-15 -7.68282e-14 -6.05742e-22 -7.54544e-23 -3.28804e-23 5e-05 1.46608e-10 
104 1 0.0249839 0.0195037 0.00542543 -3.58892e-15 -5.78434e-16 5.85127e-14 -1.80946e-25 -1.13899e-24 0 5e-05 1.46608e-10 
106 1 0.181884 0.0180314 0.00703354 0.0061042 -0.00013851 -0.000316043 5.66385e-11 -6.13031e-10 1.22483e-10 5e-05 1.46608e-10 
107 1 0.187518 0.0164099 0.00780518 0.00573724 -7.47351e-05 0.000297071 8.58607e-11 7.53738e-11 -3.91307e-11 5e-05 1.46608e-10 
108 1 0.193693 0.0167296 0.00749739 0.00563283 -4.59601e-05 -9.19065e-05 1.82303e-10 -1.46555e-10 -3.06219e-12 5e-05 1.46608e-10 
110 1 0.194271 0.018165 0.00689331 0.0062317 -0.000284527 8.57876e-05 -3.41247e-10 -4.98774e-11 6.16312e-11 5e-05 1.46608e-10 
111 1 0.187693 0.0171551 0.00733214 0.00556197 -8.09674e-05 0.000293814 9.85605e-11 6.57344e-12 2.58876e-11 5e-05 1.46608e-10 
112 1 0.187456 0.0161619 0.00796243 0.00570275 -6.49952e-05 0.000288901 1.89893e-11 1.03755e-10 -6.69884e-11 5e-05 1.46608e-10 
115 1 0.193615 0.0167777 0.00744685 0.0044154 4.03163e-05 -0.000285744 -1.94484e-10 1.21054e-10 -1.02922e-10 5e-05 1.46608e-10 
116 1 0.194219 0.0183302 0.00688987 0.00621327 -0.000250678 8.07257e-05 -5.66529e-10 -2.5146e-10 2.24899e-11 5e-05 1.46608e-10 
117 1 0.194155 0.0180422 0.0069308 0.00621678 -0.000258225 -3.36441e-05 1.50916e-11 2.48383e-10 1.28592e-10 5e-05 1.46608e-10 
118 1 0.187598 0.016741 0.00759563 0.00537077 -2.43401e-05 0.000247798 -8.48159e-11 -8.22114e-11 1.04167e-11 5e-05 1.46608e-10 
119 1 0.194016 0.0186264 0.00688234 0.00623045 -0.000229725 8.08139e-05 1.76416e-12 -7.61625e-11 -9.40667e-12 5e-05 1.46608e-10 
120 1 0.193184 0.0152597 0.008824 0.00620325 -0.000220879 0.000243086 6.98711e-10 5.21695e-11 3.31688e-10 5e-05 1.46608e-10 
121 1 0.19423 0.0179785 0.0069493 0.00608276 -0.000409492 7.42118e-06 -1.15905e-11 2.60557e-11 -5.94285e-11 5e-05 1.46608e-10 
122 1 0.19406 0.0180127 0.00694197 0.00600755 -0.000148625 -7.85607e-05 -6.25902e-11 2.44359e-10 -6.83532e-11 5e-05 1.46608e-10 
124 1 0.193889 0.018046 0.00693485 0.00565364 -0.000140047 -6.80268e-05 7.30485e-11 1.13094e-10 -3.48617e-11 5e-05 1.46608e-10 
125 1 0.193598 0.0163734 0.00783474 0.0052206 2.05851e-05 -0.00014708 2.11626e-10 -3.28495e-10 8.26252e-11 5e-05 1.46608e-10 
126 1 0.193482 0.0162764 0.00791737 0.00552673 7.83178e-05 8.10887e-05 9.92376e-10 9.56562e-10 -5.94943e-10 5e-05 1.46608e-10 
127 1 0.18794 0.0174615 0.00714523 0.00560968 -7.22911e-05 0.000286003 9.0244e-12 -8.24735e-11 -2.54856e-11 5e-05 1.46608e-10 
128 1 0.193905 0.0177027 0.00704245 0.00566994 -0.000112271 -8.04582e-05 1.61111e-11 2.12255e-10 -1.06407e-10 5e-05 1.46608e-10 
129 1 0.187867 0.0179513 0.00698065 0.00565069 -0.000197471 -9.14008e-05 -1.79741e-10 1.8461e-10 2.33536e-10 5e-05 1.46608e-10 
131 1 0.18779 0.0175762 0.00708108 0.00564079 -0.000228825 3.52352e-05 -1.08162e-10 -2.44446e-10 4.26743e-11 5e-05 1.46608e-10 
132 1 0.193673 0.0170354 0.00730717 0.00565368 0.000207976 0.000156741 -6.61017e-11 8.9597e-11 -1.05069e-10 5e-05 1.46608e-10 
133 1 0.194167 0.0184949 0.00688642 0.00620534 -0.000277253 8.12823e-05 -4.15128e-10 -3.05632e-11 -3.81978e-12 5e-05 1.46608e-10 
134 1 0.193925 0.0177961 0.00701269 0.00565311 -0.000105871 -7.83016e-05 -1.78643e-10 1.8961e-10 -5.94796e-11 5e-05 1.46608e-10 
135 1 0.193522 0.0164238 0.00778825 0.00565173 -0.000134332 -5.81673e-05 -6.79105e-11 -6.73209e-10 -3.15082e-10 5e-05 1.46608e-10 
136 1 0.187846 0.0174326 0.00715975 0.00562264 -0.000110972 0.000314982 6.10473e-11 9.3853e-11 -1.63672e-10 5e-05 1.46608e-10 
137 1 0.193944 0.0178895 0.00698294 0.00565705 -0.000101588 -8.0423e-05 -2.08462e-10 6.53121e-11 -1.77209e-11 5e-05 1.46608e-10 
138 1 0.193597 0.0167066 0.00751529 0.00566388 -0.000203188 -0.000120193 5.05204e-11 1.43618e-11 2.06825e-11 5e-05 1.46608e-10 
140 1 0.193869 0.0179526 0.00696461 0.00567143 -7.24692e-05 -8.96952e-05 -8.06771e-11 8.25643e-11 -2.2789e-11 5e-05 1.46608e-10 
141 1 0.187497 0.0163272 0.00785759 0.00572283 -6.85764e-05 0.000292264 -1.19367e-10 9.42044e-12 -7.21273e-12 5e-05 1.46608e-10 
143 1 0.393994 0.0150325 6.48596e-05 -2.1271e-21 1.6267e-21 -1.45327e-21 0 0 0 5e-05 1.46608e-10 
146 1 0.187999 0.0177231 0.00701029 0.00563052 -0.000288893 0.000132452 9.70408e-11 -4.07946e-11 -1.66883e-10 5e-05 1.46608e-10 
147 1 0.187848 0.0178543 0.00699517 0.00564751 -0.000163919 0.000121105 6.18127e-11 9.64623e-11 -2.83945e-10 5e-05 1.46608e-10 
148 1 0.00864085 0.0172665 0.00803792 -8.60722e-10 -0.0214028 0.0110152 5.61748e-19 9.96706e-12 1.94116e-11 5e-05 1.46608e-10 
149 1 0.193826 0.0173339 0.007175 0.00567839 8.59003e-05 0.000251213 2.6301e-10 2.1371e-10 -8.34325e-12 5e-05 1.46608e-10 
150 1 0.187335 0.0156889 0.0083025 0.00567805 -0.000153841 0.000168124 -2.46348e-11 -4.00965e-11 4.29792e-11 5e-05 1.46608e-10 
151 1 0.187984 0.0180792 0.00695903 0.00616003 -0.000271439 -7.93755e-05 2.48804e-10 -4.11781e-11 3.30255e-11 5e-05 1.46608e-10 
154 1 0.187865 0.0175171 0.00710979 0.00564239 -0.000228932 7.75974e-06 -5.08359e-11 -1.18656e-10 8.77223e-11 5e-05 1.46608e-10 
155 1 0.181971 0.0184174 0.00697419 0.0061371 -0.000284894 -0.000300373 -5.09089e-11 -2.317e-10 3.53875e-11 5e-05 1.46608e-10 
157 1 0.187732 0.0173207 0.00722702 0.00559728 -7.85213e-05 0.000295867 1.9623e-11 5.34013e-14 -1.35148e-11 5e-05 1.46608e-10 
165 1 0.188006 0.0181757 0.00694405 0.00622684 -0.000276753 -8.1526e-05 1.79498e-12 5.93043e-11 -1.09062e-11 5e-05 1.46608e-10 
166 1 0.193538 0.0161507 0.00802646 0.00586152 9.9003e-05 7.69358e-05 2.82042e-10 -2.67357e-10 1.2992e-10 5e-05 1.46608e-10 
168 1 0.250715 0.0173547 0.00798836 9.06664e-07 -0.0212592 0.010269 6.80076e-14 4.25347e-11 9.19846e-13 5e-05 1.46608e-10 
171 1 0.193462 0.0162018 0.00798078 0.00573994 8.63251e-05 8.49936e-05 -1.52189e-09 -4.8763e-10 -1.94014e-10 5e-05 1.46608e-10 
172 1 0.187885 0.0176027 0.007062 0.00561185 -0.000238496 1.72781e-05 1.62926e-10 1.00285e-10 2.94781e-10 5e-05 1.46608e-10 
176 1 0.187415 0.0159966 0.00806731 0.00567862 -6.11361e-05 0.000285473 -2.87742e-12 8.27194e-11 -5.54465e-11 5e-05 1.46608e-10 
177 1 0.187477 0.0162446 0.00791002 0.00570229 -6.37786e-05 0.000287848 3.47708e-12 5.04089e-11 -3.03453e-11 5e-05 1.46608e-10 
179 1 0.181862 0.017935 0.00704838 0.00614253 -0.00012122 -0.00032405 2.05098e-10 8.6371e-12 -1.47376e-10 5e-05 1.46608e-10 
181 1 0.187395 0.015914 0.00811968 0.00567419 -5.99151e-05 0.000284628 1.9264e-11 2.86695e-11 -1.731e-11 5e-05 1.46608e-10 
182 1 0.193674 0.0166543 0.00756057 0.00557149 -0.000120349 -0.000198536 5.93278e-10 -2.5607e-10 2.44926e-10 5e-05 1.46608e-10 
184 1 0.19383 0.0177657 0.00702414 0.00565587 -0.00014785 -6.60434e-05 -1.32783e-10 -2.02036e-10 6.3382e-11 5e-05 1.46608e-10 
187 1 0.193846 0.0174239 0.00713626 0.00571462 2.62283e-05 0.000182583 8.53742e-11 2.90853e-10 -8.18623e-11 5e-05 1.46608e-10 
188 1 0.194081 0.018106 0.00691252 0.00624146 -0.000177578 1.21577e-05 -8.7018e-11 2.72695e-10 -5.64931e-12 5e-05 1.46608e-10 
189 1 0.19398 0.0176392 0.00706092 0.00568692 -7.8866e-05 -7.5656e-05 -9.27515e-11 1.05622e-10 -3.52934e-11 5e-05 1.46608e-10 
191 1 0.193712 0.0172136 0.00722502 0.00566565 0.000237995 0.000155841 -1.78834e-10 -1.28073e-10 5.80874e-11 5e-05 1.46608e-10 
192 1 0.184758 0.0177032 0.00708023 0.00615246 0.00205524 -0.00128133 -1.10477e-13 7.04961e-13 -3.84318e-13 5e-05 1.46608e-10 
193 1 0.196688 0.0173902 0.0072384 0.00613405 0.00216544 -0.00134511 4.77808e-13 6.51414e-13 -3.62905e-13 5e-05 1.46608e-10 
197 1 0.187315 0.015644 0.00838954 0.00619396 -0.000324402 0.000181627 -8.10924e-12 -7.8436e-12 5.26937e-11 5e-05 1.46608e-10 
198 1 0.187924 0.0177887 0.00700273 0.00569105 -0.000203977 0.000142285 3.10607e-10 4.99488e-11 -9.11496e-11 5e-05 1.46608e-10 
200 1 0.187974 0.0184344 0.00690563 0.00622048 -0.000277926 -8.07008e-05 -1.24885e-11 4.11143e-11 -7.19033e-12 5e-05 1.46608e-10 
201 1 0.187888 0.018048 0.00696565 0.00616716 -0.000292223 -7.51104e-05 1.22505e-10 2.68133e-11 2.30601e-11 5e-05 1.46608e-10 
203 1 0.193732 0.0173027 0.00718397 0.00565737 8.31142e-05 0.000228682 -2.60673e-11 -3.26628e-10 1.23577e-10 5e-05 1.46608e-10 
204 1 0.181841 0.0178385 0.00706322 0.00613927 -8.46949e-05 -0.000338423 -6.28789e-10 4.94183e-10 -1.46546e-10 5e-05 1.46608e-10 
206 1 0.181906 0.0181279 0.0070187 0.00614306 -0.000141054 -0.000321965 -2.83804e-10 1.60231e-10 2.5951e-11 5e-05 1.46608e-10 
207 1 0.060646 0.0186723 0.00546139 1.16214e-15 5.18608e-15 3.71388e-14 -8.76294e-24 2.3006e-24 -2.06795e-25 5e-05 1.46608e-10 
208 1 0.187829 0.0177565 0.00700403 0.0056659 -0.000184019 0.000115833 9.39776e-11 -1.21555e-10 -3.44831e-11 5e-05 1.46608e-10 
209 1 0.181665 0.0170098 0.00733685 0.00564219 0.000222947 0.000107381 -5.67366e-11 -5.37508e-11 -1.84253e-12 5e-05 1.46608e-10 
210 1 0.19402 0.0178261 0.0070014 0.0056615 -7.57813e-05 -9.00168e-05 5.08038e-10 -1.2342e-12 -5.46115e-11 5e-05 1.46608e-10 
211 1 0.187953 0.0183379 0.00692062 0.00620684 -0.000277285 -8.0507e-05 5.27882e-11 6.99304e-11 -1.01932e-11 5e-05 1.46608e-10 
212 1 0.187635 0.0169066 0.00748994 0.00545928 -4.79842e-05 0.000271022 -8.67991e-11 -1.10828e-10 8.11748e-11 5e-05 1.46608e-10 
213 1 0.193886 0.0176092 0.00707221 0.00569408 -0.000108213 -7.97796e-05 1.15976e-10 2.72254e-10 -1.13769e-10 5e-05 1.46608e-10 
214 1 0.194038 0.018724 0.00688095 0.00620557 -0.000371981 8.27822e-05 1.00873e-10 2.40912e-10 3.14741e-12 5e-05 1.46608e-10 
217 1 0.193637 0.0165161 0.00770025 0.0054858 -0.000217729 -0.0003162 -2.69825e-10 -3.19915e-10 3.5178e-10 5e-05 1.46608e-10 
218 1 0.194092 0.0185615 0.00688438 0.00622279 -0.000243855 8.06518e-05 -6.69726e-11 3.69732e-10 -2.44193e-12 5e-05 1.46608e-10 
221 1 0.181608 0.0167621 0.00749191 0.00543632 -7.24344e-05 -0.000432297 -9.70425e-10 3.91915e-10 4.4241e-10 5e-05 1.46608e-10 
222 1 0.193335 0.0157549 0.00836006 0.00611678 -0.000138525 0.000276657 -1.65161e-10 -1.08489e-10 1.01576e-10 5e-05 1.46608e-10 
223 1 0.202858 0.0181613 0.00690391 0.00546337 -0.00118023 0.000337694 -6.41201e-13 1.42405e-13 -4.69478e-14 5e-05 1.46608e-10 
225 1 0.193866 0.0175161 0.00710273 0.00571546 -5.66604e-05 2.7997e-05 1.73023e-10 3.28743e-10 -1.28107e-11 5e-05 1.46608e-10 
226 1 0.187751 0.0174047 0.0071764 0.00562494 -0.000115898 0.000235633 1.92315e-10 -9.58685e-11 -4.57646e-11 5e-05 1.46608e-10 
228 1 0.0507861 0.0189683 0.00558458 -5.32114e-15 -1.91178e-14 -2.87013e-13 1.84303e-22 7.67727e-24 -4.75629e-24 5e-05 1.46608e-10 
231 1 0.197479 0.018695 0.00523156 -1.09519e-15 -2.69835e-14 1.45243e-13 9.03598e-24 3.46382e-24 6.20385e-25 5e-05 1.46608e-10 
232 1 0.189081 0.0184947 0.00541361 -2.1609e-15 1.31203e-15 5.80687e-14 -6.30596e-23 -6.08365e-23 -1.24077e-24 5e-05 1.46608e-10 
234 1 0.19404 0.0179194 0.00697166 0.00575648 -9.36451e-05 -8.83648e-05 3.67001e-10 1.26116e-10 -3.52017e-11 5e-05 1.46608e-10 
235 1 0.194679 0.0184196 0.00544868 1.51337e-14 9.62678e-14 2.34552e-13 -1.04262e-21 1.69572e-22 -2.68834e-24 5e-05 1.46608e-10 
238 1 0.181685 0.0170975 0.00729299 0.00567519 0.000206342 0.000115136 2.29234e-11 -5.10125e-10 1.85224e-10 5e-05 1.46608e-10 
239 1 0.181514 0.0163976 0.00782104 0.00579976 1.41029e-05 -0.000316378 2.45962e-10 1.58098e-09 -1.39383e-09 5e-05 1.46608e-10 
240 1 0.181589 0.0166891 0.00755777 0.00530293 6.78117e-05 -0.000354396 5.88467e-11 -5.23904e-10 4.33166e-10 5e-05 1.46608e-10 
241 1 0.181533 0.0164705 0.00775524 0.00561302 6.41778e-05 -0.000354566 -9.44902e-10 1.98379e-10 -8.34584e-12 5e-05 1.46608e-10 
242 1 0.181992 0.0185139 0.00695935 0.00615433 -0.000254639 -0.000305611 -5.23939e-11 -2.35658e-10 3.6145e-11 5e-05 1.46608e-10 
243 1 0.181494 0.016325 0.00788675 0.00582813 0.000118631 -0.000415627 -7.52467e-11 -8.83186e-10 8.13383e-10 5e-05 1.46608e-10 
244 1 0.181552 0.0165433 0.00768943 0.00570467 0.000139565 -0.000405286 1.2363e-10 1.14736e-09 -9.89158e-10 5e-05 1.46608e-10 
245 1 0.181704 0.0171852 0.00724912 0.00568722 0.000177745 0.000133135 -9.9815e-11 -4.17239e-10 2.45934e-10 5e-05 1.46608e-10 
246 1 0.181626 0.0168351 0.00742619 0.00560723 3.21618e-05 -0.000247319 -1.32908e-10 1.80191e-10 -6.80654e-11 5e-05 1.46608e-10 
248 1 0.187374 0.0158313 0.00817209 0.00566704 -5.23376e-05 0.000280001 3.15872e-11 -4.23463e-11 2.11368e-11 5e-05 1.46608e-10 
249 1 0.181743 0.0173606 0.00716141 0.00576871 0.000192128 0.000141258 8.18497e-11 2.92005e-10 -7.3803e-10 5e-05 1.46608e-10 
250 1 0.188005 0.0192185 0.0156672 0.00413369 0.00704148 -0.000276842 4.99362e-14 2.77479e-13 -3.05635e-14 5e-05 1.46608e-10 
251 1 0.193748 0.0169772 0.00733812 0.00562029 0.00015214 0.000194972 -2.56721e-10 2.2579e-10 -1.10329e-10 5e-05 1.46608e-10 
252 1 0.181724 0.0172729 0.00720527 0.00571508 0.000171892 0.00014569 -4.5696e-11 2.54508e-10 4.50412e-12 5e-05 1.46608e-10 
254 1 0.191533 0.0178835 0.00777852 0.0456204 0.0430338 -0.0106231 4.11766e-10 -1.44306e-10 -6.57329e-11 5e-05 1.46608e-10 
255 1 0.187712 0.0172395 0.00728218 0.00557472 -8.05148e-05 0.000294917 5.89905e-11 2.3839e-11 2.85481e-11 5e-05 1.46608e-10 
256 1 0.196552 0.0175013 0.00792272 -2.802e-10 -0.0221007 0.00959396 -1.45758e-18 8.70596e-12 2.00313e-11 5e-05 1.46608e-10 
257 1 0.187904 0.0176909 0.00701276 0.0056129 -0.000262479 1.03561e-05 1.93644e-10 -2.44977e-10 6.08777e-11 5e-05 1.46608e-10 
258 1 0.188018 0.0178203 0.00699752 0.00573094 -0.000318934 3.15902e-05 -1.14864e-10 9.22498e-11 5.31957e-11 5e-05 1.46608e-10 
259 1 0.181763 0.0174506 0.00712237 0.00573989 2.42348e-05 -0.000225089 4.45373e-10 -3.41366e-10 -4.59639e-10 5e-05 1.46608e-10 
260 1 0.187943 0.0178859 0.00698904 0.00578614 -0.000256042 -0.000182406 3.48273e-11 -1.30466e-10 -5.08152e-10 5e-05 1.46608e-10 
261 1 0.188038 0.0179172 0.00698243 0.00589021 -0.000360862 -6.84372e-05 1.20071e-11 1.69891e-11 -4.26147e-11 5e-05 1.46608e-10 
262 1 0.187963 0.0179827 0.00697402 0.00597379 -0.000255012 -8.32782e-05 4.41127e-11 -3.68432e-11 -1.97584e-11 5e-05 1.46608e-10 
263 1 0.181927 0.0182244 0.00700387 0.00614776 -0.000134921 -0.000321994 1.68115e-10 5.71277e-10 -8.93628e-11 5e-05 1.46608e-10 
265 1 0.187909 0.0181447 0.00695063 0.00620498 -0.0001963 -9.24574e-05 -1.85383e-11 -2.69021e-10 4.10736e-11 5e-05 1.46608e-10 
270 1 0.193984 0.0180764 0.00692342 0.00565597 -0.000149983 -6.55207e-05 4.49005e-11 -1.81629e-10 4.49759e-11 5e-05 1.46608e-10 
271 1 0.257444 0.017472 0.00792951 8.86398e-08 -0.0220134 0.00976052 2.20199e-14 1.91564e-11 1.45848e-11 5e-05 1.46608e-10 
272 1 0.181801 0.0176446 0.00709279 0.00565971 1.9545e-05 -0.000309137 3.52248e-10 -5.90644e-11 2.50781e-10 5e-05 1.46608e-10 
273 1 0.0533233 0.0175509 0.00789862 2.48479e-10 -0.022248 0.0092905 1.80112e-18 8.43393e-12 2.01634e-11 5e-05 1.46608e-10 
274 1 0.181782 0.0175476 0.00710757 0.00566178 1.95276e-05 -0.000266176 -3.3121e-10 -4.51322e-10 2.93626e-10 5e-05 1.46608e-10 
275 1 0.187931 0.0182412 0.00693564 0.00618814 -0.00030977 -7.53425e-05 -7.37509e-12 7.99088e-11 -7.06646e-12 5e-05 1.46608e-10 
276 1 0.187655 0.0169894 0.00743736 0.00549741 -6.44476e-05 0.000279421 1.35529e-10 -4.3634e-11 5.10751e-11 5e-05 1.46608e-10 
277 1 0.187558 0.0165756 0.00770078 0.00534082 -1.52941e-05 0.000240645 -4.95065e-11 3.07533e-11 -1.48634e-11 5e-05 1.46608e-10 
279 1 0.182014 0.0186104 0.00694451 0.0061654 -0.000251679 -0.000306644 -5.32868e-11 -2.38759e-10 3.66891e-11 5e-05 1.46608e-10 
282 1 0.181646 0.016922 0.00738072 0.00563594 0.000217411 0.000115664 2.06434e-10 3.24552e-10 2.03706e-11 5e-05 1.46608e-10 
283 1 0.181571 0.0166162 0.00762361 0.00566478 2.66936e-05 -0.000320231 -4.43562e-12 -7.61336e-10 7.6969e-10 5e-05 1.46608e-10 
284 1 0.187578 0.016658 0.00764775 0.00528985 -7.9161e-06 0.000235083 -6.79671e-11 3.49451e-11 -1.83209e-11 5e-05 1.46608e-10 
288 1 0.18796 0.0175443 0.00709267 0.00558963 -8.64769e-05 0.000278655 2.16378e-10 -1.71305e-10 1.61189e-10 5e-05 1.46608e-10 
293 1 0.181821 0.0177416 0.00707801 0.00591133 -3.72313e-05 -0.000334654 6.32581e-10 5.38439e-10 5.27282e-11 5e-05 1.46608e-10 
294 1 0.152576 0.0182562 0.00546336 5.2813e-16 -1.41579e-15 1.1458e-14 -3.27021e-22 4.42025e-24 1.36485e-23 5e-05 1.46608e-10 
295 1 0.241427 0.0170982 0.00812542 0.021374 0.0270411 -0.015746 -2.13962e-10 1.16824e-10 -1.56973e-10 5e-05 1.46608e-10 
297 1 0.193908 0.0181394 0.00690509 0.00565419 -0.000190655 -5.15444e-05 -1.10512e-10 -6.05435e-10 2.11053e-10 5e-05 1.46608e-10 
300 1 0.193656 0.0165849 0.0076303 0.00550809 -0.000194077 -0.000289509 4.64375e-10 -2.94175e-10 4.03552e-10 5e-05 1.46608e-10 
