ITEM: TIMESTEP
12800000
ITEM: NUMBER OF ATOMS
284
ITEM: BOX BOUNDS ff ff ff
-0.02 0.43
-0.02 0.06
-0.02 0.07
ITEM: ATOMS id type x y z vx vy vz fx fy fz radius mass 
1 1 0.0874705 0.0163101 0.0077652 0.00581103 0.000209137 0.000179234 -6.97098e-11 -1.28478e-10 -2.07625e-11 5e-05 1.46608e-10 
2 1 0.0878882 0.0174028 0.00733938 0.00554893 0.000298745 0.000124372 1.07494e-10 -7.29636e-11 2.72068e-11 5e-05 1.46608e-10 
3 1 0.0814541 0.01627 0.00785998 0.00576844 0.000481833 0.000140412 1.18674e-10 1.21311e-10 -6.06233e-11 5e-05 1.46608e-10 
4 1 0.0878717 0.0177333 0.0071956 0.00553974 4.61281e-05 -0.000326106 3.61291e-12 1.03781e-10 -1.09724e-10 5e-05 1.46608e-10 
5 1 0.0873739 0.0162781 0.00777392 0.00579546 0.000220073 0.000172352 -4.77078e-11 1.10829e-10 -2.2124e-10 5e-05 1.46608e-10 
6 1 0.0935069 0.0168597 0.00752678 0.00580052 0.000114836 -0.000331248 2.51722e-11 2.74384e-10 -2.14793e-10 5e-05 1.46608e-10 
7 1 0.0875224 0.0167628 0.00758341 0.00577921 0.000214282 0.000181677 1.07313e-10 -2.26308e-11 -2.75933e-11 5e-05 1.46608e-10 
8 1 0.0873939 0.0160279 0.00802659 0.00637703 -7.47789e-05 -0.000215657 -6.02798e-11 1.83695e-10 -1.92345e-10 5e-05 1.46608e-10 
9 1 0.0937356 0.0178961 0.00702016 0.0056868 0.000194148 0.000115161 4.46925e-12 8.51451e-12 -5.17015e-12 5e-05 1.46608e-10 
10 1 0.0875041 0.0168536 0.00754568 0.005772 0.000206221 0.000174573 1.57371e-10 1.14149e-10 -1.93118e-11 5e-05 1.46608e-10 
11 1 0.0876198 0.0169752 0.00750137 0.00557477 0.000312861 0.000119929 -1.63526e-11 -3.43732e-10 1.41986e-10 5e-05 1.46608e-10 
12 1 0.087699 0.0173402 0.00735645 0.00546953 0.000303757 0.000119096 4.42075e-11 1.76811e-10 -7.54005e-11 5e-05 1.46608e-10 
13 1 0.0876983 0.017753 0.00728322 0.00553616 0.000261979 0.000146046 -5.13939e-11 5.33651e-11 -7.62844e-12 5e-05 1.46608e-10 
14 1 0.08115 0.0155757 0.00854777 0.00622672 0.000470503 3.02904e-05 1.48858e-11 7.6839e-12 -4.54253e-11 5e-05 1.46608e-10 
15 1 0.0876044 0.0173089 0.007365 0.00543662 0.000271793 0.000130325 1.74338e-10 -5.70621e-11 2.85199e-11 5e-05 1.46608e-10 
16 1 0.0811295 0.0155299 0.00863427 0.006202 0.000464038 2.98801e-05 -1.27948e-11 6.75037e-12 -2.01408e-11 5e-05 1.46608e-10 
17 1 0.087774 0.0175959 0.00734476 0.00552234 0.000268087 0.000134877 1.28084e-10 5.8459e-11 5.02251e-11 5e-05 1.46608e-10 
18 1 0.093638 0.0174169 0.00712393 0.00560011 0.000126868 -0.000265183 1.07369e-10 -1.19521e-10 -3.16961e-10 5e-05 1.46608e-10 
19 1 0.0873364 0.0161359 0.00790933 0.00614581 -8.13173e-05 -5.85685e-05 -9.47073e-11 2.04793e-10 -1.04329e-10 5e-05 1.46608e-10 
20 1 0.0877545 0.0175047 0.00738097 0.00551679 0.000263015 0.000137946 2.05553e-10 -7.12664e-11 1.62229e-11 5e-05 1.46608e-10 
21 1 0.0873563 0.0162053 0.00784014 0.00589641 0.000107135 6.92865e-05 4.75094e-11 1.26575e-10 -2.26658e-10 5e-05 1.46608e-10 
22 1 0.0876599 0.0171576 0.00742896 0.00557488 0.000238851 0.000149811 -1.29205e-11 -4.31842e-11 1.95563e-11 5e-05 1.46608e-10 
23 1 0.0815024 0.0168599 0.0075795 0.00577629 0.00037385 0.000192636 -3.1311e-11 -2.70135e-10 1.29125e-10 5e-05 1.46608e-10 
24 1 0.093716 0.0178003 0.00704074 0.00563904 0.000208966 0.000110215 9.20953e-11 -2.25933e-11 1.34785e-11 5e-05 1.46608e-10 
25 1 0.0876174 0.0167931 0.0075753 0.00576673 0.000242427 0.000157829 9.92262e-11 1.05117e-10 1.13766e-11 5e-05 1.46608e-10 
26 1 0.093583 0.0171779 0.00729667 0.0057062 7.95552e-05 -0.000303116 6.29696e-12 -1.22388e-11 4.95518e-11 5e-05 1.46608e-10 
27 1 0.0814202 0.0165051 0.00774478 0.00576832 0.000453987 0.000154036 -6.63587e-11 -1.34122e-10 6.96557e-11 5e-05 1.46608e-10 
28 1 0.0876597 0.0174732 0.00738954 0.00550865 0.000273214 0.000141677 -1.25536e-10 -1.87076e-10 -1.1096e-11 5e-05 1.46608e-10 
29 1 0.087491 0.016401 0.00772912 0.00578154 0.000216305 0.000168912 9.14382e-11 -1.67181e-10 1.10914e-10 5e-05 1.46608e-10 
30 1 0.0878523 0.0176453 0.0072392 0.00554636 0.000274242 0.000133379 -1.85179e-11 2.89468e-11 -2.61481e-11 5e-05 1.46608e-10 
31 1 0.0875849 0.0172177 0.0074012 0.00558145 0.000251473 0.000144919 3.61009e-11 5.60597e-12 4.84317e-12 5e-05 1.46608e-10 
32 1 0.0876399 0.0170664 0.00746518 0.00554462 0.000252157 0.000143081 -4.71044e-10 -3.16771e-10 1.1036e-10 5e-05 1.46608e-10 
33 1 0.0935267 0.0169391 0.00746932 0.00582666 9.8159e-05 -0.000321561 -6.01384e-12 -1.15128e-10 8.5854e-11 5e-05 1.46608e-10 
34 1 0.0874934 0.0168371 0.00764373 0.00577586 0.000216772 0.000178952 8.50849e-11 -6.03798e-11 2.08809e-11 5e-05 1.46608e-10 
36 1 0.0937553 0.017992 0.00699958 0.00568623 0.000188394 0.000116259 1.5929e-11 -1.31035e-12 1.55086e-12 5e-05 1.46608e-10 
37 1 0.0875246 0.0169446 0.0075096 0.00576959 0.000208716 0.00017118 1.92683e-10 9.78215e-11 -2.65237e-11 5e-05 1.46608e-10 
38 1 0.0876795 0.0172489 0.0073927 0.0055498 0.000323679 0.000114226 9.30131e-11 -1.99659e-10 8.50655e-11 5e-05 1.46608e-10 
39 1 0.0936964 0.0177044 0.00706133 0.00565106 0.000208009 0.000111343 -3.71045e-11 -2.43871e-11 -4.74456e-12 5e-05 1.46608e-10 
41 1 0.0873945 0.0163691 0.00773797 0.00578624 0.000211376 0.000168748 -2.46877e-11 6.96648e-11 3.99483e-11 5e-05 1.46608e-10 
42 1 0.0875651 0.0171266 0.00743737 0.0055549 0.000260895 0.000140195 -1.51426e-10 -1.21099e-10 4.74387e-11 5e-05 1.46608e-10 
44 1 0.0877936 0.0173716 0.00734789 0.00554829 0.00027378 0.000134694 1.50035e-10 -5.00243e-12 1.73681e-12 5e-05 1.46608e-10 
45 1 0.0935643 0.0170983 0.00735423 0.00564694 0.000101324 -0.000315469 -1.18167e-10 -8.98674e-11 4.00134e-11 5e-05 1.46608e-10 
46 1 0.0936199 0.0173372 0.00718153 0.00565374 8.86855e-05 -0.000294082 4.18903e-10 -3.72664e-11 -3.73348e-11 5e-05 1.46608e-10 
47 1 0.0874357 0.016551 0.0076657 0.005771 0.000213699 0.000169156 2.34168e-11 -1.72433e-10 7.67702e-11 5e-05 1.46608e-10 
48 1 0.0877741 0.0172803 0.00738415 0.00553209 0.000365767 9.65612e-05 -2.72484e-11 5.37388e-11 -2.5259e-11 5e-05 1.46608e-10 
49 1 0.0936016 0.0172575 0.00723912 0.00572392 7.60349e-05 -0.000297327 -7.27449e-10 4.58923e-10 -1.6569e-10 5e-05 1.46608e-10 
50 1 0.087738 0.0175227 0.007284 0.00551766 0.000263598 0.000137208 1.08023e-10 7.06068e-12 1.6344e-11 5e-05 1.46608e-10 
51 1 0.0878327 0.017554 0.00727544 0.00552123 0.000259654 0.000139087 7.04474e-11 -6.95956e-11 3.15859e-11 5e-05 1.46608e-10 
52 1 0.0877842 0.0181091 0.00711254 0.00559578 4.95999e-05 -0.000338538 3.97007e-11 -5.4172e-11 -3.84139e-11 5e-05 1.46608e-10 
53 1 0.0936574 0.0175126 0.00710252 0.00566748 0.000206591 0.000114942 -1.8503e-12 5.04469e-12 2.48061e-11 5e-05 1.46608e-10 
54 1 0.0874498 0.0162198 0.00780299 0.00585895 3.67864e-05 -0.000148757 -2.23224e-10 -3.00605e-10 -6.55366e-10 5e-05 1.46608e-10 
55 1 0.0811921 0.0156763 0.00838017 0.00625704 0.000145027 -0.000172608 -6.43841e-11 1.24564e-10 -4.03484e-11 5e-05 1.46608e-10 
56 1 0.0875451 0.0170356 0.00747351 0.00550616 0.000267876 0.000135058 -6.06867e-11 -1.02527e-10 3.76486e-11 5e-05 1.46608e-10 
57 1 0.0935457 0.0170186 0.00741179 0.00553674 0.000135737 -0.000335061 -2.78132e-10 -4.41954e-11 4.79528e-11 5e-05 1.46608e-10 
59 1 0.0877145 0.0170059 0.00749306 0.00558519 0.000288057 0.000130361 -2.76021e-10 3.37812e-10 -1.5033e-10 5e-05 1.46608e-10 
60 1 0.0877346 0.0170973 0.00745679 0.00556492 0.000217956 0.000157995 -1.22721e-11 2.01684e-11 -9.50991e-12 5e-05 1.46608e-10 
61 1 0.0874151 0.01646 0.00770177 0.00577467 0.000209884 0.000168086 4.64669e-11 -7.35931e-11 3.92326e-11 5e-05 1.46608e-10 
62 1 0.0879308 0.0178991 0.00719974 0.00558781 4.39234e-05 -0.000331642 -4.26264e-11 9.2621e-11 -5.05652e-11 5e-05 1.46608e-10 
63 1 0.0877545 0.0171889 0.00742045 0.00561724 0.000390692 9.01004e-05 1.35912e-10 1.61883e-11 -3.16378e-12 5e-05 1.46608e-10 
64 1 0.093677 0.0176085 0.00708193 0.00566319 0.000209058 0.000110812 8.24835e-12 8.74032e-12 1.4409e-11 5e-05 1.46608e-10 
65 1 0.0814613 0.0166825 0.00766214 0.00577693 0.000423075 0.000169235 -2.43559e-11 -2.02618e-10 9.46798e-11 5e-05 1.46608e-10 
66 1 0.0816738 0.0175573 0.00734607 0.00553793 0.000388333 0.000140782 -2.29972e-10 2.16846e-10 -1.18709e-10 5e-05 1.46608e-10 
67 1 0.0879282 0.0175855 0.00726481 0.00579932 0.000339834 -0.000486881 3.29993e-12 3.77282e-11 1.76374e-12 5e-05 1.46608e-10 
68 1 0.0877184 0.0174315 0.00732021 0.00551643 0.000255137 0.000141376 1.11641e-10 4.20575e-11 -1.13899e-11 5e-05 1.46608e-10 
69 1 0.087599 0.0168839 0.00753758 0.0057599 0.000227527 0.000162872 2.6951e-10 -9.58816e-11 6.29826e-11 5e-05 1.46608e-10 
70 1 0.0876655 0.0175672 0.00735517 0.0055153 0.000266992 0.000140404 1.28173e-11 -1.78813e-11 -5.63087e-11 5e-05 1.46608e-10 
71 1 0.0811707 0.0156244 0.00846294 0.00623913 0.000207401 -0.000125669 2.02651e-11 2.58249e-11 -6.1503e-11 5e-05 1.46608e-10 
72 1 0.0878174 0.0177778 0.00726716 0.00588865 0.000479646 -0.000337193 5.60451e-11 -5.8438e-11 -5.78075e-12 5e-05 1.46608e-10 
73 1 0.087772 0.0176905 0.00731036 0.00554005 0.000277578 0.000140692 1.55809e-11 -5.13397e-11 1.1932e-11 5e-05 1.46608e-10 
74 1 0.087877 0.0181506 0.00699112 0.00564082 3.90666e-05 -0.000328713 5.78437e-11 4.81449e-12 -1.43223e-11 5e-05 1.46608e-10 
76 1 0.082079 0.018209 0.00696817 0.00602922 0.000295149 0.000247488 -5.90516e-10 2.16929e-11 -6.67581e-11 5e-05 1.46608e-10 
77 1 0.0878373 0.0183839 0.00690934 0.0056589 3.05149e-05 -0.000288116 7.69049e-11 -9.8001e-12 1.31938e-11 5e-05 1.46608e-10 
78 1 0.0812764 0.0158964 0.00805806 0.00600349 0.000243026 -0.00019053 2.48015e-11 8.02031e-11 -8.71513e-11 5e-05 1.46608e-10 
79 1 0.081523 0.0169487 0.00753818 0.00576343 0.000342355 0.000206199 -7.36479e-12 -2.78761e-10 1.30152e-10 5e-05 1.46608e-10 
80 1 0.0877179 0.0178431 0.00724392 0.00563254 0.000598124 -0.000290995 2.83639e-12 -2.801e-11 3.76113e-11 5e-05 1.46608e-10 
81 1 0.0814408 0.0165938 0.00770346 0.0057753 0.000440152 0.000160659 5.46803e-12 -1.45066e-10 6.99965e-11 5e-05 1.46608e-10 
82 1 0.0814819 0.0167712 0.00762082 0.00577786 0.000401811 0.000179411 -5.65762e-11 -2.3938e-10 1.14778e-10 5e-05 1.46608e-10 
83 1 0.0813791 0.0163277 0.00782742 0.00576173 0.000472385 0.000143956 7.20608e-12 -6.74643e-11 2.19531e-11 5e-05 1.46608e-10 
84 1 0.0937749 0.0180879 0.00697899 0.0056844 0.000185952 0.000116809 -8.2994e-12 -1.62566e-11 3.56972e-12 5e-05 1.46608e-10 
85 1 0.0872936 0.0160067 0.00805586 0.00628593 -0.000168499 -0.000103538 -2.27097e-10 7.91891e-11 -8.62796e-11 5e-05 1.46608e-10 
86 1 0.087777 0.0177051 0.00721155 0.00554766 0.000267547 0.000138903 -4.52175e-11 2.39774e-12 -2.45114e-13 5e-05 1.46608e-10 
87 1 0.0878687 0.0173116 0.0073756 0.00556084 0.000276528 0.000134009 1.00918e-10 -1.32021e-10 6.23842e-11 5e-05 1.46608e-10 
88 1 0.0878406 0.0181841 0.00707801 0.00562646 3.34454e-05 -0.000326748 5.64612e-11 -2.32723e-11 -3.2582e-11 5e-05 1.46608e-10 
89 1 0.0878158 0.0178821 0.00712648 0.00557187 4.34637e-05 -0.000334044 -6.01485e-11 4.4279e-12 1.01287e-11 5e-05 1.46608e-10 
90 1 0.0879861 0.0178508 0.00713177 0.00558604 3.73943e-05 -0.00032766 2.24078e-11 -8.97458e-12 2.21798e-11 5e-05 1.46608e-10 
91 1 0.0876432 0.0174912 0.00729258 0.0055054 0.000260217 0.00013907 -2.54857e-12 2.23038e-11 -1.88481e-11 5e-05 1.46608e-10 
92 1 0.0879935 0.018011 0.00705295 0.00561699 3.18086e-05 -0.000326915 -4.36577e-12 -1.07891e-10 5.95818e-11 5e-05 1.46608e-10 
93 1 0.0877786 0.0181177 0.00701265 0.00563174 4.66156e-05 -0.000333979 7.83658e-12 -2.19559e-11 1.07846e-12 5e-05 1.46608e-10 
94 1 0.0877965 0.0177944 0.00717081 0.00554309 4.74036e-05 -0.000339731 -5.60108e-11 -7.22641e-11 2.30125e-11 5e-05 1.46608e-10 
95 1 0.0877016 0.0177647 0.00718397 0.00554861 0.000264125 0.000142904 6.51704e-13 3.84545e-11 -2.47229e-11 5e-05 1.46608e-10 
96 1 0.0877402 0.0179423 0.00710064 0.00556984 4.43919e-05 -0.000332951 -1.77881e-10 -1.0452e-10 7.11445e-11 5e-05 1.46608e-10 
97 1 0.0816382 0.0170688 0.00748787 0.00561004 0.000370886 0.000183489 1.26281e-10 -2.95538e-10 1.59859e-10 5e-05 1.46608e-10 
98 1 0.0878857 0.0183355 0.00698221 0.00573312 3.20044e-08 -0.000348277 -1.13315e-10 7.87464e-11 -4.93564e-12 5e-05 1.46608e-10 
99 1 0.0815433 0.0170374 0.00749683 0.00565443 0.00033973 0.000201049 3.67773e-10 -2.53647e-10 1.5218e-10 5e-05 1.46608e-10 
100 1 0.0879574 0.0180955 0.00701359 0.00563438 3.12464e-05 -0.000326668 7.69585e-11 -1.0564e-11 1.1754e-11 5e-05 1.46608e-10 
101 1 0.0814952 0.0164474 0.00777733 0.00575579 0.000442216 0.000158678 -2.38514e-11 -1.85408e-10 9.29978e-11 5e-05 1.46608e-10 
102 1 0.0694385 0.0202053 0.00537268 4.00957e-15 4.39997e-15 -7.6828e-14 9.40453e-22 -1.05547e-21 -1.11669e-23 5e-05 1.46608e-10 
104 1 0.0815979 0.016891 0.00757072 0.00579562 0.000377379 0.000192149 2.39522e-11 -3.23693e-10 1.57222e-10 5e-05 1.46608e-10 
105 1 0.0813383 0.0161528 0.00791533 0.00543814 0.000406834 -0.0001563 -4.11864e-11 -5.24623e-11 -1.35863e-10 5e-05 1.46608e-10 
106 1 0.0816964 0.0173355 0.00736338 0.00552335 0.000366259 0.00018029 2.55932e-10 2.01487e-10 -7.74483e-11 5e-05 1.46608e-10 
107 1 0.0812972 0.0159804 0.00800787 0.00571009 0.000331432 -0.000171828 1.17944e-11 7.76631e-11 -4.07941e-11 5e-05 1.46608e-10 
108 1 0.0874718 0.0167342 0.0076648 0.00577709 0.000208416 0.000184609 6.77699e-11 -1.7725e-10 -4.91389e-11 5e-05 1.46608e-10 
109 1 0.0876627 0.0175824 0.00725637 0.00551479 0.000261687 0.000138319 6.46196e-11 4.28117e-11 -1.20788e-11 5e-05 1.46608e-10 
110 1 0.087721 0.0178546 0.00714463 0.00554537 5.07603e-05 -0.000337484 3.71127e-11 -6.25856e-12 1.52747e-11 5e-05 1.46608e-10 
111 1 0.0879306 0.0184142 0.00688997 0.00579724 9.33472e-06 0.0003359 5.7424e-11 1.95414e-11 4.62227e-11 5e-05 1.46608e-10 
112 1 0.0813997 0.0164164 0.0077861 0.00576127 0.000464501 0.000149041 -5.3861e-11 -1.22648e-10 5.8914e-11 5e-05 1.46608e-10 
113 1 0.081713 0.0170109 0.0075205 0.00563411 0.000398345 0.000171722 1.13989e-10 -2.80802e-10 1.4171e-10 5e-05 1.46608e-10 
115 1 0.0876822 0.0176735 0.00722017 0.00553035 0.000262802 0.000138458 4.80199e-11 6.09362e-11 -1.06473e-11 5e-05 1.46608e-10 
116 1 0.0876939 0.0169143 0.00752942 0.00569331 0.000384726 9.5864e-05 5.52643e-10 -8.23028e-12 2.68949e-11 5e-05 1.46608e-10 
117 1 0.0875504 0.0166743 0.00762063 0.00577928 0.000212607 0.000174108 5.82696e-11 -1.02582e-10 3.55077e-11 5e-05 1.46608e-10 
118 1 0.0812338 0.0157811 0.00821505 0.00634007 5.00329e-05 -0.000237375 -3.61129e-12 -2.73688e-11 -1.42284e-10 5e-05 1.46608e-10 
119 1 0.0879477 0.0176734 0.00722068 0.00555085 5.63304e-05 -0.000334864 -6.55565e-11 1.87771e-10 -7.18302e-11 5e-05 1.46608e-10 
120 1 0.0873151 0.0160702 0.00798167 0.0062588 -0.000163985 -0.000110462 -1.09308e-10 3.78908e-11 -7.94456e-11 5e-05 1.46608e-10 
121 1 0.087415 0.0160915 0.00795235 0.00613703 -0.000134998 -0.000119082 2.09382e-10 5.35149e-10 -2.26925e-10 5e-05 1.46608e-10 
122 1 0.0878354 0.01797 0.00708187 0.0056039 4.80159e-05 -0.000335277 5.56836e-11 4.96872e-12 -2.32874e-11 5e-05 1.46608e-10 
123 1 0.0813588 0.0162409 0.00787274 0.00565785 0.000450361 4.60493e-05 -1.61325e-11 -8.28894e-11 -7.15885e-11 5e-05 1.46608e-10 
124 1 0.0877626 0.0179288 0.00719715 0.00556845 3.51692e-05 -0.000331846 3.84663e-12 -7.51752e-11 4.9595e-11 5e-05 1.46608e-10 
125 1 0.0874344 0.0161554 0.00787787 0.00607855 -0.000115306 -0.000167567 -1.69664e-10 -1.60885e-10 -7.62659e-10 5e-05 1.46608e-10 
126 1 0.0876238 0.0174 0.00732879 0.00543513 0.000270348 0.000130807 -1.3772e-10 4.28223e-11 -4.48385e-11 5e-05 1.46608e-10 
127 1 0.0818633 0.0176206 0.00732781 0.00561096 0.000328416 0.000184684 -4.34456e-10 2.86622e-10 -2.58232e-10 5e-05 1.46608e-10 
128 1 0.0878909 0.0178211 0.0071516 0.0055736 4.69581e-05 -0.000332425 -8.46208e-11 3.92996e-11 -2.24786e-11 5e-05 1.46608e-10 
129 1 0.0877594 0.01803 0.00705664 0.00560018 4.5093e-05 -0.000333237 -1.42989e-12 -7.96061e-11 3.68285e-11 5e-05 1.46608e-10 
131 1 0.0816183 0.0169798 0.00752935 0.00567835 0.000376106 0.000185162 5.53548e-10 -3.77496e-10 2.24118e-10 5e-05 1.46608e-10 
132 1 0.0879185 0.0179184 0.00710241 0.00559996 4.49947e-05 -0.000332897 6.26447e-11 2.29666e-11 -3.27345e-11 5e-05 1.46608e-10 
133 1 0.0875116 0.016492 0.00769305 0.00576849 0.000215447 0.000166485 8.51059e-11 -1.6808e-10 9.10848e-11 5e-05 1.46608e-10 
134 1 0.0880243 0.0176141 0.00724547 0.00554907 5.24411e-05 -0.000333624 -2.28173e-10 1.30334e-10 -5.3736e-11 5e-05 1.46608e-10 
135 1 0.0876271 0.0166133 0.00764885 0.00575762 0.000245716 0.000155106 -2.51965e-11 2.18786e-10 -8.67438e-11 5e-05 1.46608e-10 
136 1 0.081259 0.015833 0.00813332 0.00622261 0.000112177 -0.000242766 -6.147e-11 5.36578e-11 -1.31598e-10 5e-05 1.46608e-10 
137 1 0.087855 0.0184812 0.00689463 0.00563749 0.000118139 0.000337657 -6.11971e-12 9.10079e-12 3.66528e-12 5e-05 1.46608e-10 
138 1 0.0879003 0.0182382 0.00694696 0.00566712 3.33243e-05 -0.000331283 -5.26259e-11 1.41999e-12 -3.1011e-13 5e-05 1.46608e-10 
140 1 0.0877575 0.0176138 0.00724779 0.0055289 0.000266112 0.000136228 5.27758e-12 -6.0045e-11 2.93784e-11 5e-05 1.46608e-10 
141 1 0.0814338 0.0161812 0.00790137 0.00552225 0.000342171 0.000192572 -6.34985e-12 -2.67432e-11 -2.3586e-11 5e-05 1.46608e-10 
142 1 0.0815363 0.0166249 0.00769469 0.00578325 0.00042613 0.000167979 5.23023e-12 -2.19499e-10 1.06481e-10 5e-05 1.46608e-10 
143 1 0.0813178 0.0160653 0.00795919 0.00544094 0.000372394 -0.000221342 -5.59029e-11 3.71253e-11 -6.23173e-11 5e-05 1.46608e-10 
146 1 0.0816107 0.0165667 0.00772747 0.00581188 0.000459496 0.000153907 1.67846e-10 -8.98986e-11 5.38389e-11 5e-05 1.46608e-10 
147 1 0.0812128 0.0157287 0.00829755 0.00631094 8.8606e-05 -0.000207897 -6.18685e-11 5.68814e-11 -9.21997e-11 5e-05 1.46608e-10 
148 1 0.00854819 0.0171741 0.00810067 0.00145943 0.0293033 -0.0180485 -7.87706e-12 8.93227e-11 -1.4873e-10 5e-05 1.46608e-10 
149 1 0.0879283 0.0180664 0.00710473 0.00562184 3.99596e-05 -0.00032576 3.06785e-12 -6.14199e-11 7.13736e-12 5e-05 1.46608e-10 
150 1 0.0815157 0.0165361 0.00773601 0.00577478 0.000434511 0.000163417 -2.13289e-11 -2.04821e-10 1.01724e-10 5e-05 1.46608e-10 
151 1 0.0819439 0.0172551 0.00741801 0.00557515 0.000396559 0.00016876 -2.29524e-10 -7.59069e-11 2.45188e-11 5e-05 1.46608e-10 
153 1 0.0815901 0.0164779 0.00776879 0.00578805 0.000446816 0.000158406 2.13134e-10 -8.46218e-12 1.64027e-11 5e-05 1.46608e-10 
154 1 0.0817351 0.0175133 0.0072804 0.00555598 0.000397467 0.000163064 3.54778e-11 2.01072e-10 -4.95446e-11 5e-05 1.46608e-10 
155 1 0.0757006 0.0173099 0.00718028 0.00572437 0.000350575 -0.000315332 -2.56305e-11 3.87358e-11 -2.44778e-11 5e-05 1.46608e-10 
156 1 0.0816212 0.0173929 0.00733094 0.00552004 0.000380467 0.000173196 7.96414e-11 1.20516e-10 -4.61099e-11 5e-05 1.46608e-10 
157 1 0.0817934 0.0177812 0.00715538 0.00555604 0.000485137 0.000111153 -2.59129e-10 5.84336e-10 -1.07436e-10 5e-05 1.46608e-10 
158 1 0.0818272 0.0171316 0.00746984 0.00561991 0.000411644 0.000164514 1.12464e-10 -4.14363e-10 2.07454e-10 5e-05 1.46608e-10 
159 1 0.0879845 0.018188 0.00696683 0.00567389 5.00742e-05 -0.000339313 -8.21821e-11 -1.385e-11 1.15521e-11 5e-05 1.46608e-10 
160 1 0.0816986 0.0177485 0.00716499 0.00565197 0.000501961 0.000129935 3.1202e-10 2.72375e-10 -3.3073e-11 5e-05 1.46608e-10 
162 1 0.0816577 0.0171577 0.00744638 0.00555729 0.000296699 0.000215698 7.48065e-11 -1.38965e-10 7.69294e-11 5e-05 1.46608e-10 
163 1 0.0818467 0.0172207 0.00742827 0.00553863 0.000350287 0.000188869 4.9491e-11 1.18582e-10 -5.3158e-11 5e-05 1.46608e-10 
164 1 0.0819749 0.0178607 0.00712886 0.00551844 0.000619298 6.43502e-05 -5.4617e-10 5.29713e-10 -2.85687e-10 5e-05 1.46608e-10 
165 1 0.0817672 0.0168634 0.0075949 0.00567102 0.00039279 0.000176754 5.92604e-10 -5.51184e-10 3.01049e-10 5e-05 1.46608e-10 
166 1 0.0872505 0.0158797 0.00820422 0.0062064 -0.000165036 -0.000105045 1.04098e-10 5.17669e-11 -6.33245e-11 5e-05 1.46608e-10 
167 1 0.0816312 0.0166554 0.00768615 0.00582382 0.000453886 0.000157355 1.26055e-10 -1.27031e-10 7.05542e-11 5e-05 1.46608e-10 
168 1 0.0817544 0.0176022 0.00723892 0.00557875 0.000407522 0.000160654 -1.40876e-10 1.00323e-10 -5.06528e-11 5e-05 1.46608e-10 
169 1 0.0818854 0.0173985 0.00734529 0.005571 0.00035139 0.00019082 -2.71725e-10 3.95629e-11 -3.03778e-11 5e-05 1.46608e-10 
170 1 0.0818297 0.0175449 0.00727135 0.00557651 0.000391054 0.000170907 2.53482e-10 4.34712e-10 -2.09886e-10 5e-05 1.46608e-10 
171 1 0.0876454 0.0167046 0.00761252 0.0057531 0.000245549 0.000154786 -2.42412e-11 2.59826e-10 -1.04092e-10 5e-05 1.46608e-10 
172 1 0.0820032 0.0175232 0.00729295 0.00568025 0.000468613 0.000139166 -4.91568e-10 3.23387e-10 -1.57515e-10 5e-05 1.46608e-10 
173 1 0.0879078 0.017494 0.00730315 0.00549215 0.000226205 0.000151705 3.62845e-10 7.83004e-11 -1.1891e-11 5e-05 1.46608e-10 
174 1 0.0817178 0.0178466 0.00716049 0.00562219 0.000554944 -1.16973e-05 -1.05614e-10 6.00594e-10 1.48266e-10 5e-05 1.46608e-10 
175 1 0.0786358 0.0176763 0.00701815 0.0059443 0.000793229 -0.00032926 1.48979e-13 2.27809e-14 -8.73817e-15 5e-05 1.46608e-10 
176 1 0.0816019 0.017304 0.00737243 0.00553731 0.000356752 0.000185902 7.20257e-11 1.15304e-10 -4.56917e-11 5e-05 1.46608e-10 
177 1 0.0821065 0.0179694 0.0070851 0.0057018 0.000318976 0.000215588 -7.10828e-10 5.16165e-10 -3.13515e-10 5e-05 1.46608e-10 
178 1 0.0819835 0.0174339 0.0073346 0.00561043 0.00040349 0.000168013 -1.75537e-10 -8.27988e-11 2.83603e-11 5e-05 1.46608e-10 
179 1 0.0755874 0.017204 0.00727166 0.0056527 0.000434829 -9.49386e-05 6.2909e-11 1.80301e-13 -2.20566e-12 5e-05 1.46608e-10 
180 1 0.0817715 0.0172781 0.00739582 0.00552104 0.000349983 0.000187535 1.88285e-10 2.46525e-10 -1.06003e-10 5e-05 1.46608e-10 
181 1 0.0818103 0.0174559 0.00731284 0.00555212 0.000362043 0.000182833 4.82034e-12 2.39115e-10 -1.16983e-10 5e-05 1.46608e-10 
182 1 0.0878237 0.0170568 0.00747722 0.00556707 0.00020779 0.000162285 6.32016e-11 1.00841e-10 -3.81829e-11 5e-05 1.46608e-10 
183 1 0.0819048 0.0174874 0.0073038 0.00558878 0.000390232 0.000172341 -1.09557e-10 8.3932e-12 -1.26706e-11 5e-05 1.46608e-10 
184 1 0.0878158 0.0182879 0.0069273 0.00566931 2.70674e-05 -0.000330162 5.69892e-12 2.90118e-11 -8.56511e-12 5e-05 1.46608e-10 
185 1 0.0816405 0.0174818 0.00728945 0.00554201 0.00040424 0.000161212 6.02648e-11 1.01764e-10 -2.14555e-11 5e-05 1.46608e-10 
186 1 0.081677 0.0172466 0.00740487 0.00554406 0.000347074 0.000190669 2.2877e-10 1.04277e-10 -3.82272e-11 5e-05 1.46608e-10 
187 1 0.0878483 0.0171584 0.00743701 0.00564178 0.00043851 7.17888e-05 7.02115e-11 -1.05531e-10 4.71383e-11 5e-05 1.46608e-10 
188 1 0.0878545 0.0180577 0.0070378 0.00562777 4.29536e-05 -0.000332837 2.39384e-11 1.38872e-12 -2.03452e-11 5e-05 1.46608e-10 
189 1 0.0875322 0.016583 0.00765697 0.00577074 0.000216857 0.000167817 2.69321e-11 -9.7301e-11 4.11938e-11 5e-05 1.46608e-10 
190 1 0.0821304 0.0180661 0.00704018 0.0053957 0.000230238 0.000237142 -4.61836e-10 5.19337e-10 -2.55562e-10 5e-05 1.46608e-10 
191 1 0.087876 0.018578 0.00690888 0.00620354 5.37708e-05 0.00036618 -1.34479e-11 2.50833e-11 7.26482e-12 5e-05 1.46608e-10 
192 1 0.0817157 0.0174244 0.00732189 0.00552671 0.000381294 0.000171328 1.31066e-10 2.27319e-10 -1.00538e-10 5e-05 1.46608e-10 
193 1 0.0879503 0.0185112 0.00690419 0.00610044 -5.7216e-05 0.00034487 -4.82959e-11 2.61468e-11 -8.87439e-12 5e-05 1.46608e-10 
194 1 0.0815568 0.0167136 0.00765337 0.0057842 0.000410377 0.000175806 -2.52495e-11 -2.68458e-10 1.2102e-10 5e-05 1.46608e-10 
195 1 0.0818494 0.0176341 0.0072297 0.00561658 0.000408675 0.000169808 8.24224e-11 2.19824e-10 -1.67166e-10 5e-05 1.46608e-10 
196 1 0.0811089 0.015484 0.00872071 0.00613445 0.000464737 1.82124e-05 -2.75993e-11 -1.86493e-11 8.49743e-13 5e-05 1.46608e-10 
197 1 0.0817529 0.0180007 0.00714652 0.00566583 0.000407246 0.000132058 5.53249e-11 -2.18263e-10 -6.7775e-11 5e-05 1.46608e-10 
198 1 0.0815631 0.0171262 0.0074554 0.00558111 0.000342301 0.000196017 1.5622e-10 -1.62949e-11 3.65998e-11 5e-05 1.46608e-10 
199 1 0.0816793 0.0176596 0.00720648 0.0056051 0.000464628 0.000141143 -1.48827e-10 8.77634e-11 2.46024e-11 5e-05 1.46608e-10 
200 1 0.0815774 0.0168023 0.00761205 0.00577598 0.000394298 0.000182961 -1.62024e-11 -2.91689e-10 1.41343e-10 5e-05 1.46608e-10 
201 1 0.0820026 0.018265 0.0069363 0.00597542 0.000214195 0.000281706 3.22449e-11 -3.29428e-10 2.88161e-10 5e-05 1.46608e-10 
203 1 0.0880346 0.0179282 0.00709118 0.00560192 2.92117e-05 -0.000324793 2.95435e-11 -1.10617e-10 6.2292e-11 5e-05 1.46608e-10 
204 1 0.0816928 0.0169217 0.00756211 0.00567708 0.00038885 0.000179165 7.24843e-10 -3.80918e-10 2.30752e-10 5e-05 1.46608e-10 
205 1 0.0817732 0.0180896 0.00710503 0.00570357 0.000419427 0.000149541 8.07043e-12 -5.02879e-11 1.47517e-11 5e-05 1.46608e-10 
206 1 0.0817741 0.0176915 0.00719728 0.00563823 0.000461018 0.000146151 5.97169e-11 -1.27044e-11 4.5536e-11 5e-05 1.46608e-10 
207 1 0.0815696 0.0163892 0.00781011 0.00574884 0.000441053 0.000158565 4.81989e-11 -1.62822e-10 8.00855e-11 5e-05 1.46608e-10 
208 1 0.0816599 0.0175707 0.00724796 0.0055635 0.000429444 0.000148128 -4.70673e-11 3.35768e-11 -4.24552e-12 5e-05 1.46608e-10 
209 1 0.0756088 0.0172975 0.00724351 0.0055841 0.000465982 -0.000126799 -1.75472e-10 6.06169e-11 -2.14179e-11 5e-05 1.46608e-10 
210 1 0.0872722 0.0159432 0.00813005 0.00626002 -0.000170399 -0.000101803 -6.91734e-11 6.60232e-11 -4.4887e-11 5e-05 1.46608e-10 
211 1 0.0877991 0.0182134 0.00699182 0.0056431 4.30471e-05 -0.000330735 4.61027e-11 -7.36178e-12 -4.09369e-11 5e-05 1.46608e-10 
212 1 0.0819634 0.0173442 0.00737641 0.00563256 0.000398019 0.000171736 -3.09563e-10 1.31453e-10 -8.38317e-11 5e-05 1.46608e-10 
213 1 0.0880439 0.0177022 0.00720127 0.00555249 2.66632e-05 -0.000321074 -1.58118e-10 4.77092e-11 -1.00023e-11 5e-05 1.46608e-10 
214 1 0.0877819 0.0180166 0.00715316 0.00559527 3.30364e-05 -0.000334378 2.7973e-11 4.57589e-11 4.83508e-11 5e-05 1.46608e-10 
215 1 0.0817522 0.0171892 0.00743732 0.00554672 0.000337571 0.000195492 1.89813e-10 -1.00317e-10 5.81183e-11 5e-05 1.46608e-10 
216 1 0.0818078 0.0170425 0.00751142 0.0056148 0.000553161 9.61076e-05 1.44832e-11 1.43124e-10 -6.73392e-11 5e-05 1.46608e-10 
217 1 0.0877123 0.0168235 0.00756714 0.00572513 0.000359248 0.000107563 1.89735e-10 -9.66139e-11 5.02828e-11 5e-05 1.46608e-10 
218 1 0.0818848 0.0178197 0.0071428 0.00557063 0.000431028 0.000153072 -1.42787e-10 6.75135e-10 -1.16927e-10 5e-05 1.46608e-10 
219 1 0.0878155 0.0182979 0.00704266 0.00595842 -0.000110145 -0.000159697 1.61527e-12 -7.95322e-11 1.23652e-10 5e-05 1.46608e-10 
220 1 0.0817328 0.0171001 0.00747891 0.00556518 0.000494753 0.000121014 -6.22541e-11 2.2025e-10 -1.07887e-10 5e-05 1.46608e-10 
221 1 0.0754933 0.0167807 0.00748431 0.00569728 0.000183335 -0.000542458 1.3717e-10 -2.1442e-10 1.48848e-10 5e-05 1.46608e-10 
222 1 0.0874562 0.016642 0.00762962 0.00577429 0.000214308 0.000170119 -1.86359e-11 -1.45785e-10 1.98478e-11 5e-05 1.46608e-10 
223 1 0.0817909 0.017367 0.00735433 0.00550953 0.00035414 0.000184811 2.04322e-10 3.93888e-10 -1.77069e-10 5e-05 1.46608e-10 
224 1 0.0815826 0.0172151 0.00741393 0.00556122 0.000336498 0.000196798 1.14402e-10 8.93332e-11 -2.70719e-11 5e-05 1.46608e-10 
225 1 0.0879671 0.0177613 0.00717659 0.00556456 3.79348e-05 -0.000326826 1.31476e-11 1.83804e-10 -8.76451e-11 5e-05 1.46608e-10 
226 1 0.0817877 0.016953 0.00755316 0.00565753 0.000421358 0.000162224 1.90945e-10 -1.25568e-10 7.24308e-11 5e-05 1.46608e-10 
227 1 0.0755493 0.0170225 0.00733521 0.00571066 0.000407604 -0.000101713 1.72067e-10 -7.10885e-11 3.25168e-11 5e-05 1.46608e-10 
228 1 0.0507861 0.0189683 0.00558458 -5.37852e-15 -1.91077e-14 -2.87013e-13 3.76897e-22 -1.79653e-24 -6.41065e-24 5e-05 1.46608e-10 
229 1 0.0813923 0.0160075 0.00799253 0.00559526 0.000535202 -0.000292571 3.15282e-11 1.51857e-10 -1.15045e-10 5e-05 1.46608e-10 
230 1 0.0817927 0.0181806 0.00696336 0.0058254 0.000611054 8.76475e-05 -2.53776e-11 -7.34062e-11 5.63662e-10 5e-05 1.46608e-10 
231 1 0.197479 0.018695 0.00523156 -1.08325e-15 -2.69835e-14 1.45243e-13 -4.88279e-23 7.65142e-24 6.20385e-25 5e-05 1.46608e-10 
232 1 0.0814132 0.0160928 0.00794343 0.00528862 0.000241265 -0.000124106 -4.01212e-11 -2.65472e-12 7.07071e-12 5e-05 1.46608e-10 
233 1 0.0816724 0.0168328 0.0076035 0.00583182 0.000415404 0.000176263 1.96945e-10 -1.81909e-10 9.95384e-11 5e-05 1.46608e-10 
234 1 0.0872074 0.0157527 0.00835258 0.00615837 -0.000161125 -0.000106943 -9.97416e-11 -1.3677e-10 1.61274e-10 5e-05 1.46608e-10 
235 1 0.081948 0.0185014 0.00692617 0.00623978 0.000432061 -0.000433113 3.72937e-10 -1.36838e-10 7.48648e-12 5e-05 1.46608e-10 
236 1 0.0820113 0.018355 0.00689359 0.00623648 0.000204819 0.000307598 7.68034e-11 -6.97284e-10 8.45173e-11 5e-05 1.46608e-10 
237 1 0.0819124 0.0183043 0.006918 0.00629373 -0.0013157 -0.00470434 0 0 -1.43822e-09 5e-05 1.46608e-10 
238 1 0.0756252 0.0173755 0.00718308 0.00570621 0.000333269 -0.000313289 1.89544e-12 -1.15991e-10 -1.77249e-10 5e-05 1.46608e-10 
239 1 0.0753945 0.0163873 0.00777665 0.00580767 0.000163693 -0.000519182 3.93779e-11 4.04328e-11 -3.26862e-11 5e-05 1.46608e-10 
240 1 0.0754738 0.0167005 0.00754083 0.00564877 0.000212338 -0.000544344 1.74589e-10 -1.3617e-10 1.1008e-10 5e-05 1.46608e-10 
241 1 0.0754145 0.0164656 0.00771771 0.0058395 0.00017603 -0.000530447 7.21579e-11 9.7613e-11 -7.66267e-11 5e-05 1.46608e-10 
242 1 0.0756694 0.0172224 0.00721752 0.00564447 0.000465387 -0.000117818 1.04696e-10 1.10042e-10 -5.43451e-11 5e-05 1.46608e-10 
243 1 0.0753745 0.0163091 0.0078356 0.0057739 0.000153606 -0.000509522 -4.1986e-11 -7.36335e-11 5.79946e-11 5e-05 1.46608e-10 
244 1 0.0754346 0.0165438 0.00765878 0.00587816 0.000179197 -0.000535666 -9.146e-11 7.48712e-11 -5.08363e-11 5e-05 1.46608e-10 
245 1 0.075644 0.0174737 0.00718029 0.00565961 0.000358617 -0.000299992 -1.23312e-10 -8.24477e-11 -1.29845e-11 5e-05 1.46608e-10 
246 1 0.0755428 0.0168536 0.00743698 0.00572948 0.000412965 -0.000110031 -2.4992e-11 -1.79297e-10 9.74806e-11 5e-05 1.46608e-10 
247 1 0.0819246 0.0175768 0.00726212 0.00563254 0.000416709 0.000161003 -1.86131e-10 1.55484e-10 -9.53777e-11 5e-05 1.46608e-10 
248 1 0.0819616 0.017764 0.00717452 0.00562752 0.000272931 0.000235564 -5.99652e-10 4.42645e-10 -4.93329e-10 5e-05 1.46608e-10 