ITEM: TIMESTEP
32000000
ITEM: NUMBER OF ATOMS
211
ITEM: BOX BOUNDS ff ff ff
-0.02 0.43
-0.02 0.06
-0.02 0.07
ITEM: ATOMS id type x y z vx vy vz fx fy fz radius mass 
1 1 0.200034 0.01783 0.00698207 0.00578364 0.000337592 -0.000127872 1.96425e-10 -6.32617e-10 1.17307e-10 5e-05 1.46608e-10 
2 1 0.199654 0.0177048 0.00701713 0.00574998 0.000562905 3.08796e-05 2.74733e-12 1.18039e-11 2.1248e-12 5e-05 1.46608e-10 
3 1 0.187752 0.0181973 0.00694578 0.00568965 0.000106715 -0.000125647 1.28946e-10 -7.78022e-11 1.21045e-11 5e-05 1.46608e-10 
4 1 0.199409 0.0163034 0.00785954 0.0062586 0.000307542 6.48516e-05 -3.90083e-10 -5.77378e-10 3.36944e-10 5e-05 1.46608e-10 
5 1 0.199808 0.0175943 0.00709182 0.00573422 0.000488377 5.80125e-05 5.63083e-11 -2.74835e-10 2.16854e-10 5e-05 1.46608e-10 
6 1 0.205458 0.0168356 0.00751898 0.0055128 -0.000599284 0.000674304 1.93832e-12 -4.02443e-11 3.73423e-12 5e-05 1.46608e-10 
7 1 0.199184 0.0157909 0.00819553 0.00618469 -0.000128123 -0.000581804 -2.47849e-10 6.06116e-13 -2.37906e-11 5e-05 1.46608e-10 
8 1 0.19927 0.0161108 0.00797686 0.00628198 0.000338893 5.64269e-05 7.86071e-11 -1.84581e-10 1.4755e-10 5e-05 1.46608e-10 
9 1 0.205651 0.0176933 0.00706606 0.00541471 -0.000899174 0.000313174 -2.65728e-11 1.9247e-11 -1.2731e-11 5e-05 1.46608e-10 
10 1 0.199205 0.0158581 0.00812448 0.00633403 0.000133223 -0.000294745 -1.02561e-10 -2.10061e-11 5.76639e-11 5e-05 1.46608e-10 
11 1 0.199231 0.0159409 0.00807457 0.00630927 0.000341854 4.7131e-05 -5.80895e-11 -4.90332e-11 6.29292e-11 5e-05 1.46608e-10 
13 1 0.199599 0.0174497 0.00716539 0.0056941 0.000472981 3.82895e-05 1.39931e-10 -5.44733e-11 7.96669e-11 5e-05 1.46608e-10 
15 1 0.199672 0.0177035 0.0071155 0.00580194 0.000546573 2.32141e-05 -6.25679e-11 1.61171e-10 3.0719e-11 5e-05 1.46608e-10 
17 1 0.199617 0.0171424 0.00735353 0.00591769 0.000380297 6.20945e-06 1.8842e-10 4.40651e-11 6.37738e-12 5e-05 1.46608e-10 
18 1 0.20569 0.017889 0.00705262 0.00536432 -0.000890929 0.000310787 -3.20613e-11 -6.26737e-12 -1.88987e-12 5e-05 1.46608e-10 
19 1 0.199055 0.0155469 0.00883845 0.00577986 -0.000103022 -0.000577432 2.688e-10 1.51886e-11 -4.33545e-11 5e-05 1.46608e-10 
20 1 0.199867 0.0183146 0.00689948 0.00582196 0.000402618 -0.000140927 1.027e-10 2.40001e-10 -4.70211e-11 5e-05 1.46608e-10 
21 1 0.199073 0.0155817 0.00874645 0.00586243 -0.000111313 -0.000568534 2.44748e-10 3.43963e-12 -1.52263e-10 5e-05 1.46608e-10 
22 1 0.19992 0.0177097 0.00703092 0.00574762 0.000508647 5.60812e-05 -1.79438e-10 -2.38875e-10 1.27739e-10 5e-05 1.46608e-10 
23 1 0.193658 0.0177317 0.00703821 0.00564032 9.77546e-05 -0.000143034 1.87992e-11 -1.0533e-11 -1.02652e-12 5e-05 1.46608e-10 
24 1 0.205631 0.0175955 0.00707275 0.00554686 -0.000925212 0.000322554 4.52786e-11 3.21387e-11 2.1918e-11 5e-05 1.46608e-10 
25 1 0.199656 0.0173106 0.00725199 0.00572047 0.000403611 -8.29106e-05 -2.0301e-11 -8.23327e-11 -3.95553e-11 5e-05 1.46608e-10 
26 1 0.205536 0.0171635 0.00730507 0.00561757 -0.000976476 0.000213574 -1.0427e-10 4.53416e-11 -6.02317e-12 5e-05 1.46608e-10 
28 1 0.199847 0.0182175 0.00691667 0.00581456 0.000409327 -0.00014117 3.52588e-10 1.76166e-11 -2.23632e-12 5e-05 1.46608e-10 
29 1 0.199577 0.0169744 0.00745494 0.00559339 0.000336997 2.00016e-05 1.97723e-10 -4.75379e-10 2.90279e-10 5e-05 1.46608e-10 
30 1 0.199618 0.017534 0.00711503 0.00568871 0.000504575 6.21241e-05 1.09628e-10 -1.61804e-10 1.06056e-10 5e-05 1.46608e-10 
31 1 0.199248 0.0160255 0.00802424 0.00629094 0.000342517 5.49234e-05 -4.41076e-11 -1.06806e-10 1.03632e-10 5e-05 1.46608e-10 
32 1 0.199558 0.0168904 0.00750562 0.00524764 0.000377974 -1.85887e-05 3.64829e-10 -4.89321e-10 3.24454e-10 5e-05 1.46608e-10 
33 1 0.205477 0.0169126 0.00745813 0.00554983 -0.00061283 0.000681471 -9.57742e-11 -9.33416e-11 7.75042e-11 5e-05 1.46608e-10 
34 1 0.199483 0.0169454 0.00746891 0.00513748 0.000496004 -9.65115e-05 2.46831e-10 1.88289e-10 -1.22737e-10 5e-05 1.46608e-10 
36 1 0.20567 0.0177911 0.00705934 0.00537663 -0.000891726 0.000311091 -2.78035e-11 6.44521e-12 -1.73152e-12 5e-05 1.46608e-10 
37 1 0.199387 0.0162197 0.00790999 0.00628365 0.000340543 4.63835e-05 -5.98362e-11 -1.60201e-10 9.68149e-11 5e-05 1.46608e-10 
38 1 0.199789 0.017509 0.00714043 0.00572825 0.000498024 6.36599e-05 5.95388e-11 -2.77534e-10 2.10245e-10 5e-05 1.46608e-10 
39 1 0.205613 0.0175059 0.00711316 0.00553454 -0.000932445 0.000296762 4.84771e-12 7.6705e-11 1.279e-10 5e-05 1.46608e-10 
41 1 0.199112 0.0156509 0.00856293 0.00601088 -0.000110273 -0.000572475 6.43092e-11 2.11754e-12 -6.34788e-11 5e-05 1.46608e-10 
42 1 0.19977 0.0174239 0.00718919 0.00571744 0.00050026 6.61962e-05 -2.03654e-10 -1.83832e-10 1.45371e-10 5e-05 1.46608e-10 
44 1 0.199693 0.0178962 0.00697468 0.00573825 0.000429725 -9.38434e-05 -8.32018e-11 -1.88833e-10 2.30426e-10 5e-05 1.46608e-10 
45 1 0.205516 0.0170786 0.00735398 0.00559748 -0.000967546 0.000210574 1.24786e-11 -1.18264e-11 4.53614e-11 5e-05 1.46608e-10 
47 1 0.199148 0.0157256 0.00838083 0.0061444 -0.000142902 -0.000584876 -5.34004e-11 -1.63459e-11 -3.10427e-11 5e-05 1.46608e-10 
49 1 0.205555 0.0172485 0.00725614 0.00546385 -0.000953517 0.000209445 2.53297e-10 -4.98936e-11 2.09642e-11 5e-05 1.46608e-10 
50 1 0.199981 0.0184431 0.00687565 0.00585567 0.000439494 -0.000147776 7.25535e-11 1.90388e-10 -3.42369e-11 5e-05 1.46608e-10 
51 1 0.193833 0.0185919 0.00688067 0.00568708 0.000126635 6.78693e-05 -4.99388e-12 -2.57212e-11 1.33585e-12 5e-05 1.46608e-10 
52 1 0.199886 0.0184112 0.00688236 0.00582519 0.000452866 -0.000149689 -5.34643e-11 5.23455e-11 -6.55544e-12 5e-05 1.46608e-10 
53 1 0.205574 0.0173337 0.00720716 0.00543274 -0.00094896 0.000212672 1.11328e-10 1.75136e-12 -7.73961e-12 5e-05 1.46608e-10 
54 1 0.199942 0.01825 0.00690984 0.00585001 0.000417737 -0.000144212 1.08815e-10 2.23722e-10 -6.01193e-11 5e-05 1.46608e-10 
55 1 0.193619 0.0175448 0.00709775 0.00561263 0.000105873 -0.000145473 -2.59079e-11 5.51169e-11 -1.9379e-11 5e-05 1.46608e-10 
56 1 0.199845 0.0177681 0.00700015 0.00573898 0.000421579 -6.08079e-05 -1.19133e-10 -1.41146e-10 2.24885e-10 5e-05 1.46608e-10 
57 1 0.205496 0.0169937 0.00740289 0.00556009 -0.000946343 0.000210304 2.62095e-11 -5.43359e-11 5.47211e-11 5e-05 1.46608e-10 
59 1 0.199637 0.0172265 0.00730273 0.00583028 0.000425968 -3.09998e-05 2.19526e-10 -6.91508e-12 -6.70972e-11 5e-05 1.46608e-10 
60 1 0.200037 0.0182814 0.00690321 0.00584394 0.00042367 -0.000144911 -1.20501e-10 2.62637e-10 -3.71572e-11 5e-05 1.46608e-10 
61 1 0.199129 0.0156863 0.00847091 0.00612444 -0.000156065 -0.000584601 -2.64978e-11 -3.35877e-11 -7.35141e-11 5e-05 1.46608e-10 
62 1 0.199636 0.0176193 0.00706612 0.0057019 0.000512876 5.87621e-05 -1.16519e-10 -2.29077e-10 1.41546e-10 5e-05 1.46608e-10 
63 1 0.199335 0.0163595 0.00782217 0.00623865 0.000301947 6.75463e-05 -7.92415e-11 -2.44113e-10 1.47279e-10 5e-05 1.46608e-10 
64 1 0.205593 0.0174188 0.00715834 0.00542503 -0.000933552 0.000242759 -8.08913e-13 6.14831e-11 7.5682e-11 5e-05 1.46608e-10 
65 1 0.193279 0.016174 0.00799985 0.00614481 4.50522e-05 0.000120746 -6.046e-11 2.04161e-11 -3.40093e-11 5e-05 1.46608e-10 
66 1 0.193192 0.0158762 0.00825248 0.00610825 3.71432e-05 0.000125954 2.8111e-12 -7.30108e-12 4.48637e-12 5e-05 1.46608e-10 
67 1 0.199791 0.018379 0.00688914 0.00579291 0.000399318 -0.000139835 3.091e-11 1.36778e-10 -1.99824e-11 5e-05 1.46608e-10 
69 1 0.199939 0.0177985 0.00698871 0.00575489 0.000374367 -0.000146351 1.74349e-10 -3.92963e-10 4.3871e-10 5e-05 1.46608e-10 
70 1 0.199906 0.0185079 0.00686525 0.00582191 0.000414582 -0.000143224 1.33669e-11 5.76246e-11 -1.23283e-11 5e-05 1.46608e-10 
72 1 0.199452 0.0164706 0.00775875 0.00622531 0.000278729 8.09169e-05 -1.24758e-10 -1.43324e-10 6.26072e-11 5e-05 1.46608e-10 
73 1 0.199378 0.0165267 0.00772139 0.00622285 0.000287496 7.57526e-05 -2.99735e-11 2.95386e-11 -2.39363e-11 5e-05 1.46608e-10 
74 1 0.199811 0.0184756 0.00687203 0.00581476 0.000481933 -0.000154333 -2.56629e-11 1.39277e-11 -3.75467e-12 5e-05 1.46608e-10 
76 1 0.145405 0.0205718 0.00539992 7.45205e-15 9.11258e-15 -2.35014e-13 5.12787e-23 1.98653e-23 2.27475e-24 5e-05 1.46608e-10 
77 1 0.199771 0.0182825 0.00690624 0.00578582 0.000398201 -0.000139495 1.46301e-10 2.12856e-10 -3.99051e-11 5e-05 1.46608e-10 
78 1 0.193869 0.01833 0.00688556 0.00573487 0.000134782 6.82274e-05 -9.49489e-12 -2.73329e-11 1.52727e-12 5e-05 1.46608e-10 
80 1 0.19983 0.0185724 0.00685489 0.00578849 0.000385621 -0.000137273 3.05935e-12 2.87498e-11 -6.1224e-12 5e-05 1.46608e-10 
81 1 0.193462 0.0168311 0.00741399 0.00584115 -1.3593e-05 -4.95992e-05 -4.19737e-11 -3.4004e-11 -1.50369e-11 5e-05 1.46608e-10 
82 1 0.193388 0.0165451 0.00768296 0.00617619 -5.33979e-05 1.64884e-05 2.97218e-11 5.23356e-11 -2.51085e-11 5e-05 1.46608e-10 
84 1 0.205709 0.0179868 0.00704591 0.00535642 -0.000890607 0.000310335 4.82202e-12 -2.5538e-11 -3.26942e-12 5e-05 1.46608e-10 
85 1 0.199092 0.0156165 0.00865452 0.00592671 -9.94631e-05 -0.000567388 -7.73867e-11 -3.14521e-11 -1.27828e-10 5e-05 1.46608e-10 
86 1 0.200017 0.0181849 0.0069203 0.00586749 0.000410514 -0.000142697 6.4401e-11 2.48946e-10 -4.16215e-11 5e-05 1.46608e-10 
87 1 0.199542 0.0171971 0.00731693 0.00590129 0.000366708 1.62932e-05 5.29048e-10 1.76582e-10 -6.35187e-11 5e-05 1.46608e-10 
88 1 0.199962 0.0183465 0.00689275 0.00584113 0.000434152 -0.00014591 9.55676e-11 2.39037e-10 -3.37569e-11 5e-05 1.46608e-10 
90 1 0.199978 0.0179918 0.0069545 0.00580499 0.000377783 -0.000136797 4.54479e-10 -1.55132e-10 1.22032e-11 5e-05 1.46608e-10 
91 1 0.199502 0.0170293 0.00741822 0.00549209 0.000436305 -4.60163e-05 1.57551e-10 -1.38612e-10 8.96932e-11 5e-05 1.46608e-10 
92 1 0.199807 0.0180244 0.00695087 0.00576765 0.000407448 -0.000144716 1.65329e-10 -2.4565e-11 -8.67978e-11 5e-05 1.46608e-10 
93 1 0.205729 0.0180847 0.00703919 0.00537915 -0.000896429 0.000311966 -1.31035e-12 -2.98502e-11 5.98695e-12 5e-05 1.46608e-10 
94 1 0.199959 0.0178952 0.0069716 0.00578951 0.000365347 -0.000133355 2.06939e-10 -3.7695e-10 1.10214e-10 5e-05 1.46608e-10 
95 1 0.1994 0.0166103 0.007671 0.00621573 0.000289421 7.50711e-05 3.24912e-11 1.85042e-10 -1.13878e-10 5e-05 1.46608e-10 
96 1 0.199421 0.0166939 0.0076206 0.00620408 0.000301943 6.62809e-05 1.69582e-10 3.84287e-10 -2.27706e-10 5e-05 1.46608e-10 
98 1 0.200053 0.0179266 0.00696497 0.00580524 0.00034316 -0.000130618 -7.25636e-11 -1.93945e-10 2.40612e-11 5e-05 1.46608e-10 
99 1 0.193828 0.0176988 0.00704521 0.00563689 7.90387e-05 -0.000137139 -6.21513e-12 -9.07702e-12 1.84464e-11 5e-05 1.46608e-10 
101 1 0.193522 0.0170894 0.00727478 0.00557753 0.00019058 0.000210292 6.08356e-11 -7.46668e-11 2.57692e-11 5e-05 1.46608e-10 
102 1 0.0694385 0.0202053 0.00537268 3.95835e-15 4.45167e-15 -7.68275e-14 -2.77622e-22 9.58134e-22 4.15658e-23 5e-05 1.46608e-10 
104 1 0.0249839 0.0195037 0.00542543 -3.58904e-15 -5.77951e-16 5.85127e-14 -2.58494e-26 3.11162e-24 0 5e-05 1.46608e-10 
106 1 0.187694 0.0179062 0.00698745 0.00566317 0.000145049 8.99897e-05 1.28638e-10 -1.54171e-10 1.9707e-11 5e-05 1.46608e-10 
107 1 0.193366 0.0164716 0.00774727 0.00617255 4.02897e-05 0.000124567 3.78973e-11 9.26151e-12 1.59437e-11 5e-05 1.46608e-10 
108 1 0.199538 0.0168065 0.00755631 0.0051982 0.000494311 -9.26595e-05 2.48615e-10 1.92861e-10 -1.0405e-10 5e-05 1.46608e-10 
110 1 0.200112 0.0182162 0.00691368 0.00587653 0.000469109 -0.000153103 -9.16891e-11 4.14148e-10 -7.42926e-11 5e-05 1.46608e-10 
111 1 0.193542 0.0171783 0.00723368 0.00565727 0.000174753 0.000205193 -7.66198e-11 2.48698e-11 -2.17797e-11 5e-05 1.46608e-10 
112 1 0.193301 0.0162484 0.0079367 0.00614152 4.8178e-05 0.00011733 2.87551e-11 -6.41221e-12 4.80721e-12 5e-05 1.46608e-10 
115 1 0.199463 0.0168614 0.00751959 0.00518149 0.000493488 -9.21051e-05 1.59398e-10 3.16363e-10 -1.7255e-10 5e-05 1.46608e-10 
116 1 0.200057 0.018378 0.0068861 0.00585048 0.000440619 -0.000147984 2.75104e-11 -2.48862e-11 3.40998e-12 5e-05 1.46608e-10 
117 1 0.199998 0.0180883 0.0069374 0.00584057 0.000386246 -0.000137887 3.50937e-10 1.26467e-10 -3.16632e-11 5e-05 1.46608e-10 
118 1 0.193444 0.0167558 0.00747712 0.00581073 -0.000133626 -0.00019872 5.33932e-11 -5.50073e-12 -7.80295e-11 5e-05 1.46608e-10 
119 1 0.19985 0.018669 0.0068378 0.00579624 0.000398087 -0.000134988 -1.44221e-11 -2.88214e-11 -1.97219e-10 5e-05 1.46608e-10 
120 1 0.199037 0.0155122 0.00893035 0.00571648 -9.55062e-05 -0.000587438 -1.78713e-11 -3.49755e-11 -2.78525e-11 5e-05 1.46608e-10 
121 1 0.200073 0.0180232 0.00694787 0.00582741 0.000340208 -0.000129577 2.57508e-10 -1.74352e-10 1.91623e-11 5e-05 1.46608e-10 
122 1 0.199903 0.0180569 0.00694404 0.00580867 0.000404385 -0.000140298 4.57115e-10 -6.09441e-11 8.88985e-12 5e-05 1.46608e-10 
124 1 0.199732 0.0180894 0.00694043 0.00574906 0.00041419 -0.000143374 -3.48601e-11 4.59892e-11 7.94887e-12 5e-05 1.46608e-10 
125 1 0.199431 0.016387 0.00780916 0.00623382 0.000292031 7.36353e-05 -2.25317e-10 -2.5362e-10 1.60782e-10 5e-05 1.46608e-10 
126 1 0.199313 0.0162759 0.00787257 0.00625622 0.000317506 5.87663e-05 -1.20649e-10 -2.67864e-10 1.50302e-10 5e-05 1.46608e-10 
127 1 0.193789 0.0175118 0.00710475 0.0056024 8.36712e-05 -0.000135758 -2.59157e-11 -1.10778e-10 -3.86055e-11 5e-05 1.46608e-10 
128 1 0.199749 0.0177353 0.0070052 0.0057126 0.000476648 6.11871e-05 8.30733e-12 -2.24075e-10 2.82978e-10 5e-05 1.46608e-10 
129 1 0.193716 0.0180122 0.0069489 0.00568345 8.87512e-05 -0.000140367 3.23747e-12 -7.94693e-12 4.47967e-13 5e-05 1.46608e-10 
131 1 0.193639 0.0176383 0.00706798 0.00562894 0.000101526 -0.00014386 -1.93626e-11 1.27855e-11 4.56563e-13 5e-05 1.46608e-10 
132 1 0.199522 0.0171132 0.00736758 0.00578944 0.000373923 4.71475e-06 3.23373e-10 -2.50123e-10 2.25159e-10 5e-05 1.46608e-10 
133 1 0.200001 0.0185396 0.00685855 0.00585967 0.000440746 -0.000147709 1.19098e-10 6.24896e-11 -3.16987e-11 5e-05 1.46608e-10 
134 1 0.199768 0.0178313 0.0069851 0.00573911 0.000424644 -9.56403e-05 -1.14971e-10 -5.54855e-11 4.95773e-10 5e-05 1.46608e-10 
135 1 0.199357 0.0164431 0.00777179 0.00623012 0.000290795 7.40495e-05 -1.08336e-11 -8.89623e-11 5.88555e-11 5e-05 1.46608e-10 
136 1 0.193695 0.0174816 0.00711614 0.00559081 8.66606e-05 -0.000147782 -4.45382e-11 -4.93646e-12 -1.33778e-10 5e-05 1.46608e-10 
137 1 0.199788 0.0179278 0.00696797 0.00575368 0.000406992 -0.000148019 -4.02385e-11 -1.05929e-10 -2.65309e-11 5e-05 1.46608e-10 
138 1 0.199443 0.0167776 0.00757016 0.00580192 0.000379847 2.05973e-06 4.65262e-10 4.43086e-10 -2.69035e-10 5e-05 1.46608e-10 
140 1 0.199713 0.0179928 0.00695753 0.00574513 0.000415296 -0.000143624 4.93449e-11 -2.27282e-14 5.67572e-11 5e-05 1.46608e-10 
141 1 0.193344 0.0163973 0.0078104 0.00616319 4.48616e-05 0.000123872 -3.46872e-11 -1.54046e-11 1.69444e-11 5e-05 1.46608e-10 
143 1 0.393994 0.0150325 6.48596e-05 -2.1271e-21 1.6267e-21 -1.45327e-21 0 0 0 5e-05 1.46608e-10 
146 1 0.193847 0.0177922 0.00701544 0.00565161 7.77838e-05 -0.000136722 -1.37725e-11 1.96835e-11 -1.96062e-11 5e-05 1.46608e-10 
147 1 0.193697 0.0179187 0.00697867 0.00567052 9.24716e-05 -0.000141339 -1.60506e-11 -1.85279e-11 4.80829e-12 5e-05 1.46608e-10 
148 1 0.00864672 0.0178633 0.0077867 -0.0010159 -0.00669055 0.00366208 6.05092e-11 -3.72023e-10 7.48859e-11 5e-05 1.46608e-10 
149 1 0.199675 0.0173952 0.00720222 0.00570912 0.000458933 3.40308e-05 -1.65347e-10 -1.1732e-10 -1.88358e-10 5e-05 1.46608e-10 
150 1 0.193171 0.0158018 0.00831563 0.00610658 3.43158e-05 0.000128422 8.19035e-11 7.83342e-12 -7.79e-12 5e-05 1.46608e-10 
151 1 0.19383 0.0181366 0.00691021 0.00570062 0.000116241 -1.93005e-05 -3.16886e-11 -3.4912e-11 -2.99618e-11 5e-05 1.46608e-10 
154 1 0.193714 0.017575 0.00708637 0.00560855 9.0599e-05 -0.00014106 1.81917e-11 -5.69754e-11 -1.34885e-12 5e-05 1.46608e-10 
155 1 0.187772 0.0182942 0.00693077 0.00568688 0.000113563 -0.000129446 -3.39425e-11 3.04109e-11 4.42634e-11 5e-05 1.46608e-10 
157 1 0.19358 0.0173595 0.00715845 0.00574692 0.000124148 8.1719e-05 -7.69536e-11 1.06298e-10 -8.66828e-11 5e-05 1.46608e-10 
165 1 0.19385 0.0182319 0.00688699 0.00575549 0.000129476 6.97496e-05 -1.68556e-11 -3.10126e-11 1.97666e-12 5e-05 1.46608e-10 
166 1 0.199365 0.0161361 0.00796039 0.00628182 0.000341591 4.67858e-05 6.79105e-11 -3.11699e-10 1.4974e-10 5e-05 1.46608e-10 
168 1 0.260377 0.0180319 0.00773641 1.75144e-05 -0.0219896 0.00593902 -1.05645e-11 -2.79869e-10 1.01929e-10 5e-05 1.46608e-10 
171 1 0.199292 0.0161922 0.00792296 0.00627108 0.000328819 5.36533e-05 6.01623e-11 -2.61239e-10 1.5579e-10 5e-05 1.46608e-10 
172 1 0.193733 0.0176685 0.0070566 0.00563171 9.0353e-05 -0.000139082 -6.66281e-12 -5.16565e-11 1.30429e-11 5e-05 1.46608e-10 
176 1 0.193258 0.0160995 0.00806306 0.0061355 4.17939e-05 0.000122792 -4.2467e-11 1.02797e-10 -8.47057e-11 5e-05 1.46608e-10 
177 1 0.193322 0.0163228 0.00787355 0.00614749 4.85255e-05 0.000119162 -4.85131e-11 1.30804e-12 1.26499e-11 5e-05 1.46608e-10 
179 1 0.187674 0.0178085 0.00699629 0.00567363 0.000143936 9.31552e-05 -7.04779e-11 -2.24747e-10 8.8419e-11 5e-05 1.46608e-10 
181 1 0.193236 0.0160251 0.00812617 0.00613018 4.07686e-05 0.000123635 -1.41889e-11 1.25535e-10 -1.02902e-10 5e-05 1.46608e-10 
182 1 0.199517 0.016722 0.00760728 0.00629965 0.000846328 -0.000263692 1.56063e-10 -7.91645e-11 6.40737e-11 5e-05 1.46608e-10 
184 1 0.199674 0.0177999 0.00699291 0.00573003 0.000460652 1.3025e-05 -5.05522e-11 -2.80706e-10 3.32449e-10 5e-05 1.46608e-10 
187 1 0.199694 0.0174794 0.00715184 0.00570596 0.0004968 7.48367e-05 1.68927e-10 -1.15268e-10 1.71597e-10 5e-05 1.46608e-10 
188 1 0.199923 0.0181534 0.00692694 0.00583947 0.000409937 -0.00014318 2.37523e-10 8.72332e-11 -2.19241e-12 5e-05 1.46608e-10 
189 1 0.199825 0.0176797 0.00704258 0.00573956 0.000482795 6.9675e-05 -2.02664e-10 -2.37724e-10 1.00962e-10 5e-05 1.46608e-10 
191 1 0.199561 0.0172811 0.0072662 0.00578407 0.000390059 -1.12693e-05 1.13563e-10 2.15325e-10 -1.50281e-10 5e-05 1.46608e-10 
192 1 0.190515 0.0173282 0.00715422 0.00565466 -0.000835391 0.000331994 6.23999e-13 -9.42169e-14 3.77142e-14 5e-05 1.46608e-10 
193 1 0.202698 0.0181958 0.00689405 0.00551787 -0.001192 0.000341063 1.04938e-13 -3.11473e-14 9.71002e-15 5e-05 1.46608e-10 
197 1 0.193149 0.0157274 0.00837879 0.00610217 3.4836e-05 0.000127704 -4.64413e-12 2.72736e-11 -2.40871e-11 5e-05 1.46608e-10 
198 1 0.193772 0.0178555 0.00699706 0.00566324 8.63763e-05 -0.000139662 -1.2914e-12 -4.90783e-13 -1.39448e-13 5e-05 1.46608e-10 
200 1 0.193813 0.0184938 0.0068821 0.00570491 0.000123008 6.81553e-05 -5.74735e-12 -1.21974e-11 -1.26002e-12 5e-05 1.46608e-10 
201 1 0.193736 0.0181056 0.00691913 0.005699 8.59257e-05 -0.000139951 1.67232e-12 9.02631e-12 -2.90405e-12 5e-05 1.46608e-10 
203 1 0.19958 0.0173653 0.00721571 0.00568539 0.00042838 -1.93505e-05 -5.30804e-11 1.18081e-10 1.40482e-11 5e-05 1.46608e-10 
204 1 0.187655 0.017711 0.00700764 0.00569529 0.000112765 -0.000120849 -1.71381e-10 -1.90551e-10 -1.00488e-10 5e-05 1.46608e-10 
206 1 0.187713 0.0180035 0.00697581 0.00568506 0.000114922 -9.84326e-05 1.50363e-10 -1.17723e-10 -5.18747e-11 5e-05 1.46608e-10 
207 1 0.060646 0.0186723 0.00546139 1.16202e-15 5.18603e-15 3.71388e-14 -3.94849e-24 -2.58494e-26 0 5e-05 1.46608e-10 
208 1 0.193677 0.0178252 0.00700844 0.00565651 9.52074e-05 -0.000142054 3.64386e-12 -1.13613e-11 2.15035e-12 5e-05 1.46608e-10 
209 1 0.187483 0.0169498 0.00745549 0.00580047 0.000205915 0.000118303 -2.47033e-11 -1.80577e-10 1.2273e-10 5e-05 1.46608e-10 
210 1 0.199864 0.0178639 0.00697905 0.00577414 0.000399051 -0.000114578 1.59244e-10 -8.05498e-11 4.10129e-10 5e-05 1.46608e-10 
211 1 0.193794 0.0183957 0.00688352 0.00572258 0.000119394 6.84038e-05 3.78791e-12 -5.51848e-12 -1.33234e-12 5e-05 1.46608e-10 
212 1 0.193485 0.0169128 0.00736095 0.00583593 9.76369e-05 0.000122184 4.13591e-12 -6.20696e-11 5.98395e-11 5e-05 1.46608e-10 
213 1 0.19973 0.01765 0.00705402 0.00571306 0.000499125 6.42408e-05 -1.09916e-10 -2.5142e-10 1.84096e-10 5e-05 1.46608e-10 
214 1 0.19987 0.0187659 0.00682283 0.00579041 0.000463507 0.000267283 8.95798e-11 9.32958e-11 5.25293e-11 5e-05 1.46608e-10 
217 1 0.199474 0.0165543 0.00770836 0.00623573 0.000277268 8.26666e-05 -4.14765e-10 -7.62711e-11 5.34351e-11 5e-05 1.46608e-10 
218 1 0.199926 0.0186044 0.00684815 0.00583359 0.000420299 -0.000147271 2.60429e-11 1.83406e-11 -7.86917e-11 5e-05 1.46608e-10 
221 1 0.187424 0.0167015 0.00761301 0.0055839 0.000309337 4.19234e-05 4.76613e-11 -2.41683e-10 1.52573e-10 5e-05 1.46608e-10 
222 1 0.199167 0.015755 0.00828729 0.006165 -0.000123639 -0.000579752 -1.6747e-11 1.03626e-11 -7.24132e-12 5e-05 1.46608e-10 
223 1 0.208457 0.0170626 0.00727795 0.0055093 -0.00088889 0.000428902 7.29885e-12 3.60943e-11 -1.54703e-11 5e-05 1.46608e-10 
225 1 0.199713 0.0175647 0.00710302 0.00571091 0.00049773 6.35325e-05 1.8563e-10 -1.98585e-10 2.49353e-10 5e-05 1.46608e-10 
226 1 0.193601 0.0174551 0.00713793 0.00557183 0.000107137 -0.000172547 1.0273e-10 5.72996e-11 7.38268e-12 5e-05 1.46608e-10 
228 1 0.0507861 0.0189683 0.00558458 -5.35819e-15 -1.91058e-14 -2.87013e-13 2.16699e-22 1.16322e-24 -4.1359e-24 5e-05 1.46608e-10 
231 1 0.197479 0.018695 0.00523156 -1.10632e-15 -2.69835e-14 1.45242e-13 -1.03843e-22 -4.3427e-24 -1.44757e-24 5e-05 1.46608e-10 
232 1 0.189081 0.0184947 0.00541361 -2.15342e-15 1.3176e-15 5.80688e-14 9.65733e-23 1.16523e-22 1.44757e-24 5e-05 1.46608e-10 
234 1 0.199883 0.0179603 0.00696114 0.00578136 0.000401412 -0.000139147 3.9641e-10 -1.23238e-10 3.74069e-13 5e-05 1.46608e-10 
235 1 0.194679 0.0184196 0.00544868 1.52089e-14 9.62525e-14 2.34553e-13 1.28708e-21 -1.41344e-22 -9.09899e-24 5e-05 1.46608e-10 
238 1 0.187504 0.0170323 0.00740314 0.00566029 0.00021085 0.000109359 2.83906e-10 -3.71704e-10 2.57913e-10 5e-05 1.46608e-10 
239 1 0.187317 0.0162889 0.00787451 0.00620762 0.000193579 0.000143998 4.87549e-11 1.81101e-10 -1.17151e-10 5e-05 1.46608e-10 
240 1 0.187404 0.0166188 0.00766549 0.0059227 0.000281859 7.49111e-05 -2.30564e-10 -1.2526e-10 7.01978e-11 5e-05 1.46608e-10 
241 1 0.187339 0.0163714 0.00782226 0.00619774 0.000212494 0.000131406 4.47454e-11 1.78796e-10 -1.13304e-10 5e-05 1.46608e-10 
242 1 0.187792 0.0183911 0.00691576 0.00568859 0.000113504 -0.000130218 5.11842e-11 2.99626e-10 -4.19708e-11 5e-05 1.46608e-10 
243 1 0.187296 0.0162064 0.00792677 0.00621727 0.000187745 0.000148136 4.86973e-11 1.85852e-10 -1.15714e-10 5e-05 1.46608e-10 
244 1 0.187361 0.0164539 0.00777 0.00619012 0.000233233 0.000117655 2.83803e-11 1.84453e-10 -1.17458e-10 5e-05 1.46608e-10 
245 1 0.187523 0.0171153 0.00735045 0.00562566 0.000200936 0.000114175 2.93656e-10 -4.2134e-10 2.42106e-10 5e-05 1.46608e-10 
246 1 0.187444 0.0167843 0.00756049 0.00575342 0.000262139 8.06666e-05 -3.15603e-11 -2.52866e-10 1.78089e-10 5e-05 1.46608e-10 
248 1 0.193214 0.0159507 0.00818932 0.00612242 4.04952e-05 0.000123699 -9.12297e-11 5.96536e-11 -5.38521e-11 5e-05 1.46608e-10 
249 1 0.187561 0.0172823 0.00724722 0.00561633 0.000122261 -6.00769e-06 1.33347e-10 -2.02474e-10 3.89495e-11 5e-05 1.46608e-10 
251 1 0.199597 0.0170583 0.00740429 0.00578087 0.000322799 3.61432e-05 7.81258e-10 -2.46042e-10 1.98824e-10 5e-05 1.46608e-10 
252 1 0.187542 0.0171982 0.00729777 0.00563931 0.000187601 0.00012022 2.45521e-10 -1.89757e-10 2.15605e-10 5e-05 1.46608e-10 
254 1 0.204621 0.0183859 0.00764903 0.00608001 -0.00692686 0.000113361 -2.31298e-10 -3.15268e-10 6.55543e-11 5e-05 1.46608e-10 
255 1 0.19356 0.0172675 0.00719238 0.00572927 0.000164444 0.000198127 3.32916e-11 9.37526e-11 -1.20049e-11 5e-05 1.46608e-10 
256 1 0.205274 0.0170533 0.00813415 0.00328736 0.000320953 0.00189426 0 0 -1.43822e-09 5e-05 1.46608e-10 
257 1 0.193753 0.017762 0.00702683 0.00565048 8.99896e-05 -0.000139429 3.27514e-12 -2.06198e-11 2.1811e-11 5e-05 1.46608e-10 
258 1 0.193867 0.0178857 0.00698567 0.00565167 7.79885e-05 -0.000135789 -1.48009e-11 4.24433e-11 -1.83904e-11 5e-05 1.46608e-10 
259 1 0.18758 0.0173678 0.00719903 0.00559288 7.46137e-05 -0.000128904 -3.12499e-11 2.03115e-10 2.91114e-10 5e-05 1.46608e-10 
260 1 0.193791 0.0179489 0.00696729 0.00567786 8.35014e-05 -0.000138708 -1.24289e-11 -1.26362e-11 -1.96019e-12 5e-05 1.46608e-10 
261 1 0.193886 0.0179792 0.0069559 0.00565626 7.61825e-05 -0.00013963 -6.74355e-11 2.96152e-11 -2.78548e-11 5e-05 1.46608e-10 
262 1 0.193811 0.0180426 0.00693811 0.00566361 7.75445e-05 -0.00016761 -3.81208e-11 -1.91414e-12 8.74422e-12 5e-05 1.46608e-10 
263 1 0.187733 0.0181004 0.0069608 0.00569543 0.000103729 -0.000128655 1.46032e-10 -8.55661e-11 -4.08114e-11 5e-05 1.46608e-10 
265 1 0.193755 0.0181991 0.00688937 0.00575379 7.42227e-05 -0.000137304 7.46631e-12 2.51684e-11 -6.72327e-12 5e-05 1.46608e-10 
270 1 0.199827 0.018121 0.00693377 0.00579273 0.000406448 -0.000140664 4.3715e-11 3.29912e-11 -2.75565e-11 5e-05 1.46608e-10 
271 1 0.2675 0.018148 0.00770642 0.00105649 -0.0164082 0.00366807 -1.01311e-10 -2.97238e-10 9.04657e-11 5e-05 1.46608e-10 
272 1 0.187618 0.0175393 0.00710335 0.0056465 7.1505e-05 -0.000173695 -4.04555e-10 2.87145e-10 -1.09767e-10 5e-05 1.46608e-10 
273 1 0.043026 0.0180383 0.00773329 -0.000152088 -0.0204434 0.0054471 3.46325e-11 -2.80923e-10 9.87763e-11 5e-05 1.46608e-10 
274 1 0.187599 0.0174536 0.00715117 0.00558976 6.57618e-05 -0.00018032 -5.71326e-11 2.7048e-10 3.37099e-11 5e-05 1.46608e-10 
275 1 0.193775 0.0182976 0.00688495 0.0057407 0.000115135 6.85464e-05 -6.72843e-12 -1.54059e-11 -2.17822e-13 5e-05 1.46608e-10 
276 1 0.193502 0.0170003 0.00731551 0.00563002 0.000166699 0.000187114 7.75825e-11 -1.16184e-10 3.52088e-12 5e-05 1.46608e-10 
277 1 0.193409 0.0166166 0.00761622 0.00615531 -0.000235346 -0.000194242 4.50425e-13 6.08331e-11 -9.08599e-11 5e-05 1.46608e-10 
279 1 0.187811 0.018488 0.00690075 0.00568221 0.000107252 -0.000127969 9.38481e-11 4.6257e-10 -8.52716e-11 5e-05 1.46608e-10 
282 1 0.187464 0.016867 0.007508 0.00580448 0.000223969 0.000107009 3.79891e-11 -2.35437e-10 1.72094e-10 5e-05 1.46608e-10 
283 1 0.187382 0.0165363 0.00771775 0.00617792 0.000254139 0.000103649 6.30935e-11 1.5587e-10 -9.90852e-11 5e-05 1.46608e-10 
284 1 0.193428 0.0166847 0.00754555 0.00578266 -0.000275183 -0.000344343 6.76368e-11 6.47448e-11 -7.34493e-11 5e-05 1.46608e-10 
288 1 0.193809 0.0176053 0.00707498 0.00561443 8.22082e-05 -0.000136195 -1.61835e-11 -5.81019e-11 1.64379e-11 5e-05 1.46608e-10 
293 1 0.187636 0.0176251 0.00705545 0.00567035 7.52836e-05 -0.000181961 -5.42242e-10 1.31655e-10 -4.57184e-11 5e-05 1.46608e-10 
294 1 0.152576 0.0182562 0.00546336 5.21407e-16 -1.42409e-15 1.14573e-14 -2.58352e-22 2.27475e-24 1.40621e-23 5e-05 1.46608e-10 
295 1 0.253932 0.0173939 0.0079639 -1.24412e-06 -0.0212428 0.00993932 -7.90039e-14 4.80232e-11 -2.59316e-12 5e-05 1.46608e-10 
297 1 0.199752 0.0181859 0.00692333 0.00578396 0.000403353 -0.000140713 2.18678e-10 1.89007e-10 -4.96886e-11 5e-05 1.46608e-10 
300 1 0.199495 0.0166379 0.00765796 0.00624465 0.000323105 5.49332e-05 1.46306e-11 -2.03547e-11 1.72182e-11 5e-05 1.46608e-10 
