ITEM: TIMESTEP
9800000
ITEM: NUMBER OF ATOMS
284
ITEM: BOX BOUNDS ff ff ff
-0.02 0.43
-0.02 0.06
-0.02 0.07
ITEM: ATOMS id type x y z vx vy vz fx fy fz radius mass 
1 1 0.069892 0.0160978 0.00808491 0.00594163 -0.000187753 0.000343712 -2.23759e-10 -3.74433e-11 1.32753e-11 5e-05 1.46608e-10 
2 1 0.0702961 0.0168395 0.00750486 0.00596029 -0.000321881 0.000453157 -1.25659e-10 -2.68936e-10 1.80585e-10 5e-05 1.46608e-10 
3 1 0.0639775 0.0164359 0.0079035 0.00602689 0.000101272 8.0727e-05 -5.72563e-11 8.24262e-11 -6.12306e-11 5e-05 1.46608e-10 
4 1 0.070307 0.0172768 0.00721241 0.0055818 -0.000232004 0.000362465 2.75264e-10 1.36597e-10 -1.12252e-10 5e-05 1.46608e-10 
5 1 0.0697957 0.0160718 0.00810256 0.00594255 -0.000174766 0.000332816 9.33504e-11 -1.37641e-11 1.59394e-11 5e-05 1.46608e-10 
6 1 0.0759367 0.0165403 0.00763603 0.00623006 8.37232e-06 0.000151693 -3.06904e-11 -1.13259e-10 6.77855e-11 5e-05 1.46608e-10 
7 1 0.0699848 0.0164825 0.00778028 0.00603259 -0.000280474 0.000424145 4.02123e-10 -3.17188e-10 1.74883e-10 5e-05 1.46608e-10 
8 1 0.0698074 0.0157912 0.00832742 0.00547123 -7.10194e-05 0.000235597 -2.60065e-10 4.13222e-10 -3.46721e-10 5e-05 1.46608e-10 
9 1 0.0761834 0.0175842 0.00714972 0.00578907 -3.99169e-05 -0.000303283 1.64292e-11 -9.14327e-11 7.09785e-11 5e-05 1.46608e-10 
10 1 0.0699392 0.0165831 0.00769831 0.00604986 -0.000303496 0.000452593 -3.24406e-11 -5.27007e-11 8.30353e-12 5e-05 1.46608e-10 
11 1 0.0700652 0.0166938 0.00761388 0.00611644 -0.000289785 0.000430759 1.4428e-10 -1.66142e-10 9.06875e-11 5e-05 1.46608e-10 
12 1 0.0701489 0.0170008 0.00737145 0.00564966 -0.000406965 -0.000126476 3.05025e-10 -2.27042e-10 -2.33704e-10 5e-05 1.46608e-10 
13 1 0.0700764 0.0171339 0.00742015 0.00604303 -0.000300184 7.9085e-05 -3.88123e-10 -5.70793e-10 1.0008e-09 5e-05 1.46608e-10 
14 1 0.0636706 0.015617 0.0084892 0.00561755 5.69442e-05 -0.000155315 -5.20524e-11 1.30099e-11 -5.29495e-12 5e-05 1.46608e-10 
15 1 0.0700467 0.0169662 0.00739569 0.00606165 -0.000472952 0.000179973 -1.12558e-10 -6.60974e-11 5.56583e-11 5e-05 1.46608e-10 
16 1 0.0636515 0.0155365 0.00854543 0.00564491 5.43565e-05 -0.000153972 1.74743e-11 3.92662e-11 -2.64983e-11 5e-05 1.46608e-10 
17 1 0.0701156 0.017048 0.00745308 0.00608121 -0.000319112 -7.15374e-06 8.35171e-11 -3.03113e-10 -2.80893e-10 5e-05 1.46608e-10 
18 1 0.0760843 0.0171277 0.00728516 0.00573515 0.000126793 6.80229e-05 4.88573e-11 8.2257e-11 -7.21817e-11 5e-05 1.46608e-10 
19 1 0.0697528 0.0159186 0.00822373 0.00578439 -0.000155303 0.000313312 -2.98358e-10 7.98695e-11 -7.8415e-11 5e-05 1.46608e-10 
20 1 0.0702346 0.0170536 0.00743845 0.00532437 -0.000231313 0.000338146 -2.72652e-10 8.08464e-11 -1.30864e-11 5e-05 1.46608e-10 
21 1 0.0697742 0.0159952 0.00816314 0.00593141 -0.000166957 0.000326895 -6.48473e-11 4.71969e-11 -4.58438e-11 5e-05 1.46608e-10 
22 1 0.070108 0.016847 0.00749271 0.00615822 -0.000289806 0.00042837 -4.37036e-11 -1.62006e-10 2.66711e-10 5e-05 1.46608e-10 
23 1 0.0640332 0.0169614 0.00751617 0.00609585 8.4688e-05 9.3626e-05 1.4894e-10 -9.48173e-12 2.15882e-11 5e-05 1.46608e-10 
24 1 0.0761634 0.0174863 0.00715256 0.00580436 -2.9619e-05 -0.000300664 1.01896e-10 -9.42456e-12 -4.08519e-12 5e-05 1.46608e-10 
25 1 0.0700349 0.0165667 0.00776057 0.00600976 -0.000262443 0.000441062 2.01932e-10 -1.84875e-10 -7.23214e-11 5e-05 1.46608e-10 
26 1 0.0760236 0.0168755 0.00743585 0.00625459 3.59635e-05 0.000135732 -7.16294e-11 1.19771e-11 -1.25257e-11 5e-05 1.46608e-10 
27 1 0.0639466 0.0166464 0.00774698 0.00606794 0.000103114 7.99885e-05 6.2747e-11 1.49377e-10 -8.68273e-11 5e-05 1.46608e-10 
28 1 0.0700681 0.0169708 0.00749536 0.00603576 -0.000153657 0.000191746 4.77499e-10 2.92514e-11 1.04726e-09 5e-05 1.46608e-10 
29 1 0.0699135 0.0161745 0.00802433 0.00594932 -0.000207113 0.000359788 -1.59148e-10 -1.3847e-10 1.13057e-10 5e-05 1.46608e-10 
30 1 0.0703343 0.0171826 0.0072317 0.00562096 -0.000246246 0.000393065 4.33331e-10 8.80472e-11 -2.65726e-10 5e-05 1.46608e-10 
31 1 0.0700252 0.0168895 0.00745605 0.00611453 -0.000301203 0.000428321 1.14564e-10 1.43156e-11 4.27299e-10 5e-05 1.46608e-10 
32 1 0.0700864 0.0167706 0.00755354 0.00614269 -0.000291406 0.000428571 9.29768e-12 -2.26489e-10 1.26971e-10 5e-05 1.46608e-10 
33 1 0.0759584 0.0166241 0.00758599 0.00623533 1.38268e-05 0.000148639 -1.55247e-11 -4.27142e-11 2.51623e-11 5e-05 1.46608e-10 
34 1 0.0699269 0.0165626 0.00779541 0.0060637 -0.000286129 0.000478572 1.22618e-10 -3.10208e-10 3.83723e-11 5e-05 1.46608e-10 
36 1 0.0762039 0.017682 0.00714686 0.00578201 -3.95977e-05 -0.000307168 -5.17802e-11 -1.29666e-10 3.70088e-11 5e-05 1.46608e-10 
37 1 0.0699607 0.0166597 0.00763774 0.00607426 -0.000297321 0.000437432 9.12932e-11 7.98112e-11 5.51329e-11 5e-05 1.46608e-10 
38 1 0.0701295 0.0169237 0.00743208 0.00616635 -0.000117671 0.000285201 -3.45573e-10 2.99304e-10 -2.95614e-10 5e-05 1.46608e-10 
39 1 0.0761425 0.0173885 0.00715544 0.00582707 -2.50901e-05 -0.000297862 1.61795e-10 -2.3161e-11 -9.08067e-11 5e-05 1.46608e-10 
41 1 0.0698172 0.0161484 0.00804199 0.00595405 -0.00018297 0.000341507 -1.08445e-10 -1.1791e-10 8.13754e-11 5e-05 1.46608e-10 
42 1 0.0700037 0.0168129 0.00751662 0.0061259 -0.00028357 0.000426323 -4.55911e-11 -2.71957e-10 2.16325e-10 5e-05 1.46608e-10 
44 1 0.0702305 0.0169568 0.00740889 0.00554402 -0.000213934 0.000360249 -7.45467e-12 -8.63173e-11 -1.30808e-10 5e-05 1.46608e-10 
45 1 0.0760018 0.0167917 0.0074859 0.0062474 3.21096e-05 0.000137835 7.77092e-15 -7.12589e-13 -1.94166e-12 5e-05 1.46608e-10 
46 1 0.0760653 0.0170434 0.00733555 0.00574796 0.000120505 7.26597e-05 -6.05803e-11 1.39031e-10 -8.3754e-11 5e-05 1.46608e-10 
47 1 0.0698602 0.0163017 0.00792085 0.00599137 -0.000218564 0.000373172 2.39463e-15 1.12837e-10 1.8678e-10 5e-05 1.46608e-10 
48 1 0.0702114 0.0168798 0.00746982 0.00585504 -0.000261761 0.000396553 -1.44854e-10 -3.76616e-11 -3.18431e-11 5e-05 1.46608e-10 
49 1 0.0760453 0.0169593 0.00738581 0.00626249 3.42139e-05 0.000136834 8.40298e-11 1.07398e-10 -4.61651e-11 5e-05 1.46608e-10 
50 1 0.0701973 0.0172239 0.0072087 0.0057371 -0.000330091 0.000223247 2.81971e-11 -1.17076e-09 -5.40072e-10 5e-05 1.46608e-10 
51 1 0.070214 0.0171527 0.00727691 0.00558923 -0.000314026 0.000183977 2.70292e-10 -2.41411e-10 -3.31635e-10 5e-05 1.46608e-10 
52 1 0.0703396 0.0179097 0.00721889 0.0063211 -0.000388473 0.000425936 -3.84053e-10 2.36236e-10 -6.85764e-11 5e-05 1.46608e-10 
53 1 0.076114 0.0172098 0.00723635 0.005777 0.000112542 7.5096e-05 -1.83527e-10 2.94011e-11 -3.98089e-11 5e-05 1.46608e-10 
54 1 0.0698705 0.0160212 0.00814549 0.00591059 -0.000166452 0.000326087 9.92013e-11 -5.99586e-12 7.86319e-12 5e-05 1.46608e-10 
55 1 0.063709 0.0157778 0.00837674 0.00566761 5.15069e-05 -0.000152 2.45473e-11 1.77306e-11 -1.36722e-12 5e-05 1.46608e-10 
56 1 0.0699823 0.0167376 0.00757885 0.00610555 -0.000290098 0.000421688 1.44431e-10 -1.34753e-10 1.35687e-10 5e-05 1.46608e-10 
57 1 0.0759801 0.0167079 0.00753594 0.00624186 2.28048e-05 0.000143101 2.79556e-11 3.4469e-12 -1.53528e-12 5e-05 1.46608e-10 
59 1 0.0701468 0.0166501 0.00765153 0.0060794 -0.000325592 0.00045819 1.34164e-10 -2.27434e-10 1.68508e-10 5e-05 1.46608e-10 
60 1 0.0701681 0.0167267 0.00759092 0.00615025 -0.000322541 0.000456323 8.02222e-11 -1.52185e-10 1.05697e-10 5e-05 1.46608e-10 
61 1 0.0698387 0.0162251 0.00798142 0.0059715 -0.000201677 0.000353381 -1.21196e-10 -1.27912e-10 5.58557e-11 5e-05 1.46608e-10 
62 1 0.0702505 0.0171408 0.00736922 0.00535299 -0.000117704 0.000227236 -2.42879e-10 -6.97445e-11 7.86533e-10 5e-05 1.46608e-10 
63 1 0.0701896 0.0168033 0.00753035 0.00619225 -0.000316519 0.000451864 -7.89715e-11 -1.15867e-10 1.23952e-10 5e-05 1.46608e-10 
64 1 0.0761222 0.0172952 0.007185 0.00581722 0.000100989 8.30484e-05 6.19149e-11 2.9942e-11 1.00318e-10 5e-05 1.46608e-10 
65 1 0.0639899 0.0168039 0.00763158 0.0060936 9.58426e-05 8.63411e-05 -6.75392e-11 4.50224e-12 -1.53951e-11 5e-05 1.46608e-10 
66 1 0.0642177 0.0174692 0.00726072 0.00587523 0.000147256 4.70331e-05 1.96997e-11 1.15045e-11 -1.00246e-10 5e-05 1.46608e-10 
67 1 0.070319 0.0169945 0.00738159 0.00557284 -0.000260027 0.000385676 -1.00895e-10 -3.29824e-10 -6.64504e-11 5e-05 1.46608e-10 
68 1 0.070154 0.0170798 0.00730985 0.00553876 -0.000434869 -0.000135162 4.30459e-10 -1.17117e-10 5.76322e-10 5e-05 1.46608e-10 
69 1 0.0700452 0.016617 0.00767474 0.0061233 -0.00030291 0.000424455 1.98102e-10 -2.11467e-10 -9.48657e-11 5e-05 1.46608e-10 
70 1 0.0700892 0.0171559 0.00732347 0.00583054 -0.00033874 5.43174e-05 -5.80385e-10 -3.56258e-10 3.17487e-10 5e-05 1.46608e-10 
71 1 0.0636898 0.0156974 0.00843296 0.00559431 6.10344e-05 -0.000158423 5.53192e-11 1.46861e-11 -3.23525e-11 5e-05 1.46608e-10 
72 1 0.0702735 0.017231 0.00729476 0.00552385 -0.000268394 0.00034823 3.42369e-11 -1.03279e-10 -5.87871e-10 5e-05 1.46608e-10 
73 1 0.0701607 0.0172634 0.00729297 0.00578847 -0.000250147 0.000255345 4.91872e-10 -1.37697e-09 1.08816e-10 5e-05 1.46608e-10 
74 1 0.0705225 0.0174062 0.00722265 0.00563865 -0.000270432 -2.04423e-06 -8.62323e-11 1.90238e-10 -8.86898e-11 5e-05 1.46608e-10 
76 1 0.064604 0.0183033 0.00708172 0.00561885 0.0001159 -0.000203113 -9.29873e-11 1.07635e-10 6.28886e-12 5e-05 1.46608e-10 
77 1 0.0703279 0.0182648 0.00722069 0.00619237 -0.000453756 0.000417568 5.4069e-12 1.93482e-10 9.48419e-12 5e-05 1.46608e-10 
78 1 0.0637954 0.0160959 0.00815035 0.00598469 0.000127675 5.9486e-05 3.62346e-12 4.76988e-11 -3.47464e-11 5e-05 1.46608e-10 
79 1 0.0640551 0.0170401 0.00745851 0.00610512 7.71761e-05 9.97933e-05 5.58085e-11 1.41205e-11 -2.59196e-11 5e-05 1.46608e-10 
80 1 0.0701807 0.0175807 0.00720573 0.00567781 -0.000378535 0.000396091 1.87093e-10 2.82347e-10 -1.63207e-10 5e-05 1.46608e-10 
81 1 0.0639683 0.0167252 0.00768928 0.00607456 9.67722e-05 8.41044e-05 1.299e-10 1.0309e-10 -6.60872e-11 5e-05 1.46608e-10 
82 1 0.0640115 0.0168827 0.00757387 0.0061056 9.41862e-05 8.83474e-05 -9.85884e-12 6.90254e-12 5.56619e-12 5e-05 1.46608e-10 
83 1 0.0639034 0.0164889 0.00786238 0.00603189 0.000110319 7.39407e-05 -9.31897e-11 -1.21238e-10 6.18173e-11 5e-05 1.46608e-10 
84 1 0.0762243 0.0177799 0.007144 0.00576713 -3.94716e-05 -0.000304468 1.12595e-12 -4.98249e-11 -2.37409e-11 5e-05 1.46608e-10 
85 1 0.0697126 0.015765 0.0083453 0.00550152 -0.000145365 0.000295977 -2.98869e-11 4.52171e-11 -4.32451e-11 5e-05 1.46608e-10 
86 1 0.0702383 0.0174201 0.00720844 0.00607105 -0.00186369 0.000697567 6.3218e-09 -3.62543e-09 1.27529e-09 5e-05 1.46608e-10 
87 1 0.0702742 0.016763 0.00756537 0.00620475 -0.000373797 0.000502774 2.13486e-11 -1.21738e-10 5.95304e-11 5e-05 1.46608e-10 
88 1 0.0702614 0.0179724 0.00721404 0.00479537 -5.01642e-05 0.000325142 -8.09859e-10 -2.4042e-12 -6.01404e-11 5e-05 1.46608e-10 
89 1 0.0702788 0.017616 0.00721262 0.00567422 -0.000263425 0.000371711 -3.32763e-10 -4.31559e-10 -8.72146e-11 5e-05 1.46608e-10 
90 1 0.0704023 0.0173088 0.00721874 0.00554788 -0.000126923 0.000387496 -1.93307e-11 5.89835e-10 -9.92097e-11 5e-05 1.46608e-10 
91 1 0.0700993 0.0171926 0.00723101 0.00573359 -0.000339052 6.50599e-05 -3.64301e-10 -4.13814e-10 6.63092e-10 5e-05 1.46608e-10 
92 1 0.0704225 0.0174067 0.00722083 0.00562841 -0.000145162 0.000381588 2.78532e-10 5.61178e-10 1.33258e-11 5e-05 1.46608e-10 
93 1 0.0704285 0.0178642 0.00722458 0.00636064 -0.00030312 0.000428674 -3.94598e-10 3.93734e-11 -2.16283e-11 5e-05 1.46608e-10 
94 1 0.0702586 0.0175181 0.00721053 0.00576621 -0.00031099 0.000415181 1.87319e-11 -8.93396e-10 -1.31137e-10 5e-05 1.46608e-10 
95 1 0.0701605 0.0174828 0.00720412 0.00618217 -0.000616055 -0.000476113 1.77541e-09 7.98721e-09 -6.86079e-10 5e-05 1.46608e-10 
96 1 0.0703677 0.0175705 0.00721831 0.00573557 -0.000174544 0.00038514 4.41382e-11 1.87574e-10 1.02311e-10 5e-05 1.46608e-10 
97 1 0.0641725 0.0171454 0.00738363 0.00606418 0.000119956 6.70473e-05 1.43526e-11 -1.03639e-10 7.2875e-11 5e-05 1.46608e-10 
98 1 0.0703049 0.0181675 0.00721842 0.0062757 -0.00046652 0.000422401 7.04105e-11 1.13411e-10 -1.68061e-11 5e-05 1.46608e-10 
99 1 0.0640764 0.0171189 0.00740077 0.00612861 6.78311e-05 0.000107213 -7.27291e-11 -3.28347e-12 -1.23563e-11 5e-05 1.46608e-10 
100 1 0.0705427 0.0175044 0.00722531 0.00576321 -0.000327842 1.09444e-05 7.93346e-10 1.21934e-10 -2.4808e-10 5e-05 1.46608e-10 
101 1 0.0640208 0.0165934 0.00778809 0.00605375 9.23203e-05 8.7315e-05 5.80333e-12 4.80943e-11 -2.56336e-11 5e-05 1.46608e-10 
102 1 0.0694385 0.0202053 0.00537268 3.93188e-15 4.43552e-15 -7.68298e-14 -7.60373e-22 5.35755e-22 -1.19941e-23 5e-05 1.46608e-10 
104 1 0.0641298 0.0169876 0.00749927 0.0061089 8.49284e-05 9.40839e-05 1.42077e-10 2.22798e-10 -1.70862e-10 5e-05 1.46608e-10 
105 1 0.0638601 0.0163314 0.00797779 0.00601646 0.000115246 6.95073e-05 -1.32998e-11 -6.3395e-13 1.16602e-11 5e-05 1.46608e-10 
106 1 0.0642286 0.017385 0.00720785 0.00588318 0.000135085 5.48223e-05 -3.49508e-11 -6.68065e-11 3.06938e-11 5e-05 1.46608e-10 
107 1 0.0638175 0.0161799 0.00810082 0.00599391 0.000122931 6.26367e-05 6.02923e-11 1.96936e-11 -3.72403e-13 5e-05 1.46608e-10 
108 1 0.0699028 0.0164744 0.00783703 0.00598332 -0.000213709 0.000376784 -1.50441e-10 -1.31871e-11 -3.23385e-10 5e-05 1.46608e-10 
109 1 0.0701198 0.017287 0.00720483 0.00573489 -0.000368469 0.000249028 -5.00869e-10 -1.90854e-09 -1.97866e-11 5e-05 1.46608e-10 
110 1 0.0702991 0.0177139 0.00721471 0.00564483 -0.000243259 0.000375233 -2.7607e-11 -1.32246e-10 1.86034e-11 5e-05 1.46608e-10 
111 1 0.0704058 0.0182022 0.00722551 0.00623465 -0.000351574 0.000419948 -1.22356e-10 6.35927e-10 8.77926e-12 5e-05 1.46608e-10 
112 1 0.063925 0.0165677 0.00780468 0.00605298 0.000110484 7.51142e-05 -1.7813e-10 2.58672e-12 -8.9893e-12 5e-05 1.46608e-10 
113 1 0.0642511 0.0170967 0.00742173 0.00608991 0.000145383 5.00021e-05 -5.97369e-11 -1.41075e-10 1.00108e-10 5e-05 1.46608e-10 
115 1 0.0701401 0.0173849 0.00720432 0.00576795 -0.00056566 0.000162126 -2.57349e-10 9.45172e-10 -4.36718e-09 5e-05 1.46608e-10 
116 1 0.0701268 0.0165732 0.00771233 0.00599368 -0.000324296 0.000455428 1.06142e-10 -2.67604e-10 2.39175e-10 5e-05 1.46608e-10 
117 1 0.0699766 0.0164045 0.00784237 0.00600228 -0.000267239 0.000421724 2.14942e-10 -2.91624e-10 2.74325e-10 5e-05 1.46608e-10 
118 1 0.0637521 0.015938 0.00826507 0.00596211 7.0017e-05 -3.18908e-05 -5.60831e-11 -1.92489e-11 -3.21429e-11 5e-05 1.46608e-10 
119 1 0.0703024 0.017108 0.00729027 0.00556765 -0.000261714 0.000391053 7.12459e-10 -1.89866e-10 9.79496e-11 5e-05 1.46608e-10 
120 1 0.0697322 0.0158419 0.00828444 0.00555446 -0.000135383 0.000289339 -3.33106e-10 7.35199e-11 -6.68597e-11 5e-05 1.46608e-10 
121 1 0.0698278 0.015868 0.00826668 0.00563835 -0.000103359 0.000266612 -2.2265e-10 2.9854e-10 -2.5041e-10 5e-05 1.46608e-10 
122 1 0.0703882 0.0176684 0.00722041 0.00562775 -0.000154389 0.000377075 -2.25278e-10 2.17134e-10 -9.12984e-11 5e-05 1.46608e-10 
123 1 0.0638817 0.0164102 0.00792009 0.00602249 0.000109684 7.32981e-05 1.07828e-10 -4.06784e-11 2.66862e-11 5e-05 1.46608e-10 
124 1 0.070201 0.0176786 0.0072078 0.00562974 -0.000325556 0.000339632 -1.01606e-10 -3.31962e-10 5.30081e-11 5e-05 1.46608e-10 
125 1 0.069849 0.0159446 0.00820605 0.0059211 -0.000160276 0.000321291 -5.62621e-11 1.415e-10 -1.07191e-10 5e-05 1.46608e-10 
126 1 0.0700663 0.0170529 0.00734978 0.00555578 -0.000559149 -0.000186468 1.1403e-10 -2.5819e-10 1.42328e-10 5e-05 1.46608e-10 
127 1 0.0643231 0.0175097 0.0072266 0.00581183 0.000239331 -3.6199e-05 1.22913e-10 -1.1879e-10 4.95199e-11 5e-05 1.46608e-10 
128 1 0.0703272 0.0173747 0.00721413 0.00547114 -0.000169803 0.000371789 -5.41243e-10 2.15475e-10 -4.92762e-11 5e-05 1.46608e-10 
129 1 0.0703196 0.0178118 0.00721681 0.00590415 -0.000298391 0.000399032 -4.84102e-11 1.93772e-10 1.75357e-11 5e-05 1.46608e-10 
131 1 0.0641512 0.0170665 0.0074415 0.00616143 8.50617e-05 9.6421e-05 -1.51738e-12 1.88899e-10 -1.08849e-10 5e-05 1.46608e-10 
132 1 0.0703474 0.0174726 0.00721622 0.00582616 -0.000206747 0.000395004 8.97267e-10 -2.91272e-11 3.19848e-10 5e-05 1.46608e-10 
133 1 0.0699355 0.016251 0.00796385 0.0058832 -0.000223756 0.000369955 7.27791e-10 -2.72265e-10 2.21355e-10 5e-05 1.46608e-10 
134 1 0.0704271 0.0169908 0.0073881 0.00552735 -0.000265231 0.00039092 3.84473e-10 2.14152e-11 -8.71305e-12 5e-05 1.46608e-10 
135 1 0.0700546 0.0163448 0.00789266 0.00595119 -0.000321243 0.000449991 -3.13336e-10 -1.73585e-10 1.21396e-10 5e-05 1.46608e-10 
136 1 0.0637768 0.0160167 0.00820848 0.00597402 0.000130257 5.84745e-05 -8.95623e-11 3.89037e-11 -2.88202e-11 5e-05 1.46608e-10 
137 1 0.0703504 0.0183622 0.00722293 0.00552769 -0.000306491 0.000372416 1.1245e-10 1.82179e-10 1.33296e-11 5e-05 1.46608e-10 
138 1 0.070448 0.0179623 0.00722662 0.0064985 -0.000311197 0.000437654 -7.16046e-10 -1.67395e-11 -2.43292e-11 5e-05 1.46608e-10 
140 1 0.0702176 0.0173218 0.0072082 0.00579308 -0.000431822 0.000231436 -8.87246e-11 -2.84037e-09 -4.97313e-10 5e-05 1.46608e-10 
141 1 0.0639559 0.0163572 0.00796121 0.00601084 0.000106507 7.6105e-05 -2.9901e-11 3.55838e-11 -3.49082e-11 5e-05 1.46608e-10 
142 1 0.0640641 0.0167509 0.00767269 0.00607905 8.2515e-05 9.60632e-05 1.58896e-11 2.34898e-11 -3.56946e-11 5e-05 1.46608e-10 
143 1 0.0638385 0.0162527 0.00803549 0.00600091 0.000119979 6.60237e-05 -5.24684e-11 -2.25096e-11 1.88427e-11 5e-05 1.46608e-10 
146 1 0.0641413 0.0167008 0.00771174 0.0060773 8.10949e-05 9.67471e-05 5.2616e-11 1.64155e-11 -2.72137e-12 5e-05 1.46608e-10 
147 1 0.0637306 0.0158578 0.00832076 0.00586393 1.95609e-05 -0.000132665 -5.71182e-11 -5.09557e-12 -3.47363e-11 5e-05 1.46608e-10 
148 1 0.00854399 0.0167923 0.00832859 4.8506e-05 -0.0158757 0.0117094 1.18281e-12 1.06822e-10 -4.78101e-11 5e-05 1.46608e-10 
149 1 0.0702415 0.0178744 0.00721198 0.00563654 -0.000220419 0.000367089 -9.41049e-10 6.65073e-10 4.30892e-10 5e-05 1.46608e-10 
150 1 0.0640424 0.0166722 0.00773039 0.00606369 8.7317e-05 9.08636e-05 6.59622e-11 3.64292e-11 -2.44397e-11 5e-05 1.46608e-10 
151 1 0.0644822 0.0173212 0.0072616 0.00593769 0.000233599 -1.97787e-05 -4.29639e-11 -9.45626e-12 4.54231e-12 5e-05 1.46608e-10 
153 1 0.0641193 0.0166217 0.00776973 0.00606337 8.50234e-05 9.35381e-05 -7.59265e-11 2.24471e-11 -2.24472e-11 5e-05 1.46608e-10 
154 1 0.0642657 0.0175681 0.00713912 0.00571873 0.000187793 8.3064e-05 3.00201e-11 8.08033e-12 -5.03905e-11 5e-05 1.46608e-10 
155 1 0.0582457 0.0174684 0.0071971 0.00582779 0.000199549 -6.83597e-05 3.13679e-11 -5.57919e-11 1.37591e-11 5e-05 1.46608e-10 
156 1 0.0641519 0.0174356 0.00716845 0.00585112 9.77066e-05 7.75917e-05 -1.64378e-12 -6.06452e-11 5.14424e-11 5e-05 1.46608e-10 
157 1 0.0643356 0.0178475 0.00706789 0.00574265 9.83327e-05 -0.000204474 4.52699e-11 8.64199e-12 2.00382e-11 5e-05 1.46608e-10 
158 1 0.064371 0.0172108 0.00734042 0.00599606 0.000203141 4.22028e-06 -4.77349e-11 2.00139e-11 -1.39792e-11 5e-05 1.46608e-10 
159 1 0.0704428 0.0175046 0.00722292 0.00573976 -0.000171081 0.000391576 5.32696e-10 4.04756e-10 2.32974e-10 5e-05 1.46608e-10 
160 1 0.0642283 0.017798 0.0070693 0.00561766 -9.73851e-05 -0.000215816 5.39882e-11 1.19167e-10 9.2284e-12 5e-05 1.46608e-10 
162 1 0.0641929 0.0172252 0.00732516 0.00599593 0.000119412 6.57971e-05 -1.54124e-10 -7.54417e-11 4.5491e-11 5e-05 1.46608e-10 
163 1 0.0643882 0.0172902 0.00728212 0.00595066 0.00021093 -2.8194e-06 1.11968e-11 1.86926e-11 -1.19131e-12 5e-05 1.46608e-10 
164 1 0.0645251 0.0179115 0.00706418 0.00568845 0.000258975 -0.000198842 -6.41932e-11 -4.11542e-12 1.27027e-11 5e-05 1.46608e-10 
165 1 0.0643124 0.0169735 0.00751441 0.00625824 0.000169116 3.64946e-05 -1.94828e-10 3.91902e-11 -2.93511e-11 5e-05 1.46608e-10 
166 1 0.0696737 0.0156112 0.00846707 0.0055218 -0.000179365 0.000323993 -4.52781e-11 1.0359e-10 -6.02064e-11 5e-05 1.46608e-10 
167 1 0.0641648 0.0167815 0.00765269 0.00616375 0.000140133 5.5693e-05 -3.30361e-11 -5.52855e-11 3.7517e-11 5e-05 1.46608e-10 
168 1 0.0642918 0.0176565 0.00710032 0.00568386 0.000170969 3.51766e-05 -2.01689e-11 4.58991e-12 5.26545e-11 5e-05 1.46608e-10 
169 1 0.0644155 0.0174502 0.00716444 0.0058352 0.000345857 -0.000106085 1.97249e-10 -5.76047e-11 4.12942e-11 5e-05 1.46608e-10 
170 1 0.0643463 0.0175795 0.00706695 0.00557951 5.26069e-05 0.000108269 -7.725e-12 2.17409e-10 -1.93406e-10 5e-05 1.46608e-10 
171 1 0.0700768 0.0164213 0.0078322 0.00594729 -0.00032537 0.000454329 -2.39154e-10 -2.48468e-10 1.96446e-10 5e-05 1.46608e-10 
172 1 0.0645383 0.0175583 0.00708764 0.00579456 0.000250246 -3.60375e-05 4.87745e-11 -4.29735e-11 6.26955e-11 5e-05 1.46608e-10 
173 1 0.0703152 0.0169164 0.00744394 0.00571033 -0.000276455 0.000404371 -1.25203e-10 -2.91236e-10 1.67189e-10 5e-05 1.46608e-10 
174 1 0.0642482 0.0178959 0.00707367 0.00561117 -7.34952e-05 -0.000216206 -9.16534e-11 8.35855e-11 3.84599e-11 5e-05 1.46608e-10 
175 1 0.0610715 0.0173361 0.00716263 0.00579892 0.000461089 -0.000191665 1.35573e-12 9.60838e-14 -4.57609e-14 5e-05 1.46608e-10 
176 1 0.0641347 0.0173562 0.00722675 0.00590388 9.33217e-05 8.27335e-05 -5.90615e-11 -7.41057e-11 5.88287e-11 5e-05 1.46608e-10 
177 1 0.0646396 0.0180415 0.00706672 0.00561033 0.000191888 -0.000198263 -6.23315e-11 -4.11229e-10 -1.53981e-11 5e-05 1.46608e-10 
178 1 0.0645237 0.0174786 0.00714622 0.0058341 0.000246357 -3.23148e-05 -1.23986e-10 -4.69591e-11 2.57752e-11 5e-05 1.46608e-10 
179 1 0.0581321 0.0173397 0.00720088 0.0058657 0.000164131 -6.85053e-05 -5.2572e-11 4.84276e-11 -8.88606e-12 5e-05 1.46608e-10 
180 1 0.0643067 0.0173358 0.00724627 0.00591432 0.000170519 2.80579e-05 -1.45449e-11 -1.62594e-11 6.74205e-12 5e-05 1.46608e-10 
181 1 0.0643346 0.0174964 0.00712815 0.00575933 0.000263653 -4.54773e-05 1.60658e-10 -8.21743e-11 6.8715e-11 5e-05 1.46608e-10 
182 1 0.0702314 0.0166097 0.00768654 0.0060309 -0.000393003 0.00051079 3.90783e-10 -1.0661e-10 1.05046e-10 5e-05 1.46608e-10 
183 1 0.0644253 0.0175313 0.00710468 0.00575097 0.000279142 -5.92649e-05 2.56103e-10 -1.58027e-10 6.41716e-11 5e-05 1.46608e-10 
184 1 0.0703828 0.0181049 0.00722324 0.00634257 -0.000382763 0.000427786 -2.79805e-10 2.24064e-10 -1.2402e-11 5e-05 1.46608e-10 
185 1 0.0641699 0.0175149 0.00711025 0.00563326 0.000139942 4.64131e-05 1.17667e-10 -8.81554e-11 9.14666e-11 5e-05 1.46608e-10 
186 1 0.0642113 0.0173054 0.00726629 0.00593505 0.000128415 5.79578e-05 -8.95455e-11 -8.96912e-11 5.83762e-11 5e-05 1.46608e-10 
187 1 0.0702527 0.0166864 0.00762594 0.00611895 -0.000381724 0.000505315 1.58913e-10 -1.30032e-10 9.08151e-11 5e-05 1.46608e-10 
188 1 0.0704086 0.0177663 0.00722251 0.00585086 -0.000205504 0.000397259 -6.79431e-10 1.43592e-10 -5.54395e-11 5e-05 1.46608e-10 
189 1 0.0699567 0.0163276 0.00790321 0.00594517 -0.000256281 0.000400611 -1.83703e-11 -9.42384e-11 1.85119e-10 5e-05 1.46608e-10 
190 1 0.0646593 0.0181395 0.0070711 0.00558261 0.000121346 -0.000201787 8.58316e-11 1.22766e-10 8.60711e-12 5e-05 1.46608e-10 
191 1 0.0703696 0.0184603 0.00722494 0.00534582 -0.000283171 0.000359929 4.97755e-11 1.35529e-10 -3.75922e-14 5e-05 1.46608e-10 
192 1 0.0642442 0.0174737 0.00716441 0.00582177 0.000160133 4.09569e-05 3.1125e-11 2.53693e-11 3.79392e-12 5e-05 1.46608e-10 
193 1 0.0704775 0.0170702 0.00732621 0.00552128 -0.000206352 0.000348307 1.05458e-10 2.78902e-10 -1.25911e-10 5e-05 1.46608e-10 
194 1 0.0640862 0.0168301 0.00761466 0.00613545 0.000104877 8.02023e-05 -2.7683e-10 -2.00676e-10 1.49208e-10 5e-05 1.46608e-10 
195 1 0.0643801 0.0176748 0.00705722 0.0055975 3.7509e-06 -0.000206751 -9.86121e-11 -7.06987e-11 1.09555e-11 5e-05 1.46608e-10 
196 1 0.0636323 0.0154561 0.00860166 0.00567183 5.21019e-05 -0.000153086 1.62201e-11 8.71151e-11 -5.99065e-11 5e-05 1.46608e-10 
197 1 0.0642682 0.0179939 0.0070781 0.0056122 2.1351e-05 -0.000203576 -6.73526e-12 8.3386e-11 -1.12804e-10 5e-05 1.46608e-10 
198 1 0.0640976 0.0171977 0.007343 0.00602408 8.24819e-05 9.45011e-05 8.85015e-11 -6.61176e-11 3.94465e-11 5e-05 1.46608e-10 
199 1 0.0642079 0.0176977 0.00706482 0.00562633 -0.000138695 -0.000216748 -6.99122e-11 -2.60497e-10 -2.61227e-11 5e-05 1.46608e-10 
200 1 0.0641078 0.0169089 0.00755696 0.0061063 0.000103425 8.07744e-05 2.25131e-10 -7.7556e-11 4.67989e-11 5e-05 1.46608e-10 
201 1 0.064529 0.0183692 0.00708795 0.0056297 0.000121404 -0.00020343 -1.44399e-10 1.18899e-11 1.14756e-11 5e-05 1.46608e-10 
203 1 0.0705305 0.0172079 0.00721735 0.00553132 -0.000277566 1.16165e-05 6.12746e-11 8.74728e-11 -1.15267e-10 5e-05 1.46608e-10 
204 1 0.0642298 0.0170178 0.00747954 0.00621952 0.00013127 6.27981e-05 3.71203e-11 2.7815e-10 -2.29704e-10 5e-05 1.46608e-10 
205 1 0.0642879 0.0180919 0.00708243 0.00551132 2.84185e-05 -0.000202182 -1.03435e-10 9.4186e-11 -3.49254e-12 5e-05 1.46608e-10 
206 1 0.0643158 0.0177497 0.00707315 0.0057478 0.000111172 -0.000114863 2.30676e-12 -1.19152e-12 6.94805e-11 5e-05 1.46608e-10 
207 1 0.0640975 0.0165428 0.00782752 0.00604947 8.80477e-05 9.0828e-05 -5.28172e-11 1.76519e-11 -1.90308e-11 5e-05 1.46608e-10 
208 1 0.0641879 0.0175997 0.00706045 0.00566353 -4.10457e-06 -0.000211112 -5.59646e-11 -2.33486e-10 -7.77134e-12 5e-05 1.46608e-10 
209 1 0.0581509 0.0174379 0.00720539 0.00584184 0.000169134 -6.67936e-05 -4.2962e-11 1.97276e-12 3.05099e-12 5e-05 1.46608e-10 
210 1 0.0696932 0.0156881 0.00840618 0.00552881 -0.000162977 0.000310439 1.17263e-10 9.69923e-11 -8.36884e-11 5e-05 1.46608e-10 
211 1 0.0703592 0.0180078 0.00722093 0.00644307 -0.000412934 0.000435011 -3.6372e-10 2.07266e-10 -9.81874e-12 5e-05 1.46608e-10 
212 1 0.0644962 0.0174009 0.00720295 0.00588794 0.000235293 -2.20282e-05 8.58221e-12 -6.27491e-11 5.68813e-11 5e-05 1.46608e-10 
213 1 0.0703784 0.0170583 0.00733259 0.00556407 -0.000241417 0.000368635 -7.77117e-11 -2.36245e-10 -6.60519e-11 5e-05 1.46608e-10 
214 1 0.0702212 0.0177765 0.00720995 0.00561539 -0.000258235 0.000416689 5.9516e-10 3.97556e-10 2.87873e-10 5e-05 1.46608e-10 
215 1 0.0642896 0.0172564 0.00730457 0.00596946 0.000166678 3.09529e-05 -8.3919e-11 -5.29931e-11 4.2004e-11 5e-05 1.46608e-10 
216 1 0.0643535 0.0171314 0.00739868 0.0060423 0.000198537 8.79268e-06 -1.09323e-11 1.94926e-11 -1.95541e-11 5e-05 1.46608e-10 
217 1 0.0701052 0.0164966 0.00777288 0.00594203 -0.000323154 0.000453516 3.7829e-11 -3.08764e-10 2.45831e-10 5e-05 1.46608e-10 
218 1 0.0644303 0.0178795 0.00706604 0.00571634 0.000164614 -0.000203601 -2.03706e-11 -1.83505e-11 5.45202e-11 5e-05 1.46608e-10 
219 1 0.0702813 0.0180704 0.00721611 0.0063839 -0.000495031 0.000430114 -2.10736e-10 3.90672e-11 2.21033e-11 5e-05 1.46608e-10 
220 1 0.0642721 0.017177 0.00736283 0.00603907 0.000159727 3.76533e-05 -1.62318e-10 -7.41795e-11 5.19934e-11 5e-05 1.46608e-10 
221 1 0.0579977 0.0168315 0.00761483 0.00608744 0.000139759 -4.44394e-05 -1.39801e-10 -1.79699e-10 9.5839e-11 5e-05 1.46608e-10 
222 1 0.0698818 0.0163801 0.00786273 0.00599865 -0.00021918 0.000405414 1.37474e-10 2.50708e-11 -6.78392e-12 5e-05 1.46608e-10 
223 1 0.0643221 0.0174155 0.00718769 0.00586329 0.000199746 1.71636e-06 -4.95173e-12 5.13194e-11 -2.78286e-11 5e-05 1.46608e-10 
224 1 0.0641173 0.0172768 0.00728502 0.00595641 8.82974e-05 8.85823e-05 -7.63501e-11 -6.78814e-11 5.10541e-11 5e-05 1.46608e-10 
225 1 0.0704306 0.0172129 0.0072199 0.00555314 -0.00014738 0.000407002 -6.51861e-11 2.72099e-10 -1.37325e-10 5e-05 1.46608e-10 
226 1 0.0643337 0.0170524 0.00745665 0.00612566 0.000188406 1.82216e-05 2.75285e-12 5.72442e-13 6.46686e-12 5e-05 1.46608e-10 
227 1 0.0580615 0.0170393 0.00741109 0.00624378 0.000102567 -6.13216e-05 6.02734e-11 1.1887e-10 -4.96992e-11 5e-05 1.46608e-10 
228 1 0.0507861 0.0189683 0.00558458 -5.32919e-15 -1.91143e-14 -2.87013e-13 -7.45335e-23 4.52364e-24 1.86116e-24 5e-05 1.46608e-10 
229 1 0.0639126 0.0161997 0.00807661 0.00598422 0.000111017 7.18105e-05 2.46343e-12 -3.29307e-11 2.38925e-11 5e-05 1.46608e-10 
230 1 0.0643267 0.0182879 0.00709123 0.00543391 1.64716e-05 -0.000201089 -5.24763e-11 -2.65849e-11 1.18834e-11 5e-05 1.46608e-10 
231 1 0.197479 0.018695 0.00523156 -1.11652e-15 -2.69834e-14 1.45242e-13 3.38918e-23 -1.96455e-24 -6.20385e-25 5e-05 1.46608e-10 
232 1 0.0639342 0.0162784 0.00801891 0.00599868 0.00010915 7.36374e-05 -2.71831e-11 -4.05567e-11 2.60782e-11 5e-05 1.46608e-10 
233 1 0.0642084 0.016939 0.00753728 0.00615953 0.000140595 5.5113e-05 1.19263e-10 2.51464e-10 -1.81131e-10 5e-05 1.46608e-10 
234 1 0.069635 0.0154573 0.00858885 0.00551571 -0.00021642 0.000354498 1.16736e-10 1.90751e-10 -1.54722e-10 5e-05 1.46608e-10 
235 1 0.0644964 0.0186304 0.0071028 0.00568051 0.000110146 -0.000205772 -7.16814e-11 6.58662e-12 4.24296e-12 5e-05 1.46608e-10 
236 1 0.0645501 0.0184669 0.00709227 0.00566633 0.000117097 -0.000205031 -1.78347e-10 -5.19941e-11 1.35091e-11 5e-05 1.46608e-10 
237 1 0.0644538 0.0184351 0.00709419 0.00564349 0.000114887 -0.000202724 6.74582e-13 2.20397e-12 -2.80522e-11 5e-05 1.46608e-10 
238 1 0.0581715 0.0175353 0.00719659 0.00581574 0.000178505 -6.6853e-05 1.52213e-12 -6.11371e-11 1.73787e-11 5e-05 1.46608e-10 
239 1 0.0578919 0.0164863 0.0079607 0.00593583 0.000136267 -4.61348e-05 2.04537e-10 -1.76392e-10 1.57302e-10 5e-05 1.46608e-10 
240 1 0.0579785 0.0167622 0.00768435 0.00603884 0.000135724 -4.48933e-05 1.4398e-10 -4.3827e-11 1.01505e-10 5e-05 1.46608e-10 
241 1 0.0579131 0.0165553 0.00789152 0.00599206 0.000145005 -4.63071e-05 -2.39891e-10 -4.23633e-11 -4.83455e-12 5e-05 1.46608e-10 
242 1 0.0582273 0.0173701 0.00719924 0.00586467 0.000189833 -6.81469e-05 -6.95288e-11 -4.671e-11 -1.02571e-11 5e-05 1.46608e-10 
243 1 0.0578707 0.0164173 0.00802988 0.00593021 0.000137719 -4.42799e-05 1.40386e-10 -6.70039e-11 1.09175e-10 5e-05 1.46608e-10 
244 1 0.0579343 0.0166244 0.00782234 0.0060509 0.000132343 -3.2153e-05 3.7767e-10 3.54057e-11 -1.14334e-11 5e-05 1.46608e-10 
245 1 0.0581916 0.0176332 0.00719444 0.00580819 0.000181935 -6.68339e-05 -1.64812e-11 -5.09153e-11 2.14908e-12 5e-05 1.46608e-10 
246 1 0.0580322 0.0169 0.00755068 0.00614701 0.000130165 -4.25768e-05 -3.54667e-10 -1.65239e-10 -5.23939e-12 5e-05 1.46608e-10 
247 1 0.0644613 0.0176217 0.00708176 0.00580138 0.00025175 -9.09163e-05 8.37678e-11 -4.37504e-11 -8.75779e-11 5e-05 1.46608e-10 