ITEM: TIMESTEP
21600000
ITEM: NUMBER OF ATOMS
284
ITEM: BOX BOUNDS ff ff ff
-0.02 0.43
-0.02 0.06
-0.02 0.07
ITEM: ATOMS id type x y z vx vy vz fx fy fz radius mass 
1 1 0.138775 0.0164262 0.00799793 0.00616614 -0.000352565 0.000694513 3.00889e-10 -4.28451e-10 4.05847e-10 5e-05 1.46608e-10 
2 1 0.139169 0.0172625 0.00724458 0.00465008 -0.000282835 0.000309292 -5.35691e-10 -4.00211e-10 4.72199e-11 5e-05 1.46608e-10 
3 1 0.132681 0.0159393 0.00810867 0.00571457 -0.000603026 0.000100461 -5.6517e-11 -8.5775e-11 1.14453e-10 5e-05 1.46608e-10 
4 1 0.139158 0.0176166 0.00717006 0.00572713 -0.000909595 0.000503165 -2.56527e-10 1.77996e-10 1.20367e-10 5e-05 1.46608e-10 
5 1 0.138679 0.0164012 0.00801734 0.00591111 -0.000336822 0.000662254 3.16935e-10 -2.86066e-10 2.68657e-10 5e-05 1.46608e-10 
6 1 0.144661 0.0164942 0.00835601 0.00593346 0.000748408 0.00142785 9.04435e-13 9.28065e-13 -4.22693e-13 5e-05 1.46608e-10 
7 1 0.138778 0.0167521 0.00767544 0.00537197 -0.000261117 0.000534003 5.25299e-10 2.26599e-10 -1.80061e-10 5e-05 1.46608e-10 
8 1 0.138687 0.0161457 0.00827072 0.00563159 -0.000250335 0.000561 1.07261e-10 -3.57116e-10 3.60965e-10 5e-05 1.46608e-10 
9 1 0.14494 0.0174629 0.00769229 0.005899 0.000262399 0.00179526 2.07928e-10 9.84714e-11 9.09554e-11 5e-05 1.46608e-10 
10 1 0.138797 0.0168364 0.00762527 0.00535194 -0.000342389 0.000431854 5.56215e-10 -9.98778e-11 -3.6001e-10 5e-05 1.46608e-10 
11 1 0.138914 0.0168984 0.00749697 0.00547406 -0.000598953 0.000133615 -3.47693e-10 1.65971e-10 -1.47347e-10 5e-05 1.46608e-10 
12 1 0.138979 0.0171962 0.0072482 0.0052119 -0.000715159 0.000423873 2.64572e-11 -4.11799e-10 -1.00946e-11 5e-05 1.46608e-10 
13 1 0.139009 0.0176738 0.00724646 0.00583887 -0.000707296 0.00049262 5.55343e-11 2.9639e-10 -1.53737e-10 5e-05 1.46608e-10 
14 1 0.132398 0.015443 0.00886468 0.00599455 0.000519619 0.0007775 -1.44574e-10 -6.66659e-11 -1.14929e-10 5e-05 1.46608e-10 
15 1 0.138887 0.0171748 0.00729039 0.00547604 -0.000664133 0.000465921 -2.07132e-10 -9.48551e-10 5.28509e-10 5e-05 1.46608e-10 
16 1 0.132377 0.0154059 0.00895513 0.00596 0.000512906 0.000775003 1.50583e-10 7.16436e-12 -8.90788e-11 5e-05 1.46608e-10 
17 1 0.139224 0.01789 0.00721302 0.00590325 -0.00076415 0.000475512 -1.24756e-10 -1.25473e-10 6.08307e-11 5e-05 1.46608e-10 
18 1 0.144825 0.0170615 0.00796752 0.00576697 0.000286749 0.00173289 1.8371e-12 -6.13456e-12 -3.61796e-12 5e-05 1.46608e-10 
19 1 0.138634 0.0162613 0.0081533 0.00565496 -0.000262888 0.00057567 -2.71007e-10 -3.15549e-10 3.12427e-10 5e-05 1.46608e-10 
20 1 0.13918 0.0176877 0.0072375 0.00594219 -0.0007476 0.00048052 -1.41184e-10 5.3307e-11 -8.06103e-11 5e-05 1.46608e-10 
21 1 0.138656 0.0163313 0.00808524 0.00573029 -0.000293021 0.000610621 -2.63558e-11 -3.57655e-10 3.66742e-10 5e-05 1.46608e-10 
22 1 0.138945 0.0170239 0.00734459 0.00549985 -0.000617584 0.000131967 -2.7989e-10 1.13833e-10 -2.75205e-10 5e-05 1.46608e-10 
23 1 0.13272 0.0164764 0.00775612 0.00537665 -0.000225684 0.000506249 1.23908e-11 4.53615e-11 5.9776e-11 5e-05 1.46608e-10 
24 1 0.144917 0.0173826 0.0077473 0.00589049 0.000285729 0.00177466 -2.13553e-10 -1.52218e-10 1.96207e-11 5e-05 1.46608e-10 
25 1 0.138872 0.016774 0.00764802 0.00533254 -0.000364205 0.000331997 5.40896e-10 -4.10075e-10 -4.39731e-10 5e-05 1.46608e-10 
26 1 0.144757 0.0168207 0.00813276 0.00569686 0.000286969 0.00170876 6.15207e-12 1.56867e-11 -9.74125e-12 5e-05 1.46608e-10 
27 1 0.132641 0.0161268 0.00793231 0.00554275 -0.000439714 0.000255247 6.67472e-12 1.44993e-10 1.76714e-10 5e-05 1.46608e-10 
28 1 0.139025 0.0174676 0.00728729 0.00564828 -0.000779982 0.000558681 -8.11903e-11 -1.06253e-11 1.21381e-11 5e-05 1.46608e-10 
29 1 0.138799 0.0164974 0.00792875 0.00680576 0.000133515 0.000243833 4.30655e-10 -3.32718e-10 3.39813e-10 5e-05 1.46608e-10 
30 1 0.139141 0.0175187 0.00718958 0.00491567 -0.00130549 0.000533694 4.89754e-10 3.23722e-10 1.03799e-10 5e-05 1.46608e-10 
31 1 0.138867 0.0170857 0.0073317 0.00551869 -0.000518071 0.00034629 -4.06974e-10 -2.14645e-10 -4.08075e-10 5e-05 1.46608e-10 
32 1 0.138931 0.0169599 0.0074202 0.00549684 -0.000603339 0.0001417 -3.80076e-10 -4.73513e-12 -2.52894e-11 5e-05 1.46608e-10 
33 1 0.144686 0.0165767 0.00829962 0.00593668 0.000676733 0.00148505 7.61965e-13 9.16528e-13 -4.59818e-13 5e-05 1.46608e-10 
34 1 0.139039 0.0173606 0.00730302 0.0054292 -0.000785409 0.000468412 -3.32642e-11 1.91826e-10 -3.54698e-10 5e-05 1.46608e-10 
36 1 0.144953 0.0175431 0.00763403 0.00479946 0.000231129 0.00146162 -7.0897e-11 4.25137e-11 -1.3683e-10 5e-05 1.46608e-10 
37 1 0.138815 0.0168953 0.00754638 0.00540883 -0.000530337 0.000301674 -2.43773e-10 -3.60332e-10 -1.52253e-10 5e-05 1.46608e-10 
38 1 0.138943 0.0170954 0.00726732 0.00568443 -0.000557367 0.000447112 5.1355e-10 -6.46941e-10 2.44324e-10 5e-05 1.46608e-10 
39 1 0.144894 0.0173024 0.00780231 0.00587064 0.000291906 0.00176621 3.03916e-11 -6.76285e-12 -6.78053e-12 5e-05 1.46608e-10 
41 1 0.138701 0.0164711 0.0079493 0.0061192 -0.000357787 0.000695989 4.15514e-10 -1.92392e-10 1.73487e-10 5e-05 1.46608e-10 
42 1 0.138849 0.0170015 0.0073823 0.00542352 -0.000653304 0.000189452 5.35111e-10 -3.65531e-11 8.87028e-12 5e-05 1.46608e-10 
44 1 0.139075 0.0172278 0.00724675 0.00539458 -0.000617787 0.000419454 -5.06289e-10 -1.26583e-10 2.29164e-11 5e-05 1.46608e-10 
45 1 0.144734 0.0167401 0.00818808 0.005946 0.000545023 0.00159132 4.8569e-13 9.03473e-13 -5.42381e-13 5e-05 1.46608e-10 
46 1 0.144802 0.0169813 0.0080226 0.00574387 0.000287191 0.00172468 7.92086e-12 7.26664e-12 -7.65511e-12 5e-05 1.46608e-10 
47 1 0.138743 0.0166112 0.00781297 0.00602838 -0.000323535 0.000649692 5.01864e-11 -1.81339e-10 3.69899e-10 5e-05 1.46608e-10 
48 1 0.139054 0.0171319 0.00726565 0.00555629 -0.000618941 0.00042506 -6.66741e-10 -3.7115e-10 7.27018e-11 5e-05 1.46608e-10 
49 1 0.14478 0.016901 0.00807768 0.00572031 0.00028724 0.00171658 3.48603e-12 1.61837e-11 -5.15247e-12 5e-05 1.46608e-10 
50 1 0.13902 0.0173911 0.0072097 0.00557411 -0.000783959 0.000456175 7.4199e-11 -3.83607e-10 -2.86074e-10 5e-05 1.46608e-10 
51 1 0.139121 0.0174216 0.00720877 0.00434716 -0.000518399 0.000349902 -3.99358e-10 1.48801e-10 -7.12071e-11 5e-05 1.46608e-10 
52 1 0.139207 0.0183582 0.00706916 0.00587626 -0.000716316 0.000272222 1.64308e-10 -2.1641e-11 -3.17443e-10 5e-05 1.46608e-10 
53 1 0.144848 0.0171418 0.00791245 0.00578875 0.000285436 0.00174012 -1.24509e-11 5.5949e-12 1.60629e-12 5e-05 1.46608e-10 
54 1 0.138753 0.0163555 0.00806667 0.006009 -0.00027057 0.000603358 4.29235e-10 -1.41735e-10 1.7646e-10 5e-05 1.46608e-10 
55 1 0.132442 0.0155239 0.0086873 0.0060764 0.000510605 0.000798284 -1.01616e-10 1.81079e-11 -2.06586e-10 5e-05 1.46608e-10 
56 1 0.13883 0.016938 0.00745722 0.00540122 -0.000691348 0.000204047 -7.61058e-12 -1.5986e-10 1.50216e-10 5e-05 1.46608e-10 
57 1 0.14471 0.0166587 0.00824367 0.00594086 0.000608976 0.00153951 6.22755e-13 9.08642e-13 -5.00079e-13 5e-05 1.46608e-10 
59 1 0.13901 0.0169162 0.00746326 0.00561337 -0.000604519 9.89083e-05 -1.79925e-10 6.19117e-10 -6.19536e-10 5e-05 1.46608e-10 
60 1 0.139024 0.0169794 0.00738699 0.00551462 -0.000598724 0.000100542 -3.47047e-10 2.84519e-10 -4.48566e-10 5e-05 1.46608e-10 
61 1 0.138723 0.0165411 0.00788131 0.0062083 -0.000350784 0.000701553 2.68194e-10 -5.10984e-11 2.51065e-10 5e-05 1.46608e-10 
62 1 0.139392 0.018172 0.00706662 0.00595156 -0.000754922 0.000476341 3.50845e-11 2.44463e-11 3.15757e-12 5e-05 1.46608e-10 
63 1 0.139036 0.0170438 0.00730955 0.0055181 -0.000680148 0.00021568 -1.33062e-10 -4.28415e-10 1.19881e-10 5e-05 1.46608e-10 
64 1 0.144871 0.0172221 0.00785737 0.00581203 0.000287197 0.00174782 3.85959e-11 1.57666e-11 8.81699e-12 5e-05 1.46608e-10 
65 1 0.13268 0.0163009 0.00784302 0.00552443 -0.000266157 0.000504293 1.53818e-10 -5.42952e-11 -2.95206e-11 5e-05 1.46608e-10 
66 1 0.132956 0.0173345 0.00758452 0.00563028 -0.00022847 0.000528407 4.91076e-12 4.68755e-11 -3.96194e-11 5e-05 1.46608e-10 
67 1 0.139216 0.0174542 0.00720706 0.0047252 -0.00148892 0.000565564 -4.13917e-10 -6.98086e-10 1.55899e-10 5e-05 1.46608e-10 
68 1 0.139001 0.0172926 0.00722923 0.00536381 -0.0006834 0.000432539 7.53961e-10 9.32305e-10 5.43665e-11 5e-05 1.46608e-10 
69 1 0.138891 0.0168357 0.00757156 0.00539645 -0.000524111 0.000189077 2.60202e-10 -1.68699e-10 -2.09215e-10 5e-05 1.46608e-10 
70 1 0.138999 0.0175756 0.00726254 0.00566832 -0.000677154 0.000586509 -5.46201e-10 3.46832e-10 2.4665e-10 5e-05 1.46608e-10 
71 1 0.13242 0.01548 0.00877424 0.00602376 0.00051582 0.000782214 1.31634e-10 1.72263e-10 -5.68871e-11 5e-05 1.46608e-10 
72 1 0.13918 0.0178254 0.0071276 0.00588921 -0.000753369 0.000472706 -2.02273e-10 3.68649e-11 -1.20696e-10 5e-05 1.46608e-10 
73 1 0.139253 0.0180657 0.0070819 0.00595699 -0.000763281 0.000444354 1.36663e-10 -1.39237e-10 8.06723e-11 5e-05 1.46608e-10 
74 1 0.139154 0.0180317 0.00708313 0.00595822 -0.00079759 0.000486808 1.58232e-10 7.9074e-12 1.21525e-11 5e-05 1.46608e-10 
76 1 0.133121 0.0182522 0.0071835 0.00618805 0.000880111 -0.000493349 9.25672e-11 2.14401e-10 -9.68155e-11 5e-05 1.46608e-10 
77 1 0.139079 0.0180505 0.007146 0.0059609 -0.000753624 0.000479862 1.46075e-10 1.36763e-10 -6.70035e-11 5e-05 1.46608e-10 
78 1 0.132522 0.0157129 0.00834986 0.00557673 -0.000535453 7.68396e-05 1.1686e-10 -1.69851e-10 -1.17388e-10 5e-05 1.46608e-10 
79 1 0.132739 0.0165716 0.00773189 0.00531157 -0.000216963 0.000470064 -1.26669e-10 -2.83215e-11 -1.46672e-10 5e-05 1.46608e-10 
80 1 0.139016 0.0177721 0.00722924 0.00590761 -0.000718105 0.000454104 -9.5585e-11 3.39143e-10 -1.14305e-10 5e-05 1.46608e-10 
81 1 0.13266 0.0162098 0.00787996 0.00553751 -0.000309635 0.000468255 5.91579e-11 6.54702e-11 -6.28621e-11 5e-05 1.46608e-10 
82 1 0.132701 0.0163906 0.00780355 0.00552639 -0.00024638 0.000537175 1.23896e-10 4.70655e-11 -2.7594e-11 5e-05 1.46608e-10 
83 1 0.132602 0.0159861 0.0080689 0.00571433 -0.000604044 0.000101732 -4.68164e-11 -8.89216e-11 1.52799e-10 5e-05 1.46608e-10 
84 1 0.144972 0.0176234 0.00757739 0.00552355 0.000233813 0.00169406 -2.74436e-11 1.191e-11 -6.48841e-11 5e-05 1.46608e-10 
85 1 0.138591 0.0161213 0.00828948 0.00568388 -0.000228419 0.000541863 -1.03012e-10 -2.85013e-10 2.82191e-10 5e-05 1.46608e-10 
86 1 0.139065 0.0175839 0.0071883 0.00548351 -0.000668992 0.000429667 -2.35689e-10 1.36357e-10 3.43536e-10 5e-05 1.46608e-10 
87 1 0.139151 0.017166 0.00726379 0.00554733 -0.000442442 0.000399822 -6.38025e-10 2.65863e-11 -3.75306e-11 5e-05 1.46608e-10 
88 1 0.139136 0.0183005 0.0070293 0.00595821 -0.000837982 0.000328991 -5.25077e-12 -1.57285e-10 -4.20466e-11 5e-05 1.46608e-10 
89 1 0.1391 0.0177957 0.00718115 0.00591404 -0.000759832 0.000473642 -6.67074e-11 -9.63598e-12 4.60432e-11 5e-05 1.46608e-10 
90 1 0.139258 0.0178866 0.00711904 0.00589445 -0.000753381 0.000474732 -8.11724e-11 -3.55882e-11 -7.93202e-12 5e-05 1.46608e-10 
91 1 0.138926 0.017359 0.00722344 0.00545232 -0.000624718 0.000435662 2.01235e-10 -1.1495e-10 2.81361e-10 5e-05 1.46608e-10 
92 1 0.139298 0.0183406 0.00702637 0.00597081 -0.000734184 0.00047667 -1.72304e-10 -3.55681e-11 1.80262e-11 5e-05 1.46608e-10 
93 1 0.139153 0.0179814 0.00722215 0.00591745 -0.000689981 0.000465376 3.57812e-11 1.90291e-11 4.37175e-11 5e-05 1.46608e-10 
94 1 0.139083 0.0176819 0.00717898 0.00590425 -0.000738684 0.000471906 -1.90435e-10 1.50912e-10 2.86263e-11 5e-05 1.46608e-10 
95 1 0.138986 0.0176369 0.00715654 0.00592645 -0.000698866 0.000463529 8.33136e-11 1.3529e-10 -9.05295e-12 5e-05 1.46608e-10 
96 1 0.139029 0.0178285 0.00711887 0.00593774 -0.000730622 0.00046949 2.85607e-11 1.34193e-10 -1.09808e-11 5e-05 1.46608e-10 
97 1 0.132853 0.0166967 0.00769574 0.00541844 -0.000260704 0.000517977 1.42e-10 -1.59459e-10 6.84792e-11 5e-05 1.46608e-10 
98 1 0.139249 0.0184262 0.007009 0.00600983 -0.000734577 0.000324305 -2.88065e-11 -2.75976e-11 -4.00742e-10 5e-05 1.46608e-10 
99 1 0.132759 0.0166639 0.00769876 0.00537703 -0.000216722 0.000498098 -4.29777e-11 -3.99544e-11 -1.94042e-12 5e-05 1.46608e-10 
100 1 0.139229 0.0182657 0.00703833 0.00596589 -0.000772678 0.00048055 1.07519e-11 -2.04879e-10 1.15052e-11 5e-05 1.46608e-10 
101 1 0.13272 0.0160772 0.00796798 0.00558233 -0.000535067 4.24067e-05 -1.79049e-12 -1.45779e-11 -1.86228e-11 5e-05 1.46608e-10 
102 1 0.0694385 0.0202053 0.00537268 4.10988e-15 4.32809e-15 -7.68269e-14 -1.68444e-21 -3.38705e-22 -1.02777e-22 5e-05 1.46608e-10 
104 1 0.132815 0.016509 0.00775317 0.00536485 -0.000178826 0.000490329 -1.01099e-10 6.49806e-11 -6.37162e-11 5e-05 1.46608e-10 
105 1 0.132562 0.015849 0.0082089 0.00570435 -0.000591164 7.95484e-05 -7.2773e-11 -6.22996e-11 7.65566e-11 5e-05 1.46608e-10 
106 1 0.132916 0.0169777 0.00761018 0.00555346 -0.000280242 0.000534341 4.21129e-11 7.06929e-11 -2.62046e-11 5e-05 1.46608e-10 
107 1 0.133107 0.0174978 0.007562 0.00568141 -0.000263649 0.000541721 -1.80504e-10 1.75648e-10 -9.36632e-11 5e-05 1.46608e-10 
108 1 0.139017 0.0172589 0.007322 0.00540367 -0.000681796 0.000457606 2.33661e-11 1.08998e-10 2.67776e-10 5e-05 1.46608e-10 
109 1 0.138946 0.0174569 0.00722621 0.00572059 -0.000655474 0.000448318 -1.30132e-10 9.87107e-11 2.89835e-10 5e-05 1.46608e-10 
110 1 0.139008 0.0177327 0.0071377 0.00592851 -0.000714133 0.000464932 -5.24186e-11 1.45879e-10 -3.27045e-11 5e-05 1.46608e-10 
111 1 0.139202 0.0185933 0.00697696 0.00600632 -0.000732825 0.000287582 1.95369e-11 1.15813e-10 -2.24284e-11 5e-05 1.46608e-10 
112 1 0.132622 0.0160551 0.00799926 0.00564187 -0.000563269 0.000137875 6.73891e-11 4.63094e-11 2.32921e-10 5e-05 1.46608e-10 
113 1 0.132929 0.0166354 0.00772154 0.00543991 -0.00023392 0.000510847 -2.35109e-11 1.15448e-10 7.43283e-11 5e-05 1.46608e-10 
115 1 0.138964 0.0175411 0.00717538 0.00591966 -0.000687682 0.000466141 2.09741e-10 1.297e-10 1.23136e-10 5e-05 1.46608e-10 
116 1 0.138993 0.0168536 0.00753922 0.0053886 -0.000599635 0.000124415 -4.94119e-10 7.52118e-10 -6.37887e-10 5e-05 1.46608e-10 
117 1 0.138855 0.0167092 0.0077222 0.00543131 -0.000214408 0.000529522 9.1521e-10 -3.92619e-11 -1.95929e-11 5e-05 1.46608e-10 
118 1 0.132483 0.0155929 0.00850423 0.00598534 6.35724e-05 0.00058929 5.15061e-11 -6.48029e-11 -4.88883e-11 5e-05 1.46608e-10 
119 1 0.139235 0.0175545 0.00718715 0.00545518 -0.00123793 0.000551993 -6.76974e-10 4.0669e-10 -2.25438e-10 5e-05 1.46608e-10 
120 1 0.138613 0.0161913 0.00822139 0.00565375 -0.000249087 0.00056091 1.14933e-10 -2.99362e-10 3.0468e-10 5e-05 1.46608e-10 
121 1 0.138709 0.0162157 0.00820263 0.00568593 -0.00024925 0.000562914 6.8161e-11 -1.27595e-10 1.30224e-10 5e-05 1.46608e-10 
122 1 0.139129 0.0178916 0.00718279 0.00590424 -0.000760455 0.000489301 1.14479e-10 -3.17064e-12 -1.25534e-10 5e-05 1.46608e-10 
123 1 0.132582 0.0159175 0.00813892 0.00572941 -0.000606983 9.10022e-05 -2.31059e-10 -9.71042e-11 9.68362e-11 5e-05 1.46608e-10 
124 1 0.139227 0.0180149 0.00716399 0.00591957 -0.000718613 0.000451647 2.50408e-10 -2.8724e-10 1.88741e-10 5e-05 1.46608e-10 
125 1 0.13873 0.0162856 0.00813457 0.00578683 -0.000252355 0.00057178 -4.4691e-11 -2.81683e-11 3.78732e-11 5e-05 1.46608e-10 
126 1 0.138907 0.0172654 0.00725314 0.00537753 -0.000617071 0.000446361 3.33154e-10 -5.65001e-10 2.57887e-10 5e-05 1.46608e-10 
127 1 0.133398 0.0177436 0.00736195 0.00596778 0.00216621 -0.000962066 -2.68037e-10 1.03814e-10 -3.25483e-11 5e-05 1.46608e-10 
128 1 0.139166 0.0177283 0.00714714 0.00592518 -0.00075561 0.000475854 -2.0281e-10 8.22056e-12 -5.80132e-11 5e-05 1.46608e-10 
129 1 0.139036 0.0178685 0.0072125 0.00587492 -0.000738578 0.000401385 9.20437e-11 2.18022e-10 -1.5226e-10 5e-05 1.46608e-10 
131 1 0.132834 0.0166029 0.00772444 0.00532705 -0.000248041 0.000506874 8.317e-11 -2.48805e-10 5.38108e-11 5e-05 1.46608e-10 
132 1 0.139172 0.0179357 0.00710417 0.00595426 -0.000799018 0.000494294 3.722e-10 6.68734e-13 1.7197e-11 5e-05 1.46608e-10 
133 1 0.13882 0.0165683 0.00785973 0.00603044 -0.000329809 0.000651434 4.30099e-10 -9.74613e-11 -6.46887e-11 5e-05 1.46608e-10 
134 1 0.139296 0.0179776 0.00710206 0.00593143 -0.00076687 0.00048443 1.87028e-10 -9.39545e-11 4.05211e-11 5e-05 1.46608e-10 
135 1 0.138934 0.0166669 0.00776646 0.00538658 -0.00064725 0.000184824 1.21863e-09 4.22804e-11 -3.15917e-10 5e-05 1.46608e-10 
136 1 0.132502 0.0156471 0.00842255 0.00563596 -0.000434039 0.000179995 -4.57467e-11 -2.30756e-10 -1.51611e-10 5e-05 1.46608e-10 
137 1 0.139093 0.0181087 0.00706597 0.00595407 -0.000802291 0.000444114 -4.78812e-11 -1.51231e-10 -2.21695e-10 5e-05 1.46608e-10 
138 1 0.13919 0.0181407 0.00706268 0.00596122 -0.00078769 0.000390347 7.71479e-11 -1.10188e-10 -1.05143e-11 5e-05 1.46608e-10 
140 1 0.139046 0.0174858 0.00719135 0.004392 -0.000463944 0.000333011 -1.47435e-10 2.71205e-10 6.71761e-12 5e-05 1.46608e-10 
141 1 0.132661 0.0158706 0.0081787 0.00573865 -0.000607231 0.000103349 1.09865e-11 2.00297e-11 1.07518e-11 5e-05 1.46608e-10 
142 1 0.132749 0.0162286 0.00783837 0.00554582 -0.000245969 0.000522965 1.84688e-10 -4.95307e-11 1.41693e-11 5e-05 1.46608e-10 
143 1 0.132541 0.0157805 0.00827883 0.00564661 -0.000565172 6.96152e-05 1.44939e-10 -1.35802e-11 -1.44606e-11 5e-05 1.46608e-10 
146 1 0.132833 0.0161786 0.00789067 0.0055673 -0.000338892 0.000403457 7.83639e-11 -5.39251e-11 4.67884e-11 5e-05 1.46608e-10 
147 1 0.132462 0.0155539 0.00859389 0.00609489 0.000527054 0.000811272 -6.22293e-11 7.67183e-13 -1.22768e-10 5e-05 1.46608e-10 
148 1 0.00868513 0.0174878 0.00793025 -1.40268e-09 -0.0220671 0.00964592 3.19569e-19 8.72507e-12 2.00125e-11 5e-05 1.46608e-10 
149 1 0.139288 0.0181587 0.00706383 0.00595866 -0.00074767 0.000478428 8.13003e-11 -1.81763e-11 3.95814e-12 5e-05 1.46608e-10 
150 1 0.132737 0.0161479 0.00789611 0.00541769 -0.000555298 7.4869e-05 -1.45604e-10 -2.77171e-11 2.8971e-11 5e-05 1.46608e-10 
151 1 0.133265 0.0173575 0.00750711 0.00568463 -0.000466845 1.12478e-05 -1.01177e-10 1.55638e-10 -4.67868e-11 5e-05 1.46608e-10 
153 1 0.132815 0.0160962 0.00794449 0.00561593 -0.000488477 0.000192632 2.71871e-11 -4.37042e-11 3.59646e-11 5e-05 1.46608e-10 
154 1 0.132957 0.017168 0.00756447 0.00561303 -0.000248697 0.000527319 -8.99054e-11 1.26198e-10 -2.58182e-12 5e-05 1.46608e-10 
155 1 0.127104 0.0177368 0.00707288 0.00622883 4.25712e-05 5.41289e-05 8.20984e-12 -2.39817e-11 5.63777e-12 5e-05 1.46608e-10 
156 1 0.132841 0.0170383 0.00758463 0.00558756 -0.000245221 0.000525065 1.33212e-10 2.6145e-11 -7.25183e-12 5e-05 1.46608e-10 
157 1 0.133 0.0174461 0.00746584 0.00567994 -0.000242317 0.000532607 2.97854e-11 2.34139e-12 -3.82274e-12 5e-05 1.46608e-10 
158 1 0.133065 0.0168546 0.00766177 0.00552759 -0.000280591 0.00053246 -1.67665e-11 1.31306e-10 -4.7578e-11 5e-05 1.46608e-10 
159 1 0.139288 0.0185433 0.00698835 0.0059973 -0.000745817 0.000289863 -4.53935e-11 3.02174e-12 -7.19683e-12 5e-05 1.46608e-10 
160 1 0.132926 0.0174128 0.00752567 0.00565514 -0.000223204 0.000530161 9.41137e-11 6.95827e-11 4.71127e-12 5e-05 1.46608e-10 
162 1 0.132873 0.0167904 0.0076671 0.00552214 -0.000273909 0.00052944 1.77118e-10 -7.99426e-11 4.36838e-11 5e-05 1.46608e-10 
163 1 0.133086 0.0169482 0.0076333 0.0055564 -0.000284432 0.000536002 -7.02275e-11 1.52623e-10 -4.78185e-11 5e-05 1.46608e-10 
164 1 0.133019 0.0176035 0.00741656 0.0057057 -0.000239631 0.000534436 -9.18487e-11 2.76264e-11 -4.44301e-11 5e-05 1.46608e-10 
165 1 0.133004 0.0165738 0.00774738 0.00533816 -0.00024626 0.000505653 -2.66691e-10 7.56912e-11 -4.08354e-11 5e-05 1.46608e-10 
166 1 0.138548 0.0159813 0.00842567 0.00573889 -0.000190457 0.000507916 -3.32295e-11 -1.29972e-10 1.27037e-10 5e-05 1.46608e-10 
167 1 0.132848 0.0162609 0.00783582 0.00551654 -0.000250017 0.00052235 1.64061e-10 -1.116e-10 -5.44779e-12 5e-05 1.46608e-10 
168 1 0.13298 0.0172572 0.00752516 0.00563411 -0.00024631 0.000529948 -6.37989e-11 6.26905e-11 -3.11304e-11 5e-05 1.46608e-10 
169 1 0.133129 0.0171352 0.00757636 0.00560077 -0.000288896 0.000541425 -7.60179e-12 1.02922e-10 -3.13695e-11 5e-05 1.46608e-10 
170 1 0.133053 0.0171993 0.00756094 0.00561163 -0.000272302 0.000536109 3.48471e-11 9.84114e-11 -4.14385e-11 5e-05 1.46608e-10 
171 1 0.138952 0.0167294 0.00769053 0.00473862 -0.000535298 0.000106223 -2.54585e-10 3.85346e-10 -6.01038e-10 5e-05 1.46608e-10 
172 1 0.133311 0.0177919 0.00734669 0.00561539 0.00158495 -0.000738497 -1.8251e-10 2.05176e-10 -5.29237e-11 5e-05 1.46608e-10 
173 1 0.139195 0.0173572 0.00722622 0.00454289 -0.00029783 0.000303327 -6.30677e-10 6.18105e-10 -1.32938e-10 5e-05 1.46608e-10 
174 1 0.13303 0.0175569 0.00759035 0.00573326 -0.000218118 0.000536042 -1.28187e-11 1.43771e-10 -3.57291e-11 5e-05 1.46608e-10 
175 1 0.129788 0.0169783 0.00735997 0.00545364 -0.000995905 0.000757019 9.95944e-14 3.20108e-13 6.64223e-14 5e-05 1.46608e-10 
176 1 0.13282 0.0169448 0.00761304 0.00556309 -0.000248093 0.000524516 -5.72855e-11 -6.07212e-11 2.82222e-11 5e-05 1.46608e-10 
177 1 0.133315 0.0179792 0.00727802 0.00603293 0.000776996 -0.000454288 -1.71509e-11 2.47022e-11 -1.44956e-11 5e-05 1.46608e-10 
178 1 0.133339 0.0175988 0.00741663 0.00620378 0.0012305 -0.000625287 -2.0892e-10 9.39047e-11 -3.98784e-11 5e-05 1.46608e-10 
179 1 0.126904 0.0172317 0.00720381 0.00572412 0.000111966 -0.000141334 1.13376e-11 -3.31435e-11 2.6505e-11 5e-05 1.46608e-10 
180 1 0.132991 0.0169161 0.007636 0.00555671 -0.000254757 0.000526076 -1.1675e-10 -4.06546e-12 -1.17376e-11 5e-05 1.46608e-10 
181 1 0.133032 0.0171033 0.00757895 0.00559335 -0.000268778 0.000532812 -6.22286e-11 1.19911e-10 -4.07698e-11 5e-05 1.46608e-10 
182 1 0.139119 0.0169937 0.00735975 0.00554147 -0.00061309 0.000130006 -4.52189e-10 2.58128e-10 -2.41894e-10 5e-05 1.46608e-10 
183 1 0.133148 0.0172294 0.00754751 0.00561859 -0.00029111 0.000543543 4.67699e-11 3.61325e-11 -2.37515e-11 5e-05 1.46608e-10 
184 1 0.139059 0.0179636 0.00719159 0.00593486 -0.000747108 0.000466859 1.48615e-10 8.18637e-11 -1.22599e-10 5e-05 1.46608e-10 
185 1 0.132863 0.0171317 0.00755622 0.00560053 -0.000236399 0.000523391 -5.63938e-12 -7.49507e-11 4.51952e-12 5e-05 1.46608e-10 
186 1 0.132895 0.0168841 0.00763863 0.0055568 -0.000251774 0.000525352 1.03749e-10 -1.89095e-11 1.18617e-11 5e-05 1.46608e-10 
187 1 0.139138 0.0170796 0.00731227 0.00562483 -0.000579825 0.000195993 7.0475e-11 6.87128e-11 -9.2612e-11 5e-05 1.46608e-10 
188 1 0.139051 0.0179242 0.00710003 0.00594127 -0.000744652 0.000472284 5.42974e-11 -7.61759e-11 -2.62649e-11 5e-05 1.46608e-10 
189 1 0.138838 0.0166387 0.00779104 0.00558125 -0.000273576 0.000555668 1.1346e-09 -2.90442e-10 -2.36071e-10 5e-05 1.46608e-10 
190 1 0.1332 0.0181938 0.00720263 0.0061972 0.000842271 -0.000481549 -1.82389e-10 -1.1117e-10 6.77242e-11 5e-05 1.46608e-10 
191 1 0.139114 0.0182045 0.00704689 0.00595342 -0.000826907 0.000326586 4.59257e-11 -4.39435e-11 -2.51188e-11 5e-05 1.46608e-10 
192 1 0.132937 0.0170731 0.00758836 0.00559186 -0.000245159 0.000528415 -1.68602e-10 1.24693e-10 3.7455e-11 5e-05 1.46608e-10 
193 1 0.13918 0.0184973 0.00699413 0.00600353 -0.000731854 0.000292628 -2.7319e-11 2.94944e-11 -5.71836e-11 5e-05 1.46608e-10 
194 1 0.132773 0.0163217 0.00781022 0.00552648 -0.000243331 0.00052013 1.90469e-10 -2.34708e-11 4.2864e-11 5e-05 1.46608e-10 
195 1 0.133073 0.0172941 0.00753549 0.00563066 -0.000271858 0.000536458 5.18669e-11 8.05733e-11 -3.63216e-11 5e-05 1.46608e-10 
196 1 0.132356 0.0153688 0.00904558 0.00594256 0.000518187 0.000773067 1.6612e-10 1.34831e-10 -2.12117e-10 5e-05 1.46608e-10 
197 1 0.133256 0.0177495 0.00741856 0.00609152 0.00109868 -0.000663099 -8.15929e-11 4.02552e-11 -7.69279e-11 5e-05 1.46608e-10 
198 1 0.132778 0.0167577 0.00767008 0.00541807 -0.000227492 0.000506632 -1.76567e-10 -1.35768e-11 -1.46976e-12 5e-05 1.46608e-10 
199 1 0.132906 0.0173186 0.0074994 0.00564781 -0.000228119 0.000525752 2.04873e-11 8.16577e-11 -3.12471e-11 5e-05 1.46608e-10 
200 1 0.132795 0.0164152 0.00778184 0.00552356 -0.000221253 0.000512367 3.23037e-10 -2.85916e-11 2.85824e-11 5e-05 1.46608e-10 
201 1 0.133263 0.0181201 0.00722787 0.00618674 0.000809364 -0.000470021 -8.27312e-11 1.05502e-11 6.18884e-12 5e-05 1.46608e-10 
203 1 0.139352 0.0180819 0.00708329 0.00595254 -0.000756831 0.000479942 1.5278e-10 -1.40069e-10 -4.55333e-13 5e-05 1.46608e-10 
204 1 0.132909 0.0165425 0.00775285 0.00539798 -0.000233463 0.000498041 -7.17872e-11 9.40587e-11 1.55007e-10 5e-05 1.46608e-10 
205 1 0.13308 0.0176441 0.00748458 0.00644816 0.000169952 -0.000369116 1.41509e-10 4.07995e-11 -3.6111e-10 5e-05 1.46608e-10 
206 1 0.133 0.017351 0.00749652 0.00564709 -0.000246898 0.000531701 5.85347e-11 5.63894e-11 -1.56397e-11 5e-05 1.46608e-10 
207 1 0.132796 0.0160257 0.00801261 0.00566246 -0.000590242 9.73184e-05 5.29606e-11 -7.18486e-11 3.07589e-11 5e-05 1.46608e-10 
208 1 0.132884 0.0172251 0.00752781 0.0056268 -0.000228311 0.000522529 -1.3234e-10 4.69335e-11 -3.01104e-11 5e-05 1.46608e-10 
209 1 0.126924 0.0173243 0.00717156 0.00568561 0.000145525 -7.55781e-05 8.49905e-11 -1.81023e-11 5.73233e-11 5e-05 1.46608e-10 
210 1 0.13857 0.0160513 0.00835758 0.00571586 -0.000205685 0.000521581 -7.51571e-11 -2.35412e-10 2.26097e-10 5e-05 1.46608e-10 
211 1 0.139268 0.0182351 0.00712521 0.00598579 -0.000743215 0.00048327 6.01645e-11 -9.06714e-13 9.77971e-11 5e-05 1.46608e-10 
212 1 0.133255 0.0174874 0.0074598 0.00435829 0.000679962 -0.000367745 -2.11312e-10 3.21992e-10 -2.09059e-10 5e-05 1.46608e-10 
213 1 0.139258 0.0177661 0.00714422 0.00591403 -0.000709765 0.000467403 -2.38243e-10 -3.46275e-11 -4.54612e-12 5e-05 1.46608e-10 
214 1 0.139338 0.0181645 0.00715048 0.00595365 -0.000702356 0.000478069 1.50421e-10 -2.54048e-11 2.60484e-11 5e-05 1.46608e-10 
215 1 0.132969 0.0168227 0.0076644 0.00555188 -0.000253533 0.000525284 1.66063e-10 8.84388e-12 -7.51171e-12 5e-05 1.46608e-10 
216 1 0.133044 0.0167611 0.00769022 0.0054557 -0.000266874 0.000522072 -2.43368e-12 8.78804e-11 -3.29956e-11 5e-05 1.46608e-10 
217 1 0.138971 0.0167932 0.00761584 0.00487994 -0.00055071 8.1476e-05 -6.13109e-11 5.14237e-10 -6.3208e-10 5e-05 1.46608e-10 
218 1 0.133114 0.017481 0.00746369 0.00567458 -0.000272192 0.000542666 -1.10585e-10 7.45455e-11 -4.20546e-11 5e-05 1.46608e-10 
219 1 0.139168 0.018266 0.00711747 0.00583422 -0.000907809 0.00036403 2.27751e-10 -1.5538e-10 5.04657e-11 5e-05 1.46608e-10 
220 1 0.132949 0.016729 0.00769295 0.00551817 -0.000245769 0.000517808 -2.23392e-10 3.03462e-10 -9.56684e-11 5e-05 1.46608e-10 
221 1 0.126806 0.0168157 0.00746329 0.00567151 0.000128554 -0.000147833 1.60132e-11 1.23233e-11 -2.93533e-11 5e-05 1.46608e-10 
222 1 0.138761 0.0166818 0.00774443 0.00561074 -0.000282143 0.000574146 4.33901e-10 -5.90804e-11 3.25774e-10 5e-05 1.46608e-10 
223 1 0.133012 0.0170096 0.00760751 0.00557566 -0.00026114 0.000528605 -2.45989e-10 8.12761e-12 -1.80325e-11 5e-05 1.46608e-10 
224 1 0.132798 0.0168514 0.00764145 0.00553679 -0.000252264 0.000524182 4.58489e-11 -7.5053e-11 2.15605e-11 5e-05 1.46608e-10 
225 1 0.139244 0.0176689 0.00716378 0.00593809 -0.000750632 0.000476298 -2.26281e-10 1.98111e-10 -1.07501e-10 5e-05 1.46608e-10 
226 1 0.133023 0.0166676 0.00771873 0.00537758 -0.000254704 0.000511714 2.04349e-10 -1.74533e-10 5.08436e-11 5e-05 1.46608e-10 
227 1 0.126866 0.017065 0.00730775 0.00570241 0.000115144 -0.000140057 -3.20327e-11 -1.87016e-11 1.88005e-11 5e-05 1.46608e-10 
228 1 0.0507861 0.0189683 0.00558458 -5.37592e-15 -1.91034e-14 -2.87013e-13 4.94273e-23 8.70091e-23 -7.03104e-24 5e-05 1.46608e-10 
229 1 0.13262 0.0157336 0.00831862 0.00562161 -0.000583049 8.93379e-05 2.22969e-10 -1.33767e-10 1.03694e-10 5e-05 1.46608e-10 
230 1 0.133158 0.0178301 0.00743456 0.0063049 0.000256717 -0.000756117 1.55644e-10 -8.04634e-11 6.97799e-11 5e-05 1.46608e-10 
231 1 0.197479 0.018695 0.00523156 -1.08036e-15 -2.69826e-14 1.45243e-13 -1.20697e-22 -9.30578e-25 -1.24077e-24 5e-05 1.46608e-10 
232 1 0.132641 0.0158021 0.00824869 0.0056838 -0.000600299 0.000102544 -7.39197e-11 -4.01606e-11 2.57057e-11 5e-05 1.46608e-10 
233 1 0.132889 0.0164495 0.00778376 0.00541637 -0.000235608 0.000493552 1.47719e-10 -8.61253e-11 -1.29015e-10 5e-05 1.46608e-10 
234 1 0.138505 0.0158413 0.00856185 0.0057775 -0.000186495 0.000506085 -2.55647e-11 -8.48019e-11 8.11996e-11 5e-05 1.46608e-10 
235 1 0.13315 0.0180868 0.00724324 0.00609067 0.000880551 -0.00049261 -7.84433e-11 -1.97616e-10 1.62502e-10 5e-05 1.46608e-10 
236 1 0.133102 0.0181744 0.00724338 0.00610384 0.000888582 -0.000498844 -5.39865e-11 5.63456e-11 3.7238e-11 5e-05 1.46608e-10 
237 1 0.132992 0.0176946 0.00738506 0.00573218 -0.000227225 0.000532931 -6.8954e-11 -6.5782e-11 5.84681e-12 5e-05 1.46608e-10 
238 1 0.126943 0.0174189 0.00714553 0.00568575 0.00017132 1.78213e-05 -7.70183e-12 -2.16738e-11 8.95756e-12 5e-05 1.46608e-10 
239 1 0.126709 0.0163996 0.00772284 0.00560431 0.000140208 -0.000147472 2.39775e-11 1.28178e-10 -2.68164e-10 5e-05 1.46608e-10 
240 1 0.126786 0.0167325 0.0075152 0.00564759 0.000135653 -0.00015296 3.98619e-11 -3.91118e-11 3.61396e-11 5e-05 1.46608e-10 
241 1 0.126728 0.0164828 0.00767093 0.00560338 0.000124943 -0.000142152 1.18481e-10 1.51217e-10 -7.46024e-11 5e-05 1.46608e-10 
242 1 0.127081 0.0176407 0.00709512 0.00621163 3.03947e-05 5.6692e-05 1.12525e-11 5.93552e-12 -4.90706e-12 5e-05 1.46608e-10 
243 1 0.12669 0.0163259 0.00778774 0.00556952 0.000412557 0.000142237 -2.35599e-10 -2.25277e-11 4.63519e-11 5e-05 1.46608e-10 
244 1 0.126748 0.016566 0.00761902 0.00561095 0.000122735 -0.000144327 6.27672e-12 -3.76508e-12 2.97673e-12 5e-05 1.46608e-10 
245 1 0.126963 0.0175144 0.00712342 0.00584281 0.000138887 2.74351e-05 -5.63234e-11 -9.8144e-14 -7.82204e-12 5e-05 1.46608e-10 
246 1 0.126826 0.0168989 0.00741142 0.00569698 0.000119351 -0.000142766 -8.83307e-12 6.21722e-11 -2.45262e-11 5e-05 1.46608e-10 
247 1 0.133166 0.017326 0.0075178 0.00563604 -0.000283393 0.000542905 5.60409e-11 3.95174e-11 5.61237e-12 5e-05 1.46608e-10 
248 1 0.133181 0.0175508 0.00743868 0.00433307 0.000674435 -0.000371903 -2.39939e-10 6.46279e-11 6.68088e-11 5e-05 1.46608e-10 
249 1 0.127005 0.0177029 0.00707978 0.00622981 5.40731e-05 5.117e-05 -3.73628e-13 2.47447e-12 -9.10374e-13 5e-05 1.46608e-10 