ITEM: TIMESTEP
28800000
ITEM: NUMBER OF ATOMS
212
ITEM: BOX BOUNDS ff ff ff
-0.02 0.43
-0.02 0.06
-0.02 0.07
ITEM: ATOMS id type x y z vx vy vz fx fy fz radius mass 
1 1 0.181379 0.0178924 0.00708123 0.00581759 -0.000265323 -0.000285204 8.72548e-11 -2.61598e-10 4.06551e-11 5e-05 1.46608e-10 
2 1 0.180998 0.0177713 0.00711947 0.00558102 -6.71018e-05 -0.000300399 2.43224e-11 5.14286e-11 3.42265e-12 5e-05 1.46608e-10 
3 1 0.168988 0.0177474 0.00742476 0.00557799 -2.38259e-05 -0.000222767 1.58155e-12 1.55738e-13 6.8656e-13 5e-05 1.46608e-10 
4 1 0.180769 0.0163745 0.00786897 0.00537785 -4.72601e-05 2.67558e-05 -1.7203e-10 5.40468e-11 -1.86867e-11 5e-05 1.46608e-10 
5 1 0.181149 0.0176386 0.00712985 0.00570283 -0.000151997 -0.000295039 -1.31808e-10 -1.15661e-10 2.15906e-11 5e-05 1.46608e-10 
6 1 0.186801 0.0168549 0.00750098 0.00552344 -0.000292504 3.1381e-05 9.28476e-13 2.07184e-11 -1.21001e-11 5e-05 1.46608e-10 
7 1 0.180542 0.0159039 0.00827114 0.00607822 -0.000168183 0.000131038 -7.36992e-11 -6.83122e-11 6.20768e-11 5e-05 1.46608e-10 
8 1 0.180629 0.0162008 0.00801752 0.00619644 -0.000180933 0.000141808 1.15229e-10 -1.22952e-10 1.10112e-10 5e-05 1.46608e-10 
9 1 0.186995 0.0177127 0.00702521 0.00564709 -0.000282587 8.92453e-05 2.84401e-11 6.57803e-12 -5.12391e-11 5e-05 1.46608e-10 
10 1 0.180563 0.0159782 0.00820773 0.00607034 -0.00016484 0.000128224 -2.06908e-12 -8.72034e-11 8.05106e-11 5e-05 1.46608e-10 
11 1 0.180585 0.0160524 0.00814432 0.00608726 -0.000165857 0.000129105 1.39018e-11 -9.92748e-11 8.43776e-11 5e-05 1.46608e-10 
13 1 0.18094 0.0174805 0.00716435 0.00564162 -5.05875e-05 -0.000241364 -3.64669e-11 -3.08908e-11 -6.23195e-11 5e-05 1.46608e-10 
15 1 0.180951 0.0172162 0.0072992 0.00562997 1.06799e-05 0.000221857 -3.29925e-11 4.78489e-11 -8.29019e-11 5e-05 1.46608e-10 
17 1 0.180957 0.0171309 0.00724738 0.00561659 1.76805e-05 0.000213455 1.25844e-11 1.83665e-11 -4.48397e-11 5e-05 1.46608e-10 
18 1 0.187032 0.0179001 0.00697586 0.00564655 -0.000271011 0.000128878 2.21576e-11 2.25838e-11 3.21597e-11 5e-05 1.46608e-10 
19 1 0.18039 0.0153844 0.00871501 0.00614374 -0.000185351 0.000145635 4.54408e-11 1.49866e-10 -1.28687e-10 5e-05 1.46608e-10 
20 1 0.18122 0.0183818 0.00702089 0.00603416 -0.000189811 -0.00030803 9.66721e-11 8.00804e-12 -6.40529e-12 5e-05 1.46608e-10 
21 1 0.180412 0.0154586 0.0086516 0.00613467 -0.000182499 0.000143261 4.20998e-11 1.22084e-10 -1.04074e-10 5e-05 1.46608e-10 
22 1 0.181263 0.0177658 0.00710551 0.00575725 -0.000201605 -0.000291165 -2.16836e-10 -2.10536e-10 4.62086e-11 5e-05 1.46608e-10 
23 1 0.175093 0.0182128 0.0070223 0.0060381 -0.000220294 7.30712e-05 -9.41992e-11 -1.04553e-10 6.83238e-11 5e-05 1.46608e-10 
24 1 0.186975 0.0176258 0.00707068 0.00558643 -0.000301254 3.45287e-05 2.41969e-11 -5.66497e-11 -1.02524e-11 5e-05 1.46608e-10 
25 1 0.180995 0.0173171 0.00718382 0.00557435 -8.23747e-05 -0.000296297 3.95803e-11 5.81796e-11 1.85497e-12 5e-05 1.46608e-10 
26 1 0.186878 0.0171975 0.00730974 0.00545391 -0.000275309 2.36817e-05 -3.73239e-10 1.57949e-11 -3.10781e-11 5e-05 1.46608e-10 
28 1 0.181198 0.0182852 0.00703574 0.00600329 -0.000188291 -0.000306527 -1.02117e-10 -1.50699e-10 2.53586e-11 5e-05 1.46608e-10 
29 1 0.18092 0.0169649 0.00735097 0.00561055 -5.1891e-05 0.000136805 -9.80862e-12 4.1124e-11 -4.0844e-11 5e-05 1.46608e-10 
30 1 0.180959 0.0175773 0.00714903 0.00562599 -6.0702e-05 -0.000306362 -1.742e-10 1.26263e-11 2.35696e-12 5e-05 1.46608e-10 
31 1 0.180607 0.0161266 0.00808092 0.00612128 -0.000170091 0.000132511 1.26983e-11 -1.04701e-10 8.89924e-11 5e-05 1.46608e-10 
32 1 0.180902 0.0168909 0.00741569 0.0055817 -0.000177423 -1.4501e-06 7.43966e-11 3.80907e-11 -1.15965e-11 5e-05 1.46608e-10 
33 1 0.18682 0.0169405 0.00745319 0.00554925 -0.000294636 3.18295e-05 1.23479e-11 9.0569e-12 -5.74747e-12 5e-05 1.46608e-10 
34 1 0.180826 0.016945 0.00737963 0.00561295 -8.37056e-05 7.25984e-05 9.76857e-11 1.26872e-10 6.36377e-11 5e-05 1.46608e-10 
36 1 0.187012 0.0178024 0.00698471 0.00566424 -0.00027126 0.000130159 -7.56491e-11 3.28456e-12 -1.73203e-11 5e-05 1.46608e-10 
37 1 0.180747 0.0162997 0.00793288 0.00589148 0.000164579 -0.000152156 -6.58003e-11 -4.38251e-11 3.28804e-11 5e-05 1.46608e-10 
38 1 0.181051 0.0171637 0.00723435 0.00562236 -3.06981e-09 0.000223309 -1.07658e-12 6.89823e-11 -2.01136e-11 5e-05 1.46608e-10 
39 1 0.186955 0.0175404 0.0071184 0.00556002 -0.00030433 3.78127e-05 -7.81301e-11 -7.17194e-11 2.52859e-11 5e-05 1.46608e-10 
41 1 0.180455 0.015607 0.00852478 0.00611566 -0.00017891 0.000140319 3.4447e-11 4.60332e-11 -3.91202e-11 5e-05 1.46608e-10 
42 1 0.181034 0.0170747 0.00727899 0.00561064 8.1296e-06 0.000216545 -1.14629e-10 -9.49697e-11 3.07524e-11 5e-05 1.46608e-10 
44 1 0.181038 0.0179651 0.00708989 0.00594387 -0.000168837 -0.000305935 1.45995e-11 5.8424e-11 -1.49187e-11 5e-05 1.46608e-10 
45 1 0.186859 0.0171118 0.00735757 0.00543707 -0.000274817 2.31945e-05 1.80455e-10 -5.1129e-11 1.62982e-11 5e-05 1.46608e-10 
47 1 0.180498 0.0157555 0.00839796 0.00609603 -0.000175607 0.000137603 1.85363e-11 -1.00702e-11 7.65163e-12 5e-05 1.46608e-10 
49 1 0.186897 0.0172832 0.0072619 0.00550006 -0.000278062 2.60647e-05 -2.83227e-10 1.28641e-10 -9.73691e-11 5e-05 1.46608e-10 
50 1 0.181338 0.0185087 0.00699643 0.00607546 -0.000226852 -0.000305119 4.36011e-11 3.14034e-11 -6.20292e-12 5e-05 1.46608e-10 
51 1 0.175281 0.0190635 0.00680584 0.00561991 -0.000204805 -8.82709e-05 -1.30755e-11 5.24755e-11 4.70902e-11 5e-05 1.46608e-10 
52 1 0.181241 0.0184784 0.00700605 0.00605012 -0.000194664 -0.00030826 2.79283e-11 -8.29226e-12 1.59028e-12 5e-05 1.46608e-10 
53 1 0.186916 0.0173689 0.00721407 0.00552726 -0.000291126 3.28742e-05 7.39718e-11 2.25247e-10 -1.28001e-10 5e-05 1.46608e-10 
54 1 0.181294 0.0183154 0.00702614 0.00601319 -0.000217623 -0.00030303 8.98048e-12 3.14578e-11 -1.16814e-12 5e-05 1.46608e-10 
55 1 0.175051 0.0180254 0.00707811 0.00596877 -0.000220805 7.10777e-05 -1.09918e-10 2.12996e-11 -1.59853e-11 5e-05 1.46608e-10 
56 1 0.181189 0.0178323 0.00710026 0.00580267 -0.000160556 -0.00029969 -1.69786e-10 -9.53389e-11 2.7261e-11 5e-05 1.46608e-10 
57 1 0.18684 0.0170261 0.0074054 0.00557464 -0.000297685 3.29615e-05 -2.63641e-11 -1.75877e-11 7.35004e-12 5e-05 1.46608e-10 
59 1 0.180975 0.0172209 0.0072023 0.00563215 8.81703e-06 0.000218298 -3.01155e-11 2.94889e-11 -9.02411e-11 5e-05 1.46608e-10 
60 1 0.18139 0.0183456 0.00701654 0.00600214 -0.000258587 -0.000296577 4.35548e-11 1.21184e-11 -5.6449e-12 5e-05 1.46608e-10 
61 1 0.180477 0.0156812 0.00846139 0.00610556 -0.000177523 0.000139109 1.70804e-11 8.32758e-12 -5.96691e-12 5e-05 1.46608e-10 
62 1 0.180979 0.0176743 0.00713425 0.00560817 -6.20579e-05 -0.000302552 -1.80679e-11 1.3923e-11 1.54835e-12 5e-05 1.46608e-10 
63 1 0.180692 0.0164237 0.00782713 0.00538165 -4.5273e-05 1.53062e-05 -2.95018e-11 -1.60854e-10 -3.14566e-11 5e-05 1.46608e-10 
64 1 0.186936 0.0174546 0.00716625 0.00553022 -0.000301376 3.69023e-05 5.34851e-11 7.76349e-11 -3.68842e-11 5e-05 1.46608e-10 
65 1 0.174717 0.0165344 0.00777107 0.00577288 -0.000536188 -0.000780822 2.96191e-10 -5.69129e-11 -1.4226e-11 5e-05 1.46608e-10 
66 1 0.174635 0.0162163 0.00799907 0.00610543 -0.000641325 -0.000775004 3.31855e-11 -5.75072e-11 2.47537e-11 5e-05 1.46608e-10 
67 1 0.181145 0.0184479 0.00701571 0.0060478 -0.000177763 -0.000310355 9.21831e-11 -4.5212e-11 5.31951e-13 5e-05 1.46608e-10 
69 1 0.181284 0.0178626 0.00709071 0.00581758 -0.000220323 -0.000291402 -1.00631e-10 -1.73496e-10 2.49915e-11 5e-05 1.46608e-10 
70 1 0.181263 0.0185749 0.00699121 0.00608146 -0.00020449 -0.000308669 -3.69001e-11 1.17495e-11 -9.63349e-13 5e-05 1.46608e-10 
72 1 0.180809 0.0165234 0.00774173 0.00543706 -6.70209e-05 3.86395e-05 -3.99682e-11 -1.57196e-11 3.79449e-12 5e-05 1.46608e-10 
73 1 0.180733 0.0165726 0.00769989 0.0054624 -5.06276e-05 3.7519e-05 -1.20649e-10 -2.56456e-11 2.91661e-11 5e-05 1.46608e-10 
74 1 0.181166 0.0185445 0.00700087 0.0060632 -0.00017969 -0.000311187 -3.1817e-11 -1.95615e-10 3.04872e-11 5e-05 1.46608e-10 
76 1 0.145405 0.0205718 0.00539992 7.42438e-15 9.12391e-15 -2.35015e-13 2.44994e-22 -1.31922e-22 2.68834e-24 5e-05 1.46608e-10 
77 1 0.181124 0.0183514 0.00703054 0.00602923 -0.000169209 -0.00031077 -3.81855e-11 -3.75336e-12 -1.77848e-12 5e-05 1.46608e-10 
78 1 0.175367 0.0185843 0.00691745 0.00623482 -0.000239389 7.72311e-05 -9.53564e-11 1.25105e-11 4.75614e-12 5e-05 1.46608e-10 
80 1 0.181188 0.018641 0.00698604 0.00609388 -0.000175924 -0.000313306 -6.67958e-11 -7.31918e-11 1.64712e-11 5e-05 1.46608e-10 
81 1 0.174892 0.017271 0.00729122 0.00547801 -0.00021922 -0.000186166 -8.36614e-11 -2.73446e-11 3.70988e-11 5e-05 1.46608e-10 
82 1 0.174816 0.0169331 0.00748611 0.00535466 -0.000426099 -0.000770332 3.53838e-11 1.43246e-11 -3.34773e-11 5e-05 1.46608e-10 
84 1 0.187051 0.0179978 0.00696701 0.00562532 -0.000267165 0.000128014 -6.90963e-12 8.06434e-13 -9.95343e-12 5e-05 1.46608e-10 
85 1 0.180434 0.0155328 0.00858822 0.00612637 -0.000180342 0.000141432 3.43269e-11 8.21196e-11 -6.96079e-11 5e-05 1.46608e-10 
86 1 0.181369 0.018249 0.00703138 0.00598332 -0.000256969 -0.000295802 -3.77881e-11 -7.88064e-12 2.60168e-12 5e-05 1.46608e-10 
87 1 0.180882 0.0171941 0.00723051 0.00562102 3.36286e-05 0.000214126 -1.2758e-12 -2.4182e-11 -6.63653e-11 5e-05 1.46608e-10 
88 1 0.181316 0.0184119 0.00701131 0.00603391 -0.000217704 -0.000304201 4.98777e-11 8.51339e-11 -1.66175e-11 5e-05 1.46608e-10 
90 1 0.181326 0.0180559 0.00706105 0.00589803 -0.000239055 -0.000293628 2.94401e-10 5.42471e-12 -1.83503e-11 5e-05 1.46608e-10 
91 1 0.180844 0.0170203 0.00731647 0.00562146 -1.14587e-05 0.000161376 -8.81864e-12 1.03998e-10 9.11299e-11 5e-05 1.46608e-10 
92 1 0.181155 0.0180921 0.00706541 0.00595933 -0.000185332 -0.000304083 9.22473e-11 -1.65727e-10 1.69696e-11 5e-05 1.46608e-10 
93 1 0.18707 0.0180955 0.00695817 0.00560345 -0.000261766 0.000127585 -1.14294e-13 1.86971e-12 1.60305e-12 5e-05 1.46608e-10 
94 1 0.181305 0.0179593 0.00707589 0.00588939 -0.00022691 -0.000294821 1.36518e-10 -2.4467e-10 2.94509e-11 5e-05 1.46608e-10 
95 1 0.180752 0.0166472 0.00763614 0.00552484 -6.47404e-05 4.08572e-05 -1.63144e-10 4.15931e-11 -3.79358e-11 5e-05 1.46608e-10 
96 1 0.18077 0.016722 0.0075721 0.00554532 -0.00010346 1.49245e-05 2.6378e-11 6.25818e-11 -1.40349e-10 5e-05 1.46608e-10 
98 1 0.1814 0.0179889 0.0070664 0.00585386 -0.000270063 -0.000287112 4.19565e-10 1.42969e-10 -5.26445e-11 5e-05 1.46608e-10 
99 1 0.175259 0.0181091 0.00705194 0.00599989 -0.00028939 9.13262e-05 1.37295e-11 3.19873e-12 1.00576e-10 5e-05 1.46608e-10 
101 1 0.174951 0.0175535 0.00720894 0.00552229 -0.000153332 5.11561e-05 1.26263e-12 1.81879e-11 -2.11762e-11 5e-05 1.46608e-10 
102 1 0.0694385 0.0202053 0.00537268 3.98512e-15 4.42738e-15 -7.68276e-14 -2.91672e-22 1.38915e-22 -8.27181e-25 5e-05 1.46608e-10 
104 1 0.0249839 0.0195037 0.00542543 -3.58897e-15 -5.7811e-16 5.85127e-14 -7.62557e-25 7.44139e-24 0 5e-05 1.46608e-10 
106 1 0.168946 0.0175604 0.00750607 0.00556649 0.000385431 -0.000396376 2.40293e-12 3.54449e-12 -1.62006e-12 5e-05 1.46608e-10 
107 1 0.174796 0.0168533 0.0075431 0.00536321 -0.000424964 -0.000773169 -3.46796e-11 5.9738e-11 -4.23647e-11 5e-05 1.46608e-10 
108 1 0.180884 0.0168173 0.0074811 0.00555333 -0.000246913 -7.93201e-05 1.03472e-10 3.25672e-11 -3.09419e-11 5e-05 1.46608e-10 
110 1 0.181464 0.0182782 0.00702197 0.00598816 -0.00027507 -0.000293485 -9.63609e-12 -5.4501e-11 8.97745e-12 5e-05 1.46608e-10 
111 1 0.174971 0.0176478 0.00718221 0.00552011 -0.000149328 5.07603e-05 1.23191e-10 4.58838e-11 -1.92118e-11 5e-05 1.46608e-10 
112 1 0.174737 0.016614 0.00771407 0.00570599 -0.000512317 -0.000783366 4.68996e-11 3.94346e-11 -3.60868e-11 5e-05 1.46608e-10 
115 1 0.180807 0.0168698 0.00744296 0.00560484 -0.000154191 -1.34343e-05 1.85713e-10 1.15206e-10 -1.21386e-11 5e-05 1.46608e-10 
116 1 0.181412 0.0184421 0.00700171 0.00605551 -0.00026153 -0.000299162 -1.43144e-11 1.45174e-11 -7.00054e-13 5e-05 1.46608e-10 
117 1 0.181348 0.0181524 0.00704622 0.00592884 -0.000236013 -0.000295751 3.71623e-10 2.69251e-10 -6.09245e-11 5e-05 1.46608e-10 
118 1 0.174872 0.0171787 0.00732389 0.00550416 -0.000369173 -0.00059841 -7.25191e-11 -6.09158e-12 2.10235e-10 5e-05 1.46608e-10 
119 1 0.181209 0.0187375 0.00697121 0.00611553 -0.0001815 -0.000313543 4.57264e-11 1.19215e-10 -2.47638e-11 5e-05 1.46608e-10 
120 1 0.180368 0.0153102 0.00877842 0.00615278 -0.000188192 0.000148074 4.7636e-11 1.63344e-10 -1.38905e-10 5e-05 1.46608e-10 
121 1 0.181422 0.0180855 0.00705157 0.00590235 -0.000266428 -0.000289743 5.41222e-10 1.82158e-10 -4.84447e-11 5e-05 1.46608e-10 
122 1 0.181251 0.0181223 0.0070558 0.00594414 -0.000203894 -0.00030103 2.16065e-10 -1.07234e-10 5.12429e-12 5e-05 1.46608e-10 
124 1 0.181081 0.0181583 0.00706021 0.00597009 -0.000203002 -0.000302162 -2.8803e-11 -2.5339e-10 3.1264e-11 5e-05 1.46608e-10 
125 1 0.180789 0.0164489 0.00780538 0.005405 -5.59822e-05 3.20767e-05 2.39926e-10 8.13752e-11 -2.46951e-11 5e-05 1.46608e-10 
126 1 0.180671 0.0163493 0.00789064 0.00563049 -7.99301e-05 5.69103e-05 -1.08079e-10 -7.81025e-11 5.82347e-11 5e-05 1.46608e-10 
127 1 0.175226 0.0179627 0.00709336 0.00593797 -0.000285322 8.96843e-05 -1.64235e-11 2.21902e-11 -1.11223e-11 5e-05 1.46608e-10 
128 1 0.181093 0.017802 0.00710985 0.00568012 -0.000109308 -0.000299783 4.69807e-11 -7.20159e-11 8.81185e-12 5e-05 1.46608e-10 
129 1 0.175156 0.018495 0.00694243 0.00615065 -0.000237268 7.64395e-05 -7.44766e-11 -5.15918e-11 7.28998e-12 5e-05 1.46608e-10 
131 1 0.175073 0.0181187 0.00704894 0.00600573 -0.000218256 7.11377e-05 1.109e-10 5.18904e-12 1.26125e-11 5e-05 1.46608e-10 
132 1 0.180862 0.0171003 0.0072592 0.00562161 2.71353e-05 0.0002077 -8.38192e-13 3.80299e-12 8.30498e-12 5e-05 1.46608e-10 
133 1 0.181359 0.0186052 0.0069816 0.00608848 -0.00022548 -0.000306151 -4.17942e-11 4.09079e-11 -2.72486e-12 5e-05 1.46608e-10 
134 1 0.181113 0.0178988 0.00709505 0.00572064 -0.000124494 -0.000299928 2.86774e-11 -9.73354e-11 1.09218e-11 5e-05 1.46608e-10 
135 1 0.180713 0.0164981 0.00776356 0.00537389 -4.46566e-05 1.58314e-05 1.28486e-10 -1.33316e-10 -1.3166e-11 5e-05 1.46608e-10 
136 1 0.175126 0.0179604 0.00709387 0.00594062 -0.000251033 7.99208e-05 -2.43358e-11 1.05645e-10 -2.42392e-11 5e-05 1.46608e-10 
137 1 0.181134 0.0179955 0.00708023 0.00585613 -0.000159115 -0.00030256 7.42547e-12 -1.29503e-10 1.87415e-11 5e-05 1.46608e-10 
138 1 0.18079 0.0167964 0.0075087 0.00555522 -0.000154664 -2.80423e-05 1.28028e-10 4.91484e-11 -1.38533e-10 5e-05 1.46608e-10 
140 1 0.181059 0.0180617 0.00707506 0.00596053 -0.000181592 -0.000305168 -1.06773e-11 9.51531e-12 1.05772e-12 5e-05 1.46608e-10 
141 1 0.174777 0.0167734 0.00760008 0.0055066 -0.000458347 -0.000780338 -1.36661e-10 6.52368e-11 -3.9249e-13 5e-05 1.46608e-10 
143 1 0.393994 0.0150325 6.48596e-05 -2.1271e-21 1.6267e-21 -1.45327e-21 0 0 0 5e-05 1.46608e-10 
146 1 0.17528 0.0182032 0.00702531 0.00603896 -0.000277128 8.79184e-05 -1.14331e-10 1.67838e-10 -5.32779e-11 5e-05 1.46608e-10 
147 1 0.175135 0.0184009 0.00696906 0.00611751 -0.000230436 7.41632e-05 9.91386e-11 1.06233e-10 -1.18814e-11 5e-05 1.46608e-10 
148 1 0.00868595 0.0175514 0.00790284 -1.41387e-09 -0.0222363 0.00925191 7.02499e-19 8.36762e-12 2.01656e-11 5e-05 1.46608e-10 
149 1 0.181015 0.0174142 0.00716899 0.00562221 -7.8607e-05 -0.000300232 -6.2941e-11 7.11501e-12 -5.46877e-12 5e-05 1.46608e-10 
150 1 0.174613 0.0161371 0.0080561 0.00612677 -0.000643488 -0.000778335 5.46305e-11 -3.21627e-11 -5.51008e-12 5e-05 1.46608e-10 
151 1 0.17527 0.0185521 0.00692643 0.00619603 -0.000270664 8.67649e-05 3.57831e-11 6.72788e-11 -1.21686e-11 5e-05 1.46608e-10 
154 1 0.175147 0.0180544 0.00706726 0.0059844 -0.000252379 8.06498e-05 -9.97542e-11 9.06329e-11 -2.50445e-11 5e-05 1.46608e-10 
155 1 0.169056 0.0178138 0.00739369 0.00493595 0.000535605 -0.000433927 -3.7532e-12 3.30055e-12 -1.26165e-12 5e-05 1.46608e-10 
157 1 0.17501 0.0178364 0.00712883 0.00573411 -0.000186405 6.11227e-05 -8.60346e-11 1.47391e-10 -3.46225e-11 5e-05 1.46608e-10 
165 1 0.175291 0.0186462 0.00689981 0.00621388 -0.00026242 8.43542e-05 1.18479e-11 1.05148e-10 -3.62941e-11 5e-05 1.46608e-10 
166 1 0.180726 0.0162253 0.00799642 0.00633909 0.000119266 -0.00011465 7.07337e-11 -7.41579e-11 6.43234e-11 5e-05 1.46608e-10 
168 1 0.227825 0.0173659 0.00798271 1.38713e-07 -0.0216648 0.0103965 2.74112e-14 2.23109e-11 1.28748e-11 5e-05 1.46608e-10 
171 1 0.18065 0.016275 0.00795409 0.00603315 -0.000150685 0.000116664 1.26185e-11 -1.00038e-10 8.0271e-11 5e-05 1.46608e-10 
172 1 0.175168 0.0181491 0.00704046 0.00601894 -0.000252552 8.10748e-05 -1.25025e-13 9.13789e-11 -1.84986e-10 5e-05 1.46608e-10 
176 1 0.174699 0.0164541 0.007828 0.00580042 -0.000548675 -0.000777167 5.91201e-11 -2.98352e-11 9.16036e-12 5e-05 1.46608e-10 
177 1 0.174759 0.0166933 0.00765704 0.00563174 -0.000490118 -0.000783376 -3.45724e-10 1.37905e-10 -2.00053e-11 5e-05 1.46608e-10 
179 1 0.168998 0.0173978 0.00757307 0.00544681 0.000152743 -0.000292434 -3.12098e-11 2.23895e-11 -7.10738e-12 5e-05 1.46608e-10 
181 1 0.174677 0.0163751 0.00788503 0.00593142 -0.000591822 -0.00077343 -2.98523e-11 -2.96194e-11 4.63902e-12 5e-05 1.46608e-10 
182 1 0.180867 0.0167443 0.00754704 0.00552096 -0.00024172 -7.26073e-05 8.04206e-11 4.70375e-11 -3.9226e-11 5e-05 1.46608e-10 
184 1 0.181018 0.0178682 0.00710468 0.00550902 -6.6071e-05 -0.000296718 3.44575e-10 2.58465e-11 -2.48995e-11 5e-05 1.46608e-10 
187 1 0.181034 0.0175112 0.00715421 0.00565204 -8.45237e-05 -0.00030208 -3.91633e-11 -3.14513e-11 1.02612e-11 5e-05 1.46608e-10 
188 1 0.181273 0.0182189 0.00704097 0.00596683 -0.000208849 -0.00030162 -9.07633e-12 -4.40857e-11 5.44505e-12 5e-05 1.46608e-10 
189 1 0.181169 0.0177355 0.00711506 0.00574109 -0.000151766 -0.000297056 -2.01367e-10 -1.20648e-10 2.36979e-11 5e-05 1.46608e-10 
191 1 0.180901 0.017288 0.00720231 0.00562737 1.05273e-05 0.000113619 -5.90259e-11 -2.65199e-11 -1.02749e-10 5e-05 1.46608e-10 
192 1 0.171489 0.0160535 0.0083396 0.00593204 0.000533966 0.00085018 7.79201e-14 1.20425e-12 -6.02065e-13 5e-05 1.46608e-10 
193 1 0.183896 0.0175423 0.00715371 0.00580266 0.000689596 -0.0001225 2.41796e-13 4.52033e-13 -2.24732e-13 5e-05 1.46608e-10 
197 1 0.174592 0.0160578 0.00811312 0.00614996 -0.000646159 -0.000781305 4.49788e-12 6.01614e-12 -8.69855e-12 5e-05 1.46608e-10 
198 1 0.175267 0.0183041 0.00699669 0.00607544 -0.000247821 7.92236e-05 -1.73692e-10 1.02837e-10 -2.59858e-11 5e-05 1.46608e-10 
200 1 0.175261 0.0189654 0.00680931 0.00601751 -0.000266795 7.73482e-05 -4.05404e-10 4.11466e-11 -3.68812e-11 5e-05 1.46608e-10 
201 1 0.175177 0.0185891 0.00691581 0.00619202 -0.000244171 8.0232e-05 -3.69708e-11 -2.72162e-11 2.09651e-12 5e-05 1.46608e-10 
203 1 0.180921 0.0173839 0.00718185 0.00562934 -2.3485e-05 -8.07091e-05 -5.89945e-11 -2.93739e-11 -1.56141e-10 5e-05 1.46608e-10 
204 1 0.168923 0.0174599 0.00754976 0.00546034 0.000164966 -0.000298186 1.10909e-11 5.7073e-11 -2.6066e-11 5e-05 1.46608e-10 
206 1 0.168968 0.0176576 0.00746381 0.00553045 -1.40662e-05 -0.000224947 1.77546e-12 -6.94901e-14 -8.94269e-13 5e-05 1.46608e-10 
207 1 0.060646 0.0186723 0.00546139 1.16201e-15 5.18594e-15 3.71389e-14 1.27955e-24 1.05983e-24 -2.06795e-25 5e-05 1.46608e-10 
208 1 0.175114 0.0183069 0.00699568 0.00608702 -0.000213659 7.00256e-05 -1.7275e-10 2.85326e-11 2.21857e-11 5e-05 1.46608e-10 
209 1 0.168715 0.0165601 0.00783079 0.00557637 -0.000906168 0.00102946 -2.97625e-11 2.39549e-11 -5.53999e-12 5e-05 1.46608e-10 
210 1 0.181209 0.0179291 0.00708545 0.00587138 -0.000176081 -0.000301279 5.86069e-11 -1.19557e-10 9.67068e-12 5e-05 1.46608e-10 
211 1 0.17524 0.0188713 0.00683594 0.00626506 -0.000312677 9.73556e-05 3.28258e-11 1.82216e-10 -5.84781e-11 5e-05 1.46608e-10 
212 1 0.174911 0.0173648 0.00726229 0.0055389 -0.000156366 5.37943e-05 1.75927e-11 -1.24769e-11 -3.21409e-11 5e-05 1.46608e-10 
213 1 0.181074 0.0177051 0.00712464 0.00567593 -9.94383e-05 -0.000300995 -3.55037e-11 -5.73436e-11 8.52553e-12 5e-05 1.46608e-10 
214 1 0.181231 0.018834 0.00695637 0.0061263 -0.000192863 -0.000312809 -7.15014e-12 2.92135e-10 -3.92358e-11 5e-05 1.46608e-10 
217 1 0.180828 0.0165981 0.00767797 0.00549791 -7.96264e-05 5.46146e-05 -2.99786e-10 -1.15591e-10 5.00938e-11 5e-05 1.46608e-10 
218 1 0.181284 0.0186715 0.00697637 0.0061053 -0.000199497 -0.00031058 3.3383e-11 1.02516e-10 -1.44965e-11 5e-05 1.46608e-10 
221 1 0.168655 0.0162748 0.00790211 0.00545537 -0.000886671 0.00100762 7.65746e-11 8.44851e-12 1.096e-11 5e-05 1.46608e-10 
222 1 0.18052 0.0158297 0.00833455 0.00608883 -0.000172142 0.000134449 1.84468e-12 -3.46293e-11 2.88853e-11 5e-05 1.46608e-10 
223 1 0.189875 0.0174227 0.00711666 0.00556546 -0.000822213 0.000326757 3.40283e-13 -5.04299e-14 1.77775e-14 5e-05 1.46608e-10 
225 1 0.181054 0.0176082 0.00713942 0.00567159 -8.78832e-05 -0.000302527 -9.00998e-11 -6.19322e-11 1.2259e-11 5e-05 1.46608e-10 
226 1 0.175031 0.0179306 0.00710216 0.00587256 -0.000207577 6.81116e-05 -6.32632e-12 1.03628e-10 -2.26506e-11 5e-05 1.46608e-10 
228 1 0.0507861 0.0189683 0.00558458 -5.37147e-15 -1.91079e-14 -2.87013e-13 -4.04646e-22 1.27696e-23 6.41065e-24 5e-05 1.46608e-10 
231 1 0.197479 0.018695 0.00523156 -1.09984e-15 -2.69827e-14 1.45243e-13 -5.82613e-23 -1.60266e-24 -1.24077e-24 5e-05 1.46608e-10 
232 1 0.189081 0.0184947 0.00541361 -2.1643e-15 1.31052e-15 5.80686e-14 -1.15224e-23 4.36919e-23 -1.44757e-24 5e-05 1.46608e-10 
234 1 0.18123 0.0180258 0.00707064 0.00592999 -0.000196502 -0.000301255 1.90241e-10 -1.3712e-10 7.41437e-12 5e-05 1.46608e-10 
235 1 0.194679 0.0184196 0.00544868 1.51811e-14 9.62604e-14 2.34551e-13 -2.40725e-21 3.43383e-22 1.24077e-24 5e-05 1.46608e-10 
238 1 0.168733 0.0166554 0.00780677 0.00550909 -0.000900678 0.0010186 7.55468e-11 2.73002e-11 -6.01684e-12 5e-05 1.46608e-10 
239 1 0.168559 0.0159354 0.00820351 0.00585133 -0.0013322 0.000824557 -1.85294e-11 5.48456e-11 -6.94001e-12 5e-05 1.46608e-10 
240 1 0.168635 0.0161797 0.00792582 0.0054779 -0.000894369 0.00101695 1.04818e-10 -2.31795e-11 1.85767e-11 5e-05 1.46608e-10 
241 1 0.16858 0.0159828 0.008118 0.00585025 -0.00125954 0.00086873 9.69653e-12 3.2601e-11 2.88375e-11 5e-05 1.46608e-10 
242 1 0.169023 0.017901 0.007358 0.00585361 0.00082215 -0.00059412 2.35609e-12 3.85488e-12 -1.68042e-12 5e-05 1.46608e-10 
243 1 0.168538 0.0158905 0.00829033 0.00578345 -0.00131591 0.000812422 4.59783e-13 1.34459e-11 -5.21601e-11 5e-05 1.46608e-10 
244 1 0.168599 0.0160343 0.00803441 0.00569066 -0.00105499 0.000958653 -7.08214e-11 3.23411e-11 7.29605e-11 5e-05 1.46608e-10 
245 1 0.168752 0.0167507 0.00778275 0.00543674 -0.000890236 0.00100564 -3.14476e-11 -2.55904e-11 -1.4613e-12 5e-05 1.46608e-10 
246 1 0.168676 0.0163698 0.0078784 0.00542506 -0.000877986 0.00100042 -6.35556e-11 -1.64887e-11 3.74274e-12 5e-05 1.46608e-10 
248 1 0.174656 0.0162957 0.00794205 0.00608259 -0.00063605 -0.000773446 9.44641e-11 -5.54818e-11 -2.02407e-11 5e-05 1.46608e-10 
249 1 0.168799 0.0169395 0.00773665 0.0058853 -0.000974531 0.0010911 -2.04074e-11 -2.81719e-11 7.46941e-12 5e-05 1.46608e-10 
250 1 0.176091 0.0153293 0.0143578 0.00461692 0.00421931 0.00393874 1.03884e-11 -4.31289e-11 -3.41448e-11 5e-05 1.46608e-10 
251 1 0.180939 0.017043 0.00729139 0.00561022 1.41804e-05 0.000216158 -4.18594e-11 6.57328e-11 -2.12096e-11 5e-05 1.46608e-10 
252 1 0.168775 0.0168451 0.00775967 0.0060999 -0.00101983 0.00113382 2.04126e-12 -4.07352e-11 9.11201e-12 5e-05 1.46608e-10 
254 1 0.164071 0.0177833 0.00780271 -2.92156e-10 -0.0228523 0.00782087 -1.69553e-18 7.07292e-12 2.07212e-11 5e-05 1.46608e-10 
255 1 0.17499 0.0177422 0.00715549 0.00559178 -0.000161264 5.24056e-05 3.15946e-11 1.04683e-10 -2.84672e-11 5e-05 1.46608e-10 
256 1 0.178944 0.0174635 0.00794061 -2.99716e-10 -0.0219953 0.00981579 -1.45313e-18 8.89683e-12 1.99406e-11 5e-05 1.46608e-10 
257 1 0.175189 0.0182432 0.00701384 0.00606182 -0.000240439 7.72193e-05 -1.38084e-10 -2.20648e-11 1.4398e-11 5e-05 1.46608e-10 
258 1 0.175363 0.0182783 0.00700416 0.00605312 -0.00033481 0.000104186 -3.22702e-10 -6.44745e-11 1.71857e-11 5e-05 1.46608e-10 
259 1 0.168822 0.017034 0.0077135 0.00587068 -0.000972595 0.00108869 -6.71798e-12 -2.28995e-13 3.45757e-12 5e-05 1.46608e-10 
260 1 0.175235 0.018396 0.00697059 0.00611202 -0.000232691 7.50151e-05 -5.01224e-11 1.4632e-10 -5.04838e-11 5e-05 1.46608e-10 
261 1 0.175338 0.0183714 0.00697772 0.00612778 -0.000309426 9.68897e-05 -1.55607e-10 3.08643e-11 -1.46408e-11 5e-05 1.46608e-10 
262 1 0.175307 0.0184629 0.00695176 0.00617361 -0.000289634 9.14203e-05 -8.68753e-12 6.5867e-11 -1.40229e-11 5e-05 1.46608e-10 
263 1 0.169025 0.0175034 0.00752703 0.00556578 0.000384686 -0.000396029 -4.78005e-13 6.34967e-13 -2.55757e-13 5e-05 1.46608e-10 
265 1 0.175198 0.0186831 0.00688919 0.00621113 -0.00026359 8.50402e-05 -2.60261e-11 3.91144e-11 -1.91595e-11 5e-05 1.46608e-10 
270 1 0.181177 0.0181887 0.00705057 0.00597911 -0.000186917 -0.000305494 7.09415e-11 -1.32774e-10 1.12581e-11 5e-05 1.46608e-10 
271 1 0.235419 0.0175088 0.00791621 -3.14679e-10 -0.02214 0.00954858 -1.85717e-18 8.66599e-12 2.00663e-11 5e-05 1.46608e-10 
272 1 0.168874 0.0172415 0.00764471 0.00635859 0.000472545 -0.000466502 1.04601e-12 1.63983e-12 -7.41166e-13 5e-05 1.46608e-10 
273 1 0.0748932 0.0180308 0.00773645 -0.00169261 -0.012867 0.00312703 1.04591e-10 -2.46078e-10 7.81681e-11 5e-05 1.46608e-10 
274 1 0.168845 0.0171285 0.00769034 0.00585677 -0.000972535 0.00108664 5.12988e-12 6.97147e-12 -5.60444e-12 5e-05 1.46608e-10 
275 1 0.175219 0.0187772 0.00686256 0.00624016 -0.000291033 9.27082e-05 1.59525e-12 1.00089e-10 -3.76224e-11 5e-05 1.46608e-10 
276 1 0.174931 0.0174591 0.00723561 0.00552817 -0.000154974 5.33344e-05 6.08577e-11 -1.55781e-12 -6.51991e-12 5e-05 1.46608e-10 
277 1 0.174834 0.0170132 0.00742915 0.00543679 -0.000449658 -0.000771594 -3.83756e-11 -2.07704e-11 3.19889e-11 5e-05 1.46608e-10 
279 1 0.169049 0.0180167 0.0073077 0.00579879 0.000294002 -0.000367184 1.26942e-12 3.92279e-14 -7.05012e-14 5e-05 1.46608e-10 
282 1 0.168696 0.0164649 0.0078547 0.00540411 -0.00087442 0.000996353 1.12895e-10 -5.69086e-12 1.89419e-11 5e-05 1.46608e-10 
283 1 0.168615 0.0160847 0.00794953 0.00550143 -0.000899839 0.00101605 -2.66879e-11 -7.33536e-11 3.72695e-11 5e-05 1.46608e-10 
284 1 0.174853 0.0170932 0.00737218 0.00548659 -0.000463888 -0.000774989 -2.00839e-10 1.32023e-11 1.28636e-10 5e-05 1.46608e-10 
288 1 0.175304 0.018023 0.0070764 0.00595586 -0.00031182 9.74285e-05 4.49137e-11 1.58853e-11 -2.00607e-11 5e-05 1.46608e-10 
293 1 0.168905 0.0173618 0.00759228 0.00476222 0.00127689 -0.000742 -2.32123e-10 7.24279e-11 -2.11246e-11 5e-05 1.46608e-10 
294 1 0.152576 0.0182562 0.00546336 5.18382e-16 -1.41468e-15 1.14587e-14 -2.43307e-22 -1.91286e-23 1.05466e-23 5e-05 1.46608e-10 
295 1 0.214855 0.0184832 0.00764288 -5.18311e-09 -0.0238376 0.00350293 5.13702e-12 2.632e-11 1.88624e-11 5e-05 1.46608e-10 
297 1 0.181102 0.0182548 0.00704537 0.00599565 -0.000191633 -0.000305336 7.02607e-11 3.83966e-11 -8.43496e-12 5e-05 1.46608e-10 
300 1 0.180846 0.0166718 0.00761279 0.00544556 -0.00109748 -0.00102761 -8.24072e-11 -2.68104e-10 -4.35941e-10 5e-05 1.46608e-10 
