ITEM: TIMESTEP
19400000
ITEM: NUMBER OF ATOMS
284
ITEM: BOX BOUNDS ff ff ff
-0.02 0.43
-0.02 0.06
-0.02 0.07
ITEM: ATOMS id type x y z vx vy vz fx fy fz radius mass 
1 1 0.125936 0.0162543 0.00782235 0.00578694 -7.63498e-05 -2.46329e-05 -6.60192e-11 -2.30288e-12 -1.00224e-11 5e-05 1.46608e-10 
2 1 0.126341 0.0172246 0.00721504 0.00565147 -0.000123986 5.15166e-05 2.17343e-11 -5.18345e-11 -9.5996e-11 5e-05 1.46608e-10 
3 1 0.119915 0.0162208 0.00798647 0.00548443 9.79195e-05 -9.92208e-05 -1.43141e-11 -1.17118e-10 1.23796e-10 5e-05 1.46608e-10 
4 1 0.126325 0.0175645 0.00710516 0.00578849 -0.000122146 8.74314e-05 -6.21731e-11 6.53747e-11 -1.28987e-11 5e-05 1.46608e-10 
5 1 0.125842 0.0162276 0.00784012 0.00580725 -0.000123793 -8.92178e-06 7.68206e-11 1.42423e-10 -1.11573e-10 5e-05 1.46608e-10 
6 1 0.131866 0.0163314 0.00778945 0.00539512 -0.000764825 0.000288467 -1.79061e-10 4.99064e-11 -1.01514e-11 5e-05 1.46608e-10 
7 1 0.12594 0.0166434 0.00758066 0.00551224 -5.75556e-05 -3.04779e-05 2.71786e-11 -1.67132e-11 1.62818e-11 5e-05 1.46608e-10 
8 1 0.125855 0.0159431 0.00805895 0.00580233 0.00012892 0.000425637 -5.93549e-10 1.57553e-10 -2.47796e-10 5e-05 1.46608e-10 
9 1 0.132106 0.0174291 0.00739986 0.00554228 -0.000664836 0.000657403 2.45923e-12 -2.54694e-12 -6.8141e-13 5e-05 1.46608e-10 
10 1 0.12596 0.0167267 0.00752874 0.00552821 -6.41787e-05 -2.68537e-05 1.2615e-10 -2.90947e-11 1.67015e-11 5e-05 1.46608e-10 
11 1 0.126074 0.0168368 0.00745897 0.00554509 -7.55448e-05 -1.96851e-05 -8.84787e-11 -2.888e-11 1.14003e-11 5e-05 1.46608e-10 
12 1 0.126151 0.0171699 0.00725134 0.00561578 -9.23357e-05 -3.46118e-06 8.46174e-12 6.28689e-11 8.8878e-11 5e-05 1.46608e-10 
13 1 0.126217 0.0176877 0.00716355 0.00563374 -4.92744e-05 6.79235e-05 -7.01286e-11 2.02311e-11 -3.87955e-11 5e-05 1.46608e-10 
14 1 0.119627 0.0156132 0.00866536 0.00603099 -6.35738e-05 8.21507e-05 1.35809e-10 2.40904e-10 -2.69392e-10 5e-05 1.46608e-10 
15 1 0.126056 0.0171433 0.00726889 0.00564106 -0.00018019 4.66774e-05 4.00133e-11 2.00551e-11 -1.00324e-11 5e-05 1.46608e-10 
16 1 0.119605 0.0155482 0.00873811 0.00603647 -6.5848e-05 8.44255e-05 6.13014e-11 2.33859e-10 -2.62252e-10 5e-05 1.46608e-10 
17 1 0.126327 0.0177327 0.00714913 0.00602346 -0.0001339 9.41827e-05 4.41189e-11 1.03604e-10 1.5035e-10 5e-05 1.46608e-10 
18 1 0.132003 0.0169611 0.00754251 0.00527758 -0.000615298 0.000620234 3.79389e-12 -1.27816e-12 -2.95137e-12 5e-05 1.46608e-10 
19 1 0.125801 0.0160637 0.0079472 0.00584485 0.000106105 0.000344102 2.03281e-10 8.03484e-11 -1.81841e-10 5e-05 1.46608e-10 
20 1 0.126306 0.0176364 0.00717191 0.00575527 -8.97388e-05 3.43196e-05 -2.78245e-11 -3.55354e-11 2.1756e-11 5e-05 1.46608e-10 
21 1 0.125821 0.0161452 0.00789305 0.00584237 -3.21333e-05 0.000138388 1.31834e-10 1.57165e-10 -2.01276e-10 5e-05 1.46608e-10 
22 1 0.126112 0.0170034 0.00735513 0.005577 -8.75415e-05 -1.45346e-05 -6.75993e-11 -1.64733e-11 -6.07169e-13 5e-05 1.46608e-10 
23 1 0.11995 0.0166725 0.00751174 0.00559525 -0.00025871 -0.000236111 3.73776e-10 -9.81315e-11 2.88404e-11 5e-05 1.46608e-10 
24 1 0.132085 0.0173356 0.00742831 0.00551335 -0.00065867 0.000653078 8.52953e-13 -4.99788e-13 2.29028e-12 5e-05 1.46608e-10 
25 1 0.126035 0.0166703 0.00756282 0.005511 -6.54571e-05 -2.56194e-05 2.8527e-12 -2.56203e-11 1.39157e-11 5e-05 1.46608e-10 
26 1 0.131944 0.0166797 0.00762854 0.00542574 -0.000643728 0.000641586 3.40213e-12 -6.22962e-12 -1.0065e-12 5e-05 1.46608e-10 
27 1 0.119876 0.0163958 0.00779071 0.00559244 -5.84397e-06 1.79338e-05 4.96667e-11 -1.25378e-10 -3.28769e-10 5e-05 1.46608e-10 
28 1 0.126178 0.0174965 0.00720787 0.00567448 -5.82143e-05 7.34943e-05 -3.56944e-12 -1.21185e-11 -6.53409e-11 5e-05 1.46608e-10 
29 1 0.125956 0.0163374 0.00777048 0.00574573 -6.30983e-05 -3.35457e-05 -1.08299e-10 -9.22608e-11 7.55102e-11 5e-05 1.46608e-10 
30 1 0.126305 0.017469 0.00712726 0.00569018 -0.000100436 8.11673e-05 -1.44217e-11 5.4468e-11 -1.32717e-11 5e-05 1.46608e-10 
31 1 0.126037 0.0170597 0.00732103 0.00559505 -8.95065e-05 -1.23668e-05 -3.02372e-11 -5.53311e-11 4.8447e-11 5e-05 1.46608e-10 
32 1 0.126093 0.0169201 0.00740705 0.0055621 -8.19392e-05 -1.65122e-05 -8.73569e-11 -3.83006e-11 7.72834e-12 5e-05 1.46608e-10 
33 1 0.131884 0.0164003 0.00771931 0.00546013 -0.000770959 0.000294103 3.40014e-11 1.85592e-11 -5.05039e-11 5e-05 1.46608e-10 
34 1 0.126149 0.0174045 0.00723425 0.00569462 -7.2202e-05 6.94945e-05 1.01837e-11 -6.93183e-11 -1.15808e-11 5e-05 1.46608e-10 
36 1 0.132127 0.0175226 0.0073714 0.00557113 -0.000671023 0.000661686 -1.27378e-12 -2.79752e-12 7.13255e-12 5e-05 1.46608e-10 
37 1 0.125979 0.01681 0.00747681 0.0055513 -7.1548e-05 -2.21388e-05 7.4846e-11 -4.0641e-11 2.30928e-11 5e-05 1.46608e-10 
38 1 0.126131 0.0170866 0.00730319 0.00559144 -9.08036e-05 -1.13312e-05 -1.95519e-11 8.61421e-12 6.65736e-12 5e-05 1.46608e-10 
39 1 0.132064 0.0172421 0.00745677 0.00548426 -0.000652764 0.00064881 8.19507e-13 -2.90165e-13 -5.19863e-12 5e-05 1.46608e-10 
41 1 0.125861 0.0163108 0.00778818 0.0057484 -0.000112397 -1.12997e-05 -6.04963e-11 5.15183e-11 -4.19232e-11 5e-05 1.46608e-10 
42 1 0.126018 0.0169765 0.00737296 0.00558075 -8.34217e-05 -1.56517e-05 -3.1897e-11 -8.78938e-11 5.34344e-11 5e-05 1.46608e-10 
44 1 0.126246 0.017197 0.0072333 0.00563612 -0.000106842 1.86459e-05 1.28075e-11 4.83449e-11 -4.53425e-12 5e-05 1.46608e-10 
45 1 0.131924 0.016586 0.00765716 0.005432 -0.000644753 0.000641536 -6.13648e-12 2.61268e-11 -5.0338e-12 5e-05 1.46608e-10 
46 1 0.131983 0.0168673 0.00757119 0.00525468 -0.000612557 0.000617453 6.70099e-12 -1.44075e-11 6.49733e-12 5e-05 1.46608e-10 
47 1 0.125901 0.0164771 0.00768442 0.00563331 -7.91515e-05 -1.87159e-05 -2.86583e-12 -1.98619e-11 1.28341e-12 5e-05 1.46608e-10 
48 1 0.126227 0.0171138 0.00728516 0.00560591 -0.000110529 2.54062e-06 1.22403e-12 2.17758e-11 -1.9017e-12 5e-05 1.46608e-10 
49 1 0.131964 0.0167735 0.00759988 0.005265 -0.00061584 0.000619466 5.06132e-12 -2.19146e-11 9.80033e-12 5e-05 1.46608e-10 
50 1 0.126191 0.0173453 0.0071653 0.0056678 -8.0178e-05 6.27066e-05 2.12592e-11 2.74891e-11 -8.08309e-12 5e-05 1.46608e-10 
51 1 0.126285 0.0173736 0.00714937 0.00567365 -9.60061e-05 8.04047e-05 2.77085e-11 6.12144e-11 -1.00952e-11 5e-05 1.46608e-10 
52 1 0.126315 0.0180011 0.00715782 0.00609407 -0.000187751 0.000109204 -1.89587e-10 2.00487e-10 -6.13825e-11 5e-05 1.46608e-10 
53 1 0.132022 0.0170549 0.00751384 0.00528206 -0.000616457 0.000620941 5.39706e-12 6.06101e-12 1.36013e-12 5e-05 1.46608e-10 
54 1 0.125917 0.0161711 0.00787424 0.00585321 -8.07893e-05 -1.38992e-05 -4.02025e-12 1.24694e-11 -2.80385e-12 5e-05 1.46608e-10 
55 1 0.11967 0.0157434 0.00851987 0.00602021 -5.73864e-05 7.49849e-05 5.74019e-11 1.666e-11 -8.14026e-12 5e-05 1.46608e-10 
56 1 0.125998 0.0168932 0.00742488 0.00556272 -7.6554e-05 -1.93906e-05 -4.09214e-11 -6.03363e-11 3.4429e-11 5e-05 1.46608e-10 
57 1 0.131904 0.0164923 0.00768578 0.00544207 -0.000644443 0.000642226 3.00561e-11 9.59224e-12 1.90976e-11 5e-05 1.46608e-10 
59 1 0.126168 0.0168641 0.00744091 0.00554712 -9.26972e-05 -9.08737e-06 -8.07312e-11 -5.62127e-12 4.44647e-12 5e-05 1.46608e-10 
60 1 0.126188 0.0169473 0.00738899 0.00555495 -9.66923e-05 -6.66078e-06 -1.21879e-10 -5.83533e-12 3.33484e-13 5e-05 1.46608e-10 
61 1 0.125881 0.0163939 0.00773631 0.0057052 -9.6237e-05 -9.35545e-06 -1.37594e-10 -1.95537e-12 -2.49841e-11 5e-05 1.46608e-10 
62 1 0.126586 0.0179107 0.0070269 0.00609382 -0.00022122 0.000114262 -5.94498e-11 3.4834e-12 1.33183e-11 5e-05 1.46608e-10 
63 1 0.126207 0.0170306 0.00733706 0.00557385 -0.000103701 -3.06797e-06 -9.60029e-11 -2.54792e-11 4.34132e-12 5e-05 1.46608e-10 
64 1 0.132042 0.0171486 0.00748522 0.00545477 -0.000646851 0.000644476 2.36204e-12 4.47055e-12 -1.30932e-12 5e-05 1.46608e-10 
65 1 0.119913 0.0165305 0.0076476 0.0056864 -0.00015172 -0.000142013 -3.55586e-11 3.00386e-11 -4.91396e-10 5e-05 1.46608e-10 
66 1 0.1202 0.0175208 0.00733052 0.00596134 -0.00014965 0.000251345 2.23591e-11 -8.10664e-11 -2.3715e-11 5e-05 1.46608e-10 
67 1 0.12638 0.0174046 0.0071431 0.00567739 -0.000106984 8.3298e-05 4.67971e-11 7.65581e-11 -3.87699e-11 5e-05 1.46608e-10 
68 1 0.126171 0.0172542 0.00720134 0.00564668 -8.8661e-05 2.05108e-05 1.16752e-11 9.8211e-11 1.09594e-10 5e-05 1.46608e-10 
69 1 0.126054 0.0167536 0.0075109 0.00552661 -7.01165e-05 -2.30215e-05 -6.60679e-11 -2.5255e-11 2.30787e-11 5e-05 1.46608e-10 
70 1 0.126197 0.0175921 0.00718572 0.00565766 -5.79628e-05 7.11753e-05 -1.17015e-11 6.57528e-11 -5.67742e-11 5e-05 1.46608e-10 
71 1 0.119649 0.0156783 0.00859262 0.00602573 -5.85557e-05 7.63109e-05 1.81798e-11 1.35314e-10 -1.55986e-10 5e-05 1.46608e-10 
72 1 0.12637 0.0177544 0.00706121 0.00604976 -0.000178226 9.93239e-05 -2.73222e-10 1.01054e-10 -7.3916e-12 5e-05 1.46608e-10 
73 1 0.126402 0.0178224 0.0071272 0.00604802 -0.000172152 9.84794e-05 -2.94106e-10 2.38134e-11 3.07828e-11 5e-05 1.46608e-10 
74 1 0.126321 0.0179747 0.00700921 0.00616161 -0.000168601 0.000105482 -7.50795e-13 -4.11366e-11 1.58387e-11 5e-05 1.46608e-10 
76 1 0.120361 0.0185417 0.00699435 0.00608482 -0.000300278 0.000295557 1.98382e-11 1.00334e-10 -1.9032e-11 5e-05 1.46608e-10 
77 1 0.126249 0.0180416 0.00699282 0.00616605 -0.000176754 0.000102895 8.5038e-11 -1.19263e-10 3.22639e-11 5e-05 1.46608e-10 
78 1 0.119758 0.0160038 0.00822904 0.00602387 -6.24424e-05 7.78663e-05 -1.1442e-10 -3.25707e-10 3.57807e-10 5e-05 1.46608e-10 
79 1 0.119969 0.0167438 0.0074441 0.00559767 -0.000274474 -0.000230265 1.46951e-10 1.28727e-11 1.38518e-10 5e-05 1.46608e-10 
80 1 0.126216 0.0177866 0.00714882 0.00562161 -5.03801e-05 7.00956e-05 6.14734e-11 3.32717e-11 -4.50316e-11 5e-05 1.46608e-10 
81 1 0.119895 0.0164615 0.00771751 0.00565647 -7.77011e-05 -5.79301e-05 3.68222e-10 -5.18175e-10 -7.49825e-10 5e-05 1.46608e-10 
82 1 0.119932 0.0166012 0.00757944 0.00564465 -0.000190168 -0.000173447 1.52127e-10 1.35312e-10 -2.89394e-11 5e-05 1.46608e-10 
83 1 0.119839 0.0162649 0.0079372 0.0054743 -6.83938e-06 -5.10828e-07 2.94543e-10 -1.77081e-10 4.51959e-12 5e-05 1.46608e-10 
84 1 0.132148 0.0176161 0.00734295 0.00560032 -0.000677116 0.000665904 3.06855e-14 -6.29738e-12 -1.13712e-12 5e-05 1.46608e-10 
85 1 0.125761 0.0159173 0.00807718 0.00573155 0.000153709 0.000408219 6.39948e-11 -5.83508e-10 2.92089e-10 5e-05 1.46608e-10 
86 1 0.12623 0.0175336 0.00711138 0.0056417 -6.58471e-05 7.2925e-05 -4.5769e-11 -4.43069e-11 -1.06703e-11 5e-05 1.46608e-10 
87 1 0.126322 0.0171412 0.00726702 0.00562189 -0.000138396 1.59641e-05 -1.74095e-11 -3.24763e-11 -6.08701e-11 5e-05 1.46608e-10 
88 1 0.126422 0.0181525 0.00696867 0.00621101 -0.000182772 0.000107381 -1.19655e-10 -1.28395e-11 6.99982e-12 5e-05 1.46608e-10 
89 1 0.126269 0.0177248 0.0070671 0.00560836 -6.07132e-05 7.09047e-05 -7.27706e-11 6.07108e-11 -1.37309e-11 5e-05 1.46608e-10 
90 1 0.126462 0.0177923 0.00705328 0.00602646 -0.000192208 0.000105378 -3.61132e-10 -9.5629e-11 -3.3053e-11 5e-05 1.46608e-10 
91 1 0.126095 0.0173103 0.00716474 0.00569577 -9.68989e-05 -1.02108e-05 -1.06017e-11 -7.14279e-12 1.58672e-12 5e-05 1.46608e-10 
92 1 0.126516 0.0181191 0.00697745 0.00622481 -0.000148157 9.90838e-05 -1.63934e-10 9.02682e-11 -2.06805e-11 5e-05 1.46608e-10 
93 1 0.126227 0.0179537 0.00715659 0.00609379 -0.000160834 8.03528e-05 -7.0785e-11 1.05852e-10 2.95335e-10 5e-05 1.46608e-10 
94 1 0.126249 0.0176292 0.00708924 0.00562634 -5.36481e-05 7.00059e-05 -6.19333e-11 -3.38164e-11 -1.28161e-12 5e-05 1.46608e-10 
95 1 0.126153 0.0175964 0.00709592 0.00564646 -5.87579e-05 7.25673e-05 7.98932e-12 2.18064e-11 -3.57798e-11 5e-05 1.46608e-10 
96 1 0.126192 0.0177875 0.00705164 0.00561618 -4.61732e-05 6.77535e-05 -2.32591e-11 6.29019e-11 -8.73312e-12 5e-05 1.46608e-10 
97 1 0.120083 0.0168602 0.00738916 0.00564685 -6.2402e-05 0.000218369 -1.2033e-10 3.06716e-11 8.15156e-11 5e-05 1.46608e-10 
98 1 0.126387 0.0182618 0.00694276 0.00619412 -0.000220623 0.000115949 1.11278e-10 -1.15339e-10 3.81569e-11 5e-05 1.46608e-10 
99 1 0.119988 0.0168279 0.00739349 0.00563002 -1.67463e-05 0.000208629 5.29169e-11 -1.24263e-10 9.05898e-11 5e-05 1.46608e-10 
100 1 0.126446 0.0180489 0.00699314 0.00615945 -0.000171101 0.000104406 1.10829e-10 9.05659e-11 -2.21665e-11 5e-05 1.46608e-10 
101 1 0.119952 0.0163525 0.00783929 0.00567439 3.44513e-05 -2.18914e-05 1.814e-10 -1.34247e-10 3.62441e-11 5e-05 1.46608e-10 
102 1 0.0694385 0.0202053 0.00537268 3.91089e-15 4.50682e-15 -7.68266e-14 -9.77379e-22 7.35958e-22 -3.72231e-24 5e-05 1.46608e-10 
104 1 0.120045 0.016693 0.00748499 0.00559426 -0.000257129 -0.000209392 2.38996e-10 1.28559e-10 1.59083e-10 5e-05 1.46608e-10 
105 1 0.1198 0.0161341 0.00808329 0.00570287 -2.07134e-05 3.34296e-05 -5.87009e-10 -2.50887e-10 2.51254e-10 5e-05 1.46608e-10 
106 1 0.120141 0.017147 0.00732221 0.00556935 -8.47341e-05 0.000225792 3.00089e-11 6.86916e-11 -1.27854e-11 5e-05 1.46608e-10 
107 1 0.120272 0.0176062 0.007305 0.00594818 -0.000158708 0.000258339 -6.69475e-11 1.27018e-10 -5.25204e-11 5e-05 1.46608e-10 
108 1 0.126078 0.0171423 0.00736654 0.00562752 -0.000128561 5.42073e-05 -5.76294e-11 4.39584e-11 2.44781e-11 5e-05 1.46608e-10 
109 1 0.126115 0.0174053 0.0071402 0.0056784 -6.76829e-05 7.56086e-05 1.43056e-11 -4.47831e-12 -1.44315e-11 5e-05 1.46608e-10 
110 1 0.126173 0.017692 0.00707378 0.00562702 -5.28836e-05 7.08691e-05 1.55902e-11 4.34062e-11 -3.28971e-11 5e-05 1.46608e-10 
111 1 0.126335 0.0184228 0.00690769 0.00623728 -0.000197329 0.000168826 1.04321e-10 5.72378e-11 -2.69432e-10 5e-05 1.46608e-10 
112 1 0.119858 0.0163303 0.00786395 0.00552487 -1.92881e-05 3.10696e-06 -6.00568e-11 5.11861e-11 -9.49469e-11 5e-05 1.46608e-10 
113 1 0.120159 0.0168028 0.00742489 0.00564318 -0.000120542 6.97595e-05 8.35131e-11 -1.331e-11 -6.48669e-11 5e-05 1.46608e-10 
115 1 0.126134 0.0175008 0.00711806 0.00566665 -6.21647e-05 7.47757e-05 2.25106e-11 -2.79572e-11 -3.78459e-11 5e-05 1.46608e-10 
116 1 0.126149 0.0167808 0.00749284 0.00553199 -8.80836e-05 -1.18172e-05 -9.7354e-11 2.09787e-12 4.29668e-13 5e-05 1.46608e-10 
117 1 0.126016 0.016587 0.00761478 0.00550904 -6.16004e-05 -2.80156e-05 3.96303e-11 -5.70139e-11 3.67186e-11 5e-05 1.46608e-10 
118 1 0.119714 0.0158736 0.00837439 0.00602379 -5.24348e-05 6.8626e-05 5.80266e-11 9.14649e-11 -5.8577e-11 5e-05 1.46608e-10 
119 1 0.1264 0.0175 0.007121 0.00575989 -0.000120316 8.7839e-05 5.89028e-11 1.37607e-10 -3.81257e-11 5e-05 1.46608e-10 
120 1 0.125781 0.0159886 0.00800997 0.0058102 0.000168173 0.000416686 -2.8784e-10 -2.32342e-10 1.61294e-10 5e-05 1.46608e-10 
121 1 0.125875 0.0160162 0.00799374 0.00583712 0.000157152 0.000426042 8.10095e-11 1.66943e-10 1.62842e-10 5e-05 1.46608e-10 
122 1 0.126299 0.0178148 0.00709814 0.00606426 -0.000169482 0.000100538 6.7953e-11 9.62561e-11 2.41882e-10 5e-05 1.46608e-10 
123 1 0.11982 0.0161994 0.00801024 0.00554115 -2.70921e-06 1.4478e-05 -1.67916e-10 -3.57373e-11 8.97872e-11 5e-05 1.46608e-10 
124 1 0.126305 0.0178914 0.00716221 0.00607843 -0.000173754 0.000100104 1.43285e-11 2.59316e-10 2.19643e-10 5e-05 1.46608e-10 
125 1 0.125896 0.0160893 0.00792863 0.0058187 0.000123193 0.000453928 2.23869e-11 5.8527e-11 -9.586e-13 5e-05 1.46608e-10 
126 1 0.126076 0.0172271 0.00721666 0.0056791 -9.295e-05 -1.01571e-05 2.32909e-11 1.00447e-11 -5.95318e-12 5e-05 1.46608e-10 
127 1 0.120515 0.0177953 0.00726226 0.00604048 -0.000157519 0.000261187 -9.41589e-11 2.16882e-10 -5.88592e-11 5e-05 1.46608e-10 
128 1 0.126346 0.0176598 0.00708306 0.00594863 -0.00015294 9.94258e-05 -6.5966e-11 6.97928e-11 -3.0845e-11 5e-05 1.46608e-10 
129 1 0.12621 0.0178739 0.00709894 0.00605313 -0.000128153 4.20753e-05 -9.34306e-11 -1.59525e-10 5.11349e-10 5e-05 1.46608e-10 
131 1 0.120063 0.0167657 0.00741563 0.00561521 -0.000203883 -0.000292621 2.83339e-10 -1.59814e-10 8.09302e-11 5e-05 1.46608e-10 
132 1 0.126377 0.0178579 0.00703708 0.006081 -0.000176595 9.76249e-05 -2.59075e-10 -9.12271e-11 5.46388e-11 5e-05 1.46608e-10 
133 1 0.125976 0.0164206 0.00771859 0.00570972 -2.64759e-06 -6.65866e-05 9.61823e-11 3.52637e-11 -3.01854e-11 5e-05 1.46608e-10 
134 1 0.126559 0.0178161 0.00704873 0.00602635 -0.000258865 0.000121291 5.36615e-10 3.75546e-11 -2.47432e-11 5e-05 1.46608e-10 
135 1 0.126091 0.0165311 0.00764861 0.00549455 -7.67654e-05 -1.84439e-05 1.81222e-10 3.50997e-11 -2.36824e-11 5e-05 1.46608e-10 
136 1 0.119736 0.0159387 0.00830165 0.00594814 -4.43988e-05 6.08974e-05 5.90322e-10 -2.56867e-10 2.99593e-10 5e-05 1.46608e-10 
137 1 0.12627 0.018137 0.00697201 0.00618002 -0.000188974 0.000109107 -9.81139e-11 -1.41744e-10 -2.06385e-12 5e-05 1.46608e-10 
138 1 0.126351 0.0180795 0.00698502 0.00616626 -0.000187565 0.000108155 6.36761e-11 4.24532e-11 -1.91592e-11 5e-05 1.46608e-10 
140 1 0.12621 0.0174381 0.00713352 0.00565407 -8.29004e-05 7.95832e-05 3.56199e-11 -6.76325e-11 -1.16729e-11 5e-05 1.46608e-10 
141 1 0.119895 0.0161555 0.00805954 0.00565432 8.57865e-05 -8.5441e-05 -4.18914e-10 -6.05148e-11 1.58358e-10 5e-05 1.46608e-10 
142 1 0.119989 0.0164837 0.00769267 0.00563666 -8.20939e-05 0.00012596 -6.53156e-10 -1.08278e-10 -5.43046e-10 5e-05 1.46608e-10 
143 1 0.119779 0.0160689 0.00815615 0.00598342 -6.19134e-05 7.81544e-05 2.43445e-10 -2.2705e-10 2.69085e-10 5e-05 1.46608e-10 
146 1 0.120066 0.0164378 0.00774423 0.00563897 -9.80576e-05 0.000115945 2.75589e-10 -6.26627e-12 -1.66101e-10 5e-05 1.46608e-10 
147 1 0.119692 0.0158085 0.00844714 0.00603382 -5.78415e-05 7.55961e-05 2.04344e-10 -2.59976e-11 1.308e-11 5e-05 1.46608e-10 
148 1 0.00865178 0.0177954 0.00780799 0.000449584 -0.0199747 0.00698319 -4.1765e-11 -3.18641e-10 1.01782e-10 5e-05 1.46608e-10 
149 1 0.126419 0.017955 0.00701481 0.00614696 -0.000169831 0.000110383 -6.28557e-12 -4.82202e-11 8.43015e-12 5e-05 1.46608e-10 
150 1 0.119971 0.0164181 0.00776593 0.00556919 -7.79055e-05 7.34574e-05 3.07195e-10 -8.22516e-11 3.18941e-10 5e-05 1.46608e-10 
151 1 0.120491 0.017529 0.00724309 0.00606852 -0.000222226 0.00027629 2.32368e-11 -5.53087e-13 9.32099e-12 5e-05 1.46608e-10 
153 1 0.120048 0.0163724 0.00781769 0.00561774 -0.000124332 0.000120193 1.5035e-10 -2.70811e-10 -2.91426e-10 5e-05 1.46608e-10 
154 1 0.12018 0.0173385 0.00727751 0.00553611 -4.57714e-05 0.000214366 -1.70218e-12 8.51527e-11 -1.7351e-11 5e-05 1.46608e-10 
155 1 0.114306 0.0178929 0.00702367 0.00607464 -0.000680534 0.000343583 1.78754e-11 -3.90526e-11 3.55118e-12 5e-05 1.46608e-10 
156 1 0.120065 0.0172103 0.00730419 0.00556932 -8.56113e-05 0.000225221 1.36738e-11 6.55253e-11 -1.18579e-11 5e-05 1.46608e-10 
157 1 0.120243 0.0176243 0.00721099 0.00595954 -0.000156485 0.000257379 1.51763e-13 8.81676e-11 -3.77118e-11 5e-05 1.46608e-10 
158 1 0.120293 0.017022 0.00735792 0.00586309 -0.000159086 0.000254755 -2.18287e-10 -1.91377e-10 4.77586e-11 5e-05 1.46608e-10 
159 1 0.126409 0.0183569 0.00692074 0.00623239 -0.000217281 0.00012705 2.5456e-10 -1.28489e-10 7.52708e-11 5e-05 1.46608e-10 
160 1 0.120145 0.0175918 0.00721523 0.00594813 -0.000156039 0.000256054 2.50396e-11 7.32806e-11 -1.63046e-11 5e-05 1.46608e-10 
162 1 0.120102 0.0169559 0.00736681 0.0055806 -8.71292e-05 0.000222181 3.46868e-12 -6.26385e-11 -1.33002e-10 5e-05 1.46608e-10 
163 1 0.120313 0.0171174 0.00733569 0.00589549 -0.000151104 0.000252818 9.9507e-12 -2.29395e-10 5.52901e-11 5e-05 1.46608e-10 
164 1 0.120364 0.0177525 0.00718455 0.00605336 -0.000200503 0.000270267 -4.59198e-11 2.96234e-11 -6.20294e-12 5e-05 1.46608e-10 
165 1 0.120234 0.0167365 0.00742801 0.00557248 -0.000234134 -0.00026143 -1.97261e-10 1.81773e-11 1.29872e-10 5e-05 1.46608e-10 
166 1 0.125723 0.0157831 0.00821892 0.00563965 -3.19186e-05 0.000319207 1.63566e-10 4.53923e-10 1.20653e-09 5e-05 1.46608e-10 
167 1 0.120085 0.0165032 0.007671 0.00564888 -5.11924e-05 0.000115559 1.13364e-10 -1.75425e-11 4.66452e-11 5e-05 1.46608e-10 
168 1 0.1202 0.0174339 0.00725526 0.00592771 -0.000141451 0.000252166 -3.62706e-12 3.90614e-11 -1.84143e-11 5e-05 1.46608e-10 
169 1 0.120352 0.0173086 0.00729105 0.00589323 -0.000133295 0.000249127 -1.45535e-10 -3.88595e-12 -1.69179e-11 5e-05 1.46608e-10 
170 1 0.120275 0.0173714 0.00727312 0.00592553 -0.000135668 0.000251208 -5.01472e-11 -1.79027e-11 6.93949e-12 5e-05 1.46608e-10 
171 1 0.126111 0.0166143 0.00759669 0.00549185 -7.81109e-05 -1.75965e-05 9.80154e-11 2.86052e-11 -1.79002e-11 5e-05 1.46608e-10 
172 1 0.120555 0.0178225 0.00717471 0.00602965 -0.000148232 0.000258975 -1.76064e-11 1.72071e-10 -4.5223e-11 5e-05 1.46608e-10 
173 1 0.12636 0.0173091 0.00716521 0.00566673 -0.000107083 8.22636e-05 -1.39709e-11 5.19163e-11 9.54597e-12 5e-05 1.46608e-10 
174 1 0.120191 0.0177513 0.0072661 0.0059915 -0.000137789 0.000259619 7.6317e-11 1.11938e-11 2.5683e-11 5e-05 1.46608e-10 
175 1 0.117039 0.0173147 0.00716786 0.00552525 -0.00099122 0.000441752 -1.72039e-13 2.97769e-14 -1.0057e-14 5e-05 1.46608e-10 
176 1 0.120046 0.0171148 0.00732649 0.00558325 -9.45473e-05 0.000229266 -4.01547e-11 -9.64952e-11 1.06566e-11 5e-05 1.46608e-10 
177 1 0.120568 0.0179255 0.0071504 0.00600312 -0.000175687 0.000262865 -1.17925e-10 -1.81931e-10 3.40302e-11 5e-05 1.46608e-10 
178 1 0.120533 0.0177206 0.00719848 0.00606822 -0.0001416 0.000256797 -2.73795e-11 1.42377e-10 -2.40783e-11 5e-05 1.46608e-10 
179 1 0.114111 0.0174343 0.00724688 0.00544663 -0.000640077 8.61456e-05 -3.66765e-11 -2.6248e-11 -2.52103e-12 5e-05 1.46608e-10 
180 1 0.120217 0.0170862 0.00734513 0.00562866 -0.000202053 -0.000315932 -9.13724e-11 -1.2675e-10 -2.05542e-10 5e-05 1.46608e-10 
181 1 0.120256 0.0172759 0.0072954 0.0057267 -8.4677e-05 0.000231183 5.74804e-11 -2.83714e-11 -3.80833e-12 5e-05 1.46608e-10 
182 1 0.126283 0.0169748 0.0073708 0.00554381 -0.00012668 1.25222e-05 -1.10409e-10 6.87931e-12 9.25255e-12 5e-05 1.46608e-10 
183 1 0.120373 0.0174038 0.0072689 0.00596891 -0.000146841 0.000254433 -3.26823e-11 5.16515e-11 -8.17815e-12 5e-05 1.46608e-10 
184 1 0.126231 0.0179675 0.00705763 0.00611193 -0.000161745 8.49346e-05 -1.41417e-11 8.6598e-11 2.00272e-10 5e-05 1.46608e-10 
185 1 0.120085 0.0173062 0.00728181 0.00555194 -5.44414e-05 0.000217822 1.49581e-11 -1.46626e-10 4.39037e-11 5e-05 1.46608e-10 
186 1 0.120121 0.0170515 0.00734451 0.00557826 -8.68883e-05 0.000226 2.85465e-11 -3.31434e-11 -4.53909e-11 5e-05 1.46608e-10 
187 1 0.126302 0.017058 0.0073189 0.00558371 -0.000133601 1.42074e-05 -9.45757e-11 -1.10366e-11 -7.61567e-12 5e-05 1.46608e-10 
188 1 0.126281 0.0178854 0.00702968 0.00608463 -0.00017428 8.95639e-05 -4.3651e-10 -1.48764e-10 3.60226e-10 5e-05 1.46608e-10 
189 1 0.125996 0.0165038 0.00766671 0.00559952 -1.00234e-05 -6.09378e-05 1.01831e-10 3.93512e-11 -2.24373e-11 5e-05 1.46608e-10 
190 1 0.120414 0.0183828 0.00703457 0.00607 -0.000296381 0.000294557 -1.09297e-10 -1.04623e-10 1.95274e-11 5e-05 1.46608e-10 
191 1 0.126292 0.0182319 0.00694878 0.00620833 -0.000198535 0.000111227 -5.93878e-12 2.98123e-11 -2.01871e-11 5e-05 1.46608e-10 
192 1 0.12016 0.017243 0.00729981 0.00554465 -4.74884e-05 0.000216257 1.69379e-10 -3.77521e-11 -4.23633e-12 5e-05 1.46608e-10 
193 1 0.126313 0.018327 0.00692676 0.00622336 -0.000206675 0.000116706 1.70943e-10 7.94146e-11 -1.86853e-11 5e-05 1.46608e-10 
194 1 0.120008 0.0165502 0.00762008 0.00561743 -0.000297531 -0.00020842 -7.86603e-11 -8.67952e-11 -1.44188e-10 5e-05 1.46608e-10 
195 1 0.120297 0.0174665 0.007251 0.00598333 -0.000127316 0.000250385 -4.49724e-11 4.23751e-11 -9.72399e-12 5e-05 1.46608e-10 
196 1 0.119584 0.0154831 0.00881085 0.0060431 -6.38452e-05 8.22894e-05 5.22269e-11 1.55461e-10 -1.73487e-10 5e-05 1.46608e-10 
197 1 0.120324 0.0178776 0.00723699 0.00598584 -0.000227154 0.0002607 8.56638e-11 8.64715e-11 5.40636e-12 5e-05 1.46608e-10 
198 1 0.120007 0.0169235 0.00737116 0.00559006 -0.000116842 0.000233771 -4.57938e-11 1.30192e-10 -3.43939e-11 5e-05 1.46608e-10 
199 1 0.120124 0.0174988 0.00724513 0.00591679 -0.000153981 0.000256108 5.47462e-12 5.02299e-11 -4.79566e-11 5e-05 1.46608e-10 
200 1 0.120026 0.0166215 0.00755244 0.00553447 -0.000276565 -0.000227782 -3.5507e-11 -5.26891e-11 1.48445e-10 5e-05 1.46608e-10 
201 1 0.120467 0.0182324 0.00707277 0.00603793 -0.0002189 0.00027491 5.10954e-11 1.15293e-10 -2.87477e-11 5e-05 1.46608e-10 
203 1 0.12649 0.0178861 0.00703164 0.00610094 -0.000185132 0.000108521 1.10443e-10 -6.88259e-11 2.20914e-11 5e-05 1.46608e-10 
204 1 0.12014 0.0167127 0.00746397 0.00560475 -0.000238718 -0.00016834 -3.48911e-11 2.26065e-10 9.86038e-11 5e-05 1.46608e-10 
205 1 0.120207 0.0178476 0.00724436 0.00600208 -0.000142726 0.000260479 3.25625e-11 1.91477e-11 7.67028e-11 5e-05 1.46608e-10 
206 1 0.120221 0.0175291 0.00723313 0.00596283 -0.00014488 0.000253665 -8.60625e-11 -1.39558e-11 -1.0898e-11 5e-05 1.46608e-10 
207 1 0.12003 0.0163067 0.0078907 0.00554758 -0.000109326 0.000128136 -8.8574e-11 9.5927e-11 -6.24503e-11 5e-05 1.46608e-10 
208 1 0.120104 0.0174018 0.00725951 0.00553849 -3.78167e-05 0.000212446 -6.9415e-11 -1.10692e-10 2.8945e-11 5e-05 1.46608e-10 
209 1 0.114131 0.0175159 0.00719281 0.00544839 -0.000643276 8.78709e-05 -2.14215e-11 4.77987e-11 -3.68252e-11 5e-05 1.46608e-10 
210 1 0.12574 0.0158424 0.0081403 0.00574489 0.000131683 0.000460444 1.01853e-09 2.17373e-10 6.91273e-10 5e-05 1.46608e-10 
211 1 0.12631 0.0180518 0.00707181 0.00616569 -0.00017289 0.00011175 -2.04585e-10 1.17184e-10 -1.1431e-10 5e-05 1.46608e-10 
212 1 0.120513 0.0176247 0.00722084 0.00605855 -0.000207413 0.000272459 -1.12972e-11 9.75818e-11 -2.30591e-11 5e-05 1.46608e-10 
213 1 0.126444 0.0176899 0.00707705 0.00605032 -0.000181899 0.000103683 -2.75344e-10 1.47604e-10 -4.05425e-12 5e-05 1.46608e-10 
214 1 0.126363 0.0179388 0.00709572 0.00611993 -0.000182795 0.000107001 -1.82209e-10 5.3745e-12 -4.07032e-11 5e-05 1.46608e-10 
215 1 0.120197 0.0169918 0.00737158 0.00568309 -0.000297853 -0.000600016 1.38588e-10 -1.95233e-10 -2.2169e-10 5e-05 1.46608e-10 
216 1 0.120272 0.0169268 0.00738009 0.00578574 -0.000158065 0.000254339 -6.08285e-11 -1.67061e-10 2.79608e-12 5e-05 1.46608e-10 
217 1 0.12613 0.0166976 0.00754477 0.00551308 -8.31411e-05 -1.46654e-05 -5.03808e-11 2.14116e-11 -1.5096e-11 5e-05 1.46608e-10 
218 1 0.12034 0.0176567 0.00720676 0.00596429 -0.000132746 0.000251714 3.74838e-11 3.63764e-11 -6.54866e-12 5e-05 1.46608e-10 
219 1 0.126344 0.0181861 0.00702075 0.0062003 -0.000211344 0.000111255 -9.84693e-11 -1.12241e-10 7.82885e-11 5e-05 1.46608e-10 
220 1 0.120177 0.0168971 0.00739684 0.00564648 -0.000164008 -8.81924e-05 2.55273e-10 -1.10222e-10 -4.68036e-11 5e-05 1.46608e-10 
221 1 0.114013 0.0170252 0.00751746 0.00534046 -0.000626608 8.31635e-05 1.94878e-10 5.82037e-11 -3.49871e-11 5e-05 1.46608e-10 
222 1 0.125921 0.0165603 0.00763255 0.00554898 -6.23649e-05 -2.76668e-05 2.7443e-11 -2.28596e-11 9.06595e-12 5e-05 1.46608e-10 
223 1 0.120236 0.0171804 0.00731767 0.005547 -3.75792e-05 0.000212442 8.0568e-11 -7.73021e-11 6.05336e-12 5e-05 1.46608e-10 
224 1 0.120027 0.0170193 0.00734902 0.005578 -7.94098e-05 0.000223968 2.61811e-12 1.2508e-10 -3.18839e-11 5e-05 1.46608e-10 
225 1 0.12642 0.0175954 0.0070989 0.00593119 -0.000152593 9.70088e-05 -9.04149e-11 1.59949e-10 -4.06933e-11 5e-05 1.46608e-10 
226 1 0.120252 0.0168314 0.00740233 0.00572399 -0.000158455 0.000252272 -1.24002e-10 -6.38653e-11 -1.31045e-10 5e-05 1.46608e-10 
227 1 0.114072 0.0172707 0.0073551 0.00538346 -0.000632473 8.35018e-05 2.15572e-10 -1.5993e-10 7.42809e-11 5e-05 1.46608e-10 
228 1 0.0507861 0.0189683 0.00558458 -5.33593e-15 -1.91086e-14 -2.87013e-13 -2.11054e-22 3.10193e-25 3.10193e-24 5e-05 1.46608e-10 
229 1 0.119854 0.0160249 0.00820545 0.00607617 3.90905e-05 -3.26272e-05 3.94014e-10 1.12483e-10 -1.31457e-10 5e-05 1.46608e-10 
230 1 0.120315 0.0179797 0.00721715 0.00599235 -0.000195335 0.000267831 2.48854e-11 2.3423e-11 1.61929e-13 5e-05 1.46608e-10 
231 1 0.197479 0.018695 0.00523156 -1.08397e-15 -2.69833e-14 1.45243e-13 -2.14364e-22 -5.89366e-24 -3.10193e-24 5e-05 1.46608e-10 
232 1 0.119875 0.0160901 0.00813259 0.00581866 7.53175e-05 -7.5355e-05 1.60347e-10 -9.76633e-11 1.24632e-10 5e-05 1.46608e-10 
233 1 0.120123 0.0166384 0.00752854 0.00561929 -0.000275189 -0.000182787 -6.53549e-11 -9.44001e-11 -6.49027e-11 5e-05 1.46608e-10 
234 1 0.125684 0.0156843 0.00838815 0.00620881 -0.00042057 9.95631e-05 -5.98813e-11 1.22543e-10 -1.37549e-09 5e-05 1.46608e-10 
235 1 0.120386 0.0182882 0.00705635 0.00603096 -0.000235867 0.0002791 8.99504e-11 1.86266e-10 -4.8323e-11 5e-05 1.46608e-10 
236 1 0.120339 0.0184466 0.00701646 0.00607026 -0.00029006 0.000293593 3.28996e-11 9.41699e-11 -2.37025e-11 5e-05 1.46608e-10 
237 1 0.120325 0.0180076 0.00712167 0.0059847 -0.000187473 0.000266125 -2.06006e-12 6.79781e-11 -6.96289e-12 5e-05 1.46608e-10 
238 1 0.114149 0.017598 0.00713862 0.00546831 -0.000648638 9.14744e-05 -3.18863e-11 4.79272e-11 -3.02563e-11 5e-05 1.46608e-10 
239 1 0.113917 0.0166162 0.00778806 0.0052304 -0.000613947 8.19071e-05 -3.67247e-11 -3.17503e-11 2.62521e-11 5e-05 1.46608e-10 
240 1 0.113995 0.0169433 0.00757163 0.00533281 -0.000625487 8.28064e-05 1.00663e-11 -1.14927e-10 7.16595e-11 5e-05 1.46608e-10 
241 1 0.113936 0.016698 0.00773394 0.00527491 -0.000618924 8.22457e-05 -2.7455e-11 7.3125e-11 -4.97688e-11 5e-05 1.46608e-10 
242 1 0.114283 0.0177942 0.0070127 0.00598851 -0.000872364 0.000319801 1.84798e-11 -1.38608e-11 1.0525e-11 5e-05 1.46608e-10 
243 1 0.113897 0.0165344 0.00784217 0.00534676 -0.0006338 8.75033e-05 -4.2516e-11 5.80182e-11 -3.68322e-11 5e-05 1.46608e-10 
244 1 0.113955 0.0167798 0.00767982 0.00528231 -0.000623009 8.47302e-05 2.6262e-10 2.00094e-11 -3.36874e-11 5e-05 1.46608e-10 
245 1 0.114171 0.0176841 0.00709274 0.00563423 -0.000658264 0.000156127 4.70464e-11 3.12292e-11 -1.29808e-11 5e-05 1.46608e-10 
246 1 0.114033 0.0171071 0.00746334 0.0053477 -0.000627341 8.33982e-05 -1.10051e-10 4.83534e-11 -2.05198e-11 5e-05 1.46608e-10 
247 1 0.120395 0.0174987 0.00724684 0.00604451 -0.000164037 0.000261443 5.15893e-11 6.27344e-11 -8.24874e-12 5e-05 1.46608e-10 
248 1 0.120439 0.0176888 0.00720264 0.00608654 -0.000173899 0.000264693 1.06672e-11 8.44972e-11 -1.86252e-11 5e-05 1.46608e-10 