ITEM: TIMESTEP
4400000
ITEM: NUMBER OF ATOMS
284
ITEM: BOX BOUNDS ff ff ff
-0.02 0.43
-0.02 0.06
-0.02 0.07
ITEM: ATOMS id type x y z vx vy vz fx fy fz radius mass 
1 1 0.0384762 0.0162765 0.00780999 0.00625926 0.000350536 -0.000119405 9.69022e-11 -3.20903e-10 5.66628e-10 5e-05 1.46608e-10 
2 1 0.0388219 0.0169191 0.00740935 0.00585086 0.000203297 -0.000262421 7.12683e-11 -4.78961e-11 6.42465e-12 5e-05 1.46608e-10 
3 1 0.0324544 0.0162173 0.00790737 0.00614117 -0.000387683 0.000111864 8.50392e-11 1.91374e-10 -2.05961e-10 5e-05 1.46608e-10 
4 1 0.0388731 0.0175956 0.00712136 0.00573247 0.000559197 4.44928e-05 1.9892e-10 2.30569e-10 -8.04822e-11 5e-05 1.46608e-10 
5 1 0.0383599 0.0161947 0.00790936 0.00624522 0.0003488 -0.000100626 -3.1158e-10 -1.14768e-10 8.97662e-11 5e-05 1.46608e-10 
6 1 0.0443682 0.0161911 0.00783009 0.00614279 -0.000599356 0.000459353 6.97777e-13 -2.0503e-14 7.12783e-14 5e-05 1.46608e-10 
7 1 0.0385996 0.0167621 0.00749403 0.00578645 0.000251079 -0.000283695 -6.89969e-11 -7.51986e-12 1.07965e-11 5e-05 1.46608e-10 
8 1 0.0383175 0.0159538 0.00821828 0.00610808 0.00035249 -0.000135094 -6.46272e-10 -8.27294e-11 -1.70393e-11 5e-05 1.46608e-10 
9 1 0.0446181 0.01731 0.00747597 0.00568966 -0.000475935 0.000534222 -9.91427e-13 4.4214e-13 -2.03716e-13 5e-05 1.46608e-10 
10 1 0.038545 0.0169096 0.00742168 0.00583713 0.000267868 -0.000293855 1.93485e-10 1.22544e-10 -6.7535e-11 5e-05 1.46608e-10 
11 1 0.0386601 0.0170242 0.00736118 0.0058707 0.000231657 -0.000277699 7.71249e-11 1.20289e-10 -9.45273e-11 5e-05 1.46608e-10 
12 1 0.0387392 0.0173779 0.00719051 0.00580135 0.000435722 8.97051e-05 1.95788e-10 9.7388e-11 -1.66636e-11 5e-05 1.46608e-10 
13 1 0.0384444 0.0164728 0.00764315 0.00598019 0.000250149 -0.000295851 7.6378e-10 -2.80937e-10 -7.40308e-11 5e-05 1.46608e-10 
14 1 0.0321674 0.0156162 0.00858938 0.00579893 -0.000544342 0.000303981 -3.99543e-10 1.62389e-10 -1.50066e-10 5e-05 1.46608e-10 
15 1 0.0386446 0.0173487 0.00720444 0.00579677 0.000339048 -0.000137925 1.84455e-10 -2.76554e-11 8.70345e-11 5e-05 1.46608e-10 
16 1 0.0321462 0.0155513 0.00866246 0.00577376 -0.000562051 0.000325214 3.9515e-10 1.09051e-10 -1.45505e-10 5e-05 1.46608e-10 
17 1 0.0385047 0.0167349 0.00751026 0.00578048 0.000285067 -0.000300723 -1.37162e-10 -7.3557e-11 5.10018e-11 5e-05 1.46608e-10 
18 1 0.0445145 0.0168412 0.00761582 0.00588488 -0.000511798 0.000558671 -4.59515e-13 3.37075e-13 -1.34833e-13 5e-05 1.46608e-10 
19 1 0.0383181 0.0160739 0.00806316 0.00622168 0.000351843 -0.000125303 1.01986e-10 -1.18888e-10 1.15196e-10 5e-05 1.46608e-10 
20 1 0.0388143 0.0173165 0.00721487 0.0058395 0.000399671 5.81105e-05 1.33383e-10 1.63453e-10 3.4132e-11 5e-05 1.46608e-10 
21 1 0.038339 0.0161343 0.00798626 0.00625254 0.000344152 -0.000113373 -2.36879e-10 -2.01205e-10 2.35276e-10 5e-05 1.46608e-10 
22 1 0.0387001 0.0171994 0.00727241 0.005896 0.000303639 -0.000348443 5.45566e-12 3.54428e-11 -8.76379e-11 5e-05 1.46608e-10 
23 1 0.0325225 0.0168124 0.00746862 0.0057065 -0.000173296 0.000334156 -4.47465e-11 -1.50426e-10 5.9495e-11 5e-05 1.46608e-10 
24 1 0.0445974 0.0172162 0.00750394 0.00572871 -0.000483107 0.000539111 -8.83373e-13 4.2009e-13 -1.92239e-13 5e-05 1.46608e-10 
25 1 0.0386198 0.0168495 0.00744975 0.00581866 0.000242921 -0.000281372 -6.72032e-12 1.08931e-11 -2.73032e-11 5e-05 1.46608e-10 
26 1 0.0444519 0.0165621 0.00770621 0.0060022 -0.000572714 0.000444117 -8.30712e-14 2.69289e-13 -1.85688e-13 5e-05 1.46608e-10 
27 1 0.0324415 0.0164605 0.00763822 0.00560437 -0.000305343 4.39771e-05 9.16858e-12 1.28112e-10 -1.13819e-10 5e-05 1.46608e-10 
28 1 0.0384645 0.0165601 0.00759884 0.00565275 0.000318404 -0.00031656 -1.55031e-10 -5.06087e-11 -2.22658e-11 5e-05 1.46608e-10 
29 1 0.0384977 0.0163378 0.00773395 0.00637538 0.000206631 -0.000191644 -1.7179e-10 5.95607e-11 6.60152e-10 5e-05 1.46608e-10 
30 1 0.0389401 0.0174562 0.00717195 0.00578365 0.000435563 8.97518e-05 -3.56159e-11 1.73625e-10 -8.74766e-11 5e-05 1.46608e-10 
31 1 0.038625 0.0172594 0.00724491 0.00583387 0.00027364 -0.000266491 1.00408e-10 7.53854e-11 1.07574e-11 5e-05 1.46608e-10 
32 1 0.0386803 0.0171116 0.00731686 0.00591246 0.00023836 -0.000282297 2.7154e-12 1.32702e-10 -7.10474e-11 5e-05 1.46608e-10 
33 1 0.0443891 0.0162839 0.0077991 0.00610768 -0.000592776 0.000455343 2.74975e-14 3.51773e-13 -5.87315e-13 5e-05 1.46608e-10 
34 1 0.0385248 0.0168222 0.00746597 0.00581116 0.000276934 -0.000297953 -1.72178e-11 2.71028e-11 -7.35669e-12 5e-05 1.46608e-10 
36 1 0.0446388 0.0174037 0.007448 0.00565062 -0.000468763 0.000529332 -1.09781e-12 4.63005e-13 -2.2148e-13 5e-05 1.46608e-10 
37 1 0.0385652 0.016997 0.0073774 0.0058581 0.000259221 -0.000290234 1.56663e-10 1.43551e-10 -6.88948e-11 5e-05 1.46608e-10 
38 1 0.0387197 0.0172875 0.00722936 0.00582953 0.000347992 -0.000131786 8.9359e-11 1.23996e-10 7.96127e-11 5e-05 1.46608e-10 
39 1 0.0445766 0.0171225 0.00753191 0.00576775 -0.000490279 0.000544001 -7.77443e-13 3.97607e-13 -1.79348e-13 5e-05 1.46608e-10 
41 1 0.0383812 0.0162551 0.00783253 0.00628865 0.00033613 -8.73174e-05 8.89791e-11 -4.36135e-11 1.26375e-10 5e-05 1.46608e-10 
42 1 0.0386054 0.0171717 0.00728883 0.00591287 0.000251122 -0.000283297 -1.4274e-11 1.04734e-10 -9.72421e-11 5e-05 1.46608e-10 
44 1 0.0387948 0.0172271 0.00725591 0.00589215 0.000343755 -0.000332426 -3.42058e-11 -1.25746e-10 -1.19618e-11 5e-05 1.46608e-10 
45 1 0.044431 0.0164694 0.00773718 0.00603736 -0.000579399 0.000447857 8.76314e-15 2.43759e-13 -2.27036e-14 5e-05 1.46608e-10 
46 1 0.0444937 0.0167476 0.00764429 0.00593187 -0.000559348 0.000436627 -2.98473e-13 3.17031e-13 -1.27297e-13 5e-05 1.46608e-10 
47 1 0.0384232 0.0163858 0.00768772 0.0063806 0.000215955 -0.000164351 2.38895e-10 2.4369e-11 -1.16802e-10 5e-05 1.46608e-10 
48 1 0.0387751 0.0171394 0.00730035 0.00583435 0.000241148 -0.000283993 -3.92947e-11 5.01725e-11 -8.96428e-11 5e-05 1.46608e-10 
49 1 0.0444728 0.0166549 0.00767525 0.00596703 -0.000566031 0.000440375 -1.68616e-13 3.09571e-13 -7.11269e-14 5e-05 1.46608e-10 
50 1 0.0387979 0.0176569 0.0070972 0.00565429 0.000465435 7.36285e-05 -2.66158e-11 -1.3713e-10 5.14928e-11 5e-05 1.46608e-10 
51 1 0.0387785 0.0175639 0.00712832 0.0057875 0.000430577 9.10245e-05 6.46126e-11 -3.04283e-11 -2.78273e-11 5e-05 1.46608e-10 
52 1 0.0389335 0.0183124 0.00689379 0.00575162 0.000307424 -0.00016082 1.22223e-10 3.12252e-11 2.53836e-10 5e-05 1.46608e-10 
53 1 0.0445352 0.016935 0.00758785 0.00584583 -0.000504625 0.000553782 -5.60627e-13 3.50999e-13 -1.51007e-13 5e-05 1.46608e-10 
54 1 0.0384554 0.0162161 0.00788691 0.00635895 0.000377537 -0.000149557 1.58032e-10 -2.76298e-10 3.96293e-10 5e-05 1.46608e-10 
55 1 0.03221 0.0157459 0.00844322 0.00588983 -0.000528392 0.000281313 2.85495e-10 -7.25769e-12 5.88064e-12 5e-05 1.46608e-10 
56 1 0.0385853 0.0170843 0.00733311 0.00588943 0.000252644 -0.000288812 4.62511e-11 1.49766e-10 -7.37336e-11 5e-05 1.46608e-10 
57 1 0.0444101 0.0163766 0.00776814 0.00607253 -0.000586085 0.000451612 1.02933e-13 2.81733e-13 2.20516e-14 5e-05 1.46608e-10 
59 1 0.0387147 0.0168766 0.00743353 0.00582923 0.000218334 -0.000268631 7.68472e-11 -5.84959e-11 -4.41201e-11 5e-05 1.46608e-10 
60 1 0.0387349 0.016964 0.00738924 0.00585686 0.000215552 -0.000267142 9.48751e-11 7.20793e-11 4.67944e-12 5e-05 1.46608e-10 
61 1 0.0384017 0.0163156 0.00775556 0.00635511 0.000319236 -7.2417e-05 -3.45272e-11 3.48507e-12 -4.77371e-11 5e-05 1.46608e-10 
62 1 0.0388339 0.0174094 0.00718361 0.00581368 0.000426235 9.55916e-05 2.0764e-10 1.53561e-10 2.87605e-11 5e-05 1.46608e-10 
63 1 0.0387553 0.0170517 0.00734479 0.00592221 0.000241752 -0.000281614 -7.78956e-11 -3.44346e-11 4.47508e-11 5e-05 1.46608e-10 
64 1 0.0445559 0.0170287 0.00755988 0.00580679 -0.000497452 0.000548891 -6.69008e-13 3.74722e-13 -1.56837e-13 5e-05 1.46608e-10 
65 1 0.0324817 0.0166326 0.00754605 0.00568466 -0.0001423 0.000321796 6.62896e-11 1.3946e-10 -1.23552e-10 5e-05 1.46608e-10 
66 1 0.0324972 0.016347 0.00776125 0.00625041 -0.000408408 0.000127704 9.18945e-11 2.59972e-10 -3.00491e-10 5e-05 1.46608e-10 
67 1 0.0388815 0.0171817 0.00727637 0.00585047 0.000299403 -8.28488e-05 -5.54391e-11 1.0623e-12 -1.56497e-10 5e-05 1.46608e-10 
68 1 0.0387588 0.0174709 0.00715941 0.00579924 0.000424885 9.13718e-05 1.21815e-10 1.00595e-11 -1.97571e-11 5e-05 1.46608e-10 
69 1 0.0386399 0.0169368 0.00740546 0.00584549 0.00023769 -0.00027948 1.17963e-10 9.22385e-11 -2.19125e-11 5e-05 1.46608e-10 
70 1 0.0386834 0.0175322 0.00713527 0.00576333 0.000420531 9.35789e-05 2.14405e-11 5.03334e-11 1.21875e-11 5e-05 1.46608e-10 
71 1 0.0321887 0.015681 0.0085163 0.00586411 -0.000532698 0.000287862 -2.60316e-10 1.56339e-10 -1.55204e-10 5e-05 1.46608e-10 
72 1 0.0388536 0.0175025 0.0071525 0.00578283 0.000437304 8.9633e-05 6.0505e-11 1.17166e-10 -1.06428e-11 5e-05 1.46608e-10 
73 1 0.0384846 0.0166475 0.00755455 0.00572357 0.000300168 -0.000306637 -2.15709e-10 -5.65372e-11 1.7603e-11 5e-05 1.46608e-10 
74 1 0.0390347 0.0174879 0.00716497 0.00585671 0.000759634 -1.85854e-05 2.47333e-10 -1.04845e-10 4.60991e-11 5e-05 1.46608e-10 
76 1 0.0331007 0.017208 0.00732049 0.00569133 0.000117302 0.000207309 -1.40388e-10 -4.46419e-11 9.02526e-12 5e-05 1.46608e-10 
77 1 0.038915 0.0186701 0.0069279 0.00566249 0.000290221 -0.00022382 -2.27637e-10 -2.36129e-10 2.14337e-11 5e-05 1.46608e-10 
78 1 0.0322951 0.0160053 0.00815091 0.00597949 -0.000423928 0.000159251 -8.80965e-11 -2.26148e-10 2.76901e-10 5e-05 1.46608e-10 
79 1 0.0325429 0.0169023 0.00742991 0.00572267 -0.000160838 0.000331129 4.53005e-12 -2.29431e-10 1.1053e-10 5e-05 1.46608e-10 
80 1 0.0387803 0.0179974 0.00697966 0.0057016 0.000446472 8.28337e-05 -7.17177e-11 -5.75278e-12 -1.6588e-11 5e-05 1.46608e-10 
81 1 0.0324612 0.0165426 0.00758477 0.0056676 -0.000138445 0.000317425 5.89845e-12 2.00018e-10 -1.30273e-11 5e-05 1.46608e-10 
82 1 0.0325021 0.0167225 0.00750734 0.00566973 -0.000182011 0.000338922 1.02133e-10 -1.85852e-10 1.14418e-10 5e-05 1.46608e-10 
83 1 0.0324017 0.0163295 0.00778556 0.00613865 -0.000392584 0.000116271 -2.90841e-10 1.44828e-10 -1.50345e-10 5e-05 1.46608e-10 
84 1 0.0446595 0.0174975 0.00742003 0.00561157 -0.000461592 0.000524442 -1.20861e-12 4.84087e-13 -2.32043e-13 5e-05 1.46608e-10 
85 1 0.0382589 0.0159027 0.00828114 0.00611434 0.000333872 -0.000112755 2.79133e-10 9.00255e-11 6.62413e-11 5e-05 1.46608e-10 
86 1 0.0388364 0.0178431 0.00703491 0.00565839 0.000417745 9.02349e-05 -2.2932e-10 9.20454e-11 -3.83694e-11 5e-05 1.46608e-10 
87 1 0.0387996 0.0168285 0.00745531 0.00609365 0.000589707 -0.000461969 7.8881e-11 -1.66841e-10 1.65469e-10 5e-05 1.46608e-10 
88 1 0.0388575 0.0183768 0.00690258 0.0057388 0.00026776 -0.000205246 1.01973e-10 1.73131e-10 2.09515e-10 5e-05 1.46608e-10 
89 1 0.0388749 0.0180292 0.00697264 0.00571054 0.000425743 9.12513e-05 -5.72236e-11 -8.13489e-12 -6.11771e-13 5e-05 1.46608e-10 
90 1 0.0389596 0.0175493 0.0071408 0.00579538 0.000680708 5.65318e-06 2.26119e-10 -4.22304e-11 2.21868e-11 5e-05 1.46608e-10 
91 1 0.0387032 0.0176252 0.00710419 0.00578086 0.0004174 9.55226e-05 7.06325e-11 8.12137e-11 -1.71092e-11 5e-05 1.46608e-10 
92 1 0.0389789 0.0176425 0.00710964 0.00565395 0.000430247 8.60924e-05 -1.03145e-10 1.7437e-10 -7.08291e-11 5e-05 1.46608e-10 
93 1 0.0389894 0.018154 0.00693456 0.00572723 0.00039224 0.000101675 1.55262e-10 -4.08167e-11 5.09371e-11 5e-05 1.46608e-10 
94 1 0.0388556 0.0179361 0.00700377 0.00568593 0.000422586 8.98895e-05 -1.47177e-10 4.87137e-11 -1.37462e-11 5e-05 1.46608e-10 
95 1 0.0387611 0.0179043 0.00701079 0.00568079 0.000442698 8.25844e-05 -5.68231e-11 -1.8174e-11 3.57143e-12 5e-05 1.46608e-10 
96 1 0.0389309 0.0178749 0.00702789 0.00565342 0.000414108 9.19381e-05 -1.60223e-10 -7.48991e-11 8.44692e-12 5e-05 1.46608e-10 
97 1 0.032659 0.0170231 0.00738195 0.00581415 -0.000119398 0.000298523 -3.4692e-12 -2.28265e-10 9.14238e-11 5e-05 1.46608e-10 
98 1 0.0388958 0.0185723 0.00691946 0.0056905 0.000279612 -0.000226665 -4.15069e-11 -1.85034e-10 2.11164e-11 5e-05 1.46608e-10 
99 1 0.0325633 0.0169922 0.0073912 0.00573279 -0.000149475 0.000325711 -1.34731e-10 -1.30844e-10 1.01814e-10 5e-05 1.46608e-10 
100 1 0.0390553 0.0175824 0.0071334 0.00569926 0.000478012 7.13983e-05 -2.37183e-10 3.91277e-11 -1.8993e-11 5e-05 1.46608e-10 
101 1 0.0325182 0.0164123 0.00768847 0.00617263 -0.000378262 0.000136377 6.04756e-12 3.5639e-10 -1.97264e-10 5e-05 1.46608e-10 
102 1 0.0694385 0.0202053 0.00537268 3.98358e-15 4.37431e-15 -7.68307e-14 -1.22287e-21 1.02402e-21 -1.44757e-24 5e-05 1.46608e-10 
104 1 0.0326179 0.0168432 0.0074594 0.00570311 -0.000170926 0.000337428 8.78191e-11 4.49932e-11 -4.81961e-11 5e-05 1.46608e-10 
105 1 0.032359 0.0161999 0.00793168 0.00612232 -0.000385513 0.00011138 7.19621e-11 -4.88295e-11 7.68073e-11 5e-05 1.46608e-10 
106 1 0.0327874 0.0172471 0.00728901 0.00573298 -2.30934e-05 0.000274738 1.62831e-10 -1.68612e-10 4.45539e-11 5e-05 1.46608e-10 
107 1 0.0323164 0.0160702 0.00807784 0.00603267 -0.000395926 0.000126878 -5.97959e-10 -6.79665e-11 8.20996e-11 5e-05 1.46608e-10 
108 1 0.0385795 0.0166747 0.00753832 0.00573435 0.000262911 -0.000288432 -1.02013e-10 -5.42487e-12 -6.91704e-12 5e-05 1.46608e-10 
109 1 0.0387226 0.0177182 0.00707307 0.00564063 0.000443211 8.03126e-05 4.32065e-11 1.04053e-12 1.81457e-11 5e-05 1.46608e-10 
110 1 0.0388941 0.0181223 0.0069415 0.00573122 0.000420425 8.63055e-05 5.87934e-11 -9.65192e-12 -1.20735e-11 5e-05 1.46608e-10 
111 1 0.0389911 0.0186058 0.00691841 0.00568432 0.00030682 -0.000223482 -2.42664e-10 3.64334e-11 1.6556e-11 5e-05 1.46608e-10 
112 1 0.0324228 0.0163944 0.00771246 0.0061868 -0.000409118 0.000134687 3.12191e-11 1.45468e-10 -1.39201e-10 5e-05 1.46608e-10 
113 1 0.0327337 0.0169636 0.00741158 0.005834 -0.000105248 0.00031406 1.28442e-10 -7.88718e-11 4.78977e-11 5e-05 1.46608e-10 
115 1 0.0387419 0.0178112 0.00704193 0.00565179 0.000440982 8.19051e-05 -1.27907e-10 -4.20354e-11 -6.85005e-12 5e-05 1.46608e-10 
116 1 0.0386946 0.0167893 0.00747782 0.00579581 0.000226638 -0.00027262 3.17128e-12 -1.17554e-11 2.3116e-11 5e-05 1.46608e-10 
117 1 0.0386543 0.0166146 0.00756639 0.00571361 0.000244674 -0.000278673 2.04279e-11 -7.72828e-11 3.53799e-11 5e-05 1.46608e-10 
118 1 0.0322526 0.0158756 0.00829708 0.00595634 -0.000494093 0.000239296 -7.82799e-11 -2.932e-10 4.06974e-10 5e-05 1.46608e-10 
119 1 0.0389204 0.0173632 0.00720305 0.00581935 0.000427529 9.43883e-05 -4.65637e-12 1.31392e-10 1.12133e-11 5e-05 1.46608e-10 
120 1 0.0382984 0.0160134 0.00814028 0.00615579 0.000364084 -0.000142149 3.09475e-10 -4.84923e-11 5.52991e-11 5e-05 1.46608e-10 
121 1 0.0384133 0.0160953 0.00804066 0.00629758 0.000377309 -0.000149232 -7.76971e-11 -9.58762e-11 7.05479e-11 5e-05 1.46608e-10 
122 1 0.0389502 0.017968 0.00699676 0.00566147 0.00041586 9.0718e-05 5.82681e-11 -1.14707e-10 2.97634e-11 5e-05 1.46608e-10 
123 1 0.0323803 0.0162647 0.00785862 0.00611305 -0.000381949 0.000108332 -3.54921e-10 1.00188e-10 -8.75698e-11 5e-05 1.46608e-10 
124 1 0.0387996 0.0180904 0.00694852 0.00572532 0.000449689 8.29231e-05 -3.2872e-11 7.73891e-11 -3.41946e-11 5e-05 1.46608e-10 
125 1 0.0384342 0.0161557 0.00796376 0.00632622 0.000412499 -0.000194295 1.13246e-10 -1.4247e-11 2.64945e-11 5e-05 1.46608e-10 
126 1 0.0386639 0.0174413 0.00717211 0.00572207 0.000405184 2.02452e-05 2.48828e-11 9.00135e-12 9.8799e-11 5e-05 1.46608e-10 
127 1 0.0324758 0.0162822 0.00783432 0.00622865 -0.000407584 0.000127652 1.75935e-10 2.1573e-10 -2.85713e-10 5e-05 1.46608e-10 
128 1 0.0388924 0.0176888 0.00709018 0.00565625 0.000438725 8.3009e-05 -7.75839e-11 1.22032e-10 -4.55441e-11 5e-05 1.46608e-10 
129 1 0.038914 0.018217 0.00691655 0.00574968 0.000355196 -7.6114e-05 9.95025e-11 2.50189e-12 1.1135e-10 5e-05 1.46608e-10 
131 1 0.0326383 0.0169331 0.00742069 0.00573034 -0.000165016 0.000330244 -9.9844e-11 -5.2328e-11 5.18292e-11 5e-05 1.46608e-10 
132 1 0.0389117 0.0177818 0.00705904 0.00566621 0.000411596 9.30441e-05 -3.52333e-10 1.59728e-10 -7.58294e-11 5e-05 1.46608e-10 
133 1 0.0385192 0.0164126 0.00767119 0.00598665 0.000230857 -0.000273766 1.32486e-10 -3.5667e-10 1.23142e-10 5e-05 1.46608e-10 
134 1 0.0388619 0.0170941 0.00732062 0.00581724 0.000197138 -0.000262248 -1.79754e-10 4.72159e-11 -6.97749e-11 5e-05 1.46608e-10 
135 1 0.0386141 0.0164398 0.007655 0.00584104 0.000506272 -0.0004142 1.62814e-10 4.78954e-11 -2.8163e-11 5e-05 1.46608e-10 
136 1 0.0322738 0.0159405 0.00822399 0.00597864 -0.000461236 0.000202902 2.2169e-12 -3.0344e-10 3.87543e-10 5e-05 1.46608e-10 
137 1 0.0389343 0.0187678 0.00693634 0.00562363 0.000298175 -0.000221435 2.13913e-11 -1.36116e-10 2.81743e-13 5e-05 1.46608e-10 
138 1 0.0390086 0.018247 0.00690341 0.00575119 0.000375395 9.9363e-05 1.17305e-10 -6.7135e-11 3.35877e-11 5e-05 1.46608e-10 
140 1 0.0388172 0.01775 0.00706605 0.00564885 0.000433973 8.46763e-05 -1.04065e-10 -2.66505e-11 -1.39268e-11 5e-05 1.46608e-10 
141 1 0.0324331 0.0161525 0.00798044 0.00608905 -0.00038352 0.000110893 -2.0886e-10 8.09226e-11 -1.43218e-10 5e-05 1.46608e-10 
142 1 0.0325556 0.0165813 0.00758972 0.00575832 -0.00024016 0.000259236 5.29463e-10 1.96631e-10 -1.63286e-10 5e-05 1.46608e-10 
143 1 0.0323377 0.016135 0.00800476 0.00608988 -0.000388947 0.000116648 -7.8822e-11 -1.15677e-10 1.49429e-10 5e-05 1.46608e-10 
146 1 0.032633 0.0165138 0.00760529 0.0060298 -0.000127565 0.000322443 1.10894e-10 2.51635e-10 -1.28072e-10 5e-05 1.46608e-10 
147 1 0.0322313 0.0158107 0.00837015 0.00590958 -0.000517834 0.000268507 4.53693e-10 -1.86557e-10 2.34007e-10 5e-05 1.46608e-10 
148 1 0.010257 0.0171611 0.00809164 -3.13861e-06 -0.0195735 0.0108514 -1.2453e-13 7.1017e-11 -1.85004e-11 5e-05 1.46608e-10 
149 1 0.0388382 0.0182788 0.0068941 0.00578794 0.00037627 -0.000224688 -3.63396e-11 1.29658e-10 5.92509e-11 5e-05 1.46608e-10 
150 1 0.0325391 0.0164922 0.00763211 0.00605811 -0.000325288 0.000197392 1.25543e-10 2.8641e-10 -1.3159e-10 5e-05 1.46608e-10 
151 1 0.0329304 0.0169904 0.0074087 0.00585478 8.14934e-05 0.000229213 -7.70935e-11 8.18562e-11 1.7148e-11 5e-05 1.46608e-10 
153 1 0.0326142 0.0164325 0.00766036 0.0060942 -0.000352694 3.04531e-05 1.91193e-10 -2.96404e-11 -5.34457e-10 5e-05 1.46608e-10 
154 1 0.0327582 0.0174741 0.0071876 0.00563701 -5.42191e-06 0.000259177 -2.99124e-10 -1.83632e-10 1.10118e-10 5e-05 1.46608e-10 
155 1 0.0267304 0.0173459 0.00722092 0.00557909 -0.000333337 0.000147691 -3.24799e-11 -5.21333e-12 -3.50173e-13 5e-05 1.46608e-10 
156 1 0.0326436 0.0173521 0.00723618 0.00565632 -5.22301e-05 0.000280344 3.11526e-10 -1.84706e-10 6.19068e-11 5e-05 1.46608e-10 
157 1 0.0328153 0.0177452 0.00707259 0.00559857 -2.97736e-05 0.000267759 -2.55081e-10 2.59403e-10 -5.10544e-11 5e-05 1.46608e-10 
158 1 0.0328511 0.017087 0.00736251 0.00584064 3.77354e-05 0.000249528 -1.09945e-09 4.9904e-10 -2.2417e-10 5e-05 1.46608e-10 
159 1 0.0390062 0.0178137 0.00705201 0.00566897 0.00043441 8.51505e-05 -2.80826e-10 -2.25765e-10 7.75713e-11 5e-05 1.46608e-10 
160 1 0.0327206 0.0177125 0.00708077 0.00554984 1.60337e-05 0.000245691 6.70192e-12 3.30927e-10 -4.73454e-11 5e-05 1.46608e-10 
162 1 0.0326793 0.017113 0.00734321 0.00579573 -0.000100287 0.000309589 -5.01856e-11 -1.92998e-10 7.76076e-11 5e-05 1.46608e-10 
163 1 0.0329506 0.0170803 0.00736996 0.00571399 9.62434e-05 0.000215778 1.07929e-09 -5.58119e-11 6.42996e-11 5e-05 1.46608e-10 
164 1 0.0330338 0.0178263 0.00704484 0.00558355 -2.57896e-05 0.000267349 5.89367e-11 -4.90063e-10 1.94914e-10 5e-05 1.46608e-10 
165 1 0.0327881 0.0168141 0.00747995 0.00587957 -0.000110309 0.000316546 -2.91013e-10 6.00518e-12 2.9091e-11 5e-05 1.46608e-10 
166 1 0.0382171 0.0157819 0.00843495 0.00606483 0.000353524 -0.000123305 -3.48916e-10 2.51349e-10 -3.60239e-10 5e-05 1.46608e-10 
167 1 0.0326524 0.0166039 0.00756647 0.00594297 -0.000119241 0.000320248 1.15746e-10 1.45755e-10 -9.27304e-11 5e-05 1.46608e-10 
168 1 0.0327776 0.0175642 0.00714876 0.00563145 -5.3987e-06 0.000258224 -6.8426e-11 -1.61372e-10 8.25027e-11 5e-05 1.46608e-10 
169 1 0.032924 0.0173786 0.00723723 0.00564343 5.71476e-05 0.000233517 -2.24904e-10 1.12069e-10 -7.93541e-11 5e-05 1.46608e-10 
170 1 0.0328528 0.0175053 0.00717817 0.00563916 1.6859e-05 0.000248595 -3.08541e-12 -1.27031e-11 6.58943e-12 5e-05 1.46608e-10 
171 1 0.0386342 0.0165272 0.00761069 0.0056509 0.000258416 -0.000284278 -1.12708e-10 -1.16038e-10 4.91344e-11 5e-05 1.46608e-10 
172 1 0.0330155 0.0173433 0.00725696 0.00565778 9.49789e-05 0.000216185 -2.06513e-10 1.29629e-10 -3.47763e-11 5e-05 1.46608e-10 
173 1 0.0388423 0.0170066 0.00736496 0.00592336 0.000237992 -0.000282587 -6.82534e-11 -1.20413e-10 4.86059e-11 5e-05 1.46608e-10 
174 1 0.0327395 0.0178027 0.00704188 0.00559314 2.50906e-05 0.000245249 -8.79856e-11 1.09987e-10 -2.46431e-10 5e-05 1.46608e-10 
175 1 0.0294714 0.0168286 0.0073755 0.0056133 -0.000385547 0.000160217 1.37362e-12 4.40762e-14 -4.09167e-14 5e-05 1.46608e-10 
176 1 0.0326238 0.0172622 0.00727521 0.00571218 -9.31462e-05 0.000294628 9.47413e-11 -1.62298e-10 9.29373e-11 5e-05 1.46608e-10 
177 1 0.0330751 0.0176137 0.00714048 0.0057916 0.000126905 0.000207333 -1.35802e-10 -6.40934e-11 4.78763e-11 5e-05 1.46608e-10 
178 1 0.0330139 0.0172518 0.00729723 0.00567951 9.9404e-05 0.000213485 -1.27501e-10 8.02539e-11 -4.35972e-11 5e-05 1.46608e-10 
179 1 0.0266555 0.0174103 0.00720503 0.00558493 -0.00032404 0.000145527 -1.7852e-11 -1.29766e-11 2.96772e-12 5e-05 1.46608e-10 
180 1 0.0328661 0.0171807 0.00732186 0.00572411 2.65445e-05 0.000250318 -8.51844e-12 1.46799e-11 1.22519e-12 5e-05 1.46608e-10 
181 1 0.0328329 0.0174146 0.00721724 0.00563812 1.35514e-05 0.000251757 -3.74269e-10 -1.33016e-10 -2.18015e-11 5e-05 1.46608e-10 
182 1 0.0387494 0.0166419 0.00755008 0.0057625 0.000248951 -0.000282578 1.39146e-11 -8.97375e-12 9.73577e-12 5e-05 1.46608e-10 
183 1 0.0329437 0.0174687 0.00719843 0.00568581 4.61321e-05 0.000238841 -2.41846e-10 7.74678e-11 -2.88033e-11 5e-05 1.46608e-10 
184 1 0.0389719 0.018508 0.00690997 0.00570494 0.000297818 -0.000226186 -1.1931e-10 1.69935e-11 1.63747e-11 5e-05 1.46608e-10 
185 1 0.0326635 0.0174421 0.00719741 0.00564567 -3.18058e-05 0.000270041 2.75841e-10 -7.52039e-11 4.03334e-11 5e-05 1.46608e-10 
186 1 0.0326989 0.0172037 0.00730592 0.00576073 -6.90678e-05 0.000304906 1.11603e-10 -2.04596e-10 -1.50205e-11 5e-05 1.46608e-10 
187 1 0.0387697 0.0167295 0.0075057 0.00581844 0.000256676 -0.000287964 -9.8499e-11 -1.01031e-10 4.98217e-11 5e-05 1.46608e-10 
188 1 0.0389696 0.018061 0.00696563 0.0056912 0.000408332 9.44597e-05 5.23719e-11 -4.82012e-11 3.46936e-11 5e-05 1.46608e-10 
189 1 0.0385393 0.0165 0.00762691 0.00563598 0.000300335 -0.000306067 -2.09227e-10 -2.98392e-10 1.47556e-10 5e-05 1.46608e-10 
190 1 0.0331103 0.017316 0.0072733 0.00577266 0.000403938 8.39568e-05 -2.64733e-10 1.41783e-10 -8.46681e-11 5e-05 1.46608e-10 
191 1 0.0389556 0.0188652 0.00694465 0.00608253 0.00018609 -0.00025147 2.72344e-11 -2.28259e-11 -1.80371e-12 5e-05 1.46608e-10 
192 1 0.0327384 0.0173828 0.00722696 0.00563256 -2.56116e-05 0.000267351 -5.50512e-12 -1.37034e-10 6.05349e-11 5e-05 1.46608e-10 
193 1 0.0389196 0.0169491 0.00739166 0.00590451 0.000218936 -0.000270362 8.91677e-11 -8.01509e-11 2.74389e-11 5e-05 1.46608e-10 
194 1 0.0325771 0.0166633 0.00753683 0.00565951 -0.000169844 0.000331412 5.22879e-10 6.33271e-11 -1.31108e-10 5e-05 1.46608e-10 
195 1 0.032872 0.0175955 0.00713923 0.00564617 -2.93542e-05 0.000268923 -2.08493e-10 -4.22999e-11 -1.05918e-11 5e-05 1.46608e-10 
196 1 0.0321249 0.0154865 0.00873554 0.00575743 -0.000566735 0.000331198 1.29383e-10 2.59807e-10 -3.02055e-10 5e-05 1.46608e-10 
197 1 0.0327585 0.0178928 0.007003 0.00565126 1.59508e-05 0.000241501 -3.96059e-11 -4.25945e-11 -5.45633e-11 5e-05 1.46608e-10 
198 1 0.0325837 0.0170821 0.00735248 0.00575325 -0.000131141 0.000317808 -6.78394e-11 -7.58467e-11 7.64594e-11 5e-05 1.46608e-10 
199 1 0.0327016 0.0176224 0.00711966 0.00561111 -1.17082e-05 0.000258009 1.10732e-10 9.82025e-11 -8.95209e-11 5e-05 1.46608e-10 
200 1 0.0325975 0.0167537 0.00749906 0.00568596 -0.000171383 0.000335231 6.41063e-11 9.37975e-11 4.58164e-12 5e-05 1.46608e-10 
201 1 0.0330605 0.0182662 0.00694439 0.00554899 -9.10148e-05 0.000479042 2.49771e-10 -4.5498e-10 6.29656e-11 5e-05 1.46608e-10 
203 1 0.0388925 0.0167944 0.00746986 0.00646169 0.00140107 -0.000878493 1.54377e-10 -1.03241e-10 1.16955e-11 5e-05 1.46608e-10 
204 1 0.0327134 0.0168736 0.0074503 0.00585107 -0.000113969 0.000316267 -1.00487e-10 -5.9124e-11 -6.0555e-11 5e-05 1.46608e-10 
205 1 0.0327775 0.017983 0.00696411 0.00565407 2.78732e-05 0.000262493 1.64457e-10 -1.61989e-10 1.54213e-10 5e-05 1.46608e-10 
206 1 0.0327966 0.0176543 0.00710989 0.0056203 -2.44915e-05 0.000264919 -3.39242e-10 -6.68423e-12 -3.92282e-11 5e-05 1.46608e-10 
207 1 0.0325952 0.0163672 0.00773373 0.00621754 -0.00035175 7.3263e-05 -1.9111e-10 2.96952e-10 -3.33768e-10 5e-05 1.46608e-10 
208 1 0.0326823 0.0175323 0.0071585 0.00564317 -2.41863e-05 0.000267042 1.89053e-11 2.41894e-11 -1.69924e-11 5e-05 1.46608e-10 
209 1 0.0266756 0.0175058 0.00718313 0.00558651 -0.000325107 0.000145695 -1.54032e-11 1.56041e-12 5.12308e-12 5e-05 1.46608e-10 
210 1 0.038238 0.0158423 0.00835805 0.00610863 0.000342597 -0.000111149 5.39895e-10 5.25362e-10 -3.00886e-10 5e-05 1.46608e-10 
211 1 0.0389527 0.0184103 0.00690152 0.00573321 0.000296535 -0.000225109 9.80192e-11 1.53183e-11 2.62021e-11 5e-05 1.46608e-10 
212 1 0.0329652 0.0171711 0.00733062 0.00571354 9.71132e-05 0.000216798 1.38643e-10 4.8047e-11 -2.045e-12 5e-05 1.46608e-10 
213 1 0.0389392 0.0170365 0.00734734 0.0058535 0.000226201 -0.000275109 -1.05539e-10 5.55055e-12 -3.93586e-11 5e-05 1.46608e-10 
214 1 0.0388188 0.0181835 0.00691738 0.00574519 0.000449619 8.54312e-05 9.69701e-11 1.17837e-10 -2.40251e-11 5e-05 1.46608e-10 
215 1 0.0327739 0.0171438 0.00733393 0.00577399 -5.13169e-05 0.00028743 -3.17649e-10 -6.0518e-11 -9.74695e-12 5e-05 1.46608e-10 
216 1 0.0328308 0.0169963 0.00740157 0.0058564 -1.69068e-05 0.000276843 6.81445e-11 -2.26807e-10 7.85168e-11 5e-05 1.46608e-10 
217 1 0.0386744 0.0167019 0.00752211 0.005764 0.000234503 -0.000275014 4.14449e-11 -1.58784e-11 -9.89141e-13 5e-05 1.46608e-10 
218 1 0.0329215 0.01779 0.00705573 0.005593 -5.40348e-05 0.000276834 -3.80206e-10 -7.23625e-11 5.45935e-11 5e-05 1.46608e-10 
219 1 0.0388767 0.0184745 0.00691101 0.00571169 0.000269089 -0.000226181 6.19643e-11 -4.88383e-12 4.56851e-11 5e-05 1.46608e-10 
220 1 0.032754 0.0170535 0.00737284 0.00580994 -8.69271e-05 0.000303812 1.28171e-11 -1.99826e-10 8.24021e-11 5e-05 1.46608e-10 
221 1 0.0265196 0.0168018 0.00748106 0.00568712 -0.000359661 0.000135139 5.31808e-11 -5.36199e-11 -9.4584e-12 5e-05 1.46608e-10 
222 1 0.0385594 0.0165874 0.00758261 0.00567186 0.000280699 -0.000296907 -8.39189e-11 -5.43841e-11 6.09604e-12 5e-05 1.46608e-10 
223 1 0.0328429 0.0173259 0.00726229 0.00566975 1.72479e-05 0.000250845 -5.99461e-11 -4.0619e-11 -2.46468e-11 5e-05 1.46608e-10 
224 1 0.0326041 0.017172 0.00731377 0.00578119 -0.000122073 0.000314115 2.78546e-11 -7.98027e-11 6.70494e-11 5e-05 1.46608e-10 
225 1 0.0389834 0.0172181 0.00725546 0.00585869 0.000409276 0.000102114 -2.83032e-11 -2.01542e-10 9.90634e-11 5e-05 1.46608e-10 
226 1 0.0328105 0.0169063 0.00744033 0.00587203 -9.2869e-05 0.000309482 3.76681e-10 1.58126e-10 -2.2638e-11 5e-05 1.46608e-10 
227 1 0.0265754 0.0170284 0.00729264 0.00556292 -0.000323312 0.000145315 -3.0174e-12 -3.92103e-11 9.33686e-12 5e-05 1.46608e-10 
228 1 0.0507861 0.0189683 0.00558458 -5.3017e-15 -1.91207e-14 -2.87013e-13 3.07136e-22 -3.7934e-23 -3.30872e-24 5e-05 1.46608e-10 
229 1 0.0323905 0.0160228 0.0081266 0.00599368 -0.000364975 9.49695e-05 -4.02052e-10 5.97328e-11 -6.31843e-11 5e-05 1.46608e-10 
230 1 0.0328162 0.0181705 0.00690628 0.00563808 -0.000168128 -0.000326614 -7.89524e-11 -3.5405e-10 2.34808e-10 5e-05 1.46608e-10 
231 1 0.197479 0.018695 0.00523156 -1.08947e-15 -2.69831e-14 1.45243e-13 1.19408e-23 0 0 5e-05 1.46608e-10 
232 1 0.0324118 0.0160876 0.00805352 0.00605398 -0.000385849 0.00011424 4.55058e-12 -3.99851e-11 1.02312e-10 5e-05 1.46608e-10 
233 1 0.0326931 0.0167837 0.00748902 0.00586412 -0.00011342 0.000316138 -1.56814e-10 3.86464e-11 -4.50155e-11 5e-05 1.46608e-10 
234 1 0.0381754 0.0156611 0.00858876 0.00597156 0.000345012 -0.000127243 1.71804e-10 4.73218e-11 -5.38858e-11 5e-05 1.46608e-10 
235 1 0.0329839 0.0185227 0.00700415 0.00556595 -0.00018164 0.000311661 -1.99516e-10 2.16111e-11 4.19572e-10 5e-05 1.46608e-10 
236 1 0.0330397 0.0183622 0.00696295 0.00552737 -0.000108454 0.000469363 -1.84228e-10 -2.91918e-12 -1.209e-11 5e-05 1.46608e-10 
237 1 0.032944 0.0183327 0.00697463 0.00553531 -0.000173554 0.000473476 -4.38706e-10 6.2197e-10 1.94405e-10 5e-05 1.46608e-10 
238 1 0.0266952 0.0176014 0.0071612 0.00551666 -0.00031159 0.000142442 -3.96192e-11 8.93125e-11 -1.65728e-11 5e-05 1.46608e-10 
239 1 0.0264184 0.0164146 0.00778062 0.0060883 -0.000301917 0.000348981 -3.1049e-11 3.83398e-11 -2.15738e-11 5e-05 1.46608e-10 
240 1 0.0265008 0.0167258 0.00754325 0.00559259 -0.000331219 0.000142863 1.28979e-10 -1.03785e-10 -6.65456e-11 5e-05 1.46608e-10 
241 1 0.0264401 0.0164927 0.00772207 0.00609453 -0.000300372 0.000349222 -1.87436e-11 7.94042e-11 -6.18639e-11 5e-05 1.46608e-10 
242 1 0.0267103 0.0172504 0.00724283 0.00556903 -0.000331102 0.000147005 -4.45127e-11 5.18618e-12 -1.58901e-12 5e-05 1.46608e-10 
243 1 0.0263966 0.0163365 0.00783917 0.00609148 -0.000301907 0.000348968 1.66011e-12 1.14649e-11 -1.08293e-11 5e-05 1.46608e-10 
244 1 0.0264618 0.0165708 0.00766352 0.00584668 -0.000262682 0.000313533 -2.1615e-10 3.14705e-11 -4.01063e-11 5e-05 1.46608e-10 
245 1 0.0267146 0.017697 0.00713927 0.00545783 -0.00029838 0.000137944 -8.55289e-12 1.13042e-10 -4.94405e-11 5e-05 1.46608e-10 
246 1 0.0265384 0.0168769 0.00741782 0.00573739 -0.000367294 0.000141408 -2.60842e-11 -3.77891e-11 1.18793e-11 5e-05 1.46608e-10 
247 1 0.0329633 0.0175587 0.00715962 0.00577262 2.50256e-05 0.000251626 -2.2631e-10 8.06272e-11 -1.41693e-11 5e-05 1.46608e-10 