ITEM: TIMESTEP
10200000
ITEM: NUMBER OF ATOMS
284
ITEM: BOX BOUNDS ff ff ff
-0.02 0.43
-0.02 0.06
-0.02 0.07
ITEM: ATOMS id type x y z vx vy vz fx fy fz radius mass 
1 1 0.0722256 0.0161113 0.00811957 0.00602062 -9.63966e-05 6.83343e-05 -2.06548e-11 -3.85319e-11 3.19519e-11 5e-05 1.46608e-10 
2 1 0.0726297 0.0168392 0.00751487 0.00594045 -2.76265e-05 1.09983e-05 4.26956e-10 6.9114e-11 -6.49739e-11 5e-05 1.46608e-10 
3 1 0.0663061 0.0163945 0.00789519 0.00598203 -0.000411954 0.000162661 1.73514e-11 1.46098e-10 -9.98312e-11 5e-05 1.46608e-10 
4 1 0.0726401 0.017266 0.00722273 0.00560246 3.78133e-05 5.23344e-06 -2.80106e-10 5.23711e-12 1.10779e-10 5e-05 1.46608e-10 
5 1 0.0721292 0.0160873 0.00813963 0.00601703 -8.35413e-05 5.78165e-05 -8.50025e-11 -5.319e-11 4.65388e-11 5e-05 1.46608e-10 
6 1 0.0783161 0.0167214 0.00757217 0.00633437 0.000543535 -0.000294781 3.23722e-12 3.06818e-11 -1.75852e-11 5e-05 1.46608e-10 
7 1 0.0723187 0.0164892 0.00780584 0.00610379 -9.62215e-05 6.56531e-05 -1.14085e-10 7.07208e-11 -3.93524e-11 5e-05 1.46608e-10 
8 1 0.0721387 0.0158103 0.00836945 0.00596709 -7.37213e-05 4.97214e-05 1.49747e-10 -7.19062e-12 4.45719e-12 5e-05 1.46608e-10 
9 1 0.0785509 0.0177512 0.00702129 0.00594379 0.000632966 -0.000321953 1.98026e-10 6.89425e-10 -4.78529e-10 5e-05 1.46608e-10 
10 1 0.0722739 0.0165895 0.00772275 0.00610047 -9.96836e-05 6.4208e-05 -1.85111e-11 6.67698e-11 2.80778e-12 5e-05 1.46608e-10 
11 1 0.0723989 0.0166952 0.00763475 0.00614792 -9.26617e-05 6.50277e-05 2.60722e-11 4.00908e-11 -1.64873e-11 5e-05 1.46608e-10 
12 1 0.0724776 0.0169972 0.00738405 0.00577195 -3.827e-05 2.01436e-05 -7.46171e-11 -6.69909e-11 6.15766e-11 5e-05 1.46608e-10 
13 1 0.0724109 0.0171353 0.00744633 0.00579496 -1.7627e-05 5.23059e-05 1.11952e-11 7.2433e-12 1.01121e-10 5e-05 1.46608e-10 
14 1 0.0659968 0.0155706 0.00847346 0.00573258 -0.000425151 0.00015521 1.82228e-10 -7.44944e-10 -9.68734e-11 5e-05 1.46608e-10 
15 1 0.0723779 0.0169657 0.0074104 0.00586759 -7.33308e-05 4.81192e-05 1.35156e-10 -6.70021e-11 8.17319e-11 5e-05 1.46608e-10 
16 1 0.0659778 0.0154901 0.00852972 0.00559165 -0.000419908 0.00010083 -2.50083e-10 -5.52483e-10 -5.16709e-10 5e-05 1.46608e-10 
17 1 0.0724589 0.0170501 0.00746687 0.00577001 -3.7794e-05 2.29441e-05 3.37431e-11 -2.8544e-11 5.14103e-11 5e-05 1.46608e-10 
18 1 0.078457 0.0173157 0.00723013 0.00598519 0.000640317 -0.000352681 -7.59744e-12 2.00873e-11 -6.14498e-12 5e-05 1.46608e-10 
19 1 0.0720859 0.0159371 0.00826435 0.00599817 -7.5287e-05 5.08328e-05 4.5063e-11 -4.83313e-12 -6.57973e-12 5e-05 1.46608e-10 
20 1 0.072577 0.0170576 0.00744432 0.00575545 -2.12027e-05 -3.95128e-05 -1.57418e-10 -1.42958e-10 -4.53043e-12 5e-05 1.46608e-10 
21 1 0.0721076 0.0160122 0.00820199 0.00600367 -8.26449e-05 5.7234e-05 6.23056e-11 -3.98069e-11 3.69661e-11 5e-05 1.46608e-10 
22 1 0.0724415 0.0168458 0.00750979 0.00607677 -6.37481e-05 4.08673e-05 -1.16304e-10 -1.59536e-11 1.71115e-11 5e-05 1.46608e-10 
23 1 0.0663624 0.0169298 0.00752176 0.00599064 -0.000417113 0.000116913 9.06231e-11 1.45603e-10 -1.55975e-10 5e-05 1.46608e-10 
24 1 0.0785309 0.0176536 0.00702927 0.0058932 0.000648941 -0.000260513 -8.33468e-11 9.13368e-11 2.36346e-10 5e-05 1.46608e-10 
25 1 0.072371 0.0165717 0.00778446 0.00612598 -9.964e-05 6.70955e-05 5.69918e-11 8.6644e-12 2.84867e-11 5e-05 1.46608e-10 
26 1 0.0783978 0.0170608 0.00737685 0.00587157 0.00063955 -0.00035239 -4.59933e-11 -3.49703e-11 1.42672e-11 5e-05 1.46608e-10 
27 1 0.0662754 0.0166103 0.00774605 0.0059829 -0.000406846 0.000161797 3.16325e-11 1.31611e-10 -5.00329e-11 5e-05 1.46608e-10 
28 1 0.0724015 0.0169761 0.00750701 0.00591821 -8.20091e-06 2.32959e-05 2.29371e-10 -1.20381e-10 1.70669e-10 5e-05 1.46608e-10 
29 1 0.0722475 0.0161864 0.00805723 0.00603471 -9.83519e-05 7.01053e-05 -2.3649e-11 -6.58992e-12 -2.97762e-13 5e-05 1.46608e-10 
30 1 0.0726616 0.01717 0.00724038 0.00562888 4.80798e-05 -4.23605e-05 8.3744e-11 -7.61813e-11 -5.72652e-11 5e-05 1.46608e-10 
31 1 0.0723597 0.0168901 0.00747321 0.00604394 -9.90197e-05 6.95894e-05 2.54772e-11 -9.8768e-12 9.39019e-13 5e-05 1.46608e-10 
32 1 0.0724205 0.0167704 0.00757238 0.00614475 -9.21967e-05 6.42973e-05 -2.45285e-10 -8.95754e-12 2.7186e-12 5e-05 1.46608e-10 
33 1 0.0783378 0.016806 0.00752348 0.00632857 0.000545361 -0.000295918 1.74056e-11 5.48435e-11 -3.24724e-11 5e-05 1.46608e-10 
34 1 0.0722594 0.0165686 0.00781946 0.00609117 -9.96789e-05 5.9539e-05 -1.00111e-10 1.99109e-11 -2.68489e-11 5e-05 1.46608e-10 
36 1 0.0785707 0.0178492 0.00701846 0.00575087 0.000673753 -0.000319211 -1.42037e-10 1.29344e-10 1.20324e-10 5e-05 1.46608e-10 
37 1 0.0722956 0.0166646 0.00766039 0.00611989 -0.000103698 7.4614e-05 3.46494e-11 5.54153e-11 -1.50201e-11 5e-05 1.46608e-10 
38 1 0.0724598 0.0169215 0.00744689 0.00588808 -5.35567e-05 3.30808e-05 3.02946e-11 -1.86965e-10 1.07549e-10 5e-05 1.46608e-10 
39 1 0.0785128 0.0175692 0.00707976 0.00584884 0.000687115 -0.000268108 -8.80167e-11 -2.8721e-10 1.39389e-10 5e-05 1.46608e-10 
41 1 0.0721509 0.0161624 0.00807727 0.00603358 -8.41847e-05 5.81985e-05 -1.68386e-11 1.05161e-12 -4.29728e-12 5e-05 1.46608e-10 
42 1 0.0723388 0.0168148 0.00753567 0.0061285 -0.000112015 8.02264e-05 -4.43693e-11 3.3265e-11 -2.83587e-11 5e-05 1.46608e-10 
44 1 0.0725658 0.0169608 0.00741409 0.00578146 -1.78882e-05 2.75534e-06 -3.16138e-11 5.56537e-11 2.02898e-12 5e-05 1.46608e-10 
45 1 0.0783781 0.0169758 0.00742576 0.00583885 0.000639591 -0.000351506 3.03667e-11 5.22039e-11 7.40539e-12 5e-05 1.46608e-10 
46 1 0.0784373 0.0172307 0.00727905 0.00594197 0.000643633 -0.000353776 -5.37801e-11 6.05653e-11 -3.94584e-11 5e-05 1.46608e-10 
47 1 0.0721947 0.0163126 0.00795262 0.00606259 -8.54889e-05 5.91396e-05 -5.87815e-11 -1.81639e-11 1.61674e-11 5e-05 1.46608e-10 
48 1 0.072548 0.0168851 0.00747694 0.00579515 -1.96955e-05 4.89035e-06 -5.74734e-11 3.64201e-11 -2.64407e-11 5e-05 1.46608e-10 
49 1 0.0784175 0.0171457 0.00732795 0.0059123 0.000640243 -0.000351857 9.03869e-11 2.6871e-11 -1.85399e-11 5e-05 1.46608e-10 
50 1 0.0725237 0.0171939 0.00722078 0.00559446 -2.56256e-05 1.31435e-05 4.19916e-11 1.61095e-11 -2.60551e-11 5e-05 1.46608e-10 
51 1 0.0725609 0.0171347 0.00729228 0.00571747 6.95807e-06 -1.75556e-05 9.36609e-11 -1.57181e-11 -3.72942e-11 5e-05 1.46608e-10 
52 1 0.0726634 0.0178796 0.0072392 0.00544495 2.39919e-05 1.02887e-05 -1.47587e-10 1.34806e-10 4.25268e-13 5e-05 1.46608e-10 
53 1 0.0784759 0.0174005 0.00718066 0.00582367 0.000718314 -0.00028607 -2.35691e-10 3.10878e-12 -2.37535e-11 5e-05 1.46608e-10 
54 1 0.072204 0.0160362 0.00818193 0.0060092 -9.4681e-05 6.69309e-05 -5.2116e-12 -4.0616e-11 3.48153e-11 5e-05 1.46608e-10 
55 1 0.0660366 0.0157312 0.00836115 0.00602614 -0.000416518 0.000161054 9.48469e-11 -2.62663e-10 2.10673e-10 5e-05 1.46608e-10 
56 1 0.0723172 0.0167397 0.00759803 0.00612929 -0.000109331 7.87052e-05 4.89369e-11 5.72807e-11 -1.30791e-11 5e-05 1.46608e-10 
57 1 0.0783584 0.0168908 0.00747467 0.00580289 0.000644078 -0.000353877 -1.25128e-11 2.25643e-11 -2.0689e-11 5e-05 1.46608e-10 
59 1 0.0724872 0.0166591 0.00766458 0.0061618 -7.66218e-05 5.10673e-05 -1.88899e-11 3.81497e-13 -5.80485e-13 5e-05 1.46608e-10 
60 1 0.0725088 0.0167342 0.00760221 0.00615708 -7.54123e-05 5.06775e-05 -2.4254e-10 8.06504e-11 -7.25937e-11 5e-05 1.46608e-10 
61 1 0.0721727 0.0162375 0.00801495 0.00604759 -8.64145e-05 5.96209e-05 1.54177e-11 -3.95581e-12 3.7512e-13 5e-05 1.46608e-10 
62 1 0.0726033 0.0171319 0.00738279 0.00572271 1.36359e-05 -2.305e-05 2.0651e-10 -2.04207e-10 5.48666e-11 5e-05 1.46608e-10 
63 1 0.0725298 0.0168095 0.00753975 0.00607526 -6.30475e-05 4.05431e-05 -2.5447e-10 6.01063e-11 -4.74699e-11 5e-05 1.46608e-10 
64 1 0.0784941 0.0174849 0.00713019 0.00581154 0.000715892 -0.000284097 1.56447e-11 -1.30217e-10 8.86564e-11 5e-05 1.46608e-10 
65 1 0.0663189 0.0167702 0.00763412 0.00598506 -0.000405877 0.000158082 4.97047e-12 1.19642e-10 -7.26039e-11 5e-05 1.46608e-10 
66 1 0.0664992 0.0175014 0.00722354 0.00570509 -0.000325331 8.41153e-05 2.24295e-10 -7.50029e-11 6.75863e-11 5e-05 1.46608e-10 
67 1 0.0726574 0.0169915 0.00738849 0.00577091 -9.42527e-06 -1.27142e-05 -6.00199e-11 1.37746e-10 5.42264e-11 5e-05 1.46608e-10 
68 1 0.0724841 0.0170763 0.00731846 0.0057407 -2.16602e-05 7.36555e-06 2.14253e-11 4.25214e-11 1.63669e-12 5e-05 1.46608e-10 
69 1 0.0723779 0.01662 0.00769719 0.00615677 -9.46449e-05 6.74923e-05 2.10816e-11 3.10795e-11 -2.43215e-11 5e-05 1.46608e-10 
70 1 0.0724168 0.0171449 0.00734696 0.00583407 -7.08774e-05 5.33684e-05 -1.43983e-10 -5.1673e-11 2.14459e-11 5e-05 1.46608e-10 
71 1 0.0660161 0.015651 0.00841725 0.00599278 -0.000437928 0.000185656 1.51738e-11 -5.24211e-10 1.44147e-10 5e-05 1.46608e-10 
72 1 0.0726069 0.0172224 0.00730634 0.005684 2.04038e-05 2.43192e-05 -7.52508e-11 8.52006e-11 2.81835e-10 5e-05 1.46608e-10 
73 1 0.0725006 0.0172441 0.00730415 0.00559271 -1.1155e-06 5.13101e-06 -5.41763e-11 -2.23658e-11 1.2394e-11 5e-05 1.46608e-10 
74 1 0.0728547 0.0173951 0.00722657 0.00558705 0.000116743 1.40496e-05 -3.024e-11 -1.36854e-10 -2.14249e-11 5e-05 1.46608e-10 
76 1 0.066926 0.0182724 0.00706648 0.00570948 -0.000342601 0.000228068 2.96812e-11 4.98653e-11 9.70599e-12 5e-05 1.46608e-10 
77 1 0.0726487 0.0182336 0.00724866 0.00547545 3.96335e-05 1.09213e-05 -1.20318e-11 1.51956e-10 3.9077e-12 5e-05 1.46608e-10 
78 1 0.0661235 0.0160511 0.00813737 0.00599134 -0.000410261 0.000163271 -4.3611e-11 9.70076e-11 -1.1982e-10 5e-05 1.46608e-10 
79 1 0.0663835 0.0170095 0.00746517 0.00587715 -0.000388506 9.03286e-05 -1.43169e-10 1.1923e-10 -2.31358e-10 5e-05 1.46608e-10 
80 1 0.072504 0.017549 0.00723006 0.0055329 -1.25711e-05 9.12763e-06 7.26487e-13 2.74833e-11 7.60847e-13 5e-05 1.46608e-10 
81 1 0.0662973 0.0166902 0.00769011 0.00598161 -0.000405874 0.000160962 1.86895e-11 1.24201e-10 -6.3658e-11 5e-05 1.46608e-10 
82 1 0.0663406 0.0168501 0.00757805 0.00599052 -0.000410404 0.000145348 7.32147e-12 1.73066e-10 -5.27111e-11 5e-05 1.46608e-10 
83 1 0.066232 0.0164503 0.00785796 0.00598449 -0.000410664 0.000161631 1.26886e-12 7.34468e-11 -4.70571e-11 5e-05 1.46608e-10 
84 1 0.0785901 0.0179472 0.00701565 0.00570367 0.000674623 -0.000317933 -2.39747e-10 -1.2556e-10 -3.32349e-11 5e-05 1.46608e-10 
85 1 0.0720426 0.0157869 0.00838907 0.00597461 -5.89847e-05 3.74552e-05 -3.81824e-12 6.47498e-11 -4.40411e-11 5e-05 1.46608e-10 
86 1 0.0725633 0.0173899 0.00722591 0.00556809 -1.7699e-05 7.3021e-06 -8.87444e-11 -1.48235e-12 -1.3726e-11 5e-05 1.46608e-10 
87 1 0.0726103 0.0167637 0.00757753 0.00608137 -4.55609e-05 2.61593e-05 -2.36459e-10 1.35753e-10 -1.14944e-10 5e-05 1.46608e-10 
88 1 0.0725842 0.0179407 0.00724069 0.00543122 3.22553e-05 9.45472e-06 -4.13346e-11 1.18533e-10 9.93179e-13 5e-05 1.46608e-10 
89 1 0.072603 0.0175858 0.00723123 0.00551565 3.23061e-06 9.87689e-06 6.64235e-11 2.40541e-11 9.80487e-12 5e-05 1.46608e-10 
90 1 0.0727349 0.0172979 0.00722376 0.0056168 4.43698e-05 1.80569e-05 -1.5211e-10 -1.90281e-10 6.8802e-12 5e-05 1.46608e-10 
91 1 0.0724244 0.0171607 0.00724853 0.00585821 -8.38375e-05 5.56139e-05 1.74982e-11 -4.27629e-12 8.89791e-12 5e-05 1.46608e-10 
92 1 0.0727547 0.0173959 0.00722641 0.00558209 5.49707e-05 1.10596e-05 -5.78169e-11 -1.08693e-10 1.44701e-11 5e-05 1.46608e-10 
93 1 0.07276 0.0178537 0.00723868 0.00547148 7.00235e-05 1.16573e-05 -2.1863e-10 2.23243e-10 1.61454e-12 5e-05 1.46608e-10 
94 1 0.0725831 0.0174879 0.00722857 0.00554726 -1.01504e-05 9.45205e-06 -3.33645e-12 2.47485e-11 -6.3162e-12 5e-05 1.46608e-10 
95 1 0.0724842 0.017451 0.00722741 0.00555657 -2.00411e-05 3.4974e-06 -3.10553e-11 1.66679e-11 4.02353e-13 5e-05 1.46608e-10 
96 1 0.0726996 0.01756 0.00723071 0.00552129 3.44056e-05 1.08458e-05 1.79556e-10 9.83323e-11 -1.72752e-12 5e-05 1.46608e-10 
97 1 0.0664975 0.0171151 0.00738739 0.0057292 -0.0003311 7.03825e-05 -2.7658e-10 -1.47934e-11 -5.28088e-13 5e-05 1.46608e-10 
98 1 0.0726272 0.0181359 0.007246 0.00544419 1.47964e-05 1.07608e-05 3.94043e-11 2.38853e-10 9.62625e-12 5e-05 1.46608e-10 
99 1 0.0664026 0.0170896 0.00740839 0.00571029 -0.000342171 7.65307e-05 -4.11552e-10 8.82937e-11 -9.44891e-11 5e-05 1.46608e-10 
100 1 0.0728745 0.0174931 0.00722923 0.005524 6.4209e-05 1.19953e-05 1.78174e-10 -9.0581e-11 -5.72597e-13 5e-05 1.46608e-10 
101 1 0.0663496 0.0165544 0.00778327 0.00598033 -0.000408783 0.000160826 4.9307e-11 1.40051e-10 -8.93151e-11 5e-05 1.46608e-10 
102 1 0.0694385 0.0202053 0.00537268 3.98025e-15 4.48019e-15 -7.68247e-14 8.31834e-23 6.14298e-22 3.35008e-23 5e-05 1.46608e-10 
104 1 0.0664586 0.0169543 0.00750135 0.00595638 -0.000313456 5.42606e-05 -3.06513e-11 1.9004e-10 -7.38764e-11 5e-05 1.46608e-10 
105 1 0.0661885 0.0162904 0.00796988 0.00598319 -0.000417094 0.00016601 -3.5136e-11 3.26732e-11 -3.04849e-11 5e-05 1.46608e-10 
106 1 0.0665536 0.0173561 0.00721673 0.00572119 -0.000332835 7.19071e-05 9.25667e-11 -2.2508e-11 1.96184e-11 5e-05 1.46608e-10 
107 1 0.0661457 0.0161357 0.00808887 0.00598419 -0.000414649 0.000167753 1.06185e-10 9.98481e-11 -6.74765e-11 5e-05 1.46608e-10 
108 1 0.0722377 0.0164818 0.00786422 0.00609485 -9.39585e-05 6.32019e-05 -1.01817e-10 -2.53015e-11 -1.216e-10 5e-05 1.46608e-10 
109 1 0.0724445 0.017255 0.00722209 0.00558701 -3.44318e-05 1.17522e-05 -1.03481e-11 -3.17824e-11 -4.92382e-12 5e-05 1.46608e-10 
110 1 0.0726228 0.0176838 0.00723389 0.00549727 1.00632e-05 9.94178e-06 3.07221e-11 2.45129e-11 3.66829e-12 5e-05 1.46608e-10 
111 1 0.0727277 0.0181725 0.00724716 0.00546947 3.40489e-05 1.09226e-05 -6.90838e-11 4.17927e-11 2.83577e-12 5e-05 1.46608e-10 
112 1 0.0662537 0.0165303 0.007802 0.00598471 -0.000408839 0.000160661 2.52786e-11 1.04756e-10 -6.46196e-11 5e-05 1.46608e-10 
113 1 0.0665766 0.0170641 0.007421 0.00565735 -0.000297905 4.87736e-05 -1.29868e-12 -1.40398e-10 9.39994e-11 5e-05 1.46608e-10 
115 1 0.0724644 0.017353 0.00722474 0.00557076 -2.75917e-05 3.03039e-06 -5.66994e-11 1.18521e-12 -1.46859e-12 5e-05 1.46608e-10 
116 1 0.0724662 0.0165839 0.00772703 0.00601985 -5.21083e-05 3.12139e-05 -2.67478e-10 1.91822e-11 -7.83329e-13 5e-05 1.46608e-10 
117 1 0.0723104 0.0164125 0.00786949 0.00608049 -9.6882e-05 6.88959e-05 -6.53773e-11 7.91803e-11 -6.55675e-11 5e-05 1.46608e-10 
118 1 0.06608 0.0158911 0.00824923 0.00598042 -0.000402127 0.000161303 -3.22072e-11 -1.41916e-10 6.6919e-11 5e-05 1.46608e-10 
119 1 0.0726512 0.0170934 0.0073039 0.00573385 2.74091e-05 -3.24551e-05 1.4011e-10 1.5206e-11 -6.44649e-11 5e-05 1.46608e-10 
120 1 0.0720645 0.015862 0.00832674 0.00598363 -6.61526e-05 4.33181e-05 3.03533e-11 -3.43171e-12 7.33653e-12 5e-05 1.46608e-10 
121 1 0.0721607 0.0158859 0.00830666 0.00598626 -8.50269e-05 5.89817e-05 -7.61735e-11 -9.00079e-11 7.53083e-11 5e-05 1.46608e-10 
122 1 0.0727194 0.017658 0.00723337 0.00550019 4.1688e-05 1.12321e-05 7.96913e-11 2.03059e-10 4.32871e-12 5e-05 1.46608e-10 
123 1 0.0662103 0.0163703 0.00791392 0.00598466 -0.000413549 0.000164014 -2.65926e-12 5.45711e-11 -4.86536e-11 5e-05 1.46608e-10 
124 1 0.0725238 0.0176469 0.00723272 0.00551019 -7.63351e-06 1.07483e-05 1.34621e-11 2.35059e-11 6.07925e-12 5e-05 1.46608e-10 
125 1 0.0721823 0.015961 0.0082443 0.00599765 -8.79392e-05 6.13451e-05 1.89082e-11 -4.56941e-11 3.75888e-11 5e-05 1.46608e-10 
126 1 0.0723959 0.0170475 0.00735571 0.00576112 -5.81272e-05 3.56248e-05 -1.30375e-11 -3.85504e-11 1.03201e-10 5e-05 1.46608e-10 
127 1 0.0666434 0.0174875 0.00723184 0.00576166 -0.000253012 5.52791e-05 2.23731e-10 -3.47228e-11 -4.9787e-11 5e-05 1.46608e-10 
128 1 0.0726599 0.017364 0.00722539 0.00559173 3.22635e-05 1.08389e-05 -1.07913e-10 -2.17237e-12 -2.04523e-13 5e-05 1.46608e-10 
129 1 0.0726427 0.0177818 0.00723654 0.00547339 1.88737e-05 1.04583e-05 -6.05224e-11 8.0653e-11 5.29888e-12 5e-05 1.46608e-10 
131 1 0.0664781 0.0170348 0.00744432 0.0057159 -0.000300295 4.88109e-05 -3.21008e-10 -2.74402e-10 1.99351e-10 5e-05 1.46608e-10 
132 1 0.0726797 0.017462 0.00722805 0.00555683 2.81028e-05 1.09203e-05 1.98483e-11 4.76185e-11 5.60815e-12 5e-05 1.46608e-10 
133 1 0.0722696 0.0162615 0.00799484 0.0060543 -9.0458e-05 6.28823e-05 -1.61519e-11 -1.90155e-11 1.76214e-11 5e-05 1.46608e-10 
134 1 0.0727802 0.0169786 0.00739892 0.00578888 3.13139e-05 -3.92292e-05 1.7692e-10 -1.44771e-10 6.76417e-11 5e-05 1.46608e-10 
135 1 0.0723869 0.0163628 0.00791056 0.00609737 -8.34249e-05 5.722e-05 -1.2756e-10 9.59156e-11 -7.71692e-11 5e-05 1.46608e-10 
136 1 0.0661033 0.0159708 0.00819345 0.00599068 -0.000407649 0.000159966 -1.61448e-10 8.79016e-11 -7.45546e-12 5e-05 1.46608e-10 
137 1 0.0726701 0.0183313 0.00725131 0.00549717 3.48977e-05 1.08776e-05 2.77376e-11 1.62769e-10 3.30708e-12 5e-05 1.46608e-10 
138 1 0.0727816 0.0179513 0.00724134 0.0054694 7.882e-05 1.20068e-05 -2.05696e-11 2.61941e-10 7.3005e-12 5e-05 1.46608e-10 
140 1 0.0725435 0.0172919 0.00722325 0.00557967 -1.9421e-05 9.51911e-06 -3.73228e-11 2.32541e-11 1.58695e-11 5e-05 1.46608e-10 
141 1 0.0662844 0.0163145 0.00795115 0.00598202 -0.000413529 0.00016402 -5.52774e-12 1.07207e-10 -7.45212e-11 5e-05 1.46608e-10 
142 1 0.066393 0.0167144 0.00767135 0.0059801 -0.000413202 0.000163657 9.42916e-13 1.20885e-10 -7.48486e-11 5e-05 1.46608e-10 
143 1 0.0661668 0.0162104 0.00802584 0.00597672 -0.000419947 0.000168779 1.27392e-11 3.48858e-11 -1.29608e-11 5e-05 1.46608e-10 
146 1 0.0664719 0.0166631 0.00770534 0.00595963 -0.00043438 0.000178845 3.76671e-11 1.60412e-10 -1.16502e-10 5e-05 1.46608e-10 
147 1 0.0660587 0.0158111 0.00830524 0.00598107 -0.000404709 0.000153071 3.13174e-10 -3.33245e-10 1.45294e-10 5e-05 1.46608e-10 
148 1 0.00866734 0.0166846 0.00841161 0.00151815 -0.000296978 0.000941937 1.50212e-11 2.08717e-10 -1.76401e-10 5e-05 1.46608e-10 
149 1 0.0725632 0.0178429 0.00723804 0.00546693 1.80345e-05 9.07014e-06 5.8528e-11 9.71308e-11 1.67113e-11 5e-05 1.46608e-10 
150 1 0.0663714 0.0166344 0.00772732 0.00597676 -0.000410787 0.000162059 1.85514e-11 1.20724e-10 -9.43077e-11 5e-05 1.46608e-10 
151 1 0.0668048 0.0172777 0.00726459 0.00566452 -0.000347539 8.22927e-05 -2.43376e-10 1.10561e-10 -6.1076e-11 5e-05 1.46608e-10 
153 1 0.06645 0.0165828 0.00776148 0.00596298 -0.000425096 0.00017238 6.74373e-11 1.78572e-10 -1.18496e-10 5e-05 1.46608e-10 
154 1 0.0665874 0.0175301 0.00711976 0.00570602 -0.000349377 8.18683e-05 1.35298e-10 -6.18745e-11 1.1476e-10 5e-05 1.46608e-10 
155 1 0.0605896 0.0175334 0.00717014 0.00566584 0.000192356 -6.54018e-05 1.46876e-11 -1.08258e-11 2.27527e-11 5e-05 1.46608e-10 
156 1 0.0664773 0.01741 0.00718102 0.00570264 -0.000349265 8.88953e-05 -1.20348e-11 -4.63403e-11 1.32344e-11 5e-05 1.46608e-10 
157 1 0.0666584 0.0178158 0.00706213 0.0054752 -0.000297035 0.000218456 3.23871e-11 -8.69314e-11 -7.40046e-11 5e-05 1.46608e-10 
158 1 0.0666917 0.0171721 0.00734189 0.0056202 -0.00032776 7.11384e-05 -1.82584e-10 -7.23577e-11 5.98165e-11 5e-05 1.46608e-10 
159 1 0.0727745 0.0174938 0.00722907 0.00553791 5.95754e-05 1.13934e-05 1.11912e-10 -9.03765e-11 -2.0528e-11 5e-05 1.46608e-10 
160 1 0.0665524 0.0177664 0.00705858 0.00551912 -0.000330199 0.000220014 1.19451e-11 7.01051e-11 4.36726e-11 5e-05 1.46608e-10 
162 1 0.066516 0.0171953 0.0073306 0.00570916 -0.000325218 6.63614e-05 -3.79943e-11 -7.45172e-11 4.50595e-11 5e-05 1.46608e-10 
163 1 0.0667103 0.0172523 0.0072851 0.00565523 -0.000331253 7.25552e-05 -2.48149e-10 -8.97329e-12 -1.61021e-12 5e-05 1.46608e-10 
164 1 0.0668476 0.0178802 0.00706863 0.00543782 -0.000262538 0.000216446 9.38515e-11 -1.05574e-10 1.69421e-11 5e-05 1.46608e-10 
165 1 0.0666355 0.0169317 0.00751223 0.00571806 -0.000309229 5.50739e-05 8.37461e-11 8.39503e-11 -6.60497e-11 5e-05 1.46608e-10 
166 1 0.0719994 0.0156366 0.00851379 0.00595632 -4.60947e-05 2.68036e-05 3.73244e-11 1.67056e-10 -1.36887e-10 5e-05 1.46608e-10 
167 1 0.0664953 0.0167444 0.0076476 0.00602376 -0.000410365 0.000117062 1.535e-10 1.15624e-10 -9.15703e-11 5e-05 1.46608e-10 
168 1 0.0666127 0.0176263 0.00710905 0.00561591 -0.00030919 0.000208496 1.81684e-10 -7.93035e-11 -8.90501e-11 5e-05 1.46608e-10 
169 1 0.0667433 0.0174169 0.00716869 0.00578531 -0.000301403 4.4049e-05 1.04855e-11 -2.03913e-10 6.9802e-11 5e-05 1.46608e-10 
170 1 0.0666767 0.0175482 0.00707845 0.00570038 -0.000303438 5.7215e-05 -7.43638e-11 9.17509e-11 -9.47812e-11 5e-05 1.46608e-10 
171 1 0.0724042 0.0164391 0.00784728 0.00607149 -8.11145e-05 5.61797e-05 3.61864e-12 5.07772e-11 -4.99448e-11 5e-05 1.46608e-10 
172 1 0.0668717 0.0175252 0.00711145 0.00545142 -0.000284957 0.000106698 1.77095e-10 -6.32914e-11 -3.82489e-11 5e-05 1.46608e-10 
173 1 0.0726472 0.016915 0.00745198 0.00581572 -1.05181e-05 -3.26405e-06 -2.33471e-10 1.64735e-10 -9.94326e-11 5e-05 1.46608e-10 
174 1 0.0665712 0.0178647 0.00705823 0.00547342 -0.000324346 0.000222968 6.55359e-11 9.15232e-11 -6.98242e-11 5e-05 1.46608e-10 
175 1 0.0634442 0.0175248 0.0070842 0.00594604 0.000472786 -0.000196527 6.83951e-13 6.42549e-14 -2.97277e-14 5e-05 1.46608e-10 
176 1 0.0664587 0.0173299 0.00723781 0.00570989 -0.000345943 8.48085e-05 -1.23428e-10 3.4209e-11 -4.62701e-11 5e-05 1.46608e-10 
177 1 0.0669618 0.0180103 0.00707137 0.00547319 -0.000338833 0.000219154 -6.05341e-11 -2.304e-10 -1.94216e-12 5e-05 1.46608e-10 
178 1 0.0668455 0.0174374 0.0071514 0.00565593 -0.000347679 8.77026e-05 6.70433e-11 3.12868e-11 1.42726e-11 5e-05 1.46608e-10 
179 1 0.0604793 0.0174036 0.00717391 0.00570563 0.000153303 -6.38827e-05 3.686e-11 -4.50344e-11 2.86131e-11 5e-05 1.46608e-10 
180 1 0.0666323 0.0173046 0.00725062 0.00568236 -0.000311873 5.7754e-05 -1.76947e-10 -9.76798e-11 6.08152e-11 5e-05 1.46608e-10 
181 1 0.066663 0.0174667 0.00713601 0.00575192 -0.000324466 6.48855e-05 2.29535e-10 -1.62586e-10 1.09862e-10 5e-05 1.46608e-10 
182 1 0.0725678 0.0166134 0.00770236 0.00619302 -5.27472e-05 3.17504e-05 -3.23843e-11 -2.02626e-11 1.71239e-11 5e-05 1.46608e-10 
183 1 0.0667565 0.0174978 0.0071115 0.00572835 -0.00028511 4.66277e-05 -8.11074e-11 -5.65604e-11 4.95022e-11 5e-05 1.46608e-10 
184 1 0.0727075 0.0180746 0.0072445 0.00546089 3.12502e-05 1.07005e-05 -1.0935e-10 6.38159e-11 2.70687e-13 5e-05 1.46608e-10 
185 1 0.0664958 0.0174902 0.00712422 0.00569479 -0.000355531 8.74439e-05 5.74907e-11 -4.01138e-11 2.8422e-11 5e-05 1.46608e-10 
186 1 0.0665349 0.0172758 0.00727359 0.00571219 -0.000322303 6.43934e-05 -4.95783e-10 2.43753e-10 -1.38383e-10 5e-05 1.46608e-10 
187 1 0.0725894 0.0166885 0.00763999 0.00618315 -5.7362e-05 3.56994e-05 -4.42222e-10 1.19893e-10 -9.81727e-11 5e-05 1.46608e-10 
188 1 0.0727393 0.0177559 0.00723603 0.00548257 5.37304e-05 1.11268e-05 -9.09985e-11 2.03409e-10 1.31223e-11 5e-05 1.46608e-10 
189 1 0.072291 0.016337 0.00793217 0.00608926 -6.38288e-05 4.06493e-05 -3.8541e-11 4.29401e-11 -2.53344e-11 5e-05 1.46608e-10 
190 1 0.0669814 0.0181084 0.00707084 0.00555405 -0.000360134 0.000222433 -6.914e-11 -1.61757e-10 -1.33929e-12 5e-05 1.46608e-10 
191 1 0.0726916 0.0184289 0.00725396 0.00551379 2.70926e-05 1.0906e-05 1.34023e-10 2.73409e-10 9.21983e-13 5e-05 1.46608e-10 
192 1 0.0665713 0.0174419 0.0071685 0.0057057 -0.000336953 7.26827e-05 -9.47598e-12 -5.92677e-11 2.7296e-12 5e-05 1.46608e-10 
193 1 0.0728494 0.0171197 0.00728174 0.00570857 4.73362e-05 -4.87478e-05 6.45024e-11 -5.70524e-11 8.82955e-11 5e-05 1.46608e-10 
194 1 0.0664152 0.0167945 0.00761472 0.00600477 -0.000421143 0.000130436 1.156e-11 7.11372e-11 -1.05518e-11 5e-05 1.46608e-10 
195 1 0.0667011 0.0176443 0.00706603 0.00561533 -0.000251254 0.000226268 2.07624e-10 7.89058e-11 2.02371e-11 5e-05 1.46608e-10 
196 1 0.0659583 0.0154396 0.00861376 0.00564884 3.46726e-05 0.000342344 -1.40682e-10 -4.78692e-10 -1.14939e-09 5e-05 1.46608e-10 
197 1 0.0665906 0.0179628 0.00705776 0.0054614 -0.00032475 0.000219532 2.44828e-10 1.21223e-10 -9.09713e-11 5e-05 1.46608e-10 
198 1 0.0664216 0.0171695 0.00735139 0.0056979 -0.000340771 7.70229e-05 -2.46895e-10 2.35904e-11 -1.3307e-11 5e-05 1.46608e-10 
199 1 0.0665341 0.0176683 0.00706363 0.0056185 -0.000348027 0.000157555 2.21718e-11 5.81734e-11 5.11329e-11 5e-05 1.46608e-10 
200 1 0.066437 0.0168742 0.00755818 0.00600364 -0.000412627 0.000120762 2.36474e-11 8.44156e-11 -5.28999e-11 5e-05 1.46608e-10 
201 1 0.0668509 0.0183383 0.00706265 0.00577111 -0.000297781 0.000229825 4.97584e-11 7.25423e-11 -1.43092e-13 5e-05 1.46608e-10 
203 1 0.072855 0.0171992 0.00722133 0.00566631 0.000102508 1.49335e-05 -8.73522e-11 -8.24482e-11 1.77818e-11 5e-05 1.46608e-10 
204 1 0.0665575 0.016984 0.00747775 0.00570774 -0.000305655 5.25948e-05 4.84563e-11 -1.52692e-10 1.11471e-10 5e-05 1.46608e-10 
205 1 0.06661 0.0180609 0.00705691 0.00545636 -0.000328856 0.000219004 2.68217e-10 1.51309e-10 8.67577e-12 5e-05 1.46608e-10 
206 1 0.0666378 0.01772 0.00708213 0.00551827 -0.000319656 0.000221117 -1.05699e-10 -1.4441e-10 -1.17496e-10 5e-05 1.46608e-10 
207 1 0.0664279 0.0165026 0.00781764 0.0059709 -0.000416568 0.000165865 7.86672e-11 1.51974e-10 -1.12512e-10 5e-05 1.46608e-10 
208 1 0.0665126 0.0175707 0.00706728 0.00568384 -0.000358327 9.06362e-05 7.38421e-11 2.14838e-11 1.5e-11 5e-05 1.46608e-10 
209 1 0.0604949 0.0175023 0.0071774 0.00567883 0.000156193 -6.03084e-05 8.70239e-12 -5.55586e-12 4.46629e-11 5e-05 1.46608e-10 
210 1 0.072021 0.0157118 0.00845144 0.00596504 -5.19904e-05 3.15893e-05 -8.81118e-11 1.41814e-10 -1.20218e-10 5e-05 1.46608e-10 
211 1 0.072685 0.0179772 0.00724185 0.0054488 2.66322e-05 1.05986e-05 -6.06704e-11 9.82383e-11 3.82327e-12 5e-05 1.46608e-10 
212 1 0.0668221 0.0173581 0.00720769 0.00566657 -0.000347844 8.28662e-05 -1.91345e-10 1.00748e-10 -2.02721e-11 5e-05 1.46608e-10 
213 1 0.0727293 0.0170452 0.00734427 0.00574963 1.12673e-05 -1.9607e-05 1.21861e-10 -9.21473e-11 1.23072e-10 5e-05 1.46608e-10 
214 1 0.0725436 0.0177449 0.00723538 0.00549902 3.3838e-06 1.00171e-05 3.93096e-11 5.89575e-11 1.87084e-11 5e-05 1.46608e-10 
215 1 0.0666137 0.0172244 0.00730741 0.00565779 -0.000308839 5.61525e-05 -5.66837e-11 -1.51689e-10 1.04588e-10 5e-05 1.46608e-10 
216 1 0.0666731 0.017092 0.00739869 0.00567444 -0.000322418 6.53048e-05 1.69331e-10 -7.21686e-11 4.13574e-11 5e-05 1.46608e-10 
217 1 0.072448 0.0165082 0.00778983 0.00612775 -0.000101248 7.33087e-05 1.01148e-10 -3.94043e-11 -8.43525e-11 5e-05 1.46608e-10 
218 1 0.0667531 0.0178478 0.00706536 0.00545084 -0.000275955 0.000218587 1.18443e-10 -1.73622e-10 2.73252e-11 5e-05 1.46608e-10 
219 1 0.0726057 0.0180383 0.00724335 0.00543432 2.50965e-05 1.01954e-05 9.24257e-11 2.00113e-10 6.03538e-12 5e-05 1.46608e-10 
220 1 0.0665951 0.0171442 0.0073642 0.00569159 -0.000315762 6.05494e-05 -8.9826e-11 -1.81648e-10 1.39434e-10 5e-05 1.46608e-10 
221 1 0.0603486 0.0168971 0.00758671 0.00603649 0.000131279 -3.3783e-05 -2.30119e-10 -1.79203e-10 -6.64041e-11 5e-05 1.46608e-10 
222 1 0.0722158 0.0163878 0.00789021 0.00607099 -8.33432e-05 6.06514e-05 -2.13369e-11 -2.4289e-11 -5.24978e-12 5e-05 1.46608e-10 
223 1 0.0666496 0.017385 0.00719372 0.00571084 -0.000320358 6.42469e-05 -1.08465e-10 -7.14485e-11 6.28999e-11 5e-05 1.46608e-10 
224 1 0.0664402 0.0172497 0.0072946 0.00571896 -0.000347837 8.05283e-05 -1.24692e-11 3.14501e-11 -3.79677e-11 5e-05 1.46608e-10 
225 1 0.072755 0.0172 0.00722116 0.00565938 5.04097e-05 1.69749e-05 -7.63067e-11 -1.45317e-10 -2.93911e-11 5e-05 1.46608e-10 
226 1 0.0666546 0.0170118 0.00745549 0.00569265 -0.000316866 6.13553e-05 2.48484e-10 3.39949e-12 -1.17342e-11 5e-05 1.46608e-10 
227 1 0.0604072 0.0171038 0.007383 0.00563941 0.00015945 -7.21066e-05 -1.3267e-10 -8.06663e-12 1.50051e-11 5e-05 1.46608e-10 
228 1 0.0507861 0.0189683 0.00558458 -5.36713e-15 -1.91064e-14 -2.87013e-13 -8.97394e-23 1.08038e-22 -7.03104e-24 5e-05 1.46608e-10 
229 1 0.0662407 0.0161543 0.00806323 0.00596414 -0.000434608 0.000178937 2.0613e-11 -5.7039e-12 -2.25213e-13 5e-05 1.46608e-10 
230 1 0.0666488 0.018257 0.00706052 0.00509465 -0.000270823 -0.000105357 4.30554e-11 3.42431e-11 -2.00149e-10 5e-05 1.46608e-10 
231 1 0.197479 0.018695 0.00523156 -1.10805e-15 -2.69832e-14 1.45243e-13 -4.48859e-23 -1.03398e-24 -2.06795e-25 5e-05 1.46608e-10 
232 1 0.0662627 0.0162345 0.00800711 0.00598018 -0.000415201 0.000165084 7.34646e-11 5.72105e-11 -4.25873e-11 5e-05 1.46608e-10 
233 1 0.0665382 0.0169038 0.00753456 0.00595025 -0.000321587 5.60717e-05 -1.75604e-10 -9.2177e-11 6.38275e-11 5e-05 1.46608e-10 
234 1 0.0719605 0.0154857 0.0086391 0.00559775 1.21609e-05 -1.997e-05 1.00181e-10 1.30443e-10 -1.31782e-10 5e-05 1.46608e-10 
235 1 0.0668192 0.0186008 0.00705791 0.00579113 -0.000360377 0.00023143 9.53892e-11 -2.72018e-11 7.17758e-12 5e-05 1.46608e-10 
236 1 0.0668719 0.018436 0.00706218 0.00580209 -0.000311927 0.000232833 2.06607e-10 1.29604e-10 1.96422e-11 5e-05 1.46608e-10 
237 1 0.0667758 0.0184042 0.00705883 0.00575513 -0.000338913 0.000227056 1.06814e-10 1.00916e-10 -2.94594e-12 5e-05 1.46608e-10 
238 1 0.0605149 0.0176 0.00716969 0.00561744 0.000168858 -4.84128e-05 1.79256e-12 1.93146e-11 4.06176e-11 5e-05 1.46608e-10 
239 1 0.060241 0.0165486 0.00792857 0.00592437 -0.000267708 -0.000452149 -1.43633e-11 -1.97427e-11 2.21824e-10 5e-05 1.46608e-10 
240 1 0.0603271 0.0168281 0.00765584 0.00600602 0.000125675 -3.4846e-05 2.50798e-10 -6.25538e-11 -4.17036e-11 5e-05 1.46608e-10 
241 1 0.0602626 0.0166199 0.00786187 0.00595843 -0.000374453 -0.000557422 2.79526e-12 1.29842e-10 9.69441e-12 5e-05 1.46608e-10 
242 1 0.060575 0.0174327 0.00717229 0.00569711 0.000168443 -6.55647e-05 3.89902e-11 6.54817e-12 1.26757e-11 5e-05 1.46608e-10 
243 1 0.0602194 0.0164778 0.00799588 0.00592487 -0.000257476 -0.000461569 -1.95796e-11 -2.11328e-10 1.84194e-10 5e-05 1.46608e-10 
244 1 0.0602841 0.01669 0.00779394 0.0059773 -0.000190309 -0.000369557 -1.46683e-10 1.60521e-10 -8.92916e-11 5e-05 1.46608e-10 
245 1 0.0605342 0.0176981 0.00716786 0.00549514 0.000194654 7.93184e-05 2.36095e-12 2.61507e-11 -2.48454e-12 5e-05 1.46608e-10 
246 1 0.0603872 0.0169624 0.00752157 0.0059648 0.000157348 -5.87681e-05 1.95838e-10 -1.8381e-12 8.40914e-12 5e-05 1.46608e-10 
247 1 0.0667817 0.0175852 0.00706998 0.00565987 -0.000192516 0.000217502 1.34981e-10 3.1674e-11 4.56869e-11 5e-05 1.46608e-10 