ITEM: TIMESTEP
4600000
ITEM: NUMBER OF ATOMS
284
ITEM: BOX BOUNDS ff ff ff
-0.02 0.43
-0.02 0.06
-0.02 0.07
ITEM: ATOMS id type x y z vx vy vz fx fy fz radius mass 
1 1 0.0396479 0.0163314 0.00780305 0.00560361 0.000200837 4.02593e-05 3.0512e-11 -1.04006e-10 9.24539e-11 5e-05 1.46608e-10 
2 1 0.0399809 0.0169496 0.0073888 0.00590599 -0.000103526 0.000279508 -5.36905e-11 6.80417e-11 -2.61211e-11 5e-05 1.46608e-10 
3 1 0.0336048 0.0161535 0.00791865 0.00552108 -0.000296168 4.30331e-05 6.61321e-11 2.03332e-11 -2.5656e-12 5e-05 1.46608e-10 
4 1 0.0400503 0.0176506 0.00715112 0.00622034 1.59661e-05 0.000253833 7.65282e-11 -6.73057e-11 3.60049e-11 5e-05 1.46608e-10 
5 1 0.0395342 0.0162489 0.00790226 0.00555802 0.00021984 1.66238e-05 3.81125e-12 4.07973e-11 -7.44667e-11 5e-05 1.46608e-10 
6 1 0.0455063 0.0160956 0.00793154 0.0055555 0.00014511 0.000482231 3.01614e-12 6.52738e-12 -6.43504e-12 5e-05 1.46608e-10 
7 1 0.0397629 0.0167909 0.00745015 0.00567948 5.22759e-06 -0.000213306 1.6252e-11 3.15647e-11 5.25118e-11 5e-05 1.46608e-10 
8 1 0.0395024 0.0160079 0.00821175 0.00553931 0.00022423 1.20512e-05 -1.62092e-10 1.56882e-10 -8.25281e-11 5e-05 1.46608e-10 
9 1 0.0457502 0.0172053 0.00758539 0.00576125 4.38922e-05 0.000376185 1.43589e-12 3.83765e-12 -2.83457e-13 5e-05 1.46608e-10 
10 1 0.0397072 0.0169396 0.00738093 0.00564905 0.000184958 0.000169946 -1.74057e-11 -3.19757e-11 1.21032e-11 5e-05 1.46608e-10 
11 1 0.0398238 0.0170639 0.00734307 0.00618735 9.52834e-05 0.00022303 3.20621e-11 -5.80149e-11 2.57972e-11 5e-05 1.46608e-10 
12 1 0.0399104 0.0174344 0.00721951 0.00621824 4.98215e-05 0.000239941 -2.53135e-11 7.44003e-11 -3.69891e-11 5e-05 1.46608e-10 
13 1 0.0396095 0.0164998 0.00759767 0.00572393 1.74312e-05 -0.000165599 2.22627e-11 7.33622e-11 -3.28743e-11 5e-05 1.46608e-10 
14 1 0.0333339 0.0155473 0.00860544 0.00569301 -0.000308248 4.76488e-05 -3.70699e-11 -1.31592e-11 1.11213e-11 5e-05 1.46608e-10 
15 1 0.0398136 0.0174032 0.00722623 0.00619212 4.34577e-05 0.000241117 2.692e-12 1.69313e-10 -5.71064e-11 5e-05 1.46608e-10 
16 1 0.0333135 0.0154823 0.00867863 0.00568282 -0.000307286 4.63112e-05 5.01641e-11 4.27332e-11 -7.03762e-11 5e-05 1.46608e-10 
17 1 0.0396682 0.0167623 0.00746469 0.0056882 2.19345e-05 -0.000168067 1.52494e-11 -1.9779e-11 3.14921e-11 5e-05 1.46608e-10 
18 1 0.0456416 0.0167343 0.00771277 0.00574566 -0.000222135 -0.000561585 3.0001e-12 3.22206e-12 -1.08937e-12 5e-05 1.46608e-10 
19 1 0.0394971 0.0161276 0.0080569 0.005474 0.00021319 1.58439e-05 -6.24027e-11 3.00813e-11 -7.57359e-11 5e-05 1.46608e-10 
20 1 0.0399853 0.0173727 0.00724376 0.00623267 4.14575e-05 0.000242481 -1.07525e-10 4.61126e-11 5.44835e-11 5e-05 1.46608e-10 
21 1 0.0395157 0.0161882 0.00797958 0.00551539 0.000217464 1.40982e-05 -1.57113e-10 1.01269e-12 -7.63827e-11 5e-05 1.46608e-10 
22 1 0.0398671 0.0172492 0.00728129 0.00615361 3.60602e-05 0.000241758 -6.19786e-12 2.11944e-11 -8.2019e-12 5e-05 1.46608e-10 
23 1 0.0336645 0.0167874 0.00753158 0.00554444 -1.41699e-05 0.000258397 1.1514e-11 4.54829e-11 -1.92271e-11 5e-05 1.46608e-10 
24 1 0.0457285 0.0171118 0.00761323 0.00575616 4.47388e-05 0.000375655 3.2179e-12 3.56298e-12 -2.05636e-12 5e-05 1.46608e-10 
25 1 0.0397824 0.0168782 0.00740508 0.00567444 0.000212948 0.000160862 1.4562e-12 -4.03507e-11 8.41407e-12 5e-05 1.46608e-10 
26 1 0.0455815 0.0164494 0.00778488 0.00556611 -0.000180574 -0.000551967 1.11408e-12 4.10193e-12 8.92542e-14 5e-05 1.46608e-10 
27 1 0.033587 0.0164267 0.00768707 0.00561893 -7.14195e-05 0.000290107 3.34177e-11 3.16297e-11 -2.43914e-11 5e-05 1.46608e-10 
28 1 0.0396291 0.0165873 0.00755334 0.00571196 2.12737e-05 -0.000165972 1.25757e-11 2.91137e-11 -1.84392e-11 5e-05 1.46608e-10 
29 1 0.0396669 0.0163914 0.00772528 0.00564134 0.000196425 3.72369e-05 -1.1451e-10 1.56927e-11 1.18153e-10 5e-05 1.46608e-10 
30 1 0.0401127 0.0175078 0.00720267 0.00624568 1.15581e-05 0.000255837 2.86123e-11 -1.07518e-10 3.73472e-11 5e-05 1.46608e-10 
31 1 0.0397919 0.0173106 0.00725712 0.00618226 6.53885e-05 0.000232913 1.29339e-12 2.4884e-11 -8.49006e-12 5e-05 1.46608e-10 
32 1 0.0398453 0.0171565 0.00731217 0.00620058 8.0051e-05 0.00022847 7.62218e-12 5.50583e-11 -2.16899e-11 5e-05 1.46608e-10 
33 1 0.0455253 0.0161651 0.00786219 0.00558006 0.000143179 0.000487005 9.49681e-13 5.42747e-12 -6.037e-12 5e-05 1.46608e-10 
34 1 0.0396877 0.0168497 0.00742036 0.0056778 2.69894e-05 -0.000168552 -2.98868e-12 -1.99045e-11 1.68478e-11 5e-05 1.46608e-10 
36 1 0.045772 0.0172989 0.00755754 0.00576635 4.30879e-05 0.00037679 1.60441e-12 3.16578e-12 -1.7043e-12 5e-05 1.46608e-10 
37 1 0.0397268 0.0170325 0.00734982 0.00616809 9.29689e-05 0.000222924 3.52225e-12 -1.72934e-11 1.5961e-12 5e-05 1.46608e-10 
38 1 0.0398888 0.0173418 0.0072504 0.00621512 4.53199e-05 0.000241076 -1.72473e-11 1.9517e-10 -7.26508e-11 5e-05 1.46608e-10 
39 1 0.0457068 0.017018 0.00764039 0.005746 -0.00020068 -0.000479231 1.29821e-12 -1.71986e-11 -7.99925e-11 5e-05 1.46608e-10 
41 1 0.0395529 0.0163095 0.00782496 0.00561057 0.000212095 2.72332e-05 7.4502e-12 8.30512e-11 -1.05829e-10 5e-05 1.46608e-10 
42 1 0.0397702 0.0172179 0.007288 0.00618105 6.91506e-05 0.000231542 1.28401e-11 8.07635e-11 -2.71897e-11 5e-05 1.46608e-10 
44 1 0.0399637 0.0172801 0.00727465 0.00623919 4.76078e-05 0.00024043 -1.46829e-10 5.33886e-11 -3.1121e-11 5e-05 1.46608e-10 
45 1 0.0455628 0.0163541 0.00780884 0.00558841 -0.000185172 -0.000553371 -3.71567e-12 5.63434e-12 -1.13951e-12 5e-05 1.46608e-10 
46 1 0.0456203 0.0166396 0.00773688 0.00562991 -0.000194732 -0.000555637 1.59671e-11 5.966e-13 -1.60642e-12 5e-05 1.46608e-10 
47 1 0.03959 0.0164308 0.00767032 0.00569063 0.00018829 5.32255e-05 -1.29867e-11 5.50353e-11 -7.05807e-11 5e-05 1.46608e-10 
48 1 0.0399421 0.0171875 0.00730554 0.00623923 5.26233e-05 0.000239895 -8.40411e-11 3.77051e-11 2.22247e-12 5e-05 1.46608e-10 
49 1 0.0456003 0.0165446 0.00776091 0.00553282 -0.0001732 -0.000550173 1.85967e-11 6.1275e-13 -2.79124e-12 5e-05 1.46608e-10 
50 1 0.0399755 0.0177123 0.00712685 0.00620812 4.58352e-06 0.000254824 1.49566e-11 -1.61917e-10 6.26058e-11 5e-05 1.46608e-10 
51 1 0.0399538 0.0176196 0.00715775 0.00621861 5.32999e-06 0.00025605 -1.01588e-10 -6.05833e-11 2.7035e-11 5e-05 1.46608e-10 
52 1 0.0401183 0.0183625 0.00690961 0.00581178 8.57206e-05 0.000209789 8.98885e-11 2.79948e-10 -5.12405e-11 5e-05 1.46608e-10 
53 1 0.0456633 0.0168289 0.00768865 0.005745 -0.000221777 -0.000561576 3.81306e-12 2.35792e-12 -8.20609e-13 5e-05 1.46608e-10 
54 1 0.0396306 0.0162701 0.00788005 0.00553227 0.000204712 3.33375e-05 1.74443e-10 -8.18959e-11 1.16261e-10 5e-05 1.46608e-10 
55 1 0.0333747 0.0156773 0.00845904 0.0057332 -0.000308867 4.59379e-05 1.36714e-10 -6.78177e-12 5.43451e-13 5e-05 1.46608e-10 
56 1 0.0397485 0.0171251 0.00731894 0.00617649 9.07806e-05 0.000224027 2.70068e-11 -5.85935e-12 5.33766e-12 5e-05 1.46608e-10 
57 1 0.0455442 0.0162588 0.0078328 0.00560509 -0.000188592 -0.000554422 1.37427e-12 4.84704e-12 -5.26047e-13 5e-05 1.46608e-10 
59 1 0.0398778 0.0169096 0.00739827 0.0058068 0.00014137 0.00019305 -1.90921e-11 3.67414e-11 -1.22486e-11 5e-05 1.46608e-10 
60 1 0.0398987 0.0170023 0.00736738 0.00605071 9.54294e-05 0.00021737 -2.99081e-11 3.66085e-11 -1.69786e-11 5e-05 1.46608e-10 
61 1 0.0395717 0.0163701 0.00774768 0.00566718 0.000199366 4.29647e-05 -9.29102e-11 8.73967e-11 -1.3375e-10 5e-05 1.46608e-10 
62 1 0.040007 0.0174653 0.00721289 0.00624376 2.80852e-05 0.00024744 -1.10589e-10 -3.06569e-11 8.36327e-11 5e-05 1.46608e-10 
63 1 0.0399203 0.0170949 0.00733642 0.00619914 6.60142e-05 0.0002326 -1.49027e-11 2.51899e-11 -2.17911e-11 5e-05 1.46608e-10 
64 1 0.0456851 0.0169234 0.00766452 0.00574574 -0.000221913 -0.000561838 2.9209e-12 2.80268e-12 -4.91504e-13 5e-05 1.46608e-10 
65 1 0.0336257 0.0166069 0.00760939 0.00557557 -6.88518e-05 0.000283644 -3.60713e-11 2.66708e-11 -1.94078e-11 5e-05 1.46608e-10 
66 1 0.0336424 0.0162854 0.00777038 0.00557415 -0.00025941 2.92305e-06 6.0172e-11 -3.13987e-11 3.05039e-11 5e-05 1.46608e-10 
67 1 0.0400468 0.0172288 0.00729572 0.00624074 3.40301e-05 0.000246385 -1.40566e-10 5.21968e-11 -2.86444e-11 5e-05 1.46608e-10 
68 1 0.0399321 0.017527 0.00718863 0.00617754 -1.74766e-05 0.000261189 -7.53293e-11 -3.84385e-11 8.16424e-12 5e-05 1.46608e-10 
69 1 0.039802 0.0169713 0.00737395 0.00617247 9.73012e-05 0.000221563 1.33962e-11 -6.68419e-12 1.19869e-12 5e-05 1.46608e-10 
70 1 0.039857 0.0175885 0.00716444 0.00619287 9.80021e-06 0.000252602 8.01956e-11 2.52396e-10 -8.97078e-11 5e-05 1.46608e-10 
71 1 0.0333543 0.0156123 0.00853224 0.00572821 -0.000311063 4.87852e-05 2.60951e-11 -3.38406e-11 3.61914e-11 5e-05 1.46608e-10 
72 1 0.0400287 0.0175579 0.00718201 0.00624186 1.64648e-05 0.000248691 -5.7654e-11 -8.52685e-11 -4.31032e-11 5e-05 1.46608e-10 
73 1 0.0396486 0.0166748 0.00750902 0.00570147 2.31792e-05 -0.00016629 5.13352e-12 1.21005e-11 5.22192e-11 5e-05 1.46608e-10 
74 1 0.0402088 0.0175385 0.00719612 0.00621814 3.89115e-06 0.000255519 4.90052e-11 -7.0206e-11 2.62279e-11 5e-05 1.46608e-10 
76 1 0.0342806 0.0174193 0.00725488 0.00625056 -0.000115128 -4.06648e-05 6.51891e-11 -1.02376e-10 5.5348e-11 5e-05 1.46608e-10 
77 1 0.0401035 0.0187195 0.00687978 0.00588389 0.000105735 -0.000254845 -8.5064e-11 7.8944e-11 -5.38757e-11 5e-05 1.46608e-10 
78 1 0.0334527 0.0159379 0.0081658 0.00543667 -0.0002586 5.54645e-06 -1.01438e-10 -4.99846e-11 5.58436e-11 5e-05 1.46608e-10 
79 1 0.0336856 0.0168772 0.00749295 0.00599271 -0.000167294 0.000346228 -1.46736e-11 -2.05922e-11 6.9415e-12 5e-05 1.46608e-10 
80 1 0.0399656 0.0180517 0.00700998 0.00624177 5.64981e-05 0.00024008 7.56865e-11 7.88093e-11 -2.18877e-11 5e-05 1.46608e-10 
81 1 0.0336064 0.0165168 0.00764823 0.00559387 -6.71557e-05 0.000280952 -4.47111e-11 6.36153e-12 -4.64555e-11 5e-05 1.46608e-10 
82 1 0.0336451 0.016697 0.00757054 0.00558309 6.44953e-05 0.000225355 5.64325e-12 4.37973e-11 -1.90188e-11 5e-05 1.46608e-10 
83 1 0.0335479 0.0162699 0.00780458 0.00556658 -0.000216719 8.90975e-05 1.59689e-11 -5.82357e-12 -3.39324e-11 5e-05 1.46608e-10 
84 1 0.0457937 0.0173924 0.0075297 0.00577143 4.22679e-05 0.000377389 9.4045e-13 3.39935e-12 -3.18746e-13 5e-05 1.46608e-10 
85 1 0.0394443 0.0159566 0.0082749 0.00553669 0.000215206 3.66612e-06 1.50119e-11 6.45994e-11 -5.14225e-11 5e-05 1.46608e-10 
86 1 0.0400188 0.0178975 0.00706509 0.00621206 1.64281e-05 0.000251428 -1.09406e-10 4.89951e-11 -3.02946e-11 5e-05 1.46608e-10 
87 1 0.0399597 0.0168564 0.00741988 0.00566189 -5.83557e-05 0.00025484 -3.99905e-11 5.40284e-11 -2.40537e-11 5e-05 1.46608e-10 
88 1 0.040043 0.0184281 0.0069046 0.00583382 0.000138978 0.000176948 1.20887e-10 2.01852e-10 -1.8872e-10 5e-05 1.46608e-10 
89 1 0.0400602 0.0180832 0.00700307 0.00604771 0.000542358 6.51047e-05 8.52232e-10 -9.96918e-10 3.70406e-10 5e-05 1.46608e-10 
90 1 0.0401348 0.0176011 0.00717157 0.00623039 2.33858e-05 0.000248689 8.19828e-11 -7.32137e-12 1.54392e-11 5e-05 1.46608e-10 
91 1 0.0398787 0.0176811 0.00713355 0.00620204 1.57264e-07 0.000256043 -3.71871e-11 -1.52042e-11 -7.26244e-12 5e-05 1.46608e-10 
92 1 0.0401569 0.0176944 0.00714049 0.00620796 2.1296e-05 0.000249444 4.57415e-11 -2.90663e-11 -3.51606e-12 5e-05 1.46608e-10 
93 1 0.0401742 0.0182083 0.00696486 0.00576174 3.62383e-05 0.000225633 -3.07114e-10 3.17757e-10 -1.28734e-10 5e-05 1.46608e-10 
94 1 0.0400405 0.0179901 0.00703421 0.00624121 3.66708e-05 0.000244894 4.60545e-11 9.6009e-11 4.9054e-12 5e-05 1.46608e-10 
95 1 0.0399439 0.0179591 0.00704086 0.00622553 3.24028e-05 0.00024596 2.15476e-11 1.76075e-10 -3.85469e-11 5e-05 1.46608e-10 
96 1 0.0401154 0.0179284 0.00705848 0.00623171 2.88755e-05 0.000247547 -1.12078e-10 -7.77076e-11 3.61256e-11 5e-05 1.46608e-10 
97 1 0.0338036 0.0169974 0.00744532 0.00604462 -0.000139816 0.000334854 -6.25229e-11 1.59077e-11 -1.96021e-11 5e-05 1.46608e-10 
98 1 0.040083 0.0186217 0.00687493 0.00588154 9.69157e-05 -0.00015811 1.78899e-11 1.64778e-10 3.06781e-11 5e-05 1.46608e-10 
99 1 0.0337072 0.0169669 0.00745438 0.00602625 -9.73191e-05 0.000316848 -3.24215e-12 1.51992e-11 -8.19892e-12 5e-05 1.46608e-10 
100 1 0.0402309 0.0176317 0.00716504 0.00620626 2.06888e-05 0.00024909 7.23863e-11 -4.95483e-11 2.48569e-11 5e-05 1.46608e-10 
101 1 0.0336619 0.0163674 0.00771663 0.00561569 -7.75064e-05 0.000291155 6.56011e-11 8.12301e-12 8.73234e-12 5e-05 1.46608e-10 
102 1 0.0694385 0.0202053 0.00537268 3.8721e-15 4.47077e-15 -7.68308e-14 -3.74997e-22 5.70703e-22 1.67504e-23 5e-05 1.46608e-10 
104 1 0.0337606 0.016818 0.00752247 0.00600611 -0.000144713 0.00033682 2.04904e-11 2.66741e-11 -1.27665e-11 5e-05 1.46608e-10 
105 1 0.0335096 0.0161336 0.00794567 0.00552088 -0.000272266 1.53896e-05 -1.81138e-11 -2.16573e-12 7.80669e-12 5e-05 1.46608e-10 
106 1 0.0339321 0.0172257 0.00735048 0.00604126 -0.00010177 0.000319252 -7.38161e-11 1.73797e-10 -6.67541e-11 5e-05 1.46608e-10 
107 1 0.0334718 0.0160031 0.00809244 0.00547132 -0.000264011 9.71817e-06 -1.56506e-10 -2.63382e-11 4.64917e-11 5e-05 1.46608e-10 
108 1 0.0397434 0.0167025 0.00749255 0.00569237 2.55809e-05 -0.000168926 4.63375e-11 -6.41192e-12 1.52824e-11 5e-05 1.46608e-10 
109 1 0.0399005 0.0177738 0.00710264 0.00620472 -4.00611e-07 0.000256404 -4.82613e-11 -2.38986e-10 7.94621e-11 5e-05 1.46608e-10 
110 1 0.0400797 0.0181765 0.00697187 0.00571816 0.000101826 0.000201479 -2.41341e-10 -2.16563e-10 8.18677e-11 5e-05 1.46608e-10 
111 1 0.0401778 0.0186531 0.00687016 0.00590275 3.03905e-05 -0.000265943 7.71112e-13 2.80436e-10 1.0798e-11 5e-05 1.46608e-10 
112 1 0.0335678 0.0163459 0.00774279 0.00560426 -0.000116709 0.000223823 6.30978e-11 -3.84106e-11 -7.39604e-11 5e-05 1.46608e-10 
113 1 0.0338803 0.0169376 0.00747517 0.00597785 -0.000122789 0.000326078 -1.95872e-12 1.07015e-10 -4.96266e-11 5e-05 1.46608e-10 
115 1 0.0399222 0.0178665 0.00707174 0.00621282 1.58965e-05 0.000250731 -1.41004e-10 -6.74635e-11 -2.00805e-12 5e-05 1.46608e-10 
116 1 0.0398578 0.0168189 0.00743549 0.00569132 0.000125145 9.7243e-05 -1.21613e-11 2.64071e-11 -2.16354e-11 5e-05 1.46608e-10 
117 1 0.0398186 0.0166423 0.00752062 0.00571442 -9.08951e-06 -0.000150215 -2.5759e-11 -4.30167e-11 1.46235e-12 5e-05 1.46608e-10 
118 1 0.0334146 0.0158075 0.00831253 0.00550995 -0.000272599 1.71501e-05 -2.02714e-10 -1.62226e-11 2.64265e-11 5e-05 1.46608e-10 
119 1 0.0400907 0.0174147 0.00723372 0.00625167 3.54447e-05 0.000247844 -2.64746e-11 -8.30572e-11 -5.45459e-11 5e-05 1.46608e-10 
120 1 0.0394794 0.0160669 0.00813435 0.00548275 0.000210649 2.01567e-05 8.32801e-12 9.97761e-11 -1.08617e-10 5e-05 1.46608e-10 
121 1 0.0395922 0.0161489 0.00803448 0.00546539 0.00021468 1.54575e-05 -4.21673e-10 5.36959e-11 -1.16566e-10 5e-05 1.46608e-10 
122 1 0.0401352 0.0180217 0.00702728 0.00616887 0.00082214 -2.82817e-05 1.55498e-09 -8.07928e-10 3.64071e-10 5e-05 1.46608e-10 
123 1 0.0335287 0.0161993 0.00787273 0.00553865 -0.000273808 2.37654e-05 -2.74731e-12 1.0458e-11 2.26475e-11 5e-05 1.46608e-10 
124 1 0.0399851 0.0181447 0.00697888 0.00566647 0.000173453 0.000172413 -7.33236e-11 -5.91584e-10 1.321e-10 5e-05 1.46608e-10 
125 1 0.0396117 0.0162095 0.00795732 0.00544855 0.00021133 1.79476e-05 -9.67233e-11 -7.11689e-12 2.44456e-11 5e-05 1.46608e-10 
126 1 0.0398353 0.0174959 0.00719532 0.00620271 5.05919e-05 0.000239304 -2.42974e-11 -5.13634e-12 1.47711e-11 5e-05 1.46608e-10 
127 1 0.0336241 0.0162192 0.0078448 0.00555401 -0.000287487 3.0516e-05 -8.0051e-12 -5.54504e-11 5.26656e-11 5e-05 1.46608e-10 
128 1 0.040072 0.0177432 0.00712024 0.00620564 1.41006e-05 0.000250914 2.12461e-11 1.53697e-11 2.2158e-11 5e-05 1.46608e-10 
129 1 0.0400989 0.0182695 0.00694073 0.00580652 8.29275e-05 0.000212362 -1.55313e-10 3.18257e-10 -1.72949e-10 5e-05 1.46608e-10 
131 1 0.0337821 0.0169077 0.0074839 0.00601279 -0.000139168 0.000334205 -7.11347e-11 3.43723e-11 -2.6544e-11 5e-05 1.46608e-10 
132 1 0.0400937 0.0178358 0.00708936 0.0062104 1.74838e-05 0.000250123 1.32432e-11 1.17265e-11 -2.85578e-11 5e-05 1.46608e-10 
133 1 0.0396848 0.0164559 0.00765103 0.00568069 0.000133871 -1.51036e-05 4.22923e-11 1.28693e-10 1.99087e-10 5e-05 1.46608e-10 
134 1 0.0400247 0.0171354 0.00732683 0.00623478 3.16191e-05 0.000246623 3.66856e-12 4.83464e-11 -2.19388e-11 5e-05 1.46608e-10 
135 1 0.0397793 0.0164751 0.00762323 0.00570536 0.000178946 7.87763e-05 -2.77121e-11 1.603e-11 3.05583e-11 5e-05 1.46608e-10 
136 1 0.0334339 0.0158726 0.00823919 0.00540906 -0.000255775 3.81266e-06 -2.24257e-10 -1.21294e-11 2.88342e-11 5e-05 1.46608e-10 
137 1 0.0401238 0.018817 0.00688815 0.00575543 0.000130328 -0.000242602 -2.82325e-10 -2.85712e-11 1.83402e-11 5e-05 1.46608e-10 
138 1 0.0401936 0.0183013 0.00693374 0.005789 4.15131e-05 0.000224248 -9.42044e-11 1.28691e-10 -8.09921e-11 5e-05 1.46608e-10 
140 1 0.0399971 0.0178049 0.00709597 0.0062074 9.96855e-06 0.000252747 -1.22455e-10 -7.21251e-11 9.19191e-12 5e-05 1.46608e-10 
141 1 0.0335854 0.016088 0.00799235 0.00551467 -0.000278642 2.35253e-05 -7.426e-11 6.12771e-11 -6.38179e-11 5e-05 1.46608e-10 
142 1 0.033701 0.0165479 0.00763881 0.00558975 -5.78974e-05 0.000280197 -1.31667e-11 8.27041e-12 -1.06748e-11 5e-05 1.46608e-10 
143 1 0.0334911 0.0160683 0.0080191 0.0055074 -0.000269802 1.43788e-05 -1.61916e-10 -2.69685e-11 1.88276e-11 5e-05 1.46608e-10 
146 1 0.0337764 0.0164884 0.00766864 0.00562635 -7.36245e-05 0.000287907 1.09393e-10 -1.95305e-11 -1.71196e-11 5e-05 1.46608e-10 
147 1 0.0333948 0.0157424 0.0083858 0.00568271 -0.000300587 3.9377e-05 1.9006e-11 -3.38302e-11 3.73917e-11 5e-05 1.46608e-10 
148 1 0.00867658 0.0176711 0.00784767 0.00181454 -0.00973819 0.00209579 -4.51404e-11 6.07633e-12 -7.06712e-12 5e-05 1.46608e-10 
149 1 0.0400233 0.0183308 0.00691657 0.00576817 0.000159037 0.000179511 1.20441e-10 2.26064e-10 -1.10313e-10 5e-05 1.46608e-10 
150 1 0.0336817 0.0164577 0.00767775 0.00561926 -6.79031e-05 0.000282681 8.41589e-11 1.57607e-12 -4.72511e-11 5e-05 1.46608e-10 
151 1 0.0340756 0.0169755 0.00746735 0.00605677 -6.737e-05 0.000305141 -1.42465e-10 5.75747e-11 -2.8903e-11 5e-05 1.46608e-10 
153 1 0.0337565 0.0163984 0.00770728 0.00561526 -7.39482e-05 0.000289137 6.72174e-11 -4.23543e-11 2.77324e-11 5e-05 1.46608e-10 
154 1 0.0339106 0.0174433 0.00724883 0.00605299 -0.000414707 -0.000168168 -9.53156e-11 1.39612e-10 2.80954e-10 5e-05 1.46608e-10 
155 1 0.0278787 0.0172838 0.00724982 0.00614237 -0.000338453 0.000155968 3.1016e-12 -1.66461e-12 4.17149e-13 5e-05 1.46608e-10 
156 1 0.0337935 0.0173258 0.00730008 0.0060805 -0.000151647 0.000349894 -5.0275e-11 -6.04357e-11 2.59348e-11 5e-05 1.46608e-10 
157 1 0.0339747 0.0177047 0.00711633 0.00617804 -0.000327241 4.77734e-05 -8.48496e-12 -8.28724e-11 7.14955e-12 5e-05 1.46608e-10 
158 1 0.0339991 0.017061 0.00742615 0.00605666 -0.000143486 0.000338816 -4.46191e-12 -6.9402e-11 2.64898e-11 5e-05 1.46608e-10 
159 1 0.0401892 0.0178655 0.00708308 0.00623555 3.56079e-05 0.000245103 -6.53191e-11 1.22639e-10 -4.63673e-11 5e-05 1.46608e-10 
160 1 0.0338792 0.0176773 0.00712999 0.00615227 -0.000287564 8.57786e-05 -1.04594e-11 -4.19943e-11 1.22204e-11 5e-05 1.46608e-10 
162 1 0.0338265 0.0170868 0.00740693 0.00606213 -0.000139853 0.000336558 -5.06804e-13 6.29228e-11 -2.15996e-11 5e-05 1.46608e-10 
163 1 0.0341 0.0170646 0.00742914 0.00599936 -5.74502e-05 0.000298988 -7.73129e-11 5.90054e-11 -2.98992e-11 5e-05 1.46608e-10 
164 1 0.0341933 0.0177926 0.0070653 0.0061734 -0.000210301 9.27961e-06 8.70167e-11 2.99799e-11 -2.15204e-11 5e-05 1.46608e-10 
165 1 0.0339324 0.0167875 0.00754371 0.00577641 -0.000130642 0.000320241 -7.76787e-11 5.64023e-11 -3.25968e-11 5e-05 1.46608e-10 
166 1 0.0394045 0.0158344 0.00842809 0.0055038 0.00019016 -2.35326e-05 9.23761e-11 3.74068e-11 3.32968e-12 5e-05 1.46608e-10 
167 1 0.0337959 0.0165784 0.00762968 0.00564613 -7.24281e-05 0.000288628 -6.1969e-11 5.2647e-11 -2.61863e-11 5e-05 1.46608e-10 
168 1 0.033932 0.0175308 0.00720539 0.00609362 -0.000280747 0.000128704 -6.78014e-11 3.69553e-11 1.37937e-10 5e-05 1.46608e-10 
169 1 0.0340827 0.0173592 0.00728879 0.00609847 -0.000121513 -3.85865e-05 6.05306e-12 1.02528e-10 -8.55008e-11 5e-05 1.46608e-10 
170 1 0.0340086 0.0174722 0.00723214 0.00610703 -0.000287396 6.05045e-05 -1.39161e-10 -2.88651e-11 1.15002e-10 5e-05 1.46608e-10 
171 1 0.0397987 0.0165549 0.00756493 0.00570488 -1.53299e-05 -0.00014965 1.05808e-11 -9.3588e-11 5.80789e-11 5e-05 1.46608e-10 
172 1 0.0341816 0.0173891 0.00727191 0.00615974 -0.000167983 -1.19025e-05 -2.65755e-10 2.08356e-10 -9.3635e-11 5e-05 1.46608e-10 
173 1 0.0400027 0.0170425 0.00735781 0.00617784 3.5865e-05 0.000243096 -3.49384e-11 -5.88865e-11 1.74279e-11 5e-05 1.46608e-10 
174 1 0.0339005 0.0177638 0.00708468 0.00618897 -0.000307581 6.371e-05 -1.25748e-13 -8.4664e-11 -5.92095e-14 5e-05 1.46608e-10 
175 1 0.0306185 0.0167612 0.00740461 0.00582158 0.000452157 6.53556e-05 -3.03321e-13 1.32444e-12 -5.97812e-13 5e-05 1.46608e-10 
176 1 0.0337719 0.0172361 0.00733863 0.00606538 -0.000145636 0.000342781 -1.37496e-11 -2.09792e-12 5.18664e-11 5e-05 1.46608e-10 
177 1 0.0342524 0.017652 0.00713632 0.00628789 -0.000220515 1.30664e-05 9.10535e-12 -3.87352e-11 3.13418e-11 5e-05 1.46608e-10 
178 1 0.0341492 0.0172922 0.00732197 0.00611737 -9.33747e-05 -4.75439e-05 6.07496e-11 6.74229e-11 -4.94657e-11 5e-05 1.46608e-10 
179 1 0.0278032 0.0173475 0.00723409 0.00613615 -0.0003456 0.000157572 2.50598e-12 4.60722e-14 5.71272e-13 5e-05 1.46608e-10 
180 1 0.0340098 0.0171616 0.00738229 0.00588568 0.000154987 0.000197856 2.6218e-10 -2.60316e-10 1.23744e-10 5e-05 1.46608e-10 
181 1 0.0339868 0.0173854 0.00727781 0.00605425 -0.000361667 -0.000139213 -6.176e-11 2.19444e-10 3.27031e-10 5e-05 1.46608e-10 
182 1 0.0399135 0.0166701 0.00750409 0.0057087 5.96338e-06 -0.000159951 -1.19546e-10 -3.59135e-11 2.87084e-11 5e-05 1.46608e-10 
183 1 0.0341044 0.0174461 0.007244 0.00612519 -0.000209753 1.19368e-05 -3.01028e-10 4.59116e-12 -1.53011e-11 5e-05 1.46608e-10 
184 1 0.0401551 0.0185538 0.00686173 0.00581881 1.58758e-05 -0.000260021 -3.5572e-11 7.58244e-11 -9.30099e-12 5e-05 1.46608e-10 
185 1 0.033815 0.0174155 0.00726149 0.00609046 -0.000163217 0.000340148 3.6431e-11 -7.83722e-11 5.7885e-11 5e-05 1.46608e-10 
186 1 0.0338467 0.0171773 0.00736949 0.00606479 -0.00014173 0.000338036 1.06653e-11 8.22517e-11 1.19136e-11 5e-05 1.46608e-10 
187 1 0.0399346 0.0167593 0.00745885 0.00588004 0.00022518 -0.000272877 -4.70906e-12 3.27193e-11 -1.10831e-11 5e-05 1.46608e-10 
188 1 0.0401548 0.0181151 0.00699604 0.00569529 3.23512e-05 0.000223943 -2.99327e-10 6.23263e-11 -1.89859e-11 5e-05 1.46608e-10 
189 1 0.0397045 0.0165319 0.00758912 0.00569292 6.45541e-05 -9.95465e-05 -4.58218e-11 -2.64371e-12 -5.15219e-12 5e-05 1.46608e-10 
190 1 0.0343062 0.0175057 0.00721029 0.00628385 -0.000150064 -2.29643e-05 5.4751e-12 -1.86823e-11 1.19371e-11 5e-05 1.46608e-10 
191 1 0.0401435 0.0189147 0.00689657 0.00562328 0.000155536 -0.00023457 -4.98371e-11 -2.36905e-10 -2.43299e-11 5e-05 1.46608e-10 
192 1 0.0338888 0.017355 0.00729151 0.00610197 -0.000146103 0.000340203 3.04551e-11 -5.64522e-11 -5.53859e-12 5e-05 1.46608e-10 
193 1 0.0400767 0.0169799 0.00738235 0.00617747 3.63162e-05 0.000242686 3.57098e-11 5.5978e-13 1.36169e-12 5e-05 1.46608e-10 
194 1 0.0337203 0.016638 0.00759997 0.00556393 -5.47652e-05 0.000277494 -1.29311e-10 4.89265e-11 -2.08348e-11 5e-05 1.46608e-10 
195 1 0.0340299 0.0175591 0.00718736 0.00614785 -0.00028626 5.43873e-05 7.97352e-11 1.69636e-12 -6.7805e-11 5e-05 1.46608e-10 
196 1 0.0332931 0.0154173 0.00875183 0.00567167 -0.000303853 4.22474e-05 -1.87531e-10 5.13145e-11 -4.88272e-11 5e-05 1.46608e-10 
197 1 0.0339218 0.0178507 0.00703992 0.00620347 -0.00031468 6.10716e-05 -5.23671e-11 -1.18092e-10 1.05187e-11 5e-05 1.46608e-10 
198 1 0.0337288 0.0170567 0.00741577 0.00603352 -0.000144158 0.000338313 -1.96077e-11 -1.49275e-11 1.34155e-11 5e-05 1.46608e-10 
199 1 0.0338579 0.0175915 0.00717677 0.00612127 -0.000256173 0.000137029 -7.39023e-11 -1.78107e-10 -2.02779e-10 5e-05 1.46608e-10 
200 1 0.0337397 0.0167281 0.00756113 0.00578161 -9.73441e-05 0.000305712 -6.50786e-11 4.06783e-11 -1.64457e-11 5e-05 1.46608e-10 
201 1 0.0342207 0.0182191 0.00695588 0.0057044 -0.000207128 3.86551e-05 -2.01165e-11 3.21914e-11 2.74789e-11 5e-05 1.46608e-10 
203 1 0.0400548 0.0168868 0.00741338 0.00573852 -0.000279463 0.000333148 -6.39355e-11 9.45609e-11 -3.1706e-11 5e-05 1.46608e-10 
204 1 0.0338584 0.0168479 0.0075137 0.00582861 -9.73603e-05 0.000307901 1.05721e-10 8.65278e-11 -3.40432e-11 5e-05 1.46608e-10 
205 1 0.0339426 0.0179376 0.00699512 0.00610785 -0.00029775 5.48569e-05 3.36771e-11 -1.22213e-10 7.05192e-11 5e-05 1.46608e-10 
206 1 0.0339534 0.0176175 0.00716043 0.00613301 -0.000302513 8.17538e-05 -1.23106e-11 -1.06634e-10 -7.32775e-11 5e-05 1.46608e-10 
207 1 0.0337379 0.0163137 0.00775706 0.0055814 -0.000165329 0.000124249 2.22681e-11 -4.49019e-11 5.69344e-11 5e-05 1.46608e-10 
208 1 0.0338365 0.0175036 0.00721941 0.00609748 -0.000206367 0.000241933 -2.9669e-11 -1.9994e-10 -1.45553e-10 5e-05 1.46608e-10 
209 1 0.0278249 0.0174426 0.00721228 0.00612694 -0.000343503 0.000156934 1.88012e-13 -1.56789e-12 4.60032e-13 5e-05 1.46608e-10 
210 1 0.0394252 0.0158954 0.00835169 0.00550295 0.000192648 -2.25075e-05 7.28369e-11 5.14327e-11 -5.24103e-11 5e-05 1.46608e-10 
211 1 0.0401353 0.0184562 0.00687819 0.00586089 9.51683e-05 0.00021014 -4.52465e-11 8.14161e-11 -6.02852e-11 5e-05 1.46608e-10 
212 1 0.034116 0.0171552 0.00738994 0.00608631 -7.61544e-05 0.000306137 -9.21194e-11 3.94913e-11 -4.57312e-11 5e-05 1.46608e-10 
213 1 0.0400988 0.0170729 0.00735134 0.0062132 3.42009e-06 0.000255608 -1.96201e-11 -4.71886e-11 1.60253e-11 5e-05 1.46608e-10 
214 1 0.040004 0.0182378 0.0069477 0.00568266 0.000184856 0.000169993 -6.94177e-11 1.86477e-10 -1.00186e-10 5e-05 1.46608e-10 
215 1 0.0339215 0.0171173 0.00739779 0.00606157 -0.000140991 0.000337088 4.5832e-11 6.07012e-11 -3.4465e-11 5e-05 1.46608e-10 
216 1 0.0339759 0.0169678 0.00746619 0.00606492 -0.000122251 0.000329834 -1.13073e-10 6.66875e-11 -2.84623e-11 5e-05 1.46608e-10 
217 1 0.0398382 0.01673 0.00747669 0.00570507 3.94698e-05 -6.95947e-05 -2.29384e-11 8.44536e-12 -9.22504e-12 5e-05 1.46608e-10 
218 1 0.0340819 0.0177444 0.00709172 0.00624167 -0.000277954 4.27688e-05 4.37682e-11 -2.69584e-11 6.26343e-12 5e-05 1.46608e-10 
219 1 0.0400629 0.0185245 0.0068869 0.00586121 0.000121534 5.99237e-05 -1.01428e-11 1.50525e-10 -1.40782e-10 5e-05 1.46608e-10 
220 1 0.0339013 0.0170274 0.00743654 0.0060569 -0.000138856 0.000336381 -1.40266e-11 8.73818e-11 -5.27076e-11 5e-05 1.46608e-10 
221 1 0.0276589 0.0167354 0.00750289 0.00556974 -0.000268073 6.50242e-05 2.19831e-11 -1.75282e-13 8.57597e-12 5e-05 1.46608e-10 
222 1 0.0397238 0.0166151 0.00753699 0.00570375 3.28267e-05 -0.000147809 -4.53372e-11 -2.80721e-11 -2.84319e-11 5e-05 1.46608e-10 
223 1 0.0339966 0.0172979 0.00732527 0.00612837 -0.000320189 -0.000107794 4.55597e-11 5.90132e-11 -1.69683e-10 5e-05 1.46608e-10 
224 1 0.0337503 0.0171464 0.0073772 0.0060472 -0.000145393 0.000338692 -3.8573e-11 -2.18802e-11 2.6222e-11 5e-05 1.46608e-10 
225 1 0.0401469 0.0172639 0.00728779 0.00622549 9.14242e-06 0.000254056 -1.43126e-10 1.25588e-10 -4.63622e-11 5e-05 1.46608e-10 
226 1 0.0339541 0.0168772 0.00750516 0.00592721 -0.000166801 0.00034314 -7.21276e-11 5.7621e-11 -2.37814e-11 5e-05 1.46608e-10 
227 1 0.0277173 0.0169667 0.00732135 0.00560343 -0.000232401 0.000124677 6.80959e-12 -6.04099e-12 -6.91742e-12 5e-05 1.46608e-10 
228 1 0.0507861 0.0189683 0.00558458 -5.33859e-15 -1.91158e-14 -2.87013e-13 8.63693e-23 2.06278e-23 -2.89513e-24 5e-05 1.46608e-10 
229 1 0.0335476 0.0159575 0.00813912 0.00545586 -0.000270791 1.78687e-05 -6.36102e-11 9.37649e-11 -1.04274e-10 5e-05 1.46608e-10 
230 1 0.033979 0.0181216 0.00692621 0.00571682 -0.00022465 3.5958e-05 -3.00162e-11 -8.25414e-11 1.17274e-11 5e-05 1.46608e-10 
231 1 0.197479 0.018695 0.00523156 -1.08006e-15 -2.69828e-14 1.45243e-13 -1.66415e-22 4.3427e-24 0 5e-05 1.46608e-10 
232 1 0.0335668 0.0160227 0.00806577 0.00550987 -0.000276912 2.17805e-05 -6.35335e-11 4.609e-11 -4.17786e-11 5e-05 1.46608e-10 
233 1 0.0338366 0.0167583 0.00755224 0.00568375 -7.25565e-05 0.000290367 6.67043e-11 8.40329e-11 -3.57474e-11 5e-05 1.46608e-10 
234 1 0.0393623 0.0157124 0.0085809 0.00591384 0.000143897 4.66403e-05 5.88983e-12 -2.44313e-11 1.81429e-11 5e-05 1.46608e-10 
235 1 0.0341493 0.0184736 0.00702181 0.00561756 -0.000239985 2.88097e-05 1.37981e-11 -1.27973e-11 -1.0909e-11 5e-05 1.46608e-10 
236 1 0.0342045 0.0183146 0.00698079 0.00567988 -0.000214839 3.65218e-05 -5.65678e-12 4.27612e-11 1.32269e-11 5e-05 1.46608e-10 
237 1 0.034109 0.0182827 0.00697081 0.0056637 -0.00026127 2.48702e-05 1.14537e-10 -1.37403e-11 -3.98652e-13 5e-05 1.46608e-10 
238 1 0.0278466 0.0175378 0.00719048 0.00611775 -0.00034138 0.000156343 -2.89234e-13 -2.5389e-12 2.16412e-13 5e-05 1.46608e-10 
239 1 0.0275606 0.0163583 0.00781597 0.00553189 -0.000261707 6.07643e-05 -1.20136e-10 3.19981e-11 -2.19696e-11 5e-05 1.46608e-10 
240 1 0.0276389 0.01666 0.00756548 0.00557213 -0.000268751 6.50689e-05 5.92236e-12 -2.02609e-11 2.52683e-11 5e-05 1.46608e-10 
241 1 0.0275802 0.0164337 0.00775334 0.00554692 -0.000264429 6.28082e-05 3.81701e-11 5.39048e-11 -3.81268e-11 5e-05 1.46608e-10 
242 1 0.0278569 0.0171885 0.00727164 0.00614603 -0.000347983 0.000158187 -2.77023e-12 1.31583e-12 -6.42113e-13 5e-05 1.46608e-10 
243 1 0.0275411 0.0162828 0.0078786 0.00551608 -0.00026089 6.03253e-05 1.22355e-11 -9.43148e-12 6.60985e-12 5e-05 1.46608e-10 
244 1 0.0275998 0.0165092 0.00769071 0.00554886 -0.000268498 6.56312e-05 6.84357e-11 -3.31802e-12 8.16947e-12 5e-05 1.46608e-10 
245 1 0.0278683 0.0176329 0.00716867 0.00610853 -0.000339334 0.00015575 -2.75357e-13 -1.7845e-12 6.99543e-13 5e-05 1.46608e-10 
246 1 0.0276798 0.016811 0.00744081 0.0055862 -0.000260954 8.09782e-05 -1.88975e-11 1.31976e-11 -5.23373e-12 5e-05 1.46608e-10 
247 1 0.0341257 0.0175329 0.00719923 0.00616446 -0.000214856 1.35618e-05 1.12692e-10 -5.59555e-11 3.50251e-11 5e-05 1.46608e-10 