ITEM: TIMESTEP
26200000
ITEM: NUMBER OF ATOMS
212
ITEM: BOX BOUNDS ff ff ff
-0.02 0.43
-0.02 0.06
-0.02 0.07
ITEM: ATOMS id type x y z vx vy vz fx fy fz radius mass 
1 1 0.165818 0.0168091 0.00743056 0.0058532 5.93217e-05 -8.82451e-05 -3.24592e-11 -2.79171e-11 -1.31184e-11 5e-05 1.46608e-10 
2 1 0.165904 0.018082 0.0071292 0.00548872 0.000111594 -9.37203e-05 -7.48644e-11 -1.67066e-10 4.61036e-11 5e-05 1.46608e-10 
3 1 0.153819 0.017675 0.00744525 0.00616167 -0.000381401 -0.000292721 -7.30576e-11 -3.19065e-10 9.1192e-11 5e-05 1.46608e-10 
4 1 0.16568 0.0166155 0.00753917 0.00590349 0.000252158 -0.000189705 4.09167e-11 -1.56888e-10 2.21718e-10 5e-05 1.46608e-10 
5 1 0.165798 0.0167139 0.00745409 0.00578041 6.74768e-05 -5.69079e-05 9.29686e-11 -1.00706e-10 5.32408e-11 5e-05 1.46608e-10 
6 1 0.171354 0.0158835 0.00840117 0.00593488 0.000560325 0.000837217 6.96189e-13 1.07147e-12 -4.16958e-13 5e-05 1.46608e-10 
7 1 0.165428 0.0161238 0.00817816 0.00597615 -2.45103e-05 0.000174333 1.79931e-10 -3.13745e-10 2.824e-10 5e-05 1.46608e-10 
8 1 0.165665 0.0165553 0.0076178 0.00596319 9.65215e-06 0.00012118 -1.18309e-10 -1.61972e-10 7.24578e-11 5e-05 1.46608e-10 
9 1 0.171586 0.0168456 0.00795227 0.00537671 -0.000585495 0.00131852 5.19742e-12 8.39841e-12 -2.15866e-12 5e-05 1.46608e-10 
10 1 0.165458 0.0161831 0.00810314 0.00599975 -4.12441e-05 0.000169894 -2.39194e-10 -2.33476e-10 2.88317e-10 5e-05 1.46608e-10 
11 1 0.165469 0.0162425 0.00802351 0.00601865 -3.86811e-05 0.000181792 1.40411e-11 -1.52234e-10 3.05076e-10 5e-05 1.46608e-10 
13 1 0.165865 0.017891 0.00717457 0.0054839 0.000110123 -8.72397e-05 -6.10838e-11 -8.0535e-11 2.22695e-11 5e-05 1.46608e-10 
15 1 0.165571 0.0165476 0.00765262 0.00553429 -0.00102445 -0.00107819 3.03602e-11 -1.08501e-10 -3.77014e-11 5e-05 1.46608e-10 
17 1 0.165789 0.0174929 0.00736413 0.00560481 -3.47527e-05 -5.94708e-05 2.11437e-11 -2.97338e-10 1.60947e-10 5e-05 1.46608e-10 
18 1 0.171634 0.0170218 0.00787117 0.00641725 -0.000774842 0.00161249 4.92999e-12 8.54931e-12 -2.2792e-12 5e-05 1.46608e-10 
19 1 0.16528 0.015716 0.00872746 0.00572848 0.000175319 0.000316782 -1.05672e-10 -8.63616e-11 3.12662e-11 5e-05 1.46608e-10 
20 1 0.166055 0.0179534 0.00715772 0.00544455 6.32437e-05 -7.74342e-05 -8.0931e-11 -1.78578e-10 5.26359e-11 5e-05 1.46608e-10 
21 1 0.165301 0.0157737 0.00864851 0.00576994 0.000150902 0.000348671 -1.27152e-10 -5.04723e-11 -1.16138e-10 5e-05 1.46608e-10 
22 1 0.165541 0.0163551 0.00787754 0.00612748 -5.7465e-05 0.000215309 -2.91461e-11 4.46583e-11 -8.93146e-11 5e-05 1.46608e-10 
23 1 0.159869 0.0178974 0.00706514 0.00555886 -9.91255e-05 0.000379785 -1.94793e-11 -2.19827e-11 4.48179e-12 5e-05 1.46608e-10 
24 1 0.171564 0.016757 0.00799358 0.00540215 -0.000588377 0.00132467 -2.4008e-12 1.26841e-11 -3.92696e-12 5e-05 1.46608e-10 
25 1 0.165862 0.0174445 0.00727966 0.00559961 2.90659e-05 -7.06257e-05 8.40276e-11 7.7905e-11 2.39485e-11 5e-05 1.46608e-10 
26 1 0.171456 0.0163067 0.00820371 0.00573911 0.000262687 0.000952587 1.73399e-13 1.01896e-12 -4.89094e-13 5e-05 1.46608e-10 
28 1 0.16598 0.0180177 0.00714345 0.00546789 8.71789e-05 -8.41229e-05 -1.38468e-10 -2.22998e-10 2.88241e-11 5e-05 1.46608e-10 
29 1 0.165838 0.0169044 0.00740746 0.00587539 6.82963e-05 -9.68169e-05 -7.67486e-11 7.51561e-11 4.64585e-11 5e-05 1.46608e-10 
30 1 0.165885 0.0179865 0.00715189 0.0054805 9.37563e-05 -8.54214e-05 2.06151e-11 -2.5829e-11 1.1784e-11 5e-05 1.46608e-10 
31 1 0.165551 0.0164759 0.00771933 0.00618638 -3.92505e-05 0.00020414 -4.90618e-11 9.92312e-11 -1.52891e-10 5e-05 1.46608e-10 
32 1 0.165781 0.0170624 0.00737065 0.00579986 -2.32065e-05 -7.63376e-05 1.74302e-10 -6.47238e-11 1.78481e-11 5e-05 1.46608e-10 
33 1 0.171383 0.0160051 0.00834445 0.00587758 0.00047041 0.000872419 5.45197e-13 1.05112e-12 -4.35131e-13 5e-05 1.46608e-10 
34 1 0.165767 0.017413 0.00728816 0.00555742 -2.17193e-05 -5.96098e-05 2.0046e-11 -7.08987e-12 -1.10376e-12 5e-05 1.46608e-10 
36 1 0.171607 0.0169341 0.00791096 0.00535183 -0.000582567 0.00131213 1.69219e-12 9.99139e-12 -8.06793e-12 5e-05 1.46608e-10 
37 1 0.165647 0.0164955 0.0076958 0.00617556 -3.78062e-06 0.0001558 -3.796e-11 -1.2865e-11 7.78475e-12 5e-05 1.46608e-10 
38 1 0.165759 0.016577 0.00759182 0.0059177 0.000113821 4.93451e-05 -2.51562e-10 -4.42395e-11 1.7248e-12 5e-05 1.46608e-10 
39 1 0.171543 0.0166685 0.0080349 0.00542738 -0.000591516 0.00133107 3.4473e-12 9.08899e-12 -5.13933e-12 5e-05 1.46608e-10 
41 1 0.165343 0.0158891 0.0084906 0.0058347 0.000147207 0.000395097 1.73162e-10 8.66853e-11 -2.60247e-10 5e-05 1.46608e-10 
42 1 0.165493 0.0163026 0.0079472 0.00604255 -4.78532e-05 0.000173365 2.98592e-10 -1.10038e-10 2.52663e-10 5e-05 1.46608e-10 
44 1 0.165944 0.0181429 0.00719833 0.00547608 0.000132104 -9.05586e-05 1.77427e-12 1.42596e-10 -3.19313e-11 5e-05 1.46608e-10 
45 1 0.171434 0.0162171 0.00824555 0.00577969 0.000322015 0.000929886 2.83522e-13 1.02592e-12 -4.71818e-13 5e-05 1.46608e-10 
47 1 0.165388 0.0160047 0.00833351 0.00587699 -4.45663e-05 0.000195061 -5.04474e-10 1.21344e-10 3.4625e-11 5e-05 1.46608e-10 
49 1 0.171478 0.0163987 0.0081608 0.00569111 0.00017535 0.000988231 6.12785e-14 1.00603e-12 -5.03692e-13 5e-05 1.46608e-10 
50 1 0.165996 0.0176671 0.00722573 0.00546126 0.000107434 -8.79603e-05 -1.60405e-10 -9.44057e-11 2.1167e-11 5e-05 1.46608e-10 
51 1 0.160021 0.0181472 0.0070037 0.00559327 -7.14861e-05 0.000374256 5.49339e-11 1.1593e-10 -3.1158e-11 5e-05 1.46608e-10 
52 1 0.16613 0.0178889 0.00717201 0.00542577 4.15273e-05 -7.26663e-05 3.9968e-10 -4.96228e-11 -4.25277e-13 5e-05 1.46608e-10 
53 1 0.171499 0.0164872 0.00811949 0.00566588 0.000178451 0.000981864 -4.79975e-14 1.01854e-12 -5.30825e-13 5e-05 1.46608e-10 
54 1 0.166052 0.0175074 0.00726266 0.00556354 0.00012757 -9.34921e-05 1.35968e-10 -4.17805e-11 -3.43548e-12 5e-05 1.46608e-10 
55 1 0.15985 0.0178027 0.00709082 0.0055127 -9.10031e-05 0.000374442 7.1195e-11 1.01717e-10 -3.32413e-11 5e-05 1.46608e-10 
56 1 0.165822 0.0172534 0.00732507 0.00535919 -0.000169697 -2.33625e-05 -5.85374e-11 2.78925e-11 9.46517e-12 5e-05 1.46608e-10 
57 1 0.171412 0.0161251 0.00828846 0.00582183 0.000385032 0.00090559 3.96632e-13 1.0354e-12 -4.55197e-13 5e-05 1.46608e-10 
59 1 0.165918 0.0172855 0.00731641 0.00572006 9.2965e-05 -8.69653e-05 6.01771e-11 -1.57436e-12 -7.8182e-12 5e-05 1.46608e-10 
60 1 0.166032 0.0174118 0.00728537 0.00567419 0.000154986 -0.000101129 -4.96324e-11 1.84856e-10 -6.0443e-11 5e-05 1.46608e-10 
61 1 0.165365 0.0159468 0.00841188 0.00580018 9.41512e-05 0.000323903 -4.71374e-10 1.24503e-09 7.35497e-10 5e-05 1.46608e-10 
62 1 0.165888 0.017956 0.0072471 0.00544841 6.07119e-05 -9.67247e-05 3.69639e-11 5.4723e-11 2.56759e-11 5e-05 1.46608e-10 
63 1 0.165623 0.016744 0.00744864 0.00589607 0.000275439 -0.000149459 4.8257e-11 5.30674e-11 -8.75082e-12 5e-05 1.46608e-10 
64 1 0.171521 0.0165767 0.00807775 0.00562019 9.76266e-05 0.00101461 -1.56385e-13 1.00998e-12 -5.46961e-13 5e-05 1.46608e-10 
65 1 0.159613 0.0167252 0.00755416 0.00570317 -0.000245053 -0.000159163 1.59814e-10 -6.35062e-11 -8.29053e-11 5e-05 1.46608e-10 
66 1 0.159531 0.0163732 0.0077256 0.00555786 -0.000263428 -0.000137981 2.86754e-10 1.11165e-10 -1.10761e-10 5e-05 1.46608e-10 
67 1 0.165964 0.018368 0.00706123 0.00582884 -4.79961e-05 -5.6348e-05 -2.45338e-10 1.59343e-09 -3.74894e-10 5e-05 1.46608e-10 
69 1 0.165858 0.0169996 0.00738457 0.00588069 7.00657e-05 -0.000100502 -2.18124e-11 -9.66551e-12 1.77791e-11 5e-05 1.46608e-10 
70 1 0.166127 0.017443 0.00727695 0.00566241 0.000246069 -0.00012358 6.59972e-11 1.59097e-10 -2.72505e-11 5e-05 1.46608e-10 
72 1 0.165775 0.0166369 0.00751332 0.00579821 0.000101003 1.00952e-05 -4.04786e-11 -2.02737e-11 1.28249e-10 5e-05 1.46608e-10 
73 1 0.165665 0.0169343 0.00740277 0.00588757 0.000280402 -0.00015006 2.95336e-11 1.32606e-11 -9.2347e-12 5e-05 1.46608e-10 
74 1 0.16604 0.0183037 0.00707549 0.00586255 -2.57036e-05 -6.16388e-05 -2.15089e-10 2.96128e-11 -3.59842e-11 5e-05 1.46608e-10 
76 1 0.145405 0.0205718 0.00539992 7.43076e-15 9.12127e-15 -2.35014e-13 -1.75963e-22 2.45711e-22 3.30872e-24 5e-05 1.46608e-10 
77 1 0.166019 0.0182084 0.00709813 0.0056673 2.10947e-05 -7.10998e-05 -2.8936e-10 -1.48709e-11 -1.31499e-11 5e-05 1.46608e-10 
78 1 0.159887 0.0173085 0.00735513 0.00557558 -0.00024664 -0.000165077 2.25015e-11 -1.7374e-11 3.65735e-11 5e-05 1.46608e-10 
80 1 0.165985 0.0184632 0.00703858 0.00586415 -0.000169111 -2.77103e-05 -3.96212e-11 -1.90679e-10 4.52273e-11 5e-05 1.46608e-10 
81 1 0.159809 0.0171928 0.00732222 0.0055064 -0.000290712 -0.000129748 2.73967e-10 8.09242e-11 -8.28548e-11 5e-05 1.46608e-10 
82 1 0.159769 0.0170158 0.00740832 0.00574775 -0.000305533 -0.000135806 9.48864e-12 -2.35407e-10 1.06456e-10 5e-05 1.46608e-10 
84 1 0.17166 0.0171096 0.00783121 0.00649616 -0.000788846 0.00163456 5.03445e-12 8.88071e-12 -4.21873e-12 5e-05 1.46608e-10 
85 1 0.165322 0.0158314 0.00856955 0.00582083 0.000121915 0.000371745 3.25194e-10 1.90991e-10 -9.42657e-11 5e-05 1.46608e-10 
86 1 0.165921 0.0177312 0.00721152 0.00547741 0.000131766 -9.35559e-05 -5.74355e-11 -6.67167e-11 1.88102e-11 5e-05 1.46608e-10 
87 1 0.165806 0.0176041 0.00724273 0.00541443 1.06938e-05 -6.55208e-05 -2.45975e-11 1.15369e-10 1.79503e-11 5e-05 1.46608e-10 
88 1 0.166016 0.0177625 0.00720306 0.00547744 9.35504e-05 -8.50284e-05 -2.83227e-10 -1.10804e-10 5.54036e-12 5e-05 1.46608e-10 
90 1 0.165938 0.0173808 0.00729375 0.00566059 9.00046e-05 -8.6763e-05 -2.91441e-11 -1.42791e-11 1.7929e-11 5e-05 1.46608e-10 
91 1 0.165788 0.0173086 0.00740132 0.00557586 2.75758e-05 -7.62502e-05 -3.82168e-11 5.93234e-11 2.04067e-11 5e-05 1.46608e-10 
92 1 0.166035 0.0178579 0.00718039 0.00545505 8.00949e-05 -8.19234e-05 -3.57222e-10 -1.86944e-10 6.43602e-11 5e-05 1.46608e-10 
93 1 0.171686 0.0171976 0.007791 0.00577492 -0.00060684 0.00140476 -4.76386e-12 -2.21521e-11 1.04041e-11 5e-05 1.46608e-10 
94 1 0.165898 0.0171901 0.00733907 0.00578174 8.52667e-05 -8.75951e-05 8.74393e-11 -2.59082e-11 -1.50519e-11 5e-05 1.46608e-10 
95 1 0.165685 0.0170309 0.00737949 0.00583489 5.29165e-05 -0.000101599 5.01697e-11 2.56411e-10 -3.10887e-11 5e-05 1.46608e-10 
96 1 0.165706 0.017127 0.00735634 0.00580344 -2.43748e-05 -7.25554e-05 5.11238e-11 2.5183e-11 3.55638e-11 5e-05 1.46608e-10 
98 1 0.165878 0.0170948 0.0073618 0.0058397 7.6398e-05 -9.46114e-05 8.50074e-11 -3.74712e-11 5.48462e-11 5e-05 1.46608e-10 
99 1 0.159923 0.0173083 0.00726167 0.00564516 -0.000277368 -0.00014007 1.5344e-10 -1.12507e-10 7.13758e-11 5e-05 1.46608e-10 
101 1 0.159772 0.0174301 0.0072111 0.0056147 -0.000294445 -0.000138401 -2.58663e-11 -1.70793e-10 5.74561e-11 5e-05 1.46608e-10 
102 1 0.0694385 0.0202053 0.00537268 3.95216e-15 4.44329e-15 -7.68283e-14 1.67315e-21 -6.44839e-22 4.90105e-23 5e-05 1.46608e-10 
104 1 0.0249839 0.0195037 0.00542543 -3.58895e-15 -5.78372e-16 5.85127e-14 1.03398e-25 -4.27e-24 0 5e-05 1.46608e-10 
106 1 0.153773 0.0174812 0.00746284 0.00617999 -0.000393154 -0.00030706 -2.47104e-10 1.0496e-10 1.12019e-10 5e-05 1.46608e-10 
107 1 0.159694 0.0170773 0.00738271 0.00574834 -0.000303721 -0.000136146 3.4999e-11 8.71699e-11 -3.54959e-11 5e-05 1.46608e-10 
108 1 0.165714 0.017095 0.0074508 0.00582574 -9.66321e-07 -6.28955e-05 -8.47183e-11 -1.68716e-10 4.34309e-11 5e-05 1.46608e-10 
110 1 0.165973 0.0171254 0.00735343 0.00582127 0.000119873 -9.55541e-05 -6.10064e-11 6.79891e-11 -3.55027e-11 5e-05 1.46608e-10 
111 1 0.159848 0.0173693 0.00723635 0.00562557 -0.000286494 -0.000137646 1.60072e-10 -9.34201e-11 3.59986e-12 5e-05 1.46608e-10 
112 1 0.159633 0.0168133 0.00751129 0.0057129 -0.0002403 -0.000164395 -3.76258e-11 9.08808e-11 5.40539e-11 5e-05 1.46608e-10 
115 1 0.165746 0.0173175 0.00731085 0.00555645 4.14611e-05 -7.08733e-05 -5.72677e-11 -3.1707e-11 1.01229e-11 5e-05 1.46608e-10 
116 1 0.165993 0.0172208 0.00733076 0.00576126 0.000159481 -0.000103857 8.72674e-11 1.04226e-10 -1.78778e-11 5e-05 1.46608e-10 
117 1 0.165957 0.0174762 0.00727108 0.00558379 9.22584e-05 -8.6858e-05 -6.94571e-11 -8.39381e-11 8.11729e-12 5e-05 1.46608e-10 
118 1 0.159733 0.0172537 0.00729691 0.00553902 -0.00028927 -0.000133332 1.81926e-10 -3.88247e-11 2.19011e-12 5e-05 1.46608e-10 
119 1 0.166005 0.0185585 0.00701594 0.00591553 -0.000149766 -3.29627e-05 -3.79113e-11 -1.97839e-10 4.79153e-11 5e-05 1.46608e-10 
120 1 0.16526 0.0156583 0.00880642 0.00571067 0.00020126 0.000277972 4.15353e-11 1.25659e-10 -1.40144e-10 5e-05 1.46608e-10 
121 1 0.165933 0.016935 0.00739883 0.0059027 9.11077e-05 -0.000104533 2.91351e-12 -1.04144e-10 2.36611e-11 5e-05 1.46608e-10 
122 1 0.165977 0.0175717 0.0072484 0.00549079 0.000108989 -9.03387e-05 -5.18004e-11 -1.08262e-10 1.59035e-11 5e-05 1.46608e-10 
124 1 0.165944 0.0182727 0.00708387 0.005817 0.000120924 -9.82952e-05 6.25279e-10 -4.68261e-10 1.5067e-10 5e-05 1.46608e-10 
125 1 0.165697 0.0166783 0.00746324 0.00590467 0.000296634 -0.000156301 -1.70814e-11 -4.56163e-11 8.91972e-11 5e-05 1.46608e-10 
126 1 0.165586 0.016594 0.00756525 0.00583205 0.000348201 -0.000314349 4.34024e-11 -3.53209e-11 1.3672e-10 5e-05 1.46608e-10 
127 1 0.159729 0.017248 0.00739663 0.00553672 -0.000240933 -0.000128264 6.24134e-12 -8.95699e-11 -2.20712e-11 5e-05 1.46608e-10 
128 1 0.16594 0.0178268 0.0071888 0.00548189 0.00010032 -8.75146e-05 -1.43188e-10 -4.66212e-11 5.19878e-12 5e-05 1.46608e-10 
129 1 0.159909 0.0180865 0.00701386 0.00558192 -7.34687e-05 0.000372942 -2.15939e-11 -3.6687e-11 1.92035e-11 5e-05 1.46608e-10 
131 1 0.159906 0.0176461 0.00713887 0.00551824 -6.94126e-05 0.000369191 5.27736e-11 -9.39176e-11 3.53645e-11 5e-05 1.46608e-10 
132 1 0.165787 0.0175087 0.0072654 0.00555619 -1.73439e-05 -5.6973e-05 -7.1112e-12 -1.54877e-10 8.98039e-11 5e-05 1.46608e-10 
133 1 0.166107 0.0173472 0.0072997 0.0056973 0.000151937 -0.000101597 1.87096e-10 3.72574e-10 -8.24965e-11 5e-05 1.46608e-10 
134 1 0.165885 0.0178567 0.00726639 0.00551618 0.000129278 -8.04728e-05 1.4378e-10 1.04744e-10 5.62106e-11 5e-05 1.46608e-10 
135 1 0.165644 0.0168392 0.00742571 0.00589394 0.000278563 -0.000149945 -5.24844e-13 1.89522e-11 -1.36935e-11 5e-05 1.46608e-10 
136 1 0.159903 0.01722 0.00730463 0.00553742 -0.000297024 -0.000129336 3.04765e-11 -1.90854e-10 5.96736e-11 5e-05 1.46608e-10 
137 1 0.16596 0.0179222 0.00716613 0.0054689 8.55222e-05 -8.17743e-05 -1.31091e-10 -1.24047e-10 3.52104e-11 5e-05 1.46608e-10 
138 1 0.165726 0.0172222 0.0073335 0.00554706 3.55572e-05 -7.24031e-05 1.77347e-12 -6.77203e-12 1.43716e-12 5e-05 1.46608e-10 
140 1 0.165999 0.0181131 0.00712078 0.00547372 7.08902e-05 -7.8871e-05 6.20903e-11 8.71571e-11 7.85553e-12 5e-05 1.46608e-10 
141 1 0.159674 0.0169893 0.00742557 0.00571241 -0.000276203 -0.000147687 1.8665e-10 1.89797e-10 -1.05995e-10 5e-05 1.46608e-10 
143 1 0.393994 0.0150325 6.48596e-05 -2.1271e-21 1.6267e-21 -1.45327e-21 0 0 0 5e-05 1.46608e-10 
146 1 0.159867 0.0174576 0.00719346 0.00561602 -0.000267922 -0.000147186 -1.05193e-10 -5.6858e-11 -1.44309e-10 5e-05 1.46608e-10 
147 1 0.159945 0.0178354 0.00708752 0.00557108 -8.24891e-05 0.000375565 -3.5474e-11 1.44262e-11 -7.31007e-12 5e-05 1.46608e-10 
148 1 0.00853738 0.0177647 0.00782614 0.000483702 0.0160035 -0.00890723 3.04183e-12 -7.39201e-11 -2.65259e-11 5e-05 1.46608e-10 
149 1 0.165882 0.0175399 0.00725697 0.00540119 -4.76189e-06 -6.11392e-05 -1.63691e-10 8.14715e-11 2.82905e-11 5e-05 1.46608e-10 
150 1 0.159511 0.0162852 0.00776846 0.0054747 -0.000146895 -6.55424e-05 2.25774e-10 1.49561e-09 1.98701e-09 5e-05 1.46608e-10 
151 1 0.159964 0.01793 0.00706188 0.00555586 -7.97379e-05 0.000372467 -1.15998e-11 1.13065e-11 2.92804e-11 5e-05 1.46608e-10 
154 1 0.159942 0.0173966 0.00721874 0.00559937 -0.000253251 -0.000159517 4.31053e-11 -4.91762e-11 -3.81755e-12 5e-05 1.46608e-10 
155 1 0.153869 0.0175101 0.0074555 0.0056818 -0.000748299 -0.000240509 9.83533e-11 1.55717e-10 1.28139e-10 5e-05 1.46608e-10 
157 1 0.159811 0.0176134 0.00714217 0.00550759 -6.3617e-05 0.000365507 -1.59114e-11 -5.22688e-11 5.54685e-12 5e-05 1.46608e-10 
165 1 0.160037 0.0174276 0.00720928 0.00559859 -4.87126e-05 0.000368178 -4.15505e-11 1.03671e-10 -1.48811e-11 5e-05 1.46608e-10 
166 1 0.165554 0.0164165 0.00779974 0.00616727 -4.55466e-05 0.000217863 -1.03769e-10 1.39724e-10 -1.84944e-10 5e-05 1.46608e-10 
168 1 0.202733 0.0177058 0.00784096 -1.34284e-10 -0.0226089 0.00832399 -1.74141e-18 7.55018e-12 2.04945e-11 5e-05 1.46608e-10 
171 1 0.165603 0.016654 0.007487 0.00588586 0.000255832 -0.000201957 5.34982e-11 6.11113e-11 -6.32071e-11 5e-05 1.46608e-10 
172 1 0.159898 0.0174529 0.00728845 0.00561777 -0.000264562 -0.000142959 -1.40441e-10 4.85811e-11 -1.88099e-10 5e-05 1.46608e-10 
176 1 0.159593 0.0166372 0.00759701 0.00567859 -0.000261469 -0.000158681 -2.29878e-10 1.80463e-12 -4.92282e-11 5e-05 1.46608e-10 
177 1 0.159654 0.0169013 0.00746843 0.00570319 -0.000251251 -0.000161123 7.16529e-11 1.91042e-10 -1.19155e-10 5e-05 1.46608e-10 
179 1 0.153823 0.0173159 0.00747315 0.00626696 -0.000719431 -0.000274239 -1.66998e-10 1.54711e-10 -2.21548e-12 5e-05 1.46608e-10 
181 1 0.159572 0.0165492 0.00763987 0.0056278 -0.000275412 -0.000147746 -2.2708e-10 1.77635e-10 8.53899e-11 5e-05 1.46608e-10 
182 1 0.165761 0.0169665 0.00739377 0.0058749 8.52388e-05 -0.000107024 2.4823e-11 2.60175e-10 -1.67465e-10 5e-05 1.46608e-10 
184 1 0.165924 0.0181774 0.00710653 0.00550746 0.000120183 -9.3601e-05 -1.64761e-10 -8.94475e-11 1.91554e-11 5e-05 1.46608e-10 
187 1 0.165864 0.0176124 0.00732405 0.00541587 2.1088e-05 -6.23869e-05 2.37459e-10 7.76006e-11 4.65799e-11 5e-05 1.46608e-10 
188 1 0.165959 0.0176437 0.0073155 0.00544979 9.4492e-05 -8.95024e-05 -8.61142e-11 -8.93927e-11 3.60483e-11 5e-05 1.46608e-10 
189 1 0.165801 0.0171577 0.00734781 0.00554212 3.52243e-05 -7.19511e-05 -7.35417e-11 5.74177e-11 -1.4925e-11 5e-05 1.46608e-10 
191 1 0.165826 0.0176997 0.00722003 0.0054094 -2.96807e-05 -5.72168e-05 1.94982e-11 4.34358e-11 -2.7882e-11 5e-05 1.46608e-10 
192 1 0.15662 0.0170168 0.00741793 0.00580085 0.000787868 -0.000163318 -6.32081e-13 -6.99178e-12 3.45561e-12 5e-05 1.46608e-10 
193 1 0.1684 0.0161478 0.00790198 0.00538972 -0.00101534 0.0010336 -8.11697e-13 1.28819e-12 -4.92333e-13 5e-05 1.46608e-10 
197 1 0.159491 0.0161987 0.00781448 0.00564323 4.17007e-05 0.000302922 -2.04972e-09 2.602e-10 6.51414e-10 5e-05 1.46608e-10 
198 1 0.159925 0.0177407 0.00711319 0.00552773 -7.22727e-05 0.00037043 9.08884e-11 5.27324e-12 4.2361e-12 5e-05 1.46608e-10 
200 1 0.159948 0.0182758 0.00696253 0.00560156 -7.19975e-05 0.000375003 7.52033e-12 2.77364e-11 -5.95771e-12 5e-05 1.46608e-10 
201 1 0.159988 0.0180294 0.00703512 0.00558047 -7.61087e-05 0.000374013 3.35175e-11 6.07173e-11 -1.51786e-11 5e-05 1.46608e-10 
203 1 0.165845 0.0177954 0.00719729 0.00547697 0.000132798 -9.5302e-05 6.60725e-12 -2.53854e-11 -3.43646e-13 5e-05 1.46608e-10 
204 1 0.15375 0.0173843 0.00747165 0.00640205 -0.000480036 -0.000315323 -3.18472e-10 3.15151e-10 1.39276e-10 5e-05 1.46608e-10 
206 1 0.153796 0.0175781 0.00745405 0.00610418 -0.000383996 -0.000288041 -3.90668e-10 -4.36265e-10 4.81139e-11 5e-05 1.46608e-10 
207 1 0.060646 0.0186723 0.00546139 1.16221e-15 5.18595e-15 3.71388e-14 -2.48154e-24 -2.06795e-25 0 5e-05 1.46608e-10 
208 1 0.159889 0.0179936 0.00704534 0.00556338 -7.65366e-05 0.000361445 -3.56203e-11 -2.57354e-11 8.29976e-11 5e-05 1.46608e-10 
209 1 0.153575 0.016528 0.00758381 0.00528918 -0.000330719 0.000658966 -2.8292e-10 -2.66344e-10 1.53364e-10 5e-05 1.46608e-10 
210 1 0.165913 0.0168397 0.00742178 0.00582836 0.000116121 -0.000109712 7.98947e-11 -2.09089e-10 5.37986e-11 5e-05 1.46608e-10 
211 1 0.159928 0.0181811 0.0069882 0.00559264 -7.15774e-05 0.000374228 4.05573e-12 4.77567e-12 -7.67299e-12 5e-05 1.46608e-10 
212 1 0.159753 0.0173419 0.007254 0.00554176 -0.000294016 -0.000129554 -1.21627e-10 -1.65249e-10 9.74099e-11 5e-05 1.46608e-10 
213 1 0.165848 0.0177649 0.00729249 0.00548966 1.72831e-05 -0.000135025 -1.3169e-11 3.65081e-11 1.59215e-11 5e-05 1.46608e-10 
214 1 0.166071 0.0176028 0.00723999 0.00552822 0.000120817 -9.20566e-05 1.41845e-10 7.60479e-11 7.42653e-13 5e-05 1.46608e-10 
217 1 0.165718 0.016774 0.00744016 0.00589168 0.000271903 -0.000148195 5.41794e-11 9.1652e-11 -4.50356e-11 5e-05 1.46608e-10 
218 1 0.166091 0.0176982 0.00721732 0.00549022 0.000115962 -9.02636e-05 -6.34286e-11 1.92945e-10 -5.58511e-11 5e-05 1.46608e-10 
221 1 0.153523 0.0163743 0.00783189 0.00558735 -0.000499006 0.000527894 -2.83628e-10 4.10591e-10 5.69714e-10 5e-05 1.46608e-10 
222 1 0.165406 0.0160649 0.00825586 0.00594896 -4.98436e-05 0.00016393 -2.09057e-10 -4.70325e-10 -1.24129e-10 5e-05 1.46608e-10 
223 1 0.174907 0.0183506 0.00698296 0.00538702 -0.00116209 0.000337488 4.2305e-14 2.8645e-13 -1.64599e-13 5e-05 1.46608e-10 
225 1 0.165901 0.0176356 0.00723424 0.0054333 -2.2816e-06 -6.02293e-05 -2.09284e-11 -4.00379e-11 -1.85169e-11 5e-05 1.46608e-10 
226 1 0.15983 0.0177081 0.00711649 0.00551551 -6.95076e-05 0.000368664 -1.80582e-11 -1.33899e-10 4.80052e-11 5e-05 1.46608e-10 
228 1 0.0507861 0.0189683 0.00558458 -5.32371e-15 -1.91179e-14 -2.87013e-13 9.31063e-23 7.6385e-23 -7.03104e-24 5e-05 1.46608e-10 
231 1 0.197479 0.018695 0.00523156 -1.08111e-15 -2.69826e-14 1.45243e-13 -1.06839e-22 1.19941e-23 1.44757e-24 5e-05 1.46608e-10 
232 1 0.189081 0.0184947 0.00541361 -2.16231e-15 1.30802e-15 5.80687e-14 7.65336e-23 -1.12774e-22 5.58347e-24 5e-05 1.46608e-10 
234 1 0.166013 0.0173163 0.00730807 0.00570588 0.000147222 -0.000100219 5.81329e-11 -8.37762e-11 2.9445e-11 5e-05 1.46608e-10 
235 1 0.194679 0.0184196 0.00544868 1.51262e-14 9.62596e-14 2.34555e-13 7.57865e-22 -1.92423e-22 2.97785e-23 5e-05 1.46608e-10 
238 1 0.153591 0.0166044 0.00752125 0.00566884 -0.000473503 0.000685095 -3.87214e-10 -5.47175e-10 3.57764e-10 5e-05 1.46608e-10 
239 1 0.153417 0.0161055 0.00823462 0.00576062 -0.000463306 0.000884253 1.95666e-10 4.72877e-10 -7.0382e-10 5e-05 1.46608e-10 
240 1 0.153521 0.0163153 0.00791259 0.00566208 -0.000300915 0.00059349 -3.44809e-10 4.42931e-10 -8.95745e-10 5e-05 1.46608e-10 
241 1 0.153438 0.0161588 0.00815262 0.00582864 -0.000436843 0.000844536 2.35323e-11 4.23684e-10 -5.03185e-10 5e-05 1.46608e-10 
242 1 0.153892 0.0176071 0.0074467 0.0056981 -0.00072765 -0.000243447 -6.51851e-10 2.09066e-10 5.83114e-11 5e-05 1.46608e-10 
243 1 0.153396 0.0160521 0.00831663 0.00570236 -0.000481435 0.000910525 2.21798e-10 4.52328e-10 -7.66178e-10 5e-05 1.46608e-10 
244 1 0.153458 0.0162121 0.00807061 0.00583423 -0.000410628 0.000795684 1.36987e-09 -7.7461e-11 -2.54313e-10 5e-05 1.46608e-10 
245 1 0.153611 0.0167025 0.00751884 0.00561938 -0.000495026 0.00111699 -4.91389e-11 -4.89287e-10 1.24583e-10 5e-05 1.46608e-10 
246 1 0.15354 0.0164231 0.00774615 0.00542913 -0.000336499 0.000700006 3.24553e-09 -2.24122e-09 9.95396e-11 5e-05 1.46608e-10 
248 1 0.159552 0.0164612 0.00768274 0.00561754 -0.000284066 -0.000123247 1.43657e-10 1.9342e-10 -1.11226e-11 5e-05 1.46608e-10 
249 1 0.153649 0.0168984 0.00751991 0.00563695 -0.00049707 -5.61526e-05 3.01572e-11 3.64555e-11 -3.99849e-10 5e-05 1.46608e-10 
250 1 0.160937 0.0152939 0.0143113 0.00699439 -0.00482456 -0.00404859 3.48147e-11 -1.37332e-10 -1.10323e-10 5e-05 1.46608e-10 
251 1 0.165842 0.0173489 0.00730237 0.00563102 3.26647e-05 -7.23263e-05 7.70382e-11 -2.55855e-12 -1.73064e-12 5e-05 1.46608e-10 
252 1 0.153631 0.0168003 0.00752434 0.00569518 -0.000493656 0.000511772 -1.83568e-10 -1.36409e-10 -6.10833e-11 5e-05 1.46608e-10 
254 1 0.136461 0.0178217 0.00779865 -1.31075e-10 -0.0228691 0.00761155 -1.72018e-18 6.9081e-12 2.0729e-11 5e-05 1.46608e-10 
255 1 0.159791 0.0175188 0.00716801 0.00549582 -0.000197383 -0.000173721 1.16476e-11 3.28351e-11 -6.5227e-12 5e-05 1.46608e-10 
256 1 0.165402 0.0178281 0.00779579 4.65033e-06 -0.0223255 0.00738653 -4.11239e-12 -2.7662e-10 1.03025e-10 5e-05 1.46608e-10 
257 1 0.159886 0.0175514 0.00716455 0.00550454 -7.23423e-05 0.000371302 -8.94111e-11 -4.64053e-11 -2.531e-11 5e-05 1.46608e-10 
258 1 0.159824 0.0173886 0.00733147 0.00560686 -0.000233215 -0.000149245 1.49365e-10 -8.16697e-11 -2.90723e-11 5e-05 1.46608e-10 
259 1 0.15367 0.0169952 0.00750628 0.00559192 -0.000489008 -0.000262138 -3.18697e-11 4.09699e-11 -1.60814e-10 5e-05 1.46608e-10 
260 1 0.159962 0.0174894 0.00718693 0.00558233 -6.3755e-05 0.000371845 -1.26753e-10 -7.09674e-12 -1.49112e-11 5e-05 1.46608e-10 
261 1 0.159981 0.0175841 0.00716128 0.00554247 -5.61255e-05 0.000366726 -4.34785e-11 -5.20726e-11 2.39444e-11 5e-05 1.46608e-10 
262 1 0.16 0.0176788 0.00713557 0.00553348 -5.71586e-05 0.000366254 2.4724e-11 -1.08678e-10 2.80722e-11 5e-05 1.46608e-10 
263 1 0.153846 0.0174132 0.0074643 0.00580439 -0.000888663 -0.000237243 -3.69444e-10 1.91e-10 7.51666e-12 5e-05 1.46608e-10 
265 1 0.160079 0.0176206 0.00715707 0.00554712 -3.73469e-05 0.000361362 1.63496e-10 -7.41033e-11 3.43573e-11 5e-05 1.46608e-10 
270 1 0.165924 0.0180475 0.007221 0.00543013 6.73196e-05 -0.000103309 1.25738e-10 -1.18813e-10 1.15632e-10 5e-05 1.46608e-10 
271 1 0.214836 0.0179771 0.00774624 0.0108368 0.0160271 -0.00703258 -1.78084e-10 -1.62612e-10 9.81287e-13 5e-05 1.46608e-10 
272 1 0.153709 0.0171906 0.00748895 0.00580865 -0.000467535 -0.000282198 -3.96872e-10 2.72851e-10 1.25033e-10 5e-05 1.46608e-10 
273 1 0.101299 0.0178119 0.00779553 -0.0313587 0.0300377 -0.00692395 -5.41122e-10 -1.64181e-11 -5.45881e-11 5e-05 1.46608e-10 
274 1 0.15369 0.017093 0.00749854 0.00559932 -0.000460392 -0.000283461 -1.59109e-10 -5.14405e-12 -4.27822e-13 5e-05 1.46608e-10 
275 1 0.160044 0.0178733 0.00708303 0.00556273 -7.05889e-05 0.000371291 -1.85974e-11 5.80239e-11 -2.02161e-11 5e-05 1.46608e-10 
276 1 0.159828 0.017281 0.00727931 0.00553884 -0.000298157 -0.000130139 2.57557e-10 2.27167e-10 -3.31298e-11 5e-05 1.46608e-10 
277 1 0.159714 0.0171655 0.00733981 0.00548868 -0.000265117 -0.000142062 -1.13409e-11 6.97415e-12 -2.50265e-12 5e-05 1.46608e-10 
279 1 0.153942 0.0174414 0.00745704 0.0058232 -0.000772821 -0.000247068 -4.86765e-10 1.62326e-10 1.80406e-11 5e-05 1.46608e-10 
282 1 0.153562 0.01649 0.00767532 0.00514094 -0.000242196 0.000636295 2.03765e-10 9.12025e-10 7.07621e-10 5e-05 1.46608e-10 
283 1 0.153479 0.0162654 0.0079886 0.00592665 -0.000371268 0.000756137 -2.57531e-10 2.93765e-10 -8.24818e-10 5e-05 1.46608e-10 
284 1 0.159789 0.0171045 0.00736517 0.00565726 -1.65832e-05 -0.000268561 2.04296e-10 -2.295e-10 1.04705e-10 5e-05 1.46608e-10 
288 1 0.159884 0.0171318 0.00734753 0.00551775 -0.000291544 -0.000130857 8.57808e-12 -3.36886e-10 1.73579e-10 5e-05 1.46608e-10 
293 1 0.153728 0.0172887 0.00749157 0.00616843 -0.000486786 -0.000323628 -2.92095e-10 4.60264e-10 -1.33905e-10 5e-05 1.46608e-10 
294 1 0.152576 0.0182562 0.00546336 5.31916e-16 -1.42237e-15 1.14571e-14 -5.74503e-23 -9.70128e-23 -9.30578e-24 5e-05 1.46608e-10 
295 1 0.185844 0.0170677 0.00813072 -3.73439e-05 -0.00462504 0.000862719 -1.49981e-12 1.95483e-10 -1.54712e-10 5e-05 1.46608e-10 
297 1 0.166074 0.0180488 0.00713505 0.0054504 4.25039e-05 -6.98484e-05 1.69844e-10 9.49658e-11 -4.18049e-11 5e-05 1.46608e-10 
300 1 0.165739 0.0168692 0.00741723 0.00589309 0.000282913 -0.000150362 1.21016e-11 -7.17984e-11 1.20382e-11 5e-05 1.46608e-10 
