ITEM: TIMESTEP
1400000
ITEM: NUMBER OF ATOMS
214
ITEM: BOX BOUNDS ff ff ff
-0.02 0.43
-0.02 0.06
-0.02 0.07
ITEM: ATOMS id type x y z vx vy vz fx fy fz radius mass 
1 1 0.0211746 0.0170542 0.0073102 0.00584564 -0.00189164 0.000716333 4.54679e-11 -1.56869e-11 -4.65732e-12 5e-05 1.46608e-10 
2 1 0.0215497 0.0179004 0.00710396 0.00534443 -0.00184418 0.000462168 -2.29121e-12 8.64313e-12 -3.72908e-12 5e-05 1.46608e-10 
3 1 0.0162226 0.0196347 0.00708588 -7.57097e-16 2.58188e-14 -2.11472e-13 -3.71747e-24 -1.03398e-25 0 5e-05 1.46608e-10 
4 1 0.0216671 0.0186308 0.00698238 0.00522691 -0.00171643 0.000437268 -5.79062e-12 -6.28651e-11 8.90328e-12 5e-05 1.46608e-10 
5 1 0.0210786 0.0170283 0.00732548 0.00584835 -0.001887 0.000711673 2.15251e-11 4.60948e-11 -7.58337e-12 5e-05 1.46608e-10 
6 1 0.0269983 0.0167279 0.00752755 0.00610682 -0.000405243 0.000164081 -6.5454e-11 5.43916e-11 -4.38435e-11 5e-05 1.46608e-10 
7 1 0.0213204 0.0177108 0.00712973 0.00530809 -0.00183888 0.000485727 -1.95939e-11 -4.38829e-11 -3.63483e-12 5e-05 1.46608e-10 
8 1 0.0209924 0.0166918 0.00752301 0.00580413 -0.00156704 0.00123142 -7.69156e-12 8.08693e-11 -4.45869e-11 5e-05 1.46608e-10 
9 1 0.0272844 0.0179568 0.00708618 0.00534766 -0.00171505 0.000465339 8.16531e-13 -3.50712e-13 8.9534e-14 5e-05 1.46608e-10 
10 1 0.0212664 0.0178728 0.00710092 0.00532534 -0.00183936 0.000479955 -1.78904e-11 -4.75667e-11 -1.3774e-11 5e-05 1.46608e-10 
11 1 0.0213818 0.0180006 0.00708223 0.00533954 -0.00185625 0.000464167 1.91784e-12 2.35676e-11 -5.83941e-12 5e-05 1.46608e-10 
12 1 0.0214629 0.0183872 0.0070184 0.00524791 -0.00171564 0.00043941 7.62754e-11 1.97903e-10 -4.62341e-11 5e-05 1.46608e-10 
13 1 0.0211652 0.0173898 0.00718044 0.00547245 -0.00185987 0.000513769 1.05664e-11 -3.9955e-11 5.78595e-12 5e-05 1.46608e-10 
14 1 0.0154926 0.0189808 0.00700866 0.00445967 -0.00507109 -0.000635121 3.68469e-13 -4.98202e-13 -6.02989e-14 5e-05 1.46608e-10 
15 1 0.0213685 0.0183569 0.00703155 0.00528548 -0.00181584 0.000425116 7.26329e-12 7.21955e-11 -1.37095e-10 5e-05 1.46608e-10 
16 1 0.0154383 0.0187106 0.00697586 0.00446449 -0.00504486 -0.000631936 6.15471e-13 -6.45416e-13 -1.07947e-13 5e-05 1.46608e-10 
17 1 0.0212255 0.0176795 0.00713155 0.00530818 -0.00183508 0.000486296 -5.7208e-11 -3.35147e-11 9.22274e-13 5e-05 1.46608e-10 
18 1 0.0271465 0.0173254 0.00723092 0.00615538 -0.000416536 0.000174157 1.98256e-11 -1.08372e-11 3.34983e-12 5e-05 1.46608e-10 
19 1 0.0210353 0.0168558 0.00741701 0.00584043 -0.00167178 0.00108893 1.84671e-11 9.54667e-11 5.0014e-11 5e-05 1.46608e-10 
20 1 0.0215378 0.0183223 0.00703154 0.00530213 -0.00163604 0.000424956 -7.44702e-11 7.26857e-11 -8.77619e-12 5e-05 1.46608e-10 
21 1 0.0210569 0.0169412 0.00736963 0.00584513 -0.00181902 0.0008369 2.5759e-11 7.85971e-11 2.00896e-11 5e-05 1.46608e-10 
22 1 0.0214227 0.0181938 0.00705034 0.00538786 -0.00182748 0.000460589 4.67406e-12 1.62645e-10 -1.72195e-11 5e-05 1.46608e-10 
23 1 0.0168421 0.0200739 0.0070985 -9.61716e-15 1.25452e-14 -1.31487e-13 5.16988e-26 0 0 5e-05 1.46608e-10 
24 1 0.0272314 0.0177064 0.00714359 0.00558584 -0.000301499 0.00014037 1.07972e-11 -1.99955e-12 9.92034e-13 5e-05 1.46608e-10 
25 1 0.0213409 0.0178075 0.00711411 0.0053183 -0.00185401 0.000465656 -2.81542e-11 -2.04293e-11 2.1907e-12 5e-05 1.46608e-10 
26 1 0.0270825 0.0170408 0.00729615 0.00622498 -0.000427203 0.000176907 1.11016e-10 2.51047e-11 2.8755e-11 5e-05 1.46608e-10 
27 1 0.0163817 0.0198236 0.00710829 -1.30746e-14 2.34305e-14 -2.30392e-13 8.14256e-25 1.03398e-25 0 5e-05 1.46608e-10 
28 1 0.0211845 0.0174861 0.00716176 0.00524977 -0.00182042 0.000480543 3.51683e-11 -5.28795e-11 1.51135e-11 5e-05 1.46608e-10 
29 1 0.0211971 0.0171436 0.00726713 0.00584757 -0.00189963 0.00072071 2.64604e-11 6.28001e-12 4.39686e-13 5e-05 1.46608e-10 
30 1 0.0216485 0.0184606 0.00701096 0.00517926 -0.0016623 0.000426414 -2.13704e-10 -1.00066e-10 9.66972e-12 5e-05 1.46608e-10 
31 1 0.0213482 0.0182591 0.00703713 0.00537883 -0.00183987 0.000464443 -2.03952e-11 7.36137e-11 -5.13769e-12 5e-05 1.46608e-10 
32 1 0.0214023 0.0180972 0.00706629 0.00534959 -0.00186059 0.000464398 -4.57882e-12 2.79143e-11 -2.48705e-12 5e-05 1.46608e-10 
33 1 0.0270191 0.0168032 0.00746506 0.00613924 -0.00041946 0.000172375 2.18168e-10 8.9762e-12 6.06061e-11 5e-05 1.46608e-10 
34 1 0.0212459 0.0177762 0.00711644 0.00531489 -0.00183538 0.000485928 -7.01725e-12 -4.26555e-11 1.54396e-12 5e-05 1.46608e-10 
36 1 0.0273339 0.01819 0.00703269 0.00539457 -0.00176436 0.00047737 5.97143e-13 -1.62941e-13 4.80072e-14 5e-05 1.46608e-10 
37 1 0.0212868 0.0179694 0.00708495 0.0053395 -0.00184387 0.000467527 -8.1815e-12 -5.5073e-12 2.14948e-12 5e-05 1.46608e-10 
38 1 0.0214431 0.0182904 0.00703439 0.00534781 -0.00175505 0.000447601 -1.35932e-10 3.10325e-10 -5.0562e-11 5e-05 1.46608e-10 
39 1 0.0272108 0.0176111 0.00716546 0.00609078 -0.000402566 0.000170153 -1.58013e-11 7.38634e-12 -8.2962e-13 5e-05 1.46608e-10 
41 1 0.0211009 0.0171166 0.0072842 0.00585023 -0.00188742 0.000713582 2.43539e-11 -1.45168e-13 -1.04888e-12 5e-05 1.46608e-10 
42 1 0.0213277 0.0181626 0.00705307 0.00536635 -0.00184303 0.000462267 9.32564e-12 3.82068e-11 8.49716e-13 5e-05 1.46608e-10 
44 1 0.0215593 0.0182262 0.00704857 0.0050602 -0.00167096 0.000424766 -6.67613e-11 4.91232e-11 4.94104e-12 5e-05 1.46608e-10 
45 1 0.0270621 0.0169534 0.00734024 0.0062155 -0.00042861 0.000176085 -2.9481e-10 -6.1713e-11 1.06464e-10 5e-05 1.46608e-10 
46 1 0.0271251 0.0172302 0.00725274 0.00617725 -0.000422676 0.000175543 -3.86509e-11 1.71623e-11 -5.334e-12 5e-05 1.46608e-10 
47 1 0.0211437 0.0172959 0.00720759 0.00585178 -0.00190801 0.000650959 -7.8768e-12 -2.76188e-11 -7.8909e-12 5e-05 1.46608e-10 
48 1 0.0215039 0.0181367 0.00706233 0.00539123 -0.0018197 0.000458911 -7.87942e-11 1.30028e-10 -3.12477e-11 5e-05 1.46608e-10 
49 1 0.0271138 0.0171334 0.00727506 0.00619708 -0.000424458 0.000176155 2.7889e-11 6.68511e-11 -5.00122e-12 5e-05 1.46608e-10 
50 1 0.0215851 0.0186868 0.00697056 0.00518577 -0.00176302 0.000443739 -1.00585e-10 -1.07744e-10 1.39961e-11 5e-05 1.46608e-10 
51 1 0.0215028 0.018582 0.00698621 0.00511414 -0.00173819 0.000437691 1.47236e-11 1.94356e-10 -3.69599e-11 5e-05 1.46608e-10 
52 1 0.0217695 0.0192772 0.00687475 4.24115e-15 -2.63637e-14 -1.54285e-13 4.62058e-24 3.10193e-25 -2.06795e-25 5e-05 1.46608e-10 
53 1 0.027168 0.0174206 0.0072091 0.00613289 -0.000410652 0.000172679 -3.15674e-11 -1.91599e-11 5.08123e-12 5e-05 1.46608e-10 
54 1 0.0211343 0.0168842 0.00739728 0.00589255 -0.00156416 0.00123357 9.70405e-12 8.89282e-12 1.4626e-11 5e-05 1.46608e-10 
55 1 0.0155596 0.0193011 0.00704753 0.0046197 -0.00533458 -0.000667865 7.9765e-13 -1.46645e-12 -1.86045e-13 5e-05 1.46608e-10 
56 1 0.0213073 0.018066 0.00706901 0.00535043 -0.00184641 0.000462561 1.15187e-11 1.96129e-11 -1.36576e-12 5e-05 1.46608e-10 
57 1 0.02704 0.0168784 0.00740257 0.00616578 -0.000428059 0.000175917 2.33941e-10 -1.70397e-10 1.77752e-10 5e-05 1.46608e-10 
59 1 0.0214358 0.0178387 0.00711139 0.00532215 -0.00186762 0.000465346 -1.13471e-11 -4.53453e-11 5.26675e-12 5e-05 1.46608e-10 
60 1 0.0214563 0.0179353 0.00709545 0.00533872 -0.0018579 0.000464318 -1.84478e-11 6.12313e-12 -9.13722e-13 5e-05 1.46608e-10 
61 1 0.021122 0.0172041 0.00724074 0.00585873 -0.00188779 0.000714849 7.34679e-12 -9.45043e-12 -1.17187e-11 5e-05 1.46608e-10 
62 1 0.0215575 0.0184192 0.00701554 0.00522997 -0.00178633 0.000448979 -3.03724e-10 2.26492e-10 -4.46174e-11 5e-05 1.46608e-10 
63 1 0.0214817 0.0180377 0.00707864 0.00531343 -0.00190311 0.000471395 -5.17781e-11 -2.5719e-11 -4.24223e-12 5e-05 1.46608e-10 
64 1 0.0271894 0.0175159 0.00718728 0.00611137 -0.000407183 0.000171623 2.8768e-11 6.92161e-12 -6.47425e-13 5e-05 1.46608e-10 
65 1 0.0166467 0.019938 0.00709982 -1.9201e-15 2.5047e-15 -2.62516e-14 2.99853e-24 2.94683e-24 2.06795e-25 5e-05 1.46608e-10 
66 1 0.0163328 0.019703 0.00709382 -7.5814e-16 2.58188e-14 -2.11472e-13 1.54208e-24 -7.75482e-26 0 5e-05 1.46608e-10 
67 1 0.0216279 0.0181547 0.00706266 0.0050483 -0.00165936 0.00042221 -9.96713e-11 -1.37315e-11 -1.13297e-11 5e-05 1.46608e-10 
68 1 0.0214825 0.018484 0.0070024 0.0052336 -0.0017801 0.000448206 -2.12973e-10 1.18944e-10 -3.10633e-11 5e-05 1.46608e-10 
69 1 0.0213613 0.017904 0.00709817 0.0053311 -0.00185568 0.000465258 8.52031e-12 -2.37757e-12 -1.85175e-12 5e-05 1.46608e-10 
70 1 0.021407 0.0185483 0.00698934 0.00523574 -0.00178171 0.000448335 -6.84084e-11 3.64941e-11 -1.79894e-11 5e-05 1.46608e-10 
71 1 0.0155196 0.0191148 0.00702492 0.00444993 -0.00506427 -0.000634254 2.43563e-13 -3.66485e-13 -4.27005e-14 5e-05 1.46608e-10 
72 1 0.0215946 0.0185434 0.00699533 0.00512043 -0.00170722 0.0004325 -4.56065e-11 4.8273e-11 -7.65078e-12 5e-05 1.46608e-10 
73 1 0.0212049 0.0175828 0.00714665 0.00528601 -0.00183008 0.000483712 -2.34523e-11 -4.95321e-11 7.91448e-12 5e-05 1.46608e-10 
74 1 0.0217301 0.0183773 0.00702743 0.00530651 -0.00168047 0.000432953 -9.19654e-11 5.15402e-11 -1.67095e-11 5e-05 1.46608e-10 
76 1 0.0206898 0.0238641 0.0115833 -0.000843373 -0.00113983 -0.00230285 -3.58602e-06 -3.06488e-06 -1.78363e-06 5e-05 1.46608e-10 
77 1 0.0225584 0.0195075 0.00685708 4.24126e-15 -2.63637e-14 -1.54285e-13 -1.84823e-24 -4.65289e-25 0 5e-05 1.46608e-10 
78 1 0.015651 0.0197205 0.0070984 0.00473365 -0.00543204 -0.000680173 3.75569e-13 -1.09019e-12 -1.40848e-13 5e-05 1.46608e-10 
79 1 0.0167327 0.0202261 0.00712102 -9.61715e-15 1.25452e-14 -1.31487e-13 0 0 0 5e-05 1.46608e-10 
80 1 0.0215025 0.0190325 0.00690923 0.00521593 -0.00177567 0.000446999 2.98792e-11 3.09032e-11 -1.21886e-12 5e-05 1.46608e-10 
81 1 0.0161185 0.0202394 0.00716008 3.30332e-16 -1.12794e-14 9.2385e-14 3.01872e-24 -2.06795e-25 0 5e-05 1.46608e-10 
82 1 0.0167606 0.0201307 0.00710988 -9.61715e-15 1.25452e-14 -1.31487e-13 -5.16988e-26 0 0 5e-05 1.46608e-10 
83 1 0.0158349 0.0201651 0.00715202 0.00202178 -5.05397e-05 -1.3424e-05 -1.10954e-10 3.59194e-11 4.74204e-12 5e-05 1.46608e-10 
84 1 0.0273698 0.0183623 0.00699317 0.0052211 -0.00167627 0.000454747 7.14848e-13 -8.72498e-13 2.23273e-13 5e-05 1.46608e-10 
85 1 0.0209709 0.0166106 0.00757725 0.00578271 -0.00156234 0.00122862 2.36584e-11 9.92846e-11 -9.145e-11 5e-05 1.46608e-10 
86 1 0.0215633 0.0188767 0.00693752 0.0052005 -0.00176242 0.000444275 -1.77977e-11 1.66345e-11 -4.01088e-12 5e-05 1.46608e-10 
87 1 0.0215103 0.0177733 0.00712461 0.00531795 -0.00187312 0.000466084 -1.82573e-11 -7.16283e-11 2.29077e-12 5e-05 1.46608e-10 
88 1 0.0218213 0.0193837 0.00685798 5.15504e-15 -3.20383e-14 -1.87495e-13 0 -1.03398e-25 0 5e-05 1.46608e-10 
89 1 0.0216024 0.0190715 0.0069053 0.00527892 -0.00178207 0.000449623 -1.88502e-11 -1.55578e-11 1.75181e-12 5e-05 1.46608e-10 
90 1 0.021716 0.0185451 0.00699838 0.00527116 -0.00170031 0.000435015 9.91637e-11 -4.57741e-11 1.18558e-11 5e-05 1.46608e-10 
91 1 0.0214263 0.0186451 0.00697333 0.00510875 -0.00175718 0.000439754 -4.59144e-12 1.08417e-10 -3.62024e-11 5e-05 1.46608e-10 
92 1 0.0217632 0.0186584 0.00698031 0.00523416 -0.00173216 0.000439861 6.97654e-11 3.30482e-11 -2.47904e-12 5e-05 1.46608e-10 
93 1 0.0218416 0.0188977 0.00694158 0.00525651 -0.0018068 0.000453251 -1.91959e-12 2.30326e-11 -4.24091e-12 5e-05 1.46608e-10 
94 1 0.0215824 0.0189735 0.00692149 0.00521793 -0.00178004 0.00044765 4.34179e-11 -3.21907e-12 4.11973e-12 5e-05 1.46608e-10 
95 1 0.0214835 0.0189356 0.00692526 0.00519386 -0.00176912 0.000445419 1.36626e-11 4.43701e-11 -1.13277e-11 5e-05 1.46608e-10 
96 1 0.0216582 0.0189096 0.0069345 0.00521906 -0.00178576 0.000448599 4.6815e-11 -5.55206e-11 9.92022e-12 5e-05 1.46608e-10 
97 1 0.017226 0.0200672 0.00706978 -1.92145e-15 2.50405e-15 -2.62516e-14 -2.01625e-23 -1.10894e-23 4.1359e-25 5e-05 1.46608e-10 
98 1 0.0222514 0.0193985 0.00686727 5.15541e-15 -3.20383e-14 -1.87495e-13 4.05189e-24 1.29247e-24 -2.06795e-25 5e-05 1.46608e-10 
99 1 0.0165183 0.0205671 0.00716923 -1.92001e-15 2.50471e-15 -2.62516e-14 -3.10193e-25 -4.65289e-25 -2.06795e-25 5e-05 1.46608e-10 
100 1 0.0217749 0.0184657 0.00701357 0.00531064 -0.00168092 0.000433515 9.09914e-11 -6.70525e-11 1.42846e-11 5e-05 1.46608e-10 
101 1 0.0172482 0.0142756 0.0117193 -0.0005008 -0.000150081 0.000729683 -4.32366e-12 -5.92718e-11 2.43859e-10 5e-05 1.46608e-10 
102 1 0.0694385 0.0202053 0.00537268 4.04885e-15 4.40078e-15 -7.68258e-14 -3.82855e-22 -1.98704e-22 -2.91581e-23 5e-05 1.46608e-10 
104 1 0.017036 0.0200427 0.00708134 -1.92013e-15 2.50465e-15 -2.62516e-14 3.48967e-25 3.87741e-25 0 5e-05 1.46608e-10 
105 1 0.0157195 0.0200347 0.00713651 0.00449298 -0.00700091 -0.000870856 -4.39971e-12 -2.03004e-11 -2.89032e-12 5e-05 1.46608e-10 
106 1 0.0183613 0.0197279 0.00695437 0.000262739 -0.0228693 -0.00220118 9.55487e-11 5.75373e-10 4.79079e-11 5e-05 1.46608e-10 
107 1 0.0156765 0.0198372 0.00711256 0.00476503 -0.00546073 -0.000683788 2.60027e-13 -9.51403e-13 -1.17015e-13 5e-05 1.46608e-10 
108 1 0.0212999 0.0176141 0.00714484 0.00529604 -0.00185821 0.000487708 -6.96419e-11 2.74641e-11 -7.04739e-12 5e-05 1.46608e-10 
109 1 0.0214454 0.0187419 0.00695731 0.00514216 -0.00176214 0.000442004 1.49719e-10 9.23137e-11 -1.44177e-12 5e-05 1.46608e-10 
110 1 0.0216216 0.0191685 0.00688926 0.0053132 -0.00178006 0.000450259 2.88965e-11 -8.52741e-12 1.96938e-12 5e-05 1.46608e-10 
111 1 0.0226393 0.0194113 0.00687575 -3.97515e-15 2.47094e-14 1.44604e-13 1.06435e-23 1.75776e-24 -2.06795e-25 5e-05 1.46608e-10 
112 1 0.0157969 0.0203898 0.00717959 0.00493031 -0.00551983 -0.000691598 -2.68998e-13 -3.66467e-13 -3.72696e-14 5e-05 1.46608e-10 
113 1 0.02025 0.023845 0.011549 0.0088068 -0.00403333 -0.00372697 -1.18994e-06 -5.38073e-06 3.95121e-07 5e-05 1.46608e-10 
115 1 0.0214644 0.0188388 0.00694128 0.0051602 -0.00176842 0.000443512 -6.77931e-12 3.09209e-11 4.77265e-12 5e-05 1.46608e-10 
116 1 0.0214154 0.0177421 0.00712733 0.00531342 -0.00186311 0.000464625 -2.13283e-11 -5.44245e-11 -2.195e-11 5e-05 1.46608e-10 
117 1 0.0213499 0.0173793 0.00718498 0.00523997 -0.00181452 0.000479314 6.13925e-11 3.14345e-11 -1.16915e-12 5e-05 1.46608e-10 
118 1 0.0156087 0.0195264 0.00707485 0.00467897 -0.00539585 -0.000675557 5.42536e-13 -1.28002e-12 -1.6003e-13 5e-05 1.46608e-10 
119 1 0.0216338 0.0183505 0.00702937 0.00529482 -0.00162341 0.000422849 -4.24387e-11 -6.23563e-11 5.80457e-12 5e-05 1.46608e-10 
120 1 0.0210138 0.016773 0.00746877 0.00582588 -0.00157259 0.00123359 -2.80288e-11 4.32012e-11 -9.85512e-12 5e-05 1.46608e-10 
121 1 0.02109 0.0167205 0.00750655 0.00583829 -0.00156056 0.00122826 -4.74635e-11 1.29916e-11 -2.83103e-11 5e-05 1.46608e-10 
122 1 0.0216775 0.0190069 0.00691842 0.00528439 -0.00177472 0.000448522 -3.59767e-14 7.12334e-12 -1.24473e-12 5e-05 1.46608e-10 
123 1 0.0157407 0.0201317 0.00714828 0.00452286 -0.00700733 -0.000871745 -4.44275e-12 -2.05745e-11 -2.39935e-12 5e-05 1.46608e-10 
124 1 0.0215217 0.0191293 0.00689321 0.00527567 -0.00178749 0.000450336 -3.55008e-12 1.20365e-12 1.23978e-13 5e-05 1.46608e-10 
125 1 0.0211128 0.016803 0.00745152 0.0058705 -0.00154445 0.00122065 -4.80799e-13 3.94388e-11 -2.65164e-11 5e-05 1.46608e-10 
126 1 0.0213874 0.0184515 0.00700534 0.00520119 -0.00178175 0.000449521 5.01477e-11 8.75806e-11 -1.95042e-11 5e-05 1.46608e-10 
127 1 0.0158643 0.0200702 0.00714034 0.00030165 -0.000577025 -7.15263e-05 -3.68919e-11 6.34699e-11 7.89206e-12 5e-05 1.46608e-10 
128 1 0.0216924 0.0187277 0.00696653 0.00521916 -0.00174757 0.000442076 -1.56877e-11 -3.03514e-11 2.32327e-12 5e-05 1.46608e-10 
129 1 0.0216503 0.0192812 0.00687079 0.00534508 -0.00176636 0.000448818 1.07694e-11 -6.6581e-12 1.40486e-12 5e-05 1.46608e-10 
131 1 0.0169735 0.0201293 0.00709418 -1.92005e-15 2.50473e-15 -2.62516e-14 1.1503e-24 5.16988e-25 0 5e-05 1.46608e-10 
132 1 0.0216344 0.0188077 0.00695127 0.00521054 -0.00175344 0.000442837 -1.01165e-10 -7.05631e-11 1.09037e-11 5e-05 1.46608e-10 
133 1 0.0212188 0.017232 0.00722452 0.00586428 -0.00187738 0.000709028 9.14989e-12 -1.98253e-11 1.47135e-11 5e-05 1.46608e-10 
134 1 0.0215769 0.0180697 0.00707579 0.00537184 -0.00183582 0.000461227 -1.46834e-10 1.05938e-10 -4.96083e-12 5e-05 1.46608e-10 
135 1 0.0209951 0.0165305 0.00763207 0.00574629 -0.00156783 0.00123197 1.65426e-11 6.43799e-11 -3.21297e-11 5e-05 1.46608e-10 
136 1 0.0156299 0.0196234 0.00708662 0.00470376 -0.00542563 -0.000679282 4.99674e-13 -1.11851e-12 -1.30989e-13 5e-05 1.46608e-10 
137 1 0.0227552 0.0194406 0.00687392 -3.97479e-15 2.47093e-14 1.44604e-13 2.31998e-24 -2.58494e-25 2.06795e-25 5e-05 1.46608e-10 
138 1 0.0217666 0.0189625 0.00692844 0.00528075 -0.00178029 0.000449378 1.39932e-11 3.78718e-11 -5.82473e-12 5e-05 1.46608e-10 
140 1 0.0215399 0.0187745 0.00695433 0.00515756 -0.00177237 0.000444352 -7.38684e-11 -5.49103e-11 9.83064e-12 5e-05 1.46608e-10 
141 1 0.0157431 0.0197632 0.00710329 0.00476503 -0.00546073 -0.000683788 2.59679e-13 -9.51573e-13 -1.17187e-13 5e-05 1.46608e-10 
142 1 0.017282 0.0192603 0.0069887 -1.93329e-15 2.49642e-15 -2.62515e-14 2.72194e-23 3.82571e-23 2.06795e-24 5e-05 1.46608e-10 
143 1 0.0156984 0.0199376 0.00712474 0.00446309 -0.00699447 -0.000869959 -4.2351e-12 -2.0529e-11 -2.12899e-12 5e-05 1.46608e-10 
146 1 0.0174348 0.0142666 0.0116556 0.000824685 -0.00172265 0.00286636 -1.20205e-11 -2.1878e-11 5.45216e-11 5e-05 1.46608e-10 
147 1 0.0155872 0.0194277 0.00706288 0.0046527 -0.00537045 -0.000672362 6.95906e-13 -1.33255e-12 -1.63506e-13 5e-05 1.46608e-10 
148 1 0.0325376 0.018016 0.00773399 -0.0200356 0.0056214 0.000308256 2.5641e-10 -3.41402e-10 4.00337e-11 5e-05 1.46608e-10 
149 1 0.0215599 0.019323 0.00686117 0.00533275 -0.00179155 0.000452931 -1.42175e-11 -5.18042e-11 7.9272e-12 5e-05 1.46608e-10 
150 1 0.0175368 0.0142635 0.0116608 0.000838251 -0.00169624 0.00281503 -6.95146e-11 6.67864e-12 -4.31688e-11 5e-05 1.46608e-10 
151 1 0.0202019 0.020177 0.018442 0 -0 -0.03 0 0 0 5e-05 1.46608e-10 
152 1 0.01617 0.0189135 0.0195722 0 -0 -0.03 0 0 0 5e-05 1.46608e-10 
153 1 0.0173364 0.0142719 0.0116723 0.000950115 -0.00154595 0.00356332 -5.30313e-12 -3.93473e-11 2.18848e-10 5e-05 1.46608e-10 
154 1 0.0179686 0.0200138 0.00701037 -3.67274e-07 5.51714e-07 7.95073e-08 -1.69797e-12 2.67913e-12 3.79779e-13 5e-05 1.46608e-10 
155 1 0.0162903 0.023712 0.0126883 0.0115887 0.00283057 -0.0116805 -3.73205e-12 2.32797e-12 1.02774e-11 5e-05 1.46608e-10 
156 1 0.0178103 0.0200538 0.00702577 2.0311e-14 -2.64938e-14 2.77686e-13 -1.08955e-23 -3.25702e-24 4.1359e-25 5e-05 1.46608e-10 
157 1 0.0216865 0.0232409 0.0139661 -0.00159946 0.0930365 -0.125071 0 0 -1.43822e-09 5e-05 1.46608e-10 
158 1 0.0183864 0.0194381 0.00692489 0.00104143 -0.00600903 -0.000649495 -1.82828e-11 5.64127e-10 5.51608e-11 5e-05 1.46608e-10 
159 1 0.0217469 0.0188645 0.00694465 0.00520896 -0.00181262 0.000452946 8.79153e-11 -4.9618e-11 1.09674e-11 5e-05 1.46608e-10 
160 1 0.0184226 0.0209162 0.0214502 0 -0 -0.03 0 0 0 5e-05 1.46608e-10 
161 1 0.0228762 0.0225898 0.0147949 -0.00226099 0.0669622 -0.0671054 5.24328e-12 3.00454e-10 -4.91349e-10 5e-05 1.46608e-10 
162 1 0.0179662 0.0196564 0.00697645 3.63792e-08 -5.51144e-08 -7.91937e-09 -2.2871e-13 4.82659e-13 6.27765e-14 5e-05 1.46608e-10 
163 1 0.0202982 0.0239013 0.0116512 0.00344283 -0.0012457 -0.00224621 -2.75937e-10 -5.07077e-10 -9.11875e-10 5e-05 1.46608e-10 
164 1 0.0237247 0.0203734 0.0161869 -0.000771665 0.0337273 -0.00471039 0 0 -1.43822e-09 5e-05 1.46608e-10 
165 1 0.0192156 0.0226972 0.0143644 0.000105206 0.0715279 -0.160292 0 0 -1.43822e-09 5e-05 1.46608e-10 
166 1 0.0215956 0.0158621 0.0214328 0 -0 -0.03 0 0 0 5e-05 1.46608e-10 
167 1 0.0156831 0.0164901 0.0209161 0 -0 -0.03 0 0 0 5e-05 1.46608e-10 
168 1 0.0186282 0.0208679 0.00736447 -0.0189418 -0.0791488 -0.00465374 0 0 -1.43822e-09 5e-05 1.46608e-10 
169 1 0.0199687 0.0238447 0.0115486 0.00249262 0.00608277 0.0109573 -1.29828e-07 -2.05363e-06 -2.00953e-06 5e-05 1.46608e-10 
170 1 0.0187412 0.0233913 0.0107195 0.0174439 -0.106696 -0.0245614 0 0 -1.43822e-09 5e-05 1.46608e-10 
171 1 0.021429 0.0173194 0.00719752 0.00522719 -0.001827 0.000480741 -8.565e-11 -9.97135e-11 1.1455e-11 5e-05 1.46608e-10 
172 1 0.0201418 0.0227087 0.0136357 0.000113055 0.0919368 -0.117612 0 0 -1.43822e-09 5e-05 1.46608e-10 
173 1 0.0216132 0.017978 0.00709245 0.00533525 -0.00184851 0.000462844 -2.08285e-10 9.80182e-11 -5.21988e-11 5e-05 1.46608e-10 
174 1 0.0183074 0.0205554 0.0179235 0 0 -0.104286 0 0 -1.43822e-09 5e-05 1.46608e-10 
175 1 0.0176061 0.0170396 0.0214249 0 -0 -0.03 0 0 0 5e-05 1.46608e-10 
176 1 0.0176572 0.0200534 0.00703692 2.03104e-14 -2.64942e-14 2.77686e-13 1.0469e-24 2.84343e-25 0 5e-05 1.46608e-10 
177 1 0.0208193 0.023866 0.0115876 0.00107083 -0.00119862 -0.00380927 0 0 -1.43822e-09 5e-05 1.46608e-10 
178 1 0.020518 0.0238567 0.0115702 0.00164385 -0.00506336 -0.01482 -6.73438e-08 -2.9418e-06 1.19242e-08 5e-05 1.46608e-10 
179 1 0.0171845 0.0234184 0.0189928 0 -0 -0.03 0 0 0 5e-05 1.46608e-10 
180 1 0.0203965 0.0238514 0.0115605 -0.0158484 -0.00249899 -0.0093185 3.61056e-06 -2.17925e-06 -5.95042e-07 5e-05 1.46608e-10 
181 1 0.0186598 0.0205311 0.00757199 0.00930171 -0.0988185 -0.0767976 0 0 -1.43822e-09 5e-05 1.46608e-10 
182 1 0.021481 0.0175958 0.00715413 0.00529053 -0.00186739 0.000463823 -1.36436e-10 -8.40888e-11 1.33244e-11 5e-05 1.46608e-10 
183 1 0.0196981 0.0210227 0.0149858 -9.7733e-06 0.0253769 -0.0139855 5.05225e-14 -2.55603e-11 -2.09677e-11 5e-05 1.46608e-10 
184 1 0.0220422 0.0162411 0.0154919 -0.000877653 -0.0401547 0.00365815 0 0 -1.43822e-09 5e-05 1.46608e-10 
185 1 0.0176908 0.0202039 0.00704883 -1.9201e-15 2.50459e-15 -2.62516e-14 4.31685e-24 6.61744e-24 4.1359e-25 5e-05 1.46608e-10 
186 1 0.017826 0.0199166 0.00701153 -1.9215e-15 2.50458e-15 -2.62515e-14 1.48634e-23 -4.42025e-24 -1.65436e-24 5e-05 1.46608e-10 
187 1 0.0215363 0.0176782 0.00714157 0.00531049 -0.00187736 0.000466286 -7.93827e-11 -1.0829e-10 1.9894e-11 5e-05 1.46608e-10 
188 1 0.0224213 0.0188553 0.00696477 4.24143e-15 -2.63636e-14 -1.54285e-13 4.98247e-24 3.61892e-25 2.06795e-25 5e-05 1.46608e-10 
189 1 0.0206276 0.0148113 0.0114963 -0.0609075 0.0704701 -0.0899686 0 0 -1.43822e-09 5e-05 1.46608e-10 
190 1 0.0155934 0.0221239 0.0151862 0.00011582 0.0512292 -0.0433106 8.21939e-12 2.6968e-10 -3.54234e-10 5e-05 1.46608e-10 
191 1 0.0237715 0.0192863 0.00692009 1.31743e-15 -4.09633e-14 -2.63448e-13 -1.32074e-24 2.58494e-26 0 5e-05 1.46608e-10 
192 1 0.0180218 0.0199045 0.00699605 1.44249e-07 -2.24521e-07 -3.19723e-08 7.83038e-13 -9.29996e-13 -1.46006e-13 5e-05 1.46608e-10 
193 1 0.0216009 0.0178155 0.00711988 0.00531445 -0.00186242 0.000464543 -4.51419e-11 2.22302e-11 -6.26203e-12 5e-05 1.46608e-10 
194 1 0.0179506 0.0155736 0.0201168 0 -0 -0.03 0 0 0 5e-05 1.46608e-10 
195 1 0.0209782 0.0239637 0.0119667 -0.0146116 -0.0291678 -0.00709233 0 0 -1.43822e-09 5e-05 1.46608e-10 
196 1 0.0150504 0.016932 0.00761837 0.00151588 0.0606453 0.00291342 0 0 -1.43822e-09 5e-05 1.46608e-10 
197 1 0.018635 0.0173842 0.0171303 0 0 -0.162597 0 0 -1.43822e-09 5e-05 1.46608e-10 
198 1 0.0169367 0.0202994 0.0071131 -1.92019e-15 2.50472e-15 -2.62516e-14 -2.17135e-24 -9.56428e-25 0 5e-05 1.46608e-10 
199 1 0.018237 0.0200221 0.0069974 -2.73855e-14 -1.62186e-13 4.04163e-13 9.784e-24 -7.23783e-24 1.40621e-23 5e-05 1.46608e-10 
200 1 0.0170856 0.0198553 0.00705983 -1.91986e-15 2.50495e-15 -2.62516e-14 -1.9387e-25 -5.29913e-24 -6.20385e-25 5e-05 1.46608e-10 
201 1 0.0231437 0.0176511 0.0211134 0 -0 -0.03 0 0 0 5e-05 1.46608e-10 
203 1 0.019886 0.0165115 0.0209262 0 -0 -0.03 0 0 0 5e-05 1.46608e-10 
204 1 0.0174718 0.0196355 0.00701061 -1.92015e-15 2.50454e-15 -2.62517e-14 -7.19906e-24 4.03251e-24 8.27181e-25 5e-05 1.46608e-10 
205 1 0.0157992 0.0235771 0.0131533 0.0100088 0.0020658 -0.0108512 7.86478e-11 3.1893e-11 -5.40317e-11 5e-05 1.46608e-10 
206 1 0.0188428 0.0223694 0.0183063 0 0 -0.0580125 0 0 -1.43822e-09 5e-05 1.46608e-10 
207 1 0.0174807 0.0142208 0.0117317 0.000882367 -0.00171171 0.00284078 1.12792e-10 -2.50223e-11 4.84961e-12 5e-05 1.46608e-10 
208 1 0.0184177 0.0208742 0.00743635 -0.0251564 -0.0925098 -0.0833017 0 0 -1.43822e-09 5e-05 1.46608e-10 
209 1 0.0162249 0.0227667 0.0145536 2.10714e-05 0.0639716 -0.0833741 0 0 -1.43822e-09 5e-05 1.46608e-10 
210 1 0.0209167 0.016402 0.00784923 0.0380313 0.0870754 -0.146095 0 0 -1.43822e-09 5e-05 1.46608e-10 
211 1 0.022105 0.0192178 0.00689412 5.15545e-15 -3.20385e-14 -1.87495e-13 9.0279e-24 1.75776e-24 0 5e-05 1.46608e-10 
212 1 0.0208805 0.0222565 0.0194894 0 -0 -0.03 0 0 0 5e-05 1.46608e-10 
213 1 0.0216632 0.0178929 0.00710838 0.0053127 -0.00185914 0.0004637 -1.97846e-10 1.43474e-10 -1.54703e-11 5e-05 1.46608e-10 
214 1 0.0215408 0.0192261 0.00687719 0.00530414 -0.00179065 0.00045182 -3.41243e-12 -3.16887e-11 5.70965e-12 5e-05 1.46608e-10 
215 1 0.0165843 0.0232854 0.0141314 -0.00327943 0.0686942 -0.188895 0 0 -1.43822e-09 5e-05 1.46608e-10 
216 1 0.0195972 0.0204017 0.019531 0 -0 -0.03 0 0 0 5e-05 1.46608e-10 
217 1 0.0213949 0.0176454 0.00714302 0.00529855 -0.00184626 0.000487674 -7.67089e-11 -7.7734e-11 -7.23168e-12 5e-05 1.46608e-10 
218 1 0.0238348 0.0203469 0.0198133 0 -0 -0.03 0 0 0 5e-05 1.46608e-10 
219 1 0.0221434 0.0194398 0.00685724 4.24142e-15 -2.63636e-14 -1.54285e-13 1.02945e-23 5.16988e-25 2.06795e-25 5e-05 1.46608e-10 
220 1 0.0183172 0.019634 0.00694864 -0.00067408 -0.0244046 -0.00227914 1.23332e-10 5.75341e-10 4.58728e-11 5e-05 1.46608e-10 
221 1 0.0166 0.0237885 0.0123781 0.0124468 0.00171603 -0.0152129 -6.25248e-14 -6.01482e-13 -1.15827e-12 5e-05 1.46608e-10 
222 1 0.0212599 0.0174218 0.0071749 0.00523925 -0.00182483 0.000480704 5.81985e-11 -1.07415e-11 6.64977e-12 5e-05 1.46608e-10 
223 1 0.0182255 0.0199238 0.00698299 1.55746e-14 -2.03034e-14 2.12785e-13 -3.3992e-24 -9.56428e-25 9.51258e-24 5e-05 1.46608e-10 
224 1 0.0170485 0.0202439 0.00709962 -1.92374e-15 2.50292e-15 -2.62515e-14 1.4424e-23 4.78214e-24 -4.1359e-25 5e-05 1.46608e-10 
225 1 0.0234485 0.0170682 0.0194068 0 -0 -0.03 0 0 0 5e-05 1.46608e-10 
226 1 0.0198378 0.0226428 0.0187003 0 -0 -0.03 0 0 0 5e-05 1.46608e-10 
