ITEM: TIMESTEP
14000000
ITEM: NUMBER OF ATOMS
284
ITEM: BOX BOUNDS ff ff ff
-0.02 0.43
-0.02 0.06
-0.02 0.07
ITEM: ATOMS id type x y z vx vy vz fx fy fz radius mass 
1 1 0.0944491 0.0163019 0.00788379 0.00534026 3.50063e-05 -0.00025493 -4.65244e-10 1.43406e-10 -7.96241e-11 5e-05 1.46608e-10 
2 1 0.0948603 0.0172362 0.00720011 0.00567262 -0.000264534 -5.24573e-05 1.68276e-10 1.31605e-10 -3.50023e-11 5e-05 1.46608e-10 
3 1 0.0884371 0.0162183 0.00784536 0.00552882 -5.09891e-05 0.000263705 -8.79076e-11 7.54694e-11 -1.51535e-12 5e-05 1.46608e-10 
4 1 0.0948436 0.0175778 0.00712107 0.00606315 -0.000125355 0.000195233 -8.5907e-11 2.58876e-11 1.96762e-12 5e-05 1.46608e-10 
5 1 0.0943541 0.0162775 0.00790531 0.00548905 -6.94694e-05 -0.000187645 1.58833e-10 4.63597e-11 -3.1318e-11 5e-05 1.46608e-10 
6 1 0.100464 0.0167172 0.00757002 0.00559689 6.89871e-05 -3.72e-05 -1.25125e-10 4.33683e-11 -2.74772e-11 5e-05 1.46608e-10 
7 1 0.0944575 0.0166735 0.00761852 0.00538196 -1.68599e-05 -0.000221789 -1.11328e-11 -7.81343e-12 -1.14851e-11 5e-05 1.46608e-10 
8 1 0.0943693 0.0159838 0.00811395 0.00543498 -1.59161e-05 -0.000222866 -7.85671e-11 -2.82943e-10 2.02544e-10 5e-05 1.46608e-10 
9 1 0.100702 0.0177618 0.00709592 0.00618053 -3.62542e-05 1.48544e-05 -6.2675e-11 -1.9317e-11 4.57236e-12 5e-05 1.46608e-10 
10 1 0.0944705 0.016754 0.00756059 0.00558526 -4.29015e-05 -0.000210844 -5.31784e-11 3.08242e-11 -2.27716e-11 5e-05 1.46608e-10 
11 1 0.0945854 0.0168586 0.00748111 0.00560852 -6.37409e-05 -0.000196216 6.72431e-11 -1.28406e-10 8.47725e-11 5e-05 1.46608e-10 
12 1 0.0946639 0.0171774 0.00725047 0.0056744 -9.19594e-05 -0.000176523 2.13078e-10 -3.14078e-10 4.12749e-10 5e-05 1.46608e-10 
13 1 0.0946659 0.0175873 0.0072071 0.00620814 -6.72581e-05 0.000185161 -1.4036e-10 1.38389e-10 -1.78842e-11 5e-05 1.46608e-10 
14 1 0.0881488 0.0155387 0.00857904 0.00583611 0.000194676 0.000245668 -1.36062e-10 7.0598e-11 -9.55952e-11 5e-05 1.46608e-10 
15 1 0.0945678 0.0171514 0.00727316 0.00564488 -0.000110841 -0.000174337 -2.47543e-11 5.63342e-11 5.42056e-10 5e-05 1.46608e-10 
16 1 0.0881286 0.015484 0.00866029 0.00595593 0.000184265 0.000265626 -1.07097e-11 1.62294e-10 -1.78902e-10 5e-05 1.46608e-10 
17 1 0.0947782 0.0175296 0.00721851 0.00614713 -0.000112121 0.000195475 3.25182e-10 -3.18269e-11 3.56285e-11 5e-05 1.46608e-10 
18 1 0.100598 0.0172867 0.00721164 0.00571246 5.6251e-05 -2.42513e-05 -1.02659e-10 -3.97517e-11 8.20064e-11 5e-05 1.46608e-10 
19 1 0.0943144 0.0161187 0.00802021 0.00552283 -7.79565e-05 -0.000182009 -1.20451e-10 1.70125e-10 -1.14241e-10 5e-05 1.46608e-10 
20 1 0.0947709 0.0174338 0.00724671 0.0061271 -4.63302e-05 0.000185064 1.17164e-10 -2.11396e-10 1.30513e-10 5e-05 1.46608e-10 
21 1 0.0943343 0.0161981 0.00796276 0.00559304 -9.00373e-05 -0.000177092 -7.59389e-11 6.34525e-11 -4.7661e-11 5e-05 1.46608e-10 
22 1 0.0946244 0.0170175 0.00736614 0.00561907 -9.08359e-05 -0.000177318 9.88551e-12 -2.91376e-10 2.05021e-10 5e-05 1.46608e-10 
23 1 0.0884785 0.0168252 0.00760043 0.00546994 1.38367e-05 0.000236808 6.72833e-11 1.95377e-10 -6.48974e-11 5e-05 1.46608e-10 
24 1 0.100681 0.0176669 0.00711893 0.00616292 -3.89565e-05 1.57466e-05 2.57196e-11 -1.23395e-10 2.9768e-11 5e-05 1.46608e-10 
25 1 0.0945519 0.0166983 0.00759679 0.00543036 -7.22732e-05 -0.000182877 -1.92101e-10 1.74057e-10 -1.14975e-10 5e-05 1.46608e-10 
26 1 0.10054 0.0170162 0.00731559 0.00570407 5.83692e-05 -2.9955e-05 2.08076e-10 -6.23869e-11 -3.24711e-11 5e-05 1.46608e-10 
27 1 0.0884005 0.0164605 0.00774526 0.00550224 3.15443e-05 0.000231665 5.39991e-11 -9.34765e-12 -2.96443e-11 5e-05 1.46608e-10 
28 1 0.0946589 0.0173204 0.00726709 0.00577846 -5.18313e-06 -0.00015627 3.187e-10 -2.28918e-10 -4.97456e-11 5e-05 1.46608e-10 
29 1 0.0944686 0.0163814 0.0078263 0.00544101 2.15107e-05 -0.00024983 -2.55074e-10 1.49415e-10 -9.81262e-11 5e-05 1.46608e-10 
30 1 0.0948211 0.0174825 0.00714144 0.00613119 -0.000139295 0.000201973 2.78531e-10 -4.39223e-11 1.5368e-11 5e-05 1.46608e-10 
31 1 0.0945483 0.0170719 0.00733064 0.00563405 -9.61699e-05 -0.000177608 7.41047e-11 -1.87026e-10 9.54093e-11 5e-05 1.46608e-10 
32 1 0.0946053 0.016938 0.00742366 0.00562363 -7.86844e-05 -0.000186537 1.38092e-11 -2.22702e-10 1.59366e-10 5e-05 1.46608e-10 
33 1 0.100483 0.016792 0.0075064 0.00562904 6.2903e-05 -3.27588e-05 1.81758e-10 6.86261e-11 -8.05131e-12 5e-05 1.46608e-10 
34 1 0.0944659 0.0167652 0.00765985 0.0055674 -8.02342e-05 -0.000210402 -4.68576e-11 7.7722e-11 -2.15178e-11 5e-05 1.46608e-10 
36 1 0.100724 0.0178567 0.00707291 0.00618766 -4.12864e-05 1.59937e-05 9.39583e-12 3.84682e-11 -7.26971e-12 5e-05 1.46608e-10 
37 1 0.0944899 0.0168335 0.00750311 0.00560625 -4.94103e-05 -0.000205807 9.70991e-11 4.09991e-11 -3.27978e-11 5e-05 1.46608e-10 
38 1 0.0946438 0.017097 0.00730865 0.00561407 -0.000109028 -0.000166665 8.34185e-11 -2.17044e-10 2.62105e-10 5e-05 1.46608e-10 
39 1 0.100659 0.0175721 0.00714194 0.00615921 -4.03022e-05 1.55999e-05 1.40817e-10 -1.05092e-11 -1.44113e-11 5e-05 1.46608e-10 
41 1 0.0943737 0.0163569 0.00784782 0.00537864 -5.19024e-05 -0.000194747 -3.54039e-10 3.01078e-10 -2.00168e-10 5e-05 1.46608e-10 
42 1 0.0945292 0.0169924 0.0073882 0.00562768 -7.62549e-05 -0.000185543 -3.55857e-11 -1.61371e-10 1.2985e-10 5e-05 1.46608e-10 
44 1 0.0947604 0.0172087 0.0072353 0.00568425 -8.54922e-05 7.73085e-05 2.40617e-10 -3.52682e-11 1.32238e-10 5e-05 1.46608e-10 
45 1 0.100521 0.0169415 0.00737918 0.00566627 6.08259e-05 -3.41488e-05 -1.4697e-10 -1.44841e-10 -2.72583e-12 5e-05 1.46608e-10 
46 1 0.100579 0.0171914 0.00723519 0.00568799 5.8693e-05 -2.35141e-05 -1.455e-10 -1.15416e-10 2.2193e-11 5e-05 1.46608e-10 
47 1 0.0944128 0.0165158 0.00773286 0.00545151 -6.14537e-05 -0.000191342 -6.01274e-11 2.36241e-10 -1.59103e-10 5e-05 1.46608e-10 
48 1 0.0947416 0.017126 0.00728819 0.00561876 -0.000121346 -2.75555e-05 2.96612e-10 -4.9652e-11 1.95269e-10 5e-05 1.46608e-10 
49 1 0.10056 0.0170962 0.00725874 0.00571342 5.09556e-05 -2.19437e-05 1.86287e-10 3.02017e-11 -1.28439e-11 5e-05 1.46608e-10 
50 1 0.0947016 0.0173534 0.00716658 0.00560715 -7.57288e-06 0.000162349 3.79182e-11 -1.29617e-10 1.10193e-10 5e-05 1.46608e-10 
51 1 0.0947963 0.0173878 0.00716164 0.00606497 -0.000121543 0.000199914 1.40855e-10 8.85916e-12 7.33303e-12 5e-05 1.46608e-10 
52 1 0.0947657 0.0179739 0.00714907 0.00614118 -8.03989e-05 0.000187253 2.1562e-11 -5.66156e-11 9.08813e-11 5e-05 1.46608e-10 
53 1 0.100618 0.0173819 0.00718812 0.00595101 7.67769e-06 -5.45646e-06 -9.36729e-12 7.32826e-11 7.19507e-11 5e-05 1.46608e-10 
54 1 0.0944294 0.0162223 0.00794137 0.00563299 4.96853e-05 -0.000278658 -1.71745e-10 2.82696e-10 -1.66188e-10 5e-05 1.46608e-10 
55 1 0.0881873 0.0156543 0.00842064 0.00570361 -4.33084e-05 8.60495e-05 -6.93134e-11 -9.4375e-11 3.43923e-10 5e-05 1.46608e-10 
56 1 0.0945094 0.016913 0.00744562 0.00561334 -6.23862e-05 -0.000197237 7.86441e-11 -9.77286e-11 8.49081e-11 5e-05 1.46608e-10 
57 1 0.100502 0.0168667 0.00744279 0.00563705 5.7635e-05 -3.25542e-05 1.6227e-10 -1.03913e-10 5.59755e-11 5e-05 1.46608e-10 
59 1 0.0946841 0.0168853 0.00745778 0.00550262 -0.000149893 -0.000130364 -4.17335e-10 -6.59349e-11 8.09026e-11 5e-05 1.46608e-10 
60 1 0.0947026 0.016965 0.00740021 0.00546916 -0.000143856 -0.000136889 -1.08597e-11 -9.30632e-11 1.39415e-10 5e-05 1.46608e-10 
61 1 0.0943932 0.0164364 0.00779034 0.00535969 -4.97548e-05 -0.00019478 8.33537e-12 3.16218e-10 -2.28291e-10 5e-05 1.46608e-10 
62 1 0.0949477 0.0178209 0.00715876 0.00612416 -0.00014512 0.000190157 -1.95982e-11 3.17572e-11 4.05867e-11 5e-05 1.46608e-10 
63 1 0.0947218 0.0170447 0.00734304 0.00553859 -0.000144579 -0.000110466 3.5186e-10 -1.26201e-10 2.17155e-10 5e-05 1.46608e-10 
64 1 0.100637 0.0174772 0.00716495 0.00615692 -3.33337e-05 1.19827e-05 -6.57382e-11 1.10493e-10 -1.9093e-11 5e-05 1.46608e-10 
65 1 0.0884394 0.0166429 0.00767284 0.00547573 -5.33439e-05 0.000265595 3.43347e-11 -3.01688e-12 -1.12775e-11 5e-05 1.46608e-10 
66 1 0.0886692 0.0175134 0.00735034 0.00598072 -0.000397298 -0.000108999 8.6344e-11 -3.71041e-10 -6.03082e-12 5e-05 1.46608e-10 
67 1 0.0949027 0.0174265 0.00715605 0.00608024 -0.000205556 0.000213991 2.72982e-10 -9.95514e-11 2.67037e-11 5e-05 1.46608e-10 
68 1 0.0946816 0.0172587 0.00719174 0.00566599 -0.000111371 -0.000146258 4.56979e-10 -3.54245e-10 1.94903e-10 5e-05 1.46608e-10 
69 1 0.094566 0.0167791 0.0075386 0.00559679 -5.06875e-05 -0.000204641 7.93803e-11 -4.03011e-11 2.68058e-11 5e-05 1.46608e-10 
70 1 0.0946407 0.0174299 0.0072486 0.00564133 2.47762e-05 0.000156555 2.21428e-10 5.83856e-11 -3.61566e-11 5e-05 1.46608e-10 
71 1 0.0881674 0.0155935 0.00849747 0.00572696 0.000180898 0.000227696 -1.1205e-10 -1.57601e-10 4.76352e-11 5e-05 1.46608e-10 
72 1 0.0948209 0.0177207 0.00717757 0.00612757 -0.00011511 0.000196957 6.41657e-11 4.3846e-11 -6.50411e-12 5e-05 1.46608e-10 
73 1 0.0948003 0.017625 0.00719791 0.00612314 -0.000107021 0.00021395 -6.95862e-11 9.92996e-11 -3.01121e-11 5e-05 1.46608e-10 
74 1 0.0948458 0.0180222 0.00702318 0.00620083 -0.000107476 0.000196306 3.71349e-11 -4.1272e-11 2.88218e-11 5e-05 1.46608e-10 
76 1 0.08911 0.0183422 0.00694852 0.00557876 -0.000319028 0.000280026 2.08892e-10 5.68828e-11 5.68179e-12 5e-05 1.46608e-10 
77 1 0.0948017 0.0181908 0.00698481 0.00620699 -0.000105185 0.000195244 -4.63149e-11 -8.30927e-11 4.64518e-11 5e-05 1.46608e-10 
78 1 0.088266 0.0159088 0.00812236 0.00557412 -0.000230578 1.29832e-06 3.70902e-11 -1.5527e-10 2.87367e-10 5e-05 1.46608e-10 
79 1 0.0884991 0.0169148 0.00756131 0.00576288 -0.00026782 -0.000188361 4.953e-11 1.32295e-10 -6.7309e-11 5e-05 1.46608e-10 
80 1 0.0946873 0.0176831 0.00718674 0.00620682 -8.64357e-05 0.00018701 -1.64802e-11 1.71484e-10 1.52039e-11 5e-05 1.46608e-10 
81 1 0.0884199 0.0165517 0.00770905 0.00552222 5.02807e-05 0.000224857 2.4068e-11 1.69372e-12 5.88087e-14 5e-05 1.46608e-10 
82 1 0.088459 0.016734 0.00763663 0.00548512 4.52519e-06 0.000240906 1.0632e-11 1.17282e-10 -4.00097e-11 5e-05 1.46608e-10 
83 1 0.0883618 0.0162781 0.00781771 0.00550634 -7.11535e-05 0.000268656 -1.02986e-10 -2.4438e-10 3.47929e-11 5e-05 1.46608e-10 
84 1 0.100746 0.0179515 0.0070499 0.00619811 -4.48462e-05 1.70352e-05 -3.12603e-11 2.33645e-11 -6.34802e-12 5e-05 1.46608e-10 
85 1 0.0942745 0.0159599 0.0081351 0.00581545 -0.000110325 -0.000175411 -3.15675e-10 3.08871e-10 -2.15619e-10 5e-05 1.46608e-10 
86 1 0.0947446 0.017545 0.00712556 0.00618079 -8.3251e-05 0.000185587 1.18509e-10 -5.47262e-11 -1.61184e-11 5e-05 1.46608e-10 
87 1 0.0948426 0.0171564 0.00725774 0.005627 -0.000245589 -6.76638e-05 2.37733e-10 -1.3107e-11 -4.13354e-11 5e-05 1.46608e-10 
88 1 0.0949143 0.0180749 0.00707769 0.00623298 -9.38475e-05 0.000168378 -2.08099e-11 8.05693e-13 -1.33145e-10 5e-05 1.46608e-10 
89 1 0.0947879 0.0177366 0.00708452 0.00615357 -9.56645e-05 0.000191824 1.8236e-11 2.12821e-11 -6.08723e-12 5e-05 1.46608e-10 
90 1 0.0949502 0.0177232 0.00709199 0.0061356 -0.000157842 0.000205386 2.11767e-11 -4.21089e-11 8.26812e-12 5e-05 1.46608e-10 
91 1 0.094607 0.0173245 0.00718168 0.00566252 -8.23705e-05 -9.00688e-05 2.53852e-10 -1.69047e-10 -2.6741e-10 5e-05 1.46608e-10 
92 1 0.0949901 0.0179051 0.007053 0.00616143 -0.000149198 0.000202717 -2.2875e-11 -6.85455e-11 1.2344e-11 5e-05 1.46608e-10 
93 1 0.094753 0.0179769 0.0070306 0.00620717 -8.35022e-05 0.000189121 1.88418e-11 1.60408e-11 1.25578e-11 5e-05 1.46608e-10 
94 1 0.0947665 0.0176406 0.00710509 0.00617975 -0.000101331 0.000193291 -9.7991e-12 1.04969e-10 -1.31489e-11 5e-05 1.46608e-10 
95 1 0.0946692 0.0176085 0.00710945 0.0061939 -7.30847e-05 0.000185882 4.34931e-12 -1.9755e-11 -4.44831e-12 5e-05 1.46608e-10 
96 1 0.0947122 0.0178017 0.00709091 0.00617125 -7.8022e-05 0.000187182 2.44693e-11 5.95754e-11 -2.0831e-11 5e-05 1.46608e-10 
97 1 0.0886161 0.0170289 0.00749987 0.00580895 -0.00032455 -0.000166797 -2.46306e-11 -1.44235e-11 -3.52904e-11 5e-05 1.46608e-10 
98 1 0.094877 0.0182373 0.00703127 0.00626063 -6.76458e-05 7.60316e-05 -9.29474e-11 -5.14753e-12 -2.69714e-11 5e-05 1.46608e-10 
99 1 0.0885207 0.0170021 0.0075176 0.00579706 -0.000295747 -0.000199973 2.3572e-11 -6.64994e-11 -5.84943e-11 5e-05 1.46608e-10 
100 1 0.0949396 0.0179891 0.00703309 0.00619242 -0.00012915 0.0002021 2.3837e-11 -8.11337e-11 3.37403e-11 5e-05 1.46608e-10 
101 1 0.0884757 0.0164007 0.00777292 0.00549311 -4.41387e-05 0.000261456 1.13353e-11 3.31656e-11 -6.36179e-12 5e-05 1.46608e-10 
102 1 0.0694385 0.0202053 0.00537268 4.01145e-15 4.40164e-15 -7.68278e-14 1.61149e-21 2.50713e-22 9.90549e-23 5e-05 1.46608e-10 
104 1 0.0885747 0.0168554 0.00759015 0.00565925 -0.000114778 0.000128747 1.11827e-12 -4.45374e-11 -2.15659e-10 5e-05 1.46608e-10 
105 1 0.0883226 0.0161 0.00789951 0.00569505 -0.000240278 4.10788e-05 1.64396e-11 -3.13927e-10 -1.70794e-10 5e-05 1.46608e-10 
106 1 0.0886791 0.0172907 0.00736739 0.00590048 -0.000427816 -0.000118026 2.23383e-10 -5.23837e-11 -5.234e-11 5e-05 1.46608e-10 
107 1 0.0882887 0.0159789 0.0080547 0.005604 -0.000244546 1.59828e-05 2.19708e-10 -1.14752e-10 2.79167e-10 5e-05 1.46608e-10 
108 1 0.0944446 0.0166855 0.00771696 0.00535018 -5.39445e-05 -0.000223556 -6.17745e-12 -6.11403e-11 -1.8784e-12 5e-05 1.46608e-10 
109 1 0.0946266 0.0174175 0.00715038 0.00561088 2.21945e-05 0.00015695 -5.68049e-11 -1.47137e-10 2.47128e-12 5e-05 1.46608e-10 
110 1 0.0946909 0.017704 0.00708902 0.0061965 -7.90451e-05 0.000188832 1.40335e-11 7.5782e-11 -2.66085e-11 5e-05 1.46608e-10 
111 1 0.0949198 0.0183161 0.0069548 0.00621797 -0.000148812 5.62886e-05 -2.49237e-11 -8.93968e-11 1.58845e-11 5e-05 1.46608e-10 
112 1 0.0883812 0.0163693 0.00778149 0.00549699 -6.06143e-05 0.000269671 -2.55748e-11 -1.20364e-10 2.25704e-12 5e-05 1.46608e-10 
113 1 0.0886928 0.0169694 0.00752386 0.00577685 -0.000350208 -0.000149192 1.56813e-11 5.03469e-11 -9.49393e-12 5e-05 1.46608e-10 
115 1 0.0946474 0.0175131 0.00713001 0.00618452 -7.53028e-05 0.000181832 9.18298e-12 -8.80537e-11 2.58321e-11 5e-05 1.46608e-10 
116 1 0.0946646 0.0168059 0.00751527 0.00554814 -0.000163389 -0.000122354 -2.75169e-10 -1.27335e-10 9.45557e-11 5e-05 1.46608e-10 
117 1 0.0945329 0.0166186 0.00765441 0.00539611 5.19862e-06 -0.000238153 -1.13032e-10 -1.11587e-10 5.42642e-11 5e-05 1.46608e-10 
118 1 0.0882276 0.0157811 0.00827134 0.00566072 -0.000228785 -7.19023e-06 -5.12053e-11 -4.25063e-10 1.99646e-10 5e-05 1.46608e-10 
119 1 0.0949251 0.0175218 0.00713567 0.00603704 -0.00016271 0.000202083 -1.6096e-10 1.81515e-11 -1.86777e-12 5e-05 1.46608e-10 
120 1 0.0942944 0.0160393 0.00807765 0.00539954 -5.25557e-05 -0.00019465 8.20812e-10 -4.66666e-10 3.64448e-10 5e-05 1.46608e-10 
121 1 0.0943893 0.0160632 0.00805651 0.00553555 -6.94731e-05 -0.000188703 -2.99683e-10 1.92123e-10 -1.21809e-10 5e-05 1.46608e-10 
122 1 0.0948035 0.0178332 0.00706368 0.00611165 -9.21123e-05 0.000188094 -3.89587e-11 -5.8152e-12 4.31213e-12 5e-05 1.46608e-10 
123 1 0.0883425 0.0161878 0.0078561 0.00552964 -0.000101396 0.000221223 -9.41152e-11 -1.66093e-10 9.20614e-11 5e-05 1.46608e-10 
124 1 0.0947506 0.0177917 0.00718269 0.00616306 -7.80326e-05 0.000187762 -1.24978e-11 1.54713e-11 -3.06094e-12 5e-05 1.46608e-10 
125 1 0.0944092 0.0161427 0.00799903 0.00564144 -4.11348e-05 -0.00021308 -1.47198e-10 3.74413e-12 3.14066e-12 5e-05 1.46608e-10 
126 1 0.0945874 0.0172356 0.00722297 0.00565521 -0.000102158 -0.000137593 4.19444e-11 3.32122e-11 3.44402e-10 5e-05 1.46608e-10 
127 1 0.0888742 0.0175665 0.0073079 0.00600392 -0.000449711 -9.07659e-05 4.85214e-10 -1.82395e-10 3.08189e-10 5e-05 1.46608e-10 
128 1 0.0948638 0.0176736 0.00710052 0.00611785 -0.00013324 0.000199363 -6.9343e-12 -7.39916e-12 7.22442e-12 5e-05 1.46608e-10 
129 1 0.0947336 0.0178994 0.00709074 0.00613298 -6.9181e-05 0.000177319 -2.59185e-11 1.00855e-11 3.27125e-11 5e-05 1.46608e-10 
131 1 0.0885959 0.016943 0.00754687 0.00577205 -0.000258238 -8.2029e-05 2.29027e-11 -4.98956e-11 -1.32652e-10 5e-05 1.46608e-10 
132 1 0.0948997 0.0178072 0.00707207 0.00610205 -0.000123979 0.000197122 -7.17141e-12 3.83823e-12 1.09002e-11 5e-05 1.46608e-10 
133 1 0.0944882 0.0164609 0.0077688 0.00549377 8.3745e-06 -0.000242506 -1.71584e-10 2.10782e-10 -1.46559e-10 5e-05 1.46608e-10 
134 1 0.09502 0.0175531 0.00713141 0.00605357 -0.000199611 0.000211889 -9.22957e-11 -2.99201e-11 4.63741e-12 5e-05 1.46608e-10 
135 1 0.0946085 0.0165638 0.00769022 0.00532222 -5.25372e-05 -0.000191674 -4.57924e-10 5.56719e-12 1.78821e-11 5e-05 1.46608e-10 
136 1 0.0882487 0.0158447 0.00819708 0.00560054 -0.000224947 -1.90067e-06 -2.29571e-10 -2.55583e-10 2.24922e-10 5e-05 1.46608e-10 
137 1 0.0948234 0.0182857 0.00696212 0.00622113 -0.00013949 5.47062e-05 -3.43274e-11 -4.19378e-12 -3.37227e-11 5e-05 1.46608e-10 
138 1 0.0948771 0.0181271 0.00700094 0.00619673 -9.68847e-05 0.000190564 -2.59001e-11 7.17438e-11 -2.18136e-11 5e-05 1.46608e-10 
140 1 0.094722 0.0174547 0.00716201 0.00614918 -6.33959e-05 0.000187623 9.41839e-11 -3.86449e-11 1.03028e-10 5e-05 1.46608e-10 
141 1 0.0884177 0.0161271 0.00788157 0.00556133 -5.24133e-05 0.000260989 1.04343e-10 5.6718e-11 2.11833e-11 5e-05 1.46608e-10 
142 1 0.0885146 0.016583 0.00770051 0.00546357 -3.26992e-05 0.000254565 4.59074e-11 1.66139e-11 -3.6287e-11 5e-05 1.46608e-10 
143 1 0.0883036 0.016036 0.00797402 0.00565711 -0.000250183 3.09994e-05 9.24372e-11 -1.64704e-10 1.35871e-10 5e-05 1.46608e-10 
146 1 0.0885899 0.0165232 0.00772815 0.00545587 -2.62883e-05 0.000252401 5.50205e-11 2.31356e-11 -2.639e-11 5e-05 1.46608e-10 
147 1 0.0882072 0.0157174 0.00834568 0.00574437 -0.000223038 -1.13397e-05 -1.03048e-10 -1.07643e-10 4.65208e-10 5e-05 1.46608e-10 
148 1 0.00854257 0.0177195 0.00784013 -1.67849e-09 -0.0226237 0.00821102 -2.4192e-14 6.33604e-12 2.08148e-11 5e-05 1.46608e-10 
149 1 0.0949089 0.0178998 0.00711113 0.0061515 -0.00013444 0.000185192 -6.22305e-11 -4.90607e-11 5.794e-13 5e-05 1.46608e-10 
150 1 0.0884952 0.0164918 0.00773671 0.00546893 -3.81523e-05 0.000257679 3.66094e-11 2.07935e-11 -5.34716e-12 5e-05 1.46608e-10 
151 1 0.0889681 0.0173098 0.00734199 0.00600173 -0.000421094 -0.000127535 7.71172e-10 -3.48174e-10 1.39268e-10 5e-05 1.46608e-10 
153 1 0.0885704 0.0164321 0.00776436 0.0054817 -2.4633e-05 0.00025284 1.33176e-10 -1.7742e-11 1.45665e-11 5e-05 1.46608e-10 
154 1 0.0887211 0.0174654 0.00727955 0.00596618 -0.000446926 -0.000110244 5.18312e-10 -1.95251e-10 7.43644e-11 5e-05 1.46608e-10 
155 1 0.0827947 0.0177655 0.00721671 0.00645859 0.000688129 -0.000653968 3.41939e-13 5.92204e-12 -3.79756e-12 5e-05 1.46608e-10 
156 1 0.088604 0.0173516 0.00734175 0.0059116 -0.000391244 -0.000136136 7.62978e-11 1.47715e-10 -5.29958e-11 5e-05 1.46608e-10 
157 1 0.088782 0.0177304 0.00714931 0.00603395 -0.000451117 -0.00012616 3.2293e-10 -6.45104e-11 -1.8951e-11 5e-05 1.46608e-10 
158 1 0.0888272 0.0171056 0.00744975 0.00579455 -0.000370446 -0.000140001 5.96392e-10 9.90403e-11 -9.16148e-11 5e-05 1.46608e-10 
159 1 0.0949758 0.0181122 0.00700611 0.00625193 0.000257225 -4.51009e-05 -4.19455e-11 6.79612e-11 1.28909e-11 5e-05 1.46608e-10 
160 1 0.0886879 0.017701 0.00716612 0.00603599 -0.000449703 -0.00011531 2.32921e-10 1.53761e-10 3.79974e-11 5e-05 1.46608e-10 
162 1 0.0886371 0.0171159 0.00745526 0.00583603 -0.000344645 -0.000155868 -1.9307e-10 -4.50463e-11 3.79572e-11 5e-05 1.46608e-10 
163 1 0.0888481 0.017193 0.00740583 0.00592065 -0.000433159 -0.000117045 6.69167e-10 -1.79107e-10 3.74088e-11 5e-05 1.46608e-10 
164 1 0.0889287 0.0178373 0.00708604 0.00613798 -0.000488031 -9.8986e-05 5.05935e-11 5.52133e-11 3.34646e-12 5e-05 1.46608e-10 
165 1 0.0887495 0.0168234 0.00759218 0.00567848 -0.000387365 -0.000127934 4.63089e-11 5.66736e-11 -2.4714e-11 5e-05 1.46608e-10 
166 1 0.0942334 0.0158014 0.00824988 0.00580968 -9.26461e-05 -0.000185074 2.36401e-13 7.08097e-11 -5.27465e-11 5e-05 1.46608e-10 
167 1 0.0886094 0.0166144 0.00769195 0.00545226 -3.33204e-05 0.000254404 2.80927e-11 8.6739e-11 -4.52074e-11 5e-05 1.46608e-10 
168 1 0.0887423 0.0175527 0.00723565 0.00597228 -0.000488394 -8.71114e-05 2.10459e-10 -2.09033e-11 2.21994e-12 5e-05 1.46608e-10 
169 1 0.0888902 0.0173677 0.00731801 0.0059939 -0.000434906 -0.000117788 3.70889e-10 -6.3856e-10 2.80351e-10 5e-05 1.46608e-10 
170 1 0.088822 0.0174969 0.00725856 0.00597539 -0.000480889 -9.42534e-05 3.45874e-10 -8.36797e-11 5.57496e-12 5e-05 1.46608e-10 
171 1 0.0946274 0.0166434 0.00763268 0.00544046 -7.16376e-05 -0.000182948 -1.69143e-10 5.57919e-11 -4.1373e-11 5e-05 1.46608e-10 
172 1 0.089015 0.0175909 0.00720182 0.00599834 -0.000513611 -8.14479e-05 5.17522e-10 -3.76089e-10 1.85845e-10 5e-05 1.46608e-10 
173 1 0.0948778 0.0173317 0.00717626 0.00593857 -0.000264594 0.000219413 2.62775e-11 -4.49179e-11 -1.00483e-10 5e-05 1.46608e-10 
174 1 0.0887103 0.0177977 0.007178 0.00604274 -0.000429136 -0.000135195 2.38417e-10 4.33241e-11 6.66924e-11 5e-05 1.46608e-10 
175 1 0.0856395 0.0177804 0.00713176 0.00559657 -0.000240674 5.70468e-05 -7.37058e-13 6.66851e-13 -2.28109e-13 5e-05 1.46608e-10 
176 1 0.0885832 0.0172645 0.00738615 0.00588387 -0.000355822 -0.000151938 5.24747e-11 9.33954e-11 -6.10824e-11 5e-05 1.46608e-10 
177 1 0.0891603 0.0181482 0.0069253 0.00618612 -0.000439091 0.000300707 3.68422e-10 8.40986e-11 7.26757e-11 5e-05 1.46608e-10 
178 1 0.0890119 0.0174864 0.00725318 0.00608395 -0.000420699 -0.000131714 1.80079e-10 -3.75623e-10 1.40087e-10 5e-05 1.46608e-10 
179 1 0.0826521 0.0175636 0.00731027 0.00607736 0.000298814 -0.000467333 2.04544e-13 3.01368e-12 -2.43466e-12 5e-05 1.46608e-10 
180 1 0.0887583 0.0172343 0.00739061 0.00591591 -0.000426906 -0.000118809 4.16513e-10 -2.03978e-10 1.36399e-10 5e-05 1.46608e-10 
181 1 0.0888006 0.0174093 0.00730261 0.00598119 -0.000442679 -0.000115664 3.94465e-10 -5.22897e-10 2.11342e-10 5e-05 1.46608e-10 
182 1 0.0948047 0.0169973 0.0073728 0.00547707 -0.000219387 -7.45182e-05 6.12215e-10 -8.52742e-11 5.54262e-11 5e-05 1.46608e-10 
183 1 0.0889115 0.017455 0.00727411 0.00599008 -0.000447564 -0.000112626 3.31688e-10 -3.98669e-10 1.39324e-10 5e-05 1.46608e-10 
184 1 0.0947799 0.0180953 0.00700524 0.00620766 -0.000102731 0.000193629 -9.95322e-12 -8.43198e-11 2.77948e-11 5e-05 1.46608e-10 
185 1 0.088625 0.017439 0.00729785 0.00595046 -0.000414229 -0.000124809 1.45176e-10 1.80032e-10 -5.66263e-11 5e-05 1.46608e-10 
186 1 0.0886581 0.0172033 0.00741135 0.00585087 -0.000363864 -0.000146989 -2.83352e-10 -1.81686e-10 1.06646e-10 5e-05 1.46608e-10 
187 1 0.0948243 0.0170767 0.00731533 0.0055663 -0.000230525 -7.45335e-05 3.00883e-10 -5.80711e-11 3.84403e-11 5e-05 1.46608e-10 
188 1 0.0948387 0.0179248 0.00704446 0.00614944 -0.000104637 0.000194192 -4.64086e-11 -2.1956e-11 2.4789e-11 5e-05 1.46608e-10 
189 1 0.0945072 0.0165405 0.00771123 0.0054194 4.00672e-06 -0.000236142 -4.65388e-10 -1.92964e-11 2.63358e-11 5e-05 1.46608e-10 
190 1 0.0891806 0.0182715 0.00694309 0.00572475 -0.000181176 0.000306893 -6.55944e-12 -4.88557e-11 6.23156e-11 5e-05 1.46608e-10 
191 1 0.094845 0.0183804 0.00693843 0.00622705 -0.000140802 5.37337e-05 3.0153e-11 7.30223e-11 -1.76926e-11 5e-05 1.46608e-10 
192 1 0.0887001 0.0173781 0.00732347 0.0059426 -0.000437791 -0.000115216 9.20839e-11 -2.61425e-10 1.24046e-10 5e-05 1.46608e-10 
193 1 0.0948651 0.0184755 0.00691464 0.00565234 -2.42147e-05 2.33889e-05 -1.09274e-11 8.12027e-11 -2.86994e-11 5e-05 1.46608e-10 
194 1 0.0885341 0.0166742 0.00766436 0.00547083 -2.01271e-05 0.000251155 -1.90693e-11 7.9686e-11 -3.37038e-11 5e-05 1.46608e-10 
195 1 0.0888429 0.0175843 0.00721461 0.00601505 -0.000473173 -0.000101154 2.12474e-10 -2.549e-10 1.94296e-10 5e-05 1.46608e-10 
196 1 0.0881069 0.0154294 0.00874123 0.00613544 0.000168238 0.000305676 2.2235e-11 1.1953e-10 -1.95147e-10 5e-05 1.46608e-10 
197 1 0.0887754 0.0179284 0.00714321 0.00610528 -0.000433307 -0.000148287 1.93186e-10 5.757e-10 -1.2637e-10 5e-05 1.46608e-10 
198 1 0.0885411 0.0170895 0.00747349 0.00582369 -0.000304706 -0.000177673 -4.09467e-11 -4.30516e-11 3.67651e-11 5e-05 1.46608e-10 
199 1 0.0886673 0.0176143 0.00721156 0.00600409 -0.000448272 -0.00010912 1.97785e-10 1.11829e-10 -6.9962e-12 5e-05 1.46608e-10 
200 1 0.0885536 0.0167653 0.00762811 0.00550673 -2.32535e-05 0.00025193 -9.37671e-11 5.40206e-11 -1.00136e-10 5e-05 1.46608e-10 
201 1 0.0890227 0.0182947 0.00693708 0.00572007 -0.000503132 0.000263075 2.11722e-10 3.30787e-11 2.80668e-12 5e-05 1.46608e-10 
203 1 0.0950002 0.017808 0.00707468 0.00613792 -0.0001562 0.000203768 -4.89073e-11 -1.20861e-11 1.7468e-11 5e-05 1.46608e-10 
204 1 0.0886723 0.016882 0.0075678 0.00572672 -0.000334289 -0.000150397 9.78629e-11 3.84485e-11 3.8106e-12 5e-05 1.46608e-10 
205 1 0.0887655 0.0180201 0.00710451 0.00610167 -0.000426195 -0.000138604 -6.037e-11 4.95585e-10 -3.45812e-10 5e-05 1.46608e-10 
206 1 0.0887642 0.0176413 0.0071911 0.00601767 -0.000463666 -0.000108164 1.94353e-10 -2.17547e-10 1.18354e-10 5e-05 1.46608e-10 
207 1 0.088551 0.0163409 0.00780056 0.00551318 -2.83452e-05 0.000255813 6.80944e-11 -7.0842e-11 1.24395e-11 5e-05 1.46608e-10 
208 1 0.088646 0.0175263 0.00725393 0.00597507 -0.000435581 -0.000115916 3.16547e-10 1.50468e-10 -7.17495e-11 5e-05 1.46608e-10 
209 1 0.0826748 0.0176609 0.00730642 0.00608313 0.000298011 -0.000489938 -2.69791e-11 5.50204e-12 -5.81438e-11 5e-05 1.46608e-10 
210 1 0.0942539 0.0158806 0.00819249 0.00581548 -8.9916e-05 -0.000191188 -2.84348e-10 2.46679e-10 -8.98043e-11 5e-05 1.46608e-10 
211 1 0.0947857 0.0180573 0.00709754 0.00618055 -9.00037e-05 0.000194719 -2.41094e-12 -9.60472e-11 4.49418e-11 5e-05 1.46608e-10 
212 1 0.0889895 0.0173972 0.00729806 0.00603475 -0.000398032 -0.000139495 1.83723e-10 -7.72772e-11 3.93808e-11 5e-05 1.46608e-10 
213 1 0.0950323 0.0176679 0.00710646 0.00612833 -0.000166079 0.000206718 6.64196e-11 1.46157e-11 -3.12611e-12 5e-05 1.46608e-10 
214 1 0.0948162 0.0178876 0.00714657 0.00613562 -7.74276e-05 0.000172149 5.19154e-11 -2.27663e-11 6.72877e-12 5e-05 1.46608e-10 
215 1 0.0887373 0.0171468 0.0074346 0.00579245 -0.000393777 -0.00012818 8.25442e-12 -7.31496e-11 1.76402e-11 5e-05 1.46608e-10 
216 1 0.0887912 0.0169983 0.00750428 0.00581099 -0.000380484 -0.000136284 6.76205e-11 -1.16747e-10 7.54313e-11 5e-05 1.46608e-10 
217 1 0.0946448 0.0167265 0.00757272 0.00549898 -0.000165034 -0.000118554 1.38631e-12 -2.01394e-10 1.31326e-10 5e-05 1.46608e-10 
218 1 0.0888732 0.0177637 0.00712516 0.00604953 -0.000470534 -0.000104877 1.50232e-10 -1.37363e-10 8.42358e-11 5e-05 1.46608e-10 
219 1 0.0947964 0.0181599 0.00707979 0.00621885 -0.000112783 0.000189917 -4.33994e-11 -3.24552e-11 1.31957e-10 5e-05 1.46608e-10 
220 1 0.0887139 0.0170569 0.00747987 0.00583367 -0.000356531 -0.00014974 -1.25288e-11 -5.59266e-11 8.30818e-12 5e-05 1.46608e-10 
221 1 0.0825455 0.017116 0.00750591 0.00595157 0.000326046 -0.000472087 1.45667e-12 -6.33359e-13 -5.69436e-13 5e-05 1.46608e-10 
222 1 0.0944316 0.0165954 0.00767532 0.0055474 -7.13043e-05 -0.000190234 3.63976e-11 1.70717e-10 -1.1197e-10 5e-05 1.46608e-10 
223 1 0.0887796 0.017322 0.00734653 0.00595149 -0.0004275 -0.000120711 5.13684e-10 -2.60406e-10 1.21718e-10 5e-05 1.46608e-10 
224 1 0.0885621 0.0171771 0.00742999 0.00585712 -0.000327251 -0.000165561 -1.27541e-10 -7.49153e-12 -3.06394e-11 5e-05 1.46608e-10 
225 1 0.0949455 0.0176177 0.0071151 0.00608724 -0.00016877 0.000206067 -3.32476e-11 -6.51744e-12 -4.09954e-12 5e-05 1.46608e-10 
226 1 0.0887701 0.0169108 0.00754824 0.00571409 -0.000411004 -0.000116361 7.80509e-11 9.47991e-11 -5.19985e-11 5e-05 1.46608e-10 
227 1 0.0826095 0.0173845 0.00738853 0.00602671 0.000309299 -0.000469215 -7.826e-13 -1.97703e-12 1.11215e-12 5e-05 1.46608e-10 
228 1 0.0507861 0.0189683 0.00558458 -5.34576e-15 -1.91152e-14 -2.87013e-13 -2.74252e-22 6.75574e-23 6.20385e-25 5e-05 1.46608e-10 
229 1 0.0883829 0.0159903 0.00802299 0.00561364 -0.000271133 4.34782e-05 1.59362e-10 7.08889e-12 7.82655e-11 5e-05 1.46608e-10 
230 1 0.0887861 0.0181098 0.00696062 0.00622449 -0.000459707 -0.000304937 -7.77839e-11 -1.55308e-10 -3.6478e-10 5e-05 1.46608e-10 
231 1 0.197479 0.018695 0.00523156 -1.10205e-15 -2.69837e-14 1.45242e-13 1.91584e-22 -5.68687e-24 2.06795e-25 5e-05 1.46608e-10 
232 1 0.0884012 0.0160562 0.00795003 0.00566025 -0.000127395 0.000193331 1.37943e-10 1.50105e-10 1.3167e-10 5e-05 1.46608e-10 
233 1 0.0886503 0.0167937 0.0076122 0.00555737 -0.000337803 -0.000150919 8.62301e-11 1.05229e-11 -5.28981e-11 5e-05 1.46608e-10 
234 1 0.0941922 0.0156428 0.00836466 0.00581292 -7.20073e-05 -0.00019873 8.92606e-11 2.97236e-10 -2.19611e-10 5e-05 1.46608e-10 
235 1 0.0889326 0.0184419 0.00695171 0.0056089 -0.000567579 0.000247024 -2.18183e-11 5.72924e-11 -6.69684e-11 5e-05 1.46608e-10 
236 1 0.0890203 0.0183938 0.00695029 0.00565272 -0.000507612 0.000258464 3.98156e-11 7.47656e-11 7.34987e-12 5e-05 1.46608e-10 
237 1 0.0888997 0.0182413 0.00692275 0.00613272 -0.000320089 0.000302186 -6.37128e-10 -3.17904e-10 -1.007e-10 5e-05 1.46608e-10 
238 1 0.0826919 0.0177309 0.00723713 0.00613034 0.00031861 -0.000458667 -1.42132e-12 -2.36567e-11 -8.33754e-11 5e-05 1.46608e-10 
239 1 0.0824402 0.0166681 0.00770159 0.00559687 0.00039813 -0.000482693 1.67369e-12 4.21363e-12 -3.56427e-12 5e-05 1.46608e-10 
240 1 0.0825242 0.0170264 0.00754503 0.00592634 0.000331094 -0.000472815 2.10833e-12 2.23096e-12 -2.45406e-13 5e-05 1.46608e-10 
241 1 0.0824602 0.0167579 0.00766241 0.00585058 0.000345641 -0.000474758 2.96704e-12 4.79416e-12 -2.13579e-12 5e-05 1.46608e-10 
242 1 0.0827465 0.0175926 0.0072927 0.00608128 0.000294772 -0.000467476 -1.00667e-11 1.75643e-11 -6.87666e-12 5e-05 1.46608e-10 
243 1 0.0824206 0.0165782 0.00774077 0.00560925 0.000395335 -0.000482255 7.88162e-13 4.81311e-12 -1.10403e-13 5e-05 1.46608e-10 
244 1 0.0824815 0.0168474 0.00762329 0.00587582 0.000340803 -0.000474073 3.45043e-12 4.61625e-12 -2.51616e-12 5e-05 1.46608e-10 
245 1 0.0827132 0.0178197 0.00719622 0.00618699 0.000573107 0.000123399 3.51388e-12 8.31368e-12 -5.13526e-12 5e-05 1.46608e-10 
246 1 0.0825668 0.0172055 0.00746678 0.00597671 0.000320738 -0.000471273 2.99377e-13 -2.71182e-12 8.68389e-13 5e-05 1.46608e-10 