ITEM: TIMESTEP
16400000
ITEM: NUMBER OF ATOMS
284
ITEM: BOX BOUNDS ff ff ff
-0.02 0.43
-0.02 0.06
-0.02 0.07
ITEM: ATOMS id type x y z vx vy vz fx fy fz radius mass 
1 1 0.108446 0.0162789 0.00784038 0.00622419 0.000412552 0.000202937 -6.12527e-11 1.43401e-10 -1.4887e-10 5e-05 1.46608e-10 
2 1 0.108868 0.0173401 0.00742972 0.00621109 0.000172462 -0.000519989 -3.27625e-10 3.50502e-10 -1.14725e-10 5e-05 1.46608e-10 
3 1 0.102477 0.0164259 0.00781397 0.00620582 0.000317007 5.81335e-05 1.30736e-11 -5.47662e-11 3.88654e-11 5e-05 1.46608e-10 
4 1 0.108855 0.0176819 0.00730876 0.00549128 0.00027762 -0.000499596 1.00904e-10 1.85197e-11 -3.8007e-11 5e-05 1.46608e-10 
5 1 0.108351 0.0162535 0.00786167 0.00638279 0.000381843 -0.000243886 -2.78716e-10 -2.12107e-10 -1.9945e-10 5e-05 1.46608e-10 
6 1 0.114481 0.016815 0.00762531 0.00581426 -0.00100564 0.000300197 2.06256e-12 -1.86801e-12 1.50497e-12 5e-05 1.46608e-10 
7 1 0.108455 0.0167095 0.00768511 0.00617176 0.000290483 -0.000557263 -5.29921e-12 5.72514e-11 7.0394e-12 5e-05 1.46608e-10 
8 1 0.108354 0.0159466 0.00804999 0.00635841 0.000593233 0.000100408 -1.03637e-10 7.2029e-11 1.58581e-10 5e-05 1.46608e-10 
9 1 0.114712 0.0178143 0.00704349 0.00539941 -0.000916733 0.000275642 -1.48941e-11 -1.86755e-11 -8.21049e-14 5e-05 1.46608e-10 
10 1 0.108475 0.0168012 0.0076509 0.00613678 0.00029334 -0.000553327 -2.07e-11 8.44725e-11 -8.75428e-11 5e-05 1.46608e-10 
11 1 0.108592 0.0169206 0.00759971 0.00605106 0.000330581 -0.000555322 2.187e-10 -1.06123e-10 -1.87649e-11 5e-05 1.46608e-10 
12 1 0.108675 0.0172871 0.00746283 0.00593327 0.000348808 -0.000562344 2.05651e-10 -4.3644e-10 1.36065e-10 5e-05 1.46608e-10 
13 1 0.108743 0.0177461 0.00738473 0.00549575 0.000346111 -0.000521388 6.88132e-11 -6.40238e-11 7.47497e-11 5e-05 1.46608e-10 
14 1 0.102166 0.015637 0.00842671 0.00619803 0.000105965 -0.000187087 -4.8299e-11 -5.05532e-12 3.75527e-12 5e-05 1.46608e-10 
15 1 0.108579 0.0172593 0.0074798 0.00592496 0.000316682 -0.000546833 1.77832e-10 -5.87856e-11 1.77236e-11 5e-05 1.46608e-10 
16 1 0.102144 0.0155616 0.00848874 0.00619429 0.000101713 -0.000182375 1.35873e-10 -1.1338e-11 2.12918e-11 5e-05 1.46608e-10 
17 1 0.108819 0.0176838 0.00740221 0.00547448 0.000327505 -0.000502805 1.65071e-10 -1.70341e-10 -6.27827e-12 5e-05 1.46608e-10 
18 1 0.11462 0.0173869 0.00724678 0.00540325 -0.000921301 0.00027051 -5.15448e-12 -4.15337e-12 4.72592e-12 5e-05 1.46608e-10 
19 1 0.108307 0.0160955 0.00797562 0.00633128 0.000573212 4.79062e-05 3.7625e-10 -1.12518e-10 6.06875e-11 5e-05 1.46608e-10 
20 1 0.108799 0.017592 0.00743596 0.00538953 0.0003385 -0.000540057 4.63049e-10 -2.00628e-10 3.4777e-10 5e-05 1.46608e-10 
21 1 0.108329 0.0161716 0.00791453 0.00634996 0.000488171 -7.35989e-05 -3.52617e-12 -3.11981e-10 -2.8224e-10 5e-05 1.46608e-10 
22 1 0.108633 0.0171038 0.00753127 0.00595796 0.000339693 -0.0005585 2.56245e-10 -1.57514e-10 1.46825e-11 5e-05 1.46608e-10 
23 1 0.102524 0.0169518 0.0074237 0.00588197 0.000360558 1.03853e-05 8.09187e-11 1.07441e-10 -6.52032e-11 5e-05 1.46608e-10 
24 1 0.114693 0.0177167 0.00703288 0.00543309 -0.000923531 0.000277157 -3.48818e-12 -3.13607e-12 -4.31722e-12 5e-05 1.46608e-10 
25 1 0.10855 0.0167373 0.00766815 0.00615094 0.000309896 -0.000562868 -6.14964e-11 1.33187e-10 -4.44706e-11 5e-05 1.46608e-10 
26 1 0.114563 0.0171414 0.00740917 0.00552238 -0.000944359 0.000278192 1.53123e-11 -1.72159e-12 6.78232e-12 5e-05 1.46608e-10 
27 1 0.102446 0.0166357 0.00765592 0.00588323 0.000349106 1.90695e-05 6.41415e-11 -5.98327e-11 3.72551e-11 5e-05 1.46608e-10 
28 1 0.108662 0.0175204 0.00747478 0.00635835 0.000182445 -0.000524755 -8.77164e-11 1.67698e-10 1.68694e-10 5e-05 1.46608e-10 
29 1 0.108467 0.0163705 0.00780513 0.00623346 0.000333252 -0.000577391 -3.17885e-10 1.74602e-10 -3.14484e-11 5e-05 1.46608e-10 
30 1 0.108835 0.0175899 0.00734301 0.00547704 0.000299465 -0.000512051 -2.7428e-10 1.80875e-10 -3.41339e-11 5e-05 1.46608e-10 
31 1 0.108558 0.0171677 0.00751402 0.00595629 0.00029881 -0.000541558 6.67334e-11 -3.40796e-11 2.00545e-11 5e-05 1.46608e-10 
32 1 0.108613 0.0170122 0.00756549 0.00600131 0.00033252 -0.000557127 2.98312e-10 -1.21145e-10 -4.98806e-11 5e-05 1.46608e-10 
33 1 0.114502 0.0168964 0.00757136 0.00580647 -0.00100421 0.000299729 -9.75272e-12 -1.04309e-11 8.70734e-12 5e-05 1.46608e-10 
34 1 0.108474 0.0168082 0.00775064 0.00614072 0.000309813 -0.000553925 9.29738e-11 2.77432e-10 -2.14932e-10 5e-05 1.46608e-10 
36 1 0.114731 0.017912 0.00705409 0.00536812 -0.000909341 0.000274088 -2.71778e-11 -1.88836e-11 1.21581e-13 5e-05 1.46608e-10 
37 1 0.108496 0.0168929 0.00761706 0.00609372 0.00030074 -0.000520418 9.57826e-11 3.59373e-11 -3.00258e-10 5e-05 1.46608e-10 
38 1 0.108654 0.0171955 0.00749705 0.00592918 0.00035758 -0.000563401 3.22536e-10 -2.00404e-10 7.39418e-11 5e-05 1.46608e-10 
39 1 0.11468 0.0176322 0.00708451 0.00541411 -0.000923727 0.000272237 2.47508e-11 -2.69848e-12 -1.29265e-11 5e-05 1.46608e-10 
41 1 0.108371 0.0163431 0.00782225 0.00630919 0.000323605 -0.000421837 -1.93394e-10 -1.21997e-10 7.56449e-11 5e-05 1.46608e-10 
42 1 0.108538 0.0170761 0.00754824 0.00599649 0.000291047 -0.000537804 5.33766e-11 -1.6576e-12 -3.32727e-11 5e-05 1.46608e-10 
44 1 0.10877 0.0173139 0.00744626 0.00603297 0.000334405 -0.000569239 3.66117e-10 -5.69345e-10 -2.71236e-11 5e-05 1.46608e-10 
45 1 0.114544 0.0170595 0.00746332 0.00544294 -0.000929147 0.000273047 1.62526e-11 -1.89021e-11 1.36862e-11 5e-05 1.46608e-10 
46 1 0.114604 0.0173047 0.00730105 0.00550232 -0.000939509 0.000276077 -4.31171e-11 4.46576e-12 5.11135e-13 5e-05 1.46608e-10 
47 1 0.108413 0.0165263 0.00775355 0.00622948 0.000280713 -0.000552786 4.50087e-11 -5.44471e-11 2.34167e-11 5e-05 1.46608e-10 
48 1 0.108749 0.0172223 0.00748048 0.00594826 0.000369834 -0.000569155 4.17401e-10 -4.26898e-10 1.11088e-10 5e-05 1.46608e-10 
49 1 0.114583 0.0172231 0.00735507 0.00555604 -0.000951423 0.000280685 4.2038e-11 9.62496e-12 7.86958e-13 5e-05 1.46608e-10 
50 1 0.10872 0.0174699 0.00739431 0.0063273 0.000208624 -0.000539874 9.6346e-11 -3.47803e-10 2.44399e-10 5e-05 1.46608e-10 
51 1 0.108815 0.0174966 0.00737778 0.00535215 0.000400119 -0.000539834 3.66288e-10 -3.7288e-10 1.11389e-10 5e-05 1.46608e-10 
52 1 0.108767 0.0180796 0.00727165 0.00566698 0.000310525 -0.000534558 2.65469e-10 2.19893e-10 -9.80783e-11 5e-05 1.46608e-10 
53 1 0.11464 0.0174688 0.00719264 0.00536475 -0.000913696 0.00026791 6.94452e-11 -1.16622e-11 1.783e-12 5e-05 1.46608e-10 
54 1 0.108424 0.0161936 0.00789434 0.00636737 0.000554885 0.000120051 -1.6417e-10 1.70044e-10 -1.61683e-10 5e-05 1.46608e-10 
55 1 0.102209 0.0157877 0.00830265 0.00620482 0.00011548 -0.000201018 -4.09307e-10 5.46428e-11 -3.71846e-11 5e-05 1.46608e-10 
56 1 0.108517 0.0169845 0.00758262 0.00603642 0.000299583 -0.000512669 1.09437e-10 -2.27093e-11 -2.43697e-10 5e-05 1.46608e-10 
57 1 0.114524 0.0169778 0.00751737 0.00544971 -0.000929713 0.000272959 3.69769e-11 -1.05196e-11 8.79646e-12 5e-05 1.46608e-10 
59 1 0.108687 0.0169474 0.00758314 0.00601196 0.00037223 -0.000572525 4.4332e-10 -2.02839e-10 4.82314e-11 5e-05 1.46608e-10 
60 1 0.108708 0.0170391 0.00754892 0.0059785 0.00036988 -0.000570383 4.60101e-10 -1.59313e-10 2.25116e-11 5e-05 1.46608e-10 
61 1 0.108392 0.0164346 0.00778778 0.00624378 0.000292364 -0.000545132 -5.38291e-11 -1.3582e-10 -1.95397e-10 5e-05 1.46608e-10 
62 1 0.108963 0.0180359 0.0072603 0.00583461 0.000197582 -0.000620332 5.04662e-11 1.35196e-10 4.26926e-10 5e-05 1.46608e-10 
63 1 0.108728 0.0171307 0.0075147 0.00593157 0.000384423 -0.000573686 3.6467e-10 -2.04975e-10 8.77922e-11 5e-05 1.46608e-10 
64 1 0.114661 0.0175502 0.00713865 0.00538711 -0.000918656 0.000269983 6.45662e-11 -6.99907e-12 -6.02042e-12 5e-05 1.46608e-10 
65 1 0.102485 0.0167937 0.0075398 0.00585406 0.000358063 1.0453e-05 8.4674e-11 1.18425e-12 7.8162e-12 5e-05 1.46608e-10 
66 1 0.102736 0.0176559 0.00717386 0.00565546 0.000266736 -0.000222481 6.66975e-11 -8.5153e-11 -9.05058e-12 5e-05 1.46608e-10 
67 1 0.10891 0.0175252 0.00736063 0.00547407 0.000257479 -0.000495987 -1.74667e-10 1.97481e-10 -4.17524e-11 5e-05 1.46608e-10 
68 1 0.108697 0.0173794 0.00742985 0.00603341 0.000287818 -0.000564564 5.78082e-11 -6.45217e-10 -2.01226e-10 5e-05 1.46608e-10 
69 1 0.108571 0.016829 0.00763393 0.0061398 0.000323965 -0.00056157 2.26463e-10 9.21159e-11 -1.67001e-10 5e-05 1.46608e-10 
70 1 0.108689 0.0176101 0.00743911 0.00541046 0.000378446 -0.000569617 -6.64094e-11 3.28705e-11 2.00681e-10 5e-05 1.46608e-10 
71 1 0.102187 0.0157124 0.00836468 0.00619382 0.000113541 -0.000192144 7.33231e-11 -1.81681e-11 4.85793e-11 5e-05 1.46608e-10 
72 1 0.108888 0.0178797 0.00727525 0.00561452 0.00013125 -0.000574468 5.09065e-10 -6.32795e-11 1.81859e-10 5e-05 1.46608e-10 
73 1 0.108838 0.0177832 0.0073657 0.0054989 0.000270195 -0.000521865 3.82823e-11 -8.42002e-11 -1.09799e-11 5e-05 1.46608e-10 
74 1 0.108872 0.0181349 0.00714588 0.00577965 0.000400064 -0.000603426 -4.6868e-10 8.69644e-11 -1.62846e-10 5e-05 1.46608e-10 
76 1 0.103053 0.0186022 0.00687204 0.0057012 0.000316543 -0.000228203 -2.40668e-10 2.03537e-10 -3.56865e-11 5e-05 1.46608e-10 
77 1 0.108801 0.0182682 0.00710246 0.00598483 0.000697209 0.000287862 -3.56738e-10 -1.87823e-10 -2.39727e-10 5e-05 1.46608e-10 
78 1 0.102296 0.0160902 0.00805586 0.00620918 0.000303339 7.27614e-05 1.14761e-10 -4.33701e-11 1.70146e-10 5e-05 1.46608e-10 
79 1 0.102543 0.0170314 0.00736523 0.00572028 0.000664938 -0.000225262 4.69865e-11 1.69307e-10 -1.33005e-10 5e-05 1.46608e-10 
80 1 0.108759 0.0178434 0.00735058 0.0055435 0.000325522 -0.000538395 2.50503e-10 9.00268e-11 -8.42293e-11 5e-05 1.46608e-10 
81 1 0.102465 0.0167147 0.0075979 0.00585865 0.000353993 1.42706e-05 3.29826e-11 -3.39537e-11 3.16762e-11 5e-05 1.46608e-10 
82 1 0.102504 0.0168728 0.00748177 0.00586938 0.000360994 9.69527e-06 7.773e-11 3.6536e-11 -2.74216e-11 5e-05 1.46608e-10 
83 1 0.102403 0.0164781 0.00777146 0.00618748 0.000302148 6.84266e-05 5.96625e-12 -3.74343e-11 2.53242e-11 5e-05 1.46608e-10 
84 1 0.11475 0.0180096 0.00706471 0.00537086 -0.000909368 0.000274235 -1.44623e-11 -6.26708e-12 1.91239e-12 5e-05 1.46608e-10 
85 1 0.108263 0.0159316 0.00808776 0.00633695 0.000434895 -2.79404e-05 -2.82925e-10 -2.79703e-10 -2.45953e-11 5e-05 1.46608e-10 
86 1 0.10876 0.0176535 0.00732586 0.00547989 0.00035506 -0.000531385 -2.69848e-10 1.31013e-10 9.00863e-12 5e-05 1.46608e-10 
87 1 0.108844 0.0172491 0.00746391 0.00605004 0.000351923 -0.00056983 6.34543e-10 -7.77988e-10 2.52245e-10 5e-05 1.46608e-10 
88 1 0.108988 0.0182638 0.00709137 0.00586757 0.000854353 -0.00073825 -5.9594e-10 3.7475e-10 -2.5414e-11 5e-05 1.46608e-10 
89 1 0.108799 0.0178374 0.00725741 0.00554632 0.000283781 -0.000511923 2.74916e-10 2.51808e-11 1.34778e-10 5e-05 1.46608e-10 
90 1 0.108975 0.0178862 0.007227 0.00561673 0.000326337 -0.000530952 -2.61912e-10 -5.28936e-11 -3.23553e-10 5e-05 1.46608e-10 
91 1 0.108621 0.0174425 0.00741137 0.00604985 0.000296109 -0.000553644 2.44848e-10 -1.60586e-10 -6.21e-11 5e-05 1.46608e-10 
92 1 0.109068 0.0182063 0.00710596 0.00579788 0.000715332 -0.000682718 -5.72595e-10 3.70811e-10 -8.98922e-11 5e-05 1.46608e-10 
93 1 0.108762 0.0180846 0.00717191 0.00572277 0.000359346 -0.000540611 2.36123e-10 2.66554e-10 -5.87282e-11 5e-05 1.46608e-10 
94 1 0.10878 0.0177455 0.00729163 0.00551007 0.000312062 -0.000516521 1.67688e-10 1.97358e-10 -3.83149e-11 5e-05 1.46608e-10 
95 1 0.108685 0.0177171 0.00730874 0.00550593 0.000411945 -0.000552372 -2.13091e-10 2.06065e-10 -2.82544e-11 5e-05 1.46608e-10 
96 1 0.108724 0.017901 0.00724027 0.00557131 0.00027333 -0.000509225 3.54601e-11 -7.47667e-11 6.83757e-11 5e-05 1.46608e-10 
97 1 0.102657 0.0171381 0.00729126 0.00579708 0.000390891 1.35544e-05 -8.49194e-11 7.75643e-11 3.07435e-11 5e-05 1.46608e-10 
98 1 0.108915 0.0183301 0.0070731 0.00595986 0.000694956 -0.000660831 6.68376e-10 -6.21708e-10 1.87164e-10 5e-05 1.46608e-10 
99 1 0.102561 0.0171106 0.00730694 0.00570276 0.000361119 1.272e-06 1.98677e-11 2.97876e-11 -2.06847e-11 5e-05 1.46608e-10 
100 1 0.108971 0.0181709 0.00712577 0.00599476 0.000704584 -0.000644831 -7.69683e-10 4.57788e-10 7.71177e-10 5e-05 1.46608e-10 
101 1 0.10252 0.0165841 0.00769794 0.00589432 0.00035631 1.41052e-05 1.09582e-10 -2.99362e-11 2.90193e-11 5e-05 1.46608e-10 
102 1 0.0694385 0.0202053 0.00537268 3.91648e-15 4.48635e-15 -7.68277e-14 -5.49933e-22 7.10794e-22 1.38553e-23 5e-05 1.46608e-10 
104 1 0.102618 0.0169798 0.00740732 0.00588414 0.000361835 6.51055e-06 1.56769e-10 7.54235e-12 4.03769e-12 5e-05 1.46608e-10 
105 1 0.102359 0.0163207 0.00788689 0.00619761 0.000301193 6.97599e-05 3.48527e-11 5.87253e-11 -2.87472e-11 5e-05 1.46608e-10 
106 1 0.102714 0.0173937 0.00715035 0.00569163 0.000314354 -0.000179172 1.24562e-10 -4.53897e-11 -1.17846e-10 5e-05 1.46608e-10 
107 1 0.102317 0.0161818 0.00802171 0.00620407 0.000302105 6.82348e-05 4.66278e-11 -2.70572e-11 -3.30315e-11 5e-05 1.46608e-10 
108 1 0.108456 0.0167157 0.00778491 0.0061547 0.000282296 -0.000554179 4.8113e-11 3.84528e-10 2.16798e-11 5e-05 1.46608e-10 
109 1 0.108645 0.0175335 0.00737718 0.00636767 0.000202158 -0.000538485 1.5703e-10 3.35243e-11 7.51094e-13 5e-05 1.46608e-10 
110 1 0.108704 0.017809 0.00727451 0.00554821 0.00036941 -0.000542703 2.09823e-10 3.55459e-10 -1.27053e-10 5e-05 1.46608e-10 
111 1 0.108951 0.0185074 0.00700718 0.00651094 0.0012601 -0.00118155 -1.55379e-09 1.03821e-09 4.37726e-09 5e-05 1.46608e-10 
112 1 0.102425 0.0165568 0.00771374 0.00617916 0.000304532 6.61856e-05 -1.71437e-11 -4.89634e-11 3.23737e-11 5e-05 1.46608e-10 
113 1 0.102732 0.0170871 0.00733267 0.00584252 0.000367034 1.9253e-06 -4.92361e-11 3.84622e-12 -5.42871e-12 5e-05 1.46608e-10 
115 1 0.108666 0.0176251 0.00734296 0.005427 0.000421628 -0.000555579 -1.03632e-10 -1.32052e-10 6.33309e-11 5e-05 1.46608e-10 
116 1 0.108666 0.0168558 0.00761736 0.00606222 0.000374273 -0.000579628 3.90444e-10 -1.96406e-10 5.40629e-11 5e-05 1.46608e-10 
117 1 0.10853 0.0166457 0.00770237 0.00620168 0.000318232 -0.000569933 -9.96594e-12 1.50643e-10 -3.98867e-11 5e-05 1.46608e-10 
118 1 0.102252 0.0159385 0.00817866 0.00620698 0.000144859 -0.000128384 7.66749e-11 3.13136e-12 6.42168e-11 5e-05 1.46608e-10 
119 1 0.10893 0.0176182 0.00732593 0.00548722 0.000256659 -0.000492914 1.20439e-10 -1.04106e-10 2.08869e-11 5e-05 1.46608e-10 
120 1 0.108285 0.0160172 0.00803388 0.00633979 0.000575664 7.43554e-05 -2.70631e-11 -3.2614e-11 -8.19714e-11 5e-05 1.46608e-10 
121 1 0.108378 0.0160288 0.00799823 0.00636889 0.000590666 9.67217e-05 -1.0402e-10 3.74727e-11 4.07419e-11 5e-05 1.46608e-10 
122 1 0.108818 0.0179293 0.00722318 0.00562805 0.000280333 -0.000498748 3.12355e-10 1.25291e-10 1.48075e-11 5e-05 1.46608e-10 
123 1 0.102381 0.0163994 0.00782917 0.00619558 0.000300361 7.0225e-05 1.93321e-11 8.46709e-12 8.08681e-12 5e-05 1.46608e-10 
124 1 0.108782 0.0179345 0.00731616 0.00556647 0.00031121 -0.000529148 2.03017e-10 6.00382e-11 4.02509e-11 5e-05 1.46608e-10 
125 1 0.108402 0.016111 0.00794643 0.00638429 0.000599961 0.000103217 4.04603e-11 -4.50391e-11 -2.9538e-11 5e-05 1.46608e-10 
126 1 0.1086 0.017351 0.00744558 0.00592287 0.000330783 -0.000558697 -1.16321e-11 -1.76932e-10 -2.45034e-11 5e-05 1.46608e-10 
127 1 0.102946 0.0179638 0.00709946 0.0057102 0.000319777 -0.00023101 1.78093e-11 5.66645e-13 1.69532e-11 5e-05 1.46608e-10 
128 1 0.108876 0.017776 0.00727363 0.00551963 0.000267842 -0.000506919 -1.83436e-11 -8.31106e-11 4.62818e-11 5e-05 1.46608e-10 
129 1 0.108743 0.0179946 0.00721106 0.00565758 0.000346953 -0.000501879 6.64864e-11 7.36181e-11 -1.16832e-10 5e-05 1.46608e-10 
131 1 0.102638 0.0170588 0.00734925 0.00585592 0.000369467 5.48125e-06 2.69017e-11 3.59493e-11 1.69248e-11 5e-05 1.46608e-10 
132 1 0.10892 0.0179662 0.0072025 0.00562035 0.000316103 -0.000533234 -1.35824e-10 1.14798e-10 -2.37612e-10 5e-05 1.46608e-10 
133 1 0.108488 0.0164624 0.00777081 0.00623159 0.000301648 -0.000567645 7.73255e-11 -3.19671e-11 2.08669e-11 5e-05 1.46608e-10 
134 1 0.109026 0.0176487 0.00730797 0.00547065 0.000243728 -0.000489914 3.4391e-10 -2.71926e-10 6.86037e-11 5e-05 1.46608e-10 
135 1 0.108604 0.0165809 0.00772002 0.00619965 0.000294968 -0.00056105 2.12362e-10 2.56898e-10 -1.18597e-10 5e-05 1.46608e-10 
136 1 0.102277 0.0160136 0.00811713 0.00620859 0.000247484 1.41931e-06 -1.35207e-10 -8.72292e-11 1.47669e-10 5e-05 1.46608e-10 
137 1 0.108821 0.0183636 0.0070808 0.0060136 0.000652738 0.00014767 8.6567e-11 -1.51575e-10 2.06647e-10 5e-05 1.46608e-10 
138 1 0.108894 0.0182331 0.00710928 0.00611326 0.000739581 -0.00110143 -2.23174e-10 1.8732e-10 -1.31141e-09 5e-05 1.46608e-10 
140 1 0.108741 0.0175615 0.00736009 0.00539373 0.00039891 -0.000547552 4.06645e-10 -7.94856e-12 5.96122e-11 5e-05 1.46608e-10 
141 1 0.102455 0.0163471 0.00787171 0.00622158 0.000320568 5.64735e-05 9.75637e-12 -5.11878e-11 2.88559e-11 5e-05 1.46608e-10 
142 1 0.10256 0.0167426 0.00758155 0.00585422 0.00035531 1.27761e-05 1.819e-12 -6.70496e-11 4.86908e-11 5e-05 1.46608e-10 
143 1 0.102338 0.016242 0.00794461 0.00620373 0.000301191 7.00628e-05 3.34489e-11 2.0968e-11 -6.4621e-11 5e-05 1.46608e-10 
146 1 0.102635 0.0166917 0.00762312 0.00586201 0.000361616 8.45258e-06 4.22304e-11 -7.62999e-11 5.61838e-11 5e-05 1.46608e-10 
147 1 0.102231 0.0158631 0.00824062 0.00622093 0.000103138 -0.000196467 4.12348e-11 1.92055e-10 -8.78788e-11 5e-05 1.46608e-10 
148 1 0.00868942 0.0171565 0.00810593 0.000300896 0.0288857 -0.0170668 2.75804e-11 7.76847e-11 -1.39548e-10 5e-05 1.46608e-10 
149 1 0.108937 0.0180617 0.00716725 0.00563173 0.000335982 -0.000531877 -1.8791e-11 3.76116e-10 -1.67588e-10 5e-05 1.46608e-10 
150 1 0.10254 0.0166634 0.00763975 0.00585877 0.000354563 1.36455e-05 -1.982e-11 -9.18571e-11 6.7847e-11 5e-05 1.46608e-10 
151 1 0.103037 0.017678 0.00707705 0.00571253 0.000351424 -0.000236352 -7.16585e-11 -9.12673e-11 2.30341e-11 5e-05 1.46608e-10 
153 1 0.102616 0.0166126 0.00768118 0.00588113 0.000360046 1.07107e-05 1.07498e-10 -8.10892e-11 7.12484e-11 5e-05 1.46608e-10 
154 1 0.102753 0.0175848 0.0071056 0.00566058 0.000292071 -0.000222721 7.33363e-11 2.77174e-11 -1.25315e-11 5e-05 1.46608e-10 
155 1 0.0967626 0.0176479 0.00712812 0.00554936 1.26221e-06 1.68889e-05 -1.36671e-11 -3.78767e-11 1.00763e-11 5e-05 1.46608e-10 
156 1 0.102638 0.0174573 0.00713699 0.00565038 0.000298286 -0.000223148 -7.59595e-12 -9.43832e-12 8.7549e-13 5e-05 1.46608e-10 
157 1 0.102811 0.0178718 0.00704046 0.0056847 0.000298927 -0.000223212 1.25825e-11 2.71706e-11 -5.46576e-12 5e-05 1.46608e-10 
158 1 0.102864 0.0172736 0.00719973 0.00579746 0.000381664 -9.9957e-06 -2.59955e-10 4.82783e-11 -7.87105e-11 5e-05 1.46608e-10 
159 1 0.109004 0.0183703 0.00705217 0.00502354 0.00228958 -0.00118617 -5.0844e-10 1.79463e-10 -2.43343e-11 5e-05 1.46608e-10 
160 1 0.102716 0.0178404 0.00705004 0.00565323 0.000300608 -0.00022316 -2.15132e-11 -4.89618e-11 1.1349e-11 5e-05 1.46608e-10 
162 1 0.102675 0.0172172 0.0072328 0.00577777 0.000376027 -7.88971e-06 -5.62626e-11 4.6786e-11 -3.32092e-11 5e-05 1.46608e-10 
163 1 0.102884 0.0173612 0.00715598 0.0057387 0.000367814 -6.90612e-05 -1.58255e-10 1.8003e-11 -2.71639e-11 5e-05 1.46608e-10 
164 1 0.102928 0.0180013 0.00700851 0.00570142 0.00032188 -0.000229584 -5.33178e-12 -1.05557e-11 8.05822e-12 5e-05 1.46608e-10 
165 1 0.102808 0.0170362 0.00737424 0.00587638 0.000361772 8.71894e-06 1.7204e-11 5.29302e-11 -5.75594e-11 5e-05 1.46608e-10 
166 1 0.108223 0.015842 0.00826098 0.00617203 -0.000449166 -0.000601455 5.66319e-12 1.72261e-10 4.73453e-11 5e-05 1.46608e-10 
167 1 0.102655 0.0167707 0.00756505 0.00585104 0.000360354 8.98126e-06 2.9641e-12 -9.51516e-11 7.41113e-11 5e-05 1.46608e-10 
168 1 0.102772 0.0176804 0.00708389 0.00565125 0.000280087 -0.000220105 1.7474e-11 6.62698e-12 -3.84171e-12 5e-05 1.46608e-10 
169 1 0.102923 0.0175515 0.00710824 0.00565669 0.000345007 -0.000229107 1.88158e-11 -5.85054e-12 1.90095e-11 5e-05 1.46608e-10 
170 1 0.102847 0.0176157 0.00709613 0.00565179 0.000320288 -0.000227947 -2.43553e-11 6.7739e-11 -1.37712e-11 5e-05 1.46608e-10 
171 1 0.108624 0.0166725 0.0076858 0.00618013 0.000378799 -0.000590143 -9.47389e-11 2.62584e-10 -9.1167e-11 5e-05 1.46608e-10 
172 1 0.103096 0.0179654 0.00701183 0.00571584 0.000323681 -0.000230557 -9.48392e-11 3.95123e-11 -4.53898e-12 5e-05 1.46608e-10 
173 1 0.108889 0.0174317 0.00739548 0.00530003 0.000390854 -0.000530536 4.23273e-10 -2.34574e-10 5.9732e-11 5e-05 1.46608e-10 
174 1 0.102758 0.0178951 0.00712228 0.00568553 0.000303984 -0.000223954 -2.61047e-11 -4.2724e-12 -1.63878e-11 5e-05 1.46608e-10 
175 1 0.0994952 0.0170686 0.00726719 0.00581806 4.95121e-05 -2.11842e-05 8.75853e-13 2.03587e-14 -7.65138e-15 5e-05 1.46608e-10 
176 1 0.102618 0.0173617 0.0071587 0.0058086 0.000265706 -0.000222104 -2.12813e-11 1.45549e-11 -1.53494e-11 5e-05 1.46608e-10 
177 1 0.103129 0.0181757 0.00696434 0.005701 0.000327222 -0.000230406 -8.22818e-12 3.62052e-11 -4.28775e-12 5e-05 1.46608e-10 
178 1 0.103076 0.0178694 0.00703361 0.00571735 0.000356606 -0.000237687 2.42454e-11 -7.90539e-11 1.48455e-11 5e-05 1.46608e-10 
179 1 0.0966094 0.0173312 0.00720683 0.00570457 -2.88018e-05 -8.16468e-06 1.11921e-11 6.92055e-12 3.83635e-11 5e-05 1.46608e-10 
180 1 0.102788 0.0173278 0.00716149 0.00576694 0.000386392 -0.000243483 2.15825e-11 -2.27608e-10 3.1417e-11 5e-05 1.46608e-10 
181 1 0.102828 0.01752 0.00711785 0.00567086 0.000319201 -0.000228346 -2.34781e-11 6.69049e-11 -8.44193e-12 5e-05 1.46608e-10 
182 1 0.108802 0.0170659 0.00753235 0.00593792 0.000439356 -0.000594258 2.39069e-10 -5.0479e-10 1.63399e-10 5e-05 1.46608e-10 
183 1 0.102942 0.0176471 0.00708652 0.00564488 0.000347188 -0.00023336 -2.05467e-11 -7.71547e-12 1.07987e-11 5e-05 1.46608e-10 
184 1 0.108782 0.0181766 0.0071378 0.00580007 0.000365351 -0.000622556 3.21341e-11 1.92446e-10 -1.01019e-09 5e-05 1.46608e-10 
185 1 0.102657 0.017553 0.00711527 0.00565956 0.000305695 -0.000225246 3.32194e-11 4.2462e-11 -1.41904e-11 5e-05 1.46608e-10 
186 1 0.102694 0.0173007 0.00718135 0.00581122 0.000329999 -6.63533e-05 -8.4782e-11 -1.17924e-11 -1.33871e-10 5e-05 1.46608e-10 
187 1 0.108823 0.0171576 0.00749813 0.00593762 0.000417409 -0.000587601 2.62289e-10 -8.17404e-10 2.58102e-10 5e-05 1.46608e-10 
188 1 0.108844 0.0180285 0.00718595 0.0056869 0.000364454 -0.00054413 2.17722e-10 1.53635e-10 -7.55584e-11 5e-05 1.46608e-10 
189 1 0.108509 0.016554 0.00773659 0.00620742 0.000313073 -0.000569917 2.3974e-10 1.36603e-10 -1.38416e-10 5e-05 1.46608e-10 
190 1 0.103128 0.0185372 0.00688433 0.00568263 0.000298237 -0.000223761 -3.95393e-10 7.3952e-11 -7.51004e-12 5e-05 1.46608e-10 
191 1 0.108838 0.0184473 0.00702882 0.00610073 0.000710497 0.000272432 -2.25188e-11 1.19448e-11 -1.01006e-10 5e-05 1.46608e-10 
192 1 0.102733 0.0174891 0.00712732 0.00567515 0.000303378 -0.000220243 9.36185e-11 -2.85532e-12 -1.8375e-11 5e-05 1.46608e-10 
193 1 0.108857 0.0185382 0.0069915 0.00613179 0.000691986 0.000276302 -1.15119e-10 1.16126e-10 -3.03757e-11 5e-05 1.46608e-10 
194 1 0.10258 0.0168216 0.00752349 0.00585478 0.000355217 1.30823e-05 6.46902e-11 -3.94447e-11 3.25015e-11 5e-05 1.46608e-10 
195 1 0.102867 0.0177113 0.00707442 0.00564654 0.000314487 -0.000226133 9.95988e-11 6.42199e-11 -1.36754e-11 5e-05 1.46608e-10 
196 1 0.102124 0.015486 0.00855097 0.00568038 0.000195083 -0.00025115 -1.942e-10 8.68938e-11 7.33324e-11 5e-05 1.46608e-10 
197 1 0.102815 0.0180431 0.00708605 0.00570795 0.000304267 -0.000227287 -1.36906e-11 -4.68664e-11 3.05323e-11 5e-05 1.46608e-10 
198 1 0.10258 0.0171898 0.00724871 0.00575229 0.000354902 8.3633e-06 3.01061e-13 1.63631e-11 7.17833e-13 5e-05 1.46608e-10 
199 1 0.102696 0.0177446 0.00707177 0.00564902 0.000271362 -0.000217635 -4.23124e-12 -1.88974e-11 8.02816e-14 5e-05 1.46608e-10 
200 1 0.102599 0.0169007 0.0074654 0.00588171 0.000361371 9.51963e-06 7.32072e-11 1.08014e-11 -5.32272e-12 5e-05 1.46608e-10 
201 1 0.103034 0.0185062 0.00689383 0.00571212 0.000313407 -0.000227783 1.42551e-10 2.15058e-10 -5.80354e-11 5e-05 1.46608e-10 
203 1 0.109017 0.0180035 0.0071821 0.00553846 0.000276423 -0.000516761 2.74326e-10 -1.05377e-10 9.85071e-11 5e-05 1.46608e-10 
204 1 0.102713 0.017008 0.00739079 0.00586335 0.000370064 1.09777e-07 2.70748e-11 -2.52813e-11 1.92246e-11 5e-05 1.46608e-10 
205 1 0.102799 0.0181442 0.00708034 0.00569721 0.000325702 -0.000227065 -1.38721e-10 -2.48485e-11 4.09297e-11 5e-05 1.46608e-10 
206 1 0.102791 0.0177761 0.00706217 0.00564874 0.000307145 -0.000224102 2.06568e-11 1.87505e-11 -9.63857e-12 5e-05 1.46608e-10 
207 1 0.102596 0.0165336 0.0077392 0.00589781 0.000358764 1.23547e-05 5.7463e-11 -7.82235e-11 6.18346e-11 5e-05 1.46608e-10 
208 1 0.102677 0.0176488 0.00709352 0.00565279 0.000287233 -0.000220941 6.47177e-11 1.37843e-10 -3.00777e-11 5e-05 1.46608e-10 
209 1 0.0966289 0.0174264 0.00718328 0.00554862 3.67032e-06 -9.50592e-06 -1.10935e-11 -1.24444e-11 1.2565e-11 5e-05 1.46608e-10 
210 1 0.108243 0.0158779 0.00816978 0.00628183 -0.000144172 -0.000433063 -1.50607e-10 -1.61057e-10 -1.14666e-10 5e-05 1.46608e-10 
211 1 0.108812 0.018166 0.00723238 0.00602346 8.21786e-05 -0.000720158 6.1257e-11 4.36374e-11 -1.35124e-09 5e-05 1.46608e-10 
212 1 0.103057 0.0177736 0.00705534 0.00572718 0.000349748 -0.000236361 5.43751e-11 -7.42149e-11 1.39007e-11 5e-05 1.46608e-10 
213 1 0.108994 0.0177933 0.00725876 0.00545905 0.000319166 -0.000517155 -4.76471e-10 3.14467e-10 -7.90798e-11 5e-05 1.46608e-10 
214 1 0.108841 0.0180088 0.00728395 0.00569533 0.000185543 -0.000581083 -8.50572e-11 1.54212e-10 1.81457e-11 5e-05 1.46608e-10 
215 1 0.102769 0.0172454 0.00721628 0.00580339 0.000366278 4.44263e-06 -1.85374e-10 3.93475e-11 -8.14388e-11 5e-05 1.46608e-10 
216 1 0.102846 0.0171945 0.00725831 0.0058394 0.000374652 -3.78323e-06 -1.01176e-10 5.75944e-11 -5.02255e-11 5e-05 1.46608e-10 
217 1 0.108645 0.0167642 0.00765158 0.00612149 0.00038067 -0.000586446 1.19198e-10 -2.3617e-11 -5.3169e-13 5e-05 1.46608e-10 
218 1 0.102906 0.0179026 0.007031 0.00569259 0.000297268 -0.000224498 -1.29785e-10 3.4323e-11 -8.21719e-12 5e-05 1.46608e-10 
219 1 0.108838 0.0182743 0.00719515 0.00671904 0.000783759 3.11879e-05 -1.0902e-10 -1.87984e-10 -3.15218e-10 5e-05 1.46608e-10 
220 1 0.102751 0.0171662 0.00727454 0.00581186 0.000365475 3.51184e-06 -1.16095e-10 4.57934e-11 -3.60022e-11 5e-05 1.46608e-10 
221 1 0.0965134 0.0168955 0.00740423 0.00560539 5.66623e-05 6.21628e-05 1.12422e-11 -1.30051e-11 1.88708e-11 5e-05 1.46608e-10 
222 1 0.108434 0.016618 0.00771958 0.00620424 0.000287906 -0.000553528 6.71319e-11 2.52322e-11 9.76728e-11 5e-05 1.46608e-10 
223 1 0.102808 0.0174243 0.00713956 0.00568683 0.000313833 -0.000231754 1.20481e-10 2.08198e-11 -1.87244e-11 5e-05 1.46608e-10 
224 1 0.102598 0.017269 0.00719048 0.0058009 0.000348279 1.58422e-05 -7.88349e-12 3.38377e-12 -1.00388e-11 5e-05 1.46608e-10 
225 1 0.108949 0.0177102 0.00729171 0.00550429 0.000270366 -0.000502484 1.42957e-10 -1.95577e-10 5.5834e-11 5e-05 1.46608e-10 
226 1 0.102827 0.0171152 0.00731614 0.0058747 0.000367648 5.10976e-06 4.50496e-11 4.92691e-11 -3.46779e-11 5e-05 1.46608e-10 
227 1 0.0965693 0.0171409 0.00725383 0.00570394 -2.27642e-05 -1.75024e-06 1.91673e-12 1.90656e-11 2.52808e-11 5e-05 1.46608e-10 
228 1 0.0507861 0.0189683 0.00558458 -5.35711e-15 -1.91139e-14 -2.87013e-13 3.90449e-22 -9.48673e-23 -4.1359e-25 5e-05 1.46608e-10 
229 1 0.102411 0.0161887 0.0079878 0.00621684 0.00030196 7.04174e-05 3.89973e-12 -4.51447e-11 3.32163e-12 5e-05 1.46608e-10 
230 1 0.102795 0.01822 0.00701526 0.0057026 0.000320859 -0.000233032 -1.89815e-11 -3.48569e-11 8.74743e-12 5e-05 1.46608e-10 
231 1 0.197479 0.018695 0.00523156 -1.0916e-15 -2.69834e-14 1.45243e-13 -2.7316e-22 -3.72231e-24 -2.27475e-24 5e-05 1.46608e-10 
232 1 0.102433 0.0162683 0.00792948 0.00621125 0.000307042 6.60893e-05 1.69816e-11 7.55118e-14 1.97117e-12 5e-05 1.46608e-10 
233 1 0.102694 0.0169289 0.00744887 0.00588752 0.000368335 4.02248e-06 7.94098e-11 -2.70378e-11 1.39039e-11 5e-05 1.46608e-10 
234 1 0.108189 0.0157885 0.00845056 0.00600833 -0.000423189 -0.000649808 -1.58433e-10 -5.71619e-11 3.14949e-10 5e-05 1.46608e-10 
235 1 0.102959 0.0185711 0.00688155 0.00571632 0.000331874 -0.000232117 -5.32116e-11 3.01272e-11 -1.75997e-11 5e-05 1.46608e-10 
236 1 0.102978 0.0186668 0.00685984 0.00572781 0.000344479 -0.000235184 -1.1119e-10 1.88686e-10 -4.45451e-11 5e-05 1.46608e-10 
237 1 0.10289 0.0183494 0.00693254 0.00571533 0.000321027 -0.000232189 -1.36164e-10 3.8286e-11 -8.16769e-12 5e-05 1.46608e-10 
238 1 0.0966484 0.0175215 0.00715948 0.00552933 1.42963e-05 1.35632e-05 4.41248e-11 -2.10213e-11 -1.98487e-12 5e-05 1.46608e-10 
239 1 0.0964171 0.0165158 0.00771496 0.00566978 8.20227e-05 0.000124879 -4.28482e-10 1.00945e-10 -1.49303e-10 5e-05 1.46608e-10 
240 1 0.0964947 0.0168203 0.00746743 0.00555715 0.000101043 0.00010734 -9.9889e-11 1.14894e-11 -1.70912e-12 5e-05 1.46608e-10 
241 1 0.0964365 0.0165919 0.00765308 0.00571623 8.64197e-05 0.000126884 -1.2354e-10 1.73886e-11 -5.96839e-11 5e-05 1.46608e-10 
242 1 0.0967431 0.0175528 0.0071519 0.00554646 -4.755e-06 -8.04205e-06 -1.91669e-11 1.29477e-11 6.6624e-13 5e-05 1.46608e-10 
243 1 0.0963964 0.0164399 0.00777666 0.00613772 7.92682e-06 0.000203163 -4.05114e-11 1.87754e-10 -1.59345e-10 5e-05 1.46608e-10 
244 1 0.096456 0.016668 0.00759121 0.00573745 7.66342e-05 0.000131998 2.14431e-10 6.21572e-11 2.06184e-11 5e-05 1.46608e-10 
245 1 0.0966679 0.0176167 0.00713567 0.00555405 9.82868e-06 1.52374e-05 -1.09361e-11 -5.14513e-12 -2.0418e-12 5e-05 1.46608e-10 
246 1 0.0965317 0.0169702 0.00734031 0.00565969 6.02734e-06 1.6655e-05 4.97808e-11 -1.38857e-11 1.94814e-11 5e-05 1.46608e-10 
247 1 0.102962 0.0177427 0.00706481 0.00567911 0.000341909 -0.000233799 -4.20878e-11 -3.73961e-11 1.66934e-11 5e-05 1.46608e-10 
248 1 0.103001 0.017934 0.00702139 0.00571374 0.000338884 -0.000234168 -2.12785e-11 -5.63255e-11 9.37315e-12 5e-05 1.46608e-10 
249 1 0.096707 0.0178069 0.00708805 0.00559534 1.39207e-06 1.69577e-05 2.46043e-12 2.01582e-11 -6.55182e-12 5e-05 1.46608e-10 