ITEM: TIMESTEP
21200000
ITEM: NUMBER OF ATOMS
284
ITEM: BOX BOUNDS ff ff ff
-0.02 0.43
-0.02 0.06
-0.02 0.07
ITEM: ATOMS id type x y z vx vy vz fx fy fz radius mass 
1 1 0.136446 0.0163532 0.0078707 0.00588596 0.000751973 -0.000153269 2.14797e-10 1.40274e-10 -1.46964e-10 5e-05 1.46608e-10 
2 1 0.136848 0.0173181 0.00729186 0.00557372 0.000343675 -0.000588486 1.62771e-10 -8.92348e-13 -1.38179e-11 5e-05 1.46608e-10 
3 1 0.130371 0.0161084 0.00814191 0.00604716 -4.16027e-05 -0.000487314 -4.82032e-11 -3.3809e-11 5.43676e-11 5e-05 1.46608e-10 
4 1 0.136833 0.0176621 0.00717863 0.00603206 0.00026899 -0.000605075 -1.90453e-10 -2.30144e-11 -8.15597e-12 5e-05 1.46608e-10 
5 1 0.136351 0.0163264 0.00788803 0.00589423 0.000830706 -0.000231577 2.08895e-10 8.04981e-10 -9.2368e-10 5e-05 1.46608e-10 
6 1 0.142361 0.0163307 0.00779943 0.00593331 0.000432716 -0.000507871 5.31634e-12 7.76106e-12 -6.99435e-12 5e-05 1.46608e-10 
7 1 0.136447 0.0166876 0.00756134 0.00580021 0.000690718 -0.000117878 6.66812e-11 -2.37133e-10 -1.09956e-10 5e-05 1.46608e-10 
8 1 0.136364 0.0160726 0.00814537 0.00619678 0.000721114 -9.4331e-05 4.50264e-11 -1.22565e-11 9.89533e-12 5e-05 1.46608e-10 
9 1 0.142593 0.0173722 0.00732229 0.00563494 0.000551255 -0.000439559 6.74225e-13 7.51844e-12 -1.53384e-12 5e-05 1.46608e-10 
10 1 0.136467 0.0167707 0.00750928 0.00567255 0.000639952 -0.000265095 -1.03472e-10 -5.98561e-11 -5.74992e-11 5e-05 1.46608e-10 
11 1 0.13658 0.0168903 0.00745696 0.00566904 0.00052046 -0.000593584 -2.51245e-11 -1.37367e-10 -1.8575e-10 5e-05 1.46608e-10 
12 1 0.136659 0.0172604 0.0073271 0.00560321 0.000511759 -0.000647142 1.64548e-10 2.38891e-11 -2.49605e-11 5e-05 1.46608e-10 
13 1 0.136687 0.0177588 0.00725033 0.00603176 0.000428805 -0.000675335 1.60875e-10 1.41641e-10 -8.08168e-11 5e-05 1.46608e-10 
14 1 0.13008 0.0154767 0.00879603 0.00613247 -9.95293e-05 -0.000436032 3.22325e-11 1.0452e-10 -1.06037e-10 5e-05 1.46608e-10 
15 1 0.136564 0.0172325 0.00734443 0.00561086 0.000533752 -0.000655579 4.33795e-10 -3.22049e-11 -1.08547e-11 5e-05 1.46608e-10 
16 1 0.130058 0.0154085 0.00886583 0.00614031 -9.78277e-05 -0.000438395 5.94734e-11 1.68256e-10 -1.74359e-10 5e-05 1.46608e-10 
17 1 0.136905 0.0179587 0.00716471 0.00608141 0.000271052 -0.00060635 3.61353e-11 1.44402e-11 -8.30486e-11 5e-05 1.46608e-10 
18 1 0.142495 0.0169014 0.00745909 0.00562744 0.000554625 -0.000439927 -2.62065e-11 -3.27556e-12 2.48792e-12 5e-05 1.46608e-10 
19 1 0.136312 0.0161862 0.00802546 0.00580811 0.000760109 -0.000172669 9.32825e-11 1.05979e-10 -7.88535e-11 5e-05 1.46608e-10 
20 1 0.136856 0.017744 0.00723128 0.00600664 0.000290417 -0.000649543 -7.79011e-11 -3.80825e-11 1.49524e-10 5e-05 1.46608e-10 
21 1 0.136332 0.0162564 0.00795665 0.00586171 0.000800417 -0.000209861 -4.97968e-10 -1.07556e-09 9.90868e-10 5e-05 1.46608e-10 
22 1 0.13662 0.0170753 0.007392 0.00566418 0.000492928 -0.000645189 -2.18562e-10 9.85234e-11 1.64473e-11 5e-05 1.46608e-10 
23 1 0.130416 0.0165705 0.007678 0.00566858 -5.58035e-06 -0.00049669 -1.88103e-10 1.79691e-11 -5.96108e-12 5e-05 1.46608e-10 
24 1 0.142573 0.0172781 0.00734965 0.00564173 0.00055112 -0.00043992 -1.80843e-11 2.77403e-13 1.34526e-12 5e-05 1.46608e-10 
25 1 0.13654 0.0167052 0.00752528 0.00570377 0.000690762 -0.000103097 -2.22095e-10 -5.67561e-11 -5.37837e-11 5e-05 1.46608e-10 
26 1 0.142436 0.016619 0.00754117 0.00582094 0.000512206 -0.000436885 -1.39503e-11 3.28158e-13 3.62426e-13 5e-05 1.46608e-10 
27 1 0.130339 0.0162957 0.00795824 0.00592871 -2.05161e-05 -0.000496872 -4.50074e-11 2.24548e-11 -1.04718e-11 5e-05 1.46608e-10 
28 1 0.136708 0.0175337 0.00732783 0.00578589 0.000469537 -0.000648656 1.54942e-10 9.54436e-11 -1.74627e-11 5e-05 1.46608e-10 
29 1 0.136466 0.0164232 0.00780218 0.00587576 0.000742639 -0.000149566 7.73217e-11 -1.46316e-11 5.87788e-11 5e-05 1.46608e-10 
30 1 0.136817 0.0175679 0.00721135 0.00589072 0.00031489 -0.000606494 -2.75353e-10 -1.6782e-10 7.83482e-11 5e-05 1.46608e-10 
31 1 0.136545 0.01714 0.00737688 0.00562632 0.000530928 -0.000657199 1.95374e-10 -4.22629e-11 3.0361e-11 5e-05 1.46608e-10 
32 1 0.1366 0.0169828 0.00742446 0.00567723 0.000500512 -0.000632435 -1.4444e-10 -1.2838e-11 -1.02651e-10 5e-05 1.46608e-10 
33 1 0.142379 0.016392 0.00772259 0.00573777 0.000455964 -0.000538165 1.34163e-10 -5.32229e-12 9.38176e-12 5e-05 1.46608e-10 
34 1 0.136709 0.0174354 0.00736022 0.00565623 0.00042442 -0.000630924 -1.51604e-10 7.43833e-11 9.80815e-11 5e-05 1.46608e-10 
36 1 0.142613 0.0174664 0.00729493 0.00562898 0.000551424 -0.000439303 -6.11557e-12 -4.23137e-12 1.31629e-12 5e-05 1.46608e-10 
37 1 0.136486 0.0168626 0.00747485 0.00565706 0.000574622 -0.000483656 -3.5502e-11 -1.11526e-10 -1.65389e-10 5e-05 1.46608e-10 
38 1 0.136639 0.0171679 0.00735955 0.00561973 0.000501084 -0.000646191 -1.28842e-10 8.9876e-11 8.49798e-12 5e-05 1.46608e-10 
39 1 0.142554 0.0171839 0.00737701 0.00564662 0.000550476 -0.000439718 7.03052e-12 -2.45397e-11 8.77523e-12 5e-05 1.46608e-10 
41 1 0.136371 0.0163964 0.0078194 0.00618287 -2.75792e-05 0.000624362 -1.79859e-09 3.97906e-09 4.99075e-09 5e-05 1.46608e-10 
42 1 0.136525 0.0170474 0.00740933 0.00565282 0.000525738 -0.000649505 3.4289e-11 -7.71292e-11 4.42814e-11 5e-05 1.46608e-10 
44 1 0.136753 0.0172884 0.00730974 0.00560948 0.000499928 -0.000642878 2.81486e-10 1.64826e-10 -1.0653e-10 5e-05 1.46608e-10 
45 1 0.142416 0.0165333 0.00758877 0.00579019 0.00048607 -0.000489296 5.93561e-12 6.44704e-12 -9.66555e-12 5e-05 1.46608e-10 
46 1 0.142476 0.0168072 0.00748645 0.00580424 0.000517796 -0.000438527 -2.45048e-12 -1.67262e-11 7.16329e-12 5e-05 1.46608e-10 
47 1 0.136411 0.0165512 0.00770149 0.00579331 0.000679891 -8.60289e-05 1.99359e-10 -3.90515e-10 -3.80379e-10 5e-05 1.46608e-10 
48 1 0.136734 0.0171958 0.00734221 0.00561329 0.00053747 -0.000656385 -1.15394e-10 -8.42001e-11 3.37242e-11 5e-05 1.46608e-10 
49 1 0.142456 0.0167131 0.00751381 0.00581287 0.000515453 -0.000438677 -2.25652e-11 -4.25716e-12 5.15375e-12 5e-05 1.46608e-10 
50 1 0.136697 0.0174474 0.00726163 0.00570274 0.000447619 -0.000634948 -1.60233e-12 1.53677e-10 -7.40831e-12 5e-05 1.46608e-10 
51 1 0.136798 0.0174735 0.0072444 0.00580455 0.000403227 -0.000628315 6.18666e-12 8.1762e-11 -3.6083e-11 5e-05 1.46608e-10 
52 1 0.136883 0.0184173 0.00700507 0.0063177 0.000478974 7.59805e-05 2.49745e-11 -7.20094e-11 6.11567e-12 5e-05 1.46608e-10 
53 1 0.142515 0.0169956 0.00743173 0.00562835 0.000554631 -0.000440248 -1.16394e-12 -1.36853e-12 -3.22402e-13 5e-05 1.46608e-10 
54 1 0.136426 0.0162832 0.00793932 0.00587333 0.000740189 -0.00014438 8.33839e-11 -1.39976e-10 1.67755e-10 5e-05 1.46608e-10 
55 1 0.130123 0.0156132 0.00865641 0.00611722 -0.000102356 -0.000431846 1.53398e-11 2.1849e-11 -2.41191e-11 5e-05 1.46608e-10 
56 1 0.136506 0.0169549 0.00744183 0.00566329 0.000531955 -0.000610389 -5.17455e-11 -1.59649e-10 -1.46929e-10 5e-05 1.46608e-10 
57 1 0.142396 0.0164534 0.00764554 0.00576292 0.000453899 -0.000536642 1.4961e-11 9.78111e-12 -1.17294e-11 5e-05 1.46608e-10 
59 1 0.136675 0.0169182 0.00743957 0.00568563 0.000492552 -0.000649456 -1.93933e-10 9.57252e-11 -3.41602e-12 5e-05 1.46608e-10 
60 1 0.136694 0.0170108 0.00740712 0.0056815 0.000508278 -0.000653869 -1.73e-10 3.38832e-11 -3.66951e-11 5e-05 1.46608e-10 
61 1 0.136391 0.0164665 0.00775078 0.00592721 0.000641739 -1.55407e-05 1.70684e-10 1.29204e-10 4.24245e-11 5e-05 1.46608e-10 
62 1 0.13707 0.0182306 0.0069899 0.00626023 0.000435225 7.65173e-05 6.81783e-11 -5.97925e-11 1.36524e-11 5e-05 1.46608e-10 
63 1 0.136714 0.0171033 0.00737467 0.0056432 0.000523361 -0.000654469 -1.01733e-10 2.02816e-11 -2.88261e-11 5e-05 1.46608e-10 
64 1 0.142534 0.0170898 0.00740437 0.00561916 0.000556694 -0.000440185 3.27913e-11 -2.14974e-11 6.25874e-12 5e-05 1.46608e-10 
65 1 0.130378 0.016433 0.00781816 0.00548462 5.16754e-05 -0.000530556 -1.39298e-10 -4.92712e-12 2.39458e-11 5e-05 1.46608e-10 
66 1 0.130636 0.0173764 0.00738801 0.00576521 0.000327391 0.000304712 1.30519e-10 -6.43461e-11 1.25807e-10 5e-05 1.46608e-10 
67 1 0.136891 0.017503 0.00722659 0.00586738 0.000276318 -0.000591208 -1.74969e-10 -1.0255e-10 5.15418e-11 5e-05 1.46608e-10 
68 1 0.136678 0.017353 0.00729461 0.00563989 0.000510875 -0.000649849 5.05981e-11 -8.70667e-11 -2.1397e-11 5e-05 1.46608e-10 
69 1 0.136561 0.0167981 0.00749041 0.00565442 0.000649772 -0.000290646 7.68585e-11 -1.52204e-10 -6.59015e-11 5e-05 1.46608e-10 
70 1 0.136677 0.017664 0.00728062 0.00593248 0.000420081 -0.000648527 1.8674e-10 4.6406e-11 -2.58176e-10 5e-05 1.46608e-10 
71 1 0.130101 0.015545 0.00872622 0.0061253 -0.000101887 -0.000433144 3.75913e-11 4.37733e-11 -4.70382e-11 5e-05 1.46608e-10 
72 1 0.13686 0.01787 0.00710718 0.00604528 0.000284754 -0.000611946 -7.5715e-11 -1.01551e-10 7.98985e-11 5e-05 1.46608e-10 
73 1 0.136931 0.0181271 0.00701559 0.00618222 0.000248996 -0.000600938 2.91951e-11 -1.00988e-11 3.85345e-12 5e-05 1.46608e-10 
74 1 0.136831 0.0180959 0.00703448 0.00621193 0.000293759 -0.000623167 1.91137e-10 -7.21943e-12 -1.1317e-10 5e-05 1.46608e-10 
76 1 0.13079 0.0182556 0.0070282 0.00617739 0.000234178 0.000418162 4.62254e-12 2.02979e-12 7.06007e-13 5e-05 1.46608e-10 
77 1 0.13676 0.0181224 0.00709913 0.00620166 0.000332712 -0.000623082 3.91416e-10 8.64229e-11 4.39764e-12 5e-05 1.46608e-10 
78 1 0.13021 0.0158875 0.00837865 0.0061032 -7.41229e-05 -0.000460529 6.18536e-12 9.3649e-11 -1.16254e-10 5e-05 1.46608e-10 
79 1 0.130434 0.0166394 0.00760782 0.00568271 -1.83695e-05 -0.000498954 1.2539e-11 1.96114e-10 -2.14448e-10 5e-05 1.46608e-10 
80 1 0.136698 0.017853 0.00721874 0.00599311 0.000447406 -0.000664968 3.77456e-12 9.23967e-11 8.87509e-11 5e-05 1.46608e-10 
81 1 0.130359 0.0163643 0.00788825 0.00558748 3.90167e-05 -0.000526159 -3.19481e-11 3.07342e-11 -3.69103e-11 5e-05 1.46608e-10 
82 1 0.130397 0.0165017 0.00774808 0.00560204 2.26307e-05 -0.000509343 5.18884e-12 -1.19667e-10 9.7497e-11 5e-05 1.46608e-10 
83 1 0.130297 0.0161598 0.0080988 0.00607685 -3.94161e-05 -0.000490169 1.00252e-10 -3.10701e-11 1.44844e-11 5e-05 1.46608e-10 
84 1 0.142633 0.0175605 0.00726757 0.00592017 0.000488624 -0.000436306 2.74243e-12 -4.16195e-12 1.20927e-12 5e-05 1.46608e-10 
85 1 0.136269 0.0160465 0.00816194 0.00618774 0.000722407 -9.69732e-05 5.68709e-11 2.42536e-11 1.01342e-10 5e-05 1.46608e-10 
86 1 0.136743 0.0176347 0.00721088 0.00597408 0.000419438 -0.000646004 7.54034e-11 1.57414e-10 -1.20579e-10 5e-05 1.46608e-10 
87 1 0.136828 0.0172239 0.00732485 0.00560805 0.000512682 -0.000647231 8.80825e-11 3.79379e-11 -1.13625e-11 5e-05 1.46608e-10 
88 1 0.136814 0.018361 0.00695937 0.00631367 0.000482141 7.58218e-05 -2.20885e-11 -6.06107e-11 -1.12493e-11 5e-05 1.46608e-10 
89 1 0.136789 0.0178591 0.00717802 0.00601104 0.000334589 -0.00063342 -1.67099e-12 2.12219e-10 1.79496e-10 5e-05 1.46608e-10 
90 1 0.136939 0.0179599 0.00707056 0.00612924 0.000226572 -0.000595241 9.002e-11 -1.38975e-10 2.1536e-11 5e-05 1.46608e-10 
91 1 0.136604 0.0174175 0.00727953 0.00566868 0.000514391 -0.000653054 9.42162e-11 8.95614e-11 -6.26899e-11 5e-05 1.46608e-10 
92 1 0.136978 0.0184011 0.00695613 0.00630544 0.000456062 7.63351e-05 -9.64837e-12 -9.78696e-11 1.27749e-11 5e-05 1.46608e-10 
93 1 0.13684 0.0180414 0.00716311 0.00613109 0.000287893 -0.000601215 1.97116e-10 -7.79783e-11 8.4733e-11 5e-05 1.46608e-10 
94 1 0.136761 0.0177306 0.00718928 0.00604958 0.000326225 -0.000627814 -1.425e-10 6.56191e-11 -1.14071e-10 5e-05 1.46608e-10 
95 1 0.136662 0.0176877 0.00718467 0.00596973 0.000432577 -0.000651583 1.24904e-11 8.58123e-12 3.88094e-12 5e-05 1.46608e-10 
96 1 0.136703 0.0178723 0.00711975 0.00615163 0.000394081 -0.000659921 -5.21372e-10 1.18592e-10 5.94031e-13 5e-05 1.46608e-10 
97 1 0.130548 0.0167436 0.00753255 0.005595 0.000217483 -0.000285865 -5.77039e-11 -1.46208e-10 -1.46385e-11 5e-05 1.46608e-10 
98 1 0.136922 0.0184821 0.00693976 0.00632811 0.000471245 7.41405e-05 -3.09074e-11 -7.06144e-11 -6.75336e-13 5e-05 1.46608e-10 
99 1 0.130452 0.0167083 0.00753767 0.00559462 4.88844e-06 -0.000481729 3.01787e-10 3.51885e-10 -5.97135e-11 5e-05 1.46608e-10 
100 1 0.136908 0.0183279 0.00696784 0.00630859 0.000474418 7.43672e-05 -7.37275e-11 -1.7085e-11 -5.1153e-12 5e-05 1.46608e-10 
101 1 0.130413 0.0162451 0.00800211 0.00608627 -6.45786e-05 -0.000466528 -1.3844e-10 6.05828e-11 -5.13593e-11 5e-05 1.46608e-10 
102 1 0.0694385 0.0202053 0.00537268 3.94664e-15 4.46972e-15 -7.68271e-14 -9.78606e-22 7.50899e-22 -7.65142e-24 5e-05 1.46608e-10 
104 1 0.130511 0.0165883 0.00765194 0.00565426 2.93908e-05 -0.000520976 -1.72315e-10 -7.95442e-12 2.30358e-11 5e-05 1.46608e-10 
105 1 0.130253 0.0160225 0.00823759 0.0060852 -5.16788e-05 -0.00047974 -3.8835e-11 1.1674e-10 -1.14039e-10 5e-05 1.46608e-10 
106 1 0.130607 0.0170116 0.00741469 0.00562082 0.000507556 0.000285313 -2.59118e-11 -4.10706e-11 8.32842e-12 5e-05 1.46608e-10 
107 1 0.130778 0.0175333 0.00736423 0.00590153 0.000394859 0.000341873 7.14998e-11 -7.93711e-11 -6.83644e-11 5e-05 1.46608e-10 
108 1 0.136707 0.0173303 0.00738777 0.00566736 0.000463383 -0.000676913 7.44015e-11 1.58421e-11 -1.27453e-10 5e-05 1.46608e-10 
109 1 0.136624 0.0175153 0.00727439 0.00570465 0.000498992 -0.000654036 -3.46894e-11 1.01054e-10 -6.03486e-11 5e-05 1.46608e-10 
110 1 0.136683 0.01778 0.00715221 0.00608678 0.000410724 -0.000653149 -1.25516e-10 -6.11805e-11 6.53568e-11 5e-05 1.46608e-10 
111 1 0.136879 0.0186533 0.00690711 0.006362 0.000471654 7.56986e-05 1.72955e-11 -3.81626e-11 1.81591e-11 5e-05 1.46608e-10 
112 1 0.130318 0.0162272 0.00802818 0.00607193 -4.17868e-05 -0.000488398 -3.38694e-11 1.47629e-11 -5.44105e-12 5e-05 1.46608e-10 
113 1 0.130624 0.0166811 0.00754972 0.00559414 0.00012865 -0.000617921 6.93382e-11 2.31349e-11 -3.93948e-11 5e-05 1.46608e-10 
115 1 0.136642 0.0175953 0.00721713 0.00586342 0.000460578 -0.000652256 -1.86376e-10 8.13735e-11 -4.72671e-11 5e-05 1.46608e-10 
116 1 0.136655 0.0168257 0.00747202 0.00567515 0.000515514 -0.000656151 4.61289e-11 -7.73293e-11 4.21438e-11 5e-05 1.46608e-10 
117 1 0.136523 0.0166334 0.00759603 0.00587887 0.000766018 -0.000164901 1.79722e-10 -9.81705e-11 5.22729e-12 5e-05 1.46608e-10 
118 1 0.130166 0.0157497 0.00851679 0.00610423 -9.37426e-05 -0.000439278 2.58927e-11 4.17045e-11 -4.41031e-11 5e-05 1.46608e-10 
119 1 0.13691 0.0175997 0.00719284 0.00597996 0.000187424 -0.000570816 1.42875e-11 6.72933e-11 -2.03746e-11 5e-05 1.46608e-10 
120 1 0.13629 0.0161163 0.00809373 0.00618567 0.000718819 -9.42877e-05 4.09539e-11 1.31334e-11 -9.80462e-12 5e-05 1.46608e-10 
121 1 0.136386 0.0161426 0.00807695 0.00590298 0.000837855 -0.000241879 -4.33696e-11 1.44617e-11 -2.0234e-11 5e-05 1.46608e-10 
122 1 0.136809 0.0179494 0.00713965 0.00607209 0.000316431 -0.000644835 8.8234e-11 2.74257e-11 1.03397e-10 5e-05 1.46608e-10 
123 1 0.130275 0.016091 0.00816805 0.00608169 -4.52733e-05 -0.000486515 8.11938e-11 5.25213e-11 -5.78746e-11 5e-05 1.46608e-10 
124 1 0.136908 0.0180752 0.00709785 0.00614642 0.000262613 -0.000599168 9.34274e-11 -9.77455e-11 -1.65355e-11 5e-05 1.46608e-10 
125 1 0.136406 0.0162132 0.0080079 0.00582439 0.000739804 -0.000150286 3.89452e-10 -3.98272e-10 4.22683e-10 5e-05 1.46608e-10 
126 1 0.136584 0.017325 0.00731198 0.00562792 0.000528381 -0.000654243 2.37607e-10 1.80868e-11 -3.78136e-11 5e-05 1.46608e-10 
127 1 0.131 0.0176722 0.00731864 0.00591784 0.000340136 0.000361876 4.22285e-11 -8.47921e-12 1.21864e-10 5e-05 1.46608e-10 
128 1 0.136834 0.0177782 0.00713994 0.00602656 0.000353317 -0.000631839 -4.76309e-11 -1.8514e-11 1.34886e-10 5e-05 1.46608e-10 
129 1 0.13672 0.0179459 0.00718543 0.00606183 0.000373106 -0.000651945 -8.91552e-11 1.37027e-10 -3.04611e-10 5e-05 1.46608e-10 
131 1 0.130529 0.0166614 0.00758613 0.00567258 5.8777e-05 -0.000487242 -2.63669e-11 -1.48965e-10 -6.60278e-11 5e-05 1.46608e-10 
132 1 0.136848 0.0180019 0.00706429 0.00614949 0.000282009 -0.000621432 1.05981e-10 -5.07497e-11 -2.52988e-11 5e-05 1.46608e-10 
133 1 0.136487 0.0164931 0.00773378 0.00588265 0.00074485 -0.000153797 -4.50592e-10 6.1044e-11 1.28496e-10 5e-05 1.46608e-10 
134 1 0.136982 0.0180442 0.0070388 0.00613372 0.000236018 -0.000597785 4.11859e-11 -4.13741e-11 -1.674e-11 5e-05 1.46608e-10 
135 1 0.136601 0.0165932 0.00764449 0.00592511 0.000811167 -0.000212663 -9.96494e-11 1.29942e-11 1.13159e-11 5e-05 1.46608e-10 
136 1 0.130188 0.0158179 0.00844698 0.0061022 -8.42773e-05 -0.000448737 7.98836e-12 7.36193e-11 -7.31161e-11 5e-05 1.46608e-10 
137 1 0.136771 0.0181733 0.00701387 0.00622033 0.000297939 -0.000639439 1.37123e-10 8.5651e-11 -2.68712e-11 5e-05 1.46608e-10 
138 1 0.136868 0.0182028 0.00699869 0.00622843 0.000324628 -0.000425194 -3.57265e-11 -4.10126e-11 3.56234e-11 5e-05 1.46608e-10 
140 1 0.136723 0.0175384 0.00722916 0.00583322 0.00043434 -0.000640202 -1.82941e-10 1.69542e-10 -3.22688e-11 5e-05 1.46608e-10 
141 1 0.130349 0.0160401 0.00821172 0.00612142 -2.01557e-05 -0.000514357 -1.06995e-10 -6.50041e-11 8.35018e-11 5e-05 1.46608e-10 
142 1 0.130454 0.0163821 0.00786219 0.00566374 2.31264e-05 -0.000516866 -1.90993e-10 9.39908e-11 -8.351e-11 5e-05 1.46608e-10 
143 1 0.130231 0.0159543 0.0083074 0.00609636 -6.10559e-05 -0.000471465 -2.55196e-11 1.18583e-10 -1.17447e-10 5e-05 1.46608e-10 
146 1 0.130534 0.0163361 0.00790099 0.0056405 -9.08143e-06 -0.000482985 -1.86397e-10 -1.14037e-11 1.92734e-11 5e-05 1.46608e-10 
147 1 0.130145 0.0156814 0.00858661 0.00611001 -9.99565e-05 -0.000433567 9.86799e-12 2.05017e-11 -2.46164e-11 5e-05 1.46608e-10 
148 1 0.00854298 0.017786 0.00781654 0.000124055 -0.0189256 0.00681973 -1.40746e-11 -3.34269e-10 1.0037e-10 5e-05 1.46608e-10 
149 1 0.136967 0.0182175 0.00698971 0.00625602 0.000441622 7.74274e-05 -5.95863e-11 -5.38622e-11 2.15553e-11 5e-05 1.46608e-10 
150 1 0.130434 0.0163136 0.00793218 0.00596834 -3.7996e-05 -0.000482875 9.82679e-11 7.78859e-11 -7.89044e-11 5e-05 1.46608e-10 
151 1 0.130952 0.0174002 0.00731697 0.00580912 0.000393613 0.000337581 7.43529e-11 1.47546e-11 -1.30501e-11 5e-05 1.46608e-10 
153 1 0.130514 0.0162676 0.00797097 0.00593425 -6.47213e-05 -0.000453445 -2.17791e-10 -9.02834e-12 3.10824e-11 5e-05 1.46608e-10 
154 1 0.130643 0.0172056 0.00737601 0.00561275 0.000482114 0.000287548 -1.45943e-10 -7.45867e-11 3.48612e-11 5e-05 1.46608e-10 
155 1 0.124768 0.0177326 0.00704983 0.00561312 -9.47416e-05 7.98495e-05 5.67576e-11 -8.98459e-11 2.7095e-11 5e-05 1.46608e-10 
156 1 0.13053 0.0170728 0.0073987 0.00563209 0.000522582 0.000281088 1.72919e-12 -1.95473e-12 5.07773e-11 5e-05 1.46608e-10 
157 1 0.130681 0.0174845 0.00726809 0.00581034 0.000476812 0.000311428 -2.90839e-11 -5.9937e-11 2.69198e-11 5e-05 1.46608e-10 
158 1 0.13076 0.0168919 0.00746544 0.00558009 0.000448184 0.000301069 8.49268e-11 -9.89543e-11 2.44532e-11 5e-05 1.46608e-10 
159 1 0.136966 0.0186044 0.00691832 0.00636702 0.000480282 7.28258e-05 7.4401e-11 2.83794e-11 -2.28441e-12 5e-05 1.46608e-10 
160 1 0.130607 0.0174472 0.00732394 0.00588702 0.000443289 0.000388685 4.28903e-11 -6.14263e-12 1.17228e-10 5e-05 1.46608e-10 
162 1 0.13057 0.0168323 0.00749214 0.00556502 0.00040519 9.69339e-05 -2.62777e-11 -6.19645e-11 1.40581e-10 5e-05 1.46608e-10 
163 1 0.130778 0.0169859 0.00743659 0.00560058 0.000447946 0.000302084 1.5874e-11 -1.1194e-10 3.93659e-11 5e-05 1.46608e-10 
164 1 0.130801 0.0176119 0.00723657 0.00585231 0.00044325 0.000326619 1.58169e-11 1.22724e-10 -4.5605e-11 5e-05 1.46608e-10 
165 1 0.130705 0.0166305 0.00759715 0.0057192 5.28969e-05 -0.000281053 7.33849e-11 -1.32122e-11 8.42027e-11 5e-05 1.46608e-10 
166 1 0.136225 0.0159068 0.00829834 0.00621507 0.000742802 -0.000113872 4.92137e-11 -6.07339e-12 1.03253e-10 5e-05 1.46608e-10 
167 1 0.130553 0.0164048 0.00783093 0.00551425 1.4841e-05 -0.00049615 -2.75626e-10 2.34414e-11 3.41284e-12 5e-05 1.46608e-10 
168 1 0.130665 0.0172911 0.00732914 0.00563882 0.000473679 0.000296298 -5.78477e-11 -5.86091e-12 3.38198e-11 5e-05 1.46608e-10 
169 1 0.130813 0.0171741 0.00737875 0.00568936 0.00043772 0.000314442 -2.28199e-11 -4.69857e-12 7.07363e-11 5e-05 1.46608e-10 
170 1 0.130737 0.0172392 0.00737413 0.00568327 0.000408983 0.000148105 -9.58035e-11 2.21166e-10 6.45882e-10 5e-05 1.46608e-10 
171 1 0.136616 0.0166636 0.0075751 0.00584793 0.000811197 -0.000217894 -1.73949e-11 1.54764e-10 -6.93122e-11 5e-05 1.46608e-10 
172 1 0.131005 0.0177028 0.0072236 0.0059442 0.000337184 0.00036538 -8.56614e-11 -6.67822e-11 4.90179e-11 5e-05 1.46608e-10 
173 1 0.136873 0.0174093 0.00725937 0.00572694 0.000309098 -0.000589892 1.01732e-10 7.23219e-11 -2.47567e-11 5e-05 1.46608e-10 
174 1 0.130699 0.0175909 0.00738592 0.00592807 0.000420492 0.000376703 2.48073e-11 -1.17415e-10 -7.40458e-11 5e-05 1.46608e-10 
175 1 0.127518 0.0172348 0.0071945 0.00568243 -0.000327567 0.000135022 7.78947e-14 -3.36054e-15 2.42013e-15 5e-05 1.46608e-10 
176 1 0.13051 0.0169778 0.00742273 0.00560731 0.000523034 0.00027744 -7.0752e-11 -7.27296e-11 4.02096e-11 5e-05 1.46608e-10 
177 1 0.13101 0.0178094 0.00718964 0.0059997 0.000372007 0.000359683 1.18129e-10 -1.1905e-10 5.78371e-11 5e-05 1.46608e-10 
178 1 0.131002 0.0175883 0.00726033 0.00585762 0.000390429 0.000342345 1.58454e-10 -1.06029e-11 1.42821e-11 5e-05 1.46608e-10 
179 1 0.124574 0.0172457 0.00722315 0.00565502 -0.000124305 8.20595e-06 -3.40988e-11 -7.63006e-11 1.65258e-11 5e-05 1.46608e-10 
180 1 0.130684 0.0169521 0.00743998 0.00559392 0.000479859 0.000292694 -6.53997e-11 -4.10975e-11 6.22512e-11 5e-05 1.46608e-10 
181 1 0.130719 0.0171405 0.00738201 0.00561576 0.000490902 0.000291604 -1.56006e-10 -1.57547e-10 7.67023e-11 5e-05 1.46608e-10 
182 1 0.136789 0.0170387 0.00738979 0.00567963 0.000566878 -0.000671667 -1.32874e-10 4.16612e-12 -1.47698e-11 5e-05 1.46608e-10 
183 1 0.13083 0.0172683 0.00734972 0.00573474 0.000433808 0.000319984 -9.52904e-11 -4.36599e-12 1.97707e-11 5e-05 1.46608e-10 
184 1 0.136741 0.0180393 0.00715154 0.00614342 0.000354112 -0.000623371 9.63631e-11 2.13349e-10 1.80856e-10 5e-05 1.46608e-10 
185 1 0.130549 0.0171634 0.00736111 0.00563581 0.000525305 0.000282086 -3.68384e-11 -7.04048e-12 2.68613e-11 5e-05 1.46608e-10 
186 1 0.130588 0.0169179 0.00744334 0.00560134 0.00050945 0.000281179 -4.81426e-11 -4.75201e-11 4.73177e-11 5e-05 1.46608e-10 
187 1 0.136809 0.0171312 0.00735734 0.00564517 0.000585078 -0.000674181 -2.23519e-10 -3.444e-11 4.21641e-11 5e-05 1.46608e-10 
188 1 0.136724 0.0179645 0.00708728 0.0061533 0.000392907 -0.000652171 -1.36863e-10 1.36651e-10 1.27087e-11 5e-05 1.46608e-10 
189 1 0.136503 0.0165634 0.00766453 0.00592072 0.000751732 -0.000160494 1.11552e-10 8.41075e-11 2.37491e-10 5e-05 1.46608e-10 
190 1 0.130856 0.0181856 0.00705604 0.00618003 0.00023649 0.000417579 2.34124e-11 1.0953e-11 -2.15361e-12 5e-05 1.46608e-10 
191 1 0.136793 0.0182673 0.0069871 0.0062619 0.000385795 -0.000283673 2.70661e-11 -2.7064e-12 -5.32369e-11 5e-05 1.46608e-10 
192 1 0.130625 0.0171099 0.00739901 0.00561308 0.0004851 0.000283274 -1.27612e-10 -3.74343e-11 1.00502e-10 5e-05 1.46608e-10 
193 1 0.136858 0.0185587 0.00693158 0.00633864 0.000480036 7.51973e-05 3.25774e-11 -1.16713e-11 -1.38818e-11 5e-05 1.46608e-10 
194 1 0.130473 0.0164508 0.00779214 0.00552691 5.0023e-05 -0.000532678 -9.44805e-11 2.5595e-11 -1.72321e-11 5e-05 1.46608e-10 
195 1 0.130751 0.017336 0.00735174 0.00579961 0.000216382 0.000189194 7.49862e-11 -7.25157e-11 -4.07272e-11 5e-05 1.46608e-10 
196 1 0.130036 0.0153403 0.00893564 0.00614777 -9.70962e-05 -0.000439753 6.76045e-11 2.19704e-10 -2.23368e-10 5e-05 1.46608e-10 
197 1 0.130827 0.0177217 0.00730798 0.00592874 0.000395677 0.000325376 -2.61846e-10 7.35004e-11 1.49891e-11 5e-05 1.46608e-10 
198 1 0.130471 0.0167853 0.00747674 0.00562689 0.000539205 0.000255635 -2.1564e-10 2.11814e-10 -2.01256e-10 5e-05 1.46608e-10 
199 1 0.130589 0.0173509 0.00730379 0.00567479 0.000509862 0.000286671 -1.56409e-10 6.53611e-12 3.1608e-11 5e-05 1.46608e-10 
200 1 0.130492 0.0165196 0.00772204 0.00558161 4.01807e-05 -0.000528208 1.45453e-11 -3.94169e-11 1.51016e-11 5e-05 1.46608e-10 
201 1 0.13092 0.0180675 0.00709925 0.00609035 0.000352441 0.000372813 2.73736e-11 -5.19218e-11 2.0432e-11 5e-05 1.46608e-10 
203 1 0.13703 0.0181403 0.00700555 0.00621659 0.000450237 7.08001e-05 -1.18634e-11 4.57448e-11 -3.09572e-11 5e-05 1.46608e-10 
204 1 0.130609 0.0166117 0.0076201 0.00577483 0.000110288 -0.00061298 -1.39922e-11 -3.8856e-12 -1.72478e-10 5e-05 1.46608e-10 
205 1 0.130738 0.0176911 0.00734054 0.00593819 0.000419954 0.000373505 7.18318e-11 1.61871e-10 -4.91417e-11 5e-05 1.46608e-10 
206 1 0.130682 0.0173865 0.0072998 0.00582099 0.000391003 0.000337719 3.21961e-11 -2.70864e-11 2.0057e-11 5e-05 1.46608e-10 
207 1 0.130493 0.0161991 0.00804091 0.00606966 -9.03022e-05 -0.000439867 -3.22703e-10 5.89461e-12 2.6486e-11 5e-05 1.46608e-10 
208 1 0.130569 0.0172572 0.00733245 0.00564219 0.000520391 0.000282264 -6.52287e-11 5.4059e-12 -2.27496e-12 5e-05 1.46608e-10 
209 1 0.124595 0.0173295 0.00717265 0.00567457 -0.000127709 1.02195e-05 -4.41216e-11 -4.94848e-12 -6.53113e-12 5e-05 1.46608e-10 
210 1 0.136247 0.0159782 0.00823171 0.00619538 0.000735459 -0.000101284 5.0344e-11 3.13456e-11 1.99085e-10 5e-05 1.46608e-10 
211 1 0.136949 0.0183009 0.00705482 0.00629698 0.000455013 7.38605e-05 -4.98159e-11 1.69452e-11 -3.29144e-11 5e-05 1.46608e-10 
212 1 0.130964 0.0174993 0.00728599 0.00583809 0.000379816 0.000344255 4.17759e-11 2.034e-11 5.97677e-12 5e-05 1.46608e-10 
213 1 0.136938 0.0178084 0.00712106 0.00604739 0.000280256 -0.000610057 -1.39726e-11 7.1092e-11 -1.20996e-11 5e-05 1.46608e-10 
214 1 0.137017 0.0182304 0.00707495 0.00625697 0.000454394 7.37941e-05 -6.67536e-11 -3.48969e-12 -1.55675e-11 5e-05 1.46608e-10 
215 1 0.130664 0.0168583 0.00746863 0.0055908 0.000482344 0.000293583 -5.64689e-11 4.25601e-12 1.09309e-10 5e-05 1.46608e-10 
216 1 0.13074 0.0167981 0.00749414 0.00556662 0.000449058 0.000301561 1.23614e-10 -7.66672e-11 4.53081e-11 5e-05 1.46608e-10 
217 1 0.136636 0.0167338 0.00750626 0.00561805 0.000680371 -0.000118471 1.94687e-10 -4.81109e-11 1.06955e-10 5e-05 1.46608e-10 
218 1 0.130796 0.0175141 0.00726771 0.00584903 0.000443666 0.000323859 4.93635e-11 2.06749e-11 -4.06045e-11 5e-05 1.46608e-10 
219 1 0.136848 0.0183311 0.00704827 0.0063151 0.000476099 7.96216e-05 -1.85897e-10 1.47246e-11 8.49698e-11 5e-05 1.46608e-10 
220 1 0.130647 0.0167737 0.00751951 0.00553981 0.00039454 0.000150227 6.67941e-11 -3.85593e-11 4.02109e-11 5e-05 1.46608e-10 
221 1 0.124478 0.0168277 0.00747981 0.00552545 -1.23958e-05 0.000160245 -6.08996e-11 3.09756e-11 -3.77297e-11 5e-05 1.46608e-10 
222 1 0.13643 0.0166265 0.00763863 0.00584228 0.000719704 -5.98643e-05 6.76801e-11 -2.9871e-11 1.50154e-10 5e-05 1.46608e-10 
223 1 0.130701 0.0170464 0.00741098 0.00562289 0.000503493 0.000288961 -3.69272e-12 -5.18411e-11 6.40122e-11 5e-05 1.46608e-10 
224 1 0.13049 0.0168791 0.00744804 0.00562228 0.000527528 0.000279277 -4.48635e-11 8.30669e-11 -5.86441e-11 5e-05 1.46608e-10 
225 1 0.136913 0.0177171 0.00715354 0.00603721 0.00027832 -0.000611171 -3.00241e-10 7.82064e-11 -5.6216e-11 5e-05 1.46608e-10 
226 1 0.130723 0.0167136 0.00754474 0.00546287 0.00028671 -1.86291e-06 3.84008e-11 -1.13345e-11 1.1538e-10 5e-05 1.46608e-10 
227 1 0.124536 0.0170792 0.00732699 0.00558069 -0.000112048 -3.40274e-06 -2.35462e-10 -3.49903e-11 -3.5108e-11 5e-05 1.46608e-10 
228 1 0.0507861 0.0189683 0.00558458 -5.3078e-15 -1.9118e-14 -2.87013e-13 -1.33425e-22 9.35877e-23 -3.51552e-24 5e-05 1.46608e-10 
229 1 0.130305 0.0159033 0.00835176 0.00610851 -5.00593e-05 -0.000483047 -1.2807e-10 1.61538e-10 -1.51592e-10 5e-05 1.46608e-10 
230 1 0.130783 0.017831 0.00729079 0.00598295 0.000404821 0.000379379 -1.09674e-10 1.68363e-10 -5.43787e-11 5e-05 1.46608e-10 
231 1 0.197479 0.018695 0.00523156 -1.1079e-15 -2.69839e-14 1.45242e-13 -5.93244e-23 -8.16841e-24 -1.86116e-24 5e-05 1.46608e-10 
232 1 0.130327 0.0159715 0.00828195 0.00609692 -4.50786e-05 -0.000486953 -4.5228e-11 1.58359e-10 -1.55884e-10 5e-05 1.46608e-10 
233 1 0.130591 0.0165424 0.00769065 0.00561059 -1.9485e-05 -0.000469485 -6.48546e-11 9.07989e-11 -7.12878e-11 5e-05 1.46608e-10 
234 1 0.136182 0.0157672 0.00843476 0.00624123 0.000767216 -0.000135501 4.1248e-11 1.09049e-10 -1.05782e-10 5e-05 1.46608e-10 
235 1 0.130823 0.0180871 0.00708519 0.00610338 0.000387401 0.000363153 6.61264e-11 -1.51938e-12 -6.89386e-12 5e-05 1.46608e-10 
236 1 0.13077 0.0181696 0.00710456 0.00611722 0.000396965 0.000361928 5.38455e-12 -1.35924e-11 -6.78017e-11 5e-05 1.46608e-10 
237 1 0.130676 0.0177527 0.00718128 0.00602417 0.000300687 0.000381298 -6.10729e-11 5.75856e-11 -6.18042e-11 5e-05 1.46608e-10 
238 1 0.124613 0.0174142 0.00712268 0.00569653 -8.75198e-05 8.09138e-05 -2.59103e-11 5.63571e-11 -1.37215e-12 5e-05 1.46608e-10 
239 1 0.124379 0.0164044 0.00772723 0.00561425 -2.14646e-05 0.000169298 5.44708e-12 1.25049e-12 1.56743e-11 5e-05 1.46608e-10 
240 1 0.124458 0.016743 0.00752932 0.0055225 -9.23257e-06 0.000160516 4.50469e-11 9.91651e-11 -3.57603e-11 5e-05 1.46608e-10 
241 1 0.124399 0.0164891 0.00767777 0.00563184 -2.31578e-05 0.000170714 -1.86651e-11 -1.12534e-11 -9.209e-12 5e-05 1.46608e-10 
242 1 0.124749 0.017637 0.00707197 0.00564306 -8.24604e-05 7.72868e-05 -3.34308e-11 6.0775e-11 -1.59656e-11 5e-05 1.46608e-10 
243 1 0.12436 0.0163198 0.00777668 0.00559748 -1.97204e-05 0.000168025 -5.39199e-12 1.01095e-11 -9.99933e-12 5e-05 1.46608e-10 
244 1 0.124419 0.0165737 0.00762832 0.00564426 -2.54292e-05 0.000172844 4.95075e-11 2.92012e-11 -1.79105e-11 5e-05 1.46608e-10 
245 1 0.124633 0.0175097 0.00710054 0.00567313 -8.79468e-05 7.93618e-05 9.43934e-12 8.10959e-11 -1.70731e-11 5e-05 1.46608e-10 
246 1 0.124497 0.0169124 0.00743028 0.00555023 -8.78504e-06 0.000162169 -2.56927e-11 2.14501e-11 5.81195e-13 5e-05 1.46608e-10 
247 1 0.130842 0.017363 0.00732015 0.0057836 0.000434884 0.000324141 2.49758e-11 3.6061e-12 -1.51671e-11 5e-05 1.46608e-10 
248 1 0.130886 0.0175563 0.00726134 0.00586188 0.000420377 0.000333375 5.14324e-11 -2.60924e-11 -3.23961e-12 5e-05 1.46608e-10 