ITEM: TIMESTEP
24600000
ITEM: NUMBER OF ATOMS
214
ITEM: BOX BOUNDS ff ff ff
-0.02 0.43
-0.02 0.06
-0.02 0.07
ITEM: ATOMS id type x y z vx vy vz fx fy fz radius mass 
1 1 0.156438 0.0166726 0.00758193 0.00620076 0.000548956 -2.68205e-05 -3.84023e-11 3.9585e-11 -4.43463e-11 5e-05 1.46608e-10 
2 1 0.156541 0.0178763 0.00714415 0.00624974 0.000394862 -0.000776849 -2.78959e-11 4.23589e-11 4.83934e-12 5e-05 1.46608e-10 
3 1 0.144601 0.0181408 0.00704645 0.00581653 0.000449726 0.00162317 -1.30927e-11 -3.96434e-11 2.16051e-11 5e-05 1.46608e-10 
4 1 0.156301 0.0164628 0.00768083 0.00593772 0.000608531 -6.72791e-05 9.09176e-11 -1.08157e-11 1.19295e-11 5e-05 1.46608e-10 
5 1 0.156414 0.0165853 0.00762437 0.00611256 0.000526481 -1.98463e-05 5.56256e-11 -8.53405e-11 4.36999e-11 5e-05 1.46608e-10 
6 1 0.162211 0.0164572 0.00766811 0.00562139 -0.000106899 0.000275571 -1.59288e-10 1.53067e-11 -8.17837e-11 5e-05 1.46608e-10 
7 1 0.156056 0.0159416 0.00826924 0.00561867 -1.28872e-05 -0.000673767 1.898e-10 -3.67233e-11 3.15087e-11 5e-05 1.46608e-10 
8 1 0.156279 0.01639 0.00774571 0.00581162 0.000631191 -8.43365e-05 6.71605e-11 -1.87088e-11 1.45418e-11 5e-05 1.46608e-10 
9 1 0.162416 0.0173562 0.00734828 0.00599529 -0.000386189 7.15944e-06 -9.386e-13 -6.39242e-12 2.62981e-12 5e-05 1.46608e-10 
10 1 0.156074 0.0159917 0.00818466 0.00556488 -1.0515e-05 -0.000675854 7.04984e-11 3.55418e-12 1.65194e-11 5e-05 1.46608e-10 
11 1 0.156093 0.0160417 0.00810023 0.00549667 5.99089e-06 -0.00067812 1.02931e-10 2.55164e-11 7.09196e-11 5e-05 1.46608e-10 
13 1 0.156499 0.0176812 0.00715737 0.00631987 0.000363381 -0.000781921 3.8063e-12 -2.26024e-11 -1.8053e-10 5e-05 1.46608e-10 
15 1 0.156185 0.0163554 0.00774586 0.00578298 0.000698555 -0.000119405 -3.20816e-11 2.02147e-11 4.0262e-12 5e-05 1.46608e-10 
17 1 0.156409 0.0173084 0.00736485 0.0063208 0.000569434 -2.21929e-05 -5.9065e-11 1.17431e-10 1.38105e-10 5e-05 1.46608e-10 
18 1 0.162525 0.0174025 0.00733572 0.00599032 -0.000375595 4.75509e-06 1.99396e-12 1.79059e-12 -4.60389e-13 5e-05 1.46608e-10 
19 1 0.155913 0.0155929 0.00885908 0.00592567 -3.24214e-05 -0.000679768 -9.04369e-12 -4.7713e-11 8.13245e-11 5e-05 1.46608e-10 
20 1 0.156688 0.0177413 0.0071317 0.00629226 0.000442976 -0.000781881 -1.33376e-11 6.72613e-11 2.80215e-12 5e-05 1.46608e-10 
21 1 0.155935 0.0156425 0.008775 0.00591262 -3.38979e-05 -0.000674746 -5.69273e-11 -2.20617e-11 4.22749e-11 5e-05 1.46608e-10 
22 1 0.156131 0.0161463 0.00793396 0.00572692 0.000184508 -0.000500761 1.91024e-10 -6.27532e-11 1.06459e-10 5e-05 1.46608e-10 
23 1 0.150656 0.0184035 0.00697839 0.00537809 -0.00197733 0.000549831 4.63723e-12 3.16926e-11 1.10966e-11 5e-05 1.46608e-10 
24 1 0.162395 0.0172613 0.00737117 0.00600544 -0.000388945 7.80191e-06 -9.49416e-13 -1.57636e-11 3.89297e-12 5e-05 1.46608e-10 
25 1 0.156488 0.0172502 0.00729671 0.00632142 0.000541945 -1.93276e-05 1.87524e-12 -7.61447e-12 3.40769e-11 5e-05 1.46608e-10 
26 1 0.162288 0.0167865 0.00748566 0.00584935 -0.000356417 2.78801e-06 3.41698e-11 -9.56227e-11 2.53017e-11 5e-05 1.46608e-10 
28 1 0.156615 0.0178088 0.00713792 0.00626475 0.000412022 -0.000778234 -5.40776e-11 3.588e-11 8.86655e-12 5e-05 1.46608e-10 
29 1 0.156451 0.0167713 0.00757241 0.00622787 0.000548403 -2.03123e-05 -3.40946e-11 3.84435e-11 3.36697e-11 5e-05 1.46608e-10 
30 1 0.15652 0.0177787 0.00715061 0.00628116 0.000369115 -0.000777655 -1.33814e-11 -1.62159e-11 -1.06068e-13 5e-05 1.46608e-10 
31 1 0.156174 0.0162608 0.00777621 0.00577802 0.000697626 -0.000121184 -1.01899e-10 4.66103e-11 2.89503e-11 5e-05 1.46608e-10 
32 1 0.156402 0.016899 0.00746792 0.0062727 0.000549983 -3.0143e-05 1.98322e-11 -6.92496e-11 2.10469e-11 5e-05 1.46608e-10 
33 1 0.16223 0.0165169 0.00759018 0.00565038 -0.000112011 0.000279171 6.17387e-11 2.70616e-11 -9.97155e-11 5e-05 1.46608e-10 
34 1 0.156392 0.0172232 0.00731303 0.00631244 0.000549644 -2.48279e-05 -3.74317e-11 -1.11916e-11 3.4349e-11 5e-05 1.46608e-10 
36 1 0.162438 0.0174511 0.00732539 0.00598507 -0.000384245 6.88863e-06 3.31514e-12 6.98433e-12 -3.22671e-12 5e-05 1.46608e-10 
37 1 0.15632 0.0163005 0.00776227 0.00337079 -0.000420005 0.000341324 1.73185e-11 -4.75161e-11 8.76496e-12 5e-05 1.46608e-10 
38 1 0.156378 0.0164062 0.00771196 0.00585571 0.000519051 -2.72041e-05 -8.37379e-12 -1.26368e-10 8.61504e-11 5e-05 1.46608e-10 
39 1 0.162373 0.0171664 0.00739406 0.00601556 -0.000392122 8.25638e-06 -4.94001e-12 -8.50915e-12 -3.90568e-13 5e-05 1.46608e-10 
41 1 0.155978 0.0157417 0.00860683 0.00589898 -4.11004e-05 -0.000661995 -1.70595e-11 3.47069e-11 -6.78833e-11 5e-05 1.46608e-10 
42 1 0.156111 0.0160921 0.00801577 0.00537271 6.07788e-05 -0.000668979 1.87778e-10 -2.2285e-11 1.03763e-10 5e-05 1.46608e-10 
44 1 0.156571 0.0178272 0.00722599 0.00625576 0.00040339 -0.000779419 -2.37013e-10 -1.11848e-10 -6.4056e-11 5e-05 1.46608e-10 
45 1 0.162268 0.0166911 0.00750863 0.00564067 -0.000319072 -4.12567e-06 5.11445e-12 -1.41193e-10 -1.81752e-12 5e-05 1.46608e-10 
47 1 0.15602 0.0158411 0.00843846 0.00579924 -3.13673e-05 -0.000665352 -3.22912e-11 2.93228e-11 -4.04644e-11 5e-05 1.46608e-10 
49 1 0.162308 0.0168816 0.00746273 0.00604832 -0.000397389 8.72212e-06 6.89741e-11 -6.44103e-13 -1.74715e-11 5e-05 1.46608e-10 
50 1 0.156627 0.017455 0.00720039 0.0063383 0.000529951 -1.38434e-05 7.77125e-12 -3.78712e-12 5.89918e-12 5e-05 1.46608e-10 
51 1 0.150698 0.0185996 0.00701866 0.00533135 -0.00197277 0.001045 4.41411e-12 5.55864e-12 1.9767e-11 5e-05 1.46608e-10 
52 1 0.156761 0.017673 0.00712559 0.00632342 0.000481184 -0.000786888 -1.70534e-11 6.21006e-11 5.83383e-12 5e-05 1.46608e-10 
53 1 0.16233 0.0169766 0.00743984 0.00603871 -0.000396019 8.99067e-06 3.6147e-11 2.55672e-11 -1.85216e-11 5e-05 1.46608e-10 
54 1 0.156679 0.0173082 0.00727542 0.00631446 0.000540416 -1.98238e-05 -3.66985e-11 -1.03439e-10 5.86267e-11 5e-05 1.46608e-10 
55 1 0.150638 0.018313 0.00701679 0.00532028 -0.00196464 0.00054536 -1.71831e-11 -2.15508e-11 -2.01455e-11 5e-05 1.46608e-10 
56 1 0.156445 0.0170777 0.00738827 0.00628944 0.000544212 -2.49677e-05 -5.02696e-12 -7.81801e-11 -1.3553e-10 5e-05 1.46608e-10 
57 1 0.16225 0.0165956 0.00753163 0.00564355 -0.00032421 -2.05357e-06 7.57702e-11 -1.11401e-11 5.35172e-11 5e-05 1.46608e-10 
59 1 0.156541 0.0171038 0.00737158 0.00629682 0.000529773 -1.487e-05 -3.33496e-11 -1.53037e-11 -1.77619e-11 5e-05 1.46608e-10 
60 1 0.156658 0.0172203 0.00731829 0.00631052 0.000533163 -1.62258e-05 5.89157e-11 9.62092e-11 -4.41094e-11 5e-05 1.46608e-10 
61 1 0.156 0.0157913 0.00852274 0.00587442 -4.02304e-05 -0.000660161 -3.57904e-11 4.54735e-11 -5.807e-11 5e-05 1.46608e-10 
62 1 0.156492 0.0176956 0.00730611 0.00614024 0.000416038 -0.000903681 -5.42112e-11 2.52563e-11 -2.84448e-12 5e-05 1.46608e-10 
63 1 0.156243 0.0166211 0.00763052 0.00618393 0.000622539 -7.25174e-05 1.10282e-10 -7.57965e-11 -6.32638e-11 5e-05 1.46608e-10 
64 1 0.162351 0.0170715 0.00741695 0.00602562 -0.000394592 8.7232e-06 -2.38762e-12 1.56616e-11 2.35131e-12 5e-05 1.46608e-10 
65 1 0.150378 0.0171855 0.00739572 0.00575117 -0.00155767 0.00039853 -4.2355e-12 -1.90022e-11 6.63613e-12 5e-05 1.46608e-10 
66 1 0.150292 0.0168162 0.00752234 0.005763 -0.00155238 0.000396415 8.54502e-12 4.28105e-11 -1.42142e-11 5e-05 1.46608e-10 
67 1 0.156604 0.018169 0.00712476 0.00615221 0.000418947 -0.000764663 3.44927e-12 2.01824e-11 4.97002e-13 5e-05 1.46608e-10 
69 1 0.156474 0.0168533 0.00752002 0.00625395 0.000540355 -2.05927e-05 9.66396e-13 -2.73534e-11 1.53669e-11 5e-05 1.46608e-10 
70 1 0.156753 0.0172489 0.00730782 0.00630296 0.000532512 -1.68527e-05 6.58528e-11 -4.25197e-11 3.89616e-11 5e-05 1.46608e-10 
72 1 0.156398 0.0164948 0.00766874 0.00599029 0.000510863 -1.91982e-05 -6.52198e-11 -1.77618e-11 4.99738e-12 5e-05 1.46608e-10 
73 1 0.156284 0.0167819 0.00752148 0.00625902 0.000617263 -6.33955e-05 2.27786e-10 4.60229e-11 1.92873e-11 5e-05 1.46608e-10 
74 1 0.156699 0.018199 0.00711206 0.00614087 0.000455261 -0.000764642 -1.45274e-12 5.79062e-12 -3.93975e-13 5e-05 1.46608e-10 
76 1 0.145405 0.0205718 0.00539992 7.40986e-15 9.13242e-15 -2.35015e-13 1.1609e-22 -6.5735e-23 1.44757e-24 5e-05 1.46608e-10 
77 1 0.156657 0.0180039 0.00712499 0.00621143 0.00042879 -0.000772017 1.17162e-11 1.06098e-11 -2.41354e-12 5e-05 1.46608e-10 
78 1 0.15058 0.017666 0.00731587 0.00573811 -0.00155488 0.000397627 3.02285e-11 -1.97653e-11 4.56243e-12 5e-05 1.46608e-10 
80 1 0.156625 0.0182665 0.00711829 0.00611782 0.000428583 -0.000760682 -2.2161e-12 3.53919e-12 -3.77146e-14 5e-05 1.46608e-10 
81 1 0.15059 0.0176924 0.0072199 0.00573331 -0.00155399 0.000397681 -9.21653e-12 -3.10318e-12 2.56203e-12 5e-05 1.46608e-10 
82 1 0.150542 0.0174937 0.00728806 0.00573612 -0.00156156 0.000400269 -4.23966e-11 5.4246e-12 1.45733e-12 5e-05 1.46608e-10 
84 1 0.16246 0.017546 0.0073025 0.00597465 -0.000382416 6.59425e-06 1.39746e-12 5.37635e-12 -6.45527e-13 5e-05 1.46608e-10 
85 1 0.155957 0.0156921 0.00869091 0.00590268 -3.73269e-05 -0.000668204 -8.45639e-11 2.69697e-11 -3.05115e-11 5e-05 1.46608e-10 
86 1 0.156553 0.0175214 0.0071909 0.0063249 0.000466841 -0.000336708 -8.66171e-12 6.13695e-13 4.55231e-11 5e-05 1.46608e-10 
87 1 0.156435 0.0173959 0.00722216 0.00634614 0.000554086 -1.63396e-05 9.73725e-11 8.97913e-11 -6.05554e-12 5e-05 1.46608e-10 
88 1 0.156645 0.017544 0.00715683 0.00642991 0.000521547 -7.30729e-06 3.90929e-11 -3.03473e-11 4.45129e-11 5e-05 1.46608e-10 
90 1 0.156563 0.0171916 0.00732878 0.0063223 0.000540466 -1.99758e-05 1.59959e-11 3.07818e-11 -1.55417e-12 5e-05 1.46608e-10 
91 1 0.156397 0.0170745 0.0074756 0.00628459 0.000545515 -1.96106e-05 1.16315e-10 1.61315e-10 -9.84928e-11 5e-05 1.46608e-10 
92 1 0.156667 0.0176425 0.00713828 0.0063389 0.00042982 -0.000783848 -3.80958e-11 1.70407e-11 -2.78706e-11 5e-05 1.46608e-10 
93 1 0.162481 0.0176409 0.00727961 0.00596436 -0.00038005 6.17813e-06 -1.21618e-12 -4.16859e-12 8.71168e-13 5e-05 1.46608e-10 
94 1 0.156519 0.0170154 0.00741464 0.00628337 0.000535495 -1.75717e-05 5.93001e-11 4.06655e-11 -3.07381e-11 5e-05 1.46608e-10 
95 1 0.156305 0.0168697 0.0074787 0.0062648 0.000631636 -6.62756e-05 -2.39576e-11 -1.07911e-10 5.34199e-11 5e-05 1.46608e-10 
96 1 0.156327 0.0169591 0.00743927 0.00628471 0.000548409 -3.49063e-05 1.36715e-10 -7.67851e-11 -1.29478e-10 5e-05 1.46608e-10 
98 1 0.156497 0.0169278 0.00745737 0.00627204 0.00053826 -2.09709e-05 1.09865e-10 1.02851e-11 1.11101e-11 5e-05 1.46608e-10 
99 1 0.150696 0.0177333 0.00720375 0.00575763 -0.00152672 0.000388277 -8.00557e-11 -2.72216e-11 8.62691e-12 5e-05 1.46608e-10 
101 1 0.150556 0.0179397 0.00713719 0.00572667 -0.00156892 0.000402522 9.12237e-12 -2.97563e-11 8.15142e-12 5e-05 1.46608e-10 
102 1 0.0694385 0.0202053 0.00537268 3.96553e-15 4.54622e-15 -7.68217e-14 -1.07978e-21 9.03036e-22 -6.20385e-24 5e-05 1.46608e-10 
104 1 0.0249839 0.0195037 0.00542543 -3.58896e-15 -5.78008e-16 5.85127e-14 5.94536e-25 -4.3427e-24 0 5e-05 1.46608e-10 
106 1 0.144563 0.0179801 0.00715944 0.00598862 0.000459897 0.00167405 -2.87899e-11 -9.74904e-11 7.77034e-11 5e-05 1.46608e-10 
107 1 0.150465 0.0175549 0.00726911 0.00573821 -0.00156193 0.000400442 -6.73116e-12 8.07317e-12 5.40155e-12 5e-05 1.46608e-10 
108 1 0.156318 0.0169489 0.00753836 0.00627955 0.00060567 -2.18626e-05 1.43914e-10 2.38653e-10 -2.16945e-10 5e-05 1.46608e-10 
110 1 0.156592 0.0169558 0.00744717 0.00625376 0.000503072 -4.00758e-06 -1.77453e-11 7.23802e-12 -1.28384e-11 5e-05 1.46608e-10 
111 1 0.150634 0.0178771 0.0071566 0.00572438 -0.00154781 0.000395413 3.46321e-11 -1.77075e-11 1.08358e-12 5e-05 1.46608e-10 
112 1 0.1504 0.0172779 0.00736407 0.00574787 -0.0015599 0.000399344 -1.46535e-12 -1.33561e-11 4.23787e-12 5e-05 1.46608e-10 
115 1 0.15637 0.017133 0.00735036 0.0063005 0.000551534 -2.489e-05 -6.47621e-11 -8.59907e-11 3.60702e-11 5e-05 1.46608e-10 
116 1 0.156615 0.0170446 0.00740392 0.00628086 0.000518801 -1.05367e-05 -6.592e-11 -4.3765e-11 2.1725e-11 5e-05 1.46608e-10 
117 1 0.156584 0.0172795 0.00728594 0.00632637 0.000544961 -2.08339e-05 -4.83682e-12 -6.56698e-12 -6.18042e-12 5e-05 1.46608e-10 
118 1 0.150512 0.0177518 0.00720158 0.00573462 -0.00155661 0.0003985 1.13746e-12 -4.91291e-12 -1.71491e-13 5e-05 1.46608e-10 
119 1 0.156646 0.0183641 0.00711183 0.00608534 0.000438957 -0.000757176 -1.6261e-12 -1.3253e-11 7.93026e-13 5e-05 1.46608e-10 
120 1 0.155892 0.0155433 0.00894317 0.00593613 -3.17873e-05 -0.000681295 -2.7251e-11 -5.79844e-11 9.79072e-11 5e-05 1.46608e-10 
121 1 0.156543 0.0167816 0.00753182 0.00622841 0.000517337 -1.15788e-05 -2.64544e-11 -2.25257e-11 2.5735e-11 5e-05 1.46608e-10 
122 1 0.156605 0.0173673 0.00724312 0.00632124 0.000538705 -1.72611e-05 4.75093e-11 1.03263e-11 5.05132e-11 5e-05 1.46608e-10 
124 1 0.156583 0.0180714 0.00713122 0.0061877 0.000409478 -0.000768781 8.97117e-12 2.69917e-11 -1.73205e-12 5e-05 1.46608e-10 
125 1 0.156321 0.016555 0.00764785 0.00605727 0.000590083 -5.34995e-05 6.65112e-11 -1.54513e-11 6.02774e-12 5e-05 1.46608e-10 
126 1 0.156205 0.0164362 0.00769026 0.00576348 0.000699187 -0.000119469 -5.93561e-11 -3.32265e-11 3.75321e-11 5e-05 1.46608e-10 
127 1 0.150486 0.0176321 0.00732931 0.0057318 -0.00155815 0.00039916 -1.82356e-11 4.90745e-11 7.07844e-12 5e-05 1.46608e-10 
128 1 0.156572 0.0176129 0.00715197 0.00634633 0.000385455 -0.000770174 -5.04968e-12 -5.71067e-12 -9.81467e-11 5e-05 1.46608e-10 
129 1 0.150715 0.0186884 0.00697592 0.00520679 -0.00196093 0.00101529 -4.55154e-11 5.29641e-12 -2.09792e-12 5e-05 1.46608e-10 
131 1 0.150693 0.0181554 0.00706133 0.00529248 -0.00196523 0.000546279 -1.34537e-11 -1.64051e-10 5.95053e-11 5e-05 1.46608e-10 
132 1 0.156413 0.0173082 0.00726494 0.0063306 0.000550402 -2.23377e-05 6.11053e-11 5.8145e-11 2.87525e-11 5e-05 1.46608e-10 
133 1 0.156732 0.017161 0.00735064 0.00629878 0.000517197 -9.38683e-06 -6.43162e-11 -7.08135e-11 3.46133e-11 5e-05 1.46608e-10 
134 1 0.156535 0.0176314 0.00724275 0.00630164 0.000396054 -0.000785455 -8.30351e-11 3.75429e-11 -3.74888e-11 5e-05 1.46608e-10 
135 1 0.156263 0.0167083 0.00758613 0.00620342 0.000624447 -6.03545e-05 -9.24482e-12 -1.24225e-12 1.6506e-11 5e-05 1.46608e-10 
136 1 0.150655 0.0176203 0.00724282 0.00572774 -0.00155662 0.00039852 -1.15484e-11 -9.17068e-12 4.29656e-12 5e-05 1.46608e-10 
137 1 0.156594 0.0177112 0.00714439 0.00630991 0.000396816 -0.000781339 2.15745e-11 2.701e-11 -3.20529e-11 5e-05 1.46608e-10 
138 1 0.156348 0.0170452 0.00739314 0.00628419 0.000553938 -2.53248e-05 4.76763e-11 -7.31333e-11 -2.07104e-11 5e-05 1.46608e-10 
140 1 0.156636 0.0179064 0.00713145 0.00624121 0.000420402 -0.000775415 -3.06469e-11 9.24761e-12 -4.44615e-12 5e-05 1.46608e-10 
141 1 0.150444 0.0174625 0.00730077 0.00574196 -0.00156215 0.000400283 -1.84025e-11 6.10346e-12 -1.07316e-13 5e-05 1.46608e-10 
143 1 0.393994 0.0150325 6.48596e-05 -2.1271e-21 1.6267e-21 -1.45327e-21 0 0 0 5e-05 1.46608e-10 
146 1 0.150658 0.0179688 0.00712509 0.00570233 -0.001539 0.000393512 3.07003e-11 2.23178e-11 -8.99751e-12 5e-05 1.46608e-10 
147 1 0.150732 0.018341 0.00699782 0.00532924 -0.00203372 0.000570223 -3.04705e-11 1.07111e-10 -1.10285e-11 5e-05 1.46608e-10 
148 1 0.00865942 0.0167082 0.00838837 0.000949701 -0.0080429 0.00693069 1.26554e-11 1.69346e-10 -1.16919e-10 5e-05 1.46608e-10 
149 1 0.156509 0.0173398 0.00725749 0.00633297 0.000548063 -1.93433e-05 4.61607e-11 6.85288e-12 4.97099e-11 5e-05 1.46608e-10 
150 1 0.15027 0.0167238 0.00755399 0.00576595 -0.00155384 0.00039691 9.93552e-12 5.92816e-11 -1.91564e-11 5e-05 1.46608e-10 
151 1 0.15075 0.018437 0.00697704 0.00536851 -0.00194103 0.00104674 -7.90384e-12 5.1529e-11 -1.18057e-11 5e-05 1.46608e-10 
154 1 0.150718 0.0178256 0.0071721 0.00574118 -0.00152314 0.000387373 1.34992e-10 -2.39415e-11 -5.80435e-14 5e-05 1.46608e-10 
155 1 0.144537 0.0175473 0.00748947 0.00583694 0.000463592 0.00161927 -7.86642e-11 -2.71192e-11 -9.74261e-12 5e-05 1.46608e-10 
157 1 0.150598 0.0181255 0.00707351 0.00529783 -0.00195862 0.000544001 -5.21418e-11 4.57359e-12 7.65204e-13 5e-05 1.46608e-10 
165 1 0.150784 0.0176874 0.00721731 0.0057906 -0.00147526 0.000369816 -5.29295e-11 -1.67468e-12 2.36587e-12 5e-05 1.46608e-10 
166 1 0.156148 0.0162011 0.00785207 0.00577258 0.000528873 -0.000256542 -7.75537e-12 3.7019e-11 1.19002e-10 5e-05 1.46608e-10 
168 1 0.190005 0.0177031 0.00782809 0.0190812 0.0303659 -0.00451767 0 0 -1.43822e-09 5e-05 1.46608e-10 
171 1 0.156224 0.0165243 0.0076472 0.00574766 0.000700296 -0.00012236 7.66635e-11 -8.92046e-11 2.7107e-11 5e-05 1.46608e-10 
172 1 0.150578 0.0179133 0.00723117 0.00571464 -0.00157726 0.00040225 1.10528e-10 4.54582e-12 1.86627e-11 5e-05 1.46608e-10 
176 1 0.150357 0.0170932 0.00742738 0.00575443 -0.0015551 0.000397579 -3.15317e-12 -1.74008e-11 6.0061e-12 5e-05 1.46608e-10 
177 1 0.150422 0.0173702 0.00733242 0.00574501 -0.00156131 0.000399868 -4.11976e-12 -5.17366e-12 2.0339e-12 5e-05 1.46608e-10 
179 1 0.144331 0.0170988 0.00777069 0.00564745 0.000440232 0.00157182 3.42571e-11 3.21574e-11 -6.3682e-11 5e-05 1.46608e-10 
181 1 0.150335 0.0170008 0.00745903 0.0057577 -0.001553 0.000396792 -2.2828e-12 -4.17048e-12 1.47826e-12 5e-05 1.46608e-10 
182 1 0.15638 0.0168113 0.00751067 0.00624694 0.000560718 -3.22586e-05 -5.4289e-11 -2.22231e-11 3.4214e-11 5e-05 1.46608e-10 
184 1 0.156562 0.0179739 0.00713768 0.00622084 0.000401525 -0.000772362 -8.60616e-13 2.78195e-11 -1.31901e-11 5e-05 1.46608e-10 
187 1 0.156448 0.0173899 0.00732101 0.00636857 0.00059861 -6.01091e-06 -5.48181e-11 -4.48043e-11 2.53539e-10 5e-05 1.46608e-10 
188 1 0.156567 0.0173654 0.00733532 0.00631705 0.000564149 -2.03452e-05 -1.54047e-11 -4.38565e-11 1.0611e-10 5e-05 1.46608e-10 
189 1 0.156423 0.0169873 0.00742489 0.00628194 0.000550366 -2.50291e-05 1.48405e-10 2.13968e-11 -1.40781e-11 5e-05 1.46608e-10 
191 1 0.156456 0.0174918 0.00720341 0.0063355 0.00051599 -0.000260943 1.57531e-11 1.31613e-12 -7.688e-11 5e-05 1.46608e-10 
192 1 0.147597 0.0184125 0.00696182 0.00550819 -0.000776961 0.000373711 7.71843e-13 -4.2119e-13 1.49963e-13 5e-05 1.46608e-10 
193 1 0.159379 0.0174673 0.00721265 0.00650838 0.00107652 -0.00083033 1.97192e-12 5.05651e-12 -2.53422e-12 5e-05 1.46608e-10 
197 1 0.150248 0.0166315 0.00758565 0.00532225 -0.00145888 0.000374795 2.36424e-11 7.66828e-11 -2.87667e-11 5e-05 1.46608e-10 
198 1 0.150713 0.0182481 0.00702959 0.00529764 -0.00198185 0.000551356 -3.05806e-11 -6.43048e-11 1.14789e-11 5e-05 1.46608e-10 
200 1 0.150755 0.0188839 0.00698884 0.00505665 -0.00192523 0.000985639 -1.74161e-11 -2.41078e-11 -6.51446e-12 5e-05 1.46608e-10 
201 1 0.150765 0.0185357 0.00698251 0.0053631 -0.00194047 0.00104751 3.10433e-11 4.26215e-11 9.19781e-12 5e-05 1.46608e-10 
203 1 0.156478 0.0175851 0.00717463 0.00633512 0.000359109 -0.000788621 -1.69651e-11 4.57139e-12 1.0784e-10 5e-05 1.46608e-10 
204 1 0.144542 0.0178998 0.00721514 0.00595612 0.000456477 0.00166331 -6.94471e-12 -4.52115e-11 5.13447e-11 5e-05 1.46608e-10 
206 1 0.144584 0.0180605 0.00710356 0.00574629 0.000450092 0.0015998 4.95376e-11 5.1776e-11 -3.96081e-12 5e-05 1.46608e-10 
207 1 0.060646 0.0186723 0.00546139 1.16184e-15 5.18604e-15 3.71388e-14 -8.48506e-24 1.75776e-24 -2.06795e-25 5e-05 1.46608e-10 
208 1 0.150676 0.0184975 0.00700604 0.00533343 -0.0020355 0.000772577 1.61127e-11 8.85399e-11 9.94555e-11 5e-05 1.46608e-10 
209 1 0.144352 0.0171791 0.007715 0.00568018 0.000447914 0.00157724 -1.27331e-13 6.5557e-11 -4.62501e-11 5e-05 1.46608e-10 
210 1 0.156536 0.0166922 0.00757604 0.00619989 0.000518045 -1.21807e-05 -7.45658e-11 1.62699e-11 6.12415e-12 5e-05 1.46608e-10 
211 1 0.150735 0.0187861 0.00698239 0.00519642 -0.00195657 0.00101407 -6.5848e-12 -5.63664e-12 -3.64674e-12 5e-05 1.46608e-10 
212 1 0.150533 0.0178442 0.00716993 0.00573289 -0.00155484 0.000397258 6.02655e-12 2.11068e-11 1.54087e-12 5e-05 1.46608e-10 
213 1 0.156457 0.0175062 0.00730235 0.00616576 0.00105242 -0.000317107 1.75623e-10 -5.85026e-12 -7.40198e-11 5e-05 1.46608e-10 
214 1 0.156701 0.0173959 0.00723266 0.00634947 0.000537748 -1.75978e-05 5.72134e-11 -4.33556e-12 1.26424e-11 5e-05 1.46608e-10 
217 1 0.156335 0.0166387 0.00759471 0.00616595 0.000582495 -4.70661e-05 1.8482e-11 -3.55188e-12 -6.74274e-12 5e-05 1.46608e-10 
218 1 0.156722 0.0174884 0.0071875 0.00643676 0.000523577 -7.43122e-06 6.16265e-11 -8.60845e-11 4.84833e-11 5e-05 1.46608e-10 
221 1 0.144226 0.0166972 0.00804919 0.00549258 0.000436319 0.00152297 -5.86677e-12 -2.32739e-11 1.38603e-11 5e-05 1.46608e-10 
222 1 0.156039 0.0158913 0.00835391 0.00570118 -2.01113e-05 -0.000670898 1.51899e-10 -2.50518e-11 1.16223e-11 5e-05 1.46608e-10 
223 1 0.165211 0.016656 0.00747541 0.00579509 0.000198787 -0.000129175 -4.46921e-13 2.35601e-14 -5.21931e-15 5e-05 1.46608e-10 
225 1 0.156531 0.0174258 0.00721112 0.00633507 0.000546825 -1.96934e-05 8.1717e-11 4.36488e-11 3.88705e-11 5e-05 1.46608e-10 
226 1 0.150617 0.0182183 0.00704175 0.00530045 -0.00195871 0.000543829 3.58783e-11 -4.03334e-12 -2.07938e-11 5e-05 1.46608e-10 
227 1 0.144289 0.0169381 0.00788209 0.00558168 0.000432493 0.00155453 -8.14727e-12 -1.64763e-11 4.22308e-12 5e-05 1.46608e-10 
228 1 0.0507861 0.0189683 0.00558458 -5.35782e-15 -1.91083e-14 -2.87013e-13 8.11865e-23 6.99226e-24 -2.89513e-24 5e-05 1.46608e-10 
231 1 0.197479 0.018695 0.00523156 -1.09106e-15 -2.69841e-14 1.45242e-13 -3.00015e-23 -5.68687e-25 -4.1359e-25 5e-05 1.46608e-10 
232 1 0.189081 0.0184947 0.00541361 -2.15931e-15 1.31702e-15 5.80686e-14 8.44758e-23 3.40113e-23 2.06795e-24 5e-05 1.46608e-10 
234 1 0.156636 0.0171324 0.00736112 0.00630324 0.000517522 -9.27225e-06 4.05668e-11 5.45922e-11 -2.89319e-11 5e-05 1.46608e-10 
235 1 0.194679 0.0184196 0.00544868 1.51514e-14 9.62703e-14 2.34549e-13 1.25923e-21 -1.93353e-23 -7.38259e-23 5e-05 1.46608e-10 
238 1 0.144373 0.0172594 0.0076593 0.00571702 0.000455372 0.00158647 -6.64987e-11 -3.35315e-12 -8.63024e-11 5e-05 1.46608e-10 
239 1 0.144124 0.0162956 0.00832925 0.00596675 0.00043227 0.00168851 7.20836e-11 -1.97202e-11 1.14073e-10 5e-05 1.46608e-10 
240 1 0.144204 0.0166169 0.00810489 0.00546102 0.000434211 0.00151287 -9.89121e-12 1.56081e-11 5.10264e-12 5e-05 1.46608e-10 
241 1 0.144145 0.0163759 0.00827329 0.00428283 0.000455399 0.00109747 5.82293e-11 -5.72809e-11 1.59715e-10 5e-05 1.46608e-10 
242 1 0.144514 0.0174609 0.00754936 0.00577081 0.000441384 0.00161465 -2.39186e-12 4.44838e-11 -2.67201e-11 5e-05 1.46608e-10 
243 1 0.144101 0.0162153 0.0083842 0.00598229 0.000440147 0.00168446 4.92609e-12 4.54366e-11 -2.1866e-11 5e-05 1.46608e-10 
244 1 0.144162 0.0164562 0.00821638 0.00446252 0.000460579 0.0011539 6.38414e-11 -7.9826e-11 8.29487e-11 5e-05 1.46608e-10 
245 1 0.144395 0.017347 0.00761629 0.00571446 0.000432935 0.0015676 4.04382e-11 3.45393e-11 3.78361e-10 5e-05 1.46608e-10 
246 1 0.144247 0.0167775 0.00799349 0.00552253 0.000435993 0.00153401 -1.20866e-11 -4.47773e-11 3.3348e-11 5e-05 1.46608e-10 
248 1 0.150313 0.0169085 0.00749068 0.00576091 -0.00155215 0.000396431 9.11998e-12 1.89878e-11 -7.45054e-12 5e-05 1.46608e-10 
249 1 0.144438 0.0175102 0.0075082 0.00578291 0.000464556 0.00160767 2.67852e-12 7.42811e-11 -8.51293e-11 5e-05 1.46608e-10 
250 1 0.151639 0.0152097 0.0141994 0.00501496 0.00322654 0.00230599 6.18028e-12 -3.32096e-11 -1.69615e-11 5e-05 1.46608e-10 
251 1 0.156467 0.0171624 0.00733951 0.00630887 0.000542441 -2.07344e-05 -6.19337e-11 -3.2804e-11 -1.37103e-11 5e-05 1.46608e-10 
252 1 0.144415 0.0174183 0.0075491 0.00576058 0.0004422 0.00160287 -6.49335e-11 -2.18553e-10 1.41732e-10 5e-05 1.46608e-10 
254 1 0.119987 0.017751 0.00781285 0.0267051 0.0339783 -0.00979029 0 0 -1.43822e-09 5e-05 1.46608e-10 
255 1 0.150578 0.0180329 0.00710524 0.00561707 -0.00202523 0.000559328 2.89081e-11 -1.29734e-11 5.74335e-12 5e-05 1.46608e-10 
256 1 0.158946 0.0170136 0.00817883 0.00725913 0.0247211 -0.0145323 -1.00768e-10 1.06699e-10 -1.488e-10 5e-05 1.46608e-10 
257 1 0.150673 0.0180624 0.00709317 0.00568766 -0.00153914 0.000393671 1.60492e-11 7.1267e-11 -2.55749e-11 5e-05 1.46608e-10 
258 1 0.150555 0.0178178 0.00726388 0.00573078 -0.00155044 0.000396569 6.80113e-11 1.8373e-11 7.03416e-12 5e-05 1.46608e-10 
259 1 0.144458 0.0175786 0.00743794 0.00583967 0.000463854 0.00162157 1.05456e-10 1.41715e-10 -5.31239e-11 5e-05 1.46608e-10 
260 1 0.150752 0.0179988 0.00711289 0.00570092 -0.00152636 0.000389131 1.25336e-11 -1.50291e-10 4.52378e-11 5e-05 1.46608e-10 
261 1 0.150768 0.0180923 0.00708098 0.00568544 -0.00152959 0.000390534 8.72421e-12 -1.83381e-10 6.41961e-11 5e-05 1.46608e-10 
262 1 0.150793 0.0181912 0.00704701 0.00541751 -0.00183185 0.000498338 6.95501e-11 3.40165e-11 -1.99708e-11 5e-05 1.46608e-10 
263 1 0.144467 0.0172953 0.0076629 0.00570083 0.000447847 0.00157852 1.30107e-10 -1.52888e-10 1.58211e-10 5e-05 1.46608e-10 
265 1 0.150862 0.0181224 0.00706872 0.0057061 -0.00157585 0.000405639 -1.08559e-10 -3.47094e-11 1.97624e-11 5e-05 1.46608e-10 
270 1 0.156551 0.0177296 0.00723312 0.00626823 0.000400843 -0.000801156 4.91007e-12 -5.14388e-11 9.26621e-11 5e-05 1.46608e-10 
271 1 0.205686 0.0168086 0.00831249 -2.49348e-05 -0.0055588 0.0040644 -2.9215e-13 1.86374e-10 -1.4013e-10 5e-05 1.46608e-10 
272 1 0.1445 0.0177392 0.00732654 0.00588895 0.000442946 0.00164916 7.53752e-12 -4.53031e-11 4.63562e-11 5e-05 1.46608e-10 
273 1 0.117964 0.0174484 0.00794563 3.34387e-10 -0.021959 0.00992073 1.37066e-18 9.00178e-12 1.99029e-11 5e-05 1.46608e-10 
274 1 0.144479 0.0176589 0.00738224 0.00585802 0.000437952 0.0016461 -1.04314e-11 7.23074e-11 -3.45555e-11 5e-05 1.46608e-10 
275 1 0.150826 0.0183733 0.00699097 0.00533305 -0.00198434 0.00103811 1.8545e-11 4.84513e-11 -1.83688e-12 5e-05 1.46608e-10 
276 1 0.150612 0.0177848 0.00718825 0.00573656 -0.00155329 0.000397625 -9.1973e-12 -9.27053e-12 1.7185e-12 5e-05 1.46608e-10 
277 1 0.15049 0.0176595 0.00723324 0.00573605 -0.00155938 0.000399193 -2.99418e-12 -1.01555e-11 2.03053e-12 5e-05 1.46608e-10 
279 1 0.14449 0.0173806 0.00760391 0.00574173 0.00043716 0.00160523 8.34803e-11 -3.06579e-11 4.90736e-11 5e-05 1.46608e-10 
280 1 0.14431 0.0170184 0.00782639 0.00561253 0.000435519 0.00156471 1.86699e-11 2.6867e-11 1.5657e-11 5e-05 1.46608e-10 
282 1 0.144268 0.0168578 0.00793779 0.00555284 0.000433433 0.0015447 -1.70539e-11 -4.25314e-11 8.63196e-12 5e-05 1.46608e-10 
283 1 0.144183 0.0165365 0.00816059 0.0054293 0.000432065 0.00150407 1.4481e-11 1.80754e-11 -1.11301e-11 5e-05 1.46608e-10 
284 1 0.150558 0.0175897 0.0072553 0.00573717 -0.00155676 0.000398667 4.97793e-12 -1.5959e-11 6.53487e-12 5e-05 1.46608e-10 
288 1 0.150635 0.0175276 0.00727455 0.00573132 -0.00155689 0.000398667 -6.37764e-11 2.66927e-12 1.11878e-12 5e-05 1.46608e-10 
293 1 0.144521 0.0178195 0.00727084 0.00592226 0.000449393 0.00165609 -3.33893e-11 -5.01769e-11 1.20395e-11 5e-05 1.46608e-10 
294 1 0.152576 0.0182562 0.00546336 5.32943e-16 -1.41409e-15 1.14581e-14 1.86103e-22 -1.86633e-23 -1.03398e-23 5e-05 1.46608e-10 
295 1 0.169203 0.0179444 0.00776098 -3.9046e-11 -0.0231032 0.00685048 -1.83889e-18 6.21614e-12 2.09423e-11 5e-05 1.46608e-10 
297 1 0.156709 0.0178389 0.00712523 0.00625801 0.000436367 -0.00077772 -9.20134e-11 5.9331e-12 6.03132e-12 5e-05 1.46608e-10 
300 1 0.156359 0.0167318 0.00756763 0.00622123 0.000568161 -3.70063e-05 -9.7369e-11 -1.30116e-11 2.41797e-11 5e-05 1.46608e-10 
