# vtk DataFile Version 3.0
LIGGGHTS particles timestep 2400000
ASCII
DATASET POLYDATA
POINTS 279 float
0.0159887 0.0214517 0.0166824
0.0182432 0.0240632 0.0127245
0.0241514 0.0226434 0.0157351
0.0165047 0.0228391 0.0137653
0.0245461 0.0186914 0.015944
0.0175701 0.0199655 0.0160992
0.0205043 0.0224965 0.00893256
0.0192298 0.0237677 0.0164618
0.0208695 0.0240695 0.0129083
0.0159281 0.0227577 0.0162251
0.0185186 0.0151116 0.0097592
0.0208419 0.0145404 0.0142442
0.0200704 0.0240567 0.0160043
0.0189761 0.0239795 0.0131907
0.0247158 0.0219359 0.0157701
0.0210009 0.0233284 0.0107392
0.0217065 0.0237901 0.0133484
0.0224422 0.0203959 0.0157614
0.0195396 0.0244868 0.0136399
0.0402891 0.0167947 0.00659266
0.0185743 0.0168241 0.0163105
0.0145803 0.0199384 0.0166849
0.0173838 0.0240095 0.0128661
0.023783 0.014996 0.0130068
0.0201435 0.0154451 0.0152903
0.01986 0.0201368 0.0073709
0.0178395 0.0188311 0.0177103
0.0229039 0.0181803 0.0158581
0.0155977 0.0237384 0.0149331
0.0250897 0.0184195 0.0171566
0.0168983 0.0232232 0.0146092
0.021981 0.022148 0.0150035
0.0227347 0.0222921 0.0145265
0.0200026 0.0143073 0.0147342
0.0296393 0.0184913 0.00583954
0.0204283 0.0243805 0.0137829
0.0224242 0.0213562 0.015486
0.0270392 0.00722622 0.0389068
0.0218871 0.0146087 0.0168047
0.0229586 0.0236907 0.0150801
0.0177154 0.0236447 0.0136362
0.0231873 0.0169762 0.0154414
0.0189323 0.0160226 0.00841564
0.021408 0.0176346 0.0165595
0.021989 0.0237764 0.014913
0.0245637 0.0147627 0.0111336
0.0230935 0.0231836 0.0142906
0.021833 0.0143618 0.0138864
0.0197624 0.018468 0.0188717
0.0226432 0.0194107 0.0159361
0.0197276 0.0193082 0.0071993
0.0200583 0.0240826 0.0125
0.0261907 0.0212633 0.00785565
0.018 0.0244452 0.0138183
0.015102 0.023161 0.0155541
0.0184156 0.015931 0.0158898
0.0168188 0.0240065 0.0136353
0.0190014 0.0240938 0.0122116
0.023462 0.0158789 0.0146844
0.018367 0.0220701 0.0169554
0.0245837 0.0233224 0.020751
0.0213133 0.0243055 0.0140123
0.022367 0.0236387 0.0139763
0.0225073 0.0152246 0.0163188
0.0213365 0.0191755 0.0176477
0.0149397 0.0215101 0.0172564
0.0214821 0.0234438 0.0141498
0.0208758 0.0159616 0.0157463
0.0208982 0.0235837 0.0157008
0.0195317 0.0141323 0.0164689
0.0178645 0.0177699 0.0161743
0.0249255 0.0220512 0.0165089
0.0224463 0.0212766 0.0172959
0.0257333 0.0190604 0.0167384
0.0192112 0.0173412 0.00753239
0.0177509 0.0220325 0.0161689
0.0152577 0.0192074 0.0167667
0.0267864 0.0230764 0.00988888
0.0174026 0.0240478 0.0144906
0.0209464 0.0205971 0.016537
0.0169218 0.0222475 0.0145903
0.0152297 0.022367 0.0168303
0.0186942 0.0152836 0.0138636
0.0157936 0.0228176 0.0143939
0.0219485 0.0209595 0.0164322
0.0211742 0.0234149 0.0115843
0.0143038 0.0229129 0.015058
0.0150013 0.0182435 0.0166932
0.0190617 0.0166381 0.00792567
0.0182841 0.0162358 0.0149466
0.0150696 0.0149164 0.0195805
0.0182193 0.014621 0.0119393
0.0196391 0.0237259 0.0151218
0.0265598 0.0226123 0.00905985
0.0204851 0.0180207 0.0166647
0.0190127 0.0209384 0.0164236
0.0187321 0.0237163 0.0155472
0.0178311 0.014183 0.0130045
0.0172918 0.0239677 0.0165769
0.0170948 0.0172046 0.0158765
0.0161104 0.0236513 0.0141042
0.0213633 0.0229879 0.0150456
0.0243543 0.0149163 0.0103432
0.0181386 0.0187311 0.0162192
0.0194693 0.0152582 0.0161826
0.0211111 0.0221982 0.00858611
0.0191513 0.0154861 0.00904714
0.0215153 0.0166219 0.0161655
0.0199741 0.01758 0.00741798
0.023667 0.0194556 0.0175631
0.0189493 0.0232981 0.014559
0.0249542 0.0167129 0.015679
0.022699 0.0146071 0.0143221
0.0235733 0.0230037 0.0151185
0.0165327 0.0167274 0.0165587
0.019826 0.0236371 0.0140607
0.0207618 0.0224976 0.0162407
0.0238705 0.0152067 0.015311
0.0228007 0.0151929 0.00955337
0.0252799 0.0175167 0.00748656
0.017126 0.0216396 0.0153449
0.0239906 0.0167225 0.0160059
0.0205237 0.0210625 0.00769799
0.0173067 0.016402 0.0153196
0.0206727 0.0238757 0.0146416
0.0156893 0.0208809 0.0174615
0.0218842 0.0267745 0.0245814
0.0177338 0.0236443 0.0156207
0.017493 0.0157293 0.0146038
0.0197043 0.0167117 0.0170652
0.0193166 0.0146201 0.0119409
0.0162771 0.0232624 0.0129244
0.0249353 0.0160213 0.00843179
0.0242398 0.0191955 0.0167842
0.0197868 0.0141142 0.0127808
0.0248965 0.0177454 0.0157572
0.0238678 0.0178994 0.0158071
0.0160186 0.0219752 0.0148533
0.0216944 0.0233332 0.0124678
0.0224004 0.0231519 0.013127
0.0259837 0.0199623 0.0170899
0.0203114 0.0230091 0.0149718
0.0179037 0.0221747 0.01472
0.0144643 0.0151275 0.0150087
0.0160034 0.0180244 0.0166801
0.0181028 0.0214831 0.0154105
0.0179493 0.0144779 0.0155193
0.0243083 0.0172 0.0173561
0.0188178 0.0241897 0.0142584
0.0139451 0.021317 0.017356
0.022416 0.0175754 0.0165901
0.0210209 0.0141248 0.0133533
0.0193539 0.0160313 0.015559
0.0133661 0.019829 0.0167045
0.0223358 0.018939 0.0167741
0.0242116 0.0164072 0.0150831
0.0197177 0.0202451 0.01662
0.021169 0.0238085 0.0166614
0.0131776 0.0213019 0.0162855
0.0160557 0.0144197 0.0140041
0.0155993 0.023027 0.0134558
0.0139049 0.0161406 0.0158659
0.0157178 0.0201787 0.0167502
0.0198401 0.0187806 0.0167489
0.0179174 0.0230037 0.0163684
0.0169026 0.0225427 0.0163099
0.0203067 0.0217149 0.00813963
0.0226122 0.0231811 0.0170833
0.0231651 0.0220288 0.015494
0.0182704 0.0240386 0.0163837
0.025505 0.0186814 0.0193607
0.0179649 0.0232514 0.0147306
0.0143307 0.0215553 0.0164646
0.0167896 0.0234429 0.0158898
0.0162681 0.0228416 0.0152848
0.0236554 0.0193079 0.0159369
0.0221439 0.0199451 0.0167015
0.0235683 0.0154095 0.013808
0.0189026 0.018414 0.0167973
0.0145861 0.0224528 0.0160354
0.025737 0.0195625 0.00720609
0.0169016 0.0181139 0.0162442
0.0231707 0.0197087 0.0167321
0.0234414 0.0202824 0.0158033
0.0224033 0.0229492 0.0153326
0.0162305 0.021254 0.0155073
0.0172113 0.0150193 0.0164337
0.0235589 0.0185051 0.0165403
0.0241976 0.0209026 0.0155371
0.0233484 0.0208037 0.0172566
0.0145255 0.022619 0.00925001
0.0207344 0.0229729 0.00973947
0.0244339 0.0199667 0.0158457
0.0192767 0.0157705 0.0145152
0.0147148 0.0159984 0.0177382
0.0165873 0.020654 0.0166118
0.021836 0.0225927 0.0141771
0.0183215 0.0226223 0.015515
0.0289722 0.0113795 0.0345635
0.0177039 0.0152119 0.0137748
0.020474 0.0195578 0.016727
0.0199792 0.0211948 0.0163109
0.0173338 0.0227219 0.0153787
0.0240433 0.0201692 0.0168982
0.0255378 0.0210049 0.0165699
0.0173437 0.0209363 0.0160216
0.0166009 0.0198553 0.0158759
0.0212905 0.0216443 0.0161029
0.0137088 0.0220182 0.0158331
0.0169339 0.0234146 0.0122578
0.0189713 0.0228236 0.0162588
0.0171223 0.0146239 0.0143935
0.0169759 0.0216099 0.0166626
0.030244 0.00410672 0.0529072
0.0150918 0.0209054 0.0164673
0.0193272 0.0174747 0.0164363
0.0236205 0.0223998 0.0143695
0.0164353 0.0186309 0.0173729
0.0188763 0.0218879 0.0159202
0.0175682 0.0227358 0.0139702
0.0126411 0.0204984 0.016543
0.0201412 0.0146057 0.0158334
0.0236919 0.0165311 0.0169407
0.0231105 0.02234 0.0164442
0.0180588 0.0170503 0.0154813
0.0233257 0.0213807 0.0162539
0.0199308 0.0230663 0.0160238
0.0185149 0.019642 0.0160507
0.021031 0.0146299 0.0162887
0.0207246 0.0155185 0.0166298
0.0188942 0.0136632 0.0170798
0.0176578 0.0376296 0.0435188
0.0123716 0.0195659 0.016303
0.0218229 0.0148971 0.0147312
0.0231253 0.0157071 0.0169394
0.0239281 0.0184671 0.0174705
0.0246159 0.0209872 0.0169574
0.0193045 0.0227174 0.015304
0.0249996 0.0198073 0.0170033
0.0224101 0.0161575 0.0159057
0.0174617 0.0154441 0.0155618
0.0171605 0.0231287 0.0131548
0.0164337 0.0194876 0.0168484
0.019588 0.0149119 0.0140706
0.01537 0.0218334 0.0159959
0.0182976 0.0205883 0.0158118
0.0197742 0.0224039 0.016785
0.0228332 0.00535251 0.0397861
0.0218671 0.023236 0.0162033
0.0217277 0.015117 0.015702
0.0174989 0.0203218 0.0170313
0.0248382 0.0176669 0.0180639
0.0186217 0.0137636 0.0135506
0.0185724 0.0140015 0.0161955
0.0188297 0.0181117 0.0158471
0.0187689 0.0141884 0.0126575
0.0244318 0.017879 0.0166325
0.0190622 0.0170062 0.0154563
0.0179589 0.0194305 0.0169128
0.01717 0.0190745 0.0163129
0.0139011 0.0206543 0.0165241
0.0152491 0.0147439 0.0145087
0.0163621 0.0235923 0.0167835
0.0180437 0.0143388 0.0141293
0.0212535 0.0187095 0.0167546
0.0175064 0.0181288 0.0170429
0.0180624 0.0210889 0.0167189
0.0199361 0.0220925 0.0157961
0.0185055 0.0149982 0.0162388
0.0209864 0.0146415 0.0152284
0.0201988 0.0165905 0.0161389
0.0219319 0.0181516 0.0172485
0.0140755 0.0203305 0.017454
0.0162416 0.0149654 0.0148607
0.0240065 0.0217549 0.015028
0.0137275 0.018898 0.0167546
0.0125818 0.0186616 0.0159316
0.0233842 0.0158869 0.0158673
0.0169002 0.014184 0.0135234

VERTICES 279 558
1 0
1 1
1 2
1 3
1 4
1 5
1 6
1 7
1 8
1 9
1 10
1 11
1 12
1 13
1 14
1 15
1 16
1 17
1 18
1 19
1 20
1 21
1 22
1 23
1 24
1 25
1 26
1 27
1 28
1 29
1 30
1 31
1 32
1 33
1 34
1 35
1 36
1 37
1 38
1 39
1 40
1 41
1 42
1 43
1 44
1 45
1 46
1 47
1 48
1 49
1 50
1 51
1 52
1 53
1 54
1 55
1 56
1 57
1 58
1 59
1 60
1 61
1 62
1 63
1 64
1 65
1 66
1 67
1 68
1 69
1 70
1 71
1 72
1 73
1 74
1 75
1 76
1 77
1 78
1 79
1 80
1 81
1 82
1 83
1 84
1 85
1 86
1 87
1 88
1 89
1 90
1 91
1 92
1 93
1 94
1 95
1 96
1 97
1 98
1 99
1 100
1 101
1 102
1 103
1 104
1 105
1 106
1 107
1 108
1 109
1 110
1 111
1 112
1 113
1 114
1 115
1 116
1 117
1 118
1 119
1 120
1 121
1 122
1 123
1 124
1 125
1 126
1 127
1 128
1 129
1 130
1 131
1 132
1 133
1 134
1 135
1 136
1 137
1 138
1 139
1 140
1 141
1 142
1 143
1 144
1 145
1 146
1 147
1 148
1 149
1 150
1 151
1 152
1 153
1 154
1 155
1 156
1 157
1 158
1 159
1 160
1 161
1 162
1 163
1 164
1 165
1 166
1 167
1 168
1 169
1 170
1 171
1 172
1 173
1 174
1 175
1 176
1 177
1 178
1 179
1 180
1 181
1 182
1 183
1 184
1 185
1 186
1 187
1 188
1 189
1 190
1 191
1 192
1 193
1 194
1 195
1 196
1 197
1 198
1 199
1 200
1 201
1 202
1 203
1 204
1 205
1 206
1 207
1 208
1 209
1 210
1 211
1 212
1 213
1 214
1 215
1 216
1 217
1 218
1 219
1 220
1 221
1 222
1 223
1 224
1 225
1 226
1 227
1 228
1 229
1 230
1 231
1 232
1 233
1 234
1 235
1 236
1 237
1 238
1 239
1 240
1 241
1 242
1 243
1 244
1 245
1 246
1 247
1 248
1 249
1 250
1 251
1 252
1 253
1 254
1 255
1 256
1 257
1 258
1 259
1 260
1 261
1 262
1 263
1 264
1 265
1 266
1 267
1 268
1 269
1 270
1 271
1 272
1 273
1 274
1 275
1 276
1 277
1 278

POINT_DATA 279
SCALARS id int 1
LOOKUP_TABLE default
1
2
3
4
5
6
7
8
9
10
11
12
13
14
15
16
17
18
19
20
21
22
23
24
25
26
27
28
29
30
31
32
33
34
35
36
37
38
39
40
41
42
43
44
45
46
47
48
49
50
51
52
53
54
55
56
57
58
59
60
61
62
63
64
65
66
68
69
70
71
72
73
74
75
76
77
78
79
80
81
82
83
84
85
86
87
88
89
90
91
92
93
95
97
98
100
101
102
103
104
105
106
108
109
110
111
112
113
114
115
116
117
118
119
120
121
122
123
124
125
126
127
128
129
131
132
133
135
136
137
138
139
140
141
142
143
144
145
147
148
149
150
151
152
153
154
155
156
157
158
159
161
162
163
164
165
166
167
168
169
170
171
172
173
174
175
176
177
178
179
180
181
182
183
184
185
186
187
188
189
190
192
193
194
195
196
197
198
200
201
202
203
204
205
206
208
209
210
211
212
213
215
216
217
218
219
220
221
222
223
224
225
226
227
229
230
231
232
233
234
235
236
237
238
239
240
241
242
243
244
245
246
247
248
250
251
252
253
254
256
257
258
259
260
261
263
264
265
266
268
269
270
272
273
274
275
276
277
278
279
280
281
282
284
285
286
287
288
289
290
291
292
293
294
295
296
297
299
300

SCALARS type int 1
LOOKUP_TABLE default
1
1
1
1
1
1
1
1
1
1
1
1
1
1
1
1
1
1
1
1
1
1
1
1
1
1
1
1
1
1
1
1
1
1
1
1
1
1
1
1
1
1
1
1
1
1
1
1
1
1
1
1
1
1
1
1
1
1
1
1
1
1
1
1
1
1
1
1
1
1
1
1
1
1
1
1
1
1
1
1
1
1
1
1
1
1
1
1
1
1
1
1
1
1
1
1
1
1
1
1
1
1
1
1
1
1
1
1
1
1
1
1
1
1
1
1
1
1
1
1
1
1
1
1
1
1
1
1
1
1
1
1
1
1
1
1
1
1
1
1
1
1
1
1
1
1
1
1
1
1
1
1
1
1
1
1
1
1
1
1
1
1
1
1
1
1
1
1
1
1
1
1
1
1
1
1
1
1
1
1
1
1
1
1
1
1
1
1
1
1
1
1
1
1
1
1
1
1
1
1
1
1
1
1
1
1
1
1
1
1
1
1
1
1
1
1
1
1
1
1
1
1
1
1
1
1
1
1
1
1
1
1
1
1
1
1
1
1
1
1
1
1
1
1
1
1
1
1
1
1
1
1
1
1
1
1
1
1
1
1
1
1
1
1
1
1
1
1
1
1
1
1
1
1
1
1
1
1
1

SCALARS radius float 1
LOOKUP_TABLE default
0.0005
0.0005
0.0005
0.0005
0.0005
0.0005
0.0005
0.0005
0.0005
0.0005
0.0005
0.0005
0.0005
0.0005
0.0005
0.0005
0.0005
0.0005
0.0005
0.0005
0.0005
0.0005
0.0005
0.0005
0.0005
0.0005
0.0005
0.0005
0.0005
0.0005
0.0005
0.0005
0.0005
0.0005
0.0005
0.0005
0.0005
0.0005
0.0005
0.0005
0.0005
0.0005
0.0005
0.0005
0.0005
0.0005
0.0005
0.0005
0.0005
0.0005
0.0005
0.0005
0.0005
0.0005
0.0005
0.0005
0.0005
0.0005
0.0005
0.0005
0.0005
0.0005
0.0005
0.0005
0.0005
0.0005
0.0005
0.0005
0.0005
0.0005
0.0005
0.0005
0.0005
0.0005
0.0005
0.0005
0.0005
0.0005
0.0005
0.0005
0.0005
0.0005
0.0005
0.0005
0.0005
0.0005
0.0005
0.0005
0.0005
0.0005
0.0005
0.0005
0.0005
0.0005
0.0005
0.0005
0.0005
0.0005
0.0005
0.0005
0.0005
0.0005
0.0005
0.0005
0.0005
0.0005
0.0005
0.0005
0.0005
0.0005
0.0005
0.0005
0.0005
0.0005
0.0005
0.0005
0.0005
0.0005
0.0005
0.0005
0.0005
0.0005
0.0005
0.0005
0.0005
0.0005
0.0005
0.0005
0.0005
0.0005
0.0005
0.0005
0.0005
0.0005
0.0005
0.0005
0.0005
0.0005
0.0005
0.0005
0.0005
0.0005
0.0005
0.0005
0.0005
0.0005
0.0005
0.0005
0.0005
0.0005
0.0005
0.0005
0.0005
0.0005
0.0005
0.0005
0.0005
0.0005
0.0005
0.0005
0.0005
0.0005
0.0005
0.0005
0.0005
0.0005
0.0005
0.0005
0.0005
0.0005
0.0005
0.0005
0.0005
0.0005
0.0005
0.0005
0.0005
0.0005
0.0005
0.0005
0.0005
0.0005
0.0005
0.0005
0.0005
0.0005
0.0005
0.0005
0.0005
0.0005
0.0005
0.0005
0.0005
0.0005
0.0005
0.0005
0.0005
0.0005
0.0005
0.0005
0.0005
0.0005
0.0005
0.0005
0.0005
0.0005
0.0005
0.0005
0.0005
0.0005
0.0005
0.0005
0.0005
0.0005
0.0005
0.0005
0.0005
0.0005
0.0005
0.0005
0.0005
0.0005
0.0005
0.0005
0.0005
0.0005
0.0005
0.0005
0.0005
0.0005
0.0005
0.0005
0.0005
0.0005
0.0005
0.0005
0.0005
0.0005
0.0005
0.0005
0.0005
0.0005
0.0005
0.0005
0.0005
0.0005
0.0005
0.0005
0.0005
0.0005
0.0005
0.0005
0.0005
0.0005
0.0005
0.0005
0.0005
0.0005
0.0005
0.0005
0.0005
0.0005
0.0005
0.0005
0.0005
0.0005
0.0005
0.0005
0.0005
0.0005
0.0005
0.0005
0.0005
0.0005
0.0005
0.0005
0.0005
0.0005
0.0005

SCALARS mass float 1
LOOKUP_TABLE default
1.46608e-07
1.46608e-07
1.46608e-07
1.46608e-07
1.46608e-07
1.46608e-07
1.46608e-07
1.46608e-07
1.46608e-07
1.46608e-07
1.46608e-07
1.46608e-07
1.46608e-07
1.46608e-07
1.46608e-07
1.46608e-07
1.46608e-07
1.46608e-07
1.46608e-07
1.46608e-07
1.46608e-07
1.46608e-07
1.46608e-07
1.46608e-07
1.46608e-07
1.46608e-07
1.46608e-07
1.46608e-07
1.46608e-07
1.46608e-07
1.46608e-07
1.46608e-07
1.46608e-07
1.46608e-07
1.46608e-07
1.46608e-07
1.46608e-07
1.46608e-07
1.46608e-07
1.46608e-07
1.46608e-07
1.46608e-07
1.46608e-07
1.46608e-07
1.46608e-07
1.46608e-07
1.46608e-07
1.46608e-07
1.46608e-07
1.46608e-07
1.46608e-07
1.46608e-07
1.46608e-07
1.46608e-07
1.46608e-07
1.46608e-07
1.46608e-07
1.46608e-07
1.46608e-07
1.46608e-07
1.46608e-07
1.46608e-07
1.46608e-07
1.46608e-07
1.46608e-07
1.46608e-07
1.46608e-07
1.46608e-07
1.46608e-07
1.46608e-07
1.46608e-07
1.46608e-07
1.46608e-07
1.46608e-07
1.46608e-07
1.46608e-07
1.46608e-07
1.46608e-07
1.46608e-07
1.46608e-07
1.46608e-07
1.46608e-07
1.46608e-07
1.46608e-07
1.46608e-07
1.46608e-07
1.46608e-07
1.46608e-07
1.46608e-07
1.46608e-07
1.46608e-07
1.46608e-07
1.46608e-07
1.46608e-07
1.46608e-07
1.46608e-07
1.46608e-07
1.46608e-07
1.46608e-07
1.46608e-07
1.46608e-07
1.46608e-07
1.46608e-07
1.46608e-07
1.46608e-07
1.46608e-07
1.46608e-07
1.46608e-07
1.46608e-07
1.46608e-07
1.46608e-07
1.46608e-07
1.46608e-07
1.46608e-07
1.46608e-07
1.46608e-07
1.46608e-07
1.46608e-07
1.46608e-07
1.46608e-07
1.46608e-07
1.46608e-07
1.46608e-07
1.46608e-07
1.46608e-07
1.46608e-07
1.46608e-07
1.46608e-07
1.46608e-07
1.46608e-07
1.46608e-07
1.46608e-07
1.46608e-07
1.46608e-07
1.46608e-07
1.46608e-07
1.46608e-07
1.46608e-07
1.46608e-07
1.46608e-07
1.46608e-07
1.46608e-07
1.46608e-07
1.46608e-07
1.46608e-07
1.46608e-07
1.46608e-07
1.46608e-07
1.46608e-07
1.46608e-07
1.46608e-07
1.46608e-07
1.46608e-07
1.46608e-07
1.46608e-07
1.46608e-07
1.46608e-07
1.46608e-07
1.46608e-07
1.46608e-07
1.46608e-07
1.46608e-07
1.46608e-07
1.46608e-07
1.46608e-07
1.46608e-07
1.46608e-07
1.46608e-07
1.46608e-07
1.46608e-07
1.46608e-07
1.46608e-07
1.46608e-07
1.46608e-07
1.46608e-07
1.46608e-07
1.46608e-07
1.46608e-07
1.46608e-07
1.46608e-07
1.46608e-07
1.46608e-07
1.46608e-07
1.46608e-07
1.46608e-07
1.46608e-07
1.46608e-07
1.46608e-07
1.46608e-07
1.46608e-07
1.46608e-07
1.46608e-07
1.46608e-07
1.46608e-07
1.46608e-07
1.46608e-07
1.46608e-07
1.46608e-07
1.46608e-07
1.46608e-07
1.46608e-07
1.46608e-07
1.46608e-07
1.46608e-07
1.46608e-07
1.46608e-07
1.46608e-07
1.46608e-07
1.46608e-07
1.46608e-07
1.46608e-07
1.46608e-07
1.46608e-07
1.46608e-07
1.46608e-07
1.46608e-07
1.46608e-07
1.46608e-07
1.46608e-07
1.46608e-07
1.46608e-07
1.46608e-07
1.46608e-07
1.46608e-07
1.46608e-07
1.46608e-07
1.46608e-07
1.46608e-07
1.46608e-07
1.46608e-07
1.46608e-07
1.46608e-07
1.46608e-07
1.46608e-07
1.46608e-07
1.46608e-07
1.46608e-07
1.46608e-07
1.46608e-07
1.46608e-07
1.46608e-07
1.46608e-07
1.46608e-07
1.46608e-07
1.46608e-07
1.46608e-07
1.46608e-07
1.46608e-07
1.46608e-07
1.46608e-07
1.46608e-07
1.46608e-07
1.46608e-07
1.46608e-07
1.46608e-07
1.46608e-07
1.46608e-07
1.46608e-07
1.46608e-07
1.46608e-07
1.46608e-07
1.46608e-07
1.46608e-07
1.46608e-07
1.46608e-07
1.46608e-07
1.46608e-07
1.46608e-07
1.46608e-07
1.46608e-07
1.46608e-07
1.46608e-07
1.46608e-07
1.46608e-07
1.46608e-07
1.46608e-07
1.46608e-07
1.46608e-07
1.46608e-07

VECTORS velocity float
0.0012316 -0.00205472 -0.00272743
0.00152264 0.0001756 0.00271145
2.01789e-05 0.000843544 0.000306335
0.00317322 0.00143115 -0.002988
7.51532e-06 0.0204079 0.00150047
0.00439109 0.00213676 0.00432233
0.000155224 -0.0117664 -0.0145818
0.00272163 0.00746579 0.0079161
-0.000666396 0.000543217 -0.00248531
0.00306815 0.00176548 -0.00473633
0.000602341 -0.00787102 0.018409
0.00474992 0.000607214 0.000105863
0.000746536 0.000553486 0.000708518
0.00330714 0.00136328 -0.00268362
-0.00014132 0.00132283 -0.000179179
0.000503059 -0.00310925 -0.0208832
-0.00028219 0.000813166 -0.000928275
0.0114765 -0.00500712 0.0330967
0.00101575 0.00114739 -0.00179782
9.25226e-16 -8.55288e-15 -2.18641e-14
-0.000413247 0.0175625 0.00971031
0.00552307 0.00585775 0.000292415
0.00073514 0.000414387 0.00042879
-7.88845e-05 0.00713839 0.0212621
0.000413781 0.00868929 0.00768813
0.000668941 -0.0115063 -0.00285664
-0.00886286 0.0043513 -0.0332979
0.00138351 0.0208547 0.00296241
0.000759605 -0.00012931 -0.000232443
0.00870792 -0.00233517 0.00230533
0.00194432 -0.00114949 -0.00219987
0.00121151 0.00537867 -0.00777632
0.0021225 5.62287e-05 -0.00161633
0.00522159 0.0010646 0.00154011
2.51603e-14 -2.31872e-16 2.95161e-13
0.000198422 0.000981367 -0.00105523
0.0292859 -0.023239 0.0307647
-0.0406064 0.0157226 -0.0533908
-0.00121485 0.00269144 -0.00567427
0.000589831 0.000788939 -0.00129913
0.000451266 0.000899298 -0.00072761
0.00061384 0.0181151 0.00931644
0.000179445 -0.0145511 0.0146231
0.0095581 0.0170513 0.0048036
0.000109778 0.000365309 -0.00168721
-0.000635063 -0.00199305 0.0198942
0.000567188 -0.000436408 -0.000255279
-0.000140701 -0.000537008 0.00123906
-0.0514941 -0.0283192 -0.333144
0.0231684 -0.0907501 0.0119908
0.000566183 -0.00744242 -0.00108404
-0.00014609 -0.00278165 -0.00479375
-4.43791e-05 -0.0186399 -0.0123599
-5.02551e-05 0.000142634 7.06274e-06
0.000235728 -0.000468557 7.13076e-05
0.00129846 0.0146357 0.0145071
0.000630604 0.00061065 -7.63915e-05
0.000237586 0.00385319 -0.00788935
-0.000288752 0.0200563 0.023821
0.0154678 0.0232626 -0.0229066
-0.0562415 -0.0309122 -0.18613
-0.00038001 0.000597633 -0.000692416
-0.000499429 -0.000119675 -0.000730054
0.0021431 0.00309305 -0.000616176
-0.00438461 0.0338973 0.0107334
-0.000118575 0.00308265 -0.00164828
-0.00206423 0.00160795 -0.00305682
-0.000888032 0.013649 0.00905181
0.00347624 -0.00534774 0.0051258
-0.00383258 0.00365235 -0.00559557
0.0076135 0.00386342 0.0184513
-0.000122114 0.000263828 -9.58026e-05
0.0228118 0.0750325 -0.124419
-0.000878162 0.00814947 0.00138319
0.00066015 -0.0180345 0.00810418
0.0019675 0.00594457 -0.0052538
0.0127878 0.0131535 -0.000187507
0.000303404 -0.00647772 -0.0159314
0.000284145 -9.48894e-05 -0.000351425
-0.0016038 0.0406444 -0.0879445
0.00414804 -0.000809213 -0.00425336
0.00176632 4.07092e-05 -0.00342493
0.00039514 0.0111883 0.0178998
0.00343478 0.00152944 -0.00338833
-0.00280962 0.0329444 -0.0174122
0.000915962 0.00146203 -0.0219244
4.20006e-06 -0.000206068 -0.000300571
0.00010308 0.0155185 0.00221021
0.000283275 -0.0160924 0.011472
0.00172402 0.0177755 0.0142987
-0.00789223 0.0482223 -0.350621
-2.05089e-06 0.00103083 -0.0017114
-0.000376379 -2.20245e-05 -0.000125102
0.00322041 -0.00645461 -0.00764326
0.00409196 0.0157562 0.00357204
0.0153987 0.00620377 -0.0195185
-0.00276445 -0.0012748 -0.00458056
0.001832 -0.00228416 0.000346616
-0.000470977 0.000475344 0.00174094
-0.00032482 0.00936608 0.0175582
0.00205136 0.000833658 -0.00066609
-0.0018716 -0.0168872 0.0158436
0.00135821 -0.00367417 0.0109008
0.00159431 0.00295526 0.00283821
-0.00701018 0.00410464 -0.00427429
-9.22269e-05 -0.0138218 -0.0138915
-4.44323e-05 -0.0133972 0.0173211
-0.000406649 0.0173976 0.00909767
0.000165485 -0.00913328 0.00199261
-0.00936654 0.00836909 0.00890076
0.00140515 -0.00209886 -0.0011325
0.0104038 0.0197488 0.0107638
0.000549486 0.00021518 0.00014212
0.000129992 0.000507228 -7.24109e-05
-0.054581 -0.0201349 -0.0342457
-0.00064787 0.00340072 -0.00859976
-0.00537123 0.0297639 0.0163045
0.00407707 -0.00125731 -0.00792559
-7.24899e-05 -0.00574111 0.0111459
-0.000106378 -0.023422 0.00496625
0.00490585 0.00061907 -0.00387123
0.00253548 0.0179444 0.0184034
0.000684841 -0.0169562 -0.00855776
0.000979105 0.0139764 0.0167232
-0.00390661 0.00381428 -0.00230341
0.00319904 0.00714747 0.00176406
-0.0199567 -0.0405943 -0.140971
0.000147626 -0.00220528 -0.00515698
0.000617613 0.0153849 0.0175285
-0.00822492 -0.0711353 -0.0755073
0.001306 0.00102003 -0.00166172
0.00345795 0.0010016 -0.00336503
0.000361565 -0.0129119 0.0118587
-0.00285178 0.0168574 0.0116144
0.0162081 0.0321501 -0.0533796
0.0023836 0.0162337 0.00438449
-0.000522495 0.0155332 0.0055337
0.00324022 0.00272061 -0.00417706
-0.00142106 0.00268551 -0.00201026
-0.000566006 0.000510584 -0.0010581
0.00131962 0.0058871 0.00594454
0.000915997 0.00344898 -6.63271e-05
0.00411273 0.000990134 -0.00423506
0.00283203 -0.000563431 -0.00352735
-0.00438243 0.0146444 0.00282163
0.00451853 0.00107736 -0.00381073
0.0247421 0.00975246 -0.0654922
-0.0050169 0.0112763 0.00651074
0.000158007 -0.000438983 -0.000680039
0.000394872 -0.000252012 -0.00188707
0.000110755 0.0237707 0.00744007
0.000976105 0.000690482 -0.00054064
-1.2219e-05 0.0163834 0.0108575
0.000750764 0.000633382 0.000414076
-3.60364e-08 0.0248918 0.000667214
0.00416689 0.0227444 0.0160365
-0.0126082 -0.0228938 -0.00298725
-0.00201769 -0.0126025 -0.038052
1.98683e-05 8.16328e-05 -0.000114394
-0.000381492 -0.00155451 -0.000779388
0.00394635 0.00107076 -0.00344234
-0.000892648 -0.00869678 -0.00362648
0.00297659 0.00550202 0.00273659
4.23883e-05 0.0166092 0.000778205
-0.0015748 0.00364034 -0.00835379
-0.00140158 -0.000925115 -0.00151498
0.000478147 -0.0152497 -0.0113668
0.000489223 -0.0140389 -0.0244318
-0.00306284 0.0178946 -0.0137428
0.000807191 0.000483783 0.00172757
-0.0206724 -0.0480913 -0.0616382
0.0029649 0.00409956 -0.00315453
0.000372218 0.000280794 -0.00161587
-0.000335039 0.00066989 0.000105891
0.000477116 0.00110546 -0.00190919
0.00332509 0.0179343 -0.00107947
-2.98669e-08 0.0245677 -0.00407497
-0.00266974 0.0134764 0.0239539
0.00727065 -0.00499795 0.00743976
-4.80381e-05 -0.000325776 0.000101566
0.000419375 -0.0188263 -0.00278775
0.00226573 0.00515933 0.0243685
-0.0048254 0.00265086 -0.000213356
0.00408047 -0.00365943 -0.0110082
0.0184253 -0.00827433 -0.00186404
0.00447302 0.00298911 -0.00327399
-0.0325855 0.032043 0.0190368
-0.00163816 0.0142742 0.010263
-1.18747e-05 0.018891 -0.00869058
0.0610362 0.00425173 -0.0750495
0.00022295 -0.0114533 -0.0175849
0.00167893 -0.00803329 -0.0159517
-2.98931e-09 0.0200647 -0.00419208
0.00674691 0.0090612 0.0110169
0.0275698 0.0207154 -0.0589796
0.0035091 -0.00231305 -0.00774041
0.00331167 0.00483625 -0.00837257
-0.00318075 0.00428763 -0.0122901
-0.0324392 -0.00106182 -0.0631322
0.000126025 0.0115515 0.0195794
0.0202232 0.00504254 0.000136036
0.025114 -0.0117934 0.00317048
-0.00764924 -0.00778147 0.00595588
-0.00794814 0.0154708 0.00291868
-0.00523281 0.00534002 -0.00251415
0.00775641 0.00306097 -0.00327162
0.0118287 -0.0138057 0.00461178
0.00654328 0.0178838 -0.00153639
-5.73076e-05 7.62603e-05 -0.000289866
0.00395657 0.000707642 -0.00405965
-0.00257182 0.00893244 0.00290175
-0.000988723 -9.34364e-05 -9.82372e-05
0.00263142 7.15066e-05 -0.00220117
0.102308 -0.214192 0.114261
-0.000714832 -0.00108869 -0.00760706
0.0133304 0.00438908 -0.0161821
0.000998033 -0.000861092 0.000159686
-0.00980643 0.00862079 0.00216806
-0.00244004 0.00905988 -0.00339693
0.00215906 0.00175125 -0.00277811
9.07477e-05 -2.51137e-06 -0.000122333
-0.000128918 0.00252797 -0.00171445
-0.0066641 0.00817409 0.013924
-0.0144496 0.0136671 -0.0197568
6.36778e-05 0.0185599 0.00929838
-0.00544732 0.0143407 -0.039363
0.0104981 0.0087007 0.0068823
0.00423836 0.000269758 -0.00139767
-0.000174184 0.00320238 -0.00479355
-0.00445107 -0.000654829 0.00135319
-0.00578277 0.00310887 -0.0103049
9.22843e-125 6.39156e-124 -3.22607e-12
0.000107064 0.000986104 -0.00233834
0.000724455 -0.000736115 0.00103431
0.00225676 0.00296729 -0.000591157
0.0203376 0.00735573 -0.00515581
-0.0109394 0.0210514 -0.00791042
0.0109652 -0.0121579 0.021072
-0.000614737 0.0133593 0.0155605
-0.00259881 0.0171776 0.0109798
-0.00454386 0.0175609 0.0162621
0.00212022 0.00153236 -0.00220332
0.0089785 0.0129129 0.0139514
0.00186427 0.0135708 0.0153002
0.00274232 0.00311287 -0.000755163
0.00477072 0.000708151 -0.00294436
0.00884016 -0.00302919 0.0205989
-0.0201401 0.0429103 -0.0323637
0.00628673 -0.0115843 -0.0498997
0.00134052 0.00172727 0.000408758
0.00669865 0.0214878 -0.00347181
0.00126764 0.0207057 -0.00405885
0.000677451 0.00116988 -0.00165513
-0.00290506 0.00453654 -0.0110275
0.00391779 0.00863162 0.00258601
0.00103319 0.0010903 -0.00174849
-0.000698218 0.00767898 0.00398939
-5.38995e-06 0.017617 0.00889371
0.0116228 0.0243684 -0.0147409
0.00412828 0.00463989 0.015438
0.000690196 0.000822451 -0.000170415
0.000252807 -0.000523024 0.000678589
0.00157365 -0.00269723 -0.00634415
-0.00169752 0.00139764 -0.00419026
0.00102667 0.031383 -0.00139171
0.0125313 0.0178169 0.0195505
0.0161405 0.0127658 -0.0087934
0.0150838 0.00872307 -0.00203561
-0.00255001 0.00447889 -0.0111561
0.00180059 0.000633107 0.000452998
-0.00310856 0.00490506 0.00258176
0.0076724 0.0312853 0.00703613
0.000346052 0.00022686 -0.000418587
-0.00473435 0.0120832 0.00570592
0.00191478 0.0062619 -0.00463089
0.00265747 0.00125154 0.00161288
0.00120436 0.000722611 -0.0011378
0.00126434 0.0139734 -0.0180347
-0.000120635 6.4325e-05 -0.000453884

VECTORS force float
-1.66126e-07 1.3157e-06 1.3815e-06
2.99027e-07 -4.22135e-08 6.22399e-07
1.04033e-06 -3.73982e-07 2.76171e-07
9.67893e-07 2.31429e-06 -4.63315e-06
-3.31089e-08 2.52013e-07 1.84975e-08
-2.08281e-06 3.80053e-06 7.25604e-08
3.58705e-08 -5.49432e-10 9.19157e-08
-2.46071e-06 3.82642e-06 4.44832e-06
4.43587e-08 -4.96671e-08 2.53616e-07
0.0 0.0 -1.43822e-06
-3.55569e-09 5.52011e-09 1.46595e-08
6.16627e-07 1.37988e-06 1.35011e-06
-5.10543e-06 -1.54946e-07 -3.12608e-06
2.25962e-06 7.85903e-07 -1.5304e-06
3.16209e-07 -4.73996e-07 4.78302e-07
7.78357e-09 -1.24178e-08 9.76248e-10
6.32048e-07 -1.69973e-06 -5.46927e-07
4.77831e-05 -7.14061e-05 2.41819e-05
1.59947e-06 -2.0057e-07 -4.9233e-07
7.40955e-20 2.22346e-21 1.27055e-21
4.25734e-07 1.04165e-06 2.75417e-07
5.48441e-07 -7.13897e-07 4.33654e-07
2.01397e-07 -6.33057e-07 -4.05064e-07
1.9573e-09 1.44873e-08 -7.38698e-09
-2.49168e-06 1.73767e-06 2.46805e-06
6.61851e-07 -4.52422e-07 2.37889e-07
0.0 0.0 -1.43822e-06
-3.76236e-07 -1.85978e-07 -1.48748e-06
-2.13104e-06 1.04805e-06 1.10635e-06
1.51912e-06 7.86388e-07 6.71e-07
1.19431e-06 1.93371e-06 2.89642e-07
2.12161e-06 3.18086e-06 -8.10196e-06
3.01316e-06 1.151e-05 -1.17988e-05
-4.2547e-07 -6.04364e-08 -9.15029e-08
0.0 -5.16988e-24 0.0
1.21891e-06 -8.83158e-07 1.5814e-06
-4.77831e-05 7.14061e-05 -2.70583e-05
0.0 0.0 -1.43822e-06
4.00004e-06 2.59282e-07 3.24669e-06
2.77376e-06 -4.76007e-06 8.78216e-06
-2.23539e-07 -2.60584e-07 -4.43392e-07
-7.91554e-10 9.21974e-09 -1.00351e-08
-2.87869e-09 -1.58733e-08 2.04263e-08
-7.79305e-07 1.90157e-07 5.72642e-08
-7.02308e-06 -2.78164e-06 5.53314e-06
9.206e-07 -6.53933e-08 2.01573e-07
3.92622e-07 -4.74356e-07 3.70438e-06
4.54274e-07 9.10747e-08 -6.85307e-07
0.0 0.0 -1.43822e-06
0.0 0.0 -1.43822e-06
5.11857e-07 -4.43038e-07 5.54447e-08
-6.79974e-08 9.97261e-08 -2.38623e-07
-2.45339e-09 -1.21607e-08 5.99193e-09
6.09353e-07 -8.717e-07 5.01449e-07
1.88078e-06 1.09398e-06 -2.63669e-06
-1.77122e-06 6.75926e-08 -2.86732e-07
-4.49939e-08 3.98115e-09 4.47383e-07
3.64812e-08 -7.41098e-09 -6.41224e-08
-5.17487e-07 4.08386e-07 8.10598e-07
1.60204e-06 3.02958e-06 1.35947e-05
0.0 0.0 -1.43822e-06
1.62749e-06 -4.3822e-07 4.27775e-07
2.91373e-07 -1.88468e-06 1.92096e-06
1.48524e-07 4.21061e-07 -1.01384e-06
0.0 0.0 -1.43822e-06
1.36477e-06 -9.0564e-07 1.32957e-07
-1.0116e-07 -8.43331e-07 -1.5906e-07
7.37506e-08 1.01613e-07 -1.77946e-07
0.0 0.0 -1.43822e-06
2.91579e-06 -4.19742e-06 2.83722e-06
0.0 0.0 -1.43822e-06
4.17194e-07 -2.57541e-07 2.75473e-07
0.0 0.0 -1.43822e-06
-5.38086e-07 -4.08384e-07 -4.82509e-07
-8.79897e-09 8.03779e-08 -5.24522e-08
-1.49917e-06 -3.20525e-06 -1.64406e-05
-1.13864e-06 1.14279e-06 6.80588e-07
-1.18097e-09 -2.46828e-08 1.24317e-08
6.04507e-07 4.30363e-08 4.2914e-07
0.0 0.0 -1.43822e-06
8.4881e-07 8.67934e-07 7.81665e-07
-1.99941e-07 1.45085e-06 -6.95062e-07
-1.31648e-07 -4.53777e-08 2.22799e-08
1.28319e-06 -1.22465e-06 9.88331e-07
0.0 0.0 -1.43822e-06
-1.28231e-08 -6.70593e-09 -1.26114e-08
1.77641e-06 3.13405e-06 -2.3736e-06
-4.34553e-08 5.96689e-07 -1.67058e-07
-9.44601e-09 -6.27184e-08 9.95741e-08
-2.31881e-07 -1.66913e-06 -1.02304e-06
0.0 0.0 -1.43822e-06
1.43178e-08 -1.85734e-08 3.08049e-08
9.61868e-06 -1.26885e-06 8.39467e-06
-7.00518e-09 -5.06797e-09 -2.87505e-08
-2.37777e-07 3.51651e-07 -6.1703e-07
0.0 0.0 -1.43822e-06
0.0 0.0 -1.43822e-06
-4.75294e-08 -7.91295e-08 5.83781e-08
5.76163e-07 7.06003e-07 -3.14386e-07
1.67823e-06 4.56671e-06 -4.22681e-07