# vtk DataFile Version 3.0
LIGGGHTS particles timestep 3200000
ASCII
DATASET POLYDATA
POINTS 240 float
0.0190805 0.0195053 0.0167621
0.0182531 0.0241109 0.0126891
0.0193749 0.0230992 0.010082
0.0170912 0.0217876 0.0159849
0.0210223 0.0175705 0.0156891
0.0216022 0.0224185 0.0143972
0.0208796 0.0239579 0.0130458
0.0179408 0.0230608 0.0149072
0.0206364 0.0306651 0.0397811
0.0226354 0.0187745 0.0159438
0.0211417 0.0232748 0.0146444
0.0189469 0.0242339 0.0131475
0.0212267 0.0225385 0.0155465
0.021728 0.0151266 0.0135907
0.0217225 0.0237868 0.0133819
0.0238986 0.0201917 0.00743327
0.0195881 0.0245065 0.0136176
0.0402891 0.0167947 0.00659266
0.0241051 0.0171019 0.0175149
0.0159907 0.0216958 0.015071
0.017329 0.0240444 0.0129057
0.0179247 0.0142328 0.0127285
0.019371 0.0185313 0.0167549
0.0206397 0.019266 0.015938
0.0161396 0.0228321 0.0167518
0.0198828 0.0149342 0.0147965
0.0156696 0.0234617 0.0144638
0.0239915 0.0185295 0.0170501
0.0149875 0.0159156 0.0158976
0.0233722 0.0180485 0.00736042
0.0244466 0.0209383 0.00778651
0.0296393 0.0184913 0.00583954
0.0204629 0.024385 0.0137861
0.0235647 0.0189579 0.00720562
0.0204983 0.0144535 0.0141055
0.0166297 0.0117384 0.0240616
0.0227125 0.0236104 0.0151619
0.0180128 0.0238305 0.0134014
0.0202311 0.0146832 0.0157016
0.022005 0.0216411 0.0151107
0.0229095 0.0234615 0.0142349
0.0231952 0.0164308 0.0151091
0.0245024 0.0226204 0.00910093
0.0204257 0.0202827 0.0157697
0.0200859 0.0239672 0.0125779
0.0267711 0.0182783 0.0157328
0.0182569 0.0244881 0.0137748
0.0156438 0.0228149 0.0152672
0.0181919 0.0158423 0.0156589
0.0173006 0.0243714 0.0139341
0.0192047 0.0239337 0.0123491
0.0186282 0.0150234 0.0160334
0.0154671 0.0230685 0.017455
0.0213228 0.024287 0.0140555
0.0221351 0.023933 0.0142697
0.0191648 0.0145106 0.0153489
0.0229067 0.015263 0.0152691
0.0142118 0.0192443 0.0167791
0.019672 0.0216981 0.0163456
0.016975 0.016755 0.0158082
0.0162632 -0.0118486 0.024682
0.0190971 0.0161866 0.0159087
0.0131708 0.0165427 0.0161062
0.0248018 0.0221212 0.0164548
0.0259838 0.0180947 0.0170429
0.0195673 0.0227299 0.0154101
0.0171995 0.0225879 0.0153956
0.0274871 0.0156054 0.0140389
0.0165064 0.0230818 0.0148705
0.00786137 0.0235035 0.0521261
0.0153455 0.0222252 0.0167767
0.0166113 0.0238375 0.0135242
0.0223078 0.0168342 0.0153493
0.0219125 0.0148674 0.0125284
0.0148335 0.023066 0.014692
0.0152868 0.0200188 0.016516
0.0214107 0.0201032 0.0158164
0.02891 0.0161214 0.028803
0.0163581 0.0164215 0.0150945
0.0191276 0.0233724 0.0116922
0.0236102 0.0165816 0.0184567
0.0272407 0.0161411 0.0146411
0.016445 0.0197851 0.0158958
0.0190312 0.0242363 0.0142989
0.0196605 0.0141952 0.0135425
0.0130707 0.0211958 0.0163711
0.0162537 0.0207411 0.0156736
0.0164183 0.0240478 0.0144632
0.02113 0.0187312 0.0167298
0.0256092 0.0227903 0.0135319
0.0190015 0.0234006 0.0110206
0.0211939 0.0210512 0.0154666
0.022712 0.015206 0.0137493
0.0205866 0.0140608 0.0131902
0.0202177 0.0212823 0.0153506
0.0143665 0.0205106 0.0156955
0.0172172 0.0235894 0.0153378
0.0194209 0.0137416 0.0203284
0.0239737 0.0153954 0.0152667
0.0138438 0.0170863 0.0173028
0.0152627 0.0165925 0.0152151
0.0196529 0.0269238 0.0376281
0.0583008 0.0468189 0.0328337
0.0234505 0.0159259 0.0159336
0.0227857 0.0231209 0.0100615
0.0260818 0.0210893 0.0152515
0.0172072 0.0234877 0.0143011
0.0255897 0.020165 0.0165546
0.0234376 0.0153358 0.0144248
0.0190345 0.0146176 0.0143187
0.0210474 0.0165981 0.0162385
0.0161075 0.0222128 0.0159204
0.0182701 0.0236949 0.0156067
0.020464 0.0179968 0.0165994
0.0169875 0.0189475 0.0169036
0.0125519 0.0180315 0.0166491
0.0190224 0.0221946 0.00862571
0.0258328 0.0219908 0.0145441
0.0170957 0.0208856 0.0164164
0.0245603 0.00685994 0.0437453
0.0254755 0.0210119 0.0162929
0.020783 0.0169554 0.0177713
0.0176529 0.0192792 0.00720384
0.022213 0.0148158 0.0109814
0.0237903 0.0174201 0.00747742
0.025827 0.0207181 0.0170657
0.021745 0.0150796 0.0164757
0.0198138 0.0232019 0.0129389
0.015797 0.0182418 0.0158771
0.0153014 0.0207689 0.0158535
0.0236058 0.0222889 0.0156296
0.0219993 0.0155641 0.0173437
0.0227031 0.01447 0.0145597
0.0180027 0.0239898 0.014601
0.0167754 0.0151894 0.0137182
0.022012 0.0178366 0.0157793
0.0132915 0.0197306 0.0167393
0.0141367 0.0214371 0.0159325
0.0149639 0.0148636 0.0147317
0.0205703 0.0236 0.0154611
0.0141936 0.0224453 0.014367
0.0163764 0.0148219 0.0128782
0.0181889 0.0215091 0.00800376
0.0146007 0.0195637 0.0159151
0.0217389 0.0147296 0.0145079
0.0181346 0.019156 0.0167614
0.0210175 0.0157458 0.0157136
0.0255219 0.0358248 0.0473286
0.00237043 0.0183191 0.0683568
0.0161583 0.0143353 0.0140059
0.0244576 0.0161231 0.0158737
0.0159533 0.0172421 0.0155748
0.0105553 0.0288817 0.0355633
0.0160744 0.021266 0.0165249
0.0245921 0.0221324 0.0156934
0.024998 0.0233743 0.0110129
0.0208542 0.015063 0.0149973
0.0149438 0.0226 0.0159395
0.0264066 0.0201468 0.015664
0.0174373 0.0156244 0.0143286
0.0199772 0.0136172 0.017823
0.0148067 0.0185462 0.015914
0.0186937 0.0227915 0.0096315
0.0185847 0.0225223 0.0154557
0.0304879 0.0169274 0.00646272
0.0207796 0.0201093 0.0167147
0.0157161 0.0151537 0.0136395
0.0215029 0.0156978 0.0144269
0.0257951 0.0232328 0.0127793
0.0162737 0.0171893 0.0165206
0.0155726 0.0155166 0.015185
0.0231052 0.0169472 0.00768483
0.023851 0.0176506 0.0165863
0.0174076 0.0180726 0.016656
0.0182775 0.0141206 0.0157817
0.0172442 0.0159736 0.0152454
0.0253284 0.0215106 0.0168344
0.0190933 0.0233096 0.0146545
0.0149467 0.0213244 0.0166053
0.0214236 0.0164279 0.0151055
0.0140932 0.0226392 0.0154554
0.0187037 0.0211473 0.00773187
0.0219949 0.0122558 0.0222315
0.0169666 0.0141504 0.0145645
0.0138751 0.0180797 0.0166954
0.0180412 0.021514 0.0161374
0.0242316 0.021656 0.00823917
0.0189879 0.0175355 0.0165334
0.0179601 0.0140962 0.0144663
0.019931 0.0234184 0.0113495
0.0125428 0.02038 0.016607
0.013915 0.00837236 0.0332703
0.0170174 0.0199287 0.0167031
0.0243367 0.0326552 0.0463695
0.0390059 0.023038 0.0603467
0.0174287 0.0136333 0.0182086
0.0224082 0.0197515 0.0159037
0.0204897 0.0225253 0.0142978
0.016285 0.0182299 0.0167512
0.0150183 0.0175793 0.0156933
0.0168548 0.0177852 0.0157583
0.0176693 0.0376552 0.0435188
0.0140143 0.0217886 0.0149756
0.021634 0.0190975 0.0159476
0.0197644 0.0175561 0.017162
0.0116797 0.0155637 0.0254949
0.0224568 0.0159025 0.0146458
0.0179668 0.0203158 0.0166077
0.0201116 0.0231784 0.0102323
0.0138189 0.0205637 0.0165724
0.0217216 0.0149517 0.0154826
0.0141752 0.0153167 0.0152348
0.0187949 0.0237313 0.0136868
0.0228194 0.0217862 0.0159892
0.0264095 0.0127426 0.0286537
0.0198821 0.0169517 0.0163185
0.0178981 0.0172283 0.0164244
0.0188869 0.0140227 0.0129329
0.0187081 0.0137777 0.0138843
0.0199916 0.015687 0.0155761
0.022207 0.0207012 0.0156374
0.0250662 0.0178556 0.0166143
0.0140743 0.0213798 0.0170908
0.0172547 0.0238758 0.016325
0.0188393 0.0231019 0.0102426
0.013511 0.0220911 0.0163054
0.0161497 0.0156653 0.0143825
0.0164929 0.0231402 0.0158685
0.0221166 0.015879 0.0155987
0.0160416 0.0140464 0.0184844
0.0155925 0.0192615 0.015939
0.0122158 0.0194456 0.0167481
0.016636 0.0188046 0.0159427
0.0214133 0.0141774 0.0137404
0.016766 0.0151216 0.0149562
0.0170583 0.0142271 0.0133056
0.0234787 0.0230106 0.0149491
0.0151839 0.0221521 0.0146964
0.01487 0.0214189 0.0152683
0.0173447 0.0146333 0.0120192

VERTICES 240 480
1 0
1 1
1 2
1 3
1 4
1 5
1 6
1 7
1 8
1 9
1 10
1 11
1 12
1 13
1 14
1 15
1 16
1 17
1 18
1 19
1 20
1 21
1 22
1 23
1 24
1 25
1 26
1 27
1 28
1 29
1 30
1 31
1 32
1 33
1 34
1 35
1 36
1 37
1 38
1 39
1 40
1 41
1 42
1 43
1 44
1 45
1 46
1 47
1 48
1 49
1 50
1 51
1 52
1 53
1 54
1 55
1 56
1 57
1 58
1 59
1 60
1 61
1 62
1 63
1 64
1 65
1 66
1 67
1 68
1 69
1 70
1 71
1 72
1 73
1 74
1 75
1 76
1 77
1 78
1 79
1 80
1 81
1 82
1 83
1 84
1 85
1 86
1 87
1 88
1 89
1 90
1 91
1 92
1 93
1 94
1 95
1 96
1 97
1 98
1 99
1 100
1 101
1 102
1 103
1 104
1 105
1 106
1 107
1 108
1 109
1 110
1 111
1 112
1 113
1 114
1 115
1 116
1 117
1 118
1 119
1 120
1 121
1 122
1 123
1 124
1 125
1 126
1 127
1 128
1 129
1 130
1 131
1 132
1 133
1 134
1 135
1 136
1 137
1 138
1 139
1 140
1 141
1 142
1 143
1 144
1 145
1 146
1 147
1 148
1 149
1 150
1 151
1 152
1 153
1 154
1 155
1 156
1 157
1 158
1 159
1 160
1 161
1 162
1 163
1 164
1 165
1 166
1 167
1 168
1 169
1 170
1 171
1 172
1 173
1 174
1 175
1 176
1 177
1 178
1 179
1 180
1 181
1 182
1 183
1 184
1 185
1 186
1 187
1 188
1 189
1 190
1 191
1 192
1 193
1 194
1 195
1 196
1 197
1 198
1 199
1 200
1 201
1 202
1 203
1 204
1 205
1 206
1 207
1 208
1 209
1 210
1 211
1 212
1 213
1 214
1 215
1 216
1 217
1 218
1 219
1 220
1 221
1 222
1 223
1 224
1 225
1 226
1 227
1 228
1 229
1 230
1 231
1 232
1 233
1 234
1 235
1 236
1 237
1 238
1 239

POINT_DATA 240
SCALARS id int 1
LOOKUP_TABLE default
1
2
4
6
7
8
9
10
11
12
13
14
15
16
17
18
19
20
21
22
23
24
25
26
27
28
29
30
31
32
33
35
36
37
38
39
40
41
43
45
47
48
50
51
52
53
54
55
56
57
58
59
61
62
63
64
65
66
68
69
70
71
72
73
75
76
78
79
80
82
84
85
86
87
88
89
90
91
92
93
95
97
98
101
102
103
104
105
106
108
109
110
111
112
114
115
116
117
118
119
120
121
122
123
124
125
126
127
128
129
131
132
133
135
136
138
139
140
141
142
143
144
145
147
148
149
150
151
152
153
154
155
156
157
158
161
162
163
166
167
168
169
170
171
172
173
176
177
178
179
180
182
183
184
185
187
188
189
190
192
193
195
196
197
200
201
202
203
204
205
206
209
211
215
216
217
218
219
220
221
222
223
224
225
226
229
231
232
233
234
235
236
237
238
239
240
241
242
243
244
245
246
247
248
251
253
256
257
258
259
260
261
263
264
265
268
269
272
273
274
275
276
277
278
279
280
281
282
284
285
286
287
289
290
292
294
295
296
297
300

SCALARS type int 1
LOOKUP_TABLE default
1
1
1
1
1
1
1
1
1
1
1
1
1
1
1
1
1
1
1
1
1
1
1
1
1
1
1
1
1
1
1
1
1
1
1
1
1
1
1
1
1
1
1
1
1
1
1
1
1
1
1
1
1
1
1
1
1
1
1
1
1
1
1
1
1
1
1
1
1
1
1
1
1
1
1
1
1
1
1
1
1
1
1
1
1
1
1
1
1
1
1
1
1
1
1
1
1
1
1
1
1
1
1
1
1
1
1
1
1
1
1
1
1
1
1
1
1
1
1
1
1
1
1
1
1
1
1
1
1
1
1
1
1
1
1
1
1
1
1
1
1
1
1
1
1
1
1
1
1
1
1
1
1
1
1
1
1
1
1
1
1
1
1
1
1
1
1
1
1
1
1
1
1
1
1
1
1
1
1
1
1
1
1
1
1
1
1
1
1
1
1
1
1
1
1
1
1
1
1
1
1
1
1
1
1
1
1
1
1
1
1
1
1
1
1
1
1
1
1
1
1
1
1
1
1
1
1
1
1
1
1
1
1
1
1
1
1
1
1
1

SCALARS radius float 1
LOOKUP_TABLE default
0.0005
0.0005
0.0005
0.0005
0.0005
0.0005
0.0005
0.0005
0.0005
0.0005
0.0005
0.0005
0.0005
0.0005
0.0005
0.0005
0.0005
0.0005
0.0005
0.0005
0.0005
0.0005
0.0005
0.0005
0.0005
0.0005
0.0005
0.0005
0.0005
0.0005
0.0005
0.0005
0.0005
0.0005
0.0005
0.0005
0.0005
0.0005
0.0005
0.0005
0.0005
0.0005
0.0005
0.0005
0.0005
0.0005
0.0005
0.0005
0.0005
0.0005
0.0005
0.0005
0.0005
0.0005
0.0005
0.0005
0.0005
0.0005
0.0005
0.0005
0.0005
0.0005
0.0005
0.0005
0.0005
0.0005
0.0005
0.0005
0.0005
0.0005
0.0005
0.0005
0.0005
0.0005
0.0005
0.0005
0.0005
0.0005
0.0005
0.0005
0.0005
0.0005
0.0005
0.0005
0.0005
0.0005
0.0005
0.0005
0.0005
0.0005
0.0005
0.0005
0.0005
0.0005
0.0005
0.0005
0.0005
0.0005
0.0005
0.0005
0.0005
0.0005
0.0005
0.0005
0.0005
0.0005
0.0005
0.0005
0.0005
0.0005
0.0005
0.0005
0.0005
0.0005
0.0005
0.0005
0.0005
0.0005
0.0005
0.0005
0.0005
0.0005
0.0005
0.0005
0.0005
0.0005
0.0005
0.0005
0.0005
0.0005
0.0005
0.0005
0.0005
0.0005
0.0005
0.0005
0.0005
0.0005
0.0005
0.0005
0.0005
0.0005
0.0005
0.0005
0.0005
0.0005
0.0005
0.0005
0.0005
0.0005
0.0005
0.0005
0.0005
0.0005
0.0005
0.0005
0.0005
0.0005
0.0005
0.0005
0.0005
0.0005
0.0005
0.0005
0.0005
0.0005
0.0005
0.0005
0.0005
0.0005
0.0005
0.0005
0.0005
0.0005
0.0005
0.0005
0.0005
0.0005
0.0005
0.0005
0.0005
0.0005
0.0005
0.0005
0.0005
0.0005
0.0005
0.0005
0.0005
0.0005
0.0005
0.0005
0.0005
0.0005
0.0005
0.0005
0.0005
0.0005
0.0005
0.0005
0.0005
0.0005
0.0005
0.0005
0.0005
0.0005
0.0005
0.0005
0.0005
0.0005
0.0005
0.0005
0.0005
0.0005
0.0005
0.0005
0.0005
0.0005
0.0005
0.0005
0.0005
0.0005
0.0005
0.0005
0.0005
0.0005
0.0005
0.0005
0.0005
0.0005
0.0005
0.0005
0.0005
0.0005
0.0005
0.0005
0.0005
0.0005
0.0005
0.0005

SCALARS mass float 1
LOOKUP_TABLE default
1.46608e-07
1.46608e-07
1.46608e-07
1.46608e-07
1.46608e-07
1.46608e-07
1.46608e-07
1.46608e-07
1.46608e-07
1.46608e-07
1.46608e-07
1.46608e-07
1.46608e-07
1.46608e-07
1.46608e-07
1.46608e-07
1.46608e-07
1.46608e-07
1.46608e-07
1.46608e-07
1.46608e-07
1.46608e-07
1.46608e-07
1.46608e-07
1.46608e-07
1.46608e-07
1.46608e-07
1.46608e-07
1.46608e-07
1.46608e-07
1.46608e-07
1.46608e-07
1.46608e-07
1.46608e-07
1.46608e-07
1.46608e-07
1.46608e-07
1.46608e-07
1.46608e-07
1.46608e-07
1.46608e-07
1.46608e-07
1.46608e-07
1.46608e-07
1.46608e-07
1.46608e-07
1.46608e-07
1.46608e-07
1.46608e-07
1.46608e-07
1.46608e-07
1.46608e-07
1.46608e-07
1.46608e-07
1.46608e-07
1.46608e-07
1.46608e-07
1.46608e-07
1.46608e-07
1.46608e-07
1.46608e-07
1.46608e-07
1.46608e-07
1.46608e-07
1.46608e-07
1.46608e-07
1.46608e-07
1.46608e-07
1.46608e-07
1.46608e-07
1.46608e-07
1.46608e-07
1.46608e-07
1.46608e-07
1.46608e-07
1.46608e-07
1.46608e-07
1.46608e-07
1.46608e-07
1.46608e-07
1.46608e-07
1.46608e-07
1.46608e-07
1.46608e-07
1.46608e-07
1.46608e-07
1.46608e-07
1.46608e-07
1.46608e-07
1.46608e-07
1.46608e-07
1.46608e-07
1.46608e-07
1.46608e-07
1.46608e-07
1.46608e-07
1.46608e-07
1.46608e-07
1.46608e-07
1.46608e-07
1.46608e-07
1.46608e-07
1.46608e-07
1.46608e-07
1.46608e-07
1.46608e-07
1.46608e-07
1.46608e-07
1.46608e-07
1.46608e-07
1.46608e-07
1.46608e-07
1.46608e-07
1.46608e-07
1.46608e-07
1.46608e-07
1.46608e-07
1.46608e-07
1.46608e-07
1.46608e-07
1.46608e-07
1.46608e-07
1.46608e-07
1.46608e-07
1.46608e-07
1.46608e-07
1.46608e-07
1.46608e-07
1.46608e-07
1.46608e-07
1.46608e-07
1.46608e-07
1.46608e-07
1.46608e-07
1.46608e-07
1.46608e-07
1.46608e-07
1.46608e-07
1.46608e-07
1.46608e-07
1.46608e-07
1.46608e-07
1.46608e-07
1.46608e-07
1.46608e-07
1.46608e-07
1.46608e-07
1.46608e-07
1.46608e-07
1.46608e-07
1.46608e-07
1.46608e-07
1.46608e-07
1.46608e-07
1.46608e-07
1.46608e-07
1.46608e-07
1.46608e-07
1.46608e-07
1.46608e-07
1.46608e-07
1.46608e-07
1.46608e-07
1.46608e-07
1.46608e-07
1.46608e-07
1.46608e-07
1.46608e-07
1.46608e-07
1.46608e-07
1.46608e-07
1.46608e-07
1.46608e-07
1.46608e-07
1.46608e-07
1.46608e-07
1.46608e-07
1.46608e-07
1.46608e-07
1.46608e-07
1.46608e-07
1.46608e-07
1.46608e-07
1.46608e-07
1.46608e-07
1.46608e-07
1.46608e-07
1.46608e-07
1.46608e-07
1.46608e-07
1.46608e-07
1.46608e-07
1.46608e-07
1.46608e-07
1.46608e-07
1.46608e-07
1.46608e-07
1.46608e-07
1.46608e-07
1.46608e-07
1.46608e-07
1.46608e-07
1.46608e-07
1.46608e-07
1.46608e-07
1.46608e-07
1.46608e-07
1.46608e-07
1.46608e-07
1.46608e-07
1.46608e-07
1.46608e-07
1.46608e-07
1.46608e-07
1.46608e-07
1.46608e-07
1.46608e-07
1.46608e-07
1.46608e-07
1.46608e-07
1.46608e-07
1.46608e-07
1.46608e-07
1.46608e-07
1.46608e-07
1.46608e-07
1.46608e-07
1.46608e-07
1.46608e-07
1.46608e-07
1.46608e-07
1.46608e-07
1.46608e-07
1.46608e-07
1.46608e-07
1.46608e-07
1.46608e-07
1.46608e-07
1.46608e-07
1.46608e-07

VECTORS velocity float
1.72188e-08 0.024794 -0.00198495
-0.000595582 -0.00185584 -0.000425548
0.00279028 0.0006826 -0.00450193
0.00535574 0.00141926 0.00349227
-2.2753e-07 0.0192939 0.00683839
0.0112724 0.0279505 -0.0329123
-0.000299101 -0.000608 0.000126872
0.00120877 0.00493645 -0.00347485
0.0206668 0.157342 0.218506
1.62999e-07 0.0205356 0.0010902
-0.0202125 0.0271738 -0.0695295
8.33397e-05 0.00167608 -0.0019297
0.0331125 0.0667033 -0.117197
0.000887431 0.00955673 0.0121318
-5.71879e-05 -0.00111945 0.00025045
-0.00030037 -0.0207849 -0.00856633
3.50009e-05 0.000259489 -0.000369228
9.26994e-16 -8.55894e-15 -2.18616e-14
-0.00676585 -0.0291199 0.0570208
0.00418541 0.00305164 -0.00110553
-0.000606621 -3.91366e-06 -0.00104045
0.00457237 0.00106814 -0.00585141
-3.10161e-07 0.0247322 0.00275443
0.000179059 0.0207633 -0.000936785
0.0047038 -0.00240685 0.00136647
-0.00198974 0.00530714 0.00958727
0.00233481 -0.000964611 0.00215362
-0.0478526 -0.0100607 -0.0526483
-0.0001548 -0.0134334 -0.0154556
0.000163507 -0.021295 0.00471444
-0.00012057 -0.019662 -0.0111219
2.5161e-14 -2.31862e-16 2.95161e-13
-0.000101787 -4.34058e-05 -7.38978e-07
0.00047926 -0.0196443 0.000906316
-0.000509548 0.00037809 0.00266427
0.03686 0.0501518 -0.0530862
-0.000140366 0.00106268 -0.000538641
-0.00018566 -0.000692729 -0.00226638
0.00156093 -0.00171872 0.0085057
-0.00112526 0.0227792 -0.0165211
-0.000395895 0.00373819 -0.000927706
0.000133378 0.0122135 0.00863379
0.00195028 -0.00812571 -0.011009
-1.50123e-06 0.0242992 -0.00695774
0.000120236 0.000311573 -0.00118476
0.000387532 0.0152952 0.00501478
0.000208711 0.00041451 -0.00125004
2.43262e-05 0.001777 0.00042172
-0.000489397 0.0122894 0.00964831
0.000191478 -0.000317422 -0.000372025
0.00109829 0.000213769 -0.00402027
0.00545591 0.00336221 -0.00783052
-0.00293831 -0.0129707 -0.0138509
-0.000173326 -1.14249e-05 3.10151e-05
-0.000118985 0.00194822 -0.000192879
-0.0166704 -0.0125388 -0.0216462
0.00045669 -0.00104229 0.00102703
-0.00234913 0.0172674 -0.00061952
0.00960625 -0.0400227 -0.0893443
0.0130887 0.0203438 -0.0268031
-0.0322755 -0.209274 -0.745693
0.00623754 0.00645861 0.00282891
-0.0107188 -0.0374298 -0.0196188
-0.000383768 -0.00087494 -7.68968e-06
-0.0123707 -0.0279034 -0.012474
-0.00490652 0.0818584 -0.0841576
0.00921285 0.00299285 0.000466666
0.000117032 0.0107525 0.0163854
0.000660471 0.000731233 0.000484031
-0.218701 -0.0017762 0.454624
-0.00229954 0.00354021 -0.00455465
0.000123612 -0.00130178 -5.85578e-05
3.25513e-05 0.0152933 0.00876602
-0.00106034 0.0028394 0.0264852
0.00161759 0.00104048 -0.000602509
-0.0012325 0.00967657 0.00362011
1.7106e-06 0.0199364 -0.00480033
0.00606551 -0.0943788 -0.0273584
0.000764703 -0.00168658 -0.00323343
0.00209715 0.000337083 -0.0117667
-0.176981 -0.118436 0.0704705
0.00115471 0.00722099 0.00645599
0.00402083 0.013552 -0.00274784
-1.45528e-05 0.000790029 -0.00133574
0.000339005 0.000269014 0.00362893
0.000680308 -0.000793525 -0.00308936
0.00181146 0.0135126 -0.00652788
0.00069661 -0.000250412 3.60781e-05
-9.37014e-05 0.0255675 0.00136555
0.00151194 0.00642523 -0.0103465
0.00180253 -0.000419096 -0.00730847
1.5101e-10 0.0182982 -0.00924928
0.00259477 0.00567481 0.00765098
-0.000184309 -0.00119606 0.00304523
-3.66827e-09 0.017729 -0.0104211
0.00350824 0.00333786 -0.00179481
0.0009452 0.00105286 -0.000910566
-0.113282 0.0271279 0.0246824
0.00582788 0.00462548 0.00472164
0.0277149 -0.0639469 -0.0799631
-0.00115295 0.00796566 0.00576918
-0.0115331 0.0986905 0.192656
0.221457 0.14146 -0.702795
0.000708956 0.00231046 0.0024695
0.00136459 -0.0070759 -0.0237047
-3.08668e-05 0.0165412 -0.0100874
0.00094132 -0.00100835 -0.000253349
-0.000486086 0.0104139 -0.00217529
0.00566893 0.00430547 0.00446075
0.00574872 0.00296174 -0.0050328
-0.00258234 0.000339141 -0.0195756
0.0086648 0.00221477 -0.00308388
0.00228452 0.000365362 0.000600233
-1.79129e-05 0.0240354 0.00671729
-0.0168782 -0.000350616 -0.0220514
1.72241e-07 0.0242468 0.00468255
-0.000546083 -0.0137805 -0.0177178
0.000242802 0.0150389 -0.014776
0.00369196 -0.00425127 0.00361477
0.124056 -0.115038 -0.369128
0.000405769 0.00307894 -0.000315431
-0.0951042 -0.13358 -0.0605716
0.000183316 -0.0213956 -0.00147935
0.00110325 -0.00243409 0.0159353
0.00119078 -0.0204893 0.00588212
0.000127046 0.00276291 -0.000130626
-0.014557 0.0785473 -0.0216475
-0.00155701 0.00101471 -0.00430409
-2.43427e-05 0.0202065 0.00390369
0.00282466 0.0034818 0.000354243
-8.55121e-06 0.00219545 -0.000561833
-0.0228745 0.173174 -0.0494317
0.00723637 0.0107513 -0.0113754
9.19534e-05 0.00162766 -0.000997342
0.00572543 -0.0013226 -0.00287029
-1.29802e-10 0.0197847 0.00550633
0.0010766 0.00179406 0.000988985
0.0036961 0.00384608 -0.00241628
0.00648081 -0.00275666 -0.00498902
0.0618721 -0.0576422 -0.111047
0.00316265 0.00160246 -0.00210761
0.000740297 0.000465988 -0.00139869
0.00032909 -0.00927623 -0.00740431
0.00506881 0.00429023 -0.0013124
0.00708299 0.00897486 -0.00409589
6.68133e-08 0.0247704 -0.000765864
-0.000405246 -0.00433042 -0.0100852
0.103531 0.231188 0.357784
-0.0789623 -0.00783844 0.00864968
0.00155298 -0.000578972 -0.00328926
-0.000243448 0.011926 0.0078007
0.00308358 0.0135698 0.00538695
-0.0493304 0.00412758 0.0825869
-0.00258032 0.0241639 -0.0117101
-0.00226448 -0.00261495 -0.000462008
0.00126631 -0.000993879 -0.016815
0.00367973 -0.00548647 -0.00318209
7.16019e-05 0.000643474 -0.000147857
0.000110459 0.017343 -0.00402741
0.00612073 -0.00220997 -0.00374623
0.19838 -0.025146 0.136854
5.2467e-05 0.0200918 0.00227002
0.00279668 -0.00696387 -0.0113063
0.0126825 0.0141848 -0.0103749
-1.69845e-14 5.86029e-14 1.44118e-13
-0.00556234 0.0494989 -0.00378658
0.00170211 0.00707559 0.0132117
0.0015841 0.0106802 0.0112604
0.00201336 0.00172106 -0.00018392
0.0148174 -0.00146084 0.000581601
0.00233132 -0.0140554 -0.00943257
0.000717528 -0.0170644 0.00997662
0.00179221 0.00919952 0.00677582
0.00138708 0.00968764 0.00401562
-0.000276388 0.000104682 -0.000657951
0.00472241 0.0044815 -0.00716193
0.000367542 0.00116906 -0.000106605
-0.00150862 0.00142784 -0.00239443
0.000247954 0.00422139 -0.00212132
-0.000736355 0.0120527 0.00815841
0.000514949 0.00106125 -0.00047187
0.00492607 -0.000929721 -0.0012352
-0.0807077 0.154266 -0.482335
-0.00167741 -0.00545472 -0.000318676
1.82462e-05 0.0243056 0.00462697
0.00186296 0.0245867 -0.0129966
0.00041111 -0.0167103 -0.0126743
-0.000441765 0.0256677 0.00116105
-0.00118761 0.000379713 -0.000914814
0.00213541 -0.000745569 -0.0130724
0.000298055 0.000500162 -5.10877e-05
-0.119381 -0.0348228 0.223338
0.00841457 0.00652068 -0.00416796
0.0965752 0.164534 0.326259
0.369552 0.00463002 0.599442
-0.0886751 -0.00225882 0.0775898
-3.14237e-09 0.0203215 -0.00333479
-0.00214412 0.0359282 -0.0222083
0.00941816 0.000537572 -0.00889921
0.00198822 0.0127379 0.00469653
0.000705434 0.0104523 0.00277477
2.51078e-234 5.60816e-234 -2.35252e-12
0.00373078 0.00260304 -0.00293774
0.000771932 0.0213388 -0.000105214
-0.0292424 -0.00545566 -0.0465008
0.0641504 -0.0038171 -0.0574674
0.00243815 0.00833408 0.00932245
-4.87723e-09 0.0241031 -0.00573575
0.00161689 -0.000109742 0.000949783
0.00241826 0.00107341 -0.0017305
0.00992783 0.0182587 -0.010872
0.00107668 -0.00826985 -0.00614113
0.000772135 0.00457324 -0.00458812
-0.0105843 0.0122255 -0.00760077
-0.0118135 -0.0188301 0.0164904
-8.29326e-10 0.0226445 0.00995722
0.00644788 0.00742611 0.00361726
0.00169443 -0.000531412 0.0013917
-0.000204786 -0.000258057 0.000232998
-0.00191113 0.000292084 0.00216207
6.48965e-11 0.0191861 -0.00743038
-0.0410824 -0.0346933 -0.0114047
0.000860483 0.000552244 -0.000865277
0.0247463 0.00203746 -0.0129019
0.000921128 -0.00182883 -0.00978016
0.000146166 -0.000314716 1.13978e-05
0.0123232 0.000490996 -0.00310418
0.00342106 0.00328862 -0.0012408
0.0341289 0.0144674 -0.044986
-0.192469 -0.0421251 0.262962
0.00190689 0.0142632 -0.000482054
-0.00322349 0.00192973 0.00206995
-6.71076e-05 0.0119744 -4.36019e-05
0.00266386 0.00236485 -0.00170529
0.0359237 -0.0176867 -0.0490347
0.0153168 0.0014098 -0.0229729
-0.000642226 0.00161977 -0.000642328
0.00286922 0.00165175 -0.00205882
0.0037129 0.00186723 -0.00210889
-0.000103572 0.000821947 -0.00216414

VECTORS force float
7.22941e-11 -1.52631e-09 -1.87793e-08
6.15238e-08 -8.85564e-09 1.73507e-07
-2.33068e-07 2.56646e-07 4.57671e-07
-2.20842e-06 -3.9195e-06 -1.15575e-06
8.82506e-12 9.99347e-08 2.01147e-08
-1.28429e-06 1.6466e-06 4.47164e-06
-2.00948e-07 -6.823e-08 -3.26957e-08
-1.52394e-07 -3.25286e-06 8.27865e-06
0.0 0.0 -1.43822e-06
2.45756e-10 3.36472e-11 -1.37569e-08
0.0 0.0 -1.43822e-06
3.46552e-09 -1.17151e-07 1.95794e-07
0.0 0.0 -1.43822e-06
3.05798e-07 1.01015e-05 -3.87439e-05
1.3003e-08 6.45699e-08 -2.85789e-07
-2.34737e-10 -3.60775e-09 9.82589e-09
-8.50494e-10 -2.00343e-09 4.8885e-08
-1.97597e-20 -7.41154e-21 2.5411e-21
0.0 0.0 -1.43822e-06
-2.29304e-07 7.57904e-07 -3.10288e-07
4.24993e-08 1.51924e-08 1.84798e-07
-6.92493e-10 -2.34794e-08 9.0567e-08
2.16234e-09 2.54696e-09 -1.71145e-08
7.41896e-07 5.8699e-07 -1.28793e-08
5.19474e-06 4.70767e-06 -3.35056e-06
-9.02826e-08 -1.35896e-07 -5.90615e-07
-2.54419e-06 1.84581e-06 -1.47401e-06
0.0 0.0 -1.43822e-06
-1.68036e-07 -1.19089e-06 2.3474e-06
1.62529e-06 -5.30362e-07 -6.65586e-07
4.76936e-11 -4.85607e-09 7.40759e-09
0.0 -1.18287e-22 0.0
1.98195e-08 -1.77873e-08 4.6807e-08
-3.91852e-07 4.93242e-08 -4.80156e-08
-9.23512e-09 -3.24855e-07 -6.57499e-07
0.0 0.0 -1.43822e-06
-3.60904e-07 -4.31043e-07 7.92754e-07
4.49286e-08 2.361e-07 7.23693e-07
-1.17375e-07 3.66047e-07 -1.58386e-06
-1.71133e-08 4.57407e-08 -6.68343e-08
1.29471e-07 -1.68263e-07 2.45603e-07
5.73813e-08 -7.35078e-08 -3.24529e-08
-1.69269e-06 4.08667e-06 2.77899e-06
3.3571e-10 -3.17553e-07 6.30383e-08
-2.16843e-07 -7.42718e-08 1.59464e-07
1.08079e-09 -5.24999e-09 -1.13171e-08
-5.63733e-08 -5.54294e-08 2.79879e-07
-6.87518e-06 -1.57342e-06 9.99158e-06
2.25795e-07 -6.70609e-08 -3.04726e-07
-2.08449e-07 -2.52684e-07 4.36229e-07
4.54542e-09 -3.04855e-08 3.30911e-08
0.0 0.0 -1.43822e-06
4.14474e-07 -1.22409e-07 -8.29987e-07
6.31184e-08 -4.58953e-08 -1.59558e-07
2.14096e-07 -3.29723e-07 -3.19085e-07
0.0 0.0 -1.43822e-06
6.76524e-08 1.49461e-07 -3.84321e-07
-6.17391e-07 -5.10608e-06 2.94882e-06
0.0 0.0 -1.43822e-06
-1.16363e-08 7.65559e-07 2.37069e-07
0.0 0.0 -1.43822e-06
0.0 0.0 -1.43822e-06
6.02877e-08 4.66729e-08 1.23623e-07
1.21104e-08 -9.66334e-09 -2.00364e-08
0.0 0.0 -1.43822e-06
0.0 0.0 -1.43822e-06
1.74966e-06 5.35383e-06 -3.95895e-06
-1.64416e-09 1.30288e-08 -8.29074e-09
-1.11876e-05 1.35105e-06 1.75352e-06
0.0 0.0 -1.43822e-06
-3.08072e-06 -2.87354e-06 2.32317e-06
-2.01859e-07 -3.15579e-10 1.06555e-07
-4.93783e-09 1.44249e-08 -2.30748e-09
5.26976e-08 -6.22383e-08 -6.06148e-08
-4.46681e-07 2.05441e-07 2.93755e-07
-5.23703e-07 1.41796e-06 -6.10386e-08
1.16506e-09 1.98099e-09 -1.46391e-08
0.0 0.0 -1.43822e-06
-2.58463e-08 -1.12585e-07 -6.38414e-08
2.41823e-08 -2.76865e-08 1.88177e-08
0.0 0.0 -1.43822e-06
-4.99704e-09 3.14276e-08 3.58923e-08
-7.48359e-07 1.42496e-06 3.70463e-08
6.44614e-08 9.91945e-08 1.57248e-07
4.22805e-07 -3.16505e-07 1.8486e-07
-1.76542e-07 2.14588e-07 -3.57921e-07
-3.16356e-07 3.47865e-07 -2.94147e-06
-1.61542e-06 5.24166e-07 -6.99207e-07
-1.50207e-07 -6.58595e-08 -6.59138e-07
-3.76988e-11 -2.25498e-08 2.16398e-08
-4.40216e-08 4.13096e-08 8.16548e-08
-1.65197e-15 -6.17413e-09 -1.21651e-08
-6.03153e-07 3.05153e-07 -3.10515e-06
4.59714e-07 3.04102e-07 9.90272e-08
-3.98464e-12 1.02214e-08 -2.05952e-08
-1.13755e-07 1.54249e-06 -7.38064e-07
-8.76107e-06 -3.02654e-06 3.59844e-06
0.0 0.0 -1.43822e-06
2.29983e-07 -2.39234e-07 -5.29392e-07
0.0 0.0 -1.43822e-06
-9.12073e-07 -1.15208e-06 1.89261e-07
0.0 0.0 -1.43822e-06
0.0 0.0 -1.43822e-06
-1.49001e-07 8.46264e-08 2.54243e-07
3.48672e-06 3.47803e-07 1.84695e-07
-1.10539e-08 3.17269e-08 -1.8442e-08
-3.28939e-06 -8.63799e-07 2.25254e-06
-1.21167e-08 -1.88893e-08 4.80849e-08
-6.93853e-07 -2.11025e-07 7.19018e-07
0.0 0.0 -1.43822e-06
0.0 0.0 -1.43822e-06
0.0 0.0 -1.43822e-06
-9.04852e-07 -1.30714e-06 -8.23695e-07
1.33898e-07 -6.88675e-08 -1.07516e-07
0.0 0.0 -1.43822e-06
-6.16652e-10 9.80919e-09 -1.4902e-08
3.1903e-09 -7.6194e-09 4.79649e-09
-1.42185e-09 -3.35765e-09 -1.20231e-08
4.58763e-07 -1.43432e-06 8.00038e-07
0.0 0.0 -1.43822e-06
4.92616e-09 3.07269e-09 8.80589e-09
0.0 0.0 -1.43822e-06
-1.23254e-09 -7.83986e-09 1.06343e-08
1.04497e-07 -1.64628e-09 -6.97988e-08
-2.06688e-07 2.62084e-07 2.07639e-07
-8.57513e-09 -1.07498e-08 1.3183e-08
0.0 0.0 -1.43822e-06
-1.91792e-07 -9.63978e-08 2.77559e-07
-3.27903e-08 9.23117e-08 -2.4088e-09
3.54068e-07 -5.45188e-07 -8.15099e-07
-2.89647e-08 9.26426e-07 -1.19783e-06
0.0 0.0 -1.43822e-06
2.12861e-07 -7.96459e-07 2.48532e-06
-2.84514e-06 -1.83812e-06 2.19184e-06
-4.86869e-07 -9.46363e-07 4.57961e-07
-1.2623e-15 3.58233e-09 -1.31921e-08
3.0533e-07 1.82832e-07 -1.22752e-07
1.81317e-07 -6.46109e-08 5.83238e-07
-2.5574e-08 -2.03087e-09 4.6753e-08
0.0 0.0 -1.43822e-06
-8.26598e-07 -3.97799e-07 1.29269e-06
1.46122e-07 -1.02793e-07 2.76975e-07
-2.2303e-09 -9.36587e-09 -1.18974e-08
-2.20882e-06 4.34017e-06 -1.06758e-06
8.37651e-07 -9.95218e-06 3.631e-05
8.12981e-15 -5.85657e-10 -1.87647e-08
0.0 0.0 -1.43822e-06
0.0 0.0 -1.43822e-06
0.0 0.0 -1.43822e-06
-9.35866e-07 -3.34234e-07 9.05693e-07
1.0166e-08 -4.87002e-08 -9.16278e-08
-3.36311e-07 8.06056e-08 -6.23437e-08
3.42709e-07 -2.92703e-07 -1.08016e-06
0.0 0.0 -1.43822e-06
6.09964e-08 -4.78688e-08 -7.35962e-08
1.61236e-08 8.23455e-09 7.16536e-08
0.0 0.0 -1.43822e-06
-2.26061e-06 -2.40144e-06 6.03663e-06
-8.85736e-10 -3.71246e-08 -2.22159e-08
-1.62289e-06 5.85376e-07 -7.01076e-07
0.0 0.0 -1.43822e-06
-1.45672e-07 5.16268e-07 1.50042e-07
7.38613e-08 9.16577e-08 6.83563e-08
-6.8497e-07 9.31896e-07 -9.97785e-07
5.21719e-20 2.33993e-20 -6.35275e-22
0.0 0.0 -1.43822e-06
-5.73087e-07 3.86077e-07 1.90035e-06
-2.88645e-07 -1.10377e-06 3.89241e-06
3.76005e-08 -4.85391e-08 6.30617e-08
8.76815e-08 -5.41253e-08 -4.24807e-07
-8.79076e-06 -6.52509e-06 9.10227e-06
4.84348e-08 2.88917e-08 -2.15842e-07
0.0 0.0 -1.43822e-06
-1.43185e-07 9.1002e-07 6.30351e-08
0.0 0.0 -1.43822e-06
-1.9318e-06 5.01455e-07 5.31909e-07
6.27175e-09 -8.5568e-10 2.15475e-09
-3.61517e-07 8.7924e-07 -1.5446e-06
-3.531e-06 -2.82185e-07 -1.65491e-06
-6.14959e-07 7.45373e-07 1.44609e-06
-4.22359e-06 -7.42039e-06 8.40227e-06
-1.25829e-07 -1.2991e-07 -7.86788e-08
0.0 0.0 -1.43822e-06
-7.50001e-07 -1.7782e-06 2.04859e-06
-6.04588e-09 -2.12077e-07 -4.98792e-08
-3.07239e-07 6.57598e-08 -8.11427e-08
-2.2956e-09 -1.16236e-08 4.83489e-09
-2.97794e-06 3.45193e-05 -0.000101241
5.62323e-07 -1.39891e-06 -7.87199e-08
-2.94166e-07 2.04938e-09 -5.16275e-08
-2.1235e-07 -1.72957e-08 -2.49959e-07
0.0 0.0 -1.43822e-06
0.0 0.0 -1.43822e-06
0.0 0.0 -1.43822e-06
0.0 0.0 -1.43822e-06
0.0 0.0 -1.43822e-06
-3.17701e-16 -2.54085e-09 -1.54831e-08
0.0 0.0 -1.43822e-06
0.0 0.0 -1.43822e-06
-1.28567e-07 5.49012e-07 1.75332e-07
-4.08643e-08 2.53823e-07 8.37858e-08
-6.78637e-238 -1.51748e-237 0.0
2.68257e-07 -1.74199e-06 1.18413e-06
-6.88364e-08 -6.51637e-08 -1.48501e-07
2.5544e-05 -3.39116e-05 0.000117838
0.0 0.0 -1.43822e-06
1.42429e-07 1.91475e-07 3.78793e-07
-7.09092e-15 -3.73199e-09 -1.64921e-08
9.80136e-08 5.38468e-08 1.21249e-07
2.40833e-07 3.67035e-07 -1.54161e-07
-6.73595e-09 -2.75472e-06 6.05899e-06
-2.8519e-08 -1.79186e-07 -1.16377e-07