# vtk DataFile Version 3.0
LIGGGHTS particles timestep 800000
ASCII
DATASET POLYDATA
POINTS 149 float
0.020684 0.0237754 0.0149368
0.0174035 0.0236102 0.0141027
0.0238554 0.0227059 0.0152756
0.0174171 0.0220356 0.0164507
0.0216596 0.0143437 0.0137051
0.0172759 0.0146373 0.012053
0.0173437 0.0142774 0.0129834
0.0234622 0.0219885 0.0158511
0.020852 0.0240593 0.0130596
0.0183175 0.0216638 0.00809952
0.014138 0.0224107 0.0144148
0.0199675 0.0235874 0.0117686
0.0154102 0.0234815 0.014676
0.0186351 0.0238567 0.0135252
0.0231738 0.0169122 0.0154035
0.0179617 0.0138794 0.0136613
0.0217034 0.0237979 0.0135203
0.0199751 0.0232915 0.0124879
0.019193 0.0245004 0.0135785
0.0219277 0.0152924 0.0138721
0.018729 0.0227332 0.00949927
0.018675 0.0139997 0.012971
0.0172465 0.0240335 0.0131421
0.021142 0.017404 0.0156312
0.0213456 0.016533 0.0151844
0.0177628 0.0224109 0.0155466
0.0194656 0.0232664 0.0104634
0.0202915 0.0212661 0.0153537
0.0145051 0.0230639 0.0150768
0.0188689 0.0236663 0.0153024
0.0228461 0.0225642 0.0163885
0.0190948 0.0233845 0.0110667
0.0220853 0.0230145 0.0148095
0.0177419 0.0193253 0.00720496
0.0223779 0.0183131 0.0158904
0.020103 0.0238551 0.0136615
0.0200896 0.0220571 0.0147735
0.019623 0.0231294 0.013207
0.0228035 0.0225748 0.0153656
0.0225105 0.0236039 0.0141073
0.0172935 0.0230279 0.0149149
0.0204885 0.0203672 0.01575
0.0154805 0.022971 0.0136173
0.0193525 0.0220681 0.0158581
0.0217137 0.0239241 0.014608
0.021566 0.0228543 0.0138209
0.0204419 0.0214595 0.0193004
0.0207787 0.0138704 0.0137151
0.018285 0.0233854 0.01452
0.0208326 0.0232655 0.012678
0.0149756 0.0220589 0.0148051
0.0199381 0.0240856 0.0127098
0.0187042 0.0188176 0.0186578
0.0179219 0.0244118 0.0138035
0.0121165 0.024711 0.025755
0.0238445 0.0211611 0.0162942
0.0164876 0.0237801 0.0137377
0.0184405 0.0240881 0.012525
0.0205035 0.0226563 0.0140759
0.0191402 0.0223638 0.00884971
0.0166426 0.0239018 0.0147216
0.0209353 0.0242182 0.0140578
0.0211077 0.0228706 0.0149688
0.0196749 0.0140038 0.0129641
0.0228989 0.0151694 0.013668
0.018554 0.0232504 0.0161713
0.0223104 0.021406 0.0163649
0.0218135 0.0220772 0.0158054
0.0162442 0.0230487 0.0150119
0.0232075 0.0232173 0.0147112
0.0187036 0.0226812 0.0153399
0.0165051 0.0147822 0.0127792
0.0245361 0.0221014 0.0157864
0.0192206 0.0234324 0.0118675
0.0255449 0.0201927 0.0205413
0.0156224 0.0210079 0.0205204
0.0195756 0.0220838 0.0241758
0.0198023 0.0211495 0.0215623
0.0214198 0.0205567 0.0162177
0.0168752 0.021301 0.020094
0.0215229 0.0193368 0.0159502
0.0181484 0.0223897 0.0190664
0.0199927 0.0200304 0.0222644
0.0188718 0.0143582 0.0138834
0.0163497 0.0195255 0.0244014
0.0199162 0.015508 0.015914
0.0167095 0.0153139 0.0139035
0.0159541 0.0180074 0.022335
0.0185116 0.0168101 0.0232165
0.0145182 0.0202283 0.0157993
0.0176342 0.0236463 0.0157003
0.0174769 0.0203679 0.0165849
0.0178878 0.0163826 0.0168341
0.0201827 0.023101 0.0161538
0.0169 0.0211965 0.0162824
0.0159022 0.0208424 0.019201
0.0226245 0.01886 0.0205949
0.0181035 0.0232522 0.0171176
0.0211871 0.0217488 0.0238945
0.0158706 0.0178038 0.0186615
0.0196708 0.0212414 0.0163259
0.017375 0.0207121 0.01879
0.0198506 0.0238053 0.0154884
0.015843 0.0150536 0.0134777
0.0141254 0.0220656 0.0153531
0.019271 0.0240563 0.0144726
0.0215312 0.0219731 0.0148481
0.0172834 0.0160046 0.0148116
0.0163867 0.0158228 0.0206807
0.0174724 0.0185867 0.019321
0.0159393 0.0221943 0.0146304
0.0203176 0.0240709 0.0163578
0.0162449 0.0221675 0.0155819
0.0176041 0.0150767 0.0135249
0.0184413 0.0217615 0.0161432
0.0229783 0.0205059 0.0165441
0.0175423 0.0233519 0.0228213
0.0223384 0.0203395 0.0157583
0.0218924 0.0174793 0.016297
0.0199259 0.0233299 0.0144763
0.0187771 0.0207685 0.0164845
0.0218324 0.0162383 0.0220752
0.0208923 0.0185425 0.0159257
0.017442 0.0184938 0.0207372
0.0210262 0.0208862 0.0244486
0.0206719 0.019376 0.0164738
0.0160314 0.0192698 0.015947
0.019602 0.0149579 0.0149271
0.0196976 0.0194351 0.0245016
0.0189828 0.0202927 0.0230222
0.0197199 0.0228208 0.0153118
0.0221803 0.0170068 0.0154641
0.0235608 0.0189073 0.0181682
0.0187601 0.0212681 0.0199327
0.0165729 0.0142445 0.0136195
0.0213313 0.0181362 0.0249002
0.0186447 0.0177252 0.0165969
0.0168374 0.0196392 0.0185142
0.0214255 0.0211585 0.0154184
0.0231437 0.0176511 0.0203749
0.019886 0.0165115 0.0243661
0.0191873 0.0240542 0.0161996
0.019335 0.0231693 0.016811
0.0191807 0.0138601 0.0177427
0.0195235 0.0188662 0.0168126
0.0162047 0.0182577 0.0201287
0.0199181 0.0143562 0.0138677
0.0227985 0.021626 0.0216547
0.0208805 0.0222565 0.0248749

VERTICES 149 298
1 0
1 1
1 2
1 3
1 4
1 5
1 6
1 7
1 8
1 9
1 10
1 11
1 12
1 13
1 14
1 15
1 16
1 17
1 18
1 19
1 20
1 21
1 22
1 23
1 24
1 25
1 26
1 27
1 28
1 29
1 30
1 31
1 32
1 33
1 34
1 35
1 36
1 37
1 38
1 39
1 40
1 41
1 42
1 43
1 44
1 45
1 46
1 47
1 48
1 49
1 50
1 51
1 52
1 53
1 54
1 55
1 56
1 57
1 58
1 59
1 60
1 61
1 62
1 63
1 64
1 65
1 66
1 67
1 68
1 69
1 70
1 71
1 72
1 73
1 74
1 75
1 76
1 77
1 78
1 79
1 80
1 81
1 82
1 83
1 84
1 85
1 86
1 87
1 88
1 89
1 90
1 91
1 92
1 93
1 94
1 95
1 96
1 97
1 98
1 99
1 100
1 101
1 102
1 103
1 104
1 105
1 106
1 107
1 108
1 109
1 110
1 111
1 112
1 113
1 114
1 115
1 116
1 117
1 118
1 119
1 120
1 121
1 122
1 123
1 124
1 125
1 126
1 127
1 128
1 129
1 130
1 131
1 132
1 133
1 134
1 135
1 136
1 137
1 138
1 139
1 140
1 141
1 142
1 143
1 144
1 145
1 146
1 147
1 148

POINT_DATA 149
SCALARS id int 1
LOOKUP_TABLE default
1
2
3
4
5
6
7
8
9
10
11
12
13
14
15
16
17
18
19
20
21
22
23
24
25
26
27
28
29
30
31
32
33
34
35
36
37
38
39
40
41
42
43
44
45
46
47
48
49
50
51
52
53
54
55
56
57
58
59
60
61
62
63
64
65
66
67
68
69
70
71
72
73
74
75
76
77
78
79
80
81
82
83
84
85
86
87
88
89
90
91
92
93
94
95
96
97
98
99
100
101
102
103
104
105
106
108
109
110
111
112
113
114
115
116
117
118
119
120
121
122
123
124
125
126
127
128
129
130
131
132
133
134
135
136
137
138
139
140
141
142
143
144
145
146
147
148
149
150

SCALARS type int 1
LOOKUP_TABLE default
1
1
1
1
1
1
1
1
1
1
1
1
1
1
1
1
1
1
1
1
1
1
1
1
1
1
1
1
1
1
1
1
1
1
1
1
1
1
1
1
1
1
1
1
1
1
1
1
1
1
1
1
1
1
1
1
1
1
1
1
1
1
1
1
1
1
1
1
1
1
1
1
1
1
1
1
1
1
1
1
1
1
1
1
1
1
1
1
1
1
1
1
1
1
1
1
1
1
1
1
1
1
1
1
1
1
1
1
1
1
1
1
1
1
1
1
1
1
1
1
1
1
1
1
1
1
1
1
1
1
1
1
1
1
1
1
1
1
1
1
1
1
1
1
1
1
1
1
1

SCALARS radius float 1
LOOKUP_TABLE default
0.0005
0.0005
0.0005
0.0005
0.0005
0.0005
0.0005
0.0005
0.0005
0.0005
0.0005
0.0005
0.0005
0.0005
0.0005
0.0005
0.0005
0.0005
0.0005
0.0005
0.0005
0.0005
0.0005
0.0005
0.0005
0.0005
0.0005
0.0005
0.0005
0.0005
0.0005
0.0005
0.0005
0.0005
0.0005
0.0005
0.0005
0.0005
0.0005
0.0005
0.0005
0.0005
0.0005
0.0005
0.0005
0.0005
0.0005
0.0005
0.0005
0.0005
0.0005
0.0005
0.0005
0.0005
0.0005
0.0005
0.0005
0.0005
0.0005
0.0005
0.0005
0.0005
0.0005
0.0005
0.0005
0.0005
0.0005
0.0005
0.0005
0.0005
0.0005
0.0005
0.0005
0.0005
0.0005
0.0005
0.0005
0.0005
0.0005
0.0005
0.0005
0.0005
0.0005
0.0005
0.0005
0.0005
0.0005
0.0005
0.0005
0.0005
0.0005
0.0005
0.0005
0.0005
0.0005
0.0005
0.0005
0.0005
0.0005
0.0005
0.0005
0.0005
0.0005
0.0005
0.0005
0.0005
0.0005
0.0005
0.0005
0.0005
0.0005
0.0005
0.0005
0.0005
0.0005
0.0005
0.0005
0.0005
0.0005
0.0005
0.0005
0.0005
0.0005
0.0005
0.0005
0.0005
0.0005
0.0005
0.0005
0.0005
0.0005
0.0005
0.0005
0.0005
0.0005
0.0005
0.0005
0.0005
0.0005
0.0005
0.0005
0.0005
0.0005
0.0005
0.0005
0.0005
0.0005
0.0005
0.0005

SCALARS mass float 1
LOOKUP_TABLE default
1.46608e-07
1.46608e-07
1.46608e-07
1.46608e-07
1.46608e-07
1.46608e-07
1.46608e-07
1.46608e-07
1.46608e-07
1.46608e-07
1.46608e-07
1.46608e-07
1.46608e-07
1.46608e-07
1.46608e-07
1.46608e-07
1.46608e-07
1.46608e-07
1.46608e-07
1.46608e-07
1.46608e-07
1.46608e-07
1.46608e-07
1.46608e-07
1.46608e-07
1.46608e-07
1.46608e-07
1.46608e-07
1.46608e-07
1.46608e-07
1.46608e-07
1.46608e-07
1.46608e-07
1.46608e-07
1.46608e-07
1.46608e-07
1.46608e-07
1.46608e-07
1.46608e-07
1.46608e-07
1.46608e-07
1.46608e-07
1.46608e-07
1.46608e-07
1.46608e-07
1.46608e-07
1.46608e-07
1.46608e-07
1.46608e-07
1.46608e-07
1.46608e-07
1.46608e-07
1.46608e-07
1.46608e-07
1.46608e-07
1.46608e-07
1.46608e-07
1.46608e-07
1.46608e-07
1.46608e-07
1.46608e-07
1.46608e-07
1.46608e-07
1.46608e-07
1.46608e-07
1.46608e-07
1.46608e-07
1.46608e-07
1.46608e-07
1.46608e-07
1.46608e-07
1.46608e-07
1.46608e-07
1.46608e-07
1.46608e-07
1.46608e-07
1.46608e-07
1.46608e-07
1.46608e-07
1.46608e-07
1.46608e-07
1.46608e-07
1.46608e-07
1.46608e-07
1.46608e-07
1.46608e-07
1.46608e-07
1.46608e-07
1.46608e-07
1.46608e-07
1.46608e-07
1.46608e-07
1.46608e-07
1.46608e-07
1.46608e-07
1.46608e-07
1.46608e-07
1.46608e-07
1.46608e-07
1.46608e-07
1.46608e-07
1.46608e-07
1.46608e-07
1.46608e-07
1.46608e-07
1.46608e-07
1.46608e-07
1.46608e-07
1.46608e-07
1.46608e-07
1.46608e-07
1.46608e-07
1.46608e-07
1.46608e-07
1.46608e-07
1.46608e-07
1.46608e-07
1.46608e-07
1.46608e-07
1.46608e-07
1.46608e-07
1.46608e-07
1.46608e-07
1.46608e-07
1.46608e-07
1.46608e-07
1.46608e-07
1.46608e-07
1.46608e-07
1.46608e-07
1.46608e-07
1.46608e-07
1.46608e-07
1.46608e-07
1.46608e-07
1.46608e-07
1.46608e-07
1.46608e-07
1.46608e-07
1.46608e-07
1.46608e-07
1.46608e-07
1.46608e-07
1.46608e-07
1.46608e-07
1.46608e-07
1.46608e-07
1.46608e-07
1.46608e-07

VECTORS velocity float
-0.000643894 -0.00138009 0.00037802
-0.0011414 -0.00374482 0.00111764
0.0011625 -0.000684612 0.00181088
-0.00521525 0.0264433 -0.0160277
0.00275378 -0.000861224 0.0052926
0.000695524 -0.000761532 0.00162466
0.000706349 -0.000803117 0.00164733
-0.00175235 0.00829434 -0.00308048
-0.00251894 -0.000518931 0.00374103
-0.000344705 -0.0157484 -0.0163428
0.00080627 -0.00102125 -0.000191664
0.00155071 -1.89466e-06 0.000590073
0.000715376 -0.00113218 0.00186579
0.000181349 0.00529127 -0.0165754
-4.67103e-07 0.0203037 0.0111166
0.000798702 -0.000840336 0.00155322
-0.000846156 0.00112017 0.000797651
-0.000752073 1.23342e-05 0.000804751
-0.000169767 0.000977399 -0.00095194
0.000124181 0.000740212 0.000455259
0.00187365 -0.00824224 -0.0142525
0.000199667 -0.000846466 0.00129344
0.00021198 -0.000494272 -0.00038112
-3.77342e-07 0.0214887 0.00856067
-8.82604e-07 0.0191634 0.0130934
-0.00122606 0.00129466 -0.00104618
0.00213518 -0.00184526 -0.00926964
0.0015739 0.0163477 -0.00927506
0.00508206 0.000382374 -0.00450795
-0.000213607 -0.000650662 0.00106834
-0.0281788 0.0227464 -0.0450802
0.0010588 -0.000798589 -0.0110278
0.000831962 0.0139852 -0.0186569
0.000402704 -0.0209141 -0.00171679
-9.10519e-10 0.0202977 0.00326425
-0.00312257 0.00478224 0.00464801
0.00381974 0.0149944 -0.0144049
0.00509263 -0.00117935 0.00551657
-0.00419004 -0.000284976 0.000756449
0.000104015 -0.000821803 0.000367897
-0.0119975 0.00818558 -0.0113642
0.000318041 0.0206774 -0.00631593
0.00039952 0.00182279 -0.00082464
-0.00313385 -0.000717908 0.00142942
0.000221592 -0.000265056 0.000359032
-0.00559616 0.000595807 -0.00347113
0.0464467 0.0272764 -0.23123
-0.0006466 0.00540541 -0.0128126
0.0174675 0.0177955 -0.0236323
0.0038674 0.00662589 -0.0208938
0.00148337 -0.0047814 -9.07338e-05
-0.00132022 -3.49845e-05 0.000598205
0.0619838 -0.0733138 -0.152373
-0.000401521 -0.000916787 0.000609797
-0.0316296 -0.0568352 -0.0378654
0.00633633 0.0148593 -0.00639124
0.000154017 0.00134367 -0.000872746
0.00279414 -0.000523487 0.0107388
0.00576669 0.0110821 -0.013085
0.000727179 -0.0126639 -0.0157648
-0.000321013 -0.000215103 4.68142e-06
0.000644784 0.000194639 -0.000378846
0.00360714 0.000698451 -0.00121201
-0.000468234 0.000912803 -0.00199064
0.000115501 -0.000334056 0.00105222
-0.0178426 -0.00458254 0.00712777
0.0253167 0.00669153 -0.0251523
0.0163413 0.0375702 0.0028772
0.00392648 -0.00094128 0.00463646
0.000975994 -0.00114936 0.000579652
-0.00146088 -0.00154053 0.00013882
0.000554336 -0.001084 0.00187517
-0.00216307 0.00251105 -0.00157407
0.000405423 0.00117117 -0.0180273
0.107319 -0.0492823 -0.0264919
0.0 -0.0 -0.03
0.0 -0.0 -0.03
0.0 -0.0 -0.03
0.0166561 -0.0160361 -0.00739319
0.0 -0.0 -0.03
0.000176568 0.0205978 -0.00129581
0.0 -0.0 -0.03
0.0 -0.0 -0.03
0.00276579 0.00212931 -0.000311646
0.0 -0.0 -0.03
0.0242864 8.03155e-05 -0.0377419
0.00624022 -0.000148386 -0.000579872
0.0 -0.0 -0.03
0.0 -0.0 -0.03
0.000406211 0.0205245 -0.00576772
-0.0434828 0.00776557 0.00034231
0.00016118 0.0282419 -0.0234041
0.0 0.0 -0.179578
0.023886 -0.0140781 -0.00304776
-6.1048e-05 0.0223754 -0.0103847
0.0 -0.0 -0.03
0.0 -0.0 -0.03
-0.0245342 0.00668371 -0.0252771
0.0 -0.0 -0.03
0.0 -0.0 -0.03
0.00720565 0.0196001 -0.00788431
0.0 -0.0 -0.03
-0.0101905 -0.00389468 -0.0120536
0.00368522 0.00224542 0.00361143
0.000738773 -0.00125976 4.27143e-05
-0.00252615 -0.000144843 -0.000210649
0.00893843 0.00360001 -0.00357136
0.0118592 -0.0429894 0.00657607
0.0 -0.0 -0.03
0.0 -0.0 -0.03
0.00244654 0.000762665 -0.00131372
0.0231835 -0.0137237 -0.00179541
0.00747561 0.00768366 -0.00162401
0.00597289 -0.00137734 -0.000162549
-0.00042088 -0.0230423 -0.00987442
-9.15015e-08 0.0237959 -0.00665119
0.0 -0.0 -0.03
-2.30819e-10 0.0197084 -0.00579703
-0.00743253 0.0359507 -0.000636852
-0.00361531 -0.00144744 0.00160914
0.0185927 -0.00916191 0.000914919
0.0 -0.0 -0.03
0.000487133 0.02083 0.00255397
0.0 -0.0 -0.03
0.0 -0.0 -0.03
0.00018731 0.0250489 -0.00165007
2.45179e-06 0.0205128 -0.00115663
-0.0146846 -0.067818 -0.0591908
0.0 -0.0 -0.03
0.0 -0.0 -0.03
-0.00498097 0.00587686 0.00495467
-7.97277e-07 0.0206204 0.0106278
0.0 0.0 -0.0779366
0.0 -0.0 -0.03
0.000842824 -0.00158098 0.0017152
0.0 -0.0 -0.03
8.62937e-10 0.0239729 0.00630913
0.0 -0.0 -0.03
0.011001 0.00103541 0.00136005
0.0 -0.0 -0.03
0.0 -0.0 -0.03
0.000850976 -0.00183135 -0.00199544
0.010362 -0.0216594 -0.0309549
0.017297 0.0574834 -0.17263
-0.000574366 0.0186518 -0.0472961
0.0 -0.0 -0.03
-0.000988411 0.000521621 -0.00179227
0.0 -0.0 -0.03
0.0 -0.0 -0.03

VECTORS force float
-7.31549e-06 3.3766e-06 -4.34939e-06
0.0 0.0 -1.43822e-06
-7.4594e-07 4.88622e-07 -1.47107e-06
5.45438e-07 8.21137e-07 -5.29513e-07
8.11049e-08 5.79339e-08 -3.40322e-08
-2.13457e-08 -2.04502e-09 1.8404e-07
-9.04899e-08 -4.75735e-08 4.14968e-08
3.95056e-07 3.52194e-06 -2.35534e-06
1.45042e-06 6.28569e-07 1.4355e-06
-5.59763e-12 -7.18346e-09 6.84464e-09
1.13281e-06 -3.64981e-07 4.05448e-07
1.29638e-06 4.32167e-07 1.25064e-06
-1.78059e-06 -1.56952e-06 9.00881e-07
-2.39605e-07 4.64772e-07 -8.23757e-07
-6.35977e-12 8.49546e-09 -1.54519e-08
-6.06911e-08 -8.4101e-08 9.90989e-08
-4.70398e-08 -1.58759e-08 -1.52746e-09
5.50896e-07 -8.99126e-07 1.14783e-06
9.97234e-08 -2.50051e-08 -1.64001e-07
-1.2397e-08 -1.25597e-08 -1.04461e-09
-4.7781e-09 -1.65336e-08 -7.13959e-09
-1.04398e-06 3.38697e-07 -5.8848e-07
-4.16442e-07 -4.94066e-08 1.58051e-06
4.70207e-12 6.60049e-09 -1.63459e-08
-2.71917e-11 9.94468e-09 -1.43921e-08
-4.01169e-06 2.1174e-06 -4.80616e-06
-5.94031e-08 1.77961e-07 3.66366e-07
-2.85832e-07 7.80672e-07 -3.96883e-07
5.73795e-07 9.05685e-07 8.08533e-07
-2.32844e-06 1.95648e-07 1.17824e-06
-5.29501e-07 1.45452e-06 1.29008e-06
4.25039e-09 2.63209e-08 1.59131e-07
0.0 0.0 -1.43822e-06
-1.58279e-09 -7.6146e-09 1.0081e-08
-3.146e-15 2.05253e-09 -1.35339e-08
6.14206e-06 -7.55355e-06 -7.12326e-07
0.0 0.0 -1.43822e-06
2.73179e-07 -7.58713e-08 3.54115e-06
1.46167e-07 1.27102e-06 -1.16249e-06
-6.95809e-07 -1.5177e-08 -2.66914e-07
4.01169e-06 -2.1174e-06 1.92972e-06
-1.20479e-08 2.2748e-08 -2.38026e-08
-8.84957e-09 -3.98233e-08 4.09126e-08
-2.52694e-07 -1.21597e-06 -1.37497e-06
-8.32212e-07 -6.34803e-07 4.12314e-07
3.96696e-09 -5.10895e-08 1.6311e-07
0.0 0.0 -1.43822e-06
7.06206e-07 -9.1063e-08 2.13985e-07
-4.20295e-07 -6.24184e-07 -1.70169e-06
2.70716e-06 7.29579e-07 -2.76011e-06
-3.18663e-08 -5.29536e-06 8.57977e-06
1.02576e-06 -1.99001e-07 1.61728e-06
0.0 0.0 -1.43822e-06
-3.95347e-07 -9.69159e-08 -1.79763e-07
3.89347e-07 -1.31295e-07 -9.15364e-07
-3.79607e-07 7.86277e-07 -3.56869e-07
-2.27532e-06 -2.45547e-07 -1.48846e-06
-4.48128e-07 1.63562e-07 8.49314e-07
2.2173e-05 -1.28239e-05 1.76635e-05
-9.15175e-09 -5.34087e-08 -2.95253e-08
-1.33363e-07 -3.2073e-07 -1.10409e-06
-4.23194e-07 -2.03847e-06 1.60767e-06
1.9692e-06 -3.08517e-06 6.83884e-06
-2.59e-07 1.13365e-07 1.36373e-07
5.92511e-09 -5.39161e-09 3.99028e-08
0.0 0.0 -1.43822e-06
0.0 0.0 -1.43822e-06
0.0 0.0 -1.43822e-06
-4.81262e-07 3.39055e-07 5.03639e-06
1.1712e-08 1.4804e-10 -1.42247e-06
4.22915e-08 9.79157e-07 -9.54444e-07
-2.98451e-07 1.28603e-07 6.41289e-07
-3.48445e-07 3.96759e-07 -2.87226e-07
3.81182e-07 -2.34967e-07 -2.52075e-08
0.0 0.0 -1.43822e-06
0.0 0.0 0.0
0.0 0.0 0.0
0.0 0.0 0.0
0.0 0.0 -1.43822e-06
0.0 0.0 0.0
-8.47768e-08 -4.45259e-09 -7.76524e-09
0.0 0.0 0.0
0.0 0.0 0.0
1.57107e-07 1.1765e-07 -2.90295e-07
0.0 0.0 0.0
0.0 0.0 -1.43822e-06
4.03024e-07 -7.71157e-08 3.53854e-07
0.0 0.0 0.0
0.0 0.0 0.0
-3.06767e-10 -2.73975e-09 -1.4506e-08
0.0 0.0 -1.43822e-06
0.0 0.0 -1.43822e-06
0.0 0.0 -1.43822e-06
0.0 0.0 -1.43822e-06
-3.75446e-07 -1.5606e-07 1.15849e-08
0.0 0.0 0.0
0.0 0.0 0.0
0.0 0.0 -1.43822e-06
0.0 0.0 0.0
0.0 0.0 0.0
-5.209e-07 6.39081e-07 -3.99166e-07
0.0 0.0 0.0
-9.38319e-07 6.20693e-09 7.18998e-07
1.37989e-08 2.20989e-07 1.11821e-06
1.16851e-06 -1.08334e-06 1.37806e-06
-5.54244e-06 -8.34536e-06 5.65e-06
-4.87486e-06 5.32619e-06 -4.15099e-06
0.0 0.0 -1.43822e-06
0.0 0.0 0.0
0.0 0.0 0.0
1.91551e-06 -1.51956e-06 2.20652e-06
0.0 0.0 -1.43822e-06
6.54605e-06 -7.67472e-06 9.27145e-06
-8.73479e-08 1.47889e-07 -1.8197e-07
0.0 0.0 -1.43822e-06
-3.18216e-09 -5.33987e-08 2.11564e-09
0.0 0.0 0.0
-1.19181e-14 -3.73191e-09 -1.31589e-08
-1.03058e-07 1.57213e-07 -2.092e-07
4.2536e-06 -6.7041e-06 -2.89235e-06
-5.94855e-07 1.16821e-06 -2.88556e-07
0.0 0.0 0.0
-1.74137e-10 2.66008e-09 -1.41735e-08
0.0 0.0 0.0
0.0 0.0 0.0
-4.74572e-08 9.06976e-09 1.33595e-08
2.88305e-10 1.56798e-08 -5.58482e-07
0.0 0.0 -1.43822e-06
0.0 0.0 0.0
0.0 0.0 0.0
-3.109e-07 -6.86605e-07 -6.21969e-07
-1.59215e-11 8.13669e-09 -1.56102e-08
0.0 0.0 -1.43822e-06
0.0 0.0 0.0
2.7128e-07 -3.61403e-07 4.08164e-07
0.0 0.0 0.0
6.03555e-12 4.36546e-09 -1.63362e-08
0.0 0.0 0.0
-4.01311e-09 2.29781e-08 -1.42773e-06
0.0 0.0 0.0
0.0 0.0 0.0
-1.20172e-07 9.20143e-07 -1.50117e-06
0.0 0.0 -1.43822e-06
0.0 0.0 -1.43822e-06
0.0 0.0 -1.43822e-06
0.0 0.0 0.0
7.57282e-07 1.34255e-06 4.18036e-07
0.0 0.0 0.0
0.0 0.0 0.0
