# vtk DataFile Version 3.0
LIGGGHTS particles timestep 3600000
ASCII
DATASET POLYDATA
POINTS 233 float
0.0209204 0.0227183 0.0153074
0.0182654 0.0240851 0.0126826
0.0201549 0.0183078 0.00727875
0.0185447 0.0222304 0.0157351
0.0236349 0.0244316 0.0211676
0.022877 0.0231001 0.0131149
0.0211556 0.0240058 0.0131506
0.0187997 0.0233286 0.0144809
0.0199703 0.0240267 0.0159498
0.0235513 0.0220043 0.0148147
0.020631 0.0239572 0.0146456
0.0189942 0.0242614 0.0131034
0.0214524 0.0234877 0.0146992
0.0206291 0.0139099 0.0175481
0.0219803 0.0237219 0.0135065
0.0242405 0.0148054 0.0108499
0.0196203 0.0245035 0.0136147
0.0402891 0.0167947 0.00659266
0.0257839 0.018683 0.0167387
0.0168723 0.0229391 0.013591
0.0173445 0.0240448 0.0129311
0.0188746 0.0146462 0.0126466
0.020487 0.0220073 0.0158704
0.0214268 0.0230984 0.0131859
0.0185761 0.0232249 0.0156362
0.0198317 0.0198051 0.0167072
0.0159833 0.023506 0.0140573
0.0220014 0.0219226 0.0149022
0.0153625 0.0154478 0.015328
0.023637 0.0151731 0.0134137
0.0251083 0.0155691 0.00893153
0.0296393 0.0184913 0.00583954
0.0205078 0.0243794 0.0137674
0.0238473 0.0148445 0.0125067
0.0201214 0.0146208 0.0145767
0.0178849 0.0153931 0.0155109
0.0227369 0.0235353 0.0152327
0.0180215 0.0237971 0.0133971
0.0209871 0.0150094 0.0148839
0.0232684 0.0227133 0.0138861
0.0229274 0.0234536 0.014275
0.0230929 0.0157556 0.0168196
0.0249106 0.0161251 0.0083681
0.0213177 0.0234192 0.0123792
0.0208207 0.0237277 0.0117846
0.0271716 0.0233695 0.0116967
0.0182712 0.024473 0.0137956
0.0158604 0.0236791 0.0150349
0.0188942 0.019813 0.017059
0.0173225 0.0243892 0.0139296
0.0203884 0.0221704 0.00857198
0.0192766 0.0185074 0.0167324
0.0162628 0.0236531 0.0170277
0.0213727 0.0242758 0.0140538
0.0221865 0.024012 0.0144312
0.0128619 0.0179331 0.0192717
0.0235044 0.0154266 0.0153656
0.014239 0.015958 0.0157413
0.0241071 0.0197864 0.0158799
0.0182233 0.0205445 0.0160086
0.0206241 0.0204021 0.0165772
0.014492 0.0199301 0.0166764
0.0246568 0.022283 0.0162568
0.0247022 0.0160511 0.0157966
0.0202291 0.0224336 0.0167574
0.0178146 0.0226499 0.0151967
0.0279623 0.0217629 0.0147969
0.01689 0.0232113 0.014968
0.0210864 0.0226795 0.0163049
0.0167435 0.0238253 0.0135362
0.0227782 0.0162295 0.0159971
0.0229039 0.0189689 0.0159417
0.0150116 0.0232222 0.014748
0.0168057 0.0202381 0.0167092
0.0224141 0.0227865 0.0138961
0.0242968 0.00961547 0.0303321
0.0176403 0.0190693 0.0159419
0.0196321 0.0190714 0.00719192
0.0186073 0.0140064 0.0143696
0.0276429 0.0226448 0.0137612
0.016843 0.0224726 0.0157026
0.0190592 0.0242026 0.0143179
0.0201747 0.0167929 0.016241
0.0131845 0.0212935 0.0162713
0.017624 0.0225989 0.0141138
0.016618 0.0240448 0.0144874
0.0163268 0.0151688 0.0167879
0.0261414 0.0213164 0.00790277
0.0193359 0.017979 0.00729713
0.0220978 0.0232515 0.012799
0.0207358 0.0144823 0.0167114
0.0206136 0.0141388 0.0133099
0.0211042 0.0233356 0.0113107
0.015953 0.0226996 0.0152191
0.01767 0.0236003 0.0154451
0.0159037 0.0184538 0.0167607
0.0248932 0.0176005 0.015714
0.0150134 0.0207829 0.0164811
0.0166197 0.019402 0.0159983
0.0208619 0.023617 0.015741
0.0139297 0.00465099 0.04135
0.0226572 0.022377 0.00903735
0.026625 0.0228387 0.00937635
0.0174673 0.0234932 0.0141708
0.0158277 0.0129152 0.0257675
0.0238923 0.0175889 0.015708
0.0188533 0.0151947 0.0153283
0.0219345 0.0228565 0.0153192
0.0176728 0.0229064 0.0161709
0.0193714 0.023696 0.0152142
0.0216974 0.0234696 0.0163577
0.0174519 0.0209958 0.0164574
0.0128203 0.0186132 0.016587
0.0193277 0.0158107 0.00862669
0.0264641 0.0223421 0.00872716
0.0176244 0.0218877 0.0160177
0.0218453 0.0158841 0.0160985
0.0250303 0.0215941 0.0159775
0.025426 0.018352 0.0192364
0.0180058 0.014683 0.0122121
0.0229177 0.0179156 0.0157983
0.0246217 0.014787 0.0120551
0.0249869 0.0179468 0.0166473
0.0180885 0.0125987 0.0198219
0.0202129 0.0215659 0.00803704
0.0171311 0.020997 0.0155043
0.0201619 0.0154381 0.0152921
0.0246437 0.0192556 0.0165358
0.021612 0.0202707 0.0166569
0.0231454 0.0169732 0.0154386
0.0181136 0.0239987 0.014634
0.0172446 0.016583 0.0152334
0.0211009 0.018151 0.016686
0.0136512 0.0204603 0.0165679
0.0148057 0.0220761 0.0161468
0.0151258 0.0148027 0.0145904
0.0206999 0.0241363 0.0123301
0.0155179 0.0229918 0.0134172
0.0170227 0.0174647 0.0156671
0.0184488 0.0151178 0.00978528
0.0156348 0.0215127 0.0161946
0.0223738 0.0145117 0.0141672
0.0194932 0.0219173 0.0159368
0.0196501 0.0145958 0.0154622
0.0175093 0.0174346 0.0165475
0.0243385 0.0185226 0.0159279
0.0173737 0.0200435 0.0158402
0.0165671 0.0209929 0.0173443
0.0187042 0.0213877 0.0162485
0.0241094 0.0225062 0.0154902
0.0255537 0.0187674 0.00721545
0.0209108 0.0161753 0.0158919
0.0150836 0.0229266 0.0157002
0.0268631 0.0232576 0.0104275
0.0188166 0.0151039 0.013577
0.0218492 0.0153496 0.0152526
0.0161314 0.0216186 0.0151526
0.0189082 0.0162188 0.00825164
0.0198888 0.0236467 0.014047
0.0304879 0.0169274 0.00646272
0.0201196 0.0231252 0.0148683
0.0168127 0.0184127 0.0159688
0.0226889 0.0166527 0.0170038
0.0260561 0.0204597 0.00745592
0.0186786 0.0186382 0.0159377
0.0161105 0.0146294 0.0144126
0.0235169 0.015532 0.0143422
0.022798 0.0222035 0.0154413
0.0183553 0.0207591 0.0169798
0.0185378 0.0141319 0.0134053
0.0184697 0.0195886 0.0161664
0.0251777 0.0216498 0.0167669
0.018892 0.0240098 0.0161698
0.0158531 0.0223678 0.016683
0.0217412 0.0226985 0.0143279
0.0142256 0.0227972 0.0151963
0.0192275 0.0152795 0.00943286
0.022671 0.0148498 0.0155021
0.0165995 0.0142108 0.0136444
0.0132845 0.0195454 0.0167365
0.0201205 0.0229568 0.0158577
0.0244396 0.01506 0.00982425
0.0200851 0.0211953 0.0162945
0.0176273 0.0143602 0.0149479
0.0201558 0.0208729 0.00762906
0.0126406 0.0204553 0.0165185
0.0158056 0.0201967 0.0166703
0.0194357 0.021617 0.0169287
0.01858 0.0166837 0.015275
0.00656869 0.0158376 0.0379586
0.0217327 0.023373 0.0108987
0.017659 0.0196933 0.0167447
0.0163903 0.0203888 0.0157843
0.0180724 0.0213067 0.0153325
0.0176693 0.0376552 0.0435188
0.0157923 0.0225646 0.0142234
0.0237271 0.021082 0.0154703
0.023485 0.0136487 0.0212753
0.017609 0.0158464 0.01461
0.0224627 0.0150635 0.0164574
0.0193395 0.0226741 0.0153016
0.0204656 0.0192831 0.00717882
0.0141858 0.0212993 0.0162599
0.022017 0.0171235 0.0164322
0.0143236 0.0152078 0.015074
0.0188664 0.0237231 0.0135893
0.021933 0.0146479 0.0172031
0.0241418 0.0163296 0.0150166
0.0212189 0.0214145 0.0162137
0.0192911 0.0206256 0.0165209
0.0194139 0.0143796 0.0139165
0.0197793 0.0146064 0.0130156
0.0209424 0.0150643 0.0158911
0.0199957 0.0153792 0.0163038
0.0253516 0.0200771 0.0166467
0.0146684 0.0217034 0.0170653
0.013811 0.0211844 0.0172386
0.0190978 0.0169732 0.00771261
0.0137709 0.0221155 0.0157688
0.0179447 0.0179706 0.0158121
0.0169026 0.0237072 0.0160904
0.0234705 0.0169379 0.0163835
0.0184075 0.017958 0.0166994
0.0166388 0.0215218 0.0162063
0.0123362 0.0194733 0.0164268
0.0172953 0.0218314 0.0149806
0.0215309 0.0142759 0.0136836
0.0186497 0.0159044 0.014636
0.0177571 0.0149001 0.0141372
0.0234899 0.0229847 0.0149227
0.0162106 0.0232861 0.0130295
0.0167226 0.0224109 0.014403
0.0179313 0.0148829 0.0131706

VERTICES 233 466
1 0
1 1
1 2
1 3
1 4
1 5
1 6
1 7
1 8
1 9
1 10
1 11
1 12
1 13
1 14
1 15
1 16
1 17
1 18
1 19
1 20
1 21
1 22
1 23
1 24
1 25
1 26
1 27
1 28
1 29
1 30
1 31
1 32
1 33
1 34
1 35
1 36
1 37
1 38
1 39
1 40
1 41
1 42
1 43
1 44
1 45
1 46
1 47
1 48
1 49
1 50
1 51
1 52
1 53
1 54
1 55
1 56
1 57
1 58
1 59
1 60
1 61
1 62
1 63
1 64
1 65
1 66
1 67
1 68
1 69
1 70
1 71
1 72
1 73
1 74
1 75
1 76
1 77
1 78
1 79
1 80
1 81
1 82
1 83
1 84
1 85
1 86
1 87
1 88
1 89
1 90
1 91
1 92
1 93
1 94
1 95
1 96
1 97
1 98
1 99
1 100
1 101
1 102
1 103
1 104
1 105
1 106
1 107
1 108
1 109
1 110
1 111
1 112
1 113
1 114
1 115
1 116
1 117
1 118
1 119
1 120
1 121
1 122
1 123
1 124
1 125
1 126
1 127
1 128
1 129
1 130
1 131
1 132
1 133
1 134
1 135
1 136
1 137
1 138
1 139
1 140
1 141
1 142
1 143
1 144
1 145
1 146
1 147
1 148
1 149
1 150
1 151
1 152
1 153
1 154
1 155
1 156
1 157
1 158
1 159
1 160
1 161
1 162
1 163
1 164
1 165
1 166
1 167
1 168
1 169
1 170
1 171
1 172
1 173
1 174
1 175
1 176
1 177
1 178
1 179
1 180
1 181
1 182
1 183
1 184
1 185
1 186
1 187
1 188
1 189
1 190
1 191
1 192
1 193
1 194
1 195
1 196
1 197
1 198
1 199
1 200
1 201
1 202
1 203
1 204
1 205
1 206
1 207
1 208
1 209
1 210
1 211
1 212
1 213
1 214
1 215
1 216
1 217
1 218
1 219
1 220
1 221
1 222
1 223
1 224
1 225
1 226
1 227
1 228
1 229
1 230
1 231
1 232

POINT_DATA 233
SCALARS id int 1
LOOKUP_TABLE default
1
2
4
6
7
8
9
10
11
12
13
14
15
16
17
18
19
20
21
22
23
24
25
26
27
28
29
30
31
32
33
35
36
37
38
39
40
41
43
45
47
48
50
51
52
53
54
55
56
57
58
59
61
62
63
64
65
66
68
69
71
72
73
75
76
78
79
80
84
85
86
87
88
89
90
91
92
93
95
97
98
101
102
103
104
105
106
108
109
110
111
112
114
115
116
117
118
119
120
121
123
124
125
126
127
128
129
131
132
133
135
136
138
139
140
141
142
143
144
145
147
148
149
150
151
152
153
154
155
156
157
158
161
162
163
166
167
168
169
170
171
172
173
176
179
180
182
183
184
185
187
188
189
190
192
193
195
196
197
200
201
202
203
204
205
206
209
211
215
216
217
218
219
220
221
222
223
224
225
226
229
231
232
233
234
235
236
237
240
241
242
243
244
245
246
247
248
251
253
256
257
258
259
260
261
263
264
265
268
269
272
273
274
275
276
277
278
279
280
281
282
284
285
286
287
289
290
292
294
295
296
297
300

SCALARS type int 1
LOOKUP_TABLE default
1
1
1
1
1
1
1
1
1
1
1
1
1
1
1
1
1
1
1
1
1
1
1
1
1
1
1
1
1
1
1
1
1
1
1
1
1
1
1
1
1
1
1
1
1
1
1
1
1
1
1
1
1
1
1
1
1
1
1
1
1
1
1
1
1
1
1
1
1
1
1
1
1
1
1
1
1
1
1
1
1
1
1
1
1
1
1
1
1
1
1
1
1
1
1
1
1
1
1
1
1
1
1
1
1
1
1
1
1
1
1
1
1
1
1
1
1
1
1
1
1
1
1
1
1
1
1
1
1
1
1
1
1
1
1
1
1
1
1
1
1
1
1
1
1
1
1
1
1
1
1
1
1
1
1
1
1
1
1
1
1
1
1
1
1
1
1
1
1
1
1
1
1
1
1
1
1
1
1
1
1
1
1
1
1
1
1
1
1
1
1
1
1
1
1
1
1
1
1
1
1
1
1
1
1
1
1
1
1
1
1
1
1
1
1
1
1
1
1
1
1
1
1
1
1
1
1
1
1
1
1
1
1

SCALARS radius float 1
LOOKUP_TABLE default
0.0005
0.0005
0.0005
0.0005
0.0005
0.0005
0.0005
0.0005
0.0005
0.0005
0.0005
0.0005
0.0005
0.0005
0.0005
0.0005
0.0005
0.0005
0.0005
0.0005
0.0005
0.0005
0.0005
0.0005
0.0005
0.0005
0.0005
0.0005
0.0005
0.0005
0.0005
0.0005
0.0005
0.0005
0.0005
0.0005
0.0005
0.0005
0.0005
0.0005
0.0005
0.0005
0.0005
0.0005
0.0005
0.0005
0.0005
0.0005
0.0005
0.0005
0.0005
0.0005
0.0005
0.0005
0.0005
0.0005
0.0005
0.0005
0.0005
0.0005
0.0005
0.0005
0.0005
0.0005
0.0005
0.0005
0.0005
0.0005
0.0005
0.0005
0.0005
0.0005
0.0005
0.0005
0.0005
0.0005
0.0005
0.0005
0.0005
0.0005
0.0005
0.0005
0.0005
0.0005
0.0005
0.0005
0.0005
0.0005
0.0005
0.0005
0.0005
0.0005
0.0005
0.0005
0.0005
0.0005
0.0005
0.0005
0.0005
0.0005
0.0005
0.0005
0.0005
0.0005
0.0005
0.0005
0.0005
0.0005
0.0005
0.0005
0.0005
0.0005
0.0005
0.0005
0.0005
0.0005
0.0005
0.0005
0.0005
0.0005
0.0005
0.0005
0.0005
0.0005
0.0005
0.0005
0.0005
0.0005
0.0005
0.0005
0.0005
0.0005
0.0005
0.0005
0.0005
0.0005
0.0005
0.0005
0.0005
0.0005
0.0005
0.0005
0.0005
0.0005
0.0005
0.0005
0.0005
0.0005
0.0005
0.0005
0.0005
0.0005
0.0005
0.0005
0.0005
0.0005
0.0005
0.0005
0.0005
0.0005
0.0005
0.0005
0.0005
0.0005
0.0005
0.0005
0.0005
0.0005
0.0005
0.0005
0.0005
0.0005
0.0005
0.0005
0.0005
0.0005
0.0005
0.0005
0.0005
0.0005
0.0005
0.0005
0.0005
0.0005
0.0005
0.0005
0.0005
0.0005
0.0005
0.0005
0.0005
0.0005
0.0005
0.0005
0.0005
0.0005
0.0005
0.0005
0.0005
0.0005
0.0005
0.0005
0.0005
0.0005
0.0005
0.0005
0.0005
0.0005
0.0005
0.0005
0.0005
0.0005
0.0005
0.0005
0.0005
0.0005
0.0005
0.0005
0.0005
0.0005
0.0005
0.0005
0.0005
0.0005
0.0005
0.0005
0.0005
0.0005
0.0005
0.0005
0.0005
0.0005
0.0005

SCALARS mass float 1
LOOKUP_TABLE default
1.46608e-07
1.46608e-07
1.46608e-07
1.46608e-07
1.46608e-07
1.46608e-07
1.46608e-07
1.46608e-07
1.46608e-07
1.46608e-07
1.46608e-07
1.46608e-07
1.46608e-07
1.46608e-07
1.46608e-07
1.46608e-07
1.46608e-07
1.46608e-07
1.46608e-07
1.46608e-07
1.46608e-07
1.46608e-07
1.46608e-07
1.46608e-07
1.46608e-07
1.46608e-07
1.46608e-07
1.46608e-07
1.46608e-07
1.46608e-07
1.46608e-07
1.46608e-07
1.46608e-07
1.46608e-07
1.46608e-07
1.46608e-07
1.46608e-07
1.46608e-07
1.46608e-07
1.46608e-07
1.46608e-07
1.46608e-07
1.46608e-07
1.46608e-07
1.46608e-07
1.46608e-07
1.46608e-07
1.46608e-07
1.46608e-07
1.46608e-07
1.46608e-07
1.46608e-07
1.46608e-07
1.46608e-07
1.46608e-07
1.46608e-07
1.46608e-07
1.46608e-07
1.46608e-07
1.46608e-07
1.46608e-07
1.46608e-07
1.46608e-07
1.46608e-07
1.46608e-07
1.46608e-07
1.46608e-07
1.46608e-07
1.46608e-07
1.46608e-07
1.46608e-07
1.46608e-07
1.46608e-07
1.46608e-07
1.46608e-07
1.46608e-07
1.46608e-07
1.46608e-07
1.46608e-07
1.46608e-07
1.46608e-07
1.46608e-07
1.46608e-07
1.46608e-07
1.46608e-07
1.46608e-07
1.46608e-07
1.46608e-07
1.46608e-07
1.46608e-07
1.46608e-07
1.46608e-07
1.46608e-07
1.46608e-07
1.46608e-07
1.46608e-07
1.46608e-07
1.46608e-07
1.46608e-07
1.46608e-07
1.46608e-07
1.46608e-07
1.46608e-07
1.46608e-07
1.46608e-07
1.46608e-07
1.46608e-07
1.46608e-07
1.46608e-07
1.46608e-07
1.46608e-07
1.46608e-07
1.46608e-07
1.46608e-07
1.46608e-07
1.46608e-07
1.46608e-07
1.46608e-07
1.46608e-07
1.46608e-07
1.46608e-07
1.46608e-07
1.46608e-07
1.46608e-07
1.46608e-07
1.46608e-07
1.46608e-07
1.46608e-07
1.46608e-07
1.46608e-07
1.46608e-07
1.46608e-07
1.46608e-07
1.46608e-07
1.46608e-07
1.46608e-07
1.46608e-07
1.46608e-07
1.46608e-07
1.46608e-07
1.46608e-07
1.46608e-07
1.46608e-07
1.46608e-07
1.46608e-07
1.46608e-07
1.46608e-07
1.46608e-07
1.46608e-07
1.46608e-07
1.46608e-07
1.46608e-07
1.46608e-07
1.46608e-07
1.46608e-07
1.46608e-07
1.46608e-07
1.46608e-07
1.46608e-07
1.46608e-07
1.46608e-07
1.46608e-07
1.46608e-07
1.46608e-07
1.46608e-07
1.46608e-07
1.46608e-07
1.46608e-07
1.46608e-07
1.46608e-07
1.46608e-07
1.46608e-07
1.46608e-07
1.46608e-07
1.46608e-07
1.46608e-07
1.46608e-07
1.46608e-07
1.46608e-07
1.46608e-07
1.46608e-07
1.46608e-07
1.46608e-07
1.46608e-07
1.46608e-07
1.46608e-07
1.46608e-07
1.46608e-07
1.46608e-07
1.46608e-07
1.46608e-07
1.46608e-07
1.46608e-07
1.46608e-07
1.46608e-07
1.46608e-07
1.46608e-07
1.46608e-07
1.46608e-07
1.46608e-07
1.46608e-07
1.46608e-07
1.46608e-07
1.46608e-07
1.46608e-07
1.46608e-07
1.46608e-07
1.46608e-07
1.46608e-07
1.46608e-07
1.46608e-07
1.46608e-07
1.46608e-07
1.46608e-07
1.46608e-07
1.46608e-07
1.46608e-07
1.46608e-07
1.46608e-07
1.46608e-07
1.46608e-07
1.46608e-07
1.46608e-07
1.46608e-07
1.46608e-07
1.46608e-07
1.46608e-07
1.46608e-07
1.46608e-07
1.46608e-07
1.46608e-07
1.46608e-07
1.46608e-07

VECTORS velocity float
0.00708884 0.000711979 -0.0020832
-9.88744e-05 0.00155068 -0.00285049
0.00026679 -0.0198004 0.00355096
-0.00135184 -0.00478525 0.00236909
-0.0279158 -0.0304154 -0.135104
0.0036893 0.00129137 -0.00426904
0.000775125 0.00104018 -0.00231879
0.000581464 0.000774757 -0.00490266
0.000930768 -0.000854572 -0.00156945
0.000483665 -0.000320831 0.000886324
-0.00265053 0.00101918 -0.0010453
-0.0001097 0.000672398 -0.00104066
-0.00531481 0.000261773 -0.00266434
-0.0325257 0.00419967 -0.0231486
-0.000148179 -0.000281538 -0.00124202
0.00010688 -0.00365092 0.0212873
-7.14003e-05 0.000232569 -0.00041768
9.22317e-16 -8.58279e-15 -2.18525e-14
-2.97261e-09 0.0246458 0.00198669
0.000292099 0.000940514 0.00146203
4.03991e-05 0.000485175 -0.000620519
0.00113441 0.00636608 0.0178814
-0.0067665 0.00649861 -0.00316086
0.000553147 0.00482089 -0.0139426
0.0069691 -0.00359995 0.0115112
0.0085542 -0.000381612 0.00161898
0.00177179 0.00223617 -0.00236416
2.56876e-05 0.0123744 -0.0114287
0.00318985 -0.00160213 -0.00329991
0.00212863 0.00307028 0.00746253
0.000598594 -0.0120481 0.0171207
2.5161e-14 -2.31947e-16 2.95161e-13
-3.99411e-05 0.000573057 -0.000994585
0.00156479 0.00351519 0.0136202
-0.010924 0.0252441 0.0314875
0.0426399 0.0696722 0.170065
-0.000232613 -0.000231124 -0.000382969
2.64913e-05 0.000671764 -0.00282282
-0.0144905 0.0370647 0.0371827
-0.000232778 0.00119109 -0.00351084
-0.000734185 0.000235629 0.000235699
-0.000492399 -8.59033e-06 -0.000945809
-2.50515e-05 -0.0164891 0.0143431
0.00278205 0.00188753 -0.00530875
0.0029919 -0.00455893 -0.00224249
0.000251869 0.00126564 -0.0213419
3.40135e-05 0.0002388 -0.000830768
0.00406677 0.00180156 0.000127471
0.0238481 -0.0012713 0.00429895
0.000232408 0.000272508 -9.61914e-05
0.000176656 -0.0134991 -0.0140652
0.0128316 0.00664271 -0.0039605
0.0223825 0.0270359 0.00309256
-0.000143555 1.46587e-05 -0.000453384
-0.000914364 0.000151277 0.00125523
0.0712317 0.0496751 -0.215484
0.0259485 0.015846 0.0522044
-0.000481861 0.002457 0.00254229
-0.000752397 0.0212819 -0.00355925
0.00872747 -0.00748544 -0.00464206
0.00642781 0.00659729 -0.00107313
0.0122069 0.0101779 -0.000681535
-0.000720218 0.00177643 0.000414624
0.00122409 -0.000491991 0.00411086
-0.00646048 -0.000303263 -0.00190478
-0.000678471 -0.00471151 0.00840021
0.000573165 0.014306 -0.0127663
0.00577477 0.000373946 0.00426376
-0.00426728 0.00328648 -0.00387144
0.00102502 0.00119691 0.000293275
0.00167915 0.0123235 0.00525944
5.3838e-10 0.0205018 0.000365156
0.00165474 0.00197961 -0.00214918
0.00869167 -0.0235155 0.0273448
0.00086534 0.00653755 -0.0121307
-0.0398657 -0.00610234 -0.029356
-0.0012459 0.0187521 -0.000125904
0.00112809 -0.0168329 -0.00125497
-0.000263919 0.00551245 0.0129283
-8.38144e-05 0.0128141 -0.0182051
-0.00443625 0.0235543 0.0439635
-1.54721e-05 0.000384498 -0.00135982
6.04843e-10 0.0222148 0.0108481
0.000585364 -0.000641568 -0.000704838
0.00328663 0.00183269 -0.00188291
0.000236812 0.000675125 -0.000116063
0.0219328 0.0626199 -0.249738
-1.32924e-06 -0.0181419 -0.0124069
0.00110362 -0.0164693 0.00496631
0.00309879 0.00232001 -0.00418026
-0.0269577 -0.0229169 0.0160757
0.00327031 -0.00251727 -0.000260267
-0.000727968 0.000732927 -0.0214796
0.0151904 0.00223987 -0.00247661
0.00586552 -0.000803557 0.00997751
-2.09091e-09 0.0247608 0.00298597
-1.76948e-05 0.0193424 0.00638287
0.00233577 0.00408903 -0.000966549
-0.0237676 0.0290538 0.0389779
0.00734069 -0.00274089 0.00364046
-0.0760156 -0.00694811 0.0630488
0.00147256 -0.00891787 -0.0105981
0.00113429 -0.00546766 -0.0112567
0.000218832 0.000672096 -0.000406298
-0.0555506 0.0757839 0.0763952
-2.83474e-09 0.0194927 0.00658263
0.030428 0.0417601 0.0836487
0.000120896 0.025419 -0.0187043
0.00863714 -0.0162856 0.00374212
0.00121958 0.000197026 -0.00665037
-0.00104801 -0.000273674 -0.0025676
0.00736492 -0.0256536 0.0311129
-0.000563243 0.00880404 -0.00175261
0.000235272 -0.0131211 0.0151862
0.00103365 -0.0117165 -0.012223
0.0291235 -0.0129006 0.0107889
-0.000592292 0.021475 0.0145431
-0.00220486 0.00504624 0.000164167
-0.0787792 0.0311008 -0.197363
0.000508435 0.00351502 0.0187354
0.000511381 0.0200648 0.00538696
0.0004419 0.00135507 0.0103088
0.00253601 0.0252654 0.00363075
-0.0299639 0.081352 -0.111903
0.000277066 -0.0167373 -0.0108394
0.0151001 -0.0142655 0.00769552
-0.000927764 0.0122995 0.00760668
-0.000102481 0.0240629 -0.00183718
0.00835067 0.0222645 -0.00468863
0.00230529 0.0147917 0.00857053
0.000333454 0.000208104 -0.000788685
0.0131636 -0.0342583 0.0316489
-3.22177e-09 0.0243921 0.00435274
0.00416552 -2.11971e-05 -0.00228515
0.00192588 -0.00317617 -0.00407831
0.00322698 -0.00102468 -0.00320978
-5.62123e-05 -0.000354774 0.00223267
0.00314561 0.00324352 -0.00385998
0.00966049 0.000797824 0.00603075
0.00100136 -0.00737298 0.0169379
0.00791643 -0.000451105 8.33647e-05
0.00340226 0.00184765 8.82465e-05
-0.00765173 -0.000276216 -0.00139952
0.0153576 3.7299e-05 0.0275841
0.0186487 -0.0187754 0.0240611
1.05825e-06 0.0204468 0.00246567
0.0386612 0.000886767 -0.00231903
-0.00595913 -0.0176239 0.0336245
-0.000160013 -0.00498247 0.00286862
9.20345e-06 0.000543149 0.000174615
0.00096504 -0.0192794 0.0022733
-0.000838731 0.0173064 0.0116909
2.65677e-05 0.000329257 3.28578e-05
0.000486975 -0.00523947 -0.019837
-0.00174201 0.00786261 0.0165517
0.00185256 0.0202828 0.020514
-0.0997098 -0.10331 0.0772922
0.000380883 -0.0141426 0.01261
0.00101667 0.00107294 -0.00395714
-1.73598e-14 5.85829e-14 1.44081e-13
0.00746412 0.00347318 0.000241882
0.0111561 -0.0214034 0.0562991
-0.00248788 0.000679465 -0.0080736
-0.000682447 -0.0202001 -0.00716459
0.00582935 -0.0041154 0.00160266
-0.00982174 -0.0169378 -0.0182239
0.00593398 -0.0136876 0.0188398
-0.0016237 0.00928021 -0.00612338
-0.00730039 -0.0257089 0.00519885
-0.00141451 0.00644219 0.0147138
0.0154788 -0.0127041 -0.00178388
-0.000903279 0.00159708 -0.000463976
0.0051417 0.00161802 0.00210733
-0.00586351 -0.031801 0.030826
-0.000199402 0.0123649 -0.0176772
0.00494886 0.00424122 -0.00409601
8.43196e-05 -0.00639331 0.00809452
-0.00297558 -0.00588377 -0.0077926
0.00583188 0.00249257 -0.00713923
0.000768027 0.0058739 -0.00235052
0.00946798 -0.0087488 0.00351116
0.000560215 -0.00843693 0.0173463
-0.00271233 0.00212896 -0.000324849
0.00166634 0.00356793 0.00458205
5.38702e-05 -0.0188359 -0.00830033
0.00386965 0.00393236 -0.00294703
0.0052644 0.00201052 -0.00198258
0.0136448 0.0215441 0.00239708
0.0633525 0.0959498 0.0674335
0.00794888 -0.014191 -0.0244518
0.0025166 -0.00327052 -0.0179786
0.0180058 -0.0245198 0.0156372
0.0119346 -0.0134406 0.0183286
0.00418811 -0.00215891 0.00289667
9.7286e-317 -9.67828e-317 -2.35252e-12
0.00434682 0.00410164 -0.00547238
0.00282286 0.0120654 -0.00601185
-0.0405676 0.0516579 -0.124841
0.083602 0.0549008 0.0874512
-0.00171603 0.00179759 -0.000506588
0.00806405 0.00497059 -0.00256841
0.0010737 -0.0137245 -0.00185092
-0.00131724 0.000423476 -0.00551715
-0.00014991 0.0230701 0.00798771
0.000818263 -0.000993973 0.000649725
3.65807e-05 0.00194575 -0.00341562
-0.0460901 -0.0160137 -0.0430129
-0.000746815 0.0128317 0.0102905
0.00482969 0.0198335 -0.00929027
-0.00095363 -0.00499631 0.00651118
-0.00116468 0.0106574 0.0220426
0.000151138 0.00865615 0.022462
-0.00526943 0.0155349 0.0281452
-0.0573574 -0.0195871 0.0165147
-2.7693e-09 0.0242025 -0.0048972
0.00596755 0.00247224 -0.00232048
0.00490669 0.00305838 -0.00444234
0.00115998 -0.0148221 0.00874389
0.00215262 -0.00356955 0.00165887
-9.54962e-05 0.00442027 0.00193492
-0.000864531 -0.00172332 -0.00108864
0.0114203 0.00594598 0.00522526
0.017681 -0.0105971 -0.00630651
-0.00324603 -0.0378346 0.0317976
0.00212982 0.00951756 -0.00602447
-0.00422925 -0.0080296 0.00614626
0.00243758 0.000978383 0.0017641
0.11233 0.0760911 0.0771076
0.0101742 -0.00073708 0.00928789
0.000316025 -0.000702788 -5.6114e-05
0.00318623 0.00203915 -0.00230108
0.00527182 -0.00328245 0.00449943
0.00195447 0.00460259 0.0138329

VECTORS force float
2.03969e-06 6.87517e-07 -4.61215e-07
-2.44462e-07 1.03187e-07 7.53829e-08
-5.59214e-09 -6.31766e-08 -9.86658e-09
3.09979e-06 -3.53013e-06 1.33357e-05
0.0 0.0 -1.43822e-06
2.79062e-06 1.78976e-06 -1.18861e-05
1.45088e-06 -9.01098e-07 9.0779e-07
-2.18958e-07 4.19356e-07 -1.08797e-06
2.85867e-08 2.62099e-07 -1.39584e-06
-7.97043e-06 6.94035e-06 -9.51827e-06
1.75901e-05 -5.75277e-06 5.87439e-06
-9.26976e-07 6.29831e-08 2.84623e-07
1.46149e-05 8.92761e-06 -1.44362e-05
9.48434e-08 4.28817e-07 -7.71691e-07
4.31488e-06 -8.02327e-07 -1.20426e-06
-2.49864e-10 9.64036e-09 8.86018e-09
-9.89063e-07 1.38804e-07 -5.73889e-07
9.635e-21 2.30816e-20 -9.31736e-21
1.03002e-13 1.57057e-09 -1.68007e-08
-7.50016e-06 -7.03345e-06 1.2512e-05
-8.50422e-07 -1.84092e-06 -1.44768e-06
3.3914e-07 7.53314e-06 -1.12933e-05
2.34918e-07 1.27459e-06 -9.94982e-07
1.42599e-06 -1.45919e-06 5.36661e-06
-6.18455e-06 1.02795e-06 8.59236e-06
0.0 0.0 -1.43822e-06
-1.19253e-06 -8.51318e-07 3.27449e-06
1.30786e-06 5.84414e-06 7.50008e-07
-9.50855e-08 -2.36545e-07 -2.11053e-07
4.77568e-06 -3.7524e-06 1.42575e-06
-3.72609e-09 2.50874e-09 1.03447e-08
0.0 3.99321e-22 0.0
-2.00653e-06 -3.18344e-06 2.32573e-06
1.0518e-06 1.60378e-06 1.9807e-07
1.2482e-05 4.8259e-06 1.32413e-05
0.0 0.0 -1.43822e-06
-5.92801e-06 7.36946e-06 -1.82081e-06
-1.59138e-06 -1.57324e-07 -8.58041e-07
2.20442e-05 2.99675e-07 3.10411e-05
-5.84189e-06 1.81734e-06 1.57973e-06
-8.08532e-06 4.89679e-06 -1.22788e-06
-9.22232e-08 3.28343e-08 -1.21338e-06
-9.46823e-10 2.79088e-09 1.20627e-08
1.91146e-06 -4.44069e-07 8.52377e-06
-3.0407e-07 -5.76139e-07 -2.53463e-07
-1.94098e-09 -9.76339e-09 -1.03899e-08
-1.23021e-06 -2.44532e-07 6.56085e-08
0.0 0.0 -1.43822e-06
0.0 0.0 -1.43822e-06
-1.37731e-06 -7.96728e-07 -3.55047e-07
-4.52018e-09 -3.46556e-08 -1.86598e-08
0.0 0.0 -1.43822e-06
1.13604e-07 -5.07903e-07 -9.04921e-07
4.70108e-07 -2.24307e-06 5.33503e-07
4.03053e-07 -7.27988e-07 -5.00389e-06
3.01246e-07 3.11035e-08 -1.0048e-06
0.0 0.0 -1.43822e-06
1.46214e-08 9.38995e-09 2.53939e-08
-5.78394e-09 4.65592e-09 -1.80895e-08
1.11593e-06 9.1803e-06 -5.14102e-06
-1.91143e-06 -5.24743e-07 -5.87029e-07
-8.1537e-08 1.82129e-07 -2.35227e-07
-3.24708e-06 5.09162e-06 -1.41051e-06
-1.64492e-08 -2.58738e-09 -4.48934e-08
0.0 0.0 -1.43822e-06
1.03001e-05 -7.0581e-06 -9.20012e-06
-2.90516e-09 4.49846e-09 -1.87318e-08
3.99096e-06 -2.57133e-05 1.04677e-06
0.0 0.0 -1.43822e-06
-3.43679e-06 -3.09172e-06 1.3712e-06
8.56549e-08 2.82398e-07 -1.40967e-06
1.42863e-15 2.3128e-10 -1.36417e-08
-4.14092e-07 6.05931e-06 -5.16846e-06
0.0 0.0 -1.43822e-06
-8.12237e-06 8.29971e-06 -1.29185e-05
-2.39689e-08 4.01526e-07 -9.12093e-07
3.58226e-07 4.90643e-07 -7.66366e-09
-3.998e-08 -3.3284e-08 1.97736e-08
-1.02386e-05 -3.68109e-05 -5.6506e-05
-1.5672e-09 -7.19866e-09 -9.88757e-09
0.0 0.0 -1.43822e-06
3.3171e-07 6.98017e-08 -2.33811e-08
-4.38351e-12 7.53429e-09 -1.50869e-08
2.16776e-07 5.38792e-08 -1.06438e-06
4.55823e-06 -5.81644e-06 9.53321e-06
-1.31807e-06 9.55952e-07 8.19698e-07
0.0 0.0 -1.43822e-06
-1.43021e-09 -1.04373e-08 7.31108e-09
-1.29465e-08 -8.43726e-08 4.37853e-08
2.08768e-06 1.66801e-07 3.05542e-06
0.0 0.0 -1.43822e-06
-9.64028e-07 -5.413e-07 -7.5521e-08
2.42464e-07 -4.04812e-08 8.56941e-07
0.0 0.0 -1.43822e-06
-8.70958e-07 -3.08173e-06 -7.38001e-06
-5.81945e-15 2.18559e-09 -1.68885e-08
3.7526e-08 2.33233e-07 -1.73808e-07
-2.37753e-08 1.26317e-07 -1.34736e-06
0.0 0.0 -1.43822e-06
2.52837e-06 -3.46424e-07 1.46219e-06
0.0 0.0 -1.43822e-06
7.32611e-11 5.59001e-09 1.60962e-08
-3.91987e-06 -2.74063e-07 -2.59355e-07
-4.66806e-06 -3.50414e-06 4.61893e-06
0.0 0.0 -1.43822e-06
9.39854e-12 5.14786e-09 -1.26436e-08
0.0 0.0 -1.43822e-06
0.0 0.0 -1.43822e-06
0.0 0.0 -1.43822e-06
1.59642e-06 1.74687e-07 6.60164e-06
-1.68139e-07 -7.03721e-07 -5.10684e-07
0.0 0.0 -1.43822e-06
-2.73991e-08 1.04568e-07 -3.00531e-08
-2.9728e-09 1.46214e-08 -1.98007e-09
1.14822e-06 1.93043e-06 1.80925e-06
0.0 0.0 -1.43822e-06
-2.86995e-07 -3.34317e-07 -1.24743e-06
-3.11467e-06 6.53589e-06 -4.60118e-06
-3.62551e-07 2.17848e-08 -8.68588e-07
-2.79481e-07 2.41341e-06 -2.40764e-06
-1.42271e-10 4.35022e-09 -1.34005e-08
1.91597e-07 1.3058e-08 -1.54928e-08
2.83176e-08 1.56531e-08 -7.51502e-07
0.0 0.0 -1.43822e-06
-1.2752e-08 -8.52197e-08 -3.38024e-08
1.36067e-05 -7.6692e-06 1.03006e-05
0.0 0.0 -1.43822e-06
-6.09897e-09 1.55414e-08 -2.01224e-08
4.68709e-06 -2.54941e-06 1.42306e-06
7.01224e-08 -2.58907e-07 -6.00704e-07
-8.99153e-07 2.21524e-07 -6.47477e-07
0.0 0.0 -1.43822e-06
-1.32876e-14 3.0692e-09 -1.66226e-08
-1.92915e-06 3.41272e-06 -1.17131e-06
-3.08447e-07 -3.86023e-07 -7.04447e-07
2.90016e-08 -3.90039e-08 3.18729e-08
1.19274e-06 -2.91166e-07 1.12335e-06
-6.50105e-07 -4.24186e-07 1.84762e-06
0.0 0.0 -1.43822e-06
6.73013e-11 3.29811e-09 1.38467e-08
0.0 0.0 -1.43822e-06
-5.93465e-07 2.13449e-07 -1.85851e-07
-3.04258e-06 2.93631e-06 -3.08595e-06
0.0 0.0 -1.43822e-06
0.0 0.0 -1.43822e-06
1.17738e-09 -7.78067e-11 -1.28051e-08
0.0 0.0 -1.43822e-06
0.0 0.0 -1.43822e-06
9.10977e-06 -1.0301e-05 7.78709e-06
-3.94017e-06 2.76008e-06 2.24973e-06
8.37213e-08 5.43882e-07 -9.35189e-08
1.13281e-07 -4.88027e-09 -6.56895e-08
-5.08681e-06 -2.99862e-06 -9.79882e-06
-4.56311e-09 -1.11056e-08 -8.58401e-09
2.12824e-06 -3.74495e-06 -1.1161e-05
1.07438e-05 2.23895e-05 1.83323e-05
0.0 0.0 -1.43822e-06
-1.80282e-09 -6.25192e-09 2.24668e-08
-1.81627e-05 -1.82298e-06 -2.31058e-06
-3.05699e-19 -4.51045e-20 -2.05405e-20
-2.73774e-06 2.07902e-06 -8.68165e-07
0.0 0.0 -1.43822e-06
2.30613e-06 -1.36439e-06 5.12621e-06
6.84911e-09 -9.20722e-09 6.93287e-09
1.41398e-06 -2.02651e-05 -2.95105e-06
0.0 0.0 -1.43822e-06
-9.53593e-06 1.08923e-05 -2.61753e-06
-1.58299e-06 1.32085e-07 1.92746e-06
0.0 0.0 -1.43822e-06
3.89311e-09 -1.68661e-05 -4.2431e-05
-1.49524e-05 1.86985e-05 1.19612e-05
-3.29414e-06 6.07142e-06 -4.40524e-06
-4.8792e-07 -8.22213e-07 -6.20933e-07
0.0 0.0 -1.43822e-06
-3.38987e-06 8.70277e-06 -7.14462e-06
4.86633e-06 -1.52977e-05 8.08237e-06
7.44148e-10 -3.04143e-09 1.2792e-08
-5.71622e-07 -1.31606e-05 -1.80745e-05
7.78022e-06 3.0441e-05 2.50963e-05
1.33577e-06 -4.56418e-06 -7.69386e-07
-4.04239e-06 5.83448e-06 -3.81652e-06
8.87642e-09 4.28376e-08 -1.12933e-07
6.30026e-08 1.17487e-07 -3.03918e-07
1.82404e-06 -5.27207e-06 -4.37414e-06
4.33494e-11 -2.41419e-08 -6.09026e-09
-1.9877e-08 -2.96003e-08 9.64827e-09
-3.54795e-07 1.66585e-06 3.43944e-07
0.0 0.0 -1.43822e-06
0.0 0.0 -1.43822e-06
0.0 0.0 -1.43822e-06
-6.97447e-07 6.66019e-07 1.95769e-06
0.0 0.0 -1.43822e-06
-3.87625e-06 2.02831e-05 -1.07009e-05
-1.35014e-07 1.20081e-06 -9.51904e-07
0.0 0.0 0.0
3.62558e-06 -4.37902e-06 3.93875e-06
-2.01633e-07 8.47786e-07 -4.83051e-07
-2.16902e-07 3.05233e-07 -7.11953e-07
0.0 0.0 -1.43822e-06
0.0 0.0 -1.43822e-06
-5.8231e-06 3.7718e-06 -1.40214e-06
-3.0086e-07 -5.32723e-08 1.61817e-08
0.0 0.0 -1.43822e-06
3.33617e-07 -5.66393e-07 6.99038e-07
2.13828e-08 -2.32306e-08 -1.60385e-07
-1.71967e-06 1.32137e-07 8.4427e-07
0.0 0.0 -1.43822e-06
8.75102e-09 -6.2971e-09 -1.6886e-08
-5.14698e-07 6.86203e-07 -4.12405e-07
5.00679e-07 -7.41679e-06 2.19832e-06
2.25365e-06 1.15456e-05 -7.16314e-06
6.35625e-08 4.3658e-06 -2.89732e-06
0.0 0.0 -1.43822e-06
0.0 0.0 -1.43822e-06
-9.08378e-15 -3.39962e-09 -1.64893e-08
0.0 0.0 -1.43822e-06
6.47116e-07 -1.32838e-06 -4.69788e-07
-1.04652e-08 -5.64156e-08 5.78267e-08
-6.97814e-06 -5.54952e-06 3.12881e-06
2.52865e-07 7.25767e-07 3.07967e-07
4.2004e-07 -1.17354e-07 -8.3497e-07
2.03114e-07 1.61033e-07 -2.69726e-08
0.0 0.0 -1.43822e-06
0.0 0.0 -1.43822e-06
2.57484e-08 5.96392e-08 -1.05962e-07
1.31674e-05 -2.14337e-05 1.82738e-05
-1.34079e-06 -5.79409e-07 5.26794e-07
-4.78095e-07 -8.702e-07 -1.09589e-06
3.40197e-05 1.66172e-05 1.09451e-05
-7.42009e-06 -3.69297e-06 1.83078e-06
-1.94526e-06 -2.84404e-06 9.22866e-07