# vtk DataFile Version 3.0
LIGGGHTS particles timestep 2000000
ASCII
DATASET POLYDATA
POINTS 293 float
0.0211329 0.0234796 0.0151444
0.0182441 0.0240784 0.0127562
0.0241966 0.0224288 0.0157611
0.0151195 0.0219712 0.0154677
0.0237161 0.0152127 0.0150325
0.0163508 0.0168133 0.016393
0.0198247 0.0225936 0.0141775
0.0197571 0.0215368 0.0161686
0.0209131 0.0239993 0.0129682
0.0188321 0.0231199 0.0162181
0.0182414 0.0215813 0.00803873
0.0208022 0.0146071 0.01438
0.0160961 0.0236371 0.0141781
0.018905 0.0239914 0.0133072
0.0250883 0.0214736 0.0160854
0.0204901 0.0231987 0.0132962
0.0217325 0.023817 0.0133762
0.0218799 0.0148695 0.0131303
0.0195223 0.024486 0.0136592
0.0402891 0.0167947 0.00659266
0.0233647 0.0210907 0.0172087
0.0163194 0.0243282 0.0183864
0.0174047 0.0240633 0.0128566
0.0234983 0.0184157 0.00725498
0.0198459 0.0144806 0.0146503
0.0195472 0.0232792 0.0126103
0.0223677 0.0165771 0.0152079
0.0222241 0.0147756 0.0111757
0.0155412 0.0237546 0.0149518
0.0209417 0.0238413 0.0164776
0.0158981 0.023137 0.016882
0.0206995 0.0192622 0.0159463
0.0220359 0.0217898 0.0150481
0.0199632 0.0222627 0.0153221
0.0296393 0.0184913 0.00583954
0.0204088 0.0243822 0.0137753
0.021598 0.0154609 0.0143281
0.0213871 0.0162291 0.0149325
0.0208086 0.0228749 0.0161932
0.0229218 0.0237842 0.0149517
0.01762 0.0237503 0.0136822
0.0227177 0.0154322 0.00914798
0.018927 0.0224455 0.00901218
0.0191321 0.0231383 0.0148391
0.0219663 0.0238103 0.0148636
0.0242464 0.0193685 0.00720194
0.0230253 0.0233471 0.0142702
0.0215975 0.0141992 0.0139273
0.023928 0.0195464 0.0167332
0.022008 0.0147778 0.0121428
0.0196842 0.0232692 0.0106057
0.0200453 0.0240033 0.0126206
0.0258103 0.0221968 0.0143029
0.0179382 0.0244626 0.0137904
0.015029 0.023192 0.0155427
0.0184114 0.018541 0.0167365
0.016744 0.0239312 0.0135386
0.0190689 0.023973 0.012319
0.023132 0.0167805 0.00778156
0.0220395 0.0176858 0.0157285
0.0170722 0.0240512 0.014473
0.021278 0.0242923 0.0139942
0.0223596 0.0236816 0.0139619
0.0192196 0.0191509 0.0177184
0.0214566 0.0199127 0.0158717
0.0192697 0.0238259 0.0156618
0.0185824 0.0212071 0.0172016
0.0214639 0.0233335 0.0141652
0.0167443 0.0231571 0.0147661
0.0224092 0.0229324 0.0150315
0.0183583 0.0226728 0.0153083
0.0168915 0.0151564 0.013639
0.0249752 0.0220189 0.0165585
0.021118 0.017319 0.015603
0.0257681 0.0202295 0.0166441
0.018905 0.0231872 0.0103856
0.0178966 0.0219552 0.0158676
0.0175467 0.0211268 0.016309
0.0262847 0.0208036 0.0154646
0.0155907 0.0225301 0.0161492
0.0203028 0.0164655 0.0161079
0.0152999 0.0209036 0.0156726
0.0198691 0.0230656 0.01591
0.0183689 0.0143921 0.0139428
0.0143718 0.0206936 0.0158872
0.0218219 0.0188495 0.015941
0.0207819 0.0226476 0.0141009
0.014229 0.0228205 0.0152246
0.0155328 0.0174988 0.0166075
0.0186885 0.0227859 0.00961038
0.0175412 0.014811 0.0143159
0.0212156 0.0224887 0.0153009
0.0175067 0.0138857 0.0139385
0.020026 0.024155 0.0162266
0.0190983 0.0222395 0.0158231
0.0259806 0.0215422 0.0149752
0.0203587 0.0177251 0.0167174
0.0182843 0.0204968 0.0165635
0.0184967 0.0240119 0.0145361
0.020696 0.0218901 0.0160665
0.0182398 0.0142746 0.0154729
0.0202031 0.0238004 0.0153052
0.01534 0.0165345 0.0163604
0.0152305 0.0231494 0.0143142
0.0195686 0.0240013 0.014533
0.0240779 0.020796 0.00770309
0.0172332 0.0160907 0.0148273
0.0232178 0.019241 0.0174588
0.020847 0.0234754 0.0119167
0.0189375 0.0215277 0.00791577
0.022194 0.0206165 0.0167995
0.0197136 0.0224648 0.00893041
0.0232899 0.0162749 0.0149657
0.0156035 0.0217691 0.016798
0.0258847 0.0191951 0.0167722
0.0207382 0.0146495 0.0162782
0.0235303 0.0229898 0.0152279
0.0209038 0.0182843 0.0158923
0.0204394 0.0235618 0.0142837
0.0177365 0.0232723 0.0146855
0.0243802 0.0157399 0.0155744
0.0235002 0.0197309 0.00718975
0.0246967 0.022913 0.00957897
0.0155487 0.0199738 0.0159288
0.022626 0.0168556 0.0165943
0.0198459 0.0234908 0.0117735
0.0171962 0.0148917 0.0152509
0.0222934 0.0234024 0.0167744
0.0216611 0.0233531 0.0159837
0.0165222 0.0221991 0.0157646
0.0220933 0.0196671 0.0172923
0.0169211 0.0238803 0.0165806
0.016598 0.0147639 0.0126898
0.0240913 0.0168512 0.0162459
0.0188548 0.0140119 0.0129507
0.0145134 0.0225906 0.0141774
0.0246269 0.0226231 0.00908478
0.0249946 0.016441 0.0160776
0.0198813 0.0139967 0.0130053
0.023443 0.0206243 0.018265
0.0232267 0.0221168 0.0158064
0.0145828 0.0197218 0.0159458
0.0188901 0.0202808 0.0174177
0.0212788 0.023229 0.0127829
0.0216913 0.0224207 0.0144009
0.0248901 0.019093 0.0167546
0.017823 0.0229779 0.0161374
0.0167762 0.0184224 0.0159403
0.0138666 0.0156384 0.0155187
0.0159422 0.0200311 0.0172813
0.0169827 0.0174478 0.015939
0.0186492 0.0195801 0.0167465
0.0172221 0.0235743 0.0155402
0.0159334 0.0228613 0.0152704
0.0177957 0.0233684 0.0171069
0.0218082 0.0154272 0.0153575
0.0173521 0.0201831 0.0167692
0.0208367 0.0140677 0.0132918
0.0193509 0.0167456 0.0162385
0.0165509 0.0215028 0.0164856
0.020563 0.0203493 0.015749
0.0223403 0.0147115 0.0143731
0.0197615 0.0155107 0.0153874
0.0238764 0.0205474 0.016534
0.012923 0.0208598 0.0164638
0.015484 0.0146578 0.0143242
0.0142533 0.0214926 0.0153312
0.0144943 0.0191944 0.0168453
0.020358 0.0229625 0.0150364
0.0162409 0.0192604 0.0159979
0.0188417 0.0241525 0.0165043
0.0170583 0.0242182 0.0175116
0.0195942 0.0232415 0.0135091
0.0226295 0.0224108 0.0170594
0.0240178 0.021501 0.0161882
0.0219526 0.0208435 0.0155828
0.0243537 0.0208421 0.0174917
0.0178796 0.0239638 0.0163082
0.0151549 0.0225568 0.0172196
0.0180995 0.0243643 0.0171976
0.0159275 0.0237354 0.0176826
0.0228057 0.0153576 0.0154198
0.0218111 0.0167341 0.0160241
0.0233262 0.0174565 0.00751383
0.0184467 0.0150109 0.0148289
0.0142497 0.0222193 0.0160233
0.0253311 0.0233072 0.0123438
0.0186811 0.0214142 0.0162021
0.0158375 0.0149759 0.0133144
0.0235437 0.0176331 0.0165447
0.0224972 0.0158079 0.0145821
0.0212524 0.0210695 0.016566
0.0147985 0.0187501 0.0159913
0.0226149 0.0190919 0.016662
0.0214413 0.0187183 0.017263
0.0247745 0.0201098 0.0166471
0.0229511 0.0172928 0.0155919
0.01394 0.0221288 0.0146528
0.0201759 0.021377 0.0152623
0.0232489 0.0163954 0.0159576
0.0191404 0.01772 0.0165953
0.0229973 0.0200259 0.0167066
0.0224776 0.0227766 0.0160165
0.015013 0.0177951 0.0158032
0.021132 0.0214941 0.0152114
0.0162743 0.0208949 0.0157408
0.0234988 0.0186232 0.0167144
0.01745 0.0146302 0.0119597
0.02053 0.0148665 0.0153126
0.0189238 0.0159436 0.0157302
0.0147456 0.0212999 0.016589
0.0243975 0.0181829 0.0166831
0.0252167 0.020978 0.0169267
0.0160302 0.017404 0.0156525
0.0152059 0.016889 0.0154352
0.0216113 0.0180211 0.016567
0.0134441 0.0216321 0.016101
0.0155102 0.0222583 0.014594
0.0183071 0.0236496 0.0154606
0.0173804 0.0220232 0.0167213
0.0169347 0.0228997 0.0169091
0.0225735 0.0178435 0.0167746
0.0183992 0.0223276 0.0166475
0.0156833 0.0207827 0.0166568
0.0185322 0.0150647 0.0160126
0.0224576 0.019888 0.0158752
0.0200463 0.0224368 0.0166692
0.0196678 0.0197592 0.0167416
0.0173379 0.0226011 0.0153477
0.0132173 0.0188779 0.0168072
0.0172962 0.0201682 0.0181098
0.020341 0.0200806 0.0178465
0.0202547 0.0216869 0.0172973
0.0169175 0.0149093 0.0162109
0.0247939 0.0212732 0.0186468
0.0216315 0.0220683 0.0173854
0.0178983 0.0155839 0.0154392
0.0181937 0.0190364 0.0175995
0.0229537 0.0182734 0.0177379
0.0168447 0.0195973 0.0174239
0.019061 0.0245663 0.0173877
0.015209 0.0211079 0.0174763
0.019973 0.0167493 0.0170253
0.0176996 0.0208161 0.0174608
0.0174309 0.0182872 0.0166964
0.0164704 0.0231546 0.0160611
0.0222377 0.0218056 0.0160265
0.0230235 0.0212421 0.0162788
0.025028 0.0174052 0.0165071
0.0184511 0.0227563 0.0175495
0.022252 0.0158921 0.0194057
0.0188382 0.0167509 0.0178686
0.0159957 0.0216159 0.0151452
0.0155178 0.0193044 0.0166938
0.0193542 0.0143024 0.013798
0.0141981 0.0215993 0.0173705
0.0172779 0.0172109 0.0168647
0.0193064 0.0207007 0.0165229
0.0210207 0.0169866 0.016584
0.0213657 0.0231022 0.0170064
0.0164651 0.0178479 0.0166968
0.0204204 0.0182952 0.0177538
0.0174656 0.0178989 0.0188521
0.0240976 0.0196622 0.0177467
0.0164193 0.0201531 0.01641
0.0165884 0.0188316 0.0168337
0.0181498 0.017589 0.0165459
0.0191772 0.0146173 0.0153868
0.0227367 0.0189398 0.0185681
0.0183326 0.0166784 0.0161693
0.0179704 0.0163627 0.0170462
0.0162051 0.0159542 0.0147065
0.0137784 0.0203673 0.0166233
0.0145197 0.0150889 0.0149974
0.0193819 0.0187824 0.0167738
0.0192494 0.0219169 0.0169762
0.018217 0.0138931 0.0163968
0.0208869 0.0157799 0.0156729
0.0156139 0.0164404 0.0183711
0.015729 0.0184265 0.0162065
0.0206105 0.020096 0.0168807
0.0177039 0.0192474 0.0167537
0.0205417 0.0190608 0.0169913
0.0202567 0.0158466 0.0187993
0.0197085 0.0208554 0.017431
0.0198009 0.0230552 0.0187218
0.0166434 0.0207507 0.0171934
0.0227675 0.0184558 0.0159057
0.0162472 0.0223103 0.0173405
0.0148133 0.0202953 0.0167318
0.0172808 0.0223423 0.0176697
0.0207558 0.0193781 0.0186032
0.0164081 0.0149971 0.0144996

VERTICES 293 586
1 0
1 1
1 2
1 3
1 4
1 5
1 6
1 7
1 8
1 9
1 10
1 11
1 12
1 13
1 14
1 15
1 16
1 17
1 18
1 19
1 20
1 21
1 22
1 23
1 24
1 25
1 26
1 27
1 28
1 29
1 30
1 31
1 32
1 33
1 34
1 35
1 36
1 37
1 38
1 39
1 40
1 41
1 42
1 43
1 44
1 45
1 46
1 47
1 48
1 49
1 50
1 51
1 52
1 53
1 54
1 55
1 56
1 57
1 58
1 59
1 60
1 61
1 62
1 63
1 64
1 65
1 66
1 67
1 68
1 69
1 70
1 71
1 72
1 73
1 74
1 75
1 76
1 77
1 78
1 79
1 80
1 81
1 82
1 83
1 84
1 85
1 86
1 87
1 88
1 89
1 90
1 91
1 92
1 93
1 94
1 95
1 96
1 97
1 98
1 99
1 100
1 101
1 102
1 103
1 104
1 105
1 106
1 107
1 108
1 109
1 110
1 111
1 112
1 113
1 114
1 115
1 116
1 117
1 118
1 119
1 120
1 121
1 122
1 123
1 124
1 125
1 126
1 127
1 128
1 129
1 130
1 131
1 132
1 133
1 134
1 135
1 136
1 137
1 138
1 139
1 140
1 141
1 142
1 143
1 144
1 145
1 146
1 147
1 148
1 149
1 150
1 151
1 152
1 153
1 154
1 155
1 156
1 157
1 158
1 159
1 160
1 161
1 162
1 163
1 164
1 165
1 166
1 167
1 168
1 169
1 170
1 171
1 172
1 173
1 174
1 175
1 176
1 177
1 178
1 179
1 180
1 181
1 182
1 183
1 184
1 185
1 186
1 187
1 188
1 189
1 190
1 191
1 192
1 193
1 194
1 195
1 196
1 197
1 198
1 199
1 200
1 201
1 202
1 203
1 204
1 205
1 206
1 207
1 208
1 209
1 210
1 211
1 212
1 213
1 214
1 215
1 216
1 217
1 218
1 219
1 220
1 221
1 222
1 223
1 224
1 225
1 226
1 227
1 228
1 229
1 230
1 231
1 232
1 233
1 234
1 235
1 236
1 237
1 238
1 239
1 240
1 241
1 242
1 243
1 244
1 245
1 246
1 247
1 248
1 249
1 250
1 251
1 252
1 253
1 254
1 255
1 256
1 257
1 258
1 259
1 260
1 261
1 262
1 263
1 264
1 265
1 266
1 267
1 268
1 269
1 270
1 271
1 272
1 273
1 274
1 275
1 276
1 277
1 278
1 279
1 280
1 281
1 282
1 283
1 284
1 285
1 286
1 287
1 288
1 289
1 290
1 291
1 292

POINT_DATA 293
SCALARS id int 1
LOOKUP_TABLE default
1
2
3
4
5
6
7
8
9
10
11
12
13
14
15
16
17
18
19
20
21
22
23
24
25
26
27
28
29
30
31
32
33
34
35
36
37
38
39
40
41
42
43
44
45
46
47
48
49
50
51
52
53
54
55
56
57
58
59
60
61
62
63
64
65
66
67
68
69
70
71
72
73
74
75
76
77
78
79
80
81
82
83
84
85
86
87
88
89
90
91
92
93
95
96
97
98
99
100
101
102
103
104
105
106
108
109
110
111
112
113
114
115
116
117
118
119
120
121
122
123
124
125
126
127
128
129
130
131
132
133
135
136
137
138
139
140
141
142
143
144
145
146
147
148
149
150
151
152
153
154
155
156
157
158
159
160
161
162
163
164
165
166
167
168
169
170
171
172
173
174
175
176
177
178
179
180
181
182
183
184
185
186
187
188
189
190
191
192
193
194
195
196
197
198
200
201
202
203
204
205
206
207
208
209
210
211
212
213
215
216
217
218
219
220
221
222
223
224
225
226
227
228
229
230
231
232
233
234
235
236
237
238
239
240
241
242
243
244
245
246
247
248
249
250
251
252
253
254
255
256
257
258
259
260
261
263
264
265
266
267
268
269
270
272
273
274
275
276
277
278
279
280
281
282
283
284
285
286
287
288
289
290
291
292
293
294
295
296
297
298
299
300

SCALARS type int 1
LOOKUP_TABLE default
1
1
1
1
1
1
1
1
1
1
1
1
1
1
1
1
1
1
1
1
1
1
1
1
1
1
1
1
1
1
1
1
1
1
1
1
1
1
1
1
1
1
1
1
1
1
1
1
1
1
1
1
1
1
1
1
1
1
1
1
1
1
1
1
1
1
1
1
1
1
1
1
1
1
1
1
1
1
1
1
1
1
1
1
1
1
1
1
1
1
1
1
1
1
1
1
1
1
1
1
1
1
1
1
1
1
1
1
1
1
1
1
1
1
1
1
1
1
1
1
1
1
1
1
1
1
1
1
1
1
1
1
1
1
1
1
1
1
1
1
1
1
1
1
1
1
1
1
1
1
1
1
1
1
1
1
1
1
1
1
1
1
1
1
1
1
1
1
1
1
1
1
1
1
1
1
1
1
1
1
1
1
1
1
1
1
1
1
1
1
1
1
1
1
1
1
1
1
1
1
1
1
1
1
1
1
1
1
1
1
1
1
1
1
1
1
1
1
1
1
1
1
1
1
1
1
1
1
1
1
1
1
1
1
1
1
1
1
1
1
1
1
1
1
1
1
1
1
1
1
1
1
1
1
1
1
1
1
1
1
1
1
1
1
1
1
1
1
1
1
1
1
1
1
1
1
1
1
1
1
1
1
1
1
1
1
1
1
1
1
1
1
1

SCALARS radius float 1
LOOKUP_TABLE default
0.0005
0.0005
0.0005
0.0005
0.0005
0.0005
0.0005
0.0005
0.0005
0.0005
0.0005
0.0005
0.0005
0.0005
0.0005
0.0005
0.0005
0.0005
0.0005
0.0005
0.0005
0.0005
0.0005
0.0005
0.0005
0.0005
0.0005
0.0005
0.0005
0.0005
0.0005
0.0005
0.0005
0.0005
0.0005
0.0005
0.0005
0.0005
0.0005
0.0005
0.0005
0.0005
0.0005
0.0005
0.0005
0.0005
0.0005
0.0005
0.0005
0.0005
0.0005
0.0005
0.0005
0.0005
0.0005
0.0005
0.0005
0.0005
0.0005
0.0005
0.0005
0.0005
0.0005
0.0005
0.0005
0.0005
0.0005
0.0005
0.0005
0.0005
0.0005
0.0005
0.0005
0.0005
0.0005
0.0005
0.0005
0.0005
0.0005
0.0005
0.0005
0.0005
0.0005
0.0005
0.0005
0.0005
0.0005
0.0005
0.0005
0.0005
0.0005
0.0005
0.0005
0.0005
0.0005
0.0005
0.0005
0.0005
0.0005
0.0005
0.0005
0.0005
0.0005
0.0005
0.0005
0.0005
0.0005
0.0005
0.0005
0.0005
0.0005
0.0005
0.0005
0.0005
0.0005
0.0005
0.0005
0.0005
0.0005
0.0005
0.0005
0.0005
0.0005
0.0005
0.0005
0.0005
0.0005
0.0005
0.0005
0.0005
0.0005
0.0005
0.0005
0.0005
0.0005
0.0005
0.0005
0.0005
0.0005
0.0005
0.0005
0.0005
0.0005
0.0005
0.0005
0.0005
0.0005
0.0005
0.0005
0.0005
0.0005
0.0005
0.0005
0.0005
0.0005
0.0005
0.0005
0.0005
0.0005
0.0005
0.0005
0.0005
0.0005
0.0005
0.0005
0.0005
0.0005
0.0005
0.0005
0.0005
0.0005
0.0005
0.0005
0.0005
0.0005
0.0005
0.0005
0.0005
0.0005
0.0005
0.0005
0.0005
0.0005
0.0005
0.0005
0.0005
0.0005
0.0005
0.0005
0.0005
0.0005
0.0005
0.0005
0.0005
0.0005
0.0005
0.0005
0.0005
0.0005
0.0005
0.0005
0.0005
0.0005
0.0005
0.0005
0.0005
0.0005
0.0005
0.0005
0.0005
0.0005
0.0005
0.0005
0.0005
0.0005
0.0005
0.0005
0.0005
0.0005
0.0005
0.0005
0.0005
0.0005
0.0005
0.0005
0.0005
0.0005
0.0005
0.0005
0.0005
0.0005
0.0005
0.0005
0.0005
0.0005
0.0005
0.0005
0.0005
0.0005
0.0005
0.0005
0.0005
0.0005
0.0005
0.0005
0.0005
0.0005
0.0005
0.0005
0.0005
0.0005
0.0005
0.0005
0.0005
0.0005
0.0005
0.0005
0.0005
0.0005
0.0005
0.0005
0.0005
0.0005
0.0005
0.0005
0.0005
0.0005
0.0005
0.0005
0.0005
0.0005
0.0005
0.0005
0.0005
0.0005
0.0005
0.0005
0.0005
0.0005
0.0005
0.0005
0.0005
0.0005
0.0005
0.0005
0.0005
0.0005
0.0005
0.0005
0.0005
0.0005
0.0005
0.0005

SCALARS mass float 1
LOOKUP_TABLE default
1.46608e-07
1.46608e-07
1.46608e-07
1.46608e-07
1.46608e-07
1.46608e-07
1.46608e-07
1.46608e-07
1.46608e-07
1.46608e-07
1.46608e-07
1.46608e-07
1.46608e-07
1.46608e-07
1.46608e-07
1.46608e-07
1.46608e-07
1.46608e-07
1.46608e-07
1.46608e-07
1.46608e-07
1.46608e-07
1.46608e-07
1.46608e-07
1.46608e-07
1.46608e-07
1.46608e-07
1.46608e-07
1.46608e-07
1.46608e-07
1.46608e-07
1.46608e-07
1.46608e-07
1.46608e-07
1.46608e-07
1.46608e-07
1.46608e-07
1.46608e-07
1.46608e-07
1.46608e-07
1.46608e-07
1.46608e-07
1.46608e-07
1.46608e-07
1.46608e-07
1.46608e-07
1.46608e-07
1.46608e-07
1.46608e-07
1.46608e-07
1.46608e-07
1.46608e-07
1.46608e-07
1.46608e-07
1.46608e-07
1.46608e-07
1.46608e-07
1.46608e-07
1.46608e-07
1.46608e-07
1.46608e-07
1.46608e-07
1.46608e-07
1.46608e-07
1.46608e-07
1.46608e-07
1.46608e-07
1.46608e-07
1.46608e-07
1.46608e-07
1.46608e-07
1.46608e-07
1.46608e-07
1.46608e-07
1.46608e-07
1.46608e-07
1.46608e-07
1.46608e-07
1.46608e-07
1.46608e-07
1.46608e-07
1.46608e-07
1.46608e-07
1.46608e-07
1.46608e-07
1.46608e-07
1.46608e-07
1.46608e-07
1.46608e-07
1.46608e-07
1.46608e-07
1.46608e-07
1.46608e-07
1.46608e-07
1.46608e-07
1.46608e-07
1.46608e-07
1.46608e-07
1.46608e-07
1.46608e-07
1.46608e-07
1.46608e-07
1.46608e-07
1.46608e-07
1.46608e-07
1.46608e-07
1.46608e-07
1.46608e-07
1.46608e-07
1.46608e-07
1.46608e-07
1.46608e-07
1.46608e-07
1.46608e-07
1.46608e-07
1.46608e-07
1.46608e-07
1.46608e-07
1.46608e-07
1.46608e-07
1.46608e-07
1.46608e-07
1.46608e-07
1.46608e-07
1.46608e-07
1.46608e-07
1.46608e-07
1.46608e-07
1.46608e-07
1.46608e-07
1.46608e-07
1.46608e-07
1.46608e-07
1.46608e-07
1.46608e-07
1.46608e-07
1.46608e-07
1.46608e-07
1.46608e-07
1.46608e-07
1.46608e-07
1.46608e-07
1.46608e-07
1.46608e-07
1.46608e-07
1.46608e-07
1.46608e-07
1.46608e-07
1.46608e-07
1.46608e-07
1.46608e-07
1.46608e-07
1.46608e-07
1.46608e-07
1.46608e-07
1.46608e-07
1.46608e-07
1.46608e-07
1.46608e-07
1.46608e-07
1.46608e-07
1.46608e-07
1.46608e-07
1.46608e-07
1.46608e-07
1.46608e-07
1.46608e-07
1.46608e-07
1.46608e-07
1.46608e-07
1.46608e-07
1.46608e-07
1.46608e-07
1.46608e-07
1.46608e-07
1.46608e-07
1.46608e-07
1.46608e-07
1.46608e-07
1.46608e-07
1.46608e-07
1.46608e-07
1.46608e-07
1.46608e-07
1.46608e-07
1.46608e-07
1.46608e-07
1.46608e-07
1.46608e-07
1.46608e-07
1.46608e-07
1.46608e-07
1.46608e-07
1.46608e-07
1.46608e-07
1.46608e-07
1.46608e-07
1.46608e-07
1.46608e-07
1.46608e-07
1.46608e-07
1.46608e-07
1.46608e-07
1.46608e-07
1.46608e-07
1.46608e-07
1.46608e-07
1.46608e-07
1.46608e-07
1.46608e-07
1.46608e-07
1.46608e-07
1.46608e-07
1.46608e-07
1.46608e-07
1.46608e-07
1.46608e-07
1.46608e-07
1.46608e-07
1.46608e-07
1.46608e-07
1.46608e-07
1.46608e-07
1.46608e-07
1.46608e-07
1.46608e-07
1.46608e-07
1.46608e-07
1.46608e-07
1.46608e-07
1.46608e-07
1.46608e-07
1.46608e-07
1.46608e-07
1.46608e-07
1.46608e-07
1.46608e-07
1.46608e-07
1.46608e-07
1.46608e-07
1.46608e-07
1.46608e-07
1.46608e-07
1.46608e-07
1.46608e-07
1.46608e-07
1.46608e-07
1.46608e-07
1.46608e-07
1.46608e-07
1.46608e-07
1.46608e-07
1.46608e-07
1.46608e-07
1.46608e-07
1.46608e-07
1.46608e-07
1.46608e-07
1.46608e-07
1.46608e-07
1.46608e-07
1.46608e-07
1.46608e-07
1.46608e-07
1.46608e-07
1.46608e-07
1.46608e-07
1.46608e-07
1.46608e-07
1.46608e-07
1.46608e-07
1.46608e-07
1.46608e-07
1.46608e-07
1.46608e-07
1.46608e-07
1.46608e-07
1.46608e-07
1.46608e-07
1.46608e-07
1.46608e-07
1.46608e-07
1.46608e-07
1.46608e-07
1.46608e-07
1.46608e-07
1.46608e-07
1.46608e-07
1.46608e-07
1.46608e-07
1.46608e-07
1.46608e-07
1.46608e-07

VECTORS velocity float
-0.00610237 0.0143661 -0.0212656
0.000572872 0.00151235 0.00281307
0.0102645 -0.0247649 -0.020488
0.00594022 0.00652009 -0.00107815
-0.00339307 0.00621264 -0.0128916
0.0110884 -0.00884753 -0.0135194
-0.0152751 0.0444517 -0.0657515
-0.00164918 0.00893525 -0.00535711
0.0110738 0.0132414 0.0195847
-0.00256587 0.000669522 -0.000187862
-5.87462e-05 -0.0103356 -0.0100719
-0.000264326 -0.000651826 0.000231324
0.00278553 0.00113066 0.00118534
-0.00081394 -0.00215384 0.00672441
0.000797988 -0.0055091 -0.00246764
-0.0465207 0.0160164 -0.120869
-0.00170108 -0.00253796 -0.00373811
0.000859435 0.00298558 0.0200085
-0.00184367 0.00197416 -9.36581e-05
1.08031e-15 -8.55038e-15 -2.18584e-14
-0.00186036 0.0106764 -0.00924198
0.00478474 0.00199827 0.00222593
-0.000667655 0.00141141 -0.00144779
0.000216042 -0.020831 0.00317198
9.5404e-05 0.000133655 -0.00143198
0.0168708 0.0128485 -0.03474
-0.000615049 0.018707 0.0122005
0.000387808 -0.00494674 0.0207137
0.00163918 0.000533151 -0.00032551
-0.000116523 -0.0014413 0.000176909
0.00297605 0.00191441 0.00307201
6.0205e-05 0.0205722 -0.000816475
0.00432677 -0.00329371 -0.00388803
0.0116601 -0.0216778 0.0285585
2.51606e-14 -2.31868e-16 2.95161e-13
-0.00720765 6.43716e-05 0.00780518
0.000115026 0.0138948 0.0190696
0.000287852 0.0171139 0.0140076
0.00254787 0.00732111 0.00287019
-1.87945e-05 -0.000951824 0.00107866
-0.000365352 0.00294315 -0.00750754
0.000423239 -0.00708445 0.00980699
-0.00117443 -0.02171 -0.022084
0.00613226 0.00334529 -0.0047142
-0.00406156 0.00361609 0.00201981
-1.12063 -0.631309 -1.77698
-7.50975e-05 0.000357222 -0.00228708
0.00106716 0.000716667 -0.0001894
0.00111694 0.0210842 -0.00190366
0.000337988 0.00338389 0.0198982
0.000250236 -0.00175521 -0.00813109
0.00610113 0.00306987 -0.0355578
0.000170987 0.0144229 -0.0157245
-0.000337098 0.000549457 -0.00142996
0.00157618 0.000875449 -0.000279169
0.000575174 0.0228409 0.0024847
-9.97742e-05 0.00107105 -0.0016467
-0.00119038 0.00462439 -0.0132284
0.000221188 -0.0177418 0.0111167
0.00571207 0.0109196 0.00448545
-0.000614141 -0.000295622 6.90501e-05
-0.0037527 -0.00543067 0.00465494
-0.0045143 -0.00322406 0.000291216
-0.0075474 0.0213531 0.0113386
-3.83954e-05 0.0209895 -0.00918339
-0.00150465 -0.00393799 0.00127713
-0.00100996 0.00930575 0.00749886
-0.020568 0.00138084 0.016631
0.00140364 -0.000745192 0.00132262
-0.00116327 -0.000588552 0.00570699
0.000513967 0.00177574 -0.000775855
-0.00107649 -8.42974e-06 0.00087481
0.000105572 -0.00186885 -0.000599577
0.000495051 0.0179475 0.00790951
0.000321459 -0.000473731 0.000448973
0.00118269 -0.00428595 -0.0151823
0.000669925 -0.000459498 0.000195613
-0.000135047 0.0229543 -0.0109802
0.00238968 0.0087094 -0.00238427
0.00373468 0.00157099 0.0034893
-0.0107411 -0.00870402 -0.00529041
0.00412706 0.00638372 0.00129133
-0.00239629 -0.00948773 0.0326774
-0.000345429 0.000308269 -0.000682468
0.0028465 0.0116533 0.00109967
-0.00352908 0.000357714 -0.00093554
-0.0449011 0.0284847 -0.0285779
0.0024046 0.00364032 -0.00410505
5.09481e-06 -0.00200722 0.00888447
0.00249763 -0.00760497 -0.015057
-0.000106395 -5.89558e-05 0.000552116
-0.00174526 0.00980708 -0.0153812
-0.000123708 1.27935e-05 0.0001748
-0.000175171 -0.00133389 0.000690061
-0.000202921 -0.00258031 0.00720723
0.00192565 0.0140483 -0.0113252
-0.0414177 0.00286136 -0.0481311
-8.72784e-05 0.024185 -0.00710494
0.00137621 -0.0239708 -0.0174162
0.00526076 0.0134057 -0.00576432
-0.00215945 0.00291905 0.0032941
0.00234934 -0.00361162 -0.0105457
0.0036546 0.000590873 0.00351386
0.00492521 0.0022643 -0.00280901
-0.00883001 0.00449097 -0.0150659
-1.44185e-05 -0.0197839 -0.0104559
0.00330634 -0.0118619 -0.0122597
-0.0108476 0.00825318 0.0158135
-0.0130426 -0.00129004 -0.0185243
0.00321932 0.000312612 -0.000828369
-0.017839 -0.0237541 -0.0237747
0.000244518 -0.0125405 -0.0180407
7.56031e-05 0.0177306 0.0140417
-0.00147299 0.00882178 0.0160849
-0.00167079 0.0217355 -0.000663905
0.0081055 0.0364378 0.00706949
-0.00980453 -0.0189274 -0.0564419
0.000493086 0.0206432 0.003716
-0.0198662 0.00675912 -0.0314453
0.000319872 -0.000590582 -0.030902
-0.00258823 -0.00237511 -0.00202203
10.1642 -4.43182 1.33057
0.00153924 -0.00342329 -0.00829349
0.00185447 0.00969846 0.0136403
-0.00554565 0.00951021 0.0153732
0.0234983 0.0037156 -0.0135037
-0.000366186 0.000335779 -0.000458486
-0.000840688 0.000566425 -0.000288143
0.0038129 0.00183817 0.0046207
0.0049064 -0.00568273 0.00484001
0.00518947 -0.00337944 0.0217829
0.00038237 -0.000192517 -0.000497316
0.00468978 -0.00201727 -0.00262466
0.0091293 0.00550726 0.000570966
-0.000259357 -0.0015963 0.00265071
0.0051423 0.00323675 -0.00424084
0.00157183 0.000791415 -0.00257348
0.00287244 0.00689522 0.00321611
0.000241355 0.000461042 -0.00104249
0.15603 -0.00558809 0.0343038
0.00546236 -0.00128861 -0.0368787
0.00171515 0.0122149 0.00853067
-0.00328947 0.00913289 0.00789112
-0.000779398 -0.00266847 -0.0274103
-0.0703685 -0.0193794 0.0692624
-0.00192277 0.0239986 -0.000257594
0.00675899 0.00464513 -0.00859771
0.000819104 0.0101036 0.0201517
0.001605 -0.00169624 -0.00126842
-0.00956726 0.00231276 0.019335
0.00147792 0.0128931 0.0090721
-0.00175211 0.01529 -0.000627821
-0.000131186 6.76993e-05 1.78332e-05
0.00159681 -0.00292783 0.00129684
0.00361074 -0.00132135 0.00119625
0.00313825 -0.00779897 -0.0404674
0.00499249 0.0167422 0.00651724
-0.00034334 -0.000694913 0.00156926
-0.00463485 0.00256601 0.00297153
0.00553624 0.0119191 -0.00027568
2.92315e-07 0.019619 -0.00596262
0.0326765 0.0151326 -0.0617499
-0.0111018 0.00712013 0.00600486
-0.000123583 0.0239232 -0.00693634
-0.0047293 0.0110798 -0.00306158
-0.000338046 0.000120747 0.000386474
0.00531998 0.00604279 -0.00877314
0.00378473 0.017132 0.0170542
0.0147883 -0.013447 -0.00920304
0.00152845 0.0101494 0.0211206
1.068e-05 -0.000236933 1.44397e-05
0.000481809 -0.000466915 -0.00096742
0.0123833 0.0425934 -0.0173931
-0.0218473 0.00192626 -0.0122341
0.00240317 0.0196654 -0.0327199
0.000464345 0.0130203 -0.0052028
0.0274594 -0.0574049 -0.0607262
-0.000404382 -0.000651663 -0.000432049
0.00335954 0.0124103 0.0129156
0.00118634 -0.000325815 -0.00125624
0.00288696 0.00211561 0.00146107
0.00388439 -0.000370818 0.0055256
-0.00232353 0.0153074 0.00884704
0.000433029 -0.0207506 0.0068
-0.00115375 0.0101127 0.0128059
0.00893619 0.0025109 -0.00151209
0.00131387 0.00250328 -0.018865
-0.00520526 0.000178278 0.000166938
0.00582623 -0.00133246 -0.00528995
0.00308049 0.0106388 0.00445932
0.000419583 0.0157901 0.0157065
-0.0313306 -0.031632 -0.0290815
0.00143865 0.0133445 0.00918041
0.00433987 0.00937162 0.00698703
-0.0118455 -0.0145982 0.0232604
-0.00182348 0.0204647 -0.00437909
0.00268363 0.0191907 0.00822023
0.00247209 0.00712682 -0.0073437
0.0204287 -0.0349701 0.0260543
-0.00156789 0.0135939 0.00801881
0.00242864 0.00954785 0.00378479
0.0112548 0.00709266 -0.00716107
0.00483007 0.000409291 0.00453605
0.000764846 0.0133422 0.00747449
0.0297746 -0.0249616 0.00923918
0.00405313 0.00511232 0.00211668
0.000415416 0.0115951 0.00023797
0.000316226 -0.000328048 0.000684806
-0.0137384 0.00307689 -0.00524286
0.000925288 0.00904234 0.00728144
0.00517731 0.0182078 -0.00710573
0.000670627 0.0201643 0.00297108
0.000433857 -0.00160721 -0.000129681
0.00136601 0.0150068 0.0089609
0.00200152 0.0128947 0.00805216
-0.00221269 -0.00265552 0.00970674
0.00401478 0.00683634 -0.00195335
0.00522473 0.00168098 -0.00420746
-0.000564862 0.000312317 -0.000228174
-0.00101606 0.00254554 -0.00115014
0.00229731 0.0029541 0.000144917
-0.0111219 0.0208324 -0.0137689
-0.000793089 0.000500634 5.78907e-06
-0.00253341 0.0106247 0.0167682
-0.000894775 0.00245029 -0.00127778
0.00024684 0.0203238 -0.00384964
0.00284355 -0.000911669 -0.001271
0.0100169 0.00598145 -0.00335576
0.00143126 0.000379229 0.000313146
-0.040493 -0.00122477 0.0248655
0.00181085 0.012557 0.00940552
-0.0021896 -0.0350456 -0.0356621
0.0137527 -0.0217862 -0.0263472
-0.000931352 0.00293747 -0.00160455
0.00615363 -0.00313183 0.0115206
0.0534906 -0.0094537 -0.0118425
-0.00369794 0.00976324 0.0095297
-0.0140303 0.00619199 0.00145939
0.0942624 -0.0457944 -0.00820733
-0.00130664 0.0102278 0.0113857
0.001225 -0.000226832 -0.000796464
-0.0177592 0.00639303 0.00371205
-0.0108762 -0.0147878 0.00591448
-0.00236316 0.0129444 0.0115168
-0.00139678 0.0187086 0.00360709
0.00147679 -0.000649982 0.00163286
0.0101396 -0.0176041 0.0338026
0.0168511 0.0043447 0.00581112
0.00115949 0.0165602 0.0046135
0.0107719 0.00575632 -0.00298733
0.115731 -0.221739 0.104396
-0.0929795 -0.113484 0.00509863
0.00461446 0.00205045 -0.00250833
-0.0196895 -0.0130136 0.0148613
-0.000176361 0.000502747 -0.00128173
0.00159246 3.48472e-05 -0.0023605
0.00891199 -0.00300897 0.011168
-0.00185107 0.0197894 -0.00930915
-0.0210013 0.0106872 -0.0109106
0.00330905 -0.0285168 -0.036482
-0.00833977 0.00140302 0.0215509
0.000612001 -0.0464331 0.0194603
0.0 -0.0 -0.03
-0.00848283 -0.0925777 0.0224621
-0.00259246 0.0104302 0.0192562
-0.0162516 0.00326011 0.0286872
0.00112953 0.0190768 0.00562376
0.00139666 -0.00173106 0.000795601
0.11017 -0.0569379 0.0265889
-0.00372775 0.011891 0.0104691
-0.0203521 -0.0266553 -0.00420105
-0.0014587 -0.000615535 -0.00330124
-0.0044187 0.0131815 -0.00490342
0.00196787 -0.000783028 -0.00163114
-0.000223831 0.0254925 0.00150759
0.00122805 0.00279928 0.000319862
-2.07017e-05 -0.000750068 0.00136734
-0.00547778 -0.00510008 -0.00453201
0.0 0.0 -0.04575
-0.00438003 -0.0142183 -0.0362413
0.0124206 -0.0618316 -0.0507597
0.00631558 0.0154074 -0.00198024
-0.0294707 -0.0696981 -0.0169621
0.0 -0.0 -0.03
0.00929665 -0.00426607 0.00310817
0.0 -0.0 -0.03
-0.00460791 0.00612042 0.00622768
0.000990783 0.0159785 0.00173813
0.00451388 0.0151319 0.0077643
-0.00577958 0.0156135 0.0082813
0.00673806 0.00267788 -0.00568862
0.0 -0.0 -0.03
-0.000321141 -0.000446693 0.00123042

VECTORS force float
-0.000109312 -0.000282917 2.22345e-05
-3.16748e-05 1.67999e-05 3.72858e-05
0.0 0.0 -1.43822e-06
-4.57014e-06 -4.35388e-06 1.17473e-06
9.46891e-07 -3.97752e-07 8.29867e-07
0.0 0.0 -1.43822e-06
0.000226268 -0.000368403 0.000671595
5.7833e-08 4.19372e-07 4.53966e-09
9.08511e-05 0.000392349 0.000236451
-5.47166e-06 -4.24363e-06 7.43457e-07
1.92955e-09 1.44028e-08 2.67731e-08
-4.02091e-08 -3.78945e-07 -4.46506e-07
-1.08006e-06 8.29496e-07 -5.25243e-07
1.00376e-05 4.67e-05 -6.09036e-05
-5.42624e-08 2.42893e-07 -1.85008e-07
-0.000178984 0.000446037 -0.000357151
0.000389381 0.000117333 0.000415332
-2.96911e-08 1.20956e-08 -2.83191e-08
-9.1286e-06 -5.14856e-06 9.48804e-05
9.13009e-20 2.43522e-21 2.32934e-21
0.0 0.0 -1.43822e-06
-3.88789e-08 -1.18899e-07 -1.43508e-06
-1.44594e-07 1.73213e-06 -3.35342e-05
-1.61964e-09 -6.6187e-09 1.16637e-08
3.8606e-07 6.53673e-07 7.82078e-08
0.000178795 -0.000503242 -6.41502e-05
6.38293e-08 -1.75434e-06 -3.3411e-07
-3.24589e-08 1.86814e-08 -5.01118e-08
-2.0205e-06 -7.66189e-07 1.13489e-06
5.31434e-07 3.22969e-06 4.43091e-06
3.85191e-09 1.05391e-06 3.79874e-06
-2.97325e-09 4.76135e-09 -1.4314e-08
-0.000183527 -0.00014998 0.000212468
-0.000119349 -7.5411e-05 0.000225109
-2.64698e-23 1.44757e-24 0.0
-5.74048e-05 4.492e-05 5.81127e-05
4.83929e-08 -7.26368e-07 2.48824e-07
9.14803e-08 -3.21256e-09 -4.42248e-07
1.20201e-05 4.01114e-05 2.93362e-05
2.82317e-05 -1.48895e-06 3.06321e-05
1.53302e-05 1.55593e-06 -4.77711e-06
-4.22372e-09 6.87996e-09 1.56397e-08
-1.20187e-07 -3.42751e-07 -2.13789e-07
-1.60578e-07 7.32871e-07 -8.79546e-07
1.12439e-05 1.85568e-05 -1.99281e-06
0.0666762 0.045608 0.0698258
2.80814e-05 -1.38402e-05 8.71352e-05
-1.14056e-07 6.77071e-08 -1.12581e-07
-2.03809e-07 6.82417e-07 -8.80024e-08
-2.70071e-09 1.28524e-08 8.13771e-09
3.96098e-09 2.41474e-08 2.80369e-08
0.000212617 -0.000209262 -5.08458e-05
-1.56526e-09 -4.07219e-09 -1.0155e-08
1.31492e-06 6.47348e-07 -7.39063e-06
-9.90478e-07 3.81129e-07 6.08455e-07
1.96869e-06 -3.58841e-06 -3.32348e-06
4.8565e-06 2.10254e-06 7.32898e-06
5.15472e-05 -0.000116121 -7.95587e-05
-1.01736e-06 1.88113e-07 -3.95439e-07
7.43566e-06 -6.0337e-06 5.4877e-06
-9.12239e-07 -5.083e-07 -7.67654e-08
0.000148225 7.15126e-05 3.20058e-05
0.000126502 2.71276e-05 3.88754e-05
0.0 0.0 -1.43822e-06
0.0 0.0 -1.43822e-06