# vtk DataFile Version 3.0
LIGGGHTS particles timestep 4200000
ASCII
DATASET POLYDATA
POINTS 225 float
0.0119024 0.0261681 0.0291412
0.0185161 0.0240379 0.0124227
0.0213126 0.0158621 0.0145962
0.0223757 0.0164446 0.016057
0.0245673 0.0227339 0.00924638
0.0211125 0.0239951 0.0131613
0.0182219 0.0235749 0.0154036
0.0165934 0.0237864 0.0166937
0.0242665 0.023299 0.0123658
0.0207844 0.0238462 0.0148349
0.0191486 0.0242837 0.0130073
0.021512 0.0233927 0.0143792
0.0173015 0.0225918 0.0161213
0.0219363 0.023781 0.0135224
0.0248492 0.0220007 0.0144836
0.0196931 0.024519 0.0136231
0.0402891 0.0167947 0.00659266
0.0244322 0.0183262 0.0167227
0.0187251 0.0234027 0.0111508
0.0174918 0.0240516 0.0128425
0.0227112 0.0154582 0.016271
0.0220443 0.0169916 0.00766396
0.0224159 0.022935 0.0226241
0.00798965 0.0205955 0.0379332
0.0160048 0.0236204 0.0139341
0.0231468 0.0216328 0.0082253
0.0151899 0.0230601 0.0305705
0.0245986 0.0221513 0.015136
0.0252916 0.0201239 0.0159392
0.0296393 0.0184913 0.00583954
0.0205508 0.0243734 0.0138165
0.0225022 0.0186825 0.0167227
0.0202347 0.0146126 0.0158728
0.0196888 0.0143068 0.01477
0.0225493 0.0235266 0.0152559
0.0186451 0.0237344 0.0131519
0.0215692 0.018822 0.0159353
0.0239661 0.0228161 0.00938428
0.0228286 0.0235029 0.0142123
0.0143237 0.0161804 0.0149127
0.0255494 0.019331 0.0158907
0.021896 0.0161428 0.00834463
0.0216917 0.0155234 0.00900556
0.0276662 0.0155301 0.00895846
0.0184519 0.0244322 0.0137775
0.0162559 0.0231103 0.0148506
0.0237912 0.0210381 0.016379
0.0173239 0.0243755 0.0139303
0.0210046 0.0146633 0.0122135
0.0208678 0.0179797 0.0158109
0.014229 0.0215692 0.0162875
0.0213983 0.0242728 0.0141
0.0222149 0.0240265 0.0145025
0.0171087 0.0215856 0.0161794
0.0242995 0.0156625 0.0155232
0.0153117 0.0202196 0.0158023
0.0212896 0.0142252 0.0179754
0.0147883 0.0193737 0.015947
0.0175947 0.0202779 0.0166084
0.0160672 0.0221022 0.0161319
0.0255918 0.0207906 0.0167704
0.0258428 0.0203724 0.0156493
0.0105762 0.0214879 0.0256233
0.00902489 0.0225345 0.0301562
0.0283669 0.0181952 0.00727107
0.0166185 0.0244865 0.018651
0.0167464 0.0238932 0.0133728
0.0234317 0.0227825 0.0093787
0.015296 0.0233141 0.0145692
0.016457 0.0153398 0.013943
0.0237787 0.0217682 0.00833333
0.0180708 0.0156904 0.0155438
0.0195854 0.0229337 0.0136285
0.0203762 0.0162676 0.0149695
0.0187662 0.0140059 0.0129606
0.0280647 0.0169012 0.00774925
0.0237065 0.0219834 0.016046
0.0192941 0.0240656 0.0144197
0.0189705 0.0165204 0.0206487
0.013891 0.0220146 0.014813
0.0192617 0.0232994 0.0106465
0.0166054 0.0240422 0.0145138
0.0163432 0.0144778 0.0144368
0.0266682 0.0151201 0.0131575
0.0200621 0.0172068 0.0155422
0.0231642 0.0200378 0.00739927
0.0234099 0.0168103 0.0162434
0.0219726 0.0149923 0.0157837
0.0214242 0.0150546 0.00983153
0.0144554 0.0202725 0.0166058
0.0164626 0.0204522 0.0165634
0.0175891 0.0228266 0.0151918
0.0258904 0.0210357 0.0152818
0.0174024 0.0234517 0.0144265
0.0182345 0.0233552 0.0123604
4.47563e-05 0.032652 0.0597849
0.0172788 0.0162431 0.0159768
0.0229831 0.01709 0.00762371
0.0271805 0.0147692 0.0111968
0.0183776 0.0236674 0.014416
0.0139171 0.0198681 0.0158667
0.0173317 0.0150323 0.0149859
0.0206301 0.0227224 0.0140009
0.0122277 0.021382 0.0231574
0.0178918 0.0240619 0.0165269
0.0186144 0.0242559 0.0205988
0.0155774 0.0185247 0.0159283
0.0144471 0.020692 0.0156285
0.0191726 0.0140325 0.0164717
0.0269015 0.0148203 0.012248
0.0138928 0.0187859 0.0159376
0.0230687 0.0203752 0.0165788
0.0247962 0.0218441 0.0159243
0.011681 0.00744724 0.0503497
0.0215882 0.0192953 0.016834
0.0233564 0.0230899 0.0147116
0.0227216 0.015413 0.0152719
0.0258154 0.0196983 0.0165405
0.0174228 0.0145119 0.0141369
0.0208056 0.014854 0.0131745
0.0192589 0.0232756 0.0126873
0.0202703 0.0143777 0.0139611
0.0251014 0.0212127 0.0153012
0.0209804 0.0227665 0.0151841
0.0153379 0.0214081 0.0160988
0.0227907 0.0227416 0.0184548
0.0228273 0.0225794 0.0154109
0.0148369 0.00727378 0.0379875
0.0163846 0.0153577 0.0149401
0.0149697 0.0223003 0.0158389
0.0155286 0.0148271 0.0139738
0.0206593 0.0240044 0.0123646
0.017575 0.0227167 0.00950028
0.016615 0.0232626 0.0158328
0.0144614 0.0170326 0.015465
0.0155911 0.0157203 0.0144444
0.0229182 0.0146906 0.0144572
0.0233172 0.0194012 0.0167414
0.0183138 0.0149818 0.0162063
0.0247385 0.0195078 0.0167523
0.0196661 0.0138031 0.0133466
0.0186355 0.0209135 0.0164516
0.0213648 0.0236567 0.0164756
0.0252015 0.0217701 0.0166786
0.0259669 0.0172326 0.0153629
0.0220005 -0.00196673 0.0528704
0.0154234 0.0231414 0.0155456
0.0273434 0.014946 0.0101727
0.0254318 0.0182777 0.016678
0.0142825 0.0144649 0.0435045
0.0181124 0.0234294 0.0116194
0.0211134 0.0148703 0.0162806
0.020119 0.0235624 0.0141645
0.0304879 0.0169274 0.00646272
0.0209648 0.0155624 0.0154849
0.0187981 0.0143504 0.0156008
0.0190774 0.015864 0.0156945
0.0264388 0.0157391 0.0142645
0.0234057 0.0182471 0.0166849
0.0160571 0.0149171 0.0131297
0.0190749 0.0151203 0.0150258
0.023397 0.0223098 0.00881194
0.0115975 0.0123217 0.0640133
0.0184959 0.0143902 0.0139351
0.0240077 0.0201813 0.0168625
0.0261013 0.0198677 0.0172597
0.0242593 0.0173881 0.0170786
0.0181966 0.0137776 0.0273913
0.0258557 0.0219766 0.00645039
0.0144525 0.0228416 0.0148239
0.025789 0.0179692 0.0202394
0.0236394 0.0151357 0.0149878
0.0166749 0.0142373 0.0135246
0.0220934 0.0162387 0.0150948
0.0162122 0.0190913 0.0167356
0.0251049 0.0208347 0.0156963
0.0164997 0.0120698 0.0266243
0.0176263 0.0141143 0.0132424
0.0205501 0.0154389 0.0141063
0.0132245 0.0215883 0.0163894
0.0207507 0.014782 0.0148735
0.0186968 0.0197308 0.0167272
0.024785 0.0163887 0.0160509
0.0133198 0.0206271 0.0161275
0.0223912 0.0176827 0.00747005
0.0219584 0.0140982 0.014466
0.0204088 0.0232305 0.0129306
0.0176693 0.0376552 0.0435188
0.0179047 0.0233276 0.0109479
0.023968 0.0226899 0.0153852
0.0219114 0.0150444 0.0147871
-0.000166833 -0.0037211 0.0659197
0.0218319 0.0177191 0.0157473
0.0085059 0.0214854 0.0304421
0.0213021 0.0147814 0.0140392
0.014715 0.0215659 0.0151641
0.0171017 0.0183014 0.016695
0.0147117 0.0154001 0.0140391
0.0197966 0.0237383 0.0132445
0.0217585 0.0148141 0.0128526
0.0181411 0.0142357 0.0148557
0.0128235 0.0228684 0.0223022
0.0210782 0.0138038 0.0140939
0.0252607 0.0191868 0.0195537
0.0220349 0.0113762 0.0255569
0.0177303 0.0169164 0.0172575
0.026129 0.0182606 0.0172841
0.0152676 0.0223854 0.0168795
0.0148575 0.0211287 0.0169302
0.0198597 0.0181523 0.0158527
0.01402 0.0225712 0.0156839
0.0183892 0.023093 0.0131179
0.0162465 0.024818 0.0198165
0.021172 0.0170027 0.0154468
0.0199737 0.0154415 0.0153742
0.02251 0.0175955 0.0165397
0.0136612 0.0212879 0.0154596
0.0240221 0.0214081 0.0173231
0.0222451 0.0146965 0.0137179
0.0173107 0.0124789 0.0652675
0.0139644 0.0203978 0.0176688
0.0234794 0.0234128 0.0154296
0.0182951 0.0231923 0.010447
0.0190202 0.0234294 0.0118738
0.0241195 0.0194036 0.0234314

VERTICES 225 450
1 0
1 1
1 2
1 3
1 4
1 5
1 6
1 7
1 8
1 9
1 10
1 11
1 12
1 13
1 14
1 15
1 16
1 17
1 18
1 19
1 20
1 21
1 22
1 23
1 24
1 25
1 26
1 27
1 28
1 29
1 30
1 31
1 32
1 33
1 34
1 35
1 36
1 37
1 38
1 39
1 40
1 41
1 42
1 43
1 44
1 45
1 46
1 47
1 48
1 49
1 50
1 51
1 52
1 53
1 54
1 55
1 56
1 57
1 58
1 59
1 60
1 61
1 62
1 63
1 64
1 65
1 66
1 67
1 68
1 69
1 70
1 71
1 72
1 73
1 74
1 75
1 76
1 77
1 78
1 79
1 80
1 81
1 82
1 83
1 84
1 85
1 86
1 87
1 88
1 89
1 90
1 91
1 92
1 93
1 94
1 95
1 96
1 97
1 98
1 99
1 100
1 101
1 102
1 103
1 104
1 105
1 106
1 107
1 108
1 109
1 110
1 111
1 112
1 113
1 114
1 115
1 116
1 117
1 118
1 119
1 120
1 121
1 122
1 123
1 124
1 125
1 126
1 127
1 128
1 129
1 130
1 131
1 132
1 133
1 134
1 135
1 136
1 137
1 138
1 139
1 140
1 141
1 142
1 143
1 144
1 145
1 146
1 147
1 148
1 149
1 150
1 151
1 152
1 153
1 154
1 155
1 156
1 157
1 158
1 159
1 160
1 161
1 162
1 163
1 164
1 165
1 166
1 167
1 168
1 169
1 170
1 171
1 172
1 173
1 174
1 175
1 176
1 177
1 178
1 179
1 180
1 181
1 182
1 183
1 184
1 185
1 186
1 187
1 188
1 189
1 190
1 191
1 192
1 193
1 194
1 195
1 196
1 197
1 198
1 199
1 200
1 201
1 202
1 203
1 204
1 205
1 206
1 207
1 208
1 209
1 210
1 211
1 212
1 213
1 214
1 215
1 216
1 217
1 218
1 219
1 220
1 221
1 222
1 223
1 224

POINT_DATA 225
SCALARS id int 1
LOOKUP_TABLE default
1
2
4
6
8
9
10
11
12
13
14
15
16
17
18
19
20
21
22
23
24
26
27
28
29
30
31
32
33
35
36
37
38
39
40
41
43
45
47
48
50
51
52
53
54
55
56
57
58
59
61
62
63
64
65
66
68
69
71
72
73
75
76
78
79
84
85
87
88
89
90
91
92
93
95
97
98
101
102
103
104
105
106
108
109
110
111
112
114
115
116
117
118
119
120
121
123
124
125
126
127
128
129
131
132
133
136
138
139
140
141
142
143
144
145
147
148
149
150
151
152
153
154
155
156
157
158
161
162
163
166
167
168
169
170
171
172
173
176
180
182
183
184
185
187
188
189
190
192
193
195
196
197
200
201
202
203
204
205
206
209
211
215
216
217
218
219
220
221
222
223
224
225
226
229
231
232
233
234
235
236
237
240
241
242
243
245
246
247
248
251
253
256
257
258
259
260
261
263
264
265
268
272
273
274
275
276
277
278
279
280
281
282
284
285
286
287
289
290
292
294
295
296
297
300

SCALARS type int 1
LOOKUP_TABLE default
1
1
1
1
1
1
1
1
1
1
1
1
1
1
1
1
1
1
1
1
1
1
1
1
1
1
1
1
1
1
1
1
1
1
1
1
1
1
1
1
1
1
1
1
1
1
1
1
1
1
1
1
1
1
1
1
1
1
1
1
1
1
1
1
1
1
1
1
1
1
1
1
1
1
1
1
1
1
1
1
1
1
1
1
1
1
1
1
1
1
1
1
1
1
1
1
1
1
1
1
1
1
1
1
1
1
1
1
1
1
1
1
1
1
1
1
1
1
1
1
1
1
1
1
1
1
1
1
1
1
1
1
1
1
1
1
1
1
1
1
1
1
1
1
1
1
1
1
1
1
1
1
1
1
1
1
1
1
1
1
1
1
1
1
1
1
1
1
1
1
1
1
1
1
1
1
1
1
1
1
1
1
1
1
1
1
1
1
1
1
1
1
1
1
1
1
1
1
1
1
1
1
1
1
1
1
1
1
1
1
1
1
1
1
1
1
1
1
1
1
1
1
1
1
1

SCALARS radius float 1
LOOKUP_TABLE default
0.0005
0.0005
0.0005
0.0005
0.0005
0.0005
0.0005
0.0005
0.0005
0.0005
0.0005
0.0005
0.0005
0.0005
0.0005
0.0005
0.0005
0.0005
0.0005
0.0005
0.0005
0.0005
0.0005
0.0005
0.0005
0.0005
0.0005
0.0005
0.0005
0.0005
0.0005
0.0005
0.0005
0.0005
0.0005
0.0005
0.0005
0.0005
0.0005
0.0005
0.0005
0.0005
0.0005
0.0005
0.0005
0.0005
0.0005
0.0005
0.0005
0.0005
0.0005
0.0005
0.0005
0.0005
0.0005
0.0005
0.0005
0.0005
0.0005
0.0005
0.0005
0.0005
0.0005
0.0005
0.0005
0.0005
0.0005
0.0005
0.0005
0.0005
0.0005
0.0005
0.0005
0.0005
0.0005
0.0005
0.0005
0.0005
0.0005
0.0005
0.0005
0.0005
0.0005
0.0005
0.0005
0.0005
0.0005
0.0005
0.0005
0.0005
0.0005
0.0005
0.0005
0.0005
0.0005
0.0005
0.0005
0.0005
0.0005
0.0005
0.0005
0.0005
0.0005
0.0005
0.0005
0.0005
0.0005
0.0005
0.0005
0.0005
0.0005
0.0005
0.0005
0.0005
0.0005
0.0005
0.0005
0.0005
0.0005
0.0005
0.0005
0.0005
0.0005
0.0005
0.0005
0.0005
0.0005
0.0005
0.0005
0.0005
0.0005
0.0005
0.0005
0.0005
0.0005
0.0005
0.0005
0.0005
0.0005
0.0005
0.0005
0.0005
0.0005
0.0005
0.0005
0.0005
0.0005
0.0005
0.0005
0.0005
0.0005
0.0005
0.0005
0.0005
0.0005
0.0005
0.0005
0.0005
0.0005
0.0005
0.0005
0.0005
0.0005
0.0005
0.0005
0.0005
0.0005
0.0005
0.0005
0.0005
0.0005
0.0005
0.0005
0.0005
0.0005
0.0005
0.0005
0.0005
0.0005
0.0005
0.0005
0.0005
0.0005
0.0005
0.0005
0.0005
0.0005
0.0005
0.0005
0.0005
0.0005
0.0005
0.0005
0.0005
0.0005
0.0005
0.0005
0.0005
0.0005
0.0005
0.0005
0.0005
0.0005
0.0005
0.0005
0.0005
0.0005
0.0005
0.0005
0.0005
0.0005
0.0005
0.0005
0.0005
0.0005
0.0005
0.0005
0.0005
0.0005
0.0005
0.0005
0.0005
0.0005
0.0005
0.0005

SCALARS mass float 1
LOOKUP_TABLE default
1.46608e-07
1.46608e-07
1.46608e-07
1.46608e-07
1.46608e-07
1.46608e-07
1.46608e-07
1.46608e-07
1.46608e-07
1.46608e-07
1.46608e-07
1.46608e-07
1.46608e-07
1.46608e-07
1.46608e-07
1.46608e-07
1.46608e-07
1.46608e-07
1.46608e-07
1.46608e-07
1.46608e-07
1.46608e-07
1.46608e-07
1.46608e-07
1.46608e-07
1.46608e-07
1.46608e-07
1.46608e-07
1.46608e-07
1.46608e-07
1.46608e-07
1.46608e-07
1.46608e-07
1.46608e-07
1.46608e-07
1.46608e-07
1.46608e-07
1.46608e-07
1.46608e-07
1.46608e-07
1.46608e-07
1.46608e-07
1.46608e-07
1.46608e-07
1.46608e-07
1.46608e-07
1.46608e-07
1.46608e-07
1.46608e-07
1.46608e-07
1.46608e-07
1.46608e-07
1.46608e-07
1.46608e-07
1.46608e-07
1.46608e-07
1.46608e-07
1.46608e-07
1.46608e-07
1.46608e-07
1.46608e-07
1.46608e-07
1.46608e-07
1.46608e-07
1.46608e-07
1.46608e-07
1.46608e-07
1.46608e-07
1.46608e-07
1.46608e-07
1.46608e-07
1.46608e-07
1.46608e-07
1.46608e-07
1.46608e-07
1.46608e-07
1.46608e-07
1.46608e-07
1.46608e-07
1.46608e-07
1.46608e-07
1.46608e-07
1.46608e-07
1.46608e-07
1.46608e-07
1.46608e-07
1.46608e-07
1.46608e-07
1.46608e-07
1.46608e-07
1.46608e-07
1.46608e-07
1.46608e-07
1.46608e-07
1.46608e-07
1.46608e-07
1.46608e-07
1.46608e-07
1.46608e-07
1.46608e-07
1.46608e-07
1.46608e-07
1.46608e-07
1.46608e-07
1.46608e-07
1.46608e-07
1.46608e-07
1.46608e-07
1.46608e-07
1.46608e-07
1.46608e-07
1.46608e-07
1.46608e-07
1.46608e-07
1.46608e-07
1.46608e-07
1.46608e-07
1.46608e-07
1.46608e-07
1.46608e-07
1.46608e-07
1.46608e-07
1.46608e-07
1.46608e-07
1.46608e-07
1.46608e-07
1.46608e-07
1.46608e-07
1.46608e-07
1.46608e-07
1.46608e-07
1.46608e-07
1.46608e-07
1.46608e-07
1.46608e-07
1.46608e-07
1.46608e-07
1.46608e-07
1.46608e-07
1.46608e-07
1.46608e-07
1.46608e-07
1.46608e-07
1.46608e-07
1.46608e-07
1.46608e-07
1.46608e-07
1.46608e-07
1.46608e-07
1.46608e-07
1.46608e-07
1.46608e-07
1.46608e-07
1.46608e-07
1.46608e-07
1.46608e-07
1.46608e-07
1.46608e-07
1.46608e-07
1.46608e-07
1.46608e-07
1.46608e-07
1.46608e-07
1.46608e-07
1.46608e-07
1.46608e-07
1.46608e-07
1.46608e-07
1.46608e-07
1.46608e-07
1.46608e-07
1.46608e-07
1.46608e-07
1.46608e-07
1.46608e-07
1.46608e-07
1.46608e-07
1.46608e-07
1.46608e-07
1.46608e-07
1.46608e-07
1.46608e-07
1.46608e-07
1.46608e-07
1.46608e-07
1.46608e-07
1.46608e-07
1.46608e-07
1.46608e-07
1.46608e-07
1.46608e-07
1.46608e-07
1.46608e-07
1.46608e-07
1.46608e-07
1.46608e-07
1.46608e-07
1.46608e-07
1.46608e-07
1.46608e-07
1.46608e-07
1.46608e-07
1.46608e-07
1.46608e-07
1.46608e-07
1.46608e-07
1.46608e-07
1.46608e-07
1.46608e-07
1.46608e-07
1.46608e-07
1.46608e-07
1.46608e-07
1.46608e-07
1.46608e-07
1.46608e-07
1.46608e-07
1.46608e-07
1.46608e-07
1.46608e-07
1.46608e-07
1.46608e-07
1.46608e-07
1.46608e-07
1.46608e-07

VECTORS velocity float
-0.122136 -0.0449312 0.202356
-9.0594e-05 0.00167797 0.000130581
0.0192322 0.00436595 0.00788964
-0.0305209 0.00619958 -0.100018
0.00424413 -0.000776043 -0.00102841
-0.000171339 -0.000730134 0.00159583
0.0267396 0.00428939 0.000958052
0.0188694 -0.00641698 -0.0390757
0.000402257 0.00379749 -0.0197481
-0.000298493 -0.000204099 -0.000131325
0.000680353 0.000770186 -0.000324285
-0.000320876 -0.000808542 -9.00132e-05
0.0155456 0.00374272 -0.0334919
3.17783e-05 0.000277304 -0.000336423
4.57132e-05 0.0164239 -0.0151552
0.000277185 0.000218495 -2.15469e-05
9.38149e-16 -8.55515e-15 -2.18626e-14
-0.000258678 0.0301297 0.0037867
0.000760632 0.00127087 -0.00202997
-0.000402309 0.000502567 -0.000862474
0.0053427 0.00594049 -0.000263814
0.000725586 -0.0178146 0.00802398
0.222852 -0.00254511 0.273858
-0.142443 -0.0864646 0.43579
0.000541913 -0.000436214 -0.000341996
0.00122695 -0.0149896 -0.0111714
-0.0732657 0.361646 0.131151
0.000283827 0.000943855 -0.00246389
0.00182584 0.0173725 -0.00289585
2.5161e-14 -2.46141e-16 2.95161e-13
-2.39436e-05 5.93203e-05 0.000419996
0.00327532 -0.00983435 0.00836531
-0.00541636 -0.00147639 -0.00223882
-0.00218336 0.00117855 0.00297112
-0.000104735 -0.000316128 -0.000166399
0.00117503 0.000951355 -0.00333587
-7.37493e-11 0.02047 0.00108924
0.00107102 -0.00577402 -0.00810805
-0.000154399 -0.000111012 -0.000956487
0.00234469 0.0083535 0.0077867
-0.000318706 0.0193407 -0.00123856
0.000174762 -0.0104926 0.00909986
0.000824918 -0.0114922 0.0171584
0.000978092 -0.00973594 0.0146023
0.000507234 -0.000353096 -0.000330128
-0.000769227 -0.0487095 0.0639332
-0.0037974 0.00768359 -0.00112957
-0.000789912 0.000451553 -0.00133865
0.00423673 0.000640171 0.00512739
2.44048e-11 0.019893 0.00496037
0.0113688 -0.0114721 -0.00949412
-3.29595e-05 -0.000183928 0.000108293
-9.06019e-06 -0.00019078 -1.91106e-05
0.0685432 -0.00599281 -0.00670706
0.00374986 0.00325837 0.00231524
0.000121031 0.0196941 -0.00559083
-0.00555282 0.0738621 -0.024821
0.00631274 0.0160254 -0.00152905
0.0115755 0.01758 -0.00354263
0.0429682 -0.0278464 0.0283906
-0.103814 0.120361 -0.0511578
0.00419447 0.0121446 -0.00502873
-0.0623549 -0.0814089 0.0833682
-0.162913 -0.140499 0.170433
0.00058875 -0.0200347 0.00416174
-0.0657116 -0.0374835 -0.066417
-0.0012954 0.00367217 -0.00631121
0.000462134 -0.00804574 -0.0140354
0.00193345 0.0018547 -0.0021093
0.00137974 0.000215975 -0.000621399
0.00049889 -0.015675 -0.0125919
-0.00279649 0.00206478 -0.000685598
0.000542443 0.00467383 -0.00687283
-2.52388e-05 0.00682431 0.00629112
-0.000496382 0.00100301 -0.00168373
0.000808048 -0.015258 0.0102632
-0.0148403 0.00907681 -0.0125522
-0.000359586 0.00159182 0.00158269
-0.0480741 -0.0746219 -0.0416371
-0.000900863 0.00317817 -0.00443081
0.00221022 -0.00075302 -0.00171206
2.33624e-05 0.000216202 -0.000421503
0.000241391 0.000414644 -0.000498987
9.27011e-05 0.00780705 0.0202561
0.000604101 0.0185597 0.00844584
-0.000105027 -0.0169663 -0.00705667
-0.00725497 0.00862763 0.0127191
0.00404457 0.00290689 0.00525902
0.000935189 -0.00652781 0.0171167
0.00491414 0.0093439 -0.00216175
-0.0257386 -0.0365078 0.00807037
0.00612994 0.0333011 -0.0296963
0.000328138 0.0126605 -0.0073256
-0.000453591 0.00470375 -0.0053638
0.00260868 0.00249997 -0.00876523
-0.454196 0.160853 0.954651
-0.0438018 -0.0264756 -0.0445041
0.000964781 -0.0156301 0.00584838
0.000551511 -0.00243607 0.0217605
-0.00191538 0.00430878 0.000703573
0.000421509 0.0170969 -0.00389906
0.00284763 0.0180811 -0.00906593
0.00321372 0.00506379 -0.00821896
0.000636687 -0.0429429 0.0198463
0.00823921 -0.0215908 -0.0541037
-0.00654041 0.000287497 -0.0324061
-3.10098e-09 0.0204463 0.00245623
-0.00101512 0.0164062 -0.0085716
-3.30344e-05 0.000298584 -0.000508997
0.00080329 0.00411629 0.0193816
1.11275e-10 0.0204807 0.00131929
-4.61303e-05 0.0239105 -0.00681118
-8.32599e-06 0.00144435 -0.00111034
-0.077875 -0.0653086 0.639248
0.0204763 0.00309633 -0.00985954
0.000234498 -0.00280199 -0.00445092
0.0023683 0.00326345 0.000727515
-0.000869447 0.00650651 -0.0001654
0.00076264 -1.95051e-06 0.00179573
0.00290865 0.000854924 0.00528828
0.00335736 0.00467841 -0.00595038
0.00936547 0.00772794 0.0122161
0.000109178 0.00594518 -0.00525941
-0.0649961 -0.0270099 0.0163772
0.00471154 0.00672056 0.00109963
0.104776 0.0595979 0.0805135
0.00324833 0.00100211 0.00119007
0.00378794 -0.0203378 0.309744
0.000691194 -0.0023565 -0.000246455
5.61853e-05 0.0065266 -0.00195313
3.63261e-05 0.000128587 -0.000468268
-0.00424609 -0.00193744 0.000937798
0.000489496 -0.010245 -0.0182664
0.0126998 0.00133498 -0.0514253
-0.000294921 0.0132532 0.00723208
-0.00299454 -0.00451437 -0.00351956
0.00379585 0.00122815 0.00431876
-3.52933e-09 0.0246592 -0.00178532
-0.00517634 -0.00200297 -0.00459747
0.000168474 0.0247215 -0.00213301
0.0102822 0.0114587 -0.0213121
-1.76704e-09 0.0232819 -0.00886648
0.068048 -0.0287191 0.00175127
-0.000113436 8.83616e-05 -0.000407293
0.0004329 0.0194361 0.00906298
-0.021798 -0.65621 0.845106
0.00118934 0.0066398 -0.00473856
0.000170424 -0.00753627 0.0207587
0.000337803 0.025382 0.00332995
-0.135726 0.125505 0.503125
0.00211977 -0.000437453 -0.00753135
-0.00040106 -0.00127565 -0.0022542
-0.00089577 0.000682529 -0.000627
-1.71135e-14 5.8615e-14 1.44097e-13
0.00143963 0.000551324 -0.00311773
0.000606243 0.000186044 -0.00106905
0.00297809 0.00427369 0.00108281
0.000328682 0.0130644 0.0159976
0.0608473 -0.0135095 -0.00267895
0.000472798 1.11527e-05 -0.000464634
0.00109093 0.005306 0.00540697
0.00104604 -0.0113597 -0.0128631
0.0249862 -0.0782877 1.03747
0.00925353 0.00201338 0.00294588
0.00605077 0.0347888 -0.022281
4.10423e-05 0.000303225 0.000284182
0.0263389 0.0193361 0.017518
0.190657 -0.112089 0.0786182
-0.000935373 -0.0243736 -0.0116101
0.000366077 0.00223999 0.000704427
-0.149519 0.0256088 -0.331917
0.00308625 0.00145556 0.00396654
0.000466087 8.3355e-05 -0.000372398
0.0426801 0.0224654 -0.039839
4.00452e-09 0.0246281 -0.000256682
0.00212715 0.0106199 -0.00424654
0.113089 -0.258659 0.0745853
0.0011373 -0.00118183 0.00227603
0.0045176 0.0079671 0.0121797
0.00361873 0.0117833 0.00182282
-0.00841195 -0.0015949 -0.00294219
-1.10075e-08 0.0246037 -0.0032416
-0.00142357 0.00521532 0.00243563
-0.00676108 0.00299116 -0.00510491
0.000190001 -0.0202709 0.00588955
0.0051071 0.000497266 0.00423857
0.0016366 0.00474978 -0.0125719
9.7286e-317 -9.67828e-317 -2.35252e-12
0.00126534 -0.00110655 -0.00884704
1.04606e-05 -0.000120959 -0.00157021
0.00428354 0.00129039 0.00459728
-0.637878 -0.703677 1.18433
2.45137e-11 0.0195626 0.00631505
-0.124837 -0.136143 0.208188
0.00375067 0.000880957 0.0050691
0.0104991 0.00746345 -0.00573677
9.43397e-10 0.0244484 0.00348759
0.000299162 0.00020747 -0.000931133
0.0020034 0.00225077 -0.00229722
0.00372832 0.000755543 0.00544342
-7.15292e-05 1.24642e-05 -0.000384861
-0.0545548 -0.0522326 -0.0170255
0.00502844 0.000583611 0.00501667
0.18036 -0.125957 0.105985
-0.0403479 -0.0132663 0.249638
-0.0381579 -0.0104236 0.0340293
0.000804668 0.00529567 0.00126557
-0.0348325 0.0108744 0.0332345
0.00732235 0.00871747 0.00207452
-1.96513e-11 0.0201011 0.00410361
0.000615035 0.00368305 -0.00108962
0.000854782 0.00449456 -0.012348
-0.0324955 -0.0289493 -0.0349494
1.6283e-10 0.0181684 0.00955574
-0.000999587 0.0123501 0.0133287
-7.30256e-10 0.0236843 0.00694536
-0.00210973 0.0048525 -0.0091799
-0.000425313 0.0177812 -0.00244066
0.00400377 0.000566374 0.00473962
0.0351865 -0.298743 1.22737
0.0354733 -0.0419799 -0.163055
-0.000125395 -0.000921897 -0.000738372
0.00205118 -0.000673151 -0.00638547
0.00303388 0.00432296 -0.00406461
0.262787 -0.166449 0.340863

VECTORS force float
0.0 0.0 -1.43822e-06
-6.05208e-07 -3.67285e-08 -3.63301e-07
3.58533e-07 -5.4673e-08 -1.62172e-06
0.0 0.0 -1.43822e-06
3.9763e-06 2.02687e-06 2.42203e-06
-4.3554e-08 -1.20824e-07 -1.8784e-08
0.0 0.0 -1.43822e-06
2.30719e-07 -3.02489e-07 -7.9748e-07
-2.38164e-09 -7.27172e-09 -1.51483e-08
2.78417e-07 1.46074e-07 2.31639e-07
-2.88556e-07 5.96426e-08 -8.29368e-08
3.07604e-08 5.94064e-07 -9.8056e-07
0.0 0.0 -1.43822e-06
-1.28131e-08 4.82318e-08 -1.49295e-07
2.35894e-09 -1.60101e-09 -2.27993e-09
-3.03597e-07 -4.9555e-09 1.17078e-07
1.96538e-20 -1.37643e-21 6.35275e-22
0.0 0.0 -1.43822e-06
3.15605e-07 -1.5087e-07 -4.41988e-07
4.60103e-09 2.94263e-08 1.45154e-08
0.0 0.0 -1.43822e-06
-7.35603e-09 1.68319e-08 7.51466e-08
0.0 0.0 -1.43822e-06
0.0 0.0 -1.43822e-06
-1.36488e-08 1.30492e-07 -1.78664e-07
-5.47377e-09 -9.5255e-09 -6.52452e-09
0.0 0.0 -1.43822e-06
2.46078e-07 -2.49109e-07 1.62398e-07
7.81537e-09 -3.98837e-08 1.69874e-08
0.0 -1.84813e-21 0.0
-2.61472e-08 -7.01392e-08 4.65734e-07
0.0 0.0 -1.43822e-06
0.0 0.0 -1.43822e-06
-6.46323e-07 5.75156e-08 -4.39174e-07
7.39351e-07 9.67483e-07 -3.81192e-07
2.07768e-07 4.35417e-07 -3.17244e-07
-4.94227e-16 7.52893e-10 -1.36184e-08
7.48806e-07 -1.23371e-06 -1.63755e-06
3.09898e-08 5.29954e-08 -2.97841e-08
7.98085e-09 3.98218e-10 -5.02238e-08
4.54943e-09 -2.84217e-08 -9.30211e-09
9.61863e-09 1.47791e-08 -9.92284e-09
-1.09997e-08 5.29606e-09 8.43925e-09
-2.96608e-10 6.04726e-09 2.16445e-08
-2.25449e-07 -1.32628e-07 -9.17923e-07
0.0 0.0 -1.43822e-06
1.27322e-07 1.41993e-06 -6.90323e-07
-1.22574e-07 -1.64065e-08 1.07202e-07
1.49958e-07 -2.97824e-07 -6.00106e-07
2.65016e-16 3.31699e-09 -1.32321e-08
0.0 0.0 -1.43822e-06
2.00693e-08 1.86762e-07 -9.25128e-08
1.38622e-07 2.12703e-07 -1.65359e-07
0.0 0.0 -1.43822e-06
3.2375e-07 8.68281e-08 6.77171e-07
-4.30594e-07 -1.65127e-07 -3.15497e-08
0.0 0.0 -1.43822e-06
-8.083e-07 6.04807e-07 -3.40909e-08
-5.61998e-07 5.33014e-07 -1.69321e-07
0.0 0.0 -1.43822e-06
0.0 0.0 -1.43822e-06
-3.59071e-08 -2.9086e-08 8.10424e-09
0.0 0.0 -1.43822e-06
0.0 0.0 -1.43822e-06
-3.45192e-09 -7.39987e-09 1.16977e-08
1.90868e-07 -2.94084e-07 -1.03648e-06
-3.12006e-08 1.43302e-07 -9.35211e-08
8.00819e-08 -7.80148e-07 -5.44488e-07
2.5117e-06 1.27046e-05 -7.1669e-06
-2.20535e-07 8.56515e-08 1.71486e-07
1.14408e-08 1.27067e-08 -1.51756e-09
1.04695e-07 1.25092e-09 -3.8695e-07
6.47861e-07 -9.02164e-07 3.42968e-06
-9.516e-10 -8.6817e-08 -5.88363e-08
6.43801e-09 1.55178e-10 3.04943e-08
-9.79796e-09 -1.75318e-08 2.40094e-08
0.0 0.0 -1.43822e-06
-1.43478e-06 4.87212e-06 3.46435e-06
0.0 0.0 -1.43822e-06
6.79129e-06 1.25811e-05 -1.3872e-05
-1.39368e-06 2.48452e-07 6.06993e-08
-2.80414e-07 2.98906e-07 1.26309e-07
8.99534e-08 -5.91693e-07 1.33344e-07
5.72468e-08 2.23712e-08 -1.76478e-07
-3.17319e-10 6.86375e-09 -1.16653e-08
1.3479e-08 -3.51107e-08 1.08502e-08
0.0 0.0 -1.43822e-06
9.05132e-07 8.25715e-08 8.64153e-07
5.07093e-09 1.63608e-10 5.56363e-08
2.83534e-06 4.00021e-06 4.73117e-06
4.46735e-07 1.29318e-06 -1.96565e-07
0.0 0.0 -1.43822e-06
-3.16101e-09 -1.89982e-08 1.53891e-08
-2.48204e-06 1.29119e-06 -3.45878e-06
-5.10586e-07 3.35231e-07 -1.96691e-06
0.0 0.0 -1.43822e-06
0.0 0.0 -1.43822e-06
2.03238e-08 6.72381e-08 -4.51075e-08
-1.02216e-08 1.00877e-08 1.10126e-08
7.47013e-07 -1.61289e-06 5.88327e-06
3.5964e-07 2.18328e-06 1.27607e-06
-1.4614e-07 2.4776e-07 -4.75433e-07
7.86392e-07 -1.55899e-06 3.44115e-06
0.0 0.0 -1.43822e-06
1.27768e-07 -7.57323e-06 1.09432e-05
0.0 0.0 -1.43822e-06
-5.8316e-14 1.87147e-09 -1.55782e-08
0.0 0.0 -1.43822e-06
-2.46037e-07 2.36875e-07 -4.73521e-07
5.54635e-07 -1.3505e-06 -3.1497e-06
2.02729e-16 9.60547e-10 -1.36256e-08
-1.0514e-07 5.23566e-07 -5.31637e-07
1.2085e-07 3.95566e-08 1.0377e-08
0.0 0.0 -1.43822e-06
0.0 0.0 -1.43822e-06
1.73079e-08 4.60182e-08 -5.04084e-08
-5.30518e-07 -1.21131e-07 -7.52759e-07
3.92681e-09 -1.19834e-07 2.65418e-08
6.38747e-08 5.20773e-07 -4.22988e-09
-5.7363e-07 3.86579e-07 2.76863e-07
-1.26089e-06 -1.20196e-06 1.28428e-06
-1.47144e-07 -9.5323e-07 -1.05168e-06
2.517e-08 -3.56715e-08 1.50784e-08
0.0 0.0 -1.43822e-06
5.88717e-06 -1.74462e-05 4.90676e-06
0.0 0.0 -1.43822e-06
-8.01578e-06 1.12981e-05 -1.12699e-05
0.0 0.0 -1.43822e-06
-1.0023e-07 7.51956e-08 -9.59041e-07
5.27806e-06 -6.43051e-06 5.91126e-06
2.41287e-07 -3.53748e-07 3.22574e-07
7.23658e-09 5.14877e-08 -1.35286e-07
-3.0775e-09 -1.29759e-08 2.2204e-10
0.0 0.0 -1.43822e-06
6.43229e-09 1.35255e-07 5.397e-08
9.62458e-08 -2.50631e-07 -2.23378e-07
9.34995e-07 1.51006e-07 2.6902e-07
-1.26384e-14 -1.33373e-09 -1.68102e-08
-1.0806e-07 8.15108e-07 7.43911e-07
-2.49208e-07 4.8863e-08 1.17003e-06
1.45684e-07 1.96902e-07 -3.64842e-07
-3.07525e-15 -6.13603e-09 -1.5859e-08
0.0 0.0 -1.43822e-06
-7.02665e-07 -4.75255e-07 2.99863e-07
-4.68288e-09 1.06938e-08 -3.10475e-09
0.0 0.0 -1.43822e-06
6.20535e-07 2.47954e-07 -3.42997e-07
-2.65519e-10 8.72845e-09 9.94824e-09
4.25169e-08 6.09182e-07 -1.90064e-08
0.0 0.0 -1.43822e-06
1.60205e-08 5.13988e-07 -4.50603e-07
-5.81663e-07 3.25806e-09 -3.27338e-07
-5.20488e-08 -1.91962e-08 1.31312e-06
-4.98691e-20 -4.57398e-20 1.41878e-20
0.0 0.0 -1.43822e-06
-3.0337e-06 8.96409e-07 9.06392e-07
-9.61853e-08 -1.54197e-07 -1.15878e-07
-1.92376e-09 1.57243e-08 4.10416e-11
0.0 0.0 -1.43822e-06
-2.95484e-07 -2.2791e-08 3.38728e-07
4.3002e-07 -3.10608e-07 2.12845e-07
-4.32853e-08 -2.0606e-07 -1.98636e-07
0.0 0.0 -1.43822e-06
4.58808e-07 4.70108e-08 1.10632e-07
7.16736e-07 7.09784e-07 4.04508e-06
9.60255e-09 -7.25593e-08 1.68703e-08
0.0 0.0 -1.43822e-06
0.0 0.0 -1.43822e-06
1.13665e-07 1.01675e-07 3.58676e-08
-1.21064e-06 7.21476e-06 1.56829e-07
0.0 0.0 -1.43822e-06
1.67378e-07 -6.34735e-07 4.29845e-07
-5.41503e-07 -1.36998e-07 5.73344e-07
-3.58533e-07 5.4673e-08 -1.25473e-06
8.13924e-15 -2.31684e-10 -1.67859e-08
9.05374e-09 -4.3614e-08 2.81977e-08
0.0 0.0 -1.43822e-06
-1.20996e-07 2.21353e-07 9.3553e-07
0.0 0.0 -1.43822e-06
5.90399e-07 -1.07459e-06 -9.25642e-07
-1.75808e-08 8.9119e-08 -1.00813e-06
-2.33652e-14 -2.24781e-09 -1.67821e-08
1.87833e-09 -1.41807e-08 5.66581e-09
-3.75789e-06 -9.42725e-06 1.04756e-05
-1.11887e-08 1.17524e-08 1.32188e-08
-3.28432e-07 -6.49917e-07 8.1348e-07
5.07961e-07 9.50879e-08 2.4758e-07
0.0 0.0 0.0
2.47871e-08 -4.97653e-07 -6.58778e-07
2.58173e-07 2.01051e-08 4.34264e-07
9.09872e-07 2.54283e-07 7.41421e-07
0.0 0.0 -1.43822e-06
2.72653e-16 4.34915e-09 -1.29803e-08
0.0 0.0 -1.43822e-06
1.17777e-06 4.42894e-07 1.12136e-06
-7.12972e-07 1.42688e-06 -5.94176e-07
3.02982e-15 2.34647e-09 -1.66728e-08
-1.18273e-07 -4.41726e-09 -5.17896e-09
3.4894e-07 -3.24216e-07 1.25214e-06
1.30307e-06 1.03117e-07 1.71263e-06
2.30511e-07 -2.10121e-08 -4.20591e-08
0.0 0.0 -1.43822e-06
-1.49341e-08 -4.77313e-07 6.18318e-07
0.0 0.0 -1.43822e-06
0.0 0.0 -1.43822e-06
0.0 0.0 -1.43822e-06
-3.26171e-08 -2.43459e-07 -3.08101e-08
0.0 0.0 -1.43822e-06
-8.59421e-08 -1.62017e-07 -1.39256e-06
1.05946e-14 2.69537e-09 -1.33834e-08
1.62278e-06 -3.87914e-06 5.28484e-06
3.83038e-07 -1.3446e-07 -6.65891e-07
0.0 0.0 -1.43822e-06
-4.74968e-17 6.45086e-09 -1.20456e-08
2.25962e-07 -3.74854e-08 -2.11196e-07
-5.3538e-13 4.81478e-09 -1.61248e-08
1.26322e-05 -1.19504e-05 2.11612e-05
0.0 0.0 -1.43822e-06
6.42207e-07 1.61176e-06 2.41319e-06
0.0 0.0 -1.43822e-06
0.0 0.0 -1.43822e-06
1.10693e-07 4.05362e-08 -3.37165e-08
1.21285e-06 -2.34168e-07 -1.49256e-06
2.48845e-07 -4.69931e-07 -8.40488e-07
0.0 0.0 -1.43822e-06
