# vtk DataFile Version 3.0
LIGGGHTS particles timestep 1600000
ASCII
DATASET POLYDATA
POINTS 298 float
0.0207835 0.0238474 0.0148149
0.017894 0.0236031 0.0135255
0.024325 0.0224974 0.0160577
0.014439 0.0216122 0.0160796
0.0228787 0.0147041 0.0144203
0.0182183 0.0204762 0.01729
0.0186832 0.019653 0.0160726
0.0221582 0.0218744 0.0166754
0.0209263 0.0240186 0.0130223
0.0189053 0.0172618 0.0163568
0.0172808 0.0235715 0.0119589
0.0205645 0.0151262 0.00969973
0.01602 0.0236179 0.0141207
0.0187181 0.0239291 0.0134731
0.0250257 0.0208807 0.015771
0.0189391 0.0223099 0.0145623
0.0218602 0.0238237 0.0133804
0.0217028 0.0177094 0.00739587
0.0193785 0.0244849 0.0136808
0.0236738 0.0226131 0.0141787
0.019256 0.0166988 0.0153598
0.0196872 0.0191409 0.0161286
0.0175361 0.0240705 0.0128941
0.0227125 0.023032 0.00980111
0.0211809 0.0135164 0.0185812
0.0188444 0.0228978 0.0137576
0.0207016 0.0146217 0.012113
0.0219447 0.0203726 0.00743337
0.0152494 0.0233809 0.0147122
0.0192629 0.0240584 0.0164328
0.0238683 0.0214552 0.016455
0.019951 0.0148029 0.0128548
0.0212449 0.0157419 0.0150769
0.0188317 0.0186456 0.0160303
0.0244945 0.0215254 0.0153066
0.0203289 0.024397 0.013743
0.0211132 0.0165338 0.00796804
0.0208683 0.0158336 0.00860518
0.0208748 0.0240226 0.016988
0.0229231 0.0238106 0.014943
0.0173906 0.0234635 0.0142404
0.0223858 0.021949 0.00845648
0.0178057 0.023482 0.0116002
0.0184987 0.0233185 0.0150608
0.0219705 0.0238871 0.014728
0.023452 0.0229541 0.00946533
0.0228893 0.0231264 0.0146515
0.02145 0.0143018 0.0135641
0.0193957 0.0229969 0.0191629
0.0217375 0.019299 0.00716364
0.0181545 0.0233694 0.012385
0.0199513 0.0240897 0.0126694
0.02554 0.0200901 0.015925
0.0178373 0.0244332 0.0137984
0.0138957 0.0222952 0.0155916
0.0180029 0.0150717 0.0149343
0.0167967 0.0239138 0.0135517
0.0186842 0.0240189 0.012545
0.0229307 0.0223619 0.00888358
0.0207745 0.0150159 0.0133805
0.016989 0.0240884 0.0145431
0.0212681 0.0243392 0.0139599
0.0225394 0.0236174 0.0140164
0.0201336 0.0169493 0.0156946
0.0214105 0.0146594 0.0165859
0.0180859 0.0235573 0.0160101
0.0197998 0.0179988 0.0158194
0.021348 0.0235213 0.0140704
0.0161382 0.0236597 0.0151296
0.0234907 0.023189 0.0154726
0.0195636 0.023238 0.0151508
0.0171621 0.0201685 0.0170541
0.0250403 0.0218768 0.0164935
0.0202408 0.0147216 0.0112314
0.025582 0.020982 0.0166398
0.017854 0.0228326 0.013707
0.0169465 0.0219088 0.0174751
0.0197662 0.0232272 0.0174833
0.0256296 0.0182293 0.0159442
0.0158412 0.0227168 0.0152818
0.0236843 0.0213515 0.0178477
0.0143685 0.0188363 0.0159454
0.0191665 0.0221242 0.0178326
0.0181 0.0143768 0.0139125
0.0145012 0.02053 0.0165124
0.0212841 0.0154574 0.0141191
0.0195587 0.0201904 0.0160102
0.0149565 0.0223256 0.0155836
0.0153323 0.0204803 0.0170985
0.0173854 0.0232647 0.0125523
0.0176688 0.0148544 0.0158513
0.0205442 0.0196091 0.0159463
0.0193415 0.0140005 0.0130545
0.0145799 0.0246099 0.0212483
0.0167945 0.0234495 0.0158926
0.0182803 0.0218393 0.0182117
0.0256857 0.0191493 0.0159401
0.0168395 0.0230015 0.0149994
0.0174826 0.0158928 0.0156997
0.0179566 0.0224065 0.0145928
0.0205172 0.0229205 0.0150686
0.0204041 0.0216804 0.0202601
0.0201132 0.0239522 0.0157912
0.0161667 0.0201836 0.0166277
0.0144032 0.0229689 0.0150546
0.0192456 0.0239809 0.0145377
0.0236138 0.0229484 0.0133593
0.0186485 0.0207968 0.0160648
0.0174581 0.0214068 0.0162445
0.0197414 0.0226467 0.0140971
0.0179856 0.0233426 0.010932
0.0206601 0.0231232 0.0164563
0.018755 0.0234572 0.0116689
0.0215182 0.0147533 0.0126747
0.0153023 0.0211323 0.0163183
0.0259214 0.019681 0.0169063
0.0175215 0.0246144 0.0185406
0.0241654 0.0224187 0.0152246
0.0208554 0.0147995 0.0147382
0.020079 0.0235575 0.0141786
0.0197305 0.0225544 0.0163133
0.0236094 0.0151001 0.0149762
0.0229551 0.0232942 0.010675
0.0238763 0.0221501 0.0146321
0.0164196 0.0211967 0.0163065
0.0209019 0.0215986 0.0172977
0.0189554 0.0232501 0.012837
0.0198597 0.0177779 0.0179862
0.0215818 0.0227229 0.0167859
0.0157993 0.0173089 0.0164503
0.0158534 0.0219352 0.0159055
0.0223611 0.0167027 0.0162091
0.0237721 0.0201139 0.0170576
0.0188395 0.0240031 0.017823
0.0161781 0.0143794 0.0139007
0.0231918 0.016015 0.016376
0.0189157 0.0137987 0.013914
0.0135155 0.0214345 0.0152526
0.0235425 0.0231645 0.0101456
0.0243405 0.0159333 0.0157651
0.0204417 0.014015 0.0132267
0.0217101 0.0229629 0.0149905
0.0224404 0.0229621 0.016306
0.0153941 0.0183992 0.0171932
0.0207529 0.0221752 0.0159733
0.0202439 0.0208344 0.0156286
0.0210552 0.017258 0.015723
0.0250133 0.0175697 0.0159381
0.0187669 0.0228442 0.0164383
0.0156055 0.0158184 0.0160706
0.0193368 0.0183293 0.0186736
0.0221628 0.0202519 0.0174917
0.0170599 0.0144933 0.0165576
0.018117 0.0166195 0.0161683
0.0178042 0.0226716 0.0168669
0.0164 0.0227975 0.0174946
0.021809 0.0222324 0.0156715
0.0168286 0.0221745 0.0159398
0.0164875 0.0162913 0.0159463
0.0208008 0.0139382 0.0142322
0.0189465 0.0146505 0.0144366
0.0176603 0.0180758 0.0166943
0.0196896 0.0153428 0.0139493
0.0214548 0.0176388 0.0165575
0.0244749 0.0153935 0.0197476
0.0232252 0.017487 0.0165147
0.0174204 0.0209721 0.0176631
0.0145638 0.0150231 0.0150622
0.0134414 0.0184634 0.0159077
0.0140872 0.0160123 0.0147424
0.0199732 0.0221016 0.0149011
0.0148139 0.0170283 0.0154744
0.0192422 0.025006 0.0195505
0.0179687 0.0233104 0.020603
0.0181739 0.0216012 0.0152586
0.0213766 0.0208676 0.0210661
0.0212941 0.020697 0.018207
0.0202451 0.0156755 0.0149668
0.0218134 0.0197041 0.016719
0.0177415 0.0224691 0.0192165
0.0154048 0.022842 0.0172312
0.0214953 0.0233548 0.0158852
0.0213703 0.021407 0.0161933
0.0222036 0.0182909 0.0166771
0.0188402 0.0210437 0.018615
0.0226465 0.0227206 0.00927927
0.0182201 0.0181896 0.0183387
0.0158853 0.0216776 0.0170019
0.0245857 0.0198081 0.0158777
0.0177674 0.019377 0.0167849
0.0164448 0.0149454 0.0147572
0.0220314 0.0207056 0.0165782
0.0218797 0.0146835 0.0143822
0.0208196 0.0182789 0.0158759
0.0176324 0.0199635 0.0182904
0.0228087 0.0155373 0.0153988
0.0201234 0.0195435 0.0169897
0.0218391 0.0214027 0.0176236
0.022347 0.0146597 0.015266
0.0130398 0.0206493 0.0156489
0.0195384 0.0177206 0.0169895
0.0206152 0.020379 0.0165891
0.018754 0.015497 0.0154403
0.0210775 0.0187608 0.0167127
0.0229429 0.0210702 0.0163902
0.0148533 0.0155696 0.0142765
0.019454 0.0207327 0.0172038
0.0146784 0.0221848 0.017549
0.0191649 0.0216865 0.0153091
0.0171377 0.0145082 0.0141501
0.0241709 0.0190155 0.0167902
0.0199661 0.0144739 0.0143597
0.0184228 0.0143223 0.0154462
0.015128 0.0221566 0.0165577
0.0227797 0.0200046 0.0166991
0.0227526 0.0225102 0.0154623
0.0154962 0.015507 0.0150398
0.0153658 0.0147168 0.0143763
0.0212384 0.0196026 0.0175316
0.0141819 0.0198162 0.0158784
0.0141865 0.0207761 0.0155926
0.0159603 0.0228364 0.0163413
0.0167114 0.019296 0.0167475
0.0183647 0.0213616 0.0199175
0.0215828 0.0175298 0.0264876
0.0161867 0.0200783 0.0203785
0.0157761 0.0197467 0.0184448
0.017829 0.0170462 0.0251005
0.0205808 0.0185802 0.0175896
0.0191783 0.0221719 0.0279709
0.0179497 0.0158568 0.0195503
0.0169423 0.0218894 0.0195543
0.0193669 0.0231578 0.0267461
0.0171385 0.0198365 0.029434
0.0220084 0.019851 0.0253627
0.0200309 0.0219762 0.0289268
0.0226257 0.0188297 0.0208179
0.0201646 0.0231648 0.0233098
0.0206947 0.0232319 0.0259239
0.0171541 0.0151369 0.0249662
0.0193139 0.0185347 0.0251922
0.0229379 0.0181772 0.0284587
0.0157168 0.0192946 0.0276796
0.0202576 0.0206309 0.0186326
0.0157582 0.0206978 0.0256347
0.0196655 0.0162549 0.0253447
0.0184883 0.0202613 0.0262301
0.0173648 0.0186375 0.0275452
0.0171947 0.0231327 0.0197658
0.0208702 0.0219483 0.026096
0.0216681 0.0204391 0.0226073
0.0221917 0.021245 0.0242425
0.0174041 0.0230338 0.0270467
0.01967 0.0186017 0.0271135
0.0205531 0.0175965 0.024017
0.0148504 0.0179687 0.0158166
0.0160687 0.021633 0.0180163
0.0195052 0.0145617 0.0152611
0.0191913 0.0235991 0.0201802
0.0229501 0.0190184 0.0167751
0.0180764 0.0168487 0.017763
0.0200572 0.0153213 0.0184726
0.0206835 0.017002 0.0260367
0.0205848 0.0224751 0.017882
0.0164672 0.0161975 0.0197852
0.0215505 0.0182918 0.0204372
0.0174656 0.0178989 0.0308521
0.0213047 0.0222373 0.0246499
0.0151147 0.0172589 0.0179595
0.0159407 0.017941 0.0215989
0.0149694 0.0183324 0.0255339
0.0195394 0.0206572 0.0212333
0.0231053 0.0220976 0.0163405
0.0214877 0.0185159 0.0257961
0.0177135 0.0151418 0.0230012
0.0185544 0.0184247 0.0282826
0.0160151 0.0156868 0.0258052
0.0148922 0.0193486 0.0262504
0.0172191 0.0180305 0.0224698
0.0195021 0.0169913 0.0234026
0.0184411 0.0214011 0.0259562
0.0188709 0.0149406 0.0284497
0.0210161 0.0162086 0.0268568
0.0156139 0.0164404 0.0303838
0.016218 0.0164448 0.0230774
0.0177254 0.0176999 0.0196358
0.016857 0.0154481 0.0163405
0.0209165 0.0239857 0.0182692
0.0202567 0.0158466 0.0307993
0.0201768 0.0180519 0.020829
0.0198009 0.0230552 0.0307218
0.0160612 0.0197825 0.0243947
0.0219474 0.0163928 0.0200227
0.0151788 0.0208905 0.0244475
0.0145576 0.0195551 0.0225984
0.0164307 0.0226373 0.0236212
0.0207558 0.0193781 0.0306032
0.018417 0.0202792 0.0217368

VERTICES 298 596
1 0
1 1
1 2
1 3
1 4
1 5
1 6
1 7
1 8
1 9
1 10
1 11
1 12
1 13
1 14
1 15
1 16
1 17
1 18
1 19
1 20
1 21
1 22
1 23
1 24
1 25
1 26
1 27
1 28
1 29
1 30
1 31
1 32
1 33
1 34
1 35
1 36
1 37
1 38
1 39
1 40
1 41
1 42
1 43
1 44
1 45
1 46
1 47
1 48
1 49
1 50
1 51
1 52
1 53
1 54
1 55
1 56
1 57
1 58
1 59
1 60
1 61
1 62
1 63
1 64
1 65
1 66
1 67
1 68
1 69
1 70
1 71
1 72
1 73
1 74
1 75
1 76
1 77
1 78
1 79
1 80
1 81
1 82
1 83
1 84
1 85
1 86
1 87
1 88
1 89
1 90
1 91
1 92
1 93
1 94
1 95
1 96
1 97
1 98
1 99
1 100
1 101
1 102
1 103
1 104
1 105
1 106
1 107
1 108
1 109
1 110
1 111
1 112
1 113
1 114
1 115
1 116
1 117
1 118
1 119
1 120
1 121
1 122
1 123
1 124
1 125
1 126
1 127
1 128
1 129
1 130
1 131
1 132
1 133
1 134
1 135
1 136
1 137
1 138
1 139
1 140
1 141
1 142
1 143
1 144
1 145
1 146
1 147
1 148
1 149
1 150
1 151
1 152
1 153
1 154
1 155
1 156
1 157
1 158
1 159
1 160
1 161
1 162
1 163
1 164
1 165
1 166
1 167
1 168
1 169
1 170
1 171
1 172
1 173
1 174
1 175
1 176
1 177
1 178
1 179
1 180
1 181
1 182
1 183
1 184
1 185
1 186
1 187
1 188
1 189
1 190
1 191
1 192
1 193
1 194
1 195
1 196
1 197
1 198
1 199
1 200
1 201
1 202
1 203
1 204
1 205
1 206
1 207
1 208
1 209
1 210
1 211
1 212
1 213
1 214
1 215
1 216
1 217
1 218
1 219
1 220
1 221
1 222
1 223
1 224
1 225
1 226
1 227
1 228
1 229
1 230
1 231
1 232
1 233
1 234
1 235
1 236
1 237
1 238
1 239
1 240
1 241
1 242
1 243
1 244
1 245
1 246
1 247
1 248
1 249
1 250
1 251
1 252
1 253
1 254
1 255
1 256
1 257
1 258
1 259
1 260
1 261
1 262
1 263
1 264
1 265
1 266
1 267
1 268
1 269
1 270
1 271
1 272
1 273
1 274
1 275
1 276
1 277
1 278
1 279
1 280
1 281
1 282
1 283
1 284
1 285
1 286
1 287
1 288
1 289
1 290
1 291
1 292
1 293
1 294
1 295
1 296
1 297

POINT_DATA 298
SCALARS id int 1
LOOKUP_TABLE default
1
2
3
4
5
6
7
8
9
10
11
12
13
14
15
16
17
18
19
20
21
22
23
24
25
26
27
28
29
30
31
32
33
34
35
36
37
38
39
40
41
42
43
44
45
46
47
48
49
50
51
52
53
54
55
56
57
58
59
60
61
62
63
64
65
66
67
68
69
70
71
72
73
74
75
76
77
78
79
80
81
82
83
84
85
86
87
88
89
90
91
92
93
94
95
96
97
98
99
100
101
102
103
104
105
106
108
109
110
111
112
113
114
115
116
117
118
119
120
121
122
123
124
125
126
127
128
129
130
131
132
133
134
135
136
137
138
139
140
141
142
143
144
145
146
147
148
149
150
151
152
153
154
155
156
157
158
159
160
161
162
163
164
165
166
167
168
169
170
171
172
173
174
175
176
177
178
179
180
181
182
183
184
185
186
187
188
189
190
191
192
193
194
195
196
197
198
200
201
202
203
204
205
206
207
208
209
210
211
212
213
214
215
216
217
218
219
220
221
222
223
224
225
226
227
228
229
230
231
232
233
234
235
236
237
238
239
240
241
242
243
244
245
246
247
248
249
250
251
252
253
254
255
256
257
258
259
260
261
262
263
264
265
266
267
268
269
270
271
272
273
274
275
276
277
278
279
280
281
282
283
284
285
286
287
288
289
290
291
292
293
294
295
296
297
298
299
300

SCALARS type int 1
LOOKUP_TABLE default
1
1
1
1
1
1
1
1
1
1
1
1
1
1
1
1
1
1
1
1
1
1
1
1
1
1
1
1
1
1
1
1
1
1
1
1
1
1
1
1
1
1
1
1
1
1
1
1
1
1
1
1
1
1
1
1
1
1
1
1
1
1
1
1
1
1
1
1
1
1
1
1
1
1
1
1
1
1
1
1
1
1
1
1
1
1
1
1
1
1
1
1
1
1
1
1
1
1
1
1
1
1
1
1
1
1
1
1
1
1
1
1
1
1
1
1
1
1
1
1
1
1
1
1
1
1
1
1
1
1
1
1
1
1
1
1
1
1
1
1
1
1
1
1
1
1
1
1
1
1
1
1
1
1
1
1
1
1
1
1
1
1
1
1
1
1
1
1
1
1
1
1
1
1
1
1
1
1
1
1
1
1
1
1
1
1
1
1
1
1
1
1
1
1
1
1
1
1
1
1
1
1
1
1
1
1
1
1
1
1
1
1
1
1
1
1
1
1
1
1
1
1
1
1
1
1
1
1
1
1
1
1
1
1
1
1
1
1
1
1
1
1
1
1
1
1
1
1
1
1
1
1
1
1
1
1
1
1
1
1
1
1
1
1
1
1
1
1
1
1
1
1
1
1
1
1
1
1
1
1
1
1
1
1
1
1
1
1
1
1
1
1
1
1
1
1
1
1

SCALARS radius float 1
LOOKUP_TABLE default
0.0005
0.0005
0.0005
0.0005
0.0005
0.0005
0.0005
0.0005
0.0005
0.0005
0.0005
0.0005
0.0005
0.0005
0.0005
0.0005
0.0005
0.0005
0.0005
0.0005
0.0005
0.0005
0.0005
0.0005
0.0005
0.0005
0.0005
0.0005
0.0005
0.0005
0.0005
0.0005
0.0005
0.0005
0.0005
0.0005
0.0005
0.0005
0.0005
0.0005
0.0005
0.0005
0.0005
0.0005
0.0005
0.0005
0.0005
0.0005
0.0005
0.0005
0.0005
0.0005
0.0005
0.0005
0.0005
0.0005
0.0005
0.0005
0.0005
0.0005
0.0005
0.0005
0.0005
0.0005
0.0005
0.0005
0.0005
0.0005
0.0005
0.0005
0.0005
0.0005
0.0005
0.0005
0.0005
0.0005
0.0005
0.0005
0.0005
0.0005
0.0005
0.0005
0.0005
0.0005
0.0005
0.0005
0.0005
0.0005
0.0005
0.0005
0.0005
0.0005
0.0005
0.0005
0.0005
0.0005
0.0005
0.0005
0.0005
0.0005
0.0005
0.0005
0.0005
0.0005
0.0005
0.0005
0.0005
0.0005
0.0005
0.0005
0.0005
0.0005
0.0005
0.0005
0.0005
0.0005
0.0005
0.0005
0.0005
0.0005
0.0005
0.0005
0.0005
0.0005
0.0005
0.0005
0.0005
0.0005
0.0005
0.0005
0.0005
0.0005
0.0005
0.0005
0.0005
0.0005
0.0005
0.0005
0.0005
0.0005
0.0005
0.0005
0.0005
0.0005
0.0005
0.0005
0.0005
0.0005
0.0005
0.0005
0.0005
0.0005
0.0005
0.0005
0.0005
0.0005
0.0005
0.0005
0.0005
0.0005
0.0005
0.0005
0.0005
0.0005
0.0005
0.0005
0.0005
0.0005
0.0005
0.0005
0.0005
0.0005
0.0005
0.0005
0.0005
0.0005
0.0005
0.0005
0.0005
0.0005
0.0005
0.0005
0.0005
0.0005
0.0005
0.0005
0.0005
0.0005
0.0005
0.0005
0.0005
0.0005
0.0005
0.0005
0.0005
0.0005
0.0005
0.0005
0.0005
0.0005
0.0005
0.0005
0.0005
0.0005
0.0005
0.0005
0.0005
0.0005
0.0005
0.0005
0.0005
0.0005
0.0005
0.0005
0.0005
0.0005
0.0005
0.0005
0.0005
0.0005
0.0005
0.0005
0.0005
0.0005
0.0005
0.0005
0.0005
0.0005
0.0005
0.0005
0.0005
0.0005
0.0005
0.0005
0.0005
0.0005
0.0005
0.0005
0.0005
0.0005
0.0005
0.0005
0.0005
0.0005
0.0005
0.0005
0.0005
0.0005
0.0005
0.0005
0.0005
0.0005
0.0005
0.0005
0.0005
0.0005
0.0005
0.0005
0.0005
0.0005
0.0005
0.0005
0.0005
0.0005
0.0005
0.0005
0.0005
0.0005
0.0005
0.0005
0.0005
0.0005
0.0005
0.0005
0.0005
0.0005
0.0005
0.0005
0.0005
0.0005
0.0005
0.0005
0.0005
0.0005
0.0005
0.0005
0.0005
0.0005
0.0005
0.0005
0.0005
0.0005
0.0005
0.0005
0.0005
0.0005
0.0005
0.0005

SCALARS mass float 1
LOOKUP_TABLE default
1.46608e-07
1.46608e-07
1.46608e-07
1.46608e-07
1.46608e-07
1.46608e-07
1.46608e-07
1.46608e-07
1.46608e-07
1.46608e-07
1.46608e-07
1.46608e-07
1.46608e-07
1.46608e-07
1.46608e-07
1.46608e-07
1.46608e-07
1.46608e-07
1.46608e-07
1.46608e-07
1.46608e-07
1.46608e-07
1.46608e-07
1.46608e-07
1.46608e-07
1.46608e-07
1.46608e-07
1.46608e-07
1.46608e-07
1.46608e-07
1.46608e-07
1.46608e-07
1.46608e-07
1.46608e-07
1.46608e-07
1.46608e-07
1.46608e-07
1.46608e-07
1.46608e-07
1.46608e-07
1.46608e-07
1.46608e-07
1.46608e-07
1.46608e-07
1.46608e-07
1.46608e-07
1.46608e-07
1.46608e-07
1.46608e-07
1.46608e-07
1.46608e-07
1.46608e-07
1.46608e-07
1.46608e-07
1.46608e-07
1.46608e-07
1.46608e-07
1.46608e-07
1.46608e-07
1.46608e-07
1.46608e-07
1.46608e-07
1.46608e-07
1.46608e-07
1.46608e-07
1.46608e-07
1.46608e-07
1.46608e-07
1.46608e-07
1.46608e-07
1.46608e-07
1.46608e-07
1.46608e-07
1.46608e-07
1.46608e-07
1.46608e-07
1.46608e-07
1.46608e-07
1.46608e-07
1.46608e-07
1.46608e-07
1.46608e-07
1.46608e-07
1.46608e-07
1.46608e-07
1.46608e-07
1.46608e-07
1.46608e-07
1.46608e-07
1.46608e-07
1.46608e-07
1.46608e-07
1.46608e-07
1.46608e-07
1.46608e-07
1.46608e-07
1.46608e-07
1.46608e-07
1.46608e-07
1.46608e-07
1.46608e-07
1.46608e-07
1.46608e-07
1.46608e-07
1.46608e-07
1.46608e-07
1.46608e-07
1.46608e-07
1.46608e-07
1.46608e-07
1.46608e-07
1.46608e-07
1.46608e-07
1.46608e-07
1.46608e-07
1.46608e-07
1.46608e-07
1.46608e-07
1.46608e-07
1.46608e-07
1.46608e-07
1.46608e-07
1.46608e-07
1.46608e-07
1.46608e-07
1.46608e-07
1.46608e-07
1.46608e-07
1.46608e-07
1.46608e-07
1.46608e-07
1.46608e-07
1.46608e-07
1.46608e-07
1.46608e-07
1.46608e-07
1.46608e-07
1.46608e-07
1.46608e-07
1.46608e-07
1.46608e-07
1.46608e-07
1.46608e-07
1.46608e-07
1.46608e-07
1.46608e-07
1.46608e-07
1.46608e-07
1.46608e-07
1.46608e-07
1.46608e-07
1.46608e-07
1.46608e-07
1.46608e-07
1.46608e-07
1.46608e-07
1.46608e-07
1.46608e-07
1.46608e-07
1.46608e-07
1.46608e-07
1.46608e-07
1.46608e-07
1.46608e-07
1.46608e-07
1.46608e-07
1.46608e-07
1.46608e-07
1.46608e-07
1.46608e-07
1.46608e-07
1.46608e-07
1.46608e-07
1.46608e-07
1.46608e-07
1.46608e-07
1.46608e-07
1.46608e-07
1.46608e-07
1.46608e-07
1.46608e-07
1.46608e-07
1.46608e-07
1.46608e-07
1.46608e-07
1.46608e-07
1.46608e-07
1.46608e-07
1.46608e-07
1.46608e-07
1.46608e-07
1.46608e-07
1.46608e-07
1.46608e-07
1.46608e-07
1.46608e-07
1.46608e-07
1.46608e-07
1.46608e-07
1.46608e-07
1.46608e-07
1.46608e-07
1.46608e-07
1.46608e-07
1.46608e-07
1.46608e-07
1.46608e-07
1.46608e-07
1.46608e-07
1.46608e-07
1.46608e-07
1.46608e-07
1.46608e-07
1.46608e-07
1.46608e-07
1.46608e-07
1.46608e-07
1.46608e-07
1.46608e-07
1.46608e-07
1.46608e-07
1.46608e-07
1.46608e-07
1.46608e-07
1.46608e-07
1.46608e-07
1.46608e-07
1.46608e-07
1.46608e-07
1.46608e-07
1.46608e-07
1.46608e-07
1.46608e-07
1.46608e-07
1.46608e-07
1.46608e-07
1.46608e-07
1.46608e-07
1.46608e-07
1.46608e-07
1.46608e-07
1.46608e-07
1.46608e-07
1.46608e-07
1.46608e-07
1.46608e-07
1.46608e-07
1.46608e-07
1.46608e-07
1.46608e-07
1.46608e-07
1.46608e-07
1.46608e-07
1.46608e-07
1.46608e-07
1.46608e-07
1.46608e-07
1.46608e-07
1.46608e-07
1.46608e-07
1.46608e-07
1.46608e-07
1.46608e-07
1.46608e-07
1.46608e-07
1.46608e-07
1.46608e-07
1.46608e-07
1.46608e-07
1.46608e-07
1.46608e-07
1.46608e-07
1.46608e-07
1.46608e-07
1.46608e-07
1.46608e-07
1.46608e-07
1.46608e-07
1.46608e-07
1.46608e-07
1.46608e-07
1.46608e-07
1.46608e-07
1.46608e-07
1.46608e-07
1.46608e-07
1.46608e-07
1.46608e-07
1.46608e-07
1.46608e-07
1.46608e-07
1.46608e-07
1.46608e-07
1.46608e-07
1.46608e-07
1.46608e-07
1.46608e-07
1.46608e-07

VECTORS velocity float
0.000863984 -0.000293998 -0.000561576
0.00126916 0.00610885 -0.000637609
0.288057 0.144747 -0.0665284
0.000503813 0.00471601 0.00155012
0.00712803 0.00417289 0.00815651
-0.022153 0.00733087 0.172897
-0.0176888 0.015594 -0.011928
0.0651106 -0.0327147 -0.00674366
-7.73332e-06 -0.000458574 -0.000184338
0.0103395 0.00334532 0.00809427
0.624131 -0.0874559 0.186683
0.000731052 -0.00773186 0.0142457
0.00205331 0.00130317 -0.000306289
-0.000566251 0.00194496 0.00104241
-0.248718 -0.0791728 0.391216
0.0013813 -0.000965564 -0.00932559
0.000168947 0.00102064 -0.00153528
6.2143e-06 -0.0216068 0.00571252
-0.000264841 0.000159556 0.000388811
0.0025106 0.00551656 -0.00489926
-0.000551814 0.0231911 0.0123944
0.00762968 0.00986211 0.00558929
0.0356274 0.0081006 0.0278398
0.00264208 0.000558465 -0.00251662
-0.0643497 0.0981241 -0.304316
0.00023205 0.000480744 0.00209971
0.00744427 -0.000771456 0.0183367
0.000341279 -0.0202929 -0.00714126
-0.00146285 -0.00697914 -0.00807625
0.0867116 0.0879516 0.185116
-0.0977303 0.0803371 0.614582
0.00216843 0.00327365 0.0128062
-0.0226445 0.0177945 -0.00592619
0.000372824 0.0224904 0.00184623
-0.0765468 -0.0149574 0.248369
4.83724e-05 0.000242158 4.92356e-05
0.000185979 -0.0173818 0.012201
0.000618334 -0.0137769 0.0152109
0.0943373 0.00719605 0.0639855
-0.000329743 -0.00026667 0.00171245
-0.00114773 -0.00140614 -0.0040193
0.00201837 -0.00805786 -0.00790237
0.39148 -0.125119 -0.162478
-0.0214313 0.0291994 0.07605
0.00011782 0.000104412 -0.00107264
0.00141774 0.000584466 -0.000768269
0.00164691 0.00135969 -0.00184671
0.0126578 -0.000376911 0.00746491
0.134836 0.0310816 0.547943
0.00141077 -0.0168125 -0.00110758
0.184707 0.00774137 0.0183925
-0.00017104 0.000865582 -0.00122924
-0.0296214 -0.00566254 0.117683
-0.000452946 0.000672777 4.67565e-05
0.00124536 0.00357167 -0.0015352
0.000481081 0.00017853 -0.000747745
-0.0024172 -0.00145264 -0.00600282
0.0197375 0.000453173 0.00466907
0.000174585 -0.0041526 -0.00628442
0.0140737 -0.00228634 -0.00373931
-0.000895044 -0.000426141 -0.000917331
0.000411126 0.0001184 -0.000705558
-2.96099e-05 0.00105943 -0.000930955
-0.00428373 0.0339488 0.0144708
-0.0788416 0.108768 -0.219898
0.0619787 0.0245094 0.13661
-0.00663801 0.00700508 0.00238398
0.00061409 9.97775e-05 -0.00374595
-0.000771691 0.000978943 0.000692929
-0.0291199 0.01037 0.0936436
-0.000499639 0.0159369 0.0182101
-0.0528251 -0.0352254 0.0430496
0.0120852 -0.056117 -0.0498526
0.000889445 -0.00276395 0.0213643
0.0880109 -0.178148 0.054435
8.8726e-05 0.00661579 -0.0124238
0.0405595 -0.0431517 0.0608354
0.0306024 -0.0891882 0.204652
0.00304778 -0.000963384 -0.00711233
0.0108149 -0.00552565 0.00305585
-0.394124 -0.277321 1.81454
0.00282105 0.00731178 0.00136511
0.0149395 0.0598679 0.243133
-0.00114793 -0.00163633 -0.00303592
-0.0157147 0.00126752 0.00464005
0.00538401 0.00144508 0.000203551
-0.0242303 0.0165723 0.01941
0.00607432 0.00278484 -0.00430508
-0.0345505 -0.00443481 0.00382666
0.17427 0.0592245 0.268714
0.00018556 -0.000242034 -0.000928771
0.000458133 0.0205043 -0.00298291
0.00733709 0.000767316 0.00610709
-0.391239 0.0716238 0.819376
0.0129412 0.00618134 -0.0124738
-0.0110903 -0.161047 0.166318
0.00613176 0.000926339 -0.00285605
0.00506652 0.0145458 -0.0172356
-0.00622566 0.00958716 0.00591162
0.00162511 0.00719826 -0.0151054
0.00782628 -0.00436998 -0.00329306
0.451386 0.401421 -0.250774
0.0133021 0.0269977 0.0370576
-0.0300486 -0.0104094 0.00307362
0.00332214 0.00108871 -0.00238729
-0.0111591 -0.00201181 0.000573557
-0.000374606 0.0102693 -0.0158041
-0.0909306 0.00852352 0.0542339
-1.65491e-05 0.0226605 -0.0111667
0.00167427 0.00245846 -0.00441408
0.0173802 -0.0145816 -0.0433688
0.0658475 -0.0117767 0.0322195
0.0580938 -0.0109771 -0.0347485
0.0131455 0.00349953 0.0092838
-0.00125719 0.00360192 -0.00181745
0.173656 -0.156298 0.336463
-0.0250211 0.133409 0.442874
-0.023833 -0.00542291 0.0108365
-0.0109313 -0.00120496 -0.013955
0.000402012 0.00119663 -0.00101536
0.0412361 -0.0369523 0.0852428
0.00758805 0.00607847 0.00608029
0.00234612 -0.00204062 -0.0074256
-0.001039 0.00783302 -0.00844057
-0.000921615 0.0233609 -0.00952659
0.124752 -0.0444 0.0980405
0.0130544 -0.00246513 0.0115086
0.01348 0.00127775 0.016801
-0.0516774 -0.0351189 0.0458763
-2.9703e-11 0.0233326 0.00808378
0.00482055 -0.00477225 0.00669182
-3.71293e-07 0.0180684 0.0085667
0.0997067 -1.07245 1.17619
0.0331703 -0.00787771 0.283091
-0.000966021 0.0014218 -0.0011815
-0.0168038 0.00363171 -0.0890414
-0.000166483 -0.000474782 0.000512747
0.000813803 -0.000417357 -3.85969e-05
0.00175523 0.00228046 -0.00231113
-0.00225518 -0.0184357 -0.0143161
0.00534151 0.000188408 0.0020327
0.00116378 0.000849912 -0.00102448
-0.0119679 0.0380352 0.0226259
0.0397528 0.0885474 -0.0327867
0.0654559 -0.000839682 0.00974887
0.0131351 -0.00068749 -0.0250924
-0.000285609 0.0231761 0.00955427
0.00527429 -0.00526608 0.0033596
0.0412189 0.0133391 0.172263
-0.0156394 0.00390022 -0.069926
0.0349577 -0.408077 0.265094
-0.263675 0.00597126 0.128413
4.76471e-05 0.000494891 -0.000645403
-0.000817281 0.0168672 0.00910171
0.0465183 -0.00218228 0.171819
-0.00229452 -0.018549 0.0831086
0.00499427 0.00805765 -0.00610285
0.000518047 0.0263316 -0.00703021
-0.000877951 0.0146046 0.00940142
0.00169839 -0.00646967 -0.00622415
-0.00420172 0.000750716 -0.000774971
-1.03386e-09 0.0244832 0.00446622
0.00313311 0.00446639 0.00672935
8.52883e-05 0.0239281 0.00743258
-0.104735 0.0515126 -0.296716
-1.08393e-09 0.0236094 0.00732286
-0.094056 -0.0573626 0.132184
-0.000238845 0.00049641 -0.000645761
-0.000715685 0.0190182 0.00240495
-0.000734256 0.000947998 0.000324751
0.0049549 -0.00275435 -0.00412888
-0.00284127 0.0125175 0.00667563
0.110497 0.111558 0.450321
-0.195169 0.0200768 0.490644
0.00116466 0.0161219 -0.00783997
0.031679 0.158579 0.0366109
0.178582 -0.0166033 0.14577
0.048772 -0.0100259 -0.135881
-0.0329803 -0.017198 0.0116652
0.238644 0.183719 -0.00289938
0.00324367 0.00469486 0.00442888
0.0118745 -0.00763247 -0.000624282
0.0391687 -0.0197939 0.0127929
0.0029705 0.0262338 0.00382896
-0.0731841 0.00728462 0.25274
0.00128122 -0.00327035 -0.00618684
-0.0189389 -0.213529 0.123682
-0.00678573 0.0125644 -0.00243664
-0.00821004 -0.0193208 0.0527796
0.00751897 -0.00576388 0.00382903
-0.0074101 -0.0231358 -0.0361202
-0.250529 -0.125168 0.0294348
0.0065211 -0.000540714 0.0114229
-0.0134272 0.0545866 0.010688
-0.108552 -0.0323239 0.198264
0.0059747 0.00621018 0.00569604
0.0467796 -0.0673144 0.0331165
0.138943 -0.0220206 0.0904976
0.0112902 0.0034486 0.00954918
0.00141736 0.00296802 -0.000366371
0.0689375 -0.045074 0.0227719
0.0383303 -0.013309 0.0367175
0.00098979 -0.00483881 -0.0053167
-0.0203579 -0.0403874 -0.00844457
-0.015503 -0.0289645 0.0602702
-0.00112995 0.00121618 -0.000506155
-0.0529434 -0.031269 0.0915389
-0.00233274 -0.0796497 -0.11239
0.00270072 -0.000258054 -0.00582865
-0.000656552 0.000832009 -0.00203215
-5.26362e-09 0.02492 2.31178e-05
-0.00543648 -0.012857 -0.0241263
0.000227401 0.000261607 -0.000408418
0.0021996 0.00410194 0.0044098
0.0564201 -0.00663668 0.106546
-0.0240124 0.0201163 -0.00483315
0.00425433 -0.00179704 -0.00536879
-0.000909838 0.0013088 -0.000977763
-0.0246435 -0.0585358 0.0985509
0.00138115 0.00950262 0.000407461
0.00518092 0.00189294 0.000425271
0.0182033 0.00840362 -0.0175841
0.000125244 -0.00107106 0.00143355
0.0 -0.0 -0.03
0.0 -0.0 -0.03
0.0 -0.0 -0.03
0.0 -0.0 -0.03
0.0 -0.0 -0.03
-0.00793839 -0.0803192 -0.0225804
0.0 -0.0 -0.03
0.0 -0.0 -0.03
0.0 -0.0 -0.03
0.0 -0.0 -0.03
0.0 -0.0 -0.03
0.0 -0.0 -0.03
0.0 -0.0 -0.03
0.0 -0.0 -0.03
0.0 -0.0 -0.03
0.0 -0.0 -0.03
0.0 -0.0 -0.03
0.0 -0.0 -0.03
0.0 -0.0 -0.03
0.0 -0.0 -0.03
0.166374 -0.0691154 0.0856376
0.0 -0.0 -0.03
0.0 -0.0 -0.03
0.0 -0.0 -0.03
0.0 -0.0 -0.03
0.0 -0.0 -0.03
0.0 -0.0 -0.03
0.0 -0.0 -0.03
0.0 -0.0 -0.03
0.0 -0.0 -0.03
0.0 -0.0 -0.03
0.0 -0.0 -0.03
0.00912185 0.00735468 0.00289016
-0.101273 -0.037948 0.0613461
0.00682828 -0.0104033 -0.0108307
0.0 -0.0 -0.03
0.0186433 -0.192645 0.0270334
0.0 0.0 -0.118422
0.0 -0.0 -0.03
0.0 -0.0 -0.03
0.175681 -0.0496889 0.230482
0.0 -0.0 -0.03
0.0 -0.0 -0.03
0.0 -0.0 -0.03
0.0 -0.0 -0.03
0.0 0.0 -0.100843
0.0 -0.0 -0.03
0.0 -0.0 -0.03
0.0 -0.0 -0.03
0.0302453 -0.0113426 -0.0356458
0.0 -0.0 -0.03
0.0 -0.0 -0.03
0.0 -0.0 -0.03
0.0 -0.0 -0.03
0.0 -0.0 -0.03
0.0 -0.0 -0.03
0.0 -0.0 -0.03
0.0 -0.0 -0.03
0.0 -0.0 -0.03
0.0 -0.0 -0.03
0.0 -0.0 -0.03
0.0 -0.0 -0.03
0.0 -0.0 -0.03
-0.0183961 -0.00724984 -0.0176198
0.14454 0.144896 0.177573
0.0 -0.0 -0.03
0.0 -0.0 -0.03
0.0 -0.0 -0.03
0.0 -0.0 -0.03
0.0 -0.0 -0.03
0.0 -0.0 -0.03
0.0 -0.0 -0.03
0.0 -0.0 -0.03
0.0 -0.0 -0.03
0.0 -0.0 -0.03

VECTORS force float
-8.45013e-06 1.78756e-06 -8.63819e-06
0.000177164 0.000155814 0.000211581
-0.000331495 -5.60172e-05 4.13928e-05
1.89186e-07 -2.46774e-06 -4.63276e-07
-8.62231e-07 7.69658e-08 3.96088e-07
0.0 0.0 -1.43822e-06
0.0 0.0 -1.43822e-06
0.0 0.0 -1.43822e-06
4.77684e-10 1.16042e-08 -6.07904e-09
0.0 0.0 -1.43822e-06
-0.0218472 0.00913974 0.00102149
1.21436e-09 2.48755e-08 2.35567e-08
-8.36653e-08 -2.70444e-08 1.8624e-07
8.17841e-05 5.3699e-06 6.62307e-05
0.000402444 0.000226905 0.00152804
-1.23726e-05 1.26582e-05 -1.2848e-05
1.67541e-06 -1.45269e-06 1.5159e-06
2.34147e-10 -1.92037e-09 1.07162e-08
-2.22449e-06 2.96888e-06 4.67471e-06
3.57506e-06 -3.39483e-06 1.01629e-05
2.27755e-06 -1.32045e-05 2.49369e-07
3.20862e-06 -6.2274e-06 -8.02148e-06
0.000974657 0.000466056 0.00143853
-4.12196e-07 2.47257e-08 -4.29442e-07
0.0 0.0 -1.43822e-06
3.99542e-06 -3.76836e-06 2.8439e-05
6.44928e-07 7.32857e-07 -1.28227e-06
-4.55198e-09 -1.25478e-08 7.77442e-09
-5.3878e-08 -7.09345e-08 7.04845e-08
0.0 0.0 -1.43822e-06
0.0 0.0 -1.43822e-06
-3.06523e-08 1.93995e-08 -2.46208e-08
-1.37348e-07 -1.20398e-07 -5.0038e-07
-2.07709e-08 -1.65319e-06 2.67948e-06
-0.000342217 -0.000191469 0.00169539
-2.4682e-06 3.21209e-06 -7.19853e-06
-1.00437e-09 -1.813e-09 1.42828e-08
-4.03598e-09 -4.6612e-11 1.54129e-08
0.0 0.0 -1.43822e-06
4.03606e-05 -3.70721e-05 4.99975e-05
-8.0178e-07 -1.76989e-06 7.70321e-06
-4.8591e-09 -4.83961e-09 7.54673e-09
0.0026899 -0.00249494 0.000990992
0.0 0.0 -1.43822e-06
6.31237e-06 -8.76948e-06 1.04786e-05
-7.19985e-08 -6.61e-08 -6.12583e-08
1.45193e-05 -5.19027e-05 7.42542e-05
-3.18269e-08 2.47472e-07 -4.65464e-07
0.0 0.0 -1.43822e-06
-6.64354e-07 -2.23747e-06 4.98772e-07
0.00303627 0.000242693 0.00146461
-1.52837e-09 9.03538e-09 -7.90653e-09
7.58695e-05 5.12797e-05 0.000633919
2.4803e-05 4.69086e-06 2.43308e-05
6.09821e-08 -4.08829e-07 -4.31941e-07
-1.58435e-08 -3.14878e-08 5.37506e-09
2.58704e-06 1.24103e-05 -7.18941e-07
0.00106476 3.99456e-05 0.000126753
5.32208e-09 1.21365e-09 -2.24078e-08
8.29099e-08 3.10564e-07 -6.85758e-07
-7.68078e-07 5.27667e-07 -1.57949e-06
1.29151e-06 6.92873e-07 -7.96945e-07
9.12822e-06 -1.35307e-05 2.7551e-05
1.3584e-06 3.39903e-06 -1.02353e-05
0.0 0.0 -1.43822e-06
0.0 0.0 -1.43822e-06
4.26432e-07 6.00935e-07 1.26274e-07
3.66362e-06 2.62384e-06 -3.39887e-06
-1.12989e-06 -2.87558e-07 8.54697e-07
0.00065406 -0.000667598 0.000406458
0.0 0.0 -1.43822e-06
0.0 0.0 -1.43822e-06
0.0 0.0 -1.43822e-06
9.40409e-09 1.43634e-08 -2.28993e-08
0.0 0.0 -1.43822e-06
-4.73395e-06 4.94043e-06 -1.51778e-06
0.0 0.0 -1.43822e-06
0.0 0.0 -1.43822e-06
1.98995e-05 1.19982e-05 -6.46142e-05
0.0 0.0 -1.43822e-06
0.0 0.0 -1.43822e-06
-2.86968e-07 -9.01993e-06 1.27696e-06
0.0 0.0 -1.43822e-06
6.0028e-07 3.32435e-07 2.27298e-07
0.0 0.0 -1.43822e-06
-2.18763e-07 -3.0264e-07 -3.02921e-07
0.0 0.0 -1.43822e-06
-4.38088e-08 2.82004e-07 -4.32189e-07
0.0 0.0 -1.43822e-06
-0.0041475 -0.000156732 0.00905
7.5352e-08 4.82871e-08 6.55794e-08
4.77642e-08 7.73113e-07 -7.60196e-07
-2.46051e-07 -2.96763e-08 -9.84077e-08
0.0 0.0 -1.43822e-06
1.00196e-07 -5.94829e-07 -9.86634e-07
0.0 0.0 -1.43822e-06
-7.31177e-06 7.05931e-05 -9.5697e-05