# vtk DataFile Version 3.0
LIGGGHTS particles timestep 600000
ASCII
DATASET POLYDATA
POINTS 150 float
0.0204076 0.02355 0.014649
0.01739 0.0236151 0.0141603
0.024196 0.022435 0.0155713
0.0163312 0.0212782 0.0162665
0.0209656 0.0141673 0.0131949
0.0169304 0.0146794 0.0124024
0.0168681 0.0144013 0.0133753
0.0234882 0.0218416 0.0159546
0.0207625 0.0240296 0.013081
0.0180727 0.0232195 0.0107409
0.0141499 0.021811 0.0149852
0.0192024 0.0233529 0.0125699
0.0150247 0.0231513 0.0146355
0.0186622 0.0236976 0.0140524
0.0212673 0.0161256 0.0148465
0.0180379 0.0142672 0.0136572
0.0216268 0.0238796 0.0135517
0.0195337 0.0230243 0.013467
0.0191798 0.0244369 0.0136218
0.0211068 0.0146725 0.012345
0.0182668 0.0234641 0.011708
0.0188507 0.0137716 0.0138748
0.0172446 0.0240533 0.0131498
0.0206503 0.0155441 0.0142317
0.0211911 0.0150882 0.0135132
0.0175461 0.0221042 0.0157781
0.0191708 0.023466 0.0116734
0.0200003 0.0182013 0.0158775
0.0157743 0.0219962 0.0158489
0.0183647 0.0225778 0.0154527
0.0227074 0.0220261 0.0165552
0.01861 0.0231735 0.0132026
0.0221899 0.0230709 0.0148697
0.0176705 0.0225753 0.00928085
0.0222192 0.0166567 0.0152567
0.0199949 0.0238263 0.0137666
0.0196212 0.0199283 0.0158711
0.0191694 0.0220027 0.0148241
0.023224 0.0226791 0.0154743
0.0224332 0.0236357 0.0140809
0.0169041 0.0231075 0.0148717
0.0203283 0.0166752 0.0152686
0.0150384 0.02231 0.0151753
0.0185949 0.020128 0.0166594
0.0213754 0.0234367 0.0144131
0.020664 0.0226044 0.0141708
0.0219727 0.0215054 0.0161205
0.0207454 0.0137137 0.0140571
0.0181072 0.0232347 0.0147441
0.0205096 0.0231084 0.0133172
0.014858 0.0214404 0.0156357
0.0198232 0.0240417 0.012786
0.0209638 0.0226502 0.0152552
0.017924 0.0243853 0.0138122
0.0216278 0.0232938 0.0156662
0.0233874 0.0209461 0.0163892
0.0164927 0.0237897 0.0137551
0.0184148 0.0239638 0.0126633
0.020684 0.0217054 0.0150695
0.0187036 0.0232897 0.0106293
0.0159978 0.0233384 0.0144977
0.0208315 0.0242321 0.0140524
0.0224492 0.0229648 0.0163265
0.0194758 0.0139896 0.0129876
0.0220765 0.0148915 0.0130922
0.0194068 0.0223675 0.0214212
0.0223301 0.0203622 0.0165838
0.0221728 0.0223599 0.0155787
0.016627 0.0224192 0.0155419
0.0231542 0.0232576 0.0146611
0.0180696 0.0213853 0.0162355
0.0159383 0.0149427 0.0132404
0.0243101 0.0214816 0.0164065
0.0188823 0.0226772 0.0141263
0.0190343 0.0219298 0.0158157
0.0156224 0.0210079 0.0265204
0.0195756 0.0220838 0.0301758
0.0198023 0.0211495 0.0275623
0.0212653 0.0209509 0.0228413
0.0168752 0.021301 0.026094
0.0204416 0.0185814 0.0201004
0.0181484 0.0223897 0.0250664
0.0199927 0.0200304 0.0282644
0.0188709 0.0147721 0.0145552
0.0163497 0.0195255 0.0304014
0.0198393 0.0155082 0.0237522
0.0168839 0.016962 0.0205941
0.0159541 0.0180074 0.028335
0.0185116 0.0168101 0.0292165
0.0161146 0.0176486 0.0194689
0.0160744 0.0228928 0.0162274
0.0174748 0.0198996 0.0234982
0.0178878 0.0163826 0.0239745
0.0203839 0.0232799 0.0219857
0.0169247 0.0167166 0.0161952
0.0159022 0.0208424 0.025201
0.0226245 0.01886 0.0265949
0.0182239 0.0232236 0.0238875
0.0211871 0.0217488 0.0298945
0.0158706 0.0178038 0.0246615
0.0188287 0.019202 0.0186617
0.017375 0.0207121 0.02479
0.0187109 0.0235556 0.0186801
0.0161581 0.0156658 0.0189727
0.0146376 0.0204679 0.0157103
0.0193148 0.0236435 0.0150535
0.0222066 0.0193795 0.016729
0.0210999 0.0210486 0.0157916
0.01617 0.0189135 0.0183305
0.0163867 0.0158228 0.0266807
0.0174724 0.0185867 0.025321
0.0151484 0.0211011 0.0165357
0.0173038 0.0232965 0.0221749
0.0161578 0.0224653 0.0232105
0.0176255 0.0151962 0.0207348
0.0184226 0.0209162 0.022907
0.0229587 0.0180441 0.0207254
0.0175423 0.0233519 0.0288213
0.0212892 0.0180099 0.0158251
0.0215956 0.0158621 0.0207948
0.0197913 0.022786 0.0148424
0.0187086 0.0189789 0.0207842
0.0218324 0.0162383 0.0280752
0.0211063 0.0161532 0.0183884
0.017442 0.0184938 0.0267372
0.0210262 0.0208862 0.0304486
0.0204693 0.0195001 0.0228857
0.016032 0.0189085 0.0232588
0.0196833 0.0163685 0.0227014
0.0196976 0.0194351 0.0305016
0.0189828 0.0202927 0.0290222
0.0215656 0.0228534 0.0195129
0.02107 0.0170872 0.0205903
0.0235608 0.0189073 0.0242853
0.0187601 0.0212681 0.0259327
0.0176414 0.0147527 0.0148795
0.0213313 0.0181362 0.0309002
0.018635 0.0173842 0.0230349
0.0168374 0.0196392 0.0245142
0.0202134 0.0191801 0.016278
0.0231437 0.0176511 0.0263749
0.019886 0.0165115 0.0303661
0.0181836 0.023089 0.0162929
0.0188428 0.0223694 0.0226234
0.0170876 0.015219 0.023382
0.0195295 0.0186718 0.0236508
0.0162047 0.0182577 0.0261287
0.0198976 0.0142746 0.013996
0.0227985 0.021626 0.0276547
0.0208805 0.0222565 0.0308749

VERTICES 150 300
1 0
1 1
1 2
1 3
1 4
1 5
1 6
1 7
1 8
1 9
1 10
1 11
1 12
1 13
1 14
1 15
1 16
1 17
1 18
1 19
1 20
1 21
1 22
1 23
1 24
1 25
1 26
1 27
1 28
1 29
1 30
1 31
1 32
1 33
1 34
1 35
1 36
1 37
1 38
1 39
1 40
1 41
1 42
1 43
1 44
1 45
1 46
1 47
1 48
1 49
1 50
1 51
1 52
1 53
1 54
1 55
1 56
1 57
1 58
1 59
1 60
1 61
1 62
1 63
1 64
1 65
1 66
1 67
1 68
1 69
1 70
1 71
1 72
1 73
1 74
1 75
1 76
1 77
1 78
1 79
1 80
1 81
1 82
1 83
1 84
1 85
1 86
1 87
1 88
1 89
1 90
1 91
1 92
1 93
1 94
1 95
1 96
1 97
1 98
1 99
1 100
1 101
1 102
1 103
1 104
1 105
1 106
1 107
1 108
1 109
1 110
1 111
1 112
1 113
1 114
1 115
1 116
1 117
1 118
1 119
1 120
1 121
1 122
1 123
1 124
1 125
1 126
1 127
1 128
1 129
1 130
1 131
1 132
1 133
1 134
1 135
1 136
1 137
1 138
1 139
1 140
1 141
1 142
1 143
1 144
1 145
1 146
1 147
1 148
1 149

POINT_DATA 150
SCALARS id int 1
LOOKUP_TABLE default
1
2
3
4
5
6
7
8
9
10
11
12
13
14
15
16
17
18
19
20
21
22
23
24
25
26
27
28
29
30
31
32
33
34
35
36
37
38
39
40
41
42
43
44
45
46
47
48
49
50
51
52
53
54
55
56
57
58
59
60
61
62
63
64
65
66
67
68
69
70
71
72
73
74
75
76
77
78
79
80
81
82
83
84
85
86
87
88
89
90
91
92
93
94
95
96
97
98
99
100
101
102
103
104
105
106
107
108
109
110
111
112
113
114
115
116
117
118
119
120
121
122
123
124
125
126
127
128
129
130
131
132
133
134
135
136
137
138
139
140
141
142
143
144
145
146
147
148
149
150

SCALARS type int 1
LOOKUP_TABLE default
1
1
1
1
1
1
1
1
1
1
1
1
1
1
1
1
1
1
1
1
1
1
1
1
1
1
1
1
1
1
1
1
1
1
1
1
1
1
1
1
1
1
1
1
1
1
1
1
1
1
1
1
1
1
1
1
1
1
1
1
1
1
1
1
1
1
1
1
1
1
1
1
1
1
1
1
1
1
1
1
1
1
1
1
1
1
1
1
1
1
1
1
1
1
1
1
1
1
1
1
1
1
1
1
1
1
1
1
1
1
1
1
1
1
1
1
1
1
1
1
1
1
1
1
1
1
1
1
1
1
1
1
1
1
1
1
1
1
1
1
1
1
1
1
1
1
1
1
1
1

SCALARS radius float 1
LOOKUP_TABLE default
0.0005
0.0005
0.0005
0.0005
0.0005
0.0005
0.0005
0.0005
0.0005
0.0005
0.0005
0.0005
0.0005
0.0005
0.0005
0.0005
0.0005
0.0005
0.0005
0.0005
0.0005
0.0005
0.0005
0.0005
0.0005
0.0005
0.0005
0.0005
0.0005
0.0005
0.0005
0.0005
0.0005
0.0005
0.0005
0.0005
0.0005
0.0005
0.0005
0.0005
0.0005
0.0005
0.0005
0.0005
0.0005
0.0005
0.0005
0.0005
0.0005
0.0005
0.0005
0.0005
0.0005
0.0005
0.0005
0.0005
0.0005
0.0005
0.0005
0.0005
0.0005
0.0005
0.0005
0.0005
0.0005
0.0005
0.0005
0.0005
0.0005
0.0005
0.0005
0.0005
0.0005
0.0005
0.0005
0.0005
0.0005
0.0005
0.0005
0.0005
0.0005
0.0005
0.0005
0.0005
0.0005
0.0005
0.0005
0.0005
0.0005
0.0005
0.0005
0.0005
0.0005
0.0005
0.0005
0.0005
0.0005
0.0005
0.0005
0.0005
0.0005
0.0005
0.0005
0.0005
0.0005
0.0005
0.0005
0.0005
0.0005
0.0005
0.0005
0.0005
0.0005
0.0005
0.0005
0.0005
0.0005
0.0005
0.0005
0.0005
0.0005
0.0005
0.0005
0.0005
0.0005
0.0005
0.0005
0.0005
0.0005
0.0005
0.0005
0.0005
0.0005
0.0005
0.0005
0.0005
0.0005
0.0005
0.0005
0.0005
0.0005
0.0005
0.0005
0.0005
0.0005
0.0005
0.0005
0.0005
0.0005
0.0005

SCALARS mass float 1
LOOKUP_TABLE default
1.46608e-07
1.46608e-07
1.46608e-07
1.46608e-07
1.46608e-07
1.46608e-07
1.46608e-07
1.46608e-07
1.46608e-07
1.46608e-07
1.46608e-07
1.46608e-07
1.46608e-07
1.46608e-07
1.46608e-07
1.46608e-07
1.46608e-07
1.46608e-07
1.46608e-07
1.46608e-07
1.46608e-07
1.46608e-07
1.46608e-07
1.46608e-07
1.46608e-07
1.46608e-07
1.46608e-07
1.46608e-07
1.46608e-07
1.46608e-07
1.46608e-07
1.46608e-07
1.46608e-07
1.46608e-07
1.46608e-07
1.46608e-07
1.46608e-07
1.46608e-07
1.46608e-07
1.46608e-07
1.46608e-07
1.46608e-07
1.46608e-07
1.46608e-07
1.46608e-07
1.46608e-07
1.46608e-07
1.46608e-07
1.46608e-07
1.46608e-07
1.46608e-07
1.46608e-07
1.46608e-07
1.46608e-07
1.46608e-07
1.46608e-07
1.46608e-07
1.46608e-07
1.46608e-07
1.46608e-07
1.46608e-07
1.46608e-07
1.46608e-07
1.46608e-07
1.46608e-07
1.46608e-07
1.46608e-07
1.46608e-07
1.46608e-07
1.46608e-07
1.46608e-07
1.46608e-07
1.46608e-07
1.46608e-07
1.46608e-07
1.46608e-07
1.46608e-07
1.46608e-07
1.46608e-07
1.46608e-07
1.46608e-07
1.46608e-07
1.46608e-07
1.46608e-07
1.46608e-07
1.46608e-07
1.46608e-07
1.46608e-07
1.46608e-07
1.46608e-07
1.46608e-07
1.46608e-07
1.46608e-07
1.46608e-07
1.46608e-07
1.46608e-07
1.46608e-07
1.46608e-07
1.46608e-07
1.46608e-07
1.46608e-07
1.46608e-07
1.46608e-07
1.46608e-07
1.46608e-07
1.46608e-07
1.46608e-07
1.46608e-07
1.46608e-07
1.46608e-07
1.46608e-07
1.46608e-07
1.46608e-07
1.46608e-07
1.46608e-07
1.46608e-07
1.46608e-07
1.46608e-07
1.46608e-07
1.46608e-07
1.46608e-07
1.46608e-07
1.46608e-07
1.46608e-07
1.46608e-07
1.46608e-07
1.46608e-07
1.46608e-07
1.46608e-07
1.46608e-07
1.46608e-07
1.46608e-07
1.46608e-07
1.46608e-07
1.46608e-07
1.46608e-07
1.46608e-07
1.46608e-07
1.46608e-07
1.46608e-07
1.46608e-07
1.46608e-07
1.46608e-07
1.46608e-07
1.46608e-07
1.46608e-07
1.46608e-07
1.46608e-07
1.46608e-07
1.46608e-07

VECTORS velocity float
0.0013775 -0.00319709 0.00323528
0.00106143 0.000407571 -0.00105281
0.000857055 -0.0037564 -0.00209637
1.87872e-05 0.0227293 -0.0106581
0.00250412 0.000878536 0.00170102
0.00786228 0.00010642 -0.00936611
0.0228371 -0.0242688 -0.0117502
-0.000418843 -0.00100755 0.000421225
0.00352561 -0.000701229 0.000599843
0.00100719 -0.00158274 -0.0104261
-0.000456358 0.0288144 -0.023497
0.00354006 -0.000212802 -0.000691138
0.000712661 -0.000349924 -0.00494426
0.00212827 0.000856315 -0.00274246
1.5717e-05 -0.0114952 -0.00845945
-0.00026349 0.0103509 0.0226531
0.00131364 -0.000183934 0.000417774
0.00343899 0.000521823 -0.00249005
0.00116494 -0.00194726 -0.00512804
0.00375443 0.00237519 0.00353427
0.00210202 -0.000311689 -0.00465059
-0.000332275 -7.49574e-05 -0.000163893
8.07729e-05 0.000561389 -0.000196883
0.00504056 -0.000467613 0.000354123
0.00142389 0.000402364 0.00176232
0.00332542 0.00550832 -0.00407316
0.00240707 -0.000407973 -0.00052558
1.819e-09 0.020232 0.00384104
-0.00995493 0.0152871 -0.010888
0.00567203 -0.00182028 -0.00586118
-0.00415632 0.00348203 0.00361353
0.00381305 -0.000116101 -0.00218322
0.000737047 0.00352545 -0.00183725
0.000214176 -0.0112914 -0.0182025
3.66332e-06 0.0152272 0.0101478
0.00397578 0.00127742 -0.00412085
1.65203e-05 0.0200713 -0.00420286
-0.0177152 0.0029612 -0.00308409
-0.00268528 0.00375543 0.000490923
-0.00106675 0.00201769 -0.000543638
-0.000650009 0.00259995 -0.00184913
0.000592693 0.0170759 0.0110021
-0.000666154 -0.00553904 -0.013604
-1.54448e-08 0.0243178 -0.0049483
-0.00626315 -0.00406544 -0.000998834
0.00541078 0.000516792 -0.00190238
-0.00673836 0.0181568 -0.00933841
0.000203766 -0.000283028 0.000113657
0.00216502 8.94913e-05 -0.00252948
0.00326089 -0.000981217 -0.000600191
-0.00604149 -0.00275665 -0.00867642
0.00219847 -2.43866e-05 -0.00036821
-0.00739207 0.00955258 -0.0375592
0.00170438 -0.00022947 -0.00108495
-0.00835531 -0.00104101 -0.00638805
-0.00291644 -0.00195931 0.000928038
0.00101578 0.000961005 8.84596e-05
0.00226625 -0.000457841 -0.00118812
0.000117153 0.0210286 -0.0186261
0.00281504 0.0030007 0.000285567
0.000477707 -0.000311362 -0.00074652
0.00381898 -0.000449896 9.14413e-05
-0.00275232 0.00218387 -0.00239818
7.14306e-06 0.00178549 -0.00296438
-3.83695e-05 0.000821555 -0.00170464
-0.0836989 -0.029489 -0.0745327
-3.20219e-09 0.02395 -0.00606305
-0.00314527 -0.00495807 0.00246225
0.000753471 0.00301455 -0.000687538
-0.000158948 0.00102033 0.00167639
0.00655143 0.00911737 -0.00442784
0.0026569 0.00342769 -0.00938126
0.0413938 -0.00360974 -0.0590963
0.00304879 0.0027654 -0.00414143
0.015887 0.0042989 -0.0140873
0.0 -0.0 -0.03
0.0 -0.0 -0.03
0.0 -0.0 -0.03
0.0 -0.0 -0.03
0.0 -0.0 -0.03
0.0 -0.0 -0.03
0.0 -0.0 -0.03
0.0 -0.0 -0.03
-0.0132175 -0.0128447 -0.0201934
0.0 -0.0 -0.03
0.0 -0.0 -0.03
0.0 -0.0 -0.03
0.0 -0.0 -0.03
0.0 -0.0 -0.03
0.0 -0.0 -0.03
2.7512e-05 0.000417186 9.72569e-05
0.0 -0.0 -0.03
0.0 -0.0 -0.03
0.0 -0.0 -0.03
-0.00073168 0.00253104 0.000786607
0.0 -0.0 -0.03
0.0 -0.0 -0.03
0.0 -0.0 -0.03
0.0 -0.0 -0.03
0.0 -0.0 -0.03
0.0 -0.0 -0.03
0.0 -0.0 -0.03
0.0 -0.0 -0.03
0.0 -0.0 -0.03
-0.00737088 -0.00266414 0.000574975
-0.0114832 0.0242186 -0.0691414
2.34714e-09 0.0246079 -0.00143339
0.0811542 0.07877 -0.119518
0.0 0.0 -0.0537647
0.0 -0.0 -0.03
0.0 -0.0 -0.03
-0.00882891 -0.0255456 -0.0247926
0.0 -0.0 -0.03
0.0 -0.0 -0.03
0.0 -0.0 -0.03
0.0 -0.0 -0.03
0.0 -0.0 -0.03
0.0 -0.0 -0.03
8.42388e-07 0.0200044 0.00466177
0.0 -0.0 -0.03
-0.00918273 -5.7774e-05 0.00489735
0.0 -0.0 -0.03
0.0 -0.0 -0.03
0.0 0.0 -0.0418652
0.0 -0.0 -0.03
0.0 -0.0 -0.03
0.0 -0.0 -0.03
0.0 -0.0 -0.03
0.0 -0.0 -0.03
0.0 -0.0 -0.03
0.0 -0.0 -0.03
0.0 -0.0 -0.03
0.0 -0.0 -0.03
0.0 -0.0 -0.03
0.0 -0.0 -0.03
-0.0412994 0.0299871 0.0466251
0.0 -0.0 -0.03
0.0 -0.0 -0.03
0.0 -0.0 -0.03
0.0370441 0.0276171 -0.0452647
0.0 -0.0 -0.03
0.0 -0.0 -0.03
-0.00108751 0.0296094 -0.0259377
0.0 -0.0 -0.03
0.0 -0.0 -0.03
0.0 -0.0 -0.03
0.0 -0.0 -0.03
0.00612483 0.028493 -0.0465772
0.0 -0.0 -0.03
0.0 -0.0 -0.03

VECTORS force float
0.0 0.0 -1.43822e-06
-4.43881e-07 7.04888e-07 -6.03051e-07
0.0 0.0 -1.43822e-06
-2.562e-08 -1.51736e-07 4.63167e-08
1.24086e-06 4.2371e-07 1.94788e-06
1.02469e-06 5.66649e-06 6.34752e-06
0.0 0.0 -1.43822e-06
0.0 0.0 -1.43822e-06
6.75186e-06 1.47343e-06 1.28479e-05
-8.45606e-09 -1.45705e-08 2.14368e-08
1.75812e-08 1.39626e-07 -1.7104e-07
1.57896e-05 -3.58698e-06 5.75784e-06
-6.48964e-07 3.33983e-06 2.19741e-06
9.26482e-07 5.24177e-07 6.03076e-06
3.25197e-10 -1.46249e-07 -6.89185e-08
9.31935e-08 1.87596e-08 4.05883e-08
1.98201e-06 7.15658e-07 1.68632e-05
-2.17112e-06 1.74361e-06 -4.09309e-06
6.49485e-07 1.04348e-06 -4.60923e-07
-8.2687e-08 6.34678e-07 2.96218e-06
5.24275e-06 7.91699e-07 2.29296e-05
2.05327e-08 4.27779e-08 4.83872e-08
-1.41186e-08 -3.48409e-08 5.76761e-08
5.6713e-08 -1.78524e-07 -1.89541e-07
-3.41776e-07 -4.13046e-07 -5.31794e-07
1.17955e-06 -6.13094e-07 -8.58604e-07
-2.0789e-07 -2.89403e-06 -9.5245e-06
-6.41267e-11 5.88996e-10 -1.59449e-08
7.94018e-07 1.01359e-06 -5.71491e-07
1.51141e-07 -5.17613e-08 -1.12303e-06
3.86407e-07 4.15691e-07 -1.05668e-06
-6.19271e-07 -7.03253e-07 3.09691e-06
-1.29781e-08 1.65454e-07 -1.43503e-06
-2.23168e-09 -1.16096e-08 1.93032e-09
-8.252e-11 5.54463e-08 1.80151e-08
4.79117e-07 -5.26229e-06 1.03967e-05
-1.55641e-08 1.68371e-08 -1.80589e-08
0.0 0.0 -1.43822e-06
0.0 0.0 -1.43822e-06
1.28433e-05 4.59142e-06 -1.42811e-05
1.02226e-06 4.77437e-07 -8.92913e-07
-4.83251e-10 9.42275e-09 -9.98713e-09
1.8277e-06 -1.0298e-05 4.29767e-06
-2.21017e-14 -3.27569e-09 -1.66146e-08
0.0 0.0 -1.43822e-06
-1.78594e-07 1.10802e-06 -1.33818e-06
6.19878e-07 8.39872e-07 -7.01728e-07
8.57447e-07 1.80288e-07 9.22077e-07
1.14157e-07 6.54858e-07 -5.74178e-07
4.90116e-07 5.06552e-06 -1.08156e-05
2.73261e-07 1.75904e-06 -1.57378e-06
3.93146e-06 4.63079e-06 9.87605e-06
0.0 0.0 -1.43822e-06
-4.3398e-07 -2.24361e-07 -1.20536e-07
0.0 0.0 -1.43822e-06
5.24525e-08 1.74861e-06 -2.76113e-07
-3.0365e-08 -4.54094e-08 -1.39849e-07
2.97931e-06 -1.30531e-06 2.31745e-06
0.0 0.0 -1.43822e-06
-1.99911e-08 -3.91171e-08 1.09825e-07
-4.7854e-07 -1.8142e-07 2.61357e-07
-3.72427e-06 -2.55564e-06 1.05678e-05
-1.53679e-07 -5.32041e-07 -1.03137e-06
6.43143e-10 -1.88324e-08 3.12624e-08
-1.35553e-07 -2.4431e-08 -4.93032e-08
0.0 0.0 -1.43822e-06
-8.09198e-15 -4.04704e-09 -1.63536e-08
0.0 0.0 -1.43822e-06
8.45084e-07 -2.69146e-07 -9.37646e-08
3.90111e-06 -5.17005e-06 2.82853e-06
-3.51051e-07 1.20415e-06 -7.13734e-07
2.2136e-07 2.97134e-07 -8.01599e-07
0.0 0.0 -1.43822e-06
4.33276e-06 -9.43078e-06 1.42161e-05
9.5888e-08 7.37864e-07 -1.05891e-06
0.0 0.0 0.0
0.0 0.0 0.0
0.0 0.0 0.0
0.0 0.0 0.0
0.0 0.0 0.0
0.0 0.0 0.0
0.0 0.0 0.0
0.0 0.0 0.0
1.15064e-07 -3.82134e-07 -4.63324e-07
0.0 0.0 0.0
0.0 0.0 0.0
0.0 0.0 0.0
0.0 0.0 0.0
0.0 0.0 0.0
0.0 0.0 0.0
-3.772e-07 2.04713e-08 -3.86662e-07
0.0 0.0 0.0
0.0 0.0 0.0
0.0 0.0 0.0
-2.40594e-09 6.5032e-08 5.25068e-08
0.0 0.0 0.0
0.0 0.0 0.0
0.0 0.0 0.0
0.0 0.0 0.0
0.0 0.0 0.0
0.0 0.0 0.0
0.0 0.0 0.0
0.0 0.0 0.0
0.0 0.0 0.0
-2.73261e-07 -1.75904e-06 -1.30266e-06
0.0 0.0 -1.43822e-06
7.75472e-15 -8.83322e-10 -1.67813e-08
0.0 0.0 -1.43822e-06
0.0 0.0 -1.43822e-06
0.0 0.0 0.0
0.0 0.0 0.0
0.0 0.0 -1.43822e-06
0.0 0.0 0.0
0.0 0.0 0.0
0.0 0.0 0.0
0.0 0.0 0.0
0.0 0.0 0.0
0.0 0.0 0.0
-1.61643e-09 1.39254e-09 -1.38246e-08
0.0 0.0 0.0
0.0 0.0 -1.43822e-06
0.0 0.0 0.0
0.0 0.0 0.0
0.0 0.0 -1.43822e-06
0.0 0.0 0.0
0.0 0.0 0.0
0.0 0.0 0.0
0.0 0.0 0.0
0.0 0.0 0.0
0.0 0.0 0.0
0.0 0.0 0.0
0.0 0.0 0.0
0.0 0.0 0.0
0.0 0.0 0.0
0.0 0.0 0.0
0.0 0.0 -1.43822e-06
0.0 0.0 0.0
0.0 0.0 0.0
0.0 0.0 0.0
0.0 0.0 -1.43822e-06
0.0 0.0 0.0
0.0 0.0 0.0
0.0 0.0 -1.43822e-06
0.0 0.0 0.0
0.0 0.0 0.0
0.0 0.0 0.0
0.0 0.0 0.0
0.0 0.0 -1.43822e-06
0.0 0.0 0.0
0.0 0.0 0.0
