# vtk DataFile Version 3.0
LIGGGHTS particles timestep 2600000
ASCII
DATASET POLYDATA
POINTS 273 float
0.0166923 0.0224157 0.015551
0.0182825 0.0240623 0.0127347
0.0238941 0.0226032 0.0159613
0.0172666 0.0232787 0.0131193
0.0249446 0.0198797 0.0169975
0.0183224 0.020936 0.0155585
0.0205919 0.0191317 0.00716072
0.0194175 0.0240188 0.0168528
0.0208358 0.024034 0.0129419
0.01619 0.0229927 0.0161962
0.0186773 0.0152362 0.0137632
0.0208242 0.0142161 0.0129471
0.020062 0.0240569 0.0159955
0.019009 0.023989 0.013195
0.0245197 0.0220265 0.0156412
0.0211653 0.021314 0.00787579
0.0216716 0.0238894 0.0132943
0.0227402 0.0225128 0.0142168
0.0195532 0.0244901 0.0136444
0.0402891 0.0167947 0.00659266
0.0185929 0.0190317 0.016738
0.0148372 0.0207303 0.0164767
0.0174471 0.0240508 0.0128449
0.0242794 0.0165326 0.0151802
0.0213123 0.0144742 0.0167803
0.0200183 0.0164996 0.00802543
0.0169721 0.021422 0.0173219
0.0228392 0.0139034 0.0203026
0.0156011 0.0237822 0.0148621
0.0258721 0.0185008 0.0166637
0.017061 0.0232649 0.0145682
0.0223392 0.0233913 0.0129862
0.0230248 0.0233143 0.0122937
0.0199302 0.0153015 0.0148247
0.0296393 0.0184913 0.00583954
0.0204378 0.0243978 0.0137844
0.0226329 0.0229572 0.0134761
0.0204006 0.0146813 0.0158249
0.0216354 0.0149369 0.0156709
0.0229263 0.0236774 0.0150709
0.0179741 0.0237336 0.0135206
0.0235556 0.019696 0.0159256
0.0190606 0.0146105 0.012175
0.0255806 0.0194925 0.0197707
0.0217834 0.0236009 0.0151276
0.0247144 0.0158479 0.0143957
0.023122 0.0232427 0.0142349
0.0217172 0.0143312 0.0138038
0.023013 0.0219535 0.0149795
0.0198454 0.0159104 0.00857445
0.0200566 0.0240545 0.0124742
0.0262753 0.0173867 0.00752079
0.0180445 0.0244654 0.013816
0.0151174 0.0231586 0.0155517
0.0181017 0.0164067 0.0162432
0.0171157 0.0242486 0.0136702
0.0190401 0.0240892 0.0122185
0.0237825 0.0187219 0.0159333
0.0193641 0.0217583 0.0173877
0.0225117 0.0226751 0.0168195
0.0213141 0.0243348 0.014026
0.0223424 0.0236931 0.0139963
0.0223885 0.0151796 0.0150589
0.0204018 0.0204574 0.0165429
0.0150161 0.0215793 0.0170698
0.0214018 0.0235391 0.0141156
0.0157669 0.0155973 0.017631
0.0208981 0.0235691 0.0156512
0.0185001 0.0141341 0.0146621
0.0176324 0.0199144 0.0164403
0.0248892 0.0220939 0.0164085
0.022391 0.0235712 0.0173068
0.0259676 0.0194476 0.0169706
0.0194372 0.0149796 0.0101979
0.0182955 0.0224448 0.016493
0.0158366 0.0207239 0.0164975
0.0270656 0.0208082 0.00759714
0.0174727 0.0240866 0.0145174
0.0194051 0.0207193 0.0170302
0.0176394 0.0228137 0.0138627
0.0154358 0.0224936 0.0166902
0.0190612 0.0172701 0.0155841
0.0164113 0.023725 0.0135928
0.0194212 0.0246941 0.0175903
0.0214475 0.0224081 0.00886326
0.0143156 0.0229133 0.0150436
0.0146263 0.0197778 0.0166949
0.0191699 0.0147317 0.0111885
0.0187187 0.0184379 0.0159021
0.0154435 0.0161245 0.01586
0.0186761 0.015599 0.0146952
0.0197462 0.0237468 0.0150848
0.0266672 0.0193284 0.00717462
0.0203088 0.0178746 0.0169398
0.0198966 0.0212866 0.0163046
0.0188562 0.0237286 0.0155421
0.0180843 0.0140283 0.0131765
0.0174999 0.0240255 0.0166015
0.0165678 0.0194338 0.0167552
0.0164834 0.0241297 0.0143707
0.022486 0.0228447 0.0154051
0.0245258 0.0154392 0.0138695
0.0184434 0.0199887 0.015856
0.019489 0.0144831 0.0151579
0.0213989 0.0193173 0.00715284
0.0198808 0.0142471 0.0126167
0.0208928 0.0172412 0.0164316
0.0200827 0.0152879 0.00947493
0.0124727 0.0179235 0.0168013
0.0190467 0.0233052 0.0145656
0.0252828 0.0167684 0.0163788
0.0225542 0.0145308 0.0143132
0.023593 0.0229937 0.0151351
0.0159727 0.0184144 0.0167199
0.019864 0.0236256 0.0140698
0.0201369 0.0233388 0.0170018
0.0233515 0.0149251 0.0148052
0.0227976 0.0151844 0.0135954
0.025462 0.0149953 0.010095
0.0172989 0.0222644 0.014626
0.0249214 0.0172029 0.0155539
0.0205812 0.0173889 0.00746962
0.0174772 0.01906 0.0169383
0.0206465 0.0239493 0.0146347
0.0162698 0.0220851 0.0170608
0.019072 0.0250142 0.0184707
0.0178729 0.0237075 0.01573
0.0178035 0.0182522 0.0164472
0.0196198 0.0153128 0.0138849
0.0169481 0.0234924 0.0122899
0.0250283 0.0147542 0.0117624
0.0173229 0.0153307 0.0158351
0.0205527 0.0154322 0.0140648
0.025519 0.0195307 0.0159167
0.0244271 0.0201147 0.015811
0.0164998 0.0230796 0.013072
0.02182 0.0230813 0.00989891
0.0225199 0.0233001 0.0105555
0.0257502 0.0203795 0.0166799
0.020401 0.0230504 0.0148891
0.0185641 0.0226505 0.0140751
0.014509 0.0153171 0.0148411
0.0156263 0.0197691 0.0167115
0.018253 0.0220242 0.0148067
0.0182323 0.0167285 0.0152949
0.022528 0.0152734 0.0160453
0.0188433 0.0241911 0.0142655
0.0138384 0.0212074 0.0172983
0.0224953 0.0211855 0.0163225
0.0208262 0.0146381 0.0120408
0.019387 0.0163562 0.0160468
0.0134146 0.0202476 0.01733
0.0212669 0.0222708 0.0253748
0.0252123 0.0185788 0.0159164
0.0195163 0.0193207 0.0173826
0.0181328 0.0243993 0.01728
0.0132631 0.0213585 0.0162006
0.0161353 0.0143898 0.0139387
0.0163616 0.0233633 0.0126785
0.0139999 0.0161922 0.0149009
0.0162699 0.0216794 0.0160906
0.0144947 0.0134329 0.0232655
0.0181209 0.0233216 0.016946
0.0169027 0.0229702 0.0172291
0.0204199 0.0180852 0.00730632
0.0203126 0.0243549 0.0171452
0.0247835 0.0258995 0.0255439
0.0185204 0.0240793 0.0164158
0.0244579 0.0157172 0.0157309
0.0180552 0.0232931 0.0146317
0.0142319 0.0215247 0.0164337
0.0168865 0.0234655 0.0155564
0.016192 0.023034 0.0149444
0.0244396 0.0191325 0.0165655
0.0240136 0.0177004 0.0157326
0.0181786 0.0197911 0.0172685
0.0146661 0.0224238 0.0160557
0.0259311 0.0161813 0.00827634
0.0167761 0.0204016 0.0166099
0.023227 0.020419 0.0165793
0.0234081 0.0208438 0.015573
0.0205971 0.0222805 0.0200083
0.0167007 0.0227859 0.0138555
0.0163496 0.0155234 0.0159635
0.0238708 0.0175772 0.0167146
0.0244171 0.021336 0.0152427
0.0229295 0.0155567 0.0169464
0.0149335 0.0203988 0.00745293
0.0208678 0.0201253 0.00733124
0.0253193 0.0204861 0.0156999
0.0196077 0.0178365 0.0162007
0.0242323 0.0200345 0.0176836
0.0171091 0.0222672 0.0165487
0.0220821 0.0233903 0.0112732
0.0185183 0.0228032 0.0153738
0.0234837 0.0156322 0.0155218
0.018032 0.017619 0.0157076
0.0211648 0.0219095 0.0158978
0.0201877 0.0220944 0.0157925
0.0175946 0.0227515 0.0158211
0.0221694 0.02202 0.0158767
0.0253147 0.0212137 0.0163409
0.0178933 0.0217953 0.0158471
0.0171668 0.0214818 0.0152351
0.0209037 0.0226474 0.0165198
0.0137648 0.0221094 0.0157705
0.0174435 0.02351 0.011705
0.0191475 0.0232022 0.0163427
0.0168544 0.0150883 0.0149685
0.0177212 0.0224062 0.0173379
0.0152317 0.0216001 0.0160937
0.0235846 0.0224922 0.0142559
0.0162584 0.0207228 0.0174046
0.0191844 0.0222363 0.0160862
0.0181967 0.0231156 0.0131282
0.0126805 0.020641 0.0165824
0.0200921 0.0161433 0.0153397
0.0207842 0.01627 0.0160921
0.0187993 0.0237136 0.017577
0.0179739 0.0191086 0.0159567
0.0207359 0.0215886 0.0167568
0.0201293 0.0230607 0.0160409
0.0191746 0.0206424 0.0160513
0.0194025 0.0146188 0.0161613
0.0183705 0.0143618 0.0158188
0.017681 0.0145369 0.0151061
0.0176578 0.0376296 0.0435188
0.0126416 0.0199423 0.0158682
0.021525 0.0148483 0.0146378
0.0225973 0.016269 0.0159723
0.0186136 0.0172524 0.0164781
0.0233624 0.0216822 0.0161992
0.0195203 0.022769 0.0153032
0.0242471 0.020936 0.0168585
0.0216716 0.0159663 0.0157459
0.0171323 0.0163123 0.0160162
0.0178531 0.0233572 0.0123811
0.0171562 0.0212888 0.0163477
0.0200466 0.0170639 0.0157301
0.0156958 0.0223458 0.0156154
0.0190588 0.0215301 0.0152157
0.019939 0.0223554 0.0167669
0.019245 0.0154432 0.0156142
0.0212208 0.0238032 0.0168522
0.020834 0.0154024 0.0152751
0.0179283 0.0215112 0.0169432
0.0247921 0.0177837 0.0163576
0.0188731 0.0136768 0.0136686
0.0177325 0.0138794 0.0140901
0.0192452 0.0197573 0.016515
0.0192413 0.0145089 0.0142033
0.0256114 0.0175625 0.0168897
0.0195421 0.0187853 0.0165287
0.0183469 0.0205761 0.0166687
0.0173956 0.020576 0.0156783
0.0138458 0.0206039 0.016501
0.0153363 0.0147008 0.014454
0.0165443 0.0237707 0.0167491
0.01915 0.0163962 0.0150693
0.0200013 0.0203141 0.0223072
0.0175314 0.0205527 0.0172472
0.0188582 0.0214319 0.0165846
0.0212848 0.0227163 0.0152688
0.0182383 0.0156605 0.0155919
0.0207301 0.0142525 0.0139427
0.0161864 0.0151066 0.0168624
0.0152524 0.0204493 0.0173417
0.0158271 0.0152699 0.0151345
0.023945 0.0220037 0.0148854
0.0135963 0.0196353 0.016482
0.0130266 0.0183234 0.0159012
0.02364 0.0167057 0.0162627
0.0169955 0.0141793 0.0134743

VERTICES 273 546
1 0
1 1
1 2
1 3
1 4
1 5
1 6
1 7
1 8
1 9
1 10
1 11
1 12
1 13
1 14
1 15
1 16
1 17
1 18
1 19
1 20
1 21
1 22
1 23
1 24
1 25
1 26
1 27
1 28
1 29
1 30
1 31
1 32
1 33
1 34
1 35
1 36
1 37
1 38
1 39
1 40
1 41
1 42
1 43
1 44
1 45
1 46
1 47
1 48
1 49
1 50
1 51
1 52
1 53
1 54
1 55
1 56
1 57
1 58
1 59
1 60
1 61
1 62
1 63
1 64
1 65
1 66
1 67
1 68
1 69
1 70
1 71
1 72
1 73
1 74
1 75
1 76
1 77
1 78
1 79
1 80
1 81
1 82
1 83
1 84
1 85
1 86
1 87
1 88
1 89
1 90
1 91
1 92
1 93
1 94
1 95
1 96
1 97
1 98
1 99
1 100
1 101
1 102
1 103
1 104
1 105
1 106
1 107
1 108
1 109
1 110
1 111
1 112
1 113
1 114
1 115
1 116
1 117
1 118
1 119
1 120
1 121
1 122
1 123
1 124
1 125
1 126
1 127
1 128
1 129
1 130
1 131
1 132
1 133
1 134
1 135
1 136
1 137
1 138
1 139
1 140
1 141
1 142
1 143
1 144
1 145
1 146
1 147
1 148
1 149
1 150
1 151
1 152
1 153
1 154
1 155
1 156
1 157
1 158
1 159
1 160
1 161
1 162
1 163
1 164
1 165
1 166
1 167
1 168
1 169
1 170
1 171
1 172
1 173
1 174
1 175
1 176
1 177
1 178
1 179
1 180
1 181
1 182
1 183
1 184
1 185
1 186
1 187
1 188
1 189
1 190
1 191
1 192
1 193
1 194
1 195
1 196
1 197
1 198
1 199
1 200
1 201
1 202
1 203
1 204
1 205
1 206
1 207
1 208
1 209
1 210
1 211
1 212
1 213
1 214
1 215
1 216
1 217
1 218
1 219
1 220
1 221
1 222
1 223
1 224
1 225
1 226
1 227
1 228
1 229
1 230
1 231
1 232
1 233
1 234
1 235
1 236
1 237
1 238
1 239
1 240
1 241
1 242
1 243
1 244
1 245
1 246
1 247
1 248
1 249
1 250
1 251
1 252
1 253
1 254
1 255
1 256
1 257
1 258
1 259
1 260
1 261
1 262
1 263
1 264
1 265
1 266
1 267
1 268
1 269
1 270
1 271
1 272

POINT_DATA 273
SCALARS id int 1
LOOKUP_TABLE default
1
2
3
4
5
6
7
8
9
10
11
12
13
14
15
16
17
18
19
20
21
22
23
24
25
26
27
28
29
30
31
32
33
34
35
36
37
38
39
40
41
42
43
44
45
46
47
48
50
51
52
53
54
55
56
57
58
59
60
61
62
63
64
65
66
68
69
70
71
72
73
74
75
76
77
78
79
80
81
82
83
84
85
86
87
88
89
90
91
92
93
95
97
98
100
101
102
103
104
105
106
108
109
110
111
112
113
114
115
116
117
118
119
120
121
122
123
124
125
126
127
128
129
131
132
133
135
136
138
139
140
141
142
143
144
145
147
148
149
150
151
152
153
154
155
156
157
158
159
161
162
163
164
165
166
167
168
169
170
171
172
173
174
175
176
177
178
179
180
181
182
183
184
185
187
188
189
190
192
193
194
195
196
197
198
200
201
202
203
204
205
206
208
209
210
211
212
213
215
216
217
218
219
220
221
222
223
224
225
226
229
231
232
233
234
235
236
237
238
239
240
241
242
243
244
245
246
247
248
250
251
252
253
254
256
257
258
259
260
261
263
264
265
266
268
269
270
272
273
274
275
276
277
278
279
280
281
282
284
285
286
287
288
289
290
292
293
294
295
296
297
299
300

SCALARS type int 1
LOOKUP_TABLE default
1
1
1
1
1
1
1
1
1
1
1
1
1
1
1
1
1
1
1
1
1
1
1
1
1
1
1
1
1
1
1
1
1
1
1
1
1
1
1
1
1
1
1
1
1
1
1
1
1
1
1
1
1
1
1
1
1
1
1
1
1
1
1
1
1
1
1
1
1
1
1
1
1
1
1
1
1
1
1
1
1
1
1
1
1
1
1
1
1
1
1
1
1
1
1
1
1
1
1
1
1
1
1
1
1
1
1
1
1
1
1
1
1
1
1
1
1
1
1
1
1
1
1
1
1
1
1
1
1
1
1
1
1
1
1
1
1
1
1
1
1
1
1
1
1
1
1
1
1
1
1
1
1
1
1
1
1
1
1
1
1
1
1
1
1
1
1
1
1
1
1
1
1
1
1
1
1
1
1
1
1
1
1
1
1
1
1
1
1
1
1
1
1
1
1
1
1
1
1
1
1
1
1
1
1
1
1
1
1
1
1
1
1
1
1
1
1
1
1
1
1
1
1
1
1
1
1
1
1
1
1
1
1
1
1
1
1
1
1
1
1
1
1
1
1
1
1
1
1
1
1
1
1
1
1
1
1
1
1
1
1
1
1
1
1
1
1
1
1
1
1
1
1

SCALARS radius float 1
LOOKUP_TABLE default
0.0005
0.0005
0.0005
0.0005
0.0005
0.0005
0.0005
0.0005
0.0005
0.0005
0.0005
0.0005
0.0005
0.0005
0.0005
0.0005
0.0005
0.0005
0.0005
0.0005
0.0005
0.0005
0.0005
0.0005
0.0005
0.0005
0.0005
0.0005
0.0005
0.0005
0.0005
0.0005
0.0005
0.0005
0.0005
0.0005
0.0005
0.0005
0.0005
0.0005
0.0005
0.0005
0.0005
0.0005
0.0005
0.0005
0.0005
0.0005
0.0005
0.0005
0.0005
0.0005
0.0005
0.0005
0.0005
0.0005
0.0005
0.0005
0.0005
0.0005
0.0005
0.0005
0.0005
0.0005
0.0005
0.0005
0.0005
0.0005
0.0005
0.0005
0.0005
0.0005
0.0005
0.0005
0.0005
0.0005
0.0005
0.0005
0.0005
0.0005
0.0005
0.0005
0.0005
0.0005
0.0005
0.0005
0.0005
0.0005
0.0005
0.0005
0.0005
0.0005
0.0005
0.0005
0.0005
0.0005
0.0005
0.0005
0.0005
0.0005
0.0005
0.0005
0.0005
0.0005
0.0005
0.0005
0.0005
0.0005
0.0005
0.0005
0.0005
0.0005
0.0005
0.0005
0.0005
0.0005
0.0005
0.0005
0.0005
0.0005
0.0005
0.0005
0.0005
0.0005
0.0005
0.0005
0.0005
0.0005
0.0005
0.0005
0.0005
0.0005
0.0005
0.0005
0.0005
0.0005
0.0005
0.0005
0.0005
0.0005
0.0005
0.0005
0.0005
0.0005
0.0005
0.0005
0.0005
0.0005
0.0005
0.0005
0.0005
0.0005
0.0005
0.0005
0.0005
0.0005
0.0005
0.0005
0.0005
0.0005
0.0005
0.0005
0.0005
0.0005
0.0005
0.0005
0.0005
0.0005
0.0005
0.0005
0.0005
0.0005
0.0005
0.0005
0.0005
0.0005
0.0005
0.0005
0.0005
0.0005
0.0005
0.0005
0.0005
0.0005
0.0005
0.0005
0.0005
0.0005
0.0005
0.0005
0.0005
0.0005
0.0005
0.0005
0.0005
0.0005
0.0005
0.0005
0.0005
0.0005
0.0005
0.0005
0.0005
0.0005
0.0005
0.0005
0.0005
0.0005
0.0005
0.0005
0.0005
0.0005
0.0005
0.0005
0.0005
0.0005
0.0005
0.0005
0.0005
0.0005
0.0005
0.0005
0.0005
0.0005
0.0005
0.0005
0.0005
0.0005
0.0005
0.0005
0.0005
0.0005
0.0005
0.0005
0.0005
0.0005
0.0005
0.0005
0.0005
0.0005
0.0005
0.0005
0.0005
0.0005
0.0005
0.0005
0.0005
0.0005
0.0005
0.0005
0.0005
0.0005
0.0005
0.0005
0.0005
0.0005
0.0005
0.0005
0.0005
0.0005
0.0005
0.0005
0.0005
0.0005
0.0005
0.0005
0.0005
0.0005
0.0005
0.0005
0.0005
0.0005
0.0005

SCALARS mass float 1
LOOKUP_TABLE default
1.46608e-07
1.46608e-07
1.46608e-07
1.46608e-07
1.46608e-07
1.46608e-07
1.46608e-07
1.46608e-07
1.46608e-07
1.46608e-07
1.46608e-07
1.46608e-07
1.46608e-07
1.46608e-07
1.46608e-07
1.46608e-07
1.46608e-07
1.46608e-07
1.46608e-07
1.46608e-07
1.46608e-07
1.46608e-07
1.46608e-07
1.46608e-07
1.46608e-07
1.46608e-07
1.46608e-07
1.46608e-07
1.46608e-07
1.46608e-07
1.46608e-07
1.46608e-07
1.46608e-07
1.46608e-07
1.46608e-07
1.46608e-07
1.46608e-07
1.46608e-07
1.46608e-07
1.46608e-07
1.46608e-07
1.46608e-07
1.46608e-07
1.46608e-07
1.46608e-07
1.46608e-07
1.46608e-07
1.46608e-07
1.46608e-07
1.46608e-07
1.46608e-07
1.46608e-07
1.46608e-07
1.46608e-07
1.46608e-07
1.46608e-07
1.46608e-07
1.46608e-07
1.46608e-07
1.46608e-07
1.46608e-07
1.46608e-07
1.46608e-07
1.46608e-07
1.46608e-07
1.46608e-07
1.46608e-07
1.46608e-07
1.46608e-07
1.46608e-07
1.46608e-07
1.46608e-07
1.46608e-07
1.46608e-07
1.46608e-07
1.46608e-07
1.46608e-07
1.46608e-07
1.46608e-07
1.46608e-07
1.46608e-07
1.46608e-07
1.46608e-07
1.46608e-07
1.46608e-07
1.46608e-07
1.46608e-07
1.46608e-07
1.46608e-07
1.46608e-07
1.46608e-07
1.46608e-07
1.46608e-07
1.46608e-07
1.46608e-07
1.46608e-07
1.46608e-07
1.46608e-07
1.46608e-07
1.46608e-07
1.46608e-07
1.46608e-07
1.46608e-07
1.46608e-07
1.46608e-07
1.46608e-07
1.46608e-07
1.46608e-07
1.46608e-07
1.46608e-07
1.46608e-07
1.46608e-07
1.46608e-07
1.46608e-07
1.46608e-07
1.46608e-07
1.46608e-07
1.46608e-07
1.46608e-07
1.46608e-07
1.46608e-07
1.46608e-07
1.46608e-07
1.46608e-07
1.46608e-07
1.46608e-07
1.46608e-07
1.46608e-07
1.46608e-07
1.46608e-07
1.46608e-07
1.46608e-07
1.46608e-07
1.46608e-07
1.46608e-07
1.46608e-07
1.46608e-07
1.46608e-07
1.46608e-07
1.46608e-07
1.46608e-07
1.46608e-07
1.46608e-07
1.46608e-07
1.46608e-07
1.46608e-07
1.46608e-07
1.46608e-07
1.46608e-07
1.46608e-07
1.46608e-07
1.46608e-07
1.46608e-07
1.46608e-07
1.46608e-07
1.46608e-07
1.46608e-07
1.46608e-07
1.46608e-07
1.46608e-07
1.46608e-07
1.46608e-07
1.46608e-07
1.46608e-07
1.46608e-07
1.46608e-07
1.46608e-07
1.46608e-07
1.46608e-07
1.46608e-07
1.46608e-07
1.46608e-07
1.46608e-07
1.46608e-07
1.46608e-07
1.46608e-07
1.46608e-07
1.46608e-07
1.46608e-07
1.46608e-07
1.46608e-07
1.46608e-07
1.46608e-07
1.46608e-07
1.46608e-07
1.46608e-07
1.46608e-07
1.46608e-07
1.46608e-07
1.46608e-07
1.46608e-07
1.46608e-07
1.46608e-07
1.46608e-07
1.46608e-07
1.46608e-07
1.46608e-07
1.46608e-07
1.46608e-07
1.46608e-07
1.46608e-07
1.46608e-07
1.46608e-07
1.46608e-07
1.46608e-07
1.46608e-07
1.46608e-07
1.46608e-07
1.46608e-07
1.46608e-07
1.46608e-07
1.46608e-07
1.46608e-07
1.46608e-07
1.46608e-07
1.46608e-07
1.46608e-07
1.46608e-07
1.46608e-07
1.46608e-07
1.46608e-07
1.46608e-07
1.46608e-07
1.46608e-07
1.46608e-07
1.46608e-07
1.46608e-07
1.46608e-07
1.46608e-07
1.46608e-07
1.46608e-07
1.46608e-07
1.46608e-07
1.46608e-07
1.46608e-07
1.46608e-07
1.46608e-07
1.46608e-07
1.46608e-07
1.46608e-07
1.46608e-07
1.46608e-07
1.46608e-07
1.46608e-07
1.46608e-07
1.46608e-07
1.46608e-07
1.46608e-07
1.46608e-07
1.46608e-07
1.46608e-07
1.46608e-07
1.46608e-07
1.46608e-07
1.46608e-07
1.46608e-07
1.46608e-07
1.46608e-07
1.46608e-07
1.46608e-07
1.46608e-07
1.46608e-07
1.46608e-07
1.46608e-07
1.46608e-07
1.46608e-07
1.46608e-07
1.46608e-07
1.46608e-07
1.46608e-07
1.46608e-07
1.46608e-07
1.46608e-07

VECTORS velocity float
0.00427086 -0.00311653 0.00196228
0.00107448 0.000254383 -0.00222966
-0.000292568 -0.000573869 -9.0829e-05
0.00453263 0.00209461 0.00276166
0.00251875 0.00513687 0.012092
0.0021235 0.00306603 -0.0254015
-0.0307783 -0.0131903 -0.117958
-0.00110682 -0.000819995 2.17871e-05
2.07948e-05 0.000735566 -0.00176009
0.00230582 0.00125937 -0.00122861
0.000588882 0.0101232 0.0168929
0.00861422 0.00483517 -0.00701528
-0.000851939 -0.00185043 -0.000925348
0.00232055 0.00206704 -0.0068874
0.000436813 -0.00241504 0.00186108
0.000421158 -0.0146011 -0.00959312
7.25226e-05 0.000115572 -0.00133201
0.00156115 0.00447654 -0.00624356
0.000630951 0.000487537 -0.00198407
8.8432e-16 -8.53307e-15 -2.18736e-14
-0.00198567 0.00119747 0.00722266
5.55063e-05 -0.000305454 -0.00125423
0.00110756 0.00055796 0.000685741
0.00104532 0.0149018 0.0104293
-0.055885 0.0554038 -0.147062
0.000589587 -0.0120089 0.00797425
0.00294822 -0.0001139 -0.00650503
-0.0501942 0.0123993 -0.0243365
0.00164133 0.00146337 -0.00200597
0.00132257 0.000764589 -0.00214609
0.00513003 0.00152928 0.00307795
0.00273881 0.00284653 -0.00199898
0.000412336 0.0039731 -0.0201876
-0.00427239 0.00790965 0.0148432
2.5161e-14 -2.45753e-16 2.95161e-13
-0.000154855 -0.00126819 0.00105426
0.00377163 0.00309593 -0.00195916
-0.0148997 0.00123218 -0.0100927
-0.0124052 -0.0184051 -0.0130497
0.000210274 0.000607178 -0.000926493
0.00337839 0.00111852 0.00109067
0.000618838 0.0188646 -0.00228763
-8.30193e-05 -0.00120279 0.0230992
-0.0206129 -0.002592 -0.139073
0.00271422 0.00751506 -0.0265605
9.40788e-05 0.0142096 0.015671
0.00108138 0.00095183 -0.00101037
-0.00105757 -0.000652129 0.00057876
0.00161017 0.00905259 -0.0067356
0.000656223 -0.0122183 0.014404
-0.000140936 -0.000143387 -0.00132888
0.00123936 -0.0130246 0.00484468
0.000722049 0.00027224 0.000717602
-0.000132033 -5.22979e-05 5.90952e-05
0.00107159 0.0329904 0.0099374
0.00205282 0.00117279 0.00149331
0.000359803 0.00375714 -0.0119438
0.00119706 0.0184274 0.000447448
0.029204 -0.00552017 0.0444469
0.089367 -0.0241926 0.0393261
7.93797e-05 -0.000628949 -0.000399303
8.81109e-05 -0.000190868 -0.00131659
-0.010244 0.0030121 -0.00654111
0.00771093 0.00286478 0.00135732
0.00074067 -0.000994101 0.000532266
0.000560279 -0.00174534 -0.0055936
-0.0465622 0.0313881 -0.0997151
-0.00119253 -0.00375807 -0.0120764
0.000517396 0.000276224 -9.94123e-06
0.00138137 -0.00339494 0.00631082
0.000202136 0.000284292 0.000587422
0.0161107 -0.0143849 -0.00274401
-0.00169356 0.000135255 -0.00350859
-0.000382936 -0.00733968 0.0184184
0.00402986 0.00358693 -0.00121236
-0.000350627 -4.12613e-05 -0.00518507
0.000686265 -0.0194093 -0.008444
0.00231636 0.000674117 0.000512452
0.0454389 -0.0290429 0.00853476
0.0085159 0.00363803 -0.000578056
0.0025944 -0.000476682 -0.00238503
-0.00152546 0.0151077 0.00561309
0.00404109 0.00110142 0.0035557
-0.000653796 -0.000878283 -0.000123806
0.00132207 -0.0117729 -0.0129659
0.00010127 0.000811088 -0.000182314
-0.00129177 0.00271993 -0.00174778
1.26753e-05 -0.00293907 0.0224039
-7.91918e-07 0.0202849 0.00291849
-0.00352019 0.0132693 0.00864922
0.0100389 0.0106254 0.0117144
-0.000771692 -0.000797779 0.00193843
0.00112743 -0.0155053 -0.00182162
0.00956332 0.0229367 0.00774855
0.00481773 -0.0015114 0.0017245
0.00171654 0.00190158 0.00362842
-0.000305897 0.00105369 -0.00418965
0.000354416 -0.000324486 -0.000624399
-0.00489568 0.00240097 -0.00203077
0.000753153 0.000873441 0.000865592
0.00235899 0.00933352 -0.0112691
0.000666472 0.010814 0.0160636
-0.0053148 0.00886847 -0.00227731
-0.00082796 0.00138389 0.00392477
-0.045892 0.866955 -2.43603
0.00834198 -0.00379979 0.00668112
0.00532148 0.0184873 0.0070725
0.00294892 -0.000556574 0.000965782
0.010391 -0.0404469 0.0241929
0.00360876 0.00179027 -0.00477695
-0.00259921 -0.0032602 -0.0031333
-0.0018338 -0.0031884 0.00415322
-2.18482e-05 -0.000249441 -0.000377558
-8.04005e-10 0.024592 0.00282
-0.01932 -0.00884044 -0.0100608
0.00400135 0.00205291 0.00150956
-0.00413991 -0.00156481 -0.00446235
-0.000230743 0.0109786 0.0201991
0.00108073 -0.00443695 0.0102646
-0.00537926 0.00487166 -0.00219897
-0.00108882 0.0101928 0.00363945
0.00148219 -0.0185934 0.00762762
-0.00827945 -0.00565463 0.00914119
0.00198311 -0.00305084 0.0054354
0.00179656 -0.00233896 -0.00642211
0.000660004 -0.00110391 -0.00393023
0.0017835 -0.000240578 -0.000677428
0.00322996 -0.000160209 0.00487586
0.000834241 0.00983531 0.0142238
0.00153684 0.000418094 2.90701e-05
0.000651852 0.000733597 0.0171242
0.0093252 0.0156692 -0.00992466
3.12936e-06 0.0123135 0.0174201
0.00348018 0.00599167 -0.00154176
0.0036651 0.010771 -0.00272062
0.00829252 0.000997834 0.0106005
0.000713798 -0.00682052 -0.0167601
0.000106176 -0.00464736 -0.0197769
0.000558357 0.00207571 0.00225298
-0.00148294 -0.00739883 0.0162705
0.00480908 0.0068675 -0.0119357
0.0463156 0.0236369 0.0541056
-0.000300743 0.00364071 -0.00171715
0.0014935 0.0112773 -0.0105773
0.00292415 0.00826442 0.00584765
-0.00595378 -0.000130059 -0.010847
0.000972442 0.000988964 -0.000796373
0.000453144 -0.000518755 0.000116957
-0.0185348 0.0123685 -0.00483477
-0.00181571 0.00121592 -0.00638169
0.0409762 -0.0097581 -0.000961703
-0.0110209 -0.00975508 -0.00656083
-0.0202316 0.0203141 -0.0193666
-0.00114068 0.0108501 0.00109302
0.0340506 -0.00178559 -0.013007
-0.00494508 -0.00124322 -0.00151562
0.00195811 -0.00126415 -0.0011468
0.000530272 -0.000441181 -3.58685e-05
0.00512249 0.00109047 -0.000897469
-0.00035861 0.0132525 0.0112961
0.00719923 0.00413167 -0.00294641
-0.116526 -0.14195 -0.0736363
0.00257133 -0.0046501 -0.0130599
0.000684911 -0.000406099 -0.00374274
0.000308178 -0.0207916 0.00456934
0.00173317 -0.00293556 -0.000692508
-0.00705116 0.000482408 -0.012139
-0.00170641 0.000202327 -0.000188779
-0.0029165 0.00207287 -0.00722867
0.00731223 0.00103825 -0.00369209
0.000392358 -0.00264092 0.000688243
-0.0102844 0.0122524 0.0363634
0.00126581 0.00415898 -0.0051895
0.00235418 0.00830962 0.00639991
0.000506232 0.0197799 0.00628934
-0.0126882 -0.00516976 0.0138946
0.000200014 -0.000653353 0.00104206
0.000120137 -0.016788 0.0141026
0.000365349 -0.00036412 -0.000492666
-0.0326254 -0.00643177 -0.0487117
7.77159e-09 0.0188693 -0.00813627
-0.126982 -0.0813114 0.351106
0.0081673 -0.00134009 0.0091596
0.0101171 0.0317173 -0.00716482
8.27338e-05 0.0194109 0.00618551
-0.000462029 -0.00800952 0.00730623
0.00115178 0.0561842 -0.0195416
0.00193033 -0.017926 -0.00295891
-0.0156217 0.00789656 -0.0740864
0.00440209 0.00634184 -0.00332997
-0.000773914 0.00433635 0.0110224
-0.0327773 0.00531078 -0.0251808
0.00221733 -0.00222467 -0.00273751
0.000427129 -0.000451749 -0.0191439
0.00473374 0.00352189 -0.00285887
-0.00368131 0.000762388 -0.00307251
0.00537287 0.00254064 0.00166144
0.00911374 0.0156102 -0.00941143
0.0028123 -0.00241201 -0.000124813
0.00500194 -0.00168568 -0.00146789
-0.0078414 -0.00120656 -0.00137658
1.38024e-05 0.00110318 0.000305682
0.00663082 -0.00200476 -0.0146392
0.00542616 -0.000850964 -0.00321058
0.0082032 0.00791732 0.000830747
0.000464613 0.00116955 0.000119792
0.000121562 0.000190787 5.62914e-05
-0.0058375 -0.00560367 0.00414464
-0.0236582 0.0088446 0.0119
0.00377537 -0.00186014 -0.0127273
0.00291589 -0.000454468 -3.35461e-05
0.00139514 -0.00114634 0.000315086
-0.00911203 0.00590835 0.000793891
0.0241997 -0.0114748 0.0541285
0.00500256 0.00584065 -0.00924837
-0.00245073 0.00542729 0.00538374
0.00545486 0.0103842 0.00209521
0.00879817 0.00845013 -0.00606253
-0.00809379 -0.00355134 -0.0017975
0.00197093 -0.00262237 0.00262401
0.0194888 0.0010954 -0.0265644
0.00197361 -0.00356997 -0.00102346
0.00248464 0.000361845 0.000119281
-0.00205905 -0.00532267 -0.00176686
-0.00474254 0.000522868 -0.01529
-0.0185078 0.0113141 -0.00191778
-1.30862e-218 -9.06247e-218 -3.22607e-12
-0.00374157 0.0122923 -0.00245417
-0.00446992 -0.00283464 0.000611317
0.00282808 0.00249581 0.00189926
0.00148841 0.0161839 0.00650165
0.0115364 -0.00488494 -0.0286937
-0.0309971 -0.00536617 0.0229896
-0.00222086 -0.0109802 0.112884
0.00628166 -0.00569279 -0.00456968
-0.000509441 0.0186525 0.0121083
0.000596894 0.00206691 -0.000262183
0.00208028 -0.00143602 -0.0072117
0.00156848 0.0124891 0.00017548
0.00165203 0.0011389 -0.00118818
0.00874973 -0.00276485 -0.0337954
0.018714 0.00322513 0.00340347
-0.0354835 -0.000346194 0.00636525
0.0219643 -0.00288794 -7.49979e-06
-0.00199853 0.00998277 0.0104499
-0.000307328 -0.00427299 -0.00583738
-0.000944358 0.00788405 0.00543425
-3.92153e-05 0.000566002 -0.00149134
0.00207899 0.000719779 -0.00104644
0.00763693 -0.00670227 -0.00329354
0.00264074 0.00566344 0.00631649
0.00783719 -0.00426688 -0.0123989
0.00303574 -0.00329092 0.020011
0.00538351 -0.0156126 0.0299889
0.0055541 0.00986553 -0.00415502
0.000973191 -0.00348924 0.00122468
0.000325709 0.000280935 -0.00127208
-0.000222466 -0.000120611 -0.000720605
0.0115476 0.016725 0.0109341
-0.0381696 -0.00446485 -0.0931951
-0.00711886 0.00237596 0.00444054
0.0159705 -0.0128851 0.0488325
0.049406 0.00889153 -0.0054754
0.00878632 0.0138935 0.0100585
-0.00280775 0.00158726 -0.00918096
0.0540526 0.0178263 -0.0799214
0.00401103 0.000429345 0.000866716
-0.0114176 -0.00732491 0.00406909
0.0022856 -0.00374882 0.00188609
-0.0145924 0.0034774 -0.0313472
0.0188565 -0.0287118 0.0129767
0.000211786 0.0159969 0.00690292
0.000405932 -0.000143575 -1.95446e-05

VECTORS force float
-1.69608e-06 2.9207e-06 -3.6117e-06
-8.95245e-07 1.26785e-06 6.65092e-08
5.41135e-07 -8.93276e-07 1.57078e-07
1.18972e-06 1.33476e-06 8.38031e-07
-1.48021e-06 -6.05461e-07 -9.0804e-07
0.0 0.0 -1.43822e-06
-0.000812505 0.00941302 -0.00925726
7.63314e-06 8.88723e-08 2.04662e-06
-7.57147e-08 -3.11342e-08 1.07518e-07
4.77061e-08 -3.70558e-07 -1.1906e-06
1.26817e-06 -2.32622e-06 -3.45878e-06
-5.39746e-06 -4.86806e-06 8.2126e-06
5.18526e-06 1.72164e-06 -4.51805e-07
-4.41361e-06 -3.49111e-07 2.7371e-06
-1.50398e-08 -8.27618e-07 6.36521e-07
5.27283e-09 2.77285e-08 4.23008e-08
-4.261e-07 -4.12032e-07 8.08445e-07
-4.05851e-07 6.19175e-07 -1.51663e-06
-3.08685e-06 -1.97012e-06 2.69491e-06
9.85668e-20 -2.50934e-20 1.35525e-20
4.8197e-06 -2.19782e-06 4.10185e-06
-2.50089e-06 8.50777e-06 4.05683e-07
-1.90744e-07 8.34596e-07 -1.93055e-07
-2.5446e-08 1.19154e-07 3.49155e-08
0.0 0.0 -1.43822e-06
-4.05551e-10 1.53165e-08 -1.13626e-08
0.0 0.0 -1.43822e-06
0.0 0.0 -1.43822e-06
-1.23123e-05 4.79388e-06 -7.84689e-06
-4.14332e-06 -1.00911e-06 3.39141e-06
-3.07777e-05 1.72068e-05 -5.27254e-06
-1.87012e-07 1.05799e-07 -4.29661e-07
-1.68152e-06 -2.48713e-09 -8.43253e-09
1.09437e-05 4.66685e-06 1.40194e-05
0.0 1.34417e-23 0.0
-3.04931e-06 -5.75437e-06 7.0066e-06
8.55759e-08 4.77744e-07 -1.0684e-06
0.0 0.0 -1.43822e-06
0.0 0.0 -1.43822e-06
-9.43673e-07 -1.91434e-06 4.96939e-06
3.24592e-06 1.50206e-06 -4.02135e-06
-4.78457e-07 1.03207e-06 2.19838e-07
5.01845e-07 -5.316e-09 -4.1401e-07
0.0 0.0 -1.43822e-06
0.0 0.0 -1.43822e-06
-1.22766e-09 1.10508e-08 8.43296e-10
-3.00814e-07 -1.28661e-06 1.35014e-06
-3.79076e-07 -4.88796e-07 -9.97772e-07
2.4284e-07 -9.17488e-08 -4.09864e-08
-8.68068e-09 -1.06206e-10 1.19883e-08
-3.21622e-08 3.03363e-08 -1.6914e-08
1.57945e-09 2.22081e-08 -2.37257e-09
-4.93586e-08 5.53293e-07 -1.82447e-06
-1.65346e-07 -4.86421e-07 6.91801e-07
1.70734e-06 -4.42432e-06 -2.06427e-06
-2.85319e-06 -4.77757e-07 -2.4879e-06
-1.44236e-07 1.99332e-08 1.78199e-07
-5.13311e-07 -1.88437e-06 8.79247e-07
0.0 0.0 -1.43822e-06
0.0 0.0 -1.43822e-06
-1.36116e-06 -2.07196e-06 3.71547e-06
6.69239e-07 -1.25891e-08 5.81258e-07
0.0 0.0 -1.43822e-06
-7.37694e-07 -3.75227e-06 1.23392e-06
3.93845e-07 -3.99093e-07 6.09141e-07
7.69995e-07 -1.68563e-06 1.47782e-06
0.0 0.0 -1.43822e-06
-1.39911e-07 -2.9515e-07 -1.0055e-06
-2.46645e-06 9.86896e-07 3.77544e-06
2.21246e-06 7.112e-06 -1.25648e-05
-1.24601e-06 -6.28616e-07 1.45019e-06
0.0 0.0 -1.43822e-06
7.9783e-07 1.65349e-06 1.02814e-06
-6.96496e-09 2.84448e-08 1.73288e-08
-1.95438e-05 -3.52943e-06 2.37593e-05
-2.33106e-06 -1.69385e-06 4.18842e-06
5.66721e-09 8.26312e-08 3.16968e-08
-9.83812e-06 2.52417e-06 -2.67141e-06
0.0 0.0 -1.43822e-06
-1.26901e-05 -6.79865e-06 1.11964e-05
-3.59268e-07 -1.32385e-06 1.44129e-06
-3.54059e-06 -2.6047e-06 -1.9746e-06
-1.43036e-06 -3.2458e-07 -1.74825e-06
1.86862e-06 -5.28822e-06 -1.56093e-05
-1.02924e-08 -2.29232e-08 -2.04893e-08
-6.83026e-08 -6.15165e-08 3.8864e-07
1.13171e-06 -9.70554e-06 2.29498e-07
-3.94109e-09 9.76809e-09 1.03529e-08
1.19618e-10 -9.52374e-09 -1.46363e-08
1.93999e-07 -9.75256e-08 -7.48268e-08
2.7094e-06 -3.00877e-06 -1.22228e-05
-2.12078e-05 -1.34946e-05 2.87999e-05
2.38114e-06 -6.13892e-07 4.03248e-07
0.0 0.0 -1.43822e-06
-1.22573e-06 -5.05537e-06 9.50407e-07
3.33056e-06 -2.3767e-07 -8.40159e-06
3.5694e-06 6.45831e-07 1.59369e-06
-8.80217e-07 3.66304e-07 -2.08851e-07
2.58318e-07 1.2607e-06 3.94931e-07
-5.40399e-07 -3.95122e-07 -3.96736e-07
-1.84004e-05 -2.47951e-05 3.09791e-05
-3.34585e-09 2.00958e-08 5.25906e-09
-2.60569e-08 -8.76793e-08 -1.48134e-06
-1.2129e-05 2.68807e-06 4.37509e-06
-0.00523337 0.0230787 -0.0121576
1.25241e-07 -5.79284e-08 -1.20645e-06
-9.56934e-07 2.90826e-07 5.14854e-07
-1.93511e-05 -1.84851e-05 3.38406e-05
0.0 0.0 -1.43822e-06
-2.93177e-05 -6.8045e-06 2.21133e-05
-4.95187e-07 -1.16766e-06 -3.067e-06
1.97873e-07 1.4765e-07 -1.34752e-06
-6.52361e-07 -1.3999e-06 2.42342e-06
-3.18894e-15 1.77632e-09 -1.67929e-08
0.0 0.0 -1.43822e-06
0.0 0.0 -1.43822e-06